/*--------------------------------*- C++ -*----------------------------------*\
| =========                 |                                                 |
| \\      /  F ield         | OpenFOAM: The Open Source CFD Toolbox           |
|  \\    /   O peration     | Version:  v1906                                 |
|   \\  /    A nd           | Web:      www.OpenFOAM.com                      |
|    \\/     M anipulation  |                                                 |
\*---------------------------------------------------------------------------*/
FoamFile
{
    version     2.0;
    format      ascii;
    class       volScalarField;
    location    "23.2/sphere";
    object      T;
}
// * * * * * * * * * * * * * * * * * * * * * * * * * * * * * * * * * * * * * //

dimensions      [0 0 0 1 0 0 0];


internalField   nonuniform List<scalar> 
304
(
486.214
486.245
486.243
486.26
486.216
486.214
486.213
486.245
486.212
486.374
486.374
486.259
486.243
486.374
486.374
486.293
486.259
486.293
486.216
486.244
486.261
486.214
486.246
486.375
486.374
486.293
486.261
486.374
486.374
486.321
486.212
486.292
486.321
486.252
486.215
486.262
486.292
486.218
486.219
486.293
486.321
486.25
486.216
486.252
486.201
486.201
486.215
486.216
486.217
486.253
486.215
486.216
486.253
486.217
486.201
486.216
486.218
486.216
486.253
486.245
486.245
486.261
486.261
486.294
486.293
486.321
486.213
486.261
486.245
486.294
486.26
486.321
486.293
486.215
486.218
486.253
486.216
486.213
486.213
486.251
486.214
486.26
486.209
486.243
486.292
486.321
486.257
486.291
486.245
486.244
486.211
486.321
486.293
486.293
486.259
486.252
486.214
486.215
486.2
486.213
486.214
486.251
486.214
486.252
486.215
486.213
486.199
486.216
486.214
486.214
486.252
486.245
486.26
486.294
486.244
486.261
486.293
486.322
486.214
486.294
486.261
486.261
486.245
486.322
486.293
486.216
486.215
486.252
486.215
486.26
486.245
486.293
486.245
486.293
486.261
486.322
486.211
486.293
486.245
486.293
486.245
486.321
486.261
486.292
486.21
486.258
486.261
486.321
486.243
486.292
486.244
486.259
486.211
486.321
486.26
486.293
486.244
486.217
486.213
486.252
486.214
486.292
486.213
486.245
486.293
486.321
486.244
486.261
486.259
486.245
486.212
486.321
486.292
486.261
486.244
486.251
486.212
486.213
486.213
486.215
486.253
486.219
486.261
486.293
486.322
486.213
486.244
486.261
486.293
486.244
486.321
486.292
486.244
486.211
486.293
486.258
486.251
486.214
486.214
486.294
486.261
486.322
486.216
486.263
486.247
486.295
486.245
486.321
486.261
486.26
486.213
486.293
486.245
486.321
486.244
486.292
486.246
486.294
486.213
486.26
486.261
486.293
486.244
486.292
486.244
486.259
486.211
486.251
486.214
486.217
486.321
486.244
486.261
486.26
486.293
486.213
486.245
486.293
486.261
486.245
486.293
486.261
486.246
486.216
486.214
486.214
486.217
486.204
486.213
486.217
486.252
486.214
486.251
486.215
486.213
486.199
486.221
486.217
486.254
486.217
486.293
486.294
486.322
486.216
486.245
486.246
486.261
486.259
486.321
486.293
486.244
486.211
486.261
486.244
486.252
486.215
486.214
486.254
486.217
486.215
486.321
486.259
486.292
486.244
486.26
486.21
486.244
486.292
486.293
486.259
486.26
486.243
486.243
486.211
486.213
486.215
486.212
486.202
486.251
486.215
486.213
486.217
486.215
486.213
)
;

boundaryField
{
    sphere_to_oil
    {
        type            compressible::turbulentTemperatureCoupledBaffleMixed;
        refValue        nonuniform List<scalar> 
360
(
337.224
337.224
312.346
359.289
366.787
314.788
367.976
367.976
367.976
337.54
337.54
315.139
316.825
310.842
334.749
363.549
358.096
358.096
358.096
311.73
355.501
333.37
330.137
363.417
311.382
364.531
314.343
364.019
364.019
364.019
368.882
361.84
312.372
312.193
314.967
315.117
358.417
358.417
358.417
357.783
366.112
312.996
315.123
337.143
337.143
314.252
316.867
309.535
335.099
364.943
314.96
314.816
316.529
316.794
311.478
333.535
359.185
311.696
315.099
316.384
309.895
365.158
365.158
365.158
309.531
363.858
334.84
323.088
367.32
367.32
367.32
366.991
365.54
310.551
356.324
333.996
311.021
328.51
365.857
358.896
331.195
320.835
330.302
309.795
312.345
314.692
315.32
316.702
310.815
311.847
312.369
316.673
315.101
312.481
316.547
315.028
315.279
315.143
312.819
310.29
310.375
310.748
314.785
315.127
316.69
310.662
310.989
316.842
312.835
315.285
315.346
315.192
312.849
311.585
309.901
309.849
324.484
322.737
325.5
337.235
337.235
359.289
359.289
363.417
363.417
360.716
360.716
360.716
363.13
363.13
363.13
324.993
322.678
324.468
311.214
366.787
366.787
335.229
335.229
368.882
368.882
332.91
332.91
368.188
368.188
368.188
311.199
311.315
363.995
363.995
363.995
364.625
364.625
364.625
363.549
355.501
334.749
363.549
361.531
310.975
361.531
361.531
330.227
330.72
321.469
332.823
332.823
367.826
367.826
367.826
309.566
355.501
333.37
366.918
366.918
309.638
366.918
331.007
321.296
309.635
314.279
314.483
317.098
311.295
316.856
314.477
309.599
310.328
364.531
364.531
361.84
361.84
337.125
337.125
359.527
359.527
359.527
335.516
335.516
310.242
314.77
314.943
316.831
314.961
314.715
316.837
312.739
316.832
315.183
312.723
357.783
316.879
315.372
311.724
366.63
366.63
366.63
334.28
334.28
309.492
315.251
315.257
316.353
366.112
312.805
316.268
315.222
357.783
366.112
334.349
311.595
334.349
309.919
309.894
316.806
311.364
314.429
314.362
314.538
311.237
309.984
365.389
357.651
365.389
365.389
357.651
357.651
364.943
363.858
335.099
361.182
310.322
364.943
361.182
361.182
316.361
312.217
315.191
316.643
312.491
366.991
314.853
315.199
315.37
312.799
359.185
356.324
315.227
315.196
312.799
357.961
362.029
333.535
366.429
309.978
359.185
366.429
366.429
316.627
312.845
365.857
315.209
315.046
315.092
365.993
312.807
365.517
334.693
357.961
334.693
365.993
357.961
365.993
309.528
322.471
323.505
323.93
335.955
359.629
335.955
359.629
359.629
310.172
363.858
360.941
334.84
360.941
310.28
360.941
324.871
324.601
310.498
365.009
333.517
365.009
365.009
333.517
310.706
314.675
314.989
316.756
365.54
366.991
333.683
311.002
365.54
333.683
310.718
356.324
363.174
333.996
363.174
310.531
363.174
316.881
358.896
312.902
315.26
361.813
358.275
362.029
334.775
362.029
361.813
334.775
361.813
320.658
330.3
365.857
333.981
309.681
358.896
333.981
311.861
365.517
358.275
365.517
334.885
358.275
334.885
)
;
        refGradient     uniform 0;
        valueFraction   nonuniform List<scalar> 
360
(
0.000131071
0.000125744
8.0503e-05
0.000287593
0.000294952
0.000169128
0.000296785
0.00025475
0.000396532
0.000126251
0.000123092
0.000165132
0.000251669
7.19571e-05
0.000128721
0.000250222
0.000286748
0.000267924
0.000375958
6.58444e-05
0.000246849
0.000121352
0.000111844
0.000296802
8.61719e-05
0.000305078
0.000171965
0.000301138
0.000394099
0.000263624
0.000301189
0.000303783
8.15711e-05
8.06599e-05
0.000169268
0.000166576
0.000281868
0.000382129
0.000262401
0.000394545
0.000389726
8.32166e-05
0.000165061
0.000120469
0.000120325
0.000169918
0.000254216
6.78231e-05
0.000121358
0.000257337
0.000167622
0.000168711
0.000251481
0.000249038
7.03583e-05
0.000128712
0.000262479
6.74014e-05
0.000166976
0.000248998
6.59739e-05
0.000293135
0.000258767
0.000405002
6.8017e-05
0.00026458
0.000123414
0.000119367
0.000299909
0.000391244
0.000263177
0.000377284
0.000382566
7.30639e-05
0.000255078
0.000129401
6.73629e-05
0.000120792
0.000381752
0.000396573
0.000118474
0.000116239
0.000114171
6.78532e-05
8.18245e-05
0.000165889
0.000166818
0.000252629
7.62584e-05
6.43887e-05
8.09798e-05
0.000252218
0.000166502
8.27216e-05
0.000251801
0.000168404
0.000167407
0.000167665
8.17607e-05
6.55358e-05
6.64551e-05
6.55707e-05
0.00016857
0.000165681
0.000252027
7.41999e-05
6.445e-05
0.000251844
8.00056e-05
0.000165941
0.000165973
0.000169359
8.28143e-05
6.63136e-05
6.46731e-05
6.59226e-05
0.000114749
0.000114887
0.00011935
0.000129417
0.000121634
0.000251328
0.000395925
0.000264791
0.000399566
0.00025612
0.000393769
0.000293183
0.000256327
0.000385197
0.000288737
0.000117771
0.000111375
0.000114077
6.29739e-05
0.000261175
0.000393234
0.000121664
0.000122219
0.000397398
0.00026422
0.000127539
0.000134419
0.000392507
0.000269634
0.000310699
6.93067e-05
6.44971e-05
0.000272232
0.000377245
0.000299023
0.000280297
0.000390306
0.000298992
0.000308701
0.000284352
0.000133011
0.000396466
0.000256094
7.13989e-05
0.000385339
0.000288361
0.000110044
0.000115936
0.000114695
0.000120996
0.00012648
0.000394482
0.000259744
0.000304885
7.31016e-05
0.000379477
0.000130119
0.000399029
0.000255443
7.14045e-05
0.00030288
0.000111021
0.000112051
6.54672e-05
0.000171598
0.00017153
0.000253636
8.45794e-05
0.000254019
0.00016714
6.47949e-05
6.29181e-05
0.000396938
0.000252209
0.000392279
0.000261535
0.00012475
0.000116665
0.000394109
0.000246312
0.000284714
0.000115319
0.000133806
6.73165e-05
0.000168582
0.000168429
0.000251648
0.000164771
0.000165619
0.000250657
8.59125e-05
0.000251516
0.000170536
8.35475e-05
0.000283098
0.000251238
0.000169515
6.75561e-05
0.000385495
0.000249908
0.000292395
0.000121815
0.000113202
6.53887e-05
0.000167271
0.000170084
0.000252183
0.000286719
8.01893e-05
0.00024979
0.000163138
0.000248138
0.00026269
0.000119243
6.69769e-05
0.000132319
6.7805e-05
6.38256e-05
0.000254999
8.5098e-05
0.000171431
0.000169449
0.000167429
8.40283e-05
6.41859e-05
0.000260724
0.000244305
0.000410136
0.000305284
0.000382634
0.000274921
0.000294666
0.000301697
0.000134102
0.000258818
6.97308e-05
0.000393859
0.00038297
0.000290975
0.000253787
8.08655e-05
0.000165133
0.000250869
8.15898e-05
0.00029893
0.000165848
0.000167033
0.000165494
8.10953e-05
0.000296699
0.000278033
0.000168845
0.00016448
8.26568e-05
0.00027858
0.000306643
0.000121609
0.000275265
6.53741e-05
0.000392171
0.000380209
0.00028729
0.000249007
8.18e-05
0.000287741
0.000165684
0.00016594
0.000166884
0.000289308
8.25665e-05
0.000295588
0.000124376
0.000254852
0.000125414
0.000259701
0.000395769
0.000388531
6.53435e-05
0.000130943
0.000129396
0.000126561
0.000115257
0.000385613
0.000125883
0.000256357
0.000301875
6.43913e-05
0.000389376
0.000388907
0.000127312
0.00027652
6.74795e-05
0.000296452
0.00011287
0.000110883
6.74238e-05
0.000381375
0.000113977
0.000250109
0.000294564
0.000122194
6.66125e-05
0.000165749
0.000165692
0.000250026
0.000286093
0.000248145
0.000119973
6.45791e-05
0.000252302
0.000133249
7.45844e-05
0.000365622
0.000392604
0.000116032
0.000249394
6.91435e-05
0.00031365
0.000251942
0.000301859
8.2576e-05
0.000166461
0.00029103
0.000282148
0.00026544
0.000118644
0.000388827
0.000387991
0.000140839
0.00025935
0.000114107
0.000115857
0.000261094
0.000129246
6.98798e-05
0.000264063
0.000124453
6.45332e-05
0.000384327
0.000388942
0.000255909
0.000124192
0.000251375
0.000128288
)
;
        value           nonuniform List<scalar> 
360
(
486.217
486.218
486.221
486.198
486.2
486.237
486.199
486.206
486.192
486.215
486.216
486.236
486.239
486.224
486.217
486.206
486.193
486.199
486.187
486.224
486.203
486.217
486.202
486.198
486.219
486.197
486.237
486.199
486.189
486.204
486.198
486.195
486.219
486.218
486.235
486.237
486.195
486.189
486.201
486.186
486.19
486.22
486.238
486.216
486.218
486.236
486.239
486.223
486.216
486.203
486.238
486.237
486.24
486.24
486.221
486.214
486.2
486.223
486.237
486.24
486.224
486.198
486.203
486.189
486.224
486.203
486.217
486.201
486.201
486.195
486.206
486.194
486.193
486.227
486.207
486.22
486.222
486.204
486.191
486.187
486.204
486.203
486.205
486.224
486.223
486.236
486.237
486.238
486.22
486.223
486.22
486.239
486.238
486.218
486.239
486.236
486.236
486.236
486.218
486.225
486.225
486.225
486.237
486.238
486.239
486.223
486.223
486.238
486.216
486.235
486.238
486.236
486.218
486.222
486.226
486.225
486.203
486.203
486.203
486.217
486.219
486.204
486.188
486.205
486.189
486.204
486.189
486.197
486.205
486.191
486.2
486.203
486.204
486.203
486.226
486.205
486.192
486.218
486.219
486.193
486.206
486.217
486.216
486.192
486.205
486.196
486.225
486.223
486.201
486.189
486.193
486.2
486.188
486.195
486.195
486.195
486.215
486.187
486.203
486.223
486.188
486.196
486.204
486.203
486.202
486.215
486.215
486.189
486.204
486.198
486.222
486.187
486.215
486.189
486.204
486.222
486.197
486.203
486.201
486.223
486.237
486.236
486.239
486.221
486.239
486.238
486.224
486.224
486.189
486.204
486.188
486.203
486.216
486.218
486.187
486.205
486.196
486.218
486.216
486.224
486.237
486.237
486.239
486.238
486.238
486.239
486.216
486.239
486.235
486.218
486.196
486.239
486.236
486.222
486.192
486.205
486.199
486.216
486.218
486.223
486.237
486.236
486.239
486.199
486.219
486.24
486.238
486.201
486.202
486.215
486.222
486.214
486.222
486.223
486.239
486.219
486.236
486.236
486.237
486.217
486.225
486.203
486.205
486.19
486.197
486.191
486.202
486.196
486.195
486.215
486.203
486.223
486.188
486.187
486.198
486.239
486.223
486.239
486.239
486.22
486.199
486.237
486.237
486.239
486.22
486.196
486.198
486.236
486.237
486.218
486.196
486.194
486.216
486.202
486.223
486.188
486.192
486.2
486.24
486.22
486.2
486.238
486.238
486.238
486.202
486.222
486.201
486.216
486.202
486.216
486.204
486.188
486.192
486.223
486.204
486.204
486.205
486.217
486.19
486.216
486.202
486.199
486.223
486.188
486.187
486.215
486.2
486.222
486.195
486.202
486.202
486.226
486.196
486.22
486.208
486.201
486.219
486.226
486.238
486.239
486.24
486.198
486.207
486.218
486.225
486.204
486.214
486.222
486.191
486.19
486.218
486.205
486.223
486.193
486.239
486.193
486.217
486.236
486.196
486.196
486.201
486.216
486.188
486.188
486.212
486.201
486.204
486.205
486.204
486.216
486.223
486.201
486.216
486.223
486.192
486.188
486.205
486.217
486.202
486.215
)
;
        Tnbr            T;
        thicknessLayers 0();
        kappaLayers     0();
        kappaMethod     solidThermo;
        kappa           none;
        alphaAni        none;
    }
}


// ************************************************************************* //
