/*--------------------------------*- C++ -*----------------------------------*\
| =========                 |                                                 |
| \\      /  F ield         | OpenFOAM: The Open Source CFD Toolbox           |
|  \\    /   O peration     | Version:  v1912                                 |
|   \\  /    A nd           | Website:  www.openfoam.com                      |
|    \\/     M anipulation  |                                                 |
\*---------------------------------------------------------------------------*/
FoamFile
{
    version     2.0;
    format      ascii;
    class       volVectorField;
    location    "25/oil";
    object      U;
}
// * * * * * * * * * * * * * * * * * * * * * * * * * * * * * * * * * * * * * //

dimensions      [0 1 -1 0 0 0 0];


internalField   nonuniform List<vector> 
27760
(
(1.37726e-05 1.25997e-05 1.39212e-05)
(-0.000114106 -7.20636e-05 -6.46918e-05)
(5.42551e-05 -3.33277e-05 -3.3712e-05)
(-6.22738e-06 1.31622e-05 1.17231e-05)
(1.72198e-05 -1.14353e-06 -2.5132e-06)
(8.56148e-06 4.34884e-06 2.86655e-06)
(1.32262e-05 1.79036e-06 1.96124e-07)
(1.2394e-05 3.02954e-06 1.27151e-06)
(1.28392e-05 2.72942e-06 7.85956e-07)
(1.23746e-05 3.24232e-06 1.14081e-06)
(1.08083e-05 3.36763e-06 1.0838e-06)
(9.57533e-06 3.65582e-06 1.26063e-06)
(6.65248e-06 3.82962e-06 1.29183e-06)
(4.70185e-06 3.93826e-06 1.36189e-06)
(1.07484e-06 4.05479e-06 1.39607e-06)
(-1.20746e-06 3.97808e-06 1.36416e-06)
(-4.75467e-06 4.0066e-06 1.38008e-06)
(-6.88856e-06 3.75452e-06 1.25098e-06)
(-9.61186e-06 3.68901e-06 1.24341e-06)
(-1.11288e-05 3.31077e-06 1.04862e-06)
(-1.24808e-05 3.17157e-06 1.02639e-06)
(-1.30802e-05 2.73767e-06 8.09087e-07)
(-1.28352e-05 2.56161e-06 7.85801e-07)
(-1.24343e-05 2.14534e-06 5.89789e-07)
(-1.06943e-05 1.97292e-06 5.79388e-07)
(-9.42928e-06 1.63406e-06 4.48334e-07)
(-6.57557e-06 1.4996e-06 4.70115e-07)
(-4.79604e-06 1.29037e-06 4.56095e-07)
(-1.5768e-06 1.3005e-06 4.64458e-07)
(-3.86342e-07 1.24942e-06 3.26329e-07)
(-6.55961e-05 -0.000131849 -6.5407e-05)
(5.18537e-05 3.60143e-05 -3.48075e-05)
(-1.89606e-05 -2.48858e-05 5.57283e-06)
(1.55909e-05 -2.52587e-06 4.0866e-06)
(1.11472e-05 -1.15997e-05 2.74917e-06)
(1.88503e-05 -8.83149e-06 3.03112e-06)
(2.00196e-05 -9.67614e-06 2.0797e-06)
(2.23094e-05 -8.84153e-06 2.57241e-06)
(2.19576e-05 -8.63502e-06 2.37916e-06)
(2.16542e-05 -8.02212e-06 2.76419e-06)
(1.8848e-05 -7.72999e-06 2.82535e-06)
(1.6533e-05 -7.26363e-06 3.09401e-06)
(1.15966e-05 -7.02375e-06 3.20514e-06)
(7.84821e-06 -6.80365e-06 3.32411e-06)
(1.73549e-06 -6.65538e-06 3.39883e-06)
(-2.61496e-06 -6.74643e-06 3.344e-06)
(-8.60799e-06 -6.69803e-06 3.35766e-06)
(-1.26194e-05 -7.0973e-06 3.13626e-06)
(-1.72274e-05 -7.14843e-06 3.08265e-06)
(-2.00354e-05 -7.77188e-06 2.74624e-06)
(-2.23501e-05 -7.89204e-06 2.65099e-06)
(-2.34177e-05 -8.61154e-06 2.27393e-06)
(-2.30783e-05 -8.75833e-06 2.16991e-06)
(-2.22793e-05 -9.44342e-06 1.82671e-06)
(-1.94675e-05 -9.5753e-06 1.74628e-06)
(-1.70665e-05 -1.01204e-05 1.50653e-06)
(-1.24143e-05 -1.01803e-05 1.48426e-06)
(-9.03548e-06 -1.03466e-05 1.41635e-06)
(-3.72095e-06 -9.32861e-06 1.34559e-06)
(-9.51608e-07 -5.38852e-06 8.69801e-07)
(-3.46665e-05 3.43192e-05 -3.44676e-05)
(-1.27311e-05 -4.38528e-05 5.13522e-06)
(9.23641e-06 -1.59081e-05 -6.86044e-06)
(7.37705e-06 -1.95245e-05 5.61298e-06)
(1.86857e-05 -1.59011e-05 2.35533e-07)
(1.91887e-05 -1.44148e-05 3.26467e-06)
(2.35132e-05 -1.32076e-05 1.85381e-06)
(2.42183e-05 -1.13312e-05 2.83096e-06)
(2.44934e-05 -1.01803e-05 2.58323e-06)
(2.36782e-05 -8.41192e-06 3.07787e-06)
(2.07749e-05 -7.29293e-06 3.13575e-06)
(1.80804e-05 -5.92943e-06 3.44549e-06)
(1.27193e-05 -5.04408e-06 3.55779e-06)
(8.54565e-06 -4.3896e-06 3.69515e-06)
(1.85204e-06 -3.91449e-06 3.76926e-06)
(-2.94738e-06 -4.15095e-06 3.71732e-06)
(-9.52612e-06 -4.16396e-06 3.72732e-06)
(-1.39302e-05 -5.25864e-06 3.49548e-06)
(-1.89904e-05 -5.73371e-06 3.43496e-06)
(-2.20582e-05 -7.44606e-06 3.07799e-06)
(-2.46025e-05 -8.23796e-06 2.97563e-06)
(-2.57547e-05 -1.02106e-05 2.57512e-06)
(-2.53939e-05 -1.11187e-05 2.46669e-06)
(-2.45003e-05 -1.29925e-05 2.10304e-06)
(-2.14411e-05 -1.38185e-05 2.02184e-06)
(-1.87947e-05 -1.53053e-05 1.76826e-06)
(-1.37382e-05 -1.58419e-05 1.74794e-06)
(-1.00194e-05 -1.64226e-05 1.67114e-06)
(-4.24606e-06 -1.47728e-05 1.57485e-06)
(-1.06597e-06 -7.927e-06 9.77094e-07)
(1.17308e-05 -3.254e-05 1.19387e-05)
(1.09186e-05 -2.60071e-05 4.32417e-06)
(6.56604e-06 -3.71845e-05 5.84858e-06)
(1.61137e-05 -2.95948e-05 3.80911e-06)
(1.78257e-05 -3.16124e-05 3.17935e-06)
(2.34603e-05 -2.83587e-05 3.20731e-06)
(2.53621e-05 -2.79e-05 2.91624e-06)
(2.77219e-05 -2.55566e-05 3.32987e-06)
(2.72824e-05 -2.44438e-05 3.35509e-06)
(2.68383e-05 -2.23582e-05 3.79692e-06)
(2.33771e-05 -2.11943e-05 3.9556e-06)
(2.04908e-05 -1.95696e-05 4.30542e-06)
(1.43755e-05 -1.86484e-05 4.47803e-06)
(9.71198e-06 -1.78405e-05 4.64142e-06)
(2.11205e-06 -1.7351e-05 4.74999e-06)
(-3.29668e-06 -1.75891e-05 4.67311e-06)
(-1.07407e-05 -1.76093e-05 4.69425e-06)
(-1.57181e-05 -1.88623e-05 4.3863e-06)
(-2.14048e-05 -1.93589e-05 4.31319e-06)
(-2.48703e-05 -2.13412e-05 3.85257e-06)
(-2.76871e-05 -2.21566e-05 3.72422e-06)
(-2.89883e-05 -2.44434e-05 3.21767e-06)
(-2.85394e-05 -2.53675e-05 3.07953e-06)
(-2.75455e-05 -2.7535e-05 2.62717e-06)
(-2.41075e-05 -2.83601e-05 2.52034e-06)
(-2.11624e-05 -3.00628e-05 2.20623e-06)
(-1.55429e-05 -3.05428e-05 2.17005e-06)
(-1.14043e-05 -3.10278e-05 2.06688e-06)
(-5.00511e-06 -2.82243e-05 1.94615e-06)
(-1.34351e-06 -1.64648e-05 1.23985e-06)
(-2.24888e-06 -1.38115e-05 -2.03355e-06)
(2.75398e-06 -4.13918e-05 2.95773e-06)
(9.93958e-06 -3.8619e-05 4.07714e-07)
(1.37915e-05 -4.07033e-05 3.05383e-06)
(2.02823e-05 -3.73938e-05 1.70582e-06)
(2.32598e-05 -3.53969e-05 2.87997e-06)
(2.67182e-05 -3.28967e-05 2.48386e-06)
(2.8107e-05 -2.98239e-05 3.16687e-06)
(2.81286e-05 -2.74525e-05 3.16854e-06)
(2.73456e-05 -2.4253e-05 3.6917e-06)
(2.39368e-05 -2.20729e-05 3.8326e-06)
(2.09365e-05 -1.94968e-05 4.22359e-06)
(1.46746e-05 -1.78228e-05 4.38035e-06)
(9.97536e-06 -1.65366e-05 4.56674e-06)
(2.12731e-06 -1.56762e-05 4.66474e-06)
(-3.28853e-06 -1.60725e-05 4.59693e-06)
(-1.09916e-05 -1.61655e-05 4.61327e-06)
(-1.59631e-05 -1.81865e-05 4.30175e-06)
(-2.18375e-05 -1.91647e-05 4.23013e-06)
(-2.52868e-05 -2.23404e-05 3.75609e-06)
(-2.81798e-05 -2.39085e-05 3.63744e-06)
(-2.94623e-05 -2.75506e-05 3.11796e-06)
(-2.89787e-05 -2.93155e-05 2.99733e-06)
(-2.79684e-05 -3.2749e-05 2.53686e-06)
(-2.44099e-05 -3.4331e-05 2.45112e-06)
(-2.14496e-05 -3.70208e-05 2.13501e-06)
(-1.56559e-05 -3.80164e-05 2.1189e-06)
(-1.15037e-05 -3.89178e-05 2.01859e-06)
(-4.91527e-06 -3.54093e-05 1.90562e-06)
(-1.29286e-06 -2.01884e-05 1.18507e-06)
(3.53701e-06 -3.26399e-05 3.75986e-06)
(6.62329e-06 -5.11035e-05 3.64226e-06)
(1.2291e-05 -5.71787e-05 3.79608e-06)
(1.82741e-05 -5.47512e-05 3.42019e-06)
(2.32845e-05 -5.41775e-05 3.25498e-06)
(2.79867e-05 -5.08474e-05 3.5588e-06)
(3.09582e-05 -4.91517e-05 3.59437e-06)
(3.31836e-05 -4.55835e-05 4.16011e-06)
(3.28745e-05 -4.34711e-05 4.36523e-06)
(3.2234e-05 -3.99737e-05 4.99368e-06)
(2.81497e-05 -3.79137e-05 5.2808e-06)
(2.47517e-05 -3.51177e-05 5.80795e-06)
(1.7345e-05 -3.35203e-05 6.08199e-06)
(1.18616e-05 -3.21032e-05 6.34002e-06)
(2.57775e-06 -3.12831e-05 6.50899e-06)
(-3.79288e-06 -3.16665e-05 6.3951e-06)
(-1.28687e-05 -3.17588e-05 6.42505e-06)
(-1.87315e-05 -3.38853e-05 5.95462e-06)
(-2.55795e-05 -3.48288e-05 5.8431e-06)
(-2.96359e-05 -3.81914e-05 5.15002e-06)
(-3.29242e-05 -3.97075e-05 4.96207e-06)
(-3.44226e-05 -4.35696e-05 4.22035e-06)
(-3.37658e-05 -4.52799e-05 4.02451e-06)
(-3.25915e-05 -4.89203e-05 3.37905e-06)
(-2.84212e-05 -5.04521e-05 3.22993e-06)
(-2.50028e-05 -5.32933e-05 2.78683e-06)
(-1.83277e-05 -5.42072e-05 2.73051e-06)
(-1.35402e-05 -5.4966e-05 2.56986e-06)
(-5.97798e-06 -5.01996e-05 2.42106e-06)
(-1.69069e-06 -2.9603e-05 1.55716e-06)
(8.07153e-07 -3.43656e-05 1.0376e-06)
(5.6579e-06 -6.16848e-05 2.53671e-06)
(1.2766e-05 -6.57604e-05 2.20056e-06)
(1.79975e-05 -6.57513e-05 2.88776e-06)
(2.43871e-05 -6.31475e-05 2.60667e-06)
(2.83365e-05 -5.98809e-05 3.27203e-06)
(3.20154e-05 -5.67604e-05 3.27331e-06)
(3.38186e-05 -5.23252e-05 3.96825e-06)
(3.37709e-05 -4.90048e-05 4.13956e-06)
(3.29331e-05 -4.43685e-05 4.84023e-06)
(2.88204e-05 -4.12456e-05 5.089e-06)
(2.53534e-05 -3.74581e-05 5.67523e-06)
(1.77071e-05 -3.50615e-05 5.91543e-06)
(1.2224e-05 -3.31304e-05 6.215e-06)
(2.56977e-06 -3.1924e-05 6.36081e-06)
(-3.76745e-06 -3.246e-05 6.26254e-06)
(-1.32257e-05 -3.26439e-05 6.28514e-06)
(-1.90485e-05 -3.55622e-05 5.80356e-06)
(-2.61692e-05 -3.70354e-05 5.69796e-06)
(-3.01928e-05 -4.16191e-05 4.97843e-06)
(-3.35888e-05 -4.39411e-05 4.81054e-06)
(-3.5068e-05 -4.91652e-05 4.04345e-06)
(-3.4361e-05 -5.1755e-05 3.87769e-06)
(-3.31762e-05 -5.66414e-05 3.21543e-06)
(-2.88306e-05 -5.89508e-05 3.09905e-06)
(-2.53985e-05 -6.27466e-05 2.649e-06)
(-1.84642e-05 -6.41855e-05 2.62206e-06)
(-1.36577e-05 -6.53157e-05 2.46399e-06)
(-5.8115e-06 -5.96978e-05 2.33019e-06)
(-1.59754e-06 -3.48591e-05 1.45751e-06)
(2.25864e-06 -4.63709e-05 2.4982e-06)
(7.53547e-06 -7.72057e-05 3.46681e-06)
(1.58535e-05 -8.43691e-05 3.64187e-06)
(2.2255e-05 -8.31537e-05 3.77346e-06)
(2.93209e-05 -8.16356e-05 3.82628e-06)
(3.43438e-05 -7.77669e-05 4.3957e-06)
(3.84559e-05 -7.51707e-05 4.63319e-06)
(4.08682e-05 -7.04648e-05 5.48762e-06)
(4.07616e-05 -6.74569e-05 5.87544e-06)
(3.99208e-05 -6.26658e-05 6.84469e-06)
(3.49959e-05 -5.97859e-05 7.31136e-06)
(3.08781e-05 -5.58906e-05 8.15849e-06)
(2.16335e-05 -5.36825e-05 8.58938e-06)
(1.49722e-05 -5.16797e-05 9.02635e-06)
(3.24437e-06 -5.05689e-05 9.28499e-06)
(-4.5032e-06 -5.10793e-05 9.11834e-06)
(-1.59467e-05 -5.12414e-05 9.15266e-06)
(-2.30759e-05 -5.41821e-05 8.40871e-06)
(-3.15817e-05 -5.55383e-05 8.22034e-06)
(-3.64726e-05 -6.01733e-05 7.13754e-06)
(-4.03991e-05 -6.23407e-05 6.8393e-06)
(-4.2162e-05 -6.76286e-05 5.70985e-06)
(-4.11725e-05 -7.00749e-05 5.40992e-06)
(-3.97254e-05 -7.50254e-05 4.45228e-06)
(-3.44952e-05 -7.72257e-05 4.22615e-06)
(-3.03946e-05 -8.10688e-05 3.5751e-06)
(-2.22193e-05 -8.23968e-05 3.47783e-06)
(-1.65058e-05 -8.33088e-05 3.22176e-06)
(-7.30129e-06 -7.62854e-05 3.0337e-06)
(-2.14302e-06 -4.53967e-05 1.96735e-06)
(1.61105e-06 -5.3379e-05 1.85785e-06)
(7.35834e-06 -9.03105e-05 3.03023e-06)
(1.60564e-05 -9.7906e-05 3.12483e-06)
(2.24218e-05 -9.71859e-05 3.47651e-06)
(3.0047e-05 -9.47169e-05 3.48429e-06)
(3.48552e-05 -9.04346e-05 4.16378e-06)
(3.93475e-05 -8.68171e-05 4.34797e-06)
(4.15573e-05 -8.12343e-05 5.27094e-06)
(4.15965e-05 -7.71659e-05 5.58397e-06)
(4.06272e-05 -7.13057e-05 6.6185e-06)
(3.56173e-05 -6.74155e-05 6.99945e-06)
(3.14747e-05 -6.25643e-05 7.91596e-06)
(2.19326e-05 -5.95819e-05 8.27218e-06)
(1.53471e-05 -5.70512e-05 8.76494e-06)
(3.17567e-06 -5.55871e-05 8.97882e-06)
(-4.44123e-06 -5.6203e-05 8.83345e-06)
(-1.634e-05 -5.64992e-05 8.86575e-06)
(-2.33538e-05 -6.01533e-05 8.10727e-06)
(-3.21811e-05 -6.20833e-05 7.94959e-06)
(-3.70131e-05 -6.7822e-05 6.83732e-06)
(-4.10667e-05 -7.08134e-05 6.59152e-06)
(-4.28266e-05 -7.73031e-05 5.43642e-06)
(-4.1782e-05 -8.06082e-05 5.19547e-06)
(-4.03564e-05 -8.6625e-05 4.22209e-06)
(-3.49261e-05 -8.95579e-05 4.04906e-06)
(-3.08371e-05 -9.41968e-05 3.39246e-06)
(-2.23605e-05 -9.60065e-05 3.33714e-06)
(-1.66396e-05 -9.71626e-05 3.08466e-06)
(-7.1001e-06 -8.90799e-05 2.91813e-06)
(-2.02785e-06 -5.28895e-05 1.84325e-06)
(2.43888e-06 -6.56199e-05 2.69387e-06)
(9.34361e-06 -0.000108889 3.99038e-06)
(1.96876e-05 -0.000118455 4.24755e-06)
(2.73314e-05 -0.000117617 4.58834e-06)
(3.62907e-05 -0.000115611 4.77613e-06)
(4.21907e-05 -0.000111174 5.63277e-06)
(4.75595e-05 -0.000107885 6.04563e-06)
(5.04052e-05 -0.000102282 7.30295e-06)
(5.05722e-05 -9.85036e-05 7.89895e-06)
(4.95488e-05 -9.26821e-05 9.36386e-06)
(4.36269e-05 -8.90743e-05 1.00607e-05)
(3.86135e-05 -8.42632e-05 1.13918e-05)
(2.70757e-05 -8.15199e-05 1.20323e-05)
(1.89189e-05 -7.89954e-05 1.27588e-05)
(4.08399e-06 -7.76518e-05 1.31311e-05)
(-5.39983e-06 -7.82347e-05 1.29028e-05)
(-1.9852e-05 -7.84911e-05 1.29269e-05)
(-2.85794e-05 -8.20743e-05 1.17849e-05)
(-3.9156e-05 -8.38371e-05 1.14721e-05)
(-4.5085e-05 -8.94675e-05 9.82831e-06)
(-4.97612e-05 -9.22477e-05 9.36459e-06)
(-5.18347e-05 -9.86127e-05 7.69127e-06)
(-5.03817e-05 -0.00010173 7.23927e-06)
(-4.85753e-05 -0.000107633 5.85361e-06)
(-4.20141e-05 -0.000110429 5.51367e-06)
(-3.70567e-05 -0.000114978 4.58058e-06)
(-2.70481e-05 -0.000116667 4.41835e-06)
(-2.01826e-05 -0.000117509 4.02834e-06)
(-8.98231e-06 -0.000107875 3.78758e-06)
(-2.70674e-06 -6.48464e-05 2.47972e-06)
(2.19634e-06 -7.61823e-05 2.45761e-06)
(9.21328e-06 -0.000126167 3.7842e-06)
(1.98664e-05 -0.000136889 4.00875e-06)
(2.75305e-05 -0.000136235 4.39585e-06)
(3.6843e-05 -0.000133745 4.53267e-06)
(4.26378e-05 -0.000128979 5.42681e-06)
(4.82604e-05 -0.000125026 5.75644e-06)
(5.09519e-05 -0.000118838 7.05133e-06)
(5.12104e-05 -0.000114268 7.52464e-06)
(5.00668e-05 -0.000107697 9.03597e-06)
(4.40458e-05 -0.000103271 9.58206e-06)
(3.90359e-05 -9.77275e-05 1.097e-05)
(2.7205e-05 -9.43391e-05 1.14706e-05)
(1.92171e-05 -9.13558e-05 1.22503e-05)
(3.94271e-06 -8.97552e-05 1.25438e-05)
(-5.279e-06 -9.03402e-05 1.23414e-05)
(-2.01856e-05 -9.07946e-05 1.23794e-05)
(-2.8697e-05 -9.48352e-05 1.12349e-05)
(-3.95832e-05 -9.71794e-05 1.10026e-05)
(-4.5427e-05 -0.000103541 9.34866e-06)
(-5.02227e-05 -0.000107068 8.99013e-06)
(-5.23203e-05 -0.000114194 7.31048e-06)
(-5.08151e-05 -0.000118018 6.95503e-06)
(-4.90754e-05 -0.000124551 5.5671e-06)
(-4.23273e-05 -0.000127901 5.30145e-06)
(-3.74248e-05 -0.000132891 4.37007e-06)
(-2.71352e-05 -0.000134918 4.25846e-06)
(-2.02938e-05 -0.000135763 3.87395e-06)
(-8.77109e-06 -0.000124827 3.65893e-06)
(-2.58368e-06 -7.52873e-05 2.34658e-06)
(2.97148e-06 -9.00069e-05 3.23979e-06)
(1.14474e-05 -0.000147509 4.7985e-06)
(2.3861e-05 -0.000160003 5.14056e-06)
(3.2952e-05 -0.000159631 5.65834e-06)
(4.38227e-05 -0.000157379 5.97596e-06)
(5.08299e-05 -0.00015276 7.16345e-06)
(5.75576e-05 -0.00014901 7.76975e-06)
(6.09944e-05 -0.000143051 9.51699e-06)
(6.15364e-05 -0.00013867 1.03606e-05)
(6.03638e-05 -0.000132336 1.24425e-05)
(5.3424e-05 -0.000128081 1.34173e-05)
(4.73906e-05 -0.000122716 1.53721e-05)
(3.33321e-05 -0.000119469 1.62626e-05)
(2.34254e-05 -0.00011656 1.73889e-05)
(5.0832e-06 -0.000115031 1.78828e-05)
(-6.41357e-06 -0.000115573 1.76018e-05)
(-2.42749e-05 -0.000116018 1.75832e-05)
(-3.48393e-05 -0.000119903 1.59461e-05)
(-4.77112e-05 -0.000122156 1.5451e-05)
(-5.4794e-05 -0.00012826 1.31133e-05)
(-6.02356e-05 -0.000131655 1.2424e-05)
(-6.26035e-05 -0.000138461 1.00904e-05)
(-6.05737e-05 -0.000142147 9.43193e-06)
(-5.83139e-05 -0.000148355 7.53343e-06)
(-5.02751e-05 -0.000151581 7.03617e-06)
(-4.4347e-05 -0.000156304 5.76544e-06)
(-3.23796e-05 -0.000158211 5.50543e-06)
(-2.42463e-05 -0.000158626 4.94756e-06)
(-1.09247e-05 -0.000146041 4.63948e-06)
(-3.35532e-06 -8.8914e-05 3.07523e-06)
(2.83247e-06 -0.000104281 3.10777e-06)
(1.13172e-05 -0.000169566 4.6683e-06)
(2.3971e-05 -0.000183595 4.98607e-06)
(3.30364e-05 -0.00018362 5.51872e-06)
(4.41394e-05 -0.000181317 5.7903e-06)
(5.10551e-05 -0.000176857 6.99051e-06)
(5.79679e-05 -0.000172953 7.50873e-06)
(6.12804e-05 -0.000167065 9.26421e-06)
(6.19109e-05 -0.000162396 9.96193e-06)
(6.06375e-05 -0.000155981 1.20485e-05)
(5.36425e-05 -0.000151326 1.28235e-05)
(4.76267e-05 -0.000145752 1.47881e-05)
(3.33451e-05 -0.000142143 1.54745e-05)
(2.36419e-05 -0.000139006 1.66206e-05)
(4.93275e-06 -0.00013737 1.69995e-05)
(-6.25922e-06 -0.000137785 1.67475e-05)
(-2.45053e-05 -0.000138462 1.676e-05)
(-3.48098e-05 -0.000142351 1.51605e-05)
(-4.79183e-05 -0.000145056 1.47978e-05)
(-5.48971e-05 -0.000151198 1.25017e-05)
(-6.04059e-05 -0.000155045 1.19613e-05)
(-6.27916e-05 -0.000161816 9.66259e-06)
(-6.06973e-05 -0.000165805 9.12114e-06)
(-5.85074e-05 -0.000171882 7.24475e-06)
(-5.03237e-05 -0.000175249 6.82343e-06)
(-4.44769e-05 -0.000179802 5.56291e-06)
(-3.2322e-05 -0.00018173 5.34636e-06)
(-2.42606e-05 -0.000181775 4.7917e-06)
(-1.07183e-05 -0.000167636 4.50662e-06)
(-3.23754e-06 -0.000102856 2.94962e-06)
(3.60353e-06 -0.000120025 3.88693e-06)
(1.35762e-05 -0.000193466 5.67934e-06)
(2.78572e-05 -0.000209224 6.1174e-06)
(3.83192e-05 -0.000209781 6.82967e-06)
(5.09242e-05 -0.000207715 7.31296e-06)
(5.90891e-05 -0.000203723 8.85603e-06)
(6.71619e-05 -0.00020002 9.70529e-06)
(7.13305e-05 -0.000194666 1.1971e-05)
(7.23808e-05 -0.000190088 1.312e-05)
(7.11836e-05 -0.000184134 1.5851e-05)
(6.34121e-05 -0.000179424 1.71549e-05)
(5.63554e-05 -0.000174144 1.97719e-05)
(3.99116e-05 -0.000170406 2.0942e-05)
(2.80866e-05 -0.000167372 2.25087e-05)
(6.27587e-06 -0.000165664 2.31225e-05)
(-7.46957e-06 -0.000166022 2.28111e-05)
(-2.87315e-05 -0.000166794 2.27021e-05)
(-4.12586e-05 -0.000170472 2.05591e-05)
(-5.63436e-05 -0.000173324 1.98198e-05)
(-6.45359e-05 -0.000179073 1.67669e-05)
(-7.06098e-05 -0.000182988 1.57843e-05)
(-7.31215e-05 -0.000189209 1.27664e-05)
(-7.04218e-05 -0.000193124 1.18342e-05)
(-6.75711e-05 -0.000198584 9.39954e-06)
(-5.80928e-05 -0.00020178 8.68594e-06)
(-5.11629e-05 -0.000205788 7.053e-06)
(-3.7425e-05 -0.000207521 6.64793e-06)
(-2.81e-05 -0.00020697 5.89542e-06)
(-1.28932e-05 -0.000191151 5.50207e-06)
(-4.02933e-06 -0.000118282 3.70766e-06)
(3.50044e-06 -0.000138087 3.79504e-06)
(1.33895e-05 -0.000220082 5.56276e-06)
(2.7694e-05 -0.000237646 5.99273e-06)
(3.80278e-05 -0.000239066 6.72547e-06)
(5.06828e-05 -0.000237571 7.20102e-06)
(5.8777e-05 -0.000234561 8.75298e-06)
(6.69855e-05 -0.000231527 9.56347e-06)
(7.11605e-05 -0.000227263 1.18147e-05)
(7.23815e-05 -0.000223258 1.28702e-05)
(7.12334e-05 -0.000218255 1.55513e-05)
(6.35616e-05 -0.000213887 1.66935e-05)
(5.65773e-05 -0.000209232 1.92328e-05)
(4.00642e-05 -0.000205628 2.02102e-05)
(2.83453e-05 -0.00020281 2.17213e-05)
(6.28083e-06 -0.000201179 2.22212e-05)
(-7.37795e-06 -0.000201338 2.19384e-05)
(-2.89157e-05 -0.000202244 2.18504e-05)
(-4.12776e-05 -0.000205338 1.98154e-05)
(-5.64511e-05 -0.000208233 1.91962e-05)
(-6.44833e-05 -0.000213059 1.62645e-05)
(-7.04741e-05 -0.00021676 1.5397e-05)
(-7.28624e-05 -0.000221818 1.2464e-05)
(-7.00211e-05 -0.000225241 1.16017e-05)
(-6.71249e-05 -0.000229474 9.20811e-06)
(-5.7556e-05 -0.000232045 8.52495e-06)
(-5.07002e-05 -0.000234998 6.9014e-06)
(-3.69659e-05 -0.000236179 6.50241e-06)
(-2.78112e-05 -0.000234737 5.7405e-06)
(-1.26303e-05 -0.000217135 5.35626e-06)
(-3.9152e-06 -0.000135855 3.59492e-06)
(4.18256e-06 -0.000155591 4.49062e-06)
(1.5233e-05 -0.000245776 6.43305e-06)
(3.06633e-05 -0.000265038 6.98555e-06)
(4.20502e-05 -0.000267306 7.91565e-06)
(5.5824e-05 -0.000266355 8.62979e-06)
(6.50088e-05 -0.000264338 1.05315e-05)
(7.42376e-05 -0.000261867 1.17124e-05)
(7.93355e-05 -0.000258673 1.44739e-05)
(8.10983e-05 -0.000254996 1.60343e-05)
(8.02469e-05 -0.000250859 1.93524e-05)
(7.21316e-05 -0.000246447 2.10819e-05)
(6.43347e-05 -0.000242294 2.42576e-05)
(4.61169e-05 -0.000238399 2.57634e-05)
(3.23894e-05 -0.000235741 2.76792e-05)
(7.7082e-06 -0.000233921 2.84332e-05)
(-8.48909e-06 -0.000234025 2.80935e-05)
(-3.25855e-05 -0.000235088 2.78558e-05)
(-4.7025e-05 -0.000237898 2.52993e-05)
(-6.37893e-05 -0.00024106 2.42476e-05)
(-7.27585e-05 -0.000245257 2.05857e-05)
(-7.90626e-05 -0.000248987 1.92066e-05)
(-8.13091e-05 -0.000253066 1.55732e-05)
(-7.78172e-05 -0.000256156 1.42588e-05)
(-7.41562e-05 -0.000259231 1.13176e-05)
(-6.34952e-05 -0.00026125 1.02979e-05)
(-5.56898e-05 -0.000263147 8.30429e-06)
(-4.07993e-05 -0.000263801 7.68684e-06)
(-3.07097e-05 -0.000261474 6.71672e-06)
(-1.43897e-05 -0.000242209 6.21926e-06)
(-4.6122e-06 -0.000152871 4.27994e-06)
(4.05675e-06 -0.000176722 4.38538e-06)
(1.47279e-05 -0.000275448 6.24955e-06)
(2.97038e-05 -0.000296712 6.817e-06)
(4.0685e-05 -0.000300504 7.79483e-06)
(5.41698e-05 -0.000301053 8.57196e-06)
(6.32632e-05 -0.000301175 1.05099e-05)
(7.25703e-05 -0.000300624 1.17652e-05)
(7.79298e-05 -0.000299905 1.45384e-05)
(8.00792e-05 -0.000298128 1.61676e-05)
(7.96557e-05 -0.000296287 1.94445e-05)
(7.19955e-05 -0.000293359 2.12006e-05)
(6.44959e-05 -0.000290876 2.42677e-05)
(4.65176e-05 -0.000287868 2.57372e-05)
(3.27505e-05 -0.000285975 2.75366e-05)
(7.98216e-06 -0.000284487 2.82366e-05)
(-8.52386e-06 -0.000284358 2.79022e-05)
(-3.27103e-05 -0.000285323 2.7648e-05)
(-4.71422e-05 -0.000286903 2.52239e-05)
(-6.36798e-05 -0.000289387 2.41566e-05)
(-7.22765e-05 -0.000291529 2.06263e-05)
(-7.81543e-05 -0.000293931 1.91921e-05)
(-7.99142e-05 -0.000295432 1.56254e-05)
(-7.60864e-05 -0.000296731 1.42331e-05)
(-7.21413e-05 -0.000297154 1.1303e-05)
(-6.14696e-05 -0.000297327 1.02094e-05)
(-5.37699e-05 -0.000296987 8.19645e-06)
(-3.92429e-05 -0.000296189 7.51947e-06)
(-2.95986e-05 -0.000292294 6.51106e-06)
(-1.38057e-05 -0.000271071 6.00119e-06)
(-4.4592e-06 -0.000173357 4.14792e-06)
(4.48633e-06 -0.000194945 4.83915e-06)
(1.54635e-05 -0.000300958 6.75973e-06)
(3.05553e-05 -0.000323881 7.4339e-06)
(4.1781e-05 -0.000329039 8.60621e-06)
(5.55891e-05 -0.000330906 9.6288e-06)
(6.53078e-05 -0.000332956 1.18924e-05)
(7.52725e-05 -0.000333998 1.35365e-05)
(8.15431e-05 -0.000335405 1.6793e-05)
(8.4393e-05 -0.000334998 1.89676e-05)
(8.46677e-05 -0.000334963 2.28621e-05)
(7.71938e-05 -0.000332815 2.52597e-05)
(6.95017e-05 -0.000331477 2.89553e-05)
(5.07586e-05 -0.000328671 3.09966e-05)
(3.55916e-05 -0.000327244 3.32051e-05)
(9.27162e-06 -0.00032574 3.41676e-05)
(-9.26718e-06 -0.000325523 3.3796e-05)
(-3.495e-05 -0.000326458 3.33485e-05)
(-5.08288e-05 -0.000327398 3.04249e-05)
(-6.80901e-05 -0.000329625 2.88527e-05)
(-7.69558e-05 -0.000330449 2.46242e-05)
(-8.26179e-05 -0.000332028 2.2603e-05)
(-8.37906e-05 -0.000331583 1.83755e-05)
(-7.92527e-05 -0.000331496 1.64791e-05)
(-7.45213e-05 -0.000329702 1.30422e-05)
(-6.31989e-05 -0.00032829 1.15882e-05)
(-5.49878e-05 -0.000325973 9.23833e-06)
(-4.01532e-05 -0.000323879 8.3329e-06)
(-3.03578e-05 -0.000318596 7.12541e-06)
(-1.44674e-05 -0.000295752 6.51551e-06)
(-4.89082e-06 -0.000190921 4.60229e-06)
(4.21172e-06 -0.000216955 4.59929e-06)
(1.40444e-05 -0.000330229 6.34011e-06)
(2.77694e-05 -0.00035525 7.04098e-06)
(3.79129e-05 -0.00036279 8.29497e-06)
(5.07793e-05 -0.000367443 9.45159e-06)
(6.01448e-05 -0.000373164 1.1806e-05)
(7.00146e-05 -0.00037791 1.36626e-05)
(7.67907e-05 -0.000383662 1.70405e-05)
(8.03628e-05 -0.000387107 1.95221e-05)
(8.16634e-05 -0.000391202 2.35551e-05)
(7.52967e-05 -0.000392242 2.63071e-05)
(6.84633e-05 -0.000393967 3.01083e-05)
(5.0606e-05 -0.000393148 3.24365e-05)
(3.55774e-05 -0.000393175 3.46779e-05)
(9.67353e-06 -0.000392379 3.57432e-05)
(-9.20463e-06 -0.000391853 3.53392e-05)
(-3.44748e-05 -0.000392313 3.47548e-05)
(-5.01626e-05 -0.000391266 3.17671e-05)
(-6.65512e-05 -0.000391678 2.98864e-05)
(-7.45e-05 -0.00038901 2.55528e-05)
(-7.91117e-05 -0.000387534 2.3174e-05)
(-7.92307e-05 -0.00038266 1.88259e-05)
(-7.40634e-05 -0.000378836 1.6631e-05)
(-6.88356e-05 -0.000372524 1.30939e-05)
(-5.77134e-05 -0.000367509 1.1439e-05)
(-4.98853e-05 -0.00036144 9.01442e-06)
(-3.60919e-05 -0.000356637 7.98435e-06)
(-2.74133e-05 -0.000348946 6.70477e-06)
(-1.29775e-05 -0.000324061 6.07229e-06)
(-4.57952e-06 -0.000212149 4.34327e-06)
(4.1456e-06 -0.000233207 4.57075e-06)
(1.27039e-05 -0.000351466 6.17649e-06)
(2.48782e-05 -0.000378048 6.93002e-06)
(3.38202e-05 -0.000387704 8.32948e-06)
(4.56632e-05 -0.000394902 9.68282e-06)
(5.47172e-05 -0.000403977 1.22789e-05)
(6.4554e-05 -0.000412077 1.44869e-05)
(7.20659e-05 -0.000421742 1.82711e-05)
(7.65317e-05 -0.000428538 2.13147e-05)
(7.91826e-05 -0.000436227 2.59291e-05)
(7.40678e-05 -0.00043979 2.94106e-05)
(6.82623e-05 -0.000444013 3.38497e-05)
(5.1272e-05 -0.000444471 3.68653e-05)
(3.61733e-05 -0.000445607 3.95364e-05)
(1.05276e-05 -0.000445101 4.09298e-05)
(-9.13307e-06 -0.000444419 4.04582e-05)
(-3.41699e-05 -0.000444531 3.96159e-05)
(-4.99177e-05 -0.000442076 3.61341e-05)
(-6.54942e-05 -0.000441137 3.36046e-05)
(-7.246e-05 -0.000435723 2.85972e-05)
(-7.59158e-05 -0.000431677 2.55261e-05)
(-7.47817e-05 -0.000423051 2.058e-05)
(-6.88324e-05 -0.000415877 1.78562e-05)
(-6.29831e-05 -0.00040558 1.39067e-05)
(-5.19905e-05 -0.000397259 1.19249e-05)
(-4.45664e-05 -0.000387821 9.25675e-06)
(-3.18608e-05 -0.000380532 8.04416e-06)
(-2.4442e-05 -0.000370732 6.6178e-06)
(-1.15971e-05 -0.00034434 5.93731e-06)
(-4.50579e-06 -0.000227624 4.33648e-06)
(3.50343e-06 -0.000251671 3.97872e-06)
(9.45344e-06 -0.000374145 5.24036e-06)
(1.8737e-05 -0.000402743 5.98813e-06)
(2.52928e-05 -0.00041571 7.45784e-06)
(3.50032e-05 -0.000427197 8.9416e-06)
(4.29327e-05 -0.000441758 1.16283e-05)
(5.21454e-05 -0.000455816 1.41032e-05)
(6.01859e-05 -0.000472257 1.80915e-05)
(6.5711e-05 -0.000485621 2.16324e-05)
(7.02281e-05 -0.000500087 2.66177e-05)
(6.73062e-05 -0.000509397 3.08135e-05)
(6.35887e-05 -0.000518888 3.57168e-05)
(4.88379e-05 -0.000523028 3.94396e-05)
(3.48336e-05 -0.000526804 4.24439e-05)
(1.08133e-05 -0.000527479 4.41355e-05)
(-8.58734e-06 -0.00052646 4.36418e-05)
(-3.2008e-05 -0.000525466 4.24432e-05)
(-4.66019e-05 -0.000519761 3.85863e-05)
(-6.00007e-05 -0.000515208 3.53372e-05)
(-6.48484e-05 -0.000504078 2.9864e-05)
(-6.62499e-05 -0.000494381 2.6093e-05)
(-6.32793e-05 -0.000478717 2.07971e-05)
(-5.6445e-05 -0.000465118 1.76e-05)
(-5.01235e-05 -0.000447941 1.34703e-05)
(-3.99143e-05 -0.000433821 1.12395e-05)
(-3.36595e-05 -0.000418888 8.49904e-06)
(-2.32045e-05 -0.000407442 7.16609e-06)
(-1.8186e-05 -0.000394351 5.67907e-06)
(-8.31592e-06 -0.000366025 5.0075e-06)
(-3.82596e-06 -0.000245262 3.74903e-06)
(2.64372e-06 -0.000260857 3.16676e-06)
(4.93058e-06 -0.000384138 4.03663e-06)
(1.02689e-05 -0.000413967 4.70671e-06)
(1.3418e-05 -0.000429761 6.16467e-06)
(2.00249e-05 -0.000445089 7.65014e-06)
(2.59833e-05 -0.000464575 1.03297e-05)
(3.38533e-05 -0.000484099 1.29237e-05)
(4.20093e-05 -0.000506755 1.70518e-05)
(4.84123e-05 -0.000526212 2.09756e-05)
(5.50939e-05 -0.000546961 2.63533e-05)
(5.49341e-05 -0.000561509 3.12511e-05)
(5.43267e-05 -0.000575822 3.67479e-05)
(4.30894e-05 -0.000583022 4.12797e-05)
(3.15512e-05 -0.000589121 4.47655e-05)
(1.07984e-05 -0.000590538 4.68552e-05)
(-7.0486e-06 -0.000589257 4.6337e-05)
(-2.7289e-05 -0.000587375 4.473e-05)
(-3.94039e-05 -0.000578879 4.03708e-05)
(-4.95002e-05 -0.000571143 3.63252e-05)
(-5.13144e-05 -0.00055488 3.02643e-05)
(-5.02347e-05 -0.000539916 2.58218e-05)
(-4.52447e-05 -0.000517845 2.01474e-05)
(-3.77996e-05 -0.000498231 1.65969e-05)
(-3.14956e-05 -0.000474851 1.23357e-05)
(-2.28187e-05 -0.000455398 1.00049e-05)
(-1.85998e-05 -0.000435613 7.27435e-06)
(-1.13431e-05 -0.000420457 5.94747e-06)
(-9.7284e-06 -0.000404598 4.47285e-06)
(-3.83517e-06 -0.000375121 3.87768e-06)
(-2.9625e-06 -0.000253706 2.99683e-06)
(1.38181e-06 -0.000268624 1.97029e-06)
(-1.0698e-06 -0.000390935 2.27087e-06)
(-7.55432e-07 -0.000422235 2.81584e-06)
(-1.98115e-06 -0.000441815 4.21227e-06)
(5.83924e-07 -0.000462465 5.6431e-06)
(3.8625e-06 -0.000488792 8.18665e-06)
(9.84564e-06 -0.00051628 1.08134e-05)
(1.79317e-05 -0.000548095 1.49271e-05)
(2.5346e-05 -0.000577132 1.92033e-05)
(3.47489e-05 -0.000607878 2.49049e-05)
(3.8246e-05 -0.000631564 3.06238e-05)
(4.18791e-05 -0.000654321 3.67928e-05)
(3.53596e-05 -0.000667723 4.23878e-05)
(2.71985e-05 -0.000678349 4.64967e-05)
(1.06143e-05 -0.000681633 4.91452e-05)
(-5.36469e-06 -0.000679885 4.85927e-05)
(-2.15025e-05 -0.000675995 4.63646e-05)
(-3.02098e-05 -0.000662207 4.1357e-05)
(-3.58029e-05 -0.000648226 3.62448e-05)
(-3.34436e-05 -0.000623089 2.95327e-05)
(-2.90323e-05 -0.000599103 2.43037e-05)
(-2.14495e-05 -0.000566902 1.83383e-05)
(-1.33097e-05 -0.000537958 1.44715e-05)
(-7.18019e-06 -0.000505466 1.02536e-05)
(-6.17146e-07 -0.000478333 7.8974e-06)
(8.90409e-07 -0.000451816 5.32251e-06)
(3.99093e-06 -0.000431559 4.04911e-06)
(1.2777e-06 -0.000412005 2.64144e-06)
(2.0981e-06 -0.000381168 2.16794e-06)
(-1.67641e-06 -0.000260836 1.84713e-06)
(-5.05095e-07 -0.000263285 1.49925e-07)
(-9.45939e-06 -0.000380063 -3.20243e-07)
(-1.59269e-05 -0.000411618 -1.02581e-07)
(-2.33861e-05 -0.000433925 9.61762e-07)
(-2.67765e-05 -0.00045873 1.94528e-06)
(-2.8077e-05 -0.000490442 3.89547e-06)
(-2.57741e-05 -0.0005245 5.96665e-06)
(-1.92043e-05 -0.000563965 9.43384e-06)
(-1.17431e-05 -0.000601383 1.33025e-05)
(2.54568e-07 -0.00064101 1.85802e-05)
(8.112e-06 -0.000672991 2.43684e-05)
(1.78068e-05 -0.000703462 3.05863e-05)
(1.87735e-05 -0.000722252 3.68008e-05)
(1.74461e-05 -0.000736925 4.1232e-05)
(9.17265e-06 -0.000741417 4.43648e-05)
(-1.32569e-06 -0.000739249 4.38246e-05)
(-9.40491e-06 -0.000733794 4.10678e-05)
(-1.13627e-05 -0.00071532 3.57807e-05)
(-1.00147e-05 -0.000695754 3.00634e-05)
(-1.82475e-06 -0.00066262 2.33684e-05)
(6.35512e-06 -0.00063041 1.80951e-05)
(1.62682e-05 -0.000589362 1.26038e-05)
(2.39856e-05 -0.000552276 9.14561e-06)
(2.84561e-05 -0.000512321 5.59258e-06)
(3.10688e-05 -0.000478888 3.79077e-06)
(2.80098e-05 -0.000447172 1.79814e-06)
(2.50593e-05 -0.00042297 9.6146e-07)
(1.62328e-05 -0.000400817 -1.22636e-07)
(1.02962e-05 -0.000369826 -2.81444e-07)
(1.94886e-07 -0.000255098 1.42974e-07)
(-2.4801e-06 -0.000251326 -1.75295e-06)
(-1.8255e-05 -0.000359607 -3.1011e-06)
(-3.1831e-05 -0.00039098 -3.25088e-06)
(-4.59261e-05 -0.000415939 -2.59411e-06)
(-5.57817e-05 -0.000445103 -2.14988e-06)
(-6.21961e-05 -0.000482629 -9.56974e-07)
(-6.41314e-05 -0.000524228 3.69872e-07)
(-5.94912e-05 -0.000572822 2.92111e-06)
(-5.21943e-05 -0.000620852 6.16367e-06)
(-3.73987e-05 -0.000672097 1.07947e-05)
(-2.46438e-05 -0.000715811 1.66191e-05)
(-7.84564e-06 -0.000757614 2.28904e-05)
(1.54689e-06 -0.000785404 2.99982e-05)
(7.77744e-06 -0.000806823 3.49777e-05)
(8.15821e-06 -0.000813916 3.89688e-05)
(2.37468e-06 -0.000810995 3.84196e-05)
(2.69039e-06 -0.000802578 3.47647e-05)
(8.14791e-06 -0.00077639 2.89852e-05)
(1.73495e-05 -0.000747784 2.24038e-05)
(3.23196e-05 -0.000703064 1.57328e-05)
(4.47542e-05 -0.000659391 1.04649e-05)
(5.7178e-05 -0.0006069 5.66858e-06)
(6.42437e-05 -0.000559617 2.84303e-06)
(6.66624e-05 -0.000510846 2.11395e-07)