/*--------------------------------*- C++ -*----------------------------------*\
| =========                 |                                                 |
| \\      /  F ield         | OpenFOAM: The Open Source CFD Toolbox           |
|  \\    /   O peration     | Version:  v1912                                 |
|   \\  /    A nd           | Website:  www.openfoam.com                      |
|    \\/     M anipulation  |                                                 |
\*---------------------------------------------------------------------------*/
FoamFile
{
    version     2.0;
    format      ascii;
    class       volScalarField;
    location    "25/oil";
    object      wallHeatFlux;
}
// * * * * * * * * * * * * * * * * * * * * * * * * * * * * * * * * * * * * * //

dimensions      [1 0 -3 0 0 0 0];


internalField   uniform 0;

boundaryField
{
    maxY
    {
        type            calculated;
        value           uniform 0;
    }
    minX
    {
        type            calculated;
        value           uniform 0;
    }
    maxX
    {
        type            calculated;
        value           uniform 0;
    }
    minY
    {
        type            calculated;
        value           uniform 0;
    }
    minZ
    {
        type            calculated;
        value           uniform 0;
    }
    maxZ
    {
        type            calculated;
        value           uniform 0;
    }
    oil_to_sphere
    {
        type            calculated;
        value           nonuniform List<scalar> 
360
(
12704.7
12776.2
8615.72
22445.2
23957.1
10009.7
24595.9
22198.4
23892.1
12510.1
12577.1
9992.61
11077.4
7759.62
12246.5
21238.4
24252.9
22474.6
23506.8
7733.32
19551.1
12500.8
11008.3
23233.1
8628.73
24096.3
9965.42
23714.7
23534.4
22258
25331.3
24720.4
8645.89
8540.76
9895.12
9926.24
23277.7
23106.4
22486.6
22817.1
23426.5
8604.2
9832.56
13034
13064.4
9945.64
10959.8
7669.49
12372.6
22052
10042.1
10006.7
10982.6
11038.1
7675.15
12537.5
22542.6
7741.56
9863.31
10810.8
7738.63
23684.3
22494.5
23473.9
7676.34
20346.5
12564.8
10650.6
24645.5
23420.7
22571.3
23101.4
23018.3
7680.18
17434.2
12179.7
7773.91
10557.2
23153.9
23804.3
10810
10607.7
10649.6
7737.16
8576.99
9941.32
9953.81
11062
7725.24
7801.03
8601.68
11042.5
9959.83
8589.03
11004.5
9926.18
9931.62
9966.28
8559.72
7830.15
7829.65
7715.64
10019
10019.3
11071.3
7714.62
7792.41
11100.4
8591.81
9977.75
9977.92
9965.01
8575.91
7699.88
7854.55
7837.79
10916.3
10839.7
10837.5
12946.9
12968.5
21676.9
23088.8
20886
23282.4
21692.2
23290.4
23593.8
21944.3
22927.5
22543
10831.2
10757.4
10789.3
7832.31
21600.3
23515.7
12683.1
12713.3
23749.7
21947.7
12390.5
12206.2
24058.7
22072.7
25434.5
7824.11
7815.05
23220.5
23785.8
25378.9
24120
24124.2
25159.6
25353.9
21965.2
12153.4
23968.5
22724.1
7750.87
23688.2
24297.1
10589.3
10437
10842.2
12382.9
12527.1
24070.9
22150.5
25044.8
7663.21
22433
12578.1
23776.5
22713.1
7669.24
24511.7
10745.5
10713.4
7804.38
9958.32
9989.81
11049.3
8590.41
10980.4
9924.71
7704.42
7819.39
23559.7
22094.8
23703.5
22802.5
12966.3
12975.6
23127.9
21159.7
22747
12596.2
12672.2
7819.33
9928.25
10061.9
11075.1
9975.02
9958.51
11113.3
8588.36
11014.3
9910.15
8512.74
21892.5
11095.1
9928.87
7749.46
23072.7
21852.7
23072.6
12832.9
12833.3
7663.42
9891.84
9894.89
10832
23668.8
8527.37
10748.2
9871.82
22265.2
22474.4
12761.1
7718.06
12662.3
7712.79
7849.96
10976.7
8594.3
9940.25
9881.01
9954.87
8540.3
7758.31
22499.2
21108
23685.5
24831.9
22223.6
21014.7
24033.2
24298.9
12523.2
22759.9
7842.09
23989.3
23653.9
23772.6
10979.8
8621.16
9991
11036.2
8655.82
23784.2
9915.56
9898.23
9981
8566.54
24057.9
22115.5
9920.61
9903.96
8556.12
22207.7
25090.3
12495.4
22678.7
7740.05
23605.4
23229.4
23827.6
10894.2
8559.12
23453.3
9849.61
9888.94
9840
23272.1
8590.75
22902.5
12706.3
21152.9
12769
22331.8
22714.5
23182.9
7708.82
10513.9
10352.2
10453.2
12968.9
23243.6
12933.7
22513
23181.6
7792.61
23495.4
23820.5
12540.5
22828
7820.97
25102.8
10684.7
10622.1
7641.03
22532.4
12694.7
20036
22618.6
12682.8
7716.9
9938.08
9940.73
11069.5
23343.4
21661.9
12479.9
7817.85
21801.2
12675.1
7752.46
21923.2
23736.6
12339
22912.2
7621.14
24745.2
11117.1
24363.7
8565.59
9973.38
24426.2
22865.7
22425.2
12481.4
23801.1
23577.8
12580.1
22564.1
10497.3
10775.1
22198.5
12617.7
7691.72
22150.2
12647.1
7776.25
22881
22996.1
21766.9
12712.2
22481
12741.9
)
;
    }
}


// ************************************************************************* //
