/*--------------------------------*- C++ -*----------------------------------*\
| =========                 |                                                 |
| \\      /  F ield         | OpenFOAM: The Open Source CFD Toolbox           |
|  \\    /   O peration     | Version:  v1906                                 |
|   \\  /    A nd           | Web:      www.OpenFOAM.com                      |
|    \\/     M anipulation  |                                                 |
\*---------------------------------------------------------------------------*/
FoamFile
{
    version     2.0;
    format      ascii;
    class       volScalarField;
    location    "0.02/oil";
    object      nut;
}
// * * * * * * * * * * * * * * * * * * * * * * * * * * * * * * * * * * * * * //

dimensions      [0 2 -1 0 0 0 0];


internalField   nonuniform List<scalar> 
168664
(
5.20856e-06
6.22225e-07
4.69132e-07
2.0669e-07
1.16931e-07
7.83797e-08
5.27059e-08
3.92391e-08
3.02398e-08
2.47919e-08
2.1872e-08
2.01782e-08
1.84914e-08
1.62499e-08
1.41837e-08
1.27318e-08
1.13435e-08
9.7916e-09
8.33795e-09
7.13979e-09
6.55085e-09
6.54605e-09
6.40172e-09
5.85912e-09
4.91202e-09
3.85714e-09
2.81528e-09
2.12063e-09
1.46363e-09
6.31485e-10
6.21027e-07
6.74499e-07
1.76652e-07
1.4684e-07
7.024e-08
5.20398e-08
3.58897e-08
2.68597e-08
2.07292e-08
1.69667e-08
1.5201e-08
1.43066e-08
1.35093e-08
1.22793e-08
1.09926e-08
1.0137e-08
9.22823e-09
8.08138e-09
6.93519e-09
6.10005e-09
5.78007e-09
5.74881e-09
5.47648e-09
4.98739e-09
4.34259e-09
3.71939e-09
3.04582e-09
2.43205e-09
2.32899e-09
1.24066e-09
4.67185e-07
1.76486e-07
9.91629e-08
9.01351e-08
5.61666e-08
4.44415e-08
3.30387e-08
2.56683e-08
2.05663e-08
1.71909e-08
1.54947e-08
1.45001e-08
1.36339e-08
1.25925e-08
1.14805e-08
1.06224e-08
9.70413e-09
8.60565e-09
7.57138e-09
6.90297e-09
6.70761e-09
6.64581e-09
6.39178e-09
5.98374e-09
5.41809e-09
4.85058e-09
4.28309e-09
3.96423e-09
4.66276e-09
3.7551e-09
2.08085e-07
1.48327e-07
9.11903e-08
7.54662e-08
5.05933e-08
3.9749e-08
3.08479e-08
2.477e-08
2.04728e-08
1.7322e-08
1.53371e-08
1.40724e-08
1.32661e-08
1.23017e-08
1.11903e-08
1.01698e-08
9.124e-09
8.05734e-09
7.15746e-09
6.61422e-09
6.33313e-09
6.16626e-09
6.03851e-09
5.72138e-09
5.175e-09
4.59676e-09
4.11332e-09
4.33445e-09
5.30851e-09
4.63872e-09
1.19335e-07
7.31241e-08
5.8205e-08
5.15583e-08
4.07232e-08
3.39743e-08
2.81307e-08
2.36611e-08
2.02577e-08
1.75865e-08
1.55734e-08
1.40708e-08
1.32532e-08
1.22955e-08
1.11498e-08
9.99923e-09
8.93597e-09
7.98961e-09
7.38675e-09
7.10357e-09
6.73714e-09
6.4968e-09
6.36347e-09
6.13687e-09
5.70917e-09
5.2768e-09
4.97431e-09
5.48767e-09
6.56669e-09
6.3047e-09
8.4154e-08
5.72116e-08
4.82141e-08
4.19408e-08
3.48909e-08
2.97091e-08
2.53913e-08
2.19742e-08
1.92744e-08
1.7175e-08
1.54588e-08
1.39509e-08
1.29494e-08
1.21181e-08
1.09199e-08
9.58106e-09
8.44301e-09
7.54155e-09
7.19737e-09
7.13293e-09
6.71786e-09
6.38721e-09
6.21505e-09
6.04461e-09
5.76311e-09
5.58501e-09
5.54261e-09
6.23029e-09
7.35094e-09
7.42584e-09
6.00678e-08
4.26106e-08
3.81277e-08
3.40203e-08
2.97069e-08
2.59869e-08
2.2817e-08
2.01731e-08
1.80082e-08
1.63445e-08
1.50028e-08
1.36771e-08
1.28144e-08
1.22909e-08
1.10069e-08
9.38029e-09
8.07276e-09
7.13877e-09
6.83069e-09
6.74185e-09
6.32696e-09
6.06758e-09
5.98328e-09
5.94667e-09
5.89482e-09
6.02163e-09
6.26688e-09
7.11597e-09
8.24424e-09
8.63714e-09
4.81201e-08
3.49543e-08
3.20479e-08
2.88522e-08
2.58197e-08
2.29538e-08
2.04322e-08
1.82486e-08
1.64175e-08
1.50517e-08
1.41029e-08
1.32764e-08
1.28982e-08
1.26774e-08
1.13603e-08
9.49481e-09
7.97034e-09
6.91411e-09
6.43385e-09
6.12469e-09
5.70382e-09
5.54758e-09
5.61016e-09
5.79731e-09
6.09984e-09
6.57794e-09
7.06842e-09
7.99266e-09
9.0368e-09
9.69913e-09
4.00133e-08
2.97088e-08
2.77509e-08
2.52266e-08
2.28759e-08
2.04524e-08
1.82564e-08
1.63054e-08
1.46491e-08
1.34843e-08
1.29478e-08
1.28573e-08
1.30527e-08
1.29627e-08
1.17432e-08
9.9316e-09
8.10835e-09
6.67062e-09
5.91632e-09
5.40615e-09
5.03117e-09
5.04323e-09
5.31843e-09
5.78532e-09
6.39029e-09
7.11703e-09
7.80931e-09
8.77494e-09
9.65182e-09
1.04826e-08
3.45942e-08
2.61865e-08
2.47931e-08
2.27313e-08
2.06542e-08
1.84209e-08
1.63649e-08
1.45335e-08
1.29625e-08
1.2034e-08
1.19577e-08
1.24576e-08
1.28457e-08
1.23913e-08
1.13922e-08
1.0004e-08
8.10205e-09
6.4299e-09
5.36858e-09
4.731e-09
4.46486e-09
4.69099e-09
5.20956e-09
5.85696e-09
6.56751e-09
7.46897e-09
8.36334e-09
9.29283e-09
1.00556e-08
1.1029e-08
3.09919e-08
2.37877e-08
2.25954e-08
2.08016e-08
1.8916e-08
1.69358e-08
1.50565e-08
1.32582e-08
1.17186e-08
1.10811e-08
1.13423e-08
1.19143e-08
1.17978e-08
1.06235e-08
9.69924e-09
8.77056e-09
7.20881e-09
5.93598e-09
4.87962e-09
4.21594e-09
4.21917e-09
4.69153e-09
5.43455e-09
6.21793e-09
6.96614e-09
7.98827e-09
8.97724e-09
9.75226e-09
1.04407e-08
1.14663e-08
2.84808e-08
2.21452e-08
2.10278e-08
1.94688e-08
1.7956e-08
1.63898e-08
1.46765e-08
1.27736e-08
1.10577e-08
1.04352e-08
1.06204e-08
1.08002e-08
9.86924e-09
8.40709e-09
7.51945e-09
6.78545e-09
5.62596e-09
5.01002e-09
4.50411e-09
3.86583e-09
4.13732e-09
4.94111e-09
5.95704e-09
6.97889e-09
7.83997e-09
8.82007e-09
9.64388e-09
1.02118e-08
1.0835e-08
1.19194e-08
2.60995e-08
2.08543e-08
1.99786e-08
1.88445e-08
1.76126e-08
1.63124e-08
1.4749e-08
1.28167e-08
1.09427e-08
9.71767e-09
9.14099e-09
8.36537e-09
7.14837e-09
6.15751e-09
5.57881e-09
5.10935e-09
4.16908e-09
3.73981e-09
3.68199e-09
3.34815e-09
3.78884e-09
5.17554e-09
6.44147e-09
7.50238e-09
8.38992e-09
9.32809e-09
1.003e-08
1.05915e-08
1.13146e-08
1.2659e-08
2.36858e-08
1.91635e-08
1.85077e-08
1.77412e-08
1.67127e-08
1.55489e-08
1.41798e-08
1.27068e-08
1.12446e-08
9.3661e-09
7.52316e-09
5.71773e-09
4.53347e-09
4.03914e-09
3.90654e-09
3.79222e-09
2.99632e-09
2.41522e-09
2.31126e-09
2.63095e-09
3.72174e-09
5.45198e-09
7.00026e-09
8.05713e-09
8.8968e-09
9.78135e-09
1.05117e-08
1.11501e-08
1.19516e-08
1.36337e-08
2.2015e-08
1.79513e-08
1.7271e-08
1.65368e-08
1.56077e-08
1.45387e-08
1.32773e-08
1.19887e-08
1.06923e-08
8.6279e-09
6.24218e-09
4.13324e-09
2.76031e-09
2.53042e-09
2.95194e-09
2.81656e-09
2.11611e-09
1.76011e-09
1.95375e-09
2.70804e-09
4.0705e-09
5.80419e-09
7.39687e-09
8.53683e-09
9.39173e-09
1.02441e-08
1.10121e-08
1.16613e-08
1.24539e-08
1.43573e-08
2.06816e-08
1.70004e-08
1.62788e-08
1.56354e-08
1.48173e-08
1.3868e-08
1.26717e-08
1.12811e-08
9.68467e-09
7.79758e-09
5.83372e-09
4.23388e-09
3.02241e-09
2.71701e-09
3.34456e-09
3.1316e-09
2.2521e-09
2.03306e-09
2.54994e-09
3.45189e-09
4.74228e-09
6.24765e-09
7.62315e-09
8.66587e-09
9.5177e-09
1.0376e-08
1.11556e-08
1.17987e-08
1.24819e-08
1.42454e-08
1.89211e-08
1.57827e-08
1.50069e-08
1.44308e-08
1.36409e-08
1.27174e-08
1.16324e-08
1.03602e-08
8.61411e-09
6.47461e-09
4.34924e-09
3.06043e-09
2.50782e-09
2.69115e-09
3.45219e-09
3.44938e-09
2.80626e-09
3.0136e-09
3.92429e-09
4.88302e-09
5.67678e-09
6.71123e-09
7.67528e-09
8.54948e-09
9.4375e-09
1.03882e-08
1.12351e-08
1.18139e-08
1.24045e-08
1.40368e-08
1.7334e-08
1.47463e-08
1.39486e-08
1.34099e-08
1.25967e-08
1.16513e-08
1.0612e-08
9.42365e-09
7.93563e-09
5.93992e-09
4.15595e-09
3.49157e-09
2.96725e-09
3.088e-09
3.77493e-09
3.78111e-09
3.54765e-09
4.06587e-09
5.0767e-09
5.63487e-09
5.83612e-09
6.67623e-09
7.51899e-09
8.44747e-09
9.42643e-09
1.03646e-08
1.12553e-08
1.19293e-08
1.26742e-08
1.43515e-08
1.61266e-08
1.39612e-08
1.31119e-08
1.24969e-08
1.16151e-08
1.06259e-08
9.54328e-09
8.299e-09
7.00378e-09
5.7614e-09
4.85443e-09
4.62528e-09
4.35097e-09
4.45284e-09
4.91759e-09
4.77616e-09
4.79841e-09
5.40552e-09
5.97472e-09
5.94816e-09
5.74046e-09
5.88728e-09
6.51443e-09
7.51423e-09
8.47503e-09
9.2751e-09
1.02133e-08
1.12212e-08
1.23442e-08
1.41188e-08
1.48921e-08
1.29799e-08
1.20331e-08
1.12578e-08
1.02285e-08
9.23497e-09
8.29002e-09
7.31099e-09
6.31172e-09
5.45899e-09
5.03474e-09
5.02854e-09
5.29475e-09
5.87791e-09
6.55577e-09
6.55351e-09
6.6254e-09
6.79434e-09
6.45395e-09
5.71692e-09
5.27617e-09
5.22776e-09
5.71782e-09
6.5382e-09
7.39004e-09
8.13791e-09
9.10082e-09
1.01534e-08
1.13432e-08
1.29095e-08
1.35998e-08
1.19041e-08
1.1064e-08
1.0206e-08
9.17916e-09
8.31549e-09
7.50756e-09
6.6494e-09
5.83735e-09
5.25592e-09
5.09805e-09
5.08412e-09
5.51172e-09
6.44108e-09
7.66775e-09
8.20442e-09
8.28546e-09
7.71198e-09
6.83296e-09
5.82894e-09
5.13675e-09
4.97148e-09
5.38203e-09
6.12665e-09
6.88607e-09
7.62928e-09
8.55476e-09
9.46923e-09
1.05427e-08
1.15371e-08
1.24617e-08
1.12273e-08
1.04892e-08
9.58411e-09
8.61569e-09
7.89348e-09
7.23045e-09
6.55312e-09
5.95579e-09
5.55539e-09
5.2831e-09
4.86144e-09
5.21287e-09
6.1342e-09
7.58271e-09
8.65074e-09
8.68059e-09
7.54951e-09
6.49405e-09
5.80135e-09
5.4036e-09
5.30811e-09
5.55642e-09
6.03601e-09
6.5417e-09
7.09108e-09
7.83064e-09
8.68911e-09
9.80539e-09
1.04394e-08
1.12932e-08
1.03639e-08
9.43407e-09
8.58902e-09
7.87289e-09
7.32149e-09
6.86277e-09
6.45499e-09
6.13379e-09
5.94745e-09
5.60485e-09
4.90031e-09
4.90789e-09
5.65384e-09
6.8623e-09
7.91149e-09
7.87859e-09
6.91748e-09
6.21766e-09
6.07441e-09
5.91862e-09
5.75624e-09
5.75159e-09
5.91738e-09
6.1487e-09
6.48094e-09
7.08618e-09
7.89501e-09
9.04151e-09
9.36842e-09
9.94006e-09
9.31475e-09
8.21223e-09
7.51767e-09
7.07865e-09
6.78495e-09
6.60646e-09
6.47899e-09
6.3635e-09
6.23433e-09
5.78129e-09
5.14898e-09
4.96257e-09
5.41371e-09
6.27106e-09
7.04429e-09
7.03572e-09
6.54142e-09
6.15832e-09
6.23563e-09
6.26377e-09
6.15638e-09
6.02396e-09
5.98463e-09
5.96633e-09
6.00484e-09
6.35272e-09
7.0812e-09
8.25713e-09
8.31727e-09
8.36306e-09
8.13424e-09
7.01529e-09
6.57389e-09
6.32341e-09
6.22366e-09
6.28015e-09
6.41406e-09
6.51831e-09
6.41975e-09
5.82356e-09
5.33572e-09
5.35659e-09
5.66714e-09
6.07886e-09
6.45755e-09
6.6327e-09
6.56306e-09
6.13967e-09
6.01354e-09
6.16841e-09
6.29557e-09
6.18868e-09
6.07807e-09
5.87532e-09
5.63301e-09
5.67416e-09
6.29473e-09
7.49725e-09
7.29909e-09
6.83281e-09
6.93435e-09
5.79366e-09
5.53968e-09
5.61355e-09
5.7786e-09
5.9608e-09
6.22569e-09
6.48432e-09
6.53122e-09
6.01298e-09
5.63997e-09
5.85145e-09
6.15827e-09
6.19999e-09
6.20906e-09
6.50065e-09
6.69353e-09
6.20726e-09
5.79983e-09
5.76752e-09
5.99634e-09
6.01721e-09
5.92482e-09
5.6129e-09
5.11954e-09
4.94804e-09
5.44979e-09
6.67642e-09
6.20824e-09
5.32251e-09
5.82452e-09
4.56418e-09
4.51944e-09
4.88234e-09
5.21141e-09
5.53087e-09
5.89095e-09
6.22817e-09
6.39611e-09
6.06471e-09
5.93436e-09
6.25759e-09
6.47698e-09
6.1842e-09
5.9608e-09
6.20861e-09
6.51248e-09
6.2186e-09
5.77333e-09
5.44634e-09
5.4224e-09
5.4028e-09
5.35282e-09
5.09684e-09
4.63858e-09
4.37109e-09
4.6242e-09
5.74808e-09
4.95059e-09
3.86723e-09
4.681e-09
3.58156e-09
3.97031e-09
4.38773e-09
4.82116e-09
5.29508e-09
5.76288e-09
6.18031e-09
6.42147e-09
6.24498e-09
6.29499e-09
6.62844e-09
6.71095e-09
6.38257e-09
6.06637e-09
6.13737e-09
6.3983e-09
6.37067e-09
6.07845e-09
5.56121e-09
5.24762e-09
5.04267e-09
4.96706e-09
4.81813e-09
4.49112e-09
4.06532e-09
3.71391e-09
4.61345e-09
3.67061e-09
1.68231e-09
3.02012e-09
2.67189e-09
3.3457e-09
3.83603e-09
4.43983e-09
5.02991e-09
5.61166e-09
6.17227e-09
6.56489e-09
6.62056e-09
6.64259e-09
6.82183e-09
6.91883e-09
6.84235e-09
6.53437e-09
6.47185e-09
6.64984e-09
6.62143e-09
6.25818e-09
5.64011e-09
5.17095e-09
4.84007e-09
4.662e-09
4.36561e-09
3.87366e-09
3.27799e-09
2.49434e-09
2.78167e-09
1.61348e-09
1.14149e-09
1.8844e-09
2.68538e-09
3.30203e-09
4.10154e-09
4.83412e-09
5.54791e-09
6.30497e-09
7.04682e-09
7.51344e-09
7.7278e-09
7.76799e-09
7.87726e-09
8.0387e-09
7.96509e-09
7.57819e-09
7.63735e-09
7.99694e-09
7.98544e-09
7.32068e-09
6.44781e-09
5.75749e-09
5.27583e-09
4.8673e-09
4.25136e-09
3.355e-09
2.25695e-09
1.46292e-09
9.04806e-10
5.15235e-10
6.18898e-07
6.86708e-07
1.78256e-07
1.48635e-07
7.03561e-08
5.2212e-08
3.61844e-08
2.70612e-08
2.07271e-08
1.6555e-08
1.4144e-08
1.29555e-08
1.25212e-08
1.15889e-08
1.05202e-08
9.73021e-09
8.75199e-09
7.71966e-09
6.77645e-09
6.0016e-09
5.36319e-09
5.25331e-09
5.14842e-09
4.97809e-09
4.6096e-09
3.99009e-09
3.32108e-09
2.60875e-09
2.18261e-09
1.26679e-09
6.83133e-07
2.09041e-07
1.1894e-07
7.65773e-08
3.74794e-08
2.64356e-08
1.70317e-08
1.17291e-08
8.34911e-09
6.25584e-09
5.02326e-09
3.46588e-09
2.42106e-09
2.68521e-09
2.71766e-09
2.49036e-09
2.38787e-09
2.39897e-09
2.00945e-09
1.58528e-09
1.66097e-09
2.10014e-09
2.53039e-09
2.77683e-09
2.74657e-09
2.50374e-09
2.16912e-09
1.91204e-09
2.86599e-09
2.41362e-09
1.76472e-07
1.1922e-07
5.72015e-08
5.13036e-08
2.87144e-08
2.18661e-08
1.53776e-08
1.1204e-08
8.48899e-09
6.94708e-09
6.09767e-09
5.26004e-09
3.86971e-09
3.23457e-09
2.93723e-09
2.59489e-09
2.41904e-09
2.20889e-09
1.79443e-09
1.77698e-09
2.26872e-09
3.3427e-09
4.10857e-09
4.11461e-09
4.14917e-09
4.05217e-09
3.4584e-09
3.13487e-09
3.88215e-09
4.7924e-09
1.4845e-07
7.54363e-08
5.01342e-08
3.88279e-08
2.3445e-08
1.72689e-08
1.23146e-08
9.25998e-09
7.30391e-09
6.11396e-09
5.19878e-09
4.77135e-09
3.50419e-09
2.83455e-09
2.48039e-09
2.32283e-09
2.41949e-09
1.9868e-09
1.77391e-09
2.25355e-09
3.1227e-09
3.68177e-09
3.50012e-09
3.2742e-09
3.6389e-09
3.77326e-09
3.29044e-09
3.15605e-09
3.13481e-09
5.47719e-09
7.25341e-08
3.59298e-08
2.68143e-08
2.31733e-08
1.64022e-08
1.2717e-08
9.60303e-09
7.47918e-09
5.98999e-09
5.00396e-09
4.30857e-09
3.76565e-09
2.82429e-09
2.90007e-09
2.88108e-09
2.8121e-09
2.72778e-09
2.14333e-09
1.99993e-09
2.83239e-09
3.37424e-09
2.87693e-09
2.05224e-09
1.96798e-09
2.48439e-09
2.8749e-09
3.1292e-09
3.50251e-09
3.0799e-09
6.77488e-09
5.66943e-08
2.48872e-08
1.99526e-08
1.68071e-08
1.2753e-08
9.99934e-09
7.77936e-09
6.11625e-09
4.85871e-09
4.14908e-09
3.80707e-09
3.22956e-09
2.58024e-09
2.80112e-09
2.96324e-09
2.93198e-09
2.80529e-09
2.33359e-09
2.4233e-09
2.81349e-09
2.64672e-09
1.80591e-09
1.12882e-09
1.15707e-09
1.47279e-09
1.99316e-09
2.70253e-09
3.34543e-09
2.78788e-09
7.55247e-09
4.23823e-08
1.54967e-08
1.37194e-08
1.1948e-08
9.74116e-09
7.93332e-09
6.47253e-09
5.29207e-09
4.33219e-09
3.74609e-09
3.51895e-09
3.21998e-09
2.59591e-09
2.964e-09
3.30866e-09
3.11882e-09
2.8637e-09
2.70587e-09
2.93005e-09
2.66984e-09
2.09897e-09
1.54917e-09
1.17518e-09
1.03017e-09
1.14058e-09
1.89906e-09
2.65352e-09
3.26829e-09
2.7517e-09
8.39413e-09
3.49114e-08
1.02245e-08
9.78102e-09
8.84142e-09
7.62217e-09
6.54306e-09
5.64661e-09
4.86855e-09
4.12938e-09
3.62179e-09
3.35876e-09
3.02932e-09
2.24041e-09
2.92717e-09
3.51224e-09
3.14876e-09
2.67127e-09
2.68351e-09
2.92737e-09
2.51279e-09
1.86201e-09
1.49416e-09
1.20954e-09
1.03573e-09
1.30332e-09
2.09711e-09
2.66814e-09
3.15479e-09
2.6993e-09
9.13906e-09
2.97813e-08
6.99618e-09
7.03068e-09
6.5416e-09
6.04081e-09
5.49791e-09
4.98084e-09
4.50575e-09
4.00164e-09
3.56125e-09
3.13686e-09
2.35258e-09
1.64642e-09
3.29372e-09
4.05973e-09
3.59759e-09
2.54733e-09
2.14914e-09
2.3952e-09
2.20264e-09
1.702e-09
1.42221e-09
1.22556e-09
1.25094e-09
1.63167e-09
2.21544e-09
2.49663e-09
2.74182e-09
2.46433e-09
9.78057e-09
2.61772e-08
4.91667e-09
5.12313e-09
4.76553e-09
4.66529e-09
4.53294e-09
4.28421e-09
4.11688e-09
3.84903e-09
3.41802e-09
2.85355e-09
2.0011e-09
2.86552e-09
4.71941e-09
5.42255e-09
4.87184e-09
3.53739e-09
2.16793e-09
1.85848e-09
1.90111e-09
1.60688e-09
1.4573e-09
1.43102e-09
1.57299e-09
1.80581e-09
2.04295e-09
2.09382e-09
2.09027e-09
2.08101e-09
1.02759e-08
2.3834e-08
3.57727e-09
3.76223e-09
3.41201e-09
3.30879e-09
3.34858e-09
3.48692e-09
3.74806e-09
3.75393e-09
3.3359e-09
2.91346e-09
2.83426e-09
4.3776e-09
5.57355e-09
6.09824e-09
5.92792e-09
4.80859e-09
3.10824e-09
1.81464e-09
1.69393e-09
1.68743e-09
1.77089e-09
1.85587e-09
1.96583e-09
2.02307e-09
2.03351e-09
1.84299e-09
1.68544e-09
1.76588e-09
1.05625e-08
2.22122e-08
2.73615e-09
2.52545e-09
2.16214e-09
2.04764e-09
2.20092e-09
2.66033e-09
3.25127e-09
3.6892e-09
3.65257e-09
3.47476e-09
4.066e-09
5.11946e-09
5.4458e-09
5.64585e-09
5.62786e-09
4.81157e-09
3.69819e-09
2.34979e-09
1.80576e-09
2.05841e-09
2.23028e-09
2.2652e-09
2.22593e-09
2.19299e-09
2.11939e-09
1.77725e-09
1.70449e-09
1.61962e-09
1.08542e-08
2.05988e-08
2.50534e-09
2.2263e-09
1.93088e-09
1.75085e-09
1.66614e-09
1.97479e-09
2.46383e-09
3.12823e-09
3.31939e-09
3.50792e-09
4.79388e-09
5.17804e-09
5.02261e-09
4.84334e-09
4.73138e-09
4.10534e-09
3.62129e-09
2.96219e-09
1.82798e-09
1.98044e-09
2.1312e-09
2.00718e-09
1.79522e-09
1.66211e-09
1.65005e-09
1.46046e-09
1.62742e-09
1.6676e-09
1.14417e-08
1.90806e-08
2.3995e-09
2.33123e-09
2.23858e-09
2.11239e-09
2.01561e-09
2.10508e-09
2.31333e-09
2.91646e-09
3.26003e-09
4.03216e-09
4.62152e-09
4.42131e-09
4.2419e-09
3.86612e-09
3.55474e-09
2.91565e-09
2.62732e-09
2.5409e-09
1.94623e-09
1.7394e-09
2.0809e-09
1.83993e-09
1.46305e-09
1.35431e-09
1.41379e-09
1.3408e-09
1.5333e-09
1.75842e-09
1.21191e-08
1.78821e-08
2.25324e-09
2.16974e-09
2.14538e-09
2.05387e-09
2.08533e-09
2.1987e-09
2.47868e-09
3.08143e-09
3.69658e-09
3.95677e-09
3.59204e-09
3.12541e-09
2.90495e-09
3.14256e-09
2.78212e-09
2.14649e-09
2.0713e-09
2.30605e-09
2.49995e-09
2.67538e-09
2.51086e-09
1.84701e-09
1.28615e-09
1.12204e-09
1.18519e-09
1.1921e-09
1.3449e-09
1.77232e-09
1.25512e-08
1.70057e-08
2.41607e-09
2.21521e-09
2.1677e-09
2.1448e-09
2.29515e-09
2.41733e-09
2.75396e-09
3.41836e-09
3.86477e-09
3.59018e-09
2.9035e-09
2.50091e-09
2.51219e-09
2.89705e-09
2.86552e-09
2.2157e-09
2.20517e-09
2.5814e-09
3.03957e-09
3.11486e-09
2.79763e-09
1.93421e-09
1.21451e-09
9.74399e-10
1.10617e-09
1.1904e-09
1.24146e-09
1.54456e-09
1.24623e-08
1.59118e-08
2.35226e-09
2.21214e-09
2.13633e-09
2.19034e-09
2.33962e-09
2.37028e-09
2.66685e-09
3.11356e-09
3.05217e-09
2.97298e-09
2.99267e-09
2.742e-09
2.88986e-09
3.31545e-09
3.32885e-09
2.83677e-09
2.80787e-09
3.00706e-09
2.75739e-09
2.4211e-09
2.78852e-09
1.93486e-09
1.10511e-09
8.63489e-10
1.13399e-09
1.37608e-09
1.31883e-09
1.48986e-09
1.23615e-08
1.48516e-08
2.33799e-09
2.36447e-09
2.2424e-09
2.31149e-09
2.49022e-09
2.61261e-09
2.88426e-09
3.0191e-09
2.79891e-09
2.48719e-09
2.80242e-09
3.13711e-09
3.3363e-09
3.66426e-09
3.79462e-09
3.62571e-09
3.50884e-09
2.77658e-09
1.77826e-09
2.75238e-09
3.27952e-09
2.6145e-09
1.96078e-09
1.64733e-09
1.64499e-09
1.95226e-09
1.87012e-09
1.97664e-09
1.24866e-08
1.39093e-08
2.52721e-09
2.61207e-09
2.61661e-09
2.81314e-09
2.95387e-09
2.92519e-09
2.98428e-09
2.95589e-09
2.81687e-09
2.6455e-09
2.30405e-09
2.92691e-09
3.63797e-09
4.24175e-09
4.32606e-09
4.05195e-09
3.56333e-09
2.23929e-09
1.61387e-09
2.83105e-09
3.29537e-09
2.89587e-09
2.33637e-09
2.07635e-09
2.03434e-09
2.36513e-09
2.35204e-09
2.42393e-09
1.22703e-08
1.30114e-08
2.67865e-09
2.52324e-09
2.77055e-09
2.94586e-09
2.76834e-09
2.52982e-09
2.4417e-09
2.38755e-09
2.26129e-09
2.09836e-09
1.41443e-09
1.85344e-09
3.20746e-09
4.33554e-09
4.6517e-09
4.29693e-09
2.9966e-09
1.43655e-09
1.68458e-09
2.36937e-09
2.67445e-09
2.5217e-09
2.22289e-09
2.16945e-09
2.31931e-09
2.53787e-09
2.28724e-09
2.46803e-09
1.15568e-08
1.22506e-08
2.89732e-09
2.5175e-09
2.96668e-09
3.05296e-09
2.42831e-09
1.95256e-09
1.83703e-09
1.82326e-09
1.86049e-09
1.89809e-09
1.37447e-09
6.92398e-10
1.6631e-09
3.05532e-09
3.89519e-09
3.52312e-09
1.85825e-09
1.33996e-09
2.03934e-09
2.19262e-09
2.14883e-09
2.01683e-09
1.93453e-09
2.24823e-09
2.75319e-09
2.90444e-09
2.548e-09
2.50857e-09
1.04919e-08
1.13125e-08
3.03489e-09
3.0766e-09
3.49225e-09
3.11192e-09
2.29092e-09
1.73305e-09
1.47712e-09
1.46019e-09
1.6541e-09
1.95649e-09
2.10586e-09
1.52311e-09
1.14677e-09
1.8462e-09
2.41039e-09
2.09493e-09
1.36634e-09
1.78544e-09
2.04534e-09
1.87538e-09
1.71273e-09
1.57688e-09
1.60615e-09
2.01916e-09
2.74321e-09
3.17819e-09
2.98268e-09
2.60162e-09
9.67481e-09
1.04182e-08
3.00163e-09
3.52124e-09
3.49629e-09
2.72092e-09
1.89588e-09
1.35405e-09
1.08351e-09
1.19656e-09
1.50993e-09
1.92448e-09
2.42209e-09
2.28133e-09
2.25975e-09
2.55958e-09
2.35158e-09
1.62922e-09
1.69111e-09
2.32253e-09
2.16746e-09
1.66955e-09
1.40063e-09
1.24999e-09
1.25968e-09
1.58639e-09
2.42248e-09
3.20617e-09
3.21371e-09
2.74911e-09
8.96429e-09
9.50128e-09
3.04227e-09
3.62477e-09
3.02615e-09
2.21425e-09
1.58368e-09
1.13465e-09
8.49049e-10
1.04489e-09
1.5615e-09
2.09251e-09
2.36725e-09
2.38245e-09
2.89715e-09
3.1302e-09
2.35343e-09
1.61633e-09
2.25828e-09
2.79843e-09
2.71506e-09
2.01226e-09
1.2669e-09
1.04726e-09
1.11019e-09
1.3677e-09
2.11507e-09
3.12072e-09
3.3864e-09
2.85402e-09
8.22944e-09
8.30049e-09
3.10122e-09
3.47522e-09
2.55713e-09
1.7351e-09
1.32226e-09
1.30603e-09
1.21639e-09
1.24353e-09
1.76778e-09
2.31645e-09
2.23374e-09
2.28767e-09
3.0087e-09
3.17624e-09
2.24925e-09
1.8623e-09
2.39231e-09
2.91105e-09
3.34023e-09
2.89279e-09
1.79185e-09
1.21567e-09
1.31669e-09
1.66917e-09
2.34167e-09
3.19253e-09
3.65487e-09
3.06623e-09
7.51475e-09
7.14499e-09
3.03758e-09
3.26321e-09
2.34463e-09
1.75233e-09
1.68549e-09
1.87533e-09
2.0234e-09
2.14377e-09
2.32657e-09
2.34675e-09
1.88507e-09
2.20803e-09
2.82237e-09
2.96651e-09
2.21015e-09
1.94514e-09
2.23792e-09
2.71299e-09
3.35633e-09
3.52243e-09
2.95773e-09
2.34655e-09
2.34184e-09
2.8614e-09
3.35521e-09
3.46302e-09
3.79607e-09
3.34284e-09
6.68179e-09
6.13922e-09
3.20949e-09
3.1864e-09
2.49844e-09
2.59903e-09
2.77394e-09
2.97064e-09
3.212e-09
3.58485e-09
3.7617e-09
3.19045e-09
1.78026e-09
1.9585e-09
2.60892e-09
3.23555e-09
2.73021e-09
2.50717e-09
2.87577e-09
3.25262e-09
3.76766e-09
3.98443e-09
4.17006e-09
4.22527e-09
4.33138e-09
4.61691e-09
4.48628e-09
3.66847e-09
3.62037e-09
3.64154e-09
5.7263e-09
5.03838e-09
3.51427e-09
3.07524e-09
2.92102e-09
3.10068e-09
3.03567e-09
3.04004e-09
3.16519e-09
3.54242e-09
3.84481e-09
3.37063e-09
1.78217e-09
1.42309e-09
2.27471e-09
2.76482e-09
2.28728e-09
2.03906e-09
2.5312e-09
2.75164e-09
2.77136e-09
2.73531e-09
3.13314e-09
3.77612e-09
4.34894e-09
4.45595e-09
3.9961e-09
3.03263e-09
2.80724e-09
3.65319e-09
4.62907e-09
3.36503e-09
3.66052e-09
2.67143e-09
3.021e-09
2.88627e-09
2.81577e-09
2.9149e-09
3.13251e-09
3.50821e-09
3.97927e-09
3.81754e-09
3.10627e-09
2.80165e-09
2.71706e-09
2.44463e-09
1.9726e-09
1.80433e-09
2.1308e-09
2.28454e-09
2.29615e-09
2.32633e-09
2.64152e-09
2.94703e-09
3.30349e-09
3.32753e-09
2.97023e-09
2.5808e-09
2.16495e-09
3.20139e-09
2.81236e-09
1.99036e-09
2.64992e-09
3.01883e-09
3.53156e-09
4.02253e-09
4.55755e-09
5.17522e-09
5.91577e-09
6.68584e-09
7.28264e-09
7.39256e-09
7.08426e-09
6.79725e-09
6.61032e-09
6.48106e-09
6.2176e-09
6.27258e-09
6.43185e-09
6.47731e-09
6.29281e-09
5.76008e-09
5.34868e-09
4.93226e-09
4.64453e-09
4.23493e-09
3.57855e-09
2.77072e-09
2.03114e-09
1.59564e-09
1.13493e-09
4.69968e-07
1.78609e-07
9.83602e-08
8.91282e-08
5.43298e-08
4.35765e-08
3.24976e-08
2.4777e-08
1.91403e-08
1.54023e-08
1.32131e-08
1.23572e-08
1.1696e-08
1.00601e-08
8.81347e-09
7.97179e-09
7.27762e-09
6.65706e-09
6.10311e-09
5.65128e-09
4.76342e-09
4.51289e-09
4.93666e-09
5.33434e-09
5.27192e-09
4.64268e-09
3.94011e-09
2.94241e-09
2.20107e-09
1.75348e-09
1.76889e-07
1.21322e-07
6.01656e-08
5.29631e-08
2.83223e-08
2.03828e-08
1.4136e-08
1.05366e-08
8.47013e-09
6.74752e-09
4.85062e-09
2.79558e-09
2.49555e-09
3.13702e-09
3.18735e-09
2.70951e-09
2.09786e-09
2.12697e-09
1.89489e-09
1.45003e-09
8.34608e-10
9.75518e-10
1.83743e-09
2.31662e-09
2.21203e-09
1.89303e-09
1.63154e-09
1.73535e-09
2.0127e-09
2.14771e-09
9.77009e-08
5.95582e-08
3.58524e-08
3.68726e-08
2.33706e-08
1.7706e-08
1.27993e-08
1.00371e-08
8.76583e-09
8.07472e-09
6.5992e-09
4.28665e-09
3.29981e-09
3.49167e-09
3.6213e-09
3.46141e-09
3.41477e-09
3.25188e-09
2.93728e-09
2.5629e-09
2.41637e-09
2.54819e-09
3.87073e-09
4.37159e-09
3.40522e-09
2.50473e-09
2.80862e-09
3.59072e-09
3.21976e-09
4.12473e-09
9.03129e-08
5.18862e-08
3.61126e-08
3.00736e-08
2.00921e-08
1.51441e-08
1.11002e-08
8.43813e-09
6.99849e-09
6.67154e-09
6.26551e-09
4.98392e-09
4.01419e-09
3.37559e-09
3.0258e-09
2.83409e-09
2.90101e-09
2.6411e-09
2.55173e-09
2.13821e-09
1.65679e-09
3.1852e-09
4.90904e-09
4.9946e-09
4.06294e-09
2.8686e-09
2.63767e-09
3.38625e-09
3.08035e-09
4.75623e-09
5.71621e-08
2.81216e-08
2.22605e-08
1.93676e-08
1.44606e-08
1.13982e-08
8.93283e-09
6.89238e-09
5.60559e-09
5.66676e-09
6.47622e-09
5.70822e-09
4.00062e-09
3.132e-09
2.73224e-09
2.55521e-09
2.66636e-09
2.4769e-09
2.3968e-09
2.3767e-09
3.53964e-09
4.76337e-09
4.98049e-09
4.86242e-09
4.55749e-09
3.66062e-09
3.30372e-09
3.10133e-09
3.42978e-09
6.02439e-09
4.7621e-08
2.04152e-08
1.70456e-08
1.42747e-08
1.11253e-08
8.98577e-09
7.1347e-09
5.39956e-09
4.3237e-09
4.38339e-09
4.99516e-09
4.05708e-09
2.47327e-09
2.38172e-09
2.3087e-09
2.32244e-09
2.7472e-09
2.38636e-09
1.78278e-09
2.52539e-09
3.19744e-09
3.01641e-09
2.24836e-09
2.50739e-09
3.05927e-09
3.30924e-09
3.48012e-09
2.39651e-09
3.36444e-09
6.75775e-09
3.81148e-08
1.34932e-08
1.22094e-08
1.07663e-08
8.87838e-09
7.33206e-09
5.82678e-09
4.63527e-09
3.92224e-09
3.8112e-09
4.094e-09
3.54852e-09
2.13732e-09
2.36562e-09
2.61328e-09
2.39518e-09
2.38412e-09
1.80917e-09
1.87626e-09
2.47164e-09
2.04541e-09
1.43452e-09
8.29041e-10
1.15389e-09
2.32133e-09
3.1724e-09
3.23352e-09
1.92979e-09
3.34753e-09
7.53045e-09
3.2242e-08
9.34264e-09
8.77181e-09
8.2173e-09
7.11802e-09
6.15669e-09
5.16244e-09
4.44119e-09
3.84325e-09
3.56275e-09
3.6292e-09
3.28922e-09
2.06427e-09
2.55806e-09
2.65559e-09
1.99664e-09
1.71742e-09
1.58852e-09
2.46615e-09
2.41549e-09
1.62464e-09
1.17098e-09
8.66962e-10
9.43221e-10
2.10958e-09
2.77604e-09
2.78237e-09
1.80259e-09
3.20656e-09
8.262e-09
2.7876e-08
6.83008e-09
6.34667e-09
5.88333e-09
5.5022e-09
5.21878e-09
4.7273e-09
4.21685e-09
3.71344e-09
3.37584e-09
3.19601e-09
2.51905e-09
1.68566e-09
2.73424e-09
2.54294e-09
1.72397e-09
1.37342e-09
1.05804e-09
1.94572e-09
2.09028e-09
1.546e-09
1.22991e-09
1.06332e-09
1.25636e-09
1.95722e-09
2.27357e-09
2.37935e-09
1.77227e-09
2.87164e-09
9.01359e-09
2.44521e-08
5.2079e-09
4.95459e-09
4.34587e-09
3.92585e-09
4.00053e-09
4.06707e-09
3.87715e-09
3.53942e-09
3.13801e-09
2.81339e-09
2.2313e-09
2.5935e-09
3.86483e-09
3.97151e-09
3.23633e-09
2.72885e-09
2.04813e-09
1.57518e-09
1.64118e-09
1.41772e-09
1.27552e-09
1.32128e-09
1.5814e-09
1.75663e-09
1.72694e-09
1.71948e-09
1.29286e-09
2.40411e-09
9.70968e-09
2.21735e-08
4.05519e-09
3.9376e-09
3.68703e-09
3.0882e-09
2.86783e-09
3.29131e-09
3.687e-09
3.62876e-09
3.13693e-09
3.21986e-09
3.75144e-09
4.56502e-09
5.63532e-09
6.01e-09
5.70994e-09
4.92251e-09
3.63154e-09
2.71999e-09
1.97104e-09
1.55065e-09
1.49696e-09
1.60236e-09
1.68064e-09
1.47698e-09
1.36545e-09
1.26108e-09
9.70906e-10
1.96178e-09
1.01025e-08
2.07e-08
3.15256e-09
2.85211e-09
2.81254e-09
2.38838e-09
2.07462e-09
2.64656e-09
3.37704e-09
3.45137e-09
3.47946e-09
4.29493e-09
4.72823e-09
5.71791e-09
6.5877e-09
6.87091e-09
6.90397e-09
5.96013e-09
4.4385e-09
3.45024e-09
2.83113e-09
2.11065e-09
1.71301e-09
1.56175e-09
1.56038e-09
1.38403e-09
1.33117e-09
1.27251e-09
1.04024e-09
1.50297e-09
1.03663e-08
1.94069e-08
2.51567e-09
2.19798e-09
2.05564e-09
1.88206e-09
1.75447e-09
2.20037e-09
2.96901e-09
2.84579e-09
3.54131e-09
4.71345e-09
5.52954e-09
6.74202e-09
7.32477e-09
7.27349e-09
7.21606e-09
6.41433e-09
5.3922e-09
4.25104e-09
3.25333e-09
2.4206e-09
1.2708e-09
1.20169e-09
1.19826e-09
1.03847e-09
1.0239e-09
1.06901e-09
8.44497e-10
1.5123e-09
1.08945e-08
1.81942e-08
2.45418e-09
2.11109e-09
1.98531e-09
1.93172e-09
1.96501e-09
2.29752e-09
2.83551e-09
2.81934e-09
3.39966e-09
4.59419e-09
5.81432e-09
6.54822e-09
7.06157e-09
6.91048e-09
6.80233e-09
5.94904e-09
5.35894e-09
4.65954e-09
3.22373e-09
2.50085e-09
1.6258e-09
1.11005e-09
1.04756e-09
1.04381e-09
1.00869e-09
8.35231e-10
4.51393e-10
1.59109e-09
1.14082e-08
1.6923e-08
2.48299e-09
1.97587e-09
1.9321e-09
1.92244e-09
2.03457e-09
2.20458e-09
2.33073e-09
2.86707e-09
3.90486e-09
4.8947e-09
5.05765e-09
4.96333e-09
5.28229e-09
6.06886e-09
6.05375e-09
5.11453e-09
4.77556e-09
4.66606e-09
4.14218e-09
3.35428e-09
2.2462e-09
1.41476e-09
9.90871e-10
9.21014e-10
8.32274e-10
6.60644e-10
3.95024e-10
1.58631e-09
1.17332e-08
1.59834e-08
2.56864e-09
1.72555e-09
1.74331e-09
1.84e-09
2.06006e-09
2.17468e-09
2.43885e-09
3.22895e-09
4.22819e-09
4.71767e-09
4.56018e-09
4.30341e-09
4.66876e-09
5.61963e-09
5.76823e-09
4.94696e-09
4.62202e-09
4.75169e-09
4.43121e-09
3.65248e-09
2.57048e-09
1.57375e-09
1.12796e-09
1.07152e-09
9.72598e-10
8.81236e-10
6.11833e-10
1.3933e-09
1.16644e-08
1.50174e-08
2.49147e-09
1.58138e-09
1.72429e-09
1.79111e-09
2.04289e-09
2.07328e-09
2.17046e-09
2.72274e-09
3.37919e-09
3.97133e-09
4.79267e-09
5.01002e-09
5.53879e-09
6.25082e-09
6.44872e-09
5.96071e-09
5.30603e-09
4.84963e-09
3.45873e-09
3.21816e-09
2.30403e-09
1.36511e-09
1.06732e-09
8.85292e-10
8.82233e-10
1.20225e-09
1.02836e-09
1.32966e-09
1.16313e-08
1.40968e-08
2.46351e-09
1.85161e-09
1.93752e-09
1.70111e-09
1.91381e-09
2.13528e-09
2.25388e-09
2.48475e-09
3.3154e-09
3.99881e-09
4.23751e-09
4.89172e-09
5.60988e-09
6.2264e-09
6.62034e-09
5.95509e-09
5.06229e-09
4.04966e-09
3.17787e-09
3.28572e-09
2.12014e-09
1.76852e-09
1.46363e-09
9.22537e-10
9.68913e-10
1.80981e-09
1.72952e-09
1.88168e-09
1.15459e-08
1.3045e-08
2.57258e-09
1.97238e-09
1.92944e-09
1.94747e-09
2.35561e-09
2.51411e-09
2.51498e-09
2.66864e-09
2.95136e-09
3.5256e-09
3.63207e-09
3.95547e-09
5.09779e-09
6.19006e-09
6.67935e-09
5.63472e-09
4.47161e-09
3.62719e-09
3.27893e-09
2.88129e-09
2.61461e-09
2.03935e-09
1.63239e-09
1.25172e-09
1.20166e-09
1.84658e-09
1.72298e-09
2.33261e-09
1.11181e-08
1.19384e-08
2.69965e-09
1.90623e-09
1.69489e-09
2.26779e-09
2.75087e-09
2.49934e-09
2.26012e-09
2.20974e-09
2.12969e-09
2.30614e-09
2.56346e-09
2.75696e-09
3.63545e-09
5.0082e-09
5.95315e-09
5.13784e-09
3.91763e-09
2.97907e-09
2.467e-09
2.32724e-09
2.37489e-09
2.11174e-09
1.97504e-09
2.05824e-09
1.79534e-09
1.69001e-09
1.38134e-09
2.51969e-09
1.02822e-08
1.11389e-08
3.01899e-09
2.09589e-09
1.782e-09
2.82393e-09
3.1423e-09
2.26036e-09
1.71716e-09
1.63976e-09
1.56786e-09
1.71091e-09
1.39854e-09
1.67501e-09
2.21245e-09
3.0071e-09
3.88884e-09
3.4697e-09
2.91539e-09
1.85809e-09
1.87656e-09
1.97952e-09
1.91043e-09
1.76662e-09
2.10653e-09
2.84606e-09
2.59201e-09
1.72957e-09
1.16834e-09
2.42146e-09
9.16674e-09
1.01291e-08
2.99689e-09
2.01552e-09
2.64684e-09
3.55826e-09
3.17862e-09
2.13969e-09
1.5973e-09
1.4134e-09
1.37428e-09
1.82846e-09
2.06327e-09
1.3716e-09
1.32085e-09
2.35707e-09
2.59655e-09
1.98752e-09
2.24501e-09
1.7215e-09
1.71039e-09
1.6751e-09