/*--------------------------------*- C++ -*----------------------------------*\
| =========                 |                                                 |
| \\      /  F ield         | OpenFOAM: The Open Source CFD Toolbox           |
|  \\    /   O peration     | Version:  v1906                                 |
|   \\  /    A nd           | Web:      www.OpenFOAM.com                      |
|    \\/     M anipulation  |                                                 |
\*---------------------------------------------------------------------------*/
FoamFile
{
    version     2.0;
    format      ascii;
    class       volScalarField;
    location    "0.02/oil";
    object      wallHeatFlux;
}
// * * * * * * * * * * * * * * * * * * * * * * * * * * * * * * * * * * * * * //

dimensions      [1 0 -3 0 0 0 0];


internalField   uniform 0;

boundaryField
{
    maxY
    {
        type            calculated;
        value           uniform 0;
    }
    minX
    {
        type            calculated;
        value           uniform 0;
    }
    maxX
    {
        type            calculated;
        value           uniform 0;
    }
    minY
    {
        type            calculated;
        value           uniform 0;
    }
    minZ
    {
        type            calculated;
        value           uniform 0;
    }
    maxZ
    {
        type            calculated;
        value           uniform 0;
    }
    oil_to_sphere
    {
        type            calculated;
        value           nonuniform List<scalar> 
1536
(
1.29921e+06
1.07374e+06
1.05961e+06
1.16943e+06
1.27375e+06
1.19987e+06
1.15311e+06
1.14441e+06
1.03614e+06
760361
1.29899e+06
749159
852660
818940
1.0737e+06
1.37345e+06
1.22727e+06
1.02422e+06
318849
869018
861736
1.22009e+06
1.12041e+06
1.38465e+06
1.36357e+06
1.38576e+06
1.38333e+06
1.41285e+06
1.00656e+06
1.06416e+06
1.05041e+06
1.06865e+06
1.13202e+06
1.38242e+06
1.36636e+06
1.34308e+06
1.33755e+06
1.37657e+06
1.34525e+06
1.33463e+06
1.37245e+06
1.38822e+06
1.06564e+06
855023
1.03889e+06
842879
1.07006e+06
1.12321e+06
1.1141e+06
1.14577e+06
1.25063e+06
1.09507e+06
1.08088e+06
1.08736e+06
1.10077e+06
1.01656e+06
1.21101e+06
1.14893e+06
984193
839564
797213
822936
797715
357602
360367
822783
1.0579e+06
800590
1.21814e+06
1.05788e+06
1.39366e+06
1.30413e+06
1.18793e+06
1.37361e+06
1.38238e+06
1.17766e+06
954794
1.13973e+06
1.36802e+06
986503
848222
781600
745315
735240
719942
824137
773441
1.11822e+06
1.07321e+06
815630
794494
336955
320766
355817
360143
834738
1.06092e+06
711987
817224
1.20376e+06
1.0801e+06
1.39687e+06
1.21319e+06
1.16929e+06
1.2535e+06
1.37982e+06
1.38099e+06
1.16276e+06
1.2555e+06
1.17283e+06
993926
1.1508e+06
889487
813128
778765
773361
798031
731725
804701
791904
1.00026e+06
802785
326174
846909
1.19808e+06
1.07751e+06
1.20148e+06
1.01044e+06
1.15604e+06
1.20124e+06
1.09162e+06
1.26375e+06
1.15343e+06
1.28793e+06
1.11405e+06
1.24516e+06
1.12641e+06
1.01027e+06
1.13029e+06
1.15111e+06
797622
811805
1.19107e+06
981148
786668
1.00443e+06
1.27326e+06
881178
940161
1.40284e+06
1.341e+06
753796
1.21502e+06
1.21204e+06
1.23603e+06
890809
1.28956e+06
713032
1.32788e+06
711369
1.45711e+06
828451
1.35884e+06
1.33677e+06
1.39084e+06
1.32825e+06
1.22489e+06
863878
1.23743e+06
714993
958083
870522
960483
826915
766802
924277
1.27664e+06
749675
865927
1.43649e+06
1.31829e+06
1.31458e+06
1.32641e+06
1.33654e+06
820547
1.25202e+06
599996
1.01172e+06
879824
1.03771e+06
994358
1.3624e+06
902846
1.2656e+06
1.39735e+06
943633
1.17563e+06
1.33579e+06
917790
1.19231e+06
1.17302e+06
1.26485e+06
1.11756e+06
800971
962021
1.01695e+06
970919
1.00189e+06
1.12732e+06
828843
1.03262e+06
984916
1.00681e+06
757062
909698
847346
736170
785364
906880
636879
855863
1.02956e+06
857481
847351
781097
922612
1.45484e+06
895714
1.365e+06
1.441e+06
1.3171e+06
899142
1.25503e+06
874333
817629
1.22102e+06
932380
946194
849618
930578
989612
471754
526767
854682
663625
938392
994261
808381
859161
673764
1.00502e+06
1.37804e+06
892381
1.27333e+06
801182
1.34997e+06
1.34764e+06
983280
997043
1.03668e+06
1.16723e+06
694140
982581
502788
431769
438859
429542
424984
1.02782e+06
804128
909677
875269
865078
920152
986037
875437
835460
739563
1.01342e+06
891475
1.3012e+06
1.3479e+06
1.0953e+06
931369
1.10332e+06
1.07359e+06
984116
1.1938e+06
1.11198e+06
1.20382e+06
1.39876e+06
933850
1.18584e+06
946540
984896
942586
938447
922513
965979
908009
1.02736e+06
1.05589e+06
1.03661e+06
1.05486e+06
1.05397e+06
1.35391e+06
933993
1.37135e+06
1.32809e+06
851038
1.21103e+06
698274
1.05508e+06
982876
1.05518e+06
879669
1.06524e+06
1.04917e+06
1.21157e+06
690368
926233
964535
955791
1.15564e+06
1.0515e+06
847235
895848
791910
967071
796414
911969
918469
1.02239e+06
954084
973115
1.16908e+06
783711
993768
1.00365e+06
775775
686759
1.00054e+06
817043
873992
840149
908216
943598
974747
924055
978888
1.01006e+06
1.05069e+06
1.02004e+06
1.38818e+06
950107
1.28073e+06
1.1263e+06
1.2271e+06
1.18667e+06
979046
1.35516e+06
1.2339e+06
992668
1.17442e+06
1.27072e+06
1.23355e+06
1.17866e+06
1.13379e+06
1.21269e+06
975393
907158
1.40068e+06
1.27764e+06
995081
1.24401e+06
1.21748e+06
1.31131e+06
1.19975e+06
1.2705e+06
906259
1.29276e+06
973140
1.20351e+06
913553
987908
1.19695e+06
1.33332e+06
892032
1.24881e+06
1.02637e+06
1.14002e+06
1.00391e+06
959791
1.06447e+06
815082
913047
1.22983e+06
932942
1.23793e+06
929621
1.22042e+06
1.25541e+06
881783
1.37416e+06
1.06047e+06
1.00684e+06
1.2384e+06
970446
1.17645e+06
963583
954107
959793
979558
1.03001e+06
1.00316e+06
925384
950530
995233
1.01904e+06
1.0406e+06
1.00945e+06
1.0293e+06
953915
698470
1.0547e+06
830527
831133
915758
790446
855992
1.11089e+06
933005
958776
998074
934927
917487
969956
777954
690923
783163
775416
1.02569e+06
809938
820435
894366
1.00356e+06
971801
934225
1.00114e+06
860179
1.04065e+06
1.14839e+06
1.10426e+06
528329
542611
523171
555454
404429
418449
546607
486914
437163
489937
564929
755351
1.00475e+06
938337
791879
820699
1.13715e+06
966583
954260
953636
751392
958403
988114
989481
849126
1.25184e+06
908842
930661
976866
1.03327e+06
810608
1.01639e+06
1.06185e+06
988459
1.12815e+06
855751
1.55945e+06
744141
1.34528e+06
1.29501e+06
1.31353e+06
1.33041e+06
1.19354e+06
1.23993e+06
1.29257e+06
1.34248e+06
1.34399e+06
1.35211e+06
939754
1.35145e+06
1.325e+06
908108
791480
1.25149e+06
1.29583e+06
1.47779e+06
905079
963146
1.15522e+06
1.34574e+06
1.3516e+06
1.24569e+06
955612
798518
1.0098e+06
773878
770198
958716
1.05329e+06
937052
1.01294e+06
904097
737432
872411
801297
653507
752233
670251
841543
685162
870340
850226
798163
897705
1.10343e+06
953864
936824
757458
1.05773e+06
866438
819847
994403
1.0176e+06
985202
1.1201e+06
986587
928668
967408
752236
844522
998042
472609
535454
532395
538510
381252
390595
397747
441833
522108
548150
462699
424072
438721
471516
548976
453284
488780
458020
490808
560194
536431
525149
465210
927827
746821
704458
1.00845e+06
961319
642494
1.06223e+06
702779
833593
820217
796558
1.1923e+06
861415
992558
991332
858245
829756
726249
747337
1.01915e+06
1.06092e+06
867346
1.18354e+06
1.06603e+06
904866
809561
828836
966055
1.19834e+06
859576
974928
955002
920361
1.34016e+06
692722
1.32554e+06
1.34149e+06
760256
798210
1.45612e+06
1.42726e+06
1.24627e+06
877154
983143
1.33824e+06
1.35721e+06
1.36085e+06
1.23363e+06
1.31926e+06
1.36442e+06
931295
796236
1.26786e+06
773961
1.4119e+06
862293
906937
908359
1.15412e+06
1.29955e+06
1.36103e+06
922473
1.26828e+06
812270
967147
1.23879e+06
742865
1.25696e+06
810354
895025
774391
660117
925833
1.1705e+06
834038
929767
978160
938312
974665
1.05267e+06
628814
940248
767424
833346
849755
883030
705277
822754
787665
678885
799353
825497
647599
700075
878911
825047
699037
862463
1.02871e+06
1.00278e+06
954414
902641
1.00222e+06
947653
926918
781064
622234
989365
948823
989475
1.15482e+06
852805
933237
914984
910157
1.02903e+06
825054
801570
838642
857934
410858
392044
449050
479784
501564
511782
446399
423023
505050
888384
1.03679e+06
996653
1.08526e+06
1.02823e+06
982629
966501
923787
962729
803726
974547
950266
794561
1.15913e+06
1.01644e+06
997019
1.04429e+06
1.16525e+06
1.04515e+06
1.07278e+06
762230
798058
872633
942413
965079
974307
842014
1.20015e+06
1.06383e+06
930701
1.07633e+06
953340
1.1826e+06
981203
974551
1.0083e+06
1.04833e+06
906835
912559
1.01439e+06
1.07141e+06
1.01759e+06
1.21479e+06
1.12874e+06
1.28404e+06
1.2102e+06
1.0077e+06
1.23617e+06
1.34446e+06
1.04575e+06
1.33386e+06
1.44622e+06
1.17527e+06
942236
1.30572e+06
1.18684e+06
1.00833e+06
1.18533e+06
1.14834e+06
1.26446e+06
1.38274e+06
1.19702e+06
845806
879467
1.33465e+06
1.30225e+06
1.13633e+06
1.45903e+06
1.23126e+06
1.15797e+06
1.17247e+06
1.31079e+06
959632
1.24847e+06
906188
996454
1.03127e+06
1.19558e+06
898926
1.37317e+06
1.20469e+06
926124
1.24875e+06
1.25332e+06
987829
1.03759e+06
978610
1.19586e+06
1.17272e+06
1.199e+06
913884
1.21807e+06
1.01738e+06
1.01952e+06
1.2501e+06
965872
1.26815e+06
956428
998584
1.11891e+06
942767
1.21401e+06
1.12282e+06
1.16981e+06
955543
987641
949228
1.18482e+06
1.28172e+06
1.02551e+06
1.02997e+06
892059
1.02313e+06
1.01779e+06
1.01778e+06
1.02967e+06
1.02403e+06
780640
1.03188e+06
866949
868984
927484
945734
801033
811996
964238
754466
1.07306e+06
1.01126e+06
970771
980814
1.13897e+06
1.00696e+06
1.05204e+06
1.01389e+06
987391
897334
931139
957946
779842
711489
995338
636079
984338
876152
785850
873721
1.00691e+06
827784
1.01392e+06
1.02762e+06
987621
970160
997872
783145
1.15574e+06
987383
1.1867e+06
1.38047e+06
1.02157e+06
1.0772e+06
748951
890464
740395
723720
994239
1.02432e+06
897028
843944
1.1969e+06
1.21732e+06
1.03354e+06
1.26205e+06
765837
512090
1.17597e+06
1.0777e+06
1.14909e+06
728255
517458
812352
1.08603e+06
1.48458e+06
1.26047e+06
816921
1.22129e+06
1.16157e+06
1.07792e+06
1.26395e+06
1.15025e+06
1.24192e+06
1.1481e+06
958008
1.25686e+06
1.27424e+06
1.12214e+06
1.23173e+06
1.26207e+06
1.16526e+06
1.19083e+06
1.12728e+06
1.19853e+06
1.00074e+06
1.22834e+06
1.13948e+06
899233
1.25503e+06
1.20946e+06
1.24446e+06
1.07686e+06
1.19234e+06
1.0582e+06
1.2684e+06
1.0909e+06
997200
1.25548e+06
1.16655e+06
1.27894e+06
1.14138e+06
994178
1.31785e+06
1.36089e+06
1.27285e+06
1.16737e+06
1.20714e+06
1.17966e+06
1.24484e+06
1.21568e+06
1.12204e+06
1.15933e+06
1.15085e+06
965175
1.18194e+06
877966
865142
1.06036e+06
1.09359e+06
1.06815e+06
746078
1.00548e+06
1.16772e+06
1.39222e+06
1.46554e+06
1.13166e+06
1.40173e+06
1.18329e+06
1.03816e+06
1.31796e+06
1.34639e+06
1.3104e+06
1.11549e+06
1.32034e+06
1.0916e+06
1.02285e+06
699666
976470
844407
727036
591730
751636
582603
569573
814973
833773
581778
860795
1.30373e+06
1.11631e+06
1.38609e+06
1.0818e+06
1.09289e+06
1.32323e+06
1.22714e+06
1.07544e+06
975494
1.11371e+06
1.06043e+06
1.05568e+06
1.11916e+06
913766
1.03667e+06
1.0184e+06
869549
1.08834e+06
1.24303e+06
1.10505e+06
826082
704847
645650
1.07177e+06
940384
518330
533014
582803
884392
564538
813763
550346
824775
589111
843815
575958
832474
1.30083e+06
1.05827e+06
1.28955e+06
750301
722892
898083
964209
1.02635e+06
1.07541e+06
963925
1.29664e+06
1.21309e+06
1.06347e+06
990868
986251
1.09073e+06
1.11581e+06
939413
1.32223e+06
1.14915e+06
1.0768e+06
1.00263e+06
965919
1.07381e+06
1.10973e+06
1.33738e+06
1.06997e+06
742924
863898
698608
1.06509e+06
955740
544005
592594
535776
863884
961337
1.14309e+06
1.0121e+06
1.09869e+06
1.18401e+06
1.11888e+06
1.38962e+06
1.37434e+06
1.3384e+06
1.3894e+06
1.16645e+06
1.31292e+06
1.349e+06
1.27686e+06
1.03331e+06
921037
1.00666e+06
998845
1.41014e+06
1.31745e+06
1.42387e+06
1.24282e+06
1.07469e+06
1.12903e+06
1.34059e+06
914839
875975
1.39646e+06
951118
1.44598e+06
1.26175e+06
826091
955603
1.44282e+06
1.10685e+06
1.29234e+06
1.50054e+06
1.24749e+06
844563
922763
1.47881e+06
1.07335e+06
1.29606e+06
1.38243e+06
1.02884e+06
1.29444e+06
1.30462e+06
968542
1.10957e+06
1.22728e+06
1.41751e+06
967362
1.48223e+06
1.28407e+06
1.39888e+06
1.40869e+06
823757
930295
1.41818e+06
845952
944916
1.47144e+06
1.28147e+06
1.33663e+06
1.24811e+06
1.32317e+06
1.2669e+06
1.05088e+06
1.09079e+06
1.27855e+06
1.44679e+06
966617
1.32584e+06
850050
931026
1.36523e+06
824875
891383
1.46044e+06
1.47562e+06
1.24713e+06
1.32036e+06
1.33952e+06
1.39834e+06
876658
1.03129e+06
956402
1.03404e+06
977758
961747
867324
1.0832e+06
1.14376e+06
1.16714e+06
1.14758e+06
1.16358e+06
1.24833e+06
1.0386e+06
974566
989149
912641
1.04544e+06
986369
1.0043e+06
1.00556e+06
871267
699159
685233
991272
1.2396e+06
1.48177e+06
970640
791486
649515
1.35257e+06
1.09697e+06
1.29902e+06
966538
920232
911284
1.01503e+06
871043
874168
792490
829897
644761
418512
963898
1.04246e+06
980014
1.05361e+06
955909
1.18268e+06
978216
1.12845e+06
1.32393e+06
1.03343e+06
1.17233e+06
772230
652429
435354
508732
804384
833720
717144
703981
958493
916856
918616
981607
1.038e+06
1.10369e+06
851481
815222
825391
1.06118e+06
1.18756e+06
1.34372e+06
1.00338e+06
963833
993788
1.09635e+06
1.00578e+06
862869
820633
1.44936e+06
1.1663e+06
1.18699e+06
1.22998e+06
1.5316e+06
1.40388e+06
1.38558e+06
867447
1.41999e+06
1.27431e+06
1.29115e+06
1.40753e+06
1.34654e+06
948785
1.04819e+06
867065
858607
962555
970037
931013
1.00413e+06
901642
754463
991968
957901
948308
1.00323e+06
1.0207e+06
989238
1.01196e+06
951832
1.01958e+06
983308
953747
779124
980012
1.13603e+06
757931
697470
929198
947681
1.09079e+06
1.00414e+06
973559
953183
896372
725122
927611
990947
1.06525e+06
1.09794e+06
1.00414e+06
916012
971046
956626
1.37541e+06
965579
964240
960954
1.14803e+06
1.14046e+06
1.21596e+06
1.17119e+06
1.20432e+06
1.00838e+06
909367
1.0559e+06
1.20531e+06
1.17385e+06
1.15635e+06
1.17841e+06
959279
932061
863252
1.18753e+06
1.31367e+06
1.16098e+06
968620
812832
1.05638e+06
1.17644e+06
1.01145e+06
896562
1.02266e+06
1.09996e+06
1.14358e+06
951813
1.02346e+06
1.18874e+06
982201
912309
1.05911e+06
1.03019e+06
1.013e+06
984089
870697
826091
1.05856e+06
924902
954581
859636
651500
675724
905037
966691
894066
944346
967710
930946
852110
729781
982627
904529
801388
854382
845954
486481
700717
835868
490290
650139
529781
478177
876215
924307
597393
837211
535189
565908
648190
837939
821117
1.25952e+06
841679
696490
952363
1.03396e+06
748118
998228
1.00663e+06
1.04814e+06
974681
1.06267e+06
968672
1.04004e+06
976713
880299
940829
967964
1.0092e+06
1.03425e+06
1.05452e+06
1.37481e+06
746931
900133
1.34979e+06
834097
966714
1.47482e+06
1.43207e+06
1.14069e+06
1.29225e+06
912145
1.36261e+06
897820
1.30862e+06
1.33559e+06
1.4316e+06
1.43079e+06
1.33732e+06
1.01611e+06
609272
1.31507e+06
1.17874e+06
1.02552e+06
1.18788e+06
831934
717920
778021
1.04064e+06
960351
993214
914790
1.00044e+06
879587
833783
718976
1.03421e+06
934696
420670
443183
499507
474397
489416
543426
569593
890271
448205
524957
873748
896503
850873
819043
706915
549721
573931
632421
839772
860450
665904
915539
880975
891166
1.30232e+06
940497
1.03279e+06
864433
720634
967821
932555
900047
1.06373e+06
1.05794e+06
1.05855e+06
1.03365e+06
833632
968582
1.00151e+06
962593
849236
1.47312e+06
1.51133e+06
1.52954e+06
1.41886e+06
1.27468e+06
934139
1.3396e+06
814664
1.3859e+06
1.1178e+06
1.43816e+06
1.35785e+06
896220
1.26085e+06
944177
1.29452e+06
1.39275e+06
1.38018e+06
1.18692e+06
1.0217e+06
1.37961e+06
1.10698e+06
981732
1.01413e+06
883321
1.00486e+06
928780
796891
705406
1.0574e+06
938804
1.05531e+06
816497
488710
542248
560172
881916
1.04407e+06
1.04906e+06
905378
1.04345e+06
977156
959193
920181
1.03671e+06
1.07824e+06
1.04024e+06
836933
978900
1.06532e+06
863207
909230
1.01526e+06
1.05303e+06
1.07643e+06
913036
1.06024e+06
979359
1.04561e+06
1.58933e+06
1.21291e+06
1.01712e+06
852561
948568
1.11074e+06
1.19944e+06
1.19785e+06
984640
853966
1.20147e+06
985484
877966
1.20903e+06
1.00247e+06
917938
1.15668e+06
1.20658e+06
1.18836e+06
1.01142e+06
841543
1.21517e+06
984450
1.19794e+06
959098
787550
1.01676e+06
841088
677379
929872
1.03007e+06
867391
1.0773e+06
935248
853947
1.03263e+06
1.00676e+06
)
;
    }
}


// ************************************************************************* //
