/*--------------------------------*- C++ -*----------------------------------*\
| =========                 |                                                 |
| \\      /  F ield         | OpenFOAM: The Open Source CFD Toolbox           |
|  \\    /   O peration     | Version:  v1906                                 |
|   \\  /    A nd           | Web:      www.OpenFOAM.com                      |
|    \\/     M anipulation  |                                                 |
\*---------------------------------------------------------------------------*/
FoamFile
{
    version     2.0;
    format      ascii;
    class       volScalarField;
    location    "0.2/oil";
    object      alphat;
}
// * * * * * * * * * * * * * * * * * * * * * * * * * * * * * * * * * * * * * //

dimensions      [1 -1 -1 0 0 0 0];


internalField   nonuniform List<scalar> 
168664
(
0.00444787
0.000499651
0.000437733
0.000156759
0.000107699
6.42796e-05
4.21069e-05
3.30533e-05
2.3244e-05
2.15256e-05
1.83362e-05
1.90599e-05
1.73072e-05
1.61844e-05
1.41545e-05
1.32478e-05
1.1886e-05
1.04841e-05
9.16186e-06
8.01136e-06
7.39174e-06
7.38654e-06
7.21724e-06
6.60097e-06
5.5365e-06
4.36429e-06
3.0365e-06
2.30135e-06
1.43742e-06
2.57437e-07
0.00049842
0.000553607
0.000138409
0.000113936
5.31742e-05
4.08437e-05
2.69249e-05
2.17951e-05
1.62509e-05
1.49872e-05
1.36866e-05
1.42933e-05
1.35645e-05
1.30765e-05
1.18427e-05
1.13648e-05
1.03861e-05
9.38747e-06
8.31039e-06
7.50126e-06
7.1236e-06
7.0641e-06
6.79378e-06
6.23438e-06
5.58012e-06
4.82508e-06
4.01445e-06
3.19392e-06
3.21164e-06
1.76028e-06
0.00043541
0.000138111
9.82102e-05
7.5128e-05
5.03102e-05
3.92235e-05
2.80453e-05
2.25241e-05
1.74914e-05
1.5611e-05
1.41591e-05
1.40972e-05
1.32229e-05
1.28357e-05
1.17586e-05
1.1241e-05
1.02912e-05
9.3567e-06
8.34047e-06
7.62669e-06
7.43559e-06
7.40549e-06
7.23645e-06
6.79842e-06
6.19054e-06
5.54978e-06
4.92173e-06
4.53036e-06
5.4314e-06
4.21919e-06
0.000158869
0.000115638
7.66706e-05
5.98134e-05
4.07766e-05
3.25743e-05
2.51815e-05
2.0926e-05
1.7538e-05
1.55701e-05
1.41215e-05
1.35373e-05
1.29438e-05
1.25761e-05
1.15314e-05
1.08166e-05
9.77425e-06
8.8684e-06
7.97717e-06
7.39914e-06
7.15649e-06
7.1292e-06
7.15132e-06
6.85814e-06
6.23221e-06
5.54423e-06
5.07216e-06
5.38243e-06
6.58652e-06
5.65949e-06
0.000109972
5.64029e-05
5.23517e-05
4.1547e-05
3.50077e-05
2.96262e-05
2.47105e-05
2.15989e-05
1.85244e-05
1.6784e-05
1.49897e-05
1.39955e-05
1.33249e-05
1.28579e-05
1.17438e-05
1.08301e-05
9.78625e-06
8.96417e-06
8.38281e-06
8.17496e-06
7.89049e-06
7.81083e-06
7.78204e-06
7.57863e-06
7.1062e-06
6.52077e-06
6.24583e-06
6.82123e-06
8.19461e-06
7.7977e-06
7.20764e-05
4.76238e-05
4.44208e-05
3.55146e-05
3.11182e-05
2.56278e-05
2.26075e-05
1.95931e-05
1.7601e-05
1.60755e-05
1.47513e-05
1.35905e-05
1.27923e-05
1.24238e-05
1.13143e-05
1.01404e-05
9.04032e-06
8.19077e-06
7.95838e-06
8.05225e-06
7.72784e-06
7.50468e-06
7.35859e-06
7.23123e-06
6.90995e-06
6.70842e-06
6.70803e-06
7.54424e-06
8.95563e-06
8.88011e-06
5.07822e-05
3.48966e-05
3.36872e-05
2.8597e-05
2.63687e-05
2.30499e-05
2.07828e-05
1.87395e-05
1.69655e-05
1.58735e-05
1.48058e-05
1.3779e-05
1.31602e-05
1.30615e-05
1.18573e-05
1.02819e-05
8.93874e-06
7.99368e-06
7.8097e-06
7.90079e-06
7.59053e-06
7.40833e-06
7.38229e-06
7.38895e-06
7.37625e-06
7.52521e-06
7.88364e-06
8.87325e-06
1.03054e-05
1.0694e-05
4.45658e-05
3.21499e-05
3.09128e-05
2.63463e-05
2.45762e-05
2.10562e-05
1.92813e-05
1.69901e-05
1.55379e-05
1.44199e-05
1.37977e-05
1.32271e-05
1.32254e-05
1.34376e-05
1.22662e-05
1.036e-05
8.86826e-06
7.72646e-06
7.30662e-06
7.05424e-06
6.6716e-06
6.55072e-06
6.68662e-06
6.96618e-06
7.38249e-06
7.97514e-06
8.65877e-06
9.73021e-06
1.10939e-05
1.17313e-05
3.54212e-05
2.6904e-05
2.57634e-05
2.29103e-05
2.13408e-05
1.8889e-05
1.7196e-05
1.53803e-05
1.40125e-05
1.31288e-05
1.29446e-05
1.32163e-05
1.38558e-05
1.4136e-05
1.30292e-05
1.1136e-05
9.36824e-06
7.82663e-06
7.02581e-06
6.46933e-06
6.09716e-06
6.16441e-06
6.57676e-06
7.1822e-06
7.9934e-06
8.84595e-06
9.80369e-06
1.08592e-05
1.20426e-05
1.2921e-05
3.38742e-05
2.61635e-05
2.51568e-05
2.2486e-05
2.07515e-05
1.79966e-05
1.61198e-05
1.40094e-05
1.25195e-05
1.16255e-05
1.18543e-05
1.26992e-05
1.35013e-05
1.3299e-05
1.24571e-05
1.10788e-05
9.24371e-06
7.55613e-06
6.42639e-06
5.66525e-06
5.31907e-06
5.59046e-06
6.26854e-06
7.08408e-06
8.01983e-06
9.11398e-06
1.03457e-05
1.13554e-05
1.24496e-05
1.34598e-05
2.96105e-05
2.34765e-05
2.23998e-05
2.04321e-05
1.87464e-05
1.66256e-05
1.49047e-05
1.29689e-05
1.15487e-05
1.09993e-05
1.16058e-05
1.25509e-05
1.27553e-05
1.16604e-05
1.08131e-05
9.94142e-06
8.52938e-06
7.20101e-06
6.10365e-06
5.31466e-06
5.21326e-06
5.78577e-06
6.73225e-06
7.70828e-06
8.70453e-06
9.93536e-06
1.12535e-05
1.2075e-05
1.3058e-05
1.41465e-05
2.93123e-05
2.34377e-05
2.22451e-05
2.03739e-05
1.88785e-05
1.70461e-05
1.53535e-05
1.30904e-05
1.12699e-05
1.04282e-05
1.07058e-05
1.10989e-05
1.03223e-05
8.71285e-06
7.94497e-06
7.33041e-06
6.26759e-06
5.79674e-06
5.33004e-06
4.75576e-06
5.01205e-06
5.98772e-06
7.24023e-06
8.51045e-06
9.6622e-06
1.08538e-05
1.1983e-05
1.25847e-05
1.34828e-05
1.46502e-05
2.66484e-05
2.19878e-05
2.1055e-05
1.98692e-05
1.86551e-05
1.72318e-05
1.57028e-05
1.34714e-05
1.15006e-05
9.94391e-06
9.45427e-06
8.93322e-06
7.76036e-06
6.79034e-06
6.31319e-06
5.87707e-06
5.06523e-06
4.43176e-06
4.55124e-06
4.20718e-06
4.72532e-06
6.42206e-06
7.99854e-06
9.31235e-06
1.04885e-05
1.16154e-05
1.25711e-05
1.31712e-05
1.41626e-05
1.5668e-05
2.51422e-05
2.0929e-05
2.01713e-05
1.9293e-05
1.81714e-05
1.68051e-05
1.5351e-05
1.35808e-05
1.19505e-05
9.55321e-06
7.52685e-06
5.65245e-06
4.60217e-06
4.21015e-06
4.17795e-06
4.18976e-06
3.42341e-06
2.62717e-06
2.57793e-06
3.10325e-06
4.49257e-06
6.73556e-06
8.60599e-06
9.94254e-06
1.10179e-05
1.20922e-05
1.30896e-05
1.37949e-05
1.48972e-05
1.68049e-05
2.34874e-05
1.97194e-05
1.89486e-05
1.81549e-05
1.71504e-05
1.59469e-05
1.46033e-05
1.31051e-05
1.16954e-05
9.20082e-06
6.50165e-06
4.22279e-06
2.99827e-06
3.20416e-06
3.84571e-06
3.60819e-06
2.78732e-06
2.0391e-06
2.24109e-06
3.2534e-06
5.01089e-06
7.27564e-06
9.24782e-06
1.07012e-05
1.1781e-05
1.28181e-05
1.38207e-05
1.45585e-05
1.56086e-05
1.7814e-05
2.26584e-05
1.90787e-05
1.824e-05
1.74703e-05
1.65498e-05
1.54269e-05
1.40873e-05
1.23998e-05
1.05872e-05
8.21428e-06
5.88795e-06
3.9324e-06
2.69252e-06
2.92145e-06
4.13156e-06
3.67081e-06
2.64946e-06
2.2849e-06
2.96722e-06
4.1551e-06
5.67758e-06
7.66593e-06
9.34116e-06
1.07335e-05
1.18034e-05
1.2876e-05
1.38923e-05
1.46675e-05
1.55714e-05
1.76358e-05
2.08233e-05
1.77973e-05
1.69343e-05
1.62281e-05
1.53622e-05
1.42742e-05
1.30863e-05
1.16132e-05
9.64695e-06
7.10176e-06
4.64857e-06
3.26569e-06
2.86777e-06
3.45488e-06
4.53243e-06
4.221e-06
3.48374e-06
3.43209e-06
4.47619e-06
5.67748e-06
6.727e-06
8.25484e-06
9.57516e-06
1.07428e-05
1.18291e-05
1.29909e-05
1.40551e-05
1.4749e-05
1.55117e-05
1.74354e-05
1.94077e-05
1.6856e-05
1.59769e-05
1.5261e-05
1.43671e-05
1.31944e-05
1.19876e-05
1.0521e-05
8.80722e-06
6.48431e-06
4.66148e-06
4.14228e-06
3.64213e-06
4.01909e-06
4.92651e-06
4.64659e-06
4.48623e-06
4.94123e-06
6.13352e-06
6.93677e-06
7.04407e-06
8.24157e-06
9.30724e-06
1.05699e-05
1.17782e-05
1.2967e-05
1.40855e-05
1.49497e-05
1.58808e-05
1.78781e-05
1.81697e-05
1.60768e-05
1.51466e-05
1.43241e-05
1.33355e-05
1.21117e-05
1.08812e-05
9.41373e-06
7.937e-06
6.55113e-06
5.67656e-06
5.61265e-06
5.3674e-06
5.40729e-06
5.98011e-06
5.562e-06
5.68954e-06
6.4143e-06
7.03258e-06
7.0635e-06
6.86956e-06
7.32416e-06
8.15749e-06
9.46426e-06
1.05991e-05
1.16094e-05
1.27201e-05
1.40059e-05
1.53571e-05
1.75105e-05
1.69872e-05
1.50428e-05
1.4003e-05
1.29492e-05
1.18137e-05
1.05588e-05
9.48931e-06
8.30728e-06
7.18981e-06
6.28531e-06
6.04318e-06
6.27739e-06
6.71389e-06
7.28746e-06
8.02932e-06
7.82143e-06
7.9832e-06
8.24195e-06
7.72964e-06
7.018e-06
6.42121e-06
6.54358e-06
7.15995e-06
8.27199e-06
9.29949e-06
1.03021e-05
1.14376e-05
1.28171e-05
1.42058e-05
1.614e-05
1.55805e-05
1.38852e-05
1.29895e-05
1.18275e-05
1.06727e-05
9.61297e-06
8.70247e-06
7.71182e-06
6.77897e-06
6.20807e-06
6.15334e-06
6.33795e-06
6.86439e-06
7.965e-06
9.35248e-06
9.87158e-06
1.00588e-05
9.35288e-06
8.22477e-06
7.13795e-06
6.25766e-06
6.20818e-06
6.7247e-06
7.73354e-06
8.61232e-06
9.61362e-06
1.06528e-05
1.18949e-05
1.31063e-05
1.43825e-05
1.44694e-05
1.31901e-05
1.24178e-05
1.12171e-05
1.01208e-05
9.22567e-06
8.48171e-06
7.73226e-06
7.04339e-06
6.68918e-06
6.35777e-06
6.036e-06
6.38111e-06
7.58785e-06
9.19136e-06
1.03641e-05
1.04944e-05
9.13724e-06
7.83616e-06
7.1501e-06
6.62559e-06
6.64499e-06
6.95024e-06
7.6166e-06
8.19111e-06
8.98414e-06
9.80376e-06
1.09921e-05
1.22249e-05
1.31259e-05
1.30489e-05
1.21489e-05
1.11779e-05
1.00267e-05
9.25256e-06
8.5816e-06
8.0845e-06
7.64854e-06
7.28941e-06
7.19036e-06
6.76049e-06
6.07665e-06
6.03432e-06
7.07213e-06
8.43953e-06
9.58908e-06
9.60724e-06
8.44682e-06
7.582e-06
7.4925e-06
7.25441e-06
7.12451e-06
7.09307e-06
7.38204e-06
7.6144e-06
8.15251e-06
8.78025e-06
9.92788e-06
1.11685e-05
1.1661e-05
1.17447e-05
1.10715e-05
9.87635e-06
8.93126e-06
8.4687e-06
8.1137e-06
7.95345e-06
7.86225e-06
7.74035e-06
7.65482e-06
7.07031e-06
6.3772e-06
6.09616e-06
6.70771e-06
7.69401e-06
8.52461e-06
8.62342e-06
8.00311e-06
7.53815e-06
7.72834e-06
7.73488e-06
7.69176e-06
7.51745e-06
7.52869e-06
7.46433e-06
7.63786e-06
7.94596e-06
9.01851e-06
1.02793e-05
1.05416e-05
9.66903e-06
9.50248e-06
8.31656e-06
7.67127e-06
7.44743e-06
7.31788e-06
7.4439e-06
7.64657e-06
7.81871e-06
7.73291e-06
7.03436e-06
6.48664e-06
6.5419e-06
6.91289e-06
7.43303e-06
7.79983e-06
8.14602e-06
8.0112e-06
7.51204e-06
7.36968e-06
7.54562e-06
7.70336e-06
7.53521e-06
7.46046e-06
7.18202e-06
7.01978e-06
6.924e-06
7.88617e-06
9.15881e-06
9.02147e-06
8.2118e-06
8.31213e-06
7.08729e-06
6.67827e-06
6.84719e-06
7.07173e-06
7.32871e-06
7.69726e-06
8.01702e-06
8.08826e-06
7.44042e-06
6.99941e-06
7.27001e-06
7.59192e-06
7.67218e-06
7.61794e-06
8.09097e-06
8.27929e-06
7.70138e-06
7.23806e-06
7.24173e-06
7.5403e-06
7.54903e-06
7.50125e-06
7.11662e-06
6.57594e-06
6.22633e-06
7.01222e-06
8.32193e-06
7.94897e-06
6.12281e-06
6.72133e-06
5.37679e-06
5.1846e-06
5.72199e-06
6.10852e-06
6.53265e-06
7.0252e-06
7.43689e-06
7.72346e-06
7.31072e-06
7.22902e-06
7.61709e-06
7.83983e-06
7.5709e-06
7.23959e-06
7.70545e-06
7.9524e-06
7.63892e-06
7.07451e-06
6.68801e-06
6.65278e-06
6.59697e-06
6.55907e-06
6.17929e-06
5.6795e-06
5.21411e-06
5.73392e-06
6.91971e-06
6.07674e-06
4.51978e-06
5.54538e-06
4.32393e-06
4.73804e-06
5.28995e-06
5.80974e-06
6.40428e-06
6.98685e-06
7.48297e-06
7.82254e-06
7.6229e-06
7.79899e-06
8.17342e-06
8.24533e-06
7.9167e-06
7.50634e-06
7.71352e-06
7.93753e-06
7.907e-06
7.55349e-06
6.92495e-06
6.58069e-06
6.29853e-06
6.25275e-06
6.00162e-06
5.65159e-06
5.04724e-06
4.71771e-06
5.68072e-06
4.58585e-06
2.07647e-06
3.57984e-06
3.28976e-06
4.01871e-06
4.6391e-06
5.38922e-06
6.10059e-06
6.86087e-06
7.53768e-06
8.11854e-06
8.22452e-06
8.37873e-06
8.55934e-06
8.65745e-06
8.62729e-06
8.25656e-06
8.28081e-06
8.39423e-06
8.3608e-06
7.88883e-06
7.09339e-06
6.55152e-06
6.12234e-06
5.91026e-06
5.48338e-06
4.86156e-06
4.07149e-06
3.16476e-06
3.38333e-06
2.0588e-06
9.69504e-07
2.09936e-06
3.0891e-06
3.83308e-06
4.84331e-06
5.7429e-06
6.63745e-06
7.58413e-06
8.51465e-06
9.16672e-06
9.43862e-06
9.56398e-06
9.58003e-06
9.82337e-06
9.73858e-06
9.26917e-06
9.37795e-06
9.6912e-06
9.67747e-06
8.89602e-06
7.81801e-06
7.09148e-06
6.44439e-06
6.01642e-06
5.18654e-06
4.15575e-06
2.79703e-06
1.84593e-06
1.13294e-06
3.21756e-07
0.000496974
0.000564774
0.000140167
0.000115824
5.31354e-05
4.1042e-05
2.6961e-05
2.20383e-05
1.58637e-05
1.45419e-05
1.22369e-05
1.30213e-05
1.228e-05
1.24618e-05
1.13381e-05
1.10044e-05
1.00242e-05
8.85698e-06
8.1534e-06
7.21226e-06
6.63596e-06
6.35095e-06
6.21582e-06
5.90047e-06
5.43799e-06
4.66522e-06
3.82346e-06
2.98366e-06
2.35414e-06
1.31821e-06
0.000561398
0.00014774
9.37282e-05
5.32562e-05
2.61961e-05
1.97292e-05
1.26775e-05
9.21596e-06
7.05151e-06
5.90158e-06
5.29444e-06
4.14178e-06
2.97357e-06
3.3441e-06
3.44891e-06
3.38418e-06
3.32228e-06
3.23265e-06
2.90721e-06
2.38382e-06
2.51431e-06
2.99556e-06
3.57884e-06
3.90812e-06
3.88682e-06
3.46445e-06
3.08598e-06
2.6671e-06
3.904e-06
3.282e-06
0.000137973
9.42298e-05
4.73346e-05
4.21331e-05
2.27321e-05
1.9091e-05
1.29269e-05
9.75036e-06
7.48944e-06
6.70078e-06
6.43014e-06
6.07971e-06
4.3133e-06
3.48251e-06
3.083e-06
2.81916e-06
2.5642e-06
2.10378e-06
1.87538e-06
2.08962e-06
2.65342e-06
3.87135e-06
4.80932e-06
4.8723e-06
4.94749e-06
4.7124e-06
3.91933e-06
3.55641e-06
4.43167e-06
5.52756e-06
0.000115749
5.1377e-05
4.0598e-05
2.85272e-05
1.65065e-05
1.38345e-05
8.97087e-06
7.75422e-06
6.29737e-06
6.07287e-06
5.71116e-06
5.87753e-06
4.20469e-06
3.43845e-06
2.91681e-06
2.82998e-06
3.07457e-06
2.31903e-06
2.34869e-06
3.07583e-06
4.08297e-06
4.68818e-06
4.50102e-06
4.28325e-06
4.83527e-06
4.87415e-06
4.23078e-06
4.09842e-06
4.08129e-06
6.70309e-06
5.57992e-05
2.42916e-05
2.04895e-05
1.66116e-05
1.13683e-05
1.01658e-05
7.14556e-06
6.39831e-06
5.0413e-06
4.73224e-06
4.07181e-06
4.18476e-06
2.86224e-06
3.25077e-06
3.11579e-06
3.14713e-06
3.33009e-06
2.41632e-06
2.60172e-06
3.57507e-06
4.2079e-06
3.47933e-06
2.5124e-06
2.43062e-06
3.20032e-06
3.69731e-06
3.98529e-06
4.32588e-06
3.90012e-06
8.37116e-06
4.70128e-05
1.73562e-05
1.70099e-05
1.36937e-05
9.94706e-06
8.55748e-06
5.87214e-06
5.22602e-06
3.71652e-06
3.70123e-06
3.37346e-06
3.47274e-06
2.70998e-06
3.26561e-06
3.30863e-06
3.37651e-06
3.47832e-06
2.77401e-06
3.14634e-06
3.45369e-06
3.25782e-06
2.092e-06
1.35416e-06
1.36576e-06
1.84983e-06
2.58211e-06
3.47695e-06
4.13778e-06
3.57626e-06
9.12752e-06
3.47566e-05
1.04737e-05
1.10072e-05
8.78774e-06
7.20894e-06
6.35467e-06
4.85768e-06
4.52909e-06
3.42644e-06
3.51496e-06
3.27597e-06
3.57341e-06
2.87284e-06
3.56817e-06
3.85585e-06
3.69253e-06
3.6729e-06
3.3301e-06
3.86628e-06
3.27727e-06
2.69616e-06
1.86543e-06
1.54877e-06
1.27795e-06
1.54429e-06
2.53312e-06
3.51241e-06
4.07036e-06
3.62122e-06
1.04283e-05
3.20842e-05
6.77128e-06
8.38134e-06
7.71801e-06
6.62716e-06
6.07094e-06
4.90823e-06
4.63282e-06
3.60694e-06
3.56666e-06
3.22945e-06
3.24698e-06
2.28043e-06
3.18088e-06
3.74647e-06
3.34763e-06
3.14414e-06
3.1811e-06
3.65302e-06
2.94192e-06
2.27919e-06
1.73853e-06
1.51857e-06
1.27346e-06
1.70437e-06
2.71667e-06
3.46558e-06
3.87194e-06
3.5055e-06
1.11647e-05
2.70292e-05
5.14354e-06
5.89693e-06
5.3435e-06
5.08321e-06
4.86233e-06
4.25959e-06
4.23049e-06
3.65305e-06
3.66835e-06
3.23483e-06
2.61862e-06
1.6402e-06
3.95125e-06
4.85471e-06
4.1649e-06
3.18861e-06
2.51821e-06
3.19207e-06
2.72638e-06
2.30915e-06
1.83983e-06
1.69759e-06
1.69023e-06
2.20531e-06
2.92388e-06
3.29308e-06
3.44771e-06
3.26835e-06
1.21559e-05
2.60837e-05
3.45425e-06
4.36399e-06
4.31273e-06
4.44045e-06
4.5974e-06
4.19218e-06
4.25842e-06
3.89217e-06
3.67628e-06
3.06295e-06
2.14837e-06
2.84789e-06
5.39323e-06
6.21677e-06
5.40387e-06
4.04578e-06
2.06281e-06
2.2814e-06
2.36348e-06
2.09337e-06
1.89561e-06
1.88719e-06
2.03555e-06
2.3134e-06
2.64772e-06
2.69367e-06
2.6214e-06
2.75077e-06
1.26946e-05
2.35721e-05
3.02729e-06
3.1765e-06
2.81583e-06
2.81739e-06
3.15054e-06
3.33199e-06
3.87494e-06
3.93741e-06
3.73457e-06
3.28736e-06
3.34031e-06
4.96439e-06
6.92562e-06
7.59334e-06
7.21344e-06
6.21698e-06
3.439e-06
2.38576e-06
2.21026e-06
2.40071e-06
2.4532e-06
2.53543e-06
2.59333e-06
2.65656e-06
2.65883e-06
2.4045e-06
2.17938e-06
2.39278e-06
1.3158e-05
2.34434e-05
2.44217e-06
2.12339e-06
1.89707e-06
1.9061e-06
2.38862e-06
2.89819e-06
3.64578e-06
4.19857e-06
4.21564e-06
3.7944e-06
4.45649e-06
5.59438e-06
6.22021e-06
6.47385e-06
6.40721e-06
5.63455e-06
4.02748e-06
2.75149e-06
2.29165e-06
2.71445e-06
2.92183e-06
2.91963e-06
2.82665e-06
2.78073e-06
2.69597e-06
2.29533e-06
2.18056e-06
2.188e-06
1.34885e-05
2.17153e-05
2.55132e-06
1.9771e-06
1.6748e-06
1.53302e-06
1.61292e-06
2.04834e-06
2.78174e-06
3.64479e-06
3.8879e-06
3.81218e-06
5.59846e-06
6.03041e-06
6.01818e-06
5.90652e-06
5.59147e-06
5.19287e-06
4.24107e-06
3.70868e-06
2.27015e-06
2.74623e-06
2.91068e-06
2.69463e-06
2.36199e-06
2.18881e-06
2.17057e-06
1.93922e-06
2.09534e-06
2.23896e-06
1.4284e-05
2.08284e-05
2.372e-06
2.19321e-06
2.12751e-06
2.09582e-06
1.96996e-06
2.14205e-06
2.56527e-06
3.43754e-06
3.74255e-06
4.41095e-06
5.11744e-06
4.85213e-06
4.66353e-06
4.19413e-06
3.83661e-06
3.10855e-06
2.9005e-06
2.85794e-06
2.33754e-06
2.26601e-06
2.73212e-06
2.37169e-06
1.93148e-06
1.74992e-06
1.85012e-06
1.76032e-06
1.97782e-06
2.32272e-06
1.5082e-05
1.9648e-05
2.43712e-06
2.18681e-06
2.1333e-06
2.12026e-06
2.16014e-06
2.37059e-06
2.79071e-06
3.60442e-06
4.35268e-06
4.68908e-06
4.26204e-06
3.71481e-06
3.29461e-06
3.62493e-06
3.17901e-06
2.52426e-06
2.58096e-06
2.78026e-06
3.168e-06
3.4365e-06
3.31833e-06
2.48449e-06
1.79627e-06
1.55715e-06
1.65408e-06
1.59219e-06
1.79006e-06
2.31495e-06
1.57047e-05
1.91127e-05
2.68319e-06
2.33611e-06
2.21627e-06
2.29311e-06
2.45363e-06
2.68401e-06
3.04119e-06
3.88787e-06
4.32337e-06
4.01631e-06
3.04512e-06
2.65593e-06
2.60967e-06
3.27015e-06
3.26649e-06
2.59416e-06
2.8265e-06
3.15387e-06
3.80504e-06
3.80669e-06
3.47828e-06
2.40267e-06
1.55896e-06
1.23771e-06
1.44692e-06
1.47097e-06
1.58672e-06
1.95873e-06
1.55455e-05
1.79678e-05
2.68819e-06
2.47772e-06
2.32227e-06
2.46446e-06
2.61617e-06
2.75558e-06
3.13687e-06
3.79487e-06
3.61343e-06
3.52598e-06
3.39882e-06
3.22434e-06
3.25446e-06
3.9028e-06
3.86716e-06
3.40048e-06
3.48514e-06
3.58871e-06
3.39009e-06
3.04763e-06
3.57097e-06
2.51238e-06
1.54618e-06
1.23489e-06
1.60207e-06
1.79173e-06
1.77703e-06
1.91885e-06
1.54692e-05
1.70294e-05
2.68189e-06
2.71077e-06
2.47422e-06
2.6477e-06
2.78687e-06
2.99764e-06
3.24744e-06
3.61153e-06
3.20657e-06
3.00007e-06
3.33559e-06
3.78532e-06
4.08041e-06
4.66159e-06
4.69382e-06
4.71881e-06
4.43908e-06
3.56017e-06
2.29731e-06
3.24786e-06
4.08125e-06
3.10713e-06
2.43112e-06
2.04309e-06
2.10927e-06
2.38379e-06
2.37414e-06
2.44944e-06
1.56282e-05
1.60061e-05
2.93635e-06
3.07986e-06
3.02308e-06
3.35085e-06
3.45438e-06
3.52874e-06
3.55201e-06
3.7424e-06
3.42345e-06
3.38961e-06
2.7405e-06
3.49146e-06
4.35149e-06
5.27806e-06
5.22439e-06
5.06379e-06
4.31334e-06
2.69286e-06
2.0132e-06
3.41516e-06
4.24488e-06
3.58197e-06
3.0481e-06
2.62835e-06
2.61731e-06
2.89742e-06
2.97001e-06
2.96735e-06
1.53058e-05
1.51343e-05
3.09694e-06
2.97709e-06
3.23006e-06
3.50469e-06
3.19884e-06
2.97012e-06
2.76642e-06
2.9581e-06
2.65248e-06
2.80571e-06
1.64667e-06
2.34952e-06
4.22595e-06
5.64387e-06
5.89089e-06
5.59187e-06
3.74113e-06
1.75507e-06
2.15893e-06
2.77726e-06
3.41269e-06
3.00438e-06
2.78917e-06
2.63002e-06
2.91661e-06
3.09969e-06
2.91069e-06
3.01194e-06
1.44316e-05
1.42721e-05
3.43146e-06
3.09187e-06
3.61265e-06
3.76638e-06
2.93023e-06
2.44058e-06
2.20075e-06
2.41954e-06
2.31687e-06
2.70035e-06
1.75157e-06
1.05662e-06
2.25746e-06
4.038e-06
4.9528e-06
4.65283e-06
2.17525e-06
1.55645e-06
2.75411e-06
2.65131e-06
2.84916e-06
2.4711e-06
2.52235e-06
2.76935e-06
3.47405e-06
3.53659e-06
3.23229e-06
3.05717e-06
1.30566e-05
1.33138e-05
3.59567e-06
3.68904e-06
4.16285e-06
3.77014e-06
2.68839e-06
2.08777e-06
1.67962e-06
1.89727e-06
2.01302e-06
2.63988e-06
2.5478e-06
2.05506e-06
1.55218e-06
2.49542e-06
3.17309e-06
2.73447e-06
1.47406e-06
1.97414e-06
2.6506e-06
2.20495e-06
2.2259e-06
1.84365e-06
2.00778e-06
2.41315e-06
3.41335e-06
3.84751e-06
3.74746e-06
3.16058e-06
1.20699e-05
1.22262e-05
3.60322e-06
4.29063e-06
4.23117e-06
3.37079e-06
2.28653e-06
1.73967e-06
1.30963e-06
1.69429e-06
1.91532e-06
2.69186e-06
3.04406e-06
3.01959e-06
3.00224e-06
3.20474e-06
3.03264e-06
1.87742e-06
2.18513e-06
2.8284e-06
2.91342e-06
2.01243e-06
1.89094e-06
1.5039e-06
1.66289e-06
1.93927e-06
3.09047e-06
3.90464e-06
4.05814e-06
3.36124e-06
1.10844e-05
1.12929e-05
3.60433e-06
4.34411e-06
3.57337e-06
2.67956e-06
1.81584e-06
1.40714e-06
9.56884e-07
1.44042e-06
1.86602e-06
2.79363e-06
2.89966e-06
3.03961e-06
3.73119e-06
3.82886e-06
2.98693e-06
1.91624e-06
2.90908e-06
3.37621e-06
3.55385e-06
2.37738e-06
1.67154e-06
1.19492e-06
1.3826e-06
1.56542e-06
2.63188e-06
3.74373e-06
4.22391e-06
3.46086e-06
1.02631e-05
9.72293e-06
3.69076e-06
4.24187e-06
3.03918e-06
2.17899e-06
1.57366e-06
1.70815e-06
1.4888e-06
1.74509e-06
2.16729e-06
3.05384e-06
2.74392e-06
2.91901e-06
3.90771e-06
3.92275e-06
2.86973e-06
2.40637e-06
3.14705e-06
3.55792e-06
4.33598e-06
3.53393e-06
2.35504e-06
1.47143e-06
1.73804e-06
2.03982e-06
3.00501e-06
3.89695e-06
4.60718e-06
3.75664e-06
9.19106e-06
8.59818e-06
3.6456e-06
3.94589e-06
2.72003e-06
2.14828e-06
1.96647e-06
2.34295e-06
2.40134e-06
2.76658e-06
2.86317e-06
3.1046e-06
2.31527e-06
2.74128e-06
3.63073e-06
3.56863e-06
2.73369e-06
2.48676e-06
2.88352e-06
3.28484e-06
4.36235e-06
4.27174e-06
3.79042e-06
2.87435e-06
2.98973e-06
3.46547e-06
4.15725e-06
4.17922e-06
4.72683e-06
4.09188e-06
8.35022e-06
7.13381e-06
3.86197e-06
3.88047e-06
2.9813e-06
3.17996e-06
3.31344e-06
3.64049e-06
3.80743e-06
4.44314e-06
4.49997e-06
4.01002e-06
2.08743e-06
2.37132e-06
3.21762e-06
3.74574e-06
3.18237e-06
3.08287e-06
3.62222e-06
3.86355e-06
4.75286e-06
4.78611e-06
5.20398e-06
5.11895e-06
5.38241e-06
5.59262e-06
5.54242e-06
4.50527e-06
4.55788e-06
4.45879e-06
6.9144e-06
6.06012e-06
4.35173e-06
3.76944e-06
3.55274e-06
3.80986e-06
3.66621e-06
3.78126e-06
3.79708e-06
4.44824e-06
4.65275e-06
4.2954e-06
2.04372e-06
1.76235e-06
2.75142e-06
3.33607e-06
2.77444e-06
2.53107e-06
3.30892e-06
3.40626e-06
3.71757e-06
3.42851e-06
4.11915e-06
4.67365e-06
5.52442e-06
5.51009e-06
5.09468e-06
3.86332e-06
3.55947e-06
4.5186e-06
5.70648e-06
4.0423e-06
4.40581e-06
3.22757e-06
3.60925e-06
3.50391e-06
3.39014e-06
3.56801e-06
3.70592e-06
4.27488e-06
4.62591e-06
4.57006e-06
3.4514e-06
3.31625e-06
2.97947e-06
2.65648e-06
1.96593e-06
1.96063e-06
2.5545e-06
2.55793e-06
2.75415e-06
2.50879e-06
3.12296e-06
3.36683e-06
4.0299e-06
4.01269e-06
3.63309e-06
3.05695e-06
2.58512e-06
3.84121e-06
3.41582e-06
2.3629e-06
3.29504e-06
3.69614e-06
4.33889e-06
4.93428e-06
5.57212e-06
6.38223e-06
7.24498e-06
8.30338e-06
9.04541e-06
9.27462e-06
8.87831e-06
8.51564e-06
8.31962e-06
8.21951e-06
7.85304e-06
7.92436e-06
8.04457e-06
8.06672e-06
7.87496e-06
7.0353e-06
6.67251e-06
6.01614e-06
5.83462e-06
5.2628e-06
4.51271e-06
3.52274e-06
2.54482e-06
2.04343e-06
1.34499e-06
0.000438623
0.000140399
9.75733e-05
7.38882e-05
4.76812e-05
3.84412e-05
2.66196e-05
2.15133e-05
1.48349e-05
1.3223e-05
1.06999e-05
1.10692e-05
1.05667e-05
9.04176e-06
8.50595e-06
7.96534e-06
7.29127e-06
7.49817e-06
6.4778e-06
6.77103e-06
5.36493e-06
5.73573e-06
5.81594e-06
6.46642e-06
6.27877e-06
5.58222e-06
4.64411e-06
3.48443e-06
2.54409e-06
2.03349e-06
0.0001384
9.56821e-05
4.97586e-05
4.35805e-05
2.19685e-05
1.74856e-05
1.17181e-05
9.23393e-06
7.84393e-06
6.54159e-06
4.89031e-06
2.99533e-06
2.83394e-06
3.15679e-06
3.61871e-06
3.02475e-06
2.81323e-06
2.98259e-06
2.7347e-06
2.19887e-06
1.25625e-06
1.66918e-06
2.62002e-06
3.17265e-06
2.984e-06
2.52394e-06
2.30136e-06
2.33551e-06
2.85269e-06
2.95604e-06
9.65139e-05
4.94977e-05
3.58128e-05
3.52324e-05
2.15857e-05
1.7671e-05
1.18686e-05
9.57869e-06
8.49032e-06
8.21792e-06
6.9111e-06
5.04691e-06
3.98963e-06
3.65527e-06
3.78637e-06
3.47266e-06
3.7488e-06
3.57339e-06
3.26136e-06
3.11945e-06
2.7287e-06
3.17268e-06
4.59539e-06
5.18046e-06
3.98624e-06
2.8912e-06
3.17928e-06
4.12562e-06
3.69521e-06
4.71211e-06
7.57973e-05
4.20359e-05
3.41635e-05
2.71597e-05
1.7212e-05
1.4278e-05
9.53792e-06
7.8354e-06
6.47726e-06
6.94049e-06
6.97819e-06
6.4256e-06
5.42407e-06
4.47625e-06
3.86983e-06
3.56419e-06
3.53915e-06
3.23597e-06
3.14632e-06
2.89628e-06
2.11729e-06
4.10486e-06
6.22273e-06
6.31304e-06
5.08782e-06
3.53649e-06
3.48994e-06
4.27344e-06
3.96898e-06
5.83177e-06
5.1115e-05
2.1737e-05
2.00021e-05
1.62749e-05
1.20631e-05
1.06772e-05
7.90162e-06
6.71137e-06
5.42289e-06
6.1276e-06
7.3794e-06
7.11721e-06
5.12641e-06
4.03107e-06
3.46756e-06
3.2001e-06
3.00721e-06
3.02061e-06
2.97135e-06
3.06113e-06
4.31551e-06
5.80556e-06
6.20644e-06
6.09305e-06
5.61854e-06
4.31585e-06
4.16987e-06
3.70899e-06
4.18132e-06
7.38899e-06
4.39442e-05
1.71907e-05
1.69797e-05
1.33907e-05
1.03152e-05
8.5524e-06
6.23501e-06
4.91512e-06
3.78757e-06
4.26881e-06
5.22741e-06
4.56207e-06
2.77969e-06
2.31806e-06
2.21079e-06
2.33335e-06
2.50651e-06
2.82101e-06
2.07151e-06
3.02557e-06
3.73584e-06
3.58881e-06
2.80778e-06
3.21432e-06
3.97765e-06
4.14612e-06
4.38347e-06
2.96937e-06
4.08877e-06
8.12169e-06
3.38569e-05
1.06164e-05
1.09749e-05
8.70666e-06
7.28165e-06
6.22524e-06
4.63955e-06
3.99044e-06
3.445e-06
3.61975e-06
4.21507e-06
3.74521e-06
2.43681e-06
2.36229e-06
2.70255e-06
2.65542e-06
2.43868e-06
2.41988e-06
2.31617e-06
3.09609e-06
2.4441e-06
1.79348e-06
9.5548e-07
1.46988e-06
3.02792e-06
4.03383e-06
4.08321e-06
2.50373e-06
4.09583e-06
9.31929e-06
3.1092e-05
7.50719e-06
8.34231e-06
7.8186e-06
6.97559e-06
6.11404e-06
4.81061e-06
4.30197e-06
3.6465e-06
3.35771e-06
3.70474e-06
3.27048e-06
2.22688e-06
2.51867e-06
2.45605e-06
1.94573e-06
1.41713e-06
1.96864e-06
2.60833e-06
2.8873e-06
1.64965e-06
1.40579e-06
9.06078e-07
1.24636e-06
2.70843e-06
3.52244e-06
3.4253e-06
2.29218e-06
3.86505e-06
1.00342e-05
2.59784e-05
5.67444e-06
5.51158e-06
4.72587e-06
4.6971e-06
4.75132e-06
4.18907e-06
3.94302e-06
3.56421e-06
3.24509e-06
3.43422e-06
2.5604e-06
2.37846e-06
3.18868e-06
2.64645e-06
1.567e-06
1.34819e-06
1.38658e-06
2.13818e-06
2.67829e-06
1.76399e-06
1.69356e-06
1.33975e-06
1.74632e-06
2.6086e-06
2.97898e-06
3.02139e-06
2.28675e-06
3.54353e-06
1.11093e-05
2.45922e-05
4.50544e-06
4.49114e-06
3.76389e-06
3.627e-06
4.07048e-06
4.09726e-06
3.93321e-06
3.58313e-06
3.06601e-06
2.9845e-06
2.35465e-06
3.2132e-06
3.8707e-06
4.13785e-06
3.10124e-06
2.8396e-06
2.54823e-06
1.59234e-06
2.00818e-06
1.48127e-06
1.5688e-06
1.57705e-06
2.04988e-06
2.24115e-06
2.23241e-06
2.17605e-06
1.61227e-06
2.97279e-06
1.1881e-05
2.19194e-05
3.70237e-06
3.42754e-06
3.03488e-06
2.50511e-06
2.4372e-06
3.08326e-06
3.69621e-06
3.76589e-06
3.23694e-06
3.79858e-06
4.44267e-06
5.658e-06
6.32405e-06
6.92343e-06
6.30726e-06
5.68163e-06
4.65197e-06
3.32948e-06
2.72121e-06
2.02457e-06
2.07803e-06
2.14369e-06
2.25736e-06
1.95497e-06
1.78188e-06
1.65259e-06
1.25462e-06
2.48623e-06
1.24672e-05
2.18301e-05
3.03709e-06
2.49407e-06
2.38144e-06
1.99444e-06
1.76284e-06
2.63855e-06
3.50037e-06
3.65847e-06
3.77968e-06
5.0494e-06
5.2428e-06
6.66475e-06
7.25634e-06
7.82451e-06
7.79532e-06
6.66403e-06
5.27785e-06
4.00006e-06
3.54994e-06
2.56596e-06
2.17118e-06
1.95322e-06
1.93782e-06
1.72009e-06
1.67281e-06
1.63858e-06
1.31034e-06
1.93049e-06
1.27997e-05
2.04039e-05
2.47599e-06
1.82482e-06
1.682e-06
1.51613e-06
1.36938e-06
2.07419e-06
3.12972e-06
2.97281e-06
4.03782e-06
5.68132e-06
6.44088e-06
8.11424e-06
8.61424e-06
8.83582e-06
8.55971e-06
7.84003e-06
6.57271e-06
5.20321e-06
4.20366e-06
3.13874e-06
1.8059e-06
1.59095e-06
1.569e-06
1.35941e-06
1.33988e-06
1.3706e-06
1.05647e-06
1.90212e-06
1.35389e-05
1.98031e-05
2.42623e-06
1.79594e-06
1.69145e-06
1.72658e-06
1.76825e-06
2.27378e-06
3.13029e-06
3.06598e-06
3.7404e-06
5.1372e-06
6.68972e-06
7.63394e-06
8.31752e-06
8.32608e-06
8.07022e-06
7.27059e-06
6.35396e-06
5.68606e-06
3.81944e-06
3.00779e-06
2.01588e-06
1.35024e-06
1.23935e-06
1.25138e-06
1.2201e-06
1.00534e-06
5.61995e-07
1.96779e-06
1.41602e-05
1.85189e-05
2.69232e-06
1.77165e-06
1.73196e-06
1.75063e-06
1.92253e-06
2.18063e-06
2.45212e-06
3.15097e-06
4.53967e-06
5.55892e-06
6.21409e-06
5.91009e-06
6.67534e-06
7.55387e-06
7.59475e-06
6.61424e-06
5.85867e-06
5.92422e-06
5.03569e-06
4.29015e-06
2.87445e-06
1.83998e-06
1.29226e-06
1.26744e-06
1.10231e-06
8.07201e-07
5.31078e-07
1.98854e-06
1.46587e-05
1.79062e-05
2.90693e-06
1.55613e-06
1.59331e-06
1.75256e-06
2.05686e-06
2.21636e-06
2.52408e-06
3.50594e-06
4.84563e-06
5.33826e-06
5.63271e-06
5.07162e-06
5.97455e-06
7.16188e-06
7.29548e-06
6.41714e-06
5.70851e-06
6.14165e-06
5.39002e-06
4.44395e-06
3.09086e-06
1.8368e-06
1.28771e-06
1.29111e-06
1.13314e-06
9.9585e-07
6.96825e-07
1.76625e-06
1.45409e-05
1.69384e-05
2.94587e-06
1.50924e-06
1.74763e-06
1.80374e-06
2.14827e-06
2.18228e-06
2.38049e-06
2.97658e-06
3.98258e-06
4.5406e-06
5.99539e-06
6.07398e-06
7.00012e-06
7.76584e-06
7.89861e-06
7.59296e-06
6.36905e-06
6.15657e-06
4.16532e-06
3.95426e-06
2.80367e-06
1.68734e-06
1.31857e-06
1.21829e-06
1.06308e-06
1.43738e-06
1.25373e-06
1.72897e-06
1.45581e-05
1.62051e-05
2.93545e-06
1.9211e-06
2.06088e-06
1.76209e-06
1.99613e-06
2.23868e-06
2.42516e-06
2.60453e-06
3.91807e-06
4.73481e-06
5.39938e-06
6.17442e-06
7.19427e-06
8.04048e-06
8.26988e-06
7.68963e-06
6.27836e-06
5.31809e-06
3.94788e-06
3.97658e-06
2.43405e-06
2.11236e-06
1.74097e-06
1.15525e-06
1.10697e-06
2.12294e-06
2.08209e-06
2.38086e-06
1.44644e-05
1.50199e-05
3.08971e-06
2.1784e-06
2.16089e-06
2.22425e-06
2.68737e-06
2.91998e-06
2.99273e-06
2.98086e-06
3.57389e-06
4.11603e-06
4.46461e-06
4.88086e-06
6.16293e-06
7.58711e-06
8.04064e-06
6.8872e-06
5.51193e-06
4.59044e-06
3.97002e-06
3.66739e-06
3.12817e-06
2.62676e-06
2.10282e-06
1.59814e-06
1.51165e-06
2.26023e-06
2.13932e-06
2.9722e-06
1.39168e-05
1.39466e-05
3.26569e-06
2.12331e-06
1.9149e-06
2.65674e-06
3.14421e-06
2.80156e-06
2.60465e-06
2.40236e-06
2.57317e-06
2.68274e-06
3.35372e-06
3.59141e-06
4.71215e-06
6.1943e-06
7.30107e-06
6.44096e-06
5.11298e-06
3.90486e-06
3.09516e-06
2.96608e-06
2.81365e-06
2.61906e-06
2.40408e-06
2.49087e-06
2.19194e-06
2.02609e-06
1.72289e-06
3.21871e-06
1.29335e-05
1.30487e-05
3.69648e-06
2.4352e-06
2.12299e-06
3.45029e-06
3.80217e-06
2.73655e-06
2.12926e-06
1.91631e-06
1.99399e-06
1.9304e-06
1.98573e-06
2.08514e-06
3.1779e-06
3.48083e-06
4.57806e-06
4.32645e-06
3.79598e-06
2.66208e-06
2.30867e-06
2.57841e-06
2.34413e-06
2.30164e-06
2.68861e-06
3.52991e-06
3.22965e-06
2.16028e-06
1.48736e-06
3.13496e-06
1.15365e-05
1.20401e-05
3.70698e-06
2.3664e-06
3.13103e-06
4.24923e-06
3.7457e-06
2.45673e-06
1.90248e-06
1.70696e-06
1.74393e-06
2.11363e-06
2.59217e-06
1.58712e-06
2.06124e-06
2.91528e-06
3.02211e-06
2.88837e-06
2.85097e-06
2.33266e-06
2.01916e-06
2.15654e-06