/*--------------------------------*- C++ -*----------------------------------*\
| =========                 |                                                 |
| \\      /  F ield         | OpenFOAM: The Open Source CFD Toolbox           |
|  \\    /   O peration     | Version:  v1906                                 |
|   \\  /    A nd           | Web:      www.OpenFOAM.com                      |
|    \\/     M anipulation  |                                                 |
\*---------------------------------------------------------------------------*/
FoamFile
{
    version     2.0;
    format      ascii;
    class       volScalarField;
    location    "0.2/oil";
    object      nut;
}
// * * * * * * * * * * * * * * * * * * * * * * * * * * * * * * * * * * * * * //

dimensions      [0 2 -1 0 0 0 0];


internalField   nonuniform List<scalar> 
168664
(
3.58611e-06
4.02845e-07
3.52923e-07
1.26388e-07
8.6833e-08
5.18256e-08
3.39488e-08
2.66493e-08
1.87405e-08
1.73551e-08
1.47837e-08
1.53671e-08
1.3954e-08
1.30487e-08
1.14121e-08
1.06811e-08
9.58316e-09
8.45286e-09
7.38678e-09
6.45918e-09
5.95961e-09
5.95542e-09
5.81892e-09
5.32205e-09
4.46382e-09
3.51872e-09
2.44819e-09
1.85547e-09
1.15892e-09
2.07559e-10
4.01853e-07
4.46348e-07
1.11592e-07
9.18613e-08
4.28719e-08
3.29304e-08
2.17083e-08
1.75724e-08
1.31023e-08
1.20835e-08
1.10348e-08
1.1524e-08
1.09364e-08
1.0543e-08
9.54823e-09
9.16295e-09
8.37384e-09
7.56868e-09
6.70028e-09
6.04792e-09
5.74342e-09
5.69545e-09
5.4775e-09
5.02649e-09
4.49899e-09
3.89024e-09
3.23666e-09
2.57511e-09
2.58939e-09
1.41923e-09
3.51051e-07
1.11352e-07
7.91823e-08
6.05722e-08
4.05627e-08
3.16241e-08
2.26116e-08
1.81601e-08
1.41025e-08
1.25864e-08
1.14158e-08
1.13659e-08
1.0661e-08
1.03488e-08
9.48042e-09
9.06307e-09
8.29728e-09
7.54387e-09
6.72453e-09
6.14904e-09
5.99497e-09
5.9707e-09
5.83441e-09
5.48125e-09
4.99114e-09
4.47453e-09
3.96816e-09
3.65261e-09
4.37909e-09
3.40174e-09
1.28089e-07
9.32336e-08
6.18159e-08
4.82248e-08
3.28763e-08
2.62631e-08
2.03027e-08
1.68717e-08
1.41401e-08
1.25534e-08
1.13855e-08
1.09145e-08
1.0436e-08
1.01396e-08
9.29721e-09
8.72092e-09
7.88052e-09
7.15018e-09
6.43162e-09
5.96558e-09
5.76994e-09
5.74794e-09
5.76577e-09
5.5294e-09
5.02474e-09
4.47006e-09
4.08945e-09
4.3396e-09
5.3104e-09
4.56298e-09
8.86654e-08
4.5475e-08
4.22088e-08
3.34974e-08
2.8225e-08
2.38862e-08
1.99229e-08
1.74142e-08
1.49353e-08
1.35321e-08
1.20855e-08
1.12839e-08
1.07433e-08
1.03668e-08
9.46844e-09
8.73181e-09
7.89019e-09
7.22739e-09
6.75867e-09
6.59108e-09
6.36173e-09
6.29751e-09
6.2743e-09
6.11029e-09
5.7294e-09
5.25739e-09
5.03572e-09
5.49964e-09
6.60693e-09
6.28692e-09
5.81118e-08
3.83968e-08
3.58144e-08
2.86338e-08
2.50892e-08
2.06625e-08
1.82273e-08
1.5797e-08
1.41909e-08
1.29609e-08
1.18933e-08
1.09573e-08
1.03138e-08
1.00167e-08
9.12219e-09
8.1757e-09
7.28879e-09
6.60384e-09
6.41647e-09
6.49215e-09
6.2306e-09
6.05067e-09
5.93288e-09
5.8302e-09
5.57117e-09
5.40869e-09
5.40837e-09
6.08256e-09
7.22051e-09
7.15961e-09
4.09433e-08
2.81355e-08
2.71604e-08
2.30564e-08
2.12599e-08
1.8584e-08
1.67562e-08
1.51088e-08
1.36785e-08
1.27981e-08
1.19372e-08
1.11093e-08
1.06105e-08
1.05309e-08
9.55997e-09
8.28984e-09
7.20689e-09
6.44493e-09
6.29659e-09
6.37003e-09
6.11989e-09
5.97299e-09
5.95199e-09
5.95737e-09
5.94712e-09
6.06722e-09
6.35621e-09
7.15409e-09
8.30877e-09
8.62207e-09
3.59313e-08
2.59209e-08
2.49236e-08
2.12418e-08
1.98147e-08
1.69766e-08
1.55456e-08
1.36983e-08
1.25274e-08
1.16261e-08
1.11244e-08
1.06644e-08
1.0663e-08
1.08341e-08
9.88963e-09
8.35276e-09
7.15007e-09
6.22948e-09
5.89098e-09
5.6875e-09
5.37899e-09
5.28154e-09
5.39111e-09
5.6165e-09
5.95215e-09
6.42998e-09
6.98116e-09
7.84501e-09
8.94452e-09
9.45843e-09
2.85584e-08
2.16914e-08
2.07718e-08
1.84715e-08
1.72061e-08
1.52293e-08
1.38643e-08
1.24005e-08
1.12976e-08
1.05851e-08
1.04366e-08
1.06557e-08
1.11713e-08
1.13972e-08
1.05049e-08
8.97845e-09
7.55318e-09
6.31024e-09
5.66458e-09
5.21592e-09
4.91585e-09
4.97007e-09
5.30253e-09
5.79067e-09
6.4447e-09
7.13207e-09
7.90425e-09
8.7553e-09
9.70935e-09
1.04176e-08
2.73112e-08
2.10944e-08
2.02828e-08
1.81294e-08
1.6731e-08
1.45098e-08
1.29966e-08
1.12951e-08
1.00939e-08
9.37312e-09
9.55759e-09
1.02388e-08
1.08855e-08
1.07223e-08
1.00435e-08
8.93229e-09
7.45277e-09
6.09216e-09
5.18129e-09
4.56762e-09
4.28852e-09
4.50732e-09
5.05403e-09
5.71156e-09
6.46601e-09
7.34817e-09
8.34124e-09
9.15531e-09
1.00375e-08
1.0852e-08
2.38735e-08
1.8928e-08
1.80599e-08
1.64735e-08
1.51143e-08
1.34045e-08
1.2017e-08
1.04562e-08
9.31115e-09
8.86826e-09
9.35722e-09
1.01192e-08
1.0284e-08
9.40119e-09
8.71812e-09
8.0153e-09
6.87684e-09
5.80584e-09
4.92108e-09
4.28496e-09
4.20321e-09
4.6648e-09
5.4279e-09
6.21483e-09
7.01805e-09
8.01041e-09
9.07316e-09
9.73548e-09
1.05281e-08
1.14057e-08
2.36331e-08
1.88967e-08
1.79352e-08
1.64266e-08
1.52209e-08
1.37435e-08
1.23788e-08
1.05542e-08
9.08641e-09
8.40776e-09
8.63155e-09
8.94853e-09
8.32239e-09
7.02477e-09
6.40565e-09
5.91017e-09
5.05327e-09
4.67364e-09
4.29736e-09
3.83435e-09
4.04098e-09
4.82762e-09
5.83745e-09
6.86158e-09
7.79018e-09
8.75088e-09
9.66135e-09
1.01464e-08
1.08705e-08
1.18118e-08
2.14853e-08
1.77277e-08
1.69757e-08
1.60196e-08
1.50407e-08
1.38932e-08
1.26604e-08
1.08613e-08
9.27241e-09
8.01731e-09
7.62253e-09
7.20244e-09
6.25682e-09
5.47473e-09
5.09003e-09
4.7384e-09
4.08386e-09
3.57312e-09
3.66945e-09
3.39205e-09
3.8098e-09
5.1778e-09
6.44885e-09
7.50811e-09
8.45639e-09
9.36497e-09
1.01355e-08
1.06193e-08
1.14187e-08
1.26324e-08
2.0271e-08
1.6874e-08
1.62632e-08
1.55551e-08
1.46508e-08
1.35491e-08
1.23768e-08
1.09496e-08
9.63514e-09
7.7023e-09
6.06855e-09
4.5573e-09
3.71052e-09
3.39445e-09
3.36849e-09
3.37801e-09
2.76014e-09
2.11817e-09
2.07847e-09
2.50201e-09
3.62215e-09
5.43056e-09
6.93861e-09
8.01621e-09
8.88318e-09
9.7494e-09
1.05535e-08
1.11222e-08
1.20109e-08
1.3549e-08
1.89368e-08
1.58988e-08
1.52774e-08
1.46375e-08
1.38276e-08
1.28573e-08
1.1774e-08
1.0566e-08
9.42946e-09
7.41819e-09
5.24198e-09
3.40464e-09
2.41737e-09
2.58336e-09
3.10062e-09
2.90912e-09
2.24729e-09
1.64403e-09
1.80689e-09
2.62306e-09
4.04005e-09
5.86601e-09
7.45608e-09
8.62788e-09
9.49849e-09
1.03346e-08
1.11429e-08
1.17378e-08
1.25845e-08
1.43626e-08
1.82684e-08
1.53823e-08
1.47061e-08
1.40855e-08
1.33434e-08
1.2438e-08
1.13579e-08
9.99737e-09
8.53594e-09
6.62279e-09
4.74718e-09
3.17051e-09
2.17085e-09
2.35542e-09
3.33108e-09
2.9596e-09
2.13613e-09
1.84221e-09
2.39233e-09
3.35006e-09
4.57757e-09
6.18068e-09
7.53134e-09
8.65392e-09
9.51651e-09
1.03813e-08
1.12007e-08
1.18257e-08
1.25545e-08
1.42189e-08
1.67889e-08
1.43491e-08
1.36533e-08
1.3084e-08
1.23858e-08
1.15086e-08
1.05509e-08
9.36314e-09
7.77788e-09
5.72582e-09
3.74793e-09
2.63297e-09
2.31215e-09
2.78551e-09
3.65429e-09
3.40319e-09
2.80877e-09
2.76713e-09
3.60894e-09
4.57749e-09
5.42367e-09
6.65549e-09
7.72e-09
8.66145e-09
9.53727e-09
1.04739e-08
1.1332e-08
1.18915e-08
1.25063e-08
1.40573e-08
1.56475e-08
1.35902e-08
1.28814e-08
1.23042e-08
1.15836e-08
1.0638e-08
9.66504e-09
8.48263e-09
7.10085e-09
5.228e-09
3.75834e-09
3.33973e-09
2.93648e-09
3.24041e-09
3.97201e-09
3.74632e-09
3.61704e-09
3.98388e-09
4.94517e-09
5.5928e-09
5.6793e-09
6.64479e-09
7.504e-09
8.52199e-09
9.49621e-09
1.04547e-08
1.13565e-08
1.20532e-08
1.28039e-08
1.44143e-08
1.46494e-08
1.2962e-08
1.2212e-08
1.15489e-08
1.07518e-08
9.76507e-09
8.77303e-09
7.58985e-09
6.39923e-09
5.28187e-09
4.57675e-09
4.52522e-09
4.32749e-09
4.35965e-09
4.82149e-09
4.48438e-09
4.58721e-09
5.17155e-09
5.67004e-09
5.69497e-09
5.53861e-09
5.90513e-09
6.57701e-09
7.63059e-09
8.54554e-09
9.36008e-09
1.02556e-08
1.12923e-08
1.23817e-08
1.41179e-08
1.3696e-08
1.21283e-08
1.129e-08
1.04404e-08
9.5248e-09
8.51303e-09
7.65079e-09
6.69777e-09
5.7968e-09
5.06755e-09
4.87233e-09
5.06117e-09
5.4131e-09
5.87553e-09
6.47366e-09
6.30606e-09
6.43648e-09
6.6451e-09
6.23205e-09
5.65829e-09
5.17712e-09
5.27578e-09
5.77273e-09
6.66932e-09
7.49775e-09
8.30607e-09
9.22162e-09
1.03339e-08
1.14534e-08
1.3013e-08
1.25619e-08
1.1195e-08
1.04728e-08
9.53599e-09
8.60488e-09
7.75049e-09
7.0164e-09
6.21768e-09
5.46557e-09
5.00527e-09
4.96115e-09
5.10999e-09
5.53444e-09
6.4218e-09
7.54047e-09
7.95899e-09
8.10993e-09
7.54079e-09
6.63125e-09
5.75499e-09
5.04526e-09
5.00536e-09
5.42181e-09
6.23519e-09
6.94371e-09
7.75101e-09
8.58883e-09
9.59032e-09
1.0567e-08
1.15959e-08
1.1666e-08
1.06346e-08
1.00119e-08
9.04384e-09
8.15994e-09
7.43823e-09
6.8384e-09
6.23416e-09
5.67875e-09
5.39317e-09
5.12597e-09
4.86654e-09
5.14479e-09
6.11772e-09
7.41056e-09
8.35607e-09
8.46115e-09
7.36693e-09
6.31793e-09
5.76479e-09
5.3419e-09
5.35755e-09
5.60365e-09
6.1409e-09
6.60411e-09
7.24349e-09
7.90432e-09
8.86241e-09
9.85636e-09
1.05828e-08
1.05207e-08
9.79506e-09
9.01218e-09
8.08408e-09
7.4599e-09
6.91894e-09
6.51815e-09
6.16666e-09
5.87711e-09
5.79725e-09
5.45067e-09
4.89932e-09
4.86519e-09
5.70193e-09
6.8044e-09
7.73123e-09
7.74587e-09
6.81028e-09
6.11301e-09
6.04085e-09
5.84889e-09
5.74416e-09
5.71881e-09
5.95179e-09
6.13914e-09
6.57299e-09
7.0791e-09
8.00438e-09
9.00464e-09
9.40171e-09
9.46923e-09
8.92643e-09
7.96284e-09
7.20085e-09
6.82792e-09
6.54169e-09
6.41249e-09
6.33897e-09
6.24068e-09
6.17172e-09
5.70046e-09
5.14164e-09
4.91505e-09
5.40811e-09
6.20332e-09
6.873e-09
6.95266e-09
6.45253e-09
6.07766e-09
6.231e-09
6.23627e-09
6.2015e-09
6.06096e-09
6.07003e-09
6.01814e-09
6.15805e-09
6.40645e-09
7.2712e-09
8.28769e-09
8.49923e-09
7.79569e-09
7.66141e-09
6.70526e-09
6.18499e-09
6.00452e-09
5.90006e-09
6.00167e-09
6.16507e-09
6.30386e-09
6.23468e-09
5.67147e-09
5.22988e-09
5.27443e-09
5.57354e-09
5.99291e-09
6.28863e-09
6.56776e-09
6.45905e-09
6.0566e-09
5.94182e-09
6.08368e-09
6.21086e-09
6.07528e-09
6.01502e-09
5.79053e-09
5.65972e-09
5.58249e-09
6.35825e-09
7.38432e-09
7.27359e-09
6.62079e-09
6.70168e-09
5.71415e-09
5.38438e-09
5.52057e-09
5.7016e-09
5.90879e-09
6.20594e-09
6.46375e-09
6.52119e-09
5.99886e-09
5.6433e-09
5.86147e-09
6.12101e-09
6.18572e-09
6.14199e-09
6.52337e-09
6.6752e-09
6.20926e-09
5.83571e-09
5.83866e-09
6.07939e-09
6.08643e-09
6.0479e-09
5.7378e-09
5.30187e-09
5.02e-09
5.65363e-09
6.70958e-09
6.40888e-09
4.93653e-09
5.41909e-09
4.33505e-09
4.1801e-09
4.61337e-09
4.92502e-09
5.26697e-09
5.66409e-09
5.99601e-09
6.22707e-09
5.89429e-09
5.82842e-09
6.1413e-09
6.32089e-09
6.10406e-09
5.83694e-09
6.21254e-09
6.41165e-09
6.1589e-09
5.70385e-09
5.39223e-09
5.36383e-09
5.31883e-09
5.28827e-09
4.98207e-09
4.57911e-09
4.20389e-09
4.62299e-09
5.57904e-09
4.89939e-09
3.64409e-09
4.47098e-09
3.48618e-09
3.82006e-09
4.26504e-09
4.68412e-09
5.16347e-09
5.63317e-09
6.03317e-09
6.30694e-09
6.14598e-09
6.28796e-09
6.58985e-09
6.64782e-09
6.38286e-09
6.05201e-09
6.21905e-09
6.39966e-09
6.37504e-09
6.09002e-09
5.58327e-09
5.3057e-09
5.07821e-09
5.0413e-09
4.83883e-09
4.55662e-09
4.06936e-09
3.80367e-09
4.5801e-09
3.69736e-09
1.67416e-09
2.88626e-09
2.65238e-09
3.24009e-09
3.74029e-09
4.34507e-09
4.91862e-09
5.5316e-09
6.07728e-09
6.5456e-09
6.63104e-09
6.75538e-09
6.901e-09
6.98009e-09
6.95578e-09
6.65688e-09
6.67643e-09
6.76788e-09
6.74092e-09
6.36039e-09
5.71907e-09
5.28219e-09
4.93616e-09
4.76517e-09
4.42099e-09
3.91965e-09
3.28265e-09
2.5516e-09
2.72782e-09
1.65991e-09
7.81666e-10
1.69262e-09
2.49059e-09
3.09043e-09
3.90493e-09
4.63023e-09
5.35146e-09
6.11473e-09
6.86497e-09
7.39069e-09
7.60992e-09
7.71099e-09
7.72393e-09
7.92012e-09
7.85176e-09
7.4733e-09
7.56101e-09
7.81356e-09
7.80249e-09
7.17245e-09
6.3033e-09
5.71753e-09
5.19581e-09
4.85076e-09
4.18166e-09
3.35059e-09
2.25511e-09
1.48829e-09
9.1344e-10
2.59416e-10
4.00687e-07
4.55351e-07
1.1301e-07
9.33834e-08
4.28406e-08
3.30902e-08
2.17374e-08
1.77684e-08
1.27902e-08
1.17244e-08
9.86602e-09
1.04984e-08
9.90079e-09
1.00474e-08
9.14138e-09
8.87237e-09
8.08207e-09
7.14097e-09
6.57371e-09
5.81491e-09
5.35027e-09
5.12047e-09
5.01153e-09
4.75727e-09
4.3844e-09
3.76135e-09
3.08267e-09
2.40558e-09
1.89804e-09
1.06281e-09
4.52629e-07
1.19116e-07
7.55686e-08
4.2938e-08
2.11207e-08
1.59067e-08
1.02212e-08
7.4304e-09
5.6853e-09
4.75816e-09
4.26866e-09
3.33932e-09
2.39745e-09
2.69619e-09
2.78069e-09
2.7285e-09
2.6786e-09
2.60634e-09
2.34394e-09
1.92197e-09
2.02717e-09
2.41518e-09
2.88545e-09
3.15094e-09
3.13376e-09
2.79323e-09
2.48808e-09
2.15036e-09
3.14761e-09
2.64612e-09
1.11241e-07
7.59731e-08
3.81636e-08
3.39699e-08
1.83278e-08
1.53922e-08
1.04224e-08
7.86126e-09
6.03839e-09
5.40252e-09
5.18432e-09
4.90179e-09
3.47762e-09
2.80779e-09
2.48568e-09
2.27296e-09
2.0674e-09
1.69618e-09
1.51203e-09
1.68477e-09
2.13933e-09
3.12129e-09
3.87753e-09
3.9283e-09
3.98893e-09
3.79938e-09
3.15997e-09
2.86737e-09
3.57305e-09
4.45662e-09
9.33228e-08
4.14229e-08
3.27323e-08
2.30002e-08
1.33084e-08
1.11541e-08
7.23279e-09
6.25186e-09
5.07727e-09
4.89627e-09
4.60464e-09
4.73877e-09
3.39004e-09
2.77226e-09
2.35168e-09
2.28168e-09
2.47888e-09
1.86973e-09
1.89364e-09
2.4799e-09
3.29191e-09
3.77986e-09
3.62896e-09
3.45338e-09
3.89845e-09
3.9298e-09
3.41108e-09
3.30437e-09
3.29055e-09
5.40439e-09
4.49883e-08
1.95851e-08
1.65197e-08
1.33932e-08
9.16575e-09
8.19619e-09
5.76113e-09
5.15866e-09
4.06457e-09
3.81538e-09
3.28291e-09
3.37398e-09
2.30769e-09
2.62095e-09
2.51212e-09
2.53739e-09
2.68489e-09
1.94817e-09
2.09764e-09
2.88241e-09
3.39264e-09
2.80522e-09
2.02563e-09
1.9597e-09
2.58027e-09
2.98097e-09
3.21315e-09
3.48775e-09
3.14448e-09
6.74927e-09
3.79042e-08
1.39935e-08
1.37143e-08
1.10406e-08
8.01985e-09
6.89949e-09
4.73443e-09
4.2135e-09
2.99646e-09
2.98413e-09
2.71986e-09
2.79991e-09
2.18493e-09
2.63291e-09
2.66759e-09
2.72232e-09
2.80441e-09
2.23656e-09
2.53675e-09
2.78455e-09
2.62662e-09
1.68668e-09
1.0918e-09
1.10115e-09
1.49143e-09
2.08184e-09
2.8033e-09
3.33609e-09
2.88337e-09
7.35909e-09
2.80226e-08
8.44444e-09
8.87461e-09
7.08515e-09
5.81223e-09
5.12347e-09
3.91652e-09
3.65159e-09
2.76258e-09
2.83395e-09
2.64126e-09
2.88107e-09
2.31623e-09
2.87685e-09
3.10879e-09
2.97711e-09
2.96129e-09
2.6849e-09
3.1172e-09
2.64231e-09
2.17378e-09
1.50401e-09
1.2487e-09
1.03035e-09
1.24509e-09
2.04234e-09
2.83189e-09
3.28174e-09
2.91962e-09
8.40783e-09
2.5868e-08
5.45936e-09
6.75748e-09
6.22267e-09
5.34317e-09
4.89471e-09
3.95728e-09
3.73523e-09
2.90811e-09
2.87563e-09
2.60375e-09
2.61789e-09
1.8386e-09
2.56459e-09
3.02061e-09
2.69904e-09
2.53497e-09
2.56477e-09
2.94526e-09
2.37193e-09
1.8376e-09
1.40169e-09
1.22435e-09
1.02673e-09
1.37416e-09
2.19032e-09
2.79414e-09
3.12177e-09
2.82632e-09
9.00154e-09
2.17924e-08
4.14699e-09
4.75441e-09
4.30821e-09
4.09835e-09
3.92027e-09
3.4343e-09
3.41085e-09
2.94529e-09
2.95762e-09
2.60809e-09
2.11127e-09
1.32241e-09
3.18571e-09
3.91412e-09
3.35796e-09
2.57083e-09
2.03031e-09
2.57361e-09
2.19815e-09
1.86176e-09
1.48337e-09
1.36869e-09
1.36275e-09
1.77804e-09
2.35739e-09
2.65505e-09
2.77973e-09
2.63512e-09
9.80069e-09
2.10301e-08
2.785e-09
3.51848e-09
3.47716e-09
3.58012e-09
3.70667e-09
3.37996e-09
3.43337e-09
3.13808e-09
2.96401e-09
2.46952e-09
1.73213e-09
2.29612e-09
4.34831e-09
5.01229e-09
4.35689e-09
3.26192e-09
1.66314e-09
1.83939e-09
1.90557e-09
1.68779e-09
1.52834e-09
1.52155e-09
1.64117e-09
1.86518e-09
2.13473e-09
2.17178e-09
2.11351e-09
2.21782e-09
1.0235e-08
1.90051e-08
2.44076e-09
2.56106e-09
2.27027e-09
2.27153e-09
2.54013e-09
2.68643e-09
3.12419e-09
3.17455e-09
3.01101e-09
2.65045e-09
2.69313e-09
4.00255e-09
5.58381e-09
6.12215e-09
5.81586e-09
5.01246e-09
2.77271e-09
1.92352e-09
1.78203e-09
1.93558e-09
1.9779e-09
2.0442e-09
2.09088e-09
2.14186e-09
2.14369e-09
1.93864e-09
1.75713e-09
1.92919e-09
1.06087e-08
1.89013e-08
1.96901e-09
1.71199e-09
1.52952e-09
1.5368e-09
1.92583e-09
2.33668e-09
2.93942e-09
3.38511e-09
3.39887e-09
3.05924e-09
3.59306e-09
4.51049e-09
5.01506e-09
5.21956e-09
5.16583e-09
4.54287e-09
3.24717e-09
2.2184e-09
1.84765e-09
2.18853e-09
2.35574e-09
2.35396e-09
2.27899e-09
2.24197e-09
2.17364e-09
1.85062e-09
1.75808e-09
1.76408e-09
1.08751e-08
1.7508e-08
2.05701e-09
1.59404e-09
1.35031e-09
1.23601e-09
1.30042e-09
1.65148e-09
2.24279e-09
2.93862e-09
3.13463e-09
3.07358e-09
4.51378e-09
4.86204e-09
4.85217e-09
4.76215e-09
4.50814e-09
4.18677e-09
3.41938e-09
2.99013e-09
1.83032e-09
2.21415e-09
2.34675e-09
2.17255e-09
1.90436e-09
1.76473e-09
1.75003e-09
1.5635e-09
1.68937e-09
1.80517e-09
1.15166e-08
1.67929e-08
1.91244e-09
1.76828e-09
1.71531e-09
1.68976e-09
1.58828e-09
1.72704e-09
2.06826e-09
2.77153e-09
3.01744e-09
3.55634e-09
4.12596e-09
3.91205e-09
3.75999e-09
3.38153e-09
3.09328e-09
2.50628e-09
2.33854e-09
2.30422e-09
1.88465e-09
1.82697e-09
2.20278e-09
1.91219e-09
1.55726e-09
1.41088e-09
1.49167e-09
1.41927e-09
1.59462e-09
1.8727e-09
1.21599e-08
1.58413e-08
1.96493e-09
1.76312e-09
1.71998e-09
1.70947e-09
1.74162e-09
1.9113e-09
2.25002e-09
2.90607e-09
3.50936e-09
3.78059e-09
3.43628e-09
2.99508e-09
2.65629e-09
2.92261e-09
2.56309e-09
2.03519e-09
2.08091e-09
2.24159e-09
2.55421e-09
2.77069e-09
2.67541e-09
2.00313e-09
1.44825e-09
1.25545e-09
1.3336e-09
1.28371e-09
1.44324e-09
1.86644e-09
1.2662e-08
1.54097e-08
2.16333e-09
1.88349e-09
1.78688e-09
1.84883e-09
1.97825e-09
2.16399e-09
2.45197e-09
3.13461e-09
3.48573e-09
3.23816e-09
2.45514e-09
2.14135e-09
2.10405e-09
2.63657e-09
2.63362e-09
2.09155e-09
2.27888e-09
2.54282e-09
3.06783e-09
3.06915e-09
2.80437e-09
1.93716e-09
1.25692e-09
9.9791e-10
1.16658e-09
1.18598e-09
1.2793e-09
1.57923e-09
1.25336e-08
1.44866e-08
2.16736e-09
1.99767e-09
1.87234e-09
1.98698e-09
2.1093e-09
2.22169e-09
2.52911e-09
3.05963e-09
2.91334e-09
2.84283e-09
2.74031e-09
2.59963e-09
2.62392e-09
3.14665e-09
3.11791e-09
2.74164e-09
2.8099e-09
2.89341e-09
2.73327e-09
2.45716e-09
2.87911e-09
2.02562e-09
1.24661e-09
9.95632e-10
1.29167e-09
1.44459e-09
1.43274e-09
1.54708e-09
1.24721e-08
1.373e-08
2.16228e-09
2.18557e-09
1.99485e-09
2.13471e-09
2.24693e-09
2.41686e-09
2.61826e-09
2.91181e-09
2.58531e-09
2.41882e-09
2.68933e-09
3.05192e-09
3.28985e-09
3.75842e-09
3.7844e-09
3.80455e-09
3.57902e-09
2.8704e-09
1.85221e-09
2.6186e-09
3.29052e-09
2.50513e-09
1.9601e-09
1.64725e-09
1.7006e-09
1.92194e-09
1.91416e-09
1.97487e-09
1.26003e-08
1.2905e-08
2.36744e-09
2.48315e-09
2.43736e-09
2.70163e-09
2.7851e-09
2.84506e-09
2.86382e-09
3.01732e-09
2.76017e-09
2.73289e-09
2.20954e-09
2.815e-09
3.5084e-09
4.25546e-09
4.21218e-09
4.0827e-09
3.47765e-09
2.17113e-09
1.62315e-09
2.75348e-09
3.42245e-09
2.88797e-09
2.45754e-09
2.11911e-09
2.11022e-09
2.33605e-09
2.39458e-09
2.39243e-09
1.23404e-08
1.2202e-08
2.49692e-09
2.40029e-09
2.60425e-09
2.82567e-09
2.57908e-09
2.39467e-09
2.23043e-09
2.38498e-09
2.13857e-09
2.26212e-09
1.32763e-09
1.89431e-09
3.40719e-09
4.55039e-09
4.74955e-09
4.50846e-09
3.0163e-09
1.41503e-09
1.74064e-09
2.23917e-09
2.7515e-09
2.42229e-09
2.24878e-09
2.12046e-09
2.35153e-09
2.49914e-09
2.34675e-09
2.42839e-09
1.16355e-08
1.15069e-08
2.76663e-09
2.49283e-09
2.91271e-09
3.03666e-09
2.36251e-09
1.96773e-09
1.77436e-09
1.95076e-09
1.86798e-09
2.17717e-09
1.41221e-09
8.51901e-10
1.82009e-09
3.25565e-09
3.99321e-09
3.75136e-09
1.7538e-09
1.2549e-09
2.22051e-09
2.13763e-09
2.29714e-09
1.99233e-09
2.03365e-09
2.23279e-09
2.80096e-09
2.85139e-09
2.60604e-09
2.46485e-09
1.05269e-08
1.07343e-08
2.89902e-09
2.9743e-09
3.35631e-09
3.03968e-09
2.16753e-09
1.68327e-09
1.3542e-09
1.52968e-09
1.62301e-09
2.12841e-09
2.05417e-09
1.6569e-09
1.25145e-09
2.01194e-09
2.55831e-09
2.20467e-09
1.18847e-09
1.59165e-09
2.13706e-09
1.77775e-09
1.79464e-09
1.48645e-09
1.61877e-09
1.94561e-09
2.75202e-09
3.10207e-09
3.0214e-09
2.54823e-09
9.73136e-09
9.85745e-09
2.90511e-09
3.45933e-09
3.41139e-09
2.71771e-09
1.84353e-09
1.40261e-09
1.0559e-09
1.36603e-09
1.54423e-09
2.17032e-09
2.45429e-09
2.43456e-09
2.42057e-09
2.58383e-09
2.44507e-09
1.51368e-09
1.76177e-09
2.28041e-09
2.34895e-09
1.62253e-09
1.52458e-09
1.21252e-09
1.34071e-09
1.56355e-09
2.4917e-09
3.14813e-09
3.27189e-09
2.71001e-09
8.93682e-09
9.10491e-09
2.90601e-09
3.50245e-09
2.88104e-09
2.1604e-09
1.46403e-09
1.13451e-09
7.71491e-10
1.16134e-09
1.50448e-09
2.25237e-09
2.33786e-09
2.45069e-09
3.00828e-09
3.08703e-09
2.40822e-09
1.54498e-09
2.34546e-09
2.72208e-09
2.8653e-09
1.91677e-09
1.34768e-09
9.6341e-10
1.11472e-09
1.26212e-09
2.12197e-09
3.0184e-09
3.40554e-09
2.79033e-09
8.27466e-09
7.83914e-09
2.97569e-09
3.42002e-09
2.45035e-09
1.75682e-09
1.26876e-09
1.3772e-09
1.20035e-09
1.40699e-09
1.74739e-09
2.46217e-09
2.2123e-09
2.35346e-09
3.1506e-09
3.16273e-09
2.31373e-09
1.94015e-09
2.53732e-09
2.86859e-09
3.4959e-09
2.84924e-09
1.89876e-09
1.18635e-09
1.4013e-09
1.64461e-09
2.4228e-09
3.14193e-09
3.71455e-09
3.02881e-09
7.41032e-09
6.93231e-09
2.93928e-09
3.18139e-09
2.19303e-09
1.73206e-09
1.58548e-09
1.88901e-09
1.93609e-09
2.23056e-09
2.30844e-09
2.50309e-09
1.86669e-09
2.21016e-09
2.92729e-09
2.87722e-09
2.20405e-09
2.00496e-09
2.32484e-09
2.64841e-09
3.51716e-09
3.44411e-09
3.05604e-09
2.31745e-09
2.41048e-09
2.79405e-09
3.3518e-09
3.36951e-09
3.81102e-09
3.29909e-09
6.73239e-09
5.75166e-09
3.11373e-09
3.12864e-09
2.40368e-09
2.56385e-09
2.67147e-09
2.93516e-09
3.06975e-09
3.5823e-09
3.62812e-09
3.23309e-09
1.683e-09
1.91188e-09
2.59422e-09
3.02002e-09
2.56579e-09
2.48558e-09
2.92043e-09
3.115e-09
3.83201e-09
3.85882e-09
4.19573e-09
4.12717e-09
4.33958e-09
4.50907e-09
4.46859e-09
3.63239e-09
3.6748e-09
3.59491e-09
5.57476e-09
4.88599e-09
3.5086e-09
3.03912e-09
2.86441e-09
3.07172e-09
2.95589e-09
3.04866e-09
3.06141e-09
3.58641e-09
3.75129e-09
3.46318e-09
1.64776e-09
1.4209e-09
2.21834e-09
2.68972e-09
2.2369e-09
2.04068e-09
2.66783e-09
2.74631e-09
2.9973e-09
2.76424e-09
3.32108e-09
3.76814e-09
4.45408e-09
4.44253e-09
4.1076e-09
3.11482e-09
2.86984e-09
3.64313e-09
4.60087e-09
3.25911e-09
3.5522e-09
2.60223e-09
2.90997e-09
2.82504e-09
2.73331e-09
2.87672e-09
2.98791e-09
3.44664e-09
3.72966e-09
3.68463e-09
2.7827e-09
2.67373e-09
2.40221e-09
2.14179e-09
1.58503e-09
1.58076e-09
2.05957e-09
2.06234e-09
2.22054e-09
2.02272e-09
2.51789e-09
2.71452e-09
3.24912e-09
3.23524e-09
2.92919e-09
2.46468e-09
2.08426e-09
3.09699e-09
2.75401e-09
1.9051e-09
2.65664e-09
2.98003e-09
3.49824e-09
3.97828e-09
4.49254e-09
5.1457e-09
5.84129e-09
6.69462e-09
7.29289e-09
7.47769e-09
7.15817e-09
6.86576e-09
6.70772e-09
6.627e-09
6.33154e-09
6.38904e-09
6.48596e-09
6.50382e-09
6.34921e-09
5.67224e-09
5.37973e-09
4.85053e-09
4.70418e-09
4.24315e-09
3.63839e-09
2.84022e-09
2.05177e-09
1.64752e-09
1.0844e-09
3.53641e-07
1.13197e-07
7.86688e-08
5.95726e-08
3.84431e-08
3.09933e-08
2.14621e-08
1.73452e-08
1.19607e-08
1.06611e-08
8.62685e-09
8.92459e-09
8.5194e-09
7.28995e-09
6.85795e-09
6.42208e-09
5.87861e-09
6.04542e-09
5.22275e-09
5.45916e-09
4.32549e-09
4.62445e-09
4.68912e-09
5.21357e-09
5.06228e-09
4.50069e-09
3.74432e-09
2.80933e-09
2.05118e-09
1.63951e-09
1.11586e-07
7.7144e-08
4.0118e-08
3.51369e-08
1.77122e-08
1.40978e-08
9.44777e-09
7.44488e-09
6.32419e-09
5.27417e-09
3.94283e-09
2.41499e-09
2.28488e-09
2.54518e-09
2.91759e-09
2.43871e-09
2.26817e-09
2.40472e-09
2.20486e-09
1.77284e-09
1.01286e-09
1.34578e-09
2.1124e-09
2.55796e-09
2.40586e-09
2.03494e-09
1.85548e-09
1.88301e-09
2.29999e-09
2.38332e-09
7.78146e-08
3.99077e-08
2.88742e-08
2.84062e-08
1.74036e-08
1.42473e-08
9.56906e-09
7.72285e-09
6.84535e-09
6.62572e-09
5.57209e-09
4.06909e-09
3.21665e-09
2.94707e-09
3.05277e-09
2.79984e-09
3.02248e-09
2.88106e-09
2.62948e-09
2.51507e-09
2.20003e-09
2.55798e-09
3.70505e-09
4.17676e-09
3.21392e-09
2.33104e-09
2.5633e-09
3.32629e-09
2.97928e-09
3.79916e-09
6.11118e-08
3.38915e-08
2.75444e-08
2.18976e-08
1.38772e-08
1.15117e-08
7.68998e-09
6.31732e-09
5.22231e-09
5.59579e-09
5.62619e-09
5.18066e-09
4.37317e-09
3.60899e-09
3.12006e-09
2.87364e-09
2.85345e-09
2.60901e-09
2.53673e-09
2.33514e-09
1.70707e-09
3.30956e-09
5.01709e-09
5.08991e-09
4.10207e-09
2.85131e-09
2.81377e-09
3.44548e-09
3.2e-09
4.70189e-09
4.12116e-08
1.75256e-08
1.61268e-08
1.31217e-08
9.72589e-09
8.60851e-09
6.37071e-09
5.41106e-09
4.37222e-09
4.94039e-09
5.94967e-09
5.73827e-09
4.13318e-09
3.25007e-09
2.79573e-09
2.58009e-09
2.42457e-09
2.43537e-09
2.39566e-09
2.46805e-09
3.47939e-09
4.68075e-09
5.00396e-09
4.91254e-09
4.52996e-09
3.47967e-09
3.36197e-09
2.99039e-09
3.37121e-09
5.95739e-09
3.54301e-08
1.386e-08
1.369e-08
1.07963e-08
8.3167e-09
6.8954e-09
5.02699e-09
3.96283e-09
3.05374e-09
3.44174e-09
4.21461e-09
3.67819e-09
2.24113e-09
1.86895e-09
1.78246e-09
1.88127e-09
2.02088e-09
2.27445e-09
1.67016e-09
2.43937e-09
3.01203e-09
2.89349e-09
2.26378e-09
2.59155e-09
3.207e-09
3.34283e-09
3.53419e-09
2.39407e-09
3.29659e-09
6.54814e-09
2.72973e-08
8.5595e-09
8.84858e-09
7.01977e-09
5.87086e-09
5.01912e-09
3.74065e-09
3.21731e-09
2.77754e-09
2.91844e-09
3.39842e-09
3.01959e-09
1.96468e-09
1.9046e-09
2.17894e-09
2.14094e-09
1.96619e-09
1.95103e-09
1.86742e-09
2.49623e-09
1.97056e-09
1.446e-09
7.70359e-10
1.1851e-09
2.44127e-09
3.25229e-09
3.2921e-09
2.01864e-09
3.30228e-09
7.5137e-09
2.5068e-08
6.05269e-09
6.72601e-09
6.30377e-09
5.62409e-09
4.92946e-09
3.87857e-09
3.46848e-09
2.94e-09
2.70717e-09
2.98696e-09
2.63683e-09
1.79543e-09
2.03069e-09
1.98019e-09
1.56875e-09
1.14256e-09
1.58723e-09
2.10298e-09
2.3279e-09
1.33004e-09
1.13342e-09
7.30528e-10
1.00488e-09
2.18368e-09
2.83998e-09
2.76166e-09
1.84808e-09
3.11621e-09
8.09007e-09
2.09452e-08
4.57504e-09
4.44373e-09
3.81024e-09
3.78706e-09
3.83077e-09
3.37745e-09
3.17908e-09
2.87365e-09
2.61637e-09
2.76885e-09
2.06433e-09
1.91764e-09
2.57089e-09
2.13371e-09
1.2634e-09
1.08698e-09
1.11794e-09
1.72392e-09
2.15938e-09
1.42223e-09
1.36543e-09
1.08018e-09
1.40798e-09
2.10319e-09
2.40181e-09
2.436e-09
1.8437e-09
2.85698e-09
8.9569e-09
1.98275e-08
3.63253e-09
3.621e-09
3.03465e-09
2.92428e-09
3.28184e-09
3.30343e-09
3.17117e-09
2.88891e-09
2.47198e-09
2.40626e-09
1.89844e-09
2.59065e-09
3.12076e-09
3.33616e-09
2.50038e-09
2.28944e-09
2.05452e-09
1.28383e-09
1.6191e-09
1.19428e-09
1.26485e-09
1.2715e-09
1.65272e-09
1.80694e-09
1.79989e-09
1.75445e-09
1.2999e-09
2.39682e-09
9.57908e-09
1.76726e-08
2.98505e-09
2.76347e-09
2.44688e-09
2.01975e-09
1.965e-09
2.48589e-09
2.98008e-09
3.03626e-09
2.60979e-09
3.06261e-09
3.58191e-09
4.56178e-09
5.09879e-09
5.58204e-09
5.08524e-09
4.58083e-09
3.75067e-09
2.68441e-09
2.19399e-09
1.63232e-09
1.67542e-09
1.72836e-09
1.82001e-09
1.5762e-09
1.43664e-09
1.33241e-09
1.01154e-09
2.00453e-09
1.00517e-08
1.76006e-08
2.44866e-09
2.01085e-09
1.92004e-09
1.60803e-09
1.4213e-09
2.12734e-09
2.82219e-09
2.94965e-09
3.04738e-09
4.07109e-09
4.22702e-09
5.37347e-09
5.85045e-09
6.30854e-09
6.285e-09
5.37289e-09
4.25529e-09
3.22506e-09
2.86215e-09
2.06881e-09
1.75052e-09
1.57479e-09
1.56238e-09
1.38683e-09
1.34871e-09
1.32111e-09
1.05646e-09
1.55647e-09
1.03198e-08
1.64507e-08
1.99628e-09
1.47127e-09
1.35612e-09
1.22238e-09
1.10407e-09
1.67232e-09
2.52335e-09
2.39683e-09
3.2555e-09
4.58058e-09
5.19298e-09
6.54213e-09
6.94526e-09
7.12391e-09
6.90129e-09
6.32105e-09
5.29927e-09
4.1951e-09
3.38921e-09
2.53062e-09
1.45601e-09
1.28271e-09
1.26501e-09
1.09603e-09
1.08028e-09
1.10505e-09
8.51785e-10
1.53359e-09
1.09158e-08
1.59663e-08
1.95615e-09
1.44799e-09
1.36373e-09
1.39206e-09
1.42566e-09
1.83324e-09
2.52381e-09
2.47195e-09
3.01571e-09
4.14188e-09
5.39361e-09
6.15489e-09
6.70603e-09
6.71293e-09
6.50664e-09
5.86194e-09
5.1229e-09
4.58441e-09
3.07943e-09
2.42504e-09
1.62531e-09
1.08863e-09
9.99227e-10
1.00893e-09
9.83708e-10
8.10561e-10
4.5311e-10
1.58654e-09
1.14167e-08
1.49309e-08
2.17069e-09
1.4284e-09
1.3964e-09
1.41145e-09
1.55004e-09
1.75814e-09
1.97703e-09
2.54048e-09
3.66013e-09
4.48189e-09
5.01013e-09
4.76503e-09
5.38202e-09
6.09033e-09
6.12329e-09
5.33276e-09
4.72357e-09
4.77642e-09
4.06004e-09
3.45895e-09
2.31753e-09
1.48349e-09
1.04189e-09
1.02188e-09
8.88739e-10
6.50808e-10
4.28183e-10
1.60327e-09
1.18186e-08
1.44369e-08
2.34372e-09
1.25464e-09
1.28461e-09
1.413e-09
1.65835e-09
1.78695e-09
2.03505e-09
2.82667e-09
3.9068e-09
4.30399e-09
4.54139e-09
4.08901e-09
4.817e-09
5.77429e-09
5.882e-09
5.17384e-09
4.60251e-09
4.95172e-09
4.34572e-09
3.58295e-09
2.49202e-09
1.48092e-09
1.03822e-09
1.04096e-09
9.13595e-10
8.02907e-10
5.61817e-10
1.42404e-09
1.17237e-08
1.36566e-08
2.37511e-09
1.21683e-09
1.40903e-09
1.45427e-09
1.73205e-09
1.75947e-09
1.91928e-09
2.39988e-09
3.21097e-09
3.66087e-09
4.83381e-09
4.89716e-09
5.64387e-09
6.26123e-09
6.36828e-09
6.12185e-09
5.13506e-09
4.96375e-09
3.3583e-09
3.18813e-09
2.26047e-09
1.36042e-09
1.0631e-09
9.82252e-10
8.57113e-10
1.1589e-09
1.01083e-09
1.39399e-09
1.17375e-08
1.30654e-08
2.36671e-09
1.5489e-09
1.66159e-09
1.42069e-09
1.60939e-09
1.80495e-09
1.95529e-09
2.09991e-09
3.15896e-09
3.81746e-09
4.35326e-09
4.97815e-09
5.8004e-09
6.48266e-09
6.66762e-09
6.19979e-09
5.06195e-09
4.28773e-09
3.18299e-09
3.20613e-09
1.96246e-09
1.7031e-09
1.40366e-09
9.31423e-10
8.92497e-10
1.71163e-09
1.67869e-09
1.91958e-09
1.16619e-08
1.21098e-08
2.49109e-09
1.75634e-09
1.74222e-09
1.79331e-09
2.1667e-09
2.35424e-09
2.4129e-09
2.40333e-09
2.88146e-09
3.31856e-09
3.5996e-09
3.93521e-09
4.96888e-09
6.11713e-09
6.48279e-09
5.55283e-09
4.44401e-09
3.70105e-09
3.20084e-09
2.95684e-09
2.5221e-09
2.11784e-09
1.6954e-09
1.28851e-09
1.21877e-09
1.82232e-09
1.72484e-09
2.39635e-09
1.12205e-08
1.12445e-08
2.63297e-09
1.71193e-09
1.5439e-09
2.142e-09
2.53503e-09
2.25876e-09
2.10001e-09
1.93691e-09
2.07463e-09
2.16297e-09
2.70395e-09
2.89559e-09
3.79918e-09
4.99418e-09
5.88651e-09
5.19304e-09
4.12236e-09
3.1483e-09
2.49548e-09
2.39141e-09
2.26851e-09
2.11163e-09
1.9383e-09
2.00827e-09
1.76726e-09
1.63354e-09
1.38909e-09
2.5951e-09
1.04276e-08
1.05206e-08
2.9803e-09
1.96339e-09
1.71167e-09
2.78181e-09
3.06551e-09
2.20636e-09
1.71672e-09
1.54503e-09
1.60766e-09
1.55639e-09
1.601e-09
1.68115e-09
2.56219e-09
2.80643e-09
3.69107e-09
3.48821e-09
3.06052e-09
2.14631e-09
1.86137e-09
2.07885e-09
1.88996e-09
1.8557e-09
2.1677e-09
2.846e-09
2.60392e-09
1.74173e-09
1.19919e-09
2.52757e-09
9.30136e-09
9.70735e-09
2.98877e-09
1.90792e-09
2.5244e-09
3.42595e-09
3.01999e-09
1.98075e-09
1.53388e-09
1.37625e-09
1.40605e-09
1.70412e-09
2.08995e-09
1.27962e-09
1.66188e-09
2.35045e-09
2.43659e-09
2.32876e-09
2.2986e-09
1.88072e-09
1.62795e-09
1.73872e-09