/*--------------------------------*- C++ -*----------------------------------*\
| =========                 |                                                 |
| \\      /  F ield         | OpenFOAM: The Open Source CFD Toolbox           |
|  \\    /   O peration     | Version:  v1906                                 |
|   \\  /    A nd           | Web:      www.OpenFOAM.com                      |
|    \\/     M anipulation  |                                                 |
\*---------------------------------------------------------------------------*/
FoamFile
{
    version     2.0;
    format      ascii;
    class       volScalarField;
    location    "81";
    object      alphat;
}
// * * * * * * * * * * * * * * * * * * * * * * * * * * * * * * * * * * * * * //

dimensions      [1 -1 -1 0 0 0 0];


internalField   nonuniform List<scalar> 
78750
(
0.00121054
0.00265424
0.00183062
0.000609478
0.000167671
2.66935e-05
2.58802e-05
2.03344e-05
3.27157e-05
2.34632e-05
3.53727e-05
3.32257e-05
3.77875e-05
3.97396e-05
4.28258e-05
4.50698e-05
4.73699e-05
4.95209e-05
5.13898e-05
5.29745e-05
5.40655e-05
5.46207e-05
5.48186e-05
5.48294e-05
5.47961e-05
5.48133e-05
5.47957e-05
5.43257e-05
5.27013e-05
4.94244e-05
4.50029e-05
3.96785e-05
2.7621e-05
1.11191e-05
4.5211e-07
0.000144673
0.000241328
0.000271893
6.00714e-05
1.97803e-05
2.71973e-05
2.85435e-05
4.06551e-05
4.53639e-05
5.81028e-05
6.72588e-05
7.84686e-05
8.73457e-05
9.43701e-05
9.9049e-05
0.000101815
0.000102963
0.000102799
0.000101748
0.000100157
9.83274e-05
9.64722e-05
9.50944e-05
9.5004e-05
9.70203e-05
0.000101731
0.000108901
0.000116917
0.000122753
0.000122546
0.000114071
9.31716e-05
2.58864e-05
6.20542e-06
1.22553e-06
6.77659e-06
1.37881e-05
6.83788e-05
6.73377e-05
6.691e-05
0.000130684
8.51841e-05
6.86994e-05
7.07041e-05
7.55814e-05
8.61495e-05
0.000101062
0.000116257
0.000128044
0.000136413
0.000142261
0.000145586
0.000146124
0.000143966
0.000139539
0.000133634
0.000127119
0.000120734
0.00011512
0.000110866
0.000108447
0.000108092
0.000109182
0.000109504
0.000105283
9.44535e-05
7.3292e-05
1.36419e-05
5.16047e-06
2.43626e-06
4.18925e-06
2.1e-05
4.53985e-05
0.00010215
0.000102862
9.07191e-05
8.69006e-05
8.18022e-05
7.29433e-05
6.65351e-05
6.53535e-05
7.07724e-05
8.4447e-05
0.00010738
0.000136478
0.000164369
0.000186499
0.000203782
0.000218002
0.000224562
0.000224226
0.000223987
0.00022093
0.000205197
0.00018847
0.000172201
0.000156457
0.000140814
0.000124089
0.000105177
8.28837e-05
5.1501e-05
1.17613e-05
5.07484e-06
3.08837e-06
3.54687e-06
4.66946e-05
0.000122471
0.000174372
0.000211924
0.000239604
0.000227202
0.000189334
0.000159107
0.000138482
0.000122484
0.000110877
0.000105839
0.000109164
0.000122094
0.000144416
0.000171864
0.000196993
0.000215508
0.0002267
0.00022463
0.000223056
0.000221783
0.000220563
0.000219104
0.000212714
0.000180957
0.000151889
0.000125525
9.93297e-05
6.86362e-05
2.859e-05
6.79716e-06
6.08896e-06
4.344e-06
4.25602e-06
2.24999e-05
6.03229e-05
0.000115799
0.000142429
0.000136737
0.000121615
0.000109133
0.000101938
9.92104e-05
9.92596e-05
0.000100041
9.9927e-05
9.9137e-05
0.000100323
0.000107584
0.00012475
0.000152288
0.000183324
0.000208249
0.000224577
0.000229149
0.000226901
0.000225254
0.00022395
0.000222671
0.000221056
0.000195202
0.000156944
0.000123795
8.73633e-05
3.72404e-05
7.7278e-06
5.37845e-06
4.688e-06
4.57213e-06
3.22806e-05
9.66496e-05
0.000169108
0.000173861
0.000141202
0.000115415
0.000106407
0.000110636
0.000122464
0.000135374
0.000143839
0.000145303
0.000140144
0.000131647
0.000125689
0.000128652
0.000145102
0.000174654
0.000208019
0.000233624
0.000230614
0.000226694
0.000223536
0.00022104
0.000218991
0.000217077
0.00021494
0.000157859
0.00010735
6.30314e-05
2.09911e-05
6.91364e-06
8.50994e-06
5.70515e-06
4.99991e-06
2.05255e-05
6.25661e-05
0.000139604
0.000147024
0.000106056
7.89471e-05
7.04386e-05
7.36054e-05
8.40411e-05
9.86075e-05
0.000113998
0.000126691
0.000133964
0.000134812
0.000130872
0.000127449
0.000132199
0.000152024
0.00018874
0.000231157
0.000240754
0.000235915
0.000231631
0.000227952
0.000224834
0.000222116
0.00021951
0.000216738
0.000157575
8.46011e-05
2.66035e-05
6.7733e-06
7.33075e-06
6.00382e-06
6.92405e-06
3.50247e-05
0.000142918
0.000153948
8.89978e-05
5.61265e-05
4.74712e-05
5.366e-05
7.4451e-05
0.000111554
0.000153413
0.000176406
0.00017637
0.000165383
0.000154363
0.000150524
0.000159309
0.000183391
0.000217826
0.000246145
0.000242
0.000237909
0.000233956
0.000230236
0.000226826
0.000223757
0.000220982
0.000218353
0.000210076
0.000107549
4.90605e-05
1.68341e-05
7.81694e-06
1.24214e-05
6.82563e-06
8.65305e-06
4.52376e-05
0.000119755
0.000102601
7.21483e-05
6.08294e-05
6.22793e-05
6.79399e-05
7.48959e-05
8.39765e-05
9.51419e-05
0.000106551
0.000115888
0.000122149
0.000126671
0.000132767
0.00014424
0.000163737
0.000191118
0.000222272
0.000247125
0.000243673
0.000240114
0.000236515
0.000232948
0.000229469
0.000226099
0.000222814
0.000219608
0.000152036
6.6096e-05
1.88043e-05
6.59363e-06
1.05758e-05
7.0528e-06
9.89061e-06
6.87486e-05
0.000125013
0.000127467
0.000119832
0.000107283
8.91458e-05
7.22913e-05
6.17676e-05
5.77053e-05
5.88555e-05
6.47668e-05
7.59769e-05
9.32965e-05
0.000116026
0.000140758
0.000164131
0.000186841
0.000211853
0.000237797
0.000246641
0.000243907
0.000240916
0.000237761
0.000234525
0.00023128
0.000228079
0.000224986
0.000155958
8.11083e-05
3.50447e-05
1.38435e-05
8.7061e-06
1.70856e-05
7.69922e-06
7.38783e-06
3.03936e-05
6.78702e-05
0.000104737
0.000125585
0.000124095
0.000104312
8.14476e-05
6.40597e-05
5.26017e-05
4.5714e-05
4.27252e-05
4.36792e-05
4.91244e-05
5.98873e-05
7.63223e-05
9.74437e-05
0.000122257
0.000151863
0.000187296
0.000224314
0.000248212
0.00024585
0.000242966
0.000239675
0.000236095
0.000232327
0.000228492
0.000193278
0.000109193
4.26625e-05
1.3044e-05
7.24573e-06
1.59815e-05
7.96219e-06
5.64945e-06
2.41069e-05
6.28034e-05
0.000124556
0.000157416
0.000160813
0.00015494
0.00014294
0.000123212
9.86691e-05
7.61054e-05
5.9458e-05
4.87097e-05
4.26623e-05
4.08455e-05
4.45364e-05
5.78795e-05
8.79783e-05
0.000134312
0.000175952
0.000203684
0.000224109
0.000240119
0.000241341
0.000239382
0.000236691
0.000233497
0.000198174
0.000137599
7.31747e-05
2.96446e-05
1.18731e-05
9.45432e-06
2.44828e-05
8.42419e-06
5.68488e-06
2.13298e-05
6.24676e-05
0.000128004
0.000160412
0.000164443
0.000157274
0.00014702
0.000137113
0.000126327
0.000111611
9.36178e-05
7.67181e-05
6.32076e-05
5.28081e-05
4.53187e-05
4.17886e-05
4.54179e-05
6.46697e-05
0.000119104
0.000214441
0.000227119
0.000229485
0.00023103
0.000231424
0.000230595
0.00022868
0.000225967
0.000187807
0.000108627
3.93674e-05
1.18296e-05
7.91016e-06
2.12451e-05
8.62216e-06
7.45324e-06
3.20395e-05
9.66914e-05
0.00015859
0.000177718
0.000172587
0.000154386
0.000133096
0.000115012
0.000101261
9.09578e-05
8.41558e-05
8.17935e-05
8.25428e-05
8.06421e-05
7.16035e-05
5.94002e-05
5.07815e-05
5.11632e-05
6.94794e-05
0.00012535
0.000213128
0.00021403
0.00021551
0.000216777
0.000217328
0.000216979
0.0002158
0.000144777
7.03177e-05
2.63321e-05
1.15631e-05
8.9237e-06
2.56559e-05
9.25343e-06
8.17557e-06
3.2296e-05
9.38433e-05
0.00015576
0.000168414
0.000154974
0.000135813
0.000122588
0.000116088
0.000110974
0.000101486
8.79503e-05
7.71326e-05
7.49692e-05
8.21365e-05
9.1854e-05
9.11716e-05
7.71719e-05
6.16837e-05
5.39026e-05
5.87783e-05
8.57853e-05
0.000147038
0.000198482
0.000198288
0.00019857
0.000198738
0.00017177
0.000120961
6.06715e-05
1.97545e-05
9.21401e-06
1.03999e-05
3.59835e-05
9.30323e-06
8.00859e-06
3.10536e-05
0.000100146
0.000166823
0.000149939
0.000114313
9.26259e-05
8.64563e-05
9.25911e-05
0.000107373
0.000120372
0.00011776
0.000102672
9.22323e-05
9.63874e-05
0.000115445
0.000137953
0.00014174
0.000119022
8.88484e-05
6.79958e-05
6.00675e-05
6.67198e-05
9.26695e-05
0.000130719
0.000144976
0.000129156
0.000103672
7.56849e-05
4.46462e-05
1.78453e-05
7.74037e-06
1.11052e-05
4.26245e-05
9.33372e-06
8.74761e-06
3.65539e-05
0.000127438
0.000158676
0.000114847
8.42456e-05
7.42127e-05
7.52836e-05
8.35526e-05
9.97503e-05
0.00012193
0.000139373
0.00014128
0.000132928
0.000130018
0.000140425
0.000160006
0.000176027
0.000174576
0.000150368
0.000114731
8.46632e-05
6.71754e-05
6.28872e-05
7.24123e-05
9.063e-05
9.53223e-05
8.18443e-05
5.97082e-05
2.75864e-05
1.16632e-05
5.45115e-06
7.3141e-06
3.8381e-05
9.57887e-06
9.8297e-06
5.05109e-05
0.000156106
0.000118149
7.35589e-05
6.18888e-05
7.04835e-05
8.92969e-05
0.000110309
0.000132001
0.000156375
0.000180898
0.000198356
0.000203519
0.000199368
0.000196415
0.000202136
0.000214781
0.00022543
0.000221615
0.000193768
0.000148328
0.000105668
7.78132e-05
6.4642e-05
6.22489e-05
6.22239e-05
3.93265e-05
9.06406e-06
6.43315e-06
8.69529e-06
1.37739e-05
2.5178e-05
0.000106161
9.57553e-06
1.01907e-05
5.18538e-05
0.000143333
8.55289e-05
5.29917e-05
5.29698e-05
7.48091e-05
0.000108011
0.000134854
0.000149903
0.000159374
0.000169211
0.000180609
0.000191314
0.000198775
0.000202616
0.000205164
0.00020912
0.000214457
0.000217361
0.000211365
0.000190645
0.000155862
0.000116921
8.41885e-05
6.0636e-05
4.24603e-05
2.36608e-05
5.0614e-06
3.40547e-07
4.2633e-06
9.00643e-06
2.8965e-05
5.89814e-05
8.7139e-06
1.04074e-05
5.90556e-05
0.000134246
7.20162e-05
4.69508e-05
5.07739e-05
7.44647e-05
0.000108091
0.00013937
0.000163161
0.000179515
0.000190304
0.000198071
0.000204652
0.00021028
0.000214025
0.000214913
0.000212832
0.000208384
0.00020194
0.000193
0.000180435
0.000163149
0.000140869
0.000115132
8.91188e-05
6.57178e-05
4.80791e-05
3.65596e-05
2.06947e-05
3.77933e-06
2.79448e-06
1.01772e-05
5.05112e-05
7.38905e-06
1.05613e-05
5.92167e-05
0.000127581
7.91804e-05
5.41895e-05
5.47417e-05
6.94479e-05
8.89726e-05
0.000109085
0.000128844
0.000147745
0.000165017
0.000179903
0.000192082
0.00020167
0.000208862
0.000213632
0.000215707
0.000214762
0.000210612
0.000203185
0.000192373
0.000178038
0.000160185
0.000139112
0.0001153
9.05009e-05
7.16547e-05
6.19655e-05
3.27338e-05
1.41869e-05
1.82014e-06
2.08513e-06
8.42142e-06
8.89039e-06
1.01735e-05
5.19745e-05
0.000124133
0.000105008
7.02312e-05
5.31528e-05
5.10924e-05
5.85752e-05
7.37735e-05
9.57027e-05
0.000122087
0.000149589
0.000175244
0.000197456
0.000215816
0.000230531
0.000241968
0.000250377
0.000255743
0.000257786
0.000256125
0.000250292
0.000239296
0.000221755
0.000197116
0.000166308
0.000133514
0.000109618
5.61905e-05
1.5534e-05
7.60393e-06
4.73795e-06
4.57393e-06
2.25735e-05
1.04955e-05
9.83951e-06
4.5152e-05
0.000114608
0.000128015
0.0001049
7.07665e-05
4.93095e-05
4.11969e-05
4.24132e-05
5.22429e-05
7.13834e-05
9.95624e-05
0.000134215
0.000171343
0.000207327
0.000239976
0.000268803
0.000294995
0.000319495
0.000338143
0.000338583
0.000337256
0.000333635
0.000327099
0.00031711
0.000244682
0.000145774
5.23421e-05
7.48866e-06
5.90064e-06
1.62804e-05
1.83064e-05
2.53914e-05
0.000107927
1.09817e-05
9.47274e-06
4.21548e-05
0.000111945
0.000143536
0.000138032
0.000111509
7.53558e-05
4.94809e-05
3.67719e-05
3.38e-05
3.97937e-05
5.60862e-05
8.36746e-05
0.000120531
0.000161487
0.000201084
0.000235326
0.000261843
0.000280244
0.000292415
0.000301155
0.000307118
0.000306727
0.000292448
0.000255915
0.000193794
0.000112601
3.71334e-05
6.76751e-06
5.07002e-06
2.00233e-05
5.26673e-05
8.12587e-05
9.97986e-05
9.98616e-06
9.27057e-06
3.93764e-05
0.000113878
0.000157376
0.000156614
0.000139387
0.000111049
7.70427e-05
5.00997e-05
3.44181e-05
2.80801e-05
3.03827e-05
4.25369e-05
6.58928e-05
9.89781e-05
0.000135864
0.000168578
0.000190724
0.000200335
0.000201508
0.000201619
0.000205642
0.000212713
0.000215326
0.000203501
0.00017272
0.000123188
6.215e-05
1.78274e-05
5.44856e-06
1.04025e-05
3.54688e-05
0.000102908
5.41077e-05
8.51674e-06
9.11552e-06
3.83784e-05
0.000113931
0.000164934
0.000162318
0.000139653
0.000116775
9.91036e-05
7.84693e-05
5.4196e-05
3.55784e-05
2.5901e-05
2.52994e-05
3.44598e-05
5.41791e-05
8.24895e-05
0.000112001
0.000132696
0.0001394
0.000137002
0.000134558
0.000136252
0.000141099
0.000146422
0.000148718
0.000143519
0.000126459
9.41768e-05
5.03273e-05
1.78492e-05
8.75113e-06
1.47636e-05
5.46445e-05
4.54379e-05
8.03748e-06
9.27526e-06
3.81287e-05
0.000109074
0.000158852
0.000156939
0.000128913
9.83384e-05
8.30909e-05
8.11321e-05
7.74463e-05
5.8909e-05
3.72497e-05
2.39823e-05
2.04939e-05
2.6498e-05
4.17927e-05
6.33251e-05
8.16728e-05
8.74817e-05
8.43823e-05
8.48454e-05
9.62326e-05
0.00011803
0.000142791
0.000159838
0.000163491
0.000155627
0.000139757
0.000114228
7.38681e-05
3.37425e-05
1.55676e-05
2.00846e-05
7.9914e-05
8.09446e-06
9.41234e-06
3.8779e-05
0.000105724
0.000153241
0.000155393
0.000132176
9.81174e-05
7.49518e-05
6.93992e-05
7.70258e-05
8.38707e-05
6.96172e-05
4.27352e-05
2.40264e-05
1.67314e-05
1.89698e-05
2.95083e-05
4.57417e-05
5.92574e-05
6.30174e-05
6.41643e-05
7.37144e-05
9.55753e-05
0.00012555
0.000152141
0.000165728
0.000166049
0.000159176
0.000151613
0.000142719
0.00011196
4.35083e-05
1.46832e-05
2.76038e-05
9.16169e-06
9.69252e-06
3.95976e-05
0.000106489
0.000154138
0.000157883
0.000139416
0.000108387
7.92649e-05
6.33649e-05
6.15135e-05
7.09355e-05
8.38804e-05
8.08663e-05
5.37933e-05
2.84233e-05
1.62717e-05
1.44228e-05
2.04924e-05
3.28429e-05
4.46713e-05
4.81437e-05
5.16744e-05
6.6317e-05
9.59962e-05
0.000135252
0.000167287
0.000179452
0.000172694
0.000153233
0.000128971
0.000102679
5.26598e-05
1.99196e-05
3.11522e-05
1.03603e-05
9.93287e-06
3.97208e-05
0.000105415
0.000155211
0.000159952
0.000144464
0.000120779
9.54427e-05
7.38647e-05
6.0621e-05
5.68166e-05
6.18833e-05
7.43149e-05
8.50556e-05
7.27871e-05
4.22684e-05
2.20345e-05
1.46328e-05
1.61353e-05
2.52215e-05
3.76017e-05
4.26017e-05
4.65006e-05
6.19516e-05
9.28322e-05
0.000131826
0.000159889
0.000164272
0.000142683
0.000101337
6.65961e-05
4.18699e-05
2.79299e-05
5.88846e-05
1.05006e-05
1.03407e-05
3.92171e-05
0.000102072
0.000151686
0.00015423
0.000137522
0.000115702
9.6126e-05
8.05124e-05
6.77871e-05
5.82238e-05
5.31039e-05
5.33748e-05
5.98987e-05
7.16288e-05
7.75743e-05
6.05828e-05
3.51499e-05
2.13309e-05
1.86267e-05
2.48726e-05
3.50101e-05
3.9066e-05
4.52395e-05
6.39379e-05
9.69142e-05
0.000133148
0.000153377
0.000148093
0.000110564
5.90373e-05
3.27192e-05
3.12348e-05
9.16966e-05
1.05887e-05
1.10428e-05
4.01738e-05
0.000102832
0.000149111
0.000147623
0.000129612
0.000107447
8.65287e-05
7.03153e-05
6.01127e-05
5.5175e-05
5.3699e-05
5.37562e-05
5.42217e-05
5.61101e-05
6.25448e-05
7.22223e-05
7.04401e-05
4.91866e-05
3.10965e-05
2.52886e-05
2.94584e-05
3.8826e-05
4.50142e-05
5.21469e-05
6.71127e-05
8.50935e-05
9.71886e-05
0.000101404
8.95003e-05
5.44922e-05
3.24552e-05
3.96166e-05
0.000124537
1.11753e-05
1.18858e-05
4.3888e-05
0.00011556
0.000153847
0.000143586
0.000120213
9.47767e-05
7.16637e-05
5.31324e-05
4.20852e-05
3.98838e-05
4.57662e-05
5.75882e-05
6.95728e-05
7.33386e-05
7.06627e-05
7.32307e-05
8.55114e-05
9.58366e-05
8.56299e-05
6.77026e-05
6.14805e-05
6.42693e-05
5.93156e-05
4.59183e-05
4.18424e-05
4.6665e-05
4.73536e-05
4.52498e-05
4.77084e-05
4.42793e-05
4.18707e-05
6.93714e-05
0.000134287
1.14879e-05
1.2096e-05
5.06586e-05
0.000135461
0.000149487
0.00012568
9.29377e-05
6.30152e-05
4.07985e-05
2.90804e-05
2.85383e-05
3.74246e-05
5.46982e-05
7.62801e-05
9.23537e-05
9.80929e-05
9.79691e-05
9.6453e-05
9.27081e-05
8.48968e-05
7.79744e-05
7.99963e-05
9.02358e-05
0.000103592
0.000124524
0.00014005
0.000127365
8.71477e-05
4.89621e-05
3.41423e-05
4.03008e-05
5.89724e-05
8.21926e-05
0.000135206
8.51857e-05
1.08888e-05
1.13805e-05
5.43621e-05
0.000130352
0.000125814
9.7834e-05
6.75333e-05
4.42662e-05
3.03807e-05
2.86294e-05
4.03328e-05
6.65443e-05
9.96399e-05
0.000120394
0.00012867
0.000134454
0.000139419
0.000139446
0.000130111
0.000112474
9.41901e-05
8.19463e-05
7.68449e-05
8.00893e-05
9.82464e-05
0.000131769
0.000151638
0.000123569
7.29779e-05
4.1718e-05
3.60457e-05
5.0854e-05
8.86604e-05
0.000143842
7.23479e-05
1.05926e-05
1.06205e-05
5.14145e-05
0.000134623
0.000130442
9.99357e-05
7.53894e-05
6.20573e-05
5.65397e-05
5.50227e-05
5.18864e-05
4.49216e-05
4.40493e-05
5.75519e-05
8.96128e-05
0.000113056
0.000115003
0.000119618
0.000128028
0.000132978
0.00013107
0.000123874
0.000115573
0.000112457
0.000120745
0.000138168
0.000146034
0.000124773
8.41917e-05
5.1412e-05
3.95049e-05
4.96735e-05
8.8338e-05
0.000140605
6.53805e-05
1.06595e-05
1.09704e-05
4.48556e-05
0.000126428
0.000147725
0.000130106
0.000112221
9.90105e-05
8.20437e-05
5.97807e-05
3.73654e-05
1.59496e-05
3.45284e-06
7.08507e-06
1.58396e-05
4.40656e-05
0.00011605
0.000151277
0.000142784
0.00013726
0.000136653
0.000137169
0.000138752
0.000140944
0.000143648
0.000145968
0.000140854
0.000119443
8.49984e-05
5.39629e-05
3.91003e-05
4.65373e-05
9.09645e-05
0.000137302
5.45973e-05
1.01255e-05
1.14322e-05
4.43904e-05
0.000116342
0.000141162
0.000121268
9.41511e-05
7.4965e-05
6.59138e-05
6.71228e-05
7.52199e-05
3.10094e-05
3.54698e-06
5.29201e-07
6.06597e-07
9.28926e-06
4.12468e-05
0.000135033
0.000214153
0.000203111
0.000177454
0.0001649
0.000161607
0.000163429
0.000168886
0.000172706
0.000166145
0.000143846
0.000108449
7.1428e-05
4.68855e-05
4.24794e-05
6.52166e-05
0.000120685
5.45215e-05
9.74828e-06
1.12808e-05
5.1475e-05
0.00013554
0.00012646
9.65308e-05
7.09926e-05
5.56587e-05
4.64407e-05
3.95032e-05
3.67807e-05
4.39782e-05
5.35129e-05
1.5966e-06
1.62699e-06
9.91e-06
5.20474e-05
0.000252641
0.000269063
0.000227239
0.000194374
0.000176566
0.000163314
0.000151352
0.000148186
0.000158919
0.000173385
0.000168601
0.00013604
9.13227e-05
5.63383e-05
4.1885e-05
5.21935e-05
0.000101875
6.09889e-05
1.03024e-05
1.11897e-05
4.84899e-05
0.000128628
0.000141135
0.000120601
0.000100326
9.09818e-05
8.63631e-05
6.88444e-05
4.30222e-05
1.96427e-05
5.34583e-06
2.0957e-06
1.76998e-06
1.71051e-06
1.69893e-05
0.000106535
0.000348048
0.000300457
0.000213952
0.00017206
0.000157853
0.000146163
0.000128373
0.000116987
0.000123049
0.000140299
0.000137952
0.000101299
6.35949e-05
4.78204e-05
6.10307e-05
0.000119518
6.45816e-05
1.07845e-05
1.12523e-05
4.99994e-05
0.000131758
0.000126373
9.49331e-05
6.71145e-05
5.06459e-05
4.52062e-05
5.14344e-05
6.77469e-05
5.30278e-05
2.52021e-05
6.77058e-06
1.63557e-06
2.64394e-07
2.97366e-06
2.38418e-05
0.000154947
0.000364518
0.000283998
0.000191468
0.00015095
0.000142279
0.000136824
0.000117304
9.90444e-05
9.74356e-05
0.000108569
0.000107086
8.3704e-05
7.02121e-05
8.922e-05
0.000144099
6.45222e-05
1.0519e-05
1.09599e-05
5.12382e-05
0.000129994
0.000126575
0.000102384
8.03201e-05
6.75947e-05
6.22836e-05
5.98281e-05
5.66229e-05
5.22128e-05
4.60772e-05
2.92621e-05
6.36015e-06
1.05839e-06
1.24487e-06
3.59246e-06
2.12428e-05
0.000108587
0.000378182
0.000303468
0.000185185
0.000125922
0.000111471
0.000120484
0.000122976
0.000105753
9.22714e-05
9.08995e-05
9.2462e-05
9.58331e-05
0.000119108
0.000156476
6.59619e-05
1.01516e-05
1.0814e-05
4.83888e-05
0.000125447
0.000133657
0.000113029
8.61508e-05
6.61673e-05
5.74073e-05
5.77595e-05
6.32299e-05
6.84608e-05
6.79426e-05
5.90393e-05
3.98395e-05
1.15339e-05
4.57829e-06
8.16094e-07
1.198e-06
1.23913e-05
5.3928e-05
0.000219499
0.000360952
0.0002312
0.000125301
8.79756e-05
9.14626e-05
0.000114406
0.00011426
9.41328e-05
8.63175e-05
9.70665e-05
0.000127056
0.000155013
6.77827e-05
1.03183e-05
1.07128e-05
5.01657e-05
0.000130075
0.00013206
0.000110963
8.62616e-05
6.65545e-05
5.50301e-05
5.20767e-05
5.72101e-05
6.84575e-05
7.91611e-05
7.9448e-05
6.81825e-05
5.00429e-05
2.15493e-05
8.22014e-06
2.77562e-06
2.20242e-06
5.67519e-06
2.53816e-05
8.54116e-05
0.000278944
0.000270387
0.000145053
7.77102e-05
6.68125e-05
8.80706e-05
0.000114209
0.000114668
0.000118589
0.000141384
0.000158801
6.5778e-05
1.02866e-05
1.04987e-05
4.76905e-05
0.000125429
0.000141476
0.000130527
0.0001105
8.7771e-05
6.8685e-05
5.72751e-05
5.40449e-05
5.77685e-05
6.65755e-05
7.80147e-05
8.67597e-05
8.44563e-05
7.05333e-05
4.58764e-05
1.63926e-05
2.95563e-06
1.25319e-06
8.98756e-07
8.2411e-06
2.66881e-05
8.16529e-05
0.000206703
0.000177247
9.41105e-05
6.45514e-05
7.36883e-05
0.000107914
0.000138617
0.000154174
0.00014609
5.26415e-05
9.36868e-06
1.04907e-05
4.8173e-05
0.000130406
0.00014331
0.000127116
0.000105069
8.57465e-05
7.09289e-05
6.014e-05
5.43344e-05
5.51954e-05
6.34027e-05
7.68472e-05
8.98616e-05
9.73604e-05
9.68566e-05
8.69473e-05
7.01404e-05
4.63588e-05
1.75186e-05
2.6714e-06
2.5999e-06
1.4865e-06
7.67284e-06
2.49551e-05
7.00039e-05
0.000157626
0.000137613
8.98203e-05
8.56929e-05
0.000115446
0.000143204
0.00012781
4.57518e-05
8.58601e-06
1.03991e-05
4.70337e-05
0.000128398
0.000148723
0.000138233
0.000119584
0.000100871
8.53632e-05
7.28075e-05
6.2921e-05
5.72158e-05
5.76851e-05
6.55009e-05
7.99726e-05
9.6929e-05
0.000110259
0.000116245
0.000113035
9.9743e-05
8.07869e-05
5.85772e-05
1.97807e-05
4.29953e-06
6.33173e-07
1.74895e-06
6.37855e-06
2.333e-05
8.06955e-05
0.0001656
0.000146412
0.000120314
0.000127489
0.000132966
4.79505e-05
8.46054e-06
1.05281e-05
4.80124e-05
0.000131674
0.000150581
0.000135537
0.000113467
9.50675e-05
8.34758e-05
7.66827e-05
7.13655e-05
6.62688e-05
6.36168e-05
6.68374e-05
7.8088e-05
9.68232e-05
0.000118386
0.000136122
0.000146073
0.000147276
0.000138492
0.000119336
9.50652e-05
6.24033e-05
1.27515e-05
1.91388e-06
2.0538e-06
2.02039e-06
8.7267e-06
3.64271e-05
0.00012783
0.000143365
0.000142645
0.000129449
5.13787e-05
8.60736e-06
1.07511e-05
5.02962e-05
0.000136414
0.000153051
0.00013756
0.000115885
9.77427e-05
8.62223e-05
8.06571e-05
7.85379e-05
7.67132e-05
7.41631e-05
7.37897e-05
7.95505e-05
9.37635e-05
0.000115879
0.000141659
0.000164916
0.000180823
0.000187011
0.000182033
0.000164058
0.000135189
9.83671e-05
4.02439e-05
3.04667e-06
1.72629e-06
1.52948e-07
5.12704e-06
2.20505e-05
0.000102329
8.61408e-05
9.98772e-05
5.02431e-05
8.71758e-06
1.1002e-05
5.29993e-05
0.000141032
0.000152689
0.000133501
0.000110532
9.35153e-05
8.39195e-05
8.01496e-05
8.02458e-05
8.19891e-05
8.34239e-05
8.47499e-05
8.87532e-05
9.8883e-05
0.000116853
0.000141413
0.000168354
0.000191991
0.000207173
0.000210579
0.000201284
0.000179726
0.000147719
0.000110509
6.40106e-05
1.30244e-05
3.12514e-06
6.63385e-07
3.76308e-06
1.43619e-05
7.78204e-05
6.57829e-05
3.57399e-05
8.75145e-06
1.11715e-05
5.49739e-05
0.000144053
0.000150917
0.000129193
0.000106408
9.13512e-05
8.40401e-05
8.21398e-05
8.36108e-05
8.67844e-05
9.01457e-05
9.30442e-05
9.66786e-05
0.000103558
0.000115639
0.000132863
0.000153067
0.000172518
0.000186902
0.000192625
0.000188217
0.000174841
0.000154925
0.000130373
0.000103356
7.47061e-05
3.77067e-05
8.64265e-06
1.72199e-06
3.31278e-06
1.19761e-05
6.81467e-05
4.02209e-05
8.89595e-06
1.12762e-05
5.61444e-05
0.000145094
0.000147998
0.00012378
0.000101137
8.78315e-05
8.25253e-05
8.23197e-05
8.51046e-05
8.94898e-05
9.44488e-05
9.94068e-05
0.000104663
0.000111415
0.000120942
0.000133555
0.000148218
0.000162883
0.000175094
0.000182323
0.000182747
0.000176236
0.000164229
0.000148628
0.000130521
0.000109537
8.62696e-05
6.32962e-05
4.03924e-05
1.95121e-05
4.70608e-06
9.89081e-06
7.73816e-05
9.25298e-06
1.13183e-05
5.67939e-05
0.000145636
0.000145029
0.000118735
9.69761e-05
8.6296e-05
8.38814e-05
8.60673e-05
9.04775e-05
9.58268e-05
0.000101435
0.000107138
0.000113427
0.00012132
0.000131734
0.000144785
0.00015959
0.000174663
0.000188373
0.000198848
0.000204111
0.000202998
0.00019599
0.000184841
0.000170242
0.000151221
0.00012686
0.000104321
9.88213e-05
9.20848e-05
1.37362e-05
4.12673e-07
9.32654e-06
1.14352e-05
1.13434e-05
5.7284e-05
0.000144815
0.000140287
0.000111656
9.0827e-05
8.28307e-05
8.34629e-05
8.83965e-05
9.50252e-05
0.000102186
0.000109444
0.000116792
0.000124795
0.000134612
0.00014749
0.000163959
0.000183383
0.000204311
0.0002254
0.000245475
0.00026231
0.000272685
0.000274993
0.000269501
0.000254699
0.000227935
0.000189081
0.000146696
0.000135031
3.0395e-05
7.38531e-06
4.21631e-06
2.54069e-05
1.31553e-05
1.13432e-05
5.74961e-05
0.000143168
0.00013393
0.000103435
8.43393e-05
7.9584e-05
8.38253e-05
9.19439e-05
0.000100663
0.000108763
0.00011631
0.000123868
0.000132292
0.000142761
0.000156548
0.000174486
0.000196504
0.000221606
0.000248373
0.000275523
0.000302184
0.000326513
0.000340072
0.000341248
0.000309128
0.000246527
0.000176821
0.000119751
6.26846e-05
1.48537e-05
7.23741e-06
1.84233e-05
0.000109542
1.29263e-05
1.13162e-05
5.74077e-05
0.00014103
0.000127475
9.52041e-05
7.74341e-05
7.5056e-05
8.2031e-05
9.27895e-05
0.000103482
0.000112574
0.00012015
0.000126978
0.000134132
0.000142905
0.000154499
0.000169499
0.00018742
0.000206703
0.000225162
0.000240374
0.000250051
0.000252385
0.000245777
0.000227655
0.000195389
0.000151439
0.000108195
7.93321e-05
5.6516e-05
2.25018e-05
8.78428e-06
2.48571e-05
0.00012858
1.18982e-05
1.1257e-05
5.71374e-05
0.000139401
0.000122155
8.83896e-05
7.16486e-05
7.12654e-05
8.09156e-05
9.45684e-05
0.000107553
0.00011796
0.00012599
0.000132544
0.000138645
0.000145438
0.000154047
0.00016502
0.000177708
0.000190194
0.000200045
0.000205151
0.000204296
0.00019741
0.000185055
0.000166941
0.00014175
0.000111129
8.21184e-05
6.41714e-05
5.84301e-05
4.77535e-05
1.36608e-05
1.94352e-05
0.000106918
1.12812e-05
1.11259e-05
5.62037e-05
0.000137986
0.000119155
8.3564e-05
6.66295e-05
6.69046e-05
7.80876e-05
9.42307e-05
0.000110038
0.000122888
0.000132795
0.000140863
0.000148352
0.000156482
0.000166318
0.000178249
0.000191208
0.000202533
0.000209155
0.000209077
0.000202122
0.000189446
0.000170861
0.000142372
0.000103892
7.34306e-05
5.99893e-05
5.88052e-05
6.40016e-05
5.28122e-05
1.70964e-05
2.0438e-05
9.63113e-05
1.20721e-05
1.09825e-05
5.49454e-05
0.000137609
0.000118203
8.01096e-05
6.24819e-05
6.29686e-05
7.53842e-05
9.43948e-05
0.000114258
0.000131169
0.000144392
0.000154954
0.000164483
0.000174871
0.000188132
0.00020576
0.000227115
0.000247865
0.000261326
0.000262959
0.000251898
0.000223008
0.000166021
9.74569e-05
5.81605e-05
4.81555e-05
5.26693e-05
6.07344e-05
5.90324e-05
3.828e-05
2.26432e-05
3.97106e-05
0.000150513
1.25536e-05
1.0918e-05
5.43438e-05
0.000139012
0.000115527
7.47991e-05
5.76566e-05
5.84763e-05
7.10376e-05
9.12424e-05
0.000114141
0.000135469
0.000153637
0.000169104
0.000183265
0.000198105
0.000216378
0.000241752
0.000275946
0.000293289
0.000291156
0.000289441
0.000288207
0.000214869
0.00010215
5.14979e-05
3.65663e-05
4.02012e-05
5.38154e-05
6.01314e-05
5.14122e-05
4.04818e-05
4.27375e-05
9.18209e-05
8.69441e-05
1.14443e-05
1.1035e-05
5.52195e-05
0.000142416
0.000107306
6.66849e-05
5.35617e-05
5.69356e-05
7.0794e-05
9.18651e-05
0.000115764
0.000138224
0.000157393
0.00017352
0.000187816
0.00020199
0.00021817
0.00023864
0.000265226
0.000290068
0.000286219
0.000282381
0.000259561
0.000149807
7.23991e-05
3.76339e-05
2.70763e-05
3.16199e-05
4.97757e-05
6.24835e-05
5.37909e-05
5.21669e-05
7.46016e-05
0.000133894
5.56949e-05
9.67159e-06
1.14217e-05
5.90192e-05
0.000144542
8.6979e-05
5.37179e-05
4.85111e-05
5.69521e-05
7.35104e-05
9.54971e-05
0.000119783
0.000143012
0.000163229
0.000180039
0.000193928
0.000205874
0.000217215
0.000229277
0.000242305
0.000253762
0.000256708
0.000239731
0.000194319
0.000129979
7.24344e-05
3.77827e-05
2.33302e-05
2.21452e-05
3.36283e-05
5.89943e-05
6.99454e-05
7.13845e-05
9.83501e-05
0.000129034
4.68235e-05
8.53841e-06
1.19854e-05
6.69027e-05
0.000132534
6.21789e-05
4.25335e-05
4.74832e-05
6.44505e-05
8.58853e-05
0.000107618
0.000128544
0.000148103
0.00016568
0.000180828
0.000193363
0.000203433
0.000211592
0.000218658
0.000225035
0.000229382
0.000227413
0.000212635
0.000181097
0.000136406
8.89286e-05
5.0476e-05
2.75564e-05
1.85377e-05
1.98931e-05
3.338e-05
6.55903e-05
9.71238e-05
0.000117561
0.000123238
4.42763e-05
8.11292e-06
1.2445e-05
7.95281e-05
9.77038e-05
4.20572e-05
3.53663e-05
5.10584e-05
7.77712e-05
0.000102201
0.000121235
0.000137455
0.000152425
0.000166307
0.000178741
0.00018933
0.000197856
0.000204414
0.000209414
0.000213201
0.00021512
0.000212529
0.000201012
0.000177408
0.00014395
0.000106887
7.18752e-05
4.31593e-05
2.45105e-05
1.6699e-05
1.82451e-05
3.26816e-05
7.3649e-05
0.000116875
0.000114992
4.32581e-05
8.11306e-06
1.24321e-05
8.89998e-05
6.97004e-05
3.24676e-05
3.44361e-05
6.05373e-05
9.19896e-05
0.000112371
0.00012594
0.000137498
0.000148595
0.000159278
0.000169161
0.000177781
0.000184753
0.000189943
0.000193555
0.000195996
0.000197294
0.000196228
0.000189812
0.000174666
0.000150287
0.000120623
9.09707e-05
6.42331e-05
4.11436e-05
2.40485e-05
1.58657e-05
1.7484e-05
3.385e-05
7.95597e-05
0.000108954
4.54157e-05
8.4585e-06
1.20084e-05
7.92784e-05
7.26764e-05
3.5062e-05
3.41185e-05
5.28009e-05
7.63796e-05
9.59858e-05
0.000111522
0.000124855
0.000136978
0.000148149
0.000158341
0.000167373
0.000174991
0.000180999
0.000185378
0.00018832
0.000189937
0.0001897
0.00018571
0.000175067
0.000155998
0.000130306
0.000103034
7.87225e-05
5.80358e-05
3.88897e-05
2.26205e-05
1.47356e-05
1.90305e-05
4.10692e-05
8.9796e-05
5.10454e-05
9.02284e-06
1.16075e-05
6.11925e-05
0.000112789
5.75548e-05
3.6298e-05
3.62109e-05
4.60534e-05
6.17276e-05
8.05989e-05
9.99087e-05
0.000117825
0.00013373
0.000147548
0.000159294
0.000168949
0.000176462
0.000181842
0.000185261
0.000186935
0.000186823
0.00018387
0.00017582
0.000160358
0.000137475
0.000111018
8.68568e-05
6.78058e-05
5.08794e-05
3.20825e-05
1.6881e-05
1.40562e-05
2.62763e-05
7.17986e-05
5.41792e-05
9.42109e-06
1.14108e-05
5.27432e-05
0.000128639
0.00011252
6.2304e-05
3.92509e-05
3.3732e-05
3.60389e-05
4.45466e-05
5.95776e-05
8.01892e-05
0.000103203
0.000125136
0.000144171
0.000159801
0.000171916
0.000180443
0.000185333
0.000186638
0.000184555
0.00017898
0.000169167
0.00015394
0.000132868
0.000108063
8.48842e-05
6.81147e-05
5.62353e-05
4.13802e-05
2.2333e-05
1.32963e-05
2.07402e-05
6.41547e-05
5.37832e-05
9.49475e-06
1.13901e-05
5.28605e-05
0.000136076
0.000154511
0.000130775
8.09197e-05
5.03753e-05
3.73786e-05
3.27611e-05
3.42676e-05
4.26181e-05
5.92429e-05
8.35845e-05
0.000111226
0.000136856
0.000157625
0.00017256
0.000181255
0.000183533
0.000179716
0.000170656
0.000157584
0.00014119
0.000121402
9.89684e-05
7.77703e-05
6.31456e-05
5.57278e-05
4.90067e-05
3.27943e-05
1.66079e-05
1.77977e-05
4.67119e-05
6.14405e-05
9.60409e-06
1.1231e-05