/*--------------------------------*- C++ -*----------------------------------*\
| =========                 |                                                 |
| \\      /  F ield         | OpenFOAM: The Open Source CFD Toolbox           |
|  \\    /   O peration     | Version:  v1912                                 |
|   \\  /    A nd           | Website:  www.openfoam.com                      |
|    \\/     M anipulation  |                                                 |
\*---------------------------------------------------------------------------*/
FoamFile
{
    version     2.0;
    format      ascii;
    class       volScalarField;
    location    "75/oil";
    object      wallHeatFlux;
}
// * * * * * * * * * * * * * * * * * * * * * * * * * * * * * * * * * * * * * //

dimensions      [1 0 -3 0 0 0 0];


internalField   uniform 0;

boundaryField
{
    maxY
    {
        type            calculated;
        value           uniform 0;
    }
    minX
    {
        type            calculated;
        value           uniform 0;
    }
    maxX
    {
        type            calculated;
        value           uniform 0;
    }
    minY
    {
        type            calculated;
        value           uniform 0;
    }
    minZ
    {
        type            calculated;
        value           uniform 0;
    }
    maxZ
    {
        type            calculated;
        value           uniform 0;
    }
    oil_to_sphere
    {
        type            calculated;
        value           nonuniform List<scalar> 
360
(
10615.2
10674.9
7202.81
18743.8
20002.2
8369.51
20535.8
18534.3
19947.8
10440.6
10496.5
8350.29
9257.76
6488.21
10223.2
17733.5
20246.8
18762.5
19623.6
6463.33
16323.2
10442.8
9197.13
19402.6
7220.21
20120.3
8335.94
19812
19661
18595.4
21145.9
20639.2
7227.24
7143.81
8268.02
8299.07
19429.7
19286.4
18769.6
19052.7
19552.7
7185.47
8218.39
10890.6
10916.1
8316.55
9137.52
6408.97
10273.6
18393.6
8396.7
8346.05
9178.84
9208.76
6414.93
10480.4
18819.1
6461.57
8224.93
8989.7
6463.47
19777.1
18783.9
19600.9
6412.49
16970.3
10244.6
8903.55
20573.5
19550.7
18842.2
19284.6
19215.4
6421.72
14558.3
10164.7
6498.98
8820.48
19322
19872.9
9031.71
8865.15
8896.02
6463.61
7170.93
8299.93
8318.77
9237.44
6456.96
6516.5
7191.12
9229.98
8323.78
7176.27
9188.38
8291.64
8295.11
8323.61
7148.99
6550.15
6549.43
6451.07
8377.57
8373.5
9254.2
6450.61
6515.2
9276.79
7179.76
8338.06
8338.1
8327.86
7166.72
6435
6572.58
6558.89
9128.88
9061.75
9061.85
10812.7
10830.8
18102.4
19280.8
17442.7
19443.3
18112.6
19446.4
19700.2
18329.1
19149.7
18829
9058.18
8991.66
9027.41
6547.51
18034.7
19633.2
10592.1
10617.4
19825.2
18321.6
10350.6
10196.6
20096.3
18438
21245.9
6543.79
6532.52
19386.7
19858.1
21188.6
20134.9
20137.8
21002.6
21169.4
18338.5
10145.5
20012.3
18978.6
6482.32
19783.1
20292.1
8846.52
8717.91
9060.21
10344
10464.4
20083.1
18481.5
20896.1
6402.71
18728.6
10507.4
19839.3
18952.6
6408.01
20453.2
8979.45
8954.54
6526.83
8326.7
8348.82
9232.73
7193.35
9176.48
8288.55
6444.31
6541.12
19671.7
18449.3
19789.8
19038.2
10832.2
10840
19329.1
17684.9
19011.1
10392.2
10455
6533.72
8296.67
8413.08
9256.83
8340.93
8320.5
9283.66
7176.09
9204.6
8281.29
7116.36
18281
9268
8293.8
6476.24
19249.3
18232.1
19249.7
10722.6
10722.9
6402.57
8261.13
8265.86
8980.7
19755.4
7122.73
8907.26
8244.26
18592.5
18758.7
10663.6
6447.8
10581.1
6444.19
6567.27
9169.42
7195.37
8294.26
8227.72
8278.32
7130.63
6490.19
18788.7
17628.4
19778.7
20736.4
18559.5
17550.4
20045.7
20266.4
10398.6
19000.1
6539.11
20008.7
19745.8
19845.4
9177.94
7207.88
8350.28
9205.4
7234.88
19855.1
8286.05
8272.2
8341.06
7159.16
20083.9
18467.1
8278.2
8275.12
7148.38
18537.4
20951.5
10445.2
18922.7
6466.87
19705.8
19381.7
19881.2
8912.69
7148.64
19572.3
8215.98
8256.58
8224.59
19418.5
7173.92
19106.3
10611.9
17657.1
10664.2
18634
18960
19343.6
6446.58
8788.74
8656.5
8740.77
10717.9
19412.8
10688.8
18803.3
19361.5
6521.95
19595.8
19882.3
10224.7
19054.6
6528.06
20953.1
8933.15
8879.59
6388.6
18809.7
10601.3
16726.4
18882.1
10591.4
6451.62
8313.98
8308.89
9256.8
19487.2
18083.6
10425.5
6535.57
18199.9
10588.6
6479.99
18306.2
19817.5
10297.6
19129.8
6371.78
20659.9
9294.55
20340.3
7158.41
8337.3
20393.6
19082.7
18726.3
10421.4
19874.6
19684.9
10503.8
18839.1
8772.98
9001.95
18525.3
10543.5
6427.45
18492.6
10568.1
6500.84
19087.9
19191.1
18159.1
10619.7
18761.8
10644.5
)
;
    }
}


// ************************************************************************* //
