/*--------------------------------*- C++ -*----------------------------------*\
| =========                 |                                                 |
| \\      /  F ield         | OpenFOAM: The Open Source CFD Toolbox           |
|  \\    /   O peration     | Version:  v1912                                 |
|   \\  /    A nd           | Website:  www.openfoam.com                      |
|    \\/     M anipulation  |                                                 |
\*---------------------------------------------------------------------------*/
FoamFile
{
    version     2.0;
    format      ascii;
    class       volScalarField;
    location    "210/oil";
    object      heatTransferCoeff(T);
}
// * * * * * * * * * * * * * * * * * * * * * * * * * * * * * * * * * * * * * //

dimensions      [1 0 -3 -1 0 0 0];


internalField   uniform 0;

boundaryField
{
    maxY
    {
        type            calculated;
        value           uniform 0;
    }
    minX
    {
        type            calculated;
        value           uniform 0;
    }
    maxX
    {
        type            calculated;
        value           uniform 0;
    }
    minY
    {
        type            calculated;
        value           uniform 0;
    }
    minZ
    {
        type            calculated;
        value           uniform 0;
    }
    maxZ
    {
        type            calculated;
        value           uniform 0;
    }
    oil_to_sphere
    {
        type            calculated;
        value           nonuniform List<scalar> 
360
(
-85.779
-86.2605
-60.6009
-157.034
-167.444
-70.4691
-171.889
-155.122
-166.991
-87.4272
-87.8949
-70.141
-77.8487
-54.6307
-85.6694
-148.662
-169.628
-157.179
-164.426
-54.3857
-136.752
-87.8032
-77.2766
-162.475
-60.9545
-168.518
-70.3126
-165.95
-164.709
-155.747
-176.856
-172.633
-60.7567
-60.1845
-69.4136
-69.7901
-162.683
-161.501
-157.143
-159.709
-163.614
-60.2729
-68.9182
-89.2588
-89.4659
-70.225
-76.2203
-54.1029
-85.9044
-153.886
-70.8219
-70.1768
-77.282
-77.3382
-54.0361
-88.2603
-157.616
-54.3057
-69.186
-75.9598
-54.3053
-165.432
-157.112
-163.98
-54.1044
-142.006
-85.85
-75.0906
-172.096
-163.562
-157.603
-161.463
-160.981
-54.0674
-122.087
-85.1498
-54.7028
-74.1202
-161.689
-166.561
-75.8889
-74.6071
-74.7765
-54.2956
-60.3899
-69.6859
-69.9399
-77.4889
-54.3806
-54.715
-60.4943
-77.6461
-69.9242
-60.4166
-77.0895
-69.7139
-69.7167
-69.8377
-60.0961
-55.2764
-55.1986
-54.3051
-70.6035
-70.3489
-77.9119
-54.3032
-54.8623
-78.0547
-60.3376
-70.1496
-70.0269
-70.0296
-60.217
-54.1722
-55.675
-55.5942
-76.8924
-76.5231
-76.2594
-88.0936
-88.2395
-151.649
-161.558
-146.049
-162.839
-151.702
-162.908
-165.013
-153.518
-160.425
-157.716
-76.2863
-75.8922
-76.0702
-55.0725
-150.964
-164.38
-88.8672
-89.079
-165.831
-153.22
-86.9124
-85.6196
-168.317
-154.394
-177.925
-55.1037
-54.9431
-162.506
-166.489
-177.624
-168.686
-168.743
-175.966
-177.486
-153.65
-85.0196
-167.808
-159.162
-54.582
-165.945
-170.19
-74.3287
-73.1985
-76.2085
-86.9965
-88.0101
-167.927
-154.5
-174.701
-53.8164
-156.94
-88.349
-165.93
-158.48
-53.8536
-171.043
-75.4611
-75.347
-55.3585
-70.1915
-70.4804
-77.6961
-60.7272
-76.9586
-68.8492
-54.4584
-55.2958
-164.784
-154.509
-165.548
-159.226
-87.7327
-87.7947
-162.229
-148.392
-159.54
-86.3213
-86.8435
-54.9128
-69.6515
-70.9953
-77.9963
-70.1675
-69.8828
-77.9137
-60.2777
-77.5105
-69.7195
-59.863
-153.218
-77.7799
-69.6159
-54.5518
-160.927
-152.39
-160.91
-90.2377
-90.2398
-53.8193
-69.2748
-69.3739
-75.7657
-165.287
-59.768
-75.4937
-69.1269
-155.817
-156.938
-89.5676
-54.1637
-88.8753
-54.1391
-55.6768
-76.9529
-60.6295
-68.4032
-68.254
-68.4917
-59.9682
-54.8464
-157.274
-147.537
-165.594
-173.593
-155.362
-146.891
-167.725
-169.607
-86.9506
-159.23
-55.0454
-167.437
-165.516
-166.325
-77.3313
-60.6133
-70.1232
-77.3357
-60.8945
-166.218
-69.6544
-69.6342
-70.036
-60.1464
-168.216
-154.881
-69.5263
-69.5381
-60.0896
-155.314
-175.718
-87.9624
-158.176
-54.3609
-165.073
-162.041
-166.196
-75.3494
-59.9824
-163.762
-69.0825
-69.227
-68.9738
-162.419
-60.1988
-159.844
-89.1806
-147.927
-89.6207
-155.85
-158.877
-161.817
-54.473
-74.2035
-72.8686
-73.6391
-89.1164
-162.886
-88.8747
-157.74
-162.432
-54.8066
-164.014
-166.775
-85.6846
-159.799
-54.8561
-175.733
-75.2287
-74.7916
-53.7673
-157.487
-88.9701
-140.014
-158.072
-88.8868
-54.31
-69.8251
-69.883
-77.7
-163.237
-151.375
-87.5766
-55.0059
-152.442
-88.9482
-54.5734
-153.55
-166.182
-86.2659
-160.382
-53.6524
-173.231
-78.0035
-170.458
-60.2022
-69.9866
-171.08
-159.903
-157.044
-87.3893
-166.707
-165.158
-88.083
-158.031
-73.8216
-75.649
-154.991
-88.5472
-54.0059
-154.959
-88.7532
-54.608
-159.713
-160.832
-151.91
-89.1472
-157.202
-89.3566
)
;
    }
}


// ************************************************************************* //
