/*--------------------------------*- C++ -*----------------------------------*\
| =========                 |                                                 |
| \\      /  F ield         | OpenFOAM: The Open Source CFD Toolbox           |
|  \\    /   O peration     | Version:  v1906                                 |
|   \\  /    A nd           | Web:      www.OpenFOAM.com                      |
|    \\/     M anipulation  |                                                 |
\*---------------------------------------------------------------------------*/
FoamFile
{
    version     2.0;
    format      ascii;
    class       surfaceScalarField;
    location    "84.2/oil";
    object      phi;
}
// * * * * * * * * * * * * * * * * * * * * * * * * * * * * * * * * * * * * * //

dimensions      [1 0 -1 0 0 0 0];
oriented        oriented;


internalField   nonuniform List<scalar> 
80688
(
-2.08722e-06
-2.12215e-06
-2.08722e-06
-9.41528e-07
-5.92424e-07
-5.53268e-07
-2.52338e-07
-3.47087e-07
-3.42103e-07
-1.17811e-07
-6.77704e-08
-6.67566e-08
-3.74597e-08
-4.04155e-08
-3.99357e-08
3.19064e-09
-2.02599e-08
-2.03906e-08
2.60818e-08
-1.1051e-08
-1.18402e-08
3.90171e-08
-5.81934e-09
-7.11608e-09
4.53049e-08
-2.34895e-09
-3.93896e-09
4.63703e-08
2.93167e-10
-1.35869e-09
4.29684e-08
2.49597e-09
9.05888e-10
3.57642e-08
4.32279e-09
2.88127e-09
2.54875e-08
5.76307e-09
4.51361e-09
1.30248e-08
6.77352e-09
5.68906e-09
-5.97705e-10
7.30628e-09
6.31621e-09
-1.42836e-08
7.33743e-09
6.34844e-09
-2.6951e-08
6.87434e-09
5.79297e-09
-3.76237e-08
5.95861e-09
4.7141e-09
-4.5521e-08
4.66627e-09
3.23094e-09
-5.01195e-08
3.09451e-09
1.50398e-09
-5.12013e-08
1.35905e-09
-2.77342e-10
-4.88359e-08
-4.13863e-10
-1.95156e-09
-4.34486e-08
-2.0816e-09
-3.30572e-09
-3.57218e-08
-3.55068e-09
-4.17621e-09
-2.65919e-08
-4.67945e-09
-4.45046e-09
-1.71969e-08
-5.31222e-09
-4.08287e-09
-8.80181e-09
-5.25127e-09
-3.14386e-09
-2.66345e-09
-4.26034e-09
-1.87808e-09
2.644e-10
-2.13752e-09
-7.90383e-10
5.24686e-10
-2.60322e-10
-5.60724e-07
-1.00071e-06
-5.60717e-07
-3.31194e-07
-3.73636e-07
-4.48318e-07
-2.28034e-07
-2.60035e-07
-1.90212e-07
-9.60266e-08
-1.25058e-07
-7.47196e-08
-1.60988e-08
-8.41255e-08
-3.62178e-08
3.43919e-08
-5.81627e-08
-1.25881e-08
6.7387e-08
-4.4266e-08
2.19817e-10
8.77074e-08
-3.46576e-08
8.51773e-09
9.76036e-08
-2.70984e-08
1.48531e-08
9.8152e-08
-2.05302e-08
2.02749e-08
9.01927e-08
-1.46732e-08
2.51284e-08
7.47176e-08
-9.58866e-09
2.93864e-08
5.30868e-08
-5.46978e-09
3.28636e-08
2.70507e-08
-2.5456e-09
3.53552e-08
-1.3321e-09
-9.9448e-10
3.66835e-08
-2.98408e-08
-9.0877e-10
3.67548e-08
-5.62786e-08
-2.27082e-09
3.5583e-08
-7.86653e-08
-4.94941e-09
3.32946e-08
-9.54124e-08
-8.70461e-09
3.01179e-08
-1.05455e-07
-1.32097e-08
2.63473e-08
-1.08345e-07
-1.80849e-08
2.23332e-08
-1.04271e-07
-2.29106e-08
1.84232e-08
-9.40344e-08
-2.72599e-08
1.49413e-08
-7.90107e-08
-3.07005e-08
1.21261e-08
-6.10353e-08
-3.2778e-08
1.01231e-08
-4.2268e-08
-3.29946e-08
8.91507e-09
-2.4996e-08
-3.07874e-08
8.26405e-09
-1.13438e-08
-2.55511e-08
7.63842e-09
-2.84583e-09
-1.67709e-08
6.13533e-09
-5.17345e-09
2.85227e-09
-3.46713e-07
-3.07294e-07
-3.46705e-07
-2.23378e-07
-3.05902e-07
-1.91069e-07
-1.34804e-07
-2.35774e-07
-1.12835e-07
-4.51369e-08
-1.65518e-07
-4.92071e-08
2.01173e-08
-1.33976e-07
-1.54038e-08
6.85456e-08
-1.12366e-07
5.77507e-09
1.02986e-07
-9.78096e-08
1.91028e-08
1.25077e-07
-8.56001e-08
2.88515e-08
1.35454e-07
-7.43687e-08
3.68935e-08
1.34472e-07
-6.36132e-08
4.40649e-08
1.22718e-07
-5.34831e-08
5.05642e-08
1.01257e-07
-4.4413e-08
5.62852e-08
7.17763e-08
-3.69434e-08
6.09539e-08
3.65229e-08
-3.15876e-08
6.42953e-08
-1.80688e-09
-2.87367e-08
6.60719e-08
-4.02906e-08
-2.85908e-08
6.61657e-08
-7.60297e-08
-3.11244e-08
6.45926e-08
-1.06408e-07
-3.60804e-08
6.15092e-08
-1.29333e-07
-4.29851e-08
5.72058e-08
-1.43398e-07
-5.11981e-08
5.20532e-08
-1.48014e-07
-5.99579e-08
4.64889e-08
-1.43415e-07
-6.84339e-08
4.09239e-08
-1.30649e-07
-7.57686e-08
3.57429e-08
-1.11461e-07
-8.10921e-08
3.12039e-08
-8.81556e-08
-8.35144e-08
2.74307e-08
-6.33902e-08
-8.20996e-08
2.43395e-08
-3.99012e-08
-7.58491e-08
2.15726e-08
-2.01914e-08
-6.3689e-08
1.84281e-08
-6.24788e-09
-4.45004e-08
1.37859e-08
-1.76765e-08
6.25512e-09
-6.20336e-08
-1.83237e-07
-6.2024e-08
-7.34343e-08
-2.27396e-07
-6.71054e-08
-3.98024e-08
-2.25222e-07
-4.41834e-08
1.27556e-08
-2.05694e-07
-1.23826e-08
6.21348e-08
-1.9288e-07
9.52505e-09
1.04353e-07
-1.80245e-07
2.5661e-08
1.36806e-07
-1.68029e-07
3.77666e-08
1.58196e-07
-1.54808e-07
4.78182e-08
1.67572e-07
-1.40567e-07
5.68225e-08
1.64485e-07
-1.25728e-07
6.52014e-08
1.49167e-07
-1.11103e-07
7.29364e-08
1.22642e-07
-9.76798e-08
7.97923e-08
8.67675e-08
-8.64734e-08
8.54044e-08
4.414e-08
-7.83831e-08
8.9423e-08
-2.08822e-09
-7.40664e-08
9.15579e-08
-4.84723e-08
-7.38678e-08
9.1661e-08
-9.15896e-08
-7.77561e-08
8.9749e-08
-1.28351e-07
-8.53256e-08
8.60067e-08
-1.56278e-07
-9.58262e-08
8.0768e-08
-1.73719e-07
-1.08227e-07
7.44697e-08
-1.79969e-07
-1.21309e-07
6.76008e-08
-1.75301e-07
-1.33744e-07
6.06414e-08
-1.60902e-07
-1.44166e-07
5.39992e-08
-1.3876e-07
-1.51184e-07
4.79496e-08
-1.11457e-07
-1.53415e-07
4.25971e-08
-8.19354e-08
-1.4943e-07
3.78091e-08
-5.32225e-08
-1.37714e-07
3.31524e-08
-2.81372e-08
-1.16581e-07
2.78066e-08
-9.25438e-09
-8.38524e-08
2.04691e-08
-3.6193e-08
9.26206e-09
-2.71021e-08
-1.29043e-07
-2.70917e-08
-1.99129e-08
-2.13112e-07
-2.14736e-08
1.08245e-08
-2.5078e-07
-5.18039e-09
5.38376e-08
-2.62868e-07
1.4161e-08
9.75053e-08
-2.66382e-07
2.98337e-08
1.36882e-07
-2.62522e-07
4.28997e-08
1.68164e-07
-2.53431e-07
5.41196e-08
1.888e-07
-2.39861e-07
6.44166e-08
1.96986e-07
-2.23005e-07
7.42516e-08
1.91751e-07
-2.04219e-07
8.37268e-08
1.73057e-07
-1.85043e-07
9.26347e-08
1.41897e-07
-1.6711e-07
1.00589e-07
1.00264e-07
-1.51979e-07
1.07139e-07
5.10417e-08
-1.40991e-07
1.1183e-07
-2.22029e-09
-1.35125e-07
1.14321e-07
-5.56272e-08
-1.34887e-07
1.14426e-07
-1.05295e-07
-1.40247e-07
1.12158e-07
-1.47723e-07
-1.50631e-07
1.07734e-07
-1.80104e-07
-1.64982e-07
1.01537e-07
-2.00573e-07
-1.81832e-07
9.40744e-08
-2.08332e-07
-1.9946e-07
8.59094e-08
-2.03672e-07
-2.15983e-07
7.75797e-08
-1.87906e-07
-2.29458e-07
6.95256e-08
-1.63196e-07
-2.37952e-07
6.20575e-08
-1.32341e-07
-2.39541e-07
5.52712e-08
-9.85252e-08
-2.3225e-07
4.90034e-08
-6.50334e-08
-2.13967e-07
4.27607e-08
-3.50512e-08
-1.82174e-07
3.56108e-08
-1.1788e-08
-1.33181e-07
2.60655e-08
-5.97772e-08
1.17962e-08
-3.3411e-09
-1.22373e-07
-3.32969e-09
1.38006e-08
-2.37116e-07
6.86257e-09
4.53414e-08
-3.02163e-07
1.98422e-08
8.58539e-08
-3.36991e-07
3.36109e-08
1.27935e-07
-3.54465e-07
4.60016e-08
1.66621e-07
-3.58649e-07
5.74409e-08
1.97716e-07
-3.52877e-07
6.83514e-08
2.18027e-07
-3.39322e-07
7.91501e-08
2.25231e-07
-3.2018e-07
8.9971e-08
2.17991e-07
-2.97664e-07
1.00684e-07
1.96089e-07
-2.74051e-07
1.1091e-07
1.60494e-07
-2.51633e-07
1.20118e-07
1.13332e-07
-2.32552e-07
1.27735e-07
5.77774e-08
-2.18635e-07
1.332e-07
-2.23846e-09
-2.11202e-07
1.36093e-07
-6.23775e-08
-2.10941e-07
1.36193e-07
-1.18311e-07
-2.17823e-07
1.3351e-07
-1.6613e-07
-2.31102e-07
1.2829e-07
-2.02715e-07
-2.49382e-07
1.20985e-07
-2.26004e-07
-2.70739e-07
1.12195e-07
-2.35116e-07
-2.92919e-07
1.02572e-07
-2.30373e-07
-3.13444e-07
9.27187e-08
-2.13207e-07
-3.29797e-07
8.31731e-08
-1.85951e-07
-3.39464e-07
7.4257e-08
-1.51628e-07
-3.39945e-07
6.6081e-08
-1.13659e-07
-3.28678e-07
5.84596e-08
-7.56299e-08
-3.02843e-07
5.08467e-08
-4.11121e-08
-2.58889e-07
4.2197e-08
-1.39431e-08
-1.91163e-07
3.08127e-08
-8.76723e-08
1.3952e-08
7.59652e-09
-1.37578e-07
7.60903e-09
3.20378e-08
-2.83982e-07
2.24242e-08
6.77263e-08
-3.73287e-07
3.54353e-08
1.10138e-07
-4.26911e-07
4.75078e-08
1.53651e-07
-4.56727e-07
5.87492e-08
1.93561e-07
-4.68342e-07
6.97827e-08
2.25593e-07
-4.65943e-07
8.10334e-08
2.46241e-07
-4.52706e-07
9.27367e-08
2.52875e-07
-4.31663e-07
1.0485e-07
2.43899e-07
-4.05764e-07
1.17076e-07
2.18964e-07
-3.78001e-07
1.28886e-07
1.79045e-07
-3.51314e-07
1.39599e-07
1.2643e-07
-3.28427e-07
1.4849e-07
6.45754e-08
-3.11664e-07
1.54883e-07
-2.17617e-09
-3.02714e-07
1.58263e-07
-6.90266e-08
-3.02443e-07
1.58353e-07
-1.31183e-07
-3.1083e-07
1.55163e-07
-1.8432e-07
-3.26952e-07
1.48985e-07
-2.24997e-07
-3.49064e-07
1.4036e-07
-2.50953e-07
-3.74772e-07
1.29988e-07
-2.61246e-07
-4.01266e-07
1.1864e-07
-2.56244e-07
-4.25494e-07
1.07048e-07
-2.37522e-07
-4.44337e-07
9.5817e-08
-2.07611e-07
-4.54703e-07
8.53277e-08
-1.69772e-07
-4.53501e-07
7.57158e-08
-1.277e-07
-4.37525e-07
6.67749e-08
-8.52982e-08
-4.03145e-07
5.79011e-08
-4.65429e-08
-3.45582e-07
4.79376e-08
-1.58354e-08
-2.5684e-07
3.49693e-08
-1.19353e-07
1.58454e-08
1.34717e-08
-1.64535e-07
1.34853e-08
4.36004e-08
-3.46073e-07
3.19623e-08
8.38414e-08
-4.59488e-07
4.59599e-08
1.29622e-07
-5.30622e-07
5.79303e-08
1.75943e-07
-5.72204e-07
6.9156e-08
2.18164e-07
-5.91134e-07
8.05715e-08
2.51912e-07
-5.92387e-07
9.26961e-08
2.73475e-07
-5.79984e-07
1.05715e-07
2.79944e-07
-5.5761e-07
1.19478e-07
2.69538e-07
-5.28906e-07
1.33548e-07
2.41775e-07
-4.97498e-07
1.47259e-07
1.97655e-07
-4.66971e-07
1.59778e-07
1.39624e-07
-4.40607e-07
1.70212e-07
7.14644e-08
-4.21225e-07
1.7772e-07
-2.06195e-09
-4.10864e-07
1.81676e-07
-7.56651e-08
-4.10597e-07
1.81757e-07
-1.44057e-07
-4.20403e-07
1.77965e-07
-2.02474e-07
-4.39175e-07
1.7064e-07
-2.47146e-07
-4.64816e-07
1.60423e-07
-2.75615e-07
-4.94477e-07
1.48175e-07
-2.869e-07
-5.24794e-07
1.34812e-07
-2.81453e-07
-5.5214e-07
1.21199e-07
-2.61e-07
-5.72822e-07
1.08032e-07
-2.28311e-07
-5.83175e-07
9.57831e-08
-1.86918e-07
-5.79515e-07
8.46219e-08
-1.40809e-07
-5.57966e-07
7.4332e-08
-9.42102e-08
-5.13987e-07
6.42429e-08
-5.14866e-08
-4.41379e-07
5.30737e-08
-1.75425e-08
-3.29476e-07
3.86925e-08
-1.54449e-07
1.75536e-08
1.69778e-08
-1.98506e-07
1.69924e-08
5.15002e-08
-4.189e-07
3.83045e-08
9.60319e-08
-5.57558e-07
5.35388e-08
1.45596e-07
-6.46273e-07
6.60878e-08
1.95298e-07
-6.99814e-07
7.79078e-08
2.40389e-07
-7.2644e-07
9.02151e-08
2.76358e-07
-7.31982e-07
1.03625e-07
2.9926e-07
-7.21195e-07
1.1831e-07
3.05957e-07
-6.98383e-07
1.34075e-07
2.94437e-07
-6.67745e-07
1.50359e-07
2.64133e-07
-6.33524e-07
1.66329e-07
2.16017e-07
-5.99832e-07
1.80977e-07
1.52711e-07
-5.70505e-07
1.93204e-07
7.83246e-08
-5.48845e-07
2.02006e-07
-1.92032e-09
-5.37264e-07
2.06645e-07
-8.22203e-08
-5.37009e-07
2.06712e-07
-1.56767e-07
-5.48067e-07
2.02211e-07
-2.20344e-07
-5.69146e-07
1.93548e-07
-2.6884e-07
-5.97822e-07
1.81502e-07
-2.9962e-07
-6.30769e-07
1.67072e-07
-3.1168e-07
-6.64082e-07
1.51348e-07
-3.05582e-07
-6.93631e-07
1.35392e-07
-2.83251e-07
-7.15186e-07
1.20033e-07
-2.47738e-07
-7.24522e-07
1.05834e-07
-2.02847e-07
-7.17391e-07
9.29844e-08
-1.52866e-07
-6.89213e-07
8.1266e-08
-1.02334e-07
-6.345e-07
6.99811e-08
-5.59633e-08
-5.45443e-07
5.76926e-08
-1.9083e-08
-4.08391e-07
4.2034e-08
-1.92627e-07
1.90952e-08
1.929e-08
-2.37101e-07
1.93053e-08
5.72334e-08
-4.99622e-07
4.2779e-08
1.05483e-07
-6.64973e-07
5.91651e-08
1.58651e-07
-7.71971e-07
7.25294e-08
2.11709e-07
-8.38132e-07
8.52591e-08
2.59772e-07
-8.73267e-07
9.87646e-08
2.98174e-07
-8.84152e-07
1.13768e-07
3.2268e-07
-8.76154e-07
1.30453e-07
3.29935e-07
-8.54176e-07
1.48537e-07
3.177e-07
-8.2289e-07
1.67379e-07
2.85214e-07
-7.87001e-07
1.85963e-07
2.33459e-07
-7.51139e-07
2.03061e-07
1.65213e-07
-7.19634e-07
2.17375e-07
8.49095e-08
-6.96241e-07
2.277e-07
-1.77009e-09
-6.83699e-07
2.33115e-07
-8.84868e-08
-6.83462e-07
2.33169e-07
-1.68901e-07
-6.95521e-07
2.27868e-07
-2.37324e-07
-7.18391e-07
2.17667e-07
-2.89308e-07
-7.49317e-07
2.0348e-07
-3.22081e-07
-7.84534e-07
1.86537e-07
-3.34635e-07
-8.19684e-07
1.68156e-07
-3.27691e-07
-8.50126e-07
1.49552e-07
-3.03427e-07
-8.71174e-07
1.31724e-07
-2.65151e-07
-8.78143e-07
1.15345e-07
-2.16969e-07
-8.66241e-07
1.00668e-07
-1.63448e-07
-8.30221e-07
8.74873e-08
-1.09424e-07
-7.63523e-07
7.4998e-08
-5.98622e-08
-6.56665e-07
6.16611e-08
-2.04303e-08
-4.92743e-07
4.49201e-08
-2.33501e-07
2.04435e-08
2.08586e-08
-2.78833e-07
2.08733e-08
6.13284e-08
-5.85997e-07
4.59049e-08
1.12468e-07
-7.79363e-07
6.32508e-08
1.68598e-07
-9.05538e-07
7.74365e-08
2.24572e-07
-9.85258e-07
9.11534e-08
2.7536e-07
-1.03007e-06
1.06017e-07
3.16086e-07
-1.0477e-06
1.22822e-07
3.42322e-07
-1.04413e-06
1.41745e-07
3.50423e-07
-1.02473e-06
1.62449e-07
3.37887e-07
-9.94519e-07
1.84166e-07
3.03769e-07
-9.58572e-07
2.05689e-07
2.48996e-07
-9.21945e-07
2.25578e-07
1.76445e-07
-8.8935e-07
2.42268e-07
9.08594e-08
-8.64975e-07
2.54319e-07
-1.6262e-09
-8.51841e-07
2.60628e-07
-9.41324e-08
-8.51624e-07
2.60669e-07
-1.79784e-07
-8.64301e-07
2.54431e-07
-2.52422e-07
-8.8823e-07
2.42477e-07
-3.07324e-07
-9.20319e-07
2.25905e-07
-3.41598e-07
-9.56405e-07
2.06145e-07
-3.54266e-07
-9.91763e-07
1.84747e-07
-3.46285e-07
-1.0213e-06
1.63192e-07
-3.20108e-07
-1.04002e-06
1.42672e-07
-2.79317e-07
-1.04288e-06
1.23942e-07
-2.28293e-07
-1.0246e-06
1.07332e-07
-1.71855e-07
-9.79296e-07
9.26364e-08
-1.15006e-07
-8.9939e-07
7.90183e-08
-6.29265e-08
-7.7354e-07
6.47957e-08
-2.15052e-08
-5.81344e-07
4.718e-08
-2.76526e-07
2.15192e-08
2.17859e-08
-3.2242e-07
2.18007e-08
6.37783e-08
-6.75713e-07
4.77235e-08
1.16718e-07
-8.97977e-07
6.56746e-08
1.74783e-07
-1.04415e-06
8.05462e-08
2.328e-07
-1.13853e-06
9.52532e-08
2.85635e-07
-1.19442e-06
1.11517e-07
3.28302e-07
-1.22056e-06
1.30189e-07
3.56199e-07
-1.22352e-06
1.5149e-07
3.6537e-07
-1.20891e-06
1.75015e-07
3.53074e-07
-1.18209e-06
1.9987e-07
3.18127e-07
-1.14829e-06
2.24669e-07
2.61266e-07
-1.11279e-06
2.47706e-07
1.85474e-07
-1.08067e-06
2.67109e-07
9.5691e-08
-1.05634e-06
2.81153e-07
-1.49555e-09
-1.04317e-06
2.88516e-07
-9.8691e-08
-1.04298e-06
2.88548e-07
-1.8849e-07
-1.05576e-06
2.81254e-07
-2.64341e-07
-1.07966e-06
2.67282e-07
-3.21237e-07
-1.11136e-06
2.47938e-07
-3.56228e-07
-1.1464e-06
2.24983e-07
-3.68559e-07
-1.1797e-06
2.00271e-07
-3.59369e-07
-1.20603e-06
1.75542e-07
-3.31415e-07
-1.22013e-06
1.52153e-07
-2.88587e-07
-1.21668e-06
1.3098e-07
-2.35474e-07
-1.19014e-06
1.12425e-07
-1.77031e-07
-1.13399e-06
9.6253e-08
-1.18398e-07
-1.0396e-06
8.15814e-08
-6.4804e-08
-8.93788e-07
6.6654e-08
-2.21699e-08
-6.72487e-07
4.85089e-08
-3.2088e-07
2.21842e-08
2.20309e-08
-3.66498e-07
2.20474e-08
6.43271e-08
-7.66111e-07
4.81018e-08
1.17589e-07
-1.01743e-06
6.61943e-08
1.76125e-07
-1.18413e-06
8.14453e-08
2.34801e-07
-1.29413e-06
9.69246e-08
2.88593e-07
-1.36267e-06
1.14455e-07
3.32493e-07
-1.39937e-06
1.34911e-07
3.61747e-07
-1.41134e-06
1.58563e-07
3.72209e-07
-1.40435e-06
1.84975e-07
3.60809e-07
-1.38383e-06
2.13136e-07
3.26059e-07
-1.35503e-06
2.41486e-07
2.6851e-07
-1.32322e-06
2.67981e-07
1.91048e-07
-1.29362e-06
2.90419e-07
9.87672e-08
-1.2708e-06
3.06735e-07
-1.3852e-09
-1.25834e-06
3.15318e-07
-1.01537e-07
-1.25816e-06
3.15336e-07
-1.93821e-07
-1.27026e-06
3.06791e-07
-2.71274e-07
-1.29273e-06
2.90517e-07
-3.28783e-07
-1.32197e-06
2.68113e-07
-3.63503e-07
-1.35336e-06
2.41685e-07
-3.7486e-07
-1.38178e-06
2.13436e-07
-3.64323e-07
-1.40194e-06
1.85371e-07
-3.3494e-07
-1.40854e-06
1.59026e-07
-2.90852e-07
-1.39623e-06
1.35462e-07
-2.36757e-07
-1.35929e-06
1.15061e-07
-1.77705e-07
-1.29063e-06
9.75888e-08
-1.1874e-07
-1.1807e-06
8.21311e-08
-6.4976e-08
-1.01438e-06
6.68295e-08
-2.22711e-08
-7.63793e-07
4.86005e-08
-3.65437e-07
2.22857e-08
2.14513e-08
-4.09408e-07
2.14582e-08
6.24908e-08
-8.53823e-07
4.6672e-08
1.1421e-07
-1.13342e-06
6.4263e-08
1.71213e-07
-1.3206e-06
7.94633e-08
2.28719e-07
-1.44699e-06
9.53517e-08
2.819e-07
-1.52965e-06
1.13792e-07
3.25886e-07
-1.57912e-06
1.35769e-07
3.55922e-07
-1.60289e-06
1.61519e-07
3.67738e-07
-1.60681e-06
1.9064e-07
3.57982e-07
-1.59609e-06
2.22013e-07
3.24821e-07
-1.57576e-06
2.53896e-07
2.68477e-07
-1.55092e-06
2.84042e-07
1.91581e-07
-1.52658e-06
3.09849e-07
9.92766e-08
-1.50725e-06
3.28756e-07
-1.29392e-09
-1.49652e-06
3.38755e-07
-1.01855e-07
-1.49636e-06
3.38763e-07
-1.94121e-07
-1.50678e-06
3.28784e-07
-2.70969e-07
-1.52578e-06
3.09899e-07
-3.27258e-07
-1.54982e-06
2.84144e-07
-3.60346e-07
-1.57432e-06
2.54047e-07
-3.69988e-07
-1.59432e-06
2.22175e-07
-3.58041e-07
-1.60476e-06
1.90875e-07
-3.27829e-07
-1.60059e-06
1.61835e-07
-2.8363e-07
-1.57658e-06
1.36144e-07
-2.30193e-07
-1.52696e-06
1.14233e-07
-1.72383e-07
-1.44427e-06
9.58289e-08
-1.15011e-07
-1.318e-06
7.99223e-08
-6.2936e-08
-1.13114e-06
6.46844e-08
-2.15979e-08
-8.52127e-07
4.69966e-08
-4.08646e-07
2.16118e-08
1.98606e-08
-4.49137e-07
1.98689e-08
5.7738e-08
-9.34756e-07
4.30563e-08
1.05596e-07
-1.24066e-06
5.93879e-08
1.58593e-07
-1.4475e-06
7.39039e-08
2.12484e-07
-1.5905e-06
8.9621e-08
2.62912e-07
-1.68846e-06
1.08388e-07
3.05352e-07
-1.75276e-06
1.31199e-07
3.35234e-07
-1.79111e-06
1.58335e-07
3.48302e-07
-1.80932e-06
1.89447e-07
3.40963e-07
-1.81222e-06
2.23469e-07
3.11012e-07
-1.80435e-06
2.58533e-07
2.5829e-07
-1.79029e-06
2.92093e-07
1.85031e-07
-1.77445e-06
3.21128e-07
9.6139e-08
-1.76103e-06
3.42671e-07
-1.22212e-09
-1.75332e-06
3.54159e-07
-9.85664e-08
-1.75318e-06
3.54159e-07
-1.87416e-07
-1.7606e-06
3.42674e-07
-2.60601e-07
-1.77373e-06
3.21139e-07
-3.13231e-07
-1.78929e-06
2.92101e-07
-3.43036e-07
-1.80309e-06
2.58578e-07
-3.50209e-07
-1.81073e-06
2.23591e-07
-3.36998e-07
-1.8076e-06
1.89626e-07
-3.06941e-07
-1.78918e-06
1.58536e-07
-2.64261e-07
-1.7507e-06
1.31446e-07
-2.13598e-07
-1.6863e-06
1.08672e-07
-1.59425e-07
-1.58837e-06
8.99268e-08
-1.06169e-07
-1.44546e-06
7.42076e-08
-5.80606e-08
-1.23892e-06
5.96663e-08
-1.99589e-08
-9.33501e-07
4.3272e-08
-4.48578e-07
1.99722e-08
1.70891e-08
-4.83321e-07
1.70944e-08
4.96302e-08
-1.00419e-06
3.68909e-08
9.08164e-08
-1.33286e-06
5.10076e-08
1.3681e-07
-1.55753e-06
6.40359e-08
1.84124e-07
-1.71656e-06
7.87478e-08
2.29113e-07
-1.83033e-06
9.68829e-08
2.67845e-07
-1.91092e-06
1.19424e-07
2.9618e-07
-1.96621e-06
1.46766e-07
3.10022e-07
-2.00177e-06
1.78606e-07
3.05762e-07
-2.02186e-06
2.13905e-07
2.8093e-07
-2.03031e-06
2.50792e-07
2.34777e-07
-2.03081e-06
2.86676e-07
1.69028e-07
-2.02691e-06
3.18215e-07
8.81031e-08
-2.022e-06
3.41898e-07
-1.16389e-09
-2.01871e-06
3.54655e-07
-9.04072e-08
-2.01858e-06
3.5465e-07
-1.71267e-07
-2.02163e-06
3.41889e-07
-2.36907e-07
-2.0263e-06
3.18206e-07
-2.82951e-07
-2.02994e-06
2.86695e-07
-3.07641e-07
-2.02924e-06
2.50839e-07
-3.11763e-07
-2.02057e-06
2.13954e-07
-2.97738e-07
-2.00031e-06
1.7869e-07
-2.69177e-07
-1.96462e-06
1.46885e-07
-2.30258e-07
-1.9092e-06
1.19577e-07
-1.85027e-07
-1.82859e-06
9.70625e-08
-1.37488e-07
-1.71486e-06
7.89461e-08
-9.12399e-08
-1.55594e-06
6.42359e-08
-4.98316e-08
-1.33152e-06
5.11926e-08
-1.71542e-08
-1.00322e-06
3.70371e-08
-4.82898e-07
1.71666e-08
1.30086e-08
-5.09346e-07
1.30165e-08
3.77225e-08
-1.05682e-06
2.7916e-08
6.92509e-08
-1.40316e-06
3.87755e-08
1.04885e-07
-1.64252e-06
4.93593e-08
1.42265e-07
-1.81594e-06
6.19962e-08
1.78643e-07
-1.94494e-06
7.82251e-08
2.10987e-07
-2.04217e-06
9.89093e-08
2.35859e-07
-2.11557e-06
1.24484e-07
2.49636e-07
-2.17034e-06
1.54797e-07
2.48889e-07
-2.21011e-06
1.89e-07
2.30971e-07
-2.23776e-06
2.25373e-07
1.94716e-07
-2.25581e-06
2.61251e-07
1.41134e-07
-2.26656e-06
2.93227e-07
7.38323e-08
-2.27225e-06
3.17548e-07
-1.11716e-09
-2.2745e-06
3.30743e-07
-7.60447e-08
-2.27442e-06
3.30762e-07
-1.43292e-07
-2.27194e-06
3.17552e-07
-1.96748e-07
-2.26604e-06
2.93196e-07
-2.3286e-07
-2.25505e-06
2.61218e-07
-2.50614e-07
-2.23684e-06
2.25354e-07
-2.51179e-07
-2.209e-06
1.88998e-07
-2.3721e-07
-2.1691e-06
1.5482e-07
-2.12135e-07
-2.11424e-06
1.24536e-07
-1.79582e-07
-2.04074e-06
9.89889e-08
-1.42977e-07
-1.94352e-06
7.83279e-08
-1.05402e-07
-1.81455e-06
6.2115e-08
-6.95721e-08
-1.64126e-06
4.94843e-08
-3.78791e-08
-1.4021e-06
3.88937e-08
-1.30574e-08
-1.05605e-06
2.80136e-08
-5.09025e-07
1.30689e-08
7.59592e-09
-5.24533e-07
7.59111e-09
2.20059e-08
-1.08731e-06
1.60839e-08
4.07479e-08
-1.44446e-06
2.25599e-08
6.2614e-08
-1.69405e-06
2.96651e-08
8.64491e-08
-1.87877e-06
3.89959e-08
1.10822e-07
-2.02102e-06
5.17045e-08
1.33773e-07
-2.13372e-06
6.85951e-08
1.52914e-07
-2.22471e-06
9.00019e-08
1.65401e-07
-2.29874e-06
1.15915e-07
1.68257e-07
-2.35866e-06
1.4569e-07
1.58996e-07
-2.40636e-06
1.77857e-07
1.36043e-07
-2.44301e-06
2.10151e-07
9.97236e-08
-2.46958e-06
2.39347e-07
5.24386e-08
-2.48681e-06
2.61848e-07
-1.07837e-09
-2.49522e-06
2.74234e-07
-5.45694e-08
-2.49515e-06
2.74223e-07
-1.01783e-07
-2.48654e-06
2.61812e-07
-1.37981e-07
-2.46913e-06
2.39295e-07
-1.60768e-07
-2.44239e-06
2.10125e-07
-1.69871e-07
-2.40557e-06
1.77829e-07
-1.66804e-07
-2.35771e-06
1.45648e-07
-1.54118e-07
-2.29768e-06
1.15892e-07
-1.34789e-07
-2.22357e-06
9.00041e-08
-1.11617e-07
-2.13254e-06
6.862e-08
-8.70734e-08
-2.01982e-06
5.17488e-08
-6.30346e-08
-1.87764e-06
3.90578e-08
-4.10005e-08
-1.69303e-06
2.97371e-08
-2.21419e-08
-1.4436e-06
2.26358e-08
-7.61965e-09
-1.08672e-06
1.6151e-08
-5.24275e-07
7.63053e-09
9.50961e-10
-5.26432e-07
9.48276e-10
2.81746e-09
-1.09085e-06
1.66931e-09
5.91905e-09
-1.45034e-06
2.77734e-09
1.08052e-08
-1.70429e-06
5.34895e-09
1.77748e-08
-1.89586e-06
1.01223e-08
2.6821e-08
-2.04775e-06
1.76899e-08
3.73864e-08
-2.17285e-06
2.85711e-08
4.8383e-08
-2.27882e-06
4.31079e-08
5.80736e-08
-2.36974e-06
6.13075e-08
6.44289e-08
-2.44785e-06
8.28382e-08
6.52417e-08
-2.51389e-06
1.06721e-07
5.88596e-08
-2.56781e-06
1.31183e-07
4.47081e-08
-2.60908e-06
1.5365e-07
2.38043e-08
-2.6371e-06
1.71197e-07
-1.04326e-09
-2.65126e-06
1.80894e-07
-2.58575e-08
-2.65118e-06
1.80842e-07
-4.66582e-08
-2.63685e-06
1.71114e-07
-6.07048e-08
-2.60866e-06
1.53576e-07
-6.69467e-08
-2.56721e-06
1.31066e-07
-6.59481e-08
-2.51317e-06
1.06601e-07
-5.93992e-08
-2.44702e-06
8.27601e-08
-4.94887e-08
-2.36884e-06
6.12465e-08
-3.83056e-08
-2.27782e-06
4.3065e-08
-2.75248e-08
-2.17187e-06
2.85511e-08
-1.82886e-08
-2.04674e-06
1.76907e-08
-1.11611e-08
-1.89491e-06
1.01391e-08
-6.12529e-09
-1.70345e-06
5.38129e-09
-2.88731e-09
-1.44966e-06
2.82029e-09
-9.69293e-10
-1.09036e-06
1.7143e-09
-5.26224e-07
9.79814e-10
-6.66046e-09
-5.13109e-07
-6.66238e-09
-1.9097e-08
-1.0636e-06
-1.48069e-08
-3.3791e-08
-1.41578e-06
-1.98715e-08
-4.83973e-08
-1.66703e-06
-2.26454e-08
-6.09669e-08
-1.85982e-06
-2.34704e-08
-6.99858e-08
-2.01627e-06
-2.24686e-08
-7.43345e-08
-2.14898e-06
-1.95232e-08
-7.36217e-08
-2.26512e-06
-1.44126e-08
-6.80636e-08
-2.36836e-06
-6.94321e-09
-5.8603e-08
-2.46017e-06
2.85299e-09
-4.67103e-08
-2.54031e-06
1.45263e-08
-3.40075e-08
-2.60765e-06
2.71439e-08
-2.18589e-08
-2.66047e-06
3.92431e-08
-1.09409e-08
-2.69702e-06
4.89945e-08
-1.00164e-09
-2.71572e-06
5.45144e-08
8.96296e-09
-2.71563e-06
5.44906e-08
1.99445e-08
-2.69677e-06
4.89341e-08
3.22426e-08
-2.66012e-06
3.91545e-08
4.51014e-08
-2.60711e-06
2.70377e-08
5.71764e-08
-2.53966e-06
1.44177e-08
6.68304e-08
-2.45943e-06
2.75003e-09
7.25728e-08
-2.36755e-06
-7.03223e-09
7.35014e-08
-2.26426e-06
-1.4484e-08
6.93291e-08
-2.14812e-06
-1.95744e-08
6.04936e-08
-2.01541e-06
-2.24992e-08
4.81002e-08
-1.85903e-06
-2.34823e-08
3.36307e-08
-1.66634e-06
-2.26396e-08
1.90172e-08
-1.41519e-06
-1.98518e-08
6.64782e-09
-1.06321e-06
-1.47776e-08
-5.12939e-07
-6.63718e-09
-1.47699e-08
-4.83566e-07
-1.47736e-08
-4.24117e-08
-1.00367e-06
-3.22937e-08
-7.61109e-08
-1.33816e-06
-4.39174e-08
-1.11581e-07
-1.579e-06
-5.25682e-08
-1.45289e-07
-1.76631e-06
-5.98011e-08
-1.74057e-07
-1.92108e-06
-6.64138e-08
-1.95063e-07
-2.05523e-06
-7.27416e-08
-2.06132e-07
-2.17529e-06
-7.87572e-08
-2.05808e-07
-2.28449e-06
-8.41877e-08
-1.93651e-07
-2.38355e-06
-8.87704e-08
-1.70173e-07
-2.47161e-06
-9.2176e-08
-1.36857e-07
-2.54673e-06
-9.42392e-08
-9.58284e-08
-2.60635e-06
-9.5155e-08
-4.96609e-08
-2.64793e-06
-9.52552e-08
-9.53896e-10
-2.66931e-06
-9.51166e-08
4.77861e-08
-2.66923e-06
-9.51403e-08
9.40429e-08
-2.64774e-06
-9.52853e-08
1.35168e-07
-2.60602e-06
-9.52158e-08
1.6864e-07
-2.54623e-06
-9.43501e-08
1.92296e-07
-2.47102e-06
-9.22935e-08
2.0464e-07
-2.38288e-06
-8.88856e-08
2.0514e-07
-2.28376e-06
-8.42918e-08
1.94283e-07
-2.17456e-06
-7.88445e-08
1.73447e-07
-2.05447e-06
-7.28128e-08
1.44866e-07
-1.92036e-06
-6.64643e-08
1.11301e-07
-1.76564e-06
-5.98314e-08
7.59599e-08
-1.57842e-06
-5.25804e-08
4.23623e-08
-1.33768e-06
-4.39116e-08
1.47622e-08
-1.00334e-06
-3.22726e-08
-4.83426e-07
-1.47507e-08
-2.28055e-08
-4.37953e-07
-2.28077e-08
-6.54712e-08
-9.11444e-07
-4.95599e-08
-1.17954e-07
-1.21796e-06
-6.77212e-08
-1.74243e-07
-1.44042e-06
-8.22829e-08
-2.29233e-07
-1.61528e-06
-9.60458e-08
-2.78077e-07
-1.76161e-06
-1.10634e-07
-3.16266e-07
-1.89024e-06
-1.26808e-07
-3.39731e-07
-2.00712e-06
-1.44703e-07
-3.45294e-07
-2.11487e-06
-1.64059e-07
-3.30926e-07
-2.21381e-06
-1.84114e-07
-2.96119e-07
-2.30265e-06
-2.0377e-07
-2.42077e-07
-2.37895e-06
-2.2182e-07
-1.71667e-07
-2.43989e-06
-2.36874e-07
-8.93926e-08
-2.48252e-06
-2.47683e-07
-8.9633e-10
-2.50448e-06
-2.53321e-07
8.76202e-08
-2.50441e-06
-2.5334e-07
1.69966e-07
-2.48231e-06
-2.47773e-07
2.40469e-07
-2.43954e-06
-2.36987e-07
2.94687e-07
-2.37853e-06
-2.21921e-07
3.2964e-07
-2.3021e-06
-2.03879e-07
3.44169e-07
-2.21319e-06
-1.84221e-07
3.38804e-07
-2.11423e-06
-1.64161e-07
3.15496e-07
-2.00646e-06
-1.44795e-07
2.775e-07
-1.88959e-06
-1.26885e-07
2.28811e-07
-1.76098e-06
-1.10694e-07
1.73972e-07
-1.61471e-06
-9.60895e-08
1.17816e-07
-1.43997e-06
-8.22894e-08
6.54094e-08
-1.21757e-06
-6.77073e-08
2.27992e-08
-9.11181e-07
-4.95459e-08
-4.37839e-07
-2.27875e-08
-3.0045e-08
-3.77861e-07
-3.0047e-08
-8.62196e-08
-7.90212e-07
-6.5057e-08
-1.55755e-07
-1.0594e-06
-8.9022e-08
-2.31119e-07
-1.2561e-06
-1.0896e-07
-3.05882e-07
-1.41168e-06
-1.28832e-07
-3.73671e-07
-1.54285e-06
-1.50963e-07
-4.2823e-07
-1.65912e-06
-1.76554e-07
-4.63743e-07
-1.76565e-06
-2.05961e-07
-4.75281e-07
-1.8646e-06
-2.38732e-07
-4.59285e-07
-1.95609e-06
-2.73717e-07
-4.1422e-07
-2.03857e-06
-3.09148e-07
-3.40867e-07
-2.1097e-06
-3.42605e-07
-2.42956e-07
-2.16654e-06
-3.71256e-07
-1.26779e-07
-2.20634e-06
-3.92362e-07
-8.24618e-10
-2.22681e-06
-4.03628e-07
1.2515e-07
-2.22674e-06
-4.03641e-07
2.41379e-07
-2.20614e-06
-3.92403e-07
3.39403e-07
-2.16625e-06
-3.71319e-07
4.12826e-07
-2.10927e-06
-3.42683e-07
4.5807e-07
-2.0381e-06
-3.09238e-07
4.74225e-07
-1.95554e-06
-2.73807e-07
4.62867e-07
-1.86405e-06
-2.38824e-07
4.27522e-07
-1.76507e-06
-2.06047e-07
3.73121e-07
-1.65856e-06
-1.76627e-07
3.05504e-07
-1.54234e-06
-1.51024e-07
2.30892e-07
-1.41122e-06
-1.28878e-07
1.55626e-07
-1.2557e-06
-1.09007e-07
8.61733e-08
-1.05907e-06
-8.90424e-08
3.00404e-08
-7.90002e-07
-6.50461e-08
-3.77772e-07
-3.00275e-08
-3.56805e-08
-3.06503e-07
-3.56772e-08
-1.02472e-07
-6.46336e-07
-7.70853e-08
-1.85683e-07
-8.70634e-07
-1.05554e-07
-2.76732e-07
-1.03534e-06
-1.2971e-07
-3.68075e-07
-1.16582e-06
-1.54518e-07
-4.52037e-07
-1.27596e-06
-1.82934e-07
-5.2086e-07
-1.37381e-06
-2.16494e-07
-5.67124e-07
-1.4637e-06
-2.55685e-07
-5.84268e-07
-1.5475e-06
-2.99961e-07
-5.67367e-07
-1.62515e-06
-3.47836e-07
-5.13908e-07
-1.69525e-06
-3.96774e-07
-4.24503e-07
-1.7557e-06
-4.4341e-07
-3.0338e-07
-1.80395e-06
-4.83715e-07
-1.58459e-07
-1.83768e-06
-5.1358e-07
-7.444e-10
-1.85503e-06
-5.29498e-07
1.56982e-07
-1.85497e-06
-5.29503e-07
3.01947e-07
-1.8375e-06
-5.13599e-07
4.23131e-07
-1.80368e-06
-4.8375e-07
5.1265e-07
-1.75533e-06
-4.43453e-07
5.66233e-07
-1.69485e-06
-3.96833e-07
5.83276e-07
-1.62469e-06
-3.47896e-07
5.6627e-07
-1.54702e-06
-3.00026e-07
5.20196e-07
-1.46324e-06
-2.5575e-07
4.51511e-07
-1.37332e-06
-2.16553e-07
3.67702e-07
-1.27554e-06
-1.82988e-07
2.76485e-07
-1.16544e-06
-1.54562e-07
1.8555e-07
-1.03502e-06
-1.29738e-07
1.02432e-07
-8.70393e-07
-1.05562e-07
3.56718e-08
-6.46167e-07
-7.70749e-08
-3.06441e-07
-3.56592e-08
-3.88669e-08
-2.28767e-07
-3.88698e-08
-1.11997e-07
-4.89389e-07
-8.3817e-08
-2.03897e-07
-6.63984e-07
-1.14751e-07
-3.05611e-07
-7.92321e-07
-1.41303e-07
-4.08824e-07
-8.93471e-07
-1.69138e-07
-5.04817e-07
-9.7827e-07
-2.01695e-07
-5.84621e-07
-1.05321e-06
-2.40789e-07
-6.39403e-07
-1.12196e-06
-2.8696e-07
-6.61399e-07
-1.18593e-06
-3.39569e-07
-6.4454e-07
-1.24519e-06
-3.96824e-07
-5.85547e-07
-1.2986e-06
-4.55653e-07
-4.84811e-07
-1.34453e-06
-5.119e-07
-3.47051e-07
-1.38113e-06
-5.60579e-07
-1.81378e-07
-1.40663e-06
-5.96721e-07
-6.55092e-10
-1.41971e-06
-6.16043e-07
1.80078e-07
-1.41966e-06
-6.1604e-07
3.45781e-07
-1.40649e-06
-5.96717e-07
4.83606e-07
-1.38094e-06
-5.60568e-07
5.84415e-07
-1.34427e-06
-5.11868e-07
6.43485e-07
-1.29827e-06
-4.55648e-07
6.60466e-07
-1.24482e-06
-3.96853e-07
6.38629e-07
-1.18557e-06
-3.39609e-07
5.83966e-07
-1.12157e-06
-2.87006e-07
5.04338e-07
-1.05286e-06
-2.40834e-07
4.08478e-07
-9.77942e-07
-2.0174e-07
3.05386e-07
-8.93175e-07
-1.69172e-07
2.03784e-07
-7.92092e-07
-1.41329e-07
1.11948e-07
-6.63799e-07
-1.14758e-07
3.8865e-08
-4.89277e-07
-8.38077e-08
-2.28723e-07
-3.88528e-08
-3.87884e-08
-1.51191e-07
-3.87871e-08
-1.12655e-07
-3.32051e-07
-8.34709e-08
-2.06971e-07
-4.55624e-07
-1.14043e-07
-3.12985e-07
-5.45873e-07
-1.40434e-07
-4.22025e-07
-6.15796e-07
-1.68635e-07
-5.24654e-07
-6.73294e-07
-2.02347e-07
-6.10988e-07
-7.23328e-07
-2.43551e-07
-6.7138e-07
-7.68732e-07
-2.92833e-07
-6.97109e-07
-8.10743e-07
-3.49459e-07
-6.81432e-07
-8.49447e-07
-4.11416e-07
-6.20565e-07
-8.84174e-07
-4.75289e-07
-5.14761e-07
-9.13871e-07
-5.36464e-07
-3.6894e-07
-9.3741e-07
-5.8954e-07
-1.92902e-07
-9.53707e-07
-6.2896e-07
-5.61587e-10
-9.62035e-07
-6.50012e-07
1.91783e-07
-9.62001e-07
-6.50003e-07
3.67838e-07
-9.53606e-07
-6.28938e-07
5.1369e-07
-9.37249e-07
-5.8954e-07
6.19559e-07
-9.13668e-07
-5.36476e-07
6.80491e-07
-8.83924e-07
-4.75283e-07
6.96273e-07
-8.49185e-07
-4.11415e-07
6.70643e-07
-8.10465e-07
-3.49473e-07
6.10396e-07
-7.68469e-07
-2.92856e-07
5.24189e-07
-7.23073e-07
-2.43582e-07
4.21692e-07
-6.73064e-07
-2.02381e-07
3.12778e-07
-6.15598e-07
-1.68663e-07
2.0686e-07
-5.45717e-07
-1.40458e-07
1.12618e-07
-4.55506e-07
-1.1405e-07
3.87833e-08
-3.31979e-07
-8.34633e-08
-1.51167e-07
-3.87724e-08
-3.46989e-08
-8.17947e-08
-3.46975e-08
-1.02806e-07
-1.89534e-07
-7.44105e-08
-1.92289e-07
-2.65071e-07
-1.0107e-07
-2.9522e-07
-3.18959e-07
-1.23983e-07
-4.02904e-07
-3.58993e-07