/*--------------------------------*- C++ -*----------------------------------*\
| =========                 |                                                 |
| \\      /  F ield         | OpenFOAM: The Open Source CFD Toolbox           |
|  \\    /   O peration     | Version:  v1906                                 |
|   \\  /    A nd           | Web:      www.OpenFOAM.com                      |
|    \\/     M anipulation  |                                                 |
\*---------------------------------------------------------------------------*/
FoamFile
{
    version     2.0;
    format      ascii;
    class       volScalarField;
    location    "10";
    object      alphat;
}
// * * * * * * * * * * * * * * * * * * * * * * * * * * * * * * * * * * * * * //

dimensions      [1 -1 -1 0 0 0 0];


internalField   nonuniform List<scalar> 
78750
(
5.18699e-06
8.93426e-06
1.97215e-05
1.48892e-05
1.47416e-05
1.52218e-05
1.49462e-05
1.50777e-05
1.52188e-05
1.53758e-05
1.55508e-05
1.5256e-05
1.48693e-05
1.45203e-05
1.42042e-05
1.39165e-05
1.36519e-05
1.34048e-05
1.31694e-05
1.29393e-05
1.27076e-05
1.247e-05
1.22031e-05
1.18975e-05
1.15389e-05
1.11091e-05
1.05849e-05
9.93606e-06
9.12567e-06
8.10623e-06
6.83703e-06
4.77104e-06
2.78975e-06
1.34862e-06
2.76482e-08
1.63713e-07
9.72037e-06
2.47101e-05
3.52753e-05
3.49588e-05
3.70239e-05
4.10737e-05
4.46043e-05
4.74447e-05
4.94414e-05
5.03655e-05
5.08118e-05
5.12051e-05
5.15394e-05
5.18014e-05
5.20308e-05
5.22178e-05
5.23728e-05
5.26171e-05
5.30767e-05
5.36635e-05
5.40033e-05
5.39143e-05
5.34663e-05
5.2517e-05
5.07379e-05
4.77903e-05
4.33933e-05
3.75062e-05
3.05212e-05
2.33437e-05
1.72063e-05
1.28655e-05
6.40845e-06
8.46674e-08
2.56173e-07
9.84781e-06
1.4762e-05
1.55276e-05
1.6247e-05
1.76045e-05
1.93294e-05
2.15839e-05
2.52283e-05
3.28956e-05
4.43629e-05
4.37853e-05
4.33947e-05
4.32418e-05
4.33338e-05
4.36568e-05
4.41893e-05
4.49054e-05
4.57771e-05
4.67759e-05
4.78536e-05
4.89596e-05
5.00454e-05
5.10522e-05
4.76235e-05
4.34829e-05
3.99466e-05
3.60354e-05
3.16329e-05
2.70282e-05
2.26751e-05
1.90952e-05
1.55281e-05
5.3996e-06
9.66504e-08
2.42962e-07
1.47606e-05
1.91072e-05
1.87906e-05
2.00032e-05
2.2381e-05
2.552e-05
2.98206e-05
3.85699e-05
5.32655e-05
5.15198e-05
4.96756e-05
4.79778e-05
4.66007e-05
4.56202e-05
4.5041e-05
4.48508e-05
4.50168e-05
4.54925e-05
4.62249e-05
4.71566e-05
4.82313e-05
4.93799e-05
4.54463e-05
4.21204e-05
3.93716e-05
3.62789e-05
3.27732e-05
2.90731e-05
2.55276e-05
2.26777e-05
2.10786e-05
1.9518e-05
6.21388e-06
1.08917e-07
2.4779e-07
9.86433e-06
2.25966e-05
2.10473e-05
2.14219e-05
2.30349e-05
2.51273e-05
2.68127e-05
2.73903e-05
2.71756e-05
2.72923e-05
3.0097e-05
3.59887e-05
3.45234e-05
3.38514e-05
3.38902e-05
3.44996e-05
3.554e-05
3.68978e-05
3.84835e-05
4.02086e-05
4.1981e-05
4.37386e-05
3.98455e-05
3.64563e-05
3.47012e-05
3.28427e-05
3.04601e-05
2.79439e-05
2.57164e-05
2.41436e-05
2.31782e-05
1.86181e-05
5.09433e-06
1.02427e-07
2.10299e-07
8.73014e-06
2.54516e-05
2.01074e-05
1.79705e-05
1.77172e-05
1.82106e-05
1.87284e-05
1.87965e-05
1.81885e-05
1.72358e-05
1.6826e-05
1.8197e-05
2.22991e-05
2.27076e-05
2.21784e-05
2.24555e-05
2.34326e-05
2.31034e-05
2.05275e-05
1.96613e-05
1.99747e-05
2.07628e-05
2.16477e-05
2.23607e-05
2.28004e-05
2.29077e-05
2.27167e-05
2.24727e-05
2.25608e-05
2.33056e-05
2.44438e-05
2.07823e-05
5.34904e-06
8.88992e-08
1.87915e-07
7.15124e-06
2.64382e-05
2.22124e-05
1.89724e-05
1.77257e-05
1.71882e-05
1.65406e-05
1.54507e-05
1.35299e-05
1.0418e-05
6.84334e-06
4.0718e-06
2.39372e-06
1.58746e-06
1.63271e-06
2.47213e-06
3.33379e-06
4.1334e-06
5.19655e-06
6.77464e-06
9.04715e-06
1.20403e-05
1.52192e-05
1.77446e-05
1.94418e-05
2.06378e-05
2.1515e-05
2.20791e-05
2.25806e-05
2.34571e-05
2.44178e-05
2.00789e-05
5.29494e-06
7.9341e-08
1.69326e-07
6.3908e-06
2.68737e-05
2.01958e-05
1.45888e-05
1.19473e-05
1.04979e-05
8.43956e-06
4.65482e-06
1.4235e-06
3.383e-07
6.5722e-07
5.70337e-07
6.4895e-07
6.87178e-07
1.20979e-06
1.67807e-06
1.59839e-06
1.08877e-06
4.40087e-07
5.18376e-08
1.02333e-08
1.76911e-07
1.39193e-06
3.63974e-06
6.80344e-06
9.68932e-06
1.12359e-05
1.272e-05
1.54842e-05
1.99555e-05
2.45532e-05
2.11068e-05
5.12904e-06
6.81937e-08
1.76987e-07
5.91541e-06
2.36705e-05
2.10086e-05
1.57158e-05
1.09071e-05
5.64825e-06
1.75943e-06
4.30555e-07
3.05283e-07
5.34678e-07
1.29867e-06
4.20091e-06
8.32093e-06
1.28523e-05
1.63624e-05
1.7696e-05
1.67863e-05
1.42877e-05
1.10957e-05
7.86643e-06
4.93503e-06
2.47001e-06
7.03365e-07
4.91127e-07
1.23992e-07
1.51821e-06
4.97296e-06
1.22795e-05
2.04581e-05
2.12704e-05
2.05541e-05
1.94039e-05
6.2536e-06
7.31961e-08
1.90755e-07
5.30377e-06
2.08676e-05
1.48983e-05
8.33917e-06
3.76635e-06
9.19718e-07
5.01122e-07
5.30559e-08
6.81154e-07
3.85623e-06
9.93563e-06
1.80322e-05
2.53796e-05
3.04531e-05
3.33709e-05
3.44745e-05
3.40577e-05
3.24037e-05
2.96377e-05
2.56778e-05
2.05785e-05
1.49898e-05
9.81257e-06
5.53117e-06
2.29751e-06
2.92107e-07
1.4324e-07
2.84128e-08
1.52308e-06
4.86991e-06
9.71147e-06
1.27933e-05
4.73878e-06
9.66863e-08
2.00679e-07
4.61792e-06
1.7562e-05
1.20265e-05
4.90062e-06
1.31348e-06
2.57717e-07
3.9369e-07
4.78706e-07
3.36277e-06
8.44845e-06
1.42195e-05
1.9204e-05
2.31589e-05
2.61664e-05
2.81779e-05
2.91267e-05
2.90498e-05
2.81009e-05
2.65049e-05
2.44735e-05
2.21089e-05
1.93058e-05
1.57203e-05
1.10847e-05
6.08683e-06
2.21183e-06
1.8769e-07
9.4947e-08
4.04976e-08
2.0956e-06
6.94199e-06
1.1291e-05
3.79646e-06
1.17072e-07
2.0413e-07
4.12482e-06
1.48559e-05
6.02142e-06
1.64165e-06
6.72808e-08
2.01682e-07
5.72082e-07
3.68563e-06
9.30506e-06
1.58997e-05
2.18458e-05
2.67479e-05
3.06274e-05
3.34794e-05
3.53365e-05
3.62891e-05
3.64182e-05
3.57495e-05
3.42524e-05
3.18689e-05
2.8562e-05
2.43409e-05
1.92606e-05
1.35102e-05
7.77385e-06
3.24488e-06
6.49796e-07
1.6664e-07
3.52589e-07
7.0255e-07
3.83959e-06
9.62879e-06
2.92181e-06
1.14877e-07
2.15859e-07
3.74891e-06
1.21805e-05
3.66457e-06
6.70254e-07
3.01951e-07
3.1426e-07
2.76951e-06
7.38498e-06
1.29285e-05
1.82438e-05
2.30393e-05
2.73115e-05
3.10356e-05
3.41605e-05
3.65924e-05
3.82263e-05
3.897e-05
3.87685e-05
3.76147e-05
3.55248e-05
3.24823e-05
2.83736e-05
2.30264e-05
1.652e-05
9.76674e-06
4.38109e-06
1.25786e-06
1.99521e-07
2.58046e-07
5.61507e-07
3.53394e-06
8.33077e-06
2.49354e-06
9.81556e-08
2.47317e-07
3.57089e-06
7.8667e-06
1.48064e-06
4.07674e-07
2.97564e-07
2.25559e-06
5.98592e-06
1.05224e-05
1.52461e-05
1.99786e-05
2.44745e-05
2.84669e-05
3.18253e-05
3.45128e-05
3.64906e-05
3.7733e-05
3.82049e-05
3.78581e-05
3.66518e-05
3.45825e-05
3.17192e-05
2.81618e-05
2.39555e-05
1.89902e-05
1.32134e-05
7.37433e-06
2.94322e-06
5.96606e-07
7.70644e-08
9.23416e-09
1.73616e-06
6.83022e-06
2.16477e-06
8.05064e-08
2.98118e-07
3.32501e-06
4.90495e-06
7.51819e-07
1.36512e-07
1.07399e-06
3.29919e-06
6.33951e-06
9.99186e-06
1.44122e-05
1.94092e-05
2.44848e-05
2.91761e-05
3.32115e-05
3.64182e-05
3.86614e-05
3.98435e-05
3.99255e-05
3.89495e-05
3.70449e-05
3.44042e-05
3.12493e-05
2.77943e-05
2.41921e-05
2.04257e-05
1.62613e-05
1.14158e-05
6.35836e-06
2.47234e-06
4.74355e-07
2.94547e-07
8.09659e-07
5.08587e-06
2.03465e-06
7.20975e-08
3.1163e-07
2.96956e-06
6.68281e-06
9.11886e-07
2.09617e-07
8.15918e-07
2.23161e-06
4.30222e-06
7.32829e-06
1.18826e-05
1.79591e-05
2.45297e-05
3.02695e-05
3.4499e-05
3.71503e-05
3.83879e-05
3.84174e-05
3.74533e-05
3.57115e-05
3.34027e-05
3.07164e-05
2.78148e-05
2.48359e-05
2.18971e-05
1.90834e-05
1.6398e-05
1.36204e-05
1.02808e-05
6.27949e-06
2.77199e-06
8.27998e-07
3.71941e-07
1.9564e-06
1.92416e-06
7.00721e-08
2.2674e-07
2.36012e-06
8.48777e-06
2.88974e-06
6.91079e-07
4.00235e-07
6.21942e-07
1.28917e-06
3.04479e-06
6.71599e-06
1.31227e-05
2.20049e-05
3.10289e-05
3.75369e-05
4.08237e-05
4.15545e-05
4.05543e-05
3.84777e-05
3.57876e-05
3.27859e-05
2.96582e-05
2.65099e-05
2.34173e-05
2.04536e-05
1.76836e-05
1.51641e-05
1.29111e-05
1.07763e-05
8.3013e-06
5.28314e-06
2.62188e-06
1.28874e-06
1.70163e-06
2.38433e-06
8.1103e-08
1.31106e-07
2.0432e-06
5.71601e-06
7.04545e-06
2.43348e-06
1.03531e-06
3.57744e-07
5.01965e-07
1.93319e-06
5.2244e-06
1.10365e-05
1.91402e-05
2.77318e-05
3.47506e-05
3.9238e-05
4.11092e-05
4.08087e-05
3.89943e-05
3.62516e-05
3.29866e-05
2.94452e-05
2.58177e-05
2.22606e-05
1.89281e-05
1.59579e-05
1.34541e-05
1.14588e-05
9.87505e-06
8.38593e-06
6.48112e-06
4.1556e-06
2.48147e-06
2.47575e-06
3.69488e-06
1.06626e-07
9.74721e-08
2.09796e-06
5.61531e-06
8.29682e-06
2.16651e-06
3.04307e-07
3.94875e-08
1.06597e-06
3.79199e-06
8.70341e-06
1.51212e-05
2.11845e-05
2.62148e-05
3.07306e-05
3.49279e-05
3.82747e-05
4.00797e-05
4.00729e-05
3.83974e-05
3.536e-05
3.12937e-05
2.6617e-05
2.18303e-05
1.74022e-05
1.36442e-05
1.07155e-05
8.62973e-06
7.18832e-06
5.99169e-06
4.68573e-06
3.32364e-06
2.49821e-06
3.77893e-06
2.79912e-06
1.23875e-07
1.03851e-07
2.04303e-06
5.95994e-06
2.5377e-06
4.34886e-07
4.8646e-07
1.95858e-06
5.32011e-06
1.03938e-05
1.5079e-05
1.81921e-05
2.08131e-05
2.38873e-05
2.75548e-05
3.14412e-05
3.49857e-05
3.76273e-05
3.88777e-05
3.83298e-05
3.57087e-05
3.10588e-05
2.51101e-05
1.90642e-05
1.3822e-05
9.72988e-06
6.84967e-06
5.10454e-06
4.22863e-06
3.78222e-06
3.35803e-06
2.95403e-06
3.38352e-06
1.07909e-05
2.00397e-06
1.03033e-07
1.23814e-07
2.05291e-06
5.08119e-06
1.39729e-06
1.51634e-06
3.31529e-06
6.92974e-06
1.10365e-05
1.36636e-05
1.5312e-05
1.7147e-05
1.96585e-05
2.28262e-05
2.64417e-05
3.02492e-05
3.38933e-05
3.68791e-05
3.85856e-05
3.82634e-05
3.52552e-05
2.96549e-05
2.28649e-05
1.65019e-05
1.12644e-05
7.26633e-06
4.52157e-06
2.98846e-06
2.51309e-06
2.76908e-06
3.16566e-06
3.65834e-06
5.83382e-06
6.96717e-06
1.65517e-06
7.32923e-08
1.44679e-07
3.26726e-06
4.66769e-06
3.01587e-06
4.43052e-06
7.67984e-06
1.1316e-05
1.34942e-05
1.45308e-05
1.54795e-05
1.6978e-05
1.93307e-05
2.25632e-05
2.64253e-05
3.04953e-05
3.42765e-05
3.72247e-05
3.87288e-05
3.80624e-05
3.47013e-05
2.90852e-05
2.27546e-05
1.69397e-05
1.19388e-05
7.77714e-06
4.60416e-06
2.54071e-06
1.56474e-06
1.61525e-06
2.50103e-06
4.22358e-06
8.39469e-06
6.14814e-06
1.68089e-06
5.94762e-08
1.62125e-07
5.16358e-06
7.14384e-06
5.43089e-06
7.41414e-06
1.07046e-05
1.31098e-05
1.38359e-05
1.37832e-05
1.39685e-05
1.50287e-05
1.72883e-05
2.07831e-05
2.52215e-05
3.00091e-05
3.43791e-05
3.75764e-05
3.89919e-05
3.80773e-05
3.45874e-05
2.91842e-05
2.33767e-05
1.82378e-05
1.38315e-05
9.86515e-06
6.33286e-06
3.54183e-06
1.70125e-06
8.22288e-07
8.50858e-07
1.9561e-06
5.4922e-06
4.84595e-06
1.51409e-06
5.68098e-08
1.66579e-07
5.59674e-06
1.19047e-05
8.09348e-06
9.69443e-06
1.26201e-05
1.43749e-05
1.417e-05
1.30916e-05
1.24025e-05
1.28437e-05
1.47527e-05
1.82163e-05
2.30475e-05
2.86383e-05
3.39064e-05
3.77158e-05
3.94085e-05
3.86941e-05
3.55506e-05
3.05373e-05
2.49398e-05
1.99811e-05
1.59698e-05
1.25411e-05
9.26202e-06
6.11452e-06
3.48712e-06
1.68767e-06
7.54654e-07
6.14602e-07
1.68653e-06
3.60323e-06
1.21935e-06
5.7057e-08
1.58598e-07
5.22e-06
2.01275e-05
1.16255e-05
1.16271e-05
1.35506e-05
1.45907e-05
1.3706e-05
1.19061e-05
1.06287e-05
1.06398e-05
1.2203e-05
1.53693e-05
2.00699e-05
2.59794e-05
3.21127e-05
3.69455e-05
3.93776e-05
3.91218e-05
3.6342e-05
3.16217e-05
2.61073e-05
2.10568e-05
1.70475e-05
1.39447e-05
1.12816e-05
8.63643e-06
5.95408e-06
3.61864e-06
2.01535e-06
1.23167e-06
1.39006e-06
3.95654e-06
1.27403e-06
5.80349e-08
1.48284e-07
4.74562e-06
2.42628e-05
1.61054e-05
1.37346e-05
1.40562e-05
1.40554e-05
1.26162e-05
1.05351e-05
9.17e-06
9.19605e-06
1.07583e-05
1.37998e-05
1.82173e-05
2.38574e-05
3.0145e-05
3.57229e-05
3.9121e-05
3.97359e-05
3.76475e-05
3.33275e-05
2.77959e-05
2.24302e-05
1.81142e-05
1.49012e-05
1.24177e-05
1.02254e-05
7.98656e-06
5.71815e-06
3.80452e-06
2.66004e-06
2.54944e-06
5.48997e-06
2.02396e-06
5.81569e-08
1.43507e-07
4.29151e-06
2.18139e-05
2.04963e-05
1.59797e-05
1.45257e-05
1.32242e-05
1.10397e-05
8.79271e-06
7.64325e-06
8.0145e-06
9.84324e-06
1.2942e-05
1.71505e-05
2.24031e-05
2.84473e-05
3.42896e-05
3.8371e-05
3.9707e-05
3.81388e-05
3.40367e-05
2.84116e-05
2.27963e-05
1.82854e-05
1.5026e-05
1.26592e-05
1.07502e-05
8.94129e-06
7.06646e-06
5.29331e-06
4.08354e-06
3.94886e-06
7.19338e-06
3.26511e-06
5.77999e-08
1.4694e-07
3.96341e-06
1.90545e-05
2.31325e-05
1.72715e-05
1.4143e-05
1.16419e-05
9.09733e-06
7.22589e-06
6.71754e-06
7.68491e-06
9.89766e-06
1.3076e-05
1.70646e-05
2.19206e-05
2.76107e-05
3.34096e-05
3.78528e-05
3.97653e-05
3.87278e-05
3.48858e-05
2.91378e-05
2.31834e-05
1.83963e-05
1.50167e-05
1.26731e-05
1.09149e-05
9.36563e-06
7.80729e-06
6.30017e-06
5.22829e-06
5.23796e-06
8.9959e-06
4.58022e-06
5.80196e-08
1.56346e-07
3.6936e-06
1.68099e-05
2.41222e-05
1.74913e-05
1.30675e-05
9.88633e-06
7.49034e-06
6.21493e-06
6.31452e-06
7.69702e-06
1.00458e-05
1.30942e-05
1.68016e-05
2.13614e-05
2.68559e-05
3.26562e-05
3.72992e-05
3.94718e-05
3.85787e-05
3.46477e-05
2.86371e-05
2.24807e-05
1.76582e-05
1.43487e-05
1.21295e-05
1.05515e-05
9.25524e-06
8.01204e-06
6.82791e-06
6.05687e-06
6.42672e-06
1.1306e-05
5.28076e-06
5.95627e-08
1.67766e-07
3.45541e-06
1.50109e-05
2.38295e-05
1.6464e-05
1.14194e-05
8.27502e-06
6.37948e-06
5.69671e-06
6.2576e-06
7.89053e-06
1.0288e-05
1.3251e-05
1.68282e-05
2.12821e-05
2.67357e-05
3.2559e-05
3.72602e-05
3.94769e-05
3.85577e-05
3.44698e-05
2.82156e-05
2.18926e-05
1.70424e-05
1.37792e-05
1.16377e-05
1.01698e-05
9.03478e-06
8.01461e-06
7.09887e-06
6.61527e-06
7.40116e-06
1.35921e-05
5.53258e-06
6.26167e-08
1.76062e-07
3.2085e-06
1.32303e-05
2.33567e-05
1.53461e-05
1.01002e-05
7.22754e-06
5.7612e-06
5.44242e-06
6.20526e-06
7.87778e-06
1.01899e-05
1.30022e-05
1.64253e-05
2.0789e-05
2.62856e-05
3.22722e-05
3.71039e-05
3.9265e-05
3.80841e-05
3.36122e-05
2.70709e-05
2.0726e-05
1.60165e-05
1.29128e-05
1.0911e-05
9.58129e-06
8.61652e-06
7.82663e-06
7.20783e-06
7.04714e-06
8.3411e-06
1.61622e-05
5.46153e-06
6.76363e-08
1.78436e-07
2.97201e-06
1.15748e-05
2.28303e-05
1.43072e-05
9.06494e-06
6.49573e-06
5.33788e-06
5.22116e-06
6.06577e-06
7.73878e-06
1.00127e-05
1.27816e-05
1.61865e-05
2.06059e-05
2.62781e-05
3.24816e-05
3.73637e-05
3.93039e-05
3.77214e-05
3.2834e-05
2.60744e-05
1.97691e-05
1.52096e-05
1.22494e-05
1.03627e-05
9.13239e-06
8.27408e-06
7.62737e-06
7.21878e-06
7.31495e-06
9.07484e-06
1.82898e-05
5.29447e-06
7.47511e-08
1.74489e-07
2.76146e-06
1.00954e-05
2.24825e-05
1.37572e-05
8.41338e-06
5.99808e-06
4.99598e-06
4.97036e-06
5.84503e-06
7.51344e-06
9.75605e-06
1.24695e-05
1.58133e-05
2.02239e-05
2.6023e-05
3.24542e-05
3.74106e-05
3.90865e-05
3.70015e-05
3.16217e-05
2.46692e-05
1.85003e-05
1.41772e-05
1.14213e-05
9.69527e-06
8.60428e-06
7.88977e-06
7.41497e-06
7.22603e-06
7.57512e-06
9.806e-06
2.01096e-05
5.03964e-06
8.42209e-08
1.66437e-07
2.59559e-06
8.99095e-06
2.19865e-05
1.32705e-05
7.79182e-06
5.47015e-06
4.59648e-06
4.69258e-06
5.67506e-06
7.41579e-06
9.68797e-06
1.23998e-05
1.57534e-05
2.02538e-05
2.62663e-05
3.28945e-05
3.77467e-05
3.89545e-05
3.62445e-05
3.03595e-05
2.3282e-05
1.73159e-05
1.32628e-05
1.07268e-05
9.1666e-06
8.20547e-06
7.60747e-06
7.26642e-06
7.23702e-06
7.79213e-06
1.04453e-05
2.12285e-05
4.75734e-06
9.60144e-08
1.56457e-07
2.44043e-06
8.06849e-06
2.07907e-05
1.22923e-05
6.90743e-06
4.80893e-06
4.1833e-06
4.51888e-06
5.70871e-06
7.57013e-06
9.86848e-06
1.25472e-05
1.58764e-05
2.04309e-05
2.65905e-05
3.32955e-05
3.78976e-05
3.85181e-05
3.50872e-05
2.86463e-05
2.1493e-05
1.58297e-05
1.21268e-05
9.86984e-06
8.52946e-06
7.75901e-06
7.34574e-06
7.2074e-06
7.36004e-06
8.14542e-06
1.12787e-05
2.17795e-05
4.44592e-06
1.09645e-07
1.46696e-07
2.2666e-06
7.19688e-06
1.84444e-05
1.01113e-05
5.60573e-06
4.10355e-06
3.92808e-06
4.62342e-06
6.08038e-06
8.05683e-06
1.03444e-05
1.29763e-05
1.63294e-05
2.1046e-05
2.74234e-05
3.40888e-05
3.81767e-05
3.80047e-05
3.37507e-05
2.67632e-05
1.9645e-05
1.43758e-05
1.10632e-05
9.10048e-06
7.98268e-06
7.39871e-06
7.16677e-06
7.22353e-06
7.55285e-06
8.60024e-06
1.22953e-05
2.14919e-05
4.13837e-06
1.2417e-07
1.39161e-07
2.10542e-06
6.51545e-06
1.55157e-05
7.57549e-06
4.48325e-06
3.74888e-06
4.08012e-06
5.14129e-06
6.80596e-06
8.79966e-06
1.09896e-05
1.35393e-05
1.69283e-05
2.18236e-05
2.83528e-05
3.48077e-05
3.82271e-05
3.71724e-05
3.20012e-05
2.4473e-05
1.75275e-05
1.27559e-05
9.88075e-06
8.24489e-06
7.39169e-06
7.05478e-06
7.0842e-06
7.37609e-06
7.91998e-06
9.31388e-06
1.37552e-05
2.02249e-05
3.83389e-06
1.37994e-07
1.35428e-07
2.05965e-06
6.52904e-06
1.2962e-05
5.95668e-06
4.07494e-06
3.96954e-06
4.69979e-06
6.01694e-06
7.73724e-06
9.61662e-06
1.16497e-05
1.41377e-05
1.76379e-05
2.27933e-05
2.94707e-05
3.55841e-05
3.82152e-05
3.62063e-05
3.00754e-05
2.21391e-05
1.55414e-05
1.13009e-05
8.837e-06
7.49701e-06
6.88567e-06
6.78823e-06
7.0843e-06
7.60748e-06
8.40318e-06
1.02505e-05
1.56266e-05
1.81649e-05
3.55519e-06
1.49654e-07
1.35566e-07
2.21541e-06
7.80968e-06
1.15604e-05
5.62007e-06
4.42348e-06
4.69069e-06
5.63398e-06
7.03049e-06
8.64413e-06
1.03177e-05
1.21871e-05
1.46466e-05
1.82856e-05
2.36734e-05
3.03995e-05
3.60981e-05
3.79695e-05
3.49986e-05
2.79099e-05
1.97596e-05
1.36391e-05
9.91906e-06
7.82909e-06
6.76848e-06
6.4126e-06
6.59962e-06
7.18237e-06
7.96131e-06
9.0693e-06
1.15043e-05
1.79389e-05
1.58125e-05
3.30773e-06
1.58015e-07
1.38657e-07
2.58588e-06
1.08473e-05
1.14348e-05
6.12416e-06
5.2167e-06
5.64077e-06
6.62501e-06
7.94792e-06
9.35422e-06
1.08058e-05
1.25413e-05
1.50088e-05
1.88061e-05
2.44145e-05
3.11584e-05
3.64675e-05
3.76696e-05
3.38109e-05
2.5943e-05
1.78063e-05
1.21533e-05
8.83119e-06
7.00225e-06
6.13839e-06
5.98508e-06
6.4349e-06
7.27907e-06
8.33397e-06
9.82673e-06
1.29656e-05
2.02566e-05
1.37184e-05
3.10042e-06
1.6294e-07
1.43686e-07
3.09128e-06
1.5383e-05
1.21691e-05
7.01305e-06
6.16589e-06
6.60329e-06
7.506e-06
8.64767e-06
9.80667e-06
1.1041e-05
1.26515e-05
1.5108e-05
1.89977e-05
2.47254e-05
3.14632e-05
3.65337e-05
3.72959e-05
3.27538e-05
2.43481e-05
1.63243e-05
1.10269e-05
7.96607e-06
6.29909e-06
5.56373e-06
5.56668e-06
6.24053e-06
7.33121e-06
8.68798e-06
1.06351e-05
1.45388e-05
2.20707e-05
1.20404e-05
2.92939e-06
1.64959e-07
1.50297e-07
3.5998e-06
1.99307e-05
1.33116e-05
8.01034e-06
7.09812e-06
7.46164e-06
8.20822e-06
9.11406e-06
1.0017e-05
1.10433e-05
1.25236e-05
1.49245e-05
1.88202e-05
2.4592e-05
3.13654e-05
3.64207e-05
3.7079e-05
3.22585e-05
2.36082e-05
1.56149e-05
1.0425e-05
7.42362e-06
5.77357e-06
5.04978e-06
5.10659e-06
5.90478e-06
7.19597e-06
8.8623e-06
1.12996e-05
1.59284e-05
2.29666e-05
1.07937e-05
2.79375e-06
1.65053e-07
1.58247e-07
3.99004e-06
2.2849e-05
1.48209e-05
9.10514e-06
8.00837e-06
8.22422e-06
8.76512e-06
9.3861e-06
1.00172e-05
1.08224e-05
1.21312e-05
1.43853e-05
1.81414e-05
2.38243e-05
3.06694e-05
3.59948e-05
3.69825e-05
3.23764e-05
2.37262e-05
1.56141e-05
1.02996e-05
7.19216e-06
5.43888e-06
4.61527e-06
4.60077e-06
5.39576e-06
6.79865e-06
8.73392e-06
1.16408e-05
1.6898e-05
2.30758e-05
9.88868e-06
2.68862e-06
1.64151e-07
1.67035e-07
4.21433e-06
2.38575e-05
1.67835e-05
1.03473e-05
8.92077e-06
8.92363e-06
9.21509e-06
9.52593e-06
9.88434e-06
1.046e-05
1.15608e-05
1.35914e-05
1.70838e-05
2.25395e-05
2.94494e-05
3.52797e-05
3.70266e-05
3.31925e-05
2.48511e-05
1.6453e-05
1.07406e-05
7.33812e-06
5.35404e-06
4.31763e-06
4.09296e-06
4.72432e-06
6.07854e-06
8.14444e-06
1.13951e-05
1.71609e-05
2.2712e-05
9.247e-06
2.60859e-06
1.62917e-07
1.75613e-07
4.28206e-06
2.33225e-05
1.9418e-05
1.18789e-05
9.93448e-06
9.64202e-06
9.64743e-06
9.62353e-06
9.68482e-06
1.00018e-05
1.085e-05
1.25835e-05
1.5691e-05
2.07482e-05
2.76252e-05
3.41064e-05
3.69473e-05
3.43459e-05
2.67379e-05
1.80732e-05
1.17651e-05
7.90218e-06
5.57996e-06
4.24566e-06
3.71168e-06
4.02524e-06
5.13566e-06
7.09931e-06
1.04342e-05
1.65376e-05
2.21153e-05
8.78544e-06
2.54578e-06
1.6176e-07
1.82875e-07
4.23746e-06
2.17839e-05
2.2799e-05
1.38108e-05
1.11043e-05
1.04154e-05
1.01093e-05
9.75559e-06
9.49699e-06
9.54246e-06
1.01226e-05
1.15321e-05
1.4196e-05
1.87184e-05
2.53664e-05
3.24672e-05
3.65915e-05
3.55215e-05
2.91049e-05
2.03971e-05
1.33817e-05
8.90591e-06
6.15624e-06
4.46819e-06
3.57275e-06
3.47025e-06
4.18353e-06
5.78737e-06
8.82277e-06
1.4885e-05
2.13605e-05
8.46271e-06
2.49444e-06
1.60886e-07
1.87924e-07
4.12685e-06
1.97818e-05
2.67025e-05
1.62603e-05
1.2523e-05
1.13123e-05
1.06607e-05
9.98202e-06
9.37293e-06
9.12281e-06
9.4242e-06
1.05097e-05
1.27229e-05
1.66322e-05
2.28154e-05
3.03334e-05
3.57958e-05
3.63627e-05
3.14534e-05
2.31243e-05
1.54786e-05
1.02986e-05
7.06223e-06
5.00291e-06
3.74229e-06
3.20873e-06
3.46582e-06
4.55727e-06
6.96646e-06
1.24004e-05
2.04012e-05
8.26365e-06
2.45037e-06
1.60616e-07
1.9057e-07
3.99255e-06
1.78129e-05
3.02998e-05
1.92156e-05
1.42327e-05
1.23423e-05
1.12847e-05
1.02802e-05
9.33573e-06
8.78107e-06
8.81982e-06
9.61907e-06
1.14356e-05
1.47545e-05
2.02925e-05
2.78721e-05
3.45541e-05
3.67592e-05
3.34473e-05
2.58895e-05
1.78302e-05
1.19366e-05
8.1897e-06
5.78124e-06
4.20378e-06
3.29647e-06
3.11251e-06
3.67982e-06
5.34473e-06
9.64175e-06
1.89567e-05
8.22498e-06
2.41492e-06
1.61102e-07
1.91424e-07
3.86169e-06
1.61234e-05
3.26372e-05
2.24538e-05
1.62059e-05
1.34937e-05
1.19583e-05
1.06181e-05
9.36892e-06
8.50983e-06
8.30966e-06
8.87246e-06
1.03721e-05
1.31905e-05
1.80466e-05
2.53286e-05
3.29165e-05
3.66977e-05
3.49257e-05
2.83603e-05
2.01633e-05
1.36214e-05
9.3606e-06
6.64305e-06
4.83133e-06
3.65645e-06
3.11181e-06
3.2526e-06
4.28192e-06
7.39147e-06
1.66888e-05
8.42067e-06
2.39619e-06
1.62044e-07
1.91814e-07
3.75273e-06
1.48079e-05
3.34632e-05
2.55354e-05
1.82852e-05
1.46812e-05
1.26016e-05
1.09078e-05
9.38634e-06
8.27642e-06
7.88647e-06
8.28066e-06
9.55717e-06
1.20019e-05
1.62628e-05
2.30313e-05
3.10768e-05
3.62585e-05
3.59298e-05
3.04078e-05
2.22823e-05
1.51813e-05
1.04164e-05
7.42036e-06
5.45253e-06
4.12627e-06
3.34972e-06
3.19654e-06
3.77482e-06
5.97693e-06
1.39825e-05
8.96445e-06
2.40802e-06
1.63004e-07
1.93231e-07
3.67281e-06
1.3859e-05
3.32884e-05
2.80536e-05
2.02371e-05
1.57813e-05
1.31337e-05
1.10868e-05
9.338e-06
8.05932e-06
7.53493e-06
7.82455e-06
8.9543e-06
1.11341e-05
1.49302e-05
2.11404e-05
2.92443e-05
3.55273e-05
3.65315e-05
3.20165e-05
2.40749e-05
1.65026e-05
1.12611e-05
8.00443e-06
5.92844e-06
4.54661e-06
3.67585e-06
3.36638e-06
3.67718e-06
5.31868e-06
1.19372e-05
9.9096e-06
2.45941e-06
1.63355e-07
1.96944e-07
3.62042e-06
1.32133e-05
3.27246e-05
2.98613e-05
2.18628e-05
1.66768e-05
1.34883e-05
1.11173e-05
9.19982e-06
7.83731e-06
7.24876e-06
7.49012e-06
8.52551e-06
1.05143e-05
1.39591e-05
1.96651e-05
2.75733e-05
3.46061e-05
3.68281e-05
3.3298e-05
2.55867e-05
1.75872e-05
1.18957e-05
8.38981e-06
6.21363e-06
4.81768e-06
3.95145e-06
3.60469e-06
3.80745e-06
5.17201e-06
1.09519e-05
1.11482e-05
2.5466e-06
1.62419e-07
2.03615e-07
3.58533e-06
1.277e-05
3.21285e-05
3.10711e-05
2.3107e-05
1.73282e-05
1.36697e-05
1.10414e-05
9.02846e-06
7.65036e-06
7.0449e-06
7.25542e-06
8.20529e-06
1.003e-05
1.31915e-05
1.84685e-05
2.60748e-05
3.35637e-05
3.68666e-05
3.43143e-05
2.6876e-05
1.84864e-05
1.23735e-05
8.63093e-06
6.35121e-06
4.93764e-06
4.10743e-06
3.80286e-06
4.02161e-06
5.3232e-06
1.08139e-05
1.24343e-05
2.65747e-06
1.59835e-07
2.12996e-07
3.55398e-06
1.24285e-05
3.16327e-05
3.19601e-05
2.41017e-05
1.78292e-05
1.37834e-05
1.09721e-05
8.91833e-06
7.54951e-06
6.92278e-06
7.07485e-06
7.9147e-06
9.57294e-06
1.24835e-05
1.7391e-05
2.46793e-05
3.24394e-05
3.66949e-05
3.51499e-05
2.80912e-05
1.93639e-05
1.28345e-05
8.83993e-06
6.42725e-06
4.9587e-06
4.14173e-06
3.89666e-06
4.19672e-06
5.56488e-06
1.10846e-05
1.35465e-05
2.77612e-06
1.55804e-07
2.2361e-07
3.51222e-06
1.20854e-05
3.12262e-05
3.28347e-05
2.51124e-05
1.83984e-05
1.40116e-05
1.10537e-05
8.96509e-06
7.5749e-06
6.87052e-06
6.89675e-06
7.57882e-06
9.04685e-06
1.1706e-05
1.62678e-05
2.32555e-05
3.12155e-05
3.6331e-05
3.58174e-05
2.93105e-05
2.03646e-05
1.34286e-05
9.15035e-06
6.56042e-06
4.97616e-06
4.10617e-06
3.874e-06
4.2545e-06
5.72573e-06
1.13312e-05
1.45e-05
2.89804e-06
1.51331e-07
2.33005e-07
3.44985e-06
1.16642e-05
3.08025e-05
3.39366e-05
2.64531e-05
1.93007e-05
1.45337e-05
1.13936e-05
9.21431e-06
7.72415e-06
6.85838e-06
6.67594e-06
7.15636e-06
8.41596e-06
1.08187e-05
1.50408e-05
2.17424e-05
2.98892e-05
3.5811e-05
3.63279e-05
3.05651e-05
2.15796e-05
1.42536e-05
9.65915e-06
6.85248e-06
5.09154e-06
4.08052e-06
3.76187e-06
4.14566e-06
5.64644e-06
1.1141e-05
1.55104e-05
3.02873e-06
1.47923e-07
2.3854e-07
3.36414e-06
1.11284e-05
3.01599e-05
3.53139e-05
2.83492e-05
2.07359e-05
1.54698e-05
1.20393e-05
9.66694e-06
7.979e-06
6.87164e-06
6.4139e-06
6.66532e-06
7.70925e-06
9.85408e-06
1.37317e-05
2.01367e-05
2.84674e-05
3.51716e-05
3.66478e-05
3.1718e-05
2.2897e-05
1.5255e-05
1.03545e-05
7.33532e-06
5.38062e-06
4.16659e-06
3.65671e-06
3.92397e-06
5.3063e-06
1.03698e-05
1.67761e-05
3.17385e-06
1.46873e-07
2.38565e-07
3.26122e-06
1.04984e-05
2.91024e-05
3.67268e-05
3.07683e-05
2.27678e-05
1.68613e-05
1.29715e-05
1.02786e-05
8.30191e-06
6.89406e-06
6.1274e-06
6.14487e-06
6.98977e-06
8.90487e-06
1.24627e-05
1.85561e-05
2.703e-05
3.44836e-05
3.67944e-05
3.26411e-05
2.41344e-05
1.62845e-05
1.11242e-05
7.9447e-06
5.84353e-06
4.4286e-06
3.67004e-06
3.71758e-06
4.83821e-06
9.20077e-06
1.83973e-05
3.33932e-06
1.49213e-07
2.33416e-07
3.15467e-06
9.8519e-06
2.76357e-05
3.7772e-05
3.33268e-05
2.51946e-05
1.85646e-05
1.40591e-05
1.0933e-05
8.60268e-06
6.87305e-06
5.81855e-06
5.63753e-06
6.34175e-06
8.10284e-06
1.14274e-05
1.72499e-05
2.57951e-05
3.38713e-05
3.67983e-05
3.31761e-05
2.49853e-05
1.70581e-05
1.17455e-05
8.50502e-06
6.37109e-06
4.84929e-06
3.87933e-06
3.66314e-06
4.45456e-06
8.05615e-06
2.00538e-05
3.52374e-06
1.55679e-07
2.25399e-07
3.06035e-06
9.28018e-06
2.6026e-05
3.82174e-05
3.5484e-05
2.75449e-05
2.02421e-05
1.50497e-05
1.14219e-05
8.71077e-06
6.69185e-06
5.44596e-06
5.16501e-06
5.83736e-06
7.56733e-06
1.08111e-05
1.65134e-05
2.51029e-05
3.35304e-05
3.67192e-05
3.32753e-05
2.52674e-05
1.73622e-05
1.20215e-05
8.82429e-06
6.77924e-06
5.29419e-06
4.23074e-06
3.80332e-06
4.29818e-06
7.283e-06
2.10311e-05
3.70926e-06
1.66462e-07
2.17594e-07
2.99232e-06
8.85406e-06
2.46279e-05
3.81578e-05
3.68838e-05
2.92691e-05
2.14184e-05
1.55831e-05
1.14566e-05
8.40464e-06
6.21215e-06
4.95203e-06
4.75464e-06
5.54748e-06
7.39736e-06
1.07529e-05
1.65651e-05
2.52452e-05
3.36374e-05
3.65845e-05
3.28945e-05
2.4849e-05
1.70516e-05
1.18502e-05
8.79986e-06
6.93119e-06
5.61222e-06
4.60768e-06
4.09776e-06
4.40204e-06
7.02395e-06
2.13379e-05
3.8649e-06
1.81025e-07
2.12812e-07
2.95795e-06
8.60471e-06
2.36774e-05
3.7822e-05
3.73959e-05
2.99132e-05
2.16017e-05
1.52437e-05
1.07339e-05
7.51964e-06
5.41256e-06
4.40177e-06
4.50033e-06
5.56636e-06
7.6842e-06
1.13498e-05
1.7509e-05
2.62992e-05
3.41822e-05
3.63544e-05
3.20106e-05
2.37064e-05
1.61114e-05
1.12303e-05
8.44796e-06
6.82209e-06
5.7373e-06
4.91792e-06
4.47411e-06
4.73362e-06
7.30125e-06
2.18788e-05
3.95784e-06
1.97831e-07
2.12451e-07
2.95281e-06
8.50797e-06
2.31625e-05
3.73121e-05
3.70125e-05
2.9242e-05
2.04504e-05
1.37571e-05
9.17825e-06
6.19793e-06
4.52829e-06
4.01046e-06
4.53839e-06
5.96964e-06
8.45966e-06
1.25953e-05
1.92458e-05
2.80079e-05
3.49207e-05
3.59231e-05
3.05673e-05
2.18844e-05
1.46601e-05
1.02685e-05
7.84616e-06
6.51041e-06
5.70794e-06
5.16309e-06
4.89632e-06
5.27546e-06
8.15224e-06
2.28727e-05
3.97005e-06
2.14036e-07
2.16701e-07
2.96188e-06
8.49958e-06
2.2917e-05
3.65747e-05
3.5645e-05
2.70086e-05
1.77861e-05
1.12546e-05
7.20886e-06
4.90772e-06
3.90093e-06
3.97074e-06
4.94347e-06
6.74897e-06
9.64784e-06
1.4326e-05
2.14566e-05
2.99117e-05
3.55617e-05
3.51677e-05
2.85326e-05
1.95901e-05
1.29709e-05
9.16836e-06
7.13283e-06
6.09291e-06
5.58584e-06
5.36978e-06
5.37107e-06
6.0465e-06
9.66274e-06
2.30579e-05
3.90664e-06
2.26424e-07
2.24053e-07
2.96202e-06
8.49006e-06
2.27464e-05
3.55612e-05
3.31543e-05
2.32054e-05
1.41771e-05
8.59389e-06
5.54041e-06
4.0731e-06
3.71454e-06
4.29352e-06
5.62065e-06
7.73278e-06
1.10281e-05
1.62567e-05
2.37547e-05
3.1652e-05
3.5943e-05
3.39791e-05
2.60103e-05
1.71926e-05
1.1355e-05
8.12402e-06
6.43136e-06
5.65803e-06
5.44195e-06
5.56463e-06
5.90207e-06
7.07189e-06
1.19474e-05
2.13499e-05
3.8012e-06
2.33305e-07
2.31312e-07
2.9309e-06
8.38799e-06
2.25003e-05
3.43336e-05
2.96197e-05
1.86896e-05
1.08148e-05
6.5925e-06
4.53761e-06
3.76399e-06
3.89976e-06
4.80498e-06
6.34317e-06
8.68464e-06
1.23679e-05
1.81267e-05
2.58725e-05
3.30843e-05
3.60021e-05
3.23546e-05
2.33939e-05
1.51252e-05
1.00609e-05
7.27545e-06
5.82729e-06
5.25521e-06
5.30557e-06
5.74031e-06
6.46318e-06
8.3178e-06
1.4966e-05
1.88663e-05
3.70556e-06
2.36011e-07
2.34439e-07
2.85722e-06
8.13005e-06
2.20435e-05
3.29515e-05
2.56011e-05
1.47703e-05
8.47172e-06
5.44065e-06
4.12226e-06
3.80204e-06
4.22648e-06
5.27435e-06
6.91736e-06
9.44939e-06
1.35162e-05
1.97959e-05
2.77275e-05
3.42143e-05
3.57358e-05
3.04981e-05
2.11501e-05
1.36222e-05
9.1743e-06
6.68404e-06
5.36807e-06
4.90281e-06
5.14255e-06
5.84213e-06
6.97395e-06
9.63455e-06
1.82392e-05
1.69502e-05
3.65225e-06
2.38161e-07
2.31063e-07
2.75129e-06
7.73699e-06
2.13027e-05
3.15275e-05
2.20544e-05
1.21047e-05
7.1314e-06
4.91965e-06
4.05431e-06
3.96272e-06
4.49519e-06
5.57933e-06
7.28735e-06
1.00013e-05
1.44498e-05
2.12531e-05
2.93443e-05
3.50627e-05
3.51776e-05
2.86913e-05
1.94613e-05
1.26435e-05
8.6503e-06
6.34767e-06
5.07671e-06
4.62047e-06
4.93505e-06
5.81434e-06
7.31543e-06
1.07487e-05
2.08822e-05
1.58389e-05
3.64731e-06
2.43744e-07
2.21212e-07
2.63311e-06
7.28249e-06
2.03054e-05
3.01448e-05
1.94256e-05
1.04994e-05
6.45643e-06
4.75136e-06
4.12001e-06
4.10192e-06
4.64709e-06
5.74007e-06
7.51866e-06
1.04221e-05
1.52562e-05
2.25885e-05
3.07915e-05
3.56506e-05
3.43833e-05
2.70438e-05
1.81882e-05
1.1988e-05
8.36109e-06
6.21531e-06
4.96263e-06
4.4545e-06
4.73415e-06
5.67433e-06
7.42692e-06
1.14413e-05
2.2385e-05
1.52968e-05
3.67594e-06
2.55341e-07
2.07672e-07
2.53037e-06
6.88485e-06
1.93185e-05
2.88567e-05
1.75978e-05
9.56049e-06
6.14072e-06
4.72523e-06
4.1864e-06
4.17088e-06
4.71641e-06
5.84493e-06
7.73007e-06
1.0857e-05
1.61045e-05
2.39549e-05
3.21278e-05
3.59642e-05
3.33647e-05
2.54592e-05
1.70563e-05
1.14077e-05
8.12907e-06
6.17409e-06
4.98147e-06
4.42925e-06
4.61813e-06
5.51408e-06
7.36811e-06
1.17098e-05
2.29414e-05
1.50549e-05
3.71637e-06