/*--------------------------------*- C++ -*----------------------------------*\
| =========                 |                                                 |
| \\      /  F ield         | OpenFOAM: The Open Source CFD Toolbox           |
|  \\    /   O peration     | Version:  v1906                                 |
|   \\  /    A nd           | Web:      www.OpenFOAM.com                      |
|    \\/     M anipulation  |                                                 |
\*---------------------------------------------------------------------------*/
FoamFile
{
    version     2.0;
    format      ascii;
    class       volScalarField;
    location    "10";
    object      omega;
}
// * * * * * * * * * * * * * * * * * * * * * * * * * * * * * * * * * * * * * //

dimensions      [0 0 -1 0 0 0 0];


internalField   nonuniform List<scalar> 
78750
(
370.65
15.8187
15.9507
15.4695
15.4451
15.3503
15.2755
15.2097
15.1515
15.1
15.0544
15.0138
14.9772
14.9441
14.9142
14.887
14.862
14.8387
14.8164
14.7947
14.7728
14.7504
14.7252
14.6964
14.6627
14.6224
14.5732
14.5125
14.4367
14.3416
14.2235
14.0799
13.9162
13.7745
356.612
529.975
6.80976
7.24353
7.25057
7.10141
6.92106
6.75928
6.62344
6.50941
6.41759
6.3456
6.29003
6.24704
6.21431
6.18999
6.17335
6.16307
6.15828
6.1583
6.16193
6.16809
6.17474
6.17947
6.17902
6.17039
6.15074
6.11681
6.06413
5.98543
5.86835
5.69403
5.44153
5.11438
4.75583
523.54
530.285
5.70847
5.93871
5.92395
5.81598
5.70933
5.62776
5.56962
5.52534
5.49173
5.46611
5.44555
5.4316
5.42603
5.42909
5.44032
5.45899
5.48425
5.51516
5.55079
5.58942
5.6293
5.66866
5.70535
5.73746
5.7622
5.77444
5.76794
5.73453
5.6627
5.53755
5.34644
5.0943
4.78892
524.383
530.244
5.51711
5.80487
5.94215
5.98073
5.97297
5.94508
5.90325
5.84943
5.79014
5.72601
5.65872
5.59717
5.54752
5.51226
5.49141
5.48443
5.49014
5.50691
5.53293
5.5662
5.60479
5.64626
5.68912
5.73085
5.76604
5.78852
5.79107
5.76467
5.69802
5.57888
5.40168
5.17866
4.88998
524.445
530.263
5.39267
5.64796
5.81052
5.90086
5.91963
5.87771
5.78729
5.66202
5.51859
5.37709
5.25923
5.17789
5.12777
5.1047
5.10563
5.12587
5.16085
5.20692
5.26123
5.32086
5.38274
5.44471
5.50628
5.56597
5.61751
5.65349
5.66595
5.64567
5.58332
5.47258
5.31536
5.11768
4.84917
525.027
530.141
5.30612
5.54814
5.69633
5.77181
5.76383
5.68708
5.56281
5.41028
5.24763
5.09191
4.95796
4.85584
4.78644
4.74402
4.72705
4.73552
4.7662
4.81437
4.87779
4.95519
5.04146
5.13228
5.22305
5.30965
5.387
5.44802
5.48402
5.48524
5.44461
5.35977
5.2348
5.07133
4.82508
525.159
530.068
5.2411
5.47996
5.62198
5.70335
5.70731
5.63521
5.50163
5.32277
5.10942
4.87173
4.63133
4.41776
4.26208
4.17654
4.15445
4.18184
4.24179
4.32919
4.44072
4.57259
4.71696
4.86437
5.00179
5.12119
5.22153
5.3022
5.35899
5.38321
5.36509
5.30001
5.19139
5.03822
4.79434
525.528
530.005
5.14479
5.35133
5.45705
5.49304
5.43674
5.28092
5.02183
4.66493
4.29475
4.13738
4.07445
4.15484
4.14218
4.12355
4.15643
4.1868
4.18198
4.14919
4.10046
4.06986
4.07277
4.09642
4.25578
4.48716
4.71719
4.89776
5.01326
5.07345
5.0913
5.07096
5.01328
4.90939
4.71105
525.775
530.031
5.14588
5.3536
5.44415
5.43449
5.2765
4.9284
4.43948
4.18372
4.15432
4.17943
4.26293
4.6049
4.91247
5.13313
5.26794
5.32761
5.32391
5.25851
5.13017
4.93766
4.68974
4.41275
4.1669
4.16
4.09257
4.32139
4.64803
4.92603
5.08241
5.12917
5.08749
4.97082
4.75254
525.964
530.079
5.10087
5.24095
5.23997
5.08236
4.73499
4.29074
4.07835
4.09937
4.20013
4.63091
5.03856
5.30792
5.46304
5.54995
5.59963
5.62867
5.64437
5.64835
5.63701
5.60118
5.52533
5.38809
5.1655
4.84726
4.45905
4.11648
4.11161
4.07816
4.31553
4.60853
4.79357
4.83163
4.7163
526.039
530.114
5.09368
5.19571
5.12811
4.85334
4.39978
4.1709
4.06716
4.177
4.60573
4.96971
5.19883
5.33865
5.42857
5.48789
5.52447
5.54188
5.54223
5.5272
5.49847
5.4573
5.40353
5.33299
5.23298
5.07589
4.82323
4.45482
4.10215
4.10798
4.08217
4.37636
4.65782
4.773
4.71423
526.228
530.128
5.03079
5.04853
4.86997
4.4816
4.10365
4.16321
4.21872
4.73446
5.16584
5.45057
5.63812
5.76367
5.84619
5.89718
5.92415
5.93212
5.92408
5.90103
5.86221
5.80496
5.72477
5.61517
5.46697
5.26536
4.98907
4.62112
4.21514
4.1274
4.07068
4.21131
4.47564
4.63684
4.6397
526.386
530.17
5.00405
4.96697
4.71848
4.28994
4.20877
4.16307
4.66505
5.1124
5.40538
5.59041
5.70616
5.77734
5.81872
5.84048
5.84881
5.84743
5.83841
5.82242
5.7989
5.76549
5.71742
5.64643
5.53931
5.37506
5.12416
4.76753
4.35744
4.1311
4.15633
4.1851
4.43505
4.58653
4.58807
526.586
530.275
4.96279
4.82127
4.46247
4.24634
4.16943
4.6501
5.12238
5.44174
5.6535
5.79583
5.89239
5.95632
5.99583
6.01718
6.02412
6.01926
6.00441
5.98064
5.94831
5.90671
5.85362
5.78442
5.69131
5.56006
5.36587
5.07373
4.6642
4.23604
4.10627
4.07817
4.30436
4.47555
4.50323
526.681
530.439
4.93399
4.68877
4.31471
4.11512
4.40074
4.83957
5.19948
5.46895
5.66926
5.81116
5.90761
5.97024
6.00835
6.02858
6.03551
6.03235
6.02129
6.0036
5.97983
5.94945
5.91065
5.85996
5.7914
5.69508
5.55632
5.35015
5.04262
4.62021
4.20769
4.16653
4.2178
4.39054
4.44144
526.717
530.476
4.97595
4.71954
4.36032
4.15242
4.33916
4.66808
4.98834
5.28418
5.54433
5.74383
5.88209
5.97252
6.02895
6.06085
6.07451
6.07431
6.0634
6.04408
6.01818
5.98674
5.94984
5.90646
5.85418
5.7884
5.70107
5.57746
5.39217
5.10686
4.70244
4.30239
4.16304
4.26946
4.36098
526.608
530.199
4.94687
4.82277
4.56139
4.29155
4.21341
4.28119
4.46964
4.82521
5.23261
5.56916
5.79833
5.94013
6.02465
6.07207
6.09456
6.0992
6.09043
6.07127
6.04404
6.01028
5.97008
5.92246
5.86562
5.79711
5.7143
5.61328
5.48445
5.3022
5.03408
4.67924
4.37936
4.30554
4.3538
526.366
529.886
4.81304
4.83203
4.72303
4.56286
4.37731
4.20182
4.26656
4.66286
5.1493
5.54071
5.79905
5.95274
6.03798
6.08113
6.09774
6.09655
6.08261
6.05873
6.02645
5.98655
5.93981
5.88483
5.81974
5.74341
5.65667
5.56211
5.45886
5.33524
5.16286
4.91516
4.63052
4.4559
4.43579
526.191
529.775
4.74173
4.82239
4.74116
4.50821
4.18593
4.10846
4.48201
5.03966
5.50119
5.79834
5.96727
6.05666
6.09919
6.11461
6.11372
6.10126
6.07941
6.0488
6.0092
5.95944
5.89793
5.82087
5.72441
5.60752
5.47623
5.34455
5.2228
5.1026
4.96098
4.78105
4.58994
4.48952
4.49721
526.479
529.798
4.64634
4.63969
4.46187
4.22776
4.28881
4.74465
5.29552
5.69533
5.92305
6.0379
6.09254
6.11555
6.12148
6.11712
6.10472
6.08419
6.05521
6.01689
5.96755
5.90398
5.82144
5.71182
5.56736
5.38741
5.18939
5.01432
4.89569
4.81957
4.7397
4.63024
4.5275
4.48987
4.49263
527.11
529.866
4.55804
4.49624
4.42968
4.58235
5.00656
5.45592
5.75948
5.92674
6.01324
6.0578
6.0837
6.09896
6.10474
6.10231
6.0924
6.07406
6.04653
6.00837
5.95686
5.887
5.7909
5.65586
5.46928
5.22749
4.95592
4.72771
4.61985
4.61908
4.61821
4.5735
4.51745
4.48247
4.45063
527.908
529.937
4.63038
4.66722
4.83117
5.18126
5.55731
5.82778
5.979
6.0488
6.07559
6.08692
6.09623
6.10494
6.1097
6.1087
6.10136
6.08623
6.06255
6.02906
5.98343
5.92137
5.83635
5.71602
5.5438
5.30356
4.99788
4.6809
4.46425
4.42916
4.49383
4.53747
4.52926
4.49369
4.43199
528.528
529.998
4.79687
4.93969
5.19115
5.52349
5.79388
5.95502
6.02409
6.03277
6.0191
6.01387
6.0269
6.04979
6.07072
6.08398
6.08886
6.08418
6.06983
6.0453
6.00939
5.95957
5.89204
5.7993
5.66781
5.47811
5.21032
4.86991
4.52163
4.29337
4.25758
4.3367
4.40728
4.42582
4.39294
528.973
530.014
4.93205
5.14171
5.41251
5.72246
5.94539
6.05133
6.0635
6.0196
5.9658
5.94324
5.96256
6.00423
6.04499
6.07441
6.09168
6.0971
6.09155
6.07553
6.04889
6.0105
5.95854
5.89052
5.79838
5.66901
5.4824
5.21733
4.87634
4.52179
4.27575
4.20343
4.2507
4.30951
4.33137
529.099
529.987
5.0049
5.24609
5.50525
5.79269
5.98772
6.0593
6.0281
5.93903
5.8524
5.82164
5.85761
5.92711
5.99394
6.04296
6.0733
6.08806
6.0894
6.07902
6.05772
6.0253
5.98105
5.92448
5.85213
5.7575
5.62893
5.44956
5.20104
4.88797
4.57282
4.35534
4.28059
4.2935
4.31656
528.883
529.953
5.02196
5.28297
5.52938
5.78571
5.95882
6.01373
5.96372
5.85306
5.75733
5.7395
5.80212
5.89766
5.98424
6.0465
6.08506
6.10528
6.11049
6.10334
6.08533
6.05677
6.01732
5.96689
5.90455
5.82636
5.72573
5.59275
5.41191
5.1731
4.89312
4.64087
4.47642
4.4058
4.36817
528.463
529.937
5.00974
5.28652
5.52313
5.74242
5.8877
5.92154
5.85063
5.72191
5.63208
5.6516
5.75433
5.87506
5.97409
6.04186
6.08247
6.1034
6.10854
6.10095
6.08244
6.05361
6.01438
5.96521
5.90649
5.83621
5.75016
5.64131
5.49902
5.3124
5.08354
4.85213
4.66197
4.53707
4.43731
528.121
529.95
5.00155
5.27977
5.50033
5.68429
5.79752
5.80446
5.71492
5.59393
5.55385
5.63673
5.77635
5.9076
6.0057
6.07009
6.10781
6.12668
6.13024
6.12132
6.10167
6.07181
6.03152
5.98113
5.92234
5.85443
5.77514
5.67941
5.55778
5.40002
5.2047
4.99503
4.79947
4.64397
4.49965
527.948
529.983
5.00334
5.26988
5.4688
5.62012
5.70136
5.6823
5.58562
5.49685
5.51734
5.64359
5.79472
5.92225
6.01427
6.07406
6.10869
6.12528
6.12677
6.11574
6.09379
6.06133
6.01803
5.96443
5.90304
5.83434
5.75771
5.66992
5.56302
5.4271
5.25857
5.07438
4.88529
4.71853
4.54959
527.949
530.023
5.01025
5.25707
5.43203
5.555
5.6094
5.57428
5.49019
5.44942
5.52218
5.67222
5.82579
5.94926
6.03707
6.09383
6.12657
6.14155
6.14156
6.12902
6.10541
6.07091
6.02496
5.96799
5.90349
5.83268
5.75611
5.672
5.57371
5.45205
5.30244
5.13482
4.95031
4.77832
4.59449
528.045
530.051
5.01115
5.2375
5.3908
5.49193
5.52913
5.49092
5.42816
5.42326
5.51947
5.67461
5.82553
5.94588
6.03185
6.0878
6.12031
6.1349
6.13424
6.12069
6.09557
6.05883
6.00975
5.94893
5.88065
5.80698
5.72967
5.64848
5.5585
5.45209
5.32515
5.17611
4.9997
4.82893
4.63798
528.207
530.06
5.00195
5.21059
5.34597
5.43154
5.45993
5.42653
5.38392
5.40165
5.51057
5.67087
5.82471
5.94757
6.03557
6.09303
6.12675
6.14169
6.14086
6.12672
6.10054
6.06209
6.01047
5.94642
5.87503
5.79895
5.72071
5.64088
5.55568
5.45911
5.34897
5.21348
5.04428
4.87636
4.68206
528.405
530.047
4.98281
5.17935
5.30125
5.37581
5.39946
5.37037
5.33921
5.36875
5.4859
5.65233
5.8105
5.93605
6.02543
6.08348
6.11755
6.13232
6.13096
6.11591
6.08827
6.04754
5.99268
5.92491
5.84992
5.77141
5.69308
5.61663
5.5394
5.4566
5.36608
5.24509
5.08454
4.92117
4.72651
528.643
530.021
4.95747
5.1481
5.26007
5.32439
5.33951
5.30755
5.28467
5.3325
5.4701
5.64951
5.81372
5.94112
6.03032
6.08757
6.12104
6.13481
6.13226
6.11581
6.08631
6.04299
5.98465
5.91323
5.83502
5.75475
5.677
5.60386
5.53342
5.46282
5.38661
5.27607
5.12293
4.96395
4.77061
528.911
529.988
4.92138
5.10665
5.20843
5.25875
5.2578
5.22252
5.2225
5.30755
5.47601
5.66666
5.83006
5.95197
6.03495
6.08695
6.1165
6.12694
6.12149
6.10217
6.06939
6.02188
5.95829
5.88186
5.79946
5.71761
5.64242
5.57687
5.51945
5.46848
5.40695
5.30553
5.15911
5.00393
4.81269
529.216
529.956
4.8696
5.03806
5.1228
5.15443
5.1424
5.13099
5.18818
5.32847
5.52679
5.71858
5.87114
5.98038
6.05272
6.09726
6.1214
6.1275
6.11839
6.09552
6.05872
6.00613
5.9364
5.85443
5.76784
5.68505
5.61337
5.55631
5.51295
5.4802
5.4293
5.33381
5.19284
5.04042
4.85117
529.547
529.932
4.81153
4.94859
5.01068
5.03079
5.03978
5.09427
5.22495
5.4098
5.61465
5.78941
5.91955
6.00937
6.0672
6.10202
6.1188
6.11917
6.10514
6.0774
6.03495
5.97522
5.89723
5.808
5.71645
5.63394
5.56964
5.52777
5.50778
5.49407
5.4517
5.35945
5.2228
5.07177
4.88322
529.903
529.921
4.77445
4.88272
4.93179
4.96487
5.03048
5.15996
5.33805
5.53492
5.72064
5.86606
5.96929
6.03883
6.08299
6.10933
6.11975
6.11499
6.09632
6.06363
6.01508
5.94736
5.86077
5.76345
5.667
5.58559
5.53006
5.50543
5.50941
5.50953
5.47175
5.3803
5.24727
5.09686
4.90765
530.264
529.923
4.77911
4.88193
4.93997
5.00802
5.13093
5.30098
5.48311
5.66235
5.81537
5.92803
6.00549
6.05687
6.08948
6.10853
6.11325
6.10362
6.08021
6.04214
5.98652
5.90939
5.81278
5.70624
5.60494
5.52684
5.48516
5.4857
5.5128
5.52313
5.48683
5.39449
5.26464
5.11459
4.92352
530.616
529.934
4.82327
4.94363
5.02583
5.13139
5.28611
5.45919
5.61979
5.77027
5.88955
5.97379
6.03037
6.06826
6.09324
6.10792
6.10913
6.09629
6.06943
6.02696
5.96499
5.879
5.77253
5.65625
5.54872
5.47222
5.44339
5.46892
5.5129
5.5297
5.49346
5.4005
5.27401
5.12474
4.9316
530.938
529.952
4.88933
5.03595
5.14387
5.2774
5.44108
5.59856
5.73003
5.84905
5.93858
5.99922
6.03962
6.06815
6.08879
6.10103
6.10042
6.0858
6.05672
6.01096
5.94374
5.85003
5.73413
5.60768
5.49249
5.41598
5.39926
5.44679
5.50418
5.52598
5.49019
5.39821
5.27553
5.12759
4.93302
531.218
529.976
4.9611
5.13297
5.26195
5.41318
5.57483
5.71269
5.81624
5.90587
5.96996
6.01173
6.04044
6.06346
6.08274
6.09546
6.09566
6.08163
6.05262
6.00604
5.93653
5.83821
5.71441
5.5768
5.44898
5.36404
5.351
5.41181
5.48012
5.5082
5.47574
5.38772
5.26996
5.12436
4.9299
531.446
530.004
5.02921
5.22368
5.36934
5.53059
5.68634
5.80501
5.88347
5.94344
5.98432
6.01001
6.02971
6.04957
6.0694
6.0848
6.0881
6.07689
6.05028
6.00567
5.93747
5.83892
5.71104
5.56417
5.42074
5.31769
5.29419
5.35835
5.43646
5.47433
5.44978
5.36945
5.25848
5.11687
4.92432
531.62
530.035
5.09027
5.30564
5.46479
5.63069
5.78034
5.88355
5.93916
5.97042
5.99016
6.00175
6.01416
6.03253
6.05474
6.07464
6.0834
6.07739
6.05565
6.01592
5.95289
5.85898
5.73188
5.57941
5.41938
5.28822
5.23399
5.28521
5.36916
5.42098
5.41045
5.34237
5.24112
5.10619
4.9177
531.74
530.064
5.14246
5.37855
5.54908
5.71644
5.86163
5.95281
5.98864
5.99164
5.98889
5.98547
5.99011
6.00702
6.03236
6.05787
6.07417
6.07552
6.06082
6.02849
5.97407
5.88988
5.7705
5.62024
5.44992
5.28951
5.18964
5.20256
5.27989
5.34607
5.35536
5.30464
5.21685
5.09223
4.91043
531.812
530.09
5.18501
5.44245
5.62249
5.78889
5.9312
6.01483
6.03643
6.01588
5.98783
5.96792
5.96366
5.97844
6.00687
6.03853
6.06369
6.07392
6.06765
6.04408
5.99998
5.92845
5.82218
5.68155
5.51178
5.33136
5.18346
5.13301
5.1808
5.2518
5.28285
5.25413
5.18369
5.07346
4.90176
531.839
530.107
5.21754
5.49676
5.68452
5.84852
5.98924
6.06972
6.08296
6.04488
5.98919
5.94924
5.93324
5.9441
5.97485
6.01253
6.04701
6.06726
6.07035
6.05618
6.02289
5.96497
5.87498
5.74963
5.59152
5.40809
5.22713
5.10765
5.09976
5.15231
5.19695
5.19146
5.14099
5.04846
4.89089
531.828
530.117
5.24113
5.54126
5.73552
5.89662
6.03562
6.1157
6.12554
6.07654
5.99807
5.93454
5.90449
5.90977
5.94176
5.98518
6.02784
6.05824
6.07078
6.06561
6.04219
5.99653
5.92188
5.81322
5.67233
5.50055
5.31118
5.14453
5.06766
5.07468
5.11127
5.12203
5.09094
5.01748
4.87792
531.78
530.121
5.25786
5.57638
5.77658
5.93502
6.07101
6.15136
6.16083
6.10616
6.0121
5.92321
5.8773
5.87562
5.90777
5.95586
6.00571
6.0457
6.06727
6.07031
6.05538
6.01989
5.95811
5.86444
5.73974
5.58519
5.40573
5.22389
5.09292
5.04616
5.05164
5.06134
5.04262
4.98519
4.86449
531.699
530.123
5.27125
5.60459
5.81034
5.96616
6.09741
6.17675
6.18626
6.12861
6.02454
5.91545
5.85421
5.84618
5.87835
5.93032
5.98593
6.03379
6.06318
6.07307
6.06479
6.03689
5.98455
5.90209
5.7894
5.64996
5.48624
5.31035
5.15565
5.06973
5.03605
5.02667
5.00808
4.95934
4.85379
531.59
530.129
5.28479
5.62901
5.83951
5.99222
6.1172
6.1934
6.20171
6.14164
6.0312
5.90947
5.83435
5.82168
5.8541
5.90902
5.96912
6.0227
6.05838
6.07371
6.07035
6.04777
6.00189
5.92689
5.82159
5.69171
5.54119
5.37907
5.22549
5.12362
5.06156
5.02639
4.99625
4.94695
4.8489
531.47
530.143
5.30127
5.6527
5.86608
6.01565
6.13332
6.20446
6.20961
6.14631
6.03125
5.9027
5.81843
5.8039
5.8369
5.89367
5.95689
6.01455
6.05507
6.07453
6.07464
6.05553
6.01369
5.94312
5.84153
5.71591
5.57207
5.42146
5.28001
5.17995
5.10807
5.05335
5.0067
4.94949
4.85037
531.361
530.166
5.32177
5.67724
5.89191
6.03822
6.14894
6.21356
6.21412
6.14718
6.02908
5.89756
5.80795
5.79173
5.82365
5.88055
5.94572
6.00666
6.0513
6.07426
6.07712
6.06052
6.02136
5.95344
5.85329
5.72837
5.58618
5.44129
5.31126
5.22233
5.15579
5.09335
5.03253
4.96411
4.85693
531.283
530.198
5.34546
5.70288
5.91812
6.06158
6.16661
6.22461
6.22094
6.15133
6.03193
5.89908
5.8038
5.78243
5.81022
5.86591
5.93298
5.99762
6.04683
6.07364
6.07949
6.06546
6.02888
5.9634
5.86434
5.7383
5.59384
5.44806
5.32314
5.24513
5.19109
5.13121
5.06272
4.98419
4.86565
531.245
530.234
5.36933
5.72815
5.94461
6.08656
6.18796
6.2417
6.23561
6.16544
6.04616
5.91082
5.8052
5.77122
5.79052
5.84376
5.91342
5.98313
6.03848
6.07051
6.0805
6.07008
6.03717
5.97556
5.87961
5.75369
5.60643
5.45471
5.32575
5.25106
5.2103
5.15962
5.09013
5.00493
4.87525
531.242
530.266
5.38915
5.75053
5.97033
6.11301
6.21352
6.26676
6.26052
6.19239
6.0738
5.93293
5.81092
5.75469
5.76116
5.81133
5.88502
5.96195
6.02572
6.06489
6.08059
6.07521
6.04749
5.99179
5.9019
5.77982
5.63284
5.47385
5.33152
5.24619
5.21274
5.17438
5.11023
5.02359
4.8864
531.258
530.284
5.4005
5.76693
5.99331
6.13941
6.24168
6.29761
6.29419
6.23023
6.11229
5.96308
5.81978
5.73271
5.7218
5.76782
5.84664
5.93271
6.00701
6.05516
6.07799
6.07885
6.05753
6.00936
5.92829
5.81462
5.67437
5.5138
5.35571
5.24547
5.20628
5.17718
5.1223
5.03959
4.9005
531.277
530.285
5.40044
5.77469
6.01101
6.16291
6.26868
6.32943
6.332
6.27241
6.15513
5.99672
5.83007
5.7073
5.67519
5.71635
5.8016
5.89862
5.98466
6.04286
6.07347
6.08089
6.06614
6.02566
5.95411
5.85132
5.72394
5.5719
5.40655
5.2673
5.20704
5.17677
5.13024
5.05491
4.91933
531.288
530.268
5.38939
5.77295
6.02123
6.18006
6.2895
6.3548
6.36357
6.30786
6.19134
6.02446
5.83589
5.67928
5.62522
5.66324
5.75683
5.86578
5.963
6.03048
6.06793
6.0808
6.0713
6.03684
5.97294
5.88033
5.76792
5.63326
5.47658
5.32256
5.23335
5.18812
5.14286
5.07432
4.94497
531.291
530.243
5.37164
5.76389
6.0236
6.18865
6.30051
6.36831
6.38098
6.32717
6.20902
6.03226
5.82356
5.64206
5.57399
5.61713
5.72324
5.84398
5.95003
6.02359
6.06501
6.08074
6.07381
6.04224
5.98216
5.89595
5.79616
5.68126
5.54532
5.39727
5.2895
5.22313
5.16953
5.1032
4.97906
531.301
530.218
5.35418
5.75262
6.02038
6.18881
6.30047
6.36733
6.37944
6.32304
6.19592
6.00288
5.77373
5.58139
5.52357
5.58813
5.7119
5.8423
5.95203
6.02603
6.0668
6.08153
6.07348
6.04078
5.97994
5.89591
5.80376
5.70604
5.59584
5.46989
5.36449
5.28286
5.21481
5.14456
5.02216
531.337
530.204
5.3444
5.74559
6.01547
6.18227
6.28954
6.35051
6.35496
6.28623
6.13822
5.91903
5.67477
5.50089
5.48858
5.59002
5.73138
5.86528
5.97084
6.03848
6.07344
6.083
6.06984
6.03157
5.96514
5.87935
5.79184
5.70873
5.62352
5.52909
5.44399
5.3586
5.27606
5.19723
5.07272
531.421
530.204
5.34478
5.74496
6.01033
6.16968
6.26753
6.31635
6.30344
6.20797
6.02426
5.77658
5.54352
5.43512
5.49184
5.6293
5.77839
5.90659
6.00014
6.05606
6.08136
6.08248
6.0608
6.01289
5.93663
5.8461
5.76131
5.69237
5.63425
5.5788
5.52062
5.44071
5.34721
5.25736
5.12645
531.565
530.219
5.35341
5.74864
6.00333
6.14949
6.2322
6.261
6.21784
6.07928
5.85542
5.60412
5.43149
5.42358
5.5419
5.69658
5.839
5.95308
6.03042
6.07255
6.08674
6.07786
6.04541
5.98484
5.89626
5.79954
5.71683
5.66272
5.63414
5.62244
5.59343
5.52267
5.42253
5.32036
5.17738
531.77
530.243
5.36361
5.74939
5.98815
6.11615
6.17835
6.17908
6.09435
5.9093
5.66974
5.46594
5.38888
5.46859
5.61664
5.76741
5.89514
5.99289
6.05462
6.08409
6.08789
6.06896
6.02479
5.95026
5.84946
5.74611
5.66512
5.62695
5.63186
5.66233
5.65988
5.59942
5.4973
5.38285
5.22112
532.017
530.267
5.36702
5.7392
5.95845
6.06529
6.10391
6.07226
5.94594
5.73821
5.52767
5.40319
5.41321
5.53519
5.68458
5.82283
5.93729
6.02116
6.07073
6.09051
6.08597
6.05826
6.00312
5.91598
5.80545
5.6953
5.61432
5.59045
5.63125
5.69634
5.71652
5.66695
5.56772
5.44326
5.25824
532.27
530.277
5.35487
5.71087
5.91015
5.99689
6.01403
5.95467
5.80478
5.61058
5.45635
5.40001
5.45874
5.58904
5.73034
5.85837
5.96414
6.039
6.08061
6.094
6.08367
6.04933
5.98573
5.88975
5.77294
5.65691
5.5723
5.55578
5.6253
5.71843
5.75996
5.72327
5.63129
5.50058
5.29323
532.505
530.266
5.32465
5.66391
5.84629
5.9181
5.92103
5.84705
5.69815
5.54017
5.43767
5.41832
5.49322
5.62025
5.75528
5.8783
5.97987
6.04963
6.08662
6.09623
6.08234
6.04369
5.97483
5.87458
5.75593
5.63656
5.54532
5.52588
5.60975
5.72417
5.78783
5.76823
5.68709
5.55562
5.33188
532.714
530.234
5.27851
5.60136
5.77113
5.83437
5.83197
5.75833
5.62887
5.50959
5.43983
5.43393
5.51116
5.63495
5.7681
5.8901
5.99008
6.05689
6.09097
6.0982
6.08199
6.04051
5.96872
5.86777
5.75191
5.63478
5.53942
5.51052
5.59253
5.71817
5.80272
5.8043
5.73657
5.6093
5.37704
532.901
530.19
5.2255
5.53265
5.69276
5.75213
5.75107
5.68799
5.58533
5.49591
5.44262
5.44092
5.51996
5.6449
5.77965
5.90217
6.00056
6.06413
6.09506
6.09959
6.08069
6.03605
5.96135
5.86064
5.75032
5.64171
5.5506
5.51579
5.58642
5.71154
5.81126
5.83436
5.78168
5.66225
5.42901
533.079
530.147
5.17428
5.46566
5.61672
5.67437
5.67784
5.62909
5.55179
5.48226
5.43761
5.44367
5.53221
5.66371
5.80108
5.92274
6.0165
6.07419
6.09985
6.09975
6.07617
6.02618
5.94629
5.84457
5.74011
5.6451
5.56962
5.54284
5.60408
5.71981
5.82469
5.86421
5.8251
5.71467
5.48602
533.257
530.115
5.1348
5.41097
5.55209
5.60796
5.61581
5.57922
5.52038
5.46259
5.4271
5.45399
5.56108
5.70117
5.83802
5.95421
6.0385
6.0866
6.10406
6.09659
6.06536
6.00646
5.91756
5.81234
5.71302
5.63515
5.5862
5.58659
5.65136
5.75667
5.857
5.90207
5.87015
5.76583
5.54193
533.439
530.099
5.10938
5.37071
5.50056
5.55374
5.56432
5.53611
5.48857
5.44114
5.42478
5.48718
5.61513
5.75866
5.88813
5.99279
6.0631
6.09849
6.10525
6.08788
6.04581
5.97383
5.87187
5.76081
5.66662
5.60961
5.59703
5.64039
5.72327
5.82401
5.91512
5.95343
5.91938
5.81469
5.58948
533.623
530.1
5.10032
5.3484
5.46646
5.51582
5.52668
5.50403
5.46492
5.43464
5.44989
5.54861
5.68709
5.82367
5.93952
6.02886
6.08352
6.10557
6.10096
6.07239
6.01711
5.92874
5.81146
5.69363
5.60565
5.57435
5.60895
5.70218
5.81043
5.91216
5.99279
6.01579
5.97145
5.85863
5.62191
533.796
530.112
5.10033
5.33655
5.44431
5.49064
5.5022
5.48666
5.4614
5.45608
5.50604
5.62282
5.75649
5.87926
5.98102
6.05547
6.09648
6.10722
6.09252
6.05317
5.98412
5.87875
5.74725
5.62219
5.54076
5.53838
5.62784
5.76774
5.9016
6.00813
6.07718
6.0809
6.02177
5.8941
5.63589
533.946
530.127
5.10728
5.33566
5.43746
5.48393
5.50043
5.49503
5.48619
5.50067
5.56942
5.68395
5.8053
5.91541
6.00681
6.07095
6.10284
6.10593
6.0841
6.03642
5.95603
5.83715
5.69437
5.56115
5.48159
5.50285
5.64186
5.82194
5.97951
6.0938
6.15203
6.13865
6.06495
5.91926
5.63566
534.068
530.133
5.11144
5.3369
5.43858
5.48971
5.5162
5.5235
5.527
5.54766
5.6157
5.7192
5.82973
5.93258
6.01901
6.07834
6.10586
6.10539
6.08021
6.02821
5.9418
5.81615
5.66661
5.52368
5.43448
5.46079
5.63119
5.8451
6.02753
6.15383
6.20743
6.18393
6.09979
5.93821
5.63315
534.165
530.126
5.11377
5.34392
5.45089
5.50994
5.54791
5.56493
5.57093
5.58391
5.63885
5.73059
5.83532
5.9364
6.02227
6.08081
6.10752
6.10662
6.08119
6.02869
5.94169
5.81606
5.66596
5.51598
5.40781
5.41248
5.58401
5.82222
6.03409
6.18108
6.24048
6.21615
6.12825
5.95754
5.64043
534.244
530.103
5.1088
5.34798
5.46294
5.53067
5.57901
5.60169
5.60392
5.60443
5.64561
5.73009
5.83362
5.93576
6.02289
6.08212
6.10919
6.1087
6.08386
6.03214
5.94661
5.82396
5.67828
5.52974
5.40884
5.37983
5.52133
5.76244
6.00174
6.17754
6.25409
6.2381
6.1535
5.98181
5.66315
534.321
530.078
5.10675
5.35775
5.48057
5.55518
5.60947
5.63196
5.62546
5.61317
5.64623
5.72985
5.83558
5.93913
6.02664
6.08526
6.11136
6.1099
6.08413
6.03156
5.94549
5.8234
5.68156
5.54051
5.42324
5.37678
5.48048
5.69992
5.95034
6.15296
6.25273
6.25127
6.17503
6.00845
5.69633
534.404
530.059
5.1077
5.36761
5.49469
5.57295
5.62834
5.64637
5.63107
5.61332
5.65218
5.743
5.85192
5.95402
6.03824
6.09248
6.11433
6.10879
6.07888
6.0217
5.9301
5.80237
5.65905
5.52505
5.42426
5.39097
5.48134
5.67513
5.91714
6.13135
6.24817
6.25967
6.19193
6.03182
5.72886
534.492
530.06
5.12514
5.3903
5.51764
5.59505
5.646
5.65509
5.63291
5.61953
5.67527
5.77446
5.88193
5.97758
6.05446
6.101
6.1158
6.10355
6.06657
6.00091
5.89827
5.75816
5.60704
5.47642
5.39761
5.40227
5.51217
5.69861
5.92664
6.13482
6.25298
6.26781
6.20308
6.04518
5.74624
534.567
530.081
5.15036
5.41398
5.53844
5.61262
5.65752
5.66062
5.64141
5.64354
5.71666
5.8164
5.91499
6.00098
6.06903
6.1072
6.11444
6.09484
6.0497
5.97351
5.85639
5.69964
5.53602
5.40514
5.35071
5.4074
5.55766
5.75628
5.97582
6.167
6.27076
6.2773
6.20758
6.0433
5.73648
534.61
530.122
5.18846
5.44899
5.57111
5.64314
5.68447
5.68731
5.67605
5.69013
5.76159
5.84925
5.9359
6.01393
6.07594
6.10902
6.1117
6.08745
6.03665
5.95233
5.82326
5.65148
5.47195
5.33261
5.29455
5.40103
5.59715
5.81723
6.03425
6.20584
6.28837
6.2809
6.20065
6.02234
5.69765
534.609
530.165
5.22152
5.47964
5.60256
5.67597
5.7203
5.72921
5.72392
5.7348
5.79022
5.86121
5.93789
6.01244
6.0741
6.10798
6.11161
6.08821
6.03782
5.95307
5.82209
5.644
5.44844
5.28427
5.22991
5.35512
5.5926
5.84112
6.06278
6.22177
6.28903
6.27133
6.18197
5.98963
5.64668
534.573
530.196
5.25247
5.51843
5.64735
5.72657
5.77924
5.79439
5.785
5.77442
5.79803
5.84914
5.91876
5.99504
6.06205
6.10351
6.11441
6.09819
6.05563
5.98052
5.86136
5.69238
5.49036
5.29194
5.1742
5.24609
5.49567
5.7861
6.03344
6.19752
6.26335
6.24503
6.15467
5.95771
5.60655
534.515
530.198
5.26366
5.54583
5.6851
5.77286
5.83517
5.85646
5.84018
5.80486
5.79002
5.81959
5.88305
5.96393
6.04014
6.09398
6.11636
6.11106
6.08053
6.02071
5.92257
5.77828
5.59339
5.38509
5.19684
5.13948
5.30996
5.61467
5.91584
6.12318
6.21276
6.20799
6.12772
5.93935
5.5947
534.461
530.173
5.265
5.57165
5.72598
5.82323
5.89372
5.92066
5.89736
5.83688
5.77924
5.78273
5.83909
5.92572
6.01257
6.08018
6.11513
6.12072
6.10141
6.05574
5.97698
5.85858
5.7035
5.5217
5.32244
5.16157
5.16943
5.38144
5.69761
5.97382
6.12243
6.15354
6.0988
5.93466
5.61222
534.43
530.133
5.25363
5.58191
5.75166
5.85618
5.93023
5.95978
5.93074
5.85242
5.76535
5.74749
5.80202
5.89648
5.99292
6.0704
6.1145
6.12744
6.1149
6.07714
6.00946
5.90618
5.77099
5.61893
5.45351
5.28665
5.18724
5.24949
5.48184
5.78024
5.99434
6.07753
6.05979
5.93137
5.64423
534.437
530.102
5.25352
5.59855
5.77892
5.88621
5.9584
5.98363
5.94319
5.84602
5.74118
5.71958
5.78537
5.89071
5.99302
6.07353
6.11979
6.13399
6.12235
6.08597
6.02075
5.92078
5.79015
5.64947
5.51266
5.38521
5.28685
5.27165
5.39051
5.635
5.87176
5.99619
6.01169
5.91828
5.67178
534.469
530.091
5.2647
5.61601
5.79669
5.89984
5.96336
5.97381
5.91207
5.79727
5.69867
5.71101
5.80427
5.91886
6.01846
6.09245
6.13181
6.13975
6.12211
6.07969
6.00777
5.89967
5.76178
5.62068
5.50113
5.41539
5.36887
5.3636
5.42615
5.59724
5.80748
5.93999
5.96951
5.89733
5.68237
534.508
530.112
5.30124
5.65087
5.82198
5.91386
5.96022
5.94364
5.85562
5.74169
5.68693
5.75019
5.86237
5.97126
6.05734
6.11661
6.14315
6.14013
6.11214
6.05869
5.97305
5.84717
5.6925
5.54359
5.43715
5.39368
5.41509
5.45883
5.52398
5.65346
5.81716
5.92354
5.94224
5.87006
5.66217
534.522
530.162
5.34868
5.68688
5.84023
5.91475
5.93714
5.8928
5.79903
5.72336
5.73499
5.82837
5.93354
6.02267
6.09089
6.13462
6.14802
6.1335
6.09416
6.02759
5.92408
5.77477
5.59849
5.43948
5.34944
5.35832
5.45038
5.54822
5.63883
5.75419
5.87272
5.93542
5.92559
5.83121
5.60355
534.497
530.234
5.40336
5.72682
5.86346
5.92285
5.92709
5.87439
5.80334
5.77373
5.81778
5.90183
5.98311
6.05266
6.10758
6.14141
6.14671
6.12499
6.07817
6.00205
5.88438
5.71565
5.5184
5.34453
5.26459
5.32476
5.47602
5.61964
5.73674
5.8444
5.92416
5.94493
5.90248
5.77482
5.51635
534.435
530.309
5.45091
5.76249
5.88956
5.94186
5.94148
5.90041
5.85871
5.85033
5.8858
5.94418
6.00248
6.0595
6.10905
6.14088
6.14549
6.12371
6.07694
6.0004
5.88095
5.70644
5.49287
5.29038
5.1844
5.25509
5.45306
5.64304
5.78466
5.88817
5.94225
5.93533
5.8681
5.71205
5.42954
534.355
530.363
5.48413
5.79609
5.92616
5.98524
5.99833
5.97902
5.95449
5.93802
5.93573
5.95731
5.9934
6.04298
6.09424
6.1319
6.14422
6.13062
6.09307
6.0281
5.92425
5.76613
5.55422
5.31931
5.13823
5.13007
5.32546
5.57242
5.76022
5.87548
5.92105
5.90309
5.8255
5.65778
5.36699
534.261
530.374
5.49542
5.82516
5.97038
6.04545
6.08036
6.07904
6.05865
6.02208
5.97648
5.95281
5.96312
6.00489
6.06202
6.111
6.13726
6.1372
6.11432
6.06792
5.9907
5.86883
5.69076
5.46078
5.21296
5.05203
5.11411
5.35964
5.62046
5.79661
5.86747
5.85861
5.78671
5.62519
5.34149
534.172
530.336
5.47841
5.83878
6.01081
6.10655
6.16523
6.18362
6.16938
6.11904
6.03696
5.95605
5.92627
5.95193
6.01374
6.07732
6.12003
6.1353
6.12711
6.09802
6.04523
5.96055
5.83329
5.65541
5.42252
5.17031
5.02031
5.10288
5.35249
5.60783
5.75532
5.78922
5.74508
5.60981
5.34847
534.094
530.27
5.44471
5.83868
6.04449
6.1603
6.23656
6.27336
6.26497
6.20854
6.10431
5.97831
5.89674
5.89859
5.96134
6.03889
6.09666
6.12567
6.12888
6.11154
6.07396
6.01215
5.92059
5.79619
5.62774
5.40722
5.16839
5.03964
5.11955
5.35106
5.57529
5.6831
5.6882
5.59658
5.37297
534.046
530.203
5.40808
5.8276
6.06371
6.19643
6.2839
6.3335
6.33158
6.27384
6.15592
5.9985
5.87241
5.85755
5.92448
6.01326
6.0811
6.11715
6.12575
6.11363
6.08306
6.03208
5.95723
5.8588
5.73527
5.58034
5.38566
5.1874
5.09805
5.18596
5.39153
5.55604
5.61344
5.57066
5.39683
534.02
530.161
5.39406
5.82854
6.0809
6.22192
6.3125
6.36412
6.36021
6.29234
6.15338
5.97032
5.83377
5.83472
5.91967
6.01583
6.08306
6.11534
6.1205
6.10587
6.07439
6.02483
5.95467
5.86519
5.76066
5.64433
5.51056
5.35744
5.22979
5.19499
5.305
5.4638
5.54829
5.5409
5.4141
534.018
530.152
5.40908
5.84846
6.1007
6.23947
6.32554
6.36931
6.35034
6.25408
6.08015
5.88945
5.80039
5.85349
5.95852
6.04805
6.09924
6.1164
6.1101
6.08689
6.04891
5.99437
5.92065
5.82883
5.72891
5.63365
5.54646
5.46094
5.37155
5.30327
5.33088
5.43977
5.51495
5.51814
5.41946
534.03
530.183
5.45395
5.88878
6.12679
6.2528
6.32438
6.34419
6.2851
6.1393
5.94661
5.81121
5.82439
5.92679
6.02623
6.08768
6.11078
6.10695
6.08595
6.05179
6.00456
5.94072
5.85662
5.75459
5.65201
5.57152
5.52495
5.50787
5.47695
5.42971
5.42529
5.48038
5.52008
5.50803
5.40634
534.053
530.25
5.52163
5.94479
6.15744
6.26055
6.3056
6.284
6.17443
6.00637
5.86573
5.83583
5.9215
6.01807
6.07963
6.1037
6.10025
6.07917
6.04656
6.00337
5.9475
5.87332
5.77491
5.65947
5.55392
5.49231
5.4946
5.53667
5.55503
5.53916
5.53238
5.54627
5.54311
5.49729
5.36401
534.06
530.332
5.58254
5.98547
6.16956
6.24855
6.26497
6.20548
6.07848
5.95163
5.90092
5.93972
6.01821
6.07237
6.09376
6.09126
6.07219
6.0415
6.00211
5.95325
5.89098
5.80695
5.69481
5.56639
5.45761
5.41627
5.47008
5.55916
5.61491
5.62659
5.62162
5.60462
5.563
5.47659
5.30075
534.058
530.424
5.64562
6.03222
6.19429
6.2558
6.25281
6.17901
6.07439
6.00556
5.99832
6.03002
6.06579
6.07996
6.07695
6.06239
6.03774
6.00437
5.9634
5.91368
5.85004
5.76252