/*--------------------------------*- C++ -*----------------------------------*\
| =========                 |                                                 |
| \\      /  F ield         | OpenFOAM: The Open Source CFD Toolbox           |
|  \\    /   O peration     | Version:  v1906                                 |
|   \\  /    A nd           | Web:      www.OpenFOAM.com                      |
|    \\/     M anipulation  |                                                 |
\*---------------------------------------------------------------------------*/
FoamFile
{
    version     2.0;
    format      ascii;
    class       volScalarField;
    location    "87";
    object      omega;
}
// * * * * * * * * * * * * * * * * * * * * * * * * * * * * * * * * * * * * * //

dimensions      [0 0 -1 0 0 0 0];


internalField   nonuniform List<scalar> 
78750
(
352.333
13.5856
13.6277
13.666
13.7015
13.7338
13.7624
13.7873
13.8086
13.8265
13.8413
13.8531
13.8622
13.8686
13.8726
13.8743
13.8737
13.8709
13.866
13.8592
13.8504
13.84
13.8276
13.8134
13.7974
13.7797
13.7604
13.7394
13.7168
13.6927
13.668
13.6456
13.633
13.6417
356.715
516.992
4.17575
4.28817
4.39163
4.48299
4.56063
4.62513
4.67785
4.72007
4.75283
4.77706
4.7936
4.80321
4.8066
4.80443
4.79743
4.78629
4.77148
4.75337
4.73236
4.70881
4.68302
4.655
4.625
4.59312
4.55939
4.52384
4.48668
4.44762
4.40546
4.35854
4.30533
4.25026
4.20828
523.973
516.996
4.20697
4.34298
4.46586
4.57252
4.66106
4.73178
4.78671
4.82849
4.85947
4.88137
4.89543
4.90251
4.90334
4.89855
4.88876
4.87463
4.85681
4.83595
4.81269
4.78767
4.76141
4.73427
4.70639
4.67762
4.64759
4.61576
4.5815
4.54393
4.50145
4.4516
4.39326
4.3336
4.28579
524.461
517.013
4.26599
4.43778
4.58579
4.70645
4.79991
4.86984
4.92111
4.95787
4.98302
4.99843
5.00534
5.00465
4.99704
4.98321
4.96389
4.93989
4.91215
4.88167
4.84954
4.81691
4.78498
4.75475
4.72672
4.70067
4.67573
4.65055
4.62353
4.59277
4.55579
4.50965
4.45379
4.39686
4.34785
524.874
517.029
4.32023
4.52087
4.68634
4.81327
4.90517
4.96996
5.01516
5.0459
5.06513
5.07449
5.07495
5.06706
5.05138
5.02854
4.99943
4.96514
4.92694
4.88626
4.84468
4.80397
4.76607
4.73274
4.70485
4.68219
4.66359
4.6471
4.63019
4.60988
4.58269
4.54506
4.49654
4.44545
4.39671
525.251
517.05
4.37393
4.59862
4.77699
4.90717
4.99715
5.05878
5.10104
5.12893
5.14497
5.15035
5.14563
5.13116
5.10746
5.07531
5.03587
4.99062
4.94122
4.88957
4.83775
4.78816
4.74349
4.70591
4.67634
4.65456
4.63947
4.62907
4.6205
4.61011
4.59348
4.56619
4.52702
4.48232
4.43393
525.588
517.068
4.41756
4.66048
4.84844
4.98119
5.07041
5.13048
5.17098
5.19673
5.20994
5.21151
5.20172
5.18083
5.1494
5.10849
5.0596
5.00458
4.94551
4.88469
4.82475
4.76871
4.71976
4.67983
4.64933
4.62797
4.6149
4.60844
4.60595
4.60356
4.59631
4.57885
4.54878
4.50993
4.46225
525.912
517.086
4.45898
4.71868
4.91557
5.05109
5.14021
5.19942
5.23871
5.26275
5.27348
5.27152
5.25697
5.23005
5.19151
5.14268
5.08537
5.02177
4.95433
4.88578
4.81929
4.75858
4.70692
4.6653
4.63355
4.61132
4.59808
4.59277
4.59332
4.59618
4.59608
4.58684
4.56459
4.53089
4.48463
526.218
517.102
4.4933
4.7669
4.9717
5.11044
5.20054
5.25988
5.29872
5.32164
5.3304
5.32543
5.30672
5.27455
5.22981
5.17411
5.10956
5.03867
4.96424
4.88945
4.8181
4.75466
4.70194
4.65978
4.62746
4.60445
4.59038
4.5847
4.58607
4.59159
4.59612
4.59292
4.57687
4.5477
4.5039
526.505
517.117
4.52731
4.81456
5.02697
5.16873
5.25964
5.31891
5.35714
5.37882
5.38555
5.3776
5.35488
5.31773
5.2672
5.20513
5.13395
5.05646
4.97586
4.89577
4.82073
4.75589
4.70304
4.66108
4.62876
4.60531
4.59036
4.58369
4.58459
4.59088
4.59791
4.59875
4.58738
4.56221
4.52164
526.774
517.131
4.55824
4.85772
5.07717
5.22209
5.31422
5.37384
5.41179
5.43251
5.43748
5.42685
5.40049
5.35878
5.30293
5.23501
5.1577
5.07413
4.98788
4.90308
4.82503
4.7595
4.70717
4.6661
4.63455
4.61139
4.59612
4.58861
4.58858
4.59451
4.60242
4.6056
4.59758
4.57588
4.53889
527.021
517.146
4.58909
4.9003
5.12623
5.27383
5.36687
5.42665
5.46421
5.48394
5.48719
5.47399
5.44415
5.39811
5.33725
5.26379
5.18069
5.09137
4.99976
4.91054
4.8298
4.76385
4.7123
4.67255
4.64234
4.62017
4.60529
4.59752
4.59675
4.60195
4.60978
4.61407
4.60831
4.58947
4.55593
527.25
517.16
4.61883
4.941
5.17301
5.32325
5.41733
5.47742
5.51474
5.53362
5.5353
5.51971
5.48665
5.43659
5.37104
5.2924
5.20383
5.10904
5.01233
4.9188
4.83535
4.76884
4.71803
4.67972
4.65117
4.63048
4.61661
4.6092
4.60814
4.61267
4.62001
4.62462
4.62026
4.60367
4.57309
527.462
517.175
4.64801
4.98042
5.21791
5.37041
5.46533
5.52569
5.56281
5.58094
5.58121
5.56344
5.52741
5.47365
5.40375
5.32028
5.22656
5.12656
5.02489
4.92714
4.84092
4.77366
4.72348
4.68666
4.65999
4.64117
4.62884
4.6224
4.62163
4.62584
4.63264
4.63713
4.63355
4.61858
4.59031
527.66
517.19
4.67678
5.01895
5.26166
5.41634
5.51217
5.57288
5.60989
5.62737
5.62636
5.6066
5.56785
5.5107
5.43682
5.34887
5.25034
5.14538
5.03888
4.93683
4.84747
4.77898
4.72904
4.69349
4.6687
4.65195
4.64152
4.63656
4.63662
4.64097
4.64743
4.65162
4.64836
4.63444
4.60771
527.844
517.205
4.70471
5.05593
5.30336
5.45999
5.55666
5.61776
5.65476
5.67175
5.66964
5.64812
5.60696
5.54678
5.46932
5.37731
5.27433
5.16469
5.05351
4.94715
4.85442
4.78431
4.73432
4.69987
4.67691
4.66235
4.6541
4.65102
4.65242
4.65739
4.66383
4.66776
4.66455
4.6512
4.62527
528.019
517.22
4.73245
5.09241
5.34438
5.5029
5.60044
5.66199
5.69905
5.71562
5.71253
5.68944
5.64612
5.58323
5.50255
5.40687
5.29981
5.18573
5.06996
4.95918
4.86261
4.79024
4.73966
4.70597
4.6847
4.67234
4.66647
4.6656
4.66876
4.67479
4.68154
4.68529
4.68196
4.66874
4.64295
528.185
517.235
4.75936
5.12745
5.3836
5.54389
5.64232
5.70439
5.74161
5.75788
5.75398
5.72953
5.68432
5.61907
5.5356
5.43669
5.32596
5.20781
5.08767
4.97246
4.87179
4.79662
4.74494
4.71163
4.69185
4.68168
4.67831
4.67993
4.68523
4.69277
4.70022
4.70402
4.70049
4.68707
4.66079
528.343
517.251
4.78607
5.16206
5.42229
5.58435
5.68372
5.74636
5.78377
5.79978
5.79513
5.76944
5.72256
5.65524
5.56932
5.46757
5.35356
5.23166
5.10735
4.98768
4.88254
4.80387
4.75044
4.71701
4.69843
4.69037
4.68961
4.69394
4.70168
4.71107
4.71956
4.72358
4.71982
4.70594
4.67867
528.495
517.266
4.81201
5.19544
5.45955
5.62338
5.72377
5.78706
5.82471
5.84052
5.83521
5.80843
5.76011
5.69104
5.60307
5.49895
5.38211
5.25691
5.12876
5.00473
4.89492
4.81214
4.7563
4.72219
4.70442
4.69829
4.70016
4.70739
4.7179
4.72951
4.73936
4.74385
4.73991
4.72536
4.69664
528.642
517.282
4.83763
5.22827
5.49624
5.66198
5.76354
5.82752
5.86535
5.88087
5.87487
5.84707
5.79747
5.72691
5.63723
5.53108
5.41185
5.28373
5.15202
5.02375
4.90911
4.82159
4.76268
4.72729
4.70992
4.70551
4.71
4.72027
4.73378
4.74791
4.75943
4.76456
4.76044
4.74508
4.71456
528.784
517.297
4.86248
5.25994
5.53171
5.69959
5.8027
5.86745
5.90525
5.92035
5.91366
5.88497
5.83431
5.76257
5.67156
5.56385
5.44268
5.3121
5.17723
5.04492
4.92537
4.83254
4.76985
4.73251
4.715
4.71199
4.71899
4.73239
4.74912
4.76606
4.77955
4.78558
4.78139
4.76511
4.73249
528.921
517.313
4.88684
5.2908
5.56631
5.73657
5.84129
5.90686
5.94468
5.95914
5.95173
5.92223
5.8707
5.79804
5.70602
5.59711
5.47443
5.3418
5.20412
5.06802
4.94357
4.84497
4.7779
4.73798
4.7198
4.71786
4.72725
4.74382
4.76395
4.78392
4.7996
4.80669
4.8025
4.78523
4.75027
529.055
517.328
4.91049
5.32054
5.59957
5.77222
5.87823
5.94467
5.98288
5.99692
5.98896
5.95884
5.90668
5.8334
5.74072
5.63104
5.5073
5.37311
5.23307
5.09348
4.96417
4.8594
4.78729
4.74403
4.72451
4.72315
4.73468
4.7544
4.77805
4.80131
4.81945
4.82782
4.8237
4.80545
4.76797
529.186
517.344
4.9336
5.34943
5.6318
5.80662
5.91389
5.98126
6.02002
6.0341
6.02539
5.99466
5.942
5.86831
5.77527
5.66517
5.54079
5.40548
5.26354
5.12087
4.98693
4.87583
4.79816
4.75092
4.7294
4.72812
4.74149
4.76427
4.79152
4.8182
4.83897
4.84879
4.84507
4.82565
4.78547
529.313
517.359
4.95609
5.37744
5.66325
5.83976
5.94814
6.01639
6.05575
6.06997
6.06079
6.02973
5.97686
5.90307
5.81
5.69985
5.57526
5.43933
5.29598
5.15068
5.01238
4.89486
4.81111
4.75914
4.73483
4.73294
4.74771
4.77336
4.80422
4.83449
4.85816
4.86971
4.86664
4.84584
4.80276
529.438
517.374
4.97779
5.40423
5.69336
5.87138
5.98088
6.05012
6.09021
6.10475
6.0953
6.06398
6.01096
5.9372
5.84432
5.73444
5.61001
5.47391
5.32969
5.18232
5.04018
4.91654
4.82641
4.76912
4.74127
4.73805
4.75368
4.78189
4.81628
4.85018
4.87683
4.89032
4.88817
4.86629
4.81993
529.56
517.39
4.99898
5.43013
5.72232
5.90177
6.01235
6.08258
6.12345
6.13851
6.12922
6.09757
6.04452
5.97101
5.87862
5.76933
5.64547
5.50965
5.36508
5.21622
5.07082
4.94148
4.84471
4.78148
4.74925
4.74385
4.75964
4.78998
4.82771
4.8653
4.89519
4.91116
4.90984
4.88689
4.83704
529.68
517.405
5.01939
5.45486
5.74987
5.93063
6.04228
6.11348
6.15516
6.17075
6.16165
6.12984
6.07697
6.00394
5.91226
5.80384
5.68086
5.54574
5.40135
5.25164
5.10371
4.96944
4.86607
4.79656
4.75929
4.75089
4.76608
4.79799
4.83875
4.87994
4.91321
4.93193
4.93149
4.90749
4.85401
529.798
517.42
5.03941
5.47888
5.77648
5.95844
6.07109
6.14329
6.18581
6.20202
6.19324
6.1614
6.10886
6.03647
5.9457
5.83839
5.71659
5.58253
5.43876
5.28878
5.13902
5.00055
4.89074
4.81475
4.77186
4.75965
4.7734
4.8062
4.84959
4.89426
4.93099
4.95259
4.95311
4.92806
4.87085
529.914
517.435
5.05871
5.50178
5.8017
5.98472
6.09832
6.17148
6.21485
6.2317
6.22331
6.19158
6.1395
6.0679
5.97822
5.87223
5.75188
5.61921
5.47651
5.32682
5.17594
5.03411
4.91838
4.83604
4.78726
4.7706
4.78211
4.81507
4.86054
4.90839
4.9485
4.97303
4.97457
4.94849
4.88749
530.029
517.45
5.07777
5.52419
5.82615
6.01007
6.12454
6.19863
6.24287
6.2604
6.25249
6.22098
6.16946
6.09876
6.01029
5.90578
5.78708
5.65607
5.5148
5.36588
5.21449
5.07005
4.94895
4.86053
4.80572
4.78409
4.7926
4.82495
4.87192
4.9226
4.96593
4.99335
4.99589
4.96878
4.90393
530.143
517.465
5.0962
5.54567
5.84927
6.03389
6.14914
6.22413
6.26922
6.28747
6.28011
6.24896
6.19808
6.12836
6.04122
5.93834
5.82148
5.69238
5.55285
5.40516
5.25389
5.10762
4.98195
4.888
4.82731
4.80042
4.80533
4.83631
4.88408
4.93706
4.98335
5.01348
5.01699
4.98883
4.92009
530.257
517.481
5.11444
5.56704
5.87171
6.05683
6.17277
6.2486
6.29452
6.31351
6.30678
6.27619
6.22589
6.15718
6.07144
5.9703
5.85542
5.7284
5.59086
5.44473
5.29408
5.14667
5.01721
4.91832
4.85203
4.81976
4.82055
4.84946
4.89735
4.95214
5.00123
5.03361
5.03791
5.00864
4.93594
530.37
517.496
5.13163
5.58695
5.89258
6.07814
6.19475
6.27139
6.31811
6.33779
6.33169
6.30172
6.25213
6.18455
6.10035
6.00108
5.88831
5.76355
5.62822
5.48397
5.3344
5.18653
5.05414
4.95107
4.87968
4.84213
4.83851
4.86477
4.91211
4.96817
5.01967
5.05387
5.05869
5.02818
4.95145
530.483
517.511
5.14868
5.6065
5.91279
6.09863
6.21581
6.29324
6.34074
6.36112
6.35563
6.32626
6.27738
6.21101
6.12842
6.03109
5.92052
5.79811
5.66515
5.52301
5.37488
5.2271
5.09255
4.98601
4.91007
4.86745
4.85924
4.88237
4.92855
4.98529
5.03873
5.07432
5.07939
5.04745
4.9666
530.597
517.525
5.16483
5.62468
5.93145
6.11751
6.23524
6.31342
6.36168
6.38276
6.3779
6.34921
6.30113
6.236
6.15509
6.0598
5.95153
5.83158
5.70113
5.56132
5.41497
5.26784
5.13192
5.02271
4.94286
4.89557
4.88277
4.90241
4.94687
5.00369
5.05851
5.09504
5.10002
5.06646
4.98136
530.71
517.54
5.18061
5.64227
5.94936
6.13554
6.25375
6.33263
6.38162
6.40336
6.39913
6.37112
6.3239
6.26006
6.18083
6.08758
5.98167
5.86424
5.73637
5.59903
5.45472
5.30866
5.17207
5.06088
4.97778
4.92624
4.90897
4.92489
4.96715
5.02346
5.07907
5.11605
5.12061
5.08521
4.99574
530.823
517.555
5.1955
5.6586
5.96581
6.15204
6.27069
6.35025
6.39994
6.42235
6.41875
6.39146
6.34518
6.28271
6.20523
6.11406
6.0105
5.89569
5.77049
5.63576
5.49373
5.34914
5.21256
5.10012
5.01443
4.95917
4.93767
4.94977
4.98942
5.04467
5.1005
5.1374
5.14118
5.10369
5.00971
530.937
517.569
5.20991
5.67424
5.98145
6.16765
6.28669
6.36688
6.41724
6.44027
6.4373
6.41074
6.36543
6.30437
6.22866
6.13959
6.03839
5.92613
5.80366
5.67161
5.53201
5.38923
5.2532
5.14013
5.05248
4.99402
4.96857
4.97683
5.01358
5.06727
5.12275
5.15909
5.16173
5.12193
5.02332
531.05
517.584
5.22346
5.68869
5.99574
6.18185
6.30124
6.38202
6.43302
6.45667
6.45432
6.42852
6.38427
6.32467
6.25079
6.16386
6.06505
5.95539
5.83564
5.70635
5.56933
5.42863
5.29368
5.18057
5.09157
5.03043
5.00137
5.00585
5.03946
5.09117
5.14576
5.18108
5.18225
5.1399
5.03656
531.162
517.598
5.23647
5.70243
6.0092
6.19516
6.31484
6.39617
6.44777
6.472
6.47025
6.44522
6.40205
6.34394
6.2719
6.18711
6.09069
5.98361
5.86658
5.74006
5.60571
5.46731
5.33386
5.22123
5.13141
5.06808
5.03576
5.03656
5.06688
5.11623
5.16948
5.20335
5.20274
5.15764
5.04946
531.273
517.611
5.24867
5.71508
6.02145
6.20718
6.32712
6.40896
6.46113
6.4859
6.48476
6.46052
6.41851
6.36194
6.29178
6.20917
6.11516
6.01067
5.89635
5.77261
5.64102
5.50511
5.37356
5.26188
5.17175
5.10671
5.07147
5.06873
5.09563
5.14229
5.19378
5.22581
5.22314
5.17511
5.06203
531.384
517.624
5.26035
5.72706
6.03292
6.21836
6.33849
6.42078
6.47346
6.49874
6.49817
6.47471
6.4339
6.37889
6.31062
6.23018
6.13857
6.03665
5.92503
5.80407
5.67525
5.542
5.41267
5.30236
5.21235
5.14603
5.10823
5.10212
5.12556
5.16928
5.21862
5.24845
5.24347
5.19234
5.07428
531.493
517.637
5.27128
5.73805
6.04328
6.22837
6.34864
6.43135
6.48451
6.51027
6.51025
6.48761
6.44803
6.39464
6.3283
6.25005
6.16085
6.0615
5.95259
5.83441
5.7084
5.57789
5.45111
5.34254
5.25306
5.18586
5.14582
5.1365
5.15643
5.19697
5.24384
5.27118
5.26367
5.20931
5.08622
531.6
517.65
5.28172
5.74839
6.0529
6.23757
6.35793
6.44099
6.49457
6.52076
6.52126
6.49941
6.46111
6.40933
6.34493
6.26887
6.18207
6.08529
5.97906
5.86367
5.74052
5.61288
5.4889
5.38235
5.29372
5.226
5.18405
5.17172
5.18816
5.22537
5.26944
5.29398
5.28375
5.22602
5.09788
531.706
517.662
5.29147
5.75785
6.06151
6.24571
6.36612
6.44949
6.50345
6.53004
6.53105
6.51001
6.47302
6.4229
6.36046
6.28661
6.20221
6.108
6.00445
5.89185
5.77159
5.64693
5.52598
5.42171
5.33421
5.26626
5.22267
5.20752
5.22047
5.25416
5.29523
5.31678
5.30366
5.24247
5.10926
531.81
517.674
5.30075
5.76668
6.06941
6.25306
6.37346
6.4571
6.5114
6.53834
6.53982
6.51957
6.48391
6.43546
6.37497
6.30332
6.22132
6.12966
6.02879
5.91899
5.80166
5.68009
5.56242
5.46063
5.37448
5.30656
5.26157
5.24378
5.25333
5.28357
5.32125
5.33954
5.3234
5.25866
5.12038
531.913
517.686
5.30939
5.77469
6.07638
6.25945
6.37981
6.46368
6.51828
6.54554
6.54747
6.52803
6.49375
6.44698
6.38846
6.319
6.2394
6.15028
6.05209
5.9451
5.83073
5.71236
5.59819
5.49908
5.41449
5.34681
5.30064
5.28038
5.28662
5.31338
5.34742
5.36227
5.34297
5.27462
5.13127
532.014
517.697
5.31753
5.78206
6.08264
6.26508
6.38535
6.46942
6.52428
6.55183
6.55419
6.53555
6.50265
6.45756
6.40099
6.33371
6.25648
6.16988
6.07436
5.97018
5.85882
5.74375
5.63328
5.53703
5.45421
5.38698
5.33983
5.31724
5.32023
5.34347
5.3737
5.38491
5.36235
5.29034
5.14194
532.113
517.708
5.32507
5.78866
6.08804
6.2698
6.38998
6.47422
6.52932
6.55714
6.55994
6.54211
6.51062
6.46722
6.41258
6.34747
6.27258
6.1885
6.09562
5.99425
5.88593
5.77424
5.66765
5.57442
5.49354
5.42696
5.37905
5.35432
5.35413
5.37378
5.40004
5.40749
5.38157
5.30585
5.15241
532.21
517.718
5.33207
5.79458
6.0927
6.27377
6.39381
6.47821
6.53354
6.56162
6.56484
6.54784
6.51778
6.47604
6.42331
6.36032
6.28775
6.20615
6.1159
6.01735
5.91209
5.80386
5.70131
5.61125
5.53246
5.46673
5.41823
5.39151
5.38822
5.40426
5.42644
5.43
5.40064
5.32117
5.16272
532.305
517.728
5.33847
5.79976
6.09655
6.27689
6.39679
6.48133
6.53689
6.56524
6.56892
6.55278
6.52416
6.48408
6.43322
6.37231
6.30202
6.22285
6.13522
6.03947
5.9373
5.83261
5.73425
5.64746
5.5709
5.50616
5.45722
5.4287
5.42243
5.43485
5.45287
5.45246
5.41959
5.33633
5.1729
532.398
517.738
5.34433
5.80428
6.09968
6.27927
6.39901
6.48368
6.53945
6.56809
6.57225
6.55703
6.52986
6.49141
6.44237
6.3835
6.31543
6.23867
6.15361
6.06066
5.96161
5.86053
5.76648
5.68309
5.6089
5.54529
5.49612
5.46588
5.45669
5.46551
5.47931
5.47487
5.43845
5.35139
5.18297
532.49
517.747
5.34964
5.80813
6.10207
6.28087
6.40042
6.4852
6.54119
6.57013
6.57486
6.56068
6.53493
6.49806
6.45082
6.39393
6.32803
6.25362
6.1711
6.08092
5.98499
5.8876
5.79796
5.71808
5.64638
5.58407
5.53479
5.50294
5.49095
5.49618
5.50572
5.49721
5.45721
5.36633
5.19296
532.58
517.756
5.35449
5.81138
6.10379
6.28176
6.40109
6.48597
6.54215
6.57139
6.57673
6.56374
6.53936
6.50407
6.4586
6.40369
6.33993
6.26782
6.1878
6.10036
6.00758
5.91394
5.82875
5.75244
5.68333
5.62246
5.57327
5.54004
5.52531
5.52696
5.53221
5.51958
5.47597
5.38126
5.20295
532.669
517.765
5.3589
5.81405
6.10484
6.28192
6.40101
6.48595
6.5423
6.57183
6.5778
6.56605
6.5431
6.50943
6.46576
6.4128
6.35116
6.28132
6.20376
6.11905
6.02942
5.93961
5.85886
5.78614
5.71969
5.6604
5.61145
5.57698
5.55957
5.55773
5.5587
5.54195
5.49472
5.39617
5.21294
532.755
517.773
5.3629
5.81619
6.10525
6.2814
6.4002
6.48518
6.54168
6.5715
6.57813
6.56768
6.54621
6.51419
6.47234
6.42135
6.36182
6.29424
6.21913
6.13716
6.05073
5.96488
5.88846
5.81926
5.75548
5.69785
5.64931
5.61382
5.594
5.58871
5.58539
5.56449
5.51359
5.41118
5.22301
532.84
517.781
5.36651
5.81777
6.10502
6.28017
6.39866
6.48364
6.54027
6.57037
6.57767
6.56856
6.54861
6.51829
6.47828
6.42928
6.37187
6.30656
6.23392
6.15473
6.0716
5.9899
5.91764
5.85184
5.79067
5.73474
5.68673
5.65036
5.62824
5.6196
5.61209
5.58709
5.53255
5.42627
5.23318
532.924
517.789
5.36974
5.81881
6.10413
6.27826
6.39641
6.48139
6.53814
6.56851
6.5765
6.56879
6.55039
6.52178
6.48365
6.43665
6.38137
6.31835
6.24819
6.17183
6.0921
6.01474
5.94648
5.88394
5.82532
5.77108
5.7237
5.68662
5.6624
5.65057
5.6389
5.60986
5.55169
5.44153
5.24351
533.006
517.796
5.37252
5.81924
6.10257
6.27563
6.39344
6.47842
6.53528
6.56593
6.57462
6.56833
6.55151
6.52462
6.48837
6.44339
6.39026
6.32954
6.2619
6.18841
6.11217
6.03925
5.97488
5.91552
5.85938
5.80682
5.76011
5.72245
5.6963
5.68144
5.66578
5.63274
5.57098
5.45695
5.254
533.087
517.804
5.37485
5.81905
6.10031
6.27231
6.38978
6.47478
6.53177
6.56273
6.57217
6.56734
6.55209
6.52693
6.49254
6.44958
6.3986
6.34018
6.27506
6.20447
6.13176
6.06334
6.0028
5.94656
5.89285
5.84199
5.79602
5.7579
5.72998
5.71228
5.69278
5.65584
5.59051
5.47261
5.26469
533.166
517.811
5.37664
5.81817
6.09731
6.26824
6.38541
6.47045
6.52761
6.55893
6.56917
6.56585
6.55218
6.52872
6.49618
6.45521
6.40637
6.35027
6.28769
6.22002
6.15088
6.08696
6.03019
5.97699
5.92568
5.87649
5.8313
5.79284
5.76332
5.74297
5.71979
5.67907
5.61023
5.48847
5.27555
533.245
517.817
5.37791
5.81662
6.0936
6.26347
6.38035
6.46548
6.52288
6.55464
6.56577
6.56401
6.55193
6.53014
6.49941
6.4604
6.41367
6.35986
6.29983
6.23511
6.16958
6.11015
6.05707
6.00687
5.95792
5.9104
5.86602
5.82732
5.79636
5.77355
5.74687
5.7025
5.63021
5.5046
5.28662
533.323
517.823
5.37866
5.81439
6.08916
6.25796
6.37459
6.45985
6.51756
6.54986
6.56199
6.56188
6.55142
6.53131
6.50234
6.46524
6.42059
6.36905
6.31158
6.24985
6.18801
6.13298
6.08351
6.03623
5.98956
5.94367
5.90014
5.86128
5.82902
5.80393
5.77393
5.72606
5.65039
5.52094
5.29788
533.399
517.829
5.37899
5.8116
6.08407
6.25176
6.36812
6.45355
6.51165
6.54463
6.5579
6.55957
6.55078
6.53232
6.50509
6.46984
6.42721
6.37793
6.32303
6.26435
6.20631
6.15557
6.1096
6.06514
6.02071
5.97642
5.93373
5.89477
5.86136
5.83418
5.80102
5.74979
5.67083
5.53756
5.30936
533.476
517.835
5.37898
5.80831
6.07836
6.24488
6.36094
6.44654
6.50509
6.5389
6.55354
6.5571
6.55006
6.5333
6.50779
6.47437
6.43374
6.38669
6.33437
6.27881
6.22473
6.1781
6.13547
6.09373
6.05143
6.00868
5.96681
5.92778
5.8933
5.86418
5.82805
5.7736
5.69144
5.55439
5.32102
533.552
517.841
5.37872
5.80457
6.07206
6.23729
6.35299
6.43874
6.49779
6.5326
6.54894
6.55442
6.54919
6.5342
6.51046
6.47887
6.44022
6.3954
6.34568
6.29333
6.24337
6.20062
6.16119
6.12205
6.08183
6.04058
5.99953
5.96047
5.92502
5.89409
5.85512
5.79757
5.71229
5.57146
5.33289
533.627
517.847
5.37826
5.80045
6.06518
6.22901
6.34427
6.43011
6.48964
6.52556
6.5439
6.55137
6.54809
6.535
6.51314
6.48344
6.44678
6.40416
6.35705
6.30796
6.26219
6.22316
6.18676
6.15012
6.11189
6.0721
6.03183
5.99276
5.95644
5.92379
5.88214
5.82163
5.7333
5.58873
5.34491
533.703
517.853
5.3776
5.79591
6.05771
6.21999
6.3347
6.42056
6.48055
6.51761
6.53807
6.54772
6.54662
6.53562
6.51577
6.48805
6.45343
6.41306
6.36857
6.32274
6.28117
6.24571
6.21224
6.17799
6.14169
6.10331
6.06385
6.02485
5.98792
5.95348
5.90922
5.84584
5.75453
5.60624
5.35713
533.779
517.859
5.37675
5.79097
6.04964
6.21025
6.3243
6.41008
6.47049
6.50875
6.53147
6.54347
6.54469
6.53596
6.51827
6.49266
6.46018
6.42209
6.38024
6.33772
6.30028
6.26824
6.23756
6.20562
6.17118
6.13419
6.09556
6.05673
6.01932
5.98313
5.93631
5.87015
5.77591
5.6239
5.36947
533.854
517.865
5.37569
5.78561
6.04097
6.19976
6.31304
6.39865
6.45941
6.49889
6.52399
6.53846
6.54218
6.53589
6.52056
6.49722
6.467
6.4313
6.3922
6.35303
6.31963
6.29086
6.26284
6.2331
6.20044
6.16481
6.12701
6.08841
6.05065
6.01279
5.9635
5.89463
5.79749
5.64177
5.38196
533.93
517.871
5.37443
5.77984
6.03171
6.18854
6.30093
6.38625
6.44731
6.48804
6.51561
6.53268
6.53903
6.53532
6.52249
6.50157
6.47378
6.44062
6.40439
6.36872
6.33923
6.31358
6.28809
6.26042
6.22947
6.19514
6.15817
6.11985
6.08179
6.04235
5.99067
5.91916
5.81918
5.65975
5.39453
534.006
517.877
5.37304
5.77371
6.0219
6.17661
6.28797
6.37289
6.43418
6.47618
6.50631
6.52608
6.53518
6.53419
6.52402
6.5057
6.4805
6.45008
6.41691
6.38494
6.35921
6.33651
6.31339
6.28768
6.25834
6.22526
6.18911
6.1511
6.11282
6.07189
6.01792
5.94385
5.84105
5.67791
5.40724
534.083
517.883
5.37157
5.76722
6.01152
6.16396
6.27417
6.35855
6.42
6.46328
6.49604
6.5186
6.53055
6.5324
6.52502
6.50946
6.48703
6.45953
6.42966
6.40163
6.37951
6.35962
6.33873
6.31487
6.28706
6.25517
6.21981
6.18211
6.14365
6.1013
6.04512
5.96858
5.863
5.69614
5.42001
534.16
517.889
5.36992
5.76036
6.00061
6.15065
6.25955
6.34326
6.40478
6.44935
6.4848
6.51021
6.5251
6.52991
6.52545
6.51278
6.49329
6.46891
6.44255
6.41867
6.40003
6.38283
6.36409
6.34197
6.31561
6.28488
6.25032
6.21296
6.1744
6.13073
6.07243
5.99346
5.88514
5.71456
5.43291
534.237
517.895
5.36809
5.7531
5.98913
6.13664
6.24409
6.32699
6.38854
6.43443
6.47252
6.50079
6.5187
6.52658
6.52517
6.51554
6.49915
6.47807
6.45543
6.43583
6.42064
6.40606
6.38939
6.36895
6.34397
6.31434
6.28055
6.24355
6.20494
6.16001
6.09968
6.01836
5.90733
5.73302
5.44584
534.315
517.9
5.36599
5.74538
5.97708
6.12195
6.22783
6.30979
6.37134
6.41873
6.45922
6.49027
6.51123
6.52228
6.52406
6.51762
6.5045
6.48689
6.46816
6.45294
6.44114
6.42917
6.41452
6.39573
6.3721
6.34355
6.31053
6.27394
6.23534
6.18926
6.12698
6.04339
5.92967
5.75163
5.45888
534.393
517.906
5.36349
5.73712
5.96443
6.1066
6.2108
6.29167
6.35313
6.40213
6.44478
6.47854
6.50259
6.5169
6.52201
6.51893
6.50926
6.49534
6.48073
6.46991
6.46148
6.45208
6.43944
6.42227
6.39995
6.37246
6.3402
6.30403
6.26551
6.21833
6.1542
6.06839
5.95203
5.77027
5.47195
534.471
517.912
5.36058
5.72832
5.95118
6.09059
6.19303
6.2727
6.33399
6.38449
6.42928
6.46573
6.49285
6.51046
6.51897
6.51938
6.51333
6.50332
6.49309
6.48661
6.48151
6.47465
6.46402
6.44846
6.42745
6.401
6.36951
6.33379
6.29543
6.24726
6.18139
6.09346
5.97449
5.78901
5.48511
534.55
517.917
5.3573
5.71906
5.93738
6.07394
6.17451
6.25294
6.31407
6.36615
6.41306
6.45212
6.48225
6.50312
6.51507
6.51906
6.5168
6.51091
6.50532
6.5031
6.50124
6.49689
6.48824
6.47427
6.45458
6.42918
6.39849
6.36327
6.32509
6.27597
6.20842
6.11844
5.99691
5.80774
5.49828
534.629
517.922
5.35383
5.70947
5.92306
6.0566
6.15513
6.23221
6.29324
6.34703
6.39614
6.43784
6.47092
6.495
6.51036
6.51797
6.51959
6.51802
6.51728
6.51921
6.52054
6.51868
6.51201
6.49967
6.48129
6.45694
6.427
6.39226
6.3544
6.30448
6.23537
6.14343
6.01938
5.82654
5.51151
534.708
517.927
5.35044
5.69972
5.9083
6.03853
6.13477
6.21036
6.27138
6.32713
6.37869
6.42316
6.45923
6.48647
6.50518
6.51637
6.52192
6.52475
6.52896
6.53491
6.53935
6.53993
6.53523
6.52449
6.50743
6.48416
6.45508
6.42108
6.38333
6.33261
6.26203
6.16821
6.04171
5.84523
5.52467
534.787
517.933
5.34726
5.68988
5.89308
6.01964
6.11322
6.18703
6.24803
6.30601
6.36034
6.40785
6.44708
6.47755
6.49961
6.51439
6.52389
6.5312
6.54032
6.55018
6.55767
6.56068
6.55796
6.54886
6.53317
6.51104
6.48294
6.44986
6.41212
6.36057
6.28855
6.19291
6.064
5.8639
5.53781
534.866
517.939
5.34436
5.67997
5.87741
5.99992
6.09041
6.16206
6.22293
6.28332
6.34076
6.3917
6.43439
6.46828
6.49379
6.51219
6.52567
6.53752
6.55139
6.56498
6.57541
6.5808
6.58005
6.57259
6.5583
6.53736
6.51031
6.47823
6.44049
6.38811
6.31471
6.21731
6.08603
5.88235
5.55077
534.945
517.946
5.34151
5.66977
5.86118
5.97932
6.06626
6.13527
6.19571
6.25846
6.31924
6.37401
6.42058
6.45823
6.48745
6.50967
6.52731
6.54384
6.56226
6.5794
6.59266
6.60038
6.60158
6.59579
6.58294
6.56326
6.53732
6.50629
6.46858
6.41538
6.34064
6.24153
6.10793
5.90067
5.5636
535.024
517.952
5.33842
5.65912
5.84439
5.95796
6.04097
6.10689
6.16652
6.23128
6.29541
6.35427
6.40509
6.44689
6.48015
6.50648
6.52853
6.54995
6.5727
6.59323
6.60921
6.61919
6.62233
6.61823
6.60685
6.58846
6.5637
6.53376
6.4961
6.44214
6.36611
6.26534
6.12946
5.91867
5.57616
535.102
517.959
5.33472
5.64776
5.82694
5.93586
6.01467
6.07716
6.1357
6.20176
6.26893
6.33194
6.38731
6.43364
6.47135
6.50217
6.52896
6.55552
6.58251
6.60635
6.62503
6.63728
6.64237
6.63999
6.63013
6.61309
6.58955
6.56075
6.52318
6.4685
6.39125
6.28889
6.15076
5.93647
5.58853
535.181
517.964
5.33026
5.63567
5.80888
5.91314
5.98759
6.04639
6.1036
6.17019
6.23993
6.30692
6.3669
6.41801
6.46047
6.49611
6.52799
6.55988
6.59109
6.61827
6.63967
6.65424
6.66135
6.66076
6.65249
6.63689
6.61462
6.58701
6.54957
6.49422
6.41581
6.31192
6.17162
5.95388
5.60059
535.258
517.969
5.32511
5.62292
5.79019
5.88977
5.95974
6.01468
6.07026
6.13702
6.20893
6.2796
6.3441
6.40006
6.44749
6.48824
6.52551
6.56284
6.59832
6.62889
6.65311
6.67008
6.6793
6.68058
6.674
6.6599
6.63899
6.61264
6.5754
6.51946
6.43997
6.33461
6.19219
5.97105
5.61246
535.336
517.973
5.31957
5.60968
5.7709
5.86563
5.93102
5.98219
6.03624
6.10301
6.17669
6.25061
6.31933
6.38
6.43242
6.47844
6.52134
6.56407
6.60381
6.63783
6.66495
6.68445
6.69591
6.69919
6.6944
6.6819
6.66243
6.63739
6.60039
6.54393
6.46345
6.35672
6.21223
5.98776
5.62398
535.412
517.978
5.31409
5.59622
5.751
5.84047
5.90094
5.94833
6.00116
6.06824
6.14374
6.22072
6.29337
6.35854
6.41587
6.46719
6.51588
6.5638
6.6077
6.64518
6.67529
6.69742
6.71124
6.71665
6.71377
6.70299
6.68505
6.6614
6.62473
6.56782
6.48642
6.37838
6.23191
6.00417
5.63528
535.489
517.983
5.30896
5.58269
5.73048
5.81412
5.86913
5.91263
5.96464
6.03252
6.11015
6.1902
6.2666
6.33604
6.39809
6.45466
6.50912
6.56196
6.60988
6.65079
6.68392
6.70876
6.72504
6.73268
6.7318
6.72282
6.7065
6.68432
6.64808
6.59085
6.50864
6.39938
6.25099
6.02007
5.64618
535.563
517.989
5.30438
5.56919
5.70939
5.78643
5.83519
5.87439
5.92582
5.99518
6.07561
6.15909
6.23928
6.31286
6.37948
6.44116
6.50122
6.55869
6.61046
6.65473
6.6909
6.71854
6.73739
6.7474
6.74871
6.74176
6.72745
6.70652
6.67068
6.61317
6.53024
6.41985
6.26963
6.03561
5.65678
535.638
517.996
5.30016
5.55563
5.68777
5.75751
5.7991
5.83331
5.88398
5.95535
6.03926
6.12671
6.21098
6.28878
6.35994
6.42667
6.49208
6.55389
6.60935
6.65692
6.69612
6.72661
6.74813
6.76063
6.76428
6.75954
6.74739
6.72771
6.69228
6.63455
6.551
6.43957
6.28759
6.05054
5.66688
535.711
518.003
5.29618
5.54213
5.66588
5.72771
5.76116
5.78957
5.83905
5.9125
6.00034
6.0923
6.1811
6.2634
6.33925
6.41109
6.48155
6.54748
6.6065
6.65732
6.69959
6.73298
6.75728
6.77243
6.77857
6.77619
6.76633
6.74798
6.71301
6.65515
6.57106
6.45867
6.30503
6.06504
5.67659
535.784
518.011
5.29229
5.52867
5.64378
5.69714
5.72166
5.74333
5.79095
5.86621
5.95816
6.05508
6.14889
6.2361
6.31694
6.39409
6.46935
6.53922
6.6017
6.65573
6.70107
6.73744
6.76461
6.7825
6.79126
6.79137
6.78389
6.76693
6.73251
6.67462
6.59009
6.47686
6.32165
6.07881
5.68568
535.854
518.018
5.28866
5.51556
5.62181
5.66613
5.6809
5.69513
5.7402
5.81682
5.91274
6.01474
6.11383
6.20628
6.29241
6.37509
6.45504
6.52879
6.59474
6.65204
6.70054
6.73998
6.77014
6.79092
6.80244
6.80518
6.80018
6.78472
6.75098
6.69317
6.60834
6.49438
6.3377
6.09209
5.69432
535.926
518.026
5.28573
5.50314
5.60014
5.63469
5.63881
5.64501
5.68704
5.76473
5.86442
5.97145
6.07593
6.17377
6.26537
6.35373
6.43828
6.51592
6.58538
6.64601
6.69774
6.74034
6.77359
6.79738
6.81178
6.81725
6.81483
6.80094
6.76798
6.71037
6.62535
6.51076
6.35273
6.10447
5.70219
535.994
518.034
5.28395
5.49174
5.57901
5.60292
5.59527
5.59272
5.63162
5.71027
5.81361
5.92554
6.03533
6.13857
6.2357
6.32974
6.41889
6.50046
6.57354
6.63761
6.6927
6.73861
6.77509
6.80202
6.81944
6.82779
6.82806
6.81589
6.78385
6.7266
6.64153
6.52647
6.36719
6.11637
5.70962
536.064
518.044
5.28367
5.48166
5.55866
5.57092
5.55017
5.53796
5.57356
5.65342
5.76064
5.87749
5.99248
6.10103
6.20362
6.30317
6.39683
6.48235
6.55909
6.6267
6.68525
6.73455
6.77437
6.80454
6.82509
6.83638
6.83941
6.82902
6.79799
6.7412
6.6562
6.54076
6.38036
6.1271
5.71606
536.13
518.056
5.28485
5.47295
5.53932
5.53901
5.50371
5.48075
5.51219
5.59347
5.70488
5.8269
5.9472
6.06107
6.16911
6.27397
6.37206
6.46156
6.54206
6.61333
6.67546
6.7283
6.77159
6.80513
6.82893
6.84332
6.84924
6.8408
6.81096
6.75481
6.67005
6.55439
6.393
6.13741
5.72206
536.199
518.068
5.28723
5.46566
5.5214
5.50788
5.45653
5.42097
5.44694
5.52939
5.64544
5.77317
5.89912
6.01845
6.13197
6.24192
6.34437
6.43787
6.52221
6.59723
6.66307
6.71955
6.76642
6.80344
6.83058
6.84811
6.85692
6.85045
6.82185
6.76643
6.68202
6.56624
6.40396
6.14617
5.72674
536.262
518.081
5.29035
5.45965
5.50519
5.47834
5.40983
5.35954
5.37802
5.46066
5.58142
5.71517
5.84716
5.97228
6.09149
6.20652
6.31342
6.41109
6.49945
6.57842
6.64814
6.70846
6.75907
6.79972
6.83034
6.85116
6.86305
6.85877
6.83162
6.77712
6.69323
6.57752
6.41451
6.15461
5.73105
536.33
518.094
5.29391
5.45487
5.49097
5.4512
5.36502
5.29806
5.30646
5.38739
5.51213
5.65206
5.79048
5.92171
6.04685
6.16709
6.27865
6.3807
6.47331
6.55642
6.63022
6.69451
6.749
6.7934
6.82761
6.85185
6.86669
6.86456
6.8389
6.78541
6.70215
6.58659
6.42296
6.16112
5.73373
536.392
518.107
5.29776
5.45114
5.47863
5.4266
5.3228
5.23772
5.2335
5.31044
5.43787
5.58364
5.72862
5.8662
5.99752