/*--------------------------------*- C++ -*----------------------------------*\
| =========                 |                                                 |
| \\      /  F ield         | OpenFOAM: The Open Source CFD Toolbox           |
|  \\    /   O peration     | Version:  v1906                                 |
|   \\  /    A nd           | Web:      www.OpenFOAM.com                      |
|    \\/     M anipulation  |                                                 |
\*---------------------------------------------------------------------------*/
FoamFile
{
    version     2.0;
    format      ascii;
    class       volScalarField;
    location    "0.5/oil";
    object      heatTransferCoeff(T);
}
// * * * * * * * * * * * * * * * * * * * * * * * * * * * * * * * * * * * * * //

dimensions      [1 0 -3 -1 0 0 0];


internalField   uniform 0;

boundaryField
{
    maxY
    {
        type            calculated;
        value           uniform 0;
    }
    minX
    {
        type            calculated;
        value           uniform 0;
    }
    maxX
    {
        type            calculated;
        value           uniform 0;
    }
    minY
    {
        type            calculated;
        value           uniform 0;
    }
    minZ
    {
        type            calculated;
        value           uniform 0;
    }
    maxZ
    {
        type            calculated;
        value           uniform 0;
    }
    oil_to_sphere
    {
        type            calculated;
        value           nonuniform List<scalar> 
360
(
-67.5803
-67.9596
-45.9434
-118.633
-126.461
-53.3284
-129.849
-117.184
-126.149
-66.8228
-67.1803
-53.3493
-59.0936
-41.3306
-65.3797
-112.008
-128.181
-118.773
-124.249
-41.3049
-103.476
-66.8225
-58.689
-122.749
-46.044
-127.312
-53.2346
-125.326
-124.388
-117.621
-133.705
-130.559
-46.1117
-45.5985
-52.8395
-53.0565
-123.108
-122.213
-118.916
-120.759
-124.165
-46.0786
-52.7424
-69.3126
-69.4734
-53.1103
-58.8324
-40.9604
-66.6015
-116.728
-53.4814
-53.27
-58.5753
-58.8343
-40.9969
-67.1365
-119.124
-41.3216
-52.9815
-58.7766
-41.4138
-125.201
-118.904
-124.101
-40.9767
-107.784
-67.179
-56.7973
-130.138
-123.684
-119.178
-122.115
-121.743
-40.9064
-92.1887
-65.1226
-41.4693
-56.2855
-122.674
-125.841
-57.6849
-56.567
-56.8302
-41.3988
-45.7634
-52.9169
-53.1722
-58.9563
-41.2118
-41.6314
-45.9106
-58.8806
-53.1851
-45.8785
-58.6221
-53.0457
-53.1049
-53.1447
-45.8068
-41.6597
-41.6797
-41.0873
-53.3561
-53.4583
-59.0134
-41.0865
-41.5028
-59.2049
-45.9153
-53.2468
-53.3041
-53.186
-45.853
-41.1234
-41.8219
-41.7677
-58.0314
-57.8166
-57.6421
-68.841
-68.955
-114.564
-122.049
-110.34
-123.023
-114.754
-123.23
-124.823
-116.068
-121.289
-119.242
-57.6141
-57.3332
-57.4059
-41.7344
-114.014
-124.146
-67.5435
-67.7044
-125.369
-115.836
-65.986
-65.0045
-127.033
-116.525
-134.285
-41.6995
-41.6658
-122.45
-125.451
-133.842
-127.216
-127.258
-132.706
-133.725
-116.262
-64.8838
-126.432
-119.951
-41.3364
-125.063
-128.262
-56.4624
-55.6981
-57.7962
-66.1862
-66.9573
-127.441
-117.252
-132.582
-40.993
-118.751
-67.2379
-125.889
-120.238
-41.0241
-129.769
-57.3343
-57.1074
-41.5768
-53.1577
-53.3474
-59.0661
-45.9205
-58.7814
-53.1408
-41.0739
-41.6048
-124.49
-116.728
-125.2
-120.42
-68.857
-68.9057
-122.391
-111.953
-120.363
-67.5393
-67.9478
-41.5968
-52.9819
-53.5874
-59.039
-53.282
-53.0188
-59.2098
-45.9037
-58.7441
-52.8855
-45.5401
-115.852
-59.1456
-52.9562
-41.3892
-122.299
-115.812
-122.287
-68.6922
-68.6939
-41.0148
-53.0279
-53.1372
-58.7462
-125.436
-45.6702
-58.4782
-52.9485
-117.817
-119.099
-68.267
-41.1976
-67.7393
-41.2808
-41.816
-58.7389
-45.9314
-53.1869
-53.0587
-53.3575
-45.8015
-41.2773
-118.872
-111.688
-125.158
-131.205
-117.61
-111.199
-127.226
-128.734
-67.4126
-120.414
-41.7166
-127.007
-125.167
-125.779
-58.5268
-45.9801
-53.3153
-58.7947
-46.2356
-125.712
-52.9928
-52.8241
-53.2903
-45.7813
-127.135
-116.952
-52.9096
-52.9589
-45.7933
-117.581
-132.447
-66.91
-120.087
-41.4094
-124.759
-123.02
-126.176
-59.0658
-45.825
-124.248
-52.891
-53.0097
-52.8216
-123.331
-46.0178
-121.419
-67.9468
-111.989
-68.2822
-118.343
-120.277
-122.874
-41.0714
-56.0276
-55.0803
-55.6341
-69.3296
-122.899
-69.1415
-119.016
-122.556
-41.4545
-124.488
-126.079
-67.0497
-120.806
-41.6041
-132.853
-56.8763
-56.5871
-40.7033
-119.199
-67.659
-105.975
-119.643
-67.5957
-41.1372
-52.9105
-53.0678
-58.9915
-123.451
-114.485
-66.4503
-41.6871
-115.287
-67.491
-41.338
-115.946
-125.298
-65.9764
-120.926
-40.6352
-130.614
-59.278
-128.786
-45.8065
-53.2154
-128.984
-120.994
-118.371
-66.6214
-125.654
-124.518
-67.1502
-119.146
-55.9483
-57.4814
-117.593
-67.3974
-41.1519
-117.076
-67.5541
-41.5263
-121.318
-121.697
-115.392
-67.8969
-118.951
-68.0563
)
;
    }
}


// ************************************************************************* //
