/*--------------------------------*- C++ -*----------------------------------*\
| =========                 |                                                 |
| \\      /  F ield         | OpenFOAM: The Open Source CFD Toolbox           |
|  \\    /   O peration     | Version:  v1906                                 |
|   \\  /    A nd           | Web:      www.OpenFOAM.com                      |
|    \\/     M anipulation  |                                                 |
\*---------------------------------------------------------------------------*/
FoamFile
{
    version     2.0;
    format      ascii;
    class       surfaceScalarField;
    location    "15/oil";
    object      phi;
}
// * * * * * * * * * * * * * * * * * * * * * * * * * * * * * * * * * * * * * //

dimensions      [1 0 -1 0 0 0 0];
oriented        oriented;


internalField   nonuniform List<scalar> 
80688
(
-2.74946e-06
-2.79687e-06
-2.74946e-06
-1.24341e-06
-7.78314e-07
-7.27736e-07
-3.42331e-07
-4.52691e-07
-4.48387e-07
-1.75098e-07
-8.33249e-08
-8.39078e-08
-8.05273e-08
-4.7186e-08
-4.73847e-08
-3.79244e-08
-2.14324e-08
-2.11705e-08
-1.7092e-08
-1.06671e-08
-1.01652e-08
-6.56039e-09
-5.57904e-09
-4.95251e-09
-1.14649e-09
-3.06589e-09
-2.34798e-09
1.50507e-09
-1.73024e-09
-9.21295e-10
2.52008e-09
-9.62353e-10
-5.2627e-11
2.48647e-09
-4.84315e-10
5.17941e-10
1.74818e-09
-1.75406e-10
9.13716e-10
5.48897e-10
2.20313e-11
1.17726e-09
-9.1043e-10
1.3479e-10
1.32455e-09
-2.44991e-09
1.74821e-10
1.36467e-09
-3.90808e-09
1.50502e-10
1.30768e-09
-5.14808e-09
7.2232e-11
1.16778e-09
-6.06628e-09
-4.69606e-11
9.65168e-10
-6.59641e-09
-1.93718e-10
7.23862e-10
-6.71132e-09
-3.56296e-10
4.71218e-10
-6.42206e-09
-5.22143e-10
2.32887e-10
-5.77503e-09
-6.79262e-10
3.22451e-11
-4.84441e-09
-8.15707e-10
-1.14909e-10
-3.7304e-09
-9.2108e-10
-1.9292e-10
-2.55493e-09
-9.81118e-10
-1.94339e-10
-1.45718e-09
-9.7284e-10
-1.24896e-10
-5.86253e-10
-8.61065e-10
-9.85143e-12
-7.8719e-11
-5.93102e-10
8.55806e-11
-1.65956e-10
8.72453e-11
-7.41964e-07
-1.31294e-06
-7.41964e-07
-4.49442e-07
-4.72867e-07
-5.97969e-07
-3.29727e-07
-3.12831e-07
-2.59575e-07
-1.76417e-07
-1.2859e-07
-1.08045e-07
-9.35974e-08
-7.20052e-08
-5.80006e-08
-4.86945e-08
-3.81281e-08
-2.82071e-08
-2.33009e-08
-2.24265e-08
-1.36342e-08
-8.88e-09
-1.40962e-08
-5.90373e-09
-7.78212e-10
-9.58758e-09
-1.58007e-09
3.41292e-09
-6.96806e-09
1.04672e-09
5.00752e-09
-5.34557e-09
2.78865e-09
4.78047e-09
-4.27968e-09
4.02243e-09
3.25648e-09
-3.56008e-09
4.90869e-09
8.53475e-10
-3.08604e-09
5.51109e-09
-2.05431e-09
-2.80839e-09
5.85097e-09
-5.12005e-09
-2.6993e-09
5.93987e-09
-8.02868e-09
-2.7365e-09
5.79565e-09
-1.05108e-08
-2.89555e-09
5.44993e-09
-1.23595e-08
-3.14722e-09
4.94896e-09
-1.34412e-08
-3.45862e-09
4.34664e-09
-1.37033e-08
-3.79595e-09
3.70172e-09
-1.31691e-08
-4.12548e-09
3.06914e-09
-1.19305e-08
-4.41522e-09
2.49736e-09
-1.01362e-08
-4.63299e-09
2.02303e-09
-7.98169e-09
-4.74332e-09
1.66771e-09
-5.69632e-09
-4.6995e-09
1.43302e-09
-3.52891e-09
-4.43417e-09
1.29393e-09
-1.72604e-09
-3.84951e-09
1.18559e-09
-4.9838e-10
-2.80315e-09
9.82407e-10
-1.17135e-09
5.07027e-10
-4.64328e-07
-3.84288e-07
-4.64327e-07
-3.18249e-07
-3.50731e-07
-2.68215e-07
-2.25081e-07
-2.3529e-07
-1.70709e-07
-1.35071e-07
-1.28018e-07
-9.05812e-08
-7.88581e-08
-7.89548e-08
-4.92637e-08
-4.31172e-08
-4.89368e-08
-2.49321e-08
-2.08654e-08
-3.2967e-08
-1.17113e-08
-7.14726e-09
-2.37152e-08
-4.09909e-09
9.95023e-10
-1.82564e-08
5.2655e-10
5.303e-09
-1.48412e-08
3.56522e-09
6.82916e-09
-1.25914e-08
5.71973e-09
6.27182e-09
-1.10426e-08
7.32025e-09
4.16706e-09
-9.96084e-09
8.50553e-09
9.86024e-10
-9.22949e-09
9.32451e-09
-2.82069e-09
-8.78961e-09
9.78796e-09
-6.82028e-09
-8.60412e-09
9.90441e-09
-1.06121e-08
-8.63982e-09
9.69519e-09
-1.38503e-08
-8.85855e-09
9.20124e-09
-1.62705e-08
-9.21205e-09
8.48498e-09
-1.77021e-08
-9.64687e-09
7.61984e-09
-1.80793e-08
-1.01054e-08
6.68669e-09
-1.7433e-08
-1.05306e-08
5.75878e-09
-1.58827e-08
-1.08665e-08
4.90098e-09
-1.3618e-08
-1.10554e-08
4.15781e-09
-1.08831e-08
-1.10315e-08
3.5532e-09
-7.95725e-09
-1.07086e-08
3.08329e-09
-5.1325e-09
-9.96718e-09
2.70827e-09
-2.68918e-09
-8.63137e-09
2.33855e-09
-8.77012e-10
-6.42905e-09
1.81374e-09
-2.93377e-09
8.85412e-10
-9.27066e-08
-1.98875e-07
-9.27058e-08
-1.30408e-07
-2.00043e-07
-1.12986e-07
-1.16274e-07
-1.57731e-07
-9.16933e-08
-8.16307e-08
-1.06434e-07
-5.62279e-08
-5.22027e-08
-7.54868e-08
-3.2896e-08
-2.95644e-08
-5.43233e-08
-1.72517e-08
-1.35506e-08
-4.14483e-08
-7.53247e-09
-2.73421e-09
-3.32323e-08
-1.29923e-09
4.03927e-09
-2.79233e-08
2.89342e-09
7.62651e-09
-2.43352e-08
5.90677e-09
8.64916e-09
-2.18131e-08
8.19905e-09
7.60647e-09
-1.99874e-08
9.98754e-09
4.9569e-09
-1.86642e-08
1.1353e-08
1.16044e-09
-1.77451e-08
1.23121e-08
-3.30729e-09
-1.7178e-08
1.28562e-08
-7.97031e-09
-1.69259e-08
1.29848e-08
-1.2379e-08
-1.69498e-08
1.27187e-08
-1.61419e-08
-1.7201e-08
1.21054e-08
-1.89579e-08
-1.76153e-08
1.12192e-08
-2.06357e-08
-1.81182e-08
1.01493e-08
-2.11027e-08
-1.863e-08
8.99153e-09
-2.03982e-08
-1.90704e-08
7.83541e-09
-1.86592e-08
-1.93604e-08
6.75496e-09
-1.61007e-08
-1.94151e-08
5.80118e-09
-1.29927e-08
-1.91383e-08
4.99888e-09
-9.63799e-09
-1.84034e-08
4.34004e-09
-6.34913e-09
-1.70321e-08
3.77609e-09
-3.42594e-09
-1.47571e-08
3.20256e-09
-1.16283e-09
-1.11286e-08
2.43646e-09
-5.26945e-09
1.17286e-09
-4.99048e-08
-9.90665e-08
-4.99039e-08
-6.85111e-08
-1.21633e-07
-5.98045e-08
-6.4297e-08
-1.11965e-07
-4.99802e-08
-4.82193e-08
-8.9353e-08
-3.31582e-08
-3.17023e-08
-7.20063e-08
-1.99974e-08
-1.72481e-08
-5.85661e-08
-1.02115e-08
-5.98212e-09
-4.93185e-08
-3.39574e-09
2.15331e-09
-4.28287e-08
1.46099e-09
7.40416e-09
-3.82521e-08
5.078e-09
1.00716e-08
-3.49208e-08
7.91816e-09
1.04565e-08
-3.24287e-08
1.02307e-08
8.88344e-09
-3.05349e-08
1.21205e-08
5.72563e-09
-2.91126e-08
1.36062e-08
1.41253e-09
-2.80969e-08
1.46649e-08
-3.57627e-09
-2.74542e-08
1.5265e-08
-8.74357e-09
-2.71535e-08
1.53949e-08
-1.36105e-08
-2.71551e-08
1.50722e-08
-1.77564e-08
-2.74039e-08
1.43488e-08
-2.08577e-08
-2.78239e-08
1.331e-08
-2.27112e-08
-2.83243e-08
1.20596e-08
-2.32425e-08
-2.88077e-08
1.07091e-08
-2.24987e-08
-2.91742e-08
9.35994e-09
-2.06314e-08
-2.93219e-08
8.09422e-09
-1.78717e-08
-2.91444e-08
6.96954e-09
-1.4505e-08
-2.85161e-08
6.0111e-09
-1.08473e-08
-2.72693e-08
5.20826e-09
-7.22213e-09
-2.51639e-08
4.50664e-09
-3.94751e-09
-2.18228e-08
3.79107e-09
-1.35924e-09
-1.65788e-08
2.86194e-09
-8.0006e-09
1.37192e-09
-2.12891e-08
-5.6489e-08
-2.12884e-08
-3.17322e-08
-8.27505e-08
-2.84389e-08
-3.22276e-08
-8.61869e-08
-2.52823e-08
-2.52204e-08
-7.86579e-08
-1.77022e-08
-1.60865e-08
-7.0557e-08
-1.05833e-08
-6.95692e-09
-6.30751e-08
-4.62053e-09
8.31003e-10
-5.71843e-08
7.78839e-11
6.76717e-09
-5.25926e-08
3.8278e-09
1.06341e-08
-4.90482e-08
6.92925e-09
1.23992e-08
-4.62666e-08
9.5806e-09
1.21464e-08
-4.40536e-08
1.18779e-08
1.00665e-08
-4.22899e-08
1.38349e-08
6.45843e-09
-4.09165e-08
1.5412e-08
1.71953e-09
-3.99075e-08
1.65495e-08
-3.67625e-09
-3.92496e-08
1.71912e-08
-9.22306e-09
-3.89213e-08
1.73147e-08
-1.44263e-08
-3.8886e-08
1.69342e-08
-1.88458e-08
-3.90876e-08
1.61032e-08
-2.21453e-08
-3.94432e-08
1.49188e-08
-2.41154e-08
-3.98533e-08
1.34991e-08
-2.46841e-08
-4.02098e-08
1.19708e-08
-2.39069e-08
-4.03975e-08
1.04462e-08
-2.19476e-08
-4.03014e-08
9.02024e-09
-1.90487e-08
-3.97955e-08
7.75218e-09
-1.5506e-08
-3.87275e-08
6.66871e-09
-1.16423e-08
-3.68901e-08
5.75712e-09
-7.78975e-09
-3.39756e-08
4.95916e-09
-4.27947e-09
-2.94853e-08
4.15223e-09
-1.47998e-09
-2.25014e-08
3.12308e-09
-1.0976e-08
1.49538e-09
-9.30671e-09
-3.78762e-08
-9.30613e-09
-1.46963e-08
-6.40899e-08
-1.3271e-08
-1.52013e-08
-7.35758e-08
-1.21061e-08
-1.13538e-08
-7.40679e-08
-8.43756e-09
-5.64036e-09
-7.18381e-08
-4.43227e-09
5.48358e-10
-6.85962e-08
-6.67618e-10
6.13799e-09
-6.54508e-08
2.67689e-09
1.0517e-08
-6.2634e-08
5.66236e-09
1.33107e-08
-6.02192e-08
8.37732e-09
1.43293e-08
-5.81604e-08
1.08752e-08
1.35352e-08
-5.64138e-08
1.31543e-08
1.10349e-08
-5.49513e-08
1.51617e-08
7.07532e-09
-5.37673e-08
1.68105e-08
2.02405e-09
-5.28672e-08
1.8011e-08
-3.65259e-09
-5.22569e-08
1.86839e-08
-9.44933e-09
-5.1921e-08
1.87964e-08
-1.48661e-08
-5.18284e-08
1.83592e-08
-1.94525e-08
-5.19281e-08
1.7427e-08
-2.28665e-08
-5.21379e-08
1.61087e-08
-2.48962e-08
-5.23572e-08
1.45336e-08
-2.54754e-08
-5.24744e-08
1.28438e-08
-2.46683e-08
-5.23711e-08
1.11664e-08
-2.26489e-08
-5.19233e-08
9.60258e-09
-1.96679e-08
-5.09929e-08
8.21645e-09
-1.60268e-08
-4.94044e-08
7.03578e-09
-1.20516e-08
-4.69108e-08
6.04553e-09
-8.07756e-09
-4.31339e-08
5.18424e-09
-4.44408e-09
-3.74441e-08
4.32535e-09
-1.53749e-09
-2.86552e-08
3.24723e-09
-1.40685e-08
1.55504e-09
-3.81283e-09
-3.02508e-08
-3.81248e-09
-5.97035e-09
-5.63351e-08
-5.59723e-09
-5.70109e-09
-6.88634e-08
-4.98164e-09
-2.94779e-09
-7.38051e-08
-3.01604e-09
1.13657e-09
-7.53231e-08
-5.99387e-10
5.67941e-09
-7.50737e-08
1.93467e-09
9.88573e-09
-7.41097e-08
4.45259e-09
1.31943e-08
-7.28752e-08
6.93268e-09
1.51975e-08
-7.15946e-08
9.37221e-09
1.56485e-08
-7.036e-08
1.17486e-08
1.44479e-08
-6.92154e-08
1.40023e-08
1.16527e-08
-6.81946e-08
1.60385e-08
7.47391e-09
-6.73236e-08
1.77351e-08
2.25725e-09
-6.66273e-08
1.89768e-08
-3.54469e-09
-6.61202e-08
1.96652e-08
-9.43675e-09
-6.57934e-08
1.97645e-08
-1.49248e-08
-6.56215e-08
1.92813e-08
-1.95574e-08
-6.55622e-08
1.82667e-08
-2.29937e-08
-6.554e-08
1.68384e-08
-2.50236e-08
-6.54658e-08
1.51386e-08
-2.55882e-08
-6.52323e-08
1.33226e-08
-2.47602e-08
-6.47262e-08
1.15271e-08
-2.27193e-08
-6.38233e-08
9.85908e-09
-1.97211e-08
-6.23787e-08
8.3875e-09
-1.60679e-08
-6.01986e-08
7.14105e-09
-1.20833e-08
-5.69987e-08
6.10327e-09
-8.09882e-09
-5.23284e-08
5.21007e-09
-4.45406e-09
-4.5422e-08
4.33318e-09
-1.53907e-09
-3.48193e-08
3.24918e-09
-1.71654e-08
1.55789e-09
-1.27567e-09
-2.76995e-08
-1.27566e-09
-1.6071e-09
-5.42542e-08
-1.74946e-09
-5.97763e-10
-6.86595e-08
-1.21321e-09
1.85054e-09
-7.62756e-08
2.21941e-11
5.16311e-09
-8.02722e-08
1.63655e-09
8.77511e-09
-8.21722e-08
3.48649e-09
1.21077e-08
-8.29396e-08
5.49726e-09
1.46851e-08
-8.3085e-08
7.63242e-09
1.61291e-08
-8.28982e-08
9.85961e-09
1.61814e-08
-8.25324e-08
1.21202e-08
1.47244e-08
-8.20804e-08
1.4322e-08
1.1785e-08
-8.15994e-08
1.63442e-08
7.55238e-09
-8.11314e-08
1.80404e-08
2.35036e-09
-8.07084e-08
1.92832e-08
-3.38611e-09
-8.03491e-08
1.99654e-08
-9.18566e-09
-8.00438e-08
2.005e-08
-1.45745e-08
-7.97735e-08
1.95409e-08
-1.91126e-08
-7.95066e-08
1.84825e-08
-2.24664e-08
-7.91841e-08
1.69978e-08
-2.44332e-08
-7.87292e-08
1.52301e-08
-2.49606e-08
-7.80482e-08
1.33433e-08
-2.41268e-08
-7.70449e-08
1.14848e-08
-2.21135e-08
-7.56031e-08
9.76654e-09
-1.91767e-08
-7.35745e-08
8.25903e-09
-1.56108e-08
-7.07527e-08
6.9883e-09
-1.173e-08
-6.68175e-08
5.93798e-09
-7.85464e-09
-6.12507e-08
5.04692e-09
-4.31392e-09
-5.31491e-08
4.18632e-09
-1.48732e-09
-4.07821e-08
3.13617e-09
-2.01591e-08
1.50635e-09
-1.08011e-10
-2.7483e-08
-1.08434e-10
5.26838e-10
-5.50139e-08
1.24805e-10
1.99652e-09
-7.08109e-08
6.81694e-10
4.32797e-09
-8.01914e-08
1.58438e-09
7.18904e-09
-8.59101e-08
2.77687e-09
1.01961e-08
-8.94012e-08
4.22195e-09
1.29226e-08
-9.15599e-08
5.89386e-09
1.49724e-08
-9.28994e-08
7.76463e-09
1.60172e-08
-9.37335e-08
9.79057e-09
1.58155e-08
-9.42345e-08
1.19038e-08
1.42449e-08
-9.45065e-08
1.39968e-08
1.13242e-08
-9.46143e-08
1.59356e-08
7.22505e-09
-9.4599e-08
1.75667e-08
2.24694e-09
-9.4491e-08
1.87607e-08
-3.20361e-09
-9.43024e-08
1.94039e-08
-8.69426e-09
-9.40267e-08
1.94736e-08
-1.37895e-08
-9.36497e-08
1.89714e-08
-1.80718e-08
-9.31487e-08
1.79244e-08
-2.12261e-08
-9.24814e-08
1.64516e-08
-2.30611e-08
-9.15904e-08
1.46962e-08
-2.353e-08
-9.04062e-08
1.28268e-08
-2.2713e-08
-8.88478e-08
1.0986e-08
-2.07897e-08
-8.68153e-08
9.28895e-09
-1.80035e-08
-8.41667e-08
7.80602e-09
-1.46357e-08
-8.06846e-08
6.56402e-09
-1.09812e-08
-7.60198e-08
5.5478e-09
-7.34243e-09
-6.95836e-08
4.6942e-09
-4.02488e-09
-6.03499e-08
3.88327e-09
-1.38365e-09
-4.63334e-08
2.9101e-09
-2.29446e-08
1.40189e-09
3.87315e-10
-2.82565e-08
3.86176e-10
1.4379e-09
-5.70038e-08
9.39366e-10
3.06512e-09
-7.39381e-08
1.50002e-09
5.22914e-09
-8.4574e-08
2.21859e-09
7.70952e-09
-9.15395e-08
3.14908e-09
1.02284e-08
-9.6235e-08
4.31493e-09
1.24607e-08
-9.95099e-08
5.71777e-09
1.40913e-08
-1.01868e-07
7.33806e-09
1.484e-08
-1.03617e-07
9.13523e-09
1.44953e-08
-1.04928e-07
1.10385e-08
1.29476e-08
-1.05897e-07
1.29386e-08
1.0212e-08
-1.06584e-07
1.47049e-08
6.4432e-09
-1.07016e-07
1.61862e-08
1.91174e-09
-1.07222e-07
1.72624e-08
-3.01741e-09
-1.07204e-07
1.78303e-08
-7.96774e-09
-1.06961e-07
1.78847e-08
-1.25591e-08
-1.06483e-07
1.74243e-08
-1.64114e-08
-1.05754e-07
1.64572e-08
-1.92411e-08
-1.04744e-07
1.50923e-08
-2.08722e-08
-1.03413e-07
1.34537e-08
-2.12609e-08
-1.01719e-07
1.1702e-08
-2.04882e-08
-9.95985e-08
9.97808e-09
-1.87218e-08
-9.69748e-08
8.39296e-09
-1.61851e-08
-9.37151e-08
7.01169e-09
-1.31341e-08
-8.95961e-08
5.86054e-09
-9.83727e-09
-8.4243e-08
4.92636e-09
-6.56309e-09
-7.70114e-08
4.15367e-09
-3.58783e-09
-6.67569e-08
3.43182e-09
-1.22914e-09
-5.12661e-08
2.57401e-09
-2.54195e-08
1.24574e-09
5.31133e-10
-2.93168e-08
5.29207e-10
1.63851e-09
-5.92631e-08
1.15198e-09
3.16332e-09
-7.71231e-08
1.66015e-09
5.03102e-09
-8.86774e-08
2.23575e-09
7.08379e-09
-9.65598e-08
2.96752e-09
9.11355e-09
-1.02164e-07
3.89879e-09
1.08777e-08
-1.06317e-07
5.04263e-09
1.21318e-08
-1.09513e-07
6.39078e-09
1.26455e-08
-1.12038e-07
7.90653e-09
1.22482e-08
-1.14055e-07
9.52414e-09
1.0849e-08
-1.15643e-07
1.11452e-08
8.45641e-09
-1.16842e-07
1.26512e-08
5.21178e-09
-1.17676e-07
1.3904e-08
1.34138e-09
-1.18156e-07
1.48042e-08
-2.84142e-09
-1.18288e-07
1.52677e-08
-7.0296e-09
-1.1808e-07
1.53068e-08
-1.09116e-08
-1.17522e-07
1.49214e-08
-1.41652e-08
-1.16595e-07
1.40948e-08
-1.65432e-08
-1.15281e-07
1.29148e-08
-1.78912e-08
-1.13555e-07
1.14901e-08
-1.81812e-08
-1.11393e-07
9.96349e-09
-1.74796e-08
-1.08762e-07
8.46138e-09
-1.59354e-08
-1.05601e-07
7.08155e-09
-1.3745e-08
-1.01787e-07
5.88203e-09
-1.11283e-08
-9.71013e-08
4.88852e-09
-8.3125e-09
-9.11464e-08
4.08767e-09
-5.52953e-09
-8.32278e-08
3.43345e-09
-3.0122e-09
-7.21085e-08
2.83428e-09
-1.02562e-09
-5.53845e-08
2.13183e-09
-2.7485e-08
1.03993e-09
4.79576e-10
-3.02733e-08
4.76888e-10
1.40464e-09
-6.11967e-08
1.00854e-09
2.61655e-09
-7.97431e-08
1.40819e-09
4.04646e-09
-9.19428e-08
1.83551e-09
5.57834e-09
-1.00468e-07
2.3765e-09
7.07021e-09
-1.0673e-07
3.07423e-09
8.34905e-09
-1.11538e-07
3.94214e-09
9.23278e-09
-1.15375e-07
4.97847e-09
9.55183e-09
-1.18509e-07
6.15264e-09
9.17297e-09
-1.21087e-07
7.41069e-09
8.02594e-09
-1.23168e-07
8.6721e-09
6.12233e-09
-1.24774e-07
9.83541e-09
3.57297e-09
-1.25917e-07
1.07905e-08
5.5535e-10
-1.26604e-07
1.14662e-08
-2.68415e-09
-1.26852e-07
1.18026e-08
-5.91607e-09
-1.26673e-07
1.18254e-08
-8.90824e-09
-1.26063e-07
1.15332e-08
-1.1402e-08
-1.24998e-07
1.08971e-08
-1.3207e-08
-1.23456e-07
9.9801e-09
-1.42045e-08
-1.2142e-07
8.86205e-09
-1.43708e-08
-1.18887e-07
7.66006e-09
-1.3763e-08
-1.15843e-07
6.47391e-09
-1.25021e-08
-1.12246e-07
5.38404e-09
-1.07462e-08
-1.07986e-07
4.44283e-09
-8.66759e-09
-1.02848e-07
3.66808e-09
-6.44935e-09
-9.64151e-08
3.05048e-09
-4.26978e-09
-8.79637e-08
2.55631e-09
-2.31008e-09
-7.61821e-08
2.11383e-09
-7.79654e-10
-5.85151e-08
1.6002e-09
-2.90561e-08
7.91396e-10
3.13427e-10
-3.08957e-08
3.09015e-10
8.93704e-10
-6.24192e-08
6.42227e-10
1.63836e-09
-8.13727e-08
8.84876e-10
2.50389e-09
-9.39571e-08
1.1488e-09
3.42756e-09
-1.02884e-07
1.49177e-09
4.32312e-09
-1.09569e-07
1.9437e-09
5.08385e-09
-1.14817e-07
2.51875e-09
5.59351e-09
-1.19097e-07
3.21187e-09
5.74281e-09
-1.22662e-07
4.00321e-09
5.44142e-09
-1.25639e-07
4.85323e-09
4.64054e-09
-1.28072e-07
5.70461e-09
3.34607e-09
-1.29972e-07
6.49223e-09
1.62751e-09
-1.31338e-07
7.1393e-09
-3.92185e-10
-1.32178e-07
7.59328e-09
-2.54865e-09
-1.32508e-07
7.81335e-09
-4.68613e-09
-1.32355e-07
7.81927e-09
-6.64629e-09
-1.31713e-07
7.61061e-09
-8.2581e-09
-1.30551e-07
7.16453e-09
-9.39248e-09
-1.28851e-07
6.52926e-09
-9.97217e-09
-1.26599e-07
5.75873e-09
-9.98749e-09
-1.23805e-07
4.93336e-09
-9.48541e-09
-1.20472e-07
4.12712e-09
-8.55259e-09
-1.16572e-07
3.39345e-09
-7.29906e-09
-1.12004e-07
2.76477e-09
-5.84599e-09
-1.06557e-07
2.25621e-09
-4.31538e-09
-9.98066e-08
1.86084e-09
-2.82804e-09
-9.10043e-08
1.55328e-09
-1.51043e-09
-7.87913e-08
1.29162e-09
-4.98696e-10
-6.05217e-08
9.94898e-10
-3.00626e-08
5.07825e-10
7.91518e-11
-3.10488e-08
7.39426e-11
2.1e-10
-6.26903e-08
1.40232e-10
3.80943e-10
-8.17374e-08
1.93782e-10
5.92071e-10
-9.44449e-08
2.7668e-10
8.3408e-10
-1.03536e-07
4.10613e-10
1.08157e-09
-1.10423e-07
6.06318e-10
1.29451e-09
-1.15897e-07
8.66866e-10
1.42342e-09
-1.20413e-07
1.18714e-09
1.42e-09
-1.24216e-07
1.55808e-09
1.23693e-09
-1.27419e-07
1.96336e-09
8.44484e-10
-1.30056e-07
2.37597e-09
2.4296e-10
-1.3213e-07
2.75998e-09
-5.44202e-10
-1.33628e-07
3.07713e-09
-1.46279e-09
-1.34562e-07
3.3026e-09
-2.43417e-09
-1.34946e-07
3.40909e-09
-3.3767e-09
-1.3481e-07
3.39774e-09
-4.20968e-09
-1.34151e-07
3.27068e-09
-4.84847e-09
-1.32936e-07
3.02401e-09
-5.2394e-09
-1.31151e-07
2.69133e-09
-5.35536e-09
-1.28786e-07
2.30377e-09
-5.20242e-09
-1.25863e-07
1.90561e-09
-4.81618e-09
-1.22385e-07
1.52686e-09
-4.24551e-09
-1.18336e-07
1.19391e-09
-3.54254e-09
-1.13629e-07
9.21889e-10
-2.77268e-09
-1.08039e-07
7.12334e-10
-1.9916e-09
-1.01152e-07
5.6401e-10
-1.26249e-09
-9.22009e-08
4.675e-10
-6.41806e-10
-7.98167e-08
4.04753e-10
-1.94911e-10
-6.13097e-08
3.41105e-10
-3.04593e-08
2.01765e-10
-1.91006e-10
-3.06605e-08
-1.97239e-10
-5.64443e-10
-6.18819e-08
-4.34913e-10
-1.03218e-09
-8.06788e-08
-5.90765e-10
-1.52881e-09
-9.32501e-08
-6.98177e-10
-2.00882e-09
-1.02278e-07
-7.77696e-10
-2.43584e-09
-1.09153e-07
-8.42576e-10
-2.78349e-09
-1.14648e-07
-9.00706e-10
-3.03433e-09
-1.19208e-07
-9.54058e-10
-3.17956e-09
-1.23068e-07
-1.0035e-09
-3.21876e-09
-1.26333e-07
-1.04671e-09
-3.15994e-09
-1.29037e-07
-1.0775e-09
-3.02262e-09
-1.31179e-07
-1.08823e-09
-2.82922e-09
-1.32743e-07
-1.07823e-09
-2.59642e-09
-1.33733e-07
-1.06151e-09
-2.33554e-09
-1.34153e-07
-1.05392e-09
-2.03769e-09
-1.34028e-07
-1.08e-09
-1.6968e-09
-1.33357e-07
-1.13504e-09
-1.32155e-09
-1.32114e-07
-1.1971e-09
-9.36512e-10
-1.30298e-07
-1.23814e-09
-5.6615e-10
-1.27911e-07
-1.24585e-09
-2.41097e-10
-1.24971e-07
-1.2171e-09
2.55495e-11
-1.21494e-07
-1.15764e-09
2.24861e-10
-1.17458e-07
-1.07794e-09
3.50375e-10
-1.1277e-07
-9.8484e-10
4.11849e-10
-1.07219e-07
-8.82297e-10
4.11417e-10
-1.00379e-07
-7.72656e-10
3.58964e-10
-9.14971e-08
-6.51341e-10
2.56744e-10
-7.92058e-08
-5.08692e-10
1.19213e-10
-6.08403e-08
-3.31835e-10
-3.0226e-08
-1.14093e-10
-4.73748e-10
-2.97063e-08
-4.80487e-10
-1.37416e-09
-5.99461e-08
-1.03538e-09
-2.49569e-09
-7.81518e-08
-1.40554e-09
-3.71412e-09
-9.03279e-08
-1.70378e-09
-4.92139e-09
-9.90772e-08
-1.99404e-09
-6.02409e-09
-1.05736e-07
-2.31422e-09
-6.93034e-09
-1.11055e-07
-2.6871e-09
-7.55863e-09
-1.15463e-07
-3.11696e-09
-7.84184e-09
-1.1919e-07
-3.59494e-09
-7.7358e-09
-1.22344e-07
-4.09564e-09
-7.2294e-09
-1.24962e-07
-4.58131e-09
-6.34956e-09
-1.27046e-07
-5.01314e-09
-5.16526e-09
-1.2858e-07
-5.34728e-09
-3.76405e-09
-1.29563e-07
-5.57148e-09
-2.24763e-09
-1.29986e-07
-5.68334e-09
-6.88567e-10
-1.29868e-07
-5.71936e-09
8.35715e-10
-1.29205e-07
-5.67596e-09
2.22531e-09
-1.27987e-07
-5.51643e-09
3.38018e-09
-1.26225e-07
-5.22798e-09
4.22259e-09
-1.23929e-07
-4.82434e-09
4.71301e-09
-1.21115e-07
-4.34628e-09
4.85068e-09
-1.17797e-07
-3.83537e-09
4.66786e-09
-1.13942e-07
-3.33241e-09
4.21923e-09
-1.09454e-07
-2.86725e-09
3.5724e-09
-1.04119e-07
-2.45312e-09
2.79775e-09
-9.75154e-08
-2.08848e-09
1.96455e-09
-8.89118e-08
-1.75209e-09
1.14625e-09
-7.69802e-08
-1.40732e-09
4.29642e-10
-5.91287e-08
-9.94997e-10
-2.93707e-08
-4.25559e-10
-7.49202e-10
-2.82e-08
-7.57091e-10
-2.16161e-09
-5.69135e-08
-1.62018e-09
-3.91798e-09
-7.41965e-08
-2.19888e-09
-5.8292e-09
-8.57399e-08
-2.67675e-09
-7.7357e-09
-9.40073e-08
-3.1633e-09
-9.4815e-09
-1.00268e-07
-3.72219e-09
-1.09186e-08
-1.05234e-07
-4.38399e-09
-1.1905e-08
-1.09315e-07
-5.16154e-09
-1.23206e-08
-1.12736e-07
-6.03823e-09
-1.20815e-08
-1.15608e-07
-6.97445e-09
-1.11524e-08
-1.17983e-07
-7.90759e-09
-9.56887e-09
-1.19871e-07
-8.75869e-09
-7.43359e-09
-1.21268e-07
-9.44712e-09
-4.90207e-09
-1.22167e-07
-9.92765e-09
-2.16417e-09
-1.22558e-07
-1.01662e-08
6.19983e-10
-1.22442e-07
-1.02096e-08
3.28501e-09
-1.21819e-07
-1.00509e-08
5.63835e-09
-1.20698e-07
-9.64274e-09
7.51257e-09
-1.19093e-07
-9.00657e-09
8.78901e-09
-1.17016e-07
-8.18966e-09
9.42139e-09
-1.14477e-07
-7.27093e-09
9.42742e-09
-1.11474e-07
-6.32921e-09
8.87774e-09
-1.07961e-07
-5.43186e-09
7.88102e-09
-1.03834e-07
-4.62286e-09
6.56078e-09
-9.8876e-08
-3.92236e-09
5.05146e-09
-9.26867e-08
-3.31944e-09
3.48279e-09
-8.45591e-08
-2.78399e-09
1.98566e-09
-7.32308e-08
-2.25217e-09
7.23269e-10
-5.62481e-08
-1.61822e-09
-2.79279e-08
-7.19518e-10
-1.00221e-09
-2.61877e-08
-1.0101e-09
-2.88239e-09
-5.28785e-08
-2.15478e-09
-5.21909e-09
-6.89385e-08
-2.92131e-09
-7.76191e-09
-7.96364e-08
-3.56062e-09
-1.03006e-08
-8.72498e-08
-4.21885e-09
-1.26285e-08
-9.29568e-08
-4.98349e-09
-1.45446e-08
-9.74187e-08
-5.89912e-09
-1.58555e-08
-1.01024e-07
-6.97951e-09
-1.63958e-08
-1.03987e-07
-8.20826e-09
-1.60393e-08
-1.06431e-07
-9.53338e-09
-1.47355e-08
-1.08418e-07
-1.08696e-08
-1.25174e-08
-1.09975e-07
-1.21139e-08
-9.52047e-09
-1.11114e-07
-1.31506e-08
-5.95266e-09
-1.11839e-07
-1.38954e-08
-2.08187e-09
-1.12147e-07
-1.42812e-08
1.83674e-09
-1.12033e-07
-1.43274e-08
5.54381e-09
-1.11501e-07
-1.40251e-08
8.76293e-09
-1.10563e-07
-1.33535e-08
1.12749e-08
-1.09229e-07
-1.23751e-08
1.293e-08
-1.07503e-07
-1.11676e-08
1.3678e-08
-1.05378e-07
-9.8468e-09
1.35545e-08
-1.0283e-07
-8.51994e-09
1.26688e-08
-9.98004e-08
-7.27476e-09
1.11754e-08
-9.61743e-08
-6.16681e-09
9.25086e-09
-9.17361e-08
-5.21532e-09
7.07922e-09
-8.61067e-08
-4.40829e-09
4.84752e-09
-7.86271e-08
-3.70031e-09
2.7422e-09
-6.81221e-08
-3.00344e-09
9.8648e-10
-5.23179e-08
-2.17446e-09
-2.5959e-08
-9.82483e-10
-1.22033e-09
-2.37393e-08
-1.22807e-09
-3.50298e-09
-4.79798e-08
-2.61612e-09
-6.3347e-09
-6.25645e-08
-3.54222e-09
-9.41647e-09
-7.22418e-08
-4.31279e-09
-1.24909e-08
-7.90695e-08
-5.10583e-09
-1.53103e-08
-8.41072e-08
-6.03014e-09
-1.76267e-08
-8.79602e-08
-7.14205e-09
-1.92078e-08
-9.09842e-08
-8.45889e-09
-1.9847e-08
-9.33901e-08
-9.95793e-09
-1.93911e-08
-9.5306e-08
-1.15812e-08
-1.77707e-08
-9.6806e-08
-1.3232e-08
-1.50182e-08
-9.79403e-08
-1.47872e-08
-1.12899e-08
-9.87411e-08
-1.61013e-08
-6.83736e-09
-9.92316e-08
-1.70601e-08
-1.99792e-09
-9.94226e-08
-1.75642e-08
2.8886e-09
-9.93132e-08
-1.76066e-08
7.47794e-09
-9.89082e-08
-1.71826e-08
1.14286e-08
-9.82185e-08
-1.62956e-08
1.44721e-08
-9.72358e-08
-1.5037e-08
1.64383e-08
-9.59501e-08
-1.35193e-08
1.72779e-08
-9.43301e-08
-1.18875e-08
1.70438e-08
-9.23296e-08
-1.02662e-08
1.58755e-08
-8.9877e-08
-8.75511e-09
1.39632e-08
-8.68467e-08
-7.41526e-09
1.15269e-08
-8.30286e-08
-6.27131e-09
8.79812e-09
-7.80708e-08
-5.3071e-09
6.00477e-09
-7.13682e-08
-4.46551e-09
3.3818e-09
-6.18622e-08
-3.63684e-09
1.21014e-09
-4.75005e-08
-2.64573e-09
-2.35433e-08
-1.20555e-09
-1.39339e-09
-2.0945e-08
-1.40083e-09
-3.99508e-09
-4.23975e-08
-2.98054e-09
-7.21983e-09
-5.53107e-08
-4.02903e-09
-1.07246e-08
-6.38393e-08
-4.89775e-09
-1.42187e-08
-6.97862e-08
-5.78922e-09
-1.74187e-08
-7.40842e-08
-6.82302e-09
-2.00434e-08
-7.72717e-08
-8.06389e-09
-2.18269e-08
-7.96687e-08
-9.53189e-09
-2.25343e-08
-8.14785e-08
-1.12041e-08
-2.19925e-08
-8.2827e-08
-1.30208e-08
-2.01186e-08
-8.38057e-08
-1.48743e-08
-1.69472e-08
-8.44834e-08
-1.66282e-08
-1.26476e-08
-8.49168e-08
-1.81239e-08
-7.50711e-09
-8.51485e-08
-1.92236e-08
-1.91136e-09
-8.52087e-08
-1.98096e-08
3.73012e-09
-8.5107e-08
-1.98477e-08
9.00449e-09
-8.4849e-08
-1.93335e-08
1.35169e-08
-8.44322e-08
-1.82988e-08
1.69706e-08
-8.38336e-08
-1.68559e-08
1.91791e-08
-8.30201e-08
-1.51385e-08
2.00919e-08
-8.19377e-08
-1.33051e-08
1.97749e-08
-8.05193e-08
-1.14934e-08
1.83886e-08
-7.86775e-08
-9.81321e-09
1.61511e-08
-7.62825e-08
-8.32672e-09
1.33165e-08
-7.31358e-08
-7.0581e-09
1.01488e-08
-6.89152e-08
-5.98794e-09
6.91511e-09
-6.3084e-08
-5.05054e-09
3.88611e-09
-5.4708e-08
-4.12525e-09
1.38552e-09
-4.19875e-08
-3.01244e-09
-2.07775e-08
-1.38027e-09
-1.51657e-09
-1.79051e-08
-1.52335e-09
-4.34385e-09
-3.63323e-08
-3.23792e-09
-7.84337e-09
-4.74401e-08
-4.37105e-09
-1.16446e-08
-5.47375e-08
-5.30061e-09
-1.54307e-08
-5.97548e-08
-6.24523e-09
-1.88915e-08
-6.3288e-08
-7.33535e-09
-2.17237e-08
-6.5801e-08
-8.63854e-09
-2.3637e-08
-6.75807e-08
-1.01747e-08
-2.43802e-08
-6.88111e-08
-1.19241e-08
-2.37662e-08
-6.96205e-08
-1.38205e-08
-2.17079e-08
-7.01098e-08
-1.57542e-08
-1.82414e-08
-7.03612e-08
-1.75887e-08
-1.35471e-08
-7.04535e-08
-1.91577e-08
-7.93396e-09
-7.04466e-08
-2.0315e-08
-1.82121e-09
-7.03875e-08
-2.0934e-08
4.33461e-09
-7.02958e-08
-2.09669e-08
1.00746e-08
-7.01764e-08
-2.04126e-08
1.49718e-08
-7.00173e-08
-1.93122e-08
1.87077e-08
-6.97807e-08
-1.77888e-08
2.10847e-08
-6.9409e-08
-1.59881e-08
2.20524e-08
-6.88309e-08
-1.40745e-08
2.16836e-08
-6.79649e-08
-1.21855e-08
2.01485e-08
-6.67104e-08
-1.0432e-08
1.76873e-08
-6.49397e-08
-8.88147e-09
1.45739e-08
-6.24674e-08
-7.55501e-09
1.10987e-08
-5.90074e-08
-6.4326e-09
7.55501e-09
-5.40953e-08
-5.44488e-09
4.23981e-09
-4.6931e-08
-4.46173e-09
1.50886e-09
-3.59886e-08
-3.26789e-09
-1.77654e-08
-1.50324e-09
-1.58605e-09
-1.4727e-08
-1.59202e-09
-4.5381e-09
-3.00001e-08
-3.38013e-09
-8.19104e-09
-3.92339e-08
-4.55329e-09
-1.21574e-08
-4.52651e-08
-5.50604e-09
-1.61069e-08
-4.93409e-08
-6.46446e-09
-1.97132e-08
-5.21199e-08
-7.56166e-09
-2.26553e-08
-5.39922e-08
-8.86669e-09
-2.46312e-08
-5.52041e-08
-1.04007e-08
-2.53808e-08
-5.59219e-08
-1.21396e-08
-2.47129e-08
-5.62703e-08
-1.40181e-08
-2.25411e-08
-5.635e-08
-1.59316e-08
-1.89025e-08
-5.62563e-08
-1.77435e-08
-1.39884e-08
-5.60747e-08
-1.92929e-08
-8.11834e-09
-5.588e-08
-2.04366e-08
-1.72602e-09
-5.57288e-08
-2.1051e-08
4.70667e-09
-5.56496e-08
-2.1079e-08
1.06954e-08
-5.56465e-08
-2.05186e-08
1.5801e-08
-5.56989e-08
-1.9424e-08
1.96905e-08
-5.5755e-08
-1.79152e-08
2.21642e-08
-5.57486e-08
-1.61341e-08
2.31669e-08
-5.55937e-08
-1.424e-08
2.27722e-08
-5.51998e-08
-1.23705e-08
2.11563e-08
-5.44641e-08
-1.06303e-08
1.85659e-08
-5.32636e-08
-9.08574e-09
1.52908e-08
-5.14308e-08
-7.76151e-09
1.16371e-08
-4.87176e-08
-6.63606e-09
7.91441e-09
-4.47328e-08
-5.63983e-09
4.43739e-09
-3.88167e-08
-4.63729e-09
1.57741e-09
-2.97223e-08
-3.40637e-09
-1.4616e-08
-1.57195e-09
-1.59846e-09
-1.15252e-08
-1.60331e-09
-4.57206e-09
-2.36254e-08
-3.40109e-09
-8.25561e-09
-3.09786e-08
-4.57171e-09
-1.22605e-08
-3.57497e-08
-5.51039e-09
-1.62508e-08
-3.89062e-08
-6.44434e-09
-1.98931e-08
-4.09715e-08
-7.50619e-09
-2.28588e-08
-4.22636e-08
-8.76295e-09
-2.48411e-08
-4.29876e-08
-1.02341e-08
-2.55775e-08
-4.32902e-08
-1.18954e-08
-2.48791e-08
-4.32838e-08
-1.36848e-08
-2.26631e-08
-4.30658e-08
-1.55002e-08
-1.89747e-08
-4.27303e-08
-1.72144e-08
-1.40046e-08
-4.23658e-08
-1.86791e-08
-8.07598e-09
-4.20502e-08
-1.97583e-08
-1.62363e-09
-4.18446e-08
-2.03365e-08
4.86609e-09
-4.17794e-08
-2.03599e-08
1.09048e-08
-4.1858e-08
-1.98271e-08
1.60519e-08
-4.20563e-08
-1.87897e-08
1.99755e-08
-4.23185e-08
-1.736e-08
2.24725e-08
-4.25721e-08
-1.56735e-08
2.34846e-08
-4.27295e-08
-1.38764e-08
2.3081e-08
-4.26996e-08
-1.20966e-08
2.14387e-08
-4.23855e-08
-1.04363e-08
1.88047e-08
-4.1672e-08
-8.95764e-09
1.5475e-08
-4.04158e-08
-7.68536e-09
1.17636e-08
-3.84071e-08
-6.59908e-09
7.98981e-09
-3.53283e-08
-5.63067e-09
4.47375e-09
-3.06537e-08
-4.64692e-09
1.58836e-09
-2.34131e-08
-3.42373e-09
-1.14438e-08
-1.58385e-09
-1.54914e-09
-8.42289e-09
-1.5532e-09
-4.43738e-09
-1.74473e-08
-3.28984e-09
-8.0276e-09
-2.29776e-08
-4.41074e-09
-1.19486e-08
-2.65317e-08
-5.29707e-09
-1.58672e-08
-2.88177e-08
-6.16991e-09
-1.94492e-08
-3.02311e-08
-7.15838e-09
-2.23658e-08
-3.10203e-08
-8.32671e-09
-2.43086e-08
-3.13534e-08
-9.69137e-09
-2.50222e-08
-3.13483e-08
-1.12283e-08
-2.43236e-08
-3.11037e-08
-1.28787e-08
-2.21362e-08
-3.07052e-08
-1.4548e-08
-1.851e-08
-3.02381e-08
-1.61183e-08
-1.36347e-08
-2.97854e-08
-1.74557e-08
-7.82711e-09
-2.94187e-08
-1.84391e-08
-1.51021e-09
-2.91951e-08
-1.89664e-08
4.84105e-09
-2.91446e-08
-1.89861e-08
1.07497e-08
-2.92697e-08
-1.8497e-08
1.57883e-08
-2.95461e-08
-1.75488e-08
1.96308e-08
-2.992e-08
-1.62411e-08
2.20771e-08
-3.0323e-08
-1.46954e-08
2.30666e-08
-3.0675e-08
-1.30439e-08
2.26633e-08
-3.08929e-08
-1.14034e-08
2.10357e-08
-3.08891e-08
-9.86888e-09
1.84301e-08
-3.05672e-08
-8.4991e-09
1.51395e-08
-2.98071e-08
-7.31821e-09
1.14813e-08
-2.84403e-08
-6.30861e-09
7.77646e-09
-2.62179e-08
-5.40551e-09
4.34223e-09
-2.27408e-08
-4.47871e-09
1.53827e-09
-1.72988e-08
-3.31032e-09
-8.37004e-09
-1.53549e-09
-1.43037e-09
-5.55924e-09
-1.43326e-09
-4.11714e-09
-1.17319e-08
-3.02861e-09
-7.49073e-09
-1.55607e-08
-4.04336e-09
-1.12088e-08
-1.79808e-08
-4.83282e-09
-1.49496e-08
-1.94713e-08
-5.60553e-09
-1.83833e-08
-2.03138e-08
-6.48357e-09
-2.11838e-08
-2.06927e-08
-7.52703e-09
-2.30526e-08
-2.07345e-08
-8.7501e-09
-2.37404e-08
-2.05318e-08
-1.01287e-08
-2.30764e-08
-2.01608e-08
-1.1607e-08
-2.09914e-08
-1.96913e-08
-1.30988e-08
-1.75387e-08
-1.91932e-08
-1.44977e-08
-1.29009e-08
-1.87351e-08
-1.56881e-08
-7.38107e-09
-1.8377e-08
-1.65615e-08
-1.3798e-09
-1.81673e-08
-1.70291e-08
4.6525e-09
-1.81311e-08
-1.70457e-08
1.02639e-08
-1.82705e-08
-1.66106e-08
1.50494e-08
-1.85635e-08
-1.57681e-08
1.86989e-08
-1.89652e-08
-1.46043e-08
2.10198e-08
-1.94177e-08
-1.32262e-08
2.19494e-08
-1.98545e-08
-1.17501e-08
2.15443e-08
-2.02063e-08
-1.02814e-08
1.99654e-08
-2.04041e-08
-8.90604e-09
1.7449e-08
-2.03711e-08
-7.67963e-09
1.42827e-08
-2.00149e-08
-6.62592e-09
1.07806e-08
-1.92083e-08
-5.72994e-09
7.25972e-09
-1.77661e-08
-4.93086e-09
4.02902e-09
-1.54043e-08
-4.10572e-09