/*--------------------------------*- C++ -*----------------------------------*\
| =========                 |                                                 |
| \\      /  F ield         | OpenFOAM: The Open Source CFD Toolbox           |
|  \\    /   O peration     | Version:  v1912                                 |
|   \\  /    A nd           | Website:  www.openfoam.com                      |
|    \\/     M anipulation  |                                                 |
\*---------------------------------------------------------------------------*/
FoamFile
{
    version     2.0;
    format      ascii;
    class       volScalarField;
    location    "504/oil";
    object      heatTransferCoeff(T);
}
// * * * * * * * * * * * * * * * * * * * * * * * * * * * * * * * * * * * * * //

dimensions      [1 0 -3 -1 0 0 0];


internalField   uniform 0;

boundaryField
{
    maxY
    {
        type            calculated;
        value           uniform 0;
    }
    minX
    {
        type            calculated;
        value           uniform 0;
    }
    maxX
    {
        type            calculated;
        value           uniform 0;
    }
    minY
    {
        type            calculated;
        value           uniform 0;
    }
    minZ
    {
        type            calculated;
        value           uniform 0;
    }
    maxZ
    {
        type            calculated;
        value           uniform 0;
    }
    oil_to_sphere
    {
        type            calculated;
        value           nonuniform List<scalar> 
1536
(
-11.1009
-5.85108
-5.71624
3.81391
4.02755
-5.6116
-1.36308
-3.1339
-2.50507
2.97007
6.83382
2.24475
-2.41416
2.05698
8.04503
-0.800875
-5.61981
-5.96948
-0.523363
-2.13723
-4.35247
-2.59361
-2.95619
-0.744192
-1.25307
-0.99776
-1.24193
-0.103583
-5.29204
-2.75368
-6.86517
-5.89138
-6.06801
-0.864012
-1.16965
-0.154604
-0.644905
0.896312
-0.0658326
-1.21789
0.144641
-0.614684
-2.32484
-3.3911
-4.67727
-1.15233
-4.21421
-2.85127
7.62874
-0.963903
-3.86117
-2.57581
-2.75152
-0.745448
-5.12262
-8.708
-2.90163
-2.14792
-4.26327
-3.78572
-2.18917
-2.35991
-2.08237
-0.604563
-1.11186
-1.96026
-2.12479
-3.97722
-3.94197
-5.10568
-0.578891
4.06708
2.36189
-1.01024
-0.990338
-9.05679
-6.13759
0.868718
-0.812416
-5.78241
-4.42302
-3.63998
3.75921
3.89348
-5.26628
-10.0784
5.12975
-1.68079
-3.7881
-3.76478
-2.48639
-0.33064
-0.240204
-0.479604
-0.979698
-3.34864
-4.29333
-4.65735
-6.52244
-3.6441
-4.45683
-0.505075
-11.1768
-3.90134
2.59167
-0.886457
-1.3217
3.44689
3.50271
-11.303
-6.08584
-3.09988
-2.32096
-2.96239
4.51182
4.01758
5.55042
-7.74367
-10.6063
-6.37114
-2.73128
-2.96293
-0.0060455
-4.23291
-6.81075
-3.36129
-2.70256
0.339035
-4.55604
-4.25449
-1.98024
-4.0416
-5.05608
-1.38207
-1.70307
-5.37514
-2.9931
-5.82151
0.242881
-5.67332
-2.55696
-4.19201
-4.24658
-2.39795
-1.79617
-2.28064
-3.45787
-7.46681
-1.66962
-11.3983
-4.90005
-5.60033
-2.90187
-3.18845
-1.02554
-3.34098
-5.35069
-4.08355
-12.2432
-6.44014
-6.07289
-7.70481
1.63845
0.808049
-0.400745
-0.31837
-5.06727
-7.26162
-6.53478
-8.69588
-0.0729957
-0.397792
0.82471
-4.29943
-2.66998
-3.16712
-9.62594
1.4497
2.71437
-10.0854
-0.218922
0.72535
0.932525
0.435918
-3.70454
-10.0859
-6.47524
0.171301
1.84769
-5.88151
1.51288
-4.97779
-4.99564
-7.3275
2.30559
9.19671
-7.12422
-7.85247
-1.20799
-0.961735
-2.5936
-1.4301
-5.957
-7.06061
-4.76255
-3.65225
-0.418052
-7.4683
-6.55478
-3.05391
0.339862
-1.11031
-0.897537
-1.47107
-4.38696
-8.86601
1.9297
2.14328
1.97937
9.91879
-5.5865
-4.3334
-3.60169
-2.54101
-2.7619
-7.46865
-4.93747
-0.988313
-5.6124
2.93682
-0.169369
8.96945
-2.38576
-5.22892
-7.15017
-6.59869
-5.62209
-4.52502
-6.35943
2.35627
1.59965
1.03345
-7.97949
0.616658
9.08712
5.35087
-4.38195
-2.10365
-9.69016
-12.0141
-3.04924
3.91519
9.76877
-3.76782
-6.35783
-0.493828
-0.654113
4.73723
-0.300333
-7.45708
-10.276
-2.06151
-0.635613
-8.45357
-6.49228
-1.06807
2.50966
-1.67151
-9.035
-7.78861
-4.53686
-5.01023
-6.93164
0.943148
-0.864768
-7.20399
-5.00131
-5.69366
-2.31897
-5.61639
-8.71983
-4.70051
-4.27291
-8.16356
-0.519521
-0.460444
-0.903118
-0.0743979
-0.373467
-7.39842
-9.20744
2.40981
-1.55128
-1.2707
-1.46284
0.184306
-2.75942
-2.25772
0.732128
4.67481
-0.240494
2.1867
0.206614
-10.0955
-8.28749
-8.18432
-11.4902
1.26488
0.885256
-2.51605
-11.4243
-10.1791
-0.165829
-2.35225
0.105357
-4.90135
-0.735356
-4.24102
-4.6767
-6.14188
-5.16041
-1.15494
-5.33604
-0.18811
-6.95918
-7.6345
-5.80119
-5.36905
0.573658
-9.34016
-9.07969
-4.73821
2.42287
-0.461755
-1.37804
-4.696
-4.18102
-4.97016
0.74449
-6.87279
-6.91325
-6.20393
-8.15317
-4.0223
-3.35896
-2.13159
1.61586
-3.37466
-4.7902
1.65739
2.02886
1.10051
-10.836
-6.75106
-8.1483
-4.14212
-3.26283
-7.25288
1.90175
-9.70144
-6.14591
-3.38191
-3.26472
2.24592
-6.06379
-6.63432
0.385483
-3.39681
-2.01924
-0.648176
-4.91006
-6.78556
-2.31955
-1.02421
1.23745
-8.87918
-6.99875
2.08055
-7.29956
-6.55339
-5.58564
-8.86885
-3.31577
-5.18469
3.11246
2.25229
-4.65103
-11.3001
-5.81482
-9.62713
-4.05578
-1.33617
-6.49282
1.1465
0.146187
-4.17793
-6.69016
-4.98746
-4.20248
0.933631
0.877205
-7.22316
-6.83379
-7.01194
-3.18178
-0.308012
-4.339
-5.38143
-6.6369
-3.48826
-1.67702
0.582481
-3.03296
1.40393
3.43315
-0.449703
0.523577
-3.12136
2.92073
-1.40328
-9.3129
-1.28312
-1.21887
-6.6252
-6.57005
-4.81808
-2.03795
1.70637
-5.76317
-8.22217
-4.55205
-3.53907
-5.9787
-2.36442
-2.92654
-4.04774
3.8158
-4.42927
-6.92833
-8.09227
-6.42893
-5.24385
-5.03872
-3.54179
-1.7943
1.13768
-2.69127
0.561727
2.22946
0.0830707
3.45239
-10.2548
-9.53469
-7.67479
-10.9549
1.38112
-10.3305
0.781259
-0.24898
-5.59117
1.77727
0.946031
-1.46672
-1.30796
-9.714
-8.23693
-4.06682
-4.43072
-8.78497
-7.25383
-3.48858
-5.33777
0.253554
-6.70534
2.42139
-8.03095
3.86179
-5.07447
-5.72784
-6.42011
-1.12425
1.17044
-1.94068
-6.58678
-2.18653
2.80116
-6.64718
-7.0743
-7.63149
-11.7528
-3.37297
-8.63678
1.31128
0.653068
7.40784
5.32514
-3.47743
-1.45925
-0.774359
0.0801722
-10.704
1.00612
1.87251
2.59833
-1.41177
3.04927
-12.1684
0.324529
-0.0663318
-2.71555
6.70434
4.82775
-0.489087
-0.351065
-2.33477
-1.00954
-7.03991
-6.40248
-5.06412
-3.43464
3.29677
-0.745886
-6.19311
1.14773
0.362388
-5.77832
-8.94649
0.289457
7.48489
1.60803
6.85799
-2.61471
-1.14172
-0.0837867
2.47252
6.70579
-4.90949
-5.65432
-4.2207
-2.50687
-9.07228
-5.08134
-4.72358
-3.26921
0.611783
-0.937342
-7.01463
-5.06771
-1.61204
5.52188
-3.63169
-5.92732
-9.37415
-3.808
-0.380646
-9.43566
-2.67163
-8.70933
0.300819
-1.17195
0.982867
-1.2826
-3.73187
-8.96976
1.49456
-0.057828
0.638287
-1.39344
-12.3453
2.51475
-0.861973
1.94649
-2.70465
-3.70541
-7.05543
-9.09608
3.39849
2.38931
-9.00598
-9.61564
4.31378
-8.63943
-7.32315
-5.79709
-7.12494
-4.70804
-3.02484
-3.32413
-8.8261
-3.45511
-4.81698
-3.01453
-6.65907
-3.82431
-2.62191
-2.25906
1.60565
-5.78953
-2.4404
-6.56574
-5.21006
-5.31561
-5.04573
-3.49237
2.26182
-7.16426
-7.11759
-4.87732
-2.56503
-3.93777
-11.1336
3.17383
0.390311
1.40116
-3.54975
0.29289
-11.1945
-1.29009
-1.82278
-2.81972
7.30804
6.4224
-0.650144
-0.546022
-3.32179
0.979481
0.0301543
-3.68535
-0.0414059
-9.14479
1.73627
-10.8779
-1.11151
-3.41152
9.15193
6.62684
7.47813
-0.0849388
-5.80975
-0.829082
-0.101157
6.7823
-3.12145
-6.04257
-3.22367
-13.5595
0.29783
-7.02681
-4.67901
-6.00935
-7.46777
-7.23535
-5.93582
-2.72114
-1.66721
-2.6713
-6.00401
-2.03874
-4.29094
-3.72619
-4.18173
-6.45087
-5.07269
-5.75905
1.7326
0.534217
9.34209
4.66647
3.56491
12.4043
-0.463515
-1.02152
-2.05294
-2.60143
3.44047
1.51081
-1.59575
-7.81711
-7.19731
-1.49582
2.67094
-2.39168
-6.28541
-4.76853
-2.88197
3.05454
0.30035
-4.95402
-3.91944
-2.7856
-0.631217
-5.44188
-5.51471
-8.86743
-5.5993
-3.57737
-1.0171
0.111393
1.68752
-0.269551
-2.08171
-11.4808
-3.48475
-10.062
0.387407
-11.8883
-0.482332
-2.23646
1.33404
0.8285
-1.06842
1.84102
-1.94314
2.95952
-0.718017
-6.91413
-1.39103
2.14084
-9.20902
-5.27672
-4.38803
-2.42836
-8.60184
-14.3185
4.58132
-5.13832
-4.02728
-4.79885
1.87415
-2.52231
0.136764
-4.11367
-5.57888
-7.29709
0.66949
-4.91803
-3.222
-5.51715
-5.18976
-4.69101
-1.50193
-2.12104
-0.771282
2.75022
3.31718
1.0548
-8.43397
-0.736609
1.91187
-0.885492
-7.06232
-1.88731
-8.37647
-6.36436
-4.52377
-3.564
-4.41125
-9.49989
1.04271
-5.05808
-7.32319
-7.89664
-3.45693
0.173717
-1.74461
-4.42357
-8.04617
1.41611
-2.18208
-3.29049
-6.93501
-4.466
-4.32676
-8.5694
1.31533
-0.0438948
0.624468
-9.51983
-7.22904
-3.36533
-6.88652
-0.107361
-0.702668
-6.868
-4.27311
-8.91279
0.800359
-6.06165
-6.68246
-3.72507
-4.15394
-5.75846
0.727261
3.60474
-2.97263
-4.31052
-9.64682
-2.31552
-0.364862
-2.67031
-4.48519
-5.97322
-3.57801
0.0652475
-2.36063
-6.65108
1.38604
0.0275744
-2.37486
-0.645179
-4.0077
-3.54166
-7.78465
-4.75959
-6.40974
-0.852447
-2.70471
-3.99873
-2.54105
-1.74399
-1.00354
-0.942014
1.2067
-5.37308
-3.86488
-3.88009
-4.54452
2.39016
-1.30505
-9.3178
-9.45118
0.0501659
-6.99928
-4.46089
-5.34891
-0.852625
-7.95421
-7.60973
0.903942
-1.88364
-1.2229
-1.00064
2.59678
1.48522
-1.22515
-7.4723
-11.0993
-0.386711
-5.71039
-5.35164
-4.36009
-2.04742
-4.0365
-7.74209
-3.7964
0.747514
-1.34302
-0.883144
-1.08446
-4.80065
-5.28186
-5.39716
-5.66236
-5.6078
0.0323375
-5.93672
-1.46698
-5.07545
6.71149
-4.56222
-8.29355
-1.72315
4.58886
-2.83196
-2.10717
-10.0732
0.538395
-5.94338
-2.62031
3.68737
-9.1091
2.16085
-2.19258
-3.05188
2.45524
-7.00107
-4.10074
-2.03695
-3.30304
-4.06311
-2.19475
-10.3773
2.04037
-1.12373
8.09918
-1.42244
-1.76404
-3.22441
-6.95517
-14.6426
2.92382
-1.16778
-12.9376
2.12654
-5.54281
0.17593
-5.33624
5.04532
0.527633
-12.7612
4.02741
-11.5425
3.17055
-9.79259
3.64166
0.60216
7.56975
2.05084
-12.0263
6.15296
-2.50567
4.05759
-8.54529
-12.0976
5.87628
-1.71841
-0.514367
0.730182
0.893871
-1.26689
-3.10877
-3.08188
-5.20452
-2.68127
-8.72675
-13.3684
5.99621
-3.00254
-4.57323
-3.10569
-3.71885
-2.41062
-1.71964
-2.392
-6.24671
-2.51034
-6.35693
-1.0487
-3.84529
-8.29102
-1.68969
-5.01
-7.09768
-1.03132
-3.84498
-2.63515
-5.13737
-2.21739
-3.41645
-1.8219
-6.83852
-1.37516
-4.33974
3.23938
-8.94001
5.62433
-4.24566
-6.60411
-9.20384
0.414535
-3.62181
-2.70091
-3.62805
-3.1968
-2.49629
-6.16188
1.02214
9.36017
-1.64708
4.52726
-7.2477
0.322034
-2.96194
-5.37698
8.69326
-7.90825
1.26561
7.01924
0.717149
-5.58454
-5.25868
-3.16601
6.0483
-3.06725
-3.82464
-0.336481
0.282939
-7.40969
-6.69062
-0.750689
-3.31024
-7.44055
5.93008
-6.11501
0.395943
-5.01766
5.44238
-11.0311
-10.6787
-6.69206
-3.05857
-1.71234
-5.39003
-1.50458
6.12413
1.40164
-5.7493
0.159741
-4.61232
4.62394
-7.11224
-4.97367
11.219
-3.09636
-4.10673
8.3476
-8.0732
3.36649
-7.33462
-9.01378
-6.04744
6.82631
-3.38145
-1.9302
-3.15871
-3.4892
-4.67043
5.84203
-0.932528
0.0248776
0.0020296
-6.96
-2.87769
-4.13831
-5.27356
-5.00684
-1.85781
-3.56009
-2.10833
-4.29974
-7.55849
-0.745125
-1.63603
-0.476497
-3.4175
-6.54992
-0.678928
-1.51103
-1.10275
-2.95027
0.0601687
-0.314152
-1.46623
-1.8211
-3.47132
-1.29531
-8.91375
-6.15508
4.2004
4.09596
-8.10221
12.3692
-5.872
-3.78769
0.086606
-1.82994
-8.28281
8.71596
-7.25609
-4.15078
6.43994
-1.15911
-0.305264
-2.89179
9.20506
-8.11257
-4.27507
8.53532
-7.72957
-7.78413
5.19524
-9.25413
-6.66752
5.06777
-0.43528
0.0454289
8.60569
-3.07636
-3.60899
1.3648
0.39204
0.854198
10.9093
0.49731
9.11507
11.5377
-6.88361
-0.47792
-12.0458
-0.709998
5.90029
-8.20993
-2.07965
7.61805
-0.726673
-0.48676
7.73126
4.07877
-7.77066
13.8992
1.36412
2.31948
12.425
-7.23232
-6.33411
-3.03955
-1.41214
-0.392577
1.31884
9.9358
-3.19304
-1.50124
-1.70963
-3.05478
6.99606
-5.59889
-0.764324
-2.4947
-0.332577
-2.33299
-3.44223
1.62642
6.57188
-1.24404
-3.58009
-0.667704
-1.39217
-2.63537
0.411708
-1.60432
7.23342
-0.741411
-4.08307
-0.406078
-1.86785
0.271575
6.42002
-8.24535
-8.05184
-7.6864
-9.22533
5.24671
8.2745
-0.821608
-5.8216
-3.58771
-5.49119
-6.23237
1.34735
2.35394
8.15348
5.91123
0.431483
-2.56153
-2.26176
-2.048
2.34485
-6.96094
-4.2025
4.9672
0.612644
1.5504
-6.13396
0.310708
9.99306
-2.46595
-2.8359
-7.20782
7.40115
-0.370754
-3.4474
-1.03828
-1.85074
-5.31182
-2.44143
1.21285
-9.75151
11.6275
3.19557
-1.92092
0.368851
-1.28202
-9.17054
-4.36401
-2.86135
2.94738
-8.34102
-0.925913
-3.42685
-6.22212
-7.20558
-6.8243
-7.17273
-8.80834
-9.88596
-8.62634
-8.64351
-2.88139
-6.44761
-0.731883
-1.8273
2.50465
3.72395
10.7614
-9.37197
-9.06175
-7.66412
-1.61757
-3.4703
-3.15146
0.211759
-3.72506
-6.37803
1.05978
-2.0983
-5.08469
-0.402621
-0.83942
-0.602733
-1.55128
0.439533
-1.40191
-0.999097
5.41295
-3.40404
0.988047
-2.06291
7.72244
-9.31133
-2.27478
-0.113278
0.621592
4.86686
-2.79774
-0.24401
8.52985
3.12139
-2.16324
3.91483
2.69804
-10.1111
-10.6346
-1.04037
-1.08719
-5.70888
-9.10132
8.64964
0.325355
0.448737
-1.31253
-1.27494
-1.67844
-2.3917
2.45524
6.25273
-8.05719
-1.16002
3.41588
2.54647
-1.0453
-2.94911
4.78287
-1.72866
0.251052
-0.730462
-9.18851
3.27412
6.08956
-1.25786
-0.371586
0.464718
6.13003
-7.2298
-0.960843
-0.770225
-1.00357
8.46292
-1.0169
-1.26288
5.90291
-0.894041
3.14598
-4.23329
-7.94839
0.239777
-6.45313
-4.02938
0.0534668
-0.124743
-1.42066
6.12187
-3.89905
-4.56232
-0.544979
7.41746
1.67011
-1.92908
-2.27185
0.153341
6.63314
-0.0378634
-7.22489
-4.02119
-0.132871
-9.96552
3.23255
-6.13052
8.26851
3.50337
-6.52904
8.46741
-6.89003
-0.0342053
-2.92699
-0.745606
-10.467
2.13002
-3.04839
-9.21644
-8.28835
4.29376
-7.96719
-9.19726
12.1088
-1.69596
-0.336163
7.98048
-4.48097
-0.229843
-0.784236
-0.801099
-2.46586
-1.7227
-0.554981
-0.134459
8.28326
-4.48613
-2.90354
-2.64285
-3.40694
-1.61774
0.072982
1.60349
-5.55096
9.72243
0.573192
0.888166
9.30591
-6.64469
-9.67328
-2.11002
-7.64831
-8.29926
0.260266
0.210537
-4.44321
-7.59636
0.448792
-5.03538
2.57484
7.97713
-5.70464
0.996283
-7.21139
-9.91538
-9.04299
7.40408
-6.25227
-3.03142
1.25199
-0.503539
-1.29137
-0.275108
7.20903
-7.4917
6.87614
-7.31485
-1.54481
2.57477
3.52994
-1.57945
-5.24013
-8.64877
-2.74736
-11.4691
-5.83447
-6.94745
8.71791
-6.39737
-5.46248
-7.22668
0.298834
1.12604
9.80017
-2.20263
-11.0697
-7.6783
6.36247
2.23017
7.01465
0.304109
-2.40977
2.69422
-13.8029
-0.803188
2.19424
6.11594
-3.9527
1.02452
9.05842
-1.81075
-0.166157
-0.335948
-0.498762
-0.572537
6.0221
2.58112
7.91467
-0.203439
-5.76837
-4.27184
-7.9544
-7.20529
0.562602
1.57754
8.34729
-0.00893523
-5.22913
-8.47559
-5.8137
-6.15694
3.37831
9.42122
2.04277
10.1486
-5.66808
-6.04929
1.57169
-6.81861
-5.53997
-7.99781
-3.64523
-2.94095
-2.79746
0.562878
8.51804
1.84786
7.46997
2.92086
-0.50528
0.158483
5.38157
7.47462
-4.96374
-11.1257
-9.95755
-9.04487
-2.66942
-4.80556
-4.6094
-2.17922
-0.472522
-2.19299
1.26564
-1.5167
-1.5627
7.41506
-5.49767
-1.13802
2.20327
5.56531
-0.0713748
-2.55629
-2.50043
0.140482
5.51624
-8.71941
-3.89876
-0.288689
-9.84878
1.07797
7.84213
-4.24063
-1.53235
-1.59614
-1.60091
0.000481815
9.77368
-1.51083
-1.45748
6.79785
-8.35059
-0.956094
13.8775
-0.483793
-2.34178
-2.6836
0.0294268
7.23411
0.762339
0.500509
3.72041
-1.83445
8.28683
-2.06433
-1.76603
4.15267
-9.67735
-1.42911
5.91185
-10.7284
-2.2287
-2.2226
5.64841
-1.76853
6.91753
)
;
    }
}


// ************************************************************************* //
