/*--------------------------------*- C++ -*----------------------------------*\
| =========                 |                                                 |
| \\      /  F ield         | OpenFOAM: The Open Source CFD Toolbox           |
|  \\    /   O peration     | Version:  v1906                                 |
|   \\  /    A nd           | Web:      www.OpenFOAM.com                      |
|    \\/     M anipulation  |                                                 |
\*---------------------------------------------------------------------------*/
FoamFile
{
    version     2.0;
    format      ascii;
    class       volVectorField;
    location    "61/oil";
    object      U;
}
// * * * * * * * * * * * * * * * * * * * * * * * * * * * * * * * * * * * * * //

dimensions      [0 1 -1 0 0 0 0];


internalField   nonuniform List<vector> 
27760
(
(-2.51894e-05 -2.56767e-05 -2.51894e-05)
(-4.97231e-05 -1.92621e-05 -1.81444e-05)
(-3.63059e-06 -4.99603e-06 -4.96223e-06)
(-5.925e-06 -8.15339e-07 -9.0518e-07)
(-1.23748e-06 -2.60557e-07 -3.65939e-07)
(-4.87038e-07 -1.07568e-07 -2.22021e-07)
(1.87303e-07 -1.48318e-08 -1.3817e-07)
(5.22009e-07 2.53999e-08 -1.05322e-07)
(7.08297e-07 4.85647e-08 -8.74607e-08)
(7.81862e-07 6.32612e-08 -7.61313e-08)
(7.67716e-07 7.39677e-08 -6.70529e-08)
(6.79406e-07 8.19543e-08 -5.95576e-08)
(5.29526e-07 8.79679e-08 -5.34697e-08)
(3.32692e-07 9.20798e-08 -4.90844e-08)
(1.05876e-07 9.42352e-08 -4.67257e-08)
(-1.3208e-07 9.43944e-08 -4.65699e-08)
(-3.6185e-07 9.26028e-08 -4.85718e-08)
(-5.65255e-07 8.90116e-08 -5.2439e-08)
(-7.26917e-07 8.38714e-08 -5.76503e-08)
(-8.35561e-07 7.74898e-08 -6.35002e-08)
(-8.84866e-07 7.01767e-08 -6.91965e-08)
(-8.74121e-07 6.20558e-08 -7.38402e-08)
(-8.07621e-07 5.36439e-08 -7.63337e-08)
(-6.94507e-07 4.50087e-08 -7.60929e-08)
(-5.48528e-07 3.63824e-08 -7.23437e-08)
(-3.86894e-07 2.81402e-08 -6.45917e-08)
(-2.29661e-07 2.10501e-08 -5.28935e-08)
(-9.86346e-08 1.65215e-08 -3.82552e-08)
(-1.35948e-08 1.64317e-08 -2.35179e-08)
(9.20483e-09 1.80272e-08 -9.13573e-09)
(-1.82741e-05 -5.10959e-05 -1.8274e-05)
(-5.98339e-06 -6.63553e-06 -8.18333e-06)
(-8.06423e-06 -8.03499e-06 -2.86165e-06)
(-3.63455e-06 -2.33498e-06 -8.22162e-07)
(-1.25877e-06 -1.42143e-06 -4.12175e-07)
(-9.34727e-08 -7.71678e-07 -2.06189e-07)
(7.47097e-07 -4.83162e-07 -1.04614e-07)
(1.25316e-06 -3.17318e-07 -5.37698e-08)
(1.54586e-06 -2.10816e-07 -2.2099e-08)
(1.65524e-06 -1.31627e-07 7.74498e-10)
(1.60413e-06 -6.75984e-08 1.96384e-08)
(1.41023e-06 -1.50382e-08 3.56638e-08)
(1.095e-06 2.64073e-08 4.86149e-08)
(6.8588e-07 5.55561e-08 5.78685e-08)
(2.165e-07 7.1118e-08 6.28164e-08)
(-2.75321e-07 7.24035e-08 6.31186e-08)
(-7.5056e-07 5.96912e-08 5.88511e-08)
(-1.17246e-06 3.4339e-08 5.0543e-08)
(-1.5099e-06 -1.31703e-09 3.9129e-08)
(-1.74009e-06 -4.42181e-08 2.58514e-08)
(-1.85053e-06 -9.08993e-08 1.21203e-08)
(-1.83942e-06 -1.37849e-07 -4.5073e-10)
(-1.71553e-06 -1.81272e-07 -1.05766e-08)
(-1.49765e-06 -2.17742e-07 -1.71585e-08)
(-1.21273e-06 -2.43369e-07 -1.9332e-08)
(-8.94166e-07 -2.53549e-07 -1.67753e-08)
(-5.79332e-07 -2.42298e-07 -1.00442e-08)
(-3.06042e-07 -2.02283e-07 -1.08108e-09)
(-1.07128e-07 -1.26446e-07 5.82398e-09)
(-5.80183e-09 -2.64036e-08 5.90638e-09)
(-5.05318e-06 -4.81332e-06 -5.0531e-06)
(-7.92921e-06 -9.04974e-06 -2.91713e-06)
(-4.06507e-06 -5.16141e-06 -1.27921e-06)
(-2.26782e-06 -3.03264e-06 -5.96426e-07)
(-5.89237e-07 -2.15143e-06 -2.71757e-07)
(4.94229e-07 -1.59038e-06 -1.11624e-07)
(1.3045e-06 -1.27839e-06 -2.60401e-08)
(1.83949e-06 -1.06635e-06 2.29335e-08)
(2.15341e-06 -9.04726e-07 5.6893e-08)
(2.25798e-06 -7.68232e-07 8.37346e-08)
(2.16643e-06 -6.48612e-07 1.06858e-07)
(1.89441e-06 -5.45367e-07 1.26829e-07)
(1.46637e-06 -4.61775e-07 1.43103e-07)
(9.16666e-07 -4.02105e-07 1.54757e-07)
(2.8855e-07 -3.69997e-07 1.60983e-07)
(-3.68688e-07 -3.67327e-07 1.61333e-07)
(-1.00395e-06 -3.93605e-07 1.55883e-07)
(-1.56906e-06 -4.45815e-07 1.45264e-07)
(-2.0232e-06 -5.18672e-07 1.3059e-07)
(-2.33661e-06 -6.05146e-07 1.13346e-07)
(-2.49286e-06 -6.97172e-07 9.51743e-08)
(-2.4898e-06 -7.8608e-07 7.7774e-08)
(-2.33901e-06 -8.63219e-07 6.26088e-08)
(-2.06454e-06 -9.19755e-07 5.08536e-08)
(-1.70049e-06 -9.46221e-07 4.32247e-08)
(-1.28831e-06 -9.31913e-07 3.97879e-08)
(-8.73164e-07 -8.63978e-07 3.96415e-08)
(-4.98834e-07 -7.27395e-07 4.03016e-08)
(-2.04869e-07 -5.05704e-07 3.69175e-08)
(-2.05367e-08 -1.94865e-07 2.06672e-08)
(-9.06091e-07 -6.99627e-06 -9.05992e-07)
(-2.044e-06 -5.45844e-06 -8.11661e-07)
(-1.62029e-06 -4.63742e-06 -5.78165e-07)
(-7.52493e-07 -3.60648e-06 -2.88149e-07)
(3.02215e-07 -3.04341e-06 -1.17061e-07)
(1.16161e-06 -2.6442e-06 -1.76244e-08)
(1.86484e-06 -2.37184e-06 4.415e-08)
(2.36451e-06 -2.14991e-06 8.57609e-08)
(2.6587e-06 -1.95213e-06 1.18518e-07)
(2.73778e-06 -1.76647e-06 1.46821e-07)
(2.6027e-06 -1.59298e-06 1.72327e-07)
(2.26464e-06 -1.43764e-06 1.94822e-07)
(1.74819e-06 -1.30914e-06 2.13329e-07)
(1.09146e-06 -1.21635e-06 2.26636e-07)
(3.44017e-07 -1.16616e-06 2.33739e-07)
(-4.36899e-07 -1.16215e-06 2.34093e-07)
(-1.19164e-06 -1.20368e-06 2.27767e-07)
(-1.86387e-06 -1.28575e-06 2.15456e-07)
(-2.40591e-06 -1.39945e-06 1.98417e-07)
(-2.78316e-06 -1.53286e-06 1.78298e-07)
(-2.97663e-06 -1.67219e-06 1.56909e-07)
(-2.98394e-06 -1.80275e-06 1.36037e-07)
(-2.81853e-06 -1.90953e-06 1.17226e-07)
(-2.50775e-06 -1.97732e-06 1.01654e-07)
(-2.08988e-06 -1.99011e-06 8.99458e-08)
(-1.61067e-06 -1.9303e-06 8.20316e-08)
(-1.11939e-06 -1.77735e-06 7.68641e-08)
(-6.63094e-07 -1.50649e-06 7.16258e-08)
(-2.87892e-07 -1.08507e-06 6.10096e-08)
(-3.23738e-08 -4.68078e-07 3.25356e-08)
(-2.91955e-07 -2.62906e-06 -2.91833e-07)
(-9.26328e-07 -4.06513e-06 -3.44812e-07)
(-4.92581e-07 -4.37992e-06 -2.28513e-07)
(1.69816e-07 -4.216e-06 -9.93788e-08)
(9.79779e-07 -4.05527e-06 -8.37359e-09)
(1.72132e-06 -3.87049e-06 5.28608e-08)
(2.35511e-06 -3.68655e-06 9.73166e-08)
(2.82129e-06 -3.48812e-06 1.32527e-07)
(3.09111e-06 -3.27549e-06 1.63852e-07)
(3.14204e-06 -3.0536e-06 1.93153e-07)
(2.96629e-06 -2.83357e-06 2.20672e-07)
(2.57119e-06 -2.62991e-06 2.45472e-07)
(1.98097e-06 -2.45827e-06 2.66095e-07)
(1.2362e-06 -2.33306e-06 2.81005e-07)
(3.91289e-07 -2.26513e-06 2.88961e-07)
(-4.90259e-07 -2.26006e-06 2.89296e-07)
(-1.34193e-06 -2.31716e-06 2.82063e-07)
(-2.10084e-06 -2.42937e-06 2.68042e-07)
(-2.71391e-06 -2.58381e-06 2.48667e-07)
(-3.14277e-06 -2.76321e-06 2.25769e-07)
(-3.36665e-06 -2.94758e-06 2.01363e-07)
(-3.38321e-06 -3.11559e-06 1.77388e-07)
(-3.20732e-06 -3.24545e-06 1.55476e-07)
(-2.86874e-06 -3.3152e-06 1.36827e-07)
(-2.40861e-06 -3.30202e-06 1.22042e-07)
(-1.87545e-06 -3.18098e-06 1.10978e-07)
(-1.32141e-06 -2.92281e-06 1.02504e-07)
(-7.9649e-07 -2.49017e-06 9.35361e-08)
(-3.53553e-07 -1.82666e-06 7.82892e-08)
(-4.11244e-08 -8.25683e-07 4.13218e-08)
(-1.15137e-07 -2.35381e-06 -1.14991e-07)
(-1.76809e-07 -4.04158e-06 -1.09637e-07)
(2.1812e-07 -4.85001e-06 -5.24836e-08)
(8.01276e-07 -5.16974e-06 9.7882e-09)
(1.50143e-06 -5.30036e-06 6.07702e-08)
(2.17973e-06 -5.29512e-06 1.00789e-07)
(2.77214e-06 -5.20221e-06 1.35095e-07)
(3.21428e-06 -5.03897e-06 1.6674e-07)
(3.46375e-06 -4.82441e-06 1.97913e-07)
(3.48987e-06 -4.57751e-06 2.28902e-07)
(3.27878e-06 -4.31987e-06 2.58972e-07)
(2.83475e-06 -4.07461e-06 2.86564e-07)
(2.18152e-06 -3.86461e-06 3.0974e-07)
(1.36163e-06 -3.71006e-06 3.26577e-07)
(4.33616e-07 -3.62602e-06 3.35558e-07)
(-5.33581e-07 -3.62026e-06 3.35865e-07)
(-1.46744e-06 -3.6921e-06 3.27536e-07)
(-2.29937e-06 -3.83237e-06 3.11467e-07)
(-2.97162e-06 -4.02425e-06 2.89316e-07)
(-3.44278e-06 -4.24507e-06 2.63198e-07)
(-3.69089e-06 -4.46864e-06 2.35408e-07)
(-3.71384e-06 -4.66691e-06 2.08095e-07)
(-3.52797e-06 -4.81142e-06 1.83024e-07)
(-3.1652e-06 -4.8735e-06 1.61481e-07)
(-2.66893e-06 -4.82343e-06 1.44079e-07)
(-2.09004e-06 -4.62858e-06 1.30632e-07)
(-1.48318e-06 -4.24976e-06 1.19932e-07)
(-9.0136e-07 -3.63399e-06 1.08647e-07)
(-4.03697e-07 -2.69436e-06 9.04841e-08)
(-4.74534e-08 -1.24762e-06 4.76889e-08)
(-1.55528e-08 -2.25393e-06 -1.53829e-08)
(1.5186e-07 -4.425e-06 5.41747e-09)
(6.00549e-07 -5.66241e-06 3.86841e-08)
(1.19408e-06 -6.35039e-06 7.26609e-08)
(1.8693e-06 -6.72775e-06 1.04093e-07)
(2.52909e-06 -6.88472e-06 1.33168e-07)
(3.1065e-06 -6.88511e-06 1.62351e-07)
(3.53796e-06 -6.76695e-06 1.92811e-07)
(3.7753e-06 -6.56324e-06 2.25128e-07)
(3.78331e-06 -6.30431e-06 2.58671e-07)
(3.54418e-06 -6.02099e-06 2.92e-07)
(3.05989e-06 -5.74432e-06 3.23021e-07)
(2.35378e-06 -5.50389e-06 3.49298e-07)
(1.47024e-06 -5.32554e-06 3.68465e-07)
(4.7141e-07 -5.22838e-06 3.78677e-07)
(-5.68778e-07 -5.22229e-06 3.78954e-07)
(-1.57241e-06 -5.30669e-06 3.6932e-07)
(-2.46569e-06 -5.47046e-06 3.50805e-07)
(-3.18681e-06 -5.69306e-06 3.25346e-07)
(-3.69184e-06 -5.94676e-06 2.9544e-07)
(-3.95801e-06 -6.19951e-06 2.63724e-07)
(-3.98387e-06 -6.41714e-06 2.32627e-07)
(-3.78746e-06 -6.56496e-06 2.04133e-07)
(-3.4027e-06 -6.60798e-06 1.79612e-07)
(-2.87522e-06 -6.50967e-06 1.59721e-07)
(-2.25795e-06 -6.22937e-06 1.44237e-07)
(-1.60786e-06 -5.71678e-06 1.31877e-07)
(-9.80718e-07 -4.90057e-06 1.1907e-07)
(-4.40748e-07 -3.65777e-06 9.9018e-08)
(-5.19591e-08 -1.7176e-06 5.22351e-08)
(2.36538e-08 -2.51722e-06 2.38458e-08)
(3.19119e-07 -5.1552e-06 5.85837e-08)
(8.20404e-07 -6.75063e-06 8.44741e-08)
(1.44206e-06 -7.72874e-06 1.07417e-07)
(2.1213e-06 -8.3144e-06 1.30231e-07)
(2.78163e-06 -8.61686e-06 1.54544e-07)
(3.35743e-06 -8.71034e-06 1.81982e-07)
(3.78674e-06 -8.64581e-06 2.13064e-07)
(4.01878e-06 -8.46601e-06 2.476e-07)
(4.01558e-06 -8.20986e-06 2.84449e-07)
(3.75652e-06 -7.91555e-06 3.21667e-07)
(3.24168e-06 -7.62067e-06 3.56643e-07)
(2.49407e-06 -7.36068e-06 3.86457e-07)
(1.55951e-06 -7.16631e-06 4.08281e-07)
(5.03411e-07 -7.06021e-06 4.19894e-07)
(-5.95908e-07 -7.05413e-06 4.20137e-07)
(-1.65577e-06 -7.14761e-06 4.09023e-07)
(-2.59788e-06 -7.32788e-06 3.87746e-07)
(-3.3568e-06 -7.57114e-06 3.5858e-07)
(-3.88671e-06 -7.84532e-06 3.24436e-07)
(-4.16458e-06 -8.11339e-06 2.88348e-07)
(-4.18998e-06 -8.33581e-06 2.53105e-07)
(-3.98277e-06 -8.47248e-06 2.20942e-07)
(-3.57887e-06 -8.48266e-06 1.9333e-07)
(-3.026e-06 -8.32352e-06 1.70972e-07)
(-2.37889e-06 -7.94605e-06 1.53602e-07)
(-1.6963e-06 -7.28779e-06 1.39873e-07)
(-1.03614e-06 -6.25696e-06 1.25991e-07)
(-4.66205e-07 -4.69044e-06 1.04724e-07)
(-5.50072e-08 -2.22204e-06 5.53239e-08)
(4.19697e-08 -2.91516e-06 4.21835e-08)
(4.01846e-07 -6.05519e-06 8.47452e-08)
(9.40498e-07 -7.99605e-06 1.0798e-07)
(1.58649e-06 -9.23577e-06 1.26419e-07)
(2.27561e-06 -1.00132e-05 1.45601e-07)
(2.94119e-06 -1.04552e-05 1.68235e-07)
(3.51952e-06 -1.0646e-05 1.95736e-07)
(3.9502e-06 -1.06461e-05 2.28426e-07)
(4.18136e-06 -1.05054e-05 2.65751e-07)
(4.17313e-06 -1.02691e-05 3.06236e-07)
(3.90279e-06 -9.98113e-06 3.47567e-07)
(3.36873e-06 -9.68401e-06 3.8669e-07)
(2.59338e-06 -9.41772e-06 4.20204e-07)
(1.62356e-06 -9.21677e-06 4.44792e-07)
(5.27255e-07 -9.10678e-06 4.57839e-07)
(-6.13741e-07 -9.10097e-06 4.58051e-07)
(-1.71289e-06 -9.19898e-06 4.45435e-07)
(-2.68826e-06 -9.38677e-06 4.21306e-07)
(-3.47175e-06 -9.63806e-06 3.88289e-07)
(-4.0163e-06 -9.91725e-06 3.49774e-07)
(-4.29901e-06 -1.01833e-05 3.09231e-07)
(-4.32087e-06 -1.03928e-05 2.69797e-07)
(-4.10367e-06 -1.05011e-05 2.3393e-07)
(-3.68527e-06 -1.04626e-05 2.03251e-07)
(-3.11502e-06 -1.02288e-05 1.78497e-07)
(-2.44886e-06 -9.74222e-06 1.59389e-07)
(-1.74662e-06 -8.92782e-06 1.44487e-07)
(-1.06728e-06 -7.67159e-06 1.29826e-07)
(-4.8041e-07 -5.76743e-06 1.07892e-07)
(-5.67348e-08 -2.74849e-06 5.70921e-08)
(4.9773e-08 -3.38359e-06 5.00077e-08)
(4.38787e-07 -7.04702e-06 9.63258e-08)
(9.94955e-07 -9.32883e-06 1.18599e-07)
(1.65113e-06 -1.08164e-05 1.35308e-07)
(2.34239e-06 -1.17779e-05 1.53181e-07)
(3.00736e-06 -1.23589e-05 1.75592e-07)
(3.58449e-06 -1.2654e-05 2.03972e-07)
(4.01488e-06 -1.27313e-05 2.38566e-07)
(4.2465e-06 -1.26466e-05 2.78713e-07)
(4.23839e-06 -1.24493e-05 3.22709e-07)
(3.96598e-06 -1.21869e-05 3.67942e-07)
(3.42595e-06 -1.19052e-05 4.10979e-07)
(2.63984e-06 -1.16472e-05 4.47952e-07)
(1.65467e-06 -1.14503e-05 4.75103e-07)
(5.39958e-07 -1.1342e-05 4.89487e-07)
(-6.20189e-07 -1.13367e-05 4.89666e-07)
(-1.73694e-06 -1.14341e-05 4.75643e-07)
(-2.726e-06 -1.16192e-05 4.48854e-07)
(-3.51762e-06 -1.18639e-05 4.12271e-07)
(-4.06443e-06 -1.21304e-05 3.69697e-07)
(-4.3444e-06 -1.2375e-05 3.24994e-07)
(-4.36018e-06 -1.25515e-05 2.81684e-07)
(-4.13534e-06 -1.26123e-05 2.42443e-07)
(-3.70935e-06 -1.25082e-05 2.09012e-07)
(-3.13243e-06 -1.21853e-05 1.82137e-07)
(-2.46095e-06 -1.15783e-05 1.61516e-07)
(-1.75461e-06 -1.05992e-05 1.45678e-07)
(-1.072e-06 -9.11088e-06 1.30553e-07)
(-4.82621e-07 -6.86278e-06 1.08456e-07)
(-5.70937e-08 -3.28431e-06 5.7492e-08)
(5.21575e-08 -3.87714e-06 5.24042e-08)
(4.45934e-07 -8.06893e-06 9.94933e-08)
(9.9861e-07 -1.06865e-05 1.20998e-07)
(1.64572e-06 -1.24137e-05 1.36882e-07)
(2.3236e-06 -1.35557e-05 1.54313e-07)
(2.975e-06 -1.42779e-05 1.76942e-07)
(3.54115e-06 -1.46859e-05 2.06236e-07)
(3.96522e-06 -1.48544e-05 2.42468e-07)
(4.19594e-06 -1.48432e-05 2.84894e-07)
(4.19191e-06 -1.47045e-05 3.31704e-07)
(3.92712e-06 -1.44874e-05 3.80065e-07)
(3.39655e-06 -1.42394e-05 4.26232e-07)
(2.62023e-06 -1.40051e-05 4.65997e-07)
(1.64433e-06 -1.3823e-05 4.95212e-07)
(5.38407e-07 -1.37219e-05 5.10634e-07)
(-6.12867e-07 -1.37172e-05 5.10785e-07)
(-1.72011e-06 -1.38084e-05 4.95663e-07)
(-2.69848e-06 -1.39803e-05 4.66741e-07)
(-3.47819e-06 -1.42034e-05 4.27261e-07)
(-4.01272e-06 -1.44389e-05 3.81391e-07)
(-4.28154e-06 -1.46418e-05 3.33401e-07)
(-4.28904e-06 -1.47645e-05 2.8705e-07)
(-4.06048e-06 -1.47582e-05 2.45178e-07)
(-3.63621e-06 -1.45712e-05 2.09624e-07)
(-3.06639e-06 -1.41455e-05 1.81164e-07)
(-2.40642e-06 -1.34085e-05 1.59469e-07)
(-1.71443e-06 -1.22592e-05 1.43019e-07)
(-1.0471e-06 -1.05376e-05 1.27778e-07)
(-4.71529e-07 -7.94801e-06 1.06123e-07)
(-5.5923e-08 -3.81574e-06 5.63638e-08)
(5.09885e-08 -4.36637e-06 5.1256e-08)
(4.29885e-07 -9.07202e-06 9.67101e-08)
(9.57373e-07 -1.20127e-05 1.17068e-07)
(1.57312e-06 -1.39699e-05 1.32225e-07)
(2.21717e-06 -1.52885e-05 1.49279e-07)
(2.83694e-06 -1.61543e-05 1.71967e-07)
(3.37767e-06 -1.66835e-05 2.01731e-07)
(3.78584e-06 -1.69566e-05 2.38872e-07)
(4.01195e-06 -1.70361e-05 2.82633e-07)
(4.0151e-06 -1.69752e-05 3.3117e-07)
(3.76841e-06 -1.68228e-05 3.81533e-07)
(3.26498e-06 -1.66264e-05 4.2977e-07)
(2.52249e-06 -1.64306e-05 4.71405e-07)
(1.58488e-06 -1.62738e-05 5.02037e-07)
(5.19856e-07 -1.61855e-05 5.1816e-07)
(-5.89404e-07 -1.61814e-05 5.18278e-07)
(-1.65514e-06 -1.62613e-05 5.02374e-07)
(-2.5941e-06 -1.64092e-05 4.71951e-07)
(-3.33827e-06 -1.65958e-05 4.30531e-07)
(-3.8434e-06 -1.67819e-05 3.82501e-07)
(-4.09147e-06 -1.69229e-05 3.32394e-07)
(-4.08889e-06 -1.69719e-05 2.84153e-07)
(-3.86205e-06 -1.68798e-05 2.40736e-07)
(-3.4511e-06 -1.65941e-05 2.04005e-07)
(-2.90491e-06 -1.60536e-05 1.74712e-07)
(-2.27633e-06 -1.51798e-05 1.52527e-07)
(-1.62005e-06 -1.38593e-05 1.35944e-07)
(-9.88945e-07 -1.19095e-05 1.21054e-07)
(-4.45486e-07 -8.99098e-06 1.00506e-07)
(-5.30064e-08 -4.32714e-06 5.34877e-08)
(4.70539e-08 -4.82672e-06 4.73228e-08)
(3.93115e-07 -1.0011e-05 8.89242e-08)
(8.72978e-07 -1.32519e-05 1.07453e-07)
(1.43293e-06 -1.54244e-05 1.21591e-07)
(2.01941e-06 -1.69126e-05 1.37958e-07)
(2.5859e-06 -1.7922e-05 1.60114e-07)
(3.08335e-06 -1.85785e-05 1.89477e-07)
(3.46309e-06 -1.89677e-05 2.26368e-07)
(3.67894e-06 -1.91531e-05 2.70071e-07)
(3.69168e-06 -1.91875e-05 3.18788e-07)
(3.47413e-06 -1.91183e-05 3.69591e-07)
(3.01737e-06 -1.89906e-05 4.18508e-07)
(2.33586e-06 -1.88471e-05 4.60847e-07)
(1.46952e-06 -1.87256e-05 4.92071e-07)
(4.81905e-07 -1.86552e-05 5.08492e-07)
(-5.4774e-07 -1.86517e-05 5.08563e-07)
(-1.53555e-06 -1.8715e-05 4.9229e-07)
(-2.40222e-06 -1.88291e-05 4.61203e-07)
(-3.08396e-06 -1.89648e-05 4.18995e-07)
(-3.54064e-06 -1.90842e-05 3.7023e-07)
(-3.75762e-06 -1.91447e-05 3.19588e-07)
(-3.7435e-06 -1.91013e-05 2.71049e-07)
(-3.52505e-06 -1.89068e-05 2.27586e-07)
(-3.1411e-06 -1.85092e-05 1.90956e-07)
(-2.63749e-06 -1.78457e-05 1.61886e-07)
(-2.06264e-06 -1.68322e-05 1.40011e-07)
(-1.46587e-06 -1.53447e-05 1.23889e-07)
(-8.94179e-07 -1.31796e-05 1.09873e-07)
(-4.02962e-07 -9.95588e-06 9.11943e-08)
(-4.81509e-08 -4.8011e-06 4.86768e-08)
(4.05867e-08 -5.23567e-06 4.08732e-08)
(3.36468e-07 -1.08421e-05 7.65251e-08)
(7.45916e-07 -1.4348e-05 9.24422e-08)
(1.22451e-06 -1.67138e-05 1.05023e-07)
(1.72765e-06 -1.83593e-05 1.20116e-07)
(2.2169e-06 -1.9508e-05 1.40914e-07)
(2.65081e-06 -2.02943e-05 1.68704e-07)
(2.98744e-06 -2.08077e-05 2.03897e-07)
(3.18585e-06 -2.1112e-05 2.45934e-07)
(3.20978e-06 -2.12573e-05 2.93193e-07)
(3.03281e-06 -2.1288e-05 3.42889e-07)
(2.64386e-06 -2.12453e-05 3.91156e-07)
(2.05288e-06 -2.11683e-05 4.33264e-07)
(1.29368e-06 -2.10922e-05 4.64602e-07)
(4.23035e-07 -2.10449e-05 4.81185e-07)
(-4.86323e-07 -2.10419e-05 4.81213e-07)
(-1.3567e-06 -2.10833e-05 4.64693e-07)
(-2.11533e-06 -2.11532e-05 4.33418e-07)
(-2.70536e-06 -2.12238e-05 3.91369e-07)
(-3.09292e-06 -2.126e-05 3.43196e-07)
(-3.26784e-06 -2.12225e-05 2.93647e-07)
(-3.24101e-06 -2.10704e-05 2.46523e-07)
(-3.03879e-06 -2.07598e-05 2.04641e-07)
(-2.69716e-06 -2.02407e-05 1.69608e-07)
(-2.25693e-06 -1.94501e-05 1.4199e-07)
(-1.76007e-06 -1.82997e-05 1.21372e-07)
(-1.24828e-06 -1.66561e-05 1.06443e-07)
(-7.60581e-07 -1.4297e-05 9.39491e-08)
(-3.42881e-07 -1.08041e-05 7.79377e-08)
(-4.11871e-08 -5.21866e-06 4.17509e-08)
(3.173e-08 -5.57129e-06 3.20152e-08)
(2.60657e-07 -1.15218e-05 5.96592e-08)
(5.77151e-07 -1.5245e-05 7.20921e-08)
(9.48584e-07 -1.77733e-05 8.24599e-08)
(1.34196e-06 -1.95572e-05 9.54752e-08)
(1.72874e-06 -2.0835e-05 1.13779e-07)
(2.07725e-06 -2.17485e-05 1.38571e-07)
(2.35436e-06 -2.23893e-05 1.70299e-07)
(2.52641e-06 -2.28204e-05 2.08572e-07)
(2.56195e-06 -2.30891e-05 2.52118e-07)
(2.43624e-06 -2.32344e-05 2.98497e-07)
(2.13623e-06 -2.3292e-05 3.44222e-07)
(1.66654e-06 -2.32955e-05 3.84731e-07)
(1.05273e-06 -2.32758e-05 4.15378e-07)
(3.41636e-07 -2.32575e-05 4.31811e-07)
(-4.035e-07 -2.3255e-05 4.31784e-07)
(-1.11391e-06 -2.32682e-05 4.15324e-07)
(-1.7264e-06 -2.32828e-05 3.84671e-07)
(-2.19411e-06 -2.3274e-05 3.44193e-07)
(-2.4915e-06 -2.32112e-05 2.98515e-07)
(-2.61401e-06 -2.30606e-05 2.52206e-07)
(-2.57462e-06 -2.27871e-05 2.08762e-07)
(-2.39795e-06 -2.23515e-05 1.70616e-07)
(-2.11541e-06 -2.1707e-05 1.39027e-07)
(-1.76064e-06 -2.07911e-05 1.14375e-07)
(-1.36691e-06 -1.95129e-05 9.61987e-08)
(-9.66168e-07 -1.77313e-05 8.3292e-08)
(-5.87533e-07 -1.52087e-05 7.30125e-08)
(-2.64903e-07 -1.14954e-05 6.05678e-08)
(-3.20306e-08 -5.55987e-06 3.26316e-08)
(2.06435e-08 -5.81276e-06 2.0926e-08)
(1.66943e-07 -1.20083e-05 3.86342e-08)
(3.69281e-07 -1.58883e-05 4.67335e-08)
(6.09066e-07 -1.85392e-05 5.41414e-08)
(8.6716e-07 -2.04345e-05 6.41673e-08)
(1.12661e-06 -2.18239e-05 7.87245e-08)
(1.36755e-06 -2.28543e-05 9.87853e-08)
(1.56769e-06 -2.36187e-05 1.24853e-07)
(1.70267e-06 -2.41783e-05 1.56849e-07)
(1.74797e-06 -2.45765e-05 1.93995e-07)
(1.68217e-06 -2.48465e-05 2.34426e-07)
(1.49105e-06 -2.50169e-05 2.75212e-07)
(1.17312e-06 -2.51139e-05 3.12178e-07)
(7.43698e-07 -2.51612e-05 3.40856e-07)
(2.36667e-07 -2.5178e-05 3.56584e-07)
(-2.97892e-07 -2.51758e-05 3.56525e-07)
(-8.03869e-07 -2.51546e-05 3.40718e-07)
(-1.23133e-06 -2.51031e-05 3.11958e-07)
(-1.54647e-06 -2.50017e-05 2.74959e-07)
(-1.73413e-06 -2.48271e-05 2.34192e-07)
(-1.79579e-06 -2.45532e-05 1.9383e-07)
(-1.74581e-06 -2.41515e-05 1.56764e-07)
(-1.60562e-06 -2.35887e-05 1.24856e-07)
(-1.3998e-06 -2.2822e-05 9.88984e-08)
(-1.15275e-06 -2.17903e-05 7.89557e-08)
(-8.86934e-07 -2.04014e-05 6.45171e-08)
(-6.2248e-07 -1.85084e-05 5.46039e-08)
(-3.76831e-07 -1.58623e-05 4.72807e-08)
(-1.69796e-07 -1.19899e-05 3.92349e-08)
(-2.07548e-08 -5.80505e-06 2.13888e-08)
(7.58218e-09 -5.94115e-06 7.85441e-09)
(5.77274e-08 -1.22641e-05 1.39267e-08)
(1.27597e-07 -1.62284e-05 1.68742e-08)
(2.14353e-07 -1.89527e-05 2.05778e-08)
(3.14397e-07 -2.09239e-05 2.65823e-08)
(4.23772e-07 -2.23984e-05 3.58913e-08)
(5.35937e-07 -2.35259e-05 4.91965e-08)
(6.41296e-07 -2.43995e-05 6.69894e-08)
(7.27002e-07 -2.50783e-05 8.94518e-08)
(7.77539e-07 -2.56013e-05 1.16289e-07)
(7.7672e-07 -2.59959e-05 1.46427e-07)
(7.1058e-07 -2.62828e-05 1.77898e-07)
(5.7205e-07 -2.64791e-05 2.07363e-07)
(3.65007e-07 -2.65994e-05 2.30945e-07)
(1.07407e-07 -2.6655e-05 2.44241e-07)
(-1.68563e-07 -2.66532e-05 2.44132e-07)
(-4.24862e-07 -2.65937e-05 2.307e-07)
(-6.29421e-07 -2.64696e-05 2.06985e-07)
(-7.64451e-07 -2.62697e-05 1.77472e-07)
(-8.26362e-07 -2.59795e-05 1.45979e-07)
(-8.22327e-07 -2.55819e-05 1.15882e-07)
(-7.66536e-07 -2.50562e-05 8.90956e-08)
(-6.75223e-07 -2.43753e-05 6.67302e-08)
(-5.64011e-07 -2.35003e-05 4.90468e-08)
(-4.45875e-07 -2.23725e-05 3.58455e-08)
(-3.3057e-07 -2.08988e-05 2.66504e-08)
(-2.24888e-07 -1.89298e-05 2.07626e-08)
(-1.332e-07 -1.62095e-05 1.71648e-08)
(-5.96316e-08 -1.2251e-05 1.43245e-08)
(-7.56814e-09 -5.93593e-06 8.23023e-09)
(-7.00128e-09 -5.94088e-06 -6.72426e-09)
(-6.31326e-08 -1.22581e-05 -1.35879e-08)
(-1.39349e-07 -1.62247e-05 -1.64311e-08)
(-2.216e-07 -1.89648e-05 -1.7094e-08)
(-2.9703e-07 -2.0968e-05 -1.6055e-08)
(-3.55667e-07 -2.24917e-05 -1.33775e-08)
(-3.89733e-07 -2.36851e-05 -8.85067e-09)
(-3.94828e-07 -2.46402e-05 -2.05163e-09)
(-3.7059e-07 -2.54136e-05 7.40284e-09)
(-3.21507e-07 -2.60405e-05 1.97525e-08)
(-2.56193e-07 -2.65424e-05 3.47889e-08)
(-1.86353e-07 -2.69322e-05 5.17005e-08)
(-1.23626e-07 -2.72187e-05 6.85347e-08)
(-7.58078e-08 -2.74067e-05 8.279e-08)
(-4.36098e-08 -2.7499e-05 9.11747e-08)
(-1.76919e-08 -2.74974e-05 9.10504e-08)
(1.60415e-08 -2.74017e-05 8.24908e-08)
(6.67281e-08 -2.72103e-05 6.80618e-08)
(1.33449e-07 -2.69208e-05 5.11267e-08)
(2.08034e-07 -2.6528e-05 3.41584e-08)
(2.78722e-07 -2.60238e-05 1.91718e-08)
(3.33533e-07 -2.5395e-05 6.86794e-09)
(3.63688e-07 -2.46203e-05 -2.48886e-09)
(3.6457e-07 -2.36645e-05 -9.18828e-09)
(3.36383e-07 -2.24712e-05 -1.36235e-08)
(2.83356e-07 -2.09486e-05 -1.61823e-08)
(2.13026e-07 -1.89476e-05 -1.70993e-08)
(1.35043e-07 -1.62108e-05 -1.62861e-08)
(6.18463e-08 -1.22488e-05 -1.33151e-08)
(7.08817e-09 -5.9373e-06 -6.40437e-09)
(-2.24311e-08 -5.80168e-06 -2.21794e-08)
(-1.90147e-07 -1.19706e-05 -4.27156e-08)
(-4.19462e-07 -1.58505e-05 -5.17438e-08)
(-6.79149e-07 -1.8543e-05 -5.7248e-08)
(-9.39497e-07 -2.05271e-05 -6.18784e-08)
(-1.17658e-06 -2.20551e-05 -6.69419e-08)
(-1.36776e-06 -2.32729e-05 -7.27052e-08)
(-1.49392e-06 -2.42691e-05 -7.90304e-08)
(-1.5405e-06 -2.50973e-05 -8.54608e-08)
(-1.49932e-06 -2.57889e-05 -9.12555e-08)
(-1.36977e-06 -2.63608e-05 -9.57982e-08)
(-1.15944e-06 -2.68204e-05 -9.84074e-08)
(-8.82916e-07 -2.7169e-05 -9.91534e-08)
(-5.59453e-07 -2.74044e-05 -9.84244e-08)
(-2.09814e-07 -2.75226e-05 -9.74165e-08)
(1.48412e-07 -2.75211e-05 -9.75477e-08)
(4.99745e-07 -2.73996e-05 -9.87737e-08)
(8.26291e-07 -2.71612e-05 -9.97e-08)
(1.10712e-06 -2.68099e-05 -9.90682e-08)
(1.32266e-06 -2.63479e-05 -9.65174e-08)
(1.45794e-06 -2.57742e-05 -9.19733e-08)
(1.50514e-06 -2.50813e-05 -8.61247e-08)
(1.46469e-06 -2.42524e-05 -7.963e-08)
(1.34457e-06 -2.3256e-05 -7.31932e-08)
(1.1592e-06 -2.20386e-05 -6.73225e-08)
(9.27505e-07 -2.05119e-05 -6.21612e-08)
(6.71883e-07 -1.85297e-05 -5.73878e-08)
(4.16028e-07 -1.58401e-05 -5.17242e-08)
(1.89296e-07 -1.19638e-05 -4.25296e-08)
(2.25841e-08 -5.79917e-06 -2.18866e-08)
(-3.79379e-08 -5.51994e-06 -3.76908e-08)
(-3.16627e-07 -1.13949e-05 -7.18869e-08)
(-6.97769e-07 -1.50976e-05 -8.71181e-08)
(-1.13366e-06 -1.76764e-05 -9.76115e-08)
(-1.57827e-06 -1.95873e-05 -1.08161e-07)
(-1.99408e-06 -2.107e-05 -1.21301e-07)
(-2.34386e-06 -2.22635e-05 -1.37883e-07)
(-2.59371e-06 -2.32516e-05 -1.58078e-07)
(-2.71458e-06 -2.4084e-05 -1.81387e-07)
(-2.68526e-06 -2.47892e-05 -2.06666e-07)
(-2.49494e-06 -2.53808e-05 -2.32323e-07)
(-2.14598e-06 -2.58626e-05 -2.56204e-07)
(-1.65503e-06 -2.62324e-05 -2.76292e-07)
(-1.05241e-06 -2.64846e-05 -2.90605e-07)
(-3.79299e-07 -2.66122e-05 -2.97911e-07)
(3.18151e-07 -2.66106e-05 -2.9805e-07)
(9.92974e-07 -2.648e-05 -2.90975e-07)
(1.59883e-06 -2.6225e-05 -2.76852e-07)
(2.09425e-06 -2.58528e-05 -2.569e-07)
(2.44857e-06 -2.53689e-05 -2.33077e-07)
(2.64483e-06 -2.4776e-05 -2.07437e-07)
(2.68037e-06 -2.40699e-05 -1.82115e-07)
(2.56576e-06 -2.32371e-05 -1.58747e-07)
(2.32198e-06 -2.22492e-05 -1.38455e-07)
(1.97794e-06 -2.10564e-05 -1.21763e-07)
(1.56738e-06 -1.95749e-05 -1.08511e-07)
(1.12728e-06 -1.7666e-05 -9.78224e-08)
(6.94919e-07 -1.50896e-05 -8.71689e-08)
(3.1604e-07 -1.13898e-05 -7.17481e-08)
(3.81213e-08 -5.51818e-06 -3.74191e-08)
(-5.25399e-08 -5.10027e-06 -5.23194e-08)
(-4.34977e-07 -1.05413e-05 -9.93934e-08)
(-9.57755e-07 -1.39796e-05 -1.2047e-07)
(-1.55822e-06 -1.63806e-05 -1.35659e-07)
(-2.17536e-06 -1.81646e-05 -1.51804e-07)
(-2.75903e-06 -1.95527e-05 -1.72612e-07)
(-3.25839e-06 -2.06729e-05 -1.99505e-07)
(-3.62555e-06 -2.16027e-05 -2.32874e-07)
(-3.81767e-06 -2.23877e-05 -2.72138e-07)
(-3.80085e-06 -2.30536e-05 -3.15793e-07)
(-3.55449e-06 -2.36124e-05 -3.61341e-07)
(-3.07589e-06 -2.40675e-05 -4.05289e-07)
(-2.38342e-06 -2.44162e-05 -4.43572e-07)
(-1.51769e-06 -2.46537e-05 -4.7201e-07)
(-5.39202e-07 -2.47738e-05 -4.87114e-07)
(4.78769e-07 -2.47723e-05 -4.87235e-07)
(1.45895e-06 -2.46494e-05 -4.72364e-07)
(2.3279e-06 -2.44094e-05 -4.44124e-07)
(3.02484e-06 -2.40584e-05 -4.05961e-07)
(3.50889e-06 -2.36017e-05 -3.6208e-07)
(3.76126e-06 -2.30418e-05 -3.16571e-07)
(3.78433e-06 -2.23752e-05 -2.7289e-07)
(3.5985e-06 -2.15901e-05 -2.33555e-07)
(3.23743e-06 -2.06607e-05 -2.00124e-07)
(2.74374e-06 -1.95413e-05 -1.73126e-07)
(2.16519e-06 -1.81546e-05 -1.52191e-07)
(1.5524e-06 -1.63722e-05 -1.35916e-07)
(9.55256e-07 -1.39734e-05 -1.20561e-07)
(4.3456e-07 -1.05375e-05 -9.92759e-08)
(5.2749e-08 -5.09902e-06 -5.20514e-08)
(-6.53038e-08 -4.55594e-06 -6.50979e-08)
(-5.37541e-07 -9.43732e-06 -1.23414e-07)
(-1.18267e-06 -1.25329e-05 -1.49549e-07)
(-1.92566e-06 -1.46984e-05 -1.68788e-07)
(-2.69288e-06 -1.63071e-05 -1.89734e-07)
(-3.42318e-06 -1.75561e-05 -2.17074e-07)
(-4.05346e-06 -1.85599e-05 -2.52647e-07)
(-4.52333e-06 -1.93878e-05 -2.97033e-07)
(-4.77761e-06 -2.00813e-05 -3.49528e-07)
(-4.77124e-06 -2.06634e-05 -4.08237e-07)
(-4.47539e-06 -2.11462e-05 -4.69907e-07)
(-3.88316e-06 -2.15345e-05 -5.29867e-07)
(-3.01488e-06 -2.18284e-05 -5.8251e-07)
(-1.92049e-06 -2.20263e-05 -6.21977e-07)
(-6.77322e-07 -2.21256e-05 -6.43141e-07)
(6.1811e-07 -2.21243e-05 -6.43241e-07)
(1.86292e-06 -2.20225e-05 -6.22275e-07)
(2.9605e-06 -2.18222e-05 -5.82983e-07)
(3.83316e-06 -2.15262e-05 -5.30475e-07)
(4.43073e-06 -2.11365e-05 -4.70592e-07)
(4.7325e-06 -2.06527e-05 -4.08955e-07)
(4.74507e-06 -2.00702e-05 -3.50248e-07)
(4.49704e-06 -1.93769e-05 -2.97702e-07)
(4.03318e-06 -1.85495e-05 -2.53262e-07)
(3.40848e-06 -1.75466e-05 -2.17604e-07)
(2.68319e-06 -1.6299e-05 -1.9016e-07)
(1.92019e-06 -1.46918e-05 -1.69078e-07)
(1.18037e-06 -1.25281e-05 -1.49666e-07)
(5.37199e-07 -9.43449e-06 -1.23315e-07)
(6.5516e-08 -4.55508e-06 -6.48381e-08)
(-7.52647e-08 -3.90857e-06 -7.50804e-08)
(-6.16779e-07 -8.12708e-06 -1.4216e-07)
(-1.35662e-06 -1.08159e-05 -1.72214e-07)
(-2.21107e-06 -1.26987e-05 -1.94516e-07)
(-3.09689e-06 -1.4093e-05 -2.19053e-07)
(-3.94403e-06 -1.51676e-05 -2.51278e-07)
(-4.67916e-06 -1.60217e-05 -2.93289e-07)
(-5.23123e-06 -1.67158e-05 -3.45719e-07)
(-5.53482e-06 -1.72867e-05 -4.07763e-07)
(-5.53617e-06 -1.77559e-05 -4.77127e-07)
(-5.2e-06 -1.81358e-05 -5.49921e-07)
(-4.5168e-06 -1.84334e-05 -6.20692e-07)
(-3.50923e-06 -1.86532e-05 -6.82843e-07)
(-2.23505e-06 -1.87979e-05 -7.29442e-07)
(-7.84779e-07 -1.88693e-05 -7.54454e-07)
(7.27464e-07 -1.88681e-05 -7.54545e-07)
(2.17928e-06 -1.87944e-05 -7.29725e-07)
(3.45646e-06 -1.86476e-05 -6.83272e-07)
(4.46823e-06 -1.84261e-05 -6.21241e-07)
(5.1566e-06 -1.81272e-05 -5.50558e-07)
(5.49851e-06 -1.77466e-05 -4.778e-07)
(5.50324e-06 -1.72772e-05 -4.08441e-07)
(5.20573e-06 -1.67065e-05 -3.46376e-07)
(4.65951e-06 -1.60129e-05 -2.93892e-07)
(3.92986e-06 -1.51597e-05 -2.51806e-07)
(3.08758e-06 -1.40863e-05 -2.19485e-07)
(2.20583e-06 -1.26935e-05 -1.94799e-07)
(1.35448e-06 -1.08123e-05 -1.72336e-07)
(6.16498e-07 -8.12504e-06 -1.42076e-07)
(7.5478e-08 -3.90803e-06 -7.48295e-08)
(-8.14695e-08 -3.18803e-06 -8.13083e-08)
(-6.65696e-07 -6.67081e-06 -1.53818e-07)
(-1.46528e-06 -8.9073e-06 -1.86184e-07)
(-2.39261e-06 -1.04732e-05 -2.10218e-07)
(-3.35874e-06 -1.1625e-05 -2.36827e-07)
(-4.287e-06 -1.25012e-05 -2.71929e-07)
(-5.09612e-06 -1.31848e-05 -3.17808e-07)
(-5.70674e-06 -1.37272e-05 -3.75074e-07)
(-6.04571e-06 -1.41603e-05 -4.42713e-07)
(-6.05288e-06 -1.4504e-05 -5.18094e-07)
(-5.68894e-06 -1.47712e-05 -5.96931e-07)
(-4.94327e-06 -1.49713e-05 -6.73306e-07)
(-3.84084e-06 -1.51122e-05 -7.4012e-07)
(-2.44523e-06 -1.52012e-05 -7.90069e-07)
(-8.56013e-07 -1.52436e-05 -8.16863e-07)
(8.01222e-07 -1.52425e-05 -8.1694e-07)
(2.39188e-06 -1.51982e-05 -7.90312e-07)
(3.79032e-06 -1.51075e-05 -7.40498e-07)
(4.89673e-06 -1.4965e-05 -6.73796e-07)
(5.64728e-06 -1.47639e-05 -5.97502e-07)
(6.0167e-06 -1.44962e-05 -5.18709e-07)
(6.01533e-06 -1.41523e-05 -4.43346e-07)
(5.6822e-06 -1.37194e-05 -3.75691e-07)
(5.07724e-06 -1.31776e-05 -3.18378e-07)
(4.27341e-06 -1.24949e-05 -2.72433e-07)
(3.34982e-06 -1.16197e-05 -2.37258e-07)
(2.38761e-06 -1.04692e-05 -2.10514e-07)
(1.46323e-06 -8.9046e-06 -1.86318e-07)
(6.65424e-07 -6.66944e-06 -1.53748e-07)
(8.16719e-08 -3.18777e-06 -8.10732e-08)
(-8.2878e-08 -2.43212e-06 -8.27383e-08)
(-6.7732e-07 -5.14333e-06 -1.56357e-07)
(-1.49554e-06 -6.90339e-06 -1.88887e-07)
(-2.45161e-06 -8.13349e-06 -2.12856e-07)
(-3.45516e-06 -9.02747e-06 -2.39623e-07)
(-4.42529e-06 -9.69351e-06 -2.75325e-07)
(-5.27515e-06 -1.01985e-05 -3.22345e-07)
(-5.91954e-06 -1.05846e-05 -3.81187e-07)
(-6.28034e-06 -1.0879e-05 -4.50646e-07)
(-6.29361e-06 -1.10995e-05 -5.27848e-07)
(-5.91806e-06 -1.1259e-05 -6.08272e-07)
(-5.14309e-06 -1.13682e-05 -6.85834e-07)
(-3.99563e-06 -1.14375e-05 -7.53399e-07)
(-2.54267e-06 -1.14767e-05 -8.03706e-07)
(-8.88288e-07 -1.14936e-05 -8.30627e-07)
(8.36803e-07 -1.14927e-05 -8.30693e-07)