/*--------------------------------*- C++ -*----------------------------------*\
| =========                 |                                                 |
| \\      /  F ield         | OpenFOAM: The Open Source CFD Toolbox           |
|  \\    /   O peration     | Version:  v1906                                 |
|   \\  /    A nd           | Web:      www.OpenFOAM.com                      |
|    \\/     M anipulation  |                                                 |
\*---------------------------------------------------------------------------*/
FoamFile
{
    version     2.0;
    format      ascii;
    class       volScalarField;
    location    "9";
    object      alphat;
}
// * * * * * * * * * * * * * * * * * * * * * * * * * * * * * * * * * * * * * //

dimensions      [1 -1 -1 0 0 0 0];


internalField   nonuniform List<scalar> 
78750
(
1.96426e-06
5.68155e-06
1.97776e-05
1.54829e-05
1.4856e-05
1.55288e-05
1.52217e-05
1.52731e-05
1.53739e-05
1.54409e-05
1.51258e-05
1.47279e-05
1.43678e-05
1.40418e-05
1.37457e-05
1.34754e-05
1.32258e-05
1.29923e-05
1.27691e-05
1.25504e-05
1.2329e-05
1.21039e-05
1.18483e-05
1.15566e-05
1.12145e-05
1.08036e-05
1.03001e-05
9.67264e-06
8.88147e-06
7.87379e-06
6.5695e-06
4.40998e-06
2.42102e-06
1.01002e-06
2.47942e-08
2.05012e-07
8.57974e-06
2.08311e-05
3.36323e-05
3.45269e-05
3.56586e-05
3.90336e-05
4.20946e-05
4.44949e-05
4.61609e-05
4.68866e-05
4.7062e-05
4.71699e-05
4.72992e-05
4.74401e-05
4.75853e-05
4.77347e-05
4.79715e-05
4.84228e-05
4.90593e-05
4.97206e-05
5.0173e-05
5.0319e-05
5.02246e-05
4.96744e-05
4.83478e-05
4.59374e-05
4.21262e-05
3.67882e-05
3.0211e-05
2.32388e-05
1.71189e-05
1.2762e-05
6.79528e-06
8.8139e-08
2.79623e-07
1.01681e-05
1.45685e-05
1.52571e-05
1.59226e-05
1.7357e-05
1.93136e-05
2.16036e-05
2.46351e-05
3.02841e-05
4.15498e-05
4.4978e-05
4.46167e-05
4.44327e-05
4.44489e-05
4.46656e-05
4.50733e-05
4.56561e-05
4.63967e-05
4.72574e-05
4.81943e-05
4.91702e-05
5.01422e-05
5.10578e-05
4.6415e-05
4.29669e-05
3.97261e-05
3.58611e-05
3.15012e-05
2.68993e-05
2.2478e-05
1.87404e-05
1.51835e-05
5.60556e-06
1.08427e-07
2.78682e-07
1.4978e-05
1.7719e-05
1.76434e-05
1.91654e-05
2.19672e-05
2.56957e-05
3.04387e-05
3.86573e-05
5.37971e-05
5.42335e-05
5.26176e-05
5.10715e-05
4.97704e-05
4.88006e-05
4.81864e-05
4.79306e-05
4.80134e-05
4.83988e-05
4.90374e-05
4.98743e-05
5.08568e-05
5.12522e-05
4.78566e-05
4.48207e-05
4.16685e-05
3.80009e-05
3.39778e-05
2.98066e-05
2.58243e-05
2.25717e-05
2.05865e-05
1.90688e-05
6.51177e-06
1.28214e-07
2.89355e-07
1.00974e-05
2.13679e-05
2.00958e-05
2.09452e-05
2.30689e-05
2.57489e-05
2.81227e-05
2.9445e-05
2.99652e-05
3.10845e-05
3.56726e-05
4.05899e-05
3.93e-05
3.86225e-05
3.85131e-05
3.8885e-05
3.96444e-05
4.07089e-05
4.20105e-05
4.34885e-05
4.50804e-05
4.67063e-05
4.64894e-05
4.0297e-05
3.71446e-05
3.47464e-05
3.18706e-05
2.88796e-05
2.62154e-05
2.42665e-05
2.3061e-05
1.8909e-05
5.2479e-06
1.27048e-07
2.58813e-07
9.01033e-06
2.37419e-05
1.91771e-05
1.80851e-05
1.88593e-05
2.04445e-05
2.21059e-05
2.3406e-05
2.42453e-05
2.54997e-05
2.96516e-05
3.57885e-05
3.42725e-05
3.32537e-05
3.27738e-05
3.2816e-05
3.3334e-05
3.42644e-05
3.55367e-05
3.68418e-05
3.21175e-05
3.01793e-05
2.97158e-05
2.92397e-05
2.85162e-05
2.75312e-05
2.63044e-05
2.50474e-05
2.41644e-05
2.41215e-05
2.48342e-05
2.14518e-05
5.46835e-06
1.19206e-07
2.36249e-07
7.0466e-06
2.56807e-05
2.18087e-05
1.93747e-05
1.9089e-05
1.98965e-05
2.10216e-05
2.19679e-05
2.22587e-05
2.1661e-05
2.05586e-05
2.01638e-05
2.20639e-05
2.44109e-05
2.36316e-05
2.38395e-05
2.49273e-05
2.66667e-05
2.88039e-05
2.82286e-05
2.62703e-05
2.65569e-05
2.77321e-05
2.84507e-05
2.82727e-05
2.73928e-05
2.62304e-05
2.53017e-05
2.50133e-05
2.54391e-05
2.58547e-05
1.96398e-05
4.95837e-06
1.08853e-07
2.05945e-07
6.26607e-06
2.66452e-05
2.20982e-05
1.75471e-05
1.55739e-05
1.46023e-05
1.36465e-05
1.2554e-05
1.1411e-05
9.84037e-06
7.27082e-06
4.42307e-06
2.28039e-06
9.3984e-07
4.2525e-07
1.16305e-06
2.80379e-06
4.39777e-06
6.03314e-06
8.00345e-06
1.02497e-05
1.22747e-05
1.3678e-05
1.46525e-05
1.57187e-05
1.71835e-05
1.89804e-05
2.0848e-05
2.27849e-05
2.50231e-05
2.68022e-05
2.00687e-05
4.83337e-06
9.25291e-08
1.90895e-07
5.70511e-06
2.44809e-05
2.26209e-05
1.73332e-05
1.44604e-05
1.31744e-05
1.21817e-05
9.21446e-06
4.49143e-06
1.28703e-06
6.09838e-08
2.78682e-07
8.7246e-08
2.17291e-07
5.84307e-08
7.47516e-07
4.43902e-07
3.23489e-07
7.51012e-07
9.24201e-08
4.25769e-07
1.88779e-06
4.30389e-06
7.94518e-06
1.30702e-05
1.71954e-05
1.7749e-05
1.79423e-05
1.98567e-05
2.32948e-05
2.61552e-05
2.0388e-05
5.02693e-06
8.24733e-08
1.97715e-07
5.32869e-06
2.2764e-05
1.93942e-05
1.38029e-05
1.03226e-05
6.80665e-06
3.02084e-06
5.41925e-07
1.1881e-07
2.9862e-07
1.76478e-07
3.68436e-07
2.19388e-06
4.8411e-06
7.55087e-06
9.35583e-06
9.69454e-06
8.63228e-06
6.71365e-06
4.48824e-06
2.34954e-06
5.74331e-07
2.72094e-07
6.20592e-07
3.09064e-07
1.15075e-06
3.90281e-06
8.91655e-06
1.51997e-05
2.00196e-05
2.31668e-05
1.98787e-05
5.04255e-06
8.95918e-08
2.15953e-07
4.87834e-06
1.96143e-05
1.78306e-05
1.16127e-05
6.40456e-06
2.33476e-06
4.27764e-08
3.43515e-07
1.12232e-07
3.85796e-07
2.93117e-06
7.53796e-06
1.32982e-05
1.87215e-05
2.28098e-05
2.51675e-05
2.56939e-05
2.45172e-05
2.18831e-05
1.80063e-05
1.31931e-05
8.15705e-06
3.85695e-06
1.03222e-06
3.13874e-07
3.70727e-07
7.06493e-07
1.92007e-06
6.45303e-06
1.3173e-05
1.82962e-05
1.65243e-05
4.61751e-06
1.03462e-07
2.28375e-07
4.35479e-06
1.70884e-05
1.34187e-05
6.46361e-06
2.2133e-06
7.69285e-08
3.08852e-07
4.03249e-07
4.62706e-07
3.39344e-06
7.89242e-06
1.26046e-05
1.66609e-05
1.99224e-05
2.23467e-05
2.38097e-05
2.42088e-05
2.35452e-05
2.19315e-05
1.95222e-05
1.64178e-05
1.26371e-05
8.32689e-06
4.18297e-06
1.20131e-06
5.29469e-07
3.19562e-07
2.30414e-07
1.51844e-06
5.63546e-06
1.24781e-05
1.31715e-05
3.7751e-06
1.08335e-07
2.40626e-07
3.92382e-06
1.46644e-05
1.03132e-05
3.83455e-06
8.63193e-07
2.88564e-07
1.94055e-07
2.57041e-07
2.78338e-06
7.15806e-06
1.24911e-05
1.79221e-05
2.29282e-05
2.70964e-05
3.00564e-05
3.16179e-05
3.17867e-05
3.06967e-05
2.85524e-05
2.55907e-05
2.20478e-05
1.8089e-05
1.37377e-05
9.02015e-06
4.52114e-06
1.34969e-06
1.78242e-07
9.66458e-08
8.90381e-08
1.94361e-06
7.16955e-06
1.03913e-05
3.25511e-06
1.13848e-07
2.41532e-07
3.48567e-06
1.29464e-05
6.7132e-06
1.80559e-06
4.12115e-07
2.49795e-07
9.21328e-08
1.72317e-06
5.40319e-06
1.0691e-05
1.64918e-05
2.18537e-05
2.62945e-05
2.95704e-05
3.15695e-05
3.23071e-05
3.19016e-05
3.05381e-05
2.8431e-05
2.57871e-05
2.2783e-05
1.9543e-05
1.61141e-05
1.2434e-05
8.40137e-06
4.3486e-06
1.30686e-06
2.3972e-09
1.5531e-07
2.20481e-07
2.76029e-06
8.25055e-06
2.76745e-06
1.21544e-07
2.29176e-07
3.12629e-06
1.13067e-05
5.39636e-06
1.22374e-06
5.47402e-08
2.38551e-07
4.04052e-07
2.75524e-06
7.2105e-06
1.31103e-05
1.92721e-05
2.4841e-05
2.9412e-05
3.27161e-05
3.45868e-05
3.5047e-05
3.42837e-05
3.2555e-05
3.01274e-05
2.72402e-05
2.40759e-05
2.07595e-05
1.73523e-05
1.38583e-05
1.02592e-05
6.58158e-06
3.16757e-06
7.94659e-07
3.75368e-07
3.56439e-07
1.22005e-06
6.29234e-06
2.42784e-06
1.36927e-07
2.03625e-07
2.82684e-06
1.00887e-05
3.91091e-06
7.18929e-07
3.65055e-07
1.48086e-07
1.46862e-06
4.93314e-06
1.04117e-05
1.6647e-05
2.23962e-05
2.72557e-05
3.11257e-05
3.38611e-05
3.53352e-05
3.55361e-05
3.46147e-05
3.28004e-05
3.03387e-05
2.74534e-05
2.43287e-05
2.10942e-05
1.78114e-05
1.44832e-05
1.11097e-05
7.76101e-06
4.60646e-06
1.99434e-06
4.30646e-07
3.02559e-07
5.69844e-07
4.53043e-06
2.19809e-06
1.55029e-07
1.82185e-07
2.64736e-06
9.0297e-06
2.55033e-06
1.89392e-07
2.20427e-07
6.96664e-07
3.23495e-06
7.76087e-06
1.31387e-05
1.81262e-05
2.25019e-05
2.64727e-05
3.0045e-05
3.30068e-05
3.50245e-05
3.58718e-05
3.5497e-05
3.39922e-05
3.15453e-05
2.84022e-05
2.48369e-05
2.10881e-05
1.72934e-05
1.35111e-05
9.8425e-06
6.50653e-06
3.73783e-06
1.68252e-06
4.39091e-07
5.61089e-08
5.96764e-07
5.01965e-06
2.0127e-06
1.64105e-07
1.73427e-07
2.58988e-06
7.3193e-06
1.11922e-06
2.77608e-07
6.86465e-07
3.03302e-06
7.28241e-06
1.20251e-05
1.60053e-05
1.9356e-05
2.2536e-05
2.57385e-05
2.8837e-05
3.16097e-05
3.3808e-05
3.51778e-05
3.54915e-05
3.45934e-05
3.24605e-05
2.92564e-05
2.53349e-05
2.10857e-05
1.67437e-05
1.24418e-05
8.42865e-06
5.0936e-06
2.67775e-06
1.11983e-06
2.55911e-07
6.60134e-08
9.55537e-07
6.43209e-06
1.78091e-06
1.47456e-07
1.81685e-07
2.56147e-06
3.71938e-06
6.24082e-07
8.68119e-07
2.86151e-06
6.49763e-06
1.02918e-05
1.3181e-05
1.55764e-05
1.80443e-05
2.07853e-05
2.37333e-05
2.67453e-05
2.9663e-05
3.22783e-05
3.42904e-05
3.53003e-05
3.4879e-05
3.27561e-05
2.90874e-05
2.45149e-05
1.97093e-05
1.49732e-05
1.04431e-05
6.44567e-06
3.42187e-06
1.50271e-06
5.37324e-07
2.18211e-07
4.29234e-07
2.14615e-06
4.76925e-06
1.57906e-06
1.14823e-07
2.08929e-07
3.18597e-06
2.90586e-06
1.6142e-06
2.99555e-06
6.09055e-06
9.46e-06
1.17518e-05
1.34101e-05
1.51404e-05
1.72609e-05
1.9839e-05
2.27742e-05
2.58739e-05
2.89379e-05
3.17462e-05
3.39947e-05
3.52366e-05
3.49256e-05
3.26997e-05
2.88306e-05
2.422e-05
1.96205e-05
1.518e-05
1.08239e-05
6.7814e-06
3.56995e-06
1.46804e-06
4.11606e-07
1.47469e-07
5.56763e-07
3.01281e-06
4.01726e-06
1.47796e-06
8.79589e-08
2.53623e-07
4.02619e-06
3.76315e-06
2.98671e-06
4.93077e-06
7.89616e-06
1.00314e-05
1.11424e-05
1.2023e-05
1.324e-05
1.51057e-05
1.77291e-05
2.09928e-05
2.4607e-05
2.82224e-05
3.14661e-05
3.39254e-05
3.5097e-05
3.4435e-05
3.1714e-05
2.75176e-05
2.2999e-05
1.89207e-05
1.52976e-05
1.17851e-05
8.20836e-06
4.86975e-06
2.2946e-06
7.24427e-07
7.86374e-08
2.4528e-07
1.87124e-06
3.39035e-06
1.31938e-06
7.32391e-08
2.77801e-07
3.7105e-06
5.99615e-06
3.89438e-06
5.49068e-06
8.07222e-06
9.76332e-06
1.0222e-05
1.03577e-05
1.09327e-05
1.24131e-05
1.50395e-05
1.87612e-05
2.32182e-05
2.78004e-05
3.17638e-05
3.4468e-05
3.54744e-05
3.45011e-05
3.15999e-05
2.74272e-05
2.30364e-05
1.91917e-05
1.60346e-05
1.32737e-05
1.0499e-05
7.49507e-06
4.55435e-06
2.24761e-06
8.62515e-07
3.31826e-07
7.83383e-07
3.2796e-06
1.20656e-06
6.60235e-08
2.47657e-07
3.02001e-06
1.35615e-05
5.71529e-06
5.9065e-06
7.60777e-06
8.90787e-06
8.92169e-06
8.25452e-06
7.99247e-06
8.80651e-06
1.10179e-05
1.471e-05
1.97199e-05
2.54979e-05
3.08857e-05
3.45531e-05
3.58117e-05
3.46674e-05
3.15522e-05
2.72658e-05
2.28244e-05
1.89717e-05
1.59375e-05
1.35611e-05
1.15041e-05
9.37174e-06
6.9204e-06
4.42003e-06
2.45459e-06
1.36158e-06
1.24467e-06
3.89441e-06
1.43923e-06
6.35083e-08
1.97095e-07
2.53456e-06
1.14987e-05
9.84064e-06
7.42147e-06
7.74863e-06
8.31034e-06
8.02779e-06
6.9958e-06
6.22627e-06
6.58354e-06
8.38502e-06
1.17051e-05
1.64796e-05
2.24533e-05
2.87686e-05
3.37475e-05
3.60058e-05
3.54072e-05
3.25744e-05
2.83629e-05
2.37704e-05
1.96525e-05
1.64003e-05
1.3967e-05
1.20925e-05
1.04176e-05
8.57874e-06
6.42346e-06
4.30735e-06
2.843e-06
2.40955e-06
4.67237e-06
2.28022e-06
6.40696e-08
1.65082e-07
2.31012e-06
8.39226e-06
1.53757e-05
9.97291e-06
8.62262e-06
8.16739e-06
7.15052e-06
5.63899e-06
4.71736e-06
5.1487e-06
7.03137e-06
1.02979e-05
1.47859e-05
2.03106e-05
2.64753e-05
3.20616e-05
3.53297e-05
3.54933e-05
3.29939e-05
2.87587e-05
2.39272e-05
1.95388e-05
1.61106e-05
1.36329e-05
1.18596e-05
1.04568e-05
9.06002e-06
7.4042e-06
5.57125e-06
4.10831e-06
3.62492e-06
6.04391e-06
3.32621e-06
6.7817e-08
1.56233e-07
2.28273e-06
7.77102e-06
1.82802e-05
1.24857e-05
9.42484e-06
7.5651e-06
5.61499e-06
4.0918e-06
3.7371e-06
4.83454e-06
7.27422e-06
1.0834e-05
1.52136e-05
2.02712e-05
2.5891e-05
3.12867e-05
3.48767e-05
3.55373e-05
3.33525e-05
2.91103e-05
2.40301e-05
1.93727e-05
1.57885e-05
1.32729e-05
1.15586e-05
1.03124e-05
9.17648e-06
7.85085e-06
6.32145e-06
5.03089e-06
4.68665e-06
7.68973e-06
4.0288e-06
7.45297e-08
1.61599e-07
2.35275e-06
7.80897e-06
1.90302e-05
1.36942e-05
8.88364e-06
5.80388e-06
3.81304e-06
3.05305e-06
3.62642e-06
5.51723e-06
8.47043e-06
1.2087e-05
1.61033e-05
2.06321e-05
2.57925e-05
3.09318e-05
3.4474e-05
3.51388e-05
3.28124e-05
2.82435e-05
2.28562e-05
1.80987e-05
1.45888e-05
1.22153e-05
1.06644e-05
9.61485e-06
8.7459e-06
7.77609e-06
6.64955e-06
5.6879e-06
5.71784e-06
1.00503e-05
4.10892e-06
8.3739e-08
1.72134e-07
2.42972e-06
7.94149e-06
1.85305e-05
1.19746e-05
6.50839e-06
3.77693e-06
2.69772e-06
2.92834e-06
4.41684e-06
6.97743e-06
1.01796e-05
1.36218e-05
1.73222e-05
2.16277e-05
2.6643e-05
3.15408e-05
3.46652e-05
3.48458e-05
3.20107e-05
2.69748e-05
2.13767e-05
1.6709e-05
1.34166e-05
1.12588e-05
9.8914e-06
9.00997e-06
8.32934e-06
7.61069e-06
6.81142e-06
6.18285e-06
6.72786e-06
1.28652e-05
3.95577e-06
9.45487e-08
1.80452e-07
2.42215e-06
7.77328e-06
1.67976e-05
8.50234e-06
4.13166e-06
2.5608e-06
2.47746e-06
3.56664e-06
5.74847e-06
8.61512e-06
1.16663e-05
1.47568e-05
1.81918e-05
2.24053e-05
2.73808e-05
3.2056e-05
3.46658e-05
3.4146e-05
3.05523e-05
2.49602e-05
1.92956e-05
1.49065e-05
1.19468e-05
1.00582e-05
8.90162e-06
8.21739e-06
7.77418e-06
7.37973e-06
6.94398e-06
6.71503e-06
7.94427e-06
1.57682e-05
3.71164e-06
1.06087e-07
1.82538e-07
2.30104e-06
7.27089e-06
1.31755e-05
5.24981e-06
2.68399e-06
2.21852e-06
2.95758e-06
4.7287e-06
7.28536e-06
1.00767e-05
1.27842e-05
1.55913e-05
1.89614e-05
2.32975e-05
2.83729e-05
3.27957e-05
3.4749e-05
3.33874e-05
2.89954e-05
2.29909e-05
1.74508e-05
1.34212e-05
1.07908e-05
9.1396e-06
8.14965e-06
7.60371e-06
7.32778e-06
7.18104e-06
7.0449e-06
7.23716e-06
9.24332e-06
1.71229e-05
3.46549e-06
1.17409e-07
1.78582e-07
2.10451e-06
6.5742e-06
8.8024e-06
3.33797e-06
2.20126e-06
2.57007e-06
3.93071e-06
6.11127e-06
8.65492e-06
1.10851e-05
1.3406e-05
1.60023e-05
1.93645e-05
2.38161e-05
2.89511e-05
3.31274e-05
3.44921e-05
3.23434e-05
2.72109e-05
2.09362e-05
1.56307e-05
1.1975e-05
9.65067e-06
8.22139e-06
7.40565e-06
7.03008e-06
6.97064e-06
7.06969e-06
7.22348e-06
7.86514e-06
1.07243e-05
1.65238e-05
3.22406e-06
1.27744e-07
1.72727e-07
1.97181e-06
6.39616e-06
5.98086e-06
2.72535e-06
2.51721e-06
3.48125e-06
5.22864e-06
7.46778e-06
9.68333e-06
1.16816e-05
1.37062e-05
1.62029e-05
1.96354e-05
2.42454e-05
2.94522e-05
3.33945e-05
3.42312e-05
3.13981e-05
2.56797e-05
1.92917e-05
1.42502e-05
1.09046e-05
8.80798e-06
7.5322e-06
6.83169e-06
6.57572e-06
6.68578e-06
6.97544e-06
7.39697e-06
8.50174e-06
1.22345e-05
1.49162e-05
3.02037e-06
1.36793e-07
1.68767e-07
2.04443e-06
7.58473e-06
5.37128e-06
3.1563e-06
3.45681e-06
4.75284e-06
6.55981e-06
8.51938e-06
1.02804e-05
1.19011e-05
1.37115e-05
1.61359e-05
1.96006e-05
2.42956e-05
2.95341e-05
3.33312e-05
3.38041e-05
3.04166e-05
2.42188e-05
1.77961e-05
1.30117e-05
9.93296e-06
8.03311e-06
6.90246e-06
6.32712e-06
6.21169e-06
6.48362e-06
6.94826e-06
7.63025e-06
9.21341e-06
1.38169e-05
1.31776e-05
2.85203e-06
1.44265e-07
1.68557e-07
2.39001e-06
1.0919e-05
6.31067e-06
4.26817e-06
4.7378e-06
6.0664e-06
7.63917e-06
9.1851e-06
1.05501e-05
1.19065e-05
1.35822e-05
1.59656e-05
1.94617e-05
2.42347e-05
2.95155e-05
3.32405e-05
3.34862e-05
2.9713e-05
2.31899e-05
1.67625e-05
1.2149e-05
9.2298e-06
7.43971e-06
6.38961e-06
5.89325e-06
5.88871e-06
6.28132e-06
6.9006e-06
7.83776e-06
9.9026e-06
1.52788e-05
1.17475e-05
2.72064e-06
1.5007e-07
1.71945e-07
2.92992e-06
1.57857e-05
8.14001e-06
5.702e-06
6.04756e-06
7.16819e-06
8.37395e-06
9.52096e-06
1.05723e-05
1.17246e-05
1.32738e-05
1.55773e-05
1.90298e-05
2.3806e-05
2.91414e-05
3.2934e-05
3.31436e-05
2.91529e-05
2.24066e-05
1.59705e-05
1.14675e-05
8.6518e-06
6.93373e-06
5.93896e-06
5.50186e-06
5.588e-06
6.08088e-06
6.84465e-06
8.03433e-06
1.05811e-05
1.65711e-05
1.06329e-05
2.61665e-06
1.54163e-07
1.78343e-07
3.48134e-06
2.00153e-05
1.02796e-05
7.14499e-06
7.1675e-06
7.97172e-06
8.82621e-06
9.64218e-06
1.04548e-05
1.14417e-05
1.28655e-05
1.50627e-05
1.84259e-05
2.31642e-05
2.85765e-05
3.25685e-05
3.29744e-05
2.90339e-05
2.21929e-05
1.56607e-05
1.11186e-05
8.28751e-06
6.55851e-06
5.55816e-06
5.12946e-06
5.25441e-06
5.81239e-06
6.6987e-06
8.12279e-06
1.11233e-05
1.7542e-05
9.82318e-06
2.53784e-06
1.56687e-07
1.87046e-07
3.88227e-06
2.21873e-05
1.24796e-05
8.50283e-06
8.09587e-06
8.57123e-06
9.11139e-06
9.63072e-06
1.02216e-05
1.10307e-05
1.22912e-05
1.43184e-05
1.75017e-05
2.21104e-05
2.76011e-05
3.19531e-05
3.28217e-05
2.92096e-05
2.24084e-05
1.57252e-05
1.1038e-05
8.10887e-06
6.30937e-06
5.25406e-06
4.78568e-06
4.89553e-06
5.47767e-06
6.45333e-06
8.07687e-06
1.14835e-05
1.82062e-05
9.24049e-06
2.47839e-06
1.57831e-07
1.97329e-07
4.08988e-06
2.25837e-05
1.4687e-05
9.78099e-06
8.89033e-06
9.04568e-06
9.31253e-06
9.56711e-06
9.9471e-06
1.05701e-05
1.16435e-05
1.34597e-05
1.63973e-05
2.07874e-05
2.63054e-05
3.11166e-05
3.27162e-05
2.97848e-05
2.3228e-05
1.63172e-05
1.13204e-05
8.1715e-06
6.22142e-06
5.04935e-06
4.48142e-06
4.50683e-06
5.05327e-06
6.05776e-06
7.80374e-06
1.15091e-05
1.85433e-05
8.86044e-06
2.43686e-06
1.57881e-07
2.08035e-07
4.13234e-06
2.17433e-05
1.70605e-05
1.11157e-05
9.6756e-06
9.51242e-06
9.52599e-06
9.51617e-06
9.65164e-06
1.00548e-05
1.09064e-05
1.24668e-05
1.50902e-05
1.9156e-05
2.45959e-05
2.98962e-05
3.24342e-05
3.05022e-05
2.44804e-05
1.73899e-05
1.19702e-05
8.49684e-06
6.32463e-06
4.98068e-06
4.25929e-06
4.13527e-06
4.58093e-06
5.5384e-06
7.30191e-06
1.11536e-05
1.86108e-05
8.64686e-06
2.41113e-06
1.5713e-07
2.18015e-07
4.06653e-06
2.01626e-05
1.97155e-05
1.26139e-05
1.05233e-05
1.0016e-05
9.78511e-06
9.52766e-06
9.39437e-06
9.56169e-06
1.0177e-05
1.14637e-05
1.374e-05
1.74032e-05
2.26161e-05
2.83132e-05
3.18892e-05
3.12214e-05
2.60913e-05
1.89675e-05
1.30355e-05
9.1213e-06
6.65022e-06
5.08252e-06
4.16112e-06
3.83097e-06
4.10791e-06
4.93151e-06
6.58012e-06
1.03503e-05
1.8357e-05
8.60526e-06
2.40159e-06
1.55925e-07
2.26049e-07
3.94362e-06
1.82549e-05
2.26872e-05
1.443e-05
1.15467e-05
1.06369e-05
1.01482e-05
9.64134e-06
9.20997e-06
9.10364e-06
9.45999e-06
1.04624e-05
1.23789e-05
1.55884e-05
2.04268e-05
2.63397e-05
3.0938e-05
3.16724e-05
2.77537e-05
2.09047e-05
1.44913e-05
1.00481e-05
7.21127e-06
5.38048e-06
4.23064e-06
3.6646e-06
3.71523e-06
4.33514e-06
5.75457e-06
9.19972e-06
1.76489e-05
8.73609e-06
2.40792e-06
1.54575e-07
2.3142e-07
3.79879e-06
1.63876e-05
2.56723e-05
1.66517e-05
1.28132e-05
1.13971e-05
1.06112e-05
9.8524e-06
9.13263e-06
8.72602e-06
8.81949e-06
9.54917e-06
1.11262e-05
1.38821e-05
1.82398e-05
2.41171e-05
2.95824e-05
3.17438e-05
2.92422e-05
2.30267e-05
1.62737e-05
1.12503e-05
7.99207e-06
5.87185e-06
4.48216e-06
3.67518e-06
3.46185e-06
3.84015e-06
4.96164e-06
7.88744e-06
1.62798e-05
9.10989e-06
2.4361e-06
1.53555e-07
2.33875e-07
3.64969e-06
1.47216e-05
2.80434e-05
1.93065e-05
1.44036e-05
1.23464e-05
1.11982e-05
1.01678e-05
9.16464e-06
8.436e-06
8.25389e-06
8.72277e-06
9.99519e-06
1.23379e-05
1.61817e-05
2.17877e-05
2.78613e-05
3.13723e-05
3.0337e-05
2.50506e-05
1.82056e-05
1.26348e-05
8.9278e-06
6.51102e-06
4.89134e-06
3.85599e-06
3.38041e-06
3.51071e-06
4.32347e-06
6.67043e-06
1.42964e-05
9.79626e-06
2.48938e-06
1.53217e-07
2.33994e-07
3.50906e-06
1.33231e-05
2.92591e-05
2.21919e-05
1.6302e-05
1.34732e-05
1.18724e-05
1.05341e-05
9.25501e-06
8.23172e-06
7.77694e-06
8.01646e-06
9.03882e-06
1.10397e-05
1.44091e-05
1.95976e-05
2.59523e-05
3.06276e-05
3.10041e-05
2.67955e-05
2.0111e-05
1.40828e-05
9.92138e-06
7.21384e-06
5.39382e-06
4.16996e-06
3.46922e-06
3.36352e-06
3.89143e-06
5.70589e-06
1.21273e-05
1.09e-05
2.5721e-06
1.53733e-07
2.32748e-07
3.38433e-06
1.21911e-05
2.93182e-05
2.49674e-05
1.84367e-05
1.47593e-05
1.26147e-05
1.09215e-05
9.36315e-06
8.07876e-06
7.36578e-06
7.40997e-06
8.23636e-06
9.97451e-06
1.29548e-05
1.76985e-05
2.4058e-05
2.96221e-05
3.12655e-05
2.81268e-05
2.17899e-05
1.54402e-05
1.08622e-05
7.88556e-06
5.90258e-06
4.54498e-06
3.68461e-06
3.37464e-06
3.66899e-06
5.06349e-06
1.0339e-05
1.24904e-05
2.68658e-06
1.55267e-07
2.3134e-07
3.28078e-06
1.13114e-05
2.86386e-05
2.72807e-05
2.06004e-05
1.6102e-05
1.33434e-05
1.12465e-05
9.40607e-06
7.9025e-06
6.99174e-06
6.8958e-06
7.59241e-06
9.15486e-06
1.18556e-05
1.62193e-05
2.24213e-05
2.856e-05
3.12534e-05
2.90695e-05
2.31477e-05
1.65906e-05
1.16578e-05
8.44717e-06
6.33863e-06
4.89919e-06
3.94319e-06
3.48817e-06
3.61063e-06
4.70048e-06
9.11488e-06
1.45123e-05
2.82911e-06
1.58069e-07
2.30673e-07
3.19836e-06
1.06417e-05
2.7671e-05
2.89789e-05
2.25823e-05
1.73885e-05
1.39796e-05
1.14476e-05
9.33628e-06
7.66634e-06
6.6373e-06
6.45578e-06
7.08164e-06
8.54007e-06
1.10584e-05
1.51436e-05
2.11466e-05
2.76014e-05
3.10782e-05
2.96528e-05
2.41039e-05
1.7425e-05
1.22265e-05
8.83915e-06
6.64754e-06
5.17038e-06
4.17887e-06
3.64991e-06
3.66767e-06
4.56018e-06
8.42696e-06
1.66205e-05
2.98481e-06
1.6228e-07
2.31349e-07
3.13499e-06
1.01404e-05
2.67047e-05
3.00904e-05
2.41907e-05
1.84409e-05
1.43961e-05
1.14395e-05
9.09889e-06
7.33326e-06
6.27417e-06
6.07662e-06
6.69331e-06
8.11378e-06
1.05387e-05
1.44579e-05
2.03035e-05
2.6896e-05
3.08779e-05
2.99828e-05
2.46924e-05
1.79222e-05
1.25414e-05
9.04265e-06
6.81065e-06
5.33227e-06
4.34786e-06
3.80688e-06
3.78362e-06
4.57123e-06
8.14239e-06
1.83614e-05
3.13385e-06
1.67917e-07
2.33496e-07
3.0857e-06
9.75998e-06
2.5858e-05
3.07555e-05
2.53398e-05
1.91333e-05
1.45146e-05
1.11946e-05
8.70058e-06
6.92147e-06
5.90933e-06
5.76101e-06
6.41549e-06
7.8442e-06
1.02398e-05
1.40853e-05
1.98426e-05
2.64755e-05
3.07156e-05
3.01038e-05
2.49105e-05
1.80552e-05
1.2588e-05
9.05646e-06
6.82944e-06
5.38015e-06
4.43744e-06
3.93274e-06
3.92193e-06
4.68858e-06
8.1712e-06
1.94487e-05
3.25727e-06
1.74775e-07
2.36822e-07
3.04515e-06
9.4593e-06
2.51507e-05
3.11186e-05
2.60239e-05
1.93933e-05
1.42976e-05
1.07161e-05
8.17162e-06
6.46455e-06
5.56178e-06
5.51037e-06
6.23341e-06
7.70247e-06
1.01197e-05
1.39724e-05
1.97192e-05
2.63445e-05
3.06383e-05
3.00793e-05
2.48238e-05
1.78843e-05
1.24175e-05
8.92144e-06
6.73479e-06
5.33218e-06
4.44894e-06
4.01438e-06
4.05635e-06
4.86539e-06
8.41915e-06
1.98999e-05
3.34544e-06
1.82508e-07
2.40657e-07
3.00682e-06
9.19731e-06
2.45417e-05
3.12788e-05
2.62774e-05
1.92158e-05
1.37687e-05
1.00703e-05
7.58764e-06
6.02055e-06
5.26126e-06
5.32611e-06
6.12789e-06
7.65333e-06
1.01267e-05
1.40486e-05
1.98494e-05
2.64435e-05
3.06297e-05
2.99134e-05
2.44512e-05
1.74501e-05
1.20755e-05
8.67954e-06
6.56446e-06
5.21973e-06
4.40184e-06
4.05388e-06
4.17648e-06
5.07926e-06
8.82528e-06
1.98345e-05
3.39797e-06
1.90817e-07
2.43992e-07
2.96456e-06
8.93862e-06
2.39625e-05
3.12971e-05
2.6175e-05
1.86762e-05
1.30208e-05
9.34806e-06
7.0129e-06
5.62002e-06
5.0098e-06
5.18972e-06
6.07075e-06
7.66474e-06
1.02261e-05
1.42761e-05
2.01915e-05
2.67406e-05
3.06784e-05
2.9614e-05
2.38427e-05
1.68357e-05
1.16345e-05
8.38534e-06
6.36162e-06
5.07797e-06
4.32062e-06
4.05794e-06
4.27091e-06
5.29996e-06
9.32017e-06
1.93981e-05
3.42358e-06
1.99626e-07
2.4575e-07
2.91427e-06
8.6609e-06
2.33524e-05
3.11965e-05
2.5782e-05
1.78745e-05
1.2162e-05
8.63078e-06
6.49129e-06
5.27665e-06
4.80348e-06
5.08804e-06
6.04725e-06
7.72206e-06
1.04004e-05
1.46286e-05
2.071e-05
2.71912e-05
3.07424e-05
2.91535e-05
2.30202e-05
1.60933e-05
1.11379e-05
8.07236e-06
6.15679e-06
4.93757e-06
4.23371e-06
4.04455e-06
4.34235e-06
5.50977e-06
9.84679e-06
1.87331e-05
3.43193e-06
2.09237e-07
2.45018e-07
2.85508e-06
8.35646e-06
2.2667e-05
3.09726e-05
2.51564e-05
1.69145e-05
1.12795e-05
7.96062e-06
6.02767e-06
4.97534e-06
4.62312e-06
5.00468e-06
6.04759e-06
7.82185e-06
1.06515e-05
1.51114e-05
2.14022e-05
2.7767e-05
3.07773e-05
2.85095e-05
2.20203e-05
1.52721e-05
1.0618e-05
7.7614e-06
5.9692e-06
4.82054e-06
4.16486e-06
4.03115e-06
4.39665e-06
5.69564e-06
1.03517e-05
1.80036e-05
3.43376e-06
2.20325e-07
2.4158e-07
2.78935e-06
8.03722e-06
2.19058e-05
3.05898e-05
2.42957e-05
1.58348e-05
1.03934e-05
7.32728e-06
5.59623e-06
4.69248e-06
4.46136e-06
4.94915e-06
6.09596e-06
7.99987e-06
1.10255e-05
1.57753e-05
2.22959e-05
2.84367e-05
3.07169e-05
2.76378e-05
2.08439e-05
1.43713e-05
1.00631e-05
7.44031e-06
5.79408e-06
4.73426e-06
4.13519e-06
4.04346e-06
4.45705e-06
5.87306e-06
1.08409e-05
1.73044e-05
3.43393e-06
2.33517e-07
2.36033e-07
2.72402e-06
7.73266e-06
2.11329e-05
3.00082e-05
2.31461e-05
1.46198e-05
9.48105e-06
6.69857e-06
5.16992e-06
4.41833e-06
4.33135e-06
4.94908e-06
6.22787e-06
8.29765e-06
1.15706e-05
1.66657e-05
2.33921e-05
2.91324e-05
3.04821e-05
2.65096e-05
1.95045e-05
1.33938e-05
9.46241e-06
7.09255e-06
5.61512e-06
4.66936e-06
4.15032e-06
4.09892e-06
4.55006e-06
6.07669e-06
1.1378e-05
1.66361e-05
3.43044e-06
2.48965e-07
2.29634e-07
2.66651e-06
7.47754e-06
2.04606e-05
2.91854e-05
2.15973e-05
1.32196e-05
8.50837e-06
6.04978e-06
4.7423e-06
4.16931e-06
4.26729e-06
5.04952e-06
6.49461e-06
8.77297e-06
1.23559e-05
1.78442e-05
2.46827e-05
2.97691e-05
2.99939e-05
2.50971e-05
1.80009e-05
1.23293e-05
8.79998e-06
6.70055e-06
5.41581e-06
4.61566e-06
4.21129e-06
4.21438e-06
4.70832e-06
6.36086e-06
1.20746e-05
1.59292e-05
3.41831e-06
2.66093e-07
2.23736e-07
2.62238e-06
7.3e-06
2.00095e-05
2.81028e-05
1.96093e-05
1.16468e-05
7.48629e-06
5.39603e-06
4.34345e-06
3.98725e-06
4.30957e-06
5.2869e-06
6.92823e-06
9.46013e-06
1.3421e-05
1.93095e-05
2.60705e-05
3.02193e-05
2.91781e-05
2.33934e-05
1.63557e-05
1.11936e-05
8.07932e-06
6.25933e-06
5.18491e-06
4.5617e-06
4.31073e-06
4.39924e-06
4.9646e-06
6.79989e-06
1.30924e-05
1.5128e-05
3.39628e-06
2.83468e-07
2.19339e-07
2.59547e-06
7.22098e-06
1.98874e-05
2.66855e-05
1.72026e-05
9.9754e-06
6.48069e-06
4.79754e-06
4.03552e-06
3.93496e-06
4.50557e-06
5.6913e-06
7.54697e-06
1.03724e-05
1.47621e-05
2.10027e-05
2.74162e-05
3.0382e-05
2.79951e-05
2.14273e-05
1.46258e-05
1.00261e-05
7.32522e-06
5.78283e-06
4.92811e-06
4.51064e-06
4.44495e-06
4.65568e-06
5.34241e-06
7.47161e-06
1.46043e-05
1.42011e-05
3.36163e-06
2.9902e-07
2.16729e-07
2.58556e-06
7.24612e-06
2.01605e-05
2.48124e-05
1.45987e-05
8.39072e-06
5.60862e-06
4.34517e-06
3.88652e-06
4.05879e-06
4.86216e-06
6.24168e-06
8.31494e-06
1.14662e-05
1.63037e-05
2.27661e-05
2.85453e-05
3.01862e-05
2.64461e-05
1.9297e-05
1.29167e-05
8.89443e-06
6.58224e-06
5.30006e-06
4.66201e-06
4.47288e-06
4.6084e-06
4.97943e-06
5.85685e-06
8.43653e-06
1.67098e-05
1.31857e-05
3.31251e-06
3.10789e-07
2.15551e-07
2.59126e-06
7.375e-06
2.08403e-05
2.24193e-05
1.21582e-05
7.09164e-06
4.97602e-06
4.1002e-06
3.92002e-06
4.34346e-06
5.33395e-06
6.87874e-06
9.17159e-06
1.26798e-05
1.79467e-05
2.44506e-05
2.93689e-05
2.96266e-05
2.45913e-05
1.71561e-05
1.13427e-05
7.86531e-06
5.89406e-06
4.84325e-06
4.41088e-06
4.45524e-06
4.7966e-06
5.36635e-06
6.52487e-06
9.74124e-06
1.92644e-05
1.21895e-05
3.25389e-06
3.177e-07
2.15088e-07
2.61125e-06
7.6058e-06
2.1878e-05
1.9752e-05
1.02071e-05
6.19852e-06
4.62703e-06
4.06703e-06
4.10881e-06
4.72179e-06
5.84305e-06
7.52326e-06
1.00357e-05
1.39088e-05
1.9543e-05
2.5904e-05
2.98482e-05
2.87456e-05
2.26034e-05
1.52123e-05
1.00148e-05
6.99778e-06
5.29832e-06
4.43589e-06
4.18749e-06
4.44592e-06
4.99283e-06
5.79948e-06
7.34309e-06
1.13697e-05
2.17412e-05
1.13075e-05
3.19311e-06
3.2026e-07
2.14555e-07
2.64415e-06
7.93105e-06
2.31167e-05
1.73415e-05
8.88029e-06
5.70073e-06
4.5269e-06
4.19096e-06
4.38363e-06
5.10868e-06
6.30999e-06
8.10639e-06
1.08387e-05
1.50674e-05
2.09965e-05
2.70817e-05
3.00305e-05
2.76506e-05
2.07096e-05
1.36111e-05
8.97603e-06
6.31622e-06
4.81698e-06
4.09323e-06
3.99729e-06
4.4264e-06
5.16778e-06
6.24058e-06
8.25489e-06
1.31958e-05
2.34665e-05
1.05924e-05
3.13816e-06
3.20279e-07
2.13385e-07
2.68914e-06
8.33548e-06
2.43387e-05
1.55982e-05
8.12942e-06
5.51753e-06
4.60042e-06
4.39333e-06
4.66741e-06
5.43847e-06
6.68968e-06
8.59261e-06
1.15367e-05
1.60915e-05
2.22409e-05
2.7979e-05
2.99803e-05
2.64917e-05
1.90989e-05
1.23977e-05
8.21527e-06
5.81429e-06
4.45156e-06
3.81614e-06
3.82567e-06
4.37406e-06
5.28878e-06
6.64074e-06
9.16475e-06
1.49906e-05
2.42093e-05
1.00551e-05
3.09508e-06
3.19915e-07
2.11356e-07
2.74398e-06
8.79006e-06
2.54057e-05
1.46087e-05
7.8273e-06
5.55032e-06
4.766e-06
4.60403e-06
4.90017e-06
5.68149e-06
6.96956e-06
8.969e-06
1.21033e-05
1.6941e-05
2.32559e-05
2.86367e-05
2.97929e-05
2.54307e-05
1.78599e-05
1.15409e-05
7.69266e-06
5.47086e-06
4.19512e-06
3.60372e-06
3.66299e-06
4.27607e-06
5.32597e-06
6.94319e-06
9.95102e-06
1.65112e-05
2.42541e-05
9.67184e-06
3.06522e-06
3.2089e-07
2.08662e-07
2.8064e-06
9.26609e-06
2.63288e-05
1.42397e-05
7.82879e-06
5.70352e-06
4.95536e-06
4.7797e-06
5.06285e-06
5.84259e-06
7.16311e-06
9.24648e-06
1.25423e-05
1.76148e-05
2.40506e-05
2.90981e-05
2.95394e-05
2.45412e-05
1.69497e-05
1.09466e-05
7.33929e-06
5.24557e-06
4.0294e-06
3.45558e-06
3.5207e-06
4.14491e-06
5.27299e-06
7.10011e-06
1.0513e-05
1.76039e-05
2.39716e-05
9.40382e-06
3.04575e-06
3.23919e-07
2.05747e-07
2.87492e-06
9.74135e-06
2.71609e-05
1.42947e-05
8.00183e-06
5.90048e-06
5.12438e-06
4.90524e-06
5.16548e-06
5.9461e-06
7.29852e-06
9.45244e-06
1.28784e-05
1.81363e-05
2.46587e-05
2.94146e-05
2.92779e-05
2.38322e-05
1.62807e-05
1.05181e-05
7.08531e-06
5.09011e-06
3.92472e-06
3.36348e-06
3.41512e-06
4.01317e-06
5.16053e-06
7.11883e-06
1.08246e-05
1.82668e-05
2.35896e-05
9.20183e-06
3.03079e-06
3.28609e-07
2.0326e-07
2.94853e-06
1.02066e-05
2.79267e-05
1.45662e-05
8.23801e-06
6.08623e-06
5.25159e-06
4.98494e-06
5.22989e-06
6.01988e-06
7.40335e-06
9.61268e-06
1.3135e-05
1.85272e-05
2.50992e-05
2.9611e-05
2.90293e-05
2.32678e-05
1.5761e-05
1.01748e-05
6.87266e-06
4.95963e-06
3.84653e-06
3.30839e-06
3.35189e-06
3.91183e-06
5.03723e-06
7.05216e-06
1.09397e-05
1.86099e-05
2.31952e-05
9.01933e-06
3.01327e-06
3.33809e-07
2.01799e-07
3.02576e-06
1.06596e-05
2.85972e-05
1.48812e-05
8.45698e-06
6.22766e-06
5.33253e-06
5.03232e-06
5.27831e-06
6.0868e-06
7.49911e-06
9.75046e-06
1.33425e-05
1.88249e-05
2.54102e-05
2.97186e-05
2.8801e-05
2.27983e-05
1.53153e-05
9.86005e-06
6.66191e-06
4.82131e-06
3.76443e-06
3.2661e-06
3.32323e-06
3.85727e-06
4.9473e-06
6.97114e-06
1.09607e-05
1.879e-05
2.27981e-05
8.82379e-06
2.98792e-06
3.37901e-07
2.01868e-07
3.10547e-06
1.11044e-05
2.91435e-05
1.51237e-05
8.61256e-06
6.31608e-06
5.37953e-06
5.06872e-06
5.3316e-06
6.16188e-06
7.59482e-06
9.87155e-06
1.35069e-05
1.9039e-05
2.56067e-05
2.9757e-05
2.86011e-05
2.24054e-05
1.49194e-05
9.55828e-06
6.44192e-06
4.66211e-06
3.65964e-06
3.21308e-06
3.30864e-06
3.84334e-06
4.91031e-06
6.92986e-06
1.09857e-05
1.8946e-05
2.2383e-05
8.59998e-06
2.95262e-06
3.39496e-07
2.03592e-07
3.18322e-06