/*--------------------------------*- C++ -*----------------------------------*\
| =========                 |                                                 |
| \\      /  F ield         | OpenFOAM: The Open Source CFD Toolbox           |
|  \\    /   O peration     | Version:  v1906                                 |
|   \\  /    A nd           | Web:      www.OpenFOAM.com                      |
|    \\/     M anipulation  |                                                 |
\*---------------------------------------------------------------------------*/
FoamFile
{
    version     2.0;
    format      ascii;
    class       volScalarField;
    location    "9";
    object      nut;
}
// * * * * * * * * * * * * * * * * * * * * * * * * * * * * * * * * * * * * * //

dimensions      [0 2 -1 0 0 0 0];


internalField   nonuniform List<scalar> 
78750
(
1.6499e-06
4.73508e-06
1.65048e-05
1.29179e-05
1.23936e-05
1.29542e-05
1.26977e-05
1.27402e-05
1.2824e-05
1.28797e-05
1.26167e-05
1.22846e-05
1.19841e-05
1.1712e-05
1.14649e-05
1.12393e-05
1.10311e-05
1.08361e-05
1.06499e-05
1.04674e-05
1.02826e-05
1.00948e-05
9.88151e-06
9.63806e-06
9.35264e-06
9.0098e-06
8.58972e-06
8.06633e-06
7.40639e-06
6.5659e-06
5.4781e-06
3.67738e-06
2.01949e-06
8.43601e-07
2.07614e-08
1.73219e-07
7.19668e-06
1.74184e-05
2.80897e-05
2.88224e-05
2.97599e-05
3.25728e-05
3.51247e-05
3.71259e-05
3.85145e-05
3.91188e-05
3.92642e-05
3.93532e-05
3.94603e-05
3.95771e-05
3.96977e-05
3.98217e-05
4.00186e-05
4.03946e-05
4.09251e-05
4.14762e-05
4.18531e-05
4.19742e-05
4.18948e-05
4.1435e-05
4.03274e-05
3.83156e-05
3.51354e-05
3.06819e-05
2.51953e-05
1.93802e-05
1.42778e-05
1.06485e-05
5.67622e-06
7.37874e-08
2.36574e-07
8.54678e-06
1.21973e-05
1.27468e-05
1.32904e-05
1.44826e-05
1.6113e-05
1.80224e-05
2.05506e-05
2.52623e-05
3.46592e-05
3.75181e-05
3.72161e-05
3.70621e-05
3.70751e-05
3.72555e-05
3.75952e-05
3.80812e-05
3.86989e-05
3.94168e-05
4.01983e-05
4.10125e-05
4.18236e-05
4.25877e-05
3.87156e-05
3.58402e-05
3.31378e-05
2.9915e-05
2.62796e-05
2.2443e-05
1.8758e-05
1.56451e-05
1.26848e-05
4.68929e-06
9.09152e-08
2.35739e-07
1.25905e-05
1.48396e-05
1.47443e-05
1.59993e-05
1.83304e-05
2.14386e-05
2.53947e-05
3.22508e-05
4.48808e-05
4.52438e-05
4.38944e-05
4.26034e-05
4.15168e-05
4.07068e-05
4.01936e-05
3.99795e-05
4.00481e-05
4.03692e-05
4.09015e-05
4.15994e-05
4.24188e-05
4.27485e-05
3.99164e-05
3.73844e-05
3.47554e-05
3.16966e-05
2.83416e-05
2.48636e-05
2.15442e-05
1.88349e-05
1.71856e-05
1.59303e-05
5.44713e-06
1.07502e-07
2.45026e-07
8.50453e-06
1.79368e-05
1.6832e-05
1.75182e-05
1.92771e-05
2.15044e-05
2.34779e-05
2.45748e-05
2.50034e-05
2.59329e-05
2.97567e-05
3.38556e-05
3.27777e-05
3.22113e-05
3.21194e-05
3.24293e-05
3.30627e-05
3.3951e-05
3.50372e-05
3.62708e-05
3.75997e-05
3.89572e-05
3.87779e-05
3.36144e-05
3.09868e-05
2.89886e-05
2.65924e-05
2.41005e-05
2.18825e-05
2.02633e-05
1.92675e-05
1.58121e-05
4.39468e-06
1.06648e-07
2.19206e-07
7.59164e-06
1.99389e-05
1.60695e-05
1.51295e-05
1.57601e-05
1.70731e-05
1.84524e-05
1.95318e-05
2.02279e-05
2.12711e-05
2.47318e-05
2.98481e-05
2.8582e-05
2.77311e-05
2.73302e-05
2.7365e-05
2.77969e-05
2.85731e-05
2.96346e-05
3.07239e-05
2.67851e-05
2.51698e-05
2.47847e-05
2.43893e-05
2.37877e-05
2.29686e-05
2.19482e-05
2.09037e-05
2.01729e-05
2.01459e-05
2.0754e-05
1.79431e-05
4.58054e-06
1.00098e-07
2.00185e-07
5.94252e-06
2.15919e-05
1.82978e-05
1.62281e-05
1.59689e-05
1.66296e-05
1.75589e-05
1.83407e-05
1.85767e-05
1.80726e-05
1.71488e-05
1.68164e-05
1.83985e-05
2.03538e-05
1.97029e-05
1.98759e-05
2.0783e-05
2.2234e-05
2.40172e-05
2.35389e-05
2.19076e-05
2.21487e-05
2.31312e-05
2.37335e-05
2.35885e-05
2.28586e-05
2.18938e-05
2.1125e-05
2.08925e-05
2.12594e-05
2.16218e-05
1.644e-05
4.1569e-06
9.14857e-08
1.74538e-07
5.28643e-06
2.24157e-05
1.85528e-05
1.47061e-05
1.3034e-05
1.2208e-05
1.13998e-05
1.04808e-05
9.52224e-06
8.20863e-06
6.06336e-06
3.68763e-06
1.90085e-06
7.83315e-07
3.54405e-07
9.69287e-07
2.33679e-06
3.6656e-06
5.02932e-06
6.67275e-06
8.54678e-06
1.02368e-05
1.14088e-05
1.22234e-05
1.31151e-05
1.43404e-05
1.58444e-05
1.74099e-05
1.90364e-05
2.0919e-05
2.24231e-05
1.68065e-05
4.05408e-06
7.78076e-08
1.61814e-07
4.81563e-06
2.06081e-05
1.90054e-05
1.4538e-05
1.21106e-05
1.10205e-05
1.01804e-05
7.69475e-06
3.74808e-06
1.07336e-06
5.08366e-08
2.32251e-07
7.27028e-08
1.8107e-07
4.8692e-08
6.22944e-07
3.69931e-07
2.69585e-07
6.25884e-07
7.70273e-08
3.54908e-07
1.57398e-06
3.58957e-06
6.62888e-06
1.09088e-05
1.43568e-05
1.48244e-05
1.49921e-05
1.66002e-05
1.9487e-05
2.1897e-05
1.70864e-05
4.2197e-06
6.94084e-08
1.67596e-07
4.49798e-06
1.9163e-05
1.62938e-05
1.15751e-05
8.64244e-06
5.69091e-06
2.52273e-06
4.52155e-07
9.9075e-08
2.48972e-07
1.47148e-07
3.07266e-07
1.83005e-06
4.039e-06
6.30055e-06
7.80712e-06
8.08981e-06
7.20304e-06
5.60153e-06
3.74422e-06
1.95969e-06
4.78941e-07
2.26864e-07
5.17397e-07
2.57703e-07
9.59888e-07
3.25753e-06
7.44772e-06
1.27054e-05
1.67477e-05
1.93979e-05
1.66632e-05
4.23391e-06
7.54223e-08
1.83069e-07
4.11851e-06
1.65132e-05
1.49804e-05
9.73771e-06
5.36088e-06
1.95123e-06
3.5707e-08
2.86555e-07
9.36062e-08
3.21803e-07
2.44544e-06
6.28985e-06
1.10974e-05
1.56242e-05
1.90366e-05
2.10046e-05
2.14441e-05
2.0462e-05
1.82633e-05
1.50273e-05
1.10097e-05
6.80634e-06
3.21774e-06
8.60964e-07
2.6175e-07
3.09159e-07
5.89345e-07
1.60278e-06
5.39164e-06
1.10174e-05
1.53188e-05
1.38527e-05
3.87795e-06
8.71244e-08
1.93606e-07
3.67666e-06
1.43861e-05
1.12719e-05
5.41818e-06
1.85171e-06
6.42613e-08
2.5776e-07
3.36434e-07
3.86053e-07
2.83169e-06
6.5868e-06
1.05205e-05
1.3907e-05
1.66302e-05
1.86544e-05
1.9876e-05
2.02091e-05
1.96549e-05
1.83074e-05
1.62956e-05
1.37036e-05
1.05472e-05
6.94909e-06
3.49032e-06
1.0022e-06
4.41642e-07
2.66561e-07
1.92276e-07
1.26816e-06
4.71202e-06
1.04466e-05
1.10428e-05
3.17113e-06
9.12524e-08
2.04005e-07
3.31319e-06
1.23459e-05
8.66249e-06
3.21356e-06
7.2195e-07
2.41012e-07
1.61971e-07
2.14511e-07
2.32304e-06
5.97493e-06
1.04275e-05
1.49625e-05
1.9143e-05
2.26239e-05
2.50957e-05
2.63998e-05
2.65407e-05
2.56304e-05
2.38395e-05
2.13662e-05
1.84074e-05
1.51014e-05
1.14678e-05
7.52891e-06
3.77311e-06
1.12618e-06
1.48706e-07
8.06431e-08
7.43411e-08
1.62464e-06
6.00147e-06
8.71232e-06
2.73483e-06
9.59191e-08
2.04784e-07
2.94349e-06
1.08999e-05
5.6381e-06
1.51285e-06
3.44637e-07
2.08653e-07
7.69216e-08
1.43855e-06
4.51097e-06
8.92628e-06
1.37705e-05
1.82484e-05
2.19572e-05
2.46931e-05
2.63626e-05
2.69786e-05
2.66399e-05
2.5501e-05
2.37412e-05
2.15331e-05
1.90241e-05
1.63182e-05
1.34545e-05
1.03811e-05
7.01356e-06
3.62975e-06
1.09066e-06
2.00055e-09
1.29656e-07
1.84234e-07
2.30993e-06
6.91668e-06
2.32515e-06
1.02411e-07
1.94328e-07
2.64066e-06
9.52177e-06
4.53305e-06
1.02553e-06
4.57899e-08
1.99332e-07
3.37459e-07
2.3008e-06
6.02122e-06
1.09484e-05
1.60947e-05
2.07461e-05
2.4564e-05
2.73237e-05
2.88861e-05
2.92704e-05
2.86327e-05
2.71887e-05
2.5161e-05
2.27495e-05
2.01065e-05
1.73365e-05
1.44906e-05
1.15723e-05
8.56631e-06
5.49496e-06
2.64424e-06
6.63297e-07
3.13359e-07
2.97766e-07
1.02068e-06
5.27412e-06
2.03977e-06
1.15378e-07
1.72675e-07
2.38821e-06
8.49815e-06
3.28605e-06
6.02656e-07
3.05474e-07
1.23783e-07
1.22695e-06
4.12058e-06
8.69644e-06
1.39047e-05
1.87072e-05
2.27664e-05
2.59989e-05
2.82835e-05
2.95144e-05
2.96819e-05
2.8912e-05
2.73964e-05
2.53401e-05
2.29301e-05
2.03201e-05
1.76184e-05
1.48764e-05
1.20963e-05
9.27845e-06
6.48136e-06
3.84656e-06
1.66516e-06
3.5957e-07
2.52743e-07
4.76618e-07
3.79655e-06
1.84656e-06
1.30627e-07
1.54498e-07
2.23685e-06
7.60761e-06
2.14333e-06
1.58789e-07
1.84472e-07
5.82382e-07
2.70293e-06
6.48349e-06
1.09759e-05
1.51423e-05
1.87977e-05
2.21146e-05
2.50983e-05
2.7572e-05
2.9257e-05
2.99644e-05
2.96511e-05
2.83939e-05
2.63499e-05
2.37244e-05
2.07464e-05
1.76151e-05
1.44453e-05
1.1286e-05
8.2215e-06
5.43483e-06
3.12201e-06
1.40524e-06
3.66742e-07
4.6885e-08
4.99264e-07
4.20754e-06
1.69126e-06
1.38319e-07
1.4706e-07
2.18795e-06
6.16491e-06
9.40168e-07
2.3261e-07
5.74211e-07
2.53498e-06
6.08501e-06
1.00475e-05
1.3373e-05
1.61723e-05
1.88287e-05
2.15037e-05
2.40916e-05
2.64073e-05
2.82431e-05
2.9387e-05
2.96487e-05
2.88984e-05
2.71167e-05
2.44403e-05
2.11647e-05
1.76153e-05
1.39883e-05
1.03947e-05
7.04219e-06
4.25594e-06
2.23746e-06
9.35735e-07
2.13873e-07
5.52008e-08
8.00048e-07
5.39559e-06
1.49757e-06
1.24375e-07
1.54036e-07
2.163e-06
3.13017e-06
5.23629e-07
7.26668e-07
2.39241e-06
5.43037e-06
8.60079e-06
1.10151e-05
1.30166e-05
1.50781e-05
1.73676e-05
1.98298e-05
2.23453e-05
2.47821e-05
2.69663e-05
2.86468e-05
2.94904e-05
2.91384e-05
2.73652e-05
2.43006e-05
2.04811e-05
1.64669e-05
1.25107e-05
8.72628e-06
5.38667e-06
2.86016e-06
1.2563e-06
4.4933e-07
1.82546e-07
3.59345e-07
1.79907e-06
4.0053e-06
1.32927e-06
9.69429e-08
1.77068e-07
2.6878e-06
2.44219e-06
1.35258e-06
2.50574e-06
5.09169e-06
7.90773e-06
9.82335e-06
1.12092e-05
1.26547e-05
1.44257e-05
1.6579e-05
1.90304e-05
2.16192e-05
2.41782e-05
2.65237e-05
2.84017e-05
2.9439e-05
2.91792e-05
2.73198e-05
2.40878e-05
2.02365e-05
1.63943e-05
1.26848e-05
9.04572e-06
5.66828e-06
2.98476e-06
1.22787e-06
3.4444e-07
1.23483e-07
4.66622e-07
2.52831e-06
3.37706e-06
1.24521e-06
7.4312e-08
2.14901e-07
3.39443e-06
3.16002e-06
2.50127e-06
4.12439e-06
6.6028e-06
8.388e-06
9.31672e-06
1.00524e-05
1.10687e-05
1.26268e-05
1.48179e-05
1.75437e-05
2.05622e-05
2.35818e-05
2.62909e-05
2.83448e-05
2.93233e-05
2.87701e-05
2.64971e-05
2.29915e-05
1.92168e-05
1.58101e-05
1.27835e-05
9.84926e-06
6.86116e-06
4.07159e-06
1.91936e-06
6.06356e-07
6.58778e-08
2.05705e-07
1.57144e-06
2.85189e-06
1.11215e-06
6.18959e-08
2.35428e-07
3.12899e-06
5.03668e-06
3.26277e-06
4.59472e-06
6.75285e-06
8.16719e-06
8.55068e-06
8.66344e-06
9.14301e-06
1.03792e-05
1.25728e-05
1.56815e-05
1.94043e-05
2.32315e-05
2.65418e-05
2.88001e-05
2.96402e-05
2.88266e-05
2.64028e-05
2.29168e-05
1.92488e-05
1.60371e-05
1.33998e-05
1.10935e-05
8.77556e-06
6.26589e-06
3.8087e-06
1.8807e-06
7.22353e-07
2.78238e-07
6.57844e-07
2.75869e-06
1.01696e-06
5.57878e-08
2.09966e-07
2.54894e-06
1.14076e-05
4.79586e-06
4.94857e-06
6.36962e-06
7.45637e-06
7.46719e-06
6.90797e-06
6.68735e-06
7.36647e-06
9.21358e-06
1.22979e-05
1.6483e-05
2.13095e-05
2.58098e-05
2.88726e-05
2.99231e-05
2.89664e-05
2.63635e-05
2.27824e-05
1.9072e-05
1.58536e-05
1.33191e-05
1.13341e-05
9.61586e-06
7.8346e-06
5.78658e-06
3.69731e-06
2.05467e-06
1.141e-06
1.0446e-06
3.27415e-06
1.21248e-06
5.36373e-08
1.67168e-07
2.14173e-06
9.68726e-06
8.27174e-06
6.22795e-06
6.49593e-06
6.96313e-06
6.72441e-06
5.85855e-06
5.21252e-06
5.50946e-06
7.01413e-06
9.78788e-06
1.37766e-05
1.87671e-05
2.40425e-05
2.82011e-05
3.00868e-05
2.95858e-05
2.72185e-05
2.36998e-05
1.98631e-05
1.64231e-05
1.37064e-05
1.1674e-05
1.01083e-05
8.70936e-06
7.17325e-06
5.37255e-06
3.60445e-06
2.38117e-06
2.02089e-06
3.92558e-06
1.9198e-06
5.40814e-08
1.40054e-07
1.95376e-06
7.07845e-06
1.29427e-05
8.38189e-06
7.23863e-06
6.85122e-06
5.99506e-06
4.72558e-06
3.95116e-06
4.30993e-06
5.88271e-06
8.61197e-06
1.23615e-05
1.69768e-05
2.21266e-05
2.6793e-05
2.95225e-05
2.96584e-05
2.75697e-05
2.40312e-05
1.99947e-05
1.63287e-05
1.3465e-05
1.13954e-05
9.91449e-06
8.74309e-06
7.57648e-06
6.19329e-06
4.66202e-06
3.44038e-06
3.0393e-06
5.07601e-06
2.79941e-06
5.72271e-08
1.32563e-07
1.93145e-06
6.55899e-06
1.54013e-05
1.05046e-05
7.91999e-06
6.35134e-06
4.71054e-06
3.43018e-06
3.13044e-06
4.04683e-06
6.08552e-06
9.05996e-06
1.27189e-05
1.6944e-05
2.16387e-05
2.61461e-05
2.91448e-05
2.96961e-05
2.78704e-05
2.4326e-05
2.00818e-05
1.61909e-05
1.31969e-05
1.10957e-05
9.6641e-06
8.62357e-06
7.67513e-06
6.56798e-06
5.29054e-06
4.2133e-06
3.92949e-06
6.45778e-06
3.39042e-06
6.28898e-08
1.37123e-07
1.99107e-06
6.59335e-06
1.60409e-05
1.15279e-05
7.46928e-06
4.87462e-06
3.19936e-06
2.55921e-06
3.03714e-06
4.61742e-06
7.08538e-06
1.01071e-05
1.34623e-05
1.72456e-05
2.15565e-05
2.58498e-05
2.88087e-05
2.93637e-05
2.74197e-05
2.36025e-05
1.91016e-05
1.51271e-05
1.21951e-05
1.02128e-05
8.91776e-06
8.0417e-06
7.31654e-06
6.50701e-06
5.56662e-06
4.76486e-06
4.79536e-06
8.442e-06
3.4585e-06
7.06789e-08
1.46064e-07
2.05634e-06
6.70621e-06
1.5623e-05
1.00824e-05
5.47288e-06
3.17207e-06
2.26304e-06
2.45389e-06
3.69804e-06
5.8383e-06
8.5141e-06
1.13899e-05
1.4481e-05
1.80777e-05
2.22674e-05
2.63591e-05
2.89691e-05
2.91196e-05
2.67508e-05
2.25434e-05
1.78664e-05
1.3967e-05
1.12167e-05
9.41454e-06
8.27291e-06
7.53746e-06
6.96986e-06
6.37051e-06
5.70408e-06
5.1815e-06
5.6448e-06
1.08107e-05
3.33081e-06
7.98375e-08
1.53126e-07
2.05006e-06
6.56481e-06
1.41634e-05
7.1591e-06
3.47395e-06
2.15017e-06
2.07757e-06
2.98784e-06
4.81192e-06
7.20777e-06
9.75708e-06
1.23386e-05
1.52079e-05
1.87277e-05
2.28842e-05
2.67899e-05
2.897e-05
2.85355e-05
2.5533e-05
2.08608e-05
1.61282e-05
1.24614e-05
9.9892e-06
8.412e-06
7.44663e-06
6.87615e-06
6.50728e-06
6.17941e-06
5.81758e-06
5.63031e-06
6.66909e-06
1.32572e-05
3.12691e-06
8.96347e-08
1.54901e-07
1.94773e-06
6.14126e-06
1.111e-05
4.42006e-06
2.2562e-06
1.86215e-06
2.47936e-06
3.96032e-06
6.0975e-06
8.42992e-06
1.06916e-05
1.30362e-05
1.58511e-05
1.94734e-05
2.37134e-05
2.74083e-05
2.90401e-05
2.79023e-05
2.42327e-05
1.9216e-05
1.45874e-05
1.1221e-05
9.02396e-06
7.64521e-06
6.81917e-06
6.36443e-06
6.13567e-06
6.01543e-06
5.90491e-06
6.07143e-06
7.76429e-06
1.44051e-05
2.92141e-06
9.92699e-08
1.51548e-07
1.78152e-06
5.55344e-06
7.42248e-06
2.80991e-06
1.84985e-06
2.15649e-06
3.29422e-06
5.11734e-06
7.24312e-06
9.27319e-06
1.12115e-05
1.33798e-05
1.61881e-05
1.99069e-05
2.41968e-05
2.76858e-05
2.88258e-05
2.70305e-05
2.27423e-05
1.74997e-05
1.30671e-05
1.00132e-05
8.07181e-06
6.87854e-06
6.19821e-06
5.88611e-06
5.8388e-06
5.92478e-06
6.05777e-06
6.60222e-06
9.01402e-06
1.39103e-05
2.71984e-06
1.08089e-07
1.46574e-07
1.6691e-06
5.40273e-06
5.04243e-06
2.29345e-06
2.11452e-06
2.92001e-06
4.38091e-06
6.2524e-06
8.1033e-06
9.77202e-06
1.14624e-05
1.35474e-05
1.64145e-05
2.02656e-05
2.46157e-05
2.79093e-05
2.86082e-05
2.62412e-05
2.14634e-05
1.61262e-05
1.19141e-05
9.11927e-06
7.36821e-06
6.30326e-06
5.71934e-06
5.50744e-06
5.60234e-06
5.84847e-06
6.2066e-06
7.14093e-06
1.02898e-05
1.25652e-05
2.54984e-06
1.15829e-07
1.432e-07
1.73015e-06
6.40483e-06
4.52687e-06
2.65492e-06
2.90258e-06
3.98539e-06
5.49533e-06
7.13233e-06
8.60279e-06
9.9556e-06
1.14669e-05
1.34914e-05
1.63855e-05
2.03077e-05
2.46843e-05
2.78566e-05
2.82518e-05
2.54216e-05
2.02431e-05
1.48768e-05
1.08796e-05
8.30772e-06
6.72112e-06
5.77752e-06
5.29836e-06
5.20429e-06
5.43514e-06
5.82847e-06
6.40588e-06
7.74341e-06
1.16279e-05
1.11077e-05
2.40935e-06
1.22236e-07
1.43001e-07
2.02183e-06
9.21641e-06
5.31629e-06
3.5886e-06
3.97683e-06
5.08579e-06
6.39894e-06
7.68947e-06
8.82851e-06
9.96035e-06
1.1359e-05
1.33492e-05
1.62695e-05
2.02569e-05
2.46689e-05
2.77812e-05
2.79865e-05
2.48341e-05
1.93838e-05
1.40135e-05
1.0159e-05
7.72048e-06
6.2256e-06
5.34934e-06
4.93632e-06
4.93528e-06
5.26761e-06
5.79117e-06
6.58361e-06
8.32747e-06
1.28656e-05
9.90798e-06
2.29975e-06
1.27226e-07
1.45856e-07
2.47765e-06
1.3319e-05
6.85501e-06
4.7927e-06
5.07522e-06
6.00897e-06
7.01438e-06
7.9709e-06
8.8475e-06
9.80859e-06
1.11014e-05
1.30249e-05
1.59086e-05
1.98988e-05
2.43565e-05
2.75252e-05
2.77005e-05
2.43663e-05
1.87296e-05
1.3352e-05
9.58975e-06
7.23768e-06
5.80297e-06
4.97299e-06
4.60962e-06
4.68472e-06
5.10146e-06
5.7468e-06
6.75216e-06
8.90284e-06
1.39611e-05
8.97254e-06
2.21301e-06
1.30758e-07
1.5127e-07
2.94318e-06
1.68833e-05
8.65501e-06
6.00472e-06
6.01475e-06
6.68264e-06
7.39365e-06
8.07301e-06
8.74984e-06
9.57254e-06
1.07606e-05
1.2595e-05
1.54042e-05
1.93627e-05
2.38846e-05
2.72201e-05
2.75594e-05
2.42671e-05
1.85512e-05
1.30933e-05
9.29829e-06
6.93332e-06
5.48946e-06
4.65478e-06
4.29848e-06
4.40624e-06
4.87786e-06
5.62653e-06
6.82962e-06
9.36358e-06
1.47861e-05
8.29304e-06
2.1473e-06
1.32952e-07
1.58646e-07
3.28174e-06
1.8713e-05
1.05065e-05
7.14584e-06
6.79423e-06
7.18595e-06
7.63348e-06
8.06443e-06
8.55569e-06
9.2296e-06
1.0281e-05
1.19734e-05
1.46322e-05
1.84823e-05
2.30698e-05
2.6706e-05
2.74319e-05
2.4414e-05
1.87313e-05
1.31472e-05
9.23095e-06
6.78401e-06
5.28117e-06
4.4005e-06
4.01098e-06
4.10617e-06
4.59827e-06
5.42232e-06
6.79371e-06
9.67085e-06
1.53521e-05
7.80411e-06
2.09776e-06
1.33964e-07
1.67368e-07
3.45724e-06
1.90471e-05
1.23652e-05
8.2209e-06
7.46209e-06
7.58504e-06
7.80339e-06
8.01253e-06
8.3272e-06
8.84538e-06
9.74034e-06
1.12563e-05
1.37097e-05
1.73772e-05
2.19873e-05
2.60072e-05
2.73438e-05
2.48946e-05
1.94162e-05
1.36418e-05
9.46685e-06
6.83618e-06
5.20745e-06
4.2291e-06
3.75622e-06
3.78065e-06
4.24287e-06
5.09132e-06
6.56605e-06
9.69568e-06
1.56415e-05
7.48545e-06
2.06318e-06
1.34037e-07
1.76456e-07
3.49346e-06
1.83399e-05
1.43652e-05
9.34462e-06
8.12315e-06
7.97837e-06
7.98415e-06
7.97163e-06
8.08146e-06
8.41562e-06
9.125e-06
1.04271e-05
1.26179e-05
1.60143e-05
2.05592e-05
2.49877e-05
2.71083e-05
2.5494e-05
2.04626e-05
1.4538e-05
1.00097e-05
7.10783e-06
5.29342e-06
4.17131e-06
3.56994e-06
3.46908e-06
3.84669e-06
4.65563e-06
6.14521e-06
9.39856e-06
1.57025e-05
7.30675e-06
2.04182e-06
1.33422e-07
1.84934e-07
3.43837e-06
1.70093e-05
1.66041e-05
1.06071e-05
8.83758e-06
8.40339e-06
8.20374e-06
7.98341e-06
7.86797e-06
8.00461e-06
8.51624e-06
9.5895e-06
1.14901e-05
1.455e-05
1.89052e-05
2.36651e-05
2.66529e-05
2.6095e-05
2.18085e-05
1.58561e-05
1.08996e-05
7.62936e-06
5.56517e-06
4.25599e-06
3.48721e-06
3.21353e-06
3.44944e-06
4.14572e-06
5.53842e-06
8.72307e-06
1.54911e-05
7.27279e-06
2.034e-06
1.32412e-07
1.91765e-07
3.33511e-06
1.54031e-05
1.91119e-05
1.21386e-05
9.70079e-06
8.92764e-06
8.5111e-06
8.08128e-06
7.71578e-06
7.62311e-06
7.91801e-06
8.75345e-06
1.03533e-05
1.3034e-05
1.70761e-05
2.20164e-05
2.58583e-05
2.64718e-05
2.31975e-05
1.74747e-05
1.21158e-05
8.40357e-06
6.03368e-06
4.50458e-06
3.54471e-06
3.07338e-06
3.11927e-06
3.64413e-06
4.8436e-06
7.75395e-06
1.48951e-05
7.38411e-06
2.03952e-06
1.31272e-07
1.96339e-07
3.21336e-06
1.3831e-05
2.16332e-05
1.40131e-05
1.07696e-05
9.56976e-06
8.90297e-06
8.26122e-06
7.65353e-06
7.30907e-06
7.38378e-06
7.99108e-06
9.30706e-06
1.16087e-05
1.52491e-05
2.01596e-05
2.47259e-05
2.65316e-05
2.44412e-05
1.92477e-05
1.36051e-05
9.40782e-06
6.6858e-06
4.91483e-06
3.75441e-06
3.08135e-06
2.90577e-06
3.2274e-06
4.1757e-06
6.64762e-06
1.37398e-05
7.70033e-06
2.0634e-06
1.30403e-07
1.9844e-07
3.08799e-06
1.24284e-05
2.36393e-05
1.62541e-05
1.2112e-05
1.03718e-05
9.39966e-06
8.52911e-06
7.68318e-06
7.06846e-06
6.91221e-06
7.30123e-06
8.36255e-06
1.03188e-05
1.35297e-05
1.82135e-05
2.32881e-05
2.62215e-05
2.53561e-05
2.09388e-05
1.52192e-05
1.05645e-05
7.46744e-06
5.44864e-06
4.09599e-06
3.23187e-06
2.83643e-06
2.94961e-06
3.63775e-06
5.62107e-06
1.20652e-05
8.28029e-06
2.10843e-06
1.3011e-07
1.9856e-07
2.96974e-06
1.12511e-05
2.46726e-05
1.86912e-05
1.3715e-05
1.13238e-05
9.97018e-06
8.84021e-06
7.76194e-06
6.89965e-06
6.51471e-06
6.71167e-06
7.56385e-06
9.23434e-06
1.20489e-05
1.63837e-05
2.16933e-05
2.55995e-05
2.59137e-05
2.23969e-05
1.68113e-05
1.17743e-05
8.29747e-06
6.03567e-06
4.51562e-06
3.49387e-06
2.90984e-06
2.82488e-06
3.27316e-06
4.80713e-06
1.02333e-05
9.21247e-06
2.17827e-06
1.30536e-07
1.97519e-07
2.86486e-06
1.02984e-05
2.47311e-05
2.10374e-05
1.55182e-05
1.24109e-05
1.05985e-05
9.16928e-06
7.8557e-06
6.77377e-06
6.17209e-06
6.20539e-06
6.89365e-06
8.34455e-06
1.08339e-05
1.4797e-05
2.01106e-05
2.47595e-05
2.61323e-05
2.35095e-05
1.82142e-05
1.29085e-05
9.08354e-06
6.59681e-06
4.94057e-06
3.80705e-06
3.08944e-06
2.83314e-06
3.08495e-06
4.26468e-06
8.72277e-06
1.05553e-05
2.27491e-06
1.31825e-07
1.9634e-07
2.77781e-06
9.55802e-06
2.41658e-05
2.29953e-05
1.73469e-05
1.35461e-05
1.12157e-05
9.44596e-06
7.8946e-06
6.62809e-06
5.86023e-06
5.77603e-06
6.35574e-06
7.65979e-06
9.91546e-06
1.35612e-05
1.87431e-05
2.38723e-05
2.61224e-05
2.42973e-05
1.9349e-05
1.38698e-05
9.7483e-06
7.066e-06
5.30483e-06
4.10293e-06
3.30535e-06
2.92748e-06
3.03483e-06
3.95777e-06
7.6885e-06
1.22622e-05
2.39526e-06
1.34191e-07
1.95787e-07
2.70854e-06
8.99453e-06
2.33564e-05
2.4435e-05
1.90231e-05
1.46343e-05
1.17552e-05
9.6185e-06
7.83859e-06
6.43178e-06
5.56439e-06
5.40841e-06
5.92893e-06
7.14609e-06
9.2494e-06
1.26623e-05
1.76781e-05
2.30714e-05
2.59762e-05
2.47849e-05
2.01481e-05
1.45672e-05
1.02236e-05
7.39355e-06
5.56294e-06
4.32952e-06
3.50226e-06
3.06247e-06
3.08191e-06
3.83864e-06
7.10699e-06
1.40416e-05
2.52676e-06
1.37756e-07
1.96371e-07
2.65531e-06
8.57285e-06
2.25467e-05
2.53797e-05
2.03848e-05
1.55255e-05
1.21096e-05
9.61472e-06
7.64134e-06
6.15367e-06
5.26082e-06
5.09137e-06
5.60429e-06
6.78979e-06
8.81505e-06
1.20893e-05
1.69736e-05
2.2482e-05
2.5809e-05
2.50608e-05
2.06401e-05
1.49828e-05
1.04868e-05
7.56366e-06
5.69927e-06
4.46484e-06
3.64354e-06
3.1937e-06
3.17874e-06
3.84722e-06
6.86609e-06
1.55109e-05
2.65275e-06
1.42541e-07
1.98203e-07
2.61391e-06
8.25292e-06
2.18368e-05
2.59472e-05
2.1359e-05
1.61132e-05
1.22128e-05
9.41118e-06
7.3083e-06
5.80899e-06
4.95541e-06
4.82724e-06
5.37189e-06
6.56437e-06
8.56522e-06
1.17779e-05
1.65884e-05
2.21307e-05
2.56735e-05
2.51621e-05
2.08226e-05
1.50942e-05
1.05258e-05
7.57532e-06
5.71508e-06
4.50495e-06
3.71854e-06
3.29911e-06
3.29466e-06
3.94561e-06
6.88993e-06
1.64288e-05
2.75723e-06
1.48372e-07
2.01034e-07
2.57985e-06
7.99999e-06
2.12435e-05
2.6259e-05
2.19406e-05
1.63359e-05
1.20328e-05
9.01057e-06
6.86491e-06
5.42596e-06
4.66416e-06
4.6173e-06
5.21944e-06
6.44574e-06
8.46467e-06
1.16834e-05
1.64852e-05
2.20212e-05
2.5609e-05
2.51418e-05
2.07503e-05
1.49515e-05
1.03836e-05
7.46263e-06
5.6361e-06
4.46499e-06
3.72834e-06
3.36769e-06
3.40759e-06
4.09438e-06
7.09906e-06
1.68106e-05
2.83209e-06
1.54958e-07
2.04296e-07
2.54762e-06
7.77948e-06
2.07324e-05
2.63986e-05
2.21583e-05
1.61894e-05
1.15896e-05
8.46859e-06
6.37478e-06
5.05345e-06
4.41214e-06
4.46284e-06
5.13098e-06
6.4045e-06
8.47043e-06
1.17471e-05
1.65939e-05
2.21039e-05
2.56019e-05
2.50034e-05
2.04391e-05
1.45889e-05
1.00979e-05
7.26063e-06
5.4939e-06
4.37117e-06
3.68919e-06
3.40113e-06
3.50881e-06
4.27469e-06
7.4421e-06
1.67571e-05
2.87701e-06
1.62047e-07
2.07133e-07
2.51201e-06
7.56154e-06
2.02457e-05
2.64178e-05
2.20753e-05
1.5737e-05
1.09612e-05
7.86179e-06
5.8921e-06
4.71725e-06
4.20118e-06
4.34843e-06
5.08299e-06
6.41388e-06
8.55338e-06
1.19371e-05
1.68798e-05
2.23522e-05
2.56427e-05
2.47533e-05
1.99308e-05
1.40756e-05
9.72956e-06
7.01492e-06
5.32453e-06
4.25283e-06
3.62151e-06
3.40496e-06
3.58862e-06
4.46104e-06
7.86048e-06
1.63912e-05
2.89932e-06
1.69572e-07
2.08631e-07
2.46957e-06
7.32736e-06
1.97325e-05
2.63362e-05
2.17466e-05
1.50631e-05
1.02392e-05
7.25889e-06
5.45391e-06
4.42897e-06
4.02805e-06
4.2631e-06
5.06316e-06
6.46166e-06
8.699e-06
1.22317e-05
1.73131e-05
2.27288e-05
2.56963e-05
2.43687e-05
1.92436e-05
1.34554e-05
9.31469e-06
6.75349e-06
5.15349e-06
4.13565e-06
3.54909e-06
3.39421e-06
3.64923e-06
4.63843e-06
8.30604e-06
1.58324e-05
2.90713e-06
1.77786e-07
2.08013e-07
2.41956e-06
7.07044e-06
1.91553e-05
2.615e-05
2.12212e-05
1.42555e-05
9.4968e-06
6.69547e-06
5.06441e-06
4.17601e-06
3.87671e-06
4.19311e-06
5.06327e-06
6.54495e-06
8.90878e-06
1.2635e-05
1.78916e-05
2.32101e-05
2.57255e-05
2.38306e-05
1.84081e-05
1.27692e-05
8.88031e-06
6.49376e-06
4.99687e-06
4.03801e-06
3.49177e-06
3.38343e-06
3.69546e-06
4.79577e-06
8.73352e-06
1.52192e-05
2.90946e-06
1.87264e-07
2.05098e-07
2.36398e-06
6.80087e-06
1.85138e-05
2.58293e-05
2.0497e-05
1.33465e-05
8.75121e-06
6.16292e-06
4.70191e-06
3.93852e-06
3.74093e-06
4.14641e-06
5.10352e-06
6.6936e-06
9.22126e-06
1.31899e-05
1.86385e-05
2.37698e-05
2.56752e-05
2.31023e-05
1.74252e-05
1.20165e-05
8.41667e-06
6.22558e-06
4.85071e-06
3.96614e-06
3.4673e-06
3.39422e-06
3.74682e-06
4.94605e-06
9.14804e-06
1.46313e-05
2.91039e-06
1.98535e-07
2.00391e-07
2.3087e-06
6.54356e-06
1.78618e-05
2.53401e-05
1.95287e-05
1.23231e-05
7.98322e-06
5.63412e-06
4.34362e-06
3.70824e-06
3.63168e-06
4.14603e-06
5.21356e-06
6.94231e-06
9.67668e-06
1.39339e-05
1.95545e-05
2.43512e-05
2.54791e-05
2.21596e-05
1.6306e-05
1.11997e-05
7.91488e-06
5.93515e-06
4.70139e-06
3.91224e-06
3.48044e-06
3.44126e-06
3.82563e-06
5.11847e-06
9.60301e-06
1.40692e-05
2.9082e-06
2.11729e-07
1.94959e-07
2.25999e-06
6.32789e-06
1.72944e-05
2.46465e-05
1.82226e-05
1.11431e-05
7.16409e-06
5.08819e-06
3.98404e-06
3.49886e-06
3.57751e-06
4.22964e-06
5.43624e-06
7.33933e-06
1.03327e-05
1.49186e-05
2.0633e-05
2.48833e-05
2.50712e-05
2.09795e-05
1.50496e-05
1.03104e-05
7.36151e-06
5.60781e-06
4.53517e-06
3.86786e-06
3.53215e-06
3.53881e-06
3.95942e-06
5.3589e-06
1.0193e-05
1.34743e-05
2.89869e-06
2.26359e-07
1.8995e-07
2.22256e-06
6.17762e-06
1.69132e-05
2.37324e-05
1.65451e-05
9.81687e-06
6.30296e-06
4.53778e-06
3.64835e-06
3.34543e-06
3.61225e-06
4.42767e-06
5.79834e-06
7.91332e-06
1.12226e-05
1.61429e-05
2.17926e-05
2.52595e-05
2.43897e-05
1.95559e-05
1.3675e-05
9.3615e-06
6.75951e-06
5.23939e-06
4.34265e-06
3.82345e-06
3.61636e-06
3.69489e-06
4.17594e-06
5.73017e-06
1.10546e-05
1.27996e-05
2.88082e-06
2.4121e-07
1.86214e-07
2.19966e-06
6.11048e-06
1.68093e-05
2.25345e-05
1.45134e-05
8.40701e-06
5.45531e-06
4.03354e-06
3.38878e-06
3.30063e-06
3.77553e-06
4.76529e-06
6.31509e-06
8.67536e-06
1.23431e-05
1.75578e-05
2.29171e-05
2.53956e-05
2.34013e-05
1.79132e-05
1.22296e-05
8.38604e-06
6.12961e-06
4.84154e-06
4.12858e-06
3.78171e-06
3.73007e-06
3.91149e-06
4.49516e-06
6.29819e-06
1.23346e-05
1.20187e-05
2.8523e-06
2.54522e-07
1.83993e-07
2.19112e-06
6.13124e-06
1.70388e-05
2.09507e-05
1.23147e-05
7.06992e-06
4.71987e-06
3.65198e-06
3.26249e-06
3.40333e-06
4.07315e-06
5.22492e-06
6.95652e-06
9.58908e-06
1.36311e-05
1.90311e-05
2.38606e-05
2.52322e-05
2.21072e-05
1.61332e-05
1.08016e-05
7.44061e-06
5.50899e-06
4.43847e-06
3.90683e-06
3.75134e-06
3.86869e-06
4.18515e-06
4.93001e-06
7.11433e-06
1.41175e-05
1.11627e-05
2.81157e-06
2.64627e-07
1.82987e-07
2.19577e-06
6.23957e-06
1.76111e-05
1.89272e-05
1.02538e-05
5.97349e-06
4.18595e-06
3.44469e-06
3.2893e-06
3.64076e-06
4.46713e-06
5.75698e-06
7.67208e-06
1.0603e-05
1.50038e-05
2.04387e-05
2.45489e-05
2.47648e-05
2.05576e-05
1.43443e-05
9.48639e-06
6.58082e-06
4.93413e-06
4.05708e-06
3.69765e-06
3.73802e-06
4.02844e-06
4.51246e-06
5.49495e-06
8.21829e-06
1.6282e-05
1.03228e-05
2.76282e-06
2.70603e-07
1.82588e-07
2.21248e-06
6.43395e-06
1.84852e-05
1.66721e-05
8.60581e-06
5.21929e-06
3.89077e-06
3.4154e-06
3.44643e-06
3.95667e-06
4.89236e-06
6.29533e-06
8.39388e-06
1.16298e-05
1.63377e-05
2.16533e-05
2.49496e-05
2.40289e-05
1.88966e-05
1.27201e-05
8.37689e-06
5.85599e-06
4.43645e-06
3.71695e-06
3.51165e-06
3.73178e-06
4.19525e-06
4.87917e-06
6.18725e-06
9.5968e-06
1.83827e-05
9.57928e-06
2.71218e-06
2.72873e-07
1.82129e-07
2.24013e-06
6.7081e-06
1.95286e-05
1.46344e-05
7.48492e-06
4.79839e-06
3.8051e-06
3.51821e-06
3.67584e-06
4.27986e-06
5.2824e-06
6.78243e-06
9.06478e-06
1.25979e-05
1.75523e-05
2.26375e-05
2.51022e-05
2.31141e-05
1.73141e-05
1.13822e-05
7.50887e-06
5.2865e-06
4.03428e-06
3.43078e-06
3.35332e-06
3.71695e-06
4.34432e-06
5.25298e-06
6.95915e-06
1.11434e-05
1.98494e-05
8.97663e-06
2.66643e-06
2.72972e-07
1.8113e-07
2.27804e-06
7.04915e-06
2.05575e-05
1.31605e-05
6.8501e-06
4.6427e-06
3.86569e-06
3.68709e-06
3.91295e-06
4.5554e-06
5.59957e-06
7.18862e-06
9.64797e-06
1.34536e-05
1.85922e-05
2.33874e-05
2.50604e-05
2.21458e-05
1.59682e-05
1.03682e-05
6.87314e-06
4.86706e-06
3.72891e-06
3.1993e-06
3.21033e-06
3.67437e-06
4.44797e-06
5.59248e-06
7.72988e-06
1.26644e-05
2.04851e-05
8.52416e-06
2.63062e-06
2.72731e-07
1.79403e-07
2.3243e-06
7.43265e-06
2.14556e-05
1.23234e-05
6.59401e-06
4.66915e-06
4.00393e-06
3.86322e-06
4.10751e-06
4.75847e-06
5.8334e-06
7.50308e-06
1.01214e-05
1.41636e-05
1.94405e-05
2.39372e-05
2.4904e-05
2.12593e-05
1.49328e-05
9.6521e-06
6.4364e-06
4.58004e-06
3.51457e-06
3.02175e-06
3.07453e-06
3.59313e-06
4.48087e-06
5.84954e-06
8.39645e-06
1.3954e-05
2.05294e-05
8.20157e-06
2.6059e-06
2.73618e-07
1.77114e-07
2.37701e-06
7.83436e-06
2.22326e-05
1.20105e-05
6.59419e-06
4.79726e-06
4.16244e-06
4.01019e-06
4.24353e-06
4.89309e-06
5.99511e-06
7.73493e-06
1.04883e-05
1.47266e-05
2.01047e-05
2.43229e-05
2.46923e-05
2.0516e-05
1.41721e-05
9.15545e-06
6.14107e-06
4.39174e-06
3.37604e-06
2.89787e-06
2.95556e-06
3.48366e-06
4.4375e-06
5.98361e-06
8.8735e-06
1.48817e-05
2.02955e-05
7.97615e-06
2.58985e-06
2.76242e-07
1.74636e-07
2.43492e-06
8.23556e-06
2.29332e-05
1.20557e-05
6.73923e-06
4.96245e-06
4.30409e-06
4.11527e-06
4.32935e-06
4.97957e-06
6.10824e-06
7.90702e-06
1.07692e-05
1.51625e-05
2.06129e-05
2.45876e-05
2.44738e-05
1.99236e-05
1.3613e-05
8.79739e-06
5.92881e-06
4.26183e-06
3.28855e-06
2.82085e-06
2.86723e-06
3.37341e-06
4.34367e-06
6.00076e-06
9.1387e-06
1.54455e-05
1.9976e-05
7.80624e-06
2.57751e-06
2.80272e-07
1.72523e-07
2.49716e-06
8.6284e-06
2.35784e-05
1.22839e-05
6.9377e-06
5.11837e-06
4.41072e-06
4.18196e-06
4.38317e-06
5.04119e-06
6.19579e-06
8.0409e-06
1.09835e-05
1.54892e-05
2.09812e-05
2.47517e-05
2.42662e-05
1.94519e-05
1.31787e-05
8.5105e-06
5.75112e-06
4.1528e-06
3.22322e-06
2.77483e-06
2.81435e-06
3.28854e-06
4.24043e-06
5.94551e-06
9.23742e-06
1.57382e-05
1.9645e-05
7.65251e-06
2.5629e-06
2.8473e-07
1.71281e-07
2.56247e-06
9.01092e-06
2.41433e-05
1.25489e-05
7.12178e-06
5.23709e-06
4.47852e-06
4.22153e-06
4.42356e-06
5.09705e-06
6.27575e-06
8.15597e-06
1.11569e-05
1.5738e-05
2.1241e-05
2.48418e-05
2.40755e-05
1.90597e-05
1.28064e-05
8.24749e-06
5.57503e-06
4.03723e-06
3.15465e-06
2.73957e-06
2.79049e-06
3.24294e-06
4.16515e-06
5.87792e-06
9.25641e-06
1.58926e-05
1.93112e-05
7.48747e-06
2.54157e-06
2.88238e-07
1.71338e-07
2.6299e-06
9.38651e-06
2.46035e-05
1.27528e-05
7.25247e-06
5.31118e-06
4.51775e-06
4.25184e-06
4.46799e-06
5.1597e-06
6.35565e-06
8.25709e-06
1.12943e-05
1.59168e-05
2.14052e-05
2.48739e-05
2.39085e-05
1.87315e-05
1.24756e-05
7.99535e-06
5.3912e-06
3.90419e-06
3.06711e-06
2.69536e-06
2.77853e-06
3.23156e-06
4.13444e-06
5.84379e-06
9.27869e-06
1.60264e-05
1.89615e-05
7.2983e-06
2.51174e-06
2.89615e-07