/*--------------------------------*- C++ -*----------------------------------*\
| =========                 |                                                 |
| \\      /  F ield         | OpenFOAM: The Open Source CFD Toolbox           |
|  \\    /   O peration     | Version:  v1906                                 |
|   \\  /    A nd           | Web:      www.OpenFOAM.com                      |
|    \\/     M anipulation  |                                                 |
\*---------------------------------------------------------------------------*/
FoamFile
{
    version     2.0;
    format      ascii;
    class       volVectorField;
    location    "25";
    object      U;
}
// * * * * * * * * * * * * * * * * * * * * * * * * * * * * * * * * * * * * * //

dimensions      [0 1 -1 0 0 0 0];


internalField   nonuniform List<vector> 
78750
(
(-0.424178 -0.15976 -0.167735)
(-0.362813 -0.14131 -0.163588)
(-0.357116 -0.110902 -0.150876)
(-0.290605 -0.082223 -0.134519)
(-0.239522 -0.070179 -0.125537)
(-0.252189 -0.0591403 -0.123335)
(-0.21134 -0.0537089 -0.119207)
(-0.206358 -0.0468551 -0.11746)
(-0.177938 -0.0431221 -0.114575)
(-0.16775 -0.0390415 -0.113039)
(-0.149358 -0.0361692 -0.110975)
(-0.137419 -0.0340624 -0.109875)
(-0.124466 -0.0320238 -0.108762)
(-0.113239 -0.0306221 -0.10812)
(-0.102499 -0.0292106 -0.107567)
(-0.0923949 -0.0279833 -0.107169)
(-0.0827606 -0.0267458 -0.10686)
(-0.0735691 -0.0254992 -0.106646)
(-0.0647928 -0.0242316 -0.106535)
(-0.0564354 -0.0229502 -0.106539)
(-0.0484957 -0.0216719 -0.106664)
(-0.0409723 -0.0204141 -0.106913)
(-0.0338586 -0.0191923 -0.107288)
(-0.0271454 -0.01802 -0.10779)
(-0.0208239 -0.0169085 -0.10842)
(-0.0148898 -0.0158734 -0.109184)
(-0.00934566 -0.0149359 -0.110092)
(-0.00420155 -0.0141292 -0.11116)
(0.000526148 -0.0135027 -0.112414)
(0.00480259 -0.0131343 -0.11389)
(0.00857339 -0.0131368 -0.115629)
(0.0116884 -0.0135541 -0.117629)
(0.013824 -0.0138944 -0.119649)
(0.0169337 -0.0111758 -0.12104)
(0.0117145 0.0510212 -0.0811089)
(0.0531726 -0.242994 -0.0430181)
(-0.0749488 -0.171674 -0.0936406)
(-0.0401302 -0.188789 -0.111656)
(-0.0669014 -0.176796 -0.118948)
(-0.0796049 -0.137295 -0.124211)
(-0.0862794 -0.108846 -0.128644)
(-0.0913595 -0.0911317 -0.132146)
(-0.0936366 -0.0762982 -0.13477)
(-0.0950807 -0.0641452 -0.136962)
(-0.0951075 -0.0540549 -0.138679)
(-0.0940708 -0.045633 -0.140011)
(-0.0918602 -0.0383841 -0.140944)
(-0.0884248 -0.0322837 -0.141475)
(-0.0838253 -0.027359 -0.141427)
(-0.0782094 -0.0236163 -0.140557)
(-0.0718777 -0.0208518 -0.138764)
(-0.0651346 -0.018735 -0.136176)
(-0.0582241 -0.0169419 -0.133085)
(-0.0513179 -0.0152361 -0.129809)
(-0.0445184 -0.0134753 -0.126599)
(-0.0378777 -0.0115864 -0.123616)
(-0.0314168 -0.00953785 -0.120944)
(-0.0251398 -0.00731535 -0.118615)
(-0.019046 -0.00490136 -0.116631)
(-0.0131797 -0.00225331 -0.114978)
(-0.00761123 0.000717028 -0.113632)
(-0.00239937 0.00412584 -0.112567)
(0.00237154 0.00808548 -0.111744)
(0.00657269 0.0127397 -0.111112)
(0.0100098 0.0183736 -0.11059)
(0.0124477 0.0256105 -0.11006)
(0.0137735 0.0359815 -0.1094)
(0.0139175 0.0548052 -0.108716)
(0.0114094 0.105568 -0.108235)
(0.00302402 0.232421 -0.0772543)
(-0.0180093 0.103376 -0.0519102)
(-0.0343489 0.074885 -0.0878853)
(-0.048719 0.0508859 -0.101184)
(-0.0627248 0.0291821 -0.111381)
(-0.0719516 0.00978023 -0.118285)
(-0.0769703 -0.0022302 -0.121901)
(-0.079424 -0.00780766 -0.123244)
(-0.0801434 -0.0085305 -0.123287)
(-0.0795546 -0.00634997 -0.122861)
(-0.0780032 -0.0033263 -0.122451)
(-0.0757726 -0.000448207 -0.122146)
(-0.0729214 0.00214685 -0.121872)
(-0.0694971 0.00438536 -0.121536)
(-0.0655792 0.00616762 -0.121027)
(-0.0612952 0.00743422 -0.120252)
(-0.0567946 0.00819004 -0.119154)
(-0.0522202 0.00848575 -0.11773)
(-0.0476849 0.00839382 -0.116021)
(-0.0432644 0.00799071 -0.114085)
(-0.0389999 0.00735213 -0.111989)
(-0.034901 0.00656523 -0.109792)
(-0.0309418 0.00575521 -0.107544)
(-0.0270419 0.00511538 -0.105276)
(-0.0230359 0.00491023 -0.103006)
(-0.0186536 0.00541203 -0.100749)
(-0.0136666 0.00679886 -0.0985827)
(-0.00805406 0.00910904 -0.096711)
(-0.00192545 0.0123616 -0.0954395)
(0.00440148 0.0168424 -0.094974)
(0.0101947 0.0230224 -0.0953763)
(0.0143334 0.0312348 -0.0961482)
(0.0160826 0.0417045 -0.0961972)
(0.0145983 0.0577922 -0.0926079)
(0.00882622 0.111883 -0.0795552)
(0.000516874 0.253131 -0.0463472)
(0.00351452 0.0939145 -0.0646166)
(0.0056971 0.0909158 -0.107541)
(0.00429009 0.0697688 -0.130993)
(0.00198814 0.0453385 -0.147701)
(-0.00106198 0.0228878 -0.158504)
(-0.00420693 0.00658224 -0.164353)
(-0.00693258 -0.00317006 -0.167191)
(-0.00919317 -0.00732852 -0.168373)
(-0.0109867 -0.00696958 -0.168467)
(-0.0122442 -0.00380463 -0.16781)
(-0.0130082 0.000470559 -0.166703)
(-0.0133824 0.00494584 -0.165343)
(-0.0134656 0.00934261 -0.163804)
(-0.0133544 0.0136141 -0.162089)
(-0.0131483 0.0177418 -0.160155)
(-0.0129485 0.0216887 -0.157918)
(-0.0128509 0.0254014 -0.155248)
(-0.0129414 0.0288169 -0.151962)
(-0.0132939 0.0318646 -0.147809)
(-0.0139673 0.0344574 -0.142451)
(-0.0150006 0.036454 -0.135438)
(-0.016406 0.0375648 -0.126203)
(-0.0181698 0.0371719 -0.11416)
(-0.0202734 0.0341878 -0.0992526)
(-0.0227015 0.0277237 -0.0833539)
(-0.0252356 0.0193663 -0.0708342)
(-0.0269287 0.0136979 -0.0642648)
(-0.0274213 0.0127785 -0.0611356)
(-0.0265873 0.017592 -0.0596951)
(-0.0240841 0.0307711 -0.059447)
(-0.0184083 0.061885 -0.063321)
(-0.00918829 0.12269 -0.0789067)
(-0.00102444 0.211876 -0.111417)
(-0.000299046 0.284168 -0.126455)
(-0.00449955 0.326019 -0.0810193)
(0.0032012 0.0466178 -0.0409612)
(0.0102167 0.0831236 -0.100214)
(0.0145859 0.0876633 -0.124066)
(0.0181666 0.0852851 -0.134148)
(0.0212217 0.0816656 -0.137819)
(0.0236666 0.0778894 -0.137661)
(0.0255665 0.074662 -0.135287)
(0.0272201 0.0726081 -0.131912)
(0.0288308 0.0717474 -0.128399)
(0.0304285 0.0718378 -0.125284)
(0.0319825 0.0726629 -0.12283)
(0.0334321 0.0740792 -0.12111)
(0.0347055 0.0759833 -0.120096)
(0.0357381 0.0782835 -0.119709)
(0.0364798 0.0808872 -0.119851)
(0.0368909 0.0836952 -0.120408)
(0.0369378 0.0865991 -0.121246)
(0.036589 0.0894804 -0.122215)
(0.0358131 0.0922093 -0.12313)
(0.0345783 0.0946431 -0.123771)
(0.0328502 0.0966133 -0.123879)
(0.0305815 0.0978697 -0.123173)
(0.0276822 0.0979623 -0.121455)
(0.0239915 0.0961745 -0.118843)
(0.0193304 0.0917368 -0.115952)
(0.0135846 0.0841118 -0.113582)
(0.006751 0.0728226 -0.111971)
(-0.000735096 0.0574153 -0.110086)
(-0.00818521 0.0369001 -0.104708)
(-0.0151394 0.009234 -0.0883343)
(-0.0211431 -0.0212661 -0.0495777)
(-0.0245194 -0.0174548 0.00170154)
(-0.0220159 0.078309 0.020161)
(-0.0127545 0.243577 -0.00772565)
(-0.00353887 0.309606 -0.0185781)
(-0.00276413 0.00780238 0.0933402)
(0.000291119 0.0268376 0.105704)
(0.00673306 0.0293259 0.102614)
(0.0167547 0.0260663 0.0988562)
(0.0285559 0.0205441 0.0964149)
(0.0409432 0.0156121 0.0951897)
(0.0532623 0.0127929 0.0946109)
(0.0650532 0.0124514 0.0941761)
(0.0760049 0.0142864 0.0935842)
(0.0859544 0.0177724 0.0926989)
(0.0948578 0.022393 0.0914793)
(0.102754 0.0277398 0.0899364)
(0.109721 0.0335526 0.0881073)
(0.115835 0.0396907 0.0860362)
(0.121149 0.046081 0.0837597)
(0.125693 0.0527 0.0813197)
(0.129475 0.059534 0.0787416)
(0.132496 0.0665408 0.0760493)
(0.134743 0.0736776 0.0732705)
(0.136187 0.0808954 0.0704402)
(0.136781 0.0881281 0.0676122)
(0.136462 0.0952886 0.0648705)
(0.135144 0.102253 0.0623194)
(0.132696 0.108843 0.0601166)
(0.128937 0.114834 0.0584514)
(0.123619 0.119981 0.0574149)
(0.116487 0.124114 0.0574213)
(0.107067 0.127017 0.0584847)
(0.0952435 0.128974 0.0615761)
(0.0797989 0.12909 0.0673478)
(0.0619441 0.130929 0.0830609)
(0.037707 0.130297 0.0892651)
(0.0124919 0.126548 0.0540507)
(0.00223602 0.176255 0.0208279)
(0.000954018 0.2504 0.0122673)
(-0.000350416 -0.00881146 0.0507105)
(0.00922879 -0.0628253 0.0653195)
(0.0224872 -0.104402 0.0655671)
(0.0375033 -0.132247 0.0639877)
(0.0527454 -0.147487 0.0622067)
(0.0672439 -0.151737 0.060326)
(0.080354 -0.147063 0.0580222)
(0.0916329 -0.13609 0.0550141)
(0.100937 -0.121426 0.0512832)
(0.108482 -0.10514 0.0470377)
(0.114532 -0.0886235 0.0424881)
(0.119424 -0.0726671 0.0378498)
(0.123583 -0.0575906 0.0333438)
(0.12736 -0.0434592 0.0291699)
(0.130952 -0.0302058 0.0254711)
(0.134443 -0.017691 0.0223311)
(0.137726 -0.00580469 0.0198304)
(0.140574 0.00564152 0.017969)
(0.142953 0.0168365 0.0167244)
(0.144794 0.0279364 0.0160402)
(0.145967 0.0390598 0.0158182)
(0.146336 0.0503138 0.0159602)
(0.145783 0.0618136 0.0164161)
(0.144192 0.0736914 0.0172211)
(0.141417 0.0860619 0.0184985)
(0.137261 0.0989777 0.0203905)
(0.131583 0.112464 0.023219)
(0.12401 0.126749 0.0275561)
(0.114325 0.142627 0.0343421)
(0.102789 0.157909 0.0420851)
(0.0894977 0.169163 0.0547562)
(0.0729524 0.186402 0.0820317)
(0.0479876 0.211558 0.0841503)
(0.0240813 0.257067 0.0541669)
(0.00612875 0.303862 0.0325642)
(0.00568406 -0.0987034 0.0293466)
(0.0202436 -0.199385 0.0399037)
(0.0330788 -0.238349 0.0423443)
(0.0438927 -0.248279 0.0431038)
(0.0524466 -0.242214 0.0429404)
(0.0593245 -0.223669 0.0415831)
(0.0642428 -0.193839 0.0382829)
(0.0662019 -0.15718 0.0326495)
(0.0656559 -0.119296 0.0252902)
(0.064428 -0.0838501 0.0167748)
(0.0639403 -0.0536598 0.00770131)
(0.064529 -0.0305788 -0.000886232)
(0.065976 -0.0139478 -0.0081354)
(0.0680617 -0.00157729 -0.0139076)
(0.0706015 0.0083682 -0.0183693)
(0.0734578 0.0170376 -0.0217055)
(0.0767037 0.0251467 -0.0240177)
(0.0802554 0.0332351 -0.0254432)
(0.0838921 0.0416178 -0.0260841)
(0.0873947 0.050543 -0.0260534)
(0.0905833 0.060259 -0.0254697)
(0.093291 0.0709478 -0.0244889)
(0.0953205 0.0827203 -0.0233043)
(0.0964823 0.0955671 -0.0221875)
(0.0967228 0.10967 -0.021202)
(0.0959602 0.125544 -0.0200608)
(0.0939555 0.143549 -0.0183808)
(0.0904878 0.163314 -0.0158468)
(0.085679 0.183721 -0.0121897)
(0.0794285 0.203962 -0.00612288)
(0.0698062 0.23124 0.0139734)
(0.0558634 0.274769 0.0514362)
(0.0346794 0.323767 0.0601576)
(0.0161726 0.375986 0.0388598)
(0.00305005 0.391898 0.0220923)
(-0.000339411 -0.176863 0.0337267)
(-0.00590069 -0.251989 0.0343019)
(-0.00876665 -0.262666 0.031877)
(-0.0105345 -0.257795 0.0302509)
(-0.0114638 -0.238598 0.0281232)
(-0.0100191 -0.196581 0.0226066)
(-0.0052565 -0.138775 0.0101947)
(0.0012587 -0.0883633 -0.00664261)
(0.0081711 -0.056839 -0.0210092)
(0.01437 -0.0391446 -0.0312606)
(0.0193244 -0.0287171 -0.0388399)
(0.0230255 -0.021818 -0.0446823)
(0.0258267 -0.0162883 -0.0491337)
(0.0282545 -0.0109455 -0.0522426)
(0.030982 -0.00531918 -0.0540579)
(0.0342983 0.000751599 -0.0547337)
(0.03803 0.00732215 -0.05443)
(0.0420239 0.0144423 -0.0533379)
(0.0461201 0.0222322 -0.0516451)
(0.050177 0.0308544 -0.0495331)
(0.0540813 0.0404908 -0.047164)
(0.0577359 0.0513567 -0.0446623)
(0.0610254 0.0637277 -0.0421084)
(0.0638195 0.0779399 -0.039552)
(0.0659664 0.0944401 -0.0370093)
(0.067296 0.113838 -0.034472)
(0.0675903 0.136792 -0.0319184)
(0.0666219 0.163861 -0.0291433)
(0.0641208 0.196208 -0.0249429)
(0.0592501 0.237995 -0.0137951)
(0.0503744 0.294662 0.012975)
(0.0381153 0.36003 0.0421175)
(0.0214508 0.41946 0.0398075)
(0.00925639 0.459727 0.0223677)
(0.00174068 0.440151 0.00947896)
(-0.0084041 -0.0994199 0.0155649)
(-0.0120034 -0.205146 0.00901481)
(-0.00875856 -0.257187 0.0094195)
(-0.00331855 -0.280089 0.010693)
(0.00378295 -0.289369 0.0125608)
(0.0125936 -0.288773 0.0159083)
(0.0231313 -0.274471 0.0213024)
(0.0348298 -0.241769 0.0273145)
(0.0464625 -0.193767 0.0311868)
(0.0571144 -0.138428 0.0313193)
(0.0660408 -0.0830609 0.0264551)
(0.0722746 -0.0347899 0.015245)
(0.0748052 -0.00190897 -0.00124796)
(0.0737873 0.0145615 -0.0183513)
(0.0704946 0.0216501 -0.0322746)
(0.0663423 0.025268 -0.0422403)
(0.0625693 0.0283795 -0.0486501)
(0.0596753 0.0322724 -0.0523103)
(0.0576609 0.0373748 -0.0539997)
(0.0563636 0.0437407 -0.0542651)
(0.0555789 0.0513185 -0.0534815)
(0.0551154 0.0602243 -0.0518879)
(0.0548046 0.0706651 -0.049655)
(0.0544481 0.0829765 -0.0468884)
(0.0538534 0.0977661 -0.0435946)
(0.0527917 0.115878 -0.0397562)
(0.0510363 0.138454 -0.0353275)
(0.0483679 0.167249 -0.0299708)
(0.0445018 0.205457 -0.0220254)
(0.0389887 0.257431 -0.0067126)
(0.0316408 0.32141 0.0177516)
(0.0235204 0.388988 0.0355389)
(0.013249 0.453809 0.0266512)
(0.00612434 0.487862 0.012166)
(0.00178714 0.448626 0.00281622)
(0.000193569 -0.0968886 -0.00928679)
(0.0161038 -0.266381 -0.00792164)
(0.0302841 -0.347836 -0.00242583)
(0.041013 -0.373296 -0.00208643)
(0.049038 -0.373672 -0.00541929)
(0.055555 -0.357541 -0.0119023)
(0.0594957 -0.327372 -0.0203868)
(0.0605649 -0.287752 -0.0279498)
(0.060078 -0.243 -0.0307609)
(0.0597008 -0.195625 -0.0256899)
(0.0605977 -0.145096 -0.0126868)
(0.0631329 -0.0865766 0.00665327)
(0.0661867 -0.017057 0.0241573)
(0.0662407 0.0431408 0.0258835)
(0.0625117 0.0768033 0.0138066)
(0.0578394 0.0905024 -0.00244405)
(0.0534887 0.093269 -0.0181655)
(0.0497975 0.0912244 -0.0307896)
(0.046916 0.0888367 -0.0393368)
(0.0448086 0.0882851 -0.0445579)
(0.0431697 0.0899957 -0.0475912)
(0.0418043 0.0940368 -0.0490227)
(0.0407015 0.100485 -0.0492191)
(0.0396785 0.109771 -0.0483303)
(0.0384992 0.122724 -0.0462792)
(0.0370005 0.139917 -0.0430706)
(0.0349992 0.162054 -0.0386554)
(0.0323176 0.190543 -0.0326384)
(0.0288809 0.22782 -0.0236379)
(0.024797 0.276232 -0.0087735)
(0.0204304 0.333375 0.0119567)
(0.0162978 0.395674 0.0266925)
(0.0101249 0.464446 0.0176224)
(0.00567238 0.4995 0.0046238)
(0.00196369 0.453059 -0.00174602)
(0.0102418 -0.213156 0.000680725)
(0.0381182 -0.386645 0.027588)
(0.0533745 -0.441355 0.0351233)
(0.0578583 -0.440757 0.0289112)
(0.0578624 -0.417683 0.0167266)
(0.0548005 -0.37549 0.00103462)
(0.0483323 -0.318748 -0.0152474)
(0.0398329 -0.251908 -0.0333637)
(0.0300626 -0.185499 -0.0552593)
(0.0197983 -0.134668 -0.072601)
(0.0109952 -0.0991195 -0.0762304)
(0.00394094 -0.0642203 -0.0629062)
(-0.000334524 -0.0114506 -0.032526)
(-0.00101177 0.0528988 -0.00775713)
(0.00033143 0.0896058 -0.00605499)
(0.00251589 0.104186 -0.0118192)
(0.0050838 0.111308 -0.0190433)
(0.00812613 0.113472 -0.0272779)
(0.0111306 0.112861 -0.0346277)
(0.0138315 0.112459 -0.0400028)
(0.0163154 0.11349 -0.0436791)
(0.0185604 0.116444 -0.0459563)
(0.0204844 0.121637 -0.0470594)
(0.022001 0.129206 -0.047223)
(0.023125 0.13965 -0.0465486)
(0.0238511 0.154392 -0.0448095)
(0.0239969 0.174736 -0.041747)
(0.0234488 0.201335 -0.0371382)
(0.022248 0.235176 -0.0302377)
(0.0205971 0.277063 -0.0193655)
(0.0188235 0.325832 -0.00352035)
(0.0171522 0.383437 0.0132383)
(0.0115763 0.463679 0.0139409)
(0.00692073 0.510211 0.0061542)
(0.00279392 0.465516 0.00218538)
(0.0104774 -0.438137 0.0600702)
(0.0135903 -0.519102 0.0724914)
(0.00267858 -0.489345 0.0512125)
(-0.0151725 -0.424932 0.0148825)
(-0.0351344 -0.345156 -0.0211972)
(-0.0512207 -0.266886 -0.0428005)
(-0.0634281 -0.19209 -0.0513155)
(-0.071783 -0.118685 -0.0551095)
(-0.0767076 -0.0548668 -0.057859)
(-0.0805317 -0.00803778 -0.053078)
(-0.0841902 0.0292163 -0.0413594)
(-0.085586 0.0552623 -0.0335687)
(-0.0830706 0.0682791 -0.0320339)
(-0.078446 0.0790024 -0.0319765)
(-0.0709404 0.0878982 -0.034441)
(-0.0609212 0.0924843 -0.0392929)
(-0.0507213 0.0937274 -0.0442205)
(-0.0410231 0.0942556 -0.0479351)
(-0.031983 0.0956879 -0.0503505)
(-0.0237679 0.0986028 -0.0517625)
(-0.0163756 0.103124 -0.0524706)
(-0.00975249 0.109319 -0.0526718)
(-0.0038605 0.117347 -0.0524655)
(0.0012865 0.127586 -0.0518609)
(0.00572465 0.140734 -0.0507415)
(0.00944807 0.157771 -0.0489612)
(0.01235 0.17962 -0.0463965)
(0.0143764 0.206762 -0.0429136)
(0.0155881 0.239206 -0.0381833)
(0.0161534 0.276799 -0.031413)
(0.016292 0.320672 -0.0210687)
(0.0161776 0.380923 -0.00500436)
(0.0106938 0.47962 0.00839142)
(0.00540796 0.53097 0.00959438)
(0.00206033 0.482875 0.00915157)
(-0.0150394 -0.368147 0.104628)
(-0.0463576 -0.325015 0.0779204)
(-0.0789398 -0.209771 0.0110491)
(-0.103292 -0.138911 -0.0365172)
(-0.111537 -0.130369 -0.0342975)
(-0.117793 -0.111895 -0.0269219)
(-0.119908 -0.0860892 -0.0225274)
(-0.118447 -0.0622014 -0.0200247)
(-0.114398 -0.0427454 -0.0207526)
(-0.108468 -0.027149 -0.0234531)
(-0.100803 -0.0133788 -0.0264183)
(-0.092195 -0.000344834 -0.0295833)
(-0.0832384 0.0110224 -0.0332115)
(-0.0739806 0.0200532 -0.0367898)
(-0.0646136 0.0272489 -0.0399701)
(-0.0553566 0.0336609 -0.0426544)
(-0.0465203 0.0401016 -0.0447436)
(-0.0382536 0.0470124 -0.0462511)
(-0.0305713 0.0545818 -0.0472751)
(-0.0234427 0.0629002 -0.0479161)
(-0.0168311 0.0720697 -0.0482457)
(-0.0107156 0.0822728 -0.0483051)
(-0.00509008 0.0938198 -0.0481093)
(5.35592e-05 0.107222 -0.0476487)
(0.00467029 0.123286 -0.0468875)
(0.0087198 0.143037 -0.0457714)
(0.0121432 0.167426 -0.0442664)
(0.014796 0.196847 -0.0423554)
(0.0164983 0.230788 -0.0398671)
(0.0170532 0.268658 -0.0360369)
(0.016199 0.314108 -0.0285125)
(0.0136497 0.386061 -0.0118855)
(0.00744206 0.500116 0.00946378)
(0.00238424 0.546724 0.0163295)
(0.000562187 0.490927 0.0180331)
(-0.0247892 -0.129623 0.083231)
(-0.0526646 -0.151913 0.0588177)
(-0.0598898 -0.182939 0.0566592)
(-0.0578052 -0.217885 0.0647624)
(-0.0540764 -0.221366 0.0655457)
(-0.0484002 -0.200473 0.0596407)
(-0.0407149 -0.167008 0.0500476)
(-0.0328333 -0.134326 0.0409492)
(-0.0253411 -0.102382 0.031709)
(-0.0189558 -0.074184 0.0222532)
(-0.014155 -0.0524889 0.0130985)
(-0.0108988 -0.0367618 0.00466034)
(-0.0087976 -0.0245947 -0.00278477)
(-0.0073773 -0.0138764 -0.0091796)
(-0.00630833 -0.00356348 -0.0146188)
(-0.00521329 0.00653351 -0.0192222)
(-0.0038843 0.0164841 -0.0230813)
(-0.00236394 0.0264588 -0.026286)
(-0.000723297 0.036629 -0.0289137)
(0.00100642 0.0471469 -0.0310146)
(0.00280286 0.0581898 -0.0326124)
(0.00462612 0.0700137 -0.0337105)
(0.00642225 0.0829923 -0.0342945)
(0.0081402 0.097672 -0.0343358)
(0.00974406 0.114833 -0.0338002)
(0.0111982 0.135535 -0.03267)
(0.0124894 0.160971 -0.0309996)
(0.0135886 0.192184 -0.0289963)
(0.0143914 0.229796 -0.0269599)
(0.0145837 0.274601 -0.0247121)
(0.0134701 0.331017 -0.0196447)
(0.00993597 0.412815 -0.00450832)
(0.00464268 0.512215 0.0168416)
(0.000648399 0.544522 0.0252712)
(-0.000259332 0.475734 0.0266273)
(-0.0104146 -0.0887961 0.048362)
(-0.00941984 -0.240941 0.0347387)
(-0.00590739 -0.316877 0.0268472)
(-0.00330099 -0.345217 0.0225852)
(-0.000245392 -0.352951 0.0224372)
(0.00481055 -0.344399 0.0268815)
(0.012217 -0.316723 0.0358722)
(0.0218361 -0.272514 0.0468131)
(0.0327048 -0.218879 0.0571455)
(0.0438646 -0.1613 0.0650318)
(0.0543113 -0.104886 0.0690638)
(0.0628598 -0.0550295 0.0681957)
(0.0683636 -0.0166359 0.0620809)
(0.0701385 0.00788634 0.0517115)
(0.068087 0.0211056 0.0389441)
(0.0625601 0.0288211 0.0259887)
(0.0549503 0.0363124 0.0148966)
(0.0476013 0.044803 0.00625135)
(0.0417717 0.0537482 -0.000490696)
(0.0372259 0.0630855 -0.00602789)
(0.033538 0.073114 -0.0107006)
(0.030466 0.0841487 -0.0145895)
(0.0278569 0.0965073 -0.0176727)
(0.025605 0.110555 -0.0198778)
(0.023623 0.126753 -0.0210845)
(0.0218341 0.145678 -0.0211249)
(0.0201698 0.168042 -0.0198202)
(0.0185938 0.194741 -0.0170924)
(0.0170932 0.227134 -0.0131472)
(0.0156033 0.268238 -0.00856646)
(0.014046 0.326113 -0.00351943)
(0.0118496 0.41538 0.00557702)
(0.00812588 0.511075 0.021567)
(0.00472405 0.539563 0.031093)
(0.00228005 0.464979 0.0328729)
(-0.00125542 -0.0922103 0.0262303)
(0.00529969 -0.253163 -0.00357956)
(0.00843868 -0.328801 -0.0275946)
(0.0112122 -0.362603 -0.04059)
(0.0136099 -0.378707 -0.0479976)
(0.0161332 -0.385846 -0.0525188)
(0.0194179 -0.3857 -0.0545373)
(0.0242724 -0.376107 -0.0530964)
(0.0313567 -0.353984 -0.0468717)
(0.0406232 -0.318516 -0.0353857)
(0.0517405 -0.270506 -0.0189504)
(0.0641752 -0.211476 0.00169786)
(0.0769721 -0.143336 0.0254059)
(0.0887284 -0.0678345 0.0501491)
(0.0973679 0.00956302 0.0706197)
(0.100787 0.0706284 0.0788982)
(0.0984493 0.0992176 0.0721843)
(0.0910088 0.104387 0.0564004)
(0.0796502 0.102452 0.0386358)
(0.0683168 0.102975 0.0241307)
(0.058878 0.107626 0.0136081)
(0.0511332 0.115139 0.00575444)
(0.0447893 0.124588 -0.000455813)
(0.0395575 0.135891 -0.00543554)
(0.0352352 0.149493 -0.00923901)
(0.0316539 0.16602 -0.0117139)
(0.0286469 0.186095 -0.0125245)
(0.0260119 0.210182 -0.0111809)
(0.0235295 0.238671 -0.00714279)
(0.0209387 0.272954 1.10311e-05)
(0.01797 0.319445 0.0104012)
(0.0142693 0.396958 0.0223443)
(0.00944029 0.496273 0.0329008)
(0.00574698 0.531926 0.0381294)
(0.00273905 0.468104 0.0367269)
(0.00244445 -0.127363 -0.00584551)
(0.0187977 -0.290277 -0.0255136)
(0.033418 -0.36499 -0.0300892)
(0.0458232 -0.396628 -0.0315857)
(0.0561124 -0.407443 -0.0337323)
(0.0647197 -0.406329 -0.0376281)
(0.071367 -0.396433 -0.0440471)
(0.075633 -0.379485 -0.0535307)
(0.077526 -0.357228 -0.065728)
(0.0775981 -0.331286 -0.0787747)
(0.0766153 -0.302112 -0.0895984)
(0.075371 -0.268343 -0.0945688)
(0.0748312 -0.227744 -0.0899482)
(0.0762749 -0.178388 -0.0733439)
(0.0804168 -0.119445 -0.0454447)
(0.0873517 -0.0431392 -0.00543256)
(0.0947283 0.0564587 0.0404156)
(0.0941605 0.13968 0.0662504)
(0.0863415 0.177445 0.0663585)
(0.0759052 0.186212 0.0541487)
(0.0649073 0.183265 0.038549)
(0.0555654 0.179481 0.0248401)
(0.0478507 0.179243 0.0142637)
(0.041319 0.182922 0.00594763)
(0.0358648 0.190213 -0.000955398)
(0.0314299 0.201169 -0.00680269)
(0.0279357 0.216306 -0.0115152)
(0.0252717 0.236515 -0.0146073)
(0.0232484 0.263069 -0.0151232)
(0.0215658 0.298265 -0.0113496)
(0.0197001 0.348071 -4.33246e-05)
(0.0161675 0.42494 0.0208193)
(0.0102178 0.512595 0.0373072)
(0.00554992 0.545405 0.0426762)
(0.00237528 0.478015 0.0389431)
(0.00779702 -0.242026 -0.0223293)
(0.0276376 -0.434766 -0.0262792)
(0.0439578 -0.505625 -0.0245335)
(0.0563848 -0.526924 -0.0237709)
(0.0660542 -0.52739 -0.0246943)
(0.0736701 -0.514599 -0.0279221)
(0.0787817 -0.489329 -0.0337851)
(0.0810327 -0.451206 -0.0418412)
(0.0807159 -0.401193 -0.0509395)
(0.0788745 -0.342351 -0.060257)
(0.076352 -0.278848 -0.0702728)
(0.0730655 -0.21557 -0.0821012)
(0.0683529 -0.160271 -0.094802)
(0.0625482 -0.118329 -0.103442)
(0.0569359 -0.0844833 -0.103344)
(0.051636 -0.0468739 -0.0881286)
(0.050675 0.0187997 -0.0441234)
(0.0516647 0.108607 0.00639276)
(0.0471162 0.177535 0.0330657)
(0.041716 0.206136 0.0371022)
(0.0378461 0.215447 0.033449)
(0.0341347 0.217568 0.0278415)
(0.0306941 0.217531 0.0222084)
(0.0278146 0.218745 0.017471)
(0.0252618 0.222515 0.0136072)
(0.0229516 0.229388 0.01032)
(0.0208777 0.239887 0.00750329)
(0.0190567 0.254645 0.00522492)
(0.0174822 0.274875 0.00377606)
(0.0161459 0.303737 0.0041766)
(0.015094 0.349483 0.00974014)
(0.0137854 0.427405 0.027578)
(0.00944045 0.5194 0.04986)
(0.0051619 0.554706 0.0572484)
(0.00271004 0.486021 0.0479368)
(0.00998827 -0.345497 -0.0254611)
(0.0243021 -0.496927 -0.0169843)
(0.0333026 -0.524775 -0.015987)
(0.0385278 -0.523022 -0.0188908)
(0.0416568 -0.506863 -0.026056)
(0.0420814 -0.473972 -0.0401797)
(0.0385267 -0.426402 -0.0612611)
(0.0315838 -0.375158 -0.0845734)
(0.0232422 -0.331154 -0.102674)
(0.0158282 -0.294026 -0.111089)
(0.010598 -0.253969 -0.110931)
(0.00806988 -0.199992 -0.105579)
(0.00765253 -0.132007 -0.100958)
(0.00630308 -0.0692315 -0.0992834)
(0.00280502 -0.0204459 -0.0944923)
(-0.00361316 0.0264357 -0.0768773)
(-0.0110127 0.0913842 -0.0332088)
(-0.0169381 0.172365 0.0148576)
(-0.0200814 0.211003 0.0251034)
(-0.0200932 0.221121 0.0200287)
(-0.0187998 0.22199 0.0108981)
(-0.0165706 0.219394 0.00144363)
(-0.0141557 0.219383 -0.00441996)
(-0.0118337 0.222373 -0.00796056)
(-0.00960974 0.228105 -0.0101158)
(-0.0075265 0.236892 -0.0111694)
(-0.00550912 0.249652 -0.0111287)
(-0.00369964 0.267024 -0.00973876)
(-0.00227364 0.289262 -0.00698787)
(-0.00133254 0.318476 -0.00290201)
(-0.000930696 0.362435 0.00382424)
(-0.000555117 0.436395 0.0181302)
(-0.00106948 0.524859 0.0383502)
(-0.00192261 0.554772 0.0441138)
(-0.0010921 0.485092 0.0332447)
(0.00450226 -0.407017 0.0073703)
(0.00657624 -0.539952 0.0237673)
(0.00731901 -0.553954 0.0247004)
(0.00673426 -0.543494 0.020971)
(0.00417747 -0.507452 0.00883973)
(-0.00173196 -0.438582 -0.0151409)
(-0.00974301 -0.354544 -0.0436497)
(-0.0168575 -0.274171 -0.0705232)
(-0.0232802 -0.214433 -0.0905047)
(-0.0293355 -0.179355 -0.0986498)
(-0.0347627 -0.153661 -0.097793)
(-0.0397339 -0.122641 -0.091112)
(-0.0432205 -0.0769941 -0.0812882)
(-0.0455166 -0.0222323 -0.0714753)
(-0.0486339 0.0342042 -0.0572936)
(-0.0532564 0.0984035 -0.0331698)
(-0.056854 0.163957 -0.00710765)
(-0.0566038 0.201802 0.00105731)
(-0.0546659 0.210796 -0.00485255)
(-0.0509621 0.212952 -0.0134961)
(-0.0463007 0.211704 -0.0232064)
(-0.0416255 0.210496 -0.0311446)
(-0.037114 0.211584 -0.0367191)
(-0.0326966 0.21544 -0.0406179)
(-0.0283324 0.222404 -0.0433364)
(-0.0240695 0.233017 -0.0447848)
(-0.0199746 0.247932 -0.0443646)
(-0.0161201 0.267721 -0.0409297)
(-0.012457 0.293396 -0.0334295)
(-0.0088896 0.32778 -0.0220162)
(-0.00560788 0.377016 -0.00831365)
(-0.00292932 0.449744 0.00492444)
(-0.00165791 0.528456 0.015271)
(-0.00153052 0.553772 0.0193478)
(-0.000843013 0.471287 0.0151265)
(-0.000856354 -0.398844 0.0175646)
(-0.00592327 -0.506183 0.0244613)
(-0.00964574 -0.51191 0.0217975)
(-0.0140308 -0.490539 0.0132562)
(-0.0208037 -0.428477 -0.00974945)
(-0.0284988 -0.345667 -0.0417312)
(-0.0352156 -0.285996 -0.0609298)
(-0.0388287 -0.243843 -0.0663989)
(-0.0398604 -0.203784 -0.0671523)
(-0.040051 -0.166272 -0.0656278)
(-0.0407922 -0.133612 -0.0606038)
(-0.0425903 -0.0995726 -0.051363)
(-0.0455228 -0.0550956 -0.0382519)
(-0.0490353 0.00252343 -0.0258391)
(-0.0532298 0.0591378 -0.0173058)
(-0.0562945 0.105078 -0.00381765)
(-0.0548258 0.140844 0.0146764)
(-0.0500549 0.162251 0.0251872)
(-0.0441434 0.17166 0.0270109)
(-0.0378031 0.176765 0.0263113)
(-0.031695 0.180111 0.0243303)
(-0.0262828 0.183538 0.022027)
(-0.0215365 0.188355 0.0196066)
(-0.017276 0.195334 0.0166976)
(-0.0133882 0.205043 0.0125865)
(-0.00983358 0.217978 0.0063141)
(-0.00663211 0.234486 -0.00306261)
(-0.00396134 0.254205 -0.0151931)
(-0.00211841 0.275894 -0.025715)
(-0.000822742 0.302006 -0.0269005)
(0.000789144 0.344729 -0.0138687)
(0.00275151 0.422494 0.0114066)
(0.0033927 0.516631 0.0318791)
(0.00281781 0.54802 0.0367685)
(0.00213364 0.471221 0.0299502)
(-0.00232186 -0.371495 0.0326677)
(-0.00681267 -0.483508 0.0503245)
(-0.0103375 -0.490757 0.052608)
(-0.0135198 -0.469536 0.049583)
(-0.016893 -0.403985 0.0341928)
(-0.0184716 -0.311937 0.00251845)
(-0.0210407 -0.245961 -0.0273632)
(-0.0247704 -0.209998 -0.043143)
(-0.0286594 -0.18294 -0.0490739)
(-0.0323089 -0.152333 -0.0483837)
(-0.0353199 -0.115122 -0.0409187)
(-0.037821 -0.0736044 -0.0251679)
(-0.0401576 -0.0257645 -0.000241559)
(-0.0421355 0.0315887 0.0284624)
(-0.0433085 0.0869639 0.0408615)
(-0.0438246 0.112682 0.0216239)
(-0.0427791 0.112633 -0.00608256)
(-0.0410921 0.111316 -0.0159826)
(-0.0395475 0.113146 -0.0167782)
(-0.0377458 0.117833 -0.0153282)
(-0.0352493 0.125438 -0.0136764)
(-0.0316338 0.135615 -0.0122918)
(-0.0270168 0.147102 -0.0107911)
(-0.0216848 0.159681 -0.00860667)
(-0.0158087 0.174424 -0.00530949)
(-0.0095332 0.193249 -0.000768254)
(-0.00314589 0.218651 0.00410199)
(0.00274135 0.252965 0.00578446)
(0.00697343 0.294934 -0.00263189)
(0.00783956 0.335227 -0.0225906)
(0.00569075 0.373737 -0.0326193)
(0.00291745 0.436895 -0.0119574)
(0.00110496 0.519268 0.019759)
(0.000219837 0.547114 0.0288505)
(-3.41888e-05 0.484957 0.0203349)
(-0.00257007 -0.363684 0.0305564)
(-0.00720463 -0.475718 0.0391445)
(-0.0108963 -0.485014 0.0406942)
(-0.0138907 -0.468468 0.0403245)
(-0.0164578 -0.416686 0.036475)
(-0.0165858 -0.32584 0.0220453)
(-0.0159363 -0.232492 -0.00216514)
(-0.0168977 -0.167037 -0.0229359)
(-0.0191035 -0.12702 -0.0348652)
(-0.0215905 -0.0995637 -0.0401392)
(-0.0237419 -0.0748526 -0.0407565)
(-0.0248836 -0.0475059 -0.0368626)
(-0.0242101 -0.0161996 -0.0275611)
(-0.0212488 0.0198849 -0.0120016)
(-0.0164054 0.0629889 0.00784688)
(-0.0116843 0.11 0.0224458)
(-0.00874274 0.148362 0.0183475)
(-0.00773413 0.170558 -0.00665129)
(-0.00713634 0.178429 -0.0431671)
(-0.00558064 0.174578 -0.0761803)
(-0.00357023 0.164524 -0.0953804)
(-0.00182228 0.154171 -0.102813)
(-0.000558032 0.146747 -0.102162)
(0.000331519 0.144245 -0.095133)
(0.00132706 0.148035 -0.0829166)
(0.00286077 0.158961 -0.0668091)
(0.00514454 0.179035 -0.0471936)
(0.00824984 0.2139 -0.0235465)
(0.0120041 0.272813 0.000616729)
(0.0151022 0.355154 0.00631035)
(0.0138913 0.433631 -0.0206598)
(0.00881848 0.499138 -0.0394724)
(0.00445356 0.556233 -0.031053)
(0.00107236 0.57299 -0.0216279)
(-0.000925589 0.487647 -0.0132999)
(-0.00141108 -0.349542 0.0284184)
(-0.00415526 -0.46231 0.0370331)
(-0.00635123 -0.474773 0.0394635)
(-0.00778693 -0.46308 0.0405826)
(-0.00825681 -0.423671 0.0398646)
(-0.00593357 -0.35013 0.0322388)
(-0.00146496 -0.265956 0.0148901)
(0.00242494 -0.199448 -0.00441697)
(0.00515611 -0.153019 -0.01893)
(0.00748885 -0.120165 -0.0277348)
(0.00999977 -0.09564 -0.0320321)
(0.0131243 -0.0752155 -0.0330289)
(0.0172064 -0.0553679 -0.0311736)
(0.0225823 -0.033857 -0.0261935)
(0.0296066 -0.00965042 -0.0179915)
(0.0383959 0.0184691 -0.00862733)
(0.0479557 0.0506441 -0.00312289)
(0.0559992 0.0794701 -0.00149803)
(0.0606886 0.0986327 -0.000560225)
(0.0625197 0.110554 0.00424795)
(0.0617427 0.125454 0.019993)
(0.0572017 0.150752 0.032425)
(0.0502492 0.173868 0.0276852)
(0.0430823 0.186837 0.0109779)
(0.036227 0.19333 -0.00995967)
(0.0297499 0.199352 -0.0282187)
(0.0242999 0.208717 -0.0371796)
(0.02008 0.225352 -0.0347136)
(0.0167977 0.260121 -0.0181181)
(0.0153014 0.333908 0.0112229)
(0.0150239 0.442599 0.0197841)
(0.0116284 0.540255 -0.00536657)
(0.00728068 0.601866 -0.0187167)
(0.00349081 0.615001 -0.0175692)
(0.000855932 0.499359 -0.00322682)
(-0.000679435 -0.350992 0.0217291)
(-0.00247725 -0.474724 0.0239601)
(-0.00398506 -0.492117 0.0261682)
(-0.00478446 -0.486653 0.0295865)
(-0.00456321 -0.461988 0.0354933)
(-0.00154443 -0.404507 0.0414499)
(0.00511293 -0.313838 0.0368561)
(0.0118659 -0.227375 0.0199728)
(0.0162248 -0.16978 0.00255292)
(0.0189255 -0.136102 -0.00838201)
(0.0211146 -0.115465 -0.0129062)
(0.0233691 -0.100457 -0.0128066)
(0.0259857 -0.0865824 -0.00796862)
(0.0291239 -0.0709184 0.00602663)
(0.0319485 -0.0526294 0.0373763)