/*--------------------------------*- C++ -*----------------------------------*\
| =========                 |                                                 |
| \\      /  F ield         | OpenFOAM: The Open Source CFD Toolbox           |
|  \\    /   O peration     | Version:  v1906                                 |
|   \\  /    A nd           | Web:      www.OpenFOAM.com                      |
|    \\/     M anipulation  |                                                 |
\*---------------------------------------------------------------------------*/
FoamFile
{
    version     2.0;
    format      ascii;
    class       volScalarField;
    location    "2/sphere";
    object      T;
}
// * * * * * * * * * * * * * * * * * * * * * * * * * * * * * * * * * * * * * //

dimensions      [0 0 0 1 0 0 0];


internalField   nonuniform List<scalar> 
304
(
498.541
498.588
498.586
498.613
498.548
498.547
498.54
498.589
498.537
498.749
498.749
498.595
498.585
498.748
498.748
498.645
498.595
498.644
498.535
498.587
498.613
498.544
498.591
498.75
498.749
498.645
498.615
498.749
498.749
498.684
498.544
498.644
498.684
498.591
498.547
498.6
498.645
498.536
498.554
498.647
498.685
498.589
498.537
498.591
498.523
498.52
498.547
498.548
498.537
498.592
498.547
498.548
498.592
498.537
498.521
498.545
498.535
498.546
498.59
498.589
498.588
498.613
498.597
498.646
498.645
498.684
498.54
498.613
498.588
498.646
498.597
498.684
498.645
498.545
498.534
498.59
498.547
498.542
498.542
498.587
498.532
498.612
498.535
498.586
498.643
498.683
498.593
498.643
498.589
498.588
498.54
498.684
498.645
498.645
498.596
498.591
498.545
498.534
498.519
498.545
498.533
498.589
498.544
498.59
498.535
498.543
498.519
498.535
498.544
498.545
498.59
498.589
498.597
498.647
498.587
498.613
498.645
498.685
498.542
498.647
498.598
498.614
498.589
498.685
498.646
498.536
498.547
498.591
498.548
498.596
498.587
498.644
498.588
498.645
498.613
498.684
498.537
498.645
498.589
498.645
498.589
498.684
498.613
498.643
498.537
498.595
498.613
498.684
498.587
498.644
498.588
498.596
498.539
498.684
498.613
498.645
498.588
498.536
498.545
498.59
498.544
498.644
498.538
498.587
498.644
498.684
498.586
498.613
498.596
498.587
498.538
498.684
498.644
498.613
498.587
498.589
498.544
498.544
498.544
498.547
498.592
498.54
498.613
498.646
498.685
498.539
498.587
498.599
498.646
498.587
498.684
498.644
498.588
498.536
498.645
498.594
498.59
498.546
498.533
498.647
498.615
498.685
498.546
498.601
498.592
498.648
498.588
498.684
498.614
498.596
498.541
498.645
498.589
498.685
498.589
498.645
498.593
498.648
498.544
498.599
498.614
498.646
498.588
498.645
498.588
498.597
498.54
498.589
498.545
498.538
498.684
498.587
498.613
498.597
498.646
498.54
498.589
498.646
498.614
498.589
498.646
498.599
498.589
498.544
498.547
498.546
498.538
498.526
498.544
498.538
498.591
498.546
498.59
498.534
498.545
498.519
498.541
498.55
498.594
498.55
498.646
498.648
498.685
498.546
498.59
498.591
498.615
498.596
498.685
498.645
498.588
498.538
498.614
498.587
498.591
498.546
498.544
498.595
498.54
498.547
498.685
498.598
498.646
498.589
498.614
498.539
498.589
498.645
498.646
498.597
498.614
498.587
498.589
498.54
498.544
498.536
498.543
498.524
498.591
498.546
498.547
498.538
498.547
498.546
)
;

boundaryField
{
    sphere_to_oil
    {
        type            compressible::turbulentTemperatureCoupledBaffleMixed;
        refValue        nonuniform List<scalar> 
360
(
304.682
304.682
301.257
311.03
311.549
301.493
311.922
311.922
311.922
304.633
304.633
301.489
301.647
301.108
304.213
312.004
311.43
311.43
311.43
301.109
310.312
304.294
302.769
311.337
301.269
311.835
301.49
311.735
311.735
311.735
312.069
311.956
301.253
301.247
301.473
301.492
311.307
311.307
311.307
311.028
311.528
301.291
301.491
304.647
304.647
301.48
301.625
301.082
304.387
311.929
301.523
301.495
301.616
301.641
301.072
304.235
311.601
301.098
301.477
301.612
301.117
311.781
311.781
311.781
301.08
311.516
304.306
302.645
311.85
311.85
311.85
311.464
311.312
301.084
309.855
304.023
301.104
302.612
311.456
311.678
302.77
302.583
302.709
301.122
301.258
301.485
301.52
301.634
301.082
301.122
301.262
301.632
301.514
301.255
301.618
301.503
301.511
301.483
301.263
301.114
301.126
301.088
301.495
301.518
301.634
301.083
301.137
301.65
301.272
301.504
301.517
301.493
301.266
301.086
301.138
301.13
302.734
302.665
302.704
304.703
304.703
311.03
311.03
311.337
311.337
311.431
311.431
311.431
311.26
311.26
311.26
302.739
302.625
302.694
301.142
311.549
311.549
304.604
304.604
312.069
312.069
304.169
304.169
311.991
311.991
311.991
301.135
301.136
312.181
312.181
312.181
312.59
312.59
312.59
312.004
310.312
304.213
312.004
311.696
301.09
311.696
311.696
302.737
302.641
302.715
304.184
304.184
312.005
312.005
312.005
301.082
310.312
304.294
311.924
311.924
301.088
311.924
302.763
302.699
301.095
301.479
301.5
301.655
301.258
301.625
301.506
301.091
301.129
311.835
311.835
311.956
311.956
304.63
304.63
311.148
311.148
311.148
304.453
304.453
301.116
301.471
301.507
301.651
301.495
301.49
301.653
301.259
301.645
301.484
301.254
311.028
301.651
301.508
301.106
311.469
311.469
311.469
304.378
304.378
301.079
301.505
301.506
301.601
311.528
301.254
301.592
301.492
311.028
311.528
304.375
301.081
304.375
301.101
301.135
301.62
301.266
301.502
301.496
301.514
301.259
301.086
312.012
310.48
312.012
312.012
310.48
310.48
311.929
311.516
304.387
311.692
301.128
311.929
311.692
311.692
301.589
301.262
301.528
301.628
301.269
311.464
301.479
301.494
301.517
301.257
311.601
309.855
301.489
301.502
301.259
310.893
311.788
304.235
311.606
301.125
311.601
311.606
311.606
301.636
301.27
311.456
301.493
301.471
301.478
311.57
301.27
311.314
304.421
310.893
304.421
311.57
310.893
311.57
301.084
302.563
302.486
302.544
304.526
311.289
304.526
311.289
311.289
301.103
311.516
311.829
304.306
311.829
301.12
311.829
302.685
302.672
301.07
310.833
304.237
310.833
310.833
304.237
301.106
301.486
301.504
301.645
311.312
311.464
304.362
301.124
311.312
304.362
301.101
309.855
311.968
304.023
311.968
301.043
311.968
301.65
311.678
301.272
301.494
311.593
311.246
311.788
304.25
311.788
311.593
304.25
311.593
302.578
302.73
311.456
304.419
301.091
311.678
304.419
301.122
311.314
311.246
311.314
304.543
311.246
304.543
)
;
        refGradient     uniform 0;
        valueFraction   nonuniform List<scalar> 
360
(
0.000127481
0.0001223
7.82978e-05
0.000279726
0.000286886
0.00016449
0.00028867
0.00024778
0.000385704
0.000122793
0.000119721
0.000160604
0.000244764
6.99852e-05
0.000125195
0.000243374
0.000278905
0.000260592
0.000365687
6.40399e-05
0.000240091
0.000118027
0.000108783
0.000288685
8.38116e-05
0.000296735
0.00016725
0.000292902
0.000383334
0.00025641
0.000292954
0.000295476
7.93371e-05
7.84507e-05
0.000164627
0.000162008
0.000274159
0.000371689
0.000255219
0.000383766
0.000379081
8.09376e-05
0.000160535
0.000117169
0.000117028
0.000165258
0.000247241
6.59647e-05
0.000118033
0.000250295
0.000163025
0.000164084
0.000244581
0.000242205
6.84303e-05
0.000125186
0.000255296
6.55542e-05
0.000162397
0.000242167
6.4166e-05
0.000285119
0.000251686
0.000393939
6.61531e-05
0.000257339
0.000120033
0.0001161
0.000291705
0.000380557
0.000255975
0.000366979
0.000372116
7.10611e-05
0.000248095
0.000125855
6.5517e-05
0.000117486
0.000371323
0.000385738
0.000115231
0.000113057
0.000111046
6.59937e-05
7.95826e-05
0.00016134
0.000162243
0.000245698
7.41688e-05
6.2624e-05
7.87617e-05
0.000245298
0.000161936
8.04557e-05
0.000244892
0.000163786
0.000162816
0.000163066
7.95207e-05
6.37399e-05
6.4634e-05
6.37741e-05
0.000163947
0.000161138
0.000245113
7.21668e-05
6.26842e-05
0.000244935
7.78143e-05
0.000161391
0.000161422
0.000164714
8.05457e-05
6.44964e-05
6.29007e-05
6.4116e-05
0.000111608
0.000111742
0.000116084
0.000125872
0.000118302
0.000244449
0.000385108
0.000257545
0.000388651
0.000249111
0.000383011
0.000285165
0.000249312
0.000374674
0.000280839
0.000114548
0.000108327
0.000110954
6.12484e-05
0.00025403
0.000382496
0.000118331
0.000118872
0.000386547
0.000256992
0.000124045
0.000130737
0.000381789
0.000262257
0.000302205
6.74076e-05
6.273e-05
0.000264784
0.00036694
0.000290846
0.000272629
0.000379645
0.000290815
0.000300258
0.000276573
0.000129368
0.000385637
0.000249086
6.94424e-05
0.000374812
0.000280473
0.000107032
0.000112764
0.000111556
0.000117682
0.000123016
0.000383709
0.000252637
0.00029655
7.10987e-05
0.000369108
0.000126555
0.00038813
0.000248454
6.9448e-05
0.000294599
0.000107982
0.000108984
6.36733e-05
0.000166892
0.000166826
0.000246678
8.22624e-05
0.00024705
0.000162556
6.30193e-05
6.11939e-05
0.000386097
0.000245307
0.000381563
0.000254378
0.000121333
0.000113469
0.000383342
0.00023957
0.000276927
0.00011216
0.00013014
6.54716e-05
0.000163959
0.00016381
0.000244744
0.000160252
0.000161077
0.00024378
8.35593e-05
0.000244615
0.00016586
8.12588e-05
0.000275353
0.000244345
0.000164866
6.57048e-05
0.000374965
0.00024307
0.0002844
0.000118478
0.000110101
6.3597e-05
0.000162684
0.00016542
0.000245265
0.000278879
7.7993e-05
0.000242937
0.000158664
0.000241347
0.000255503
0.000115977
6.51415e-05
0.000128695
6.5947e-05
6.20766e-05
0.000248003
8.27671e-05
0.00016673
0.000164802
0.000162838
8.1727e-05
6.24269e-05
0.00025359
0.000237618
0.000398933
0.000296936
0.000372178
0.000267399
0.000286609
0.000293448
0.000130429
0.000251735
6.78199e-05
0.000383101
0.000372507
0.000283016
0.000246823
7.86499e-05
0.000160604
0.000243986
7.93547e-05
0.000290755
0.0001613
0.000162452
0.000160955
7.88732e-05
0.000288581
0.000270425
0.000164215
0.000159969
8.03924e-05
0.000270958
0.000298255
0.000118277
0.000267734
6.35827e-05
0.000381455
0.000369823
0.000279433
0.000242175
7.95595e-05
0.000279872
0.000161141
0.000161389
0.000162307
0.000281395
8.03047e-05
0.000287504
0.000120969
0.000247877
0.000121978
0.000252595
0.000384955
0.000377917
6.3553e-05
0.000127359
0.000125854
0.000123097
0.000112099
0.000375076
0.000122434
0.000249341
0.000293617
6.26266e-05
0.00037874
0.000378282
0.000123824
0.000268954
6.56303e-05
0.000288344
0.000109781
0.000107848
6.5576e-05
0.000370957
0.000110854
0.000243263
0.000286506
0.000118846
6.47868e-05
0.000161203
0.000161148
0.000243166
0.000278269
0.000241355
0.000116687
6.28095e-05
0.000245398
0.0001296
7.25407e-05
0.000355629
0.000381877
0.000112853
0.000242568
6.72486e-05
0.000305072
0.000245029
0.000293602
8.03137e-05
0.000161896
0.000283068
0.000274429
0.000258176
0.000115394
0.000378204
0.000377391
0.000136982
0.000252253
0.000110983
0.000112686
0.000253949
0.000125706
6.79649e-05
0.000256835
0.000121043
6.27645e-05
0.000373827
0.000378314
0.000248906
0.00012079
0.000244494
0.000124773
)
;
        value           nonuniform List<scalar> 
360
(
498.549
498.551
498.552
498.515
498.514
498.582
498.512
498.526
498.489
498.545
498.546
498.581
498.591
498.56
498.55
498.529
498.51
498.522
498.491
498.561
498.529
498.551
498.524
498.513
498.55
498.511
498.583
498.514
498.491
498.525
498.509
498.509
498.548
498.548
498.579
498.583
498.512
498.493
498.524
498.49
498.491
498.549
498.582
498.548
498.551
498.581
498.591
498.558
498.548
498.524
498.585
498.583
498.593
498.593
498.557
498.546
498.523
498.56
498.582
498.593
498.56
498.513
498.524
498.491
498.56
498.525
498.55
498.523
498.518
498.496
498.528
498.494
498.493
498.567
498.534
498.556
498.558
498.528
498.494
498.492
498.527
498.527
498.528
498.56
498.557
498.583
498.584
498.592
498.555
498.561
498.551
498.591
498.583
498.549
498.592
498.582
498.582
498.583
498.551
498.561
498.561
498.559
498.583
498.583
498.591
498.558
498.557
498.59
498.547
498.581
498.584
498.582
498.55
498.558
498.563
498.562
498.525
498.525
498.524
498.549
498.552
498.528
498.491
498.527
498.491
498.527
498.492
498.513
498.528
498.494
498.516
498.525
498.526
498.526
498.56
498.524
498.49
498.549
498.549
498.489
498.524
498.548
498.548
498.49
498.524
498.507
498.56
498.557
498.52
498.49
498.508
498.518
498.488
498.509
498.51
498.514
498.547
498.489
498.526
498.558
498.49
498.514
498.524
498.523
498.523
498.548
498.546
498.488
498.523
498.509
498.556
498.493
498.545
498.49
498.524
498.556
498.51
498.524
498.524
498.559
498.583
498.581
498.591
498.553
498.592
498.584
498.561
498.56
498.489
498.525
498.49
498.525
498.548
498.55
498.491
498.529
498.512
498.551
498.549
498.561
498.581
498.583
498.592
498.584
498.584
498.592
498.547
498.592
498.581
498.55
498.514
498.592
498.582
498.559
498.492
498.526
498.511
498.549
498.55
498.559
498.581
498.58
498.591
498.512
498.549
498.592
498.583
498.526
498.523
498.548
498.558
498.545
498.557
498.559
498.591
498.55
498.581
498.581
498.583
498.547
498.562
498.524
498.529
498.492
498.511
498.497
498.522
498.509
498.508
498.547
498.525
498.559
498.488
498.49
498.515
498.593
498.557
498.587
498.593
498.552
498.514
498.584
498.583
498.588
498.555
498.516
498.519
498.582
498.584
498.551
498.516
498.511
498.548
498.521
498.559
498.493
498.495
498.514
498.592
498.551
498.514
498.584
498.584
498.584
498.518
498.555
498.517
498.55
498.527
498.549
498.525
498.492
498.494
498.558
498.528
498.528
498.529
498.549
498.495
498.549
498.526
498.517
498.56
498.49
498.49
498.548
498.521
498.559
498.511
498.524
498.524
498.563
498.498
498.555
498.531
498.519
498.554
498.564
498.585
498.586
498.594
498.513
498.528
498.55
498.561
498.525
498.546
498.557
498.5
498.496
498.552
498.529
498.561
498.509
498.592
498.511
498.55
498.584
498.514
498.515
498.523
498.549
498.491
498.492
498.543
498.522
498.529
498.529
498.525
498.548
498.559
498.526
498.55
498.561
498.495
498.494
498.527
498.55
498.527
498.549
)
;
        Tnbr            T;
        thicknessLayers 0();
        kappaLayers     0();
        kappaMethod     solidThermo;
        kappa           none;
        alphaAni        none;
    }
}


// ************************************************************************* //
