/*--------------------------------*- C++ -*----------------------------------*\
| =========                 |                                                 |
| \\      /  F ield         | OpenFOAM: The Open Source CFD Toolbox           |
|  \\    /   O peration     | Version:  v1912                                 |
|   \\  /    A nd           | Website:  www.openfoam.com                      |
|    \\/     M anipulation  |                                                 |
\*---------------------------------------------------------------------------*/
FoamFile
{
    version     2.0;
    format      ascii;
    class       surfaceScalarField;
    location    "175/oil";
    object      phi;
}
// * * * * * * * * * * * * * * * * * * * * * * * * * * * * * * * * * * * * * //

dimensions      [1 0 -1 0 0 0 0];
oriented        oriented;


internalField   nonuniform List<scalar> 
80688
(
-1.29875e-06
-1.5541e-06
-1.30089e-06
-7.3089e-07
-4.2511e-07
-1.4275e-07
5.54858e-07
-7.04511e-07
-5.81238e-07
1.39242e-07
1.59236e-07
2.5638e-07
3.0896e-07
-1.29286e-07
-4.0432e-08
2.72463e-07
-2.065e-08
5.71459e-08
3.30892e-07
-6.23428e-08
3.91352e-09
3.41078e-07
-3.16706e-08
2.1485e-08
3.64179e-07
-3.18908e-08
8.79005e-09
3.62187e-07
-1.32015e-08
1.51927e-08
3.59256e-07
-7.23242e-09
1.01633e-08
3.38558e-07
6.45058e-09
1.42483e-08
3.14525e-07
1.23224e-08
1.17103e-08
2.80248e-07
2.04054e-08
1.38718e-08
2.42317e-07
2.47448e-08
1.31856e-08
2.02864e-07
2.63493e-08
1.31037e-08
1.59648e-07
2.90219e-08
1.41943e-08
1.23233e-07
2.4378e-08
1.2037e-08
8.32239e-08
2.52828e-08
1.47262e-08
5.64005e-08
1.56471e-08
1.11763e-08
2.63641e-08
1.48939e-08
1.51425e-08
1.26163e-08
2.22059e-09
1.15272e-08
-4.12196e-09
1.38809e-10
1.65994e-08
-6.32006e-09
-1.20314e-08
1.42295e-08
-1.22793e-08
-1.41305e-08
2.00897e-08
-8.04924e-09
-2.4132e-08
1.99019e-08
-8.66193e-09
-2.53561e-08
2.59687e-08
-4.51575e-09
-3.06751e-08
2.65289e-08
-3.52873e-09
-2.72026e-08
2.62155e-08
-1.93693e-08
1.58406e-08
-1.77401e-07
-1.1941e-06
-1.82598e-07
3.44648e-07
-6.60944e-08
-8.81065e-07
-4.89746e-08
-4.16936e-07
1.06048e-07
2.97625e-07
-2.031e-07
1.57354e-08
3.57145e-07
-2.58346e-07
6.95393e-08
4.73978e-07
-2.04609e-07
6.71264e-08
5.4435e-07
-1.96642e-07
6.39272e-08
5.95658e-07
-1.55895e-07
7.29173e-08
6.29979e-07
-1.35614e-07
6.94016e-08
6.34093e-07
-9.67476e-08
7.94315e-08
6.251e-07
-7.60146e-08
7.77751e-08
5.89132e-07
-4.40417e-08
8.64602e-08
5.42546e-07
-2.70374e-08
8.59457e-08
4.79048e-07
-7.10105e-09
9.10046e-08
4.08001e-07
4.65131e-09
9.11402e-08
3.33876e-07
9.05913e-09
9.14151e-08
2.55707e-07
1.48472e-08
9.2344e-08
1.87432e-07
4.96763e-09
8.76855e-08
1.18134e-07
5.32768e-09
8.92534e-08
6.90115e-08
-1.67539e-08
8.15232e-08
2.08999e-08
-2.08901e-08
8.38955e-08
-3.30251e-09
-4.89778e-08
7.54008e-08
-2.66393e-08
-5.5261e-08
7.87365e-08
-2.86491e-08
-8.21532e-08
7.21315e-08
-3.31168e-08
-8.66314e-08
7.69685e-08
-2.43544e-08
-1.06337e-07
7.34423e-08
-2.17841e-08
-1.06437e-07
7.8511e-08
-1.43908e-08
-1.13266e-07
7.51978e-08
-1.01306e-08
-9.75867e-08
6.61239e-08
-6.4245e-08
3.47451e-08
-6.07339e-07
2.71109e-08
-6.13873e-07
-5.46291e-08
-7.1579e-07
9.69852e-08
1.77654e-07
-5.34607e-07
-1.14613e-07
3.14148e-07
-4.73809e-07
1.34215e-07
4.71453e-07
-4.65041e-07
4.93901e-08
5.5524e-07
-3.97484e-07
1.09087e-07
6.49801e-07
-3.77191e-07
8.59874e-08
6.97781e-07
-3.11041e-07
1.07166e-07
7.38453e-07
-2.7734e-07
1.01054e-07
7.39439e-07
-2.12693e-07
1.14959e-07
7.26988e-07
-1.77347e-07
1.13784e-07
6.82149e-07
-1.23871e-07
1.24669e-07
6.24562e-07
-9.46683e-08
1.25218e-07
5.474e-07
-6.15307e-08
1.31593e-07
4.61423e-07
-4.21294e-08
1.32757e-07
3.71686e-07
-3.41081e-08
1.32904e-07
2.77773e-07
-2.53383e-08
1.34099e-07
1.95971e-07
-4.1735e-08
1.28505e-07
1.14478e-07
-4.30127e-08
1.29833e-07
5.6385e-08
-7.86594e-08
1.19999e-07
1.48134e-09
-8.77851e-08
1.21799e-07
-2.57609e-08
-1.32925e-07
1.1119e-07
-5.03574e-08
-1.44632e-07
1.13967e-07
-5.04313e-08
-1.86956e-07
1.04876e-07
-5.22453e-08
-1.93523e-07
1.08706e-07
-3.9256e-08
-2.2217e-07
1.02844e-07
-3.28834e-08
-2.19324e-07
1.06514e-07
-2.1649e-08
-2.24909e-07
1.00408e-07
-1.34682e-08
-1.91659e-07
8.58918e-08
-1.20702e-07
4.29886e-08
2.72016e-07
-5.10248e-07
2.65343e-07
1.9562e-07
-6.7862e-07
3.92261e-08
2.81851e-07
-7.74307e-07
1.53468e-07
4.25347e-07
-7.22336e-07
1.0503e-07
5.44916e-07
-7.12931e-07
1.2832e-07
6.60955e-07
-6.45705e-07
1.32183e-07
7.53783e-07
-6.07162e-07
1.37144e-07
8.14097e-07
-5.23739e-07
1.52384e-07
8.52987e-07
-4.70847e-07
1.54618e-07
8.50131e-07
-3.82151e-07
1.72315e-07
8.26858e-07
-3.28891e-07
1.74817e-07
7.65992e-07
-2.53469e-07
1.90464e-07
6.88617e-07
-2.10106e-07
1.92813e-07
5.87971e-07
-1.62889e-07
2.02004e-07
4.77138e-07
-1.34638e-07
2.03342e-07
3.62813e-07
-1.23253e-07
2.03469e-07
2.45338e-07
-1.11527e-07
2.03664e-07
1.43592e-07
-1.35081e-07
1.95093e-07
4.48224e-08
-1.38623e-07
1.9438e-07
-2.42813e-08
-1.89323e-07
1.79767e-07
-8.69588e-08
-2.03933e-07
1.78825e-07
-1.14923e-07
-2.67218e-07
1.62257e-07
-1.37607e-07
-2.84143e-07
1.62195e-07
-1.30232e-07
-3.41702e-07
1.47372e-07
-1.22626e-07
-3.49399e-07
1.4827e-07
-9.66786e-08
-3.85573e-07
1.37455e-07
-7.65956e-08
-3.77855e-07
1.38448e-07
-5.03101e-08
-3.79809e-07
1.28614e-07
-2.69087e-08
-3.24768e-07
1.09707e-07
-2.04538e-07
5.69279e-08
8.20539e-09
-5.20176e-07
1.72198e-09
1.66403e-07
-9.51585e-07
1.14768e-07
3.11874e-07
-1.00547e-06
8.56967e-08
4.59739e-07
-1.01113e-06
1.40931e-07
6.04265e-07
-9.80765e-07
1.23307e-07
7.14543e-07
-9.07642e-07
1.51659e-07
8.15733e-07
-8.54505e-07
1.46152e-07
8.72122e-07
-7.47196e-07
1.67068e-07
9.11843e-07
-6.76433e-07
1.65865e-07
9.03889e-07
-5.5924e-07
1.85042e-07
8.76532e-07
-4.87671e-07
1.86137e-07
8.08196e-07
-3.87488e-07
2.02355e-07
7.23212e-07
-3.29599e-07
2.04476e-07
6.13468e-07
-2.66997e-07
2.13853e-07
4.93237e-07
-2.30324e-07
2.15917e-07
3.6984e-07
-2.15524e-07
2.15667e-07
2.42909e-07
-2.01778e-07
2.17182e-07
1.33652e-07
-2.33577e-07
2.07753e-07
2.72233e-08
-2.40857e-07
2.08662e-07
-4.66641e-08
-3.083e-07
1.92865e-07
-1.1395e-07
-3.30277e-07
1.93631e-07
-1.43234e-07
-4.13773e-07
1.75839e-07
-1.66838e-07
-4.37803e-07
1.77264e-07
-1.57393e-07
-5.12274e-07
1.61126e-07
-1.47256e-07
-5.22293e-07
1.62757e-07
-1.16412e-07
-5.66923e-07
1.50507e-07
-9.11817e-08
-5.5463e-07
1.51545e-07
-5.87328e-08
-5.5261e-07
1.40352e-07
-2.97467e-08
-4.73114e-07
1.1936e-07
-2.95349e-07
6.10638e-08
1.36398e-07
-7.85943e-07
1.29369e-07
2.53145e-07
-1.21449e-06
1.46154e-07
4.21122e-07
-1.35047e-06
1.7702e-07
5.7757e-07
-1.34144e-06
1.73862e-07
7.34592e-07
-1.32013e-06
1.82345e-07
8.61153e-07
-1.23288e-06
1.98673e-07
9.71185e-07
-1.16895e-06
2.04411e-07
1.03304e-06
-1.03886e-06
2.29799e-07
1.07091e-06
-9.49227e-07
2.34933e-07
1.05293e-06
-8.04713e-07
2.63449e-07
1.00972e-06
-7.13503e-07
2.69037e-07
9.17011e-07
-5.89175e-07
2.944e-07
8.03992e-07
-5.158e-07
2.99221e-07
6.61148e-07
-4.38212e-07
3.14059e-07
5.06847e-07
-3.92568e-07
3.16545e-07
3.49838e-07
-3.74705e-07
3.16189e-07
1.90697e-07
-3.5874e-07
3.16104e-07
5.4696e-08
-3.98911e-07
3.01335e-07
-7.52765e-08
-4.09819e-07
2.98934e-07
-1.63785e-07
-4.93831e-07
2.7404e-07
-2.41741e-07
-5.22864e-07
2.70543e-07
-2.72289e-07
-6.25639e-07
2.42414e-07
-2.9351e-07
-6.56113e-07
2.39531e-07
-2.73739e-07
-7.46047e-07
2.14002e-07
-2.50527e-07
-7.57294e-07
2.11788e-07
-2.01013e-07
-8.08785e-07
1.92347e-07
-1.55606e-07
-7.90733e-07
1.90697e-07
-1.00522e-07
-7.82958e-07
1.75264e-07
-4.91699e-08
-6.74967e-07
1.50501e-07
-4.25779e-07
8.12597e-08
1.01803e-07
-9.82101e-07
9.43549e-08
2.72612e-07
-1.54758e-06
1.62289e-07
4.55585e-07
-1.70493e-06
1.71488e-07
6.31367e-07
-1.70954e-06
1.92316e-07
8.00951e-07
-1.67949e-06
1.89771e-07
9.32753e-07
-1.57883e-06
2.14154e-07
1.04817e-06
-1.49931e-06
2.14944e-07
1.10873e-06
-1.34237e-06
2.42955e-07
1.14585e-06
-1.23124e-06
2.44893e-07
1.12202e-06
-1.05522e-06
2.74339e-07
1.07334e-06
-9.42587e-07
2.77767e-07
9.71801e-07
-7.9125e-07
3.03613e-07
8.50246e-07
-7.01981e-07
3.07736e-07
6.97548e-07
-6.08187e-07
3.22673e-07
5.33174e-07
-5.5439e-07
3.26198e-07
3.66819e-07
-5.33584e-07
3.25233e-07
1.97328e-07
-5.16878e-07
3.27629e-07
5.32658e-08
-5.66491e-07
3.11642e-07
-8.6037e-08
-5.82997e-07
3.12481e-07
-1.80471e-07
-6.85317e-07
2.8592e-07
-2.65255e-07
-7.23814e-07
2.85733e-07
-2.98765e-07
-8.48013e-07
2.55885e-07
-3.23231e-07
-8.87388e-07
2.55741e-07
-3.02849e-07
-9.94839e-07
2.2841e-07
-2.78583e-07
-1.00934e-06
2.27785e-07
-2.24494e-07
-1.06951e-06
2.0664e-07
-1.73776e-07
-1.04735e-06
2.05896e-07
-1.11353e-07
-1.03496e-06
1.89577e-07
-5.30769e-08
-8.96715e-07
1.63472e-07
-5.66741e-07
8.78859e-08
1.52198e-07
-1.27848e-06
1.44177e-07
3.53506e-07
-1.95971e-06
2.10817e-07
5.79814e-07
-2.16448e-06
2.33243e-07
7.86056e-07
-2.16377e-06
2.47983e-07
9.86527e-07
-2.1354e-06
2.55442e-07
1.14011e-06
-2.01935e-06
2.86938e-07
1.27225e-06
-1.92882e-06
2.9737e-07
1.33829e-06
-1.74856e-06
3.4015e-07
1.37378e-06
-1.61824e-06
3.51502e-07
1.33464e-06
-1.41504e-06
3.98966e-07
1.26373e-06
-1.28256e-06
4.10876e-07
1.12727e-06
-1.10821e-06
4.53418e-07
9.66414e-07
-1.00443e-06
4.63312e-07
7.67281e-07
-8.97271e-07
4.88217e-07
5.55761e-07
-8.3599e-07
4.93119e-07
3.43054e-07
-8.12914e-07
4.92038e-07
1.29182e-07
-7.94692e-07
4.91685e-07
-5.15094e-08
-8.51886e-07
4.66088e-07
-2.23085e-07
-8.71848e-07
4.60426e-07
-3.37462e-07
-9.88483e-07
4.17543e-07
-4.36955e-07
-1.03322e-06
4.08903e-07
-4.72425e-07
-1.1735e-06
3.60958e-07
-4.94224e-07
-1.2178e-06
3.52215e-07
-4.60607e-07
-1.33704e-06
3.08581e-07
-4.196e-07
-1.35075e-06
3.004e-07
-3.41048e-07
-1.41507e-06
2.67001e-07
-2.63429e-07
-1.38625e-06
2.61286e-07
-1.70025e-07
-1.36683e-06
2.3847e-07
-8.0606e-08
-1.19384e-06
2.07707e-07
-7.64981e-07
1.17633e-07
1.60978e-07
-1.59158e-06
1.52123e-07
3.92749e-07
-2.42295e-06
2.31468e-07
6.39777e-07
-2.66226e-06
2.50751e-07
8.66614e-07
-2.66281e-06
2.72203e-07
1.08061e-06
-2.62756e-06
2.78166e-07
1.24195e-06
-2.49607e-06
3.15387e-07
1.37845e-06
-2.39054e-06
3.25217e-07
1.44249e-06
-2.18446e-06
3.71854e-07
1.47448e-06
-2.03192e-06
3.81696e-07
1.42621e-06
-1.79845e-06
4.31677e-07
1.34626e-06
-1.64443e-06
4.41819e-07
1.19737e-06
-1.44529e-06
4.8597e-07
1.02524e-06
-1.32748e-06
4.95185e-07
8.14171e-07
-1.2069e-06
5.20688e-07
5.91256e-07
-1.14025e-06
5.27179e-07
3.68492e-07
-1.1155e-06
5.25351e-07
1.43048e-07
-1.09802e-06
5.28768e-07
-4.67122e-08
-1.16317e-06
5.01039e-07
-2.29837e-07
-1.18865e-06
4.99927e-07
-3.52144e-07
-1.31995e-06
4.53778e-07
-4.61582e-07
-1.37275e-06
4.48969e-07
-5.02759e-07
-1.52938e-06
3.97056e-07
-5.31092e-07
-1.57985e-06
3.90378e-07
-4.99533e-07
-1.71071e-06
3.42109e-07
-4.59879e-07
-1.72397e-06
3.33564e-07
-3.77547e-07
-1.79266e-06
2.95259e-07
-2.93883e-07
-1.75833e-06
2.88413e-07
-1.90036e-07
-1.73366e-06
2.62985e-07
-8.92947e-08
-1.52454e-06
2.29961e-07
-9.85256e-07
1.30981e-07
2.11705e-07
-2.005e-06
2.01714e-07
4.98394e-07
-3.00539e-06
2.95755e-07
8.01385e-07
-3.28835e-06
3.23095e-07
1.07316e-06
-3.28854e-06
3.53961e-07
1.3273e-06
-3.25459e-06
3.72885e-07
1.51622e-06
-3.11553e-06
4.30536e-07
1.67381e-06
-3.00526e-06
4.5713e-07
1.74354e-06
-2.78524e-06
5.31049e-07
1.77235e-06
-2.61977e-06
5.59046e-07
1.70273e-06
-2.36862e-06
6.3978e-07
1.59242e-06
-2.20137e-06
6.67257e-07
1.39689e-06
-1.98919e-06
7.39429e-07
1.17312e-06
-1.86459e-06
7.60872e-07
9.02128e-07
-1.73908e-06
8.03178e-07
6.19541e-07
-1.67088e-06
8.1321e-07
3.38703e-07
-1.64605e-06
8.11391e-07
5.78244e-08
-1.62739e-06
8.10253e-07
-1.77467e-07
-1.69436e-06
7.66487e-07
-4.00727e-07
-1.71819e-06
7.52804e-07
-5.47896e-07
-1.85216e-06
6.79374e-07
-6.75773e-07
-1.9026e-06
6.57723e-07
-7.19978e-07
-2.0607e-06
5.75525e-07
-7.46149e-07
-2.10507e-06
5.51393e-07
-7.00119e-07
-2.23222e-06
4.75484e-07
-6.42096e-07
-2.23289e-06
4.50896e-07
-5.31485e-07
-2.2939e-06
3.90628e-07
-4.15141e-07
-2.24641e-06
3.7174e-07
-2.70917e-07
-2.21155e-06
3.3366e-07
-1.27664e-07
-1.96017e-06
2.92372e-07
-1.28643e-06
1.73507e-07
2.40491e-07
-2.47443e-06
2.2894e-07
5.65607e-07
-3.66471e-06
3.34207e-07
9.00188e-07
-3.98885e-06
3.65919e-07
1.19526e-06
-3.99022e-06
4.06605e-07
1.46402e-06
-3.95777e-06
4.34415e-07
1.65948e-06
-3.81648e-06
5.05489e-07
1.8187e-06
-3.70518e-06
5.40702e-07
1.88258e-06
-3.47563e-06
6.26512e-07
1.90217e-06
-3.29979e-06
6.60426e-07
1.81656e-06
-3.03389e-06
7.50893e-07
1.68991e-06
-2.85652e-06
7.81792e-07
1.47533e-06
-2.63552e-06
8.60914e-07
1.2361e-06
-2.50977e-06
8.84423e-07
9.514e-07
-2.38462e-06
9.30232e-07
6.58045e-07
-2.32075e-06
9.43225e-07
3.69106e-07
-2.29825e-06
9.41131e-07
7.82505e-08
-2.28081e-06
9.44277e-07
-1.65135e-07
-2.34681e-06
8.95838e-07
-4.0099e-07
-2.36758e-06
8.8524e-07
-5.5812e-07
-2.49835e-06
8.03322e-07
-6.99438e-07
-2.54241e-06
7.81126e-07
-7.53477e-07
-2.69437e-06
6.87704e-07
-7.91173e-07
-2.7262e-06
6.58824e-07
-7.52504e-07
-2.8406e-06
5.69714e-07
-7.01332e-07
-2.8202e-06
5.36138e-07
-5.90942e-07
-2.86567e-06
4.61384e-07
-4.69421e-07
-2.80007e-06
4.32135e-07
-3.10194e-07
-2.75439e-06
3.83616e-07
-1.47027e-07
-2.45763e-06
3.34293e-07
-1.6337e-06
2.00244e-07
3.06554e-07
-3.07389e-06
2.92911e-07
7.0488e-07
-4.48492e-06
4.21876e-07
1.10585e-06
-4.85968e-06
4.6986e-07
1.4519e-06
-4.87264e-06
5.36362e-07
1.76312e-06
-4.86177e-06
5.92789e-07
1.98747e-06
-4.7443e-06
7.03475e-07
2.16817e-06
-4.65928e-06
7.73398e-07
2.23627e-06
-4.45101e-06
9.07279e-07
2.24842e-06
-4.29191e-06
9.79975e-07
2.13375e-06
-4.04267e-06
1.12344e-06
1.96701e-06
-3.88182e-06
1.19204e-06
1.69477e-06
-3.68189e-06
1.31862e-06
1.39426e-06
-3.57867e-06
1.3694e-06
1.04223e-06
-3.47616e-06
1.44357e-06
6.85157e-07
-3.42956e-06
1.46589e-06
3.3589e-07
-3.41382e-06
1.46484e-06
-1.19703e-08
-3.3924e-06
1.45945e-06
-3.02998e-07
-3.44056e-06
1.38477e-06
-5.81063e-07
-3.437e-06
1.34749e-06
-7.64971e-07
-3.53377e-06
1.21933e-06
-9.26812e-07
-3.54135e-06
1.16078e-06
-9.8552e-07
-3.65085e-06
1.01519e-06
-1.02319e-06
-3.63725e-06
9.48717e-07
-9.72782e-07
-3.70236e-06
8.11347e-07
-9.07537e-07
-3.62871e-06
7.43265e-07
-7.72857e-07
-3.62803e-06
6.27678e-07
-6.20385e-07
-3.52164e-06
5.69104e-07
-4.15824e-07
-3.45141e-06
4.92454e-07
-1.99179e-07
-3.09779e-06
4.23513e-07
-2.09238e-06
2.59506e-07
3.5843e-07
-3.77433e-06
3.42006e-07
8.09283e-07
-5.42832e-06
4.92549e-07
1.24859e-06
-5.86037e-06
5.61381e-07
1.61692e-06
-5.89903e-06
6.58062e-07
1.9407e-06
-5.93284e-06
7.47285e-07
2.16958e-06
-5.86799e-06
8.94813e-07
2.34931e-06
-5.83796e-06
9.98944e-07
2.40648e-06
-5.67945e-06
1.17127e-06
2.40036e-06
-5.56462e-06
1.27884e-06
2.25782e-06
-5.36023e-06
1.4601e-06
2.06157e-06
-5.24395e-06
1.55838e-06
1.75925e-06
-5.09415e-06
1.71458e-06
1.43757e-06
-5.04168e-06
1.78469e-06
1.07297e-06
-4.98714e-06
1.87557e-06
7.12542e-07
-4.97721e-06
1.90808e-06
3.65862e-07
-4.97612e-06
1.90898e-06
1.83691e-08
-4.94789e-06
1.90298e-06
-2.73102e-07
-4.96134e-06
1.81225e-06
-5.60002e-07
-4.91131e-06
1.7612e-06
-7.53974e-07
-4.9426e-06
1.6028e-06
-9.31721e-07
-4.88146e-06
1.51786e-06
-1.00461e-06
-4.91192e-06
1.33397e-06
-1.05863e-06
-4.81721e-06
1.23398e-06
-1.02181e-06
-4.79629e-06
1.05711e-06
-9.71444e-07
-4.63332e-06
9.54247e-07
-8.47001e-07
-4.55265e-06
8.00174e-07
-6.98409e-07
-4.37701e-06
7.06771e-07
-4.80618e-07
-4.2666e-06
5.97401e-07
-2.3639e-07
-3.84418e-06
5.0216e-07
-2.63675e-06
3.07979e-07
4.40166e-07
-4.63446e-06
4.19964e-07
9.67364e-07
-6.56367e-06
6.08155e-07
1.46659e-06
-7.07583e-06
7.16233e-07
1.87883e-06
-7.18091e-06
8.69642e-07
2.24219e-06
-7.31593e-06
1.01974e-06
2.50095e-06
-7.36884e-06
1.2421e-06
2.70185e-06
-7.46008e-06
1.42122e-06
2.7586e-06
-7.42334e-06
1.68714e-06
2.73505e-06
-7.42585e-06
1.88478e-06
2.55044e-06
-7.3444e-06
2.16879e-06
2.29999e-06
-7.34736e-06
2.35386e-06
1.93039e-06
-7.32255e-06
2.59801e-06
1.54539e-06
-7.38762e-06
2.73093e-06
1.12275e-06
-7.43838e-06
2.87389e-06
7.17316e-07
-7.50272e-06
2.93094e-06
3.34291e-07
-7.52898e-06
2.93589e-06
-4.73879e-08
-7.47711e-06
2.9109e-06
-3.68845e-07
-7.41149e-06
2.77161e-06
-6.8648e-07
-7.25289e-06
2.65922e-06
-9.02592e-07
-7.14018e-06
2.41369e-06
-1.10042e-06
-6.92705e-06
2.24342e-06
-1.18108e-06
-6.78911e-06
1.95785e-06
-1.23895e-06
-6.52902e-06
1.76968e-06
-1.19468e-06
-6.33989e-06
1.49933e-06
-1.13687e-06
-6.01291e-06
1.32179e-06
-1.00026e-06
-5.78107e-06
1.0918e-06
-8.38507e-07
-5.47473e-06
9.3597e-07
-5.91995e-07
-5.28032e-06
7.67209e-07
-3.00707e-07
-4.76202e-06
6.26561e-07
-3.32106e-06
3.83598e-07
5.08605e-07
-5.62653e-06
4.83468e-07
1.07594e-06
-7.83908e-06
7.08079e-07
1.59782e-06
-8.46331e-06
8.65605e-07
2.02895e-06
-8.69764e-06
1.08559e-06
2.41411e-06
-9.01016e-06
1.30907e-06
2.68838e-06
-9.25807e-06
1.61497e-06
2.88895e-06
-9.54723e-06
1.88658e-06
2.92311e-06
-9.71469e-06
2.25719e-06
2.85961e-06
-9.92536e-06
2.56301e-06
2.62199e-06
-1.00598e-05
2.95306e-06
2.31709e-06
-1.02746e-05
3.2322e-06
1.90046e-06
-1.04631e-05
3.55713e-06
1.49122e-06
-1.07299e-05
3.75149e-06
1.07077e-06
-1.0958e-05
3.94004e-06
6.92604e-07
-1.11497e-05
4.02517e-06
3.51855e-07
-1.12241e-05
4.03583e-06
9.88476e-09
-1.11286e-05
3.99341e-06
-2.83261e-07
-1.09291e-05
3.81079e-06
-5.91166e-07
-1.05836e-05
3.63858e-06
-8.11591e-07
-1.02313e-05
3.3115e-06
-1.02788e-06
-9.75976e-06
3.049e-06
-1.13184e-06
-9.34417e-06
2.65901e-06
-1.21416e-06
-8.81147e-06
2.36477e-06
-1.1862e-06
-8.35903e-06
1.99117e-06
-1.14035e-06
-7.78043e-06
1.72167e-06
-1.01549e-06
-7.31421e-06
1.40828e-06
-8.74004e-07
-6.79433e-06
1.17812e-06
-6.45206e-07
-6.45064e-06
9.41524e-07
-3.51199e-07
-5.80092e-06
7.4489e-07
-4.12236e-06
4.50101e-07
5.66127e-07
-6.72695e-06
5.34298e-07
1.14349e-06
-9.20743e-06
7.90982e-07
1.67636e-06
-9.99858e-06
1.0024e-06
2.14519e-06
-1.0472e-05
1.30553e-06
2.58348e-06
-1.10731e-05
1.62461e-06
2.89248e-06
-1.16215e-05
2.05443e-06
3.09328e-06
-1.22114e-05
2.46337e-06
3.08869e-06
-1.2706e-05
2.99591e-06
2.966e-06
-1.32606e-05
3.45796e-06
2.65383e-06
-1.37505e-05
4.00285e-06
2.27671e-06
-1.43084e-05
4.41091e-06
1.79692e-06
-1.48318e-05
4.8485e-06
1.35624e-06
-1.54133e-05
5.12416e-06
9.40872e-07
-1.59142e-05
5.37155e-06
6.07759e-07
-1.63034e-05
5.48675e-06
3.35495e-07
-1.64531e-05
5.50135e-06
5.81496e-08
-1.62841e-05
5.43293e-06
-1.87012e-07
-1.58739e-05
5.18997e-06
-4.72399e-07
-1.52314e-05
4.93327e-06
-6.90557e-07
-1.45042e-05
4.4911e-06
-9.27725e-07
-1.36229e-05
4.10029e-06
-1.06112e-06
-1.27692e-05
3.5584e-06
-1.17689e-06
-1.18083e-05
3.11261e-06
-1.16366e-06
-1.09536e-05
2.58134e-06
-1.11267e-06
-1.00094e-05
2.178e-06
-9.72587e-07
-9.19826e-06
1.74396e-06
-8.38454e-07
-8.34925e-06
1.42078e-06
-6.48776e-07
-7.74454e-06
1.10422e-06
-3.91569e-07
-6.90847e-06
8.50346e-07
-5.01935e-06
5.05429e-07
5.63955e-07
-7.81385e-06
5.22941e-07
1.05767e-06
-1.04648e-05
7.63626e-07
1.55203e-06
-1.14948e-05
1.00191e-06
2.0518e-06
-1.23429e-05
1.37108e-06
2.53055e-06
-1.3339e-05
1.78717e-06
2.82962e-06
-1.42669e-05
2.34637e-06
2.9552e-06
-1.52374e-05
2.90043e-06
2.83711e-06
-1.6166e-05
3.57812e-06
2.59868e-06
-1.71887e-05
4.16657e-06
2.18984e-06
-1.81512e-05
4.80952e-06
1.74905e-06
-1.91568e-05
5.28922e-06
1.25285e-06
-2.0106e-05
5.77045e-06
8.60834e-07
-2.10907e-05
6.0694e-06
5.66021e-07
-2.19412e-05
6.32193e-06
4.23341e-07
-2.25965e-05
6.43585e-06
3.80019e-07
-2.28562e-05
6.44639e-06
3.15537e-07
-2.25909e-05
6.37129e-06
2.3649e-07
-2.19073e-05
6.11244e-06
5.83393e-08
-2.08779e-05
5.82463e-06
-1.15022e-07
-1.96669e-05
5.33607e-06
-3.66273e-07
-1.82471e-05
4.8755e-06
-5.62748e-07
-1.68153e-05
4.24258e-06
-7.70158e-07
-1.52793e-05
3.67845e-06
-8.38067e-07
-1.38973e-05
3.01159e-06
-8.25729e-07
-1.24925e-05
2.47078e-06
-6.88083e-07
-1.12526e-05
1.91667e-06
-5.78132e-07
-9.96418e-06
1.50499e-06
-4.9327e-07
-8.96376e-06
1.13436e-06
-3.77704e-07
-7.88098e-06
8.56945e-07
-5.90479e-06
5.07733e-07
3.96208e-07
-8.55328e-06
3.43231e-07
6.54657e-07
-1.11858e-05
4.62624e-07
1.03828e-06
-1.25465e-05
6.68067e-07
1.52251e-06
-1.38974e-05
1.07037e-06
1.95787e-06
-1.53497e-05
1.57541e-06
2.11904e-06
-1.66902e-05
2.26216e-06
2.0416e-06
-1.80888e-05
2.92886e-06
1.71946e-06
-1.95346e-05
3.69074e-06
1.33366e-06
-2.11079e-05
4.30506e-06
8.52233e-07
-2.26111e-05
4.94142e-06
4.2401e-07
-2.41075e-05
5.37892e-06
2.80854e-08
-2.55179e-05
5.80796e-06
-1.64102e-07
-2.69394e-05
6.04101e-06
-1.54961e-07
-2.81766e-05
6.22634e-06
1.13857e-07
-2.91505e-05
6.28527e-06
5.33765e-07
-2.95535e-05
6.27755e-06
8.94802e-07
-2.91826e-05
6.23079e-06
1.15846e-06
-2.81884e-05
6.01759e-06
1.22365e-06
-2.67301e-05
5.78709e-06
1.19293e-06
-2.49832e-05
5.34712e-06
9.75711e-07
-2.29631e-05
4.93326e-06
7.16144e-07
-2.08701e-05
4.31451e-06
3.61016e-07
-1.86589e-05
3.73472e-06
1.15206e-07
-1.6648e-05
2.99663e-06
-1.74108e-08
-1.47157e-05
2.35581e-06
3.79713e-08
-1.29997e-05
1.69173e-06
7.28322e-08
-1.12078e-05
1.20876e-06
-3.02927e-08
-9.68904e-06
8.28413e-07
-2.11218e-07
-8.29292e-06
5.92869e-07
-6.46204e-06
3.46032e-07
-2.88075e-08
-8.43197e-06
-9.24921e-08
-2.03933e-07
-1.08007e-05
-2.09929e-07
-5.8003e-08
-1.26141e-05
-7.82901e-08
2.31778e-07
-1.45101e-05
3.22877e-07
3.74895e-07
-1.6391e-05
8.9817e-07
1.46022e-07
-1.81157e-05
1.6544e-06
-3.14217e-07
-1.99636e-05
2.33518e-06
-9.14325e-07
-2.19575e-05
3.02313e-06
-1.4288e-06
-2.40878e-05
3.49451e-06
-1.87341e-06
-2.61136e-05
3.94728e-06
-2.11681e-06
-2.80596e-05
4.19569e-06
-2.18831e-06
-2.98888e-05
4.44261e-06
-1.92985e-06
-3.17074e-05
4.50978e-06
-1.33707e-06
-3.33131e-05
4.544e-06
-3.40473e-07
-3.46352e-05
4.48846e-06
8.64625e-07
-3.52025e-05
4.44419e-06
1.94315e-06
-3.47292e-05
4.46837e-06
2.79694e-06
-3.34185e-05
4.37657e-06
3.31145e-06
-3.15529e-05
4.30856e-06
3.58481e-06
-2.93102e-05
4.0538e-06
3.51632e-06
-2.67349e-05
3.84048e-06
3.24501e-06
-2.40139e-05
3.41526e-06
2.72277e-06
-2.11257e-05
2.98914e-06
2.18627e-06
-1.84517e-05
2.34021e-06
1.71261e-06
-1.59478e-05
1.70581e-06
1.47063e-06
-1.37559e-05
9.98258e-07
1.25203e-06
-1.14669e-05
4.77729e-07
8.30868e-07
-9.40003e-06
1.32177e-07
1.74099e-07
-7.61673e-06
-1.94007e-08
-6.23265e-06
-5.52667e-08
-8.77424e-07
-6.61887e-06
-9.35622e-07
-1.8421e-06
-8.50277e-06
-1.33324e-06
-2.28986e-06
-1.09289e-05
-1.23744e-06
-2.64815e-06
-1.32765e-05
-8.75121e-07
-3.22202e-06
-1.55056e-05
-3.11342e-07
-4.10579e-06
-1.75953e-05
3.63534e-07
-5.00344e-06
-1.9931e-05
8.65191e-07
-5.7713e-06
-2.24631e-05
1.27375e-06
-6.19414e-06
-2.50845e-05
1.4198e-06
-6.30876e-06
-2.75442e-05
1.54557e-06
-6.03033e-06
-2.98356e-05
1.49796e-06
-5.42465e-06
-3.19886e-05
1.49445e-06
-4.37806e-06
-3.41062e-05
1.3526e-06
-2.88445e-06
-3.60187e-05
1.2124e-06
-8.6659e-07
-3.7683e-05
1.03036e-06
1.38391e-06
-3.83953e-05
9.4276e-07
3.42893e-06
-3.78287e-05
1.05486e-06
5.12017e-06
-3.62224e-05
1.1131e-06
6.32451e-06
-3.4025e-05
1.26814e-06
7.14372e-06
-3.14065e-05
1.27748e-06
7.45452e-06
-2.84273e-05
1.38196e-06
7.37658e-06
-2.52289e-05
1.2932e-06
6.83089e-06
-2.17828e-05
1.20314e-06
6.02485e-06
-1.84865e-05
8.41077e-07
5.05073e-06
-1.53801e-05
4.06588e-07
4.17608e-06
-1.26919e-05
-1.89253e-07
3.31455e-06
-9.95053e-06
-6.54707e-07
2.26769e-06
-7.43873e-06
-9.14366e-07
8.63177e-07
-5.19121e-06
-1.02095e-06
-4.56243e-06
-8.07e-07
-1.76207e-06
-3.09087e-06
-1.76587e-06
-3.86022e-06
-4.08768e-06
-2.31685e-06
-5.45441e-06
-7.1758e-06
-2.15874e-06
-6.95974e-06
-9.84641e-06
-1.92461e-06
-8.49484e-06
-1.24155e-05
-1.5547e-06
-9.98681e-06
-1.493e-05
-1.17302e-06
-1.10957e-05
-1.77955e-05
-1.02618e-06
-1.17233e-05
-2.0808e-05
-1.02718e-06
-1.1746e-05
-2.3797e-05
-1.26425e-06
-1.12412e-05
-2.65617e-05
-1.48682e-06
-1.01934e-05
-2.90689e-05
-1.81401e-06
-8.71273e-06
-3.14253e-05
-2.04332e-06
-6.76217e-06
-3.36989e-05
-2.35722e-06
-4.33832e-06
-3.58042e-05
-2.63769e-06
-1.39163e-06
-3.7707e-05
-2.9221e-06
1.71932e-06
-3.84367e-05
-3.06891e-06
4.58353e-06
-3.77987e-05
-2.89353e-06
7.04517e-06
-3.59744e-05
-2.70908e-06
8.94174e-06
-3.35782e-05
-2.34281e-06
1.03873e-05
-3.07809e-05
-2.07056e-06
1.12337e-05
-2.76335e-05
-1.63964e-06
1.15678e-05
-2.42114e-05
-1.35119e-06
1.12639e-05
-2.04501e-05
-1.02845e-06
1.04299e-05
-1.66901e-05
-9.61999e-07
9.08277e-06
-1.30259e-05
-1.00679e-06
7.46563e-06
-9.80579e-06
-1.26869e-06
5.62365e-06
-6.63238e-06
-1.47602e-06
3.54689e-06
-3.81358e-06
-1.5483e-06
1.26601e-06
-1.21329e-06
-1.697e-06
-1.95348e-06
-1.34289e-06
-1.84814e-06
4.86974e-07
-1.7297e-06
-5.09582e-06
1.42892e-06
-2.26892e-06
-8.44898e-06
-1.66739e-06
-2.15516e-06
-1.14977e-05
-4.52831e-06
-2.26923e-06
-1.39422e-05
-7.51928e-06
-2.45141e-06
-1.57061e-05
-1.0493e-05
-2.67275e-06
-1.66557e-05
-1.37572e-05
-3.08823e-06
-1.68346e-05
-1.70543e-05
-3.57428e-06
-1.62514e-05
-2.01976e-05
-4.18202e-06
-1.50221e-05
-2.31083e-05
-4.68209e-06
-1.31802e-05
-2.57016e-05
-5.20844e-06
-1.08676e-05
-2.81558e-05
-5.58146e-06
-8.14639e-06
-3.04313e-05
-5.98801e-06
-5.07079e-06
-3.2571e-05
-6.30802e-06
-1.74871e-06
-3.44182e-05
-6.61007e-06
1.49233e-06
-3.48843e-05
-6.79263e-06
4.5418e-06
-3.42359e-05
-6.61149e-06
7.33432e-06
-3.24063e-05
-6.35978e-06
9.62226e-06
-3.00247e-05
-5.84059e-06
1.15141e-05
-2.73029e-05
-5.36914e-06
1.28318e-05
-2.4273e-05
-4.67751e-06
1.36238e-05
-2.09365e-05
-4.06619e-06
1.37173e-05
-1.72266e-05
-3.31655e-06
1.30968e-05
-1.33548e-05
-2.7142e-06
1.16511e-05
-9.45239e-06
-2.12747e-06
9.41715e-06
-5.84689e-06
-1.72472e-06
6.49978e-06
-2.39026e-06
-1.32464e-06
3.25543e-06
4.89797e-07
-1.05901e-06
5.39515e-07
2.62376e-06
-1.12113e-06
-6.06747e-07
-8.07184e-07
3.3114e-07
-4.2957e-07
5.8541e-07
-2.56826e-06
3.74025e-06
5.88018e-07
-6.71354e-06
2.06109e-06
4.16806e-07
-1.05327e-05
-4.11904e-07
-2.97173e-07
-1.33911e-05
-3.39113e-06
-1.26963e-06
-1.51298e-05
-6.398e-06
-2.356e-06
-1.59007e-05
-9.52719e-06
-3.45864e-06
-1.58571e-05
-1.26829e-05
-4.41452e-06
-1.50997e-05
-1.56982e-05
-5.25618e-06
-1.37477e-05
-1.86332e-05
-5.82649e-06
-1.18424e-05
-2.13003e-05
-6.3059e-06
-9.52559e-06
-2.38866e-05
-6.58523e-06
-6.9458e-06
-2.61458e-05
-6.86444e-06
-4.26904e-06
-2.82129e-05
-7.03393e-06
-1.92739e-06
-2.95275e-05
-7.23138e-06
-7.3602e-08
-2.93855e-05
-7.35157e-06
1.72605e-06
-2.87937e-05
-7.24083e-06
3.68057e-06
-2.73296e-05
-7.03029e-06
5.4213e-06
-2.51987e-05
-6.56587e-06
6.97566e-06
-2.27171e-05
-6.13931e-06
8.12659e-06
-1.99677e-05
-5.4555e-06
8.87317e-06
-1.69298e-05
-4.75264e-06
9.04753e-06
-1.36654e-05
-3.73497e-06
8.57202e-06
-1.02389e-05
-2.64003e-06
7.29706e-06
-6.83397e-06
-1.34316e-06
5.11498e-06
-3.56815e-06
-9.65091e-08
2.27625e-06
-5.87596e-07
1.0361e-06
-6.75594e-07
1.61708e-06
1.82454e-06
-2.06201e-06
1.9612e-06
2.04888e-06
-4.31608e-06
1.64751e-06
3.85534e-06
-8.44607e-06
4.16149e-06
3.36699e-06
-1.25496e-06
5.48341e-06
6.29e-07
-2.32137e-07
5.03113e-06
-2.19202e-06
-1.22261e-06
3.63177e-06
-4.5315e-06
-2.8567e-06
1.80517e-06
-5.99114e-06
-4.73264e-06
-2.05517e-07
-6.75546e-06
-6.7101e-06
-2.05249e-06
-6.96068e-06
-8.97678e-06
-3.5005e-06
-6.74849e-06
-1.13819e-05
-4.52794e-06
-6.24948e-06
-1.41064e-05
-5.02521e-06
-5.47395e-06
-1.68623e-05
-5.21277e-06
-4.49725e-06
-1.97599e-05
-5.10254e-06
-3.40018e-06
-2.23044e-05
-4.93755e-06
-2.49787e-06
-2.4476e-05
-4.63821e-06
-2.47406e-06
-2.50792e-05
-4.47094e-06
-2.96119e-06
-2.47172e-05
-4.18001e-06
-3.40173e-06
-2.41189e-05
-4.23309e-06
-3.34023e-06
-2.30787e-05
-4.31137e-06
-3.07852e-06
-2.11767e-05
-4.28276e-06
-2.75276e-06
-1.8778e-05
-4.26401e-06
-2.52417e-06
-1.62513e-05
-3.9442e-06
-2.38963e-06
-1.36373e-05
-3.42643e-06
-2.44603e-06
-1.1226e-05
-2.38252e-06
-2.76449e-06
-8.91696e-06
-1.0031e-06
-3.44249e-06
-6.95022e-06
7.94536e-07
-4.54632e-06
-5.15316e-06
2.68906e-06
-5.66535e-06
-3.8442e-06
4.3758e-06
-6.39511e-06
-3.30351e-06
5.65041e-06
-4.94101e-06
-5.53428e-06
6.04147e-06
-1.37279e-05
4.47123e-06
6.24535e-06
-2.12109e-05
6.51994e-06
8.92412e-06
-1.29743e-05
9.04087e-06
9.05714e-06
-9.12173e-06
8.75684e-06
8.6461e-06
-8.04422e-06
7.2329e-06
8.08072e-06
-7.53271e-06
5.24163e-06
7.8262e-06
-7.59906e-06
3.1212e-06
7.83921e-06
-7.92659e-06
1.20378e-06
7.97419e-06
-8.88397e-06
-2.27446e-07
7.92218e-06
-1.02805e-05
-1.04905e-06
7.31239e-06
-1.23581e-05
-1.13799e-06
6.01402e-06
-1.49274e-05
-6.35856e-07
4.02953e-06
-1.80802e-05
3.05503e-07
1.63158e-06
-2.13338e-05
1.42822e-06
-1.25458e-06
-2.42651e-05
2.67625e-06
-4.37653e-06
-2.57316e-05
3.77544e-06
-6.36381e-06
-2.76123e-05
4.88354e-06
-8.53672e-06
-2.63958e-05
4.45088e-06
-1.09816e-05
-2.40888e-05
3.45596e-06
-1.30346e-05
-2.1549e-05
2.42603e-06
-1.45958e-05
-1.86574e-05
1.44131e-06
-1.55617e-05
-1.61296e-05
8.44803e-07
-1.59002e-05
-1.39283e-05
6.29986e-07
-1.57338e-05
-1.24662e-05
1.07424e-06
-1.5229e-05
-1.14104e-05
1.98905e-06
-1.45356e-05
-1.10591e-05
3.41576e-06
-1.36989e-05
-1.1001e-05
5.01139e-06
-1.24088e-05
-1.17162e-05
6.5822e-06
-1.03809e-05
-1.31075e-05
7.77648e-06
-6.28679e-06
-1.75951e-05
7.96706e-06
-2.58186e-05
5.80448e-06
5.6367e-06
-3.27212e-05
5.87413e-06
9.39512e-06
-2.49045e-05
8.17211e-06
1.11156e-05
-1.91546e-05
8.31277e-06
1.21838e-05
-1.64853e-05
7.37317e-06
1.31151e-05
-1.44145e-05
5.95073e-06
1.43972e-05
-1.32433e-05
4.36242e-06
1.60861e-05
-1.24511e-05
2.83592e-06
1.79189e-05
-1.24237e-05
1.70718e-06
1.92251e-05
-1.28944e-05
1.30818e-06
1.91201e-05
-1.40827e-05
1.83003e-06
1.69785e-05
-1.59983e-05
3.21294e-06
1.26103e-05
-1.88095e-05
5.09802e-06
6.55185e-06
-2.24804e-05
7.20582e-06
-4.3124e-07
-2.65837e-05
9.30239e-06
-5.79056e-06
-3.15355e-05
1.1164e-05
-7.19383e-06
-3.86983e-05
1.24899e-05
-9.26994e-06
-3.61431e-05
1.18241e-05
-1.35673e-05
-2.98977e-05
1.01069e-05
-1.76857e-05
-2.56525e-05
8.22252e-06
-2.06491e-05
-2.20092e-05
6.31564e-06
-2.20737e-05
-1.94735e-05
4.76891e-06
-2.20219e-05
-1.76198e-05
3.64019e-06
-2.09231e-05
-1.67947e-05
3.23002e-06
-1.92448e-05
-1.64675e-05
3.37915e-06
-1.73523e-05
-1.70031e-05
4.0518e-06
-1.53169e-05
-1.79109e-05
4.87487e-06
-1.28926e-05
-1.98553e-05
5.71517e-06
-9.7575e-06
-2.24919e-05
6.24956e-06
-5.19651e-06
-2.83142e-05
6.15852e-06
-3.57505e-05
4.73584e-06
2.88749e-06
-3.87581e-05
3.14973e-06
5.46188e-06
-3.17037e-05
4.22517e-06
7.02949e-06
-2.53841e-05
4.66221e-06
8.31789e-06
-2.23587e-05
4.58531e-06
1.00121e-05
-1.99748e-05
3.86639e-06
1.26285e-05
-1.85219e-05
2.66251e-06
1.62892e-05
-1.73901e-05
1.27854e-06
2.05632e-05
-1.70078e-05
3.10376e-07
2.44215e-05
-1.71502e-05
3.97712e-07
2.65058e-05
-1.79783e-05