/*--------------------------------*- C++ -*----------------------------------*\
| =========                 |                                                 |
| \\      /  F ield         | OpenFOAM: The Open Source CFD Toolbox           |
|  \\    /   O peration     | Version:  v1912                                 |
|   \\  /    A nd           | Website:  www.openfoam.com                      |
|    \\/     M anipulation  |                                                 |
\*---------------------------------------------------------------------------*/
FoamFile
{
    version     2.0;
    format      ascii;
    class       volVectorField;
    location    "175/oil";
    object      U;
}
// * * * * * * * * * * * * * * * * * * * * * * * * * * * * * * * * * * * * * //

dimensions      [0 1 -1 0 0 0 0];


internalField   nonuniform List<vector> 
27760
(
(5.14894e-06 3.44695e-06 5.22639e-06)
(-5.97073e-05 -3.80286e-05 -3.34372e-05)
(2.77233e-05 -1.78353e-05 -1.74728e-05)
(-3.41436e-06 6.33654e-06 6.09902e-06)
(8.92337e-06 -9.92943e-07 -1.26534e-06)
(4.42745e-06 1.92998e-06 1.52024e-06)
(7.16568e-06 6.03051e-07 7.78685e-08)
(6.94528e-06 1.31529e-06 6.2449e-07)
(7.64621e-06 1.14362e-06 3.14023e-07)
(7.85991e-06 1.4756e-06 4.90241e-07)
(7.63771e-06 1.51554e-06 4.1061e-07)
(7.66522e-06 1.72681e-06 5.02264e-07)
(6.81064e-06 1.78428e-06 4.78639e-07)
(6.60136e-06 1.89722e-06 5.24118e-07)
(5.36472e-06 1.92749e-06 5.17585e-07)
(4.98812e-06 1.93246e-06 5.19248e-07)
(3.65164e-06 1.91911e-06 5.1898e-07)
(3.19474e-06 1.82841e-06 4.81173e-07)
(2.02546e-06 1.77667e-06 4.85961e-07)
(1.57612e-06 1.6047e-06 4.19975e-07)
(7.77799e-07 1.52493e-06 4.30633e-07)
(4.04635e-07 1.31285e-06 3.57523e-07)
(7.97646e-08 1.22046e-06 3.76205e-07)
(-2.08825e-07 1.00416e-06 3.15015e-07)
(-1.07028e-07 9.05647e-07 3.44559e-07)
(-3.716e-07 7.24114e-07 3.11648e-07)
(-1.01419e-08 6.41588e-07 3.53689e-07)
(-3.27868e-07 5.13707e-07 3.49035e-07)
(1.12562e-07 4.54657e-07 3.61705e-07)
(-2.50133e-07 3.07939e-07 2.79718e-07)
(-3.40158e-05 -6.89783e-05 -3.39256e-05)
(2.57892e-05 1.91465e-05 -1.83333e-05)
(-1.01263e-05 -1.16798e-05 2.67406e-06)
(7.46464e-06 1.1188e-07 2.07244e-06)
(5.52423e-06 -4.46899e-06 1.37047e-06)
(9.57496e-06 -2.90981e-06 1.5064e-06)
(1.07482e-05 -3.29485e-06 9.32162e-07)
(1.24163e-05 -2.73116e-06 1.16076e-06)
(1.30697e-05 -2.55586e-06 9.72315e-07)
(1.37682e-05 -2.09891e-06 1.15318e-06)
(1.33446e-05 -1.87967e-06 1.10459e-06)
(1.33015e-05 -1.51083e-06 1.23874e-06)
(1.18747e-05 -1.32095e-06 1.2318e-06)
(1.12688e-05 -1.09369e-06 1.3056e-06)
(9.18581e-06 -9.37542e-07 1.30195e-06)
(8.23914e-06 -8.74722e-07 1.30568e-06)
(5.99271e-06 -7.45946e-07 1.29966e-06)
(4.95615e-06 -8.50777e-07 1.22911e-06)
(3.00267e-06 -7.57933e-07 1.21688e-06)
(2.09158e-06 -9.9315e-07 1.10194e-06)
(7.98062e-07 -9.42046e-07 1.09e-06)
(1.53039e-07 -1.25901e-06 9.57084e-07)
(-3.41778e-07 -1.24345e-06 9.48576e-07)
(-7.36709e-07 -1.55796e-06 8.36577e-07)
(-5.41011e-07 -1.54753e-06 8.47718e-07)
(-8.21794e-07 -1.78948e-06 7.71649e-07)
(-2.60411e-07 -1.75713e-06 7.97116e-07)
(-6.3476e-07 -1.85372e-06 7.59109e-07)
(-4.51964e-09 -1.64467e-06 7.10994e-07)
(-4.13142e-07 -1.1619e-06 4.70597e-07)
(-1.8054e-05 1.72865e-05 -1.79614e-05)
(-7.26735e-06 -2.11007e-05 2.41227e-06)
(4.43567e-06 -6.63266e-06 -3.7151e-06)
(3.44161e-06 -8.41774e-06 2.88581e-06)
(9.82485e-06 -6.59975e-06 6.994e-08)
(1.03479e-05 -5.68365e-06 1.65402e-06)
(1.33538e-05 -5.0416e-06 8.30571e-07)
(1.43556e-05 -3.81843e-06 1.31283e-06)
(1.54696e-05 -3.14393e-06 1.08856e-06)
(1.60093e-05 -1.92281e-06 1.31961e-06)
(1.55962e-05 -1.25852e-06 1.26419e-06)
(1.54024e-05 -2.53175e-07 1.41237e-06)
(1.37433e-05 2.80848e-07 1.4049e-06)
(1.29042e-05 8.95879e-07 1.48527e-06)
(1.04656e-05 1.23115e-06 1.48841e-06)
(9.2434e-06 1.36868e-06 1.48737e-06)
(6.60072e-06 1.49086e-06 1.48364e-06)
(5.29236e-06 1.1551e-06 1.41176e-06)
(3.02808e-06 1.07521e-06 1.404e-06)
(1.91421e-06 3.7608e-07 1.27592e-06)
(4.31559e-07 1.42548e-07 1.26986e-06)
(-3.19202e-07 -7.42559e-07 1.13055e-06)
(-8.44314e-07 -1.03491e-06 1.13096e-06)
(-1.24148e-06 -1.8769e-06 1.00547e-06)
(-9.69992e-07 -2.08429e-06 1.02049e-06)
(-1.20604e-06 -2.6908e-06 9.34363e-07)
(-5.15167e-07 -2.73211e-06 9.59416e-07)
(-8.51536e-07 -2.93162e-06 9.09897e-07)
(-9.92964e-08 -2.47422e-06 8.35032e-07)
(-4.59557e-07 -1.53583e-06 5.25782e-07)
(6.05282e-06 -1.56643e-05 6.15118e-06)
(5.24544e-06 -1.01579e-05 2.23402e-06)
(3.42454e-06 -1.59386e-05 3.06034e-06)
(8.38686e-06 -1.20821e-05 2.05334e-06)
(9.92327e-06 -1.32674e-05 1.69591e-06)
(1.32227e-05 -1.14424e-05 1.69779e-06)
(1.50824e-05 -1.11537e-05 1.46426e-06)
(1.70138e-05 -9.60231e-06 1.65536e-06)
(1.78089e-05 -8.82595e-06 1.5725e-06)
(1.85386e-05 -7.3117e-06 1.78673e-06)
(1.78075e-05 -6.46793e-06 1.77646e-06)
(1.74441e-05 -5.20472e-06 1.95942e-06)
(1.52894e-05 -4.49309e-06 1.96955e-06)
(1.40876e-05 -3.69946e-06 2.07517e-06)
(1.10187e-05 -3.20149e-06 2.07606e-06)
(9.36078e-06 -2.99567e-06 2.07604e-06)
(6.10358e-06 -2.73582e-06 2.05873e-06)
(4.40904e-06 -3.09955e-06 1.95704e-06)
(1.67072e-06 -3.06666e-06 1.92597e-06)
(3.02917e-07 -3.88303e-06 1.75487e-06)
(-1.40442e-06 -4.02804e-06 1.72079e-06)
(-2.23518e-06 -5.05998e-06 1.52577e-06)
(-2.74316e-06 -5.25571e-06 1.50278e-06)
(-3.05854e-06 -6.20774e-06 1.32719e-06)
(-2.56721e-06 -6.27109e-06 1.32167e-06)
(-2.60606e-06 -6.87717e-06 1.19683e-06)
(-1.57199e-06 -6.7072e-06 1.20616e-06)
(-1.6558e-06 -6.7395e-06 1.1346e-06)
(-5.21764e-07 -5.77396e-06 1.03593e-06)
(-6.08769e-07 -3.6807e-06 6.59734e-07)
(-9.80224e-07 -6.50908e-06 -8.79205e-07)
(1.4084e-06 -1.84681e-05 1.70382e-06)
(5.61343e-06 -1.71957e-05 3.53171e-07)
(7.74048e-06 -1.85325e-05 1.76193e-06)
(1.18768e-05 -1.71023e-05 9.99354e-07)
(1.38945e-05 -1.59499e-05 1.59669e-06)
(1.66467e-05 -1.46374e-05 1.29676e-06)
(1.81224e-05 -1.25799e-05 1.61746e-06)
(1.91631e-05 -1.11046e-05 1.51258e-06)
(1.97057e-05 -8.80382e-06 1.75056e-06)
(1.89322e-05 -7.36946e-06 1.72338e-06)
(1.84442e-05 -5.39421e-06 1.9078e-06)
(1.60906e-05 -4.25093e-06 1.90849e-06)
(1.47669e-05 -3.01846e-06 2.01176e-06)
(1.1426e-05 -2.3127e-06 2.0156e-06)
(9.64521e-06 -2.03134e-06 2.01112e-06)
(6.11455e-06 -1.79726e-06 2.00773e-06)
(4.30067e-06 -2.44603e-06 1.90204e-06)
(1.34815e-06 -2.64147e-06 1.89306e-06)
(-1.19605e-07 -4.00237e-06 1.7198e-06)
(-1.94606e-06 -4.49601e-06 1.71272e-06)
(-2.83827e-06 -6.18245e-06 1.5172e-06)
(-3.35635e-06 -6.72408e-06 1.52157e-06)
(-3.68629e-06 -8.24657e-06 1.34603e-06)
(-3.10563e-06 -8.52462e-06 1.36185e-06)
(-3.11348e-06 -9.47671e-06 1.23698e-06)
(-1.91202e-06 -9.32673e-06 1.26035e-06)
(-1.93474e-06 -9.38674e-06 1.18982e-06)
(-6.05245e-07 -8.00762e-06 1.08912e-06)
(-6.44996e-07 -4.97286e-06 6.86417e-07)
(2.11229e-06 -1.56004e-05 2.22052e-06)
(3.6377e-06 -2.23645e-05 2.16759e-06)
(7.26628e-06 -2.57482e-05 2.2282e-06)
(1.06116e-05 -2.482e-05 2.03061e-06)
(1.41378e-05 -2.48702e-05 1.88104e-06)
(1.71265e-05 -2.29799e-05 2.01603e-06)
(1.97237e-05 -2.20011e-05 1.93474e-06)
(2.16457e-05 -1.95234e-05 2.20122e-06)
(2.25383e-05 -1.79799e-05 2.1894e-06)
(2.30995e-05 -1.53099e-05 2.49998e-06)
(2.19212e-05 -1.36977e-05 2.53024e-06)
(2.11278e-05 -1.14197e-05 2.81078e-06)
(1.80654e-05 -1.0097e-05 2.84714e-06)
(1.62341e-05 -8.66966e-06 3.0148e-06)
(1.20005e-05 -7.80812e-06 3.02435e-06)
(9.65204e-06 -7.45876e-06 3.0225e-06)
(5.25214e-06 -7.09762e-06 2.99294e-06)
(2.94018e-06 -7.797e-06 2.82774e-06)
(-6.69811e-07 -7.89796e-06 2.771e-06)
(-2.46568e-06 -9.39875e-06 2.49921e-06)
(-4.61344e-06 -9.82495e-06 2.43788e-06)
(-5.6129e-06 -1.16805e-05 2.13364e-06)
(-6.10446e-06 -1.21461e-05 2.09049e-06)
(-6.3323e-06 -1.37808e-05 1.8217e-06)
(-5.43812e-06 -1.3914e-05 1.80204e-06)
(-5.17816e-06 -1.48495e-05 1.61131e-06)
(-3.46758e-06 -1.4463e-05 1.61405e-06)
(-3.12163e-06 -1.4306e-05 1.51117e-06)
(-1.2075e-06 -1.22859e-05 1.38738e-06)
(-8.68943e-07 -7.7278e-06 8.98508e-07)
(8.2484e-07 -1.79179e-05 9.36346e-07)
(3.52235e-06 -2.93164e-05 1.73821e-06)
(8.1279e-06 -3.18219e-05 1.53179e-06)
(1.12907e-05 -3.22679e-05 1.8811e-06)
(1.57046e-05 -3.13506e-05 1.65738e-06)
(1.84265e-05 -2.94565e-05 1.96879e-06)
(2.14613e-05 -2.77144e-05 1.8569e-06)
(2.32071e-05 -2.4595e-05 2.16643e-06)
(2.42043e-05 -2.23044e-05 2.12242e-06)
(2.4637e-05 -1.87681e-05 2.43698e-06)
(2.33346e-05 -1.64737e-05 2.43509e-06)
(2.24331e-05 -1.34159e-05 2.71053e-06)
(1.91009e-05 -1.15979e-05 2.72647e-06)
(1.71777e-05 -9.69614e-06 2.88759e-06)
(1.26086e-05 -8.60898e-06 2.89847e-06)
(1.01753e-05 -8.19417e-06 2.88894e-06)
(5.4472e-06 -7.88355e-06 2.8844e-06)
(3.03749e-06 -8.9112e-06 2.71345e-06)
(-8.38178e-07 -9.29399e-06 2.69802e-06)
(-2.74594e-06 -1.14027e-05 2.42365e-06)
(-5.05749e-06 -1.22384e-05 2.41023e-06)
(-6.16172e-06 -1.47979e-05 2.10624e-06)
(-6.69767e-06 -1.56561e-05 2.10822e-06)
(-6.9976e-06 -1.78874e-05 1.84096e-06)
(-6.02563e-06 -1.82535e-05 1.85631e-06)
(-5.78015e-06 -1.95372e-05 1.66734e-06)
(-3.87543e-06 -1.91667e-05 1.69448e-06)
(-3.48402e-06 -1.90051e-05 1.59682e-06)
(-1.31148e-06 -1.64225e-05 1.47609e-06)
(-9.29788e-07 -1.03492e-05 9.51667e-07)
(1.67699e-06 -2.40939e-05 1.78953e-06)
(4.78659e-06 -3.68945e-05 2.33166e-06)
(1.03621e-05 -4.10684e-05 2.39241e-06)
(1.43147e-05 -4.08813e-05 2.4449e-06)
(1.93247e-05 -4.05e-05 2.38951e-06)
(2.26923e-05 -3.81483e-05 2.65855e-06)
(2.60785e-05 -3.64998e-05 2.65931e-06)
(2.81286e-05 -3.29664e-05 3.07226e-06)
(2.91093e-05 -3.05289e-05 3.12428e-06)
(2.94412e-05 -2.65923e-05 3.61191e-06)
(2.76311e-05 -2.40954e-05 3.70031e-06)
(2.62496e-05 -2.07251e-05 4.15546e-06)
(2.19403e-05 -1.87433e-05 4.2387e-06)
(1.92906e-05 -1.66593e-05 4.51829e-06)
(1.34814e-05 -1.54493e-05 4.54529e-06)
(1.02676e-05 -1.49774e-05 4.54176e-06)
(4.33707e-06 -1.45629e-05 4.49174e-06)
(1.24693e-06 -1.56385e-05 4.21626e-06)
(-3.53299e-06 -1.5939e-05 4.11361e-06)
(-5.88628e-06 -1.81714e-05 3.66546e-06)
(-8.63811e-06 -1.89524e-05 3.55453e-06)
(-9.89297e-06 -2.16616e-05 3.06722e-06)
(-1.03995e-05 -2.24573e-05 2.98415e-06)
(-1.0577e-05 -2.47809e-05 2.5627e-06)
(-9.19781e-06 -2.50107e-05 2.51501e-06)
(-8.61251e-06 -2.62702e-05 2.21858e-06)
(-6.03086e-06 -2.56784e-05 2.20909e-06)
(-5.1453e-06 -2.52954e-05 2.05986e-06)
(-2.16234e-06 -2.19686e-05 1.90661e-06)
(-1.24963e-06 -1.3951e-05 1.26054e-06)
(1.54088e-06 -3.03818e-05 1.65303e-06)
(5.31294e-06 -4.66304e-05 2.33771e-06)
(1.14928e-05 -5.12123e-05 2.35789e-06)
(1.57603e-05 -5.13275e-05 2.51799e-06)
(2.1307e-05 -5.05018e-05 2.43929e-06)
(2.47348e-05 -4.78559e-05 2.7553e-06)
(2.83806e-05 -4.56288e-05 2.7256e-06)
(3.0362e-05 -4.14215e-05 3.14787e-06)
(3.13287e-05 -3.82758e-05 3.15344e-06)
(3.15212e-05 -3.34935e-05 3.63395e-06)
(2.94684e-05 -3.03137e-05 3.67089e-06)
(2.79383e-05 -2.62027e-05 4.11406e-06)
(2.32475e-05 -2.37392e-05 4.15965e-06)
(2.04999e-05 -2.12252e-05 4.42684e-06)
(1.42724e-05 -1.98173e-05 4.45078e-06)
(1.10013e-05 -1.93017e-05 4.43536e-06)
(4.68126e-06 -1.89509e-05 4.42503e-06)
(1.50589e-06 -2.03346e-05 4.14324e-06)
(-3.59944e-06 -2.09113e-05 4.10621e-06)
(-6.09539e-06 -2.36904e-05 3.65602e-06)
(-9.07202e-06 -2.485e-05 3.61596e-06)
(-1.04971e-05 -2.81669e-05 3.12824e-06)
(-1.11058e-05 -2.92928e-05 3.10476e-06)
(-1.14328e-05 -3.20944e-05 2.68061e-06)
(-1.0017e-05 -3.24751e-05 2.67244e-06)
(-9.50228e-06 -3.39883e-05 2.37021e-06)
(-6.70835e-06 -3.33672e-05 2.38384e-06)
(-5.76049e-06 -3.29384e-05 2.2359e-06)
(-2.40717e-06 -2.88881e-05 2.08268e-06)
(-1.3733e-06 -1.86058e-05 1.37861e-06)
(2.12838e-06 -3.76672e-05 2.2339e-06)
(6.87988e-06 -5.69266e-05 3.02308e-06)
(1.44549e-05 -6.25584e-05 3.13243e-06)
(1.96746e-05 -6.25015e-05 3.30192e-06)
(2.62316e-05 -6.18318e-05 3.32394e-06)
(3.03163e-05 -5.89084e-05 3.7679e-06)
(3.45361e-05 -5.6654e-05 3.86159e-06)
(3.67905e-05 -5.21129e-05 4.50683e-06)
(3.7782e-05 -4.87753e-05 4.65787e-06)
(3.77635e-05 -4.36422e-05 5.42527e-06)
(3.50579e-05 -4.02724e-05 5.6155e-06)
(3.28412e-05 -3.59226e-05 6.34557e-06)
(2.68855e-05 -3.33746e-05 6.51195e-06)
(2.31684e-05 -3.07649e-05 6.96887e-06)
(1.53698e-05 -2.93288e-05 7.02836e-06)
(1.11131e-05 -2.87887e-05 7.02221e-06)
(3.29323e-06 -2.83785e-05 6.94281e-06)
(-7.35284e-07 -2.97558e-05 6.4879e-06)
(-6.96006e-06 -3.02388e-05 6.3089e-06)
(-1.0012e-05 -3.30277e-05 5.58459e-06)
(-1.35361e-05 -3.40878e-05 5.37946e-06)
(-1.51543e-05 -3.74132e-05 4.60745e-06)
(-1.57464e-05 -3.84055e-05 4.43773e-06)
(-1.59495e-05 -4.11484e-05 3.77585e-06)
(-1.40838e-05 -4.13045e-05 3.65491e-06)
(-1.31947e-05 -4.26915e-05 3.18296e-06)
(-9.60416e-06 -4.18258e-05 3.12288e-06)
(-8.02769e-06 -4.1182e-05 2.8872e-06)
(-3.60191e-06 -3.62961e-05 2.67915e-06)
(-1.81119e-06 -2.35506e-05 1.80676e-06)
(2.34834e-06 -4.78429e-05 2.44428e-06)
(7.89011e-06 -7.12755e-05 3.33288e-06)
(1.63114e-05 -7.77207e-05 3.45502e-06)
(2.20368e-05 -7.77609e-05 3.66975e-06)
(2.9083e-05 -7.69719e-05 3.70692e-06)
(3.33008e-05 -7.39232e-05 4.19665e-06)
(3.76715e-05 -7.14501e-05 4.28886e-06)
(3.98384e-05 -6.6556e-05 4.96293e-06)
(4.06774e-05 -6.28013e-05 5.08928e-06)
(4.04081e-05 -5.71637e-05 5.86901e-06)
(3.72817e-05 -5.33649e-05 6.01441e-06)
(3.47825e-05 -4.86116e-05 6.73958e-06)
(2.83001e-05 -4.58209e-05 6.86042e-06)
(2.44489e-05 -4.30451e-05 7.30248e-06)
(1.6192e-05 -4.1565e-05 7.35467e-06)
(1.19452e-05 -4.10432e-05 7.33572e-06)
(3.75029e-06 -4.06703e-05 7.30674e-06)
(-3.07459e-07 -4.21737e-05 6.84794e-06)
(-6.87681e-06 -4.27372e-05 6.74609e-06)
(-1.0093e-05 -4.57072e-05 6.01154e-06)
(-1.39089e-05 -4.68361e-05 5.8737e-06)
(-1.57778e-05 -5.03048e-05 5.07901e-06)
(-1.65711e-05 -5.12398e-05 4.94641e-06)
(-1.70332e-05 -5.39651e-05 4.24932e-06)
(-1.52511e-05 -5.38645e-05 4.13476e-06)
(-1.45442e-05 -5.51114e-05 3.61908e-06)
(-1.08021e-05 -5.39682e-05 3.54389e-06)
(-9.1377e-06 -5.31426e-05 3.27671e-06)
(-4.17599e-06 -4.73048e-05 3.03901e-06)
(-2.05945e-06 -3.12971e-05 2.05682e-06)
(3.03076e-06 -5.78572e-05 3.1062e-06)
(1.00219e-05 -8.5247e-05 4.22251e-06)
(2.01393e-05 -9.26452e-05 4.45843e-06)
(2.69714e-05 -9.26931e-05 4.82417e-06)
(3.51239e-05 -9.21194e-05 5.0309e-06)
(4.00039e-05 -8.91794e-05 5.79285e-06)
(4.49927e-05 -8.69309e-05 6.11462e-06)
(4.74123e-05 -8.20824e-05 7.17389e-06)
(4.82296e-05 -7.83656e-05 7.58755e-06)
(4.7617e-05 -7.27095e-05 8.83121e-06)
(4.36457e-05 -6.89737e-05 9.2742e-06)
(4.02318e-05 -6.43384e-05 1.0444e-05)
(3.22446e-05 -6.1787e-05 1.07939e-05)
(2.72493e-05 -5.92465e-05 1.15249e-05)
(1.72812e-05 -5.80055e-05 1.16556e-05)
(1.20154e-05 -5.75672e-05 1.1653e-05)
(2.25786e-06 -5.7178e-05 1.15124e-05)
(-2.67158e-06 -5.84688e-05 1.07994e-05)
(-1.04163e-05 -5.87553e-05 1.04436e-05)
(-1.42203e-05 -6.13231e-05 9.28279e-06)
(-1.86404e-05 -6.20296e-05 8.83895e-06)
(-2.07272e-05 -6.49966e-05 7.58942e-06)
(-2.15538e-05 -6.53784e-05 7.16795e-06)
(-2.19294e-05 -6.74869e-05 6.08175e-06)
(-1.97818e-05 -6.6683e-05 5.73643e-06)
(-1.8793e-05 -6.73392e-05 4.93347e-06)
(-1.43384e-05 -6.56576e-05 4.68901e-06)
(-1.20299e-05 -6.45104e-05 4.24605e-06)
(-5.80328e-06 -5.76705e-05 3.88598e-06)
(-2.65223e-06 -3.84984e-05 2.64747e-06)
(3.55009e-06 -7.33535e-05 3.59837e-06)
(1.17155e-05 -0.000106194 4.93012e-06)
(2.29034e-05 -0.000114788 5.28885e-06)
(3.02957e-05 -0.000115279 5.8073e-06)
(3.88462e-05 -0.000115381 6.17282e-06)
(4.38582e-05 -0.000113279 7.12483e-06)
(4.89208e-05 -0.000111883 7.62813e-06)
(5.12122e-05 -0.000107801 8.90787e-06)
(5.17061e-05 -0.000104706 9.5165e-06)
(5.06233e-05 -9.96753e-05 1.09621e-05)
(4.59457e-05 -9.65198e-05 1.15432e-05)
(4.19711e-05 -9.25805e-05 1.2835e-05)
(3.3265e-05 -9.07049e-05 1.32412e-05)
(2.80826e-05 -8.88431e-05 1.40147e-05)
(1.77605e-05 -8.80911e-05 1.41745e-05)
(1.27142e-05 -8.78547e-05 1.41693e-05)
(2.82944e-06 -8.73415e-05 1.40607e-05)
(-1.92527e-06 -8.81256e-05 1.32829e-05)
(-9.90104e-06 -8.77135e-05 1.29089e-05)
(-1.38247e-05 -8.93132e-05 1.16188e-05)
(-1.85825e-05 -8.89605e-05 1.10616e-05)
(-2.09803e-05 -9.07093e-05 9.60925e-06)
(-2.21305e-05 -8.97727e-05 9.00611e-06)
(-2.28506e-05 -9.04811e-05 7.69358e-06)
(-2.09655e-05 -8.81614e-05 7.16591e-06)
(-2.03256e-05 -8.7501e-05 6.16516e-06)
(-1.59816e-05 -8.46541e-05 5.7546e-06)
(-1.37057e-05 -8.28197e-05 5.15068e-06)
(-6.90466e-06 -7.45668e-05 4.64188e-06)
(-3.13272e-06 -5.08258e-05 3.14709e-06)
(4.43621e-06 -8.77577e-05 4.44069e-06)
(1.43094e-05 -0.000125531 6.19118e-06)
(2.70699e-05 -0.000135391 6.83666e-06)
(3.54179e-05 -0.000136576 7.7418e-06)
(4.4924e-05 -0.000137944 8.52624e-06)
(5.06271e-05 -0.000137318 1.00698e-05)
(5.63164e-05 -0.000137468 1.11799e-05)
(5.8839e-05 -0.000134838 1.32996e-05)
(5.91357e-05 -0.000133079 1.46809e-05)
(5.74602e-05 -0.000129444 1.70665e-05)
(5.16267e-05 -0.000127678 1.83823e-05)
(4.64534e-05 -0.000125281 2.04855e-05)
(3.61079e-05 -0.000124949 2.14152e-05)
(2.98355e-05 -0.000124518 2.26851e-05)
(1.81408e-05 -0.000124855 2.30533e-05)
(1.25384e-05 -0.000125046 2.30846e-05)
(1.65314e-06 -0.000124336 2.27803e-05)
(-3.54561e-06 -0.000124095 2.15451e-05)
(-1.23854e-05 -0.000122326 2.06317e-05)
(-1.67188e-05 -0.00012201 1.8545e-05)
(-2.20547e-05 -0.000119701 1.72557e-05)
(-2.46839e-05 -0.000119189 1.4881e-05)
(-2.59854e-05 -0.000116035 1.3513e-05)
(-2.66645e-05 -0.000114381 1.13622e-05)
(-2.45562e-05 -0.000109704 1.02229e-05)
(-2.37695e-05 -0.000106883 8.62243e-06)
(-1.90983e-05 -0.000102209 7.78498e-06)
(-1.65509e-05 -9.93048e-05 6.77958e-06)
(-8.82708e-06 -8.95166e-05 5.95311e-06)
(-3.94653e-06 -6.17067e-05 3.97733e-06)
(5.31221e-06 -0.000110192 5.26057e-06)
(1.63485e-05 -0.00015477 7.51746e-06)
(2.96778e-05 -0.000166785 8.55345e-06)
(3.84028e-05 -0.000170081 9.93815e-06)
(4.83481e-05 -0.000174484 1.13009e-05)
(5.45304e-05 -0.000177359 1.3565e-05)
(6.04137e-05 -0.000181109 1.55461e-05)
(6.27177e-05 -0.000182157 1.86571e-05)
(6.22815e-05 -0.000184027 2.10656e-05)
(5.96207e-05 -0.000184166 2.43806e-05)
(5.25204e-05 -0.00018606 2.65178e-05)
(4.62862e-05 -0.000187384 2.92293e-05)
(3.49994e-05 -0.000190494 3.0634e-05)
(2.86293e-05 -0.000193083 3.21949e-05)
(1.71239e-05 -0.000195495 3.27682e-05)
(1.25052e-05 -0.000196423 3.28386e-05)
(2.4289e-06 -0.000194923 3.24109e-05)
(-1.87152e-06 -0.000192365 3.08857e-05)
(-1.04118e-05 -0.000187364 2.95039e-05)
(-1.46064e-05 -0.000182882 2.6805e-05)
(-2.02877e-05 -0.000176094 2.47152e-05)
(-2.33419e-05 -0.000170729 2.14419e-05)
(-2.52357e-05 -0.000162778 1.90775e-05)
(-2.63377e-05 -0.000156375 1.59549e-05)
(-2.45313e-05 -0.000147089 1.3949e-05)
(-2.39281e-05 -0.000140025 1.16327e-05)
(-1.96058e-05 -0.000131617 1.02112e-05)
(-1.75452e-05 -0.000126228 8.72563e-06)
(-1.01174e-05 -0.000113885 7.47098e-06)
(-4.79885e-06 -8.01856e-05 4.87765e-06)
(6.28384e-06 -0.000129857 6.15274e-06)
(1.78199e-05 -0.000179737 9.06249e-06)
(3.10952e-05 -0.000194374 1.06289e-05)
(4.03242e-05 -0.000201108 1.27934e-05)
(5.14041e-05 -0.000210067 1.51588e-05)
(5.8682e-05 -0.000217811 1.8825e-05)
(6.49905e-05 -0.000226439 2.23976e-05)
(6.68386e-05 -0.000232602 2.74182e-05)
(6.52459e-05 -0.000239772 3.16077e-05)
(6.11742e-05 -0.000245444 3.6718e-05)
(5.23435e-05 -0.000252781 4.02725e-05)
(4.47097e-05 -0.000259562 4.42812e-05)
(3.2159e-05 -0.000267896 4.65535e-05)
(2.56879e-05 -0.000275091 4.88314e-05)
(1.45169e-05 -0.000280885 4.9762e-05)
(1.14863e-05 -0.000283134 4.98862e-05)
(2.74872e-06 -0.000280536 4.91597e-05)
(-1.06224e-07 -0.000274543 4.69105e-05)
(-8.074e-06 -0.000264731 4.4617e-05)
(-1.18497e-05 -0.000254107 4.0597e-05)
(-1.78936e-05 -0.000240696 3.71039e-05)
(-2.14201e-05 -0.000228248 3.20867e-05)
(-2.41485e-05 -0.000213408 2.80026e-05)
(-2.58028e-05 -0.000200428 2.30274e-05)
(-2.41155e-05 -0.000184985 1.94643e-05)
(-2.31278e-05 -0.000172104 1.57797e-05)
(-1.8589e-05 -0.000158305 1.33745e-05)
(-1.70244e-05 -0.000148997 1.11371e-05)
(-1.08147e-05 -0.000133594 9.33408e-06)
(-5.80533e-06 -9.56368e-05 5.92491e-06)
(7.0368e-06 -0.000157578 6.80275e-06)
(1.69622e-05 -0.000213589 1.01323e-05)
(2.83082e-05 -0.00023275 1.21115e-05)
(3.77966e-05 -0.000246242 1.5111e-05)
(4.99471e-05 -0.000262976 1.88024e-05)
(5.78595e-05 -0.000278668 2.42018e-05)
(6.31168e-05 -0.000295268 2.97294e-05)
(6.27979e-05 -0.000310257 3.66915e-05)
(5.85346e-05 -0.000326813 4.26174e-05)
(5.21834e-05 -0.000342093 4.90368e-05)
(4.15089e-05 -0.000358636 5.35866e-05)
(3.29994e-05 -0.000374228 5.81196e-05)
(2.06244e-05 -0.000390778 6.07327e-05)
(1.60535e-05 -0.000404985 6.30839e-05)
(8.13154e-06 -0.000415829 6.40783e-05)
(9.99508e-06 -0.000419975 6.41895e-05)
(6.14196e-06 -0.000415339 6.33677e-05)
(7.51677e-06 -0.000403795 6.09461e-05)
(2.39783e-06 -0.000386129 5.82264e-05)
(3.4844e-07 -0.000365658 5.3624e-05)
(-5.49893e-06 -0.000341384 4.9164e-05)
(-9.83123e-06 -0.000317342 4.2932e-05)
(-1.44611e-05 -0.000291107 3.7235e-05)
(-1.81017e-05 -0.000267572 3.04596e-05)
(-1.79199e-05 -0.00024266 2.50478e-05)
(-1.70525e-05 -0.0002209 1.97487e-05)
(-1.25355e-05 -0.000198422 1.60984e-05)
(-1.19522e-05 -0.000181903 1.31342e-05)
(-9.27236e-06 -0.000161595 1.09579e-05)
(-6.73209e-06 -0.000118907 6.91671e-06)
(6.38226e-06 -0.000175647 6.01196e-06)
(1.04494e-05 -0.000232796 8.7632e-06)
(1.76362e-05 -0.000257613 1.07677e-05)
(2.6529e-05 -0.000280339 1.45685e-05)
(3.86163e-05 -0.000306125 1.98537e-05)
(4.47161e-05 -0.000330073 2.72498e-05)
(4.59287e-05 -0.00035492 3.46003e-05)
(4.09526e-05 -0.000379625 4.31514e-05)
(3.26621e-05 -0.000406764 5.00314e-05)
(2.39985e-05 -0.000432637 5.70889e-05)
(1.25719e-05 -0.000459087 6.17236e-05)
(5.31633e-06 -0.000484082 6.62276e-05)
(-4.0107e-06 -0.000509649 6.84893e-05)
(-3.10727e-06 -0.000531807 7.05452e-05)
(-3.50677e-06 -0.000548982 7.12015e-05)
(8.41297e-06 -0.000555926 7.11987e-05)
(1.42886e-05 -0.000549207 7.05513e-05)
(2.41244e-05 -0.000531517 6.82209e-05)
(2.51561e-05 -0.00050517 6.57657e-05)
(2.73963e-05 -0.000473854 6.10992e-05)
(2.32896e-05 -0.00043746 5.65976e-05)
(1.8728e-05 -0.000400294 4.97966e-05)
(1.15622e-05 -0.000360909 4.3289e-05)
(4.20831e-06 -0.000325398 3.50993e-05)
(4.37136e-07 -0.000290321 2.80496e-05)
(-9.63115e-07 -0.000259107 2.09669e-05)
(2.35638e-06 -0.000226595 1.59361e-05)
(9.60393e-07 -0.000200389 1.24008e-05)
(-2.42941e-06 -0.000174473 1.03087e-05)
(-6.4564e-06 -0.000132804 6.63305e-06)
(3.22696e-06 -0.000189868 2.70307e-06)
(-4.50003e-06 -0.000245123 3.53788e-06)
(-4.06855e-06 -0.000278426 5.05873e-06)
(1.43066e-06 -0.000313413 9.35649e-06)
(8.596e-06 -0.000349682 1.60516e-05)
(7.14188e-06 -0.000383022 2.48077e-05)
(-7.38558e-07 -0.000417971 3.29681e-05)
(-1.29661e-05 -0.000455073 4.14294e-05)
(-2.58794e-05 -0.000495205 4.76083e-05)
(-3.54096e-05 -0.00053362 5.34125e-05)
(-4.44229e-05 -0.00057117 5.66624e-05)
(-4.62061e-05 -0.000606496 5.96199e-05)
(-4.71582e-05 -0.000641715 6.05162e-05)
(-3.53964e-05 -0.000672437 6.12248e-05)
(-2.17114e-05 -0.000696889 6.09671e-05)
(7.21851e-06 -0.00070715 6.07e-05)
(2.9606e-05 -0.000698001 6.06731e-05)
(5.35878e-05 -0.000673168 5.93707e-05)
(6.56772e-05 -0.000637152 5.82699e-05)
(7.60636e-05 -0.000593771 5.5125e-05)
(7.67548e-05 -0.000543803 5.2117e-05)
(7.37582e-05 -0.000491496 4.6654e-05)
(6.44927e-05 -0.000436368 4.09786e-05)
(5.21316e-05 -0.000385953 3.30544e-05)
(4.09252e-05 -0.000338441 2.54426e-05)
(3.25338e-05 -0.000296359 1.72967e-05)
(3.00166e-05 -0.000252313 1.12342e-05)
(2.36623e-05 -0.000213657 7.61958e-06)
(1.15755e-05 -0.000179935 6.20101e-06)
(-4.03334e-06 -0.00014343 4.12994e-06)
(-4.46657e-06 -0.00016934 -5.06851e-06)
(-3.29325e-05 -0.000215247 -7.13685e-06)
(-4.55563e-05 -0.000259357 -6.05533e-06)
(-5.23912e-05 -0.000305278 -2.36749e-06)
(-6.05141e-05 -0.000349276 4.72357e-06)
(-7.73273e-05 -0.000389545 1.32962e-05)
(-9.77466e-05 -0.000433472 2.04389e-05)
(-0.000116177 -0.000481478 2.69441e-05)
(-0.000130027 -0.000532306 3.07235e-05)
(-0.000134746 -0.00058041 3.41049e-05)
(-0.000134481 -0.000625968 3.50977e-05)
(-0.000123267 -0.000668786 3.62532e-05)
(-0.000108296 -0.000711259 3.56215e-05)
(-7.88054e-05 -0.000749145 3.51315e-05)
(-4.43795e-05 -0.000781175 3.40334e-05)
(7.42376e-06 -0.00079515 3.35327e-05)
(5.15683e-05 -0.000784076 3.42305e-05)
(9.50942e-05 -0.000752906 3.39199e-05)
(0.000123351 -0.000709228 3.45366e-05)
(0.000147064 -0.000656794 3.33228e-05)
(0.000157691 -0.000596779 3.27851e-05)
(0.000161007 -0.000532876 2.98311e-05)
(0.000153616 -0.000464695 2.66671e-05)
(0.000138428 -0.000400945 2.07717e-05)
(0.000118459 -0.000341582 1.44132e-05)
(9.75459e-05 -0.000290096 6.74838e-06)
(8.04609e-05 -0.000236448 8.48322e-07)
(6.13111e-05 -0.000186897 -1.54277e-06)
(3.52303e-05 -0.000144494 -2.24511e-06)
(1.65395e-06 -0.000121875 -1.89394e-06)
(-1.13999e-05 -0.000113499 -1.17399e-05)
(-6.37062e-05 -0.000148107 -1.63595e-05)
(-0.000100886 -0.000207673 -1.51279e-05)
(-0.000132186 -0.000262009 -1.38109e-05)
(-0.000164738 -0.000313248 -8.99883e-06)
(-0.000198202 -0.000362313 -2.78586e-06)
(-0.000227902 -0.000418259 1.64172e-06)
(-0.000246098 -0.000478516 4.85042e-06)
(-0.000254222 -0.000539778 5.55004e-06)
(-0.000247578 -0.000596842 6.00864e-06)
(-0.000232286 -0.000649275 4.77293e-06)
(-0.000203218 -0.000698516 4.06781e-06)
(-0.000168787 -0.000746594 2.15307e-06)
(-0.000120123 -0.000790444 4.87976e-07)
(-6.5145e-05 -0.000829531 -1.35508e-06)
(5.76735e-06 -0.000845972 -2.41486e-06)
(6.75403e-05 -0.000832808 -1.03719e-06)
(0.000128416 -0.000795272 -2.49601e-07)
(0.000172219 -0.000745013 2.21996e-06)
(0.00020998 -0.000685486 3.4121e-06)
(0.000233249 -0.000618142 5.737e-06)
(0.000246824 -0.000545338 6.12893e-06)
(0.000246711 -0.000466227 6.48801e-06)
(0.000234604 -0.000389092 4.18744e-06)
(0.000210284 -0.000315688 1.0379e-06)
(0.000177872 -0.000252289 -3.74222e-06)
(0.000140492 -0.000188832 -6.67155e-06)
(9.99168e-05 -0.000131138 -5.86659e-06)
(5.11233e-05 -7.74905e-05 -6.7146e-06)
(2.99395e-06 -7.32048e-05 -3.90465e-06)
(-7.90423e-06 -1.74106e-05 -7.42041e-06)
(-7.10213e-05 -2.53059e-05 -1.41567e-05)
(-0.000146238 -9.75453e-05 -1.445e-05)
(-0.000214707 -0.000157213 -1.60435e-05)
(-0.000275812 -0.000215598 -1.77691e-05)
(-0.000319691 -0.000273846 -1.76936e-05)
(-0.000350544 -0.000340168 -1.88868e-05)
(-0.000360819 -0.000408477 -2.05223e-05)
(-0.000357752 -0.00047475 -2.36692e-05)
(-0.000336383 -0.000535677 -2.61592e-05)
(-0.00030496 -0.000590226 -2.95311e-05)
(-0.000258037 -0.00064156 -3.17967e-05)
(-0.000206023 -0.000690512 -3.47734e-05)
(-0.000141948 -0.00073654 -3.70562e-05)
(-7.46118e-05 -0.000778687 -3.92201e-05)
(-2.45631e-08 -0.000793385 -4.07794e-05)
(6.36394e-05 -0.000779306 -3.90752e-05)
(0.000130551 -0.000738971 -3.74136e-05)
(0.000182392 -0.000686975 -3.30423e-05)
(0.000228881 -0.000627124 -2.94051e-05)
(0.000262433 -0.000560156 -2.39653e-05)
(0.0002859 -0.000486932 -1.97869e-05)
(0.000295389 -0.000405541 -1.46201e-05)
(0.000290701 -0.000322227 -1.11029e-05)
(0.00026799 -0.000239271 -7.56553e-06)
(0.000229845 -0.000165237 -5.26113e-06)
(0.000171679 -9.32749e-05 -1.48608e-06)
(0.000106244 -3.06186e-05 1.89365e-06)
(3.21937e-05 2.66902e-05 3.37227e-06)
(-8.81161e-06 -9.35458e-06 7.23434e-06)
(2.11594e-05 3.71999e-05 2.27389e-05)
(-7.66987e-06 8.5581e-05 2.04738e-05)
(-0.000101341 2.57123e-05 1.52447e-05)
(-0.000185721 -3.68824e-05 7.61495e-06)
(-0.000263463 -0.000106408 -1.11778e-06)
(-0.000308524 -0.000175296 -1.10282e-05)
(-0.000337145 -0.000248506 -2.05082e-05)
(-0.000341951 -0.000321139 -2.84388e-05)
(-0.000334957 -0.000389254 -3.53549e-05)
(-0.000309932 -0.000452779 -4.00043e-05)
(-0.000277079 -0.000509115 -4.41392e-05)
(-0.000228677 -0.000562732 -4.69013e-05)
(-0.000178195 -0.000611054 -4.98356e-05)
(-0.000118401 -0.000656473 -5.20991e-05)
(-6.40314e-05 -0.000693206 -5.40204e-05)
(-1.82431e-05 -0.000698369 -5.50449e-05)
(1.49655e-05 -0.00068472 -5.34706e-05)
(5.90783e-05 -0.000646866 -5.09744e-05)
(9.77748e-05 -0.000597038 -4.58681e-05)
(0.000134157 -0.00054053 -4.10889e-05)
(0.000163353 -0.000477976 -3.41975e-05)
(0.000184071 -0.000408575 -2.73358e-05)
(0.000194396 -0.000331407 -1.77829e-05)
(0.00019229 -0.000249264 -7.53884e-06)
(0.000173244 -0.000165478 4.71253e-06)
(0.000138686 -8.54439e-05 1.66801e-05)
(7.91191e-05 -9.65892e-06 2.77825e-05)
(1.85929e-05 5.07529e-05 3.68119e-05)
(-4.82214e-05 8.44436e-05 4.23217e-05)
(-3.88592e-05 -1.77583e-05 3.6887e-05)
(5.90591e-05 -5.57361e-05 6.11845e-05)
(0.000104165 7.4424e-05 7.64952e-05)
(4.05247e-05 6.27327e-05 6.85147e-05)
(-1.41741e-05 1.98628e-05 5.17958e-05)
(-7.8922e-05 -3.75805e-05 3.35613e-05)
(-0.000114761 -9.68762e-05 1.33691e-05)
(-0.000140831 -0.000157037 -4.48877e-06)
(-0.00014772 -0.000218935 -1.87729e-05)
(-0.000149441 -0.000279386 -2.92782e-05)
(-0.000138741 -0.000341018 -3.54303e-05)
(-0.000128199 -0.000398427 -3.91625e-05)
(-0.000105451 -0.000455096 -4.11019e-05)
(-8.68315e-05 -0.000503114 -4.26351e-05)
(-5.81001e-05 -0.000545856 -4.3321e-05)
(-4.90116e-05 -0.000565117 -4.33711e-05)
(-5.6451e-05 -0.000553815 -3.9631e-05)
(-7.03041e-05 -0.000542245 -3.90302e-05)
(-7.44697e-05 -0.000517779 -3.73974e-05)
(-6.85427e-05 -0.000476806 -3.43158e-05)
(-6.25172e-05 -0.000427509 -3.09827e-05)
(-5.53917e-05 -0.000372836 -2.52834e-05)
(-5.20507e-05 -0.000312699 -1.80124e-05)
(-5.03317e-05 -0.000250684 -6.47666e-06)
(-5.38173e-05 -0.000186743 8.03468e-06)
(-6.45917e-05 -0.000125378 2.61753e-05)
(-8.21072e-05 -6.62134e-05 4.59708e-05)
(-0.000112523 -1.49676e-05 6.34671e-05)
(-0.000128833 1.86132e-05 7.79998e-05)
(-0.000145114 -5.44481e-07 8.32546e-05)
(-6.45032e-05 -0.000166608 6.22805e-05)
(7.56871e-05 -0.000306365 7.74435e-05)
(0.000189492 -0.000129487 0.000106286)
(0.000192416 -7.39605e-05 0.000102642)
(0.000193949 -7.35263e-05 8.54073e-05)
(0.000175552 -8.58911e-05 6.48485e-05)
(0.000169436 -0.000106746 4.37944e-05)
(0.000164849 -0.000131131 2.51438e-05)
(0.000169925 -0.000166166 1.10021e-05)
(0.000170549 -0.00020859 1.96953e-06)
(0.00016786 -0.000263474 -1.60153e-06)
(0.00014421 -0.000323959 -8.78722e-07)
(0.000112884 -0.000391245 2.10488e-06)
(5.88151e-05 -0.000452115 6.65696e-06)
(1.14413e-05 -0.000502243 1.23527e-05)
(-6.58563e-05 -0.000508728 2.00058e-05)
(-0.000120251 -0.00050472 3.2466e-05)
(-0.000152255 -0.000490663 2.92964e-05)
(-0.000211765 -0.000470571 2.34931e-05)
(-0.000257609 -0.000430144 1.80261e-05)
(-0.000298743 -0.000376746 1.40758e-05)
(-0.000324852 -0.000323299 1.30744e-05)
(-0.000339454 -0.000271596 1.49093e-05)
(-0.000339796 -0.000230436 2.14145e-05)