/*--------------------------------*- C++ -*----------------------------------*\
| =========                 |                                                 |
| \\      /  F ield         | OpenFOAM: The Open Source CFD Toolbox           |
|  \\    /   O peration     | Version:  v1906                                 |
|   \\  /    A nd           | Web:      www.OpenFOAM.com                      |
|    \\/     M anipulation  |                                                 |
\*---------------------------------------------------------------------------*/
FoamFile
{
    version     2.0;
    format      ascii;
    class       surfaceScalarField;
    location    "76";
    object      phi;
}
// * * * * * * * * * * * * * * * * * * * * * * * * * * * * * * * * * * * * * //

dimensions      [1 0 -1 0 0 0 0];
oriented        oriented;


internalField   nonuniform List<scalar> 
228225
(
-1.37588e-09
3.2611e-10
8.15929e-10
-3.89198e-09
4.4428e-09
-1.928e-09
-8.65847e-09
7.27347e-09
-2.50675e-09
-1.58199e-08
9.80155e-09
-2.63927e-09
-2.51125e-08
1.20418e-08
-2.75248e-09
-3.60977e-08
1.3941e-08
-2.95188e-09
-4.83489e-08
1.54948e-08
-3.24518e-09
-6.14085e-08
1.66893e-08
-3.62996e-09
-7.48727e-08
1.75488e-08
-4.08309e-09
-8.83542e-08
1.80755e-08
-4.59452e-09
-1.01519e-07
1.83072e-08
-5.14322e-09
-1.14049e-07
1.82562e-08
-5.72501e-09
-1.25686e-07
1.79563e-08
-6.32188e-09
-1.36176e-07
1.74233e-08
-6.93112e-09
-1.45335e-07
1.6695e-08
-7.53809e-09
-1.52973e-07
1.57844e-08
-8.14084e-09
-1.58977e-07
1.47264e-08
-8.72625e-09
-1.63218e-07
1.35338e-08
-9.29248e-09
-1.65625e-07
1.22377e-08
-9.8287e-09
-1.66142e-07
1.08433e-08
-1.03273e-08
-1.64742e-07
9.38062e-09
-1.07811e-08
-1.61414e-07
7.86097e-09
-1.11881e-08
-1.56188e-07
6.31015e-09
-1.15373e-08
-1.49098e-07
4.73908e-09
-1.18269e-08
-1.40221e-07
3.17213e-09
-1.20491e-08
-1.29642e-07
1.62257e-09
-1.22039e-08
-1.17481e-07
1.28169e-10
-1.22869e-08
-1.03852e-07
-1.32761e-09
-1.23014e-08
-8.8928e-08
-2.67644e-09
-1.22455e-08
-7.29118e-08
-3.89659e-09
-1.21211e-08
-5.60642e-08
-4.93655e-09
-1.19116e-08
-3.87752e-08
-5.72941e-09
-1.15596e-08
-2.17818e-08
-6.14235e-09
-1.08492e-08
-6.75445e-09
-5.97028e-09
-9.05671e-09
-4.03349e-09
-2.72153e-09
-3.88934e-09
1.69947e-08
-1.27771e-08
-1.5689e-08
3.05975e-08
-1.43584e-08
-3.03105e-08
3.70373e-08
-1.51402e-08
-4.64221e-08
4.18486e-08
-1.59367e-08
-6.30305e-08
4.52834e-08
-1.66334e-08
-7.9454e-08
4.75948e-08
-1.72301e-08
-9.51689e-08
4.89787e-08
-1.77686e-08
-1.09818e-07
4.9601e-08
-1.82637e-08
-1.23128e-07
4.95875e-08
-1.87287e-08
-1.34931e-07
4.90434e-08
-1.91629e-08
-1.45104e-07
4.80522e-08
-1.95737e-08
-1.53578e-07
4.66881e-08
-1.99567e-08
-1.60315e-07
4.5007e-08
-2.03171e-08
-1.65303e-07
4.30651e-08
-2.06495e-08
-1.68561e-07
4.09081e-08
-2.09572e-08
-1.70123e-07
3.85798e-08
-2.12349e-08
-1.70029e-07
3.61176e-08
-2.14852e-08
-1.6835e-07
3.35582e-08
-2.17029e-08
-1.65159e-07
3.09378e-08
-2.18902e-08
-1.60554e-07
2.82798e-08
-2.20431e-08
-1.54623e-07
2.56113e-08
-2.2163e-08
-1.47475e-07
2.29595e-08
-2.22452e-08
-1.39221e-07
2.03469e-08
-2.22907e-08
-1.29984e-07
1.77956e-08
-2.22943e-08
-1.1988e-07
1.53243e-08
-2.22563e-08
-1.09037e-07
1.29507e-08
-2.21713e-08
-9.75625e-08
1.06902e-08
-2.20349e-08
-8.56141e-08
8.55658e-09
-2.18353e-08
-7.32905e-08
6.56273e-09
-2.15612e-08
-6.07196e-08
4.72108e-09
-2.11896e-08
-4.80065e-08
3.04572e-09
-2.06959e-08
-3.52588e-08
1.56025e-09
-2.00364e-08
-2.26218e-08
3.04821e-10
-1.90832e-08
-1.05411e-08
-5.68353e-10
-1.74832e-08
-6.74908e-10
-1.39006e-08
-1.93863e-09
2.84304e-08
-9.49699e-09
-7.48789e-09
4.74724e-08
-1.13266e-08
-1.42097e-08
5.58751e-08
-1.21138e-08
-2.14694e-08
6.18267e-08
-1.27215e-08
-2.88285e-08
6.58621e-08
-1.32183e-08
-3.59904e-08
6.84135e-08
-1.36575e-08
-4.27445e-08
6.97912e-08
-1.40588e-08
-4.89385e-08
7.02403e-08
-1.44443e-08
-5.44781e-08
6.99428e-08
-1.48164e-08
-5.92928e-08
6.90434e-08
-1.51853e-08
-6.33482e-08
6.76536e-08
-1.5546e-08
-6.66218e-08
6.58658e-08
-1.59034e-08
-6.91185e-08
6.37538e-08
-1.62502e-08
-7.08461e-08
6.13815e-08
-1.65892e-08
-7.18273e-08
5.8802e-08
-1.69124e-08
-7.2089e-08
5.60629e-08
-1.7222e-08
-7.16655e-08
5.32053e-08
-1.75103e-08
-7.05947e-08
5.02664e-08
-1.77793e-08
-6.89194e-08
4.72826e-08
-1.80208e-08
-6.66938e-08
4.4292e-08
-1.82373e-08
-6.39818e-08
4.13218e-08
-1.84227e-08
-6.08393e-08
3.83955e-08
-1.85781e-08
-5.73292e-08
3.55333e-08
-1.86979e-08
-5.35024e-08
3.27531e-08
-1.87829e-08
-4.94204e-08
3.00692e-08
-1.88276e-08
-4.51262e-08
2.7487e-08
-1.88311e-08
-4.06619e-08
2.50125e-08
-1.87863e-08
-3.60623e-08
2.26464e-08
-1.86884e-08
-3.13605e-08
2.03827e-08
-1.85243e-08
-2.65652e-08
1.8208e-08
-1.82801e-08
-2.16883e-08
1.60969e-08
-1.79297e-08
-1.67097e-08
1.40132e-08
-1.74308e-08
-1.16164e-08
1.18975e-08
-1.66868e-08
-6.36085e-09
9.66431e-09
-1.54882e-08
5.64962e-09
-1.26849e-08
-1.44577e-09
3.31406e-08
-3.26633e-09
-3.06415e-09
5.3989e-08
-4.89491e-09
-4.69869e-09
6.32836e-08
-5.77556e-09
-6.42904e-09
6.99246e-08
-6.36719e-09
-8.25802e-09
7.45207e-08
-6.82902e-09
-1.01278e-08
7.75291e-08
-7.24747e-09
-1.19658e-08
7.92916e-08
-7.66216e-09
-1.37161e-08
8.00696e-08
-8.07744e-09
-1.5334e-08
8.00655e-08
-8.5057e-09
-1.67835e-08
7.94341e-08
-8.94315e-09
-1.80327e-08
7.83005e-08
-9.39591e-09
-1.90734e-08
7.67616e-08
-9.85573e-09
-1.98934e-08
7.48992e-08
-1.03251e-08
-2.04952e-08
7.27779e-08
-1.07942e-08
-2.08866e-08
7.04554e-08
-1.12639e-08
-2.10746e-08
6.79774e-08
-1.17245e-08
-2.10816e-08
6.53868e-08
-1.21761e-08
-2.09222e-08
6.2717e-08
-1.26098e-08
-2.06138e-08
6.00007e-08
-1.30259e-08
-2.01844e-08
5.7275e-08
-1.34135e-08
-1.96559e-08
5.45664e-08
-1.37725e-08
-1.90571e-08
5.18925e-08
-1.40961e-08
-1.84071e-08
4.92685e-08
-1.43842e-08
-1.77308e-08
4.67047e-08
-1.46302e-08
-1.70321e-08
4.42066e-08
-1.48335e-08
-1.63249e-08
4.17678e-08
-1.49889e-08
-1.55988e-08
3.93795e-08
-1.50949e-08
-1.4831e-08
3.70226e-08
-1.51436e-08
-1.39809e-08
3.46638e-08
-1.51302e-08
-1.29847e-08
3.22538e-08
-1.50417e-08
-1.17429e-08
2.97181e-08
-1.48637e-08
-1.0109e-08
2.69555e-08
-1.45767e-08
-7.85087e-09
2.38109e-08
-1.4171e-08
-4.7326e-09
2.01022e-08
-1.35571e-08
1.26409e-08
-1.17234e-08
-2.3282e-09
3.46077e-08
8.63085e-10
-2.7333e-09
5.47535e-08
-3.62289e-10
-2.18154e-09
6.38854e-08
-1.15344e-09
-1.14834e-09
7.05641e-08
-1.67216e-09
1.03361e-10
7.53324e-08
-2.06383e-09
1.45288e-09
7.8617e-08
-2.43781e-09
2.82604e-09
8.07377e-08
-2.8185e-09
4.17178e-09
8.19428e-08
-3.21874e-09
5.45359e-09
8.24188e-08
-3.63572e-09
6.64942e-09
8.23153e-08
-4.07664e-09
7.73705e-09
8.17464e-08
-4.53361e-09
8.70104e-09
8.08059e-08
-5.00946e-09
9.53045e-09
7.95651e-08
-5.4954e-09
1.02145e-08
7.80869e-08
-5.99207e-09
1.07392e-08
7.64198e-08
-6.48967e-09
1.10967e-08
7.4608e-08
-6.98795e-09
1.12754e-08
7.2686e-08
-7.47723e-09
1.12624e-08
7.06858e-08
-7.95693e-09
1.10492e-08
6.8633e-08
-8.41792e-09
1.06305e-08
6.6552e-08
-8.85932e-09
1.00109e-08
6.44601e-08
-9.27296e-09
9.19016e-09
6.23713e-08
-9.65836e-09
8.17245e-09
6.02933e-08
-1.00085e-08
6.97097e-09
5.82293e-08
-1.03232e-08
5.60003e-09
5.61735e-08
-1.05962e-08
4.08502e-09
5.41119e-08
-1.08273e-08
2.45601e-09
5.20187e-08
-1.1011e-08
7.7091e-10
4.9854e-08
-1.11467e-08
-8.96347e-10
4.7558e-08
-1.1228e-08
-2.43644e-09
4.50462e-08
-1.12505e-08
-3.71546e-09
4.21982e-08
-1.12023e-08
-4.52544e-09
3.88512e-08
-1.10848e-08
-4.55443e-09
3.47714e-08
-1.09325e-08
-3.38739e-09
2.966e-08
-1.07246e-08
1.88739e-08
-9.62018e-09
-2.10707e-09
3.40235e-08
2.69027e-09
-2.09599e-09
5.2996e-08
1.74823e-09
-9.81643e-10
6.17011e-08
1.06703e-09
7.58679e-10
6.8187e-08
6.40116e-10
2.81449e-09
7.29608e-08
3.12871e-10
5.03422e-09
7.64038e-08
-4.31792e-12
7.29304e-09
7.88127e-08
-3.352e-10
9.51117e-09
8.04069e-08
-6.82905e-10
1.16236e-08
8.13602e-08
-1.05348e-09
1.35794e-08
8.18016e-08
-1.44158e-09
1.53419e-08
8.18358e-08
-1.8525e-09
1.68859e-08
8.15409e-08
-2.27918e-09
1.81901e-08
8.09832e-08
-2.72187e-09
1.92349e-08
8.02127e-08
-3.17189e-09
2.00101e-08
7.92734e-08
-3.62872e-09
2.0503e-08
7.81985e-08
-4.08397e-09
2.07088e-08
7.70182e-08
-4.53684e-09
2.06193e-08
7.57549e-08
-4.97922e-09
2.0232e-08
7.44289e-08
-5.41023e-09
1.95541e-08
7.3054e-08
-5.82241e-09
1.85869e-08
7.16416e-08
-6.21508e-09
1.73428e-08
7.01968e-08
-6.58165e-09
1.58359e-08
6.8721e-08
-6.9216e-09
1.40883e-08
6.72074e-08
-7.22927e-09
1.21234e-08
6.56412e-08
-7.50452e-09
9.98301e-09
6.3996e-08
-7.7427e-09
7.71326e-09
6.22321e-08
-7.9439e-09
5.38051e-09
6.02915e-08
-8.10429e-09
3.0691e-09
5.80919e-08
-8.22365e-09
8.92263e-10
5.55203e-08
-8.29611e-09
-1.01123e-09
5.24186e-08
-8.31738e-09
-2.44318e-09
4.8576e-08
-8.29248e-09
-3.09828e-09
4.36986e-08
-8.2734e-09
-2.58203e-09
3.74108e-08
-8.26471e-09
2.38867e-08
-7.59577e-09
-1.38114e-09
3.26124e-08
2.79286e-09
-1.10572e-09
5.06739e-08
2.0463e-09
6.9164e-11
5.90323e-08
1.49383e-09
1.75088e-09
6.53538e-08
1.15192e-09
3.70194e-09
7.01138e-08
8.96479e-10
5.78617e-09
7.36726e-08
6.46552e-10
7.91149e-09
7.63026e-08
3.8561e-10
1.00021e-08
7.82104e-08
1.05629e-10
1.19977e-08
7.9551e-08
-1.85405e-10
1.38449e-08
8.04447e-08
-4.91427e-10
1.55123e-08
8.09803e-08
-8.12236e-10
1.69712e-08
8.12306e-08
-1.14752e-09
1.81962e-08
8.125e-08
-1.49068e-09
1.91674e-08
8.10838e-08
-1.84293e-09
1.98726e-08
8.0765e-08
-2.1975e-09
2.03036e-08
8.03226e-08
-2.55394e-09
2.04499e-08
7.97768e-08
-2.90577e-09
2.03117e-08
7.91459e-08
-3.25248e-09
1.98883e-08
7.84412e-08
-3.588e-09
1.91824e-08
7.76719e-08
-3.9119e-09
1.82017e-08
7.68409e-08
-4.2187e-09
1.69583e-08
7.59476e-08
-4.50816e-09
1.5472e-08
7.49844e-08
-4.77551e-09
1.37625e-08
7.39371e-08
-5.02082e-09
1.18624e-08
7.27815e-08
-5.24004e-09
9.80836e-09
7.14821e-08
-5.43358e-09
7.65234e-09
6.99872e-08
-5.59811e-09
5.45339e-09
6.82249e-08
-5.73452e-09
3.29198e-09
6.60952e-08
-5.83982e-09
1.25922e-09
6.34626e-08
-5.91322e-09
-5.11201e-10
6.01414e-08
-5.94912e-09
-1.86235e-09
5.58834e-08
-5.95716e-09
-2.52952e-09
5.03481e-08
-5.9831e-09
-2.16889e-09
4.30904e-08
-6.03984e-09
2.7324e-08
-5.60651e-09
-7.03079e-10
3.11023e-08
2.21354e-09
-4.60478e-10
4.87858e-08
1.64656e-09
3.33918e-10
5.70036e-08
1.2322e-09
1.43848e-09
6.32684e-08
9.81797e-10
2.7074e-09
6.80528e-08
7.92429e-10
4.05976e-09
7.17069e-08
6.11241e-10
5.44566e-09
7.44972e-08
4.2078e-10
6.81445e-09
7.66198e-08
2.21959e-10
8.12726e-09
7.82256e-08
1.15724e-11
9.35238e-09
7.94253e-08
-2.04611e-10
1.04571e-08
8.03057e-08
-4.30481e-10
1.14209e-08
8.09302e-08
-6.64004e-10
1.22274e-08
8.13498e-08
-9.05065e-10
1.28563e-08
8.16016e-08
-1.14885e-09
1.33025e-08
8.17157e-08
-1.39558e-09
1.3552e-08
8.17128e-08
-1.6405e-09
1.36029e-08
8.16105e-08
-1.88376e-09
1.34487e-08
8.14196e-08
-2.12072e-09
1.30948e-08
8.11481e-08
-2.35155e-09
1.25378e-08
8.07984e-08
-2.57198e-09
1.17928e-08
8.03697e-08
-2.78233e-09
1.08641e-08
7.98546e-08
-2.9788e-09
9.76982e-09
7.92408e-08
-3.16193e-09
8.52832e-09
7.85075e-08
-3.32838e-09
7.16257e-09
7.76245e-08
-3.47896e-09
5.70821e-09
7.65488e-08
-3.6108e-09
4.19876e-09
7.52205e-08
-3.72499e-09
2.68324e-09
7.35578e-08
-3.81923e-09
1.22715e-09
7.14487e-08
-3.89461e-09
-1.07134e-10
6.87429e-08
-3.94785e-09
-1.22316e-09
6.52356e-08
-3.978e-09
-2.00426e-09
6.06549e-08
-3.98966e-09
-2.26582e-09
5.46286e-08
-4.01981e-09
-1.77387e-09
4.66693e-08
-4.0716e-09
2.93206e-08
-3.76977e-09
-4.69438e-10
2.98014e-08
1.77057e-09
-4.81581e-10
4.73842e-08
1.41209e-09
-1.9251e-10
5.55646e-08
1.15289e-09
2.54073e-10
6.18232e-08
9.96725e-10
7.95405e-10
6.66329e-08
8.77865e-10
1.39725e-09
7.03472e-08
7.60356e-10
2.02707e-09
7.32274e-08
6.38472e-10
2.66806e-09
7.54709e-08
5.09529e-10
3.29291e-09
7.72233e-08
3.76018e-10
3.88813e-09
7.85955e-08
2.35555e-10
4.43431e-09
7.96689e-08
9.02046e-11
4.91658e-09
8.05061e-08
-5.85019e-11
5.32366e-09
8.11526e-08
-2.07659e-10
5.64003e-09
8.16436e-08
-3.59938e-10
5.86414e-09
8.20044e-08
-5.12144e-10
5.98644e-09
8.22547e-08
-6.6454e-10
6.0046e-09
8.24076e-08
-8.1321e-10
5.90998e-09
8.24717e-08
-9.58815e-10
5.70649e-09
8.24502e-08
-1.09817e-09
5.39374e-09
8.23429e-08
-1.23216e-09
4.97768e-09
8.21443e-08
-1.35783e-09
4.46516e-09
8.18447e-08
-1.47622e-09
3.86305e-09
8.1427e-08
-1.5847e-09
3.18703e-09
8.08674e-08
-1.68449e-09
2.45347e-09
8.01312e-08
-1.77327e-09
1.6847e-09
7.91715e-08
-1.85248e-09
9.00919e-10
7.79232e-08
-1.92012e-09
1.38084e-10
7.62994e-08
-1.97788e-09
-5.70309e-10
7.41816e-08
-2.02398e-09
-1.18203e-09
7.14122e-08
-2.05946e-09
-1.64107e-09
6.7777e-08
-2.08147e-09
-1.88152e-09
6.29924e-08
-2.0964e-09
-1.79801e-09
5.66714e-08
-2.12628e-09
-1.26028e-09
4.83028e-08
-2.17175e-09
3.00554e-08
-1.9942e-09
-6.19281e-10
2.87289e-08
1.69033e-09
-9.89868e-10
4.61916e-08
1.56523e-09
-1.19647e-09
5.4316e-08
1.45552e-09
-1.30539e-09
6.05374e-08
1.39348e-09
-1.34051e-09
6.53296e-08
1.33901e-09
-1.31777e-09
6.90443e-08
1.28039e-09
-1.2484e-09
7.19432e-08
1.21375e-09
-1.13948e-09
7.42209e-08
1.14227e-09
-1.00632e-09
7.60236e-08
1.06517e-09
-8.5403e-10
7.7459e-08
9.85146e-10
-6.95312e-10
7.86088e-08
9.01082e-10
-5.36309e-10
7.95326e-08
8.1574e-10
-3.89052e-10
8.02759e-08
7.27995e-10
-2.56485e-10
8.08705e-08
6.41407e-10
-1.4814e-10
8.13411e-08
5.5492e-10
-7.01755e-11
8.1704e-08
4.71429e-10
-2.09694e-11
8.19712e-08
3.88746e-10
-7.27668e-12
8.21482e-08
3.09664e-10
-2.95537e-11
8.22378e-08
2.33001e-10
-8.37791e-11
8.22369e-08
1.61086e-10
-1.70508e-10
8.21392e-08
9.21253e-11
-2.88171e-10
8.19319e-08
3.00125e-11
-4.30433e-10
8.15974e-08
-2.79957e-11
-5.91297e-10
8.1109e-08
-7.99881e-11
-7.64473e-10
8.04313e-08
-1.27313e-10
-9.4002e-10
7.95149e-08
-1.68547e-10
-1.10336e-09
7.82942e-08
-2.06158e-10
-1.24705e-09
7.66801e-08
-2.38717e-10
-1.34883e-09
7.45539e-08
-2.68455e-10
-1.40033e-09
7.17561e-08
-2.94125e-10
-1.37566e-09
6.80729e-08
-3.17908e-10
-1.26199e-09
6.32193e-08
-3.42549e-10
-1.01407e-09
5.68097e-08
-3.86077e-10
-5.95727e-10
4.83316e-08
-4.4502e-10
2.98747e-08
-4.16603e-10
-8.82405e-10
2.77856e-08
1.82458e-09
-1.55443e-09
4.49586e-08
1.90664e-09
-2.10547e-09
5.29449e-08
1.92076e-09
-2.56238e-09
5.90617e-08
1.93332e-09
-2.93932e-09
6.37741e-08
1.9325e-09
-3.24275e-09
6.743e-08
1.9177e-09
-3.47902e-09
7.02858e-08
1.89363e-09
-3.65451e-09
7.25349e-08
1.86134e-09
-3.775e-09
7.43195e-08
1.82466e-09
-3.84615e-09
7.57471e-08
1.78334e-09
-3.87459e-09
7.68964e-08
1.74029e-09
-3.8645e-09
7.78273e-08
1.69476e-09
-3.81975e-09
7.85826e-08
1.64934e-09
-3.74877e-09
7.91953e-08
1.60301e-09
-3.65198e-09
7.96874e-08
1.55811e-09
-3.53743e-09
8.00758e-08
1.51345e-09
-3.40578e-09
8.03689e-08
1.47176e-09
-3.26423e-09
8.05733e-08
1.43154e-09
-3.1098e-09
8.06892e-08
1.39476e-09
-2.94686e-09
8.07143e-08
1.35986e-09
-2.77614e-09
8.06401e-08
1.32861e-09
-2.59789e-09
8.04548e-08
1.29927e-09
-2.41318e-09
8.01387e-08
1.27342e-09
-2.2191e-09
7.96664e-08
1.2491e-09
-2.01883e-09
7.9001e-08
1.22765e-09
-1.80473e-09
7.80951e-08
1.20691e-09
-1.58005e-09
7.68825e-08
1.18786e-09
-1.34602e-09
7.52772e-08
1.16792e-09
-1.10156e-09
7.3162e-08
1.14752e-09
-8.50982e-10
7.03823e-08
1.12347e-09
-6.02586e-10
6.67293e-08
1.09536e-09
-3.67639e-10
6.19263e-08
1.05636e-09
-1.50189e-10
5.55988e-08
9.94721e-10
2.88302e-11
4.72489e-08
9.06829e-10
2.91089e-08
7.9157e-10
-1.03473e-09
2.69552e-08
1.86127e-09
-1.84562e-09
4.36985e-08
2.07665e-09
-2.55081e-09
5.14836e-08
2.1647e-09
-3.15746e-09
5.74454e-08
2.22323e-09
-3.67411e-09
6.20375e-08
2.25316e-09
-4.10739e-09
6.55967e-08
2.26574e-09
-4.46081e-09
6.83749e-08
2.26523e-09
-4.74131e-09
7.05592e-08
2.25682e-09
-4.95399e-09
7.22901e-08
2.24173e-09
-5.09984e-09
7.36712e-08
2.22336e-09
-5.18836e-09
7.47811e-08
2.20169e-09
-5.21517e-09
7.56767e-08
2.17935e-09
-5.19042e-09
7.64014e-08
2.15573e-09
-5.11408e-09
7.69859e-08
2.1331e-09
-4.99049e-09
7.74534e-08
2.11053e-09
-4.82232e-09
7.78185e-08
2.09003e-09
-4.61801e-09
7.80921e-08
2.07043e-09
-4.37402e-09
7.82783e-08
2.05351e-09
-4.10314e-09
7.83787e-08
2.03786e-09
-3.80169e-09
7.83892e-08
2.02504e-09
-3.47662e-09
7.83027e-08
2.01341e-09
-3.13281e-09
7.81058e-08
2.00427e-09
-2.77158e-09
7.77807e-08
1.99576e-09
-2.3935e-09
7.73009e-08
1.98897e-09
-2.00602e-09
7.66321e-08
1.98176e-09
-1.614e-09
7.57264e-08
1.97494e-09
-1.21825e-09
7.45219e-08
1.96603e-09
-8.30782e-10
7.29338e-08
1.95527e-09
-4.59266e-10
7.08511e-08
1.93949e-09
-1.17344e-10
6.81241e-08
1.91796e-09
1.70153e-10
6.4554e-08
1.88605e-09
3.83086e-10
5.98742e-08
1.83954e-09
4.88902e-10
5.37286e-08
1.76464e-09
4.4179e-10
4.56401e-08
1.65667e-09
2.81065e-08
1.44323e-09
-9.35442e-10
2.62885e-08
1.60142e-09
-1.69875e-09
4.26173e-08
1.8464e-09
-2.38075e-09
5.02077e-08
1.95524e-09
-2.97482e-09
5.6019e-08
2.02325e-09
-3.49132e-09
6.04909e-08
2.06121e-09
-3.92696e-09
6.39525e-08
2.08019e-09
-4.28857e-09
6.66482e-08
2.0877e-09
-4.57544e-09
6.87618e-08
2.0862e-09
-4.79579e-09
7.04293e-08
2.07964e-09
-4.94711e-09
7.17539e-08
2.06875e-09
-5.03175e-09
7.28108e-08
2.0563e-09
-5.0564e-09
7.36578e-08
2.04217e-09
-5.01892e-09
7.43363e-08
2.02858e-09
-4.9264e-09
7.4878e-08
2.01497e-09
-4.77999e-09
7.53043e-08
2.00324e-09
-4.58582e-09
7.56317e-08
1.99253e-09
-4.34749e-09
7.58692e-08
1.98448e-09
-4.07001e-09
7.60229e-08
1.97796e-09
-3.75868e-09
7.60928e-08
1.97435e-09
-3.418e-09
7.60764e-08
1.97228e-09
-3.05396e-09
7.59654e-08
1.97284e-09
-2.67069e-09
7.57483e-08
1.97442e-09
-2.27302e-09
7.54061e-08
1.97788e-09
-1.86914e-09
7.49147e-08
1.98134e-09
-1.46175e-09
7.4239e-08
1.9854e-09
-1.05641e-09
7.33346e-08
1.9879e-09
-6.63845e-10
7.21399e-08
1.98907e-09
-2.92328e-10
7.0575e-08
1.98626e-09
4.96895e-11
6.85315e-08
1.979e-09
3.42619e-10
6.58672e-08
1.96363e-09
5.68451e-10
6.23902e-08
1.93818e-09
7.00315e-10
5.78462e-08
1.89594e-09
7.07477e-10
5.18936e-08
1.8277e-09
5.47996e-10
4.40767e-08
1.72409e-09
2.71586e-08
1.49544e-09
-6.27281e-10
2.59027e-08
1.01362e-09
-1.19795e-09
4.19917e-08
1.19582e-09
-1.7378e-09
4.94688e-08
1.27761e-09
-2.23248e-09
5.51887e-08
1.32638e-09
-2.67715e-09
5.95852e-08
1.3503e-09
-3.06555e-09
6.29807e-08
1.36058e-09
-3.39617e-09
6.56178e-08
1.36111e-09
-3.66811e-09
6.76765e-08
1.35575e-09
-3.87598e-09
6.92929e-08
1.34563e-09
-4.02364e-09
7.05674e-08
1.33342e-09
-4.11019e-09
7.15769e-08
1.31945e-09
-4.13374e-09
7.23771e-08
1.3058e-09
-4.10151e-09
7.30111e-08
1.29232e-09
-4.01455e-09
7.35093e-08
1.2808e-09
-3.8755e-09
7.3895e-08
1.27077e-09
-3.69092e-09
7.41833e-08
1.26375e-09
-3.46518e-09
7.43852e-08
1.25902e-09
-3.20613e-09
7.45052e-08
1.25779e-09
-2.91724e-09
7.45455e-08
1.25907e-09
-2.60809e-09
7.45022e-08
1.26381e-09
-2.28152e-09
7.43687e-08
1.27072e-09
-1.94528e-09
7.41322e-08
1.28048e-09
-1.60635e-09
7.37756e-08
1.29154e-09
-1.27101e-09
7.32735e-08
1.30432e-09
-9.41694e-10
7.25934e-08
1.31704e-09
-6.26417e-10
7.16897e-08
1.32987e-09
-3.32156e-10
7.05041e-08
1.34075e-09
-6.32902e-11
6.89566e-08
1.34948e-09
1.71266e-10
6.69435e-08
1.35351e-09
3.61685e-10
6.43244e-08
1.35198e-09
4.96492e-10
6.09143e-08
1.34131e-09
5.59238e-10
5.64644e-08
1.31861e-09
5.3286e-10
5.06445e-08
1.27566e-09
3.92327e-10
4.30107e-08
1.20748e-09
2.6506e-08
1.04377e-09
-2.20314e-10
2.58848e-08
2.39439e-10
-5.33547e-10
4.20041e-08
3.00085e-10
-8.82993e-10
4.94908e-08
3.28173e-10
-1.24699e-09
5.52116e-08
3.38915e-10
-1.59881e-09
5.96002e-08
3.37276e-10
-1.92761e-09
6.29816e-08
3.28034e-10
-2.22027e-09
6.55978e-08
3.14425e-10
-2.47361e-09
6.76314e-08
2.97156e-10
-2.67667e-09
6.92181e-08
2.7823e-10
-2.82883e-09
7.04608e-08
2.57997e-10
-2.92451e-09
7.14355e-08
2.38245e-10
-2.96812e-09
7.22007e-08
2.19084e-10
-2.95766e-09
7.27986e-08
2.02105e-10
-2.89648e-09
7.32621e-08
1.87219e-10
-2.79186e-09
7.36134e-08
1.75809e-10
-2.64531e-09
7.38699e-08
1.67551e-10
-2.46475e-09
7.40415e-08
1.63579e-10
-2.25775e-09
7.41349e-08
1.63284e-10
-2.03092e-09
7.41507e-08
1.67514e-10
-1.79206e-09
7.40869e-08
1.75366e-10
-1.54425e-09
7.39356e-08
1.87381e-10
-1.30066e-09
7.36852e-08
2.02361e-10
-1.06262e-09
7.33174e-08
2.20589e-10
-8.37892e-10
7.28081e-08
2.40638e-10
-6.30867e-10
7.2123e-08
2.62567e-10
-4.42444e-10
7.12184e-08
2.84776e-10
-2.8042e-10
7.00339e-08
3.07167e-10
-1.43996e-10
6.84917e-08
3.28023e-10
-3.18098e-11
6.64865e-08
3.47095e-10
4.80467e-11
6.38802e-08
3.62502e-10
1.01937e-10
6.04872e-08
3.73731e-10
1.26454e-10
5.60617e-08
3.78378e-10
1.21875e-10
5.0274e-08
3.74516e-10
8.83528e-11
4.26846e-08
3.60321e-10
2.6279e-08
3.15167e-10
1.54538e-10
2.6251e-08
-5.20588e-10
8.07803e-11
4.26663e-08
-5.89285e-10
-9.26224e-11
5.02852e-08
-6.19849e-10
-3.31102e-10
5.60978e-08
-6.48598e-10
-6.00258e-10
6.05475e-08
-6.78158e-10
-8.772e-10
6.39658e-08
-7.07557e-10
-1.14384e-09
6.66012e-08
-7.37451e-10
-1.384e-09
6.86394e-08
-7.67217e-10
-1.58939e-09
7.02206e-08
-7.97088e-10
-1.7527e-09
7.14493e-08
-8.25924e-10
-1.86756e-09
7.24052e-08
-8.53625e-10
-1.93552e-09
7.31472e-08
-8.78897e-10
-1.95552e-09
7.37206e-08
-9.016e-10
-1.93141e-09
7.4158e-08
-9.20483e-10
-1.86719e-09
7.44843e-08
-9.35536e-10
-1.76792e-09
7.47163e-08
-9.45696e-10
-1.64049e-09
7.48659e-08
-9.5119e-10
-1.49448e-09
7.49388e-08
-9.51239e-10
-1.33334e-09
7.49375e-08
-9.46363e-10
-1.17024e-09
7.48586e-08
-9.36106e-10
-1.00717e-09
7.46955e-08
-9.21294e-10
-8.55939e-10
7.44352e-08
-9.01773e-10
-7.20629e-10
7.406e-08
-8.78635e-10
-6.02789e-10
7.35441e-08
-8.51944e-10
-5.11054e-10
7.28538e-08
-8.22974e-10
-4.44807e-10
7.19427e-08
-7.91883e-10
-4.01032e-10
7.0751e-08
-7.59951e-10
-3.80517e-10
6.91977e-08
-7.27256e-10
-3.73923e-10
6.7177e-08
-6.94865e-10
-3.80135e-10
6.4547e-08
-6.62473e-10
-3.81982e-10
6.11205e-08
-6.30593e-10
-3.67062e-10
5.66466e-08
-5.97967e-10
-3.23749e-10
5.07913e-08
-5.63319e-10
-2.24498e-10
4.3108e-08
-5.21494e-10
2.64957e-08
-4.41402e-10
4.03691e-10
2.69299e-08
-1.08359e-09
4.98356e-10
4.38274e-08
-1.2542e-09
4.49294e-10
5.16643e-08
-1.33076e-09
3.03557e-10
5.76346e-08
-1.39138e-09
9.99725e-11
6.21949e-08
-1.44282e-09
-1.34882e-10
6.56892e-08
-1.48908e-09
-3.73836e-10
6.8373e-08
-1.53182e-09
-6.03532e-10
7.04397e-08
-1.57247e-09
-8.0632e-10
7.20336e-08
-1.61102e-09
-9.70881e-10
7.32644e-08
-1.64771e-09
-1.09757e-09
7.42136e-08
-1.68178e-09
-1.18316e-09
7.4944e-08
-1.713e-09
-1.22272e-09
7.55017e-08
-1.74034e-09
-1.22434e-09
7.59222e-08
-1.76355e-09
-1.18981e-09
7.62307e-08
-1.78165e-09
-1.12317e-09
7.64459e-08
-1.79451e-09
-1.03713e-09
7.65795e-08
-1.8014e-09
-9.33779e-10
7.66388e-08
-1.80248e-09
-8.23798e-10
7.66254e-08
-1.79729e-09
-7.17342e-10
7.6537e-08
-1.78633e-09
-6.17876e-10
7.63659e-08
-1.76947e-09
-5.35189e-10
7.60996e-08
-1.7475e-09
-4.73896e-10
7.57187e-08
-1.72056e-09
-4.37268e-10
7.51975e-08
-1.68967e-09
-4.2837e-10
7.44998e-08
-1.65511e-09
-4.46219e-10
7.35789e-08
-1.61791e-09
-4.88586e-10
7.23715e-08
-1.5783e-09
-5.49534e-10
7.0795e-08
-1.53704e-09
-6.18259e-10
6.8739e-08
-1.49386e-09
-6.79585e-10
6.60586e-08
-1.44871e-09
-7.20131e-10
6.25593e-08
-1.40016e-09
-7.12741e-10
5.79843e-08
-1.3461e-09
-6.27226e-10
5.19883e-08
-1.28092e-09
-4.36407e-10
4.41129e-08
-1.19601e-09
2.70766e-08
-1.01729e-09
4.88894e-10
2.7795e-08
-1.35404e-09
6.48323e-10
4.52396e-08
-1.57286e-09
6.60626e-10
5.33261e-08
-1.6722e-09
5.64152e-10
5.94785e-08
-1.74845e-09
4.0066e-10
6.41695e-08
-1.81115e-09
2.01768e-10
6.77553e-08
-1.86575e-09
-1.32122e-11
7.05011e-08
-1.91551e-09
-2.18205e-10
7.26071e-08
-1.96172e-09
-4.02139e-10
7.42239e-08
-2.00534e-09
-5.57029e-10
7.54646e-08
-2.04616e-09
-6.73734e-10
7.64153e-08
-2.08416e-09
-7.53471e-10
7.71407e-08
-2.11856e-09
-7.91666e-10
7.76899e-08
-2.14898e-09
-7.93374e-10
7.80993e-08
-2.17454e-09
-7.6445e-10
7.83962e-08
-2.19489e-09
-7.09632e-10
7.85996e-08
-2.20926e-09
-6.34895e-10
7.87229e-08
-2.21754e-09
-5.50382e-10
7.87729e-08
-2.21923e-09
-4.62327e-10
7.87523e-08
-2.21452e-09
-3.7843e-10
7.86581e-08
-2.20325e-09
-3.11743e-10
7.84828e-08
-2.18594e-09
-2.61406e-10
7.82129e-08
-2.16272e-09
-2.37251e-10
7.78288e-08
-2.1344e-09
-2.40878e-10
7.7303e-08
-2.10133e-09
-2.75121e-10
7.65984e-08
-2.06443e-09
-3.36513e-10
7.56657e-08
-2.02407e-09
-4.25456e-10
7.44397e-08
-1.98103e-09
-5.29518e-10
7.28341e-08
-1.93535e-09
-6.37656e-10
7.07352e-08
-1.88718e-09
-7.35601e-10
6.79917e-08
-1.83557e-09
-7.9944e-10
6.44033e-08
-1.77921e-09
-8.05483e-10
5.97039e-08
-1.71454e-09
-7.18412e-10
5.35365e-08
-1.63502e-09
-5.01477e-10
4.54278e-08
-1.52985e-09
2.78793e-08
-1.30542e-09
4.28226e-10
2.86892e-08
-1.32423e-09
5.69398e-10
4.66345e-08
-1.53449e-09
5.764e-10
5.49498e-08
-1.63117e-09
4.9036e-10
6.12704e-08
-1.70639e-09
3.47271e-10
6.60826e-08
-1.76828e-09
1.70168e-10
6.97541e-08
-1.82261e-09
-1.52527e-11
7.25582e-08
-1.87219e-09
-1.90282e-10
7.47024e-08
-1.91861e-09
-3.46035e-10
7.63415e-08
-1.96239e-09
-4.71376e-10
7.75936e-08
-2.00368e-09
-5.611e-10
7.85474e-08
-2.04203e-09
-6.13554e-10
7.92704e-08
-2.07703e-09
-6.30181e-10
7.98135e-08
-2.10791e-09
-6.11261e-10
8.02151e-08
-2.13414e-09
-5.63948e-10
8.05032e-08
-2.15497e-09
-4.92303e-10
8.06985e-08
-2.17003e-09
-4.04439e-10
8.08142e-08
-2.17878e-09
-3.07947e-10
8.08584e-08
-2.18112e-09
-2.1341e-10
8.08333e-08
-2.17683e-09
-1.2642e-10
8.07364e-08
-2.16614e-09
-5.24438e-11
8.05594e-08
-2.14917e-09
-1.24364e-12
8.02886e-08
-2.12647e-09
2.18063e-11
7.99034e-08
-2.09842e-09
1.51553e-11
7.93755e-08
-2.06579e-09
-2.30798e-11
7.8666e-08
-2.02911e-09
-9.30999e-11
7.7724e-08
-1.98916e-09
-1.87682e-10
7.64816e-08
-1.94634e-09
-3.00008e-10
7.48499e-08
-1.90112e-09
-4.25094e-10
7.27105e-08
-1.85331e-09
-5.38864e-10
6.99085e-08
-1.80238e-09
-6.22995e-10
6.6236e-08
-1.74675e-09
-6.56424e-10
6.14195e-08
-1.68341e-09
-6.05628e-10
5.50908e-08
-1.60585e-09
-4.34155e-10
4.67633e-08
-1.50508e-09
2.87352e-08
-1.29074e-09
2.72027e-10
2.94789e-08
-1.05987e-09
3.26439e-10
4.77936e-08
-1.2154e-09
2.86819e-10
5.62787e-08
-1.2893e-09
1.83294e-10
6.27242e-08
-1.34975e-09
4.0071e-11
6.76262e-08
-1.40141e-09
-1.18499e-10
7.13606e-08
-1.44811e-09
-2.74816e-10
7.42071e-08
-1.49197e-09
-4.1676e-10
7.63779e-08
-1.53383e-09
-5.3323e-10
7.8032e-08
-1.57406e-09
-6.1774e-10
7.92904e-08
-1.6124e-09
-6.6585e-10
8.02444e-08
-1.64844e-09
-6.76965e-10
8.09635e-08
-1.68149e-09
-6.52887e-10
8.15002e-08
-1.71093e-09
-5.96659e-10
8.18942e-08
-1.736e-09
-5.10883e-10
8.21749e-08
-1.75614e-09
-4.07945e-10
8.23631e-08
-1.77073e-09
-2.843e-10
8.24733e-08
-1.77946e-09
-1.5736e-10
8.25133e-08
-1.78202e-09
-3.28627e-11
8.24858e-08
-1.77837e-09
8.33905e-11
8.23881e-08
-1.76856e-09
1.8424e-10
8.2212e-08
-1.75288e-09
2.61605e-10
8.19429e-08
-1.73169e-09
3.10665e-10
8.15598e-08
-1.70558e-09
3.29696e-10
8.1033e-08
-1.67512e-09
3.12174e-10
8.0323e-08
-1.64108e-09
2.63019e-10
7.93769e-08
-1.60407e-09
1.84811e-10
7.81251e-08
-1.5648e-09
8.12864e-11
7.64762e-08
-1.52365e-09
-3.53061e-11
7.43091e-08
-1.48086e-09
-1.55748e-10
7.14645e-08
-1.43608e-09
-2.61036e-10
6.77303e-08
-1.38845e-09
-3.32959e-10
6.28265e-08
-1.33573e-09
-3.4595e-10
5.63772e-08
-1.27355e-09
-2.7165e-10
4.78861e-08
-1.19667e-09
2.9501e-08
-1.038e-09
6.98373e-11
3.00687e-08
-6.60396e-10
1.61637e-11
4.85831e-08
-7.34086e-10
-9.39447e-11
5.71601e-08
-7.73152e-10
-2.30483e-10
6.36727e-08
-8.10797e-10
-3.81604e-10
6.86218e-08
-8.46338e-10
-5.27072e-10
7.23877e-08
-8.81022e-10
-6.56331e-10
7.52536e-08
-9.155e-10
-7.62961e-10
7.74342e-08
-9.49903e-10
-8.40184e-10
7.90912e-08
-9.83987e-10
-8.77207e-10
8.03473e-08
-1.01724e-09
-8.78949e-10
8.12956e-08
-1.04899e-09
-8.47131e-10
8.20069e-08
-1.0785e-09
-7.74169e-10
8.25349e-08
-1.10499e-09
-6.72768e-10
8.29201e-08
-1.12775e-09
-5.45334e-10
8.31925e-08
-1.14614e-09
-3.95306e-10
8.33739e-08
-1.1596e-09
-2.32119e-10
8.34789e-08
-1.16774e-09
-6.56471e-11
8.35158e-08
-1.17033e-09
9.96846e-11
8.34873e-08
-1.16725e-09
2.57042e-10
8.33907e-08
-1.1586e-09
3.95632e-10
8.32175e-08
-1.14464e-09
5.10654e-10
8.29528e-08
-1.12576e-09
5.9965e-10
8.25751e-08
-1.10249e-09
6.53425e-10
8.20539e-08
-1.0755e-09
6.72572e-10
8.13489e-08
-1.04549e-09
6.58221e-10
8.0406e-08
-1.01323e-09
6.08063e-10
7.91545e-08
-9.79451e-10
5.27663e-10
7.75013e-08
-9.44829e-10
4.23785e-10
7.53235e-08
-9.09855e-10
3.03171e-10
7.24596e-08
-8.74771e-10
1.78313e-10
6.86946e-08
-8.39429e-10
6.08542e-11
6.37454e-08
-8.0309e-10
-2.59807e-11
5.72317e-08
-7.64119e-10
-7.40032e-11
4.86525e-08
-7.22781e-10
3.0076e-08
-6.46568e-10
-1.23636e-10
3.04197e-08
-2.27457e-10
-2.90582e-10
4.89616e-08
-2.12379e-10
-4.69228e-10
5.75519e-08
-2.13339e-10
-6.42638e-10
6.40727e-08
-2.25824e-10
-8.03001e-10
6.9025e-08
-2.43474e-10
-9.38662e-10
7.27895e-08
-2.64645e-10
-1.04824e-09
7.56502e-08
-2.8849e-10
-1.12085e-09
7.78226e-08
-3.14274e-10
-1.15864e-09
7.9469e-08
-3.41184e-10
-1.15678e-09
8.07131e-08
-3.68355e-10
-1.11301e-09
8.16486e-08
-3.94797e-10
-1.03479e-09
8.23472e-08
-4.19617e-10
-9.2056e-10
8.28629e-08
-4.4228e-10
-7.74478e-10
8.32371e-08
-4.62023e-10
-6.04472e-10
8.35001e-08
-4.78095e-10
-4.14241e-10
8.36741e-08
-4.89974e-10
-2.12498e-10
8.37739e-08
-4.97238e-10
-5.79378e-12
8.38083e-08
-4.99641e-10
1.99244e-10
8.37797e-08
-4.97094e-10
3.95954e-10
8.36856e-08
-4.89687e-10
5.72047e-10
8.35171e-08
-4.77654e-10
7.28937e-10
8.32594e-08
-4.61421e-10
8.53395e-10
8.28902e-08
-4.41512e-10
9.48635e-10
8.23792e-08
-4.18579e-10
1.00571e-09
8.16848e-08
-3.93451e-10
1.02454e-09
8.07531e-08
-3.66922e-10
1.00623e-09
7.95123e-08
-3.39601e-10
9.52913e-10
7.78688e-08
-3.12407e-10
8.62233e-10
7.56987e-08
-2.8629e-10
7.45395e-10
7.284e-08
-2.62049e-10
6.0291e-10
6.90768e-08
-2.4041e-10
4.43877e-10
6.41256e-08
-2.22142e-10
2.80794e-10
5.76054e-08
-2.08605e-10
1.20767e-10
4.90156e-08
-2.05824e-10
3.04174e-08
-2.18892e-10
-2.71974e-10
3.05321e-08
1.59081e-10
-5.23891e-10
4.896e-08
2.54142e-10
-7.57754e-10
5.74983e-08
2.87726e-10
-9.62374e-10
6.3978e-08
2.98268e-10
-1.13013e-09
6.88966e-08
2.97199e-10
-1.26167e-09
7.26321e-08
2.88775e-10
-1.35507e-09
7.5467e-08
2.75113e-10
-1.40444e-09
7.76158e-08
2.57721e-10
-1.41515e-09
7.92402e-08
2.37804e-10
-1.38174e-09
8.04637e-08
2.16545e-10
-1.3078e-09
8.138e-08
1.94849e-10
-1.19552e-09
8.20608e-08
1.73676e-10
-1.04853e-09
8.25608e-08
1.54109e-10
-8.67283e-10
8.29211e-08
1.37018e-10
-6.6372e-10
8.31729e-08
1.22956e-10
-4.41521e-10
8.33383e-08
1.12516e-10
-2.0468e-10
8.34326e-08
1.06071e-10
3.37901e-11
8.34643e-08
1.0387e-10
2.71731e-10
8.34364e-08
1.05976e-10
4.99209e-10
8.33458e-08
1.12326e-10
7.11126e-10
8.31841e-08
1.22672e-10
8.96164e-10
8.29358e-08
1.36667e-10
1.05484e-09
8.25788e-08