/*--------------------------------*- C++ -*----------------------------------*\
| =========                 |                                                 |
| \\      /  F ield         | OpenFOAM: The Open Source CFD Toolbox           |
|  \\    /   O peration     | Version:  v1906                                 |
|   \\  /    A nd           | Web:      www.OpenFOAM.com                      |
|    \\/     M anipulation  |                                                 |
\*---------------------------------------------------------------------------*/
FoamFile
{
    version     2.0;
    format      ascii;
    class       volScalarField;
    location    "76.6/sphere";
    object      T;
}
// * * * * * * * * * * * * * * * * * * * * * * * * * * * * * * * * * * * * * //

dimensions      [0 0 0 1 0 0 0];


internalField   nonuniform List<scalar> 
304
(
460.06
460.088
460.082
460.099
460.058
460.049
460.059
460.088
460.058
460.198
460.198
460.099
460.082
460.192
460.193
460.124
460.085
460.117
460.045
460.087
460.103
460.059
460.088
460.199
460.198
460.128
460.1
460.193
460.193
460.15
460.046
460.117
460.144
460.08
460.06
460.101
460.128
460.064
460.061
460.125
460.15
460.087
460.046
460.08
460.035
460.047
460.06
460.061
460.062
460.093
460.06
460.06
460.093
460.062
460.048
460.06
460.063
460.06
460.093
460.088
460.087
460.102
460.1
460.129
460.128
460.152
460.06
460.102
460.088
460.129
460.1
460.152
460.128
460.06
460.063
460.093
460.061
460.054
460.054
460.086
460.047
460.099
460.046
460.078
460.122
460.149
460.087
460.119
460.084
460.079
460.049
460.149
460.124
460.12
460.089
460.088
460.057
460.049
460.032
460.047
460.044
460.079
460.045
460.08
460.045
460.044
460.032
460.061
460.059
460.059
460.092
460.088
460.099
460.13
460.087
460.104
460.129
460.154
460.06
460.13
460.1
460.104
460.088
460.154
460.129
460.061
460.06
460.093
460.06
460.1
460.087
460.128
460.087
460.129
460.102
460.152
460.058
460.128
460.088
460.129
460.088
460.152
460.102
460.123
460.047
460.088
460.099
460.149
460.079
460.119
460.084
460.089
460.049
460.15
460.1
460.12
460.08
460.046
460.047
460.08
460.045
460.117
460.043
460.075
460.117
460.144
460.074
460.092
460.085
460.075
460.043
460.144
460.117
460.093
460.075
460.079
460.047
460.044
460.058
460.06
460.093
460.064
460.103
460.129
460.154
460.059
460.087
460.1
460.129
460.087
460.154
460.128
460.087
460.057
460.128
460.098
460.092
460.059
460.06
460.13
460.102
460.153
460.062
460.102
460.089
460.129
460.088
460.152
460.103
460.1
460.06
460.128
460.088
460.15
460.08
460.12
460.086
460.125
460.05
460.09
460.1
460.12
460.08
460.124
460.084
460.089
460.049
460.079
460.045
460.046
460.144
460.074
460.093
460.086
460.117
460.044
460.075
460.118
460.093
460.076
460.118
460.087
460.076
460.047
460.048
460.046
460.047
460.051
460.058
460.062
460.092
460.059
460.092
460.06
460.059
460.046
460.066
460.062
460.094
460.062
460.129
460.129
460.153
460.062
460.088
460.089
460.102
460.1
460.152
460.128
460.087
460.058
460.102
460.087
460.093
460.061
460.059
460.09
460.051
460.057
460.15
460.089
460.12
460.084
460.1
460.048
460.08
460.124
460.12
460.09
460.099
460.083
460.08
460.049
460.056
460.049
460.055
460.035
460.08
460.046
460.048
460.047
460.046
460.048
)
;

boundaryField
{
    sphere_to_oil
    {
        type            compressible::turbulentTemperatureCoupledBaffleMixed;
        refValue        nonuniform List<scalar> 
360
(
332.915
332.915
322.506
356.409
363.855
325.217
364.88
364.88
364.88
343.553
343.553
329.153
333.62
321.251
342.887
351.717
347.69
347.69
347.69
322.613
346.583
325.403
329.196
359.044
317.443
359.28
322.997
359.261
359.261
359.261
365.433
358.053
322.423
322.081
328.923
329.006
348.608
348.608
348.608
347.933
350.021
324.96
326.571
333.372
333.372
322.814
331.078
314.793
332.423
359.611
325.142
325.252
332.951
333.483
322.396
325.179
348.151
322.726
326.655
335.124
318.582
360.415
360.415
360.415
314.841
358.964
332.328
323.796
363.382
363.382
363.382
364.334
363.043
320.379
347.398
342.24
322.356
328.428
350.013
348.685
329.968
321.488
329.644
318.438
322.406
324.795
329.135
333.35
321.859
322.864
322.632
332.421
328.738
322.755
332.065
328.745
329.349
329.425
325.442
317.197
317.315
322.522
325.166
328.733
332.346
322.439
321.149
333.543
325.078
329.384
329.354
329.242
325.373
322.613
315.011
314.971
328.633
323.987
329.717
332.785
332.785
356.409
356.409
359.044
359.044
356.898
356.898
356.898
358.401
358.401
358.401
329.061
324.228
328.576
323.518
363.855
363.855
340.043
340.043
365.433
365.433
339.388
339.388
364.78
364.78
364.78
323.165
322.939
352.235
352.235
352.235
352.061
352.061
352.061
351.717
346.583
342.887
351.717
351.797
322.753
351.797
351.797
329.226
330.049
321.602
325.501
325.501
351.314
351.314
351.314
318.54
346.583
325.403
350.453
350.453
318.409
350.453
330.032
321.513
314.868
323.008
323.336
331.672
317.33
331.136
323.272
314.919
317.388
359.28
359.28
358.053
358.053
333.761
333.761
356.435
356.435
356.435
332.151
332.151
317.048
328.254
325.521
332.543
328.458
324.891
332.376
325.14
333.617
329.457
324.955
347.933
333.43
329.565
322.76
350.738
350.738
350.738
325.934
325.934
318.433
326.782
326.587
334.959
350.021
324.866
334.876
326.918
347.933
350.021
325.731
322.726
325.731
318.806
314.928
331.005
317.374
323.165
323.051
323.306
317.196
316.984
360.347
355.401
360.347
360.347
355.401
355.401
359.611
358.964
332.423
357.678
317.203
359.611
357.678
357.678
331.79
322.175
328.498
332.289
322.777
364.334
328.567
329.124
329.147
325.228
348.151
347.398
329.419
329.226
325.346
347.711
351.638
325.179
350.36
318.595
348.151
350.36
350.36
335.406
324.846
350.013
326.701
326.851
326.544
350.384
324.829
350.126
325.572
347.711
325.572
350.384
347.711
350.384
314.748
324.061
328.154
328.321
332.706
356.523
332.706
356.523
356.523
317.044
358.964
357.601
332.328
357.601
317.06
357.601
329.19
328.894
321.935
362.41
340.094
362.41
362.41
340.094
322.496
324.836
328.321
332.199
363.043
364.334
339.606
323.183
363.043
339.606
322.437
347.398
352.159
342.24
352.159
321.635
352.159
333.632
348.685
325.291
329.659
351.412
348.322
351.638
341.814
351.638
351.412
341.814
351.412
321.396
329.503
350.013
325.474
318.495
348.685
325.474
322.986
350.126
348.322
350.126
325.573
348.322
325.573
)
;
        refGradient     uniform 0;
        valueFraction   nonuniform List<scalar> 
360
(
0.00013865
0.000133015
8.51578e-05
0.000304216
0.000312
0.000178907
0.000313939
0.000269476
0.000419447
0.000133552
0.00013021
0.000174681
0.00026622
7.61185e-05
0.000136164
0.00026469
0.000303329
0.000283419
0.000397701
6.96535e-05
0.000261125
0.000128372
0.000118314
0.000313958
9.11546e-05
0.000322712
0.000181909
0.000318544
0.000416875
0.000278863
0.000318597
0.000321341
8.62877e-05
8.53237e-05
0.000179057
0.000176209
0.000298167
0.000404228
0.000277577
0.000417361
0.000412267
8.80312e-05
0.00017461
0.000127435
0.000127282
0.000179743
0.000268911
7.17452e-05
0.000128375
0.000272213
0.000177314
0.000178466
0.000266021
0.000263436
7.44286e-05
0.000136157
0.00027766
7.13006e-05
0.000176635
0.000263398
6.9791e-05
0.000310079
0.000273726
0.000428407
7.19503e-05
0.000279874
0.00013055
0.000126268
0.000317243
0.000413855
0.00027839
0.000399087
0.000404674
7.72894e-05
0.000269826
0.000136884
7.12586e-05
0.00012778
0.000403831
0.000419507
0.000125327
0.000122963
0.000120775
7.1779e-05
8.65557e-05
0.000175481
0.000176465
0.000267235
8.06684e-05
6.81135e-05
8.56622e-05
0.000266799
0.00017613
8.75045e-05
0.000266358
0.000178141
0.000177087
0.000177361
8.64896e-05
6.93256e-05
7.02981e-05
6.93625e-05
0.000178317
0.000175261
0.000266597
7.84905e-05
6.81775e-05
0.000266405
8.46332e-05
0.000175539
0.000175571
0.000179153
8.76043e-05
7.01499e-05
6.84131e-05
6.97348e-05
0.000121383
0.000121529
0.00012625
0.0001369
0.000128667
0.000265856
0.000418806
0.000280098
0.000422657
0.000270926
0.000416525
0.000310129
0.000271145
0.000407459
0.000305427
0.00012458
0.000117814
0.000120672
6.66156e-05
0.000276273
0.000415959
0.000128699
0.000129286
0.000420364
0.000279494
0.000134913
0.000142191
0.00041519
0.000285221
0.000328657
7.33144e-05
6.82273e-05
0.000287972
0.000399059
0.000316314
0.000296504
0.000412876
0.000316281
0.000326551
0.000300794
0.000140703
0.000419391
0.0002709
7.5528e-05
0.00040762
0.000305034
0.00011641
0.000122643
0.00012133
0.000127996
0.000133797
0.000417298
0.000274768
0.000322521
7.73311e-05
0.000401423
0.000137647
0.000422107
0.000270219
7.55357e-05
0.0003204
0.000117443
0.000118533
6.9253e-05
0.00018152
0.000181448
0.000268299
8.94701e-05
0.000268704
0.000176804
6.85419e-05
6.65565e-05
0.000419878
0.000266789
0.00041495
0.000276653
0.000131964
0.000123411
0.000416885
0.00026055
0.00030117
0.000121987
0.000141543
7.12092e-05
0.00017833
0.000178168
0.000266196
0.000174298
0.000175195
0.000265147
9.08817e-05
0.000266058
0.000180399
8.83798e-05
0.000299467
0.000265763
0.000179319
7.14643e-05
0.000407791
0.000264364
0.000309308
0.000128861
0.000119752
6.9172e-05
0.000176947
0.000179923
0.000266767
0.000303304
8.48287e-05
0.000264236
0.000172575
0.000262489
0.000277885
0.000126141
7.08515e-05
0.000139974
7.17279e-05
6.75165e-05
0.00026974
9.00186e-05
0.000181343
0.000179246
0.00017711
8.8887e-05
6.78976e-05
0.000275796
0.000258428
0.000433839
0.000322929
0.000404748
0.000290812
0.000311698
0.000319135
0.000141856
0.000273779
7.3763e-05
0.00041662
0.000405102
0.000307793
0.000268459
8.55413e-05
0.000174681
0.000265372
8.63073e-05
0.000316207
0.000175437
0.000176693
0.000175065
8.57858e-05
0.000313855
0.000294109
0.00017861
0.000173992
8.74375e-05
0.000294688
0.000324373
0.000128644
0.000291187
6.91565e-05
0.000414851
0.0004022
0.000303908
0.000263407
8.65326e-05
0.000304385
0.000175269
0.000175539
0.000176538
0.000306042
8.73434e-05
0.000312685
0.000131571
0.000269591
0.000132669
0.000274724
0.000418656
0.000411002
6.91222e-05
0.000138514
0.000136877
0.000133879
0.000121921
0.000407898
0.000133162
0.000271176
0.000319323
6.81148e-05
0.000411879
0.000411382
0.000134673
0.000292504
7.13816e-05
0.000313586
0.000119396
0.000117293
7.13228e-05
0.000403416
0.000120567
0.000264567
0.000311589
0.000129259
7.04645e-05
0.000175332
0.000175273
0.00026448
0.000302629
0.00026249
0.00012691
6.83135e-05
0.000266886
0.000140953
7.88972e-05
0.000386764
0.000415306
0.000122742
0.000263813
7.31423e-05
0.000331786
0.000266508
0.000319313
8.73521e-05
0.000176088
0.000307858
0.000298462
0.000280786
0.000125504
0.00041131
0.000410425
0.000148983
0.000274344
0.000120707
0.000122559
0.000276197
0.000136723
7.39228e-05
0.000279335
0.000131652
6.82665e-05
0.000406555
0.000411434
0.000270712
0.000131377
0.000265913
0.000135709
)
;
        value           nonuniform List<scalar> 
360
(
460.061
460.062
460.067
460.047
460.049
460.082
460.048
460.053
460.042
460.058
460.058
460.078
460.084
460.066
460.061
460.048
460.031
460.034
460.018
460.058
460.038
460.05
460.036
460.046
460.065
460.045
460.082
460.047
460.038
460.05
460.047
460.044
460.065
460.065
460.077
460.08
460.033
460.02
460.035
460.017
460.019
460.05
460.07
460.061
460.063
460.081
460.087
460.067
460.061
460.05
460.083
460.082
460.085
460.085
460.055
460.047
460.034
460.057
460.07
460.079
460.054
460.047
460.05
460.039
460.068
460.05
460.062
460.048
460.05
460.044
460.054
460.044
460.043
460.069
460.049
460.063
460.065
460.037
460.02
460.018
460.038
460.037
460.038
460.055
460.069
460.082
460.08
460.084
460.062
460.057
460.067
460.087
460.083
460.065
460.087
460.082
460.079
460.075
460.056
460.069
460.069
460.069
460.083
460.083
460.087
460.068
460.064
460.084
460.054
460.074
460.08
460.075
460.056
460.056
460.069
460.069
460.05
460.05
460.05
460.062
460.063
460.051
460.037
460.051
460.038
460.051
460.038
460.046
460.052
460.039
460.048
460.05
460.05
460.05
460.07
460.052
460.042
460.063
460.064
460.042
460.053
460.063
460.063
460.042
460.053
460.046
460.07
460.064
460.042
460.023
460.031
460.041
460.022
460.032
460.033
460.034
460.059
460.022
460.046
460.065
460.023
460.035
460.036
460.035
460.035
460.049
460.045
460.017
460.034
460.027
460.052
460.019
460.045
460.018
460.033
460.052
460.027
460.036
460.035
460.067
460.082
460.081
460.088
460.066
460.088
460.083
460.069
460.068
460.037
460.051
460.037
460.05
460.061
460.062
460.037
460.052
460.046
460.063
460.061
460.069
460.082
460.082
460.087
460.084
460.083
460.087
460.054
460.085
460.074
460.056
460.034
460.085
460.075
460.056
460.02
460.035
460.028
460.049
460.048
460.054
460.07
460.069
460.078
460.028
460.05
460.078
460.071
460.036
460.033
460.049
460.056
460.044
460.053
460.067
460.087
460.065
460.081
460.081
460.082
460.063
460.069
460.05
460.052
460.039
460.045
460.04
460.05
460.044
460.043
460.06
460.05
460.068
460.037
460.037
460.048
460.087
460.069
460.085
460.087
460.067
460.049
460.083
460.075
460.082
460.058
460.034
460.036
460.075
460.08
460.056
460.035
460.033
460.046
460.032
460.054
460.019
460.021
460.03
460.079
460.051
460.029
460.071
460.071
460.071
460.032
460.054
460.031
460.049
460.037
460.047
460.034
460.019
460.021
460.067
460.05
460.051
460.052
460.062
460.039
460.061
460.05
460.048
460.068
460.037
460.037
460.06
460.048
460.067
460.045
460.05
460.05
460.071
460.045
460.066
460.055
460.051
460.065
460.071
460.083
460.084
460.087
460.048
460.054
460.064
460.07
460.052
460.061
460.067
460.027
460.025
460.061
460.047
460.065
460.031
460.085
460.032
460.055
460.076
460.035
460.035
460.044
460.06
460.024
460.024
460.056
460.043
460.037
460.038
460.034
460.046
460.054
460.036
460.049
460.058
460.021
460.02
460.035
460.047
460.037
460.048
)
;
        Tnbr            T;
        thicknessLayers 0();
        kappaLayers     0();
        kappaMethod     solidThermo;
        kappa           none;
        alphaAni        none;
    }
}


// ************************************************************************* //
