/*--------------------------------*- C++ -*----------------------------------*\
| =========                 |                                                 |
| \\      /  F ield         | OpenFOAM: The Open Source CFD Toolbox           |
|  \\    /   O peration     | Version:  v1906                                 |
|   \\  /    A nd           | Web:      www.OpenFOAM.com                      |
|    \\/     M anipulation  |                                                 |
\*---------------------------------------------------------------------------*/
FoamFile
{
    version     2.0;
    format      ascii;
    class       volVectorField;
    location    "25.2/oil";
    object      U;
}
// * * * * * * * * * * * * * * * * * * * * * * * * * * * * * * * * * * * * * //

dimensions      [0 1 -1 0 0 0 0];


internalField   nonuniform List<vector> 
27760
(
(-2.87387e-05 -2.93201e-05 -2.87387e-05)
(-5.67595e-05 -2.20039e-05 -2.06912e-05)
(-4.21364e-06 -5.71934e-06 -5.63142e-06)
(-6.94329e-06 -9.50358e-07 -9.87575e-07)
(-1.72205e-06 -3.22674e-07 -3.61809e-07)
(-9.9979e-07 -1.55176e-07 -1.91232e-07)
(-3.5173e-07 -5.63293e-08 -9.21946e-08)
(-6.38265e-08 -1.7536e-08 -5.45927e-08)
(9.30391e-08 2.01495e-09 -3.64205e-08)
(1.67779e-07 1.23055e-08 -2.72519e-08)
(1.92236e-07 1.8508e-08 -2.18133e-08)
(1.81094e-07 2.26267e-08 -1.81504e-08)
(1.43767e-07 2.53926e-08 -1.55961e-08)
(8.75033e-08 2.71691e-08 -1.38894e-08)
(1.92784e-08 2.81216e-08 -1.29553e-08)
(-5.3942e-08 2.82907e-08 -1.27832e-08)
(-1.25396e-07 2.77261e-08 -1.3323e-08)
(-1.88902e-07 2.65085e-08 -1.44578e-08)
(-2.39324e-07 2.47591e-08 -1.60016e-08)
(-2.73006e-07 2.25482e-08 -1.7755e-08)
(-2.88053e-07 1.99949e-08 -1.94713e-08)
(-2.84311e-07 1.72685e-08 -2.08766e-08)
(-2.63192e-07 1.4497e-08 -2.16459e-08)
(-2.27529e-07 1.1739e-08 -2.15539e-08)
(-1.81477e-07 9.0245e-09 -2.04626e-08)
(-1.30238e-07 6.46219e-09 -1.82084e-08)
(-7.98106e-08 4.27599e-09 -1.47824e-08)
(-3.68198e-08 2.90027e-09 -1.04571e-08)
(-7.55564e-09 3.01648e-09 -6.0958e-09)
(2.14478e-09 4.10377e-09 -2.02655e-09)
(-2.08638e-05 -5.83044e-05 -2.08638e-05)
(-6.90923e-06 -7.47513e-06 -9.34512e-06)
(-9.44849e-06 -9.014e-06 -3.26393e-06)
(-4.61682e-06 -2.47386e-06 -9.27703e-07)
(-2.16569e-06 -1.42193e-06 -4.5369e-07)
(-1.10049e-06 -6.89868e-07 -2.16009e-07)
(-3.78372e-07 -3.83001e-07 -1.01299e-07)
(1.77275e-08 -2.25988e-07 -4.82973e-08)
(2.48537e-07 -1.42764e-07 -2.00432e-08)
(3.64176e-07 -9.35877e-08 -3.71891e-09)
(3.98041e-07 -6.16195e-08 7.08145e-09)
(3.68537e-07 -3.92224e-08 1.4867e-08)
(2.89688e-07 -2.32902e-08 2.06382e-08)
(1.74284e-07 -1.25677e-08 2.46189e-08)
(3.53944e-08 -6.60965e-09 2.67781e-08)
(-1.13423e-07 -5.19883e-09 2.71083e-08)
(-2.58722e-07 -8.016e-09 2.56984e-08)
(-3.8814e-07 -1.45205e-08 2.27745e-08)
(-4.91469e-07 -2.39272e-08 1.87003e-08)
(-5.61421e-07 -3.5332e-08 1.39693e-08)
(-5.94062e-07 -4.77275e-08 9.09246e-09)
(-5.89035e-07 -6.00906e-08 4.53556e-09)
(-5.49293e-07 -7.14311e-08 7.69778e-10)
(-4.80641e-07 -8.08374e-08 -1.83032e-09)
(-3.91262e-07 -8.73375e-08 -3.01397e-09)
(-2.91164e-07 -8.96379e-08 -2.67112e-09)
(-1.91519e-07 -8.58996e-08 -9.52317e-10)
(-1.03735e-07 -7.35901e-08 1.5529e-09)
(-3.81765e-08 -4.95923e-08 3.4674e-09)
(-2.71642e-09 -1.50939e-08 2.89284e-09)
(-5.78465e-06 -5.33974e-06 -5.78465e-06)
(-9.21697e-06 -9.92601e-06 -3.35944e-06)
(-5.04764e-06 -5.30417e-06 -1.49206e-06)
(-3.3065e-06 -2.76037e-06 -7.11743e-07)
(-1.73599e-06 -1.69896e-06 -3.40636e-07)
(-8.43014e-07 -1.04939e-06 -1.59867e-07)
(-2.22028e-07 -7.19985e-07 -6.79532e-08)
(1.59548e-07 -5.31539e-07 -2.09421e-08)
(3.92536e-07 -4.18871e-07 6.27763e-09)
(5.10374e-07 -3.45136e-07 2.36323e-08)
(5.37626e-07 -2.93124e-07 3.61276e-08)
(4.9015e-07 -2.54621e-07 4.56986e-08)
(3.82145e-07 -2.26127e-07 5.30086e-08)
(2.28272e-07 -2.06435e-07 5.81131e-08)
(4.463e-08 -1.95236e-07 6.08876e-08)
(-1.51554e-07 -1.92285e-07 6.12652e-08)
(-3.42994e-07 -1.9702e-07 5.93328e-08)
(-5.13712e-07 -2.08384e-07 5.53699e-08)
(-6.50458e-07 -2.24817e-07 4.98388e-08)
(-7.4381e-07 -2.44381e-07 4.3329e-08)
(-7.88782e-07 -2.64975e-07 3.64718e-08)
(-7.84974e-07 -2.84499e-07 2.98719e-08)
(-7.36212e-07 -3.00844e-07 2.40631e-08)
(-6.49985e-07 -3.11886e-07 1.94572e-08)
(-5.36632e-07 -3.15246e-07 1.62977e-08)
(-4.08524e-07 -3.07968e-07 1.46232e-08)
(-2.7909e-07 -2.86075e-07 1.41704e-08)
(-1.6139e-07 -2.44256e-07 1.41556e-08)
(-6.76611e-08 -1.75428e-07 1.29865e-08)
(-7.20375e-09 -7.32462e-08 7.42961e-09)
(-1.06003e-06 -7.6112e-06 -1.06003e-06)
(-2.56999e-06 -5.34853e-06 -9.76046e-07)
(-2.39945e-06 -4.06009e-06 -7.18425e-07)
(-1.79078e-06 -2.65661e-06 -3.91476e-07)
(-9.98708e-07 -1.88807e-06 -1.9974e-07)
(-4.19767e-07 -1.38803e-06 -9.2321e-08)
(3.22494e-08 -1.09743e-06 -3.07318e-08)
(3.42457e-07 -9.13507e-07 5.02696e-09)
(5.40905e-07 -7.91965e-07 2.81574e-08)
(6.3939e-07 -7.05189e-07 4.46328e-08)
(6.50004e-07 -6.39515e-07 5.75236e-08)
(5.83158e-07 -5.88366e-07 6.79475e-08)
(4.5099e-07 -5.49236e-07 7.61423e-08)
(2.68226e-07 -5.21602e-07 8.19444e-08)
(5.23174e-08 -5.05599e-07 8.51001e-08)
(-1.77391e-07 -5.0116e-07 8.54797e-08)
(-4.0121e-07 -5.07557e-07 8.31582e-08)
(-6.00815e-07 -5.23213e-07 7.8445e-08)
(-7.60993e-07 -5.45713e-07 7.18764e-08)
(-8.70985e-07 -5.72064e-07 6.41187e-08)
(-9.25162e-07 -5.98948e-07 5.5892e-08)
(-9.23182e-07 -6.22978e-07 4.78753e-08)
(-8.69501e-07 -6.40758e-07 4.06454e-08)
(-7.72624e-07 -6.48798e-07 3.463e-08)
(-6.44102e-07 -6.43187e-07 3.00594e-08)
(-4.97475e-07 -6.19143e-07 2.69347e-08)
(-3.47214e-07 -5.70331e-07 2.49451e-08)
(-2.07111e-07 -4.88045e-07 2.31973e-08)
(-9.10342e-08 -3.59146e-07 1.99561e-08)
(-1.06002e-08 -1.62048e-07 1.08859e-08)
(-3.67182e-07 -2.32931e-06 -3.6718e-07)
(-1.35325e-06 -3.13839e-06 -4.58423e-07)
(-1.23147e-06 -2.94076e-06 -3.38438e-07)
(-9.18905e-07 -2.39015e-06 -1.98342e-07)
(-4.6308e-07 -1.99358e-06 -1.0114e-07)
(-6.76785e-08 -1.69067e-06 -3.97964e-08)
(2.67046e-07 -1.48509e-06 -3.73593e-10)
(5.14207e-07 -1.33757e-06 2.55859e-08)
(6.75813e-07 -1.2279e-06 4.46319e-08)
(7.50983e-07 -1.14142e-06 5.98318e-08)
(7.43063e-07 -1.07069e-06 7.27138e-08)
(6.57938e-07 -1.01251e-06 8.36665e-08)
(5.05574e-07 -9.66373e-07 9.25178e-08)
(3.00187e-07 -9.33035e-07 9.88738e-08)
(5.98589e-08 -9.13425e-07 1.0233e-07)
(-1.94748e-07 -9.07816e-07 1.02685e-07)
(-4.42335e-07 -9.15427e-07 1e-07)
(-6.62955e-07 -9.34253e-07 9.4609e-08)
(-8.40053e-07 -9.61083e-07 8.71279e-08)
(-9.61997e-07 -9.9189e-07 7.83001e-08)
(-1.02283e-06 -1.02218e-06 6.89367e-08)
(-1.02235e-06 -1.04733e-06 5.97835e-08)
(-9.6551e-07 -1.06266e-06 5.14576e-08)
(-8.61496e-07 -1.06335e-06 4.43992e-08)
(-7.22578e-07 -1.044e-06 3.88349e-08)
(-5.62914e-07 -9.97948e-07 3.47425e-08)
(-3.97517e-07 -9.16282e-07 3.17865e-08)
(-2.40685e-07 -7.86134e-07 2.90013e-08)
(-1.0781e-07 -5.86182e-07 2.45322e-08)
(-1.28863e-08 -2.7371e-07 1.32352e-08)
(-1.71017e-07 -1.66147e-06 -1.71012e-07)
(-5.43828e-07 -2.37781e-06 -2.01081e-07)
(-5.1772e-07 -2.50677e-06 -1.51307e-07)
(-3.49306e-07 -2.35195e-06 -8.96922e-08)
(-6.90738e-08 -2.18728e-06 -4.01157e-08)
(2.10553e-07 -2.03089e-06 -5.00252e-09)
(4.63656e-07 -1.90478e-06 2.06215e-08)
(6.60466e-07 -1.80012e-06 4.00691e-08)
(7.89609e-07 -1.71149e-06 5.63066e-08)
(8.42829e-07 -1.63386e-06 7.06707e-08)
(8.17765e-07 -1.56518e-06 8.36889e-08)
(7.16907e-07 -1.50557e-06 9.5217e-08)
(5.48361e-07 -1.45661e-06 1.04745e-07)
(3.25683e-07 -1.42041e-06 1.11665e-07)
(6.72301e-08 -1.39879e-06 1.1542e-07)
(-2.05506e-07 -1.39242e-06 1.15743e-07)
(-4.70149e-07 -1.40056e-06 1.12676e-07)
(-7.05621e-07 -1.42088e-06 1.06583e-07)
(-8.94445e-07 -1.44954e-06 9.81698e-08)
(-1.02445e-06 -1.48165e-06 8.82747e-08)
(-1.08958e-06 -1.51173e-06 7.78154e-08)
(-1.08985e-06 -1.53408e-06 6.76082e-08)
(-1.03065e-06 -1.54292e-06 5.8314e-08)
(-9.21702e-07 -1.53223e-06 5.03947e-08)
(-7.75691e-07 -1.49517e-06 4.40754e-08)
(-6.07121e-07 -1.42322e-06 3.93183e-08)
(-4.31314e-07 -1.30463e-06 3.57673e-08)
(-2.62952e-07 -1.1216e-06 3.2404e-08)
(-1.18647e-07 -8.42891e-07 2.72716e-08)
(-1.42787e-08 -4.0076e-07 1.46883e-08)
(-6.18155e-08 -1.14699e-06 -6.18083e-08)
(-2.05287e-07 -1.99011e-06 -7.81997e-08)
(-1.59936e-07 -2.34604e-06 -5.7545e-08)
(-2.52693e-08 -2.43885e-06 -2.96231e-08)
(1.82716e-07 -2.44292e-06 -3.86205e-09)
(4.02127e-07 -2.40314e-06 1.69196e-08)
(6.06289e-07 -2.3498e-06 3.44568e-08)
(7.68633e-07 -2.29031e-06 4.98919e-08)
(8.73422e-07 -2.2288e-06 6.44012e-08)
(9.09248e-07 -2.167e-06 7.83659e-08)
(8.70679e-07 -2.10707e-06 9.16922e-08)
(7.58051e-07 -2.05187e-06 1.03866e-07)
(5.78108e-07 -2.00477e-06 1.141e-07)
(3.43822e-07 -1.96907e-06 1.21597e-07)
(7.35946e-08 -1.94735e-06 1.25648e-07)
(-2.10609e-07 -1.94065e-06 1.25936e-07)
(-4.85816e-07 -1.94831e-06 1.22486e-07)
(-7.30235e-07 -1.96787e-06 1.15682e-07)
(-9.25838e-07 -1.99508e-06 1.06326e-07)
(-1.06021e-06 -2.02446e-06 9.53697e-08)
(-1.12733e-06 -2.04987e-06 8.3839e-08)
(-1.12754e-06 -2.06482e-06 7.26283e-08)
(-1.06663e-06 -2.06273e-06 6.24562e-08)
(-9.54684e-07 -2.03657e-06 5.37965e-08)
(-8.04651e-07 -1.97822e-06 4.6876e-08)
(-6.31148e-07 -1.87723e-06 4.16412e-08)
(-4.49597e-07 -1.71882e-06 3.77183e-08)
(-2.74873e-07 -1.47969e-06 3.40534e-08)
(-1.24314e-07 -1.11739e-06 2.86139e-08)
(-1.49635e-08 -5.36892e-07 1.54278e-08)
(-2.05121e-08 -1.01167e-06 -2.05032e-08)
(-4.24277e-08 -1.92656e-06 -2.38373e-08)
(2.99212e-08 -2.40716e-06 -1.29342e-08)
(1.59924e-07 -2.64381e-06 1.31003e-09)
(3.36029e-07 -2.76106e-06 1.58968e-08)
(5.22413e-07 -2.80796e-06 2.9425e-08)
(6.96223e-07 -2.81601e-06 4.26e-08)
(8.34873e-07 -2.7998e-06 5.57921e-08)
(9.2194e-07 -2.76843e-06 6.93667e-08)
(9.45028e-07 -2.72763e-06 8.32336e-08)
(8.97234e-07 -2.6823e-06 9.69447e-08)
(7.77599e-07 -2.63711e-06 1.09733e-07)
(5.91902e-07 -2.59665e-06 1.20606e-07)
(3.52547e-07 -2.56501e-06 1.28618e-07)
(7.7766e-08 -2.54523e-06 1.32927e-07)
(-2.10426e-07 -2.53859e-06 1.33178e-07)
(-4.89001e-07 -2.54453e-06 1.29386e-07)
(-7.3595e-07 -2.56063e-06 1.21944e-07)
(-9.33056e-07 -2.58253e-06 1.11753e-07)
(-1.06794e-06 -2.60458e-06 9.98534e-08)
(-1.1348e-06 -2.62033e-06 8.73798e-08)
(-1.13431e-06 -2.62293e-06 7.53084e-08)
(-1.07259e-06 -2.60528e-06 6.44103e-08)
(-9.59894e-07 -2.5596e-06 5.51655e-08)
(-8.09251e-07 -2.47666e-06 4.77986e-08)
(-6.35151e-07 -2.34413e-06 4.22371e-08)
(-4.52828e-07 -2.14398e-06 3.80995e-08)
(-2.77061e-07 -1.84706e-06 3.4313e-08)
(-1.25324e-07 -1.39909e-06 2.88178e-08)
(-1.50551e-08 -6.76653e-07 1.55667e-08)
(-2.02742e-09 -1.00351e-06 -2.01682e-09)
(3.23958e-08 -2.0035e-06 1.58264e-09)
(1.24149e-07 -2.57793e-06 8.56745e-09)
(2.55466e-07 -2.91359e-06 1.67702e-08)
(4.15699e-07 -3.11401e-06 2.59423e-08)
(5.81949e-07 -3.229e-06 3.57119e-08)
(7.35299e-07 -3.29011e-06 4.64672e-08)
(8.5676e-07 -3.31521e-06 5.83226e-08)
(9.30786e-07 -3.31593e-06 7.12906e-08)
(9.45142e-07 -3.3002e-06 8.50509e-08)
(8.92461e-07 -3.27443e-06 9.8967e-08)
(7.7109e-07 -3.24428e-06 1.12124e-07)
(5.8612e-07 -3.21489e-06 1.23387e-07)
(3.49329e-07 -3.19061e-06 1.31713e-07)
(7.84565e-08 -3.17467e-06 1.36151e-07)
(-2.04995e-07 -3.16837e-06 1.36367e-07)
(-4.78596e-07 -3.17129e-06 1.32368e-07)
(-7.2073e-07 -3.18122e-06 1.24505e-07)
(-9.13474e-07 -3.19401e-06 1.13757e-07)
(-1.04478e-06 -3.20417e-06 1.01231e-07)
(-1.10915e-06 -3.20538e-06 8.81516e-08)
(-1.10758e-06 -3.19084e-06 7.55427e-08)
(-1.04638e-06 -3.1533e-06 6.42022e-08)
(-9.3577e-07 -3.08451e-06 5.46228e-08)
(-7.88529e-07 -2.97426e-06 4.70186e-08)
(-6.1871e-07 -2.80843e-06 4.13087e-08)
(-4.41028e-07 -2.56576e-06 3.71019e-08)
(-2.69769e-07 -2.21104e-06 3.33379e-08)
(-1.21938e-07 -1.67803e-06 2.79993e-08)
(-1.46105e-08 -8.1502e-07 1.51614e-08)
(5.51768e-09 -1.05891e-06 5.52918e-09)
(6.43672e-08 -2.15197e-06 1.23717e-08)
(1.64238e-07 -2.80447e-06 1.77422e-08)
(2.93213e-07 -3.21404e-06 2.32645e-08)
(4.40707e-07 -3.47845e-06 2.97763e-08)
(5.90474e-07 -3.64851e-06 3.75093e-08)
(7.26831e-07 -3.75588e-06 4.67804e-08)
(8.3377e-07 -3.81993e-06 5.76316e-08)
(8.97247e-07 -3.8535e-06 6.99545e-08)
(9.05843e-07 -3.86553e-06 8.33308e-08)
(8.52311e-07 -3.86295e-06 9.70372e-08)
(7.34712e-07 -3.85162e-06 1.10097e-07)
(5.57595e-07 -3.83668e-06 1.21299e-07)
(3.31933e-07 -3.82237e-06 1.29579e-07)
(7.45386e-08 -3.81174e-06 1.33949e-07)
(-1.94243e-07 -3.80601e-06 1.34131e-07)
(-4.53447e-07 -3.80486e-06 1.30123e-07)
(-6.82557e-07 -3.80639e-06 1.22203e-07)
(-8.64463e-07 -3.80687e-06 1.11382e-07)
(-9.87788e-07 -3.80139e-06 9.87644e-08)
(-1.04748e-06 -3.78408e-06 8.56038e-08)
(-1.04476e-06 -3.74858e-06 7.29539e-08)
(-9.85879e-07 -3.68779e-06 6.16169e-08)
(-8.80732e-07 -3.5933e-06 5.20777e-08)
(-7.41456e-07 -3.45409e-06 4.45323e-08)
(-5.81312e-07 -3.25436e-06 3.88933e-08)
(-4.1407e-07 -2.9697e-06 3.47861e-08)
(-2.53066e-07 -2.55904e-06 3.1196e-08)
(-1.14249e-07 -1.9445e-06 2.62059e-08)
(-1.36507e-08 -9.4717e-07 1.42337e-08)
(8.11058e-09 -1.13707e-06 8.11981e-09)
(7.33289e-08 -2.32441e-06 1.59255e-08)
(1.70913e-07 -3.04539e-06 2.03759e-08)
(2.909e-07 -3.51416e-06 2.45082e-08)
(4.23141e-07 -3.83005e-06 2.95216e-08)
(5.55244e-07 -4.04581e-06 3.59131e-08)
(6.74222e-07 -4.19372e-06 4.3977e-08)
(7.66703e-07 -4.2939e-06 5.3753e-08)
(8.20456e-07 -4.35967e-06 6.50828e-08)
(8.25278e-07 -4.40023e-06 7.75348e-08)
(7.74489e-07 -4.4224e-06 9.03745e-08)
(6.66163e-07 -4.43176e-06 1.02638e-07)
(5.04331e-07 -4.43304e-06 1.13139e-07)
(2.98921e-07 -4.43005e-06 1.20876e-07)
(6.52666e-08 -4.42545e-06 1.24892e-07)
(-1.78233e-07 -4.4204e-06 1.25038e-07)
(-4.12914e-07 -4.41464e-06 1.21309e-07)
(-6.20187e-07 -4.40661e-06 1.13844e-07)
(-7.84399e-07 -4.3931e-06 1.03603e-07)
(-8.95212e-07 -4.3699e-06 9.16194e-08)
(-9.48095e-07 -4.33191e-06 7.91258e-08)
(-9.44365e-07 -4.27337e-06 6.71239e-08)
(-8.89945e-07 -4.1877e-06 5.63835e-08)
(-7.94012e-07 -4.06651e-06 4.7367e-08)
(-6.67652e-07 -3.89821e-06 4.02605e-08)
(-5.22858e-07 -3.66555e-06 3.49766e-08)
(-3.72019e-07 -3.34118e-06 3.11614e-08)
(-2.271e-07 -2.87852e-06 2.79011e-08)
(-1.0237e-07 -2.18892e-06 2.34616e-08)
(-1.21872e-08 -1.06838e-06 1.27957e-08)
(8.16418e-09 -1.21769e-06 8.17264e-09)
(6.89151e-08 -2.49243e-06 1.55303e-08)
(1.55539e-07 -3.27242e-06 1.91972e-08)
(2.59475e-07 -3.78924e-06 2.24042e-08)
(3.71708e-07 -4.14684e-06 2.63485e-08)
(4.82628e-07 -4.40043e-06 3.16011e-08)
(5.8178e-07 -4.58313e-06 3.84206e-08)
(6.58346e-07 -4.71558e-06 4.68468e-08)
(7.02124e-07 -4.81119e-06 5.67176e-08)
(7.04483e-07 -4.87892e-06 6.76332e-08)
(6.59652e-07 -4.92514e-06 7.89141e-08)
(5.65888e-07 -4.95485e-06 8.9679e-08)
(4.26628e-07 -4.97218e-06 9.88495e-08)
(2.50425e-07 -4.98036e-06 1.05568e-07)
(5.05258e-08 -4.98172e-06 1.08981e-07)
(-1.57361e-07 -4.9774e-06 1.09088e-07)
(-3.57626e-07 -4.9672e-06 1.05874e-07)
(-5.34395e-07 -4.9497e-06 9.9332e-08)
(-6.74095e-07 -4.92223e-06 9.03239e-08)
(-7.67828e-07 -4.88125e-06 7.97225e-08)
(-8.11773e-07 -4.82252e-06 6.86464e-08)
(-8.07231e-07 -4.74116e-06 5.79991e-08)
(-7.59491e-07 -4.63114e-06 4.848e-08)
(-6.76556e-07 -4.48428e-06 4.0503e-08)
(-5.68041e-07 -4.28864e-06 3.42312e-08)
(-4.44209e-07 -4.02577e-06 2.95927e-08)
(-3.15591e-07 -3.66575e-06 2.6281e-08)
(-1.92337e-07 -3.15722e-06 2.35163e-08)
(-8.65145e-08 -2.40201e-06 1.98161e-08)
(-1.02436e-08 -1.17407e-06 1.08708e-08)
(6.83271e-09 -1.2884e-06 6.83437e-09)
(5.60727e-08 -2.63662e-06 1.28247e-08)
(1.24793e-07 -3.46444e-06 1.56316e-08)
(2.06246e-07 -4.01897e-06 1.80305e-08)
(2.93279e-07 -4.40927e-06 2.10127e-08)
(3.7879e-07 -4.693e-06 2.50809e-08)
(4.54909e-07 -4.90412e-06 3.04486e-08)
(5.13437e-07 -5.06363e-06 3.71429e-08)
(5.46476e-07 -5.18478e-06 4.50187e-08)
(5.4726e-07 -5.27612e-06 5.3737e-08)
(5.11165e-07 -5.34342e-06 6.27312e-08)
(4.3674e-07 -5.39093e-06 7.1284e-08)
(3.26708e-07 -5.42209e-06 7.84963e-08)
(1.87848e-07 -5.43979e-06 8.37186e-08)
(3.07083e-08 -5.44619e-06 8.6296e-08)
(-1.32343e-07 -5.44255e-06 8.63518e-08)
(-2.89276e-07 -5.42874e-06 8.38819e-08)
(-4.27586e-07 -5.40326e-06 7.87409e-08)
(-5.36469e-07 -5.36372e-06 7.15971e-08)
(-6.089e-07 -5.30713e-06 6.31214e-08)
(-6.41923e-07 -5.23005e-06 5.4231e-08)
(-6.3674e-07 -5.1284e-06 4.56645e-08)
(-5.97697e-07 -4.99682e-06 3.80081e-08)
(-5.31261e-07 -4.82747e-06 3.15928e-08)
(-4.45109e-07 -4.60823e-06 2.65636e-08)
(-3.47339e-07 -4.3197e-06 2.28642e-08)
(-2.46221e-07 -3.93e-06 2.02581e-08)
(-1.49677e-07 -3.3838e-06 1.8138e-08)
(-6.70948e-08 -2.57515e-06 1.53525e-08)
(-7.87094e-09 -1.25998e-06 8.51225e-09)
(4.67404e-09 -1.34144e-06 4.67233e-09)
(3.76828e-08 -2.74359e-06 8.69972e-09)
(8.32433e-08 -3.60587e-06 1.05345e-08)
(1.36989e-07 -4.18725e-06 1.21127e-08)
(1.94222e-07 -4.60106e-06 1.41212e-08)
(2.50441e-07 -4.90687e-06 1.69163e-08)
(3.00505e-07 -5.13932e-06 2.06349e-08)
(3.3899e-07 -5.31962e-06 2.53069e-08)
(3.60564e-07 -5.46073e-06 3.08361e-08)
(3.60532e-07 -5.57067e-06 3.69823e-08)
(3.35631e-07 -5.65458e-06 4.33367e-08)
(2.84683e-07 -5.71608e-06 4.93858e-08)
(2.09414e-07 -5.75802e-06 5.44771e-08)
(1.14399e-07 -5.78302e-06 5.81638e-08)
(6.93432e-09 -5.79322e-06 5.99591e-08)
(-1.04352e-07 -5.79016e-06 5.99598e-08)
(-2.11107e-07 -5.77373e-06 5.81667e-08)
(-3.04609e-07 -5.74224e-06 5.44638e-08)
(-3.77416e-07 -5.6934e-06 4.93585e-08)
(-4.24852e-07 -5.62458e-06 4.33172e-08)
(-4.45065e-07 -5.533e-06 3.70153e-08)
(-4.39153e-07 -5.41525e-06 3.09626e-08)
(-4.10326e-07 -5.26661e-06 2.55752e-08)
(-3.63193e-07 -5.07963e-06 2.10891e-08)
(-3.03083e-07 -4.84218e-06 1.75968e-08)
(-2.35574e-07 -4.53422e-06 1.50568e-08)
(-1.66282e-07 -4.1224e-06 1.33173e-08)
(-1.00565e-07 -3.54855e-06 1.19694e-08)
(-4.47603e-08 -2.70102e-06 1.02309e-08)
(-5.14503e-09 -1.32249e-06 5.79406e-09)
(2.02063e-09 -1.37173e-06 2.01024e-09)
(1.5732e-08 -2.80404e-06 3.68845e-09)
(3.44719e-08 -3.68551e-06 4.44355e-09)
(5.67124e-08 -4.28215e-06 5.15697e-09)
(8.06854e-08 -4.70984e-06 6.13459e-09)
(1.04599e-07 -5.02925e-06 7.53815e-09)
(1.26231e-07 -5.27538e-06 9.43982e-09)
(1.4309e-07 -5.46934e-06 1.18533e-08)
(1.52591e-07 -5.62387e-06 1.47259e-08)
(1.52299e-07 -5.74654e-06 1.79465e-08)
(1.40371e-07 -5.84195e-06 2.13072e-08)
(1.15887e-07 -5.9132e-06 2.45519e-08)
(7.94107e-08 -5.96268e-06 2.73296e-08)
(3.29867e-08 -5.99286e-06 2.9382e-08)
(-1.97918e-08 -6.00577e-06 3.03845e-08)
(-7.43019e-08 -6.00313e-06 3.03218e-08)
(-1.25927e-07 -5.98485e-06 2.9211e-08)
(-1.70023e-07 -5.94915e-06 2.70479e-08)
(-2.02942e-07 -5.89389e-06 2.4195e-08)
(-2.22679e-07 -5.81669e-06 2.09073e-08)
(-2.2872e-07 -5.71522e-06 1.75538e-08)
(-2.22052e-07 -5.58664e-06 1.43963e-08)
(-2.0456e-07 -5.42669e-06 1.16358e-08)
(-1.78763e-07 -5.22824e-06 9.37455e-09)
(-1.4737e-07 -4.97919e-06 7.65505e-09)
(-1.13132e-07 -4.65919e-06 6.45463e-09)
(-7.8766e-08 -4.23404e-06 5.69834e-09)
(-4.6844e-08 -3.64396e-06 5.21108e-09)
(-2.03409e-08 -2.77391e-06 4.6284e-09)
(-2.16238e-09 -1.35876e-06 2.81502e-09)
(-8.93726e-10 -1.37621e-06 -9.13142e-10)
(-8.18642e-09 -2.81222e-06 -1.79206e-09)
(-1.83574e-08 -3.69629e-06 -2.17328e-09)
(-2.9794e-08 -4.29598e-06 -2.35114e-09)
(-4.10593e-08 -4.72758e-06 -2.42115e-09)
(-5.11482e-08 -5.05184e-06 -2.43637e-09)
(-5.92526e-08 -5.30362e-06 -2.40865e-09)
(-6.48583e-08 -5.50385e-06 -2.33024e-09)
(-6.77395e-08 -5.66499e-06 -2.17392e-09)
(-6.79597e-08 -5.79435e-06 -1.89943e-09)
(-6.5881e-08 -5.8962e-06 -1.48553e-09)
(-6.21578e-08 -5.97325e-06 -9.36726e-10)
(-5.75777e-08 -6.02757e-06 -3.15651e-10)
(-5.28221e-08 -6.0613e-06 2.70863e-10)
(-4.81834e-08 -6.07617e-06 6.09772e-10)
(-4.31906e-08 -6.07377e-06 4.96083e-10)
(-3.70314e-08 -6.05407e-06 -3.71001e-11)
(-2.92815e-08 -6.01548e-06 -8.1907e-10)
(-2.02911e-08 -5.95618e-06 -1.57359e-09)
(-1.09177e-08 -5.87418e-06 -2.19889e-09)
(-2.0779e-09 -5.76754e-06 -2.62006e-09)
(5.36668e-09 -5.63369e-06 -2.84593e-09)
(1.08945e-08 -5.46865e-06 -2.90743e-09)
(1.42728e-08 -5.26548e-06 -2.85243e-09)
(1.55339e-08 -5.01215e-06 -2.71778e-09)
(1.48939e-08 -4.68825e-06 -2.51729e-09)
(1.26983e-08 -4.25939e-06 -2.2364e-09)
(9.28074e-09 -3.66536e-06 -1.82649e-09)
(5.16122e-09 -2.79027e-06 -1.21392e-09)
(9.49738e-10 -1.36704e-06 -2.97806e-10)
(-3.89183e-09 -1.35348e-06 -3.92172e-09)
(-3.26865e-08 -2.7655e-06 -7.4214e-09)
(-7.23351e-08 -3.63501e-06 -8.95834e-09)
(-1.1798e-07 -4.22529e-06 -1.00283e-08)
(-1.64912e-07 -4.65075e-06 -1.11538e-08)
(-2.09326e-07 -4.97104e-06 -1.26135e-08)
(-2.47428e-07 -5.22035e-06 -1.45014e-08)
(-2.75728e-07 -5.41925e-06 -1.68275e-08)
(-2.91174e-07 -5.57998e-06 -1.95095e-08)
(-2.91468e-07 -5.70973e-06 -2.23859e-08)
(-2.75463e-07 -5.81271e-06 -2.5205e-08)
(-2.43454e-07 -5.89147e-06 -2.76901e-08)
(-1.97412e-07 -5.94785e-06 -2.95787e-08)
(-1.4066e-07 -5.98344e-06 -3.07816e-08)
(-7.74084e-08 -5.99949e-06 -3.1299e-08)
(-1.1591e-08 -5.99722e-06 -3.14572e-08)
(5.3449e-08 -5.97661e-06 -3.12048e-08)
(1.13689e-07 -5.93649e-06 -3.02537e-08)
(1.64779e-07 -5.87571e-06 -2.85316e-08)
(2.03104e-07 -5.79274e-06 -2.6149e-08)
(2.26458e-07 -5.68586e-06 -2.33502e-08)
(2.34251e-07 -5.55269e-06 -2.04349e-08)
(2.27412e-07 -5.38921e-06 -1.76589e-08)
(2.08015e-07 -5.18849e-06 -1.52041e-08)
(1.78872e-07 -4.93858e-06 -1.31635e-08)
(1.43176e-07 -4.61923e-06 -1.15264e-08)
(1.04302e-07 -4.19655e-06 -1.01927e-08)
(6.54773e-08 -3.61115e-06 -8.87828e-09)
(3.06953e-08 -2.7489e-06 -7.06821e-09)
(4.06824e-09 -1.34671e-06 -3.42084e-09)
(-6.80939e-09 -1.30361e-06 -6.84589e-09)
(-5.64877e-08 -2.66413e-06 -1.28909e-08)
(-1.24702e-07 -3.50209e-06 -1.55395e-08)
(-2.03411e-07 -4.07084e-06 -1.74561e-08)
(-2.8476e-07 -4.48035e-06 -1.9578e-08)
(-3.6225e-07 -4.78805e-06 -2.24028e-08)
(-4.29267e-07 -5.02685e-06 -2.61256e-08)
(-4.79517e-07 -5.21667e-06 -3.07716e-08)
(-5.07274e-07 -5.36953e-06 -3.62183e-08)
(-5.07985e-07 -5.49268e-06 -4.21936e-08)
(-4.7895e-07 -5.59046e-06 -4.82531e-08)
(-4.19988e-07 -5.66552e-06 -5.38802e-08)
(-3.34032e-07 -5.7197e-06 -5.84832e-08)
(-2.26742e-07 -5.7543e-06 -6.17089e-08)
(-1.06104e-07 -5.77013e-06 -6.32603e-08)
(1.94295e-08 -5.76791e-06 -6.34319e-08)
(1.42033e-07 -5.74762e-06 -6.21794e-08)
(2.53118e-07 -5.70868e-06 -5.9231e-08)
(3.44507e-07 -5.65046e-06 -5.48215e-08)
(4.10175e-07 -5.57169e-06 -4.9315e-08)
(4.46889e-07 -5.47069e-06 -4.3281e-08)
(4.54489e-07 -5.34491e-06 -3.72752e-08)
(4.35392e-07 -5.19016e-06 -3.17413e-08)
(3.93896e-07 -4.99933e-06 -2.6976e-08)
(3.35468e-07 -4.76057e-06 -2.31113e-08)
(2.66111e-07 -4.4542e-06 -2.01149e-08)
(1.92057e-07 -4.04741e-06 -1.77877e-08)
(1.19312e-07 -3.48297e-06 -1.56137e-08)
(5.5155e-08 -2.65101e-06 -1.26708e-08)
(7.05394e-09 -1.29835e-06 -6.415e-09)
(-9.49952e-09 -1.22808e-06 -9.54782e-09)
(-7.84239e-08 -2.51113e-06 -1.79434e-08)
(-1.72921e-07 -3.30162e-06 -2.16115e-08)
(-2.82008e-07 -3.8375e-06 -2.42931e-08)
(-3.94909e-07 -4.222e-06 -2.73036e-08)
(-5.02707e-07 -4.50913e-06 -3.13542e-08)
(-5.96216e-07 -4.72999e-06 -3.67148e-08)
(-6.66617e-07 -4.90353e-06 -4.34552e-08)
(-7.05795e-07 -5.04141e-06 -5.14372e-08)
(-7.07126e-07 -5.15092e-06 -6.03025e-08)
(-6.66486e-07 -5.23675e-06 -6.94738e-08)
(-5.83158e-07 -5.302e-06 -7.82004e-08)
(-4.60727e-07 -5.3488e-06 -8.55879e-08)
(-3.06838e-07 -5.37858e-06 -9.09692e-08)
(-1.32795e-07 -5.39215e-06 -9.36942e-08)
(4.85538e-08 -5.38992e-06 -9.38643e-08)
(2.24644e-07 -5.37192e-06 -9.14472e-08)
(3.82463e-07 -5.33795e-06 -8.63447e-08)
(5.10491e-07 -5.28738e-06 -7.91554e-08)
(6.00705e-07 -5.2188e-06 -7.05524e-08)
(6.49145e-07 -5.13026e-06 -6.14229e-08)
(6.56167e-07 -5.0187e-06 -5.25335e-08)
(6.25586e-07 -4.87956e-06 -4.44816e-08)
(5.63744e-07 -4.70558e-06 -3.76297e-08)
(4.7849e-07 -4.48519e-06 -3.21345e-08)
(3.78363e-07 -4.19961e-06 -2.79257e-08)
(2.72194e-07 -3.81775e-06 -2.47121e-08)
(1.68477e-07 -3.28572e-06 -2.17733e-08)
(7.74998e-08 -2.50033e-06 -1.77975e-08)
(9.78288e-09 -1.22378e-06 -9.15664e-09)
(-1.18498e-08 -1.12954e-06 -1.19041e-08)
(-9.75043e-08 -2.3119e-06 -2.2343e-08)
(-2.14779e-07 -3.04078e-06 -2.68838e-08)
(-3.50146e-07 -3.53388e-06 -3.02046e-08)
(-4.90295e-07 -3.88565e-06 -3.39337e-08)
(-6.24199e-07 -4.14554e-06 -3.89537e-08)
(-7.40464e-07 -4.34228e-06 -4.56088e-08)
(-8.28096e-07 -4.49355e-06 -5.40021e-08)
(-8.76955e-07 -4.61049e-06 -6.39797e-08)
(-8.7872e-07 -4.70053e-06 -7.51295e-08)
(-8.28048e-07 -4.76871e-06 -8.67534e-08)
(-7.2375e-07 -4.81873e-06 -9.79331e-08)
(-5.6991e-07 -4.85339e-06 -1.07548e-07)
(-3.75839e-07 -4.87475e-06 -1.14664e-07)
(-1.55619e-07 -4.88408e-06 -1.18363e-07)
(7.40441e-08 -4.88186e-06 -1.1852e-07)
(2.96303e-07 -4.86821e-06 -1.15112e-07)
(4.94311e-07 -4.84281e-06 -1.08253e-07)
(6.53728e-07 -4.80456e-06 -9.8831e-08)
(7.64874e-07 -4.75153e-06 -8.77715e-08)
(8.23286e-07 -4.68104e-06 -7.61985e-08)
(8.29777e-07 -4.5894e-06 -6.50368e-08)
(7.89357e-07 -4.4716e-06 -5.50038e-08)
(7.10057e-07 -4.32029e-06 -4.65166e-08)
(6.01748e-07 -4.12431e-06 -3.97402e-08)
(4.75148e-07 -3.86605e-06 -3.45709e-08)
(3.41325e-07 -3.51683e-06 -3.06495e-08)
(2.10915e-07 -3.0272e-06 -2.70787e-08)
(9.68054e-08 -2.30273e-06 -2.22293e-08)
(1.21448e-08 -1.12589e-06 -1.15361e-08)
(-1.3754e-08 -1.01166e-06 -1.38167e-08)
(-1.12923e-07 -2.0739e-06 -2.59184e-08)
(-2.48541e-07 -2.72948e-06 -3.11553e-08)
(-4.05031e-07 -3.17177e-06 -3.49518e-08)
(-5.67025e-07 -3.48477e-06 -3.91875e-08)
(-7.21769e-07 -3.71255e-06 -4.48811e-08)
(-8.5608e-07 -3.88093e-06 -5.24327e-08)
(-9.57234e-07 -4.00605e-06 -6.19554e-08)
(-1.01351e-06 -4.0985e-06 -7.32751e-08)
(-1.01527e-06 -4.1656e-06 -8.59465e-08)
(-9.56289e-07 -4.21281e-06 -9.91966e-08)
(-8.35095e-07 -4.24454e-06 -1.12008e-07)
(-6.56193e-07 -4.26444e-06 -1.23108e-07)
(-4.30195e-07 -4.27537e-06 -1.31382e-07)
(-1.73329e-07 -4.27935e-06 -1.35746e-07)
(9.46934e-08 -4.27723e-06 -1.35883e-07)
(3.53538e-07 -4.26912e-06 -1.31779e-07)
(5.8336e-07 -4.25437e-06 -1.23736e-07)
(7.67681e-07 -4.23113e-06 -1.12808e-07)
(8.9555e-07 -4.19668e-06 -1.00111e-07)
(9.62076e-07 -4.14745e-06 -8.69185e-08)
(9.68355e-07 -4.07906e-06 -7.42479e-08)
(9.2028e-07 -3.98605e-06 -6.28842e-08)
(8.27201e-07 -3.86112e-06 -5.329e-08)
(7.00557e-07 -3.69366e-06 -4.5633e-08)
(5.52809e-07 -3.46755e-06 -3.98009e-08)
(3.96831e-07 -3.15692e-06 -3.53866e-08)
(2.45005e-07 -2.71775e-06 -3.135e-08)
(1.1233e-07 -2.06602e-06 -2.58112e-08)
(1.4046e-08 -1.00852e-06 -1.34601e-08)
(-1.51472e-08 -8.78882e-07 -1.52136e-08)
(-1.24104e-07 -1.80612e-06 -2.85334e-08)
(-2.72949e-07 -2.37959e-06 -3.42607e-08)
(-4.44663e-07 -2.76524e-06 -3.83609e-08)
(-6.22403e-07 -3.03536e-06 -4.28858e-08)
(-7.92134e-07 -3.2281e-06 -4.89397e-08)
(-9.393e-07 -3.36604e-06 -5.69466e-08)
(-1.0499e-06 -3.46362e-06 -6.70245e-08)
(-1.11108e-06 -3.53062e-06 -7.89789e-08)
(-1.11232e-06 -3.57415e-06 -9.23375e-08)
(-1.04692e-06 -3.60002e-06 -1.06297e-07)
(-9.13323e-07 -3.6132e-06 -1.19789e-07)
(-7.16425e-07 -3.61812e-06 -1.31503e-07)
(-4.67809e-07 -3.61851e-06 -1.40247e-07)
(-1.85167e-07 -3.61707e-06 -1.44894e-07)
(1.09765e-07 -3.61511e-06 -1.45009e-07)
(3.94291e-07 -3.61274e-06 -1.40581e-07)
(6.46563e-07 -3.60884e-06 -1.32034e-07)
(8.48631e-07 -3.60086e-06 -1.20474e-07)
(9.88617e-07 -3.58526e-06 -1.07089e-07)
(1.06125e-06 -3.55763e-06 -9.31858e-08)
(1.06774e-06 -3.51304e-06 -7.98411e-08)
(1.01447e-06 -3.44571e-06 -6.78586e-08)
(9.11646e-07 -3.34844e-06 -5.77253e-08)
(7.71857e-07 -3.21146e-06 -4.96315e-08)
(6.08842e-07 -3.02033e-06 -4.34578e-08)
(4.36854e-07 -2.75241e-06 -3.87665e-08)
(2.69584e-07 -2.36954e-06 -3.44384e-08)
(1.23535e-07 -1.79941e-06 -2.84222e-08)
(1.54225e-08 -8.76216e-07 -1.48665e-08)
(-1.5974e-08 -7.36162e-07 -1.60426e-08)
(-1.3061e-07 -1.51859e-06 -3.00875e-08)
(-2.87142e-07 -2.00425e-06 -3.60916e-08)
(-4.67833e-07 -2.32971e-06 -4.03214e-08)
(-6.54976e-07 -2.55486e-06 -4.49254e-08)
(-8.33698e-07 -2.71157e-06 -5.10544e-08)
(-9.88525e-07 -2.81906e-06 -5.91323e-08)
(-1.10458e-06 -2.8899e-06 -6.92647e-08)
(-1.16831e-06 -2.93294e-06 -8.12502e-08)
(-1.16878e-06 -2.95499e-06 -9.45958e-08)
(-1.09909e-06 -2.96185e-06 -1.08493e-07)
(-9.57805e-07 -2.95886e-06 -1.21886e-07)
(-7.50194e-07 -2.95096e-06 -1.33508e-07)
(-4.88447e-07 -2.9424e-06 -1.42165e-07)
(-1.91046e-07 -2.93643e-06 -1.46778e-07)
(1.19234e-07 -2.93469e-06 -1.46874e-07)
(4.18398e-07 -2.93726e-06 -1.42447e-07)
(6.8357e-07 -2.94271e-06 -1.33954e-07)
(8.96051e-07 -2.94793e-06 -1.22465e-07)
(1.04337e-06 -2.94881e-06 -1.09169e-07)
(1.11992e-06 -2.94045e-06 -9.53273e-08)
(1.12682e-06 -2.91755e-06 -8.20012e-08)
(1.07063e-06 -2.87429e-06 -7.00033e-08)
(9.62008e-07 -2.80381e-06 -5.98281e-08)
(8.14246e-07 -2.69726e-06 -5.16785e-08)
(6.41947e-07 -2.54204e-06 -4.54446e-08)
(4.60307e-07 -2.31888e-06 -4.06853e-08)
(2.83878e-07 -1.99584e-06 -3.62448e-08)
(1.30029e-07 -1.51304e-06 -2.99711e-08)
(1.62263e-08 -7.33983e-07 -1.57073e-08)
(-1.61797e-08 -5.88884e-07 -1.62477e-08)
(-1.32085e-07 -1.22214e-06 -3.04726e-08)
(-2.90502e-07 -1.61754e-06 -3.6507e-08)
(-4.73789e-07 -1.88148e-06 -4.06825e-08)
(-6.64053e-07 -2.06126e-06 -4.517e-08)
(-8.45998e-07 -2.18254e-06 -5.11218e-08)
(-1.00363e-06 -2.26119e-06 -5.8957e-08)
(-1.12158e-06 -2.30784e-06 -6.87645e-08)
(-1.18598e-06 -2.33027e-06 -8.03244e-08)
(-1.18578e-06 -2.33472e-06 -9.31356e-08)
(-1.11418e-06 -2.32676e-06 -1.06418e-07)
(-9.69994e-07 -2.31168e-06 -1.19163e-07)
(-7.58774e-07 -2.29451e-06 -1.30184e-07)
(-4.92964e-07 -2.27971e-06 -1.38366e-07)
(-1.91239e-07 -2.27066e-06 -1.42732e-07)
(1.23434e-07 -2.26918e-06 -1.42811e-07)
(4.26794e-07 -2.27534e-06 -1.386e-07)
(6.95787e-07 -2.28752e-06 -1.30556e-07)
(9.11542e-07 -2.30241e-06 -1.19649e-07)
(1.06136e-06 -2.31572e-06 -1.06991e-07)
(1.13939e-06 -2.32244e-06 -9.37632e-08)
(1.14653e-06 -2.3173e-06 -8.09773e-08)
(1.08925e-06 -2.29473e-06 -6.94135e-08)
(9.78349e-07 -2.24846e-06 -5.95745e-08)
(8.27427e-07 -2.17068e-06 -5.16803e-08)
(6.51584e-07 -2.05071e-06 -4.56393e-08)
(4.66551e-07 -1.87265e-06 -4.10124e-08)
(2.8732e-07 -1.61078e-06 -3.66415e-08)
(1.31476e-07 -1.21777e-06 -3.03567e-08)
(1.64034e-08 -5.87223e-07 -1.59313e-08)
(-1.56789e-08 -4.42905e-07 -1.57429e-08)
(-1.28056e-07 -9.28295e-07 -2.95152e-08)
(-2.82342e-07 -1.2342e-06 -3.52811e-08)
(-4.61864e-07 -1.43733e-06 -3.9178e-08)
(-6.4921e-07 -1.5729e-06 -4.33369e-08)
(-8.29011e-07 -1.66064e-06 -4.88821e-08)
(-9.8508e-07 -1.71319e-06 -5.62228e-08)
(-1.10188e-06 -1.73926e-06 -6.54236e-08)
(-1.16557e-06 -1.74543e-06 -7.62521e-08)
(-1.16523e-06 -1.73713e-06 -8.82113e-08)
(-1.09436e-06 -1.71937e-06 -1.00557e-07)
(-9.52054e-07 -1.697e-06 -1.12349e-07)
(-7.44015e-07 -1.67473e-06 -1.22511e-07)
(-4.82608e-07 -1.65676e-06 -1.30026e-07)