/*--------------------------------*- C++ -*----------------------------------*\
| =========                 |                                                 |
| \\      /  F ield         | OpenFOAM: The Open Source CFD Toolbox           |
|  \\    /   O peration     | Version:  v1912                                 |
|   \\  /    A nd           | Website:  www.openfoam.com                      |
|    \\/     M anipulation  |                                                 |
\*---------------------------------------------------------------------------*/
FoamFile
{
    version     2.0;
    format      ascii;
    class       volScalarField;
    location    "82/oil";
    object      heatTransferCoeff(T);
}
// * * * * * * * * * * * * * * * * * * * * * * * * * * * * * * * * * * * * * //

dimensions      [1 0 -3 -1 0 0 0];


internalField   uniform 0;

boundaryField
{
    maxY
    {
        type            calculated;
        value           uniform 0;
    }
    minX
    {
        type            calculated;
        value           uniform 0;
    }
    maxX
    {
        type            calculated;
        value           uniform 0;
    }
    minY
    {
        type            calculated;
        value           uniform 0;
    }
    minZ
    {
        type            calculated;
        value           uniform 0;
    }
    maxZ
    {
        type            calculated;
        value           uniform 0;
    }
    oil_to_sphere
    {
        type            calculated;
        value           nonuniform List<scalar> 
1536
(
-292.636
-305.864
-286.67
-282.806
-246.122
-252.527
-249.082
-194.241
-186.963
-318.971
-244.411
-322.028
-326.302
-321.326
-280.852
-243.728
-196.502
-188.342
-63.9575
-325.861
-318.49
-254.722
-250.874
-245.335
-257.874
-257.687
-257.594
-246.164
-307.194
-303.883
-285.878
-232.063
-214.139
-258.818
-244.404
-243.004
-233.732
-268.201
-254.635
-267.765
-254.627
-243.04
-301.223
-322.42
-305.588
-320.03
-252.189
-252.301
-277.374
-256.786
-254.071
-253.965
-249.328
-252.358
-221.721
-210.309
-251.8
-250.94
-189.23
-137.429
-148.94
-135.618
-146.403
-325.561
-327.281
-321.267
-307.124
-320.418
-293.329
-304.53
-259.36
-252.9
-285.77
-255.434
-244.551
-213.302
-207.565
-202.714
-244.062
-188.621
-135.339
-146.691
-122.081
-120.777
-154.658
-148.528
-124.225
-195.364
-187.684
-136.87
-147.5
-63.7708
-63.9865
-326.946
-327.593
-322.498
-310.284
-315.347
-320.959
-291.722
-308.057
-258.512
-291.043
-285.843
-254.526
-255.403
-246.033
-203.676
-242.023
-214.526
-207.041
-213.343
-137.103
-149.365
-123.212
-125.028
-122.737
-153.734
-148.543
-156.032
-188.489
-147.784
-64.1711
-321.108
-292.085
-304.823
-293.631
-303.31
-253.869
-254.858
-256.298
-253.63
-253.775
-252.233
-255.648
-257.155
-251.868
-210.669
-249.092
-248.188
-137.587
-148.567
-195.814
-188.997
-146.646
-186.537
-277.322
-276.769
-248.927
-259.076
-284.648
-276.902
-251.707
-255.366
-254.388
-234.209
-221.312
-224.925
-277.792
-273.418
-278.32
-301.445
-265.515
-256.439
-243.477
-234.26
-253.029
-238.606
-222.207
-225.797
-300.387
-270.115
-305.886
-265.892
-230.939
-207.647
-277.728
-281.718
-294.149
-274.449
-265.342
-255.957
-234.367
-255.196
-231.502
-224.327
-227.802
-312.58
-274.25
-285.144
-298.987
-279.021
-295.054
-284.309
-229.651
-235.797
-235.842
-237.574
-228.42
-233.387
-237.654
-244.849
-188.031
-183.486
-179.428
-191.412
-196.919
-194.963
-202.719
-202.709
-184.707
-175.958
-170.732
-312.784
-332.227
-326.649
-315.508
-314.158
-316.365
-314.875
-311.325
-322.237
-306.016
-312.803
-314.016
-278.755
-279.396
-305.784
-290.927
-262.475
-235.895
-233.568
-252.416
-231.386
-185.203
-189.698
-181.073
-192.318
-196.061
-181.83
-175.059
-113.991
-104.24
-322.579
-315.502
-319.901
-313.58
-320.667
-333.815
-321.895
-313.045
-275.029
-257.423
-274.539
-277.56
-232.035
-244.851
-186.15
-176.989
-198.403
-209.209
-202.464
-172.18
-103.385
-112.499
-84.4943
-84.6292
-113.136
-317.593
-311.766
-310.137
-305.909
-312.671
-315.799
-309.809
-319.155
-336.89
-325.049
-312.3
-295.383
-277.74
-279.431
-288.812
-308.129
-291.991
-278.487
-277.917
-234.661
-236.275
-243.896
-245.895
-237.673
-244.15
-180.76
-176.423
-183.483
-193.452
-189.719
-196.186
-197.168
-196.402
-180.085
-173.897
-191.886
-183.976
-259.127
-249.205
-252.284
-233.972
-229.679
-224.618
-219.287
-301.048
-290.803
-305.562
-298.034
-289.98
-301.382
-303.026
-308.453
-317.459
-303.42
-305.442
-301.416
-330.645
-317.744
-313.129
-305.663
-317.244
-324.158
-313.656
-295.616
-298.07
-305.5
-289.312
-303.918
-308.532
-316.029
-315.181
-321.664
-318.637
-315.766
-308.955
-308.691
-306.715
-310.616
-301.099
-302.427
-291.432
-300.227
-287.555
-291.646
-307.733
-276.53
-300.95
-279.993
-283.102
-273.814
-262.02
-299.105
-277.681
-277.985
-287.882
-262.828
-270.256
-278.431
-259.602
-267.162
-254.101
-280.993
-300.106
-278.797
-281.22
-283.891
-265.252
-271.66
-269.828
-235.031
-240.157
-233.834
-222.429
-216.623
-223.293
-211.556
-205.963
-236.312
-240.214
-235.459
-224.682
-218.435
-228.023
-210.704
-206.116
-201.216
-235.082
-205.72
-223.751
-219.005
-224.987
-210.161
-235.876
-242.027
-235.554
-241.455
-208.131
-202.028
-224.5
-219.159
-226.641
-208.824
-204.395
-193.24
-188.773
-192.665
-188.42
-180.202
-180.496
-174.463
-186.824
-177.194
-198.587
-172.715
-175.7
-170.018
-163.363
-172.443
-169.042
-158.714
-154.762
-144.352
-190.512
-185.247
-180.235
-191.799
-176.082
-180.616
-158.799
-153.534
-151.263
-144.471
-170.357
-164.501
-172.972
-169.291
-167.543
-192.925
-188.356
-195.382
-195.405
-180.771
-173.973
-189.205
-183
-357.933
-344.577
-332.516
-354.495
-331.696
-335.29
-344.19
-323.47
-327.092
-332.308
-330.876
-312.215
-323.563
-308.985
-307.289
-305.557
-303.991
-310.71
-308.761
-316.758
-323.012
-297.771
-317.235
-301.641
-310.073
-302.289
-318.888
-306.035
-318.416
-311.939
-320.375
-313.074
-298.868
-307.322
-291.721
-312.219
-274.353
-285.801
-279.556
-254.88
-266.364
-266.546
-281.28
-254.267
-276.637
-253.746
-266.286
-255.841
-246.432
-252.661
-235.307
-232.11
-219.59
-225.33
-222.151
-217.344
-208.103
-232.929
-206.267
-243.426
-233.516
-221.421
-176.35
-169.505
-164.505
-174.163
-170.133
-185.323
-176.274
-198.5
-171.612
-158.012
-156.271
-145.677
-130.371
-119.798
-131.443
-120.229
-139.993
-149.163
-139.579
-128.498
-130.861
-183.633
-189.168
-179.53
-191.184
-173.524
-165.307
-174.154
-168.166
-183.78
-175.176
-193.628
-201.153
-171.673
-158.183
-167.94
-154.704
-144.493
-163.728
-112.728
-103.966
-115.522
-104.531
-85.516
-85.0277
-85.1532
-84.7529
-101.902
-349.641
-328.375
-335.773
-332.846
-328.896
-350.43
-336.985
-331.962
-326.416
-314.064
-330.633
-333.459
-340.545
-315.562
-317.604
-323.414
-324.028
-297.853
-312.971
-298.01
-318.884
-309.081
-308.199
-304.678
-312.274
-303.734
-311.398
-320.022
-306.235
-296.343
-292.371
-311.528
-318.484
-298.076
-315.999
-300.221
-290.499
-320.829
-308.425
-307.143
-311.009
-302.601
-301.581
-309.206
-318.633
-303.465
-292.432
-279.628
-279.237
-267.364
-256.526
-267.92
-298.812
-282.334
-281.468
-271.482
-269.483
-261.638
-266.232
-266.487
-255.159
-254.247
-234.466
-251.511
-229.9
-241.878
-224.964
-219.868
-255.878
-244.925
-209.919
-233.287
-205.612
-229.798
-216.351
-206.98
-222.48
-227.676
-228.742
-222.245
-222.002
-253.888
-233.029
-158.2
-157.259
-154.898
-146.559
-189.977
-183.897
-180.301
-192.056
-176.805
-181.402
-165.912
-176.127
-173.914
-169.299
-166.684
-141.373
-140.994
-150.063
-129.82
-130.633
-119.608
-131.348
-131.561
-119.454
-148.217
-138.794
-139.552
-149.624
-128.852
-184.132
-175.634
-196.156
-201.46
-171.926
-158.635
-168.306
-153.605
-153.985
-164.309
-181.68
-174.394
-188.403
-184.855
-179.897
-191.663
-195.35
-164.651
-170.402
-173.675
-168.545
-167.125
-85.4199
-85.3259
-114.529
-113.418
-104.38
-101.855
-124.267
-113.485
-102.656
-290.331
-304.875
-304.296
-288.408
-302.672
-290.34
-289.315
-318.85
-312.448
-323.717
-312.977
-298.651
-308.184
-303.192
-315.998
-306.242
-310.754
-298.344
-299.38
-318.468
-308.761
-304.201
-306.467
-302.329
-302.091
-307.645
-292.605
-291.287
-299.742
-306.465
-298.836
-310.137
-302.816
-324.349
-301.245
-293.555
-297.875
-300.555
-291.71
-288.942
-308.34
-278.373
-267.114
-267.405
-274.369
-256.372
-297.305
-277.341
-276.581
-285.028
-271.409
-271.659
-265.374
-291.232
-275.435
-278.792
-285.312
-263.103
-265.377
-275.826
-273.755
-256.515
-283.612
-298.464
-281.816
-284.531
-272.587
-271.965
-266.987
-266.459
-255.488
-223.894
-218.807
-225.931
-211.045
-208.468
-203.301
-238.475
-231.383
-239.939
-236.509
-218.786
-224.75
-224.262
-207.71
-203.757
-204.981
-236.097
-235.644
-241.809
-234.72
-242.53
-206.213
-209.84
-223.423
-217.496
-224.097
-206.558
-203.659
-243.751
-234.152
-234.188
-238.702
-244.208
-208.391
-204.01
-218.882
-224.957
-225.42
-188.674
-193.929
-180.646
-179.504
-173.566
-193.216
-188.752
-194.054
-170.678
-164.431
-173.308
-168.169
-160.637
-171.175
-155.876
-145.176
-165.572
-184.84
-188.204
-179.214
-192.906
-203.724
-216.328
-190.069
-179.753
-173.628
-177.585
-187.29
-158.539
-167.414
-154.364
-152.939
-162.988
-171.575
-165.238
-172.073
-171.015
-167.356
-194.938
-205.518
-185.345
-176.117
-171.213
-191.547
-196.148
-184.487
-189.555
-180.66
-286.46
-280.126
-207.46
-198.354
-320.506
-311.576
-317.901
-319.626
-317.506
-276.364
-296.246
-286.552
-292.412
-242.521
-254.471
-199.516
-120.642
-117.223
-286.849
-285.326
-194.843
-121.001
-115.243
-137.277
-319.725
-278.462
-251.269
-135.628
-292.561
-284.391
-291.171
-242.191
-255.297
-255.214
-194.03
-288.037
-292.527
-255.637
-255.471
-289.829
-253.237
-255.247
-237.701
-243.974
-202.65
-213.248
-219.965
-280.377
-289.544
-252.064
-266.208
-240.95
-249.132
-202.765
-212.957
-214.817
-278.476
-294.62
-253.743
-271.659
-217.944
-204.135
-216.657
-235.401
-265.863
-263.854
-291.675
-295.038
-254.721
-252.73
-250.978
-255.935
-213.798
-205.233
-214.667
-196.45
-332.546
-325.617
-290.453
-315.24
-289.366
-321.751
-318.483
-253.768
-281.146
-279.891
-285.457
-279.485
-252.638
-218.206
-213.68
-214.082
-215.268
-213.799
-211.637
-160.697
-198.363
-156.415
-161.792
-327.02
-319.97
-332.706
-321.798
-329.863
-324.49
-327.431
-325.266
-330.94
-323.387
-291.185
-316.575
-291.675
-304.091
-291.543
-253.284
-268.73
-277.677
-299.795
-256.737
-288.948
-253.141
-205.848
-215.235
-219.355
-207.842
-215.262
-212.214
-196.985
-161.402
-152.204
-150.177
-157.221
-197.904
-159.998
-117.831
-121.884
-115.071
-332.433
-328.857
-324.394
-339.303
-324.463
-330.108
-324.348
-335.792
-328.365
-291.772
-315.428
-287.447
-319.741
-317.145
-310.609
-317.251
-308.347
-288.609
-297.197
-252.411
-276.358
-296.359
-279.658
-294.283
-254.94
-203.857
-215.903
-241.52
-251.616
-210.552
-222.033
-206.034
-213.805
-249.96
-199.2
-160.9
-146.977
-152.572
-148.253
-197.402
-159.93
-117.822
-115.267
-116.416
-326.227
-302.091
-292.645
-320.777
-288.508
-254.427
-286.034
-281.573
-281.864
-280.636
-212.673
-222.756
-212.607
-212.262
-212.267
-160.329
-203.815
-162.466
-200.314
-290.689
-276.858
-264.827
-273.887
-294.052
-279.477
-226.268
-237.11
-229.49
-282.033
-294.704
-282.206
-268.878
-298.187
-259.428
-273.71
-273.012
-263.286
-281.871
-270.863
-295.645
-264.134
-270.388
-271.547
-267.13
-242.317
-241.932
-228.391
-225.375
-217.551
-208.162
-225.342
-216.079
-223.894
-292.006
-274.793
-267.47
-276.613
-293.28
-260.609
-264.516
-265.663
-246.988
-273.985
-234.578
-247.833
-244.133
-228.71
-227.632
-218.865
-207.931
-222.577
-214.872
-224.196
-277.471
-292.514
-260.696
-262.794
-267.937
-245.609
-272.643
-240.94
-226.702
-214.008
-229.954
-225.62
-235.234
-309.25
-309.94
-307.84
-311.59
-265.119
-294.752
-282.333
-236.326
-237.113
-245.373
-244.291
-241.53
-194.767
-204.826
-202.661
-182.88
-178.985
-206.508
-196.504
-196.404
-311.975
-314.122
-320.687
-307.965
-269.383
-281.841
-261.583
-301.117
-279.606
-240.551
-239.781
-228.634
-196.351
-210.832
-202.654
-183.981
-141.041
-143.667
-129.728
-130.74
-119.456
-114.068
-311.668
-310.135
-310.222
-306.245
-317.26
-275.427
-288.404
-283.774
-233.228
-179.649
-203.561
-130.682
-119.37
-115.157
-100.824
-144.782
-312.762
-311.205
-319.767
-312.576
-317.177
-315.779
-312.096
-310.14
-316.547
-260.465
-269.452
-313.028
-279.463
-242.745
-243.093
-196.653
-205.548
-195.856
-190.483
-201.54
-182.503
-145.25
-241.192
-202.024
-298.174
-293.161
-273.944
-276.409
-241.221
-234.62
-237.666
-221.835
-213.429
-227.708
-218.837
-219.639
-211.854
-331.798
-327.059
-284.24
-285.243
-302.81
-310.239
-306.378
-306.535
-287.21
-301.482
-294.875
-305.322
-290.125
-299.023
-314.017
-307.328
-309.129
-307.548
-286.868
-293.848
-298.04
-303.838
-312.472
-317.959
-315.221
-317.298
-301.523
-287.813
-296.671
-317.899
-312.158
-317.375
-314.018
-289.173
-310.494
-314.631
-305.753
-295.178
-299.838
-293.789
-273.717
-269.149
-302.037
-275.24
-266.275
-267.08
-252.342
-254.646
-253.558
-267.643
-296.082
-281.363
-256.761
-255.697
-266.925
-256.995
-268.46
-292.238
-271.96
-254.766
-244.564
-244.079
-226.059
-229.988
-205.797
-243.986
-225.735
-231.689
-208.183
-237.914
-244.482
-228.512
-206.934
-243.105
-219.639
-226.476
-195.552
-195.331
-179.558
-180.768
-166.983
-168.112
-181.352
-168.818
-165.233
-153.424
-150.514
-149.648
-155.914
-195.279
-182.905
-168.101
-163.3
-154.455
-155.024
-149.018
-190.145
-196.028
-167.78
-335.015
-320.241
-329.576
-315.356
-319.079
-334.4
-310.492
-350.011
-321.206
-324.108
-323.175
-335.961
-323.78
-333.813
-349.245
-337
-321.71
-330.725
-299.967
-312.207
-324.802
-316.867
-291.376
-307.172
-298.146
-312.604
-306.89
-311.332
-307.543
-318.459
-299.303
-286.241
-292.15
-304.532
-317.104
-309.689
-308.375
-301.91
-263.219
-268.814
-253.638
-277.966
-291.966
-263.984
-270.064
-274.008
-277.324
-277.692
-289.316
-265.078
-237.295
-225.131
-219.959
-233.3
-241.708
-215.631
-219.907
-227.777
-235.936
-225.382
-216.802
-207.965
-155.324
-152.964
-150.736
-179.274
-168.081
-163.66
-154.21
-194.49
-199.022
-154.345
-151.591
-179.198
-154.647
-115.141
-115.564
-103.285
-124.325
-101.305
-115.074
-126.207
-337.777
-321.864
-344.028
-328.942
-328.064
-316.485
-319.783
-310.581
-332.814
-342.949
-334.161
-322.093
-317.231
-315.566
-324.307
-323.717
-324.046
-300.09
-319.361
-297.582
-316.766
-317.859
-311.492
-283.785
-317.947
-303.62
-310.677
-307.849
-301.108
-308.272
-308.154
-293.319
-298.886
-294.345
-271.703
-291.132
-275.695
-265.348
-260.654
-245.956
-267.005
-295.853
-272.603
-273.751
-237.305
-217.651
-223.281
-233.648
-237.749
-220.451
-228.216
-231.017
-224.35
-216.484
-239.646
-241.2
-168.335
-163.998
-154.68
-197.39
-184.108
-154.725
-152.281
-179.9
-155.246
-194.401
-153.66
-102.626
-114.722
-126.409
-334.308
-311.401
-290.161
-306.402
-291.03
-289.23
-300.36
-317.55
-311.229
-309.157
-292.11
-297.682
-305.279
-301.857
-313.043
-309.248
-310.797
-307.634
-301.625
-288.64
-307.518
-298.376
-294.911
-277.714
-256.073
-270.866
-303.504
-274.354
-265.272
-253.454
-253.234
-267.287
-296.211
-254.31
-267.372
-295.44
-256.249
-223.856
-210.8
-238.416
-243.977
-237.895
-224.784
-232.986
-241.467
-219.692
-242.704
-220.171
-166.541
-195.66
-153.837
-151.199
-156.848
-194.751
-205.813
-181.168
-154.017
-156.565
-178.561
-195.546
)
;
    }
}


// ************************************************************************* //
