/*--------------------------------*- C++ -*----------------------------------*\
| =========                 |                                                 |
| \\      /  F ield         | OpenFOAM: The Open Source CFD Toolbox           |
|  \\    /   O peration     | Version:  v1912                                 |
|   \\  /    A nd           | Website:  www.openfoam.com                      |
|    \\/     M anipulation  |                                                 |
\*---------------------------------------------------------------------------*/
FoamFile
{
    version     2.0;
    format      ascii;
    class       volScalarField;
    location    "282/oil";
    object      wallHeatFlux;
}
// * * * * * * * * * * * * * * * * * * * * * * * * * * * * * * * * * * * * * //

dimensions      [1 0 -3 0 0 0 0];


internalField   uniform 0;

boundaryField
{
    maxY
    {
        type            calculated;
        value           uniform 0;
    }
    minX
    {
        type            calculated;
        value           uniform 0;
    }
    maxX
    {
        type            calculated;
        value           uniform 0;
    }
    minY
    {
        type            calculated;
        value           uniform 0;
    }
    minZ
    {
        type            calculated;
        value           uniform 0;
    }
    maxZ
    {
        type            calculated;
        value           uniform 0;
    }
    oil_to_sphere
    {
        type            calculated;
        value           nonuniform List<scalar> 
1536
(
1924.58
1650.57
1645.54
1143.44
1128.42
1636.18
1415.66
1505.26
1472.33
1185.63
985.413
1222.66
1467.06
1234.69
918.344
1384.78
1637.31
1658.81
1369.88
1452.97
1569.97
1476.21
1496.3
1381.88
1409.02
1395.2
1407.06
1348.11
1621.61
1486.49
1703.76
1652.11
1662.11
1386.71
1403.22
1349.75
1374.44
1293.42
1344.98
1405
1333.49
1373.97
1463.04
1520.33
1588.07
1401.61
1568.76
1496.26
937.971
1394.39
1544.43
1476.53
1490.6
1380.69
1612.56
1801.17
1492.58
1453.7
1566.23
1539.38
1456.77
1463.92
1451.84
1373.64
1401.15
1444.43
1452.11
1551.18
1547.95
1610.36
1372.3
1132.94
1219.82
1396.01
1394.11
1818.94
1665.23
1298.76
1385.47
1649.98
1573.59
1534.22
1143.24
1135.58
1620.16
1872.48
1075.78
1428.89
1540.28
1538.61
1474.19
1358.75
1354.77
1366.92
1394.15
1517.64
1569.89
1588.11
1684.69
1532.25
1575.82
1368.16
1930.05
1547.39
1208.14
1389.25
1411.05
1163.37
1161.78
1938.12
1662.19
1504.85
1462.07
1497.91
1104.67
1133.52
1051.63
1750.71
1900.06
1678.37
1484.5
1497.73
1341.88
1566.18
1700
1522.77
1481.62
1323.51
1583.01
1563.71
1445.9
1552.8
1608.69
1412.99
1430.87
1623.57
1499.18
1652.47
1328.92
1639.99
1474.47
1560.98
1563.6
1466.69
1434.68
1460.71
1520.1
1751.3
1446.2
1941.45
1598.44
1652.48
1492.26
1507.85
1392.66
1528.54
1620.34
1570.26
1989.3
1699.19
1661.36
1766.36
1250.81
1294.8
1362.51
1357.02
1606.11
1732.59
1682.21
1809.14
1348.5
1365.81
1302.34
1571.98
1489.27
1512.47
1848.77
1285.22
1229.88
1871.63
1348.95
1297.94
1288.33
1313.74
1550.93
1873.55
1701.56
1335.36
1249.4
1654.47
1267.76
1606.99
1605.79
1728.16
1219.84
862.172
1718.52
1755.56
1415.77
1390.98
1478.45
1417.89
1659.78
1715.64
1592.92
1535.39
1370.55
1739.71
1688.15
1517.61
1322.62
1400.72
1389.67
1427.23
1577.49
1812.34
1261.96
1229.82
1237.66
826.43
1638.26
1572.67
1531.77
1476.98
1489.45
1742.25
1605.73
1402.62
1640.31
1189.57
1351.4
876.039
1464.25
1626.58
1719.89
1693.02
1638.14
1580.17
1676.46
1218.05
1257.12
1307.63
1761.03
1310.44
875.043
1060.46
1573.71
1470.44
1857.79
1989.79
1503.1
1136.64
832.688
1538.53
1691.09
1367.39
1375.82
1090.52
1357.18
1741.05
1885.64
1456.54
1376.25
1785.2
1706.01
1397.7
1204.88
1437.95
1821.1
1755.11
1580.86
1607.12
1708.02
1289.64
1386.4
1723.06
1606.69
1654.63
1464.08
1641.75
1805.15
1592.16
1569.38
1771.79
1371.96
1367.45
1393.76
1342.83
1360.84
1732.4
1828.41
1240.95
1423.65
1409.26
1421.27
1334.97
1491.37
1462.71
1303.62
1095.3
1353.38
1225.51
1329.74
1874.8
1778.59
1774.25
1966.79
1270.48
1290.47
1487.32
1941.74
1894.08
1353.28
1467.28
1338.49
1601.42
1381.93
1566.96
1589.86
1669.71
1613.47
1406.39
1624.81
1349.73
1710.08
1745.77
1647.94
1626.35
1308.51
1837.11
1828.4
1601.55
1212.81
1369.26
1419.47
1591.22
1563.93
1602.63
1299.86
1705.68
1721.94
1670.36
1772.43
1552.72
1520
1455.75
1257.46
1523.75
1597.97
1254.38
1233.91
1282.86
1914.35
1701.67
1773.71
1559.9
1516.03
1730.49
1240.74
1855.35
1668.26
1519.94
1515.38
1223.95
1669.09
1695.05
1320.16
1520.23
1448.45
1377.87
1603.09
1701.06
1462.95
1397.94
1274.39
1812.53
1711.57
1232.36
1733.59
1696.96
1638.99
1811.14
1516.18
1617.19
1183.32
1220.44
1589.44
1951.52
1651.62
1859.17
1558.7
1413.58
1683.31
1284.09
1341.44
1568.6
1696.06
1607.36
1561.95
1296.31
1292.62
1724.84
1717.43
1712.5
1511.9
1360.87
1571.56
1626.4
1691.18
1527.34
1432.45
1314.92
1502.72
1271.91
1164.44
1365.37
1316.74
1506.13
1186.15
1416.12
1842.54
1410
1406.65
1693.82
1689.56
1596.24
1449.77
1249.83
1648.65
1775.62
1583.45
1531.92
1656.85
1469.64
1496.8
1555.4
1140.87
1586.46
1721.51
1771.82
1681.97
1621.42
1606.9
1529.5
1439.4
1284.19
1484.99
1312.54
1224.5
1336.8
1160.87
1883.27
1846
1746.48
1935.04
1287.37
1885.67
1296.76
1350.09
1635.48
1270.87
1288.77
1419.29
1407.67
1855.66
1778.49
1556.02
1576.38
1807.78
1727
1526.17
1624.91
1325.73
1696.23
1211.37
1768.98
1138.14
1617
1649.17
1682.86
1404.57
1277.52
1443.6
1691.09
1456.48
1192.47
1696.88
1716.53
1758.18
1959.97
1534.44
1795.4
1267.93
1302.79
951.284
1057.97
1522.33
1416.38
1382.22
1337.75
1904.32
1308.11
1238.51
1199.55
1426.4
1195.84
1986.55
1327.45
1347.31
1488.31
991.401
1084.16
1367.22
1360.09
1461.89
1396.27
1714.5
1680.73
1608.32
1523.21
1167.67
1382.16
1674.46
1282.88
1320.44
1647.31
1814.15
1326.39
954.066
1256.75
985.29
1479.4
1403.92
1347.81
1212.52
985.327
1606.15
1643.01
1564.23
1477.44
1823.87
1614.15
1590.24
1517.28
1306.49
1389.77
1713.88
1610.41
1426.26
1050.56
1532.98
1669.75
1839.18
1542.36
1377.02
1837.49
1498.05
1798.6
1322.07
1399.68
1286.19
1409.09
1535.46
1812.14
1302.73
1340.19
1304.52
1430.45
1991.27
1221.25
1387.06
1234.86
1493.41
1534.31
1718.26
1821.98
1181.81
1213.13
1819.75
1856.57
1112.87
1807.4
1733.97
1651.18
1728.49
1592.91
1506.14
1518.46
1811.33
1525.93
1595.8
1502.7
1692.55
1545.36
1481.96
1463.68
1254.9
1648.51
1480.8
1688.69
1620.69
1627.65
1609.43
1528.74
1221.37
1723.71
1722.84
1601.57
1478.98
1551.07
1928.98
1194.52
1316.91
1263.51
1541.3
1344.43
1931.02
1412.18
1440.66
1496.41
960.224
1000.41
1375.8
1369.95
1513.94
1285.62
1335.9
1551.55
1357.29
1823.44
1269.95
1913.06
1421.79
1534.59
884.81
990.973
946.173
1349.43
1651.05
1387.84
1349.12
987.016
1503.96
1669.99
1508.73
2068.66
1324.54
1713.39
1604.61
1658.39
1740.32
1731.91
1659.33
1489.95
1433.72
1484.49
1659.91
1450.82
1567.46
1542
1563.24
1684.08
1611.25
1648.27
1253.25
1313.74
855.346
1092.36
1156.45
694.539
1369.66
1397.14
1451.09
1481.51
1162.45
1260
1425.56
1757.01
1730.29
1420.54
1199.14
1467.14
1677.93
1604.86
1493.06
1181.75
1324.3
1605.09
1554.75
1488.18
1379.03
1630.36
1636.55
1812.12
1638.84
1530.91
1396.75
1331.31
1248.55
1372.9
1466.18
1946.31
1522.3
1876.43
1340.58
1970.44
1368.62
1459.92
1272.64
1301.03
1398.66
1247.35
1445.73
1184.21
1379.44
1712.13
1415.8
1230.43
1831.49
1623.77
1572.6
1473.48
1809.28
2101.76
1099.77
1614.39
1562.62
1595.45
1247.14
1476.6
1337.45
1562.23
1646.16
1726.39
1305.81
1604.41
1515.7
1632.77
1616.73
1587.37
1424.73
1456.85
1384.8
1196.71
1167.1
1285.65
1787.3
1380.93
1238.8
1388.41
1717.6
1441.59
1786.29
1681.58
1582.61
1530.4
1578.09
1844.13
1285.96
1608.98
1733.8
1759.22
1526.74
1333.72
1437.35
1579.69
1767.4
1268.15
1459.91
1519.44
1710.15
1576.83
1577.16
1796.15
1272.48
1346.05
1311.02
1846.55
1723.89
1518.57
1708.09
1348.2
1380.55
1707.04
1577.04
1812.55
1297.6
1663.15
1697.25
1537.73
1563.99
1648.1
1305.47
1150.7
1498.63
1577.54
1860.71
1465.12
1364.25
1483.25
1579.61
1659.5
1528.82
1340.67
1466.79
1694.07
1279.65
1337.69
1466.15
1375.54
1553.87
1528.97
1753.46
1595.23
1679.47
1388.03
1486.86
1553.19
1475.88
1433.77
1396.66
1391.98
1279.16
1626.79
1546.4
1545.27
1584.6
1212.61
1410.52
1837.06
1842.3
1339.82
1713.76
1578.51
1623.02
1389.67
1763.8
1743.2
1291.11
1440.56
1406.69
1395.75
1207.15
1260.58
1406.48
1738.81
1938.63
1363.18
1646.32
1625.59
1571.98
1451.18
1555.17
1752.53
1552.27
1299.83
1412.56
1388.9
1403.85
1596.25
1626.86
1628.63
1641.49
1641.8
1343.25
1654.78
1419.88
1614.57
986.177
1585.94
1778.57
1432.74
1099.79
1498.73
1458.31
1872.53
1315.98
1655.29
1482.94
1146.81
1827.34
1230.13
1458.57
1501.39
1211.41
1714.62
1556.05
1452.31
1524.39
1554.29
1456.07
1887.25
1238.37
1401.91
918.768
1432.95
1432.93
1510.4
1712.22
2115.06
1191.47
1405.9
2023.49
1232.81
1635.62
1334.8
1622.54
1081.48
1318.46
2014.2
1128.98
1959.65
1173.32
1859.65
1153.68
1312.45
951.827
1241.89
1975.28
1019.58
1483.03
1128.66
1801.97
1978.74
1034.77
1445.05
1364.83
1300.14
1290.26
1406.58
1504.51
1503.94
1614.48
1482.27
1805.56
2045.31
1029.59
1513.3
1580.5
1503.83
1536.19
1469.3
1436.9
1467.84
1672.16
1476.05
1676.37
1399.04
1546.81
1779.86
1430.17
1604.11
1716.62
1396.92
1546.86
1482.45
1611.64
1458.92
1524.51
1438.07
1702.59
1414.46
1569.2
1171.41
1820.44
1046.66
1577.99
1694.01
1825.43
1321.45
1532.07
1482.32
1530.39
1516
1476.22
1668.42
1289.11
852.459
1452.92
1103.63
1729.89
1327.23
1498.13
1639.72
885.074
1778.89
1285.37
975.843
1317.28
1636.14
1618.15
1511.43
1022.51
1509.3
1548.61
1360.6
1328.14
1737.53
1700.42
1384.51
1513.94
1738.95
1030.26
1672.77
1322.78
1606.27
1056.12
1939.87
1904.43
1694.88
1506.73
1439.17
1631.81
1426.68
1018.55
1268.91
1645.08
1335.02
1596.36
1096.96
1723.77
1611.13
750.405
1511.39
1559.66
903.69
1784.14
1163.9
1733.03
1823.27
1665.1
978.604
1521.98
1445.4
1513.73
1529.07
1593.99
1033.29
1396.62
1340.24
1342.11
1716.63
1496.25
1570.63
1618.75
1606.47
1441.59
1529.17
1454.91
1567.12
1741.13
1382.07
1430.2
1367.11
1528.26
1691.59
1379.3
1421.67
1400.17
1499.56
1339.58
1357.99
1420.26
1439.04
1524.82
1417.1
1812.13
1671.95
1117.46
1129.69
1778.88
694.571
1650.54
1547.09
1340.54
1440.75
1793.41
886.327
1724.1
1568.76
999.766
1405.04
1362.48
1503.74
860.158
1769.43
1580.8
891.105
1748.55
1757.9
1065.33
1827.54
1699.52
1072.24
1367.37
1341.55
892.922
1504.09
1532.69
1278.32
1322.45
1311.26
774.522
1315.12
879.956
743.417
1707.21
1363.03
1974.96
1386.37
1029.74
1772.04
1464.44
941.335
1382.38
1370.86
935.448
1128
1771.63
614.612
1271.45
1240.09
697.219
1725.68
1677.14
1502.35
1416.39
1367.82
1272.15
821.196
1510.26
1419.63
1431.92
1503.27
972.261
1644.89
1382.1
1473.74
1358.28
1464.83
1523.32
1258.37
995.214
1410.05
1542.68
1376.42
1416.55
1483.46
1321.25
1428.46
962.285
1385.74
1570.87
1362.12
1442.65
1328.66
1004.32
1785.32
1777.77
1746.88
1834.02
1062.15
906.144
1392.66
1662.34
1531.41
1632.76
1672.01
1272.07
1217.5
922.294
1039.57
1318.21
1477.13
1461.18
1449.87
1221.92
1708.72
1567.38
1077.36
1305.06
1261.86
1666.59
1325.47
820.293
1491.67
1490.7
1722.16
951.582
1369.63
1533.91
1397.15
1439.84
1624.23
1471.55
1277.27
1856.66
732.476
1190.32
1453.97
1324.19
1409.59
1827.36
1577.43
1497.26
1189.15
1783.29
1393.48
1523.17
1671.02
1722.9
1702.1
1721.06
1809.73
1865.2
1797.87
1798.73
1508.91
1684.39
1381.03
1439.92
1216.55
1146.59
778.9
1837.72
1820.92
1746.54
1427.34
1524.93
1508.38
1331.79
1539.79
1679.8
1287.1
1453.6
1611.94
1366.8
1386.94
1373.6
1424.01
1318.17
1415.76
1394.84
1057.04
1531.39
1292.47
1451.22
934.198
1840.89
1463.01
1348.14
1309.58
1085.25
1491.7
1355.37
895.294
1183.85
1456.32
1139.94
1199.36
1875.51
1904.07
1397.88
1399.88
1645.43
1822.21
888.4
1336.38
1318.79
1410.77
1409.3
1430.4
1468.24
1214.88
1009.81
1773.82
1403.72
1164.02
1209.85
1396.33
1497.84
1090.87
1443.32
1333.15
1380.76
1826.62
1172.25
1021.35
1410.81
1362.45
1319.02
1016.62
1727.87
1394.5
1381.56
1394.94
898.349
1400.21
1408.61
1031.54
1393.19
1182.03
1566.31
1760.04
1332.74
1681.73
1553.54
1340.08
1348.32
1416.97
1018.25
1554.84
1590.58
1371.29
952.276
1256.01
1444.41
1462.12
1335.79
992.102
1346.28
1722.72
1557.17
1353.63
1868.29
1171.43
1674.16
907.412
1159
1696.64
900.904
1707.03
1352.21
1496.68
1381.95
1898.25
1230.13
1501.91
1825.76
1784.17
1111.56
1762.52
1828.11
709.22
1451.06
1359.06
922.133
1594.37
1353.38
1382.81
1383.85
1471.83
1432.94
1371.31
1350.4
905.397
1589.87
1498.21
1481.55
1521.13
1426.94
1338.3
1259.31
1646.86
832.192
1311.94
1311.98
858.107
1694.91
1850.78
1468.34
1746.95
1785.03
1323.87
1353.79
1577.63
1744.36
1319.3
1609.88
1208.59
927.202
1651.8
1285.17
1721.89
1869.54
1818.57
951.763
1679.8
1509.75
1278.47
1368.72
1410.97
1356.67
961.741
1748.83
978.189
1739.63
1423.15
1208.95
1169.2
1434.93
1618.39
1804.33
1486.12
1943.02
1657.19
1708.31
895.734
1682.23
1630.9
1724.94
1328.08
1283.89
832.087
1457.43
1922.72
1751.94
1002.36
1226.33
981.106
1327.43
1468.51
1201.27
2073.7
1384.64
1227.01
1016.71
1554.29
1290.34
862.542
1443.98
1352.27
1359.19
1368.77
1372.69
1021.94
1205.22
925.455
1357.85
1658.12
1568.68
1764.71
1725.06
1312.6
1258.59
905.915
1338.26
1627.52
1787.85
1655.71
1667.62
1165.2
853.085
1234.71
813.246
1643.79
1665.38
1260.19
1700.77
1641.31
1762.78
1545.02
1497.65
1489.64
1312.5
891.045
1246.83
951.774
1197.59
1369.07
1335.2
1056.98
948.557
1605.2
1924.22
1872.29
1819.22
1483.02
1594.53
1584.83
1460.43
1368.5
1458.71
1275.97
1422.46
1424.81
950.541
1643.15
1403.98
1228.29
1048.33
1351.17
1476.5
1473.5
1336.82
1051.08
1803.18
1548.47
1357.91
1861.61
1284.77
928.672
1576.93
1425.28
1426.74
1426.22
1342.45
826.784
1434.58
1419.18
982.419
1793.09
1393.73
620.066
1367.79
1464.72
1482.87
1340.46
961.024
1304.16
1318.1
1144.79
1437.82
906.645
1451.31
1435.75
1120.71
1860.09
1417.31
1031.54
1920.61
1459.5
1459.74
1043.46
1435.26
977.032
)
;
    }
}


// ************************************************************************* //
