/*--------------------------------*- C++ -*----------------------------------*\
| =========                 |                                                 |
| \\      /  F ield         | OpenFOAM: The Open Source CFD Toolbox           |
|  \\    /   O peration     | Version:  v1906                                 |
|   \\  /    A nd           | Web:      www.OpenFOAM.com                      |
|    \\/     M anipulation  |                                                 |
\*---------------------------------------------------------------------------*/
FoamFile
{
    version     2.0;
    format      ascii;
    class       volVectorField;
    location    "80.4/oil";
    object      U;
}
// * * * * * * * * * * * * * * * * * * * * * * * * * * * * * * * * * * * * * //

dimensions      [0 1 -1 0 0 0 0];


internalField   nonuniform List<vector> 
27760
(
(-2.40974e-05 -2.45505e-05 -2.40974e-05)
(-4.75619e-05 -1.84144e-05 -1.73641e-05)
(-3.45619e-06 -4.76901e-06 -4.76045e-06)
(-5.61592e-06 -7.69372e-07 -8.84597e-07)
(-1.08821e-06 -2.36901e-07 -3.72744e-07)
(-3.23296e-07 -8.81596e-08 -2.37459e-07)
(3.65057e-07 2.72444e-09 -1.58595e-07)
(7.1892e-07 4.34194e-08 -1.26968e-07)
(9.1743e-07 6.76251e-08 -1.08765e-07)
(9.91861e-07 8.35515e-08 -9.61337e-08)
(9.64781e-07 9.51005e-08 -8.56007e-08)
(8.49663e-07 1.04069e-07 -7.63048e-08)
(6.60952e-07 1.10813e-07 -6.86548e-08)
(4.15702e-07 1.15409e-07 -6.3126e-08)
(1.34428e-07 1.17802e-07 -6.0166e-08)
(-1.6e-07 1.17951e-07 -6.00185e-08)
(-4.44058e-07 1.15901e-07 -6.26396e-08)
(-6.95515e-07 1.11799e-07 -6.76737e-08)
(-8.9542e-07 1.05895e-07 -7.4478e-08)
(-1.02972e-06 9.84854e-08 -8.21783e-08)
(-1.09053e-06 8.99318e-08 -8.96962e-08)
(-1.07622e-06 8.06328e-08 -9.56082e-08)
(-9.92094e-07 7.04716e-08 -9.91663e-08)
(-8.50024e-07 5.99926e-08 -9.90718e-08)
(-6.67143e-07 4.94382e-08 -9.43676e-08)
(-4.65554e-07 3.92895e-08 -8.44483e-08)
(-2.70933e-07 3.05384e-08 -6.94422e-08)
(-1.10964e-07 2.49472e-08 -5.07039e-08)
(-1.00969e-08 2.46541e-08 -3.18109e-08)
(1.3032e-08 2.55322e-08 -1.29988e-08)
(-1.7479e-05 -4.88653e-05 -1.7479e-05)
(-5.70156e-06 -6.36298e-06 -7.82892e-06)
(-7.64028e-06 -7.72322e-06 -2.7415e-06)
(-3.32717e-06 -2.2833e-06 -7.94184e-07)
(-9.63434e-07 -1.41212e-06 -4.0507e-07)
(2.45844e-07 -7.84962e-07 -2.09987e-07)
(1.13539e-06 -4.97398e-07 -1.13784e-07)
(1.68504e-06 -3.22505e-07 -6.4513e-08)
(2.00254e-06 -2.01728e-07 -3.27468e-08)
(2.11071e-06 -1.05935e-07 -8.76944e-09)
(2.02943e-06 -2.53572e-08 1.17709e-08)
(1.77672e-06 4.25665e-08 2.94974e-08)
(1.37717e-06 9.66317e-08 4.39648e-08)
(8.639e-07 1.34724e-07 5.43407e-08)
(2.77833e-07 1.54892e-07 5.98764e-08)
(-3.34858e-07 1.5611e-07 6.01597e-08)
(-9.26446e-07 1.38645e-07 5.52636e-08)
(-1.45179e-06 1.04171e-07 4.57824e-08)
(-1.87238e-06 5.56398e-08 3.27748e-08)
(-2.15966e-06 -3.00635e-09 1.76735e-08)
(-2.29745e-06 -6.71661e-08 2.11033e-09)
(-2.2831e-06 -1.31818e-07 -1.20768e-08)
(-2.12716e-06 -1.9229e-07 -2.31859e-08)
(-1.85298e-06 -2.43322e-07 -2.99455e-08)
(-1.49492e-06 -2.79564e-07 -3.13005e-08)
(-1.09569e-06 -2.94852e-07 -2.68786e-08)
(-7.03209e-07 -2.81629e-07 -1.74387e-08)
(-3.65646e-07 -2.31315e-07 -5.44752e-09)
(-1.23805e-07 -1.37141e-07 3.8256e-09)
(-5.26051e-09 -1.88171e-08 5.31106e-09)
(-4.8291e-06 -4.635e-06 -4.82905e-06)
(-7.53173e-06 -8.76721e-06 -2.78247e-06)
(-3.75218e-06 -5.11378e-06 -1.21539e-06)
(-1.92248e-06 -3.11855e-06 -5.63372e-07)
(-1.91212e-07 -2.29219e-06 -2.54136e-07)
(9.71688e-07 -1.7503e-06 -1.01737e-07)
(1.85889e-06 -1.42934e-06 -2.02298e-08)
(2.45466e-06 -1.19051e-06 2.72881e-08)
(2.80034e-06 -9.91198e-07 6.11513e-08)
(2.89995e-06 -8.11603e-07 8.86822e-08)
(2.76338e-06 -6.48128e-07 1.12892e-07)
(2.40717e-06 -5.0452e-07 1.34017e-07)
(1.86035e-06 -3.87448e-07 1.51322e-07)
(1.16494e-06 -3.03919e-07 1.63727e-07)
(3.74124e-07 -2.59461e-07 1.70337e-07)
(-4.51509e-07 -2.56924e-07 1.70662e-07)
(-1.24906e-06 -2.95832e-07 1.64778e-07)
(-1.959e-06 -3.72236e-07 1.53349e-07)
(-2.53054e-06 -4.79029e-07 1.37566e-07)
(-2.92608e-06 -6.06566e-07 1.19044e-07)
(-3.12431e-06 -7.43533e-07 9.95857e-08)
(-3.12163e-06 -8.77596e-07 8.10737e-08)
(-2.93191e-06 -9.96e-07 6.51974e-08)
(-2.58523e-06 -1.08592e-06 5.32812e-08)
(-2.12499e-06 -1.13386e-06 4.61291e-08)
(-1.60439e-06 -1.12529e-06 4.37496e-08)
(-1.08164e-06 -1.04398e-06 4.49521e-08)
(-6.12983e-07 -8.72573e-07 4.66459e-08)
(-2.4825e-07 -5.94977e-07 4.29382e-08)
(-2.37991e-08 -2.17272e-07 2.3859e-08)
(-8.58481e-07 -6.79576e-06 -8.5843e-07)
(-1.87178e-06 -5.49749e-06 -7.60312e-07)
(-1.35011e-06 -4.84154e-06 -5.34078e-07)
(-3.75426e-07 -3.93775e-06 -2.55901e-07)
(7.91423e-07 -3.43705e-06 -9.21289e-08)
(1.76824e-06 -3.05366e-06 2.80125e-09)
(2.57515e-06 -2.75902e-06 6.21998e-08)
(3.15155e-06 -2.48711e-06 1.02914e-07)
(3.48321e-06 -2.22088e-06 1.35646e-07)
(3.55278e-06 -1.95704e-06 1.64438e-07)
(3.35809e-06 -1.7038e-06 1.90674e-07)
(2.91187e-06 -1.47461e-06 2.13938e-07)
(2.24462e-06 -1.28462e-06 2.33112e-07)
(1.40395e-06 -1.14788e-06 2.46892e-07)
(4.51671e-07 -1.07488e-06 2.54229e-07)
(-5.41094e-07 -1.07106e-06 2.54556e-07)
(-1.50023e-06 -1.13579e-06 2.4794e-07)
(-2.35548e-06 -1.26228e-06 2.35095e-07)
(-3.04692e-06 -1.43807e-06 2.17314e-07)
(-3.53032e-06 -1.6462e-06 1.96318e-07)
(-3.7806e-06 -1.86665e-06 1.7402e-07)
(-3.79348e-06 -2.07765e-06 1.5234e-07)
(-3.58492e-06 -2.2567e-06 1.32952e-07)
(-3.1892e-06 -2.38105e-06 1.17144e-07)
(-2.65529e-06 -2.42745e-06 1.0556e-07)
(-2.04242e-06 -2.37168e-06 9.80146e-08)
(-1.41477e-06 -2.18755e-06 9.31291e-08)
(-8.33768e-07 -1.84637e-06 8.73975e-08)
(-3.58697e-07 -1.31413e-06 7.43383e-08)
(-3.92508e-08 -5.51547e-07 3.93214e-08)
(-2.67217e-07 -2.72608e-06 -2.67155e-07)
(-7.72216e-07 -4.39848e-06 -3.06408e-07)
(-2.07151e-07 -4.91165e-06 -1.90466e-07)
(6.07164e-07 -4.88972e-06 -6.48634e-08)
(1.57404e-06 -4.80154e-06 2.30224e-08)
(2.46781e-06 -4.62957e-06 8.22141e-08)
(3.23157e-06 -4.40719e-06 1.2561e-07)
(3.79069e-06 -4.13079e-06 1.60561e-07)
(4.10381e-06 -3.81275e-06 1.92152e-07)
(4.14031e-06 -3.47044e-06 2.22024e-07)
(3.8894e-06 -3.12721e-06 2.50229e-07)
(3.36072e-06 -2.80911e-06 2.75686e-07)
(2.58576e-06 -2.54191e-06 2.9684e-07)
(1.61657e-06 -2.34823e-06 3.12106e-07)
(5.22197e-07 -2.24468e-06 3.20228e-07)
(-6.1723e-07 -2.23984e-06 3.20534e-07)
(-1.71792e-06 -2.33302e-06 3.13076e-07)
(-2.70037e-06 -2.51422e-06 2.98638e-07)
(-3.49685e-06 -2.76489e-06 2.78662e-07)
(-4.05747e-06 -3.05965e-06 2.55019e-07)
(-4.35411e-06 -3.36857e-06 2.29791e-07)
(-4.38198e-06 -3.65914e-06 2.05019e-07)
(-4.15865e-06 -3.89781e-06 1.82439e-07)
(-3.72163e-06 -4.05095e-06 1.63337e-07)
(-3.12414e-06 -4.0847e-06 1.48308e-07)
(-2.42996e-06 -3.9642e-06 1.37064e-07)
(-1.70819e-06 -3.65168e-06 1.28107e-07)
(-1.02558e-06 -3.10314e-06 1.17555e-07)
(-4.51847e-07 -2.25674e-06 9.82222e-08)
(-5.13727e-08 -1.00086e-06 5.14579e-08)
(-9.45434e-08 -2.60378e-06 -9.44675e-08)
(-2.47188e-08 -4.67764e-06 -7.44772e-08)
(5.39433e-07 -5.76542e-06 -1.35033e-08)
(1.3175e-06 -6.27022e-06 4.89656e-08)
(2.21758e-06 -6.49476e-06 9.928e-08)
(3.08482e-06 -6.50305e-06 1.38851e-07)
(3.8359e-06 -6.355e-06 1.7316e-07)
(4.38953e-06 -6.08249e-06 2.05291e-07)
(4.6895e-06 -5.72042e-06 2.37298e-07)
(4.69628e-06 -5.30461e-06 2.693e-07)
(4.39294e-06 -4.87364e-06 3.00392e-07)
(3.78674e-06 -4.46686e-06 3.28882e-07)
(2.91022e-06 -4.12166e-06 3.52748e-07)
(1.81966e-06 -3.87003e-06 3.7003e-07)
(5.91068e-07 -3.7354e-06 3.79217e-07)
(-6.86801e-07 -3.72987e-06 3.79492e-07)
(-1.92081e-06 -3.85278e-06 3.70895e-07)
(-3.02259e-06 -4.09066e-06 3.54319e-07)
(-3.91692e-06 -4.41839e-06 3.31415e-07)
(-4.54866e-06 -4.80156e-06 3.04327e-07)
(-4.8871e-06 -5.19968e-06 2.75417e-07)
(-4.92705e-06 -5.5687e-06 2.46942e-07)
(-4.68787e-06 -5.86348e-06 2.20782e-07)
(-4.21026e-06 -6.03899e-06 1.98323e-07)
(-3.55139e-06 -6.05013e-06 1.80185e-07)
(-2.77956e-06 -5.85042e-06 1.66026e-07)
(-1.96907e-06 -5.38858e-06 1.54229e-07)
(-1.19262e-06 -4.6008e-06 1.40509e-07)
(-5.30523e-07 -3.38799e-06 1.16853e-07)
(-6.10562e-08 -1.54524e-06 6.11604e-08)
(4.57316e-09 -2.68392e-06 4.66727e-09)
(3.22231e-07 -5.41706e-06 4.27151e-08)
(9.7685e-07 -7.03878e-06 8.22832e-08)
(1.80872e-06 -7.97267e-06 1.18565e-07)
(2.72853e-06 -8.47438e-06 1.50899e-07)
(3.61755e-06 -8.64977e-06 1.80775e-07)
(4.38626e-06 -8.57877e-06 2.11061e-07)
(4.95126e-06 -8.31788e-06 2.43037e-07)
(5.24851e-06 -7.92055e-06 2.77183e-07)
(5.23259e-06 -7.43899e-06 3.12678e-07)
(4.88218e-06 -6.92634e-06 3.47873e-07)
(4.20292e-06 -6.43528e-06 3.80501e-07)
(3.22859e-06 -6.01488e-06 4.08015e-07)
(2.01997e-06 -5.70704e-06 4.2799e-07)
(6.60181e-07 -5.54227e-06 4.38589e-07)
(-7.5314e-07 -5.53639e-06 4.38831e-07)
(-2.11733e-06 -5.68883e-06 4.28743e-07)
(-3.33491e-06 -5.98256e-06 4.09357e-07)
(-4.32317e-06 -6.38568e-06 3.82603e-07)
(-5.02183e-06 -6.85447e-06 3.51032e-07)
(-5.39775e-06 -7.33752e-06 3.17382e-07)
(-5.44587e-06 -7.7792e-06 2.84239e-07)
(-5.18775e-06 -8.12269e-06 2.53767e-07)
(-4.66757e-06 -8.31141e-06 2.27486e-07)
(-3.94694e-06 -8.28856e-06 2.06098e-07)
(-3.099e-06 -7.99516e-06 1.89227e-07)
(-2.20368e-06 -7.36422e-06 1.7513e-07)
(-1.34006e-06 -6.308e-06 1.59089e-07)
(-5.98401e-07 -4.68166e-06 1.32167e-07)
(-6.91352e-08 -2.17014e-06 6.92643e-08)
(4.61558e-08 -3.14844e-06 4.62698e-08)
(5.17364e-07 -6.56447e-06 1.01307e-07)
(1.26515e-06 -8.67572e-06 1.3534e-07)
(2.1727e-06 -9.97853e-06 1.62007e-07)
(3.14565e-06 -1.07297e-05 1.86972e-07)
(4.08075e-06 -1.10615e-05 2.13358e-07)
(4.88569e-06 -1.10698e-05 2.4329e-07)
(5.47507e-06 -1.0829e-05 2.77422e-07)
(5.77936e-06 -1.04075e-05 3.15416e-07)
(5.74839e-06 -9.87147e-06 3.55867e-07)
(5.35716e-06 -9.28747e-06 3.96519e-07)
(4.60982e-06 -8.72064e-06 4.34481e-07)
(3.54161e-06 -8.23161e-06 4.66633e-07)
(2.21792e-06 -7.87203e-06 4.90024e-07)
(7.29312e-07 -7.67948e-06 5.02411e-07)
(-8.17271e-07 -7.67357e-06 5.02615e-07)
(-2.30927e-06 -7.85381e-06 4.90651e-07)
(-3.63978e-06 -8.19964e-06 4.67741e-07)
(-4.71833e-06 -8.67233e-06 4.36181e-07)
(-5.47962e-06 -9.21894e-06 3.99008e-07)
(-5.88846e-06 -9.77739e-06 3.59441e-07)
(-5.94046e-06 -1.02807e-05 3.20541e-07)
(-5.65994e-06 -1.06605e-05 2.8484e-07)
(-5.09508e-06 -1.08489e-05 2.5405e-07)
(-4.31247e-06 -1.07776e-05 2.28992e-07)
(-3.39052e-06 -1.0374e-05 2.09256e-07)
(-2.41489e-06 -9.55357e-06 1.92978e-07)
(-1.471e-06 -8.20074e-06 1.74971e-07)
(-6.57892e-07 -6.11782e-06 1.45356e-07)
(-7.61488e-08 -2.86513e-06 7.63065e-08)
(6.81815e-08 -3.78237e-06 6.83188e-08)
(6.34654e-07 -7.95725e-06 1.34811e-07)
(1.46463e-06 -1.05718e-05 1.67967e-07)
(2.44887e-06 -1.22332e-05 1.91443e-07)
(3.48602e-06 -1.32296e-05 2.14106e-07)
(4.47762e-06 -1.37202e-05 2.40409e-07)
(5.32862e-06 -1.38175e-05 2.72355e-07)
(5.95095e-06 -1.36109e-05 3.10386e-07)
(6.27031e-06 -1.31816e-05 3.53713e-07)
(6.23187e-06 -1.26078e-05 4.00453e-07)
(5.80707e-06 -1.1968e-05 4.47807e-07)
(4.99841e-06 -1.13388e-05 4.92248e-07)
(3.84242e-06 -1.07917e-05 5.30012e-07)
(2.40911e-06 -1.03876e-05 5.57511e-07)
(7.96662e-07 -1.0171e-05 5.72026e-07)
(-8.7845e-07 -1.01653e-05 5.72194e-07)
(-2.49338e-06 -1.037e-05 5.58028e-07)
(-3.93158e-06 -1.07612e-05 5.30917e-07)
(-5.09483e-06 -1.12935e-05 4.93595e-07)
(-5.91304e-06 -1.19049e-05 4.49725e-07)
(-6.34929e-06 -1.25232e-05 4.03136e-07)
(-6.40056e-06 -1.30707e-05 3.57424e-07)
(-6.09463e-06 -1.34686e-05 3.15524e-07)
(-5.48433e-06 -1.36381e-05 2.79446e-07)
(-4.64154e-06 -1.34994e-05 2.50148e-07)
(-3.64998e-06 -1.29661e-05 2.2723e-07)
(-2.60089e-06 -1.19345e-05 2.08659e-07)
(-1.58531e-06 -1.02579e-05 1.88785e-07)
(-7.09616e-07 -7.67933e-06 1.5686e-07)
(-8.23138e-08 -3.62169e-06 8.25035e-08)
(8.0526e-08 -4.52754e-06 8.06894e-08)
(7.10489e-07 -9.52701e-06 1.55028e-07)
(1.60627e-06 -1.26684e-05 1.89099e-07)
(2.65706e-06 -1.46945e-05 2.12281e-07)
(3.75519e-06 -1.59435e-05 2.35263e-07)
(4.80254e-06 -1.66044e-05 2.63481e-07)
(5.70132e-06 -1.68074e-05 2.99046e-07)
(6.36007e-06 -1.66556e-05 3.42286e-07)
(6.70001e-06 -1.62414e-05 3.922e-07)
(6.6616e-06 -1.56534e-05 4.4646e-07)
(6.2121e-06 -1.49798e-05 5.01707e-07)
(5.35185e-06 -1.43073e-05 5.53736e-07)
(4.11823e-06 -1.3717e-05 5.98016e-07)
(2.58543e-06 -1.32786e-05 6.30259e-07)
(8.59165e-07 -1.30433e-05 6.47253e-07)
(-9.34433e-07 -1.3038e-05 6.47384e-07)
(-2.6624e-06 -1.32623e-05 6.3066e-07)
(-4.19849e-06 -1.36888e-05 5.98702e-07)
(-5.43685e-06 -1.42657e-05 5.5476e-07)
(-6.30308e-06 -1.49231e-05 5.03172e-07)
(-6.75945e-06 -1.5579e-05 4.48446e-07)
(-6.80505e-06 -1.61464e-05 3.94869e-07)
(-6.47172e-06 -1.65372e-05 3.45863e-07)
(-5.81754e-06 -1.6663e-05 3.0377e-07)
(-4.91953e-06 -1.64331e-05 2.69672e-07)
(-3.86663e-06 -1.57474e-05 2.43178e-07)
(-2.75478e-06 -1.44818e-05 2.22142e-07)
(-1.67934e-06 -1.24556e-05 2.00465e-07)
(-7.52223e-07 -9.3475e-06 1.66544e-07)
(-8.75426e-08 -4.43101e-06 8.77684e-08)
(8.78786e-08 -5.34262e-06 8.80596e-08)
(7.58477e-07 -1.12182e-05 1.67514e-07)
(1.70036e-06 -1.49107e-05 2.02796e-07)
(2.80008e-06 -1.73151e-05 2.26812e-07)
(3.94595e-06 -1.88312e-05 2.51422e-07)
(5.03932e-06 -1.9681e-05 2.82686e-07)
(5.98018e-06 -2.00138e-05 3.22874e-07)
(6.67397e-06 -1.99453e-05 3.7232e-07)
(7.03761e-06 -1.95772e-05 4.2979e-07)
(7.00662e-06 -1.90062e-05 4.92596e-07)
(6.54355e-06 -1.83281e-05 5.5678e-07)
(5.64577e-06 -1.76377e-05 6.17376e-07)
(4.35048e-06 -1.70244e-05 6.6906e-07)
(2.73527e-06 -1.65657e-05 7.06706e-07)
(9.12723e-07 -1.63186e-05 7.26497e-07)
(-9.81789e-07 -1.63136e-05 7.26599e-07)
(-2.80536e-06 -1.65506e-05 7.07015e-07)
(-4.4225e-06 -1.69988e-05 6.69585e-07)
(-5.72051e-06 -1.76004e-05 6.18137e-07)
(-6.62163e-06 -1.82781e-05 5.57811e-07)
(-7.08826e-06 -1.89419e-05 4.94005e-07)
(-7.12249e-06 -1.9497e-05 4.31681e-07)
(-6.76113e-06 -1.98477e-05 3.74781e-07)
(-6.06759e-06 -1.98981e-05 3.26023e-07)
(-5.12387e-06 -1.95481e-05 2.86666e-07)
(-4.02306e-06 -1.86843e-05 2.56314e-07)
(-2.86447e-06 -1.71616e-05 2.32645e-07)
(-1.74608e-06 -1.47632e-05 2.09227e-07)
(-7.82768e-07 -1.10987e-05 1.73778e-07)
(-9.14989e-08 -5.28203e-06 9.17666e-08)
(9.16729e-08 -6.19897e-06 9.1888e-08)
(7.81981e-07 -1.29822e-05 1.73989e-07)
(1.74602e-06 -1.72426e-05 2.10129e-07)
(2.87007e-06 -2.0039e-05 2.35299e-07)
(4.04159e-06 -2.18398e-05 2.6205e-07)
(5.16262e-06 -2.29025e-05 2.9695e-07)
(6.13251e-06 -2.33957e-05 3.42375e-07)
(6.85485e-06 -2.34468e-05 3.9869e-07)
(7.24275e-06 -2.31645e-05 4.64497e-07)
(7.2269e-06 -2.26508e-05 5.36762e-07)
(6.76459e-06 -2.20065e-05 6.10935e-07)
(5.84903e-06 -2.13319e-05 6.81221e-07)
(4.5157e-06 -2.07226e-05 7.41336e-07)
(2.84405e-06 -2.02618e-05 7.85226e-07)
(9.52287e-07 -2.00124e-05 8.08281e-07)
(-1.01577e-06 -2.00079e-05 8.08352e-07)
(-2.90801e-06 -2.02483e-05 7.85423e-07)
(-4.58059e-06 -2.06996e-05 7.41668e-07)
(-5.91509e-06 -2.12991e-05 6.8173e-07)
(-6.83188e-06 -2.1963e-05 6.11636e-07)
(-7.29529e-06 -2.25956e-05 5.3774e-07)
(-7.31172e-06 -2.3097e-05 4.65801e-07)
(-6.92345e-06 -2.33667e-05 4.00367e-07)
(-6.19899e-06 -2.33033e-05 3.44488e-07)
(-5.22462e-06 -2.27991e-05 2.99545e-07)
(-4.09599e-06 -2.1729e-05 2.65144e-07)
(-2.9136e-06 -1.99267e-05 2.38837e-07)
(-1.77556e-06 -1.71382e-05 2.13903e-07)
(-7.96736e-07 -1.29003e-05 1.77553e-07)
(-9.36308e-08 -6.15932e-06 9.39411e-08)
(9.21715e-08 -7.06866e-06 9.23959e-08)
(7.79186e-07 -1.47659e-05 1.74388e-07)
(1.73566e-06 -1.95985e-05 2.1055e-07)
(2.85157e-06 -2.27958e-05 2.36725e-07)
(4.0176e-06 -2.48986e-05 2.65706e-07)
(5.13904e-06 -2.62008e-05 3.04297e-07)
(6.11709e-06 -2.68901e-05 3.55047e-07)
(6.85556e-06 -2.71042e-05 4.18381e-07)
(7.2652e-06 -2.69563e-05 4.92814e-07)
(7.27242e-06 -2.65506e-05 5.75025e-07)
(6.82883e-06 -2.59893e-05 6.59934e-07)
(5.92199e-06 -2.53742e-05 7.40935e-07)
(4.58371e-06 -2.48039e-05 8.10538e-07)
(2.89294e-06 -2.43657e-05 8.61575e-07)
(9.71404e-07 -2.41265e-05 8.88446e-07)
(-1.03026e-06 -2.41225e-05 8.88477e-07)
(-2.95182e-06 -2.43537e-05 8.61677e-07)
(-4.64263e-06 -2.47836e-05 8.10716e-07)
(-5.98082e-06 -2.53453e-05 7.41213e-07)
(-6.88732e-06 -2.59514e-05 6.60363e-07)
(-7.33031e-06 -2.65035e-05 5.75642e-07)
(-7.32195e-06 -2.68998e-05 4.93632e-07)
(-6.91029e-06 -2.70386e-05 4.19483e-07)
(-6.16845e-06 -2.68161e-05 3.56442e-07)
(-5.18531e-06 -2.61199e-05 3.06007e-07)
(-4.05674e-06 -2.48139e-05 2.67697e-07)
(-2.88173e-06 -2.27124e-05 2.38941e-07)
(-1.75531e-06 -1.95231e-05 2.12856e-07)
(-7.88462e-07 -1.47084e-05 1.76509e-07)
(-9.32542e-08 -7.04182e-06 9.36161e-08)
(8.89151e-08 -7.9204e-06 8.91759e-08)
(7.45531e-07 -1.65069e-05 1.67858e-07)
(1.65804e-06 -2.18984e-05 2.02873e-07)
(2.72493e-06 -2.5496e-05 2.29445e-07)
(3.84472e-06 -2.79136e-05 2.6023e-07)
(4.92969e-06 -2.94815e-05 3.02047e-07)
(5.88637e-06 -3.04057e-05 3.57517e-07)
(6.62165e-06 -3.08321e-05 4.27289e-07)
(7.0465e-06 -3.08758e-05 5.09987e-07)
(7.08411e-06 -3.06392e-05 6.02158e-07)
(6.68079e-06 -3.02214e-05 6.98252e-07)
(5.81701e-06 -2.97214e-05 7.90815e-07)
(4.51807e-06 -2.92363e-05 8.71091e-07)
(2.85918e-06 -2.88535e-05 9.3053e-07)
(9.62352e-07 -2.86414e-05 9.62056e-07)
(-1.01748e-06 -2.86378e-05 9.62058e-07)
(-2.91397e-06 -2.88427e-05 9.30548e-07)
(-4.57218e-06 -2.92183e-05 8.71134e-07)
(-5.87008e-06 -2.96961e-05 7.90896e-07)
(-6.73253e-06 -3.01887e-05 6.98432e-07)
(-7.13405e-06 -3.05991e-05 6.02532e-07)
(-7.09397e-06 -3.08286e-05 5.10524e-07)
(-6.66608e-06 -3.07783e-05 4.28019e-07)
(-5.92677e-06 -3.03462e-05 3.58427e-07)
(-4.96492e-06 -2.94178e-05 3.03137e-07)
(-3.8736e-06 -2.78485e-05 2.61499e-07)
(-2.74641e-06 -2.54333e-05 2.30864e-07)
(-1.67152e-06 -2.1843e-05 2.04344e-07)
(-7.51574e-07 -1.64655e-05 1.69179e-07)
(-8.95381e-08 -7.90165e-06 8.99447e-08)
(8.12727e-08 -8.71686e-06 8.15439e-08)
(6.75607e-07 -1.81299e-05 1.53068e-07)
(1.50078e-06 -2.40449e-05 1.85342e-07)
(2.46907e-06 -2.80286e-05 2.113e-07)
(3.49225e-06 -3.07653e-05 2.42842e-07)
(4.49369e-06 -3.26206e-05 2.86539e-07)
(5.38968e-06 -3.38169e-05 3.45197e-07)
(6.09417e-06 -3.45063e-05 4.19667e-07)
(6.52176e-06 -3.48029e-05 5.08758e-07)
(6.59502e-06 -3.48037e-05 6.09178e-07)
(6.25555e-06 -3.45997e-05 7.15143e-07)
(5.47599e-06 -3.42815e-05 8.18592e-07)
(4.27278e-06 -3.39386e-05 9.09543e-07)
(2.71336e-06 -3.36531e-05 9.77795e-07)
(9.14991e-07 -3.34902e-05 1.01438e-06)
(-9.67336e-07 -3.34871e-05 1.01435e-06)
(-2.76506e-06 -3.36435e-05 9.77725e-07)
(-4.32329e-06 -3.39227e-05 9.09462e-07)
(-5.52469e-06 -3.42593e-05 8.18552e-07)
(-6.30195e-06 -3.45714e-05 7.15162e-07)
(-6.63874e-06 -3.47694e-05 6.09291e-07)
(-6.56238e-06 -3.47633e-05 5.08996e-07)
(-6.13113e-06 -3.4462e-05 4.20062e-07)
(-5.4223e-06 -3.37689e-05 3.4575e-07)
(-4.52126e-06 -3.25702e-05 2.87239e-07)
(-3.5141e-06 -3.07149e-05 2.43656e-07)
(-2.48472e-06 -2.79807e-05 2.12191e-07)
(-1.51024e-06 -2.40035e-05 1.8628e-07)
(-6.79625e-07 -1.80995e-05 1.53932e-07)
(-8.16186e-08 -8.7034e-06 8.20719e-08)
(6.85944e-08 -9.41476e-06 6.88751e-08)
(5.64411e-07 -1.95474e-05 1.28824e-07)
(1.25285e-06 -2.59236e-05 1.5644e-07)
(2.06559e-06 -3.02608e-05 1.80272e-07)
(2.93328e-06 -3.33076e-05 2.10875e-07)
(3.79483e-06 -3.5461e-05 2.54231e-07)
(4.58121e-06 -3.69583e-05 3.13126e-07)
(5.21817e-06 -3.79553e-05 3.88702e-07)
(5.62826e-06 -3.85626e-05 4.80244e-07)
(5.73744e-06 -3.88683e-05 5.84907e-07)
(5.48516e-06 -3.89509e-05 6.97065e-07)
(4.83676e-06 -3.88861e-05 8.08296e-07)
(3.79749e-06 -3.87487e-05 9.07614e-07)
(2.42237e-06 -3.86084e-05 9.83335e-07)
(8.17847e-07 -3.85207e-05 1.02449e-06)
(-8.6808e-07 -3.85179e-05 1.02445e-06)
(-2.47171e-06 -3.85999e-05 9.83261e-07)
(-3.8452e-06 -3.87348e-05 9.07482e-07)
(-4.88217e-06 -3.88666e-05 8.08148e-07)
(-5.52779e-06 -3.89264e-05 6.96961e-07)
(-5.77676e-06 -3.88393e-05 5.84907e-07)
(-5.66387e-06 -3.85295e-05 4.80339e-07)
(-5.24967e-06 -3.79186e-05 3.88887e-07)
(-4.60825e-06 -3.69192e-05 3.13424e-07)
(-3.817e-06 -3.54207e-05 2.54641e-07)
(-2.95032e-06 -3.32679e-05 2.11386e-07)
(-2.07739e-06 -3.02238e-05 1.80861e-07)
(-1.2597e-06 -2.58922e-05 1.57052e-07)
(-5.67155e-07 -1.95247e-05 1.29419e-07)
(-6.87679e-08 -9.40489e-06 6.92635e-08)
(5.04057e-08 -9.96592e-06 5.06841e-08)
(4.08967e-07 -2.06626e-05 9.42429e-08)
(9.07915e-07 -2.74075e-05 1.14944e-07)
(1.50372e-06 -3.20427e-05 1.3473e-07)
(2.15125e-06 -3.5371e-05 1.61926e-07)
(2.80955e-06 -3.78155e-05 2.01487e-07)
(3.42905e-06 -3.96246e-05 2.56073e-07)
(3.95269e-06 -4.09564e-05 3.27052e-07)
(4.31668e-06 -4.19156e-05 4.14204e-07)
(4.45539e-06 -4.25788e-05 5.15254e-07)
(4.3102e-06 -4.30076e-05 6.25229e-07)
(3.8414e-06 -4.32579e-05 7.36153e-07)
(3.0427e-06 -4.33831e-05 8.36801e-07)
(1.95256e-06 -4.34318e-05 9.14664e-07)
(6.58961e-07 -4.34432e-05 9.57522e-07)
(-7.0769e-07 -4.34409e-05 9.57454e-07)
(-2.00029e-06 -4.34244e-05 9.1454e-07)
(-3.08847e-06 -4.33708e-05 8.36603e-07)
(-3.88442e-06 -4.3241e-05 7.35957e-07)
(-4.34995e-06 -4.29866e-05 6.25035e-07)
(-4.49137e-06 -4.2554e-05 5.15121e-07)
(-4.34863e-06 -4.18877e-05 4.14113e-07)
(-3.98031e-06 -4.09259e-05 3.27059e-07)
(-3.45213e-06 -3.95926e-05 2.56185e-07)
(-2.82796e-06 -3.7783e-05 2.01679e-07)
(-2.16497e-06 -3.53395e-05 1.62205e-07)
(-1.51286e-06 -3.20138e-05 1.35081e-07)
(-9.12964e-07 -2.73832e-05 1.15331e-07)
(-4.10839e-07 -2.06453e-05 9.46594e-08)
(-5.04658e-08 -9.95855e-06 5.09988e-08)
(2.6674e-08 -1.03202e-05 2.69773e-08)
(2.0976e-07 -2.13751e-05 4.93193e-08)
(4.67304e-07 -2.8364e-05 6.07723e-08)
(7.8546e-07 -3.32169e-05 7.42909e-08)
(1.14787e-06 -3.67741e-05 9.51044e-08)
(1.5378e-06 -3.94773e-05 1.26655e-07)
(1.92977e-06 -4.15821e-05 1.71065e-07)
(2.28907e-06 -4.32455e-05 2.29831e-07)
(2.5716e-06 -4.45656e-05 3.03237e-07)
(2.72635e-06 -4.56054e-05 3.89865e-07)
(2.70262e-06 -4.64078e-05 4.85794e-07)
(2.45978e-06 -4.70047e-05 5.84175e-07)
(1.98084e-06 -4.74235e-05 6.74785e-07)
(1.28449e-06 -4.76868e-05 7.45845e-07)
(4.31374e-07 -4.78122e-05 7.85369e-07)
(-4.78952e-07 -4.78103e-05 7.85303e-07)
(-1.33091e-06 -4.76806e-05 7.4571e-07)
(-2.02506e-06 -4.74129e-05 6.74543e-07)
(-2.50101e-06 -4.69903e-05 5.83884e-07)
(-2.74032e-06 -4.63898e-05 4.85469e-07)
(-2.75999e-06 -4.55842e-05 3.89624e-07)
(-2.60093e-06 -4.45419e-05 3.03036e-07)
(-2.31392e-06 -4.32201e-05 2.29726e-07)
(-1.95004e-06 -4.15556e-05 1.71041e-07)
(-1.55354e-06 -3.94508e-05 1.26685e-07)
(-1.15925e-06 -3.67488e-05 9.52231e-08)
(-7.92795e-07 -3.3194e-05 7.44807e-08)
(-4.71171e-07 -2.8345e-05 6.10548e-08)
(-2.1108e-07 -2.13618e-05 4.96308e-08)
(-2.6678e-08 -1.03146e-05 2.72409e-08)
(-1.98984e-09 -1.04306e-05 -1.71539e-09)
(-2.7833e-08 -2.15916e-05 -4.92357e-09)
(-5.70102e-08 -2.86693e-05 -4.91682e-09)
(-7.00503e-08 -3.36334e-05 5.41507e-11)
(-5.07418e-08 -3.73404e-05 1.13351e-08)
(1.116e-08 -4.02402e-05 3.02395e-08)
(1.18396e-07 -4.25903e-05 5.82131e-08)
(2.63452e-07 -4.45443e-05 9.64572e-08)
(4.27484e-07 -4.61912e-05 1.45597e-07)
(5.80804e-07 -4.758e-05 2.05214e-07)
(6.86777e-07 -4.87343e-05 2.7275e-07)
(7.09023e-07 -4.96626e-05 3.43626e-07)
(6.22233e-07 -5.03649e-05 4.10103e-07)
(4.22903e-07 -5.08368e-05 4.63047e-07)
(1.36344e-07 -5.10735e-05 4.92858e-07)
(-1.8293e-07 -5.10718e-05 4.92781e-07)
(-4.68184e-07 -5.08311e-05 4.62854e-07)
(-6.6524e-07 -5.03555e-05 4.09781e-07)
(-7.48873e-07 -4.965e-05 3.4326e-07)
(-7.22777e-07 -4.87185e-05 2.72367e-07)
(-6.12591e-07 -4.75617e-05 2.04843e-07)
(-4.54858e-07 -4.61709e-05 1.45287e-07)
(-2.86285e-07 -4.45229e-05 9.61912e-08)
(-1.36697e-07 -4.25683e-05 5.80475e-08)
(-2.50531e-08 -4.02183e-05 3.01559e-08)
(4.09702e-08 -3.73199e-05 1.12985e-08)
(6.39378e-08 -3.36149e-05 1.19524e-10)
(5.39542e-08 -2.86543e-05 -4.75749e-09)
(2.69302e-08 -2.15811e-05 -4.69346e-09)
(2.05533e-09 -1.04262e-05 -1.47217e-09)
(-3.44323e-08 -1.02586e-05 -3.41496e-08)
(-2.93251e-07 -2.12361e-05 -6.60852e-08)
(-6.41242e-07 -2.82228e-05 -7.92012e-08)
(-1.02394e-06 -3.3169e-05 -8.47341e-08)
(-1.39051e-06 -3.69228e-05 -8.57588e-08)
(-1.70183e-06 -3.99286e-05 -8.3441e-08)
(-1.92424e-06 -4.24396e-05 -7.74224e-08)
(-2.03414e-06 -4.46025e-05 -6.69697e-08)
(-2.02027e-06 -4.64963e-05 -5.12128e-08)
(-1.88572e-06 -4.81574e-05 -2.95812e-08)
(-1.6471e-06 -4.95916e-05 -2.59961e-09)
(-1.3317e-06 -5.0786e-05 2.80694e-08)
(-9.70667e-07 -5.17171e-05 5.85488e-08)
(-5.91734e-07 -5.23582e-05 8.3806e-08)
(-2.11859e-07 -5.26852e-05 9.84767e-08)
(1.66526e-07 -5.26834e-05 9.83709e-08)
(5.47667e-07 -5.23529e-05 8.35648e-08)
(9.28962e-07 -5.17086e-05 5.81978e-08)
(1.29321e-06 -5.07744e-05 2.76404e-08)
(1.61245e-06 -4.95773e-05 -3.03025e-09)
(1.85532e-06 -4.81413e-05 -3.00134e-08)
(1.99435e-06 -4.64787e-05 -5.15924e-08)
(2.01277e-06 -4.4584e-05 -6.7303e-08)
(1.90731e-06 -4.2421e-05 -7.76714e-08)
(1.68919e-06 -3.99104e-05 -8.36018e-08)
(1.38183e-06 -3.69057e-05 -8.58435e-08)
(1.01871e-06 -3.3154e-05 -8.47278e-08)
(6.38764e-07 -2.82107e-05 -7.91093e-08)
(2.92598e-07 -2.12277e-05 -6.58973e-08)
(3.45228e-08 -1.02551e-05 -3.39297e-08)
(-6.86173e-08 -9.78057e-06 -6.83678e-08)
(-5.70433e-07 -2.02631e-05 -1.30581e-07)
(-1.25042e-06 -2.69639e-05 -1.57735e-07)
(-2.01944e-06 -3.17478e-05 -1.74922e-07)
(-2.79193e-06 -3.54267e-05 -1.90045e-07)
(-3.49938e-06 -3.84258e-05 -2.07029e-07)
(-4.07612e-06 -4.0986e-05 -2.26835e-07)
(-4.46538e-06 -4.32442e-05 -2.49213e-07)
(-4.62267e-06 -4.52699e-05 -2.7303e-07)
(-4.52048e-06 -4.70873e-05 -2.96702e-07)
(-4.15148e-06 -4.86885e-05 -3.18461e-07)
(-3.53062e-06 -5.00454e-05 -3.36589e-07)
(-2.6933e-06 -5.11177e-05 -3.50104e-07)
(-1.69198e-06 -5.18636e-05 -3.58587e-07)
(-5.89945e-07 -5.22465e-05 -3.62454e-07)
(5.46231e-07 -5.22448e-05 -3.62544e-07)
(1.64947e-06 -5.18588e-05 -3.58831e-07)
(2.65302e-06 -5.11101e-05 -3.50485e-07)
(3.49345e-06 -5.00349e-05 -3.37013e-07)
(4.11814e-06 -4.86758e-05 -3.18897e-07)
(4.49135e-06 -4.70731e-05 -2.97171e-07)
(4.59792e-06 -4.52546e-05 -2.73459e-07)
(4.4451e-06 -4.32282e-05 -2.49558e-07)
(4.06024e-06 -4.09702e-05 -2.27149e-07)
(3.48763e-06 -3.84105e-05 -2.07254e-07)
(2.78398e-06 -3.54127e-05 -1.90162e-07)
(2.01479e-06 -3.17355e-05 -1.74965e-07)
(1.24829e-06 -2.69541e-05 -1.57684e-07)
(5.69958e-07 -2.02564e-05 -1.30407e-07)
(6.87401e-08 -9.77782e-06 -6.81455e-08)
(-1.02073e-07 -8.99364e-06 -1.01834e-07)
(-8.39163e-07 -1.86687e-05 -1.93634e-07)
(-1.84033e-06 -2.48865e-05 -2.34625e-07)
(-2.98487e-06 -2.93584e-05 -2.63678e-07)
(-4.15499e-06 -3.28316e-05 -2.93462e-07)
(-5.25418e-06 -3.56988e-05 -3.30632e-07)
(-6.18489e-06 -3.81818e-05 -3.77401e-07)
(-6.85693e-06 -4.04048e-05 -4.3413e-07)
(-7.19171e-06 -4.24273e-05 -4.99414e-07)
(-7.12978e-06 -4.4264e-05 -5.70508e-07)
(-6.63877e-06 -4.58987e-05 -6.43298e-07)
(-5.71967e-06 -4.72948e-05 -7.12322e-07)
(-4.41112e-06 -4.8404e-05 -7.71656e-07)
(-2.7903e-06 -4.91784e-05 -8.15305e-07)
(-9.67391e-07 -4.95768e-05 -8.38459e-07)
(9.25709e-07 -4.95752e-05 -8.3852e-07)
(2.74973e-06 -4.91742e-05 -8.15467e-07)
(4.37273e-06 -4.83971e-05 -7.71926e-07)
(5.68416e-06 -4.72852e-05 -7.12678e-07)
(6.60684e-06 -4.58874e-05 -6.4368e-07)
(7.10182e-06 -4.42512e-05 -5.70897e-07)
(7.16798e-06 -4.24137e-05 -4.99806e-07)
(6.83757e-06 -4.03911e-05 -4.34466e-07)
(6.16979e-06 -3.81682e-05 -3.77709e-07)
(5.24308e-06 -3.56859e-05 -3.30878e-07)
(4.14757e-06 -3.282e-05 -2.93641e-07)
(2.98058e-06 -2.93485e-05 -2.63767e-07)
(1.8384e-06 -2.48787e-05 -2.34605e-07)
(8.3876e-07 -1.86633e-05 -1.93478e-07)
(1.02198e-07 -8.99148e-06 -1.0162e-07)
(-1.31784e-07 -7.91925e-06 -1.31569e-07)
(-1.07581e-06 -1.64976e-05 -2.49608e-07)
(-2.36054e-06 -2.20485e-05 -3.03016e-07)
(-3.84002e-06 -2.60656e-05 -3.42925e-07)
(-5.369e-06 -2.92058e-05 -3.86361e-07)
(-6.82581e-06 -3.18166e-05 -4.42521e-07)
(-8.0834e-06 -3.40952e-05 -5.14714e-07)
(-9.01958e-06 -3.6151e-05 -6.03745e-07)
(-9.52317e-06 -3.80344e-05 -7.08025e-07)
(-9.50463e-06 -3.97543e-05 -8.23548e-07)
(-8.90724e-06 -4.12907e-05 -9.43832e-07)
(-7.71881e-06 -4.26051e-05 -1.05999e-06)
(-5.9812e-06 -4.36505e-05 -1.16155e-06)
(-3.79455e-06 -4.43796e-05 -1.23738e-06)
(-1.31235e-06 -4.47544e-05 -1.27804e-06)
(1.27338e-06 -4.4753e-05 -1.27809e-06)
(3.75649e-06 -4.43755e-05 -1.23754e-06)
(5.94497e-06 -4.36439e-05 -1.16177e-06)
(7.68516e-06 -4.25966e-05 -1.06027e-06)
(8.87687e-06 -4.12806e-05 -9.44168e-07)
(9.47795e-06 -3.97432e-05 -8.23892e-07)
(9.50053e-06 -3.80228e-05 -7.08371e-07)
(9.00107e-06 -3.61393e-05 -6.04088e-07)
(8.06892e-06 -3.40837e-05 -5.15018e-07)
(6.81523e-06 -3.18058e-05 -4.42775e-07)
(5.36192e-06 -2.91962e-05 -3.86555e-07)
(3.83594e-06 -2.60576e-05 -3.42994e-07)
(2.35882e-06 -2.20422e-05 -3.02997e-07)
(1.07549e-06 -1.64934e-05 -2.49473e-07)
(1.31917e-07 -7.91758e-06 -1.31361e-07)
(-1.54407e-07 -6.60661e-06 -1.54219e-07)
(-1.25526e-06 -1.38491e-05 -2.92169e-07)
(-2.7584e-06 -1.85785e-05 -3.54942e-07)
(-4.50211e-06 -2.20172e-05 -4.03245e-07)
(-6.32131e-06 -2.47112e-05 -4.57658e-07)
(-8.07328e-06 -2.69541e-05 -5.29395e-07)
(-9.60528e-06 -2.89149e-05 -6.2277e-07)
(-1.07668e-05 -3.06873e-05 -7.38919e-07)
(-1.1418e-05 -3.23134e-05 -8.75816e-07)
(-1.14427e-05 -3.3799e-05 -1.02826e-06)
(-1.07635e-05 -3.51251e-05 -1.18777e-06)
(-9.35722e-06 -3.62575e-05 -1.34248e-06)
(-7.26887e-06 -3.71553e-05 -1.47814e-06)
(-4.61805e-06 -3.77798e-05 -1.57974e-06)
(-1.59484e-06 -3.80999e-05 -1.63439e-06)
(1.55897e-06 -3.80987e-05 -1.6344e-06)
(4.58291e-06 -3.77762e-05 -1.57983e-06)
(7.23529e-06 -3.71497e-05 -1.47828e-06)
(9.32588e-06 -3.625e-05 -1.34267e-06)
(1.0735e-05 -3.51164e-05 -1.18799e-06)
(1.14175e-05 -3.37895e-05 -1.02852e-06)
(1.13965e-05 -3.23034e-05 -8.76101e-07)
(1.07492e-05 -3.06773e-05 -7.39203e-07)
(9.59146e-06 -2.89054e-05 -6.23026e-07)
(8.0632e-06 -2.69453e-05 -5.29612e-07)
(6.31458e-06 -2.47035e-05 -4.57856e-07)
(4.49825e-06 -2.20108e-05 -4.0334e-07)
(2.75674e-06 -1.85736e-05 -3.54937e-07)
(1.25496e-06 -1.38459e-05 -2.92043e-07)
(1.54533e-07 -6.60541e-06 -1.54022e-07)
(-1.66279e-07 -5.13431e-06 -1.66112e-07)
(-1.35155e-06 -1.08783e-05 -3.14251e-07)
(-2.98179e-06 -1.46759e-05 -3.81448e-07)
(-4.89186e-06 -1.74433e-05 -4.33863e-07)
(-6.9062e-06 -1.9604e-05 -4.94579e-07)
(-8.86617e-06 -2.13928e-05 -5.76261e-07)
(-1.05984e-05 -2.29489e-05 -6.84016e-07)
(-1.19295e-05 -2.43497e-05 -8.1909e-07)
(-1.26971e-05 -2.56309e-05 -9.7904e-07)
(-1.27641e-05 -2.67974e-05 -1.15764e-06)
(-1.20375e-05 -2.78343e-05 -1.34477e-06)
(-1.04864e-05 -2.87153e-05 -1.52637e-06)
(-8.1582e-06 -2.94101e-05 -1.68561e-06)
(-5.18723e-06 -2.98909e-05 -1.8048e-06)
(-1.78976e-06 -3.01365e-05 -1.86886e-06)
(1.75748e-06 -3.01355e-05 -1.86885e-06)
(5.15552e-06 -2.9888e-05 -1.80482e-06)