/*--------------------------------*- C++ -*----------------------------------*\
| =========                 |                                                 |
| \\      /  F ield         | OpenFOAM: The Open Source CFD Toolbox           |
|  \\    /   O peration     | Version:  v1912                                 |
|   \\  /    A nd           | Website:  www.openfoam.com                      |
|    \\/     M anipulation  |                                                 |
\*---------------------------------------------------------------------------*/
FoamFile
{
    version     2.0;
    format      ascii;
    class       surfaceScalarField;
    location    "492/oil";
    object      phi;
}
// * * * * * * * * * * * * * * * * * * * * * * * * * * * * * * * * * * * * * //

dimensions      [1 0 -1 0 0 0 0];
oriented        oriented;


internalField   nonuniform List<scalar> 
104676
(
-1.26387e-11
2.86495e-11
-1.5993e-11
2.85974e-10
-2.34752e-10
-6.3847e-11
8.96993e-10
-4.40932e-10
-1.70087e-10
1.72605e-09
-5.3815e-10
-2.90907e-10
2.65132e-09
-5.50295e-10
-3.74981e-10
3.55104e-09
-5.00387e-10
-3.99335e-10
4.31529e-09
-4.06564e-10
-3.57679e-10
4.85217e-09
-2.82298e-10
-2.54571e-10
5.0901e-09
-1.38022e-10
-9.99092e-11
4.99005e-09
1.32489e-11
8.68104e-11
4.53309e-09
1.69591e-10
2.87368e-10
3.75086e-09
2.97149e-10
4.85077e-10
2.68426e-09
4.13062e-10
6.53535e-10
1.40989e-09
4.97022e-10
7.77344e-10
2.53069e-11
5.41384e-10
8.43199e-10
-1.36356e-09
5.4377e-10
8.45098e-10
-2.64129e-09
4.97426e-10
7.80311e-10
-3.712e-09
4.12638e-10
6.58076e-10
-4.50162e-09
2.98831e-10
4.90788e-10
-4.96402e-09
1.65871e-10
2.96541e-10
-5.07614e-09
1.43209e-11
9.77995e-11
-4.84326e-09
-1.40964e-10
-9.19054e-11
-4.31053e-09
-2.84686e-10
-2.48043e-10
-3.54936e-09
-4.08787e-10
-3.52375e-10
-2.65215e-09
-5.02188e-10
-3.95022e-10
-1.72865e-09
-5.53042e-10
-3.70453e-10
-9.00123e-10
-5.42284e-10
-2.8624e-10
-2.88781e-10
-4.45651e-10
-1.65689e-10
1.06361e-11
-2.38961e-10
-6.04551e-11
2.43904e-11
-1.37509e-11
2.92593e-10
-5.56516e-10
2.92587e-10
1.13033e-09
-1.67387e-09
6.01394e-10
2.4617e-09
-2.51729e-09
7.44988e-10
4.13869e-09
-3.03139e-09
8.16242e-10
5.95965e-09
-3.278e-09
9.06753e-10
7.70736e-09
-3.31766e-09
1.06956e-09
9.17661e-09
-3.20224e-09
1.32644e-09
1.01898e-08
-2.97266e-09
1.6772e-09
1.06084e-08
-2.66324e-09
2.10656e-09
1.0344e-08
-2.30491e-09
2.58265e-09
9.35507e-09
-1.92789e-09
3.08638e-09
7.69639e-09
-1.59774e-09
3.55359e-09
5.4919e-09
-1.30739e-09
3.92494e-09
2.88131e-09
-1.09734e-09
4.20495e-09
5.10836e-11
-9.87502e-10
4.35911e-09
-2.79002e-09
-9.88204e-10
4.37307e-09
-5.4074e-09
-1.10253e-09
4.21734e-09
-7.61348e-09
-1.31631e-09
3.93504e-09
-9.25789e-09
-1.60731e-09
3.55055e-09
-1.0249e-08
-1.9438e-09
3.10082e-09
-1.05285e-08
-2.31566e-09
2.60949e-09
-1.01232e-08
-2.67139e-09
2.12514e-09
-9.12653e-09
-2.97775e-09
1.69636e-09
-7.67506e-09
-3.20633e-09
1.34608e-09
-5.94194e-09
-3.32276e-09
1.08746e-09
-4.13399e-09
-3.28476e-09
9.23768e-10
-2.46515e-09
-3.04257e-09
8.3145e-10
-1.13463e-09
-2.53196e-09
7.55791e-10
-2.94066e-10
-1.68577e-09
6.06247e-10
-5.62683e-10
2.93011e-10
6.16368e-10
-1.79515e-09
6.22267e-10
1.95973e-09
-4.34894e-09
1.3317e-09
3.84436e-09
-6.17519e-09
1.77327e-09
6.08498e-09
-7.36737e-09
2.09538e-09
8.44961e-09
-8.05279e-09
2.41016e-09
1.06828e-08
-8.33699e-09
2.78611e-09
1.2535e-08
-8.31088e-09
3.25643e-09
1.37851e-08
-8.04951e-09
3.82681e-09
1.42603e-08
-7.62111e-09
4.48262e-09
1.38505e-08
-7.08305e-09
5.18805e-09
1.25013e-08
-6.49756e-09
5.91881e-09
1.02701e-08
-5.94404e-09
6.57755e-09
7.31825e-09
-5.45869e-09
7.10312e-09
3.83625e-09
-5.10437e-09
7.48902e-09
6.56288e-11
-4.92174e-09
7.70485e-09
-3.72285e-09
-4.9305e-09
7.73077e-09
-7.21526e-09
-5.11658e-09
7.50646e-09
-1.01669e-08
-5.47293e-09
7.10825e-09
-1.23844e-08
-5.95476e-09
6.56496e-09
-1.37502e-08
-6.51311e-09
5.93515e-09
-1.4182e-08
-7.09726e-09
5.21335e-09
-1.37226e-08
-7.63129e-09
4.50054e-09
-1.24894e-08
-8.05745e-09
3.84648e-09
-1.06548e-08
-8.31685e-09
3.27598e-09
-8.43786e-09
-8.34438e-09
2.80467e-09
-6.08426e-09
-8.065e-09
2.42665e-09
-3.85083e-09
-7.38448e-09
2.10848e-09
-1.96741e-09
-6.19591e-09
1.78054e-09
-6.20047e-10
-4.36505e-09
1.33192e-09
-1.80381e-09
6.21084e-10
8.84254e-10
-3.57442e-09
8.95022e-10
2.65318e-09
-8.04904e-09
1.93118e-09
4.98649e-09
-1.11206e-08
2.61215e-09
7.6564e-09
-1.31743e-08
3.13706e-09
1.04077e-08
-1.44442e-08
3.64013e-09
1.29655e-08
-1.50917e-08
4.19697e-09
1.50596e-08
-1.52512e-08
4.8462e-09
1.64483e-08
-1.50338e-08
5.59562e-09
1.69354e-08
-1.45405e-08
6.43234e-09
1.63938e-08
-1.38641e-08
7.32269e-09
1.47599e-08
-1.3098e-08
8.23425e-09
1.21109e-08
-1.23338e-08
9.03881e-09
8.62266e-09
-1.16683e-08
9.69786e-09
4.51675e-09
-1.11555e-08
1.01571e-08
7.4104e-11
-1.08943e-08
1.04152e-08
-4.39223e-09
-1.09128e-08
1.04487e-08
-8.51187e-09
-1.11687e-08
1.01718e-08
-1.20018e-08
-1.1668e-08
9.68502e-09
-1.46383e-08
-1.2337e-08
9.01886e-09
-1.62856e-08
-1.31042e-08
8.2384e-09
-1.68471e-08
-1.38705e-08
7.33477e-09
-1.63778e-08
-1.45453e-08
6.44469e-09
-1.50086e-08
-1.50379e-08
5.61123e-09
-1.29322e-08
-1.52548e-08
4.86153e-09
-1.03916e-08
-1.5098e-08
4.21307e-09
-7.65496e-09
-1.44564e-08
3.65477e-09
-4.99197e-09
-1.31944e-08
3.14689e-09
-2.66076e-09
-1.11401e-08
2.61294e-09
-8.9081e-10
-8.05557e-09
1.92057e-09
-3.58635e-09
8.91729e-10
1.08634e-09
-5.75715e-09
1.09639e-09
3.18377e-09
-1.2516e-08
2.36947e-09
5.86864e-09
-1.70347e-08
3.22923e-09
8.8699e-09
-2.00797e-08
3.90408e-09
1.19111e-08
-2.20338e-08
4.54844e-09
1.47037e-08
-2.31315e-08
5.24717e-09
1.69666e-08
-2.35551e-08
6.04092e-09
1.8445e-08
-2.34529e-08
6.94075e-09
1.89339e-08
-2.29591e-08
7.92979e-09
1.8293e-08
-2.21992e-08
8.97592e-09
1.64548e-08
-2.13021e-08
1.00424e-08
1.34989e-08
-2.03804e-08
1.10024e-08
9.60314e-09
-1.95528e-08
1.17803e-08
5.02727e-09
-1.88808e-08
1.23011e-08
7.9721e-11
-1.8541e-08
1.25942e-08
-4.89559e-09
-1.85662e-08
1.26287e-08
-9.48106e-09
-1.88973e-08
1.23141e-08
-1.33712e-08
-1.95291e-08
1.17512e-08
-1.63248e-08
-2.03742e-08
1.09908e-08
-1.81783e-08
-2.13015e-08
1.00507e-08
-1.88394e-08
-2.21996e-08
8.99018e-09
-1.83701e-08
-2.29596e-08
7.94498e-09
-1.69103e-08
-2.34544e-08
6.95665e-09
-1.46644e-08
-2.35574e-08
6.05671e-09
-1.18884e-08
-2.31361e-08
5.26219e-09
-8.86279e-09
-2.20431e-08
4.56109e-09
-5.87214e-09
-2.0096e-08
3.91096e-09
-3.18926e-09
-1.70488e-08
3.2259e-09
-1.09202e-09
-1.25068e-08
2.35397e-09
-5.77184e-09
1.09347e-09
1.22212e-09
-8.21326e-09
1.234e-09
3.5528e-09
-1.75087e-08
2.66209e-09
6.4932e-09
-2.362e-08
3.64488e-09
9.73483e-09
-2.77482e-08
4.42685e-09
1.29849e-08
-3.0458e-08
5.17414e-09
1.59462e-08
-3.20746e-08
5.98183e-09
1.83312e-08
-3.2833e-08
6.89286e-09
1.9878e-08
-3.29204e-08
7.92072e-09
2.03739e-08
-3.25017e-08
9.04665e-09
1.96737e-08
-3.17316e-08
1.02326e-08
1.77064e-08
-3.0768e-08
1.14332e-08
1.45263e-08
-2.97656e-08
1.25653e-08
1.03293e-08
-2.88218e-08
1.3466e-08
5.40427e-09
-2.8002e-08
1.40462e-08
7.96864e-11
-2.75739e-08
1.43575e-08
-5.27507e-09
-2.76013e-08
1.43898e-08
-1.01997e-08
-2.80398e-08
1.40672e-08
-1.43825e-08
-2.87755e-08
1.34293e-08
-1.75665e-08
-2.97513e-08
1.2561e-08
-1.95523e-08
-3.07637e-08
1.14481e-08
-2.02752e-08
-3.1728e-08
1.02513e-08
-1.98003e-08
-3.24998e-08
9.06536e-09
-1.82725e-08
-3.2921e-08
7.93884e-09
-1.59047e-08
-3.2835e-08
6.9098e-09
-1.29584e-08
-3.20785e-08
5.99611e-09
-9.72255e-09
-3.04647e-08
5.18579e-09
-6.49259e-09
-2.77577e-08
4.43177e-09
-3.55853e-09
-2.36211e-08
3.63827e-09
-1.22842e-09
-1.74828e-08
2.64593e-09
-8.23269e-09
1.23242e-09
1.29046e-09
-1.08223e-08
1.31858e-09
3.76463e-09
-2.28348e-08
2.85195e-09
6.86611e-09
-3.06209e-08
3.89939e-09
1.02567e-08
-3.58793e-08
4.74053e-09
1.3635e-08
-3.93939e-08
5.55752e-09
1.67007e-08
-4.15866e-08
6.44638e-09
1.9165e-08
-4.27494e-08
7.45202e-09
2.07612e-08
-4.31072e-08
8.59062e-09
2.12732e-08
-4.28539e-08
9.84027e-09
2.05479e-08
-4.21656e-08
1.11593e-08
1.85124e-08
-4.12274e-08
1.2495e-08
1.51851e-08
-4.02197e-08
1.37815e-08
1.08026e-08
-3.92509e-08
1.48116e-08
5.65112e-09
-3.82969e-08
1.54464e-08
8.67833e-11
-3.77882e-08
1.57786e-08
-5.50294e-09
-3.783e-08
1.58184e-08
-1.06712e-08
-3.8368e-08
1.54964e-08
-1.50378e-08
-3.9195e-08
1.47861e-08
-1.83685e-08
-4.02057e-08
1.37852e-08
-2.04239e-08
-4.12266e-08
1.25182e-08
-2.11718e-08
-4.21654e-08
1.11853e-08
-2.06817e-08
-4.28543e-08
9.8643e-09
-1.91047e-08
-4.31099e-08
8.61195e-09
-1.66578e-08
-4.2754e-08
7.47218e-09
-1.36062e-08
-4.15918e-08
6.46174e-09
-1.02415e-08
-3.93984e-08
5.569e-09
-6.86345e-09
-3.58788e-08
4.74303e-09
-3.77413e-09
-3.05949e-08
3.88447e-09
-1.30613e-09
-2.27722e-08
2.82135e-09
-1.08538e-08
1.31503e-09
1.31604e-09
-1.34849e-08
1.34653e-09
3.832e-09
-2.82753e-08
2.92453e-09
6.98668e-09
-3.77784e-08
4.0028e-09
1.04282e-08
-4.41899e-08
4.8691e-09
1.3845e-08
-4.85308e-08
5.72016e-09
1.69413e-08
-5.13465e-08
6.66345e-09
1.94334e-08
-5.29826e-08
7.74119e-09
2.10559e-08
-5.36986e-08
8.96902e-09
2.15882e-08
-5.37118e-08
1.03256e-08
2.08744e-08
-5.32173e-08
1.17655e-08
1.88286e-08
-5.24111e-08
1.32295e-08
1.54505e-08
-5.14982e-08
1.46565e-08
1.09853e-08
-5.06176e-08
1.58319e-08
5.73841e-09
-4.95534e-08
1.65033e-08
8.62911e-11
-4.90094e-08
1.68733e-08
-5.59917e-09
-4.90606e-08
1.6916e-08
-1.08833e-08
-4.96264e-08
1.65425e-08
-1.53133e-08
-5.05581e-08
1.57932e-08
-1.86863e-08
-5.14873e-08
1.46546e-08
-2.07504e-08
-5.24145e-08
1.3252e-08
-2.14876e-08
-5.322e-08
1.17918e-08
-2.09768e-08
-5.37155e-08
1.03504e-08
-1.93728e-08
-5.37058e-08
8.9918e-09
-1.68972e-08
-5.29924e-08
7.76284e-09
-1.38144e-08
-5.13557e-08
6.68114e-09
-1.04116e-08
-4.85332e-08
5.73198e-09
-6.98768e-09
-4.41659e-08
4.86317e-09
-3.84736e-09
-3.77071e-08
3.97187e-09
-1.33031e-09
-2.81732e-08
2.884e-09
-1.35296e-08
1.34545e-09
1.2932e-09
-1.61002e-08
1.32212e-09
3.74923e-09
-3.36166e-08
2.88522e-09
6.83944e-09
-4.48422e-08
3.97359e-09
1.02213e-08
-5.24129e-08
4.8411e-09
1.35809e-08
-5.75747e-08
5.68428e-09
1.66216e-08
-6.10243e-08
6.63716e-09
1.90755e-08
-6.31878e-08
7.75128e-09
2.06874e-08
-6.43447e-08
9.0342e-09
2.1237e-08
-6.47239e-08
1.04625e-08
2.05651e-08
-6.45349e-08
1.19896e-08
1.85903e-08
-6.39779e-08
1.35416e-08
1.52976e-08
-6.32506e-08
1.50451e-08
1.08585e-08
-6.25188e-08
1.63403e-08
5.66474e-09
-6.14216e-08
1.7062e-08
8.17e-11
-6.09242e-08
1.74977e-08
-5.5417e-09
-6.09693e-08
1.75322e-08
-1.0787e-08
-6.1449e-08
1.7068e-08
-1.51852e-08
-6.2428e-08
1.62681e-08
-1.84549e-08
-6.324e-08
1.50225e-08
-2.04441e-08
-6.39846e-08
1.35593e-08
-2.11374e-08
-6.45428e-08
1.20161e-08
-2.06087e-08
-6.47324e-08
1.04882e-08
-1.90153e-08
-6.43569e-08
9.05775e-09
-1.65771e-08
-6.32039e-08
7.77337e-09
-1.35515e-08
-6.10336e-08
6.65222e-09
-1.02155e-08
-5.75463e-08
5.67713e-09
-6.85745e-09
-5.23203e-08
4.79636e-09
-3.77557e-09
-4.46962e-08
3.90723e-09
-1.30201e-09
-3.34855e-08
2.83871e-09
-1.61544e-08
1.32282e-09
1.22684e-09
-1.85667e-08
1.23971e-09
3.54504e-09
-3.86436e-08
2.70884e-09
6.43214e-09
-5.14978e-08
3.76854e-09
9.61428e-09
-6.02267e-08
4.63169e-09
1.28016e-08
-6.62129e-08
5.45088e-09
1.56888e-08
-7.02728e-08
6.36128e-09
1.80244e-08
-7.29817e-08
7.45832e-09
1.95732e-08
-7.46383e-08
8.74473e-09
2.01286e-08
-7.5469e-08
1.01897e-08
1.95279e-08
-7.56805e-08
1.17463e-08
1.76936e-08
-7.54718e-08
1.33283e-08
1.46107e-08
-7.50215e-08
1.48537e-08
1.03384e-08
-7.44581e-08
1.62117e-08
5.39007e-09
-7.34688e-08
1.69954e-08
7.56942e-11
-7.30669e-08
1.74571e-08
-5.26973e-09
-7.31095e-08
1.74856e-08
-1.0252e-08
-7.34421e-08
1.69754e-08
-1.45009e-08
-7.42758e-08
1.60967e-08
-1.75673e-08
-7.49962e-08
1.48225e-08
-1.94111e-08
-7.54838e-08
1.3343e-08
-2.00325e-08
-7.56932e-08
1.17717e-08
-1.94983e-08
-7.54814e-08
1.02148e-08
-1.79658e-08
-7.46569e-08
8.76754e-09
-1.5643e-08
-7.3004e-08
7.47732e-09
-1.27789e-08
-7.02577e-08
6.35998e-09
-9.627e-09
-6.60957e-08
5.39746e-09
-6.45381e-09
-6.00312e-08
4.53771e-09
-3.54816e-09
-5.12851e-08
3.68321e-09
-1.22249e-09
-3.84817e-08
2.67056e-09
-1.86229e-08
1.24597e-09
1.10704e-09
-2.0774e-08
1.10023e-09
3.2061e-09
-4.31154e-08
2.37271e-09
5.79316e-09
-5.74073e-08
3.32241e-09
8.61983e-09
-6.72201e-08
4.16668e-09
1.14864e-08
-7.40372e-08
4.95783e-09
1.41e-08
-7.8686e-08
5.7996e-09
1.62258e-08
-8.19303e-08
6.82284e-09
1.76523e-08
-8.41145e-08
8.04967e-09
1.81887e-08
-8.54415e-08
9.43618e-09
1.76867e-08
-8.61041e-08
1.09256e-08
1.60895e-08
-8.6278e-08
1.24035e-08
1.33556e-08
-8.60924e-08
1.38048e-08
9.41982e-09
-8.56552e-08
1.51329e-08
4.9019e-09
-8.50058e-08
1.60549e-08
6.84113e-11
-8.47701e-08
1.65367e-08
-4.78404e-09
-8.48129e-08
1.65559e-08
-9.27815e-09
-8.49842e-08
1.60362e-08
-1.3142e-08
-8.55647e-08
1.51528e-08
-1.59141e-08
-8.62007e-08
1.39766e-08
-1.75667e-08
-8.63263e-08
1.24951e-08
-1.80948e-08
-8.61233e-08
1.09582e-08
-1.75814e-08
-8.54505e-08
9.45569e-09
-1.61684e-08
-8.41354e-08
8.06557e-09
-1.40505e-08
-8.19535e-08
6.83167e-09
-1.14615e-08
-7.8617e-08
5.77028e-09
-8.61952e-09
-7.37971e-08
4.85945e-09
-5.75641e-09
-6.69438e-08
4.04943e-09
-3.14915e-09
-5.71598e-08
3.26743e-09
-1.07459e-09
-4.29199e-08
2.36361e-09
-2.08054e-08
1.10793e-09
9.32687e-10
-2.26147e-08
9.07952e-10
2.72094e-09
-4.68106e-08
1.90697e-09
4.90668e-09
-6.22167e-08
2.62371e-09
7.27715e-09
-7.29342e-08
3.34366e-09
9.63826e-09
-8.05028e-08
4.10448e-09
1.18311e-08
-8.57672e-08
4.88836e-09
1.36436e-08
-8.95336e-08
5.79074e-09
1.48895e-08
-9.22444e-08
6.88398e-09
1.53958e-08
-9.4072e-08
8.12425e-09
1.5027e-08
-9.5152e-08
9.41672e-09
1.36933e-08
-9.56273e-08
1.0683e-08
1.13112e-08
-9.57351e-08
1.20249e-08
7.98889e-09
-9.56238e-08
1.32908e-08
4.16968e-09
-9.53303e-08
1.41436e-08
5.68092e-11
-9.52343e-08
1.4577e-08
-4.08548e-09
-9.52094e-08
1.45388e-08
-7.91129e-09
-9.51786e-08
1.40204e-08
-1.11857e-08
-9.5488e-08
1.31978e-08
-1.35244e-08
-9.60052e-08
1.21433e-08
-1.48879e-08
-9.57224e-08
1.07595e-08
-1.52908e-08
-9.51359e-08
9.41555e-09
-1.48178e-08
-9.40344e-08
8.11084e-09
-1.35876e-08
-9.22464e-08
6.88082e-09
-1.17638e-08
-8.95562e-08
5.77885e-09
-9.57154e-09
-8.56538e-08
4.84466e-09
-7.19305e-09
-8.02433e-08
4.06768e-09
-4.82946e-09
-7.27182e-08
3.41088e-09
-2.65942e-09
-6.21034e-08
2.77357e-09
-9.17346e-10
-4.6672e-08
2.01004e-09
-2.26608e-08
9.38091e-10
7.15458e-10
-2.40145e-08
6.84345e-10
2.06089e-09
-4.96141e-08
1.45806e-09
3.74807e-09
-6.5873e-08
1.96909e-09
5.55505e-09
-7.71511e-08
2.40995e-09
7.30654e-09
-8.52105e-08
2.95622e-09
8.93674e-09
-9.1015e-08
3.61762e-09
1.03116e-08
-9.5272e-08
4.36354e-09
1.13058e-08
-9.84496e-08
5.2109e-09
1.17913e-08
-1.00718e-07
6.16047e-09
1.15316e-08
-1.02082e-07
7.1893e-09
1.0389e-08
-1.02818e-07
8.33287e-09
8.47441e-09
-1.03328e-07
9.50751e-09
6.06738e-09
-1.03715e-07
1.04978e-08
3.20431e-09
-1.03645e-07
1.11781e-08
4.94622e-11
-1.03584e-07
1.15044e-08
-3.15796e-09
-1.0343e-07
1.14283e-08
-6.07979e-09
-1.03265e-07
1.10086e-08
-8.53936e-09
-1.0333e-07
1.03016e-08
-1.03958e-08
-1.03451e-07
9.30193e-09
-1.14252e-08
-1.02769e-07
8.07623e-09
-1.16756e-08
-1.01904e-07
7.01832e-09
-1.1276e-08
-1.00474e-07
6.03953e-09
-1.03349e-08
-9.83278e-08
5.14033e-09
-8.9671e-09
-9.53072e-08
4.3832e-09
-7.30073e-09
-9.10507e-08
3.73048e-09
-5.49019e-09
-8.51907e-08
3.13684e-09
-3.68578e-09
-7.71343e-08
2.61166e-09
-2.02902e-09
-6.5867e-08
2.10685e-09
-7.00876e-10
-4.95226e-08
1.52249e-09
-2.40709e-08
7.09252e-10
4.83208e-10
-2.49138e-08
4.16074e-10
1.30317e-09
-5.13088e-08
8.74713e-10
2.35573e-09
-6.81908e-08
1.26526e-09
3.49813e-09
-7.98733e-08
1.57973e-09
4.61893e-09
-8.82729e-08
1.94159e-09
5.66784e-09
-9.4422e-08
2.3581e-09
6.5486e-09
-9.89534e-08
2.80061e-09
7.14647e-09
-1.02292e-07
3.24432e-09
7.46864e-09
-1.04768e-07
3.72754e-09
7.28004e-09
-1.06332e-07
4.43875e-09
6.53055e-09
-1.07382e-07
5.31358e-09
5.3711e-09
-1.08286e-07
6.11794e-09
3.85455e-09
-1.08945e-07
6.74686e-09
2.04266e-09
-1.09017e-07
7.18362e-09
5.98091e-11
-1.09027e-07
7.42599e-09
-1.95314e-09
-1.08822e-07
7.40474e-09
-3.79847e-09
-1.08578e-07
7.1585e-09
-5.32139e-09
-1.08516e-07
6.70926e-09
-6.51106e-09
-1.08358e-07
6.09655e-09
-7.24265e-09
-1.07326e-07
5.2881e-09
-7.51517e-09
-1.06066e-07
4.43454e-09
-7.30213e-09
-1.04326e-07
3.63921e-09
-6.65705e-09
-1.02002e-07
3.02889e-09
-5.70408e-09
-9.88712e-08
2.61106e-09
-4.60417e-09
-9.44306e-08
2.28e-09
-3.44881e-09
-8.83032e-08
1.9572e-09
-2.30886e-09
-7.99112e-08
1.63691e-09
-1.26724e-09
-6.82283e-08
1.31962e-09
-4.38145e-10
-5.13032e-08
9.51489e-10
-2.4952e-08
4.42919e-10
1.76402e-10
-2.52314e-08
1.41218e-10
4.52506e-10
-5.18873e-08
3.02377e-10
8.22651e-10
-6.90125e-08
4.51508e-10
1.22918e-09
-8.08437e-08
5.63937e-10
1.63972e-09
-8.93599e-08
6.76479e-10
2.05569e-09
-9.56083e-08
7.70264e-10
2.44253e-09
-1.00192e-07
8.5202e-10
2.67339e-09
-1.03507e-07
9.84735e-10
2.70571e-09
-1.05992e-07
1.19257e-09
2.55974e-09
-1.07675e-07
1.48897e-09
2.32778e-09
-1.08949e-07
1.79951e-09
1.9877e-09
-1.10009e-07
2.06219e-09
1.34786e-09
-1.10545e-07
2.24023e-09
6.69158e-10
-1.10705e-07
2.36652e-09
3.45344e-11
-1.10886e-07
2.49335e-09
-6.71784e-10
-1.10717e-07
2.601e-09
-1.33262e-09
-1.10513e-07
2.59586e-09
-1.85495e-09
-1.10419e-07
2.4254e-09
-2.26637e-09
-1.10146e-07
2.19941e-09
-2.5208e-09
-1.08994e-07
1.92233e-09
-2.62422e-09
-1.07592e-07
1.6296e-09
-2.5596e-09
-1.05737e-07
1.34686e-09
-2.33507e-09
-1.03342e-07
1.11612e-09
-1.99816e-09
-1.00149e-07
9.40703e-10
-1.60659e-09
-9.56171e-08
7.9494e-10
-1.19704e-09
-8.93767e-08
6.63971e-10
-7.94723e-10
-8.08626e-08
5.49159e-10
-4.31202e-10
-6.90337e-08
4.41894e-10
-1.4823e-10
-5.19017e-08
3.15463e-10
-2.52522e-08
1.51924e-10
-1.24712e-10
-2.49695e-08
-1.37169e-10
-3.87638e-10
-5.13475e-08
-2.76814e-10
-7.11088e-10
-6.83116e-08
-3.77471e-10
-1.06505e-09
-8.00196e-08
-4.7018e-10
-1.4301e-09
-8.84385e-08
-5.56405e-10
-1.79699e-09
-9.46234e-08
-6.17932e-10
-2.13943e-09
-9.91855e-08
-6.64232e-10
-2.35696e-09
-1.02535e-07
-7.55142e-10
-2.36175e-09
-1.05022e-07
-9.65988e-10
-2.20328e-09
-1.06552e-07
-1.28148e-09
-1.99767e-09
-1.07573e-07
-1.58152e-09
-1.81939e-09
-1.08404e-07
-1.78261e-09
-1.53708e-09
-1.08914e-07
-1.91312e-09
-9.48743e-10
-1.09244e-07
-2.04947e-09
-9.13187e-11
-1.09486e-07
-2.2569e-09
6.13184e-10
-1.09084e-07
-2.33713e-09
1.21974e-09
-1.08877e-07
-2.24295e-09
1.76493e-09
-1.0887e-07
-2.09491e-09
2.06542e-09
-1.08542e-07
-1.90439e-09
2.25837e-09
-1.07506e-07
-1.68054e-09
2.35424e-09
-1.06257e-07
-1.4307e-09
2.30218e-09
-1.04511e-07
-1.17452e-09
2.12196e-09
-1.02189e-07
-9.73672e-10
1.81943e-09
-9.90175e-08
-8.28769e-10
1.46873e-09
-9.45487e-08
-7.17636e-10
1.10491e-09
-8.84006e-08
-6.12329e-10
7.4156e-10
-7.99919e-08
-5.07365e-10
4.12234e-10
-6.83023e-08
-4.02044e-10
1.48536e-10
-5.13587e-08
-2.79247e-10
-2.49736e-08
-1.30013e-10
-4.22691e-10
-2.41201e-08
-4.26735e-10
-1.22827e-09
-4.96288e-08
-9.13106e-10
-2.2339e-09
-6.60379e-08
-1.26805e-09
-3.33521e-09
-7.73436e-08
-1.57477e-09
-4.44177e-09
-8.54371e-08
-1.89485e-09
-5.46747e-09
-9.13451e-08
-2.25254e-09
-6.3196e-09
-9.56801e-08
-2.6532e-09
-6.92293e-09
-9.88265e-08
-3.10473e-09
-7.20191e-09
-1.01131e-07
-3.61171e-09
-6.98664e-09
-1.02499e-07
-4.26812e-09
-6.26906e-09
-1.03201e-07
-5.08935e-09
-5.23543e-09
-1.03609e-07
-5.82903e-09
-3.82931e-09
-1.03923e-07
-6.39757e-09
-2.06102e-09
-1.04168e-07
-6.844e-09
-3.76819e-11
-1.04376e-07
-7.13361e-09
1.91687e-09
-1.03932e-07
-7.10676e-09
3.75467e-09
-1.03854e-07
-6.86134e-09
5.3628e-09
-1.04059e-07
-6.41827e-09
6.32783e-09
-1.037e-07
-5.8068e-09
6.95511e-09
-1.03023e-07
-5.11004e-09
7.23303e-09
-1.02226e-07
-4.30885e-09
7.02534e-09
-1.0083e-07
-3.47262e-09
6.42454e-09
-9.86658e-08
-2.92201e-09
5.50544e-09
-9.5543e-08
-2.55549e-09
4.44984e-09
-9.1267e-08
-2.22612e-09
3.35669e-09
-8.54107e-08
-1.89673e-09
2.25966e-09
-7.73325e-08
-1.56233e-09
1.26313e-09
-6.60705e-08
-1.23527e-09
4.58834e-10
-4.96953e-08
-8.59137e-10
-2.41052e-08
-4.09621e-10
-6.91465e-10
-2.27354e-08
-6.93222e-10
-1.99363e-09
-4.68375e-08
-1.48922e-09
-3.62002e-09
-6.23439e-08
-2.06767e-09
-5.3927e-09
-7.30038e-08
-2.56714e-09
-7.16509e-09
-8.05762e-08
-3.08843e-09
-8.78366e-09
-8.60344e-08
-3.69206e-09
-1.01032e-08
-8.99728e-08
-4.38762e-09
-1.10373e-08
-9.26993e-08
-5.19297e-09
-1.15041e-08
-9.45631e-08
-6.10094e-09
-1.12738e-08
-9.56809e-08
-7.04806e-09
-1.01819e-08
-9.61563e-08
-8.1372e-09
-8.36924e-09
-9.61573e-08
-9.26419e-09
-5.99755e-09
-9.6077e-08
-1.02177e-08
-3.17072e-09
-9.60827e-08
-1.09123e-08
-4.16116e-11
-9.62186e-08
-1.12868e-08
3.07177e-09
-9.58436e-08
-1.12019e-08
5.97166e-09
-9.59091e-08
-1.08445e-08
8.48278e-09
-9.64011e-08
-1.01695e-08
1.01906e-08
-9.6217e-08
-9.19057e-09
1.12231e-08
-9.59439e-08
-8.11162e-09
1.15358e-08
-9.5513e-08
-7.02594e-09
1.11405e-08
-9.4498e-08
-5.9371e-09
1.01633e-08
-9.26913e-08
-4.99732e-09
8.77778e-09
-8.9942e-08
-4.21545e-09
7.13694e-09
-8.608e-08
-3.54616e-09
5.39836e-09
-8.07223e-08
-2.9498e-09
3.66093e-09
-7.31676e-08
-2.42753e-09
2.05581e-09
-6.25357e-08
-1.92962e-09
7.34374e-10
-4.7017e-08
-1.35682e-09
-2.27162e-08
-6.54651e-10
-9.22908e-10
-2.08958e-08
-9.1661e-10
-2.63659e-09
-4.31509e-08
-1.97293e-09
-4.78105e-09
-5.74465e-08
-2.753e-09
-7.12187e-09
-6.72637e-08
-3.39932e-09
-9.47309e-09
-7.41664e-08
-4.05861e-09
-1.16511e-08
-7.90285e-08
-4.82791e-09
-1.34638e-08
-8.2407e-08
-5.75296e-09
-1.46882e-08
-8.46328e-08
-6.84197e-09
-1.51875e-08
-8.60056e-08
-8.05816e-09
-1.48309e-08
-8.672e-08
-9.3175e-09
-1.34952e-08
-8.69229e-08
-1.05692e-08
-1.11064e-08
-8.66968e-08
-1.18494e-08
-7.88874e-09
-8.62347e-08
-1.306e-08
-4.13345e-09
-8.58917e-08
-1.39463e-08
-3.38098e-11
-8.59023e-08
-1.44161e-08
4.05631e-09
-8.56362e-08
-1.42976e-08
7.84902e-09
-8.58485e-08
-1.38534e-08
1.1117e-08
-8.65994e-08
-1.30696e-08
1.34641e-08
-8.67794e-08
-1.17847e-08
1.48153e-08
-8.68781e-08
-1.0417e-08
1.52079e-08
-8.67012e-08
-9.20441e-09
1.47329e-08
-8.60253e-08
-7.99767e-09
1.35079e-08
-8.46676e-08
-6.79866e-09
1.17161e-08
-8.24349e-08
-5.71529e-09
9.54425e-09
-7.91032e-08
-4.80498e-09
7.20825e-09
-7.43723e-08
-4.01401e-09
4.89444e-09
-6.76168e-08
-3.23695e-09
2.73691e-09
-5.78739e-08
-2.50429e-09
9.66975e-10
-4.34795e-08
-1.76764e-09
-2.08831e-08
-8.66063e-10
-1.10265e-09
-1.87016e-08
-1.09165e-09
-3.14091e-09
-3.87749e-08
-2.33771e-09
-5.71927e-09
-5.16004e-08
-3.26774e-09
-8.56436e-09
-6.03699e-08
-4.04873e-09
-1.14033e-08
-6.64834e-08
-4.8441e-09
-1.39929e-08
-7.06958e-08
-5.74298e-09
-1.61117e-08
-7.34894e-08
-6.79876e-09
-1.75285e-08
-7.51932e-08
-8.02281e-09
-1.80574e-08
-7.60721e-08
-9.40458e-09
-1.7558e-08
-7.63343e-08
-1.08851e-08
-1.59604e-08
-7.61637e-08
-1.23567e-08
-1.32177e-08
-7.57234e-08
-1.37161e-08
-9.37289e-09
-7.51107e-08
-1.49689e-08
-4.86576e-09
-7.44298e-08
-1.59692e-08
-2.46845e-11
-7.42026e-08
-1.65408e-08
4.79936e-09
-7.40126e-08
-1.64477e-08
9.29306e-09
-7.43855e-08
-1.59567e-08
1.31338e-08
-7.53259e-08
-1.51142e-08
1.59123e-08
-7.57777e-08
-1.37802e-08
1.75493e-08
-7.6179e-08
-1.23361e-08
1.80662e-08
-7.6352e-08
-1.08661e-08
1.75461e-08
-7.61016e-08
-9.4037e-09
1.61352e-08
-7.52309e-08
-8.02576e-09
1.40285e-08
-7.35301e-08
-6.79819e-09
1.14337e-08
-7.07494e-08
-5.75893e-09
8.57605e-09
-6.66006e-08
-4.91408e-09
5.73554e-09
-6.06145e-08
-4.16179e-09
3.17247e-09
-5.19377e-08
-3.37315e-09
1.11095e-09
-3.90264e-08
-2.39151e-09
-1.86829e-08
-1.08932e-09
-1.22408e-09
-1.62357e-08
-1.24175e-09
-3.54116e-09
-3.37795e-08
-2.67832e-09
-6.4427e-09
-4.50113e-08
-3.68755e-09
-9.61318e-09
-5.26665e-08
-4.53286e-09
-1.27689e-08
-5.79431e-08
-5.3845e-09
-1.56418e-08
-6.1479e-08
-6.34395e-09
-1.79723e-08
-6.36983e-08
-7.46052e-09
-1.95164e-08
-6.4901e-08
-8.74811e-09
-2.00653e-08
-6.53264e-08
-1.01967e-08
-1.94637e-08
-6.51815e-08
-1.17544e-08
-1.76296e-08
-6.46651e-08
-1.33327e-08
-1.45663e-08
-6.39744e-08
-1.48124e-08
-1.03445e-08
-6.3245e-08
-1.60875e-08
-5.33233e-09
-6.24325e-08
-1.70096e-08
-1.634e-11
-6.19567e-08
-1.75619e-08
5.31091e-09
-6.18357e-08
-1.75041e-08
1.03077e-08
-6.23483e-08
-1.7034e-08
1.45084e-08
-6.33105e-08
-1.62161e-08
1.75927e-08
-6.39951e-08
-1.48668e-08
1.94456e-08
-6.46837e-08
-1.33481e-08
2.00622e-08
-6.52027e-08
-1.17658e-08
1.9523e-08
-6.53537e-08
-1.02087e-08
1.79864e-08
-6.49348e-08
-8.75949e-09
1.56629e-08
-6.37385e-08
-7.46807e-09
1.27924e-08
-6.15254e-08
-6.3535e-09
9.61756e-09
-5.80057e-08
-5.42006e-09
6.41457e-09
-5.27844e-08
-4.62709e-09
3.50678e-09
-4.52039e-08
-3.82605e-09
1.21619e-09
-3.39667e-08
-2.76912e-09
-1.62207e-08
-1.246e-09
-1.27967e-09
-1.36211e-08
-1.33499e-09
-3.77012e-09
-2.84103e-08
-2.8788e-09
-6.86917e-09
-3.79927e-08
-3.91958e-09
-1.02366e-08
-4.45004e-08
-4.79874e-09
-1.35852e-08
-4.89155e-08
-5.67909e-09
-1.66249e-08
-5.1783e-08
-6.65631e-09
-1.90796e-08
-5.34627e-08
-7.78087e-09
-2.06913e-08
-5.42196e-08
-9.06972e-09
-2.12385e-08
-5.42722e-08
-1.0507e-08
-2.05605e-08
-5.3818e-08
-1.20413e-08
-1.8578e-08
-5.30475e-08
-1.36e-08
-1.52951e-08
-5.21619e-08
-1.50954e-08
-1.0877e-08
-5.12787e-08
-1.63844e-08
-5.59916e-09
-5.0454e-08
-1.72564e-08
-8.56226e-12
-4.98743e-08
-1.76731e-08
5.59939e-09
-4.98246e-08
-1.76191e-08
1.08549e-08
-5.04016e-08
-1.72022e-08
1.52557e-08
-5.1317e-08
-1.63943e-08
1.85423e-08
-5.21779e-08
-1.51038e-08
2.05375e-08
-5.30628e-08
-1.3616e-08
2.12281e-08
-5.38355e-08
-1.20578e-08
2.0692e-08
-5.42958e-08
-1.05218e-08
1.90894e-08
-5.42489e-08
-9.08332e-09
1.66392e-08
-5.34974e-08
-7.791e-09
1.36022e-08
-5.18231e-08
-6.66525e-09
1.02507e-08
-4.89623e-08
-5.69194e-09
6.86354e-09
-4.45641e-08
-4.83315e-09
3.75576e-09
-3.81093e-08
-3.98681e-09
1.29052e-09
-2.85788e-08
-2.92269e-09
-1.36015e-08
-1.32866e-09
-1.32007e-09
-1.09433e-08
-1.35775e-09
-3.85768e-09
-2.29641e-08
-2.90861e-09
-7.01716e-09
-3.08491e-08
-3.98407e-09
-1.04598e-08
-3.61825e-08
-4.8752e-09
-1.38838e-08
-3.97446e-08
-5.74694e-09
-1.69886e-08
-4.19771e-08
-6.70107e-09
-1.94869e-08
-4.31749e-08
-7.78946e-09
-2.11132e-08
-4.35662e-08
-9.0271e-09
-2.16434e-08
-4.33463e-08
-1.03957e-08
-2.09209e-08
-4.2691e-08
-1.18495e-08
-1.88587e-08
-4.17837e-08
-1.3326e-08
-1.54832e-08
-4.07904e-08
-1.4747e-08
-1.10442e-08
-3.9804e-08
-1.59136e-08
-5.76117e-09
-3.90275e-08
-1.67096e-08
-4.54277e-11
-3.85234e-08
-1.70667e-08
5.64334e-09
-3.84696e-08
-1.70438e-08
1.0905e-08
-3.89641e-08
-1.66991e-08
1.54129e-08
-3.98547e-08
-1.59702e-08
1.88227e-08
-4.08069e-08
-1.47807e-08
2.08948e-08
-4.17906e-08
-1.33443e-08
2.16296e-08
-4.27034e-08
-1.1867e-08
2.1109e-08
-4.33638e-08
-1.04114e-08
1.94908e-08
-4.35899e-08
-9.04074e-09
1.69977e-08
-4.32025e-08
-7.80169e-09
1.38956e-08
-4.20084e-08
-6.71254e-09
1.04718e-08
-3.97807e-08
-5.75773e-09
7.02348e-09
-3.62246e-08
-4.89116e-09
3.84901e-09
-3.09105e-08
-4.02429e-09
1.30739e-09
-2.30682e-08
-2.96892e-09
-1.0933e-08
-1.36111e-09
-1.30844e-09
-8.30744e-09
-1.32742e-09
-3.79331e-09
-1.76393e-08
-2.83999e-09
-6.90504e-09
-2.3835e-08
-3.90244e-09
-1.03091e-08
-2.80141e-08
-4.76433e-09
-1.37019e-08
-3.07564e-08
-5.59534e-09
-1.67824e-08
-3.24013e-08
-6.49532e-09
-1.9257e-08
-3.31867e-08
-7.51363e-09
-2.08601e-08
-3.32997e-08
-8.66342e-09
-2.1372e-08
-3.29044e-08
-9.92993e-09
-2.06349e-08
-3.21589e-08
-1.12692e-08
-1.85751e-08
-3.12179e-08
-1.26255e-08
-1.52556e-08
-3.02136e-08
-1.38962e-08
-1.08882e-08
-2.92627e-08
-1.49087e-08
-5.70775e-09
-2.85546e-08
-1.56534e-08
-5.14103e-11
-2.81613e-08
-1.60185e-08
5.57078e-09
-2.81022e-08
-1.59897e-08
1.07575e-08
-2.85057e-08
-1.56451e-08
1.51829e-08
-2.93066e-08
-1.49735e-08
1.8539e-08
-3.02324e-08
-1.39305e-08
2.06069e-08
-3.12209e-08
-1.26377e-08
2.13527e-08
-3.21656e-08
-1.12836e-08
2.08528e-08
-3.29177e-08
-9.94615e-09
1.92574e-08
-3.3316e-08
-8.67851e-09
1.67876e-08
-3.3207e-08
-7.5257e-09
1.37108e-08
-3.24254e-08
-6.50621e-09
1.03199e-08
-3.07839e-08
-5.60596e-09
6.91308e-09
-2.80428e-08
-4.77499e-09
3.79333e-09
-2.38713e-08
-3.91945e-09
1.29363e-09
-1.76939e-08
-2.87465e-09
-8.30952e-09
-1.32985e-09
-1.23541e-09
-5.82932e-09
-1.24272e-09
-3.58409e-09
-1.26282e-08
-2.66238e-09
-6.54361e-09
-1.72165e-08
-3.65896e-09
-9.80336e-09
-2.02968e-08
-4.45746e-09
-1.30711e-08
-2.22703e-08
-5.21828e-09
-1.60504e-08
-2.33863e-08
-6.03574e-09
-1.84485e-08
-2.38285e-08
-6.96005e-09
-2.00046e-08
-2.37437e-08
-8.00002e-09
-2.05012e-08
-2.32663e-08
-9.14144e-09
-1.97868e-08
-2.2523e-08
-1.03502e-08
-1.77905e-08
-2.16347e-08
-1.15795e-08
-1.46145e-08
-2.07102e-08
-1.26793e-08
-1.04218e-08
-1.98841e-08
-1.35714e-08
-5.45709e-09
-1.92747e-08
-1.42447e-08
-4.47061e-11
-1.89614e-08
-1.46123e-08
5.33797e-09
-1.89135e-08
-1.45714e-08
1.03115e-08
-1.92434e-08
-1.42359e-08
1.45479e-08
-1.99107e-08
-1.36323e-08
1.77555e-08
-2.07255e-08
-1.27145e-08
1.97576e-08
-2.16401e-08
-1.15828e-08
2.04809e-08
-2.25269e-08
-1.0362e-08
1.99944e-08
-2.32741e-08
-9.15718e-09
1.84473e-08
-2.37545e-08
-8.01442e-09
1.60542e-08
-2.38419e-08
-6.97206e-09
1.30783e-08
-2.3403e-08
-6.04653e-09
9.80978e-09
-2.22883e-08
-5.22708e-09
6.54925e-09
-2.03162e-08
-4.46603e-09
3.58812e-09
-1.72415e-08
-3.6687e-09
1.23261e-09
-1.26609e-08
-2.67748e-09
-5.83296e-09
-1.24395e-09
-1.10102e-09
-3.62566e-09
-1.10265e-09
-3.21759e-09
-8.14173e-09
-2.36992e-09
-5.92798e-09
-1.12596e-08
-3.24652e-09
-8.94882e-09
-1.33384e-08
-3.93759e-09
-1.20077e-08
-1.46169e-08
-4.59456e-09
-1.48194e-08
-1.52722e-08
-5.30235e-09
-1.70965e-08
-1.54428e-08
-6.10859e-09
-1.85843e-08
-1.52365e-08
-7.01942e-09
-1.90744e-08
-1.47532e-08
-8.02307e-09
-1.84209e-08
-1.40869e-08
-9.08954e-09
-1.6567e-08
-1.33245e-08
-1.01642e-08
-1.3612e-08
-1.25643e-08
-1.11009e-08
-9.70013e-09
-1.18997e-08
-1.18962e-08
-5.07098e-09
-1.14106e-08
-1.24933e-08
-3.79189e-11
-1.11598e-08
-1.28347e-08
4.97075e-09
-1.11316e-08
-1.27906e-08
9.60041e-09
-1.13924e-08
-1.24807e-08
1.35385e-08
-1.1908e-08
-1.19407e-08
1.65236e-08
-1.25702e-08
-1.11404e-08
1.83917e-08
-1.33284e-08
-1.01797e-08
1.90539e-08
-1.40892e-08
-9.09991e-09
1.85737e-08
-1.47572e-08
-8.03667e-09
1.70936e-08
-1.52424e-08
-7.03213e-09
1.48209e-08
-1.54507e-08
-6.11847e-09
1.20118e-08
-1.52817e-08
-5.3123e-09
8.95315e-09
-1.46277e-08
-4.60187e-09
5.93362e-09
-1.33528e-08
-3.94391e-09
3.2254e-09
-1.12826e-08
-3.2507e-09
1.10359e-09
-8.16636e-09
-2.37274e-09
-3.62816e-09
-1.10121e-09
-9.00024e-10
-1.82687e-09
-8.98792e-10
-2.68905e-09
-4.41879e-09
-1.93394e-09
-5.0482e-09
-6.27132e-09