/*--------------------------------*- C++ -*----------------------------------*\
| =========                 |                                                 |
| \\      /  F ield         | OpenFOAM: The Open Source CFD Toolbox           |
|  \\    /   O peration     | Version:  v1912                                 |
|   \\  /    A nd           | Website:  www.openfoam.com                      |
|    \\/     M anipulation  |                                                 |
\*---------------------------------------------------------------------------*/
FoamFile
{
    version     2.0;
    format      ascii;
    class       volScalarField;
    location    "492/oil";
    object      wallHeatFlux;
}
// * * * * * * * * * * * * * * * * * * * * * * * * * * * * * * * * * * * * * //

dimensions      [1 0 -3 0 0 0 0];


internalField   uniform 0;

boundaryField
{
    maxY
    {
        type            calculated;
        value           uniform 0;
    }
    minX
    {
        type            calculated;
        value           uniform 0;
    }
    maxX
    {
        type            calculated;
        value           uniform 0;
    }
    minY
    {
        type            calculated;
        value           uniform 0;
    }
    minZ
    {
        type            calculated;
        value           uniform 0;
    }
    maxZ
    {
        type            calculated;
        value           uniform 0;
    }
    oil_to_sphere
    {
        type            calculated;
        value           nonuniform List<scalar> 
1536
(
613.1
330.07
322.823
-191.036
-202.598
317.139
88.1004
183.543
149.638
-145.56
-353.865
-106.464
144.73
-96.3157
-419.21
57.7733
317.593
336.479
42.8073
129.804
249.25
154.405
173.965
54.7183
82.1604
68.3901
81.5448
20.1765
299.932
163.053
384.745
332.236
341.768
61.1629
77.6473
22.9161
49.3405
-33.7594
18.1286
80.2398
6.77557
47.7234
139.922
197.425
266.774
76.7048
241.863
168.367
-396.784
66.5747
222.763
153.456
162.984
54.7723
290.797
484.11
171.012
130.382
244.452
218.685
132.617
141.803
126.866
47.1797
74.5414
120.271
129.132
229.027
227.111
289.868
45.796
-204.656
-112.743
69.0644
67.9829
502.909
345.513
-32.2291
58.3965
326.404
253.055
210.855
-188.121
-195.367
298.543
557.989
-261.97
105.193
218.82
217.559
148.661
32.4051
27.5373
40.4406
67.4149
195.132
246.095
265.71
366.254
211.051
254.88
41.8132
617.208
224.938
-125.129
62.3873
85.8443
-171.239
-174.234
624.026
342.719
181.721
139.706
174.313
-228.691
-202.01
-284.675
432.119
586.451
358.115
161.837
174.339
14.9055
242.831
381.803
195.862
160.274
-3.70316
260.253
243.957
121.353
232.479
287.205
89.0847
106.403
304.39
175.965
328.515
1.48519
320.473
152.429
240.593
243.533
143.862
111.411
137.539
200.986
417.359
104.786
629.152
278.771
316.716
171.022
186.48
69.8439
194.841
303.049
234.909
674.74
362.025
342.022
430.222
-73.8138
-29.0359
36.1857
31.7316
287.775
406.209
366.888
483.553
18.549
36.0639
-29.8426
246.443
158.619
185.392
533.599
-63.371
-131.44
558.36
26.3387
-24.59
-35.7466
-8.97792
214.481
558.405
363.924
5.37369
-84.9918
331.736
-66.93
283.01
283.948
409.672
-109.741
-481.261
398.725
437.977
79.8283
66.4218
154.426
91.6999
335.823
395.301
271.375
211.521
37.1964
417.312
368.02
179.409
-3.75707
74.4538
62.9832
93.9872
251.174
492.665
-89.2302
-100.974
-92.1435
-520.168
315.821
248.261
208.782
151.605
163.524
417.36
280.85
67.9668
317.231
-143.746
23.7219
-468.99
143.184
296.619
400.126
370.417
317.721
258.567
357.473
-112.462
-71.6745
-40.921
444.815
-18.6558
-475.274
-273.93
250.863
128.202
537.117
662.522
179.001
-196.515
-512.104
217.719
357.543
41.2043
49.8466
-240.87
30.7712
416.731
568.678
125.805
48.8647
470.367
364.882
72.1681
-120.79
104.798
501.771
434.564
259.204
284.743
388.339
-36.2987
61.1993
403.03
284.262
321.717
139.62
317.456
484.788
268.059
245.001
454.75
42.6245
39.4239
63.325
18.5621
34.7124
413.508
511.056
-115.072
98.2276
83.1031
93.4836
4.67559
163.413
136.337
-24.8896
-237.485
27.5374
-103.335
3.42887
558.925
461.43
455.884
634.331
-53.6708
-33.2018
150.388
630.541
563.602
23.5533
141.431
8.92559
278.873
54.2471
243.272
266.763
345.791
292.822
76.8959
302.315
24.7033
389.829
426.241
327.379
304.093
-16.3825
518.222
504.233
270.17
-116.072
39.5135
88.9398
267.807
240.037
282.555
-25.5899
385.172
387.508
349.108
454.198
231.448
195.706
129.533
-72.5354
196.586
272.905
-74.7846
-94.8238
-44.7668
598.852
378.637
453.956
237.92
190.536
405.721
-87.9694
537.696
345.992
196.931
190.63
-106.513
341.621
372.335
-6.2174
197.728
123.461
49.552
279.354
380.468
139.638
69.8304
-52.1643
493.364
391.956
-97.599
408.245
368.042
315.786
492.802
193.363
294.161
-153.183
-106.891
265.391
624.027
328.15
533.775
233.301
86.6427
364.663
-47.2081
6.77951
239.925
375.326
283.53
241.16
-35.7186
-32.7483
404.07
383.219
392.669
186.167
31.2207
248.548
304.753
372.43
202.684
105.031
-16.784
178.13
-61.0738
-170.496
38.8286
-13.6217
182.882
-142.923
90.2502
516.83
83.7741
80.3098
371.837
368.849
274.374
124.473
-77.4472
325.361
457.918
260.044
205.445
336.947
142.105
172.387
232.836
-191.165
253.527
388.31
450.948
361.237
297.362
286.26
205.564
111.363
-46.7359
159.708
-15.7023
-105.628
10.0962
-171.559
567.513
528.696
428.399
605.429
-59.6883
571.582
-27.5851
27.9546
316.042
-81.0013
-36.4621
93.6686
85.0729
538.368
458.736
233.86
253.494
488.289
405.733
202.689
302.409
0.881059
376.139
-116.01
447.645
-193.645
288.275
323.48
360.774
75.2392
-48.5558
119.216
369.756
132.472
-136.474
373.041
396.039
426.223
648.266
196.615
480.254
-56.1744
-20.6817
-384.853
-272.584
202.052
93.2384
56.3308
10.2611
591.714
-39.4584
-86.4347
-125.58
90.8164
-149.677
670.728
-2.88644
18.1806
161.04
-346.886
-245.765
40.9495
33.5091
140.438
69.0295
394.185
359.815
287.631
199.78
-163.186
54.8116
348.579
-47.2872
-4.98246
326.155
496.977
-1.02723
-388.938
-72.1268
-355.154
155.564
76.1646
19.1172
-118.726
-347.031
279.357
319.491
242.157
149.789
503.789
288.613
269.267
190.89
-18.4383
65.1074
392.828
287.844
101.497
-283.161
210.398
334.346
520.06
219.905
35.2712
523.326
158.804
484.156
-1.68016
77.7314
-38.4556
83.7362
215.769
498.195
-65.5735
17.6496
-19.8739
89.8817
680.207
-120.883
61.0574
-90.4199
160.514
214.344
395.052
505.039
-168.457
-114.28
500.209
533.132
-218.035
480.522
409.508
327.198
398.872
268.467
177.733
193.833
490.524
200.901
274.311
177.146
373.631
220.808
155.975
136.42
-72.0185
326.764
146.279
368.608
295.55
301.255
286.659
202.919
-107.388
400.916
398.416
277.59
152.908
226.921
614.901
-156.336
-6.51064
-61.0174
206.12
-1.01426
618.169
84.1689
112.896
166.685
-379.431
-331.747
49.6346
44.0165
193.658
-38.2816
12.9094
213.466
16.9593
507.661
-78.8254
601.088
74.7479
198.672
-478.628
-342.757
-388.658
19.1963
327.87
59.3113
20.058
-351.092
182.863
340.496
188.367
745.819
-1.49389
393.476
267.049
338.601
417.293
404.802
334.688
161.357
104.522
158.638
338.333
124.527
245.942
215.538
240.07
362.435
288.122
325.138
-78.8106
-14.2219
-489.092
-237.073
-177.612
-654.207
39.6119
69.6788
125.288
154.878
-170.908
-66.9037
100.62
436.104
402.751
95.2346
-129.455
143.532
353.537
271.825
169.969
-150.108
-1.63083
281.721
225.984
164.774
48.66
308.021
311.974
492.732
316.51
207.476
69.438
8.52556
-76.4564
29.2998
126.987
633.605
202.443
557.162
-6.0983
655.606
40.6045
135.173
-57.3371
-30.0591
72.1971
-84.658
119.372
-145.013
53.2951
387.449
89.5936
-100.836
511.168
299.14
251.175
145.558
478.536
786.665
-232.45
291.654
231.822
273.338
-86.4265
150.603
7.23886
236.427
315.502
408.034
-21.5243
279.794
188.354
312.062
294.424
267.498
95.6062
128.983
56.1946
-133.711
-164.278
-42.2983
469.339
54.3031
-88.5308
62.327
395.416
116.349
466.265
357.79
258.526
206.759
252.475
526.824
-41.6507
287.314
409.504
440.37
201.006
5.22707
108.69
253.148
448.437
-61.7637
132.272
192.048
388.54
255.38
247.957
476.663
-56.3402
16.9698
-19.0659
527.916
404.377
196.032
385.935
20.379
52.4885
384.934
245.095
495.162
-28.5951
341.442
374.93
215.431
238.595
325.104
-24.6101
-179.797
174.866
247.094
534.838
139.447
34.2902
158.57
256.434
336.682
207.487
11.0891
141.871
373.219
-60.0346
13.0664
142.624
49.3669
230.682
205.551
434.334
271.242
360.185
60.5601
160.447
230.199
151.596
108.618
68.7141
65.3811
-50.4727
304.313
222.984
223.782
259.655
-114.33
84.9491
517.03
524.203
11.8844
392.01
255.127
302.983
60.5872
443.494
424.894
-34.1914
116.142
80.5253
68.5491
-125.412
-65.5326
80.643
417.515
613.171
35.4443
322.519
303.156
249.678
124.993
232.233
432.056
219.394
-25.7516
86.9965
62.2069
73.1088
273.444
299.447
305.617
319.904
316.996
12.8727
334.686
93.6893
288.304
-347.326
260.615
461.753
107.494
-232.853
167.364
128.26
557.708
-14.4202
335.045
155.902
-184.25
505.796
-101.907
132.817
179.123
-117.816
392.117
235.671
124.448
192.774
233.643
132.907
574.093
-95.3904
75.1832
-422.094
91.456
109.678
188.426
389.639
804.095
-143.03
77.5765
712.15
-100.048
313.464
5.12059
302.302
-257.404
-13.8193
702.644
-202.583
637.04
-156.39
542.608
-181.736
-17.8604
-393.49
-95.9108
663.016
-317.168
149.787
-204.198
475.445
666.861
-302.242
107.376
42.2723
-24.8237
-33.6634
82.8707
182.192
180.752
295.188
159.146
485.162
735.375
-308.698
176.622
261.143
182.021
215.082
144.566
107.353
143.556
351.408
149.959
357.339
71.1489
221.944
461.632
105.681
284.701
397.29
70.1987
221.929
156.687
291.573
134.144
198.824
112.821
383.311
88.7318
248.564
-160.082
496.697
-288.672
243.641
370.715
510.822
-7.75314
209.86
160.193
210.176
187.014
149.212
346.842
-40.5185
-490.09
103.657
-229.526
405.441
-2.75575
174.29
304.667
-454.157
441.214
-53.5486
-363.86
-23.9428
315.694
298.12
185.322
-311.552
180.031
220.862
32.7365
-0.660362
414.163
375.401
55.0932
193.043
415.824
-305.161
344.393
-6.74685
285.129
-278.861
609.545
590.359
375.417
179.539
106.989
305.274
95.7691
-315.64
-60.9833
324.58
5.98668
263.402
-234.757
398.148
282.84
-590.364
181.608
236.029
-435.514
450.07
-166.947
410.112
500.67
340.709
-353.537
196.928
118.678
184.959
202.756
266.476
-300.431
64.9256
13.238
14.4771
389.948
169.776
237.835
298.917
284.555
114.775
206.536
128.283
246.408
422.138
54.7698
102.819
40.2766
198.923
367.798
51.2083
96.0581
74.0447
173.684
11.3481
31.517
93.6531
112.789
201.755
84.5019
495.206
346.521
-211.937
-206.234
451.558
-652.337
331.187
218.874
9.94825
113.279
461.347
-455.346
405.821
238.479
-332.691
77.1046
31.0918
170.609
-481.724
452.003
245.24
-445.659
431.344
434.358
-265.576
513.531
374.158
-258.701
38.0808
12.1558
-449.392
180.46
209.185
-58.9171
-6.54245
-31.3192
-573.58
-12.2381
-476.711
-607.444
385.771
40.3083
664.053
52.9427
-303.577
457.225
126.858
-396.179
53.789
40.8651
-402.28
-205.335
433.794
-734.832
-58.9549
-110.262
-655.283
404.574
356.129
178.478
90.7264
35.8079
-56.5317
-521.136
186.75
95.5139
106.764
179.299
-362.656
316.555
55.794
149.1
32.5032
140.377
200.187
-73.0894
-339.779
81.6898
207.751
50.5781
89.6622
156.71
-7.60464
101.109
-375.426
54.6114
234.888
36.4657
115.321
-0.0483217
-331.576
459.256
448.852
429.021
512.063
-268.355
-431.583
58.9655
328.63
208.035
310.681
350.647
-58.0538
-112.346
-424.952
-304.055
-8.69263
152.702
136.537
125.011
-111.812
389.907
241.221
-253.279
-18.4997
-68.9966
345.334
-2.17086
-524.202
147.763
167.486
403.225
-384.493
34.6631
200.577
70.5722
114.378
301.017
146.234
-50.8211
540.377
-612.354
-157.541
118.277
-5.28646
83.7108
509.068
249.949
168.916
-144.312
464.338
64.5381
199.363
350.087
403.113
382.548
401.342
489.556
547.647
479.718
480.646
170.112
362.264
54.0523
113.13
-120.397
-186.205
-565.642
519.929
503.195
427.83
101.804
201.701
184.512
3.17654
215.453
358.499
-42.5486
127.735
288.768
36.3324
59.8531
47.0815
98.231
-9.12238
90.1731
68.457
-277.279
198.236
-38.6633
125.821
-401.822
516.727
137.251
20.6939
-18.9281
-247.839
165.46
27.7467
-445.317
-153.651
131.228
-196.457
-130.898
559.76
588
70.6915
73.2108
322.428
505.324
-451.786
-2.83361
-9.60682
85.3513
83.33
105.085
143.547
-117.778
-322.595
449.099
77.1385
-169.579
-122.699
70.938
173.602
-243.297
107.903
1.0953
53.9731
510.024
-161.927
-313.765
82.4353
34.6294
-10.457
-315.976
404.464
66.4129
56.1031
68.6966
-441.715
69.4648
82.6784
-303.694
62.8347
-154.985
242.854
443.144
1.69216
362.527
231.837
11.7111
21.3076
91.1871
-315.522
224.899
260.671
43.9757
-385.356
-75.4457
118.608
137.086
6.33651
-343.081
16.6506
404.14
231.438
21.7988
551.925
-159.718
345.235
-431.248
-174.301
366.74
-441.931
386.108
16.5199
172.41
54.794
578.998
-100.262
178.943
511.498
461.538
-216.98
444.17
510.506
-638.279
106.244
32.7028
-415.722
256.372
26.9693
56.8643
57.7752
147.541
107.473
44.5094
21.8486
-432.052
256.596
171.176
157.087
198.278
101.808
10.6507
-71.8572
314.026
-509.636
-16.3209
-33.1237
-487.134
372.894
536.14
128.519
426.99
462.129
0.502887
3.48062
254.178
424.2
-9.60457
286.12
-124.229
-415.494
322.271
-39.1818
403.41
549.26
502.175
-384.649
351.792
178.124
-52.8966
41.737
84.2247
29.4199
-374.132
418.658
-356.195
409.124
97.8767
-124.218
-175.608
99.8538
297.133
480.988
162.714
632.945
329.258
389.185
-455.351
359.56
309.129
404.264
-1.50909
-46.1186
-513.781
133.341
611.411
428.645
-328.528
-105.646
-363.555
-1.79731
144.512
-130.675
758.86
57.8953
-103.723
-315.221
227.755
-40.6324
-473.876
112.291
23.5598
32.6928
41.4825
45.4607
-310.157
-124.597
-412.171
25.6093
325.746
244.938
443.519
403.127
-15.7489
-70.4807
-435.472
15.0204
296.641
471.566
328.132
346.578
-167.564
-493.342
-95.5597
-532.578
320.24
340.812
-70.1517
382.228
313.374
445.806
211.25
173.166
165.425
-15.7644
-444.74
-85.0287
-388.166
-142.806
41.8334
6.05583
-275.605
-388.445
282.245
614.418
551.542
502.278
158.521
273.689
263.118
132.126
40.0798
132.841
-53.6517
96.37
98.8495
-385.247
311.138
75.9676
-104.19
-285.502
18.4914
152.415
149.403
7.03362
-282.854
484.739
224.812
30.1577
545.627
-43.5444
-408.269
243.361
97.2354
100.654
100.903
14.5634
-512.418
96.1877
93.1749
-351.972
464.957
66.151
-733.614
40.6734
140.845
159.277
12.9976
-375.48
-26.4957
-12.3761
-186.032
113.487
-432.231
125.897
109.816
-209.355
536.461
91.6411
-304.173
593.189
134.755
134.432
-289.988
109.943
-358.415
)
;
    }
}


// ************************************************************************* //
