/*--------------------------------*- C++ -*----------------------------------*\
| =========                 |                                                 |
| \\      /  F ield         | OpenFOAM: The Open Source CFD Toolbox           |
|  \\    /   O peration     | Version:  v1906                                 |
|   \\  /    A nd           | Web:      www.OpenFOAM.com                      |
|    \\/     M anipulation  |                                                 |
\*---------------------------------------------------------------------------*/
FoamFile
{
    version     2.0;
    format      ascii;
    class       volScalarField;
    location    "0.8/oil";
    object      alphat;
}
// * * * * * * * * * * * * * * * * * * * * * * * * * * * * * * * * * * * * * //

dimensions      [1 -1 -1 0 0 0 0];


internalField   nonuniform List<scalar> 
168664
(
0.0022769
0.000362706
0.000248666
8.30691e-05
6.56812e-05
3.51348e-05
2.45602e-05
1.86464e-05
1.30638e-05
1.33841e-05
1.2053e-05
1.41243e-05
1.30567e-05
1.34487e-05
1.20452e-05
1.20981e-05
1.09725e-05
1.01895e-05
9.09459e-06
8.26007e-06
7.65914e-06
7.82954e-06
7.62378e-06
7.07297e-06
6.10244e-06
4.87998e-06
3.75977e-06
2.77657e-06
2.00435e-06
7.12938e-07
0.000362595
0.000358882
9.74747e-05
6.52052e-05
3.34438e-05
2.3521e-05
1.63123e-05
1.29642e-05
1.04701e-05
1.05193e-05
1.06372e-05
1.17424e-05
1.13504e-05
1.17127e-05
1.09242e-05
1.10148e-05
1.01188e-05
9.56721e-06
8.65561e-06
8.15578e-06
7.75704e-06
7.8248e-06
7.54263e-06
7.02548e-06
6.4322e-06
5.60554e-06
4.85858e-06
3.87763e-06
3.89883e-06
2.42855e-06
0.000246467
9.7861e-05
7.89887e-05
4.92759e-05
3.6806e-05
2.5432e-05
1.96337e-05
1.50204e-05
1.28401e-05
1.1682e-05
1.1557e-05
1.16254e-05
1.10455e-05
1.13522e-05
1.06443e-05
1.0644e-05
9.81306e-06
9.3596e-06
8.52139e-06
8.18533e-06
7.99176e-06
8.10474e-06
7.92359e-06
7.53079e-06
7.02112e-06
6.3796e-06
5.81849e-06
5.35911e-06
6.16614e-06
5.10594e-06
8.75323e-05
6.76417e-05
5.14584e-05
3.75241e-05
2.80521e-05
2.08889e-05
1.76528e-05
1.42165e-05
1.31997e-05
1.19134e-05
1.17802e-05
1.13042e-05
1.11264e-05
1.13952e-05
1.08e-05
1.0594e-05
9.85685e-06
9.4191e-06
8.75384e-06
8.48275e-06
8.24767e-06
8.32781e-06
8.36889e-06
8.14848e-06
7.62657e-06
6.99501e-06
6.56771e-06
6.80589e-06
7.86492e-06
7.35754e-06
7.00554e-05
3.85267e-05
3.97206e-05
2.90434e-05
2.67816e-05
2.12975e-05
1.90713e-05
1.6197e-05
1.49351e-05
1.35633e-05
1.29045e-05
1.20819e-05
1.17286e-05
1.18104e-05
1.10798e-05
1.06531e-05
9.89767e-06
9.51994e-06
9.09682e-06
9.16661e-06
8.87436e-06
8.94342e-06
8.95362e-06
8.89664e-06
8.4655e-06
8.0185e-06
7.78991e-06
8.36612e-06
9.57793e-06
9.63389e-06
4.67505e-05
3.26277e-05
3.26372e-05
2.52583e-05
2.40835e-05
1.89065e-05
1.80706e-05
1.51306e-05
1.47113e-05
1.33538e-05
1.31076e-05
1.20644e-05
1.16859e-05
1.1817e-05
1.12728e-05
1.0556e-05
9.88475e-06
9.39607e-06
9.33023e-06
9.5937e-06
9.35191e-06
9.27994e-06
9.2217e-06
9.2257e-06
8.92706e-06
8.83421e-06
8.85825e-06
9.68441e-06
1.09218e-05
1.15017e-05
3.69874e-05
2.68736e-05
2.69015e-05
2.23123e-05
2.18226e-05
1.84856e-05
1.77191e-05
1.55682e-05
1.49164e-05
1.38588e-05
1.34886e-05
1.25974e-05
1.22589e-05
1.26866e-05
1.19947e-05
1.09508e-05
1.00238e-05
9.45861e-06
9.33042e-06
9.61667e-06
9.37472e-06
9.43137e-06
9.44603e-06
9.6431e-06
9.62194e-06
9.91219e-06
1.02584e-05
1.12483e-05
1.25052e-05
1.35935e-05
3.49938e-05
2.64858e-05
2.6293e-05
2.20773e-05
2.16401e-05
1.80462e-05
1.75193e-05
1.49135e-05
1.44692e-05
1.31109e-05
1.31388e-05
1.24888e-05
1.28381e-05
1.34772e-05
1.29748e-05
1.15727e-05
1.07087e-05
9.88793e-06
9.64739e-06
9.51813e-06
9.24524e-06
9.31982e-06
9.46984e-06
9.89412e-06
1.02548e-05
1.09432e-05
1.15658e-05
1.2629e-05
1.3813e-05
1.53072e-05
2.99016e-05
2.38379e-05
2.32981e-05
2.06591e-05
1.99566e-05
1.74122e-05
1.66258e-05
1.45432e-05
1.3865e-05
1.27258e-05
1.28786e-05
1.29906e-05
1.36069e-05
1.42374e-05
1.35789e-05
1.2162e-05
1.10101e-05
1.0095e-05
9.65637e-06
9.41522e-06
9.1017e-06
9.43836e-06
9.77816e-06
1.05465e-05
1.12337e-05
1.2181e-05
1.30386e-05
1.41009e-05
1.51165e-05
1.69437e-05
3.09343e-05
2.47598e-05
2.43133e-05
2.16883e-05
2.08036e-05
1.79041e-05
1.69238e-05
1.44687e-05
1.36708e-05
1.22846e-05
1.27157e-05
1.29465e-05
1.3537e-05
1.35174e-05
1.3124e-05
1.20426e-05
1.09076e-05
1.00025e-05
9.70557e-06
9.4123e-06
9.20062e-06
9.66941e-06
1.01867e-05
1.10924e-05
1.18346e-05
1.2968e-05
1.403e-05
1.50394e-05
1.59493e-05
1.80481e-05
2.8513e-05
2.33484e-05
2.26593e-05
2.07865e-05
1.97823e-05
1.76761e-05
1.66752e-05
1.45561e-05
1.36432e-05
1.25342e-05
1.2886e-05
1.29909e-05
1.26054e-05
1.17637e-05
1.1032e-05
1.03619e-05
9.53756e-06
9.22224e-06
9.23697e-06
9.45496e-06
9.56971e-06
1.03898e-05
1.1085e-05
1.21719e-05
1.29311e-05
1.41884e-05
1.52945e-05
1.6136e-05
1.69302e-05
1.92322e-05
2.99779e-05
2.4463e-05
2.36896e-05
2.18274e-05
2.10453e-05
1.91683e-05
1.83099e-05
1.59213e-05
1.46024e-05
1.28171e-05
1.24057e-05
1.15689e-05
1.04012e-05
9.0054e-06
8.28671e-06
7.6745e-06
7.36833e-06
7.87682e-06
8.47987e-06
9.27956e-06
9.96684e-06
1.11599e-05
1.20719e-05
1.34156e-05
1.42553e-05
1.54647e-05
1.63395e-05
1.6966e-05
1.76558e-05
2.01447e-05
2.8182e-05
2.35816e-05
2.29981e-05
2.18538e-05
2.11852e-05
1.97719e-05
1.89623e-05
1.67732e-05
1.52247e-05
1.27086e-05
1.12461e-05
9.50988e-06
7.85774e-06
6.76506e-06
5.84332e-06
5.32616e-06
5.30799e-06
6.17093e-06
7.08277e-06
8.49646e-06
9.90815e-06
1.1973e-05
1.31989e-05
1.4602e-05
1.543e-05
1.65709e-05
1.72699e-05
1.78874e-05
1.86565e-05
2.15401e-05
2.81177e-05
2.348e-05
2.30614e-05
2.21292e-05
2.15392e-05
2.00964e-05
1.93618e-05
1.75118e-05
1.61999e-05
1.29113e-05
1.03274e-05
7.4605e-06
5.65891e-06
4.39306e-06
4.02308e-06
3.64868e-06
4.06703e-06
5.35254e-06
6.19955e-06
8.11641e-06
9.95711e-06
1.26421e-05
1.41199e-05
1.55451e-05
1.61886e-05
1.72741e-05
1.79592e-05
1.86769e-05
1.95329e-05
2.28518e-05
2.67586e-05
2.25079e-05
2.2034e-05
2.12642e-05
2.07199e-05
1.95427e-05
1.8824e-05
1.73233e-05
1.62635e-05
1.33437e-05
1.08649e-05
8.42685e-06
6.8774e-06
5.1444e-06
3.99734e-06
4.02851e-06
5.01922e-06
6.31057e-06
7.03048e-06
8.80724e-06
1.04798e-05
1.32209e-05
1.49116e-05
1.64585e-05
1.71177e-05
1.81549e-05
1.88521e-05
1.95994e-05
2.04143e-05
2.40431e-05
2.68361e-05
2.24678e-05
2.19221e-05
2.1138e-05
2.06513e-05
1.95102e-05
1.87896e-05
1.71328e-05
1.5834e-05
1.3168e-05
1.10981e-05
8.9508e-06
7.58849e-06
5.527e-06
3.63332e-06
4.12026e-06
5.40593e-06
6.94138e-06
7.50025e-06
9.2355e-06
1.07745e-05
1.35333e-05
1.50338e-05
1.65858e-05
1.71863e-05
1.82737e-05
1.89445e-05
1.97348e-05
2.03985e-05
2.39285e-05
2.49692e-05
2.11537e-05
2.056e-05
1.98988e-05
1.94115e-05
1.83971e-05
1.77442e-05
1.63593e-05
1.49313e-05
1.22058e-05
9.67535e-06
7.48885e-06
6.29943e-06
4.72904e-06
3.6123e-06
4.03563e-06
5.12724e-06
7.06038e-06
7.90726e-06
9.68728e-06
1.13672e-05
1.39374e-05
1.52494e-05
1.65764e-05
1.72169e-05
1.83522e-05
1.9101e-05
1.98145e-05
2.03649e-05
2.37608e-05
2.40975e-05
2.05545e-05
1.99325e-05
1.92299e-05
1.868e-05
1.75346e-05
1.67819e-05
1.53143e-05
1.41192e-05
1.1804e-05
9.9264e-06
8.23873e-06
6.97867e-06
5.9877e-06
5.49882e-06
5.48014e-06
5.60984e-06
7.63479e-06
9.11891e-06
1.09871e-05
1.18108e-05
1.38032e-05
1.47523e-05
1.62136e-05
1.69673e-05
1.81448e-05
1.89317e-05
1.98247e-05
2.05316e-05
2.39502e-05
2.25546e-05
1.9531e-05
1.88306e-05
1.80673e-05
1.73665e-05
1.62311e-05
1.53794e-05
1.3994e-05
1.29723e-05
1.1644e-05
1.08062e-05
9.74913e-06
8.58835e-06
7.75268e-06
7.6532e-06
7.46091e-06
7.33039e-06
8.64333e-06
1.00549e-05
1.13436e-05
1.16307e-05
1.26427e-05
1.33702e-05
1.48208e-05
1.56167e-05
1.66147e-05
1.7439e-05
1.86883e-05
1.98202e-05
2.33172e-05
2.14826e-05
1.85451e-05
1.77189e-05
1.67211e-05
1.58504e-05
1.46554e-05
1.39232e-05
1.27745e-05
1.20509e-05
1.11347e-05
1.09495e-05
1.04735e-05
9.8838e-06
9.62961e-06
9.83548e-06
9.727e-06
9.63934e-06
1.02447e-05
1.05519e-05
1.09477e-05
1.0751e-05
1.14685e-05
1.19855e-05
1.32583e-05
1.39712e-05
1.50109e-05
1.58804e-05
1.72127e-05
1.83883e-05
2.15999e-05
1.9654e-05
1.70808e-05
1.63546e-05
1.53037e-05
1.43732e-05
1.33875e-05
1.27286e-05
1.17905e-05
1.11543e-05
1.05741e-05
1.06042e-05
1.04382e-05
1.04101e-05
1.08249e-05
1.16498e-05
1.19948e-05
1.19139e-05
1.15464e-05
1.10883e-05
1.07662e-05
1.0245e-05
1.06662e-05
1.11167e-05
1.225e-05
1.2911e-05
1.39519e-05
1.47855e-05
1.59735e-05
1.70003e-05
1.95202e-05
1.83443e-05
1.61989e-05
1.55576e-05
1.44644e-05
1.35503e-05
1.26832e-05
1.21282e-05
1.13523e-05
1.08565e-05
1.04104e-05
1.0206e-05
9.7401e-06
9.94569e-06
1.07835e-05
1.18509e-05
1.26468e-05
1.25403e-05
1.13683e-05
1.04833e-05
1.02816e-05
9.94883e-06
1.03695e-05
1.0653e-05
1.15222e-05
1.19538e-05
1.28363e-05
1.35045e-05
1.46436e-05
1.56912e-05
1.77462e-05
1.64716e-05
1.47926e-05
1.39556e-05
1.29194e-05
1.22668e-05
1.16185e-05
1.12446e-05
1.07691e-05
1.05158e-05
1.03188e-05
9.98873e-06
9.24959e-06
9.26199e-06
1.01404e-05
1.12174e-05
1.20082e-05
1.18395e-05
1.06505e-05
1.00101e-05
1.01664e-05
1.00387e-05
1.02479e-05
1.02614e-05
1.07564e-05
1.09198e-05
1.15651e-05
1.21027e-05
1.32032e-05
1.42701e-05
1.58503e-05
1.47379e-05
1.33802e-05
1.23289e-05
1.14699e-05
1.10783e-05
1.07101e-05
1.06097e-05
1.04299e-05
1.03537e-05
1.0164e-05
9.67633e-06
8.90955e-06
8.64872e-06
9.17392e-06
1.00316e-05
1.0654e-05
1.05777e-05
9.91948e-06
9.6217e-06
9.98054e-06
9.97073e-06
1.01658e-05
1.00271e-05
1.02501e-05
1.01632e-05
1.04724e-05
1.0748e-05
1.17864e-05
1.28861e-05
1.4076e-05
1.2317e-05
1.15071e-05
1.04704e-05
9.88572e-06
9.70386e-06
9.57162e-06
9.72413e-06
9.83881e-06
1.00027e-05
9.82962e-06
9.21833e-06
8.59836e-06
8.58886e-06
8.8427e-06
9.34749e-06
9.62991e-06
9.8803e-06
9.68814e-06
9.42617e-06
9.52838e-06
9.61546e-06
9.85777e-06
9.69189e-06
9.77105e-06
9.49466e-06
9.46661e-06
9.38361e-06
1.03104e-05
1.14307e-05
1.21582e-05
1.02542e-05
9.87341e-06
8.79331e-06
8.42274e-06
8.58606e-06
8.79539e-06
9.05877e-06
9.34179e-06
9.63118e-06
9.5938e-06
8.99694e-06
8.45018e-06
8.62619e-06
8.81295e-06
8.93935e-06
8.91022e-06
9.34777e-06
9.45933e-06
9.06721e-06
8.95181e-06
8.93872e-06
9.24495e-06
9.15903e-06
9.19785e-06
8.8421e-06
8.44812e-06
8.13026e-06
8.86478e-06
1.00304e-05
1.02915e-05
7.9148e-06
8.06077e-06
6.90112e-06
6.78203e-06
7.28438e-06
7.6988e-06
8.1041e-06
8.55088e-06
8.93312e-06
9.13987e-06
8.74662e-06
8.46815e-06
8.77881e-06
8.86656e-06
8.73767e-06
8.45769e-06
8.90094e-06
9.02363e-06
8.81628e-06
8.58277e-06
8.36603e-06
8.39748e-06
8.24129e-06
8.18845e-06
7.85354e-06
7.40598e-06
6.93309e-06
7.32341e-06
8.37417e-06
8.10458e-06
5.60504e-06
6.3897e-06
5.34678e-06
5.81335e-06
6.34136e-06
6.92377e-06
7.4874e-06
8.0462e-06
8.54222e-06
8.80757e-06
8.60033e-06
8.5151e-06
8.8299e-06
8.80326e-06
8.66534e-06
8.29949e-06
8.44697e-06
8.60501e-06
8.57606e-06
8.46625e-06
8.01261e-06
7.86326e-06
7.57679e-06
7.4875e-06
7.23372e-06
6.80357e-06
6.21293e-06
5.74571e-06
6.59867e-06
5.73717e-06
2.99682e-06
4.32152e-06
4.1693e-06
5.02076e-06
5.6056e-06
6.42306e-06
7.09961e-06
7.83616e-06
8.51453e-06
8.95383e-06
9.05113e-06
9.04387e-06
9.25941e-06
9.26964e-06
9.37578e-06
9.01282e-06
8.99721e-06
9.0491e-06
8.96262e-06
8.59717e-06
7.87401e-06
7.55264e-06
7.19597e-06
7.02252e-06
6.60212e-06
5.86553e-06
5.11553e-06
4.01458e-06
4.14903e-06
2.81294e-06
1.41147e-06
2.65416e-06
3.62432e-06
4.60415e-06
5.51062e-06
6.48066e-06
7.28311e-06
8.15443e-06
8.99188e-06
9.4233e-06
9.61281e-06
9.73269e-06
9.82258e-06
1.00448e-05
9.98991e-06
9.50884e-06
9.54551e-06
9.64855e-06
9.51934e-06
8.76767e-06
7.77762e-06
7.37362e-06
6.89135e-06
6.62498e-06
5.89961e-06
4.846e-06
3.72604e-06
2.6076e-06
1.91942e-06
8.35328e-07
0.000361329
0.00036523
9.90119e-05
6.59836e-05
3.31507e-05
2.33456e-05
1.59868e-05
1.30003e-05
9.82454e-06
1.03783e-05
9.56431e-06
1.1327e-05
1.05696e-05
1.17541e-05
1.09722e-05
1.12615e-05
1.04268e-05
9.53525e-06
9.04192e-06
8.05242e-06
7.703e-06
7.13396e-06
7.22782e-06
6.65449e-06
6.36579e-06
5.33187e-06
4.6091e-06
3.49155e-06
3.02017e-06
1.97026e-06
0.000363439
0.000123119
6.7695e-05
3.30659e-05
1.79849e-05
1.18452e-05
8.44259e-06
5.82148e-06
5.08956e-06
4.63262e-06
5.10959e-06
4.42202e-06
3.83506e-06
3.81711e-06
4.0382e-06
4.13874e-06
3.90584e-06
3.83936e-06
3.48239e-06
3.3273e-06
3.09776e-06
3.70921e-06
4.15899e-06
4.64482e-06
4.47161e-06
4.10156e-06
3.52727e-06
3.18537e-06
4.31952e-06
3.94048e-06
9.78064e-05
6.73385e-05
4.02338e-05
2.87269e-05
1.71605e-05
1.31093e-05
9.70842e-06
6.99338e-06
6.03257e-06
5.83801e-06
6.57865e-06
6.4421e-06
5.02424e-06
3.9001e-06
3.61634e-06
3.45298e-06
2.85945e-06
2.40869e-06
2.34431e-06
2.97364e-06
3.31778e-06
4.49498e-06
5.24062e-06
5.45414e-06
5.35385e-06
5.16924e-06
4.30654e-06
4.12596e-06
4.87044e-06
6.23553e-06
6.72644e-05
2.99067e-05
2.69067e-05
1.73032e-05
1.06481e-05
8.76773e-06
6.09976e-06
5.59352e-06
5.27371e-06
5.47374e-06
5.97412e-06
6.1901e-06
4.72451e-06
3.49275e-06
3.04859e-06
2.93588e-06
2.85354e-06
2.26337e-06
2.58829e-06
3.76164e-06
4.51772e-06
5.19464e-06
4.91855e-06
4.89324e-06
5.18908e-06
5.32909e-06
4.67487e-06
4.71645e-06
4.60778e-06
7.94214e-06
3.8124e-05
1.4794e-05
1.46784e-05
1.07677e-05
7.89284e-06
6.83223e-06
5.06724e-06
4.64652e-06
4.16253e-06
3.97077e-06
3.98861e-06
4.28709e-06
3.01661e-06
2.61641e-06
2.53628e-06
2.58606e-06
2.70051e-06
2.1411e-06
2.78258e-06
4.06564e-06
4.46107e-06
3.86126e-06
2.8426e-06
2.95681e-06
3.50873e-06
4.17557e-06
4.4154e-06
4.82594e-06
4.31724e-06
9.7039e-06
3.2238e-05
8.20479e-06
1.06166e-05
8.32194e-06
6.3641e-06
5.55545e-06
3.6666e-06
3.45141e-06
2.51923e-06
2.59983e-06
2.82023e-06
3.27441e-06
2.65513e-06
2.53586e-06
2.63922e-06
2.75713e-06
2.91381e-06
2.6696e-06
3.3571e-06
3.8029e-06
3.38531e-06
2.34998e-06
1.5039e-06
1.80162e-06
2.23948e-06
3.23691e-06
4.02998e-06
4.68172e-06
4.05149e-06
1.10409e-05
2.68369e-05
5.1727e-06
7.36943e-06
5.53771e-06
4.93724e-06
4.27589e-06
3.33343e-06
3.07015e-06
2.29933e-06
2.30158e-06
2.50735e-06
3.10283e-06
2.68225e-06
2.71789e-06
2.99727e-06
2.93661e-06
3.08899e-06
3.25706e-06
3.76103e-06
3.18364e-06
2.37092e-06
1.74278e-06
1.37564e-06
1.5879e-06
2.0018e-06
3.18155e-06
4.02003e-06
4.56848e-06
4.03937e-06
1.25837e-05
2.64328e-05
2.6001e-06
5.51765e-06
5.33507e-06
4.85214e-06
4.44133e-06
3.59422e-06
3.34e-06
2.55571e-06
2.44529e-06
2.53227e-06
2.86418e-06
2.41789e-06
2.42718e-06
2.93566e-06
2.76796e-06
2.81608e-06
3.35087e-06
3.5543e-06
2.73739e-06
1.86666e-06
1.67688e-06
1.45624e-06
1.74999e-06
2.29828e-06
3.41722e-06
4.03941e-06
4.44159e-06
4.00169e-06
1.3844e-05
2.38827e-05
2.75984e-06
4.05641e-06
3.96533e-06
4.12902e-06
3.83035e-06
3.42359e-06
3.23613e-06
2.897e-06
2.79496e-06
2.71881e-06
2.24094e-06
1.2699e-06
2.34626e-06
3.28917e-06
2.88496e-06
2.04489e-06
2.53002e-06
2.9272e-06
2.61091e-06
2.04092e-06
2.02343e-06
1.85593e-06
2.24512e-06
2.73153e-06
3.54329e-06
3.8448e-06
4.00615e-06
3.77984e-06
1.51822e-05
2.46229e-05
2.07659e-06
3.0553e-06
3.40169e-06
3.78111e-06
3.88838e-06
3.64501e-06
3.56946e-06
3.44139e-06
3.26324e-06
3.00894e-06
1.82604e-06
1.35926e-06
3.36451e-06
4.27336e-06
3.55469e-06
2.13865e-06
1.02559e-06
2.03064e-06
2.60919e-06
2.31707e-06
2.42676e-06
2.31584e-06
2.67002e-06
2.84706e-06
3.28081e-06
3.29123e-06
3.21813e-06
3.31805e-06
1.61431e-05
2.3397e-05
2.5765e-06
2.40063e-06
2.39312e-06
2.59215e-06
3.04171e-06
3.2985e-06
3.57383e-06
3.74514e-06
3.51758e-06
3.14885e-06
2.15694e-06
3.0161e-06
4.72008e-06
5.42611e-06
5.06371e-06
4.05622e-06
1.57868e-06
1.35164e-06
2.60196e-06
2.78871e-06
3.07999e-06
2.99329e-06
3.22477e-06
3.1996e-06
3.26895e-06
2.99875e-06
2.76957e-06
2.9816e-06
1.70044e-05
2.44721e-05
2.651e-06
2.02378e-06
2.02356e-06
2.16924e-06
2.77333e-06
3.20545e-06
3.72674e-06
4.28728e-06
4.21079e-06
3.35516e-06
2.94887e-06
3.76376e-06
4.25784e-06
4.51542e-06
4.43542e-06
3.72538e-06
2.37694e-06
1.55964e-06
2.54371e-06
3.26009e-06
3.6055e-06
3.46369e-06
3.43395e-06
3.29442e-06
3.20417e-06
2.77879e-06
2.66089e-06
2.77294e-06
1.76322e-05
2.33588e-05
2.80565e-06
1.94639e-06
1.82677e-06
1.78126e-06
2.11637e-06
2.38823e-06
3.07117e-06
3.91441e-06
3.85556e-06
2.79053e-06
3.87203e-06
4.24626e-06
4.14222e-06
3.95152e-06
3.69037e-06
3.33783e-06
2.69413e-06
2.22665e-06
1.93116e-06
3.16827e-06
3.61431e-06
3.29461e-06
2.97573e-06
2.72589e-06
2.65351e-06
2.40241e-06
2.54174e-06
2.84351e-06
1.87258e-05
2.3403e-05
2.53206e-06
1.90596e-06
1.89613e-06
1.91536e-06
1.90022e-06
2.01755e-06
2.7116e-06
3.57834e-06
3.64843e-06
3.53222e-06
3.9641e-06
3.63334e-06
3.36657e-06
2.82543e-06
2.44759e-06
1.81361e-06
1.89353e-06
1.8744e-06
1.88065e-06
2.54052e-06
3.21256e-06
2.92032e-06
2.44792e-06
2.20687e-06
2.2132e-06
2.15371e-06
2.36457e-06
2.88423e-06
1.96608e-05
2.24472e-05
2.8076e-06
2.11164e-06
2.03751e-06
2.013e-06
2.06824e-06
2.16077e-06
2.72034e-06
3.2285e-06
3.71728e-06
3.73893e-06
3.39407e-06
2.78963e-06
2.31686e-06
2.42477e-06
2.16263e-06
1.79529e-06
2.0819e-06
2.1138e-06
2.62084e-06
3.12512e-06
3.28385e-06
2.75955e-06
2.13603e-06
1.99318e-06
2.00567e-06
2.02459e-06
2.20007e-06
2.91312e-06
2.04742e-05
2.25042e-05
3.0252e-06
2.32824e-06
2.19433e-06
2.24769e-06
2.41179e-06
2.55163e-06
2.97366e-06
3.46086e-06
3.72816e-06
3.09582e-06
2.14997e-06
1.76908e-06
1.79613e-06
2.34179e-06
2.39918e-06
2.10797e-06
2.30833e-06
2.56897e-06
3.12497e-06
3.37627e-06
3.28043e-06
2.57952e-06
1.77567e-06
1.60104e-06
1.70501e-06
1.79924e-06
1.90398e-06
2.53622e-06
2.03586e-05
2.12961e-05
3.12453e-06
2.64079e-06
2.46978e-06
2.56436e-06
2.70618e-06
2.83349e-06
3.27927e-06
3.71545e-06
3.38611e-06
2.70501e-06
2.3884e-06
2.1651e-06
2.23957e-06
2.80128e-06
2.76456e-06
2.5354e-06
2.69068e-06
2.71022e-06
2.52589e-06
2.8506e-06
3.61795e-06
2.89204e-06
1.96278e-06
1.73767e-06
1.92022e-06
2.1529e-06
2.11676e-06
2.53815e-06
2.03123e-05
2.06821e-05
3.07771e-06
2.89783e-06
2.68799e-06
2.87595e-06
3.00611e-06
3.23821e-06
3.51621e-06
3.87011e-06
3.44939e-06
2.6452e-06
2.46058e-06
2.6473e-06
2.97012e-06
3.459e-06
3.47527e-06
3.64426e-06
3.43033e-06
2.57102e-06
1.54527e-06
3.46119e-06
4.40363e-06
3.57018e-06
2.93194e-06
2.60732e-06
2.58104e-06
2.80615e-06
2.75124e-06
3.0043e-06
2.0299e-05
1.94382e-05
3.39136e-06
3.40275e-06
3.3762e-06
3.69949e-06
3.74736e-06
3.80937e-06
3.77859e-06
3.96441e-06
3.71009e-06
3.40619e-06
2.20804e-06
2.16974e-06
2.98822e-06
3.80885e-06
3.79814e-06
3.6793e-06
3.00209e-06
1.59189e-06
2.12244e-06
3.83071e-06
4.61096e-06
3.9705e-06
3.56121e-06
3.23419e-06
3.22204e-06
3.41892e-06
3.45267e-06
3.56091e-06
1.97991e-05
1.86045e-05
3.5083e-06
3.38023e-06
3.62705e-06
3.93497e-06
3.56845e-06
3.37874e-06
3.10367e-06
3.34976e-06
3.1201e-06
3.25065e-06
1.83994e-06
9.49202e-07
2.77879e-06
4.11023e-06
4.33358e-06
4.05304e-06
2.25102e-06
9.70885e-07
2.63609e-06
3.3027e-06
3.88188e-06
3.41782e-06
3.3323e-06
3.19006e-06
3.47124e-06
3.53754e-06
3.39967e-06
3.56562e-06
1.86005e-05
1.73627e-05
3.84548e-06
3.53452e-06
3.98307e-06
4.21396e-06
3.3732e-06
2.94983e-06
2.56357e-06
2.79376e-06
2.68363e-06
3.11282e-06
2.45854e-06
1.41244e-06
8.71897e-07
2.57959e-06
3.36937e-06
3.05902e-06
8.22049e-07
1.82295e-06
3.12326e-06
3.02901e-06
3.26551e-06
2.88418e-06
3.10792e-06
3.31153e-06
3.99465e-06
3.95246e-06
3.7411e-06
3.62907e-06
1.69519e-05
1.62271e-05
3.97492e-06
4.09248e-06
4.4615e-06
4.22476e-06
3.15459e-06
2.68694e-06
2.11411e-06
2.2723e-06
2.25765e-06
2.95366e-06
3.12127e-06
2.74515e-06
1.77323e-06
2.05083e-06
2.38165e-06
1.9014e-06
2.00102e-06
2.61248e-06
2.96143e-06
2.42087e-06
2.56356e-06
2.24759e-06
2.65239e-06
2.97199e-06
3.97296e-06
4.24916e-06
4.21185e-06
3.67026e-06
1.55628e-05
1.47868e-05
4.03877e-06
4.70652e-06
4.58605e-06
3.91845e-06
2.82602e-06
2.3995e-06
1.75096e-06
1.97115e-06
2.03856e-06
2.8608e-06
3.33899e-06
3.17885e-06
2.98917e-06
3.10794e-06
3.17704e-06
2.29187e-06
2.96317e-06
3.46817e-06
3.18918e-06
2.14743e-06
2.11519e-06
1.81015e-06
2.26083e-06
2.49089e-06
3.69845e-06
4.34448e-06
4.53921e-06
3.86222e-06
1.42162e-05
1.35288e-05
4.05041e-06
4.76668e-06
4.01944e-06
3.33291e-06
2.43949e-06
2.19908e-06
1.56448e-06
1.81369e-06
2.04949e-06
3.00491e-06
3.15564e-06
2.9112e-06
3.46183e-06
3.61602e-06
3.33813e-06
2.59712e-06
3.5479e-06
4.11512e-06
4.06474e-06
2.78045e-06
2.03782e-06
1.54355e-06
1.94743e-06
2.07612e-06
3.27389e-06
4.20659e-06
4.6976e-06
3.92857e-06
1.29068e-05
1.16869e-05
4.14548e-06
4.69817e-06
3.58727e-06
2.90334e-06
2.22139e-06
2.44192e-06
2.07925e-06
2.24945e-06
2.43297e-06
3.24384e-06
2.88195e-06
2.50699e-06
3.47759e-06
3.69932e-06
3.26383e-06
2.89584e-06
3.56105e-06
4.22677e-06
4.88128e-06
4.03953e-06
2.90949e-06
2.02862e-06
2.33899e-06
2.4955e-06
3.62093e-06
4.37979e-06
5.08946e-06
4.23334e-06
1.15034e-05
1.01573e-05
4.12651e-06
4.47154e-06
3.3344e-06
2.89621e-06
2.60498e-06
3.05861e-06
2.99563e-06
3.38929e-06
3.39448e-06
3.54524e-06
2.46421e-06
2.25923e-06
3.33026e-06
3.70484e-06
3.34708e-06
3.00875e-06
3.32558e-06
3.94973e-06
5.0103e-06
4.93953e-06
4.45995e-06
3.57235e-06
3.73324e-06
3.95677e-06
4.70743e-06
4.66954e-06
5.2633e-06
4.59293e-06
1.01084e-05
8.49146e-06
4.38683e-06
4.46169e-06
3.57266e-06
3.83477e-06
3.85431e-06
4.26951e-06
4.3377e-06
4.99623e-06
5.09715e-06
4.64361e-06
2.63093e-06
2.25945e-06
3.40627e-06
4.2468e-06
3.90392e-06
3.68539e-06
4.08829e-06
4.48986e-06
5.31368e-06
5.40173e-06
5.81451e-06
5.70034e-06
6.00922e-06
5.98225e-06
5.99139e-06
4.95388e-06
5.17021e-06
5.00574e-06
8.43183e-06
6.9457e-06
4.88037e-06
4.39245e-06
4.11238e-06
4.45337e-06
4.26849e-06
4.48355e-06
4.5001e-06
5.16972e-06
5.50775e-06
5.19153e-06
3.16285e-06
2.51954e-06
3.52677e-06
4.22864e-06
3.75534e-06
3.57258e-06
4.13896e-06
4.31158e-06
4.5016e-06
4.25679e-06
4.92323e-06
5.38032e-06
6.18801e-06
5.99711e-06
5.63215e-06
4.36844e-06
4.26425e-06
5.08553e-06
6.68173e-06
4.81184e-06
4.87454e-06
3.89016e-06
4.16104e-06
4.21818e-06
4.07032e-06
4.34799e-06
4.47715e-06
5.09518e-06
5.47557e-06
5.48437e-06
4.44703e-06
4.19346e-06
3.937e-06
3.75183e-06
3.14029e-06
3.27619e-06
3.73593e-06
3.69039e-06
3.7552e-06
3.37355e-06
3.92737e-06
4.05774e-06
4.75109e-06
4.57769e-06
4.24247e-06
3.50983e-06
3.19025e-06
4.34851e-06
4.22865e-06
3.04017e-06
3.98038e-06
4.35192e-06
5.16438e-06
5.70383e-06
6.58824e-06
7.21049e-06
8.41062e-06
9.11118e-06
1.02624e-05
1.00454e-05
1.01769e-05
9.57196e-06
9.73041e-06
9.5359e-06
9.21472e-06
9.32888e-06
9.11168e-06
9.39519e-06
8.66665e-06
8.19643e-06
7.41322e-06
7.13444e-06
6.67329e-06
6.35115e-06
5.35958e-06
4.53135e-06
3.34334e-06
2.93375e-06
2.13924e-06
0.000248594
9.87607e-05
7.84907e-05
4.74432e-05
3.35415e-05
2.41814e-05
1.69994e-05
1.36828e-05
9.48045e-06
9.15964e-06
8.34789e-06
8.74943e-06
8.82383e-06
8.02076e-06
8.12645e-06
8.30187e-06
7.79583e-06
8.52542e-06
7.31985e-06
8.06154e-06
6.06451e-06
6.98892e-06
6.34011e-06
7.56091e-06
6.82335e-06
6.47431e-06
5.29873e-06
4.19896e-06
3.23545e-06
2.70262e-06
9.71233e-05
6.93153e-05
4.19172e-05
3.02471e-05
1.63626e-05
1.17986e-05
8.51719e-06
6.74782e-06
6.3124e-06
5.47787e-06
4.39902e-06
3.309e-06
2.7251e-06
3.0267e-06
3.44005e-06
3.0167e-06
3.33159e-06
3.39143e-06
3.43681e-06
2.64915e-06
1.88367e-06
2.2345e-06
3.19314e-06
3.64976e-06
3.4229e-06
2.81881e-06
2.74507e-06
2.85575e-06
3.40614e-06
3.77562e-06
7.78844e-05
4.20511e-05
3.64814e-05
2.77562e-05
1.84782e-05
1.35285e-05
9.57863e-06
7.5135e-06
7.26329e-06
7.33587e-06
6.62424e-06
5.63548e-06
4.44334e-06
4.08231e-06
3.96661e-06
3.694e-06
4.05406e-06
3.55426e-06
3.57423e-06
2.99103e-06
2.76783e-06
3.44226e-06
5.03495e-06
5.57948e-06
4.40694e-06
3.2635e-06
3.4734e-06
4.49247e-06
4.23884e-06
5.54065e-06
5.06803e-05
2.81249e-05
2.58397e-05
1.93515e-05
1.30658e-05
1.06059e-05
7.18013e-06
6.04171e-06
5.35356e-06
6.39561e-06
7.17973e-06
7.33014e-06
6.30726e-06
5.41411e-06
4.6824e-06
4.36766e-06
4.142e-06
3.28281e-06
3.58279e-06
3.22058e-06
2.91018e-06
4.80714e-06
6.76944e-06
6.81599e-06
5.56698e-06
4.07676e-06
4.09592e-06
4.81836e-06
4.53629e-06
7.16576e-06
3.87405e-05
1.542e-05
1.63034e-05
1.23405e-05
9.92878e-06
8.67238e-06
6.68167e-06
5.78145e-06
5.02485e-06
6.09998e-06
7.78013e-06
8.01215e-06
6.11058e-06
5.05254e-06
4.36144e-06
4.06446e-06
3.53245e-06
2.85692e-06
3.4797e-06
3.75726e-06
5.02562e-06
6.34733e-06
6.81606e-06
6.55012e-06
6.01567e-06
4.8104e-06
4.74191e-06
4.29158e-06
4.61903e-06
8.80946e-06
3.2421e-05
1.0421e-05
1.209e-05
9.50581e-06
7.75596e-06
6.38144e-06
4.65402e-06
3.8288e-06
3.05778e-06
4.03685e-06
5.46382e-06
5.54693e-06
3.8545e-06
3.20177e-06
2.59475e-06
2.63935e-06
2.51624e-06
2.45214e-06
2.94918e-06
3.87778e-06
4.52114e-06
4.29617e-06
3.72253e-06
3.91196e-06
4.58726e-06
4.77371e-06
4.92588e-06
3.65596e-06
4.56379e-06
1.0127e-05
2.71249e-05
6.51308e-06
7.85953e-06
6.12285e-06
5.52476e-06
4.66975e-06
3.48608e-06
3.06451e-06
2.54871e-06
3.11226e-06
3.96864e-06
4.34442e-06
3.01977e-06
2.69116e-06
2.22847e-06
2.30185e-06
2.33374e-06
2.37265e-06
3.27861e-06
3.64568e-06
3.04817e-06
2.15401e-06
1.59935e-06
2.15245e-06
3.67744e-06
4.61224e-06
4.56014e-06
3.12236e-06
4.53143e-06
1.15748e-05
2.63888e-05
4.24673e-06
5.69349e-06
5.79071e-06
5.55599e-06
4.89105e-06
3.73611e-06
3.35273e-06
2.56912e-06
2.66934e-06
3.11021e-06
3.82182e-06
2.89907e-06
2.9414e-06
2.0319e-06
1.70769e-06
1.65792e-06
2.42785e-06
3.41381e-06
2.94514e-06
1.84412e-06
1.27617e-06
1.22223e-06
1.99624e-06
3.46487e-06
4.20068e-06
3.99634e-06
2.96823e-06
4.39807e-06
1.28375e-05
2.33125e-05
3.72201e-06
3.44061e-06
3.21748e-06
3.74299e-06
3.95905e-06
3.39071e-06
3.12636e-06
2.56297e-06
2.61537e-06
2.69879e-06
3.10893e-06
2.79813e-06
3.23786e-06
2.19624e-06
1.75814e-06
1.75582e-06
1.87488e-06
2.65972e-06
2.26564e-06
1.68498e-06
1.43879e-06
1.69006e-06
2.39011e-06
3.29852e-06
3.61357e-06
3.55295e-06
2.91243e-06
4.08806e-06
1.42656e-05
2.36295e-05
3.27024e-06
2.79868e-06
2.3467e-06
2.72488e-06
3.51124e-06
3.55415e-06
3.41719e-06
2.80182e-06
2.73724e-06
2.41156e-06
2.68197e-06
2.53538e-06
2.9423e-06
2.84178e-06
2.21559e-06
2.57893e-06
2.01594e-06
1.74265e-06
1.54977e-06
1.68278e-06
1.6727e-06
2.09173e-06
2.63974e-06
2.8522e-06
2.88994e-06
2.8019e-06
2.32672e-06
3.52366e-06
1.548e-05
2.21374e-05
3.13947e-06
2.09022e-06
1.74178e-06
1.49513e-06
1.96733e-06
2.64678e-06
3.19406e-06
2.86914e-06
2.77928e-06
2.95312e-06
3.8329e-06
3.79799e-06
4.64797e-06
4.94058e-06
4.32768e-06
4.22183e-06
3.30851e-06
2.89771e-06
2.24839e-06
2.23528e-06
2.25706e-06
2.543e-06
2.68278e-06
2.46877e-06
2.41587e-06
2.27879e-06
1.87017e-06
2.97988e-06
1.6478e-05
2.33105e-05
2.85183e-06
1.59399e-06
1.51789e-06
1.13525e-06
1.29276e-06
2.19069e-06
3.05973e-06
2.87707e-06
3.43478e-06
4.33429e-06
4.26992e-06
4.6554e-06
5.54113e-06
5.88793e-06
5.82967e-06
5.06484e-06
3.68406e-06
3.431e-06
3.26694e-06
2.8364e-06
2.45384e-06
2.39739e-06
2.28005e-06
2.08506e-06
2.12617e-06
2.02286e-06
1.69212e-06
2.44144e-06
1.71403e-05
2.24004e-05
2.40642e-06
1.13612e-06
1.23849e-06
9.21767e-07
6.29213e-07
1.48262e-06
2.79752e-06
2.43883e-06
3.5599e-06
4.67886e-06
4.81257e-06
6.03882e-06
6.73974e-06
6.79811e-06
6.53505e-06
6.03733e-06
4.7446e-06
3.88709e-06
3.57297e-06
3.20687e-06
2.1661e-06
1.99148e-06
1.79768e-06
1.52331e-06
1.53225e-06
1.52741e-06
1.29642e-06
2.37482e-06
1.81808e-05
2.2701e-05
2.21564e-06
8.4322e-07
8.75045e-07
9.22513e-07
7.74604e-07
1.46588e-06
2.75627e-06
2.77591e-06
3.27278e-06
3.85846e-06
5.19492e-06
5.88417e-06
6.72894e-06
6.68611e-06
6.42698e-06
5.84847e-06
4.86853e-06
4.47196e-06
2.79291e-06
2.78753e-06
2.13049e-06
1.43978e-06
1.12905e-06
1.06346e-06
1.00742e-06
9.22061e-07
7.3445e-07
2.3467e-06
1.89678e-05
2.16126e-05
2.62732e-06
1.13521e-06
1.00217e-06
1.00671e-06
1.05081e-06
1.38079e-06
1.81389e-06
2.57223e-06
3.5572e-06
4.12062e-06
4.84567e-06
4.35207e-06
5.12521e-06
5.87368e-06
5.97558e-06
5.1384e-06
4.51891e-06
4.64044e-06
3.87613e-06
3.55818e-06
2.64998e-06
1.62536e-06
1.04703e-06
1.01354e-06
8.87443e-07
7.34383e-07
7.33055e-07
2.34989e-06
1.96483e-05
2.16147e-05
2.8884e-06
1.09659e-06
9.92628e-07
1.15215e-06
1.42741e-06
1.54694e-06
1.88448e-06
2.88709e-06
3.8796e-06
4.02974e-06
4.33602e-06
3.73447e-06
4.70814e-06
5.75509e-06
5.91657e-06
5.13221e-06
4.53184e-06
4.99124e-06
4.25734e-06
3.68041e-06
2.87279e-06
1.5549e-06
9.23162e-07
8.51451e-07
7.11226e-07
7.47283e-07
6.21201e-07
2.06198e-06
1.95739e-05
2.05527e-05
3.09585e-06
1.32653e-06
1.4439e-06
1.44014e-06
1.74341e-06
1.70223e-06
1.9313e-06
2.5857e-06
3.26045e-06
3.31355e-06
4.48214e-06
4.4938e-06
5.44966e-06
6.07997e-06
6.24585e-06
5.9567e-06
4.9733e-06
4.74619e-06
2.99708e-06
3.46959e-06
2.884e-06
1.74624e-06
1.21195e-06
8.41237e-07
7.21912e-07
1.32478e-06
1.23833e-06
2.07907e-06
1.96008e-05
2.01145e-05
3.11845e-06
1.82287e-06
1.97029e-06
1.75641e-06
1.91671e-06
2.14467e-06
2.27561e-06
2.42908e-06
3.51129e-06
4.0911e-06
4.12009e-06
4.57247e-06
5.56772e-06
6.26874e-06
6.51757e-06
5.99734e-06
4.76649e-06
3.84607e-06
3.08201e-06
3.73819e-06
2.68331e-06
2.38152e-06
2.00435e-06
1.42735e-06
1.48942e-06
2.28839e-06
2.21202e-06
2.73447e-06
1.93588e-05
1.8689e-05
3.38205e-06
2.31414e-06
2.42246e-06
2.54645e-06
2.84005e-06
2.94326e-06
2.8606e-06
2.76051e-06
3.2057e-06
3.74812e-06
3.68603e-06
3.377e-06
4.48847e-06
5.55536e-06
6.05544e-06
5.03193e-06
3.78146e-06
3.19853e-06
3.27634e-06
3.36673e-06
3.08146e-06
2.66662e-06
2.39124e-06
2.0784e-06
2.04811e-06
2.59569e-06
2.47735e-06
3.43697e-06
1.863e-05
1.76766e-05
3.55987e-06
2.37381e-06
2.36214e-06
3.03953e-06
3.41072e-06
3.01811e-06
2.61798e-06
2.36857e-06
2.40657e-06
2.482e-06
3.09025e-06
2.69349e-06
3.42585e-06
4.26555e-06
5.27807e-06
4.63576e-06
3.51405e-06
3.07245e-06
2.6617e-06
2.79884e-06
2.85733e-06
2.77421e-06
2.81598e-06
2.92828e-06
2.61067e-06
2.39207e-06
2.1426e-06
3.68551e-06
1.73256e-05
1.63877e-05
4.05376e-06
2.80091e-06
2.65736e-06
3.77066e-06
4.06871e-06
3.08397e-06
2.28203e-06
1.93607e-06
1.88452e-06
1.86123e-06
2.42551e-06
2.44364e-06
2.98488e-06
2.34072e-06
3.01548e-06
2.81913e-06
2.98024e-06
2.65713e-06
2.29908e-06
2.55945e-06
2.47724e-06
2.57538e-06
3.17687e-06
3.92559e-06
3.6526e-06
2.68194e-06
2.12054e-06
3.69232e-06
1.56595e-05
1.51921e-05
4.11553e-06
2.85665e-06
3.50934e-06
4.50365e-06
4.05558e-06
2.87505e-06
2.08291e-06
1.67438e-06
1.69589e-06
2.25987e-06
3.10394e-06
2.4086e-06
2.62221e-06
3.15109e-06
3.28199e-06
3.15317e-06
3.52365e-06
3.29188e-06
2.55222e-06
2.35892e-06
2.04306e-06