/*--------------------------------*- C++ -*----------------------------------*\
| =========                 |                                                 |
| \\      /  F ield         | OpenFOAM: The Open Source CFD Toolbox           |
|  \\    /   O peration     | Version:  v1906                                 |
|   \\  /    A nd           | Web:      www.OpenFOAM.com                      |
|    \\/     M anipulation  |                                                 |
\*---------------------------------------------------------------------------*/
FoamFile
{
    version     2.0;
    format      ascii;
    class       volVectorField;
    location    "75.6/oil";
    object      U;
}
// * * * * * * * * * * * * * * * * * * * * * * * * * * * * * * * * * * * * * //

dimensions      [0 1 -1 0 0 0 0];


internalField   nonuniform List<vector> 
27760
(
(-2.43639e-05 -2.48249e-05 -2.43639e-05)
(-4.80885e-05 -1.86211e-05 -1.75548e-05)
(-3.49628e-06 -4.82426e-06 -4.81018e-06)
(-5.68633e-06 -7.80465e-07 -8.90326e-07)
(-1.1169e-06 -2.42413e-07 -3.7195e-07)
(-3.52515e-07 -9.23764e-08 -2.34567e-07)
(3.34807e-07 -1.11012e-09 -1.54793e-07)
(6.855e-07 3.97254e-08 -1.22773e-07)
(8.8206e-07 6.3864e-08 -1.04604e-07)
(9.56261e-07 7.96645e-08 -9.22449e-08)
(9.31323e-07 9.11471e-08 -8.19789e-08)
(8.20755e-07 1.00014e-07 -7.30541e-08)
(6.38657e-07 1.06692e-07 -6.57224e-08)
(4.01671e-07 1.11249e-07 -6.04258e-08)
(1.29695e-07 1.13625e-07 -5.75876e-08)
(-1.55098e-07 1.13777e-07 -5.74378e-08)
(-4.29906e-07 1.11749e-07 -5.99323e-08)
(-6.73201e-07 1.07694e-07 -6.47281e-08)
(-8.66656e-07 1.01867e-07 -7.12057e-08)
(-9.96711e-07 9.45743e-08 -7.85226e-08)
(-1.05576e-06 8.61789e-08 -8.56727e-08)
(-1.04237e-06 7.69801e-08 -9.13252e-08)
(-9.61658e-07 6.70924e-08 -9.46518e-08)
(-8.24933e-07 5.68988e-08 -9.45151e-08)
(-6.4871e-07 4.66523e-08 -8.9991e-08)
(-4.54145e-07 3.6815e-08 -8.04902e-08)
(-2.65852e-07 2.83369e-08 -6.61193e-08)
(-1.1045e-07 2.29215e-08 -4.81581e-08)
(-1.16161e-08 2.26931e-08 -3.00489e-08)
(1.21715e-08 2.38423e-08 -1.21312e-08)
(-1.76728e-05 -4.94108e-05 -1.76727e-05)
(-5.76775e-06 -6.43296e-06 -7.91507e-06)
(-7.73722e-06 -7.8042e-06 -2.77056e-06)
(-3.39065e-06 -2.30143e-06 -8.0087e-07)
(-1.01853e-06 -1.42005e-06 -4.06725e-07)
(1.85413e-07 -7.87089e-07 -2.0895e-07)
(1.06757e-06 -4.99171e-07 -1.11444e-07)
(1.60984e-06 -3.25854e-07 -6.15769e-08)
(1.92307e-06 -2.07956e-07 -2.96111e-08)
(2.03136e-06 -1.1557e-07 -5.66846e-09)
(1.95531e-06 -3.83936e-08 1.47445e-08)
(1.71289e-06 2.63725e-08 3.22961e-08)
(1.3281e-06 7.78552e-08 4.65979e-08)
(8.33063e-07 1.14125e-07 5.68484e-08)
(2.67401e-07 1.3336e-07 6.23182e-08)
(-3.24172e-07 1.34597e-07 6.26065e-08)
(-8.9545e-07 1.18108e-07 5.77874e-08)
(-1.40276e-06 8.55057e-08 4.84451e-08)
(-1.80891e-06 3.9625e-08 3.56223e-08)
(-2.08638e-06 -1.57634e-08 2.07236e-08)
(-2.21971e-06 -7.62887e-08 5.34066e-09)
(-2.20636e-06 -1.37265e-07 -8.6757e-09)
(-2.05657e-06 -1.94163e-07 -1.97681e-08)
(-1.79287e-06 -2.42153e-07 -2.66483e-08)
(-1.44815e-06 -2.76188e-07 -2.82954e-08)
(-1.06336e-06 -2.90414e-07 -2.43415e-08)
(-6.844e-07 -2.77543e-07 -1.54996e-08)
(-3.57543e-07 -2.29126e-07 -4.13815e-09)
(-1.22261e-07 -1.38064e-07 4.63316e-09)
(-5.61486e-09 -2.20114e-08 5.67682e-09)
(-4.88327e-06 -4.68363e-06 -4.88321e-06)
(-7.6245e-06 -8.84746e-06 -2.81444e-06)
(-3.81891e-06 -5.14057e-06 -1.22999e-06)
(-1.99059e-06 -3.11495e-06 -5.70424e-07)
(-2.65256e-07 -2.27628e-06 -2.5735e-07)
(8.84978e-07 -1.73002e-06 -1.02899e-07)
(1.75913e-06 -1.41118e-06 -2.02341e-08)
(2.34415e-06 -1.17838e-06 2.79325e-08)
(2.68418e-06 -9.87567e-07 6.21709e-08)
(2.7847e-06 -8.17667e-07 8.99143e-08)
(2.65628e-06 -6.63991e-07 1.14252e-07)
(2.3153e-06 -5.29373e-07 1.35454e-07)
(1.78991e-06 -4.19721e-07 1.52809e-07)
(1.12073e-06 -3.41458e-07 1.65249e-07)
(3.59145e-07 -2.99716e-07 1.7188e-07)
(-4.36261e-07 -2.9714e-07 1.72212e-07)
(-1.2047e-06 -3.33251e-07 1.6632e-07)
(-1.88866e-06 -4.04296e-07 1.54872e-07)
(-2.43916e-06 -5.03546e-07 1.3906e-07)
(-2.82005e-06 -6.21915e-07 1.20492e-07)
(-3.01095e-06 -7.48802e-07 1.00959e-07)
(-3.00856e-06 -8.72653e-07 8.2341e-08)
(-2.82635e-06 -9.81683e-07 6.62857e-08)
(-2.49325e-06 -1.06393e-06 5.41149e-08)
(-2.05088e-06 -1.10678e-06 4.66274e-08)
(-1.55016e-06 -1.09648e-06 4.38528e-08)
(-1.0468e-06 -1.01737e-06 4.46612e-08)
(-5.94678e-07 -8.52305e-07 4.60672e-08)
(-2.41839e-07 -5.84522e-07 4.23391e-08)
(-2.34935e-08 -2.16919e-07 2.35681e-08)
(-8.69429e-07 -6.8552e-06 -8.6936e-07)
(-1.90844e-06 -5.51011e-06 -7.71586e-07)
(-1.40426e-06 -4.82095e-06 -5.43369e-07)
(-4.4818e-07 -3.89039e-06 -2.62156e-07)
(6.99097e-07 -3.37695e-06 -9.6417e-08)
(1.65465e-06 -2.99098e-06 -1.89015e-10)
(2.44252e-06 -2.70235e-06 6.00858e-08)
(3.00471e-06 -2.44261e-06 1.01413e-07)
(3.32949e-06 -2.19268e-06 1.34608e-07)
(3.40098e-06 -1.94725e-06 1.6377e-07)
(3.2176e-06 -1.71262e-06 1.90318e-07)
(2.79173e-06 -1.50057e-06 2.13846e-07)
(2.1527e-06 -1.32477e-06 2.33234e-07)
(1.34633e-06 -1.19812e-06 2.47171e-07)
(4.32137e-07 -1.13035e-06 2.54593e-07)
(-5.21282e-07 -1.12647e-06 2.54929e-07)
(-1.44246e-06 -1.18586e-06 2.48242e-07)
(-2.26368e-06 -1.30212e-06 2.35257e-07)
(-2.9273e-06 -1.46355e-06 2.17281e-07)
(-3.39092e-06 -1.65432e-06 1.96049e-07)
(-3.63067e-06 -1.85581e-06 1.73485e-07)
(-3.6427e-06 -2.04784e-06 1.51515e-07)
(-3.44253e-06 -2.20966e-06 1.31811e-07)
(-3.06313e-06 -2.32022e-06 1.15665e-07)
(-2.55139e-06 -2.3579e-06 1.03733e-07)
(-1.96387e-06 -2.29985e-06 9.58664e-08)
(-1.36182e-06 -2.12087e-06 9.07536e-08)
(-8.03838e-07 -1.7926e-06 8.5008e-08)
(-3.46768e-07 -1.28037e-06 7.2333e-08)
(-3.82515e-08 -5.41703e-07 3.83408e-08)
(-2.72461e-07 -2.71945e-06 -2.72377e-07)
(-8.03787e-07 -4.35203e-06 -3.14311e-07)
(-2.63848e-07 -4.82745e-06 -1.98005e-07)
(5.21306e-07 -4.77751e-06 -7.13385e-08)
(1.45798e-06 -4.67582e-06 1.75159e-08)
(2.32219e-06 -4.50338e-06 7.74983e-08)
(3.06068e-06 -4.29202e-06 1.21544e-07)
(3.60177e-06 -4.03555e-06 1.57042e-07)
(3.90666e-06 -3.7436e-06 1.8912e-07)
(3.94627e-06 -3.43062e-06 2.1944e-07)
(3.71033e-06 -3.11709e-06 2.48064e-07)
(3.20794e-06 -2.82637e-06 2.73902e-07)
(2.46904e-06 -2.58189e-06 2.95381e-07)
(1.54346e-06 -2.40442e-06 3.10887e-07)
(4.97408e-07 -2.30928e-06 3.1914e-07)
(-5.9214e-07 -2.30436e-06 3.19454e-07)
(-1.64464e-06 -2.389e-06 3.11881e-07)
(-2.58376e-06 -2.55384e-06 2.9722e-07)
(-3.34455e-06 -2.78159e-06 2.76939e-07)
(-3.87943e-06 -3.04873e-06 2.52938e-07)
(-4.16179e-06 -3.3276e-06 2.27326e-07)
(-4.18743e-06 -3.58831e-06 2.02161e-07)
(-3.97348e-06 -3.80005e-06 1.79193e-07)
(-3.55596e-06 -3.93194e-06 1.59717e-07)
(-2.98568e-06 -3.95263e-06 1.44351e-07)
(-2.32331e-06 -3.82936e-06 1.32847e-07)
(-1.63451e-06 -3.52592e-06 1.23786e-07)
(-9.82568e-07 -2.99905e-06 1.13426e-07)
(-4.33874e-07 -2.18665e-06 9.48187e-08)
(-4.96618e-08 -9.75127e-07 4.97698e-08)
(-9.8728e-08 -2.5668e-06 -9.8627e-08)
(-5.56579e-08 -4.57083e-06 -8.15387e-08)
(4.74094e-07 -5.60478e-06 -2.11826e-08)
(1.21237e-06 -6.07353e-06 4.14585e-08)
(2.07149e-06 -6.28128e-06 9.2198e-08)
(2.89997e-06 -6.29059e-06 1.32239e-07)
(3.61858e-06 -6.15917e-06 1.67016e-07)
(4.14956e-06 -5.91568e-06 1.99598e-07)
(4.43955e-06 -5.59133e-06 2.32051e-07)
(4.45076e-06 -5.21791e-06 2.645e-07)
(4.16673e-06 -4.82993e-06 2.96037e-07)
(3.59397e-06 -4.46287e-06 3.24951e-07)
(2.7631e-06 -4.1507e-06 3.49191e-07)
(1.72754e-06 -3.92268e-06 3.66756e-07)
(5.59824e-07 -3.80031e-06 3.76098e-07)
(-6.55219e-07 -3.7947e-06 3.76382e-07)
(-1.82849e-06 -3.90519e-06 3.67646e-07)
(-2.87551e-06 -4.11931e-06 3.50805e-07)
(-3.72457e-06 -4.41381e-06 3.27546e-07)
(-4.32336e-06 -4.75704e-06 3.00052e-07)
(-4.64307e-06 -5.11185e-06 2.70724e-07)
(-4.6793e-06 -5.43802e-06 2.41839e-07)
(-4.45092e-06 -5.6944e-06 2.15296e-07)
(-3.99693e-06 -5.83988e-06 1.9249e-07)
(-3.37163e-06 -5.83292e-06 1.74061e-07)
(-2.63968e-06 -5.63009e-06 1.59711e-07)
(-1.87116e-06 -5.18241e-06 1.47913e-07)
(-1.13455e-06 -4.42751e-06 1.34561e-07)
(-5.05736e-07 -3.26707e-06 1.11953e-07)
(-5.85691e-08 -1.4966e-06 5.87001e-08)
(4.7273e-10 -2.6099e-06 5.9429e-10)
(2.86447e-07 -5.2365e-06 3.50921e-08)
(8.97078e-07 -6.78219e-06 7.34051e-08)
(1.67773e-06 -7.66758e-06 1.0936e-07)
(2.54483e-06 -8.1471e-06 1.41774e-07)
(3.38445e-06 -8.3243e-06 1.7187e-07)
(4.1121e-06 -8.27592e-06 2.02428e-07)
(4.64872e-06 -8.05432e-06 2.34693e-07)
(4.93364e-06 -7.70807e-06 2.69147e-07)
(4.92351e-06 -7.28401e-06 3.04976e-07)
(4.59757e-06 -6.82983e-06 3.40532e-07)
(3.96046e-06 -6.39293e-06 3.7353e-07)
(3.04357e-06 -6.01769e-06 4.01388e-07)
(1.90413e-06 -5.74217e-06 4.21634e-07)
(6.20872e-07 -5.59422e-06 4.32385e-07)
(-7.1345e-07 -5.58826e-06 4.32637e-07)
(-2.00124e-06 -5.72374e-06 4.22415e-07)
(-3.14989e-06 -5.98498e-06 4.02775e-07)
(-4.08105e-06 -6.34277e-06 3.75694e-07)
(-4.738e-06 -6.7572e-06 3.4377e-07)
(-5.08995e-06 -7.18152e-06 3.09778e-07)
(-5.13282e-06 -7.56533e-06 2.76326e-07)
(-4.88762e-06 -7.85725e-06 2.45584e-07)
(-4.39645e-06 -8.00596e-06 2.19072e-07)
(-3.71748e-06 -7.9595e-06 1.97507e-07)
(-2.91944e-06 -7.66302e-06 1.80556e-07)
(-2.07711e-06 -7.05283e-06 1.66579e-07)
(-1.26436e-06 -6.0437e-06 1.51087e-07)
(-5.65703e-07 -4.49322e-06 1.25557e-07)
(-6.57528e-08 -2.09057e-06 6.5912e-08)
(4.13759e-08 -3.03148e-06 4.15187e-08)
(4.73796e-07 -6.29353e-06 9.21749e-08)
(1.16637e-06 -8.29951e-06 1.24461e-07)
(2.00953e-06 -9.53669e-06 1.50454e-07)
(2.91616e-06 -1.02577e-05 1.7522e-07)
(3.78928e-06 -1.05909e-05 2.01561e-07)
(4.54277e-06 -1.06277e-05 2.3149e-07)
(5.09659e-06 -1.04373e-05 2.65622e-07)
(5.38538e-06 -1.00815e-05 3.03629e-07)
(5.36153e-06 -9.61995e-06 3.44131e-07)
(5.00077e-06 -9.11192e-06 3.84892e-07)
(4.30605e-06 -8.61571e-06 4.23017e-07)
(3.30969e-06 -8.18573e-06 4.5536e-07)
(2.07265e-06 -7.86852e-06 4.78924e-07)
(6.79984e-07 -7.69807e-06 4.91417e-07)
(-7.67524e-07 -7.69209e-06 4.91632e-07)
(-2.1637e-06 -7.85011e-06 4.79583e-07)
(-3.4078e-06 -8.15342e-06 4.56518e-07)
(-4.41483e-06 -8.56692e-06 4.24784e-07)
(-5.12389e-06 -9.04276e-06 3.87461e-07)
(-5.5027e-06 -9.52505e-06 3.47799e-07)
(-5.54802e-06 -9.95362e-06 3.08863e-07)
(-5.28342e-06 -1.02673e-05 2.7317e-07)
(-4.75449e-06 -1.0405e-05 2.42412e-07)
(-4.02364e-06 -1.03044e-05 2.17406e-07)
(-3.16383e-06 -9.89868e-06 1.97783e-07)
(-2.25449e-06 -9.10764e-06 1.81798e-07)
(-1.37457e-06 -7.81982e-06 1.64558e-07)
(-6.15913e-07 -5.84235e-06 1.36732e-07)
(-7.17058e-08 -2.74523e-06 7.18964e-08)
(6.23232e-08 -3.6126e-06 6.24897e-08)
(5.81014e-07 -7.57444e-06 1.23551e-07)
(1.34273e-06 -1.0047e-05 1.54459e-07)
(2.24733e-06 -1.16206e-05 1.76921e-07)
(3.20241e-06 -1.25757e-05 1.99069e-07)
(4.11723e-06 -1.30655e-05 2.24966e-07)
(4.90435e-06 -1.31965e-05 2.5648e-07)
(5.48227e-06 -1.30513e-05 2.94015e-07)
(5.78189e-06 -1.27031e-05 3.36819e-07)
(5.75168e-06 -1.22219e-05 3.83067e-07)
(5.3641e-06 -1.16771e-05 4.30017e-07)
(4.62037e-06 -1.11367e-05 4.74178e-07)
(3.55348e-06 -1.06641e-05 5.11782e-07)
(2.22796e-06 -1.03136e-05 5.39217e-07)
(7.35094e-07 -1.0125e-05 5.53716e-07)
(-8.16446e-07 -1.01193e-05 5.53896e-07)
(-2.31192e-06 -1.02959e-05 5.39768e-07)
(-3.64255e-06 -1.06333e-05 5.12743e-07)
(-4.71702e-06 -1.1091e-05 4.75597e-07)
(-5.47066e-06 -1.16136e-05 4.3202e-07)
(-5.87005e-06 -1.21368e-05 3.85843e-07)
(-5.91347e-06 -1.25916e-05 3.40631e-07)
(-5.62757e-06 -1.2908e-05 2.99263e-07)
(-5.06191e-06 -1.30158e-05 2.63695e-07)
(-4.28313e-06 -1.2843e-05 2.34853e-07)
(-3.36834e-06 -1.23102e-05 2.12373e-07)
(-2.40117e-06 -1.13195e-05 1.94359e-07)
(-1.46483e-06 -9.73038e-06 1.75536e-07)
(-6.56849e-07 -7.29399e-06 1.45867e-07)
(-7.66172e-08 -3.4504e-06 7.6842e-08)
(7.32991e-08 -4.29283e-06 7.34911e-08)
(6.44986e-07 -9.00692e-06 1.41157e-07)
(1.45773e-06 -1.19613e-05 1.72423e-07)
(2.41167e-06 -1.38718e-05 1.94197e-07)
(3.40983e-06 -1.50643e-05 2.1625e-07)
(4.36341e-06 -1.57192e-05 2.43535e-07)
(5.18373e-06 -1.59591e-05 2.78004e-07)
(5.7874e-06 -1.58786e-05 3.1996e-07)
(6.10207e-06 -1.55605e-05 3.68469e-07)
(6.07248e-06 -1.50832e-05 4.21316e-07)
(5.6675e-06 -1.45242e-05 4.75264e-07)
(4.88616e-06 -1.39594e-05 5.26207e-07)
(3.76169e-06 -1.34599e-05 5.69672e-07)
(2.36162e-06 -1.30872e-05 6.01392e-07)
(7.83004e-07 -1.28862e-05 6.18135e-07)
(-8.57859e-07 -1.28808e-05 6.18279e-07)
(-2.4383e-06 -1.30707e-05 6.01833e-07)
(-3.84188e-06 -1.34315e-05 5.70421e-07)
(-4.97138e-06 -1.39177e-05 5.2731e-07)
(-5.75903e-06 -1.44673e-05 4.76817e-07)
(-6.17121e-06 -1.50086e-05 4.23395e-07)
(-6.20828e-06 -1.54652e-05 3.71234e-07)
(-5.90044e-06 -1.57597e-05 3.23635e-07)
(-5.30147e-06 -1.58141e-05 2.8283e-07)
(-4.48195e-06 -1.55471e-05 2.49836e-07)
(-3.52273e-06 -1.48671e-05 2.24288e-07)
(-2.51065e-06 -1.36578e-05 2.04199e-07)
(-1.53171e-06 -1.17471e-05 1.83942e-07)
(-6.87232e-07 -8.82614e-06 1.52824e-07)
(-8.03984e-08 -4.19557e-06 8.06609e-08)
(7.90821e-08 -5.029e-06 7.92908e-08)
(6.79856e-07 -1.05322e-05 1.50685e-07)
(1.52268e-06 -1.39833e-05 1.82539e-07)
(2.50686e-06 -1.62378e-05 2.04668e-07)
(3.53321e-06 -1.7677e-05 2.27786e-07)
(4.51396e-06 -1.85116e-05 2.57369e-07)
(5.35984e-06 -1.88809e-05 2.95491e-07)
(5.98601e-06 -1.88904e-05 3.42475e-07)
(6.31736e-06 -1.86309e-05 3.97197e-07)
(6.29494e-06 -1.81869e-05 4.57155e-07)
(5.88375e-06 -1.76418e-05 5.1861e-07)
(5.08008e-06 -1.70773e-05 5.76806e-07)
(3.91643e-06 -1.6571e-05 6.2658e-07)
(2.46233e-06 -1.61898e-05 6.6292e-07)
(8.19709e-07 -1.59835e-05 6.82051e-07)
(-8.8844e-07 -1.59786e-05 6.82168e-07)
(-2.5322e-06 -1.61747e-05 6.63272e-07)
(-3.98844e-06 -1.65454e-05 6.27171e-07)
(-5.1551e-06 -1.70402e-05 5.7765e-07)
(-5.9624e-06 -1.75919e-05 5.19735e-07)
(-6.37743e-06 -1.81228e-05 4.58659e-07)
(-6.40333e-06 -1.85508e-05 3.9918e-07)
(-6.07441e-06 -1.87929e-05 3.45026e-07)
(-5.44856e-06 -1.87652e-05 2.98728e-07)
(-4.59978e-06 -1.83786e-05 2.61435e-07)
(-3.61146e-06 -1.75299e-05 2.32767e-07)
(-2.57218e-06 -1.60839e-05 2.10595e-07)
(-1.56903e-06 -1.38354e-05 1.89068e-07)
(-7.04469e-07 -1.04122e-05 1.57041e-07)
(-8.27472e-08 -4.96817e-06 8.30524e-08)
(8.12091e-08 -5.79142e-06 8.1449e-08)
(6.89787e-07 -1.20998e-05 1.54032e-07)
(1.53839e-06 -1.60548e-05 1.86077e-07)
(2.52773e-06 -1.86594e-05 2.08784e-07)
(3.55945e-06 -2.03568e-05 2.33316e-07)
(4.54796e-06 -2.1389e-05 2.65523e-07)
(5.40499e-06 -2.19125e-05 3.07553e-07)
(6.04559e-06 -2.20429e-05 3.59761e-07)
(6.39258e-06 -2.18764e-05 4.20913e-07)
(6.3838e-06 -2.15017e-05 4.88254e-07)
(5.98015e-06 -2.10048e-05 5.57585e-07)
(5.17427e-06 -2.04713e-05 6.23484e-07)
(3.99651e-06 -1.99829e-05 6.80002e-07)
(2.51689e-06 -1.96104e-05 7.2136e-07)
(8.40608e-07 -1.94075e-05 7.43109e-07)
(-9.03909e-07 -1.94031e-05 7.43194e-07)
(-2.58077e-06 -1.95969e-05 7.21601e-07)
(-4.0615e-06 -1.99601e-05 6.80403e-07)
(-5.24068e-06 -2.04389e-05 6.24077e-07)
(-6.04807e-06 -2.09616e-05 5.58378e-07)
(-6.45306e-06 -2.14469e-05 4.89322e-07)
(-6.46262e-06 -2.18095e-05 4.22303e-07)
(-6.11535e-06 -2.19634e-05 3.61518e-07)
(-5.47265e-06 -2.18206e-05 3.09738e-07)
(-4.61105e-06 -2.12861e-05 2.68186e-07)
(-3.61478e-06 -2.02463e-05 2.36476e-07)
(-2.57197e-06 -1.85474e-05 2.12389e-07)
(-1.5684e-06 -1.59507e-05 1.89918e-07)
(-7.04759e-07 -1.20181e-05 1.57657e-07)
(-8.31917e-08 -5.75184e-06 8.354e-08)
(8.00808e-08 -6.55213e-06 8.03283e-08)
(6.74125e-07 -1.36569e-05 1.51401e-07)
(1.49981e-06 -1.81103e-05 1.82798e-07)
(2.46289e-06 -2.10661e-05 2.05853e-07)
(3.46966e-06 -2.30312e-05 2.31719e-07)
(4.439e-06 -2.428e-05 2.66347e-07)
(5.28605e-06 -2.49853e-05 3.12001e-07)
(5.92772e-06 -2.52715e-05 3.69093e-07)
(6.28642e-06 -2.52381e-05 4.36351e-07)
(6.29754e-06 -2.49749e-05 5.10843e-07)
(5.91789e-06 -2.45681e-05 5.88006e-07)
(5.13533e-06 -2.41031e-05 6.6183e-07)
(3.97641e-06 -2.36628e-05 7.25425e-07)
(2.50932e-06 -2.33202e-05 7.7215e-07)
(8.40198e-07 -2.31317e-05 7.96766e-07)
(-8.99099e-07 -2.31278e-05 7.9681e-07)
(-2.56833e-06 -2.33084e-05 7.72293e-07)
(-4.03563e-06 -2.36429e-05 7.25667e-07)
(-5.19467e-06 -2.40748e-05 6.62187e-07)
(-5.97713e-06 -2.45309e-05 5.8852e-07)
(-6.35637e-06 -2.49286e-05 5.11541e-07)
(-6.34424e-06 -2.51826e-05 4.37247e-07)
(-5.98357e-06 -2.52069e-05 3.70262e-07)
(-5.33849e-06 -2.49123e-05 3.13453e-07)
(-4.48625e-06 -2.42001e-05 2.68108e-07)
(-3.50961e-06 -2.29476e-05 2.33756e-07)
(-2.49365e-06 -2.09836e-05 2.08114e-07)
(-1.51982e-06 -1.80357e-05 1.8515e-07)
(-6.83556e-07 -1.36e-05 1.53566e-07)
(-8.11775e-08 -6.52558e-06 8.15769e-08)
(7.54337e-08 -7.28133e-06 7.5713e-08)
(6.29876e-07 -1.51445e-05 1.42295e-07)
(1.39912e-06 -2.00742e-05 1.71938e-07)
(2.29825e-06 -2.33726e-05 1.947e-07)
(3.2423e-06 -2.561e-05 2.21356e-07)
(4.15797e-06 -2.7092e-05 2.57734e-07)
(4.96689e-06 -2.80071e-05 3.06105e-07)
(5.5906e-06 -2.84866e-05 3.6708e-07)
(5.95357e-06 -2.86313e-05 4.39527e-07)
(5.99005e-06 -2.85283e-05 5.20497e-07)
(5.6534e-06 -2.82603e-05 6.05152e-07)
(4.92571e-06 -2.79094e-05 6.86925e-07)
(3.82736e-06 -2.7555e-05 7.58009e-07)
(2.42162e-06 -2.72695e-05 8.10747e-07)
(8.12377e-07 -2.71093e-05 8.38733e-07)
(-8.67869e-07 -2.71059e-05 8.38746e-07)
(-2.47684e-06 -2.72591e-05 8.10798e-07)
(-3.88203e-06 -2.75377e-05 7.58104e-07)
(-4.97951e-06 -2.78849e-05 6.87072e-07)
(-5.70601e-06 -2.82287e-05 6.05403e-07)
(-6.041e-06 -2.84894e-05 5.20934e-07)
(-6.00214e-06 -2.85854e-05 4.40122e-07)
(-5.63613e-06 -2.84343e-05 3.67857e-07)
(-5.00833e-06 -2.79491e-05 3.07055e-07)
(-4.1941e-06 -2.70298e-05 2.58858e-07)
(-3.27189e-06 -2.55463e-05 2.22655e-07)
(-2.32022e-06 -2.33112e-05 1.96147e-07)
(-1.41288e-06 -2.00199e-05 1.73437e-07)
(-6.3603e-07 -1.5104e-05 1.43648e-07)
(-7.60618e-08 -7.26304e-06 7.65056e-08)
(6.6873e-08 -7.9452e-06 6.716e-08)
(5.53536e-07 -1.64945e-05 1.25833e-07)
(1.2281e-06 -2.18582e-05 1.5229e-07)
(2.0195e-06 -2.54781e-05 1.73795e-07)
(2.85619e-06 -2.79837e-05 2.00176e-07)
(3.67618e-06 -2.971e-05 2.36889e-07)
(4.41143e-06 -3.08596e-05 2.86303e-07)
(4.99166e-06 -3.15685e-05 3.49192e-07)
(5.34658e-06 -3.19365e-05 4.24624e-07)
(5.41182e-06 -3.20455e-05 5.09899e-07)
(5.13818e-06 -3.19709e-05 6.00157e-07)
(4.50162e-06 -3.17859e-05 6.88547e-07)
(3.5144e-06 -3.15627e-05 7.66469e-07)
(2.23135e-06 -3.13676e-05 8.25092e-07)
(7.49392e-07 -3.12535e-05 8.56547e-07)
(-8.02489e-07 -3.12505e-05 8.56523e-07)
(-2.28385e-06 -3.13585e-05 8.25045e-07)
(-3.56578e-06 -3.15476e-05 7.66422e-07)
(-4.55129e-06 -3.17647e-05 6.88549e-07)
(-5.18565e-06 -3.19438e-05 6.00221e-07)
(-5.45669e-06 -3.20128e-05 5.10055e-07)
(-5.38835e-06 -3.18984e-05 4.24899e-07)
(-5.02972e-06 -3.15259e-05 3.49614e-07)
(-4.44505e-06 -3.08133e-05 2.86876e-07)
(-3.70458e-06 -2.96614e-05 2.37603e-07)
(-2.87868e-06 -2.7935e-05 2.01003e-07)
(-2.03558e-06 -2.54319e-05 1.74699e-07)
(-1.23779e-06 -2.18183e-05 1.53245e-07)
(-5.57633e-07 -1.64653e-05 1.26719e-07)
(-6.72184e-08 -7.93231e-06 6.77081e-08)
(5.40164e-08 -8.5062e-06 5.43098e-08)
(4.42204e-07 -1.76313e-05 1.0132e-07)
(9.80311e-07 -2.33636e-05 1.22947e-07)
(1.61575e-06 -2.72675e-05 1.41848e-07)
(2.29504e-06 -3.00245e-05 1.66397e-07)
(2.97114e-06 -3.19954e-05 2.01367e-07)
(3.5905e-06 -3.33947e-05 2.49031e-07)
(4.09501e-06 -3.43615e-05 3.10386e-07)
(4.42341e-06 -3.49924e-05 3.84953e-07)
(4.51641e-06 -3.53617e-05 4.70535e-07)
(4.32468e-06 -3.55336e-05 5.6261e-07)
(3.81887e-06 -3.55681e-05 6.54309e-07)
(3.00131e-06 -3.55242e-05 7.36497e-07)
(1.91448e-06 -3.54563e-05 7.99409e-07)
(6.42893e-07 -3.54083e-05 8.33683e-07)
(-6.94329e-07 -3.54056e-05 8.33649e-07)
(-1.96504e-06 -3.54483e-05 7.9934e-07)
(-3.05027e-06 -3.5511e-05 7.36376e-07)
(-3.86556e-06 -3.55497e-05 6.54177e-07)
(-4.3686e-06 -3.55104e-05 5.62522e-07)
(-4.55701e-06 -3.53343e-05 4.70546e-07)
(-4.46025e-06 -3.4961e-05 3.85055e-07)
(-4.12764e-06 -3.43268e-05 3.10575e-07)
(-3.61851e-06 -3.33576e-05 2.49328e-07)
(-2.9941e-06 -3.19571e-05 2.01772e-07)
(-2.31266e-06 -2.99868e-05 1.66903e-07)
(-1.62792e-06 -2.72323e-05 1.42434e-07)
(-9.87344e-07 -2.33339e-05 1.23565e-07)
(-4.45e-07 -1.76099e-05 1.01928e-07)
(-5.41847e-08 -8.49696e-06 5.47161e-08)
(3.66554e-08 -8.92426e-06 3.69446e-08)
(2.94923e-07 -1.84745e-05 6.83705e-08)
(6.53797e-07 -2.44849e-05 8.33136e-08)
(1.08342e-06 -2.86159e-05 9.79919e-08)
(1.55261e-06 -3.15907e-05 1.18579e-07)
(2.03285e-06 -3.37904e-05 1.48795e-07)
(2.4889e-06 -3.5438e-05 1.90713e-07)
(2.87923e-06 -3.66742e-05 2.45475e-07)
(3.1564e-06 -3.75908e-05 3.13044e-07)
(3.27047e-06 -3.82528e-05 3.91811e-07)
(3.17569e-06 -3.87101e-05 4.78023e-07)
(2.83959e-06 -3.90063e-05 5.65522e-07)
(2.25467e-06 -3.91818e-05 6.45369e-07)
(1.44775e-06 -3.92727e-05 7.07514e-07)
(4.84541e-07 -3.93081e-05 7.41867e-07)
(-5.34952e-07 -3.93059e-05 7.41795e-07)
(-1.49714e-06 -3.92657e-05 7.07381e-07)
(-2.30209e-06 -3.91703e-05 6.4516e-07)
(-2.88422e-06 -3.89906e-05 5.65313e-07)
(-3.21699e-06 -3.86905e-05 4.77816e-07)
(-3.30791e-06 -3.82296e-05 3.91662e-07)
(-3.18968e-06 -3.75648e-05 3.12939e-07)
(-2.90802e-06 -3.66457e-05 2.45464e-07)
(-2.51296e-06 -3.5408e-05 1.90803e-07)
(-2.05202e-06 -3.376e-05 1.48966e-07)
(-1.56686e-06 -3.15613e-05 1.18839e-07)
(-1.09289e-06 -2.85889e-05 9.83293e-08)
(-6.58999e-07 -2.44623e-05 8.36977e-08)
(-2.96828e-07 -1.84586e-05 6.87942e-08)
(-3.67065e-08 -8.91758e-06 3.72748e-08)
(1.49742e-08 -9.15953e-06 1.52829e-08)
(1.13761e-07 -1.89446e-05 2.73779e-08)
(2.53311e-07 -2.51168e-05 3.38136e-08)
(4.3017e-07 -2.93979e-05 4.24922e-08)
(6.38771e-07 -3.25371e-05 5.66984e-08)
(8.72239e-07 -3.49283e-05 7.87001e-08)
(1.11707e-06 -3.67993e-05 1.10007e-07)
(1.3523e-06 -3.82897e-05 1.5181e-07)
(1.54907e-06 -3.9486e-05 2.04485e-07)
(1.67189e-06 -4.04425e-05 2.67221e-07)
(1.68366e-06 -4.11944e-05 3.37347e-07)
(1.55254e-06 -4.17658e-05 4.09976e-07)
(1.26226e-06 -4.2176e-05 4.77462e-07)
(8.21791e-07 -4.24393e-05 5.30882e-07)
(2.70883e-07 -4.25668e-05 5.60797e-07)
(-3.20623e-07 -4.25651e-05 5.60723e-07)
(-8.70325e-07 -4.24336e-05 5.30725e-07)
(-1.30855e-06 -4.21661e-05 4.77195e-07)
(-1.59571e-06 -4.17524e-05 4.09656e-07)
(-1.72317e-06 -4.11776e-05 3.36993e-07)
(-1.70718e-06 -4.04228e-05 2.66944e-07)
(-1.57986e-06 -3.9464e-05 2.04247e-07)
(-1.37838e-06 -3.82662e-05 1.51665e-07)
(-1.13835e-06 -3.67749e-05 1.09944e-07)
(-8.8874e-07 -3.4904e-05 7.86957e-08)
(-6.50662e-07 -3.2514e-05 5.6785e-08)
(-4.37802e-07 -2.93771e-05 4.26579e-08)
(-2.57302e-07 -2.50996e-05 3.40804e-08)
(-1.15094e-07 -1.89326e-05 2.76908e-08)
(-1.49634e-08 -9.15461e-06 1.55615e-08)
(-1.03097e-08 -9.17668e-06 -1.00286e-08)
(-9.51949e-08 -1.89715e-05 -2.04213e-08)
(-2.07655e-07 -2.51667e-05 -2.41081e-08)
(-3.22284e-07 -2.95009e-05 -2.31465e-08)
(-4.16394e-07 -3.27302e-05 -1.77286e-08)
(-4.73461e-07 -3.52516e-05 -7.52478e-09)
(-4.82324e-07 -3.72932e-05 8.30865e-09)
(-4.39904e-07 -3.89912e-05 3.06262e-08)
(-3.52356e-07 -4.04249e-05 6.00496e-08)
(-2.35553e-07 -4.16379e-05 9.66372e-08)
(-1.13069e-07 -4.2651e-05 1.38993e-07)
(-1.17811e-08 -4.34705e-05 1.84419e-07)
(4.56707e-08 -4.40942e-05 2.27781e-07)
(4.89249e-08 -4.45156e-05 2.62946e-07)
(5.88244e-09 -4.47278e-05 2.83003e-07)
(-5.50891e-08 -4.47261e-05 2.82918e-07)
(-9.67804e-08 -4.45103e-05 2.62733e-07)
(-9.11462e-08 -4.40854e-05 2.27435e-07)
(-3.0375e-08 -4.34587e-05 1.84015e-07)
(7.49527e-08 -4.26364e-05 1.38567e-07)
(2.01886e-07 -4.16211e-05 9.62225e-08)
(3.23369e-07 -4.04063e-05 5.96917e-08)
(4.1574e-07 -3.89717e-05 3.03139e-08)
(4.62978e-07 -3.72733e-05 8.09546e-09)
(4.58798e-07 -3.52319e-05 -7.65414e-09)
(4.06116e-07 -3.27117e-05 -1.78021e-08)
(3.15894e-07 -2.94845e-05 -2.31119e-08)
(2.04494e-07 -2.51534e-05 -2.39679e-08)
(9.42875e-08 -1.89624e-05 -2.01925e-08)
(1.03906e-08 -9.17298e-06 -9.77193e-09)
(-3.80706e-08 -8.949e-06 -3.77848e-08)
(-3.21877e-07 -1.85031e-05 -7.27105e-08)
(-7.06494e-07 -2.45652e-05 -8.76108e-08)
(-1.13689e-06 -2.88397e-05 -9.57008e-08)
(-1.56107e-06 -3.20676e-05 -1.0099e-07)
(-1.93804e-06 -3.46373e-05 -1.05313e-07)
(-2.2304e-06 -3.67711e-05 -1.08816e-07)
(-2.40847e-06 -3.85989e-05 -1.11108e-07)
(-2.45244e-06 -4.01921e-05 -1.1142e-07)
(-2.35496e-06 -4.15853e-05 -1.08882e-07)
(-2.12172e-06 -4.27861e-05 -1.0312e-07)
(-1.7709e-06 -4.37859e-05 -9.4228e-08)
(-1.32944e-06 -4.45658e-05 -8.38137e-08)
(-8.2805e-07 -4.51034e-05 -7.40323e-08)
(-2.95353e-07 -4.53778e-05 -6.79299e-08)
(2.46935e-07 -4.53761e-05 -6.80373e-08)
(7.80963e-07 -4.50984e-05 -7.42878e-08)
(1.28485e-06 -4.45579e-05 -8.4189e-08)
(1.72973e-06 -4.37752e-05 -9.46908e-08)
(2.08465e-06 -4.2773e-05 -1.03596e-07)
(2.32246e-06 -4.15706e-05 -1.09363e-07)
(2.42474e-06 -4.01762e-05 -1.11854e-07)
(2.38566e-06 -3.85823e-05 -1.11496e-07)
(2.21237e-06 -3.67545e-05 -1.0912e-07)
(1.92461e-06 -3.46211e-05 -1.05528e-07)
(1.55187e-06 -3.20526e-05 -1.01123e-07)
(1.13139e-06 -2.88267e-05 -9.57336e-08)
(7.0392e-07 -2.45549e-05 -8.75426e-08)
(3.2123e-07 -1.84961e-05 -7.25274e-08)
(3.81801e-08 -8.94622e-06 -3.75509e-08)
(-6.65198e-08 -8.46353e-06 -6.62654e-08)
(-5.52262e-07 -1.75149e-05 -1.26342e-07)
(-1.21267e-06 -2.32801e-05 -1.52863e-07)
(-1.96399e-06 -2.7373e-05 -1.70586e-07)
(-2.72542e-06 -3.04963e-05 -1.87552e-07)
(-3.43169e-06 -3.3018e-05 -2.07914e-07)
(-4.01887e-06 -3.51479e-05 -2.32946e-07)
(-4.42981e-06 -3.70066e-05 -2.62702e-07)
(-4.61711e-06 -3.86583e-05 -2.9624e-07)
(-4.54784e-06 -4.01283e-05 -3.31889e-07)
(-4.20752e-06 -4.14156e-05 -3.67382e-07)
(-3.60367e-06 -4.25018e-05 -3.99966e-07)
(-2.76625e-06 -4.33579e-05 -4.27055e-07)
(-1.74629e-06 -4.39524e-05 -4.46251e-07)
(-6.11072e-07 -4.42573e-05 -4.56091e-07)
(5.6381e-07 -4.42558e-05 -4.56182e-07)
(1.70032e-06 -4.3948e-05 -4.46505e-07)
(2.72268e-06 -4.33509e-05 -4.27454e-07)
(3.56348e-06 -4.24922e-05 -4.00424e-07)
(4.17147e-06 -4.14041e-05 -3.67866e-07)
(4.51638e-06 -4.01154e-05 -3.32408e-07)
(4.59042e-06 -3.86445e-05 -2.96725e-07)
(4.408e-06 -3.69925e-05 -2.63112e-07)
(4.00184e-06 -3.51339e-05 -2.33319e-07)
(3.41913e-06 -3.30047e-05 -2.08197e-07)
(2.71697e-06 -3.04842e-05 -1.87726e-07)
(1.95907e-06 -2.73626e-05 -1.70673e-07)
(1.21046e-06 -2.32719e-05 -1.5284e-07)
(5.518e-07 -1.75094e-05 -1.26177e-07)
(6.6662e-08 -8.46143e-06 -6.60312e-08)
(-9.36198e-08 -7.7247e-06 -9.33771e-08)
(-7.69726e-07 -1.60173e-05 -1.77374e-07)
(-1.68982e-06 -2.13246e-05 -2.14993e-07)
(-2.74455e-06 -2.51143e-05 -2.42134e-07)
(-3.82698e-06 -2.80269e-05 -2.70685e-07)
(-4.84915e-06 -3.03993e-05 -3.06997e-07)
(-5.72139e-06 -3.24229e-05 -3.53353e-07)
(-6.35964e-06 -3.42069e-05 -4.10307e-07)
(-6.68916e-06 -3.58072e-05 -4.76711e-07)
(-6.65146e-06 -3.72425e-05 -5.49992e-07)
(-6.21212e-06 -3.8507e-05 -6.26037e-07)
(-5.36751e-06 -3.95782e-05 -6.99127e-07)
(-4.15023e-06 -4.04242e-05 -7.62728e-07)
(-2.63114e-06 -4.10125e-05 -8.10015e-07)
(-9.15179e-07 -4.13143e-05 -8.35282e-07)
(8.69488e-07 -4.13129e-05 -8.35347e-07)
(2.58667e-06 -4.10086e-05 -8.10199e-07)
(4.10814e-06 -4.0418e-05 -7.63031e-07)
(5.32863e-06 -3.95696e-05 -6.99526e-07)
(6.17722e-06 -3.84968e-05 -6.26476e-07)
(6.62098e-06 -3.72311e-05 -5.50448e-07)
(6.66337e-06 -3.57952e-05 -4.77173e-07)
(6.33867e-06 -3.41949e-05 -4.10718e-07)
(5.70509e-06 -3.24111e-05 -3.53731e-07)
(4.83723e-06 -3.03882e-05 -3.0731e-07)
(3.81906e-06 -2.80171e-05 -2.70923e-07)
(2.74001e-06 -2.51061e-05 -2.4227e-07)
(1.68783e-06 -2.13183e-05 -2.15006e-07)
(7.69348e-07 -1.60132e-05 -1.77232e-07)
(9.37665e-08 -7.72315e-06 -9.3152e-08)
(-1.16999e-07 -6.75654e-06 -1.1678e-07)
(-9.55714e-07 -1.40602e-05 -2.21384e-07)
(-2.09842e-06 -1.87638e-05 -2.68632e-07)
(-3.41581e-06 -2.2138e-05 -3.04024e-07)
(-4.77921e-06 -2.47413e-05 -3.42839e-07)
(-6.08072e-06 -2.68688e-05 -3.93394e-07)
(-7.2074e-06 -2.86895e-05 -4.58784e-07)
(-8.05015e-06 -3.02995e-05 -5.39879e-07)
(-8.50898e-06 -3.17465e-05 -6.35371e-07)
(-8.5024e-06 -3.30454e-05 -7.41716e-07)
(-7.97759e-06 -3.41889e-05 -8.5301e-07)
(-6.92134e-06 -3.51554e-05 -9.61006e-07)
(-5.36926e-06 -3.59166e-05 -1.05581e-06)
(-3.41025e-06 -3.64438e-05 -1.12685e-06)
(-1.18266e-06 -3.67136e-05 -1.16502e-06)
(1.13919e-06 -3.67123e-05 -1.16507e-06)
(3.36784e-06 -3.64402e-05 -1.12703e-06)
(5.32897e-06 -3.59108e-05 -1.05607e-06)
(6.88404e-06 -3.51478e-05 -9.61345e-07)
(7.94404e-06 -3.418e-05 -8.53416e-07)
(8.47306e-06 -3.30357e-05 -7.4214e-07)
(8.4842e-06 -3.17363e-05 -6.35801e-07)
(8.02999e-06 -3.02894e-05 -5.40303e-07)
(7.19173e-06 -2.86797e-05 -4.59168e-07)
(6.06934e-06 -2.68598e-05 -3.93721e-07)
(4.77166e-06 -2.47334e-05 -3.43098e-07)
(3.4115e-06 -2.21316e-05 -3.04151e-07)
(2.09664e-06 -1.87589e-05 -2.68652e-07)
(9.55429e-07 -1.40571e-05 -2.21264e-07)
(1.17154e-07 -6.75543e-06 -1.16562e-07)
(-1.34119e-07 -5.60441e-06 -1.33927e-07)
(-1.09125e-06 -1.17349e-05 -2.5356e-07)
(-2.39882e-06 -1.57167e-05 -3.07734e-07)
(-3.91573e-06 -1.85824e-05 -3.4914e-07)
(-5.49812e-06 -2.07925e-05 -3.95713e-07)
(-7.02179e-06 -2.25945e-05 -4.57237e-07)
(-8.35406e-06 -2.41321e-05 -5.37513e-07)
(-9.36428e-06 -2.5487e-05 -6.37591e-07)
(-9.93103e-06 -2.67001e-05 -7.55782e-07)
(-9.95332e-06 -2.77839e-05 -8.87636e-07)
(-9.36369e-06 -2.87323e-05 -1.02582e-06)
(-8.14181e-06 -2.95283e-05 -1.16004e-06)
(-6.32642e-06 -3.01507e-05 -1.27786e-06)
(-4.02136e-06 -3.0579e-05 -1.36617e-06)
(-1.39199e-06 -3.07969e-05 -1.41368e-06)
(1.35121e-06 -3.07959e-05 -1.41372e-06)
(3.98151e-06 -3.05759e-05 -1.3663e-06)
(6.28847e-06 -3.01458e-05 -1.27806e-06)
(8.10658e-06 -2.95218e-05 -1.16031e-06)
(9.33186e-06 -2.87247e-05 -1.02614e-06)
(9.9254e-06 -2.77757e-05 -8.87997e-07)
(9.90738e-06 -2.66916e-05 -7.56171e-07)
(9.345e-06 -2.54786e-05 -6.37975e-07)
(8.3391e-06 -2.41241e-05 -5.37865e-07)
(7.01096e-06 -2.25873e-05 -4.57541e-07)
(5.49095e-06 -2.07863e-05 -3.95982e-07)
(3.91167e-06 -1.85774e-05 -3.49296e-07)
(2.39713e-06 -1.5713e-05 -3.07772e-07)
(1.09098e-06 -1.17327e-05 -2.53455e-07)
(1.34269e-07 -5.6037e-06 -1.33723e-07)
(-1.42235e-07 -4.33563e-06 -1.42065e-07)
(-1.15706e-06 -9.17448e-06 -2.68601e-07)
(-2.55279e-06 -1.23546e-05 -3.25585e-07)
(-4.18678e-06 -1.46455e-05 -3.69447e-07)
(-5.90785e-06 -1.64019e-05 -4.19882e-07)
(-7.57983e-06 -1.78204e-05 -4.87656e-07)
(-9.05457e-06 -1.90185e-05 -5.77085e-07)
(-1.01845e-05 -2.00638e-05 -6.89206e-07)
(-1.08321e-05 -2.09907e-05 -8.21963e-07)
(-1.08818e-05 -2.18105e-05 -9.70145e-07)
(-1.02561e-05 -2.25202e-05 -1.12531e-06)
(-8.93001e-06 -2.31092e-05 -1.27578e-06)
(-6.94523e-06 -2.35646e-05 -1.40762e-06)
(-4.41633e-06 -2.38747e-05 -1.50623e-06)
(-1.52682e-06 -2.40315e-05 -1.5592e-06)
(1.48931e-06 -2.40307e-05 -1.55921e-06)
(4.37962e-06 -2.38722e-05 -1.50632e-06)