/*--------------------------------*- C++ -*----------------------------------*\
| =========                 |                                                 |
| \\      /  F ield         | OpenFOAM: The Open Source CFD Toolbox           |
|  \\    /   O peration     | Version:  v1906                                 |
|   \\  /    A nd           | Web:      www.OpenFOAM.com                      |
|    \\/     M anipulation  |                                                 |
\*---------------------------------------------------------------------------*/
FoamFile
{
    version     2.0;
    format      ascii;
    class       volScalarField;
    location    "53.6/sphere";
    object      T;
}
// * * * * * * * * * * * * * * * * * * * * * * * * * * * * * * * * * * * * * //

dimensions      [0 0 0 1 0 0 0];


internalField   nonuniform List<scalar> 
304
(
471.021
471.049
471.045
471.062
471.02
471.015
471.018
471.048
471.019
471.165
471.165
471.061
471.045
471.162
471.162
471.09
471.055
471.087
471.015
471.047
471.063
471.018
471.049
471.165
471.165
471.091
471.063
471.162
471.162
471.116
471.013
471.087
471.114
471.049
471.019
471.064
471.091
471.025
471.023
471.09
471.116
471.051
471.015
471.049
471.002
471.008
471.021
471.02
471.022
471.055
471.021
471.02
471.055
471.022
471.008
471.022
471.025
471.022
471.056
471.049
471.049
471.063
471.063
471.092
471.092
471.117
471.02
471.064
471.049
471.092
471.062
471.117
471.092
471.022
471.024
471.056
471.022
471.017
471.017
471.051
471.014
471.061
471.011
471.043
471.088
471.115
471.054
471.086
471.047
471.044
471.014
471.116
471.09
471.088
471.056
471.053
471.019
471.015
471
471.013
471.013
471.048
471.014
471.048
471.015
471.013
471
471.021
471.018
471.019
471.054
471.048
471.061
471.092
471.047
471.063
471.091
471.118
471.019
471.092
471.062
471.064
471.048
471.118
471.091
471.022
471.019
471.054
471.02
471.062
471.048
471.092
471.048
471.092
471.064
471.117
471.019
471.092
471.049
471.092
471.049
471.117
471.064
471.088
471.012
471.055
471.062
471.116
471.043
471.087
471.047
471.056
471.013
471.116
471.062
471.088
471.044
471.016
471.014
471.049
471.014
471.087
471.014
471.044
471.087
471.114
471.043
471.061
471.055
471.044
471.013
471.114
471.087
471.061
471.044
471.048
471.013
471.013
471.018
471.02
471.054
471.024
471.063
471.091
471.117
471.018
471.047
471.062
471.091
471.047
471.117
471.091
471.047
471.016
471.091
471.059
471.053
471.019
471.02
471.093
471.064
471.117
471.022
471.065
471.05
471.093
471.049
471.117
471.064
471.062
471.021
471.092
471.049
471.116
471.044
471.087
471.049
471.091
471.015
471.057
471.063
471.088
471.044
471.089
471.047
471.056
471.014
471.048
471.014
471.016
471.114
471.044
471.061
471.056
471.087
471.014
471.045
471.087
471.061
471.045
471.088
471.057
471.045
471.017
471.015
471.014
471.017
471.011
471.018
471.023
471.054
471.019
471.053
471.021
471.019
471.006
471.027
471.023
471.057
471.023
471.092
471.093
471.117
471.023
471.049
471.05
471.064
471.062
471.117
471.092
471.048
471.018
471.064
471.048
471.055
471.022
471.02
471.054
471.018
471.019
471.116
471.056
471.088
471.047
471.062
471.013
471.044
471.089
471.088
471.057
471.062
471.046
471.044
471.014
471.018
471.015
471.017
471.003
471.049
471.015
471.014
471.016
471.015
471.014
)
;

boundaryField
{
    sphere_to_oil
    {
        type            compressible::turbulentTemperatureCoupledBaffleMixed;
        refValue        nonuniform List<scalar> 
360
(
337.822
337.822
321.826
360.858
369.299
323.888
370.388
370.388
370.388
346.713
346.713
326.729
330.459
319.136
345.232
358.412
354.839
354.839
354.839
321.287
353.54
330.642
333.361
363.485
316.733
363.803
321.853
363.673
363.673
363.673
371.101
362.73
321.815
321.465
326.502
326.639
355.817
355.817
355.817
355.082
361.776
327.694
326.847
338.188
338.188
321.693
328.859
314.111
336.677
364.174
323.848
323.917
329.938
330.388
321.097
330.486
355.579
321.407
326.943
332.093
319.671
364.947
364.947
364.947
314.147
363.452
336.593
325.654
368.918
368.918
368.918
369.823
368.323
318.33
353.427
344.524
320.132
332.364
361.764
355.931
334.223
325.448
333.789
319.553
321.778
323.573
326.826
330.264
319.72
321.5
321.908
329.584
326.525
322.135
329.329
326.576
326.921
326.937
323.087
316.543
316.636
320.764
323.86
326.544
329.565
320.614
319.082
330.43
322.916
326.97
326.943
326.819
323.076
321.234
314.383
314.338
330.282
325.73
331.601
337.564
337.564
360.858
360.858
363.485
363.485
361.567
361.567
361.567
362.904
362.904
362.904
330.849
325.947
330.252
321.726
369.299
369.299
342.958
342.958
371.101
371.101
341.799
341.799
370.307
370.307
370.307
321.469
320.715
358.893
358.893
358.893
358.738
358.738
358.738
358.412
353.54
345.232
358.412
357.815
320.568
357.815
357.815
333.394
334.112
325.56
330.64
330.64
363.248
363.248
363.248
319.776
353.54
330.642
362.244
362.244
319.621
362.244
334.02
325.443
314.185
321.829
322.135
329.368
316.625
328.895
322.099
314.223
316.54
363.803
363.803
362.73
362.73
338.458
338.458
360.912
360.912
360.912
336.523
336.523
316.398
326.145
324.1
329.757
326.298
323.631
329.67
322.837
330.505
326.998
322.789
355.082
330.435
327.191
321.389
362.666
362.666
362.666
331.395
331.395
319.634
327.035
326.923
331.977
361.776
327.602
331.843
327.144
355.082
361.776
331.231
321.379
331.231
320.008
314.331
328.789
316.69
322.015
321.894
322.155
316.5
316.205
364.884
359.762
364.884
364.884
359.762
359.762
364.174
363.452
336.677
362.3
316.48
364.174
362.3
362.3
329.112
321.424
326.367
329.509
322.118
369.823
326.36
326.798
326.88
323.038
355.579
353.427
327.009
326.776
322.999
355.079
357.899
330.486
362.185
319.814
355.579
362.185
362.185
332.475
327.589
361.764
327.003
326.913
326.776
362.143
327.341
361.859
331.122
355.079
331.122
362.143
355.079
362.143
314.076
325.784
329.732
329.963
337.13
360.971
337.13
360.971
360.971
316.415
363.452
362.052
336.593
362.052
316.391
362.052
330.99
330.586
320.146
367.882
342.484
367.882
367.882
342.484
320.616
323.593
326.262
329.504
368.323
369.823
342.043
321.387
368.323
342.043
320.673
353.427
358.664
344.524
358.664
319.391
358.664
330.555
355.931
323.127
327.165
357.724
355.53
357.899
344.207
357.899
357.724
344.207
357.724
325.079
333.621
361.764
330.62
319.648
355.931
330.62
321.602
361.859
355.53
361.859
331.067
355.53
331.067
)
;
        refGradient     uniform 0;
        valueFraction   nonuniform List<scalar> 
360
(
0.000135481
0.000129975
8.32111e-05
0.000297264
0.00030487
0.000174818
0.000306765
0.000263317
0.000409863
0.000130498
0.000127233
0.000170688
0.000260135
7.43782e-05
0.000133051
0.000258639
0.000296395
0.000276938
0.000388606
6.80605e-05
0.000255154
0.000125436
0.000115608
0.000306784
8.90712e-05
0.000315338
0.000177751
0.000311266
0.000407351
0.000272491
0.000311316
0.000313998
8.43152e-05
8.33733e-05
0.000174963
0.00017218
0.000291351
0.000394984
0.000271229
0.000407817
0.000402837
8.60171e-05
0.000170616
0.000124522
0.000124373
0.000175635
0.000262767
7.01052e-05
0.00012544
0.000265993
0.000173261
0.000174387
0.000259941
0.000257415
7.27263e-05
0.000133044
0.00027131
6.96699e-05
0.000172595
0.000257375
6.81944e-05
0.000302994
0.00026747
0.000418619
7.03056e-05
0.000273479
0.000127566
0.000123382
0.000309993
0.000404398
0.000272027
0.000389968
0.000395427
7.55223e-05
0.000263658
0.000133754
6.96294e-05
0.000124857
0.000394595
0.000409914
0.000122461
0.00012015
0.000118013
7.01369e-05
8.45771e-05
0.00017147
0.00017243
0.000261127
7.88241e-05
6.65557e-05
8.3704e-05
0.000260701
0.000172104
8.55043e-05
0.000260271
0.000174069
0.000173039
0.000173306
8.45119e-05
6.77408e-05
6.86911e-05
6.77767e-05
0.000174241
0.000171255
0.000260504
7.66961e-05
6.66187e-05
0.000260316
8.26979e-05
0.000171525
0.000171557
0.000175057
8.56011e-05
6.85455e-05
6.68493e-05
6.81408e-05
0.000118609
0.000118751
0.000123365
0.000133771
0.000125726
0.000259781
0.000409237
0.000273697
0.000413
0.000264734
0.000407009
0.000303042
0.000264949
0.00039815
0.000298448
0.000121733
0.000115122
0.000117914
6.50926e-05
0.000269959
0.000406454
0.000125756
0.000126331
0.000410758
0.000273106
0.000131829
0.000138941
0.000405702
0.000278702
0.000321146
7.16383e-05
6.66673e-05
0.00028139
0.000389936
0.000309083
0.000289726
0.000403437
0.000309051
0.000319085
0.000293917
0.000137486
0.000409803
0.000264708
7.38012e-05
0.000398302
0.000298061
0.000113747
0.000119838
0.000118554
0.000125068
0.000130737
0.000407754
0.000268483
0.000315143
7.5562e-05
0.000392243
0.000134498
0.000412453
0.000264038
7.38077e-05
0.00031307
0.000114757
0.000115822
6.767e-05
0.000177371
0.000177301
0.000262168
8.74251e-05
0.000262564
0.000172763
6.69752e-05
6.50351e-05
0.000410285
0.000260692
0.000405469
0.000270331
0.000128948
0.00012059
0.00040736
0.000254596
0.000294288
0.000119199
0.000138308
6.95814e-05
0.000174253
0.000174095
0.000260112
0.000170314
0.000171191
0.000259088
8.88036e-05
0.000259977
0.000176275
8.63589e-05
0.000292621
0.000259689
0.000175219
6.98298e-05
0.000398463
0.000258317
0.000302232
0.000125914
0.000117012
6.75896e-05
0.000172899
0.000175807
0.000260667
0.000296366
8.28879e-05
0.000258193
0.000168627
0.000256487
0.000271529
0.000123256
6.9231e-05
0.000136772
7.0087e-05
6.59732e-05
0.000263576
8.79611e-05
0.000177198
0.00017515
0.000173062
8.68554e-05
6.63455e-05
0.000269494
0.000252522
0.000423926
0.00031555
0.0003955
0.000284167
0.000304576
0.000311843
0.000138614
0.000267523
7.20769e-05
0.000407102
0.000395846
0.000300759
0.000262323
8.35859e-05
0.000170688
0.000259307
8.43345e-05
0.000308981
0.000171427
0.000172653
0.000171062
8.38242e-05
0.00030668
0.000287386
0.000174527
0.000170014
8.54382e-05
0.000287951
0.000316958
0.000125701
0.000284527
6.75744e-05
0.000405364
0.000393001
0.000296955
0.000257384
8.45528e-05
0.000297422
0.00017126
0.000171524
0.0001725
0.000299042
8.53451e-05
0.000305532
0.000128562
0.000263427
0.000129634
0.00026844
0.000409083
0.000401602
6.75422e-05
0.000135348
0.000133749
0.000130819
0.000119134
0.000398578
0.000130118
0.000264979
0.000312026
6.65578e-05
0.000402469
0.000401983
0.000131595
0.00028582
6.97499e-05
0.00030642
0.000116667
0.000114612
6.96922e-05
0.000394197
0.000117811
0.00025852
0.000304469
0.000126304
6.88535e-05
0.000171325
0.000171266
0.000258436
0.000295713
0.00025649
0.000124009
6.67517e-05
0.000260786
0.000137731
7.70935e-05
0.000377922
0.000405812
0.000119936
0.000257783
7.147e-05
0.000324201
0.000260417
0.000312013
8.53547e-05
0.000172062
0.00030082
0.000291639
0.000274368
0.000122635
0.000401907
0.000401043
0.000145577
0.000268073
0.000117946
0.000119756
0.000269879
0.000133596
7.22317e-05
0.000272947
0.000128641
6.67051e-05
0.000397256
0.000402026
0.00026452
0.000128372
0.000259833
0.000132605
)
;
        value           nonuniform List<scalar> 
360
(
471.022
471.022
471.028
471.007
471.009
471.042
471.008
471.014
471.003
471.02
471.021
471.04
471.045
471.029
471.023
471.011
470.996
471
470.987
471.024
471.004
471.017
471.003
471.005
471.024
471.004
471.041
471.005
470.997
471.009
471.007
471.004
471.026
471.026
471.039
471.041
470.998
470.989
471.002
470.987
470.99
471.021
471.039
471.021
471.023
471.04
471.045
471.027
471.021
471.009
471.043
471.042
471.046
471.046
471.021
471.013
471.001
471.024
471.038
471.045
471.023
471.005
471.009
470.998
471.028
471.009
471.022
471.008
471.01
471.005
471.015
471.005
471.004
471.031
471.012
471.026
471.027
471.005
470.992
470.987
471.005
471.004
471.006
471.024
471.029
471.042
471.041
471.045
471.024
471.023
471.027
471.046
471.044
471.025
471.046
471.042
471.04
471.039
471.02
471.029
471.029
471.031
471.043
471.043
471.046
471.029
471.026
471.044
471.018
471.038
471.042
471.038
471.02
471.022
471.029
471.029
471.01
471.01
471.01
471.022
471.023
471.011
470.997
471.01
470.997
471.011
470.997
471.006
471.011
470.999
471.006
471.01
471.01
471.01
471.032
471.014
471.003
471.025
471.025
471.003
471.014
471.024
471.024
471.003
471.014
471.006
471.031
471.026
471.005
470.989
470.995
471.004
470.988
470.997
470.997
470.998
471.021
470.988
471.008
471.027
470.989
470.999
471.004
471.003
471.002
471.015
471.015
470.989
471.004
470.999
471.022
470.988
471.014
470.989
471.004
471.022
470.998
471.003
471.002
471.027
471.041
471.04
471.045
471.025
471.046
471.041
471.028
471.029
470.997
471.01
470.997
471.01
471.021
471.023
470.996
471.012
471.006
471.023
471.021
471.029
471.042
471.042
471.046
471.044
471.043
471.046
471.018
471.045
471.037
471.02
470.999
471.045
471.038
471.022
470.992
471.005
471
471.015
471.017
471.023
471.038
471.038
471.044
471
471.021
471.044
471.039
471.003
471.003
471.015
471.022
471.013
471.022
471.027
471.045
471.024
471.04
471.04
471.041
471.022
471.029
471.009
471.012
470.999
471.004
471
471.01
471.003
471.002
471.02
471.01
471.028
470.996
470.996
471.007
471.046
471.029
471.045
471.047
471.027
471.009
471.044
471.039
471.043
471.022
470.999
471
471.039
471.042
471.02
471
470.997
471.015
471.002
471.023
470.988
470.992
471.001
471.044
471.021
471.001
471.039
471.04
471.04
471.003
471.024
471.003
471.016
471.003
471.016
471.004
470.988
470.992
471.027
471.01
471.011
471.012
471.022
470.998
471.021
471.009
471.008
471.028
470.997
470.996
471.02
471.007
471.027
471.004
471.009
471.01
471.032
471.006
471.027
471.016
471.011
471.026
471.032
471.043
471.045
471.047
471.007
471.015
471.025
471.031
471.013
471.022
471.028
470.992
470.991
471.023
471.01
471.028
470.996
471.045
470.996
471.02
471.039
470.999
470.999
471.006
471.022
470.989
470.989
471.018
471.006
471.005
471.006
471.005
471.015
471.023
471.002
471.016
471.024
470.992
470.989
471.005
471.016
471.003
471.015
)
;
        Tnbr            T;
        thicknessLayers 0();
        kappaLayers     0();
        kappaMethod     solidThermo;
        kappa           none;
        alphaAni        none;
    }
}


// ************************************************************************* //
