/*--------------------------------*- C++ -*----------------------------------*\
| =========                 |                                                 |
| \\      /  F ield         | OpenFOAM: The Open Source CFD Toolbox           |
|  \\    /   O peration     | Version:  v1906                                 |
|   \\  /    A nd           | Web:      www.OpenFOAM.com                      |
|    \\/     M anipulation  |                                                 |
\*---------------------------------------------------------------------------*/
FoamFile
{
    version     2.0;
    format      ascii;
    class       volScalarField;
    location    "15";
    object      k;
}
// * * * * * * * * * * * * * * * * * * * * * * * * * * * * * * * * * * * * * //

dimensions      [0 2 -2 0 0 0 0];


internalField   nonuniform List<scalar> 
78750
(
0.000436385
8.80144e-05
0.000205601
0.000177688
0.000186831
0.000186615
0.000188295
0.000189269
0.000190149
0.000190985
0.00019202
0.000193186
0.000194298
0.000195217
0.00019585
0.00019615
0.000196096
0.000195646
0.000194735
0.000193297
0.000191253
0.000188533
0.000185083
0.000180825
0.000175657
0.000169456
0.000162087
0.000153415
0.000143304
0.000131672
0.000118564
0.000103671
8.23958e-05
5.05562e-05
1.84298e-05
7.61957e-05
0.000218993
0.000267763
0.000286074
0.000291144
0.00029327
0.000294338
0.000295307
0.000296706
0.000298809
0.000301573
0.000304596
0.000307404
0.000309774
0.000311553
0.000312581
0.000312729
0.000311872
0.000309878
0.000306599
0.000301868
0.000295527
0.00028741
0.000277286
0.000264871
0.000249839
0.000231822
0.000210418
0.000185279
0.000156697
0.000126762
9.85784e-05
7.48313e-05
5.46825e-05
4.08766e-05
9.6897e-05
0.000160609
0.000185731
0.000193975
0.000198034
0.000203625
0.00021121
0.000220408
0.000230695
0.000241502
0.000252128
0.000262048
0.000270969
0.000278733
0.000285271
0.000290518
0.000294414
0.0002969
0.0002979
0.000297305
0.000294961
0.000290646
0.000284048
0.000274727
0.00026205
0.00024509
0.000222514
0.000192684
0.000154191
0.000108446
6.50852e-05
3.9724e-05
3.69501e-05
4.0647e-05
4.13999e-05
9.51476e-05
0.000143547
0.000167966
0.00018408
0.000194101
0.000199937
0.000204988
0.000212871
0.000225134
0.000241021
0.000258271
0.000274877
0.000289654
0.000302135
0.000312259
0.000320134
0.000325902
0.000329664
0.000331461
0.000331278
0.000329042
0.000324603
0.000317727
0.000308052
0.000294993
0.00027768
0.000254911
0.000225119
0.000186362
0.000137417
8.35594e-05
4.28639e-05
3.02214e-05
3.17326e-05
3.09435e-05
9.03483e-05
0.000133923
0.000151868
0.000157319
0.000152121
0.000140763
0.000131965
0.000134646
0.000151842
0.000178902
0.000208728
0.000236429
0.000260018
0.000279195
0.000294318
0.000305897
0.000314419
0.000320253
0.000323605
0.000324568
0.00032315
0.000319284
0.000312839
0.000303529
0.000290874
0.000274182
0.000252536
0.000225082
0.000191321
0.000150969
0.000105107
6.33365e-05
4.14226e-05
3.69316e-05
3.69195e-05
6.55763e-05
0.000115325
0.000135255
0.000143618
0.000142727
0.000130398
0.000113138
0.000108676
0.00013041
0.000169427
0.000211377
0.00024794
0.000276998
0.000299276
0.000316058
0.000328442
0.00033721
0.000342878
0.000345662
0.000345648
0.000342853
0.000337238
0.000328747
0.000317065
0.000301664
0.000281927
0.000257242
0.000227437
0.000193997
0.00016093
0.000129643
9.81577e-05
7.24037e-05
5.69297e-05
4.19479e-05
5.24642e-05
0.000101236
0.000120429
0.000122478
0.000108511
8.51563e-05
7.86817e-05
0.000106678
0.000156493
0.000206039
0.000245046
0.000273661
0.000294886
0.000311148
0.000323751
0.000333338
0.000340167
0.000344163
0.00034534
0.000343699
0.000339163
0.000331532
0.000320455
0.000305532
0.000285921
0.000260692
0.000228925
0.000189637
0.000143305
9.84833e-05
7.18463e-05
6.5089e-05
6.36345e-05
5.74711e-05
4.24606e-05
5.47438e-05
8.5069e-05
9.42597e-05
8.77167e-05
7.31135e-05
7.16202e-05
9.91231e-05
0.00014622
0.000192205
0.00022927
0.000259005
0.000283804
0.000304671
0.000321927
0.000335718
0.000346237
0.000353382
0.000357271
0.000357993
0.000355567
0.000349896
0.000340729
0.000327595
0.000309858
0.000286963
0.000258697
0.000225879
0.000189032
0.000146577
0.000100625
6.57356e-05
5.26812e-05
5.2015e-05
4.79929e-05
3.51029e-05
5.69391e-05
7.42698e-05
7.6152e-05
6.55802e-05
5.62965e-05
7.13468e-05
0.000112812
0.000163431
0.00020903
0.000246142
0.000275675
0.000299122
0.000317781
0.000332654
0.000344387
0.000352875
0.000358207
0.000360426
0.000359475
0.000355209
0.000347357
0.00033544
0.00031862
0.000295676
0.000265845
0.000229736
0.000191337
0.000156283
0.000125359
9.41819e-05
6.57551e-05
4.88434e-05
4.43986e-05
4.19617e-05
3.6986e-05
5.84211e-05
6.29275e-05
5.78104e-05
4.68336e-05
5.15949e-05
8.88263e-05
0.000144183
0.000195984
0.000234802
0.000262725
0.000284511
0.000303365
0.000320338
0.000335283
0.000347655
0.000356933
0.000362997
0.000365772
0.000365098
0.000360696
0.000352108
0.000338573
0.000318712
0.000290357
0.000251505
0.000203164
0.000152157
0.000110337
8.41923e-05
6.77098e-05
5.45001e-05
4.45696e-05
4.10685e-05
3.8849e-05
3.23099e-05
6.1361e-05
5.70761e-05
5.04433e-05
4.82375e-05
7.10918e-05
0.000118523
0.000168922
0.000207238
0.00023363
0.000254156
0.000273353
0.000292959
0.000312302
0.000329939
0.000344522
0.000355589
0.000363232
0.000367555
0.000368512
0.000365865
0.000359119
0.00034737
0.000329018
0.000301381
0.000260986
0.000206008
0.000140813
8.03747e-05
4.33613e-05
3.43232e-05
3.70593e-05
3.80462e-05
3.65026e-05
3.17937e-05
1.97589e-05
6.04692e-05
5.47348e-05
5.11993e-05
5.86411e-05
8.99784e-05
0.00013495
0.000175372
0.000204853
0.000224054
0.000238558
0.000254021
0.000273298
0.000295304
0.00031688
0.000335488
0.000350064
0.000360806
0.000368075
0.0003721
0.000372985
0.000370714
0.000365118
0.000355711
0.000341263
0.000318903
0.000283274
0.000228127
0.000154883
8.07255e-05
3.09077e-05
1.63298e-05
2.11589e-05
2.59986e-05
2.40425e-05
1.43752e-05
5.35383e-05
5.83763e-05
6.2243e-05
7.51286e-05
0.000105608
0.000141925
0.000170909
0.000189233
0.000198836
0.000205692
0.000217353
0.000238302
0.000266424
0.000295623
0.000320905
0.000340395
0.000354561
0.000364178
0.000369734
0.00037148
0.000369506
0.000363816
0.00035439
0.000341323
0.000324868
0.000304792
0.000277875
0.000236045
0.000173232
9.92477e-05
4.05689e-05
1.58638e-05
1.42797e-05
1.65618e-05
1.62798e-05
4.05276e-05
6.18133e-05
7.42897e-05
8.99236e-05
0.000117045
0.000146883
0.000169399
0.000181352
0.000184909
0.000185826
0.000193793
0.000215762
0.000248824
0.00028403
0.000314577
0.000337818
0.000354516
0.000366018
0.000373289
0.000376937
0.000377313
0.000374526
0.000368382
0.000358368
0.000343681
0.000323791
0.000299131
0.000269294
0.000230698
0.000176991
0.000112168
5.85921e-05
3.12004e-05
2.24456e-05
2.15536e-05
2.93729e-05
6.31668e-05
8.4395e-05
0.000103671
0.000126781
0.000148296
0.000160909
0.000161939
0.000155741
0.00015424
0.000170857
0.000206964
0.000251066
0.000291345
0.000322494
0.000344444
0.000359136
0.000368306
0.000373106
0.000374255
0.000372175
0.000367094
0.00035909
0.000348111
0.000334024
0.000316714
0.000295582
0.000269544
0.000238005
0.000200034
0.000153879
0.000104705
6.58186e-05
4.19735e-05
2.5804e-05
2.43752e-05
6.38104e-05
8.91581e-05
0.000108637
0.000126579
0.000138521
0.000139039
0.000130912
0.000131085
0.000154857
0.000201342
0.000254045
0.000297923
0.000329037
0.000349735
0.000363378
0.000372249
0.000377604
0.000380103
0.00038005
0.000377519
0.000372409
0.000364446
0.000353175
0.000338059
0.000318914
0.000295924
0.000268927
0.000237395
0.000200651
0.000159531
0.000118025
8.1668e-05
5.39413e-05
2.80645e-05
2.46112e-05
6.48725e-05
9.00425e-05
0.000105939
0.000115117
0.000113583
0.000105956
0.000113275
0.000149767
0.000205202
0.000258313
0.000296898
0.000322071
0.00033944
0.000352315
0.000361972
0.000368744
0.000372715
0.000373907
0.000372321
0.000367915
0.000360566
0.000350013
0.000335856
0.000317782
0.000296319
0.000272074
0.000245979
0.00021814
0.000187329
0.000152938
0.000117889
8.49764e-05
5.73716e-05
2.76889e-05
2.80127e-05
6.3045e-05
8.26857e-05
9.0473e-05
8.93855e-05
8.93143e-05
0.000111757
0.000163496
0.000224011
0.000271956
0.000303007
0.000323659
0.000339704
0.00035341
0.000364525
0.000372784
0.000378166
0.000380765
0.000380659
0.000377855
0.000372232
0.000363506
0.000351148
0.000334377
0.000312534
0.000286223
0.000256863
0.000226867
0.000197571
0.000168073
0.000137543
0.000108566
8.13743e-05
5.5817e-05
2.62562e-05
3.38114e-05
5.87184e-05
7.26562e-05
7.86062e-05
8.72118e-05
0.000115776
0.00016785
0.000220618
0.000257968
0.000282503
0.000301383
0.000317931
0.000332645
0.000345416
0.000355622
0.000363168
0.000368125
0.000370525
0.000370312
0.000367335
0.000361311
0.000351766
0.000337947
0.000318865
0.000293882
0.000263851
0.000230912
0.000198989
0.000170854
0.000145602
0.000121163
9.7328e-05
7.45214e-05
5.15092e-05
2.33751e-05
3.78138e-05
5.78658e-05
7.18735e-05
8.44861e-05
0.000108
0.00014884
0.000195775
0.000233743
0.000262371
0.000285001
0.000303863
0.000320184
0.000334773
0.000347808
0.00035865
0.000366992
0.000372748
0.000375888
0.000376339
0.000373936
0.000368362
0.000359068
0.000345168
0.000325399
0.000298542
0.000264785
0.000225894
0.000187231
0.000154857
0.000130125
0.000109776
8.92292e-05
6.89049e-05
4.77859e-05
2.14876e-05
3.8242e-05
5.85691e-05
7.47761e-05
9.28254e-05
0.000121326
0.000159353
0.000198569
0.000230132
0.000253507
0.00027125
0.000286521
0.00030146
0.000316415
0.000330637
0.000342864
0.000352455
0.00035936
0.000363669
0.000365419
0.000364536
0.000360771
0.000353654
0.000342399
0.000325839
0.000302498
0.000271277
0.000231714
0.000187685
0.000147721
0.000118727
9.97062e-05
8.2419e-05
6.46223e-05
4.54316e-05
2.16298e-05
3.45975e-05
6.03458e-05
8.02099e-05
0.000101316
0.000130355
0.000164929
0.000199128
0.000225931
0.000245269
0.000260511
0.00027539
0.000291742
0.000308979
0.000325523
0.00033982
0.00035111
0.00035937
0.000364782
0.000367483
0.000367506
0.000364723
0.000358806
0.00034916
0.000334868
0.000314708
0.000287316
0.000250581
0.000204749
0.000156193
0.000116418
9.2203e-05
7.61572e-05
6.09135e-05
4.40161e-05
2.36911e-05
2.79677e-05
5.85974e-05
7.98252e-05
0.000100102
0.000126483
0.000155627
0.000182809
0.000204192
0.000220021
0.000234032
0.000250198
0.000269623
0.000290274
0.0003095
0.000325932
0.00033873
0.000348051
0.000354302
0.000357823
0.000358802
0.000357248
0.000352969
0.000345541
0.000334304
0.000318435
0.00029693
0.000267348
0.000227351
0.000178044
0.000128526
9.23506e-05
7.16958e-05
5.71468e-05
4.28253e-05
2.73018e-05
2.26527e-05
5.72391e-05
7.98308e-05
0.000100657
0.000127275
0.000154289
0.000177514
0.000195582
0.000210287
0.000226264
0.00024672
0.000270332
0.000293357
0.000313179
0.000329144
0.000341177
0.000349722
0.00035527
0.000358188
0.000358685
0.000356781
0.000352289
0.00034479
0.000333657
0.000318273
0.000298012
0.000271435
0.000236815
0.000193203
0.000144051
0.000100714
7.30594e-05
5.61432e-05
4.28518e-05
3.05805e-05
2.01536e-05
5.58146e-05
7.94423e-05
0.000100601
0.000125354
0.000147906
0.000164783
0.000178016
0.000192374
0.000212573
0.000238549
0.000265617
0.000289462
0.000308559
0.000323385
0.000334543
0.000342498
0.000347724
0.000350584
0.000351297
0.000349908
0.000346266
0.000339994
0.000330495
0.000317129
0.000298881
0.000274285
0.000242091
0.000201855
0.00015586
0.00011179
8.01218e-05
5.98696e-05
4.52552e-05
3.23986e-05
2.05259e-05
5.73115e-05
8.20162e-05
0.000103242
0.000125631
0.000144152
0.000157886
0.000172957
0.000194912
0.000223989
0.000254632
0.000281169
0.00030167
0.000316892
0.000328305
0.000336788
0.000342735
0.000346451
0.000348149
0.000347949
0.000345833
0.000341617
0.000334923
0.000325234
0.000312137
0.000294617
0.000271402
0.000241327
0.000203987
0.000161378
0.0001198
8.8215e-05
6.60583e-05
4.86142e-05
3.13286e-05
2.34051e-05
6.02876e-05
8.4867e-05
0.000104927
0.000124612
0.000140444
0.000154445
0.000174663
0.000202803
0.000233449
0.000260515
0.000281806
0.000297995
0.000310423
0.000320136
0.000327868
0.000333576
0.000337322
0.000339216
0.00033934
0.000337666
0.000334004
0.000327974
0.000319067
0.000306789
0.000289924
0.000267268
0.000237968
0.000202155
0.000161799
0.000122616
9.22739e-05
6.93924e-05
4.95479e-05
2.78215e-05
2.74304e-05
6.3424e-05
8.72361e-05
0.000106269
0.000124749
0.00014063
0.000157813
0.000182775
0.000212728
0.00024126
0.000264947
0.000283523
0.000297849
0.000308877
0.00031742
0.000324106
0.000329011
0.000332164
0.00033366
0.000333582
0.000331918
0.000328517
0.000323073
0.00031521
0.000304338
0.000289133
0.000268151
0.000240329
0.000205774
0.000166664
0.00012796
9.66166e-05
7.15906e-05
4.90278e-05
2.33249e-05
3.18185e-05
6.55966e-05
8.83896e-05
0.000106748
0.000124938
0.000141686
0.000160452
0.000185066
0.000212095
0.000236612
0.000256864
0.000273071
0.000285998
0.000296324
0.000304615
0.000311241
0.000316414
0.000319957
0.000321895
0.000322322
0.000321274
0.000318682
0.000314383
0.000308198
0.000299413
0.000286554
0.0002679
0.000242065
0.00020894
0.000170687
0.000132017
9.91883e-05
7.20375e-05
4.75601e-05
1.95254e-05
3.42162e-05
6.57161e-05
8.78392e-05
0.000105861
0.000123753
0.00014039
0.000157677
0.000178386
0.000201721
0.000224145
0.000244001
0.000260895
0.000274943
0.000286377
0.000295487
0.000302568
0.000307934
0.0003116
0.000313648
0.000314262
0.000313588
0.000311717
0.000308747
0.000304818
0.000299305
0.000290566
0.000276425
0.000254724
0.000224364
0.000186611
0.000145948
0.000108764
7.70034e-05
4.92367e-05
1.77055e-05
3.30067e-05
6.26709e-05
8.47353e-05
0.000102317
0.000118828
0.000133864
0.000147941
0.000163714
0.000182981
0.000203547
0.000223301
0.000241103
0.000256456
0.000269214
0.000279431
0.000287249
0.000292873
0.000296636
0.000298655
0.000299198
0.000298508
0.00029685
0.000294717
0.000292686
0.000290272
0.000285919
0.0002771
0.00026102
0.000235586
0.000200801
0.000160161
0.000120184
8.46322e-05
5.33996e-05
1.79617e-05
2.70206e-05
5.53845e-05
7.76083e-05
9.44647e-05
0.000109015
0.000121749
0.000132167
0.000142765
0.000157143
0.000176061
0.000197371
0.000218687
0.0002381
0.000254466
0.000267362
0.000276755
0.000282913
0.000286485
0.000288015
0.000287991
0.000286818
0.000285041
0.00028366
0.000283487
0.000284494
0.000285266
0.000282939
0.000273856
0.000254631
0.000223665
0.00018322
0.000139726
9.92609e-05
6.28564e-05
2.18078e-05
1.90704e-05
4.54573e-05
6.63457e-05
8.16102e-05
9.36269e-05
0.000103142
0.000110133
0.000117669
0.000130754
0.000151601
0.000177206
0.000203267
0.000226376
0.000244771
0.00025804
0.000266413
0.000270597
0.000271777
0.000270957
0.000268761
0.000265764
0.000263078
0.000262015
0.000263567
0.000267758
0.000273207
0.000277079
0.0002755
0.000264353
0.000240443
0.000203709
0.000159133
0.0001157
7.52465e-05
2.99999e-05
1.32161e-05
3.68435e-05
5.47476e-05
6.69658e-05
7.56464e-05
8.22337e-05
8.88548e-05
0.000100245
0.00012117
0.000150128
0.000181446
0.000209796
0.000232166
0.000247727
0.000256805
0.000260242
0.000259573
0.00025659
0.000252291
0.000247353
0.000243093
0.000241259
0.000243303
0.000249676
0.000259414
0.000270161
0.000278673
0.000281432
0.000274873
0.000255514
0.000221235
0.000175199
0.000129556
8.73431e-05
4.16249e-05
1.08767e-05
3.22369e-05
4.73052e-05
5.71458e-05
6.48178e-05
7.41669e-05
8.97684e-05
0.00011558
0.000149256
0.000183657
0.000212917
0.000234094
0.000246785
0.000251804
0.000250327
0.000244339
0.000236468
0.000227985
0.000219554
0.000213223
0.000211682
0.0002164
0.000227191
0.000242446
0.000259446
0.000275013
0.000286266
0.000290639
0.000285252
0.000266711
0.000232576
0.000185717
0.000139222
9.6758e-05
5.09162e-05
1.15603e-05
3.45506e-05
4.99762e-05
6.29741e-05
7.96443e-05
0.000103549
0.000137003
0.000174622
0.000208027
0.000232057
0.000245598
0.000249779
0.000246407
0.000237134
0.000224207
0.000211081
0.000198284
0.000186499
0.000180738
0.000186311
0.000203541
0.00022733
0.000250588
0.00026924
0.000282942
0.000292119
0.000296339
0.000294163
0.000283429
0.000262004
0.000229089
0.000187298
0.000142648
9.8081e-05
5.02826e-05
1.48105e-05
4.40314e-05
6.662e-05
9.01474e-05
0.000120912
0.000157022
0.000192771
0.000220057
0.000236019
0.000241599
0.000239294
0.000231784
0.000220752
0.000207141
0.000193173
0.000179611
0.000167656
0.00016471
0.000177772
0.000202456
0.000228408
0.00024956
0.000265688
0.000278127
0.000287467
0.000293356
0.000294811
0.000290332
0.000278189
0.000257056
0.000226867
0.000189223
0.000144871
9.53843e-05
4.27253e-05
1.9788e-05
5.65496e-05
8.64708e-05
0.000117299
0.000152602
0.000186584
0.000213472
0.000230289
0.000237966
0.000239056
0.00023619
0.000231
0.000223374
0.000212237
0.000197866
0.000182827
0.000168009
0.000155719
0.000153252
0.000164988
0.000187583
0.000214193
0.000237953
0.000254892
0.000264855
0.000268933
0.000268039
0.000262584
0.000252202
0.000236002
0.000212946
0.000181886
0.000140235
8.91948e-05
3.52152e-05
2.35936e-05
6.47131e-05
9.59757e-05
0.000126624
0.000161503
0.000192566
0.000214942
0.000228124
0.000234215
0.000235599
0.000234178
0.000231386
0.000227535
0.000221094
0.000210151
0.000194511
0.000175698
0.000155301
0.000136243
0.000124726
0.000124294
0.000134895
0.0001558
0.000183288
0.00021179
0.000234051
0.00024494
0.00024403
0.000232495
0.000211611
0.000184155
0.000152419
0.00011534
7.25829e-05
2.69537e-05
2.47886e-05
6.7377e-05
9.77822e-05
0.000126359
0.00015907
0.000188486
0.000210279
0.000224263
0.000232025
0.000235388
0.000235856
0.000234535
0.000232537
0.000231908
0.000234914
0.000238381
0.000232866
0.000216238
0.000195194
0.000172202
0.000145732
0.000119781
0.000101888
9.24187e-05
9.0945e-05
9.87882e-05
0.00011618
0.000140875
0.000166734
0.000181411
0.000179525
0.000162673
0.000129984
8.27719e-05
2.63485e-05
2.4825e-05
6.78207e-05
9.88245e-05
0.000126122
0.000155207
0.000182269
0.000203429
0.000218071
0.00022715
0.000231942
0.000233518
0.000232648
0.000229902
0.000225591
0.000219764
0.000212452
0.000206396
0.000209073
0.00022506
0.000243263
0.000245885
0.000232189
0.000212689
0.000191043
0.000165227
0.00013711
0.000110718
8.72249e-05
7.14899e-05
7.05966e-05
8.23962e-05
9.42746e-05
9.14184e-05
6.90025e-05
3.3771e-05
2.42043e-05
6.79521e-05
0.00010068
0.000126499
0.000151082
0.000174941
0.0001951
0.000210239
0.000220493
0.000226645
0.000229637
0.000230333
0.000229432
0.000227462
0.000224789
0.000221524
0.000217207
0.000210529
0.00020015
0.000187102
0.000175845
0.000174251
0.000188451
0.000216433
0.000242708
0.000251301
0.000243084
0.000215534
0.00016838
0.000120179
8.41705e-05
6.50551e-05
5.7072e-05
5.01266e-05
4.23404e-05
2.0956e-05
6.42161e-05
9.78011e-05
0.000123198
0.000144681
0.000164424
0.000182021
0.000196318
0.00020693
0.000213992
0.000217837
0.000218876
0.000217593
0.000214511
0.000210166
0.000205135
0.000200156
0.000196282
0.000194907
0.000197469
0.000204334
0.000213203
0.000219503
0.000220701
0.000216951
0.000209895
0.000205172
0.000211018
0.000222485
0.000222266
0.000197733
0.000153653
0.000109407
7.52112e-05
4.30317e-05
1.68511e-05
5.88582e-05
9.13349e-05
0.000114599
0.000132885
0.000149188
0.000164095
0.000176676
0.000185901
0.000191086
0.000192176
0.00018983
0.000185342
0.000180287
0.000175994
0.000173463
0.000173361
0.000176067
0.000181648
0.000189868
0.000199926
0.000210916
0.000222876
0.000236384
0.000251419
0.00026666
0.000278642
0.000283384
0.00027957
0.00026902
0.000252512
0.000223083
0.000173167
0.000115114
4.16693e-05
1.43872e-05
5.52637e-05
8.50863e-05
0.000106106
0.000122501
0.000135697
0.00014526
0.000149911
0.000149013
0.000144147
0.000138804
0.000136216
0.000137341
0.000142266
0.000150615
0.000161722
0.000174971
0.00018992
0.000205908
0.000222329
0.000239102
0.000256537
0.00027492
0.000294071
0.000312936
0.000329064
0.000338689
0.000337914
0.000324611
0.000299843
0.000267405
0.000228409
0.000177197
0.000119172
4.17833e-05
1.57273e-05
5.73039e-05
8.43484e-05
9.84205e-05
0.000104581
0.00010458
9.98827e-05
9.63527e-05
9.92496e-05
0.000109657
0.000125757
0.000144956
0.00016542
0.000186195
0.000205916
0.00022373
0.000240151
0.000256202
0.000272159
0.000287962
0.000303718
0.000319817
0.000336205
0.000351557
0.000363478
0.000369425
0.000366855
0.000353485
0.000328117
0.00029158
0.000247795
0.000202312
0.00015661
0.00010374
2.94136e-05
1.90662e-05
5.22535e-05
6.99222e-05
7.53229e-05
7.49829e-05
7.88129e-05
9.50572e-05
0.000123024
0.000155638
0.000187504
0.000213966
0.000231431
0.000241903
0.000248091
0.000251597
0.000254304
0.000258402
0.000265556
0.000275726
0.000287628
0.000300246
0.000312911
0.000325524
0.000337806
0.000348736
0.000357266
0.000361027
0.000355461
0.000336356
0.000302545
0.000257308
0.00020731
0.000158038
0.000102933
2.64328e-05
2.01878e-05
4.59334e-05
6.26402e-05
7.55342e-05
9.52541e-05
0.000129335
0.000172584
0.000209218
0.000227209
0.000230187
0.000225017
0.000215842
0.000206771
0.000201599
0.000202406
0.000209529
0.00022156
0.000235982
0.000250725
0.000264934
0.000278622
0.000292157
0.000305883
0.000319912
0.000333912
0.000346972
0.000357183
0.000360708
0.0003521
0.000326806
0.000284762
0.000232072
0.000177165
0.00011577
3.43725e-05
1.90458e-05
5.41629e-05
8.32049e-05
0.000114396
0.000152378
0.000190534
0.00021667
0.000229271
0.000233642
0.00023316
0.000229393
0.000224023
0.000218243
0.000212753
0.000208727
0.000208489
0.00021396
0.000224816
0.000239114
0.000254843
0.000270709
0.000286161
0.000301023
0.000315185
0.000328434
0.000340338
0.000349729
0.000353976
0.000348275
0.000326798
0.00028713
0.000234719
0.000179549
0.000118745
4.26025e-05
1.69075e-05
6.68287e-05
0.000108303
0.000155
0.000199154
0.00023387
0.000257575
0.000271166
0.000275022
0.00026887
0.000253201
0.000230756
0.000206398
0.000184738
0.000169239
0.000163799
0.000171132
0.000189146
0.000212292
0.000235495
0.000256224
0.000274187
0.000289983
0.000304144
0.000316856
0.000327866
0.000336134
0.000339424
0.000333837
0.000314277
0.00027778
0.000228681
0.000176149
0.00011807
4.74536e-05
1.30011e-05
6.7524e-05
0.000111296
0.000158449
0.000203835
0.000243472
0.000274266
0.000294535
0.000302924
0.000298239
0.000280561
0.000251996
0.000217161
0.000182403
0.000152651
0.000131318
0.00012375
0.000133693
0.000158007
0.000189147
0.000219545
0.000244743
0.000264428
0.00028
0.000292652
0.000302837
0.000310072
0.000312704
0.000307713
0.000291073
0.000259919
0.000216454
0.000166772
0.000111141
4.83291e-05
9.4593e-06
6.76734e-05
0.000114589
0.000165789
0.000217078
0.000261581
0.000294168
0.000313818
0.000321245
0.000316579
0.000298609
0.000266042
0.000221864
0.00017571
0.000138205
0.000112438
9.97084e-05
0.000104184
0.000125975
0.000159153
0.00019523
0.000225523
0.000246591
0.000260049
0.000268275
0.000272398
0.000272356
0.000267324
0.000256024
0.000237073
0.000209893
0.000176054
0.000137299
9.27608e-05
4.31675e-05
1.17165e-05
9.61435e-05
0.000160117
0.00021792
0.000265104
0.000296082
0.000310655
0.000311227
0.000300023
0.000278235
0.000246354
0.000206309
0.000164546
0.000130708
0.000109549
9.77621e-05
9.28466e-05
9.55148e-05
0.000107117
0.000127632
0.000154616
0.000183233
0.000208586
0.000227503
0.000239256
0.000244871
0.00024497
0.000239259
0.000226545
0.000206009
0.00017842
0.000146376
0.000111529
7.26736e-05
2.87032e-05
2.30289e-05
0.000130772
0.000202113
0.000254061
0.00028541
0.000296712
0.000292864
0.000278483
0.000256942
0.000230808
0.000202676
0.000176108
0.000154884
0.000140036
0.000129186
0.000119184
0.000108501
9.76428e-05
8.96934e-05
8.82316e-05
9.3796e-05
0.000104608
0.000118341
0.000132562
0.000145227
0.000154969
0.00016092
0.000162396
0.000158703
0.000149365
0.000134371
0.000114357
8.93774e-05
5.82593e-05
2.08249e-05
3.75385e-05
0.000145555
0.000217237
0.00026821
0.000297677
0.000305879
0.000299928
0.000286728
0.000271126
0.000256151
0.000243249
0.00023264
0.000223579
0.000214408
0.000202919
0.000187367
0.000167491
0.00014518
0.00012365
0.000106589
9.65672e-05
9.30716e-05
9.35659e-05
9.59897e-05
9.928e-05
0.000102668
0.000105265
0.00010598
0.000103665
9.75681e-05
8.76791e-05
7.46444e-05
5.90979e-05
4.0191e-05
1.67853e-05
4.08882e-05
0.000136134
0.000205409
0.000254586
0.0002876
0.00030364
0.000305085
0.000296952
0.000284311
0.000270989
0.000258674
0.000247787
0.000238485
0.000230575
0.000223402
0.000215904
0.000206714
0.00019449
0.000178922
0.000161857
0.000146579
0.000135846
0.00013058
0.000130118
0.000132808
0.00013708
0.000141778
0.000145845
0.000147734
0.000145073
0.000134955
0.000115125
8.58329e-05
4.99427e-05
8.07812e-06
2.54152e-05
8.86382e-05
0.000144124
0.000185364
0.000214857
0.000235429
0.000248216
0.00025469
0.000256687
0.000255871
0.000253367
0.000249705
0.000244917
0.000238578
0.000230116
0.000219359
0.00020653
0.000192228
0.000177303
0.000162681
0.000149658
0.000140163
0.000135326
0.0001353
0.000139579
0.000146878
0.000155687
0.000164945
0.000173777
0.000180946
0.000184146
0.000178389
0.000154006
9.92578e-05
7.89375e-06
1.168e-05
4.90335e-05
8.61728e-05
0.000119995
0.000149011
0.000172912
0.000191063
0.000203132
0.000209668
0.000211388
0.000208808
0.000202308
0.000192122
0.000178954
0.000164161
0.000149297
0.000135681
0.000124288
0.000115563
0.000109655
0.000106998
0.000108608
0.000115909
0.000129789
0.000149647
0.000173279
0.000197535
0.000219421
0.000236681
0.000247877
0.000251344
0.000242273
0.000209904
0.00014192
1.78233e-05
1.29045e-05
4.76115e-05
7.70541e-05
0.000100528
0.000118158
0.000130441
0.000137566
0.000140085
0.000139239
0.000136266
0.000131819
0.000126195
0.000120019
0.000114396
0.000110606
0.000109706
0.000112167
0.000117695
0.000125407
0.000134657
0.00014585
0.000160684
0.000182078
0.000212739
0.000251939
0.000293492
0.000328937
0.000352302
0.000360863
0.000352862
0.000326543
0.000282111
0.000223263
0.000146984
2.92294e-05
1.96513e-05
5.21218e-05
7.46185e-05
8.91251e-05
9.96089e-05
0.000107799
0.00011457
0.000120733
0.000126572
0.000131759
0.000135676
0.000138453
0.000141365
0.000145981
0.00015358
0.000165121
0.000181104
0.000201278
0.000224358
0.000248098
0.000269983
0.000288461
0.000303139
0.000313955
0.000320947
0.000324567
0.000325274
0.000322763
0.00031558
0.000300833
0.000275187
0.000237967
0.00019156
0.000129245
2.73795e-05
1.51192e-05
4.32648e-05
6.54478e-05
8.49149e-05
0.000103429
0.000121182
0.000137323
0.000149814
0.000157202
0.000160977
0.000163348
0.000166143
0.000172383
0.000183865
0.000198726
0.000214147
0.000228595
0.000241054
0.00025108
0.000259568
0.000267512
0.000275245
0.000282837
0.000290267
0.000297372
0.000303726
0.000308556
0.00031064
0.000307858
0.000296794
0.00027453
0.000241056
0.000198529
0.000137993
3.2236e-05
9.64132e-06
4.75883e-05
8.13089e-05
0.000111303
0.000132262
0.000143041
0.000148066
0.000151299
0.000155238
0.000161067
0.000168758
0.000177628
0.000187079
0.000197171
0.000207647
0.000217495
0.000226279
0.00023417
0.000241422
0.000248247
0.000254902
0.000261634
0.000268638
0.000276006
0.000283654
0.000291253
0.000298288
0.000303656
0.000305129
0.000299458
0.00028323
0.000254618
0.000213384
0.000149872
4.01648e-05
9.23857e-06
6.51413e-05
0.000108072
0.000136952
0.00015181
0.000157436
0.000157973
0.000155688
0.000151864
0.000147651
0.000144472
0.000143971
0.000147615
0.000156068
0.000168895
0.000184376
0.000199927
0.000213517
0.000225171
0.00023558
0.00024505
0.00025383
0.000262179
0.000270281
0.000278167
0.000285705
0.000292592
0.000298023
0.000300084
0.000295807
0.000281919
0.000256539
0.000218466
0.000156737
4.95685e-05
1.06392e-05
7.48089e-05
0.000121426
0.000153215
0.000170622
0.000175577
0.00017024
0.000157665
0.000141788
0.000126395
0.000113817
0.000105422
0.000102783
0.000107077
0.00011844
0.000136258
0.000158804
0.000181958
0.000201988
0.000218569
0.000233059
0.000246298
0.000258553
0.000270029
0.000280766
0.000290574
0.000298849
0.000304735
0.000306675
0.000301985
0.000287992
0.000263707
0.000227487
0.000166752
5.76482e-05
1.55488e-05
7.72959e-05
0.000124314
0.000165391
0.00019398
0.000204425
0.000197444
0.000178379
0.000154582
0.000132978
0.000117294
0.000106457
9.96551e-05
9.83394e-05
0.000104422
0.000119012
0.000142128
0.00017169
0.000200026
0.000221635
0.000238365
0.000252736
0.000265538
0.000277374
0.000288692
0.000299611
0.000309891
0.0003183
0.000322179
0.000318339
0.000304084
0.000277938
0.000236616
0.000168296
5.89543e-05
1.32194e-05
6.84833e-05
0.000108781
0.000142662
0.000170213
0.000188953
0.000197003
0.000191569
0.000172434
0.000146305
0.000122908
0.000106971
9.63853e-05
8.87659e-05
8.58973e-05
9.11303e-05
0.000105978
0.000130918
0.000164405
0.000200492
0.000230506
0.000251679
0.000267006
0.000278321
0.000286647
0.000293385
0.000298863
0.000301774
0.00030033
0.000292593
0.000276888
0.000251538
0.000211821
0.000146911
5.13863e-05
1.58502e-05
7.37905e-05
0.000110383
0.000136999
0.000155254
0.000163062
0.000161765
0.000154444
0.000144362
0.000134211
0.00012496
0.000117477
0.0001129
0.000109707
0.000105588
0.000100836
9.82843e-05
0.000100973
0.000110457
0.000127597
0.000151897
0.000181277
0.000212818
0.000241211
0.000261756
0.000275093
0.00028133
0.00027999
0.000271528
0.000256086
0.000234544
0.000207642
0.000172138
0.000117913
3.81517e-05
1.76814e-05
7.00249e-05
0.000102136
0.000123015
0.000137727
0.000145787
0.000146518
0.000140592
0.000129864
0.000117371
0.000107746
0.000105856
0.000111913
0.000119639
0.00012339
0.000123301
0.000121379
0.000118089
0.00011385
0.000110014
0.000107966
0.000108814
0.000113779
0.000124241
0.000141322
0.000165317
0.000194413
0.000222023
0.000239135
0.000241561
0.0002306
0.000208618
0.000174474
0.000120157
4.2257e-05
1.16897e-05
5.00949e-05
7.72546e-05
9.58619e-05
0.000109063
0.000117038
0.000119647
0.000117396
0.000111186
0.000101912
9.09011e-05
8.02699e-05
7.21424e-05
6.81119e-05
7.01441e-05
8.01595e-05
9.87664e-05
0.00012392
0.000150386
0.000172784
0.000188555
0.000196571
0.000195775
0.000185763
0.000168171
0.000147027
0.000128744
0.00011916
0.000122042
0.000136054
0.00015126
0.000154715
0.000141925
0.000108931
5.54579e-05
9.51201e-06
4.11276e-05
6.35682e-05
7.77585e-05
8.6757e-05
9.18669e-05
9.36302e-05
9.28824e-05
9.07253e-05
8.84264e-05
8.73079e-05
8.84901e-05
9.28167e-05
0.000100806
0.000112275
0.000126271
0.000141819
0.000158313
0.00017538
0.000192924
0.000211134
0.000230081
0.000248789
0.000264538
0.000273609
0.000272787
0.000259701
0.000233453
0.000198619
0.000166179
0.000147305
0.000139118
0.000128367
0.00010495
6.39024e-05