/*--------------------------------*- C++ -*----------------------------------*\
| =========                 |                                                 |
| \\      /  F ield         | OpenFOAM: The Open Source CFD Toolbox           |
|  \\    /   O peration     | Version:  v1906                                 |
|   \\  /    A nd           | Web:      www.OpenFOAM.com                      |
|    \\/     M anipulation  |                                                 |
\*---------------------------------------------------------------------------*/
FoamFile
{
    version     2.0;
    format      ascii;
    class       surfaceScalarField;
    location    "11";
    object      phi;
}
// * * * * * * * * * * * * * * * * * * * * * * * * * * * * * * * * * * * * * //

dimensions      [1 0 -1 0 0 0 0];
oriented        oriented;


internalField   nonuniform List<scalar> 
228225
(
-6.00842e-09
1.10962e-08
-4.97821e-09
-2.50308e-08
2.92189e-08
-1.01994e-08
-5.28065e-08
4.01313e-08
-1.23558e-08
-8.80297e-08
4.86451e-08
-1.34214e-08
-1.28831e-07
5.48998e-08
-1.40987e-08
-1.72961e-07
5.88651e-08
-1.4733e-08
-2.18545e-07
6.11291e-08
-1.55491e-08
-2.64304e-07
6.23194e-08
-1.6559e-08
-3.09497e-07
6.30265e-08
-1.78339e-08
-3.53584e-07
6.35242e-08
-1.94348e-08
-3.96076e-07
6.38516e-08
-2.13622e-08
-4.36255e-07
6.36422e-08
-2.34625e-08
-4.73216e-07
6.22974e-08
-2.53354e-08
-5.0593e-07
5.97793e-08
-2.70658e-08
-5.33519e-07
5.63902e-08
-2.8804e-08
-5.55277e-07
5.23026e-08
-3.054e-08
-5.70737e-07
4.7711e-08
-3.22514e-08
-5.7959e-07
4.27982e-08
-3.39476e-08
-5.81702e-07
3.7737e-08
-3.56266e-08
-5.77132e-07
3.26776e-08
-3.72452e-08
-5.65979e-07
2.76767e-08
-3.88307e-08
-5.48346e-07
2.27687e-08
-4.04015e-08
-5.24437e-07
1.80275e-08
-4.19367e-08
-4.94617e-07
1.3568e-08
-4.339e-08
-4.59414e-07
9.4886e-09
-4.46885e-08
-4.19465e-07
5.81641e-09
-4.57664e-08
-3.75412e-07
2.51359e-09
-4.65675e-08
-3.27976e-07
-3.97996e-10
-4.7037e-08
-2.77726e-07
-3.1204e-09
-4.71305e-08
-2.25467e-07
-5.47909e-09
-4.67787e-08
-1.72089e-07
-7.49186e-09
-4.58874e-08
-1.18817e-07
-9.05518e-09
-4.42156e-08
-6.76925e-08
-9.95052e-09
-4.11756e-08
-2.2794e-08
-9.80547e-09
-3.50916e-08
-6.24872e-09
-1.65457e-08
-2.88622e-08
6.09406e-08
-2.09808e-08
-8.53655e-08
1.05382e-07
-1.96621e-08
-1.52338e-07
1.26241e-07
-1.91362e-08
-2.24346e-07
1.40345e-07
-1.96909e-08
-2.96889e-07
1.48236e-07
-2.07935e-08
-3.66374e-07
1.50699e-07
-2.23512e-08
-4.29973e-07
1.49222e-07
-2.4491e-08
-4.85509e-07
1.4521e-07
-2.73558e-08
-5.31478e-07
1.39841e-07
-3.08454e-08
-5.66988e-07
1.33747e-07
-3.47135e-08
-5.91693e-07
1.2714e-07
-3.8582e-08
-6.05839e-07
1.19801e-07
-4.20139e-08
-6.10499e-07
1.11465e-07
-4.45078e-08
-6.07016e-07
1.02397e-07
-4.61004e-08
-5.96696e-07
9.30353e-08
-4.6965e-08
-5.8077e-07
8.3639e-08
-4.72631e-08
-5.60371e-07
7.44575e-08
-4.71431e-08
-5.36562e-07
6.57166e-08
-4.6731e-08
-5.10271e-07
5.75614e-08
-4.61143e-08
-4.82297e-07
5.00447e-08
-4.53401e-08
-4.53105e-07
4.31218e-08
-4.46381e-08
-4.22805e-07
3.67109e-08
-4.42432e-08
-3.91382e-07
3.07983e-08
-4.41926e-08
-3.58889e-07
2.5405e-08
-4.43298e-08
-3.25514e-07
2.05667e-08
-4.44529e-08
-2.91485e-07
1.62582e-08
-4.44707e-08
-2.57012e-07
1.24196e-08
-4.43797e-08
-2.2224e-07
9.00113e-09
-4.41722e-08
-1.87492e-07
5.95442e-09
-4.38208e-08
-1.5294e-07
3.26005e-09
-4.32939e-08
-1.18802e-07
9.10148e-10
-4.25386e-08
-8.53203e-08
-1.03586e-09
-4.15001e-08
-5.29921e-08
-2.38239e-09
-3.98963e-08
-2.3196e-08
-2.71377e-09
-3.68894e-08
3.91844e-10
-2.9836e-08
-5.20087e-08
9.45579e-08
1.83916e-08
-1.31616e-07
1.60229e-07
2.47594e-08
-2.19747e-07
1.87177e-07
2.71946e-08
-3.08293e-07
2.01325e-07
2.75653e-08
-3.91871e-07
2.05705e-07
2.61092e-08
-4.66822e-07
2.02765e-07
2.2885e-08
-5.30955e-07
1.95231e-07
1.81233e-08
-5.82365e-07
1.84745e-07
1.18757e-08
-6.19754e-07
1.72672e-07
4.55832e-09
-6.42448e-07
1.59771e-07
-3.33116e-09
-6.50727e-07
1.46598e-07
-1.11782e-08
-6.4585e-07
1.33433e-07
-1.85092e-08
-6.29846e-07
1.20424e-07
-2.49632e-08
-6.04856e-07
1.0767e-07
-3.02628e-08
-5.73025e-07
9.53924e-08
-3.41878e-08
-5.36651e-07
8.398e-08
-3.67166e-08
-4.97662e-07
7.3672e-08
-3.82022e-08
-4.57531e-07
6.45873e-08
-3.90004e-08
-4.17357e-07
5.67168e-08
-3.93308e-08
-3.77916e-07
4.99664e-08
-3.93642e-08
-3.39774e-07
4.42042e-08
-3.92216e-08
-3.03394e-07
3.93087e-08
-3.898e-08
-2.6908e-07
3.51558e-08
-3.86712e-08
-2.36994e-07
3.16295e-08
-3.83099e-08
-2.07135e-07
2.86122e-08
-3.79039e-08
-1.79412e-07
2.6e-08
-3.7465e-08
-1.53698e-07
2.37035e-08
-3.69982e-08
-1.29845e-07
2.16472e-08
-3.64996e-08
-1.07698e-07
1.97667e-08
-3.59581e-08
-8.71022e-08
1.80105e-08
-3.5348e-08
-6.78975e-08
1.63433e-08
-3.4636e-08
-4.99258e-08
1.4741e-08
-3.37492e-08
-3.29672e-08
1.32059e-08
-3.25481e-08
-1.67681e-08
1.17225e-08
-3.06365e-08
9.71606e-09
-2.60909e-08
-7.04524e-08
9.69513e-08
6.80608e-08
-1.43794e-07
1.56581e-07
7.6987e-08
-2.17146e-07
1.80807e-07
7.97234e-08
-2.89886e-07
1.93083e-07
8.09807e-08
-3.59888e-07
1.96019e-07
7.96889e-08
-4.25064e-07
1.91929e-07
7.60133e-08
-4.81978e-07
1.83405e-07
6.87395e-08
-5.27546e-07
1.7189e-07
5.84227e-08
-5.58996e-07
1.58599e-07
4.55226e-08
-5.75312e-07
1.44247e-07
3.184e-08
-5.77018e-07
1.29516e-07
1.87891e-08
-5.66071e-07
1.14855e-07
7.63066e-09
-5.44959e-07
1.00657e-07
-1.34437e-09
-5.1623e-07
8.72573e-08
-8.3182e-09
-4.82311e-07
7.50469e-08
-1.35723e-08
-4.45327e-07
6.44354e-08
-1.74409e-08
-4.06877e-07
5.55742e-08
-2.03493e-08
-3.6816e-07
4.84252e-08
-2.25582e-08
-3.30108e-07
4.28825e-08
-2.42166e-08
-2.93462e-07
3.87691e-08
-2.5449e-08
-2.58773e-07
3.58551e-08
-2.63394e-08
-2.2643e-07
3.39281e-08
-2.69628e-08
-1.96675e-07
3.27688e-08
-2.73677e-08
-1.69641e-07
3.21898e-08
-2.75954e-08
-1.4536e-07
3.20061e-08
-2.76745e-08
-1.23792e-07
3.20675e-08
-2.76342e-08
-1.0482e-07
3.22254e-08
-2.74945e-08
-8.82492e-08
3.23537e-08
-2.72793e-08
-7.37917e-08
3.23202e-08
-2.70082e-08
-6.10924e-08
3.20044e-08
-2.66957e-08
-4.96744e-08
3.12682e-08
-2.63414e-08
-3.89052e-08
2.99618e-08
-2.59905e-08
-2.77754e-08
2.7889e-08
-2.58126e-08
-1.52339e-08
2.50481e-08
-2.58673e-08
1.90197e-08
-2.45378e-08
-4.54898e-08
7.07589e-08
7.16815e-08
-7.4433e-08
1.0607e-07
7.94546e-08
-9.70387e-08
1.21732e-07
8.16817e-08
-1.18384e-07
1.31676e-07
8.27542e-08
-1.40572e-07
1.3617e-07
8.20345e-08
-1.64187e-07
1.35912e-07
7.96347e-08
-1.87834e-07
1.31848e-07
7.52014e-08
-2.09455e-07
1.24843e-07
6.8671e-08
-2.26508e-07
1.15783e-07
5.98671e-08
-2.37146e-07
1.05441e-07
4.94424e-08
-2.40654e-07
9.45093e-08
3.85174e-08
-2.37725e-07
8.3532e-08
2.83913e-08
-2.29855e-07
7.30126e-08
1.97764e-08
-2.18764e-07
6.33292e-08
1.28359e-08
-2.05855e-07
5.48024e-08
7.33517e-09
-1.92019e-07
4.76484e-08
2.95146e-09
-1.77792e-07
4.19559e-08
-6.08271e-10
-1.63564e-07
3.76801e-08
-3.48313e-09
-1.49588e-07
3.4716e-08
-5.81045e-09
-1.36066e-07
3.29056e-08
-7.65629e-09
-1.23192e-07
3.20713e-08
-9.09203e-09
-1.11104e-07
3.20153e-08
-1.01742e-08
-9.99303e-08
3.25525e-08
-1.09595e-08
-8.97359e-08
3.34959e-08
-1.1498e-08
-8.05659e-08
3.46756e-08
-1.18418e-08
-7.23848e-08
3.59238e-08
-1.20352e-08
-6.51225e-08
3.70888e-08
-1.21263e-08
-5.86238e-08
3.80151e-08
-1.21606e-08
-5.26797e-08
3.85564e-08
-1.218e-08
-4.69957e-08
3.85501e-08
-1.22298e-08
-4.12088e-08
3.78219e-08
-1.23414e-08
-3.48219e-08
3.61562e-08
-1.25802e-08
-2.70107e-08
3.33068e-08
-1.32295e-08
-1.63292e-08
2.88619e-08
-1.44947e-08
1.83041e-08
-1.56142e-08
-9.83199e-09
3.96173e-08
4.09723e-08
-5.67285e-09
5.69576e-08
4.49552e-08
4.94601e-09
6.52902e-08
4.58209e-08
1.93766e-08
7.1215e-08
4.6032e-08
3.56235e-08
7.46648e-08
4.52583e-08
5.22285e-08
7.59277e-08
4.33783e-08
6.81639e-08
7.54565e-08
4.04566e-08
8.27204e-08
7.36351e-08
3.66502e-08
9.53988e-08
7.08831e-08
3.2222e-08
1.0578e-07
6.7555e-08
2.75053e-08
1.13512e-07
6.39689e-08
2.28076e-08
1.18319e-07
6.03709e-08
1.83554e-08
1.20072e-07
5.6973e-08
1.42851e-08
1.18791e-07
5.39379e-08
1.06733e-08
1.14665e-07
5.13802e-08
7.54845e-09
1.08042e-07
4.93629e-08
4.90702e-09
9.93981e-08
4.7887e-08
2.7134e-09
8.92572e-08
4.69145e-08
9.06626e-10
7.81205e-08
4.63704e-08
-5.17911e-10
6.64704e-08
4.61744e-08
-1.61889e-09
5.47451e-08
4.62365e-08
-2.44009e-09
4.32973e-08
4.64773e-08
-3.01388e-09
3.24184e-08
4.68111e-08
-3.38043e-09
2.23335e-08
4.71649e-08
-3.5834e-09
1.32144e-08
4.74604e-08
-3.66585e-09
5.18065e-09
4.76289e-08
-3.67161e-09
-1.67522e-09
4.75887e-08
-3.64372e-09
-7.29377e-09
4.72582e-08
-3.62556e-09
-1.15991e-08
4.65279e-08
-3.6664e-09
-1.45091e-08
4.52734e-08
-3.81112e-09
-1.59256e-08
4.33294e-08
-4.09369e-09
-1.56999e-08
4.05111e-08
-4.57845e-09
-1.34523e-08
3.65941e-08
-5.53717e-09
-8.65096e-09
3.12301e-08
-7.16831e-09
1.88249e-08
-9.17245e-09
6.39582e-09
1.72613e-08
1.59608e-08
1.90537e-08
2.79619e-08
1.63373e-08
3.52609e-08
3.33317e-08
1.57505e-08
5.35029e-08
3.76501e-08
1.53249e-08
7.2367e-08
4.10392e-08
1.47589e-08
9.07259e-08
4.36671e-08
1.39021e-08
1.07661e-07
4.57256e-08
1.27969e-08
1.22482e-07
4.73392e-08
1.14738e-08
1.34776e-07
4.86119e-08
9.97858e-09
1.44297e-07
4.97155e-08
8.31789e-09
1.50858e-07
5.08727e-08
6.53373e-09
1.54325e-07
5.21993e-08
4.70566e-09
1.54656e-07
5.36801e-08
2.96247e-09
1.52001e-07
5.51892e-08
1.4022e-09
1.46699e-07
5.66125e-08
7.09724e-11
1.39132e-07
5.79316e-08
-1.0019e-09
1.2975e-07
5.91293e-08
-1.86007e-09
1.19008e-07
6.01794e-08
-2.52267e-09
1.07323e-07
6.10585e-08
-3.00272e-09
9.50848e-08
6.17296e-08
-3.31691e-09
8.26243e-08
6.21789e-08
-3.48358e-09
7.0243e-08
6.23856e-08
-3.52556e-09
5.81716e-08
6.23467e-08
-3.46486e-09
4.66193e-08
6.20439e-08
-3.32653e-09
3.57418e-08
6.1474e-08
-3.13595e-09
2.56794e-08
6.0611e-08
-2.92103e-09
1.65428e-08
5.94364e-08
-2.70967e-09
8.43749e-09
5.78959e-08
-2.53306e-09
1.46289e-09
5.59267e-08
-2.42494e-09
-4.25007e-09
5.34068e-08
-2.41975e-09
-8.56771e-09
5.01887e-08
-2.54074e-09
-1.12427e-08
4.60293e-08
-2.84498e-09
-1.17255e-08
4.06651e-08
-3.58746e-09
-8.89408e-09
3.33736e-08
-4.97508e-09
1.65934e-08
-6.66282e-09
4.4191e-10
8.51071e-09
8.30787e-09
-8.1208e-10
2.20325e-08
7.18385e-09
-1.68991e-09
2.82107e-08
5.99922e-09
-2.21902e-09
3.29456e-08
5.23399e-09
-2.47321e-09
3.67027e-08
4.58842e-09
-2.4237e-09
3.97339e-08
3.88595e-09
-1.99063e-09
4.22132e-08
3.07839e-09
-1.12844e-09
4.42797e-08
2.19878e-09
1.68366e-10
4.60164e-08
1.2971e-09
1.91265e-09
4.76292e-08
3.42633e-10
4.12972e-09
4.93491e-08
-6.93097e-10
6.82667e-09
5.12971e-08
-1.7935e-09
9.9457e-09
5.34168e-08
-2.85812e-09
1.33585e-08
5.55613e-08
-3.78297e-09
1.69218e-08
5.75834e-08
-4.5346e-09
2.05101e-08
5.94799e-08
-5.13597e-09
2.40077e-08
6.12287e-08
-5.59789e-09
2.72804e-08
6.28199e-08
-5.91284e-09
3.01878e-08
6.42333e-08
-6.0832e-09
3.25731e-08
6.54588e-08
-6.11359e-09
3.42945e-08
6.64727e-08
-6.01524e-09
3.522e-08
6.72612e-08
-5.80002e-09
3.52555e-08
6.77967e-08
-5.48734e-09
3.43355e-08
6.80607e-08
-5.09607e-09
3.24436e-08
6.8019e-08
-4.65236e-09
2.95974e-08
6.76392e-08
-4.18152e-09
2.58825e-08
6.68639e-08
-3.71286e-09
2.14222e-08
6.56293e-08
-3.27478e-09
1.64217e-08
6.3829e-08
-2.90052e-09
1.11212e-08
6.13225e-08
-2.61591e-09
5.86133e-09
5.79017e-08
-2.45258e-09
1.11685e-09
5.32589e-08
-2.48536e-09
-2.2509e-09
4.69836e-08
-2.95161e-09
-3.21217e-09
3.8394e-08
-4.05799e-09
1.87689e-08
-5.38797e-09
-4.7716e-09
7.85685e-09
5.42576e-09
-1.07909e-08
2.27667e-08
5.28419e-09
-1.6951e-08
2.94734e-08
4.89891e-09
-2.3138e-08
3.45762e-08
4.55493e-09
-2.90791e-08
3.85086e-08
4.13568e-09
-3.45149e-08
4.15883e-08
3.5819e-09
-3.92345e-08
4.40453e-08
2.88726e-09
-4.30679e-08
4.60556e-08
2.0569e-09
-4.59509e-08
4.7758e-08
1.14324e-09
-4.78045e-08
4.92656e-08
2.15045e-10
-4.84857e-08
5.06666e-08
-6.36012e-10
-4.7804e-08
5.20185e-08
-1.4037e-09
-4.56676e-08
5.3358e-08
-2.07732e-09
-4.21471e-08
5.47003e-08
-2.6588e-09
-3.74855e-08
5.60563e-08
-3.13418e-09
-3.19345e-08
5.74243e-08
-3.49633e-09
-2.57699e-08
5.87989e-08
-3.73372e-09
-1.92626e-08
6.01615e-08
-3.84965e-09
-1.26835e-08
6.14952e-08
-3.84001e-09
-6.28894e-09
6.27742e-08
-3.71329e-09
-3.15145e-10
6.39743e-08
-3.47097e-09
5.01009e-09
6.50608e-08
-3.12817e-09
9.50145e-09
6.60001e-08
-2.6927e-09
1.30023e-08
6.67453e-08
-2.18737e-09
1.5404e-08
6.72481e-08
-1.62974e-09
1.66586e-08
6.74422e-08
-1.05702e-09
1.67685e-08
6.72527e-08
-4.99263e-10
1.58206e-08
6.65762e-08
1.94129e-12
1.39274e-08
6.52837e-08
4.36727e-10
1.12942e-08
6.31936e-08
7.62639e-10
8.16688e-09
6.00639e-08
9.64705e-10
4.88984e-09
5.55528e-08
9.83773e-10
1.99624e-09
4.91975e-08
6.80715e-10
1.15885e-10
4.03599e-08
-8.95389e-11
2.00323e-08
-1.14487e-09
-6.34298e-09
8.21231e-09
5.9872e-09
-1.35285e-08
2.31884e-08
6.76424e-09
-2.08773e-08
2.98475e-08
6.97451e-09
-2.81153e-08
3.48347e-08
6.97907e-09
-3.49928e-08
3.86088e-08
6.77586e-09
-4.12885e-08
4.14853e-08
6.40245e-09
-4.68169e-08
4.37033e-08
5.86717e-09
-5.13841e-08
4.54351e-08
5.18927e-09
-5.48377e-08
4.68172e-08
4.39318e-09
-5.70709e-08
4.79496e-08
3.54834e-09
-5.80418e-08
4.89198e-08
2.71921e-09
-5.77837e-08
4.97913e-08
1.96728e-09
-5.63578e-08
5.06217e-08
1.31245e-09
-5.38801e-08
5.14469e-08
7.73531e-10
-5.04664e-08
5.22994e-08
3.44382e-10
-4.6269e-08
5.31922e-08
3.38156e-11
-4.14471e-08
5.41366e-08
-1.58045e-10
-3.61846e-08
5.51262e-08
-2.28306e-10
-3.06588e-08
5.61561e-08
-1.85747e-10
-2.50649e-08
5.72039e-08
-2.43712e-11
-1.95897e-08
5.82499e-08
2.49623e-10
-1.44195e-08
5.92558e-08
6.35147e-10
-9.71785e-09
6.01855e-08
1.11284e-09
-5.63208e-09
6.09819e-08
1.67687e-09
-2.26315e-09
6.15877e-08
2.29189e-09
3.257e-10
6.1923e-08
2.93007e-09
2.13681e-09
6.19063e-08
3.53562e-09
3.21576e-09
6.14226e-08
4.07386e-09
3.65663e-09
6.03407e-08
4.5017e-09
3.5628e-09
5.84756e-08
4.81193e-09
3.05243e-09
5.55962e-08
4.97794e-09
2.25597e-09
5.13737e-08
4.97555e-09
1.36393e-09
4.53838e-08
4.70461e-09
6.36875e-10
3.70027e-08
4.08383e-09
1.77238e-08
2.94674e-09
-6.67405e-09
8.44567e-09
6.44169e-09
-1.37529e-08
2.24744e-08
7.7912e-09
-2.09285e-08
2.86771e-08
8.34721e-09
-2.79306e-08
3.32797e-08
8.55521e-09
-3.45064e-08
3.66909e-08
8.49581e-09
-4.0464e-08
3.92101e-08
8.23115e-09
-4.56164e-08
4.10605e-08
7.79632e-09
-4.97946e-08
4.24127e-08
7.19958e-09
-5.28472e-08
4.33936e-08
6.47708e-09
-5.46874e-08
4.41105e-08
5.67814e-09
-5.52896e-08
4.46444e-08
4.87867e-09
-5.46976e-08
4.50703e-08
4.12796e-09
-5.29892e-08
4.54451e-08
3.46877e-09
-5.0278e-08
4.58246e-08
2.91061e-09
-4.66918e-08
4.62441e-08
2.47004e-09
-4.238e-08
4.67368e-08
2.1432e-09
-3.74993e-08
4.73162e-08
1.93953e-09
-3.22198e-08
4.79939e-08
1.85183e-09
-2.67131e-08
4.87619e-08
1.88911e-09
-2.11631e-08
4.96116e-08
2.04216e-09
-1.57452e-08
5.05134e-08
2.31861e-09
-1.06336e-08
5.14382e-08
2.70481e-09
-5.98305e-09
5.23343e-08
3.20123e-09
-1.93694e-09
5.31522e-08
3.78314e-09
1.39648e-09
5.38185e-08
4.43443e-09
3.95336e-09
5.4262e-08
5.10629e-09
5.71918e-09
5.43826e-08
5.75771e-09
6.73601e-09
5.40777e-08
6.32593e-09
7.09412e-09
5.32054e-08
6.77966e-09
6.87733e-09
5.16042e-08
7.0869e-09
6.18169e-09
4.90499e-08
7.243e-09
5.08539e-09
4.52604e-08
7.2084e-09
3.70342e-09
3.98515e-08
6.91485e-09
2.14852e-09
3.23053e-08
6.25301e-09
1.50015e-08
4.86978e-09
-5.741e-09
8.54882e-09
5.64033e-09
-1.23939e-08
2.18835e-08
7.24063e-09
-1.93898e-08
2.77139e-08
7.95881e-09
-2.6308e-08
3.19378e-08
8.26078e-09
-3.28227e-08
3.49509e-08
8.25395e-09
-3.86786e-08
3.70344e-08
8.03232e-09
-4.36516e-08
3.84107e-08
7.62287e-09
-4.75368e-08
3.9249e-08
7.04789e-09
-5.01646e-08
3.96878e-08
6.33406e-09
-5.14382e-08
3.98415e-08
5.54261e-09
-5.13372e-08
3.98077e-08
4.73552e-09
-4.99146e-08
3.96723e-08
3.97603e-09
-4.72779e-08
3.95107e-08
3.2975e-09
-4.35653e-08
3.9387e-08
2.72586e-09
-3.89434e-08
3.9354e-08
2.26692e-09
-3.35897e-08
3.94513e-08
1.93223e-09
-2.77007e-08
3.97074e-08
1.71964e-09
-2.14789e-08
4.0136e-08
1.63727e-09
-1.51391e-08
4.07405e-08
1.68002e-09
-8.88834e-09
4.15072e-08
1.85352e-09
-2.93509e-09
4.24108e-08
2.14974e-09
2.52251e-09
4.34099e-08
2.57126e-09
7.29636e-09
4.44555e-08
3.10419e-09
1.12284e-08
4.54803e-08
3.7404e-09
1.41887e-08
4.641e-08
4.44739e-09
1.61086e-08
4.7152e-08
5.19112e-09
1.69732e-08
4.76069e-08
5.91034e-09
1.6846e-08
4.76524e-08
6.55299e-09
1.58353e-08
4.71536e-08
7.06222e-09
1.40833e-08
4.59396e-08
7.41564e-09
1.17356e-08
4.38081e-08
7.58978e-09
8.94855e-09
4.04875e-08
7.56106e-09
5.92155e-09
3.56424e-08
7.23478e-09
2.93472e-09
2.87962e-08
6.49709e-09
1.30189e-08
4.9166e-09
-4.95007e-09
9.9299e-09
3.56911e-09
-1.17489e-08
2.35084e-08
5.17417e-09
-1.93327e-08
2.93482e-08
5.94972e-09
-2.70575e-08
3.34149e-08
6.2464e-09
-3.44202e-08
3.61091e-08
6.20531e-09
-4.10418e-08
3.7729e-08
5.92647e-09
-4.65958e-08
3.85162e-08
5.44843e-09
-5.0801e-08
3.86671e-08
4.78868e-09
-5.34489e-08
3.83467e-08
3.98832e-09
-5.44125e-08
3.76997e-08
3.10396e-09
-5.36636e-08
3.68533e-08
2.2079e-09
-5.12736e-08
3.59232e-08
1.3567e-09
-4.73695e-08
3.50107e-08
5.97866e-10
-4.21447e-08
3.42058e-08
-4.52538e-11
-3.58136e-08
3.35811e-08
-5.57024e-10
-2.86273e-08
3.31956e-08
-9.30136e-10
-2.08541e-08
3.30893e-08
-1.15676e-09
-1.27669e-08
3.32878e-08
-1.2388e-09
-4.65217e-09
3.37961e-08
-1.17039e-09
3.20751e-09
3.46035e-08
-9.55781e-10
1.05328e-08
3.56781e-08
-5.92837e-10
1.70587e-08
3.69732e-08
-8.89554e-11
2.25442e-08
3.84215e-08
5.48276e-10
2.6782e-08
3.99423e-08
1.30064e-09
2.96139e-08
4.14353e-08
2.14269e-09
3.09511e-08
4.27891e-08
3.02486e-09
3.07944e-08
4.38736e-08
3.89138e-09
2.92259e-08
4.4546e-08
4.67311e-09
2.64215e-08
4.46412e-08
5.31715e-09
2.26071e-08
4.39734e-08
5.78231e-09
1.80451e-08
4.23186e-08
6.05018e-09
1.30425e-08
3.94043e-08
6.08366e-09
8.00689e-09
3.48926e-08
5.78857e-09
3.44142e-09
2.83343e-08
5.0242e-09
1.30206e-08
3.44108e-09
-4.38449e-09
1.3278e-08
1.03704e-09
-1.17301e-08
2.84138e-08
2.43908e-09
-2.03473e-08
3.47978e-08
3.16718e-09
-2.93373e-08
3.9026e-08
3.37947e-09
-3.80056e-08
4.15564e-08
3.22042e-09
-4.58208e-08
4.27397e-08
2.80388e-09
-5.2341e-08
4.28733e-08
2.16408e-09
-5.72054e-08
4.22019e-08
1.32951e-09
-6.01465e-08
4.0945e-08
3.41893e-10
-6.10112e-08
3.92946e-08
-7.29435e-10
-5.97764e-08
3.74298e-08
-1.81189e-09
-5.6525e-08
3.5507e-08
-2.83414e-09
-5.14349e-08
3.36666e-08
-3.74886e-09
-4.47343e-08
3.20278e-08
-4.52002e-09
-3.67157e-08
3.06941e-08
-5.13324e-09
-2.76867e-08
2.97423e-08
-5.57476e-09
-1.79879e-08
2.92331e-08
-5.84316e-09
-7.96667e-09
2.91983e-08
-5.93236e-09
2.02327e-09
2.96519e-08
-5.84521e-09
1.16264e-08
3.05784e-08
-5.57811e-09
2.04935e-08
3.1946e-08
-5.13521e-09
2.82922e-08
3.36917e-08
-4.51713e-09
3.47155e-08
3.57345e-08
-3.73718e-09
3.95043e-08
3.7967e-08
-2.81124e-09
4.24525e-08
4.02629e-08
-1.77676e-09
4.34539e-08
4.24707e-08
-6.82862e-10
4.25047e-08
4.44234e-08
3.98682e-10
3.97252e-08
4.59307e-08
1.39565e-09
3.53407e-08
4.67842e-08
2.24056e-09
2.9676e-08
4.67491e-08
2.89037e-09
2.31183e-08
4.55608e-08
3.31635e-09
1.61332e-08
4.29017e-08
3.48591e-09
9.33585e-09
3.83956e-08
3.29506e-09
3.50877e-09
3.15552e-08
2.60664e-09
1.52913e-08
1.23739e-09
-3.99891e-09
1.83293e-08
-1.05238e-09
-1.16272e-08
3.60021e-08
4.0502e-11
-2.07876e-08
4.33513e-08
6.05151e-10
-3.04514e-08
4.80266e-08
6.6432e-10
-3.98109e-08
5.05702e-08
3.45755e-10
-4.82392e-08
5.1419e-08
-2.50929e-10
-5.52171e-08
5.0941e-08
-1.08965e-09
-6.03295e-08
4.94576e-08
-2.14381e-09
-6.3277e-08
4.72528e-08
-3.35937e-09
-6.39096e-08
4.45893e-08
-4.663e-09
-6.22139e-08
4.16996e-08
-5.96528e-09
-5.8315e-08
3.87977e-08
-7.19e-09
-5.24295e-08
3.60589e-08
-8.27758e-09
-4.48436e-08
3.36348e-08
-9.1932e-09
-3.58796e-08
3.16454e-08
-9.91433e-09
-2.58882e-08
3.01856e-08
-1.04349e-08
-1.52282e-08
2.93195e-08
-1.07482e-08
-4.26168e-09
2.90885e-08
-1.08549e-08
6.63518e-09
2.9505e-08
-1.07513e-08
1.70941e-08
3.05599e-08
-1.044e-08
2.67447e-08
3.2215e-08
-9.91894e-09
3.52204e-08
3.44085e-08
-9.19364e-09
4.21799e-08
3.70461e-08
-8.27005e-09
4.73078e-08
4.0008e-08
-7.16938e-09
5.03577e-08
4.31392e-08
-5.92667e-09
5.11803e-08
4.62527e-08
-4.60424e-09
4.97579e-08
4.91258e-08
-3.27989e-09
4.62167e-08
5.15143e-08
-2.04341e-09
4.08283e-08
5.3143e-08
-9.70181e-10
3.39781e-08
5.37139e-08
-1.13173e-10
2.61484e-08
5.28931e-08
4.96596e-10
1.7921e-08
5.02984e-08
8.29383e-10
1.00459e-08
4.54776e-08
7.94662e-10
3.45901e-09
3.78691e-08
2.72947e-10
1.95133e-08
-7.63494e-10
-3.78608e-09
2.42659e-08
-2.15206e-09
-1.1232e-08
4.48303e-08
-1.3812e-09
-2.01942e-08
5.33223e-08
-1.00761e-09
-2.96541e-08
5.85902e-08
-1.10447e-09
-3.8796e-08
6.12784e-08
-1.56628e-09
-4.69733e-08
6.19076e-08
-2.31143e-09
-5.36461e-08
6.09299e-08
-3.31613e-09
-5.83807e-08
5.87434e-08
-4.55009e-09
-6.08863e-08
5.57132e-08
-5.95726e-09
-6.10195e-08
5.21722e-08
-7.4476e-09
-5.88274e-08
4.84315e-08
-8.92398e-09
-5.44973e-08
4.4762e-08
-1.02956e-08
-4.83129e-08
4.13762e-08
-1.15018e-08
-4.05997e-08
3.84296e-08
-1.25062e-08
-3.16972e-08
3.60357e-08
-1.32946e-08
-2.19253e-08
3.42746e-08
-1.386e-08
-1.16106e-08
3.32075e-08
-1.42036e-08
-1.06185e-09
3.2863e-08
-1.43233e-08
9.40987e-09
3.32546e-08
-1.42204e-08
1.94894e-08
3.43707e-08
-1.38916e-08
2.88552e-08
3.61872e-08
-1.33367e-08
3.71712e-08
3.86453e-08
-1.2553e-08
4.40914e-08
4.16712e-08
-1.15461e-08
4.92712e-08
4.51586e-08
-1.03298e-08
5.23972e-08
4.89536e-08
-8.94093e-09
5.32501e-08
5.28428e-08
-7.4425e-09
5.17594e-08
5.65421e-08
-5.92751e-09
4.80474e-08
5.97249e-08
-4.49632e-09
4.23895e-08
6.20417e-08
-3.24073e-09
3.5205e-08
6.31147e-08
-2.21811e-09
2.70209e-08
6.25356e-08
-1.45834e-09
1.84584e-08
5.98448e-08
-9.83027e-10
1.02881e-08
5.45135e-08
-8.65567e-10
3.47225e-09
4.58897e-08
-1.20418e-09
2.49263e-08
-1.94176e-09
-3.81335e-09
3.04407e-08
-2.3605e-09
-1.0988e-08
5.38236e-08
-1.81989e-09
-1.9527e-08
6.34557e-08
-1.59367e-09
-2.85124e-08
6.93597e-08
-1.78569e-09
-3.71783e-08
7.22629e-08
-2.31763e-09
-4.48948e-08
7.27572e-08
-3.1329e-09
-5.11027e-08
7.13561e-08
-4.21767e-09
-5.53509e-08
6.85391e-08
-5.54876e-09
-5.72909e-08
6.47217e-08
-7.06897e-09
-5.67686e-08
6.03401e-08
-8.68924e-09
-5.39472e-08
5.59044e-08
-1.02945e-08
-4.91961e-08
5.17779e-08
-1.17673e-08
-4.28856e-08
4.80941e-08
-1.30274e-08
-3.53481e-08
4.49399e-08
-1.4049e-08
-2.68876e-08
4.24087e-08
-1.4833e-08
-1.7783e-08
4.05588e-08
-1.53889e-08
-8.28861e-09
3.94362e-08
-1.57234e-08
1.35566e-09
3.90621e-08
-1.58423e-08
1.09146e-08
3.94435e-08
-1.57469e-08
2.01474e-08
4.05713e-08
-1.54349e-08
2.88065e-08
4.24257e-08
-1.48985e-08
3.66216e-08
4.49605e-08
-1.41294e-08
4.32874e-08
4.81211e-08
-1.31156e-08
4.84766e-08
5.18217e-08
-1.18523e-08
5.18016e-08
5.59931e-08
-1.03645e-08
5.28696e-08
6.051e-08
-8.73483e-09
5.14905e-08
6.50093e-08
-7.08871e-09
4.77993e-08
6.89641e-08
-5.54763e-09
4.21492e-08
7.18932e-08
-4.20283e-09
3.49985e-08
7.33748e-08
-3.10917e-09
2.68919e-08
7.29302e-08
-2.28725e-09
1.84427e-08
7.00413e-08
-1.74836e-09
1.03856e-08
6.41148e-08
-1.54382e-09
3.6019e-09
5.44199e-08
-1.74692e-09
3.0791e-08
-2.26222e-09
-3.79537e-09
3.63137e-08
-2.07528e-09
-1.06567e-08
6.23071e-08
-1.62563e-09
-1.8755e-08
7.30149e-08
-1.46036e-09
-2.72774e-08
7.95543e-08
-1.67149e-09
-3.55355e-08
8.2722e-08
-2.20095e-09
-4.29258e-08
8.31532e-08
-3.00679e-09
-4.89023e-08
8.14234e-08
-4.08969e-09
-5.29487e-08
7.80216e-08
-5.43761e-09
-5.46167e-08
7.34102e-08
-7.01823e-09
-5.3799e-08
6.82813e-08
-8.75983e-09
-5.07306e-08
6.3332e-08
-1.04976e-08
-4.5833e-08
5.89153e-08
-1.20318e-08
-3.95494e-08
5.50825e-08
-1.32751e-08
-3.21828e-08
5.18131e-08
-1.42384e-08
-2.40184e-08
4.91987e-08
-1.49544e-08
-1.52999e-08
4.72903e-08
-1.54504e-08
-6.25059e-09
4.61324e-08
-1.57443e-08
2.91138e-09
4.57462e-08
-1.58458e-08
1.19708e-08
4.61407e-08
-1.57583e-08
2.07165e-08
4.73058e-08
-1.54788e-08
2.89219e-08
4.92184e-08
-1.4998e-08
3.63452e-08
5.18334e-08
-1.42973e-08
4.27154e-08
5.50977e-08
-1.33484e-08
4.77349e-08
5.89191e-08
-1.21148e-08
5.09726e-08
6.3336e-08
-1.05809e-08
5.20055e-08
6.83088e-08
-8.83336e-09
5.05921e-08
7.35007e-08
-7.07583e-09
4.68302e-08
7.8209e-08
-5.48362e-09
4.11633e-08
8.16917e-08
-4.13269e-09
3.41095e-08
8.34784e-08
-3.04808e-09
2.61926e-08
8.30858e-08
-2.24e-09
1.80076e-08
7.99343e-08
-1.70658e-09
1.02195e-08
7.33882e-08
-1.48639e-09
3.62489e-09
6.2649e-08
-1.63485e-09
3.6478e-08
-2.06168e-09
-3.7269e-09
4.15167e-08
-1.4739e-09
-1.02656e-08
6.98446e-08
-1.00128e-09
-1.79492e-08
8.15292e-08
-8.30191e-10
-2.60563e-08
8.86738e-08
-1.01241e-09
-3.39626e-08
9.21258e-08
-1.49754e-09
-4.11191e-08
9.25641e-08
-2.25444e-09
-4.70017e-08
9.05936e-08
-3.28873e-09
-5.10487e-08
8.66831e-08
-4.6138e-09
-5.28768e-08
8.1472e-08
-6.23339e-09
-5.24002e-08
7.58395e-08
-8.0353e-09
-4.97293e-08
7.04497e-08
-9.78804e-09
-4.5132e-08
6.56107e-08
-1.12933e-08
-3.89921e-08
6.14202e-08
-1.24779e-08
-3.16693e-08
5.78648e-08
-1.33742e-08
-2.34674e-08
5.5022e-08
-1.40263e-08
-1.46552e-08
5.29515e-08
-1.44717e-08
-5.48543e-09
5.16938e-08
-1.47324e-08
3.80661e-09
5.12739e-08
-1.48201e-08
1.29855e-08
5.16992e-08
-1.47378e-08
2.18116e-08
5.29619e-08
-1.44829e-08
3.00376e-08
5.50366e-08
-1.40438e-08
3.73882e-08
5.78825e-08
-1.33989e-08
4.35574e-08
6.14395e-08
-1.25111e-08
4.81836e-08
6.56303e-08
-1.13376e-08
5.08913e-08
7.04726e-08
-9.84422e-09
5.14278e-08
7.58743e-08
-8.10033e-09
4.969e-08
8.15365e-08
-6.30116e-09
4.57845e-08
8.67966e-08
-4.68118e-09
4.00736e-08
9.07591e-08
-3.35588e-09
3.31067e-08
9.27674e-08
-2.32115e-09
2.53998e-08
9.23548e-08
-1.56257e-09
1.74934e-08
8.89152e-08
-1.07412e-09
9.99527e-09
8.17683e-08
-8.84495e-10
3.62253e-09
7.00666e-08
-1.04208e-09
4.15943e-08
-1.49484e-09
-3.80561e-09
4.59439e-08
-6.20306e-10
-1.01346e-08
7.62199e-08
-4.8106e-11
-1.75105e-08
8.8737e-08
1.67696e-10
-2.52929e-08
9.6417e-08
4.05245e-11
-3.29349e-08
1.00145e-07
-3.79253e-10
-3.99493e-08
1.00644e-07
-1.06548e-09
-4.58353e-08
9.85144e-08
-2.03463e-09
-5.00763e-08
9.42478e-08
-3.32362e-09
-5.2343e-08
8.86549e-08
-4.91678e-09
-5.24073e-08
8.2578e-08
-6.67291e-09
-5.0211e-08
7.66211e-08
-8.36758e-09
-4.59109e-08
7.11353e-08
-9.82547e-09
-3.98322e-08
6.63165e-08
-1.09764e-08
-3.23873e-08
6.22621e-08
-1.18401e-08
-2.39547e-08
5.90437e-08
-1.24562e-08
-1.48472e-08
5.67126e-08
-1.28688e-08
-5.34668e-09
5.53023e-08
-1.31076e-08
4.28252e-09
5.48316e-08
-1.31869e-08
1.37848e-08
5.53062e-08
-1.31106e-08
2.29024e-08
5.67204e-08
-1.28749e-08
3.13482e-08
5.90552e-08
-1.24659e-08
3.88077e-08
6.22774e-08
-1.1854e-08
4.49087e-08
6.63357e-08
-1.09956e-08
4.92305e-08
7.11593e-08
-9.85177e-09
5.14524e-08
7.66519e-08
-8.40273e-09
5.14272e-08
8.26203e-08
-6.71738e-09
4.92134e-08
8.87151e-08
-4.96838e-09
4.50567e-08
9.43347e-08
-3.37882e-09
3.92728e-08
9.86333e-08
-2.09169e-09
3.23773e-08
1.00788e-07
-1.12444e-09
2.48647e-08
1.00305e-07
-4.38802e-10
1.72126e-08
9.65857e-08
-1.78665e-11
9.95976e-09
8.89055e-08
1.1519e-10
3.73632e-09
7.63794e-08
-9.0241e-11
4.59772e-08
-6.45729e-10
-3.94465e-09
4.95745e-08
3.13239e-10
-1.01198e-08
8.13739e-08
1.02111e-09
-1.7238e-08
9.45556e-08
1.30123e-09
-2.47364e-08
1.02675e-07
1.23907e-09
-3.2121e-08
1.06647e-07
8.84717e-10
-3.89761e-08
1.07228e-07
2.69888e-10
-4.48539e-08
1.05016e-07
-6.24171e-10
-4.92956e-08
1.00538e-07
-1.84589e-09
-5.19087e-08
9.46431e-08
-3.37715e-09
-5.23729e-08
8.8111e-08
-5.06748e-09
-5.05551e-08
8.15023e-08
-6.70071e-09
-4.65347e-08
7.52305e-08
-8.11493e-09
-4.05758e-08
6.96e-08
-9.24174e-09
-3.30794e-08
6.48463e-08
-1.00802e-08
-2.44761e-08
6.11114e-08
-1.06723e-08
-1.51283e-08
5.84285e-08
-1.10642e-08
-5.34837e-09
5.68139e-08
-1.12889e-08
4.56927e-09
5.62757e-08
-1.13627e-08
1.43487e-08
5.68165e-08
-1.12906e-08
2.37033e-08
5.84338e-08
-1.10677e-08
3.23168e-08
6.11197e-08
-1.06778e-08
3.98245e-08
6.48581e-08
-1.00883e-08
4.57981e-08
6.9616e-08
-9.25325e-09
4.98365e-08
7.52518e-08
-8.13116e-09
5.16813e-08
8.15307e-08
-6.72312e-09
5.12476e-08
8.81489e-08
-5.09684e-09
4.86832e-08
9.46937e-08
-3.41296e-09
4.42983e-08
1.00605e-07
-1.88674e-09
3.84973e-08
1.05104e-07
-6.68542e-10
3.17294e-08
1.07332e-07
2.23051e-10
2.44364e-08
1.06761e-07
8.37454e-10
1.70327e-08
1.02796e-07
1.19305e-09
9.99972e-09
9.46788e-08
1.25938e-09
3.89634e-09
8.14941e-08
9.87534e-10
4.95821e-08
2.92423e-10
-4.0376e-09
5.25033e-08
1.10848e-09
-1.00892e-08
8.5475e-08
1.94992e-09
-1.70008e-08
9.91784e-08
2.28946e-09
-2.42604e-08
1.07649e-07
2.28426e-09
-3.14228e-08
1.11824e-07
1.9874e-09
-3.81127e-08
1.12482e-07
1.43366e-09
-4.39206e-08
1.10224e-07
6.01014e-10
-4.84398e-08
1.05616e-07
-5.59821e-10
-5.12277e-08
9.94605e-08
-2.02851e-09
-5.19391e-08
9.24719e-08
-3.65058e-09
-5.03996e-08
8.51806e-08
-5.21836e-09
-4.66435e-08
7.80602e-08
-6.58534e-09
-4.08754e-08
7.15177e-08
-7.6857e-09
-3.34438e-08
6.59221e-08
-8.50758e-09
-2.47792e-08
6.15347e-08
-9.08868e-09
-1.52966e-08
5.84144e-08
-9.46703e-09
-5.34835e-09
5.65462e-08
-9.6814e-09
4.75345e-09
5.59252e-08
-9.75165e-09
1.47038e-08
5.65479e-08
-9.6824e-09
2.41902e-08
5.84179e-08
-9.46912e-09
3.28611e-08
6.15404e-08
-9.09206e-09
4.0302e-08
6.59306e-08
-8.5126e-09
4.60808e-08
7.15297e-08
-7.69294e-09
4.98522e-08
7.80768e-08
-6.59584e-09
5.14107e-08
8.52029e-08
-5.23326e-09
5.07304e-08
9.25015e-08
-3.67067e-09
4.79787e-08
9.94991e-08
-2.05383e-09
4.35081e-08
1.05666e-07
-5.89509e-10
3.77578e-08
1.10286e-07
5.68188e-10
3.11334e-08
1.12555e-07
1.39901e-09
2.4038e-08
1.11905e-07
1.95218e-09
1.68508e-08
1.07736e-07
2.24984e-09
1.00024e-08
9.92691e-08
2.25805e-09
4.0025e-09
8.55673e-08
1.92463e-09
5.24937e-08
1.09163e-09
-4.05162e-09
5.4911e-08
1.6449e-09
-1.00025e-08
8.88501e-08
2.57424e-09
-1.67702e-08
1.02989e-07
2.95728e-09
-2.38684e-08
1.11753e-07
2.99461e-09
-3.08857e-08
1.161e-07
2.74075e-09
-3.74517e-08
1.16819e-07
2.22994e-09
-4.31756e-08
1.14513e-07
1.4343e-09
-4.76716e-08
1.09801e-07
3.10709e-10
-5.04953e-08
1.03392e-07
-1.10735e-09
-5.12919e-08
9.59346e-08
-2.66563e-09
-4.9893e-08
8.79508e-08
-4.17002e-09
-4.63121e-08
7.99645e-08
-5.48508e-09
-4.07181e-08
7.24761e-08
-6.55047e-09
-3.34168e-08
6.59737e-08
-7.35579e-09
-2.47909e-08
6.08365e-08
-7.92615e-09
-1.5293e-08
5.72129e-08
-8.29552e-09
-5.30121e-09
5.50556e-08
-8.50189e-09
4.85241e-09
5.43401e-08
-8.56876e-09
1.48457e-08
5.50567e-08
-8.50239e-09
2.43456e-08
5.72152e-08
-8.29659e-09
3.29742e-08
6.08403e-08
-7.92794e-09
4.02825e-08
6.59796e-08
-7.3586e-09
4.58841e-08
7.24845e-08
-6.55481e-09
4.94752e-08
7.99761e-08
-5.49166e-09
5.08925e-08
8.79665e-08
-4.17965e-09
5.01161e-08