/*--------------------------------*- C++ -*----------------------------------*\
| =========                 |                                                 |
| \\      /  F ield         | OpenFOAM: The Open Source CFD Toolbox           |
|  \\    /   O peration     | Version:  v1906                                 |
|   \\  /    A nd           | Web:      www.OpenFOAM.com                      |
|    \\/     M anipulation  |                                                 |
\*---------------------------------------------------------------------------*/
FoamFile
{
    version     2.0;
    format      ascii;
    class       volScalarField;
    location    "90.4/sphere";
    object      T;
}
// * * * * * * * * * * * * * * * * * * * * * * * * * * * * * * * * * * * * * //

dimensions      [0 0 0 1 0 0 0];


internalField   nonuniform List<scalar> 
304
(
453.631
453.658
453.652
453.669
453.628
453.617
453.631
453.66
453.63
453.766
453.766
453.67
453.651
453.759
453.759
453.692
453.652
453.683
453.613
453.659
453.675
453.631
453.659
453.766
453.766
453.698
453.669
453.759
453.759
453.718
453.615
453.683
453.71
453.648
453.632
453.672
453.698
453.635
453.631
453.693
453.718
453.656
453.614
453.648
453.604
453.619
453.632
453.633
453.634
453.664
453.632
453.632
453.664
453.634
453.619
453.631
453.634
453.631
453.663
453.659
453.657
453.672
453.671
453.699
453.697
453.721
453.631
453.672
453.658
453.699
453.671
453.721
453.697
453.631
453.634
453.663
453.632
453.624
453.624
453.655
453.616
453.668
453.616
453.647
453.691
453.717
453.655
453.686
453.654
453.648
453.619
453.717
453.693
453.688
453.657
453.658
453.627
453.618
453.601
453.616
453.612
453.646
453.612
453.647
453.613
453.612
453.601
453.633
453.631
453.631
453.663
453.66
453.67
453.7
453.659
453.675
453.699
453.724
453.632
453.7
453.671
453.675
453.66
453.724
453.699
453.633
453.632
453.664
453.632
453.67
453.657
453.697
453.658
453.698
453.672
453.721
453.63
453.697
453.658
453.698
453.659
453.721
453.672
453.691
453.617
453.656
453.669
453.717
453.648
453.687
453.654
453.657
453.619
453.718
453.669
453.688
453.649
453.614
453.616
453.647
453.612
453.683
453.61
453.641
453.683
453.71
453.641
453.659
453.652
453.641
453.61
453.71
453.683
453.659
453.641
453.647
453.616
453.612
453.63
453.632
453.664
453.635
453.675
453.699
453.724
453.631
453.659
453.671
453.699
453.659
453.724
453.699
453.659
453.629
453.699
453.669
453.663
453.631
453.632
453.699
453.673
453.721
453.633
453.673
453.659
453.698
453.659
453.721
453.673
453.67
453.631
453.697
453.658
453.718
453.649
453.687
453.655
453.694
453.62
453.658
453.67
453.688
453.649
453.692
453.654
453.657
453.619
453.646
453.612
453.614
453.71
453.641
453.659
453.653
453.684
453.611
453.642
453.684
453.659
453.642
453.684
453.654
453.643
453.614
453.617
453.613
453.615
453.622
453.631
453.634
453.663
453.631
453.663
453.632
453.63
453.618
453.637
453.632
453.664
453.632
453.699
453.698
453.721
453.633
453.659
453.659
453.673
453.67
453.721
453.697
453.658
453.63
453.672
453.657
453.663
453.631
453.63
453.659
453.62
453.627
453.718
453.657
453.688
453.653
453.669
453.618
453.649
453.692
453.688
453.658
453.669
453.653
453.649
453.619
453.626
453.618
453.625
453.604
453.647
453.613
453.617
453.615
453.614
453.617
)
;

boundaryField
{
    sphere_to_oil
    {
        type            compressible::turbulentTemperatureCoupledBaffleMixed;
        refValue        nonuniform List<scalar> 
360
(
331.089
331.089
321.802
354.233
361.05
324.718
362.044
362.044
362.044
341.122
341.122
328.706
333.414
320.772
340.652
348.628
344.671
344.671
344.671
322.256
343.612
323.601
327.417
356.944
317.408
357.173
322.977
357.176
357.176
357.176
362.543
355.821
321.703
321.373
328.444
328.538
345.549
345.549
345.549
344.889
345.723
321.854
323.406
331.542
331.542
322.79
331.112
314.8
330.734
357.495
324.65
324.781
332.676
333.244
322.006
323.36
345.037
322.343
323.459
332.372
316.625
358.267
358.267
358.267
314.848
356.869
330.644
323.002
360.583
360.583
360.583
361.49
360.297
319.927
344.581
340.049
321.795
326.719
345.667
345.591
328.157
319.857
327.846
316.514
321.692
324.288
328.627
333.116
321.302
322.484
321.932
332.11
328.27
322.037
331.754
328.243
328.862
329.178
325.098
316.592
316.701
321.984
324.663
328.261
332.016
321.912
320.658
333.314
324.743
329.135
328.906
329.011
325.081
322.258
315.003
314.963
327.527
323.203
328.532
331.01
331.01
354.233
354.233
356.944
356.944
354.672
354.672
354.672
356.302
356.302
356.302
327.912
323.44
327.467
322.907
361.05
361.05
338.127
338.127
362.543
362.543
337.588
337.588
361.951
361.951
361.951
322.589
322.351
349.155
349.155
349.155
348.977
348.977
348.977
348.628
343.612
340.652
348.628
348.841
322.172
348.841
348.841
327.464
328.274
319.98
323.692
323.692
346.915
346.915
346.915
316.582
343.612
323.601
346.122
346.122
316.475
346.122
328.257
319.903
314.879
323.001
323.333
331.723
317.293
331.175
323.257
314.927
316.809
357.173
357.173
355.821
355.821
331.93
331.93
354.261
354.261
354.261
330.475
330.475
316.465
327.736
325.072
332.197
327.987
324.393
332.028
324.797
333.371
329.205
324.597
344.889
333.158
329.264
322.395
346.356
346.356
346.356
324.083
324.083
316.521
323.591
323.418
332.144
345.723
321.776
332.077
323.708
344.889
345.723
323.871
322.325
323.871
316.817
314.91
331.037
317.328
323.142
323.037
323.283
317.161
316.394
358.211
353.255
358.211
358.211
353.255
353.255
357.495
356.869
330.734
355.466
316.634
357.495
355.466
355.466
331.414
321.5
328.039
331.956
322.051
361.49
328.066
328.833
328.673
324.9
345.037
344.581
329.157
328.758
325.047
344.642
348.652
323.36
345.997
316.613
345.037
345.997
345.997
332.574
321.75
345.667
323.515
323.693
323.389
346.042
321.731
345.776
323.732
344.642
323.732
346.042
344.642
346.042
314.751
323.27
327.061
327.221
330.998
354.364
330.998
354.364
354.364
316.445
356.869
355.434
330.644
355.434
316.478
355.434
328.033
327.78
321.425
359.608
338.265
359.608
359.608
338.265
321.963
324.321
327.8
331.908
360.297
361.49
337.783
322.581
360.297
337.783
321.857
344.581
349.102
340.049
349.102
321.134
349.102
333.398
345.591
324.904
329.403
348.413
345.25
348.652
339.648
348.652
348.413
339.648
348.413
319.802
327.744
345.667
323.698
316.567
345.591
323.698
322.599
345.776
345.25
345.776
323.75
345.25
323.75
)
;
        refGradient     uniform 0;
        valueFraction   nonuniform List<scalar> 
360
(
0.000140503
0.000134793
8.62965e-05
0.000308282
0.000316171
0.000181299
0.000318136
0.000273079
0.000425053
0.000135338
0.000131952
0.000177017
0.000269779
7.71365e-05
0.000137985
0.000268229
0.000307385
0.000287209
0.000403019
7.05853e-05
0.000264617
0.000130089
0.000119897
0.000318153
9.23733e-05
0.000327024
0.000184341
0.000322801
0.000422446
0.00028259
0.000322856
0.000325636
8.74415e-05
8.64646e-05
0.000181451
0.000178565
0.000302154
0.000409634
0.000281289
0.000422942
0.00041778
8.92091e-05
0.000176946
0.000129138
0.000128984
0.000182146
0.000272506
7.27044e-05
0.000130091
0.000275851
0.000179685
0.000180852
0.000269578
0.000266958
7.54242e-05
0.000137979
0.000281373
7.22544e-05
0.000178998
0.000266922
7.07248e-05
0.000314223
0.000277384
0.000434132
7.29123e-05
0.000283615
0.000132295
0.000127956
0.000321484
0.000419386
0.000282112
0.000404421
0.000410083
7.83231e-05
0.000273434
0.000138714
7.22116e-05
0.000129489
0.000409232
0.000425117
0.000127003
0.000124607
0.000122391
7.27393e-05
8.77131e-05
0.000177827
0.000178824
0.000270808
8.17472e-05
6.90247e-05
8.68076e-05
0.000270366
0.000178485
8.86746e-05
0.000269919
0.000180523
0.000179455
0.000179733
8.76463e-05
7.02526e-05
7.1238e-05
7.02901e-05
0.000180701
0.000177605
0.000270162
7.95401e-05
6.90894e-05
0.000269967
8.57651e-05
0.000177886
0.000177919
0.000181549
8.8776e-05
7.10883e-05
6.93278e-05
7.06672e-05
0.000123006
0.000123154
0.000127938
0.000138731
0.000130387
0.00026941
0.000424402
0.000283841
0.000428305
0.000274547
0.000422092
0.000314274
0.000274769
0.000412904
0.000309509
0.000126246
0.000119389
0.000122285
6.75065e-05
0.000279967
0.000421519
0.00013042
0.000131015
0.000425982
0.000283231
0.000136717
0.000144093
0.000420739
0.000289034
0.00033305
7.42948e-05
6.91398e-05
0.000291822
0.000404395
0.000320543
0.000300468
0.000418395
0.00032051
0.000330917
0.000304816
0.000142584
0.000424998
0.000274522
7.65381e-05
0.00041307
0.000309113
0.000117967
0.000124283
0.000122952
0.000129708
0.000135587
0.000422878
0.000278444
0.000326835
7.83657e-05
0.000406791
0.000139489
0.000427751
0.000273834
7.65464e-05
0.000324685
0.000119014
0.000120118
7.01789e-05
0.000183947
0.000183874
0.000271885
9.06662e-05
0.000272295
0.000179168
6.94583e-05
6.74465e-05
0.000425489
0.000270354
0.000420495
0.000280351
0.000133728
0.000125061
0.000422456
0.000264033
0.000305196
0.000123618
0.000143435
7.21613e-05
0.000180714
0.00018055
0.000269755
0.000176628
0.000177538
0.000268693
9.20972e-05
0.000269615
0.000182812
8.95619e-05
0.000303472
0.000269317
0.000181717
7.24202e-05
0.000413244
0.0002679
0.000313446
0.000130585
0.000121354
7.00975e-05
0.000179315
0.00018233
0.000270336
0.000307361
8.59637e-05
0.000267771
0.000174884
0.000265999
0.000281602
0.000127828
7.17992e-05
0.000141847
7.26876e-05
6.84192e-05
0.000273346
9.12221e-05
0.000183767
0.000181643
0.000179478
9.00753e-05
6.88055e-05
0.000279482
0.000261882
0.000439636
0.000327245
0.000410157
0.0002947
0.000315864
0.0003234
0.000143753
0.000277439
7.47493e-05
0.000422188
0.000410515
0.000311907
0.000272048
8.66851e-05
0.000177017
0.00026892
8.74614e-05
0.000320434
0.000177783
0.000179056
0.000177406
8.69332e-05
0.000318051
0.000298042
0.000180999
0.000176318
8.8607e-05
0.000298629
0.00032871
0.000130365
0.000295082
7.00818e-05
0.000420398
0.000407579
0.000307973
0.000266932
8.76904e-05
0.000308457
0.000177614
0.000177888
0.0001789
0.000310136
8.85121e-05
0.000316868
0.000133331
0.000273197
0.000134444
0.000278398
0.000424254
0.000416499
7.00463e-05
0.000140365
0.000138707
0.000135668
0.000123551
0.000413349
0.000134942
0.000274801
0.000323591
6.90256e-05
0.000417383
0.000416879
0.000136474
0.000296414
7.2336e-05
0.000317777
0.000120992
0.000118861
7.22766e-05
0.000408808
0.000122179
0.000268104
0.000315755
0.000130988
7.14068e-05
0.000177677
0.000177616
0.000268017
0.000306674
0.000265999
0.000128607
6.92271e-05
0.000270454
0.000142838
7.99522e-05
0.000391935
0.000420858
0.000124383
0.000267341
7.41205e-05
0.000336222
0.000270071
0.000323582
8.85204e-05
0.000178443
0.000311974
0.000302453
0.00028454
0.000127183
0.000416809
0.000415912
0.000150975
0.000278012
0.000122322
0.000124198
0.000279891
0.000138552
7.49119e-05
0.00028307
0.000133413
6.91796e-05
0.000411992
0.000416936
0.000274333
0.000133135
0.000269469
0.000137524
)
;
        value           nonuniform List<scalar> 
360
(
453.633
453.634
453.638
453.619
453.62
453.654
453.62
453.624
453.614
453.628
453.628
453.648
453.655
453.636
453.631
453.618
453.601
453.603
453.586
453.627
453.607
453.619
453.604
453.619
453.637
453.618
453.654
453.62
453.611
453.623
453.619
453.616
453.636
453.637
453.647
453.65
453.602
453.588
453.604
453.586
453.587
453.617
453.637
453.633
453.634
453.653
453.66
453.639
453.633
453.623
453.654
453.654
453.655
453.656
453.624
453.615
453.603
453.626
453.636
453.645
453.622
453.62
453.623
453.611
453.64
453.623
453.634
453.62
453.622
453.616
453.624
453.616
453.615
453.639
453.619
453.633
453.635
453.606
453.588
453.587
453.606
453.605
453.607
453.622
453.64
453.653
453.65
453.655
453.632
453.626
453.638
453.658
453.654
453.636
453.658
453.653
453.649
453.645
453.626
453.641
453.641
453.64
453.654
453.654
453.657
453.639
453.634
453.654
453.623
453.644
453.65
453.644
453.626
453.625
453.641
453.641
453.622
453.622
453.622
453.633
453.635
453.623
453.61
453.624
453.611
453.623
453.61
453.618
453.624
453.612
453.621
453.622
453.622
453.622
453.641
453.623
453.614
453.634
453.634
453.614
453.624
453.633
453.633
453.614
453.624
453.618
453.64
453.634
453.612
453.593
453.601
453.611
453.591
453.602
453.602
453.604
453.629
453.591
453.616
453.635
453.593
453.605
453.605
453.604
453.603
453.617
453.613
453.585
453.601
453.594
453.62
453.587
453.612
453.586
453.601
453.62
453.593
453.604
453.603
453.639
453.654
453.653
453.66
453.638
453.66
453.655
453.641
453.64
453.61
453.623
453.61
453.622
453.633
453.634
453.61
453.624
453.618
453.635
453.633
453.641
453.653
453.653
453.658
453.654
453.654
453.658
453.623
453.655
453.643
453.626
453.604
453.655
453.645
453.625
453.588
453.602
453.595
453.617
453.615
453.621
453.636
453.635
453.644
453.595
453.617
453.645
453.637
453.605
453.6
453.617
453.625
453.612
453.62
453.639
453.66
453.637
453.653
453.653
453.654
453.635
453.641
453.622
453.624
453.612
453.618
453.613
453.622
453.617
453.616
453.632
453.622
453.639
453.609
453.61
453.619
453.658
453.64
453.655
453.658
453.638
453.62
453.654
453.645
453.652
453.627
453.604
453.606
453.645
453.65
453.626
453.605
453.603
453.614
453.599
453.621
453.587
453.589
453.596
453.645
453.618
453.596
453.637
453.638
453.638
453.599
453.62
453.598
453.618
453.606
453.614
453.602
453.587
453.589
453.639
453.622
453.623
453.624
453.634
453.612
453.633
453.622
453.62
453.64
453.61
453.61
453.632
453.62
453.639
453.617
453.622
453.622
453.641
453.617
453.637
453.626
453.622
453.636
453.642
453.654
453.655
453.658
453.619
453.625
453.635
453.641
453.623
453.632
453.638
453.596
453.595
453.631
453.617
453.635
453.601
453.655
453.601
453.625
453.645
453.604
453.605
453.614
453.63
453.593
453.593
453.626
453.614
453.606
453.606
453.602
453.614
453.621
453.605
453.618
453.626
453.589
453.588
453.603
453.615
453.606
453.617
)
;
        Tnbr            T;
        thicknessLayers 0();
        kappaLayers     0();
        kappaMethod     solidThermo;
        kappa           none;
        alphaAni        none;
    }
}


// ************************************************************************* //
