/*--------------------------------*- C++ -*----------------------------------*\
| =========                 |                                                 |
| \\      /  F ield         | OpenFOAM: The Open Source CFD Toolbox           |
|  \\    /   O peration     | Version:  v1912                                 |
|   \\  /    A nd           | Website:  www.openfoam.com                      |
|    \\/     M anipulation  |                                                 |
\*---------------------------------------------------------------------------*/
FoamFile
{
    version     2.0;
    format      ascii;
    class       volScalarField;
    location    "8/sphere";
    object      T;
}
// * * * * * * * * * * * * * * * * * * * * * * * * * * * * * * * * * * * * * //

dimensions      [0 0 0 1 0 0 0];


internalField   nonuniform List<scalar> 
1992
(
487.509
487.559
487.556
487.651
487.527
487.526
487.557
487.845
487.906
487.732
487.554
487.904
487.963
487.796
487.706
487.794
487.658
487.554
487.647
487.527
487.554
487.903
487.963
487.796
487.64
487.961
488.02
487.855
487.555
487.521
487.791
487.851
487.747
487.549
487.525
487.727
487.794
487.644
487.522
487.792
487.852
487.747
487.638
487.746
487.589
487.551
487.551
487.551
487.547
487.551
487.513
487.651
487.562
487.795
487.731
487.853
487.796
487.731
487.852
487.795
487.559
487.512
487.65
487.561
487.795
487.794
487.731
487.65
487.56
487.56
487.513
487.547
487.547
487.545
487.543
487.533
487.543
487.545
487.533
487.543
487.545
487.533
487.547
487.577
487.525
487.524
487.64
487.745
487.525
487.525
487.746
487.644
487.589
487.523
487.639
487.522
487.744
487.557
487.556
487.645
487.727
487.793
487.792
487.85
487.548
487.594
487.582
487.684
487.655
487.631
487.696
487.527
487.644
487.747
487.527
487.524
487.522
487.744
487.64
487.645
487.51
487.558
487.792
487.85
487.728
487.793
487.561
487.56
487.512
487.852
487.796
487.794
487.731
487.747
487.527
487.644
487.576
487.525
487.639
487.745
487.525
487.746
487.644
487.525
487.588
487.547
487.549
487.639
487.523
487.522
487.743
487.556
487.707
487.792
487.555
487.643
487.791
487.848
487.513
487.794
487.731
487.647
487.56
487.851
487.795
487.659
487.526
487.747
487.526
487.544
487.706
487.554
487.791
487.554
487.791
487.64
487.847
487.513
487.796
487.562
487.796
487.561
487.855
487.656
487.555
487.544
487.791
487.707
487.64
487.847
487.554
487.791
487.561
487.732
487.514
487.855
487.656
487.797
487.561
487.555
487.639
487.521
487.744
487.523
487.792
487.556
487.791
487.848
487.554
487.643
487.731
487.557
487.513
487.851
487.795
487.647
487.561
487.747
487.527
487.526
487.547
487.549
487.547
487.549
487.522
487.521
487.743
487.638
487.644
487.791
487.848
487.556
487.706
487.792
487.56
487.851
487.795
487.557
487.511
487.793
487.731
487.747
487.527
487.658
487.544
487.79
487.64
487.847
487.706
487.554
487.791
487.562
487.855
487.656
487.731
487.513
487.796
487.561
487.555
487.543
487.847
487.554
487.79
487.554
487.791
487.706
487.656
487.797
487.562
487.796
487.562
487.732
487.513
487.744
487.523
487.638
487.848
487.554
487.643
487.706
487.792
487.556
487.795
487.646
487.56
487.794
487.731
487.558
487.512
487.527
487.526
487.659
487.547
487.575
487.524
487.638
487.745
487.524
487.745
487.644
487.526
487.588
487.639
487.522
487.744
487.524
487.792
487.792
487.849
487.509
487.558
487.556
487.645
487.747
487.526
487.527
487.744
487.639
487.523
487.849
487.727
487.793
487.556
487.645
487.511
487.557
487.527
487.644
487.526
487.575
487.745
487.524
487.525
487.644
487.525
487.526
487.521
487.511
487.509
487.52
487.512
487.524
487.512
487.523
487.512
487.524
487.511
487.522
487.512
487.51
487.51
487.534
487.533
487.514
487.545
487.542
487.533
487.524
487.511
487.521
487.511
487.531
487.531
487.561
487.657
487.565
487.604
487.604
487.548
487.598
487.583
487.685
487.658
487.631
487.7
487.547
487.594
487.581
487.683
487.655
487.631
487.696
487.531
487.531
487.561
487.656
487.564
487.603
487.603
487.548
487.597
487.583
487.684
487.657
487.631
487.699
487.596
487.548
487.582
487.684
487.657
487.698
487.632
487.596
487.548
487.582
487.683
487.655
487.696
487.631
487.531
487.531
487.56
487.656
487.564
487.604
487.604
487.513
487.509
487.535
487.532
487.514
487.535
487.533
487.513
487.513
487.527
487.527
487.555
487.65
487.561
487.6
487.6
487.523
487.552
487.515
487.583
487.676
487.543
487.652
487.571
487.691
487.627
487.516
487.595
487.531
487.537
487.579
487.513
487.521
487.549
487.515
487.53
487.593
487.578
487.535
487.63
487.516
487.55
487.517
487.588
487.545
487.588
487.679
487.546
487.653
487.585
487.629
487.574
487.692
487.515
487.522
487.552
487.63
487.55
487.516
487.515
487.587
487.588
487.545
487.671
487.65
487.54
487.582
487.623
487.688
487.567
487.524
487.512
487.511
487.516
487.546
487.564
487.584
487.584
487.702
487.534
487.628
487.627
487.512
487.671
487.583
487.65
487.54
487.688
487.568
487.623
487.708
487.635
487.738
487.619
487.725
487.605
487.721
487.531
487.594
487.514
487.536
487.578
487.671
487.649
487.582
487.54
487.688
487.622
487.567
487.525
487.514
487.699
487.731
487.613
487.613
487.715
487.715
487.59
487.547
487.547
487.535
487.528
487.589
487.51
487.533
487.573
487.51
487.543
487.535
487.525
487.512
487.516
487.546
487.531
487.515
487.591
487.577
487.535
487.512
487.516
487.546
487.699
487.576
487.627
487.563
487.578
487.627
487.524
487.528
487.589
487.512
487.575
487.533
487.56
487.697
487.571
487.573
487.622
487.624
487.52
487.527
487.538
487.539
487.512
487.51
487.532
487.534
487.513
487.511
487.523
487.523
487.523
487.514
487.52
487.55
487.514
487.591
487.529
487.535
487.576
487.512
487.518
487.546
487.529
487.512
487.591
487.535
487.574
487.56
487.573
487.571
487.698
487.521
487.624
487.622
487.514
487.592
487.578
487.53
487.535
487.523
487.552
487.515
487.531
487.515
487.592
487.535
487.578
487.515
487.523
487.552
487.576
487.699
487.626
487.563
487.578
487.524
487.626
487.527
487.538
487.538
487.512
487.513
487.521
487.55
487.512
487.529
487.591
487.576
487.534
487.513
487.516
487.546
487.56
487.572
487.571
487.697
487.52
487.624
487.621
487.528
487.511
487.59
487.534
487.574
487.585
487.544
487.653
487.571
487.693
487.677
487.628
487.544
487.583
487.57
487.677
487.652
487.628
487.691
487.515
487.594
487.579
487.531
487.537
487.576
487.699
487.626
487.563
487.577
487.523
487.627
487.516
487.523
487.552
487.531
487.516
487.594
487.536
487.579
487.528
487.512
487.591
487.534
487.576
487.513
487.521
487.549
487.528
487.59
487.511
487.534
487.574
487.513
487.515
487.545
487.56
487.573
487.698
487.571
487.624
487.52
487.622
487.616
487.619
487.737
487.704
487.594
487.719
487.721
487.65
487.528
487.527
487.561
487.555
487.599
487.6
487.587
487.677
487.545
487.654
487.572
487.693
487.627
487.598
487.549
487.658
487.582
487.699
487.685
487.633
487.595
487.548
487.582
487.684
487.655
487.696
487.631
487.531
487.531
487.56
487.656
487.565
487.604
487.604
487.516
487.523
487.552
487.531
487.594
487.516
487.537
487.579
487.563
487.576
487.7
487.578
487.627
487.523
487.627
487.516
487.524
487.552
487.524
487.524
487.523
487.529
487.513
487.592
487.576
487.535
487.56
487.573
487.697
487.571
487.623
487.519
487.621
487.513
487.517
487.546
487.529
487.591
487.513
487.535
487.575
487.516
487.524
487.552
487.563
487.576
487.699
487.578
487.627
487.523
487.626
487.531
487.592
487.514
487.535
487.578
487.515
487.523
487.551
487.527
487.538
487.539
487.512
487.511
487.509
487.533
487.532
487.512
487.513
487.536
487.543
487.525
487.522
487.511
487.511
487.516
487.546
487.512
487.516
487.546
487.559
487.57
487.571
487.696
487.52
487.621
487.621
487.528
487.512
487.59
487.574
487.533
487.528
487.511
487.589
487.574
487.533
487.672
487.542
487.651
487.584
487.624
487.568
487.69
487.672
487.541
487.582
487.65
487.568
487.625
487.689
487.701
487.616
487.615
487.735
487.591
487.718
487.717
487.653
487.53
487.564
487.531
487.602
487.558
487.603
487.708
487.619
487.634
487.737
487.604
487.721
487.725
487.682
487.547
487.595
487.656
487.578
487.631
487.697
487.565
487.583
487.584
487.702
487.534
487.627
487.629
487.516
487.523
487.553
487.531
487.515
487.593
487.578
487.536
487.531
487.515
487.593
487.578
487.536
487.507
487.509
487.531
487.531
487.511
487.671
487.54
487.65
487.581
487.623
487.567
487.687
487.671
487.54
487.649
487.582
487.623
487.567
487.688
487.699
487.613
487.614
487.731
487.591
487.715
487.716
487.657
487.565
487.532
487.532
487.605
487.605
487.561
487.686
487.549
487.658
487.599
487.633
487.584
487.7
487.685
487.549
487.657
487.598
487.632
487.582
487.7
487.715
487.641
487.641
487.746
487.616
487.731
487.731
487.525
487.512
487.525
487.512
487.547
487.547
487.535
487.508
487.531
487.531
487.512
487.506
487.631
487.516
487.549
487.516
487.587
487.544
487.588
487.7
487.614
487.731
487.613
487.715
487.591
487.715
487.671
487.54
487.582
487.65
487.566
487.624
487.688
487.685
487.657
487.548
487.598
487.632
487.7
487.583
487.657
487.532
487.565
487.532
487.604
487.562
487.604
487.715
487.641
487.746
487.641
487.731
487.616
487.731
487.685
487.548
487.598
487.658
487.583
487.632
487.7
487.547
487.547
487.535
487.525
487.513
487.559
487.571
487.572
487.697
487.52
487.621
487.622
487.512
487.517
487.547
487.528
487.511
487.59
487.575
487.534
487.528
487.512
487.59
487.574
487.534
487.631
487.55
487.516
487.516
487.588
487.588
487.545
487.672
487.652
487.542
487.585
487.625
487.69
487.569
487.672
487.541
487.65
487.582
487.624
487.568
487.689
487.701
487.617
487.735
487.615
487.718
487.593
487.717
487.679
487.653
487.545
487.586
487.628
487.692
487.574
487.653
487.564
487.53
487.531
487.602
487.603
487.558
487.708
487.62
487.737
487.635
487.721
487.604
487.725
487.682
487.547
487.656
487.596
487.63
487.579
487.697
487.516
487.523
487.553
487.515
487.523
487.552
487.531
487.516
487.593
487.578
487.536
487.531
487.514
487.594
487.578
487.536
487.511
487.51
487.535
487.533
487.514
487.536
487.543
487.525
487.523
487.511
487.51
487.532
487.534
487.515
487.51
487.543
487.536
487.525
487.522
487.51
487.511
487.528
487.589
487.511
487.533
487.574
487.527
487.589
487.508
487.533
487.573
487.512
487.517
487.546
487.511
487.517
487.546
487.559
487.696
487.57
487.571
487.621
487.621
487.519
487.701
487.616
487.735
487.617
487.717
487.593
487.718
487.631
487.516
487.516
487.55
487.545
487.587
487.588
487.672
487.584
487.542
487.652
487.568
487.69
487.624
487.682
487.595
487.656
487.546
487.697
487.578
487.63
487.679
487.586
487.546
487.653
487.573
487.692
487.629
487.653
487.529
487.53
487.564
487.557
487.603
487.602
487.531
487.594
487.516
487.536
487.579
487.516
487.522
487.552
487.564
487.701
487.583
487.583
487.627
487.627
487.534
487.516
487.522
487.552
487.508
487.531
487.531
487.511
487.508
487.7
487.614
487.731
487.613
487.716
487.591
487.715
487.63
487.514
487.55
487.516
487.587
487.545
487.588
487.671
487.581
487.541
487.65
487.567
487.688
487.624
487.685
487.657
487.599
487.549
487.7
487.632
487.584
487.715
487.641
487.746
487.641
487.731
487.617
487.731
487.657
487.532
487.564
487.531
487.605
487.562
487.604
487.685
487.598
487.548
487.657
487.583
487.7
487.632
487.548
487.547
487.535
487.525
487.513
487.531
487.53
487.512
487.506
487.508
487.671
487.581
487.65
487.541
487.688
487.567
487.623
487.671
487.581
487.65
487.541
487.688
487.567
487.625
487.63
487.515
487.517
487.55
487.544
487.587
487.588
487.715
487.746
487.641
487.641
487.731
487.731
487.617
487.686
487.599
487.658
487.549
487.7
487.583
487.632
487.685
487.599
487.658
487.549
487.7
487.584
487.632
487.657
487.532
487.532
487.566
487.562
487.605
487.604
487.525
487.514
487.525
487.513
487.528
487.59
487.512
487.534
487.575
487.511
487.516
487.545
487.559
487.696
487.57
487.571
487.621
487.621
487.519
487.512
487.517
487.546
487.672
487.65
487.582
487.541
487.689
487.625
487.568
487.701
487.734
487.615
487.616
487.717
487.718
487.592
487.632
487.517
487.55
487.516
487.589
487.546
487.588
487.672
487.584
487.651
487.541
487.69
487.568
487.624
487.708
487.737
487.634
487.618
487.725
487.72
487.603
487.682
487.656
487.596
487.547
487.697
487.631
487.579
487.679
487.585
487.653
487.546
487.692
487.573
487.628
487.653
487.531
487.564
487.53
487.603
487.558
487.602
487.531
487.594
487.515
487.536
487.578
487.531
487.593
487.515
487.536
487.578
487.565
487.702
487.584
487.583
487.629
487.627
487.534
487.516
487.523
487.553
487.515
487.522
487.552
487.532
487.534
487.514
487.511
487.522
487.51
487.511
487.521
487.522
487.524
487.529
487.512
487.591
487.575
487.535
487.559
487.57
487.697
487.573
487.621
487.52
487.624
487.514
487.521
487.55
487.592
487.511
487.529
487.535
487.576
487.516
487.523
487.552
487.699
487.576
487.625
487.563
487.577
487.627
487.523
487.515
487.592
487.578
487.53
487.535
487.522
487.551
487.515
487.527
487.538
487.539
487.512
487.56
487.571
487.697
487.573
487.622
487.521
487.623
487.528
487.511
487.589
487.574
487.533
487.513
487.52
487.549
487.513
487.528
487.591
487.576
487.534
487.528
487.527
487.554
487.649
487.561
487.599
487.599
487.586
487.653
487.544
487.693
487.571
487.676
487.627
487.544
487.584
487.57
487.676
487.651
487.627
487.69
487.515
487.522
487.552
487.53
487.515
487.593
487.579
487.536
487.523
487.552
487.515
487.515
487.593
487.578
487.531
487.536
487.512
487.517
487.546
487.559
487.697
487.571
487.572
487.621
487.623
487.52
487.513
487.528
487.59
487.534
487.575
487.513
487.52
487.549
487.583
487.544
487.571
487.675
487.651
487.69
487.626
487.527
487.528
487.555
487.649
487.561
487.6
487.6
487.586
487.653
487.544
487.692
487.571
487.676
487.627
487.531
487.594
487.516
487.579
487.536
487.699
487.575
487.626
487.563
487.578
487.627
487.524
487.516
487.524
487.552
487.515
487.593
487.578
487.531
487.536
487.523
487.552
487.515
487.522
487.521
487.524
487.513
487.517
487.546
487.529
487.591
487.511
487.574
487.535
487.514
487.521
487.55
487.591
487.513
487.53
487.576
487.535
487.699
487.576
487.626
487.563
487.578
487.626
487.523
487.531
487.592
487.515
487.577
487.536
487.516
487.523
487.552
487.515
487.592
487.578
487.531
487.536
487.523
487.552
487.516
487.639
487.635
487.741
487.614
487.728
487.713
487.726
487.905
487.904
487.962
487.904
487.962
487.961
488.019
487.848
487.963
487.907
487.963
487.907
488.02
487.964
487.962
487.845
487.905
487.961
488.019
487.904
487.962
487.907
487.906
487.848
488.02
487.964
487.963
487.907
487.725
487.752
487.628
487.752
487.682
487.792
487.682
487.961
487.961
488.019
487.845
487.904
487.904
487.962
487.907
488.02
487.964
487.906
487.847
487.963
487.907
488.019
487.904
487.962
487.904
487.962
487.845
487.905
487.964
487.963
487.907
487.963
487.907
487.906
487.848
487.593
487.68
487.68
487.733
487.601
487.667
487.666
487.732
487.68
487.665
487.592
487.68
487.666
487.602
487.731
487.679
487.665
487.592
487.679
487.665
487.601
487.635
487.639
487.615
487.713
487.741
487.726
487.729
487.635
487.639
487.614
487.713
487.741
487.725
487.728
487.638
487.635
487.614
487.713
487.741
487.728
487.725
487.678
487.59
487.678
487.729
487.6
487.664
487.662
487.679
487.731
487.665
487.592
487.679
487.6
487.665
487.59
487.678
487.729
487.677
487.663
487.599
487.662
487.619
487.617
487.737
487.595
487.721
487.704
487.719
487.68
487.732
487.666
487.592
487.68
487.602
487.666
487.589
487.678
487.677
487.729
487.599
487.663
487.662
487.681
487.593
487.68
487.732
487.602
487.666
487.666
487.59
487.679
487.729
487.678
487.663
487.6
487.663
487.592
487.679
487.731
487.679
487.666
487.601
487.665
487.589
487.728
487.677
487.676
487.662
487.662
487.598
487.724
487.629
487.752
487.752
487.682
487.682
487.792
487.592
487.733
487.68
487.68
487.666
487.667
487.601
487.724
487.628
487.752
487.752
487.682
487.682
487.792
487.725
487.753
487.628
487.752
487.683
487.792
487.683
487.59
487.729
487.677
487.677
487.662
487.662
487.599
487.592
487.733
487.68
487.68
487.666
487.666
487.601
487.588
487.676
487.676
487.728
487.598
487.661
487.661
487.724
487.752
487.628
487.752
487.682
487.792
487.682
487.593
487.68
487.68
487.732
487.602
487.666
487.666
487.724
487.752
487.628
487.752
487.682
487.792
487.682
487.724
487.752
487.752
487.628
487.792
487.682
487.682
487.589
487.677
487.677
487.728
487.599
487.661
487.662
487.725
487.752
487.752
487.628
487.792
487.682
487.683
487.678
487.59
487.678
487.729
487.662
487.6
487.663
487.731
487.678
487.664
487.591
487.679
487.665
487.6
487.589
487.729
487.677
487.677
487.662
487.663
487.599
487.619
487.737
487.617
487.721
487.595
487.703
487.719
487.732
487.68
487.666
487.593
487.68
487.666
487.602
487.589
487.677
487.729
487.677
487.662
487.599
487.663
487.619
487.737
487.616
487.721
487.593
487.703
487.718
487.678
487.59
487.729
487.678
487.663
487.664
487.6
)
;

boundaryField
{
    sphere_to_oil
    {
        type            compressible::turbulentTemperatureCoupledBaffleMixed;
        refValue        nonuniform List<scalar> 
1536
(
315.628
316.147
316.152
317.003
317.041
316.139
316.548
316.325
316.452
316.96
317.275
316.907
316.44
316.856
317.431
316.561
316.128
316.131
316.569
316.465
316.269
316.437
316.407
316.568
316.509
316.545
316.51
316.626
316.182
315.251
316.226
316.886
316.814
315.398
316.47
316.04
316.811
316.646
317.085
315.408
316.153
316.161
316.556
316.525
316.62
316.592
316.657
316.738
316.632
316.767
316.539
316.651
316.811
316.574
316.545
316.456
316.391
316.356
316.388
316.218
316.311
316.579
316.423
316.277
316.078
316.407
317.059
316.973
317.412
316.193
316.592
316.305
316.457
316.43
316.408
316.191
316.612
316.191
315.363
316.017
317.202
316.958
317.303
315.505
316.229
315.883
316.405
316.477
316.219
316.284
316.303
316.461
316.445
316.456
316.596
316.547
316.249
316.506
316.333
316.487
316.988
317.208
315.887
316.106
315.817
316.692
316.438
316.294
316.318
316.187
316.573
317.517
317.093
315.725
315.898
316.09
316.985
316.866
316.538
316.533
317.488
316.678
316.204
315.774
316.106
316.725
316.56
316.158
316.145
316.254
316.328
317.017
317.035
317.005
316.029
316.177
315.718
317.091
316.505
316.306
316.314
316.415
316.597
316.602
316.607
316.556
316.372
316.367
316.052
316.288
317.236
316.689
317.194
315.639
316.26
316.098
316.34
316.251
316.583
317.103
316.849
316.106
315.595
316.353
316.864
316.554
316.513
317.46
316.97
316.964
316.946
315.542
316.126
316.407
316.453
316.374
316.892
317.076
317.005
317.153
315.912
315.675
316.089
316.346
316.423
316.277
316.388
316.619
316.175
316.289
316.048
316.374
316.41
316.702
316.293
316.249
316.29
316.491
315.697
316.241
315.951
317.252
317.047
316.319
316.189
316.551
316.515
316.153
316.396
317.398
315.517
316.055
316.184
317.198
316.277
316.716
316.517
316.119
316.431
316.276
316.226
316.473
316.435
316.516
316.328
316.472
316.549
316.383
315.851
316.054
315.889
316.589
316.57
315.614
315.997
316.288
316.136
316.243
316.064
316.532
316.421
315.754
316.013
316.251
316.119
316.411
316.376
315.898
316.217
316.143
316.606
315.932
315.86
316.381
316.736
316.188
315.798
316.011
316.283
315.567
315.567
316.016
315.704
316.169
315.711
316.894
316.783
316.743
317.689
315.912
316.611
316.624
316.674
316.708
316.202
315.515
316.628
315.971
316.89
316.075
315.912
316.5
315.773
316.612
316.636
316.48
316.632
317.549
317.305
317.108
316.501
316.725
316.617
316.237
317.586
317.49
317.187
317.178
316.568
316.336
316.611
316.304
317.516
316.39
315.724
316.807
315.775
317.119
315.72
316.715
316.795
315.681
316.906
315.982
316.794
316.748
315.732
316.066
316.336
316.563
315.693
316.009
316.364
316.673
316.335
316.836
316.692
316.669
316.043
316.825
317.384
316.152
316.224
315.987
316.827
317.601
315.968
315.904
316.602
316.609
316.409
316.789
316.505
316.003
315.995
316.276
316.531
316.298
316.584
317.354
315.94
315.995
316.4
316.752
316.548
316.511
316.566
316.135
316.553
316.228
317.378
316.213
315.77
316.911
316.815
316.808
317.568
316.129
316.194
316.395
316.52
316.426
316.373
317.399
317.14
316.4
315.903
316.189
316.445
316.564
316.087
316.886
316.596
317.504
316.069
316.484
315.955
315.744
316.203
316.02
315.94
316.193
316.322
316.282
316.084
317.507
316.949
316.876
315.722
316.806
315.928
316.691
317.488
317.216
316.186
316.539
315.756
315.463
316.86
316.334
317.038
317.563
316.438
316.319
316.028
316.221
315.993
316.596
316.581
316.758
317.167
316.594
315.952
315.649
316.513
316.808
316.561
315.997
315.918
315.971
316.553
316.92
316.411
316.41
315.715
315.959
316.312
316.403
316.212
315.988
317.462
316.806
316.575
315.973
316.21
316.102
316.489
316.439
316.165
315.761
316.291
316.258
316.307
315.905
317.84
316.592
316.642
316.584
316.708
316.621
315.939
315.752
316.973
316.52
316.508
316.529
316.543
316.716
316.329
316.405
316.777
317.143
316.672
316.914
316.706
315.79
315.658
315.9
315.869
315.963
315.47
316.811
316.794
316.442
316.031
316.441
316.464
315.596
315.577
316.514
316.651
316.41
316.756
316.674
316.155
316.811
316.599
316.238
316.199
316.058
316.239
316.429
316.326
316.601
317.239
315.983
316.329
316.157
316.502
316.68
316.522
316.45
315.954
315.978
316.175
316.426
316.322
316.163
317.488
316.697
316.793
315.84
315.743
315.808
316.548
316.65
316.61
316.791
316.505
315.832
315.801
316.238
316.344
316.952
316.498
316.724
316.422
316.665
316.483
317.188
316.174
316.284
316.228
316.52
316.789
315.955
316.027
315.937
316.35
316.633
315.998
315.891
316.353
316.425
316.367
316.456
317.541
316.381
316.513
316.836
317.09
316.258
316.119
316.969
316.834
316.922
316.833
315.678
315.628
315.614
315.96
315.844
316.341
316.569
316.371
316.368
317.523
315.712
316.741
315.959
316.529
316.905
316.48
316.882
315.659
316.054
316.425
316.232
316.476
316.388
317.356
316.58
316.751
316.59
316.528
316.921
315.846
315.865
316.122
316.403
316.974
316.669
317.715
316.685
317.728
316.081
315.835
316.054
316.745
316.353
316.879
316.457
316.629
316.554
316.613
316.172
315.947
316.519
316.51
316.568
316.571
317.174
316.56
316.847
316.54
315.763
315.966
316.362
316.58
316.402
316.896
315.861
315.975
316.038
316.42
316.955
316.081
315.765
316.415
316.545
316.148
317.004
317.312
316.628
316.892
315.829
316.254
315.504
316.316
316.668
316.078
315.705
316.336
316.205
316.623
316.034
317.361
316.698
316.615
316.755
316.585
316.541
316.534
316.477
316.766
316.93
317.71
317.215
317.375
316.531
316.641
316.562
316.217
317.492
315.956
316.193
316.326
316.357
316.374
316.801
317.523
316.588
316.785
315.98
315.999
315.999
316.56
316.522
316.587
316.382
316.631
316.214
316.191
316.043
316.423
316.351
316.518
317.286
316.945
316.674
316.325
316.266
316.762
316.992
316.655
316.68
316.358
317.018
316.487
316.366
315.772
315.779
316.662
316.513
316.678
315.81
316.618
316.035
316.011
316.26
316.278
316.036
316.514
317.322
316.636
316.853
316.286
316.099
315.89
316.506
316.587
316.156
316.332
316.12
316.504
316.719
316.397
317.428
316.884
316.397
316.236
316.453
317.057
316.246
315.949
315.912
316.42
316.658
316.065
316.116
316.248
316.537
316.339
316.451
317.355
316.491
316.767
316.375
316.706
316.918
316.689
317.036
315.971
315.616
315.729
315.825
316.038
315.575
316.285
316.918
315.726
316.787
316.707
316.084
315.973
316.056
316
316.167
316.869
316.776
316.529
316.64
316.393
316.328
316.594
315.636
315.863
315.879
315.739
315.795
316.359
316.247
316.033
316.281
317.865
315.813
315.925
316.413
316.378
316.167
316.172
317.493
316.624
316.707
316.696
316.577
316.748
315.693
316.511
316.044
316.414
316.61
316.562
316.941
315.824
316.25
315.89
316.49
316.625
316.937
317.493
316.979
317.471
316.985
316.37
316.571
316.573
316.877
317.128
316.676
317.091
316.184
316.08
316.11
316.769
316.035
316.539
317.513
316.834
316.469
316.281
315.897
316.056
316.408
316.462
316.327
316.981
316.208
316.022
315.999
316.5
316.668
316.577
315.862
315.601
315.924
316.315
315.898
316.842
316.779
316.038
316.827
316.009
316.773
317.61
316.711
317.534
316.452
316.71
316.661
316.3
317.342
317.375
317.207
316.69
316.371
315.843
315.777
316.485
316.345
316.554
315.898
315.993
315.801
316.57
316.647
316.748
316.115
315.681
316.903
316.864
316.946
316.671
316.134
316.48
315.918
317.122
315.494
316.828
315.931
316.22
317.337
316.74
316.603
315.88
316.635
316.851
317.411
317.198
316.564
316.626
316.6
316.364
317.348
317.174
316.594
316.605
316.79
316.117
316.474
316.13
315.995
315.662
316.343
316.652
316.608
315.991
316.026
316.242
316.296
316.307
316.359
317.429
317.024
316.545
316.073
315.805
316.113
316.774
316.734
316.603
316.725
316.003
316.13
315.821
316.502
316.626
317.285
316.343
316.135
316.178
316.257
316.052
316.338
316.746
316.672
317.328
316.805
317.296
316.848
317.355
316.657
316.404
316.519
316.623
316.887
317.315
316.193
316.039
316.314
316.651
316.225
316.405
317.416
315.729
316.137
316.28
316.686
316.616
316.313
317.376
316.782
316.568
315.877
316.003
316.164
316.514
316.507
317.233
316.28
315.923
316.091
315.79
316.894
316.272
315.93
316.644
315.787
315.997
316.421
315.879
316.718
316.584
317.01
316.452
316.127
316.766
316.532
317.224
316.388
316.564
316.344
315.774
315.62
316.084
315.955
315.869
316.888
316.717
316.785
317.542
316.015
316.441
316.098
315.513
317.001
316.592
316.88
316.486
316.341
316.205
316.373
315.666
315.935
316.01
315.563
315.868
317.146
316.689
316.952
316.065
315.801
315.697
316.433
316.586
316.378
317.144
315.38
315.884
315.969
316.449
316.867
316.077
315.994
316.281
316.294
316.395
316.384
317.353
315.732
316.377
316.28
316.404
316.398
316.05
317.632
316.853
316.668
316.223
316.112
316.151
316.312
316.533
316.647
315.944
317.294
316.628
316.735
317.594
317.316
316.812
317.291
316.672
316.405
316.434
316.447
316.913
316.641
316.847
316.086
316.409
316.022
316.612
316.595
316.109
316.161
316.252
316.837
316.095
316.293
317.334
316.989
316.922
315.942
315.985
316.301
316.681
316.411
316.258
317.491
316.193
315.591
317.07
316.76
316.84
315.937
316.27
316.255
315.974
316.83
315.597
316.113
316.511
315.879
317.772
316.271
316.99
315.943
316.691
316.812
317.45
317.169
316.615
316.496
316.475
316.335
317.418
317.306
316.592
316.593
316.717
316.264
316.401
316.145
315.882
316.079
316.787
316.704
316.047
316.215
316.646
315.838
315.817
316.945
315.986
315.679
316.69
316.919
317.545
316.823
317.614
315.76
316.116
316.372
315.976
316.025
317.589
317.402
316.727
317.309
317.385
316.61
316.055
316.509
316.681
317.414
316.33
316.386
316.025
316.115
316.108
316.471
316.386
315.955
316.329
315.154
316.361
316.738
315.965
316.155
316.117
316.366
316.716
315.867
315.993
316.172
316.261
316.221
316.436
317.546
316.909
316.501
316.387
316.04
316.517
316.314
316.268
316.316
316.263
317.421
316.667
317.596
316.136
316.966
316.007
317.26
316.571
316.165
316.076
316.765
316.692
317.523
317.14
316.927
317.767
316.586
316.539
316.463
316.413
316.966
316.865
316.482
316.051
315.912
315.965
316.601
316.507
316.958
316.42
315.985
316.038
316.15
316.657
316.373
317.003
316.737
316.108
316.263
316.458
316.692
316.598
316.088
317.258
316.117
315.797
316.18
316.67
316.298
316.556
317.415
316.706
316.848
316.35
316.171
316.603
315.989
316.477
315.599
316.364
316.379
315.685
315.667
315.66
316.28
316.718
315.529
316.454
316.624
316.456
316.205
316.823
316.737
316.573
316.843
316.444
317.011
316.565
316.357
315.827
316.015
316.792
316.501
316.64
316.167
316.944
315.714
316.116
316.318
316.466
316.632
316.444
317.435
316.188
315.903
315.327
316.49
317.147
316.491
316.861
316.126
316.288
316.249
316.314
316.423
316.887
317.268
316.693
316.434
316.657
316.283
316.084
315.962
316.412
316.76
316.418
316.652
316.471
316.234
316.367
317.264
316.17
316.137
316.278
316.478
316.414
316.597
316.831
316.943
317.025
316.816
315.671
315.807
315.861
316.751
316.401
316.637
316.92
316.575
316.428
315.716
315.978
316.76
316.455
315.84
316.024
316.319
316.604
316.452
316.33
317.466
316.24
316.268
315.753
316.505
316.806
316.498
316.638
316.485
316.513
316.364
316.526
316.434
317.035
317.974
316.753
317.826
316.215
315.906
315.96
316.504
316.283
316.349
317.669
316.744
316.512
316.528
316.268
315.862
316.502
316.787
316.611
316.656
316.438
317.381
316.39
315.935
316.301
315.801
316.303
315.831
316.839
316.655
316.537
316.687
315.649
316.003
316.396
316.202
316.421
316.013
318.022
316.69
316.699
316.582
316.016
316.281
315.824
316.426
316.787
316.39
316.657
316.091
315.948
316.354
316.607
316.287
316.061
317.418
316.972
317.873
316.35
316.749
316.529
316.758
316.494
316.713
317.651
317.033
316.355
315.785
316.272
315.697
316.685
316.404
316.545
316.66
316.453
316.171
316.053
316.388
316.486
316.701
316.424
317.096
315.933
316.028
316.888
316.715
316.438
316.489
316.591
316.534
316.321
316.318
317.482
315.926
316.171
316.087
316.998
316.575
316.354
316.262
316.414
316.533
316.546
316.551
316.811
316.153
316.267
316.341
316.332
316.492
316.23
317.135
316.933
316.512
315.744
315.779
315.823
316.506
316.649
315.967
316.177
316.197
316.675
316.491
316.585
317.272
315.525
315.938
315.972
316.815
316.463
316.435
316.531
316.265
316.574
316.967
316.848
316.523
316.117
315.932
315.487
316.42
316.607
316.119
316.12
316.314
316.649
316.481
316.233
317.271
315.975
315.913
316.311
316.796
316.514
316.479
316.562
316.541
316.582
316.17
317.382
316.149
316.081
316.169
)
;
        refGradient     uniform 0;
        valueFraction   nonuniform List<scalar> 
1536
(
0.000132514
0.000150464
0.000159714
0.000396163
0.000378681
0.000215014
0.00023427
0.000205754
0.000220311
0.000381065
0.000376051
0.000378564
0.000212181
0.000224828
0.000378304
0.000357497
0.000219796
0.000242782
0.000333195
0.000200299
0.000214324
0.000199933
0.000211437
0.000347812
0.000348522
0.000347959
0.00033029
0.00034836
0.000177114
0.000152121
0.000161904
0.000408698
0.00040123
0.000139405
0.000152747
0.000156151
0.000400764
0.000399717
0.000398955
0.000140404
0.00015185
0.00015605
0.000331072
0.000330761
0.000314311
0.000310216
0.000252099
0.000304558
0.000316315
0.000248112
0.000307942
0.000314845
0.000247654
0.00033177
0.000197754
0.000207276
0.000204068
0.000219265
0.00020961
0.000228709
0.000204787
0.000215441
0.000218132
0.000247767
0.000212684
0.000238425
0.000383243
0.000381791
0.000317461
0.000214775
0.000232089
0.000206633
0.000219267
0.000214428
0.000243081
0.000205407
0.000216463
0.000151943
0.000136794
0.000159556
0.00038608
0.000405102