/*--------------------------------*- C++ -*----------------------------------*\
| =========                 |                                                 |
| \\      /  F ield         | OpenFOAM: The Open Source CFD Toolbox           |
|  \\    /   O peration     | Version:  v1912                                 |
|   \\  /    A nd           | Website:  www.openfoam.com                      |
|    \\/     M anipulation  |                                                 |
\*---------------------------------------------------------------------------*/
FoamFile
{
    version     2.0;
    format      ascii;
    class       surfaceScalarField;
    location    "454/oil";
    object      phi;
}
// * * * * * * * * * * * * * * * * * * * * * * * * * * * * * * * * * * * * * //

dimensions      [1 0 -1 0 0 0 0];
oriented        oriented;


internalField   nonuniform List<scalar> 
104676
(
-1.25469e-11
2.86096e-11
-1.589e-11
2.85464e-10
-2.34331e-10
-6.36795e-11
8.95292e-10
-4.40115e-10
-1.69711e-10
1.72272e-09
-5.37141e-10
-2.90286e-10
2.64617e-09
-5.4926e-10
-3.74189e-10
3.54412e-09
-4.99451e-10
-3.98491e-10
4.30685e-09
-4.05814e-10
-3.56913e-10
4.84265e-09
-2.81795e-10
-2.54006e-10
5.0801e-09
-1.37805e-10
-9.96475e-11
4.98024e-09
1.31677e-11
8.66991e-11
4.52418e-09
1.69199e-10
2.86862e-10
3.74349e-09
2.96505e-10
4.8418e-10
2.679e-09
4.12189e-10
6.52305e-10
1.40715e-09
4.95983e-10
7.75869e-10
2.53001e-11
5.40259e-10
8.41594e-10
-1.36083e-09
5.4264e-10
8.4349e-10
-2.63604e-09
4.9639e-10
7.78831e-10
-3.70465e-09
4.1177e-10
6.56839e-10
-4.49272e-09
2.98188e-10
4.89883e-10
-4.95422e-09
1.65491e-10
2.9602e-10
-5.06613e-09
1.42417e-11
9.7671e-11
-4.83374e-09
-1.40736e-10
-9.16553e-11
-4.30207e-09
-2.84173e-10
-2.47488e-10
-3.54242e-09
-4.08029e-10
-3.51616e-10
-2.64699e-09
-5.01247e-10
-3.94183e-10
-1.72531e-09
-5.52004e-10
-3.69669e-10
-8.98411e-10
-5.41269e-10
-2.85629e-10
-2.88255e-10
-4.44831e-10
-1.65322e-10
1.05972e-11
-2.38547e-10
-6.0303e-11
2.43016e-11
-1.37022e-11
2.92053e-10
-5.55494e-10
2.92051e-10
1.12816e-09
-1.6707e-09
6.00256e-10
2.45693e-09
-2.51245e-09
7.43568e-10
4.13063e-09
-3.02552e-09
8.14683e-10
5.94798e-09
-3.27163e-09
9.05018e-10
7.69223e-09
-3.31121e-09
1.06751e-09
9.15856e-09
-3.19601e-09
1.32387e-09
1.01697e-08
-2.96688e-09
1.67395e-09
1.05875e-08
-2.65808e-09
2.10245e-09
1.03236e-08
-2.30046e-09
2.5776e-09
9.33662e-09
-1.9242e-09
3.08033e-09
7.68121e-09
-1.5947e-09
3.54662e-09
5.4811e-09
-1.30493e-09
3.91724e-09
2.87569e-09
-1.0953e-09
4.1967e-09
5.10673e-11
-9.85675e-10
4.35056e-09
-2.78441e-09
-9.86372e-10
4.36449e-09
-5.39662e-09
-1.10047e-09
4.20907e-09
-7.59835e-09
-1.31382e-09
3.92733e-09
-9.23953e-09
-1.60424e-09
3.5436e-09
-1.02287e-08
-1.94006e-09
3.09476e-09
-1.05077e-08
-2.31118e-09
2.6044e-09
-1.01032e-08
-2.66621e-09
2.12101e-09
-9.10853e-09
-2.97196e-09
1.69308e-09
-7.65996e-09
-3.20009e-09
1.34349e-09
-5.93029e-09
-3.31629e-09
1.08538e-09
-4.12592e-09
-3.27837e-09
9.22007e-10
-2.46037e-09
-3.03668e-09
8.29868e-10
-1.13245e-09
-2.5271e-09
7.54355e-10
-2.93512e-10
-1.68258e-09
6.05098e-10
-5.6167e-10
2.92462e-10
6.15179e-10
-1.79174e-09
6.21068e-10
1.95592e-09
-4.34054e-09
1.32911e-09
3.83685e-09
-6.16318e-09
1.76981e-09
6.07304e-09
-7.35297e-09
2.09126e-09
8.43299e-09
-8.037e-09
2.40542e-09
1.06618e-08
-8.32061e-09
2.78062e-09
1.25103e-08
-8.29455e-09
3.25001e-09
1.37578e-08
-8.03369e-09
3.81926e-09
1.42322e-08
-7.60615e-09
4.47377e-09
1.38231e-08
-7.06916e-09
5.1778e-09
1.24766e-08
-6.48484e-09
5.90711e-09
1.02498e-08
-5.93244e-09
6.56455e-09
7.30382e-09
-5.44806e-09
7.08909e-09
3.82874e-09
-5.09444e-09
7.47423e-09
6.56113e-11
-4.91218e-09
7.68964e-09
-3.71535e-09
-4.92091e-09
7.71551e-09
-7.20084e-09
-5.10662e-09
7.49164e-09
-1.01466e-08
-5.46226e-09
7.09422e-09
-1.23597e-08
-5.94311e-09
6.552e-09
-1.37229e-08
-6.50034e-09
5.92344e-09
-1.41538e-08
-7.08333e-09
5.20307e-09
-1.36954e-08
-7.61629e-09
4.49167e-09
-1.24646e-08
-8.04161e-09
3.8389e-09
-1.06338e-08
-8.3005e-09
3.26953e-09
-8.42122e-09
-8.32798e-09
2.79916e-09
-6.0723e-09
-8.04918e-09
2.4219e-09
-3.84328e-09
-7.37005e-09
2.10435e-09
-1.96357e-09
-6.18387e-09
1.77707e-09
-6.18846e-10
-4.35664e-09
1.32933e-09
-1.8004e-09
6.19885e-10
8.82528e-10
-3.56754e-09
8.93276e-10
2.64798e-09
-8.03338e-09
1.92739e-09
4.97668e-09
-1.10989e-08
2.60699e-09
7.64131e-09
-1.31485e-08
3.13086e-09
1.03872e-08
-1.44158e-08
3.63292e-09
1.29399e-08
-1.5062e-08
4.18865e-09
1.50298e-08
-1.52211e-08
4.83658e-09
1.64158e-08
-1.50041e-08
5.58451e-09
1.69019e-08
-1.45118e-08
6.41957e-09
1.63613e-08
-1.38367e-08
7.30816e-09
1.47307e-08
-1.30722e-08
8.21792e-09
1.20869e-08
-1.23096e-08
9.02089e-09
8.60565e-09
-1.16454e-08
9.67865e-09
4.50791e-09
-1.11337e-08
1.01369e-08
7.40904e-11
-1.0873e-08
1.03946e-08
-4.38338e-09
-1.08914e-08
1.0428e-08
-8.49485e-09
-1.11468e-08
1.01516e-08
-1.19778e-08
-1.16451e-08
9.66585e-09
-1.46092e-08
-1.23128e-08
9.001e-09
-1.62532e-08
-1.30784e-08
8.22209e-09
-1.68136e-08
-1.38432e-08
7.32024e-09
-1.63453e-08
-1.45166e-08
6.43192e-09
-1.49788e-08
-1.50082e-08
5.60012e-09
-1.29065e-08
-1.52247e-08
4.85191e-09
-1.03711e-08
-1.50682e-08
4.20473e-09
-7.63985e-09
-1.44279e-08
3.64754e-09
-4.98214e-09
-1.31684e-08
3.14068e-09
-2.65554e-09
-1.11183e-08
2.6078e-09
-8.89069e-10
-8.03991e-09
1.9168e-09
-3.57946e-09
8.89989e-10
1.08421e-09
-5.74599e-09
1.09424e-09
3.17751e-09
-1.24915e-08
2.3648e-09
5.85706e-09
-1.70013e-08
3.22283e-09
8.85237e-09
-2.00401e-08
3.89633e-09
1.18875e-08
-2.19903e-08
4.53939e-09
1.46746e-08
-2.30858e-08
5.23672e-09
1.6933e-08
-2.35084e-08
6.0289e-09
1.84085e-08
-2.34065e-08
6.92693e-09
1.88963e-08
-2.29137e-08
7.91402e-09
1.82568e-08
-2.21553e-08
8.95808e-09
1.64222e-08
-2.126e-08
1.00224e-08
1.34722e-08
-2.03402e-08
1.09806e-08
9.58417e-09
-1.95143e-08
1.17569e-08
5.01742e-09
-1.88436e-08
1.22767e-08
7.97099e-11
-1.85045e-08
1.25692e-08
-4.88572e-09
-1.85297e-08
1.26037e-08
-9.46209e-09
-1.88601e-08
1.22897e-08
-1.33446e-08
-1.94906e-08
1.17279e-08
-1.62923e-08
-2.0334e-08
1.0969e-08
-1.81421e-08
-2.12594e-08
1.00308e-08
-1.88019e-08
-2.21557e-08
8.97235e-09
-1.83336e-08
-2.29141e-08
7.92921e-09
-1.68767e-08
-2.34079e-08
6.94284e-09
-1.46353e-08
-2.35108e-08
6.04468e-09
-1.18648e-08
-2.30903e-08
5.25174e-09
-8.84525e-09
-2.19996e-08
4.55204e-09
-5.86053e-09
-2.00564e-08
3.90322e-09
-3.18298e-09
-1.70153e-08
3.21953e-09
-1.08988e-09
-1.24823e-08
2.34934e-09
-5.76066e-09
1.09133e-09
1.21971e-09
-8.19726e-09
1.23157e-09
3.54579e-09
-1.74744e-08
2.65683e-09
6.48036e-09
-2.35735e-08
3.63764e-09
9.71556e-09
-2.76933e-08
4.41804e-09
1.29592e-08
-3.03977e-08
5.16383e-09
1.59146e-08
-3.2011e-08
5.96991e-09
1.82949e-08
-3.27679e-08
6.87911e-09
1.98386e-08
-3.28551e-08
7.90494e-09
2.03334e-08
-3.24372e-08
9.02865e-09
1.96347e-08
-3.16688e-08
1.02123e-08
1.76713e-08
-3.07071e-08
1.14105e-08
1.44975e-08
-2.97067e-08
1.25403e-08
1.03089e-08
-2.87649e-08
1.34393e-08
5.39368e-09
-2.79468e-08
1.40184e-08
7.96839e-11
-2.75195e-08
1.43291e-08
-5.26444e-09
-2.75469e-08
1.43613e-08
-1.01793e-08
-2.79845e-08
1.40393e-08
-1.43538e-08
-2.87187e-08
1.34026e-08
-1.75315e-08
-2.96925e-08
1.25361e-08
-1.95133e-08
-3.07028e-08
1.14254e-08
-2.02348e-08
-3.16652e-08
1.0231e-08
-1.97609e-08
-3.24354e-08
9.04735e-09
-1.82361e-08
-3.28557e-08
7.92306e-09
-1.58731e-08
-3.27699e-08
6.89606e-09
-1.29327e-08
-3.2015e-08
5.98419e-09
-9.70327e-09
-3.04044e-08
5.17549e-09
-6.47974e-09
-2.77029e-08
4.42298e-09
-3.55151e-09
-2.35746e-08
3.63106e-09
-1.226e-09
-1.74486e-08
2.64071e-09
-8.21666e-09
1.23e-09
1.28791e-09
-1.08012e-08
1.31598e-09
3.75718e-09
-2.279e-08
2.8463e-09
6.85252e-09
-3.05604e-08
3.89165e-09
1.02364e-08
-3.58083e-08
4.73109e-09
1.3608e-08
-3.93158e-08
5.54644e-09
1.66675e-08
-4.15041e-08
6.43353e-09
1.9127e-08
-4.26645e-08
7.43717e-09
2.072e-08
-4.30216e-08
8.57351e-09
2.1231e-08
-4.27689e-08
9.82069e-09
2.05071e-08
-4.20821e-08
1.11371e-08
1.84757e-08
-4.11458e-08
1.24701e-08
1.51551e-08
-4.01402e-08
1.37541e-08
1.07812e-08
-3.91734e-08
1.47823e-08
5.64005e-09
-3.82214e-08
1.54158e-08
8.67735e-11
-3.77137e-08
1.57474e-08
-5.49185e-09
-3.77554e-08
1.57871e-08
-1.06498e-08
-3.82922e-08
1.54657e-08
-1.50078e-08
-3.91176e-08
1.47568e-08
-1.83319e-08
-4.01262e-08
1.37579e-08
-2.03832e-08
-4.1145e-08
1.24934e-08
-2.11297e-08
-4.20818e-08
1.11631e-08
-2.06405e-08
-4.27693e-08
9.84471e-09
-1.90667e-08
-4.30244e-08
8.59483e-09
-1.66247e-08
-4.26692e-08
7.45732e-09
-1.35792e-08
-4.15093e-08
6.44889e-09
-1.02212e-08
-3.93204e-08
5.55793e-09
-6.84985e-09
-3.58078e-08
4.73361e-09
-3.76666e-09
-3.05346e-08
3.87677e-09
-1.30356e-09
-2.27274e-08
2.81577e-09
-1.08326e-08
1.31243e-09
1.31344e-09
-1.34585e-08
1.34387e-09
3.82442e-09
-2.82197e-08
2.91873e-09
6.97284e-09
-3.77037e-08
3.99485e-09
1.04075e-08
-4.41024e-08
4.8594e-09
1.38175e-08
-4.84345e-08
5.70876e-09
1.69077e-08
-5.12445e-08
6.65017e-09
1.93949e-08
-5.28774e-08
7.72577e-09
2.10141e-08
-5.3592e-08
8.95117e-09
2.15454e-08
-5.36053e-08
1.03051e-08
2.0833e-08
-5.31118e-08
1.17421e-08
1.87913e-08
-5.23074e-08
1.32032e-08
1.542e-08
-5.13964e-08
1.46275e-08
1.09637e-08
-5.05177e-08
1.58006e-08
5.72718e-09
-4.94556e-08
1.64707e-08
8.62876e-11
-4.89128e-08
1.684e-08
-5.5879e-09
-4.89638e-08
1.68826e-08
-1.08615e-08
-4.95284e-08
1.65098e-08
-1.52828e-08
-5.04582e-08
1.5762e-08
-1.86491e-08
-5.13855e-08
1.46256e-08
-2.07092e-08
-5.23107e-08
1.32258e-08
-2.14449e-08
-5.31145e-08
1.17684e-08
-2.09351e-08
-5.3609e-08
1.03299e-08
-1.93343e-08
-5.35992e-08
8.97395e-09
-1.68636e-08
-5.28872e-08
7.74741e-09
-1.3787e-08
-5.12538e-08
6.66786e-09
-1.0391e-08
-4.8437e-08
5.72058e-09
-6.97384e-09
-4.40785e-08
4.85351e-09
-3.83975e-09
-3.76327e-08
3.964e-09
-1.32768e-09
-2.81178e-08
2.87829e-09
-1.35031e-08
1.3428e-09
1.29065e-09
-1.60686e-08
1.31951e-09
3.74181e-09
-3.35503e-08
2.8795e-09
6.82589e-09
-4.47535e-08
3.96569e-09
1.02011e-08
-5.2309e-08
4.83146e-09
1.3554e-08
-5.74604e-08
5.67296e-09
1.65886e-08
-6.09031e-08
6.62393e-09
1.90377e-08
-6.30623e-08
7.73585e-09
2.06464e-08
-6.4217e-08
9.01624e-09
2.1195e-08
-6.45955e-08
1.04417e-08
2.05243e-08
-6.4407e-08
1.19658e-08
1.85535e-08
-6.38512e-08
1.35147e-08
1.52673e-08
-6.31256e-08
1.50153e-08
1.08371e-08
-6.23954e-08
1.6308e-08
5.65367e-09
-6.13005e-08
1.70283e-08
8.1711e-11
-6.0804e-08
1.74632e-08
-5.53056e-09
-6.08491e-08
1.74976e-08
-1.07655e-08
-6.13278e-08
1.70343e-08
-1.51549e-08
-6.23048e-08
1.6236e-08
-1.84183e-08
-6.3115e-08
1.49929e-08
-2.04035e-08
-6.3858e-08
1.35325e-08
-2.10954e-08
-6.4415e-08
1.19923e-08
-2.05677e-08
-6.4604e-08
1.04674e-08
-1.89775e-08
-6.42292e-08
9.03978e-09
-1.65442e-08
-6.30785e-08
7.75793e-09
-1.35246e-08
-6.09124e-08
6.639e-09
-1.01952e-08
-5.74322e-08
5.66586e-09
-6.84386e-09
-5.22167e-08
4.78684e-09
-3.7681e-09
-4.46079e-08
3.89948e-09
-1.29944e-09
-3.34195e-08
2.8331e-09
-1.61228e-08
1.32021e-09
1.22442e-09
-1.85303e-08
1.23726e-09
3.53803e-09
-3.85674e-08
2.70347e-09
6.41941e-09
-5.13959e-08
3.76106e-09
9.59525e-09
-6.01073e-08
4.62248e-09
1.27762e-08
-6.60814e-08
5.44003e-09
1.56577e-08
-7.01332e-08
6.34862e-09
1.79887e-08
-7.28367e-08
7.44349e-09
1.95345e-08
-7.44901e-08
8.72736e-09
2.00887e-08
-7.53193e-08
1.01695e-08
1.94892e-08
-7.55305e-08
1.1723e-08
1.76586e-08
-7.53225e-08
1.33019e-08
1.45819e-08
-7.48732e-08
1.48244e-08
1.0318e-08
-7.43112e-08
1.61797e-08
5.37956e-09
-7.33239e-08
1.69619e-08
7.57263e-11
-7.29229e-08
1.74227e-08
-5.25913e-09
-7.29654e-08
1.74512e-08
-1.02316e-08
-7.32973e-08
1.6942e-08
-1.44721e-08
-7.41292e-08
1.6065e-08
-1.75324e-08
-7.4848e-08
1.47933e-08
-1.93726e-08
-7.53345e-08
1.33167e-08
-1.99927e-08
-7.55433e-08
1.17485e-08
-1.94596e-08
-7.53318e-08
1.01946e-08
-1.79301e-08
-7.45088e-08
8.75018e-09
-1.5612e-08
-7.28591e-08
7.4625e-09
-1.27536e-08
-7.01182e-08
6.34736e-09
-9.60792e-09
-6.59646e-08
5.38675e-09
-6.44103e-09
-5.99123e-08
4.52871e-09
-3.54114e-09
-5.11837e-08
3.67591e-09
-1.22008e-09
-3.84059e-08
2.66528e-09
-1.85864e-08
1.24351e-09
1.10486e-09
-2.07332e-08
1.09807e-09
3.19977e-09
-4.30303e-08
2.36801e-09
5.78171e-09
-5.72937e-08
3.31582e-09
8.60279e-09
-6.70868e-08
4.1584e-09
1.14637e-08
-7.38903e-08
4.94797e-09
1.40721e-08
-7.85297e-08
5.78807e-09
1.61937e-08
-8.17676e-08
6.8093e-09
1.76174e-08
-8.39476e-08
8.03371e-09
1.81528e-08
-8.52721e-08
9.4175e-09
1.76518e-08
-8.59335e-08
1.09041e-08
1.60577e-08
-8.61074e-08
1.2379e-08
1.33293e-08
-8.59224e-08
1.37776e-08
9.40132e-09
-8.54863e-08
1.51031e-08
4.89238e-09
-8.48384e-08
1.60234e-08
6.84709e-11
-8.46032e-08
1.65043e-08
-4.77441e-09
-8.46459e-08
1.65234e-08
-9.25968e-09
-8.48167e-08
1.60047e-08
-1.3116e-08
-8.53959e-08
1.5123e-08
-1.58826e-08
-8.60305e-08
1.39491e-08
-1.75319e-08
-8.61557e-08
1.24705e-08
-1.8059e-08
-8.59528e-08
1.09366e-08
-1.75465e-08
-8.52812e-08
9.43703e-09
-1.61364e-08
-8.39686e-08
8.04963e-09
-1.40227e-08
-8.17909e-08
6.81815e-09
-1.14388e-08
-7.84609e-08
5.75885e-09
-8.60246e-09
-7.36508e-08
4.84983e-09
-5.74503e-09
-6.68111e-08
4.04141e-09
-3.14293e-09
-5.70468e-08
3.26097e-09
-1.07247e-09
-4.28353e-08
2.35894e-09
-2.07646e-08
1.10575e-09
9.30854e-10
-2.25702e-08
9.06166e-10
2.71558e-09
-4.67183e-08
1.9032e-09
4.897e-09
-6.20936e-08
2.61851e-09
7.26278e-09
-7.27896e-08
3.33703e-09
9.61922e-09
-8.0343e-08
4.09633e-09
1.18077e-08
-8.55969e-08
4.87866e-09
1.36167e-08
-8.93558e-08
5.77927e-09
1.48602e-08
-9.20614e-08
6.87036e-09
1.53654e-08
-9.38856e-08
8.10821e-09
1.49974e-08
-9.49637e-08
9.39816e-09
1.36663e-08
-9.54384e-08
1.0662e-08
1.12889e-08
-9.55462e-08
1.20012e-08
7.97323e-09
-9.54353e-08
1.32647e-08
4.16162e-09
-9.51426e-08
1.41158e-08
5.69061e-11
-9.50469e-08
1.45484e-08
-4.07723e-09
-9.50221e-08
1.45103e-08
-7.89555e-09
-9.49913e-08
1.39929e-08
-1.11636e-08
-9.52999e-08
1.3172e-08
-1.34977e-08
-9.58159e-08
1.21195e-08
-1.48584e-08
-9.55333e-08
1.07384e-08
-1.52606e-08
-9.49477e-08
9.39704e-09
-1.47885e-08
-9.38482e-08
8.09487e-09
-1.35607e-08
-9.20636e-08
6.86726e-09
-1.17405e-08
-8.93786e-08
5.76744e-09
-9.55262e-09
-8.54839e-08
4.83509e-09
-7.17884e-09
-8.00842e-08
4.05964e-09
-4.81993e-09
-7.25742e-08
3.40414e-09
-2.65418e-09
-6.19806e-08
2.76809e-09
-9.1554e-10
-4.658e-08
2.00608e-09
-2.26164e-08
9.36247e-10
7.14055e-10
-2.39673e-08
6.83002e-10
2.05684e-09
-4.95162e-08
1.45519e-09
3.74069e-09
-6.57427e-08
1.9652e-09
5.5441e-09
-7.69982e-08
2.40518e-09
7.29214e-09
-8.50414e-08
2.95037e-09
8.91914e-09
-9.08343e-08
3.61046e-09
1.02913e-08
-9.50829e-08
4.35492e-09
1.12836e-08
-9.82544e-08
5.20063e-09
1.17681e-08
-1.00518e-07
6.14836e-09
1.15089e-08
-1.0188e-07
7.17517e-09
1.03686e-08
-1.02615e-07
8.31651e-09
8.45773e-09
-1.03124e-07
9.48885e-09
6.05552e-09
-1.0351e-07
1.04772e-08
3.19817e-09
-1.03441e-07
1.11562e-08
4.95776e-11
-1.0338e-07
1.14819e-08
-3.15154e-09
-1.03227e-07
1.1406e-08
-6.06768e-09
-1.03062e-07
1.09871e-08
-8.52247e-09
-1.03127e-07
1.02815e-08
-1.03753e-08
-1.03247e-07
9.28376e-09
-1.14026e-08
-1.02566e-07
8.06044e-09
-1.16525e-08
-1.01702e-07
7.00458e-09
-1.12537e-08
-1.00275e-07
6.02769e-09
-1.03145e-08
-9.8133e-08
5.13024e-09
-8.9494e-09
-9.51183e-08
4.37458e-09
-7.28632e-09
-9.08701e-08
3.72314e-09
-5.47937e-09
-8.50218e-08
3.13066e-09
-3.67853e-09
-7.69816e-08
2.60652e-09
-2.02503e-09
-6.57368e-08
2.10271e-09
-6.995e-10
-4.9425e-08
1.5195e-09
-2.40237e-08
7.07862e-10
4.82263e-10
-2.48648e-08
4.15264e-10
1.30062e-09
-5.12076e-08
8.73e-10
2.35112e-09
-6.80559e-08
1.26277e-09
3.49128e-09
-7.9715e-08
1.57662e-09
4.60987e-09
-8.80978e-08
1.93776e-09
5.65674e-09
-9.42346e-08
2.35346e-09
6.53578e-09
-9.87571e-08
2.7951e-09
7.13248e-09
-1.02089e-07
3.23796e-09
7.45401e-09
-1.0456e-07
3.72026e-09
7.26576e-09
-1.06121e-07
4.43009e-09
6.51773e-09
-1.0717e-07
5.30321e-09
5.36057e-09
-1.08073e-07
6.106e-09
3.84705e-09
-1.08731e-07
6.73369e-09
2.0388e-09
-1.08803e-07
7.16963e-09
5.98824e-11
-1.08813e-07
7.41155e-09
-1.94912e-09
-1.08608e-07
7.39038e-09
-3.79087e-09
-1.08365e-07
7.14463e-09
-5.31086e-09
-1.08303e-07
6.69627e-09
-6.49824e-09
-1.08144e-07
6.08473e-09
-7.22841e-09
-1.07114e-07
5.27783e-09
-7.50039e-09
-1.05856e-07
4.42593e-09
-7.28776e-09
-1.04119e-07
3.63213e-09
-6.64395e-09
-1.018e-07
3.02299e-09
-5.69286e-09
-9.86753e-08
2.60596e-09
-4.59512e-09
-9.42434e-08
2.27555e-09
-3.44204e-09
-8.81282e-08
1.95337e-09
-2.30434e-09
-7.9753e-08
1.63371e-09
-1.26476e-09
-6.80934e-08
1.31704e-09
-4.37293e-10
-5.12021e-08
9.49631e-10
-2.49031e-08
4.42056e-10
1.76061e-10
-2.51818e-08
1.40951e-10
4.51638e-10
-5.1785e-08
3.01802e-10
8.2108e-10
-6.8876e-08
4.50643e-10
1.22683e-09
-8.06836e-08
5.62854e-10
1.63659e-09
-8.91827e-08
6.75178e-10
2.05175e-09
-9.54186e-08
7.68784e-10
2.43784e-09
-9.99936e-08
8.50386e-10
2.66824e-09
-1.03302e-07
9.82854e-10
2.70049e-09
-1.05783e-07
1.19029e-09
2.5548e-09
-1.07462e-07
1.48613e-09
2.32329e-09
-1.08734e-07
1.79608e-09
1.98388e-09
-1.09792e-07
2.05827e-09
1.34531e-09
-1.10328e-07
2.23598e-09
6.67965e-10
-1.10488e-07
2.36205e-09
3.46126e-11
-1.10668e-07
2.48864e-09
-6.70319e-10
-1.10499e-07
2.59609e-09
-1.32989e-09
-1.10297e-07
2.59097e-09
-1.85125e-09
-1.10202e-07
2.42083e-09
-2.26193e-09
-1.09929e-07
2.19527e-09
-2.51591e-09
-1.08779e-07
1.91871e-09
-2.61914e-09
-1.0738e-07
1.62652e-09
-2.55464e-09
-1.05528e-07
1.34432e-09
-2.33054e-09
-1.03138e-07
1.11401e-09
-1.99428e-09
-9.99505e-08
9.38921e-10
-1.60348e-09
-9.54276e-08
7.93432e-10
-1.19473e-09
-8.91997e-08
6.62712e-10
-7.93198e-10
-8.07026e-08
5.48117e-10
-4.30381e-10
-6.88973e-08
4.41056e-10
-1.47951e-10
-5.17994e-08
3.14867e-10
-2.52027e-08
1.51636e-10
-1.2446e-10
-2.49205e-08
-1.36885e-10
-3.86844e-10
-5.12463e-08
-2.7624e-10
-7.09614e-10
-6.81766e-08
-3.76687e-10
-1.06283e-09
-7.98612e-08
-4.69203e-10
-1.42714e-09
-8.82632e-08
-5.55251e-10
-1.7933e-09
-9.44358e-08
-6.16654e-10
-2.13508e-09
-9.89889e-08
-6.62864e-10
-2.3522e-09
-1.02332e-07
-7.53593e-10
-2.35698e-09
-1.04814e-07
-9.64016e-10
-2.19881e-09
-1.06341e-07
-1.27886e-09
-1.99359e-09
-1.07361e-07
-1.57827e-09
-1.81567e-09
-1.08191e-07
-1.77893e-09
-1.53394e-09
-1.087e-07
-1.90915e-09
-9.46784e-10
-1.09029e-07
-2.04522e-09
-9.10436e-11
-1.09272e-07
-2.25226e-09
6.12082e-10
-1.0887e-07
-2.33235e-09
1.21743e-09
-1.08663e-07
-2.23837e-09
1.76149e-09
-1.08656e-07
-2.09061e-09
2.06132e-09
-1.08328e-07
-1.90048e-09
2.25382e-09
-1.07294e-07
-1.67708e-09
2.34947e-09
-1.06048e-07
-1.42774e-09
2.29751e-09
-1.04304e-07
-1.17209e-09
2.11766e-09
-1.01986e-07
-9.71649e-10
1.81575e-09
-9.88215e-08
-8.27047e-10
1.46576e-09
-9.43615e-08
-7.16145e-10
1.10267e-09
-8.82256e-08
-6.11057e-10
7.40051e-10
-7.98337e-08
-5.06311e-10
4.1139e-10
-6.81675e-08
-4.01209e-10
1.48231e-10
-5.12576e-08
-2.78667e-10
-2.49247e-08
-1.29746e-10
-4.21852e-10
-2.40728e-08
-4.25879e-10
-1.22581e-09
-4.95311e-08
-9.11272e-10
-2.2294e-09
-6.59075e-08
-1.2655e-09
-3.32849e-09
-7.71905e-08
-1.57159e-09
-4.43284e-09
-8.52678e-08
-1.89103e-09
-5.45652e-09
-9.11641e-08
-2.24802e-09
-6.30701e-09
-9.54906e-08
-2.64789e-09
-6.90917e-09
-9.86309e-08
-3.09855e-09
-7.18761e-09
-1.00931e-07
-3.60453e-09
-6.97274e-09
-1.02296e-07
-4.25962e-09
-6.25656e-09
-1.02998e-07
-5.0792e-09
-5.22497e-09
-1.03405e-07
-5.81738e-09
-3.82165e-09
-1.03719e-07
-6.38478e-09
-2.05688e-09
-1.03964e-07
-6.83033e-09
-3.75384e-11
-1.04172e-07
-7.11941e-09
1.91318e-09
-1.03728e-07
-7.09265e-09
3.74736e-09
-1.0365e-07
-6.84772e-09
5.35228e-09
-1.03855e-07
-6.40551e-09
6.31534e-09
-1.03496e-07
-5.79524e-09
6.9413e-09
-1.0282e-07
-5.09985e-09
7.21862e-09
-1.02025e-07
-4.30023e-09
7.01133e-09
-1.00631e-07
-3.46566e-09
6.41173e-09
-9.84707e-08
-2.91615e-09
5.49447e-09
-9.53539e-08
-2.55036e-09
4.44097e-09
-9.10864e-08
-2.22164e-09
3.35e-09
-8.52417e-08
-1.89292e-09
2.25515e-09
-7.71797e-08
-1.55919e-09
1.26061e-09
-6.59401e-08
-1.23278e-09
4.57919e-10
-4.95975e-08
-8.57413e-10
-2.4058e-08
-4.08802e-10
-6.90095e-10
-2.26908e-08
-6.91842e-10
-1.98966e-09
-4.67453e-08
-1.48625e-09
-3.61279e-09
-6.22208e-08
-2.06354e-09
-5.38191e-09
-7.28594e-08
-2.562e-09
-7.15078e-09
-8.04167e-08
-3.08225e-09
-8.76616e-09
-8.5864e-08
-3.68469e-09
-1.00831e-08
-8.97947e-08
-4.37889e-09
-1.10154e-08
-9.25159e-08
-5.18266e-09
-1.14813e-08
-9.43763e-08
-6.08885e-09
-1.12515e-08
-9.54922e-08
-7.03409e-09
-1.01617e-08
-9.5967e-08
-8.12107e-09
-8.35263e-09
-9.59683e-08
-9.24583e-09
-5.98564e-09
-9.58885e-08
-1.01974e-08
-3.1644e-09
-9.58943e-08
-1.08907e-08
-4.14532e-11
-9.60301e-08
-1.12644e-08
3.06581e-09
-9.56559e-08
-1.11798e-08
5.95998e-09
-9.57211e-08
-1.0823e-08
8.46612e-09
-9.62119e-08
-1.01494e-08
1.01705e-08
-9.60279e-08
-9.1724e-09
1.12009e-08
-9.57551e-08
-8.09555e-09
1.15129e-08
-9.53247e-08
-7.01198e-09
1.11184e-08
-9.43115e-08
-5.92528e-09
1.01432e-08
-9.25081e-08
-4.98736e-09
8.76035e-09
-8.97641e-08
-4.20703e-09
7.12277e-09
-8.59097e-08
-3.53908e-09
5.38764e-09
-8.05626e-08
-2.9439e-09
3.65367e-09
-7.3023e-08
-2.42267e-09
2.05173e-09
-6.24124e-08
-1.92576e-09
7.32919e-10
-4.69246e-08
-1.35411e-09
-2.26717e-08
-6.53352e-10
-9.21081e-10
-2.08549e-08
-9.14791e-10
-2.63135e-09
-4.3066e-08
-1.969e-09
-4.77153e-09
-5.73331e-08
-2.74751e-09
-7.10769e-09
-6.71307e-08
-3.39253e-09
-9.45424e-09
-7.40196e-08
-4.05051e-09
-1.16279e-08
-7.88721e-08
-4.8183e-09
-1.34371e-08
-8.2244e-08
-5.74153e-09
-1.46591e-08
-8.44655e-08
-6.8284e-09
-1.51575e-08
-8.58357e-08
-8.04219e-09
-1.48016e-08
-8.6549e-08
-9.29907e-09
-1.34685e-08
-8.67517e-08
-1.05483e-08
-1.10844e-08
-8.65265e-08
-1.1826e-08
-7.87312e-09
-8.60655e-08
-1.30343e-08
-4.12521e-09
-8.57234e-08
-1.39188e-08
-3.36425e-11
-8.5734e-08
-1.43877e-08
4.04843e-09
-8.54685e-08
-1.42694e-08
7.83364e-09
-8.56802e-08
-1.38261e-08
1.10951e-08
-8.64296e-08
-1.30438e-08
1.34375e-08
-8.66089e-08
-1.17614e-08
1.4786e-08
-8.67072e-08
-1.03964e-08
1.51778e-08
-8.65304e-08
-9.18619e-09
1.47037e-08
-8.58556e-08
-7.98181e-09
1.34811e-08
-8.45004e-08
-6.78515e-09
1.16929e-08
-8.2272e-08
-5.70391e-09
9.52532e-09
-7.89467e-08
-4.79541e-09
7.19396e-09
-7.42253e-08
-4.006e-09
4.88474e-09
-6.74833e-08
-3.2305e-09
2.73149e-09
-5.77599e-08
-2.49931e-09
9.65065e-10
-4.3394e-08
-1.76412e-09
-2.08423e-08
-8.64349e-10
-1.10046e-09
-1.8665e-08
-1.08949e-09
-3.13468e-09
-3.86987e-08
-2.33306e-09
-5.70792e-09
-5.14987e-08
-3.26123e-09
-8.54735e-09
-6.02506e-08
-4.04066e-09
-1.13806e-08
-6.63519e-08
-4.83445e-09
-1.39652e-08
-7.0556e-08
-5.73156e-09
-1.60798e-08
-7.33441e-08
-6.78526e-09
-1.74938e-08
-7.50446e-08
-8.0069e-09
-1.80217e-08
-7.59219e-08
-9.38596e-09
-1.75233e-08
-7.61838e-08
-1.08635e-08
-1.59289e-08
-7.60138e-08
-1.23323e-08
-1.31916e-08
-7.55747e-08
-1.36891e-08
-9.35436e-09
-7.49634e-08
-1.49394e-08
-4.85608e-09
-7.42839e-08
-1.59378e-08
-2.45163e-11
-7.40573e-08
-1.65083e-08
4.79002e-09
-7.38676e-08
-1.64154e-08
9.27483e-09
-7.42398e-08
-1.59253e-08
1.31079e-08
-7.51782e-08
-1.50844e-08
1.58809e-08
-7.56289e-08
-1.3753e-08
1.75146e-08
-7.60292e-08
-1.23117e-08
1.80304e-08
-7.62016e-08
-1.08446e-08
1.75114e-08
-7.59515e-08
-9.38507e-09
1.61032e-08
-7.50824e-08
-8.00984e-09
1.40007e-08
-7.33848e-08
-6.78468e-09
1.1411e-08
-7.06096e-08
-5.74747e-09
8.55907e-09
-6.6469e-08
-4.90431e-09
5.72419e-09
-6.04949e-08
-4.15351e-09
3.1662e-09
-5.18354e-08
-3.36645e-09
1.10875e-09
-3.89498e-08
-2.38678e-09
-1.86464e-08
-1.08717e-09
-1.22166e-09
-1.6204e-08
-1.23929e-09
-3.53414e-09
-3.37133e-08
-2.67301e-09
-6.42992e-09
-4.49227e-08
-3.68022e-09
-9.59412e-09
-5.25626e-08
-4.52385e-09
-1.27436e-08
-5.78287e-08
-5.37379e-09
-1.56108e-08
-6.13575e-08
-6.33134e-09
-1.79367e-08
-6.35724e-08
-7.44571e-09
-1.94778e-08
-6.47728e-08
-8.73076e-09
-2.00256e-08
-6.51975e-08
-1.01766e-08
-1.94253e-08
-6.5053e-08
-1.17311e-08
-1.75948e-08
-6.45378e-08
-1.33064e-08
-1.45376e-08
-6.38487e-08
-1.47833e-08
-1.03241e-08
-6.31209e-08
-1.60559e-08
-5.32174e-09
-6.23102e-08
-1.69761e-08
-1.61894e-11
-6.18354e-08
-1.75274e-08
5.30057e-09
-6.17147e-08
-1.74697e-08
1.02875e-08
-6.22262e-08
-1.70005e-08
1.44798e-08
-6.31864e-08
-1.61842e-08
1.7558e-08
-6.38695e-08
-1.48375e-08
1.94071e-08
-6.45566e-08
-1.33218e-08
2.00225e-08
-6.50744e-08
-1.17426e-08
1.94844e-08
-6.52249e-08
-1.01885e-08
1.79508e-08
-6.48066e-08
-8.74213e-09
1.56319e-08
-6.36127e-08
-7.45325e-09
1.27671e-08
-6.14038e-08
-6.34088e-09
9.59853e-09
-5.78912e-08
-5.40929e-09
6.40188e-09
-5.26803e-08
-4.6179e-09
3.49985e-09
-4.5115e-08
-3.81846e-09
1.2138e-09
-3.39001e-08
-2.76364e-09
-1.6189e-08
-1.24354e-09
-1.27713e-09
-1.35946e-08
-1.33235e-09
-3.76266e-09
-2.83546e-08
-2.8731e-09
-6.85557e-09
-3.79179e-08
-3.9118e-09
-1.02163e-08
-4.44126e-08
-4.78921e-09
-1.35583e-08
-4.88189e-08
-5.6678e-09
-1.6592e-08
-5.16807e-08
-6.64309e-09
-1.90419e-08
-5.33571e-08
-7.76543e-09
-2.06504e-08
-5.41125e-08
-9.05174e-09
-2.11965e-08
-5.41652e-08
-1.04862e-08
-2.052e-08
-5.3712e-08
-1.20175e-08
-1.85414e-08
-5.29432e-08
-1.35731e-08
-1.52649e-08
-5.20595e-08
-1.50657e-08
-1.08555e-08
-5.11781e-08
-1.63522e-08
-5.58807e-09
-5.03552e-08
-1.72225e-08
-8.44448e-12
-4.97767e-08
-1.76384e-08
5.58847e-09
-4.97271e-08
-1.75845e-08
1.08335e-08
-5.03029e-08
-1.71683e-08
1.52256e-08
-5.12164e-08
-1.63621e-08
1.85057e-08
-5.20755e-08
-1.50741e-08
2.04969e-08
-5.29586e-08
-1.35892e-08
2.11861e-08
-5.37296e-08
-1.2034e-08
2.0651e-08
-5.41889e-08
-1.05009e-08
1.90516e-08
-5.41419e-08
-9.06533e-09
1.66063e-08
-5.33918e-08
-7.77554e-09
1.35753e-08
-5.17208e-08
-6.65202e-09
1.02304e-08
-4.88657e-08
-5.68064e-09
6.84998e-09
-4.44763e-08
-4.82356e-09
3.74835e-09
-3.80344e-08
-3.97891e-09
1.28798e-09
-2.85228e-08
-2.91692e-09
-1.3575e-08
-1.32604e-09
-1.31747e-09
-1.0922e-08
-1.35507e-09
-3.85006e-09
-2.29192e-08
-2.90286e-09
-7.00328e-09
-3.07886e-08
-3.97617e-09
-1.04391e-08
-3.61112e-08
-4.86553e-09
-1.38563e-08
-3.96662e-08
-5.73552e-09
-1.6955e-08
-4.18943e-08
-6.68777e-09
-1.94484e-08
-4.30897e-08
-7.774e-09
-2.10715e-08
-4.34803e-08
-9.00921e-09
-2.16006e-08
-4.32609e-08
-1.03751e-08
-2.08796e-08
-4.2607e-08
-1.18261e-08
-1.88215e-08
-4.17016e-08
-1.32997e-08
-1.54527e-08
-4.07104e-08
-1.4718e-08
-1.10225e-08
-3.9726e-08
-1.58823e-08
-5.74979e-09
-3.89511e-08
-1.66767e-08
-4.52618e-11
-3.84481e-08
-1.70331e-08
5.63232e-09
-3.83944e-08
-1.70103e-08
1.08836e-08
-3.88879e-08
-1.66663e-08
1.53826e-08
-3.97766e-08
-1.59388e-08
1.87855e-08
-4.07269e-08
-1.47516e-08
2.08535e-08
-4.17086e-08
-1.3318e-08
2.15869e-08
-4.26194e-08
-1.18436e-08
2.10673e-08
-4.32784e-08
-1.03909e-08
1.94523e-08
-4.35041e-08
-9.02284e-09
1.69641e-08
-4.31173e-08
-7.78622e-09
1.38681e-08
-4.19256e-08
-6.69922e-09
1.04511e-08
-3.97024e-08
-5.74631e-09
7.00962e-09
-3.61534e-08
-4.88146e-09
3.84142e-09
-3.08499e-08
-4.01632e-09
1.30481e-09
-2.30232e-08
-2.96306e-09
-1.09118e-08
-1.35844e-09
-1.30586e-09
-8.29135e-09
-1.32481e-09
-3.78582e-09
-1.76049e-08
-2.83438e-09
-6.8914e-09
-2.37883e-08
-3.89471e-09
-1.02887e-08
-2.7959e-08
-4.75489e-09
-1.36749e-08
-3.06959e-08
-5.58424e-09
-1.67492e-08
-3.23375e-08
-6.48244e-09
-1.92189e-08
-3.31213e-08
-7.49873e-09
-2.08189e-08
-3.32341e-08
-8.64626e-09
-2.13298e-08
-3.28396e-08
-9.9103e-09
-2.05942e-08
-3.20957e-08
-1.12469e-08
-1.85385e-08
-3.11567e-08
-1.26006e-08
-1.52256e-08
-3.01544e-08
-1.38688e-08
-1.08668e-08
-2.92054e-08
-1.48794e-08
-5.6965e-09
-2.84988e-08
-1.56226e-08
-5.12568e-11
-2.81063e-08
-1.59871e-08
5.55989e-09
-2.80473e-08
-1.59582e-08
1.07363e-08
-2.845e-08
-1.56143e-08
1.5153e-08
-2.92493e-08
-1.4944e-08
1.85024e-08
-3.01732e-08
-1.39031e-08
2.05662e-08
-3.11597e-08
-1.26128e-08
2.13105e-08
-3.21024e-08
-1.12613e-08
2.08116e-08
-3.2853e-08
-9.9265e-09
1.92193e-08
-3.32505e-08
-8.66134e-09
1.67544e-08
-3.31417e-08
-7.51079e-09
1.36837e-08
-3.23616e-08
-6.49331e-09
1.02996e-08
-3.07234e-08
-5.59485e-09
6.89945e-09
-2.79878e-08
-4.76554e-09
3.78586e-09
-2.38246e-08
-3.9117e-09
1.29109e-09
-1.76594e-08
-2.86899e-09
-8.29344e-09
-1.32724e-09
-1.23298e-09
-5.8181e-09
-1.24028e-09
-3.57703e-09
-1.26037e-08
-2.65713e-09
-6.53071e-09
-1.71828e-08
-3.65173e-09
-9.78403e-09
-2.02571e-08
-4.44864e-09
-1.30453e-08
-2.22266e-08
-5.20794e-09
-1.60187e-08
-2.33403e-08
-6.02378e-09
-1.84121e-08
-2.37816e-08
-6.94627e-09
-1.99651e-08
-2.3697e-08
-7.98418e-09
-2.04607e-08
-2.32206e-08
-9.12337e-09
-1.97478e-08
-2.24788e-08
-1.03298e-08
-1.77554e-08
-2.15924e-08
-1.15567e-08
-1.45858e-08
-2.06697e-08
-1.26543e-08
-1.04013e-08
-1.98452e-08
-1.35447e-08
-5.44635e-09
-1.92371e-08
-1.42167e-08
-4.45836e-11
-1.89245e-08
-1.45836e-08
5.32752e-09
-1.88766e-08
-1.45428e-08
1.02912e-08
-1.92059e-08
-1.42079e-08
1.45193e-08
-1.98718e-08
-1.36055e-08
1.77205e-08
-2.0685e-08
-1.26894e-08
1.97186e-08
-2.15977e-08
-1.156e-08
2.04405e-08
-2.24827e-08
-1.03416e-08
1.99549e-08
-2.32284e-08
-9.1391e-09
1.84109e-08
-2.37079e-08
-7.99858e-09
1.60225e-08
-2.3795e-08
-6.95826e-09
1.30526e-08
-2.33571e-08
-6.03456e-09
9.79047e-09
-2.22445e-08
-5.21674e-09
6.53637e-09
-2.02765e-08
-4.4572e-09
3.58107e-09
-1.72079e-08
-3.66147e-09
1.2302e-09
-1.26363e-08
-2.67222e-09
-5.82173e-09
-1.24151e-09
-1.09886e-09
-3.61874e-09
-1.10049e-09
-3.21127e-09
-8.12601e-09
-2.36526e-09
-5.91633e-09
-1.12377e-08
-3.24012e-09
-8.93122e-09
-1.33124e-08
-3.92982e-09
-1.19841e-08
-1.45883e-08
-4.58549e-09
-1.47902e-08
-1.52423e-08
-5.29187e-09
-1.70628e-08
-1.54125e-08
-6.09651e-09
-1.85477e-08
-1.52066e-08
-7.00555e-09
-1.90368e-08
-1.47243e-08
-8.00724e-09
-1.83846e-08
-1.40593e-08
-9.07163e-09
-1.65344e-08
-1.32985e-08
-1.01442e-08
-1.35852e-08
-1.25398e-08
-1.1079e-08
-9.68107e-09
-1.18765e-08
-1.18729e-08
-5.06101e-09
-1.13884e-08
-1.24687e-08
-3.78223e-11
-1.11381e-08
-1.28095e-08
4.96102e-09
-1.111e-08
-1.27655e-08
9.58156e-09
-1.13703e-08
-1.24561e-08
1.35118e-08
-1.18848e-08
-1.19173e-08
1.64911e-08
-1.25458e-08
-1.11185e-08
1.83554e-08
-1.33024e-08
-1.01597e-08
1.90163e-08
-1.40617e-08
-9.08198e-09
1.85371e-08
-1.47283e-08
-8.02082e-09
1.70599e-08
-1.52125e-08
-7.01826e-09
1.47917e-08
-1.54204e-08
-6.10639e-09
1.19882e-08
-1.52517e-08
-5.30181e-09
8.93557e-09
-1.45991e-08
-4.59279e-09
5.92199e-09
-1.33268e-08
-3.93613e-09
3.21909e-09
-1.12606e-08
-3.24431e-09
1.10143e-09
-8.15059e-09
-2.36809e-09
-3.62124e-09
-1.09907e-09
-8.98266e-10
-1.82343e-09
-8.97042e-10
-2.68379e-09
-4.41033e-09
-1.93016e-09
-5.03831e-09