/*--------------------------------*- C++ -*----------------------------------*\
| =========                 |                                                 |
| \\      /  F ield         | OpenFOAM: The Open Source CFD Toolbox           |
|  \\    /   O peration     | Version:  v1912                                 |
|   \\  /    A nd           | Website:  www.openfoam.com                      |
|    \\/     M anipulation  |                                                 |
\*---------------------------------------------------------------------------*/
FoamFile
{
    version     2.0;
    format      ascii;
    class       volScalarField;
    location    "454/oil";
    object      wallHeatFlux;
}
// * * * * * * * * * * * * * * * * * * * * * * * * * * * * * * * * * * * * * //

dimensions      [1 0 -3 0 0 0 0];


internalField   uniform 0;

boundaryField
{
    maxY
    {
        type            calculated;
        value           uniform 0;
    }
    minX
    {
        type            calculated;
        value           uniform 0;
    }
    maxX
    {
        type            calculated;
        value           uniform 0;
    }
    minY
    {
        type            calculated;
        value           uniform 0;
    }
    minZ
    {
        type            calculated;
        value           uniform 0;
    }
    maxZ
    {
        type            calculated;
        value           uniform 0;
    }
    oil_to_sphere
    {
        type            calculated;
        value           nonuniform List<scalar> 
1536
(
676.083
393.488
386.348
-126.946
-138.674
380.487
151.858
247.019
213.162
-81.6279
-289.544
-42.6312
208.236
-32.3924
-354.971
121.504
380.973
399.985
106.542
193.351
312.679
217.886
237.471
118.457
145.885
132.112
145.204
83.9522
363.407
226.612
448.092
395.624
405.178
124.824
141.31
86.6391
112.98
29.9802
81.8525
143.863
70.4928
111.418
203.466
260.959
330.23
140.335
305.588
232.141
-332.68
130.345
286.237
216.998
226.744
118.451
354.276
547.362
234.482
193.935
307.932
282.113
196.211
205.299
190.5
110.885
138.253
183.865
192.669
292.525
290.546
353.286
109.503
-140.416
-48.7448
132.793
131.672
566.111
408.893
31.6938
122.131
389.969
316.475
274.411
-124.18
-131.447
362.015
621.118
-197.722
168.765
282.285
281.004
212.321
96.1046
91.2793
104.147
131.133
258.646
309.672
329.22
429.573
274.503
318.319
105.513
680.257
288.45
-61.0964
126.111
149.489
-107.143
-110.07
687.136
406.087
245.265
203.214
237.88
-164.654
-137.868
-220.497
495.445
649.537
421.521
225.359
237.896
78.6356
306.386
445.11
259.588
223.733
60.0382
323.78
307.34
184.966
295.889
350.67
152.667
170.012
367.745
239.513
392.099
65.237
383.843
215.922
304.006
306.931
207.392
174.963
201.086
264.338
481.422
169.209
692.175
342.149
380.867
234.476
249.94
133.374
258.894
366.313
299.04
737.871
426.243
405.384
494.391
-10.1967
34.5436
99.8843
95.3805
351.089
469.909
430.057
547.215
82.4216
99.9268
34.1374
310.103
222.525
249.126
596.761
1.39681
-66.0604
621.43
89.8591
38.9267
27.8445
54.5474
278.665
621.565
428.165
69.2481
-20.906
395.261
-2.82972
346.595
347.431
472.993
-45.8864
-416.74
462.109
501.255
143.989
130.035
218.014
155.392
399.406
458.711
334.844
275.101
101.232
480.821
431.421
243.677
59.9437
138.149
126.699
158.018
314.871
556.043
-24.3373
-37.0605
-28.2776
-455.495
379.332
311.867
272.32
215.257
227.202
480.989
344.478
132.065
380.772
-79.7116
87.4855
-404.392
206.63
360.492
463.508
433.936
381.135
322.038
420.818
-48.5624
-7.85727
23.8448
508.027
45.1757
-410.422
-209.844
314.394
192.665
600.543
726.264
242.592
-132.489
-447.517
281.153
421.588
104.896
113.528
-176.928
94.4738
480.332
631.926
189.715
112.614
533.513
429.291
135.828
-57.1226
168.824
565.133
497.984
322.678
348.251
451.717
27.3815
124.843
466.425
347.773
385.731
203.229
381.056
548.199
331.65
308.605
518.002
106.467
103.204
127.221
82.1616
98.4014
476.848
574.322
-49.9474
161.882
146.793
157.252
68.5644
227.19
200.038
38.9136
-173.476
91.2127
-39.5158
67.1269
622.121
524.688
519.199
698.322
9.92354
30.3693
214.595
693.512
627.498
87.4152
205.106
72.7796
342.389
118.01
306.844
330.306
409.373
356.247
140.746
365.829
88.3396
453.234
489.612
390.8
367.595
47.2472
581.562
567.827
334.111
-52.2511
103.376
152.84
331.365
303.619
345.952
38.0666
448.591
451.595
412.562
517.507
294.903
259.307
193.226
-8.66051
260.324
336.543
-10.9498
-31.0096
18.9942
662.029
442.177
517.338
301.409
254.194
469.343
-24.1562
600.977
409.495
260.47
254.253
-42.6153
405.374
435.859
57.4835
261.243
187.095
113.346
342.927
443.89
203.191
133.614
11.5453
556.717
455.331
-33.7257
471.895
431.864
379.334
556.115
256.892
357.7
-88.9949
-43.1437
328.979
687.78
391.71
597.427
296.954
150.37
427.991
16.7292
70.8784
303.736
438.755
347.108
304.592
28.2538
30.9045
467.501
447.295
456.055
249.836
95.0786
312.086
368.225
435.764
266.302
168.781
47.1728
241.745
2.94454
-106.384
102.537
50.2705
246.432
-79.0918
153.927
580.497
147.468
144.009
435.326
432.277
337.858
188.122
-13.7028
388.913
521.201
323.602
269.15
400.336
205.861
235.994
296.353
-127.192
317.542
452.338
514.383
424.666
360.95
349.684
269.147
175.143
17.1837
223.356
48.0884
-41.7464
73.813
-107.567
630.703
591.96
491.701
669.284
5.00571
634.692
36.0188
91.4522
379.409
-16.0757
27.1843
157.333
148.592
601.631
522.118
297.358
317.027
551.658
469.188
266.25
365.923
64.5086
439.537
-52.2606
511.103
-129.684
352.088
387.147
424.268
139.082
15.131
182.821
433.213
196.059
-72.6491
436.619
459.457
490.191
711.261
260.865
543.414
7.41774
42.8799
-320.682
-208.682
265.46
156.784
120.008
74.0156
654.753
25.2604
-22.802
-61.9379
154.959
-85.0562
733.92
61.005
82.0139
224.783
-282.612
-181.893
104.645
97.2202
203.903
132.772
457.594
423.253
351.058
263.339
-99.2693
118.559
412.255
16.5958
58.6727
389.604
560.235
62.7236
-324.438
-8.30549
-290.777
219.143
139.932
82.9296
-54.7908
-283.042
343.077
383.054
305.651
213.551
567.186
352.273
332.707
254.591
45.1932
128.726
456.272
351.362
165.12
-219.107
273.916
398.48
583.411
283.417
99.7103
586.439
223.123
547.283
61.895
141.22
25.1627
147.388
279.149
561.298
0.141151
81.1665
43.7323
154.264
743.17
-56.4254
124.74
-26.771
224.528
277.736
458.6
568.286
-103.608
-50.5288
563.581
596.69
-154.116
544.246
473.116
390.783
462.728
332.075
241.531
257.449
553.956
264.537
337.776
240.807
436.973
284.421
219.657
200.163
-8.29128
390.242
210.371
432.006
359.19
364.956
350.187
266.593
-43.5721
464.444
462.022
341.175
216.594
290.515
678.01
-91.4589
57.0486
2.59474
270.243
63.6026
681.219
147.948
176.663
230.546
-315.091
-267.767
113.325
107.696
257.066
25.3009
76.448
277.729
81.33
570.852
-14.0485
664.096
139.441
262.831
-413.146
-278.702
-324.551
83.0827
391.417
123.116
83.8876
-286.827
246.31
404.346
251.779
809.348
62.1908
456.866
331.286
401.985
480.832
468.537
398.304
225.164
168.358
222.314
401.803
188.223
309.409
279.242
303.617
425.908
351.666
388.683
-14.8363
49.5555
-424.523
-173.225
-113.542
-589.43
103.489
133.432
188.961
218.591
-106.871
-3.1771
164.252
499.542
466.507
158.884
-65.6475
207.1
417.142
335.845
233.512
-86.1436
62.0485
345.277
289.799
228.332
112.553
371.527
375.588
556.096
380.016
271.035
133.183
72.0541
-12.8208
93.8276
191.303
696.648
265.831
620.52
58.5778
718.751
104.384
198.796
6.5366
33.8684
135.902
-20.6864
183.072
-81.1747
116.985
451.068
153.286
-36.8998
574.577
362.757
314.638
209.333
542.446
849.823
-168.468
355.18
295.735
336.834
-22.3802
214.286
71.124
300.1
379.408
471.349
42.2227
343.41
252.101
375.49
357.928
330.886
159.439
192.755
120.002
-69.8149
-100.337
21.4781
532.635
118.016
-24.7839
126.014
458.915
179.995
529.659
421.366
322.116
270.328
316.139
590.089
22.1098
350.788
473.104
503.708
264.676
69.0298
172.5
316.857
511.781
2.10718
196.033
255.798
452.012
318.843
311.793
540.032
7.47816
80.8004
44.8132
591.244
467.748
259.548
449.432
84.1491
116.27
448.429
309.063
558.43
35.0972
404.918
438.436
278.936
302.248
388.642
39.269
-115.898
238.44
310.99
598.513
203.114
98.1633
222.189
319.981
400.212
270.945
74.944
205.502
436.654
4.30542
76.6832
206.188
113.058
294.23
269.109
497.685
334.828
423.544
124.313
224.149
293.736
215.196
172.259
132.49
129.093
13.3848
367.827
286.542
287.248
323.287
-50.602
148.611
580.425
587.505
75.6604
455.488
318.684
366.378
124.418
506.902
488.207
29.458
179.748
144.216
132.29
-61.4136
-1.84427
144.318
480.971
676.827
99.2102
386.095
366.667
313.182
188.685
295.768
495.473
283.407
37.9111
150.658
125.923
137.019
336.973
363.197
369.156
383.374
380.621
76.7659
398.084
157.381
351.999
-283.282
324.265
524.994
171.14
-168.851
231.304
192.137
620.853
49.4742
398.45
219.635
-120.324
569.263
-37.9334
196.488
242.627
-53.978
455.631
299.083
188.22
256.726
297.068
196.454
637.158
-31.3347
138.901
-357.697
155.883
173.229
251.915
453.157
867.053
-78.9385
141.371
775.127
-36.0352
376.962
68.98
365.708
-193.102
50.1654
765.631
-138.632
700.558
-92.5291
605.859
-117.601
46.0294
-328.879
-31.6608
726.038
-252.968
213.817
-140.185
539.152
729.865
-238.03
171.62
105.79
38.8098
29.9199
146.443
245.698
244.3
358.548
222.691
548.574
798.285
-244.424
240.818
324.506
245.502
278.529
208.188
171.206
207.156
414.839
213.645
420.687
134.923
285.572
524.94
169.291
348.067
460.652
133.916
285.56
220.358
354.97
197.768
262.492
176.467
446.67
152.402
311.989
-96.1346
560.27
-224.54
307.724
434.267
573.956
56.0838
273.36
223.689
273.581
250.84
212.943
410.312
23.3385
-425.611
168.457
-165.499
469.049
61.1187
237.869
368.784
-389.837
505.456
10.7545
-299.518
40.4709
379.11
361.515
249.01
-247.481
243.87
284.628
96.5089
63.1568
477.719
439.036
118.94
256.48
479.368
-241.025
408.189
57.1056
348.577
-214.747
673.434
653.468
438.785
243.279
170.968
368.981
159.688
-251.563
2.88648
387.998
69.815
327.419
-170.799
461.812
346.632
-525.971
245.472
299.597
-371.196
514.14
-103.03
473.646
564.189
404.314
-289.559
260.566
182.395
248.774
266.453
330.231
-236.376
128.882
76.9691
78.2383
453.662
233.481
301.843
362.303
348.041
178.497
270.057
191.996
309.837
485.483
118.515
166.568
103.999
262.765
431.374
114.991
159.722
137.734
237.361
75.1379
95.2227
157.365
176.484
265.296
148.502
558.452
410.176
-148.09
-142.075
515.304
-587.649
394.55
282.662
73.8519
177.032
525.319
-390.91
469.132
302.367
-268.697
140.881
95.0334
234.634
-417.278
515.273
309.382
-381.458
494.604
497.922
-201.657
576.637
437.809
-194.78
101.922
76.0017
-384.925
244.028
272.747
5.30563
57.2844
33.1599
-508.834
51.5101
-411.554
-542.566
449.234
103.834
727.009
116.982
-239.542
520.37
191.097
-331.943
117.596
104.74
-338.033
-141.3
498.044
-670.022
4.93982
-45.4096
-590.326
468.021
419.572
242.058
154.393
99.7797
7.28037
-456.667
250.313
159.106
170.407
242.884
-298.544
380.35
119.491
212.717
96.1755
203.985
263.732
-9.14398
-275.664
145.486
271.862
114.253
153.387
220.428
56.2153
164.857
-311.18
118.54
299.049
100.132
179.068
63.765
-267.418
522.941
512.673
492.312
575.551
-204.455
-367.336
123.018
392.682
271.591
374.175
414.107
5.82721
-48.4779
-360.248
-239.525
55.0338
216.309
200.154
188.639
-47.7572
453.244
304.911
-189.372
45.0663
-5.08025
408.789
61.5911
-459.63
212.305
231.035
466.568
-320.326
98.7766
264.611
134.282
178.035
364.565
209.883
12.9622
603.592
-547.765
-92.8076
182.425
58.5632
147.388
572.38
313.703
232.711
-80.2708
527.681
128.362
262.94
413.526
466.497
445.92
464.722
552.958
610.923
543.023
543.948
234.409
425.759
117.782
176.85
-56.1884
-122.195
-501.067
583.216
566.479
491.162
165.464
265.25
248.092
66.9846
279.055
421.956
21.3093
191.411
352.315
100.23
123.588
110.789
161.903
54.6228
153.836
132.158
-213.197
262.262
25.2662
189.475
-337.657
580.32
200.922
84.4461
44.8751
-183.816
229.155
91.5074
-380.932
-89.4158
194.866
-132.274
-67.01
622.95
651.204
134.431
136.925
385.966
568.568
-387.421
61.4837
54.1909
149.006
147.011
168.735
207.166
-53.7754
-258.604
512.719
140.849
-105.531
-58.7009
134.591
237.2
-179.222
172.038
65.0691
117.693
573.254
-97.8513
-249.644
146.232
98.3995
53.3928
-251.976
468.021
130.196
119.76
132.391
-377.356
133.375
146.358
-239.567
126.727
-90.7727
306.415
506.389
65.6174
425.883
295.313
75.5076
85.0392
154.859
-251.465
288.77
324.541
107.722
-321.114
-11.5008
182.281
200.722
70.1854
-278.956
80.5078
467.466
295.108
85.7616
615.144
-95.787
409.058
-366.956
-110.267
430.609
-377.439
449.546
80.6679
236.009
118.532
642.356
-36.3679
242.48
574.616
525.058
-153.175
507.485
573.784
-573.562
170.83
96.4027
-351.469
320.631
90.6718
120.544
121.461
211.141
171.13
108.231
85.6541
-367.818
320.628
234.908
220.696
261.81
165.449
74.4126
-7.92591
378.036
-445.192
47.4705
31.4764
-422.526
436.385
599.276
192.865
490.381
525.663
64.0593
68.3309
317.738
487.601
54.2181
349.694
-60.2178
-351.008
386.122
24.4223
466.731
612.666
565.396
-320.466
415.571
242.077
11.0443
105.467
147.943
93.1628
-309.974
482.54
-292.109
473.023
161.525
-60.1907
-111.022
163.972
360.587
544.542
226.272
695.861
393.033
452.536
-390.463
423.083
372.608
467.69
62.3461
17.7568
-449.143
196.932
674.387
492.197
-264.61
-41.676
-298.975
62.0409
208.098
-66.7059
822.005
121.614
-39.8125
-251.253
291.463
23.2894
-409.692
176.247
87.3728
96.3997
105.227
109.203
-246.18
-60.7303
-347.929
89.5919
389.734
308.513
506.97
466.613
48.0467
-6.65014
-371.049
78.571
360.558
534.781
391.89
410.022
-103.556
-428.677
-31.6715
-467.942
383.804
404.425
-6.25988
445.552
377.149
509.055
275.306
236.776
229.022
48.0274
-380.587
-21.0646
-323.812
-78.4316
105.575
69.8899
-211.605
-324.233
345.781
677.321
614.971
565.524
222.132
337.123
326.594
195.919
103.879
196.518
10.2054
160.057
162.53
-321.093
375.108
139.747
-40.1959
-221.442
82.4948
216.006
212.994
70.8983
-218.79
548.058
288.382
93.9245
608.827
20.2496
-344.06
307.407
161.016
164.341
164.553
78.3367
-448.1
160.465
156.858
-287.885
528.741
129.91
-668.6
104.41
204.426
222.844
76.7506
-311.292
37.4108
51.5217
-122.117
177.09
-367.928
189.552
173.495
-145.476
600.029
155.308
-240.023
656.939
198.378
198.082
-225.947
173.593
-294.278
)
;
    }
}


// ************************************************************************* //
