/*--------------------------------*- C++ -*----------------------------------*\
| =========                 |                                                 |
| \\      /  F ield         | OpenFOAM: The Open Source CFD Toolbox           |
|  \\    /   O peration     | Version:  v1912                                 |
|   \\  /    A nd           | Website:  www.openfoam.com                      |
|    \\/     M anipulation  |                                                 |
\*---------------------------------------------------------------------------*/
FoamFile
{
    version     2.0;
    format      ascii;
    class       volScalarField;
    location    "5.5/sphere";
    object      ddt0((betavSolid*thermo:rho),h);
}
// * * * * * * * * * * * * * * * * * * * * * * * * * * * * * * * * * * * * * //

dimensions      [1 -1 -3 0 0 0 0];


internalField   nonuniform List<scalar> 
1992
(
-5.94965e+06
-5.95254e+06
-5.95228e+06
-5.95855e+06
-5.9506e+06
-5.95049e+06
-5.95242e+06
-5.97132e+06
-5.97533e+06
-5.96398e+06
-5.9521e+06
-5.97518e+06
-5.97908e+06
-5.9682e+06
-5.96225e+06
-5.96797e+06
-5.95918e+06
-5.95222e+06
-5.95828e+06
-5.95057e+06
-5.95216e+06
-5.97515e+06
-5.97905e+06
-5.96817e+06
-5.95773e+06
-5.9789e+06
-5.98279e+06
-5.97202e+06
-5.95227e+06
-5.95017e+06
-5.96779e+06
-5.97172e+06
-5.96498e+06
-5.95181e+06
-5.95042e+06
-5.96359e+06
-5.96801e+06
-5.95821e+06
-5.95025e+06
-5.96782e+06
-5.97181e+06
-5.96495e+06
-5.9578e+06
-5.96485e+06
-5.95461e+06
-5.95195e+06
-5.95195e+06
-5.95194e+06
-5.95169e+06
-5.95195e+06
-5.94991e+06
-5.95856e+06
-5.95272e+06
-5.96805e+06
-5.96392e+06
-5.97183e+06
-5.96813e+06
-5.96387e+06
-5.9718e+06
-5.9681e+06
-5.95254e+06
-5.94979e+06
-5.95853e+06
-5.95266e+06
-5.96811e+06
-5.96804e+06
-5.96389e+06
-5.95854e+06
-5.95265e+06
-5.9526e+06
-5.9499e+06
-5.95169e+06
-5.9517e+06
-5.95164e+06
-5.9515e+06
-5.95088e+06
-5.95146e+06
-5.95164e+06
-5.95084e+06
-5.95146e+06
-5.95164e+06
-5.95084e+06
-5.95171e+06
-5.95376e+06
-5.95043e+06
-5.95043e+06
-5.9579e+06
-5.9648e+06
-5.95047e+06
-5.9505e+06
-5.96485e+06
-5.95822e+06
-5.95462e+06
-5.95037e+06
-5.95785e+06
-5.95025e+06
-5.9647e+06
-5.95239e+06
-5.9523e+06
-5.95817e+06
-5.96363e+06
-5.96792e+06
-5.96786e+06
-5.97164e+06
-5.95179e+06
-5.95493e+06
-5.95412e+06
-5.96081e+06
-5.9589e+06
-5.95733e+06
-5.9616e+06
-5.9506e+06
-5.95822e+06
-5.96498e+06
-5.95062e+06
-5.95038e+06
-5.95025e+06
-5.9647e+06
-5.95789e+06
-5.95817e+06
-5.94968e+06
-5.95242e+06
-5.96784e+06
-5.97163e+06
-5.96365e+06
-5.9679e+06
-5.95269e+06
-5.95255e+06
-5.94985e+06
-5.97182e+06
-5.96814e+06
-5.96804e+06
-5.96391e+06
-5.96498e+06
-5.95063e+06
-5.95825e+06
-5.9537e+06
-5.95044e+06
-5.95781e+06
-5.9648e+06
-5.95044e+06
-5.96485e+06
-5.9582e+06
-5.95049e+06
-5.95458e+06
-5.95166e+06
-5.95182e+06
-5.95781e+06
-5.9503e+06
-5.95025e+06
-5.96467e+06
-5.95235e+06
-5.96226e+06
-5.96784e+06
-5.95221e+06
-5.95804e+06
-5.96777e+06
-5.97154e+06
-5.94987e+06
-5.96798e+06
-5.96392e+06
-5.95828e+06
-5.95264e+06
-5.97171e+06
-5.9681e+06
-5.95919e+06
-5.95055e+06
-5.96497e+06
-5.9506e+06
-5.9514e+06
-5.96225e+06
-5.95211e+06
-5.96774e+06
-5.95214e+06
-5.96774e+06
-5.95774e+06
-5.9714e+06
-5.94993e+06
-5.9682e+06
-5.95275e+06
-5.96819e+06
-5.95273e+06
-5.97202e+06
-5.95897e+06
-5.95228e+06
-5.95139e+06
-5.96774e+06
-5.96228e+06
-5.95773e+06
-5.9714e+06
-5.9521e+06
-5.96774e+06
-5.95272e+06
-5.96401e+06
-5.94993e+06
-5.97202e+06
-5.95897e+06
-5.9682e+06
-5.95275e+06
-5.95228e+06
-5.95784e+06
-5.95019e+06
-5.96469e+06
-5.95031e+06
-5.96785e+06
-5.95236e+06
-5.96779e+06
-5.97154e+06
-5.95224e+06
-5.95806e+06
-5.96391e+06
-5.95244e+06
-5.94985e+06
-5.97172e+06
-5.96809e+06
-5.95829e+06
-5.95267e+06
-5.96497e+06
-5.95062e+06
-5.95057e+06
-5.9517e+06
-5.95183e+06
-5.95167e+06
-5.95181e+06
-5.95028e+06
-5.95019e+06
-5.96466e+06
-5.95775e+06
-5.95805e+06
-5.96775e+06
-5.97153e+06
-5.95232e+06
-5.9622e+06
-5.96783e+06
-5.95264e+06
-5.97171e+06
-5.96808e+06
-5.95237e+06
-5.94978e+06
-5.96796e+06
-5.96389e+06
-5.96497e+06
-5.95061e+06
-5.95915e+06
-5.95141e+06
-5.96772e+06
-5.95774e+06
-5.9714e+06
-5.96222e+06
-5.95215e+06
-5.96774e+06
-5.95277e+06
-5.97201e+06
-5.95897e+06
-5.96394e+06
-5.94992e+06
-5.96817e+06
-5.95273e+06
-5.95227e+06
-5.95137e+06
-5.97139e+06
-5.95211e+06
-5.96772e+06
-5.95213e+06
-5.96774e+06
-5.96221e+06
-5.95897e+06
-5.96821e+06
-5.95275e+06
-5.96818e+06
-5.95275e+06
-5.96399e+06
-5.94987e+06
-5.96468e+06
-5.95032e+06
-5.95774e+06
-5.97154e+06
-5.95223e+06
-5.95802e+06
-5.96222e+06
-5.96785e+06
-5.95234e+06
-5.9681e+06
-5.95826e+06
-5.95265e+06
-5.96798e+06
-5.96391e+06
-5.95243e+06
-5.94983e+06
-5.95063e+06
-5.95056e+06
-5.9592e+06
-5.95166e+06
-5.95365e+06
-5.95039e+06
-5.95778e+06
-5.96477e+06
-5.95039e+06
-5.96482e+06
-5.95819e+06
-5.95048e+06
-5.95458e+06
-5.95785e+06
-5.95024e+06
-5.96469e+06
-5.95036e+06
-5.96788e+06
-5.96781e+06
-5.97161e+06
-5.94962e+06
-5.95241e+06
-5.95229e+06
-5.95816e+06
-5.96494e+06
-5.95058e+06
-5.95057e+06
-5.96468e+06
-5.95781e+06
-5.95035e+06
-5.97161e+06
-5.9636e+06
-5.9679e+06
-5.95228e+06
-5.95814e+06
-5.94973e+06
-5.95243e+06
-5.95063e+06
-5.95825e+06
-5.95055e+06
-5.95365e+06
-5.9648e+06
-5.95041e+06
-5.95046e+06
-5.9582e+06
-5.95047e+06
-5.95052e+06
-5.95014e+06
-5.94961e+06
-5.94945e+06
-5.95012e+06
-5.94964e+06
-5.95036e+06
-5.9497e+06
-5.95033e+06
-5.94965e+06
-5.95033e+06
-5.94966e+06
-5.95022e+06
-5.94969e+06
-5.94955e+06
-5.94953e+06
-5.95086e+06
-5.95074e+06
-5.94965e+06
-5.95162e+06
-5.95144e+06
-5.95084e+06
-5.95032e+06
-5.94963e+06
-5.95015e+06
-5.9496e+06
-5.95084e+06
-5.95084e+06
-5.9527e+06
-5.95901e+06
-5.95309e+06
-5.95557e+06
-5.95562e+06
-5.95184e+06
-5.95519e+06
-5.95417e+06
-5.96086e+06
-5.95907e+06
-5.95737e+06
-5.96182e+06
-5.95176e+06
-5.9549e+06
-5.95405e+06
-5.96073e+06
-5.95886e+06
-5.95729e+06
-5.96156e+06
-5.9508e+06
-5.95082e+06
-5.95266e+06
-5.95893e+06
-5.95301e+06
-5.95553e+06
-5.95551e+06
-5.95179e+06
-5.95511e+06
-5.95415e+06
-5.9608e+06
-5.95901e+06
-5.95734e+06
-5.96175e+06
-5.95507e+06
-5.95184e+06
-5.95414e+06
-5.96081e+06
-5.95901e+06
-5.96175e+06
-5.9574e+06
-5.955e+06
-5.95181e+06
-5.95413e+06
-5.96077e+06
-5.95889e+06
-5.96159e+06
-5.95733e+06
-5.95087e+06
-5.95087e+06
-5.95267e+06
-5.95897e+06
-5.95309e+06
-5.95564e+06
-5.9556e+06
-5.94963e+06
-5.94943e+06
-5.95087e+06
-5.95073e+06
-5.94965e+06
-5.95091e+06
-5.95073e+06
-5.94968e+06
-5.94967e+06
-5.95058e+06
-5.95057e+06
-5.95224e+06
-5.95854e+06
-5.95281e+06
-5.95533e+06
-5.95532e+06
-5.95039e+06
-5.95217e+06
-5.94996e+06
-5.95417e+06
-5.96022e+06
-5.9515e+06
-5.95865e+06
-5.95322e+06
-5.96118e+06
-5.95701e+06
-5.94995e+06
-5.95498e+06
-5.95084e+06
-5.95115e+06
-5.95396e+06
-5.9498e+06
-5.95027e+06
-5.95198e+06
-5.9499e+06
-5.95078e+06
-5.95482e+06
-5.9539e+06
-5.95105e+06
-5.95723e+06
-5.94994e+06
-5.95199e+06
-5.94995e+06
-5.95448e+06
-5.9516e+06
-5.95452e+06
-5.96044e+06
-5.95165e+06
-5.95874e+06
-5.9543e+06
-5.95722e+06
-5.95345e+06
-5.96129e+06
-5.94995e+06
-5.95035e+06
-5.95217e+06
-5.95718e+06
-5.95193e+06
-5.94984e+06
-5.94981e+06
-5.95437e+06
-5.95446e+06
-5.95153e+06
-5.95986e+06
-5.95845e+06
-5.95121e+06
-5.95399e+06
-5.95673e+06
-5.96094e+06
-5.9529e+06
-5.95044e+06
-5.94978e+06
-5.94969e+06
-5.94987e+06
-5.95166e+06
-5.95303e+06
-5.95435e+06
-5.95427e+06
-5.962e+06
-5.95106e+06
-5.95719e+06
-5.95712e+06
-5.94969e+06
-5.9599e+06
-5.95413e+06
-5.9585e+06
-5.95132e+06
-5.96104e+06
-5.95302e+06
-5.95675e+06
-5.96236e+06
-5.95753e+06
-5.96426e+06
-5.95647e+06
-5.96346e+06
-5.95557e+06
-5.96317e+06
-5.95082e+06
-5.95492e+06
-5.94988e+06
-5.95112e+06
-5.95394e+06
-5.95986e+06
-5.95847e+06
-5.95402e+06
-5.95128e+06
-5.96098e+06
-5.95671e+06
-5.95294e+06
-5.95049e+06
-5.94985e+06
-5.96167e+06
-5.96378e+06
-5.95602e+06
-5.95602e+06
-5.96274e+06
-5.96273e+06
-5.9545e+06
-5.95184e+06
-5.95181e+06
-5.95103e+06
-5.95052e+06
-5.95457e+06
-5.94955e+06
-5.95085e+06
-5.95354e+06
-5.94948e+06
-5.95149e+06
-5.95091e+06
-5.95037e+06
-5.94974e+06
-5.94993e+06
-5.95172e+06
-5.95077e+06
-5.94988e+06
-5.95474e+06
-5.95384e+06
-5.95101e+06
-5.9497e+06
-5.94993e+06
-5.95171e+06
-5.96183e+06
-5.95376e+06
-5.95707e+06
-5.95295e+06
-5.95387e+06
-5.95708e+06
-5.95039e+06
-5.95057e+06
-5.95455e+06
-5.94968e+06
-5.95363e+06
-5.95088e+06
-5.95275e+06
-5.96167e+06
-5.95337e+06
-5.9535e+06
-5.95674e+06
-5.95689e+06
-5.95013e+06
-5.95059e+06
-5.95134e+06
-5.95136e+06
-5.94992e+06
-5.94952e+06
-5.95074e+06
-5.95087e+06
-5.94965e+06
-5.9496e+06
-5.95033e+06
-5.95028e+06
-5.95025e+06
-5.94986e+06
-5.95021e+06
-5.95201e+06
-5.94983e+06
-5.95475e+06
-5.95072e+06
-5.95103e+06
-5.95378e+06
-5.94976e+06
-5.95001e+06
-5.95174e+06
-5.95067e+06
-5.94976e+06
-5.95472e+06
-5.95102e+06
-5.95365e+06
-5.95274e+06
-5.95354e+06
-5.95339e+06
-5.96169e+06
-5.95019e+06
-5.95689e+06
-5.95672e+06
-5.94985e+06
-5.95482e+06
-5.9539e+06
-5.95077e+06
-5.95104e+06
-5.95041e+06
-5.95216e+06
-5.94993e+06
-5.9508e+06
-5.94994e+06
-5.95479e+06
-5.95106e+06
-5.95389e+06
-5.94995e+06
-5.9504e+06
-5.95213e+06
-5.95377e+06
-5.96181e+06
-5.95706e+06
-5.95295e+06
-5.95387e+06
-5.95039e+06
-5.95706e+06
-5.95057e+06
-5.9513e+06
-5.95133e+06
-5.94994e+06
-5.94978e+06
-5.9502e+06
-5.95197e+06
-5.94975e+06
-5.95063e+06
-5.95473e+06
-5.95375e+06
-5.95092e+06
-5.94973e+06
-5.94991e+06
-5.95167e+06
-5.9527e+06
-5.95349e+06
-5.95335e+06
-5.96164e+06
-5.95011e+06
-5.95683e+06
-5.95667e+06
-5.95059e+06
-5.94961e+06
-5.95463e+06
-5.9509e+06
-5.95359e+06
-5.95432e+06
-5.95158e+06
-5.95876e+06
-5.95327e+06
-5.96135e+06
-5.96028e+06
-5.95708e+06
-5.95152e+06
-5.95416e+06
-5.95318e+06
-5.96025e+06
-5.95867e+06
-5.95707e+06
-5.9612e+06
-5.94992e+06
-5.95497e+06
-5.95395e+06
-5.95084e+06
-5.95115e+06
-5.95377e+06
-5.96185e+06
-5.95703e+06
-5.95297e+06
-5.95385e+06
-5.95036e+06
-5.95711e+06
-5.94997e+06
-5.95043e+06
-5.95222e+06
-5.95084e+06
-5.94999e+06
-5.95494e+06
-5.95115e+06
-5.95399e+06
-5.95061e+06
-5.94973e+06
-5.95472e+06
-5.95092e+06
-5.95373e+06
-5.94975e+06
-5.95022e+06
-5.95195e+06
-5.95058e+06
-5.95459e+06
-5.94961e+06
-5.9509e+06
-5.95356e+06
-5.94975e+06
-5.94984e+06
-5.95163e+06
-5.95268e+06
-5.95352e+06
-5.96166e+06
-5.95337e+06
-5.95682e+06
-5.95008e+06
-5.95668e+06
-5.95627e+06
-5.95645e+06
-5.96422e+06
-5.96202e+06
-5.95482e+06
-5.96304e+06
-5.96318e+06
-5.95852e+06
-5.95059e+06
-5.95059e+06
-5.95282e+06
-5.95226e+06
-5.95526e+06
-5.95532e+06
-5.95438e+06
-5.96027e+06
-5.95159e+06
-5.95878e+06
-5.95326e+06
-5.96135e+06
-5.95707e+06
-5.95516e+06
-5.95184e+06
-5.95908e+06
-5.95414e+06
-5.96181e+06
-5.96084e+06
-5.95744e+06
-5.95497e+06
-5.95174e+06
-5.9541e+06
-5.96077e+06
-5.9589e+06
-5.96158e+06
-5.95734e+06
-5.95085e+06
-5.95081e+06
-5.95266e+06
-5.95898e+06
-5.95308e+06
-5.95563e+06
-5.95559e+06
-5.94999e+06
-5.95042e+06
-5.95219e+06
-5.95087e+06
-5.95494e+06
-5.95002e+06
-5.95116e+06
-5.95399e+06
-5.95299e+06
-5.9538e+06
-5.96188e+06
-5.95394e+06
-5.95712e+06
-5.95041e+06
-5.95713e+06
-5.95e+06
-5.95047e+06
-5.95222e+06
-5.95037e+06
-5.9503e+06
-5.95028e+06
-5.9507e+06
-5.9498e+06
-5.95479e+06
-5.95378e+06
-5.95102e+06
-5.95271e+06
-5.95353e+06
-5.96163e+06
-5.95339e+06
-5.95681e+06
-5.95008e+06
-5.9567e+06
-5.94982e+06
-5.94999e+06
-5.95177e+06
-5.9507e+06
-5.95473e+06
-5.94979e+06
-5.95103e+06
-5.95371e+06
-5.94998e+06
-5.9504e+06
-5.95216e+06
-5.95293e+06
-5.95378e+06
-5.9618e+06
-5.95387e+06
-5.95707e+06
-5.95034e+06
-5.95703e+06
-5.95079e+06
-5.9548e+06
-5.94989e+06
-5.95105e+06
-5.9539e+06
-5.94993e+06
-5.95041e+06
-5.95212e+06
-5.9506e+06
-5.95134e+06
-5.95137e+06
-5.94993e+06
-5.9496e+06
-5.94944e+06
-5.95079e+06
-5.95069e+06
-5.94959e+06
-5.94967e+06
-5.95093e+06
-5.95151e+06
-5.95038e+06
-5.95027e+06
-5.94964e+06
-5.94968e+06
-5.94993e+06
-5.9517e+06
-5.9497e+06
-5.94994e+06
-5.95167e+06
-5.95264e+06
-5.95335e+06
-5.95335e+06
-5.96159e+06
-5.95008e+06
-5.95667e+06
-5.95665e+06
-5.9506e+06
-5.94971e+06
-5.95461e+06
-5.95364e+06
-5.9509e+06
-5.95058e+06
-5.94965e+06
-5.95457e+06
-5.95359e+06
-5.95087e+06
-5.95996e+06
-5.95143e+06
-5.95863e+06
-5.95422e+06
-5.95683e+06
-5.95308e+06
-5.96116e+06
-5.95994e+06
-5.95132e+06
-5.95409e+06
-5.95853e+06
-5.95302e+06
-5.95688e+06
-5.96104e+06
-5.96184e+06
-5.95627e+06
-5.95617e+06
-5.96408e+06
-5.95467e+06
-5.963e+06
-5.96291e+06
-5.9588e+06
-5.95077e+06
-5.95305e+06
-5.95082e+06
-5.95549e+06
-5.95248e+06
-5.95554e+06
-5.96235e+06
-5.95648e+06
-5.95752e+06
-5.96426e+06
-5.95554e+06
-5.96317e+06
-5.96346e+06
-5.96067e+06
-5.95176e+06
-5.95498e+06
-5.95899e+06
-5.9539e+06
-5.95736e+06
-5.96166e+06
-5.95306e+06
-5.95428e+06
-5.95432e+06
-5.96201e+06
-5.95104e+06
-5.95713e+06
-5.95721e+06
-5.95004e+06
-5.95039e+06
-5.95222e+06
-5.95082e+06
-5.94993e+06
-5.95488e+06
-5.95394e+06
-5.9511e+06
-5.95083e+06
-5.94996e+06
-5.95492e+06
-5.95396e+06
-5.95111e+06
-5.94926e+06
-5.94936e+06
-5.95053e+06
-5.95057e+06
-5.94946e+06
-5.95983e+06
-5.95128e+06
-5.95847e+06
-5.95397e+06
-5.95673e+06
-5.95293e+06
-5.96093e+06
-5.95985e+06
-5.95126e+06
-5.95847e+06
-5.954e+06
-5.95678e+06
-5.95293e+06
-5.96097e+06
-5.96169e+06
-5.95599e+06
-5.95605e+06
-5.96379e+06
-5.95454e+06
-5.96273e+06
-5.96277e+06
-5.95907e+06
-5.95312e+06
-5.9509e+06
-5.95092e+06
-5.95568e+06
-5.95566e+06
-5.95275e+06
-5.96094e+06
-5.95191e+06
-5.95909e+06
-5.95527e+06
-5.95746e+06
-5.95426e+06
-5.96189e+06
-5.96092e+06
-5.95187e+06
-5.95908e+06
-5.95523e+06
-5.95743e+06
-5.9542e+06
-5.96188e+06
-5.96287e+06
-5.95801e+06
-5.958e+06
-5.96488e+06
-5.95637e+06
-5.96389e+06
-5.96388e+06
-5.95046e+06
-5.94976e+06
-5.95046e+06
-5.94975e+06
-5.95182e+06
-5.95183e+06
-5.95102e+06
-5.9493e+06
-5.95056e+06
-5.95051e+06
-5.9495e+06
-5.94919e+06
-5.95726e+06
-5.94982e+06
-5.9519e+06
-5.94982e+06
-5.95439e+06
-5.95149e+06
-5.95448e+06
-5.96171e+06
-5.95607e+06
-5.96378e+06
-5.956e+06
-5.96275e+06
-5.95457e+06
-5.96274e+06
-5.95986e+06
-5.95123e+06
-5.95399e+06
-5.95848e+06
-5.9529e+06
-5.95679e+06
-5.96096e+06
-5.96093e+06
-5.95909e+06
-5.95187e+06
-5.9552e+06
-5.95745e+06
-5.96188e+06
-5.95424e+06
-5.95907e+06
-5.95092e+06
-5.95314e+06
-5.95093e+06
-5.95565e+06
-5.95277e+06
-5.95565e+06
-5.96287e+06
-5.958e+06
-5.96488e+06
-5.95801e+06
-5.96388e+06
-5.9564e+06
-5.96389e+06
-5.96092e+06
-5.95187e+06
-5.95524e+06
-5.95909e+06
-5.95423e+06
-5.95743e+06
-5.96189e+06
-5.95184e+06
-5.95184e+06
-5.95107e+06
-5.95047e+06
-5.9498e+06
-5.95266e+06
-5.95334e+06
-5.95344e+06
-5.96162e+06
-5.9501e+06
-5.95666e+06
-5.95671e+06
-5.94974e+06
-5.94998e+06
-5.95174e+06
-5.95059e+06
-5.94963e+06
-5.9546e+06
-5.95364e+06
-5.95087e+06
-5.95062e+06
-5.9497e+06
-5.95463e+06
-5.95363e+06
-5.95091e+06
-5.95729e+06
-5.95199e+06
-5.94994e+06
-5.94992e+06
-5.95452e+06
-5.9545e+06
-5.95163e+06
-5.95999e+06
-5.95866e+06
-5.95146e+06
-5.95429e+06
-5.95689e+06
-5.96119e+06
-5.95312e+06
-5.95995e+06
-5.95137e+06
-5.95855e+06
-5.95411e+06
-5.95684e+06
-5.95306e+06
-5.96106e+06
-5.96185e+06
-5.95637e+06
-5.96407e+06
-5.95623e+06
-5.96302e+06
-5.95479e+06
-5.96291e+06
-5.96043e+06
-5.95874e+06
-5.95165e+06
-5.95438e+06
-5.95716e+06
-5.96131e+06
-5.95347e+06
-5.95877e+06
-5.95303e+06
-5.95074e+06
-5.9508e+06
-5.95545e+06
-5.95552e+06
-5.95247e+06
-5.96236e+06
-5.95652e+06
-5.96426e+06
-5.95755e+06
-5.96318e+06
-5.95554e+06
-5.96346e+06
-5.96065e+06
-5.95176e+06
-5.95899e+06
-5.95506e+06
-5.95728e+06
-5.95394e+06
-5.96166e+06
-5.95003e+06
-5.95041e+06
-5.95222e+06
-5.94994e+06
-5.95038e+06
-5.95213e+06
-5.95083e+06
-5.95001e+06
-5.95492e+06
-5.95395e+06
-5.95112e+06
-5.9508e+06
-5.94989e+06
-5.95492e+06
-5.95392e+06
-5.9511e+06
-5.94966e+06
-5.94952e+06
-5.95089e+06
-5.95077e+06
-5.94972e+06
-5.95096e+06
-5.95151e+06
-5.95037e+06
-5.95028e+06
-5.94965e+06
-5.94946e+06
-5.95072e+06
-5.95081e+06
-5.94964e+06
-5.9495e+06
-5.9515e+06
-5.95092e+06
-5.95037e+06
-5.95026e+06
-5.94961e+06
-5.94955e+06
-5.95057e+06
-5.95459e+06
-5.94965e+06
-5.95089e+06
-5.95359e+06
-5.95053e+06
-5.95456e+06
-5.94952e+06
-5.95086e+06
-5.95355e+06
-5.94973e+06
-5.94999e+06
-5.95168e+06
-5.94968e+06
-5.94996e+06
-5.95167e+06
-5.95262e+06
-5.96155e+06
-5.9533e+06
-5.95334e+06
-5.95665e+06
-5.95663e+06
-5.95001e+06
-5.96183e+06
-5.95623e+06
-5.96408e+06
-5.95631e+06
-5.96291e+06
-5.95473e+06
-5.963e+06
-5.95725e+06
-5.94986e+06
-5.94992e+06
-5.95192e+06
-5.9516e+06
-5.95444e+06
-5.95448e+06
-5.95996e+06
-5.9542e+06
-5.95143e+06
-5.95864e+06
-5.95306e+06
-5.96116e+06
-5.95687e+06
-5.96064e+06
-5.95499e+06
-5.95898e+06
-5.95171e+06
-5.96165e+06
-5.95388e+06
-5.95725e+06
-5.96044e+06
-5.95431e+06
-5.95163e+06
-5.95872e+06
-5.95342e+06
-5.96129e+06
-5.95718e+06
-5.95878e+06
-5.95076e+06
-5.95074e+06
-5.95301e+06
-5.95243e+06
-5.95552e+06
-5.95547e+06
-5.95083e+06
-5.95492e+06
-5.95e+06
-5.95112e+06
-5.95396e+06
-5.94998e+06
-5.95031e+06
-5.95215e+06
-5.95302e+06
-5.96196e+06
-5.95427e+06
-5.95425e+06
-5.95713e+06
-5.95712e+06
-5.95103e+06
-5.94998e+06
-5.95034e+06
-5.95217e+06
-5.94933e+06
-5.95058e+06
-5.95057e+06
-5.94949e+06
-5.94933e+06
-5.96173e+06
-5.95607e+06
-5.96379e+06
-5.95604e+06
-5.96278e+06
-5.95461e+06
-5.96275e+06
-5.95718e+06
-5.94978e+06
-5.95188e+06
-5.94989e+06
-5.95441e+06
-5.95151e+06
-5.95447e+06
-5.95988e+06
-5.95397e+06
-5.95134e+06
-5.95849e+06
-5.95297e+06
-5.96096e+06
-5.95683e+06
-5.96091e+06
-5.95908e+06
-5.95527e+06
-5.9519e+06
-5.96188e+06
-5.95743e+06
-5.95427e+06
-5.96286e+06
-5.95802e+06
-5.96488e+06
-5.958e+06
-5.96388e+06
-5.95642e+06
-5.96388e+06
-5.95904e+06
-5.95091e+06
-5.95306e+06
-5.95089e+06
-5.95565e+06
-5.95276e+06
-5.95563e+06
-5.9609e+06
-5.95523e+06
-5.95184e+06
-5.95907e+06
-5.95423e+06
-5.96187e+06
-5.95741e+06
-5.95184e+06
-5.95182e+06
-5.95105e+06
-5.95045e+06
-5.94979e+06
-5.95051e+06
-5.95052e+06
-5.94945e+06
-5.9492e+06
-5.94934e+06
-5.95982e+06
-5.95393e+06
-5.95847e+06
-5.95127e+06
-5.96095e+06
-5.95289e+06
-5.95672e+06
-5.95984e+06
-5.95398e+06
-5.95847e+06
-5.95127e+06
-5.96095e+06
-5.9529e+06
-5.95685e+06
-5.95713e+06
-5.94979e+06
-5.94987e+06
-5.95188e+06
-5.95145e+06
-5.95438e+06
-5.95445e+06
-5.96288e+06
-5.96488e+06
-5.95802e+06
-5.958e+06
-5.96389e+06
-5.96388e+06
-5.9564e+06
-5.96093e+06
-5.95527e+06
-5.9591e+06
-5.95188e+06
-5.9619e+06
-5.95424e+06
-5.95741e+06
-5.96093e+06
-5.95526e+06
-5.95908e+06
-5.95189e+06
-5.96188e+06
-5.95427e+06
-5.9574e+06
-5.95907e+06
-5.95091e+06
-5.95091e+06
-5.95314e+06
-5.95276e+06
-5.95567e+06
-5.95564e+06
-5.95048e+06
-5.94981e+06
-5.95046e+06
-5.94981e+06
-5.95058e+06
-5.95463e+06
-5.94974e+06
-5.9509e+06
-5.95367e+06
-5.94968e+06
-5.94992e+06
-5.95161e+06
-5.95261e+06
-5.96156e+06
-5.9533e+06
-5.95336e+06
-5.95661e+06
-5.95667e+06
-5.95003e+06
-5.94966e+06
-5.95e+06
-5.95174e+06
-5.95998e+06
-5.95855e+06
-5.95408e+06
-5.95137e+06
-5.96107e+06
-5.95689e+06
-5.95303e+06
-5.96184e+06
-5.96405e+06
-5.95621e+06
-5.95628e+06
-5.96292e+06
-5.96298e+06
-5.95469e+06
-5.95731e+06
-5.94995e+06
-5.95199e+06
-5.94991e+06
-5.95455e+06
-5.95165e+06
-5.95448e+06
-5.95997e+06
-5.95421e+06
-5.95864e+06
-5.9514e+06
-5.96115e+06
-5.95305e+06
-5.95683e+06
-5.96233e+06
-5.96424e+06
-5.95752e+06
-5.95644e+06
-5.96345e+06
-5.96314e+06
-5.95549e+06
-5.96065e+06
-5.95898e+06
-5.95503e+06
-5.95177e+06
-5.96165e+06
-5.95733e+06
-5.95393e+06
-5.96042e+06
-5.95431e+06
-5.95872e+06
-5.95165e+06
-5.96127e+06
-5.9534e+06
-5.95715e+06
-5.95879e+06
-5.95081e+06
-5.95302e+06
-5.95076e+06
-5.95553e+06
-5.95249e+06
-5.95547e+06
-5.95084e+06
-5.95492e+06
-5.94999e+06
-5.95113e+06
-5.95393e+06
-5.95082e+06
-5.95489e+06
-5.94994e+06
-5.95111e+06
-5.95392e+06
-5.95304e+06
-5.96201e+06
-5.95432e+06
-5.95426e+06
-5.95721e+06
-5.95712e+06
-5.95106e+06
-5.95001e+06
-5.9504e+06
-5.95222e+06
-5.94995e+06
-5.95031e+06
-5.95214e+06
-5.95073e+06
-5.95082e+06
-5.94963e+06
-5.94959e+06
-5.95026e+06
-5.94963e+06
-5.94961e+06
-5.95018e+06
-5.95023e+06
-5.95035e+06
-5.95065e+06
-5.94976e+06
-5.95471e+06
-5.95368e+06
-5.95099e+06
-5.95268e+06
-5.95334e+06
-5.96162e+06
-5.95349e+06
-5.95666e+06
-5.95007e+06
-5.95684e+06
-5.94981e+06
-5.95022e+06
-5.95196e+06
-5.95477e+06
-5.94971e+06
-5.95066e+06
-5.95098e+06
-5.95376e+06
-5.95001e+06
-5.95038e+06
-5.95215e+06
-5.96178e+06
-5.95374e+06
-5.95698e+06
-5.95291e+06
-5.95384e+06
-5.95708e+06
-5.95035e+06
-5.94989e+06
-5.9548e+06
-5.95387e+06
-5.95075e+06
-5.95102e+06
-5.95035e+06
-5.95211e+06
-5.9499e+06
-5.95056e+06
-5.95128e+06
-5.95133e+06
-5.94989e+06
-5.95268e+06
-5.95338e+06
-5.96163e+06
-5.95352e+06
-5.95668e+06
-5.95013e+06
-5.95679e+06
-5.95057e+06
-5.94965e+06
-5.95458e+06
-5.95361e+06
-5.95088e+06
-5.94975e+06
-5.95016e+06
-5.95192e+06
-5.94975e+06
-5.95061e+06
-5.95467e+06
-5.95372e+06
-5.95092e+06
-5.95058e+06
-5.95055e+06
-5.9522e+06
-5.95847e+06
-5.9528e+06
-5.95524e+06
-5.95525e+06
-5.95435e+06
-5.95875e+06
-5.95153e+06
-5.96133e+06
-5.95321e+06
-5.96023e+06
-5.95702e+06
-5.95148e+06
-5.95417e+06
-5.95316e+06
-5.96017e+06
-5.95861e+06
-5.95699e+06
-5.96114e+06
-5.94993e+06
-5.95038e+06
-5.95218e+06
-5.95079e+06
-5.94994e+06
-5.95491e+06
-5.95396e+06
-5.95112e+06
-5.95036e+06
-5.95213e+06
-5.94995e+06
-5.94991e+06
-5.95488e+06
-5.9539e+06
-5.9508e+06
-5.95111e+06
-5.94967e+06
-5.94995e+06
-5.95167e+06
-5.95265e+06
-5.96161e+06
-5.95334e+06
-5.95346e+06
-5.95664e+06
-5.9568e+06
-5.95006e+06
-5.94976e+06
-5.95062e+06
-5.95465e+06
-5.95092e+06
-5.9537e+06
-5.94974e+06
-5.95016e+06
-5.95194e+06
-5.95414e+06
-5.95149e+06
-5.9532e+06
-5.96016e+06
-5.95858e+06
-5.96111e+06
-5.95697e+06
-5.95058e+06
-5.95061e+06
-5.95224e+06
-5.95849e+06
-5.95283e+06
-5.95527e+06
-5.95529e+06
-5.95436e+06
-5.95875e+06
-5.95154e+06
-5.96132e+06
-5.95322e+06
-5.96023e+06
-5.95705e+06
-5.95084e+06
-5.95496e+06
-5.95002e+06
-5.95398e+06
-5.95113e+06
-5.96185e+06
-5.95374e+06
-5.95703e+06
-5.95298e+06
-5.95388e+06
-5.95712e+06
-5.95044e+06
-5.94999e+06
-5.95045e+06
-5.95221e+06
-5.94995e+06
-5.95486e+06
-5.95392e+06
-5.95082e+06
-5.9511e+06
-5.95039e+06
-5.95217e+06
-5.94997e+06
-5.95019e+06
-5.95017e+06
-5.95033e+06
-5.94979e+06
-5.94999e+06
-5.95176e+06
-5.95069e+06
-5.95472e+06
-5.94972e+06
-5.95366e+06
-5.95104e+06
-5.94983e+06
-5.95023e+06
-5.95201e+06
-5.95476e+06
-5.94983e+06
-5.95073e+06
-5.95379e+06
-5.95105e+06
-5.96179e+06
-5.95377e+06
-5.95705e+06
-5.95295e+06
-5.95388e+06
-5.95706e+06
-5.95039e+06
-5.95081e+06
-5.95477e+06
-5.94992e+06
-5.95386e+06
-5.95108e+06
-5.94997e+06
-5.9504e+06
-5.95215e+06
-5.94992e+06
-5.95481e+06
-5.95388e+06
-5.9508e+06
-5.95108e+06
-5.95044e+06
-5.95217e+06
-5.95e+06
-5.95779e+06
-5.95755e+06
-5.96448e+06
-5.95618e+06
-5.96368e+06
-5.96267e+06
-5.96349e+06
-5.97524e+06
-5.97519e+06
-5.97899e+06
-5.97515e+06
-5.97896e+06
-5.97891e+06
-5.98271e+06
-5.97153e+06
-5.97908e+06
-5.97542e+06
-5.97905e+06
-5.97541e+06
-5.98278e+06
-5.97916e+06
-5.97899e+06
-5.97132e+06
-5.97524e+06
-5.97891e+06
-5.98271e+06
-5.97516e+06
-5.97897e+06
-5.97542e+06
-5.97533e+06
-5.97154e+06
-5.98278e+06
-5.97916e+06
-5.97906e+06
-5.97542e+06
-5.96345e+06
-5.96526e+06
-5.95712e+06
-5.96524e+06
-5.96069e+06
-5.96788e+06
-5.96068e+06
-5.97896e+06
-5.9789e+06
-5.98271e+06
-5.9713e+06
-5.97522e+06
-5.97517e+06
-5.97898e+06
-5.9754e+06
-5.98278e+06
-5.97915e+06
-5.97531e+06
-5.97151e+06
-5.97907e+06
-5.9754e+06
-5.98271e+06
-5.97516e+06
-5.97897e+06
-5.97517e+06
-5.97899e+06
-5.97131e+06
-5.97524e+06
-5.97916e+06
-5.97906e+06
-5.97542e+06
-5.97907e+06
-5.97541e+06
-5.97533e+06
-5.97154e+06
-5.95486e+06
-5.9606e+06
-5.96057e+06
-5.96403e+06
-5.95541e+06
-5.95971e+06
-5.95967e+06
-5.96396e+06
-5.96055e+06
-5.95962e+06
-5.95482e+06
-5.96058e+06
-5.95965e+06
-5.95542e+06
-5.96389e+06
-5.96049e+06
-5.95959e+06
-5.9548e+06
-5.96047e+06
-5.95958e+06
-5.95539e+06
-5.95756e+06
-5.95782e+06
-5.95624e+06
-5.96272e+06
-5.9645e+06
-5.96352e+06
-5.9637e+06
-5.95754e+06
-5.95778e+06
-5.95619e+06
-5.96265e+06
-5.96446e+06
-5.96348e+06
-5.96365e+06
-5.95778e+06
-5.95758e+06
-5.95623e+06
-5.96267e+06
-5.96447e+06
-5.96365e+06
-5.96349e+06
-5.96044e+06
-5.95469e+06
-5.96041e+06
-5.96377e+06
-5.95532e+06
-5.95948e+06
-5.9594e+06
-5.96048e+06
-5.9639e+06
-5.95959e+06
-5.95478e+06
-5.96046e+06
-5.95533e+06
-5.95958e+06
-5.95461e+06
-5.96036e+06
-5.96372e+06
-5.96031e+06
-5.95943e+06
-5.9552e+06
-5.95934e+06
-5.95646e+06
-5.9563e+06
-5.96423e+06
-5.95487e+06
-5.9632e+06
-5.96206e+06
-5.96306e+06
-5.9606e+06
-5.96398e+06
-5.95964e+06
-5.95484e+06
-5.96061e+06
-5.95546e+06
-5.95967e+06
-5.95459e+06
-5.96035e+06
-5.9603e+06
-5.96372e+06
-5.95519e+06
-5.95941e+06
-5.95933e+06
-5.96062e+06
-5.95488e+06
-5.96061e+06
-5.964e+06
-5.95546e+06
-5.95968e+06
-5.95969e+06
-5.95468e+06
-5.96045e+06
-5.96376e+06
-5.96042e+06
-5.95946e+06
-5.95532e+06
-5.95941e+06
-5.95481e+06
-5.9605e+06
-5.96389e+06
-5.96046e+06
-5.95961e+06
-5.95536e+06
-5.95957e+06
-5.95456e+06
-5.96367e+06
-5.9603e+06
-5.96028e+06
-5.95934e+06
-5.95931e+06
-5.95517e+06
-5.96342e+06
-5.95715e+06
-5.96527e+06
-5.96523e+06
-5.96068e+06
-5.96067e+06
-5.96787e+06
-5.95486e+06
-5.96403e+06
-5.96057e+06
-5.96059e+06
-5.95968e+06
-5.9597e+06
-5.95543e+06
-5.96338e+06
-5.95713e+06
-5.96524e+06
-5.96521e+06
-5.96064e+06
-5.96064e+06
-5.96783e+06
-5.96342e+06
-5.96526e+06
-5.95712e+06
-5.96524e+06
-5.96066e+06
-5.96786e+06
-5.96067e+06
-5.95461e+06
-5.9637e+06
-5.96031e+06
-5.96033e+06
-5.95935e+06
-5.95937e+06
-5.95522e+06
-5.95483e+06
-5.96402e+06
-5.96059e+06
-5.96057e+06
-5.95969e+06
-5.95965e+06
-5.9554e+06
-5.95453e+06
-5.96028e+06
-5.96026e+06
-5.96364e+06
-5.95514e+06
-5.9593e+06
-5.95928e+06
-5.96341e+06
-5.9652e+06
-5.95707e+06
-5.96523e+06
-5.96063e+06
-5.96785e+06
-5.96065e+06
-5.95486e+06
-5.96058e+06
-5.96059e+06
-5.96401e+06
-5.95544e+06
-5.95967e+06
-5.95967e+06
-5.96337e+06
-5.96519e+06
-5.95706e+06
-5.96522e+06
-5.96061e+06
-5.96782e+06
-5.96064e+06
-5.96336e+06
-5.96519e+06
-5.96521e+06
-5.9571e+06
-5.96782e+06
-5.96061e+06
-5.96063e+06
-5.95453e+06
-5.96028e+06
-5.96031e+06
-5.96366e+06
-5.95518e+06
-5.95929e+06
-5.95933e+06
-5.96346e+06
-5.96522e+06
-5.96527e+06
-5.95712e+06
-5.96788e+06
-5.96068e+06
-5.96069e+06
-5.9604e+06
-5.95464e+06
-5.9604e+06
-5.96373e+06
-5.95938e+06
-5.95528e+06
-5.95944e+06
-5.96386e+06
-5.96044e+06
-5.95954e+06
-5.95476e+06
-5.96044e+06
-5.95957e+06
-5.95531e+06
-5.95459e+06
-5.9637e+06
-5.96029e+06
-5.96032e+06
-5.95933e+06
-5.9594e+06
-5.95518e+06
-5.95648e+06
-5.9642e+06
-5.9563e+06
-5.96317e+06
-5.95484e+06
-5.962e+06
-5.96301e+06
-5.96395e+06
-5.96056e+06
-5.95963e+06
-5.95487e+06
-5.96059e+06
-5.95966e+06
-5.95546e+06
-5.95458e+06
-5.96028e+06
-5.96369e+06
-5.96032e+06
-5.95932e+06
-5.95518e+06
-5.95939e+06
-5.95647e+06
-5.96419e+06
-5.95623e+06
-5.96315e+06
-5.95478e+06
-5.96197e+06
-5.96299e+06
-5.96045e+06
-5.95469e+06
-5.96378e+06
-5.96043e+06
-5.95942e+06
-5.95948e+06
-5.95535e+06
)
;

boundaryField
{
    sphere_to_oil
    {
        type            calculated;
        value           nonuniform List<scalar> 
1536
(
-5.94879e+06
-5.94854e+06
-5.94843e+06
-5.94836e+06
-5.94831e+06
-5.94872e+06
-5.94845e+06
-5.94871e+06
-5.94852e+06
-5.94844e+06
-5.94812e+06
-5.94827e+06
-5.9487e+06
-5.94851e+06
-5.94812e+06
-5.94864e+06
-5.94824e+06
-5.94797e+06
-5.94847e+06
-5.94869e+06
-5.94855e+06
-5.94852e+06
-5.94839e+06
-5.94844e+06
-5.94843e+06
-5.94843e+06
-5.94839e+06
-5.94841e+06
-5.94848e+06
-5.94884e+06
-5.94866e+06
-5.94841e+06
-5.94833e+06
-5.94886e+06
-5.94863e+06
-5.94862e+06
-5.94846e+06
-5.94849e+06
-5.94838e+06
-5.94895e+06
-5.94877e+06
-5.94872e+06
-5.94837e+06
-5.94839e+06
-5.94852e+06
-5.94844e+06
-5.94851e+06
-5.94844e+06
-5.94849e+06
-5.9485e+06
-5.94843e+06
-5.94851e+06
-5.94851e+06
-5.94839e+06
-5.94873e+06
-5.94862e+06
-5.94866e+06
-5.94848e+06
-5.94864e+06
-5.94843e+06
-5.94873e+06
-5.94857e+06
-5.94843e+06
-5.94809e+06
-5.94841e+06
-5.94807e+06
-5.94837e+06
-5.9483e+06
-5.94852e+06
-5.94872e+06
-5.94847e+06
-5.94883e+06
-5.94867e+06
-5.94848e+06
-5.94814e+06
-5.94848e+06
-5.94831e+06
-5.94855e+06
-5.94878e+06
-5.94848e+06
-5.94833e+06
-5.94841e+06
-5.94829e+06
-5.94891e+06
-5.94867e+06
-5.94869e+06
-5.94882e+06
-5.94869e+06
-5.94862e+06
-5.94839e+06
-5.94868e+06
-5.94852e+06
-5.94869e+06
-5.94847e+06
-5.94838e+06
-5.94845e+06
-5.94858e+06
-5.94841e+06
-5.94841e+06
-5.94827e+06
-5.9484e+06
-5.94823e+06
-5.9488e+06
-5.94874e+06
-5.94902e+06
-5.94845e+06
-5.94871e+06
-5.94859e+06
-5.94875e+06
-5.94856e+06
-5.94819e+06
-5.9481e+06
-5.94817e+06
-5.949e+06
-5.94874e+06
-5.94866e+06
-5.94847e+06
-5.94853e+06
-5.94864e+06
-5.94817e+06
-5.94805e+06
-5.94852e+06
-5.94889e+06
-5.94907e+06
-5.94882e+06
-5.94855e+06
-5.94865e+06
-5.94827e+06
-5.94794e+06
-5.94853e+06
-5.94831e+06
-5.94841e+06
-5.94829e+06
-5.94845e+06
-5.94872e+06
-5.94866e+06
-5.94897e+06
-5.9484e+06
-5.94883e+06
-5.94869e+06
-5.94867e+06
-5.94838e+06
-5.94843e+06
-5.94846e+06
-5.94837e+06
-5.94844e+06
-5.94856e+06
-5.94838e+06
-5.94824e+06
-5.94806e+06
-5.94829e+06
-5.94843e+06
-5.94837e+06
-5.94889e+06
-5.94862e+06
-5.94876e+06
-5.94879e+06
-5.94861e+06
-5.94819e+06
-5.94817e+06
-5.94852e+06
-5.94875e+06
-5.949e+06
-5.94878e+06
-5.94847e+06
-5.94864e+06
-5.94816e+06
-5.94806e+06
-5.94818e+06
-5.94853e+06
-5.94848e+06
-5.94896e+06
-5.94876e+06
-5.94878e+06
-5.94858e+06
-5.94834e+06
-5.94829e+06
-5.94837e+06
-5.94841e+06
-5.94842e+06
-5.94867e+06
-5.94895e+06
-5.94869e+06
-5.94884e+06
-5.9487e+06
-5.94871e+06
-5.94852e+06
-5.94845e+06
-5.94856e+06
-5.9483e+06
-5.94846e+06
-5.94815e+06
-5.94866e+06
-5.94848e+06
-5.94845e+06
-5.94821e+06
-5.94859e+06
-5.94842e+06
-5.94877e+06
-5.9485e+06
-5.94845e+06
-5.94828e+06
-5.94828e+06
-5.94872e+06
-5.94853e+06
-5.94879e+06
-5.94862e+06
-5.9486e+06
-5.94841e+06
-5.94824e+06
-5.9488e+06
-5.94836e+06
-5.94849e+06
-5.94838e+06
-5.94877e+06
-5.94857e+06
-5.94876e+06
-5.94863e+06
-5.94868e+06
-5.94854e+06
-5.94872e+06
-5.94859e+06
-5.9488e+06
-5.94868e+06
-5.94875e+06
-5.9486e+06
-5.94828e+06
-5.94862e+06
-5.94869e+06
-5.94835e+06
-5.94785e+06
-5.94798e+06
-5.9478e+06
-5.9486e+06
-5.94811e+06
-5.94852e+06
-5.94874e+06
-5.94831e+06
-5.94789e+06
-5.94839e+06
-5.94873e+06
-5.94794e+06
-5.94878e+06
-5.94829e+06
-5.94832e+06
-5.9487e+06
-5.94808e+06
-5.94873e+06
-5.94808e+06
-5.94858e+06
-5.94877e+06
-5.9488e+06
-5.94835e+06