/*--------------------------------*- C++ -*----------------------------------*\
| =========                 |                                                 |
| \\      /  F ield         | OpenFOAM: The Open Source CFD Toolbox           |
|  \\    /   O peration     | Version:  v1906                                 |
|   \\  /    A nd           | Web:      www.OpenFOAM.com                      |
|    \\/     M anipulation  |                                                 |
\*---------------------------------------------------------------------------*/
FoamFile
{
    version     2.0;
    format      ascii;
    class       volScalarField;
    location    "18/sphere";
    object      T;
}
// * * * * * * * * * * * * * * * * * * * * * * * * * * * * * * * * * * * * * //

dimensions      [0 0 0 1 0 0 0];


internalField   nonuniform List<scalar> 
304
(
489.002
489.035
489.033
489.051
489.004
489.003
489.002
489.036
489
489.169
489.169
489.049
489.033
489.168
489.168
489.084
489.049
489.084
489.003
489.034
489.052
489.002
489.036
489.169
489.169
489.084
489.052
489.169
489.169
489.114
489.001
489.084
489.114
489.042
489.003
489.051
489.084
489.005
489.008
489.085
489.114
489.04
489.004
489.042
488.989
488.988
489.004
489.005
489.004
489.043
489.004
489.004
489.043
489.005
488.988
489.004
489.005
489.004
489.043
489.035
489.035
489.052
489.05
489.085
489.085
489.114
489.001
489.052
489.035
489.085
489.05
489.114
489.085
489.003
489.005
489.042
489.004
489.002
489.002
489.04
489.002
489.051
488.997
489.033
489.083
489.113
489.047
489.083
489.035
489.034
489
489.114
489.084
489.084
489.049
489.042
489.003
489.003
488.987
489.002
489.002
489.041
489.002
489.041
489.003
489.002
488.986
489.004
489.002
489.003
489.042
489.036
489.05
489.086
489.034
489.052
489.085
489.115
489.003
489.086
489.05
489.052
489.035
489.115
489.085
489.004
489.003
489.042
489.004
489.05
489.034
489.085
489.035
489.085
489.052
489.114
488.999
489.084
489.035
489.084
489.035
489.114
489.052
489.084
488.999
489.048
489.052
489.114
489.033
489.084
489.034
489.049
489
489.114
489.051
489.084
489.034
489.004
489.002
489.042
489.002
489.084
489.001
489.035
489.084
489.114
489.034
489.052
489.049
489.035
489
489.114
489.084
489.052
489.034
489.041
489.001
489.001
489.002
489.004
489.042
489.007
489.052
489.085
489.115
489.001
489.034
489.051
489.085
489.034
489.114
489.084
489.035
488.999
489.084
489.047
489.041
489.002
489.002
489.086
489.052
489.115
489.004
489.053
489.037
489.086
489.035
489.114
489.052
489.049
489.002
489.084
489.035
489.114
489.034
489.084
489.037
489.086
489.001
489.05
489.052
489.084
489.034
489.084
489.034
489.049
489
489.041
489.002
489.005
489.114
489.034
489.052
489.049
489.084
489.001
489.035
489.085
489.052
489.035
489.085
489.051
489.036
489.004
489.003
489.003
489.005
488.992
489.002
489.005
489.041
489.002
489.041
489.002
489.002
488.986
489.008
489.005
489.044
489.005
489.085
489.086
489.114
489.004
489.035
489.036
489.052
489.049
489.114
489.084
489.034
488.999
489.052
489.034
489.042
489.004
489.002
489.044
489.006
489.003
489.114
489.049
489.084
489.034
489.051
488.999
489.034
489.084
489.084
489.049
489.051
489.033
489.034
489
489.002
489.003
489
488.99
489.041
489.003
489.002
489.005
489.004
489.002
)
;

boundaryField
{
    sphere_to_oil
    {
        type            compressible::turbulentTemperatureCoupledBaffleMixed;
        refValue        nonuniform List<scalar> 
360
(
332.432
332.432
309.886
354.741
361.054
312.02
362.256
362.256
362.256
332.087
332.087
312.17
313.489
308.813
329.513
359.707
354.446
354.446
354.446
309.313
351.483
329.388
325.139
358.703
309.496
360.041
311.82
359.5
359.5
359.5
363.12
357.403
309.898
309.775
312.033
312.162
354.479
354.479
354.479
353.853
360.827
310.271
312.221
332.332
332.332
311.746
313.44
307.974
330.589
360.435
312.192
312.042
313.247
313.459
309.078
329.414
355.505
309.257
312.174
312.921
308.25
360.456
360.456
360.456
307.968
359.262
330.306
319.9
361.833
361.833
361.833
361.137
359.872
308.598
352.166
328.743
308.886
323.65
360.522
355.176
326.012
318.233
325.203
308.194
309.886
311.949
312.341
313.386
308.719
309.411
309.913
313.379
312.209
309.961
313.274
312.137
312.298
312.152
310.272
308.583
308.661
308.594
312.023
312.231
313.394
308.528
308.971
313.505
310.303
312.284
312.352
312.205
310.298
309.178
308.32
308.273
320.913
319.603
321.643
332.527
332.527
354.741
354.741
358.703
358.703
356.244
356.244
356.244
358.46
358.46
358.46
321.292
319.492
320.873
308.975
361.054
361.054
330.493
330.493
363.12
363.12
328.224
328.224
362.514
362.514
362.514
308.951
309.125
360.17
360.17
360.17
361.068
361.068
361.068
359.707
351.483
329.513
359.707
357.692
308.825
357.692
357.692
325.213
325.47
318.902
328.839
328.839
362.553
362.553
362.553
307.922
351.483
329.388
361.794
361.794
307.994
361.794
325.908
318.733
308.072
311.763
311.929
313.628
309.421
313.431
311.936
308.028
308.653
360.041
360.041
357.403
357.403
332.277
332.277
355.014
355.014
355.014
331.008
331.008
308.557
311.919
312.143
313.514
312.088
311.975
313.523
310.22
313.487
312.181
310.199
353.853
313.531
312.343
309.299
361.142
361.142
361.142
330.177
330.177
307.898
312.329
312.336
312.896
360.827
310.073
312.829
312.276
353.853
360.827
330.153
309.161
330.153
308.231
308.317
313.392
309.481
311.897
311.846
311.989
309.383
308.345
360.816
352.989
360.816
360.816
352.989
352.989
360.435
359.262
330.589
356.69
308.633
360.435
356.69
356.69
313.103
309.834
312.298
313.353
310
361.137
311.985
312.212
312.367
310.248
355.505
352.166
312.218
312.23
310.255
353.933
358.194
329.414
361.099
308.309
355.505
361.099
361.099
313.117
310.13
360.522
312.28
312.126
312.176
360.701
310.117
360.105
330.471
353.933
330.471
360.701
353.933
360.701
307.974
319.265
319.901
320.297
331.413
355.168
331.413
355.168
355.168
308.485
359.262
356.58
330.306
356.58
308.595
356.58
321.137
320.957
308.416
359.129
328.77
359.129
359.129
328.77
308.618
311.941
312.122
313.459
359.872
361.137
329.049
308.811
359.872
329.049
308.598
352.166
359.307
328.743
359.307
308.469
359.307
313.528
355.176
310.343
312.244
357.9
354.399
358.194
329.647
358.194
357.9
329.647
357.9
318.089
325.259
360.522
330.045
308.041
355.176
330.045
309.417
360.105
354.399
360.105
330.818
354.399
330.818
)
;
        refGradient     uniform 0;
        valueFraction   nonuniform List<scalar> 
360
(
0.00013026
0.000124966
8.00048e-05
0.000285815
0.000293129
0.000168081
0.000294951
0.000253175
0.000394083
0.00012547
0.000122331
0.00016411
0.000250111
7.15117e-05
0.000127924
0.000248674
0.000284975
0.000266267
0.000373635
6.54368e-05
0.000245322
0.000120601
0.000111153
0.000294967
8.56386e-05
0.000303192
0.000170901
0.000299276
0.000391664
0.000261993
0.000299327
0.000301905
8.10664e-05
8.01608e-05
0.00016822
0.000165545
0.000280125
0.000379767
0.000260778
0.000392106
0.000387318
8.27017e-05
0.000164039
0.000119723
0.00011958
0.000168866
0.000252642
6.74034e-05
0.000120607
0.000255745
0.000166584
0.000167666
0.000249924
0.000247496
6.99228e-05
0.000127915
0.000260856
6.69842e-05
0.000165942
0.000247457
6.55656e-05
0.000291323
0.000257167
0.000402499
6.7596e-05
0.000262943
0.00012265
0.000118629
0.000298054
0.000388827
0.000261549
0.000374953
0.000380202
7.26116e-05
0.0002535
0.0001286
6.6946e-05
0.000120045
0.000379393
0.000394122
0.000117741
0.00011552
0.000113465
6.74332e-05
8.13181e-05
0.000164862
0.000165785
0.000251065
7.57864e-05
6.39901e-05
8.04787e-05
0.000250656
0.000165472
8.22097e-05
0.000250242
0.000167361
0.00016637
0.000166626
8.12547e-05
6.51302e-05
6.60438e-05
6.51649e-05
0.000167526
0.000164655
0.000250467
7.37407e-05
6.40512e-05
0.000250285
7.95105e-05
0.000164914
0.000164946
0.00016831
8.23018e-05
6.59032e-05
6.42728e-05
6.55146e-05
0.000114039
0.000114176
0.000118612
0.000128616
0.000120881
0.000249773
0.000393478
0.000263153
0.000397097
0.000254536
0.000391335
0.000291371
0.000254741
0.000382817
0.000286952
0.000117043
0.000110686
0.000113371
6.25842e-05
0.00025956
0.000390805
0.000120911
0.000121463
0.000394943
0.000262586
0.00012675
0.000133588
0.000390082
0.000267967
0.000308779
6.88778e-05
6.40979e-05
0.000270548
0.000374913
0.000297174
0.000278564
0.000387893
0.000297143
0.000306792
0.000282593
0.000132188
0.000394016
0.00025451
7.0957e-05
0.000382957
0.000286577
0.000109363
0.000115219
0.000113985
0.000120248
0.000125697
0.000392045
0.000258137
0.000303001
7.26492e-05
0.000377132
0.000129314
0.000396563
0.000253863
7.09625e-05
0.000301008
0.000110334
0.000111358
6.5062e-05
0.000170536
0.000170468
0.000252066
8.4056e-05
0.000252446
0.000166105
6.43939e-05
6.25287e-05
0.000394485
0.000250649
0.000389855
0.000259917
0.000123979
0.000115943
0.000391674
0.000244788
0.000282954
0.000114605
0.000132978
6.68998e-05
0.000167538
0.000167386
0.00025009
0.000163751
0.000164594
0.000249105
8.53808e-05
0.000249959
0.00016948
8.30305e-05
0.000281347
0.000249682
0.000168465
6.7138e-05
0.000383112
0.000248363
0.000290587
0.000121061
0.000112502
6.4984e-05
0.000166235
0.000169031
0.000250622
0.000284947
7.96931e-05
0.000248244
0.000162128
0.000246603
0.000261066
0.000118505
6.65624e-05
0.0001315
6.73853e-05
6.34306e-05
0.00025342
8.45714e-05
0.000170369
0.000168399
0.000166392
8.35083e-05
6.37886e-05
0.000259112
0.000242794
0.000407602
0.000303396
0.00038027
0.000273221
0.000292844
0.000299832
0.000133273
0.000257217
6.92992e-05
0.000391425
0.000380603
0.000289176
0.000252215
8.0365e-05
0.00016411
0.000249316
8.10849e-05
0.000297082
0.000164821
0.000165999
0.00016447
8.05933e-05
0.000294864
0.000276313
0.0001678
0.000163462
8.21452e-05
0.000276857
0.000304746
0.000120856
0.000273563
6.49695e-05
0.000389747
0.00037786
0.000285514
0.000247465
8.12939e-05
0.000285963
0.000164658
0.000164912
0.000165851
0.00028752
8.20556e-05
0.000293761
0.000123606
0.000253276
0.000124638
0.000258095
0.000393323
0.00038613
6.49391e-05
0.000130133
0.000128596
0.000125779
0.000114543
0.000383229
0.000125104
0.000254772
0.000300009
6.39927e-05
0.00038697
0.000386503
0.000126524
0.00027481
6.70619e-05
0.000294619
0.000112172
0.000110197
6.70066e-05
0.000379019
0.000113271
0.000248562
0.000292743
0.000121438
6.62002e-05
0.000164723
0.000164666
0.000248478
0.000284325
0.000246611
0.000119231
6.41795e-05
0.000250742
0.000132425
7.41228e-05
0.000363362
0.000390178
0.000115314
0.000247851
6.87156e-05
0.000311711
0.000250382
0.000299992
8.20649e-05
0.000165431
0.00028923
0.000280403
0.000263798
0.00011791
0.000386424
0.000385593
0.000139968
0.000257746
0.000113401
0.000115141
0.000259479
0.000128446
6.94473e-05
0.00026243
0.000123683
6.41338e-05
0.000381952
0.000386538
0.000254326
0.000123424
0.00024982
0.000127494
)
;
        value           nonuniform List<scalar> 
360
(
489.005
489.007
489.009
488.985
488.986
489.027
488.985
488.993
488.977
489.004
489.004
489.026
489.029
489.013
489.006
488.994
488.981
488.988
488.974
489.013
488.991
489.006
488.99
488.985
489.008
488.984
489.027
488.986
488.975
488.991
488.984
488.982
489.007
489.007
489.025
489.027
488.983
488.975
488.989
488.972
488.976
489.008
489.027
489.005
489.007
489.026
489.029
489.012
489.005
488.991
489.028
489.027
489.03
489.03
489.01
489.003
488.988
489.012
489.027
489.031
489.013
488.985
488.991
488.975
489.013
488.991
489.006
488.988
488.988
488.98
488.994
488.979
488.978
489.016
488.995
489.009
489.011
488.992
488.977
488.973
488.992
488.991
488.992
489.013
489.011
489.026
489.027
489.029
489.009
489.012
489.008
489.03
489.028
489.006
489.029
489.026
489.026
489.026
489.007
489.014
489.014
489.014
489.027
489.028
489.029
489.012
489.012
489.029
489.005
489.025
489.028
489.026
489.007
489.012
489.015
489.014
488.991
488.991
488.99
489.006
489.008
488.992
488.973
488.992
488.975
488.992
488.975
488.984
488.993
488.977
488.987
488.99
488.991
488.991
489.015
488.992
488.977
489.007
489.007
488.977
488.993
489.005
489.004
488.977
488.992
488.982
489.013
489.012
488.989
488.976
488.981
488.988
488.975
488.983
488.982
488.983
489.004
488.974
488.991
489.012
488.974
488.984
488.991
488.99
488.99
489.004
489.004
488.974
488.991
488.984
489.011
488.973
489.003
488.975
488.991
489.011
488.984
488.99
488.989
489.012
489.027
489.026
489.03
489.01
489.03
489.028
489.014
489.013
488.975
488.992
488.974
488.99
489.005
489.006
488.973
488.993
488.983
489.007
489.005
489.014
489.027
489.027
489.03
489.028
489.028
489.03
489.005
489.03
489.025
489.007
488.983
489.029
489.026
489.012
488.977
488.993
488.986
489.004
489.006
489.012
489.027
489.026
489.029
488.986
489.008
489.03
489.027
488.99
488.99
489.004
489.011
489.002
489.011
489.012
489.029
489.008
489.026
489.026
489.027
489.006
489.014
488.99
488.992
488.976
488.984
488.977
488.989
488.983
488.982
489.003
488.99
489.012
488.973
488.973
488.985
489.03
489.011
489.029
489.03
489.009
488.985
489.027
489.027
489.03
489.009
488.984
488.985
489.026
489.027
489.007
488.984
488.982
489.005
488.989
489.012
488.974
488.978
488.987
489.03
489.009
488.986
489.028
489.028
489.028
488.989
489.011
488.988
489.005
488.99
489.005
488.991
488.974
488.977
489.012
488.991
488.992
488.992
489.006
488.976
489.004
488.99
488.986
489.012
488.974
488.973
489.004
488.987
489.011
488.982
488.989
488.99
489.015
488.981
489.009
488.995
488.988
489.008
489.015
489.028
489.029
489.03
488.984
488.994
489.006
489.014
488.991
489.003
489.01
488.978
488.977
489.007
488.993
489.013
488.98
489.029
488.981
489.006
489.026
488.983
488.984
488.989
489.005
488.974
488.974
489
488.988
488.992
488.993
488.992
489.005
489.013
488.989
489.005
489.013
488.978
488.975
488.993
489.006
488.99
489.004
)
;
        Tnbr            T;
        thicknessLayers 0();
        kappaLayers     0();
        kappaMethod     solidThermo;
        kappa           none;
        alphaAni        none;
    }
}


// ************************************************************************* //
