/*--------------------------------*- C++ -*----------------------------------*\
| =========                 |                                                 |
| \\      /  F ield         | OpenFOAM: The Open Source CFD Toolbox           |
|  \\    /   O peration     | Version:  v1906                                 |
|   \\  /    A nd           | Web:      www.OpenFOAM.com                      |
|    \\/     M anipulation  |                                                 |
\*---------------------------------------------------------------------------*/
FoamFile
{
    version     2.0;
    format      ascii;
    class       surfaceScalarField;
    location    "70.6/oil";
    object      phi;
}
// * * * * * * * * * * * * * * * * * * * * * * * * * * * * * * * * * * * * * //

dimensions      [1 0 -1 0 0 0 0];
oriented        oriented;


internalField   nonuniform List<scalar> 
80688
(
-2.15291e-06
-2.18946e-06
-2.15291e-06
-9.71265e-07
-6.11239e-07
-5.70409e-07
-2.60975e-07
-3.57896e-07
-3.52394e-07
-1.2321e-07
-6.96247e-08
-6.81404e-08
-4.15336e-08
-4.13951e-08
-4.02812e-08
-8.30636e-10
-2.07074e-08
-1.99956e-08
2.17485e-08
-1.14228e-08
-1.11562e-08
3.43418e-08
-6.27589e-09
-6.31735e-09
4.0475e-08
-2.9888e-09
-3.14434e-09
4.16661e-08
-5.71131e-10
-6.19971e-10
3.87234e-08
1.40834e-09
1.53441e-09
3.22764e-08
3.03059e-09
3.41642e-09
2.30123e-08
4.30314e-09
4.96107e-09
1.17447e-08
5.19551e-09
6.07203e-09
-5.89247e-10
5.66814e-09
6.66587e-09
-1.29897e-08
5.70076e-09
6.69969e-09
-2.44714e-08
5.30088e-09
6.18091e-09
-3.41489e-08
4.50694e-09
5.17051e-09
-4.13171e-08
3.38769e-09
3.78059e-09
-4.55063e-08
2.0295e-09
2.15966e-09
-4.65227e-08
5.24012e-10
4.92483e-10
-4.44509e-08
-9.83748e-10
-1.08812e-09
-3.96515e-08
-2.41693e-09
-2.38245e-09
-3.27371e-08
-3.67522e-09
-3.23915e-09
-2.45349e-08
-4.64332e-09
-3.55885e-09
-1.60488e-08
-5.18745e-09
-3.29861e-09
-8.40092e-09
-5.13054e-09
-2.51729e-09
-2.72081e-09
-4.24981e-09
-1.43027e-09
9.99524e-11
-2.3255e-09
-4.9523e-10
1.94459e-10
-9.44876e-11
-5.78588e-07
-1.03229e-06
-5.78582e-07
-3.42676e-07
-3.84203e-07
-4.62948e-07
-2.37866e-07
-2.65872e-07
-1.96834e-07
-1.03883e-07
-1.25915e-07
-7.76926e-08
-2.39135e-08
-8.34425e-08
-3.79218e-08
2.57361e-08
-5.68458e-08
-1.35111e-08
5.76983e-08
-4.30597e-08
-3.25223e-10
7.72265e-08
-3.39561e-08
8.15202e-09
8.68376e-08
-2.7143e-08
1.45432e-08
8.77475e-08
-2.14327e-08
1.99517e-08
8.08377e-08
-1.64422e-08
2.47604e-08
6.70593e-08
-1.21533e-08
2.89623e-08
4.7664e-08
-8.69034e-09
3.23888e-08
2.42468e-08
-6.23073e-09
3.48434e-08
-1.32104e-09
-4.91766e-09
3.61537e-08
-2.7021e-08
-4.828e-09
3.62288e-08
-5.08588e-08
-5.94428e-09
3.50829e-08
-7.10432e-08
-8.14911e-09
3.28405e-08
-8.61452e-08
-1.12362e-08
2.97259e-08
-9.52159e-08
-1.49275e-08
2.60277e-08
-9.787e-08
-1.89056e-08
2.20837e-08
-9.42732e-08
-2.28188e-08
1.82383e-08
-8.51563e-08
-2.63228e-08
1.47891e-08
-7.17382e-08
-2.90636e-08
1.19703e-08
-5.56394e-08
-3.06655e-08
9.92343e-09
-3.87652e-08
-3.0703e-08
8.64138e-09
-2.31409e-08
-2.86707e-08
7.91591e-09
-1.06681e-08
-2.39881e-08
7.26553e-09
-2.76294e-09
-1.60822e-08
5.85158e-09
-5.33941e-09
2.77094e-09
-3.58306e-07
-3.15688e-07
-3.58299e-07
-2.32749e-07
-3.11082e-07
-1.98678e-07
-1.43927e-07
-2.3612e-07
-1.18575e-07
-5.45924e-08
-1.61966e-07
-5.32829e-08
9.29797e-09
-1.28718e-07
-1.86146e-08
5.59848e-08
-1.06631e-07
3.09877e-09
8.88002e-08
-9.25867e-08
1.67116e-08
1.09781e-07
-8.15563e-08
2.66193e-08
1.19833e-07
-7.1939e-08
3.47445e-08
1.19459e-07
-6.30159e-08
4.19569e-08
1.09279e-07
-5.47414e-08
4.84791e-08
9.02902e-08
-4.73788e-08
5.42147e-08
6.40256e-08
-4.13226e-08
5.8897e-08
3.25168e-08
-3.69723e-08
6.22504e-08
-1.79701e-09
-3.46408e-08
6.40369e-08
-3.62722e-08
-3.44888e-08
6.4136e-08
-6.82903e-08
-3.64903e-08
6.25641e-08
-9.54935e-08
-4.04263e-08
5.94805e-08
-1.16009e-07
-4.58991e-08
5.51781e-08
-1.28589e-07
-5.23781e-08
5.00307e-08
-1.32727e-07
-5.92409e-08
4.44739e-08
-1.2865e-07
-6.58149e-08
3.89189e-08
-1.17301e-07
-7.14159e-08
3.37443e-08
-1.00229e-07
-7.53455e-08
2.92101e-08
-7.94656e-08
-7.68773e-08
2.54479e-08
-5.73474e-08
-7.52176e-08
2.23965e-08
-3.62854e-08
-6.94733e-08
1.97406e-08
-1.8501e-08
-5.86124e-08
1.68399e-08
-5.79416e-09
-4.14372e-08
1.26481e-08
-1.69365e-08
5.80301e-09
-6.5144e-08
-1.85408e-07
-6.51357e-08
-7.94669e-08
-2.24816e-07
-7.19434e-08
-4.83237e-08
-2.17904e-07
-4.93582e-08
1.71861e-09
-1.94761e-07
-1.72478e-08
4.83212e-08
-1.802e-07
4.87945e-09
8.78338e-08
-1.67333e-07
2.11891e-08
1.18044e-07
-1.56201e-07
3.34039e-08
1.38013e-07
-1.45053e-07
4.35277e-08
1.47049e-07
-1.33561e-07
5.25859e-08
1.44845e-07
-1.21825e-07
6.10127e-08
1.31649e-07
-1.10345e-07
6.87994e-08
1.08383e-07
-9.98227e-08
7.57101e-08
7.67071e-08
-9.10235e-08
8.13767e-08
3.89437e-08
-8.46497e-08
8.54409e-08
-2.07919e-09
-8.12223e-08
8.76044e-08
-4.32662e-08
-8.10157e-08
8.7714e-08
-8.15445e-08
-8.39982e-08
8.57862e-08
-1.1415e-07
-8.98326e-08
8.2012e-08
-1.3888e-07
-9.79034e-08
7.67346e-08
-1.54287e-07
-1.07373e-07
7.04015e-08
-1.59773e-07
-1.17265e-07
6.351e-08
-1.5561e-07
-1.26525e-07
5.65469e-08
-1.42868e-07
-1.34083e-07
4.99247e-08
-1.23305e-07
-1.38836e-07
4.3928e-08
-9.91872e-08
-1.39673e-07
3.8678e-08
-7.30833e-08
-1.35395e-07
3.40739e-08
-4.7634e-08
-1.24657e-07
2.97348e-08
-2.53082e-08
-1.05852e-07
2.49144e-08
-8.39e-09
-7.67577e-08
1.84023e-08
-3.37261e-08
8.39961e-09
-2.9636e-08
-1.26146e-07
-2.96265e-08
-2.57335e-08
-2.02677e-07
-2.60412e-08
1.3154e-09
-2.34193e-07
-1.07598e-08
4.03819e-08
-2.41992e-07
8.16438e-09
8.00426e-08
-2.43451e-07
2.35902e-08
1.15759e-07
-2.39565e-07
3.65155e-08
1.44143e-07
-2.32225e-07
4.76407e-08
1.63019e-07
-2.21804e-07
5.7875e-08
1.70855e-07
-2.09074e-07
6.76768e-08
1.6682e-07
-1.94937e-07
7.71475e-08
1.50874e-07
-1.80479e-07
8.60797e-08
1.23876e-07
-1.66906e-07
9.40816e-08
8.75647e-08
-1.55401e-07
1.00688e-07
4.4486e-08
-1.47003e-07
1.05433e-07
-2.21093e-09
-1.42483e-07
1.07958e-07
-4.9061e-08
-1.42236e-07
1.0807e-07
-9.26103e-08
-1.46231e-07
1.05782e-07
-1.29758e-07
-1.54005e-07
1.0132e-07
-1.58037e-07
-1.64705e-07
9.50811e-08
-1.75836e-07
-1.77164e-07
8.75908e-08
-1.82497e-07
-1.9003e-07
7.94259e-08
-1.78318e-07
-2.0184e-07
7.11357e-08
-1.6448e-07
-2.11091e-07
6.31706e-08
-1.42886e-07
-2.16282e-07
5.58525e-08
-1.15969e-07
-2.1589e-07
4.92986e-08
-8.64733e-08
-2.08275e-07
4.33842e-08
-5.72251e-08
-1.91584e-07
3.76786e-08
-3.09656e-08
-1.63454e-07
3.13419e-08
-1.0483e-08
-1.20249e-07
2.30087e-08
-5.47027e-08
1.04936e-08
-5.68395e-09
-1.14788e-07
-5.67311e-09
7.42613e-09
-2.17736e-07
1.94902e-09
3.40176e-08
-2.74125e-07
1.33403e-08
6.91882e-08
-3.03307e-07
2.61451e-08
1.05974e-07
-3.18136e-07
3.78985e-08
1.39933e-07
-3.22415e-07
4.88922e-08
1.67363e-07
-3.19124e-07
5.94685e-08
1.85501e-07
-3.09951e-07
7.00092e-08
1.92325e-07
-2.96534e-07
8.06356e-08
1.86652e-07
-2.80475e-07
9.12123e-08
1.68244e-07
-2.63431e-07
1.0136e-07
1.37896e-07
-2.47097e-07
1.1054e-07
9.74189e-08
-2.33088e-07
1.18164e-07
4.95652e-08
-2.22802e-07
1.23652e-07
-2.22757e-09
-2.17256e-07
1.26566e-07
-5.41517e-08
-2.16985e-07
1.26673e-07
-1.02409e-07
-2.2196e-07
1.23985e-07
-1.43583e-07
-2.31589e-07
1.18758e-07
-1.74976e-07
-2.44774e-07
1.11462e-07
-1.94838e-07
-2.60019e-07
1.02717e-07
-2.02467e-07
-2.75592e-07
9.31912e-08
-1.98201e-07
-2.89607e-07
8.35014e-08
-1.83322e-07
-3.00158e-07
7.4189e-08
-1.59864e-07
-3.05329e-07
6.55878e-08
-1.30412e-07
-3.0317e-07
5.78294e-08
-9.78712e-08
-2.91588e-07
5.07716e-08
-6.52649e-08
-2.68134e-07
4.39432e-08
-3.56036e-08
-2.29532e-07
3.64165e-08
-1.21487e-08
-1.70365e-07
2.66616e-08
-7.90119e-08
1.21604e-08
4.97835e-09
-1.24757e-07
4.99047e-09
2.44176e-08
-2.53788e-07
1.66125e-08
5.38084e-08
-3.31038e-07
2.75218e-08
8.93748e-08
-3.77055e-07
3.81808e-08
1.26149e-07
-4.0332e-07
4.84106e-08
1.6009e-07
-4.15024e-07
5.86677e-08
1.87532e-07
-4.15847e-07
6.92808e-08
2.05483e-07
-4.08342e-07
8.04405e-08
2.11673e-07
-3.94815e-07
9.20913e-08
2.04682e-07
-3.77423e-07
1.03938e-07
1.84135e-07
-3.58342e-07
1.15459e-07
1.50786e-07
-3.39721e-07
1.25972e-07
1.06533e-07
-3.23575e-07
1.3474e-07
5.43075e-08
-3.11648e-07
1.41073e-07
-2.16311e-09
-3.05218e-07
1.44432e-07
-5.87408e-08
-3.04938e-07
1.44531e-07
-1.11292e-07
-3.10787e-07
1.41379e-07
-1.56104e-07
-3.22055e-07
1.35278e-07
-1.90261e-07
-3.37406e-07
1.26789e-07
-2.11888e-07
-3.55025e-07
1.16633e-07
-2.20262e-07
-3.72808e-07
1.0559e-07
-2.15777e-07
-3.88489e-07
9.43966e-08
-1.99828e-07
-3.99759e-07
8.36523e-08
-1.74584e-07
-4.04316e-07
7.37417e-08
-1.42784e-07
-3.99785e-07
6.48152e-08
-1.07498e-07
-3.83587e-07
5.67135e-08
-7.19413e-08
-3.52613e-07
4.89225e-08
-3.93844e-08
-3.02524e-07
4.04358e-08
-1.3478e-08
-2.25838e-07
2.95665e-08
-1.05981e-07
1.34909e-08
1.03263e-08
-1.45423e-07
1.03395e-08
3.42604e-08
-3.02605e-07
2.48829e-08
6.664e-08
-3.99642e-07
3.62245e-08
1.03852e-07
-4.60588e-07
4.63215e-08
1.41752e-07
-4.97344e-07
5.61237e-08
1.76526e-07
-5.16158e-07
6.63606e-08
2.04556e-07
-5.21315e-07
7.74381e-08
2.22755e-07
-5.16034e-07
8.94929e-08
2.28658e-07
-5.03091e-07
1.02373e-07
2.20704e-07
-4.85128e-07
1.15659e-07
1.98387e-07
-4.64735e-07
1.28711e-07
1.62435e-07
-4.44483e-07
1.40714e-07
1.14816e-07
-4.26735e-07
1.50779e-07
5.86577e-08
-4.13549e-07
1.58059e-07
-2.04696e-09
-4.06424e-07
1.61911e-07
-6.28362e-08
-4.0615e-07
1.62001e-07
-1.1925e-07
-4.12705e-07
1.58333e-07
-1.67291e-07
-4.25267e-07
1.51252e-07
-2.03839e-07
-4.42277e-07
1.41418e-07
-2.26915e-07
-4.61647e-07
1.29699e-07
-2.35802e-07
-4.80929e-07
1.17007e-07
-2.30973e-07
-4.97508e-07
1.04191e-07
-2.13934e-07
-5.08722e-07
9.1923e-08
-1.87006e-07
-5.119e-07
8.06572e-08
-1.53089e-07
-5.0427e-07
7.05688e-08
-1.15407e-07
-4.82758e-07
6.14887e-08
-7.73468e-08
-4.43528e-07
5.28553e-08
-4.24018e-08
-3.8105e-07
4.35812e-08
-1.45277e-08
-2.85551e-07
3.18389e-08
-1.3505e-07
1.45418e-08
1.31324e-08
-1.71702e-07
1.31462e-08
4.00409e-08
-3.59163e-07
2.96497e-08
7.49014e-08
-4.76107e-07
4.1605e-08
1.13915e-07
-5.51367e-07
5.17658e-08
1.5324e-07
-5.98342e-07
6.1672e-08
1.89139e-07
-6.24341e-07
7.22841e-08
2.18025e-07
-6.34287e-07
8.40851e-08
2.36723e-07
-6.31931e-07
9.71992e-08
2.42651e-07
-6.20464e-07
1.11445e-07
2.34084e-07
-6.02871e-07
1.26309e-07
2.10443e-07
-5.82116e-07
1.41023e-07
1.72386e-07
-5.61056e-07
1.5463e-07
1.21949e-07
-5.42369e-07
1.6607e-07
6.24338e-08
-5.28386e-07
1.74353e-07
-1.90467e-09
-5.20824e-07
1.78738e-07
-6.63058e-08
-5.20565e-07
1.78816e-07
-1.26004e-07
-5.27595e-07
1.74588e-07
-1.76745e-07
-5.40989e-07
1.66463e-07
-2.15223e-07
-5.59017e-07
1.55218e-07
-2.39386e-07
-5.79323e-07
1.4184e-07
-2.48538e-07
-5.99159e-07
1.27382e-07
-2.43249e-07
-6.15649e-07
1.12852e-07
-2.25156e-07
-6.25835e-07
9.902e-08
-1.96748e-07
-6.26709e-07
8.6401e-08
-1.61053e-07
-6.15138e-07
7.51727e-08
-1.21435e-07
-5.87541e-07
6.51649e-08
-8.14182e-08
-5.39351e-07
5.58054e-08
-4.46538e-08
-4.63723e-07
4.59086e-08
-1.53069e-08
-3.48409e-07
3.35108e-08
-1.65679e-07
1.53219e-08
1.46137e-08
-2.00943e-07
1.46279e-08
4.33276e-08
-4.20177e-07
3.22996e-08
7.98649e-08
-5.57359e-07
4.47138e-08
1.20246e-07
-6.46847e-07
5.50999e-08
1.60704e-07
-7.04117e-07
6.53167e-08
1.97564e-07
-7.3766e-07
7.64597e-08
2.27268e-07
-7.53082e-07
8.90911e-08
2.46532e-07
-7.54545e-07
1.0335e-07
2.52699e-07
-7.45625e-07
1.18994e-07
2.43914e-07
-7.29558e-07
1.35472e-07
2.19443e-07
-7.09532e-07
1.51888e-07
1.79918e-07
-6.88659e-07
1.67127e-07
1.27413e-07
-6.69848e-07
1.79985e-07
6.53623e-08
-6.55655e-07
1.89319e-07
-1.75617e-09
-6.47942e-07
1.94237e-07
-6.89191e-08
-6.47704e-07
1.94302e-07
-1.31101e-07
-6.54932e-07
1.89519e-07
-1.83815e-07
-6.68603e-07
1.80328e-07
-2.23609e-07
-6.86834e-07
1.67611e-07
-2.48407e-07
-7.07062e-07
1.52537e-07
-2.57547e-07
-7.26348e-07
1.3633e-07
-2.51722e-07
-7.41565e-07
1.20091e-07
-2.3272e-07
-7.49543e-07
1.04707e-07
-2.03149e-07
-7.47037e-07
9.07561e-08
-1.66165e-07
-7.30576e-07
7.84554e-08
-1.25225e-07
-6.96122e-07
6.76405e-08
-8.39495e-08
-6.38292e-07
5.76662e-08
-4.6049e-08
-5.48931e-07
4.73071e-08
-1.57933e-08
-4.13187e-07
3.45224e-08
-1.97281e-07
1.58089e-08
1.52617e-08
-2.3148e-07
1.52749e-08
4.47475e-08
-4.83093e-07
3.34305e-08
8.19702e-08
-6.4063e-07
4.60491e-08
1.22889e-07
-7.44355e-07
5.65893e-08
1.63823e-07
-8.12131e-07
6.70792e-08
2.01159e-07
-8.53733e-07
7.87373e-08
2.31339e-07
-8.75431e-07
9.21688e-08
2.51086e-07
-8.818e-07
1.07509e-07
2.57629e-07
-8.76665e-07
1.24497e-07
2.48989e-07
-8.63431e-07
1.42512e-07
2.24317e-07
-8.45408e-07
1.60548e-07
1.84165e-07
-8.25876e-07
1.77369e-07
1.30588e-07
-8.0787e-07
1.91599e-07
6.71141e-08
-7.9412e-07
2.01939e-07
-1.61741e-09
-7.86587e-07
2.07376e-07
-7.03767e-08
-7.86374e-07
2.07429e-07
-1.33937e-07
-7.93459e-07
2.02087e-07
-1.87632e-07
-8.06769e-07
1.91862e-07
-2.27948e-07
-8.24279e-07
1.77762e-07
-2.5281e-07
-8.43277e-07
1.61076e-07
-2.61614e-07
-8.60714e-07
1.4317e-07
-2.55213e-07
-8.73283e-07
1.25317e-07
-2.35536e-07
-8.77731e-07
1.08511e-07
-2.0529e-07
-8.70645e-07
9.33624e-08
-1.67705e-07
-8.48286e-07
8.01247e-08
-1.26281e-07
-8.06179e-07
6.86333e-08
-8.46106e-08
-7.38204e-07
5.82408e-08
-4.64085e-08
-6.34792e-07
4.76593e-08
-1.59324e-08
-4.78422e-07
3.4759e-08
-2.29162e-07
1.59482e-08
1.52389e-08
-2.6197e-07
1.52516e-08
4.44578e-08
-5.45522e-07
3.32109e-08
8.12317e-08
-7.23064e-07
4.566e-08
1.21595e-07
-8.40876e-07
5.61578e-08
1.6203e-07
-9.19369e-07
6.68028e-08
1.99022e-07
-9.69561e-07
7.88368e-08
2.29116e-07
-9.98408e-07
9.28817e-08
2.49078e-07
-1.01088e-06
1.09114e-07
2.56044e-07
-1.01088e-06
1.27244e-07
2.47971e-07
-1.00196e-06
1.46598e-07
2.23875e-07
-9.8741e-07
1.66099e-07
1.84133e-07
-9.70513e-07
1.84378e-07
1.30786e-07
-9.54414e-07
1.99891e-07
6.73267e-08
-9.41846e-07
2.11185e-07
-1.49648e-09
-9.34893e-07
2.17129e-07
-7.03347e-08
-9.34707e-07
2.17172e-07
-1.3383e-07
-9.41282e-07
2.11319e-07
-1.87259e-07
-9.53452e-07
2.00112e-07
-2.27068e-07
-9.69144e-07
1.84673e-07
-2.51239e-07
-9.8559e-07
1.66484e-07
-2.59372e-07
-9.99656e-07
1.47074e-07
-2.52403e-07
-1.00809e-06
1.27841e-07
-2.3239e-07
-1.00759e-06
1.09841e-07
-2.02127e-07
-9.9464e-07
9.3732e-08
-1.6484e-07
-9.65373e-07
7.98004e-08
-1.23952e-07
-9.14921e-07
6.78543e-08
-8.29898e-08
-8.36408e-07
5.7242e-08
-4.55254e-08
-7.18941e-07
4.66843e-08
-1.56385e-08
-5.42342e-07
3.40325e-08
-2.60454e-07
1.56539e-08
1.45852e-08
-2.91154e-07
1.45984e-08
4.24339e-08
-6.05048e-07
3.16773e-08
7.74288e-08
-8.01589e-07
4.35302e-08
1.15902e-07
-9.33016e-07
5.36664e-08
1.54547e-07
-1.02219e-06
6.41759e-08
1.9012e-07
-1.08144e-06
7.63012e-08
2.19351e-07
-1.11829e-06
9.06493e-08
2.39082e-07
-1.13804e-06
1.07432e-07
2.46496e-07
-1.14465e-06
1.26364e-07
2.3944e-07
-1.14164e-06
1.46744e-07
2.16785e-07
-1.1322e-06
1.67447e-07
1.78767e-07
-1.11945e-06
1.86954e-07
1.27242e-07
-1.10648e-06
2.03586e-07
6.56083e-08
-1.09595e-06
2.15742e-07
-1.40081e-09
-1.09004e-06
2.22155e-07
-6.84147e-08
-1.08988e-06
2.22184e-07
-1.30065e-07
-1.09546e-06
2.15829e-07
-1.81604e-07
-1.10564e-06
2.0373e-07
-2.19611e-07
-1.11828e-06
1.87146e-07
-2.42261e-07
-1.13065e-06
1.6771e-07
-2.49291e-07
-1.13973e-06
1.47104e-07
-2.41809e-07
-1.14239e-06
1.26812e-07
-2.21948e-07
-1.13539e-06
1.07946e-07
-1.92515e-07
-1.11532e-06
9.1245e-08
-1.56623e-07
-1.07822e-06
7.69509e-08
-1.17576e-07
-1.01885e-06
6.48774e-08
-7.86398e-08
-9.2973e-07
5.43849e-08
-4.31185e-08
-7.98658e-07
4.41952e-08
-1.48353e-08
-6.02825e-07
3.22005e-08
-2.90139e-07
1.48501e-08
1.32691e-08
-3.17697e-07
1.32739e-08
3.85144e-08
-6.59001e-07
2.87078e-08
7.02608e-08
-8.72787e-07
3.9451e-08
1.05253e-07
-1.01686e-06
4.88486e-08
1.40625e-07
-1.11641e-06
5.88512e-08
1.73466e-07
-1.18492e-06
7.06446e-08
2.00806e-07
-1.23051e-06
8.4878e-08
2.197e-07
-1.25866e-06
1.01728e-07
2.27454e-07
-1.27337e-06
1.20961e-07
2.21881e-07
-1.27794e-06
1.41865e-07
2.0171e-07
-1.27532e-06
1.63287e-07
1.66953e-07
-1.26839e-06
1.83702e-07
1.19166e-07
-1.25998e-06
2.01296e-07
6.15574e-08
-1.2526e-06
2.14251e-07
-1.32971e-09
-1.24827e-06
2.21118e-07
-6.42111e-08
-1.24813e-06
2.21135e-07
-1.21794e-07
-1.25218e-06
2.14302e-07
-1.6955e-07
-1.25927e-06
2.01382e-07
-2.0427e-07
-1.26741e-06
1.83845e-07
-2.24381e-07
-1.27402e-06
1.6348e-07
-2.29854e-07
-1.27633e-06
1.42077e-07
-2.21971e-07
-1.27151e-06
1.21239e-07
-2.02895e-07
-1.25655e-06
1.02077e-07
-1.75326e-07
-1.22817e-06
8.52818e-08
-1.42205e-07
-1.18244e-06
7.1106e-08
-1.06499e-07
-1.11389e-06
5.93433e-08
-7.11119e-08
-1.01444e-06
4.93256e-08
-3.8985e-08
-8.70673e-07
3.98889e-08
-1.34238e-08
-6.57435e-07
2.90481e-08
-3.17001e-07
1.34374e-08
1.12406e-08
-3.40183e-07
1.12458e-08
3.25543e-08
-7.04527e-07
2.42121e-08
5.94385e-08
-9.32985e-07
3.33145e-08
8.92183e-08
-1.08814e-06
4.14993e-08
1.19577e-07
-1.19729e-06
5.05188e-08
1.48118e-07
-1.27492e-06
6.14562e-08
1.72322e-07
-1.32962e-06
7.49118e-08
1.89596e-07
-1.36701e-06
9.10803e-08
1.9748e-07
-1.39105e-06
1.09794e-07
1.93817e-07
-1.40473e-06
1.30454e-07
1.77208e-07
-1.41065e-06
1.51943e-07
1.47432e-07
-1.4113e-06
1.72686e-07
1.05662e-07
-1.40898e-06
1.90763e-07
5.46913e-08
-1.40589e-06
2.04266e-07
-1.28279e-09
-1.40379e-06
2.11492e-07
-5.72421e-08
-1.40367e-06
2.11495e-07
-1.08177e-07
-1.40553e-06
2.04282e-07
-1.49882e-07
-1.40836e-06
1.90795e-07
-1.79575e-07
-1.41044e-06
1.72725e-07
-1.9605e-07
-1.40956e-06
1.52018e-07
-1.99555e-07
-1.40343e-06
1.30598e-07
-1.91517e-07
-1.38953e-06
1.09986e-07
-1.74053e-07
-1.36531e-06
9.12966e-08
-1.49594e-07
-1.3278e-06
7.51694e-08
-1.20791e-07
-1.27299e-06
6.17464e-08
-9.01256e-08
-1.19539e-06
5.08289e-08
-6.00538e-08
-1.08632e-06
4.18083e-08
-3.28928e-08
-9.31433e-07
3.35992e-08
-1.13435e-08
-7.0342e-07
2.44357e-08
-3.397e-07
1.13559e-08
8.47688e-09
-3.57139e-07
8.47919e-09
2.45216e-08
-7.38712e-07
1.81401e-08
4.47969e-08
-9.78266e-07
2.5006e-08
6.74972e-08
-1.14229e-06
3.14547e-08
9.09739e-08
-1.25968e-06
3.89157e-08
1.13486e-07
-1.34573e-06
4.82984e-08
1.33115e-07
-1.40939e-06
6.01385e-08
1.47781e-07
-1.45637e-06
7.46889e-08
1.55362e-07
-1.49046e-06
9.18333e-08
1.53909e-07
-1.51433e-06
1.1106e-07
1.42005e-07
-1.53013e-06
1.31383e-07
1.19068e-07
-1.53976e-06
1.51392e-07
8.58374e-08
-1.54492e-06
1.69174e-07
4.45315e-08
-1.54725e-06
1.82658e-07
-1.25318e-09
-1.54797e-06
1.89969e-07
-4.70147e-08
-1.54787e-06
1.89964e-07
-8.82582e-08
-1.54693e-06
1.8265e-07
-1.21384e-07
-1.5444e-06
1.69166e-07
-1.4421e-07
-1.53903e-06
1.51411e-07
-1.55968e-07
-1.52923e-06
1.31425e-07
-1.57268e-07
-1.51324e-06
1.11109e-07
-1.49492e-07
-1.48922e-06
9.19141e-08
-1.34588e-07
-1.45501e-06
7.48015e-08
-1.14742e-07
-1.40793e-06
6.02826e-08
-9.19638e-08
-1.34424e-06
4.84685e-08
-6.82315e-08
-1.25823e-06
3.91041e-08
-4.52562e-08
-1.14094e-06
3.16475e-08
-2.47419e-08
-9.77135e-07
2.51875e-08
-8.54451e-09
-7.37904e-07
1.82875e-08
-3.568e-07
8.55568e-09
4.99238e-09
-3.67128e-07
4.99604e-09
1.4396e-08
-7.58648e-07
1.05321e-08
2.64395e-08
-1.0049e-06
1.45928e-08
4.02071e-08
-1.17482e-06
1.87598e-08
5.49304e-08
-1.29843e-06
2.40241e-08
6.96051e-08
-1.39147e-06
3.10634e-08
8.30796e-08
-1.46313e-06
4.02701e-08
9.39443e-08
-1.51913e-06
5.1893e-08
1.00615e-07
-1.56306e-06
6.59252e-08
1.0148e-07
-1.59725e-06
8.20524e-08
9.51758e-08
-1.62334e-06
9.95168e-08
8.0923e-08
-1.64256e-06
1.1705e-07
5.89244e-08
-1.65586e-06
1.3294e-07
3.06301e-08
-1.66417e-06
1.45217e-07
-1.23705e-09
-1.66805e-06
1.51948e-07
-3.30795e-08
-1.66798e-06
1.51955e-07
-6.13122e-08
-1.66391e-06
1.45205e-07
-8.31825e-08
-1.65542e-06
1.32894e-07
-9.72834e-08
-1.64193e-06
1.17002e-07
-1.03411e-07
-1.62258e-06
9.9478e-08
-1.02348e-07
-1.59633e-06
8.20301e-08
-9.54635e-08
-1.56203e-06
6.59258e-08
-8.43704e-08
-1.51803e-06
5.19209e-08
-7.06584e-08
-1.46196e-06
4.0325e-08
-5.57318e-08
-1.39031e-06
3.1142e-08
-4.07802e-08
-1.2973e-06
2.41209e-08
-2.67914e-08
-1.1738e-06
1.8867e-08
-1.45641e-08
-1.00406e-06
1.46998e-08
-5.04054e-09
-7.58054e-07
1.0626e-08
-3.66891e-07
5.05072e-09
8.72545e-10
-3.68867e-07
8.66712e-10
2.46327e-09
-7.61809e-07
1.57093e-09
4.78263e-09
-1.00951e-06
2.28359e-09
7.99564e-09
-1.18169e-06
3.66295e-09
1.2198e-08
-1.30873e-06
6.09774e-09
1.73489e-08
-1.40654e-06
9.92579e-09
2.31216e-08
-1.48435e-06
1.54438e-08
2.89531e-08
-1.54775e-06
2.27893e-08
3.39553e-08
-1.6001e-06
3.20452e-08
3.70101e-08
-1.64337e-06
4.30679e-08
3.70344e-08
-1.67874e-06
5.53692e-08
3.30829e-08
-1.70674e-06
6.81316e-08
2.48932e-08
-1.72768e-06
8.00076e-08
1.29485e-08
-1.74164e-06
8.94122e-08
-1.22879e-09
-1.74858e-06
9.47036e-08
-1.53761e-08
-1.74852e-06
9.46841e-08
-2.72403e-08
-1.7414e-06
8.93605e-08
-3.52957e-08
-1.7273e-06
7.99305e-08
-3.90663e-08
-1.70622e-06
6.80644e-08
-3.8858e-08
-1.67809e-06
5.52992e-08
-3.55727e-08
-1.6426e-06
4.29889e-08
-3.03421e-08
-1.59925e-06
3.19838e-08
-2.42856e-08
-1.54684e-06
2.27517e-08
-1.82639e-08
-1.48341e-06
1.54302e-08
-1.29013e-08
-1.4056e-06
9.93429e-09
-8.46939e-09
-1.30786e-06
6.12723e-09
-5.06217e-09
-1.18092e-06
3.70853e-09
-2.60221e-09
-1.00886e-06
2.34085e-09
-8.97272e-10
-7.61388e-07
1.62941e-09
-3.68695e-07
9.06842e-10
-3.73047e-09
-3.61401e-07
-3.73482e-09
-1.08087e-08
-7.46353e-07
-8.37839e-09
-1.93184e-08
-9.89613e-07
-1.13829e-08
-2.79223e-08
-1.15986e-06
-1.32259e-08
-3.55564e-08
-1.28695e-06
-1.41499e-08
-4.1303e-08
-1.38656e-06
-1.4239e-08
-4.45186e-08
-1.4677e-06
-1.34372e-08
-4.48324e-08
-1.53579e-06
-1.16418e-08
-4.22938e-08
-1.59386e-06
-8.78225e-09
-3.72581e-08
-1.64362e-06
-4.78797e-09
-3.04793e-08
-1.68575e-06
2.34022e-10
-2.28485e-08
-1.7203e-06
5.93434e-09
-1.51825e-08
-1.74693e-06
1.15813e-08
-7.99003e-09
-1.76513e-06
1.62975e-08
-1.22277e-09
-1.77436e-06
1.90164e-08
5.58062e-09
-1.77429e-06
1.89682e-08
1.28805e-08
-1.76491e-06
1.62074e-08
2.06764e-08
-1.74657e-06
1.14787e-08
2.84795e-08
-1.71981e-06
5.78948e-09
3.54721e-08
-1.68516e-06
8.30006e-11
4.07373e-08
-1.64296e-06
-4.91292e-09
4.35265e-08
-1.59314e-06
-8.89215e-09
4.34423e-08
-1.53502e-06
-1.17329e-08
4.04752e-08
-1.46694e-06
-1.35048e-08
3.49544e-08
-1.3858e-06
-1.42826e-08
2.75161e-08
-1.28625e-06
-1.41725e-08
1.90876e-08
-1.15926e-06
-1.32263e-08
1.07262e-08
-9.89138e-07
-1.13636e-08
3.71329e-09
-7.4603e-07
-8.34539e-09
-3.61278e-07
-3.70391e-09
-8.58519e-09
-3.44227e-07
-8.58903e-09
-2.47718e-08
-7.11308e-07
-1.88584e-08
-4.46215e-08
-9.43982e-07
-2.57809e-08
-6.56811e-08
-1.10775e-06
-3.10507e-08
-8.58548e-08
-1.23115e-06
-3.5622e-08
-1.03277e-07
-1.32907e-06
-4.00613e-08
-1.1624e-07
-1.41013e-06
-4.46006e-08
-1.23419e-07
-1.47936e-06
-4.92487e-08
-1.23853e-07
-1.53959e-06
-5.38416e-08
-1.17137e-07
-1.5922e-06
-5.81354e-08
-1.03475e-07
-1.63753e-06
-6.18777e-08
-8.36409e-08
-1.6753e-06
-6.48334e-08
-5.89097e-08
-1.70478e-06
-6.68775e-08
-3.08726e-08
-1.72514e-06
-6.80268e-08
-1.21046e-09
-1.73554e-06
-6.84854e-08
2.84828e-08
-1.73547e-06
-6.85137e-08
5.66036e-08
-1.72493e-06
-6.81032e-08
8.15012e-08
-1.70448e-06
-6.69945e-08
1.01523e-07
-1.67486e-06
-6.49759e-08
1.15405e-07
-1.63701e-06
-6.20304e-08
1.22357e-07
-1.59162e-06
-5.82885e-08
1.22159e-07
-1.53896e-06
-5.39845e-08
1.15235e-07
-1.47872e-06
-4.93747e-08
1.02497e-07
-1.4095e-06
-4.47057e-08
8.52969e-08
-1.32846e-06
-4.01425e-08
6.53286e-08
-1.2306e-06
-3.56791e-08
4.44334e-08
-1.10728e-06
-3.10827e-08
2.46894e-08
-9.43605e-07
-2.57884e-08
8.57466e-09
-7.11072e-07
-1.88433e-08
-3.44138e-07
-8.56504e-09
-1.33751e-08
-3.17472e-07
-1.338e-08
-3.85313e-08
-6.5699e-07
-2.91614e-08
-6.95891e-08
-8.73008e-07
-3.99163e-08
-1.02951e-07
-1.02578e-06
-4.86081e-08
-1.35601e-07
-1.14159e-06
-5.69153e-08
-1.64696e-07
-1.23417e-06
-6.58073e-08
-1.87537e-07
-1.31149e-06
-7.58009e-08
-2.01749e-07
-1.37811e-06
-8.70393e-08
-2.0538e-07
-1.43661e-06
-9.93396e-08
-1.97194e-07
-1.48808e-06
-1.1231e-07
-1.76793e-07
-1.53269e-06
-1.2524e-07
-1.44831e-07
-1.57003e-06
-1.37235e-07
-1.02991e-07
-1.59925e-06
-1.47372e-07
-5.39798e-08
-1.61944e-06
-1.54704e-07
-1.191e-09
-1.62977e-06
-1.58563e-07
5.1634e-08
-1.6297e-06
-1.5859e-07
1.00749e-07
-1.61928e-06
-1.54762e-07
1.42721e-07
-1.59898e-06
-1.4747e-07
1.74878e-07
-1.56963e-06
-1.37382e-07
1.95502e-07
-1.53223e-06
-1.25403e-07
2.03927e-07
-1.48757e-06
-1.12478e-07
2.0053e-07
-1.43606e-06
-9.95013e-08
1.86575e-07
-1.37758e-06
-8.71865e-08
1.63958e-07
-1.31095e-06
-7.59303e-08
1.35087e-07
-1.23367e-06
-6.59131e-08
1.02621e-07
-1.14114e-06
-5.69957e-08
6.94151e-08
-1.02542e-06
-4.8662e-08
3.84742e-08
-8.72724e-07
-3.99409e-08
1.33698e-08
-6.5681e-07
-2.91571e-08
-3.17409e-07
-1.33595e-08
-1.77761e-08
-2.81916e-07
-1.77799e-08
-5.11471e-08
-5.85026e-07
-3.85926e-08
-9.24534e-08
-7.78834e-07
-5.28675e-08
-1.37151e-07
-9.16405e-07
-6.46799e-08
-1.81356e-07
-1.021e-06
-7.63816e-08
-2.21308e-07
-1.10483e-06
-8.93932e-08
-2.53401e-07
-1.17494e-06
-1.04457e-07
-2.74238e-07
-1.23547e-06
-1.21806e-07
-2.80958e-07
-1.28861e-06
-1.41284e-07
-2.71483e-07
-1.33532e-06
-1.62236e-07
-2.44888e-07
-1.37573e-06
-1.83565e-07
-2.01683e-07
-1.40938e-06
-2.03854e-07
-1.43956e-07
-1.43563e-06
-2.21346e-07
-7.54385e-08
-1.45369e-06
-2.34272e-07
-1.16143e-09
-1.46289e-06
-2.41154e-07
7.31442e-08
-1.46283e-06
-2.41178e-07
1.41755e-07
-1.45353e-06
-2.34365e-07
1.99616e-07
-1.43536e-06
-2.21476e-07
2.43031e-07
-1.40905e-06
-2.03996e-07
2.69833e-07
-1.37531e-06
-1.83725e-07
2.79534e-07
-1.33486e-06
-1.62403e-07
2.73066e-07
-1.28814e-06
-1.4145e-07
2.52454e-07
-1.235e-06
-1.21963e-07
2.20601e-07
-1.1745e-06
-1.04598e-07
1.80852e-07
-1.10441e-06
-8.95133e-08
1.36835e-07
-1.02064e-06
-7.64785e-08
9.22941e-08
-9.16137e-07
-6.47377e-08
5.10853e-08
-7.78622e-07
-5.28927e-08
1.77729e-08
-5.84901e-07
-3.8597e-08
-2.81874e-07
-1.77626e-08
-2.14259e-08
-2.39061e-07
-2.14295e-08
-6.1588e-08
-4.98486e-07
-4.63778e-08
-1.11446e-07
-6.65486e-07
-6.34897e-08
-1.65672e-07
-7.84336e-07
-7.78428e-08
-2.19701e-07
-8.74619e-07
-9.23506e-08
-2.68995e-07
-9.46769e-07
-1.08763e-07
-3.09056e-07
-1.00686e-06
-1.28025e-07
-3.35639e-07
-1.05842e-06
-1.50469e-07
-3.45048e-07
-1.10338e-06
-1.75825e-07
-3.34507e-07
-1.14259e-06
-2.03263e-07
-3.02652e-07
-1.17618e-06
-2.31405e-07
-2.49832e-07
-1.2039e-06
-2.58299e-07
-1.78609e-07
-1.22527e-06
-2.81578e-07
-9.35793e-08
-1.23985e-06
-2.98872e-07
-1.11806e-09
-1.24721e-06
-3.08144e-07
9.13719e-08
-1.24716e-06
-3.08164e-07
1.76484e-07
-1.2397e-06
-2.98936e-07
2.47856e-07
-1.22506e-06
-2.81679e-07
3.00823e-07
-1.20359e-06
-2.58429e-07
3.32908e-07
-1.17584e-06
-2.31557e-07
3.43676e-07
-1.14221e-06
-2.03423e-07
3.3451e-07
-1.10299e-06
-1.7599e-07
3.0816e-07
-1.05803e-06
-1.50627e-07
2.68315e-07
-1.00649e-06
-1.28169e-07
2.19235e-07
-9.46444e-07
-1.08889e-07
1.65391e-07
-8.74342e-07
-9.24548e-08
1.11297e-07
-7.84113e-07
-7.79313e-08
6.15389e-08
-6.65322e-07
-6.35412e-08
2.14248e-08
-4.98399e-07
-4.63873e-08
-2.39035e-07
-2.14141e-08
-2.39571e-08
-1.91146e-07
-2.39575e-08
-6.88786e-08
-4.01815e-07
-5.175e-08
-1.24876e-07
-5.38704e-07
-7.07855e-08
-1.86141e-07
-6.36233e-07
-8.6838e-08
-2.47578e-07
-7.09927e-07
-1.03255e-07
-3.04028e-07
-7.68276e-07
-1.22044e-07
-3.50296e-07
-8.1632e-07
-1.44268e-07
-3.81415e-07
-8.5701e-07
-1.70289e-07
-3.92996e-07
-8.92017e-07
-1.99777e-07
-3.81725e-07
-9.22098e-07
-2.31767e-07
-3.45894e-07
-9.47439e-07
-2.64567e-07
-2.85885e-07
-9.67996e-07
-2.95914e-07
-2.04518e-07
-9.83579e-07
-3.23062e-07
-1.07107e-07
-9.94042e-07
-3.43215e-07
-1.06236e-09
-9.9928e-07
-3.53972e-07
1.05008e-07
-9.99239e-07
-3.53989e-07
2.02497e-07
-9.93922e-07
-3.43269e-07
2.83984e-07
-9.83392e-07
-3.23151e-07
3.44167e-07
-9.67747e-07
-2.96026e-07
3.80195e-07
-9.4716e-07
-2.64705e-07
3.91683e-07
-9.21784e-07
-2.31913e-07
3.80319e-07
-8.91696e-07
-1.9993e-07
3.49442e-07
-8.5671e-07
-1.70438e-07
3.03378e-07
-8.16015e-07
-1.44407e-07
2.47127e-07
-7.68023e-07
-1.2217e-07
1.85856e-07
-7.0971e-07
-1.03361e-07
1.24729e-07
-6.36069e-07
-8.69174e-08
6.88361e-08
-5.38597e-07
-7.08326e-08
2.3954e-08
-4.01755e-07
-5.17625e-08
-1.91136e-07
-2.39445e-08
-2.50059e-08
-1.4113e-07
-2.50103e-08
-7.20872e-08
-3.00815e-07
-5.39182e-08
-1.31174e-07
-4.05967e-07
-7.36498e-08
-1.9639e-07
-4.8071e-07
-9.03071e-08
-2.62311e-07
-5.36524e-07
-1.07482e-07
-3.23322e-07
-5.79918e-07
-1.27346e-07
-3.7371e-07
-6.14892e-07
-1.5104e-07
-4.0792e-07
-6.43898e-07
-1.78902e-07
-4.21138e-07
-6.68255e-07
-2.10545e-07
-4.09667e-07
-6.88688e-07
-2.44881e-07
-3.71596e-07
-7.05447e-07
-2.80062e-07
-3.07321e-07
-7.18664e-07
-3.13607e-07
-2.19913e-07
-7.28422e-07
-3.42565e-07
-1.15126e-07
-7.34808e-07
-3.64019e-07
-9.91126e-10
-7.37943e-07
-3.75472e-07
1.13168e-07
-7.37912e-07
-3.75486e-07
2.18025e-07
-7.34716e-07
-3.64064e-07
3.05556e-07
-7.2829e-07
-3.42632e-07
3.69981e-07
-7.18489e-07
-3.13684e-07
4.08221e-07
-7.05233e-07
-2.80167e-07
4.19895e-07
-6.88445e-07
-2.45013e-07
4.06902e-07
-6.68017e-07
-2.10685e-07
3.72888e-07
-6.43653e-07
-1.79043e-07
3.22721e-07
-6.14675e-07
-1.51173e-07
2.61893e-07
-5.79726e-07
-1.27469e-07
1.96128e-07
-5.36362e-07
-1.07584e-07
1.31047e-07
-4.806e-07
-9.03873e-08
7.20413e-08
-4.05892e-07
-7.36987e-08
2.50075e-08
-3.00787e-07
-5.39338e-08
-1.41129e-07
-2.49996e-08
-2.42232e-08
-9.26814e-08
-2.42252e-08
-7.03267e-08
-2.02598e-07
-5.2114e-08
-1.29013e-07
-2.7631e-07
-7.09707e-08
-1.94657e-07
-3.28221e-07
-8.68456e-08
-2.61747e-07
-3.66059e-07
-1.03375e-07
-3.24386e-07
-3.94504e-07
-1.22775e-07
-3.76504e-07
-4.16571e-07
-1.46204e-07
-4.12288e-07
-4.34134e-07
-1.73979e-07
-4.26613e-07
-4.48279e-07
-2.05651e-07
-4.15645e-07
-4.59596e-07
-2.40059e-07
-3.77401e-07
-4.68406e-07
-2.75286e-07
-3.12312e-07
-4.74952e-07
-3.08801e-07
-2.23535e-07
-4.79494e-07
-3.37705e-07
-1.16991e-07
-4.82283e-07
-3.5907e-07
-9.03226e-10
-4.83588e-07
-3.70443e-07
1.15205e-07
-4.83565e-07
-3.70455e-07
2.21812e-07
-4.82217e-07
-3.59106e-07
3.10691e-07
-4.79389e-07
-3.3778e-07
3.75922e-07
-4.74817e-07
-3.08903e-07
4.14323e-07
-4.68242e-07
-2.75391e-07
4.25478e-07
-4.59424e-07
-2.40175e-07
4.11337e-07
-4.48099e-07
-2.05777e-07
3.75756e-07
-4.33966e-07
-1.74106e-07
3.23823e-07
-4.16415e-07
-1.46327e-07
2.61356e-07
-3.9437e-07
-1.22889e-07
1.9442e-07
-3.65953e-07
-1.03472e-07
1.28894e-07
-3.2815e-07
-8.69238e-08
7.02907e-08
-2.76269e-07
-7.10199e-08
2.4223e-08
-2.02587e-07
-5.21322e-08
-9.26884e-08
-2.42177e-08
-2.12645e-08
-5.01501e-08
-2.12668e-08
-6.29113e-08
-1.15373e-07
-4.5578e-08
-1.1737e-07
-1.60194e-07
-6.16565e-08