/*--------------------------------*- C++ -*----------------------------------*\
| =========                 |                                                 |
| \\      /  F ield         | OpenFOAM: The Open Source CFD Toolbox           |
|  \\    /   O peration     | Version:  v1906                                 |
|   \\  /    A nd           | Web:      www.OpenFOAM.com                      |
|    \\/     M anipulation  |                                                 |
\*---------------------------------------------------------------------------*/
FoamFile
{
    version     2.0;
    format      ascii;
    class       volScalarField;
    location    "93";
    object      omega;
}
// * * * * * * * * * * * * * * * * * * * * * * * * * * * * * * * * * * * * * //

dimensions      [0 0 -1 0 0 0 0];


internalField   nonuniform List<scalar> 
78750
(
310.861
74.7984
66.334
65.0017
59.1775
51.3518
48.4698
43.7574
42.4147
40.2575
39.5464
38.7793
38.6113
38.2512
38.3183
38.2521
38.3771
38.4768
38.6195
38.7542
38.9011
39.0289
39.1518
39.2344
39.3172
39.3194
39.365
39.2555
39.2653
38.8816
39.1875
37.6266
38.2526
37.8854
432.903
417.058
21.6195
9.1012
12.7121
8.21884
9.94201
6.4239
9.84315
13.3683
7.34844
10.9643
9.77641
9.89219
10.2668
10.6497
11.0517
11.4776
11.9243
12.3939
12.8663
13.3284
13.7665
14.1742
14.5452
14.8846
15.1888
15.4789
15.7301
15.9952
16.1938
16.5043
16.4168
16.8122
16.6465
628.543
406.614
10.3383
10.1531
10.6557
5.55786
6.01639
8.11962
9.10236
9.30176
10.7969
9.91493
10.2638
10.0389
9.97112
9.93688
9.9637
10.0478
10.1849
10.3644
10.577
10.8238
11.097
11.385
11.6811
11.9811
12.2837
12.5902
12.9001
13.224
13.5498
13.9086
14.2214
14.5787
15.1306
619.563
404.343
6.87729
3.96475
13.5947
14.5048
14.1665
13.8786
13.2745
12.9943
12.5662
12.214
11.7819
11.3453
10.9605
10.6701
10.4738
10.3626
10.3334
10.3824
10.4935
10.6477
10.8308
11.0293
11.2328
11.4362
11.6405
11.8518
12.0771
12.319
12.5645
12.7737
12.8664
12.8492
13.3738
613.063
409.461
10.6133
11.6034
11.6636
12.5993
13.3162
13.455
13.318
12.9404
12.4831
11.9412
11.3721
10.9045
10.5859
10.3495
10.1496
9.98076
9.85354
9.79198
9.8106
9.90533
10.0611
10.2564
10.4668
10.6666
10.8316
10.9464
11.0128
11.0453
11.0512
10.9992
10.7751
10.3362
11.0907
610.049
407.952
13.4763
14.1571
14.6383
14.995
15.2686
15.3742
15.2774
15.0245
14.5617
13.8039
12.8029
11.7736
10.9918
10.5683
10.3531
10.2111
10.028
9.79465
9.59414
9.50439
9.53131
9.66171
9.88916
10.183
10.4807
10.7146
10.8274
10.7921
10.6269
10.3725
10.1127
10.3145
11.7066
610.564
416.657
12.2427
13.3301
13.9872
14.3585
14.4891
14.4897
14.4662
14.4546
14.4479
14.4056
14.2719
13.9825
13.4273
12.4667
11.169
9.86295
9.11497
9.08739
9.66626
10.2158
10.425
10.4045
10.2517
10.0589
9.96024
10.0443
10.2811
10.5667
10.778
10.8554
10.9197
11.4894
12.6999
610.73
420.735
15.1879
15.2976
15.286
15.4246
15.6999
15.9119
15.9325
15.7469
15.3968
14.9538
14.5349
14.2283
14.0031
13.7597
13.4251
12.952
12.2956
11.4624
10.6257
10.02
9.68677
9.65431
9.78265
9.8467
9.85946
9.90415
10.0529
10.3611
10.8168
11.2909
11.719
12.402
13.3778
611.157
414.998
11.1659
11.4295
11.9044
12.7611
13.8991
14.9362
15.6325
15.944
15.93
15.7006
15.3565
14.9427
14.4638
13.9575
13.5078
13.1444
12.811
12.4237
11.896
11.1694
10.4314
9.95689
9.76144
9.76757
9.84271
9.91872
10.0206
10.2291
10.6767
11.4274
12.258
13.0322
13.9127
612.114
423.256
14.4279
13.6832
12.9875
12.761
13.454
14.4889
15.2943
15.7526
15.9095
15.8194
15.5452
15.1718
14.7656
14.3419
13.8822
13.3865
12.9221
12.5237
12.1145
11.5818
10.9381
10.4163
10.1251
10.0078
9.99745
10.0278
10.0674
10.1456
10.3762
10.9902
12.0516
13.1588
14.2103
613.247
420.603
12.9918
11.8531
10.5146
9.24024
9.51045
11.4581
13.4127
14.6152
15.1987
15.3742
15.2773
14.9958
14.6071
14.1705
13.7168
13.2615
12.8345
12.4786
12.1659
11.789
11.2814
10.7584
10.3967
10.2177
10.1674
10.1979
10.2701
10.3763
10.5795
11.0864
12.149
13.4365
14.6741
614.96
423.613
15.9875
15.3944
13.9963
11.4722
7.38262
5.48312
9.0339
11.8508
13.5666
14.4364
14.7598
14.7318
14.4653
14.033
13.4756
12.8258
12.1465
11.5731
11.2224
11.0365
10.8629
10.6715
10.5242
10.4481
10.433
10.4566
10.4951
10.54
10.6307
10.9561
11.9702
13.5761
15.0595
616.295
428.02
18.3155
18.3754
17.6344
16.0916
12.7693
5.8895
5.42636
7.13481
10.4465
12.5074
13.6042
14.0881
14.1722
13.9812
13.5788
12.9954
12.2452
11.371
10.5354
9.99863
9.84878
9.89704
10.0014
10.129
10.2764
10.4398
10.6129
10.8
11.0412
11.4776
12.458
14.0184
15.5341
617.41
429.048
18.6344
19.2116
19.1724
18.6128
17.2383
13.8686
7.62802
5.0153
5.57157
9.20401
11.4744
12.7973
13.4635
13.6805
13.5833
13.2389
12.6771
11.8918
10.9005
9.90319
9.33843
9.38702
9.72125
10.0808
10.3718
10.5777
10.7255
10.8609
11.0592
11.508
12.5918
14.2861
15.8528
618.055
429.86
18.7092
19.4482
19.7905
19.8772
19.5798
18.5407
15.5382
10.3391
5.39161
5.63262
6.74855
9.50158
11.3207
12.3446
12.8028
12.8479
12.5794
12.0451
11.2337
10.1366
8.93548
8.09166
8.05569
8.62892
9.39176
10.0822
10.6048
10.994
11.3626
11.9311
13.071
14.6956
16.2044
618.706
428.544
18.3002
19.1556
19.6702
20.1071
20.4884
20.7042
20.4678
18.8512
15.1265
10.0733
5.98916
6.57678
6.8731
9.49431
11.1395
12.0132
12.3118
12.192
11.7439
10.9836
9.90893
8.63436
7.5074
7.07176
7.53166
8.47983
9.48192
10.3361
11.0634
11.8646
13.1508
14.9011
16.4606
619.277
429.674
19.1498
19.9421
20.2732
20.4668
20.645
20.9092
21.2743
21.5319
21.1288
19.3128
15.4172
10.2786
5.91018
5.87216
6.72375
9.25731
10.7792
11.4882
11.6436
11.4041
10.8434
9.98138
8.88991
7.80036
7.10952
7.25603
8.20412
9.49881
10.7262
11.9879
13.5619
15.2815
16.7859
619.988
435.693
20.4462
20.9428
21.1487
21.2647
21.3075
21.241
21.1292
21.148
21.269
21.201
20.6002
18.7601
14.8197
8.73495
4.98883
5.89371
6.96506
9.23963
10.3937
10.8203
10.7573
10.3386
9.62534
8.67389
7.62035
6.79084
6.79577
8.01284
9.92799
11.6383
13.4053
15.3347
16.9707
620.612
443.814
21.1308
20.9933
20.933
20.988
21.1564
21.2775
21.1915
20.9067
20.5599
20.2393
19.9099
19.4788
18.5998
16.1515
10.8648
5.93752
4.57394
4.88224
7.47441
8.92893
9.4929
9.49839
9.1019
8.36867
7.31362
5.90539
4.25616
4.75225
8.37448
11.6749
14.1219
15.9665
17.4547
621.194
445.571
20.89
20.6295
20.5037
20.4908
20.5968
20.73
20.7812
20.6869
20.4174
19.9981
19.5059
19.0074
18.5085
17.8737
16.4979
12.3688
5.70911
4.98712
4.72806
5.06074
6.79169
7.64744
7.77195
7.3979
6.62135
5.38439
4.32533
4.56862
5.22513
9.84472
13.3318
15.639
17.2966
621.283
438.848
20.3275
20.6588
20.7808
20.7553
20.5958
20.3685
20.1598
20.0266
19.9523
19.8346
19.5667
19.1231
18.5576
17.9349
17.2387
16.1481
13.0675
6.75227
4.81732
4.86918
4.23869
4.63064
5.43481
5.62151
5.16455
3.94101
3.8083
4.32529
4.78241
9.24146
13.3953
16.1331
17.9483
622.955
435.491
21.1676
22.0384
22.387
22.4726
22.3071
21.8647
21.152
20.3116
19.637
19.3335
19.2789
19.2007
18.944
18.4995
17.9224
17.2474
16.2836
13.885
8.22146
5.0436
4.68258
4.11147
4.09279
3.71742
4.24612
4.49667
4.02976
3.89492
4.45521
7.7036
12.8354
15.7181
17.5819
622.34
437.872
21.8695
22.8224
23.3312
23.6702
23.8327
23.7377
23.2733
22.3254
20.9956
19.7678
19.0609
18.7995
18.6575
18.4189
18.0334
17.5245
16.8897
15.9574
13.8577
8.59016
5.69066
4.25078
4.83055
4.12788
4.5469
3.98131
4.49227
4.1738
4.55848
6.33122
12.0568
16.122
18.4133
625.894
442.042
22.0703
22.7535
23.2176
23.6309
23.9828
24.2126
24.2333
23.9276
23.128
21.8241
20.4419
19.4317
18.8443
18.4673
18.1047
17.6757
17.1633
16.5213
15.5549
13.4579
7.8151
4.34526
4.28368
4.83263
4.18131
3.67589
4.31079
4.04935
4.15777
8.65027
11.9657
15.6613
18.2302
624.985
441.723
21.9677
22.6369
23.0697
23.4498
23.8137
24.1575
24.4304
24.5462
24.4
23.8428
22.7553
21.3359
20.0174
19.0481
18.3847
17.86
17.345
16.7608
16.0035
14.8195
12.3071
6.2683
5.54356
3.99356
4.76117
4.16975
4.80441
4.26618
4.68834
10.6877
16.9276
18.3756
19.3595
622.815
440.952
22.1528
22.9825
23.4725
23.8616
24.2084
24.532
24.8245
25.0464
25.1358
25.0273
24.6292
23.7999
22.5031
21.0168
19.7153
18.7496
18.0366
17.4315
16.8286
16.1403
15.1813
13.3483
9.06304
5.27801
4.61299
4.98086
4.23809
4.82955
4.1227
4.01576
10.8201
15.8969
18.0824
622.625
443.582
22.6443
23.3603
23.8045
24.1837
24.5439
24.8813
25.1598
25.3418
25.4058
25.3417
25.1398
24.7656
24.1191
23.0662
21.6671
20.2557
19.0994
18.2239
17.5224
16.8682
16.1274
15.086
13.2075
8.97572
6.18918
4.06549
4.96221
4.41469
4.38584
9.49464
14.553
17.3347
19.4266
626.389
449.096
23.255
23.5966
23.8736
24.1886
24.5703
24.999
25.3897
25.6506
25.7463
25.6896
25.5082
25.221
24.818
24.2352
23.3517
22.1303
20.7979
19.6339
18.7284
18.0109
17.3713
16.7001
15.8463
14.5195
12.048
7.33385
4.79332
5.37779
4.75959
5.04549
9.9456
16.29
17.9443
616.565
450.392
23.1699
23.3784
23.5889
23.866
24.2401
24.7026
25.1721
25.5413
25.753
25.8054
25.7214
25.5278
25.2471
24.887
24.4238
23.7868
22.8981
21.8201
20.7624
19.8695
19.1473
18.5363
17.9736
17.413
16.7363
15.8301
15.268
13.4687
9.78935
5.04158
4.95957
7.31707
14.9309
633.824
449.899
23.1083
23.3726
23.6046
23.8751
24.2066
24.6018
25.0201
25.3877
25.6429
25.761
25.7439
25.6043
25.3565
25.0109
24.5685
24.011
23.2941
22.3767
21.3092
20.2307
19.2103
18.2127
17.2038
16.1179
14.2879
9.66209
10.0791
14.1709
13.9813
11.6479
13.9703
17.9006
22.1952
643.113
448.5
23.0402
23.3515
23.5674
23.7784
24.008
24.2814
24.6091
24.9605
25.2729
25.4937
25.5985
25.5847
25.4593
25.2285
24.8852
24.4075
23.7487
22.8295
21.5961
20.0847
18.3262
16.1952
13.3932
10.525
11.7966
16.9561
20.1807
20.4489
19.5881
18.8585
19.1019
19.6458
19.5542
608.084
449.877
23.3225
23.5856
23.7631
23.9214
24.0671
24.2137
24.3881
24.6111
24.8643
25.1011
25.2793
25.378
25.3936
25.3306
25.1951
24.9915
24.7219
24.3797
23.9399
23.3616
22.6157
21.6986
20.5771
19.1544
17.3473
15.6469
15.179
15.7013
16.1597
17.352
18.924
20.2768
18.7686
597.203
450.168
23.3109
23.6062
23.8214
24.0096
24.1617
24.2767
24.3759
24.4882
24.627
24.7753
24.8992
24.9692
24.9721
24.907
24.7757
24.5781
24.3122
23.9751
23.5572
23.0449
22.4889
22.0029
21.4289
20.4774
19.4832
18.6979
17.8144
17.0426
16.4579
16.3255
16.6945
16.7898
14.9363
612.413
450.609
23.5023
23.8589
24.1223
24.3386
24.4834
24.5469
24.5518
24.5429
24.5526
24.5833
24.6112
24.6031
24.5357
24.398
24.1833
23.8727
23.4533
22.9406
22.2862
21.3266
20.2595
20.9924
23.3889
24.6492
24.646
24.0195
22.9191
21.299
19.05
16.5507
15.4026
16.1553
17.2715
622.486
448.306
23.2645
23.7909
24.1564
24.4465
24.6418
24.7244
24.6972
24.5982
24.4885
24.413
24.3842
24.3839
24.3829
24.3572
24.2934
24.1852
24.0251
23.8
23.4904
23.053
22.3788
21.3491
20.3714
20.1833
20.854
21.9634
22.66
22.4117
21.2308
19.0218
16.867
16.8021
17.8056
619.196
447.263
23.3035
23.9603
24.4128
24.7883
25.0691
25.2188
25.2078
25.04
24.7742
24.4991
24.2812
24.1334
24.0294
23.9342
23.823
23.6847
23.5175
23.3224
23.0994
22.8522
22.5882
22.2265
21.5337
20.4216
19.2427
18.6662
19.3497
20.6504
20.9978
20.1071
18.7707
18.2768
18.4357
618.423
445.764
23.0649
23.7967
24.3309
24.833
25.2943
25.6567
25.845
25.8006
25.5166
25.0651
24.5706
24.1411
23.8129
23.5602
23.3372
23.1069
22.8423
22.5139
22.0947
21.6923
21.7767
22.3187
22.3851
21.846
20.7911
19.2361
17.78
17.9959
19.5316
20.2109
19.9803
19.5157
18.8638
615.186
447.206
23.136
23.7481
24.2262
24.7214
25.2529
25.7879
26.2453
26.5262
26.5561
26.3047
25.8126
25.1983
24.6081
24.1359
23.791
23.5278
23.2868
23.0216
22.7071
22.3244
21.8455
21.3283
20.9635
20.8425
20.8099
20.5624
19.8668
18.9284
18.5608
19.0573
19.6249
19.7516
19.3546
615.034
446.895
23.0921
23.7558
24.2413
24.7047
25.1844
25.6949
26.211
26.6561
26.942
27.0111
26.8351
26.4129
25.7966
25.1059
24.4665
23.9488
23.5575
23.2582
23.0066
22.7642
22.497
22.1673
21.7292
21.1442
20.4373
19.8256
19.6157
19.4535
19.0349
18.6982
18.8568
19.1532
19.1577
617.682
448.129
23.657
24.4489
25
25.4816
25.922
26.337
26.738
27.1048
27.3792
27.503
27.4426
27.1791
26.702
26.0319
25.2487
24.4709
23.7917
23.2428
22.8006
22.4153
22.0524
21.7456
21.5701
21.3237
20.7368
19.8355
19.0657
18.9164
19.0012
18.9171
18.7623
18.7234
18.7698
619.961
449.862
24.234
25.114
25.7481
26.3151
26.824
27.2623
27.6273
27.9242
28.1412
28.2475
28.2155
28.0259
27.6584
27.0923
26.3291
25.4237
24.4775
23.5828
22.7742
22.0233
21.2774
20.5794
20.2815
20.6261
20.9858
20.8085
20.0955
19.2625
18.706
18.4081
18.2977
18.5425
19.1475
623.232
453.844
24.8818
25.6158
26.2259
26.8408
27.4383
27.9714
28.4012
28.715
28.9159
29.0038
28.9738
28.8193
28.5312
28.0927
27.4813
26.6892
25.7498
24.7299
23.6839
22.6179
21.491
20.2445
18.9398
18.1172
18.4853
19.7057
20.6256
20.5123
19.6966
18.7521
18.2394
18.4858
19.146
621.673
454.692
24.7517
25.3705
25.9646
26.6332
27.3368
28.0042
28.5754
29.0207
29.3311
29.5074
29.5534
29.4757
29.277
28.9527
28.4896
27.871
27.0926
26.1807
25.1819
24.1301
23.0129
21.7798
20.3609
18.7406
17.2371
16.7726
17.9714
19.7863
20.4442
19.9606
19.2758
18.9178
18.7939
617.232
454.17
24.3946
24.9007
25.4528
26.147
26.9283
27.6868
28.3476
28.8898
29.3101
29.6036
29.7709
29.816
29.7441
29.5581
29.2567
28.8345
28.2868
27.6173
26.8458
25.9975
25.0845
24.0978
23.0017
21.7334
20.2223
18.5098
17.1079
17.1188
18.6154
19.8034
19.9217
19.6797
19.2096
615.964
452.396
23.6011
23.9495
24.4551
25.2287
26.1885
27.1243
27.9081
28.5303
29.0182
29.3883
29.6452
29.7895
29.824
29.7523
29.5768
29.2984
28.9182
28.4423
27.8846
27.261
26.5822
25.8449
25.0229
24.0761
22.9415
21.5416
19.8305
18.0481
17.1465
17.9441
19.151
19.6314
19.5515
617.333
453.245
22.9198
22.8827
23.2421
24.0886
25.2963
26.4945
27.4661
28.1957
28.7346
29.1287
29.406
29.58
29.6568
29.6414
29.5377
29.3486
29.0777
28.7315
28.321
27.8569
27.3453
26.7826
26.1534
25.4321
24.5842
23.5622
22.3141
20.7946
19.1332
18.0401
18.3458
18.9548
19.2232
620.5
454.466
22.1749
21.808
22.0629
22.9778
24.3685
25.7677
26.9156
27.7821
28.4136
28.8581
29.1521
29.3255
29.3985
29.384
29.2903
29.1234
28.8892
28.596
28.2535
27.8703
27.4503
26.9923
26.4931
25.9495
25.3482
24.6511
23.8016
22.7445
21.4201
19.8528
18.6095
18.6836
19.5461
626.015
454.761
21.8051
21.5243
21.8099
22.5791
23.7107
24.9501
26.09
27.0421
27.7859
28.33
28.6943
28.9076
28.9978
28.9867
28.8901
28.7188
28.4823
28.1906
27.8539
27.4796
27.0725
26.6375
26.1922
25.769
25.3693
24.9231
24.3371
23.5328
22.3991
20.7726
19.1317
19.3241
20.6967
630.202
450.292
21.7526
22.0753
22.4181
22.7628
23.2141
23.8898
24.7571
25.6841
26.5467
27.2646
27.8054
28.1654
28.361
28.4162
28.3542
28.194
27.9522
27.6444
27.2837
26.8797
26.4379
25.9708
25.5232
25.1762
24.9342
24.6616
24.2131
23.4813
22.3454
20.7657
19.5366
19.9215
21.0676
628.446
443.97
22.5211
23.508
23.9282
24.0571
24.0105
23.937
24.0089
24.3247
24.8742
25.5583
26.2515
26.8502
27.2924
27.5548
27.6447
27.5796
27.3819
27.076
26.6846
26.2255
25.7074
25.1408
24.5883
24.2395
24.2004
24.1509
23.8673
23.2346
22.1579
20.78
19.9596
20.2241
20.8747
625.078
438.408
23.1813
24.8789
25.7871
26.3575
26.6498
26.6304
26.3041
25.7892
25.2952
25.0087
25.0246
25.3206
25.7809
26.258
26.6302
26.8273
26.8268
26.6384
26.2863
25.8023
25.209
24.5127
23.7368
23.1122
23.2074
23.6116
23.5215
23.0048
22.1099
21.0708
20.4828
20.4857
20.6786
622.698
436.058
22.9533
25.1043
26.4321
27.4848
28.4067
29.1542
29.6231
29.6963
29.3032
28.4957
27.4602
26.4581
25.735
25.4297
25.5109
25.803
26.0823
26.1894
26.0606
25.693
25.1052
24.3106
23.2976
22.1349
21.5933
22.6727
23.4616
23.1665
22.3901
21.5516
21.0452
20.817
20.5741
620.524
441.492
23.4176
25.0714
26.2271
27.2522
28.2738
29.3122
30.3606
31.3382
32.0723
32.3729
32.1191
31.2874
29.9704
28.3851
26.8561
25.7996
25.4653
25.5897
25.7414
25.6933
25.3706
24.7534
23.8262
22.537
21.0154
20.6179
22.2669
23.2105
22.8812
22.1914
21.5776
21.1064
20.5116
619.239
462.525
26.5129
27.0239
27.8414
28.8176
29.6974
30.407
31.0471
31.7737
32.6188
33.4019
33.8987
34.0158
33.7379
32.9993
31.6036
29.444
27.2224
25.9862
25.6695
25.6542
25.5666
25.2576
24.6542
23.6958
22.3063
20.6903
20.277
21.6923
22.5769
22.4464
22.0114
21.4782
20.7054
619.713
478.998
27.6221
27.8044
29.3986
31.0102
32.1504
32.8909
33.384
33.7521
34.0726
34.3515
34.5341
34.5701
34.4339
34.0939
33.4431
32.1877
30.0656
28.0017
26.9074
26.472
26.2212
25.9349
25.5099
24.868
23.9253
22.5914
21.0752
20.5108
21.4291
22.0067
21.9779
21.6684
21.0997
623.043
461.285
23.1754
25.1571
28.1045
29.9322
31.2615
32.2901
33.0639
33.6116
33.9592
34.1344
34.1586
34.0366
33.7477
33.2311
32.3824
31.1666
29.8754
28.9152
28.3025
27.8726
27.4984
27.1044
26.6388
26.0545
25.2944
24.2744
22.9118
21.4223
20.9357
21.6701
22.0196
22.023
21.8682
627.391
439.449
20.7082
21.492
21.9112
23.0243
25.1739
27.2984
28.9157
30.104
30.9495
31.4973
31.7858
31.8627
31.7931
31.6465
31.4502
31.184
30.8265
30.3941
29.9245
29.4386
28.9299
28.3774
27.7553
27.0328
26.1631
25.0621
23.5878
21.6424
20.0309
20.7029
21.7743
22.1602
22.2024
627.032
446.542
22.5233
20.6049
18.0938
15.6056
16.4205
20.2855
23.6297
25.9994
27.7217
28.9995
29.9411
30.6265
31.1179
31.4491
31.6336
31.6829
31.6129
31.4379
31.1662
30.8007
30.3398
29.778
29.1067
28.3097
27.3522
26.1592
24.5758
22.383
19.8441
19.0689
20.2803
21.0089
21.3255
624.143
455.802
23.3853
22.8295
21.8926
19.4572
15.854
17.5524
21.3675
24.0312
25.7512
26.9882
27.9832
28.8275
29.543
30.1293
30.5956
30.9591
31.2294
31.4014
31.4604
31.3921
31.1862
30.8373
30.3414
29.692
28.8731
27.8456
26.5118
24.6778
22.212
19.9531
19.5925
20.075
20.6435
624.057
454.161
22.6935
22.7034
22.7225
22.1923
19.8341
18.5552
21.0305
23.2804
24.8609
26.0498
27.0079
27.7857
28.4108
28.9196
29.3546
29.7532
30.1399
30.5165
30.854
31.0995
31.2042
31.146
30.9201
30.5246
29.9538
29.188
28.174
26.787
24.844
22.5072
21.0294
20.8811
21.2037
625.327
453.375
22.9512
22.3804
21.7572
20.9998
19.8956
18.3863
20.6578
23.1828
24.7816
25.8463
26.6308
27.2401
27.7253
28.1211
28.4565
28.7609
29.0668
29.409
29.8076
30.231
30.5831
30.7763
30.7833
30.6083
30.2516
29.6993
28.914
27.8149
26.2876
24.4117
22.9239
22.3316
22.0618
624.611
455.32
23.1197
22.693
22.1671
21.157
19.4484
17.49
18.9055
21.9546
23.8309
24.9985
25.8293
26.4683
26.9711
27.3681
27.6805
27.9299
28.1449
28.3642
28.6419
29.0284
29.4974
29.9103
30.1343
30.1406
29.9412
29.5323
28.8872
27.9595
26.7162
25.2739
24.032
23.1995
22.354
621.951
453.138
22.6662
22.6085
22.5007
21.991
20.6175
18.4012
17.4355
20.1645
22.4285
23.8755
24.8693
25.6174
26.2021
26.6596
27.0096
27.2682
27.4524
27.5853
27.7058
27.8801
28.1829
28.6185
29.046
29.2817
29.2619
28.9942
28.4742
27.6867
26.6532
25.4997
24.4328
23.4967
22.2946
619.895
449.918
22.8357
23.0087
23.0227
22.7926
22.1075
20.6402
18.5929
18.8955
21.0426
22.7478
23.9305
24.8065
25.4906
26.0317
26.4516
26.7629
26.9754
27.098
27.1476
27.1568
27.1887
27.338
27.6672
28.0726
28.3272
28.2952
27.9649
27.3525
26.5015
25.5207
24.5356
23.5452
22.1586
618.916
447.686
22.6233
23.0135
23.2663
23.3412
23.0359
22.0688
20.3014
18.4744
19.2998
21.2119
22.733
23.8288
24.6655
25.3329
25.8667
26.2825
26.5873
26.7832
26.8713
26.8572
26.7585
26.6271
26.5704
26.7008
26.9978
27.2494
27.2424
26.9221
26.3308
25.5508
24.6725
23.7
22.2707
619.169
448.013
22.4122
22.7799
23.1423
23.4565
23.5467
23.1562
21.9251
19.7645
18.2756
19.3675
21.1937
22.629
23.68
24.4925
25.151
25.6923
26.1288
26.4591
26.6748
26.7655
26.7239
26.555
26.2966
26.0424
25.9247
26.0052
26.1469
26.1219
25.8359
25.3208
24.6343
23.7808
22.4331
619.876
448.697
22.6908
23.0255
23.3386
23.6306
23.8019
23.7366
23.298
22.1792
20.1492
19.0329
20.0559
21.5796
22.8012
23.7206
24.4516
25.0662
25.5951
26.0429
26.3974
26.6376
26.7419
26.6939
26.4898
26.1519
25.7471
25.4003
25.2203
25.1583
25.0382
24.7541
24.2983
23.6614
22.5745
621.509
446.895
22.3639
22.8103
23.2563
23.6911
23.9778
24.0098
23.7649
23.2271
22.2145
20.6345
20.0156
20.9081
22.0971
23.0682
23.8277
24.4601
25.0216
25.5347
25.9943
26.3762
26.6483
26.7796
26.747
26.544
26.178
25.6904
25.1806
24.7687
24.4741
24.1955
23.8476
23.3886
22.613
623.645
446.543
22.0822
22.4283
22.8738
23.4158
23.8757
24.1069
24.0691
23.7695
23.1981
22.2715
21.1553
20.9702
21.7197
22.6102
23.356
23.9716
24.5147
25.0248
25.5144
25.9705
26.3619
26.6491
26.7954
26.7772
26.5831
26.2108
25.6839
25.0826
24.5255
24.0678
23.6769
23.3006
22.7758
626.053
446.034
22.0324
22.3523
22.7583
23.2641
23.7247
24.0353
24.1724
24.133
23.8969
23.4199
22.6655
21.9584
22.0063
22.5839
23.2066
23.7417
24.2109
24.6559
25.1032
25.5571
25.9975
26.384
26.6666
26.8016
26.7647
26.5391
26.1129
25.5058
24.8186
24.2063
23.7442
23.3863
22.9641
627.211
443.702
21.4877
21.8324
22.2711
22.8423
23.392
23.8136
24.0907
24.2314
24.2291
24.0559
23.6633
23.0626
22.6347
22.7652
23.1957
23.6425
24.0402
24.4085
24.7779
25.1686
25.5817
25.9931
26.3533
26.6012
26.6884
26.5863
26.27
25.7342
25.0558
24.4114
23.9193
23.5341
23.0595
626.831
443.676
21.329
21.5481
21.87
22.3651
22.8997
23.354
23.7042
23.9617
24.1293
24.1924
24.1189
23.8823
23.5763
23.488
23.678
23.9586
24.2296
24.4822
24.737
25.0175
25.3387
25.697
26.0575
26.3522
26.5069
26.4746
26.2289
25.7682
25.1669
24.5808
24.1028
23.6764
23.069
625.594
443.373
21.1205
21.2696
21.5322
21.9862
22.4847
22.9017
23.2282
23.4888
23.7036
23.8772
23.9959
24.0378
24.0243
24.0593
24.2068
24.3957
24.5707
24.7241
24.87
25.0291
25.2241
25.4725
25.77
26.0672
26.2708
26.2926
26.0956
25.6913
25.1615
24.6349
24.1686
23.694
22.9338
623.971
442.765
20.8095
20.8463
21.0031
21.425
21.9738
22.4458
22.8054
23.0853
23.3284
23.5731
23.8408
24.1144
24.351
24.5463
24.7182
24.8644
24.9805
25.0688
25.1381
25.2013
25.2771
25.3902
25.563
25.7898
26.0044
26.0945
25.9802
25.6613
25.2101
24.7267
24.2535
23.726
22.8414
622.893
443.107
20.7974
20.7103
20.6935
20.9392
21.4406
21.943
22.3397
22.6448
22.8981
23.1555
23.4807
23.8982
24.3333
24.693
24.9527
25.132
25.2536
25.3315
25.375
25.3926
25.3961
25.4043
25.4443
25.5416
25.6866
25.8022
25.782
25.5856
25.2513
24.8455
24.4008
23.8667
22.9428
622.8
443.084
20.8006
20.7098
20.6126
20.6594
21.0347
21.5597
22.0214
22.3747
22.6401
22.8557
23.086
23.4186
23.8875
24.3956
24.814
25.1108
25.3117
25.4426
25.5192
25.5511
25.5462
25.5159
25.4792
25.4637
25.4918
25.5445
25.542
25.4132
25.1566
24.8122
24.4057
23.8974
23.0055
623.099
443.496
21.0672
21.0744
20.9689
20.7775
20.8048
21.1971
21.6895
22.1161
22.451
22.7104
22.9278
23.1692
23.5252
24.0213
24.5413
24.9578
25.2558
25.4608
25.5949
25.6697
25.6909
25.6645
25.6017
25.5225
25.4543
25.416
25.3828
25.2909
25.1003
24.8197
24.4634
23.996
23.1519
623.718
444.326
21.63
21.8974
21.9665
21.7558
21.3848
21.3647
21.6775
22.0639
22.41
22.694
22.9226
23.1198
23.3415
23.6764
24.1609
24.6629
25.0744
25.3801
25.6007
25.7522
25.8394
25.8621
25.8222
25.729
25.6014
25.4659
25.3398
25.2093
25.0345
24.7937
24.484
24.0772
23.3532
625.379
445.027
22.1015
22.5958
22.8834
22.8861
22.5029
22.1739
22.1968
22.4102
22.6646
22.9057
23.1195
23.3069
23.4855
23.7013
24.0307
24.4729
24.9226
25.2961
25.5836
25.8024
25.9631
26.0636
26.0948
26.0491
25.9276
25.7435
25.5215
25.2907
25.0559
24.8049
24.5289
24.2022
23.6553
627.563
446.281
22.5584
23.1137
23.5217
23.6991
23.5032
23.187
23.0748
23.1334
23.2582
23.4012
23.5468
23.6917
23.8418
24.0128
24.2389
24.5502
24.9199
25.2772
25.5774
25.8201
26.0185
26.1784
26.2922
26.3406
26.3011
26.159
25.918
25.6155
25.2989
24.9924
24.6902
24.3478
23.7642
627.442
447.045
22.77
23.31
23.814
24.1595
24.2
24.0693
23.9671
23.9338
23.9428
23.9768
24.0321
24.1162
24.2442
24.4333
24.6908
25.0003
25.3288
25.632
25.8779
26.0671
26.2138
26.331
26.4232
26.4827
26.4872
26.4049
26.2138
25.9281
25.5954
25.2593
24.9267
24.554
23.9337
627.95
446.146
22.6056
23.141
23.7454
24.2461
24.5225
24.6372
24.6647
24.65
24.6158
24.5772
24.5511
24.5659
24.667
24.895
25.237
25.6135
25.9597
26.2428
26.4561
26.6083
26.7106
26.7715
26.7964
26.7868
26.7348
26.6209
26.4189
26.1236
25.7745
25.4269
25.0975
24.748
24.1927
628.999
443.542
22.2056
22.834
23.5476
24.1272
24.5059
24.7429
24.8766
24.9302
24.9249
24.8835
24.8346
24.8272
24.9452
25.2531
25.681
26.077
26.3906
26.6333
26.8259
26.9828
27.1089
27.2001
27.2437
27.2248
27.1387
26.9831
26.7498
26.4343
26.0637
25.6837
25.3079
24.8805
24.1511
627.33
439.13
21.2729
21.982
22.732
23.4164
23.9689
24.3944
24.6897
24.8584
24.9194
24.9004
24.8318
24.764
24.8031
25.0934
25.6245
26.1368
26.4919
26.7172
26.8685
26.9857
27.0939
27.2043
27.307
27.3691
27.3456
27.2117
26.9756
26.6627
26.3033
25.9213
25.5161
25.0236
24.1523
626.365
435.057
20.0177
20.5044
20.957
21.5712
22.3119
23.0903
23.7738
24.2637
24.5567
24.6878
24.6962
24.626
24.5568
24.6644
25.156
25.872
26.475
26.8645
27.0876
27.2
27.2406
27.242
27.2426
27.268
27.2927
27.2428
27.0656
26.774
26.4195
26.0432
25.6498
25.1825
24.3701
627.214
432.116
19.1511
19.473
19.5521
19.6424
19.9105
20.6017
21.7893
22.9252
23.7069
24.1592
24.3653
24.393
24.3003
24.1935
24.3418
24.9397
25.6874
26.3222
26.8079
27.1628
27.3998
27.5228
27.5427
27.4889
27.4072
27.3147
27.167
26.9193
26.5818
26.1894
25.7572
25.2289
24.3027
626.45
433.229
20.0258
20.7044
20.9146
20.7795
20.1747
19.2153
19.5971
21.242
22.7292
23.6569
24.1475
24.3343
24.3009
24.1131
23.9418
24.2652
25.1135
25.7972
26.246
26.5825
26.8711
27.1322
27.3492
27.4827
27.505
27.4283
27.2809
27.0673
26.7815
26.4254
25.9963
25.435
24.4272
626.697
442.086
22.2976
23.1186
23.678
23.9191
23.4274
21.5832
20.2771
21.3755
22.9878
24.0036
24.5134
24.7117
24.6843
24.4509
24.0266
23.7105
24.3312
25.5564
26.3193
26.6897
26.8858
27.0102
27.1181
27.2354
27.3316
27.3379
27.2237
27.0142
26.744
26.4272
26.0579
25.589
24.7775
629.219
457.331
24.108
24.0819
24.5626
25.0606
24.85
23.807
23.4348
24.4725
25.2701
25.6752
25.8721
25.9142
25.8041
25.5343
25.0656
24.414
24.0314
24.6003
25.7152
26.5608
27.0217
27.2431
27.3267
27.3429
27.3517
27.3527
27.2748
27.0776
26.7882
26.4465
26.0702
25.6229
24.8793
629.629
461.35
23.7044
23.3741
24.0748
24.8147
25.353
26.0639
26.6328
26.9675
27.2173
27.3859
27.4585
27.4264
27.2806
27.0029
26.5549
25.8963
25.1088
24.5756
24.7291
25.4586
26.2943
26.9177
27.2718
27.4127
27.4246
27.3992
27.3623
27.2545
27.0384
26.726
26.3305
25.784
24.7133
626.087
446.268
21.1936
22.8694
24.6417
25.6196
26.315
26.8994
27.4206
27.8734
28.2362
28.5018
28.6695
28.7382
28.7033
28.5539
28.2699
27.8209
27.1831
26.4047
25.6786
25.2931
25.4209
25.9635
26.6094
27.079
27.2857
27.2875
27.1906
27.0591
26.8879
26.6528
26.3291
25.8322
24.7623
625.594
433.686
20.3165
21.531
22.3213
23.2855
24.4134
25.4904
26.4812
27.3319
28.0256
28.5754
28.9974
29.3018
29.4925
29.5676
29.5198
29.3357
28.9978
28.4887
27.8133
27.0415
26.3455
25.9716
26.0858
26.5534
27.0022
27.1975
27.1381
26.9196
26.6347
26.3275
25.9963
25.5904
24.8647
629.072
435.548
19.992
19.1756
17.7753
17.5749
19.9271
22.3471
24.1778
25.5859
26.7162
27.6333
28.3767
28.9737
29.4392
29.7765
29.9801
30.0388
29.9399
29.6718
29.2195
28.5733
27.7541
26.8712
26.187
26.0394
26.4451
26.9652
27.2592
27.271
27.0744
26.7704
26.4242
26.0193
25.3039
629.448
445.926
21.5893
20.4011
18.1537
14.7641
16.7661
20.4581
23.105
24.757
25.898
26.8453
27.6963
28.445
29.0893
29.6224
30.0298
30.2956
30.3972
30.3124
30.0283
29.5248
28.7695
27.751
26.5917
25.7152
25.6587
26.2674
26.8615
27.1437
27.1403
26.9468
26.6313
26.154
25.0954
625.494
458.995
22.261
20.2254
18.3942
17.2149
20.0942
23.0044
24.3158
25.2238
26.0623
26.8642
27.6118
28.3017
28.9331
29.5013
30.0154
30.4565
30.7413
30.8207
30.6973
30.3661
29.7897
28.9112
27.732
26.5013
25.8118
25.9754
26.4615
26.7688
26.8207
26.6662
26.3446
25.8181
24.7243
626.512
459.345
20.4888
17.441
17.0016
21.0786
23.2606
24.1999
24.9777
25.7218
26.4184
27.0658
27.6654
28.2169
28.7328
29.2457
29.7847
30.3305
30.795
31.082
31.1577
31.0306
30.6974
30.1223
29.2593
28.1518
27.0994
26.5658
26.5856
26.7387
26.764
26.6216
26.3342
25.9141
25.2335
632.675
448.374
18.8112
16.6856
16.7872
20.9756
22.5777
23.6148
24.5268
25.3649
26.122
26.7955
27.3885
27.9088
28.3735
28.8075
29.2391
29.6887
30.1531
30.5892
30.9284
31.1088
31.0968
30.8766
30.4242
29.7074
28.7561
27.7827
27.1152
26.8429
26.7513
26.6547
26.5003
26.2862
25.9353
635.076
445.032
20.7826
19.3624
16.2729
16.156
19.5533
21.5383
22.855
23.9664
24.9677
25.8545
26.6234
27.281
27.8385
28.3097
28.7103
29.0579
29.3724
29.6753
29.9766
30.2655
30.5049
30.6378
30.6047
30.3536
29.8367
29.0382
28.0822
27.2653
26.769
26.4895
26.2737
26.0085
25.4217
629.671
448.787
21.6986
20.5816
18.5786
10.8423
13.9722
18.4327
20.8258
22.322
23.4956
24.5325
25.48
26.3396
27.0923
27.7329
28.2658
28.6908
29.0083
29.2308
29.3832
29.4962
29.5996
29.7099
29.8129
29.8553
29.7528
29.4157
28.8136
28.0865
27.4755
27.0435
26.6906
26.2389
25.1509
624.372
452.629
21.2686
19.8473
18.0367
13.0705
8.44612
16.0299
19.6277
21.3265
22.4731
23.5126
24.5329
25.5051
26.4036
27.2049
27.8993
28.4897
28.9555
29.2678
29.4265
29.451
29.3726
29.2322
29.0752
28.9356
28.8099
28.6424
28.3619
27.9726
27.5663
27.1889
26.7981
26.234
24.8754
622.249
453.206
21.4723
20.2832
18.6579
15.4437
5.92385
14.7515
18.8542
20.6818
21.8107
22.7863
23.7796
24.7724
25.7865
26.8239
27.7968
28.6226
29.2597
29.6991
29.9477
30.0179
29.9274
29.698
29.3607
28.9606
28.5527
28.1821
27.8586
27.5625
27.2702
26.953
26.5687
26.0119
24.8575
626.306
451.995
21.5812
20.5706
19.1171
15.5699
9.08048
10.678
16.976
19.5701
20.9165
21.9168
22.9036
24.0234
25.3002
26.6295
27.8458
28.8429
29.6018
30.1458
30.5022
30.6879
30.7108
30.5779
30.299
29.8898
29.3796
28.8181
28.2687
27.7791
27.3523
26.9569
26.5572
26.1085
25.455
633.643
453.269
21.6755
20.544
19.3183
17.2998
12.8131
8.47119
13.9318
18.0873
19.9881
21.1788
22.2369
23.438
24.8703
26.4028
27.7898
28.8882
29.7083
30.3127
30.7505
31.0456
31.2046
31.2252
31.1035
30.835
30.4159
29.8558
29.1995
28.534
27.9471
27.4729
27.095
26.7747
26.3856
636.166
455.64
21.75
20.2264
18.4522
15.9915
12.636
6.73416
7.92558
17.0523
19.4689
20.73
21.7793
22.9649
24.4249
26.0675
27.6092
28.8115
29.6648
30.2732
30.7187
31.04
31.2485
31.3431
31.3171
31.1604
30.8565
30.3913
29.7832
29.1075
28.4649
27.9046
27.4019
26.8368
25.7956
628.199
456.379
21.6085
19.8082
17.728
15.323
12.4732
7.18153
7.50368
14.3944
19.0912
20.5811
21.6295
22.7295
24.037
25.5411
27.0911
28.4402
29.4365
30.1162
30.58
30.8926
31.0772
31.1354
31.0667
30.8826
30.6002
30.2228
29.7533
29.2207
28.667
28.1031
27.4777
26.5641
24.5987
620.31
456.099
21.2378
19.1379
16.7033
14.5244
12.7999
9.91879
4.69872
9.79469
17.0203
19.9076
21.042
22.0412
23.2387
24.6273
26.0997
27.5243
28.7482
29.674
30.3089