/*--------------------------------*- C++ -*----------------------------------*\
| =========                 |                                                 |
| \\      /  F ield         | OpenFOAM: The Open Source CFD Toolbox           |
|  \\    /   O peration     | Version:  v1906                                 |
|   \\  /    A nd           | Web:      www.OpenFOAM.com                      |
|    \\/     M anipulation  |                                                 |
\*---------------------------------------------------------------------------*/
FoamFile
{
    version     2.0;
    format      ascii;
    class       volVectorField;
    location    "93";
    object      U;
}
// * * * * * * * * * * * * * * * * * * * * * * * * * * * * * * * * * * * * * //

dimensions      [0 1 -1 0 0 0 0];


internalField   nonuniform List<vector> 
78750
(
(0.206562 0.413615 0.788881)
(-0.170227 -0.0728312 -1.22341)
(0.362848 0.0877036 -1.35291)
(-0.092129 -0.0581313 -1.72739)
(0.415461 -0.144894 -1.67202)
(-0.00437062 -0.103871 -1.47101)
(0.380979 -0.116891 -1.30355)
(0.162621 -0.0638695 -1.07798)
(0.36392 -0.0749555 -0.939855)
(0.262891 -0.0460352 -0.786431)
(0.359976 -0.0528533 -0.660747)
(0.330609 -0.0415024 -0.567178)
(0.370766 -0.0431654 -0.478048)
(0.361365 -0.0387981 -0.415873)
(0.379817 -0.0377671 -0.360827)
(0.380437 -0.0362653 -0.321442)
(0.386395 -0.0346779 -0.28992)
(0.387329 -0.0330918 -0.267599)
(0.387994 -0.0311258 -0.251415)
(0.386933 -0.0289852 -0.240236)
(0.38433 -0.0265948 -0.232713)
(0.380146 -0.0240782 -0.227698)
(0.374289 -0.021351 -0.224616)
(0.366814 -0.0184335 -0.222408)
(0.357434 -0.0150948 -0.221049)
(0.346079 -0.0119405 -0.219507)
(0.332211 -0.0073328 -0.219157)
(0.315624 -0.00307244 -0.213526)
(0.296117 0.00109796 -0.215942)
(0.272146 0.00201574 -0.215756)
(0.245837 0.0222736 -0.185812)
(0.208052 0.00145774 -0.192089)
(0.179314 -0.00363961 -0.348275)
(0.130115 0.0802609 0.0913655)
(0.0440576 0.131872 0.536989)
(-0.0109148 -0.0365256 -0.0322555)
(0.0682719 0.40987 -0.976121)
(0.0279206 0.231882 0.100739)
(0.0761549 0.324665 -0.264356)
(0.0456441 0.241248 0.117214)
(0.0500851 0.142522 -0.0221252)
(0.057336 0.213793 0.111298)
(0.0291143 0.065248 0.0399645)
(0.0806286 0.233106 0.0223012)
(0.0401314 0.0409675 0.168091)
(0.086966 0.145464 0.0387777)
(0.0769521 0.119228 0.0669099)
(0.0992557 0.110476 0.062168)
(0.105243 0.1141 0.0523052)
(0.116642 0.117364 0.0408524)
(0.1272 0.123126 0.0293948)
(0.135499 0.129915 0.017539)
(0.143252 0.13792 0.00561087)
(0.150185 0.147003 -0.00643287)
(0.155996 0.156809 -0.018086)
(0.16079 0.167112 -0.0289476)
(0.164537 0.177806 -0.0385782)
(0.167168 0.188863 -0.0466149)
(0.16863 0.200436 -0.0526628)
(0.168892 0.212984 -0.0565014)
(0.167786 0.226884 -0.0576812)
(0.165249 0.24283 -0.0560231)
(0.160952 0.26094 -0.0502183)
(0.154818 0.282759 -0.0408332)
(0.145126 0.307371 -0.0214554)
(0.135067 0.341016 0.00539807)
(0.115304 0.374596 0.0412045)
(0.091408 0.434438 0.138257)
(0.0532016 0.498278 0.401058)
(0.0162303 0.468699 0.449258)
(-0.0823463 -0.18536 -0.463258)
(-0.00589572 -0.316245 -0.521279)
(-0.0895181 -0.178807 -0.00722438)
(-0.00913902 -0.219711 -0.018854)
(-0.0415991 -0.0572926 0.0816134)
(-0.0040941 -0.170549 0.0828533)
(-0.0236775 -0.115229 0.0922978)
(-0.00437942 -0.168664 0.104408)
(-0.0206991 -0.151595 0.0982724)
(-0.00726559 -0.201001 0.0887216)
(-0.0270132 -0.18423 0.0964608)
(-0.016826 -0.179827 0.0830517)
(-0.0230757 -0.168262 0.0727992)
(-0.0177093 -0.152964 0.0615571)
(-0.0141763 -0.136433 0.0507473)
(-0.00750501 -0.117701 0.040497)
(0.000208402 -0.0967685 0.0307934)
(0.00853654 -0.0744472 0.0219466)
(0.017079 -0.0513698 0.0142233)
(0.0254132 -0.0281852 0.0076844)
(0.0332709 -0.00434705 0.00222529)
(0.0404181 0.0200393 -0.00198566)
(0.0467355 0.0447178 -0.00466917)
(0.0521154 0.0696635 -0.00560732)
(0.0564303 0.0949485 -0.00461425)
(0.0596162 0.120763 -0.00143965)
(0.0616264 0.147588 0.00432536)
(0.0623068 0.17619 0.0135311)
(0.0614352 0.208095 0.0274582)
(0.0583151 0.244292 0.048908)
(0.0534091 0.288886 0.0808269)
(0.0449053 0.342142 0.133727)
(0.0323349 0.413919 0.233796)
(0.0165076 0.454704 0.329458)
(0.0068869 0.412339 0.29905)
(0.00170954 -0.0986538 -0.207272)
(-0.0339803 -0.0299661 -0.0951474)
(-0.026975 -0.146186 -0.0476635)
(-0.0357969 -0.16003 -0.0381248)
(-0.0181102 -0.190944 -0.036969)
(-0.00202418 -0.102864 -0.0299986)
(0.0131595 -0.064515 -0.0136807)
(0.0239624 0.0108164 0.00345464)
(0.0310223 0.0581242 0.0245812)
(0.0301272 0.0975722 0.0411109)
(0.0256544 0.106858 0.0519633)
(0.0185321 0.100193 0.0588757)
(0.0104289 0.0824359 0.0610799)
(0.00215761 0.0623959 0.0581177)
(-0.00465844 0.0473962 0.0513381)
(-0.00998688 0.0391941 0.0423872)
(-0.0138627 0.0377607 0.0321461)
(-0.0165782 0.0428618 0.0210274)
(-0.0181093 0.0538582 0.00973653)
(-0.0183473 0.0688624 -0.000626551)
(-0.0175365 0.0864838 -0.00940683)
(-0.016059 0.105844 -0.0163097)
(-0.0141398 0.126206 -0.0210251)
(-0.0119924 0.147072 -0.0232833)
(-0.00984164 0.168349 -0.022904)
(-0.00781978 0.190276 -0.0197108)
(-0.00593722 0.213418 -0.0134554)
(-0.00414592 0.23854 -0.00365106)
(-0.00242468 0.266487 0.0105961)
(-0.000972822 0.297956 0.0307278)
(5.92155e-05 0.331977 0.0584604)
(0.000768263 0.366426 0.0973973)
(0.00122412 0.399192 0.150736)
(0.000729666 0.410873 0.185938)
(0.00111172 0.370912 0.168362)
(-0.0152705 -0.17956 -0.0548361)
(-0.00349866 -0.3416 -0.0174555)
(0.00307641 -0.330452 -0.00722511)
(0.00853456 -0.33361 0.00409432)
(0.0040484 -0.307762 0.00356432)
(2.12988e-05 -0.292849 -0.00156554)
(-0.00289585 -0.264234 -0.0029744)
(-0.00383755 -0.226948 0.00258097)
(0.000187303 -0.185592 0.0143815)
(0.00564656 -0.146911 0.0304033)
(0.0124213 -0.112518 0.0474114)
(0.0176883 -0.0839566 0.0620132)
(0.0196346 -0.0641674 0.0706368)
(0.0183832 -0.0532191 0.0733124)
(0.0145318 -0.0471414 0.072283)
(0.00850646 -0.0419209 0.0687572)
(0.00223742 -0.0346214 0.0641458)
(-0.0031435 -0.0244274 0.0588693)
(-0.007366 -0.0115335 0.0521633)
(-0.0103765 0.0040966 0.0436436)
(-0.012053 0.0225111 0.0337636)
(-0.0123552 0.0436341 0.0232969)
(-0.0113589 0.067125 0.0130867)
(-0.00947056 0.0923131 0.00389671)
(-0.00714771 0.118035 -0.0036061)
(-0.00465219 0.143068 -0.00888439)
(-0.00219058 0.166841 -0.0115667)
(0.000289771 0.189757 -0.0113965)
(0.00304808 0.213077 -0.00805524)
(0.00624817 0.238013 -0.000924661)
(0.00966215 0.264676 0.0109604)
(0.0127459 0.293226 0.0300533)
(0.013192 0.328585 0.0631704)
(0.0101592 0.36085 0.0953707)
(0.0046995 0.341872 0.100261)
(0.00172224 -0.0763973 0.0638744)
(0.00540362 -0.235287 -0.0118578)
(0.00187329 -0.253303 -0.0281005)
(0.00222745 -0.21916 -0.0357115)
(0.000698935 -0.167754 -0.0310376)
(-0.000681067 -0.120159 -0.0334571)
(-0.0037281 -0.0889195 -0.0390777)
(-0.00638409 -0.0681684 -0.0420335)
(-0.00864217 -0.0512642 -0.0405457)
(-0.0102545 -0.0321569 -0.0326708)
(-0.0111056 -0.00694096 -0.0159063)
(-0.0111819 0.0243381 0.00693853)
(-0.0113391 0.0573844 0.0271035)
(-0.0121011 0.084056 0.0367936)
(-0.0135351 0.0992453 0.036251)
(-0.0160634 0.105456 0.0303984)
(-0.0201121 0.105025 0.0231595)
(-0.0250062 0.101638 0.0197978)
(-0.0298485 0.0993941 0.0210068)
(-0.0338759 0.0996491 0.0234473)
(-0.0366869 0.102015 0.0239057)
(-0.0382314 0.106558 0.0215562)
(-0.0383496 0.114533 0.0165433)
(-0.0366728 0.127662 0.00941903)
(-0.0332093 0.146223 0.00158084)
(-0.0284602 0.168244 -0.00536625)
(-0.0230326 0.190828 -0.0103695)
(-0.0174781 0.211364 -0.0129009)
(-0.0121773 0.228754 -0.0128467)
(-0.00711824 0.244671 -0.0101615)
(-0.00208518 0.263297 -0.00380735)
(0.00263637 0.291554 0.0100596)
(0.00459692 0.336573 0.0372286)
(0.00344925 0.371279 0.0604474)
(0.00142834 0.353522 0.0657107)
(0.00676453 -0.22007 0.00322177)
(0.00783164 -0.242966 0.0703661)
(0.00255235 -0.23632 0.0829321)
(-0.000385629 -0.237547 0.0777255)
(-0.00103039 -0.234813 0.066152)
(7.13885e-05 -0.223027 0.0543485)
(0.00208649 -0.201009 0.0420446)
(0.00385699 -0.172856 0.0280907)
(0.00525504 -0.143669 0.0138171)
(0.00653979 -0.116251 0.0015681)
(0.00804337 -0.0919558 -0.00658534)
(0.00997772 -0.0711295 -0.00943191)
(0.0124373 -0.0522311 -0.00637935)
(0.0152752 -0.0320121 0.00417429)
(0.0177232 -0.00691513 0.0247873)
(0.0188195 0.0228697 0.0528155)
(0.0178792 0.0517464 0.0764685)
(0.0154724 0.069945 0.0835201)
(0.0123907 0.0782817 0.0738672)
(0.00901007 0.0813356 0.0498771)
(0.00612653 0.0839605 0.0286057)
(0.00394676 0.087279 0.018732)
(0.00231549 0.0912634 0.0160253)
(0.00112457 0.0973742 0.0165999)
(0.000584512 0.107913 0.0178205)
(0.000994209 0.124298 0.0174188)
(0.00247906 0.146172 0.0145194)
(0.00476869 0.172219 0.0102839)
(0.00716785 0.199859 0.00671251)
(0.00879586 0.225963 0.00536118)
(0.00929718 0.252229 0.00732268)
(0.00888238 0.288834 0.0153748)
(0.00718192 0.342829 0.0331493)
(0.0046211 0.375989 0.0470535)
(0.00253945 0.354227 0.0490389)
(-0.00119993 -0.222151 0.00770596)
(0.00371544 -0.276067 -0.00959531)
(0.0111433 -0.278471 -0.0134909)
(0.0180931 -0.262642 -0.0129799)
(0.0236744 -0.233805 -0.0105816)
(0.0269105 -0.20064 -0.00854628)
(0.0282788 -0.170282 -0.00675806)
(0.028422 -0.144298 -0.00494572)
(0.0277835 -0.121184 -0.00371632)
(0.0266589 -0.0979896 -0.00399783)
(0.0252998 -0.0709955 -0.00669511)
(0.0240594 -0.0382022 -0.0118589)
(0.0232479 -0.00255571 -0.0173591)
(0.0227339 0.0299232 -0.0197709)
(0.0224582 0.0549615 -0.0170907)
(0.0224969 0.072983 -0.00950375)
(0.0226382 0.0866546 0.00249681)
(0.0224694 0.0982837 0.0187646)
(0.0214136 0.109528 0.0375696)
(0.0188118 0.119795 0.0522556)
(0.0153602 0.126705 0.0574597)
(0.0114057 0.130601 0.0533323)
(0.0070629 0.133675 0.0399746)
(0.00353466 0.138546 0.0255582)
(0.00104408 0.145822 0.0176498)
(-0.00058335 0.155068 0.0142513)
(-0.00116204 0.167099 0.0123507)
(-0.000495804 0.18417 0.0106314)
(0.00136528 0.209 0.00929611)
(0.00354938 0.241312 0.00971188)
(0.00442314 0.277096 0.0132051)
(0.00344492 0.318099 0.0204846)
(0.00225445 0.365859 0.0313113)
(0.00118742 0.3903 0.0385486)
(0.00088586 0.359562 0.0378593)
(0.000643335 -0.214545 0.0296877)
(0.00421731 -0.318456 0.0448784)
(0.00703598 -0.331158 0.0436468)
(0.0108391 -0.323566 0.0368228)
(0.0152637 -0.298676 0.0242045)
(0.0182887 -0.259701 0.00893351)
(0.0195063 -0.216954 -0.00484128)
(0.0196444 -0.176684 -0.0154294)
(0.0191614 -0.141432 -0.0225438)
(0.0182305 -0.112304 -0.0265068)
(0.0171288 -0.0892011 -0.0281167)
(0.016277 -0.0703555 -0.0284128)
(0.0160719 -0.0525941 -0.0281851)
(0.0169342 -0.0320664 -0.027781)
(0.0190597 -0.00573785 -0.0270723)
(0.0219026 0.0254391 -0.0250637)
(0.024529 0.0564479 -0.0202142)
(0.0261945 0.0823973 -0.0116863)
(0.0266953 0.102319 0.000514322)
(0.0260634 0.118245 0.0165151)
(0.0240868 0.132157 0.0350234)
(0.0207839 0.143167 0.0484182)
(0.0169876 0.149993 0.0515129)
(0.0130128 0.15424 0.0462566)
(0.00927142 0.158177 0.0361)
(0.00667683 0.163616 0.0266523)
(0.00507126 0.171394 0.0200813)
(0.00427957 0.183086 0.0155668)
(0.00447821 0.202974 0.0122704)
(0.0058106 0.237784 0.0106656)
(0.0073496 0.288867 0.0125944)
(0.00687046 0.344614 0.0186577)
(0.00503791 0.391353 0.0259777)
(0.00319866 0.411357 0.030421)
(0.00174992 0.369414 0.0291458)
(-0.000191515 -0.28218 0.024429)
(0.0018766 -0.364641 0.0388572)
(0.00555267 -0.372657 0.0439193)
(0.0101824 -0.358448 0.0440321)
(0.0159095 -0.316677 0.0371004)
(0.0199865 -0.256735 0.0235365)
(0.0210752 -0.203325 0.00915791)
(0.0203319 -0.162939 -0.00312519)
(0.0191343 -0.130907 -0.0132704)
(0.0180756 -0.102669 -0.0217573)
(0.0171718 -0.0761921 -0.028676)
(0.0161978 -0.0515263 -0.0337943)
(0.0150383 -0.0296694 -0.0369224)
(0.0138721 -0.0109497 -0.038264)
(0.0130298 0.00608306 -0.0382311)
(0.0129025 0.0244704 -0.036859)
(0.0138805 0.0473324 -0.0335866)
(0.015729 0.0740204 -0.0275621)
(0.0174983 0.0995015 -0.0182695)
(0.0185805 0.12105 -0.0051776)
(0.018768 0.139365 0.0121335)
(0.0177443 0.15465 0.0300894)
(0.015687 0.165175 0.0411419)
(0.0132019 0.171366 0.0441163)
(0.0104762 0.17527 0.0413444)
(0.00783022 0.178846 0.0349686)
(0.0057832 0.183771 0.0278157)
(0.00444561 0.191508 0.0216824)
(0.00381472 0.204989 0.0167008)
(0.00415913 0.231761 0.0129149)
(0.00570574 0.282993 0.0118825)
(0.00661009 0.353986 0.015523)
(0.00521085 0.41222 0.0209022)
(0.00335108 0.433111 0.0239083)
(0.00163631 0.383292 0.0224175)
(-0.00314929 -0.270327 0.0468179)
(-0.00360415 -0.418404 0.0691119)
(-0.00246843 -0.446882 0.0690354)
(0.000489575 -0.442079 0.0643034)
(0.00598419 -0.401844 0.0541123)
(0.0138154 -0.322009 0.0374404)
(0.0197462 -0.238049 0.01891)
(0.021475 -0.176202 0.00327661)
(0.0204974 -0.135055 -0.00809455)
(0.018684 -0.105658 -0.0163681)
(0.0169596 -0.0819378 -0.0227657)
(0.015699 -0.0607983 -0.0278999)
(0.014954 -0.0409029 -0.0319272)
(0.0146035 -0.0218696 -0.0347715)
(0.0145378 -0.00349409 -0.0363516)
(0.0147273 0.0150239 -0.0366502)
(0.0152035 0.0353972 -0.0354698)
(0.0160583 0.0591013 -0.0323573)
(0.0170975 0.0848645 -0.0267642)
(0.0178148 0.109452 -0.0179316)
(0.0179001 0.131619 -0.00471626)
(0.0172083 0.151458 0.012289)
(0.0157001 0.167559 0.0276546)
(0.013722 0.178536 0.0362996)
(0.0115911 0.185607 0.0386083)
(0.00942255 0.190904 0.0364665)
(0.00742758 0.196397 0.031502)
(0.00588389 0.203981 0.025455)
(0.00488858 0.216526 0.0194063)
(0.00456252 0.241157 0.0137285)
(0.00533051 0.292258 0.00975699)
(0.00647825 0.373176 0.0103454)
(0.00532038 0.440837 0.0141366)
(0.00338053 0.462483 0.0166125)
(0.00151065 0.402366 0.0158206)
(-0.000746877 -0.289637 0.0456496)
(-0.00135065 -0.456346 0.0575547)
(-0.00285125 -0.496465 0.0573622)
(-0.00283413 -0.502242 0.0570701)
(-0.00114487 -0.484599 0.0576021)
(0.00494978 -0.418168 0.0553604)
(0.0146966 -0.307033 0.0450674)
(0.0215882 -0.205912 0.0277385)
(0.0231934 -0.140015 0.0108967)
(0.0220507 -0.0996443 -0.00178659)
(0.0198903 -0.0725025 -0.0107693)
(0.0175173 -0.0516764 -0.0172513)
(0.0152844 -0.0339965 -0.0219347)
(0.0133339 -0.0179532 -0.0250905)
(0.0116738 -0.00255029 -0.0267533)
(0.0102937 0.0133538 -0.0267617)
(0.00925975 0.0315291 -0.0246188)
(0.00867052 0.0540935 -0.0195591)
(0.00850782 0.081367 -0.0113395)
(0.00836511 0.10974 -0.00110386)
(0.00778227 0.13478 0.00969618)
(0.00680657 0.154965 0.0201966)
(0.00571448 0.170266 0.0285711)
(0.00471565 0.181091 0.0331057)
(0.00386765 0.188751 0.0339796)
(0.00315479 0.194809 0.0320395)
(0.00261733 0.200689 0.0281572)
(0.00231654 0.207808 0.0233462)
(0.00224377 0.218451 0.0183485)
(0.00241053 0.238972 0.0133253)
(0.00292896 0.286167 0.00890425)
(0.00379202 0.375857 0.0076453)
(0.00319867 0.45959 0.00998063)
(0.00189234 0.482725 0.0117479)
(0.00080271 0.415176 0.0112875)
(3.67289e-05 -0.323876 0.0411482)
(-0.00161355 -0.488378 0.0328608)
(-0.00575509 -0.52919 0.0238132)
(-0.0093315 -0.539845 0.0208498)
(-0.0124847 -0.537028 0.0229574)
(-0.0137065 -0.510238 0.0318731)
(-0.0081071 -0.418375 0.0436163)
(0.00248994 -0.28552 0.0437856)
(0.00961268 -0.179667 0.0315668)
(0.0123422 -0.112722 0.0166062)
(0.0126137 -0.0721307 0.0044733)
(0.0117847 -0.0449079 -0.0043305)
(0.0105352 -0.0241441 -0.0105995)
(0.00914506 -0.00668756 -0.01488)
(0.00773852 0.00899699 -0.0173444)
(0.00638685 0.0239255 -0.0179046)
(0.00517261 0.0392565 -0.0161662)
(0.00423071 0.0567586 -0.0111876)
(0.00374242 0.0785486 -0.00154929)
(0.00369187 0.104911 0.0129595)
(0.00355253 0.131584 0.028356)
(0.00298388 0.152668 0.0386713)
(0.00229527 0.166985 0.0430014)
(0.00172594 0.176744 0.0432642)
(0.00132947 0.184099 0.0408445)
(0.00109036 0.190711 0.0365935)
(0.00101847 0.19804 0.0311714)
(0.00114841 0.207628 0.0251855)
(0.00148034 0.222124 0.0189987)
(0.00193591 0.248348 0.012688)
(0.00231553 0.301935 0.00688501)
(0.00250247 0.395689 0.00416865)
(0.0020355 0.480505 0.00551291)
(0.00118669 0.501692 0.00713256)
(0.000536583 0.423352 0.00767982)
(0.00024095 -0.33681 0.0272226)
(-0.00213697 -0.483556 0.0107256)
(-0.00705211 -0.517174 0.0019071)
(-0.0125297 -0.526991 -0.00135737)
(-0.0185676 -0.52801 -0.000919985)
(-0.0243399 -0.520605 0.00415245)
(-0.0278523 -0.488084 0.0180693)
(-0.0222446 -0.388198 0.0368887)
(-0.0109452 -0.264555 0.0424434)
(-0.00181496 -0.167513 0.0343837)
(0.00380599 -0.104077 0.0214751)
(0.0063081 -0.0643137 0.00984535)
(0.00709793 -0.0369286 0.000937319)
(0.00694438 -0.015651 -0.00552496)
(0.00627186 0.00242036 -0.00987629)
(0.00532232 0.0186273 -0.0121673)
(0.00425285 0.033864 -0.0121919)
(0.00317488 0.0492794 -0.00933903)
(0.0022495 0.0665889 -0.00226576)
(0.00170477 0.0876003 0.0108988)
(0.00157728 0.11179 0.0294546)
(0.00143064 0.134098 0.0455947)
(0.00108688 0.150081 0.0519023)
(0.000785471 0.161362 0.0509125)
(0.00064878 0.170658 0.0465113)
(0.000646981 0.17935 0.040884)
(0.000660879 0.188226 0.0352056)
(0.000634368 0.198483 0.0297639)
(0.000622426 0.212939 0.0242908)
(0.000722914 0.239257 0.0182018)
(0.000931277 0.29573 0.0113763)
(0.0011142 0.39797 0.00620575)
(0.00103877 0.490335 0.0055822)
(0.000704744 0.51149 0.00661727)
(0.000450604 0.427473 0.00742713)
(-0.00102288 -0.344104 0.0136682)
(-0.00329313 -0.476894 0.00416253)
(-0.0064036 -0.503777 0.000293473)
(-0.010288 -0.510417 -0.00210569)
(-0.0154217 -0.509526 -0.0038764)
(-0.0213492 -0.503384 -0.00444777)
(-0.0274015 -0.49147 -0.00154421)
(-0.0315096 -0.45891 0.0111303)
(-0.0264273 -0.372504 0.0324037)
(-0.0150788 -0.26492 0.0457733)
(-0.00380908 -0.170597 0.0459736)
(0.00458556 -0.101433 0.0369889)
(0.00930179 -0.0549036 0.0251187)
(0.0112794 -0.0230094 0.0144588)
(0.011662 0.00136014 0.0062451)
(0.0111953 0.0219728 0.000568456)
(0.0102822 0.0403571 -0.00253752)
(0.0091198 0.0571992 -0.00282032)
(0.00782174 0.0732502 0.000336645)
(0.00652948 0.0896666 0.00823961)
(0.00540687 0.107486 0.0227288)
(0.00443501 0.125736 0.0429647)
(0.00330725 0.14081 0.0609389)
(0.00214218 0.15115 0.0682511)
(0.00135073 0.15976 0.0658813)
(0.00115041 0.1698 0.0579461)
(0.00142504 0.182467 0.0480788)
(0.00175336 0.197772 0.0388789)
(0.00181721 0.217547 0.0309002)
(0.00158167 0.249288 0.0233435)
(0.00114126 0.310591 0.0154757)
(0.000796877 0.414143 0.00893854)
(0.000760272 0.502893 0.00703846)
(0.000615585 0.521879 0.00759567)
(0.000439049 0.431482 0.00832198)
(-0.00163052 -0.333218 0.00811015)
(0.000176527 -0.474782 0.0120398)
(0.00173859 -0.50295 0.0114532)
(0.00277742 -0.507664 0.00836547)
(0.00294944 -0.502345 0.00290937)
(0.001447 -0.489551 -0.00492125)
(-0.00219439 -0.473339 -0.0134927)
(-0.00723609 -0.458851 -0.0190985)
(-0.012615 -0.439845 -0.0151473)
(-0.0125577 -0.386268 0.0050809)
(-0.005011 -0.301502 0.0301018)
(0.00523857 -0.21007 0.0467508)
(0.0145998 -0.129359 0.0499618)
(0.0207534 -0.0691494 0.042034)
(0.0231158 -0.0284523 0.0300551)
(0.0230217 0.000299976 0.0192643)
(0.0216793 0.0233277 0.0114586)
(0.0198131 0.0435746 0.00682156)
(0.0178107 0.0619696 0.00552418)
(0.0158057 0.0789079 0.00805507)
(0.0138614 0.0948327 0.0153369)
(0.0119979 0.109874 0.0285164)
(0.0100955 0.122875 0.0468617)
(0.00793882 0.132025 0.0648576)
(0.00577746 0.138135 0.0750703)
(0.00417717 0.145261 0.0753899)
(0.00351626 0.157387 0.0681463)
(0.00369056 0.176375 0.0567794)
(0.00407016 0.202527 0.0447713)
(0.0040661 0.240833 0.0335054)
(0.0034537 0.307162 0.0229926)
(0.00237462 0.415689 0.0144393)
(0.00171067 0.508449 0.0108892)
(0.0012353 0.527937 0.0105684)
(0.00075085 0.435677 0.0104708)
(0.000439186 -0.341461 0.0127988)
(0.00751278 -0.506351 0.0223052)
(0.0122248 -0.541266 0.0231341)
(0.0161908 -0.545823 0.0210045)
(0.0196232 -0.535884 0.0160959)
(0.0219088 -0.510952 0.00706938)
(0.0220818 -0.471333 -0.00676136)
(0.0190368 -0.427639 -0.0228863)
(0.0135324 -0.395588 -0.0360479)
(0.00730434 -0.376534 -0.0416923)
(0.00248494 -0.353169 -0.0342305)
(0.0028592 -0.302725 -0.00848324)
(0.00898906 -0.225795 0.024061)
(0.0175927 -0.140068 0.0474732)
(0.0247565 -0.0631572 0.0534818)
(0.0283326 -0.00748952 0.0446515)
(0.0285512 0.0277581 0.0317923)
(0.0272235 0.0519788 0.0215857)
(0.0252675 0.071422 0.0151962)
(0.023165 0.0882585 0.0125296)
(0.0210511 0.102962 0.0137262)
(0.0189111 0.115535 0.0191445)
(0.0166642 0.125699 0.0291466)
(0.0141522 0.132711 0.0432108)
(0.0112586 0.136167 0.05838)
(0.00833883 0.138273 0.0695254)
(0.00611366 0.144202 0.0731773)
(0.00509394 0.16004 0.0688326)
(0.00506829 0.190781 0.0578838)
(0.00507632 0.240083 0.0438874)
(0.00441131 0.319708 0.0298408)
(0.00327999 0.43339 0.0191878)
(0.00238231 0.521331 0.014861)
(0.00164971 0.53915 0.0139316)
(0.000934595 0.441791 0.0126784)
(0.00472574 -0.388928 0.0142016)
(0.0138396 -0.545944 0.0215449)
(0.0184596 -0.576434 0.0208651)
(0.0214311 -0.577017 0.0177059)
(0.0234279 -0.562615 0.0116106)
(0.0238318 -0.53385 0.00207069)
(0.0227575 -0.491612 -0.0100977)
(0.0210185 -0.437823 -0.0240475)
(0.0181958 -0.381641 -0.038664)
(0.0133341 -0.339602 -0.0506776)
(0.00770769 -0.316261 -0.0573112)
(0.00266632 -0.302481 -0.0573358)
(-0.00042598 -0.284088 -0.0457287)
(0.00166126 -0.24001 -0.0137682)
(0.00905255 -0.166078 0.0266315)
(0.0175392 -0.0820963 0.0531943)
(0.022505 -0.0151218 0.0555434)
(0.0232263 0.0269924 0.0435292)
(0.0218742 0.0533399 0.0314402)
(0.0200152 0.0737136 0.0235649)
(0.0180704 0.0913695 0.0198304)
(0.0162008 0.106464 0.0200898)
(0.0143718 0.118455 0.0242569)
(0.0124394 0.12684 0.0321334)
(0.0102339 0.1312 0.043218)
(0.00773493 0.131856 0.0558704)
(0.00547342 0.132081 0.0665055)
(0.00439537 0.139732 0.0713393)
(0.00502235 0.167069 0.0672467)
(0.00606484 0.222668 0.054033)
(0.00527548 0.310094 0.037588)
(0.00301294 0.431414 0.0243167)
(0.00148886 0.525278 0.0182374)
(0.000740482 0.543649 0.0162061)
(0.000414696 0.445857 0.0137488)
(0.00415525 -0.456355 0.0299508)
(0.00723614 -0.58061 0.0362015)
(0.00821383 -0.593673 0.0335821)
(0.00833116 -0.582967 0.0281269)
(0.00790999 -0.554119 0.0179885)
(0.00649238 -0.508764 0.00294589)
(0.00426304 -0.458323 -0.0129175)
(0.00220757 -0.410216 -0.0260575)
(0.00122571 -0.362549 -0.0366175)
(0.000992353 -0.316247 -0.0455776)
(-3.56968e-05 -0.279655 -0.0523648)
(-0.00273738 -0.256465 -0.0561895)
(-0.00577428 -0.24282 -0.057023)
(-0.00840401 -0.231777 -0.0534966)
(-0.00907365 -0.209414 -0.0360196)
(-0.00349899 -0.150654 0.00480872)
(0.00555827 -0.0661872 0.0435245)
(0.0120062 0.00862828 0.0579389)
(0.0139187 0.0560487 0.0509664)
(0.013071 0.0817343 0.0396447)
(0.0117082 0.0980542 0.032377)
(0.0102705 0.110828 0.0291976)
(0.00882017 0.12107 0.0295224)
(0.00737569 0.128306 0.033094)
(0.00581509 0.131821 0.0397237)
(0.00398428 0.130864 0.0491494)
(0.00195236 0.125602 0.0603103)
(0.000152694 0.121406 0.070723)
(0.000229724 0.141184 0.0742492)
(0.00235377 0.214538 0.0634417)
(0.00370356 0.330388 0.0436888)
(0.00268146 0.461329 0.0274296)
(0.00157734 0.542464 0.0207456)
(0.000987511 0.555057 0.0182215)
(0.000630798 0.44714 0.0148978)
(-0.00300932 -0.470703 0.0364551)
(-0.0081278 -0.58414 0.0324675)
(-0.0110358 -0.594068 0.028946)
(-0.0130228 -0.581162 0.0252557)
(-0.0137103 -0.54998 0.0196058)
(-0.0120277 -0.504376 0.011582)
(-0.00860557 -0.455457 0.0024264)
(-0.00485892 -0.410523 -0.00673268)
(-0.0017321 -0.370333 -0.0155473)
(0.000601332 -0.33268 -0.0238305)
(0.00220134 -0.296884 -0.031143)
(0.00267561 -0.266346 -0.0367489)
(0.00155807 -0.244112 -0.0402351)
(-0.000713019 -0.229625 -0.0417496)
(-0.00312876 -0.219527 -0.0412876)
(-0.00494451 -0.206552 -0.0356811)
(-0.00235414 -0.164919 -0.00827702)
(0.00625705 -0.0832656 0.0334875)
(0.0134396 -0.00424193 0.0566815)
(0.0157801 0.0455871 0.0573687)
(0.0149988 0.0739917 0.0493187)
(0.0133018 0.0912279 0.0427497)
(0.0115545 0.103201 0.0397797)
(0.00987271 0.111724 0.0398474)
(0.00827574 0.116672 0.0425409)
(0.00670034 0.117387 0.0476589)
(0.00501267 0.112924 0.0551913)
(0.00314316 0.103872 0.0647512)
(0.00202185 0.105921 0.0726863)
(0.00341176 0.161332 0.0715965)
(0.00549889 0.285708 0.0551703)
(0.00549925 0.438505 0.0358802)
(0.00413438 0.53565 0.0260614)
(0.00269847 0.553193 0.0220107)
(0.00143409 0.448458 0.0168838)
(-0.00760892 -0.414614 0.0171136)
(-0.0135307 -0.560188 9.52995e-05)
(-0.0163623 -0.583379 -0.00234159)
(-0.0168327 -0.584047 -9.43393e-05)
(-0.0151456 -0.572942 0.00539318)
(-0.0104907 -0.549332 0.0126399)
(-0.00307321 -0.510869 0.0189532)
(0.00588886 -0.458933 0.0218051)
(0.0143605 -0.400675 0.0198523)
(0.0204554 -0.345364 0.0132905)
(0.0235957 -0.298495 0.00392882)
(0.024203 -0.260461 -0.00574888)
(0.0228895 -0.23023 -0.0138087)
(0.0200113 -0.207304 -0.0193898)
(0.0160406 -0.190866 -0.0225353)
(0.0120105 -0.17915 -0.0235941)
(0.00819774 -0.167448 -0.0218217)
(0.00672375 -0.137336 -0.00653706)
(0.0124317 -0.0612502 0.0295151)
(0.0186988 0.0181943 0.0537598)
(0.0205055 0.0672748 0.0579018)
(0.0194337 0.0930768 0.0533804)
(0.0173627 0.10615 0.0487325)
(0.015156 0.112546 0.0466105)
(0.0130567 0.114837 0.0467813)
(0.0110665 0.1135 0.0489129)
(0.0090367 0.107548 0.053217)
(0.00684944 0.0971136 0.0594866)
(0.00472031 0.0952817 0.0656688)
(0.00428405 0.145325 0.0686287)
(0.00583941 0.289161 0.0581494)
(0.00493044 0.456466 0.0393464)
(0.00339743 0.557448 0.0281634)
(0.00209853 0.572776 0.0232471)
(0.00107837 0.462566 0.0174945)
(-0.00247787 -0.384183 -0.0123467)
(-0.00242393 -0.563941 -0.0373719)
(-0.00262826 -0.605267 -0.0417278)
(-0.00175743 -0.618985 -0.0404568)
(-0.000451768 -0.622514 -0.0357969)
(0.00150088 -0.616892 -0.0278329)
(0.00462405 -0.598648 -0.0161488)
(0.00960346 -0.56119 -0.00104656)
(0.0165881 -0.500818 0.0144577)
(0.0242887 -0.424328 0.0248607)
(0.0304265 -0.347744 0.026179)
(0.0334969 -0.28474 0.0197312)
(0.0336551 -0.238725 0.0101126)
(0.031765 -0.206496 0.00107895)
(0.0285001 -0.183976 -0.00571361)
(0.0243718 -0.168239 -0.00998964)
(0.0203473 -0.15717 -0.012057)
(0.0167511 -0.147386 -0.0119836)
(0.0140227 -0.127447 -0.00461742)
(0.0181456 -0.0618465 0.0241257)
(0.0246046 0.0132696 0.0481995)
(0.026932 0.0607205 0.0557196)
(0.0261469 0.0854519 0.0550092)
(0.0241839 0.0974872 0.0526198)
(0.0219312 0.102507 0.0511327)
(0.0196523 0.102758 0.0511486)
(0.0173325 0.0985964 0.0527159)
(0.0149105 0.0903945 0.0555097)
(0.0125074 0.0844945 0.0588951)
(0.0107401 0.112818 0.0625095)
(0.0109943 0.247189 0.0598226)
(0.0119758 0.438312 0.0450547)
(0.00892546 0.547694 0.0340819)
(0.00576265 0.567401 0.0277895)
(0.00253763 0.459897 0.0191099)
(0.00347817 -0.405621 -0.0267803)
(0.0067211 -0.5688 -0.047084)
(0.00739221 -0.603273 -0.0553264)
(0.0070732 -0.609896 -0.0602564)
(0.00599436 -0.606264 -0.0638571)
(0.00421106 -0.596311 -0.0653974)
(0.00210304 -0.58184 -0.0631657)
(0.000372779 -0.561313 -0.054854)
(0.000243366 -0.52708 -0.0381774)
(0.0031436 -0.469423 -0.015132)
(0.00879854 -0.391501 0.00527651)
(0.0148305 -0.311118 0.0153137)
(0.0191534 -0.244437 0.0152584)
(0.0212021 -0.196506 0.0100931)
(0.0212901 -0.164402 0.00419051)
(0.0199176 -0.143126 -0.000397218)
(0.0176284 -0.128601 -0.00320122)
(0.0150767 -0.117826 -0.00435426)
(0.0127233 -0.108017 -0.00370013)
(0.0108549 -0.0918475 0.00178611)
(0.0147135 -0.0358066 0.0250425)
(0.0210359 0.0316692 0.045602)
(0.0237479 0.0719455 0.0522083)
(0.0239773 0.0902439 0.0524386)
(0.0234663 0.0965 0.0513926)
(0.0228575 0.0962011 0.0507792)
(0.0222714 0.0915095 0.050941)
(0.0216881 0.0838903 0.0517954)
(0.0208946 0.0792808 0.0529721)
(0.0190128 0.108768 0.0540879)
(0.0135752 0.235336 0.0522797)
(0.0102793 0.44648 0.0421548)
(0.00835387 0.585254 0.0303547)
(0.00459104 0.610779 0.0240698)
(0.00171404 0.499533 0.016117)
(0.00241722 -0.441906 -0.0237328)
(0.00247965 -0.580498 -0.0336359)
(0.00219273 -0.602721 -0.0385018)
(0.00156544 -0.603607 -0.0426956)
(0.000809629 -0.595306 -0.0474554)
(-9.43444e-05 -0.580145 -0.0526765)
(-0.0013996 -0.560193 -0.0575729)
(-0.00327761 -0.537667 -0.0606176)
(-0.00546386 -0.512767 -0.0593718)
(-0.0069704 -0.480518 -0.050365)
(-0.00584228 -0.431831 -0.032445)
(-0.00135038 -0.366625 -0.0125634)
(0.00466555 -0.297611 0.000957143)
(0.00997428 -0.237554 0.00619227)
(0.013385 -0.192072 0.00593951)
(0.014738 -0.160604 0.00370163)
(0.0144486 -0.139657 0.00162091)
(0.0131568 -0.125419 0.00045948)
(0.0114625 -0.114695 0.000380124)
(0.00981954 -0.104482 0.00181369)
(0.00859689 -0.0879159 0.00746166)
(0.0123153 -0.0349198 0.0284653)
(0.017761 0.0245456 0.0457552)
(0.0197063 0.055026 0.0507392)
(0.0199514 0.0666151 0.0512748)
(0.0198254 0.0681001 0.0510735)
(0.0195979 0.063383 0.0511492)
(0.0190066 0.056306 0.0515917)
(0.019107 0.0587929 0.0520995)
(0.0151535 0.116048 0.0508101)
(0.0125602 0.280122 0.042351)
(-0.00234932 0.440014 0.0362859)
(-0.00845671 0.573193 0.030513)
(-0.00774319 0.591693 0.0229149)
(-0.00402472 0.478444 0.0118033)
(-0.00127928 -0.432795 -0.0200413)
(-0.00158269 -0.572337 -0.0255641)
(-0.000603651 -0.598832 -0.027183)
(0.000665871 -0.602964 -0.0289592)
(0.00223681 -0.596788 -0.0316341)
(0.00389183 -0.581485 -0.0356999)
(0.00531799 -0.557309 -0.0413999)
(0.0059988 -0.526434 -0.0481819)
(0.00554409 -0.493377 -0.0543581)
(0.00419267 -0.46134 -0.0575924)
(0.00282234 -0.428075 -0.055012)
(0.00292155 -0.386092 -0.0439053)
(0.00558256 -0.331071 -0.0265524)
(0.00993532 -0.269406 -0.010226)
(0.0140184 -0.212049 0.000209383)
(0.0163381 -0.166547 0.00472348)
(0.0164105 -0.134551 0.00578533)
(0.0145915 -0.113407 0.00574219)
(0.0115593 -0.0990825 0.00590124)
(0.00789497 -0.0880187 0.00696341)
(0.00386899 -0.0765386 0.00992844)
(0.000119369 -0.0564816 0.0181527)
(0.00144443 -0.00458457 0.0383984)
(0.00386084 0.0448938 0.0518861)
(0.00301954 0.0661039 0.0550274)
(2.28995e-05 0.0715578 0.055524)
(-0.00430078 0.0692836 0.0559966)
(-0.00962984 0.0653823 0.0568262)
(-0.0154188 0.0770345 0.0577113)
(-0.0197082 0.153328 0.0565758)
(-0.0114309 0.36609 0.0445072)
(-0.00325693 0.606791 0.0139825)
(-0.00324982 0.630868 0.00712145)
(-0.0013122 0.607552 0.00307024)
(-0.000508381 0.439458 -0.000115102)
(0.000332335 -0.42621 -0.0220954)
(0.004565 -0.587568 -0.0260638)
(0.00782319 -0.621036 -0.0279082)
(0.0106643 -0.627356 -0.0302444)
(0.0132956 -0.6218 -0.0336449)
(0.0154523 -0.605899 -0.0384865)
(0.0169992 -0.579252 -0.0448765)
(0.0178296 -0.542693 -0.0523451)
(0.0177559 -0.500717 -0.0596686)
(0.0166804 -0.460083 -0.06534)
(0.0149312 -0.42473 -0.0681254)
(0.0131764 -0.392912 -0.0667353)
(0.0123447 -0.358157 -0.0590638)
(0.0135534 -0.313302 -0.044025)
(0.0168018 -0.258364 -0.0256307)
(0.0204805 -0.201874 -0.0102313)
(0.0228513 -0.153316 -0.000769499)