/*--------------------------------*- C++ -*----------------------------------*\
| =========                 |                                                 |
| \\      /  F ield         | OpenFOAM: The Open Source CFD Toolbox           |
|  \\    /   O peration     | Version:  v1912                                 |
|   \\  /    A nd           | Website:  www.openfoam.com                      |
|    \\/     M anipulation  |                                                 |
\*---------------------------------------------------------------------------*/
FoamFile
{
    version     2.0;
    format      ascii;
    class       volScalarField;
    location    "378/sphere";
    object      ddt0((betavSolid*thermo:rho),h);
}
// * * * * * * * * * * * * * * * * * * * * * * * * * * * * * * * * * * * * * //

dimensions      [1 -1 -3 0 0 0 0];


internalField   nonuniform List<scalar> 
6600
(
-87560.5
-87576.8
-87575.2
-87612
-87566
-87565.4
-87576.3
-87684.1
-87707
-87640.9
-87574.8
-87706.3
-87728.9
-87665.9
-87631.6
-87665
-87612.5
-87574.7
-87610.5
-87566.1
-87574.8
-87705.6
-87728.7
-87666.1
-87607.2
-87728.3
-87750.6
-87688.7
-87576.4
-87562.8
-87664.3
-87686.8
-87647.3
-87573.6
-87565
-87638.4
-87666
-87608.2
-87563.7
-87664.1
-87687.6
-87647
-87605.4
-87646.3
-87586.3
-87574.2
-87574.4
-87574.2
-87572.7
-87574.4
-87561.4
-87612.1
-87578.3
-87665.7
-87641.7
-87688
-87667.1
-87641.5
-87687.6
-87665.8
-87576.9
-87561.4
-87611.8
-87577.8
-87666.1
-87665.3
-87641.2
-87611.8
-87577.5
-87577.4
-87561.6
-87572.5
-87572.4
-87571.9
-87570.9
-87566.5
-87571
-87572.2
-87567
-87570.8
-87572
-87566.6
-87572.8
-87581.9
-87565.1
-87564.8
-87606.3
-87646.1
-87565
-87565.3
-87646.4
-87608.4
-87586.6
-87564.2
-87606
-87563.8
-87645.7
-87575.8
-87575.3
-87609.8
-87640
-87665.3
-87664.6
-87686.7
-87572.6
-87590.6
-87585.8
-87623.9
-87612.7
-87604.1
-87628.9
-87565.9
-87608.1
-87647.3
-87566.1
-87564.3
-87564
-87645.7
-87606.3
-87609.7
-87560.2
-87576.6
-87664.9
-87686.4
-87640.2
-87664.9
-87578.3
-87577.8
-87561.5
-87687.7
-87666.9
-87665.7
-87642
-87647.3
-87566
-87608.6
-87581.8
-87564.8
-87605.8
-87646.2
-87565
-87646.5
-87608.3
-87565.4
-87586.6
-87572.5
-87573.6
-87605.4
-87564.1
-87563.5
-87645.2
-87575.6
-87631.8
-87664.4
-87575.1
-87609
-87664.5
-87685.9
-87561.6
-87665.4
-87641.5
-87610.4
-87577.4
-87686.7
-87666
-87612.6
-87565.6
-87647.1
-87565.6
-87570.9
-87631.5
-87575
-87663.6
-87574.6
-87663.9
-87607.3
-87684.6
-87561.8
-87666.4
-87578.5
-87665.7
-87578
-87688.5
-87614.4
-87576.3
-87571
-87663.7
-87631.5
-87607.3
-87685.5
-87574.8
-87664.7
-87577.9
-87641.7
-87562.4
-87688.3
-87614.5
-87666.6
-87578.1
-87576.4
-87605.7
-87562.9
-87645.6
-87563.9
-87664.6
-87575.7
-87664
-87685.9
-87574.8
-87609
-87641.3
-87576.3
-87561.5
-87686.9
-87666.2
-87610.4
-87577.9
-87647.2
-87566
-87565.6
-87572.7
-87573.7
-87572.7
-87573.7
-87563.8
-87562.9
-87645.3
-87605.2
-87609.1
-87663.8
-87685.8
-87575.9
-87631.4
-87664.9
-87577.4
-87686.7
-87665.9
-87576.2
-87561.4
-87665.5
-87641.4
-87647.2
-87565.8
-87612.3
-87571
-87663.7
-87607.3
-87684.7
-87631.2
-87574.5
-87664.5
-87578.4
-87688.5
-87614.5
-87641.2
-87562
-87666.2
-87578.1
-87576.3
-87570.8
-87685.3
-87574.7
-87663.7
-87574.4
-87664.8
-87631.6
-87614.5
-87667
-87578.4
-87666.4
-87578.4
-87641.7
-87562.3
-87645.4
-87564.1
-87605.5
-87685.6
-87574.8
-87609
-87631.1
-87664.4
-87575.7
-87666.4
-87610.3
-87577.7
-87665
-87641.4
-87576.6
-87561.3
-87566.1
-87565.5
-87612.7
-87572.6
-87581.3
-87564.5
-87605.4
-87646.1
-87564.2
-87646.4
-87608.4
-87565.3
-87586.5
-87606
-87563.5
-87645.3
-87564.3
-87664.7
-87663.5
-87686
-87560.2
-87576.4
-87575.3
-87609.6
-87647
-87565.5
-87566.1
-87645.2
-87605.4
-87564.1
-87686.3
-87639
-87664.6
-87575.6
-87609.4
-87560.3
-87576.3
-87566.2
-87607.9
-87565.7
-87581.3
-87646
-87564.6
-87564.8
-87608
-87565.3
-87565.2
-87563
-87559.5
-87558.8
-87562.3
-87560
-87564.8
-87560.4
-87564
-87560.4
-87564.1
-87560.3
-87563.4
-87559.8
-87558
-87558.7
-87567.3
-87566.7
-87560.9
-87571.8
-87570.7
-87566.2
-87564.4
-87560
-87563
-87559.8
-87567.1
-87566.8
-87577.8
-87613.2
-87578.8
-87593.5
-87593.5
-87572.7
-87592.7
-87586.3
-87624.4
-87614.1
-87604.1
-87630.6
-87572.1
-87590.6
-87585.5
-87623.6
-87612.6
-87603.9
-87628.8
-87566.9
-87567
-87577.8
-87612.9
-87578.3
-87593.4
-87593.2
-87573
-87592
-87586.3
-87624.1
-87613.6
-87604.3
-87629.9
-87591.5
-87572.8
-87586
-87624
-87613.3
-87629.7
-87604.3
-87591.1
-87572.5
-87585.8
-87623.6
-87612.7
-87628.9
-87604
-87567
-87566.9
-87577.7
-87613
-87578.7
-87593.8
-87593.7
-87560.2
-87558.2
-87567.3
-87566.3
-87560.3
-87567.2
-87566.1
-87560.2
-87559.9
-87565.7
-87565.5
-87575.7
-87610.7
-87577.1
-87592.3
-87592.1
-87565.4
-87574.3
-87562.2
-87586.4
-87620.9
-87570.7
-87610.9
-87581.6
-87626.5
-87602.1
-87562.4
-87591.4
-87567
-87569.7
-87584.8
-87561.4
-87564.4
-87573.3
-87561.9
-87566.9
-87590.2
-87584.4
-87568.9
-87604.2
-87563.5
-87574.3
-87563
-87588.5
-87571.9
-87589.2
-87622.6
-87572.1
-87611.7
-87587.6
-87603.8
-87583.1
-87627.5
-87562.5
-87565.5
-87574.5
-87604
-87573.6
-87562.3
-87562.9
-87587.7
-87588.5
-87571.5
-87619
-87610.1
-87569.3
-87586.1
-87600.6
-87625.6
-87579.9
-87564.6
-87560.8
-87560.7
-87562.8
-87571.8
-87578
-87586.6
-87585.7
-87630.2
-87567.7
-87603
-87601.7
-87560.2
-87619
-87586.5
-87610
-87569.4
-87625.7
-87580.3
-87600.5
-87633.4
-87605.4
-87644.3
-87600.3
-87639.3
-87594.4
-87638.4
-87567.5
-87591.2
-87561.4
-87569.6
-87585
-87618.9
-87610.1
-87586
-87569.7
-87625.7
-87600.5
-87580.1
-87565.3
-87561.3
-87629.8
-87641.5
-87597.7
-87597.3
-87635.9
-87635.6
-87589
-87573.2
-87573
-87567.9
-87565.8
-87588.7
-87559.8
-87567.9
-87582.6
-87558.3
-87571.1
-87567.9
-87563.8
-87560.9
-87563.1
-87572.3
-87566.7
-87561.9
-87589.6
-87583.8
-87568.4
-87560.7
-87563.2
-87572.6
-87629.5
-87583.5
-87602.4
-87577.5
-87583.3
-87601.4
-87565.6
-87565.5
-87588.4
-87560.8
-87583.2
-87567.5
-87576.2
-87628.2
-87581.2
-87581
-87600.3
-87600.1
-87564.4
-87566.7
-87569
-87568.9
-87562.3
-87558.4
-87566.5
-87567.1
-87560.2
-87559.1
-87565.6
-87565.2
-87565.1
-87561.7
-87564.2
-87573.7
-87561.7
-87589.6
-87566.3
-87568.4
-87583.8
-87561
-87563.6
-87572.3
-87566.2
-87560.5
-87589.5
-87568.6
-87582.8
-87576.3
-87582.3
-87580.8
-87628.5
-87564.6
-87601.3
-87599.3
-87561.3
-87590
-87584.3
-87566.6
-87568.6
-87565.4
-87574.3
-87562.4
-87566.7
-87561.9
-87590
-87568.7
-87584.3
-87562.2
-87565.4
-87574.3
-87583.6
-87629.5
-87602.1
-87577.5
-87583.5
-87565.7
-87601.5
-87567
-87568.8
-87568.6
-87562
-87561.3
-87564.2
-87573.5
-87560.8
-87566.2
-87589.8
-87583.9
-87568.4
-87561
-87563
-87571.6
-87576.2
-87581.8
-87580.5
-87628.3
-87564.3
-87601
-87599
-87566.1
-87559.9
-87589.2
-87568.3
-87582.7
-87587.4
-87571
-87611.6
-87581.9
-87627.5
-87621.4
-87602.7
-87570.7
-87586.5
-87581.6
-87621.1
-87611
-87602.5
-87626.6
-87561.8
-87591.3
-87584.6
-87566.9
-87569.7
-87583.5
-87629.3
-87601.8
-87577.3
-87582.9
-87565.7
-87601.6
-87562.5
-87565.6
-87574.5
-87567.2
-87562.7
-87590.9
-87569.2
-87584.9
-87565.9
-87560.5
-87589.7
-87568.4
-87583.6
-87561
-87564.4
-87573.2
-87565.8
-87588.9
-87559.8
-87568
-87582.2
-87560.5
-87562.7
-87571.5
-87575.8
-87582.3
-87628.2
-87580.7
-87600.8
-87564.4
-87599
-87599
-87599.8
-87644.1
-87631.8
-87590.8
-87637.6
-87638.1
-87610.6
-87565.7
-87565.8
-87577.2
-87575.8
-87591.7
-87592.3
-87588.3
-87621.3
-87571.6
-87612
-87582.1
-87627.8
-87602.7
-87592.4
-87573.1
-87614.2
-87586.1
-87630.5
-87624.5
-87605
-87591.5
-87573
-87586.3
-87624.1
-87613.2
-87629.3
-87604.4
-87567.1
-87566.7
-87577.9
-87613.4
-87578.7
-87594.2
-87593.6
-87562.6
-87565.7
-87574.8
-87567.2
-87590.8
-87562.1
-87569.3
-87584.6
-87577.9
-87583.7
-87629.8
-87583.9
-87602.6
-87565.6
-87601.8
-87562.5
-87565.5
-87574.5
-87566.4
-87565.6
-87565.2
-87566.5
-87560.8
-87589.9
-87583.8
-87568.7
-87576
-87582.3
-87628.1
-87580.7
-87600.6
-87563.7
-87599.1
-87561.3
-87563.3
-87572.2
-87566.5
-87589.8
-87561.4
-87568.8
-87583.3
-87562.4
-87565.5
-87574.4
-87577.3
-87583.5
-87629.5
-87583.4
-87602.3
-87565.3
-87601.2
-87567.2
-87590.2
-87561.7
-87569
-87584.7
-87562.2
-87565.3
-87574
-87566.9
-87569.1
-87568.9
-87562.3
-87559.1
-87558.7
-87566.8
-87565.9
-87559.9
-87560.5
-87567.9
-87571.2
-87564.3
-87563.7
-87559.9
-87560.9
-87563.4
-87572.7
-87560.8
-87563.1
-87571.9
-87575.8
-87581.1
-87580.6
-87627.7
-87564.2
-87600.1
-87598.9
-87565.8
-87560.7
-87588.8
-87583.1
-87567.7
-87565.7
-87559.9
-87588.5
-87582.5
-87567.7
-87619.2
-87570.4
-87610.8
-87586.8
-87601.1
-87580.6
-87626.4
-87619.5
-87570.6
-87586.1
-87610.5
-87580.4
-87602.3
-87625.8
-87630.5
-87598.7
-87598.1
-87643.2
-87589.7
-87637.1
-87636.6
-87612.2
-87566.6
-87578.9
-87566.7
-87593.4
-87576.7
-87593.3
-87633.4
-87600.3
-87605.4
-87644.3
-87594.3
-87638.3
-87639.3
-87623.1
-87572.2
-87590.9
-87613.3
-87584.5
-87604.2
-87629.2
-87578.2
-87586
-87585.9
-87630.3
-87567.5
-87602.5
-87602.5
-87562.5
-87565.8
-87574.8
-87566.9
-87561.8
-87590.6
-87584.6
-87568.9
-87567.1
-87562
-87590.6
-87584.6
-87569.1
-87557.3
-87558
-87565.4
-87565.4
-87559.3
-87618.7
-87569.6
-87610.3
-87585.8
-87600.7
-87580
-87625.3
-87619
-87569.5
-87609.9
-87585.8
-87601
-87580
-87625.5
-87629.9
-87597.3
-87597.7
-87641.6
-87589.2
-87635.7
-87636
-87613.5
-87579
-87567.3
-87567.2
-87594
-87594.1
-87578
-87624.9
-87573.4
-87614.1
-87593
-87605
-87586.9
-87631
-87624.4
-87572.8
-87613.8
-87592.5
-87604.5
-87586.1
-87630.5
-87635.8
-87608.1
-87608.1
-87648.1
-87598.5
-87641.9
-87641.8
-87565
-87560.5
-87565.2
-87560.2
-87572.9
-87573.1
-87567.4
-87558.2
-87565.8
-87565.4
-87560.1
-87557.5
-87604.6
-87562.5
-87573.7
-87562.6
-87587.9
-87571.3
-87588.7
-87630.2
-87598
-87641.6
-87597.5
-87636.1
-87589.6
-87635.9
-87619.2
-87569.7
-87586.2
-87610.3
-87579.9
-87601.4
-87625.6
-87624.6
-87613.8
-87572.9
-87592.4
-87604.6
-87630.6
-87586.5
-87613.7
-87567.7
-87579.5
-87567.4
-87594
-87578.3
-87594.2
-87635.7
-87608.1
-87648.1
-87608.3
-87641.7
-87598.9
-87641.8
-87624.6
-87572.9
-87592.6
-87613.9
-87586.4
-87604.6
-87630.7
-87573
-87573.1
-87567.7
-87564.9
-87560.7
-87575.8
-87580.4
-87581.6
-87627.9
-87564.2
-87598.9
-87600
-87561
-87563.4
-87572.3
-87566
-87559.8
-87588.9
-87583.1
-87568.2
-87565.8
-87560.5
-87588.9
-87582.8
-87567.9
-87604.2
-87573.7
-87563.1
-87562.8
-87588.5
-87588.5
-87571.7
-87619.6
-87611.1
-87570.3
-87587.4
-87601.6
-87626.8
-87580.9
-87619
-87569.9
-87610.2
-87585.8
-87601.3
-87580.3
-87625.4
-87630.8
-87599.5
-87643.1
-87598.4
-87637.5
-87590.6
-87636.4
-87622.2
-87611.7
-87571.7
-87588.1
-87603
-87627.5
-87583
-87611.8
-87578.7
-87566.1
-87566.7
-87592.6
-87593.3
-87576.5
-87633.5
-87600.5
-87644.2
-87605.5
-87638.5
-87594.3
-87639.3
-87623.1
-87572.4
-87613.6
-87591.6
-87603.9
-87584.9
-87629.5
-87562.6
-87565.9
-87574.9
-87562.2
-87565.5
-87574.2
-87567
-87562.2
-87590.6
-87584.4
-87568.9
-87567.2
-87561.2
-87590.9
-87584.6
-87569.2
-87560.1
-87558.9
-87567.3
-87566.3
-87561.5
-87568
-87571.3
-87564.5
-87563.7
-87559.9
-87558.7
-87566.4
-87567.2
-87561.5
-87559.4
-87571.2
-87568
-87564.2
-87563.3
-87559.6
-87559.5
-87565.7
-87588.6
-87560.1
-87567.6
-87582.5
-87565.4
-87588.5
-87558.9
-87567.7
-87582.4
-87560.7
-87563.1
-87571.8
-87560.8
-87563.4
-87572.1
-87575.7
-87627.6
-87580.2
-87581.1
-87598.9
-87599.7
-87564
-87630.9
-87598.7
-87643.3
-87599.3
-87636.8
-87590.6
-87637.4
-87604.1
-87562.5
-87563.2
-87573.6
-87571.6
-87588
-87588.6
-87619.7
-87587.2
-87570.5
-87611.2
-87580.9
-87626.8
-87601.7
-87622.8
-87590.9
-87613.3
-87572
-87629.1
-87584.4
-87603.6
-87622.3
-87588
-87571.9
-87611.6
-87582.7
-87627.6
-87603.2
-87611.9
-87566.6
-87566.1
-87578.4
-87576.3
-87593.3
-87592.8
-87567.3
-87590.7
-87562.7
-87569.3
-87584.7
-87562.2
-87565.3
-87574.4
-87577.9
-87630
-87586.1
-87585.3
-87602.6
-87601.6
-87567.5
-87562.1
-87565.4
-87574.5
-87558.3
-87565.5
-87565.4
-87560.1
-87557.8
-87630.2
-87597.8
-87641.6
-87597.4
-87636.1
-87589.7
-87635.7
-87603.9
-87562.1
-87573.7
-87562.7
-87588.1
-87571.2
-87588.6
-87619.2
-87585.3
-87569.9
-87610.1
-87580.1
-87625.2
-87601.5
-87624.6
-87613.9
-87592.9
-87573.2
-87630.7
-87604.8
-87586.8
-87635.8
-87608.3
-87648.1
-87608.2
-87641.8
-87599.1
-87641.7
-87613.5
-87567.4
-87578.7
-87567.1
-87594.3
-87578.2
-87593.8
-87624.5
-87592.6
-87572.9
-87613.9
-87586.6
-87630.6
-87604.5
-87573.2
-87573
-87567.9
-87564.7
-87560.8
-87565.4
-87565.1
-87559.5
-87557.4
-87557.6
-87618.7
-87585.7
-87610.2
-87569.6
-87625.5
-87579.8
-87600.8
-87619
-87585.3
-87610
-87570.1
-87625.1
-87579.9
-87602.2
-87603.6
-87561.7
-87563
-87573.6
-87571.1
-87587.9
-87589
-87635.9
-87648.1
-87608.4
-87608.3
-87641.9
-87641.8
-87599
-87624.8
-87592.9
-87614.1
-87573.2
-87630.9
-87586.6
-87604.5
-87624.7
-87592.8
-87614.1
-87573.2
-87630.8
-87586.7
-87604.7
-87613.6
-87567.3
-87567.5
-87579.2
-87578.2
-87594.1
-87594
-87565.1
-87561
-87564.9
-87560.7
-87565.5
-87588.9
-87561
-87567.9
-87583.2
-87560.3
-87562.8
-87571.6
-87575.8
-87627.8
-87580.6
-87581.3
-87599
-87600
-87563.9
-87561.1
-87563.2
-87572.4
-87619.6
-87610.3
-87585.6
-87570.3
-87625.5
-87602
-87580.5
-87630.7
-87643.1
-87598.5
-87599.1
-87636.5
-87637.2
-87590.1
-87604.6
-87563.4
-87573.7
-87562.9
-87589.1
-87572.1
-87588.1
-87619.4
-87587
-87611
-87569.9
-87626.5
-87580.6
-87600.9
-87633.2
-87644.1
-87605.3
-87600.1
-87639.2
-87638.1
-87593.8
-87623.1
-87613.4
-87591.3
-87572.2
-87629.4
-87604.2
-87584.7
-87622.3
-87587.8
-87611.7
-87572.3
-87627.4
-87583
-87603.2
-87612.1
-87566.7
-87578.3
-87566.4
-87593.4
-87576.8
-87592.7
-87567.3
-87590.7
-87562.2
-87569.1
-87584.4
-87567.2
-87590.7
-87561.8
-87569
-87584.6
-87578.3
-87630.5
-87586.5
-87585.5
-87603.3
-87601.8
-87567.7
-87562.9
-87565.8
-87574.8
-87562.1
-87565.4
-87574.3
-87566.3
-87567.2
-87560.5
-87559.3
-87563.5
-87559.3
-87559.8
-87564.8
-87565
-87565.7
-87566.4
-87561.2
-87589.7
-87583.5
-87568.7
-87575.8
-87581.1
-87627.8
-87581.1
-87599.9
-87564
-87599.8
-87561.3
-87564.3
-87573.1
-87589.9
-87559.7
-87566.5
-87568.7
-87583.6
-87562.3
-87565.3
-87574.2
-87629.3
-87583.1
-87601
-87577.3
-87583.7
-87602.2
-87565.6
-87561.9
-87590.2
-87584.4
-87566.6
-87568.7
-87564.6
-87574
-87562
-87566.7
-87568.7
-87568.9
-87562.2
-87575.8
-87581.4
-87627.9
-87581.4
-87600.2
-87564
-87599.6
-87565.6
-87560.4
-87588.7
-87583
-87567.7
-87560.7
-87563.9
-87572.7
-87560.8
-87565.7
-87589
-87583.1
-87567.9
-87565.4
-87565
-87575.1
-87610.1
-87576.9
-87591.6
-87591.4
-87588
-87611.9
-87571.4
-87627.8
-87582
-87621.3
-87602.5
-87570.6
-87586.8
-87581.4
-87620.7
-87610.6
-87601.9
-87626.4
-87561.9
-87565
-87574.4
-87566.8
-87562.1
-87590.7
-87584.7
-87569.3
-87565.3
-87574.3
-87562.3
-87561.9
-87590.7
-87584.6
-87567.2
-87569.4
-87560.7
-87563.1
-87572.6
-87575.5
-87627.6
-87581.2
-87581
-87599.9
-87599.6
-87564
-87560.9
-87565.6
-87588.9
-87567.7
-87583
-87561.1
-87563.7
-87572.9
-87586.6
-87571.1
-87581.6
-87620.7
-87610.7
-87626.4
-87602
-87565.3
-87565.7
-87575.2
-87610.2
-87577.4
-87591.7
-87591.9
-87587.8
-87611.7
-87570.9
-87627.5
-87581.6
-87620.9
-87602.3
-87567.5
-87591.2
-87562.3
-87585.2
-87569.5
-87629.2
-87582.9
-87601.7
-87577.7
-87583.2
-87601.7
-87565.8
-87562.7
-87565.9
-87574.6
-87562.5
-87590.3
-87584.4
-87566.8
-87569
-87565.1
-87574.4
-87562.3
-87565.1
-87564.5
-87565.5
-87561.6
-87563.3
-87572.2
-87566.2
-87589.3
-87560
-87582.7
-87568.5
-87561.6
-87564.5
-87573.3
-87589.5
-87560.7
-87566.2
-87583.4
-87568.4
-87629.2
-87583.2
-87602
-87577.4
-87583.4
-87601.2
-87565.7
-87566.9
-87589.7
-87561.7
-87583.9
-87568.8
-87562.2
-87565.3
-87574
-87561.7
-87589.8
-87584
-87566.8
-87568.7
-87565.2
-87574.3
-87562.2
-87607
-87605.4
-87645.7
-87597.4
-87640.7
-87634.8
-87639.6
-87706.9
-87706
-87728.4
-87705.8
-87727.7
-87727.3
-87749.3
-87684.4
-87729.5
-87708
-87728.4
-87706.7
-87750.4
-87729.3
-87728
-87683.9
-87706.1
-87728.3
-87749.5
-87706.6
-87727.9
-87707.5
-87706.8
-87685.2
-87750.5
-87729.3
-87729
-87707.9
-87639.9
-87649.4
-87602.6
-87649.9
-87623.1
-87665.3
-87623.4
-87727.7
-87727.1
-87749.2
-87683.7
-87706.6
-87705.8
-87727.7
-87707.2
-87750.5
-87729.4
-87707.6
-87685
-87729.3
-87707.4
-87749.4
-87706.2
-87727.6
-87706.8
-87728.2
-87684.2
-87706.1
-87729.7
-87729
-87708.1
-87729.4
-87707.8
-87706.9
-87685.1
-87588.1
-87622.3
-87622.3
-87641.7
-87591.9
-87616.5
-87616.2
-87641
-87622
-87615.9
-87587.9
-87622.5
-87616.1
-87592.1
-87640.5
-87621.5
-87615.6
-87587.5
-87621.5
-87615.3
-87591.7
-87605.7
-87607.3
-87598.2
-87635
-87645.8
-87639.7
-87640.9
-87605.5
-87606.9
-87597.8
-87634.6
-87645.5
-87639.5
-87640.4
-87606.9
-87605.6
-87597.8
-87634.5
-87645.5
-87640.4
-87639.4
-87621.3
-87586.8
-87621.3
-87639.9
-87591.3
-87615.2
-87614.2
-87621.5
-87640.8
-87615.7
-87587.4
-87621.6
-87591.4
-87615.6
-87586.7
-87621.3
-87639.7
-87620.9
-87615.1
-87591
-87614
-87600.1
-87599.3
-87644.2
-87591.3
-87638.2
-87632.2
-87637.7
-87622.5
-87641.2
-87616
-87587.8
-87622.5
-87592.4
-87616
-87586.3
-87621.2
-87620.7
-87639.6
-87590.8
-87614.9
-87613.7
-87622.6
-87588.1
-87622.5
-87641.3
-87592.4
-87616.3
-87616.1
-87586.9
-87621.4
-87639.9
-87621.5
-87615
-87591.5
-87614.5
-87587.8
-87621.7
-87640.7
-87621.9
-87615.9
-87591.8
-87615.6
-87586.1
-87639.1
-87620.6
-87620.3
-87614.4
-87613.7
-87590.4
-87640.1
-87603.2
-87649.5
-87650.2
-87623.3
-87624
-87665.6
-87587.9
-87641.3
-87622.3
-87622.1
-87616.3
-87616.2
-87592
-87639.7
-87602.8
-87649.5
-87649.4
-87622.9
-87623.2
-87665.3
-87640
-87649.4
-87602.7
-87649.4
-87623.1
-87665.3
-87623.3
-87586.6
-87639.5
-87620.8
-87620.9
-87614.3
-87614.4
-87590.9
-87587.8
-87641.5
-87622.2
-87622.3
-87616.4
-87616
-87591.9
-87586
-87620.5
-87620.3
-87639.1
-87590.3
-87613.7
-87613.9
-87639.8
-87649
-87602.5
-87650
-87622.7
-87665.3
-87623.6
-87588.1
-87622.7
-87622.1
-87641.4
-87592.3
-87616.6
-87615.9
-87639.6
-87649.5
-87602.2
-87649.6
-87623
-87665
-87623.4
-87639.9
-87649.4
-87650.1
-87603
-87665.4
-87622.9
-87623.9
-87586.2
-87620.6
-87620.8
-87639.2
-87590.7
-87613.9
-87614.3
-87640
-87649.6
-87649.8
-87602.4
-87665.3
-87623.4
-87623.3
-87621.4
-87586.8
-87621.3
-87639.8
-87614.7
-87591.4
-87614.7
-87640.7
-87621.6
-87615.4
-87587.4
-87621.4
-87615.5
-87591.5
-87586.3
-87639.4
-87620.6
-87620.5
-87614.5
-87614.1
-87590.4
-87600.2
-87643.9
-87599
-87638.3
-87591
-87631.8
-87637.1
-87641
-87622.2
-87616.2
-87588.2
-87622.3
-87616
-87592.4
-87586
-87620.5
-87639.2
-87620.5
-87614.3
-87590.3
-87614
-87599.9
-87643.8
-87598.3
-87638
-87590.3
-87631.3
-87637
-87621.2
-87586.6
-87639.7
-87621.1
-87614.5
-87614.5
-87591.4
-87519.8
-87458.8
-87407.7
-87521.2
-87459.9
-87408.3
-87521.3
-87460
-87408.3
-87523.2
-87461.9
-87409.4
-87522.3
-87461.2
-87408.7
-87521.7
-87460.9
-87409.3
-87523.1
-87462
-87410
-87521.8
-87460.9
-87409.1
-87522.4
-87461.2
-87409.2
-87523.5
-87462.4
-87410.1
-87522.7
-87461.5
-87409
-87521.5
-87460.5
-87408.2
-87522.1
-87461.1
-87409.1
-87523.7
-87462.5
-87410.2
-87522.7
-87461.5
-87408.8
-87523.3
-87462.2
-87410.1
-87518.2
-87457.4
-87405.8
-87518.9
-87458
-87406.4
-87522.1
-87461
-87408.8
-87521.9
-87461
-87409
-87521.9
-87460.7
-87409
-87520.4
-87459.4
-87407.3
-87521
-87459.8
-87407.8
-87521.6
-87460.4
-87408.2
-87521.7
-87460.5
-87408.4
-87521.6
-87460.4
-87408.2
-87521.2
-87460
-87407.8
-87521.8
-87460.6
-87408.3
-87521.4
-87460.1
-87408.5
-87522.3
-87460.9
-87409
-87521.7
-87460.4
-87408.9
-87521.9
-87460.6
-87408.9
-87522
-87460.6
-87408.9
-87520.9
-87459.7
-87407.4
-87520.9
-87459.7
-87407.4
-87521.7
-87460.6
-87408.4
-87520.8
-87459.7
-87407.5
-87521.4
-87460.2
-87407.8
-87521.9
-87460.8
-87408.5
-87520.9
-87459.8
-87407.5
-87521.8
-87460.6
-87408.3
-87521.2
-87460.1
-87407.7
-87522.4
-87461.1
-87409.1
-87522
-87460.8
-87408.8
-87521.6
-87460.5
-87408.7
-87522.8
-87461.6
-87409.5
-87520.7
-87459.6
-87407.9
-87521
-87459.8
-87408
-87523.7
-87462.7
-87410.1
-87523.2
-87462.1
-87410
-87522.6
-87461.7
-87409.9
-87523.2
-87462
-87410
-87521.1
-87460
-87408.1
-87521.6
-87460.3
-87408.2
-87521.9
-87460.6
-87409
-87521.3
-87460
-87408.6
-87522.4
-87461.5
-87409.6
-87523.1
-87461.9
-87409.9
-87521.5
-87460.4
-87408.6
-87521.5
-87460.6
-87408.8
-87522.5
-87461.3
-87409.3
-87521.8
-87460.9
-87409
-87522.6
-87461.4
-87409.4
-87521.5
-87460.4
-87408.1
-87522
-87460.9
-87408.7
-87521.6
-87460.3
-87408.2
-87520.5
-87459.3
-87407.3
-87522.3
-87461.2
-87409.4
-87521.9
-87461.1
-87409.3
-87522.1
-87461
-87409.4
-87520
-87458.7
-87406.3
-87524.9
-87463.7
-87411.2
-87524.4
-87463.2
-87410.8
-87523.2
-87462.2
-87410.1
-87519.9
-87458.6
-87406.2
-87522.2
-87461.1
-87409.7
-87523
-87461.7
-87410
-87524.2
-87463
-87410.8
-87523.3
-87462.2
-87410.2
-87519.1
-87458.1
-87406.5
-87520.2
-87459.3
-87407.5
-87520.9
-87459.8
-87407.9
-87523.1
-87462.1
-87409.7
-87522.1
-87461.1
-87408.6
-87522.3
-87460.9
-87409.2
-87520.9
-87459.8
-87408.5
-87524.6
-87463.2
-87410.6
-87522.9
-87461.9
-87409.9
-87522.8
-87461.6
-87409.8
-87521.4
-87460.6
-87408.8
-87522.3
-87461.3
-87409.4
-87521.6
-87460.5
-87408.3
-87522.1
-87461
-87408.8
-87521.6
-87460.5
-87408.2
-87522
-87460.9
-87408.7
-87521.2
-87459.9
-87407.9
-87519.4
-87458.3
-87406.6
-87522.4
-87461
-87409.2
-87522
-87460.6
-87409
-87522.3
-87461.4
-87409.6
-87522.5
-87461.4
-87409.6
-87520
-87458.7
-87406.3
-87521.1
-87460.1
-87408.9
-87522.6
-87461.2
-87409.4
-87524.1
-87462.9
-87410.6
-87523.2
-87462.2
-87410.1
-87519.5
-87458.3
-87406
-87524.9
-87463.7
-87411.3
-87524.7
-87463.5
-87411
-87521.7
-87460.7
-87409.5
-87522.7
-87461.5
-87409.8
-87523.4
-87462
-87410.1
-87520.7
-87459.8
-87407.7
-87521.4
-87460.2
-87408.2
-87523.2
-87462.2
-87409.8
-87524.1
-87462.8
-87410.3
-87524.1
-87463.1
-87410.7
-87522
-87460.7
-87409.2
-87520.9
-87459.9
-87408.6
-87521.9
-87460.6
-87409
-87523.1
-87462
-87410.1
-87522.4
-87461.3
-87409.4
-87521.8
-87460.7
-87408.3
-87521.5
-87460.4
-87408.7
-87519.3
-87458.6
-87407.2
-87520.8
-87459.8
-87408
-87521.4
-87460.5
-87408.5
-87522.8
-87461.6
-87409.3
-87520.5
-87459.3
-87407.5
-87520.5
-87459.6
-87407.8
-87521.7
-87460.4
-87408.4
-87521.7
-87460.9
-87409.1
-87522.1
-87461
-87409.3
-87522.8
-87461.9
-87409.8
-87523.3
-87462.1
-87410.1
-87520.5
-87459.6
-87408
-87521.4
-87460.2
-87408.3
-87521
-87459.6
-87408
-87523.5
-87462.3
-87410.2
-87522.3
-87461.2
-87409.6
-87521.4
-87460.5
-87408.5
-87521.6
-87460.4
-87408.6
-87521.3
-87460.4
-87408.7
-87522.1
-87460.9
-87408.9
-87522.8
-87461.5
-87409.4
-87522.4
-87461.2
-87409.2
-87519.7
-87458.9
-87407
-87520.4
-87459.3
-87408.2
-87521.3
-87460.1
-87408.1
-87517.1
-87456.5
-87405.4
-87518.4
-87457.7
-87406
-87521
-87459.9
-87408.5
-87521.1
-87460.1
-87408.2
-87520.5
-87459.7
-87407.7
-87521.2
-87460.3
-87408.1
-87521.8
-87460.6
-87408.9
-87519.2
-87458.4
-87406.7
-87521.2
-87460
-87408.3
-87516.6
-87456.1
-87405.3
-87519.7
-87458.8
-87407.3
-87518.8
-87458
-87406.5
-87520.4
-87459.4
-87408.2
-87520.3
-87459.5
-87407.1
-87520.4
-87459.5
-87407.2
-87521.4
-87460.3
-87408.1
-87520.6
-87459.5
-87407.2
-87520.3
-87459.5
-87407.7
-87520.7
-87459.4
-87407.9
-87518.3
-87457.7
-87406.1
-87520.4
-87459.1
-87407.7
-87523.3
-87461.9
-87409.8
-87523.3
-87462
-87409.8
-87523.8
-87462.3
-87410.1
-87522.8
-87461.5
-87409.8
-87523.5
-87462.2
-87410.1
-87523.1
-87461.8
-87409.7
-87518.7
-87458
-87406.8
-87522.3
-87461.2
-87409.1
-87520.5
-87459.7
-87407.7
-87516.7
-87456.2
-87405.2
-87519.8
-87459.1
-87406.9
-87519.4
-87458.6
-87406.2
-87520.1
-87459.3
-87407
-87519.5
-87458.6
-87406.3
-87521.1
-87460
-87408.4
-87518.1
-87457.4
-87406.3
-87520.5
-87459.4
-87407.8
-87523.2
-87461.8
-87409.6
-87523.3
-87461.9
-87409.6
-87523
-87461.7
-87410
-87524.5
-87463.1
-87410.9
-87522.6
-87461.4
-87409.6
-87522.8
-87461.4
-87409.7
-87521.7
-87460.6
-87409.2
-87522.8
-87461.8
-87409.5
-87524.3
-87463.2
-87410.7
-87521.9
-87460.8
-87409.3
-87521.5
-87460.6
-87409.1
-87523.6
-87462.2
-87410.1
-87522.6
-87461.7
-87409.7
-87522.9
-87461.8
-87409.9
-87523.9
-87462.8
-87410.8
-87521.5
-87460.2
-87408.5
-87521.4
-87459.9
-87408.4
-87521
-87459.8
-87408.1
-87522.4
-87460.9
-87409
-87523.5
-87462
-87409.8
-87521.2
-87460.1
-87408.8
-87521.1
-87460.2
-87408.7
-87522.4
-87461.1
-87409.5
-87522.5
-87461.6
-87409.5
-87522.9
-87461.8
-87409.8
-87523.3
-87462.2
-87410.2
-87522.8
-87461.5
-87409.6
-87522.4
-87461.3
-87409.6
-87521.1
-87460.2
-87408.9
-87522.9
-87461.8
-87409.8
-87523.6
-87462.6
-87410.2
-87523.9
-87462.9
-87410.6
-87525.9
-87464.6
-87411.9
-87522.7
-87461.3
-87409.6
-87522.8
-87461.6
-87409.7
-87522.1
-87460.9
-87409.2
-87523.8
-87462.2
-87410.2
-87524.1
-87462.5
-87410.5
-87520.8
-87459.6
-87408.4
-87521.2
-87460.2
-87408.6
-87522.4
-87461.1
-87409.1
-87521.6
-87460.5
-87408.9
-87523.4
-87462.4
-87409.9
-87521.5
-87460.5
-87408.3
-87523.1
-87461.9
-87409.4
-87521.3
-87460.5
-87408.5
-87522
-87460.8
-87409.2
-87520.7
-87459.4
-87408
-87520.9
-87459.6
-87408
-87520.3
-87459.1
-87407.6
-87521.7
-87460.4
-87408.7
-87521.8
-87460.6
-87409
-87523.9
-87462.8
-87410.6
-87523.7
-87462.6
-87410.4
-87522.6
-87461.3
-87409.2
-87519.7
-87458.8
-87407.4
-87522.1
-87461.1
-87408.8
-87524.2
-87463
-87410.5
-87523.6
-87462.7
-87410.2
-87522.7
-87461.6
-87409.8
-87521.4
-87460.4
-87408.5
-87519.7
-87458.9
-87407.7
-87520.4
-87459.2
-87407.9
-87523.5
-87462.4
-87410.5
-87522.4
-87461.3
-87408.9
-87523.8
-87462.6
-87409.9
-87521.7
-87460.8
-87409
-87521.9
-87460.7
-87409.4
-87522.8
-87461.8
-87409.6
-87522.7
-87461.6
-87409.4
-87522.1
-87460.9
-87408.5
-87522
-87460.7
-87408.6
-87519.3
-87458.2
-87406.8
-87518.4
-87457.4
-87406.3
-87520.7
-87459.3
-87407.4
-87522.4
-87461.2
-87409.2
-87518.1
-87457.4
-87406.1
-87520.3
-87459.2
-87407.9
-87521.4
-87460.4
-87408.2
-87521.3
-87460.5
-87408.2
-87522.7
-87461.6
-87409.5
-87520.8
-87459.6
-87408.2
-87520.9
-87459.6
-87408.2
-87520.7
-87459.6
-87407.9
-87521.9
-87460.6
-87408.8
-87521.9
-87460.6
-87409
-87522.8
-87461.8
-87409.6
-87523
-87461.8
-87409.7
-87521.6
-87460.4
-87408.9
-87521.9
-87460.9
-87409.2
-87522.3
-87461
-87409.4
-87522.8
-87461.7
-87409.8
-87520.7
-87459.4
-87407.9
-87520.3
-87459.1
-87407.7
-87520.1
-87458.9
-87407.3
-87521.7
-87460.3
-87408.6
-87521.3
-87460
-87408.6
-87524.4
-87463
-87410.9
-87523.6
-87462.2
-87410.2
-87523.7
-87462.3
-87410.4
-87521.2
-87460.2
-87408.1
-87522
-87460.8
-87408.6
-87520.1
-87458.9
-87407.5
-87519.6
-87458.7
-87407.4
-87521.9
-87460.8
-87408.7
-87522.1
-87460.9
-87408.8
-87523.3
-87462
-87409.9
-87522.8
-87461.5
-87409.6
-87523.1
-87461.8
-87409.7
-87524.9
-87463.4
-87411.4
-87524.8
-87463.4
-87411.3
-87524.7
-87463.3
-87411.1
-87525.6
-87464.2
-87411.8
-87524.4
-87463.1
-87411
-87525
-87463.6
-87411.3
-87524.4
-87463
-87410.8
-87522.6
-87461.2
-87409.9
-87522.7
-87461.3
-87409.8
-87518
-87457.2
-87406
-87519
-87458.1
-87406.9
-87520.1
-87459.3
-87406.9
-87519.8
-87459
-87406.7
-87521.1
-87460.2
-87408.4
-87517.3
-87456.7
-87405.7
-87519.9
-87458.9
-87407.5
-87523.8
-87462.5
-87410.4
-87523.5
-87462.1
-87410.2
-87523.6
-87462.4
-87410.3
-87522.7
-87461.5
-87409.8
-87523.6
-87462.3
-87410.2
-87522.9
-87461.6
-87409.8
-87521.9
-87460.7
-87408.9
-87521.9
-87460.5
-87408.9
-87521.1
-87459.9
-87408.3
-87522.9
-87461.5
-87409.5
-87521.7
-87460.4
-87408.7
-87522.2
-87461.2
-87409
-87521.1
-87459.9
-87408.3
-87521
-87459.8
-87408.3
-87520.9
-87459.7
-87408.1
-87522.1
-87460.8
-87409.1
-87521.9
-87460.9
-87408.8
-87520.1
-87459
-87407.8
-87520.2
-87459.2
-87408.1
-87521.7
-87460.4
-87408.8
-87522.6
-87461.6
-87409.4
-87524
-87462.5
-87410.4
-87524.2
-87462.7
-87410.7
-87522.7
-87461.4
-87409.5
-87523.2
-87461.7
-87409.8
-87522.1
-87460.8
-87409.1
-87522.8
-87461.8
-87409.6
-87521.7
-87460.5
-87408.9
-87522.3
-87461
-87409.6
-87522.4
-87461.2
-87409.5
-87522.1
-87460.8
-87409.4
-87522.1
-87460.8
-87409.1
-87523.4
-87461.9
-87410
-87523.9
-87462.4
-87410.4
-87524.8
-87463.4
-87411.1
-87524.6
-87463.2
-87411.3
-87524.5
-87463.1
-87411.2
-87524.7
-87463.4
-87411.1
-87524.8
-87463.5
-87411.2
-87524.5
-87463.1
-87410.9
-87522.2
-87460.8
-87409.5
-87521.6
-87460.2
-87408.6
-87521.2
-87459.8
-87408.4
-87521
-87459.8
-87408.1
-87522.4
-87460.9
-87409.1
-87520
-87458.9
-87407.6
-87521.9
-87460.9
-87408.7
-87520.9
-87459.6
-87408.4
-87521
-87459.8
-87408.1
-87521
-87459.8
-87408
-87522.4
-87461.1
-87409.3
-87521.9
-87460.9
-87408.7
-87519.9
-87458.8
-87407.3
-87521.4
-87460.3
-87408.8
-87522.7
-87461.8
-87409.7
-87522.7
-87461.7
-87409.8
-87523.7
-87462.7
-87410.7
-87524.2
-87462.9
-87410.8
-87523.4
-87461.9
-87410.2
-87522.8
-87461.6
-87409.9
-87522.8
-87461.6
-87409.7
-87524.3
-87462.8
-87410.7
-87523.4
-87462.4
-87410.2
-87522
-87460.8
-87409.5
-87522
-87461.1
-87409.6
-87521.7
-87460.7
-87408.5
-87519.9
-87458.8
-87407.5
-87520.9
-87459.6
-87408.1
-87521.2
-87459.9
-87408.2
-87521
-87459.7
-87408.3
-87520.5
-87459.4
-87407.7
-87522.3
-87460.9
-87409.2
-87524.1
-87462.6
-87410.3
-87521.9
-87460.8
-87408.5
-87520.2
-87459
-87407.3
-87519.4
-87458.3
-87407
-87520.3
-87459.2
-87407.5
-87520.1
-87458.9
-87407.8
-87520.1
-87459
-87407.4
-87522.4
-87461
-87409.1
-87521.8
-87460.6
-87409.1
-87524
-87462.7
-87410.5
-87523.8
-87462.5
-87410.2
-87522.5
-87461.3
-87409.4
-87522.5
-87461.4
-87409.8
-87523
-87461.6
-87409.9
-87522.2
-87461
-87409.3
-87524.2
-87462.8
-87410.7
-87523
-87462.1
-87409.9
-87521.6
-87460.5
-87409.1
-87522.3
-87461.1
-87409.7
-87521.4
-87460.5
-87409
-87523.4
-87462.1
-87410.3
-87524.5
-87463.1
-87411
-87522.8
-87461.6
-87409.7
-87522.7
-87461.4
-87409.7
-87521.9
-87460.7
-87409.2
-87523.5
-87462
-87410.2
-87524.1
-87462.6
-87410.6
-87524.4
-87463.1
-87410.9
-87523.5
-87462.2
-87410.2
-87524.4
-87463.1
-87410.9
-87524.6
-87463.3
-87411
-87523.6
-87462.3
-87410.2
-87524
-87462.7
-87410.5
-87523.1
-87461.7
-87409.9
-87522.3
-87461.4
-87409.1
-87522.6
-87461.5
-87409.4
-87519.8
-87458.8
-87407.8
-87523.2
-87462.1
-87410.1
-87522.5
-87461.1
-87409.1
-87521.4
-87460
-87408.5
-87521.3
-87460.1
-87408.5
-87521.1
-87459.8
-87408.2
-87522.7
-87461.2
-87409.3
-87522.7
-87461.7
-87409.4
-87521.5
-87460.3
-87408.7
-87520.7
-87459.7
-87408.4
-87522.5
-87461.3
-87409.6
-87523.1
-87461.8
-87410
-87521.8
-87460.6
-87409.1
-87523.9
-87462.4
-87410.5
-87523.4
-87462
-87410.1
-87523.8
-87462.4
-87410.6