/*--------------------------------*- C++ -*----------------------------------*\
| =========                 |                                                 |
| \\      /  F ield         | OpenFOAM: The Open Source CFD Toolbox           |
|  \\    /   O peration     | Version:  v1906                                 |
|   \\  /    A nd           | Web:      www.OpenFOAM.com                      |
|    \\/     M anipulation  |                                                 |
\*---------------------------------------------------------------------------*/
FoamFile
{
    version     2.0;
    format      ascii;
    class       volScalarField;
    location    "2/oil";
    object      wallHeatFlux;
}
// * * * * * * * * * * * * * * * * * * * * * * * * * * * * * * * * * * * * * //

dimensions      [1 0 -3 0 0 0 0];


internalField   uniform 0;

boundaryField
{
    maxY
    {
        type            calculated;
        value           uniform 0;
    }
    minX
    {
        type            calculated;
        value           uniform 0;
    }
    maxX
    {
        type            calculated;
        value           uniform 0;
    }
    minY
    {
        type            calculated;
        value           uniform 0;
    }
    minZ
    {
        type            calculated;
        value           uniform 0;
    }
    maxZ
    {
        type            calculated;
        value           uniform 0;
    }
    oil_to_sphere
    {
        type            calculated;
        value           nonuniform List<scalar> 
360
(
13201.8
13276
9090.18
22617
24057.3
10543.6
24666
22261.6
23960
13055
13124.9
10547.8
11677.3
8182.32
12793.7
21271.9
24399.5
22610.3
23648.6
8177.27
19783.9
13072.7
11543.9
23370.2
9109.55
24191.7
10525.2
23824.4
23643.1
22361
25382.9
24801.1
9123.41
9022.08
10447.6
10489.9
23445.5
23272.6
22648.5
23019.8
23619.4
9115.53
10427.8
13541.9
13573.5
10501
11626.7
8109.75
13024.7
22174
10572.8
10532
11576.4
11626.4
8117.25
13136.8
22661.3
8180.89
10475.6
11616.5
8198.48
23795.5
22600.1
23583.8
8113.12
20507.9
13141.7
11177.6
24728
23498.9
22646.8
23235.4
23178.9
8099.32
17655.4
12752.8
8209.81
11077.9
23342.6
23929
11346.2
11135
11180.8
8195.36
9054.74
10462.6
10511.8
11650.8
8159.34
8241.49
9083.44
11635.9
10514.5
9077.23
11585.4
10487.3
10498.7
10507.7
9062.83
8247.34
8250.95
8134.71
10549.1
10568.4
11662
8134.65
8215.37
11699.1
9083.78
10526.9
10538
10515.4
9071.84
8141.92
8278.82
8268.3
11416.6
11377.5
11341
13446.9
13469.4
21842.8
23265.3
21009.3
23419.6
21844.4
23453.6
23759.4
22106.6
23096.8
22709.6
11334.3
11284.1
11295.2
8261.23
21690.7
23613.9
13197.6
13229.1
23797.9
21992.3
12914.4
12722.3
24121.3
22130.2
25500.8
8254.51
8247.66
23238
23803.6
25398.1
24103.6
24107.7
25142.6
25393.8
22226.8
12696.4
24006.1
22808.6
8183.9
23776.1
24387.4
11107.1
10960.4
11371
12953.3
13104.1
24196.9
22266.6
25176
8116.08
22699.9
13153.6
23910.2
22841
8122.03
24649.8
11277.3
11236.3
8231.45
10510.4
10547
11671.6
9085.6
11616.6
10506.1
8132.05
8235.99
23652.8
22182.4
23780.7
22876.9
13453.7
13463.4
23320
21335.6
22936.2
13205
13284.7
8234.85
10475.9
10594.3
11666.3
10534.4
10482.6
11700.1
9081.94
11608.4
10456.3
9010.3
22087.2
11687.5
10469.4
8193.94
23269.4
22039.1
23269.5
13434
13434.5
8120.57
10483.7
10505.2
11610.8
23863.8
9035.98
11558.3
10468.6
22463.2
22659.6
13351.3
8156.78
13247.9
8172.51
8277.57
11608.4
9087.32
10515.2
10490.1
10548.6
9061.74
8172.5
22573.9
21340
23763.7
24914.3
22467.7
21245.6
24166.1
24491.7
13183.3
22899.4
8258.11
24121.7
23798.8
23918.3
11567.9
9097.47
10539.9
11619.1
9147.59
23922.3
10477.9
10443.9
10535.4
9058.15
24184.5
22396.1
10461
10470.3
9060.29
22428.1
25173.5
13092.6
22840.4
8197.3
23729.5
23394.9
23997.6
11672.6
9066.18
23644.6
10457.2
10481.6
10444.1
23460.3
9104.48
23119.3
13286.5
21362.7
13352
22512.4
22939.5
23370.3
8131.69
11029.8
10846.1
10952.8
13551.2
23404.7
13514.4
22669.2
23342.3
8207.01
23681.6
23960
13116.2
22961.8
8236.07
25250
11191.3
11134.9
8059.39
22736.5
13238.8
20217.6
22823.6
13226.4
8144.27
10461.4
10491.9
11657.4
23506.5
21787.7
12996.1
8252.44
21953.4
13199.3
8183.87
22201.2
23795.3
12919.7
22969.2
8046.6
24806.7
11713.7
24491.5
9062.43
10521.3
24533.9
23048.3
22499.6
13034.7
23879.9
23681.6
13137.8
22663.7
11013.5
11308.1
22379.5
13178.9
8147.37
22266.4
13209.7
8220.71
23097.4
23179.4
21973
13270.6
22660.5
13301.7
)
;
    }
}


// ************************************************************************* //
