/*--------------------------------*- C++ -*----------------------------------*\
| =========                 |                                                 |
| \\      /  F ield         | OpenFOAM: The Open Source CFD Toolbox           |
|  \\    /   O peration     | Version:  v1906                                 |
|   \\  /    A nd           | Web:      www.OpenFOAM.com                      |
|    \\/     M anipulation  |                                                 |
\*---------------------------------------------------------------------------*/
FoamFile
{
    version     2.0;
    format      ascii;
    class       volVectorField;
    location    "33/oil";
    object      U;
}
// * * * * * * * * * * * * * * * * * * * * * * * * * * * * * * * * * * * * * //

dimensions      [0 1 -1 0 0 0 0];


internalField   nonuniform List<vector> 
27760
(
(-2.74649e-05 -2.80162e-05 -2.74649e-05)
(-5.42361e-05 -2.10226e-05 -1.97746e-05)
(-4.01329e-06 -5.46232e-06 -5.38677e-06)
(-6.59942e-06 -9.04961e-07 -9.51936e-07)
(-1.58566e-06 -3.04099e-07 -3.55864e-07)
(-8.69878e-07 -1.42678e-07 -1.94039e-07)
(-2.2752e-07 -4.68456e-08 -1.00019e-07)
(6.55073e-08 -8.36566e-09 -6.41683e-08)
(2.26074e-07 1.16676e-08 -4.6415e-08)
(2.99345e-07 2.27871e-08 -3.70188e-08)
(3.15046e-07 2.99715e-08 -3.08962e-08)
(2.87376e-07 3.49749e-08 -2.64889e-08)
(2.26119e-07 3.8438e-08 -2.3256e-08)
(1.39981e-07 4.07552e-08 -2.10094e-08)
(3.80678e-08 4.1987e-08 -1.97865e-08)
(-7.01458e-08 4.21532e-08 -1.96194e-08)
(-1.75198e-07 4.13024e-08 -2.04594e-08)
(-2.68333e-07 3.95334e-08 -2.21519e-08)
(-3.42258e-07 3.70013e-08 -2.44377e-08)
(-3.91701e-07 3.38663e-08 -2.69952e-08)
(-4.13897e-07 3.02169e-08 -2.95013e-08)
(-4.08692e-07 2.62826e-08 -3.15494e-08)
(-3.78121e-07 2.22825e-08 -3.2626e-08)
(-3.26352e-07 1.82577e-08 -3.24738e-08)
(-2.59542e-07 1.4285e-08 -3.08193e-08)
(-1.8533e-07 1.05237e-08 -2.74365e-08)
(-1.1256e-07 7.30513e-09 -2.23268e-08)
(-5.09357e-08 5.26409e-09 -1.59053e-08)
(-9.55388e-09 5.34841e-09 -9.4463e-09)
(3.43474e-09 6.65419e-09 -3.32771e-09)
(-1.99349e-05 -5.57188e-05 -1.99349e-05)
(-6.58709e-06 -7.16499e-06 -8.92822e-06)
(-8.98121e-06 -8.64551e-06 -3.11873e-06)
(-4.32161e-06 -2.40262e-06 -8.87953e-07)
(-1.93012e-06 -1.39927e-06 -4.36003e-07)
(-8.62227e-07 -6.98424e-07 -2.09208e-07)
(-1.2734e-07 -4.01579e-07 -9.91823e-08)
(2.85548e-07 -2.4632e-07 -4.74589e-08)
(5.2584e-07 -1.60475e-07 -1.86659e-08)
(6.38448e-07 -1.06655e-07 -9.54043e-10)
(6.53661e-07 -6.91747e-08 1.16628e-08)
(5.89247e-07 -4.13812e-08 2.13355e-08)
(4.60511e-07 -2.08151e-08 2.88048e-08)
(2.83172e-07 -6.68147e-09 3.40264e-08)
(7.45376e-08 1.05719e-09 3.68437e-08)
(-1.46663e-07 2.42271e-09 3.71654e-08)
(-3.61517e-07 -2.28125e-09 3.50751e-08)
(-5.52457e-07 -1.23481e-08 3.08732e-08)
(-7.04846e-07 -2.66806e-08 2.50617e-08)
(-8.08228e-07 -4.39234e-08 1.83002e-08)
(-8.56963e-07 -6.26435e-08 1.13501e-08)
(-8.50508e-07 -8.13219e-08 4.88861e-09)
(-7.93185e-07 -9.84434e-08 -4.18762e-10)
(-6.93551e-07 -1.12673e-07 -4.0441e-09)
(-5.63676e-07 -1.22504e-07 -5.60707e-09)
(-4.18327e-07 -1.26018e-07 -4.95398e-09)
(-2.73976e-07 -1.2054e-07 -2.31603e-09)
(-1.47373e-07 -1.02487e-07 1.43867e-09)
(-5.35215e-08 -6.77072e-08 4.31775e-09)
(-3.57763e-09 -1.89587e-08 3.73716e-09)
(-5.52398e-06 -5.1359e-06 -5.52396e-06)
(-8.77511e-06 -9.56554e-06 -3.20403e-06)
(-4.74568e-06 -5.1834e-06 -1.41927e-06)
(-3.02369e-06 -2.77411e-06 -6.73737e-07)
(-1.45841e-06 -1.77103e-06 -3.19035e-07)
(-5.40787e-07 -1.15358e-06 -1.45638e-07)
(1.09598e-07 -8.361e-07 -5.6442e-08)
(5.17398e-07 -6.48874e-07 -9.45682e-09)
(7.64031e-07 -5.30928e-07 1.92037e-08)
(8.77531e-07 -4.48383e-07 3.88e-08)
(8.79383e-07 -3.85968e-07 5.38856e-08)
(7.84911e-07 -3.37057e-07 6.60255e-08)
(6.10105e-07 -2.99458e-07 7.55769e-08)
(3.73546e-07 -2.73078e-07 8.2326e-08)
(9.69611e-08 -2.58374e-07 8.59699e-08)
(-1.95648e-07 -2.55529e-07 8.63399e-08)
(-4.79807e-07 -2.64007e-07 8.35184e-08)
(-7.32707e-07 -2.82386e-07 7.78762e-08)
(-9.35318e-07 -3.08404e-07 7.00454e-08)
(-1.07405e-06 -3.39202e-07 6.08395e-08)
(-1.14169e-06 -3.71576e-07 5.11505e-08)
(-1.13765e-06 -4.02309e-07 4.18352e-08)
(-1.06756e-06 -4.2817e-07 3.36497e-08)
(-9.42422e-07 -4.45892e-07 2.71797e-08)
(-7.77486e-07 -4.51853e-07 2.27765e-08)
(-5.91022e-07 -4.41654e-07 2.04892e-08)
(-4.0285e-07 -4.0953e-07 1.99253e-08)
(-2.32185e-07 -3.48019e-07 1.99447e-08)
(-9.68231e-08 -2.4761e-07 1.82598e-08)
(-1.01635e-08 -1.01187e-07 1.03677e-08)
(-1.00798e-06 -7.34776e-06 -1.00796e-06)
(-2.41133e-06 -5.28197e-06 -9.23174e-07)
(-2.19034e-06 -4.11599e-06 -6.75269e-07)
(-1.53829e-06 -2.81744e-06 -3.61977e-07)
(-7.0553e-07 -2.10806e-06 -1.7784e-07)
(-7.81111e-08 -1.64163e-06 -7.37755e-08)
(4.18807e-07 -1.36479e-06 -1.28038e-08)
(7.63856e-07 -1.18187e-06 2.40569e-08)
(9.79679e-07 -1.05279e-06 4.94465e-08)
(1.0732e-06 -9.53267e-07 6.88385e-08)
(1.05364e-06 -8.7228e-07 8.49038e-08)
(9.31124e-07 -8.05594e-07 9.84012e-08)
(7.20009e-07 -7.5275e-07 1.09244e-07)
(4.39654e-07 -7.14959e-07 1.16986e-07)
(1.14119e-07 -6.93614e-07 1.21166e-07)
(-2.29319e-07 -6.8934e-07 1.2154e-07)
(-5.62555e-07 -7.01445e-07 1.18178e-07)
(-8.59278e-07 -7.27738e-07 1.11496e-07)
(-1.09754e-06 -7.64644e-07 1.02225e-07)
(-1.26176e-06 -8.07605e-07 9.12882e-08)
(-1.34376e-06 -8.51506e-07 7.96892e-08)
(-1.34302e-06 -8.91075e-07 6.83825e-08)
(-1.26605e-06 -9.21005e-07 5.81813e-08)
(-1.12538e-06 -9.35868e-07 4.96915e-08)
(-9.38026e-07 -9.29684e-07 4.32394e-08)
(-7.24012e-07 -8.95318e-07 3.88185e-08)
(-5.04729e-07 -8.23596e-07 3.59693e-08)
(-3.00532e-07 -7.02277e-07 3.33957e-08)
(-1.31707e-07 -5.13445e-07 2.86057e-08)
(-1.52216e-08 -2.28785e-07 1.54801e-08)
(-3.44536e-07 -2.35607e-06 -3.44498e-07)
(-1.23893e-06 -3.28434e-06 -4.25988e-07)
(-1.05504e-06 -3.19804e-06 -3.08958e-07)
(-6.76314e-07 -2.73965e-06 -1.73622e-07)
(-1.56146e-07 -2.40272e-06 -7.92853e-08)
(3.03321e-07 -2.13543e-06 -1.87343e-08)
(6.93939e-07 -1.94562e-06 2.15338e-08)
(9.82554e-07 -1.7994e-06 4.95866e-08)
(1.16465e-06 -1.68053e-06 7.16097e-08)
(1.23465e-06 -1.57799e-06 9.03225e-08)
(1.19319e-06 -1.4876e-06 1.06908e-07)
(1.04601e-06 -1.40918e-06 1.21403e-07)
(8.05623e-07 -1.34502e-06 1.33292e-07)
(4.91398e-07 -1.29825e-06 1.41871e-07)
(1.28783e-07 -1.27155e-06 1.46502e-07)
(-2.52718e-07 -1.26615e-06 1.46854e-07)
(-6.22423e-07 -1.28132e-06 1.42983e-07)
(-9.51502e-07 -1.31417e-06 1.35346e-07)
(-1.21594e-06 -1.35984e-06 1.24785e-07)
(-1.39882e-06 -1.41208e-06 1.12335e-07)
(-1.49141e-06 -1.46381e-06 9.91204e-08)
(-1.49339e-06 -1.50775e-06 8.61898e-08)
(-1.41198e-06 -1.53648e-06 7.44104e-08)
(-1.2607e-06 -1.54244e-06 6.44052e-08)
(-1.05767e-06 -1.5173e-06 5.64923e-08)
(-8.23832e-07 -1.45111e-06 5.06322e-08)
(-5.81447e-07 -1.33094e-06 4.63297e-08)
(-3.51694e-07 -1.13863e-06 4.21824e-08)
(-1.5723e-07 -8.44671e-07 3.55187e-08)
(-1.86944e-08 -3.9078e-07 1.90107e-08)
(-1.56258e-07 -1.78179e-06 -1.56212e-07)
(-4.58909e-07 -2.68919e-06 -1.78452e-07)
(-3.59271e-07 -2.95694e-06 -1.28107e-07)
(-1.11033e-07 -2.90501e-06 -6.74099e-08)
(2.47943e-07 -2.80901e-06 -1.82356e-08)
(6.02394e-07 -2.69453e-06 1.76292e-08)
(9.19414e-07 -2.58843e-06 4.51121e-08)
(1.16286e-06 -2.48689e-06 6.74036e-08)
(1.31519e-06 -2.38877e-06 8.72431e-08)
(1.36347e-06 -2.29304e-06 1.05694e-07)
(1.30268e-06 -2.2015e-06 1.2296e-07)
(1.13522e-06 -2.11794e-06 1.38536e-07)
(8.71937e-07 -2.04743e-06 1.51535e-07)
(5.31925e-07 -1.99505e-06 1.60998e-07)
(1.41515e-07 -1.96486e-06 1.66099e-07)
(-2.68214e-07 -1.95874e-06 1.66421e-07)
(-6.647e-07 -1.97598e-06 1.62002e-07)
(-1.01725e-06 -2.01313e-06 1.53352e-07)
(-1.30036e-06 -2.06422e-06 1.41437e-07)
(-1.4962e-06 -2.12147e-06 1.27437e-07)
(-1.59588e-06 -2.17614e-06 1.12625e-07)
(-1.59934e-06 -2.21905e-06 9.81525e-08)
(-1.51448e-06 -2.24095e-06 8.49472e-08)
(-1.35557e-06 -2.23227e-06 7.3665e-08)
(-1.14142e-06 -2.18246e-06 6.46223e-08)
(-8.93523e-07 -2.07869e-06 5.77571e-08)
(-6.34671e-07 -1.90391e-06 5.25441e-08)
(-3.86713e-07 -1.63284e-06 4.74986e-08)
(-1.7425e-07 -1.22175e-06 3.97887e-08)
(-2.08851e-08 -5.76477e-07 2.12578e-08)
(-5.14041e-08 -1.36032e-06 -5.13501e-08)
(-1.31229e-07 -2.4622e-06 -6.00654e-08)
(-8.57956e-09 -2.99201e-06 -3.73499e-08)
(2.12196e-07 -3.20705e-06 -8.61492e-09)
(5.06592e-07 -3.29336e-06 1.80455e-08)
(8.07356e-07 -3.30486e-06 4.05014e-08)
(1.08071e-06 -3.2779e-06 6.0609e-08)
(1.29344e-06 -3.2253e-06 7.94927e-08)
(1.42363e-06 -3.15588e-06 9.81769e-08)
(1.45511e-06 -3.07579e-06 1.16802e-07)
(1.37971e-06 -2.99155e-06 1.34953e-07)
(1.19761e-06 -2.9103e-06 1.51725e-07)
(9.18369e-07 -2.8394e-06 1.65915e-07)
(5.60773e-07 -2.78571e-06 1.76314e-07)
(1.51653e-07 -2.75441e-06 1.81907e-07)
(-2.76836e-07 -2.74798e-06 1.82196e-07)
(-6.90881e-07 -2.76579e-06 1.77206e-07)
(-1.05848e-06 -2.80402e-06 1.67491e-07)
(-1.35314e-06 -2.85588e-06 1.54162e-07)
(-1.55657e-06 -2.91247e-06 1.38568e-07)
(-1.65989e-06 -2.96372e-06 1.22144e-07)
(-1.66349e-06 -2.99906e-06 1.06155e-07)
(-1.57588e-06 -3.00774e-06 9.16151e-08)
(-1.41193e-06 -2.97852e-06 7.92001e-08)
(-1.19086e-06 -2.89872e-06 6.92304e-08)
(-9.34448e-07 -2.75267e-06 6.16213e-08)
(-6.6571e-07 -2.51876e-06 5.58203e-08)
(-4.06896e-07 -2.16372e-06 5.02831e-08)
(-1.83844e-07 -1.62763e-06 4.20494e-08)
(-2.20596e-08 -7.76831e-07 2.24844e-08)
(-1.17709e-08 -1.30454e-06 -1.17107e-08)
(2.62183e-08 -2.55152e-06 -7.66108e-09)
(1.7692e-07 -3.24757e-06 5.8597e-09)
(3.95511e-07 -3.63181e-06 2.15939e-08)
(6.61525e-07 -3.8487e-06 3.77295e-08)
(9.32598e-07 -3.95912e-06 5.34804e-08)
(1.17856e-06 -4.00233e-06 6.97222e-08)
(1.36997e-06 -3.99907e-06 8.68512e-08)
(1.48414e-06 -3.96367e-06 1.05113e-07)
(1.50378e-06 -3.90677e-06 1.2419e-07)
(1.41908e-06 -3.83801e-06 1.43302e-07)
(1.22882e-06 -3.76675e-06 1.61252e-07)
(9.41534e-07 -3.70203e-06 1.7658e-07)
(5.75581e-07 -3.65184e-06 1.87873e-07)
(1.57925e-07 -3.62214e-06 1.93928e-07)
(-2.78796e-07 -3.61577e-06 1.94183e-07)
(-7.00245e-07 -3.63222e-06 1.8865e-07)
(-1.07378e-06 -3.66754e-06 1.77927e-07)
(-1.37242e-06 -3.71452e-06 1.63271e-07)
(-1.57782e-06 -3.76367e-06 1.46188e-07)
(-1.68137e-06 -3.8042e-06 1.28269e-07)
(-1.68399e-06 -3.82464e-06 1.10911e-07)
(-1.59471e-06 -3.81321e-06 9.5208e-08)
(-1.42874e-06 -3.75735e-06 8.1847e-08)
(-1.20549e-06 -3.64257e-06 7.11478e-08)
(-9.46662e-07 -3.45027e-06 6.2998e-08)
(-6.7511e-07 -3.15406e-06 5.68312e-08)
(-4.1306e-07 -2.71204e-06 5.10643e-08)
(-1.86725e-07 -2.04704e-06 4.26755e-08)
(-2.23824e-08 -9.84004e-07 2.28534e-08)
(5.96048e-09 -1.3712e-06 6.02599e-09)
(9.75418e-08 -2.77685e-06 1.65558e-08)
(2.6633e-07 -3.61018e-06 2.63284e-08)
(4.85696e-07 -4.12143e-06 3.63349e-08)
(7.36012e-07 -4.4411e-06 4.73945e-08)
(9.87398e-07 -4.63399e-06 5.97148e-08)
(1.21359e-06 -4.74117e-06 7.38757e-08)
(1.38868e-06 -4.78762e-06 9.00369e-08)
(1.49085e-06 -4.79075e-06 1.08108e-07)
(1.50283e-06 -4.76373e-06 1.27543e-07)
(1.41422e-06 -4.71802e-06 1.4736e-07)
(1.2229e-06 -4.66423e-06 1.6618e-07)
(9.36616e-07 -4.61217e-06 1.82353e-07)
(5.73054e-07 -4.57026e-06 1.94305e-07)
(1.588e-07 -4.54482e-06 2.00675e-07)
(-2.73829e-07 -4.53881e-06 2.00897e-07)
(-6.90855e-07 -4.5518e-06 1.94976e-07)
(-1.05984e-06 -4.57999e-06 1.83493e-07)
(-1.35401e-06 -4.61622e-06 1.67833e-07)
(-1.55538e-06 -4.65094e-06 1.49634e-07)
(-1.65578e-06 -4.67321e-06 1.30628e-07)
(-1.65667e-06 -4.67135e-06 1.12298e-07)
(-1.56743e-06 -4.63309e-06 9.57823e-08)
(-1.40335e-06 -4.54491e-06 8.17925e-08)
(-1.18358e-06 -4.39076e-06 7.06343e-08)
(-9.29298e-07 -4.14924e-06 6.21824e-08)
(-6.6272e-07 -3.78909e-06 5.5851e-08)
(-4.05468e-07 -3.25949e-06 5.00617e-08)
(-1.83233e-07 -2.4656e-06 4.18288e-08)
(-2.19322e-08 -1.19076e-06 2.2443e-08)
(1.29001e-08 -1.49698e-06 1.29697e-08)
(1.25649e-07 -3.06742e-06 2.63142e-08)
(2.99191e-07 -4.02207e-06 3.44375e-08)
(5.12887e-07 -4.63602e-06 4.18532e-08)
(7.47562e-07 -5.04043e-06 5.03948e-08)
(9.80061e-07 -5.30424e-06 6.08379e-08)
(1.18758e-06 -5.4704e-06 7.36985e-08)
(1.34733e-06 -5.56629e-06 8.90672e-08)
(1.43911e-06 -5.61111e-06 1.06751e-07)
(1.44649e-06 -5.61928e-06 1.26104e-07)
(1.35906e-06 -5.60291e-06 1.46048e-07)
(1.17423e-06 -5.57284e-06 1.65119e-07)
(8.98979e-07 -5.53889e-06 1.8155e-07)
(5.50005e-07 -5.5094e-06 1.937e-07)
(1.52828e-07 -5.4905e-06 2.00135e-07)
(-2.61492e-07 -5.48504e-06 2.00323e-07)
(-6.60554e-07 -5.49274e-06 1.94263e-07)
(-1.01312e-06 -5.51004e-06 1.82484e-07)
(-1.29338e-06 -5.53022e-06 1.66438e-07)
(-1.4842e-06 -5.54429e-06 1.47811e-07)
(-1.57813e-06 -5.54172e-06 1.28398e-07)
(-1.577e-06 -5.51118e-06 1.09745e-07)
(-1.49027e-06 -5.44042e-06 9.30059e-08)
(-1.33286e-06 -5.31546e-06 7.88866e-08)
(-1.12313e-06 -5.11886e-06 6.76676e-08)
(-8.81221e-07 -4.82665e-06 5.92118e-08)
(-6.28087e-07 -4.40278e-06 5.29511e-08)
(-3.8406e-07 -3.78766e-06 4.7358e-08)
(-1.73431e-07 -2.86913e-06 3.95637e-08)
(-2.07316e-08 -1.39008e-06 2.12764e-08)
(1.48361e-08 -1.64065e-06 1.4905e-08)
(1.29528e-07 -3.37276e-06 2.86633e-08)
(2.95155e-07 -4.4371e-06 3.5693e-08)
(4.93708e-07 -5.13831e-06 4.16706e-08)
(7.07157e-07 -5.61501e-06 4.8717e-08)
(9.16654e-07 -5.94104e-06 5.78268e-08)
(1.10257e-06 -6.16163e-06 6.94891e-08)
(1.24516e-06 -6.30578e-06 8.37973e-08)
(1.32633e-06 -6.39359e-06 1.00515e-07)
(1.33104e-06 -6.4399e-06 1.18992e-07)
(1.24944e-06 -6.45666e-06 1.38141e-07)
(1.07878e-06 -6.45429e-06 1.56502e-07)
(8.25249e-07 -6.44205e-06 1.72325e-07)
(5.04108e-07 -6.42765e-06 1.84005e-07)
(1.38971e-07 -6.4167e-06 1.90123e-07)
(-2.41522e-07 -6.41192e-06 1.90277e-07)
(-6.07775e-07 -6.41305e-06 1.8446e-07)
(-9.30962e-07 -6.41701e-06 1.73067e-07)
(-1.18716e-06 -6.41766e-06 1.57514e-07)
(-1.36068e-06 -6.40689e-06 1.39435e-07)
(-1.44486e-06 -6.37511e-06 1.20629e-07)
(-1.44179e-06 -6.31169e-06 1.0259e-07)
(-1.3606e-06 -6.20492e-06 8.64374e-08)
(-1.21531e-06 -6.04072e-06 7.28509e-08)
(-1.0229e-06 -5.80064e-06 6.20966e-08)
(-8.01763e-07 -5.45841e-06 5.40338e-08)
(-5.70938e-07 -4.97351e-06 4.81161e-08)
(-3.48829e-07 -4.27799e-06 4.29461e-08)
(-1.57383e-07 -3.24346e-06 3.58921e-08)
(-1.87852e-08 -1.57502e-06 1.93589e-08)
(1.40745e-08 -1.78023e-06 1.41452e-08)
(1.18363e-07 -3.66062e-06 2.67353e-08)
(2.65041e-07 -4.8215e-06 3.26953e-08)
(4.38522e-07 -5.59679e-06 3.7592e-08)
(6.2291e-07 -6.13501e-06 4.34438e-08)
(8.02894e-07 -6.51517e-06 5.12707e-08)
(9.62129e-07 -6.78479e-06 6.15082e-08)
(1.08409e-06 -6.97419e-06 7.42483e-08)
(1.15323e-06 -7.10383e-06 8.92586e-08)
(1.15645e-06 -7.18835e-06 1.05938e-07)
(1.08492e-06 -7.23905e-06 1.23271e-07)
(9.36015e-07 -7.26551e-06 1.39897e-07)
(7.1493e-07 -7.27606e-06 1.5419e-07)
(4.34986e-07 -7.27751e-06 1.64708e-07)
(1.16951e-07 -7.27491e-06 1.70144e-07)
(-2.14108e-07 -7.27085e-06 1.70258e-07)
(-5.32604e-07 -7.26514e-06 1.65036e-07)
(-8.13318e-07 -7.25491e-06 1.54709e-07)
(-1.03516e-06 -7.23482e-06 1.40592e-07)
(-1.18447e-06 -7.1977e-06 1.24138e-07)
(-1.25564e-06 -7.13514e-06 1.07014e-07)
(-1.25089e-06 -7.0377e-06 9.05996e-08)
(-1.17853e-06 -6.89437e-06 7.59274e-08)
(-1.05105e-06 -6.69124e-06 6.36143e-08)
(-8.83393e-07 -6.40924e-06 5.38939e-08)
(-6.91533e-07 -6.02017e-06 4.66438e-08)
(-4.91864e-07 -5.47953e-06 4.13784e-08)
(-3.00181e-07 -4.712e-06 3.68798e-08)
(-1.35275e-07 -3.57459e-06 3.08548e-08)
(-1.61104e-08 -1.73867e-06 1.6707e-08)
(1.17296e-08 -1.90142e-06 1.17933e-08)
(9.69641e-08 -3.90738e-06 2.21036e-08)
(2.15393e-07 -5.14838e-06 2.68121e-08)
(3.54562e-07 -5.98415e-06 3.06535e-08)
(5.01705e-07 -6.57286e-06 3.53056e-08)
(6.45029e-07 -6.99828e-06 4.16497e-08)
(7.71777e-07 -7.31e-06 5.00547e-08)
(8.68956e-07 -7.53932e-06 6.05933e-08)
(9.24102e-07 -7.70672e-06 7.30597e-08)
(9.26545e-07 -7.82635e-06 8.69382e-08)
(8.68905e-07 -7.90863e-06 1.01363e-07)
(7.48771e-07 -7.96197e-06 1.1519e-07)
(5.70233e-07 -7.99359e-06 1.27012e-07)
(3.4404e-07 -8.0096e-06 1.35655e-07)
(8.7166e-08 -8.01462e-06 1.40045e-07)
(-1.79955e-07 -8.01124e-06 1.40107e-07)
(-4.36712e-07 -7.99932e-06 1.35836e-07)
(-6.6255e-07 -7.97604e-06 1.2729e-07)
(-8.40253e-07 -7.93657e-06 1.15551e-07)
(-9.58826e-07 -7.8747e-06 1.01815e-07)
(-1.01396e-06 -7.78321e-06 8.75013e-08)
(-1.00779e-06 -7.65385e-06 7.37748e-08)
(-9.47421e-07 -7.47656e-06 6.15242e-08)
(-8.43193e-07 -7.23789e-06 5.12524e-08)
(-7.07339e-07 -6.91841e-06 4.31682e-08)
(-5.52728e-07 -6.48834e-06 3.71671e-08)
(-3.9248e-07 -5.9001e-06 3.28578e-08)
(-2.39136e-07 -5.07211e-06 2.92596e-08)
(-1.07573e-07 -3.84921e-06 2.45393e-08)
(-1.27642e-08 -1.8745e-06 1.33807e-08)
(8.35036e-09 -1.99447e-06 8.41245e-09)
(6.82693e-08 -4.0955e-06 1.56645e-08)
(1.51018e-07 -5.39657e-06 1.89192e-08)
(2.48076e-07 -6.27754e-06 2.16079e-08)
(3.50629e-07 -6.90453e-06 2.49447e-08)
(4.50726e-07 -7.36501e-06 2.95775e-08)
(5.39573e-07 -7.71024e-06 3.57613e-08)
(6.08088e-07 -7.97215e-06 4.35704e-08)
(6.47396e-07 -8.17105e-06 5.28665e-08)
(6.49657e-07 -8.32029e-06 6.32698e-08)
(6.09319e-07 -8.42935e-06 7.41235e-08)
(5.24232e-07 -8.50556e-06 8.45619e-08)
(3.96995e-07 -8.55505e-06 9.34966e-08)
(2.35144e-07 -8.58329e-06 1.00051e-07)
(5.09855e-08 -8.59462e-06 1.03363e-07)
(-1.40445e-07 -8.59181e-06 1.03368e-07)
(-3.23968e-07 -8.57473e-06 1.00065e-07)
(-4.84477e-07 -8.5405e-06 9.35094e-08)
(-6.09544e-07 -8.48459e-06 8.45737e-08)
(-6.91542e-07 -8.40158e-06 7.41598e-08)
(-7.27738e-07 -8.28534e-06 6.33743e-08)
(-7.20184e-07 -8.12876e-06 5.30716e-08)
(-6.7438e-07 -7.92278e-06 4.39165e-08)
(-5.98045e-07 -7.65453e-06 3.62851e-08)
(-5.0003e-07 -7.30453e-06 3.03137e-08)
(-3.89538e-07 -6.84194e-06 2.59179e-08)
(-2.75788e-07 -6.21676e-06 2.28262e-08)
(-1.67521e-07 -5.34278e-06 2.03378e-08)
(-7.50938e-08 -4.05554e-06 1.71439e-08)
(-8.83828e-09 -1.97668e-06 9.46807e-09)
(4.29333e-09 -2.05244e-06 4.34604e-09)
(3.45049e-08 -4.21191e-06 7.99174e-09)
(7.60657e-08 -5.54983e-06 9.60675e-09)
(1.25034e-07 -6.45907e-06 1.10294e-08)
(1.77222e-07 -7.11078e-06 1.29024e-08)
(2.28799e-07 -7.59488e-06 1.55773e-08)
(2.75311e-07 -7.96361e-06 1.92136e-08)
(3.11969e-07 -8.24909e-06 2.38602e-08)
(3.33858e-07 -8.47133e-06 2.9439e-08)
(3.36361e-07 -8.64307e-06 3.5753e-08)
(3.15916e-07 -8.77282e-06 4.24196e-08)
(2.70674e-07 -8.86687e-06 4.89374e-08)
(2.01522e-07 -8.93049e-06 5.46191e-08)
(1.12271e-07 -8.96852e-06 5.88806e-08)
(9.79276e-09 -8.98492e-06 6.10624e-08)
(-9.68444e-08 -8.98251e-06 6.10008e-08)
(-1.98228e-07 -8.9612e-06 5.87141e-08)
(-2.85294e-07 -8.91812e-06 5.43549e-08)
(-3.51137e-07 -8.84919e-06 4.86132e-08)
(-3.92001e-07 -8.74963e-06 4.20687e-08)
(-4.07058e-07 -8.61427e-06 3.54213e-08)
(-3.98213e-07 -8.43704e-06 2.918e-08)
(-3.69037e-07 -8.20974e-06 2.37175e-08)
(-3.24213e-07 -7.92004e-06 1.92218e-08)
(-2.68745e-07 -7.54853e-06 1.57601e-08)
(-2.07649e-07 -7.06383e-06 1.32742e-08)
(-1.45823e-07 -6.41443e-06 1.16008e-08)
(-8.78196e-08 -5.51128e-06 1.03779e-08)
(-3.89505e-08 -4.18397e-06 8.90218e-09)
(-4.46013e-09 -2.04044e-06 5.09961e-09)
(-1.65499e-10 -2.07079e-06 -1.22771e-10)
(-2.36474e-09 -4.24785e-06 -4.13333e-10)
(-5.45225e-09 -5.59713e-06 -5.51165e-10)
(-8.36042e-09 -6.51622e-06 -4.77204e-10)
(-1.02348e-08 -7.17806e-06 -1.55066e-10)
(-1.05936e-08 -7.67332e-06 4.38773e-10)
(-9.28351e-09 -8.05444e-06 1.33526e-09)
(-6.5947e-09 -8.35343e-06 2.57049e-09)
(-3.26206e-09 -8.58995e-06 4.17744e-09)
(-4.05272e-10 -8.77623e-06 6.17607e-09)
(6.03081e-10 -8.92008e-06 8.50475e-09)
(-1.70293e-09 -9.02696e-06 1.1031e-08)
(-8.40108e-09 -9.10127e-06 1.34724e-08)
(-1.97423e-08 -9.14709e-06 1.55141e-08)
(-3.46882e-08 -9.16766e-06 1.66571e-08)
(-5.05501e-08 -9.16548e-06 1.65438e-08)
(-6.40146e-08 -9.1405e-06 1.52087e-08)
(-7.24688e-08 -9.09027e-06 1.29795e-08)
(-7.49619e-08 -9.01141e-06 1.04158e-08)
(-7.1941e-08 -8.90001e-06 7.8293e-09)
(-6.46053e-08 -8.75179e-06 5.50873e-09)
(-5.46271e-08 -8.56139e-06 3.56958e-09)
(-4.35184e-08 -8.32126e-06 2.0619e-09)
(-3.25432e-08 -8.01955e-06 9.60593e-10)
(-2.25942e-08 -7.63697e-06 2.22303e-10)
(-1.42248e-08 -7.14203e-06 -1.95909e-10)
(-7.69434e-09 -6.48268e-06 -3.23678e-10)
(-3.13724e-09 -5.56881e-06 -1.91359e-10)
(-5.49331e-10 -4.2278e-06 1.47435e-10)
(1.94796e-10 -2.06247e-06 4.50201e-10)
(-4.79375e-09 -2.0471e-06 -4.76341e-09)
(-4.04643e-08 -4.19864e-06 -9.12558e-09)
(-8.95293e-08 -5.53256e-06 -1.10721e-08)
(-1.45751e-07 -6.44233e-06 -1.23818e-08)
(-2.03112e-07 -7.09908e-06 -1.36714e-08)
(-2.56757e-07 -7.5924e-06 -1.5264e-08)
(-3.01914e-07 -7.97403e-06 -1.72551e-08)
(-3.34316e-07 -8.27559e-06 -1.9638e-08)
(-3.50382e-07 -8.51636e-06 -2.23008e-08)
(-3.47644e-07 -8.70825e-06 -2.50444e-08)
(-3.25152e-07 -8.85869e-06 -2.75943e-08)
(-2.83802e-07 -8.97263e-06 -2.96584e-08)
(-2.26398e-07 -9.05372e-06 -3.10479e-08)
(-1.57202e-07 -9.10497e-06 -3.1746e-08)
(-8.11821e-08 -9.12863e-06 -3.19444e-08)
(-2.55563e-09 -9.12658e-06 -3.21052e-08)
(7.52256e-08 -9.09874e-06 -3.21714e-08)
(1.47835e-07 -9.04338e-06 -3.17198e-08)
(2.10134e-07 -8.95829e-06 -3.04857e-08)
(2.57545e-07 -8.84055e-06 -2.85121e-08)
(2.87024e-07 -8.68658e-06 -2.5969e-08)
(2.9738e-07 -8.49161e-06 -2.31777e-08)
(2.89366e-07 -8.24836e-06 -2.04131e-08)
(2.65253e-07 -7.94516e-06 -1.7898e-08)
(2.2841e-07 -7.56299e-06 -1.57566e-08)
(1.82846e-07 -7.07054e-06 -1.39935e-08)
(1.32959e-07 -6.41634e-06 -1.25092e-08)
(8.3078e-08 -5.51104e-06 -1.09778e-08)
(3.85583e-08 -4.18375e-06 -8.78547e-09)
(4.94434e-09 -2.0411e-06 -4.29857e-09)
(-9.35855e-09 -1.981e-06 -9.33514e-09)
(-7.79402e-08 -4.06372e-06 -1.77046e-08)
(-1.72129e-07 -5.35548e-06 -2.14216e-08)
(-2.80596e-07 -6.23683e-06 -2.40816e-08)
(-3.92326e-07 -6.8732e-06 -2.69471e-08)
(-4.98201e-07 -7.35128e-06 -3.06848e-08)
(-5.8902e-07 -7.72114e-06 -3.5551e-08)
(-6.56127e-07 -8.01346e-06 -4.15679e-08)
(-6.9176e-07 -8.24716e-06 -4.85676e-08)
(-6.89907e-07 -8.43404e-06 -5.6185e-08)
(-6.47147e-07 -8.5815e-06 -6.3855e-08)
(-5.63563e-07 -8.69424e-06 -7.0907e-08)
(-4.4337e-07 -8.77563e-06 -7.66435e-08)
(-2.94446e-07 -8.82792e-06 -8.05961e-08)
(-1.27688e-07 -8.85255e-06 -8.24877e-08)
(4.54553e-08 -8.85054e-06 -8.26629e-08)
(2.14171e-07 -8.82184e-06 -8.10731e-08)
(3.66846e-07 -8.76555e-06 -7.73961e-08)
(4.9237e-07 -8.68052e-06 -7.18477e-08)
(5.82461e-07 -8.56443e-06 -6.49082e-08)
(6.3261e-07 -8.41409e-06 -5.72486e-08)
(6.42388e-07 -8.22488e-06 -4.95914e-08)
(6.14944e-07 -7.98952e-06 -4.24947e-08)
(5.56061e-07 -7.69635e-06 -3.63538e-08)
(4.73267e-07 -7.32658e-06 -3.13471e-08)
(3.74964e-07 -6.84975e-06 -2.74419e-08)
(2.70015e-07 -6.2159e-06 -2.43819e-08)
(1.6709e-07 -5.33848e-06 -2.14811e-08)
(7.66782e-08 -4.05217e-06 -1.74959e-08)
(9.57892e-09 -1.97645e-06 -8.93651e-09)
(-1.36334e-08 -1.87425e-06 -1.36257e-08)
(-1.12988e-07 -3.84674e-06 -2.57521e-08)
(-2.49306e-07 -5.07076e-06 -3.11221e-08)
(-4.06515e-07 -5.90548e-06 -3.50345e-08)
(-5.68913e-07 -6.50689e-06 -3.9352e-08)
(-7.23508e-07 -6.95693e-06 -4.50826e-08)
(-8.56987e-07 -7.30308e-06 -5.26057e-08)
(-9.56653e-07 -7.57458e-06 -6.20187e-08)
(-1.01091e-06 -7.78973e-06 -7.31329e-08)
(-1.0104e-06 -7.96021e-06 -8.54489e-08)
(-9.49357e-07 -8.09367e-06 -9.81886e-08)
(-8.26929e-07 -8.19525e-06 -1.10301e-07)
(-6.48297e-07 -8.26843e-06 -1.20593e-07)
(-4.24495e-07 -8.3155e-06 -1.28074e-07)
(-1.71783e-07 -8.33773e-06 -1.31887e-07)
(9.12408e-08 -8.33567e-06 -1.32061e-07)
(3.46008e-07 -8.30936e-06 -1.28562e-07)
(5.73719e-07 -8.25843e-06 -1.21363e-07)
(7.57888e-07 -8.18183e-06 -1.11266e-07)
(8.8707e-07 -8.07726e-06 -9.927e-08)
(9.55691e-07 -7.94141e-06 -8.65625e-08)
(9.64242e-07 -7.76915e-06 -7.42118e-08)
(9.1819e-07 -7.55295e-06 -6.30208e-08)
(8.26631e-07 -7.28114e-06 -5.34886e-08)
(7.00921e-07 -6.9355e-06 -4.58287e-08)
(5.53508e-07 -6.48696e-06 -3.99445e-08)
(3.97386e-07 -5.88798e-06 -3.54307e-08)
(2.45176e-07 -5.05679e-06 -3.12755e-08)
(1.12132e-07 -3.83736e-06 -2.56189e-08)
(1.38976e-08 -1.8706e-06 -1.32634e-08)
(-1.74349e-08 -1.73045e-06 -1.74348e-08)
(-1.4399e-07 -3.55508e-06 -3.2885e-08)
(-3.17438e-07 -4.68831e-06 -3.96999e-08)
(-5.17558e-07 -5.46008e-06 -4.46915e-08)
(-7.24528e-07 -6.01373e-06 -5.02312e-08)
(-9.21926e-07 -6.42457e-06 -5.76084e-08)
(-1.09284e-06 -6.73659e-06 -6.73277e-08)
(-1.22101e-06 -6.97709e-06 -7.95453e-08)
(-1.29151e-06 -7.16351e-06 -9.40502e-08)
(-1.29213e-06 -7.30754e-06 -1.10254e-07)
(-1.21505e-06 -7.41717e-06 -1.27175e-07)
(-1.05855e-06 -7.49823e-06 -1.43473e-07)
(-8.28592e-07 -7.55505e-06 -1.57561e-07)
(-5.38923e-07 -7.59077e-06 -1.67994e-07)
(-2.10425e-07 -7.60722e-06 -1.73453e-07)
(1.31904e-07 -7.60515e-06 -1.73616e-07)
(4.62452e-07 -7.58467e-06 -1.68458e-07)
(7.56066e-07 -7.54522e-06 -1.58285e-07)
(9.91578e-07 -7.48512e-06 -1.44391e-07)
(1.15484e-06 -7.40134e-06 -1.28206e-07)
(1.2395e-06 -7.28969e-06 -1.1133e-07)
(1.24689e-06 -7.1443e-06 -9.51038e-08)
(1.18451e-06 -6.95723e-06 -8.05361e-08)
(1.06429e-06 -6.71681e-06 -6.82173e-08)
(9.00915e-07 -6.40559e-06 -5.83724e-08)
(7.10397e-07 -5.99633e-06 -5.08472e-08)
(5.09356e-07 -5.44506e-06 -4.51209e-08)
(3.13865e-07 -4.67646e-06 -3.98917e-08)
(1.43358e-07 -3.54718e-06 -3.27852e-08)
(1.77141e-08 -1.72739e-06 -1.70937e-08)
(-2.05792e-08 -1.55492e-06 -2.05917e-08)
(-1.6955e-07 -3.19963e-06 -3.88015e-08)
(-3.7351e-07 -4.2226e-06 -4.67964e-08)
(-6.0885e-07 -4.91788e-06 -5.26227e-08)
(-8.52348e-07 -5.41337e-06 -5.90706e-08)
(-1.08472e-06 -5.7764e-06 -6.76588e-08)
(-1.28608e-06 -6.04659e-06 -7.89895e-08)
(-1.43725e-06 -6.2489e-06 -9.32397e-08)
(-1.52062e-06 -6.39978e-06 -1.10166e-07)
(-1.52169e-06 -6.51067e-06 -1.2912e-07)
(-1.43108e-06 -6.59004e-06 -1.48979e-07)
(-1.24652e-06 -6.64468e-06 -1.68217e-07)
(-9.74644e-07 -6.68008e-06 -1.84961e-07)
(-6.31424e-07 -6.7006e-06 -1.97456e-07)
(-2.41418e-07 -6.7092e-06 -2.04075e-07)
(1.65287e-07 -6.70721e-06 -2.04217e-07)
(5.57289e-07 -6.69474e-06 -1.9787e-07)
(9.04354e-07 -6.67066e-06 -1.85613e-07)
(1.18164e-06 -6.63217e-06 -1.69042e-07)
(1.37284e-06 -6.57508e-06 -1.49913e-07)
(1.47089e-06 -6.49395e-06 -1.30109e-07)
(1.47767e-06 -6.38199e-06 -1.11148e-07)
(1.40225e-06 -6.23072e-06 -9.41677e-08)
(1.25883e-06 -6.02872e-06 -7.9841e-08)
(1.06479e-06 -5.75949e-06 -6.84e-08)
(8.39042e-07 -5.39809e-06 -5.96712e-08)
(6.01213e-07 -4.90482e-06 -5.30496e-08)
(3.70244e-07 -4.21239e-06 -4.69931e-08)
(1.69025e-07 -3.19289e-06 -3.87091e-08)
(2.08599e-08 -1.5523e-06 -2.02593e-08)
(-2.29429e-08 -1.35438e-06 -2.29623e-08)
(-1.88598e-07 -2.79406e-06 -4.32486e-08)
(-4.15186e-07 -3.69167e-06 -5.21027e-08)
(-6.76657e-07 -4.30026e-06 -5.84945e-08)
(-9.47293e-07 -4.73013e-06 -6.55121e-08)
(-1.20563e-06 -5.03969e-06 -7.48259e-08)
(-1.42944e-06 -5.26368e-06 -8.70846e-08)
(-1.59732e-06 -5.42438e-06 -1.02477e-07)
(-1.68964e-06 -5.53695e-06 -1.20725e-07)
(-1.69031e-06 -5.61242e-06 -1.41125e-07)
(-1.58901e-06 -5.65968e-06 -1.62481e-07)
(-1.38326e-06 -5.68635e-06 -1.8316e-07)
(-1.08036e-06 -5.6991e-06 -2.0118e-07)
(-6.9799e-07 -5.70359e-06 -2.14645e-07)
(-2.63334e-07 -5.7039e-06 -2.2182e-07)
(1.89979e-07 -5.70204e-06 -2.2194e-07)
(6.26542e-07 -5.69814e-06 -2.14994e-07)
(1.0126e-06 -5.69036e-06 -2.01733e-07)
(1.32069e-06 -5.67477e-06 -1.83872e-07)
(1.53282e-06 -5.64591e-06 -1.63297e-07)
(1.64127e-06 -5.59709e-06 -1.41994e-07)
(1.6482e-06 -5.52077e-06 -1.21602e-07)
(1.56358e-06 -5.40802e-06 -1.03319e-07)
(1.40322e-06 -5.24773e-06 -8.78656e-08)
(1.18649e-06 -5.02476e-06 -7.55158e-08)
(9.34549e-07 -4.71677e-06 -6.60814e-08)
(6.69361e-07 -4.28898e-06 -5.88998e-08)
(4.12072e-07 -3.68294e-06 -5.22874e-08)
(1.88097e-07 -2.78833e-06 -4.31536e-08)
(2.32101e-08 -1.35217e-06 -2.26376e-08)
(-2.44166e-08 -1.13655e-06 -2.44424e-08)
(-2.00272e-07 -2.354e-06 -4.60256e-08)
(-4.4074e-07 -3.11611e-06 -5.53955e-08)
(-7.18471e-07 -3.6314e-06 -6.20691e-08)
(-1.00622e-06 -3.99137e-06 -6.93141e-08)
(-1.28105e-06 -4.24491e-06 -7.88906e-08)
(-1.51907e-06 -4.42157e-06 -9.14543e-08)
(-1.69731e-06 -4.5408e-06 -1.07177e-07)
(-1.79482e-06 -4.61623e-06 -1.25764e-07)
(-1.79461e-06 -4.65837e-06 -1.46467e-07)
(-1.68594e-06 -4.67612e-06 -1.68056e-07)
(-1.46642e-06 -4.67758e-06 -1.88897e-07)
(-1.14403e-06 -4.67027e-06 -2.07029e-07)
(-7.37596e-07 -4.6607e-06 -2.20548e-07)
(-2.75824e-07 -4.6538e-06 -2.27761e-07)
(2.05694e-07 -4.65214e-06 -2.27862e-07)
(6.69251e-07 -4.6558e-06 -2.20847e-07)
(1.07915e-06 -4.66244e-06 -2.07498e-07)
(1.40644e-06 -4.66726e-06 -1.89502e-07)
(1.632e-06 -4.66388e-06 -1.6876e-07)
(1.74749e-06 -4.64481e-06 -1.47223e-07)
(1.75496e-06 -4.60199e-06 -1.26535e-07)
(1.66484e-06 -4.52647e-06 -1.0793e-07)
(1.49381e-06 -4.4077e-06 -9.21593e-08)
(1.2626e-06 -4.23202e-06 -7.95198e-08)
(9.93922e-07 -3.97995e-06 -6.98372e-08)
(7.11409e-07 -3.62186e-06 -6.24363e-08)
(4.37713e-07 -3.10882e-06 -5.55584e-08)
(1.99763e-07 -2.34927e-06 -4.59268e-08)
(2.46641e-08 -1.13475e-06 -2.41274e-08)
(-2.48934e-08 -9.1001e-07 -2.49233e-08)
(-2.0386e-07 -1.89674e-06 -4.69251e-08)
(-4.48865e-07 -2.51842e-06 -5.64065e-08)
(-7.32576e-07 -2.93741e-06 -6.30541e-08)
(-1.0273e-06 -3.22601e-06 -7.01966e-08)
(-1.30929e-06 -3.42359e-06 -7.96101e-08)
(-1.55365e-06 -3.55456e-06 -9.19489e-08)
(-1.73645e-06 -3.63536e-06 -1.07359e-07)
(-1.83603e-06 -3.67797e-06 -1.2551e-07)
(-1.83505e-06 -3.692e-06 -1.4563e-07)
(-1.72279e-06 -3.68596e-06 -1.66512e-07)
(-1.49724e-06 -3.66792e-06 -1.86575e-07)
(-1.16688e-06 -3.64559e-06 -2.03959e-07)
(-7.511e-07 -3.62579e-06 -2.16873e-07)
(-2.79172e-07 -3.61378e-06 -2.23765e-07)
(2.12755e-07 -3.61237e-06 -2.23849e-07)
(6.86341e-07 -3.62162e-06 -2.17122e-07)
(1.10534e-06 -3.63892e-06 -2.04354e-07)
(1.44027e-06 -3.65913e-06 -1.87088e-07)
(1.67148e-06 -3.67554e-06 -1.67113e-07)
(1.79015e-06 -3.68049e-06 -1.46283e-07)
(1.79798e-06 -3.66592e-06 -1.26185e-07)
(1.7054e-06 -3.62327e-06 -1.08026e-07)
(1.52947e-06 -3.54294e-06 -9.25791e-08)
(1.2916e-06 -3.41287e-06 -8.01774e-08)
(1.01549e-06 -3.21658e-06 -7.06746e-08)
(7.25758e-07 -2.92962e-06 -6.33922e-08)
(4.459e-07 -2.51255e-06 -5.65532e-08)
(2.0332e-07 -1.89303e-06 -4.68268e-08)
(2.51148e-08 -9.08653e-07 -2.46254e-08)
(-2.42235e-08 -6.84229e-07 -2.42543e-08)
(-1.98497e-07 -1.44101e-06 -4.56438e-08)
(-4.38232e-07 -1.92256e-06 -5.47434e-08)
(-7.17525e-07 -2.24566e-06 -6.09875e-08)
(-1.00932e-06 -2.46405e-06 -6.76635e-08)
(-1.28963e-06 -2.60797e-06 -7.65153e-08)
(-1.53311e-06 -2.6969e-06 -8.81855e-08)
(-1.7154e-06 -2.74426e-06 -1.02782e-07)
(-1.81468e-06 -2.76022e-06 -1.19948e-07)
(-1.81374e-06 -2.75313e-06 -1.38909e-07)
(-1.70218e-06 -2.73063e-06 -1.585e-07)
(-1.47843e-06 -2.70019e-06 -1.77229e-07)
(-1.1513e-06 -2.66903e-06 -1.93392e-07)
(-7.4017e-07 -2.64363e-06 -2.05349e-07)