/*--------------------------------*- C++ -*----------------------------------*\
| =========                 |                                                 |
| \\      /  F ield         | OpenFOAM: The Open Source CFD Toolbox           |
|  \\    /   O peration     | Version:  v1906                                 |
|   \\  /    A nd           | Web:      www.OpenFOAM.com                      |
|    \\/     M anipulation  |                                                 |
\*---------------------------------------------------------------------------*/
FoamFile
{
    version     2.0;
    format      ascii;
    class       volScalarField;
    location    "33";
    object      omega;
}
// * * * * * * * * * * * * * * * * * * * * * * * * * * * * * * * * * * * * * //

dimensions      [0 0 -1 0 0 0 0];


internalField   nonuniform List<scalar> 
78750
(
416.732
150.371
82.8328
77.8516
78.239
73.5376
71.8843
67.0505
65.1302
61.3306
59.8279
57.9269
56.7611
55.2356
55.066
54.5915
52.7108
51.0898
52.5881
51.4854
46.8606
46.06
47.3125
46.6912
44.0023
41.7071
40.8696
40.4249
38.6504
35.5267
33.5723
32.845
34.0726
38.2928
428.881
1157.92
57.3444
36.6988
45.4309
18.4103
18.3655
12.3038
15.2891
18.116
12.6733
18.741
14.7001
17.9869
16.0085
18.2305
16.8499
18.3415
17.6916
18.7382
18.5992
18.8515
18.9822
19.4738
19.4968
19.0364
18.2356
16.8587
14.0624
10.1238
8.81223
9.77814
10.6766
13.7319
18.7456
622.157
1062.14
64.1112
23.2918
7.265
14.5461
20.9227
13.563
8.17197
15.7115
17.9414
17.8223
17.6125
17.0453
16.7194
16.3037
16.0528
15.7419
15.5306
15.5144
15.5534
15.5759
15.4403
15.3058
15.2198
15.1636
15.0794
15.6217
15.5266
12.2796
11.2716
13.4712
12.5493
11.2921
15.2511
627.668
630.69
30.6505
15.9709
15.4695
12.9284
10.9855
14.3975
15.8578
16.4422
16.8531
17.1615
17.3957
17.5013
17.4319
17.2487
16.9802
16.6414
16.2536
15.8442
15.4541
15.0992
14.778
14.4862
14.2363
13.9836
13.8013
13.8341
13.4492
12.6953
12.5044
11.8458
10.3948
7.22664
6.71224
615.604
490.989
31.5322
32.4427
32.1328
28.9267
24.3382
20.7952
18.6934
18.1179
18.6459
19.4484
20.0527
20.3438
20.3846
20.2402
19.9667
19.5842
19.1038
18.5544
17.9951
17.491
17.0991
16.8246
16.6437
16.519
16.4525
16.3845
16.2493
16.1346
15.8231
15.2584
16.3157
15.3145
10.853
608.856
451.819
21.2508
17.9992
13.6968
14.4249
15.2493
16.4942
17.9266
19.2172
20.248
20.995
21.4234
21.5292
21.3501
20.9662
20.4675
19.9164
19.3335
18.7155
17.9911
17.0932
16.1793
15.4664
15.0125
14.8167
14.8814
15.1614
15.5371
15.9003
16.2175
16.3791
16.1879
15.7171
15.4089
610.445
437.089
16.9745
18.5487
21.7802
23.9077
24.9493
25.4919
25.6875
25.6441
25.4842
25.2956
25.1157
24.965
24.7725
24.4369
24.0198
23.6471
23.3392
23.0606
22.7698
22.2607
21.1961
19.6928
18.1045
16.5018
15.0181
14.0272
13.8211
14.2627
14.856
15.1046
14.8729
14.3065
13.5235
605.904
499.752
36.2308
36.6282
36.1526
34.9211
33.3583
31.6931
30.0487
28.5106
27.0345
25.6668
24.3253
23.4432
22.7121
21.4929
20.0659
19.031
18.3091
17.5597
17.1704
17.1239
16.771
17.1783
19.3697
21.6157
22
20.2336
17.1675
14.394
13.3831
14.2696
15.8279
16.0687
14.7547
609.78
483.987
34.5543
34.6056
33.0994
30.8428
28.3061
25.5721
22.6522
20.3094
17.2204
14.7113
11.6845
6.96902
6.63724
5.59268
4.46963
5.61685
4.8557
5.81851
5.90025
7.9795
9.7044
11.0888
12.2023
13.0515
13.634
13.9831
14.154
14.188
14.0982
13.8407
13.3321
12.9013
13.1135
609.802
424.207
17.8467
17.0051
15.1392
13.4045
12.7264
13.2079
14.2821
15.4463
16.5811
17.1952
17.9072
18.4911
18.8503
18.2633
16.3459
14.4815
13.347
12.6272
12.0373
11.5992
11.466
11.6135
11.9503
12.3783
12.7909
13.08
13.1603
12.9858
12.4608
11.3749
10.1417
9.84938
11.4881
605.787
416.819
16.0657
17.4356
18.1454
18.454
18.3574
17.9009
17.1796
16.2915
15.3008
14.3089
13.4649
13.0079
12.7975
12.4217
11.9511
11.7475
11.795
11.9128
11.963
11.8757
11.6644
11.4361
11.3236
11.3866
11.6
11.8849
12.1111
12.1564
11.9319
11.1636
9.93147
9.066
10.3136
604.993
421.397
16.8338
17.7955
18.2615
18.598
18.8881
19.1287
19.2808
19.2729
19.002
18.3455
17.2558
15.8601
14.4378
13.246
12.3901
11.9279
11.8051
11.8131
11.8007
11.7305
11.6166
11.4875
11.3757
11.3108
11.3136
11.3823
11.454
11.3929
11.0278
10.2164
9.22382
8.52299
9.88476
605.201
422.562
17.0079
17.9263
18.3279
18.5336
18.6278
18.6494
18.6247
18.5696
18.4756
18.2824
17.867
17.1008
15.9301
14.4333
12.8562
11.6241
11.1574
11.3404
11.6412
11.7778
11.7572
11.6576
11.5369
11.4187
11.2975
11.1444
10.9008
10.4867
9.86468
9.1505
8.46084
8.57099
10.4918
607.065
424.796
17.7738
18.7526
19.24
19.5377
19.7222
19.8134
19.8155
19.7336
19.5913
19.4302
19.2709
19.0701
18.7028
17.9798
16.7138
14.7234
11.9265
9.11501
8.06506
8.75467
9.63427
10.1722
10.4108
10.46
10.3996
10.2743
10.0977
9.87529
9.64045
9.42043
9.14479
9.79423
11.6819
609.312
430.534
18.6379
19.1889
19.459
19.6216
19.7091
19.7215
19.6458
19.4643
19.1648
18.7612
18.3148
17.927
17.6769
17.5438
17.4017
17.012
16.0158
14.3485
12.5816
11.299
10.4967
9.96471
9.6412
9.46982
9.33262
9.14306
8.88168
8.61084
8.42529
8.3993
9.20414
11.1332
13.0712
611.769
434.256
19.2092
19.6207
19.8498
20.0041
20.1003
20.1327
20.0867
19.952
19.7248
19.3979
18.9497
18.3612
17.685
17.0604
16.5693
16.143
15.5826
14.6509
13.3957
12.0766
10.9839
10.2486
9.74724
9.39677
9.17515
9.02145
8.88153
8.74561
8.61963
8.49608
9.27675
11.84
13.9013
613.772
437.107
19.4711
19.6779
19.7764
19.8096
19.7689
19.6306
19.3729
19.0069
18.5748
18.1181
17.6532
17.164
16.6201
16.0389
15.4872
14.9418
14.2666
13.3653
12.3154
11.3852
10.7598
10.3152
9.953
9.69747
9.6055
9.63136
9.69362
9.74584
9.76962
9.73926
10.2701
12.728
14.8124
616.078
438.981
19.8872
20.0305
20.1005
20.1218
20.0865
19.9738
19.7226
19.2976
18.7178
18.0088
17.1995
16.3405
15.5014
14.7449
14.0925
13.4925
12.8638
12.1823
11.5069
10.9222
10.4486
10.0309
9.63752
9.31688
9.17189
9.23588
9.46619
9.85886
10.4799
11.296
12.2012
14.1011
15.8824
617.228
438.335
19.6408
19.685
19.6524
19.5519
19.4099
19.2878
19.1456
18.8839
18.4524
17.8248
16.9945
16.0333
15.1101
14.3597
13.7645
13.2396
12.721
12.1859
11.6393
11.091
10.5386
9.96193
9.30755
8.51966
7.66469
7.04752
7.03791
7.85944
9.70407
12.1451
14.3062
15.5651
16.6095
616.031
440.205
20.1711
20.2021
20.177
20.0896
19.9523
19.8254
19.7141
19.548
19.2703
18.8493
18.247
17.4232
16.4076
15.3707
14.5019
13.8385
13.3062
12.8304
12.3753
11.9246
11.4628
10.9713
10.4285
9.80201
9.04551
8.15754
7.26309
6.61341
6.63573
8.31186
11.9826
14.689
15.8511
614.504
436.927
19.4938
19.6938
19.7627
19.7242
19.5833
19.4117
19.2993
19.2427
19.1666
19.0082
18.7314
18.2971
17.645
16.7433
15.7073
14.7711
14.0586
13.5262
13.0898
12.6926
12.3054
11.9121
11.5007
11.057
10.56
9.98653
9.35543
8.69085
7.92313
6.60431
7.62709
12.6906
15.4062
618.351
435.281
19.7827
20.2914
20.5406
20.6171
20.4933
20.1633
19.7417
19.4207
19.2584
19.1597
19.0179
18.7765
18.399
17.8297
17.0068
15.9733
14.9463
14.1181
13.5103
13.0521
12.67
12.3109
11.9376
11.5192
11.0271
10.4772
9.90232
9.15566
8.42933
7.23601
8.22583
13.8183
17.2983
625.807
432.743
19.4758
20.2428
20.704
21.0067
21.1126
20.94
20.4273
19.7187
19.1525
18.8848
18.7837
18.6762
18.4697
18.1176
17.5702
16.7756
15.7721
14.7557
13.9437
13.352
12.843
12.336
11.7875
11.1173
10.3439
9.58043
9.19875
10.7623
12.9677
13.2593
13.3782
15.651
17.9948
624.281
434.729
19.846
20.5467
21.0466
21.4939
21.84
21.9647
21.7422
21.0842
20.1302
19.3208
18.9086
18.7502
18.6251
18.4051
18.0141
17.3857
16.5043
15.4906
14.5528
13.8
13.1533
12.4854
11.695
10.7277
9.67536
8.92954
9.86586
13.1866
16.7995
18.463
18.5448
18.5855
18.8124
616.855
434.475
19.6146
20.1516
20.5551
21.0195
21.5598
22.0069
22.1752
21.9749
21.3223
20.288
19.3237
18.7816
18.5645
18.4354
18.2406
17.898
17.3563
16.6191
15.7822
14.9732
14.2422
13.5515
12.8314
12.0103
11.0462
10.0416
9.53547
10.6101
13.2448
15.8617
17.9202
19.2122
19.1528
613.708
437.189
20.1342
20.3132
20.4286
20.6931
21.2921
22.0185
22.5062
22.648
22.4403
21.8245
20.8066
19.7574
19.0731
18.7329
18.5229
18.2882
17.9516
17.4869
16.9199
16.3136
15.7239
15.1673
14.6282
14.0775
13.4803
12.8074
12.0855
11.4947
11.2711
11.3167
11.0679
13.1457
14.7228
612.815
437.432
19.875
19.7182
19.5038
19.444
20.1119
21.2994
22.2105
22.6618
22.7387
22.4899
21.8629
20.8525
19.8047
19.0925
18.6919
18.4238
18.1646
17.8627
17.5126
17.1291
16.7297
16.3237
15.9139
15.4964
15.0583
14.5849
14.0952
13.5787
12.902
12.0643
8.53426
7.66673
12.6749
622.848
441.642
20.3665
19.8215
19.2009
18.5484
19.033
20.8079
22.209
22.9291
23.1769
23.0963
22.7038
21.9291
20.829
19.8032
19.1171
18.6879
18.3694
18.0817
17.7921
17.4823
17.1426
16.771
16.3692
15.9388
15.484
15.0314
14.5066
13.5382
12.386
11.3079
9.2044
12.8421
17.8432
633.468
443.839
20.5056
19.8467
18.9955
17.7123
17.6278
19.9221
21.6977
22.5891
22.9651
23.021
22.8001
22.2594
21.3667
20.3351
19.5204
19.0021
18.6563
18.341
17.9903
17.591
17.1381
16.6372
16.0907
15.505
14.86
13.9671
13.3878
14.3476
15.1527
14.7773
14.556
16.6112
19.4511
629.303
448.175
21.3675
20.6552
19.7327
18.2224
17.6479
19.9338
21.6159
22.4493
22.8494
22.971
22.8391
22.418
21.6816
20.7613
19.9535
19.4109
19.0339
18.6824
18.2891
17.8298
17.2844
16.6431
15.9197
15.0339
13.8392
12.9889
14.1845
16.8298
18.4277
18.6645
18.674
19.0606
19.5307
617.811
451.994
21.3423
20.1818
19.0055
17.6927
17.5774
19.6305
21.0305
21.7857
22.2329
22.4601
22.475
22.2593
21.8122
21.2104
20.6135
20.1307
19.7522
19.4147
19.0588
18.651
18.17
17.5726
16.8066
15.8262
14.6262
13.5455
13.6147
15.2966
17.144
18.2972
19.1092
19.586
19.3963
613.151
454.183
20.9076
19.2814
17.9135
17.4799
18.2426
19.4185
20.2893
20.9489
21.4508
21.7903
21.9616
21.9634
21.8087
21.5388
21.2219
20.914
20.631
20.3621
20.0888
19.7922
19.4544
19.0553
18.5695
17.9647
17.2111
16.3213
15.4691
15.0437
15.1954
15.637
16.2857
16.9521
17.1233
612.719
446.631
19.8581
18.8929
18.0065
17.5602
17.4987
17.628
18.1518
18.9237
19.7348
20.4256
20.9366
21.2692
21.4424
21.4837
21.4315
21.3255
21.1906
21.0354
20.8621
20.6691
20.4537
20.2114
19.9344
19.6108
19.2244
18.7578
18.2051
17.599
17.0004
16.4417
15.7587
15.021
15.6914
617.216
439.788
21.0681
21.4202
21.2611
20.5667
19.3534
17.8408
16.4984
15.8817
16.3879
17.5949
18.7727
19.6722
20.3047
20.7171
20.9581
21.0755
21.1082
21.0813
21.0089
20.9002
20.7602
20.5928
20.4018
20.1899
19.9596
19.7073
19.4025
18.9686
18.3654
17.5485
16.1494
15.7947
17.7323
625.924
436.088
21.7711
22.7743
23.1854
23.2932
23.0211
22.0847
20.158
17.2247
14.2252
13.6973
15.3225
17.0855
18.4084
19.3313
19.9579
20.3571
20.5835
20.6849
20.6965
20.6376
20.5211
20.3618
20.1665
19.9389
19.6853
19.412
19.1922
19.1904
19.0577
18.3895
17.3615
17.6965
19.522
628.397
440.122
21.6081
22.42
22.9717
23.4731
23.9142
24.1094
23.6632
21.7651
17.5661
13.174
12.8864
14.9116
16.7793
18.118
19.0373
19.6403
20.024
20.247
20.329
20.2888
20.1442
19.9142
19.6233
19.263
18.7812
18.2415
18.3345
19.511
20.2102
19.8812
19.2511
19.1852
19.726
622.618
445.065
22.0128
22.4456
22.7298
22.9764
23.2322
23.461
23.4739
22.8624
20.521
15.7623
12.8692
13.9548
15.7796
17.214
18.2645
19.0243
19.5529
19.8998
20.0889
20.1267
20.0233
19.7928
19.4375
18.918
18.1845
17.386
17.2787
18.6424
20.1797
20.5876
20.3903
20.0983
19.6776
617.092
448.956
23.0391
23.4776
23.7843
24.0473
24.2429
24.2468
23.9338
23.2591
21.9438
19.0519
15.2272
14.1314
15.2124
16.4936
17.5481
18.3894
19.0517
19.5467
19.881
20.0626
20.0982
19.9879
19.722
19.2789
18.6302
17.7956
17.059
17.1161
18.1074
19.0861
19.5636
19.6016
19.2358
615.942
446.982
22.5522
23.0602
23.5223
24.1053
24.8138
25.3419
25.3627
24.8587
23.9034
22.267
19.3781
16.3617
15.4152
16.0046
16.9023
17.7336
18.4529
19.0561
19.5367
19.8899
20.1149
20.2107
20.171
19.983
19.6289
19.0923
18.396
17.7052
17.3371
17.4421
17.911
18.3171
18.4963
617.433
449.905
22.758
22.8597
23.0795
23.6217
24.6362
25.713
26.3304
26.3791
25.9454
25.0383
23.3938
20.6558
17.7862
16.4587
16.5849
17.1956
17.8558
18.4666
19.0069
19.4646
19.8311
20.1011
20.2696
20.3295
20.2693
20.0725
19.7223
19.2144
18.5825
17.9316
17.5718
17.8618
18.4642
620.099
454.035
23.1313
22.965
23.0825
23.6754
24.7827
25.9065
26.6413
26.9416
26.8898
26.5171
25.7461
24.2857
21.8341
19.2171
17.8112
17.6154
17.9121
18.3253
18.7471
19.1486
19.515
19.8341
20.096
20.2934
20.419
20.4604
20.3961
20.1918
19.7965
19.1529
18.4201
18.4427
19.1316
622.544
455.353
23.0152
22.8214
23.0974
24.1066
25.522
26.57
27.1654
27.4463
27.4852
27.2985
26.8579
26.0573
24.6415
22.4306
20.2219
19.0055
18.6675
18.7228
18.9096
19.1385
19.3809
19.6232
19.8551
20.0682
20.2569
20.4149
20.527
20.5578
20.4354
20.041
19.4302
19.3852
19.9729
624.529
451.486
22.1253
21.8865
22.0377
23.0109
24.7162
26.1284
27.0163
27.5383
27.7975
27.8306
27.6378
27.1819
26.3532
24.952
22.9786
21.1601
20.1
19.6585
19.5178
19.5022
19.5436
19.6193
19.7225
19.8504
20.0022
20.1816
20.3868
20.5946
20.7222
20.6064
20.2601
20.2413
20.6561
625.767
451.731
22.4117
22.0083
21.7969
22.1269
23.5714
25.2624
26.4937
27.2926
27.7827
28.0301
28.0558
27.8519
27.3716
26.5056
25.1273
23.402
21.9094
20.9711
20.4587
20.1664
19.9749
19.8356
19.7379
19.6894
19.7079
19.8227
20.0653
20.4248
20.79
20.9621
20.9192
20.9777
21.2564
626.849
452.365
22.2645
21.7479
21.4456
21.5963
22.8548
24.658
26.0702
27.0249
27.6584
28.0527
28.2357
28.2076
27.9438
27.3834
26.4377
25.1043
23.6564
22.4763
21.6704
21.1227
20.7054
20.3452
20.0163
19.7255
19.5072
19.4482
19.7173
20.3114
20.8531
21.1651
21.2989
21.4343
21.6828
627.878
451.683
22.0584
21.5861
21.2518
21.1546
21.9531
23.7721
25.4405
26.6052
27.4003
27.9384
28.2632
28.383
28.2845
27.9306
27.2657
26.2679
25.0533
23.8795
22.9286
22.1944
21.5871
21.0268
20.4687
19.9023
19.3572
18.9931
19.3397
20.6128
21.4848
21.7366
21.7576
21.7726
21.8445
627.191
448.428
21.8991
21.5487
21.0772
20.4108
20.0265
21.5211
23.8135
25.5133
26.6479
27.4297
27.9616
28.2755
28.3705
28.2246
27.805
27.1
26.1719
25.1712
24.2424
23.4282
22.6875
21.9552
21.1758
20.3119
19.3561
18.4917
18.6143
20.6847
22.5199
22.86
22.7348
22.4848
22.0762
624.418
450.069
22.5267
22.2092
21.7548
20.9981
19.7797
19.8015
22.1634
24.3295
25.7815
26.7742
27.4815
27.9678
28.245
28.3006
28.1151
27.6854
27.0561
26.3174
25.5565
24.8093
24.0588
23.2614
22.3696
21.3375
20.1183
18.7748
18
19.3601
22.1047
23.2703
23.3805
23.1141
22.3643
621.878
452.166
22.4725
22.0489
21.6715
21.1812
20.4922
20.119
21.8346
23.8898
25.3469
26.3728
27.1389
27.7125
28.1074
28.3154
28.3246
28.1373
27.782
27.3067
26.7571
26.1568
25.5022
24.7719
23.9374
22.9648
21.8086
20.4319
19.0028
18.424
19.7601
21.5416
22.3245
22.4327
21.9796
621.842
453.344
22.4552
21.8926
21.3684
20.7112
20.0709
20.1636
21.7345
23.6606
25.0683
26.0839
26.8678
27.4874
27.9584
28.2761
28.4355
28.4431
28.3169
28.0798
27.752
27.3459
26.8634
26.2982
25.6366
24.8594
23.9416
22.8482
21.5546
20.2017
19.3956
19.6908
20.484
20.9594
21.144
624.122
451.759
22.4629
22.0783
21.6107
20.8529
19.7231
19.1451
20.6368
22.8839
24.5181
25.6562
26.5157
27.1979
27.7367
28.1377
28.4026
28.5381
28.558
28.4784
28.3131
28.0709
27.7543
27.361
26.8827
26.3083
25.6251
24.8128
23.8377
22.6625
21.3371
20.2284
19.9619
20.3824
21.0328
627.22
452.143
22.7696
22.5254
22.2057
21.6035
20.4252
18.8677
19.3477
21.8246
23.79
25.1158
26.0832
26.842
27.4462
27.9129
28.2499
28.4666
28.576
28.5918
28.5261
28.3867
28.1773
27.897
27.5401
27.1
26.5669
25.9243
25.1435
24.1727
22.9488
21.5864
20.7997
20.9953
21.6346
629.065
453.182
22.9071
22.6548
22.3651
21.8387
20.8393
19.2975
18.7739
21.0543
23.2749
24.7612
25.8099
26.6174
27.2601
27.7633
28.1365
28.3889
28.5339
28.5866
28.5595
28.4614
28.2968
28.0651
27.762
27.3836
26.9218
26.3611
25.6752
24.8206
23.7507
22.573
21.843
21.8332
22.1388
628.619
454.421
23.2023
22.9838
22.7054
22.1466
21.099
19.6191
18.6754
20.4442
22.8338
24.4652
25.604
26.4722
27.1588
27.6947
28.0934
28.3673
28.5317
28.601
28.5855
28.494
28.3319
28.0985
27.79
27.4062
26.9476
26.4196
25.8173
25.0902
24.1951
23.2613
22.666
22.4877
22.4477
627.29
454.247
23.3829
23.2896
23.1139
22.6559
21.6854
20.1539
18.6631
19.3367
21.8459
23.6893
24.9525
25.907
26.6698
27.2798
27.7504
28.0923
28.3199
28.4449
28.4744
28.4146
28.2695
28.0378
27.7148
27.2996
26.8002
26.2614
25.7575
25.2371
24.5709
23.8539
23.3224
22.9904
22.6305
625.667
454.954
23.6441
23.5772
23.4561
23.1164
22.3666
21.1147
19.4457
18.4966
20.4383
22.6569
24.1697
25.2567
26.1075
26.7921
27.3338
27.7441
28.0355
28.2203
28.3042
28.2899
28.1786
27.9663
27.6455
27.2109
26.6641
26.0603
25.5668
25.2553
24.8709
24.3691
23.8939
23.4596
22.8478
624.566
454.68
23.6585
23.6272
23.5597
23.3289
22.7878
21.8591
20.5178
18.9939
19.1743
21.5343
23.4081
24.6653
25.5944
26.3349
26.9352
27.4121
27.7753
28.0315
28.1847
28.2348
28.1786
28.0091
27.7166
27.2914
26.7222
26.0316
25.3821
25.0431
24.8823
24.6059
24.2448
23.8168
23.1149
624.506
454.013
23.6029
23.6425
23.6633
23.5692
23.2398
22.6017
21.5767
19.9662
18.1084
18.9349
21.3785
23.1893
24.4236
25.3505
26.0958
26.7079
27.2052
27.5952
27.8803
28.0581
28.1225
28.0641
27.8723
27.5377
27.0438
26.3775
25.6017
24.9786
24.7142
24.5424
24.2922
23.9437
23.3119
625.35
451.148
23.2597
23.5015
23.6669
23.7207
23.5864
23.2364
22.6802
21.8316
20.3364
18.2807
19.0019
21.2133
22.9074
24.0908
24.9948
25.7367
26.3636
26.8932
27.3273
27.6599
27.8799
27.9742
27.931
27.7431
27.3979
26.8747
26.1671
25.3872
24.8203
24.5199
24.2757
23.9906
23.5036
627.148
448.171
23.1555
23.6738
24.0103
24.1982
24.176
23.9001
23.3902
22.7054
21.8051
20.3481
18.303
18.7435
20.7345
22.3845
23.5521
24.4493
25.2045
25.8683
26.4524
26.9521
27.3504
27.6265
27.762
27.7466
27.5706
27.2168
26.6592
25.9115
25.1565
24.6399
24.3186
24.0571
23.6908
628.803
445.948
23.0823
23.8523
24.3696
24.7272
24.8763
24.7718
24.4051
23.8257
23.0932
22.1591
20.6643
18.3119
17.8703
19.5962
21.3856
22.6789
23.6628
24.4961
25.2431
25.9164
26.5023
26.9756
27.3082
27.4798
27.4786
27.2876
26.8767
26.2268
25.4487
24.8226
24.4405
24.1716
23.8222
629.126
444.944
23.1003
24.0449
24.7316
25.2775
25.6249
25.7175
25.5212
25.0565
24.4233
23.7259
22.9504
21.7646
19.4172
17.6964
18.7762
20.6161
21.9932
23.0182
23.8883
24.6874
25.4253
26.0741
26.5923
26.9436
27.108
27.0679
26.7952
26.2656
25.5609
24.9357
24.5249
24.2169
23.7854
628.154
444.222
22.8244
23.7961
24.5964
25.3597
25.9969
26.3966
26.4886
26.2371
25.6404
24.7883
23.8551
22.9494
21.8974
19.9502
17.4957
17.9346
19.7889
21.2832
22.4163
23.3889
24.2869
25.111
25.8154
26.3398
26.6516
26.7349
26.5742
26.163
25.5824
25.0383
24.6407
24.2982
23.7624
627.091
443.705
22.4165
23.2328
24.0034
24.9087
25.8574
26.6447
27.1292
27.272
27.0654
26.4942
25.5806
24.4535
23.2898
22.0724
20.2557
17.7288
17.9329
19.6583
21.0715
22.1629
23.1356
24.068
24.9377
25.6623
26.1569
26.3756
26.3132
25.9918
25.5077
25.033
24.647
24.2708
23.6347
625.96
443.05
21.6797
22.135
22.7124
23.6768
25.0088
26.3131
27.2724
27.8253
28.0051
27.8302
27.2809
26.3418
25.09
23.7012
22.2328
20.2848
17.7805
17.9324
19.5795
20.9953
22.1114
23.1043
24.0469
24.9105
25.6015
26.0184
26.1183
25.9283
25.5518
25.1402
24.7645
24.3661
23.6707
625.667
444.453
21.1045
20.9232
21.0325
21.7763
23.4406
25.4105
26.9791
27.9782
28.5017
28.6519
28.4699
27.9348
26.9925
25.6458
24.0078
22.126
19.7249
17.7148
18.3809
19.9128
21.2056
22.2729
23.2442
24.1595
24.9681
25.5599
25.8452
25.8195
25.5705
25.2283
24.8665
24.4538
23.7342
625.957
447.198
21.1299
20.5476
20.22
20.4443
21.9286
24.2776
26.3884
27.8333
28.6876
29.1104
29.201
28.9918
28.4573
27.5233
26.1179
24.2147
21.7712
18.8739
17.9572
19.1197
20.4831
21.61
22.5893
23.5103
24.3707
25.081
25.5302
25.678
25.5834
25.3513
25.0529
24.6813
24.0188
627.247
450.35
22.1071
21.8479
21.5253
21.2267
21.6393
23.327
25.5038
27.2996
28.4947
29.185
29.4992
29.5149
29.2553
28.6923
27.7354
26.2163
23.8998
20.7059
18.3792
18.9449
20.2722
21.3789
22.2904
23.1363
23.9631
24.716
25.2664
25.5246
25.5227
25.358
25.1019
24.7565
24.1224
627.85
450.561
23.3661
23.8656
23.9128
23.5509
22.966
22.9917
24.1994
25.9664
27.5568
28.678
29.3388
29.6319
29.6268
29.3469
28.7616
27.7514
26.0237
23.1768
19.7232
18.9671
20.0996
21.2319
22.1251
22.9049
23.662
24.4058
25.0445
25.4427
25.5644
25.4857
25.2867
24.9884
24.4277
629.319
448.685
23.9754
24.8901
25.2969
25.3304
24.9387
24.1577
23.6986
24.3107
25.7633
27.3464
28.5526
29.2746
29.5948
29.5939
29.3009
28.6771
27.55
25.4691
22.0474
19.6267
20.0739
21.1996
22.1281
22.8782
23.5501
24.1965
24.7957
25.2441
25.4551
25.4557
25.3182
25.0727
24.5841
630.297
446.874
23.55
24.4553
25.0969
25.6685
26.1342
26.2802
25.8095
25.0017
24.7801
25.6901
27.1922
28.4418
29.1922
29.5201
29.5124
29.1955
28.5094
27.2058
24.7415
21.4482
20.4815
21.2163
22.1089
22.8672
23.5252
24.1304
24.6911
25.1505
25.4222
25.4943
25.4247
25.2527
24.8822
632.02
449.373
23.3967
23.7671
24.1051
24.5904
25.3635
26.4728
27.4465
27.633
26.8871
26.0256
26.4596
27.7157
28.7607
29.3555
29.5774
29.4925
29.1003
28.2863
26.681
23.7787
21.4202
21.468
22.2456
22.9753
23.5986
24.1501
24.6491
25.0739
25.3583
25.4681
25.442
25.32
25.0345
633.247
458.716
24.3949
24.0552
24.0238
24.2495
24.6726
25.6951
27.2834
28.4806
28.8441
28.303
27.7904
28.3248
29.1178
29.6346
29.8571
29.8367
29.5762
29.0008
27.8826
25.7749
22.9402
21.8644
22.4315
23.2323
23.9285
24.5174
25.0106
25.3978
25.6438
25.7305
25.695
25.5731
25.2986
634.098
469.719
24.8617
23.9338
24.2914
25.3572
26.2941
27.2054
28.2602
29.1094
29.569
29.6902
29.7383
30.0262
30.3325
30.5116
30.5537
30.4588
30.207
29.7418
28.9333
27.5442
25.465
23.7013
23.3044
23.6509
24.1707
24.6954
25.1684
25.5458
25.7866
25.8762
25.8477
25.7314
25.4483
634.153
464.187
22.2931
21.8359
24.1352
26.5948
28.0684
28.9871
29.6052
30.1046
30.5524
30.9201
31.1565
31.2804
31.3299
31.3112
31.2171
31.0359
30.748
30.3182
29.6747
28.6814
27.1906
25.4992
24.5608
24.4974
24.8024
25.193
25.5627
25.8496
26.0138
26.052
25.9961
25.8649
25.5699
634.48
446.425
19.8253
21.1923
23.9682
25.6955
26.9785
28.1811
29.2111
29.9774
30.5037
30.8669
31.1147
31.2631
31.3196
31.291
31.1806
30.9843
30.6871
30.2527
29.6059
28.6377
27.3228
25.9982
25.2805
25.2403
25.5211
25.884
26.2082
26.413
26.4642
26.3888
26.2362
26.0229
25.6567
634.771
439.982
21.2894
21.0058
20.4423
20.5431
21.7935
23.7721
25.774
27.3793
28.5351
29.3502
29.9066
30.2563
30.4402
30.4884
30.4165
30.2261
29.9084
29.454
28.8636
28.152
27.3666
26.66
26.2503
26.1799
26.3313
26.5883
26.8458
27.0016
27.0044
26.8778
26.6702
26.3934
25.9279
634.438
445.003
22.1406
21.3414
20.0363
17.9881
15.952
15.5603
17.9528
21.9172
25.0118
26.9916
28.2177
28.9726
29.406
29.6036
29.6104
29.4368
29.0783
28.5858
28.1076
27.7575
27.5008
27.299
27.1733
27.1281
27.139
27.1841
27.2339
27.238
27.1565
26.9884
26.7472
26.4018
25.7216
631.178
451.988
21.5828
20.7756
20.1739
19.294
17.3549
13.7998
10.6022
16.3368
22.0331
25.2899
27.0441
28.0461
28.6739
29.0433
29.1897
29.128
28.8348
28.3263
27.7884
27.4994
27.4909
27.6115
27.7682
27.9115
27.995
27.9904
27.8975
27.7292
27.4996
27.218
26.8768
26.3952
25.4091
627.874
453.849
21.3847
20.258
18.9418
17.2137
16.1502
15.2742
14.7475
19.4864
24.2018
26.2532
27.3288
28.0605
28.6032
28.9553
29.129
29.1352
28.9474
28.5425
28.012
27.5952
27.4554
27.5313
27.7185
27.9519
28.1656
28.2868
28.2711
28.1198
27.8608
27.5192
27.0962
26.5048
25.3417
626.982
449.086
21.7992
21.3318
20.2821
17.8106
14.3752
14.0671
17.9571
22.3426
25.1459
26.5513
27.4328
28.0794
28.5679
28.9188
29.1379
29.2191
29.1427
28.8898
28.4923
28.0881
27.8471
27.7847
27.8204
27.909
28.0269
28.1315
28.1646
28.0879
27.896
27.5974
27.1919
26.6094
25.4878
628.067
449.978
21.9486
21.5612
21.1395
20.129
17.0723
12.0549
10.747
17.2682
22.8811
25.3516
26.6552
27.4946
28.1059
28.5522
28.8532
29.0192
29.0419
28.9026
28.6076
28.2491
28.0097
27.9788
28.0463
28.1011
28.1146
28.0853
28.0066
27.8666
27.6561
27.3691
26.9952
26.468
25.4481
628.214
452.282
21.2983
20.3263
19.4384
18.5235
17.4164
14.704
10.3275
11.797
20.1799
24.1828
25.9008
26.9032
27.6327
28.1894
28.5716
28.7961
28.8733
28.7845
28.508
28.095
27.7512
27.7311
28.0015
28.2928
28.4531
28.4634
28.3452
28.1297
27.8428
27.494
27.0701
26.4719
25.2525
625.795
448.868
21.0591
20.371
19.5524
18.3472
16.9924
15.6112
13.5274
10.4586
12.9638
20.7277
24.2129
25.8587
26.8964
27.6389
28.1613
28.4996
28.6671
28.65
28.417
27.9661
27.4247
27.1075
27.2621
27.7142
28.124
28.3419
28.3592
28.2091
27.9312
27.5526
27.0699
26.3687
24.9281
623.553
446.676
21.141
20.7621
20.3615
19.8088
18.9731
17.7688
16.2167
13.8858
9.6834
8.2847
17.1196
22.9405
25.4758
26.8019
27.6622
28.244
28.6084
28.7756
28.7317
28.4444
27.9206
27.3104
26.925
26.9592
27.2692
27.5863
27.7656
27.7732
27.619
27.3196
26.8747
26.1914
24.805
623.955
446.222
21.3606
21.0599
20.5831
19.8296
19.0639
18.512
17.9823
17.2374
15.9478
13.1438
7.85219
9.94708
19.6956
24.1501
25.9937
27.0945
27.8946
28.4477
28.7622
28.846
28.6926
28.3111
27.7971
27.3442
27.1057
27.0712
27.1157
27.1205
27.0224
26.797
26.4318
25.8726
24.8139
626.989
445.396
21.9644
22.0402
21.9356
21.5542
20.6724
19.5675
18.7163
18.0947
17.4582
16.5674
14.9262
11.2632
6.62569
14.5389
22.4995
25.7028
26.9831
27.7084
28.2376
28.6153
28.8247
28.8496
28.6898
28.3819
28.0062
27.654
27.3789
27.1712
26.9789
26.7506
26.4541
26.0511
25.348
631.076
448.093
22.3332
22.2859
22.1853
21.9896
21.6001
20.9067
20.1513
19.626
19.2696
18.8853
18.3004
17.2545
15.0886
11.4995
11.5228
18.0326
23.8772
26.5348
27.6877
28.3009
28.6801
28.8965
28.9613
28.8787
28.6654
28.3531
27.9865
27.6126
27.2596
26.9263
26.5929
26.216
25.6057
632.376
452.698
22.8313
22.6045
22.43
22.1718
21.8093
21.362
20.8243
20.3512
20.0599
19.9076
19.7706
19.5296
19.0462
18.0377
16.1761
14.3326
15.5201
20.5864
24.9358
27.2341
28.3618
28.9312
29.1959
29.245
29.1145
28.8344
28.4512
28.0309
27.6345
27.2812
26.9475
26.5634
25.8589
631.527
453.311
22.7532
22.506
22.3743
22.2154
22.0116
21.8365
21.651
21.4205
21.1847
21.0029
20.8926
20.8272
20.7583
20.6178
20.2985
19.6297
18.4849
17.3546
18.8453
22.2304
25.1176
26.9824
28.0969
28.731
29.0116
28.9988
28.7387
28.3148
27.8461
27.4107
27.0012
26.5224
25.6188
629.793
452.736
22.5911
22.381
22.3222
22.2481
22.0454
21.8123
21.632
21.4963
21.3806
21.2809
21.2118
21.1818
21.1885
21.2229
21.2645
21.2637
21.1435
20.4534
18.5532
18.4324
21.1431
24.1053
26.2097
27.5334
28.3297
28.7275
28.7819
28.5626
28.2001
27.8085
27.4146
26.9512
26.1017
632.519
452.908
22.4352
22.2084
22.25
22.3661
22.2887
22.0345
21.7008
21.3464
21.0087
20.7156
20.49
20.3416
20.2747
20.2956
20.3875
20.4162
20.0797
19.0015
18.0067
19.6168
22.5955
25.0079
26.6177
27.6763
28.349
28.6958
28.7415
28.5398
28.1971
27.8023
27.375
26.8388
25.8647
631.872
451.53
21.8945
21.6355
21.7938
22.1357
22.2183
22.0422
21.6957
21.2239
20.6706
20.0915
19.5449
19.0772
18.7709
18.7327
18.849
18.8464
18.8116
19.2737
20.7473
22.9512
24.9562
26.4647
27.5398
28.2774
28.7324
28.9316
28.8997
28.6871
28.3639
27.9822
27.553
26.9998
25.989
631.3
448.809
21.2477
21.0491
21.3579
21.9453
22.231
22.1918
21.9164
21.437
20.7767
19.9756
19.1028
18.2753
17.7188
17.6756
17.9947
18.2254
18.544
19.7152
21.9575
24.3591
26.0747
27.2296
28.0477
28.595
28.8972
28.9792
28.8737
28.6248
28.2814
27.876
27.4075
26.7747
25.5627
627.659
446.877
20.8407
20.6267
20.9305
21.696
22.2366
22.409
22.3024
21.954
21.3687
20.5531
19.5347
18.3874
17.3034
16.7097
16.9573
17.634
18.1739
19.0073
20.8501
23.4305
25.6607
27.0397
27.8703
28.4352
28.7897
28.9319
28.8866
28.6947
28.3963
28.0183
27.5612
26.9282
25.6823
626.816
445.655
20.3768
20.0041
20.2068
21.1836
22.0673
22.5322
22.6841
22.5876
22.2521
21.6679
20.8219
19.7158
18.3837
17.013
16.1686
16.4308
17.3645
18.1359
18.9844
20.6249
23.0605
25.4537
27.0213
27.8379
28.2776
28.4977
28.5347
28.4149
28.1729
27.8364
27.4082
26.7965
25.5494
625.787
445.126
20.0559
19.4699
19.3916
20.3552
21.5744
22.3783
22.8204
23.0019
22.9565
22.6838
22.1696
21.3963
20.3363
18.9581
17.3463
16.0505
16.0049
17.1567
18.4067
19.381
20.5969
22.4532
24.6399
26.3941
27.391
27.8911
28.1251
28.1734
28.0722
27.8489
27.5109
26.9776
25.796
626.422
445.409
19.9923
19.2168
18.803
19.4625
20.874
21.9929
22.7182
23.1677
23.4041
23.4439
23.2848
22.9199
22.3328
21.4887
20.3171
18.7404
16.9587
15.8638
16.2772
17.6803
19.1467
20.6202
22.396
24.4116
26.1312
27.1581
27.6253
27.7754
27.7298
27.5436
27.2376
26.7487
25.6661
626.917
445.737
19.9027
18.9736
18.2464
18.3213
19.7488
21.1939
22.2228
22.9294
23.4122
23.7133
23.8482
23.823
23.6387
23.2894
22.7565
21.9948
20.9107
19.4247
17.8065
17.0007
17.4941
18.5692
19.901
21.5768
23.5388
25.3543
26.5899
27.2494
27.5277
27.5573
27.4037
27.0531
26.1689
629.375
446.95
20.1769
19.1885
18.228
17.3986
18.3402
20.0062
21.3509
22.3099
23.0018
23.5003
23.8377
24.0286
24.0811
24.0003
23.7864
23.4305
22.9018
22.1189
20.9197
19.2355
18.0403
18.1263
18.8757
19.9145
21.2994
23.0282
24.7307
25.9772
26.7168
27.0783
27.1605
26.9853
26.2809
631.534
448.51
20.5706
19.609
18.629
17.2382
17.2062
18.7454
20.3124
21.4902
22.359
23.0124
23.4958
23.8292
24.0261
24.0969
24.0499
23.8898
23.6083
23.1613
22.4171
21.0914
19.3471
18.5907
19.0436
19.8969
20.8787
22.1219
23.6469
25.0747
26.0748
26.6661
26.9522
26.9818
26.6126
636.133
450.243
20.9182
19.9367
18.9448
17.4276
16.5379
17.6344
19.2535
20.5746
21.5689
22.3278
22.9022
23.3123
23.5717
23.6944
23.6882
23.5583
23.3008
22.8472
22.01
20.9503
20.5978
20.4221
20.6826
21.1638
21.695
22.362
23.3176
24.4715
25.4752
26.1678
26.5867
26.786
26.7182
638.599
451.709
21.3172
20.3504
19.3374
17.7197
16.2053
16.728
18.2702
19.6795
20.7706
21.6168
22.2711
22.7508
23.0693
23.2373
23.2517
23.1078
22.7837
22.1465
20.9172
19.7682
21.1252
22.1631
22.5843
22.8587
23.1102
23.4099
23.8766
24.5863
25.3864
26.0438
26.4963
26.7787
26.8428
638.319
453.058
21.763
20.8416
19.8372
18.1399
16.1188
16.0103
17.3656
18.8044
19.9567
20.8665
21.5982
22.1779
22.6097
22.8929
23.0249
22.9969
22.7813
22.2766
21.2661
19.885
20.539
22.9496
23.7464
24.0589
24.2228
24.364
24.6049
25.0333
25.5994
26.1127
26.4711
26.6737
26.5485
634.256
454.466
22.1816
21.2993
20.3107
18.5715
16.1478
15.5049
16.7237
18.1967
19.3765
20.287
21.0117
21.5959
22.0573
22.3986
22.6124
22.684
22.5883
22.2719
21.6155
20.5096
19.8198
21.9022
23.9777
24.6232
24.86
24.9768
25.131
25.4642
25.9377
26.3541
26.6164
26.6995
26.2844
630.493
455.804
22.4903
21.639
20.6979
19.0066
16.3444
15.076
16.0411
17.5676
18.8588
19.8549
20.6344
21.254
21.7437
22.1164
22.3731