/*--------------------------------*- C++ -*----------------------------------*\
| =========                 |                                                 |
| \\      /  F ield         | OpenFOAM: The Open Source CFD Toolbox           |
|  \\    /   O peration     | Version:  v1906                                 |
|   \\  /    A nd           | Web:      www.OpenFOAM.com                      |
|    \\/     M anipulation  |                                                 |
\*---------------------------------------------------------------------------*/
FoamFile
{
    version     2.0;
    format      ascii;
    class       volVectorField;
    location    "33";
    object      U;
}
// * * * * * * * * * * * * * * * * * * * * * * * * * * * * * * * * * * * * * //

dimensions      [0 1 -1 0 0 0 0];


internalField   nonuniform List<vector> 
78750
(
(-4.90068e-06 -9.93422e-05 5.31507e-05)
(-2.01956e-05 -0.000108701 9.15293e-05)
(-5.36528e-05 -8.58781e-05 0.000117233)
(-9.9413e-05 -4.96002e-05 0.000143041)
(-0.000154158 -8.85775e-06 0.000170234)
(-0.000215651 3.23082e-05 0.000198901)
(-0.000281645 7.11077e-05 0.00022765)
(-0.000349753 0.000105878 0.000254983)
(-0.000417734 0.000135154 0.000278959)
(-0.000483691 0.00015873 0.000297609)
(-0.000546035 0.000176225 0.000309044)
(-0.000603524 0.00018788 0.000311847)
(-0.000655085 0.000193717 0.000305024)
(-0.000699832 0.000194233 0.000288252)
(-0.000736974 0.00018982 0.000261729)
(-0.000766108 0.00018115 0.000226215)
(-0.000786356 0.000169014 0.000183771)
(-0.000798165 0.000153559 0.000133976)
(-0.000801008 0.000135621 7.9398e-05)
(-0.000795014 0.000115781 2.17813e-05)
(-0.00078035 9.45084e-05 -3.70909e-05)
(-0.000757312 7.2295e-05 -9.54188e-05)
(-0.000726263 4.95491e-05 -0.000151455)
(-0.000687671 2.66928e-05 -0.000203502)
(-0.000642083 4.11643e-06 -0.000249943)
(-0.000590127 -1.77564e-05 -0.000289241)
(-0.000532492 -3.8463e-05 -0.000319913)
(-0.00046998 -5.74591e-05 -0.000340556)
(-0.000403486 -7.40553e-05 -0.00034984)
(-0.000334026 -8.73935e-05 -0.000346577)
(-0.00026248 -9.63319e-05 -0.000329678)
(-0.000189524 -9.93724e-05 -0.000298373)
(-0.000117484 -9.4429e-05 -0.000252185)
(-5.97975e-05 -7.89788e-05 -0.000191634)
(-1.89873e-05 -4.24255e-05 -9.03077e-05)
(-2.03316e-05 0.000360402 -0.00040558)
(-7.04663e-05 0.000710556 -0.000529781)
(-0.000132053 0.000879774 -0.000560649)
(-0.000216723 0.00100033 -0.000592566)
(-0.000303409 0.00108021 -0.000620783)
(-0.000386586 0.00112205 -0.000640996)
(-0.000464091 0.0011335 -0.000654426)
(-0.000532969 0.00111749 -0.000663685)
(-0.000592406 0.0010808 -0.000669986)
(-0.000641279 0.00102754 -0.00067407)
(-0.000680004 0.000964315 -0.00067549)
(-0.000709058 0.00089405 -0.000674693)
(-0.000728772 0.000820423 -0.000671859)
(-0.000739979 0.000743838 -0.000668505)
(-0.000743046 0.000666688 -0.000664858)
(-0.00073875 0.000589928 -0.000661214)
(-0.000727691 0.000515094 -0.00065756)
(-0.000710525 0.00044254 -0.000654229)
(-0.000687929 0.000373181 -0.000651149)
(-0.000660523 0.00030714 -0.000648408)
(-0.000628922 0.00024494 -0.000645782)
(-0.000593686 0.000186596 -0.000643206)
(-0.000555361 0.000132349 -0.000640414)
(-0.000514438 8.21638e-05 -0.000637182)
(-0.000471395 3.61146e-05 -0.000633138)
(-0.000426653 -5.81705e-06 -0.000627823)
(-0.000380627 -4.36128e-05 -0.000620614)
(-0.000333685 -7.72025e-05 -0.000610576)
(-0.000286224 -0.00010651 -0.00059639)
(-0.000238618 -0.000131271 -0.000576097)
(-0.000190995 -0.000151114 -0.000547106)
(-0.000142882 -0.000165018 -0.000504266)
(-9.46645e-05 -0.000170806 -0.000434912)
(-5.68513e-05 -0.000162567 -0.000322648)
(-2.87389e-05 -9.92479e-05 -9.85654e-05)
(-2.15511e-05 0.000711567 -8.88326e-05)
(-5.72721e-05 0.00123633 -0.000129266)
(-9.3332e-05 0.00145321 -0.000143939)
(-0.000142272 0.00158983 -0.000157415)
(-0.000189896 0.00165954 -0.000173415)
(-0.000234049 0.00167742 -0.000192858)
(-0.000274518 0.00165 -0.00021836)
(-0.000308477 0.00158739 -0.000249941)
(-0.000336576 0.00150381 -0.000289273)
(-0.000358662 0.00141253 -0.000333494)
(-0.00037459 0.00131758 -0.00037893)
(-0.000384718 0.00122137 -0.000419103)
(-0.00038874 0.00112305 -0.000450027)
(-0.000388799 0.00102618 -0.000471866)
(-0.000384882 0.000931246 -0.000486671)
(-0.000377589 0.000839325 -0.00049592)
(-0.000367524 0.000750664 -0.000501334)
(-0.000354885 0.00066625 -0.000503343)
(-0.000340252 0.000586494 -0.000502743)
(-0.000323898 0.000511801 -0.000499992)
(-0.000306138 0.000442044 -0.000495732)
(-0.000287206 0.000377422 -0.000490111)
(-0.000267347 0.00031776 -0.000483472)
(-0.000246752 0.000263073 -0.000475835)
(-0.000225617 0.000213189 -0.000467315)
(-0.000204098 0.000168016 -0.000457769)
(-0.000182347 0.000127432 -0.000447015)
(-0.000160468 9.13446e-05 -0.000434559)
(-0.000138587 5.9772e-05 -0.000419648)
(-0.00011679 3.27909e-05 -0.000401005)
(-9.50882e-05 1.07089e-05 -0.000376563)
(-7.3142e-05 -6.02393e-06 -0.000342433)
(-5.07461e-05 -1.66859e-05 -0.000291595)
(-3.17255e-05 -1.99444e-05 -0.000216398)
(-1.8301e-05 -8.36898e-06 -5.46914e-05)
(-2.09539e-05 0.000827621 0.000278927)
(-4.09186e-05 0.00136341 0.000337129)
(-5.23635e-05 0.00158853 0.000330472)
(-6.69717e-05 0.00173089 0.000319376)
(-7.99375e-05 0.0018077 0.000310786)
(-9.31296e-05 0.0018293 0.000300872)
(-0.000105384 0.00180788 0.000288439)
(-0.00011872 0.00175608 0.00026613)
(-0.000132654 0.00168573 0.000229482)
(-0.000145519 0.00160174 0.000176499)
(-0.000156044 0.00150933 0.00011075)
(-0.000163349 0.00141077 3.70657e-05)
(-0.00016744 0.00130988 -3.65911e-05)
(-0.000168574 0.00120931 -0.000102229)
(-0.000166237 0.00111173 -0.000153961)
(-0.000162379 0.00101792 -0.000194437)
(-0.000156775 0.000928873 -0.000226305)
(-0.000149955 0.00084435 -0.00025213)
(-0.000142343 0.000764907 -0.000273041)
(-0.000134115 0.000690478 -0.000289907)
(-0.000125632 0.000621416 -0.000303121)
(-0.000117008 0.000557142 -0.000313474)
(-0.0001084 0.000497739 -0.000321166)
(-0.000100017 0.000443207 -0.000326419)
(-9.19025e-05 0.000393421 -0.000329332)
(-8.41221e-05 0.000348004 -0.000330162)
(-7.66799e-05 0.000306708 -0.000328898)
(-6.95682e-05 0.000269168 -0.000325622)
(-6.26946e-05 0.000235062 -0.00032012)
(-5.59543e-05 0.000204041 -0.000312107)
(-4.9067e-05 0.000175732 -0.000301054)
(-4.1427e-05 0.000149795 -0.000287238)
(-3.19997e-05 0.000125718 -0.000271544)
(-2.21563e-05 0.000103366 -0.000247311)
(-1.44407e-05 6.94664e-05 -0.000142995)
(-1.66681e-05 0.000717466 0.000393668)
(-2.46429e-05 0.00112188 0.000483269)
(-2.14634e-05 0.00130135 0.00048059)
(-1.49061e-05 0.00142776 0.000481486)
(-5.7094e-06 0.00150986 0.000486763)
(3.88171e-06 0.00155591 0.000487589)
(1.25011e-05 0.00157185 0.000480165)
(1.93829e-05 0.00156379 0.000464121)
(2.46099e-05 0.00153552 0.000438543)
(2.85474e-05 0.00149134 0.000403689)
(3.15102e-05 0.00143381 0.000360105)
(3.3828e-05 0.00136636 0.000309555)
(3.56733e-05 0.00129134 0.000254175)
(3.74064e-05 0.00121245 0.000197253)
(3.88522e-05 0.00113261 0.000141451)
(4.02166e-05 0.00105517 9.01356e-05)
(4.15331e-05 0.000982013 4.59483e-05)
(4.25889e-05 0.000914435 9.38084e-06)
(4.30111e-05 0.000851947 -2.1189e-05)
(4.29524e-05 0.000794568 -4.66978e-05)
(4.21963e-05 0.00074187 -6.78773e-05)
(4.06971e-05 0.000693736 -8.52742e-05)
(3.83349e-05 0.000649741 -9.93585e-05)
(3.50839e-05 0.000609677 -0.000110501)
(3.098e-05 0.000572876 -0.000119152)
(2.6071e-05 0.000538983 -0.000125618)
(2.04479e-05 0.000507375 -0.000130241)
(1.42553e-05 0.000477504 -0.00013338)
(7.73861e-06 0.00044847 -0.000135473)
(1.14825e-06 0.000419397 -0.000136858)
(-5.08459e-06 0.000389012 -0.0001383)
(-1.03826e-05 0.000355882 -0.00014264)
(-1.3111e-05 0.000317545 -0.000156602)
(-1.20435e-05 0.000271455 -0.000174482)
(-9.81704e-06 0.000177193 -0.000130838)
(-9.08893e-06 0.000582209 0.000374895)
(-9.53276e-06 0.000872503 0.000446826)
(-3.35668e-06 0.00101288 0.00044111)
(8.31791e-06 0.00111886 0.000438064)
(2.32599e-05 0.00119439 0.000437844)
(3.99586e-05 0.00124398 0.000434009)
(5.72708e-05 0.00127305 0.000425484)
(7.44167e-05 0.00128438 0.000412858)
(9.07428e-05 0.00128154 0.000396391)
(0.000105737 0.00126656 0.000376109)
(0.000118992 0.00124222 0.000352329)
(0.000130136 0.00121015 0.000325454)
(0.000138913 0.0011727 0.000296091)
(0.000145146 0.00113107 0.00026491)
(0.000148892 0.00108718 0.000232801)
(0.000150242 0.00104222 0.000200678)
(0.00014941 0.000997993 0.000169633)
(0.000146699 0.00095534 0.00014064)
(0.00014239 0.000915302 0.000114388)
(0.000136594 0.000878066 9.11788e-05)
(0.000129501 0.000843942 7.10996e-05)
(0.00012119 0.000812603 5.39316e-05)
(0.000111817 0.000783937 3.94841e-05)
(0.000101473 0.000757353 2.74034e-05)
(9.0309e-05 0.00073249 1.74304e-05)
(7.84453e-05 0.000708564 9.14389e-06)
(6.60583e-05 0.000684963 2.21491e-06)
(5.33574e-05 0.000660626 -3.9665e-06)
(4.06185e-05 0.000634534 -9.93375e-06)
(2.81655e-05 0.000605142 -1.64029e-05)
(1.63575e-05 0.00057068 -2.39174e-05)
(5.77496e-06 0.000528554 -3.63437e-05)
(-2.07504e-06 0.000475525 -6.16612e-05)
(-5.12344e-06 0.000407438 -9.5561e-05)
(-5.74694e-06 0.000260501 -8.56581e-05)
(-5.45753e-06 0.000459852 0.000303815)
(-4.39336e-06 0.000685744 0.000324427)
(-6.3368e-07 0.000792749 0.000296861)
(7.52095e-06 0.000876244 0.000277585)
(1.83832e-05 0.000939203 0.0002672)
(3.06169e-05 0.000985783 0.000258557)
(4.3615e-05 0.0010193 0.000249229)
(5.67848e-05 0.0010422 0.00023904)
(6.96781e-05 0.00105594 0.000227579)
(8.1859e-05 0.00106224 0.000214676)
(9.29633e-05 0.00106217 0.000200349)
(0.000102768 0.00105737 0.000185094)
(0.000110994 0.0010487 0.000169286)
(0.000117456 0.00103731 0.000153174)
(0.000122034 0.00102372 0.000136895)
(0.000124754 0.00100895 0.00012078)
(0.000125522 0.000993247 0.000104825)
(0.000124551 0.000977384 8.95519e-05)
(0.000121862 0.000961527 7.51489e-05)
(0.000117652 0.000946162 6.19237e-05)
(0.000112063 0.000931155 4.99717e-05)
(0.000105256 0.000916724 3.94779e-05)
(9.73745e-05 0.000902489 3.03816e-05)
(8.8558e-05 0.000888389 2.27156e-05)
(7.89502e-05 0.00087378 1.62604e-05)
(6.86945e-05 0.000858282 1.09004e-05)
(5.79671e-05 0.000840899 6.25341e-06)
(4.69433e-05 0.000820795 2.02525e-06)
(3.58898e-05 0.000796402 -2.33588e-06)
(2.50586e-05 0.000766107 -7.25806e-06)
(1.48184e-05 0.000727295 -1.37715e-05)
(5.63849e-06 0.000676955 -2.46945e-05)
(-1.30587e-06 0.000610534 -4.57382e-05)
(-4.22397e-06 0.000522434 -7.34425e-05)
(-4.68594e-06 0.000327719 -6.73949e-05)
(-1.83127e-06 0.000393279 0.000200745)
(-4.70701e-08 0.000613042 0.000203045)
(1.08568e-06 0.000715716 0.000178856)
(3.98831e-06 0.000794604 0.000159121)
(7.94493e-06 0.000855484 0.000146541)
(1.25039e-05 0.00090213 0.000136499)
(1.74783e-05 0.000937883 0.000126922)
(2.27626e-05 0.000964793 0.000117212)
(2.81955e-05 0.000984887 0.000107341)
(3.35888e-05 0.000999269 9.71307e-05)
(3.87825e-05 0.0010093 8.66832e-05)
(4.3603e-05 0.00101559 7.60011e-05)
(4.79467e-05 0.00101917 6.53714e-05)
(5.16852e-05 0.0010204 5.48955e-05)
(5.4739e-05 0.00102009 4.49007e-05)
(5.70196e-05 0.0010184 3.54592e-05)
(5.85221e-05 0.00101595 2.68441e-05)
(5.90895e-05 0.00101278 1.89002e-05)
(5.88231e-05 0.00100929 1.19725e-05)
(5.76765e-05 0.00100528 5.97671e-06)
(5.56736e-05 0.00100101 1.02262e-06)
(5.28435e-05 0.000996094 -3.05609e-06)
(4.92366e-05 0.000990579 -6.20663e-06)
(4.49169e-05 0.000983837 -8.67256e-06)
(3.99621e-05 0.00097566 -1.04553e-05)
(3.4469e-05 0.000965102 -1.18742e-05)
(2.85543e-05 0.000951543 -1.29992e-05)
(2.23763e-05 0.000933522 -1.42445e-05)
(1.61072e-05 0.000909714 -1.57572e-05)
(9.98265e-06 0.000877747 -1.80053e-05)
(4.24751e-06 0.000835019 -2.14139e-05)
(-6.7838e-07 0.000777517 -2.79331e-05)
(-4.0506e-06 0.000700284 -4.08972e-05)
(-4.97534e-06 0.000596282 -5.7724e-05)
(-4.21597e-06 0.00036556 -4.96453e-05)
(-2.02203e-06 0.000344434 0.000123988)
(-1.83923e-06 0.000566441 0.000127857)
(-2.46181e-06 0.000669879 0.000116303)
(-2.58812e-06 0.00074958 0.00010586)
(-2.27538e-06 0.000811073 9.81003e-05)
(-1.6121e-06 0.000858935 9.12011e-05)
(-6.33763e-07 0.000896155 8.41609e-05)
(6.72011e-07 0.000925427 7.69828e-05)
(2.25823e-06 0.000948329 6.95977e-05)
(4.09629e-06 0.000966534 6.22209e-05)
(6.10736e-06 0.000980852 5.48325e-05)
(8.23447e-06 0.000992404 4.77008e-05)
(1.03903e-05 0.00100156 4.08335e-05)
(1.25085e-05 0.00100913 3.45028e-05)
(1.44925e-05 0.0010152 2.87104e-05)
(1.62741e-05 0.00102037 2.37131e-05)
(1.77846e-05 0.00102458 1.94449e-05)
(1.89867e-05 0.00102825 1.60843e-05)
(1.9811e-05 0.00103112 1.35208e-05)
(2.02324e-05 0.00103349 1.18831e-05)
(2.02139e-05 0.00103493 1.09773e-05)
(1.97506e-05 0.00103558 1.08563e-05)
(1.8841e-05 0.00103481 1.12582e-05)
(1.74875e-05 0.00103253 1.22257e-05)
(1.5716e-05 0.00102785 1.34515e-05)
(1.35777e-05 0.00102035 1.48816e-05)
(1.11376e-05 0.00100871 1.61434e-05)
(8.48183e-06 0.00099194 1.71426e-05)
(5.72873e-06 0.000967978 1.74464e-05)
(3.0055e-06 0.000934857 1.69311e-05)
(4.80035e-07 0.000889164 1.49965e-05)
(-1.63752e-06 0.000827152 1.06356e-05)
(-2.93605e-06 0.000742966 1.53091e-06)
(-3.05154e-06 0.00062959 -1.07625e-05)
(-2.27176e-06 0.000378138 -1.19814e-05)
(-2.85545e-06 0.00032365 8.42571e-05)
(-4.36865e-06 0.000548011 9.99286e-05)
(-6.72822e-06 0.000652198 0.000101483)
(-9.40257e-06 0.000731967 0.000100498)
(-1.16794e-05 0.000793476 9.84319e-05)
(-1.35504e-05 0.000841037 9.51572e-05)
(-1.50344e-05 0.000878228 9.0909e-05)
(-1.61032e-05 0.000907333 8.58261e-05)
(-1.67456e-05 0.000930503 8.02911e-05)
(-1.69571e-05 0.000948921 7.44122e-05)
(-1.67558e-05 0.000963954 6.85314e-05)
(-1.61693e-05 0.00097617 6.27256e-05)
(-1.52426e-05 0.000986497 5.73119e-05)
(-1.4026e-05 0.000995138 5.23298e-05)
(-1.25759e-05 0.00100276 4.80463e-05)
(-1.09497e-05 0.00100932 4.44457e-05)
(-9.22703e-06 0.0010153 4.17565e-05)
(-7.47715e-06 0.00102047 3.99085e-05)
(-5.75596e-06 0.00102516 3.90359e-05)
(-4.13035e-06 0.00102898 3.89828e-05)
(-2.65538e-06 0.00103211 3.98253e-05)
(-1.38097e-06 0.001034 4.13349e-05)
(-3.47569e-07 0.00103466 4.35039e-05)
(4.38252e-07 0.00103333 4.59856e-05)
(9.64526e-07 0.00102973 4.87172e-05)
(1.23491e-06 0.00102273 5.13595e-05)
(1.27096e-06 0.00101164 5.38041e-05)
(1.1143e-06 0.00099478 5.56404e-05)
(8.07612e-07 0.000970713 5.67121e-05)
(4.11888e-07 0.000936793 5.65553e-05)
(-1.4942e-08 0.000890262 5.48544e-05)
(-4.05717e-07 0.000826743 5.05647e-05)
(-6.65105e-07 0.000741052 4.22116e-05)
(-6.23588e-07 0.000625657 3.00155e-05)
(-2.80873e-07 0.000371067 1.62104e-05)
(-3.8275e-06 0.000308557 6.28227e-05)
(-6.5001e-06 0.000528601 9.03241e-05)
(-9.87846e-06 0.000630292 0.000101326)
(-1.38618e-05 0.000707969 0.000107232)
(-1.73491e-05 0.00076738 0.00010933)
(-2.03321e-05 0.000813219 0.000108877)
(-2.28243e-05 0.000848592 0.000106533)
(-2.48211e-05 0.000876253 0.000102923)
(-2.62666e-05 0.000897857 9.83721e-05)
(-2.71653e-05 0.000915101 9.33333e-05)
(-2.74976e-05 0.000928832 8.8022e-05)
(-2.72947e-05 0.000940159 8.28107e-05)
(-2.65742e-05 0.000949467 7.78451e-05)
(-2.53952e-05 0.000957518 7.34335e-05)
(-2.37991e-05 0.00096441 6.96527e-05)
(-2.18666e-05 0.000970682 6.67387e-05)
(-1.96596e-05 0.000976222 6.46891e-05)
(-1.72692e-05 0.000981401 6.36576e-05)
(-1.47649e-05 0.000985932 6.35528e-05)
(-1.22395e-05 0.000990037 6.4438e-05)
(-9.75524e-06 0.000993263 6.6129e-05)
(-7.39354e-06 0.000995648 6.86159e-05)
(-5.20149e-06 0.000996518 7.16502e-05)
(-3.23379e-06 0.00099569 7.51554e-05)
(-1.51683e-06 0.000992249 7.88003e-05)
(-7.20732e-08 0.000985719 8.24327e-05)
(1.09106e-06 0.000974774 8.56624e-05)
(1.97742e-06 0.000958411 8.82776e-05)
(2.59871e-06 0.000934617 8.98138e-05)
(2.96737e-06 0.000901469 8.99696e-05)
(3.08913e-06 0.000855737 8.80964e-05)
(2.92959e-06 0.00079384 8.33743e-05)
(2.44004e-06 0.000710338 7.41558e-05)
(1.87654e-06 0.000598642 5.98763e-05)
(1.4314e-06 0.000352915 3.40497e-05)
(-3.93582e-06 0.000297948 4.57306e-05)
(-6.94712e-06 0.000509334 7.85847e-05)
(-1.07272e-05 0.000606793 9.41497e-05)
(-1.52111e-05 0.000680737 0.000103268)
(-1.91969e-05 0.000737105 0.000107298)
(-2.26109e-05 0.000780009 0.000107921)
(-2.54988e-05 0.000812888 0.000106251)
(-2.78065e-05 0.000837986 0.000102896)
(-2.9504e-05 0.000857377 9.84262e-05)
(-3.05368e-05 0.000872276 9.32128e-05)
(-3.09179e-05 0.000884004 8.77028e-05)
(-3.06346e-05 0.000893196 8.21648e-05)
(-2.9738e-05 0.000900739 7.69601e-05)
(-2.82541e-05 0.000906917 7.22753e-05)
(-2.62675e-05 0.000912346 6.8388e-05)
(-2.3839e-05 0.000917068 6.53977e-05)
(-2.10723e-05 0.0009215 6.3489e-05)
(-1.80523e-05 0.000925495 6.26646e-05)
(-1.4892e-05 0.000929297 6.30082e-05)
(-1.16776e-05 0.000932584 6.44204e-05)
(-8.51818e-06 0.000935433 6.68838e-05)
(-5.49296e-06 0.000937337 7.02005e-05)
(-2.69056e-06 0.000938182 7.42593e-05)
(-1.6836e-07 0.00093724 7.87752e-05)
(2.00773e-06 0.000934149 8.35549e-05)
(3.80816e-06 0.000927879 8.82378e-05)
(5.20608e-06 0.00091769 9.25574e-05)
(6.1913e-06 0.000902073 9.60797e-05)
(6.76597e-06 0.000879658 9.84515e-05)
(6.93662e-06 0.000848101 9.91372e-05)
(6.70618e-06 0.000804912 9.75729e-05)
(6.00519e-06 0.00074625 9.27128e-05)
(4.77074e-06 0.000667583 8.29672e-05)
(3.43276e-06 0.00056234 6.72504e-05)
(2.3233e-06 0.000331536 3.56881e-05)
(-3.30594e-06 0.000290428 2.4679e-05)
(-6.17799e-06 0.000493352 5.42314e-05)
(-9.90135e-06 0.000586504 6.94263e-05)
(-1.44238e-05 0.000656913 7.83741e-05)
(-1.8531e-05 0.000710008 8.19893e-05)
(-2.21271e-05 0.000750051 8.21227e-05)
(-2.51705e-05 0.000780035 7.98083e-05)
(-2.76119e-05 0.000802509 7.57601e-05)
(-2.93586e-05 0.000819141 7.04482e-05)
(-3.03756e-05 0.000831535 6.43823e-05)
(-3.06206e-05 0.000840631 5.7941e-05)
(-3.01167e-05 0.000847495 5.15533e-05)
(-2.8878e-05 0.000852639 4.55188e-05)
(-2.69787e-05 0.0008568 4.01778e-05)
(-2.44797e-05 0.000860209 3.57356e-05)
(-2.14933e-05 0.000863366 3.24307e-05)
(-1.81164e-05 0.000866286 3.03638e-05)
(-1.44871e-05 0.000869272 2.96595e-05)
(-1.07207e-05 0.000872144 3.03037e-05)
(-6.95521e-06 0.000875019 3.23005e-05)
(-3.30841e-06 0.000877527 3.5518e-05)
(9.56613e-08 0.000879589 3.98436e-05)
(3.16139e-06 0.00088063 4.50358e-05)
(5.79905e-06 0.000880352 5.0877e-05)
(7.94616e-06 0.000877932 5.70297e-05)
(9.55093e-06 0.000872779 6.31887e-05)
(1.05954e-05 0.000863719 6.89383e-05)
(1.10763e-05 0.000849711 7.39046e-05)
(1.1011e-05 0.000829008 7.76072e-05)
(1.04378e-05 0.000799797 7.95973e-05)
(9.37758e-06 0.000759324 7.92223e-05)
(7.8198e-06 0.000704369 7.55583e-05)
(5.76033e-06 0.000630352 6.69861e-05)
(3.81713e-06 0.000531473 5.26198e-05)
(2.31921e-06 0.000314402 2.36938e-05)
(-2.17147e-06 0.000290434 -9.81196e-08)
(-4.64696e-06 0.000489937 1.92123e-05)
(-8.09296e-06 0.000581222 3.04993e-05)
(-1.24464e-05 0.00064961 3.67287e-05)
(-1.66003e-05 0.000700701 3.82718e-05)
(-2.03312e-05 0.000738437 3.66407e-05)
(-2.35605e-05 0.000766091 3.27771e-05)
(-2.61578e-05 0.000785926 2.72249e-05)
(-2.80286e-05 0.000799958 2.04733e-05)
(-2.90804e-05 0.000809522 1.29491e-05)
(-2.92914e-05 0.000815943 5.12229e-06)
(-2.86428e-05 0.000820026 -2.6098e-06)
(-2.71814e-05 0.000822686 -9.81461e-06)
(-2.4962e-05 0.000824395 -1.61576e-05)
(-2.20832e-05 0.000825775 -2.13984e-05)
(-1.86533e-05 0.000827041 -2.5315e-05)
(-1.48134e-05 0.000828589 -2.7694e-05)
(-1.07068e-05 0.000830412 -2.8453e-05)
(-6.49722e-06 0.000832685 -2.75302e-05)
(-2.34001e-06 0.000835184 -2.49851e-05)
(1.60904e-06 0.000837868 -2.09069e-05)
(5.21182e-06 0.000840291 -1.54922e-05)
(8.34318e-06 0.000842185 -8.9663e-06)
(1.09019e-05 0.00084287 -1.64689e-06)
(1.28137e-05 0.000841819 6.13138e-06)
(1.40319e-05 0.00083806 1.39591e-05)
(1.45418e-05 0.000830722 2.14405e-05)
(1.43575e-05 0.000818409 2.81105e-05)
(1.35401e-05 0.000799699 3.35541e-05)
(1.21549e-05 0.000772475 3.73691e-05)
(1.02886e-05 0.000734349 3.90415e-05)
(7.99066e-06 0.000681893 3.77429e-05)
(5.38464e-06 0.000610971 3.21803e-05)
(3.16966e-06 0.000515741 2.19313e-05)
(1.62056e-06 0.000306452 2.78349e-06)
(-9.87805e-07 0.000299827 -2.38874e-05)
(-3.09426e-06 0.000503252 -1.74571e-05)
(-6.16241e-06 0.000595853 -1.16089e-05)
(-1.02925e-05 0.000664718 -9.12005e-06)
(-1.44268e-05 0.000715388 -1.03386e-05)
(-1.82789e-05 0.000752155 -1.41591e-05)
(-2.167e-05 0.000778182 -1.99293e-05)
(-2.44514e-05 0.000796083 -2.72201e-05)
(-2.64695e-05 0.000807743 -3.5661e-05)
(-2.76322e-05 0.000814851 -4.48309e-05)
(-2.78713e-05 0.000818587 -5.43148e-05)
(-2.71819e-05 0.000820117 -6.36724e-05)
(-2.55876e-05 0.000820194 -7.24928e-05)
(-2.31599e-05 0.000819617 -8.03502e-05)
(-1.9999e-05 0.000818843 -8.68088e-05)
(-1.62457e-05 0.000818422 -9.15907e-05)
(-1.20509e-05 0.000818555 -9.45118e-05)
(-7.5973e-06 0.000819528 -9.54369e-05)
(-3.06596e-06 0.000821283 -9.43337e-05)
(1.36256e-06 0.000823847 -9.12422e-05)
(5.50684e-06 0.000826903 -8.6299e-05)
(9.2062e-06 0.000830216 -7.97173e-05)
(1.23215e-05 0.000833211 -7.17899e-05)
(1.47408e-05 0.000835387 -6.28722e-05)
(1.63821e-05 0.000835889 -5.33724e-05)
(1.72077e-05 0.000833912 -4.37222e-05)
(1.72061e-05 0.000828253 -3.43664e-05)
(1.64217e-05 0.000817676 -2.57158e-05)
(1.49267e-05 0.00080044 -1.81789e-05)
(1.28419e-05 0.0007746 -1.21799e-05)
(1.02945e-05 0.000737485 -8.11512e-06)
(7.43934e-06 0.000685841 -6.52849e-06)
(4.48929e-06 0.000615271 -8.31322e-06)
(2.22842e-06 0.000520085 -1.32052e-05)
(7.1107e-07 0.000310138 -1.96955e-05)
(-6.91835e-08 0.000319139 -4.14952e-05)
(-1.93819e-06 0.000533231 -4.65253e-05)
(-4.63766e-06 0.000630345 -4.58573e-05)
(-8.49616e-06 0.000701927 -4.70074e-05)
(-1.25346e-05 0.000753982 -5.08664e-05)
(-1.63837e-05 0.00079094 -5.67784e-05)
(-1.98294e-05 0.000816351 -6.43382e-05)
(-2.26735e-05 0.000832866 -7.32627e-05)
(-2.47592e-05 0.000842711 -8.32559e-05)
(-2.59594e-05 0.000847557 -9.3941e-05)
(-2.62108e-05 0.000848902 -0.000104882)
(-2.54855e-05 0.000847859 -0.000115612)
(-2.38179e-05 0.000845495 -0.000125649)
(-2.12737e-05 0.000842579 -0.000134554)
(-1.79725e-05 0.000839855 -0.00014192)
(-1.40563e-05 0.000837762 -0.000147402)
(-9.69768e-06 0.000836736 -0.000150759)
(-5.08447e-06 0.000836919 -0.000151842)
(-4.16743e-07 0.000838447 -0.0001506)
(4.10762e-06 0.000841159 -0.000147072)
(8.29607e-06 0.000844887 -0.000141399)
(1.19724e-05 0.000849172 -0.000133811)
(1.49906e-05 0.000853542 -0.00012465)
(1.72228e-05 0.000857237 -0.000114337)
(1.85974e-05 0.000859479 -0.000103364)
(1.90682e-05 0.000859186 -9.22232e-05)
(1.86528e-05 0.000855209 -8.13802e-05)
(1.73995e-05 0.00084603 -7.12566e-05)
(1.54224e-05 0.000829939 -6.22269e-05)
(1.28555e-05 0.000804676 -5.45625e-05)
(9.87895e-06 0.000767531 -4.85103e-05)
(6.68788e-06 0.000714905 -4.43867e-05)
(3.59711e-06 0.000642294 -4.26942e-05)
(1.41352e-06 0.000543631 -4.26297e-05)
(-7.82561e-08 0.000325374 -3.77103e-05)
(3.94636e-07 0.000345609 -5.03458e-05)
(-1.42507e-06 0.000574389 -6.24765e-05)
(-3.82452e-06 0.000677846 -6.52253e-05)
(-7.45164e-06 0.000753667 -6.87887e-05)
(-1.13261e-05 0.000808196 -7.43558e-05)
(-1.50747e-05 0.000846335 -8.16007e-05)
(-1.84391e-05 0.000871817 -9.02903e-05)
(-2.12338e-05 0.000887648 -0.000100263)
(-2.32764e-05 0.000896152 -0.000111296)
(-2.44453e-05 0.000899296 -0.000123072)
(-2.46537e-05 0.000898628 -0.000135193)
(-2.38792e-05 0.000895525 -0.000147167)
(-2.21436e-05 0.000891068 -0.000158385)
(-1.95297e-05 0.00088625 -0.000168268)
(-1.61549e-05 0.000881798 -0.000176355)
(-1.21735e-05 0.00087836 -0.000182331)
(-7.76166e-06 0.000876319 -0.00018598)
(-3.11096e-06 0.000875974 -0.000187189)
(1.57501e-06 0.000877363 -0.000185912)
(6.09539e-06 0.000880434 -0.000182187)
(1.02538e-05 0.000884876 -0.000176117)
(1.38723e-05 0.000890289 -0.000167908)
(1.67897e-05 0.000896013 -0.000157863)
(1.88789e-05 0.000901301 -0.00014645)
(2.00553e-05 0.00090515 -0.000134272)
(2.02898e-05 0.000906458 -0.000121965)
(1.95974e-05 0.000903838 -0.000110036)
(1.80619e-05 0.00089572 -9.88696e-05)
(1.57915e-05 0.000880124 -8.87697e-05)
(1.29585e-05 0.000854699 -7.99524e-05)
(9.73909e-06 0.000816424 -7.25581e-05)
(6.37546e-06 0.000761533 -6.6769e-05)
(3.21162e-06 0.000685097 -6.28073e-05)
(1.1218e-06 0.000580729 -5.95485e-05)
(-4.70606e-07 0.000349223 -4.7493e-05)
(4.4199e-07 0.000375992 -5.10631e-05)
(-1.46292e-06 0.000620669 -6.5243e-05)
(-3.72612e-06 0.00073113 -6.91905e-05)
(-7.23225e-06 0.000811686 -7.36197e-05)
(-1.09988e-05 0.000869199 -7.97887e-05)
(-1.46349e-05 0.000908897 -8.74913e-05)
(-1.79036e-05 0.000934873 -9.65864e-05)
(-2.06026e-05 0.000950327 -0.000106968)
(-2.25676e-05 0.000957859 -0.000118473)
(-2.36594e-05 0.000959561 -0.000130848)
(-2.37897e-05 0.000957208 -0.000143725)
(-2.29288e-05 0.000952256 -0.000156472)
(-2.11115e-05 0.000945989 -0.000168323)
(-1.84172e-05 0.000939452 -0.0001786)
(-1.49812e-05 0.000933544 -0.000186893)
(-1.09583e-05 0.000928922 -0.000192956)
(-6.52349e-06 0.000926094 -0.000196651)
(-1.87077e-06 0.000925324 -0.000197889)
(2.80468e-06 0.000926732 -0.000196646)
(7.30424e-06 0.00093019 -0.00019294)
(1.1439e-05 0.000935426 -0.000186853)
(1.50262e-05 0.000941922 -0.000178515)
(1.79078e-05 0.000949012 -0.000168157)
(1.99486e-05 0.000955789 -0.000156191)
(2.10617e-05 0.000961195 -0.000143303)
(2.12047e-05 0.000963941 -0.000130286)
(2.04069e-05 0.000962557 -0.000117788)
(1.87498e-05 0.000955262 -0.00010618)
(1.63666e-05 0.000939951 -9.57023e-05)
(1.34172e-05 0.000914015 -8.65092e-05)
(1.00951e-05 0.000874239 -7.86935e-05)
(6.62734e-06 0.000816518 -7.23623e-05)
(3.38643e-06 0.000735602 -6.76572e-05)
(1.2982e-06 0.000624616 -6.33631e-05)
(-4.79082e-07 0.000378022 -4.91849e-05)
(1.91468e-07 0.000406783 -4.57379e-05)
(-1.88011e-06 0.00066647 -5.76438e-05)
(-4.15625e-06 0.000783545 -6.07959e-05)
(-7.66979e-06 0.000868626 -6.47174e-05)
(-1.13845e-05 0.000928978 -7.05088e-05)
(-1.49423e-05 0.00097021 -7.79278e-05)
(-1.81097e-05 0.000996669 -8.68121e-05)
(-2.07087e-05 0.00101182 -9.70722e-05)
(-2.25672e-05 0.00101845 -0.00010857)
(-2.35474e-05 0.00101884 -0.000121116)
(-2.35609e-05 0.00101489 -0.000134268)
(-2.2585e-05 0.00100824 -0.000147262)
(-2.06581e-05 0.00100028 -0.000159192)
(-1.78756e-05 0.000992187 -0.000169397)
(-1.43664e-05 0.000984932 -0.000177524)
(-1.02896e-05 0.000979275 -0.000183429)
(-5.82393e-06 0.000975746 -0.000187012)
(-1.15202e-06 0.000974673 -0.000188224)
(3.53339e-06 0.000976155 -0.000187038)
(8.04129e-06 0.000980086 -0.000183477)
(1.2185e-05 0.000986136 -0.000177586)
(1.57899e-05 0.000993769 -0.000169455)
(1.86917e-05 0.00100222 -0.000159223)
(2.07564e-05 0.00101051 -0.000147239)
(2.18876e-05 0.00101745 -0.000134168)
(2.2046e-05 0.00102165 -0.000120933)
(2.12468e-05 0.00102147 -0.000108312)
(1.95787e-05 0.00101501 -9.67496e-05)
(1.71738e-05 0.000999955 -8.64294e-05)
(1.41993e-05 0.000973531 -7.74801e-05)
(1.08344e-05 0.000932262 -6.99825e-05)
(7.29711e-06 0.000871791 -6.40738e-05)
(3.94574e-06 0.000786502 -5.9953e-05)
(1.78193e-06 0.000669117 -5.65455e-05)
(-2.15614e-07 0.000407941 -4.45662e-05)
(-2.47274e-07 0.000435267 -3.67352e-05)
(-2.52143e-06 0.000707654 -4.33924e-05)
(-4.9221e-06 0.000830311 -4.43541e-05)
(-8.53123e-06 0.000919148 -4.67872e-05)
(-1.22656e-05 0.000981797 -5.15148e-05)
(-1.57763e-05 0.00102415 -5.81166e-05)
(-1.88671e-05 0.00105081 -6.63612e-05)
(-2.13703e-05 0.00106544 -7.6118e-05)
(-2.31168e-05 0.001071 -8.72765e-05)
(-2.39703e-05 0.00106996 -9.96288e-05)
(-2.38532e-05 0.00106436 -0.000112649)
(-2.27475e-05 0.00105597 -0.000125453)
(-2.06989e-05 0.0010463 -0.000137099)
(-1.7803e-05 0.00103664 -0.000146949)
(-1.41984e-05 0.00102806 -0.000154732)
(-1.00458e-05 0.00102139 -0.000160352)
(-5.51205e-06 0.0010172 -0.000163758)
(-7.83229e-07 0.00101586 -0.000164911)
(3.95404e-06 0.00101747 -0.000163799)
(8.51425e-06 0.00102193 -0.000160431)
(1.27146e-05 0.00102886 -0.000154845)
(1.63806e-05 0.00103769 -0.000147083)
(1.93558e-05 0.00104759 -0.000137238)
(2.14988e-05 0.00105748 -0.000125578)
(2.27092e-05 0.00106607 -0.000112744)
(2.29437e-05 0.00107185 -9.96861e-05)
(2.22121e-05 0.00107304 -8.72973e-05)
(2.05912e-05 0.00106759 -7.61061e-05)
(1.82215e-05 0.00105303 -6.63171e-05)
(1.52629e-05 0.00102641 -5.80336e-05)
(1.18801e-05 0.000984043 -5.13769e-05)
(8.27165e-06 0.000921332 -4.65601e-05)
(4.77516e-06 0.000832377 -4.39706e-05)
(2.45182e-06 0.000709538 -4.28001e-05)
(2.27111e-07 0.000435901 -3.60192e-05)
(-7.46533e-07 0.00045974 -2.64969e-05)
(-3.22183e-06 0.000741779 -2.65793e-05)
(-5.80647e-06 0.000868617 -2.46883e-05)
(-9.55759e-06 0.000960162 -2.51679e-05)
(-1.33405e-05 0.00102431 -2.84954e-05)
(-1.68362e-05 0.00106717 -3.40246e-05)
(-1.98687e-05 0.00109355 -4.13971e-05)
(-2.22866e-05 0.00110729 -5.04369e-05)
(-2.39285e-05 0.0011115 -6.1021e-05)
(-2.46625e-05 0.00110878 -7.29097e-05)
(-2.44163e-05 0.00110133 -8.55008e-05)
(-2.31815e-05 0.00109103 -9.78472e-05)
(-2.10075e-05 0.00107953 -0.000109001)
(-1.79943e-05 0.00106822 -0.000118366)
(-1.42799e-05 0.00105825 -0.000125722)
(-1.00254e-05 0.00105051 -0.000131013)
(-5.40049e-06 0.00104566 -0.000134215)
(-5.83027e-07 0.00104406 -0.0001353)
(4.24037e-06 0.00104584 -0.000134259)
(8.88523e-06 0.00105088 -0.0001311)
(1.31721e-05 0.00105879 -0.000125848)
(1.69309e-05 0.00106893 -0.000118525)
(2.00016e-05 0.00108041 -0.000109181)
(2.2244e-05 0.00109207 -9.80354e-05)
(2.35543e-05 0.0011025 -8.56861e-05)
(2.38835e-05 0.00111008 -7.30854e-05)
(2.324e-05 0.0011129 -6.11855e-05)
(2.1694e-05 0.00110878 -5.05899e-05)
(1.93736e-05 0.0010951 -4.15355e-05)
(1.64389e-05 0.00106876 -3.41394e-05)
(1.30429e-05 0.0010259 -2.85706e-05)
(9.35531e-06 0.000961725 -2.51726e-05)
(5.6878e-06 0.000870119 -2.45646e-05)
(3.16472e-06 0.000743182 -2.6277e-05)
(7.27836e-07 0.000460045 -2.60569e-05)
(-1.19321e-06 0.000479649 -1.72636e-05)
(-3.82191e-06 0.00076831 -1.10338e-05)
(-6.59867e-06 0.000897926 -6.34615e-06)
(-1.04985e-05 0.000991105 -4.89016e-06)
(-1.43462e-05 0.00105592 -6.82169e-06)
(-1.78483e-05 0.00109864 -1.12683e-05)
(-2.08491e-05 0.00112421 -1.77433e-05)
(-2.32082e-05 0.0011366 -2.60135e-05)
(-2.47686e-05 0.00113908 -3.59314e-05)
(-2.54039e-05 0.00113437 -4.72229e-05)
(-2.50514e-05 0.0011248 -5.92336e-05)
(-2.37064e-05 0.00111236 -7.09889e-05)
(-2.1418e-05 0.00109883 -8.15572e-05)
(-1.82926e-05 0.00108569 -9.03845e-05)
(-1.4468e-05 0.0010742 -9.72785e-05)
(-1.0107e-05 0.00106532 -0.000102206)
(-5.37637e-06 0.00105974 -0.000105187)
(-4.5618e-07 0.00105788 -0.0001062)
(4.46791e-06 0.00105987 -0.000105228)