/*--------------------------------*- C++ -*----------------------------------*\
| =========                 |                                                 |
| \\      /  F ield         | OpenFOAM: The Open Source CFD Toolbox           |
|  \\    /   O peration     | Version:  v1906                                 |
|   \\  /    A nd           | Web:      www.OpenFOAM.com                      |
|    \\/     M anipulation  |                                                 |
\*---------------------------------------------------------------------------*/
FoamFile
{
    version     2.0;
    format      ascii;
    class       volScalarField;
    location    "60";
    object      alphat;
}
// * * * * * * * * * * * * * * * * * * * * * * * * * * * * * * * * * * * * * //

dimensions      [1 -1 -1 0 0 0 0];


internalField   nonuniform List<scalar> 
78750
(
1.24616e-09
2.3529e-07
4.44914e-07
6.55761e-07
8.62712e-07
1.06241e-06
1.25236e-06
1.43074e-06
1.59611e-06
1.74732e-06
1.88338e-06
2.00347e-06
2.10687e-06
2.19296e-06
2.26118e-06
2.31102e-06
2.34201e-06
2.35372e-06
2.34582e-06
2.31837e-06
2.2702e-06
2.20127e-06
2.11213e-06
2.00359e-06
1.87728e-06
1.73582e-06
1.58266e-06
1.42169e-06
1.25622e-06
1.08762e-06
9.14733e-07
7.34549e-07
5.43816e-07
3.4204e-07
5.57761e-09
3.34528e-09
2.31327e-06
5.25685e-06
8.00454e-06
9.94285e-06
1.16317e-05
1.30875e-05
1.43301e-05
1.53772e-05
1.62444e-05
1.69454e-05
1.74924e-05
1.7896e-05
1.81657e-05
1.83096e-05
1.83346e-05
1.82467e-05
1.80505e-05
1.775e-05
1.73477e-05
1.68422e-05
1.62336e-05
1.55212e-05
1.47038e-05
1.37814e-05
1.27574e-05
1.16399e-05
1.04432e-05
9.1909e-06
7.37252e-06
5.03721e-06
3.20853e-06
2.45017e-06
1.615e-06
1.92838e-08
5.76214e-09
2.31697e-06
5.48304e-06
9.43376e-06
1.34133e-05
1.66155e-05
1.83044e-05
1.9669e-05
2.07472e-05
2.15708e-05
2.21667e-05
2.25581e-05
2.27653e-05
2.28061e-05
2.26965e-05
2.24503e-05
2.20807e-05
2.15998e-05
2.10192e-05
2.03501e-05
1.96018e-05
1.87795e-05
1.7883e-05
1.69051e-05
1.58348e-05
1.46612e-05
1.33806e-05
1.20042e-05
1.01736e-05
7.54527e-06
5.0539e-06
3.58707e-06
3.6714e-06
1.54248e-06
3.12693e-08
8.70952e-09
2.32276e-06
5.54522e-06
1.01016e-05
1.54588e-05
2.0278e-05
2.26874e-05
2.40598e-05
2.50972e-05
2.58415e-05
2.63268e-05
2.6582e-05
2.66315e-05
2.64967e-05
2.61981e-05
2.50085e-05
2.35969e-05
2.20871e-05
2.05375e-05
1.90085e-05
1.75704e-05
1.62976e-05
1.52507e-05
1.44572e-05
1.3882e-05
1.33822e-05
1.26768e-05
1.14133e-05
9.40223e-06
6.92931e-06
4.81396e-06
3.84471e-06
4.69308e-06
1.46481e-06
4.14353e-08
1.17808e-08
2.2605e-06
5.43862e-06
1.02666e-05
1.64383e-05
2.22021e-05
2.5694e-05
2.70087e-05
2.79633e-05
2.86051e-05
2.89733e-05
2.9101e-05
2.84092e-05
2.6946e-05
2.52931e-05
2.35686e-05
2.18262e-05
2.01048e-05
1.84348e-05
1.6847e-05
1.53855e-05
1.41121e-05
1.30892e-05
1.23539e-05
1.18915e-05
1.15843e-05
1.11546e-05
1.02098e-05
8.53559e-06
6.46765e-06
4.79676e-06
4.27716e-06
5.36879e-06
1.42915e-06
5.05045e-08
1.52582e-08
2.25122e-06
5.47394e-06
1.06412e-05
1.76507e-05
2.43597e-05
2.85102e-05
2.97838e-05
3.06766e-05
3.12395e-05
3.15145e-05
3.06858e-05
2.88857e-05
2.68701e-05
2.48143e-05
2.28127e-05
2.09146e-05
1.91347e-05
1.74684e-05
1.59115e-05
1.44796e-05
1.32168e-05
1.21783e-05
1.14001e-05
1.08741e-05
1.05067e-05
1.00639e-05
9.20512e-06
7.75452e-06
6.04053e-06
4.76243e-06
4.66014e-06
5.75946e-06
1.45029e-06
5.85192e-08
1.87721e-08
2.26765e-06
5.56786e-06
1.10755e-05
1.88538e-05
2.63519e-05
3.08348e-05
3.20688e-05
3.29072e-05
3.34032e-05
3.282e-05
3.07672e-05
2.83769e-05
2.59353e-05
2.36038e-05
2.14664e-05
1.95421e-05
1.78105e-05
1.62369e-05
1.47927e-05
1.34747e-05
1.23146e-05
1.1354e-05
1.06118e-05
1.00723e-05
9.65382e-06
9.16768e-06
8.35616e-06
7.1159e-06
5.74481e-06
4.83635e-06
5.14927e-06
5.92156e-06
1.48016e-06
6.58274e-08
2.2274e-08
2.28542e-06
5.633e-06
1.13581e-05
1.96668e-05
2.77259e-05
3.29158e-05
3.42552e-05
3.50602e-05
3.4961e-05
3.30011e-05
3.04443e-05
2.76963e-05
2.50246e-05
2.25869e-05
2.04393e-05
1.85704e-05
1.69344e-05
1.54767e-05
1.41522e-05
1.29429e-05
1.1868e-05
1.09556e-05
1.02065e-05
9.59611e-06
9.05503e-06
8.44574e-06
7.60515e-06
6.50879e-06
5.42092e-06
4.83624e-06
5.53505e-06
6.05378e-06
1.52577e-06
7.26242e-08
2.56452e-08
2.31273e-06
5.71136e-06
1.16268e-05
2.03772e-05
2.88596e-05
3.4139e-05
3.61781e-05
3.66132e-05
3.51853e-05
3.27359e-05
2.97911e-05
2.67697e-05
2.39511e-05
2.14658e-05
1.9334e-05
1.75182e-05
1.59602e-05
1.45989e-05
1.3386e-05
1.2303e-05
1.13645e-05
1.0576e-05
9.90475e-06
9.30059e-06
8.69265e-06
7.98489e-06
7.10149e-06
6.09479e-06
5.21539e-06
4.89682e-06
5.95159e-06
6.09069e-06
1.56893e-06
7.92666e-08
2.90059e-08
2.33365e-06
5.75357e-06
1.17692e-05
2.07925e-05
2.95531e-05
3.4871e-05
3.70387e-05
3.6915e-05
3.51661e-05
3.24183e-05
2.92429e-05
2.6084e-05
2.32096e-05
2.07222e-05
1.86177e-05
1.68434e-05
1.53342e-05
1.40273e-05
1.28754e-05
1.18615e-05
1.09999e-05
1.02847e-05
9.66043e-06
9.05506e-06
8.39262e-06
7.60799e-06
6.69193e-06
5.75195e-06
5.02969e-06
4.92335e-06
6.28291e-06
6.13743e-06
1.61403e-06
8.58803e-08
3.22334e-08
2.35437e-06
5.79555e-06
1.19018e-05
2.11565e-05
3.01318e-05
3.54487e-05
3.74418e-05
3.70456e-05
3.49942e-05
3.19823e-05
2.86267e-05
2.53772e-05
2.24783e-05
2.00026e-05
1.79247e-05
1.61818e-05
1.47062e-05
1.34377e-05
1.23346e-05
1.13867e-05
1.06125e-05
9.99106e-06
9.44241e-06
8.87094e-06
8.19098e-06
7.36044e-06
6.42381e-06
5.5329e-06
4.92869e-06
4.99709e-06
6.62909e-06
6.13044e-06
1.65345e-06
9.25039e-08
3.56562e-08
2.37414e-06
5.8303e-06
1.20057e-05
2.14341e-05
3.05468e-05
3.58253e-05
3.7661e-05
3.70549e-05
3.47976e-05
3.16293e-05
2.8185e-05
2.49053e-05
2.20106e-05
1.95518e-05
1.74907e-05
1.57596e-05
1.42912e-05
1.30284e-05
1.19345e-05
1.1005e-05
1.02654e-05
9.69054e-06
9.18732e-06
8.64414e-06
7.96614e-06
7.12344e-06
6.19349e-06
5.35477e-06
4.84899e-06
5.06334e-06
6.93131e-06
6.12348e-06
1.69033e-06
9.90995e-08
3.89456e-08
2.39077e-06
5.86071e-06
1.21004e-05
2.16827e-05
3.09037e-05
3.61278e-05
3.78029e-05
3.69926e-05
3.45447e-05
3.12425e-05
2.77341e-05
2.44445e-05
2.15671e-05
1.91317e-05
1.70889e-05
1.53682e-05
1.39037e-05
1.26424e-05
1.15534e-05
1.06395e-05
9.93306e-06
9.40262e-06
8.94374e-06
8.43289e-06
7.76919e-06
6.93271e-06
6.02397e-06
5.23826e-06
4.81921e-06
5.16524e-06
7.24903e-06
6.08608e-06
1.72217e-06
1.0561e-07
4.25499e-08
2.41008e-06
5.89942e-06
1.22153e-05
2.19487e-05
3.12313e-05
3.63618e-05
3.78771e-05
3.68997e-05
3.4321e-05
3.09476e-05
2.74235e-05
2.41513e-05
2.13006e-05
1.88857e-05
1.68514e-05
1.51269e-05
1.36489e-05
1.23683e-05
1.12598e-05
1.03319e-05
9.6246e-06
9.10745e-06
8.67076e-06
8.18448e-06
7.544e-06
6.73394e-06
5.8654e-06
5.14001e-06
4.80297e-06
5.26961e-06
7.54821e-06
6.04953e-06
1.75145e-06
1.12006e-07
4.60177e-08
2.42635e-06
5.93371e-06
1.23204e-05
2.21896e-05
3.15204e-05
3.65574e-05
3.79184e-05
3.6782e-05
3.40839e-05
3.06529e-05
2.71261e-05
2.38816e-05
2.10647e-05
1.86751e-05
1.66522e-05
1.49253e-05
1.34339e-05
1.2133e-05
1.10026e-05
1.00573e-05
9.34447e-06
8.8337e-06
8.4116e-06
7.94506e-06
7.32941e-06
6.55371e-06
5.73418e-06
5.0728e-06
4.81599e-06
5.4002e-06
7.85994e-06
5.99919e-06
1.7773e-06
1.18238e-07
4.98134e-08
2.44614e-06
5.97952e-06
1.24565e-05
2.24751e-05
3.18223e-05
3.67324e-05
3.79363e-05
3.66657e-05
3.3888e-05
3.04387e-05
2.69368e-05
2.37338e-05
2.09539e-05
1.85864e-05
1.65679e-05
1.48292e-05
1.33129e-05
1.19782e-05
1.08102e-05
9.82856e-06
9.08778e-06
8.5632e-06
8.1408e-06
7.6873e-06
7.09923e-06
6.36733e-06
5.60648e-06
5.01394e-06
4.83711e-06
5.53567e-06
8.16204e-06
5.95415e-06
1.80154e-06
1.24308e-07
5.3484e-08
2.46379e-06
6.02239e-06
1.2585e-05
2.27392e-05
3.2095e-05
3.68855e-05
3.79429e-05
3.65481e-05
3.37002e-05
3.02406e-05
2.67702e-05
2.36137e-05
2.08754e-05
1.85342e-05
1.6524e-05
1.47763e-05
1.32365e-05
1.18674e-05
1.06591e-05
9.63677e-06
8.8618e-06
8.31587e-06
7.88561e-06
7.4397e-06
6.87794e-06
6.19254e-06
5.49419e-06
4.97273e-06
4.87658e-06
5.6905e-06
8.47055e-06
5.9052e-06
1.82363e-06
1.30179e-07
5.74442e-08
2.48453e-06
6.07522e-06
1.27407e-05
2.30449e-05
3.23871e-05
3.70356e-05
3.79472e-05
3.6448e-05
3.35579e-05
3.01126e-05
2.66886e-05
2.35848e-05
2.08886e-05
1.85714e-05
1.65654e-05
1.48032e-05
1.32325e-05
1.18206e-05
1.05615e-05
9.48548e-06
8.65999e-06
8.07826e-06
7.62957e-06
7.18596e-06
6.65076e-06
6.01564e-06
5.38381e-06
4.93567e-06
4.92082e-06
5.84983e-06
8.77034e-06
5.86366e-06
1.84478e-06
1.3586e-07
6.13017e-08
2.5039e-06
6.12672e-06
1.28925e-05
2.33362e-05
3.26595e-05
3.71749e-05
3.7952e-05
3.63581e-05
3.34324e-05
3.00053e-05
2.663e-05
2.35813e-05
2.09306e-05
1.8642e-05
1.66452e-05
1.48724e-05
1.32734e-05
1.18188e-05
1.05067e-05
9.37212e-06
8.48922e-06
7.86417e-06
7.39014e-06
6.94386e-06
6.43301e-06
5.84823e-06
5.28375e-06
4.90967e-06
4.97726e-06
6.0236e-06
9.07033e-06
5.82327e-06
1.86461e-06
1.41319e-07
6.53989e-08
2.52567e-06
6.18593e-06
1.30657e-05
2.36604e-05
3.29497e-05
3.732e-05
3.79674e-05
3.62951e-05
3.33526e-05
2.99573e-05
2.66374e-05
2.36455e-05
2.10397e-05
1.87786e-05
1.67894e-05
1.50041e-05
1.33737e-05
1.18714e-05
1.04997e-05
9.29734e-06
8.34464e-06
7.66507e-06
7.15738e-06
6.70365e-06
6.21565e-06
5.68156e-06
5.18509e-06
4.88541e-06
5.03587e-06
6.20003e-06
9.35925e-06
5.79013e-06
1.8838e-06
1.46564e-07
6.94154e-08
2.54654e-06
6.24488e-06
1.32387e-05
2.3978e-05
3.32299e-05
3.74636e-05
3.79913e-05
3.62477e-05
3.32916e-05
2.99286e-05
2.66639e-05
2.37301e-05
2.11728e-05
1.89444e-05
1.69688e-05
1.51768e-05
1.35189e-05
1.19699e-05
1.05363e-05
9.26169e-06
8.23252e-06
7.49116e-06
6.94336e-06
6.47727e-06
6.00894e-06
5.52363e-06
5.09397e-06
4.8683e-06
5.10262e-06
6.38699e-06
9.6434e-06
5.76059e-06
1.90219e-06
1.51568e-07
7.36229e-08
2.56908e-06
6.30958e-06
1.34288e-05
2.43226e-05
3.35278e-05
3.762e-05
3.80343e-05
3.62311e-05
3.3272e-05
2.9947e-05
2.67391e-05
2.38629e-05
2.13536e-05
1.91582e-05
1.71974e-05
1.53998e-05
1.37149e-05
1.21178e-05
1.06185e-05
9.26538e-06
8.15064e-06
7.33836e-06
6.74326e-06
6.25978e-06
5.80784e-06
5.36898e-06
5.00431e-06
4.85141e-06
5.16924e-06
6.57376e-06
9.91316e-06
5.73713e-06
1.92004e-06
1.5634e-07
7.7764e-08
2.59079e-06
6.37421e-06
1.36209e-05
2.46681e-05
3.38258e-05
3.77842e-05
3.80922e-05
3.62323e-05
3.32692e-05
2.99798e-05
2.68275e-05
2.40102e-05
2.1553e-05
1.93966e-05
1.74577e-05
1.56615e-05
1.39547e-05
1.23119e-05
1.07458e-05
9.31028e-06
8.10442e-06
7.21422e-06
6.56554e-06
6.05946e-06
5.61957e-06
5.22347e-06
4.92087e-06
4.83915e-06
5.24084e-06
6.76749e-06
1.01752e-05
5.71853e-06
1.93745e-06
1.60864e-07
8.20518e-08
2.61338e-06
6.44261e-06
1.38268e-05
2.50383e-05
3.41459e-05
3.79703e-05
3.81756e-05
3.62631e-05
3.32983e-05
3.00449e-05
2.69475e-05
2.41888e-05
2.17842e-05
1.96686e-05
1.77547e-05
1.59637e-05
1.42387e-05
1.25522e-05
1.09187e-05
9.39718e-06
8.09438e-06
7.11815e-06
6.40883e-06
5.87431e-06
5.44149e-06
5.08375e-06
4.83963e-06
4.82668e-06
5.31114e-06
6.95883e-06
1.04208e-05
5.70473e-06
1.9544e-06
1.6515e-07
8.62808e-08
2.63495e-06
6.51016e-06
1.40343e-05
2.54145e-05
3.44799e-05
3.81769e-05
3.82807e-05
3.6309e-05
3.33365e-05
3.01162e-05
2.70738e-05
2.43762e-05
2.20287e-05
1.99601e-05
1.80786e-05
1.63002e-05
1.45633e-05
1.28373e-05
1.11375e-05
9.52814e-06
8.1248e-06
7.05578e-06
6.27934e-06
5.71043e-06
5.27896e-06
4.95418e-06
4.764e-06
4.8168e-06
5.38291e-06
7.15229e-06
1.06574e-05
5.69524e-06
1.97094e-06
1.69191e-07
9.06154e-08
2.65685e-06
6.57938e-06
1.42485e-05
2.57984e-05
3.48005e-05
3.83679e-05
3.83817e-05
3.63633e-05
3.33894e-05
3.02047e-05
2.72182e-05
2.4582e-05
2.22926e-05
2.02737e-05
1.84286e-05
1.66684e-05
1.49255e-05
1.31649e-05
1.14011e-05
9.70336e-06
8.19635e-06
7.02748e-06
6.17713e-06
5.56741e-06
5.13098e-06
4.83309e-06
4.69177e-06
4.80705e-06
5.45381e-06
7.34609e-06
1.08878e-05
5.69137e-06
1.98705e-06
1.73001e-07
9.48942e-08
2.67791e-06
6.64758e-06
1.44607e-05
2.61724e-05
3.51064e-05
3.85483e-05
3.84763e-05
3.64223e-05
3.34466e-05
3.02955e-05
2.73646e-05
2.47918e-05
2.25646e-05
2.06007e-05
1.87989e-05
1.70643e-05
1.53227e-05
1.35331e-05
1.17087e-05
9.92271e-06
8.31013e-06
7.03594e-06
6.10584e-06
5.4493e-06
5.00145e-06
4.72393e-06
4.62581e-06
4.7995e-06
5.52467e-06
7.53942e-06
1.11112e-05
5.69635e-06
2.00366e-06
1.7659e-07
9.92468e-08
2.69921e-06
6.7175e-06
1.46781e-05
2.65448e-05
3.54011e-05
3.8716e-05
3.85602e-05
3.64743e-05
3.35045e-05
3.03915e-05
2.7518e-05
2.50094e-05
2.28458e-05
2.094e-05
1.9186e-05
1.74833e-05
1.57502e-05
1.39385e-05
1.20581e-05
1.01855e-05
8.46588e-06
7.08105e-06
6.06554e-06
5.35604e-06
4.89e-06
4.62583e-06
4.56475e-06
4.79268e-06
5.59558e-06
7.73717e-06
1.13297e-05
5.70926e-06
2.02083e-06
1.79974e-07
1.03543e-07
2.71961e-06
6.78716e-06
1.48989e-05
2.69051e-05
3.56787e-05
3.88691e-05
3.86323e-05
3.6518e-05
3.35656e-05
3.04889e-05
2.76697e-05
2.52261e-05
2.31292e-05
2.12862e-05
1.95861e-05
1.79221e-05
1.6205e-05
1.43782e-05
1.24468e-05
1.04899e-05
8.66249e-06
7.16345e-06
6.05802e-06
5.29016e-06
4.7995e-06
4.54183e-06
4.51169e-06
4.78982e-06
5.66948e-06
7.93987e-06
1.15454e-05
5.72831e-06
2.03846e-06
1.83155e-07
1.07871e-07
2.73933e-06
6.85495e-06
1.51165e-05
2.72575e-05
3.59416e-05
3.90072e-05
3.86911e-05
3.65495e-05
3.36145e-05
3.0577e-05
2.78161e-05
2.54407e-05
2.34135e-05
2.16366e-05
1.99948e-05
1.83757e-05
1.66819e-05
1.48479e-05
1.2872e-05
1.08342e-05
8.89936e-06
7.28321e-06
6.08355e-06
5.25186e-06
4.72998e-06
4.47161e-06
4.46584e-06
4.78937e-06
5.74342e-06
8.14214e-06
1.17564e-05
5.75272e-06
2.05639e-06
1.86145e-07
1.12142e-07
2.75845e-06
6.92186e-06
1.53317e-05
2.75992e-05
3.61891e-05
3.91314e-05
3.87374e-05
3.65698e-05
3.3654e-05
3.06582e-05
2.79573e-05
2.56512e-05
2.36955e-05
2.19879e-05
2.0409e-05
1.88408e-05
1.71775e-05
1.53435e-05
1.33296e-05
1.12151e-05
9.1741e-06
7.4397e-06
6.1428e-06
5.24272e-06
4.68365e-06
4.41782e-06
4.43004e-06
4.79418e-06
5.81999e-06
8.34603e-06
1.19638e-05
5.78136e-06
2.07452e-06
1.88948e-07
1.16422e-07
2.7771e-06
6.9877e-06
1.55449e-05
2.79324e-05
3.64216e-05
3.924e-05
3.87688e-05
3.65759e-05
3.36807e-05
3.07299e-05
2.809e-05
2.58538e-05
2.39712e-05
2.23357e-05
2.0824e-05
1.93122e-05
1.76863e-05
1.58603e-05
1.38158e-05
1.16299e-05
9.48517e-06
7.63207e-06
6.23514e-06
5.26243e-06
4.66037e-06
4.3803e-06
4.40383e-06
4.8031e-06
5.89698e-06
8.54818e-06
1.21668e-05
5.81376e-06
2.09275e-06
1.91577e-07
1.20641e-07
2.79521e-06
7.05251e-06
1.57549e-05
2.82539e-05
3.66379e-05
3.93329e-05
3.87843e-05
3.65655e-05
3.36912e-05
3.07926e-05
2.82132e-05
2.60464e-05
2.42385e-05
2.26784e-05
2.12378e-05
1.97874e-05
1.82051e-05
1.63939e-05
1.43259e-05
1.20743e-05
9.82926e-06
7.85875e-06
6.36031e-06
5.31156e-06
4.66145e-06
4.36098e-06
4.38966e-06
4.81896e-06
5.97743e-06
8.75118e-06
1.23668e-05
5.84913e-06
2.11098e-06
1.94038e-07
1.24854e-07
2.81312e-06
7.11682e-06
1.5963e-05
2.85659e-05
3.68389e-05
3.94098e-05
3.87833e-05
3.65379e-05
3.36832e-05
3.08349e-05
2.83178e-05
2.62234e-05
2.44938e-05
2.30122e-05
2.16466e-05
2.02621e-05
1.8729e-05
1.69397e-05
1.48554e-05
1.25447e-05
1.0204e-05
8.11821e-06
6.51733e-06
5.38953e-06
4.68664e-06
4.35985e-06
4.38734e-06
4.84077e-06
6.05896e-06
8.95256e-06
1.25636e-05
5.88738e-06
2.12921e-06
1.96343e-07
1.29004e-07
2.83072e-06
7.18039e-06
1.61671e-05
2.8865e-05
3.70229e-05
3.94695e-05
3.87646e-05
3.6492e-05
3.3657e-05
3.08601e-05
2.84069e-05
2.6387e-05
2.47374e-05
2.33368e-05
2.2049e-05
2.07342e-05
1.9255e-05
1.74933e-05
1.53994e-05
1.30361e-05
1.0605e-05
8.40781e-06
6.70484e-06
5.49597e-06
4.73634e-06
4.37798e-06
4.39869e-06
4.8717e-06
6.14746e-06
9.15507e-06
1.27585e-05
5.92785e-06
2.14734e-06
1.98502e-07
1.33117e-07
2.84838e-06
7.24419e-06
1.63685e-05
2.91534e-05
3.71921e-05
3.95125e-05
3.87274e-05
3.64268e-05
3.36121e-05
3.08671e-05
2.84786e-05
2.65345e-05
2.4967e-05
2.36497e-05
2.24425e-05
2.12007e-05
1.97797e-05
1.8051e-05
1.59538e-05
1.35446e-05
1.10291e-05
8.725e-06
6.92099e-06
5.62964e-06
4.80996e-06
4.41537e-06
4.42416e-06
4.91213e-06
6.24178e-06
9.35903e-06
1.29531e-05
5.97097e-06
2.16544e-06
2.0053e-07
1.37142e-07
2.86563e-06
7.30786e-06
1.6563e-05
2.94297e-05
3.73453e-05
3.95382e-05
3.86722e-05
3.63421e-05
3.35436e-05
3.08485e-05
2.8528e-05
2.6664e-05
2.51815e-05
2.39496e-05
2.28251e-05
2.1659e-05
2.02997e-05
1.86083e-05
1.65134e-05
1.40644e-05
1.1471e-05
9.06584e-06
7.16326e-06
5.78918e-06
4.90714e-06
4.47248e-06
4.46479e-06
4.96329e-06
6.34296e-06
9.56597e-06
1.31483e-05
6.01635e-06
2.18349e-06
2.02434e-07
1.41128e-07
2.88192e-06
7.36992e-06
1.67573e-05
2.96993e-05
3.74856e-05
3.95493e-05
3.86011e-05
3.62413e-05
3.34612e-05
3.08172e-05
2.85619e-05
2.67738e-05
2.53766e-05
2.4233e-05
2.31939e-05
2.21063e-05
2.08119e-05
1.91621e-05
1.70745e-05
1.4592e-05
1.19271e-05
9.4268e-06
7.42877e-06
5.97257e-06
5.02667e-06
4.54888e-06
4.52069e-06
5.02547e-06
6.45108e-06
9.77588e-06
1.33449e-05
6.06435e-06
2.20158e-06
2.0423e-07
1.45029e-07
2.89755e-06
7.43002e-06
1.69458e-05
2.99545e-05
3.76082e-05
3.95421e-05
3.85101e-05
3.61184e-05
3.33546e-05
3.07614e-05
2.8575e-05
2.68675e-05
2.55553e-05
2.44992e-05
2.35476e-05
2.25411e-05
2.13141e-05
1.97092e-05
1.76335e-05
1.5123e-05
1.23931e-05
9.80418e-06
7.71483e-06
6.178e-06
5.16757e-06
4.64432e-06
4.59227e-06
5.09956e-06
6.56749e-06
9.99045e-06
1.35435e-05
6.11483e-06
2.21973e-06
2.05932e-07
1.48875e-07
2.91269e-06
7.48913e-06
1.71327e-05
3.02016e-05
3.7717e-05
3.9519e-05
3.8402e-05
3.59784e-05
3.32313e-05
3.06889e-05
2.85711e-05
2.6944e-05
2.57185e-05
2.475e-05
2.38844e-05
2.29601e-05
2.18033e-05
2.02463e-05
1.81865e-05
1.56536e-05
1.28652e-05
1.01943e-05
8.0185e-06
6.4033e-06
5.3284e-06
4.75806e-06
4.67933e-06
5.18576e-06
6.69256e-06
1.02101e-05
1.37452e-05
6.16802e-06
2.23802e-06
2.07555e-07
1.52624e-07
2.92687e-06
7.54562e-06
1.73131e-05
3.04341e-05
3.78084e-05
3.94775e-05
3.82738e-05
3.58166e-05
3.30852e-05
3.05937e-05
2.85458e-05
2.70009e-05
2.58635e-05
2.49847e-05
2.42063e-05
2.33628e-05
2.22771e-05
2.07709e-05
1.87307e-05
1.61803e-05
1.33397e-05
1.05938e-05
8.33711e-06
6.6465e-06
5.50787e-06
4.8895e-06
4.78197e-06
5.28478e-06
6.8276e-06
1.04364e-05
1.39508e-05
6.22397e-06
2.25651e-06
2.09112e-07
1.56312e-07
2.94066e-06
7.60121e-06
1.74912e-05
3.06574e-05
3.78857e-05
3.94198e-05
3.81282e-05
3.5637e-05
3.29214e-05
3.0481e-05
2.85036e-05
2.70408e-05
2.59913e-05
2.52022e-05
2.45116e-05
2.37497e-05
2.27334e-05
2.12788e-05
1.92617e-05
1.66988e-05
1.38127e-05
1.09992e-05
8.6679e-06
6.90548e-06
5.70448e-06
5.03772e-06
4.89983e-06
5.39675e-06
6.97311e-06
1.06701e-05
1.41611e-05
6.28276e-06
2.27524e-06
2.10619e-07
1.59901e-07
2.95356e-06
7.65427e-06
1.7663e-05
3.08665e-05
3.79457e-05
3.93437e-05
3.79625e-05
3.54363e-05
3.27364e-05
3.03474e-05
2.84414e-05
2.70616e-05
2.61007e-05
2.54015e-05
2.47992e-05
2.41195e-05
2.31735e-05
2.17695e-05
1.97768e-05
1.72058e-05
1.42806e-05
1.14072e-05
9.00816e-06
7.17815e-06
5.91673e-06
5.20189e-06
5.03276e-06
5.52225e-06
7.13037e-06
1.0913e-05
1.4377e-05
6.34449e-06
2.29428e-06
2.12086e-07
1.63414e-07
2.96598e-06
7.70609e-06
1.78318e-05
3.10656e-05
3.79915e-05
3.9251e-05
3.77788e-05
3.52174e-05
3.25335e-05
3.01963e-05
2.83623e-05
2.70657e-05
2.61928e-05
2.55827e-05
2.50676e-05
2.44696e-05
2.35937e-05
2.22408e-05
2.02734e-05
1.7698e-05
1.47402e-05
1.18149e-05
9.35539e-06
7.46249e-06
6.14309e-06
5.38094e-06
5.18023e-06
5.6613e-06
7.30009e-06
1.11663e-05
1.45992e-05
6.40929e-06
2.31369e-06
2.13528e-07
1.66819e-07
2.9775e-06
7.75532e-06
1.7994e-05
3.12506e-05
3.802e-05
3.91398e-05
3.75755e-05
3.49786e-05
3.23112e-05
3.00266e-05
2.82656e-05
2.70525e-05
2.62675e-05
2.5746e-05
2.53171e-05
2.47994e-05
2.39927e-05
2.26906e-05
2.07492e-05
1.81728e-05
1.51887e-05
1.22196e-05
9.70725e-06
7.75656e-06
6.38212e-06
5.57399e-06
5.3419e-06
5.81419e-06
7.48314e-06
1.14312e-05
1.48279e-05
6.47711e-06
2.33352e-06
2.14956e-07
1.70141e-07
2.98853e-06
7.80326e-06
1.81531e-05
3.14254e-05
3.80342e-05
3.90119e-05
3.73542e-05
3.47219e-05
3.20718e-05
2.98407e-05
2.81535e-05
2.70239e-05
2.6326e-05
2.58918e-05
2.55474e-05
2.5108e-05
2.43684e-05
2.3116e-05
2.12012e-05
1.86265e-05
1.5624e-05
1.26201e-05
1.00621e-05
8.05869e-06
6.63234e-06
5.77993e-06
5.51724e-06
5.98107e-06
7.68053e-06
1.17094e-05
1.50641e-05
6.54825e-06
2.35386e-06
2.16382e-07
1.73357e-07
2.99872e-06
7.84877e-06
1.83059e-05
3.15865e-05
3.80314e-05
3.88655e-05
3.71135e-05
3.44465e-05
3.18151e-05
2.96386e-05
2.80262e-05
2.69806e-05
2.63694e-05
2.6021e-05
2.57593e-05
2.53957e-05
2.47204e-05
2.35155e-05
2.16271e-05
1.90567e-05
1.60402e-05
1.30122e-05
1.04177e-05
8.36749e-06
6.89275e-06
5.99799e-06
5.70571e-06
6.16175e-06
7.89259e-06
1.20016e-05
1.53072e-05
6.62243e-06
2.37471e-06
2.1782e-07
1.76488e-07
3.00842e-06
7.89294e-06
1.84554e-05
3.17373e-05
3.80141e-05
3.87022e-05
3.6855e-05
3.41539e-05
3.15426e-05
2.9422e-05
2.78856e-05
2.69241e-05
2.63989e-05
2.61351e-05
2.59537e-05
2.5663e-05
2.50487e-05
2.38882e-05
2.2025e-05
1.94616e-05
1.64383e-05
1.3395e-05
1.07716e-05
8.68083e-06
7.16189e-06
6.22735e-06
5.90705e-06
6.35664e-06
8.12051e-06
1.23095e-05
1.55581e-05
6.69996e-06
2.39618e-06
2.19279e-07
1.79518e-07
3.01736e-06
7.93499e-06
1.85996e-05
3.18751e-05
3.79799e-05
3.85202e-05
3.65773e-05
3.38434e-05
3.12542e-05
2.91913e-05
2.77322e-05
2.68553e-05
2.64155e-05
2.62347e-05
2.61314e-05
2.59103e-05
2.53529e-05
2.42329e-05
2.23926e-05
1.98378e-05
1.68145e-05
1.3766e-05
1.11225e-05
8.99744e-06
7.43863e-06
6.46707e-06
6.1206e-06
6.56545e-06
8.36461e-06
1.26339e-05
1.58162e-05
6.78049e-06
2.41824e-06
2.20767e-07
1.82465e-07
3.02581e-06
7.97572e-06
1.87404e-05
3.20026e-05
3.79309e-05
3.83208e-05
3.62816e-05
3.35164e-05
3.09515e-05
2.89481e-05
2.75677e-05
2.67757e-05
2.64208e-05
2.63218e-05
2.62941e-05
2.61392e-05
2.56346e-05
2.45506e-05
2.27302e-05
2.01844e-05
1.71663e-05
1.41218e-05
1.14657e-05
9.31394e-06
7.72105e-06
6.71628e-06
6.34618e-06
6.78851e-06
8.6258e-06
1.29759e-05
1.6081e-05
6.86384e-06
2.44089e-06
2.22289e-07
1.8532e-07
3.0336e-06
8.01465e-06
1.88766e-05
3.21176e-05
3.78651e-05
3.81024e-05
3.59669e-05
3.31725e-05
3.06345e-05
2.86927e-05
2.73924e-05
2.6686e-05
2.64155e-05
2.63968e-05
2.64426e-05
2.63506e-05
2.58942e-05
2.48416e-05
2.30375e-05
2.05003e-05
1.74916e-05
1.44597e-05
1.17995e-05
9.6283e-06
8.00722e-06
6.97369e-06
6.58333e-06
7.02633e-06
8.90546e-06
1.33375e-05
1.63527e-05
6.94988e-06
2.46416e-06
2.23849e-07
1.88095e-07
3.04091e-06
8.05232e-06
1.90095e-05
3.2222e-05
3.77839e-05
3.78663e-05
3.56346e-05
3.28134e-05
3.0305e-05
2.84269e-05
2.72081e-05
2.65875e-05
2.64011e-05
2.64614e-05
2.65783e-05
2.65459e-05
2.61335e-05
2.51073e-05
2.33157e-05
2.0786e-05
1.77899e-05
1.47775e-05
1.21208e-05
9.93745e-06
8.29463e-06
7.23739e-06
6.83047e-06
7.27748e-06
9.20309e-06
1.37183e-05
1.66294e-05
7.03799e-06
2.48796e-06
2.25446e-07
1.90784e-07
3.04762e-06
8.08841e-06
1.91383e-05
3.23142e-05
3.76856e-05
3.76109e-05
3.52837e-05
3.24385e-05
2.99631e-05
2.81509e-05
2.70151e-05
2.64809e-05
2.6378e-05
2.6516e-05
2.6702e-05
2.6726e-05
2.63534e-05
2.53491e-05
2.35661e-05
2.10426e-05
1.80615e-05
1.50745e-05
1.2428e-05
1.02395e-05
8.58166e-06
7.50646e-06
7.08779e-06
7.54334e-06
9.52051e-06
1.41198e-05
1.69112e-05
7.12827e-06
2.51234e-06
2.27085e-07
1.93394e-07
3.05386e-06
8.12326e-06
1.92638e-05
3.23952e-05
3.75714e-05
3.73375e-05
3.49157e-05
3.205e-05
2.96107e-05
2.78668e-05
2.68153e-05
2.63677e-05
2.63476e-05
2.65621e-05
2.68148e-05
2.68918e-05
2.6555e-05
2.55682e-05
2.37903e-05
2.12719e-05
1.83077e-05
1.5351e-05
1.27202e-05
1.05326e-05
8.86564e-06
7.77786e-06
7.35226e-06
7.82139e-06
9.85659e-06
1.45415e-05
1.71958e-05
7.22008e-06
2.53722e-06
2.28768e-07
1.95922e-07
3.05954e-06
8.15664e-06
1.93855e-05
3.24641e-05
3.74398e-05
3.70448e-05
3.45301e-05
3.16475e-05
2.9248e-05
2.75747e-05
2.66091e-05
2.62486e-05
2.63109e-05
2.66002e-05
2.69174e-05
2.70445e-05
2.67395e-05
2.57662e-05
2.39903e-05
2.1476e-05
1.85306e-05
1.56081e-05
1.29977e-05
1.08163e-05
9.1457e-06
8.05077e-06
7.62364e-06
8.11226e-06
1.02112e-05
1.49825e-05
1.74826e-05
7.31334e-06
2.56261e-06
2.305e-07
1.98374e-07
3.06474e-06
8.18883e-06
1.95038e-05
3.25215e-05
3.72919e-05
3.6734e-05
3.41283e-05
3.12332e-05
2.88772e-05
2.72769e-05
2.63986e-05
2.61253e-05
2.62691e-05
2.66317e-05
2.70108e-05
2.71846e-05
2.69076e-05
2.59439e-05
2.41675e-05
2.16569e-05
1.87323e-05
1.58471e-05
1.32609e-05
1.10901e-05
9.42086e-06
8.32407e-06
7.90109e-06
8.41633e-06
1.05841e-05
1.54415e-05
1.77696e-05
7.4074e-06
2.5884e-06
2.32279e-07
2.00746e-07
3.0694e-06
8.21962e-06
1.96185e-05
3.25667e-05
3.71267e-05
3.64044e-05
3.371e-05
3.0807e-05
2.84988e-05
2.69743e-05
2.61846e-05
2.59987e-05
2.62232e-05
2.66574e-05
2.7096e-05
2.73132e-05
2.70603e-05
2.6103e-05
2.43241e-05
2.18174e-05
1.89161e-05
1.60708e-05
1.35114e-05
1.13547e-05
9.69106e-06
8.5973e-06
8.18415e-06
8.73245e-06
1.09748e-05
1.59173e-05
1.80567e-05
7.50225e-06
2.61458e-06
2.3411e-07
2.03044e-07
3.07359e-06
8.24927e-06
1.97301e-05
3.26007e-05
3.69452e-05
3.60569e-05
3.32767e-05
3.03708e-05
2.81147e-05
2.66686e-05
2.59688e-05
2.58704e-05
2.61746e-05
2.66785e-05
2.71739e-05
2.7431e-05
2.71984e-05
2.62442e-05
2.44616e-05
2.19603e-05
1.90853e-05
1.62813e-05
1.37508e-05
1.1611e-05
9.95642e-06
8.86986e-06
8.47141e-06
9.05842e-06
1.13816e-05
1.64078e-05
1.83422e-05
7.5974e-06
2.64108e-06
2.3599e-07
2.05264e-07
3.07725e-06
8.27755e-06
1.98381e-05
3.26225e-05
3.67464e-05
3.56907e-05
3.2828e-05
2.99246e-05
2.7725e-05
2.63602e-05
2.57519e-05
2.57412e-05
2.61245e-05
2.66963e-05
2.72456e-05
2.7539e-05
2.7323e-05
2.63692e-05
2.45824e-05
2.2089e-05
1.92449e-05
1.64821e-05
1.3981e-05
1.18597e-05
1.0217e-05
9.14143e-06
8.76247e-06
9.39424e-06
1.18037e-05
1.69111e-05
1.86251e-05
7.69241e-06
2.66777e-06
2.37915e-07
2.07413e-07
3.08046e-06
8.30472e-06
1.99432e-05
3.26331e-05
3.65308e-05
3.53065e-05
3.23647e-05
2.94696e-05
2.73313e-05
2.60506e-05
2.55353e-05
2.56127e-05
2.60741e-05
2.6712e-05
2.73123e-05
2.76382e-05
2.74349e-05
2.64786e-05
2.46878e-05
2.22062e-05
1.93986e-05
1.66763e-05
1.42043e-05
1.21025e-05
1.04738e-05
9.41214e-06
9.05671e-06
9.73848e-06
1.2239e-05
1.74244e-05
1.89047e-05
7.7872e-06
2.69467e-06
2.3989e-07
2.09487e-07
3.08316e-06
8.33063e-06
2.0045e-05
3.26317e-05
3.62977e-05
3.49033e-05
3.18866e-05
2.90058e-05
2.69337e-05
2.57403e-05
2.53197e-05
2.54856e-05
2.60247e-05
2.67271e-05
2.73757e-05
2.77304e-05
2.75357e-05
2.65741e-05
2.47791e-05
2.23126e-05
1.95469e-05
1.68645e-05
1.44214e-05
1.234e-05
1.0727e-05
9.68208e-06
9.35412e-06
1.00913e-05
1.26878e-05
1.79459e-05
1.91793e-05
7.88105e-06
2.72159e-06
2.41901e-07
2.11494e-07
3.08543e-06
8.35554e-06
2.01443e-05
3.26188e-05
3.60471e-05
3.44816e-05
3.13944e-05
2.85342e-05
2.65334e-05
2.54303e-05
2.5106e-05
2.53611e-05
2.59773e-05
2.67426e-05
2.74369e-05
2.78168e-05
2.76267e-05
2.66567e-05
2.48569e-05
2.2408e-05
1.96881e-05
1.70463e-05
1.46329e-05
1.25729e-05
1.09772e-05
9.95123e-06
9.6541e-06
1.04515e-05
1.31485e-05
1.84742e-05
1.94482e-05
7.97338e-06
2.74843e-06
2.43938e-07
2.13433e-07
3.08723e-06
8.37933e-06
2.02406e-05
3.25938e-05
3.57782e-05
3.40407e-05
3.0888e-05
2.80551e-05
2.61306e-05
2.51212e-05
2.48951e-05
2.52398e-05
2.59327e-05
2.67597e-05
2.74973e-05
2.7899e-05
2.77097e-05
2.67282e-05
2.49226e-05
2.24925e-05
1.98207e-05
1.72206e-05
1.48379e-05
1.28009e-05
1.12246e-05
1.02203e-05
9.95745e-06
1.08197e-05
1.36213e-05
1.90089e-05
1.97112e-05
8.06437e-06
2.77515e-06
2.4601e-07
2.1531e-07
3.08863e-06
8.40223e-06
2.03346e-05
3.25569e-05
3.54911e-05
3.3581e-05
3.03682e-05
2.75694e-05
2.57265e-05
2.4814e-05
2.46875e-05
2.51221e-05
2.58913e-05
2.67788e-05
2.75576e-05
2.7978e-05
2.7786e-05
2.67902e-05
2.49777e-05
2.25674e-05
1.99449e-05
1.73868e-05
1.5036e-05
1.30236e-05
1.14686e-05
1.04883e-05
1.02633e-05
1.11952e-05
1.41051e-05
1.95478e-05
1.99666e-05
8.15333e-06
2.80176e-06
2.48108e-07
2.17124e-07
3.0896e-06
8.42415e-06
2.04258e-05
3.25073e-05
3.5185e-05
3.31023e-05
2.98355e-05
2.70777e-05
2.53215e-05
2.45101e-05
2.44842e-05
2.50083e-05
2.58532e-05
2.68002e-05
2.76185e-05
2.8055e-05
2.78573e-05
2.68449e-05
2.50248e-05
2.26349e-05
2.00617e-05
1.75458e-05
1.52276e-05
1.32414e-05
1.17099e-05
1.07565e-05
1.05727e-05
1.15789e-05
1.46e-05
2.00898e-05
2.02145e-05
8.24036e-06
2.82854e-06
2.50223e-07
2.18878e-07
3.09018e-06
8.44521e-06
2.05146e-05
3.24451e-05
3.48602e-05
3.26055e-05
2.92912e-05
2.65809e-05
2.49159e-05
2.42113e-05
2.42854e-05
2.48977e-05
2.58177e-05
2.68237e-05
2.76801e-05
2.81304e-05
2.79244e-05
2.68939e-05
2.50665e-05
2.26985e-05
2.01734e-05
1.76986e-05
1.54132e-05
1.34541e-05
1.19478e-05
1.10237e-05
1.08848e-05
1.197e-05
1.51053e-05
2.06334e-05
2.04542e-05
8.32514e-06
2.85517e-06
2.52343e-07
2.20569e-07
3.09033e-06
8.46526e-06
2.06003e-05
3.23696e-05
3.45162e-05
3.20911e-05
2.87367e-05
2.60803e-05
2.45096e-05
2.39123e-05
2.40873e-05
2.4789e-05
2.57847e-05
2.68495e-05
2.77428e-05
2.82051e-05
2.79889e-05
2.69396e-05
2.51063e-05
2.27626e-05
2.02826e-05
1.78467e-05
1.55935e-05
1.36625e-05
1.21833e-05
1.12909e-05
1.12002e-05
1.23686e-05
1.56199e-05
2.11766e-05
2.06849e-05
8.40726e-06
2.88144e-06
2.54461e-07
2.22195e-07
3.09006e-06
8.48428e-06
2.06829e-05
3.22807e-05
3.41533e-05
3.156e-05
2.81733e-05
2.55778e-05
2.41052e-05
2.36169e-05
2.38933e-05
2.46838e-05
2.57547e-05
2.68773e-05
2.78062e-05
2.82786e-05
2.8051e-05
2.69834e-05
2.51473e-05
2.28315e-05
2.03926e-05
1.79921e-05
1.57697e-05
1.3867e-05
1.24163e-05
1.15582e-05
1.15192e-05
1.27752e-05
1.61441e-05
2.17184e-05
2.09066e-05
8.48673e-06
2.90727e-06
2.56569e-07
2.2375e-07
3.08931e-06
8.50201e-06
2.07617e-05
3.21775e-05
3.37711e-05
3.10127e-05
2.7602e-05
2.50737e-05
2.37022e-05
2.33238e-05
2.37014e-05
2.45809e-05
2.57268e-05
2.69068e-05
2.78703e-05
2.83515e-05
2.81115e-05
2.70264e-05
2.51906e-05
2.29065e-05
2.05046e-05
1.81361e-05
1.59426e-05
1.40679e-05
1.26465e-05
1.18242e-05
1.18396e-05
1.31881e-05
1.66758e-05
2.22566e-05
2.11185e-05
8.56323e-06
2.93258e-06
2.5866e-07
2.25232e-07
3.08807e-06
8.5184e-06
2.08365e-05
3.20602e-05
3.33698e-05
3.04498e-05
2.7024e-05
2.45698e-05
2.33025e-05
2.30351e-05
2.3514e-05
2.44819e-05
2.5702e-05
2.69383e-05
2.79351e-05
2.84237e-05
2.81705e-05
2.70688e-05
2.52361e-05
2.2986e-05
2.06184e-05
1.8279e-05
1.61129e-05
1.4266e-05
1.28753e-05
1.20924e-05
1.21678e-05
1.3609e-05
1.72149e-05
2.27902e-05
2.13212e-05
8.637e-06
2.95739e-06
2.60733e-07
2.26638e-07
3.08631e-06