/*--------------------------------*- C++ -*----------------------------------*\
| =========                 |                                                 |
| \\      /  F ield         | OpenFOAM: The Open Source CFD Toolbox           |
|  \\    /   O peration     | Version:  v1906                                 |
|   \\  /    A nd           | Web:      www.OpenFOAM.com                      |
|    \\/     M anipulation  |                                                 |
\*---------------------------------------------------------------------------*/
FoamFile
{
    version     2.0;
    format      ascii;
    class       volScalarField;
    location    "60";
    object      nut;
}
// * * * * * * * * * * * * * * * * * * * * * * * * * * * * * * * * * * * * * //

dimensions      [0 2 -1 0 0 0 0];


internalField   nonuniform List<scalar> 
78750
(
1.03451e-09
1.95371e-07
3.69508e-07
5.44724e-07
7.16758e-07
8.8281e-07
1.0408e-06
1.18921e-06
1.32683e-06
1.45269e-06
1.56598e-06
1.66599e-06
1.75213e-06
1.82387e-06
1.88075e-06
1.92233e-06
1.94822e-06
1.95807e-06
1.9516e-06
1.92884e-06
1.88883e-06
1.83153e-06
1.7574e-06
1.6671e-06
1.562e-06
1.44428e-06
1.31681e-06
1.18285e-06
1.04514e-06
9.04873e-07
7.6114e-07
6.1149e-07
4.53201e-07
2.8562e-07
4.6714e-09
2.77727e-09
1.92111e-06
4.36691e-06
6.65111e-06
8.26355e-06
9.66912e-06
1.08813e-05
1.19163e-05
1.2789e-05
1.3512e-05
1.40968e-05
1.45535e-05
1.48908e-05
1.51166e-05
1.52376e-05
1.52596e-05
1.51874e-05
1.5025e-05
1.47755e-05
1.44411e-05
1.40207e-05
1.35143e-05
1.29212e-05
1.22406e-05
1.14724e-05
1.06195e-05
9.68863e-06
8.69205e-06
7.64934e-06
6.13609e-06
4.19328e-06
2.67253e-06
2.04335e-06
1.34962e-06
1.61623e-08
4.78397e-09
1.92442e-06
4.55575e-06
7.84084e-06
1.11515e-05
1.3817e-05
1.52247e-05
1.63628e-05
1.72627e-05
1.79506e-05
1.8449e-05
1.8777e-05
1.89515e-05
1.89872e-05
1.88974e-05
1.86938e-05
1.8387e-05
1.79874e-05
1.75045e-05
1.69476e-05
1.63246e-05
1.56397e-05
1.48928e-05
1.4078e-05
1.31859e-05
1.22079e-05
1.11406e-05
9.99392e-06
8.46965e-06
6.28196e-06
4.209e-06
2.98956e-06
3.06395e-06
1.28998e-06
2.6228e-08
7.23129e-09
1.92946e-06
4.60825e-06
8.39788e-06
1.28557e-05
1.68678e-05
1.88763e-05
2.00222e-05
2.08893e-05
2.15123e-05
2.19194e-05
2.21347e-05
2.21783e-05
2.20683e-05
2.18214e-05
2.08319e-05
1.96572e-05
1.84003e-05
1.71099e-05
1.58363e-05
1.46383e-05
1.35776e-05
1.2705e-05
1.20434e-05
1.15633e-05
1.1146e-05
1.05575e-05
9.50447e-06
7.8296e-06
5.77095e-06
4.01075e-06
3.20588e-06
3.91882e-06
1.22576e-06
3.47771e-08
9.78157e-09
1.87788e-06
4.52023e-06
8.53642e-06
1.36728e-05
1.84721e-05
2.13825e-05
2.24813e-05
2.32801e-05
2.38184e-05
2.41286e-05
2.4238e-05
2.36645e-05
2.24479e-05
2.10728e-05
1.96375e-05
1.81868e-05
1.67533e-05
1.53623e-05
1.40394e-05
1.28215e-05
1.17602e-05
1.09074e-05
1.02941e-05
9.908e-06
9.65114e-06
9.29228e-06
8.50454e-06
7.10998e-06
5.38827e-06
3.99805e-06
3.56822e-06
4.48549e-06
1.19661e-06
4.24148e-08
1.26691e-08
1.87032e-06
4.55013e-06
8.84929e-06
1.46839e-05
2.02713e-05
2.3731e-05
2.47966e-05
2.55447e-05
2.60179e-05
2.62509e-05
2.55639e-05
2.40671e-05
2.239e-05
2.06788e-05
1.90122e-05
1.74314e-05
1.59487e-05
1.45602e-05
1.32628e-05
1.20692e-05
1.10165e-05
1.01505e-05
9.50132e-06
9.06229e-06
8.75532e-06
8.38563e-06
7.66959e-06
6.46113e-06
5.03401e-06
3.9709e-06
3.88939e-06
4.81413e-06
1.21491e-06
4.91706e-08
1.55872e-08
1.8841e-06
4.62869e-06
9.21176e-06
1.56872e-05
2.19327e-05
2.56704e-05
2.67037e-05
2.74072e-05
2.78251e-05
2.73435e-05
2.56368e-05
2.3648e-05
2.16156e-05
1.96743e-05
1.78941e-05
1.62909e-05
1.48481e-05
1.35366e-05
1.23327e-05
1.12338e-05
1.02664e-05
9.46525e-06
8.84596e-06
8.39563e-06
8.04621e-06
7.64046e-06
6.96389e-06
5.93063e-06
4.78911e-06
4.03408e-06
4.29949e-06
4.95194e-06
1.24054e-06
5.53393e-08
1.84954e-08
1.89896e-06
4.68325e-06
9.44788e-06
1.63658e-05
2.30796e-05
2.7407e-05
2.85287e-05
2.9205e-05
2.91276e-05
2.74992e-05
2.53723e-05
2.3085e-05
2.08605e-05
1.88302e-05
1.70411e-05
1.54838e-05
1.41203e-05
1.29051e-05
1.18008e-05
1.07922e-05
9.89565e-06
9.13448e-06
8.50949e-06
8.00002e-06
7.54841e-06
7.0401e-06
6.33935e-06
5.42599e-06
4.52042e-06
4.03539e-06
4.6234e-06
5.06461e-06
1.27932e-06
6.10802e-08
2.12951e-08
1.92176e-06
4.7488e-06
9.6724e-06
1.69591e-05
2.40265e-05
2.84295e-05
3.01346e-05
3.05033e-05
2.93192e-05
2.72827e-05
2.48322e-05
2.23167e-05
1.99693e-05
1.7899e-05
1.61226e-05
1.46093e-05
1.33105e-05
1.21754e-05
1.11638e-05
1.02604e-05
9.47735e-06
8.81932e-06
8.25908e-06
7.7548e-06
7.24745e-06
6.65711e-06
5.92071e-06
5.08207e-06
4.35029e-06
4.08732e-06
4.97323e-06
5.09754e-06
1.31607e-06
6.66956e-08
2.40862e-08
1.93923e-06
4.78423e-06
9.79175e-06
1.73065e-05
2.46067e-05
2.90426e-05
3.08554e-05
3.07589e-05
2.93073e-05
2.7022e-05
2.4379e-05
2.17486e-05
1.93543e-05
1.72819e-05
1.55279e-05
1.40489e-05
1.27906e-05
1.17006e-05
1.07397e-05
9.89366e-06
9.17462e-06
8.57767e-06
8.05648e-06
7.55113e-06
6.99833e-06
6.3439e-06
5.58027e-06
4.79724e-06
4.19649e-06
4.11074e-06
5.25189e-06
5.13854e-06
1.35442e-06
7.22886e-08
2.67666e-08
1.95653e-06
4.81947e-06
9.90294e-06
1.76112e-05
2.50913e-05
2.95273e-05
3.11952e-05
3.08719e-05
2.91682e-05
2.66625e-05
2.3869e-05
2.11627e-05
1.87476e-05
1.66846e-05
1.49525e-05
1.34994e-05
1.22688e-05
1.12106e-05
1.02903e-05
9.49911e-06
8.85283e-06
8.33392e-06
7.87574e-06
7.39861e-06
6.83117e-06
6.13844e-06
5.35765e-06
4.61553e-06
4.11326e-06
4.17355e-06
5.5431e-06
5.1345e-06
1.38802e-06
7.78933e-08
2.96094e-08
1.97304e-06
4.84867e-06
9.99021e-06
1.7844e-05
2.54395e-05
2.98442e-05
3.13814e-05
3.08834e-05
2.9008e-05
2.63718e-05
2.35041e-05
2.07722e-05
1.83603e-05
1.63111e-05
1.45928e-05
1.31493e-05
1.19245e-05
1.08709e-05
9.95792e-06
9.18207e-06
8.5645e-06
8.08437e-06
7.66402e-06
7.21043e-06
6.64459e-06
5.94168e-06
5.16644e-06
4.46782e-06
4.04771e-06
4.23006e-06
5.79758e-06
5.13035e-06
1.41946e-06
8.34766e-08
3.23414e-08
1.98694e-06
4.87425e-06
1.00698e-05
1.80526e-05
2.57393e-05
3.00994e-05
3.15032e-05
3.08352e-05
2.88009e-05
2.60528e-05
2.31313e-05
2.03908e-05
1.79931e-05
1.5963e-05
1.42597e-05
1.28247e-05
1.1603e-05
1.05504e-05
9.6414e-06
8.8784e-06
8.28843e-06
7.84527e-06
7.46185e-06
7.03518e-06
6.48122e-06
5.78346e-06
5.02588e-06
4.37147e-06
4.02378e-06
4.31635e-06
6.06514e-06
5.10064e-06
1.44669e-06
8.89911e-08
3.5335e-08
2.00307e-06
4.90673e-06
1.01661e-05
1.82756e-05
2.60146e-05
3.02974e-05
3.15685e-05
3.07612e-05
2.86178e-05
2.58102e-05
2.28753e-05
2.0149e-05
1.77732e-05
1.57601e-05
1.40637e-05
1.26252e-05
1.1392e-05
1.03232e-05
9.39778e-06
8.62296e-06
8.03217e-06
7.60004e-06
7.23509e-06
6.82887e-06
6.29425e-06
5.61849e-06
4.89439e-06
4.2903e-06
4.01112e-06
4.40471e-06
6.31725e-06
5.07154e-06
1.47175e-06
9.44112e-08
3.82154e-08
2.01666e-06
4.93553e-06
1.02544e-05
1.84777e-05
2.62577e-05
3.04634e-05
3.16062e-05
3.06666e-05
2.84235e-05
2.55675e-05
2.26301e-05
1.99267e-05
1.75789e-05
1.55866e-05
1.38994e-05
1.24588e-05
1.12142e-05
1.01283e-05
9.18443e-06
8.39498e-06
7.79948e-06
7.37261e-06
7.01979e-06
6.63002e-06
6.11607e-06
5.46893e-06
4.78569e-06
4.23501e-06
4.0229e-06
4.51502e-06
6.57997e-06
5.03081e-06
1.49394e-06
9.96956e-08
4.13681e-08
2.03318e-06
4.97391e-06
1.03684e-05
1.8717e-05
2.65116e-05
3.06121e-05
3.16244e-05
3.05729e-05
2.82633e-05
2.53919e-05
2.2475e-05
1.98059e-05
1.74887e-05
1.55146e-05
1.3831e-05
1.23803e-05
1.11148e-05
1.00005e-05
9.02509e-06
8.2052e-06
7.58628e-06
7.14783e-06
6.79472e-06
6.4158e-06
5.92483e-06
5.31421e-06
4.67989e-06
4.18667e-06
4.04142e-06
4.62943e-06
6.83471e-06
4.99447e-06
1.51477e-06
1.04846e-07
4.4417e-08
2.04792e-06
5.00984e-06
1.0476e-05
1.89384e-05
2.67411e-05
3.07426e-05
3.16329e-05
3.0478e-05
2.81098e-05
2.52296e-05
2.23387e-05
1.97082e-05
1.74254e-05
1.54731e-05
1.37962e-05
1.23379e-05
1.10525e-05
9.90937e-06
8.90018e-06
8.0462e-06
7.39865e-06
6.94232e-06
6.58263e-06
6.21002e-06
5.74097e-06
5.16911e-06
4.58693e-06
4.15305e-06
4.07529e-06
4.76009e-06
7.09492e-06
4.95478e-06
1.5338e-06
1.09831e-07
4.77065e-08
2.06524e-06
5.05406e-06
1.06063e-05
1.91945e-05
2.69867e-05
3.08704e-05
3.16395e-05
3.03976e-05
2.79941e-05
2.51256e-05
2.22732e-05
1.96865e-05
1.74386e-05
1.55061e-05
1.38326e-05
1.23619e-05
1.10506e-05
9.87158e-06
8.81996e-06
7.92096e-06
7.23114e-06
6.74488e-06
6.36976e-06
5.99904e-06
5.55214e-06
5.02222e-06
4.49554e-06
4.12289e-06
4.11316e-06
4.89455e-06
7.34792e-06
4.92126e-06
1.55202e-06
1.14657e-07
5.09107e-08
2.08141e-06
5.09717e-06
1.07334e-05
1.94385e-05
2.72159e-05
3.09892e-05
3.16464e-05
3.03256e-05
2.78923e-05
2.50388e-05
2.22268e-05
1.96859e-05
1.74758e-05
1.5567e-05
1.3901e-05
1.24214e-05
1.10863e-05
9.87139e-06
8.77533e-06
7.82736e-06
7.08951e-06
6.56701e-06
6.1707e-06
5.79774e-06
5.37114e-06
4.88321e-06
4.41275e-06
4.10196e-06
4.16124e-06
5.04117e-06
7.6012e-06
4.88866e-06
1.56914e-06
1.19297e-07
5.4314e-08
2.09958e-06
5.14669e-06
1.08783e-05
1.971e-05
2.74599e-05
3.11128e-05
3.16621e-05
3.02759e-05
2.78285e-05
2.50014e-05
2.22355e-05
1.97417e-05
1.75691e-05
1.5683e-05
1.40232e-05
1.25329e-05
1.11715e-05
9.91662e-06
8.77061e-06
7.76594e-06
6.96971e-06
6.40162e-06
5.97717e-06
5.59796e-06
5.19041e-06
4.74478e-06
4.33109e-06
4.08248e-06
4.21115e-06
5.19006e-06
7.84528e-06
4.8621e-06
1.58572e-06
1.23759e-07
5.76506e-08
2.117e-06
5.19601e-06
1.10231e-05
1.9976e-05
2.76955e-05
3.12351e-05
3.16849e-05
3.02392e-05
2.77804e-05
2.49801e-05
2.22601e-05
1.98146e-05
1.76822e-05
1.58233e-05
1.41748e-05
1.26787e-05
1.12942e-05
1.00002e-05
8.80236e-06
7.73718e-06
6.87698e-06
6.25722e-06
5.79924e-06
5.40968e-06
5.01854e-06
4.61361e-06
4.25572e-06
4.06897e-06
4.2679e-06
5.34782e-06
8.08546e-06
4.83852e-06
1.60162e-06
1.28018e-07
6.11457e-08
2.13581e-06
5.25011e-06
1.1182e-05
2.02646e-05
2.79459e-05
3.13681e-05
3.17235e-05
3.02282e-05
2.77667e-05
2.4998e-05
2.23252e-05
1.99277e-05
1.78353e-05
1.60038e-05
1.43674e-05
1.28666e-05
1.14594e-05
1.01251e-05
8.87218e-06
7.74128e-06
6.80949e-06
6.13042e-06
5.63288e-06
5.22877e-06
4.8513e-06
4.48516e-06
4.18154e-06
4.05563e-06
4.32454e-06
5.50548e-06
8.31365e-06
4.82001e-06
1.61707e-06
1.32082e-07
6.45858e-08
2.15392e-06
5.30414e-06
1.13427e-05
2.05538e-05
2.81964e-05
3.15074e-05
3.17744e-05
3.02319e-05
2.7767e-05
2.50278e-05
2.24013e-05
2.00529e-05
1.80038e-05
1.62048e-05
1.45866e-05
1.30868e-05
1.16612e-05
1.02886e-05
8.97974e-06
7.77981e-06
6.77177e-06
6.02753e-06
5.48519e-06
5.06216e-06
4.69473e-06
4.3643e-06
4.11253e-06
4.04616e-06
4.38538e-06
5.66903e-06
8.53543e-06
4.80555e-06
1.63214e-06
1.35939e-07
6.81478e-08
2.17278e-06
5.36132e-06
1.15148e-05
2.08637e-05
2.84653e-05
3.16651e-05
3.18467e-05
3.02603e-05
2.77939e-05
2.50846e-05
2.25038e-05
2.02042e-05
1.81989e-05
1.64339e-05
1.48365e-05
1.33409e-05
1.18999e-05
1.04906e-05
9.12536e-06
7.85344e-06
6.76428e-06
5.94807e-06
5.355e-06
4.90819e-06
4.54664e-06
4.24824e-06
4.04534e-06
4.03651e-06
4.44514e-06
5.83064e-06
8.74351e-06
4.7951e-06
1.64682e-06
1.39594e-07
7.16611e-08
2.19078e-06
5.41779e-06
1.16883e-05
2.11785e-05
2.87458e-05
3.18399e-05
3.1937e-05
3.03012e-05
2.78283e-05
2.51466e-05
2.26115e-05
2.03628e-05
1.84051e-05
1.66793e-05
1.51088e-05
1.36237e-05
1.21726e-05
1.07302e-05
9.30936e-06
7.9639e-06
6.79059e-06
5.89674e-06
5.24753e-06
4.77195e-06
4.41151e-06
4.14063e-06
3.98281e-06
4.02902e-06
4.50616e-06
5.99407e-06
8.94403e-06
4.78823e-06
1.66115e-06
1.43044e-07
7.52621e-08
2.20906e-06
5.47566e-06
1.18675e-05
2.14999e-05
2.90152e-05
3.20016e-05
3.20239e-05
3.03492e-05
2.7875e-05
2.52229e-05
2.27344e-05
2.05368e-05
1.86276e-05
1.69431e-05
1.5403e-05
1.3933e-05
1.24769e-05
1.10053e-05
9.53089e-06
8.11138e-06
6.85128e-06
5.87388e-06
5.16283e-06
4.6531e-06
4.28848e-06
4.04006e-06
3.92311e-06
4.02163e-06
4.56646e-06
6.15783e-06
9.1394e-06
4.78605e-06
1.67511e-06
1.46298e-07
7.88169e-08
2.22664e-06
5.53268e-06
1.20449e-05
2.18129e-05
2.92723e-05
3.21544e-05
3.21053e-05
3.0401e-05
2.79252e-05
2.53011e-05
2.28589e-05
2.07142e-05
1.88568e-05
1.72183e-05
1.57142e-05
1.42655e-05
1.28103e-05
1.13145e-05
9.78916e-06
8.29579e-06
6.94729e-06
5.88174e-06
5.10395e-06
4.55504e-06
4.18085e-06
3.94945e-06
3.86863e-06
4.01607e-06
4.62673e-06
6.32125e-06
9.32899e-06
4.79129e-06
1.68949e-06
1.49367e-07
8.24331e-08
2.24442e-06
5.59113e-06
1.22266e-05
2.21247e-05
2.952e-05
3.22967e-05
3.21779e-05
3.0447e-05
2.79761e-05
2.53837e-05
2.29893e-05
2.08981e-05
1.90937e-05
1.75037e-05
1.60396e-05
1.46174e-05
1.31692e-05
1.16548e-05
1.00825e-05
8.51657e-06
7.07841e-06
5.92024e-06
5.07096e-06
4.47773e-06
4.0883e-06
3.86806e-06
3.81822e-06
4.01112e-06
4.68707e-06
6.48843e-06
9.51452e-06
4.80318e-06
1.70434e-06
1.52261e-07
8.60027e-08
2.26145e-06
5.64938e-06
1.24113e-05
2.24265e-05
2.97535e-05
3.24269e-05
3.22407e-05
3.04859e-05
2.80296e-05
2.54674e-05
2.31182e-05
2.10812e-05
1.93326e-05
1.77949e-05
1.63758e-05
1.4986e-05
1.3551e-05
1.20239e-05
1.04088e-05
8.77213e-06
7.24372e-06
5.98992e-06
5.06538e-06
4.42329e-06
4.01325e-06
3.79842e-06
3.77449e-06
4.00947e-06
4.74992e-06
6.6598e-06
9.6977e-06
4.82022e-06
1.71956e-06
1.54985e-07
8.95985e-08
2.27792e-06
5.70607e-06
1.25933e-05
2.27217e-05
2.99749e-05
3.25445e-05
3.22923e-05
3.05148e-05
2.80729e-05
2.55433e-05
2.32428e-05
2.12627e-05
1.95722e-05
1.80897e-05
1.67192e-05
1.53669e-05
1.39514e-05
1.2418e-05
1.07657e-05
9.06119e-06
7.44275e-06
6.09087e-06
5.08743e-06
4.39189e-06
3.95571e-06
3.7403e-06
3.73677e-06
4.00983e-06
4.81281e-06
6.83085e-06
9.87695e-06
4.84176e-06
1.73505e-06
1.57547e-07
9.31469e-08
2.29389e-06
5.76203e-06
1.27733e-05
2.3008e-05
3.01833e-05
3.26504e-05
3.23334e-05
3.05343e-05
2.81084e-05
2.56135e-05
2.3363e-05
2.14407e-05
1.98099e-05
1.83853e-05
1.70674e-05
1.57575e-05
1.43674e-05
1.2834e-05
1.11497e-05
9.38087e-06
7.67348e-06
6.22256e-06
5.13768e-06
4.38488e-06
3.91756e-06
3.6959e-06
3.70745e-06
4.0146e-06
4.87793e-06
7.00333e-06
1.00532e-05
4.86684e-06
1.7507e-06
1.59951e-07
9.6703e-08
2.30947e-06
5.81711e-06
1.29516e-05
2.32871e-05
3.03793e-05
3.27435e-05
3.23621e-05
3.05419e-05
2.81331e-05
2.56757e-05
2.34761e-05
2.16122e-05
2.00424e-05
1.86781e-05
1.74163e-05
1.61535e-05
1.47946e-05
1.32677e-05
1.15577e-05
9.72902e-06
7.93466e-06
6.38429e-06
5.21562e-06
4.40199e-06
3.89867e-06
3.66509e-06
3.68615e-06
4.02281e-06
4.94341e-06
7.17438e-06
1.02258e-05
4.89507e-06
1.76643e-06
1.62209e-07
1.00209e-07
2.3246e-06
5.87132e-06
1.31273e-05
2.35566e-05
3.05617e-05
3.28234e-05
3.23776e-05
3.05357e-05
2.81443e-05
2.57304e-05
2.35813e-05
2.17753e-05
2.0268e-05
1.89666e-05
1.77642e-05
1.65528e-05
1.52302e-05
1.37157e-05
1.19857e-05
1.0102e-05
8.22353e-06
6.57476e-06
5.32105e-06
4.44373e-06
3.90017e-06
3.64951e-06
3.67491e-06
4.03682e-06
5.01181e-06
7.34619e-06
1.03959e-05
4.92581e-06
1.78216e-06
1.64323e-07
1.0371e-07
2.33956e-06
5.92513e-06
1.33014e-05
2.38182e-05
3.07315e-05
3.28898e-05
3.23792e-05
3.05152e-05
2.81401e-05
2.57682e-05
2.36709e-05
2.19254e-05
2.04834e-05
1.92477e-05
1.8108e-05
1.69517e-05
1.56703e-05
1.41739e-05
1.24302e-05
1.04968e-05
8.53806e-06
6.79271e-06
5.45314e-06
4.5096e-06
3.92183e-06
3.64914e-06
3.67359e-06
4.05581e-06
5.08112e-06
7.51669e-06
1.05634e-05
4.95896e-06
1.79789e-06
1.66307e-07
1.07158e-07
2.35427e-06
5.97833e-06
1.34723e-05
2.40691e-05
3.0887e-05
3.2942e-05
3.23661e-05
3.04793e-05
2.81206e-05
2.57915e-05
2.37477e-05
2.20643e-05
2.06892e-05
1.95212e-05
1.84465e-05
1.73484e-05
1.61121e-05
1.46387e-05
1.28869e-05
1.09093e-05
8.87471e-06
7.03592e-06
5.61079e-06
4.59931e-06
3.96401e-06
3.6649e-06
3.68371e-06
4.08246e-06
5.15631e-06
7.68818e-06
1.07293e-05
4.99398e-06
1.81353e-06
1.68167e-07
1.10576e-07
2.36903e-06
6.03171e-06
1.36408e-05
2.43111e-05
3.10301e-05
3.29803e-05
3.23375e-05
3.04273e-05
2.80855e-05
2.57997e-05
2.38099e-05
2.21898e-05
2.08833e-05
1.9785e-05
1.87776e-05
1.77406e-05
1.65529e-05
1.5107e-05
1.33523e-05
1.13361e-05
9.23071e-06
7.30229e-06
5.79245e-06
4.71183e-06
4.02622e-06
3.69678e-06
3.70566e-06
4.11706e-06
5.23639e-06
7.86094e-06
1.0895e-05
5.03123e-06
1.82916e-06
1.69915e-07
1.1392e-07
2.38345e-06
6.085e-06
1.38037e-05
2.4543e-05
3.11601e-05
3.3004e-05
3.22938e-05
3.03591e-05
2.80307e-05
2.57865e-05
2.38534e-05
2.23002e-05
2.10648e-05
2.00378e-05
1.90997e-05
1.8126e-05
1.69899e-05
1.55752e-05
1.38222e-05
1.17725e-05
9.60176e-06
7.58851e-06
5.99601e-06
4.84605e-06
4.10817e-06
3.74518e-06
3.74031e-06
4.16068e-06
5.32224e-06
8.03625e-06
1.10612e-05
5.07038e-06
1.84473e-06
1.71559e-07
1.17233e-07
2.39707e-06
6.13695e-06
1.39664e-05
2.47693e-05
3.12791e-05
3.30157e-05
3.22369e-05
3.02773e-05
2.79642e-05
2.57626e-05
2.38839e-05
2.23942e-05
2.12301e-05
2.0277e-05
1.94103e-05
1.85023e-05
1.74204e-05
1.60404e-05
1.42934e-05
1.22155e-05
9.98471e-06
7.89163e-06
6.21908e-06
5.00026e-06
4.20887e-06
3.80975e-06
3.78777e-06
4.21354e-06
5.41395e-06
8.2141e-06
1.12286e-05
5.11174e-06
1.86034e-06
1.73111e-07
1.20475e-07
2.41014e-06
6.18727e-06
1.41242e-05
2.49836e-05
3.13835e-05
3.3012e-05
3.21634e-05
3.01771e-05
2.78775e-05
2.57183e-05
2.38971e-05
2.24748e-05
2.13817e-05
2.05018e-05
1.97084e-05
1.88681e-05
1.78426e-05
1.65001e-05
1.4763e-05
1.26615e-05
1.03761e-05
8.20859e-06
6.4594e-06
5.17296e-06
4.32748e-06
3.89029e-06
3.84838e-06
4.2764e-06
5.51264e-06
8.39591e-06
1.13978e-05
5.15519e-06
1.876e-06
1.74583e-07
1.23671e-07
2.42281e-06
6.23676e-06
1.42808e-05
2.51912e-05
3.14764e-05
3.2995e-05
3.20756e-05
3.00626e-05
2.77769e-05
2.566e-05
2.38961e-05
2.2541e-05
2.15204e-05
2.07137e-05
1.99923e-05
1.92208e-05
1.82541e-05
1.69516e-05
1.52277e-05
1.31073e-05
1.07726e-05
8.5363e-06
6.71454e-06
5.36235e-06
4.46282e-06
3.98618e-06
3.92198e-06
4.34943e-06
5.61862e-06
8.582e-06
1.15695e-05
5.20093e-06
1.89178e-06
1.75989e-07
1.26787e-07
2.43468e-06
6.28409e-06
1.44319e-05
2.53867e-05
3.15547e-05
3.29627e-05
3.19709e-05
2.99298e-05
2.76571e-05
2.55827e-05
2.38772e-05
2.25907e-05
2.16438e-05
2.09123e-05
2.02638e-05
1.956e-05
1.86528e-05
1.73927e-05
1.56851e-05
1.35498e-05
1.11713e-05
8.87193e-06
6.98225e-06
5.56678e-06
4.61381e-06
4.09693e-06
4.00866e-06
4.43323e-06
5.733e-06
8.77379e-06
1.17446e-05
5.249e-06
1.90773e-06
1.77339e-07
1.29852e-07
2.44622e-06
6.33066e-06
1.45812e-05
2.55745e-05
3.16213e-05
3.29169e-05
3.18517e-05
2.97821e-05
2.75226e-05
2.54908e-05
2.38441e-05
2.26263e-05
2.1753e-05
2.10964e-05
2.05215e-05
1.9886e-05
1.90368e-05
1.78199e-05
1.61315e-05
1.39856e-05
1.15687e-05
9.21256e-06
7.26021e-06
5.78448e-06
4.77919e-06
4.22177e-06
4.10812e-06
4.52793e-06
5.8562e-06
8.97186e-06
1.19237e-05
5.29947e-06
1.92388e-06
1.78646e-07
1.32835e-07
2.45702e-06
6.37513e-06
1.47252e-05
2.57504e-05
3.16734e-05
3.28556e-05
3.17157e-05
2.96169e-05
2.73703e-05
2.53813e-05
2.37943e-05
2.26459e-05
2.18466e-05
2.12654e-05
2.07643e-05
2.01977e-05
1.94073e-05
1.82328e-05
1.65648e-05
1.44119e-05
1.1962e-05
9.55545e-06
7.54619e-06
6.0137e-06
4.95773e-06
4.36001e-06
4.22025e-06
4.634e-06
5.98931e-06
9.1777e-06
1.21075e-05
5.35243e-06
1.9403e-06
1.7992e-07
1.35754e-07
2.46742e-06
6.41857e-06
1.48667e-05
2.59181e-05
3.17137e-05
3.27805e-05
3.15646e-05
2.94363e-05
2.7203e-05
2.52573e-05
2.37304e-05
2.26515e-05
2.19259e-05
2.14193e-05
2.09912e-05
2.0493e-05
1.97613e-05
1.86295e-05
1.69825e-05
1.48258e-05
1.23484e-05
9.89813e-06
7.83807e-06
6.25276e-06
5.14813e-06
4.51076e-06
4.3446e-06
4.75149e-06
6.13292e-06
9.39231e-06
1.22967e-05
5.40798e-06
1.95704e-06
1.81172e-07
1.38585e-07
2.47708e-06
6.45986e-06
1.50028e-05
2.6074e-05
3.17395e-05
3.26899e-05
3.13972e-05
2.92391e-05
2.70195e-05
2.51176e-05
2.36518e-05
2.26427e-05
2.19906e-05
2.15581e-05
2.12023e-05
2.07714e-05
2.00976e-05
1.90083e-05
1.73829e-05
1.52252e-05
1.27256e-05
1.02385e-05
8.1339e-06
6.50004e-06
5.34922e-06
4.6733e-06
4.48091e-06
4.88061e-06
6.28777e-06
9.61675e-06
1.24914e-05
5.46608e-06
1.97412e-06
1.82412e-07
1.41347e-07
2.48633e-06
6.50008e-06
1.51361e-05
2.62214e-05
3.17534e-05
3.25855e-05
3.12146e-05
2.90269e-05
2.68217e-05
2.49644e-05
2.35601e-05
2.2621e-05
2.20418e-05
2.16824e-05
2.13974e-05
2.1032e-05
2.04144e-05
1.93667e-05
1.77636e-05
1.56071e-05
1.30919e-05
1.05753e-05
8.4323e-06
6.75413e-06
5.55973e-06
4.8467e-06
4.62872e-06
5.02152e-06
6.45472e-06
9.85246e-06
1.26925e-05
5.527e-06
1.99165e-06
1.83652e-07
1.4402e-07
2.49488e-06
6.53827e-06
1.52644e-05
2.63574e-05
3.17532e-05
3.24655e-05
3.10159e-05
2.87991e-05
2.66093e-05
2.47976e-05
2.34559e-05
2.25869e-05
2.20803e-05
2.17928e-05
2.1577e-05
2.12752e-05
2.07115e-05
1.97035e-05
1.81224e-05
1.59694e-05
1.34421e-05
1.09051e-05
8.73138e-06
7.01388e-06
5.77884e-06
5.0303e-06
4.78759e-06
5.17406e-06
6.63405e-06
1.01e-05
1.28994e-05
5.5905e-06
2.0096e-06
1.849e-07
1.46622e-07
2.50302e-06
6.57536e-06
1.53899e-05
2.64848e-05
3.17408e-05
3.23314e-05
3.08022e-05
2.85568e-05
2.63837e-05
2.46187e-05
2.33404e-05
2.25419e-05
2.21072e-05
2.18905e-05
2.17421e-05
2.15013e-05
2.09888e-05
2.0018e-05
1.84578e-05
1.63105e-05
1.37774e-05
1.12273e-05
9.02918e-06
7.2775e-06
6.00533e-06
5.22343e-06
4.95731e-06
5.33859e-06
6.82676e-06
1.03608e-05
1.3113e-05
5.65684e-06
2.02808e-06
1.86168e-07
1.49142e-07
2.51054e-06
6.61068e-06
1.55109e-05
2.66014e-05
3.17144e-05
3.21816e-05
3.05725e-05
2.82995e-05
2.61448e-05
2.44279e-05
2.32143e-05
2.24865e-05
2.21233e-05
2.19762e-05
2.18932e-05
2.17107e-05
2.12458e-05
2.03089e-05
1.87679e-05
1.66276e-05
1.40943e-05
1.15397e-05
9.32449e-06
7.54393e-06
6.23825e-06
5.42531e-06
5.13733e-06
5.51485e-06
7.03314e-06
1.06356e-05
1.33326e-05
5.72572e-06
2.04707e-06
1.8746e-07
1.51592e-07
2.51764e-06
6.64491e-06
1.56292e-05
2.67093e-05
3.16755e-05
3.20174e-05
3.03278e-05
2.80285e-05
2.58939e-05
2.42267e-05
2.30788e-05
2.2422e-05
2.213e-05
2.20514e-05
2.20317e-05
2.19048e-05
2.14841e-05
2.05774e-05
1.90529e-05
1.692e-05
1.43908e-05
1.18393e-05
9.61341e-06
7.81034e-06
6.47601e-06
5.63522e-06
5.3275e-06
5.70314e-06
7.25395e-06
1.09253e-05
1.3558e-05
5.79699e-06
2.06656e-06
1.88782e-07
1.53965e-07
2.5242e-06
6.67764e-06
1.57436e-05
2.6807e-05
3.16226e-05
3.18372e-05
3.00671e-05
2.77433e-05
2.5631e-05
2.40152e-05
2.29343e-05
2.23491e-05
2.21278e-05
2.21165e-05
2.21584e-05
2.20842e-05
2.1704e-05
2.08235e-05
1.93126e-05
1.71867e-05
1.46652e-05
1.21241e-05
9.89455e-06
8.07502e-06
6.71698e-06
5.85207e-06
5.52744e-06
5.90389e-06
7.49036e-06
1.12316e-05
1.37893e-05
5.87056e-06
2.08658e-06
1.90135e-07
1.56272e-07
2.53035e-06
6.70932e-06
1.58553e-05
2.68957e-05
3.15569e-05
3.16422e-05
2.97916e-05
2.74452e-05
2.53577e-05
2.3795e-05
2.27822e-05
2.22688e-05
2.21179e-05
2.21728e-05
2.22744e-05
2.22502e-05
2.19068e-05
2.10485e-05
1.95479e-05
1.74281e-05
1.4917e-05
1.2392e-05
1.01653e-05
8.3354e-06
6.95906e-06
6.07425e-06
5.73584e-06
6.11591e-06
7.74198e-06
1.15541e-05
1.40248e-05
5.94591e-06
2.10706e-06
1.91521e-07
1.58508e-07
2.53602e-06
6.73969e-06
1.59636e-05
2.69743e-05
3.1477e-05
3.14311e-05
2.95006e-05
2.71341e-05
2.50738e-05
2.35662e-05
2.26228e-05
2.21818e-05
2.21008e-05
2.22209e-05
2.23804e-05
2.24034e-05
2.20934e-05
2.12534e-05
1.97599e-05
1.76453e-05
1.51465e-05
1.26426e-05
1.04242e-05
8.58993e-06
7.20088e-06
6.30102e-06
5.95286e-06
6.34037e-06
8.01032e-06
1.18942e-05
1.42646e-05
6.0231e-06
2.12803e-06
1.92943e-07
1.60679e-07
2.54128e-06
6.76903e-06
1.60692e-05
2.70436e-05
3.13837e-05
3.12049e-05
2.91953e-05
2.68114e-05
2.47812e-05
2.33305e-05
2.24577e-05
2.20891e-05
2.20776e-05
2.22617e-05
2.24772e-05
2.25448e-05
2.22648e-05
2.14394e-05
1.99501e-05
1.78395e-05
1.53547e-05
1.2876e-05
1.06706e-05
8.83699e-06
7.44022e-06
6.52981e-06
6.17595e-06
6.57515e-06
8.29446e-06
1.22515e-05
1.4507e-05
6.10161e-06
2.14943e-06
1.94403e-07
1.62781e-07
2.54608e-06
6.79716e-06
1.61716e-05
2.71028e-05
3.12759e-05
3.09627e-05
2.88752e-05
2.6477e-05
2.448e-05
2.30883e-05
2.22872e-05
2.19916e-05
2.20491e-05
2.2296e-05
2.25655e-05
2.26751e-05
2.24218e-05
2.16076e-05
2.012e-05
1.80126e-05
1.55434e-05
1.30932e-05
1.09047e-05
9.07617e-06
7.67634e-06
6.75995e-06
6.40492e-06
6.82079e-06
8.59427e-06
1.2625e-05
1.47512e-05
6.18137e-06
2.17127e-06
1.95904e-07
1.6482e-07
2.55049e-06
6.82429e-06
1.62712e-05
2.71524e-05
3.11545e-05
3.07052e-05
2.85416e-05
2.61327e-05
2.41719e-05
2.28412e-05
2.21131e-05
2.18905e-05
2.20163e-05
2.23246e-05
2.26461e-05
2.27949e-05
2.25651e-05
2.1759e-05
2.02708e-05
1.81663e-05
1.57144e-05
1.32953e-05
1.11269e-05
9.30716e-06
7.90841e-06
6.99047e-06
6.63907e-06
7.07761e-06
8.90958e-06
1.30139e-05
1.49958e-05
6.26183e-06
2.19346e-06
1.97447e-07
1.66793e-07
2.55445e-06
6.85026e-06
1.63678e-05
2.71919e-05
3.10187e-05
3.0432e-05
2.81941e-05
2.57784e-05
2.38574e-05
2.259e-05
2.19361e-05
2.17867e-05
2.19801e-05
2.23485e-05
2.27199e-05
2.29051e-05
2.26955e-05
2.18947e-05
2.04043e-05
1.8303e-05
1.58704e-05
1.34846e-05
1.13386e-05
9.53052e-06
8.13638e-06
7.22102e-06
6.87801e-06
7.34466e-06
9.24003e-06
1.34171e-05
1.52404e-05
6.34299e-06
2.21599e-06
1.99034e-07
1.68704e-07
2.55801e-06
6.87529e-06
1.64618e-05
2.72219e-05
3.08691e-05
3.01438e-05
2.78341e-05
2.54158e-05
2.35381e-05
2.23362e-05
2.17575e-05
2.16813e-05
2.19416e-05
2.23685e-05
2.27875e-05
2.30062e-05
2.28137e-05
2.20154e-05
2.05218e-05
1.84249e-05
1.60142e-05
1.36628e-05
1.1541e-05
9.74691e-06
8.36036e-06
7.45108e-06
7.12056e-06
7.62008e-06
9.58412e-06
1.38328e-05
1.54839e-05
6.42443e-06
2.23878e-06
2.00663e-07
1.70551e-07
2.56114e-06
6.89918e-06
1.65529e-05
2.72419e-05
3.07052e-05
2.984e-05
2.74611e-05
2.50446e-05
2.32141e-05
2.20801e-05
2.1578e-05
2.15753e-05
2.19018e-05
2.23857e-05
2.285e-05
2.30991e-05
2.29206e-05
2.21226e-05
2.06253e-05
1.85349e-05
1.61499e-05
1.3833e-05
1.17356e-05
9.95703e-06
8.58042e-06
7.68037e-06
7.36638e-06
7.90389e-06
9.9412e-06
1.42594e-05
1.57251e-05
6.50577e-06
2.26176e-06
2.02331e-07
1.72338e-07
2.56389e-06
6.92216e-06
1.66415e-05
2.72525e-05
3.05273e-05
2.95211e-05
2.70759e-05
2.46661e-05
2.28867e-05
2.1823e-05
2.13987e-05
2.14698e-05
2.18619e-05
2.24012e-05
2.29083e-05
2.31848e-05
2.30168e-05
2.22167e-05
2.0716e-05
1.86353e-05
1.62808e-05
1.39976e-05
1.19245e-05
1.01622e-05
8.7973e-06
7.909e-06
7.61496e-06
8.19488e-06
1.03096e-05
1.46946e-05
1.59637e-05
6.58696e-06
2.28491e-06
2.04043e-07
1.74064e-07
2.56622e-06
6.94408e-06
1.67275e-05
2.72531e-05
3.03347e-05
2.91864e-05
2.66783e-05
2.42802e-05
2.2556e-05
2.15653e-05
2.12202e-05
2.13655e-05
2.18227e-05
2.24161e-05
2.29638e-05
2.32645e-05
2.31038e-05
2.22991e-05
2.07948e-05
1.87266e-05
1.6407e-05
1.41572e-05
1.21083e-05
1.0363e-05
9.01126e-06
8.13706e-06
7.86628e-06
8.49317e-06
1.06894e-05
1.51369e-05
1.61981e-05
6.66736e-06
2.3081e-06
2.05784e-07
1.75734e-07
2.56819e-06
6.96519e-06
1.68113e-05
2.72442e-05
3.01275e-05
2.88361e-05
2.62688e-05
2.38878e-05
2.2223e-05
2.13078e-05
2.10434e-05
2.12634e-05
2.17852e-05
2.24315e-05
2.30175e-05
2.33394e-05
2.31825e-05
2.23708e-05
2.08623e-05
1.88087e-05
1.65274e-05
1.43116e-05
1.22874e-05
1.056e-05
9.22271e-06
8.36453e-06
8.11985e-06
8.79775e-06
1.10794e-05
1.5585e-05
1.64278e-05
6.74652e-06
2.33122e-06
2.07549e-07
1.77347e-07
2.56977e-06
6.98536e-06
1.68927e-05
2.72251e-05
2.99049e-05
2.84697e-05
2.58474e-05
2.3489e-05
2.18879e-05
2.1051e-05
2.08688e-05
2.11639e-05
2.17501e-05
2.24482e-05
2.30706e-05
2.34108e-05
2.32546e-05
2.24332e-05
2.09197e-05
1.88818e-05
1.66407e-05
1.44596e-05
1.24611e-05
1.0753e-05
9.43195e-06
8.59196e-06
8.37632e-06
9.10925e-06
1.14797e-05
1.60386e-05
1.66525e-05
6.82455e-06
2.35424e-06
2.09344e-07
1.78909e-07
2.57102e-06
7.0048e-06
1.69721e-05
2.71961e-05
2.96672e-05
2.80876e-05
2.54147e-05
2.30846e-05
2.15516e-05
2.07958e-05
2.0697e-05
2.10675e-05
2.17177e-05
2.24665e-05
2.31236e-05
2.34795e-05
2.3321e-05
2.24876e-05
2.09682e-05
1.89467e-05
1.67468e-05
1.46009e-05
1.26291e-05
1.09415e-05
9.63833e-06
8.81865e-06
8.63497e-06
9.42695e-06
1.18894e-05
1.64959e-05
1.68709e-05
6.9009e-06
2.37718e-06
2.11162e-07
1.80418e-07
2.57191e-06
7.02342e-06
1.70493e-05
2.71565e-05
2.94136e-05
2.76896e-05
2.49713e-05
2.26751e-05
2.12146e-05
2.05433e-05
2.05288e-05
2.09743e-05
2.1688e-05
2.24868e-05
2.31771e-05
2.35466e-05
2.33832e-05
2.25358e-05
2.10099e-05
1.90055e-05
1.68468e-05
1.47361e-05
1.27916e-05
1.11259e-05
9.84252e-06
9.04547e-06
8.89674e-06
9.7516e-06
1.23085e-05
1.6956e-05
1.70831e-05
6.97562e-06
2.40026e-06
2.12994e-07
1.81879e-07
2.57249e-06
7.04134e-06
1.71244e-05
2.71065e-05
2.91443e-05
2.72764e-05
2.45181e-05
2.22614e-05
2.0877e-05
2.0295e-05
2.03643e-05
2.08838e-05
2.16606e-05
2.25089e-05
2.32312e-05
2.36123e-05
2.3442e-05
2.25793e-05
2.10472e-05
1.90609e-05
1.69425e-05
1.48662e-05
1.2949e-05
1.13061e-05
1.00439e-05
9.2716e-06
9.16084e-06
1.00826e-05
1.27366e-05
1.74177e-05
1.72883e-05
7.04847e-06
2.42324e-06
2.14832e-07
1.83286e-07
2.5727e-06
7.05842e-06
1.71971e-05
2.70453e-05
2.8859e-05
2.68484e-05
2.40562e-05
2.18444e-05
2.05388e-05
2.00466e-05
2.02004e-05
2.07948e-05
2.16352e-05
2.25329e-05
2.32863e-05
2.36774e-05
2.34986e-05
2.262e-05
2.10829e-05
1.91168e-05
1.70362e-05
1.49924e-05
1.31022e-05
1.14828e-05
1.02433e-05
9.49777e-06
9.42771e-06
1.04201e-05
1.31727e-05
1.7879e-05
1.74859e-05
7.11908e-06
2.4459e-06
2.16667e-07
1.8464e-07
2.57256e-06
7.07465e-06
1.72671e-05
2.6973e-05
2.85579e-05
2.64065e-05
2.35869e-05
2.14257e-05
2.02021e-05
1.98012e-05
2.00399e-05
2.07089e-05
2.16124e-05
2.25586e-05
2.33419e-05
2.37416e-05
2.35532e-05
2.26591e-05
2.11195e-05
1.91768e-05
1.71304e-05
1.51164e-05
1.32519e-05
1.16562e-05
1.04407e-05
9.72409e-06
9.69781e-06
1.07645e-05
1.3617e-05
1.83394e-05
1.76761e-05
7.18746e-06
2.4682e-06
2.18495e-07
1.85934e-07
2.57203e-06
7.08981e-06
1.7334e-05
2.68887e-05
2.82406e-05
2.59508e-05
2.31109e-05
2.10057e-05
1.98665e-05
1.95576e-05
1.98812e-05
2.06248e-05
2.15913e-05
2.25858e-05
2.33982e-05
2.38053e-05
2.36064e-05
2.26976e-05
2.11581e-05
1.92418e-05
1.72264e-05
1.52391e-05
1.33988e-05
1.18266e-05
1.06357e-05
9.94933e-06
9.96909e-06
1.11142e-05
1.40678e-05
1.87967e-05
1.7858e-05
7.25334e-06
2.49005e-06
2.20308e-07
1.87168e-07
2.5711e-06
7.10386e-06
1.73976e-05
2.67926e-05
2.79073e-05
2.54822e-05
2.26293e-05
2.05858e-05
1.95337e-05
1.93177e-05
1.97262e-05
2.0544e-05
2.15728e-05
2.26146e-05
2.3455e-05
2.38683e-05
2.36584e-05
2.27356e-05
2.11985e-05
1.93108e-05
1.7324e-05
1.53611e-05
1.35437e-05
1.19948e-05
1.08297e-05
1.01765e-05
1.02471e-05
1.14708e-05
1.45249e-05
1.92503e-05
1.80321e-05
7.31693e-06
2.5115e-06
2.22107e-07
1.88339e-07