/*--------------------------------*- C++ -*----------------------------------*\
| =========                 |                                                 |
| \\      /  F ield         | OpenFOAM: The Open Source CFD Toolbox           |
|  \\    /   O peration     | Version:  v1906                                 |
|   \\  /    A nd           | Web:      www.OpenFOAM.com                      |
|    \\/     M anipulation  |                                                 |
\*---------------------------------------------------------------------------*/
FoamFile
{
    version     2.0;
    format      ascii;
    class       volScalarField;
    location    "60";
    object      omega;
}
// * * * * * * * * * * * * * * * * * * * * * * * * * * * * * * * * * * * * * //

dimensions      [0 0 -1 0 0 0 0];


internalField   nonuniform List<scalar> 
78750
(
352.852
13.5627
13.5848
13.6067
13.6282
13.6487
13.6682
13.6865
13.7034
13.7189
13.7329
13.7453
13.7561
13.7651
13.7725
13.778
13.7817
13.7835
13.7835
13.7815
13.7775
13.7715
13.7635
13.7536
13.7419
13.7287
13.7143
13.699
13.6834
13.6679
13.6539
13.6435
13.6407
13.6494
356.66
517.773
4.13946
4.21196
4.27657
4.33394
4.38457
4.42871
4.46676
4.49913
4.52617
4.54821
4.56557
4.57852
4.58732
4.59219
4.59334
4.59094
4.58514
4.57606
4.5638
4.54834
4.5297
4.50788
4.4829
4.4548
4.42375
4.39009
4.35434
4.31736
4.28004
4.24296
4.2074
4.17704
4.15728
523.799
517.782
4.18923
4.29834
4.39264
4.47121
4.53554
4.58833
4.63147
4.66592
4.6925
4.71195
4.72493
4.73204
4.73382
4.73077
4.72335
4.71198
4.69706
4.67898
4.65812
4.63479
4.60918
4.58131
4.55097
4.5179
4.48182
4.44275
4.40119
4.35819
4.31477
4.27238
4.23428
4.20593
4.19209
524.244
517.793
4.24044
4.38323
4.50257
4.59711
4.67011
4.72698
4.77156
4.80564
4.83037
4.84676
4.85565
4.85782
4.85396
4.84473
4.83072
4.81239
4.79019
4.76468
4.73645
4.70617
4.67442
4.64145
4.60704
4.57061
4.53156
4.4896
4.44484
4.39775
4.34936
4.30221
4.26148
4.2342
4.2242
524.612
517.805
4.28144
4.4484
4.5847
4.68889
4.76616
4.82384
4.86733
4.8993
4.9211
4.93391
4.93877
4.9366
4.92808
4.91371
4.89395
4.86933
4.84045
4.80806
4.77311
4.73679
4.70038
4.66472
4.62971
4.59442
4.55756
4.51805
4.47525
4.42902
4.38022
4.33194
4.29062
4.26422
4.25605
524.962
517.818
4.32276
4.5126
4.66443
4.77703
4.85777
4.91619
4.95905
4.98949
5.00901
5.01893
5.02037
5.01414
5.0007
4.9805
4.95407
4.92205
4.88529
4.84482
4.80195
4.75839
4.71617
4.67685
4.64069
4.60664
4.57293
4.53762
4.49912
4.45647
4.41003
4.36294
4.32221
4.29612
4.28757
525.256
517.831
4.36056
4.56955
4.73355
4.85206
4.93482
4.99341
5.03551
5.06452
5.08206
5.08953
5.08796
5.07784
5.05951
5.03339
5.00008
4.96042
4.91546
4.86657
4.81547
4.76445
4.71635
4.67341
4.63609
4.6034
4.57342
4.54372
4.51183
4.4758
4.43516
4.39244
4.35442
4.32902
4.31889
525.546
517.844
4.39581
4.62222
4.79771
4.92241
5.00803
5.06756
5.10954
5.13778
5.1541
5.15992
5.15594
5.14246
5.11979
5.08839
5.04899
5.0026
4.95053
4.89436
4.83606
4.77824
4.72422
4.67674
4.63642
4.60252
4.57344
4.54686
4.52006
4.49044
4.45656
4.41983
4.3859
4.36165
4.34936
525.802
517.857
4.4288
4.67084
4.85616
4.98579
5.07343
5.13367
5.17535
5.20264
5.2177
5.22167
5.21499
5.19789
5.17069
5.13392
5.08848
5.03558
4.97677
4.91391
4.84929
4.78598
4.72788
4.67771
4.63575
4.60126
4.57288
4.54867
4.52608
4.50237
4.4754
4.44531
4.41624
4.39355
4.37912
526.052
517.869
4.46043
4.71713
4.91194
5.04669
5.13676
5.19807
5.23999
5.26697
5.28117
5.28356
5.27452
5.25424
5.22305
5.18159
5.13089
5.07235
5.00771
4.93902
4.86881
4.80046
4.73832
4.68517
4.64103
4.60509
4.57618
4.55276
4.53272
4.5135
4.49261
4.469
4.44498
4.42424
4.40804
526.28
517.881
4.4898
4.75977
4.96297
5.1021
5.19413
5.25622
5.29823
5.32476
5.33791
5.33859
5.32709
5.30356
5.26837
5.22225
5.16641
5.10245
5.03228
4.95821
4.8831
4.81078
4.74611
4.69156
4.64665
4.61035
4.58154
4.55894
4.54093
4.52534
4.50961
4.49181
4.47255
4.45383
4.4362
526.501
517.894
4.51991
4.80291
5.01422
5.15755
5.25151
5.31443
5.35661
5.38275
5.39496
5.39405
5.38027
5.35373
5.31486
5.26448
5.20395
5.135
5.05975
4.98066
4.90085
4.82449
4.75697
4.7007
4.65484
4.61811
4.58929
4.56727
4.55076
4.53801
4.52658
4.51387
4.49895
4.48226
4.46356
526.709
517.906
4.54737
4.84189
5.06036
5.20739
5.30308
5.36676
5.40912
5.43494
5.44627
5.44386
5.42787
5.39845
5.35603
5.30158
5.23655
5.16286
5.08279
4.999
4.91491
4.83515
4.76564
4.70854
4.6626
4.62622
4.59809
4.5771
4.56223
4.55207
4.54432
4.53593
4.52472
4.50981
4.49014
526.911
517.919
4.57658
4.88276
5.10813
5.25851
5.35568
5.41997
5.46242
5.48786
5.49829
5.49438
5.47628
5.4441
5.39835
5.34007
5.27084
5.19268
5.108
5.01963
4.93121
4.84773
4.77571
4.71737
4.67112
4.63508
4.60774
4.58794
4.57478
4.56704
4.56255
4.55792
4.54992
4.53657
4.51598
527.104
517.932
4.60311
4.91947
5.15092
5.30432
5.40292
5.4679
5.51058
5.5358
5.5455
5.54029
5.52027
5.48557
5.43675
5.37494
5.3018
5.21947
5.13048
5.03779
4.94533
4.85846
4.7843
4.72511
4.67896
4.64371
4.61763
4.59947
4.58833
4.58311
4.58164
4.58025
4.57489
4.56273
4.5411
527.292
517.946
4.63147
4.95824
5.19559
5.35168
5.45144
5.51695
5.55975
5.58467
5.5936
5.5871
5.56521
5.52812
5.47642
5.41131
5.33452
5.24825
5.1551
5.05816
4.96152
4.87088
4.79395
4.73339
4.68701
4.65242
4.62765
4.6113
4.60239
4.59978
4.60123
4.60276
4.59963
4.58837
4.56556
527.473
517.96
4.65746
4.99335
5.2359
5.39446
5.49542
5.56159
5.60467
5.62948
5.63784
5.63025
5.60675
5.56754
5.51327
5.44519
5.36508
5.27521
5.17823
5.07729
4.97669
4.88243
4.80282
4.74096
4.69448
4.66074
4.63756
4.62334
4.61697
4.61715
4.62147
4.6256
4.62427
4.61356
4.58935
527.65
517.974
4.68497
5.03018
5.27781
5.4386
5.54056
5.60727
5.65055
5.6752
5.68298
5.67433
5.64929
5.60809
5.55144
5.48062
5.39745
5.30418
5.2035
5.09863
4.99396
4.89571
4.81274
4.74898
4.70197
4.66887
4.64724
4.63529
4.63165
4.63481
4.64204
4.64862
4.6488
4.63836
4.61253
527.821
517.988
4.71053
5.064
5.31616
5.47903
5.58206
5.64944
5.69309
5.71774
5.7251
5.71558
5.68924
5.64631
5.58758
5.51435
5.42846
5.33215
5.2281
5.11958
5.01103
4.90888
4.82245
4.75665
4.70902
4.67656
4.65661
4.64714
4.64649
4.65282
4.663
4.67185
4.67326
4.66279
4.63507
527.988
518.003
4.73722
5.09907
5.35569
5.5205
5.62449
5.69248
5.73645
5.76108
5.76803
5.75768
5.73009
5.68559
5.62496
5.54955
5.46119
5.36206
5.25483
5.14272
5.03026
4.9239
4.83335
4.76487
4.71611
4.68396
4.66558
4.65863
4.66114
4.67081
4.68402
4.69508
4.69751
4.6868
4.65699
528.149
518.018
4.76231
5.13171
5.39239
5.55908
5.66414
5.73286
5.77728
5.802
5.80866
5.79762
5.769
5.72314
5.6609
5.58364
5.49314
5.39158
5.28153
5.16615
5.04996
4.93946
4.84463
4.77319
4.72303
4.69102
4.67416
4.66983
4.67567
4.68885
4.70517
4.71836
4.72165
4.71045
4.67828
528.306
518.033
4.78816
5.16517
5.4299
5.59844
5.70454
5.77399
5.81882
5.8436
5.84993
5.83822
5.80861
5.76153
5.69788
5.619
5.52664
5.42291
5.31028
5.19179
5.07189
4.95707
4.85744
4.78237
4.73022
4.69791
4.68233
4.68057
4.6898
4.70662
4.72611
4.74139
4.7454
4.73359
4.69891
528.458
518.048
4.81264
5.19659
5.46514
5.6356
5.74293
5.81325
5.85855
5.8834
5.88944
5.87713
5.84669
5.79861
5.73381
5.65363
5.55979
5.45428
5.33946
5.21822
5.09487
4.97585
4.87131
4.79225
4.7377
4.70474
4.69022
4.69097
4.70365
4.7242
4.74696
4.76433
4.76899
4.75636
4.71892
528.605
518.063
4.83751
5.22838
5.50081
5.67335
5.7821
5.85333
5.89897
5.92371
5.92933
5.91639
5.88518
5.83624
5.77049
5.68927
5.59422
5.48724
5.37054
5.24681
5.12018
4.99694
4.88723
4.80355
4.74595
4.71178
4.69793
4.70096
4.71705
4.74138
4.76742
4.78683
4.792
4.77852
4.73823
528.747
518.079
4.86112
5.25831
5.53448
5.7094
5.82014
5.89246
5.93824
5.96256
5.96767
5.95417
5.92235
5.87277
5.80636
5.72442
5.62852
5.52047
5.4023
5.27649
5.14695
5.01976
4.90496
4.8163
4.75514
4.71926
4.70567
4.71075
4.73013
4.7582
4.7875
4.80894
4.81476
4.80021
4.75688
528.885
518.094
4.88479
5.28815
5.56798
5.74539
5.85756
5.93084
5.97715
6.00125
6.0059
5.9919
5.95959
5.90954
5.84267
5.76026
5.6638
5.55498
5.43568
5.30813
5.17599
5.04507
4.9252
4.83108
4.76576
4.72753
4.71364
4.72038
4.74286
4.77462
4.80724
4.83083
4.83748
4.82135
4.77483
529.018
518.109
4.90736
5.31634
5.59954
5.77935
5.89296
5.96731
6.01434
6.03867
6.04279
6.02836
5.9957
5.94537
5.87829
5.79569
5.699
5.58979
5.46976
5.34091
5.20659
5.07232
4.94766
4.84789
4.77798
4.73684
4.72213
4.73011
4.75541
4.79069
4.82652
4.8522
4.85995
4.84257
4.79236
529.147
518.125
4.92986
5.34431
5.6308
5.81272
5.92759
6.00295
6.0507
6.07535
6.07917
6.06446
6.03159
5.98115
5.91406
5.8315
5.73484
5.62553
5.50511
5.37533
5.23924
5.10197
4.97275
4.86711
4.79218
4.74755
4.73139
4.74007
4.76781
4.80644
4.84554
4.87378
4.88232
4.86366
4.80948
529.272
518.14
4.95133
5.37088
5.66082
5.84431
5.96031
6.03673
6.08535
6.1106
6.11462
6.0995
6.06645
6.01604
5.94913
5.86687
5.77053
5.66145
5.54102
5.41073
5.27331
5.1335
5.00011
4.88866
4.80848
4.7599
4.74172
4.75057
4.78036
4.82214
4.86449
4.8954
4.90462
4.88455
4.82621
529.394
518.156
4.97236
5.39665
5.6898
5.87483
5.992
6.06947
6.11897
6.1448
6.14905
6.13371
6.10071
6.05054
5.98404
5.90228
5.8065
5.69794
5.5778
5.44737
5.30905
5.16714
5.02995
4.91281
4.8272
4.77423
4.75341
4.7618
4.79314
4.83774
4.88323
4.91681
4.92667
4.90514
4.8425
529.512
518.171
4.99251
5.42112
5.71724
5.90369
6.02199
6.10056
6.15101
6.17757
6.18222
6.16683
6.134
6.0842
6.01825
5.93719
5.84219
5.7344
5.61488
5.48468
5.3459
5.20238
5.06191
4.93941
4.8484
4.79075
4.76679
4.77411
4.80646
4.85352
4.90196
4.93807
4.94847
4.9254
4.85835
529.627
518.186
5.01222
5.44486
5.74374
5.93152
6.05091
6.13055
6.18196
6.20929
6.21444
6.19919
6.16662
6.11729
6.05202
5.97183
5.87781
5.77102
5.6524
5.52277
5.38394
5.23929
5.09603
4.96855
4.87224
4.80969
4.78207
4.78768
4.82042
4.86947
4.92054
4.95903
4.96991
4.94526
4.87373
529.739
518.201
5.03112
5.46741
5.76882
5.95781
6.07826
6.15896
6.21137
6.23955
6.24538
6.23061
6.19823
6.14941
6.08494
6.00578
5.91294
5.80738
5.68991
5.56117
5.42268
5.2774
5.13191
5.00002
4.89867
4.83117
4.79952
4.80283
4.83534
4.88587
4.93924
4.97982
4.99103
4.9647
4.88865
529.848
518.216
5.04961
5.4893
5.79302
5.9831
6.10453
6.18626
6.23963
6.26863
6.27511
6.26082
6.22877
6.18065
6.11716
6.0392
5.94771
5.84356
5.72747
5.59991
5.46212
5.31666
5.16951
5.03379
4.92774
4.8553
4.8193
4.81973
4.85133
4.90271
4.95786
5.00031
5.01175
4.98372
4.90312
529.954
518.231
5.0674
5.51018
5.81595
6.00698
6.12933
6.21206
6.2664
6.29627
6.30349
6.28979
6.25819
6.21086
6.14845
6.07181
5.9818
5.87924
5.76472
5.63857
5.50182
5.35662
5.20839
5.06955
4.95927
4.88209
4.84154
4.83859
4.86865
4.92032
4.97701
5.0207
5.03211
5.00229
4.91713
530.058
518.246
5.08483
5.53055
5.83806
6.02988
6.15305
6.23672
6.292
6.32272
6.33067
6.31759
6.28652
6.24009
6.17888
6.10366
6.01527
5.91443
5.80166
5.67714
5.5417
5.39717
5.2484
5.10712
4.99314
4.91147
4.86631
4.85956
4.88747
4.93884
4.99662
5.04106
5.05218
5.02046
4.93071
530.16
518.26
5.10158
5.55028
5.85902
6.05144
6.17536
6.25994
6.31614
6.34771
6.35641
6.34403
6.31361
6.26817
6.20824
6.13456
6.04789
5.94889
5.838
5.71529
5.58142
5.4379
5.28913
5.14614
5.02906
4.9433
4.89357
4.88274
4.90794
4.9584
5.01671
5.06144
5.07199
5.03824
4.94389
530.26
518.274
5.11773
5.56916
5.87895
6.07191
6.19656
6.28204
6.33916
6.37158
6.38105
6.36936
6.33958
6.29518
6.23664
6.16458
6.07972
5.98266
5.87377
5.75303
5.62093
5.47873
5.3304
5.18635
5.06679
4.97739
4.92328
4.90817
4.93018
4.97909
5.03731
5.08189
5.0916
5.05568
4.9567
530.358
518.288
5.13315
5.587
5.89768
6.0911
6.21642
6.30276
6.36077
6.39403
6.40429
6.39334
6.36432
6.32101
6.26385
6.19349
6.11054
6.01552
5.90874
5.79008
5.65994
5.51934
5.37186
5.22738
5.10598
5.01348
4.95526
4.93579
4.95421
5.00098
5.05851
5.10245
5.11104
5.07283
4.96919
530.455
518.302
5.14808
5.60407
5.91545
6.10925
6.2352
6.32236
6.38122
6.41532
6.42634
6.41614
6.38792
6.34576
6.29006
6.22139
6.14037
6.04749
5.9429
5.82644
5.6984
5.55962
5.41336
5.26899
5.14638
5.05134
4.98936
4.96556
4.98006
5.02414
5.08035
5.12319
5.13037
5.08972
4.98141
530.55
518.315
5.16219
5.62007
5.93204
6.12615
6.25268
6.34063
6.40033
6.43522
6.44701
6.43759
6.41022
6.36926
6.31506
6.24814
6.16908
6.07833
5.97603
5.86187
5.73607
5.59931
5.4546
5.31086
5.18767
5.09066
5.02534
4.99734
5.0077
5.04859
5.10292
5.14419
5.14966
5.10643
4.9934
530.643
518.328
5.17582
5.63534
5.94774
6.14206
6.26912
6.3578
6.41828
6.45394
6.46648
6.45782
6.43133
6.39159
6.33892
6.2738
6.19674
6.10813
6.00811
5.89635
5.77288
5.63831
5.49542
5.35278
5.22962
5.13121
5.06301
5.03099
5.03708
5.07436
5.12624
5.16548
5.16897
5.12299
5.00521
530.735
518.341
5.1887
5.64961
5.96231
6.15679
6.28433
6.3737
6.43493
6.47133
6.48459
6.47669
6.45111
6.41263
6.36151
6.2982
6.22317
6.13676
6.03905
5.92968
5.80866
5.67643
5.5356
5.39448
5.27193
5.17271
5.1021
5.06635
5.06811
5.10145
5.15039
5.18714
5.18835
5.13948
5.01688
530.826
518.353
5.20105
5.66316
5.97601
6.17057
6.29852
6.38853
6.45046
6.48755
6.50149
6.49435
6.46968
6.43245
6.38288
6.32139
6.2484
6.16421
6.06884
5.96189
5.84334
5.71358
5.57504
5.43582
5.31441
5.21492
5.14239
5.10321
5.10069
5.12982
5.17539
5.20925
5.20789
5.15595
5.02848
530.915
518.365
5.21268
5.67574
5.98863
6.18321
6.31153
6.40214
6.46474
6.50248
6.51708
6.51067
6.48694
6.45097
6.40295
6.34328
6.27233
6.19036
6.09735
5.99286
5.87684
5.74964
5.6136
5.47665
5.35686
5.25761
5.18365
5.14141
5.13471
5.15945
5.20126
5.23183
5.22764
5.17246
5.04004
531.004
518.377
5.22378
5.68762
6.00042
6.19494
6.32357
6.41472
6.47792
6.51627
6.53149
6.52579
6.503
6.46827
6.42179
6.36391
6.29497
6.21521
6.12456
6.02254
5.90909
5.78454
5.65125
5.51691
5.39917
5.30061
5.22567
5.18073
5.17003
5.19029
5.22803
5.25497
5.24768
5.18909
5.05164
531.092
518.389
5.23421
5.6986
6.01119
6.20559
6.33449
6.42614
6.48991
6.52883
6.54464
6.53964
6.51779
6.48431
6.43935
6.38323
6.31628
6.23869
6.15038
6.05084
5.93999
5.81815
5.68768
5.55643
5.44119
5.34377
5.26828
5.22101
5.2065
5.22223
5.25566
5.27865
5.26802
5.20586
5.06329
531.179
518.4
5.24413
5.70889
6.02116
6.21536
6.34447
6.43657
6.50086
6.5403
6.55665
6.55232
6.53141
6.49916
6.45569
6.4013
6.3363
6.26084
6.17483
6.07774
5.9695
5.85047
5.72306
5.59519
5.48279
5.38691
5.31132
5.2621
5.24402
5.25525
5.28419
5.30298
5.28879
5.22288
5.07507
531.266
518.411
5.25343
5.71835
6.03018
6.22413
6.3534
6.4459
6.51067
6.55059
6.56746
6.56378
6.54383
6.51279
6.47079
6.41809
6.35499
6.28161
6.19785
6.10318
5.99755
5.88139
5.7572
5.63311
5.5239
5.42992
5.35461
5.30382
5.28243
5.28922
5.31354
5.32792
5.30997
5.24017
5.08701
531.352
518.421
5.26223
5.72715
6.03843
6.23205
6.36142
6.45428
6.51947
6.55983
6.57717
6.57413
6.55512
6.52529
6.48473
6.43369
6.37243
6.30107
6.21949
6.12718
6.02413
5.91085
5.79003
5.67001
5.56421
5.47255
5.39798
5.34603
5.32163
5.32409
5.34371
5.3535
5.33162
5.25776
5.09914
531.439
518.432
5.27047
5.73519
6.04579
6.23903
6.36845
6.46161
6.52718
6.56794
6.58573
6.5833
6.56526
6.53663
6.49749
6.44807
6.3886
6.3192
6.23974
6.14973
6.04921
5.93881
5.82143
5.70575
5.60366
5.51464
5.4412
5.38853
5.36149
5.35982
5.37472
5.37977
5.3538
5.27572
5.11148
531.525
518.442
5.27824
5.74259
6.05241
6.24518
6.37461
6.46802
6.53393
6.57504
6.59324
6.59141
6.57434
6.5469
6.50915
6.46132
6.4036
6.3361
6.25868
6.17089
6.07283
5.96528
5.8514
5.74025
5.64207
5.55596
5.48405
5.43107
5.40172
5.39609
5.40638
5.40664
5.37647
5.29403
5.12405
531.611
518.451
5.28548
5.74927
6.0582
6.25044
6.37982
6.47345
6.53965
6.58107
6.59966
6.59841
6.58232
6.55607
6.51971
6.47343
6.41742
6.35176
6.27634
6.1907
6.09504
5.99029
5.87993
5.77345
5.67934
5.5964
5.52637
5.47354
5.44232
5.43301
5.43877
5.43418
5.39968
5.31275
5.13687
531.698
518.461
5.29226
5.75533
6.06325
6.2549
6.38418
6.47798
6.54443
6.58612
6.60506
6.60439
6.58929
6.56424
6.52924
6.48449
6.43014
6.36628
6.29278
6.20923
6.11591
6.01393
5.90709
5.80536
5.71541
5.6358
5.56791
5.51556
5.48283
5.47015
5.47163
5.46226
5.42339
5.33184
5.14994
531.785
518.47
5.29853
5.7607
6.06751
6.2585
6.38764
6.48157
6.54824
6.59016
6.60943
6.60934
6.59525
6.57138
6.53775
6.4945
6.44179
6.37968
6.30806
6.22655
6.13551
6.03626
5.93297
5.83604
5.75031
5.67414
5.6086
5.55705
5.52321
5.50757
5.50491
5.49084
5.44759
5.35134
5.16328
531.872
518.479
5.30435
5.76546
6.07105
6.26134
6.3903
6.48432
6.55116
6.59329
6.61286
6.61333
6.60028
6.57761
6.54531
6.50354
6.45243
6.39204
6.32225
6.24273
6.15394
6.0574
5.95767
5.86559
5.7841
5.71143
5.64838
5.59792
5.56334
5.54529
5.53856
5.51984
5.47221
5.37119
5.17687
531.96
518.487
5.30968
5.76955
6.07384
6.26336
6.3921
6.48618
6.55317
6.59548
6.61533
6.61638
6.60438
6.5829
6.55194
6.51163
6.46209
6.40339
6.3354
6.25784
6.17129
6.07747
5.98135
5.89411
5.81685
5.74771
5.68727
5.63812
5.60318
5.58311
5.57251
5.54924
5.49726
5.3914
5.19072
532.048
518.496
5.31458
5.77305
6.07592
6.26463
6.39312
6.48724
6.55435
6.59681
6.61694
6.61857
6.60764
6.58736
6.55772
6.51884
6.47085
6.4138
6.3476
6.27199
6.18767
6.09662
6.00423
5.92179
5.8487
5.78307
5.72528
5.67758
5.64255
5.62076
5.60657
5.57893
5.52265
5.41195
5.20482
532.137
518.504
5.319
5.77591
6.07727
6.26511
6.39331
6.48744
6.55465
6.59726
6.61766
6.61988
6.61007
6.59099
6.56266
6.52519
6.47873
6.42332
6.35889
6.28524
6.20321
6.11504
6.02658
5.94881
5.87979
5.81758
5.76243
5.7163
5.68141
5.65823
5.64066
5.60882
5.54834
5.43277
5.21914
532.225
518.512
5.32299
5.77819
6.07795
6.26486
6.39275
6.48686
6.55416
6.5969
6.61757
6.62041
6.61174
6.59388
6.56684
6.53077
6.4858
6.432
6.36933
6.29767
6.21799
6.13287
6.04865
5.97538
5.91027
5.85137
5.79881
5.75428
5.71968
5.69537
5.67465
5.63884
5.57427
5.45387
5.23369
532.314
518.52
5.32654
5.77986
6.07791
6.26385
6.39139
6.48546
6.55283
6.5957
6.61667
6.62016
6.61267
6.59604
6.5703
6.5356
6.4921
6.43988
6.37896
6.3093
6.23205
6.15012
6.07043
6.00155
5.94022
5.88452
5.83448
5.79156
5.75736
5.73214
5.70854
5.66889
5.60035
5.47516
5.24839
532.402
518.527
5.3297
5.78099
6.07723
6.26214
6.38929
6.4833
6.55073
6.59373
6.61501
6.61919
6.61293
6.59755
6.5731
6.53975
6.49768
6.44702
6.38782
6.32015
6.24538
6.16677
6.09179
6.02723
5.96962
5.91704
5.86946
5.82814
5.79441
5.76845
5.74218
5.69895
5.62654
5.4966
5.26324
532.491
518.534
5.33244
5.78153
6.07587
6.25969
6.38641
6.48034
6.54782
6.59096
6.61259
6.61751
6.61253
6.59842
6.57526
6.54325
6.5026
6.45346
6.39596
6.33028
6.25799
6.18276
6.1126
6.05235
5.99842
5.94894
5.90379
5.86407
5.83089
5.80434
5.77559
5.72896
5.65283
5.51816
5.27818
532.579
518.541
5.3348
5.78155
6.07388
6.25654
6.3828
6.47662
6.54413
6.58744
6.60947
6.61521
6.61155
6.59871
6.57683
6.54615
6.50689
6.45927
6.40345
6.33974
6.26996
6.19817
6.13287
6.07687
6.02659
5.98016
5.93741
5.89928
5.8667
5.8397
5.80867
5.75885
5.67912
5.53979
5.29323
532.667
518.548
5.33677
5.78102
6.07124
6.25268
6.37843
6.47212
6.53966
6.58315
6.60567
6.61236
6.61
6.59842
6.57782
6.54846
6.5106
6.46448
6.41033
6.3486
6.28136
6.21308
6.15263
6.10084
6.05415
6.01073
5.97038
5.93387
5.90196
5.87463
5.84145
5.78859
5.7054
5.56151
5.30848
532.755
518.555
5.33837
5.77997
6.06797
6.24814
6.37334
6.46686
6.5344
6.57808
6.60118
6.60908
6.60791
6.59755
6.57822
6.5502
6.51375
6.46915
6.4167
6.35698
6.29233
6.22766
6.17199
6.1243
6.08111
6.04064
6.00262
5.96772
5.93652
5.909
5.87385
5.81815
5.73163
5.58324
5.32379
532.843
518.561
5.33958
5.77838
6.06406
6.2429
6.36752
6.46083
6.52834
6.5722
6.59586
6.60497
6.60506
6.59601
6.57802
6.55138
6.51639
6.47333
6.42261
6.36498
6.30303
6.24216
6.19111
6.14737
6.10756
6.06994
6.03422
6.00091
5.97044
5.94281
5.90583
5.84745
5.75771
5.6049
5.33908
532.93
518.567
5.34041
5.77625
6.05953
6.23698
6.36099
6.45408
6.52156
6.5656
6.58989
6.60029
6.60168
6.59394
6.5773
6.55207
6.51854
6.47707
6.42815
6.37269
6.31362
6.25682
6.21015
6.17016
6.13356
6.09868
6.06518
6.03345
6.00376
5.97613
5.93743
5.87649
5.78365
5.62647
5.3543
533.017
518.573
5.34084
5.77358
6.05436
6.23039
6.35374
6.44658
6.51401
6.55823
6.58316
6.59491
6.59765
6.59128
6.57603
6.55223
6.52021
6.48038
6.43332
6.38015
6.32414
6.27166
6.22918
6.19273
6.15915
6.12685
6.09545
6.06518
6.03619
6.0087
5.96848
5.90517
5.80933
5.64785
5.36941
533.103
518.579
5.34087
5.77038
6.04859
6.22314
6.34582
6.4384
6.50577
6.5502
6.57582
6.58899
6.59311
6.58813
6.5743
6.55195
6.52146
6.48329
6.43815
6.38736
6.33454
6.28657
6.24814
6.21507
6.18439
6.15455
6.12517
6.09644
6.06853
6.04085
5.99909
5.93351
5.83478
5.66907
5.3844
533.188
518.584
5.3405
5.76665
6.04221
6.21523
6.33721
6.42949
6.49681
6.54146
6.56782
6.58247
6.58804
6.58449
6.5721
6.55124
6.52231
6.48584
6.44267
6.39433
6.34482
6.30144
6.26696
6.23718
6.20927
6.1818
6.15441
6.12723
6.10051
6.07253
6.02923
5.96145
5.8599
5.69004
5.39922
533.273
518.589
5.33977
5.76243
6.03525
6.2067
6.32793
6.41992
6.48717
6.53208
6.55926
6.57546
6.58252
6.58043
6.56952
6.55016
6.52281
6.48808
6.44693
6.40112
6.35503
6.31626
6.28564
6.25906
6.23384
6.20866
6.18319
6.15758
6.13206
6.10377
6.05895
5.98904
5.88476
5.7108
5.41391
533.357
518.594
5.33869
5.75773
6.02772
6.19752
6.31797
6.40963
6.47682
6.52204
6.5501
6.56795
6.57655
6.57597
6.56656
6.54875
6.52303
6.49008
6.45101
6.40782
6.36528
6.33108
6.30421
6.28072
6.25809
6.23512
6.21151
6.18741
6.16309
6.13449
6.08817
6.01622
5.90926
5.73128
5.42842
533.439
518.599
5.3373
5.7526
6.01965
6.18773
6.30734
6.39864
6.46579
6.51137
6.54042
6.55997
6.57017
6.57114
6.56328
6.54705
6.52301
6.49191
6.45502
6.41459
6.37578
6.346
6.32273
6.30221
6.28208
6.26124
6.23943
6.2168
6.19366
6.16474
6.11699
6.04305
5.9335
5.75155
5.44279
533.521
518.604
5.33563
5.74705
6.01104
6.17731
6.29601
6.3869
6.454
6.50005
6.53024
6.55154
6.56336
6.56592
6.55966
6.54508
6.52278
6.49363
6.45904
6.42156
6.38675
6.36117
6.3413
6.32357
6.30581
6.287
6.26691
6.24569
6.2237
6.19444
6.14529
6.06945
5.95736
5.77153
5.45696
533.601
518.608
5.33371
5.74111
6.00192
6.16628
6.28398
6.37439
6.44142
6.48806
6.51978
6.54262
6.55603
6.56024
6.55567
6.54282
6.52236
6.49525
6.46311
6.42877
6.39821
6.37661
6.35995
6.34485
6.32933
6.31245
6.29401
6.27416
6.25329
6.2237
6.1732
6.09552
5.98096
5.7913
5.47099
533.68
518.613
5.33153
5.73477
5.99227
6.15462
6.27123
6.36107
6.42794
6.4751
6.50837
6.53287
6.54804
6.55404
6.55126
6.54025
6.52172
6.49676
6.46718
6.43616
6.41003
6.39225
6.37862
6.36602
6.35261
6.33757
6.32071
6.30217
6.28236
6.25243
6.20061
6.12114
6.00417
5.81075
5.4848
533.757
518.617
5.32912
5.72804
5.9821
6.14234
6.25779
6.34698
6.41365
6.46135
6.49623
6.52247
6.53946
6.54733
6.54645
6.53737
6.52086
6.49815
6.47126
6.44368
6.42206
6.40797
6.39727
6.38705
6.37566
6.36237
6.34701
6.32973
6.31098
6.28073
6.22766
6.14648
6.02715
5.83002
5.49848
533.834
518.621
5.32644
5.7209
5.9714
6.12944
6.24362
6.33206
6.39845
6.44667
6.48321
6.51125
6.53016
6.54002
6.54116
6.53413
6.51977
6.49943
6.47536
6.45138
6.43426
6.42374
6.41584
6.4079
6.39844
6.38681
6.37291
6.35685
6.3391
6.30849
6.25419
6.17135
6.04974
5.84896
5.51193
533.907
518.625
5.3235
5.71335
5.96017
6.11591
6.22875
6.31637
6.38243
6.43117
6.46941
6.4993
6.5202
6.53213
6.53539
6.53053
6.51846
6.50064
6.47954
6.45934
6.44663
6.43955
6.43433
6.42857
6.42095
6.41092
6.39839
6.38348
6.36676
6.33586
6.2804
6.19597
6.07211
5.86776
5.52527
533.98
518.629
5.32031
5.70537
5.9484
6.10175
6.21315
6.29985
6.36554
6.41481
6.45479
6.48658
6.50953
6.52362
6.52911
6.52656
6.51693
6.50181
6.48392
6.46776
6.45928
6.45544
6.45275
6.44904
6.44314
6.43461
6.4234
6.40974
6.39385
6.36262
6.30606
6.22011
6.09408
5.88621
5.53837
534.051
518.632
5.31686
5.69699
5.93609
6.08694
6.19682
6.28254
6.34783
6.39766
6.43942
6.47317
6.49823
6.51455
6.52236
6.52223
6.51519
6.50297
6.48854
6.47672
6.47225
6.47147
6.47116
6.46938
6.46513
6.45807
6.44825
6.43604
6.4207
6.38906
6.33142
6.24401
6.11586
5.90453
5.55138
534.121
518.636
5.31319
5.68821
5.92324
6.07147
6.1797
6.26436
6.32924
6.3797
6.42331
6.45906
6.48629
6.5049
6.51512
6.51753
6.51322
6.5041
6.49336
6.48611
6.48549
6.48761
6.48955
6.48957
6.48687
6.48122
6.47277
6.462
6.44709
6.41495
6.35624
6.26742
6.13722
5.9225
5.56413
534.188
518.64
5.30935
5.67909
5.90987
6.05532
6.16177
6.24527
6.30979
6.36102
6.4065
6.44429
6.47374
6.49473
6.50744
6.51247
6.51102
6.50514
6.4983
6.49575
6.49888
6.50382
6.50792
6.50969
6.50848
6.5042
6.4971
6.48777
6.47322
6.44055
6.38079
6.2906
6.15839
5.94035
5.57679
534.255
518.643
5.30539
5.66965
5.89599
6.03847
6.14295
6.22516
6.28935
6.34174
6.38893
6.42878
6.46056
6.48403
6.49934
6.50711
6.50864
6.50615
6.50337
6.50556
6.51234
6.52001
6.5262
6.52964
6.52985
6.52687
6.52104
6.51307
6.49882
6.4656
6.4048
6.31329
6.17914
5.95783
5.58917
534.319
518.647
5.30137
5.65998
5.88165
6.02093
6.12318
6.20386
6.26764
6.32129
6.37029
6.4124
6.44669
6.4728
6.49085
6.50149
6.50614
6.50722
6.5087
6.51556
6.52587
6.5362
6.54445
6.54953
6.55113
6.54941
6.54482
6.53816
6.52416
6.49036
6.42855
6.33575
6.19969
5.97517
5.60143
534.383
518.651
5.29738
5.65013
5.86689
6.00268
6.10242
6.18133
6.24457
6.29955
6.35054
6.39512
6.43212
6.46105
6.482
6.49568
6.50363
6.50848
6.51446
6.5258
6.53948
6.55236
6.56258
6.56924
6.57216
6.57163
6.56821
6.56278
6.54896
6.51457
6.45178
6.35773
6.21981
5.99213
5.61339
534.444
518.655
5.29351
5.64021
5.85176
5.98376
6.08063
6.15744
6.22001
6.27638
6.32955
6.37682
6.41676
6.44872
6.47275
6.48965
6.50111
6.50999
6.52074
6.53634
6.55323
6.56857
6.5807
6.5889
6.59313
6.59375
6.59144
6.58718
6.5735
6.53849
6.47472
6.37945
6.2397
6.00891
5.62519
534.507
518.66
5.28983
5.63029
5.83633
5.96419
6.05777
6.13208
6.19377
6.25158
6.30711
6.35733
6.40048
6.43571
6.46303
6.48335
6.49851
6.51164
6.52736
6.54704
6.56701
6.5847
6.59868
6.60837
6.61385
6.61559
6.61434
6.61117
6.59756
6.56191
6.49717
6.40071
6.25917
6.02531
5.63668
534.565
518.665
5.28648
5.6205
5.82072
5.94402
6.03384
6.10518
6.16575
6.22501
6.28309
6.33654
6.38318
6.42191
6.45275
6.47668
6.49575
6.51333
6.53413
6.55779
6.58077
6.60078
6.61658
6.62776
6.63447
6.63729
6.63705
6.63492
6.62132
6.58502
6.51932
6.42168
6.27836
6.04147
5.64794
534.625
518.67
5.28351
5.61091
5.80499
5.92332
6.00882
6.07665
6.13575
6.19639
6.25722
6.31421
6.36464
6.40718
6.44178
6.46955
6.49275
6.515
6.54086
6.5684
6.59432
6.61661
6.63423
6.64689
6.65484
6.65874
6.65949
6.65832
6.64468
6.60768
6.54103
6.44223
6.29716
6.05726
5.65887
534.682
518.676
5.28106
5.60166
5.78926
5.90218
5.98279
6.04652
6.10379
6.1657
6.2294
6.29016
6.34467
6.39131
6.42996
6.46185
6.48947
6.51667
6.54751
6.57883
6.60765
6.63222
6.65168
6.66583
6.675
6.67993
6.68162
6.6814
6.6677
6.63001
6.56239
6.46243
6.31562
6.07273
5.66951
534.741
518.682
5.27919
5.59279
5.77363
5.88068
5.95575
6.01473
6.06974
6.13274
6.19937
6.26412
6.32301
6.37406
6.41708
6.45343
6.48579
6.51827
6.55393
6.58891
6.62057
6.6474
6.66869
6.68436
6.69481
6.70089
6.70381
6.70418
6.69031
6.65189
6.58334
6.48224
6.33372
6.08786
5.67983
534.796
518.689
5.27782
5.58439
5.75824
5.85897
5.92782
5.98136
6.03365
6.09747
6.16703
6.23594
6.29947
6.35521
6.40292
6.44404
6.4815
6.51957
6.55994
6.59852
6.63303
6.66216
6.68535
6.70261
6.71444
6.72177
6.72598
6.72681
6.71262
6.67342
6.60391
6.50165
6.3514
6.10259
5.6898
534.854
518.696
5.27703
5.57656
5.74323
5.83716
5.89905
5.94639
5.99557
6.05976
6.13218
6.20541
6.27382
6.33455
6.38722
6.43341
6.47626
6.52015
6.56516
6.60735
6.64472
6.67621
6.70137
6.7203
6.73359
6.74227
6.74782
6.74908
6.73455
6.69455
6.62408
6.5207
6.36874
6.11701
5.69946
534.907
518.704
5.27705
5.56964
5.72891
5.81552
5.86956
5.90979
5.9554
6.01946
6.0947
6.17242
6.24596
6.31191
6.36981
6.42134
6.46986
6.5197
6.56937
6.61521
6.65556
6.68952
6.71677
6.7375
6.75236
6.76246
6.76938
6.77102
6.75608
6.71525
6.64381
6.53928
6.38562
6.13097
5.70873
534.966
518.712
5.27797
5.56372
5.71541
5.7942
5.83946
5.87147
5.91266
5.97631
6.05444
6.13687
6.2158
6.28725
6.35062
6.40774
6.46219
6.51796
6.57227
6.62182
6.66522
6.70176
6.73123
6.75389
6.77045
6.78208
6.79044
6.79251
6.77717
6.73553
6.66315
6.55751
6.40216
6.14463
5.71769
535.018
518.721
5.27992
5.55898
5.70292
5.77338
5.809
5.83162
5.86754
5.93037
6.01134
6.09867
6.18323
6.26043
6.32956
6.39257
6.45326
6.51486
6.57378
6.6271
6.67368
6.71295
6.7448
6.76954
6.78791
6.80115
6.81099
6.81347
6.79774
6.75528
6.68196
6.5752
6.41816
6.15777
5.72621
535.077
518.73
5.28305
5.55561
5.69169
5.75329
5.77823
5.79035
5.81974
5.88132
5.96517
6.05759
6.14805
6.23128
6.30644
6.37563
6.44284
6.51013
6.57363
6.63076
6.68061
6.72276
6.75715
6.78412
6.80448
6.81948
6.83088
6.83386
6.81778
6.77455
6.70035
6.5925
6.43382
6.17059
5.73442
535.128
518.741
5.28737
5.55369
5.68191
5.73425
5.74756
5.74782
5.76958
5.82921
5.91574
6.01338
6.10999
6.19955
6.28103
6.35668
6.43068
6.50361
6.57171
6.63274
6.68601
6.73119
6.76828
6.79766
6.82014
6.837
6.85004
6.85353
6.83714
6.79318
6.7181
6.60919
6.44886
6.18283
5.74212
535.188
518.752
5.29285
5.55326
5.67371
5.71648
5.71726
5.70431
5.71712
5.77383
5.86274
5.96569
6.06871
6.16486
6.25293
6.33532
6.41625
6.49484
6.56761
6.63268
6.68952
6.73792
6.77791
6.80989
6.83469
6.85357
6.86835
6.87247
6.85584
6.81123
6.73536
6.62544
6.46352
6.19473
5.74949
535.239
518.764
5.29945
5.55435
5.66727
5.70035
5.68786
5.66027
5.66246
5.71523
5.80606
5.91435
6.02397
6.12698
6.22191
6.31127
6.39925
6.48358
6.56118
6.63046
6.69109
6.74291
6.786
6.82077
6.84803
6.86907
6.88569
6.89048
6.8737
6.8285
6.75187
6.64097
6.47748
6.20595
5.75628
535.299
518.776
5.307
5.55684
5.66258
5.68603
5.65975
5.61627
5.60614
5.65361
5.74567
5.85916
5.97558
6.0857
6.18774
6.28432
6.37934
6.46946
6.55202
6.6257
6.69033
6.7458
6.79223
6.83003
6.85998
6.88337
6.90196
6.90755
6.89072
6.84506
6.76779
6.656
6.49101
6.21683
5.76273
535.35
518.789
5.31539
5.56063
5.65969
5.67377
5.63343
5.57288
5.54855
5.58901
5.68142
5.79991
5.92327
6.04081
6.15028
6.2544
6.35645
6.45244
6.54012
6.61842
6.68727
6.74664
6.79663
6.83764
6.87046
6.89635
6.91701
6.9235
6.90673
6.86067
6.78281
6.67016
6.50371
6.2269
5.7685
535.412
518.802
5.32443
5.56549
5.6584
5.66358
5.60923
5.53074
5.49052
5.52212
5.61364
5.73665
5.86696
5.99212
6.10931
6.22125
6.33026
6.43217
6.52512
6.60823
6.68153
6.74502
6.79882
6.84332
6.87931
6.90811
6.93078
6.93827
6.92171
6.87543
6.79714
6.68375
6.51595
6.23662
5.77393
535.462
518.815
5.33395
5.57119
5.65853
5.65541
5.58744
5.49048
5.43259
5.45317
5.54229
5.66919
5.80643
5.93945
6.06466
6.18471