/*--------------------------------*- C++ -*----------------------------------*\
| =========                 |                                                 |
| \\      /  F ield         | OpenFOAM: The Open Source CFD Toolbox           |
|  \\    /   O peration     | Version:  v1906                                 |
|   \\  /    A nd           | Web:      www.OpenFOAM.com                      |
|    \\/     M anipulation  |                                                 |
\*---------------------------------------------------------------------------*/
FoamFile
{
    version     2.0;
    format      ascii;
    class       surfaceScalarField;
    location    "60";
    object      phi;
}
// * * * * * * * * * * * * * * * * * * * * * * * * * * * * * * * * * * * * * //

dimensions      [1 0 -1 0 0 0 0];
oriented        oriented;


internalField   nonuniform List<scalar> 
228225
(
2.31873e-07
-2.05327e-07
-9.16361e-10
6.90073e-07
-4.66021e-07
7.65586e-09
1.29828e-06
-6.29229e-07
2.08034e-08
1.99791e-06
-7.34924e-07
3.49949e-08
2.75283e-06
-8.0357e-07
4.82942e-08
3.53843e-06
-8.45831e-07
5.98121e-08
4.33596e-06
-8.67234e-07
6.92424e-08
5.13013e-06
-8.7123e-07
7.65645e-08
5.90768e-06
-8.59952e-07
8.18782e-08
6.65667e-06
-8.34849e-07
8.53264e-08
7.36606e-06
-7.96996e-07
8.70682e-08
8.02556e-06
-7.47277e-07
8.72342e-08
8.62558e-06
-6.8649e-07
8.59308e-08
9.15722e-06
-6.15412e-07
8.32408e-08
9.6123e-06
-5.34842e-07
7.92269e-08
9.98349e-06
-4.45639e-07
7.3935e-08
1.02644e-05
-3.48767e-07
6.73965e-08
1.04496e-05
-2.45399e-07
5.96302e-08
1.05357e-05
-1.37156e-07
5.06516e-08
1.05225e-05
-2.77828e-08
4.04836e-08
1.0401e-05
9.19964e-08
2.91576e-08
1.01721e-05
2.11707e-07
1.68112e-08
9.84003e-06
3.27812e-07
3.93166e-09
9.41338e-06
4.38302e-07
-1.19214e-08
8.90185e-06
5.40117e-07
-2.87965e-08
8.31738e-06
6.30019e-07
-4.5693e-08
7.67437e-06
7.0535e-07
-6.24187e-08
6.98755e-06
7.65391e-07
-7.85855e-08
6.26744e-06
8.13953e-07
-9.37984e-08
5.51076e-06
8.64435e-07
-1.07629e-07
4.68237e-06
9.4776e-07
-1.19135e-07
3.69762e-06
1.11068e-06
-1.25555e-07
2.45976e-06
1.35903e-06
-1.20523e-07
1.03155e-06
1.5238e-06
-9.44929e-08
1.07393e-06
-4.05446e-08
1.39047e-07
-3.59338e-07
1.46636e-08
4.94156e-07
-8.66392e-07
4.512e-08
1.00509e-06
-1.21367e-06
7.3368e-08
1.62421e-06
-1.45202e-06
9.78408e-08
2.31505e-06
-1.61273e-06
1.18167e-07
3.04941e-06
-1.71503e-06
1.34661e-07
3.80532e-06
-1.77123e-06
1.47886e-07
4.56452e-06
-1.78905e-06
1.58403e-07
5.31108e-06
-1.77344e-06
1.66691e-07
6.03095e-06
-1.72809e-06
1.73113e-07
6.7117e-06
-1.65597e-06
1.77927e-07
7.34234e-06
-1.55952e-06
1.81294e-07
7.91314e-06
-1.44092e-06
1.83303e-07
8.41547e-06
-1.30208e-06
1.83981e-07
8.84176e-06
-1.14481e-06
1.83304e-07
9.18525e-06
-9.70727e-07
1.81208e-07
9.43994e-06
-7.81454e-07
1.77587e-07
9.60055e-06
-5.78742e-07
1.72311e-07
9.66234e-06
-3.64591e-07
1.65216e-07
9.61944e-06
-1.41412e-07
1.56103e-07
9.47838e-06
8.78736e-08
1.44769e-07
9.23892e-06
3.19793e-07
1.30988e-07
8.90255e-06
5.49272e-07
1.14557e-07
8.47417e-06
7.71039e-07
9.53389e-08
7.9615e-06
9.79254e-07
7.33047e-08
7.37447e-06
1.16832e-06
4.85748e-08
6.72402e-06
1.33429e-06
2.14546e-08
6.01982e-06
1.47737e-06
-7.74992e-09
5.26609e-06
1.60638e-06
-3.85726e-08
4.45464e-06
1.74593e-06
-6.98502e-08
3.56133e-06
1.94041e-06
-9.90752e-08
2.56193e-06
2.23014e-06
-1.19695e-07
1.49098e-06
2.55145e-06
-1.20903e-07
5.11425e-07
2.59756e-06
-9.32308e-08
1.62389e-06
-3.6891e-08
1.09295e-07
-4.9631e-07
2.76465e-08
4.05259e-07
-1.23506e-06
7.259e-08
8.48589e-07
-1.7645e-06
1.07411e-07
1.39493e-06
-2.13192e-06
1.33491e-07
2.0031e-06
-2.37352e-06
1.52569e-07
2.64265e-06
-2.52124e-06
1.6661e-07
3.29336e-06
-2.59936e-06
1.77368e-07
3.93984e-06
-2.62158e-06
1.86007e-07
4.56901e-06
-2.59587e-06
1.93229e-07
5.16957e-06
-2.52819e-06
1.99497e-07
5.73181e-06
-2.42334e-06
2.05088e-07
6.24736e-06
-2.2853e-06
2.10159e-07
6.70899e-06
-2.1174e-06
2.14781e-07
7.11043e-06
-1.92256e-06
2.18958e-07
7.44665e-06
-1.70378e-06
2.2264e-07
7.71323e-06
-1.46316e-06
2.25729e-07
7.90575e-06
-1.20215e-06
2.28048e-07
8.02024e-06
-9.22743e-07
2.29353e-07
8.0533e-06
-6.27137e-07
2.29307e-07
8.00212e-06
-3.17915e-07
2.27499e-07
7.86666e-06
-2.96003e-10
2.23432e-07
7.64222e-06
3.27504e-07
2.16533e-07
7.33162e-06
6.53468e-07
2.06218e-07
6.93873e-06
9.71841e-07
1.91927e-07
6.47104e-06
1.27365e-06
1.73181e-07
5.93935e-06
1.55031e-06
1.49647e-07
5.35579e-06
1.79671e-06
1.21152e-07
4.73028e-06
2.01531e-06
8.76739e-08
4.06626e-06
2.22127e-06
4.92984e-08
3.3585e-06
2.44797e-06
5.9507e-09
2.59344e-06
2.74227e-06
-3.65113e-08
1.77782e-06
3.11789e-06
-7.17678e-08
9.7638e-07
3.43914e-06
-8.57148e-08
3.08825e-07
3.33472e-06
-6.87266e-08
1.95943e-06
-2.52024e-08
1.10681e-07
-6.41624e-07
3.46321e-08
4.05379e-07
-1.61248e-06
8.2616e-08
8.36746e-07
-2.31092e-06
1.14956e-07
1.35521e-06
-2.78717e-06
1.36682e-07
1.91712e-06
-3.08696e-06
1.51431e-07
2.49312e-06
-3.25931e-06
1.6196e-07
3.06607e-06
-3.3426e-06
1.70182e-07
3.6251e-06
-3.35797e-06
1.77241e-07
4.16175e-06
-3.31628e-06
1.83647e-07
4.66898e-06
-3.2252e-06
1.89674e-07
5.14099e-06
-3.09095e-06
1.95483e-07
5.57315e-06
-2.91874e-06
2.0117e-07
5.96143e-06
-2.7126e-06
2.06805e-07
6.30146e-06
-2.47509e-06
2.12398e-07
6.58851e-06
-2.20883e-06
2.17885e-07
6.81818e-06
-1.9162e-06
2.23252e-07
6.98634e-06
-1.59891e-06
2.28485e-07
7.08919e-06
-1.25916e-06
2.33441e-07
7.12331e-06
-8.9925e-07
2.37879e-07
7.08548e-06
-5.2165e-07
2.41443e-07
6.97079e-06
-1.29362e-07
2.43633e-07
6.78026e-06
2.74118e-07
2.43798e-07
6.51019e-06
6.82319e-07
2.41115e-07
6.16118e-06
1.08611e-06
2.34651e-07
5.73759e-06
1.47372e-06
2.23458e-07
5.24812e-06
1.83305e-06
2.06704e-07
4.70415e-06
2.15695e-06
1.83777e-07
4.11586e-06
2.44945e-06
1.54233e-07
3.48878e-06
2.73089e-06
1.17611e-07
2.82371e-06
3.03956e-06
7.3692e-08
2.12402e-06
3.41763e-06
2.45935e-08
1.41292e-06
3.84838e-06
-1.90461e-08
7.51179e-07
4.14378e-06
-4.24104e-08
2.26817e-07
3.89783e-06
-3.79566e-08
2.19981e-06
-1.21486e-08
1.08354e-07
-7.86832e-07
3.66857e-08
3.93188e-07
-1.97942e-06
8.2034e-08
8.02061e-07
-2.82955e-06
1.0969e-07
1.28323e-06
-3.39556e-06
1.2716e-07
1.79491e-06
-3.73751e-06
1.38804e-07
2.31173e-06
-3.92343e-06
1.47223e-07
2.8203e-06
-4.00509e-06
1.53844e-07
3.31324e-06
-4.01046e-06
1.59466e-07
3.78508e-06
-3.95262e-06
1.64421e-07
4.23133e-06
-3.84049e-06
1.68943e-07
4.64842e-06
-3.6814e-06
1.73276e-07
5.03292e-06
-3.481e-06
1.77646e-07
5.38046e-06
-3.2425e-06
1.82267e-07
5.68555e-06
-2.96766e-06
1.87365e-07
5.94207e-06
-2.65857e-06
1.93115e-07
6.1443e-06
-2.31813e-06
1.99597e-07
6.28803e-06
-1.94958e-06
2.06833e-07
6.37034e-06
-1.55633e-06
2.14749e-07
6.38956e-06
-1.14172e-06
2.23146e-07
6.34495e-06
-7.08828e-07
2.31671e-07
6.23631e-06
-2.60616e-07
2.39793e-07
6.06394e-06
1.99624e-07
2.46762e-07
5.82752e-06
6.67051e-07
2.51593e-07
5.52694e-06
1.13354e-06
2.53077e-07
5.16283e-06
1.5879e-06
2.49875e-07
4.73753e-06
2.01763e-06
2.40698e-07
4.25537e-06
2.41463e-06
2.245e-07
3.72142e-06
2.78303e-06
2.00448e-07
3.13997e-06
3.14482e-06
1.67633e-07
2.51594e-06
3.53841e-06
1.25338e-07
1.86279e-06
3.99533e-06
7.5655e-08
1.21675e-06
4.46714e-06
2.75488e-08
6.35058e-07
4.73025e-06
-4.38479e-09
1.8673e-07
4.35682e-06
-9.96513e-09
2.38923e-06
-1.39061e-09
1.09937e-07
-9.28571e-07
3.16172e-08
3.85754e-07
-2.32392e-06
6.85994e-08
7.68822e-07
-3.30333e-06
9.06519e-08
1.20835e-06
-3.93991e-06
1.04761e-07
1.66731e-06
-4.31076e-06
1.14232e-07
2.12606e-06
-4.50292e-06
1.20671e-07
2.57609e-06
-4.58005e-06
1.24861e-07
3.01313e-06
-4.57489e-06
1.27317e-07
3.43381e-06
-4.50184e-06
1.28457e-07
3.83523e-06
-4.37072e-06
1.28733e-07
4.21435e-06
-4.18923e-06
1.28628e-07
4.5663e-06
-3.96162e-06
1.28594e-07
4.8841e-06
-3.68944e-06
1.29051e-07
5.1607e-06
-3.37474e-06
1.30394e-07
5.38982e-06
-3.02076e-06
1.32983e-07
5.56616e-06
-2.63168e-06
1.37126e-07
5.68588e-06
-2.21245e-06
1.4306e-07
5.74689e-06
-1.76834e-06
1.50918e-07
5.74882e-06
-1.30444e-06
1.6071e-07
5.69281e-06
-8.25173e-07
1.72266e-07
5.58102e-06
-3.34115e-07
1.85201e-07
5.41615e-06
1.65563e-07
1.98854e-07
5.20078e-06
6.7012e-07
2.12222e-07
4.93636e-06
1.17397e-06
2.23918e-07
4.62296e-06
1.66905e-06
2.32197e-07
4.25935e-06
2.14607e-06
2.35135e-07
3.84368e-06
2.5994e-06
2.30896e-07
3.37436e-06
3.03451e-06
2.17855e-07
2.85121e-06
3.47363e-06
1.94411e-07
2.27913e-06
3.95135e-06
1.5924e-07
1.67686e-06
4.48387e-06
1.13877e-07
1.08664e-06
4.99076e-06
6.68054e-08
5.61104e-07
5.22475e-06
3.13733e-08
1.63693e-07
4.74061e-06
1.42476e-08
2.54621e-06
7.96525e-09
9.87873e-08
-1.05438e-06
2.69398e-08
3.44337e-07
-2.62869e-06
5.91054e-08
6.82598e-07
-3.72113e-06
7.94417e-08
1.06828e-06
-4.41891e-06
9.32298e-08
1.46993e-06
-4.81504e-06
1.0254e-07
1.87198e-06
-5.01342e-06
1.0836e-07
2.26812e-06
-5.08758e-06
1.11296e-07
2.6554e-06
-5.07419e-06
1.11931e-07
3.03148e-06
-4.9888e-06
1.10793e-07
3.39405e-06
-4.84177e-06
1.08395e-07
3.73902e-06
-4.63952e-06
1.05231e-07
4.05991e-06
-4.38431e-06
1.01721e-07
4.34971e-06
-4.07764e-06
9.8319e-08
4.60171e-06
-3.72231e-06
9.54857e-08
4.80976e-06
-3.3226e-06
9.37016e-08
4.96891e-06
-2.88433e-06
9.34087e-08
5.0759e-06
-2.41452e-06
9.49915e-08
5.12932e-06
-1.92063e-06
9.87822e-08
5.12947e-06
-1.40973e-06
1.05042e-07
5.07815e-06
-8.87855e-07
1.13915e-07
4.97814e-06
-3.59595e-07
1.25394e-07
4.83278e-06
1.71628e-07
1.39214e-07
4.64536e-06
7.02719e-07
1.54733e-07
4.41797e-06
1.23042e-06
1.7086e-07
4.15051e-06
1.75045e-06
1.85985e-07
3.83999e-06
2.2585e-06
1.98045e-07
3.48091e-06
2.75375e-06
2.04694e-07
3.06712e-06
3.24489e-06
2.034e-07
2.5951e-06
3.75423e-06
1.91439e-07
2.06964e-06
4.31021e-06
1.66641e-07
1.51305e-06
4.9109e-06
1.29655e-07
9.71445e-07
5.44516e-06
8.73468e-08
4.94508e-07
5.65043e-06
5.15368e-08
1.41303e-07
5.06613e-06
2.82616e-08
2.67697e-06
1.17255e-08
9.14045e-08
-1.16848e-06
2.26222e-08
3.1491e-07
-2.90331e-06
5.10119e-08
6.20777e-07
-4.09731e-06
7.02259e-08
9.68969e-07
-4.85115e-06
8.396e-08
1.33192e-06
-5.27152e-06
9.34403e-08
1.69607e-06
-5.47695e-06
9.93027e-08
2.05583e-06
-5.54945e-06
1.02035e-07
2.40856e-06
-5.5292e-06
1.02211e-07
2.75252e-06
-5.43328e-06
1.00438e-07
3.0848e-06
-5.27133e-06
9.72027e-08
3.40012e-06
-5.04782e-06
9.29011e-08
3.69226e-06
-4.76438e-06
8.78599e-08
3.95506e-06
-4.42294e-06
8.24346e-08
4.18245e-06
-4.02686e-06
7.7087e-08
4.36907e-06
-3.58163e-06
7.23416e-08
4.51076e-06
-3.09482e-06
6.87211e-08
4.60497e-06
-2.57548e-06
6.66836e-08
4.65081e-06
-2.03317e-06
6.66175e-08
4.64906e-06
-1.47696e-06
6.88904e-08
4.6018e-06
-9.14531e-07
7.38545e-08
4.51211e-06
-3.51755e-07
8.17704e-08
4.38369e-06
2.07247e-07
9.27164e-08
4.22012e-06
7.59708e-07
1.06503e-07
4.02387e-06
1.30403e-06
1.22561e-07
3.79475e-06
1.83971e-06
1.39784e-07
3.52876e-06
2.36799e-06
1.56434e-07
3.21811e-06
2.89419e-06
1.7015e-07
2.85319e-06
3.43177e-06
1.77997e-07
2.42705e-06
4.00382e-06
1.76529e-07
1.94285e-06
4.63189e-06
1.62531e-07
1.42367e-06
5.29497e-06
1.35152e-07
9.16525e-07
5.85324e-06
9.91763e-08
4.68648e-07
6.03398e-06
6.45643e-08
1.35746e-07
5.3623e-06
3.72696e-08
2.79998e-06
1.38832e-08
8.1572e-08
-1.27004e-06
1.98451e-08
2.82897e-07
-3.15132e-06
4.6605e-08
5.59811e-07
-4.44025e-06
6.59499e-08
8.76334e-07
-5.24796e-06
8.02146e-08
1.20758e-06
-5.69287e-06
9.00264e-08
1.54122e-06
-5.90657e-06
9.58949e-08
1.87222e-06
-5.97893e-06
9.84029e-08
2.19772e-06
-5.95298e-06
9.81921e-08
2.51564e-06
-5.84724e-06
9.59667e-08
2.82233e-06
-5.67032e-06
9.2224e-08
3.11282e-06
-5.42567e-06
8.72749e-08
3.38186e-06
-5.1149e-06
8.13943e-08
3.62392e-06
-4.73994e-06
7.48633e-08
3.83367e-06
-4.30476e-06
6.80638e-08
4.00655e-06
-3.81602e-06
6.14277e-08
4.1391e-06
-3.28287e-06
5.5411e-08
4.22911e-06
-2.71605e-06
5.04832e-08
4.27565e-06
-2.12688e-06
4.70933e-08
4.27914e-06
-1.52615e-06
4.56221e-08
4.24111e-06
-9.23072e-07
4.64918e-08
4.164e-06
-3.24838e-07
5.01164e-08
4.05096e-06
2.63365e-07
5.68349e-08
3.90539e-06
8.38368e-07
6.68316e-08
3.72973e-06
1.39957e-06
8.00285e-08
3.5241e-06
1.94935e-06
9.59197e-08
3.28481e-06
2.49382e-06
1.13375e-07
3.00395e-06
3.04449e-06
1.30479e-07
2.671e-06
3.62025e-06
1.44406e-07
2.27754e-06
4.24585e-06
1.51388e-07
1.82562e-06
4.93645e-06
1.4732e-07
1.33793e-06
5.65287e-06
1.29791e-07
8.60501e-07
6.22942e-06
1.01301e-07
4.38576e-07
6.38639e-06
6.97075e-08
1.26615e-07
5.63379e-06
4.09815e-08
2.91344e-06
1.42726e-08
7.52748e-08
-1.36404e-06
1.85819e-08
2.61299e-07
-3.38257e-06
4.51219e-08
5.17938e-07
-4.76192e-06
6.49481e-08
8.12118e-07
-5.62198e-06
7.97592e-08
1.12062e-06
-6.0915e-06
9.00606e-08
1.43177e-06
-6.31418e-06
9.63816e-08
1.7407e-06
-6.38726e-06
9.93271e-08
2.04454e-06
-6.35645e-06
9.95493e-08
2.34056e-06
-6.24103e-06
9.76918e-08
2.62513e-06
-6.0492e-06
9.42333e-08
2.89402e-06
-5.78411e-06
8.94852e-08
3.14247e-06
-5.44707e-06
8.36505e-08
3.36564e-06
-5.04015e-06
7.6964e-08
3.55911e-06
-4.56802e-06
6.97276e-08
3.7192e-06
-4.03846e-06
6.22849e-08
3.84323e-06
-3.46198e-06
5.50116e-08
3.92951e-06
-2.85072e-06
4.83207e-08
3.97729e-06
-2.21738e-06
4.26402e-08
3.98681e-06
-1.5741e-06
3.83525e-08
3.95916e-06
-9.31361e-07
3.58676e-08
3.89617e-06
-2.97581e-07
3.56507e-08
3.80029e-06
3.21008e-07
3.81516e-08
3.67412e-06
9.20693e-07
4.37643e-08
3.5195e-06
1.50135e-06
5.27508e-08
3.33613e-06
2.06752e-06
6.51129e-08
3.12018e-06
2.62931e-06
8.03823e-08
2.86371e-06
3.20353e-06
9.73475e-08
2.55598e-06
3.81418e-06
1.13733e-07
2.18794e-06
4.48787e-06
1.25938e-07
1.76082e-06
5.23413e-06
1.29386e-07
1.29615e-06
5.99715e-06
1.20345e-07
8.38065e-07
6.58844e-06
9.90903e-08
4.30039e-07
6.72329e-06
7.12841e-08
1.25772e-07
5.89586e-06
4.26684e-08
3.0259e-06
1.43834e-08
7.19814e-08
-1.45384e-06
1.77168e-08
2.49938e-07
-3.60454e-06
4.39201e-08
4.95159e-07
-5.07105e-06
6.38113e-08
7.7556e-07
-5.98117e-06
7.8708e-08
1.06884e-06
-6.47391e-06
8.9046e-08
1.36403e-06
-6.70485e-06
9.53992e-08
1.65653e-06
-6.77829e-06
9.84578e-08
1.94352e-06
-6.74246e-06
9.89415e-08
2.22214e-06
-6.61721e-06
9.74805e-08
2.48893e-06
-6.41061e-06
9.45407e-08
2.73991e-06
-6.12554e-06
9.03775e-08
2.97081e-06
-5.76317e-06
8.5137e-08
3.17748e-06
-5.32588e-06
7.89898e-08
3.35631e-06
-4.81906e-06
7.21467e-08
3.50445e-06
-4.25152e-06
6.48448e-08
3.61987e-06
-3.63483e-06
5.73607e-08
3.70128e-06
-2.98221e-06
5.00168e-08
3.74803e-06
-2.30738e-06
4.31724e-08
3.76015e-06
-1.62347e-06
3.71744e-08
3.73828e-06
-9.4198e-07
3.2416e-08
3.68363e-06
-2.72374e-07
2.93686e-08
3.59797e-06
3.78068e-07
2.85233e-08
3.48332e-06
1.00489e-06
3.03647e-08
3.3411e-06
1.60814e-06
3.53366e-08
3.17088e-06
2.19389e-06
4.37627e-08
2.96904e-06
2.77537e-06
5.56848e-08
2.72811e-06
3.3738e-06
7.05729e-08
2.43778e-06
4.01753e-06
8.68805e-08
2.08916e-06
4.73485e-06
1.01548e-07
1.68309e-06
5.53011e-06
1.10008e-07
1.23996e-06
6.33254e-06
1.07678e-07
8.01655e-07
6.93376e-06
9.29591e-08
4.10119e-07
7.04559e-06
6.93489e-08
1.19238e-07
6.14514e-06
4.20422e-08
3.13239e-06
1.37951e-08
6.8561e-08
-1.54023e-06
1.77322e-08
2.3832e-07
-3.81896e-06
4.45571e-08
4.72083e-07
-5.3699e-06
6.49963e-08
7.38736e-07
-6.32816e-06
8.02489e-08
1.01692e-06
-6.84301e-06
9.08268e-08
1.29632e-06
-7.0817e-06
9.73686e-08
1.57265e-06
-7.15531e-06
1.00606e-07
1.84322e-06
-7.11441e-06
1.01305e-07
2.10522e-06
-6.97941e-06
1.00125e-07
2.35533e-06
-6.75834e-06
9.75439e-08
2.58984e-06
-6.45394e-06
9.38193e-08
2.80494e-06
-6.06743e-06
8.90871e-08
2.99715e-06
-5.60165e-06
8.34925e-08
3.16356e-06
-5.06273e-06
7.71946e-08
3.30202e-06
-4.4604e-06
7.03583e-08
3.41105e-06
-3.8071e-06
6.31695e-08
3.48974e-06
-3.11682e-06
5.58522e-08
3.53757e-06
-2.40396e-06
4.86716e-08
3.55444e-06
-1.6823e-06
4.18977e-08
3.54061e-06
-9.64083e-07
3.58584e-08
3.4967e-06
-2.59524e-07
3.0978e-08
3.42372e-06
4.23242e-07
2.77295e-08
3.32283e-06
1.07908e-06
2.66146e-08
3.19471e-06
1.70803e-06
2.81484e-08
3.03839e-06
2.31729e-06
3.2824e-08
2.85019e-06
2.92247e-06
4.1011e-08
2.62297e-06
3.54821e-06
5.27131e-08
2.34706e-06
4.22624e-06
6.70985e-08
2.01415e-06
4.9858e-06
8.18456e-08
1.62517e-06
5.82618e-06
9.28072e-08
1.19964e-06
6.6629e-06
9.50656e-08
7.77214e-07
7.27051e-06
8.56298e-08
3.98104e-07
7.35875e-06
6.60355e-08
1.15928e-07
6.38709e-06
4.06239e-08
3.23621e-06
1.311e-08
6.82482e-08
-1.62615e-06
1.75391e-08
2.35571e-07
-4.03058e-06
4.41964e-08
4.6406e-07
-5.66285e-06
6.43773e-08
7.22631e-07
-6.66613e-06
7.93247e-08
9.90554e-07
-7.20069e-06
8.96872e-08
1.25826e-06
-7.44567e-06
9.61886e-08
1.52186e-06
-7.51856e-06
9.95821e-08
1.77881e-06
-7.47205e-06
1.00612e-07
2.02643e-06
-7.327e-06
9.99e-08
2.26159e-06
-7.09147e-06
9.78869e-08
2.48092e-06
-6.76815e-06
9.48159e-08
2.68109e-06
-6.35848e-06
9.08127e-08
2.85921e-06
-5.86584e-06
8.59985e-08
3.01307e-06
-5.29715e-06
8.0491e-08
3.14112e-06
-4.66292e-06
7.44039e-08
3.24236e-06
-3.97626e-06
6.78601e-08
3.31615e-06
-3.25168e-06
6.1006e-08
3.3621e-06
-2.504e-06
5.40233e-08
3.38e-06
-1.74738e-06
4.71146e-08
3.36981e-06
-9.94509e-07
4.05446e-08
3.33171e-06
-2.56176e-07
3.46776e-08
3.26616e-06
4.58767e-07
2.99434e-08
3.17377e-06
1.14456e-06
2.68222e-08
3.05467e-06
1.8012e-06
2.58364e-08
2.9076e-06
2.43673e-06
2.75386e-08
2.72882e-06
3.06869e-06
3.24624e-08
2.51158e-06
3.72439e-06
4.09485e-08
2.24693e-06
4.43806e-06
5.27226e-08
1.92737e-06
5.23905e-06
6.61886e-08
1.55426e-06
6.12132e-06
7.78401e-08
1.14657e-06
6.98761e-06
8.28605e-08
7.41814e-07
7.59776e-06
7.74143e-08
3.78341e-07
7.66083e-06
6.1439e-08
1.09289e-07
6.61818e-06
3.8324e-08
3.33422e-06
1.22483e-08
6.62991e-08
-1.71039e-06
1.78146e-08
2.28609e-07
-4.2379e-06
4.49072e-08
4.493e-07
-5.94888e-06
6.52549e-08
6.97557e-07
-6.99466e-06
8.01875e-08
9.53455e-07
-7.54715e-06
9.04774e-08
1.2082e-06
-7.79742e-06
9.6919e-08
1.4583e-06
-7.86905e-06
1.00314e-07
1.70136e-06
-7.81664e-06
1.01448e-07
1.93481e-06
-7.66148e-06
1.00959e-07
2.15569e-06
-7.4117e-06
9.9289e-08
2.3609e-06
-7.07011e-06
9.66823e-08
2.54759e-06
-6.6385e-06
9.32615e-08
2.71345e-06
-6.12089e-06
8.91336e-08
2.85684e-06
-5.525e-06
8.43877e-08
2.97677e-06
-4.86201e-06
7.90948e-08
3.07265e-06
-4.14552e-06
7.33194e-08
3.14409e-06
-3.39032e-06
6.71346e-08
3.19075e-06
-2.61137e-06
6.06434e-08
3.21227e-06
-1.82294e-06
5.39752e-08
3.20827e-06
-1.0379e-06
4.73234e-08
3.17839e-06
-2.67352e-07
4.09807e-08
3.12242e-06
4.79333e-07
3.53205e-08
3.04025e-06
1.19587e-06
3.07863e-08
2.93135e-06
1.88213e-06
2.78853e-08
2.79397e-06
2.54683e-06
2.71852e-08
2.6243e-06
3.20898e-06
2.92919e-08
2.41591e-06
3.89794e-06
3.47351e-08
2.16065e-06
4.64957e-06
4.36246e-08
1.85211e-06
5.49247e-06
5.49771e-08
1.49248e-06
6.41481e-06
6.59865e-08
1.10054e-06
7.30717e-06
7.22259e-08
7.1179e-07
7.9169e-06
6.94816e-08
3.6245e-07
7.95368e-06
5.64947e-08
1.04454e-07
6.8408e-06
3.56963e-08
3.42824e-06
1.13583e-08
6.64316e-08
-1.7947e-06
1.77691e-08
2.26879e-07
-4.44301e-06
4.45563e-08
4.42819e-07
-6.22932e-06
6.44044e-08
6.83531e-07
-7.31427e-06
7.88166e-08
9.29828e-07
-7.88226e-06
8.87356e-08
1.17371e-06
-8.1364e-06
9.50278e-08
1.41207e-06
-8.20597e-06
9.84849e-08
1.64271e-06
-8.1472e-06
9.98524e-08
1.86319e-06
-7.98177e-06
9.97279e-08
2.07076e-06
-7.71787e-06
9.85263e-08
2.26265e-06
-7.35855e-06
9.64879e-08
2.43644e-06
-6.90609e-06
9.37373e-08
2.59034e-06
-6.36522e-06
9.03703e-08
2.72325e-06
-5.74443e-06
8.64576e-08
2.83466e-06
-5.05551e-06
8.20422e-08
2.92432e-06
-4.3124e-06
7.71481e-08
2.9921e-06
-3.52996e-06
7.17962e-08
3.03772e-06
-2.72307e-06
6.60264e-08
3.0607e-06
-1.90589e-06
5.99043e-08
3.06039e-06
-1.09121e-06
5.3555e-08
3.03601e-06
-2.90243e-07
4.71987e-08
2.98682e-06
4.87303e-07
4.1144e-08
2.91211e-06
1.23471e-06
3.57848e-08
2.81083e-06
1.95174e-06
3.1596e-08
2.68084e-06
2.64759e-06
2.91327e-08
2.51822e-06
3.34248e-06
2.90208e-08
2.31685e-06
4.06732e-06
3.18817e-08
2.06939e-06
4.85883e-06
3.80626e-08
1.77061e-06
5.74406e-06
4.70415e-08
1.42374e-06
6.70485e-06
5.6661e-08
1.04762e-06
7.62006e-06
6.30346e-08
6.75903e-07
8.22653e-06
6.19357e-08
3.42563e-07
8.23568e-06
5.13107e-08
9.79923e-08
7.05293e-06
3.27369e-08
3.51675e-06
1.0368e-08
6.49292e-08
-1.87777e-06
1.80247e-08
2.2135e-07
-4.64445e-06
4.49248e-08
4.30749e-07
-6.5034e-06
6.45911e-08
6.62582e-07
-7.62489e-06
7.86977e-08
8.98447e-07
-8.20653e-06
8.83262e-08
1.13107e-06
-8.46352e-06
9.44125e-08
1.35772e-06
-8.53048e-06
9.77844e-08
1.5763e-06
-8.46506e-06
9.9205e-08
1.78448e-06
-8.28929e-06
9.92684e-08
1.9797e-06
-8.01154e-06
9.83802e-08
2.15948e-06
-7.63517e-06
9.67789e-08
2.3218e-06
-7.16306e-06
9.45889e-08
2.46535e-06
-6.60073e-06
9.18959e-08
2.58952e-06
-5.95741e-06
8.87535e-08
2.69419e-06
-5.24542e-06
8.51787e-08
2.77949e-06
-4.47891e-06
8.11605e-08
2.84545e-06
-3.67265e-06
7.66742e-08
2.89184e-06
-2.84123e-06
7.1703e-08
2.91806e-06
-1.99842e-06
6.62515e-08
2.92312e-06
-1.15671e-06
6.03778e-08
2.90575e-06
-3.2717e-07
5.42292e-08
2.86456e-06
4.80378e-07
4.80481e-08
2.79814e-06
1.25888e-06
4.21762e-08
2.70483e-06
2.00791e-06
3.70526e-08
2.58209e-06
2.73702e-06
3.32112e-08
2.42588e-06
3.46731e-06
3.12742e-08
2.23044e-06
4.23073e-06
3.19012e-08
1.9893e-06
5.06425e-06
3.55789e-08
1.69851e-06
5.99256e-06
4.2114e-08
1.36255e-06
6.9907e-06
4.9899e-08
1.00058e-06
7.92617e-06
5.56314e-08
6.44446e-07
8.52716e-06
5.53122e-08
3.2577e-07
8.50786e-06
4.64314e-08
9.29197e-08
7.25618e-06
2.98492e-08
3.60109e-06
9.43647e-09
6.47013e-08
-1.9606e-06
1.80093e-08
2.18684e-07
-4.843e-06
4.44638e-08
4.22856e-07
-6.77113e-06
6.34761e-08
6.47003e-07
-7.92605e-06
7.6941e-08
8.73554e-07
-8.51926e-06
8.61026e-08
1.09597e-06
-8.77796e-06
9.195e-08
1.31185e-06
-8.84171e-06
9.52909e-08
1.51924e-06
-8.76938e-06
9.68481e-08
1.71597e-06
-8.58326e-06
9.71793e-08
1.89963e-06
-8.29194e-06
9.66682e-08
2.06805e-06
-7.8992e-06
9.55508e-08
2.21956e-06
-7.40859e-06
9.39539e-08
2.35326e-06
-6.82644e-06
9.19574e-08
2.46892e-06
-6.16273e-06
8.96042e-08
2.56678e-06
-5.43024e-06
8.68951e-08
2.64726e-06
-4.64323e-06
8.37945e-08
2.7106e-06
-3.81629e-06
8.02458e-08
2.75666e-06
-2.96354e-06
7.61875e-08
2.78478e-06
-2.09816e-06
7.15708e-08
2.79372e-06
-1.23211e-06
6.63899e-08
2.78182e-06
-3.76051e-07
6.07179e-08
2.74711e-06
4.60295e-07
5.47246e-08
2.68755e-06
1.26967e-06
4.86908e-08
2.60089e-06
2.05146e-06
4.30119e-08
2.48422e-06
2.8154e-06
3.81928e-08
2.33338e-06
3.5832e-06
3.48397e-08
2.14294e-06
4.38741e-06
3.36216e-08
1.9073e-06
5.26463e-06
3.51037e-08
1.62383e-06
6.23652e-06
3.93212e-08
1.29833e-06
7.27086e-06
4.51106e-08
9.50393e-07
8.22413e-06
4.97332e-08
6.10149e-07
8.81761e-06
4.95631e-08
3.06952e-07
8.76905e-06
4.19071e-08
8.69712e-08
7.44931e-06
2.70719e-08
3.68034e-06
8.55551e-09
6.33213e-08
-2.04224e-06
1.81972e-08
2.1359e-07
-5.03787e-06
4.45006e-08
4.11802e-07
-7.03251e-06
6.30783e-08
6.28006e-07
-8.21837e-06
7.60378e-08
8.45387e-07
-8.82149e-06
8.47692e-08
1.05804e-06
-9.08101e-06
9.03247e-08
1.26383e-06
-9.1411e-06
9.35303e-08
1.46091e-06
-9.06164e-06
9.51049e-08
1.6472e-06
-8.8652e-06
9.55896e-08
1.82047e-06
-8.56062e-06
9.53534e-08
1.97878e-06
-8.15221e-06
9.4629e-08
2.12081e-06
-7.64422e-06
9.35421e-08
2.24599e-06
-7.04384e-06
9.21655e-08
2.35443e-06
-6.36176e-06
9.05312e-08
2.4467e-06
-5.61118e-06
8.8626e-08
2.52345e-06
-4.80644e-06
8.63951e-08
2.58516e-06
-3.9618e-06
8.3754e-08
2.63176e-06
-3.0908e-06
8.06056e-08
2.66254e-06
-2.20585e-06
7.68547e-08
2.67604e-06
-1.3181e-06
7.24374e-08
2.67015e-06
-4.37585e-07
6.73566e-08
2.6423e-06
4.26368e-07
6.17077e-08
2.58975e-06
1.26645e-06
5.57055e-08
2.50963e-06
2.0818e-06
4.96957e-08
2.3986e-06
2.88219e-06
4.41497e-08
2.25243e-06
3.6896e-06
3.9652e-08
2.06607e-06
4.53677e-06
3.68653e-08
1.83481e-06
5.45933e-06
3.63969e-08
1.55739e-06
6.47529e-06
3.84416e-08
1.24099e-06
7.54482e-06
4.21896e-08
9.05667e-07
8.51375e-06
4.54139e-08
5.79929e-07
9.09816e-06
4.4926e-08
2.90844e-07
9.01997e-06
3.80432e-08
8.21594e-08
7.63353e-06
2.46607e-08
3.75547e-06
7.83176e-09
6.28226e-08
-2.12335e-06
1.81692e-08
2.10318e-07
-5.22936e-06
4.38946e-08
4.03224e-07
-7.28719e-06
6.16866e-08
6.12054e-07
-8.50119e-06
7.39032e-08
8.20832e-07
-9.11244e-06
8.20932e-08
1.02429e-06
-9.37189e-06
8.73463e-08
1.22055e-06
-9.42789e-06
9.04587e-08
1.40789e-06
-9.34115e-06
9.21053e-08
1.58432e-06
-9.13449e-06
9.27912e-08
1.74781e-06
-8.81705e-06
9.28644e-08
1.89665e-06
-8.39366e-06
9.25534e-08
2.02976e-06
-7.86937e-06
9.19853e-08
2.14684e-06
-7.2522e-06
9.12281e-08
2.24826e-06
-6.55354e-06
9.03076e-08
2.33485e-06
-5.78702e-06
8.92025e-08
2.4075e-06
-4.96699e-06
8.78464e-08
2.46688e-06
-4.10737e-06
8.61373e-08
2.51308e-06
-3.221e-06
8.39498e-08
2.54542e-06
-2.31939e-06
8.11506e-08
2.5623e-06
-1.41267e-06
7.76235e-08
2.56132e-06
-5.0996e-07
7.33033e-08
2.53934e-06
3.80075e-07
6.82084e-08
2.49295e-06
1.25028e-06
6.24782e-08
2.41869e-06
2.09959e-06
5.63989e-08
2.31277e-06
2.93761e-06
5.04011e-08
2.17086e-06
3.78634e-06
4.50429e-08
1.98827e-06
4.67824e-06
4.09742e-08
1.76119e-06
5.64741e-06
3.88236e-08
1.48968e-06
6.70767e-06
3.88993e-08
1.18227e-06
7.81127e-06
4.06744e-08
8.59502e-07
8.79384e-06
4.2374e-08
5.48297e-07
9.36782e-06
4.12642e-08
2.73624e-07
9.25968e-06
3.48038e-08
7.68051e-08
7.80791e-06
2.26066e-08
3.82581e-06
7.24917e-09
6.15112e-08
-2.20324e-06
1.82632e-08
2.05526e-07
-5.41707e-06
4.35913e-08
3.92993e-07
-7.53547e-06
6.073e-08
5.94768e-07
-8.77532e-06
7.22806e-08
7.95575e-07
-9.39326e-06
7.99428e-08
9.90666e-07
-9.65191e-06
8.48541e-08
1.17835e-06
-9.70346e-06
8.78065e-08
1.357e-06
-9.60931e-06
8.94515e-08
1.5247e-06
-9.39252e-06
9.02672e-08
1.67956e-06
-9.06256e-06
9.05837e-08
1.82008e-06
-8.62485e-06
9.06236e-08
1.94538e-06
-8.08524e-06
9.05114e-08
2.05541e-06
-7.45259e-06
9.03095e-08
2.15075e-06
-6.73897e-06
9.00373e-08
2.23243e-06
-5.95842e-06
8.96663e-08
2.30159e-06
-5.12531e-06
8.91218e-08
2.35907e-06
-4.25319e-06
8.82889e-08
2.40514e-06
-3.35414e-06
8.70231e-08
2.43914e-06
-2.43861e-06
8.51612e-08
2.45941e-06
-1.51554e-06
8.2543e-08
2.46323e-06
-5.92877e-07
7.90423e-08
2.44695e-06
3.21688e-07
7.46022e-08
2.4065e-06
1.22138e-06
6.92833e-08
2.33775e-06
2.10495e-06
6.33034e-08
2.23649e-06
2.98173e-06
5.70443e-08
2.0983e-06
3.87338e-06
5.10329e-08
1.91886e-06
4.81164e-06
4.59009e-08
1.69524e-06
5.82855e-06
4.22863e-08
1.42885e-06
6.93324e-06
4.05799e-08
1.12952e-06
8.06983e-06
4.04818e-08
8.18202e-07
9.06421e-06
4.061e-08
5.20304e-07
9.62674e-06
3.86705e-08
2.58759e-07
9.48871e-06
3.23423e-08
7.23916e-08
7.97338e-06
2.10558e-08
3.8921e-06
6.87638e-09
6.08953e-08
-2.28242e-06
1.81647e-08
2.02166e-07
-5.60117e-06
4.27384e-08
3.84706e-07
-7.77704e-06
5.89415e-08
5.7986e-07
-9.0402e-06
6.96469e-08
7.73114e-07
-9.6633e-06
7.67071e-08
9.60245e-07
-9.92039e-06
8.12762e-08
1.13976e-06
-9.96715e-06
8.41001e-08
1.31013e-06
-9.86552e-06
8.57786e-08
1.46955e-06
-9.63876e-06
8.67523e-08
1.61627e-06
-9.29667e-06
8.73293e-08
1.74892e-06
-8.84529e-06
8.77267e-08
1.86682e-06
-8.29126e-06
8.80681e-08
1.97005e-06
-7.64428e-06
8.84125e-08
2.05936e-06
-6.91711e-06
8.87754e-08
2.13597e-06
-6.1242e-06
8.91251e-08
2.20118e-06
-5.27995e-06
8.93829e-08
2.25607e-06
-4.39755e-06
8.9427e-08
2.30108e-06
-3.4883e-06
8.90996e-08
2.33571e-06
-2.5615e-06
8.82152e-08
2.35829e-06
-1.62475e-06
8.65761e-08
2.36592e-06
-6.84555e-07
8.39998e-08
2.35452e-06
2.52668e-07
8.03557e-08
2.31941e-06
1.1808e-06
7.56207e-08
2.25582e-06
2.09853e-06
6.99354e-08
2.15908e-06
3.01476e-06
6.36238e-08
2.02463e-06
3.95053e-06
5.71764e-08
1.84848e-06
4.93643e-06
5.12083e-08
1.62857e-06
6.0019e-06
4.63631e-08
1.36755e-06
7.15091e-06
4.30929e-08
1.07645e-06
8.31934e-06
4.12781e-08
7.76578e-07
9.32385e-06
3.98753e-08
4.91861e-07
9.87413e-06
3.70006e-08
2.43425e-07
9.70636e-06
3.05946e-08
6.7688e-08
8.12929e-06
1.99848e-08
3.95386e-06
6.70271e-09
5.96727e-08
-2.36033e-06
1.81189e-08
1.97767e-07
-5.78139e-06
4.20257e-08
3.75496e-07
-8.01222e-06
5.73655e-08
5.64561e-07
-9.29661e-06
6.72705e-08
7.51043e-07
-9.92359e-06
7.37353e-08
9.31124e-07
-1.01785e-05
7.79353e-08
1.10347e-06
-1.02201e-05
8.05861e-08
1.2666e-06
-1.0111e-05
8.22481e-08
1.41881e-06
-9.87436e-06
8.33294e-08
1.55846e-06
-9.5205e-06
8.4118e-08
1.6843e-06
-9.05601e-06
8.48232e-08
1.79575e-06
-8.48833e-06
8.55659e-08
1.89303e-06
-7.82801e-06
8.64003e-08
1.97704e-06
-7.08851e-06
8.73379e-08
2.04912e-06
-6.28467e-06
8.8344e-08
2.11077e-06
-5.43098e-06
8.93378e-08
2.16323e-06
-4.54025e-06
9.01944e-08
2.20715e-06
-3.62301e-06
9.07492e-08
2.24217e-06
-2.68737e-06
9.08021e-08
2.26666e-06
-1.73943e-06
9.01277e-08
2.27761e-06
-7.84046e-07
8.84965e-08
2.27058e-06
1.73924e-07
8.571e-08
2.24033e-06
1.12933e-06
8.1661e-08
2.18147e-06
2.0809e-06
7.64053e-08
2.08887e-06
3.03707e-06
7.01982e-08
1.95782e-06
4.01797e-06
6.34846e-08
1.78467e-06
5.05256e-06
5.68576e-08
1.56819e-06
6.16721e-06
5.09667e-08
1.31218e-06
7.36033e-06
4.63218e-08
1.02876e-06
8.55947e-06
4.29627e-08
7.39478e-07
9.57264e-06
4.0122e-08
4.66855e-07
1.01101e-05
3.62702e-08
2.30299e-07
9.91309e-06
2.96308e-08
6.38458e-08
8.2764e-06
1.94906e-08
4.01169e-06
6.79451e-09
5.90649e-08
-2.4374e-06
1.7886e-08
1.9469e-07
-5.95793e-06
4.08108e-08
3.68163e-07
-8.24083e-06
5.50542e-08
5.51623e-07
-9.54417e-06
6.40209e-08
7.31762e-07
-1.01736e-05
6.984e-08
9.0517e-07
-1.04256e-05
7.36742e-08
1.07069e-06
-1.04619e-05
7.61736e-08
1.22696e-06
-1.03451e-05
7.78407e-08
1.37236e-06
-1.00989e-05
7.90443e-08
1.50534e-06
-9.73358e-06
8.00505e-08
1.6247e-06
-9.25649e-06
8.1061e-08
1.72997e-06
-8.67585e-06
8.21955e-08
1.82144e-06
-8.00303e-06
8.35056e-08
1.90011e-06
-7.25222e-06
8.50004e-08
1.96743e-06
-6.43869e-06
8.66442e-08
2.02507e-06
-5.57701e-06
8.83558e-08
2.07444e-06
-4.67968e-06
9.00102e-08
2.11641e-06
-3.75646e-06
9.144e-08
2.15084e-06
-2.81427e-06
9.24364e-08
2.17622e-06
-1.85761e-06
9.27536e-08
2.18952e-06
-8.89519e-07
9.21234e-08
2.18609e-06
8.70142e-08
9.02854e-08
2.16019e-06
1.06811e-06
8.70486e-08
2.10583e-06
2.0528e-06
8.23777e-08
2.01737e-06
3.04899e-06
7.6449e-08
1.88994e-06
4.07563e-06
6.9653e-08
1.72015e-06
5.15964e-06
6.2556e-08
1.5075e-06
6.32383e-06
5.58114e-08
1.2569e-06
7.56068e-06
4.9981e-08
9.81397e-07
8.78939e-06
4.52451e-08
7.02678e-07
9.8099e-06
4.10836e-08
4.41897e-07
1.03343e-05
3.62718e-08
2.17011e-07
1.01085e-05
2.92747e-08
5.98357e-08
8.41436e-06
1.93637e-08
4.06532e-06
6.99067e-09
5.80161e-08
-2.51318e-06
1.76524e-08
1.90914e-07
-6.13055e-06
3.96183e-08
3.60336e-07
-8.46314e-06
5.28012e-08
5.38765e-07
-9.78354e-06
6.08591e-08
7.13344e-07