/*--------------------------------*- C++ -*----------------------------------*\
| =========                 |                                                 |
| \\      /  F ield         | OpenFOAM: The Open Source CFD Toolbox           |
|  \\    /   O peration     | Version:  v1906                                 |
|   \\  /    A nd           | Web:      www.OpenFOAM.com                      |
|    \\/     M anipulation  |                                                 |
\*---------------------------------------------------------------------------*/
FoamFile
{
    version     2.0;
    format      ascii;
    class       volVectorField;
    location    "60";
    object      U;
}
// * * * * * * * * * * * * * * * * * * * * * * * * * * * * * * * * * * * * * //

dimensions      [0 1 -1 0 0 0 0];


internalField   nonuniform List<vector> 
78750
(
(0.000132386 -0.00112573 0.000230581)
(0.00069745 -0.00253767 0.000763653)
(0.00158712 -0.00340686 0.00127959)
(0.00268598 -0.0039442 0.00172824)
(0.00389969 -0.00426934 0.00209462)
(0.00517832 -0.0044517 0.00238044)
(0.00648978 -0.00453019 0.00259385)
(0.00780769 -0.00452625 0.00274453)
(0.009109 -0.00445119 0.00284161)
(0.0103731 -0.00431089 0.00289295)
(0.011581 -0.00410861 0.00290493)
(0.0127151 -0.00384653 0.00288256)
(0.0137592 -0.00352671 0.00282976)
(0.0146979 -0.0031515 0.00274959)
(0.0155171 -0.0027239 0.00264449)
(0.0162038 -0.00224764 0.00251655)
(0.0167467 -0.00172742 0.00236767)
(0.0171361 -0.00116908 0.00219975)
(0.0173642 -0.000579796 0.00201492)
(0.0174275 3.12544e-05 0.00181569)
(0.0173196 0.00065206 0.00160435)
(0.017034 0.0012693 0.00138452)
(0.0165724 0.00186794 0.00116096)
(0.0159447 0.00243045 0.000939236)
(0.0151662 0.00293689 0.000725567)
(0.0142556 0.00336668 0.000526802)
(0.013235 0.00370171 0.000349677)
(0.0121298 0.00393256 0.000199717)
(0.0109644 0.0040725 7.95352e-05)
(0.00975237 0.00418931 -1.40806e-05)
(0.0084691 0.00447209 -9.21851e-05)
(0.00700447 0.00527055 -0.000171333)
(0.00516027 0.00682591 -0.000258137)
(0.00291203 0.00826657 -0.000310096)
(0.00072519 0.00613771 -0.000200656)
(3.21054e-05 -0.00322829 0.00052678)
(0.000468537 -0.00757377 0.00148261)
(0.00119724 -0.0103932 0.00224491)
(0.00213721 -0.0122667 0.00282138)
(0.00322538 -0.0135264 0.00325109)
(0.00441159 -0.0143344 0.00356997)
(0.00564983 -0.0147742 0.00380518)
(0.00690702 -0.0149035 0.00397559)
(0.00815582 -0.014761 0.00409453)
(0.00937195 -0.0143742 0.00417104)
(0.0105337 -0.013764 0.00421098)
(0.0116215 -0.0129482 0.00421794)
(0.0126185 -0.0119423 0.00419386)
(0.0135092 -0.0107607 0.00413951)
(0.0142805 -0.00941784 0.0040548)
(0.0149204 -0.00792765 0.003939)
(0.0154184 -0.00630486 0.00379093)
(0.0157652 -0.00456568 0.00360908)
(0.0159521 -0.00272872 0.00339184)
(0.0159705 -0.000816119 0.00313773)
(0.0158202 0.00114481 0.00284577)
(0.0155059 0.00312051 0.0025163)
(0.0150299 0.00507055 0.00215166)
(0.014397 0.0069478 0.00175712)
(0.0136169 0.00869995 0.00134177)
(0.0127042 0.0102748 0.000918654)
(0.0116765 0.0116319 0.000503903)
(0.0105503 0.012765 0.000114515)
(0.00934341 0.0137435 -0.000234793)
(0.00806344 0.0147853 -0.000529905)
(0.00667428 0.0163431 -0.000747133)
(0.00510657 0.0189925 -0.000850813)
(0.00336321 0.0224775 -0.000809844)
(0.00161577 0.0239004 -0.000619125)
(0.000177962 0.0157216 -0.00025868)
(1.55143e-05 -0.00469667 0.000823508)
(0.000369105 -0.0115524 0.00215522)
(0.000994423 -0.0164144 0.00311879)
(0.00182905 -0.0198168 0.00377815)
(0.00279317 -0.0221178 0.00421437)
(0.0038246 -0.0235823 0.00450167)
(0.00489352 -0.0243978 0.00469994)
(0.00597367 -0.0246745 0.00484347)
(0.00703322 -0.0244819 0.00494878)
(0.00805338 -0.0238745 0.00502631)
(0.00901796 -0.0228966 0.00508229)
(0.00991227 -0.0215854 0.00512019)
(0.0107233 -0.0199727 0.00514166)
(0.0114399 -0.0180866 0.00514701)
(0.012053 -0.0159525 0.0051355)
(0.0125539 -0.0135924 0.00510607)
(0.012936 -0.0110285 0.00505609)
(0.0131923 -0.00828396 0.00498181)
(0.0133166 -0.00538487 0.00487823)
(0.0133038 -0.00236219 0.00473893)
(0.013151 0.000745335 0.00455597)
(0.0128546 0.00388797 0.00432024)
(0.0124126 0.00700445 0.0040229)
(0.0118297 0.010023 0.00365716)
(0.0111155 0.0128665 0.00322072)
(0.0102851 0.0154633 0.00271784)
(0.00935679 0.0177671 0.00216026)
(0.00835116 0.0197879 0.00156719)
(0.00728924 0.021651 0.000964658)
(0.00616761 0.0236812 0.000384763)
(0.00495351 0.0264061 -0.000124347)
(0.0036178 0.030151 -0.000482833)
(0.00225718 0.0337887 -0.000607989)
(0.00100533 0.033462 -0.00049119)
(9.33549e-05 0.0202147 -0.000168734)
(1.53776e-05 -0.00628638 0.000924559)
(0.000371793 -0.0157602 0.00225948)
(0.000987835 -0.0225971 0.00312431)
(0.00179469 -0.0273221 0.00365781)
(0.00270137 -0.0303714 0.00397458)
(0.00364015 -0.032184 0.00415894)
(0.00458691 -0.0331089 0.00427199)
(0.00552883 -0.0333376 0.00435164)
(0.00644046 -0.0329744 0.00441202)
(0.00730652 -0.032096 0.00445948)
(0.00811845 -0.0307638 0.00449732)
(0.00886859 -0.0290285 0.00452731)
(0.00954964 -0.0269314 0.00455072)
(0.0101548 -0.0245098 0.00456718)
(0.0106749 -0.0218057 0.00457333)
(0.0111038 -0.0188446 0.0045699)
(0.0114358 -0.0156359 0.0045607)
(0.0116626 -0.0121997 0.00454612)
(0.0117783 -0.00855885 0.00452515)
(0.0117773 -0.00473884 0.00449511)
(0.0116535 -0.000772415 0.00445048)
(0.0114029 0.00329298 0.0043817)
(0.011023 0.00738666 0.00427382)
(0.0105107 0.0114091 0.00410745)
(0.00986874 0.0152377 0.00386214)
(0.00910844 0.0187539 0.00352252)
(0.00824857 0.0218922 0.00308399)
(0.00731008 0.0246972 0.00255412)
(0.0063082 0.0273791 0.00195073)
(0.0052452 0.030352 0.00130349)
(0.0041112 0.0341341 0.000668891)
(0.00290403 0.0387253 0.000153196)
(0.00175573 0.0422783 -0.000124754)
(0.000756369 0.0404222 -0.000155519)
(6.07573e-05 0.0232962 -1.27845e-05)
(1.44173e-05 -0.00788473 0.000970106)
(0.00036404 -0.0198599 0.00225149)
(0.000953291 -0.0284659 0.00301051)
(0.00171156 -0.0342828 0.00344624)
(0.00254552 -0.0378784 0.00369212)
(0.00339516 -0.0398933 0.00383087)
(0.00423731 -0.0408265 0.00391298)
(0.00506762 -0.0409537 0.00397086)
(0.00587162 -0.04041 0.0040157)
(0.006634 -0.0392873 0.00405022)
(0.00735092 -0.037661 0.00407583)
(0.00801578 -0.035596 0.00409327)
(0.00862174 -0.0331406 0.00410364)
(0.0091638 -0.0303152 0.00411116)
(0.00963176 -0.0271348 0.00412039)
(0.0100145 -0.023626 0.00413371)
(0.0103032 -0.019817 0.0041542)
(0.0104921 -0.0157367 0.0041847)
(0.0105776 -0.0114139 0.00422711)
(0.0105577 -0.00687678 0.00428148)
(0.010432 -0.00215607 0.00434453)
(0.0102005 0.0027075 0.0044074)
(0.00986315 0.00764913 0.00445309)
(0.00941922 0.012567 0.00445509)
(0.00886819 0.0173207 0.00437976)
(0.0082122 0.0217598 0.00419426)
(0.0074585 0.02579 0.00387698)
(0.00661789 0.0294558 0.0034229)
(0.00569881 0.0330001 0.00284111)
(0.00470386 0.0368618 0.00215661)
(0.00363526 0.0414683 0.00143264)
(0.00251703 0.0464744 0.000797441)
(0.0014946 0.049588 0.000392317)
(0.000631534 0.0461612 0.000217042)
(4.77281e-05 0.0256964 0.000151035)
(2.0775e-05 -0.00950105 0.000840466)
(0.00036518 -0.0238708 0.00187413)
(0.00092456 -0.0340568 0.00244447)
(0.00162649 -0.0407683 0.00275487)
(0.0023816 -0.0447538 0.00292069)
(0.00313865 -0.0468712 0.00300497)
(0.00388294 -0.0477642 0.00304389)
(0.00461718 -0.0477747 0.00305949)
(0.00533292 -0.0470566 0.00305994)
(0.00601716 -0.0457137 0.00304713)
(0.00666454 -0.0438332 0.00302277)
(0.00726893 -0.0414756 0.00298918)
(0.00782536 -0.038664 0.00294961)
(0.0083215 -0.0354155 0.00290873)
(0.00874348 -0.0317614 0.00287205)
(0.00908168 -0.0277399 0.00284646)
(0.00932875 -0.0233947 0.00283984)
(0.0094798 -0.0187723 0.00286067)
(0.00953274 -0.0139181 0.00291743)
(0.0094883 -0.00887223 0.00301749)
(0.00934935 -0.00366866 0.0031654)
(0.00912011 0.00165904 0.00335967)
(0.00880517 0.00706528 0.00358809)
(0.00840795 0.0124769 0.00382299)
(0.00792948 0.017785 0.00401989)
(0.0073685 0.0228621 0.00412394)
(0.00672335 0.0276231 0.00408414)
(0.0059932 0.0321152 0.00386672)
(0.00517648 0.0365861 0.00345853)
(0.00427154 0.0414545 0.00287017)
(0.0032843 0.0470063 0.00216111)
(0.00225522 0.0525387 0.00147066)
(0.00132861 0.05541 0.000955487)
(0.000555423 0.0507541 0.000612967)
(4.32971e-05 0.0276029 0.000296467)
(1.94324e-05 -0.0109647 0.000710664)
(0.000327264 -0.0274071 0.00158537)
(0.00082209 -0.038888 0.00208785)
(0.00144104 -0.0462822 0.00238087)
(0.00210355 -0.0505303 0.00254664)
(0.0027655 -0.0526922 0.00263284)
(0.00341802 -0.0535309 0.00267038)
(0.00406681 -0.0534286 0.00267999)
(0.00470539 -0.0525496 0.00266934)
(0.00531981 -0.0510074 0.00264049)
(0.00590423 -0.0488854 0.00259551)
(0.00645625 -0.046217 0.00253519)
(0.00696584 -0.0430131 0.00246261)
(0.00741794 -0.0393022 0.00238174)
(0.00780169 -0.035125 0.00229779)
(0.0081081 -0.0305362 0.00221734)
(0.00833026 -0.0256017 0.00214865)
(0.00846423 -0.020392 0.00210168)
(0.00850909 -0.0149749 0.00208791)
(0.00846671 -0.00940851 0.00211997)
(0.00834098 -0.00373871 0.00221048)
(0.00813716 0.00199751 0.00236945)
(0.00786097 0.00776208 0.0025992)
(0.00751718 0.0135045 0.00288743)
(0.0071076 0.0191549 0.00320072)
(0.00662972 0.0246352 0.003484)
(0.00607703 0.029906 0.00367034)
(0.00544099 0.0350435 0.00369723)
(0.00471278 0.0402962 0.00351856)
(0.0038873 0.0460214 0.00311485)
(0.0029728 0.052311 0.00252295)
(0.00202628 0.0581142 0.00187146)
(0.00118178 0.0606033 0.00131208)
(0.00048377 0.0547286 0.000849808)
(3.55932e-05 0.0292123 0.00035872)
(2.03075e-05 -0.0122935 0.00058691)
(0.000300132 -0.0306217 0.00132614)
(0.000748133 -0.0433065 0.00177092)
(0.00130835 -0.0513737 0.00204265)
(0.00190714 -0.0559213 0.00219983)
(0.00250659 -0.0581788 0.00228079)
(0.00309833 -0.059008 0.0023119)
(0.00368846 -0.0588382 0.00231112)
(0.00427162 -0.0578491 0.00228935)
(0.00483174 -0.0561554 0.00224906)
(0.00536754 -0.0538162 0.00219036)
(0.00587373 -0.0508471 0.00211477)
(0.00633645 -0.0472704 0.00202537)
(0.00674521 -0.04312 0.00192589)
(0.00709057 -0.0384497 0.00182106)
(0.00736452 -0.0333342 0.00171688)
(0.00756135 -0.0278633 0.00162074)
(0.00767817 -0.0221322 0.00154169)
(0.0077149 -0.0162306 0.00149075)
(0.00767399 -0.0102344 0.00148079)
(0.00755985 -0.00420039 0.00152595)
(0.00737824 0.00183185 0.00164003)
(0.00713548 0.00783343 0.00183295)
(0.00683699 0.0137797 0.00210471)
(0.0064851 0.0196463 0.00243803)
(0.00607665 0.0254159 0.00279289)
(0.00560226 0.031111 0.00310835)
(0.00504791 0.036851 0.00331267)
(0.00439863 0.042887 0.0033361)
(0.00364493 0.0495032 0.00312721)
(0.00279351 0.0565847 0.00268863)
(0.0019102 0.0627462 0.0021201)
(0.00112004 0.0650048 0.00155665)
(0.000461237 0.0581491 0.0010114)
(3.85024e-05 0.0306228 0.000393338)
(1.76705e-05 -0.013462 0.000499761)
(0.00026779 -0.0334452 0.0011646)
(0.000672245 -0.0471812 0.00159541)
(0.00118174 -0.0558273 0.00187486)
(0.00172769 -0.060623 0.00204254)
(0.00227488 -0.06295 0.00213237)
(0.00282019 -0.0637586 0.0021713)
(0.00336466 -0.0635089 0.00217407)
(0.00389969 -0.0624005 0.00215182)
(0.00441759 -0.0605315 0.00210753)
(0.00491427 -0.0579416 0.00204197)
(0.00538009 -0.0546506 0.00195789)
(0.00580599 -0.0506795 0.00185763)
(0.00618275 -0.046068 0.00174385)
(0.00650194 -0.0408841 0.00161996)
(0.00675674 -0.0352211 0.00149051)
(0.00694237 -0.0291898 0.00136152)
(0.00705623 -0.0229076 0.00124105)
(0.00709795 -0.0164864 0.0011397)
(0.00706912 -0.0100216 0.00107068)
(0.00697307 -0.00358681 0.00104961)
(0.00681457 0.00276529 0.00109321)
(0.00659931 0.00900175 0.00121648)
(0.00633258 0.0151113 0.00142789)
(0.00601705 0.0211072 0.00172293)
(0.00565029 0.0270344 0.00207759)
(0.00522311 0.03299 0.00244512)
(0.00472031 0.0391559 0.00275841)
(0.0041246 0.045799 0.00293745)
(0.00342406 0.0531265 0.00290611)
(0.00262356 0.0608119 0.00263175)
(0.00179578 0.0671677 0.00217634)
(0.00105342 0.0691306 0.00164897)
(0.000431209 0.0613194 0.00107029)
(3.5368e-05 0.0319465 0.000392206)
(1.64115e-05 -0.0145501 0.000443133)
(0.000246023 -0.0361208 0.00106476)
(0.000620478 -0.0509066 0.00148646)
(0.00109449 -0.0601682 0.00176553)
(0.00160308 -0.0652612 0.00193285)
(0.00211282 -0.0677039 0.00202152)
(0.00262206 -0.0685322 0.00205944)
(0.00312967 -0.0682385 0.00206214)
(0.00362804 -0.067033 0.00203847)
(0.0041106 -0.0650078 0.00199203)
(0.00457084 -0.0622 0.00192636)
(0.00500154 -0.0586251 0.00184398)
(0.00539459 -0.0543045 0.0017468)
(0.00574197 -0.0492857 0.00163665)
(0.00603674 -0.0436488 0.0015155)
(0.00627356 -0.0375032 0.00138595)
(0.00644881 -0.0309768 0.00125185)
(0.00656048 -0.0242036 0.00111903)
(0.00660821 -0.0173115 0.000995793)
(0.00659304 -0.0104104 0.000893497)
(0.00651742 -0.00358684 0.000826652)
(0.006385 0.00309629 0.000812197)
(0.00620018 0.00960177 0.000867321)
(0.00596709 0.0159261 0.00100581)
(0.00568758 0.0221088 0.00123293)
(0.00535877 0.0282415 0.0015393)
(0.00497134 0.0344832 0.00189519)
(0.00450978 0.0410746 0.00224681)
(0.00395605 0.0483049 0.00251658)
(0.00329681 0.0563184 0.0026152)
(0.00253471 0.064598 0.00248063)
(0.00174551 0.071183 0.00213584)
(0.00103227 0.0729324 0.00166198)
(0.000425932 0.0642928 0.00108218)
(3.74821e-05 0.0332181 0.000382199)
(1.58076e-05 -0.0155381 0.000409165)
(0.000234804 -0.0385551 0.00100804)
(0.000593125 -0.0542947 0.00142787)
(0.00104629 -0.0641054 0.00170944)
(0.00153081 -0.0694526 0.00187829)
(0.00201465 -0.0719838 0.00196743)
(0.00249698 -0.072813 0.0020054)
(0.00297703 -0.0724599 0.00200833)
(0.00344716 -0.0711412 0.00198438)
(0.00390059 -0.0689463 0.00193857)
(0.00433134 -0.0659078 0.00187428)
(0.00473266 -0.0620384 0.00179385)
(0.00509736 -0.0573621 0.00169891)
(0.00541871 -0.0519345 0.00159062)
(0.00569118 -0.0458479 0.00146996)
(0.00591073 -0.0392256 0.00133821)
(0.00607465 -0.0322097 0.0011977)
(0.00618136 -0.0249485 0.0010526)
(0.00623042 -0.0175838 0.000909609)
(0.0062223 -0.0102393 0.000778672)
(0.00615851 -0.00301599 0.000673236)
(0.00604158 0.00401009 0.000609751)
(0.00587485 0.0107933 0.000606014)
(0.00566162 0.017334 0.000678449)
(0.0054033 0.0236936 0.000838259)
(0.0050971 0.030005 0.00108637)
(0.00473423 0.0364837 0.00140726)
(0.00429987 0.043425 0.00176166)
(0.00377647 0.0511388 0.00208054)
(0.00315035 0.0597095 0.00227074)
(0.00242255 0.0684443 0.00224978)
(0.00167137 0.0751471 0.00200683)
(0.00098924 0.0766349 0.0015966)
(0.000405219 0.0671637 0.00104255)
(3.40247e-05 0.0344522 0.000357712)
(1.46666e-05 -0.0165323 0.000393656)
(0.000223456 -0.0410261 0.000985974)
(0.00056551 -0.0577451 0.00140573)
(0.000997547 -0.0681212 0.00168551)
(0.00145792 -0.0737336 0.0018509)
(0.00191613 -0.0763631 0.00193678)
(0.00237207 -0.0772026 0.00197254)
(0.00282517 -0.0767998 0.00197461)
(0.00326795 -0.0753782 0.00195151)
(0.00369383 -0.073027 0.00190846)
(0.00409711 -0.0697768 0.00184911)
(0.00447163 -0.0656404 0.001776)
(0.00481109 -0.060646 0.00169065)
(0.00510993 -0.0548569 0.00159366)
(0.00536384 -0.048376 0.00148489)
(0.00556987 -0.0413366 0.00136404)
(0.00572611 -0.0338904 0.00123143)
(0.00583141 -0.0261941 0.00108898)
(0.00588532 -0.018398 0.000941133)
(0.00588791 -0.0106345 0.000795721)
(0.00583988 -0.0030136 0.000664425)
(0.00574259 0.00437869 0.000562515)
(0.00559801 0.0114887 0.000507617)
(0.00540805 0.0183165 0.000517642)
(0.00517305 0.0249357 0.000607886)
(0.00488973 0.0315076 0.000787029)
(0.00454946 0.0382892 0.00105129)
(0.00413822 0.0456188 0.00137551)
(0.00363953 0.0538232 0.00170267)
(0.00304022 0.0629338 0.00194291)
(0.00234046 0.072102 0.00200188)
(0.00161997 0.0789236 0.00184166)
(0.000962055 0.0801772 0.00149393)
(0.000393493 0.0699233 0.000979737)
(3.33129e-05 0.0356425 0.000329695)
(1.52657e-05 -0.0174547 0.000383626)
(0.00022181 -0.0433052 0.000968812)
(0.000557772 -0.0609143 0.00138397)
(0.000978701 -0.0717943 0.00165794)
(0.00142358 -0.077635 0.00181733)
(0.00186344 -0.0803419 0.00189847)
(0.00229915 -0.0811783 0.00193095)
(0.00273046 -0.0807166 0.00193119)
(0.00315009 -0.0791852 0.00190785)
(0.00355171 -0.0766727 0.00186641)
(0.00393005 -0.0732085 0.00181079)
(0.00427953 -0.0688063 0.00174374)
(0.00459479 -0.0634999 0.00166672)
(0.00487133 -0.0573617 0.00157993)
(0.00510601 -0.050504 0.00148246)
(0.00529679 -0.0430696 0.00137285)
(0.00544241 -0.0352177 0.00124989)
(0.00554207 -0.0271121 0.00111368)
(0.0055953 -0.0189093 0.000966723)
(0.00560184 -0.0107492 0.000814914)
(0.00556177 -0.00274963 0.000668188)
(0.0054756 0.00499405 0.00054044)
(0.00534436 0.0124212 0.000448569)
(0.00516904 0.0195325 0.000410848)
(0.00494926 0.0264142 0.000444692)
(0.00468141 0.0332523 0.000563597)
(0.00435711 0.0403385 0.000772041)
(0.00396322 0.0480438 0.00105621)
(0.00348458 0.0567007 0.00137102)
(0.00290902 0.0662829 0.00163386)
(0.00223665 0.0757954 0.00174593)
(0.00154865 0.0826584 0.00165041)
(0.000918721 0.0836371 0.00136065)
(0.000372014 0.0725865 0.000894843)
(2.99304e-05 0.0367832 0.000295575)
(1.4448e-05 -0.0184205 0.000384472)
(0.000215614 -0.0456918 0.000972719)
(0.000541086 -0.0642178 0.00138574)
(0.000946657 -0.0755991 0.0016529)
(0.00137258 -0.0816555 0.00180465)
(0.00179164 -0.0844297 0.00187992)
(0.00220554 -0.0852572 0.00190877)
(0.00261425 -0.0847332 0.00190757)
(0.00301066 -0.0830914 0.00188509)
(0.00338872 -0.0804213 0.00184706)
(0.00374349 -0.0767531 0.00179771)
(0.00407 -0.0721039 0.00174001)
(0.00436373 -0.0665139 0.00167542)
(0.00462123 -0.0600639 0.00160374)
(0.00484032 -0.0528742 0.00152326)
(0.0050198 -0.0450931 0.00143124)
(0.00515896 -0.0368839 0.00132476)
(0.00525726 -0.0284125 0.00120189)
(0.00531415 -0.0198379 0.00106289)
(0.00532896 -0.0113028 0.000911413)
(0.00530102 -0.00293001 0.000755379)
(0.00522984 0.00517859 0.000607168)
(0.00511523 0.0129554 0.000482969)
(0.00495701 0.0203992 0.000401392)
(0.0047538 0.0276031 0.000381554)
(0.00450152 0.0347711 0.000440547)
(0.00419193 0.0422203 0.000589025)
(0.00381284 0.0503448 0.000822284)
(0.0033507 0.0594753 0.00110627)
(0.0027949 0.0695262 0.00136749)
(0.00214633 0.0793655 0.00150786)
(0.00148727 0.0862596 0.00145842)
(0.000882627 0.0869685 0.00121856)
(0.000355295 0.075143 0.000803165)
(2.83163e-05 0.037872 0.000261207)
(1.52113e-05 -0.019324 0.000382999)
(0.000215356 -0.0478998 0.000966222)
(0.000535581 -0.0672528 0.00136989)
(0.000930733 -0.0790772 0.00162554)
(0.00134199 -0.0853186 0.00176713)
(0.00174394 -0.0881461 0.00183515)
(0.00213921 -0.0889579 0.00185932)
(0.00252798 -0.0883684 0.00185569)
(0.00290339 -0.0866158 0.00183306)
(0.0032597 -0.0837899 0.00179739)
(0.00359236 -0.0799224 0.00175327)
(0.00389703 -0.075035 0.00170393)
(0.00416998 -0.0691757 0.00165098)
(0.00440869 -0.062434 0.00159409)
(0.00461186 -0.0549378 0.00153106)
(0.004779 -0.0468406 0.00145826)
(0.00490992 -0.0383081 0.00137144)
(0.00500431 -0.0295071 0.00126689)
(0.00506159 -0.020597 0.00114272)
(0.00508078 -0.0117215 0.00100024)
(0.00506062 -0.00300582 0.000845078)
(0.0049998 0.0054433 0.000687659)
(0.00489719 0.0135534 0.000542942)
(0.00475162 0.0213229 0.0004293)
(0.00456094 0.0288525 0.00036679)
(0.0043206 0.0363617 0.000374916)
(0.0040225 0.0441879 0.00046873)
(0.00365534 0.0527392 0.000650498)
(0.00320725 0.0623328 0.000895605)
(0.00266946 0.0728157 0.0011402)
(0.0020443 0.0829233 0.00129061)
(0.00141506 0.0897941 0.00127187)
(0.000837931 0.0902024 0.00107365)
(0.000333758 0.0775934 0.000707985)
(2.54642e-05 0.0389051 0.000226731)
(1.45211e-05 -0.0202723 0.000388924)
(0.000210671 -0.0502127 0.000975304)
(0.00052226 -0.0704132 0.00137298)
(0.000904257 -0.082671 0.00161787)
(0.001299 -0.0890784 0.00174909)
(0.00168288 -0.0919442 0.00180959)
(0.00205927 -0.0927304 0.00182913)
(0.00242844 -0.0920688 0.00182342)
(0.0027837 -0.0902018 0.00180128)
(0.00311959 -0.087221 0.00176893)
(0.00343193 -0.0831613 0.0017312)
(0.00371693 -0.0780506 0.00169161)
(0.00397163 -0.0719451 0.00165186)
(0.00419434 -0.0649424 0.00161146)
(0.00438453 -0.0571763 0.0015678)
(0.00454237 -0.0488029 0.00151645)
(0.0046681 -0.0399871 0.00145195)
(0.00476163 -0.0308934 0.00136888)
(0.0048223 -0.021678 0.00126322)
(0.00484878 -0.0124825 0.00113385)
(0.0048391 -0.00343213 0.000983883)
(0.00479095 0.00536371 0.000821594)
(0.00470207 0.0138278 0.000660559)
(0.00457016 0.021956 0.000518819)
(0.00439218 0.029853 0.000417201)
(0.00416312 0.0377496 0.000377134)
(0.00387505 0.0459976 0.000417064)
(0.00351763 0.0550117 0.000544756)
(0.00308082 0.065089 0.000743669)
(0.002558 0.0760049 0.000959398)
(0.00195344 0.0863669 0.00110483)
(0.00135112 0.0932039 0.0011034)
(0.000799226 0.0933124 0.000938192)
(0.00031607 0.0799376 0.000618587)
(2.3858e-05 0.0398864 0.000195807)
(1.50148e-05 -0.0211656 0.000390603)
(0.000209381 -0.052363 0.000970664)
(0.000514756 -0.0733266 0.00135497)
(0.000885704 -0.0859645 0.00158475)
(0.00126585 -0.0925124 0.00170363)
(0.00163343 -0.0954064 0.00175572)
(0.00199259 -0.0961634 0.00177001)
(0.00234367 -0.0954295 0.00176166)
(0.00268019 -0.0934504 0.00173945)
(0.002997 -0.0903194 0.00170975)
(0.0032903 -0.0860755 0.00167774)
(0.00355682 -0.0807534 0.00164721)
(0.00379425 -0.0744183 0.00162005)
(0.00400159 -0.0671766 0.00159584)
(0.00417895 -0.0591678 0.0015718)
(0.00432705 -0.0505501 0.00154307)
(0.00444654 -0.0414874 0.00150333)
(0.00453761 -0.0321402 0.00144582)
(0.00459962 -0.0226595 0.00136455)
(0.00463099 -0.0131822 0.0012559)
(0.00462925 -0.00383051 0.00112017)
(0.00459123 0.00528606 0.000962908)
(0.00451364 0.0140876 0.000795634)
(0.00439313 0.0225687 0.000635451)
(0.00422579 0.0308376 0.000503464)
(0.00400617 0.0391339 0.000422529)
(0.00372646 0.0478189 0.000413759)
(0.00337732 0.0573065 0.000489365)
(0.00295053 0.0678638 0.000639723)
(0.00244169 0.0791879 0.000819436)
(0.00185739 0.0897615 0.00094939)
(0.00128202 0.0965265 0.000954898)
(0.000756186 0.0963148 0.000815037)
(0.000295926 0.0821745 0.000536893)
(2.15372e-05 0.0408138 0.000168607)
(1.43819e-05 -0.0220932 0.000397279)
(0.000205036 -0.0545912 0.000977177)
(0.00050249 -0.0763304 0.00135119)
(0.000861551 -0.0893372 0.00156697)
(0.001227 -0.0960081 0.00167365)
(0.00157881 -0.0989173 0.00171729)
(0.0019217 -0.0996367 0.00172635)
(0.00225599 -0.098825 0.00171553)
(0.00257534 -0.0967313 0.0016935)
(0.00287488 -0.0934518 0.00166683)
(0.00315114 -0.0890306 0.00164089)
(0.00340132 -0.0835104 0.00161969)
(0.00362369 -0.0769655 0.00160525)
(0.00381785 -0.0695099 0.00159716)
(0.00398447 -0.0612878 0.00159256)
(0.00412475 -0.052458 0.00158626)
(0.00423975 -0.0431812 0.00157136)
(0.00432988 -0.0336116 0.00154002)
(0.00439458 -0.0238928 0.00148459)
(0.00443205 -0.0141543 0.00139917)
(0.00443926 -0.00451267 0.00128127)
(0.00441217 0.00492486 0.00113349)
(0.00434635 0.0140765 0.0009649)
(0.00423727 0.0229338 0.000791196)
(0.00408013 0.0316057 0.000633355)
(0.00386899 0.0403369 0.000515278)
(0.00359629 0.0494934 0.000460277)
(0.00325371 0.0594823 0.00048432)
(0.00283492 0.0705348 0.000583866)
(0.00233787 0.0822664 0.000722026)
(0.00177164 0.093039 0.000828371)
(0.00122066 0.099724 0.000832368)
(0.000718623 0.0991941 0.000710683)
(0.000279081 0.0843076 0.000468078)
(2.01566e-05 0.0416918 0.000147184)
(1.46614e-05 -0.0229739 0.0003995)
(0.000202952 -0.056679 0.000970067)
(0.000493789 -0.0791188 0.00132679)
(0.000841955 -0.0924472 0.00152457)
(0.00119366 -0.099219 0.0016174)
(0.00153063 -0.102135 0.0016519)
(0.00185819 -0.102814 0.00165535)
(0.0021766 -0.101925 0.00164172)
(0.00247973 -0.0997195 0.00161953)
(0.00276299 -0.0962968 0.00159547)
(0.00302324 -0.0917066 0.00157511)
(0.00325808 -0.086 0.00156268)
(0.00346623 -0.0792607 0.00156038)
(0.00364776 -0.0716111 0.00156797)
(0.00380376 -0.0632002 0.00158262)
(0.00393584 -0.0541876 0.00159914)
(0.00404543 -0.0447305 0.0016103)
(0.00413325 -0.0349763 0.00160749)
(0.00419891 -0.025059 0.00158172)
(0.00424055 -0.0150981 0.00152497)
(0.0042548 -0.00520126 0.00143191)
(0.00423686 0.00453018 0.00130186)
(0.0041813 0.0140151 0.0011408)
(0.00408242 0.023243 0.000962325)
(0.00393449 0.0323226 0.000786637)
(0.00373108 0.0415002 0.000638214)
(0.00346478 0.0511417 0.000542175)
(0.00312832 0.0616406 0.000517789)
(0.00271723 0.0731845 0.000567024)
(0.00223177 0.0853024 0.000661085)
(0.00168362 0.0962399 0.000738659)
(0.00115681 0.102818 0.00073501)
(0.000678745 0.101958 0.000625443)
(0.000260841 0.0863345 0.00041234)
(1.82898e-05 0.0425182 0.000131182)
(1.40849e-05 -0.0238776 0.000404677)
(0.000198776 -0.0588164 0.00096976)
(0.00048229 -0.0819616 0.00131136)
(0.000819763 -0.0955999 0.00149212)
(0.00115854 -0.102458 0.00157137)
(0.00148191 -0.105371 0.00159681)
(0.00179562 -0.106003 0.00159469)
(0.00209984 -0.105034 0.0015783)
(0.00238855 -0.102716 0.00155601)
(0.00265741 -0.0991527 0.00153456)
(0.00290356 -0.0944009 0.00151966)
(0.00312494 -0.0885197 0.00151567)
(0.00332069 -0.0816024 0.0015249)
(0.00349123 -0.0737785 0.0015472)
(0.00363805 -0.0652013 0.00157987)
(0.00376308 -0.0560306 0.00161775)
(0.00386813 -0.0464192 0.00165353)
(0.00395422 -0.0365062 0.00167817)
(0.00402113 -0.0264149 0.00168173)
(0.00406702 -0.0162526 0.00165448)
(0.00408821 -0.00611562 0.00158854)
(0.00407922 0.00390351 0.00147999)
(0.00403358 0.0137263 0.0013314)
(0.00394443 0.0233395 0.00115365)
(0.00380507 0.0328492 0.000965541)
(0.00360856 0.0425 0.000791585)
(0.00334769 0.0526527 0.000658299)
(0.00301625 0.0636818 0.000587885)
(0.0026116 0.0757263 0.0005874)
(0.00213633 0.0882269 0.00063577)
(0.00160467 0.0993174 0.000680922)
(0.00109991 0.105784 0.000664821)
(0.000643734 0.104599 0.000561914)
(0.000245418 0.088259 0.000371844)
(1.71686e-05 0.0432968 0.000121449)
(1.42457e-05 -0.0247423 0.000405322)
(0.000196389 -0.0608353 0.000956267)
(0.000473596 -0.0846211 0.00127636)
(0.000801137 -0.0985278 0.00143656)
(0.0011277 -0.105452 0.0015008)
(0.00143815 -0.108354 0.0015166)
(0.00173869 -0.108938 0.00150858)
(0.00202937 -0.107888 0.00148915)
(0.00230437 -0.10546 0.00146643)
(0.00255961 -0.101762 0.00144719)
(0.00279244 -0.0968554 0.00143725)
(0.00300111 -0.0908097 0.0014411)
(0.00318501 -0.083727 0.0014612)
(0.00334485 -0.0757452 0.0014976)
(0.00348239 -0.067022 0.0015478)
(0.00359986 -0.0577179 0.00160685)
(0.00369941 -0.0479816 0.00166751)
(0.0037824 -0.0379439 0.00172057)
(0.00384892 -0.0277154 0.0017554)
(0.00389726 -0.0173893 0.00176087)
(0.00392363 -0.00704707 0.00172674)
(0.00392205 0.00323136 0.00164584)
(0.00388514 0.0133732 0.00151699)
(0.00380497 0.0233641 0.00134773)
(0.00367378 0.0333063 0.00115477)
(0.00348409 0.0434393 0.000962083)
(0.00322882 0.0541136 0.000797178)
(0.00290272 0.0656781 0.000684909)
(0.00250495 0.0782174 0.000637126)
(0.00204022 0.0910809 0.000640186)
(0.00152532 0.102296 0.000651251)
(0.00104231 0.108634 0.000619524)
(0.000607803 0.107118 0.000518791)
(0.000229364 0.0900783 0.000345578)
(1.57482e-05 0.0440258 0.000117236)
(1.37446e-05 -0.0256207 0.00040714)
(0.000192459 -0.0628807 0.0009457)
(0.000463105 -0.087305 0.00124564)
(0.000781324 -0.101468 0.00138619)
(0.0010968 -0.108447 0.00143588)
(0.00139576 -0.11133 0.00144224)
(0.00168469 -0.11186 0.00142839)
(0.00196354 -0.110727 0.00140591)
(0.00222659 -0.108191 0.00138266)
(0.00246998 -0.104361 0.00136539)
(0.00269127 -0.0993066 0.00135992)
(0.00288889 -0.0931061 0.00137083)
(0.00306245 -0.0858707 0.00140067)
(0.00321291 -0.0777454 0.00144965)
(0.00334223 -0.0688927 0.0015155)
(0.00345294 -0.0594732 0.00159353)
(0.00354744 -0.0496316 0.00167677)
(0.00362745 -0.0394899 0.00175609)
(0.00369333 -0.029146 0.00182059)
(0.00374358 -0.0186772 0.00185819)
(0.00377436 -0.00814822 0.00185673)
(0.00377933 0.00237672 0.00180606)
(0.00375034 0.0128336 0.00170113)
(0.00367837 0.0232075 0.00154568)
(0.00355469 0.0335956 0.00135365)
(0.00337123 0.044229 0.0011478)
(0.00312103 0.0554431 0.000956148)
(0.00279983 0.0675562 0.000805877)
(0.00240842 0.080594 0.000713356)
(0.00195355 0.0938144 0.000672098)
(0.00145432 0.105145 0.000648369)
(0.000991276 0.111351 0.000598721)
(0.000576509 0.109513 0.000496208)
(0.000215936 0.0917972 0.000333743)
(1.49718e-05 0.0447086 0.000118611)
(1.38661e-05 -0.0264661 0.000404309)
(0.000190145 -0.0648254 0.000922494)
(0.000455275 -0.0898334 0.00119681)
(0.000765028 -0.104216 0.00131486)
(0.00107018 -0.111232 0.00134891)
(0.0013583 -0.114089 0.00134539)
(0.00163623 -0.114563 0.00132543)
(0.00190382 -0.113348 0.00129963)
(0.00215555 -0.110704 0.00127551)
(0.00238777 -0.106747 0.00125973)
(0.00259814 -0.101551 0.00125813)
(0.00278523 -0.0952032 0.00127538)
(0.00294881 -0.0878247 0.00131417)
(0.00308997 -0.0795686 0.00137492)
(0.00321087 -0.0706022 0.00145564)
(0.00331424 -0.0610871 0.00155197)
(0.00340278 -0.0511644 0.00165728)
(0.00347853 -0.0409473 0.00176269)
(0.00354223 -0.0305203 0.00185727)
(0.00359267 -0.0199433 0.00192828)
(0.00362618 -0.00926131 0.00196204)
(0.00363622 0.00148047 0.00194561)
(0.00361404 0.0122305 0.00187009)
(0.00354967 0.0229756 0.00173497)
(0.00343335 0.0338074 0.00155079)
(0.00325633 0.0449455 0.00133847)
(0.0030117 0.0567052 0.00112608)
(0.00269605 0.0693682 0.000942816)
(0.00231171 0.0828966 0.000809344)
(0.00186726 0.0964555 0.000726068)
(0.00138397 0.107878 0.00066813)
(0.000940513 0.113944 0.00059935)
(0.000545031 0.111784 0.000491901)
(0.000202227 0.0934142 0.000334635)
(1.39514e-05 0.0453447 0.000124659)
(1.34984e-05 -0.0273184 0.000401307)
(0.000186738 -0.0667795 0.000899462)
(0.000446303 -0.0923641 0.00114908)
(0.000748304 -0.106955 0.00124566)
(0.00104429 -0.113995 0.00126476)
(0.00132293 -0.116818 0.00125171)
(0.00159129 -0.117232 0.00122577)
(0.00184917 -0.115934 0.00119658)
(0.0020912 -0.113185 0.00117132)
(0.00231387 -0.109104 0.0011565)
(0.00251489 -0.103771 0.00115797)
(0.00269291 -0.0972834 0.0011804)
(0.00284781 -0.0897705 0.00122663)
(0.0029808 -0.0813934 0.00129725)
(0.0030942 -0.0723244 0.00139054)
(0.0031909 -0.062726 0.00150255)
(0.00327382 -0.052736 0.00162708)
(0.00334528 -0.0424595 0.00175573)
(0.00340634 -0.0319677 0.00187786)
(0.00345614 -0.0213027 0.00198056)
(0.00349124 -0.0104887 0.00204909)
(0.00350513 0.000451293 0.0020682)
(0.0034886 0.0114817 0.00202521)
(0.00343088 0.0225938 0.00191514)
(0.00332123 0.0338732 0.00174447)
(0.00315022 0.0455255 0.00153156)
(0.00291091 0.0578415 0.00130396)
(0.00260066 0.0710611 0.00109252)
(0.00222319 0.0850797 0.000921949)
(0.00178873 0.0989697 0.000799265)
(0.00132046 0.110477 0.000708214)
(0.000895015 0.116403 0.000619628)
(0.000517112 0.113932 0.000504538)
(0.000190429 0.094934 0.000347283)