/*--------------------------------*- C++ -*----------------------------------*\
| =========                 |                                                 |
| \\      /  F ield         | OpenFOAM: The Open Source CFD Toolbox           |
|  \\    /   O peration     | Version:  v1906                                 |
|   \\  /    A nd           | Web:      www.OpenFOAM.com                      |
|    \\/     M anipulation  |                                                 |
\*---------------------------------------------------------------------------*/
FoamFile
{
    version     2.0;
    format      ascii;
    class       volVectorField;
    location    "68/oil";
    object      U;
}
// * * * * * * * * * * * * * * * * * * * * * * * * * * * * * * * * * * * * * //

dimensions      [0 1 -1 0 0 0 0];


internalField   nonuniform List<vector> 
27760
(
(-2.47907e-05 -2.52649e-05 -2.47907e-05)
(-4.89331e-05 -1.89523e-05 -1.78598e-05)
(-3.56414e-06 -4.91284e-06 -4.88913e-06)
(-5.80644e-06 -7.98435e-07 -8.98462e-07)
(-1.17413e-06 -2.51649e-07 -3.69406e-07)
(-4.15066e-07 -9.995e-08 -2.2869e-07)
(2.67122e-07 -7.85791e-09 -1.46929e-07)
(6.10644e-07 3.27845e-08 -1.14453e-07)
(8.02573e-07 5.65369e-08 -9.64249e-08)
(8.76463e-07 7.18757e-08 -8.45826e-08)
(8.56454e-07 8.306e-08 -7.48743e-08)
(7.56098e-07 9.15788e-08 -6.66413e-08)
(5.88771e-07 9.79947e-08 -5.99122e-08)
(3.70183e-07 1.0238e-07 -5.50566e-08)
(1.18887e-07 1.04672e-07 -5.245e-08)
(-1.44466e-07 1.04828e-07 -5.22969e-08)
(-3.98663e-07 1.02893e-07 -5.45527e-08)
(-6.23706e-07 9.90217e-08 -5.88981e-08)
(-8.02629e-07 9.34709e-08 -6.47605e-08)
(-9.2293e-07 8.65539e-08 -7.13623e-08)
(-9.77606e-07 7.86227e-08 -7.78143e-08)
(-9.65587e-07 6.98519e-08 -8.29568e-08)
(-8.91607e-07 6.06133e-08 -8.58693e-08)
(-7.65946e-07 5.11117e-08 -8.56687e-08)
(-6.03815e-07 4.15932e-08 -8.15059e-08)
(-4.24494e-07 3.24777e-08 -7.28342e-08)
(-2.50437e-07 2.4629e-08 -5.9732e-08)
(-1.06006e-07 1.96155e-08 -4.33439e-08)
(-1.31036e-08 1.94659e-08 -2.68301e-08)
(1.06733e-08 2.0914e-08 -1.06177e-08)
(-1.79834e-05 -5.02828e-05 -1.79834e-05)
(-5.87751e-06 -6.53995e-06 -8.05354e-06)
(-7.902e-06 -7.9268e-06 -2.81747e-06)
(-3.50919e-06 -2.3225e-06 -8.11764e-07)
(-1.13164e-06 -1.4246e-06 -4.09463e-07)
(5.58327e-08 -7.829e-07 -2.07416e-07)
(9.19474e-07 -4.9458e-07 -1.07815e-07)
(1.44521e-06 -3.2487e-07 -5.72436e-08)
(1.74906e-06 -2.12594e-07 -2.52499e-08)
(1.85788e-06 -1.26738e-07 -1.6706e-09)
(1.79339e-06 -5.6047e-08 1.81564e-08)
(1.57342e-06 2.7113e-09 3.51037e-08)
(1.22077e-06 4.92632e-08 4.88669e-08)
(7.65387e-07 8.20429e-08 5.8719e-08)
(2.4413e-07 9.94815e-08 6.39807e-08)
(-3.01458e-07 1.00746e-07 6.42766e-08)
(-8.28466e-07 8.61116e-08 5.96818e-08)
(-1.2964e-06 5.70713e-08 5.0758e-08)
(-1.67088e-06 1.62237e-08 3.85032e-08)
(-1.92657e-06 -3.30019e-08 2.42515e-08)
(-2.04947e-06 -8.66746e-08 9.50525e-09)
(-2.03737e-06 -1.40696e-07 -3.93148e-09)
(-1.89981e-06 -1.90894e-07 -1.46936e-08)
(-1.65762e-06 -2.33148e-07 -2.15502e-08)
(-1.34086e-06 -2.62986e-07 -2.355e-08)
(-9.86874e-07 -2.75164e-07 -2.03432e-08)
(-6.37541e-07 -2.63e-07 -1.25636e-08)
(-3.35143e-07 -2.18507e-07 -2.37875e-09)
(-1.16113e-07 -1.34432e-07 5.47339e-09)
(-5.86765e-09 -2.52142e-08 5.95191e-09)
(-4.97077e-06 -4.75413e-06 -4.9707e-06)
(-7.77928e-06 -8.95945e-06 -2.86694e-06)
(-3.93997e-06 -5.16127e-06 -1.25478e-06)
(-2.12353e-06 -3.08391e-06 -5.83166e-07)
(-4.17918e-07 -2.22399e-06 -2.64069e-07)
(7.02125e-07 -1.67058e-06 -1.06493e-07)
(1.547e-06 -1.35557e-06 -2.21992e-08)
(2.10887e-06 -1.13355e-06 2.663e-08)
(2.43686e-06 -9.57794e-07 6.10112e-08)
(2.53939e-06 -8.05043e-07 8.85995e-08)
(2.42828e-06 -6.68772e-07 1.12627e-07)
(2.11955e-06 -5.50148e-07 1.33486e-07)
(1.63958e-06 -4.53742e-07 1.50528e-07)
(1.02605e-06 -3.84909e-07 1.62741e-07)
(3.26574e-07 -3.48043e-07 1.69257e-07)
(-4.04574e-07 -3.45414e-07 1.69599e-07)
(-1.11107e-06 -3.76536e-07 1.63843e-07)
(-1.73973e-06 -4.38019e-07 1.52646e-07)
(-2.24536e-06 -5.23844e-07 1.37176e-07)
(-2.59482e-06 -6.25948e-07 1.19e-07)
(-2.76962e-06 -7.35012e-07 9.9853e-08)
(-2.76704e-06 -8.40903e-07 8.15589e-08)
(-2.59968e-06 -9.33478e-07 6.5678e-08)
(-2.29422e-06 -1.00235e-06 5.34804e-08)
(-1.88869e-06 -1.03649e-06 4.57352e-08)
(-1.42949e-06 -1.02365e-06 4.24962e-08)
(-9.67326e-07 -9.49475e-07 4.27457e-08)
(-5.51275e-07 -7.97668e-07 4.37299e-08)
(-2.25429e-07 -5.5123e-07 4.01108e-08)
(-2.22893e-08 -2.08934e-07 2.23928e-08)
(-8.87961e-07 -6.935e-06 -8.87871e-07)
(-1.97516e-06 -5.4977e-06 -7.91516e-07)
(-1.50865e-06 -4.74491e-06 -5.60408e-07)
(-5.93427e-07 -3.76542e-06 -2.74443e-07)
(5.10909e-07 -3.2282e-06 -1.05916e-07)
(1.42129e-06 -2.83671e-06 -7.83338e-09)
(2.16944e-06 -2.55753e-06 5.34693e-08)
(2.70226e-06 -2.31811e-06 9.52688e-08)
(3.01279e-06 -2.09573e-06 1.28612e-07)
(3.0881e-06 -1.88162e-06 1.57732e-07)
(2.92777e-06 -1.67885e-06 1.84145e-07)
(2.54353e-06 -1.49624e-06 2.07512e-07)
(1.96243e-06 -1.34493e-06 2.26759e-07)
(1.22663e-06 -1.23576e-06 2.40596e-07)
(3.90975e-07 -1.17704e-06 2.47973e-07)
(-4.81248e-07 -1.17309e-06 2.48319e-07)
(-1.32407e-06 -1.22326e-06 2.41701e-07)
(-2.07509e-06 -1.32186e-06 2.2884e-07)
(-2.68134e-06 -1.45858e-06 2.11036e-07)
(-3.10413e-06 -1.61956e-06 1.90007e-07)
(-3.32196e-06 -1.78865e-06 1.67649e-07)
(-3.33174e-06 -1.94848e-06 1.45846e-07)
(-3.14805e-06 -2.08125e-06 1.26229e-07)
(-2.80125e-06 -2.16893e-06 1.10054e-07)
(-2.33412e-06 -2.19274e-06 9.79753e-08)
(-1.79801e-06 -2.13243e-06 8.98893e-08)
(-1.24842e-06 -1.965e-06 8.46151e-08)
(-7.38405e-07 -1.66354e-06 7.90283e-08)
(-3.19694e-07 -1.19374e-06 6.72778e-08)
(-3.56482e-08 -5.10532e-07 3.57746e-08)
(-2.82054e-07 -2.68362e-06 -2.81944e-07)
(-8.6349e-07 -4.22578e-06 -3.29238e-07)
(-3.74434e-07 -4.62498e-06 -2.12739e-07)
(3.51996e-07 -4.52049e-06 -8.45403e-08)
(1.22808e-06 -4.39159e-06 5.52924e-09)
(2.0334e-06 -4.21527e-06 6.63954e-08)
(2.72173e-06 -4.02023e-06 1.10974e-07)
(3.22704e-06 -3.79564e-06 1.46716e-07)
(3.51539e-06 -3.54635e-06 1.78855e-07)
(3.5608e-06 -3.28185e-06 2.09129e-07)
(3.35409e-06 -3.01778e-06 2.37663e-07)
(2.90343e-06 -2.7729e-06 2.63412e-07)
(2.23592e-06 -2.56664e-06 2.84824e-07)
(1.39694e-06 -2.41653e-06 3.00295e-07)
(4.47062e-07 -2.33561e-06 3.08538e-07)
(-5.43086e-07 -2.3306e-06 3.08864e-07)
(-1.49959e-06 -2.40084e-06 3.01325e-07)
(-2.35246e-06 -2.53811e-06 2.86725e-07)
(-3.04241e-06 -2.72738e-06 2.66537e-07)
(-3.52629e-06 -2.94832e-06 2.42661e-07)
(-3.78038e-06 -3.17721e-06 2.17192e-07)
(-3.80147e-06 -3.38859e-06 1.92163e-07)
(-3.6057e-06 -3.55635e-06 1.69291e-07)
(-3.22613e-06 -3.65424e-06 1.49849e-07)
(-2.70893e-06 -3.65529e-06 1.3446e-07)
(-2.10886e-06 -3.53066e-06 1.22935e-07)
(-1.48497e-06 -3.24743e-06 1.13998e-07)
(-8.94066e-07 -2.76484e-06 1.04216e-07)
(-3.95968e-07 -2.02269e-06 8.71727e-08)
(-4.57352e-08 -9.08784e-07 4.58886e-08)
(-1.06702e-07 -2.47173e-06 -1.0657e-07)
(-1.14882e-07 -4.32721e-06 -9.54618e-08)
(3.48877e-07 -5.25347e-06 -3.63438e-08)
(1.01129e-06 -5.65109e-06 2.63104e-08)
(1.79255e-06 -5.82363e-06 7.73769e-08)
(2.54748e-06 -5.82935e-06 1.17694e-07)
(3.20442e-06 -5.72147e-06 1.52602e-07)
(3.69219e-06 -5.52291e-06 1.85156e-07)
(3.96279e-06 -5.25853e-06 2.17466e-07)
(3.98179e-06 -4.95342e-06 2.49719e-07)
(3.7339e-06 -4.63531e-06 2.81059e-07)
(3.22435e-06 -4.33322e-06 3.09814e-07)
(2.48033e-06 -4.07535e-06 3.33948e-07)
(1.54992e-06 -3.88627e-06 3.51459e-07)
(4.98858e-07 -3.78419e-06 3.60785e-07)
(-5.95644e-07 -3.77848e-06 3.61082e-07)
(-1.65243e-06 -3.86851e-06 3.52388e-07)
(-2.59465e-06 -4.04346e-06 3.35626e-07)
(-3.35735e-06 -4.28342e-06 3.12497e-07)
(-3.89356e-06 -4.56135e-06 2.85192e-07)
(-4.17793e-06 -4.84581e-06 2.56099e-07)
(-4.2073e-06 -5.10296e-06 2.2747e-07)
(-3.99945e-06 -5.29829e-06 2.01169e-07)
(-3.58999e-06 -5.39722e-06 1.78561e-07)
(-3.02793e-06 -5.36436e-06 1.60287e-07)
(-2.3711e-06 -5.16172e-06 1.46114e-07)
(-1.68193e-06 -4.74505e-06 1.34674e-07)
(-1.02118e-06 -4.05609e-06 1.22229e-07)
(-4.56429e-07 -3.00096e-06 1.01742e-07)
(-5.33052e-08 -1.3829e-06 5.34893e-08)
(-7.38795e-09 -2.44462e-06 -7.23275e-09)
(2.19689e-07 -4.8539e-06 2.04625e-08)
(7.49497e-07 -6.25077e-06 5.63672e-08)
(1.43663e-06 -7.04147e-06 9.14674e-08)
(2.20777e-06 -7.47422e-06 1.23602e-07)
(2.95753e-06 -7.64652e-06 1.5349e-07)
(3.61031e-06 -7.62885e-06 1.83756e-07)
(4.0948e-06 -7.46622e-06 2.15598e-07)
(4.35655e-06 -7.19903e-06 2.49534e-07)
(4.35613e-06 -6.86539e-06 2.84815e-07)
(4.07407e-06 -6.50403e-06 3.19863e-07)
(3.51349e-06 -6.15371e-06 3.52445e-07)
(2.70168e-06 -5.85104e-06 3.80003e-07)
(1.68941e-06 -5.62768e-06 4.00069e-07)
(5.47242e-07 -5.50696e-06 4.10742e-07)
(-6.4127e-07 -5.50091e-06 4.11007e-07)
(-1.78813e-06 -5.60899e-06 4.00892e-07)
(-2.80993e-06 -5.81789e-06 3.81458e-07)
(-3.63647e-06 -6.1029e-06 3.54701e-07)
(-4.21742e-06 -6.43048e-06 3.23216e-07)
(-4.52612e-06 -6.7616e-06 2.89759e-07)
(-4.55998e-06 -7.05445e-06 2.56891e-07)
(-4.33869e-06 -7.2665e-06 2.26726e-07)
(-3.9004e-06 -7.35509e-06 2.00734e-07)
(-3.29705e-06 -7.27634e-06 1.79615e-07)
(-2.58945e-06 -6.98267e-06 1.63101e-07)
(-1.84335e-06 -6.41692e-06 1.49729e-07)
(-1.12342e-06 -5.50014e-06 1.3546e-07)
(-5.03924e-07 -4.09812e-06 1.12605e-07)
(-5.9044e-08 -1.91645e-06 5.92627e-08)
(3.2512e-08 -2.78708e-06 3.26896e-08)
(3.95529e-07 -5.74671e-06 7.53291e-08)
(9.90685e-07 -7.55215e-06 1.04428e-07)
(1.72086e-06 -8.66382e-06 1.28997e-07)
(2.51146e-06 -9.32222e-06 1.5299e-07)
(3.27611e-06 -9.64688e-06 1.78622e-07)
(3.93928e-06 -9.72074e-06 2.07711e-07)
(4.43017e-06 -9.60346e-06 2.40817e-07)
(4.69079e-06 -9.34686e-06 2.77668e-07)
(4.67826e-06 -8.99942e-06 3.1698e-07)
(4.36997e-06 -8.60912e-06 3.56627e-07)
(3.76717e-06 -8.22319e-06 3.93809e-07)
(2.89729e-06 -7.88594e-06 4.25433e-07)
(1.81358e-06 -7.63556e-06 4.48531e-07)
(5.91208e-07 -7.50005e-06 4.608e-07)
(-6.80242e-07 -7.494e-06 4.61031e-07)
(-1.90628e-06 -7.61694e-06 4.49237e-07)
(-2.99736e-06 -7.8533e-06 4.26666e-07)
(-3.8783e-06 -8.17392e-06 3.95673e-07)
(-4.49591e-06 -8.5393e-06 3.59312e-07)
(-4.82275e-06 -8.90359e-06 3.20781e-07)
(-4.85723e-06 -9.21767e-06 2.83057e-07)
(-4.62125e-06 -9.43167e-06 2.48552e-07)
(-4.15563e-06 -9.49534e-06 2.18869e-07)
(-3.51536e-06 -9.3568e-06 1.94784e-07)
(-2.76407e-06 -8.95833e-06 1.75984e-07)
(-1.97052e-06 -8.22857e-06 1.60929e-07)
(-1.20275e-06 -7.06518e-06 1.4527e-07)
(-5.40218e-07 -5.28846e-06 1.20721e-07)
(-6.33751e-08 -2.49619e-06 6.36303e-08)
(5.19115e-08 -3.27473e-06 5.21125e-08)
(4.88429e-07 -6.8323e-06 1.03663e-07)
(1.13422e-06 -9.04179e-06 1.30648e-07)
(1.90425e-06 -1.04517e-05 1.51154e-07)
(2.7209e-06 -1.13234e-05 1.71993e-07)
(3.50615e-06 -1.17977e-05 1.96539e-07)
(4.18504e-06 -1.19698e-05 2.26429e-07)
(4.68707e-06 -1.19109e-05 2.62019e-07)
(4.952e-06 -1.16817e-05 3.0265e-07)
(4.93419e-06 -1.13387e-05 3.4665e-07)
(4.60832e-06 -1.09375e-05 3.9146e-07)
(3.97389e-06 -1.05322e-05 4.33755e-07)
(3.05821e-06 -1.01738e-05 4.69889e-07)
(1.91662e-06 -9.90577e-06 4.9633e-07)
(6.28434e-07 -9.76047e-06 5.10335e-07)
(-7.11343e-07 -9.75466e-06 5.10533e-07)
(-2.00228e-06 -9.88797e-06 4.96934e-07)
(-3.14927e-06 -1.01428e-05 4.70931e-07)
(-4.07289e-06 -1.04863e-05 4.35278e-07)
(-4.71762e-06 -1.08737e-05 3.93582e-07)
(-5.0557e-06 -1.12531e-05 3.49556e-07)
(-5.08706e-06 -1.15695e-05 3.066e-07)
(-4.83609e-06 -1.17667e-05 2.67418e-07)
(-4.34645e-06 -1.17877e-05 2.33817e-07)
(-3.67588e-06 -1.15731e-05 2.06638e-07)
(-2.89044e-06 -1.1055e-05 1.85563e-07)
(-2.06125e-06 -1.0147e-05 1.6893e-07)
(-1.25871e-06 -8.72108e-06 1.52132e-07)
(-5.65676e-07 -6.54804e-06 1.26415e-07)
(-6.64551e-08 -3.1102e-06 6.67482e-08)
(6.09907e-08 -3.84455e-06 6.12153e-08)
(5.36195e-07 -8.03414e-06 1.17669e-07)
(1.21294e-06 -1.06513e-05 1.44232e-07)
(2.00888e-06 -1.23517e-05 1.6346e-07)
(2.84418e-06 -1.34339e-05 1.83539e-07)
(3.64481e-06 -1.40615e-05 2.08602e-07)
(4.33661e-06 -1.43428e-05 2.40329e-07)
(4.8492e-06 -1.43585e-05 2.78995e-07)
(5.1209e-06 -1.41768e-05 3.23799e-07)
(5.10383e-06 -1.38602e-05 3.72774e-07)
(4.77001e-06 -1.34697e-05 4.22966e-07)
(4.11693e-06 -1.30646e-05 4.70562e-07)
(3.17143e-06 -1.27008e-05 5.11328e-07)
(1.99014e-06 -1.24264e-05 5.41179e-07)
(6.55725e-07 -1.22773e-05 5.56969e-07)
(-7.32247e-07 -1.22719e-05 5.57134e-07)
(-2.06863e-06 -1.241e-05 5.41677e-07)
(-3.25368e-06 -1.26724e-05 5.12166e-07)
(-4.20454e-06 -1.3023e-05 4.71776e-07)
(-4.86427e-06 -1.34129e-05 4.2464e-07)
(-5.2056e-06 -1.37857e-05 3.74978e-07)
(-5.23036e-06 -1.40815e-05 3.26691e-07)
(-4.96558e-06 -1.42395e-05 2.82795e-07)
(-4.45766e-06 -1.41974e-05 2.45286e-07)
(-3.76647e-06 -1.38885e-05 2.15048e-07)
(-2.95985e-06 -1.32354e-05 1.91748e-07)
(-2.11009e-06 -1.2136e-05 1.73667e-07)
(-1.28848e-06 -1.04352e-05 1.55986e-07)
(-5.79266e-07 -7.85157e-06 1.2958e-07)
(-6.82109e-08 -3.74624e-06 6.8544e-08)
(6.46879e-08 -4.45159e-06 6.49272e-08)
(5.53931e-07 -9.29061e-06 1.23287e-07)
(1.23997e-06 -1.23182e-05 1.49611e-07)
(2.04186e-06 -1.4307e-05 1.68504e-07)
(2.87978e-06 -1.56017e-05 1.88794e-07)
(3.68268e-06 -1.63903e-05 2.14987e-07)
(4.37789e-06 -1.6795e-05 2.48839e-07)
(4.89576e-06 -1.69049e-05 2.90652e-07)
(5.17395e-06 -1.67938e-05 3.39499e-07)
(5.16274e-06 -1.65284e-05 3.9323e-07)
(4.83165e-06 -1.61728e-05 4.48548e-07)
(4.17593e-06 -1.57898e-05 5.01171e-07)
(3.2211e-06 -1.54388e-05 5.4636e-07)
(2.02406e-06 -1.51708e-05 5.79469e-07)
(6.6945e-07 -1.50243e-05 5.96929e-07)
(-7.40031e-07 -1.50194e-05 5.97066e-07)
(-2.0959e-06 -1.5156e-05 5.79879e-07)
(-3.29532e-06 -1.54135e-05 5.47042e-07)
(-4.25343e-06 -1.57532e-05 5.02126e-07)
(-4.91307e-06 -1.61235e-05 4.49796e-07)
(-5.24821e-06 -1.64649e-05 3.94855e-07)
(-5.26302e-06 -1.67144e-05 3.41594e-07)
(-4.98725e-06 -1.68081e-05 2.93308e-07)
(-4.46955e-06 -1.66799e-05 2.52177e-07)
(-3.77114e-06 -1.62576e-05 2.19155e-07)
(-2.96025e-06 -1.54545e-05 1.93885e-07)
(-2.10886e-06 -1.41529e-05 1.74556e-07)
(-1.28741e-06 -1.21698e-05 1.56281e-07)
(-5.7906e-07 -9.17018e-06 1.29789e-07)
(-6.84117e-08 -4.39048e-06 6.87881e-08)
(6.47155e-08 -5.06567e-06 6.49808e-08)
(5.47126e-07 -1.05509e-05 1.22718e-07)
(1.21892e-06 -1.39835e-05 1.48388e-07)
(2.00243e-06 -1.62574e-05 1.67072e-07)
(2.82061e-06 -1.77668e-05 1.87726e-07)
(3.60628e-06 -1.87256e-05 2.15055e-07)
(4.28974e-06 -1.92693e-05 2.50833e-07)
(4.80339e-06 -1.94948e-05 2.95393e-07)
(5.08518e-06 -1.94796e-05 3.47763e-07)
(5.08437e-06 -1.92925e-05 4.0567e-07)
(4.76823e-06 -1.89987e-05 4.65555e-07)
(4.12928e-06 -1.86622e-05 5.22727e-07)
(3.19064e-06 -1.83437e-05 5.71947e-07)
(2.00792e-06 -1.80961e-05 6.08079e-07)
(6.6593e-07 -1.79594e-05 6.27098e-07)
(-7.31366e-07 -1.79551e-05 6.27204e-07)
(-2.07404e-06 -1.80831e-05 6.08378e-07)
(-3.25806e-06 -1.83217e-05 5.72437e-07)
(-4.19835e-06 -1.86306e-05 5.23426e-07)
(-4.83901e-06 -1.89566e-05 4.66461e-07)
(-5.15663e-06 -1.9239e-05 4.06844e-07)
(-5.15823e-06 -1.94141e-05 3.49247e-07)
(-4.87606e-06 -1.94167e-05 2.97232e-07)
(-4.36007e-06 -1.91788e-05 2.53089e-07)
(-3.67168e-06 -1.86239e-05 2.17784e-07)
(-2.8778e-06 -1.76573e-05 1.90952e-07)
(-2.048e-06 -1.61462e-05 1.70753e-07)
(-1.24972e-06 -1.388e-05 1.52316e-07)
(-5.62434e-07 -1.04695e-05 1.26437e-07)
(-6.67233e-08 -5.0263e-06 6.71423e-08)
(6.16911e-08 -5.66009e-06 6.19609e-08)
(5.16898e-07 -1.1765e-05 1.16585e-07)
(1.14859e-06 -1.55857e-05 1.40816e-07)
(1.88543e-06 -1.81356e-05 1.58994e-07)
(2.6564e-06 -1.98593e-05 1.79758e-07)
(3.40001e-06 -2.09961e-05 2.07738e-07)
(4.05163e-06 -2.16941e-05 2.44742e-07)
(4.5475e-06 -2.20568e-05 2.91144e-07)
(4.82754e-06 -2.21638e-05 3.45988e-07)
(4.8411e-06 -2.20838e-05 4.06963e-07)
(4.55357e-06 -2.18809e-05 4.70378e-07)
(3.95422e-06 -2.16173e-05 5.31286e-07)
(3.0625e-06 -2.1353e-05 5.83919e-07)
(1.93069e-06 -2.1141e-05 6.22685e-07)
(6.41324e-07 -2.1022e-05 6.43106e-07)
(-7.02751e-07 -2.10183e-05 6.43167e-07)
(-1.99231e-06 -2.11298e-05 6.22878e-07)
(-3.12445e-06 -2.13341e-05 5.84237e-07)
(-4.01644e-06 -2.15903e-05 5.31733e-07)
(-4.61582e-06 -2.18453e-05 4.70983e-07)
(-4.90298e-06 -2.20394e-05 4.07742e-07)
(-4.88834e-06 -2.21103e-05 3.46955e-07)
(-4.60613e-06 -2.19942e-05 2.92366e-07)
(-4.10654e-06 -2.16231e-05 2.46235e-07)
(-3.44933e-06 -2.09182e-05 2.09529e-07)
(-2.69795e-06 -1.97775e-05 1.81825e-07)
(-1.91727e-06 -1.80546e-05 1.61293e-07)
(-1.16921e-06 -1.55125e-05 1.43217e-07)
(-5.26558e-07 -1.17091e-05 1.1881e-07)
(-6.2795e-08 -5.63407e-06 6.32626e-08)
(5.56386e-08 -6.20853e-06 5.59328e-08)
(4.62503e-07 -1.28813e-05 1.04905e-07)
(1.02604e-06 -1.70585e-05 1.26746e-07)
(1.68467e-06 -1.98668e-05 1.43798e-07)
(2.37666e-06 -2.17987e-05 1.6405e-07)
(3.04886e-06 -2.31173e-05 1.91846e-07)
(3.64415e-06 -2.39825e-05 2.28914e-07)
(4.10496e-06 -2.45029e-05 2.75771e-07)
(4.37545e-06 -2.47585e-05 3.31624e-07)
(4.40642e-06 -2.48154e-05 3.94273e-07)
(4.16237e-06 -2.4734e-05 4.60011e-07)
(3.62884e-06 -2.45725e-05 5.23737e-07)
(2.81991e-06 -2.4387e-05 5.79279e-07)
(1.78192e-06 -2.42282e-05 6.20581e-07)
(5.92102e-07 -2.41361e-05 6.42488e-07)
(-6.50623e-07 -2.41329e-05 6.42512e-07)
(-1.8402e-06 -2.42186e-05 6.20665e-07)
(-2.87769e-06 -2.43708e-05 5.79424e-07)
(-3.68581e-06 -2.45496e-05 5.23943e-07)
(-4.21816e-06 -2.47042e-05 4.60321e-07)
(-4.46047e-06 -2.47787e-05 3.9475e-07)
(-4.42698e-06 -2.4715e-05 3.32248e-07)
(-4.15317e-06 -2.4453e-05 2.76562e-07)
(-3.68789e-06 -2.3927e-05 2.29869e-07)
(-3.08686e-06 -2.30575e-05 1.92971e-07)
(-2.40764e-06 -2.17374e-05 1.6535e-07)
(-1.70754e-06 -1.98075e-05 1.45251e-07)
(-1.04027e-06 -1.70062e-05 1.28263e-07)
(-4.68806e-07 -1.28422e-05 1.06297e-07)
(-5.62592e-08 -6.19097e-06 5.67689e-08)
(4.64874e-08 -6.68339e-06 4.67845e-08)
(3.82996e-07 -1.38446e-05 8.74178e-08)
(8.48646e-07 -1.83305e-05 1.05727e-07)
(1.39498e-06 -2.13688e-05 1.2083e-07)
(1.9731e-06 -2.34949e-05 1.39598e-07)
(2.54074e-06 -2.4993e-05 1.65869e-07)
(3.05123e-06 -2.60332e-05 2.01356e-07)
(3.45598e-06 -2.67275e-05 2.46665e-07)
(3.70596e-06 -2.71548e-05 3.01198e-07)
(3.7557e-06 -2.7377e-05 3.63088e-07)
(3.56982e-06 -2.74482e-05 4.28849e-07)
(3.13019e-06 -2.74195e-05 4.93516e-07)
(2.44421e-06 -2.73399e-05 5.50712e-07)
(1.54951e-06 -2.72549e-05 5.93892e-07)
(5.14072e-07 -2.72006e-05 6.17072e-07)
(-5.70784e-07 -2.71978e-05 6.1705e-07)
(-1.6056e-06 -2.72466e-05 5.93853e-07)
(-2.49915e-06 -2.73261e-05 5.50679e-07)
(-3.18338e-06 -2.74e-05 4.93528e-07)
(-3.6207e-06 -2.74233e-05 4.2892e-07)
(-3.80378e-06 -2.73467e-05 3.6324e-07)
(-3.75068e-06 -2.71194e-05 3.01461e-07)
(-3.49662e-06 -2.66876e-05 2.47064e-07)
(-3.08701e-06 -2.59897e-05 2.01896e-07)
(-2.57084e-06 -2.49471e-05 1.66548e-07)
(-1.9968e-06 -2.34488e-05 1.40394e-07)
(-1.41182e-06 -2.1325e-05 1.21716e-07)
(-8.58702e-07 -1.82928e-05 1.06679e-07)
(-3.87187e-07 -1.3817e-05 8.83232e-08)
(-4.68159e-08 -6.67136e-06 4.73681e-08)
(3.41947e-08 -7.05635e-06 3.44934e-08)
(2.78109e-07 -1.4598e-05 6.40571e-08)
(6.15685e-07 -1.93274e-05 7.76303e-08)
(1.01483e-06 -2.25547e-05 8.97496e-08)
(1.44275e-06 -2.48505e-05 1.05795e-07)
(1.87057e-06 -2.65164e-05 1.28858e-07)
(2.265e-06 -2.77305e-05 1.60463e-07)
(2.58935e-06 -2.86067e-05 2.01341e-07)
(2.80425e-06 -2.92216e-05 2.51277e-07)
(2.87085e-06 -2.96317e-05 3.0893e-07)
(2.75598e-06 -2.98825e-05 3.71334e-07)
(2.43877e-06 -3.00152e-05 4.33897e-07)
(1.91877e-06 -3.00686e-05 4.90298e-07)
(1.22207e-06 -3.00786e-05 5.3376e-07)
(4.03264e-07 -3.00738e-05 5.57524e-07)
(-4.5895e-07 -3.00714e-05 5.57481e-07)
(-1.27682e-06 -3.00714e-05 5.33668e-07)
(-1.97179e-06 -3.00568e-05 4.90146e-07)
(-2.48933e-06 -2.99986e-05 4.33729e-07)
(-2.80353e-06 -2.98615e-05 3.71202e-07)
(-2.91476e-06 -2.96067e-05 3.08882e-07)
(-2.84402e-06 -2.91929e-05 2.51314e-07)
(-2.62449e-06 -2.85748e-05 2.01463e-07)
(-2.29506e-06 -2.76963e-05 1.60691e-07)
(-1.89509e-06 -2.6481e-05 1.29197e-07)
(-1.46144e-06 -2.48156e-05 1.06241e-07)
(-1.02763e-06 -2.25222e-05 9.02892e-08)
(-6.22997e-07 -1.93e-05 7.82251e-08)
(-2.8095e-07 -1.45784e-05 6.46692e-08)
(-3.43393e-08 -7.04804e-06 3.49298e-08)
(1.88601e-08 -7.29942e-06 1.91515e-08)
(1.49154e-07 -1.50857e-05 3.50116e-08)
(3.30111e-07 -1.99757e-05 4.25882e-08)
(5.48744e-07 -2.33373e-05 5.05919e-08)
(7.91066e-07 -2.5766e-05 6.2381e-08)
(1.04389e-06 -2.75754e-05 8.00336e-08)
(1.28977e-06 -2.89489e-05 1.04805e-07)
(1.50682e-06 -3.00009e-05 1.37472e-07)
(1.66871e-06 -3.08051e-05 1.78162e-07)
(1.74626e-06 -3.14113e-05 2.26088e-07)
(1.71131e-06 -3.18557e-05 2.79115e-07)
(1.54208e-06 -3.21675e-05 3.3359e-07)
(1.23078e-06 -3.23725e-05 3.83848e-07)
(7.89882e-07 -3.2493e-05 4.23436e-07)
(2.5607e-07 -3.25467e-05 4.45506e-07)
(-3.11358e-07 -3.25447e-05 4.45418e-07)
(-8.44031e-07 -3.24868e-05 4.23256e-07)
(-1.28275e-06 -3.23622e-05 3.8357e-07)
(-1.59097e-06 -3.21533e-05 3.33292e-07)
(-1.75648e-06 -3.1838e-05 2.78811e-07)
(-1.78715e-06 -3.13904e-05 2.25834e-07)
(-1.70497e-06 -3.07816e-05 1.77955e-07)
(-1.53809e-06 -2.99752e-05 1.37359e-07)
(-1.31579e-06 -2.89217e-05 1.04794e-07)
(-1.06452e-06 -2.75479e-05 8.0113e-08)
(-8.06283e-07 -2.57393e-05 6.25592e-08)
(-5.58763e-07 -2.33129e-05 5.08653e-08)
(-3.35532e-07 -1.99555e-05 4.2936e-08)
(-1.51073e-07 -1.50716e-05 3.54293e-08)
(-1.88824e-08 -7.29366e-06 1.95066e-08)
(8.7333e-10 -7.38705e-06 1.17637e-09)
(-3.64761e-10 -1.52568e-05 1.04926e-09)
(-2.4343e-10 -2.02082e-05 1.50888e-09)
(9.47092e-09 -2.36361e-05 4.2689e-09)
(3.54378e-08 -2.61474e-05 1.02286e-08)
(8.19249e-08 -2.80614e-05 2.01931e-08)
(1.49284e-07 -2.95628e-05 3.48728e-08)
(2.32824e-07 -3.07651e-05 5.50079e-08)
(3.22183e-07 -3.17382e-05 8.10122e-08)
(4.01215e-07 -3.25254e-05 1.12766e-07)
(4.50326e-07 -3.31535e-05 1.4914e-07)
(4.49695e-07 -3.36391e-05 1.87773e-07)
(3.85289e-07 -3.39941e-05 2.24469e-07)
(2.55013e-07 -3.42258e-05 2.54183e-07)
(7.30696e-08 -3.43393e-05 2.71104e-07)
(-1.28262e-07 -3.43377e-05 2.71007e-07)
(-3.08849e-07 -3.42205e-05 2.5396e-07)
(-4.36603e-07 -3.39851e-05 2.2411e-07)
(-4.975e-07 -3.3627e-05 1.87342e-07)
(-4.93979e-07 -3.31383e-05 1.48666e-07)
(-4.40126e-07 -3.25077e-05 1.12355e-07)
(-3.56025e-07 -3.17185e-05 8.06434e-08)
(-2.61397e-07 -3.0744e-05 5.47325e-08)
(-1.72494e-07 -2.9541e-05 3.46861e-08)
(-9.98249e-08 -2.80396e-05 2.00802e-08)
(-4.82351e-08 -2.61268e-05 1.02187e-08)
(-1.75915e-08 -2.36177e-05 4.35798e-09)
(-3.92014e-09 -2.01932e-05 1.72283e-09)
(-9.54694e-10 -1.52465e-05 1.34745e-09)
(-8.27121e-10 -7.38301e-06 1.47817e-09)
(-1.9015e-08 -7.29913e-06 -1.87385e-08)
(-1.64279e-07 -1.50717e-05 -3.65156e-08)
(-3.61764e-07 -1.99725e-05 -4.40377e-08)
(-5.80934e-07 -2.33871e-05 -4.74858e-08)
(-7.93267e-07 -2.59181e-05 -4.87383e-08)
(-9.76387e-07 -2.78823e-05 -4.85685e-08)
(-1.11073e-06 -2.94625e-05 -4.68522e-08)
(-1.18201e-06 -3.07685e-05 -4.31802e-08)
(-1.18242e-06 -3.18658e-05 -3.70083e-08)
(-1.11201e-06 -3.2791e-05 -2.77937e-08)
(-9.78842e-07 -3.35627e-05 -1.56099e-08)
(-7.97824e-07 -3.41872e-05 -9.51079e-10)
(-5.87177e-07 -3.46633e-05 1.42668e-08)
(-3.63919e-07 -3.49858e-05 2.75587e-08)
(-1.39481e-07 -3.51483e-05 3.55552e-08)
(8.43281e-08 -3.51467e-05 3.54484e-08)
(3.10277e-07 -3.49809e-05 2.72817e-08)
(5.36243e-07 -3.46552e-05 1.38285e-08)
(7.5068e-07 -3.41765e-05 -1.47177e-09)
(9.36286e-07 -3.35495e-05 -1.61706e-08)
(1.07452e-06 -3.27759e-05 -2.83475e-08)
(1.15025e-06 -3.18491e-05 -3.75077e-08)
(1.1553e-06 -3.07511e-05 -4.36258e-08)
(1.08944e-06 -2.94447e-05 -4.7194e-08)
(9.60344e-07 -2.78649e-05 -4.88162e-08)
(7.82111e-07 -2.5902e-05 -4.89097e-08)
(5.7409e-07 -2.33729e-05 -4.75327e-08)
(3.58456e-07 -1.99612e-05 -4.39526e-08)
(1.63394e-07 -1.50642e-05 -3.6304e-08)
(1.91309e-08 -7.29626e-06 -1.84617e-08)
(-3.98391e-08 -7.02355e-06 -3.95632e-08)
(-3.34113e-07 -1.45072e-05 -7.5707e-08)
(-7.35461e-07 -1.92378e-05 -9.16104e-08)
(-1.19127e-06 -2.2552e-05 -1.01846e-07)
(-1.65116e-06 -2.50312e-05 -1.11173e-07)
(-2.07454e-06 -2.69806e-05 -1.22014e-07)
(-2.42225e-06 -2.85758e-05 -1.35025e-07)
(-2.66011e-06 -2.99215e-05 -1.50198e-07)
(-2.76075e-06 -3.10773e-05 -1.66917e-07)
(-2.70661e-06 -3.20749e-05 -1.84071e-07)
(-2.49192e-06 -3.2926e-05 -2.00404e-07)
(-2.12457e-06 -3.36291e-05 -2.144e-07)
(-1.62552e-06 -3.41747e-05 -2.25183e-07)
(-1.02679e-06 -3.45497e-05 -2.32049e-07)
(-3.67375e-07 -3.47407e-05 -2.3518e-07)
(3.12555e-07 -3.47391e-05 -2.353e-07)
(9.73485e-07 -3.45451e-05 -2.32357e-07)
(1.57508e-06 -3.41674e-05 -2.25645e-07)
(2.07806e-06 -3.36192e-05 -2.14972e-07)
(2.45014e-06 -3.2914e-05 -2.01011e-07)
(2.67007e-06 -3.20616e-05 -1.8469e-07)
(2.72974e-06 -3.10629e-05 -1.67492e-07)
(2.63467e-06 -2.99066e-05 -1.50722e-07)
(2.40225e-06 -2.85611e-05 -1.3546e-07)
(2.05972e-06 -2.69665e-05 -1.2235e-07)
(1.64109e-06 -2.50183e-05 -1.11412e-07)
(1.18531e-06 -2.2541e-05 -1.01966e-07)
(7.32744e-07 -1.92292e-05 -9.15997e-08)
(3.33496e-07 -1.45016e-05 -7.55437e-08)
(3.99862e-08 -7.02151e-06 -3.93084e-08)
(-6.02467e-08 -6.55903e-06 -5.99996e-08)
(-4.99349e-07 -1.35619e-05 -1.14156e-07)
(-1.09844e-06 -1.80025e-05 -1.38317e-07)
(-1.78424e-06 -2.11276e-05 -1.55318e-07)
(-2.48564e-06 -2.348e-05 -1.72805e-07)
(-3.14458e-06 -2.53444e-05 -1.94862e-07)
(-3.70293e-06 -2.68847e-05 -2.22961e-07)
(-4.10689e-06 -2.81976e-05 -2.57422e-07)
(-4.3095e-06 -2.93375e-05 -2.97526e-07)
(-4.27503e-06 -3.03311e-05 -3.41629e-07)
(-3.98346e-06 -3.11859e-05 -3.87153e-07)
(-3.43508e-06 -3.1897e-05 -4.30597e-07)
(-2.65296e-06 -3.24514e-05 -4.68084e-07)
(-1.68351e-06 -3.28337e-05 -4.95658e-07)
(-5.93223e-07 -3.30288e-05 -5.10212e-07)
(5.39144e-07 -3.30274e-05 -5.10316e-07)
(1.63092e-06 -3.28296e-05 -4.9596e-07)
(2.60319e-06 -3.24448e-05 -4.68555e-07)
(3.38925e-06 -3.1888e-05 -4.31158e-07)
(3.94245e-06 -3.11752e-05 -3.87762e-07)
(4.23934e-06 -3.03193e-05 -3.42276e-07)
(4.27936e-06 -2.93251e-05 -2.98145e-07)
(4.08236e-06 -2.81849e-05 -2.5797e-07)
(3.68386e-06 -2.68724e-05 -2.2346e-07)
(3.13061e-06 -2.53328e-05 -1.95264e-07)
(2.4763e-06 -2.34697e-05 -1.73089e-07)
(1.77886e-06 -2.1119e-05 -1.55493e-07)
(1.09609e-06 -1.79959e-05 -1.38353e-07)
(4.98914e-07 -1.35578e-05 -1.14015e-07)
(6.04243e-08 -6.55759e-06 -5.97471e-08)
(-7.88388e-08 -5.91682e-06 -7.86053e-08)
(-6.48566e-07 -1.22596e-05 -1.49147e-07)
(-1.42573e-06 -1.6298e-05 -1.80799e-07)
(-2.31927e-06 -1.915e-05 -2.03996e-07)
(-3.24e-06 -2.13034e-05 -2.28991e-07)
(-4.11411e-06 -2.30151e-05 -2.61341e-07)
(-4.86573e-06 -2.44329e-05 -3.03176e-07)
(-5.42277e-06 -2.56438e-05 -3.55135e-07)
(-5.71988e-06 -2.66963e-05 -4.16346e-07)
(-5.70435e-06 -2.76132e-05 -4.84576e-07)
(-5.34321e-06 -2.84006e-05 -5.56055e-07)
(-4.62974e-06 -2.90537e-05 -6.2539e-07)
(-3.58921e-06 -2.95608e-05 -6.86185e-07)
(-2.28161e-06 -2.99092e-05 -7.31695e-07)
(-7.98647e-07 -3.00865e-05 -7.56104e-07)
(7.45769e-07 -3.00852e-05 -7.56186e-07)
(2.23017e-06 -2.99055e-05 -7.31938e-07)
(3.54059e-06 -2.95549e-05 -6.86576e-07)
(4.58495e-06 -2.90456e-05 -6.25898e-07)
(5.30314e-06 -2.83912e-05 -5.56624e-07)
(5.6695e-06 -2.76028e-05 -4.8517e-07)
(5.69054e-06 -2.66854e-05 -4.16946e-07)
(5.39902e-06 -2.5633e-05 -3.55684e-07)
(4.84736e-06 -2.44225e-05 -3.03682e-07)
(4.10075e-06 -2.30056e-05 -2.61771e-07)
(3.23118e-06 -2.12952e-05 -2.29331e-07)
(2.31427e-06 -1.91433e-05 -2.04216e-07)
(1.42359e-06 -1.6293e-05 -1.80869e-07)
(6.48218e-07 -1.22566e-05 -1.49028e-07)
(7.90218e-08 -5.91584e-06 -7.8362e-08)
(-9.4092e-08 -5.12106e-06 -9.38818e-08)
(-7.69862e-07 -1.06498e-05 -1.77847e-07)
(-1.69206e-06 -1.41895e-05 -2.15638e-07)
(-2.75649e-06 -1.66956e-05 -2.43879e-07)
(-3.85952e-06 -1.85877e-05 -2.74989e-07)
(-4.91405e-06 -2.0088e-05 -3.15757e-07)
(-5.82885e-06 -2.13257e-05 -3.68779e-07)
(-6.51552e-06 -2.23768e-05 -4.34837e-07)
(-6.89265e-06 -2.32839e-05 -5.12934e-07)
(-6.89333e-06 -2.40674e-05 -6.00212e-07)
(-6.47365e-06 -2.47335e-05 -6.91825e-07)
(-5.62168e-06 -2.52797e-05 -7.80946e-07)
(-4.36544e-06 -2.56993e-05 -8.59305e-07)
(-2.77674e-06 -2.59846e-05 -9.18107e-07)
(-9.68329e-07 -2.61287e-05 -9.49712e-07)
(9.17316e-07 -2.61275e-05 -9.49786e-07)
(2.72705e-06 -2.59812e-05 -9.18345e-07)
(4.31836e-06 -2.56939e-05 -8.59661e-07)
(5.57826e-06 -2.52727e-05 -7.81402e-07)
(6.43478e-06 -2.47253e-05 -6.92362e-07)
(6.85953e-06 -2.40585e-05 -6.00778e-07)
(6.86424e-06 -2.32747e-05 -5.13505e-07)
(6.49255e-06 -2.23678e-05 -4.35394e-07)
(5.81111e-06 -2.13171e-05 -3.69288e-07)
(4.90124e-06 -2.00803e-05 -3.16199e-07)
(3.85108e-06 -1.85811e-05 -2.75348e-07)
(2.75173e-06 -1.66904e-05 -2.44095e-07)
(1.69012e-06 -1.41858e-05 -2.15718e-07)
(7.69596e-07 -1.06477e-05 -1.77749e-07)
(9.42813e-08 -5.12044e-06 -9.36474e-08)
(-1.04452e-07 -4.20919e-06 -1.04267e-07)
(-8.51707e-07 -8.80809e-06 -1.97307e-07)
(-1.87357e-06 -1.17756e-05 -2.39127e-07)
(-3.05895e-06 -1.38793e-05 -2.70648e-07)
(-4.29481e-06 -1.54613e-05 -3.0586e-07)
(-5.48371e-06 -1.67057e-05 -3.52382e-07)
(-6.52189e-06 -1.77211e-05 -4.13177e-07)
(-7.30763e-06 -1.85722e-05 -4.89065e-07)
(-7.74664e-06 -1.92959e-05 -5.78758e-07)
(-7.76087e-06 -1.99107e-05 -6.7884e-07)
(-7.29856e-06 -2.04237e-05 -7.83699e-07)
(-6.3447e-06 -2.08363e-05 -8.8549e-07)
(-4.93016e-06 -2.11473e-05 -9.74749e-07)
(-3.13609e-06 -2.13552e-05 -1.0416e-06)
(-1.09095e-06 -2.14589e-05 -1.07753e-06)
(1.04236e-06 -2.14579e-05 -1.07758e-06)
(3.08873e-06 -2.13524e-05 -1.0418e-06)
(4.88524e-06 -2.11428e-05 -9.75057e-07)
(6.30323e-06 -2.08304e-05 -8.85893e-07)
(7.26135e-06 -2.04168e-05 -7.84174e-07)
(7.72847e-06 -1.99032e-05 -6.79356e-07)
(7.71938e-06 -1.92883e-05 -5.79295e-07)
(7.28556e-06 -1.85648e-05 -4.89591e-07)
(6.50489e-06 -1.77141e-05 -4.13661e-07)
(5.47146e-06 -1.66995e-05 -3.52807e-07)
(4.28678e-06 -1.54562e-05 -3.06227e-07)
(3.05444e-06 -1.38754e-05 -2.70889e-07)
(1.87173e-06 -1.17729e-05 -2.39224e-07)
(8.5146e-07 -8.80669e-06 -1.97225e-07)
(1.04634e-07 -4.20889e-06 -1.04048e-07)
(-1.08246e-07 -3.23184e-06 -1.08084e-07)
(-8.82604e-07 -6.8345e-06 -2.04281e-07)
(-1.94799e-06 -9.1853e-06 -2.4716e-07)
(-3.19391e-06 -1.08507e-05 -2.79428e-07)
(-4.50378e-06 -1.20914e-05 -3.15992e-07)
(-5.77295e-06 -1.30522e-05 -3.64955e-07)
(-6.88839e-06 -1.38212e-05 -4.29511e-07)
(-7.73842e-06 -1.44518e-05 -5.10384e-07)
(-8.21977e-06 -1.49751e-05 -6.06014e-07)
(-8.24689e-06 -1.54079e-05 -7.12548e-07)
(-7.76334e-06 -1.57586e-05 -8.23837e-07)
(-6.75278e-06 -1.60319e-05 -9.31483e-07)
(-5.24865e-06 -1.62315e-05 -1.02554e-06)
(-3.33825e-06 -1.63612e-05 -1.09574e-06)
(-1.15931e-06 -1.64245e-05 -1.13338e-06)
(1.11388e-06 -1.64237e-05 -1.13343e-06)
(3.29393e-06 -1.63589e-05 -1.09591e-06)