/*--------------------------------*- C++ -*----------------------------------*\
| =========                 |                                                 |
| \\      /  F ield         | OpenFOAM: The Open Source CFD Toolbox           |
|  \\    /   O peration     | Version:  v1912                                 |
|   \\  /    A nd           | Website:  www.openfoam.com                      |
|    \\/     M anipulation  |                                                 |
\*---------------------------------------------------------------------------*/
FoamFile
{
    version     2.0;
    format      ascii;
    class       volScalarField;
    location    "152/oil";
    object      wallHeatFlux;
}
// * * * * * * * * * * * * * * * * * * * * * * * * * * * * * * * * * * * * * //

dimensions      [1 0 -3 0 0 0 0];


internalField   uniform 0;

boundaryField
{
    maxY
    {
        type            calculated;
        value           uniform 0;
    }
    minX
    {
        type            calculated;
        value           uniform 0;
    }
    maxX
    {
        type            calculated;
        value           uniform 0;
    }
    minY
    {
        type            calculated;
        value           uniform 0;
    }
    minZ
    {
        type            calculated;
        value           uniform 0;
    }
    maxZ
    {
        type            calculated;
        value           uniform 0;
    }
    oil_to_sphere
    {
        type            calculated;
        value           nonuniform List<scalar> 
1536
(
7031.57
6792.39
6795.98
6339.09
6310.56
6772.3
6584.66
6651.64
6622.48
6368.5
6199.58
6397.53
6615.76
6416.9
6125.72
6551.59
6776.04
6807.75
6536.96
6604.94
6712.55
6622.91
6645.1
6549.33
6575.3
6561.28
6568.1
6518.49
6767.98
6639.54
6839.86
6791.47
6803.31
6547.87
6564.51
6515.86
6533.81
6460.82
6511.15
6563.13
6499.11
6537.83
6614.83
6671.34
6732.89
6560.3
6735.4
6666.68
6134.46
6564.38
6690.64
6628.13
6659.93
6543.28
6759.24
6929.75
6638.37
6606.22
6712.9
6681.84
6612.6
6611.8
6610.86
6538.3
6566.42
6600.26
6603.34
6699.32
6690.93
6752.1
6537.14
6340.71
6408.11
6562.61
6557.54
6943.53
6803.98
6481.01
6552.55
6803.77
6715.45
6687.07
6326.75
6317.46
6766.29
6991.11
6284.08
6582.88
6685.69
6682.44
6635.39
6522.96
6522.42
6531.67
6559.93
6667.11
6724.44
6737.26
6818.51
6676.65
6719.25
6532.42
7042.33
6696.7
6399.16
6555.5
6570.89
6359.54
6363.42
7055.28
6800
6656.71
6610.94
6651.62
6295.91
6333.26
6254.28
6885.17
7015.31
6819.27
6634.54
6650.63
6508.54
6718.97
6832.89
6689.39
6626.53
6491.1
6733.54
6702.52
6603.24
6693.78
6754.28
6567.77
6587.86
6760.23
6651.38
6807.76
6497.35
6777.93
6622.07
6702.23
6703.64
6617.33
6587
6612.69
6656.37
6945.53
6669.19
7051.66
6736.94
6853.7
6636.73
6652.89
6543.17
6721.59
6749.61
6769.79
7108.34
6905.9
6798.66
6969.16
6408.23
6449.21
6526.66
6517.13
6739.41
6897.38
6803.87
6970.92
6526.77
6543.31
6489.24
6733.32
6670.43
6679.73
6970.04
6535.96
6530.13
6985.53
6498.64
6447.27
6443.67
6463.78
6754.71
6994.73
6910.1
6513.76
6444.82
6804.98
6464.37
6762.29
6752.75
6862.21
6396.49
6092.36
6857.66
6886.11
6617.44
6548.28
6633.78
6581.57
6815.06
6856.88
6738.72
6690.2
6562.08
6888.97
6828.56
6728.18
6486.91
6564.71
6555.25
6618.38
6741.84
6951.11
6522.82
6411.23
6415.21
6068.89
6787.61
6729.61
6683.12
6637.58
6652.17
6901.24
6764.56
6599.26
6792.14
6380.77
6520.84
6112.46
6608.03
6805.17
6858.91
6843.09
6779.63
6726.18
6812.39
6398.37
6430.78
6558.23
6886.29
6485.32
6132.05
6255.65
6724.56
6696.67
7000.51
7158.3
6658.73
6327.12
6068.14
6681.43
6883.72
6531.01
6538.61
6274.08
6521.68
6897.83
7013.95
6637.99
6544.54
6905.08
6928.17
6558.79
6366.32
6628.79
6958.55
6897.21
6727.09
6756.17
6846.69
6452.23
6546.19
6863.11
6755.96
6844.77
6621.09
6798.33
6946.59
6747.94
6726.2
6900.26
6547.82
6538.23
6573.96
6498.95
6524.24
6868.02
6958.16
6520.58
6584.35
6572.82
6591.17
6514.53
6662.01
6627.15
6476.19
6284.29
6515.64
6399.31
6493.82
6998.85
6907.55
6907.86
7155.49
6426.06
6444.19
6692.91
7047.66
7074.96
6530.68
6629.68
6515.24
6751.12
6551.37
6721.09
6741.73
6824.85
6755.82
6582.91
6774.36
6508.84
6850.99
6883.88
6789.98
6774.97
6467.03
6972.84
6984.67
6785.63
6386.73
6546.74
6600.06
6744.3
6718.85
6742.7
6460.53
6847.59
6918.02
6815.09
6905.52
6697.41
6676.42
6619.56
6435.78
6691.33
6757.47
6429.45
6407.28
6451.98
7036.99
6853.41
6912.75
6707.39
6677.15
6888.98
6414.05
6986.31
6816.96
6671.38
6673.6
6404.05
6838.05
6845.52
6484.45
6669.67
6607.47
6549.8
6757.43
6843.27
6615.48
6569.08
6439.34
6949.33
6850
6410.53
6894.33
6871.61
6791.33
6944.72
6666.89
6768.82
6386.92
6388.38
6745.02
7120.86
6804.97
7020.27
6719.47
6580.16
6817.93
6467.51
6538.03
6742.11
6838.84
6762.09
6704.78
6482.6
6452.99
6867.79
6912.65
6851.76
6673.91
6537.95
6723.03
6772.61
6826.22
6685.18
6600.92
6499.97
6660.29
6461.9
6361.87
6530.4
6496.55
6658.47
6360.83
6578.56
7004.81
6573.83
6570.92
6841.43
6832.25
6743.31
6610.01
6417.58
6801.29
6906.67
6736.51
6696.86
6796.31
6638.6
6653.68
6705.14
6327
6776.57
6912.84
6915.21
6824.68
6777.03
6749.18
6684.54
6610.32
6466.17
6645.23
6484.11
6403.3
6502.42
6348.57
7006.87
6975.56
6878.98
7112.59
6532.14
7002.77
6453.16
6497.94
6773.14
6534.37
6448.59
6580.78
6557.36
6985.19
6917.52
6704.21
6727.37
6945.82
6871.89
6679.42
6774.46
6484.09
6836.48
6379.46
6914.17
6323.32
6790.77
6811.16
6830.89
6580.49
6440.62
6600.27
6836.17
6611.73
6366.65
6851.75
6858.35
6944.69
7067.87
6743.58
6916.53
6423.34
6455.75
6153.16
6238.22
6663.14
6568.21
6544.67
6506.39
7015.7
6554.92
6397.16
6358.89
6626.68
6434.54
7110.52
6507.2
6522.37
6656.26
6201.7
6262.03
6531.14
6525.25
6607.17
6564.02
6855.67
6824.17
6750.83
6676.28
6349.23
6550.31
6837.22
6461.89
6481.05
6791.64
6943.21
6494.74
6182.68
6430.73
6203.98
6634
6573.71
6521.18
6395.64
6172.54
6772.4
6796.57
6712.06
6646.9
6964.24
6775.53
6733.82
6681.84
6465.13
6547.47
6857.92
6760.21
6584.4
6243.18
6682.74
6869.58
6975.83
6691.64
6601.22
6954.83
6712.67
6916.98
6476.16
6546.82
6443.73
6569.51
6673.97
6928.63
6630.24
6489.58
6461.11
6650.14
7096.7
6446.78
6549.98
6394.81
6683.3
6673.9
6870.66
6950.14
6438.96
6381.33
6958.03
7010.04
6294.61
6974.22
6891.31
6806.56
6905.85
6749.99
6678.57
6676.19
6954.51
6685.24
6741.42
6664.03
6828.23
6702.81
6644.94
6631.58
6421.24
6795.16
6676.99
6828.9
6780.52
6792.37
6760.02
6691.14
6394.84
6874.51
6880
6756.88
6642.3
6706.95
7046.1
6453.99
6469.72
6420.54
6740.14
6583.03
7043.36
6582.97
6610.49
6673.97
6175.81
6186.87
6539.32
6532.58
6654.75
6440.27
6487.07
6761.7
6575.95
6947.09
6521.42
7021.97
6666.69
6736.28
6192.92
6183.52
6142.96
6528.81
6803.27
6560.6
6523.89
6196.61
6647.93
6846.8
6649.82
7220.03
6487.55
6853
6812.76
6797.43
6892.06
6899.52
6817.26
6663.09
6609.14
6646.95
6805.94
6614.94
6713.14
6706.89
6715.34
6830.37
6763.25
6800.34
6439.61
6484.24
6089.44
6268.33
6350.49
5945.22
6548.34
6565.77
6613.3
6646.99
6353.73
6426.31
6584.38
6900.5
6899.59
6580.77
6371.94
6620.83
6834.91
6795.42
6644.77
6367.22
6486.86
6758.02
6728.62
6641.09
6558.95
6779.26
6794.2
6949.74
6787.77
6683.97
6564.76
6481.63
6407.45
6604.29
6680.55
7058.08
6661.47
7013.68
6583.96
7090.53
6539.39
6618.03
6450.9
6483.69
6563.4
6433.52
6610.09
6359.43
6542.9
6870.3
6579.57
6413.67
6972.82
6781.64
6717.94
6643.99
6991.14
7223.03
6286.58
6764.88
6744.39
6743.45
6439.35
6639.61
6516.71
6724.59
6827.51
6859.93
6473.82
6762.19
6684
6775.37
6765.5
6726.66
6599.85
6627.09
6557.83
6376.64
6350.71
6456.03
6919.37
6546.31
6406.74
6551.67
6866.04
6601.59
6926.38
6836.24
6738.32
6684.32
6739.75
6973.73
6455.06
6755.28
6890.46
6894.72
6688.76
6506.31
6610.7
6744.94
6903.36
6446.15
6629.26
6687.94
6856.36
6722.23
6752.74
6934.14
6446.24
6520.89
6489.74
6981.3
6861.92
6668.18
6856.38
6518.17
6551.47
6855.15
6763.32
6942.42
6461.19
6809.69
6846.2
6686.41
6724.73
6799.59
6484.21
6330.84
6652.94
6757.97
7023.65
6626.83
6542.57
6641.12
6731.73
6810.33
6673.7
6517.48
6625.58
6837.26
6495.71
6495.2
6619.54
6539.1
6706.04
6681.99
6890
6750.56
6816.59
6556.68
6651.48
6704.58
6632.2
6593.43
6567.15
6557.24
6456.11
6776.27
6699.45
6690.82
6743.62
6379
6571.79
6977.25
6974.96
6510.23
6860.52
6731.47
6762.97
6564.6
6904.95
6876.59
6451.2
6597.39
6570.26
6563.36
6395.39
6423.79
6568.79
6883.81
7100.02
6532.8
6800.96
6774.9
6720.73
6614.91
6706.33
6894.34
6742.16
6461
6573.8
6554.5
6585.23
6746.97
6795.54
6780.18
6787.5
6800.34
6523.18
6795
6583.59
6778.78
6177.85
6746.45
6906.19
6592.76
6288.24
6682.68
6637.09
6992.45
6495.96
6796.09
6650.03
6329.14
6973.37
6416.37
6620.61
6649.89
6386.7
6864.29
6697.27
6622.54
6709.35
6696.54
6608.02
7000.72
6431.31
6567.67
6139.01
6656.22
6585.19
6657.77
6862.17
7220.25
6387.26
6577.88
7130.04
6422.24
6783.81
6511.95
6763.3
6294.19
6505.76
7121.57
6313.28
7109.99
6350.43
6988.24
6352.96
6492.04
6189.45
6450.59
7085.4
6223.93
6674.23
6317.98
6967.39
7087.38
6240.15
6653.48
6514.34
6458.94
6444.97
6560.61
6653.21
6656.07
6751.56
6634.13
6947.13
7146.42
6239.92
6717.92
6717.77
6650.55
6680.21
6627.4
6613.67
6624.14
6814.98
6639.42
6812.48
6569.36
6705.49
6912.94
6587.25
6741.64
6853.94
6562.67
6705.82
6644.54
6751.69
6617.14
6686.36
6598.13
6839.69
6576.37
6711.45
6355.47
6975.06
6245.51
6773.63
6846.75
6944.48
6496.77
6680.39
6630.25
6670.94
6690.69
6643.15
6814.45
6466.02
6079.21
6706.48
6294.11
6887.17
6505.6
6652.77
6838.16
6098.94
6987.73
6498.45
6191.65
6539.37
6777.7
6758.12
6674.9
6216.41
6685.09
6718.5
6530.75
6501.88
6890.58
6859.85
6560.7
6657.12
6891.06
6229.43
6845.27
6499.37
6750.49
6253.61
7120.23
7021.51
6832.72
6674.42
6626.19
6797.08
6608.77
6212.94
6446.84
6786.85
6509.67
6786.59
6281.79
6885.62
6783.2
5970.1
6689.18
6713.52
6117.48
6978.93
6345.46
6884.33
6973.42
6822.07
6164.98
6681.37
6611.17
6687.59
6693.39
6763.05
6225.89
6581.73
6507.02
6511.32
6882.59
6661.13
6760.19
6757.93
6753.76
6607.76
6679.15
6620.33
6709.66
6877.16
6550.05
6598.54
6533.23
6704.31
6846.27
6550.37
6583.11
6563.61
6662.13
6511.12
6522.73
6585.59
6603
6676.47
6605.75
6940.19
6832.97
6293.31
6330.93
6947.37
5938.1
6787.86
6718.79
6521.3
6609.45
6980.38
6109.69
6857.33
6748.55
6187.37
6575.53
6546.35
6694.52
6084.31
6899.38
6781.14
6095.35
6877.61
6911.65
6246.96
6944.29
6860.32
6254.03
6543.06
6517.62
6118.79
6657.9
6686.07
6484.86
6496.96
6538.62
6022.79
6483.24
6161.69
6002.39
6852.71
6513.14
7079.79
6578.2
6220.71
6891.82
6672.52
6148.57
6555.39
6549.32
6143.51
6319.16
6981.04
5867.92
6451.4
6497.67
5962.53
6869.95
6820.96
6657.12
6578.02
6554.14
6445.4
6047.05
6663.6
6575.27
6591.61
6658.42
6169.42
6817.19
6546.18
6631.46
6520.32
6621.79
6675.25
6442.4
6192.71
6582.21
6740.54
6538.71
6582.93
6649.38
6495.2
6596.69
6170.32
6568.61
6772.85
6523.68
6610.81
6502.07
6205.33
6948.91
6952.46
6878.52
6981.68
6242.22
6114.19
6585.56
6855.58
6684.26
6780.71
6817.22
6450.89
6395.21
6167.39
6270.71
6484.59
6634.05
6618.88
6608.42
6414.76
6844.03
6731.08
6257.97
6458.38
6443.56
6811.36
6494.73
6054.57
6724.4
6642.9
6857.96
6153.24
6567.45
6725.52
6562.31
6600.7
6776.58
6631.88
6448.2
6982.27
5967.97
6438.15
6654.69
6500.57
6572.09
6960.73
6746.33
6669.44
6380.92
6919.2
6567.86
6677.69
6814.54
6862
6840.24
6859.9
6950.41
6995.78
6930.71
6931.29
6721.8
6832.54
6547.73
6606
6421.88
6335.69
6013.31
6969.16
6952.1
6881.48
6588.52
6677.21
6663.14
6504.8
6696.41
6824.75
6464.09
6616.06
6764.12
6547.11
6554.11
6538.54
6586.09
6486.07
6577.1
6559.26
6251.97
6722.3
6475.28
6611.87
6135.62
6997.15
6625.09
6516.62
6482.15
6275.43
6655.67
6524.56
6114.55
6391.32
6615.76
6343.06
6378.65
6999.08
7028.91
6565.45
6565.4
6796.97
6950.12
6105.99
6550.69
6490.95
6571.46
6572.13
6590.72
6626.17
6403.51
6197.27
6932.18
6568.91
6356.25
6398.06
6556.87
6653.99
6285.26
6642.97
6519.6
6546.71
6953.43
6366.78
6219.35
6583.02
6532.43
6495.4
6204.79
6881.06
6565.55
6542.36
6558.83
6115.47
6581.59
6571.25
6230.01
6573.07
6387.61
6719.54
6887.94
6515.26
6818.52
6699.92
6512.16
6515.15
6579.06
6211.04
6733.27
6768.96
6539.33
6159.99
6440
6606.62
6621.37
6512.11
6190.33
6523.28
6857.14
6719.22
6539.2
6994.22
6354.16
6848.78
6119.07
6350.1
6875.09
6128.81
6850.52
6552.79
6652.96
6549.35
7035.46
6409.96
6653.15
6943.49
6934.4
6284.02
6896.08
6958.84
5955.09
6687.3
6523.34
6130.69
6804.24
6517.87
6545.49
6547.04
6628.19
6593.84
6537.35
6523.23
6112.34
6781.32
6665.28
6638.57
6671.96
6586.51
6507.56
6442.2
6836.67
6056.11
6483.56
6549.17
6095.33
6842.69
6969.99
6685.13
6886.74
6936.33
6476.44
6611.31
6730.86
6884.97
6493.48
6764.33
6397.88
6154.6
6828.73
6441.56
6855.9
7010.69
6944.6
6154.74
6850.85
6694.73
6462.18
6535.45
6576.83
6524.43
6162.61
6928.37
6173.29
6920.47
6583.29
6399.59
6405.09
6633.22
6763.1
6957.34
6639.03
7044.56
6827.93
6844.82
6155.77
6832.53
6777.64
6867.53
6504.89
6462.28
6071.72
6612.97
7029.06
6904.75
6183.86
6412.35
6216.21
6502.87
6623.71
6387.11
7193.93
6550.47
6408.17
6202.33
6719.5
6472.53
6065.44
6629.11
6525.71
6524.03
6536.66
6540.39
6208.21
6382.78
6133.11
6545.04
6846.13
6723.01
6909.34
6872.52
6484.56
6433.31
6128.19
6490.4
6809.7
6913.39
6825.05
6811.54
6354.23
6094.92
6414.08
6052.69
6797.47
6823.06
6439.89
6834.99
6812.03
6890.97
6738.36
6654.81
6645.71
6484.16
6091.51
6432.39
6168.48
6416.36
6536.76
6510.31
6245.17
6153.81
6756.53
7024.68
7015.29
6947.38
6640.22
6737.61
6731.25
6632.39
6540.83
6621.19
6452.87
6585.78
6587.62
6151.09
6829.76
6574.77
6416.25
6241.38
6540.02
6632.08
6629.08
6514.41
6244.53
6937.12
6702.45
6527.6
6986.06
6456.58
6133.68
6769.51
6596.22
6590.03
6586.51
6512.65
6040.47
6645.77
6582.16
6177.55
6964.76
6562.81
5889.89
6535.07
6619.48
6636.52
6509.01
6164.37
6485.13
6498.35
6326.21
6594.29
6119.15
6612.03
6598.46
6299.17
7014.3
6578.99
6231.89
7089.65
6617.61
6620.06
6234.99
6595.57
6176.27
)
;
    }
}


// ************************************************************************* //
