/*--------------------------------*- C++ -*----------------------------------*\
| =========                 |                                                 |
| \\      /  F ield         | OpenFOAM: The Open Source CFD Toolbox           |
|  \\    /   O peration     | Version:  v1912                                 |
|   \\  /    A nd           | Website:  www.openfoam.com                      |
|    \\/     M anipulation  |                                                 |
\*---------------------------------------------------------------------------*/
FoamFile
{
    version     2.0;
    format      ascii;
    class       volScalarField;
    location    "145/oil";
    object      heatTransferCoeff(T);
}
// * * * * * * * * * * * * * * * * * * * * * * * * * * * * * * * * * * * * * //

dimensions      [1 0 -3 -1 0 0 0];


internalField   uniform 0;

boundaryField
{
    maxY
    {
        type            calculated;
        value           uniform 0;
    }
    minX
    {
        type            calculated;
        value           uniform 0;
    }
    maxX
    {
        type            calculated;
        value           uniform 0;
    }
    minY
    {
        type            calculated;
        value           uniform 0;
    }
    minZ
    {
        type            calculated;
        value           uniform 0;
    }
    maxZ
    {
        type            calculated;
        value           uniform 0;
    }
    oil_to_sphere
    {
        type            calculated;
        value           nonuniform List<scalar> 
360
(
-83.9298
-84.4008
-57.3135
-148.861
-158.859
-66.6798
-163.095
-147.185
-158.45
-82.9211
-83.3647
-66.3893
-73.6929
-51.6579
-81.2173
-140.924
-160.857
-149.05
-155.925
-51.4649
-129.678
-83.1145
-73.1636
-154.166
-57.5611
-159.82
-66.4734
-157.465
-156.289
-147.782
-167.911
-163.848
-57.5031
-56.9223
-65.7342
-66.0582
-154.334
-153.215
-149.077
-151.458
-155.309
-57.112
-65.3033
-86.3293
-86.5295
-66.2792
-72.4539
-51.0945
-81.2086
-145.935
-66.8813
-66.332
-73.0558
-73.1644
-51.0804
-83.4757
-149.5
-51.3714
-65.5071
-72.0071
-51.3975
-157.09
-149.188
-155.714
-51.1011
-134.649
-81.1025
-70.9646
-163.361
-155.262
-149.602
-153.201
-152.694
-51.1272
-115.713
-80.7422
-51.7353
-70.174
-153.485
-157.975
-71.8528
-70.5801
-70.7864
-51.385
-57.1236
-65.8604
-66.2066
-73.3056
-51.4158
-51.7598
-57.2181
-73.4907
-66.1772
-57.1235
-72.9034
-65.953
-65.9671
-66.0763
-56.8604
-52.2215
-52.2222
-51.3549
-66.7345
-66.576
-73.676
-51.3545
-51.8734
-73.8335
-57.1051
-66.3613
-66.288
-66.289
-56.999
-51.2341
-52.496
-52.357
-72.6968
-72.271
-72.1529
-85.4923
-85.6337
-143.755
-153.151
-138.579
-154.513
-143.809
-154.436
-156.43
-145.65
-152.206
-149.634
-72.1346
-71.6795
-71.9416
-52.1095
-143.222
-155.955
-84.1997
-84.4003
-157.446
-145.469
-82.3114
-81.087
-159.729
-146.513
-168.845
-52.1149
-51.9894
-154.061
-157.84
-168.394
-159.978
-160.035
-166.882
-168.249
-145.704
-80.6014
-159.077
-150.87
-51.6242
-157.304
-161.325
-70.3733
-69.3339
-72.1125
-82.3184
-83.2775
-159.438
-146.687
-165.867
-50.9324
-148.825
-83.6314
-157.52
-150.444
-50.9765
-162.371
-71.4489
-71.2853
-52.0463
-66.4008
-66.4747
-73.4909
-57.404
-73.0161
-65.7951
-51.375
-52.1583
-156.282
-146.533
-157.126
-151.122
-85.8428
-85.9033
-153.822
-140.699
-151.27
-81.7258
-82.2204
-51.925
-65.9611
-67.0225
-73.6922
-66.4046
-66.1139
-73.7471
-57.0739
-73.2593
-65.91
-56.657
-145.3
-73.6336
-65.9071
-51.5624
-152.814
-144.704
-152.796
-85.3567
-85.3586
-50.9324
-65.639
-65.7355
-71.6534
-156.895
-56.6261
-71.4486
-65.5067
-147.764
-148.969
-84.806
-51.2636
-84.1506
-51.254
-52.3979
-72.8765
-57.3987
-65.3853
-64.9273
-64.3816
-56.6075
-51.7441
-149.269
-139.984
-157.168
-164.758
-147.41
-139.371
-159.06
-160.822
-82.1976
-150.954
-51.9929
-158.789
-156.916
-157.681
-73.069
-57.3583
-66.3954
-73.1392
-57.5872
-157.711
-65.9089
-65.8399
-66.3189
-56.9456
-159.556
-146.796
-65.783
-65.81
-56.8639
-147.277
-166.556
-83.1939
-150.192
-51.4461
-156.577
-153.864
-157.808
-70.8823
-56.8328
-155.451
-65.4475
-65.5947
-65.3487
-154.166
-57.0248
-151.693
-84.3906
-140.272
-84.8071
-147.93
-150.658
-153.597
-51.3625
-70.086
-68.9286
-69.646
-84.4986
-154.471
-84.2695
-149.587
-154.038
-51.8262
-155.52
-158.075
-80.9464
-151.46
-51.8085
-166.564
-71.1405
-70.7189
-50.8545
-149.467
-84.2851
-132.881
-150.021
-84.2063
-51.372
-66.0595
-66.1409
-73.5443
-154.833
-143.625
-82.9293
-52.0238
-144.592
-84.2283
-51.5972
-145.536
-157.556
-81.8006
-152.054
-50.7448
-164.238
-73.8466
-161.669
-56.9857
-66.2582
-162.139
-151.605
-148.854
-82.8309
-158.016
-156.528
-83.4887
-149.771
-69.8436
-71.6285
-147.124
-83.8419
-51.1259
-146.968
-84.0368
-51.6863
-151.57
-152.488
-144.162
-84.3893
-149.043
-84.5876
)
;
    }
}


// ************************************************************************* //
