/*--------------------------------*- C++ -*----------------------------------*\
| =========                 |                                                 |
| \\      /  F ield         | OpenFOAM: The Open Source CFD Toolbox           |
|  \\    /   O peration     | Version:  v1912                                 |
|   \\  /    A nd           | Website:  www.openfoam.com                      |
|    \\/     M anipulation  |                                                 |
\*---------------------------------------------------------------------------*/
FoamFile
{
    version     2.0;
    format      ascii;
    class       volScalarField;
    location    "145/oil";
    object      wallHeatFlux;
}
// * * * * * * * * * * * * * * * * * * * * * * * * * * * * * * * * * * * * * //

dimensions      [1 0 -3 0 0 0 0];


internalField   uniform 0;

boundaryField
{
    maxY
    {
        type            calculated;
        value           uniform 0;
    }
    minX
    {
        type            calculated;
        value           uniform 0;
    }
    maxX
    {
        type            calculated;
        value           uniform 0;
    }
    minY
    {
        type            calculated;
        value           uniform 0;
    }
    minZ
    {
        type            calculated;
        value           uniform 0;
    }
    maxZ
    {
        type            calculated;
        value           uniform 0;
    }
    oil_to_sphere
    {
        type            calculated;
        value           nonuniform List<scalar> 
360
(
7795.57
7839.44
5323.48
13822.8
14751
6194.99
15144.2
13668.3
14710.1
7701.65
7742.87
6167.93
6847.12
4798.5
7543.69
13087.2
14936.1
13841.3
14476
4780.64
12043
7720.02
6794.24
14315.1
5346.38
14840
6175.86
14621.7
14509.8
13724
15590.9
15213.7
5340.9
5286.99
6106.99
6137.29
14330.7
14224.7
13844
14061.3
14419
5304.69
6067.19
8018.41
8037.18
6157.74
6732.12
4746.15
7542.92
13552.4
6213.84
6162.76
6788.05
6798.15
4744.77
7753.3
13883.2
4771.94
6086.13
6690.76
4774.36
14586.7
13854.4
14456.4
4746.87
12504.5
7533.22
6590
15169.6
14415.1
13893.2
14223.5
14176.3
4749.47
10746.4
7499.98
4805.64
6516.82
14250
14666.5
6672.7
6554.53
6573.7
4773.23
5306.06
6118.95
6151.14
6811.22
4775.83
4808.03
5314.55
6828.33
6148.33
5305.74
6773.88
6127.51
6128.82
6139.02
5281.41
4850.87
4850.92
4770.3
6200.1
6185.37
6845.53
4770.21
4818.36
6860.13
5303.89
6165.34
6158.67
6158.68
5294.21
4759.09
4876.44
4863.49
6750.88
6711.34
6700.33
7940.71
7954.04
13350
14218.4
12869.3
14344.8
13355
14337.9
14525.3
13526.1
14131
13894.7
6698.69
6656.49
6680.81
4840.42
13300.2
14478.5
7820.62
7839.26
14616.8
13508.8
7645.18
7531.48
14828.9
13605.8
15677.6
4840.94
4829.13
14306.2
14653.6
15635.7
14855.4
14857.1
15495.5
15622.6
13529.6
7486.32
14768.2
14010.6
4795.3
14603.9
14980
6535.12
6438.54
6696.58
7645.91
7734.92
14801.8
13622
15401.5
4731.01
13817.1
7767.73
14624
13971
4735.1
15076.9
6635.02
6619.81
4834.51
6169.11
6175.88
6828.4
5331.93
6784.33
6112.94
4772.3
4844.95
14508.8
13607.8
14587.3
14033.8
7973.16
7978.92
14280.8
13066.6
14046.2
7591.15
7636.96
4823.41
6128.15
6226.82
6847.07
6169.51
6142.54
6852.24
5301.01
6806.85
6123.41
5262.43
13492.1
6841.69
6123.23
4789.6
14187.4
13438.1
14187.9
7928.14
7928.43
4731.1
6098.35
6107.28
6657.8
14568.8
5259.58
6638.8
6086.13
13722.2
13833.9
7876.99
4761.83
7815.98
4760.94
4867.17
6771.32
5331.31
6074.77
6032.24
5981.66
5257.77
4806.55
13861.7
13000
14591.6
15298.5
13686.2
12942.3
14769.5
14932.9
7634.7
14018.5
4829.63
14741.8
14568.1
14641.9
6789.24
5327.84
6168.81
6795.79
5348.96
14644.5
6123.48
6117.04
6161.76
5289.45
14816.2
13631.6
6111.74
6114.3
5281.71
13676
15465.5
7727.29
13947.4
4778.83
14536.8
14285.2
14653.7
6586.27
5278.86
14434.9
6080.68
6094.39
6071.53
14316
5296.86
14086.2
7838.52
13026.7
7877.17
13737.7
13987.4
14260.4
4771.06
6508.63
6401.17
6467.81
7848.57
14341.5
7827.24
13891.7
14303.9
4814.18
14438.5
14675.6
7518.56
14065.2
4812.5
15466.3
6606.39
6567.26
4724
13877.2
7828.95
12340.7
13931
7821.61
4772.11
6137.54
6145.16
6833.48
14377.2
13338.1
7702.78
4832.53
13427.6
7823.18
4792.76
13512.5
14628
7598.03
14120.9
4713.71
15250
6861.51
15011.8
5292.99
6155.93
15055.7
14077.8
13823.1
7693.55
14670.2
14532.1
7754.3
13908.2
6486.2
6651.95
13662.9
7787.5
4749.12
13648.4
7805.69
4801.23
14072.2
14157.4
13388
7838.45
13841.3
7856.76
)
;
    }
}


// ************************************************************************* //
