/*--------------------------------*- C++ -*----------------------------------*\
| =========                 |                                                 |
| \\      /  F ield         | OpenFOAM: The Open Source CFD Toolbox           |
|  \\    /   O peration     | Version:  v1906                                 |
|   \\  /    A nd           | Web:      www.OpenFOAM.com                      |
|    \\/     M anipulation  |                                                 |
\*---------------------------------------------------------------------------*/
FoamFile
{
    version     2.0;
    format      ascii;
    class       volScalarField;
    location    "0.01/oil";
    object      p;
}
// * * * * * * * * * * * * * * * * * * * * * * * * * * * * * * * * * * * * * //

dimensions      [1 -1 -2 0 0 0 0];


internalField   nonuniform List<scalar> 
168664
(
100000
100003
100004
100005
100005
100005
100005
100006
100006
100006
100006
100006
100006
100006
100006
100006
100006
100006
100006
100006
100006
100006
100006
100006
100006
100006
100006
100006
100006
100006
99933.7
99934.8
99935.4
99935.9
99936.2
99936.5
99936.8
99937
99937.2
99937.3
99937.3
99937.3
99937.3
99937.3
99937.3
99937.3
99937.3
99937.3
99937.3
99937.4
99937.4
99937.3
99937.2
99937.1
99937
99937
99937
99937
99937
99936.6
99865.8
99866.4
99866.7
99867
99867.2
99867.5
99867.7
99867.9
99868.1
99868.3
99868.3
99868.3
99868.4
99868.4
99868.4
99868.4
99868.4
99868.4
99868.4
99868.4
99868.4
99868.3
99868.1
99868.1
99868
99868
99868
99868
99867.9
99867.5
99797.3
99797.8
99798
99798.2
99798.3
99798.5
99798.7
99798.8
99799
99799.2
99799.3
99799.3
99799.4
99799.5
99799.5
99799.5
99799.5
99799.5
99799.4
99799.4
99799.3
99799.2
99799.1
99799.1
99799
99799
99799
99798.9
99798.9
99798.5
99728.6
99729
99729.2
99729.3
99729.4
99729.6
99729.7
99729.8
99730
99730.1
99730.2
99730.4
99730.5
99730.6
99730.6
99730.6
99730.6
99730.6
99730.5
99730.4
99730.3
99730.2
99730.2
99730.1
99730.1
99730
99730
99729.9
99729.9
99729.5
99659.8
99660.2
99660.3
99660.4
99660.6
99660.7
99660.8
99660.9
99661
99661.1
99661.2
99661.4
99661.6
99661.7
99661.7
99661.7
99661.7
99661.6
99661.5
99661.4
99661.3
99661.3
99661.2
99661.2
99661.1
99661
99661
99660.9
99660.9
99660.5
99591
99591.3
99591.4
99591.5
99591.7
99591.8
99591.9
99592
99592.1
99592.2
99592.3
99592.5
99592.6
99592.7
99592.7
99592.8
99592.8
99592.7
99592.6
99592.4
99592.4
99592.3
99592.3
99592.2
99592.1
99592.1
99592
99592
99591.9
99591.5
99522
99522.4
99522.5
99522.6
99522.7
99522.8
99522.9
99523
99523.1
99523.2
99523.4
99523.5
99523.6
99523.6
99523.6
99523.7
99523.8
99523.7
99523.6
99523.5
99523.4
99523.4
99523.3
99523.2
99523.2
99523.1
99523
99522.9
99522.8
99522.5
99453.1
99453.4
99453.6
99453.7
99453.8
99453.9
99454
99454.1
99454.2
99454.3
99454.4
99454.5
99454.5
99454.5
99454.5
99454.6
99454.7
99454.7
99454.6
99454.5
99454.5
99454.4
99454.3
99454.3
99454.2
99454.1
99454
99453.9
99453.8
99453.5
99384.2
99384.5
99384.6
99384.7
99384.9
99385
99385.1
99385.2
99385.3
99385.4
99385.4
99385.5
99385.5
99385.4
99385.4
99385.4
99385.5
99385.6
99385.6
99385.6
99385.5
99385.4
99385.3
99385.3
99385.2
99385.1
99385
99384.8
99384.7
99384.5
99315.2
99315.4
99315.5
99315.7
99315.8
99315.9
99316.1
99316.2
99316.3
99316.4
99316.5
99316.5
99316.4
99316.3
99316.3
99316.4
99316.4
99316.5
99316.5
99316.6
99316.5
99316.4
99316.4
99316.3
99316.2
99316.1
99315.9
99315.8
99315.7
99315.5
99246.2
99246.4
99246.4
99246.5
99246.7
99246.8
99246.9
99247
99247.2
99247.3
99247.4
99247.3
99247.3
99247.3
99247.3
99247.3
99247.3
99247.4
99247.4
99247.5
99247.5
99247.4
99247.3
99247.2
99247.1
99247
99246.9
99246.8
99246.7
99246.5
99177.2
99177.3
99177.3
99177.4
99177.5
99177.5
99177.6
99177.7
99177.9
99178
99178.1
99178.1
99178.1
99178.2
99178.2
99178.3
99178.3
99178.3
99178.3
99178.3
99178.3
99178.2
99178.1
99178
99177.9
99177.9
99177.8
99177.8
99177.8
99177.5
99108.3
99108.3
99108.3
99108.3
99108.3
99108.4
99108.4
99108.5
99108.6
99108.7
99108.7
99108.8
99108.9
99109
99109.1
99109.1
99109.2
99109.1
99109.1
99109.1
99109.1
99109
99109
99108.9
99108.9
99108.8
99108.8
99108.8
99108.8
99108.6
99039.3
99039.3
99039.3
99039.3
99039.3
99039.3
99039.3
99039.3
99039.4
99039.4
99039.5
99039.5
99039.6
99039.7
99039.7
99039.8
99039.8
99039.8
99039.8
99039.8
99039.8
99039.7
99039.7
99039.7
99039.7
99039.7
99039.7
99039.7
99039.6
99039.5
98970.3
98970.2
98970.2
98970.2
98970.2
98970.2
98970.2
98970.2
98970.1
98970.1
98970.1
98970.1
98970.1
98970.1
98970.2
98970.3
98970.5
98970.5
98970.5
98970.5
98970.5
98970.5
98970.5
98970.5
98970.5
98970.5
98970.5
98970.5
98970.5
98970.5
98901.3
98901.1
98901.1
98901.1
98901
98901
98901
98900.9
98900.9
98900.8
98900.8
98900.8
98900.8
98900.8
98900.8
98901
98901.2
98901.3
98901.3
98901.2
98901.1
98901.2
98901.3
98901.4
98901.4
98901.5
98901.5
98901.5
98901.5
98901.5
98832.3
98832.1
98832.1
98832
98832
98832
98831.9
98831.8
98831.7
98831.6
98831.6
98831.6
98831.6
98831.6
98831.7
98831.8
98832
98832.1
98832
98831.9
98831.8
98831.8
98831.9
98832.1
98832.2
98832.3
98832.3
98832.4
98832.5
98832.6
98763.4
98763.1
98763.1
98763
98762.9
98762.8
98762.7
98762.6
98762.5
98762.5
98762.4
98762.5
98762.5
98762.6
98762.6
98762.7
98762.8
98762.8
98762.7
98762.6
98762.6
98762.6
98762.7
98762.8
98762.9
98763
98763.1
98763.2
98763.3
98763.5
98694.4
98694.1
98694
98693.9
98693.8
98693.7
98693.6
98693.6
98693.5
98693.4
98693.4
98693.4
98693.4
98693.5
98693.5
98693.6
98693.6
98693.5
98693.5
98693.4
98693.5
98693.5
98693.6
98693.7
98693.7
98693.8
98693.9
98694.1
98694.2
98694.5
98625.4
98625.1
98625
98624.9
98624.8
98624.7
98624.6
98624.6
98624.5
98624.4
98624.4
98624.3
98624.3
98624.3
98624.4
98624.5
98624.5
98624.4
98624.4
98624.4
98624.4
98624.5
98624.6
98624.7
98624.7
98624.8
98624.9
98625
98625.1
98625.5
98556.4
98556.1
98556
98555.9
98555.8
98555.7
98555.7
98555.6
98555.5
98555.5
98555.4
98555.3
98555.2
98555.2
98555.3
98555.4
98555.4
98555.3
98555.3
98555.4
98555.5
98555.6
98555.6
98555.7
98555.8
98555.8
98555.9
98556
98556.1
98556.5
98487.4
98487.1
98487
98486.9
98486.8
98486.8
98486.7
98486.7
98486.6
98486.5
98486.4
98486.3
98486.1
98486.1
98486.2
98486.3
98486.3
98486.2
98486.3
98486.4
98486.5
98486.6
98486.7
98486.7
98486.8
98486.9
98486.9
98487
98487.1
98487.5
98418.4
98418.1
98418
98417.9
98417.9
98417.8
98417.8
98417.7
98417.6
98417.6
98417.5
98417.3
98417.2
98417.1
98417.1
98417.2
98417.1
98417.2
98417.3
98417.5
98417.6
98417.6
98417.7
98417.8
98417.8
98417.9
98418
98418
98418.1
98418.5
98349.4
98349.1
98349
98348.9
98348.9
98348.8
98348.8
98348.7
98348.7
98348.6
98348.5
98348.4
98348.2
98348.2
98348.2
98348.2
98348.1
98348.2
98348.3
98348.5
98348.6
98348.7
98348.7
98348.8
98348.9
98348.9
98349
98349.1
98349.1
98349.5
98280.4
98280.1
98280
98280
98279.9
98279.9
98279.8
98279.8
98279.7
98279.6
98279.5
98279.4
98279.3
98279.3
98279.2
98279.2
98279.2
98279.3
98279.4
98279.5
98279.6
98279.7
98279.8
98279.9
98279.9
98280
98280
98280.1
98280.1
98280.5
98211.4
98211.1
98211
98211
98210.9
98210.9
98210.9
98210.8
98210.8
98210.7
98210.6
98210.4
98210.4
98210.4
98210.3
98210.3
98210.3
98210.4
98210.4
98210.5
98210.5
98210.7
98210.8
98210.9
98210.9
98211
98211
98211
98211.1
98211.5
98142.4
98142
98142
98142
98142
98141.9
98141.9
98141.8
98141.8
98141.7
98141.6
98141.5
98141.5
98141.4
98141.4
98141.3
98141.3
98141.4
98141.5
98141.5
98141.5
98141.6
98141.7
98141.9
98141.9
98142
98142
98142
98142
98142.4
98073.4
98073
98073
98073
98073
98072.9
98072.9
98072.9
98072.8
98072.7
98072.7
98072.6
98072.6
98072.5
98072.4
98072.4
98072.4
98072.5
98072.5
98072.5
98072.5
98072.6
98072.7
98072.8
98072.9
98072.9
98072.9
98072.9
98072.9
98073.4
98004.4
98004.2
98004.1
98004.1
98004.1
98004.1
98004.1
98004
98004
98004
98003.9
98003.9
98003.9
98003.8
98003.8
98003.8
98003.8
98003.9
98003.9
98003.9
98003.9
98003.9
98004
98004.1
98004.1
98004.1
98004.2
98004.2
98004.2
98004.4
100003
100004
100004
100005
100005
100006
100006
100006
100006
100006
100006
100006
100006
100006
100006
100006
100006
100006
100006
100006
100006
100006
100006
100006
100006
100006
100006
100006
100006
100006
99934.9
99936.3
99936.9
99937.3
99937.7
99938.1
99938.5
99938.8
99939.1
99939.3
99939.3
99939.2
99939.2
99939.1
99939.1
99939.1
99939.1
99939
99939
99939.2
99939.2
99939.1
99938.8
99938.5
99938.4
99938.4
99938.4
99938.4
99938.1
99937
99866.4
99867.7
99868.2
99868.5
99868.8
99869.2
99869.6
99870
99870.3
99870.6
99870.7
99870.6
99870.6
99870.5
99870.5
99870.5
99870.5
99870.4
99870.4
99870.5
99870.5
99870.3
99869.9
99869.7
99869.6
99869.6
99869.6
99869.6
99869.1
99867.9
99797.8
99798.9
99799.4
99799.6
99799.8
99800
99800.3
99800.6
99801
99801.2
99801.4
99801.5
99801.6
99801.6
99801.7
99801.7
99801.6
99801.6
99801.5
99801.5
99801.4
99801.1
99800.8
99800.6
99800.6
99800.6
99800.5
99800.4
99800
99798.9
99729
99730.1
99730.6
99730.8
99730.9
99731.1
99731.3
99731.5
99731.7
99731.9
99732.1
99732.4
99732.7
99732.8
99732.8
99732.8
99732.8
99732.7
99732.6
99732.4
99732.2
99732
99731.8
99731.7
99731.6
99731.5
99731.5
99731.4
99731
99729.9
99660.2
99661.2
99661.7
99661.9
99662.1
99662.2
99662.4
99662.5
99662.7
99662.8
99663
99663.4
99663.8
99663.9
99664
99664
99664
99663.8
99663.6
99663.3
99663.1
99663
99662.9
99662.8
99662.7
99662.6
99662.5
99662.4
99662
99660.9
99591.3
99592.2
99592.7
99593
99593.2
99593.3
99593.5
99593.6
99593.8
99593.9
99594.1
99594.5
99594.9
99594.9
99595
99595.1
99595.1
99594.9
99594.6
99594.3
99594.2
99594
99593.9
99593.8
99593.7
99593.6
99593.5
99593.4
99593
99591.9
99522.4
99523.3
99523.7
99524
99524.3
99524.5
99524.6
99524.8
99524.9
99525.1
99525.2
99525.5
99525.7
99525.7
99525.7
99526
99526.1
99525.9
99525.6
99525.4
99525.2
99525.1
99525
99524.9
99524.8
99524.7
99524.5
99524.3
99523.8
99522.8
99453.4
99454.2
99454.7
99455
99455.3
99455.6
99455.7
99455.9
99456
99456.2
99456.3
99456.5
99456.5
99456.2
99456.2
99456.5
99456.8
99456.8
99456.6
99456.5
99456.3
99456.2
99456.1
99456
99455.9
99455.7
99455.4
99455
99454.6
99453.7
99384.4
99385.1
99385.6
99386
99386.3
99386.6
99386.8
99387
99387.1
99387.3
99387.4
99387.4
99387.3
99386.9
99386.7
99386.9
99387.3
99387.5
99387.6
99387.5
99387.4
99387.3
99387.2
99387
99386.9
99386.5
99386.1
99385.8
99385.4
99384.7
99315.4
99316
99316.4
99316.7
99317
99317.3
99317.7
99317.9
99318.1
99318.3
99318.4
99318.3
99318
99317.7
99317.6
99317.6
99317.9
99318.1
99318.4
99318.5
99318.5
99318.3
99318.2
99318
99317.8
99317.4
99317
99316.7
99316.4
99315.7
99246.3
99246.7
99247
99247.2
99247.5
99247.8
99248.1
99248.4
99248.8
99249.1
99249.1
99248.9
99248.7
99248.5
99248.5
99248.6
99248.7
99248.8
99249
99249.3
99249.3
99249.2
99248.9
99248.6
99248.4
99248.1
99247.8
99247.7
99247.4
99246.7
99177.3
99177.4
99177.5
99177.7
99177.9
99178
99178.2
99178.4
99178.9
99179.4
99179.4
99179.4
99179.4
99179.4
99179.4
99179.5
99179.6
99179.6
99179.7
99179.8
99179.9
99179.7
99179.4
99179.2
99179
99178.9
99178.7
99178.7
99178.4
99177.8
99108.3
99108.3
99108.3
99108.3
99108.4
99108.4
99108.5
99108.6
99109
99109.5
99109.7
99109.8
99110
99110.1
99110.2
99110.3
99110.3
99110.3
99110.3
99110.3
99110.3
99110.1
99109.9
99109.8
99109.8
99109.7
99109.6
99109.6
99109.3
99108.7
99039.3
99039.2
99039.2
99039.2
99039.2
99039.2
99039.2
99039.2
99039.4
99039.7
99039.8
99039.9
99040.1
99040.2
99040.2
99040.4
99040.5
99040.5
99040.5
99040.5
99040.4
99040.3
99040.2
99040.2
99040.2
99040.2
99040.1
99040.1
99039.9
99039.6
98970.2
98969.9
98969.8
98969.7
98969.7
98969.7
98969.7
98969.7
98969.7
98969.7
98969.6
98969.6
98969.6
98969.6
98969.7
98970.1
98970.5
98970.6
98970.6
98970.5
98970.5
98970.5
98970.6
98970.6
98970.6
98970.6
98970.6
98970.6
98970.6
98970.5
98901.1
98900.6
98900.3
98900.3
98900.2
98900.2
98900.1
98900
98900
98899.8
98899.6
98899.6
98899.6
98899.6
98899.8
98900.4
98901
98901.1
98901.1
98900.8
98900.6
98900.8
98901
98901.2
98901.3
98901.3
98901.4
98901.4
98901.5
98901.5
98832.2
98831.6
98831.3
98831.2
98831
98830.9
98830.8
98830.5
98830.3
98830.1
98830.1
98830.2
98830.3
98830.3
98830.5
98831
98831.3
98831.4
98831.3
98831
98830.7
98830.7
98831
98831.4
98831.6
98831.7
98831.9
98832.1
98832.4
98832.5
98763.2
98762.5
98762.2
98762
98761.7
98761.5
98761.3
98761.1
98760.8
98760.6
98760.7
98760.9
98761.1
98761.2
98761.4
98761.6
98761.7
98761.6
98761.3
98761.1
98760.9
98760.9
98761.1
98761.4
98761.6
98761.8
98762.1
98762.5
98763
98763.4
98694.2
98693.4
98692.9
98692.7
98692.4
98692.1
98692
98691.8
98691.6
98691.5
98691.5
98691.6
98691.8
98692
98692.2
98692.4
98692.3
98692.1
98691.8
98691.6
98691.6
98691.7
98691.8
98692
98692.1
98692.3
98692.7
98693
98693.5
98694.2
98625.2
98624.3
98623.8
98623.5
98623.2
98623.1
98622.9
98622.8
98622.7
98622.6
98622.5
98622.4
98622.3
98622.5
98622.9
98623.2
98623
98622.7
98622.5
98622.5
98622.6
98622.7
98622.8
98622.9
98623.1
98623.3
98623.5
98623.8
98624.3
98625.1
98556.1
98555.3
98554.8
98554.5
98554.3
98554.1
98554
98553.9
98553.8
98553.6
98553.5
98553.2
98553
98553
98553.4
98553.7
98553.6
98553.4
98553.4
98553.5
98553.6
98553.8
98553.9
98554
98554.1
98554.3
98554.5
98554.7
98555.2
98556.1
98487.1
98486.2
98485.7
98485.5
98485.3
98485.2
98485.1
98485
98484.9
98484.7
98484.6
98484.2
98483.9
98483.8
98484
98484.2
98484.2
98484.1
98484.2
98484.5
98484.7
98484.8
98485
98485.1
98485.2
98485.3
98485.5
98485.6
98486.1
98487.1
98418.1
98417.2
98416.7
98416.5
98416.4
98416.3
98416.2
98416.1
98415.9
98415.8
98415.6
98415.3
98414.9
98414.8
98414.9
98414.9
98414.9
98414.9
98415.2
98415.5
98415.8
98415.9
98416
98416.2
98416.3
98416.4
98416.5
98416.6
98417.1
98418.1
98349.1
98348.1
98347.7
98347.5
98347.4
98347.3
98347.2
98347.1
98347
98346.9
98346.6
98346.3
98346.1
98346
98345.9
98345.9
98345.8
98346
98346.2
98346.5
98346.8
98347
98347.1
98347.2
98347.3
98347.4
98347.5
98347.6
98348.1
98349.1
98280.1
98279.1
98278.6
98278.6
98278.5
98278.4
98278.3
98278.2
98278.1
98278
98277.7
98277.4
98277.2
98277.1
98277
98276.9
98276.9
98277.1
98277.3
98277.4
98277.7
98277.9
98278.2
98278.3
98278.4
98278.4
98278.5
98278.6
98279
98280.1
98211.1
98210
98209.7
98209.6
98209.5
98209.4
98209.3
98209.3
98209.2
98209
98208.7
98208.5
98208.4
98208.3
98208.1
98207.9
98208
98208.2
98208.3
98208.4
98208.4
98208.7
98209
98209.3
98209.4
98209.4
98209.4
98209.5
98209.9
98211.1
98142
98141
98140.6
98140.6
98140.5
98140.4
98140.3
98140.3
98140.1
98139.9
98139.8
98139.6
98139.5
98139.4
98139.1
98139
98139.1
98139.3
98139.4
98139.4
98139.3
98139.5
98139.8
98140.1
98140.3
98140.3
98140.2
98140.3
98140.8
98142
98073
98072
98071.8
98071.7
98071.7
98071.6
98071.5
98071.4
98071.3
98071.1
98071
98070.9
98070.8
98070.7
98070.5
98070.4
98070.5
98070.7
98070.8
98070.7
98070.7
98070.7
98070.9
98071.2
98071.4
98071.4
98071.4
98071.4
98071.7
98073
98004.2
98004
98004
98004
98004
98003.9
98003.9
98003.9
98003.8
98003.8
98003.7
98003.7
98003.7
98003.6
98003.5
98003.5
98003.5
98003.6
98003.7
98003.6
98003.6
98003.6
98003.7
98003.8
98003.9
98003.9
98003.9
98003.9
98003.9
98004.2
100004
100004
100005
100005
100005
100006
100006
100006
100006
100006
100006
100006
100006
100006
100006
100006
100006
100006
100006
100006
100006
100006
100006
100006
100006
100006
100006
100006
100006
100006
99935.6
99937
99937.4
99937.7
99938
99938.4
99938.8
99939.1
99939.4
99939.8
99939.9
99939.9
99939.8
99939.7
99939.7
99939.6
99939.5
99939.4
99939.4
99939.5
99939.7
99939.6
99939.3
99939
99938.9
99938.9
99938.8
99938.7
99938.3
99937
99866.8
99868.5
99869.6
99869.9
99870.2
99870.6
99871.1
99871.6
99872.1
99872.5
99872.8
99872.9
99872.8
99872.6
99872.6
99872.5
99872.4
99872.2
99872.2
99872.4
99872.5
99872.2
99871.7
99871.3
99871.2
99871.2
99871.1
99870.7
99869.5
99868
99798
99799.6
99800.8
99801.2
99801.3
99801.6
99801.9
99802.4
99802.8
99803.2
99803.7
99804
99804
99803.9
99803.9
99803.8
99803.8
99803.6
99803.6
99803.8
99803.7
99803.3
99802.7
99802.4
99802.4
99802.4
99802.2
99801.6
99800.4
99798.9
99729.2
99730.6
99731.8
99732.3
99732.4
99732.6
99732.8
99733.1
99733.4
99733.7
99734.1
99734.6
99734.9
99735
99735
99735
99734.9
99734.9
99734.8
99734.7
99734.4
99734
99733.5
99733.3
99733.3
99733.3
99733.1
99732.5
99731.4
99729.9
99660.2
99661.6
99662.7
99663.3
99663.5
99663.7
99663.9
99664.1
99664.3
99664.6
99664.9
99665.5
99666
99666.2
99666.3
99666.3
99666.2
99666
99665.8
99665.4
99665
99664.8
99664.5
99664.3
99664.3
99664.2
99664
99663.5
99662.4
99661
99591.3
99592.5
99593.6
99594.3
99594.6
99594.9
99595.1
99595.3
99595.5
99595.7
99596
99596.6
99597.1
99597.3
99597.4
99597.5
99597.4
99597.1
99596.7
99596.3
99595.9
99595.8
99595.6
99595.4
99595.3
99595.2
99595
99594.6
99593.4
99591.9
99522.4
99523.5
99524.5
99525.2
99525.7
99526
99526.2
99526.4
99526.6
99526.8
99527.1
99527.6
99528
99528.1
99528.2
99528.5
99528.5
99528.1
99527.6
99527.3
99527
99526.9
99526.7
99526.6
99526.4
99526.2
99526
99525.3
99524.2
99522.9
99453.4
99454.4
99455.4
99456.2
99456.7
99457.1
99457.4
99457.6
99457.8
99458
99458.2
99458.5
99458.6
99458.4
99458.5
99459
99459.2
99459.1
99458.6
99458.4
99458.2
99458
99457.8
99457.7
99457.5
99457.1
99456.6
99455.9
99455
99453.9
99384.4
99385.4
99386.3
99387
99387.5
99388
99388.4
99388.7
99388.9
99389.1
99389.3
99389.4
99389.2
99388.7
99388.6
99389
99389.5
99389.7
99389.6
99389.5
99389.3
99389.1
99388.9
99388.7
99388.4
99387.8
99387.1
99386.5
99385.8
99384.9
99315.5
99316.3
99317
99317.6
99318
99318.5
99319.1
99319.6
99319.9
99320.2
99320.3
99320.2
99319.8
99319.2
99319
99319.2
99319.6
99320.1
99320.3
99320.5
99320.4
99320.2
99319.9
99319.6
99319.1
99318.4
99317.8
99317.3
99316.7
99315.8
99246.4
99247
99247.4
99247.9
99248.3
99248.7
99249.2
99249.7
99250.3
99250.9
99251
99250.8
99250.3
99249.9
99249.7
99249.9
99250.1
99250.5
99250.9
99251.2
99251.2
99250.9
99250.4
99249.9
99249.5
99249
99248.6
99248.3
99247.6
99246.8
99177.3
99177.6
99177.8
99178
99178.3
99178.5
99178.7
99179
99179.9
99180.8
99181.1
99181.1
99180.8
99180.6
99180.6
99180.8
99180.9
99181
99181.3
99181.4
99181.4
99181.1
99180.7
99180.2
99180
99179.8
99179.6
99179.3
99178.6
99177.8
99108.3
99108.3
99108.3
99108.4
99108.5
99108.5
99108.6
99108.8
99109.6
99110.6
99111.1
99111.3
99111.3
99111.2
99111.2
99111.4
99111.5
99111.5
99111.6
99111.6
99111.4
99111.1
99110.9
99110.7
99110.6
99110.5
99110.4
99110.1
99109.4
99108.7
99039.3
99039.2
99039.1
99039.1
99039.1
99039.1
99039.1
99039.2
99039.6
99040.2
99040.6
99040.7
99040.7
99040.7
99040.6
99040.9
99041.1
99041.2
99041.1
99041.1
99041
99040.8
99040.8
99040.7
99040.7
99040.6
99040.5
99040.3
99040
99039.6
98970.3
98969.9
98969.5
98969.3
98969.3
98969.2
98969.2
98969.2
98969.3
98969.3
98969.2
98969.1
98969.1
98969.1
98969.3
98969.9
98970.5
98970.7
98970.6
98970.5
98970.5
98970.6
98970.6
98970.7
98970.7
98970.7
98970.7
98970.6
98970.6
98970.5
98901.2
98900.6
98899.9
98899.5
98899.4
98899.3
98899.2
98899.1
98899
98898.8
98898.5
98898.4
98898.4
98898.4
98898.8
98899.7
98900.6
98900.8
98900.5
98900.1
98900.1
98900.4
98900.9
98901.1
98901.2
98901.2
98901.3
98901.4
98901.5
98901.5
98832.2
98831.5
98830.8
98830.3
98830.2
98830
98829.8
98829.3
98828.9
98828.7
98828.6
98828.7
98828.9
98829
98829.3
98830
98830.4
98830.4
98830.1
98829.6
98829.3
98829.6
98830.3
98830.9
98831.1
98831.2
98831.5
98831.9
98832.3
98832.5
98763.2
98762.4
98761.6
98761.1
98760.7
98760.3
98760
98759.6
98759.1
98758.8
98758.9
98759.1
98759.4
98759.8
98760
98760.3
98760.3
98760.1
98759.7
98759.3
98759.1
98759.2
98759.7
98760.2
98760.5
98760.9
98761.4
98762.1
98762.8
98763.4
98694.2
98693.3
98692.3
98691.7
98691.2
98690.7
98690.4
98690.1
98689.8
98689.7
98689.6
98689.6
98689.8
98690.2
98690.7
98691
98690.8
98690.3
98689.9
98689.7
98689.7
98689.8
98690.1
98690.4
98690.6
98691.1
98691.7
98692.4
98693.2
98694.2
98625.2
98624.2
98623.2
98622.4
98621.9
98621.5
98621.3
98621.1
98620.9
98620.7
98620.6
98620.3
98620.1
98620.3
98621
98621.5
98621.3
98620.8
98620.6
98620.6
98620.7
98620.9
98621.1
98621.3
98621.5
98621.9
98622.4
98623
98623.9
98625.1
98556.1
98555.1
98554
98553.3
98552.9
98552.6
98552.4
98552.2
98552
98551.9
98551.6
98551.1
98550.7
98550.6
98551.1
98551.5
98551.5
98551.2
98551.3
98551.6
98551.8
98552
98552.2
98552.4
98552.6
98552.8
98553.2
98553.8
98554.8
98556.1
98487.1
98486
98484.9
98484.2
98483.9
98483.7
98483.5
98483.3
98483.2
98483
98482.7
98482.1
98481.6
98481.4
98481.5
98481.7
98481.7
98481.7
98482.1
98482.6
98482.9
98483.1
98483.3
98483.5
98483.6
98483.9
98484.1
98484.7
98485.7
98487.1
98418.1
98416.9
98415.8
98415.2
98414.9
98414.8
98414.6
98414.4
98414.3
98414.1
98413.8
98413.3
98412.8
98412.6
98412.5
98412.5
98412.5
98412.6
98413
98413.4
98413.9
98414.2
98414.4
98414.6
98414.7
98414.9
98415.1
98415.6
98416.7
98418.1
98349.1
98347.8
98346.7
98346.2
98346
98345.9
98345.7
98345.5
98345.4
98345.1
98344.7
98344.3
98343.9
98343.8
98343.6
98343.5
98343.6
98343.7
98343.9
98344.2
98344.7
98345.2
98345.5
98345.7
98345.8
98345.9
98346.1
98346.6
98347.7
98349.1
98280.1
98278.7
98277.6
98277.2
98277
98276.9
98276.7
98276.6
98276.4
98276.2
98275.7
98275.3
98275.1
98274.9
98274.7
98274.6
98274.7
98274.9
98275
98275
98275.4
98275.9
98276.4
98276.6
98276.7
98276.7
98276.9
98277.5
98278.6
98280
98211
98209.6
98208.6
98208.2
98208
98207.8
98207.6
98207.5
98207.3
98207
98206.7
98206.4
98206.3
98206.1
98205.7
98205.6
98205.8
98206
98206.1
98206.1
98206.1
98206.5
98207
98207.3
98207.5
98207.5
98207.7
98208.3
98209.5
98211
98142
98140.5
98139.5
98139.2
98139.1
98138.9
98138.7
98138.5
98138.3
98138.1
98137.9
98137.8
98137.7
98137.4
98137.1
98137
98137.2
98137.3
98137.5
98137.5
98137.4
98137.5
98137.9
98138.3
98138.5
98138.6
98138.7
98139.1
98140.4
98142
98072.9
98071.6
98071.5
98071.4
98071.3
98071.2
98071.1
98070.9
98070.7
98070.6
98070.5
98070.5
98070.5
98070.3
98070
98069.9
98070.1
98070.2
98070.3
98070.3
98070.2
98070.3
98070.4
98070.7
98070.9
98070.9
98071
98071.1
98071.5
98072.9
98004.1
98003.9
98004
98003.9
98003.9
98003.9
98003.8
98003.8
98003.7
98003.7
98003.7
98003.7
98003.7
98003.6
98003.5
98003.5
98003.5
98003.6
98003.6
98003.6
98003.6
98003.6
98003.7
98003.8
98003.8
98003.8
98003.8
98003.8
98003.9
98004.2
100005
100005
100005
100005
100005
100006
100006
100006
100006
100006
100006
100006
100006
100006
100006
100006
100006
100006
100006
100006
100006
100006
100006
100006
100006
100006
100006
100006
100006
100006
99936
99937.5
99937.8
99938
99938.2
99938.5
99938.8
99939.1
99939.5
99939.9
99940.1
99940.2
99940.2
99940.1
99940.1
99940.1
99939.9
99939.6
99939.6
99939.7
99939.8
99939.8
99939.6
99939.3
99939.2
99939.1
99938.9
99938.7
99938.4
99937
99867.2
99868.9
99870.3
99870.6
99870.8
99871.1
99871.4
99871.9
99872.4
99873
99873.5
99873.7
99873.6
99873.4
99873.4
99873.3
99873.1
99872.8
99872.7
99872.9
99873.1
99872.9
99872.5
99872.1
99872
99871.8
99871.4
99870.9
99869.5
99868
99798.3
99800
99801.6
99802.7
99803
99803.2
99803.6
99804
99804.6
99805.2
99805.9
99806.3
99806.2
99806.1
99806.1
99806
99805.8
99805.5
99805.5
99805.8
99805.8
99805.5
99804.8
99804.4
99804.3
99804
99803.4
99802
99800.5
99799
99729.3
99730.8
99732.5
99733.7
99734.1
99734.3
99734.6
99735
99735.3
99735.9
99736.7
99737.2
99737.3
99737.3
99737.4
99737.3
99737.2
99737
99737
99737.1
99736.9
99736.4
99735.7
99735.4
99735.4
99735.1
99734.3
99733
99731.5
99730
99660.3
99661.7
99663.2
99664.5
99665.1
99665.3
99665.6
99665.9
99666.2
99666.6
99667.2
99667.8
99668.3
99668.5
99668.6
99668.6
99668.4
99668.3
99668.2
99667.9
99667.4
99666.9
99666.4
99666.2
99666.1
99665.8
99665.2
99664
99662.5
99661
99591.4
99592.5
99593.9
99595.3
99596
99596.4
99596.7
99596.9
99597.2
99597.5
99597.9
99598.7
99599.4
99599.7
99599.8
99599.8
99599.7
99599.4
99599.1
99598.5
99597.9
99597.5
99597.3
99597
99596.9
99596.8
99596.2
99595
99593.5
99592
99522.4
99523.5
99524.7
99526
99526.9
99527.4
99527.8
99528.1
99528.3
99528.6
99529
99529.7
99530.4
99530.6
99530.7
99531
99530.9
99530.4
99529.8
99529.3
99528.9
99528.6
99528.4
99528.2
99528
99527.7
99527
99525.8
99524.4
99523
99453.4
99454.4
99455.6
99456.8
99457.7
99458.3
99458.8
99459.2
99459.5
99459.8
99460.1
99460.6
99461
99461
99461.2
99461.8
99461.9
99461.4
99460.7
99460.3
99460
99459.8
99459.5
99459.3
99459
99458.3
99457.4
99456.4
99455.3
99454
99384.5
99385.4
99386.5
99387.6
99388.5
99389.1
99389.8
99390.3
99390.7
99391
99391.2
99391.4
99391.4
99391.1
99391.1
99391.5
99392.1
99392.1
99391.7
99391.4
99391.2
99390.9
99390.6
99390.2
99389.6
99388.7
99387.8
99387.1
99386.2
99385
99315.5
99316.4
99317.3
99318.2
99318.9
99319.5
99320.3
99321.1
99321.6
99322
99322.3
99322.3
99321.8
99321.1
99320.8
99321.1
99321.7
99322.3
99322.5
99322.5
99322.3
99321.9
99321.4
99320.8
99320
99319.1
99318.4
99317.8
99317
99316
99246.5
99247.2
99247.8
99248.5
99249.1
99249.5
99250.1
99250.9
99251.6
99252.4
99252.9
99252.7
99252.1
99251.4
99251.1
99251.3
99251.8
99252.4
99252.9
99253.2
99253
99252.5
99251.7
99251
99250.3
99249.8
99249.3
99248.6
99247.8
99246.9
99177.4
99177.7
99178
99178.5
99178.8
99178.9
99179.2
99179.7
99180.8
99182.1
99182.7
99182.8
99182.4
99182
99181.9
99182.1
99182.3
99182.6
99183
99183.1
99182.8
99182.4
99181.7
99181.2
99180.8
99180.6
99180.2
99179.5
99178.6
99177.8
99108.3
99108.4
99108.4
99108.5
99108.6
99108.6
99108.7
99109.1
99110.3
99111.6
99112.4
99112.6
99112.6
99112.4
99112.3
99112.6
99112.7
99112.8
99112.9
99112.8
99112.4
99112.1
99111.8
99111.6
99111.4
99111.2
99110.8
99110.1
99109.3
99108.7
99039.3
99039.3
99039.2
99039
99039
99039
99039
99039.2
99039.9
99040.7
99041.1
99041.3
99041.3
99041.2
99041.1
99041.5
99041.8
99041.8
99041.8
99041.7
99041.5
99041.4
99041.3
99041.2
99041.1
99041
99040.7
99040.3
99039.8
99039.5
98970.3
98970.1
98969.6
98969.1
98968.8
98968.8
98968.7
98968.7
98968.8
98968.9
98968.7
98968.6
98968.6
98968.6
98968.8
98969.7
98970.4
98970.5
98970.4
98970.4
98970.5
98970.6
98970.7
98970.7
98970.7
98970.7
98970.7
98970.6
98970.6
98970.5
98901.3
98900.9
98900
98899.1
98898.7
98898.6
98898.4
98898.2
98898
98897.8
98897.3
98897.1
98897.2
98897.3
98897.6
98898.8
98899.6
98899.8
98899.5
98899.2
98899.5
98900.1
98900.7
98901
98901
98901
98901.1
98901.4
98901.5
98901.5
98832.3
98831.8
98830.8
98829.7
98829.3
98829.1
98828.8
98828.3
98827.7
98827.3
98827
98827
98827.3
98827.6
98828
98828.6
98828.9
98828.8
98828.4
98827.9
98827.8
98828.5
98829.6
98830.3
98830.5
98830.6
98831.1
98831.8
98832.2
98832.5
98763.2
98762.5
98761.4
98760.4
98759.8
98759.3
98758.8
98758.3
98757.6
98757.1
98756.9
98757.1
98757.5
98758
98758.6
98758.9
98758.7
98758.2
98757.7
98757.3
98757.2
98757.6
98758.4
98759
98759.4
98760.1
98761
98762
98762.7
98763.3
98694.2
98693.3
98692.2
98691.1
98690.2
98689.5
98688.9
98688.5
98688.1
98687.8
98687.6
98687.5
98687.5
98687.9
98688.7
98689.3
98689
98688.3
98687.8
98687.7
98687.8
98688.1
98688.5
98688.9
98689.4
98690.2
98691.2
98692.1
98693
98694.1
98625.1
98624.2
98623
98621.8
98620.9
98620.3
98619.8
98619.4
98619.2
98618.9
98618.7
98618.3
98617.7
98617.6
98618.5
98619.2
98619.1
98618.6
98618.5
98618.7
98618.9
98619.1
98619.4
98619.7
98620.2
98620.8
98621.6
98622.6
98623.7
98624.9
98556.1
98555.2
98553.9
98552.6
98551.7
98551.2
98550.8
98550.6
98550.3
98550.1
98549.8
98549.1
98548.4
98548.1
98548.5
98548.9
98549
98548.8
98549.1
98549.7
98550
98550.3
98550.5
98550.8
98551.2
98551.7
98552.4
98553.4
98554.6
98555.9
98487.1
98486.1
98484.7
98483.5
98482.7
98482.3
98481.9
98481.7
98481.5
98481.2
98480.9
98480.1
98479.4
98479.1
98479
98479.1
98479.2
98479.3
98479.9
98480.6
98481.1
98481.4
98481.7
98481.9
98482.2
98482.6
98483.2
98484.3
98485.6
98487
98418.1
98417
98415.6
98414.4
98413.6
98413.3
98413
98412.8
98412.5
98412.2
98411.8
98411.2
98410.6
98410.3
98410.1
98410.1
98410.2
98410.3
98410.6
98411.1
98411.7
98412.3
98412.8
98412.9
98413.1
98413.5
98414.1
98415.2
98416.6
98418
98349.1
98347.8
98346.5
98345.3
98344.6
98344.3
98344
98343.7
98343.4
98343
98342.6
98342.1
98341.8
98341.5
98341.2
98341.2
98341.3
98341.5
98341.5
98341.6
98342.2
98343
98343.6
98343.8
98343.9
98344.3
98345
98346.1
98347.5
98349
98280.1
98278.7
98277.2
98276
98275.4
98275
98274.8
98274.5
98274.2
98273.8
98273.4
98273.1
98272.9
98272.6
98272.1
98272.1
98272.4
98272.6
98272.6
98272.5
98272.8
98273.5
98274.2
98274.5
98274.6
98274.9
98275.7
98277
98278.5
98280
98211
98209.6
98208.1
98206.8
98206.3
98206
98205.8
98205.5
98205.2
98204.8
98204.5
98204.4
98204.3
98203.9
98203.4
98203.4
98203.7
98203.9
98204
98203.9
98204
98204.4
98204.9
98205.4
98205.5
98205.8
98206.5
98207.8
98209.4
98211
98142
98140.4
98139.1
98138.6
98138.4
98138.2
98138
98137.8
98137.4
98137.1
98137
98137.1
98137
98136.7
98136.4
98136.4
98136.5
98136.7
98136.8
98136.8
98136.8
98136.9
98137.2
98137.6
98137.8
98138
98138.3
98138.8
98140.2
98141.9
98072.9
98071.5
98071.3
98071.1
98071
98070.9
98070.8
98070.5
98070.3
98070.1
98070.1
98070.2
98070.1
98070
98069.8
98069.8
98069.9
98070
98070.1
98070.1
98070.1
98070.2
98070.3
98070.5
98070.6
98070.7
98070.9
98071
98071.4
98072.8
98004.1
98003.9
98003.9
98003.9
98003.8
98003.8
98003.8
98003.7
98003.6
98003.6
98003.6
98003.6
98003.6
98003.5
98003.5
98003.4
98003.5
98003.6
98003.6
98003.6
98003.6
98003.6
98003.7
98003.7
98003.7
98003.7
98003.8
98003.8
98003.9
98004.1
100005
100005
100005
100005
100006
100006
100006
100006
100006
100006
100006
100006
100006
100006
100007
100007
100006
100006
100006
100006
100006
100006
100006
100006
100006
100006
100006
100006
100006
100006
99936.3
99937.9
99938.2
99938.4
99938.6
99938.9
99939.1
99939.4
99939.8
99940.1
99940.3
99940.5
99940.5
99940.5
99940.6
99940.6
99940.4
99940.2
99940.1
99940
99940.1
99940
99939.8
99939.6
99939.5
99939.3
99939.1
99938.9
99938.6
99937.1
99867.4
99869.2
99870.7
99871.1
99871.4
99871.8
99872
99872.4
99873
99873.6
99874
99874.2
99874.2
99874.1
99874.1
99874
99873.8
99873.5
99873.4
99873.4
99873.5
99873.3
99872.9
99872.7
99872.5
99872.1
99871.7
99871.3
99869.7
99868.1
99798.5
99800.3
99802.1
99803.5
99803.9
99804.2
99804.6
99805
99805.6
99806.5
99807.2
99807.5
99807.4
99807.2
99807.2
99807.1
99806.8
99806.5
99806.5
99806.6
99806.7
99806.4
99805.8
99805.4
99805.1
99804.6
99803.9
99802.4
99800.6
99799
99729.5
99731.2
99733
99734.7
99735.9
99736.4
99736.7
99737.1
99737.7
99738.5
99739.5
99740.1
99740.1
99740
99740
99739.9
99739.6
99739.2
99739.3
99739.5
99739.3
99738.8
99738.1
99737.6
99737.1
99736.4
99734.9
99733.2
99731.6
99730