/*--------------------------------*- C++ -*----------------------------------*\
| =========                 |                                                 |
| \\      /  F ield         | OpenFOAM: The Open Source CFD Toolbox           |
|  \\    /   O peration     | Version:  v1912                                 |
|   \\  /    A nd           | Website:  www.openfoam.com                      |
|    \\/     M anipulation  |                                                 |
\*---------------------------------------------------------------------------*/
FoamFile
{
    version     2.0;
    format      ascii;
    class       volScalarField;
    location    "174/oil";
    object      wallHeatFlux;
}
// * * * * * * * * * * * * * * * * * * * * * * * * * * * * * * * * * * * * * //

dimensions      [1 0 -3 0 0 0 0];


internalField   uniform 0;

boundaryField
{
    maxY
    {
        type            calculated;
        value           uniform 0;
    }
    minX
    {
        type            calculated;
        value           uniform 0;
    }
    maxX
    {
        type            calculated;
        value           uniform 0;
    }
    minY
    {
        type            calculated;
        value           uniform 0;
    }
    minZ
    {
        type            calculated;
        value           uniform 0;
    }
    maxZ
    {
        type            calculated;
        value           uniform 0;
    }
    oil_to_sphere
    {
        type            calculated;
        value           nonuniform List<scalar> 
1536
(
5612.13
5363.33
5364.53
4895.18
4870.41
5344.83
5148.1
5221.35
5191.15
4928.13
4750.55
4959.38
5184.83
4976.7
4678.6
5115.64
5347.84
5376.71
5100.94
5173.11
5283.3
5192.53
5214.13
5113.21
5139.49
5125.53
5133.75
5081.55
5337.67
5207.39
5412.38
5363.1
5374.43
5113.49
5130.09
5080.11
5099.93
5024.72
5075.39
5129.59
5063.5
5102.7
5183.04
5239.76
5303.01
5126.61
5299.46
5229.7
4690.36
5127.55
5260.39
5196.39
5223.26
5108.51
5328.84
5504.34
5208.25
5174.23
5282.51
5252.63
5179.69
5181.1
5177.06
5102.95
5130.9
5167.35
5171.71
5268.53
5261.57
5323.07
5101.74
4893.44
4966.23
5126.72
5122.52
5519.23
5375.77
5040.8
5116.53
5371.38
5286.4
5254.97
4886.21
4877.38
5336.04
5568.45
4836.67
5150.49
5255.66
5252.85
5200.98
5087.74
5086.24
5096.3
5124.26
5235.96
5291.86
5306.18
5391.67
5246.91
5289.76
5097.18
5621.42
5265.58
4956.53
5119.7
5136.87
4915.48
4917.84
5633.02
5372.06
5224.89
5179.96
5219.29
4853.23
4888.21
4808.45
5458.13
5593.59
5390.46
5203.23
5218.53
5072.65
5286.88
5406.31
5253.47
5196.65
5054.95
5302.07
5274.32
5169.91
5264.97
5324.18
5135.16
5154.63
5332.61
5219.47
5374.96
5060.96
5349.95
5191.44
5273.34
5275.09
5185.86
5155.07
5180.85
5228.88
5501.89
5217.62
5631.32
5308.81
5408.14
5206.96
5222.97
5111.75
5278.32
5324.04
5324.71
5685.54
5458.8
5370.86
5523.14
4974.92
5016.73
5091.45
5083.05
5312.72
5461.92
5380.41
5536.28
5087.65
5104.4
5047.73
5298.86
5230.48
5243.63
5546.65
5076.71
5057.14
5564.18
5067.46
5016.2
5010.93
5032.51
5308.46
5571.36
5462.49
5074.6
5000.95
5373.51
5020.17
5329.5
5322.27
5435.29
4957.84
4638.91
5429.33
5460.16
5171.8
5114.97
5201.01
5146.49
5382.26
5427.97
5308.57
5257.56
5119.27
5457.83
5399.89
5280.05
5051.68
5129.54
5119.65
5175.66
5306.54
5522.87
5060.77
4971.26
4976.31
4612.04
5356.47
5296.37
5251.44
5203.34
5217.34
5467.39
5330.79
5155.02
5360.3
4938.09
5084.17
4657.27
5178.46
5365.9
5430.62
5411.73
5350.67
5295.97
5384.97
4958.7
4992.96
5099.02
5461.81
5047.14
4671.15
4811.88
5293.01
5244.2
5571.16
5721.76
5225.86
4884.64
4613.23
5252.1
5440.54
5095.96
5103.78
4833.54
5086.38
5464.6
5588.59
5197.96
5108.18
5482.09
5476.78
5124.43
4931.9
5186.16
5530.67
5468.05
5296.82
5325.11
5418.5
5017.47
5112.19
5434.53
5324.84
5402.28
5187.85
5365.17
5517.61
5315.02
5292.99
5474.89
5109.36
5101.18
5134.29
5065.98
5089.25
5440.66
5532.42
5053.31
5150.09
5137.77
5154.36
5075.05
5224.98
5191.85
5038.66
4842.24
5080.97
4961.45
5058.65
5574.69
5482.04
5481.06
5713.34
4993.25
5011.9
5246.17
5628.52
5635
5091.8
5194.94
5076.54
5319.88
5114.69
5288.63
5309.89
5392.09
5326.62
5144.26
5343.16
5075.04
5422.17
5455.83
5360.86
5344.03
5033.4
5545.43
5551.56
5344.84
4948.84
5107.83
5160.28
5312.13
5286.18
5314.14
5026.31
5418.5
5473.87
5385.22
5478.87
5267.57
5243.33
5184.43
4996.66
5255.14
5323.51
4991.24
4969.55
5015.41
5613.21
5421.59
5484.44
5276.78
5242.76
5455.27
4976.33
5560.23
5385.99
5239.68
5240.01
4964.44
5401.45
5414.05
5049.22
5238.52
5173.68
5112.44
5324.91
5414.1
5183.48
5131.93
5003.93
5521.63
5421.88
4971.46
5460
5433.42
5359.35
5517.92
5235.39
5337.04
4940.8
4952.15
5312.15
5684.09
5372.71
5585.82
5285.16
5144.27
5390.87
5026.97
5093.82
5304.27
5409.51
5329.46
5275.46
5041.26
5018.85
5438.4
5468.74
5423.4
5239.27
5099.15
5291.31
5342.34
5399.04
5251.7
5164.51
5058.97
5226.89
5019.53
4917.46
5094.95
5057.01
5226.52
4922.74
5143.82
5570.03
5138.71
5135.67
5410.76
5402.94
5312.81
5175.88
4981.4
5369.22
5480.58
5304.34
5261.4
5367.91
5202.04
5220.47
5273.9
4885.73
5334.11
5470.02
5485.69
5395.37
5344.15
5320
5251.84
5173.22
5026.03
5211.09
5046.86
4964.05
5066.81
4906.86
5582.83
5549.87
5452.49
5673.54
5074.55
5580.53
5020.12
5067.27
5345.24
5071.58
5014.6
5146.3
5126.16
5559.51
5489.21
5273.4
5295.78
5517.78
5441.96
5247.21
5343.26
5050.5
5407.85
4943.19
5484.15
4882.32
5352.85
5376.5
5400.1
5142.01
5005.72
5167.13
5406.2
5178.99
4928.7
5419.06
5429.28
5503.19
5648.17
5295.84
5493.19
4990.58
5023.67
4707.56
4798.61
5234.39
5136.42
5109.94
5069.94
5595.05
5096.76
4963.51
4925.05
5181.42
4978.66
5686.35
5067.67
5084.14
5219.98
4753.75
4823.07
5096
5089.77
5177.19
5127.81
5426.78
5394.65
5321.59
5244.13
4909.23
5113.99
5402.34
5022.57
5046.84
5361.88
5517.66
5058.38
4729.65
4992.81
4753.7
5201.43
5136.94
5083.42
4955.19
4731.01
5336.57
5364.25
5281.35
5210.2
5535.55
5341.05
5304.29
5246.49
5031.47
5114.05
5428.23
5328.95
5150.86
4800.13
5251.5
5424.4
5548.17
5260.53
5149.33
5532.54
5263.42
5494.4
5043.76
5116.33
5010.38
5135.33
5245.85
5506.58
5149.65
5058.48
5028.02
5199.49
5677.68
4994.55
5115.11
4960.8
5240.92
5245.48
5438.65
5524.84
4977.95
4945.03
5529.92
5577.7
4854.57
5538.18
5457.92
5373.73
5466.9
5316.7
5241.04
5242.74
5525.04
5251.35
5311.32
5229.58
5400.87
5269.43
5210.04
5195.31
4985.45
5364.76
5232.86
5400.29
5346.46
5356.96
5328.53
5256.39
4957.08
5442.94
5446.66
5324.09
5207.31
5274.01
5623.84
4992.33
5037.67
4987.33
5295.26
5127.14
5622.43
5145.91
5173.69
5235.02
4726.4
4745.54
5104.29
5097.8
5226
5007.72
5055.47
5313.68
5125.6
5523.05
5061.97
5602
5209.03
5290.61
4717.82
4740.51
4698.78
5089.38
5371.33
5123
5085.74
4748.86
5218.31
5408.02
5220.99
5788.24
5052.67
5424.55
5365.28
5369.14
5460.23
5463.28
5383.72
5225.36
5170.79
5212.19
5375.71
5179.73
5283.03
5271.44
5283.44
5400.07
5331.37
5368.43
4998.26
5047.28
4634.91
4829.9
4907.03
4486.11
5109.1
5129.32
5178.61
5211.39
4911.03
4990.53
5150.65
5470.96
5462.88
5146.65
4934.37
5188.51
5401.63
5352.83
5213
4926.13
5052.11
5325.89
5290.68
5208.98
5119.36
5348.24
5360.75
5521.82
5356.74
5251.81
5128.48
5050.28
4973.73
5150.4
5231.37
5637.31
5233.17
5585.85
5126.75
5667.44
5102.35
5184.49
5011.79
5043.36
5128.03
4992.22
5174.81
4921.19
5107.88
5436.68
5144.46
4973.19
5543.86
5348.13
5287.92
5207
5550.93
5799.59
4845.13
5333.42
5304.25
5312.69
4996.37
5204.71
5077.32
5289.84
5387.47
5433.16
5037.56
5328.71
5247.61
5346.1
5334.52
5298.32
5161.59
5190.18
5120.15
4937.09
4910.14
5019.11
5492.99
5110.76
4970.5
5116.71
5435.12
5167.52
5497.78
5403.61
5305.42
5251.93
5305.19
5548.03
5018.5
5324.99
5457.26
5467.39
5254.11
5068.77
5172.92
5309.39
5475.91
5007.12
5192.59
5251.5
5426.07
5292.19
5314.31
5506.12
5008.39
5082.72
5050.5
5554.16
5433.9
5236.98
5425.51
5081.35
5114.38
5424.33
5321.92
5516.65
5026.16
5379.32
5415.16
5255.46
5290.44
5367.85
5044.97
4891.23
5220.45
5318.2
5588.68
5192.28
5103.43
5207.64
5299.83
5378.77
5243.82
5078.77
5191.85
5407.82
5046.1
5061.84
5187.31
5104.06
5274.13
5249.85
5462.39
5317.76
5388.83
5120.23
5216.12
5272.88
5199.15
5159.46
5130.18
5121.72
5017.37
5345.09
5267.3
5260.75
5309.8
4943.21
5137.38
5548.61
5548.41
5073.29
5430.08
5299.34
5334.44
5126.4
5476.06
5449.86
5017.14
5164.21
5135.21
5127.19
4953.52
4988.87
5134.09
5453.85
5665.47
5096.08
5368.34
5343.77
5289.76
5179.81
5274.7
5465.27
5299.76
5026.64
5139.4
5118.89
5145.23
5315.45
5359.02
5348.42
5357.28
5366.64
5083.59
5366.39
5148.5
5343.51
4735.08
5312.21
5481.06
5158.69
4846.34
5241.94
5197.8
5569.43
5056.37
5367.31
5213.98
4888.93
5543.1
4975.06
5185.97
5219.01
4948.43
5433.04
5268.4
5185.63
5268.34
5267.38
5176.19
5579.49
4988.13
5132.01
4688.32
5204.57
5153.28
5227.2
5430.84
5801.27
4943.3
5140.5
5710.71
4980.04
5352.99
5073.14
5334.54
4845.56
5064.14
5702.01
4872.53
5678.5
4911.66
5562.82
4908.04
5052.56
4733.92
5003.04
5665.08
4777.63
5231.48
4875.83
5531.74
5667.47
4793.56
5205.95
5083.2
5025.24
5012.4
5128.21
5222.27
5224.17
5323.83
5202.32
5518.11
5728.6
4791.95
5271.44
5289.99
5220.16
5250.56
5193.86
5174.95
5191.1
5385.64
5204.42
5385
5132.43
5271.77
5486.29
5154
5313.78
5426.12
5127.01
5272.02
5209.89
5323.13
5183.56
5251.76
5164.05
5411.93
5141.78
5282.29
4914.77
5542.41
4800.73
5329.63
5414.65
5521.71
5058.47
5249.55
5199.53
5242.26
5252.53
5207.15
5384.22
5027.29
4626.71
5246.41
4851.65
5453.8
5066.45
5220.18
5393.37
4650.02
5540.02
5049.67
4742.17
5088.07
5348.72
5329.58
5239.86
4773.01
5246.62
5281.66
5093.88
5064.02
5458.38
5425.88
5122.14
5227.71
5459.12
4784.57
5407.68
5060.72
5320.77
4809.2
5680.4
5599.28
5404.76
5238.2
5184.62
5361.51
5168.57
4769.41
5007.82
5357.81
5071.55
5344.09
4840.89
5450.98
5345.74
4519.59
5250.16
5281.13
4668.58
5535.13
4905.46
5452.62
5542.01
5388.8
4723.68
5247.46
5175.5
5249.66
5258.11
5326.44
4782.85
5140.7
5071.09
5074.72
5446.81
5225.69
5317.88
5329.61
5323.19
5171.98
5247.85
5184.75
5280.42
5449.7
5113.78
5162.16
5097.48
5265.77
5413.63
5113.24
5148.65
5128.6
5227.34
5073.87
5087.37
5150.05
5167.83
5244.71
5163.73
5514.93
5398.58
4854.9
4885.47
5510.88
4480.98
5360.05
5281.45
5081.49
5172.97
5538.75
4658.13
5430.64
5308.96
4745.73
5138.56
5105.67
5251.88
4632.54
5473.59
5335.84
4649.11
5452.07
5479.25
4806.96
5522.16
5425.98
4813.99
5104.65
5079.11
4666.53
5225.54
5253.83
5037.89
5058.89
5085.87
4564.33
5046.95
4693.91
4540.97
5422.62
5081.83
5660.94
5135.3
4778.12
5468.86
5225.09
4701.48
5117.72
5110.14
4696.2
4876.5
5533.18
4408.1
5011.83
5036.53
4499.36
5440.19
5391.34
5224.49
5143.5
5112.78
5007.69
4594.81
5231.37
5142.42
5157.64
5225.69
4725.13
5379.66
5110.99
5198.02
5085.71
5188.56
5243.41
5001.7
4748.32
5144.77
5295.93
5104.02
5147.1
5213.66
5057.29
5160.35
4723
5128.2
5327.09
5089.2
5174.47
5064.3
4759.96
5513.78
5514.24
5452.27
5550.96
4802.66
4666.88
5142.36
5412.23
5252.16
5349.96
5387.22
5011.63
4956.27
4709.79
4816.96
5048.78
5200.83
5185.45
5174.76
4971.61
5416.77
5295.96
4818.25
5026.2
5003.5
5381.48
5058.12
4599.99
5270.11
5210.99
5430.56
4707.7
5122.89
5282.65
5126.82
5166.4
5344.61
5197.71
5011.13
5557.68
4513.07
4979.73
5209.31
5061.98
5137.34
5533.99
5309.77
5231.98
4938.08
5491.76
5129.81
5245.13
5385
5433.68
5412.2
5431.65
5521.64
5569.8
5504.12
5504.78
5273.02
5401.71
5111.82
5170.25
4975.27
4893.6
4558.71
5542.95
5525.96
5454.31
5154.13
5245.27
5230.52
5067.15
5263.27
5394.82
5025.34
5181.31
5332.19
5107.42
5118.07
5103.11
5151.45
5049.83
5142.67
5123.97
4808.28
5279.62
5034.91
5177.62
4690.15
5564.04
5190.45
5080.22
5044.62
4833.05
5220.49
5087.96
4664.13
4944.12
5181.84
4897.08
4939.28
5575.05
5604.52
5129.29
5129.81
5365.21
5524.89
4656.04
5101.55
5053.53
5137.21
5137.28
5156.57
5192.68
4961.54
4755.67
5498.5
5133.41
4913.29
4956.2
5122.66
5220.98
4841.71
5197.89
5078.21
5111
5528.51
4923.17
4774.81
5145.57
5095.61
5056.81
4762.98
5448.82
5128.42
5108.08
5123.69
4665.65
5141.59
5136.46
4785.34
5133.49
4940.93
5287.33
5462.73
5074.96
5390.85
5269.62
5074.76
5079.21
5144.42
4767.95
5294.06
5329.76
5103.04
4712.77
4999.31
5171.94
5187.51
5073.53
4745.73
5084.51
5430.12
5284.56
5098.05
5569.53
4913.84
5410.61
4670.76
4907.45
5435.84
4675.99
5420.99
5107.46
5219.92
5113.24
5607.63
4970.43
5221.51
5521.09
5502.98
4846.56
5469.3
5532.82
4497.31
5232.05
5088.1
4683.24
5356.29
5082.58
5110.69
5112.1
5195.13
5159.52
5101.62
5085.62
4665.34
5338.49
5229.24
5205.32
5240.42
5152.57
5070.94
5001.81
5394.28
4604.41
5046.29
5093.68
4639.93
5411.97
5547.18
5235.28
5458.22
5504.61
5044.46
5150.16
5298.64
5456.23
5055.5
5331.77
4955.72
4701.91
5389.91
5008.53
5428.99
5581.77
5519.89
4708.83
5413.66
5253.71
5021.56
5099.52
5141.14
5088.22
4717.29
5488.81
4729.57
5480.55
5149.19
4957.06
4950
5188.52
5333.25
5525.14
5206.93
5626.63
5390.84
5417.22
4694.02
5401.11
5347.22
5438.25
5066.17
5023.13
4615.65
5180.14
5609.81
5472.62
4743.91
4971.1
4761.37
5064.54
5190.97
4945.92
5770.78
5114.79
4968.26
4761.23
5283.96
5032.33
4619.57
5188.06
5087.93
5088.64
5100.42
5104.2
4766.93
4943.88
4685.91
5103.44
5404.24
5290.49
5479.48
5441.88
5047.2
4995.19
4676.93
5058.54
5369.43
5488.83
5388.34
5381.89
4912.15
4638.24
4974.67
4596.68
5365.12
5389.6
5000.39
5408.03
5374.95
5465.67
5295.01
5221.52
5212.73
5046.88
4646.32
4991.26
4718.76
4966.01
5100.57
5072.07
4803.35
4707.27
5324.84
5607.06
5585.86
5522.08
5206.92
5308.22
5300.93
5195
5103.35
5186.43
5014.14
5150.79
5152.77
4705.85
5388.25
5137.71
4974.46
4798.21
5097.96
5199.24
5196.23
5075.48
4801.25
5510.22
5270.04
5090.86
5561.78
5019.26
4687.21
5326.36
5159.12
5155.05
5152.36
5075.77
4591.62
5197.48
5147.27
4733.82
5527.38
5126.23
4425.48
5098.99
5186.87
5204.21
5072.59
4718.36
5045.26
5058.68
4886.25
5161.21
4670.6
5177.76
5163.64
4860.04
5581.75
5144.47
4786.69
5652.98
5184.07
5185.9
4792.24
5161.42
4731.4
)
;
    }
}


// ************************************************************************* //
