/*--------------------------------*- C++ -*----------------------------------*\
| =========                 |                                                 |
| \\      /  F ield         | OpenFOAM: The Open Source CFD Toolbox           |
|  \\    /   O peration     | Version:  v1906                                 |
|   \\  /    A nd           | Web:      www.OpenFOAM.com                      |
|    \\/     M anipulation  |                                                 |
\*---------------------------------------------------------------------------*/
FoamFile
{
    version     2.0;
    format      ascii;
    class       volScalarField;
    location    "60/sphere";
    object      T;
}
// * * * * * * * * * * * * * * * * * * * * * * * * * * * * * * * * * * * * * //

dimensions      [0 0 0 1 0 0 0];


internalField   nonuniform List<scalar> 
304
(
467.94
467.968
467.964
467.981
467.939
467.933
467.938
467.967
467.938
468.082
468.082
467.98
467.964
468.079
468.079
468.007
467.972
468.004
467.932
467.966
467.982
467.938
467.969
468.082
468.082
468.01
467.982
468.079
468.079
468.033
467.93
468.003
468.031
467.966
467.939
467.982
468.01
467.944
467.942
468.008
468.033
467.969
467.932
467.966
467.92
467.927
467.94
467.94
467.941
467.974
467.94
467.939
467.974
467.941
467.927
467.941
467.944
467.941
467.974
467.968
467.968
467.982
467.981
468.011
468.01
468.035
467.939
467.983
467.968
468.011
467.981
468.035
468.01
467.941
467.943
467.974
467.941
467.936
467.936
467.969
467.931
467.98
467.929
467.961
468.006
468.033
467.971
468.004
467.966
467.962
467.932
468.033
468.008
468.005
467.973
467.971
467.938
467.932
467.917
467.931
467.93
467.965
467.931
467.965
467.931
467.93
467.917
467.94
467.938
467.939
467.972
467.967
467.98
468.011
467.966
467.983
468.01
468.036
467.939
468.011
467.981
467.983
467.967
468.036
468.01
467.941
467.939
467.973
467.94
467.981
467.967
468.01
467.968
468.01
467.983
468.035
467.938
468.01
467.968
468.01
467.968
468.035
467.983
468.006
467.93
467.973
467.981
468.033
467.962
468.004
467.965
467.974
467.932
468.033
467.981
468.005
467.962
467.932
467.931
467.966
467.931
468.003
467.931
467.961
468.004
468.031
467.961
467.978
467.972
467.961
467.93
468.031
468.003
467.978
467.961
467.965
467.931
467.93
467.937
467.94
467.973
467.943
467.982
468.01
468.036
467.937
467.966
467.981
468.01
467.966
468.036
468.009
467.966
467.935
468.009
467.978
467.972
467.939
467.939
468.011
467.983
468.035
467.942
467.983
467.969
468.011
467.968
468.035
467.983
467.98
467.94
468.01
467.968
468.034
467.963
468.005
467.967
468.009
467.933
467.975
467.981
468.005
467.963
468.007
467.965
467.974
467.932
467.965
467.931
467.932
468.031
467.961
467.979
467.973
468.004
467.931
467.962
468.004
467.979
467.962
468.005
467.974
467.962
467.934
467.932
467.932
467.933
467.93
467.937
467.942
467.972
467.938
467.972
467.94
467.938
467.926
467.946
467.942
467.976
467.942
468.01
468.011
468.035
467.942
467.968
467.969
467.983
467.98
468.035
468.01
467.967
467.938
467.983
467.967
467.974
467.941
467.94
467.972
467.935
467.938
468.034
467.974
468.005
467.965
467.981
467.931
467.963
468.007
468.005
467.974
467.981
467.965
467.963
467.932
467.937
467.933
467.936
467.92
467.966
467.932
467.932
467.933
467.932
467.932
)
;

boundaryField
{
    sphere_to_oil
    {
        type            compressible::turbulentTemperatureCoupledBaffleMixed;
        refValue        nonuniform List<scalar> 
360
(
336.232
336.232
322.44
359.592
367.791
324.626
368.862
368.862
368.862
346.174
346.174
327.916
331.911
320.179
345.002
356.341
352.736
352.736
352.736
322.057
351.513
328.916
332.063
362.153
317.086
362.429
322.397
362.344
362.344
362.344
369.523
361.373
322.407
322.053
327.697
327.813
353.69
353.69
353.69
352.976
358.304
328.321
327.995
336.648
336.648
322.228
329.873
314.435
335.351
362.785
324.563
324.651
331.347
331.823
321.869
328.727
353.391
322.185
328.095
334.032
320.373
363.585
363.585
363.585
314.477
362.093
335.259
325.094
367.363
367.363
367.363
368.314
366.876
319.325
351.577
344.295
321.262
331.154
358.315
353.815
332.878
324.521
332.499
320.235
322.375
324.269
327.983
331.698
320.812
322.291
322.54
330.877
327.67
322.733
330.589
327.722
328.121
328.12
324.18
317.092
317.198
321.77
324.592
327.679
330.844
321.642
320.106
331.868
323.952
328.122
328.123
327.968
324.142
322.025
314.687
314.645
329.973
325.225
331.217
336.011
336.011
359.592
359.592
362.153
362.153
360.211
360.211
360.211
361.541
361.541
361.541
330.493
325.457
329.932
322.781
367.791
367.791
342.365
342.365
369.523
369.523
341.4
341.4
368.765
368.765
368.765
322.465
321.858
356.827
356.827
356.827
356.66
356.66
356.66
356.341
351.513
345.002
356.341
355.997
321.719
355.997
355.997
332.082
332.828
324.626
328.97
328.97
359.738
359.738
359.738
320.432
351.513
328.916
358.772
358.772
320.269
358.772
332.765
324.498
314.509
322.385
322.699
330.415
316.976
329.917
322.655
314.553
317.159
362.429
362.429
361.373
361.373
336.98
336.98
359.63
359.63
359.63
335.128
335.128
316.937
327.268
324.856
331.041
327.423
324.343
330.924
323.91
331.947
328.17
323.825
352.976
331.84
328.35
322.181
359.156
359.156
359.156
329.583
329.583
320.303
328.2
328.059
333.917
358.304
328.227
333.793
328.322
352.976
358.304
329.387
322.174
329.387
320.692
314.625
329.803
317.035
322.564
322.443
322.705
316.846
316.804
363.515
358.53
363.515
363.515
358.53
358.53
362.785
362.093
335.351
360.964
317.042
362.785
360.964
360.964
330.36
322.055
327.468
330.788
322.737
368.314
327.518
327.925
328.011
324.079
353.391
351.577
328.165
327.976
324.079
352.892
355.985
328.727
358.704
320.468
353.391
358.704
358.704
334.41
328.202
358.315
328.15
328.107
327.922
358.703
328.043
358.428
329.25
352.892
329.25
358.703
352.892
358.703
314.397
325.293
329.457
329.658
335.725
359.697
335.725
359.697
359.697
316.955
362.093
360.777
335.259
360.777
316.936
360.777
330.638
330.265
321.147
366.368
342.101
366.368
366.368
342.101
321.672
324.304
327.363
330.751
366.876
368.314
341.622
322.441
366.876
341.622
321.698
351.577
356.667
344.295
356.667
320.507
356.667
331.99
353.815
324.182
328.356
355.795
353.415
355.985
343.905
355.985
355.795
343.905
355.795
324.257
332.331
358.315
328.908
320.312
353.815
328.908
322.406
358.428
353.415
358.428
329.215
353.415
329.215
)
;
        refGradient     uniform 0;
        valueFraction   nonuniform List<scalar> 
360
(
0.000136372
0.00013083
8.37589e-05
0.00029922
0.000306877
0.000175968
0.000308784
0.000265051
0.00041256
0.000131357
0.000128071
0.000171812
0.000261847
7.48679e-05
0.000133927
0.000260342
0.000298346
0.000278762
0.000391166
6.85087e-05
0.000256834
0.000126262
0.00011637
0.000308803
8.96575e-05
0.000317413
0.000178921
0.000313314
0.000410031
0.000274284
0.000313365
0.000316064
8.48703e-05
8.39221e-05
0.000176115
0.000173314
0.000293269
0.000397586
0.000273016
0.000410503
0.000405491
8.65838e-05
0.000171739
0.000125342
0.000125192
0.000176791
0.000264496
7.05667e-05
0.000126266
0.000267743
0.000174402
0.000175535
0.000261652
0.000259109
7.32053e-05
0.00013392
0.000273097
7.01288e-05
0.000173731
0.000259069
6.86437e-05
0.000304987
0.000269231
0.000421374
7.07685e-05
0.000275278
0.000128406
0.000124194
0.000312034
0.000407059
0.000273818
0.000392534
0.000398029
7.60196e-05
0.000265394
0.000134635
7.00879e-05
0.00012568
0.000397194
0.000412614
0.000123267
0.000120942
0.00011879
7.05989e-05
8.51339e-05
0.000172599
0.000173566
0.000262846
7.93431e-05
6.69941e-05
8.4255e-05
0.000262417
0.000173236
8.60672e-05
0.000261984
0.000175215
0.000174178
0.000174447
8.50684e-05
6.81868e-05
6.91433e-05
6.8223e-05
0.000175388
0.000172382
0.000262219
7.7201e-05
6.70574e-05
0.000262029
8.32425e-05
0.000172655
0.000172687
0.00017621
8.61648e-05
6.8997e-05
6.72894e-05
6.85894e-05
0.00011939
0.000119533
0.000124177
0.000134652
0.000126554
0.000261491
0.00041193
0.000275498
0.000415718
0.000266477
0.000409687
0.000305036
0.000266692
0.00040077
0.000300412
0.000122534
0.000115879
0.00011869
6.55212e-05
0.000271736
0.000409129
0.000126584
0.000127162
0.000413462
0.000274903
0.000132697
0.000139855
0.000408372
0.000280536
0.00032326
7.211e-05
6.71063e-05
0.000283242
0.000392504
0.000311118
0.000291633
0.000406093
0.000311085
0.000321186
0.000295852
0.000138391
0.000412501
0.000266451
7.42871e-05
0.000400924
0.000300023
0.000114497
0.000120627
0.000119335
0.000125892
0.000131598
0.00041044
0.000270252
0.000317219
7.60598e-05
0.000394826
0.000135384
0.000415169
0.000265778
7.4294e-05
0.000315133
0.000115513
0.000116585
6.81155e-05
0.000178539
0.000178468
0.000263893
8.80007e-05
0.000264292
0.0001739
6.74161e-05
6.54632e-05
0.000412985
0.000262408
0.000408137
0.00027211
0.000129796
0.000121384
0.00041004
0.000256272
0.000296225
0.000119983
0.000139218
7.00395e-05
0.0001754
0.000175241
0.000261824
0.000171435
0.000172318
0.000260793
8.93883e-05
0.000261688
0.000177435
8.69276e-05
0.000294548
0.000261398
0.000176372
7.02897e-05
0.000401088
0.000260019
0.000304223
0.000126744
0.000117783
6.80348e-05
0.000174038
0.000176965
0.000262383
0.000298318
8.34339e-05
0.000259893
0.000169738
0.000258176
0.000273317
0.000124068
6.9687e-05
0.000137673
7.05487e-05
6.64075e-05
0.000265311
8.85401e-05
0.000178365
0.000176303
0.000174201
8.74272e-05
6.67823e-05
0.000271267
0.000254184
0.000426716
0.000317627
0.000398102
0.000286037
0.000306581
0.000313896
0.000139526
0.000269283
7.25514e-05
0.000409781
0.000398451
0.000302738
0.00026405
8.41361e-05
0.000171812
0.000261014
8.48896e-05
0.000311015
0.000172556
0.00017379
0.000172189
8.43762e-05
0.000308699
0.000289278
0.000175676
0.000171133
8.60008e-05
0.000289847
0.000319045
0.000126529
0.000286401
6.80196e-05
0.000408034
0.00039559
0.000298912
0.000259079
8.51098e-05
0.000299381
0.000172388
0.000172653
0.000173636
0.000301011
8.59073e-05
0.000307545
0.000129409
0.000265162
0.000130488
0.000270208
0.000411777
0.000404247
6.79868e-05
0.000136239
0.000134629
0.00013168
0.000119918
0.000401201
0.000130974
0.000266723
0.00031408
6.69959e-05
0.000405117
0.000404628
0.000132461
0.000287701
7.02091e-05
0.000308436
0.000117435
0.000115367
7.0151e-05
0.000396791
0.000118586
0.000260221
0.000306473
0.000127136
6.93069e-05
0.000172453
0.000172393
0.000260137
0.000297659
0.000258178
0.000124825
6.71912e-05
0.000262503
0.000138638
7.76011e-05
0.00038041
0.000408484
0.000120725
0.00025948
7.19406e-05
0.000326335
0.000262131
0.000314067
8.59167e-05
0.000173195
0.0003028
0.000293559
0.000276174
0.000123442
0.000404553
0.000403683
0.000146536
0.000269838
0.000118723
0.000120545
0.000271657
0.000134476
7.27076e-05
0.000274745
0.000129488
6.71445e-05
0.000399873
0.000404674
0.000266262
0.000129218
0.000261544
0.000133479
)
;
        value           nonuniform List<scalar> 
360
(
467.941
467.941
467.947
467.927
467.928
467.962
467.928
467.934
467.922
467.939
467.939
467.959
467.964
467.947
467.942
467.929
467.914
467.918
467.904
467.942
467.922
467.934
467.92
467.924
467.943
467.923
467.96
467.925
467.917
467.929
467.926
467.924
467.945
467.945
467.958
467.96
467.916
467.906
467.919
467.904
467.906
467.938
467.956
467.94
467.942
467.959
467.965
467.946
467.94
467.929
467.963
467.962
467.965
467.965
467.939
467.931
467.918
467.941
467.956
467.963
467.941
467.925
467.929
467.917
467.947
467.929
467.941
467.927
467.929
467.924
467.934
467.924
467.923
467.95
467.93
467.945
467.946
467.922
467.908
467.904
467.922
467.922
467.923
467.941
467.949
467.961
467.96
467.964
467.943
467.941
467.946
467.966
467.963
467.944
467.966
467.962
467.96
467.957
467.939
467.949
467.948
467.95
467.962
467.963
467.966
467.949
467.945
467.964
467.936
467.956
467.961
467.957
467.939
467.94
467.949
467.948
467.929
467.929
467.929
467.941
467.942
467.931
467.916
467.93
467.917
467.93
467.916
467.926
467.93
467.918
467.926
467.929
467.93
467.93
467.951
467.933
467.922
467.944
467.944
467.922
467.933
467.943
467.943
467.922
467.933
467.925
467.95
467.945
467.923
467.907
467.913
467.922
467.905
467.915
467.915
467.917
467.94
467.905
467.927
467.946
467.907
467.917
467.921
467.92
467.919
467.933
467.932
467.905
467.921
467.915
467.939
467.905
467.931
467.905
467.921
467.939
467.915
467.921
467.92
467.946
467.96
467.959
467.965
467.944
467.965
467.961
467.947
467.948
467.916
467.929
467.916
467.929
467.94
467.942
467.916
467.931
467.925
467.942
467.94
467.948
467.962
467.962
467.966
467.963
467.962
467.966
467.936
467.965
467.956
467.938
467.917
467.965
467.957
467.94
467.908
467.922
467.917
467.933
467.934
467.94
467.956
467.955
467.962
467.917
467.938
467.963
467.957
467.92
467.92
467.933
467.94
467.93
467.939
467.946
467.965
467.943
467.959
467.959
467.96
467.941
467.949
467.928
467.931
467.918
467.923
467.919
467.93
467.922
467.921
467.939
467.929
467.947
467.915
467.916
467.927
467.966
467.949
467.964
467.966
467.947
467.928
467.963
467.957
467.963
467.94
467.917
467.919
467.957
467.961
467.939
467.918
467.915
467.932
467.919
467.94
467.905
467.908
467.918
467.963
467.938
467.917
467.957
467.957
467.957
467.92
467.941
467.919
467.934
467.921
467.933
467.921
467.905
467.908
467.946
467.93
467.93
467.931
467.941
467.918
467.94
467.929
467.927
467.947
467.916
467.915
467.94
467.926
467.947
467.924
467.929
467.929
467.951
467.925
467.946
467.935
467.93
467.946
467.951
467.963
467.964
467.967
467.927
467.935
467.945
467.951
467.932
467.941
467.947
467.91
467.909
467.942
467.928
467.947
467.914
467.965
467.914
467.938
467.958
467.917
467.917
467.925
467.941
467.907
467.907
467.937
467.925
467.922
467.923
467.921
467.932
467.94
467.92
467.933
467.941
467.909
467.906
467.922
467.933
467.921
467.932
)
;
        Tnbr            T;
        thicknessLayers 0();
        kappaLayers     0();
        kappaMethod     solidThermo;
        kappa           none;
        alphaAni        none;
    }
}


// ************************************************************************* //
