/*--------------------------------*- C++ -*----------------------------------*\
| =========                 |                                                 |
| \\      /  F ield         | OpenFOAM: The Open Source CFD Toolbox           |
|  \\    /   O peration     | Version:  v1906                                 |
|   \\  /    A nd           | Web:      www.OpenFOAM.com                      |
|    \\/     M anipulation  |                                                 |
\*---------------------------------------------------------------------------*/
FoamFile
{
    version     2.0;
    format      ascii;
    class       volScalarField;
    location    "14.2/sphere";
    object      T;
}
// * * * * * * * * * * * * * * * * * * * * * * * * * * * * * * * * * * * * * //

dimensions      [0 0 0 1 0 0 0];


internalField   nonuniform List<scalar> 
304
(
491.111
491.146
491.145
491.164
491.114
491.113
491.111
491.147
491.109
491.285
491.285
491.159
491.144
491.284
491.284
491.197
491.159
491.197
491.112
491.145
491.164
491.112
491.147
491.285
491.284
491.197
491.165
491.284
491.284
491.228
491.111
491.196
491.228
491.152
491.113
491.162
491.196
491.113
491.118
491.198
491.228
491.151
491.113
491.153
491.097
491.096
491.114
491.115
491.113
491.154
491.114
491.114
491.154
491.113
491.096
491.113
491.113
491.114
491.153
491.146
491.146
491.164
491.161
491.198
491.197
491.228
491.11
491.164
491.146
491.198
491.161
491.228
491.197
491.113
491.113
491.153
491.114
491.111
491.111
491.151
491.111
491.163
491.107
491.144
491.196
491.227
491.158
491.196
491.146
491.145
491.11
491.228
491.197
491.197
491.159
491.153
491.113
491.111
491.096
491.111
491.111
491.151
491.112
491.152
491.112
491.111
491.095
491.112
491.112
491.112
491.152
491.147
491.16
491.198
491.146
491.164
491.197
491.229
491.112
491.198
491.161
491.165
491.147
491.229
491.197
491.113
491.113
491.153
491.114
491.16
491.146
491.197
491.146
491.197
491.164
491.228
491.108
491.197
491.146
491.197
491.146
491.228
491.164
491.196
491.108
491.159
491.164
491.228
491.145
491.196
491.146
491.16
491.109
491.228
491.164
491.197
491.145
491.113
491.112
491.152
491.112
491.196
491.11
491.146
491.197
491.228
491.145
491.164
491.159
491.146
491.109
491.228
491.196
491.164
491.145
491.151
491.111
491.111
491.111
491.113
491.153
491.115
491.164
491.197
491.229
491.11
491.146
491.161
491.197
491.145
491.228
491.197
491.146
491.108
491.197
491.158
491.152
491.112
491.11
491.199
491.165
491.229
491.114
491.163
491.148
491.199
491.146
491.228
491.164
491.16
491.111
491.197
491.146
491.228
491.146
491.197
491.148
491.199
491.111
491.161
491.164
491.197
491.145
491.196
491.146
491.16
491.109
491.151
491.112
491.113
491.228
491.145
491.164
491.16
491.197
491.11
491.146
491.197
491.165
491.147
491.198
491.161
491.147
491.113
491.113
491.112
491.114
491.1
491.112
491.114
491.152
491.112
491.152
491.111
491.112
491.095
491.116
491.115
491.155
491.115
491.197
491.198
491.228
491.114
491.147
491.148
491.164
491.16
491.228
491.197
491.145
491.108
491.164
491.145
491.153
491.113
491.111
491.155
491.115
491.113
491.228
491.16
491.197
491.146
491.164
491.109
491.145
491.196
491.197
491.16
491.164
491.145
491.145
491.109
491.111
491.112
491.11
491.098
491.152
491.113
491.112
491.114
491.113
491.112
)
;

boundaryField
{
    sphere_to_oil
    {
        type            compressible::turbulentTemperatureCoupledBaffleMixed;
        refValue        nonuniform List<scalar> 
360
(
327.422
327.422
308.004
349.401
354.519
309.775
355.702
355.702
355.702
327.065
327.065
309.837
310.889
307.18
324.798
354.344
349.661
349.661
349.661
307.463
346.527
325.076
320.447
352.883
307.878
354.329
309.691
353.808
353.808
353.808
356.487
352.079
308.006
307.921
309.728
309.836
349.512
349.512
349.512
348.877
354.486
308.291
309.901
327.329
327.329
309.63
310.808
306.636
325.928
354.698
309.932
309.792
310.691
310.863
307.253
325
350.633
307.397
309.845
310.371
306.897
354.576
354.576
354.576
306.63
353.493
325.668
316.731
355.419
355.419
355.419
354.51
353.44
307.015
346.885
324.055
307.205
319.184
354.173
350.349
321.113
315.624
320.44
306.875
308.005
309.719
309.991
310.805
307.069
307.543
308.03
310.802
309.911
308.043
310.716
309.849
309.95
309.813
308.293
307.104
307.171
306.965
309.78
309.931
310.816
306.912
307.33
310.905
308.329
309.929
309.993
309.863
308.315
307.343
306.948
306.908
317.529
316.52
318.021
327.588
327.588
349.401
349.401
352.883
352.883
350.887
350.887
350.887
352.662
352.662
352.662
317.797
316.39
317.47
307.28
354.519
354.519
326.018
326.018
356.487
356.487
323.927
323.927
355.969
355.969
355.969
307.252
307.402
354.819
354.819
354.819
355.869
355.869
355.869
354.344
346.527
324.798
354.344
352.492
307.144
352.492
352.492
320.49
320.56
316.263
324.59
324.59
356.159
356.159
356.159
306.611
346.527
325.076
355.544
355.544
306.673
355.544
321.059
316.117
306.727
309.641
309.775
310.968
307.814
310.803
309.794
306.681
307.178
354.329
354.329
352.079
352.079
327.241
327.241
349.687
349.687
349.687
326.332
326.332
307.095
309.664
309.873
310.917
309.808
309.745
310.925
308.257
310.883
309.833
308.236
348.877
310.922
309.971
307.444
354.646
354.646
354.646
325.737
325.737
306.611
309.991
309.995
310.34
354.486
308.105
310.284
309.93
348.877
354.486
325.611
307.311
325.611
306.86
306.946
310.771
307.864
309.763
309.722
309.839
307.789
306.915
355.029
347.632
355.029
355.029
347.632
347.632
354.698
353.493
325.928
351.341
307.161
354.698
351.341
351.341
310.564
307.99
309.991
310.781
308.093
354.51
309.717
309.869
310.003
308.269
350.633
346.885
309.864
309.895
308.277
348.856
352.96
325
354.729
306.944
350.633
354.729
354.729
310.528
308.167
354.173
309.94
309.805
309.849
354.394
308.161
353.726
325.894
348.856
325.894
354.394
348.856
354.394
306.64
316.157
316.55
316.897
326.694
349.892
326.694
349.892
349.892
307.028
353.493
351.349
325.668
351.349
307.127
351.349
317.635
317.517
306.832
352.531
324.398
352.531
352.531
324.398
307.019
309.717
309.843
310.875
353.44
354.51
324.729
307.153
353.44
324.729
306.987
346.885
353.978
324.055
353.978
306.852
353.978
310.918
350.349
308.351
309.886
352.6
349.455
352.96
324.964
352.96
352.6
324.964
352.6
315.504
320.517
354.173
325.681
306.716
350.349
325.681
307.546
353.726
349.455
353.726
326.326
349.455
326.326
)
;
        refGradient     uniform 0;
        valueFraction   nonuniform List<scalar> 
360
(
0.000129646
0.000124377
7.96277e-05
0.000284469
0.000291749
0.000167288
0.000293562
0.000251983
0.00039223
0.000124878
0.000121754
0.000163336
0.000248931
7.11745e-05
0.000127321
0.000247503
0.000283633
0.000265013
0.000371877
6.51283e-05
0.000244166
0.000120032
0.000110629
0.000293578
8.5235e-05
0.000301764
0.000170095
0.000297867
0.000389822
0.000260759
0.000297918
0.000300484
8.06844e-05
7.9783e-05
0.000167427
0.000164764
0.000278806
0.00037798
0.000259549
0.000390262
0.000385496
8.2312e-05
0.000163266
0.000119159
0.000119017
0.000168069
0.00025145
6.70856e-05
0.000120038
0.000254541
0.000165798
0.000166876
0.000248745
0.000246328
6.95932e-05
0.000127312
0.000259627
6.66684e-05
0.000165159
0.000246289
6.52565e-05
0.000289951
0.000255956
0.000400606
6.72773e-05
0.000261705
0.000122072
0.00011807
0.000296651
0.000386998
0.000260318
0.00037319
0.000378414
7.22692e-05
0.000252306
0.000127994
6.66303e-05
0.00011948
0.000377608
0.000392268
0.000117187
0.000114976
0.00011293
6.71153e-05
8.09348e-05
0.000164085
0.000165003
0.000249881
7.54291e-05
6.36884e-05
8.00994e-05
0.000249473
0.000164691
8.18223e-05
0.000249062
0.000166572
0.000165586
0.00016584
8.08716e-05
6.48231e-05
6.57324e-05
6.48577e-05
0.000166736
0.000163879
0.000249285
7.33931e-05
6.37492e-05
0.000249104
7.91357e-05
0.000164136
0.000164168
0.000167516
8.19138e-05
6.55924e-05
6.39698e-05
6.52057e-05
0.000113502
0.000113638
0.000118053
0.00012801
0.000120312
0.000248597
0.000391627
0.000261914
0.000395229
0.000253337
0.000389494
0.000289999
0.000253542
0.000381016
0.000285601
0.000116492
0.000110165
0.000112837
6.22891e-05
0.000258338
0.000388967
0.000120341
0.000120891
0.000393086
0.00026135
0.000126152
0.000132958
0.000388248
0.000266705
0.000307326
6.85531e-05
6.37957e-05
0.000269274
0.000373149
0.000295775
0.000277252
0.000386068
0.000295744
0.000305347
0.000281262
0.000131565
0.000392162
0.000253311
7.06225e-05
0.000381156
0.000285228
0.000108848
0.000114677
0.000113448
0.000119681
0.000125105
0.000390201
0.000256922
0.000301574
7.23067e-05
0.000375358
0.000128705
0.000394698
0.000252668
7.0628e-05
0.000299591
0.000109815
0.000110834
6.47552e-05
0.000169731
0.000169664
0.000250877
8.36597e-05
0.000251255
0.000165321
6.40903e-05
6.22339e-05
0.00039263
0.000249468
0.000388021
0.000258693
0.000123394
0.000115397
0.000389831
0.000243635
0.000281622
0.000114065
0.000132351
6.65844e-05
0.000166748
0.000166597
0.00024891
0.000162978
0.000163817
0.00024793
8.49783e-05
0.000248779
0.000168681
8.26391e-05
0.000280022
0.000248504
0.000167671
6.68214e-05
0.00038131
0.000247193
0.00028922
0.00012049
0.000111972
6.46777e-05
0.000165451
0.000168233
0.00024944
0.000283605
7.93175e-05
0.000247072
0.000161363
0.000245442
0.000259836
0.000117947
6.62485e-05
0.000130881
6.70676e-05
6.31315e-05
0.000252224
8.41728e-05
0.000169566
0.000167605
0.000165608
8.31147e-05
6.34879e-05
0.000257892
0.00024165
0.000405684
0.000301968
0.00037848
0.000271935
0.000291466
0.00029842
0.000132645
0.000256006
6.89725e-05
0.000389584
0.000378812
0.000287814
0.000251025
7.99862e-05
0.000163336
0.000248139
8.07027e-05
0.000295683
0.000164044
0.000165216
0.000163694
8.02134e-05
0.000293475
0.000275012
0.000167008
0.000162691
8.1758e-05
0.000275553
0.000303311
0.000120287
0.000272275
6.46632e-05
0.000387913
0.000376082
0.00028417
0.000246298
8.09107e-05
0.000284616
0.000163882
0.000164134
0.000165069
0.000286166
8.16688e-05
0.000292378
0.000123024
0.000252083
0.00012405
0.00025688
0.000391472
0.000384314
6.46329e-05
0.00012952
0.00012799
0.000125186
0.000114003
0.000381426
0.000124514
0.000253572
0.000298596
6.3691e-05
0.00038515
0.000384685
0.000125928
0.000273516
6.67457e-05
0.000293232
0.000111644
0.000109678
6.66906e-05
0.000377236
0.000112737
0.000247391
0.000291365
0.000120865
6.58881e-05
0.000163945
0.000163889
0.000247306
0.000282986
0.000245449
0.000118669
6.38769e-05
0.000249561
0.000131801
7.37734e-05
0.000361652
0.000388342
0.000114771
0.000246683
6.83916e-05
0.000310243
0.000249201
0.00029858
8.1678e-05
0.00016465
0.000287868
0.000279082
0.000262556
0.000117354
0.000384606
0.000383779
0.000139308
0.000256532
0.000112866
0.000114598
0.000258257
0.000127841
6.91199e-05
0.000261193
0.0001231
6.38314e-05
0.000380155
0.000384719
0.000253129
0.000122842
0.000248643
0.000126893
)
;
        value           nonuniform List<scalar> 
360
(
491.115
491.117
491.119
491.093
491.094
491.138
491.093
491.101
491.082
491.113
491.114
491.138
491.141
491.124
491.116
491.103
491.089
491.097
491.081
491.124
491.101
491.116
491.098
491.093
491.118
491.092
491.139
491.094
491.082
491.1
491.091
491.09
491.117
491.116
491.137
491.138
491.091
491.082
491.097
491.079
491.082
491.117
491.139
491.115
491.116
491.137
491.142
491.122
491.115
491.1
491.14
491.138
491.143
491.142
491.121
491.112
491.097
491.123
491.138
491.143
491.123
491.093
491.099
491.082
491.123
491.1
491.116
491.097
491.096
491.086
491.102
491.085
491.084
491.127
491.104
491.119
491.122
491.1
491.084
491.08
491.1
491.1
491.101
491.123
491.121
491.138
491.139
491.141
491.119
491.123
491.118
491.142
491.139
491.116
491.142
491.138
491.137
491.138
491.117
491.124
491.124
491.124
491.139
491.139
491.141
491.122
491.122
491.141
491.115
491.137
491.139
491.137
491.117
491.122
491.125
491.125
491.099
491.099
491.098
491.115
491.117
491.101
491.08
491.101
491.081
491.101
491.081
491.092
491.102
491.083
491.095
491.099
491.1
491.099
491.125
491.101
491.083
491.116
491.116
491.083
491.101
491.114
491.114
491.083
491.1
491.089
491.124
491.122
491.097
491.083
491.089
491.096
491.081
491.091
491.09
491.092
491.113
491.08
491.1
491.122
491.081
491.092
491.1
491.099
491.098
491.114
491.114
491.081
491.1
491.092
491.121
491.08
491.113
491.081
491.1
491.121
491.091
491.099
491.098
491.123
491.139
491.137
491.142
491.119
491.142
491.139
491.124
491.123
491.081
491.1
491.081
491.099
491.114
491.116
491.08
491.102
491.091
491.117
491.114
491.124
491.138
491.138
491.142
491.139
491.139
491.142
491.115
491.142
491.137
491.117
491.092
491.142
491.137
491.122
491.083
491.101
491.093
491.114
491.116
491.123
491.138
491.137
491.141
491.093
491.117
491.142
491.139
491.098
491.098
491.114
491.121
491.112
491.121
491.122
491.141
491.118
491.137
491.138
491.139
491.115
491.124
491.099
491.101
491.083
491.092
491.084
491.097
491.091
491.09
491.113
491.099
491.122
491.08
491.08
491.093
491.142
491.121
491.141
491.142
491.119
491.093
491.139
491.138
491.141
491.119
491.093
491.094
491.138
491.139
491.117
491.093
491.09
491.115
491.097
491.123
491.081
491.085
491.094
491.142
491.118
491.094
491.139
491.139
491.14
491.096
491.121
491.095
491.115
491.099
491.114
491.1
491.08
491.084
491.122
491.1
491.1
491.101
491.115
491.082
491.114
491.099
491.094
491.123
491.081
491.08
491.113
491.096
491.122
491.09
491.098
491.098
491.125
491.087
491.119
491.104
491.096
491.118
491.126
491.14
491.14
491.142
491.092
491.102
491.116
491.124
491.1
491.112
491.12
491.085
491.084
491.116
491.102
491.123
491.089
491.141
491.089
491.116
491.138
491.092
491.092
491.098
491.114
491.081
491.081
491.11
491.097
491.101
491.101
491.1
491.114
491.123
491.098
491.115
491.123
491.084
491.082
491.101
491.116
491.099
491.114
)
;
        Tnbr            T;
        thicknessLayers 0();
        kappaLayers     0();
        kappaMethod     solidThermo;
        kappa           none;
        alphaAni        none;
    }
}


// ************************************************************************* //
