/*--------------------------------*- C++ -*----------------------------------*\
| =========                 |                                                 |
| \\      /  F ield         | OpenFOAM: The Open Source CFD Toolbox           |
|  \\    /   O peration     | Version:  v1912                                 |
|   \\  /    A nd           | Website:  www.openfoam.com                      |
|    \\/     M anipulation  |                                                 |
\*---------------------------------------------------------------------------*/
FoamFile
{
    version     2.0;
    format      ascii;
    class       volScalarField;
    location    "134/oil";
    object      heatTransferCoeff(T);
}
// * * * * * * * * * * * * * * * * * * * * * * * * * * * * * * * * * * * * * //

dimensions      [1 0 -3 -1 0 0 0];


internalField   uniform 0;

boundaryField
{
    maxY
    {
        type            calculated;
        value           uniform 0;
    }
    minX
    {
        type            calculated;
        value           uniform 0;
    }
    maxX
    {
        type            calculated;
        value           uniform 0;
    }
    minY
    {
        type            calculated;
        value           uniform 0;
    }
    minZ
    {
        type            calculated;
        value           uniform 0;
    }
    maxZ
    {
        type            calculated;
        value           uniform 0;
    }
    oil_to_sphere
    {
        type            calculated;
        value           nonuniform List<scalar> 
1536
(
-92.5769
-90.054
-90.1193
-85.2358
-84.8819
-89.8157
-87.8531
-88.521
-88.2121
-85.5203
-83.7584
-85.8157
-88.1343
-86.05
-82.927
-87.4833
-89.8655
-90.2443
-87.3235
-88.0251
-89.1791
-88.2068
-88.4568
-87.4609
-87.7425
-87.588
-87.6479
-87.1308
-89.7996
-88.4085
-90.5582
-90.0364
-90.172
-87.4262
-87.6093
-87.0892
-87.2666
-86.4887
-87.0376
-87.5847
-86.9038
-87.3239
-88.1332
-88.7518
-89.4093
-87.555
-89.5024
-88.7586
-82.9902
-87.6334
-88.9491
-88.2786
-88.6813
-87.3796
-89.7043
-91.5231
-88.3738
-88.0408
-89.1952
-88.8411
-88.1205
-88.088
-88.1109
-87.3316
-87.6421
-87.9855
-88.0058
-89.0504
-88.9428
-89.611
-87.3195
-85.2894
-85.9715
-87.6037
-87.5392
-91.6621
-90.1716
-86.7542
-87.4947
-90.2152
-89.209
-88.9301
-85.0634
-84.9569
-89.7799
-92.1672
-84.6689
-87.7887
-88.8924
-88.8519
-88.3871
-87.1614
-87.1656
-87.2589
-87.5722
-88.701
-89.3462
-89.4702
-90.3168
-88.7901
-89.2551
-87.2658
-92.7108
-89.0251
-85.8815
-87.5246
-87.6753
-85.4614
-85.5205
-92.8675
-90.1252
-88.5933
-88.0818
-88.5431
-84.7478
-85.1836
-84.3244
-91.0507
-92.4229
-90.3463
-88.3442
-88.5297
-87.0103
-89.2804
-90.4725
-88.9971
-88.2411
-86.8213
-89.4336
-89.0577
-88.0225
-88.9681
-89.6464
-87.6249
-87.8522
-89.685
-88.536
-90.2632
-86.8924
-89.8831
-88.2001
-89.0617
-89.0734
-88.1573
-87.8289
-88.1102
-88.5436
-91.8936
-88.9441
-92.8079
-89.4359
-90.9056
-88.352
-88.5314
-87.3426
-89.4299
-89.5469
-89.9789
-93.4575
-91.4959
-90.1098
-92.1784
-85.8812
-86.3222
-87.202
-87.0856
-89.4466
-91.2764
-90.1203
-92.0751
-87.2451
-87.4245
-86.8587
-89.4632
-88.8316
-88.8922
-91.944
-87.5634
-87.6487
-92.0926
-86.8512
-86.286
-86.2644
-86.4696
-89.8257
-92.2153
-91.547
-87.1026
-86.3962
-90.2178
-86.6144
-89.7635
-89.6338
-90.7976
-85.8088
-82.6285
-90.7626
-91.0492
-88.3112
-87.4185
-88.3518
-87.8029
-90.3432
-90.7606
-89.4765
-88.9699
-87.6724
-91.1369
-90.4467
-89.5545
-86.7654
-87.6188
-87.5195
-88.2901
-89.5657
-91.7876
-87.4494
-85.9848
-86.0171
-82.4074
-90.024
-89.4095
-88.8824
-88.4094
-88.5759
-91.3008
-89.7986
-88.0964
-90.0804
-85.6792
-87.1531
-82.868
-88.0349
-90.3048
-90.7763
-90.6354
-89.9129
-89.3388
-90.2554
-85.8407
-86.1768
-87.8078
-91.0359
-86.7796
-83.1451
-84.3177
-89.3356
-89.256
-92.3432
-94.1537
-88.6264
-85.0884
-82.3782
-88.8383
-91.2096
-87.248
-87.329
-84.4854
-87.1478
-91.2573
-92.4473
-88.4768
-87.4101
-91.2266
-91.7864
-87.5458
-85.4325
-88.4031
-91.8661
-91.2064
-89.3502
-89.6777
-90.6406
-86.3794
-87.4031
-90.8254
-89.6758
-90.774
-88.2173
-90.1636
-91.7467
-89.6079
-89.3716
-91.1985
-87.4688
-87.3485
-87.7692
-86.8732
-87.1729
-90.8659
-91.8385
-87.4812
-87.8249
-87.7065
-87.9274
-87.1145
-88.7072
-88.3056
-86.672
-84.6132
-87.0745
-85.8311
-86.8403
-92.2682
-91.28
-91.2986
-94.1834
-86.0715
-86.2653
-89.1521
-92.7511
-93.2751
-87.2852
-88.3276
-87.1136
-89.6236
-87.4885
-89.307
-89.5275
-90.4504
-89.654
-87.8568
-89.879
-86.9909
-90.6951
-91.0481
-90.0284
-89.8828
-86.5302
-92.0183
-92.2098
-90.1066
-85.6941
-87.4621
-88.0568
-89.5592
-89.2852
-89.503
-86.4649
-90.6605
-91.5965
-90.3118
-91.2705
-89.0193
-88.8236
-88.221
-86.2455
-89.0201
-89.7224
-86.1662
-85.9177
-86.396
-92.6832
-90.7538
-91.3676
-89.1374
-88.8457
-91.1652
-85.9923
-92.1515
-90.3445
-88.7537
-88.7978
-85.9028
-90.6372
-90.6635
-86.7385
-88.7285
-88.0736
-87.479
-89.7072
-90.6137
-88.1427
-87.6884
-86.2448
-91.7626
-90.6764
-85.9682
-91.2307
-91.0226
-90.0737
-91.7023
-88.7021
-89.8238
-85.7845
-85.694
-89.575
-93.7447
-90.2268
-92.615
-89.31
-87.7965
-90.3122
-86.609
-87.4235
-89.5962
-90.5666
-89.7594
-89.0945
-86.7837
-86.3811
-90.8856
-91.5351
-90.6984
-88.8126
-87.3639
-89.3208
-89.8497
-90.4052
-88.9239
-88.0301
-86.9701
-88.649
-86.5667
-85.4905
-87.2448
-86.9172
-88.6136
-85.4117
-87.7665
-92.4489
-87.7184
-87.6882
-90.6101
-90.4943
-89.5307
-88.1055
-86.014
-90.1839
-91.2767
-89.4733
-89.0734
-90.0898
-88.4452
-88.5748
-89.1184
-85.0741
-90.0248
-91.5254
-91.4076
-90.4111
-89.9261
-89.5805
-88.9084
-88.1405
-86.5899
-88.4917
-86.756
-85.8901
-86.9391
-85.3154
-92.3549
-92.0288
-90.9779
-93.6789
-87.5045
-92.2917
-86.3717
-86.8383
-89.8303
-87.5845
-86.3315
-87.7886
-87.4962
-92.1351
-91.4201
-89.1046
-89.367
-91.7281
-90.9363
-88.8476
-89.8799
-86.7169
-90.5336
-85.5968
-91.4022
-85.0312
-90.132
-90.3204
-90.4957
-87.828
-86.2535
-87.988
-90.5448
-88.1094
-85.4742
-90.7451
-90.7786
-91.8612
-92.9792
-89.7198
-91.3562
-86.0413
-86.39
-83.2116
-84.0815
-88.6313
-87.6215
-87.3947
-86.9925
-92.4164
-87.7605
-85.7634
-85.345
-88.4086
-86.4141
-93.4961
-87.0342
-87.1868
-88.6363
-83.7702
-84.3356
-87.2504
-87.1893
-88.0299
-87.6227
-90.747
-90.4077
-89.5997
-88.8119
-85.305
-87.4733
-90.6095
-86.5343
-86.6901
-90.0533
-91.6724
-86.8631
-83.6158
-86.177
-83.8202
-88.3518
-87.7351
-87.1687
-85.8187
-83.3806
-89.9074
-90.1347
-89.1895
-88.538
-91.937
-89.9271
-89.4158
-88.9071
-86.5093
-87.4108
-90.7803
-89.7242
-87.8176
-84.1729
-88.8729
-91.076
-92.0536
-88.969
-88.2009
-91.7651
-89.3967
-91.3528
-86.6171
-87.3727
-86.271
-87.6614
-88.7435
-91.4754
-88.8303
-86.7509
-86.4595
-88.7244
-93.2882
-86.5086
-87.4546
-85.7412
-88.9997
-88.7462
-90.9457
-91.7465
-86.5179
-85.6178
-91.8632
-92.48
-84.7059
-92.1272
-91.1876
-90.2505
-91.4072
-89.6344
-88.8953
-88.8249
-91.8389
-88.9295
-89.5058
-88.702
-90.4288
-89.1162
-88.4974
-88.3654
-86.0502
-90.0986
-88.949
-90.4499
-89.9775
-90.1224
-89.7249
-89.003
-85.7816
-90.9828
-91.0623
-89.7046
-88.4693
-89.157
-92.7675
-86.6898
-86.5429
-86.0154
-89.6508
-88.0448
-92.7233
-87.8398
-88.1393
-88.8598
-83.5018
-83.5359
-87.339
-87.2624
-88.5392
-86.2249
-86.7287
-89.9214
-87.9065
-91.6996
-87.4065
-92.478
-88.9826
-89.6168
-83.9671
-83.5171
-83.0844
-87.2706
-90.2042
-87.5999
-87.2028
-83.7123
-88.4737
-90.7565
-88.4858
-94.7802
-86.7687
-90.713
-90.4764
-90.1008
-91.1786
-91.3082
-90.3757
-88.7272
-88.1414
-88.5176
-90.215
-88.1714
-89.1951
-89.1834
-89.2377
-90.4836
-89.7636
-90.1715
-86.311
-86.7543
-82.6079
-84.3993
-85.355
-81.073
-87.483
-87.6444
-88.147
-88.5272
-85.3828
-86.1056
-87.8195
-91.2463
-91.3136
-87.784
-85.528
-88.2046
-90.5663
-90.2331
-88.4614
-85.514
-86.7597
-89.7093
-89.4492
-88.4251
-87.6033
-89.9302
-90.1211
-91.7697
-90.0244
-88.8962
-87.6314
-86.6662
-85.8767
-88.2559
-89.0429
-92.8827
-88.6083
-92.4711
-88.0686
-93.264
-87.361
-88.1869
-86.4114
-86.7847
-87.6066
-86.244
-88.1183
-85.398
-87.3779
-90.9589
-87.7814
-86.0178
-92.0343
-89.984
-89.2469
-88.5096
-92.3581
-94.7235
-84.6326
-89.7775
-89.6463
-89.5349
-86.3266
-88.4389
-87.1372
-89.3706
-90.5581
-90.771
-86.6329
-89.7699
-88.9423
-89.8692
-89.7792
-89.3244
-88.0379
-88.3225
-87.5701
-85.6005
-85.3267
-86.4442
-91.4192
-87.4212
-85.8959
-87.4738
-90.8829
-88.0122
-91.5208
-90.5743
-89.5021
-88.9029
-89.5352
-92.0093
-86.4302
-89.6598
-91.1758
-91.1594
-88.9759
-87.0036
-88.1525
-89.6031
-91.2553
-86.3583
-88.344
-88.9865
-90.7696
-89.2942
-89.7195
-91.5993
-86.347
-87.1703
-86.8392
-92.1075
-90.8062
-88.7129
-90.7758
-87.1257
-87.4941
-90.7622
-89.8678
-91.666
-86.481
-90.2581
-90.6663
-88.9104
-89.3673
-90.1616
-86.7789
-85.0983
-88.5591
-89.7915
-92.6575
-88.2941
-87.4185
-88.44
-89.418
-90.2776
-88.7592
-87.1385
-88.2717
-90.5508
-87.0171
-86.8361
-88.1896
-87.3361
-89.136
-88.8743
-91.1102
-89.6347
-90.3056
-87.5444
-88.5735
-89.1173
-88.337
-87.9213
-87.6648
-87.5402
-86.4646
-89.8996
-89.0666
-88.9493
-89.5694
-85.5865
-87.6886
-92.0802
-92.0323
-87.0396
-90.8168
-89.4179
-89.7251
-87.6506
-91.2886
-90.9536
-86.3607
-87.9566
-87.6786
-87.6149
-85.8316
-86.0687
-87.6587
-91.0674
-93.4917
-87.2851
-90.1862
-89.8839
-89.2874
-88.1695
-89.136
-91.1737
-89.646
-86.4715
-87.7106
-87.5114
-87.8965
-89.581
-90.1688
-89.9487
-90.0127
-90.1915
-87.2106
-90.0779
-87.8256
-89.9709
-83.452
-89.6046
-91.2614
-87.9153
-84.6551
-88.9745
-88.4581
-92.1859
-86.9116
-90.0914
-88.565
-85.086
-92.0543
-86.0562
-88.2273
-88.5081
-85.6976
-90.8676
-89.007
-88.2728
-89.2703
-89.0019
-88.0584
-92.2575
-86.2404
-87.6572
-83.1113
-88.8027
-87.8088
-88.5914
-90.8455
-94.6443
-85.7647
-87.7877
-93.6571
-86.13
-89.9787
-87.0788
-89.731
-84.7933
-87.0417
-93.5665
-84.9183
-93.5693
-85.3047
-92.1658
-85.3984
-86.8676
-83.7171
-86.4998
-93.1775
-83.9965
-88.9039
-84.9847
-92.0474
-93.1949
-84.1776
-88.7278
-87.0232
-86.4423
-86.2768
-87.5443
-88.5457
-88.5876
-89.5908
-88.3457
-91.7533
-93.8209
-84.1898
-89.4243
-89.2204
-88.5106
-88.8281
-88.2902
-88.195
-88.2489
-90.3051
-88.438
-90.2575
-87.6891
-89.1493
-91.352
-87.846
-89.4834
-90.7166
-87.6018
-89.1536
-88.4901
-89.6012
-88.1775
-88.9486
-87.9741
-90.5592
-87.7408
-89.1662
-85.3808
-92.0994
-84.2175
-90.0099
-90.6838
-91.6564
-86.907
-88.8434
-88.2912
-88.7164
-89.0345
-88.4893
-90.3087
-86.5736
-82.4738
-89.4458
-84.7261
-91.1417
-87.0129
-88.5584
-90.7267
-82.6522
-92.4013
-87.038
-83.6758
-87.5145
-89.8916
-89.6724
-88.8275
-83.8822
-88.9764
-89.3258
-87.2642
-86.9578
-91.1661
-90.848
-87.6117
-88.5724
-91.1692
-84.0415
-90.7269
-86.9393
-89.6012
-84.3019
-93.7711
-92.4966
-90.4857
-88.8351
-88.363
-90.1753
-88.1571
-83.8458
-86.3661
-89.9927
-87.0463
-90.1357
-84.574
-91.1387
-90.0429
-81.2537
-89.027
-89.2235
-82.8555
-92.2622
-85.2634
-91.0928
-92.0669
-90.4244
-83.2947
-88.8867
-88.1348
-88.9981
-89.033
-89.8124
-83.9825
-87.869
-86.9934
-87.0481
-91.1171
-88.6811
-89.8432
-89.6675
-89.646
-88.0986
-88.8341
-88.2344
-89.1475
-90.9678
-87.4702
-88.0038
-87.2795
-89.1882
-90.6845
-87.483
-87.8133
-87.6053
-88.6847
-87.053
-87.1601
-87.8524
-88.0394
-88.8096
-88.1429
-91.637
-90.5576
-84.6734
-85.162
-91.8359
-80.9738
-89.9912
-89.3352
-87.1923
-88.1246
-92.2544
-82.7988
-90.7418
-89.6861
-83.5448
-87.7572
-87.4767
-89.1257
-82.5223
-91.194
-90.1058
-82.5837
-90.9521
-91.3996
-84.1814
-91.648
-90.8571
-84.2595
-87.416
-87.1378
-82.9061
-88.612
-88.9202
-86.8685
-86.9061
-87.5226
-81.9185
-86.7363
-83.5452
-81.7262
-90.7274
-87.0121
-93.1007
-87.8511
-83.9209
-91.0808
-88.936
-83.1771
-87.5434
-87.4932
-83.1245
-85.0027
-92.3284
-80.2321
-86.4218
-87.1634
-81.3076
-90.9134
-90.3741
-88.6061
-87.7579
-87.569
-86.3357
-82.1177
-88.6737
-87.7102
-87.9017
-88.6219
-83.3764
-90.4176
-87.4157
-88.3336
-87.1257
-88.2247
-88.7969
-86.3353
-83.6333
-87.8358
-89.6525
-87.3285
-87.8261
-88.5545
-86.8849
-87.9824
-83.4188
-87.7186
-90.0198
-87.1613
-88.1378
-86.9591
-83.7827
-91.839
-91.9114
-90.9699
-92.1509
-84.1248
-82.8021
-87.9345
-90.9023
-88.8989
-89.9433
-90.3362
-86.4125
-85.7975
-83.4971
-84.5907
-86.7464
-88.3599
-88.1953
-88.083
-86.0581
-90.602
-89.446
-84.2992
-86.4197
-86.3414
-90.2709
-86.8657
-82.2254
-89.5793
-88.443
-90.7561
-83.2122
-87.7506
-89.4687
-87.5965
-88.0051
-89.9113
-88.3457
-86.3598
-92.0909
-81.2782
-86.48
-88.7178
-86.9519
-87.6957
-91.8777
-89.6286
-88.7937
-85.6831
-91.4286
-87.6843
-88.8311
-90.3019
-90.81
-90.5684
-90.7864
-91.7867
-92.2546
-91.5464
-91.5522
-89.4916
-90.5143
-87.4404
-88.0785
-86.173
-85.1778
-81.7725
-91.9647
-91.7768
-91.0118
-87.8719
-88.8198
-88.6726
-86.9879
-89.0436
-90.4182
-86.5526
-88.1784
-89.7739
-87.4745
-87.5119
-87.3343
-87.8484
-86.7671
-87.7471
-87.5603
-84.2765
-89.4311
-86.6932
-88.1272
-83.0179
-92.3466
-88.2768
-87.1044
-86.7381
-84.5199
-88.6181
-87.1936
-82.8397
-85.8448
-88.1662
-85.3011
-85.621
-92.2697
-92.6009
-87.6375
-87.631
-90.1327
-91.7451
-82.7408
-87.6163
-86.8334
-87.6834
-87.6971
-87.8934
-88.2757
-85.9222
-83.6533
-91.6392
-87.6689
-85.4137
-85.8607
-87.5226
-88.576
-84.6405
-88.5859
-87.1908
-87.427
-91.7781
-85.5363
-83.9274
-87.8448
-87.2822
-86.8946
-83.738
-91.0615
-87.6493
-87.364
-87.5538
-82.8433
-87.8565
-87.6868
-84.0457
-87.7583
-85.7977
-89.287
-91.0611
-87.131
-90.3253
-89.0513
-87.0659
-87.083
-87.7705
-83.8203
-89.5141
-89.9057
-87.352
-83.3042
-86.309
-88.0738
-88.2268
-87.0778
-83.609
-87.2029
-90.7424
-89.3102
-87.4031
-92.2233
-85.3622
-90.772
-82.8666
-85.3427
-91.0724
-83.0223
-90.6982
-87.5979
-88.5653
-87.4606
-92.7103
-85.9665
-88.5528
-91.6422
-91.6396
-84.5616
-91.1684
-91.8495
-81.1677
-89.1825
-87.1657
-82.985
-90.3884
-87.1063
-87.4043
-87.4227
-88.2935
-87.9298
-87.3249
-87.1901
-82.7786
-90.0811
-88.7328
-88.4095
-88.7578
-87.8452
-87.0071
-86.3296
-90.6842
-82.2115
-86.7503
-87.6682
-82.6823
-90.6247
-91.9377
-89.1008
-91.0849
-91.6638
-86.616
-88.4117
-89.4114
-91.0664
-86.8665
-89.7837
-85.862
-83.304
-90.5585
-86.244
-90.7285
-92.45
-91.6789
-83.2323
-90.7836
-89.11
-86.5519
-87.3058
-87.7574
-87.1878
-83.3125
-91.6604
-83.4125
-91.5778
-87.8115
-85.885
-86.0813
-88.4745
-89.7407
-91.8993
-88.4025
-92.7035
-90.5312
-90.6144
-83.415
-90.5202
-89.9062
-90.881
-86.9997
-86.5367
-82.43
-88.1246
-92.548
-91.3216
-83.4884
-86.0109
-84.0038
-86.974
-88.2408
-85.7336
-94.4009
-87.4684
-85.9512
-83.7035
-89.3232
-86.6612
-82.2514
-88.39
-87.2191
-87.1747
-87.3224
-87.3629
-83.7699
-85.6614
-83.0088
-87.4723
-90.7825
-89.3295
-91.3465
-90.9503
-86.7619
-86.2077
-82.9985
-86.7678
-90.3652
-91.3347
-90.4953
-90.2707
-85.3816
-82.6915
-86.01
-82.2203
-90.1448
-90.4374
-86.2941
-90.4993
-90.3562
-91.0964
-89.615
-88.5883
-88.4848
-86.7572
-82.5305
-86.2303
-83.4243
-86.1534
-87.323
-87.0546
-84.1814
-83.229
-89.6883
-92.4822
-92.5063
-91.7156
-88.428
-89.4555
-89.3957
-88.3862
-87.3816
-88.2349
-86.4292
-87.8485
-87.8669
-83.1852
-90.5992
-87.75
-86.0601
-84.1545
-87.4224
-88.334
-88.3008
-87.1072
-84.1902
-91.6197
-89.102
-87.2282
-92.1294
-86.4548
-83.0074
-89.9548
-87.9861
-87.8953
-87.8473
-87.0658
-82.0095
-88.6513
-87.8076
-83.4595
-92.0368
-87.6131
-80.5233
-87.3033
-88.1932
-88.3768
-87.021
-83.3394
-86.7957
-86.9385
-85.0512
-87.9213
-82.8699
-88.1288
-87.9857
-84.7457
-92.529
-87.7689
-84.072
-93.4009
-88.1825
-88.2158
-84.0796
-87.9469
-83.4577
)
;
    }
}


// ************************************************************************* //
