/*--------------------------------*- C++ -*----------------------------------*\
| =========                 |                                                 |
| \\      /  F ield         | OpenFOAM: The Open Source CFD Toolbox           |
|  \\    /   O peration     | Version:  v1906                                 |
|   \\  /    A nd           | Web:      www.OpenFOAM.com                      |
|    \\/     M anipulation  |                                                 |
\*---------------------------------------------------------------------------*/
FoamFile
{
    version     2.0;
    format      ascii;
    class       volScalarField;
    location    "0.14/oil";
    object      wallHeatFlux;
}
// * * * * * * * * * * * * * * * * * * * * * * * * * * * * * * * * * * * * * //

dimensions      [1 0 -3 0 0 0 0];


internalField   uniform 0;

boundaryField
{
    maxY
    {
        type            calculated;
        value           uniform 0;
    }
    minX
    {
        type            calculated;
        value           uniform 0;
    }
    maxX
    {
        type            calculated;
        value           uniform 0;
    }
    minY
    {
        type            calculated;
        value           uniform 0;
    }
    minZ
    {
        type            calculated;
        value           uniform 0;
    }
    maxZ
    {
        type            calculated;
        value           uniform 0;
    }
    oil_to_sphere
    {
        type            calculated;
        value           nonuniform List<scalar> 
1536
(
800751
678110
659200
882439
1.07997e+06
971369
875736
866595
733864
418841
1.09198e+06
431233
464971
453557
983811
1.10077e+06
852697
737885
226447
463684
481677
1.00159e+06
874963
1.10138e+06
1.1117e+06
1.09845e+06
1.09746e+06
1.10137e+06
691466
737965
624215
692778
723834
1.09166e+06
1.09551e+06
1.08723e+06
1.05684e+06
1.03675e+06
1.07795e+06
1.04941e+06
1.07482e+06
1.0964e+06
744981
487603
723986
482370
865832
883481
1.00436e+06
879627
975752
857560
869174
873228
645382
690284
964543
888328
736175
459322
476467
477123
479402
209488
204838
495706
721939
450108
847668
708282
1.09705e+06
1.021e+06
913251
1.09577e+06
1.10174e+06
806843
686371
884153
1.10203e+06
720493
464098
500334
422039
440166
447194
434885
367523
851295
719075
476665
466249
229751
225094
215481
205950
492550
717908
443803
457277
836449
705716
1.10094e+06
754923
674187
997565
1.09718e+06
1.10483e+06
899476
995836
789245
716649
681022
457021
507156
394663
366516
376856
455508
396984
446784
696114
463258
234236
471029
819716
733046
840769
710913
890302
1.0267e+06
863755
993471
860436
1.0013e+06
846845
1.00524e+06
849340
708426
850601
890890
475370
477245
868462
724797
462576
720375
902502
640341
614633
839225
927321
658691
987074
973014
966779
638473
942065
609819
887960
617057
767924
641354
1.05036e+06
1.07428e+06
1.08179e+06
1.0557e+06
988743
589597
927316
603474
761101
764719
702235
699477
783258
693146
841251
674714
698319
823738
1.05169e+06
1.06811e+06
1.06129e+06
1.07319e+06
730418
878843
666717
713876
777203
727960
755987
862903
666746
770740
1.11523e+06
1.01062e+06
750206
838992
726938
976782
941824
962498
730756
618333
611278
639490
673201
678265
777572
633486
779669
672792
692068
400758
433434
415032
389659
479827
448933
344481
543857
553637
611944
515052
526054
649575
935231
631864
896471
1.063e+06
1.11329e+06
1.01257e+06
1.00797e+06
704803
598656
760363
606337
642228
617850
699127
637144
251237
299712
474683
380036
602550
625551
431851
437855
415857
619897
994007
988656
951026
655118
1.06072e+06
1.07288e+06
800538
677436
681310
795699
615714
674344
306376
255630
244225
283677
302014
538546
544474
614412
571895
556894
623025
612838
448057
406649
389932
610541
655126
865975
774623
670569
631603
712603
783075
765242
1.0062e+06
909128
709034
846707
637807
916587
602321
584736
656295
686170
614235
711410
749015
867917
746329
672794
644234
584071
798332
606819
1.0671e+06
1.06239e+06
649178
855006
595076
649765
699537
640266
644111
764507
707277
701868
598443
649296
632744
678721
775675
536291
603594
614509
553428
604209
439564
609047
591332
769249
648677
635828
688340
588233
604780
591872
417995
389247
540931
546425
587093
557807
566375
604311
622605
636355
699160
770641
816109
629093
825632
660686
732713
726879
692566
982084
651279
834268
746084
665720
984501
743786
763647
961431
891934
956453
714423
665736
873576
743428
713109
975361
722884
846357
957487
728253
634637
878933
699991
808008
679989
739511
975122
730189
656318
860362
749953
784906
686223
658851
705850
756000
721887
859840
640694
797828
687868
971593
756780
614355
828711
793535
688884
863754
682989
758176
709830
724589
653816
672269
715130
678474
618056
673214
607394
788335
683340
703948
690738
564260
574497
635835
591301
567014
615322
437946
444985
702917
614763
628405
628440
603570
610821
595186
425035
422794
436919
551887
574378
608476
538122
572727
717993
677325
778867
814616
689460
695672
658757
579160
275644
278410
258601
271972
319476
309385
272524
245150
293447
219046
285102
544874
548402
599154
576794
619645
710214
646274
653095
620051
424428
791395
644541
705026
583347
715948
604766
560556
590781
639547
428752
627925
771884
654817
767550
591732
780669
591160
842023
1.08907e+06
1.06379e+06
1.08083e+06
990836
995987
932391
1.06857e+06
1.05376e+06
834834
623422
1.08745e+06
1.04905e+06
657692
605503
859434
1.05012e+06
928186
681459
952772
990469
1.076e+06
1.05562e+06
945890
598347
557076
581613
603272
561757
812217
672294
627284
681544
641341
442927
437016
474533
375468
494439
392558
476097
432231
516463
432623
472114
616612
709160
646301
620695
563532
598733
614242
524130
775812
697214
645586
794148
676580
620237
613766
430690
459083
626600
266293
296642
275963
301794
316909
302962
300567
246482
281918
286811
265275
315002
313681
281651
307521
278547
226455
280769
296983
278256
299124
286694
243453
629935
437748
398469
792194
650359
625710
599158
578146
600220
587741
541018
689151
594980
620604
637874
648015
642573
454138
425641
780750
670774
595687
767909
566577
533609
604369
488931
701496
729507
572103
622423
567840
657172
862238
562869
1.05222e+06
1.07996e+06
650219
717174
796906
922757
1.05241e+06
793919
977794
1.06128e+06
1.0525e+06
1.06977e+06
987558
1.0541e+06
1.07558e+06
683264
670537
872046
639448
817518
659798
623993
655134
991597
1.07754e+06
913445
702273
1.05394e+06
701177
965379
933202
615608
983536
656808
643658
479412
386445
428084
720610
636072
637446
620363
562385
608566
589155
578241
629231
577230
555027
425317
438593
404378
480582
473244
379330
453856
449109
348208
456037
518176
484804
420837
392438
799626
671383
631344
606495
683403
607416
620023
435642
422245
629507
716890
712383
751761
578057
622743
572204
702390
577017
561380
610650
504818
531678
306924
307919
284683
265984
280233
286364
315785
261524
296497
645778
638216
679962
716890
646285
692914
708242
597114
603652
428262
611527
631418
614748
703152
622560
645745
692347
784324
764276
601677
564545
603667
531111
618880
595263
659647
615894
776848
773060
607031
658666
602904
682913
615400
687856
694822
737356
650339
738529
783942
606085
742290
984720
918181
705011
923233
692526
814933
782074
697951
709843
833746
970295
687804
849691
746451
683078
968487
898033
741020
853640
929801
693935
676257
877836
777510
687158
867558
965264
900689
917089
880750
658806
769291
672714
741824
685370
726881
671758
850689
985872
642888
858363
794714
756467
756189
736688
951586
955689
716077
651528
942652
740520
769754
835752
684499
830554
701020
741211
729830
651864
974305
891465
907185
697261
750886
686646
863902
794187
675823
741787
663075
650848
609902
725919
653626
748209
556440
578093
619807
573507
609744
622069
436418
440990
639872
612213
728847
655142
620481
659090
804475
817793
681743
667866
621453
653616
595496
639144
440347
404867
640595
540117
560363
633438
563975
565296
688056
606734
775252
669066
664034
672645
671468
591113
708936
611587
670546
813940
774910
786960
404097
594823
377897
424578
556303
957712
681941
587025
757719
1.01393e+06
759516
837017
430975
316827
908120
779174
883193
426222
293669
468452
568433
830692
1.0062e+06
486861
789190
878075
815310
1.06196e+06
653349
981495
856224
780717
769215
1.0043e+06
789416
762253
959484
819564
998420
850722
909691
772180
769481
959538
710554
1.08608e+06
673262
1.02046e+06
807743
891960
816790
809848
948743
755040
1.06892e+06
678077
775668
976277
720792
1.05543e+06
1.04546e+06
1.04859e+06
840628
848757
1.03027e+06
976337
1.02021e+06
680155
802485
956431
738371
870050
428540
446882
790658
570058
801214
449287
530536
989591
796024
879594
697765
833555
1.01141e+06
665386
828512
858011
831335
682805
836831
576753
817906
445825
566918
451321
442985
297064
425569
303823
303942
432904
358277
288082
475104
839935
624905
828288
704644
790217
1.09146e+06
618618
996358
699113
775040
778908
664897
974966
695105
694699
932607
604758
835822
862795
595696
567413
403102
411375
798740
602281
309797
308344
300301
458168
297486
400009
271841
365154
285090
379804
268682
400757
821481
594902
850145
399560
398550
610145
566618
697257
804798
683958
1.08781e+06
656872
631452
957912
651879
785227
1.006e+06
698211
1.08675e+06
637674
669919
636598
933492
817256
802770
849687
603736
414832
557595
416492
792785
572284
280597
299162
276951
468802
688967
790214
539403
793587
999027
661721
801905
825194
846020
872371
704256
837710
862087
845407
580524
769252
574589
824569
944084
1.01952e+06
1.05455e+06
813128
738153
989852
1.1374e+06
594154
1.01633e+06
861804
715666
906288
1.06378e+06
659930
949850
811756
669163
1.08599e+06
910353
1.04897e+06
655752
957656
852223
671887
1.06533e+06
833187
694857
1.0673e+06
877879
725142
1.01238e+06
1.06634e+06
918997
1.00148e+06
935040
1.04603e+06
1.0196e+06
1.00089e+06
630315
998486
1.10658e+06
646830
982747
899419
1.06332e+06
795986
683750
1.08795e+06
867319
733857
1.00129e+06
1.07155e+06
940832
973103
978956
677743
972129
1.10264e+06
658487
962022
908737
899337
1.05681e+06
961613
1.02274e+06
999369
1.04087e+06
653319
625772
674753
614046
944850
669694
737514
896530
939992
941445
945710
922698
785508
739354
665156
660911
737107
715650
671861
727342
564382
440871
405200
646003
1.0594e+06
916999
991676
629197
601200
846483
664391
1.08787e+06
888799
649226
620355
656816
444977
421361
495689
470247
364948
288729
622211
653766
624219
686183
578189
850780
679223
983228
1.05059e+06
753693
814206
489930
367347
300644
318094
458979
589772
397103
405279
594951
578468
532311
547439
637843
587956
1.02509e+06
670685
635417
775001
949919
860317
656699
681794
747435
632389
730398
624591
452216
837922
780197
794466
775871
858226
853242
855954
618706
921939
1.04684e+06
968186
1.03066e+06
1.02511e+06
1.01816e+06
780439
428449
480913
724949
675751
700315
591382
567191
560234
699605
678151
653812
612041
695401
630869
655490
643845
691870
621549
818915
599381
655863
715154
630615
386344
619877
583167
737516
784463
644275
573936
551697
423784
541004
702041
675254
629879
612098
629119
696105
659498
811711
958725
638056
725882
922138
921997
941729
912318
944893
995474
655446
770219
953556
941939
905964
908259
923117
697060
735960
940667
830263
953558
922614
774891
760936
959607
1.01597e+06
686044
784306
877705
869117
948546
765913
941926
947575
766318
727511
776589
630624
646972
550374
563034
732068
611417
617497
589805
419757
402496
588467
819999
632087
627482
628337
578878
547941
438569
621417
647080
550190
449323
486298
282912
400863
478791
288217
390004
319880
283991
465287
522708
294047
395054
315874
257856
277341
457810
434785
784168
628010
430952
550719
839637
636741
637761
623174
667393
618866
688669
585656
748029
801876
602727
719827
571679
644622
652124
737367
1.11326e+06
583478
1.069e+06
995554
684969
1.00368e+06
908032
816750
651231
885254
687667
1.04803e+06
649923
936484
901678
1.06278e+06
919018
1.02133e+06
1.03235e+06
624531
1.02843e+06
858119
770600
794052
608516
426312
403732
758477
630013
632890
593112
837701
600899
594932
425095
747065
587250
284637
267287
320426
298851
324286
294090
284455
439274
288284
346491
437860
426147
492569
489728
402124
296060
272033
266216
448163
434011
310442
507925
469723
365999
799697
591977
756070
595777
404715
583441
877505
614704
669775
654916
655907
757300
569556
653051
806286
722642
690145
909834
900882
917780
1.07426e+06
1.10955e+06
1.01216e+06
1.03392e+06
671263
817122
662847
916318
1.0147e+06
964026
1.13198e+06
1.0325e+06
900200
912347
1.04826e+06
864618
727510
818404
683620
637539
634036
599163
879109
649449
602503
425977
742421
588636
836602
566975
332221
311120
287898
450471
568286
739333
599918
729097
678698
733167
574566
657838
671655
814035
597696
682511
734756
547992
605751
655597
673957
741218
829748
645540
714095
699662
822397
942117
963849
587479
802291
935081
928115
942848
923981
659529
938925
973957
693778
939524
1.01523e+06
744408
926479
940041
959662
970577
800543
940963
962575
933290
945238
542670
697159
607904
415808
580332
811703
636817
760425
580259
536498
739323
837731
)
;
    }
}


// ************************************************************************* //
