/*--------------------------------*- C++ -*----------------------------------*\
| =========                 |                                                 |
| \\      /  F ield         | OpenFOAM: The Open Source CFD Toolbox           |
|  \\    /   O peration     | Version:  v1912                                 |
|   \\  /    A nd           | Website:  www.openfoam.com                      |
|    \\/     M anipulation  |                                                 |
\*---------------------------------------------------------------------------*/
FoamFile
{
    version     2.0;
    format      ascii;
    class       volScalarField;
    location    "13.5/oil";
    object      heatTransferCoeff(T);
}
// * * * * * * * * * * * * * * * * * * * * * * * * * * * * * * * * * * * * * //

dimensions      [1 0 -3 -1 0 0 0];


internalField   uniform 0;

boundaryField
{
    maxY
    {
        type            calculated;
        value           uniform 0;
    }
    minX
    {
        type            calculated;
        value           uniform 0;
    }
    maxX
    {
        type            calculated;
        value           uniform 0;
    }
    minY
    {
        type            calculated;
        value           uniform 0;
    }
    minZ
    {
        type            calculated;
        value           uniform 0;
    }
    maxZ
    {
        type            calculated;
        value           uniform 0;
    }
    oil_to_sphere
    {
        type            calculated;
        value           nonuniform List<scalar> 
1536
(
-158.488
-158.379
-158.617
-157.955
-157.481
-158.182
-158.244
-158.012
-157.909
-157.721
-157.874
-157.622
-157.874
-157.917
-157.349
-158.1
-158.287
-158.63
-158.072
-157.916
-158.096
-157.832
-157.97
-158.109
-158.198
-158.122
-158.035
-158.06
-158.82
-159.259
-158.367
-158.193
-158.285
-158.941
-158.007
-158.436
-158.176
-158.209
-158.242
-158.937
-158.3
-158.364
-157.944
-158.018
-157.942
-157.825
-157.438
-157.727
-157.92
-157.452
-157.909
-157.858
-157.259
-157.977
-157.781
-157.934
-157.949
-158.146
-158.005
-158.258
-158.024
-157.876
-158.068
-158.803
-158.338
-158.616
-157.526
-157.502
-157.087
-158.104
-158.177
-158.104
-157.951
-158.008
-158.572
-158.1
-157.91
-158.287
-158.865
-158.527
-157.929
-158.136
-158.465
-158.831
-158.353
-158.591
-157.872
-157.91
-158.017
-158.191
-157.987
-158.037
-157.832
-158.127
-157.988
-158.116
-158.113
-157.964
-157.879
-157.866
-157.694
-157.629
-158.506
-158.495
-158.43
-158.08
-157.885
-158.194
-158.001
-158.246
-158.008
-157.693
-157.618
-158.658
-158.663
-158.605
-158.316
-158.048
-158.144
-158.056
-157.41
-158.218
-158.177
-158.632
-158.356
-158.192
-158.111
-158.25
-158.742
-158.098
-158.263
-157.58
-157.497
-157.567
-158.476
-158.408
-158.629
-158.092
-157.873
-158.071
-158.014
-158.286
-157.932
-158.021
-157.963
-158.107
-157.887
-158.084
-158.46
-158.439
-157.571
-158.123
-157.622
-158.735
-158.335
-158.262
-157.986
-158.151
-157.97
-157.427
-158.026
-158.409
-158.695
-158.151
-158.111
-158.101
-158.008
-157.479
-157.62
-158.054
-158.237
-158.92
-158.3
-158.078
-157.851
-158.158
-157.62
-157.663
-158.055
-157.805
-158.628
-158.632
-158.473
-158.039
-157.962
-158.014
-158.118
-157.945
-158.204
-158.37
-158.326
-158.601
-157.82
-157.84
-158.06
-158.38
-157.942
-158.025
-158.528
-158.346
-158.611
-157.673
-157.69
-157.951
-158.351
-157.808
-157.952
-158.159
-158.091
-157.772
-158.779
-158.955
-158.742
-157.797
-158.039
-157.855
-157.815
-158.267
-157.861
-158.027
-158.055
-157.889
-157.947
-157.824
-158.048
-157.917
-158.124
-157.675
-158.638
-159.107
-160.452
-159.863
-159.897
-158.638
-158.928
-158.013
-158.256
-158.951
-160.256
-158.33
-157.815
-160.47
-158.425
-159.225
-158.566
-157.876
-159.276
-158.552
-159.907
-158.287
-157.58
-158.443
-159.277
-159.387
-158.376
-157.895
-158.392
-159.2
-159.782
-159.943
-159.06
-160.573
-158.917
-158.244
-160.936
-157.164
-157.293
-159.546
-159.205
-158.87
-157.921
-157.774
-157.434
-158.165
-157.968
-158.657
-158.781
-159.433
-158.679
-157.924
-158.24
-159.57
-159.723
-158.365
-158.281
-158.361
-158.296
-157.627
-157.074
-157.192
-158.32
-158.343
-158.496
-158.689
-157.552
-157.133
-157.168
-157.196
-158.323
-158.998
-158.233
-158.667
-157.748
-159.232
-158.654
-160.13
-159.825
-161.126
-158.487
-157.342
-157.135
-161.178
-160.122
-158.797
-157.298
-157.246
-159.904
-158.589
-159.811
-159.47
-158.741
-160.639
-158.185
-158.217
-158.261
-158.356
-158.915
-158.282
-158.756
-158.444
-157.212
-158.68
-158.348
-158.482
-157.749
-157.716
-158.636
-158.529
-159.154
-157.777
-158.123
-158.091
-158.137
-158.963
-158.665
-158.231
-158.112
-158.352
-158.781
-157.305
-159.018
-158.588
-159.872
-157.679
-158.063
-158.209
-158.068
-158.98
-158.926
-158.809
-157.09
-158.721
-159.048
-160.257
-157.935
-157.843
-158.051
-158.592
-158.613
-158.133
-158.043
-158.259
-158.405
-157.502
-157.495
-159.035
-159.358
-158.748
-158.742
-159.025
-158.724
-158.05
-158.074
-158.042
-158.442
-157.665
-158.49
-159.387
-159.36
-158.582
-158.95
-158.29
-158.586
-158.203
-158.323
-157.261
-157.715
-157.681
-159.351
-160.174
-158.359
-158.049
-158.677
-157.534
-158.442
-160.086
-159.282
-160.658
-158.202
-158.27
-157.746
-157.857
-158.253
-157.979
-158.437
-158.777
-160.156
-157.93
-157.938
-157.309
-157.302
-157.938
-159.237
-159.034
-158.745
-158.009
-158.129
-158.92
-158.262
-161.105
-157.97
-157.163
-158.058
-159.1
-159.089
-158.813
-158.177
-158.525
-158.427
-158.577
-157.223
-157.503
-157.881
-158.668
-158.44
-159.881
-158.12
-158.112
-158.781
-159.123
-158.512
-159.274
-158.473
-158.5
-157.334
-158.303
-158.089
-158.491
-157.53
-157.88
-158.595
-158.833
-160.696
-158.07
-158.06
-158.088
-158.29
-158.202
-158.692
-158.363
-157.857
-157.497
-157.77
-157.575
-157.736
-158.877
-158.862
-158.534
-159.008
-158.602
-161.212
-157.248
-157.255
-159.876
-158.773
-159.611
-159.612
-158.536
-160.697
-158.071
-158.247
-158.307
-157.953
-158.17
-158.495
-157.916
-158.126
-158.462
-158.487
-158.91
-158.211
-158.163
-158.221
-158.39
-157.485
-158.619
-159.39
-158.543
-158.11
-157.663
-158.047
-158.18
-158.691
-158.653
-158.346
-158.662
-158.387
-158.509
-157.149
-157.842
-157.436
-158.763
-159.659
-158.965
-158.067
-157.977
-158.405
-158.123
-158.182
-159.031
-159.575
-159.437
-158.205
-157.514
-158.057
-157.931
-158.113
-158.267
-158.666
-157.46
-158.554
-158.428
-158.13
-157.887
-157.486
-158.59
-158.627
-160.383
-158.238
-158.031
-158.673
-158.653
-158.024
-158.341
-158.288
-158.273
-157.536
-158.435
-158.079
-157.864
-158.073
-158.749
-158.816
-157.623
-157.763
-157.567
-157.643
-158.828
-158.977
-158.948
-158.989
-158.891
-158.138
-158.223
-158.21
-158.421
-157.487
-158.983
-159.217
-159.259
-158.005
-157.606
-158.092
-158.035
-159.024
-158.722
-158.078
-158.565
-158.208
-158.312
-157.036
-158.088
-157.907
-158.059
-158.068
-157.754
-158.662
-159.448
-159.26
-158.187
-157.931
-158.075
-157.941
-157.853
-158.179
-159.352
-158.766
-158.834
-157.681
-158.095
-158.011
-158.115
-157.934
-158.152
-158.177
-158.62
-158.712
-157.884
-157.958
-158.082
-158.242
-157.613
-157.934
-157.489
-159.23
-158.993
-158.605
-158.24
-158.042
-158.194
-157.747
-158.736
-159.314
-159.575
-158.133
-158.039
-158.743
-158.893
-158.062
-158.113
-158.593
-158.274
-157.421
-157.826
-157.419
-158.657
-158.544
-160.559
-158.222
-158.129
-158.805
-159.893
-158.544
-158.607
-158.085
-158.355
-157.065
-157.993
-158.183
-158.161
-158.066
-158.336
-158.341
-158.293
-158.667
-157.854
-157.544
-157.34
-157.457
-158.316
-158.805
-158.421
-159.073
-157.336
-158.711
-158.615
-158.02
-158.393
-158.487
-158.223
-157.492
-157.881
-157.461
-158.753
-160.282
-158.595
-158.032
-158.067
-158.535
-158.421
-158.273
-158.422
-158.405
-158.373
-158.153
-158.363
-158.295
-157.483
-158.398
-158.368
-158.336
-158.403
-158.327
-158.064
-157.901
-158.209
-158.149
-157.404
-158.119
-159.584
-158.887
-159.81
-158.048
-158.118
-157.817
-158.556
-158.006
-158.766
-158.635
-158.294
-158.561
-158.412
-158.094
-157.25
-157.94
-157.518
-159.118
-158.752
-158.606
-158.088
-158.078
-158.563
-158.609
-158.349
-158.068
-158
-158.521
-157.434
-157.979
-158.221
-158.306
-158.208
-157.608
-159.583
-160.235
-158.945
-158.194
-158.172
-158.559
-158.759
-158.185
-158.041
-158.299
-158.458
-157.318
-158.307
-158.107
-158.319
-157.923
-157.719
-157.816
-157.715
-158.503
-158.913
-158.883
-159.481
-158.428
-160.691
-159.687
-159.836
-158.605
-157.364
-157.312
-159.483
-159.764
-158.655
-158.96
-158.201
-160.411
-157.461
-158.059
-158.956
-158.077
-158.123
-157.608
-159.331
-158.342
-159.211
-158.893
-158.96
-158.13
-158.967
-158.654
-158.344
-157.571
-158.965
-158.876
-158.161
-158.499
-158.578
-158.524
-157.322
-157.948
-157.802
-157.812
-157.959
-157.519
-158.868
-160.372
-158.54
-158.139
-157.999
-157.991
-157.353
-158.783
-160.184
-159.018
-158.106
-158.138
-157.715
-157.393
-157.893
-157.887
-158.416
-158.24
-158.571
-158.104
-157.815
-157.067
-157.763
-157.534
-159.218
-159.05
-158.67
-157.965
-158.774
-158.435
-157.215
-157.461
-158.025
-159.858
-158.647
-158.66
-158.183
-158.017
-158.171
-157.444
-159.665
-159.005
-158.68
-158.04
-157.955
-160.832
-160.264
-158.627
-159.265
-159.962
-158.345
-157.203
-157.273
-159.933
-159.752
-158.809
-158.078
-157.463
-157.921
-157.994
-158.379
-158.405
-158.064
-158.638
-157.442
-157.317
-157.086
-158.178
-157.823
-159.652
-158.534
-159.859
-158.218
-157.726
-159.913
-158.692
-159.336
-157.955
-157.959
-157.335
-160.09
-158.519
-159.945
-157.216
-157.063
-160.627
-158.69
-159.279
-160.924
-159.227
-159.291
-158.971
-159.117
-158.486
-157.828
-159.41
-158.848
-158.84
-158.104
-158.081
-157.987
-157.102
-158.501
-158.293
-158.225
-158.57
-157.68
-157.107
-157.94
-157.949
-157.324
-158.37
-157.718
-159.448
-158.466
-159.358
-158.233
-158.356
-158.1
-158.665
-158.623
-158.202
-158.562
-158.129
-158.207
-157.293
-157.566
-158.155
-160.024
-158.648
-159.096
-158.142
-158.058
-158.019
-157.598
-159.475
-158.467
-158.705
-158.195
-157.998
-157.332
-158.878
-158.538
-159.311
-158.88
-158.631
-159.16
-158.014
-157.898
-158.173
-157.772
-157.982
-157.75
-158.565
-158.217
-158.11
-158.275
-158.148
-157.86
-157.023
-158.961
-158.834
-158.187
-158.043
-158.691
-158.545
-157.263
-159.161
-158.894
-158.153
-158.046
-158.532
-158.588
-157.172
-157.441
-157.83
-160.013
-158.737
-158.515
-158.032
-157.988
-157.412
-158.216
-159.988
-160.227
-159.022
-158.067
-158.231
-159.142
-159.712
-158.44
-159.182
-159.934
-158.289
-157.417
-157.523
-159.21
-159.271
-158.421
-157.39
-157.996
-158.55
-158.095
-158.381
-157.817
-159.454
-158.375
-159.333
-159.089
-158.273
-162.372
-157.327
-157.39
-158.756
-158.849
-159.911
-159.399
-158.71
-159.026
-157.964
-157.236
-158.009
-159.265
-158.294
-157.818
-158.422
-159.158
-158.991
-160.799
-158.644
-159.725
-157.81
-157.349
-158.436
-159.012
-159.658
-158.136
-158.046
-158.207
-157.324
-159.485
-159.758
-159.218
-158.118
-157.856
-158.865
-159.778
-158.565
-158.685
-158.709
-158.308
-157.005
-159.218
-158.381
-158.227
-158.992
-158.367
-158.388
-156.874
-158.031
-158.108
-158.531
-159.074
-158.481
-158.688
-158.676
-158.896
-158.784
-157.335
-158.213
-158.047
-157.952
-156.898
-158.065
-158.469
-158.119
-158.366
-158.077
-158.425
-157.894
-157.898
-157.493
-158.585
-159.35
-158.545
-158.041
-158.063
-158.896
-158.995
-158.434
-157.88
-158.69
-158.568
-157.053
-157.562
-157.549
-159.025
-159.167
-158.504
-158.092
-158.358
-158.457
-157.3
-159.67
-158.849
-159.906
-157.317
-157.245
-160.012
-158.447
-159.734
-159.331
-159.862
-158.703
-159.237
-158.831
-159.005
-156.98
-159.021
-159.629
-158.934
-157.955
-157.789
-157.745
-157.179
-158.592
-158.348
-158.4
-158.904
-157.696
-157.039
-157.946
-157.909
-157.387
-158.412
-157.772
-159.539
-158.474
-159.288
-157.281
-157.377
-158.594
-160.134
-159.497
-160.6
-158.574
-159.964
-159.018
-158.467
-160.367
-157.905
-158.109
-157.869
-157.874
-159.424
-158.759
-159.673
-159.052
-159.025
-160.099
-156.887
-158.041
-157.196
-157.146
-158.347
-158.789
-158.344
-158.124
-157.577
-158.425
-157.866
-158.393
-159.256
-159.506
-158.296
-157.787
-158.422
-159.495
-160.648
-158.275
-157.665
-158.648
-160.259
-158.346
-158.22
-157.92
-159.184
-159.497
-158.854
-158.922
-158.949
-158.653
-156.96
-157.98
-158.528
-158.374
-158.641
-158.211
-158.13
-158.657
-158.649
-158.368
-157.71
-157.931
-157.762
-159.084
-158.808
-158.74
-157.344
-158.664
-158.581
-158.757
-158.178
-157.913
-157.91
-157.11
-158.02
-157.787
-158.395
-158.205
-158.212
-158.43
-157.908
-157.479
-158.034
-158.61
-158.911
-159.569
-158.046
-158.039
-157.443
-158.038
-158.529
-159.012
-159.737
-158.135
-158.086
-157.731
-157.647
-158.656
-159.001
-158.018
-157.853
-158.434
-158.606
-157.262
-158.852
-158.981
-158.528
-157.958
-158.287
-158.165
-157.367
-157.338
-157.26
-160.54
-158.543
-159.964
-159.422
-159.795
-158.713
-158.501
-157.771
-158.23
-159.419
-159.262
-159.496
-160.127
-159.092
-158.135
-158.11
-158.113
-158.229
-157.911
-158.198
-158.05
-158.07
-158.281
-157.43
-157.987
-159.385
-158.682
-159.142
-157.916
-158.144
-157.985
-158.345
-157.837
-159.22
-158.834
-158.127
-158.305
-158.149
-158.526
-157.209
-159.661
-160.191
-159.633
-158.157
-157.441
-158.144
-158.065
-158.583
-159.227
-158.33
-158.175
-158.239
-158.201
-157.385
-158.535
-158.318
-158.26
-158.655
-159.621
-158.495
-158.126
-157.746
-158.112
-158.217
-158.304
-158.655
-158.634
-157.399
-158.332
-158.52
-158.02
-158.521
-158.513
-158.241
-157.692
-157.665
-157.615
-157.706
-158.856
-158.838
-158.687
-158.045
-158.588
-157.963
-157.424
-157.984
-159.413
-158.787
-158.907
-157.816
-158.135
-158.953
-158.964
-158.458
-158.08
-158.246
-158.278
-157.262
-159.638
-158.684
-158.861
-158.145
-157.686
-158.064
-158.026
-158.217
-158.313
-158.161
-158.344
-158.962
-157.748
-157.464
-158.038
-158.156
-158.347
-159.265
-158.625
-158.301
-158.369
-158.49
-157.076
-157.958
-158.458
-159.568
-158.793
-158.765
-158.122
-157.933
-157.983
-158.018
-158.468
-157.177
-158.625
-158.868
-158.155
-159.961
-159.058
-158.922
-157.757
-158.15
-158.211
-158.157
-159.135
-158.578
-158.056
-159.087
-158.655
-158.84
-157.911
-157.932
-157.96
-158.188
-158.831
-159.398
-158.723
-158.059
-157.569
-158.105
-157.952
-158.606
-158.911
-158.114
-158.168
-158.603
-158.756
-157.333
-158.132
-157.454
-158.229
-158.14
-158.051
-158.067
-158.726
-157.887
-157.445
-157.475
-158.194
-158.901
-159.241
-159.955
-158.22
-158.291
-158.356
-158.285
-158.156
-158.506
-158.764
-157.941
-158.098
-158.145
-158.183
-157.426
-158.684
-158.639
-158.977
-157.549
-158.006
-157.981
-157.948
-158.062
-158.283
-158.26
-157.418
-158.679
-158.636
-158.362
-157.942
-158.147
-158.478
-158.326
-158.142
-158.019
-158.251
-158.078
-157.898
-158.548
-158.357
-158.049
-158.47
-158.135
-158.658
-157.249
-157.31
-158.043
-159.645
-159.138
-158.872
-158.078
-158.014
-158.858
-158.528
-158.207
-158.015
-158.16
-158.326
-157.559
-160.456
-158.829
-158.522
-157.416
-158.029
-158.137
-158.082
-158.347
-158.13
-157.908
-157.41
-158.052
-158.506
-158.9
-160.308
-158.222
-158.087
-158.781
-158.575
-158.23
-157.881
-158.235
-158.354
-157.321
-158.571
-158.851
-159.425
-157.489
-158.043
-158.103
-158.071
-158.148
-158.549
-158.496
-157.285
-159.127
-158.698
-158.458
)
;
    }
}


// ************************************************************************* //
