/*--------------------------------*- C++ -*----------------------------------*\
| =========                 |                                                 |
| \\      /  F ield         | OpenFOAM: The Open Source CFD Toolbox           |
|  \\    /   O peration     | Version:  v1912                                 |
|   \\  /    A nd           | Website:  www.openfoam.com                      |
|    \\/     M anipulation  |                                                 |
\*---------------------------------------------------------------------------*/
FoamFile
{
    version     2.0;
    format      ascii;
    class       volVectorField;
    location    "13.5/oil";
    object      U;
}
// * * * * * * * * * * * * * * * * * * * * * * * * * * * * * * * * * * * * * //

dimensions      [0 1 -1 0 0 0 0];


internalField   nonuniform List<vector> 
35580
(
(-3.21452e-05 -3.21548e-05 -3.21187e-05)
(-3.5276e-05 -6.66742e-06 -6.63561e-06)
(-7.32784e-06 -4.69936e-06 -4.69152e-06)
(-6.47004e-06 -1.27707e-06 -1.27544e-06)
(-1.67796e-06 -8.08813e-07 -8.0678e-07)
(-1.35215e-06 -2.74348e-07 -2.73856e-07)
(-4.10575e-07 -1.57083e-07 -1.57002e-07)
(-3.27697e-07 -6.30117e-08 -6.35163e-08)
(-1.11408e-07 -3.40441e-08 -3.47434e-08)
(-9.09885e-08 -1.54943e-08 -1.63862e-08)
(-3.34225e-08 -7.91424e-09 -8.86403e-09)
(-2.863e-08 -3.82084e-09 -4.78782e-09)
(-1.22571e-08 -1.65303e-09 -2.64138e-09)
(-1.22259e-08 -6.24868e-10 -1.60172e-09)
(-8.3651e-09 3.51695e-11 -9.42559e-10)
(-9.94542e-09 3.09329e-10 -6.75244e-10)
(-1.00082e-08 5.01153e-10 -4.88524e-10)
(-1.16927e-08 5.46967e-10 -4.54577e-10)
(-1.24189e-08 5.688e-10 -4.46513e-10)
(-1.32846e-08 5.35286e-10 -4.97801e-10)
(-1.33219e-08 4.89922e-10 -5.49739e-10)
(-1.29523e-08 4.193e-10 -6.09924e-10)
(-1.18683e-08 3.45973e-10 -6.50877e-10)
(-1.03467e-08 2.65622e-10 -6.71412e-10)
(-8.36617e-09 1.84322e-10 -6.56655e-10)
(-6.20589e-09 1.03893e-10 -5.95243e-10)
(-3.98609e-09 3.22437e-11 -4.88907e-10)
(-2.04743e-09 -1.39895e-11 -3.25549e-10)
(-5.83859e-10 6.63695e-12 -1.73362e-10)
(6.78119e-11 8.37937e-11 -2.19502e-11)
(-6.64692e-06 -3.53244e-05 -6.64523e-06)
(-8.62699e-06 -8.64364e-06 -2.90432e-06)
(-3.48071e-06 -7.28978e-06 -2.45272e-06)
(-3.24953e-06 -2.04911e-06 -9.27487e-07)
(-1.19396e-06 -1.354e-06 -6.10688e-07)
(-1.04782e-06 -4.44428e-07 -2.51485e-07)
(-4.10336e-07 -2.77259e-07 -1.48278e-07)
(-3.49271e-07 -1.06736e-07 -6.75739e-08)
(-1.4899e-07 -6.73638e-08 -3.74795e-08)
(-1.23876e-07 -3.10414e-08 -1.8674e-08)
(-5.737e-08 -2.05455e-08 -9.77977e-09)
(-4.79715e-08 -1.13669e-08 -5.05097e-09)
(-2.62839e-08 -7.9528e-09 -2.26665e-09)
(-2.46907e-08 -5.18686e-09 -9.20976e-10)
(-1.9425e-08 -3.95354e-09 -1.56264e-11)
(-2.139e-08 -3.07338e-09 3.50377e-10)
(-2.18641e-08 -2.74374e-09 6.01263e-10)
(-2.44571e-08 -2.63873e-09 6.32865e-10)
(-2.57878e-08 -2.7697e-09 6.16035e-10)
(-2.70842e-08 -3.01194e-09 5.09129e-10)
(-2.70318e-08 -3.35468e-09 3.916e-10)
(-2.61104e-08 -3.72104e-09 2.59329e-10)
(-2.395e-08 -4.07726e-09 1.48925e-10)
(-2.09454e-08 -4.38272e-09 6.14152e-11)
(-1.71423e-08 -4.60189e-09 1.57957e-11)
(-1.29909e-08 -4.68169e-09 2.33769e-11)
(-8.75865e-09 -4.54723e-09 7.58862e-11)
(-4.96949e-09 -4.07258e-09 1.80438e-10)
(-1.9631e-09 -3.04809e-09 2.3688e-10)
(-1.38375e-10 -1.32567e-09 2.08691e-10)
(-4.70407e-06 -7.3587e-06 -4.69552e-06)
(-7.2913e-06 -3.49854e-06 -2.45448e-06)
(-3.47418e-06 -3.48944e-06 -2.12253e-06)
(-3.29897e-06 -1.38748e-06 -8.7653e-07)
(-1.44415e-06 -1.0639e-06 -5.62724e-07)
(-1.19406e-06 -4.57688e-07 -2.44284e-07)
(-5.48371e-07 -3.28962e-07 -1.40942e-07)
(-4.31486e-07 -1.6117e-07 -6.60634e-08)
(-2.11521e-07 -1.15236e-07 -3.59224e-08)
(-1.63013e-07 -6.54323e-08 -1.79041e-08)
(-8.55697e-08 -4.81058e-08 -8.96673e-09)
(-6.6961e-08 -3.15494e-08 -4.29873e-09)
(-4.05651e-08 -2.44422e-08 -1.44697e-09)
(-3.57735e-08 -1.83729e-08 -8.31125e-11)
(-2.89995e-08 -1.54354e-08 8.55259e-10)
(-3.0244e-08 -1.3233e-08 1.23496e-09)
(-3.057e-08 -1.22835e-08 1.48384e-09)
(-3.32298e-08 -1.18167e-08 1.50041e-09)
(-3.466e-08 -1.18992e-08 1.45733e-09)
(-3.59646e-08 -1.22252e-08 1.31899e-09)
(-3.57104e-08 -1.27531e-08 1.1597e-09)
(-3.43445e-08 -1.33081e-08 9.87456e-10)
(-3.15079e-08 -1.38257e-08 8.33312e-10)
(-2.76192e-08 -1.42028e-08 7.03074e-10)
(-2.27741e-08 -1.43504e-08 6.14046e-10)
(-1.74889e-08 -1.41428e-08 5.77513e-10)
(-1.20903e-08 -1.34093e-08 5.77123e-10)
(-7.15389e-09 -1.18726e-08 6.18124e-10)
(-3.08698e-09 -9.0869e-09 5.79428e-10)
(-3.0492e-10 -4.35782e-09 3.90198e-10)
(-1.28025e-06 -6.49479e-06 -1.27665e-06)
(-2.04653e-06 -3.27879e-06 -9.27662e-07)
(-1.3678e-06 -3.33168e-06 -8.76268e-07)
(-1.40768e-06 -1.44529e-06 -4.22513e-07)
(-7.43652e-07 -1.1361e-06 -2.89166e-07)
(-6.74781e-07 -5.3081e-07 -1.39887e-07)
(-3.53506e-07 -3.9191e-07 -8.50434e-08)
(-3.00986e-07 -2.07529e-07 -4.31826e-08)
(-1.6336e-07 -1.53922e-07 -2.42951e-08)
(-1.33426e-07 -9.44351e-08 -1.26301e-08)
(-7.65619e-08 -7.28794e-08 -6.16669e-09)
(-6.28315e-08 -5.15724e-08 -2.7353e-09)
(-4.16308e-08 -4.21585e-08 -4.12086e-10)
(-3.81963e-08 -3.38277e-08 7.03405e-10)
(-3.29668e-08 -2.9732e-08 1.52449e-09)
(-3.48193e-08 -2.65715e-08 1.85581e-09)
(-3.58148e-08 -2.51922e-08 2.06902e-09)
(-3.88202e-08 -2.44844e-08 2.06325e-09)
(-4.05149e-08 -2.4566e-08 1.9964e-09)
(-4.1874e-08 -2.49983e-08 1.83557e-09)
(-4.15137e-08 -2.56871e-08 1.65374e-09)
(-3.98576e-08 -2.63951e-08 1.46025e-09)
(-3.6591e-08 -2.70051e-08 1.28312e-09)
(-3.21426e-08 -2.73533e-08 1.12872e-09)
(-2.66457e-08 -2.72889e-08 1.01341e-09)
(-2.06451e-08 -2.66097e-08 9.47395e-10)
(-1.44864e-08 -2.50356e-08 9.12214e-10)
(-8.76315e-09 -2.2119e-08 9.1519e-10)
(-3.92225e-09 -1.70983e-08 8.19558e-10)
(-4.29872e-10 -8.46581e-09 5.29378e-10)
(-8.10306e-07 -1.70261e-06 -8.06428e-07)
(-1.34841e-06 -1.23435e-06 -6.10514e-07)
(-1.04226e-06 -1.49434e-06 -5.62494e-07)
(-1.096e-06 -8.00595e-07 -2.89199e-07)
(-6.57735e-07 -7.18471e-07 -1.97771e-07)
(-5.90451e-07 -3.99955e-07 -1.00643e-07)
(-3.42887e-07 -3.29707e-07 -6.11856e-08)
(-2.85397e-07 -2.03138e-07 -3.20677e-08)
(-1.67644e-07 -1.6439e-07 -1.78199e-08)
(-1.33892e-07 -1.13697e-07 -9.23743e-09)
(-8.1771e-08 -9.36385e-08 -4.14085e-09)
(-6.60902e-08 -7.20439e-08 -1.4667e-09)
(-4.59245e-08 -6.16256e-08 4.50143e-10)
(-4.1767e-08 -5.19988e-08 1.35479e-09)
(-3.69176e-08 -4.69697e-08 2.0535e-09)
(-3.86804e-08 -4.30299e-08 2.3258e-09)
(-3.99485e-08 -4.12105e-08 2.4909e-09)
(-4.30141e-08 -4.02485e-08 2.45084e-09)
(-4.48148e-08 -4.02705e-08 2.35192e-09)
(-4.61131e-08 -4.07318e-08 2.15936e-09)
(-4.56099e-08 -4.14795e-08 1.95441e-09)
(-4.36982e-08 -4.22335e-08 1.73551e-09)
(-4.00985e-08 -4.28156e-08 1.53634e-09)
(-3.52445e-08 -4.30056e-08 1.36164e-09)
(-2.9291e-08 -4.25897e-08 1.22748e-09)
(-2.27935e-08 -4.12868e-08 1.14285e-09)
(-1.6107e-08 -3.87041e-08 1.09067e-09)
(-9.83543e-09 -3.41995e-08 1.07503e-09)
(-4.45729e-09 -2.66042e-08 9.5053e-10)
(-4.98456e-10 -1.34079e-08 6.10857e-10)
(-2.74932e-07 -1.38143e-06 -2.72999e-07)
(-4.36482e-07 -1.10166e-06 -2.50885e-07)
(-4.34574e-07 -1.26206e-06 -2.43904e-07)
(-4.89089e-07 -7.51405e-07 -1.39873e-07)
(-3.37137e-07 -6.72163e-07 -1.00684e-07)
(-3.26728e-07 -4.11226e-07 -5.60228e-08)
(-2.08519e-07 -3.42589e-07 -3.55495e-08)
(-1.84807e-07 -2.28201e-07 -1.99177e-08)
(-1.16248e-07 -1.88341e-07 -1.12403e-08)
(-9.75156e-08 -1.38536e-07 -5.898e-09)
(-6.31848e-08 -1.16919e-07 -2.3112e-09)
(-5.36455e-08 -9.41914e-08 -3.72802e-10)
(-3.99799e-08 -8.25124e-08 1.15789e-09)
(-3.84012e-08 -7.17914e-08 1.89176e-09)
(-3.60937e-08 -6.59511e-08 2.48261e-09)
(-3.90538e-08 -6.14013e-08 2.70969e-09)
(-4.14347e-08 -5.92336e-08 2.8315e-09)
(-4.50432e-08 -5.8058e-08 2.75961e-09)
(-4.72553e-08 -5.80019e-08 2.62661e-09)
(-4.86586e-08 -5.84054e-08 2.39691e-09)
(-4.81365e-08 -5.91068e-08 2.16136e-09)
(-4.6083e-08 -5.97808e-08 1.91039e-09)
(-4.22712e-08 -6.02028e-08 1.68523e-09)
(-3.71538e-08 -6.01073e-08 1.4904e-09)
(-3.09088e-08 -5.92221e-08 1.34067e-09)
(-2.40987e-08 -5.71927e-08 1.24404e-09)
(-1.70834e-08 -5.35036e-08 1.18376e-09)
(-1.04729e-08 -4.72975e-08 1.16157e-09)
(-4.76639e-09 -3.69367e-08 1.02607e-09)
(-5.36231e-10 -1.87933e-08 6.63534e-10)
(-1.57088e-07 -4.45504e-07 -1.55831e-07)
(-2.68847e-07 -4.77275e-07 -1.4754e-07)
(-3.05614e-07 -6.33348e-07 -1.40568e-07)
(-3.49944e-07 -4.49348e-07 -8.50927e-08)
(-2.66435e-07 -4.4529e-07 -6.13314e-08)
(-2.57249e-07 -3.14602e-07 -3.56661e-08)
(-1.76781e-07 -2.84307e-07 -2.25677e-08)
(-1.55055e-07 -2.12621e-07 -1.28942e-08)
(-1.02825e-07 -1.8696e-07 -6.97441e-09)
(-8.54358e-08 -1.49684e-07 -3.39117e-09)
(-5.76579e-08 -1.32376e-07 -7.59782e-10)
(-4.89532e-08 -1.12809e-07 6.70739e-10)
(-3.79866e-08 -1.02087e-07 1.88742e-09)
(-3.70054e-08 -9.17934e-08 2.45938e-09)
(-3.59477e-08 -8.59132e-08 2.93136e-09)
(-3.93856e-08 -8.12641e-08 3.10206e-09)
(-4.24262e-08 -7.89976e-08 3.16972e-09)
(-4.63059e-08 -7.76971e-08 3.05409e-09)
(-4.8736e-08 -7.75122e-08 2.87074e-09)
(-5.01292e-08 -7.77347e-08 2.59578e-09)
(-4.95362e-08 -7.82359e-08 2.31788e-09)
(-4.73333e-08 -7.86561e-08 2.02798e-09)
(-4.33507e-08 -7.87449e-08 1.77226e-09)
(-3.80519e-08 -7.82068e-08 1.55303e-09)
(-3.16345e-08 -7.67177e-08 1.38749e-09)
(-2.46615e-08 -7.38579e-08 1.27955e-09)
(-1.74887e-08 -6.89782e-08 1.21403e-09)
(-1.07274e-08 -6.09915e-08 1.18845e-09)
(-4.88101e-09 -4.77525e-08 1.05083e-09)
(-5.45056e-10 -2.44502e-08 6.84899e-10)
(-6.28712e-08 -3.68805e-07 -6.22859e-08)
(-9.84687e-08 -4.28771e-07 -6.69403e-08)
(-1.38288e-07 -5.32587e-07 -6.58704e-08)
(-1.66214e-07 -4.14925e-07 -4.34032e-08)
(-1.40593e-07 -4.07273e-07 -3.24453e-08)
(-1.43464e-07 -3.11327e-07 -2.0266e-08)
(-1.05396e-07 -2.83785e-07 -1.31278e-08)
(-9.66427e-08 -2.25645e-07 -7.78844e-09)
(-6.70005e-08 -2.01874e-07 -4.02678e-09)
(-5.77918e-08 -1.6919e-07 -1.68412e-09)
(-4.07077e-08 -1.52648e-07 2.57052e-10)
(-3.63785e-08 -1.34442e-07 1.38065e-09)
(-3.03061e-08 -1.23863e-07 2.39668e-09)
(-3.15626e-08 -1.13681e-07 2.88843e-09)
(-3.27554e-08 -1.07658e-07 3.29851e-09)
(-3.73468e-08 -1.02908e-07 3.44821e-09)
(-4.14304e-08 -1.00484e-07 3.4725e-09)
(-4.58541e-08 -9.89779e-08 3.31726e-09)
(-4.86673e-08 -9.849e-08 3.07883e-09)
(-5.0149e-08 -9.83255e-08 2.7589e-09)
(-4.95653e-08 -9.83922e-08 2.43452e-09)
(-4.72926e-08 -9.83263e-08 2.10381e-09)
(-4.32392e-08 -9.78654e-08 1.81647e-09)
(-3.78818e-08 -9.67008e-08 1.57318e-09)
(-3.14432e-08 -9.44649e-08 1.39252e-09)
(-2.44807e-08 -9.06781e-08 1.2737e-09)
(-1.73411e-08 -8.45527e-08 1.20516e-09)
(-1.06267e-08 -7.47626e-08 1.17999e-09)
(-4.82594e-09 -5.86323e-08 1.04826e-09)
(-5.35143e-10 -3.01413e-08 6.88488e-10)
(-3.39891e-08 -1.58293e-07 -3.35676e-08)
(-5.9584e-08 -2.39836e-07 -3.6948e-08)
(-9.33295e-08 -3.26977e-07 -3.59509e-08)
(-1.14085e-07 -2.93458e-07 -2.4729e-08)
(-1.03714e-07 -3.06904e-07 -1.84445e-08)
(-1.05626e-07 -2.6121e-07 -1.18604e-08)
(-8.16601e-08 -2.50953e-07 -7.50008e-09)
(-7.43662e-08 -2.16271e-07 -4.33276e-09)
(-5.33622e-08 -2.01937e-07 -1.82477e-09)
(-4.58036e-08 -1.79163e-07 -2.46055e-10)
(-3.32586e-08 -1.6706e-07 1.19835e-09)
(-3.01029e-08 -1.52828e-07 2.07857e-09)
(-2.6255e-08 -1.44104e-07 2.90206e-09)
(-2.82932e-08 -1.35303e-07 3.32489e-09)
(-3.05876e-08 -1.299e-07 3.66858e-09)
(-3.55779e-08 -1.25479e-07 3.77502e-09)
(-4.01024e-08 -1.23007e-07 3.73315e-09)
(-4.46994e-08 -1.21347e-07 3.52739e-09)
(-4.76344e-08 -1.20454e-07 3.23869e-09)
(-4.90441e-08 -1.19743e-07 2.87147e-09)
(-4.83966e-08 -1.19145e-07 2.5011e-09)
(-4.60489e-08 -1.18357e-07 2.13125e-09)
(-4.19814e-08 -1.17124e-07 1.81628e-09)
(-3.66733e-08 -1.15144e-07 1.55144e-09)
(-3.03612e-08 -1.12015e-07 1.35778e-09)
(-2.35854e-08 -1.07203e-07 1.22843e-09)
(-1.66696e-08 -9.97854e-08 1.15706e-09)
(-1.01944e-08 -8.8199e-08 1.13154e-09)
(-4.61578e-09 -6.92425e-08 1.00887e-09)
(-5.0605e-10 -3.56918e-08 6.66219e-10)
(-1.55164e-08 -1.42771e-07 -1.53467e-08)
(-2.3994e-08 -2.24176e-07 -1.83672e-08)
(-4.50315e-08 -2.90435e-07 -1.82271e-08)
(-5.68769e-08 -2.7714e-07 -1.33652e-08)
(-5.59027e-08 -2.87969e-07 -1.01661e-08)
(-5.91031e-08 -2.58325e-07 -6.8638e-09)
(-4.77856e-08 -2.50453e-07 -4.29611e-09)
(-4.48309e-08 -2.25027e-07 -2.40277e-09)
(-3.30401e-08 -2.13443e-07 -6.82179e-10)
(-2.92315e-08 -1.9551e-07 4.70641e-10)
(-2.20498e-08 -1.85427e-07 1.62492e-09)
(-2.12235e-08 -1.73633e-07 2.39133e-09)
(-2.01119e-08 -1.6604e-07 3.09857e-09)
(-2.34242e-08 -1.58314e-07 3.5126e-09)
(-2.6953e-08 -1.53386e-07 3.83407e-09)
(-3.24247e-08 -1.4918e-07 3.92673e-09)
(-3.73355e-08 -1.46449e-07 3.84198e-09)
(-4.20221e-08 -1.44409e-07 3.60239e-09)
(-4.50359e-08 -1.42901e-07 3.28951e-09)
(-4.63879e-08 -1.41436e-07 2.88213e-09)
(-4.57055e-08 -1.39918e-07 2.48099e-09)
(-4.33622e-08 -1.3815e-07 2.08507e-09)
(-3.9399e-08 -1.3592e-07 1.75452e-09)
(-3.42939e-08 -1.32943e-07 1.47953e-09)
(-2.82902e-08 -1.28798e-07 1.28196e-09)
(-2.19028e-08 -1.22901e-07 1.14993e-09)
(-1.54275e-08 -1.14201e-07 1.08291e-09)
(-9.40486e-09 -1.00892e-07 1.06068e-09)
(-4.24421e-09 -7.9264e-08 9.5389e-10)
(-4.61355e-10 -4.09351e-08 6.30953e-10)
(-8.0833e-09 -8.90289e-08 -7.99145e-09)
(-1.44115e-08 -1.64885e-07 -9.7149e-09)
(-2.95866e-08 -2.2211e-07 -9.60363e-09)
(-3.81286e-08 -2.30737e-07 -7.25551e-09)
(-3.95482e-08 -2.47343e-07 -5.44347e-09)
(-4.18325e-08 -2.3639e-07 -3.69111e-09)
(-3.51778e-08 -2.36124e-07 -2.11107e-09)
(-3.29351e-08 -2.22602e-07 -9.56586e-10)
(-2.50407e-08 -2.16893e-07 2.2093e-10)
(-2.22385e-08 -2.05751e-07 1.05598e-09)
(-1.74438e-08 -1.99465e-07 1.95856e-09)
(-1.72171e-08 -1.91281e-07 2.58794e-09)
(-1.71803e-08 -1.85841e-07 3.16628e-09)
(-2.06246e-08 -1.79998e-07 3.54555e-09)
(-2.43667e-08 -1.76029e-07 3.82165e-09)
(-2.9576e-08 -1.72332e-07 3.88847e-09)
(-3.42541e-08 -1.69472e-07 3.77142e-09)
(-3.85134e-08 -1.66975e-07 3.49074e-09)
(-4.12583e-08 -1.64769e-07 3.16718e-09)
(-4.23709e-08 -1.624e-07 2.74082e-09)
(-4.15673e-08 -1.59808e-07 2.33843e-09)
(-3.92481e-08 -1.56903e-07 1.94245e-09)
(-3.54903e-08 -1.53546e-07 1.62012e-09)
(-3.07525e-08 -1.49472e-07 1.35382e-09)
(-2.52635e-08 -1.44243e-07 1.1611e-09)
(-1.9487e-08 -1.37233e-07 1.02672e-09)
(-1.3669e-08 -1.27274e-07 9.52922e-10)
(-8.29569e-09 -1.12347e-07 9.23404e-10)
(-3.71919e-09 -8.82854e-08 8.32568e-10)
(-3.94052e-10 -4.5656e-08 5.60351e-10)
(-4.11009e-09 -8.66659e-08 -4.08616e-09)
(-6.29832e-09 -1.60008e-07 -5.2536e-09)
(-1.51587e-08 -2.09162e-07 -5.25853e-09)
(-2.00578e-08 -2.23633e-07 -4.14954e-09)
(-2.23332e-08 -2.39169e-07 -3.11724e-09)
(-2.44461e-08 -2.35238e-07 -2.1396e-09)
(-2.1555e-08 -2.36832e-07 -1.13141e-09)
(-2.08359e-08 -2.28906e-07 -3.76933e-10)
(-1.65721e-08 -2.25789e-07 4.67172e-10)
(-1.5345e-08 -2.18537e-07 1.10535e-09)
(-1.28216e-08 -2.14436e-07 1.81898e-09)
(-1.3409e-08 -2.0874e-07 2.34658e-09)
(-1.43368e-08 -2.05011e-07 2.86018e-09)
(-1.77362e-08 -2.00759e-07 3.21923e-09)
(-2.1365e-08 -1.97568e-07 3.46743e-09)
(-2.60011e-08 -1.94206e-07 3.52275e-09)
(-3.0123e-08 -1.91098e-07 3.41488e-09)
(-3.36793e-08 -1.88021e-07 3.14799e-09)
(-3.59322e-08 -1.85053e-07 2.85817e-09)
(-3.67172e-08 -1.81624e-07 2.44489e-09)
(-3.58196e-08 -1.77855e-07 2.06641e-09)
(-3.36204e-08 -1.7372e-07 1.6926e-09)
(-3.02069e-08 -1.6917e-07 1.38858e-09)
(-2.60031e-08 -1.63958e-07 1.13641e-09)
(-2.1218e-08 -1.57652e-07 9.58822e-10)
(-1.62552e-08 -1.49582e-07 8.39006e-10)
(-1.13214e-08 -1.38473e-07 7.82447e-10)
(-6.82744e-09 -1.22127e-07 7.69085e-10)
(-3.04378e-09 -9.59813e-08 7.05004e-10)
(-3.18253e-10 -4.96933e-08 4.83769e-10)
(-2.0758e-09 -7.12605e-08 -2.10486e-09)
(-3.99739e-09 -1.40001e-07 -2.76413e-09)
(-1.0404e-08 -1.84785e-07 -2.75991e-09)
(-1.4284e-08 -2.04862e-07 -2.22191e-09)
(-1.68587e-08 -2.22012e-07 -1.64775e-09)
(-1.88121e-08 -2.25289e-07 -1.11953e-09)
(-1.76872e-08 -2.30421e-07 -4.95778e-10)
(-1.75329e-08 -2.28447e-07 -1.36285e-11)
(-1.50215e-08 -2.28878e-07 5.78166e-10)
(-1.42765e-08 -2.25825e-07 1.01933e-09)
(-1.27207e-08 -2.24472e-07 1.51997e-09)
(-1.33027e-08 -2.21745e-07 1.92178e-09)
(-1.41119e-08 -2.20125e-07 2.34342e-09)
(-1.65982e-08 -2.17557e-07 2.61923e-09)
(-1.92922e-08 -2.15273e-07 2.80017e-09)
(-2.26397e-08 -2.12322e-07 2.80649e-09)
(-2.56124e-08 -2.09118e-07 2.70576e-09)
(-2.80585e-08 -2.05569e-07 2.46979e-09)
(-2.94434e-08 -2.01825e-07 2.21292e-09)
(-2.96627e-08 -1.97374e-07 1.87181e-09)
(-2.85889e-08 -1.92601e-07 1.57356e-09)
(-2.65544e-08 -1.87425e-07 1.27976e-09)
(-2.36238e-08 -1.81821e-07 1.0469e-09)
(-2.0157e-08 -1.75588e-07 8.47723e-10)
(-1.63134e-08 -1.68337e-07 7.10569e-10)
(-1.24015e-08 -1.59376e-07 6.19236e-10)
(-8.56157e-09 -1.47363e-07 5.8247e-10)
(-5.10564e-09 -1.2992e-07 5.79972e-10)
(-2.23594e-09 -1.02134e-07 5.40273e-10)
(-2.22235e-10 -5.29258e-08 3.77403e-10)
(-1.19377e-09 -7.08238e-08 -1.21523e-09)
(-2.35488e-09 -1.37462e-07 -1.66557e-09)
(-6.66268e-09 -1.7874e-07 -1.71216e-09)
(-9.57714e-09 -1.99997e-07 -1.4761e-09)
(-1.22561e-08 -2.16474e-07 -1.15387e-09)
(-1.4419e-08 -2.22681e-07 -8.4674e-10)
(-1.48326e-08 -2.28978e-07 -4.42693e-10)
(-1.55902e-08 -2.30026e-07 -1.25958e-10)
(-1.47139e-08 -2.32222e-07 2.85481e-10)
(-1.46188e-08 -2.31655e-07 5.71666e-10)
(-1.38307e-08 -2.32127e-07 9.21461e-10)
(-1.423e-08 -2.31482e-07 1.21955e-09)
(-1.46018e-08 -2.31308e-07 1.51299e-09)
(-1.5961e-08 -2.29947e-07 1.70806e-09)
(-1.73413e-08 -2.28271e-07 1.82644e-09)
(-1.90254e-08 -2.2548e-07 1.79763e-09)
(-2.04412e-08 -2.22132e-07 1.72625e-09)
(-2.14461e-08 -2.18148e-07 1.54851e-09)
(-2.17401e-08 -2.13676e-07 1.35737e-09)
(-2.13684e-08 -2.08369e-07 1.10818e-09)
(-2.01638e-08 -2.02767e-07 9.09032e-10)
(-1.83668e-08 -1.96785e-07 7.30786e-10)
(-1.60324e-08 -1.90465e-07 6.00846e-10)
(-1.3434e-08 -1.83618e-07 4.95613e-10)
(-1.06587e-08 -1.7579e-07 4.31846e-10)
(-7.93297e-09 -1.66217e-07 3.84743e-10)
(-5.34401e-09 -1.53534e-07 3.73976e-10)
(-3.09781e-09 -1.35295e-07 3.81978e-10)
(-1.30397e-09 -1.06362e-07 3.667e-10)
(-1.13692e-10 -5.51467e-08 2.63236e-10)
(-6.78793e-10 -6.51617e-08 -7.01053e-10)
(-2.26073e-09 -1.28596e-07 -9.90194e-10)
(-6.09903e-09 -1.67441e-07 -1.03213e-09)
(-9.21975e-09 -1.89696e-07 -9.34254e-10)
(-1.23421e-08 -2.0625e-07 -7.67554e-10)
(-1.49664e-08 -2.1486e-07 -6.25595e-10)
(-1.64016e-08 -2.22379e-07 -4.23051e-10)
(-1.77222e-08 -2.25807e-07 -3.03794e-10)
(-1.7816e-08 -2.296e-07 -1.06514e-10)
(-1.80998e-08 -2.31312e-07 3.29285e-11)
(-1.75731e-08 -2.33483e-07 2.09771e-10)
(-1.73741e-08 -2.34506e-07 3.24541e-10)
(-1.67951e-08 -2.35427e-07 4.32226e-10)
(-1.65491e-08 -2.35084e-07 5.1776e-10)
(-1.60771e-08 -2.34126e-07 5.78746e-10)
(-1.57247e-08 -2.31741e-07 5.53593e-10)
(-1.52455e-08 -2.28532e-07 5.388e-10)
(-1.45293e-08 -2.24463e-07 4.75229e-10)
(-1.35131e-08 -2.19721e-07 4.04555e-10)
(-1.23225e-08 -2.13996e-07 3.06919e-10)
(-1.08642e-08 -2.07867e-07 2.42083e-10)
(-9.33714e-09 -2.01366e-07 1.74594e-10)
(-7.70948e-09 -1.94639e-07 1.3502e-10)
(-6.1173e-09 -1.87499e-07 1.02598e-10)
(-4.55942e-09 -1.79422e-07 9.67859e-11)
(-3.14731e-09 -1.6958e-07 9.41031e-11)
(-1.91236e-09 -1.5659e-07 1.10565e-10)
(-9.59002e-10 -1.37974e-07 1.32399e-10)
(-3.03531e-10 -1.08475e-07 1.54715e-10)
(1.35501e-11 -5.6258e-08 1.35077e-10)
(-5.3389e-10 -6.37055e-08 -5.44346e-10)
(-2.3665e-09 -1.24692e-07 -8.1227e-10)
(-5.97414e-09 -1.61225e-07 -8.80791e-10)
(-9.37515e-09 -1.8305e-07 -8.47979e-10)
(-1.29969e-08 -1.9879e-07 -7.75303e-10)
(-1.62463e-08 -2.08104e-07 -7.3448e-10)
(-1.87229e-08 -2.15796e-07 -6.59321e-10)
(-2.08462e-08 -2.20272e-07 -6.43264e-10)
(-2.18334e-08 -2.24601e-07 -6.10791e-10)
(-2.23906e-08 -2.27222e-07 -6.45003e-10)
(-2.18544e-08 -2.29947e-07 -6.67837e-10)
(-2.09983e-08 -2.31668e-07 -7.27197e-10)
(-1.93852e-08 -2.33028e-07 -7.58605e-10)
(-1.75557e-08 -2.33205e-07 -7.63912e-10)
(-1.51952e-08 -2.32578e-07 -7.56511e-10)
(-1.26589e-08 -2.30465e-07 -7.62335e-10)
(-1.00821e-08 -2.27534e-07 -7.11129e-10)
(-7.50911e-09 -2.23649e-07 -6.62196e-10)
(-5.1452e-09 -2.18969e-07 -6.08468e-10)
(-3.16928e-09 -2.13345e-07 -5.41721e-10)
(-1.44408e-09 -2.07331e-07 -4.46915e-10)
(-1.18274e-10 -2.00918e-07 -3.64393e-10)
(8.69029e-10 -1.94279e-07 -2.97549e-10)
(1.46689e-09 -1.87201e-07 -2.62782e-10)
(1.75838e-09 -1.7917e-07 -2.15701e-10)
(1.79018e-09 -1.69369e-07 -1.8011e-10)
(1.61021e-09 -1.56411e-07 -1.36993e-10)
(1.22557e-09 -1.37836e-07 -1.00342e-10)
(7.11406e-10 -1.08387e-07 -4.11224e-11)
(1.37826e-10 -5.62241e-08 1.65851e-11)
(-4.55525e-10 -5.97313e-08 -4.45797e-10)
(-2.89245e-09 -1.17389e-07 -7.10305e-10)
(-6.85019e-09 -1.5165e-07 -8.08286e-10)
(-1.09353e-08 -1.72756e-07 -8.24023e-10)
(-1.52842e-08 -1.87748e-07 -8.23814e-10)
(-1.93086e-08 -1.97378e-07 -8.60955e-10)
(-2.26736e-08 -2.05098e-07 -8.97213e-10)
(-2.54168e-08 -2.1016e-07 -1.00006e-09)
(-2.69997e-08 -2.14668e-07 -1.12252e-09)
(-2.77389e-08 -2.17594e-07 -1.28712e-09)
(-2.70566e-08 -2.20291e-07 -1.46501e-09)
(-2.54035e-08 -2.22151e-07 -1.68439e-09)
(-2.25633e-08 -2.23631e-07 -1.85763e-09)
(-1.8949e-08 -2.24059e-07 -1.97893e-09)
(-1.45138e-08 -2.23591e-07 -2.02226e-09)
(-9.79006e-09 -2.217e-07 -2.00998e-09)
(-5.15395e-09 -2.19126e-07 -1.92001e-09)
(-7.75026e-10 -2.15731e-07 -1.76638e-09)
(2.90692e-09 -2.11505e-07 -1.59695e-09)
(5.6904e-09 -2.06475e-07 -1.38173e-09)
(7.70671e-09 -2.01139e-07 -1.16545e-09)
(8.76523e-09 -1.954e-07 -9.62685e-10)
(9.03317e-09 -1.89262e-07 -7.82285e-10)
(8.67175e-09 -1.82565e-07 -6.44696e-10)
(7.80278e-09 -1.74925e-07 -5.2496e-10)
(6.56536e-09 -1.6554e-07 -4.39534e-10)
(5.05132e-09 -1.53027e-07 -3.65062e-10)
(3.37155e-09 -1.34953e-07 -3.18319e-10)
(1.72224e-09 -1.06162e-07 -2.33994e-10)
(2.68282e-10 -5.50419e-08 -1.10924e-10)
(-4.87962e-10 -5.6604e-08 -4.68729e-10)
(-3.43873e-09 -1.10753e-07 -7.54863e-10)
(-7.80648e-09 -1.42553e-07 -8.73018e-10)
(-1.25359e-08 -1.62312e-07 -9.07853e-10)
(-1.7559e-08 -1.76062e-07 -9.51958e-10)
(-2.22882e-08 -1.85133e-07 -1.04266e-09)
(-2.64241e-08 -1.92159e-07 -1.16004e-09)
(-2.97861e-08 -1.9691e-07 -1.35244e-09)
(-3.18905e-08 -2.00904e-07 -1.592e-09)
(-3.27425e-08 -2.03521e-07 -1.86822e-09)
(-3.184e-08 -2.05622e-07 -2.15489e-09)
(-2.93979e-08 -2.06927e-07 -2.45255e-09)
(-2.53748e-08 -2.07923e-07 -2.72471e-09)
(-2.01874e-08 -2.08134e-07 -2.9333e-09)
(-1.39571e-08 -2.07698e-07 -3.03125e-09)
(-7.27674e-09 -2.06124e-07 -3.01383e-09)
(-7.49473e-10 -2.04039e-07 -2.88909e-09)
(5.2629e-09 -2.014e-07 -2.67762e-09)
(1.01676e-08 -1.97995e-07 -2.42047e-09)
(1.37282e-08 -1.94005e-07 -2.09841e-09)
(1.59973e-08 -1.89755e-07 -1.78392e-09)
(1.68721e-08 -1.85099e-07 -1.48676e-09)
(1.65665e-08 -1.7991e-07 -1.21938e-09)
(1.53326e-08 -1.74031e-07 -9.95727e-10)
(1.33683e-08 -1.67125e-07 -8.13999e-10)
(1.09053e-08 -1.5845e-07 -6.85878e-10)
(8.13808e-09 -1.4665e-07 -5.75144e-10)
(5.3022e-09 -1.29419e-07 -5.0855e-10)
(2.63511e-09 -1.01839e-07 -3.91488e-10)
(3.81314e-10 -5.27311e-08 -2.12013e-10)
(-5.1705e-10 -5.20528e-08 -4.84373e-10)
(-4.01511e-09 -1.0198e-07 -7.92978e-10)
(-8.88905e-09 -1.31124e-07 -9.35437e-10)
(-1.4285e-08 -1.49332e-07 -9.93441e-10)
(-1.9973e-08 -1.61791e-07 -1.07469e-09)
(-2.53667e-08 -1.70049e-07 -1.20671e-09)
(-3.01345e-08 -1.76154e-07 -1.38658e-09)
(-3.39403e-08 -1.80204e-07 -1.63643e-09)
(-3.63438e-08 -1.83354e-07 -1.93774e-09)
(-3.71866e-08 -1.85351e-07 -2.28624e-09)
(-3.60379e-08 -1.86763e-07 -2.66208e-09)
(-3.29262e-08 -1.87365e-07 -3.0358e-09)
(-2.78153e-08 -1.87628e-07 -3.36629e-09)
(-2.12001e-08 -1.87427e-07 -3.63446e-09)
(-1.3414e-08 -1.86911e-07 -3.78163e-09)
(-5.13214e-09 -1.85635e-07 -3.76957e-09)
(2.91073e-09 -1.84092e-07 -3.61823e-09)
(1.0275e-08 -1.82301e-07 -3.35189e-09)
(1.62236e-08 -1.7996e-07 -3.02808e-09)
(2.04132e-08 -1.77209e-07 -2.66003e-09)
(2.28748e-08 -1.74138e-07 -2.26726e-09)
(2.36468e-08 -1.70653e-07 -1.89228e-09)
(2.29256e-08 -1.66627e-07 -1.57142e-09)
(2.10032e-08 -1.61863e-07 -1.31091e-09)
(1.81558e-08 -1.56003e-07 -1.10145e-09)
(1.47037e-08 -1.48378e-07 -9.48601e-10)
(1.08865e-08 -1.37699e-07 -8.17563e-10)
(6.99998e-09 -1.21726e-07 -7.31971e-10)
(3.40234e-09 -9.58188e-08 -5.87669e-10)
(4.64795e-10 -4.95023e-08 -3.27688e-10)
(-5.63864e-10 -4.74432e-08 -5.42003e-10)
(-4.48821e-09 -9.28201e-08 -8.91877e-10)
(-9.811e-09 -1.1908e-07 -1.04965e-09)
(-1.576e-08 -1.35419e-07 -1.11974e-09)
(-2.19782e-08 -1.46352e-07 -1.21896e-09)
(-2.78708e-08 -1.53484e-07 -1.36868e-09)
(-3.30743e-08 -1.58451e-07 -1.56975e-09)
(-3.71725e-08 -1.61531e-07 -1.84181e-09)
(-3.97314e-08 -1.63614e-07 -2.17808e-09)
(-4.04846e-08 -1.64667e-07 -2.57161e-09)
(-3.90597e-08 -1.65175e-07 -2.99744e-09)
(-3.54071e-08 -1.65024e-07 -3.41223e-09)
(-2.94938e-08 -1.64516e-07 -3.76328e-09)
(-2.17888e-08 -1.63717e-07 -4.04522e-09)
(-1.28323e-08 -1.62945e-07 -4.22354e-09)
(-3.37776e-09 -1.61905e-07 -4.22699e-09)
(5.80003e-09 -1.60941e-07 -4.06974e-09)
(1.41433e-08 -1.60058e-07 -3.7869e-09)
(2.08659e-08 -1.58854e-07 -3.41649e-09)
(2.55998e-08 -1.57331e-07 -2.99489e-09)
(2.82887e-08 -1.55498e-07 -2.55167e-09)
(2.90079e-08 -1.53274e-07 -2.13943e-09)
(2.79884e-08 -1.50517e-07 -1.78043e-09)
(2.55587e-08 -1.46974e-07 -1.4871e-09)
(2.20285e-08 -1.42257e-07 -1.25481e-09)
(1.77748e-08 -1.3575e-07 -1.09676e-09)
(1.31123e-08 -1.26323e-07 -9.76273e-10)
(8.40627e-09 -1.11864e-07 -8.89453e-10)
(4.06179e-09 -8.80933e-08 -7.29152e-10)
(5.40669e-10 -4.54162e-08 -4.14898e-10)
(-5.92188e-10 -4.20335e-08 -5.80617e-10)
(-4.86808e-09 -8.23487e-08 -9.60477e-10)
(-1.05653e-08 -1.05561e-07 -1.12775e-09)
(-1.69305e-08 -1.19932e-07 -1.19563e-09)
(-2.35378e-08 -1.29342e-07 -1.29354e-09)
(-2.97832e-08 -1.35314e-07 -1.4435e-09)
(-3.52651e-08 -1.39175e-07 -1.65719e-09)
(-3.95093e-08 -1.4129e-07 -1.94199e-09)
(-4.20901e-08 -1.42355e-07 -2.28969e-09)
(-4.26822e-08 -1.42472e-07 -2.69002e-09)
(-4.09753e-08 -1.42073e-07 -3.11731e-09)
(-3.68879e-08 -1.41221e-07 -3.53656e-09)
(-3.04165e-08 -1.40144e-07 -3.89528e-09)
(-2.19992e-08 -1.38888e-07 -4.16284e-09)
(-1.22762e-08 -1.37844e-07 -4.32312e-09)
(-2.06196e-09 -1.36989e-07 -4.31403e-09)
(7.87894e-09 -1.36531e-07 -4.16842e-09)
(1.6872e-08 -1.36382e-07 -3.90422e-09)
(2.41171e-08 -1.36133e-07 -3.54135e-09)
(2.92218e-08 -1.35719e-07 -3.12697e-09)
(3.21063e-08 -1.35108e-07 -2.6912e-09)
(3.28567e-08 -1.34131e-07 -2.28163e-09)
(3.16866e-08 -1.32594e-07 -1.91611e-09)
(2.89336e-08 -1.30225e-07 -1.61676e-09)
(2.49385e-08 -1.26641e-07 -1.38062e-09)
(2.01148e-08 -1.21246e-07 -1.21978e-09)
(1.48083e-08 -1.13048e-07 -1.10614e-09)
(9.45564e-09 -1.00222e-07 -1.02703e-09)
(4.53224e-09 -7.8978e-08 -8.54565e-10)
(5.86403e-10 -4.06844e-08 -4.92275e-10)
(-6.18016e-10 -3.64733e-08 -6.11805e-10)
(-5.11857e-09 -7.14369e-08 -1.00413e-09)
(-1.10628e-08 -9.15183e-08 -1.17633e-09)
(-1.76875e-08 -1.0386e-07 -1.24774e-09)
(-2.45213e-08 -1.11742e-07 -1.35088e-09)
(-3.09468e-08 -1.16546e-07 -1.50115e-09)
(-3.6543e-08 -1.19351e-07 -1.71407e-09)
(-4.08036e-08 -1.20555e-07 -1.99132e-09)
(-4.33115e-08 -1.20725e-07 -2.32714e-09)
(-4.37148e-08 -1.20035e-07 -2.70751e-09)
(-4.17477e-08 -1.18878e-07 -3.10688e-09)
(-3.73296e-08 -1.174e-07 -3.49429e-09)
(-3.0534e-08 -1.15841e-07 -3.83608e-09)
(-2.17553e-08 -1.14312e-07 -4.07989e-09)
(-1.16364e-08 -1.13142e-07 -4.21909e-09)
(-1.04105e-09 -1.12476e-07 -4.21285e-09)
(9.28768e-09 -1.12422e-07 -4.08715e-09)
(1.85833e-08 -1.12817e-07 -3.84258e-09)
(2.61125e-08 -1.13314e-07 -3.50291e-09)
(3.1476e-08 -1.13789e-07 -3.11735e-09)
(3.45304e-08 -1.14155e-07 -2.70924e-09)
(3.53446e-08 -1.14192e-07 -2.32118e-09)
(3.41145e-08 -1.13682e-07 -1.97135e-09)
(3.11776e-08 -1.1234e-07 -1.68296e-09)
(2.68846e-08 -1.09799e-07 -1.45322e-09)
(2.16839e-08 -1.05513e-07 -1.29366e-09)
(1.59522e-08 -9.85951e-08 -1.18272e-09)
(1.01746e-08 -8.7484e-08 -1.11122e-09)
(4.85592e-09 -6.89447e-08 -9.36463e-10)
(6.17276e-10 -3.54811e-08 -5.42628e-10)
(-6.27882e-10 -3.05889e-08 -6.23108e-10)
(-5.23512e-09 -6.00109e-08 -1.02411e-09)
(-1.12769e-08 -7.69202e-08 -1.19851e-09)
(-1.8009e-08 -8.72301e-08 -1.26752e-09)
(-2.49212e-08 -9.36387e-08 -1.36863e-09)
(-3.13904e-08 -9.73567e-08 -1.5109e-09)
(-3.69776e-08 -9.92571e-08 -1.71236e-09)
(-4.11623e-08 -9.9729e-08 -1.97029e-09)
(-4.35423e-08 -9.92395e-08 -2.28104e-09)
(-4.37641e-08 -9.79967e-08 -2.62658e-09)
(-4.15988e-08 -9.63531e-08 -2.98534e-09)
(-3.69705e-08 -9.44843e-08 -3.33371e-09)
(-3.0026e-08 -9.2643e-08 -3.64099e-09)
(-2.11761e-08 -9.10122e-08 -3.85645e-09)
(-1.09867e-08 -8.98683e-08 -3.9755e-09)
(-3.05532e-10 -8.93507e-08 -3.97422e-09)
(1.008e-08 -8.95372e-08 -3.86899e-09)
(1.94299e-08 -9.02826e-08 -3.64902e-09)
(2.70688e-08 -9.12916e-08 -3.34682e-09)
(3.25588e-08 -9.23911e-08 -3.00516e-09)
(3.57168e-08 -9.34456e-08 -2.641e-09)
(3.66026e-08 -9.42227e-08 -2.28952e-09)
(3.53807e-08 -9.44897e-08 -1.96809e-09)
(3.23783e-08 -9.39659e-08 -1.7012e-09)
(2.79435e-08 -9.2315e-08 -1.48628e-09)
(2.25428e-08 -8.90484e-08 -1.33546e-09)
(1.65753e-08 -8.34035e-08 -1.22411e-09)
(1.0567e-08 -7.40555e-08 -1.15308e-09)
(5.03556e-09 -5.83262e-08 -9.76151e-10)
(6.37968e-10 -2.99764e-08 -5.69475e-10)
(-6.30766e-10 -2.47197e-08 -6.1863e-10)
(-5.21631e-09 -4.86165e-08 -1.01948e-09)
(-1.1201e-08 -6.23665e-08 -1.19837e-09)
(-1.78848e-08 -7.06797e-08 -1.26514e-09)
(-2.47284e-08 -7.57012e-08 -1.36306e-09)
(-3.11133e-08 -7.8441e-08 -1.49459e-09)
(-3.65904e-08 -7.95974e-08 -1.68139e-09)
(-4.06356e-08 -7.95247e-08 -1.91628e-09)
(-4.28617e-08 -7.86086e-08 -2.19677e-09)
(-4.2926e-08 -7.70626e-08 -2.50395e-09)
(-4.06247e-08 -7.51953e-08 -2.82083e-09)
(-3.59153e-08 -7.31755e-08 -3.12718e-09)
(-2.90036e-08 -7.12886e-08 -3.39216e-09)
(-2.02822e-08 -6.97219e-08 -3.57574e-09)
(-1.02608e-08 -6.86929e-08 -3.67437e-09)
(2.58381e-10 -6.82807e-08 -3.67428e-09)
(1.04506e-08 -6.85735e-08 -3.58067e-09)
(1.96392e-08 -6.94744e-08 -3.39094e-09)
(2.7191e-08 -7.07396e-08 -3.12971e-09)
(3.2684e-08 -7.21855e-08 -2.83198e-09)
(3.58865e-08 -7.36229e-08 -2.51415e-09)
(3.68258e-08 -7.48397e-08 -2.20253e-09)
(3.56449e-08 -7.56116e-08 -1.91448e-09)
(3.26537e-08 -7.56781e-08 -1.67259e-09)
(2.81933e-08 -7.47409e-08 -1.47554e-09)
(2.27398e-08 -7.23791e-08 -1.33605e-09)
(1.6707e-08 -6.79565e-08 -1.22863e-09)
(1.06395e-08 -6.03779e-08 -1.15552e-09)
(5.06167e-09 -4.74975e-08 -9.78088e-10)
(6.38658e-10 -2.43603e-08 -5.73708e-10)
(-6.11772e-10 -1.88927e-08 -5.93015e-10)
(-5.04439e-09 -3.73747e-08 -9.82506e-10)
(-1.08255e-08 -4.80406e-08 -1.15679e-09)
(-1.73063e-08 -5.44255e-08 -1.21628e-09)
(-2.39445e-08 -5.8156e-08 -1.30777e-09)
(-3.01358e-08 -6.00392e-08 -1.42648e-09)