/*--------------------------------*- C++ -*----------------------------------*\
| =========                 |                                                 |
| \\      /  F ield         | OpenFOAM: The Open Source CFD Toolbox           |
|  \\    /   O peration     | Version:  v1906                                 |
|   \\  /    A nd           | Web:      www.OpenFOAM.com                      |
|    \\/     M anipulation  |                                                 |
\*---------------------------------------------------------------------------*/
FoamFile
{
    version     2.0;
    format      ascii;
    class       surfaceScalarField;
    location    "34.8/oil";
    object      phi;
}
// * * * * * * * * * * * * * * * * * * * * * * * * * * * * * * * * * * * * * //

dimensions      [1 0 -1 0 0 0 0];
oriented        oriented;


internalField   nonuniform List<scalar> 
80688
(
-2.38002e-06
-2.42105e-06
-2.38002e-06
-1.07536e-06
-6.74575e-07
-6.30082e-07
-2.93729e-07
-3.93214e-07
-3.88416e-07
-1.46516e-07
-7.38695e-08
-7.33437e-08
-6.19628e-08
-4.26111e-08
-4.19423e-08
-2.24911e-08
-2.01695e-08
-1.93022e-08
-2.26523e-09
-1.05832e-08
-9.64274e-09
8.38353e-09
-5.82513e-09
-4.82367e-09
1.37476e-08
-3.24611e-09
-2.11803e-09
1.57378e-08
-1.66131e-09
-3.28897e-10
1.5306e-08
-5.682e-10
9.99977e-10
1.30067e-08
2.36351e-10
2.06298e-09
9.27346e-09
8.40858e-10
2.89233e-09
4.54201e-09
1.25205e-09
3.47939e-09
-7.30931e-10
1.47483e-09
3.7981e-09
-6.07595e-09
1.51011e-09
3.8349e-09
-1.104e-08
1.3662e-09
3.59789e-09
-1.52229e-08
1.06252e-09
3.12035e-09
-1.83124e-08
6.2959e-10
2.45984e-09
-2.01049e-08
1.03567e-10
1.68896e-09
-2.05299e-08
-4.62343e-10
8.87341e-10
-1.96358e-08
-1.03563e-09
1.41513e-10
-1.75738e-08
-1.57512e-09
-4.86849e-10
-1.46055e-08
-2.04409e-09
-9.24261e-10
-1.10755e-08
-2.4037e-09
-1.12628e-09
-7.3965e-09
-2.60297e-09
-1.07601e-09
-4.03184e-09
-2.56845e-09
-7.96216e-10
-1.45899e-09
-2.19763e-09
-3.75235e-10
-8.19993e-11
-1.36401e-09
-1.29858e-11
-1.70963e-10
8.89576e-11
-6.41367e-07
-1.13831e-06
-6.41367e-07
-3.85671e-07
-4.14707e-07
-5.15564e-07
-2.78093e-07
-2.78548e-07
-2.22245e-07
-1.40498e-07
-1.20583e-07
-9.08811e-08
-6.35315e-08
-7.23004e-08
-4.72774e-08
-1.96124e-08
-4.30963e-08
-2.09923e-08
6.5982e-09
-2.91902e-08
-7.60364e-09
2.19748e-08
-2.13557e-08
1.53985e-10
3.0168e-08
-1.66074e-08
5.16795e-09
3.30092e-08
-1.33716e-08
8.86913e-09
3.15591e-08
-1.09615e-08
1.18433e-08
2.6591e-08
-9.08917e-09
1.42936e-08
1.88502e-08
-7.65603e-09
1.62377e-08
9.14136e-09
-6.65598e-09
1.76168e-08
-1.64487e-09
-6.10362e-09
1.83647e-08
-1.25743e-08
-6.0066e-09
1.84462e-08
-2.27393e-08
-6.34571e-09
1.78769e-08
-3.13377e-08
-7.06833e-09
1.67292e-08
-3.77436e-08
-8.09149e-09
1.51269e-08
-4.15563e-08
-9.30917e-09
1.32255e-08
-4.26192e-08
-1.06043e-08
1.12049e-08
-4.10277e-08
-1.18577e-08
9.23056e-09
-3.71042e-08
-1.29515e-08
7.45286e-09
-3.13644e-08
-1.37685e-08
5.98463e-09
-2.4481e-08
-1.41802e-08
4.89303e-09
-1.72366e-08
-1.40269e-08
4.17954e-09
-1.04648e-08
-1.30978e-08
3.75751e-09
-4.96271e-09
-1.11168e-08
3.41706e-09
-1.35869e-09
-7.74406e-09
2.77602e-09
-2.89604e-09
1.36638e-09
-3.99971e-07
-3.38372e-07
-3.99971e-07
-2.69618e-07
-3.16964e-07
-2.28097e-07
-1.83461e-07
-2.2232e-07
-1.42385e-07
-9.90472e-08
-1.32886e-07
-7.21108e-08
-4.35442e-08
-9.23622e-08
-3.54413e-08
-6.15604e-09
-6.72007e-08
-1.32837e-08
1.84379e-08
-5.33403e-08
-4.43738e-10
3.39011e-08
-4.46461e-08
7.82711e-09
4.22938e-08
-3.87753e-08
1.37752e-08
4.48033e-08
-3.43851e-08
1.85041e-08
4.22415e-08
-3.08817e-08
2.2482e-08
3.53435e-08
-2.80301e-08
2.58389e-08
2.49463e-08
-2.57866e-08
2.85277e-08
1.20371e-08
-2.41914e-08
3.04446e-08
-2.2505e-09
-2.32993e-08
3.14834e-08
-1.67128e-08
-2.3135e-08
3.15907e-08
-3.01731e-08
-2.367e-08
3.07846e-08
-4.15871e-08
-2.48151e-08
2.91607e-08
-5.01431e-08
-2.64226e-08
2.68872e-08
-5.53189e-08
-2.83071e-08
2.41737e-08
-5.69224e-08
-3.02582e-08
2.12573e-08
-5.50765e-08
-3.206e-08
1.83564e-08
-5.01991e-08
-3.34965e-08
1.56676e-08
-4.29458e-08
-3.4347e-08
1.33253e-08
-3.41572e-08
-3.43693e-08
1.14005e-08
-2.47882e-08
-3.32712e-08
9.87536e-09
-1.58218e-08
-3.06817e-08
8.6174e-09
-8.17382e-09
-2.61082e-08
7.34353e-09
-2.61412e-09
-1.88758e-08
5.57206e-09
-8.132e-09
2.62183e-09
-7.76608e-08
-1.83051e-07
-7.76599e-08
-1.05086e-07
-1.97429e-07
-9.21096e-08
-8.60392e-08
-1.69696e-07
-7.16705e-08
-4.83073e-08
-1.31159e-07
-3.94587e-08
-1.48763e-08
-1.07969e-07
-1.78239e-08
1.2105e-08
-9.15064e-08
-2.67575e-09
3.20024e-08
-8.08672e-08
7.62951e-09
4.5354e-08
-7.32292e-08
1.52315e-08
5.26013e-08
-6.73523e-08
2.13296e-08
5.41225e-08
-6.24689e-08
2.65625e-08
5.03375e-08
-5.82631e-08
3.11665e-08
4.1827e-08
-5.46661e-08
3.51465e-08
2.94149e-08
-5.17493e-08
3.83749e-08
1.41723e-08
-4.9639e-08
4.06901e-08
-2.62624e-09
-4.84455e-08
4.19448e-08
-1.96023e-08
-4.82227e-08
4.20637e-08
-3.54001e-08
-4.89369e-08
4.10646e-08
-4.88161e-08
-5.04621e-08
3.9063e-08
-5.89119e-08
-5.25865e-08
3.62597e-08
-6.50942e-08
-5.50349e-08
3.29101e-08
-6.71448e-08
-5.74988e-08
2.92913e-08
-6.52143e-08
-5.96581e-08
2.56676e-08
-5.97771e-08
-6.11932e-08
2.22594e-08
-5.15739e-08
-6.17689e-08
1.92187e-08
-4.15332e-08
-6.10268e-08
1.66167e-08
-3.06911e-08
-5.85346e-08
1.44213e-08
-2.01052e-08
-5.37404e-08
1.24729e-08
-1.07679e-08
-4.58892e-08
1.04436e-08
-3.61715e-09
-3.38092e-08
7.7826e-09
-1.53754e-08
3.6262e-09
-4.00238e-08
-1.03005e-07
-4.00222e-08
-5.00145e-08
-1.42578e-07
-4.48606e-08
-3.8559e-08
-1.47284e-07
-3.38677e-08
-1.59512e-08
-1.36404e-07
-1.73627e-08
7.13382e-09
-1.26925e-07
-4.12887e-09
2.77093e-08
-1.18428e-07
6.34655e-09
4.39907e-08
-1.11696e-07
1.45478e-08
5.52914e-08
-1.05913e-07
2.13834e-08
6.12306e-08
-1.00716e-07
2.74249e-08
6.1676e-08
-9.58721e-08
3.29578e-08
5.67514e-08
-9.13607e-08
3.80221e-08
4.68984e-08
-8.73097e-08
4.24966e-08
3.29011e-08
-8.39275e-08
4.61755e-08
1.58705e-08
-8.14362e-08
4.88278e-08
-2.824e-09
-8.00155e-08
5.02645e-08
-2.16826e-08
-7.97502e-08
5.03861e-08
-3.92194e-08
-8.06066e-08
4.92065e-08
-5.41151e-08
-8.2426e-08
4.68597e-08
-6.5346e-08
-8.49357e-08
4.35801e-08
-7.22708e-08
-8.77763e-08
3.96662e-08
-7.46617e-08
-9.05481e-08
3.54401e-08
-7.26898e-08
-9.28303e-08
3.12003e-08
-6.68757e-08
-9.41955e-08
2.71882e-08
-5.80104e-08
-9.42087e-08
2.35745e-08
-4.70739e-08
-9.23936e-08
2.04303e-08
-3.5149e-08
-8.81739e-08
1.77144e-08
-2.33365e-08
-8.08017e-08
1.52488e-08
-1.27024e-08
-6.91947e-08
1.26714e-08
-4.34575e-09
-5.15425e-08
9.37661e-09
-2.4078e-08
4.3569e-09
-1.48879e-08
-7.32313e-08
-1.48857e-08
-1.71523e-08
-1.23415e-07
-1.68979e-08
-9.04281e-09
-1.44046e-07
-1.13477e-08
6.40718e-09
-1.49308e-07
-2.54566e-09
2.37109e-08
-1.4998e-07
5.75068e-09
4.01718e-08
-1.48114e-07
1.32248e-08
5.38049e-08
-1.45254e-07
1.99248e-08
6.34071e-08
-1.41681e-07
2.61656e-08
6.81708e-08
-1.37632e-07
3.21522e-08
6.76493e-08
-1.33285e-07
3.79341e-08
6.17639e-08
-1.28877e-07
4.34015e-08
5.08397e-08
-1.24713e-07
4.83276e-08
3.56171e-08
-1.21129e-07
5.24241e-08
1.72311e-08
-1.18443e-07
5.53931e-08
-2.8851e-09
-1.16897e-07
5.69975e-08
-2.31418e-08
-1.16608e-07
5.71143e-08
-4.19581e-08
-1.17545e-07
5.57551e-08
-5.79269e-08
-1.19525e-07
5.30682e-08
-6.99651e-08
-1.22223e-07
4.93258e-08
-7.74035e-08
-1.25212e-07
4.48736e-08
-8.00158e-08
-1.28014e-07
4.00788e-08
-7.79967e-08
-1.30121e-07
3.52713e-08
-7.19023e-08
-1.31021e-07
3.0731e-08
-6.25599e-08
-1.30183e-07
2.6632e-08
-5.09825e-08
-1.2702e-07
2.3049e-08
-3.82788e-08
-1.20812e-07
1.9934e-08
-2.55851e-08
-1.10591e-07
1.7096e-08
-1.40251e-08
-9.49019e-08
1.41472e-08
-4.83034e-09
-7.11708e-08
1.04335e-08
-3.3752e-08
4.84366e-09
-4.29016e-09
-6.46536e-08
-4.28756e-09
-1.78015e-09
-1.22642e-07
-3.28377e-09
6.77281e-09
-1.53338e-07
7.38997e-10
1.99277e-08
-1.688e-07
6.33644e-09
3.46567e-08
-1.76849e-07
1.21406e-08
4.88942e-08
-1.80294e-07
1.79428e-08
6.08679e-08
-1.80967e-07
2.37391e-08
6.92743e-08
-1.79712e-07
2.96247e-08
7.31527e-08
-1.77136e-07
3.56253e-08
7.18955e-08
-1.73682e-07
4.1654e-08
6.53012e-08
-1.69782e-07
4.74998e-08
5.36153e-08
-1.65877e-07
5.28501e-08
3.75462e-08
-1.62398e-07
5.73382e-08
1.82312e-08
-1.59737e-07
6.06089e-08
-2.8486e-09
-1.5819e-07
6.23734e-08
-2.40423e-08
-1.57896e-07
6.24814e-08
-4.37026e-08
-1.58827e-07
6.09421e-08
-6.03613e-08
-1.60789e-07
5.79223e-08
-7.28983e-08
-1.63421e-07
5.37352e-08
-8.06293e-08
-1.6625e-07
4.87693e-08
-8.33421e-08
-1.68741e-07
4.34393e-08
-8.12566e-08
-1.70328e-07
3.81218e-08
-7.49609e-08
-1.70431e-07
3.31144e-08
-6.53068e-08
-1.68443e-07
2.86059e-08
-5.33274e-08
-1.63673e-07
2.46738e-08
-4.01444e-08
-1.55257e-07
2.1262e-08
-2.69123e-08
-1.41992e-07
1.81681e-08
-1.47952e-08
-1.22007e-07
1.4988e-08
-5.10615e-09
-9.18936e-08
1.10337e-08
-4.39794e-08
5.12128e-09
5.54107e-10
-6.57646e-08
5.56913e-10
6.01886e-09
-1.31649e-07
3.54299e-09
1.54198e-08
-1.69905e-07
7.16605e-09
2.77956e-08
-1.92563e-07
1.13879e-08
4.12627e-08
-2.06254e-07
1.59372e-08
5.42031e-08
-2.14064e-07
2.08296e-08
6.50848e-08
-2.17957e-07
2.61076e-08
7.26519e-08
-2.19079e-07
3.17997e-08
7.58957e-08
-2.1823e-07
3.78504e-08
7.41496e-08
-2.16032e-07
4.40965e-08
6.71352e-08
-2.13032e-07
5.02637e-08
5.50428e-08
-2.09765e-07
5.59804e-08
3.85465e-08
-2.06717e-07
6.08155e-08
1.87839e-08
-2.04325e-07
6.43504e-08
-2.74848e-09
-2.02907e-07
6.62494e-08
-2.43691e-08
-2.02622e-07
6.63474e-08
-4.43974e-08
-2.03448e-07
6.46488e-08
-6.13325e-08
-2.05184e-07
6.13305e-08
-7.40406e-08
-2.07457e-07
5.67433e-08
-8.18394e-08
-2.0978e-07
5.13289e-08
-8.45381e-08
-2.11589e-07
4.55466e-08
-8.23852e-08
-2.12286e-07
3.98049e-08
-7.59869e-08
-2.11248e-07
3.44193e-08
-6.62121e-08
-2.07811e-07
2.95935e-08
-5.40978e-08
-2.01195e-07
2.54078e-08
-4.07619e-08
-1.90393e-07
2.18006e-08
-2.73542e-08
-1.73958e-07
1.85587e-08
-1.50505e-08
-1.49578e-07
1.52677e-08
-5.19615e-09
-1.12973e-07
1.12249e-08
-5.4388e-08
5.21243e-09
2.7062e-09
-7.11798e-08
2.70895e-09
9.67171e-09
-1.45389e-07
6.77439e-09
1.9605e-08
-1.90143e-07
1.03051e-08
3.1592e-08
-2.1845e-07
1.38995e-08
4.42701e-08
-2.36725e-07
1.77928e-08
5.63033e-08
-2.48264e-07
2.21666e-08
6.63671e-08
-2.55136e-07
2.71158e-08
7.3289e-08
-2.58658e-07
3.26565e-08
7.60915e-08
-2.59747e-07
3.87146e-08
7.40818e-08
-2.59112e-07
4.50895e-08
6.69594e-08
-2.57373e-07
5.14641e-08
5.48593e-08
-2.55089e-07
5.74242e-08
3.84255e-08
-2.5277e-07
6.24861e-08
1.87718e-08
-2.50864e-07
6.61926e-08
-2.61398e-09
-2.49703e-07
6.81813e-08
-2.40643e-08
-2.49439e-07
6.8267e-08
-4.39074e-08
-2.50056e-07
6.64517e-08
-6.06516e-08
-2.51363e-07
6.29228e-08
-7.31698e-08
-2.53001e-07
5.80625e-08
-8.08032e-08
-2.54484e-07
5.23371e-08
-8.33844e-08
-2.55246e-07
4.62381e-08
-8.11842e-08
-2.547e-07
4.0214e-08
-7.48183e-08
-2.5221e-07
3.45956e-08
-6.51601e-08
-2.47063e-07
2.95928e-08
-5.3224e-08
-2.38407e-07
2.52758e-08
-4.01012e-08
-2.25098e-07
2.15821e-08
-2.6911e-08
-2.05454e-07
1.83055e-08
-1.48047e-08
-1.76708e-07
1.50229e-08
-5.10881e-09
-1.337e-07
1.10312e-08
-6.46223e-08
5.12541e-09
3.54626e-09
-7.82747e-08
3.54867e-09
1.10217e-08
-1.60882e-07
8.01694e-09
2.095e-08
-2.115e-07
1.14288e-08
3.24019e-08
-2.44553e-07
1.46508e-08
4.42642e-08
-2.66717e-07
1.81295e-08
5.54059e-08
-2.81534e-07
2.21284e-08
6.46812e-08
-2.91196e-07
2.67843e-08
7.1005e-08
-2.97104e-07
3.21229e-08
7.34698e-08
-3.00267e-07
3.8055e-08
7.14018e-08
-3.01425e-07
4.4381e-08
6.44725e-08
-3.01207e-07
5.07626e-08
5.27977e-08
-3.00174e-07
5.6759e-08
3.69785e-08
-2.98821e-07
6.18709e-08
1.80785e-08
-2.97586e-07
6.5622e-08
-2.46824e-09
-2.96774e-07
6.76178e-08
-2.3059e-08
-2.96539e-07
6.76906e-08
-4.20878e-08
-2.96869e-07
6.58412e-08
-5.81092e-08
-2.97582e-07
6.22408e-08
-7.00409e-08
-2.98349e-07
5.72803e-08
-7.7264e-08
-2.98714e-07
5.14534e-08
-7.96346e-08
-2.98152e-07
4.52764e-08
-7.74378e-08
-2.96087e-07
3.91898e-08
-7.12888e-08
-2.91896e-07
3.35374e-08
-6.20255e-08
-2.84855e-07
2.85291e-08
-5.06234e-08
-2.74047e-07
2.42374e-08
-3.81155e-08
-2.58208e-07
2.06022e-08
-2.55673e-08
-2.35408e-07
1.74059e-08
-1.40586e-08
-2.02463e-07
1.42468e-08
-4.84792e-09
-1.53368e-07
1.0457e-08
-7.43342e-08
4.86399e-09
3.67662e-09
-8.56295e-08
3.67813e-09
1.09405e-08
-1.76209e-07
8.06302e-09
2.02942e-08
-2.32093e-07
1.12391e-08
3.08356e-08
-2.69216e-07
1.41222e-08
4.16243e-08
-2.94727e-07
1.72214e-08
5.16911e-08
-3.12442e-07
2.08411e-08
6.00346e-08
-3.24671e-07
2.51322e-08
6.57048e-08
-3.32896e-07
3.01218e-08
6.7867e-08
-3.38158e-07
3.57285e-08
6.5892e-08
-3.41202e-07
4.17526e-08
5.9464e-08
-3.42636e-07
4.78578e-08
4.86734e-08
-3.42999e-07
5.36156e-08
3.40629e-08
-3.42739e-07
5.85278e-08
1.66191e-08
-3.42268e-07
6.21256e-08
-2.32897e-09
-3.41853e-07
6.40266e-08
-2.13034e-08
-3.4165e-07
6.40853e-08
-3.88242e-08
-3.41644e-07
6.22962e-08
-5.35419e-08
-3.4168e-07
5.88149e-08
-6.44651e-08
-3.41451e-07
5.40251e-08
-7.10271e-08
-3.40544e-07
4.8392e-08
-7.31008e-08
-3.38497e-07
4.24188e-08
-7.09838e-08
-3.34757e-07
3.65527e-08
-6.52608e-08
-3.28748e-07
3.11286e-08
-5.67123e-08
-3.19745e-07
2.6341e-08
-4.62366e-08
-3.06783e-07
2.2261e-08
-3.47842e-08
-2.88493e-07
1.88327e-08
-2.3312e-08
-2.62739e-07
1.58588e-08
-1.28078e-08
-2.25926e-07
1.29584e-08
-4.41456e-09
-1.71268e-07
9.50677e-09
-8.31781e-08
4.42937e-09
3.37366e-09
-9.23774e-08
3.37429e-09
9.87268e-09
-1.90015e-07
7.30705e-09
1.81262e-08
-2.50437e-07
1.00898e-08
2.73171e-08
-2.90986e-07
1.25784e-08
3.66653e-08
-3.19336e-07
1.52607e-08
4.5351e-08
-3.3955e-07
1.84224e-08
5.25383e-08
-3.54064e-07
2.22055e-08
5.74231e-08
-3.64432e-07
2.66506e-08
5.92638e-08
-3.71679e-07
3.16807e-08
5.75163e-08
-3.76564e-07
3.71093e-08
5.18914e-08
-3.79643e-07
4.26317e-08
4.24374e-08
-3.81394e-07
4.78496e-08
2.96473e-08
-3.82243e-07
5.22948e-08
1.43712e-08
-3.82533e-07
5.55411e-08
-2.20704e-09
-3.8252e-07
5.72455e-08
-1.87963e-08
-3.8235e-07
5.72896e-08
-3.40995e-08
-3.82016e-07
5.56749e-08
-4.69345e-08
-3.81356e-07
5.25116e-08
-5.64163e-08
-3.80111e-07
4.81413e-08
-6.20485e-08
-3.77917e-07
4.30052e-08
-6.37614e-08
-3.74353e-07
3.75688e-08
-6.18127e-08
-3.68951e-07
3.22454e-08
-5.67362e-08
-3.6116e-07
2.73356e-08
-4.92321e-08
-3.50264e-07
2.30158e-08
-4.00864e-08
-3.35286e-07
1.93568e-08
-3.01174e-08
-3.14762e-07
1.63001e-08
-2.01636e-08
-2.86367e-07
1.36741e-08
-1.10702e-08
-2.4617e-07
1.1151e-08
-3.80998e-09
-1.8671e-07
8.18245e-09
-9.0811e-08
3.82287e-09
2.78256e-09
-9.79427e-08
2.78267e-09
8.08398e-09
-2.01305e-07
5.98887e-09
1.47648e-08
-2.6535e-07
8.23223e-09
2.2172e-08
-3.08621e-07
1.02284e-08
2.96758e-08
-3.39236e-07
1.23961e-08
3.66476e-08
-3.61501e-07
1.49785e-08
4.2427e-08
-3.77934e-07
1.80906e-08
4.63604e-08
-3.90143e-07
2.17779e-08
4.78546e-08
-3.99148e-07
2.59742e-08
4.64464e-08
-4.05677e-07
3.05214e-08
4.18849e-08
-4.10244e-07
3.51623e-08
3.42091e-08
-4.13258e-07
3.954e-08
2.38078e-08
-4.15099e-07
4.32571e-08
1.1375e-08
-4.16063e-07
4.59627e-08
-2.10923e-09
-4.16406e-07
4.73706e-08
-1.55916e-08
-4.16265e-07
4.73973e-08
-2.80176e-08
-4.15631e-07
4.60417e-08
-3.83946e-08
-4.14364e-07
4.3385e-08
-4.60132e-08
-4.12203e-07
3.97102e-08
-5.04862e-08
-4.08828e-07
3.53836e-08
-5.17594e-08
-4.03889e-07
3.08091e-08
-5.00663e-08
-3.96974e-07
2.63302e-08
-4.58567e-08
-3.87574e-07
2.22042e-08
-3.97142e-08
-3.75005e-07
1.85979e-08
-3.22734e-08
-3.58285e-07
1.55586e-08
-2.42104e-08
-3.35865e-07
1.30399e-08
-1.61851e-08
-3.05298e-07
1.09061e-08
-8.86907e-09
-2.6237e-07
8.88413e-09
-3.0499e-09
-1.99055e-07
6.52571e-09
-9.69215e-08
3.06064e-09
1.9864e-09
-1.01912e-07
1.98304e-09
5.74475e-09
-2.09309e-07
4.24535e-09
1.04706e-08
-2.75892e-07
5.81648e-09
1.57006e-08
-3.21082e-07
7.23117e-09
2.10127e-08
-3.53338e-07
8.78986e-09
2.59633e-08
-3.77122e-07
1.06706e-08
3.00878e-08
-3.95034e-07
1.29751e-08
3.29169e-08
-4.08697e-07
1.57248e-08
3.40224e-08
-4.19131e-07
1.88775e-08
3.3052e-08
-4.27015e-07
2.23079e-08
2.98052e-08
-4.32814e-07
2.58167e-08
2.42917e-08
-4.36895e-07
2.91502e-08
1.67695e-08
-4.39575e-07
3.19979e-08
7.75436e-09
-4.41121e-07
3.40736e-08
-2.03576e-09
-4.41764e-07
3.51481e-08
-1.18116e-08
-4.41646e-07
3.51565e-08
-2.07796e-08
-4.40762e-07
3.40989e-08
-2.82231e-08
-4.38961e-07
3.20397e-08
-3.36221e-08
-4.3602e-07
2.92163e-08
-3.67078e-08
-4.3165e-07
2.59085e-08
-3.74649e-08
-4.25554e-07
2.24226e-08
-3.60939e-08
-4.17383e-07
1.90376e-08
-3.29382e-08
-4.06672e-07
1.5942e-08
-2.84283e-08
-3.92763e-07
1.32484e-08
-2.30354e-08
-3.74681e-07
1.10026e-08
-1.72329e-08
-3.50834e-07
9.16658e-09
-1.14866e-08
-3.18672e-07
7.62768e-09
-6.28011e-09
-2.73781e-07
6.20445e-09
-2.1513e-09
-2.07756e-07
4.57179e-09
-1.01233e-07
2.15968e-09
1.04433e-09
-1.03997e-07
1.04051e-09
3.00518e-09
-2.13469e-07
2.19926e-09
5.48362e-09
-2.81376e-07
3.00582e-09
8.23976e-09
-3.27596e-07
3.75752e-09
1.10666e-08
-3.6079e-07
4.62554e-09
1.37374e-08
-3.85506e-07
5.71345e-09
1.60039e-08
-4.04378e-07
7.07739e-09
1.76032e-08
-4.19026e-07
8.72959e-09
1.82891e-08
-4.30469e-07
1.06527e-08
1.78319e-08
-4.39344e-07
1.2786e-08
1.60831e-08
-4.46075e-07
1.50094e-08
1.30293e-08
-4.5099e-07
1.7149e-08
8.7856e-09
-4.54329e-07
1.89983e-08
3.63725e-09
-4.56349e-07
2.03757e-08
-1.9838e-09
-4.57239e-07
2.10955e-08
-7.5794e-09
-4.57135e-07
2.10848e-08
-1.26546e-08
-4.56034e-07
2.0347e-08
-1.67736e-08
-4.53797e-07
1.89551e-08
-1.96562e-08
-4.50232e-07
1.7095e-08
-2.11769e-08
-4.45091e-07
1.49614e-08
-2.13621e-08
-4.38136e-07
1.27674e-08
-2.03708e-08
-4.29039e-07
1.06653e-08
-1.84239e-08
-4.17395e-07
8.77628e-09
-1.57624e-08
-4.02594e-07
7.16904e-09
-1.26742e-08
-3.83619e-07
5.84969e-09
-9.4078e-09
-3.58901e-07
4.80055e-09
-6.23042e-09
-3.25809e-07
3.95951e-09
-3.3804e-09
-2.79848e-07
3.21703e-09
-1.14815e-09
-2.12378e-07
2.38998e-09
-1.03535e-07
1.15448e-09
1.17312e-11
-1.04015e-07
6.49975e-12
2.41027e-11
-2.13445e-07
-3.65867e-11
4.97559e-11
-2.8134e-07
-6.18656e-11
1.29939e-10
-3.2765e-07
-2.59181e-11
2.78947e-10
-3.61035e-07
9.59752e-11
4.98495e-10
-3.86046e-07
3.20559e-10
7.6954e-10
-4.05309e-07
6.6044e-10
1.05024e-09
-4.20438e-07
1.13101e-09
1.27773e-09
-4.32428e-07
1.73093e-09
1.3743e-09
-4.41888e-07
2.44792e-09
1.26278e-09
-4.49217e-07
3.25378e-09
8.66097e-10
-4.54702e-07
4.10828e-09
1.59036e-10
-4.58543e-07
4.92035e-09
-8.16795e-10
-4.60943e-07
5.57059e-09
-1.94563e-09
-4.62039e-07
5.92914e-09
-3.03941e-09
-4.61944e-07
5.90243e-09
-3.91471e-09
-4.60656e-07
5.49687e-09
-4.45572e-09
-4.58061e-07
4.80554e-09
-4.63857e-09
-4.54023e-07
3.97376e-09
-4.48454e-09
-4.48355e-07
3.11016e-09
-4.08811e-09
-4.40839e-07
2.30666e-09
-3.52133e-09
-4.31218e-07
1.61223e-09
-2.86884e-09
-4.19093e-07
1.04537e-09
-2.21831e-09
-4.03858e-07
6.14221e-10
-1.59993e-09
-3.84553e-07
3.155e-10
-1.0624e-09
-3.59569e-07
1.29846e-10
-6.14479e-10
-3.26299e-07
4.15023e-11
-2.83901e-10
-2.80209e-07
3.02338e-11
-7.57847e-11
-2.12651e-07
6.49589e-11
-1.03691e-07
8.04673e-11
-1.06029e-09
-1.01889e-07
-1.06557e-09
-3.07533e-09
-2.09077e-07
-2.35293e-09
-5.56983e-09
-2.75612e-07
-3.23315e-09
-8.25217e-09
-3.21033e-07
-3.93479e-09
-1.08588e-08
-3.53844e-07
-4.58468e-09
-1.31698e-08
-3.78481e-07
-5.254e-09
-1.49669e-08
-3.97526e-07
-5.98633e-09
-1.60675e-08
-4.12558e-07
-6.77955e-09
-1.63338e-08
-4.24553e-07
-7.60864e-09
-1.56944e-08
-4.34111e-07
-8.41655e-09
-1.41576e-08
-4.41617e-07
-9.13662e-09
-1.18213e-08
-4.47326e-07
-9.71229e-09
-8.86058e-09
-4.51406e-07
-1.00976e-08
-5.48728e-09
-4.54016e-07
-1.03011e-08
-1.91443e-09
-4.5523e-07
-1.03814e-08
1.69941e-09
-4.55142e-07
-1.04151e-08
5.1878e-09
-4.53739e-07
-1.04047e-08
8.34311e-09
-4.50948e-07
-1.02681e-08
1.09306e-08
-4.46688e-07
-9.92275e-09
1.27663e-08
-4.40824e-07
-9.36763e-09
1.37394e-08
-4.33166e-07
-8.64682e-09
1.38308e-08
-4.23488e-07
-7.82194e-09
1.31032e-08
-4.11402e-07
-6.96309e-09
1.16848e-08
-3.96308e-07
-6.13246e-09
9.75046e-09
-3.77258e-07
-5.35986e-09
7.49618e-09
-3.52665e-07
-4.64978e-09
5.12961e-09
-3.19972e-07
-3.96032e-09
2.88436e-09
-2.74742e-07
-3.2217e-09
1.02097e-09
-2.08477e-07
-2.31055e-09
-1.01653e-07
-1.01731e-09
-2.11848e-09
-9.76443e-08
-2.12664e-09
-6.13097e-09
-2.00426e-07
-4.63786e-09
-1.11139e-08
-2.64264e-07
-6.36548e-09
-1.65085e-08
-3.0785e-07
-7.78842e-09
-2.184e-08
-3.39315e-07
-9.1974e-09
-2.66453e-08
-3.62917e-07
-1.07587e-08
-3.0493e-08
-3.81131e-07
-1.25476e-08
-3.29763e-08
-3.95476e-07
-1.45982e-08
-3.37634e-08
-4.069e-07
-1.68652e-08
-3.26357e-08
-4.1599e-07
-1.92482e-08
-2.95078e-08
-4.23144e-07
-2.16008e-08
-2.45011e-08
-4.28607e-07
-2.3726e-08
-1.79037e-08
-4.32556e-07
-2.54476e-08
-1.01812e-08
-4.35104e-07
-2.66341e-08
-1.88319e-09
-4.36312e-07
-2.72161e-08
6.46059e-09
-4.36224e-07
-2.72624e-08
1.43127e-08
-4.34828e-07
-2.67633e-08
2.11199e-08
-4.32106e-07
-2.56498e-08
2.64026e-08
-4.27997e-07
-2.39733e-08
2.98459e-08
-4.22391e-07
-2.18758e-08
3.13282e-08
-4.15114e-07
-1.9534e-08
3.09098e-08
-4.05931e-07
-1.71385e-08
2.87992e-08
-3.94446e-07
-1.48449e-08
2.53254e-08
-3.80075e-07
-1.27594e-08
2.08708e-08
-3.61873e-07
-1.09311e-08
1.58698e-08
-3.38336e-07
-9.32759e-09
1.0757e-08
-3.06984e-07
-7.87455e-09
5.9839e-09
-2.63564e-07
-6.40538e-09
2.09784e-09
-1.99958e-07
-4.63296e-09
-9.74608e-08
-2.09457e-09
-3.11411e-09
-9.14083e-08
-3.12191e-09
-8.99667e-09
-1.87766e-07
-6.77831e-09
-1.63142e-08
-2.47654e-07
-9.29249e-09
-2.42549e-08
-2.88518e-07
-1.13919e-08
-3.21348e-08
-3.1793e-07
-1.35046e-08
-3.9285e-08
-3.39879e-07
-1.58883e-08
-4.50644e-08
-3.56678e-07
-1.86736e-08
-4.88641e-08
-3.69774e-07
-2.19025e-08
-5.01742e-08
-3.80055e-07
-2.5535e-08
-4.8611e-08
-3.88126e-07
-2.94274e-08
-4.40226e-08
-3.94382e-07
-3.33503e-08
-3.65171e-08
-3.99098e-07
-3.70139e-08
-2.65042e-08
-4.02465e-07
-4.01031e-08
-1.46591e-08
-4.0462e-07
-4.23288e-08
-1.84753e-09
-4.05637e-07
-4.34868e-08
1.10126e-08
-4.05543e-07
-4.35404e-08
2.29989e-08
-4.04344e-07
-4.24707e-08
3.32268e-08
-4.02017e-07
-4.03169e-08
4.10131e-08
-3.98495e-07
-3.72888e-08
4.59313e-08
-3.93652e-07
-3.36568e-08
4.7854e-08
-3.87297e-07
-2.97398e-08
4.69193e-08
-3.79158e-07
-2.58386e-08
4.34903e-08
-3.68834e-07
-2.21838e-08
3.80774e-08
-3.55739e-07
-1.89229e-08
3.12693e-08
-3.38965e-07
-1.60993e-08
2.36948e-08
-3.17087e-07
-1.36741e-08
1.60116e-08
-2.87786e-07
-1.15147e-08
8.88698e-09
-2.47075e-07
-9.36387e-09
3.10268e-09
-1.87378e-07
-6.7959e-09
-9.12589e-08
-3.09926e-09
-4.00115e-09
-8.33984e-08
-4.00877e-09
-1.1546e-08
-1.71534e-07
-8.68713e-09
-2.09258e-08
-2.26378e-07
-1.18962e-08
-3.11219e-08
-2.63743e-07
-1.45789e-08
-4.12529e-08
-2.90511e-07
-1.72882e-08
-5.04761e-08
-3.10288e-07
-2.03677e-08
-5.79551e-08
-3.25202e-07
-2.39972e-08
-6.29172e-08
-3.36576e-07
-2.8236e-08
-6.46794e-08
-3.45271e-07
-3.30222e-08
-6.27411e-08
-3.51877e-07
-3.81875e-08
-5.6869e-08
-3.56802e-07
-4.3452e-08
-4.71653e-08
-3.60365e-07
-4.84373e-08
-3.41296e-08
-3.62803e-07
-5.26984e-08
-1.86223e-08
-3.64307e-07
-5.58212e-08
-1.80391e-09
-3.64989e-07
-5.74668e-08
1.50616e-08
-3.64896e-07
-5.75129e-08
3.07048e-08
-3.64033e-07
-5.59539e-08
4.39648e-08
-3.6237e-07
-5.29071e-08
5.39519e-08
-3.5978e-07
-4.87015e-08
6.01547e-08
-3.56105e-07
-4.37505e-08
6.24521e-08
-3.51094e-07
-3.85002e-08
6.10589e-08
-3.44434e-07
-3.33309e-08
5.64685e-08
-3.35716e-07
-2.85267e-08
4.93422e-08
-3.24352e-07
-2.42603e-08
4.04499e-08
-3.09477e-07
-2.05956e-08
3.06137e-08
-2.89776e-07
-1.74756e-08
2.06594e-08
-2.63113e-07
-1.47196e-08
1.14494e-08
-2.25881e-07
-1.19837e-08
3.99516e-09
-1.71208e-07
-8.71633e-09
-8.32725e-08
-3.99124e-09
-4.73525e-09
-7.39202e-08
-4.74293e-09
-1.36549e-08
-1.52352e-07
-1.02621e-08
-2.47452e-08
-2.01254e-07
-1.40336e-08
-3.67989e-08
-2.34504e-07
-1.7185e-08
-4.8787e-08
-2.58151e-07
-2.03723e-08
-5.97107e-08
-2.75377e-07
-2.39875e-08
-6.85839e-08
-2.8808e-07
-2.82482e-08
-7.44835e-08
-2.97449e-07
-3.32273e-08
-7.65966e-08
-3.04297e-07
-3.88606e-08
-7.43258e-08
-3.09181e-07
-4.4967e-08
-6.73765e-08
-3.12541e-07
-5.12103e-08
-5.58596e-08
-3.14737e-07
-5.7145e-08
-4.03422e-08
-3.16069e-07
-6.22515e-08
-2.18451e-08
-3.16785e-07
-6.60187e-08
-1.75164e-09
-3.17058e-07
-6.8024e-08
1.83889e-08
-3.16971e-07
-6.80659e-08
3.70234e-08
-3.16531e-07
-6.61368e-08
5.27517e-08
-3.15659e-07
-6.2439e-08
6.4549e-08
-3.14188e-07
-5.73897e-08
7.18232e-08
-3.11888e-07
-5.14905e-08
7.44467e-08
-3.08454e-07
-4.52637e-08
7.26952e-08
-3.03525e-07
-3.91571e-08
6.71596e-08
-2.9667e-07
-3.35104e-08
5.86302e-08
-2.87315e-07
-2.85083e-08
4.80282e-08
-2.74659e-07
-2.42162e-08
3.63204e-08
-2.57505e-07
-2.05631e-08
2.44968e-08
-2.33958e-07
-1.73309e-08
1.35708e-08
-2.00829e-07
-1.41261e-08
4.73182e-09
-1.52074e-07
-1.02953e-08
-7.38134e-08
-4.72729e-09
-5.28819e-09
-6.33368e-08
-5.29529e-09
-1.52387e-08
-1.30959e-07
-1.14429e-08
-2.76039e-08
-1.73256e-07
-1.56324e-08
-4.10509e-08
-2.01945e-07
-1.91117e-08
-5.44312e-08
-2.22159e-07
-2.26109e-08
-6.66214e-08
-2.36614e-07
-2.65724e-08
-7.65263e-08
-2.46945e-07
-3.12301e-08
-8.31028e-08
-2.54214e-07
-3.6659e-08
-8.54502e-08
-2.59146e-07
-4.28033e-08
-8.2896e-08
-2.62287e-07
-4.94486e-08
-7.51181e-08
-2.64085e-07
-5.62341e-08
-6.22361e-08
-2.64926e-07
-6.26929e-08
-4.48796e-08
-2.65173e-07
-6.82521e-08
-2.41814e-08
-2.65123e-07
-7.23598e-08
-1.69e-09
-2.65002e-07
-7.4548e-08
2.08452e-08
-2.64921e-07
-7.45847e-08
4.16735e-08
-2.64887e-07
-7.24718e-08
5.9234e-08
-2.64794e-07
-6.84254e-08
7.23882e-08
-2.6443e-07
-6.29119e-08
8.04776e-08
-2.63491e-07
-5.64865e-08
8.33711e-08
-2.6163e-07
-4.97183e-08
8.13783e-08
-2.58456e-07
-4.30765e-08
7.51488e-08
-2.53517e-07
-3.69236e-08
6.55815e-08
-2.46272e-07
-3.14758e-08
5.36991e-08
-2.35985e-07
-2.67914e-08
4.05911e-08
-2.21601e-07
-2.2796e-08
2.73669e-08
-2.01482e-07
-1.9252e-08
1.5156e-08
-1.72898e-07
-1.57207e-08
5.28497e-09
-1.30727e-07
-1.1476e-08
-6.32482e-08
-5.28023e-09
-5.63361e-09
-5.2063e-08
-5.64022e-09
-1.62224e-08
-1.08197e-07
-1.21732e-08
-2.93887e-08
-1.4349e-07
-1.65998e-08
-4.37179e-08
-1.67363e-07
-2.02533e-08
-5.79918e-08
-1.8398e-07
-2.3906e-08
-7.10039e-08
-1.95582e-07
-2.80198e-08
-8.15658e-08
-2.03543e-07
-3.28398e-08
-8.8562e-08
-2.08771e-07
-3.84466e-08
-9.10315e-08
-2.11913e-07
-4.47641e-08
-8.82655e-08
-2.13482e-07
-5.15709e-08
-7.99344e-08
-2.13908e-07
-5.85081e-08
-6.61643e-08
-2.13606e-07
-6.50903e-08
-4.76486e-08
-2.12947e-07
-7.07417e-08
-2.55869e-08
-2.12271e-07
-7.49143e-08
-1.61767e-09
-2.11829e-07
-7.71425e-08
2.23931e-08
-2.11758e-07
-7.71741e-08
4.45764e-08
-2.12064e-07
-7.50071e-08
6.32888e-08
-2.12618e-07
-7.0889e-08
7.73069e-08
-2.13167e-07
-6.52812e-08
8.59397e-08
-2.13393e-07
-5.87307e-08
8.9031e-08
-2.1291e-07
-5.18106e-08
8.69014e-08
-2.11316e-07
-4.50101e-08
8.02414e-08
-2.0817e-07
-3.86874e-08
7.0001e-08
-2.02965e-07
-3.30658e-08
5.72887e-08
-1.9505e-07
-2.82234e-08
4.32778e-08
-1.83511e-07
-2.40794e-08
2.91589e-08
-1.66973e-07
-2.03903e-08
1.61428e-08
-1.43194e-07
-1.66873e-08
5.62965e-09
-1.0801e-07
-1.22038e-08
-5.19935e-08
-5.62512e-09
-5.74743e-09
-4.05627e-08
-5.75282e-09
-1.65522e-08
-8.49868e-08
-1.24051e-08
-3.00162e-08
-1.13141e-07
-1.68857e-08
-4.47087e-08
-1.32119e-07
-2.05509e-08
-5.93749e-08
-1.45123e-07
-2.41907e-08
-7.27613e-08
-1.53922e-07
-2.82737e-08
-8.36283e-08
-1.59635e-07
-3.30419e-08
-9.08162e-08
-1.63013e-07
-3.85701e-08
-9.33292e-08
-1.64623e-07
-4.47765e-08
-9.04496e-08
-1.64919e-07
-5.14429e-08
-8.18525e-08
-1.64301e-07
-5.82042e-08
-6.76987e-08
-1.63165e-07
-6.45944e-08
-4.86974e-08
-1.61882e-07
-7.00662e-08
-2.60851e-08
-1.60789e-07
-7.40944e-08
-1.53356e-09
-1.60144e-07
-7.62364e-08
2.30564e-08
-1.60085e-07
-7.62631e-08
4.57822e-08
-1.60616e-07
-7.41733e-08
6.49636e-08
-1.61607e-07
-7.01924e-08
7.9356e-08
-1.62802e-07
-6.47581e-08
8.82329e-08
-1.63873e-07
-5.83974e-08
9.14199e-08
-1.64445e-07
-5.16528e-08
8.92254e-08
-1.64128e-07
-4.49938e-08
8.23612e-08
-1.62521e-07
-3.87852e-08
7.17999e-08
-1.59158e-07
-3.32459e-08
5.86982e-08
-1.53489e-07
-2.84596e-08
4.42808e-08
-1.44743e-07
-2.43501e-08
2.97921e-08
-1.31809e-07
-2.06749e-08
1.64741e-08
-1.12911e-07
-1.69649e-08
5.74162e-09
-8.48442e-08
-1.24329e-08
-4.05136e-08
-5.73824e-09
-5.60275e-09
-2.93516e-08
-5.60839e-09
-1.61715e-08
-6.23405e-08
-1.20777e-08
-2.94071e-08
-8.35011e-08
-1.64038e-08
-4.39394e-08
-9.76806e-08
-1.99066e-08
-5.85152e-08
-1.07183e-07
-2.33639e-08
-7.18623e-08
-1.13337e-07
-2.72385e-08
-8.27199e-08
-1.17012e-07
-3.17655e-08
-8.99002e-08
-1.18825e-07
-3.70081e-08
-9.2415e-08
-1.19227e-07
-4.28814e-08
-8.95525e-08
-1.18611e-07
-4.91706e-08
-8.1005e-08
-1.17322e-07
-5.55267e-08
-6.69538e-08
-1.1571e-07
-6.15066e-08
-4.81191e-08
-1.14113e-07
-6.6604e-08
-2.573e-08
-1.12833e-07
-7.03452e-08
-1.43445e-09
-1.12105e-07
-7.23342e-08
2.28967e-08
-1.12059e-07
-7.23569e-08
4.53901e-08
-1.12697e-07
-7.04122e-08
6.4393e-08
-1.13899e-07
-6.67104e-08
7.86631e-08
-1.15428e-07
-6.16437e-08
8.74677e-08
-1.16987e-07
-5.56906e-08
9.06166e-08
-1.1824e-07
-4.93537e-08
8.84037e-08
-1.18842e-07
-4.30729e-08
8.15208e-08
-1.18438e-07
-3.71994e-08
7.0956e-08
-1.16645e-07
-3.19485e-08
5.78758e-08
-1.13002e-07
-2.74066e-08
4.35344e-08
-1.06893e-07
-2.35085e-08
2.91948e-08
-9.74496e-08
-2.00203e-08
1.60939e-08
-8.33338e-08
-1.64768e-08
5.5967e-09
-6.22434e-08
-1.21036e-08
-2.93218e-08
-5.59521e-09
-5.16564e-09
-1.90158e-08
-5.17021e-09
-1.50041e-08
-4.13885e-08
-1.11136e-08
-2.74783e-08
-5.59888e-08
-1.50381e-08
-4.13304e-08
-6.56524e-08
-1.81761e-08
-5.53467e-08
-7.19002e-08
-2.12667e-08
-6.82606e-08
-7.56706e-08
-2.47522e-08
-7.88073e-08
-7.76096e-08
-2.88552e-08
-8.58201e-08
-7.81815e-08
-3.36303e-08
-8.83189e-08
-7.77398e-08
-3.89886e-08
-8.56249e-08
-7.65837e-08
-4.47209e-08
-7.74552e-08
-7.49913e-08
-5.05002e-08
-6.40041e-08
-7.32425e-08
-5.59182e-08
-4.59747e-08
-7.16139e-08
-6.05286e-08
-2.45531e-08
-7.03508e-08
-6.39034e-08
-1.31553e-09
-6.96501e-08
-6.56927e-08
2.19542e-08
-6.96168e-08
-6.57121e-08
4.34702e-08
-7.02531e-08
-6.39604e-08
6.16512e-08
-7.14575e-08
-6.06228e-08
7.53026e-08
-7.30372e-08
-5.60423e-08
8.37075e-08
-7.47475e-08
-5.06444e-08
8.6664e-08
-7.6316e-08
-4.48803e-08
8.44383e-08
-7.74601e-08
-3.91565e-08
7.77034e-08
-7.79044e-08
-3.37991e-08
6.74228e-08
-7.73459e-08
-2.90183e-08
5.47558e-08
-7.54322e-08
-2.49029e-08
4.09571e-08
-7.16971e-08
-2.13974e-08
2.7281e-08
-6.54938e-08
-1.82798e-08
1.49325e-08
-5.58796e-08
-1.51057e-08
5.15873e-09
-4.13307e-08
-1.1139e-08
-1.90033e-08
-5.15976e-09
-4.38774e-09