/*--------------------------------*- C++ -*----------------------------------*\
| =========                 |                                                 |
| \\      /  F ield         | OpenFOAM: The Open Source CFD Toolbox           |
|  \\    /   O peration     | Version:  v1906                                 |
|   \\  /    A nd           | Web:      www.OpenFOAM.com                      |
|    \\/     M anipulation  |                                                 |
\*---------------------------------------------------------------------------*/
FoamFile
{
    version     2.0;
    format      ascii;
    class       surfaceScalarField;
    location    "51/oil";
    object      phi;
}
// * * * * * * * * * * * * * * * * * * * * * * * * * * * * * * * * * * * * * //

dimensions      [1 0 -1 0 0 0 0];
oriented        oriented;


internalField   nonuniform List<scalar> 
80688
(
-2.25465e-06
-2.29338e-06
-2.25464e-06
-1.01788e-06
-6.39712e-07
-5.97057e-07
-2.75756e-07
-3.73742e-07
-3.68379e-07
-1.33967e-07
-7.1521e-08
-7.02684e-08
-5.1263e-08
-4.19371e-08
-4.07664e-08
-1.13606e-08
-2.05083e-08
-1.93941e-08
9.92055e-09
-1.11365e-08
-1.01448e-08
2.1482e-08
-6.24766e-09
-5.31382e-09
2.72003e-08
-3.36517e-09
-2.35327e-09
2.8774e-08
-1.40435e-09
-1.69407e-10
2.70874e-08
8.04666e-11
1.60616e-09
2.27072e-08
1.27132e-09
3.10879e-09
1.61979e-08
2.18476e-09
4.32453e-09
8.18176e-09
2.82084e-09
5.19528e-09
-6.42678e-10
3.16098e-09
5.66343e-09
-9.53677e-09
3.19507e-09
5.699e-09
-1.77774e-08
2.93092e-09
5.30969e-09
-2.47193e-08
2.39762e-09
4.54421e-09
-2.98544e-08
1.64495e-09
3.49021e-09
-3.28478e-08
7.31634e-10
2.26169e-09
-3.35705e-08
-2.66978e-10
9.89679e-10
-3.21038e-08
-1.26626e-09
-2.00436e-10
-2.86934e-08
-2.21239e-09
-1.19809e-09
-2.37781e-08
-3.03885e-09
-1.8764e-09
-1.79373e-08
-3.67308e-09
-2.16776e-09
-1.1869e-08
-4.02631e-09
-2.04204e-09
-6.35541e-09
-3.97491e-09
-1.5387e-09
-2.19399e-09
-3.3539e-09
-8.07552e-10
-4.01281e-11
-1.97783e-09
-1.76055e-10
-8.69352e-11
4.67875e-11
-6.06743e-07
-1.0799e-06
-6.06741e-07
-3.62133e-07
-3.97735e-07
-4.86589e-07
-2.56422e-07
-2.7114e-07
-2.08313e-07
-1.21306e-07
-1.22958e-07
-8.36794e-08
-4.32378e-08
-7.78581e-08
-4.21473e-08
3.29309e-09
-5.01968e-08
-1.68425e-08
3.2235e-08
-3.65601e-08
-3.51833e-09
4.96007e-08
-2.83143e-08
4.70086e-09
5.84639e-08
-2.27645e-08
1.05361e-08
6.03402e-08
-1.85184e-08
1.52378e-08
5.61736e-08
-1.50311e-08
1.9278e-08
4.68257e-08
-1.2133e-08
2.27523e-08
3.32775e-08
-9.8304e-09
2.55632e-08
1.67261e-08
-8.20069e-09
2.75729e-08
-1.44579e-09
-7.31882e-09
2.86517e-08
-1.97561e-08
-7.22538e-09
2.87307e-08
-3.67479e-08
-7.90222e-09
2.78249e-08
-5.11218e-08
-9.26637e-09
2.60379e-08
-6.18527e-08
-1.11778e-08
2.35536e-08
-6.82746e-08
-1.34521e-08
2.06056e-08
-7.01259e-08
-1.58826e-08
1.74669e-08
-6.75448e-08
-1.82496e-08
1.44023e-08
-6.10636e-08
-2.03377e-08
1.16441e-08
-5.15443e-08
-2.193e-08
9.37182e-09
-4.01205e-08
-2.27911e-08
7.69418e-09
-2.81171e-08
-2.26411e-08
6.61131e-09
-1.69435e-08
-2.11266e-08
5.97803e-09
-7.93621e-09
-1.78097e-08
5.44843e-09
-2.12165e-09
-1.21968e-08
4.40436e-09
-4.33832e-09
2.12971e-09
-3.77102e-07
-3.25698e-07
-3.77099e-07
-2.49774e-07
-3.12861e-07
-2.12202e-07
-1.62733e-07
-2.28458e-07
-1.29723e-07
-7.63411e-08
-1.47086e-07
-6.22634e-08
-1.70048e-08
-1.10492e-07
-2.67022e-08
2.47636e-08
-8.721e-08
-4.7552e-09
5.32886e-08
-7.36632e-08
8.57803e-09
7.14105e-08
-6.42791e-08
1.78428e-08
8.06062e-08
-5.70571e-08
2.50967e-08
8.17082e-08
-5.09331e-08
3.13127e-08
7.54124e-08
-4.55518e-08
3.68164e-08
6.25662e-08
-4.08917e-08
4.16049e-08
4.43386e-08
-3.71013e-08
4.54984e-08
2.22304e-08
-3.43791e-08
4.82866e-08
-1.97363e-09
-3.28957e-08
4.97809e-08
-2.63468e-08
-3.27377e-08
4.98854e-08
-4.89879e-08
-3.3878e-08
4.8617e-08
-6.81966e-08
-3.61695e-08
4.61118e-08
-8.26374e-08
-3.93532e-08
4.26162e-08
-9.14388e-08
-4.30929e-08
3.84421e-08
-9.42671e-08
-4.70013e-08
3.3947e-08
-9.13101e-08
-5.0671e-08
2.94644e-08
-8.32538e-08
-5.36919e-08
2.52979e-08
-7.11942e-08
-5.56458e-08
2.16563e-08
-5.65493e-08
-5.60851e-08
1.86491e-08
-4.09391e-08
-5.44938e-08
1.62425e-08
-2.60314e-08
-5.02499e-08
1.42156e-08
-1.33722e-08
-4.25739e-08
1.21049e-08
-4.23871e-09
-3.04653e-08
9.13502e-09
-1.28242e-08
4.24716e-09
-7.10258e-08
-1.8365e-07
-7.10219e-08
-9.1843e-08
-2.10401e-07
-8.16425e-08
-6.69943e-08
-1.93025e-07
-6.02819e-08
-2.34903e-08
-1.62308e-07
-2.82816e-08
1.61436e-08
-1.43689e-07
-6.43702e-09
4.90682e-08
-1.29487e-07
9.35259e-09
7.38933e-08
-1.19252e-07
2.07633e-08
9.04349e-08
-1.10669e-07
2.98483e-08
9.8571e-08
-1.02897e-07
3.77036e-08
9.83259e-08
-9.55342e-08
4.48461e-08
9.00114e-08
-8.86039e-08
5.13666e-08
7.43535e-08
-8.2357e-08
5.71232e-08
5.257e-08
-7.71569e-08
6.1839e-08
2.63404e-08
-7.33764e-08
6.52269e-08
-2.29371e-09
-7.13037e-08
6.7042e-08
-3.11e-08
-7.10894e-08
6.71579e-08
-5.78682e-08
-7.27014e-08
6.55916e-08
-8.06235e-08
-7.59222e-08
6.25079e-08
-9.78106e-08
-8.03661e-08
5.82001e-08
-1.0843e-07
-8.55195e-08
5.30464e-08
-1.12098e-07
-9.07955e-08
4.7462e-08
-1.09043e-07
-9.55743e-08
4.18478e-08
-1.00043e-07
-9.9233e-08
3.65411e-08
-8.63387e-08
-1.01126e-07
3.17755e-08
-6.95016e-08
-1.00581e-07
2.76584e-08
-5.12977e-08
-9.68285e-08
2.41307e-08
-3.35334e-08
-8.89408e-08
2.09265e-08
-1.79e-08
-7.57151e-08
1.75078e-08
-5.98044e-09
-5.53691e-08
1.29842e-08
-2.47947e-08
5.99005e-09
-3.4725e-08
-1.14205e-07
-3.472e-08
-3.79697e-08
-1.71658e-07
-3.54981e-08
-1.91404e-08
-1.89313e-07
-2.25409e-08
1.11655e-08
-1.87661e-07
-4.95328e-09
4.20046e-08
-1.83881e-07
9.35292e-09
6.9688e-08
-1.78296e-07
2.11253e-08
9.16884e-08
-1.72204e-07
3.09523e-08
1.06611e-07
-1.6532e-07
3.97287e-08
1.13511e-07
-1.57752e-07
4.79549e-08
1.119e-07
-1.49728e-07
5.58049e-08
1.01795e-07
-1.41668e-07
6.31699e-08
8.38086e-08
-1.34134e-07
6.97631e-08
5.91682e-08
-1.27731e-07
7.52149e-08
2.96694e-08
-1.23021e-07
7.91429e-08
-2.45259e-09
-1.20429e-07
8.12473e-08
-3.47349e-08
-1.20174e-07
8.13666e-08
-6.47268e-08
-1.22223e-07
7.95134e-08
-9.02413e-08
-1.2629e-07
7.5882e-08
-1.09563e-07
-1.3186e-07
7.08155e-08
-1.21601e-07
-1.3824e-07
6.47579e-08
-1.25943e-07
-1.44646e-07
5.81925e-08
-1.22848e-07
-1.50242e-07
5.15728e-08
-1.13172e-07
-1.54177e-07
4.52685e-08
-9.82466e-08
-1.55595e-07
3.95432e-08
-7.97397e-08
-1.53591e-07
3.45032e-08
-5.95117e-08
-1.47131e-07
3.00742e-08
-3.94619e-08
-1.34949e-07
2.5958e-08
-2.14299e-08
-1.15304e-07
2.15566e-08
-7.30122e-09
-8.5379e-08
1.58812e-08
-3.94085e-08
7.31253e-09
-1.04329e-08
-9.33453e-08
-1.04267e-08
-5.48505e-09
-1.68661e-07
-7.94547e-09
1.11544e-08
-2.06249e-07
2.96686e-10
3.56514e-08
-2.23077e-07
1.09195e-08
6.1889e-08
-2.31012e-07
2.08935e-08
8.63992e-08
-2.32983e-07
3.01765e-08
1.06425e-07
-2.31187e-07
3.89564e-08
1.2004e-07
-2.26506e-07
4.75714e-08
1.25857e-07
-2.19742e-07
5.61723e-08
1.23057e-07
-2.11627e-07
6.46984e-08
1.11454e-07
-2.02945e-07
7.28803e-08
9.15588e-08
-1.94542e-07
8.03035e-08
6.45939e-08
-1.87257e-07
8.64907e-08
3.24491e-08
-1.81841e-07
9.09648e-08
-2.48811e-09
-1.78849e-07
9.33572e-08
-3.75633e-08
-1.78571e-07
9.34721e-08
-7.01304e-08
-1.80976e-07
9.13203e-08
-9.78255e-08
-1.85716e-07
8.71214e-08
-1.18809e-07
-1.92153e-07
8.12776e-08
-1.31925e-07
-1.99434e-07
7.43094e-08
-1.36753e-07
-2.0659e-07
6.67723e-08
-1.33588e-07
-2.12579e-07
5.91718e-08
-1.2335e-07
-2.16357e-07
5.19425e-08
-1.07443e-07
-2.16857e-07
4.53555e-08
-8.76096e-08
-2.12949e-07
3.95253e-08
-6.5776e-08
-2.0333e-07
3.4366e-08
-4.3929e-08
-1.86351e-07
2.95555e-08
-2.40376e-08
-1.59641e-07
2.44457e-08
-8.24952e-09
-1.19121e-07
1.79537e-08
-5.59207e-08
8.26265e-09
-1.26727e-11
-9.33273e-08
-5.41765e-12
1.01263e-08
-1.84565e-07
5.76522e-09
2.79929e-08
-2.3696e-07
1.28437e-08
5.1121e-08
-2.66939e-07
2.0733e-08
7.56648e-08
-2.84186e-07
2.86294e-08
9.87089e-08
-2.92669e-07
3.66427e-08
1.17653e-07
-2.95054e-07
4.49236e-08
1.30434e-07
-2.92894e-07
5.36062e-08
1.35485e-07
-2.87459e-07
6.26666e-08
1.31798e-07
-2.79839e-07
7.19001e-08
1.19049e-07
-2.71115e-07
8.09186e-08
9.76799e-08
-2.62367e-07
8.91935e-08
6.8914e-08
-2.54625e-07
9.61337e-08
3.47015e-08
-2.48802e-07
1.01174e-07
-2.43654e-09
-2.45579e-07
1.03868e-07
-3.96874e-08
-2.45294e-07
1.03974e-07
-7.42422e-08
-2.47925e-07
1.01503e-07
-1.03592e-07
-2.53074e-07
9.67087e-08
-1.25803e-07
-2.60005e-07
9.00622e-08
-1.39671e-07
-2.67725e-07
8.21586e-08
-1.44787e-07
-2.75109e-07
7.36354e-08
-1.41491e-07
-2.80956e-07
6.50804e-08
-1.30767e-07
-2.84045e-07
5.69633e-08
-1.14078e-07
-2.83131e-07
4.95847e-08
-9.32281e-08
-2.76867e-07
4.30673e-08
-7.01964e-08
-2.63675e-07
3.73124e-08
-4.70351e-08
-2.41487e-07
3.19748e-08
-2.582e-08
-2.07225e-07
2.63687e-08
-8.88351e-09
-1.55392e-07
1.93345e-08
-7.37025e-08
8.89825e-09
4.8352e-09
-1.03006e-07
4.84316e-09
1.82862e-08
-2.10825e-07
1.28091e-08
3.75592e-08
-2.75975e-07
1.97421e-08
6.05788e-08
-3.16494e-07
2.65361e-08
8.45297e-08
-3.41617e-07
3.34802e-08
1.06881e-07
-3.55936e-07
4.09153e-08
1.2522e-07
-3.62442e-07
4.90483e-08
1.37499e-07
-3.63128e-07
5.79542e-08
1.42058e-07
-3.59543e-07
6.75253e-08
1.37801e-07
-3.53048e-07
7.74645e-08
1.24306e-07
-3.4492e-07
8.73001e-08
1.01954e-07
-3.36429e-07
9.64138e-08
7.19592e-08
-3.28739e-07
1.04109e-07
3.63274e-08
-3.22884e-07
1.09713e-07
-2.3295e-09
-3.1962e-07
1.12699e-07
-4.10755e-08
-3.19344e-07
1.12796e-07
-7.69757e-08
-3.22034e-07
1.1001e-07
-1.07412e-07
-3.27258e-07
1.0462e-07
-1.30383e-07
-3.34202e-07
9.71684e-08
-1.44664e-07
-3.41793e-07
8.83493e-08
-1.49875e-07
-3.48783e-07
7.88853e-08
-1.46409e-07
-3.53853e-07
6.94297e-08
-1.35299e-07
-3.55646e-07
6.04919e-08
-1.18067e-07
-3.52769e-07
5.24067e-08
-9.6558e-08
-3.43682e-07
4.5306e-08
-7.27831e-08
-3.26532e-07
3.90827e-08
-4.88284e-08
-2.9881e-07
3.33677e-08
-2.6834e-08
-2.56663e-07
2.74436e-08
-9.23955e-09
-1.93085e-07
2.00987e-08
-9.21975e-08
9.25546e-09
7.04599e-09
-1.17106e-07
7.05417e-09
2.22318e-08
-2.42239e-07
1.62278e-08
4.23948e-08
-3.19354e-07
2.32161e-08
6.54583e-08
-3.69123e-07
2.95649e-08
8.90775e-08
-4.01312e-07
3.60757e-08
1.10958e-07
-4.21085e-07
4.32683e-08
1.28861e-07
-4.31752e-07
5.14074e-08
1.40785e-07
-4.35608e-07
6.05565e-08
1.45066e-07
-4.34414e-07
7.05913e-08
1.40539e-07
-4.29682e-07
8.11608e-08
1.26739e-07
-4.22841e-07
9.17213e-08
1.03972e-07
-4.15238e-07
1.01575e-07
7.34348e-08
-4.08128e-07
1.09926e-07
3.71553e-08
-4.0262e-07
1.16016e-07
-2.19447e-09
-3.99533e-07
1.19262e-07
-4.16108e-08
-3.99276e-07
1.19348e-07
-7.80845e-08
-4.01836e-07
1.16276e-07
-1.08942e-07
-4.06761e-07
1.1036e-07
-1.32143e-07
-4.13213e-07
1.02212e-07
-1.46474e-07
-4.20053e-07
9.2592e-08
-1.51594e-07
-4.25961e-07
8.22967e-08
-1.47945e-07
-4.29568e-07
7.2067e-08
-1.36609e-07
-4.29436e-07
6.24542e-08
-1.19153e-07
-4.24041e-07
5.38157e-08
-9.74261e-08
-4.11682e-07
4.62727e-08
-7.34412e-08
-3.90233e-07
3.9716e-08
-4.9279e-08
-3.56753e-07
3.37808e-08
-2.70859e-08
-3.06572e-07
2.77157e-08
-9.3263e-09
-2.31119e-07
2.02745e-08
-1.10866e-07
9.3427e-09
7.90213e-09
-1.32918e-07
7.91014e-09
2.36749e-08
-2.7553e-07
1.75184e-08
4.39662e-08
-3.64084e-07
2.44389e-08
6.66782e-08
-4.22348e-07
3.05133e-08
8.9694e-08
-4.61092e-07
3.67649e-08
1.10917e-07
-4.86106e-07
4.37988e-08
1.28275e-07
-5.0104e-07
5.19301e-08
1.39818e-07
-5.08386e-07
6.12353e-08
1.43928e-07
-5.10087e-07
7.15628e-08
1.39425e-07
-5.07737e-07
8.2558e-08
1.25768e-07
-5.0281e-07
9.36259e-08
1.03231e-07
-4.96701e-07
1.04e-07
7.29676e-08
-4.90692e-07
1.12827e-07
3.69832e-08
-4.85918e-07
1.19282e-07
-2.05316e-09
-4.83199e-07
1.22703e-07
-4.11367e-08
-4.8297e-07
1.22777e-07
-7.72596e-08
-4.85218e-07
1.19505e-07
-1.07741e-07
-4.89485e-07
1.13205e-07
-1.30557e-07
-4.94926e-07
1.04529e-07
-1.4454e-07
-5.00395e-07
9.43242e-08
-1.49386e-07
-5.04577e-07
8.34625e-08
-1.45592e-07
-5.06065e-07
7.27031e-08
-1.34277e-07
-5.03393e-07
6.26417e-08
-1.16996e-07
-4.94972e-07
5.36503e-08
-9.55855e-08
-4.78954e-07
4.58612e-08
-7.20089e-08
-4.52977e-07
3.91678e-08
-4.83045e-08
-4.13631e-07
3.31741e-08
-2.65457e-08
-3.55472e-07
2.7142e-08
-9.13945e-09
-2.68371e-07
1.9846e-08
-1.29162e-07
9.15563e-09
7.96098e-09
-1.48847e-07
7.96786e-09
2.33965e-08
-3.08364e-07
1.73988e-08
4.29747e-08
-4.07704e-07
2.40417e-08
6.46587e-08
-4.73822e-07
2.97903e-08
8.65282e-08
-5.18696e-07
3.57338e-08
1.06666e-07
-5.48773e-07
4.25292e-08
1.23143e-07
-5.68025e-07
5.05076e-08
1.34149e-07
-5.79137e-07
5.97444e-08
1.38112e-07
-5.84145e-07
7.00944e-08
1.33866e-07
-5.84679e-07
8.11887e-08
1.20846e-07
-5.822e-07
9.241e-08
9.92704e-08
-5.781e-07
1.02974e-07
7.02171e-08
-5.7362e-07
1.11982e-07
3.56226e-08
-5.69893e-07
1.1857e-07
-1.92264e-09
-5.67703e-07
1.22049e-07
-3.94979e-08
-5.67504e-07
1.22109e-07
-7.41822e-08
-5.69277e-07
1.18743e-07
-1.0336e-07
-5.72585e-07
1.12279e-07
-1.25099e-07
-5.76591e-07
1.03403e-07
-1.38296e-07
-5.80168e-07
9.29697e-08
-1.42688e-07
-5.82064e-07
8.1879e-08
-1.38829e-07
-5.80866e-07
7.09419e-08
-1.27839e-07
-5.75153e-07
6.07699e-08
-1.11232e-07
-5.63304e-07
5.1725e-08
-9.0768e-08
-5.43362e-07
4.39441e-08
-6.83238e-08
-5.12745e-07
3.73235e-08
-4.57996e-08
-4.67644e-07
3.14881e-08
-2.51583e-08
-4.01821e-07
2.57078e-08
-8.66444e-09
-3.0365e-07
1.8785e-08
-1.46506e-07
8.67977e-09
7.46241e-09
-1.63778e-07
7.46827e-09
2.17574e-08
-3.38855e-07
1.61958e-08
3.97804e-08
-4.48016e-07
2.22884e-08
5.96482e-08
-5.21254e-07
2.75636e-08
7.96642e-08
-5.71791e-07
3.30791e-08
9.81016e-08
-6.06673e-07
3.94626e-08
1.13238e-07
-6.30195e-07
4.70327e-08
1.23434e-07
-6.45221e-07
5.58884e-08
1.27197e-07
-6.53792e-07
6.58841e-08
1.23434e-07
-6.57573e-07
7.66566e-08
1.11576e-07
-6.5795e-07
8.76087e-08
9.1742e-08
-6.56224e-07
9.79581e-08
6.49413e-08
-6.53615e-07
1.06795e-07
3.29406e-08
-6.5115e-07
1.13258e-07
-1.81255e-09
-6.49616e-07
1.16666e-07
-3.65811e-08
-6.49449e-07
1.16714e-07
-6.86206e-08
-6.50643e-07
1.13405e-07
-9.54955e-08
-6.52745e-07
1.07034e-07
-1.1539e-07
-6.54973e-07
9.82765e-08
-1.27303e-07
-6.5627e-07
8.80153e-08
-1.3109e-07
-6.55429e-07
7.7151e-08
-1.27281e-07
-6.51162e-07
6.6488e-08
-1.1697e-07
-6.42079e-07
5.66134e-08
-1.01594e-07
-6.26557e-07
4.78774e-08
-8.27804e-08
-6.02597e-07
4.04217e-08
-6.22282e-08
-5.67429e-07
3.41311e-08
-4.16789e-08
-5.1685e-07
2.86574e-08
-2.28899e-08
-4.43944e-07
2.33334e-08
-7.88056e-09
-3.35705e-07
1.70456e-08
-1.62281e-07
7.89431e-09
6.52863e-09
-1.7684e-07
6.5341e-09
1.89643e-08
-3.65402e-07
1.41107e-08
3.45907e-08
-4.83025e-07
1.93827e-08
5.18136e-08
-5.62451e-07
2.39748e-08
6.91687e-08
-6.17995e-07
2.88484e-08
8.52179e-08
-6.57295e-07
3.45731e-08
9.84844e-08
-6.84891e-07
4.14293e-08
1.07521e-07
-7.03786e-07
4.95284e-08
1.11016e-07
-7.16028e-07
5.87405e-08
1.07946e-07
-7.23233e-07
6.8731e-08
9.77464e-08
-7.267e-07
7.89496e-08
8.04892e-08
-7.27595e-07
8.86278e-08
5.70127e-08
-7.27042e-07
9.6904e-08
2.88729e-08
-7.25976e-07
1.02965e-07
-1.73001e-09
-7.2517e-07
1.06156e-07
-3.23362e-08
-7.25031e-07
1.06188e-07
-6.04865e-08
-7.25551e-07
1.03058e-07
-8.39658e-08
-7.26322e-07
9.70568e-08
-1.012e-07
-7.26568e-07
8.88298e-08
-1.11362e-07
-7.25321e-07
7.92132e-08
-1.1436e-07
-7.21505e-07
6.9075e-08
-1.10737e-07
-7.13944e-07
5.91588e-08
-1.01501e-07
-7.01327e-07
5.00125e-08
-8.79537e-08
-6.82095e-07
4.19906e-08
-7.15117e-08
-6.54235e-07
3.51956e-08
-5.36748e-08
-6.14791e-07
2.95252e-08
-3.59092e-08
-5.59291e-07
2.4675e-08
-1.97013e-08
-4.80194e-07
2.00424e-08
-6.78767e-09
-3.6326e-07
1.46416e-08
-1.75868e-07
6.79965e-09
5.22434e-09
-1.87289e-07
5.22406e-09
1.51344e-08
-3.86548e-07
1.12362e-08
2.7588e-08
-5.10892e-07
1.54135e-08
4.13294e-08
-5.95309e-07
1.91162e-08
5.52485e-08
-6.55039e-07
2.31256e-08
6.82062e-08
-6.98168e-07
2.79155e-08
7.90286e-08
-7.29469e-07
3.37556e-08
8.65373e-08
-7.52015e-07
4.07205e-08
8.96468e-08
-7.67859e-07
4.87206e-08
8.74591e-08
-7.78506e-07
5.74604e-08
7.9441e-08
-7.85136e-07
6.64541e-08
6.55783e-08
-7.8879e-07
7.50576e-08
4.64853e-08
-7.90432e-07
8.24831e-08
2.34553e-08
-7.90897e-07
8.79519e-08
-1.67457e-09
-7.90876e-07
9.08366e-08
-2.67953e-08
-7.90761e-07
9.08511e-08
-4.97923e-08
-7.9055e-07
8.79959e-08
-6.88351e-08
-7.89836e-07
8.2557e-08
-8.26273e-08
-7.8795e-07
7.51734e-08
-9.05392e-08
-7.84017e-07
6.66079e-08
-9.25752e-08
-7.77105e-07
5.76364e-08
-8.92711e-08
-7.66197e-07
4.89486e-08
-8.15094e-08
-7.50099e-07
4.10099e-08
-7.03792e-08
-7.27323e-07
3.40973e-08
-5.70583e-08
-6.95868e-07
2.83124e-08
-4.27236e-08
-6.52683e-07
2.3558e-08
-2.85251e-08
-5.93041e-07
1.95513e-08
-1.5639e-08
-5.08905e-07
1.58249e-08
-5.38466e-09
-3.85084e-07
1.1569e-08
-1.86647e-07
5.39444e-09
3.59906e-09
-1.94486e-07
3.59841e-09
1.03983e-08
-4.0103e-07
7.68317e-09
1.89781e-08
-5.30009e-07
1.05372e-08
2.84937e-08
-6.17962e-07
1.31376e-08
3.82208e-08
-6.80826e-07
1.60594e-08
4.73998e-08
-7.27006e-07
1.96586e-08
5.52197e-08
-7.61424e-07
2.41359e-08
6.08329e-08
-7.87185e-07
2.95568e-08
6.34317e-08
-8.06333e-07
3.58752e-08
6.22805e-08
-8.20255e-07
4.28998e-08
5.68895e-08
-8.29997e-07
5.02517e-08
4.71704e-08
-8.36451e-07
5.73802e-08
3.34837e-08
-8.40354e-07
6.36082e-08
1.67449e-08
-8.42437e-07
6.82784e-08
-1.64387e-09
-8.43258e-07
7.07705e-08
-2.00124e-08
-8.4316e-07
7.07669e-08
-3.66958e-08
-8.42139e-07
6.8272e-08
-5.02875e-08
-8.39848e-07
6.36033e-08
-5.98795e-08
-8.35732e-07
5.73746e-08
-6.50906e-08
-8.29072e-07
5.02657e-08
-6.60277e-08
-8.19129e-07
4.29607e-08
-6.31965e-08
-8.05002e-07
3.59733e-08
-5.73114e-08
-7.85668e-07
2.96842e-08
-4.91651e-08
-7.59774e-07
2.43051e-08
-3.96425e-08
-7.25256e-07
1.98655e-08
-2.9539e-08
-6.79082e-07
1.62953e-08
-1.96625e-08
-6.16305e-07
1.33872e-08
-1.07551e-08
-5.28593e-07
1.07804e-08
-3.7023e-09
-4.00024e-07
7.88772e-09
-1.9406e-07
3.71013e-09
1.71355e-09
-1.97911e-07
1.7107e-09
4.94219e-09
-4.07836e-07
3.57726e-09
9.03313e-09
-5.39e-07
4.89994e-09
1.36772e-08
-6.28822e-07
6.21511e-09
1.85682e-08
-6.9356e-07
7.84321e-09
2.33685e-08
-7.41798e-07
9.99131e-09
2.76802e-08
-7.78525e-07
1.27884e-08
3.10424e-08
-8.06859e-07
1.63119e-08
3.29538e-08
-8.28789e-07
2.05445e-08
3.29226e-08
-8.45597e-07
2.53741e-08
3.0556e-08
-8.58197e-07
3.0567e-08
2.56241e-08
-8.67302e-07
3.57832e-08
1.8229e-08
-8.73463e-07
4.05041e-08
8.85552e-09
-8.77208e-07
4.41442e-08
-1.6296e-09
-8.78908e-07
4.61346e-08
-1.20844e-08
-8.78821e-07
4.61161e-08
-2.13731e-08
-8.76947e-07
4.40962e-08
-2.86284e-08
-8.73025e-07
4.04326e-08
-3.33913e-08
-8.66682e-07
3.57122e-08
-3.55455e-08
-8.57419e-07
3.05008e-08
-3.53431e-08
-8.44645e-07
2.53135e-08
-3.31582e-08
-8.27697e-07
2.05107e-08
-2.94872e-08
-8.0565e-07
1.63108e-08
-2.48697e-08
-7.77215e-07
1.2823e-08
-1.9733e-08
-7.40453e-07
1.00602e-08
-1.45148e-08
-6.92242e-07
7.94161e-09
-9.54735e-09
-6.27607e-07
6.33453e-09
-5.18323e-09
-5.37985e-07
5.02841e-09
-1.77871e-09
-4.07126e-07
3.69679e-09
-1.97623e-07
1.78485e-09
-3.61939e-10
-1.97184e-07
-3.64522e-10
-1.07095e-09
-4.06199e-07
-9.28248e-10
-1.87408e-09
-5.36918e-07
-1.27867e-09
-2.58137e-09
-6.26725e-07
-1.3896e-09
-3.00667e-09
-6.91909e-07
-1.22568e-09
-3.06181e-09
-7.41e-07
-7.42784e-10
-2.6875e-09
-7.78982e-07
8.36387e-11
-1.91997e-09
-8.08936e-07
1.30912e-09
-8.87812e-10
-8.32789e-07
2.96841e-09
1.87582e-10
-8.5175e-07
5.07728e-09
1.02924e-09
-8.66612e-07
7.57302e-09
1.35498e-09
-8.7791e-07
1.02814e-08
9.77862e-10
-8.86002e-07
1.29165e-08
-1.00447e-10
-8.91213e-07
1.50838e-08
-1.62515e-09
-8.93699e-07
1.63159e-08
-3.11424e-09
-8.93628e-07
1.62958e-08
-4.09636e-09
-8.90975e-07
1.50108e-08
-4.30318e-09
-8.85607e-07
1.27883e-08
-3.76494e-09
-8.77348e-07
1.01285e-08
-2.67333e-09
-8.65922e-07
7.41192e-09
-1.32084e-09
-8.50922e-07
4.92479e-09
7.58846e-12
-8.31862e-07
2.83646e-09
1.08489e-09
-8.07934e-07
1.20696e-09
1.77546e-09
-7.77921e-07
1.54233e-11
2.04037e-09
-7.39941e-07
-7.76869e-10
1.91177e-09
-6.90885e-07
-1.22786e-09
1.47681e-09
-6.25808e-07
-1.36381e-09
8.92328e-10
-5.3617e-07
-1.23078e-09
3.19827e-10
-4.05686e-07
-8.66947e-10
-1.96989e-07
-3.14829e-10
-2.53662e-09
-1.92103e-07
-2.54457e-09
-7.36016e-09
-3.95734e-07
-5.64114e-09
-1.32924e-08
-5.23231e-07
-7.75494e-09
-1.959e-08
-6.11059e-07
-9.3679e-09
-2.56272e-08
-6.75095e-07
-1.07769e-08
-3.08167e-08
-7.23679e-07
-1.21312e-08
-3.4662e-08
-7.61665e-07
-1.34723e-08
-3.67401e-08
-7.9204e-07
-1.48174e-08
-3.67833e-08
-8.16654e-07
-1.60923e-08
-3.47111e-08
-8.3663e-07
-1.71922e-08
-3.0607e-08
-8.52697e-07
-1.80185e-08
-2.47983e-08
-8.65256e-07
-1.84626e-08
-1.76992e-08
-8.74554e-07
-1.8548e-08
-9.82935e-09
-8.80704e-07
-1.83797e-08
-1.62287e-09
-8.83731e-07
-1.81744e-08
6.62513e-09
-8.83662e-07
-1.82141e-08
1.46095e-08
-8.80472e-07
-1.84873e-08
2.18943e-08
-8.74177e-07
-1.87139e-08
2.79469e-08
-8.64747e-07
-1.86544e-08
3.23187e-08
-8.52067e-07
-1.82274e-08
3.46981e-08
-8.35892e-07
-1.74094e-08
3.49682e-08
-8.15839e-07
-1.62933e-08
3.32028e-08
-7.91177e-07
-1.49912e-08
2.96781e-08
-7.60782e-07
-1.36138e-08
2.47806e-08
-7.22805e-07
-1.22388e-08
1.90286e-08
-6.74284e-07
-1.08495e-08
1.29737e-08
-6.10346e-07
-9.40666e-09
7.22036e-09
-5.22656e-07
-7.76034e-09
2.51525e-09
-3.95363e-07
-5.61803e-09
-1.91963e-07
-2.51079e-09
-4.71049e-09
-1.82675e-07
-4.71772e-09
-1.36245e-08
-3.76492e-07
-1.03288e-08
-2.46694e-08
-4.97999e-07
-1.41867e-08
-3.65527e-08
-5.8186e-07
-1.73163e-08
-4.81951e-08
-6.43136e-07
-2.03171e-08
-5.85606e-08
-6.89772e-07
-2.35421e-08
-6.66949e-08
-7.26375e-07
-2.71554e-08
-7.17301e-08
-7.55808e-07
-3.11975e-08
-7.29966e-08
-7.7978e-07
-3.5607e-08
-7.00408e-08
-7.99402e-07
-4.01836e-08
-6.27788e-08
-8.15316e-07
-4.46429e-08
-5.14939e-08
-8.27886e-07
-4.86544e-08
-3.68543e-08
-8.37276e-07
-5.19169e-08
-1.98463e-08
-8.43547e-07
-5.41643e-08
-1.61693e-09
-8.46666e-07
-5.52941e-08
1.66583e-08
-8.46588e-07
-5.53486e-08
3.37998e-08
-8.43318e-07
-5.4296e-08
4.86301e-08
-8.36904e-07
-5.21036e-08
6.01633e-08
-8.27383e-07
-4.88969e-08
6.77173e-08
-8.14713e-07
-4.49071e-08
7.09881e-08
-7.98721e-07
-4.04418e-08
7.00511e-08
-7.7905e-07
-3.58521e-08
6.53331e-08
-7.5504e-07
-3.14193e-08
5.75179e-08
-7.25621e-07
-2.73464e-08
4.74466e-08
-6.89035e-07
-2.36983e-08
3.6064e-08
-6.42463e-07
-2.04381e-08
2.44023e-08
-5.81286e-07
-1.73986e-08
1.35289e-08
-4.97555e-07
-1.42284e-08
4.69809e-09
-3.76202e-07
-1.03307e-08
-1.82571e-07
-4.69361e-09
-6.77284e-09
-1.69122e-07
-6.7798e-09
-1.95563e-08
-3.48932e-07
-1.47759e-08
-3.54139e-08
-4.61862e-07
-2.02792e-08
-5.25769e-08
-5.39872e-07
-2.48245e-08
-6.95188e-08
-5.96884e-07
-2.93099e-08
-8.48014e-08
-6.40196e-07
-3.42926e-08
-9.70171e-08
-6.74101e-07
-4.00586e-08
-1.04903e-07
-7.01226e-07
-4.66961e-08
-1.07368e-07
-7.23213e-07
-5.41018e-08
-1.03654e-07
-7.41105e-07
-6.20115e-08
-9.34553e-08
-7.55511e-07
-7.00045e-08
-7.70152e-08
-7.66813e-07
-7.75134e-08
-5.51983e-08
-7.75201e-07
-8.38919e-08
-2.94372e-08
-7.80781e-07
-8.85275e-08
-1.60162e-09
-7.83547e-07
-9.09545e-08
2.62776e-08
-7.8347e-07
-9.09978e-08
5.21623e-08
-7.80552e-07
-8.86503e-08
7.41912e-08
-7.7485e-07
-8.40833e-08
9.08895e-08
-7.66329e-07
-7.77521e-08
1.01387e-07
-7.54941e-07
-7.02694e-08
1.05422e-07
-7.40472e-07
-6.22849e-08
1.03282e-07
-7.22542e-07
-5.43672e-08
9.57266e-08
-7.00543e-07
-4.69418e-08
8.38163e-08
-6.73434e-07
-4.02769e-08
6.88222e-08
-6.39564e-07
-3.44775e-08
5.21381e-08
-5.96321e-07
-2.94583e-08
3.51843e-08
-5.39399e-07
-2.49326e-08
1.94695e-08
-4.61497e-07
-2.0343e-08
6.76663e-09
-3.48706e-07
-1.47929e-08
-1.69043e-07
-6.76173e-09
-8.60242e-09
-1.5191e-07
-8.60978e-09
-2.48144e-08
-3.14012e-07
-1.87083e-08
-4.49493e-08
-4.1608e-07
-2.56474e-08
-6.67848e-08
-4.86602e-07
-3.14342e-08
-8.84345e-08
-5.38001e-07
-3.72334e-08
-1.08079e-07
-5.76811e-07
-4.37408e-08
-1.23934e-07
-6.06902e-07
-5.13446e-08
-1.34346e-07
-6.30637e-07
-6.01766e-08
-1.37874e-07
-6.49557e-07
-7.01282e-08
-1.33476e-07
-6.64611e-07
-8.08914e-08
-1.20654e-07
-6.76447e-07
-9.18864e-08
-9.96339e-08
-6.85498e-07
-1.02334e-07
-7.14446e-08
-6.92053e-07
-1.11338e-07
-3.79323e-08
-6.96315e-07
-1.17978e-07
-1.57581e-09
-6.98391e-07
-1.21512e-07
3.48262e-08
-6.98319e-07
-1.21553e-07
6.84709e-08
-6.9611e-07
-1.18087e-07
9.68538e-08
-6.91722e-07
-1.11511e-07
1.18136e-07
-6.85047e-07
-1.02564e-07
1.31258e-07
-6.75917e-07
-9.21468e-08
1.35977e-07
-6.64027e-07
-8.11637e-08
1.32773e-07
-6.48941e-07
-7.03965e-08
1.22689e-07
-6.3003e-07
-6.04289e-08
1.07136e-07
-6.06308e-07
-5.15732e-08
8.77776e-08
-5.76267e-07
-4.39385e-08
6.63712e-08
-5.37519e-07
-3.73955e-08
4.47358e-08
-4.86208e-07
-3.15559e-08
2.47445e-08
-4.15783e-07
-2.57224e-08
8.59995e-09
-3.13828e-07
-1.87328e-08
-1.51848e-07
-8.59441e-09
-1.01022e-08
-1.31699e-07
-1.01089e-08
-2.91142e-08
-2.73081e-07
-2.19185e-08
-5.27286e-08
-3.6244e-07
-3.00255e-08
-7.83903e-08
-4.24151e-07
-3.67896e-08
-1.03902e-07
-4.68899e-07
-4.35899e-08
-1.27118e-07
-5.02328e-07
-5.12668e-08
-1.45951e-07
-5.278e-07
-6.02688e-08
-1.58411e-07
-5.47433e-07
-7.07449e-08
-1.62781e-07
-5.62586e-07
-8.2601e-08
-1.57775e-07
-5.74179e-07
-9.54381e-08
-1.42768e-07
-5.82878e-07
-1.08575e-07
-1.1798e-07
-5.89169e-07
-1.21117e-07
-8.45954e-08
-5.93485e-07
-1.31953e-07
-4.47876e-08
-5.96146e-07
-1.39977e-07
-1.53788e-09
-5.97386e-07
-1.44255e-07
4.17533e-08
-5.97319e-07
-1.44291e-07
8.16862e-08
-5.9595e-07
-1.40093e-07
1.15263e-07
-5.93171e-07
-1.32127e-07
1.40313e-07
-5.88767e-07
-1.21331e-07
1.55608e-07
-5.82393e-07
-1.08819e-07
1.60926e-07
-5.7365e-07
-9.56949e-08
1.56884e-07
-5.6204e-07
-8.28586e-08
1.44734e-07
-5.46889e-07
-7.09916e-08
1.26207e-07
-5.27286e-07
-6.04949e-08
1.03263e-07
-5.01856e-07
-5.14658e-08
7.79917e-08
-4.68492e-07
-4.37564e-08
5.25268e-08
-4.23832e-07
-3.69114e-08
2.90438e-08
-3.622e-07
-3.00998e-08
1.01008e-08
-2.72939e-07
-2.19469e-08
-1.31652e-07
-1.00952e-08
-1.11762e-08
-1.0934e-07
-1.11825e-08
-3.21821e-08
-2.27874e-07
-2.42015e-08
-5.83036e-08
-3.0322e-07
-3.30984e-08
-8.67425e-08
-3.552e-07
-4.05123e-08
-1.15091e-07
-3.92579e-07
-4.79714e-08
-1.40961e-07
-4.20064e-07
-5.63952e-08
-1.61987e-07
-4.40495e-07
-6.62779e-08
-1.75944e-07
-4.55685e-07
-7.77905e-08
-1.80897e-07
-4.66844e-07
-9.07893e-08
-1.75401e-07
-4.74839e-07
-1.04835e-07
-1.58758e-07
-4.80315e-07
-1.19206e-07
-1.31177e-07
-4.83854e-07
-1.32896e-07
-9.40157e-08
-4.85943e-07
-1.44704e-07
-4.96792e-08
-4.87034e-07
-1.53448e-07
-1.48564e-09
-4.87456e-07
-1.58123e-07
4.6748e-08
-4.87397e-07
-1.58155e-07
9.12017e-08
-4.8686e-07
-1.53543e-07
1.28555e-07
-4.85671e-07
-1.44853e-07
1.56366e-07
-4.83489e-07
-1.33088e-07
1.73299e-07
-4.79899e-07
-1.19428e-07
1.79099e-07
-4.74379e-07
-1.05072e-07
1.74463e-07
-4.66374e-07
-9.10302e-08
1.60815e-07
-4.55217e-07
-7.80239e-08
1.40078e-07
-4.40054e-07
-6.64944e-08
1.1448e-07
-4.19671e-07
-5.65882e-08
8.63662e-08
-3.92243e-07
-4.81346e-08
5.81092e-08
-3.54932e-07
-4.06434e-08
3.21178e-08
-3.03027e-07
-3.31818e-08
1.11751e-08
-2.27765e-07
-2.42307e-08
-1.09307e-07
-1.11696e-08
-1.17349e-08
-8.58658e-08
-1.17396e-08
-3.37954e-08
-1.80439e-07
-2.53743e-08
-6.13029e-08
-2.41067e-07
-3.46457e-08
-9.1358e-08
-2.82812e-07
-4.2333e-08
-1.21415e-07
-3.12466e-07
-5.00551e-08
-1.48919e-07
-3.33781e-07
-5.87791e-08
-1.71324e-07
-3.4908e-07
-6.90106e-08
-1.8623e-07
-3.59867e-07
-8.09129e-08
-1.91548e-07
-3.67203e-07
-9.43227e-08
-1.85747e-07
-3.71858e-07
-1.08783e-07
-1.68089e-07
-3.74457e-07
-1.23516e-07
-1.38849e-07
-3.7559e-07
-1.37504e-07
-9.94543e-08
-3.758e-07
-1.49538e-07
-5.24721e-08
-3.75592e-07
-1.58424e-07
-1.4186e-09
-3.75357e-07
-1.63153e-07
4.96721e-08
-3.75307e-07
-1.63181e-07
9.67648e-08
-3.75446e-07
-1.58507e-07
1.36333e-07
-3.7557e-07
-1.49669e-07
1.65805e-07
-3.75288e-07
-1.37673e-07
1.83729e-07
-3.74108e-07
-1.23715e-07
1.89822e-07
-3.71474e-07
-1.08997e-07
1.84799e-07
-3.66809e-07
-9.4542e-08
1.70198e-07
-3.59487e-07
-8.11279e-08
1.48069e-07
-3.48714e-07
-6.92121e-08
1.20824e-07
-3.33463e-07
-5.89616e-08
9.09872e-08
-3.12196e-07
-5.02108e-08
6.11124e-08
-2.82603e-07
-4.24537e-08
3.3734e-08
-2.40925e-07
-3.47233e-08
1.17321e-08
-1.8036e-07
-2.54031e-08
-8.58475e-08
-1.1728e-08
-1.1689e-08
-6.24815e-08
-1.16954e-08
-3.37438e-08
-1.33146e-07
-2.52388e-08
-6.13971e-08
-1.79023e-07
-3.43905e-08
-9.18219e-08
-2.10462e-07
-4.19254e-08
-1.22423e-07
-2.32385e-07
-4.94806e-08
-1.50545e-07
-2.47622e-07
-5.8037e-08
-1.73535e-07
-2.57991e-07
-6.80991e-08
-1.88863e-07
-2.64732e-07
-7.98072e-08
-1.94395e-07
-2.68689e-07
-9.29821e-08
-1.88556e-07
-2.70543e-07
-1.07154e-07
-1.70615e-07
-2.70852e-07
-1.21546e-07
-1.40887e-07
-2.70167e-07
-1.3515e-07
-1.0086e-07
-2.69029e-07
-1.46799e-07
-5.31541e-08
-2.67922e-07
-1.55375e-07
-1.33351e-09
-2.67241e-07
-1.59936e-07
5.0522e-08
-2.67202e-07
-1.59961e-07
9.83301e-08
-2.67808e-07
-1.55446e-07
1.38523e-07
-2.68852e-07
-1.46911e-07
1.68463e-07
-2.69937e-07
-1.35291e-07
1.86647e-07
-2.70578e-07
-1.21715e-07
1.9276e-07
-2.70242e-07
-1.07345e-07
1.87515e-07
-2.68384e-07
-9.31806e-08
1.72461e-07
-2.64429e-07
-8.00037e-08
1.49745e-07
-2.57713e-07
-6.8285e-08
1.21864e-07
-2.47375e-07
-5.82069e-08
9.14725e-08
-2.32179e-07
-4.96256e-08
6.12195e-08
-2.1031e-07
-4.204e-08
3.36813e-08
-1.78922e-07
-3.44649e-08
1.16874e-08
-1.33099e-07
-2.52676e-08
-6.24746e-08
-1.16854e-08
-1.09433e-08
-4.05897e-08
-1.09485e-08
-3.18013e-08
-8.87063e-08
-2.35814e-08
-5.82971e-08
-1.20509e-07
-3.20182e-08
-8.78011e-08
-1.4206e-07
-3.88978e-08
-1.17759e-07
-1.5662e-07
-4.58072e-08
-1.45481e-07
-1.66198e-07
-5.37022e-08
-1.68253e-07
-1.72149e-07
-6.30694e-08
-1.83542e-07
-1.75411e-07
-7.40312e-08
-1.89184e-07
-1.76656e-07
-8.63922e-08
-1.83638e-07
-1.76409e-07
-9.96796e-08
-1.66209e-07
-1.75139e-07
-1.13142e-07
-1.37244e-07
-1.7331e-07
-1.25823e-07
-9.82219e-08
-1.71391e-07
-1.3666e-07
-5.17234e-08
-1.69806e-07
-1.44615e-07
-1.22657e-09
-1.68904e-07
-1.48834e-07
4.93018e-08
-1.68875e-07
-1.48855e-07
9.58931e-08
-1.69722e-07
-1.44677e-07
1.35064e-07
-1.71259e-07
-1.36765e-07
1.64225e-07
-1.73138e-07
-1.2596e-07
1.81879e-07
-1.74936e-07
-1.13297e-07
1.87676e-07
-1.76191e-07
-9.98487e-08
1.82291e-07
-1.7643e-07
-8.65693e-08
1.67264e-07
-1.75194e-07
-7.42076e-08
1.44736e-07
-1.71947e-07
-6.32383e-08
1.1724e-07
-1.66022e-07
-5.38573e-08
8.74796e-08
-1.56478e-07
-4.59412e-08
5.81317e-08
-1.41957e-07
-3.90048e-08
3.17455e-08
-1.20447e-07
-3.20889e-08
1.09405e-08
-8.86831e-08
-2.36106e-08
-4.05928e-08
-1.09414e-08
-9.38353e-09
-2.18173e-08
-9.3888e-09
-2.77715e-08
-5.01699e-08