/*--------------------------------*- C++ -*----------------------------------*\
| =========                 |                                                 |
| \\      /  F ield         | OpenFOAM: The Open Source CFD Toolbox           |
|  \\    /   O peration     | Version:  v1912                                 |
|   \\  /    A nd           | Website:  www.openfoam.com                      |
|    \\/     M anipulation  |                                                 |
\*---------------------------------------------------------------------------*/
FoamFile
{
    version     2.0;
    format      ascii;
    class       volScalarField;
    location    "23.5/oil";
    object      heatTransferCoeff(T);
}
// * * * * * * * * * * * * * * * * * * * * * * * * * * * * * * * * * * * * * //

dimensions      [1 0 -3 -1 0 0 0];


internalField   uniform 0;

boundaryField
{
    maxY
    {
        type            calculated;
        value           uniform 0;
    }
    minX
    {
        type            calculated;
        value           uniform 0;
    }
    maxX
    {
        type            calculated;
        value           uniform 0;
    }
    minY
    {
        type            calculated;
        value           uniform 0;
    }
    minZ
    {
        type            calculated;
        value           uniform 0;
    }
    maxZ
    {
        type            calculated;
        value           uniform 0;
    }
    oil_to_sphere
    {
        type            calculated;
        value           nonuniform List<scalar> 
1536
(
-144.12
-143.624
-143.769
-142.374
-141.915
-143.37
-143.062
-142.992
-142.863
-142.316
-142.021
-142.294
-142.901
-142.538
-141.463
-142.879
-143.465
-143.81
-142.827
-142.92
-143.256
-142.802
-142.954
-142.883
-143.002
-142.915
-142.855
-142.783
-143.953
-145.101
-143.58
-142.631
-142.8
-144.67
-143.037
-143.713
-142.685
-142.887
-142.493
-144.638
-143.51
-143.587
-142.743
-142.835
-142.68
-142.622
-142.282
-142.401
-142.654
-142.183
-142.746
-142.579
-142.006
-142.751
-142.659
-142.907
-143.036
-143.216
-143.013
-143.412
-143.146
-142.79
-143.067
-143.807
-143.576
-143.523
-141.982
-142.012
-141.277
-143.269
-142.97
-143.15
-142.911
-142.968
-143.471
-143.243
-142.712
-143.514
-144.63
-143.806
-142.141
-142.522
-142.473
-144.49
-143.492
-144.007
-142.863
-142.83
-143.13
-143.266
-143.038
-142.946
-142.78
-143.011
-142.866
-143.02
-143.28
-142.938
-142.942
-142.855
-142.268
-142.01
-143.931
-143.754
-143.961
-142.842
-142.944
-143.308
-143.083
-143.441
-142.773
-141.642
-142.008
-144.188
-144.031
-143.846
-142.642
-142.573
-142.935
-142.852
-141.456
-142.864
-143.326
-144.053
-143.566
-142.816
-142.89
-143.4
-143.893
-143.196
-143.273
-142.031
-141.945
-142.023
-143.736
-143.538
-144.152
-142.353
-142.756
-143.111
-143.064
-143.187
-142.688
-142.758
-142.833
-143
-142.997
-143.158
-143.72
-143.563
-141.931
-142.884
-142.017
-144.349
-143.481
-143.585
-143.045
-143.297
-142.734
-141.818
-142.566
-143.623
-144.307
-143.213
-142.589
-142.887
-142.84
-141.549
-142.094
-142.472
-142.623
-144.497
-143.521
-143.066
-142.794
-143.114
-142.176
-142.037
-142.421
-142.068
-143.935
-144.202
-143.698
-143.012
-142.928
-143.09
-143.084
-142.669
-143.444
-143.48
-143.616
-143.628
-142.824
-142.613
-143.158
-143.457
-143.045
-142.918
-144.097
-143.529
-143.911
-141.91
-142.103
-143.039
-143.47
-142.676
-142.827
-143.326
-143.065
-141.822
-144.455
-144.137
-143.906
-142.036
-143.105
-142.581
-142.718
-143.443
-142.823
-143.109
-143.127
-142.84
-142.859
-142.726
-143.035
-142.851
-142.98
-142.753
-144.068
-144.276
-145.533
-144.534
-144.579
-144.276
-144.209
-143.187
-143.467
-143.922
-145.205
-143.109
-142.817
-145.627
-143.739
-144.166
-143.693
-142.903
-144.142
-143.914
-144.784
-143.426
-142.448
-143.779
-144.499
-144.255
-143.021
-143.099
-143.868
-144.355
-144.661
-145.496
-144.743
-145.574
-144.366
-143.49
-145.955
-141.861
-142.038
-144.065
-143.12
-144.059
-142.687
-142.549
-142.279
-142.814
-143.134
-144.337
-143.491
-144.616
-143.166
-143.226
-143.647
-144.315
-144.974
-143.027
-143.019
-143.202
-143.021
-141.669
-141.356
-141.67
-143.098
-143.004
-143.191
-143.698
-141.555
-141.227
-141.548
-141.584
-143.036
-143.814
-142.913
-143.564
-141.776
-144.075
-144.134
-144.547
-145.059
-145.396
-144.025
-142.18
-141.909
-146.165
-144.44
-144.06
-142.033
-142.028
-145.048
-143.793
-144.664
-144.208
-144.242
-145.618
-143.163
-142.948
-143.273
-142.878
-143.399
-142.973
-143.882
-143.046
-141.438
-143.744
-143.498
-143.784
-142.288
-141.708
-143.89
-143.862
-143.871
-142.619
-143.052
-142.657
-142.962
-144.059
-143.917
-143.357
-142.946
-143.338
-143.439
-141.56
-144.263
-143.797
-144.667
-142.426
-142.872
-143.022
-142.859
-144.057
-143.723
-143.89
-141.435
-143.788
-144.466
-144.619
-142.566
-142.493
-142.001
-143.762
-143.687
-143.205
-142.977
-143.227
-143.36
-141.755
-141.905
-143.932
-144.557
-143.816
-143.56
-143.764
-143.842
-142.503
-142.791
-141.992
-143.613
-142.644
-143.824
-144.732
-144.391
-143.861
-144.104
-143.482
-143.441
-143.301
-143.557
-141.376
-142.285
-142.32
-144.679
-144.597
-143.733
-142.8
-142.632
-141.944
-143.527
-144.827
-144.775
-146.147
-142.772
-143.268
-142.165
-141.761
-143.173
-143.034
-143.719
-143.806
-145.177
-142.7
-142.722
-142.068
-141.712
-142.679
-144.464
-144.515
-143.576
-142.597
-142.881
-144.141
-143.699
-146.025
-142.791
-141.771
-143.028
-143.813
-144.5
-144.161
-143.331
-143.416
-143.576
-143.858
-141.508
-142.286
-142.752
-143.986
-143.622
-144.932
-143.056
-143.082
-143.955
-144.449
-143.605
-144.116
-143.53
-143.889
-141.169
-143.071
-142.86
-143.24
-142.327
-142.646
-143.874
-144.241
-144.963
-142.888
-142.907
-142.899
-143.109
-142.895
-143.546
-143.219
-142.544
-141.885
-142.546
-142.169
-142.474
-144.191
-144.339
-143.915
-144.377
-143.984
-146.531
-141.954
-142
-144.661
-143.958
-144.379
-144.451
-144.185
-145.951
-142.95
-143.006
-143.2
-142.736
-142.896
-143.599
-142.592
-142.917
-143.529
-143.576
-144.075
-143.427
-143.091
-143.234
-143.234
-141.848
-143.906
-144.273
-143.714
-143.014
-142.489
-142.942
-143.101
-143.98
-144.005
-143.58
-143.506
-143.426
-143.673
-141.412
-142.606
-142.264
-144.263
-145.032
-144.439
-142.925
-142.782
-143.14
-142.783
-143.145
-144.402
-144.964
-144.438
-143.232
-142.146
-142.974
-142.659
-143.044
-143.063
-143.425
-141.879
-143.634
-143.497
-143.327
-142.811
-142.288
-143.98
-143.926
-145.459
-143.251
-142.842
-143.89
-144.041
-143.156
-143.308
-143.316
-143.183
-141.684
-143.359
-143.044
-142.507
-142.48
-143.693
-143.841
-142.234
-142.416
-142.208
-142.353
-144.373
-144.512
-144.509
-144.163
-144.233
-143.222
-143.012
-143.213
-143.387
-141.538
-144.446
-143.845
-144.466
-142.835
-142.228
-142.942
-142.539
-144.47
-143.889
-143.109
-143.541
-143.126
-143.303
-141.365
-142.9
-142.625
-142.898
-142.887
-142.326
-144.111
-144.726
-144.379
-143.084
-142.366
-142.751
-141.75
-142.545
-141.896
-144.432
-144.144
-144.042
-142.42
-143.101
-142.508
-142.994
-142.751
-142.979
-142.942
-143.723
-143.915
-142.842
-142.835
-142.929
-143.034
-141.986
-142.75
-142.183
-144.03
-144.346
-143.853
-143.183
-142.818
-143.102
-142.331
-144.127
-144.521
-144.679
-143.035
-142.472
-143.846
-144.25
-143.082
-142.903
-143.681
-142.714
-141.707
-142.594
-142.015
-144.108
-143.616
-145.938
-143.209
-142.786
-143.929
-145.218
-143.574
-143.564
-142.937
-143.581
-141.402
-142.765
-142.975
-142.755
-142.847
-143.124
-143.125
-143.143
-143.068
-142.252
-141.408
-141.629
-141.587
-143.051
-143.414
-143.128
-144.018
-141.501
-143.904
-143.691
-143.118
-143.278
-143.365
-142.856
-141.566
-142.681
-142.179
-144.013
-145.337
-143.854
-142.835
-142.883
-143.289
-143.372
-142.985
-143.458
-143.552
-143.623
-143.037
-143.346
-143.129
-141.777
-142.802
-142.983
-143.262
-143.442
-142.882
-142.486
-142.682
-142.846
-143.114
-141.966
-142.935
-144.457
-144.321
-145.136
-142.76
-142.931
-142.637
-143.851
-142.85
-143.968
-143.843
-143.412
-143.496
-143.631
-142.99
-141.556
-142.675
-142.157
-144.05
-143.881
-143.972
-142.917
-142.833
-143.59
-143.565
-143.552
-142.94
-142.69
-143.368
-141.603
-142.577
-143.167
-143.32
-143.065
-142.059
-144.52
-145.291
-144.27
-143.083
-142.859
-143.769
-143.832
-143.337
-142.876
-143.291
-143.266
-141.567
-143.121
-142.715
-143.222
-142.599
-142.294
-142.555
-142.188
-143.788
-144.389
-144.315
-144.869
-143.876
-146.108
-144.663
-144.371
-144.239
-142.208
-142.255
-144.637
-144.893
-143.996
-144.197
-143.472
-144.823
-142.27
-143
-143.651
-143.148
-143.224
-142.591
-144.858
-143.913
-144.581
-144.377
-144.318
-143.245
-143.893
-143.876
-143.459
-141.41
-144.353
-144.13
-143.25
-143.379
-143.685
-143.693
-141.479
-142.769
-142.644
-142.626
-142.808
-142.363
-144.407
-145.033
-143.838
-143.114
-142.843
-142.832
-142.005
-144.226
-145.081
-144.369
-143.016
-142.9
-142.281
-141.574
-142.424
-141.989
-142.893
-143.265
-143.348
-142.958
-142.471
-141.633
-142.619
-142.037
-144.271
-144.152
-143.946
-142.626
-143.886
-143.242
-141.372
-142.233
-142.969
-144.784
-144.053
-143.931
-143.177
-142.99
-143.221
-142.047
-144.61
-144.243
-143.941
-142.947
-142.73
-145.429
-145.401
-144.308
-144.505
-144.767
-143.79
-141.918
-142.035
-144.9
-144.281
-144.009
-142.646
-141.426
-142.604
-141.923
-143.213
-143.07
-142.756
-143.56
-141.701
-141.485
-141.486
-142.851
-142.874
-144.924
-144.039
-144.576
-143.192
-142.615
-145.133
-144.016
-144.645
-142.747
-142.675
-142.127
-145.033
-144.11
-144.426
-141.872
-141.677
-145.05
-143.754
-143.962
-146.017
-143.62
-144.913
-143.496
-144.315
-143.532
-141.975
-143.922
-143.553
-144.105
-142.761
-142.564
-142.027
-141.486
-143.239
-142.939
-142.915
-143.445
-141.88
-141.531
-142.708
-142.704
-142.046
-143.523
-142.683
-144.501
-143.761
-144.758
-143.237
-143.002
-142.907
-143.911
-143.817
-143.353
-143.474
-143.186
-143.202
-141.482
-142.07
-142.91
-145.009
-144.078
-144.244
-142.741
-142.668
-142.779
-142.343
-144.544
-143.639
-144.122
-142.995
-142.743
-141.627
-143.757
-143.675
-144.262
-143.817
-143.817
-144.002
-142.613
-142.607
-142.228
-142.383
-142.119
-142.292
-142.51
-142.917
-143.046
-143.051
-142.858
-142.388
-141.285
-143.996
-143.922
-143.267
-142.793
-143.658
-143.411
-141.471
-144.503
-143.941
-143.284
-142.737
-143.195
-143.509
-141.415
-142.19
-142.648
-145.131
-143.982
-143.612
-142.882
-142.85
-141.743
-143.214
-145.108
-145.221
-144.448
-142.561
-143.246
-144.364
-144.291
-143.93
-144.338
-144.685
-143.74
-142.19
-142.413
-143.509
-143.968
-143.536
-142.102
-142.833
-142.712
-143.043
-143.119
-142.893
-144.734
-144.055
-144.405
-144.393
-143.831
-146.619
-142.249
-142.248
-142.755
-144.098
-144.584
-144.559
-144.495
-143.536
-142.866
-141.989
-143.022
-144.131
-143.498
-142.984
-144.134
-144.479
-144.28
-146.192
-144.176
-144.11
-142.579
-142.029
-143.797
-144.435
-145.041
-143.097
-142.903
-143.169
-141.818
-145.245
-145.105
-144.463
-143.046
-142.459
-144.044
-144.946
-143.68
-143.637
-143.656
-143.34
-141.421
-144.554
-143.406
-143.419
-143.73
-143.359
-143.669
-141.005
-142.745
-142.865
-143.523
-144.172
-143.691
-143.727
-143.507
-143.6
-144.095
-141.699
-142.963
-142.756
-141.936
-141.307
-142.663
-142.617
-142.885
-143.334
-143.079
-143.354
-142.487
-142.723
-142.192
-143.781
-144.152
-143.774
-142.857
-142.875
-144.012
-144.098
-143.592
-142.578
-143.819
-143.564
-141.462
-142.196
-142.182
-144.253
-144.401
-143.681
-142.809
-143.291
-143.477
-141.467
-144.654
-144.431
-144.234
-142.1
-141.944
-144.981
-143.494
-144.548
-144.514
-144.454
-144.312
-144.247
-143.672
-144.297
-140.885
-143.905
-143.925
-144.167
-142.63
-142.403
-141.782
-141.588
-143.316
-143.135
-143.235
-143.748
-141.85
-141.328
-142.731
-142.686
-142.195
-143.436
-142.821
-144.576
-143.88
-144.359
-142.01
-142.178
-143.768
-144.901
-144.052
-145.713
-144.024
-144.372
-144.261
-144.083
-144.978
-142.335
-142.015
-142.426
-141.739
-144.745
-143.888
-144.52
-144.134
-144.139
-143.852
-141.175
-142.604
-141.447
-141.327
-143.031
-143.902
-143.081
-142.848
-141.804
-143.386
-142.878
-143.66
-144.308
-144.584
-143.147
-142.819
-143.802
-144.376
-146.155
-143.213
-142.415
-143.886
-145.116
-143.556
-143.149
-142.605
-144.393
-144.683
-144.017
-143.785
-143.93
-143.546
-141.089
-142.566
-143.33
-143.271
-143.792
-143.094
-143.219
-143.589
-143.619
-143.402
-141.846
-142.632
-141.659
-144.057
-143.206
-143.925
-141.653
-143.392
-143.674
-143.871
-142.721
-142.598
-141.842
-141.543
-142.419
-141.456
-143.101
-142.99
-143.09
-143.326
-142.345
-142.147
-142.88
-143.785
-144.199
-144.731
-142.803
-142.882
-142.012
-142.956
-143.816
-144.154
-144.658
-142.825
-143.042
-142.237
-142.394
-143.703
-143.939
-142.994
-142.595
-143.158
-143.703
-141.63
-143.95
-144.345
-143.687
-142.685
-143.27
-142.95
-141.533
-142.137
-141.93
-145.175
-143.628
-144.489
-144.584
-144.507
-144.352
-143.408
-142.834
-143.907
-144.822
-144.689
-144.421
-144.602
-144.716
-143.133
-142.894
-143.053
-143.356
-142.582
-142.835
-142.89
-142.645
-143.145
-142.056
-142.824
-144.312
-144.178
-144.375
-142.613
-143.022
-142.871
-143.435
-142.445
-144.588
-143.926
-143.29
-143.167
-142.924
-143.447
-141.445
-144.715
-145.495
-145.421
-143.042
-141.889
-143.032
-142.63
-143.727
-144.198
-143.482
-143.238
-143.185
-142.792
-141.798
-143.272
-143.25
-142.968
-143.72
-144.649
-143.796
-143.113
-142.485
-143.088
-142.935
-143.189
-143.784
-143.578
-141.764
-143.532
-143.648
-143.215
-143.344
-143.36
-143.019
-142.42
-142.238
-142.128
-142.407
-144.348
-144.229
-144.081
-142.751
-143.452
-142.778
-142.069
-142.78
-144.173
-144.268
-144.131
-142.464
-142.995
-144.316
-144.119
-143.547
-142.863
-143.169
-143.286
-141.412
-144.583
-143.719
-144.305
-142.986
-142.367
-142.913
-142.738
-143.082
-143.128
-143.177
-143.159
-143.666
-142.147
-141.066
-142.631
-141.803
-143.511
-144.468
-143.975
-143.13
-143.425
-143.467
-141.088
-142.694
-143.288
-144.299
-143.823
-144.085
-142.949
-142.539
-142.751
-142.805
-143.322
-141.434
-143.618
-144.072
-143.263
-145.205
-144.055
-144.276
-142.41
-142.859
-142.982
-142.799
-144.512
-143.858
-143.076
-143.944
-143.56
-144.057
-141.48
-142.72
-142.705
-142.937
-144.051
-144.338
-144.134
-142.97
-142.285
-143.04
-142.674
-143.776
-144.079
-143.156
-142.932
-143.618
-143.864
-141.529
-142.471
-141.194
-143.185
-142.782
-142.894
-142.725
-143.37
-142.49
-141.395
-141.955
-143.141
-144.311
-144.208
-145.272
-142.87
-143.17
-143.103
-143.014
-143.098
-143.535
-143.892
-142.994
-142.924
-142.853
-143.077
-141.917
-143.934
-143.857
-143.509
-142.334
-142.931
-142.864
-142.729
-142.863
-143.325
-143.249
-141.504
-143.987
-143.684
-143.602
-142.434
-142.92
-143.359
-143.342
-143.059
-142.894
-143.022
-142.86
-142.536
-143.665
-143.362
-143.109
-143.379
-143.023
-143.694
-141.723
-141.917
-142.863
-145.017
-144.536
-144.332
-142.91
-142.727
-144.071
-143.554
-143.376
-142.73
-143.009
-143.083
-141.839
-145.785
-144.151
-143.854
-142.144
-142.902
-143.03
-142.897
-143.294
-142.92
-142.433
-142.084
-142.866
-143.725
-144.155
-145.685
-143.102
-142.829
-143.904
-143.682
-143.319
-142.647
-143.107
-143.362
-141.658
-143.804
-144.137
-144.322
-142.222
-142.869
-142.96
-142.857
-142.983
-143.309
-143.556
-141.512
-144.173
-143.785
-143.628
)
;
    }
}


// ************************************************************************* //
