/*--------------------------------*- C++ -*----------------------------------*\
| =========                 |                                                 |
| \\      /  F ield         | OpenFOAM: The Open Source CFD Toolbox           |
|  \\    /   O peration     | Version:  v1912                                 |
|   \\  /    A nd           | Website:  www.openfoam.com                      |
|    \\/     M anipulation  |                                                 |
\*---------------------------------------------------------------------------*/
FoamFile
{
    version     2.0;
    format      ascii;
    class       volScalarField;
    location    "23.5/oil";
    object      wallHeatFlux;
}
// * * * * * * * * * * * * * * * * * * * * * * * * * * * * * * * * * * * * * //

dimensions      [1 0 -3 0 0 0 0];


internalField   uniform 0;

boundaryField
{
    maxY
    {
        type            calculated;
        value           uniform 0;
    }
    minX
    {
        type            calculated;
        value           uniform 0;
    }
    maxX
    {
        type            calculated;
        value           uniform 0;
    }
    minY
    {
        type            calculated;
        value           uniform 0;
    }
    minZ
    {
        type            calculated;
        value           uniform 0;
    }
    maxZ
    {
        type            calculated;
        value           uniform 0;
    }
    oil_to_sphere
    {
        type            calculated;
        value           nonuniform List<scalar> 
1536
(
24122
24038.7
24062.9
23830.6
23753.8
23997
23945.2
23933.8
23911.9
23821
23771.3
23817
23918.5
23857.5
23677.9
23915.3
24012.1
24069.5
23906.4
23921.6
23977.6
23901.7
23927
23915.7
23935.6
23921.1
23910.9
23899
24093.7
24286.3
24031.5
23873.7
23901.7
24214.2
23940.7
24053.7
23882.7
23916.4
23850.6
24209
24019.9
24032.7
23892.2
23907.7
23881.7
23871.9
23814.9
23834.9
23877.3
23798.5
23892.6
23864.8
23768.9
23893.5
23878.2
23919.4
23940.8
23970.8
23937.1
24003.6
23959.5
23899.7
23945.8
24069.1
24031.1
24021.7
23765.1
23769.9
23647.3
23980.1
23929.7
23960.4
23920
23929.4
24013.1
23975.4
23886.4
24020.4
24207.3
24069.1
23791.7
23855.4
23847.2
24184.2
24016.7
24103
23912.3
23906.6
23956.6
23979.2
23941.4
23925.7
23898.2
23936.6
23912.7
23938.5
23981.6
23924.3
23924.8
23910.1
23812.8
23769.5
24090.5
24060.7
24095.9
23908.9
23925.7
23986.4
23949
24008.5
23897
23708
23769.1
24133.7
24107.1
24076
23875.5
23864
23924.6
23910.2
23676.8
23912.6
23989.5
24111.4
24029.4
23904.8
23917.1
24001.2
24083.2
23967.5
23980.1
23773.2
23758.6
23771.9
24057.7
24024.6
24127.7
23827.2
23894.5
23953.6
23945.8
23965.9
23883
23895
23907.2
23935.3
23934.3
23961
24054.6
24028.2
23756.4
23915.8
23770.9
24160.4
24014.9
24032.5
23942.7
23984.5
23890.5
23737.3
23862.9
24038.9
24153.7
23970.3
23866.6
23916.6
23908.3
23692.4
23783.5
23847.1
23872.5
24185.4
24021.8
23945.8
23900.5
23953.6
23797.3
23774.1
23838.6
23779.6
24090.8
24136
24051.4
23937.3
23923.1
23950.1
23948.9
23879.9
24009
24014.7
24037.6
24039.2
23905.6
23870.1
23961.1
24010.8
23942.5
23920.9
24118.2
24022.8
24086.6
23752.9
23785.1
23941.6
24013.4
23881.1
23906
23989.4
23945.5
23738.2
24178.1
24124.2
24085.8
23774.1
23952.7
23864.8
23888
24009.1
23905.4
23952.9
23956.3
23908.2
23911.6
23889.3
23941
23910.1
23931.2
23893.6
24113.5
24147.8
24357.3
24190.6
24197.9
24148.2
24136.2
23965.9
24013
24088.5
24302.6
23952.9
23904.6
24373.2
24058.5
24129.4
24050.5
23918.9
24124.9
24087.8
24232.4
24006.2
23843
24065.3
24185
24143.9
23937.9
23951.4
24080
24161
24211.5
24351.3
24226.1
24363.8
24163.1
24017
24427.9
23744.7
23774.3
24112
23953.8
24112.3
23882.8
23859.7
23814.4
23903.5
23957.6
24158.4
24016.3
24204.3
23961.8
23972.6
24043.1
24153.9
24264
23939.9
23938
23969
23938.2
23712.7
23660.3
23712.9
23951.7
23935.4
23967.3
24051.5
23693.7
23638.9
23692.6
23698.6
23941.4
24070.9
23921
24029.1
23730.6
24114.2
24124.7
24192.4
24278.5
24333.9
24106.1
23797.9
23752.6
24463.2
24174.8
24112.3
23773.4
23772.4
24276.7
24067.7
24212.2
24136.3
24142.7
24371.6
23962.5
23926
23980.9
23914.2
24002.1
23930.7
24082.6
23942.5
23674
24059.3
24017.8
24065.7
23816.3
23719.3
24083.7
24079.3
24080
23871.3
23943.6
23877.9
23928.8
24111.8
24087.7
23994.2
23926.2
23991.6
24008.1
23694.2
24145.8
24068.4
24212.7
23839
23913.5
23939
23911.6
24111.3
24055.3
24083.9
23673.5
24066.3
24180.3
24204.9
23862.8
23850.7
23768.4
24061.9
24049.8
23969
23931.4
23973.2
23995.2
23726.9
23751.9
24090
24194.6
24071.4
24028
24062.1
24075.8
23852.3
23900.2
23766.6
24037.3
23875.7
24072.8
24224.1
24166.7
24078.1
24119.3
24015
24008.7
23984.8
24027.8
23663.2
23815.6
23821.4
24215.4
24201
24057.8
23901.7
23873.7
23758.4
24023
24239.9
24231.7
24460.1
23897.1
23980
23795.4
23728.1
23963.7
23941
24055.4
24069.6
24298.2
23885.3
23888.9
23779.3
23719.4
23881.1
24178.8
24187.8
24030.1
23867.7
23915.1
24125.3
24051.8
24439.5
23900.3
23729.8
23940
24070.1
24185.5
24128.3
23989.9
24004.4
24030.8
24077.9
23685.2
23815.7
23893.5
24099.8
24039.2
24257.3
23944.6
23948.9
24093.7
24177
24035.4
24121.4
24023.2
24083.2
23628.5
23947
23911.7
23975.2
23822.3
23875.6
24080.8
24142.5
24261.9
23916.4
23919.6
23917.9
23953
23917.2
24026.6
23972.1
23859.3
23749
23859.7
23796.8
23847.8
24134
24158.9
24087.9
24164.7
24099.5
24524.1
23760.1
23767.8
24211.4
24095.2
24164.5
24176.7
24133
24427.2
23926.9
23936
23968.6
23890.9
23917.5
24035.1
23866.8
23921.2
24023.4
24031.2
24113.9
24006.1
23950.4
23974.1
23973.9
23742.4
24086.6
24147
24054.2
23937.1
23849.4
23925.4
23952.1
24098.6
24102.3
24031.3
24019.5
24005.7
24047.1
23669.2
23868.9
23811.8
24146
24273.7
24175.1
23922.7
23898.7
23958.1
23898.5
23959
24169.3
24262.8
24174.5
23973.8
23792
23930.8
23878.1
23942.8
23945.7
24006
23747.7
24041.1
24017.6
23989.5
23903.4
23816.1
24099.1
24089.8
24345.3
23977.2
23908.9
24083.9
24108.5
23960.9
23986.7
23988.1
23965.6
23715
23995.1
23942.6
23852.6
23848.4
24051.1
24075.9
23807.4
23837.7
23803.1
23827.3
24164.3
24187.6
24187.2
24129.2
24140.5
23971.7
23937.1
23970.5
23999.6
23690.5
24176.6
24075.1
24179.5
23907.3
23805.6
23925.3
23858
24179.9
24083.3
23952.7
24025.5
23955.6
23985.3
23661.4
23918
23872.1
23917.8
23915.9
23822
24120.4
24222.4
24164.7
23949.1
23829
23893.7
23726.5
23859.2
23750.9
24173.6
24126.3
24109
23838
23951.9
23853
23934.3
23893.5
23931.5
23925.4
24055.6
24088.1
23908.5
23907.9
23923.3
23940.9
23765.6
23893.4
23798.5
24106.6
24159.9
24077.8
23965.8
23904.9
23951.8
23822.9
24123.3
24188.7
24214.8
23940.9
23846.8
24076.2
24143.2
23948.2
23918.9
24048.8
23886.8
23718.8
23866.9
23770.3
24120.1
24037.6
24425
23970
23899.4
24090.1
24304.6
24030.4
24029.2
23924
24031.8
23667.5
23895.7
23930.7
23893.7
23909.8
23955.4
23955.6
23959.2
23947
23810.4
23669.3
23706.2
23699.1
23944
24003.8
23956.7
24104.7
23684.5
24086.2
24050.1
23954.6
23981.9
23996.1
23911.1
23695.3
23881.7
23797.8
24104.2
24324.9
24078
23907.7
23915.9
23983.3
23997.3
23932.5
24011.7
24026.8
24038.9
23941.7
23993.1
23956.6
23730.7
23902
23932.3
23979.1
24009.1
23915.3
23849
23881.9
23909.3
23954.3
23762
23923.9
24177.5
24155.7
24291.5
23895
23923.6
23874.2
24077.2
23909.7
24096
24075.8
24003.4
24017.9
24040.4
23933.1
23693.3
23880.5
23794
24109.6
24081.9
24097.5
23921.4
23907.3
24033.8
24029
24027.1
23925.5
23883.4
23996.7
23701.6
23864.5
23963.2
23988.6
23945.8
23777.7
24188.7
24317.1
24147.3
23949.1
23911.7
24063
24074.1
23991.2
23914.7
23984
23979.5
23695.5
23955.6
23887.8
23972.5
23868.4
23817.5
23861.3
23799.8
24066.7
24167.2
24154.8
24246.8
24081.4
24453.5
24212.2
24162.6
24142
23802.6
23810.4
24207.7
24250.4
24101.4
24134.9
24014.2
24238.7
23813.1
23935.3
24043.1
23960
23972.3
23866.8
24244.9
24087.6
24198.7
24164.3
24155.1
23975.4
24084.2
24081.1
24011.3
23668.9
24160.3
24123.7
23976.2
23998.4
24049.1
24050.4
23680.4
23896.1
23875.2
23872.2
23902.7
23828.3
24170.2
24273.6
24074.7
23954
23908.7
23906.7
23768.4
24139.7
24281.6
24163.2
23937.6
23918.4
23814.9
23696.9
23838.8
23766.2
23916.8
23979.8
23993
23928.3
23847
23706.7
23871.5
23774.1
24146.8
24127.6
24092.8
23872.8
24083.3
23975.6
23663.1
23806.7
23929.8
24232.3
24111.1
24090.4
23964.9
23933.5
23971.9
23775.7
24203.4
24142.4
24092.4
23926.4
23890.2
24339.8
24334.9
24153.3
24185.9
24229
24066.8
23753.9
23773.5
24251.5
24147.9
24103.6
23876
23672.1
23868.9
23755.1
23971
23946.5
23894.7
24028.7
23718.1
23682
23682.2
23909.7
23914.2
24255.8
24108.7
24197.7
23967
23871
24290.6
24104.8
24209.5
23893
23881.1
23789.1
24273.8
24120.2
24172
23746.3
23713.7
24276.5
24060.9
24094.8
24438.2
24036.8
24254.1
24017.1
24154.4
24024
23763.5
24088.3
24026.8
24119.8
23895.3
23862.1
23772.4
23682.2
23975
23925.3
23921.3
24009.5
23748.1
23689.9
23886.6
23886
23775.8
24022.4
23882.2
24185.1
24062.3
24228.5
23974.5
23935
23919.3
24086.6
24071.3
23993.5
24014.3
23966
23968.4
23681
23779.1
23919.7
24269.4
24114.9
24142.2
23891.6
23879.4
23897.7
23824.9
24192.3
24041.5
24122.5
23934.1
23892.1
23705.6
24061
24047.9
24145.4
24071
24071.8
24102
23870.7
23869.6
23806.4
23832.1
23788.1
23817.1
23853.5
23921
23943
23943.5
23911.7
23833
23648.6
24101
24089.2
23979.5
23900.8
24045.1
24003.8
23679.6
24185.8
24092.5
23982.2
23891.3
23967.4
24020.2
23670.1
23799.6
23876.3
24290.5
24099.1
24037.6
23915.6
23910.3
23724.8
23970.8
24286.5
24305.7
24177
23861.9
23976.4
24162.7
24149.9
24090.6
24158
24215.6
24058.6
23799.8
23836.9
24019.2
24096
24024.7
23785.2
23907.3
23886.1
23942.4
23954.3
23917.1
24224.2
24111.5
24169.2
24167.3
24073.8
24538.2
23809.4
23809.3
23893
24118.6
24198.7
24194.8
24184.8
24023.4
23912.8
23766.1
23938.9
24123.4
24018
23932.3
24124.6
24181.7
24148.2
24467.8
24131.5
24119.1
23864.4
23772.4
24068.1
24174.3
24275.2
23951.3
23918.8
23963
23737
24309.6
24285.7
24178.2
23942.7
23844.5
24109.2
24259.1
24048
24041.4
24044.1
23991.3
23670.7
24194.4
24001.9
24004.3
24057
23994.7
24046.5
23601.2
23892
23912.1
24022.2
24130.3
24050.5
24055.8
24019.1
24034.7
24118.2
23717.4
23929.1
23894.3
23757.4
23652.2
23879.1
23871.3
23916.1
23990.6
23948.5
23994
23849.5
23888.7
23800
24065.5
24127
24064.7
23911.2
23914.4
24104.2
24117.9
24033.6
23864.7
24072
24029.3
23678
23800.7
23798.3
24144.5
24168.6
24048.4
23903.4
23983.8
24014.9
23678.9
24210.5
24173.9
24139.7
23784.4
23758.3
24265.3
24017.5
24192.9
24187.3
24176.5
24154
24142.6
24046.6
24151.8
23581.5
24085.6
24088.8
24130.1
23873.5
23835.2
23731.5
23699.3
23987.7
23958
23974.7
24059.8
23743.1
23655.8
23890.5
23882.8
23800.6
24007.6
23905.3
24197.5
24082.3
24161.6
23769.3
23797.4
24063.4
24251.9
24109.8
24387.4
24105.8
24162.8
24145.1
24115.8
24264.1
23823.9
23770.5
23839
23724.5
24226.1
24083.4
24188.2
24124.1
24125.5
24076.4
23629.9
23869
23675.7
23655.7
23940.6
24085.7
23949
23909.6
23735.3
23999.2
23914.8
24045.5
24153.1
24198.9
23959.3
23904.9
24069.2
24164.4
24461.7
23970.3
23837
24082.8
24287.8
24027.9
23960
23869
24167.4
24215.2
24104.2
24066.2
24089.8
24025.7
23615.1
23862.1
23989.8
23979.9
24067.1
23949.8
23971
24033.6
24038
24001.9
23741.9
23873.6
23711.1
24111.1
23968.7
24089.8
23709.8
23999.9
24047.8
24080.2
23888.8
23868
23741.8
23691.7
23838.4
23677.6
23951.9
23933.8
23950.5
23989.5
23825.9
23792.6
23915
24066.5
24135.4
24223.7
23902.4
23915.7
23769.8
23927.7
24071.6
24127.6
24211.4
23906
23942.2
23807.5
23833.8
24052.6
24091.5
23933.9
23867.6
23961.4
24052.6
23706.2
24093.8
24159.4
24049.5
23882.6
23980.4
23926.8
23689.9
23790.8
23756.3
24297.7
24040.2
24183
24199.3
24186
24161
24002.6
23907.3
24086.6
24239
24216.8
24171.9
24201.7
24221.9
23957.2
23917.1
23943.8
23994.7
23865.1
23907.3
23916.8
23875.8
23959.5
23777
23905.3
24153.3
24131.8
24164.2
23870.4
23938.8
23913.2
24007.5
23842
24199.8
24089.7
23983.2
23963.1
23922.2
24009.6
23675
24220.4
24351.3
24339.4
23941.8
23749
23940.4
23873.3
24056.6
24134.5
24015.5
23975.3
23966.1
23900.2
23734.1
23980.5
23977
23929.6
24055.2
24210
24068.3
23953.7
23848.7
23949.8
23924.4
23966.9
24066.2
24031.5
23728.4
24023.4
24043.3
23970.7
23992.9
23995.5
23938.6
23838.4
23807.9
23789.7
23836.5
24160.2
24140.4
24115.6
23893.2
24010.2
23897.7
23779
23897.9
24130
24146.8
24123.4
23845.4
23934.3
24154.2
24121.7
24025.8
23912.2
23963.1
23982.8
23669.4
24198.6
24054.8
24153.1
23932.3
23828.9
23920.5
23891.2
23949
23956.1
23964.9
23961.2
24046.9
23792.7
23612.2
23873.7
23735.3
24019.7
24180.1
24097.5
23957
24006.1
24013.2
23615.4
23883.5
23982.8
24151.3
24072.2
24116.5
23926.7
23858.1
23893.7
23902.4
23988.9
23673.4
24037.8
24114.2
23978.7
24303.1
24111
24148.5
23836.2
23911.2
23932.4
23901.6
24187.7
24077.6
23947.2
24092.8
24028
24111.2
23680.6
23888
23885.5
23924.2
24110.4
24157.8
24124.7
23929.8
23815.3
23941.8
23880.6
24064.1
24115.1
23960.7
23923.7
24038.2
24079.3
23689.1
23847
23633.6
23966.2
23898.2
23917.5
23888.7
23997.4
23850.2
23667
23760.4
23958.8
24154.3
24136.7
24314.2
23913.5
23963.7
23952.4
23937.5
23951.6
24024.7
24083.8
23934.1
23922.8
23910.7
23948.2
23754.1
24091.4
24078.2
24019.3
23823.6
23923.5
23912.6
23889.9
23912.5
23989.4
23976.8
23685.1
24099.6
24049.4
24035.5
23840.3
23921.5
23994.8
23992.2
23944.8
23917.3
23938.8
23911.8
23857.6
24045.5
23995.4
23953
23998.3
23938.5
24050.6
23721.3
23753.9
23912.2
24271.2
24191.3
24157.5
23920.2
23889.6
24113.6
24027.5
23997.6
23890
23936.5
23948.7
23741
24399.7
24127.1
24077.9
23791.9
23918.7
23940.3
23918
23984.4
23921.9
23840.4
23782
23912.6
24056.6
24128.1
24383.1
23952.4
23906.7
24085.7
24049
23988.1
23876.3
23953.1
23995.8
23710.7
24069.5
24124.9
24155.3
23805
23913.2
23928.6
23911.4
23932.6
23986.8
24028.2
23686.5
24130.6
24066.3
24039.7
)
;
    }
}


// ************************************************************************* //
