/*--------------------------------*- C++ -*----------------------------------*\
| =========                 |                                                 |
| \\      /  F ield         | OpenFOAM: The Open Source CFD Toolbox           |
|  \\    /   O peration     | Version:  v1906                                 |
|   \\  /    A nd           | Web:      www.OpenFOAM.com                      |
|    \\/     M anipulation  |                                                 |
\*---------------------------------------------------------------------------*/
FoamFile
{
    version     2.0;
    format      ascii;
    class       volVectorField;
    location    "24.2/oil";
    object      U;
}
// * * * * * * * * * * * * * * * * * * * * * * * * * * * * * * * * * * * * * //

dimensions      [0 1 -1 0 0 0 0];


internalField   nonuniform List<vector> 
27760
(
(-2.8944e-05 -2.95302e-05 -2.8944e-05)
(-5.71661e-05 -2.21619e-05 -2.08391e-05)
(-4.24536e-06 -5.76066e-06 -5.67108e-06)
(-6.99739e-06 -9.57539e-07 -9.93634e-07)
(-1.74179e-06 -3.25493e-07 -3.63154e-07)
(-1.01754e-06 -1.56966e-07 -1.91212e-07)
(-3.67725e-07 -5.75803e-08 -9.13842e-08)
(-7.99434e-08 -1.86647e-08 -5.34871e-08)
(7.6715e-08 8.10587e-10 -3.52751e-08)
(1.51705e-07 1.10291e-08 -2.61033e-08)
(1.77298e-07 1.71232e-08 -2.0733e-08)
(1.68181e-07 2.11346e-08 -1.71554e-08)
(1.33762e-07 2.38229e-08 -1.46771e-08)
(8.11204e-08 2.55304e-08 -1.30359e-08)
(1.69698e-08 2.64482e-08 -1.21366e-08)
(-5.20191e-08 2.66177e-08 -1.19637e-08)
(-1.19412e-07 2.60884e-08 -1.24672e-08)
(-1.79341e-07 2.49389e-08 -1.35349e-08)
(-2.26927e-07 2.32862e-08 -1.49895e-08)
(-2.58711e-07 2.11881e-08 -1.6647e-08)
(-2.72901e-07 1.87695e-08 -1.82687e-08)
(-2.69335e-07 1.61916e-08 -1.95948e-08)
(-2.49353e-07 1.35689e-08 -2.03297e-08)
(-2.15626e-07 1.09631e-08 -2.02488e-08)
(-1.72069e-07 8.40049e-09 -1.92264e-08)
(-1.2359e-07 5.98284e-09 -1.71082e-08)
(-7.58475e-08 3.92113e-09 -1.38841e-08)
(-3.50998e-08 2.62572e-09 -9.80997e-09)
(-7.3002e-09 2.74603e-09 -5.69929e-09)
(1.994e-09 3.80502e-09 -1.87407e-09)
(-2.10135e-05 -5.87212e-05 -2.10135e-05)
(-6.96053e-06 -7.5258e-06 -9.41228e-06)
(-9.52203e-06 -9.07453e-06 -3.28734e-06)
(-4.66103e-06 -2.48672e-06 -9.34176e-07)
(-2.19844e-06 -1.42703e-06 -4.56648e-07)
(-1.13181e-06 -6.89874e-07 -2.17228e-07)
(-4.10074e-07 -3.81238e-07 -1.01752e-07)
(-1.53966e-08 -2.237e-07 -4.85158e-08)
(2.146e-07 -1.40684e-07 -2.02924e-08)
(3.30778e-07 -9.19548e-08 -4.11574e-09)
(3.66994e-07 -6.05866e-08 6.47124e-09)
(3.41756e-07 -3.87984e-08 1.403e-08)
(2.68956e-07 -2.33918e-08 1.95902e-08)
(1.6104e-07 -1.30643e-08 2.34196e-08)
(3.05808e-08 -7.31152e-09 2.54984e-08)
(-1.09493e-07 -5.89327e-09 2.583e-08)
(-2.46394e-07 -8.48783e-09 2.45048e-08)
(-3.68391e-07 -1.4574e-08 2.17396e-08)
(-4.65809e-07 -2.34037e-08 1.78809e-08)
(-5.31739e-07 -3.41272e-08 1.34017e-08)
(-5.62451e-07 -4.57854e-08 8.78137e-09)
(-5.57603e-07 -5.74132e-08 4.46128e-09)
(-5.19977e-07 -6.80848e-08 8.86642e-10)
(-4.5505e-07 -7.69358e-08 -1.58581e-09)
(-3.70534e-07 -8.30545e-08 -2.71978e-09)
(-2.75866e-07 -8.52217e-08 -2.41077e-09)
(-1.81587e-07 -8.16981e-08 -7.99624e-10)
(-9.84667e-08 -7.00785e-08 1.55753e-09)
(-3.63137e-08 -4.73742e-08 3.35781e-09)
(-2.60795e-09 -1.45983e-08 2.78691e-09)
(-5.82654e-06 -5.37368e-06 -5.82655e-06)
(-9.28699e-06 -9.98699e-06 -3.38427e-06)
(-5.0934e-06 -5.32783e-06 -1.50357e-06)
(-3.34698e-06 -2.76317e-06 -7.17642e-07)
(-1.77318e-06 -1.69276e-06 -3.4389e-07)
(-8.81756e-07 -1.03809e-06 -1.61914e-07)
(-2.63366e-07 -7.06616e-07 -6.95117e-08)
(1.15598e-07 -5.17599e-07 -2.24404e-08)
(3.47263e-07 -4.05309e-07 4.63261e-09)
(4.65802e-07 -3.32437e-07 2.17243e-08)
(4.96214e-07 -2.81531e-07 3.39047e-08)
(4.54453e-07 -2.44166e-07 4.31591e-08)
(3.54525e-07 -2.16687e-07 5.019e-08)
(2.10632e-07 -1.97741e-07 5.50897e-08)
(3.82013e-08 -1.86933e-07 5.77557e-08)
(-1.46357e-07 -1.83965e-07 5.81346e-08)
(-3.26624e-07 -1.8827e-07 5.63141e-08)
(-4.87446e-07 -1.98833e-07 5.25621e-08)
(-6.16271e-07 -2.14174e-07 4.73196e-08)
(-7.04176e-07 -2.32464e-07 4.11475e-08)
(-7.46437e-07 -2.51729e-07 3.46448e-08)
(-7.42667e-07 -2.69995e-07 2.83848e-08)
(-6.96475e-07 -2.85286e-07 2.28734e-08)
(-6.14921e-07 -2.95603e-07 1.85013e-08)
(-5.07753e-07 -2.98713e-07 1.54994e-08)
(-3.86636e-07 -2.91829e-07 1.39047e-08)
(-2.64238e-07 -2.71186e-07 1.34696e-08)
(-1.52884e-07 -2.31735e-07 1.34534e-08)
(-6.41489e-08 -1.66693e-07 1.23475e-08)
(-6.84426e-09 -6.98375e-08 7.07336e-09)
(-1.06824e-06 -7.65633e-06 -1.06824e-06)
(-2.59388e-06 -5.36554e-06 -9.84213e-07)
(-2.42927e-06 -4.05985e-06 -7.24963e-07)
(-1.82491e-06 -2.64106e-06 -3.95782e-07)
(-1.0365e-06 -1.86388e-06 -2.02789e-07)
(-4.62567e-07 -1.35877e-06 -9.47745e-08)
(-1.53008e-08 -1.06585e-06 -3.29651e-08)
(2.91144e-07 -8.81334e-07 2.65054e-09)
(4.87733e-07 -7.60336e-07 2.55139e-08)
(5.86958e-07 -6.74794e-07 4.16355e-08)
(6.01275e-07 -6.10713e-07 5.41349e-08)
(5.41157e-07 -5.61228e-07 6.41766e-08)
(4.18497e-07 -5.2359e-07 7.20403e-08)
(2.47471e-07 -4.97068e-07 7.75994e-08)
(4.47451e-08 -4.81649e-07 8.06267e-08)
(-1.71292e-07 -4.77183e-07 8.10073e-08)
(-3.81965e-07 -4.82937e-07 7.88171e-08)
(-5.69911e-07 -4.97402e-07 7.43519e-08)
(-7.20727e-07 -5.18298e-07 6.81235e-08)
(-8.24229e-07 -5.4281e-07 6.0765e-08)
(-8.75091e-07 -5.67825e-07 5.29614e-08)
(-8.72981e-07 -5.90171e-07 4.53571e-08)
(-8.221e-07 -6.06666e-07 3.84993e-08)
(-7.30472e-07 -6.14041e-07 3.27939e-08)
(-6.08985e-07 -6.08623e-07 2.84596e-08)
(-4.70407e-07 -5.85901e-07 2.54982e-08)
(-3.28387e-07 -5.39882e-07 2.36169e-08)
(-1.95936e-07 -4.62285e-07 2.19709e-08)
(-8.61613e-08 -3.40562e-07 1.89162e-08)
(-1.00434e-08 -1.53975e-07 1.03332e-08)
(-3.70592e-07 -2.32977e-06 -3.70593e-07)
(-1.3696e-06 -3.1255e-06 -4.63192e-07)
(-1.25522e-06 -2.91385e-06 -3.42642e-07)
(-9.50221e-07 -2.35093e-06 -2.01725e-07)
(-5.01497e-07 -1.94628e-06 -1.0401e-07)
(-1.13277e-07 -1.63832e-06 -4.24708e-08)
(2.15157e-07 -1.43023e-06 -3.08996e-09)
(4.57633e-07 -1.28206e-06 2.26297e-08)
(6.1696e-07 -1.17304e-06 4.132e-08)
(6.92851e-07 -1.08809e-06 5.60902e-08)
(6.88996e-07 -1.01936e-06 6.85142e-08)
(6.11319e-07 -9.63304e-07 7.90261e-08)
(4.69498e-07 -9.19093e-07 8.74978e-08)
(2.7714e-07 -8.87199e-07 9.35753e-08)
(5.14505e-08 -8.68349e-07 9.68839e-08)
(-1.87969e-07 -8.62706e-07 9.72404e-08)
(-4.20947e-07 -8.6948e-07 9.47045e-08)
(-6.28603e-07 -8.86766e-07 8.95956e-08)
(-7.95276e-07 -9.11542e-07 8.25012e-08)
(-9.09963e-07 -9.40032e-07 7.41274e-08)
(-9.67026e-07 -9.68027e-07 6.52459e-08)
(-9.6628e-07 -9.91214e-07 5.65645e-08)
(-9.12385e-07 -1.00522e-06 4.86695e-08)
(-8.14012e-07 -1.00552e-06 4.19785e-08)
(-6.8273e-07 -9.87059e-07 3.67068e-08)
(-5.31888e-07 -9.43554e-07 3.28346e-08)
(-3.75641e-07 -8.66571e-07 3.00452e-08)
(-2.27474e-07 -7.43881e-07 2.74256e-08)
(-1.0192e-07 -5.55163e-07 2.32191e-08)
(-1.21908e-08 -2.59618e-07 1.25446e-08)
(-1.73119e-07 -1.64932e-06 -1.7312e-07)
(-5.55139e-07 -2.34337e-06 -2.04197e-07)
(-5.37943e-07 -2.45552e-06 -1.5441e-07)
(-3.7896e-07 -2.28778e-06 -9.25773e-08)
(-1.07831e-07 -2.11428e-06 -4.2872e-08)
(1.63156e-07 -1.95226e-06 -7.79874e-09)
(4.08891e-07 -1.82319e-06 1.76301e-08)
(6.00326e-07 -1.7176e-06 3.67435e-08)
(7.26822e-07 -1.62957e-06 5.2546e-08)
(7.80689e-07 -1.5536e-06 6.64098e-08)
(7.599e-07 -1.48719e-06 7.8904e-08)
(6.66971e-07 -1.43003e-06 8.99306e-08)
(5.09695e-07 -1.38332e-06 9.9027e-08)
(3.00974e-07 -1.34882e-06 1.0563e-07)
(5.82226e-08 -1.3281e-06 1.09217e-07)
(-1.98214e-07 -1.32169e-06 1.0954e-07)
(-4.47177e-07 -1.32884e-06 1.06643e-07)
(-6.68737e-07 -1.34736e-06 1.00869e-07)
(-8.46373e-07 -1.37363e-06 9.28927e-08)
(-9.68582e-07 -1.40309e-06 8.35088e-08)
(-1.02964e-06 -1.43063e-06 7.35904e-08)
(-1.02956e-06 -1.45092e-06 6.39123e-08)
(-9.73424e-07 -1.45859e-06 5.51025e-08)
(-8.704e-07 -1.44799e-06 4.75991e-08)
(-7.32459e-07 -1.41274e-06 4.16162e-08)
(-5.7327e-07 -1.34477e-06 3.71189e-08)
(-4.07274e-07 -1.233e-06 3.37715e-08)
(-2.48314e-07 -1.06051e-06 3.0611e-08)
(-1.12062e-07 -7.97582e-07 2.57853e-08)
(-1.34928e-08 -3.79695e-07 1.39079e-08)
(-6.3193e-08 -1.12261e-06 -6.31913e-08)
(-2.14627e-07 -1.93545e-06 -8.05432e-08)
(-1.78546e-07 -2.27071e-06 -6.01088e-08)
(-5.40559e-08 -2.34867e-06 -3.223e-08)
(1.43849e-07 -2.34253e-06 -6.53991e-09)
(3.53797e-07 -2.29614e-06 1.40657e-08)
(5.49927e-07 -2.23909e-06 3.13082e-08)
(7.06425e-07 -2.17818e-06 4.63327e-08)
(8.08278e-07 -2.117e-06 6.03378e-08)
(8.44645e-07 -2.05676e-06 7.37351e-08)
(8.10428e-07 -1.99915e-06 8.64709e-08)
(7.05994e-07 -1.94653e-06 9.80795e-08)
(5.37764e-07 -1.90185e-06 1.07827e-07)
(3.18032e-07 -1.86799e-06 1.14964e-07)
(6.42037e-08 -1.84726e-06 1.18826e-07)
(-2.02964e-07 -1.84052e-06 1.19113e-07)
(-4.61783e-07 -1.8471e-06 1.15854e-07)
(-6.91675e-07 -1.86471e-06 1.09409e-07)
(-8.75612e-07 -1.88936e-06 1.00545e-07)
(-1.00187e-06 -1.91597e-06 9.01598e-08)
(-1.06476e-06 -1.93881e-06 7.92311e-08)
(-1.06459e-06 -1.95186e-06 6.86071e-08)
(-1.00685e-06 -1.94898e-06 5.89702e-08)
(-9.01022e-07 -1.92363e-06 5.07699e-08)
(-7.59337e-07 -1.86818e-06 4.4222e-08)
(-5.95566e-07 -1.77282e-06 3.92765e-08)
(-4.24239e-07 -1.62354e-06 3.55812e-08)
(-2.59374e-07 -1.39823e-06 3.21403e-08)
(-1.17317e-07 -1.0566e-06 2.70307e-08)
(-1.41258e-08 -5.08243e-07 1.45962e-08)
(-2.16136e-08 -9.77454e-07 -2.16105e-08)
(-5.07579e-08 -1.85337e-06 -2.58333e-08)
(1.23311e-08 -2.30852e-06 -1.52405e-08)
(1.31944e-07 -2.5275e-06 -1.13637e-09)
(2.97594e-07 -2.63261e-06 1.3287e-08)
(4.74149e-07 -2.67151e-06 2.65634e-08)
(6.39599e-07 -2.67482e-06 3.938e-08)
(7.72136e-07 -2.65643e-06 5.21042e-08)
(8.56065e-07 -2.62482e-06 6.51171e-08)
(8.79562e-07 -2.58522e-06 7.83561e-08)
(8.36073e-07 -2.54199e-06 9.1414e-08)
(7.2468e-07 -2.49927e-06 1.03576e-07)
(5.50847e-07 -2.46118e-06 1.13907e-07)
(3.26289e-07 -2.43138e-06 1.21519e-07)
(6.82157e-08 -2.41258e-06 1.25614e-07)
(-2.02606e-07 -2.40589e-06 1.25865e-07)
(-4.64476e-07 -2.41075e-06 1.22286e-07)
(-6.96637e-07 -2.42491e-06 1.15244e-07)
(-8.81895e-07 -2.44431e-06 1.05597e-07)
(-1.00857e-06 -2.46372e-06 9.43278e-08)
(-1.07117e-06 -2.47716e-06 8.2515e-08)
(-1.07034e-06 -2.47829e-06 7.10839e-08)
(-1.01185e-06 -2.4605e-06 6.07667e-08)
(-9.05374e-07 -2.41657e-06 5.20187e-08)
(-7.63185e-07 -2.33783e-06 4.50536e-08)
(-5.98937e-07 -2.21269e-06 3.98033e-08)
(-4.26983e-07 -2.02412e-06 3.59086e-08)
(-2.61239e-07 -1.74445e-06 3.23566e-08)
(-1.18172e-07 -1.32219e-06 2.72001e-08)
(-1.41982e-08 -6.4011e-07 1.47161e-08)
(-2.9895e-09 -9.60348e-07 -2.98516e-09)
(2.47083e-08 -1.91273e-06 -1.98419e-10)
(1.07496e-07 -2.4567e-06 6.46414e-09)
(2.28611e-07 -2.77152e-06 1.44679e-08)
(3.78455e-07 -2.95758e-06 2.34276e-08)
(5.34904e-07 -3.06293e-06 3.29035e-08)
(6.79877e-07 -3.11801e-06 4.32616e-08)
(7.9517e-07 -3.13989e-06 5.46104e-08)
(8.65956e-07 -3.13955e-06 6.6975e-08)
(8.80581e-07 -3.12435e-06 8.00616e-08)
(8.32035e-07 -3.10016e-06 9.32751e-08)
(7.18727e-07 -3.07208e-06 1.05756e-07)
(5.45449e-07 -3.04478e-06 1.16431e-07)
(3.23301e-07 -3.02216e-06 1.24322e-07)
(6.89969e-08 -3.00711e-06 1.28529e-07)
(-1.97214e-07 -3.00077e-06 1.28744e-07)
(-4.54243e-07 -3.0027e-06 1.24975e-07)
(-6.81727e-07 -3.01087e-06 1.17546e-07)
(-8.62771e-07 -3.02144e-06 1.07386e-07)
(-9.86011e-07 -3.02938e-06 9.55395e-08)
(-1.04624e-06 -3.02883e-06 8.31668e-08)
(-1.04441e-06 -3.01354e-06 7.12393e-08)
(-9.86448e-07 -2.97679e-06 6.05142e-08)
(-8.82002e-07 -2.91089e-06 5.14583e-08)
(-7.43108e-07 -2.80633e-06 4.42753e-08)
(-5.83e-07 -2.6498e-06 3.889e-08)
(-4.15533e-07 -2.4212e-06 3.49337e-08)
(-2.54155e-07 -2.0872e-06 3.14065e-08)
(-1.14877e-07 -1.58496e-06 2.64031e-08)
(-1.3764e-08 -7.7055e-07 1.43212e-08)
(4.65859e-09 -1.00753e-06 4.66355e-09)
(5.72997e-08 -2.0447e-06 1.07563e-08)
(1.48733e-07 -2.6618e-06 1.58129e-08)
(2.68032e-07 -3.04728e-06 2.11221e-08)
(4.05599e-07 -3.29497e-06 2.74041e-08)
(5.45959e-07 -3.45357e-06 3.48272e-08)
(6.74232e-07 -3.55343e-06 4.36851e-08)
(7.75169e-07 -3.613e-06 5.40138e-08)
(8.35426e-07 -3.64444e-06 6.57146e-08)
(8.44153e-07 -3.65605e-06 7.83952e-08)
(7.94467e-07 -3.65424e-06 9.13737e-08)
(6.84508e-07 -3.64433e-06 1.03731e-07)
(5.18554e-07 -3.63097e-06 1.1432e-07)
(3.06929e-07 -3.61798e-06 1.22146e-07)
(6.54519e-08 -3.60806e-06 1.26273e-07)
(-1.86756e-07 -3.60229e-06 1.26454e-07)
(-4.30034e-07 -3.60033e-06 1.22687e-07)
(-6.4509e-07 -3.60044e-06 1.1522e-07)
(-8.15808e-07 -3.59923e-06 1.0501e-07)
(-9.3146e-07 -3.5922e-06 9.30966e-08)
(-9.87267e-07 -3.57397e-06 8.06667e-08)
(-9.84375e-07 -3.5387e-06 6.87171e-08)
(-9.28661e-07 -3.47986e-06 5.80094e-08)
(-8.29449e-07 -3.38962e-06 4.90028e-08)
(-6.98165e-07 -3.25769e-06 4.18843e-08)
(-5.47291e-07 -3.06922e-06 3.65722e-08)
(-3.89785e-07 -2.80115e-06 3.27143e-08)
(-2.38193e-07 -2.41459e-06 2.93548e-08)
(-1.07523e-07 -1.83575e-06 2.46852e-08)
(-1.28432e-08 -8.95007e-07 1.34324e-08)
(7.34828e-09 -1.07821e-06 7.35088e-09)
(6.69862e-08 -2.20201e-06 1.44844e-08)
(1.56919e-07 -2.88293e-06 1.86454e-08)
(2.68088e-07 -3.32446e-06 2.25717e-08)
(3.91234e-07 -3.6213e-06 2.73578e-08)
(5.14681e-07 -3.82374e-06 3.3444e-08)
(6.26178e-07 -3.96256e-06 4.11024e-08)
(7.13062e-07 -4.05686e-06 5.03663e-08)
(7.63753e-07 -4.11924e-06 6.1086e-08)
(7.68586e-07 -4.15823e-06 7.28542e-08)
(7.21239e-07 -4.18015e-06 8.49766e-08)
(6.19876e-07 -4.19007e-06 9.65458e-08)
(4.68293e-07 -4.19225e-06 1.06441e-07)
(2.75819e-07 -4.19009e-06 1.13727e-07)
(5.68614e-08 -4.18597e-06 1.17503e-07)
(-1.71326e-07 -4.18087e-06 1.17648e-07)
(-3.91298e-07 -4.17455e-06 1.14157e-07)
(-5.85613e-07 -4.16559e-06 1.0714e-07)
(-7.3954e-07 -4.15109e-06 9.75046e-08)
(-8.43342e-07 -4.12721e-06 8.62152e-08)
(-8.92723e-07 -4.08934e-06 7.44399e-08)
(-8.8891e-07 -4.03222e-06 6.31241e-08)
(-8.37469e-07 -3.94981e-06 5.29981e-08)
(-7.47033e-07 -3.83434e-06 4.44999e-08)
(-6.28031e-07 -3.67499e-06 3.78067e-08)
(-4.91743e-07 -3.45553e-06 3.28377e-08)
(-3.49819e-07 -3.15016e-06 2.92605e-08)
(-2.13506e-07 -2.71482e-06 2.62159e-08)
(-9.62205e-08 -2.06553e-06 2.20703e-08)
(-1.14475e-08 -1.00903e-06 1.20618e-08)
(7.51184e-09 -1.15225e-06 7.51348e-09)
(6.34667e-08 -2.35668e-06 1.42945e-08)
(1.43486e-07 -3.09245e-06 1.77095e-08)
(2.39786e-07 -3.57916e-06 2.07319e-08)
(3.44111e-07 -3.91552e-06 2.4468e-08)
(4.47472e-07 -4.154e-06 2.94393e-08)
(5.40058e-07 -4.32603e-06 3.5885e-08)
(6.11672e-07 -4.45117e-06 4.38385e-08)
(6.52689e-07 -4.54203e-06 5.31457e-08)
(6.54965e-07 -4.60695e-06 6.34285e-08)
(6.1306e-07 -4.6518e-06 7.40445e-08)
(5.25325e-07 -4.6811e-06 8.41649e-08)
(3.95003e-07 -4.69855e-06 9.27722e-08)
(2.30126e-07 -4.70701e-06 9.90723e-08)
(4.31171e-08 -4.70857e-06 1.02265e-07)
(-1.51333e-07 -4.7042e-06 1.0237e-07)
(-3.38696e-07 -4.69372e-06 9.93762e-08)
(-5.04113e-07 -4.67584e-06 9.32499e-08)
(-6.34835e-07 -4.64817e-06 8.48032e-08)
(-7.22482e-07 -4.6075e-06 7.48453e-08)
(-7.63431e-07 -4.55004e-06 6.4434e-08)
(-7.58886e-07 -4.47137e-06 5.44206e-08)
(-7.13806e-07 -4.36599e-06 4.54675e-08)
(-6.3571e-07 -4.22634e-06 3.79667e-08)
(-5.33629e-07 -4.04127e-06 3.20736e-08)
(-4.17206e-07 -3.79346e-06 2.77221e-08)
(-2.96335e-07 -3.45467e-06 2.46253e-08)
(-1.80547e-07 -2.97634e-06 2.20516e-08)
(-8.11789e-08 -2.26556e-06 1.86072e-08)
(-9.59997e-09 -1.1083e-06 1.02326e-08)
(6.30961e-09 -1.21748e-06 6.30459e-09)
(5.17045e-08 -2.48974e-06 1.18336e-08)
(1.15119e-07 -3.26985e-06 1.4438e-08)
(1.90421e-07 -3.79181e-06 1.66843e-08)
(2.71061e-07 -4.15897e-06 1.9491e-08)
(3.50436e-07 -4.42598e-06 2.33203e-08)
(4.21193e-07 -4.62498e-06 2.83693e-08)
(4.75641e-07 -4.77582e-06 3.46601e-08)
(5.06361e-07 -4.89092e-06 4.20542e-08)
(5.06995e-07 -4.97824e-06 5.02312e-08)
(4.73203e-07 -5.04305e-06 5.86562e-08)
(4.03629e-07 -5.08917e-06 6.66566e-08)
(3.00847e-07 -5.11968e-06 7.33873e-08)
(1.71212e-07 -5.13713e-06 7.82527e-08)
(2.45955e-08 -5.14344e-06 8.06422e-08)
(-1.27482e-07 -5.13976e-06 8.06973e-08)
(-2.73882e-07 -5.12595e-06 7.84139e-08)
(-4.02941e-07 -5.10064e-06 7.36278e-08)
(-5.04534e-07 -5.06167e-06 6.69639e-08)
(-5.72056e-07 -5.00638e-06 5.90387e-08)
(-6.02702e-07 -4.9317e-06 5.07169e-08)
(-5.9758e-07 -4.83399e-06 4.26919e-08)
(-5.6075e-07 -4.70836e-06 3.55181e-08)
(-4.98276e-07 -4.54762e-06 2.95082e-08)
(-4.17356e-07 -4.34044e-06 2.48006e-08)
(-3.25583e-07 -4.0686e-06 2.13438e-08)
(-2.30715e-07 -3.70206e-06 1.89179e-08)
(-1.40184e-07 -3.18851e-06 1.69552e-08)
(-6.27951e-08 -2.42775e-06 1.43763e-08)
(-7.34991e-09 -1.18882e-06 7.99604e-09)
(4.30047e-09 -1.26634e-06 4.29198e-09)
(3.45696e-08 -2.58822e-06 7.99152e-09)
(7.63457e-08 -3.40012e-06 9.68252e-09)
(1.25691e-07 -3.94703e-06 1.11496e-08)
(1.7833e-07 -4.33619e-06 1.30265e-08)
(2.30114e-07 -4.62397e-06 1.56401e-08)
(2.76274e-07 -4.84309e-06 1.91156e-08)
(3.1175e-07 -5.01354e-06 2.34787e-08)
(3.31565e-07 -5.14746e-06 2.86374e-08)
(3.31334e-07 -5.25229e-06 3.43657e-08)
(3.08015e-07 -5.33271e-06 4.02794e-08)
(2.60519e-07 -5.39196e-06 4.58998e-08)
(1.90477e-07 -5.43255e-06 5.06172e-08)
(1.02163e-07 -5.45682e-06 5.40259e-08)
(2.37035e-09 -5.4667e-06 5.56756e-08)
(-1.00905e-07 -5.4636e-06 5.56759e-08)
(-1.99979e-07 -5.44741e-06 5.4028e-08)
(-2.8676e-07 -5.41657e-06 5.06015e-08)
(-3.54303e-07 -5.369e-06 4.58684e-08)
(-3.98233e-07 -5.30236e-06 4.02538e-08)
(-4.16792e-07 -5.21419e-06 3.43906e-08)
(-4.10992e-07 -5.10148e-06 2.8755e-08)
(-3.83821e-07 -4.95996e-06 2.37382e-08)
(-3.39582e-07 -4.78277e-06 1.95623e-08)
(-2.83254e-07 -4.55862e-06 1.63149e-08)
(-2.20051e-07 -4.26869e-06 1.39589e-08)
(-1.55226e-07 -3.88155e-06 1.23542e-08)
(-9.37976e-08 -3.34225e-06 1.11214e-08)
(-4.16901e-08 -2.54524e-06 9.5312e-09)
(-4.77016e-09 -1.2472e-06 5.42341e-09)
(1.81356e-09 -1.29392e-06 1.79657e-09)
(1.40157e-08 -2.6432e-06 3.29558e-09)
(3.06677e-08 -3.47257e-06 3.97316e-09)
(5.04666e-08 -4.03348e-06 4.62366e-09)
(7.18692e-08 -4.4355e-06 5.52255e-09)
(9.32711e-08 -4.73595e-06 6.81458e-09)
(1.12653e-07 -4.96784e-06 8.56419e-09)
(1.27731e-07 -5.15106e-06 1.0782e-08)
(1.36127e-07 -5.29751e-06 1.34181e-08)
(1.35599e-07 -5.4142e-06 1.63688e-08)
(1.24452e-07 -5.5053e-06 1.94419e-08)
(1.01845e-07 -5.57358e-06 2.24027e-08)
(6.83063e-08 -5.62114e-06 2.49294e-08)
(2.57206e-08 -5.65019e-06 2.67912e-08)
(-2.26122e-08 -5.66257e-06 2.7693e-08)
(-7.24637e-08 -5.6599e-06 2.76304e-08)
(-1.19636e-07 -5.64207e-06 2.66206e-08)
(-1.59878e-07 -5.60742e-06 2.46469e-08)
(-1.89829e-07 -5.55402e-06 2.20432e-08)
(-2.07643e-07 -5.47971e-06 1.90374e-08)
(-2.12837e-07 -5.38248e-06 1.59699e-08)
(-2.06324e-07 -5.25982e-06 1.30809e-08)
(-1.89841e-07 -5.1079e-06 1.05563e-08)
(-1.65717e-07 -4.92015e-06 8.49077e-09)
(-1.36461e-07 -4.68532e-06 6.92426e-09)
(-1.04619e-07 -4.38429e-06 5.83717e-09)
(-7.2714e-08 -3.98484e-06 5.16237e-09)
(-4.31378e-08 -3.43056e-06 4.74147e-09)
(-1.8653e-08 -2.61273e-06 4.24054e-09)
(-1.95259e-09 -1.2808e-06 2.60878e-09)
(-9.22631e-10 -1.2973e-06 -9.48451e-10)
(-8.41087e-09 -2.6492e-06 -1.8478e-09)
(-1.88578e-08 -3.48048e-06 -2.23562e-09)
(-3.06401e-08 -4.04392e-06 -2.42345e-09)
(-4.23065e-08 -4.44938e-06 -2.51342e-09)
(-5.2838e-08 -4.75418e-06 -2.56243e-09)
(-6.1404e-08 -4.99121e-06 -2.58474e-09)
(-6.74557e-08 -5.18014e-06 -2.57463e-09)
(-7.07184e-08 -5.3326e-06 -2.5059e-09)
(-7.11952e-08 -5.45538e-06 -2.33809e-09)
(-6.91836e-08 -5.55232e-06 -2.04525e-09)
(-6.52762e-08 -5.62586e-06 -1.62444e-09)
(-6.0227e-08 -5.6778e-06 -1.12322e-09)
(-5.47242e-08 -5.71007e-06 -6.35371e-10)
(-4.91275e-08 -5.72424e-06 -3.51172e-10)
(-4.30989e-08 -5.72181e-06 -4.64585e-10)
(-3.59777e-08 -5.70274e-06 -9.42501e-10)
(-2.7469e-08 -5.66553e-06 -1.62627e-09)
(-1.79854e-08 -5.60856e-06 -2.26208e-09)
(-8.38785e-09 -5.53001e-06 -2.76138e-09)
(4.40939e-10 -5.4282e-06 -3.06358e-09)
(7.70117e-09 -5.30089e-06 -3.18439e-09)
(1.29336e-08 -5.14448e-06 -3.15916e-09)
(1.59626e-08 -4.95259e-06 -3.03614e-09)
(1.68647e-08 -4.71399e-06 -2.85109e-09)
(1.58852e-08 -4.40955e-06 -2.61569e-09)
(1.33851e-08 -4.00687e-06 -2.31279e-09)
(9.70383e-09 -3.44916e-06 -1.88962e-09)
(5.36569e-09 -2.62696e-06 -1.2665e-09)
(9.81831e-10 -1.28801e-06 -3.27004e-10)
(-3.7374e-09 -1.27517e-06 -3.77339e-09)
(-3.13815e-08 -2.60374e-06 -7.13052e-09)
(-6.94504e-08 -3.42086e-06 -8.60087e-09)
(-1.13292e-07 -3.97514e-06 -9.62575e-09)
(-1.58396e-07 -4.37456e-06 -1.07089e-08)
(-2.01121e-07 -4.6754e-06 -1.2119e-08)
(-2.37831e-07 -4.90987e-06 -1.39476e-08)
(-2.65183e-07 -5.0973e-06 -1.62053e-08)
(-2.8024e-07 -5.24912e-06 -1.88135e-08)
(-2.80784e-07 -5.37199e-06 -2.16167e-08)
(-2.65693e-07 -5.46973e-06 -2.43705e-08)
(-2.35228e-07 -5.54465e-06 -2.68072e-08)
(-1.91261e-07 -5.59833e-06 -2.86655e-08)
(-1.36971e-07 -5.63222e-06 -2.98588e-08)
(-7.63993e-08 -5.64744e-06 -3.03758e-08)
(-1.33311e-08 -5.64514e-06 -3.05334e-08)
(4.90313e-08 -5.6253e-06 -3.02806e-08)
(1.06817e-07 -5.58682e-06 -2.93393e-08)
(1.55848e-07 -5.52867e-06 -2.76484e-08)
(1.92663e-07 -5.44949e-06 -2.53158e-08)
(2.15148e-07 -5.3478e-06 -2.2584e-08)
(2.22753e-07 -5.22146e-06 -1.97433e-08)
(2.16378e-07 -5.06685e-06 -1.70425e-08)
(1.98016e-07 -4.87757e-06 -1.46568e-08)
(1.70355e-07 -4.64249e-06 -1.26755e-08)
(1.3644e-07 -4.3426e-06 -1.10871e-08)
(9.94789e-08 -3.94599e-06 -9.79419e-09)
(6.25284e-08 -3.39666e-06 -8.52201e-09)
(2.93749e-08 -2.58688e-06 -6.77497e-09)
(3.91695e-09 -1.26829e-06 -3.26729e-09)
(-6.47408e-09 -1.22759e-06 -6.51656e-09)
(-5.36794e-08 -2.50707e-06 -1.22586e-08)
(-1.18492e-07 -3.29415e-06 -1.47686e-08)
(-1.93289e-07 -3.8279e-06 -1.65854e-08)
(-2.70618e-07 -4.21209e-06 -1.86023e-08)
(-3.44316e-07 -4.50086e-06 -2.12935e-08)
(-4.08106e-07 -4.72521e-06 -2.4845e-08)
(-4.56013e-07 -4.90383e-06 -2.92811e-08)
(-4.82593e-07 -5.04796e-06 -3.44847e-08)
(-4.83512e-07 -5.16432e-06 -4.0196e-08)
(-4.56193e-07 -5.2569e-06 -4.59883e-08)
(-4.00453e-07 -5.32807e-06 -5.13684e-08)
(-3.19082e-07 -5.37949e-06 -5.57659e-08)
(-2.17448e-07 -5.41231e-06 -5.88494e-08)
(-1.03137e-07 -5.42727e-06 -6.03299e-08)
(1.58426e-08 -5.42503e-06 -6.05008e-08)
(1.32119e-07 -5.40556e-06 -5.93183e-08)
(2.37551e-07 -5.36834e-06 -5.65117e-08)
(3.24368e-07 -5.31283e-06 -5.23081e-08)
(3.86837e-07 -5.23789e-06 -4.70496e-08)
(4.21872e-07 -5.14204e-06 -4.12848e-08)
(4.29317e-07 -5.023e-06 -3.55445e-08)
(4.11461e-07 -4.87694e-06 -3.02551e-08)
(3.72382e-07 -4.69729e-06 -2.57006e-08)
(3.17261e-07 -4.47299e-06 -2.20073e-08)
(2.51776e-07 -4.18555e-06 -1.91441e-08)
(1.81817e-07 -3.80411e-06 -1.69205e-08)
(1.13047e-07 -3.27472e-06 -1.48441e-08)
(5.23339e-08 -2.49373e-06 -1.20365e-08)
(6.72161e-09 -1.22223e-06 -6.081e-09)
(-8.99414e-09 -1.15599e-06 -9.04793e-09)
(-7.42054e-08 -2.36209e-06 -1.69896e-08)
(-1.63596e-07 -3.10423e-06 -2.04514e-08)
(-2.66795e-07 -3.60687e-06 -2.2982e-08)
(-3.73622e-07 -3.96736e-06 -2.58289e-08)
(-4.75654e-07 -4.23659e-06 -2.96665e-08)
(-5.6421e-07 -4.44384e-06 -3.47504e-08)
(-6.30949e-07 -4.6069e-06 -4.11467e-08)
(-6.68193e-07 -4.73667e-06 -4.8723e-08)
(-6.6967e-07 -4.83993e-06 -5.71385e-08)
(-6.31476e-07 -4.92101e-06 -6.58419e-08)
(-5.5293e-07 -4.98274e-06 -7.41209e-08)
(-4.37434e-07 -5.02704e-06 -8.1122e-08)
(-2.92218e-07 -5.05522e-06 -8.62212e-08)
(-1.27968e-07 -5.068e-06 -8.8799e-08)
(4.32036e-08 -5.06574e-06 -8.89684e-08)
(2.095e-07 -5.04849e-06 -8.66972e-08)
(3.58647e-07 -5.01608e-06 -8.18762e-08)
(4.79747e-07 -4.96795e-06 -7.50735e-08)
(5.65196e-07 -4.90285e-06 -6.69188e-08)
(6.11219e-07 -4.81902e-06 -5.82585e-08)
(6.18136e-07 -4.71367e-06 -4.98205e-08)
(5.89543e-07 -4.5826e-06 -4.21753e-08)
(5.31427e-07 -4.41908e-06 -3.56688e-08)
(4.51197e-07 -4.2123e-06 -3.04507e-08)
(3.56906e-07 -3.94462e-06 -2.64546e-08)
(2.56877e-07 -3.5868e-06 -2.34036e-08)
(1.59103e-07 -3.08807e-06 -2.0614e-08)
(7.32697e-08 -2.35109e-06 -1.68416e-08)
(9.27996e-09 -1.15159e-06 -8.65256e-09)
(-1.11922e-08 -1.06286e-06 -1.12518e-08)
(-9.20319e-08 -2.17391e-06 -2.11023e-08)
(-2.02689e-07 -2.85793e-06 -2.53772e-08)
(-3.30419e-07 -3.32021e-06 -2.8502e-08)
(-4.62675e-07 -3.64979e-06 -3.20171e-08)
(-5.89065e-07 -3.89326e-06 -3.67568e-08)
(-6.98848e-07 -4.07766e-06 -4.30458e-08)
(-7.81651e-07 -4.21958e-06 -5.09813e-08)
(-8.2791e-07 -4.32944e-06 -6.04159e-08)
(-8.29769e-07 -4.41417e-06 -7.09585e-08)
(-7.82189e-07 -4.47844e-06 -8.19454e-08)
(-6.84053e-07 -4.52565e-06 -9.25086e-08)
(-5.39229e-07 -4.5584e-06 -1.01584e-07)
(-3.56501e-07 -4.57856e-06 -1.083e-07)
(-1.49144e-07 -4.58731e-06 -1.11787e-07)
(6.71301e-08 -4.58507e-06 -1.11944e-07)
(2.76525e-07 -4.57196e-06 -1.08746e-07)
(4.63188e-07 -4.54772e-06 -1.02287e-07)
(6.13593e-07 -4.51135e-06 -9.34035e-08)
(7.18588e-07 -4.46108e-06 -8.29611e-08)
(7.73929e-07 -4.39446e-06 -7.2026e-08)
(7.8036e-07 -4.30809e-06 -6.14728e-08)
(7.42585e-07 -4.19735e-06 -5.19839e-08)
(6.68167e-07 -4.05537e-06 -4.39558e-08)
(5.66402e-07 -3.87173e-06 -3.75459e-08)
(4.47377e-07 -3.62989e-06 -3.2657e-08)
(3.21505e-07 -3.30288e-06 -2.89489e-08)
(1.98781e-07 -2.84411e-06 -2.55723e-08)
(9.13222e-08 -2.16456e-06 -2.09865e-08)
(1.14893e-08 -1.05913e-06 -1.08799e-08)
(-1.29696e-08 -9.51676e-07 -1.3037e-08)
(-1.0641e-07 -1.94955e-06 -2.44379e-08)
(-2.3416e-07 -2.56457e-06 -2.93597e-08)
(-3.81566e-07 -2.97903e-06 -3.29249e-08)
(-5.34163e-07 -3.2721e-06 -3.69081e-08)
(-6.79952e-07 -3.48531e-06 -4.22704e-08)
(-8.06523e-07 -3.64293e-06 -4.93887e-08)
(-9.01897e-07 -3.76012e-06 -5.83688e-08)
(-9.55041e-07 -3.8468e-06 -6.9045e-08)
(-9.56868e-07 -3.9098e-06 -8.09953e-08)
(-9.01529e-07 -3.95419e-06 -9.34876e-08)
(-7.87646e-07 -3.98409e-06 -1.05562e-07)
(-6.19473e-07 -4.00285e-06 -1.16016e-07)
(-4.07006e-07 -4.01314e-06 -1.23807e-07)
(-1.65509e-07 -4.01683e-06 -1.27913e-07)
(8.65043e-08 -4.0147e-06 -1.2805e-07)
(3.29977e-07 -4.00685e-06 -1.24202e-07)
(5.46267e-07 -3.9927e-06 -1.16641e-07)
(7.19859e-07 -3.97056e-06 -1.06359e-07)
(8.40425e-07 -3.93791e-06 -9.43989e-08)
(9.03323e-07 -3.89146e-06 -8.19649e-08)
(9.09559e-07 -3.82714e-06 -7.00164e-08)
(8.64656e-07 -3.73988e-06 -5.92977e-08)
(7.77403e-07 -3.62286e-06 -5.02468e-08)
(6.58551e-07 -3.46616e-06 -4.30238e-08)
(5.19813e-07 -3.25462e-06 -3.75233e-08)
(3.73281e-07 -2.96394e-06 -3.33609e-08)
(2.30583e-07 -2.55263e-06 -2.95541e-08)
(1.05806e-07 -1.94152e-06 -2.43285e-08)
(1.32632e-08 -9.48467e-07 -1.26769e-08)
(-1.42666e-08 -8.26621e-07 -1.43373e-08)
(-1.16808e-07 -1.69748e-06 -2.6871e-08)
(-2.56849e-07 -2.23531e-06 -3.2247e-08)
(-4.18394e-07 -2.59655e-06 -3.60912e-08)
(-5.85608e-07 -2.84933e-06 -4.03384e-08)
(-7.45298e-07 -3.02958e-06 -4.60288e-08)
(-8.83783e-07 -3.15855e-06 -5.35614e-08)
(-9.87897e-07 -3.24978e-06 -6.30463e-08)
(-1.04556e-06 -3.31244e-06 -7.42989e-08)
(-1.04688e-06 -3.35319e-06 -8.68731e-08)
(-9.85564e-07 -3.37742e-06 -1.0001e-07)
(-8.60153e-07 -3.38979e-06 -1.12703e-07)
(-6.75267e-07 -3.39441e-06 -1.23718e-07)
(-4.41797e-07 -3.39475e-06 -1.31939e-07)
(-1.76361e-07 -3.39334e-06 -1.36306e-07)
(1.00648e-07 -3.39136e-06 -1.3642e-07)
(3.67966e-07 -3.38894e-06 -1.32271e-07)
(6.05087e-07 -3.38506e-06 -1.24246e-07)
(7.95143e-07 -3.37736e-06 -1.13385e-07)
(9.26946e-07 -3.36253e-06 -1.00798e-07)
(9.95509e-07 -3.33651e-06 -8.77189e-08)
(1.00194e-06 -3.29469e-06 -7.51594e-08)
(9.52216e-07 -3.23166e-06 -6.38797e-08)
(8.55917e-07 -3.14073e-06 -5.434e-08)
(7.24854e-07 -3.01272e-06 -4.67211e-08)
(5.71925e-07 -2.83408e-06 -4.0911e-08)
(4.10509e-07 -2.58352e-06 -3.6497e-08)
(2.53446e-07 -2.22508e-06 -3.24238e-08)
(1.16229e-07 -1.69064e-06 -2.67575e-08)
(1.4543e-08 -8.23895e-07 -1.3987e-08)
(-1.50326e-08 -6.92337e-07 -1.51051e-08)
(-1.22827e-07 -1.42709e-06 -2.83098e-08)
(-2.69972e-07 -1.88247e-06 -3.39404e-08)
(-4.39806e-07 -2.18723e-06 -3.79013e-08)
(-6.15695e-07 -2.39782e-06 -4.22162e-08)
(-7.83673e-07 -2.54425e-06 -4.79681e-08)
(-9.29206e-07 -2.64461e-06 -5.55554e-08)
(-1.03833e-06 -2.71071e-06 -6.50766e-08)
(-1.09831e-06 -2.75082e-06 -7.63411e-08)
(-1.09888e-06 -2.77132e-06 -8.8884e-08)
(-1.03358e-06 -2.77765e-06 -1.01943e-07)
(-9.01059e-07 -2.77477e-06 -1.14527e-07)
(-7.06279e-07 -2.76731e-06 -1.25442e-07)
(-4.60688e-07 -2.75923e-06 -1.33572e-07)
(-1.81628e-07 -2.75355e-06 -1.37903e-07)
(1.09551e-07 -2.75179e-06 -1.37998e-07)
(3.90373e-07 -2.75405e-06 -1.33852e-07)
(6.39385e-07 -2.759e-06 -1.25885e-07)
(8.39033e-07 -2.76377e-06 -1.15102e-07)
(9.77591e-07 -2.76451e-06 -1.02616e-07)
(1.04976e-06 -2.75666e-06 -8.96128e-08)
(1.05657e-06 -2.73528e-06 -7.709e-08)
(1.00416e-06 -2.69492e-06 -6.58139e-08)
(9.02502e-07 -2.62918e-06 -5.62506e-08)
(7.64072e-07 -2.52976e-06 -4.85921e-08)
(6.02558e-07 -2.38482e-06 -4.27354e-08)
(4.32211e-07 -2.17623e-06 -3.82651e-08)
(2.66673e-07 -1.87392e-06 -3.40925e-08)
(1.22237e-07 -1.42143e-06 -2.81911e-08)
(1.52857e-08 -6.9011e-07 -1.47669e-08)
(-1.52177e-08 -5.53866e-07 -1.52891e-08)
(-1.24144e-07 -1.14851e-06 -2.86556e-08)
(-2.72969e-07 -1.51921e-06 -3.43111e-08)
(-4.45129e-07 -1.7663e-06 -3.82175e-08)
(-6.23824e-07 -1.93438e-06 -4.24183e-08)
(-7.94698e-07 -2.04761e-06 -4.79969e-08)
(-9.42741e-07 -2.12093e-06 -5.53468e-08)
(-1.05354e-06 -2.16433e-06 -6.4551e-08)
(-1.11409e-06 -2.18509e-06 -7.54018e-08)
(-1.11401e-06 -2.18906e-06 -8.74276e-08)
(-1.04694e-06 -2.18145e-06 -9.98944e-08)
(-9.11787e-07 -2.16719e-06 -1.11856e-07)
(-7.13748e-07 -2.15102e-06 -1.22197e-07)
(-4.64508e-07 -2.13706e-06 -1.29874e-07)
(-1.81572e-07 -2.1285e-06 -1.33971e-07)
(1.1354e-07 -2.12701e-06 -1.34049e-07)
(3.98109e-07 -2.13267e-06 -1.30106e-07)
(6.50529e-07 -2.14398e-06 -1.22566e-07)
(8.531e-07 -2.15787e-06 -1.12339e-07)
(9.93891e-07 -2.17033e-06 -1.00464e-07)
(1.0674e-06 -2.17668e-06 -8.80525e-08)
(1.07442e-06 -2.17201e-06 -7.60523e-08)
(1.02102e-06 -2.15109e-06 -6.51983e-08)
(9.17298e-07 -2.10806e-06 -5.59633e-08)
(7.75995e-07 -2.0356e-06 -4.85548e-08)
(6.11259e-07 -1.92368e-06 -4.2887e-08)
(4.3783e-07 -1.75734e-06 -3.85468e-08)
(2.69755e-07 -1.51234e-06 -3.44442e-08)
(1.23525e-07 -1.14405e-06 -2.85374e-08)
(1.5442e-08 -5.52166e-07 -1.49701e-08)
(-1.47429e-08 -4.16676e-07 -1.48098e-08)
(-1.2032e-07 -8.72509e-07 -2.77475e-08)
(-2.65212e-07 -1.15929e-06 -3.31496e-08)
(-4.33764e-07 -1.34942e-06 -3.67933e-08)
(-6.0963e-07 -1.47612e-06 -4.06831e-08)
(-7.78395e-07 -1.55797e-06 -4.58757e-08)
(-9.2488e-07 -1.60688e-06 -5.27552e-08)
(-1.03452e-06 -1.631e-06 -6.13814e-08)
(-1.09434e-06 -1.63653e-06 -7.15356e-08)
(-1.09411e-06 -1.62855e-06 -8.27508e-08)
(-1.02775e-06 -1.61174e-06 -9.43282e-08)
(-8.94404e-07 -1.59065e-06 -1.05385e-07)
(-6.99438e-07 -1.56969e-06 -1.14912e-07)