/*--------------------------------*- C++ -*----------------------------------*\
| =========                 |                                                 |
| \\      /  F ield         | OpenFOAM: The Open Source CFD Toolbox           |
|  \\    /   O peration     | Version:  v1912                                 |
|   \\  /    A nd           | Website:  www.openfoam.com                      |
|    \\/     M anipulation  |                                                 |
\*---------------------------------------------------------------------------*/
FoamFile
{
    version     2.0;
    format      ascii;
    class       volScalarField;
    location    "86/oil";
    object      heatTransferCoeff(T);
}
// * * * * * * * * * * * * * * * * * * * * * * * * * * * * * * * * * * * * * //

dimensions      [1 0 -3 -1 0 0 0];


internalField   uniform 0;

boundaryField
{
    maxY
    {
        type            calculated;
        value           uniform 0;
    }
    minX
    {
        type            calculated;
        value           uniform 0;
    }
    maxX
    {
        type            calculated;
        value           uniform 0;
    }
    minY
    {
        type            calculated;
        value           uniform 0;
    }
    minZ
    {
        type            calculated;
        value           uniform 0;
    }
    maxZ
    {
        type            calculated;
        value           uniform 0;
    }
    oil_to_sphere
    {
        type            calculated;
        value           nonuniform List<scalar> 
1536
(
-113.896
-112.216
-112.337
-108.902
-108.516
-111.983
-110.723
-111.058
-110.848
-109.019
-107.903
-109.184
-110.776
-109.426
-107.2
-110.417
-112.044
-112.423
-110.295
-110.718
-111.54
-110.817
-111.029
-110.405
-110.615
-110.493
-110.499
-110.172
-112.054
-111.025
-112.561
-112.181
-112.302
-110.327
-110.471
-110.105
-110.188
-109.648
-110.065
-110.426
-109.956
-110.269
-110.8
-111.276
-111.738
-110.406
-111.989
-111.44
-107.159
-110.56
-111.39
-110.912
-111.371
-110.302
-111.983
-113.252
-110.939
-110.734
-111.586
-111.276
-110.823
-110.733
-110.842
-110.282
-110.528
-110.719
-110.697
-111.485
-111.359
-111.869
-110.275
-109.042
-109.415
-110.509
-110.434
-113.327
-112.281
-109.975
-110.428
-112.44
-111.558
-111.43
-108.668
-108.573
-112.037
-113.672
-108.564
-110.55
-111.339
-111.295
-111.075
-110.146
-110.177
-110.226
-110.478
-111.224
-111.769
-111.82
-112.355
-111.252
-111.606
-110.228
-114.043
-111.475
-109.367
-110.444
-110.511
-109.081
-109.172
-114.205
-112.238
-111.159
-110.737
-111.136
-108.486
-108.895
-108.249
-112.931
-113.843
-112.435
-110.95
-111.118
-110.048
-111.703
-112.469
-111.595
-110.828
-109.908
-111.804
-111.415
-110.76
-111.362
-111.928
-110.429
-110.624
-111.886
-111.118
-112.489
-109.97
-112.05
-110.819
-111.438
-111.437
-110.81
-110.568
-110.784
-110.994
-114.077
-112.015
-114.103
-111.708
-113.365
-110.911
-111.056
-110.175
-112.148
-111.718
-112.629
-114.682
-113.87
-112.223
-114.369
-109.093
-109.412
-110.177
-110.053
-111.673
-113.356
-112.103
-113.954
-110.325
-110.458
-110.094
-111.914
-111.584
-111.518
-113.52
-111.166
-111.638
-113.576
-109.786
-109.343
-109.375
-109.491
-112.544
-113.731
-113.925
-110.215
-109.804
-112.413
-109.983
-112.099
-111.93
-112.731
-109.193
-107.153
-112.745
-112.898
-111.347
-110.289
-110.999
-110.64
-112.551
-112.761
-111.798
-111.477
-110.766
-113.12
-112.51
-112.388
-109.837
-110.499
-110.435
-111.244
-112.019
-113.541
-111.16
-109.369
-109.362
-107.081
-112.253
-111.837
-111.38
-111.087
-111.234
-113.327
-112.155
-111.139
-112.318
-109.211
-110.181
-107.391
-110.659
-112.711
-112.755
-112.736
-112.103
-111.692
-112.324
-109.247
-109.455
-111.355
-112.845
-109.935
-107.775
-108.183
-111.729
-112.284
-114.006
-115.628
-111.216
-108.745
-107.001
-111.277
-113.531
-110.208
-110.264
-108.219
-110.137
-113.276
-113.97
-111.311
-110.372
-112.95
-114.223
-110.419
-108.776
-111.33
-113.591
-113.116
-111.703
-111.981
-112.646
-109.522
-110.297
-112.802
-111.981
-113.171
-110.908
-112.422
-113.531
-111.983
-111.806
-112.998
-110.479
-110.344
-110.749
-109.855
-110.148
-112.798
-113.507
-111.338
-110.633
-110.564
-110.788
-110.234
-111.401
-111.037
-109.831
-108.362
-110.061
-109.186
-109.893
-113.794
-113.065
-113.119
-115.816
-109.226
-109.362
-112.034
-114.024
-115.045
-110.349
-111.038
-110.21
-111.944
-110.442
-111.734
-111.887
-112.633
-111.908
-110.787
-112.142
-109.97
-112.707
-112.96
-112.197
-112.137
-109.607
-113.696
-114.013
-112.602
-109.081
-110.487
-110.976
-111.922
-111.723
-111.772
-109.573
-112.688
-113.861
-112.44
-113.091
-111.433
-111.376
-110.967
-109.546
-111.62
-112.101
-109.458
-109.25
-109.588
-114.106
-112.842
-113.216
-111.548
-111.432
-113.218
-109.309
-113.761
-112.498
-111.281
-111.371
-109.295
-112.892
-112.761
-109.816
-111.245
-110.813
-110.455
-112.047
-112.654
-110.814
-110.612
-109.437
-113.505
-112.672
-109.33
-113.287
-113.239
-112.317
-113.432
-111.235
-112.116
-109.394
-109.033
-111.955
-115.316
-112.445
-114.368
-111.791
-110.659
-112.357
-109.871
-110.614
-112.118
-112.622
-112.091
-111.476
-110.031
-109.505
-112.872
-113.806
-112.696
-111.413
-110.407
-111.723
-112.092
-112.433
-111.466
-110.856
-110.166
-111.249
-109.892
-109.114
-110.216
-110.082
-111.179
-108.868
-110.602
-114.249
-110.575
-110.556
-112.696
-112.565
-111.851
-110.848
-109.28
-112.405
-113.08
-111.855
-111.64
-112.224
-111.183
-111.186
-111.551
-108.698
-112.588
-113.766
-113.283
-112.501
-112.228
-111.85
-111.431
-110.962
-109.844
-111.148
-109.889
-109.273
-109.983
-108.898
-113.858
-113.653
-112.86
-115.332
-111.072
-113.758
-109.467
-109.761
-112.007
-111.287
-109.463
-110.612
-110.288
-113.736
-113.257
-111.528
-111.755
-113.489
-112.928
-111.369
-112.143
-109.751
-112.576
-108.958
-113.294
-108.657
-112.537
-112.588
-112.61
-110.76
-109.429
-110.727
-112.624
-110.81
-108.912
-112.86
-112.78
-113.99
-114.218
-112.506
-113.062
-109.202
-109.454
-107.376
-107.877
-111.099
-110.402
-110.313
-110.05
-113.808
-111.288
-109.012
-108.692
-111.412
-110.173
-114.753
-110.172
-110.253
-111.324
-107.88
-108.055
-110.212
-110.174
-110.667
-110.533
-112.75
-112.504
-111.867
-111.34
-108.841
-110.42
-112.82
-109.777
-109.749
-112.236
-113.372
-109.946
-107.909
-109.458
-107.987
-110.994
-110.637
-110.225
-109.253
-107.388
-112.301
-112.374
-111.591
-111.26
-113.67
-112.276
-111.733
-111.507
-109.591
-110.286
-112.799
-112.024
-110.606
-108.049
-111.36
-113.486
-113.731
-111.431
-111.446
-113.349
-112.299
-113.036
-109.639
-110.171
-109.397
-110.504
-111.168
-113.117
-112.782
-109.705
-109.537
-111.816
-114.438
-110.138
-110.363
-109.004
-111.787
-111.179
-112.997
-113.423
-110.404
-108.976
-113.596
-114.201
-108.376
-114.036
-113.226
-112.48
-113.561
-112.014
-111.563
-111.388
-113.617
-111.483
-111.82
-111.322
-112.457
-111.612
-111.176
-111.113
-109.296
-112.289
-111.799
-112.51
-112.303
-112.456
-112.031
-111.564
-109.146
-113.012
-113.126
-112.053
-111.156
-111.631
-114.128
-110.558
-109.571
-109.195
-112.368
-111.443
-114.055
-110.727
-110.952
-111.577
-107.714
-107.502
-110.278
-110.211
-111.027
-109.339
-109.703
-112.672
-111.171
-113.35
-111.051
-113.836
-112.225
-112.365
-108.833
-107.537
-107.235
-110.354
-112.417
-110.556
-110.263
-107.829
-111.002
-113.049
-110.988
-115.975
-109.83
-112.711
-113.087
-112.229
-113.173
-113.404
-112.598
-111.438
-111
-111.187
-112.375
-110.931
-111.578
-111.726
-111.663
-112.586
-112.072
-112.391
-109.663
-109.879
-107.169
-108.089
-108.981
-106.108
-110.513
-110.557
-110.896
-111.219
-108.98
-109.339
-110.613
-113.158
-113.421
-110.597
-108.943
-110.871
-112.738
-112.753
-111.055
-109.035
-109.818
-112.037
-112.006
-111.037
-110.617
-112.176
-112.397
-113.517
-112.25
-111.405
-110.542
-109.647
-109.101
-111.547
-112.021
-114.174
-111.068
-114.061
-111.499
-114.539
-110.354
-110.894
-109.675
-110.002
-110.496
-109.609
-110.891
-108.861
-110.308
-113.054
-110.624
-109.41
-113.754
-112.292
-111.616
-111.247
-114.339
-115.686
-108.36
-112.071
-112.224
-111.861
-109.723
-111.13
-110.249
-111.851
-112.931
-112.706
-109.764
-112.124
-111.565
-112.078
-112.058
-111.626
-110.916
-111.098
-110.535
-109.057
-108.874
-109.636
-113.199
-110.357
-109.19
-110.381
-112.916
-110.774
-113.344
-112.726
-111.899
-111.418
-111.974
-113.639
-109.616
-111.945
-113.211
-113.025
-111.54
-110.091
-110.992
-112.056
-113.103
-109.632
-111.108
-111.602
-112.808
-111.653
-112.231
-113.388
-109.589
-110.239
-110.012
-113.757
-112.77
-111.235
-112.831
-110.164
-110.459
-112.819
-112.434
-113.374
-109.61
-112.413
-112.751
-111.381
-111.835
-112.378
-109.966
-108.668
-111.153
-112.326
-114.416
-111.006
-110.46
-111.089
-111.804
-112.463
-111.231
-110.23
-110.965
-112.613
-110.456
-109.837
-110.857
-110.275
-111.584
-111.387
-112.995
-111.999
-112.373
-110.479
-111.248
-111.564
-110.996
-110.7
-110.588
-110.448
-109.706
-112.158
-111.538
-111.385
-111.978
-108.936
-110.532
-113.781
-113.682
-110.1
-112.85
-111.811
-111.944
-110.614
-113.172
-112.847
-109.488
-110.704
-110.542
-110.526
-109.305
-109.285
-110.517
-113.031
-115.053
-110.285
-112.423
-112.144
-111.675
-110.926
-111.576
-113.088
-112.29
-109.583
-110.548
-110.429
-110.858
-111.919
-112.524
-112.213
-112.217
-112.459
-110.312
-112.221
-110.658
-112.333
-107.479
-112.018
-113.04
-110.698
-108.391
-111.719
-111.274
-113.697
-110.079
-112.236
-111.262
-108.676
-113.808
-109.464
-110.957
-111.065
-109.096
-112.914
-111.395
-111.06
-111.957
-111.399
-110.743
-113.7
-109.662
-110.544
-107.448
-111.907
-110.551
-111.121
-112.899
-115.492
-109.315
-110.696
-114.734
-109.547
-112.209
-110.186
-111.955
-108.697
-110.241
-114.67
-108.562
-115.025
-108.804
-113.753
-109.058
-110.042
-108.062
-109.994
-114.389
-108.008
-111.724
-108.655
-113.962
-114.391
-108.157
-111.727
-109.918
-109.541
-109.379
-110.36
-111.097
-111.158
-111.816
-110.967
-113.538
-114.817
-108.207
-112.239
-111.529
-111.053
-111.278
-110.974
-111.053
-110.927
-112.419
-111.132
-112.328
-110.606
-111.648
-113.155
-110.62
-111.736
-112.695
-110.501
-111.654
-111.162
-111.848
-110.887
-111.518
-110.744
-112.57
-110.577
-111.528
-108.92
-113.914
-108.135
-112.622
-112.795
-113.277
-110.038
-111.326
-110.892
-111.164
-111.689
-111.202
-112.448
-109.79
-107.005
-112.657
-108.463
-113.19
-110.145
-111.155
-113.203
-107.039
-114.593
-110.448
-107.851
-110.893
-112.087
-111.904
-111.437
-107.833
-111.653
-111.877
-110.273
-110.064
-113.174
-112.979
-110.594
-111.073
-113.169
-108
-112.991
-110.073
-111.883
-108.189
-115.427
-113.916
-112.52
-111.477
-111.267
-112.501
-111.067
-107.809
-109.637
-112.167
-110.14
-112.676
-108.299
-113.225
-112.454
-105.996
-111.709
-111.667
-107.197
-114.37
-108.809
-113.103
-113.852
-112.628
-107.314
-111.449
-110.916
-111.655
-111.604
-112.249
-107.9
-110.867
-110.035
-110.097
-113.241
-111.335
-112.442
-111.893
-111.942
-110.891
-111.331
-110.991
-111.516
-112.88
-110.416
-110.835
-110.252
-111.821
-112.812
-110.452
-110.63
-110.484
-111.318
-110.12
-110.148
-110.692
-110.827
-111.326
-111.109
-113.337
-112.765
-108.302
-108.89
-113.822
-105.973
-112.13
-111.9
-110.304
-110.932
-114.299
-107.23
-112.681
-112.239
-107.519
-110.66
-110.551
-111.893
-107.021
-113.007
-112.735
-106.906
-112.811
-113.361
-107.966
-113.253
-112.997
-108.028
-110.437
-110.223
-107.334
-111.19
-111.426
-110.262
-110.03
-110.943
-106.748
-109.846
-108.289
-106.685
-112.77
-109.914
-114.287
-110.909
-107.839
-112.836
-111.887
-107.393
-110.514
-110.52
-107.359
-108.684
-114.54
-105.475
-109.697
-110.911
-106.411
-112.906
-112.482
-111.193
-110.588
-110.643
-109.575
-106.72
-111.234
-110.502
-110.684
-111.208
-107.466
-112.748
-110.342
-111.005
-110.1
-110.914
-111.319
-109.663
-107.669
-110.735
-112.361
-110.259
-110.68
-111.244
-110.009
-110.817
-107.587
-110.731
-112.681
-110.123
-110.938
-110.062
-107.814
-113.784
-113.931
-112.846
-113.897
-107.909
-107.107
-110.982
-113.297
-111.406
-112.179
-112.463
-109.681
-109.192
-107.951
-108.69
-109.84
-111.019
-110.897
-110.817
-109.519
-112.589
-111.921
-108.049
-109.478
-109.649
-112.408
-109.956
-106.872
-112.589
-111.046
-112.713
-107.375
-110.879
-112.167
-110.492
-110.775
-112.19
-111.035
-109.575
-113.669
-106.145
-110.298
-111.656
-110.081
-110.547
-113.567
-112.105
-111.482
-109.218
-113.237
-110.635
-111.366
-112.422
-112.782
-112.586
-112.762
-113.556
-113.838
-113.305
-113.307
-112.359
-112.626
-110.383
-110.875
-109.711
-108.803
-106.52
-113.619
-113.471
-112.905
-110.673
-111.339
-111.245
-110.082
-111.549
-112.524
-109.775
-110.923
-112.082
-110.52
-110.442
-110.285
-110.663
-109.868
-110.578
-110.457
-108.149
-112.131
-109.932
-110.868
-107.221
-114.12
-110.996
-110.135
-109.884
-108.299
-111.277
-110.211
-107.228
-109.473
-110.888
-109.013
-109.068
-113.792
-114.06
-110.543
-110.521
-112.355
-113.42
-107.138
-110.909
-109.954
-110.523
-110.551
-110.683
-110.962
-109.379
-107.602
-113.586
-110.548
-109.013
-109.327
-110.396
-111.181
-108.427
-111.544
-110.349
-110.366
-113.436
-109.127
-107.902
-110.743
-110.286
-110.037
-107.674
-113.093
-110.581
-110.275
-110.447
-107.213
-110.826
-110.541
-107.997
-110.738
-109.42
-111.711
-112.886
-110.271
-112.385
-111.471
-110.135
-110.105
-110.602
-107.776
-112.094
-112.399
-110.324
-107.496
-109.642
-110.839
-110.934
-110.179
-107.655
-110.282
-112.69
-111.801
-110.507
-113.776
-108.895
-113.043
-107.187
-108.948
-113.309
-107.441
-112.732
-110.782
-111.174
-110.404
-114.247
-109.341
-111.123
-113.256
-113.52
-108.187
-113.016
-113.524
-106.143
-112.309
-110.149
-107.254
-113.033
-110.104
-110.322
-110.34
-110.963
-110.717
-110.288
-110.238
-107.08
-112.642
-111.392
-111.058
-111.279
-110.639
-110.066
-109.65
-113.1
-106.777
-109.886
-111.137
-107.253
-112.71
-113.498
-112.086
-113.002
-113.547
-109.625
-111.883
-111.808
-112.994
-109.997
-112.109
-109.338
-107.657
-112.896
-109.367
-112.677
-114.076
-113.353
-107.401
-113.023
-111.833
-109.83
-110.278
-110.623
-110.195
-107.446
-113.775
-107.477
-113.722
-110.618
-109.366
-109.89
-111.447
-111.995
-113.745
-111.02
-113.951
-112.824
-112.609
-108.01
-112.648
-112.14
-112.866
-110.122
-109.774
-107.076
-110.825
-113.869
-113.293
-107.425
-109.427
-108.264
-110.091
-110.912
-109.209
-115.426
-110.398
-109.341
-107.626
-111.837
-109.902
-106.636
-111.273
-110.265
-110.16
-110.3
-110.33
-107.683
-109.085
-107.265
-110.575
-113.161
-111.754
-113.245
-112.96
-109.897
-109.488
-107.377
-109.74
-112.788
-113.08
-112.784
-112.402
-108.962
-107.298
-109.372
-106.911
-112.383
-112.644
-109.596
-112.5
-112.687
-112.916
-112.295
-111.199
-111.109
-109.891
-106.834
-109.594
-107.663
-109.806
-110.299
-110.151
-108.019
-107.417
-112.009
-113.769
-114.136
-113.398
-111.074
-111.759
-111.74
-111.162
-110.383
-110.967
-109.678
-110.673
-110.683
-107.345
-113.007
-110.657
-109.481
-108.038
-110.549
-110.988
-110.962
-110.212
-108.069
-113.37
-111.573
-110.241
-113.691
-109.657
-107.243
-112.553
-110.843
-110.709
-110.647
-110.12
-106.536
-111.69
-110.638
-107.514
-114.004
-110.536
-105.837
-110.281
-110.872
-111.006
-110.071
-107.488
-109.997
-110.102
-108.641
-110.673
-107.196
-110.87
-110.775
-108.38
-114.245
-110.597
-108.034
-115.045
-110.89
-110.934
-107.967
-110.725
-107.546
)
;
    }
}


// ************************************************************************* //
