/*--------------------------------*- C++ -*----------------------------------*\
| =========                 |                                                 |
| \\      /  F ield         | OpenFOAM: The Open Source CFD Toolbox           |
|  \\    /   O peration     | Version:  v1912                                 |
|   \\  /    A nd           | Website:  www.openfoam.com                      |
|    \\/     M anipulation  |                                                 |
\*---------------------------------------------------------------------------*/
FoamFile
{
    version     2.0;
    format      ascii;
    class       volVectorField;
    location    "86/oil";
    object      U;
}
// * * * * * * * * * * * * * * * * * * * * * * * * * * * * * * * * * * * * * //

dimensions      [0 1 -1 0 0 0 0];


internalField   nonuniform List<vector> 
35580
(
(-8.18284e-10 1.68163e-09 -8.33798e-10)
(9.2142e-10 1.50205e-09 -2.03741e-09)
(7.98745e-09 1.46799e-09 -3.28944e-09)
(1.91182e-08 1.83591e-09 -4.55348e-09)
(3.263e-08 2.42939e-09 -5.57002e-09)
(4.66371e-08 3.12953e-09 -6.25299e-09)
(5.93942e-08 3.86919e-09 -6.59622e-09)
(6.93885e-08 4.61678e-09 -6.6389e-09)
(7.53814e-08 5.35267e-09 -6.44051e-09)
(7.65528e-08 6.06001e-09 -6.05242e-09)
(7.24526e-08 6.69839e-09 -5.53191e-09)
(6.31125e-08 7.23865e-09 -5.01218e-09)
(4.90991e-08 7.66239e-09 -4.52941e-09)
(3.12903e-08 7.98464e-09 -4.18506e-09)
(1.10559e-08 8.16237e-09 -4.00476e-09)
(-1.00657e-08 8.18421e-09 -4.00809e-09)
(-3.03687e-08 7.99973e-09 -4.18417e-09)
(-4.82296e-08 7.67302e-09 -4.51805e-09)
(-6.23503e-08 7.22356e-09 -4.97977e-09)
(-7.18021e-08 6.69419e-09 -5.50664e-09)
(-7.60762e-08 6.0667e-09 -6.02192e-09)
(-7.50489e-08 5.3511e-09 -6.42751e-09)
(-6.91538e-08 4.61492e-09 -6.62523e-09)
(-5.92507e-08 3.8692e-09 -6.58897e-09)
(-4.65649e-08 3.12891e-09 -6.24723e-09)
(-3.2617e-08 2.43011e-09 -5.56463e-09)
(-1.9145e-08 1.83533e-09 -4.54538e-09)
(-8.03202e-09 1.45881e-09 -3.27453e-09)
(-9.44587e-10 1.47446e-09 -2.02271e-09)
(8.12219e-10 1.62024e-09 -8.32796e-10)
(4.54914e-10 -1.6224e-09 4.46762e-10)
(8.75426e-09 -9.73118e-09 3.93433e-10)
(2.54062e-08 -1.6159e-08 -1.86419e-10)
(4.85762e-08 -1.96397e-08 -9.42726e-10)
(7.5511e-08 -2.07383e-08 -1.49906e-09)
(1.02983e-07 -2.00561e-08 -1.68786e-09)
(1.27758e-07 -1.80851e-08 -1.47056e-09)
(1.46921e-07 -1.51928e-08 -8.76301e-10)
(1.58062e-07 -1.16903e-08 2.46827e-11)
(1.59481e-07 -7.86666e-09 1.12942e-09)
(1.50245e-07 -4.03087e-09 2.42002e-09)
(1.30373e-07 -5.12098e-10 3.63085e-09)
(1.01095e-07 2.39234e-09 4.69473e-09)
(6.4335e-08 4.51498e-09 5.45894e-09)
(2.27145e-08 5.64294e-09 5.86289e-09)
(-2.07108e-08 5.66988e-09 5.87695e-09)
(-6.24852e-08 4.50208e-09 5.4802e-09)
(-9.93399e-08 2.3427e-09 4.74059e-09)
(-1.28668e-07 -6.20984e-10 3.70454e-09)
(-1.48651e-07 -4.0978e-09 2.49544e-09)
(-1.58191e-07 -7.92715e-09 1.22671e-09)
(-1.57039e-07 -1.17447e-08 9.41247e-11)
(-1.46127e-07 -1.52239e-08 -8.10441e-10)
(-1.27206e-07 -1.80992e-08 -1.41752e-09)
(-1.02643e-07 -2.00732e-08 -1.64288e-09)
(-7.53461e-08 -2.07716e-08 -1.45862e-09)
(-4.85395e-08 -1.97034e-08 -9.09758e-10)
(-2.54265e-08 -1.62606e-08 -1.59155e-10)
(-8.76859e-09 -9.8493e-09 4.05558e-10)
(-4.51796e-10 -1.7527e-09 4.30742e-10)
(1.71149e-09 -1.56463e-08 1.7118e-09)
(1.71016e-08 -4.12407e-08 3.02716e-09)
(4.17989e-08 -6.01408e-08 3.3036e-09)
(7.35321e-08 -7.21363e-08 3.26401e-09)
(1.08959e-07 -7.85074e-08 3.33042e-09)
(1.44385e-07 -8.04781e-08 3.69775e-09)
(1.75927e-07 -7.90977e-08 4.43494e-09)
(1.99979e-07 -7.52185e-08 5.53553e-09)
(2.13511e-07 -6.95778e-08 6.93082e-09)
(2.14367e-07 -6.28587e-08 8.49836e-09)
(2.01304e-07 -5.57483e-08 1.02273e-08)
(1.74282e-07 -4.89841e-08 1.1829e-08)
(1.34915e-07 -4.33078e-08 1.31837e-08)
(8.57608e-08 -3.91942e-08 1.41637e-08)
(3.02563e-08 -3.70155e-08 1.46849e-08)
(-2.76595e-08 -3.70192e-08 1.47206e-08)
(-8.34076e-08 -3.92865e-08 1.4194e-08)
(-1.32684e-07 -4.35169e-08 1.3229e-08)
(-1.72068e-07 -4.92725e-08 1.18759e-08)
(-1.99291e-07 -5.59876e-08 1.0304e-08)
(-2.12749e-07 -6.30714e-08 8.59333e-09)
(-2.12219e-07 -6.97297e-08 6.99658e-09)
(-1.98981e-07 -7.53169e-08 5.59878e-09)
(-1.75222e-07 -7.9163e-08 4.49332e-09)
(-1.43945e-07 -8.05399e-08 3.75066e-09)
(-1.08736e-07 -7.85963e-08 3.38166e-09)
(-7.34613e-08 -7.22765e-08 3.30717e-09)
(-4.18047e-08 -6.03374e-08 3.33267e-09)
(-1.71256e-08 -4.14396e-08 3.03069e-09)
(-1.72474e-09 -1.57773e-08 1.69138e-09)
(2.72282e-09 -3.8623e-08 2.71868e-09)
(2.40853e-08 -8.98128e-08 5.03362e-09)
(5.55046e-08 -1.25765e-07 5.89506e-09)
(9.39713e-08 -1.49593e-07 6.33541e-09)
(1.35632e-07 -1.63862e-07 6.84918e-09)
(1.76525e-07 -1.70557e-07 7.62807e-09)
(2.1246e-07 -1.71343e-07 8.74748e-09)
(2.395e-07 -1.67603e-07 1.02083e-08)
(2.54274e-07 -1.60576e-07 1.19472e-08)
(2.54334e-07 -1.51414e-07 1.38379e-08)
(2.38218e-07 -1.41279e-07 1.58364e-08)
(2.05892e-07 -1.31284e-07 1.76914e-08)
(1.59229e-07 -1.22692e-07 1.92728e-08)
(1.011e-07 -1.16373e-07 2.03898e-08)
(3.56339e-08 -1.1304e-07 2.09755e-08)
(-3.2678e-08 -1.13083e-07 2.1021e-08)
(-9.84596e-08 -1.16494e-07 2.04067e-08)
(-1.56675e-07 -1.22896e-07 1.92886e-08)
(-2.03369e-07 -1.31501e-07 1.77196e-08)
(-2.35923e-07 -1.41454e-07 1.58931e-08)
(-2.52428e-07 -1.5157e-07 1.38911e-08)
(-2.52724e-07 -1.60683e-07 1.19827e-08)
(-2.38293e-07 -1.67675e-07 1.02463e-08)
(-2.11583e-07 -1.71392e-07 8.786e-09)
(-1.75948e-07 -1.70618e-07 7.66915e-09)
(-1.35321e-07 -1.63973e-07 6.8944e-09)
(-9.38575e-08 -1.49777e-07 6.37012e-09)
(-5.54937e-08 -1.26002e-07 5.90718e-09)
(-2.41204e-08 -9.00237e-08 5.018e-09)
(-2.74783e-09 -3.87855e-08 2.6885e-09)
(3.43886e-09 -6.865e-08 3.43395e-09)
(2.93527e-08 -1.51809e-07 6.41975e-09)
(6.60599e-08 -2.08276e-07 7.65085e-09)
(1.09794e-07 -2.46225e-07 8.39112e-09)
(1.56202e-07 -2.70192e-07 9.18286e-09)
(2.01125e-07 -2.83144e-07 1.02445e-08)
(2.40189e-07 -2.87425e-07 1.16404e-08)
(2.69287e-07 -2.84965e-07 1.3381e-08)
(2.84853e-07 -2.77503e-07 1.54012e-08)
(2.84262e-07 -2.6667e-07 1.75771e-08)
(2.65915e-07 -2.54104e-07 1.98063e-08)
(2.29703e-07 -2.41297e-07 2.18955e-08)
(1.77545e-07 -2.30001e-07 2.36948e-08)
(1.1265e-07 -2.21514e-07 2.49387e-08)
(3.9683e-08 -2.17053e-07 2.55904e-08)
(-3.64584e-08 -2.17118e-07 2.56457e-08)
(-1.09786e-07 -2.21606e-07 2.49607e-08)
(-1.74691e-07 -2.30052e-07 2.37064e-08)
(-2.26919e-07 -2.41326e-07 2.1946e-08)
(-2.6341e-07 -2.54106e-07 1.98656e-08)
(-2.82171e-07 -2.66674e-07 1.76252e-08)
(-2.8316e-07 -2.77506e-07 1.54412e-08)
(-2.67966e-07 -2.84982e-07 1.34236e-08)
(-2.39217e-07 -2.87458e-07 1.16824e-08)
(-2.00463e-07 -2.83216e-07 1.02824e-08)
(-1.55819e-07 -2.70319e-07 9.21898e-09)
(-1.09638e-07 -2.46428e-07 8.40868e-09)
(-6.60395e-08 -2.08509e-07 7.63733e-09)
(-2.94049e-08 -1.51952e-07 6.37017e-09)
(-3.47955e-09 -6.88352e-08 3.38788e-09)
(3.89604e-09 -1.03683e-07 3.90932e-09)
(3.29579e-08 -2.23461e-07 7.30985e-09)
(7.34932e-08 -3.03029e-07 8.74917e-09)
(1.2108e-07 -3.56747e-07 9.66442e-09)
(1.70942e-07 -3.9168e-07 1.06279e-08)
(2.18781e-07 -4.12046e-07 1.18795e-08)
(2.60116e-07 -4.20947e-07 1.34864e-08)
(2.90736e-07 -4.20869e-07 1.54671e-08)
(3.06953e-07 -4.14033e-07 1.77497e-08)
(3.06e-07 -4.02515e-07 2.02139e-08)
(2.86222e-07 -3.88402e-07 2.27019e-08)
(2.47364e-07 -3.73595e-07 2.50694e-08)
(1.91171e-07 -3.60149e-07 2.71055e-08)
(1.2126e-07 -3.49806e-07 2.85074e-08)
(4.26836e-08 -3.44351e-07 2.92309e-08)
(-3.92781e-08 -3.44407e-07 2.92834e-08)
(-1.18255e-07 -3.49884e-07 2.85201e-08)
(-1.88113e-07 -3.60057e-07 2.71157e-08)
(-2.44395e-07 -3.73527e-07 2.51453e-08)
(-2.83577e-07 -3.88326e-07 2.2777e-08)
(-3.038e-07 -4.02451e-07 2.02773e-08)
(-3.05182e-07 -4.13994e-07 1.78069e-08)
(-2.89357e-07 -4.20875e-07 1.55228e-08)
(-2.591e-07 -4.20993e-07 1.35446e-08)
(-2.1808e-07 -4.12142e-07 1.19262e-08)
(-1.70516e-07 -3.91822e-07 1.06661e-08)
(-1.20888e-07 -3.5694e-07 9.67263e-09)
(-7.34661e-08 -3.03216e-07 8.71335e-09)
(-3.30368e-08 -2.2351e-07 7.22951e-09)
(-3.95627e-09 -1.03889e-07 3.84863e-09)
(4.15719e-09 -1.41896e-07 4.17533e-09)
(3.50882e-08 -3.01435e-07 7.80037e-09)
(7.7964e-08 -4.05862e-07 9.36412e-09)
(1.27918e-07 -4.76475e-07 1.03765e-08)
(1.79911e-07 -5.23316e-07 1.14477e-08)
(2.2956e-07 -5.5206e-07 1.28443e-08)
(2.72345e-07 -5.66655e-07 1.46288e-08)
(3.04013e-07 -5.70152e-07 1.68307e-08)
(3.20798e-07 -5.65213e-07 1.93687e-08)
(3.19821e-07 -5.54301e-07 2.21227e-08)
(2.99365e-07 -5.39869e-07 2.48977e-08)
(2.59012e-07 -5.24217e-07 2.75503e-08)
(2.00276e-07 -5.0957e-07 2.98511e-08)
(1.27035e-07 -4.97895e-07 3.14253e-08)
(4.46811e-08 -4.91653e-07 3.22052e-08)
(-4.11546e-08 -4.91677e-07 3.22595e-08)
(-1.23954e-07 -4.98015e-07 3.1424e-08)
(-1.97127e-07 -5.09431e-07 2.98744e-08)
(-2.55954e-07 -5.24162e-07 2.76553e-08)
(-2.96655e-07 -5.3982e-07 2.49995e-08)
(-3.1758e-07 -5.54263e-07 2.22099e-08)
(-3.19004e-07 -5.65213e-07 1.94464e-08)
(-3.02621e-07 -5.70206e-07 1.69011e-08)
(-2.71323e-07 -5.66753e-07 1.46988e-08)
(-2.2885e-07 -5.52196e-07 1.28961e-08)
(-1.79467e-07 -5.23473e-07 1.14891e-08)
(-1.27705e-07 -4.76635e-07 1.03741e-08)
(-7.79259e-08 -4.05936e-07 9.30184e-09)
(-3.51782e-08 -3.01335e-07 7.7001e-09)
(-4.22394e-09 -1.42155e-07 4.11129e-09)
(4.23609e-09 -1.81652e-07 4.27156e-09)
(3.58272e-08 -3.82608e-07 7.9754e-09)
(7.95306e-08 -5.1282e-07 9.59158e-09)
(1.30274e-07 -6.00979e-07 1.06567e-08)
(1.82936e-07 -6.60413e-07 1.17915e-08)
(2.33141e-07 -6.98404e-07 1.32905e-08)
(2.76416e-07 -7.19787e-07 1.5229e-08)
(3.08548e-07 -7.28192e-07 1.76317e-08)
(3.25749e-07 -7.26655e-07 2.04136e-08)
(3.25062e-07 -7.17953e-07 2.34569e-08)
(3.04684e-07 -7.04829e-07 2.65418e-08)
(2.64041e-07 -6.89845e-07 2.94668e-08)
(2.04309e-07 -6.75244e-07 3.20476e-08)
(1.29516e-07 -6.62874e-07 3.38098e-08)
(4.55096e-08 -6.56254e-07 3.46694e-08)
(-4.20198e-08 -6.56398e-07 3.47576e-08)
(-1.26495e-07 -6.6323e-07 3.38241e-08)
(-2.012e-07 -6.75222e-07 3.21032e-08)
(-2.60982e-07 -6.89897e-07 2.95788e-08)
(-3.01982e-07 -7.04889e-07 2.66412e-08)
(-3.22822e-07 -7.18014e-07 2.3545e-08)
(-3.23959e-07 -7.2675e-07 2.04933e-08)
(-3.07158e-07 -7.28345e-07 1.77028e-08)
(-2.75388e-07 -7.19993e-07 1.53015e-08)
(-2.32416e-07 -6.9863e-07 1.33454e-08)
(-1.82473e-07 -6.60631e-07 1.18211e-08)
(-1.30039e-07 -6.01127e-07 1.06288e-08)
(-7.94796e-08 -5.1277e-07 9.50964e-09)
(-3.5916e-08 -3.82355e-07 7.87482e-09)
(-4.30893e-09 -1.82034e-07 4.21546e-09)
(4.16754e-09 -2.21491e-07 4.20238e-09)
(3.52361e-08 -4.6395e-07 7.8408e-09)
(7.81669e-08 -6.2009e-07 9.44768e-09)
(1.27959e-07 -7.25978e-07 1.05505e-08)
(1.79614e-07 -7.98325e-07 1.17272e-08)
(2.28896e-07 -8.46228e-07 1.32692e-08)
(2.71471e-07 -8.75441e-07 1.53029e-08)
(3.03262e-07 -8.90109e-07 1.785e-08)
(3.20555e-07 -8.93593e-07 2.08203e-08)
(3.20354e-07 -8.88875e-07 2.41021e-08)
(3.0077e-07 -8.78849e-07 2.74572e-08)
(2.61143e-07 -8.6613e-07 3.06182e-08)
(2.02273e-07 -8.52988e-07 3.34078e-08)
(1.28127e-07 -8.41058e-07 3.53769e-08)
(4.50363e-08 -8.34848e-07 3.6379e-08)
(-4.16234e-08 -8.35014e-07 3.64651e-08)
(-1.25178e-07 -8.41366e-07 3.53522e-08)
(-1.99232e-07 -8.52957e-07 3.34557e-08)
(-2.58115e-07 -8.66263e-07 3.07236e-08)
(-2.98132e-07 -8.79035e-07 2.75524e-08)
(-3.18159e-07 -8.89062e-07 2.4195e-08)
(-3.18812e-07 -8.93812e-07 2.09049e-08)
(-3.01914e-07 -8.904e-07 1.79227e-08)
(-2.70461e-07 -8.75795e-07 1.53728e-08)
(-2.28174e-07 -8.46583e-07 1.33088e-08)
(-1.79153e-07 -7.98588e-07 1.17084e-08)
(-1.2771e-07 -7.25995e-07 1.04795e-08)
(-7.80885e-08 -6.1978e-07 9.35401e-09)
(-3.52933e-08 -4.63506e-07 7.74487e-09)
(-4.22772e-09 -2.21949e-07 4.14556e-09)
(3.94876e-09 -2.59903e-07 3.94739e-09)
(3.32861e-08 -5.4239e-07 7.36702e-09)
(7.37975e-08 -7.23721e-07 8.88339e-09)
(1.20766e-07 -8.47047e-07 9.98635e-09)
(1.69535e-07 -9.32253e-07 1.12005e-08)
(2.16157e-07 -9.90315e-07 1.27514e-08)
(2.56588e-07 -1.02812e-06 1.47963e-08)
(2.87002e-07 -1.05022e-06 1.73917e-08)
(3.03876e-07 -1.06021e-06 2.04347e-08)
(3.0426e-07 -1.06115e-06 2.38312e-08)
(2.86188e-07 -1.05597e-06 2.734e-08)
(2.48906e-07 -1.04713e-06 3.06643e-08)
(1.92971e-07 -1.0367e-06 3.3507e-08)
(1.22133e-07 -1.02639e-06 3.56111e-08)
(4.29551e-08 -1.0214e-06 3.67731e-08)
(-3.97847e-08 -1.02157e-06 3.68613e-08)
(-1.19379e-07 -1.02649e-06 3.55842e-08)
(-1.89988e-07 -1.0362e-06 3.35407e-08)
(-2.45907e-07 -1.04694e-06 3.07719e-08)
(-2.83635e-07 -1.05616e-06 2.74313e-08)
(-3.02112e-07 -1.06146e-06 2.39286e-08)
(-3.02194e-07 -1.06057e-06 2.05201e-08)
(-2.85718e-07 -1.05069e-06 1.74617e-08)
(-2.55611e-07 -1.02867e-06 1.48714e-08)
(-2.15437e-07 -9.90795e-07 1.27868e-08)
(-1.69051e-07 -9.32408e-07 1.11834e-08)
(-1.2046e-07 -8.46764e-07 9.98065e-09)
(-7.36314e-08 -7.2311e-07 8.90098e-09)
(-3.32718e-08 -5.41828e-07 7.38046e-09)
(-3.97993e-09 -2.60454e-07 3.94207e-09)
(3.57609e-09 -2.95301e-07 3.52325e-09)
(2.99369e-08 -6.14592e-07 6.60413e-09)
(6.63502e-08 -8.19315e-07 7.95522e-09)
(1.08526e-07 -9.59248e-07 8.97054e-09)
(1.5237e-07 -1.05691e-06 1.01723e-08)
(1.94403e-07 -1.12493e-06 1.16925e-08)
(2.31062e-07 -1.17161e-06 1.36586e-08)
(2.58861e-07 -1.20189e-06 1.61568e-08)
(2.74611e-07 -1.21942e-06 1.90821e-08)
(2.75503e-07 -1.22725e-06 2.24038e-08)
(2.595e-07 -1.22813e-06 2.58834e-08)
(2.25921e-07 -1.22414e-06 2.92023e-08)
(1.75348e-07 -1.21761e-06 3.19492e-08)
(1.11129e-07 -1.21059e-06 3.40693e-08)
(3.91449e-08 -1.20734e-06 3.52788e-08)
(-3.62499e-08 -1.20755e-06 3.53903e-08)
(-1.08586e-07 -1.21064e-06 3.40913e-08)
(-1.72508e-07 -1.21706e-06 3.19176e-08)
(-2.23217e-07 -1.22415e-06 2.92331e-08)
(-2.57228e-07 -1.22849e-06 2.59142e-08)
(-2.7348e-07 -1.22772e-06 2.24936e-08)
(-2.7303e-07 -1.2199e-06 1.91728e-08)
(-2.57686e-07 -1.20252e-06 1.62207e-08)
(-2.30176e-07 -1.17236e-06 1.37431e-08)
(-1.93778e-07 -1.12543e-06 1.17298e-08)
(-1.51943e-07 -1.05664e-06 1.01529e-08)
(-1.08194e-07 -9.58348e-07 8.94316e-09)
(-6.60872e-08 -8.18237e-07 7.89112e-09)
(-2.98352e-08 -6.1378e-07 6.52608e-09)
(-3.54857e-09 -2.95807e-07 3.50499e-09)
(3.03043e-09 -3.26121e-07 2.93369e-09)
(2.51427e-08 -6.77136e-07 5.51782e-09)
(5.56924e-08 -9.01967e-07 6.67748e-09)
(9.12323e-08 -1.05678e-06 7.5912e-09)
(1.28194e-07 -1.16612e-06 8.69688e-09)
(1.63647e-07 -1.2437e-06 1.0128e-08)
(1.94763e-07 -1.29899e-06 1.19267e-08)
(2.18572e-07 -1.33758e-06 1.41511e-08)
(2.32361e-07 -1.36301e-06 1.67139e-08)
(2.33547e-07 -1.37799e-06 1.96658e-08)
(2.20198e-07 -1.38488e-06 2.27495e-08)
(1.91758e-07 -1.3862e-06 2.56956e-08)
(1.48912e-07 -1.38476e-06 2.82647e-08)
(9.46606e-08 -1.38228e-06 3.03257e-08)
(3.34149e-08 -1.38118e-06 3.14814e-08)
(-3.08717e-08 -1.38131e-06 3.1599e-08)
(-9.24673e-08 -1.38222e-06 3.04788e-08)
(-1.46521e-07 -1.38484e-06 2.84637e-08)
(-1.89546e-07 -1.38785e-06 2.6059e-08)
(-2.18197e-07 -1.38632e-06 2.29854e-08)
(-2.31663e-07 -1.37881e-06 1.98311e-08)
(-2.30913e-07 -1.36353e-06 1.67705e-08)
(-2.17559e-07 -1.33825e-06 1.40359e-08)
(-1.93983e-07 -1.29981e-06 1.17441e-08)
(-1.63049e-07 -1.244e-06 9.9033e-09)
(-1.27668e-07 -1.1654e-06 8.50163e-09)
(-9.08031e-08 -1.05555e-06 7.47044e-09)
(-5.54537e-08 -9.00856e-07 6.61558e-09)
(-2.5072e-08 -6.76189e-07 5.49851e-09)
(-2.99516e-09 -3.26511e-07 2.97536e-09)
(2.37293e-09 -3.50711e-07 2.14167e-09)
(1.92373e-08 -7.26827e-07 4.00242e-09)
(4.22912e-08 -9.67528e-07 4.8931e-09)
(6.92934e-08 -1.13428e-06 5.6009e-09)
(9.74714e-08 -1.25353e-06 6.4111e-09)
(1.24559e-07 -1.3398e-06 7.52361e-09)
(1.4837e-07 -1.40291e-06 9.00674e-09)
(1.66684e-07 -1.449e-06 1.09181e-08)
(1.77644e-07 -1.48162e-06 1.31167e-08)
(1.78975e-07 -1.50292e-06 1.55298e-08)
(1.68768e-07 -1.51559e-06 1.78876e-08)
(1.46843e-07 -1.52313e-06 2.02503e-08)
(1.14301e-07 -1.5276e-06 2.25344e-08)
(7.30302e-08 -1.52912e-06 2.42506e-08)
(2.59923e-08 -1.52969e-06 2.51353e-08)
(-2.3391e-08 -1.52931e-06 2.50677e-08)
(-7.08795e-08 -1.52806e-06 2.41149e-08)
(-1.12382e-07 -1.52697e-06 2.24099e-08)
(-1.4532e-07 -1.52507e-06 2.03553e-08)
(-1.67056e-07 -1.51729e-06 1.79087e-08)
(-1.77133e-07 -1.50371e-06 1.54323e-08)
(-1.76322e-07 -1.48193e-06 1.30335e-08)
(-1.65863e-07 -1.4495e-06 1.08708e-08)
(-1.47669e-07 -1.4035e-06 9.03488e-09)
(-1.24031e-07 -1.33988e-06 7.56691e-09)
(-9.71103e-08 -1.25307e-06 6.468e-09)
(-6.90951e-08 -1.13399e-06 5.67937e-09)
(-4.21937e-08 -9.67761e-07 5.03357e-09)
(-1.90574e-08 -7.26845e-07 4.18053e-09)
(-2.28375e-09 -3.51458e-07 2.246e-09)
(1.50677e-09 -3.68288e-07 1.3942e-09)
(1.21867e-08 -7.6199e-07 2.57987e-09)
(2.6762e-08 -1.01395e-06 3.08141e-09)
(4.3883e-08 -1.1885e-06 3.44994e-09)
(6.16049e-08 -1.31436e-06 3.92665e-09)
(7.86216e-08 -1.40701e-06 4.65711e-09)
(9.36072e-08 -1.47614e-06 5.65532e-09)
(1.05097e-07 -1.52804e-06 6.95545e-09)
(1.12167e-07 -1.56629e-06 8.48774e-09)
(1.13325e-07 -1.59269e-06 1.01134e-08)
(1.0701e-07 -1.6109e-06 1.1724e-08)
(9.33009e-08 -1.62417e-06 1.34116e-08)
(7.28817e-08 -1.63338e-06 1.49784e-08)
(4.67547e-08 -1.63799e-06 1.61464e-08)
(1.69136e-08 -1.63974e-06 1.66826e-08)
(-1.43577e-08 -1.63824e-06 1.64142e-08)
(-4.46268e-08 -1.6348e-06 1.56711e-08)
(-7.08799e-08 -1.6304e-06 1.44019e-08)
(-9.16602e-08 -1.62355e-06 1.28072e-08)
(-1.05616e-07 -1.61025e-06 1.10719e-08)
(-1.12156e-07 -1.59139e-06 9.43873e-09)
(-1.11611e-07 -1.56439e-06 8.01185e-09)
(-1.04896e-07 -1.52703e-06 6.76145e-09)
(-9.32922e-08 -1.47648e-06 5.7228e-09)
(-7.82267e-08 -1.40802e-06 4.87715e-09)
(-6.11281e-08 -1.31545e-06 4.19475e-09)
(-4.34318e-08 -1.18954e-06 3.69221e-09)
(-2.64935e-08 -1.01487e-06 3.26537e-09)
(-1.19615e-08 -7.62375e-07 2.69437e-09)
(-1.44586e-09 -3.68911e-07 1.41549e-09)
(5.60231e-10 -3.77513e-07 4.4608e-10)
(4.31137e-09 -7.80145e-07 8.86122e-10)
(9.42318e-09 -1.0384e-06 1.11147e-09)
(1.55703e-08 -1.21742e-06 1.26078e-09)
(2.18984e-08 -1.34694e-06 1.45771e-09)
(2.80149e-08 -1.44268e-06 1.76575e-09)
(3.35611e-08 -1.51422e-06 2.13231e-09)
(3.78729e-08 -1.56801e-06 2.50509e-09)
(4.04784e-08 -1.60883e-06 2.9859e-09)
(4.08974e-08 -1.6391e-06 3.6423e-09)
(3.86362e-08 -1.66162e-06 4.32684e-09)
(3.38447e-08 -1.67828e-06 4.96156e-09)
(2.65006e-08 -1.68959e-06 5.45352e-09)
(1.71361e-08 -1.69609e-06 5.96911e-09)
(6.5939e-09 -1.69926e-06 6.218e-09)
(-4.56319e-09 -1.69776e-06 6.02533e-09)
(-1.57552e-08 -1.69344e-06 5.77863e-09)
(-2.50995e-08 -1.6874e-06 5.31126e-09)
(-3.23639e-08 -1.67805e-06 4.64685e-09)
(-3.7322e-08 -1.66151e-06 3.99303e-09)
(-3.965e-08 -1.6387e-06 3.39163e-09)
(-3.95566e-08 -1.60781e-06 2.86318e-09)
(-3.72939e-08 -1.56739e-06 2.37377e-09)
(-3.32628e-08 -1.51454e-06 1.98083e-09)
(-2.79141e-08 -1.44375e-06 1.69316e-09)
(-2.17633e-08 -1.34827e-06 1.45635e-09)
(-1.54145e-08 -1.21877e-06 1.27622e-09)
(-9.36798e-09 -1.03964e-06 1.1262e-09)
(-4.20135e-09 -7.81006e-07 9.54219e-10)
(-4.83778e-10 -3.78057e-07 5.10041e-10)
(-3.91879e-10 -3.7796e-07 -4.61692e-10)
(-3.62879e-09 -7.80957e-07 -8.37967e-10)
(-8.1493e-09 -1.03964e-06 -9.83913e-10)
(-1.32857e-08 -1.21887e-06 -1.10701e-09)
(-1.86607e-08 -1.34856e-06 -1.26438e-09)
(-2.38314e-08 -1.44456e-06 -1.48736e-09)
(-2.83899e-08 -1.51639e-06 -1.77735e-09)
(-3.19787e-08 -1.57044e-06 -2.13704e-09)
(-3.40625e-08 -1.6113e-06 -2.5901e-09)
(-3.41467e-08 -1.64135e-06 -3.09234e-09)
(-3.19805e-08 -1.66381e-06 -3.72196e-09)
(-2.77381e-08 -1.68049e-06 -4.41951e-09)
(-2.17917e-08 -1.69162e-06 -4.9999e-09)
(-1.41406e-08 -1.69834e-06 -5.2239e-09)
(-4.9005e-09 -1.70147e-06 -5.24071e-09)
(5.01029e-09 -1.69978e-06 -5.16661e-09)
(1.40823e-08 -1.69604e-06 -4.81864e-09)
(2.24822e-08 -1.69015e-06 -4.39595e-09)
(2.88985e-08 -1.68033e-06 -4.03038e-09)
(3.28096e-08 -1.66365e-06 -3.44895e-09)
(3.48483e-08 -1.64082e-06 -2.83583e-09)
(3.48022e-08 -1.60979e-06 -2.2615e-09)
(3.28336e-08 -1.56921e-06 -1.90334e-09)
(2.92355e-08 -1.51607e-06 -1.68012e-09)
(2.44383e-08 -1.44497e-06 -1.45076e-09)
(1.91066e-08 -1.34926e-06 -1.2698e-09)
(1.35856e-08 -1.21955e-06 -1.11756e-09)
(8.30124e-09 -1.0403e-06 -9.69754e-10)
(3.78423e-09 -7.81514e-07 -7.50602e-10)
(4.89287e-10 -3.78333e-07 -3.78509e-10)
(-1.3767e-09 -3.69471e-07 -1.36128e-09)
(-1.14611e-08 -7.63632e-07 -2.57972e-09)
(-2.53869e-08 -1.0167e-06 -3.13467e-09)
(-4.15624e-08 -1.19183e-06 -3.55098e-09)
(-5.84736e-08 -1.31825e-06 -4.03715e-09)
(-7.47889e-08 -1.41164e-06 -4.68997e-09)
(-8.9088e-08 -1.48132e-06 -5.55147e-09)
(-1.00029e-07 -1.53332e-06 -6.67523e-09)
(-1.06421e-07 -1.5718e-06 -8.07254e-09)
(-1.07132e-07 -1.59856e-06 -9.53795e-09)
(-1.00961e-07 -1.61725e-06 -1.11596e-08)
(-8.78597e-08 -1.63083e-06 -1.28754e-08)
(-6.86876e-08 -1.64018e-06 -1.43565e-08)
(-4.40797e-08 -1.6458e-06 -1.53018e-08)
(-1.53184e-08 -1.64806e-06 -1.56677e-08)
(1.49322e-08 -1.6459e-06 -1.54564e-08)
(4.34859e-08 -1.6431e-06 -1.47623e-08)
(6.89632e-08 -1.63907e-06 -1.36398e-08)
(8.85849e-08 -1.63082e-06 -1.23769e-08)
(1.01312e-07 -1.61682e-06 -1.07428e-08)
(1.07729e-07 -1.59757e-06 -9.18908e-09)
(1.0715e-07 -1.5702e-06 -7.6866e-09)
(1.00462e-07 -1.53205e-06 -6.39282e-09)
(8.93639e-08 -1.48058e-06 -5.31478e-09)
(7.50276e-08 -1.41166e-06 -4.43466e-09)
(5.88393e-08 -1.31878e-06 -3.77861e-09)
(4.19249e-08 -1.19252e-06 -3.28135e-09)
(2.56588e-08 -1.01754e-06 -2.89468e-09)
(1.17047e-08 -7.64473e-07 -2.38347e-09)
(1.47787e-09 -3.69776e-07 -1.29043e-09)
(-2.25611e-09 -3.52567e-07 -2.17235e-09)
(-1.86472e-08 -7.29261e-07 -4.05881e-09)
(-4.12139e-08 -9.7114e-07 -4.91734e-09)
(-6.74818e-08 -1.13809e-06 -5.55241e-09)
(-9.48532e-08 -1.25786e-06 -6.31523e-09)
(-1.21193e-07 -1.34542e-06 -7.36344e-09)
(-1.44339e-07 -1.40987e-06 -8.76032e-09)
(-1.62145e-07 -1.45681e-06 -1.057e-08)
(-1.72522e-07 -1.49031e-06 -1.27732e-08)
(-1.73578e-07 -1.51236e-06 -1.50988e-08)
(-1.63633e-07 -1.52562e-06 -1.74913e-08)
(-1.42262e-07 -1.53352e-06 -1.97959e-08)
(-1.10792e-07 -1.53853e-06 -2.19232e-08)
(-7.08872e-08 -1.54128e-06 -2.35243e-08)
(-2.47521e-08 -1.54248e-06 -2.43386e-08)
(2.37434e-08 -1.54079e-06 -2.41457e-08)
(6.99846e-08 -1.53972e-06 -2.3225e-08)
(1.1103e-07 -1.53891e-06 -2.16458e-08)
(1.42829e-07 -1.53424e-06 -1.97025e-08)
(1.63822e-07 -1.52537e-06 -1.73291e-08)
(1.74094e-07 -1.51171e-06 -1.49805e-08)
(1.73347e-07 -1.49018e-06 -1.26732e-08)
(1.62834e-07 -1.45747e-06 -1.06168e-08)
(1.44932e-07 -1.41091e-06 -8.80683e-09)
(1.21636e-07 -1.34692e-06 -7.35474e-09)
(9.51345e-08 -1.25954e-06 -6.25818e-09)
(6.76084e-08 -1.13949e-06 -5.37234e-09)
(4.13738e-08 -9.72408e-07 -4.6889e-09)
(1.88836e-08 -7.30422e-07 -3.83983e-09)
(2.3651e-09 -3.52665e-07 -2.07036e-09)
(-3.0086e-09 -3.28135e-07 -2.87178e-09)
(-2.48138e-08 -6.797e-07 -5.35911e-09)
(-5.47465e-08 -9.05508e-07 -6.5131e-09)
(-8.96435e-08 -1.06102e-06 -7.38677e-09)
(-1.26027e-07 -1.17167e-06 -8.40677e-09)
(-1.61011e-07 -1.25111e-06 -9.78891e-09)
(-1.91656e-07 -1.3078e-06 -1.16045e-08)
(-2.15047e-07 -1.3472e-06 -1.38514e-08)
(-2.28458e-07 -1.37356e-06 -1.65144e-08)
(-2.2952e-07 -1.38959e-06 -1.9417e-08)
(-2.16336e-07 -1.3974e-06 -2.24862e-08)
(-1.88187e-07 -1.39935e-06 -2.53602e-08)
(-1.46157e-07 -1.39867e-06 -2.78692e-08)
(-9.29976e-08 -1.39765e-06 -2.9888e-08)
(-3.22046e-08 -1.39747e-06 -3.11002e-08)
(3.13652e-08 -1.39645e-06 -3.10064e-08)
(9.2133e-08 -1.39734e-06 -2.98748e-08)
(1.46228e-07 -1.40016e-06 -2.7853e-08)
(1.88473e-07 -1.40036e-06 -2.53482e-08)
(2.16375e-07 -1.39753e-06 -2.25341e-08)
(2.29671e-07 -1.38962e-06 -1.94862e-08)
(2.28981e-07 -1.37416e-06 -1.64904e-08)
(2.15633e-07 -1.34816e-06 -1.39279e-08)
(1.92216e-07 -1.30876e-06 -1.17528e-08)
(1.61499e-07 -1.25233e-06 -1.00022e-08)
(1.2646e-07 -1.17353e-06 -8.63407e-09)
(8.9983e-08 -1.06358e-06 -7.50918e-09)
(5.49355e-08 -9.08501e-07 -6.58299e-09)
(2.48617e-08 -6.82175e-07 -5.4096e-09)
(3.00813e-09 -3.28356e-07 -2.87806e-09)
(-3.54963e-09 -2.97606e-07 -3.48933e-09)
(-2.96447e-08 -6.17953e-07 -6.51817e-09)
(-6.55786e-08 -8.23575e-07 -7.8815e-09)
(-1.07444e-07 -9.64608e-07 -8.90607e-09)
(-1.50973e-07 -1.06384e-06 -1.00792e-08)
(-1.92696e-07 -1.13359e-06 -1.16385e-08)
(-2.29045e-07 -1.18152e-06 -1.3637e-08)
(-2.56576e-07 -1.21274e-06 -1.61044e-08)
(-2.72086e-07 -1.23126e-06 -1.90517e-08)
(-2.72875e-07 -1.24013e-06 -2.23314e-08)
(-2.56946e-07 -1.24191e-06 -2.58017e-08)
(-2.23535e-07 -1.23874e-06 -2.90807e-08)
(-1.73511e-07 -1.23297e-06 -3.18226e-08)
(-1.10017e-07 -1.22745e-06 -3.39492e-08)
(-3.78901e-08 -1.22489e-06 -3.53327e-08)
(3.71127e-08 -1.22415e-06 -3.53158e-08)
(1.09007e-07 -1.22724e-06 -3.41575e-08)
(1.73029e-07 -1.23406e-06 -3.20145e-08)
(2.233e-07 -1.23952e-06 -2.91136e-08)
(2.56845e-07 -1.24251e-06 -2.58515e-08)
(2.72968e-07 -1.2407e-06 -2.23744e-08)
(2.72453e-07 -1.23201e-06 -1.90318e-08)
(2.5701e-07 -1.21366e-06 -1.60999e-08)
(2.29507e-07 -1.18251e-06 -1.36044e-08)
(1.93133e-07 -1.13476e-06 -1.16153e-08)
(1.51386e-07 -1.06555e-06 -1.01234e-08)
(1.07868e-07 -9.67246e-07 -8.95368e-09)
(6.59503e-08 -8.26855e-07 -7.90253e-09)
(2.98664e-08 -6.20569e-07 -6.5261e-09)
(3.59653e-09 -2.97758e-07 -3.48222e-09)
(-3.955e-09 -2.62265e-07 -3.95347e-09)
(-3.31721e-08 -5.46282e-07 -7.38097e-09)
(-7.34672e-08 -7.28729e-07 -8.89478e-09)
(-1.20268e-07 -8.53401e-07 -9.97163e-09)
(-1.6886e-07 -9.40094e-07 -1.11621e-08)
(-2.15339e-07 -9.99491e-07 -1.27546e-08)
(-2.55649e-07 -1.03836e-06 -1.48409e-08)
(-2.85948e-07 -1.06141e-06 -1.74333e-08)
(-3.02692e-07 -1.07234e-06 -2.04979e-08)
(-3.02975e-07 -1.07424e-06 -2.3891e-08)
(-2.84831e-07 -1.06994e-06 -2.74259e-08)
(-2.47565e-07 -1.0621e-06 -3.07928e-08)
(-1.92081e-07 -1.05277e-06 -3.36793e-08)
(-1.21667e-07 -1.04387e-06 -3.57805e-08)
(-4.18911e-08 -1.03886e-06 -3.7022e-08)
(4.08387e-08 -1.0382e-06 -3.69104e-08)
(1.20462e-07 -1.04312e-06 -3.57969e-08)
(1.9126e-07 -1.05275e-06 -3.37028e-08)
(2.47065e-07 -1.06227e-06 -3.07484e-08)
(2.84562e-07 -1.07034e-06 -2.74308e-08)
(3.02927e-07 -1.07473e-06 -2.39101e-08)
(3.02872e-07 -1.07301e-06 -2.05039e-08)
(2.86251e-07 -1.06222e-06 -1.74425e-08)
(2.56045e-07 -1.03927e-06 -1.48317e-08)
(2.1579e-07 -1.00051e-06 -1.27484e-08)
(1.69313e-07 -9.41296e-07 -1.11894e-08)
(1.20647e-07 -8.55076e-07 -1.00266e-08)
(7.36913e-08 -7.30937e-07 -8.94944e-09)
(3.32647e-08 -5.4825e-07 -7.41436e-09)
(3.93919e-09 -2.62417e-07 -3.95908e-09)
(-4.1961e-09 -2.23844e-07 -4.19998e-09)
(-3.52917e-08 -4.67901e-07 -7.79949e-09)
(-7.82614e-08 -6.25414e-07 -9.37533e-09)
(-1.28054e-07 -7.32673e-07 -1.04971e-08)
(-1.79694e-07 -8.06264e-07 -1.17261e-08)
(-2.28988e-07 -8.55205e-07 -1.33305e-08)
(-2.71581e-07 -8.85338e-07 -1.54076e-08)
(-3.0337e-07 -9.0088e-07 -1.79721e-08)
(-3.20612e-07 -9.0522e-07 -2.09779e-08)
(-3.20312e-07 -9.01348e-07 -2.42822e-08)
(-3.00549e-07 -8.92109e-07 -2.76777e-08)
(-2.60782e-07 -8.80254e-07 -3.09008e-08)
(-2.02149e-07 -8.67997e-07 -3.37185e-08)
(-1.28037e-07 -8.57214e-07 -3.57124e-08)
(-4.40913e-08 -8.50891e-07 -3.68107e-08)
(4.28885e-08 -8.50561e-07 -3.67325e-08)
(1.26762e-07 -8.56803e-07 -3.57556e-08)
(2.0116e-07 -8.68077e-07 -3.37512e-08)
(2.60138e-07 -8.80508e-07 -3.0911e-08)
(3.00161e-07 -8.92494e-07 -2.77194e-08)
(3.20157e-07 -9.01816e-07 -2.4324e-08)
(3.20664e-07 -9.05816e-07 -2.10098e-08)
(3.03562e-07 -9.01594e-07 -1.80015e-08)
(2.71869e-07 -8.86166e-07 -1.5428e-08)
(2.29328e-07 -8.56136e-07 -1.33525e-08)
(1.80043e-07 -8.0731e-07 -1.17686e-08)
(1.28317e-07 -7.33911e-07 -1.06051e-08)
(7.83662e-08 -6.26953e-07 -9.55421e-09)
(3.53082e-08 -4.69465e-07 -7.9615e-09)
(4.15229e-09 -2.23936e-07 -4.24703e-09)
(-4.27403e-09 -1.83879e-07 -4.29389e-09)
(-3.6004e-08 -3.8635e-07 -7.97247e-09)
(-7.9892e-08 -5.18042e-07 -9.5629e-09)
(-1.30799e-07 -6.07405e-07 -1.06729e-08)
(-1.83622e-07 -6.67803e-07 -1.18705e-08)
(-2.34004e-07 -7.06633e-07 -1.34116e-08)
(-2.77424e-07 -7.28794e-07 -1.53859e-08)
(-3.09645e-07 -7.37938e-07 -1.7812e-08)
(-3.26861e-07 -7.37125e-07 -2.06378e-08)
(-3.26075e-07 -7.29133e-07 -2.3718e-08)
(-3.05425e-07 -7.16662e-07 -2.6856e-08)
(-2.64494e-07 -7.02297e-07 -2.98586e-08)
(-2.0475e-07 -6.88234e-07 -3.24599e-08)
(-1.29779e-07 -6.76781e-07 -3.42884e-08)
(-4.4796e-08 -6.70207e-07 -3.52517e-08)
(4.34207e-08 -6.70038e-07 -3.52181e-08)
(1.28339e-07 -6.76541e-07 -3.43324e-08)
(2.03685e-07 -6.88377e-07 -3.24562e-08)
(2.63844e-07 -7.02498e-07 -2.98486e-08)
(3.04995e-07 -7.16923e-07 -2.6897e-08)
(3.25834e-07 -7.29478e-07 -2.37666e-08)
(3.26814e-07 -7.37587e-07 -2.06793e-08)
(3.09745e-07 -7.38511e-07 -1.78498e-08)
(2.77618e-07 -7.29462e-07 -1.54152e-08)
(2.34244e-07 -7.07385e-07 -1.34392e-08)
(1.83877e-07 -6.68628e-07 -1.19055e-08)
(1.31006e-07 -6.08301e-07 -1.07443e-08)
(8.00068e-08 -5.19061e-07 -9.69661e-09)
(3.60379e-08 -3.8748e-07 -8.0984e-09)
(4.2549e-09 -1.83915e-07 -4.32512e-09)
(-4.21326e-09 -1.43768e-07 -4.18957e-09)
(-3.53713e-08 -3.04754e-07 -7.79868e-09)
(-7.85186e-08 -4.10535e-07 -9.37469e-09)
(-1.28778e-07 -4.82132e-07 -1.04453e-08)
(-1.81076e-07 -5.29739e-07 -1.15708e-08)
(-2.31025e-07 -5.59151e-07 -1.29992e-08)
(-2.74057e-07 -5.74358e-07 -1.48237e-08)
(-3.05894e-07 -5.78433e-07 -1.70566e-08)
(-3.2275e-07 -5.74046e-07 -1.9644e-08)
(-3.21677e-07 -5.63671e-07 -2.24471e-08)
(-3.00878e-07 -5.49734e-07 -2.53014e-08)
(-2.60109e-07 -5.34509e-07 -2.8039e-08)
(-2.01179e-07 -5.20251e-07 -3.03647e-08)
(-1.27595e-07 -5.09247e-07 -3.19987e-08)
(-4.41118e-08 -5.03128e-07 -3.2857e-08)
(4.27201e-08 -5.02894e-07 -3.28337e-08)
(1.26063e-07 -5.08899e-07 -3.19986e-08)
(2.00058e-07 -5.20259e-07 -3.03234e-08)
(2.59406e-07 -5.3458e-07 -2.79934e-08)
(3.00376e-07 -5.49873e-07 -2.5317e-08)
(3.21345e-07 -5.63908e-07 -2.24905e-08)
(3.22614e-07 -5.7439e-07 -1.96838e-08)
(3.05919e-07 -5.7887e-07 -1.7093e-08)
(2.74181e-07 -5.74867e-07 -1.48519e-08)
(2.31199e-07 -5.59721e-07 -1.30247e-08)
(1.81276e-07 -5.30359e-07 -1.15961e-08)
(1.28963e-07 -4.82789e-07 -1.04801e-08)
(7.86549e-08 -4.11228e-07 -9.43996e-09)
(3.53952e-08 -3.05506e-07 -7.88952e-09)
(4.18847e-09 -1.4387e-07 -4.2204e-09)
(-3.97031e-09 -1.05173e-07 -3.90535e-09)
(-3.33193e-08 -2.26242e-07 -7.30481e-09)
(-7.41978e-08 -3.06937e-07 -8.78596e-09)
(-1.22177e-07 -3.61404e-07 -9.75215e-09)
(-1.72418e-07 -3.96893e-07 -1.07604e-08)
(-2.20631e-07 -4.17743e-07 -1.2039e-08)
(-2.62286e-07 -4.27086e-07 -1.36853e-08)
(-2.93124e-07 -4.27419e-07 -1.56939e-08)
(-3.09449e-07 -4.20961e-07 -1.80193e-08)
(-3.08408e-07 -4.09813e-07 -2.05284e-08)
(-2.88263e-07 -3.96002e-07 -2.3108e-08)
(-2.48942e-07 -3.81487e-07 -2.55527e-08)
(-1.92469e-07 -3.68357e-07 -2.76206e-08)
(-1.22053e-07 -3.58404e-07 -2.90852e-08)
(-4.22338e-08 -3.53009e-07 -2.98809e-08)
(4.08606e-08 -3.52782e-07 -2.98556e-08)