/*--------------------------------*- C++ -*----------------------------------*\
| =========                 |                                                 |
| \\      /  F ield         | OpenFOAM: The Open Source CFD Toolbox           |
|  \\    /   O peration     | Version:  v1906                                 |
|   \\  /    A nd           | Web:      www.OpenFOAM.com                      |
|    \\/     M anipulation  |                                                 |
\*---------------------------------------------------------------------------*/
FoamFile
{
    version     2.0;
    format      ascii;
    class       volScalarField;
    location    "22.4/sphere";
    object      T;
}
// * * * * * * * * * * * * * * * * * * * * * * * * * * * * * * * * * * * * * //

dimensions      [0 0 0 1 0 0 0];


internalField   nonuniform List<scalar> 
304
(
486.637
486.668
486.666
486.683
486.639
486.637
486.636
486.668
486.635
486.798
486.798
486.682
486.666
486.797
486.797
486.716
486.682
486.716
486.638
486.667
486.684
486.636
486.669
486.798
486.798
486.716
486.684
486.798
486.798
486.744
486.635
486.716
486.745
486.675
486.638
486.685
486.716
486.64
486.642
486.717
486.744
486.673
486.639
486.675
486.624
486.623
486.638
486.639
486.64
486.676
486.638
486.639
486.676
486.64
486.623
486.638
486.641
486.639
486.676
486.668
486.668
486.684
486.684
486.717
486.717
486.745
486.636
486.684
486.668
486.717
486.683
486.745
486.717
486.638
486.64
486.676
486.638
486.636
486.636
486.674
486.637
486.683
486.632
486.666
486.715
486.744
486.68
486.715
486.668
486.667
486.634
486.744
486.716
486.716
486.682
486.675
486.637
486.637
486.622
486.636
486.637
486.674
486.637
486.675
486.638
486.636
486.622
486.639
486.637
486.637
486.675
486.669
486.683
486.717
486.667
486.684
486.716
486.745
486.637
486.717
486.684
486.684
486.668
486.745
486.716
486.639
486.638
486.675
486.638
486.683
486.668
486.717
486.668
486.717
486.684
486.745
486.634
486.716
486.668
486.716
486.668
486.745
486.684
486.715
486.633
486.681
486.684
486.745
486.666
486.715
486.667
486.682
486.634
486.744
486.684
486.716
486.667
486.639
486.636
486.675
486.637
486.716
486.636
486.668
486.716
486.745
486.667
486.684
486.682
486.668
486.635
486.744
486.715
486.684
486.667
486.674
486.635
486.636
486.636
486.638
486.676
486.642
486.684
486.717
486.745
486.636
486.667
486.684
486.717
486.667
486.745
486.716
486.667
486.633
486.716
486.681
486.674
486.637
486.637
486.718
486.685
486.745
486.639
486.686
486.67
486.718
486.668
486.744
486.684
486.682
486.636
486.716
486.668
486.745
486.667
486.716
486.67
486.718
486.636
486.683
486.684
486.716
486.667
486.715
486.667
486.682
486.634
486.674
486.637
486.64
486.745
486.667
486.684
486.683
486.716
486.636
486.668
486.716
486.685
486.668
486.717
486.684
486.669
486.638
486.637
486.637
486.64
486.627
486.636
486.64
486.675
486.636
486.674
486.638
486.636
486.622
486.643
486.639
486.677
486.64
486.717
486.718
486.745
486.639
486.668
486.669
486.684
486.682
486.745
486.716
486.667
486.634
486.684
486.667
486.675
486.638
486.636
486.677
486.64
486.637
486.745
486.682
486.716
486.667
486.683
486.633
486.667
486.715
486.716
486.682
486.683
486.666
486.667
486.634
486.636
486.638
486.635
486.625
486.675
486.638
486.636
486.64
486.638
486.636
)
;

boundaryField
{
    sphere_to_oil
    {
        type            compressible::turbulentTemperatureCoupledBaffleMixed;
        refValue        nonuniform List<scalar> 
360
(
336.633
336.633
311.976
358.752
366.101
314.386
367.293
367.293
367.293
336.803
336.803
314.7
316.329
310.545
334.031
363.163
357.703
357.703
357.703
311.367
355.048
332.896
329.485
362.885
311.116
364.035
313.984
363.515
363.515
363.515
368.197
361.323
312.001
311.83
314.533
314.68
357.98
357.98
357.98
357.349
365.509
312.572
314.697
336.547
336.547
313.896
316.358
309.314
334.537
364.445
314.559
314.413
316.04
316.298
311.117
333.043
358.792
311.33
314.669
315.859
309.65
364.632
364.632
364.632
309.31
363.346
334.272
322.682
366.674
366.674
366.674
366.287
364.859
310.266
355.87
333.273
310.706
327.867
365.245
358.491
330.522
320.494
329.634
309.557
311.976
314.294
314.88
316.208
310.505
311.482
312.001
316.184
314.675
312.102
316.061
314.601
314.838
314.699
312.44
310.049
310.133
310.421
314.385
314.7
316.201
310.338
310.695
316.346
312.459
314.841
314.904
314.75
312.469
311.224
309.678
309.627
324.01
322.334
324.986
336.655
336.655
358.752
358.752
362.885
362.885
360.196
360.196
360.196
362.605
362.605
362.605
324.501
322.265
323.991
310.874
366.101
366.101
334.595
334.595
368.197
368.197
332.272
332.272
367.514
367.514
367.514
310.858
310.99
363.611
363.611
363.611
364.282
364.282
364.282
363.163
355.048
334.031
363.163
361.132
310.654
361.132
361.132
329.574
330.035
321.138
332.343
332.343
367.229
367.229
367.229
309.317
355.048
332.896
366.34
366.34
309.391
366.34
330.347
320.963
309.414
313.921
314.12
316.579
311.03
316.346
314.115
309.377
310.093
364.035
364.035
361.323
361.323
336.524
336.524
358.996
358.996
358.996
334.956
334.956
310.004
314.348
314.537
316.339
314.537
314.318
316.346
312.365
316.334
314.737
312.348
357.349
316.381
314.923
311.36
365.998
365.998
365.998
333.792
333.792
309.252
314.822
314.829
315.832
365.509
312.379
315.75
314.789
357.349
365.509
333.851
311.229
333.851
309.666
309.673
316.297
311.098
314.068
314.003
314.174
310.975
309.753
364.881
357.094
364.881
364.881
357.094
357.094
364.445
363.346
334.537
360.657
310.084
364.445
360.657
360.657
315.877
311.861
314.765
316.155
312.117
366.287
314.429
314.756
314.926
312.419
358.792
355.87
314.78
314.758
312.42
357.515
361.633
333.043
365.82
309.729
358.792
365.82
365.82
316.096
312.422
365.245
314.779
314.616
314.664
365.386
312.389
364.892
334.192
357.515
334.192
365.386
357.515
365.386
309.308
322.055
323.021
323.445
335.391
359.105
335.391
359.105
359.105
309.933
363.346
360.433
334.272
360.433
310.042
360.433
324.373
324.116
310.183
364.3
332.872
364.3
364.3
332.872
310.39
314.279
314.567
316.268
364.859
366.287
333.057
310.669
364.859
333.057
310.397
355.87
362.779
333.273
362.779
310.226
362.779
316.383
358.491
312.521
314.812
361.407
357.848
361.633
334.079
361.633
361.407
334.079
361.407
320.323
329.643
365.245
333.522
309.435
358.491
333.522
311.495
364.892
357.848
364.892
334.409
357.848
334.409
)
;
        refGradient     uniform 0;
        valueFraction   nonuniform List<scalar> 
360
(
0.000130948
0.000125626
8.04274e-05
0.000287323
0.000294676
0.000168969
0.000296507
0.000254512
0.000396161
0.000126132
0.000122977
0.000164977
0.000251433
7.18895e-05
0.0001286
0.000249988
0.000286479
0.000267673
0.000375606
6.57826e-05
0.000246617
0.000121238
0.00011174
0.000296524
8.60911e-05
0.000304792
0.000171804
0.000300856
0.00039373
0.000263377
0.000300907
0.000303498
8.14946e-05
8.05842e-05
0.000169109
0.00016642
0.000281604
0.000381771
0.000262155
0.000394175
0.000389361
8.31386e-05
0.000164906
0.000120356
0.000120212
0.000169758
0.000253977
6.77595e-05
0.000121244
0.000257096
0.000167465
0.000168553
0.000251245
0.000248804
7.02923e-05
0.000128591
0.000262233
6.73382e-05
0.000166819
0.000248765
6.5912e-05
0.00029286
0.000258524
0.000404622
6.79532e-05
0.000264331
0.000123298
0.000119255
0.000299627
0.000390877
0.00026293
0.00037693
0.000382207
7.29953e-05
0.000254839
0.00012928
6.72997e-05
0.000120679
0.000381394
0.000396202
0.000118363
0.00011613
0.000114064
6.77895e-05
8.17477e-05
0.000165734
0.000166661
0.000252392
7.61868e-05
6.43283e-05
8.09039e-05
0.000251981
0.000166346
8.2644e-05
0.000251565
0.000168246
0.00016725
0.000167507
8.1684e-05
6.54743e-05
6.63928e-05
6.55092e-05
0.000168412
0.000165526
0.000251791
7.41303e-05
6.43896e-05
0.000251608
7.99306e-05
0.000165786
0.000165817
0.0001692
8.27366e-05
6.62514e-05
6.46124e-05
6.58607e-05
0.000114641
0.000114779
0.000119238
0.000129296
0.00012152
0.000251092
0.000395554
0.000264543
0.000399191
0.00025588
0.0003934
0.000292908
0.000256086
0.000384836
0.000288466
0.000117661
0.000111271
0.00011397
6.29148e-05
0.000260931
0.000392866
0.00012155
0.000122105
0.000397026
0.000263972
0.000127419
0.000134293
0.000392139
0.000269382
0.000310408
6.92417e-05
6.44366e-05
0.000271977
0.000376891
0.000298743
0.000280034
0.00038994
0.000298711
0.000308411
0.000284085
0.000132887
0.000396094
0.000255854
7.13319e-05
0.000384978
0.00028809
0.000109941
0.000115828
0.000114587
0.000120883
0.000126361
0.000394113
0.0002595
0.0003046
7.30331e-05
0.000379122
0.000129997
0.000398655
0.000255204
7.13375e-05
0.000302597
0.000110917
0.000111946
6.54057e-05
0.000171437
0.000171369
0.000253398
8.45001e-05
0.000253781
0.000166983
6.47342e-05
6.28591e-05
0.000396566
0.000251972
0.000391911
0.000261289
0.000124633
0.000116556
0.00039374
0.000246081
0.000284447
0.000115211
0.000133681
6.72533e-05
0.000168424
0.000168271
0.000251412
0.000164616
0.000165464
0.000250422
8.58319e-05
0.00025128
0.000170376
8.34692e-05
0.000282833
0.000251002
0.000169356
6.74927e-05
0.000385133
0.000249674
0.000292121
0.0001217
0.000113096
6.53274e-05
0.000167114
0.000169924
0.000251947
0.00028645
8.01141e-05
0.000249556
0.000162984
0.000247906
0.000262444
0.000119131
6.69141e-05
0.000132195
6.77413e-05
6.37657e-05
0.00025476
8.50182e-05
0.00017127
0.000169289
0.000167272
8.39495e-05
6.41257e-05
0.00026048
0.000244076
0.000409752
0.000304997
0.000382276
0.000274664
0.00029439
0.000301414
0.000133977
0.000258575
6.96654e-05
0.00039349
0.000382611
0.000290702
0.000253549
8.07896e-05
0.000164978
0.000250634
8.15132e-05
0.00029865
0.000165692
0.000166876
0.000165339
8.10192e-05
0.000296421
0.000277772
0.000168687
0.000164326
8.25792e-05
0.000278319
0.000306355
0.000121495
0.000275007
6.53127e-05
0.000391803
0.000379853
0.000287021
0.000248773
8.17233e-05
0.000287472
0.000165529
0.000165784
0.000166727
0.000289037
8.24891e-05
0.000295311
0.000124259
0.000254613
0.000125296
0.000259458
0.000395398
0.000388167
6.52822e-05
0.00013082
0.000129275
0.000126443
0.000115148
0.000385251
0.000125765
0.000256117
0.000301592
6.43309e-05
0.000389012
0.000388542
0.000127193
0.000276261
6.74162e-05
0.000296174
0.000112764
0.000110779
6.73606e-05
0.000381018
0.00011387
0.000249874
0.000294288
0.000122079
6.655e-05
0.000165593
0.000165537
0.000249791
0.000285825
0.000247913
0.000119861
6.45186e-05
0.000252065
0.000133124
7.45144e-05
0.000365279
0.000392236
0.000115923
0.00024916
6.90787e-05
0.000313356
0.000251706
0.000301576
8.24985e-05
0.000166305
0.000290757
0.000281883
0.000265191
0.000118532
0.000388463
0.000387627
0.000140707
0.000259106
0.000114
0.000115749
0.000260849
0.000129125
6.98142e-05
0.000263816
0.000124336
6.44727e-05
0.000383967
0.000388577
0.000255669
0.000124076
0.000251139
0.000128168
)
;
        value           nonuniform List<scalar> 
360
(
486.64
486.641
486.644
486.621
486.622
486.66
486.622
486.629
486.614
486.638
486.639
486.659
486.662
486.647
486.64
486.629
486.616
486.622
486.61
486.647
486.626
486.64
486.625
486.621
486.642
486.62
486.66
486.621
486.612
486.626
486.62
486.618
486.642
486.641
486.658
486.66
486.618
486.611
486.623
486.609
486.612
486.642
486.661
486.639
486.641
486.659
486.662
486.646
486.639
486.626
486.661
486.66
486.663
486.663
486.644
486.637
486.623
486.646
486.66
486.663
486.647
486.621
486.626
486.612
486.647
486.626
486.64
486.624
486.624
486.618
486.629
486.616
486.615
486.65
486.63
486.643
486.645
486.627
486.614
486.609
486.627
486.626
486.627
486.647
486.646
486.659
486.66
486.661
486.643
486.646
486.643
486.662
486.661
486.641
486.662
486.659
486.659
486.659
486.641
486.648
486.648
486.648
486.66
486.661
486.662
486.646
486.646
486.661
486.639
486.658
486.661
486.659
486.641
486.645
486.649
486.648
486.626
486.626
486.625
486.64
486.642
486.627
486.61
486.627
486.611
486.627
486.611
486.62
486.628
486.613
486.623
486.626
486.626
486.626
486.649
486.628
486.615
486.641
486.641
486.615
486.629
486.639
486.639
486.615
486.628
486.618
486.647
486.646
486.624
486.612
486.616
486.623
486.611
486.618
486.617
486.618
486.638
486.61
486.626
486.646
486.61
486.619
486.626
486.625
486.625
486.638
486.638
486.611
486.627
486.621
486.645
486.609
486.637
486.611
486.627
486.645
486.62
486.625
486.624
486.646
486.66
486.659
486.662
486.643
486.662
486.661
486.647
486.647
486.611
486.627
486.611
486.625
486.639
486.641
486.61
486.628
486.619
486.641
486.639
486.647
486.66
486.66
486.662
486.661
486.661
486.662
486.639
486.662
486.658
486.641
486.619
486.662
486.659
486.645
486.614
486.628
486.622
486.638
486.641
486.646
486.66
486.659
486.662
486.622
486.642
486.663
486.661
486.624
486.625
486.638
486.645
486.637
486.645
486.646
486.662
486.642
486.659
486.659
486.66
486.64
486.648
486.626
486.627
486.613
486.62
486.613
486.624
486.619
486.617
486.637
486.625
486.646
486.61
486.61
486.621
486.663
486.646
486.662
486.663
486.643
486.621
486.66
486.66
486.662
486.643
486.619
486.62
486.659
486.66
486.641
486.619
486.617
486.639
486.625
486.646
486.611
486.615
486.623
486.663
486.643
486.622
486.661
486.661
486.661
486.624
486.645
486.624
486.639
486.625
486.639
486.627
486.61
486.614
486.646
486.626
486.627
486.627
486.64
486.612
486.639
486.625
486.621
486.646
486.611
486.61
486.638
486.622
486.645
486.618
486.625
486.625
486.649
486.618
486.643
486.63
486.624
486.642
486.649
486.661
486.662
486.663
486.62
486.629
486.641
486.648
486.627
486.637
486.644
486.614
486.613
486.641
486.628
486.646
486.616
486.662
486.616
486.64
486.659
486.619
486.619
486.624
486.639
486.61
486.61
486.634
486.623
486.627
486.628
486.627
486.639
486.646
486.624
486.638
486.646
486.614
486.611
486.628
486.64
486.625
486.638
)
;
        Tnbr            T;
        thicknessLayers 0();
        kappaLayers     0();
        kappaMethod     solidThermo;
        kappa           none;
        alphaAni        none;
    }
}


// ************************************************************************* //
