/*--------------------------------*- C++ -*----------------------------------*\
| =========                 |                                                 |
| \\      /  F ield         | OpenFOAM: The Open Source CFD Toolbox           |
|  \\    /   O peration     | Version:  v1912                                 |
|   \\  /    A nd           | Website:  www.openfoam.com                      |
|    \\/     M anipulation  |                                                 |
\*---------------------------------------------------------------------------*/
FoamFile
{
    version     2.0;
    format      ascii;
    class       surfaceScalarField;
    location    "452/oil";
    object      phi;
}
// * * * * * * * * * * * * * * * * * * * * * * * * * * * * * * * * * * * * * //

dimensions      [1 0 -1 0 0 0 0];
oriented        oriented;


internalField   nonuniform List<scalar> 
104676
(
-1.24637e-11
2.86845e-11
-1.58065e-11
2.85478e-10
-2.3428e-10
-6.36465e-11
8.95203e-10
-4.40052e-10
-1.69678e-10
1.72251e-09
-5.37073e-10
-2.90244e-10
2.64584e-09
-5.49191e-10
-3.74137e-10
3.54367e-09
-4.99389e-10
-3.98436e-10
4.30629e-09
-4.05764e-10
-3.56863e-10
4.84203e-09
-2.81761e-10
-2.5397e-10
5.07945e-09
-1.3779e-10
-9.96314e-11
4.9796e-09
1.31627e-11
8.6691e-11
4.5236e-09
1.69174e-10
2.86828e-10
3.74302e-09
2.96462e-10
4.84119e-10
2.67866e-09
4.12132e-10
6.52222e-10
1.40697e-09
4.95915e-10
7.75769e-10
2.52961e-11
5.40184e-10
8.41485e-10
-1.36065e-09
5.42565e-10
8.43382e-10
-2.6357e-09
4.9632e-10
7.78731e-10
-3.70416e-09
4.11711e-10
6.56756e-10
-4.49213e-09
2.98144e-10
4.89821e-10
-4.95357e-09
1.65465e-10
2.95984e-10
-5.06547e-09
1.42363e-11
9.76613e-11
-4.8331e-09
-1.40722e-10
-9.16402e-11
-4.30151e-09
-2.8414e-10
-2.47452e-10
-3.54196e-09
-4.0798e-10
-3.51566e-10
-2.64665e-09
-5.01185e-10
-3.94128e-10
-1.72509e-09
-5.51935e-10
-3.69617e-10
-8.98298e-10
-5.41202e-10
-2.85589e-10
-2.88223e-10
-4.44776e-10
-1.65299e-10
1.05927e-11
-2.3852e-10
-6.02934e-11
2.42951e-11
-1.36997e-11
2.92045e-10
-5.55383e-10
2.92039e-10
1.12805e-09
-1.67046e-09
6.00193e-10
2.45663e-09
-2.51212e-09
7.4348e-10
4.1301e-09
-3.02512e-09
8.14581e-10
5.94722e-09
-3.27121e-09
9.04901e-10
7.69124e-09
-3.31078e-09
1.06737e-09
9.15737e-09
-3.1956e-09
1.3237e-09
1.01684e-08
-2.9665e-09
1.67373e-09
1.05862e-08
-2.65773e-09
2.10218e-09
1.03222e-08
-2.30016e-09
2.57726e-09
9.33541e-09
-1.92395e-09
3.07993e-09
7.68022e-09
-1.5945e-09
3.54615e-09
5.48039e-09
-1.30476e-09
3.91672e-09
2.87531e-09
-1.09516e-09
4.19614e-09
5.10594e-11
-9.85547e-10
4.34998e-09
-2.78404e-09
-9.86247e-10
4.36392e-09
-5.39591e-09
-1.10033e-09
4.20852e-09
-7.59735e-09
-1.31365e-09
3.92681e-09
-9.2383e-09
-1.60403e-09
3.54314e-09
-1.02274e-08
-1.93981e-09
3.09436e-09
-1.05063e-08
-2.31088e-09
2.60406e-09
-1.01019e-08
-2.66586e-09
2.12073e-09
-9.10733e-09
-2.97157e-09
1.69286e-09
-7.65895e-09
-3.19967e-09
1.34332e-09
-5.92951e-09
-3.31586e-09
1.08524e-09
-4.12538e-09
-3.27795e-09
9.2189e-10
-2.46005e-09
-3.03629e-09
8.29762e-10
-1.13231e-09
-2.52677e-09
7.54257e-10
-2.93477e-10
-1.68237e-09
6.05021e-10
-5.61604e-10
2.92424e-10
6.15113e-10
-1.79149e-09
6.20998e-10
1.95568e-09
-4.33997e-09
1.32895e-09
3.83636e-09
-6.16237e-09
1.76958e-09
6.07225e-09
-7.35201e-09
2.09099e-09
8.43189e-09
-8.03594e-09
2.40511e-09
1.06604e-08
-8.31952e-09
2.78026e-09
1.25087e-08
-8.29346e-09
3.24958e-09
1.3756e-08
-8.03263e-09
3.81875e-09
1.42303e-08
-7.60515e-09
4.47317e-09
1.38213e-08
-7.06823e-09
5.17711e-09
1.2475e-08
-6.48399e-09
5.90633e-09
1.02485e-08
-5.93165e-09
6.56368e-09
7.30287e-09
-5.44733e-09
7.08815e-09
3.82824e-09
-5.09377e-09
7.47323e-09
6.56001e-11
-4.91153e-09
7.68862e-09
-3.71487e-09
-4.92026e-09
7.71449e-09
-7.19989e-09
-5.10595e-09
7.49065e-09
-1.01453e-08
-5.46154e-09
7.09328e-09
-1.23581e-08
-5.94233e-09
6.55113e-09
-1.37211e-08
-6.49949e-09
5.92266e-09
-1.41519e-08
-7.0824e-09
5.20238e-09
-1.36936e-08
-7.61529e-09
4.49107e-09
-1.2463e-08
-8.04055e-09
3.8384e-09
-1.06324e-08
-8.2994e-09
3.2691e-09
-8.42011e-09
-8.32689e-09
2.79879e-09
-6.0715e-09
-8.04813e-09
2.42158e-09
-3.84278e-09
-7.36909e-09
2.10408e-09
-1.96332e-09
-6.18307e-09
1.77683e-09
-6.18769e-10
-4.35608e-09
1.32916e-09
-1.80017e-09
6.19804e-10
8.82419e-10
-3.56708e-09
8.93163e-10
2.64764e-09
-8.03233e-09
1.92714e-09
4.97603e-09
-1.10974e-08
2.60665e-09
7.64031e-09
-1.31467e-08
3.13044e-09
1.03858e-08
-1.44139e-08
3.63243e-09
1.29382e-08
-1.506e-08
4.18809e-09
1.50279e-08
-1.52191e-08
4.83594e-09
1.64136e-08
-1.50021e-08
5.58377e-09
1.68997e-08
-1.45099e-08
6.41872e-09
1.63591e-08
-1.38349e-08
7.30719e-09
1.47288e-08
-1.30704e-08
8.21683e-09
1.20854e-08
-1.23079e-08
9.0197e-09
8.60452e-09
-1.16439e-08
9.67736e-09
4.50732e-09
-1.11322e-08
1.01356e-08
7.40757e-11
-1.08715e-08
1.03932e-08
-4.38281e-09
-1.089e-08
1.04266e-08
-8.49372e-09
-1.11453e-08
1.01503e-08
-1.19763e-08
-1.16436e-08
9.66456e-09
-1.46073e-08
-1.23111e-08
8.99981e-09
-1.62511e-08
-1.30766e-08
8.221e-09
-1.68114e-08
-1.38413e-08
7.31927e-09
-1.63431e-08
-1.45147e-08
6.43107e-09
-1.49768e-08
-1.50062e-08
5.59938e-09
-1.29048e-08
-1.52226e-08
4.85126e-09
-1.03697e-08
-1.50662e-08
4.20418e-09
-7.63884e-09
-1.4426e-08
3.64706e-09
-4.98148e-09
-1.31667e-08
3.14026e-09
-2.65519e-09
-1.11168e-08
2.60746e-09
-8.88953e-10
-8.03887e-09
1.91655e-09
-3.579e-09
8.89871e-10
1.08407e-09
-5.74524e-09
1.09409e-09
3.17709e-09
-1.24898e-08
2.36449e-09
5.85629e-09
-1.6999e-08
3.2224e-09
8.85121e-09
-2.00375e-08
3.89581e-09
1.18859e-08
-2.19874e-08
4.53879e-09
1.46726e-08
-2.30827e-08
5.23602e-09
1.69308e-08
-2.35053e-08
6.02809e-09
1.84061e-08
-2.34034e-08
6.92601e-09
1.88938e-08
-2.29107e-08
7.91297e-09
1.82544e-08
-2.21523e-08
8.95689e-09
1.64201e-08
-2.12572e-08
1.00211e-08
1.34705e-08
-2.03375e-08
1.09792e-08
9.58292e-09
-1.95117e-08
1.17553e-08
5.01675e-09
-1.88411e-08
1.22751e-08
7.96922e-11
-1.8502e-08
1.25676e-08
-4.88508e-09
-1.85272e-08
1.2602e-08
-9.46084e-09
-1.88576e-08
1.2288e-08
-1.33428e-08
-1.9488e-08
1.17264e-08
-1.62901e-08
-2.03313e-08
1.09675e-08
-1.81397e-08
-2.12565e-08
1.00295e-08
-1.87994e-08
-2.21528e-08
8.97115e-09
-1.83312e-08
-2.29111e-08
7.92816e-09
-1.68745e-08
-2.34048e-08
6.94191e-09
-1.46333e-08
-2.35077e-08
6.04388e-09
-1.18633e-08
-2.30873e-08
5.25104e-09
-8.84407e-09
-2.19967e-08
4.55144e-09
-5.85976e-09
-2.00537e-08
3.9027e-09
-3.18256e-09
-1.70131e-08
3.2191e-09
-1.08974e-09
-1.24807e-08
2.34903e-09
-5.75991e-09
1.09118e-09
1.21955e-09
-8.19619e-09
1.2314e-09
3.54532e-09
-1.74721e-08
2.65648e-09
6.47951e-09
-2.35704e-08
3.63716e-09
9.71428e-09
-2.76897e-08
4.41745e-09
1.29575e-08
-3.03937e-08
5.16314e-09
1.59125e-08
-3.20068e-08
5.96911e-09
1.82925e-08
-3.27635e-08
6.8782e-09
1.98359e-08
-3.28507e-08
7.90389e-09
2.03308e-08
-3.24329e-08
9.02744e-09
1.96321e-08
-3.16646e-08
1.02109e-08
1.7669e-08
-3.0703e-08
1.1409e-08
1.44956e-08
-2.97028e-08
1.25387e-08
1.03075e-08
-2.87611e-08
1.34375e-08
5.39297e-09
-2.79431e-08
1.40165e-08
7.96647e-11
-2.75159e-08
1.43272e-08
-5.26375e-09
-2.75432e-08
1.43594e-08
-1.0178e-08
-2.79808e-08
1.40375e-08
-1.43519e-08
-2.87149e-08
1.34009e-08
-1.75291e-08
-2.96885e-08
1.25344e-08
-1.95107e-08
-3.06988e-08
1.14239e-08
-2.02321e-08
-3.1661e-08
1.02296e-08
-1.97582e-08
-3.24311e-08
9.04615e-09
-1.82337e-08
-3.28514e-08
7.922e-09
-1.5871e-08
-3.27655e-08
6.89515e-09
-1.29309e-08
-3.20107e-08
5.98339e-09
-9.70199e-09
-3.04004e-08
5.1748e-09
-6.47888e-09
-2.76992e-08
4.42239e-09
-3.55103e-09
-2.35715e-08
3.63058e-09
-1.22584e-09
-1.74463e-08
2.64036e-09
-8.21559e-09
1.22983e-09
1.28774e-09
-1.07997e-08
1.31581e-09
3.75669e-09
-2.2787e-08
2.84593e-09
6.85162e-09
-3.05564e-08
3.89113e-09
1.02351e-08
-3.58036e-08
4.73046e-09
1.36062e-08
-3.93106e-08
5.5457e-09
1.66653e-08
-4.14986e-08
6.43267e-09
1.91245e-08
-4.26588e-08
7.43617e-09
2.07173e-08
-4.30159e-08
8.57236e-09
2.12282e-08
-4.27632e-08
9.81938e-09
2.05045e-08
-4.20765e-08
1.11356e-08
1.84733e-08
-4.11403e-08
1.24685e-08
1.51531e-08
-4.01349e-08
1.37523e-08
1.07798e-08
-3.91681e-08
1.47803e-08
5.6393e-09
-3.82163e-08
1.54137e-08
8.67504e-11
-3.77087e-08
1.57453e-08
-5.49114e-09
-3.77503e-08
1.57851e-08
-1.06484e-08
-3.82872e-08
1.54637e-08
-1.50058e-08
-3.91124e-08
1.47549e-08
-1.83295e-08
-4.01209e-08
1.37561e-08
-2.03805e-08
-4.11395e-08
1.24918e-08
-2.11269e-08
-4.20763e-08
1.11617e-08
-2.06378e-08
-4.27636e-08
9.84341e-09
-1.90642e-08
-4.30187e-08
8.59369e-09
-1.66225e-08
-4.26635e-08
7.45633e-09
-1.35774e-08
-4.15038e-08
6.44803e-09
-1.02198e-08
-3.93152e-08
5.55718e-09
-6.84894e-09
-3.58031e-08
4.73298e-09
-3.76616e-09
-3.05306e-08
3.87625e-09
-1.30338e-09
-2.27244e-08
2.81539e-09
-1.08312e-08
1.31226e-09
1.31327e-09
-1.34567e-08
1.34369e-09
3.82392e-09
-2.82159e-08
2.91834e-09
6.97192e-09
-3.76987e-08
3.99431e-09
1.04061e-08
-4.40966e-08
4.85875e-09
1.38157e-08
-4.84281e-08
5.708e-09
1.69055e-08
-5.12377e-08
6.64928e-09
1.93923e-08
-5.28704e-08
7.72473e-09
2.10114e-08
-5.35849e-08
8.94997e-09
2.15425e-08
-5.35981e-08
1.03037e-08
2.08303e-08
-5.31047e-08
1.17405e-08
1.87889e-08
-5.23004e-08
1.32015e-08
1.5418e-08
-5.13896e-08
1.46256e-08
1.09622e-08
-5.05109e-08
1.57985e-08
5.72643e-09
-4.9449e-08
1.64685e-08
8.62609e-11
-4.89063e-08
1.68378e-08
-5.58717e-09
-4.89573e-08
1.68804e-08
-1.08601e-08
-4.95218e-08
1.65076e-08
-1.52808e-08
-5.04515e-08
1.57599e-08
-1.86467e-08
-5.13786e-08
1.46237e-08
-2.07064e-08
-5.23037e-08
1.3224e-08
-2.14421e-08
-5.31075e-08
1.17669e-08
-2.09323e-08
-5.36019e-08
1.03285e-08
-1.93317e-08
-5.3592e-08
8.97275e-09
-1.68614e-08
-5.28802e-08
7.74638e-09
-1.37852e-08
-5.1247e-08
6.66697e-09
-1.03896e-08
-4.84305e-08
5.71982e-09
-6.97291e-09
-4.40726e-08
4.85286e-09
-3.83925e-09
-3.76277e-08
3.96347e-09
-1.32751e-09
-2.81141e-08
2.87791e-09
-1.35014e-08
1.34262e-09
1.29048e-09
-1.60665e-08
1.31934e-09
3.74132e-09
-3.35459e-08
2.87912e-09
6.825e-09
-4.47476e-08
3.96517e-09
1.01997e-08
-5.23021e-08
4.83081e-09
1.35522e-08
-5.74528e-08
5.6722e-09
1.65864e-08
-6.0895e-08
6.62305e-09
1.90352e-08
-6.30539e-08
7.73482e-09
2.06437e-08
-6.42084e-08
9.01503e-09
2.11922e-08
-6.45869e-08
1.04403e-08
2.05217e-08
-6.43984e-08
1.19642e-08
1.85511e-08
-6.38428e-08
1.35129e-08
1.52654e-08
-6.31172e-08
1.50133e-08
1.08357e-08
-6.23871e-08
1.63058e-08
5.65292e-09
-6.12923e-08
1.70261e-08
8.16788e-11
-6.07959e-08
1.74609e-08
-5.52985e-09
-6.0841e-08
1.74953e-08
-1.07641e-08
-6.13196e-08
1.70321e-08
-1.51529e-08
-6.22965e-08
1.62338e-08
-1.84158e-08
-6.31066e-08
1.49909e-08
-2.04008e-08
-6.38495e-08
1.35307e-08
-2.10926e-08
-6.44064e-08
1.19908e-08
-2.0565e-08
-6.45954e-08
1.0466e-08
-1.8975e-08
-6.42206e-08
9.03858e-09
-1.6542e-08
-6.30701e-08
7.7569e-09
-1.35228e-08
-6.09043e-08
6.63812e-09
-1.01939e-08
-5.74245e-08
5.6651e-09
-6.84296e-09
-5.22098e-08
4.7862e-09
-3.7676e-09
-4.4602e-08
3.89896e-09
-1.29927e-09
-3.34151e-08
2.83272e-09
-1.61207e-08
1.32004e-09
1.22426e-09
-1.85279e-08
1.2371e-09
3.53757e-09
-3.85623e-08
2.70311e-09
6.41856e-09
-5.13891e-08
3.76056e-09
9.59398e-09
-6.00994e-08
4.62186e-09
1.27746e-08
-6.60726e-08
5.4393e-09
1.56557e-08
-7.01238e-08
6.34777e-09
1.79863e-08
-7.2827e-08
7.4425e-09
1.95319e-08
-7.44802e-08
8.7262e-09
2.00861e-08
-7.53093e-08
1.01682e-08
1.94867e-08
-7.55205e-08
1.17215e-08
1.76563e-08
-7.53125e-08
1.33002e-08
1.458e-08
-7.48633e-08
1.48224e-08
1.03167e-08
-7.43013e-08
1.61776e-08
5.37885e-09
-7.33142e-08
1.69597e-08
7.56844e-11
-7.29132e-08
1.74204e-08
-5.25847e-09
-7.29557e-08
1.74489e-08
-1.02303e-08
-7.32876e-08
1.69398e-08
-1.44702e-08
-7.41194e-08
1.60629e-08
-1.75301e-08
-7.48381e-08
1.47914e-08
-1.937e-08
-7.53245e-08
1.3315e-08
-1.99901e-08
-7.55333e-08
1.17469e-08
-1.9457e-08
-7.53217e-08
1.01933e-08
-1.79277e-08
-7.44989e-08
8.74902e-09
-1.56099e-08
-7.28494e-08
7.46151e-09
-1.27519e-08
-7.01089e-08
6.34652e-09
-9.60665e-09
-6.59558e-08
5.38603e-09
-6.44018e-09
-5.99043e-08
4.52811e-09
-3.54068e-09
-5.11769e-08
3.67542e-09
-1.21992e-09
-3.84008e-08
2.66493e-09
-1.85839e-08
1.24335e-09
1.10472e-09
-2.07305e-08
1.09792e-09
3.19935e-09
-4.30246e-08
2.36769e-09
5.78095e-09
-5.72861e-08
3.31538e-09
8.60166e-09
-6.70779e-08
4.15785e-09
1.14621e-08
-7.38804e-08
4.94731e-09
1.40703e-08
-7.85193e-08
5.7873e-09
1.61916e-08
-8.17567e-08
6.80839e-09
1.76152e-08
-8.39364e-08
8.03264e-09
1.81504e-08
-8.52608e-08
9.41625e-09
1.76495e-08
-8.59221e-08
1.09026e-08
1.60557e-08
-8.6096e-08
1.23774e-08
1.33276e-08
-8.5911e-08
1.37758e-08
9.40012e-09
-8.5475e-08
1.51011e-08
4.89172e-09
-8.48271e-08
1.60213e-08
6.84146e-11
-8.4592e-08
1.65021e-08
-4.77383e-09
-8.46347e-08
1.65212e-08
-9.25849e-09
-8.48055e-08
1.60026e-08
-1.31142e-08
-8.53846e-08
1.5121e-08
-1.58805e-08
-8.60191e-08
1.39473e-08
-1.75296e-08
-8.61442e-08
1.24689e-08
-1.80566e-08
-8.59414e-08
1.09352e-08
-1.75442e-08
-8.52699e-08
9.43578e-09
-1.61342e-08
-8.39574e-08
8.04857e-09
-1.40208e-08
-8.178e-08
6.81725e-09
-1.14373e-08
-7.84505e-08
5.75809e-09
-8.60132e-09
-7.3641e-08
4.84918e-09
-5.74427e-09
-6.68023e-08
4.04088e-09
-3.14251e-09
-5.70392e-08
3.26054e-09
-1.07233e-09
-4.28296e-08
2.35863e-09
-2.07618e-08
1.1056e-09
9.3073e-10
-2.25673e-08
9.06047e-10
2.71522e-09
-4.67121e-08
1.90295e-09
4.89636e-09
-6.20854e-08
2.61816e-09
7.26183e-09
-7.278e-08
3.33658e-09
9.61797e-09
-8.03324e-08
4.09579e-09
1.18062e-08
-8.55855e-08
4.87801e-09
1.36149e-08
-8.9344e-08
5.7785e-09
1.48582e-08
-9.20492e-08
6.86945e-09
1.53635e-08
-9.38731e-08
8.10713e-09
1.49955e-08
-9.49511e-08
9.39692e-09
1.36646e-08
-9.54257e-08
1.06606e-08
1.12875e-08
-9.55336e-08
1.19997e-08
7.97223e-09
-9.54227e-08
1.3263e-08
4.16106e-09
-9.513e-08
1.4114e-08
5.68333e-11
-9.50343e-08
1.45466e-08
-4.07677e-09
-9.50095e-08
1.45084e-08
-7.89455e-09
-9.49787e-08
1.39911e-08
-1.11621e-08
-9.52873e-08
1.31703e-08
-1.34959e-08
-9.58032e-08
1.21179e-08
-1.48565e-08
-9.55206e-08
1.0737e-08
-1.52586e-08
-9.49351e-08
9.39581e-09
-1.47866e-08
-9.38357e-08
8.09381e-09
-1.3559e-08
-9.20513e-08
6.86635e-09
-1.17389e-08
-8.93667e-08
5.76668e-09
-9.55136e-09
-8.54725e-08
4.83445e-09
-7.17789e-09
-8.00735e-08
4.05911e-09
-4.81929e-09
-7.25646e-08
3.40369e-09
-2.65383e-09
-6.19724e-08
2.76773e-09
-9.15422e-10
-4.65739e-08
2.00582e-09
-2.26134e-08
9.36125e-10
7.13961e-10
-2.39642e-08
6.82912e-10
2.05657e-09
-4.95097e-08
1.45499e-09
3.74021e-09
-6.5734e-08
1.96494e-09
5.54339e-09
-7.6988e-08
2.40486e-09
7.2912e-09
-8.50301e-08
2.94998e-09
8.91798e-09
-9.08223e-08
3.60998e-09
1.029e-08
-9.50703e-08
4.35434e-09
1.12821e-08
-9.82413e-08
5.19994e-09
1.17666e-08
-1.00505e-07
6.14754e-09
1.15075e-08
-1.01866e-07
7.17423e-09
1.03673e-08
-1.02601e-07
8.31544e-09
8.45675e-09
-1.03111e-07
9.48765e-09
6.05479e-09
-1.03497e-07
1.04759e-08
3.19773e-09
-1.03428e-07
1.11548e-08
4.94939e-11
-1.03367e-07
1.14805e-08
-3.15122e-09
-1.03213e-07
1.14045e-08
-6.06694e-09
-1.03049e-07
1.09857e-08
-8.52137e-09
-1.03113e-07
1.02802e-08
-1.03739e-08
-1.03233e-07
9.28255e-09
-1.14011e-08
-1.02553e-07
8.05939e-09
-1.1651e-08
-1.01689e-07
7.00367e-09
-1.12522e-08
-1.00261e-07
6.0269e-09
-1.03131e-08
-9.812e-08
5.12957e-09
-8.94823e-09
-9.51056e-08
4.37401e-09
-7.28537e-09
-9.0858e-08
3.72265e-09
-5.47865e-09
-8.50105e-08
3.13025e-09
-3.67804e-09
-7.69713e-08
2.60618e-09
-2.02476e-09
-6.57281e-08
2.10243e-09
-6.99409e-10
-4.94185e-08
1.5193e-09
-2.40206e-08
7.0777e-10
4.82202e-10
-2.48616e-08
4.15208e-10
1.30045e-09
-5.12008e-08
8.72882e-10
2.35082e-09
-6.80469e-08
1.2626e-09
3.49083e-09
-7.97044e-08
1.5764e-09
4.60929e-09
-8.80861e-08
1.9375e-09
5.65601e-09
-9.42221e-08
2.35315e-09
6.53495e-09
-9.8744e-08
2.79473e-09
7.13159e-09
-1.02075e-07
3.23753e-09
7.45311e-09
-1.04546e-07
3.71976e-09
7.26492e-09
-1.06107e-07
4.42951e-09
6.51701e-09
-1.07155e-07
5.30253e-09
5.35999e-09
-1.08059e-07
6.10524e-09
3.84662e-09
-1.08716e-07
6.73287e-09
2.03853e-09
-1.08789e-07
7.16875e-09
5.98067e-11
-1.08799e-07
7.41062e-09
-1.94896e-09
-1.08594e-07
7.38944e-09
-3.79045e-09
-1.08351e-07
7.1437e-09
-5.31021e-09
-1.08289e-07
6.69539e-09
-6.4974e-09
-1.0813e-07
6.08394e-09
-7.22747e-09
-1.071e-07
5.27715e-09
-7.49942e-09
-1.05842e-07
4.42536e-09
-7.28682e-09
-1.04106e-07
3.63166e-09
-6.64309e-09
-1.01786e-07
3.0226e-09
-5.69213e-09
-9.86622e-08
2.60563e-09
-4.59453e-09
-9.42309e-08
2.27525e-09
-3.44159e-09
-8.81165e-08
1.95312e-09
-2.30404e-09
-7.97424e-08
1.63349e-09
-1.2646e-09
-6.80844e-08
1.31687e-09
-4.37234e-10
-5.11954e-08
9.49507e-10
-2.48998e-08
4.41999e-10
1.76042e-10
-2.51785e-08
1.40932e-10
4.51585e-10
-5.17781e-08
3.01759e-10
8.20977e-10
-6.88669e-08
4.50579e-10
1.22668e-09
-8.06729e-08
5.62774e-10
1.63639e-09
-8.91709e-08
6.75085e-10
2.05151e-09
-9.54059e-08
7.68682e-10
2.43757e-09
-9.99803e-08
8.5028e-10
2.66797e-09
-1.03289e-07
9.82736e-10
2.70024e-09
-1.05769e-07
1.19016e-09
2.55459e-09
-1.07448e-07
1.48595e-09
2.32311e-09
-1.0872e-07
1.79587e-09
1.98373e-09
-1.09777e-07
2.05803e-09
1.34521e-09
-1.10313e-07
2.23573e-09
6.679e-10
-1.10473e-07
2.36178e-09
3.4569e-11
-1.10654e-07
2.48835e-09
-6.70315e-10
-1.10485e-07
2.59578e-09
-1.32981e-09
-1.10282e-07
2.59065e-09
-1.85109e-09
-1.10188e-07
2.42053e-09
-2.26168e-09
-1.09914e-07
2.19499e-09
-2.5156e-09
-1.08764e-07
1.91847e-09
-2.61881e-09
-1.07365e-07
1.62632e-09
-2.55432e-09
-1.05514e-07
1.34415e-09
-2.33026e-09
-1.03124e-07
1.11387e-09
-1.99404e-09
-9.99372e-08
9.38807e-10
-1.60328e-09
-9.54149e-08
7.93334e-10
-1.19458e-09
-8.91879e-08
6.62629e-10
-7.93096e-10
-8.06919e-08
5.48048e-10
-4.30323e-10
-6.88882e-08
4.41e-10
-1.4793e-10
-5.17926e-08
3.14826e-10
-2.51994e-08
1.51617e-10
-1.24438e-10
-2.49172e-08
-1.36868e-10
-3.86788e-10
-5.12396e-08
-2.76208e-10
-7.09523e-10
-6.81675e-08
-3.76643e-10
-1.0627e-09
-7.98506e-08
-4.69149e-10
-1.42695e-09
-8.82515e-08
-5.55183e-10
-1.79303e-09
-9.44233e-08
-6.1657e-10
-2.13471e-09
-9.89758e-08
-6.62762e-10
-2.35176e-09
-1.02318e-07
-7.53466e-10
-2.35653e-09
-1.048e-07
-9.6385e-10
-2.1984e-09
-1.06327e-07
-1.27866e-09
-1.99323e-09
-1.07347e-07
-1.57805e-09
-1.81534e-09
-1.08177e-07
-1.7787e-09
-1.53367e-09
-1.08686e-07
-1.90891e-09
-9.46615e-10
-1.09015e-07
-2.04496e-09
-9.10392e-11
-1.09257e-07
-2.25194e-09
6.11933e-10
-1.08856e-07
-2.33201e-09
1.21717e-09
-1.08649e-07
-2.23804e-09
1.76116e-09
-1.08641e-07
-2.09031e-09
2.06098e-09
-1.08314e-07
-1.90021e-09
2.25349e-09
-1.0728e-07
-1.67684e-09
2.34914e-09
-1.06034e-07
-1.42754e-09
2.2972e-09
-1.0429e-07
-1.17192e-09
2.11736e-09
-1.01973e-07
-9.7151e-10
1.81548e-09
-9.88084e-08
-8.26928e-10
1.46554e-09
-9.4349e-08
-7.16042e-10
1.1025e-09
-8.82138e-08
-6.1097e-10
7.39946e-10
-7.98231e-08
-5.0624e-10
4.11335e-10
-6.81584e-08
-4.01154e-10
1.48213e-10
-5.12509e-08
-2.78629e-10
-2.49214e-08
-1.29728e-10
-4.21791e-10
-2.40696e-08
-4.25825e-10
-1.22565e-09
-4.95246e-08
-9.11157e-10
-2.22912e-09
-6.58987e-08
-1.26534e-09
-3.32807e-09
-7.71803e-08
-1.57139e-09
-4.43226e-09
-8.52565e-08
-1.89079e-09
-5.45576e-09
-9.1152e-08
-2.24772e-09
-6.30607e-09
-9.54779e-08
-2.64752e-09
-6.90812e-09
-9.86178e-08
-3.0981e-09
-7.1865e-09
-1.00918e-07
-3.604e-09
-6.97169e-09
-1.02283e-07
-4.25901e-09
-6.25564e-09
-1.02985e-07
-5.07851e-09
-5.22421e-09
-1.03391e-07
-5.81663e-09
-3.82109e-09
-1.03705e-07
-6.38398e-09
-2.05656e-09
-1.0395e-07
-6.82947e-09
-3.75303e-11
-1.04158e-07
-7.11847e-09
1.91286e-09
-1.03715e-07
-7.09169e-09
3.74676e-09
-1.03636e-07
-6.84678e-09
5.35146e-09
-1.03842e-07
-6.40463e-09
6.31442e-09
-1.03482e-07
-5.79445e-09
6.94034e-09
-1.02807e-07
-5.09916e-09
7.21765e-09
-1.02011e-07
-4.29965e-09
7.0104e-09
-1.00618e-07
-3.46519e-09
6.41086e-09
-9.84577e-08
-2.91575e-09
5.49372e-09
-9.53413e-08
-2.55001e-09
4.44036e-09
-9.10743e-08
-2.22134e-09
3.34954e-09
-8.52304e-08
-1.89266e-09
2.25484e-09
-7.71694e-08
-1.55898e-09
1.26044e-09
-6.59314e-08
-1.23262e-09
4.57859e-10
-4.9591e-08
-8.57298e-10
-2.40548e-08
-4.08748e-10
-6.90002e-10
-2.26878e-08
-6.91754e-10
-1.9894e-09
-4.67391e-08
-1.48606e-09
-3.61233e-09
-6.22126e-08
-2.06327e-09
-5.38122e-09
-7.28497e-08
-2.56167e-09
-7.14983e-09
-8.0406e-08
-3.08185e-09
-8.76496e-09
-8.58526e-08
-3.68419e-09
-1.00817e-08
-8.97828e-08
-4.37828e-09
-1.10138e-08
-9.25036e-08
-5.18193e-09
-1.14796e-08
-9.43638e-08
-6.088e-09
-1.12499e-08
-9.54796e-08
-7.03312e-09
-1.01602e-08
-9.59543e-08
-8.11997e-09
-8.35145e-09
-9.59556e-08
-9.24461e-09
-5.98479e-09
-9.58758e-08
-1.01961e-08
-3.16395e-09
-9.58817e-08
-1.08893e-08
-4.14618e-11
-9.60175e-08
-1.1263e-08
3.06533e-09
-9.56433e-08
-1.11783e-08
5.95908e-09
-9.57085e-08
-1.08216e-08
8.46488e-09
-9.61993e-08
-1.01481e-08
1.01691e-08
-9.60153e-08
-9.17116e-09
1.11994e-08
-9.57425e-08
-8.09446e-09
1.15114e-08
-9.53121e-08
-7.01104e-09
1.11169e-08
-9.4299e-08
-5.92449e-09
1.01418e-08
-9.24959e-08
-4.98669e-09
8.75917e-09
-8.97522e-08
-4.20647e-09
7.1218e-09
-8.58983e-08
-3.5386e-09
5.38691e-09
-8.0552e-08
-2.9435e-09
3.65317e-09
-7.30133e-08
-2.42235e-09
2.05146e-09
-6.24042e-08
-1.92551e-09
7.32821e-10
-4.69184e-08
-1.35393e-09
-2.26687e-08
-6.53265e-10
-9.2096e-10
-2.08522e-08
-9.14674e-10
-2.63101e-09
-4.30603e-08
-1.96874e-09
-4.77091e-09
-5.73255e-08
-2.74715e-09
-7.10676e-09
-6.71218e-08
-3.39209e-09
-9.45298e-09
-7.40098e-08
-4.04997e-09
-1.16263e-08
-7.88616e-08
-4.81765e-09
-1.34353e-08
-8.2233e-08
-5.74074e-09
-1.46571e-08
-8.44543e-08
-6.82746e-09
-1.51553e-08
-8.58244e-08
-8.0411e-09
-1.47995e-08
-8.65376e-08
-9.29781e-09
-1.34666e-08
-8.67403e-08
-1.05469e-08
-1.10829e-08
-8.65151e-08
-1.18244e-08
-7.87202e-09
-8.60542e-08
-1.30325e-08
-4.12466e-09
-8.57121e-08
-1.39169e-08
-3.36833e-11
-8.57227e-08
-1.43857e-08
4.0478e-09
-8.54573e-08
-1.42675e-08
7.8325e-09
-8.5669e-08
-1.38243e-08
1.10935e-08
-8.64182e-08
-1.30421e-08
1.34357e-08
-8.65975e-08
-1.17599e-08
1.4784e-08
-8.66957e-08
-1.0395e-08
1.51758e-08
-8.65189e-08
-9.18496e-09
1.47017e-08
-8.58442e-08
-7.98075e-09
1.34793e-08
-8.44892e-08
-6.78425e-09
1.16913e-08
-8.22611e-08
-5.70315e-09
9.52404e-09
-7.89363e-08
-4.79477e-09
7.19299e-09
-7.42154e-08
-4.00547e-09
4.88408e-09
-6.74744e-08
-3.23006e-09
2.73113e-09
-5.77522e-08
-2.49897e-09
9.64936e-10
-4.33883e-08
-1.76389e-09
-2.08396e-08
-8.64234e-10
-1.10032e-09
-1.86625e-08
-1.08935e-09
-3.13427e-09
-3.86936e-08
-2.33276e-09
-5.70717e-09
-5.14919e-08
-3.26081e-09
-8.54622e-09
-6.02426e-08
-4.04013e-09
-1.13791e-08
-6.63431e-08
-4.83381e-09
-1.39633e-08
-7.05466e-08
-5.73078e-09
-1.60776e-08
-7.33343e-08
-6.78434e-09
-1.74914e-08
-7.50347e-08
-8.00582e-09
-1.80192e-08
-7.59118e-08
-9.38469e-09
-1.75208e-08
-7.61738e-08
-1.08621e-08
-1.59266e-08
-7.60038e-08
-1.23307e-08
-1.31898e-08
-7.55647e-08
-1.36872e-08
-9.35306e-09
-7.49535e-08
-1.49374e-08
-4.85545e-09
-7.42742e-08
-1.59356e-08
-2.45833e-11
-7.40476e-08
-1.65061e-08
4.78928e-09
-7.3858e-08
-1.64132e-08
9.2735e-09
-7.423e-08
-1.59232e-08
1.31061e-08
-7.51684e-08
-1.50824e-08
1.58787e-08
-7.5619e-08
-1.37512e-08
1.75122e-08
-7.60191e-08
-1.23101e-08
1.8028e-08
-7.61916e-08
-1.08432e-08
1.75091e-08
-7.59414e-08
-9.38383e-09
1.61011e-08
-7.50725e-08
-8.00877e-09
1.39988e-08
-7.33751e-08
-6.78378e-09
1.14095e-08
-7.06002e-08
-5.7467e-09
8.55792e-09
-6.64602e-08
-4.90365e-09
5.72342e-09
-6.04869e-08
-4.15295e-09
3.16577e-09
-5.18286e-08
-3.366e-09
1.10861e-09
-3.89447e-08
-2.38646e-09
-1.86439e-08
-1.08702e-09
-1.22151e-09
-1.62019e-08
-1.23913e-09
-3.53368e-09
-3.37088e-08
-2.67266e-09
-6.42908e-09
-4.49167e-08
-3.67974e-09
-9.59285e-09
-5.25556e-08
-4.52325e-09
-1.27419e-08
-5.7821e-08
-5.37307e-09
-1.56087e-08
-6.13493e-08
-6.33049e-09
-1.79343e-08
-6.3564e-08
-7.4447e-09
-1.94751e-08
-6.47642e-08
-8.72959e-09
-2.00228e-08
-6.51889e-08
-1.01752e-08
-1.94225e-08
-6.50445e-08
-1.17296e-08
-1.75923e-08
-6.45294e-08
-1.33046e-08
-1.45355e-08
-6.38403e-08
-1.47813e-08
-1.03227e-08
-6.31127e-08
-1.60537e-08
-5.32105e-09
-6.23021e-08
-1.69739e-08
-1.62629e-11
-6.18273e-08
-1.75251e-08
5.29976e-09
-6.17066e-08
-1.74674e-08
1.0286e-08
-6.2218e-08
-1.69983e-08
1.44779e-08
-6.31781e-08
-1.6182e-08
1.75556e-08
-6.38611e-08
-1.48356e-08
1.94046e-08
-6.45481e-08
-1.332e-08
2.00198e-08
-6.50658e-08
-1.1741e-08
1.94818e-08
-6.52163e-08
-1.01871e-08
1.79484e-08
-6.4798e-08
-8.74096e-09
1.56298e-08
-6.36043e-08
-7.45226e-09
1.27654e-08
-6.13957e-08
-6.34004e-09
9.59725e-09
-5.78836e-08
-5.40857e-09
6.40103e-09
-5.26734e-08
-4.61729e-09
3.49939e-09
-4.5109e-08
-3.81795e-09
1.21364e-09
-3.38957e-08
-2.76328e-09
-1.61869e-08
-1.24338e-09
-1.27697e-09
-1.35928e-08
-1.33218e-09
-3.76217e-09
-2.83509e-08
-2.87272e-09
-6.85467e-09
-3.79129e-08
-3.91128e-09
-1.0215e-08
-4.44068e-08
-4.78857e-09
-1.35564e-08
-4.88125e-08
-5.66704e-09
-1.65897e-08
-5.16739e-08
-6.6422e-09
-1.90393e-08
-5.33501e-08
-7.76439e-09
-2.06476e-08
-5.41054e-08
-9.05054e-09
-2.11936e-08
-5.4158e-08
-1.04848e-08
-2.05171e-08
-5.3705e-08
-1.20159e-08
-1.85388e-08
-5.29363e-08
-1.35713e-08
-1.52628e-08
-5.20527e-08
-1.50637e-08
-1.0854e-08
-5.11714e-08
-1.635e-08
-5.58732e-09
-5.03486e-08
-1.72202e-08
-8.50862e-12
-4.97702e-08
-1.7636e-08
5.58763e-09
-4.97206e-08
-1.75822e-08
1.0832e-08
-5.02963e-08
-1.71661e-08
1.52235e-08
-5.12097e-08
-1.63599e-08
1.85033e-08
-5.20687e-08
-1.50721e-08
2.04942e-08
-5.29516e-08
-1.35873e-08
2.11833e-08
-5.37225e-08
-1.20324e-08
2.06483e-08
-5.41817e-08
-1.04996e-08
1.90491e-08
-5.41347e-08
-9.06412e-09
1.66041e-08
-5.33847e-08
-7.77451e-09
1.35735e-08
-5.1714e-08
-6.65113e-09
1.02291e-08
-4.88593e-08
-5.67988e-09
6.84907e-09
-4.44705e-08
-4.82292e-09
3.74785e-09
-3.80294e-08
-3.97838e-09
1.28781e-09
-2.85191e-08
-2.91653e-09
-1.35732e-08
-1.32587e-09
-1.3173e-09
-1.09206e-08
-1.3549e-09
-3.84956e-09
-2.29162e-08
-2.90248e-09
-7.00236e-09
-3.07845e-08
-3.97564e-09
-1.04378e-08
-3.61065e-08
-4.86488e-09
-1.38545e-08
-3.9661e-08
-5.73476e-09
-1.69527e-08
-4.18887e-08
-6.68688e-09
-1.94458e-08
-4.3084e-08
-7.77297e-09
-2.10686e-08
-4.34745e-08
-9.00801e-09
-2.15977e-08
-4.32552e-08
-1.03737e-08
-2.08767e-08
-4.26014e-08
-1.18245e-08
-1.88189e-08
-4.16961e-08
-1.32979e-08
-1.54505e-08
-4.07051e-08
-1.4716e-08
-1.10209e-08
-3.97209e-08
-1.58801e-08
-5.749e-09
-3.89461e-08
-1.66745e-08
-4.53043e-11
-3.84431e-08
-1.70309e-08
5.63148e-09
-3.83894e-08
-1.70081e-08
1.08821e-08
-3.88828e-08
-1.66641e-08
1.53804e-08
-3.97714e-08
-1.59367e-08
1.8783e-08
-4.07216e-08
-1.47496e-08
2.08507e-08
-4.17031e-08
-1.33162e-08
2.1584e-08
-4.26138e-08
-1.1842e-08
2.10645e-08
-4.32727e-08
-1.03895e-08
1.94497e-08
-4.34983e-08
-9.02164e-09
1.69618e-08
-4.31116e-08
-7.78519e-09
1.38663e-08
-4.19201e-08
-6.69833e-09
1.04497e-08
-3.96971e-08
-5.74555e-09
7.00869e-09
-3.61487e-08
-4.88081e-09
3.84092e-09
-3.08458e-08
-4.01579e-09
1.30464e-09
-2.30202e-08
-2.96267e-09
-1.09103e-08
-1.35826e-09
-1.3057e-09
-8.29028e-09
-1.32464e-09
-3.78533e-09
-1.76025e-08
-2.83401e-09
-6.8905e-09
-2.37851e-08
-3.8942e-09
-1.02874e-08
-2.79553e-08
-4.75426e-09
-1.3673e-08
-3.06918e-08
-5.5835e-09
-1.6747e-08
-3.23332e-08
-6.48158e-09
-1.92163e-08
-3.31169e-08
-7.49773e-09
-2.0816e-08
-3.32297e-08
-8.64511e-09
-2.13269e-08
-3.28353e-08
-9.90898e-09
-2.05914e-08
-3.20915e-08
-1.12454e-08
-1.85359e-08
-3.11526e-08
-1.25989e-08
-1.52235e-08
-3.01505e-08
-1.3867e-08
-1.08653e-08
-2.92016e-08
-1.48774e-08
-5.69571e-09
-2.84951e-08
-1.56206e-08
-5.12808e-11
-2.81026e-08
-1.59849e-08
5.55907e-09
-2.80436e-08
-1.59561e-08
1.07348e-08
-2.84463e-08
-1.56123e-08
1.51509e-08
-2.92455e-08
-1.4942e-08
1.84999e-08
-3.01693e-08
-1.39013e-08
2.05635e-08
-3.11556e-08
-1.26111e-08
2.13077e-08
-3.20982e-08
-1.12598e-08
2.08088e-08
-3.28487e-08
-9.92518e-09
1.92168e-08
-3.32461e-08
-8.66019e-09
1.67522e-08
-3.31373e-08
-7.50979e-09
1.36819e-08
-3.23573e-08
-6.49245e-09
1.02982e-08
-3.07193e-08
-5.59411e-09
6.89854e-09
-2.79841e-08
-4.7649e-09
3.78537e-09
-2.38215e-08
-3.91119e-09
1.29092e-09
-1.76571e-08
-2.86861e-09
-8.29236e-09
-1.32706e-09
-1.23282e-09
-5.81734e-09
-1.24012e-09
-3.57657e-09
-1.2602e-08
-2.65679e-09
-6.52986e-09
-1.71806e-08
-3.65125e-09
-9.78273e-09
-2.02544e-08
-4.44805e-09
-1.30436e-08
-2.22237e-08
-5.20725e-09
-1.60166e-08
-2.33373e-08
-6.02298e-09
-1.84097e-08
-2.37785e-08
-6.94535e-09
-1.99624e-08
-2.36939e-08
-7.98313e-09
-2.0458e-08
-2.32176e-08
-9.12216e-09
-1.97451e-08
-2.24759e-08
-1.03284e-08
-1.77529e-08
-2.15896e-08
-1.15551e-08
-1.45837e-08
-2.0667e-08
-1.26526e-08
-1.03998e-08
-1.98427e-08
-1.35429e-08
-5.44558e-09
-1.92346e-08
-1.42148e-08
-4.45958e-11
-1.8922e-08
-1.45816e-08
5.32675e-09
-1.88742e-08
-1.45408e-08
1.02898e-08
-1.92034e-08
-1.4206e-08
1.45173e-08
-1.98693e-08
-1.36037e-08
1.77181e-08
-2.06823e-08
-1.26878e-08
1.97159e-08
-2.15949e-08
-1.15585e-08
2.04377e-08
-2.24798e-08
-1.03402e-08
1.99523e-08
-2.32254e-08
-9.13789e-09
1.84085e-08
-2.37048e-08
-7.99752e-09
1.60204e-08
-2.37919e-08
-6.95734e-09
1.30508e-08
-2.3354e-08
-6.03376e-09
9.78916e-09
-2.22416e-08
-5.21605e-09
6.5355e-09
-2.02738e-08
-4.45661e-09
3.5806e-09
-1.72056e-08
-3.66099e-09
1.23004e-09
-1.26347e-08
-2.67186e-09
-5.82098e-09
-1.24135e-09
-1.09873e-09
-3.61828e-09
-1.10035e-09
-3.21086e-09
-8.12495e-09
-2.36496e-09
-5.91556e-09
-1.12362e-08
-3.2397e-09
-8.93004e-09
-1.33106e-08
-3.9293e-09
-1.19825e-08
-1.45864e-08
-4.58488e-09
-1.47882e-08
-1.52403e-08
-5.29117e-09
-1.70605e-08
-1.54105e-08
-6.09571e-09
-1.85452e-08
-1.52046e-08
-7.00463e-09
-1.90342e-08
-1.47224e-08
-8.00618e-09
-1.83821e-08
-1.40575e-08
-9.07042e-09
-1.65321e-08
-1.32968e-08
-1.01428e-08
-1.35833e-08
-1.25382e-08
-1.10775e-08
-9.6797e-09
-1.1875e-08
-1.18713e-08
-5.06029e-09
-1.13869e-08
-1.24671e-08
-3.78273e-11
-1.11367e-08
-1.28078e-08
4.9603e-09
-1.11086e-08
-1.27638e-08
9.58021e-09
-1.13688e-08
-1.24545e-08
1.351e-08
-1.18833e-08
-1.19157e-08
1.64889e-08
-1.25441e-08
-1.1117e-08
1.8353e-08
-1.33007e-08
-1.01583e-08
1.90138e-08
-1.40598e-08
-9.08078e-09
1.85346e-08
-1.47264e-08
-8.01976e-09
1.70577e-08
-1.52105e-08
-7.01733e-09
1.47898e-08
-1.54184e-08
-6.10558e-09
1.19866e-08
-1.52497e-08
-5.30111e-09
8.93437e-09
-1.45972e-08
-4.59218e-09
5.9212e-09
-1.3325e-08
-3.93561e-09
3.21866e-09
-1.12592e-08
-3.24388e-09
1.10129e-09
-8.14954e-09
-2.36778e-09
-3.62077e-09
-1.09892e-09
-8.98158e-10
-1.82321e-09
-8.9693e-10
-2.68345e-09
-4.40977e-09
-1.92991e-09
-5.03766e-09
-6.2584e-09