/*--------------------------------*- C++ -*----------------------------------*\
| =========                 |                                                 |
| \\      /  F ield         | OpenFOAM: The Open Source CFD Toolbox           |
|  \\    /   O peration     | Version:  v1906                                 |
|   \\  /    A nd           | Web:      www.OpenFOAM.com                      |
|    \\/     M anipulation  |                                                 |
\*---------------------------------------------------------------------------*/
FoamFile
{
    version     2.0;
    format      ascii;
    class       volScalarField;
    location    "86";
    object      alphat;
}
// * * * * * * * * * * * * * * * * * * * * * * * * * * * * * * * * * * * * * //

dimensions      [1 -1 -1 0 0 0 0];


internalField   nonuniform List<scalar> 
78750
(
0.00125912
0.00275781
0.00189587
0.000723062
2.05148e-05
1.49133e-05
3.60712e-05
2.30962e-05
4.08095e-05
3.13812e-05
4.44532e-05
3.94778e-05
5.13263e-05
4.8401e-05
5.57241e-05
5.7883e-05
6.17189e-05
6.52427e-05
6.86109e-05
7.1908e-05
7.49919e-05
7.78535e-05
8.04825e-05
8.28929e-05
8.50851e-05
8.70193e-05
8.86631e-05
8.99971e-05
9.09358e-05
9.13358e-05
9.09427e-05
8.79481e-05
7.01443e-05
2.27544e-05
7.74624e-07
3.77088e-05
8.80424e-05
0.000223122
3.88515e-05
2.02612e-05
3.56268e-05
3.8405e-05
5.5349e-05
6.40648e-05
8.1157e-05
9.24594e-05
0.000107041
0.000117505
0.000128112
0.000136379
0.000143286
0.000149169
0.00015408
0.000158487
0.000162629
0.000166789
0.000171216
0.000176165
0.000181909
0.000188735
0.000196923
0.000206816
0.000219005
0.000234217
0.000249194
0.000241833
0.000166901
5.42667e-05
1.375e-05
1.5237e-06
5.52429e-06
3.2035e-06
3.09236e-05
6.04345e-05
0.000125902
7.04022e-05
6.70308e-05
7.2062e-05
7.70803e-05
8.31532e-05
9.30014e-05
0.000104615
0.000116776
0.000127938
0.000137258
0.000144585
0.000150263
0.000154832
0.000158773
0.000162444
0.000166078
0.000169818
0.000173756
0.000177951
0.000182407
0.000187001
0.000191338
0.000194452
0.000193933
0.000184052
0.000153747
9.33906e-05
3.35767e-05
1.35371e-05
2.64293e-06
7.88449e-07
9.18667e-06
2.9767e-05
0.000105755
0.000107295
6.13334e-05
4.55506e-05
4.16908e-05
4.22055e-05
4.52961e-05
5.10035e-05
6.08216e-05
7.72634e-05
0.000101277
0.000130453
0.000160726
0.000188467
0.000210428
0.000224571
0.000231397
0.000233227
0.000232332
0.000230185
0.000227593
0.000224855
0.000221737
0.000217515
0.000210653
0.000198277
0.00017639
0.000139602
8.19151e-05
2.77224e-05
1.20229e-05
3.38415e-06
1.64663e-06
3.94591e-05
0.000148552
0.000145961
8.39144e-05
6.12635e-05
5.77013e-05
7.17917e-05
0.000125346
0.000188947
0.000166416
0.00013233
0.000119783
0.000126164
0.000144767
0.000170227
0.000199284
0.000230198
0.000259024
0.000268038
0.00026875
0.000269214
0.000269486
0.000269604
0.000269585
0.000256727
0.000236217
0.000210711
0.000179191
0.000140932
9.63518e-05
5.1878e-05
2.33259e-05
1.50693e-05
4.49813e-06
4.77526e-06
2.94278e-05
0.000126063
9.97162e-05
6.18468e-05
5.31706e-05
5.33277e-05
5.09141e-05
4.54813e-05
4.08427e-05
4.02419e-05
5.02069e-05
7.23772e-05
9.27215e-05
0.000112822
0.000136066
0.000163589
0.000199936
0.00024848
0.000267983
0.000271606
0.000274615
0.000277112
0.000279143
0.000280706
0.000281756
0.000282206
0.000259593
0.000212992
0.000160306
0.000101785
4.72363e-05
1.92465e-05
1.44506e-05
5.23389e-06
8.24589e-06
9.02139e-05
3.00097e-05
1.67959e-05
1.89384e-05
5.06146e-05
8.41341e-05
0.000110853
0.000186713
0.000222503
0.000171447
0.000139017
0.000131852
0.000140839
0.000158338
0.000180755
0.000206653
0.000233819
0.000258176
0.000269616
0.000272979
0.000276306
0.000279576
0.000270992
0.000256843
0.000241171
0.000222906
0.000200185
0.000171311
0.000134308
8.87288e-05
4.44759e-05
2.06085e-05
1.85546e-05
6.08625e-06
4.73143e-06
5.80549e-05
9.74816e-05
8.51365e-05
5.87057e-05
4.88188e-05
4.5398e-05
4.39246e-05
4.36994e-05
4.54352e-05
5.03908e-05
6.01928e-05
7.65791e-05
9.67899e-05
0.000109481
0.000114559
0.000122993
0.000138853
0.000162503
0.000192206
0.00021961
0.000233607
0.000232649
0.000222533
0.00020778
0.000191041
0.000173443
0.000154273
0.00013197
0.000104489
7.04841e-05
3.69344e-05
1.90746e-05
2.06449e-05
6.71425e-06
4.62424e-06
3.81635e-05
7.40696e-05
0.000112784
0.000135297
0.000129898
0.00010868
8.75737e-05
7.22601e-05
6.14505e-05
5.31177e-05
4.59361e-05
4.02863e-05
3.88207e-05
4.5825e-05
6.83009e-05
0.000106178
0.00011924
0.000111916
0.000117147
0.000139165
0.000175364
0.000220238
0.000251414
0.000238182
0.000199231
0.000166665
0.000143434
0.000121583
9.5231e-05
6.37671e-05
3.49314e-05
2.07327e-05
2.65751e-05
7.33431e-06
5.13852e-06
3.66225e-05
6.22713e-05
9.84052e-05
0.000128452
0.000141023
0.000139725
0.000127213
0.000108896
9.14554e-05
7.75034e-05
6.64452e-05
5.72872e-05
4.99491e-05
4.48917e-05
4.23302e-05
4.35008e-05
5.2952e-05
7.79747e-05
0.000104228
9.82073e-05
8.94825e-05
9.02332e-05
0.000102073
0.000124918
0.000142888
0.000130931
0.000107383
9.12216e-05
7.50397e-05
5.16323e-05
2.88772e-05
1.89573e-05
2.96053e-05
8.01213e-06
1.88298e-06
1.80918e-05
3.40547e-05
7.37657e-05
0.000130286
0.000156292
0.000153509
0.000139854
0.000123734
0.000108188
9.4228e-05
8.20705e-05
7.15371e-05
6.23973e-05
5.45383e-05
4.78727e-05
4.22849e-05
3.78425e-05
3.55658e-05
3.92656e-05
5.85301e-05
0.000100668
8.55111e-05
5.84668e-05
4.92075e-05
5.07788e-05
5.87496e-05
5.68771e-05
5.10136e-05
4.8925e-05
4.04734e-05
2.63714e-05
2.11218e-05
4.26655e-05
8.60929e-06
1.39679e-06
1.07987e-05
2.80051e-05
6.41374e-05
0.000126531
0.00016757
0.000166764
0.000151146
0.000134862
0.000122409
0.000114437
0.000109984
0.000107204
0.000104012
9.86108e-05
8.97564e-05
7.83561e-05
6.69297e-05
5.61961e-05
4.71154e-05
4.24274e-05
4.43557e-05
5.50459e-05
7.36134e-05
7.98236e-05
6.54953e-05
5.32687e-05
5.00903e-05
5.16891e-05
4.1523e-05
3.12002e-05
2.20324e-05
2.0013e-05
4.55849e-05
8.97469e-06
6.00173e-06
2.44582e-05
7.50276e-05
0.000146633
0.000178715
0.000186148
0.000178664
0.000159578
0.000134009
0.000109093
8.96905e-05
7.5809e-05
6.56772e-05
5.94962e-05
6.07824e-05
7.49566e-05
0.000102945
0.000117793
8.94816e-05
5.77103e-05
4.29524e-05
4.1842e-05
5.65693e-05
0.000103354
0.000176833
0.000176227
0.000139878
0.000114046
8.90709e-05
4.80608e-05
2.74539e-05
1.93236e-05
2.0487e-05
5.74716e-05
9.20492e-06
9.52227e-06
4.95974e-05
0.000149321
0.00018803
0.000188126
0.000175538
0.0001527
0.000123755
9.77779e-05
8.22751e-05
7.75658e-05
7.73916e-05
7.42373e-05
6.79878e-05
6.49499e-05
7.06072e-05
8.35439e-05
8.8797e-05
7.23086e-05
5.00194e-05
3.80717e-05
3.81258e-05
5.56696e-05
0.000108658
0.000176389
0.000199049
0.000190592
0.000157861
9.8608e-05
4.31215e-05
2.31332e-05
1.78435e-05
2.22241e-05
7.52266e-05
9.50599e-06
9.57182e-06
6.22171e-05
0.000166058
0.000165879
0.000147846
0.000122179
9.3163e-05
6.75234e-05
5.03957e-05
4.44057e-05
5.22049e-05
7.53685e-05
0.000101006
0.000116139
0.000120054
0.00011026
9.15506e-05
7.14929e-05
5.5012e-05
4.52392e-05
4.37556e-05
5.2547e-05
7.33597e-05
9.91638e-05
0.000117775
0.000127144
0.000126359
0.000109862
7.41139e-05
3.5336e-05
1.84279e-05
1.57211e-05
2.47125e-05
9.96991e-05
9.66323e-06
8.03817e-06
4.3006e-05
0.000145612
0.00019501
0.000189024
0.000158364
0.000125799
0.000100339
8.0257e-05
6.44293e-05
5.52451e-05
5.48324e-05
6.30364e-05
7.53585e-05
8.22065e-05
7.96806e-05
7.11839e-05
6.01078e-05
5.02104e-05
4.53158e-05
4.80632e-05
6.04729e-05
8.15556e-05
0.000102567
0.000114531
0.000116582
0.00010959
9.15881e-05
6.17405e-05
3.11366e-05
1.66112e-05
1.54515e-05
2.85065e-05
0.000114825
9.68973e-06
7.96954e-06
4.14848e-05
0.000139361
0.000185686
0.000163566
0.000131334
0.000111309
0.00010365
9.92255e-05
8.83006e-05
7.16676e-05
5.73052e-05
5.11116e-05
5.57094e-05
7.15849e-05
9.19521e-05
0.000101706
9.29566e-05
7.43842e-05
6.04484e-05
5.77122e-05
6.79722e-05
9.11961e-05
0.000118717
0.000134542
0.000133715
0.000120547
9.70045e-05
6.34631e-05
3.04467e-05
1.50474e-05
1.42496e-05
2.97237e-05
0.000117085
9.7064e-06
8.35858e-06
4.01802e-05
0.000132745
0.000187466
0.000175496
0.000135237
9.9608e-05
8.16514e-05
7.8362e-05
8.33764e-05
8.34113e-05
6.81185e-05
5.10785e-05
4.31167e-05
4.65271e-05
6.28546e-05
8.8417e-05
0.000104093
9.49224e-05
7.69329e-05
7.06434e-05
8.39019e-05
0.000116951
0.000146551
0.000150911
0.000139362
0.000120796
9.43742e-05
5.87818e-05
2.7133e-05
1.44204e-05
1.50915e-05
3.35791e-05
0.000115363
9.79199e-06
8.28601e-06
3.90634e-05
0.000122401
0.000186828
0.000176189
0.000131046
9.4542e-05
7.66953e-05
7.07894e-05
7.26384e-05
7.90861e-05
7.97039e-05
6.39025e-05
4.71528e-05
4.18262e-05
5.00842e-05
7.49249e-05
0.000112746
0.000135442
0.000122412
9.84117e-05
8.89845e-05
0.000100392
0.000128349
0.000149052
0.000145289
0.000126296
9.79265e-05
5.9185e-05
2.54515e-05
1.33613e-05
1.55003e-05
3.7322e-05
0.000109434
9.87136e-06
9.02343e-06
4.30939e-05
0.000141006
0.000185562
0.000149323
9.54943e-05
6.85769e-05
6.27212e-05
6.67825e-05
7.3019e-05
7.78568e-05
7.8962e-05
6.99457e-05
5.23518e-05
4.08759e-05
4.1431e-05
5.55365e-05
8.28854e-05
0.000110468
0.000117767
0.000110489
0.000108884
0.00012342
0.000149617
0.000164253
0.000154562
0.000129782
9.64796e-05
5.6122e-05
2.43668e-05
1.33459e-05
1.7002e-05
4.33167e-05
9.832e-05
9.89179e-06
9.07985e-06
4.04347e-05
0.00012955
0.00017358
0.000127819
7.42756e-05
5.30375e-05
5.12942e-05
5.95575e-05
7.11986e-05
7.93265e-05
8.01408e-05
7.22012e-05
5.66497e-05
4.31676e-05
3.9999e-05
4.94907e-05
6.80928e-05
8.73851e-05
0.000101895
0.000112684
0.000124823
0.00014039
0.000153128
0.000153973
0.000141892
0.000121224
9.35706e-05
5.77754e-05
2.58597e-05
1.31096e-05
1.64764e-05
4.38885e-05
9.12788e-05
9.888e-06
9.6695e-06
4.23088e-05
0.000132062
0.000158862
0.000100524
5.49898e-05
4.0901e-05
4.3082e-05
5.45444e-05
7.0423e-05
8.40682e-05
9.04863e-05
8.7217e-05
7.16645e-05
4.99556e-05
3.59976e-05
3.50918e-05
5.26512e-05
9.06702e-05
0.000121691
0.0001331
0.000136511
0.00013808
0.000136782
0.000130243
0.000118181
0.000101855
8.1673e-05
5.62216e-05
2.93478e-05
1.44255e-05
1.56617e-05
3.99325e-05
9.16929e-05
9.93071e-06
1.03066e-05
4.59409e-05
0.000136477
0.000138718
7.80564e-05
4.21728e-05
3.30654e-05
3.87099e-05
5.3921e-05
7.08693e-05
8.11426e-05
8.53572e-05
8.92297e-05
9.16446e-05
8.07882e-05
5.73223e-05
4.1302e-05
3.88531e-05
5.24635e-05
8.80758e-05
0.000131417
0.000150799
0.000149209
0.000139381
0.000126323
0.000111472
9.531e-05
7.72432e-05
5.53615e-05
3.10497e-05
1.52922e-05
1.4402e-05
3.50548e-05
9.87613e-05
1.0121e-05
1.03096e-05
4.62698e-05
0.000132082
0.000135123
8.12921e-05
4.36367e-05
3.11261e-05
3.31942e-05
4.58098e-05
6.22647e-05
6.94185e-05
6.3696e-05
5.47677e-05
4.99102e-05
4.87642e-05
4.78065e-05
4.86842e-05
5.95765e-05
8.9491e-05
0.000128184
0.000146633
0.000145535
0.000136672
0.000124536
0.000110431
9.51631e-05
7.92215e-05
6.2358e-05
4.40916e-05
2.69638e-05
1.62839e-05
1.59845e-05
3.76713e-05
0.000102182
1.03966e-05
1.05663e-05
4.74854e-05
0.000129787
0.00014523
0.000108683
6.03924e-05
3.53111e-05
2.81458e-05
3.19032e-05
4.36954e-05
5.64413e-05
5.89746e-05
5.143e-05
4.33189e-05
4.02731e-05
4.3513e-05
5.41103e-05
7.43259e-05
0.000100342
0.00011862
0.000124099
0.000121488
0.000114512
0.000104608
9.24632e-05
7.86939e-05
6.40328e-05
4.923e-05
3.46675e-05
2.19907e-05
1.54333e-05
1.73843e-05
4.16208e-05
0.000103691
1.05647e-05
1.02089e-05
4.43499e-05
0.000122649
0.000153704
0.000140381
9.54434e-05
5.0754e-05
2.94241e-05
2.31445e-05
2.61057e-05
3.54193e-05
4.44073e-05
4.72261e-05
4.61614e-05
4.66563e-05
5.2949e-05
6.78341e-05
9.15286e-05
0.000116553
0.000130695
0.000131232
0.000123645
0.000112459
9.94294e-05
8.49857e-05
6.93106e-05
5.29181e-05
3.75572e-05
2.59773e-05
1.82809e-05
1.46266e-05
1.87755e-05
4.53915e-05
0.000101583
1.064e-05
9.80955e-06
4.01637e-05
0.000113328
0.000160383
0.000164744
0.000148575
9.99377e-05
4.8143e-05
2.55614e-05
1.99969e-05
2.47984e-05
3.72948e-05
4.83296e-05
4.91667e-05
4.65301e-05
4.95183e-05
6.46079e-05
9.92841e-05
0.000149059
0.000178791
0.000175431
0.000156862
0.000134462
0.000112113
9.07456e-05
6.98233e-05
4.89125e-05
3.00449e-05
1.8556e-05
1.44786e-05
1.32129e-05
1.9479e-05
5.03462e-05
9.83676e-05
1.08527e-05
9.78771e-06
3.87147e-05
0.000114829
0.000164493
0.00015991
0.00014254
0.000122975
8.07773e-05
3.62116e-05
1.93015e-05
1.72597e-05
2.45881e-05
4.00396e-05
5.52288e-05
6.16234e-05
7.06066e-05
0.000105426
0.0001863
0.000183416
0.000181494
0.000180008
0.000178548
0.00017686
0.00014334
0.000107873
7.45197e-05
4.34884e-05
2.15151e-05
1.26419e-05
1.25548e-05
1.51983e-05
2.45779e-05
6.68289e-05
9.08641e-05
1.10196e-05
1.00691e-05
4.02073e-05
0.000118492
0.000167263
0.000159768
0.000130228
9.84671e-05
7.30845e-05
4.35559e-05
2.28194e-05
1.72556e-05
2.26189e-05
3.71924e-05
5.50757e-05
6.51916e-05
7.16229e-05
9.56011e-05
0.000171916
0.000184771
0.00018141
0.000178708
0.000176178
0.000173408
0.000167256
0.000127998
8.23982e-05
3.88787e-05
1.62349e-05
9.84902e-06
1.15781e-05
2.02431e-05
3.98062e-05
9.94149e-05
7.05624e-05
1.05961e-05
1.08434e-05
4.68085e-05
0.000134192
0.00016787
0.00015484
0.000121921
8.41957e-05
5.50343e-05
3.46698e-05
2.0721e-05
1.58423e-05
2.08181e-05
3.53204e-05
5.48762e-05
7.19949e-05
8.96852e-05
0.000126482
0.000192893
0.000188894
0.000185537
0.000182513
0.000179502
0.000176157
0.000139843
0.000106607
7.2294e-05
3.71113e-05
1.6105e-05
9.583e-06
1.03947e-05
1.98752e-05
5.82351e-05
0.00012652
5.058e-05
9.85802e-06
1.09888e-05
5.01288e-05
0.000143843
0.000170818
0.000153778
0.000119073
8.32191e-05
5.52337e-05
3.50955e-05
2.18336e-05
1.67462e-05
2.10406e-05
3.34797e-05
4.81289e-05
6.01415e-05
7.10013e-05
8.53718e-05
0.000105293
0.000125963
0.000137455
0.000134789
0.000121934
0.000105206
8.82188e-05
7.21827e-05
5.71094e-05
4.14676e-05
2.43204e-05
1.25419e-05
9.22555e-06
1.21367e-05
3.11378e-05
0.000111625
5.2063e-05
9.73513e-06
1.08957e-05
4.97237e-05
0.000145929
0.000174553
0.000152875
0.000115914
8.48012e-05
6.28653e-05
4.38618e-05
2.72167e-05
1.75953e-05
1.69338e-05
2.52459e-05
3.98505e-05
5.61208e-05
7.02588e-05
8.06419e-05
8.732e-05
9.09047e-05
9.15374e-05
8.90491e-05
8.3647e-05
7.60938e-05
6.73215e-05
5.81684e-05
4.97669e-05
4.3217e-05
3.55618e-05
2.36259e-05
1.49289e-05
1.0323e-05
1.14226e-05
3.33732e-05
9.07788e-05
9.86222e-06
1.07255e-05
4.72159e-05
0.000142015
0.000175489
0.000152633
0.000114402
8.62521e-05
7.3245e-05
6.46761e-05
4.74979e-05
2.82887e-05
1.85377e-05
1.85331e-05
2.72105e-05
4.34255e-05
6.33258e-05
8.01482e-05
8.87656e-05
8.9944e-05
8.69552e-05
8.18592e-05
7.54933e-05
6.83461e-05
6.08021e-05
5.31391e-05
4.66537e-05
4.37709e-05
4.04934e-05
2.87041e-05
2.0159e-05
1.72847e-05
3.7032e-06
9.61819e-06
5.91655e-05
1.05358e-05
1.09449e-05
4.75324e-05
0.00013866
0.000174328
0.000153611
0.000113622
8.03542e-05
6.58817e-05
6.61743e-05
6.78953e-05
5.04701e-05
2.89689e-05
1.93344e-05
2.0255e-05
3.30127e-05
6.30141e-05
0.00010055
0.000117678
0.000115419
0.000106408
9.5548e-05
8.43519e-05
7.36232e-05
6.37992e-05
5.5907e-05
5.17729e-05
4.38424e-05
2.51911e-05
1.55301e-05
1.39308e-05
1.2474e-05
6.39653e-06
1.53783e-05
9.11052e-05
1.22009e-05
1.13218e-05
5.12927e-05
0.000146235
0.000172389
0.000149432
0.000111176
7.89899e-05
6.30631e-05
6.23998e-05
7.15212e-05
7.23465e-05
4.77206e-05
2.71733e-05
2.0796e-05
2.77363e-05
5.85252e-05
0.00012224
0.000159801
0.000156232
0.000139403
0.000120961
0.000104473
9.08467e-05
8.08569e-05
6.87037e-05
3.10236e-05
1.19302e-05
1.10765e-05
1.54838e-05
1.805e-05
1.93633e-05
2.58376e-05
6.10473e-05
0.000131902
1.31318e-05
1.14142e-05
5.40619e-05
0.00015108
0.000169621
0.000146056
0.000108666
7.7359e-05
6.06664e-05
5.7338e-05
6.41866e-05
7.14831e-05
5.97189e-05
3.58823e-05
2.35523e-05
2.62013e-05
6.02799e-05
0.000181515
0.000182338
0.00018275
0.000181867
0.000179111
0.000174093
0.000166993
0.000113077
2.35108e-05
8.96285e-06
9.24839e-06
1.75588e-05
3.42794e-05
3.92201e-05
3.90593e-05
6.28463e-05
0.000138909
6.83663e-05
1.16498e-05
1.12874e-05
5.48029e-05
0.000149281
0.000165109
0.000146153
0.000113435
8.19284e-05
6.18729e-05
5.414e-05
5.61714e-05
6.22563e-05
6.00625e-05
4.3707e-05
2.91196e-05
2.66875e-05
4.59903e-05
0.000122831
0.000185015
0.000183748
0.000152728
0.000133498
0.000121786
0.000100986
4.33825e-05
1.39416e-05
7.88395e-06
9.60769e-06
1.79411e-05
4.35518e-05
9.51428e-05
0.000112525
0.000130359
0.000131361
4.28896e-05
9.19689e-06
1.0858e-05
5.03255e-05
0.000142402
0.00016667
0.000154388
0.000126546
9.19638e-05
6.37437e-05
4.85408e-05
4.46766e-05
4.78256e-05
5.01625e-05
4.4046e-05
3.3583e-05
2.92476e-05
3.91646e-05
7.25918e-05
0.000105495
0.000108128
9.93392e-05
8.83601e-05
7.6219e-05
6.23957e-05
4.43535e-05
2.31616e-05
1.0969e-05
8.75622e-06
1.23783e-05
2.2722e-05
4.63585e-05
9.6946e-05
0.000133622
9.56031e-05
3.49114e-05
8.15225e-06
1.07546e-05
4.77833e-05
0.000139866
0.000171488
0.000161135
0.00013744
0.000106698
7.44727e-05
5.08268e-05
3.97455e-05
3.873e-05
4.28898e-05
4.40599e-05
3.83402e-05
3.30932e-05
3.60204e-05
5.1748e-05
7.61497e-05
9.15076e-05
9.23458e-05
8.58778e-05
7.69019e-05
6.69862e-05
5.64816e-05
4.48737e-05
3.09904e-05
1.80347e-05
1.21859e-05
1.30326e-05
1.86315e-05
2.90357e-05
5.67409e-05
0.000105605
4.19131e-05
8.54598e-06
1.07933e-05
4.62402e-05
0.00013625
0.000171798
0.000160667
0.000136149
0.000109237
8.28914e-05
5.81643e-05
4.08751e-05
3.35635e-05
3.38857e-05
3.7009e-05
3.75407e-05
3.63938e-05
4.00999e-05
5.41905e-05
7.78236e-05
9.8332e-05
0.000104496
9.95264e-05
9.0328e-05
8.01906e-05
7.01438e-05
6.08328e-05
5.27097e-05
4.43958e-05
3.28841e-05
2.13561e-05
1.59439e-05
1.7195e-05
1.78253e-05
3.41868e-05
7.56421e-05
9.09937e-06
1.09176e-05
4.6621e-05
0.00013474
0.00017145
0.000163042
0.000138251
0.000109858
8.61517e-05
6.6199e-05
4.80458e-05
3.58588e-05
3.15694e-05
3.27535e-05
3.50753e-05
3.66851e-05
4.16401e-05
5.56793e-05
7.91033e-05
0.000100543
0.000109232
0.000107213
0.00010003
9.07023e-05
8.08564e-05
7.23832e-05
6.7413e-05
6.12788e-05
4.54836e-05
2.97187e-05
2.38414e-05
2.48847e-05
1.06616e-05
1.24722e-05
6.35111e-05
1.03693e-05
1.08152e-05
4.60438e-05
0.000130232
0.000171001
0.000167726
0.00014472
0.000114148
8.91863e-05
7.23265e-05
5.72645e-05
4.22156e-05
3.22991e-05
2.90793e-05
3.04786e-05
3.45995e-05
4.36891e-05
6.45067e-05
9.84486e-05
0.000126462
0.000135266
0.000131616
0.000122254
0.000110314
9.91462e-05
8.96016e-05
6.91248e-05
3.77345e-05
2.61378e-05
2.66219e-05
2.96011e-05
2.61558e-05
1.46845e-05
2.22983e-05
0.000114059
1.18355e-05
1.05468e-05
4.39472e-05
0.000125077
0.000173051
0.000173278
0.000150921
0.000119032
9.33411e-05
7.93836e-05
7.09957e-05
5.82482e-05
4.24689e-05
3.19777e-05
2.84287e-05
3.04892e-05
3.9072e-05
6.25661e-05
0.00012111
0.000213361
0.000214815
0.000215896
0.000216343
0.000201608
0.000150499
6.90763e-05
2.52288e-05
1.78004e-05
2.65727e-05
3.99605e-05
3.74564e-05
3.06241e-05
3.23784e-05
6.73074e-05
0.000103528
1.22084e-05
1.04643e-05
4.2788e-05
0.000123183
0.000175881
0.000173736
0.000146428
0.000112603
8.82687e-05
7.71957e-05
7.59275e-05
7.4882e-05
6.16598e-05
4.29518e-05
3.10328e-05
2.74022e-05
3.21465e-05
5.12451e-05
0.000106019
0.000205732
0.000207864
0.000209239
0.000209398
0.000208074
9.4958e-05
3.23191e-05
1.51189e-05
1.50116e-05
3.04563e-05
6.60026e-05
6.41274e-05
4.87765e-05
6.18786e-05
0.000127472
6.82687e-05
1.10561e-05
1.08179e-05
4.43997e-05
0.000128571
0.000179719
0.00016844
0.000132022
9.83023e-05
7.95854e-05
7.30866e-05
7.57883e-05
8.45819e-05
8.64712e-05
6.71917e-05
4.35357e-05
3.03261e-05
2.71208e-05
3.42466e-05
5.82877e-05
0.000101864
0.000130842
0.000133351
0.000126808
0.000110137
7.1849e-05
3.28034e-05
1.55502e-05
1.25817e-05
2.01732e-05
4.67073e-05
9.84792e-05
0.000108594
0.000115638
0.000141343
5.36825e-05
9.54739e-06
1.16122e-05
5.00271e-05
0.000144739
0.000180566
0.000151663
0.000106865
7.82565e-05
6.80114e-05
6.86044e-05
7.50838e-05
8.59947e-05
9.68293e-05
9.18029e-05
6.51978e-05
4.1189e-05
2.98283e-05
2.88497e-05
3.90955e-05
6.462e-05
9.53713e-05
0.000108153
0.000105739
9.60291e-05
7.82436e-05
5.06712e-05
2.61114e-05
1.49693e-05
1.41977e-05
2.18195e-05
4.17474e-05
8.82694e-05
0.000128604
0.000118391
4.44815e-05
8.7819e-06
1.2267e-05
5.72157e-05
0.000161741
0.000169557
0.000123301
8.0565e-05
6.20204e-05
6.12642e-05
7.13356e-05
8.55401e-05
9.74484e-05
0.000103546
9.92891e-05
7.98733e-05
5.44332e-05
3.75328e-05
3.13799e-05
3.46837e-05
4.88912e-05
7.43499e-05
9.91522e-05
0.000107467
0.000101122
8.79868e-05
7.05891e-05
4.92553e-05
2.9704e-05
1.86791e-05
1.60006e-05
1.92723e-05
3.13248e-05
7.06624e-05
0.000108229
4.45493e-05
8.87716e-06
1.24405e-05
6.18012e-05
0.000165683
0.000151205
9.83011e-05
6.2972e-05
5.17885e-05
5.70368e-05
7.35046e-05
9.31689e-05
0.000106069
0.000107485
9.78731e-05
7.99388e-05
5.96049e-05
4.43843e-05
3.75479e-05
3.94342e-05
5.04187e-05
6.87707e-05
8.68803e-05
9.6306e-05
9.61524e-05
9.03396e-05
8.04179e-05
6.46443e-05
4.64496e-05
3.31284e-05
2.52939e-05
2.08721e-05
1.95617e-05
2.87981e-05
6.32329e-05
6.14969e-05
9.57061e-06
1.22108e-05
6.17981e-05
0.000160781
0.000139243
8.812e-05
5.66588e-05
4.73494e-05
5.37687e-05
7.15979e-05
9.18571e-05
0.000103833
0.000103412
9.26274e-05
7.64254e-05
6.06305e-05
4.98763e-05
4.63451e-05
5.05757e-05
6.11986e-05
7.32256e-05
8.13068e-05
8.43687e-05
8.44669e-05
8.30699e-05
7.62631e-05
5.86474e-05
4.36505e-05
3.92241e-05
4.09254e-05
4.08038e-05
2.74976e-05
1.78965e-05
2.97219e-05
8.86531e-05
1.07124e-05
1.19742e-05
6.06581e-05
0.000155646
0.000139122
9.16907e-05
5.74186e-05
4.38666e-05
4.56353e-05
5.90924e-05
7.75454e-05
9.07106e-05
9.2702e-05
8.52326e-05
7.40165e-05
6.44968e-05
6.01821e-05
6.27607e-05
7.13395e-05
8.09168e-05
8.6289e-05
8.69837e-05
8.50217e-05
8.09682e-05
7.07319e-05
5.16759e-05
3.92349e-05
3.91404e-05
4.77348e-05
5.78765e-05
5.33897e-05
3.04433e-05
1.89152e-05
3.52169e-05
0.000102666
1.16224e-05
1.17726e-05
6.03915e-05
0.000151238
0.000140791
9.81372e-05
6.04085e-05
4.1773e-05
3.87112e-05
4.78205e-05
6.4393e-05
7.9185e-05
8.52809e-05
8.35036e-05
7.90254e-05
7.66551e-05
7.92271e-05
8.73422e-05
9.85248e-05
0.000107406
0.000109621
0.00010377
8.80329e-05
6.16682e-05
3.87434e-05
3.10589e-05
3.56089e-05
4.77591e-05
5.94397e-05
6.18968e-05
5.0954e-05
3.54534e-05
3.42507e-05
7.63491e-05
7.82036e-05
1.15583e-05
1.15443e-05
6.0413e-05
0.000148527
0.000143127
0.000107518
6.88742e-05
4.45675e-05
3.5489e-05
3.8423e-05
5.05775e-05
6.63048e-05
7.91199e-05
8.67537e-05
9.11157e-05
9.54197e-05
0.000102299
0.000113123
0.000127465
0.000140239
0.000137895
0.000108106
6.4754e-05
3.5032e-05
2.39871e-05
2.60668e-05
4.08045e-05
6.32836e-05
6.5673e-05
5.60299e-05
5.17834e-05
5.36631e-05
7.4036e-05
0.000139942
5.62509e-05
1.05849e-05
1.1309e-05
5.99091e-05
0.000147691
0.000148435
0.000122054
8.59794e-05
5.51267e-05
3.81207e-05
3.37968e-05
3.97297e-05
5.31434e-05
6.94045e-05
8.39651e-05
9.53359e-05
0.000104685
0.00011342
0.000121571
0.000127454
0.000127199
0.000114093
8.44735e-05
4.97542e-05
2.70554e-05
1.87565e-05
2.06325e-05
3.42938e-05
6.73951e-05
8.58935e-05
6.59095e-05
5.76503e-05
7.13587e-05
0.000112835
0.000136638
4.61238e-05
9.47762e-06
1.11077e-05
5.84582e-05
0.000148204
0.000155612
0.000136827
0.000107113
7.33574e-05
4.732e-05
3.44396e-05
3.27031e-05
3.98277e-05
5.3876e-05
7.18997e-05
8.99345e-05
0.00010487
0.000115141
0.00011967
0.000117545
0.000109031
9.52724e-05
7.64063e-05
5.27368e-05
3.06776e-05
1.8434e-05
1.59564e-05
2.15071e-05
3.86565e-05
7.60734e-05
0.000103371
9.53146e-05
0.000100238
0.00013112
0.000134147
4.32207e-05
8.69691e-06
1.10141e-05
5.78041e-05
0.000150165
0.000159754
0.000142776
0.000119615
9.29313e-05
6.42605e-05
4.2949e-05
3.34015e-05
3.37077e-05
4.16432e-05
5.58202e-05
7.45202e-05
9.41689e-05
0.000110052
0.000118533
0.000118079
0.000109593
9.61906e-05
8.09931e-05
6.44459e-05
4.55026e-05
2.76581e-05
1.74332e-05
1.56197e-05
2.06947e-05
3.38774e-05
6.30864e-05
0.000115511
0.000147961
0.000153446
0.000128629
4.16627e-05
8.31125e-06
1.10305e-05
5.79974e-05
0.000151911
0.000161188
0.000142645
0.000120936
0.000101242
7.93698e-05
5.55766e-05
3.91879e-05
3.3339e-05
3.61018e-05
4.55915e-05
6.10226e-05
8.10708e-05
0.000101674
0.000116807
0.000122139
0.000117142
0.000104797
8.97911e-05
7.55921e-05
6.22924e-05
4.7547e-05
3.18143e-05
2.06222e-05
1.67848e-05
1.90482e-05
2.70231e-05
4.64613e-05
9.45703e-05
0.000132712
0.000111864
3.96903e-05
8.2821e-06
1.11124e-05
5.90059e-05
0.000154094
0.0001616
0.00014081
0.000118942
0.000103346
8.93288e-05
7.00794e-05
4.97647e-05
3.76617e-05
3.52734e-05
4.05137e-05
5.18216e-05
6.86198e-05
8.94657e-05
0.000109787
0.000122856
0.000124342
0.00011522
0.000100434
8.53784e-05
7.30191e-05
6.29839e-05
5.25582e-05
3.99822e-05
2.80045e-05
2.07438e-05
1.89552e-05
2.22422e-05
3.50739e-05
7.48632e-05
0.000107332
4.13023e-05
8.60419e-06
1.11525e-05
5.92152e-05
0.000155853
0.000161181
0.000136665
0.000113702
0.000100815
9.3024e-05
8.12686e-05
6.24594e-05
4.56706e-05
3.78803e-05
3.9063e-05
4.73735e-05
6.16812e-05
8.11084e-05
0.000102982
0.000121318
0.000129338
0.000124718
0.000111171
9.4996e-05
8.10518e-05
7.10819e-05
6.39684e-05
5.71e-05
4.83967e-05
3.81955e-05
2.88761e-05
2.24965e-05
2.07059e-05
3.12307e-05
7.17777e-05
5.28188e-05
9.30651e-06
1.11654e-05
5.88463e-05
0.000157413
0.000158896
0.000128684
0.000105377
9.67178e-05
9.56538e-05
9.1743e-05
7.76275e-05
5.79784e-05
4.43501e-05
4.06152e-05
4.55022e-05
5.76422e-05
7.60576e-05
9.87672e-05
0.000120649
0.000133986
0.000133659
0.000121459
0.000104105
8.81651e-05
7.68984e-05
6.99495e-05
6.49795e-05
5.97981e-05
5.38267e-05
4.72301e-05
3.82862e-05
2.49025e-05
1.9847e-05
3.72228e-05
8.03746e-05
1.02192e-05
1.11846e-05
5.77537e-05
0.00015659
0.000151653
0.000114224
9.16657e-05
8.80941e-05
9.41719e-05
9.86333e-05
9.17652e-05
7.31682e-05
5.46769e-05
4.54553e-05
4.65251e-05
5.67362e-05
7.51725e-05
0.000100038
0.00012604
0.000143884
0.000145735
0.000132075
0.000111099
9.20526e-05
7.95992e-05
7.28738e-05
6.82899e-05
6.34606e-05
5.90497e-05
5.56949e-05
4.94484e-05
3.14956e-05
1.96696e-05
3.38239e-05
0.000105488
1.10644e-05
1.12485e-05
5.70417e-05
0.000154732
0.000139557
9.58526e-05
7.65889e-05
7.8914e-05
9.22139e-05
0.000104766
0.000105171
8.96884e-05
6.8113e-05
5.36384e-05
5.0478e-05
5.83136e-05
7.66876e-05
0.00010446
0.00013619
0.00015975
0.000162696
0.000144035
0.000115777
9.21453e-05
7.87918e-05
7.25721e-05
6.72874e-05
6.08059e-05
5.65279e-05
5.37767e-05
4.63066e-05
3.16486e-05
2.51045e-05
4.76277e-05
0.00010819
1.15532e-05
1.1266e-05
5.56043e-05
0.000150611
0.000122959
7.64531e-05
6.18844e-05
6.93178e-05
8.83207e-05
0.000106912
0.000113234
0.000102514
8.155e-05
6.40255e-05
5.74832e-05
6.33588e-05
8.20325e-05
0.000113123
0.000151052
0.000180225
0.000181516
0.000152754
0.00011438
8.68489e-05
7.40632e-05
6.88016e-05
6.1899e-05
5.28229e-05
4.89223e-05
4.80899e-05
4.1721e-05
3.34213e-05
3.74744e-05
8.18629e-05
8.79863e-05
1.14322e-05
1.12133e-05
5.32701e-05
0.000144112
0.000108057
6.14794e-05
4.99487e-05
6.03552e-05
8.37868e-05
0.000107216
0.000117454
0.000110375
9.20404e-05
7.44056e-05
6.6099e-05
7.02998e-05
8.84683e-05
0.000120977
0.000162431
0.00019421
0.000190872
0.000151795
0.000106785
7.84334e-05
6.73282e-05
6.344e-05
5.56266e-05
4.45642e-05
4.03448e-05
4.34148e-05
4.36267e-05
4.23822e-05
5.92971e-05
0.000125863
6.67174e-05
1.0696e-05
1.10779e-05
4.96543e-05
0.000134586
0.000101806
5.31604e-05
3.97325e-05
4.79057e-05
7.10264e-05
9.78878e-05
0.000113431
0.000112052
9.89587e-05
8.43346e-05
7.65816e-05
8.00644e-05
9.69608e-05
0.000127313
0.000164591
0.000189888
0.000180961
0.000140691
9.70652e-05
7.00906e-05
6.05686e-05
5.92218e-05
5.34791e-05
4.15276e-05
3.44871e-05
3.7607e-05
4.73735e-05
6.00234e-05
9.09969e-05
0.000141831
5.35176e-05
9.81753e-06
1.09688e-05
4.65245e-05
0.000125657
0.000107621
5.37907e-05
3.32919e-05
3.55005e-05
5.37884e-05
8.13804e-05
0.000103236
0.000109506
0.00010316
9.31913e-05
8.75825e-05
9.10956e-05
0.000105952
0.000131432
0.000160584
0.000177811
0.000167553
0.000132187
9.19177e-05
6.47672e-05
5.4744e-05
5.56629e-05
5.55283e-05
4.57925e-05
3.4931e-05
3.28584e-05
4.26583e-05
6.82794e-05
0.000112134
0.00013708
4.91526e-05
9.38175e-06
1.0935e-05
4.44459e-05
0.000119141
0.000116583
6.1341e-05
3.1077e-05
2.63129e-05
3.75366e-05
6.14217e-05
8.7686e-05
0.000103112
0.000105889
0.00010287
0.000101454
0.000106525
0.000120294
0.000141737
0.000164499
0.000176201
0.000165306
0.000132762
9.31444e-05
6.32519e-05
5.0527e-05
5.21485e-05
5.8619e-05
5.59638e-05
4.35205e-05
3.46642e-05
3.7134e-05
5.59851e-05
9.89065e-05
0.000132223
5.13942e-05
9.56745e-06
1.10788e-05
4.45798e-05
0.000119163
0.000123277
7.13465e-05
3.34002e-05
2.26292e-05
2.78714e-05
4.63282e-05
7.27393e-05
9.46537e-05
0.000105872
0.000110436
0.000114773
0.000123174
0.000137329
0.000156099
0.000174411
0.000183095
0.00017313
0.000143147
0.000102682
6.74407e-05
4.87206e-05
4.75355e-05
5.81039e-05
6.56876e-05
5.62505e-05
4.14493e-05
3.61667e-05
4.53028e-05
7.70598e-05
0.000124295
5.56375e-05
1.00764e-05
1.13407e-05
4.62158e-05
0.000123577
0.000126724
7.64584e-05
3.66475e-05
2.209e-05
2.277e-05
3.59282e-05
5.96938e-05
8.52275e-05
0.000103891
0.000116023
0.000126305
0.000138206
0.000152629
0.000168131
0.000181217
0.000186751
0.00017937
0.000156119
0.000119573
8.03051e-05
5.26781e-05
4.33746e-05
5.0186e-05
6.41924e-05
6.36636e-05
4.70838e-05
3.71352e-05
4.24812e-05
7.17526e-05
0.000125526
5.72124e-05
1.04155e-05
1.17013e-05
4.90923e-05
0.000130866
0.000129793
7.77693e-05
3.88326e-05
2.30048e-05
2.08744e-05
2.99237e-05
4.98983e-05
7.55443e-05
9.82872e-05
0.000115485
0.000129747
0.00014358
0.000157127
0.000168694
0.000176295
0.000178566
0.000174285
0.000161188
0.000136372
0.000100837
6.55689e-05
4.47313e-05
4.15623e-05
5.08655e-05
5.87816e-05
4.97915e-05
3.98775e-05
4.52149e-05
7.78104e-05
0.000133413
5.5105e-05
1.03424e-05
1.2086e-05
5.27036e-05
0.000139769
0.000130053
7.42494e-05
3.78611e-05
2.30407e-05
2.00952e-05
2.68061e-05
4.38504e-05
6.84509e-05
9.3163e-05
0.000113186
0.000128851
0.000141764
0.000152056
0.000158656
0.000161083
0.000160406
0.000157787
0.000151415
0.000135792
0.000107968
7.56089e-05
5.07045e-05
3.95197e-05
4.09928e-05
4.80749e-05
4.89205e-05
4.51691e-05
5.37017e-05
9.09305e-05
0.000137228
5.05348e-05
9.98876e-06
1.2477e-05