/*--------------------------------*- C++ -*----------------------------------*\
| =========                 |                                                 |
| \\      /  F ield         | OpenFOAM: The Open Source CFD Toolbox           |
|  \\    /   O peration     | Version:  v1906                                 |
|   \\  /    A nd           | Web:      www.OpenFOAM.com                      |
|    \\/     M anipulation  |                                                 |
\*---------------------------------------------------------------------------*/
FoamFile
{
    version     2.0;
    format      ascii;
    class       surfaceScalarField;
    location    "86";
    object      phi;
}
// * * * * * * * * * * * * * * * * * * * * * * * * * * * * * * * * * * * * * //

dimensions      [1 0 -1 0 0 0 0];
oriented        oriented;


internalField   nonuniform List<scalar> 
228225
(
-0.000437259
-4.50449e-05
-1.24059e-05
-0.000389238
-3.6112e-05
-1.19517e-05
-0.000343412
-3.37529e-05
-1.21233e-05
-0.000298456
-3.2349e-05
-1.26534e-05
-0.000259999
-2.63416e-05
-1.2167e-05
-0.000227019
-2.30846e-05
-9.93241e-06
-0.000199892
-1.92622e-05
-7.89481e-06
-0.000176775
-1.6859e-05
-6.26816e-06
-0.000157001
-1.46266e-05
-5.14904e-06
-0.000139668
-1.30855e-05
-4.23866e-06
-0.000124407
-1.16724e-05
-3.57608e-06
-0.000110741
-1.06254e-05
-3.01627e-06
-9.848e-05
-9.67798e-06
-2.55278e-06
-8.73623e-05
-8.90921e-06
-2.17075e-06
-7.72016e-05
-8.25908e-06
-1.85612e-06
-6.78799e-05
-7.69746e-06
-1.57172e-06
-5.92823e-05
-7.22823e-06
-1.30995e-06
-5.13198e-05
-6.82875e-06
-1.06755e-06
-4.39095e-05
-6.49237e-06
-8.44983e-07
-3.69804e-05
-6.20907e-06
-6.40442e-07
-3.04715e-05
-5.97106e-06
-4.5175e-07
-2.4329e-05
-5.77291e-06
-2.77091e-07
-1.85074e-05
-5.60681e-06
-1.15737e-07
-1.29888e-05
-5.46454e-06
5.15418e-08
-7.79279e-06
-5.33731e-06
2.53455e-07
-2.90565e-06
-5.21438e-06
4.46007e-07
1.66225e-06
-5.08261e-06
6.40346e-07
5.88041e-06
-4.92453e-06
8.39137e-07
9.69165e-06
-4.71586e-06
1.04486e-06
1.29986e-05
-4.4229e-06
1.26419e-06
1.56537e-05
-3.99799e-06
1.49987e-06
1.74045e-05
-3.3508e-06
1.76721e-06
1.76213e-05
-2.14032e-06
2.10288e-06
1.33825e-05
1.82779e-06
2.61405e-06
1.1921e-05
1.64907e-06
-2.40546e-05
-2.23314e-05
1.71886e-06
-3.7672e-05
-2.36099e-05
8.57117e-07
-4.62785e-05
-2.46517e-05
-4.79971e-07
-5.32022e-05
-2.38435e-05
-1.46708e-06
-5.74104e-05
-1.97209e-05
-2.50347e-06
-6.06227e-05
-1.70055e-05
-2.97247e-06
-6.23317e-05
-1.42235e-05
-3.44716e-06
-6.30882e-05
-1.23999e-05
-3.82572e-06
-6.26835e-05
-1.09898e-05
-4.1617e-06
-6.15432e-05
-9.88588e-06
-4.45635e-06
-5.9593e-05
-9.03967e-06
-4.69278e-06
-5.70698e-05
-8.37027e-06
-4.88139e-06
-5.39894e-05
-7.83152e-06
-5.02237e-06
-5.04817e-05
-7.37864e-06
-5.1259e-06
-4.66388e-05
-6.98554e-06
-5.19656e-06
-4.25299e-05
-6.63881e-06
-5.23991e-06
-3.82325e-05
-6.33156e-06
-5.25888e-06
-3.38039e-05
-6.05984e-06
-5.25501e-06
-2.92974e-05
-5.82057e-06
-5.22835e-06
-2.47604e-05
-5.6106e-06
-5.17824e-06
-2.02369e-05
-5.42641e-06
-5.10374e-06
-1.57704e-05
-5.26388e-06
-5.00391e-06
-1.14029e-05
-5.118e-06
-4.87727e-06
-7.17794e-06
-4.98166e-06
-4.72149e-06
-3.1403e-06
-4.84641e-06
-4.53456e-06
6.63738e-07
-4.70077e-06
-4.31586e-06
4.18252e-06
-4.5282e-06
-4.0634e-06
7.35466e-06
-4.30561e-06
-3.7731e-06
1.01041e-05
-4.00108e-06
-3.43804e-06
1.23301e-05
-3.56889e-06
-3.04568e-06
1.38751e-05
-2.92667e-06
-2.57408e-06
1.44071e-05
-1.84424e-06
-1.9881e-06
1.29546e-05
5.82074e-07
-1.2097e-06
6.86374e-06
8.06312e-06
-7.17087e-08
1.80343e-05
8.60592e-07
-3.10116e-05
8.92891e-06
-1.37453e-07
-4.50966e-05
-8.59612e-06
-7.52622e-07
-5.46903e-05
-1.34366e-05
-1.46219e-06
-5.97053e-05
-1.68954e-05
-1.77906e-06
-5.92245e-05
-1.80859e-05
-1.98051e-06
-5.67144e-05
-1.71907e-05
-2.21274e-06
-5.30771e-05
-1.52707e-05
-2.51274e-06
-4.93523e-05
-1.3239e-05
-2.84607e-06
-4.58432e-05
-1.12851e-05
-3.20553e-06
-4.27221e-05
-9.4451e-06
-3.57889e-06
-4.00432e-05
-7.81665e-06
-3.9374e-06
-3.77104e-05
-6.49568e-06
-4.2551e-06
-3.5522e-05
-5.55564e-06
-4.51924e-06
-3.32525e-05
-4.97818e-06
-4.72877e-06
-3.07592e-05
-4.64876e-06
-4.89023e-06
-2.79983e-05
-4.44755e-06
-5.01213e-06
-2.499e-05
-4.29651e-06
-5.10191e-06
-2.17848e-05
-4.15574e-06
-5.16558e-06
-1.8443e-05
-4.00834e-06
-5.20735e-06
-1.50236e-05
-3.85013e-06
-5.22985e-06
-1.15801e-05
-3.68201e-06
-5.23418e-06
-8.16051e-06
-3.50578e-06
-5.22011e-06
-4.80909e-06
-3.32154e-06
-5.18624e-06
-1.56902e-06
-3.12595e-06
-5.12999e-06
1.51371e-06
-2.9115e-06
-5.04767e-06
4.38769e-06
-2.66614e-06
-4.93442e-06
6.99421e-06
-2.37215e-06
-4.78413e-06
9.2651e-06
-2.00429e-06
-4.58932e-06
1.11196e-05
-1.52689e-06
-4.34105e-06
1.24547e-05
-8.84301e-07
-4.02665e-06
1.31241e-05
1.26729e-08
-3.6093e-06
1.27732e-05
1.52533e-06
-3.01034e-06
1.07114e-05
4.77304e-06
-2.10378e-06
5.13643e-06
1.44205e-05
-7.03147e-07
2.27473e-05
5.40183e-07
1.42025e-05
-6.2131e-06
8.87016e-07
2.00401e-05
-1.52249e-05
7.40654e-07
2.51067e-05
-1.8729e-05
2.2033e-07
2.78432e-05
-1.93288e-05
-2.30231e-07
2.87156e-05
-1.82898e-05
-5.44547e-07
2.81354e-05
-1.5739e-05
-7.13291e-07
2.60412e-05
-1.22492e-05
-7.3613e-07
2.25153e-05
-8.82244e-06
-6.87011e-07
1.82916e-05
-6.20973e-06
-6.66673e-07
1.39862e-05
-4.23909e-06
-7.60423e-07
9.83596e-06
-2.57597e-06
-1.00486e-06
6.0429e-06
-1.28986e-06
-1.3758e-06
2.84412e-06
-5.60955e-07
-1.79331e-06
3.75677e-07
-3.4823e-07
-2.18019e-06
-1.35408e-06
-4.45374e-07
-2.50497e-06
-2.38809e-06
-6.81407e-07
-2.7709e-06
-2.7872e-06
-9.47423e-07
-2.9929e-06
-2.62378e-06
-1.17989e-06
-3.18408e-06
-1.98195e-06
-1.34271e-06
-3.35246e-06
-9.4881e-07
-1.42453e-06
-3.50264e-06
3.97365e-07
-1.43334e-06
-3.63661e-06
1.98795e-06
-1.3808e-06
-3.75436e-06
3.75792e-06
-1.27243e-06
-3.85428e-06
5.64029e-06
-1.10588e-06
-3.93358e-06
7.56107e-06
-8.70703e-07
-3.98842e-06
9.43691e-06
-5.50575e-07
-4.01389e-06
1.11834e-05
-1.33131e-07
-4.00377e-06
1.26615e-05
4.5326e-07
-3.94981e-06
1.37506e-05
1.21409e-06
-3.8406e-06
1.42946e-05
2.22393e-06
-3.65934e-06
1.40289e-05
3.64772e-06
-3.37342e-06
1.25446e-05
5.92036e-06
-2.91202e-06
8.98108e-06
1.04644e-05
-2.12715e-06
3.71668e-06
2.04882e-05
-7.74167e-07
2.60929e-05
4.65653e-07
5.53525e-06
-1.33323e-05
1.69697e-06
9.35292e-06
-2.14472e-05
2.71812e-06
1.09964e-05
-2.29665e-05
2.86517e-06
1.11456e-05
-2.19219e-05
2.71609e-06
1.01087e-05
-1.93783e-05
2.42486e-06
8.27756e-06
-1.56895e-05
2.06295e-06
6.15825e-06
-1.1626e-05
1.70974e-06
3.82394e-06
-7.75088e-06
1.38582e-06
1.29328e-06
-4.6145e-06
1.01795e-06
-1.33283e-06
-2.13576e-06
5.9275e-07
-3.93667e-06
-4.8273e-08
1.28562e-07
-6.50075e-06
1.66527e-06
-3.6011e-07
-8.77091e-06
2.61446e-06
-8.96065e-07
-1.05865e-05
2.87258e-06
-1.41445e-06
-1.18619e-05
2.6641e-06
-1.8558e-06
-1.25705e-05
2.20612e-06
-2.20826e-06
-1.27223e-05
1.65603e-06
-2.48517e-06
-1.23527e-05
1.11854e-06
-2.70343e-06
-1.15316e-05
6.77806e-07
-2.87722e-06
-1.03448e-05
3.72641e-07
-3.01883e-06
-8.86394e-06
1.90262e-07
-3.13784e-06
-7.14555e-06
1.097e-07
-3.24e-06
-5.23937e-06
1.20975e-07
-3.32791e-06
-3.19498e-06
2.26655e-07
-3.40216e-06
-1.06442e-06
4.37807e-07
-3.4611e-06
1.09614e-06
7.7107e-07
-3.50106e-06
3.21446e-06
1.24927e-06
-3.5165e-06
5.24719e-06
1.907e-06
-3.49939e-06
7.08575e-06
2.80344e-06
-3.43824e-06
8.58019e-06
4.03658e-06
-3.31524e-06
9.50308e-06
5.8152e-06
-3.09691e-06
9.36772e-06
8.76737e-06
-2.71607e-06
6.98093e-06
1.48968e-05
-2.03664e-06
2.5739e-06
2.57631e-05
-8.08261e-07
2.84214e-05
3.48163e-07
9.021e-06
-2.40534e-05
1.94032e-06
1.38648e-05
-2.93135e-05
3.31222e-06
1.4917e-05
-2.76695e-05
3.77956e-06
1.10471e-05
-2.18327e-05
3.85862e-06
3.45915e-06
-1.54586e-05
3.74576e-06
-4.19987e-06
-1.15803e-05
3.56328e-06
-9.7084e-06
-9.62442e-06
3.4329e-06
-1.29436e-05
-8.06889e-06
3.39421e-06
-1.4784e-05
-6.44249e-06
3.43653e-06
-1.60125e-05
-4.67235e-06
3.497e-06
-1.68672e-05
-2.90964e-06
3.46551e-06
-1.72742e-05
-1.29578e-06
3.19841e-06
-1.7292e-05
-8.58409e-08
2.64482e-06
-1.70029e-05
6.39617e-07
1.91692e-06
-1.63956e-05
9.06277e-07
1.13368e-06
-1.54637e-05
8.82454e-07
3.71758e-07
-1.42595e-05
7.11801e-07
-2.85144e-07
-1.28469e-05
4.98831e-07
-8.21875e-07
-1.12605e-05
3.30919e-07
-1.27003e-06
-9.53179e-06
2.57745e-07
-1.64448e-06
-7.69118e-06
2.84548e-07
-1.96457e-06
-5.77282e-06
4.03956e-07
-2.24e-06
-3.81526e-06
6.14594e-07
-2.4752e-06
-1.8605e-06
9.25112e-07
-2.67294e-06
5.20965e-08
1.345e-06
-2.8345e-06
1.88891e-06
1.8845e-06
-2.95941e-06
3.61712e-06
2.56182e-06
-3.04414e-06
5.19514e-06
3.41519e-06
-3.08382e-06
6.56267e-06
4.51489e-06
-3.07047e-06
7.62264e-06
5.98123e-06
-2.98898e-06
8.19494e-06
8.07723e-06
-2.80977e-06
7.88828e-06
1.15809e-05
-2.47003e-06
5.93278e-06
1.87501e-05
-1.84197e-06
2.49139e-06
3.00606e-05
-7.53275e-07
3.07413e-05
2.93834e-07
-5.07166e-06
-2.2067e-05
3.30695e-06
-1.43369e-05
-2.43769e-05
4.56506e-06
-2.4034e-05
-2.244e-05
4.62049e-06
-3.23097e-05
-1.76929e-05
4.03695e-06
-3.88064e-05
-1.29224e-05
3.3568e-06
-4.33484e-05
-1.06684e-05
2.90548e-06
-4.58643e-05
-1.00708e-05
2.58059e-06
-4.67902e-05
-9.61513e-06
2.32802e-06
-4.65703e-05
-8.88731e-06
2.1763e-06
-4.55014e-05
-7.85907e-06
2.0915e-06
-4.37079e-05
-6.74144e-06
2.01282e-06
-4.12894e-05
-5.64965e-06
1.90118e-06
-3.84393e-05
-4.70488e-06
1.73046e-06
-3.53187e-05
-4.01399e-06
1.49439e-06
-3.2113e-05
-3.54285e-06
1.204e-06
-2.89644e-05
-3.18257e-06
8.75251e-07
-2.59476e-05
-2.8694e-06
5.22109e-07
-2.30534e-05
-2.58599e-06
1.48154e-07
-2.0269e-05
-2.3074e-06
-1.87685e-07
-1.75416e-05
-1.99906e-06
-5.10953e-07
-1.48301e-05
-1.62976e-06
-8.36408e-07
-1.21351e-05
-1.17438e-06
-1.15475e-06
-9.48533e-06
-6.12309e-07
-1.45973e-06
-6.92463e-06
7.5677e-08
-1.74672e-06
-4.41501e-06
8.13335e-07
-2.01191e-06
-2.03233e-06
1.72004e-06
-2.25049e-06
1.64162e-07
2.79113e-06
-2.45603e-06
2.11525e-06
4.05554e-06
-2.61903e-06
3.76087e-06
5.57648e-06
-2.73117e-06
5.01435e-06
7.48551e-06
-2.77596e-06
5.69824e-06
1.01025e-05
-2.7166e-06
5.42103e-06
1.4347e-05
-2.47343e-06
3.59018e-06
2.25112e-05
-1.86865e-06
1.20847e-06
3.33341e-05
-7.80307e-07
3.18457e-05
2.24167e-07
-1.26601e-05
-1.37453e-05
4.2277e-06
-2.1955e-05
-2.08575e-05
5.63668e-06
-2.62043e-05
-2.40259e-05
5.51968e-06
-2.37588e-05
-2.56799e-05
5.19092e-06
-1.55808e-05
-2.62411e-05
4.89309e-06
-5.26776e-06
-2.57524e-05
4.62238e-06
4.51067e-06
-2.43093e-05
4.38018e-06
1.28516e-05
-2.21283e-05
4.1584e-06
1.95087e-05
-1.94305e-05
3.93606e-06
2.45087e-05
-1.64481e-05
3.69634e-06
2.78652e-05
-1.33828e-05
3.4352e-06
2.95909e-05
-1.03573e-05
3.15143e-06
2.96237e-05
-7.42153e-06
2.84804e-06
2.78885e-05
-4.66937e-06
2.53246e-06
2.46367e-05
-2.39411e-06
2.21276e-06
2.05311e-05
-8.98898e-07
1.89566e-06
1.62713e-05
-1.51214e-07
1.58457e-06
1.22623e-05
1.65889e-07
1.27874e-06
8.8546e-06
1.31846e-07
9.77332e-07
6.26634e-06
-8.73433e-08
6.78968e-07
4.56393e-06
-3.07312e-07
3.79799e-07
3.69977e-06
-3.73015e-07
6.16122e-08
3.48463e-06
-2.02126e-07
-1.97437e-07
3.7958e-06
2.26329e-07
-4.66247e-07
4.4155e-06
9.2603e-07
-7.3966e-07
5.22764e-06
1.90595e-06
-1.00903e-06
6.0765e-06
3.19193e-06
-1.26503e-06
6.84057e-06
4.77298e-06
-1.50202e-06
7.43372e-06
6.67243e-06
-1.71577e-06
7.75088e-06
9.02488e-06
-1.89089e-06
7.59017e-06
1.22133e-05
-1.99357e-06
6.55938e-06
1.72854e-05
-1.95652e-06
4.23322e-06
2.64149e-05
-1.59978e-06
1.66907e-06
3.66774e-05
-7.17429e-07
3.34302e-05
1.98832e-07
-2.87804e-06
-1.43772e-05
3.30965e-06
-4.58438e-06
-2.39378e-05
4.39757e-06
-3.91697e-06
-2.93839e-05
4.27245e-06
-1.73701e-06
-3.23396e-05
4.08372e-06
1.38892e-06
-3.36905e-05
3.94746e-06
5.46394e-06
-3.40384e-05
3.85202e-06
1.05663e-05
-3.3531e-05
3.78176e-06
1.65823e-05
-3.21752e-05
3.72641e-06
2.32344e-05
-3.00245e-05
3.68138e-06
3.01128e-05
-2.71821e-05
3.64204e-06
3.67246e-05
-2.37666e-05
3.60161e-06
4.25446e-05
-1.98634e-05
3.55333e-06
4.70487e-05
-1.551e-05
3.48814e-06
4.98042e-05
-1.08609e-05
3.38568e-06
5.05873e-05
-6.39609e-06
3.22023e-06
4.93849e-05
-2.64717e-06
2.98899e-06
4.62942e-05
2.85499e-07
2.7143e-06
4.17796e-05
2.36661e-06
2.40533e-06
3.64823e-05
3.5084e-06
2.05287e-06
3.10749e-05
3.7883e-06
1.67297e-06
2.59811e-05
3.59782e-06
1.30378e-06
2.14801e-05
3.2419e-06
9.65132e-07
1.77971e-05
2.87821e-06
6.53222e-07
1.50335e-05
2.67081e-06
3.52315e-07
1.31744e-05
2.78214e-06
2.56593e-08
1.20161e-05
3.31201e-06
-2.35018e-07
1.14125e-05
4.32554e-06
-5.29044e-07
1.11228e-05
5.89304e-06
-8.41769e-07
1.0881e-05
8.04397e-06
-1.1539e-06
1.04782e-05
1.08209e-05
-1.43402e-06
9.6585e-06
1.46055e-05
-1.64061e-06
7.941e-06
2.05927e-05
-1.70397e-06
4.9403e-06
3.0727e-05
-1.45504e-06
2.01708e-06
4.02545e-05
-7.08389e-07
3.53793e-05
1.41726e-07
-9.75266e-06
-8.17369e-06
3.13818e-06
-1.71765e-05
-2.11157e-05
3.98807e-06
-1.99604e-05
-3.07827e-05
3.59124e-06
-2.0001e-05
-3.59063e-05
3.1298e-06
-1.85576e-05
-3.82937e-05
2.78462e-06
-1.60891e-05
-3.9338e-05
2.53507e-06
-1.2695e-05
-3.95198e-05
2.36001e-06
-8.3488e-06
-3.89563e-05
2.24667e-06
-3.05768e-06
-3.76606e-05
2.19372e-06
3.08794e-06
-3.56442e-05
2.19817e-06
9.94089e-06
-3.29544e-05
2.24783e-06
1.73477e-05
-2.96571e-05
2.3283e-06
2.51877e-05
-2.58089e-05
2.42559e-06
3.32558e-05
-2.1461e-05
2.52304e-06
4.09876e-05
-1.67109e-05
2.59949e-06
4.74465e-05
-1.16989e-05
2.6362e-06
5.17616e-05
-6.57205e-06
2.62037e-06
5.32968e-05
-1.59828e-06
2.54448e-06
5.20992e-05
2.42221e-06
2.41794e-06
4.82216e-05
5.54238e-06
2.26845e-06
4.24092e-05
7.44836e-06
2.11959e-06
3.57338e-05
8.09567e-06
1.97604e-06
2.90192e-05
7.89333e-06
1.82364e-06
2.2942e-05
7.18503e-06
1.64595e-06
1.80195e-05
6.32384e-06
1.43236e-06
1.44928e-05
5.69671e-06
1.17768e-06
1.23098e-05
5.66629e-06
8.68522e-07
1.11844e-05
6.56312e-06
4.6916e-07
1.05975e-05
8.66763e-06
-4.08349e-08
9.90462e-06
1.19632e-05
-4.78694e-07
8.74944e-06
1.65647e-05
-8.8059e-07
6.6737e-06
2.3646e-05
-1.15423e-06
3.57672e-06
3.46727e-05
-1.14234e-06
1.29957e-06
4.29551e-05
-6.17546e-07
3.66069e-05
1.08278e-07
-3.86975e-06
-6.65184e-06
1.8671e-06
-2.41775e-06
-2.50363e-05
2.0643e-06
1.46029e-06
-3.67873e-05
2.00659e-06
6.05333e-06
-4.24209e-05
1.96854e-06
1.0595e-05
-4.46272e-05
1.92118e-06
1.47573e-05
-4.52018e-05
1.85951e-06
1.84336e-05
-4.48259e-05
1.79054e-06
2.16422e-05
-4.37309e-05
1.71853e-06
2.45193e-05
-4.20415e-05
1.64192e-06
2.72715e-05
-3.98471e-05
1.57111e-06
3.01125e-05
-3.72194e-05
1.52648e-06
3.32314e-05
-3.42169e-05
1.52764e-06
3.67795e-05
-3.08751e-05
1.59134e-06
4.08585e-05
-2.72055e-05
1.72812e-06
4.54878e-05
-2.32132e-05
1.92946e-06
5.05885e-05
-1.89123e-05
2.16965e-06
5.59812e-05
-1.43136e-05
2.41604e-06
6.12919e-05
-9.45135e-06
2.63419e-06
6.54973e-05
-4.42526e-06
2.79028e-06
6.7758e-05
6.50831e-07
2.85125e-06
6.70766e-05
5.55909e-06
2.7944e-06
6.35621e-05
9.13662e-06
2.66267e-06
5.77038e-05
1.14018e-05
2.51959e-06
5.02611e-05
1.23632e-05
2.39863e-06
4.20207e-05
1.23221e-05
2.30134e-06
3.37352e-05
1.17766e-05
2.18864e-06
2.61178e-05
1.12211e-05
1.99684e-06
1.97987e-05
1.1154e-05
1.64019e-06
1.51706e-05
1.21599e-05
1.03515e-06
1.20787e-05
1.46921e-05
2.5545e-07
9.67334e-06
1.92692e-05
-4.20388e-07
6.96337e-06
2.70438e-05
-8.68291e-07
3.61127e-06
3.87005e-05
-9.54436e-07
1.37952e-06
4.5576e-05
-5.87405e-07
3.79977e-05
1.5997e-08
1.2089e-05
-1.85223e-05
-2.92375e-07
2.72881e-05
-3.86702e-05
-1.35265e-06
3.84437e-05
-4.63197e-05
-1.33663e-06
4.57758e-05
-4.86939e-05
-7.91215e-07
5.06185e-05
-4.89412e-05
-2.78326e-07
5.38435e-05
-4.82537e-05
6.94235e-08
5.59735e-05
-4.69994e-05
2.85757e-07
5.73302e-05
-4.52372e-05
4.00877e-07
5.80899e-05
-4.29632e-05
4.30036e-07
5.83346e-05
-4.01836e-05
3.78867e-07
5.81305e-05
-3.69692e-05
2.55278e-07
5.75837e-05
-3.34401e-05
7.66739e-08
5.68336e-05
-2.96994e-05
-1.24733e-07
5.60421e-05
-2.58281e-05
-3.01634e-07
5.54692e-05
-2.19738e-05
-4.10559e-07
5.55428e-05
-1.83685e-05
-4.01272e-07
5.6701e-05
-1.50577e-05
-2.44073e-07
5.90795e-05
-1.17843e-05
7.90952e-08
6.24272e-05
-8.21253e-06
5.21646e-07
6.60038e-05
-3.92511e-06
1.05261e-06
6.85219e-05
1.48419e-06
1.60133e-06
6.81828e-05
7.49452e-06
2.02657e-06
6.51989e-05
1.21746e-05
2.24854e-06
6.03011e-05
1.49727e-05
2.30298e-06
5.39362e-05
1.64103e-05
2.26827e-06
4.64106e-05
1.70702e-05
2.20336e-06
3.82135e-05
1.72208e-05
2.14478e-06
3.00487e-05
1.7168e-05
2.07487e-06
2.28042e-05
1.74369e-05
1.88146e-06
1.71593e-05
1.88382e-05
1.41485e-06
1.29952e-05
2.27019e-05
6.5134e-07
9.4465e-06
3.06649e-05
-1.44539e-07
5.69263e-06
4.29002e-05
-5.34343e-07
2.60986e-06
4.90449e-05
-4.31005e-07
4.06522e-05
2.95658e-08
1.4437e-05
-3.15169e-05
-1.2005e-06
2.63819e-05
-4.74128e-05
-2.76452e-06
3.47119e-05
-5.09344e-05
-3.3911e-06
4.03998e-05
-5.11987e-05
-2.9957e-06
4.43166e-05
-5.0416e-05
-2.34263e-06
4.6965e-05
-4.90657e-05
-1.7918e-06
4.86004e-05
-4.72413e-05
-1.38624e-06
4.93542e-05
-4.49164e-05
-1.09509e-06
4.9276e-05
-4.20374e-05
-8.90631e-07
4.84439e-05
-3.86511e-05
-7.61612e-07
4.70749e-05
-3.49711e-05
-7.02172e-07
4.54217e-05
-3.11527e-05
-7.05398e-07
4.35974e-05
-2.71473e-05
-7.76808e-07
4.15873e-05
-2.28814e-05
-9.39552e-07
3.94165e-05
-1.85428e-05
-1.20195e-06
3.72927e-05
-1.46481e-05
-1.49016e-06
3.55487e-05
-1.14987e-05
-1.6868e-06
3.44451e-05
-8.80636e-06
-1.73411e-06
3.39481e-05
-5.98614e-06
-1.58601e-06
3.35496e-05
-2.27457e-06
-1.13333e-06
3.26402e-05
2.8222e-06
-3.46775e-07
3.11382e-05
8.63693e-06
4.12911e-07
2.91044e-05
1.33327e-05
8.99261e-07
2.6936e-05
1.60225e-05
1.10483e-06
2.47044e-05
1.74417e-05
1.16468e-06
2.22601e-05
1.8301e-05
1.17025e-06
1.94078e-05
1.88563e-05
1.16103e-06
1.60618e-05
1.92814e-05
1.15552e-06
1.24046e-05
1.98769e-05
1.1287e-06
8.88239e-06
2.12898e-05
9.89031e-07
5.78033e-06
2.51893e-05
5.64289e-07
3.05969e-06
3.35064e-05
-5.61785e-08
9.83922e-07
4.56227e-05
-4.64668e-07
3.12631e-07
5.03085e-05
-4.30355e-07
4.11536e-05
-6.98407e-08
9.49644e-06
-3.9403e-05
-1.22177e-06
1.39752e-05
-4.96607e-05
-1.92534e-06
1.62232e-05
-5.03295e-05
-2.68168e-06
1.76263e-05
-4.95211e-05
-2.94399e-06
1.83465e-05
-4.80915e-05
-2.89762e-06
1.83605e-05
-4.6146e-05
-2.76338e-06
1.75723e-05
-4.36245e-05
-2.63e-06
1.58049e-05
-4.03863e-05
-2.53671e-06
1.28862e-05
-3.63698e-05
-2.50942e-06
8.93353e-06
-3.19251e-05
-2.55202e-06
4.6254e-06
-2.78968e-05
-2.5997e-06
8.62622e-07
-2.47345e-05
-2.56483e-06
-1.75947e-06
-2.20688e-05
-2.44499e-06
-2.95505e-06
-1.94275e-05
-2.31534e-06
-2.70214e-06
-1.66327e-05
-2.26149e-06
-1.35792e-06
-1.38112e-05
-2.28657e-06
4.44209e-07
-1.10849e-05
-2.30754e-06
2.10625e-06
-8.28162e-06
-2.26003e-06
3.16668e-06
-5.00922e-06
-2.0931e-06
3.32989e-06
-7.74641e-07
-1.70508e-06
3.18647e-06
3.96933e-06
-1.0403e-06
3.25527e-06
8.83921e-06
-3.0724e-07
3.86849e-06
1.2525e-05
1.54805e-07
4.79344e-06
1.47083e-05
3.41036e-07
5.69532e-06
1.6055e-05
4.29906e-07
6.41454e-06
1.70437e-05
4.82074e-07
6.82321e-06
1.78732e-05
5.17262e-07
6.81662e-06
1.86822e-05
5.43068e-07
6.37097e-06
1.97032e-05
5.52845e-07
5.48838e-06
2.1593e-05
5.17188e-07
4.0149e-06
2.63019e-05
3.08708e-07
1.73075e-06
3.59553e-05
-1.50021e-07
-5.23879e-08
4.80874e-05
-5.07901e-07
-4.41697e-08
5.10154e-05
-5.12753e-07
4.14845e-05
-2.23834e-07
-3.01329e-06
-3.61005e-05
-2.9167e-07
-5.53204e-06
-4.676e-05
-4.7405e-07
-6.92978e-06
-4.78105e-05
-1.24508e-06
-7.34083e-06
-4.73534e-05
-1.89702e-06
-7.16051e-06
-4.61518e-05
-2.27071e-06
-6.76616e-06
-4.42612e-05
-2.42674e-06
-6.46442e-06
-4.15941e-05
-2.46546e-06
-6.43015e-06
-3.80613e-05
-2.47308e-06
-6.69202e-06
-3.36557e-05
-2.54463e-06
-7.28737e-06
-2.86568e-05
-2.74029e-06
-8.39578e-06
-2.38664e-05
-2.9654e-06
-1.00655e-05
-2.0035e-05
-3.06184e-06
-1.19099e-05
-1.72337e-05
-3.02299e-06
-1.33343e-05
-1.51338e-05
-2.90705e-06
-1.39308e-05
-1.33246e-05
-2.75729e-06
-1.37328e-05
-1.1466e-05
-2.59819e-06
-1.31319e-05
-9.31865e-06
-2.43159e-06
-1.25916e-05
-6.66418e-06
-2.23088e-06
-1.24711e-05
-3.26362e-06
-1.94612e-06
-1.26409e-05
8.53725e-07
-1.541e-06
-1.25173e-05
4.83348e-06
-1.06644e-06
-1.13815e-05
8.29581e-06
-6.63115e-07
-9.30978e-06
1.07901e-05
-4.03669e-07
-6.94364e-06
1.25233e-05
-2.47817e-07
-4.66104e-06
1.38469e-05
-1.41401e-07
-2.60932e-06
1.49787e-05
-5.34822e-08
-8.68204e-07
1.60418e-05
2.36386e-08
5.0566e-07
1.71552e-05
8.74253e-08
1.44059e-06
1.85592e-05
1.49513e-07
1.83221e-06
2.09761e-05
1.90259e-07
1.47454e-06
2.65608e-05
1.20035e-07
5.12693e-08
3.76859e-05
-2.20643e-07
-9.73954e-07
4.98008e-05
-5.05689e-07
-3.79075e-07
5.11751e-05
-5.53265e-07
4.15978e-05
-3.3093e-07
-5.91344e-06
-3.07806e-05
3.07841e-07
-8.95017e-06
-4.42867e-05
3.25304e-07
-1.01268e-05
-4.68047e-05
-1.7258e-08
-1.01893e-05
-4.70228e-05
-4.42544e-07
-9.46308e-06
-4.62113e-05
-8.43105e-07
-8.30763e-06
-4.44762e-05
-1.12791e-06
-6.95823e-06
-4.18796e-05
-1.27372e-06
-5.30254e-06
-3.86583e-05
-1.30255e-06
-2.91222e-06
-3.50543e-05
-1.27027e-06
4.68345e-07
-3.10625e-05
-1.26495e-06
4.28811e-06
-2.65726e-05
-1.37218e-06
7.38976e-06
-2.17496e-05
-1.58312e-06
8.94458e-06
-1.71197e-05
-1.80251e-06
8.9686e-06
-1.32979e-05
-1.95036e-06
8.03723e-06
-1.04586e-05
-1.99991e-06
6.72623e-06
-8.24667e-06
-1.95942e-06
5.41356e-06
-6.20298e-06
-1.8457e-06
4.35473e-06
-3.97526e-06
-1.66779e-06
3.80538e-06
-1.32444e-06
-1.42427e-06
3.70411e-06
2.04605e-06
-1.12313e-06
3.65881e-06
5.66436e-06
-8.17246e-07
3.8449e-06
8.65672e-06
-5.81713e-07
4.25949e-06
1.07674e-05
-4.31424e-07
4.82739e-06
1.22487e-05
-3.36808e-07
5.47061e-06
1.34295e-05
-2.71854e-07
6.10592e-06
1.45161e-05
-2.20908e-07
6.64079e-06
1.56296e-05
-1.73541e-07
6.96873e-06
1.68962e-05
-1.23528e-07
6.95996e-06
1.85783e-05
-6.87733e-08
6.43717e-06
2.14484e-05
-7.52795e-09
5.09063e-06
2.78563e-05
9.04051e-09
2.76217e-06
4.02064e-05
-1.99998e-07
1.04821e-06
5.2009e-05
-4.2746e-07
5.5504e-07
5.23015e-05
-5.15958e-07
4.26293e-05
-3.41152e-07
1.15488e-06
-3.20378e-05
5.07776e-08
2.42084e-06
-4.55582e-05
-6.50139e-10
3.60972e-06
-4.7917e-05
-4.52556e-08
4.89561e-06
-4.80265e-05
-2.36865e-07
6.39694e-06
-4.71473e-05
-5.14225e-07
8.11114e-06
-4.52981e-05
-8.3217e-07
9.85039e-06
-4.24218e-05
-1.12475e-06
1.13716e-05
-3.87805e-05
-1.32269e-06
1.26805e-05
-3.49252e-05
-1.37955e-06
1.41283e-05
-3.12147e-05
-1.28297e-06
1.60523e-05
-2.74679e-05
-1.07903e-06
1.8245e-05
-2.31347e-05
-9.05284e-07
1.98665e-05
-1.79322e-05
-9.12524e-07
2.00375e-05
-1.2436e-05
-1.11273e-06
1.87088e-05
-7.82204e-06
-1.36459e-06
1.65808e-05
-4.62393e-06
-1.53997e-06
1.43653e-05
-2.42458e-06
-1.60351e-06
1.24823e-05
-5.71543e-07
-1.55791e-06
1.10833e-05
1.44595e-06
-1.40346e-06
1.02944e-05
3.95901e-06
-1.14998e-06
9.96352e-06
6.83235e-06
-8.59336e-07
9.80277e-06
9.41763e-06
-6.23615e-07
9.73021e-06
1.12831e-05
-4.71266e-07
9.73482e-06
1.25862e-05
-3.74473e-07
9.79981e-06
1.36357e-05
-3.06146e-07
9.89071e-06
1.46404e-05
-2.51947e-07
9.95939e-06
1.57255e-05
-2.04084e-07
9.94313e-06
1.70261e-05
-1.58466e-07
9.73116e-06
1.88483e-05
-1.14686e-07
9.03356e-06
2.21292e-05
-7.08484e-08
7.15524e-06
2.9615e-05
-3.73336e-08
4.24873e-06
4.30964e-05
-1.54394e-07
2.16908e-06
5.43591e-05
-3.30482e-07
9.42629e-07
5.39998e-05
-4.42877e-07
4.39817e-05
-3.13014e-07
6.05222e-08
-3.21636e-05
1.3459e-08
1.20961e-06
-4.68003e-05
5.70303e-08
2.92364e-06
-4.99355e-05
2.84166e-07
4.8839e-06
-5.03412e-05
3.35145e-07
7.05066e-06
-4.95842e-05
2.45182e-07
9.3847e-06
-4.77043e-05
4.71803e-08
1.16791e-05
-4.44792e-05
-2.43706e-07
1.36475e-05
-4.0128e-05
-5.9147e-07
1.50752e-05
-3.53628e-05
-9.23038e-07
1.5981e-05
-3.08705e-05
-1.16314e-06
1.6772e-05
-2.69342e-05
-1.24776e-06
1.80319e-05
-2.32296e-05
-1.131e-06
1.98782e-05
-1.89407e-05
-8.63979e-07
2.1532e-05
-1.34784e-05
-6.76908e-07
2.20085e-05
-7.62339e-06
-7.42511e-07
2.12247e-05
-2.94394e-06
-9.49122e-07
1.98308e-05
5.29961e-08
-1.12583e-06
1.82332e-05
2.20131e-06
-1.21051e-06
1.6886e-05
3.95516e-06
-1.18966e-06
1.6007e-05
5.8668e-06
-1.0467e-06
1.55288e-05
8.10427e-06
-8.0483e-07
1.51651e-05
1.03424e-05
-5.74749e-07
1.47226e-05
1.2132e-05
-4.27592e-07
1.41975e-05
1.34252e-05
-3.40463e-07
1.36417e-05
1.4446e-05
-2.83467e-07
1.30873e-05
1.54076e-05
-2.43332e-07
1.25389e-05
1.64523e-05
-2.11766e-07
1.19771e-05
1.773e-05
-1.82552e-07
1.1331e-05
1.95881e-05
-1.54388e-07
1.0288e-05
2.31648e-05
-1.24285e-07
7.86727e-06
3.17948e-05
-9.56814e-08
4.26706e-06
4.63974e-05
-1.88207e-07
2.05104e-06
5.66489e-05
-3.25659e-07
6.80799e-07
5.57007e-05
-4.47614e-07
4.49772e-05
-3.40086e-07
3.21469e-06
-3.4989e-05
-3.74264e-07
6.8563e-06
-4.98403e-05
-5.74766e-07
9.79857e-06
-5.25913e-05
-2.79565e-07
1.21689e-05
-5.2709e-05
-1.13438e-08
1.41048e-05
-5.16311e-05
9.31501e-08
1.54444e-05
-4.91321e-05
7.32661e-08
1.59375e-05
-4.48881e-05
-8.66591e-08
1.57924e-05
-3.96389e-05
-3.37354e-07
1.5438e-05
-3.43968e-05
-5.95928e-07
1.50516e-05
-2.96239e-05
-8.26256e-07
1.46354e-05
-2.54567e-05
-1.00497e-06
1.43743e-05
-2.1803e-05
-1.09494e-06
1.47316e-05
-1.82025e-05
-1.03141e-06
1.59067e-05
-1.38202e-05
-8.06181e-07
1.72187e-05
-8.3029e-06
-6.49985e-07
1.78761e-05
-2.91094e-06
-7.30912e-07
1.77457e-05
1.05263e-06
-9.15173e-07
1.73156e-05
3.64568e-06
-1.06061e-06
1.68465e-05
5.50999e-06
-1.13086e-06
1.65666e-05
7.2246e-06
-1.11874e-06
1.65248e-05
9.12045e-06
-1.00599e-06
1.64694e-05
1.1179e-05
-8.02804e-07
1.6147e-05
1.30247e-05
-5.88159e-07
1.55541e-05
1.44232e-05
-4.24958e-07
1.4788e-05
1.5502e-05
-3.12424e-07
1.39275e-05
1.64771e-05
-2.33132e-07
1.30125e-05
1.75178e-05
-1.76316e-07
1.20474e-05
1.87983e-05
-1.3425e-07
1.09794e-05
2.07096e-05
-1.02819e-07
9.55475e-06
2.45455e-05
-7.83948e-08
7.04682e-06
3.39922e-05
-5.61049e-08
3.33827e-06
4.95846e-05
-1.64154e-07
1.31979e-06
5.8585e-05
-3.14124e-07
2.01803e-07
5.70473e-05
-4.71613e-07
4.54087e-05
-3.87551e-07
2.39007e-06
-3.69523e-05
-4.08385e-07
5.87776e-06
-5.29418e-05
-3.73285e-07
9.41782e-06
-5.58345e-05
-2.90753e-07
1.26878e-05
-5.58251e-05
-1.53954e-07
1.54486e-05
-5.43329e-05
-6.10521e-08
1.72075e-05
-5.07788e-05
-1.02049e-07
1.7539e-05
-4.48593e-05
-3.28021e-07
1.6865e-05
-3.83009e-05
-6.29081e-07
1.59284e-05
-3.25742e-05
-8.71769e-07
1.51677e-05
-2.78565e-05
-1.01878e-06
1.45897e-05
-2.38136e-05
-1.09025e-06
1.40367e-05
-2.01657e-05
-1.10423e-06
1.35234e-05
-1.66446e-05
-1.04597e-06
1.33444e-05
-1.27617e-05
-8.61156e-07
1.35547e-05
-7.9013e-06
-5.96303e-07
1.3673e-05
-2.53008e-06
-5.05486e-07
1.35114e-05
1.82042e-06
-6.29404e-07
1.31168e-05
4.81195e-06
-8.01791e-07
1.24885e-05
7.03361e-06
-9.26605e-07
1.17207e-05
8.94286e-06
-9.78509e-07
1.09811e-05
1.07821e-05
-9.42895e-07
1.04068e-05
1.25619e-05
-8.22627e-07
9.9652e-06
1.41202e-05
-6.67227e-07
9.52391e-06
1.53751e-05
-5.2804e-07
8.99001e-06
1.64288e-05
-4.14386e-07
8.32783e-06
1.74347e-05
-3.18291e-07
7.53146e-06
1.85278e-05
-2.35151e-07
6.60841e-06
1.9867e-05
-1.62735e-07
5.57967e-06
2.18305e-05
-9.9267e-08
4.48246e-06
2.56974e-05
-4.04797e-08
3.31196e-06
3.51343e-05
1.22977e-08
1.27461e-06
5.13203e-05
-5.58852e-08
8.65032e-08
5.96693e-05
-2.17498e-07
-4.06372e-07
5.77245e-05
-4.10122e-07
4.52318e-05
-3.65527e-07
1.75865e-06
-3.8832e-05
4.4125e-08
4.69494e-06
-5.65183e-05
5.52262e-07
8.02482e-06
-5.97895e-05
5.64528e-07
1.12803e-05
-5.96101e-05
4.89672e-07
1.4e-05
-5.74672e-05
3.97452e-07
1.5314e-05
-5.22869e-05
2.17226e-07
1.48813e-05
-4.42076e-05
-1.47179e-07
1.34946e-05
-3.62417e-05
-5.75567e-07
1.19155e-05
-3.00087e-05
-8.93473e-07
1.05559e-05
-2.53491e-05
-1.07892e-06
9.54942e-06
-2.16118e-05
-1.15907e-06
8.83199e-06
-1.82837e-05
-1.1584e-06
8.30068e-06
-1.50458e-05
-1.08069e-06
7.97644e-06
-1.15551e-05
-8.98706e-07
7.94571e-06
-7.28583e-06
-5.90928e-07
7.76784e-06
-2.03152e-06
-3.22871e-07
6.91094e-06
2.95895e-06
-2.90306e-07
5.61506e-06
6.48702e-06
-3.92911e-07
4.37038e-06
8.75731e-06
-4.93616e-07
3.3937e-06
1.04532e-05
-5.47221e-07
2.76936e-06
1.19431e-05
-5.49272e-07
2.505e-06
1.33243e-05
-5.11774e-07
2.48304e-06
1.45819e-05
-4.5668e-07
2.51845e-06
1.57191e-05
-4.00848e-07
2.47128e-06
1.67981e-05
-3.47869e-07
2.2627e-06
1.79097e-05
-2.95307e-07
1.84779e-06
1.91549e-05
-2.40604e-07
1.205e-06
2.06723e-05
-1.80608e-07
3.85893e-07
2.27843e-05
-1.11257e-07
-2.64744e-07
2.65492e-05
-2.69071e-08
1.1392e-07
3.51963e-05
9.2125e-08
5.23379e-07
5.13118e-05
1.35756e-07
7.17656e-08
6.0195e-05
1.96666e-08
-2.19435e-07
5.82015e-05
-1.6214e-07
4.52875e-05
-1.93075e-07
3.72485e-06
-4.29073e-05
3.50811e-07
7.12734e-06
-6.09397e-05
9.76418e-07
1.01205e-05
-6.38204e-05
9.78798e-07
1.28002e-05
-6.31538e-05
8.08074e-07
1.47206e-05
-5.9993e-05
5.67203e-07
1.49316e-05
-5.26984e-05
1.9853e-07
1.34927e-05
-4.23438e-05
-3.88463e-07
1.15758e-05
-3.33305e-05
-9.44607e-07
9.93917e-06
-2.70251e-05
-1.29913e-06
8.70938e-06
-2.26026e-05
-1.47395e-06
7.79606e-06
-1.91278e-05
-1.53446e-06
7.10315e-06
-1.60411e-05
-1.52303e-06
6.62783e-06
-1.31046e-05
-1.45239e-06
6.55264e-06
-1.01771e-05
-1.30366e-06
7.17307e-06
-6.90051e-06
-1.01518e-06
8.39954e-06
-2.71034e-06
-5.54035e-07
9.1053e-06
2.39244e-06
-1.41524e-07
8.59918e-06
6.98026e-06
6.54818e-09
7.36425e-06
9.98541e-06
-4.25392e-09
6.07687e-06
1.17748e-05
-4.74276e-08
5.07946e-06
1.30054e-05
-7.91795e-08
4.42672e-06
1.40578e-05
-9.63886e-08
4.02971e-06
1.50644e-05
-1.03566e-07
3.76157e-06
1.60726e-05
-1.06832e-07
3.51682e-06
1.71273e-05
-1.09644e-07
3.21982e-06
1.82905e-05
-1.12768e-07
2.81112e-06
1.96468e-05
-1.1512e-07
2.23773e-06
2.13293e-05
-1.13104e-07
1.48896e-06
2.36303e-05
-9.92703e-08
8.10549e-07
2.74203e-05
-5.8226e-08
1.13805e-06
3.54034e-05
6.57192e-08
2.31806e-06
5.09477e-05
2.64536e-07
1.72389e-06
6.1052e-05
2.65213e-07
8.37833e-07
5.92671e-05
1.63623e-07
4.63983e-05
4.55809e-08
1.92172e-06
-4.58729e-05
9.80559e-07
2.8119e-06
-6.37761e-05
1.83781e-06
3.41775e-06
-6.6358e-05
1.82642e-06
4.04842e-06
-6.54562e-05
1.57894e-06
4.60051e-06
-6.1859e-05
1.23529e-06
4.95995e-06
-5.38446e-05
7.25235e-07
5.06385e-06
-4.24641e-05
-4.18798e-09
5.11078e-06
-3.26232e-05
-7.5718e-07
5.38849e-06
-2.60774e-05
-1.23791e-06
5.95131e-06
-2.16911e-05
-1.50048e-06
6.63569e-06
-1.82099e-05
-1.63604e-06
7.16296e-06
-1.4904e-05
-1.69913e-06
7.22353e-06
-1.14826e-05
-1.7149e-06
6.70717e-06
-8.00578e-06
-1.6852e-06
5.94423e-06
-4.58412e-06
-1.58333e-06
5.54096e-06
-9.96924e-07
-1.3393e-06
5.66667e-06
3.14759e-06
-9.05135e-07
5.83301e-06
7.25513e-06
-4.59594e-07
5.75167e-06
1.02371e-05
-1.85171e-07
5.54316e-06
1.20287e-05
-6.01587e-08
5.35194e-06