/*--------------------------------*- C++ -*----------------------------------*\
| =========                 |                                                 |
| \\      /  F ield         | OpenFOAM: The Open Source CFD Toolbox           |
|  \\    /   O peration     | Version:  v1912                                 |
|   \\  /    A nd           | Website:  www.openfoam.com                      |
|    \\/     M anipulation  |                                                 |
\*---------------------------------------------------------------------------*/
FoamFile
{
    version     2.0;
    format      ascii;
    class       volVectorField;
    location    "500/oil";
    object      U;
}
// * * * * * * * * * * * * * * * * * * * * * * * * * * * * * * * * * * * * * //

dimensions      [0 1 -1 0 0 0 0];


internalField   nonuniform List<vector> 
35580
(
(-1.2403e-09 2.46944e-09 -1.26474e-09)
(1.26177e-09 2.24524e-09 -3.03769e-09)
(1.1644e-08 2.21477e-09 -4.88573e-09)
(2.79978e-08 2.76536e-09 -6.75689e-09)
(4.78819e-08 3.64432e-09 -8.26388e-09)
(6.85122e-08 4.67938e-09 -9.27848e-09)
(8.73131e-08 5.77192e-09 -9.79079e-09)
(1.02048e-07 6.8755e-09 -9.85838e-09)
(1.10891e-07 7.96169e-09 -9.56831e-09)
(1.12624e-07 9.00161e-09 -9.00262e-09)
(1.06583e-07 9.94104e-09 -8.23537e-09)
(9.2819e-08 1.07361e-08 -7.46948e-09)
(7.21673e-08 1.13589e-08 -6.75801e-09)
(4.59229e-08 1.18322e-08 -6.25073e-09)
(1.61074e-08 1.20928e-08 -5.98537e-09)
(-1.50112e-08 1.21241e-08 -5.99071e-09)
(-4.49171e-08 1.18517e-08 -6.25046e-09)
(-7.1217e-08 1.13702e-08 -6.74271e-09)
(-9.19973e-08 1.07081e-08 -7.42329e-09)
(-1.0589e-07 9.92816e-09 -8.19977e-09)
(-1.12148e-07 9.0043e-09 -8.95892e-09)
(-1.10586e-07 7.9518e-09 -9.55003e-09)
(-1.01847e-07 6.86491e-09 -9.83935e-09)
(-8.72091e-08 5.76423e-09 -9.78115e-09)
(-6.84789e-08 4.67136e-09 -9.27091e-09)
(-4.79055e-08 3.63949e-09 -8.25685e-09)
(-2.80559e-08 2.76097e-09 -6.74601e-09)
(-1.171e-08 2.20409e-09 -4.86438e-09)
(-1.318e-09 2.22269e-09 -3.01113e-09)
(1.21504e-09 2.42333e-09 -1.24556e-09)
(6.36242e-10 -2.30946e-09 6.21553e-10)
(1.2784e-08 -1.41439e-08 5.3582e-10)
(3.72519e-08 -2.35921e-08 -3.21057e-10)
(7.13449e-08 -2.87197e-08 -1.44136e-09)
(1.11017e-07 -3.0346e-08 -2.268e-09)
(1.51507e-07 -2.93458e-08 -2.55323e-09)
(1.88036e-07 -2.64419e-08 -2.23941e-09)
(2.16301e-07 -2.21761e-08 -1.36932e-09)
(2.32736e-07 -1.70079e-08 -4.64027e-11)
(2.3483e-07 -1.13689e-08 1.57698e-09)
(2.21206e-07 -5.7098e-09 3.47708e-09)
(1.91893e-07 -5.20047e-10 5.25891e-09)
(1.48709e-07 3.76185e-09 6.8247e-09)
(9.4494e-08 6.8892e-09 7.94892e-09)
(3.31191e-08 8.54847e-09 8.54235e-09)
(-3.09076e-08 8.58374e-09 8.5616e-09)
(-9.24875e-08 6.8564e-09 7.9764e-09)
(-1.46799e-07 3.66694e-09 6.88672e-09)
(-1.89998e-07 -7.08677e-10 5.36066e-09)
(-2.19401e-07 -5.84027e-09 3.58037e-09)
(-2.33395e-07 -1.14914e-08 1.71206e-09)
(-2.31614e-07 -1.71211e-08 4.7548e-11)
(-2.15436e-07 -2.22532e-08 -1.28069e-09)
(-1.87454e-07 -2.64905e-08 -2.16948e-09)
(-1.51169e-07 -2.93939e-08 -2.49475e-09)
(-1.1088e-07 -3.0411e-08 -2.21546e-09)
(-7.13494e-08 -2.88193e-08 -1.3987e-09)
(-3.73083e-08 -2.37289e-08 -2.84393e-10)
(-1.28183e-08 -1.42847e-08 5.56232e-10)
(-6.42853e-10 -2.42793e-09 6.11556e-10)
(2.49759e-09 -2.28101e-08 2.49468e-09)
(2.50954e-08 -6.04087e-08 4.41912e-09)
(6.14354e-08 -8.82629e-08 4.82531e-09)
(1.08171e-07 -1.0598e-07 4.76486e-09)
(1.60384e-07 -1.15414e-07 4.85993e-09)
(2.12619e-07 -1.18349e-07 5.39738e-09)
(2.5914e-07 -1.16329e-07 6.47958e-09)
(2.94619e-07 -1.10611e-07 8.09724e-09)
(3.14577e-07 -1.02284e-07 1.01493e-08)
(3.15829e-07 -9.23618e-08 1.24549e-08)
(2.96539e-07 -8.18591e-08 1.49991e-08)
(2.56654e-07 -7.18702e-08 1.73556e-08)
(1.98557e-07 -6.34902e-08 1.93484e-08)
(1.26026e-07 -5.74206e-08 2.07895e-08)
(4.41392e-08 -5.42104e-08 2.15546e-08)
(-4.12916e-08 -5.42236e-08 2.16052e-08)
(-1.23509e-07 -5.75802e-08 2.08283e-08)
(-1.96161e-07 -6.38354e-08 1.94066e-08)
(-2.54206e-07 -7.23419e-08 1.74138e-08)
(-2.94293e-07 -8.22633e-08 1.50994e-08)
(-3.1406e-07 -9.27274e-08 1.25811e-08)
(-3.13183e-07 -1.02557e-07 1.02319e-08)
(-2.93553e-07 -1.10799e-07 8.17619e-09)
(-2.5841e-07 -1.1646e-07 6.55171e-09)
(-2.12194e-07 -1.18464e-07 5.46229e-09)
(-1.60204e-07 -1.15556e-07 4.92385e-09)
(-1.08154e-07 -1.06183e-07 4.81916e-09)
(-6.1487e-08 -8.85287e-08 4.86252e-09)
(-2.51472e-08 -6.06609e-08 4.4242e-09)
(-2.51904e-09 -2.29673e-08 2.47004e-09)
(3.99352e-09 -5.65656e-08 3.98324e-09)
(3.54185e-08 -1.31872e-07 7.38294e-09)
(8.16929e-08 -1.84911e-07 8.65426e-09)
(1.38381e-07 -2.20133e-07 9.30413e-09)
(1.99808e-07 -2.41262e-07 1.00617e-08)
(2.60122e-07 -2.51201e-07 1.12084e-08)
(3.1313e-07 -2.52396e-07 1.28557e-08)
(3.53015e-07 -2.46888e-07 1.50052e-08)
(3.74797e-07 -2.36508e-07 1.75637e-08)
(3.74857e-07 -2.22965e-07 2.03451e-08)
(3.51042e-07 -2.07981e-07 2.32852e-08)
(3.03305e-07 -1.93206e-07 2.60135e-08)
(2.34415e-07 -1.80509e-07 2.83388e-08)
(1.48617e-07 -1.71174e-07 2.99803e-08)
(5.20053e-08 -1.66257e-07 3.08394e-08)
(-4.87879e-08 -1.6633e-07 3.09038e-08)
(-1.4583e-07 -1.71382e-07 2.99978e-08)
(-2.31689e-07 -1.80855e-07 2.83509e-08)
(-3.00531e-07 -1.93584e-07 2.60405e-08)
(-3.48493e-07 -2.08301e-07 2.33521e-08)
(-3.72761e-07 -2.23254e-07 2.04053e-08)
(-3.73101e-07 -2.36718e-07 1.75973e-08)
(-3.51705e-07 -2.47033e-07 1.50425e-08)
(-3.12194e-07 -2.52495e-07 1.28944e-08)
(-2.5953e-07 -2.51303e-07 1.12521e-08)
(-1.99523e-07 -2.41421e-07 1.01136e-08)
(-1.38317e-07 -2.20382e-07 9.34339e-09)
(-8.17264e-08 -1.85222e-07 8.66462e-09)
(-3.54844e-08 -1.32137e-07 7.3584e-09)
(-4.02967e-09 -5.67702e-08 3.94302e-09)
(5.05308e-09 -1.00745e-07 5.041e-09)
(4.32124e-08 -2.23194e-07 9.43231e-09)
(9.73102e-08 -3.06546e-07 1.12509e-08)
(1.6179e-07 -3.62664e-07 1.23448e-08)
(2.30236e-07 -3.98157e-07 1.35139e-08)
(2.96503e-07 -4.17367e-07 1.50789e-08)
(3.5413e-07 -4.23739e-07 1.71347e-08)
(3.97045e-07 -4.20122e-07 1.96969e-08)
(4.19983e-07 -4.09088e-07 2.26698e-08)
(4.19067e-07 -3.93058e-07 2.58706e-08)
(3.91939e-07 -3.74461e-07 2.91491e-08)
(3.38446e-07 -3.55508e-07 3.22208e-08)
(2.61427e-07 -3.38797e-07 3.48653e-08)
(1.65626e-07 -3.26246e-07 3.66924e-08)
(5.79322e-08 -3.19657e-07 3.76478e-08)
(-5.44266e-08 -3.19763e-07 3.77259e-08)
(-1.62614e-07 -3.26415e-07 3.67158e-08)
(-2.58354e-07 -3.38921e-07 3.4869e-08)
(-3.35371e-07 -3.55608e-07 3.22777e-08)
(-3.89151e-07 -3.74523e-07 2.92162e-08)
(-4.16753e-07 -3.93117e-07 2.59196e-08)
(-4.18119e-07 -4.09132e-07 2.27062e-08)
(-3.956e-07 -4.2017e-07 1.97376e-08)
(-3.53077e-07 -4.23791e-07 1.71754e-08)
(-2.95802e-07 -4.17456e-07 1.51151e-08)
(-2.29853e-07 -3.98309e-07 1.35499e-08)
(-1.61665e-07 -3.62914e-07 1.23566e-08)
(-9.73285e-08 -3.0683e-07 1.12217e-08)
(-4.33001e-08 -2.23349e-07 9.35654e-09)
(-5.11076e-09 -1.00985e-07 4.97704e-09)
(5.73037e-09 -1.52336e-07 5.74458e-09)
(4.8551e-08 -3.28812e-07 1.07494e-08)
(1.08314e-07 -4.46305e-07 1.28764e-08)
(1.78493e-07 -5.25757e-07 1.42293e-08)
(2.52043e-07 -5.77488e-07 1.56525e-08)
(3.22617e-07 -6.07678e-07 1.74979e-08)
(3.8359e-07 -6.20887e-07 1.98649e-08)
(4.28742e-07 -6.20785e-07 2.27808e-08)
(4.52626e-07 -6.10657e-07 2.61397e-08)
(4.51159e-07 -5.93588e-07 2.97641e-08)
(4.21904e-07 -5.72672e-07 3.34222e-08)
(3.64491e-07 -5.50734e-07 3.69018e-08)
(2.81507e-07 -5.30818e-07 3.98933e-08)
(1.78297e-07 -5.15507e-07 4.19515e-08)
(6.23238e-08 -5.07439e-07 4.30112e-08)
(-5.86219e-08 -5.07531e-07 4.30847e-08)
(-1.75144e-07 -5.15652e-07 4.19593e-08)
(-2.78192e-07 -5.30726e-07 3.98922e-08)
(-3.61192e-07 -5.5068e-07 3.69928e-08)
(-4.18946e-07 -5.72603e-07 3.35089e-08)
(-4.48712e-07 -5.93522e-07 2.98319e-08)
(-4.50664e-07 -6.1061e-07 2.61979e-08)
(-4.2722e-07 -6.2078e-07 2.28374e-08)
(-3.82477e-07 -6.20918e-07 1.99266e-08)
(-3.21856e-07 -6.0776e-07 1.75447e-08)
(-2.51593e-07 -5.7762e-07 1.56894e-08)
(-1.78311e-07 -5.25953e-07 1.42255e-08)
(-1.08316e-07 -4.46491e-07 1.28128e-08)
(-4.86727e-08 -3.2881e-07 1.06271e-08)
(-5.81541e-09 -1.52601e-07 5.65862e-09)
(6.11748e-09 -2.08637e-07 6.13856e-09)
(5.17067e-08 -4.43791e-07 1.14756e-08)
(1.14934e-07 -5.98027e-07 1.37868e-08)
(1.88611e-07 -7.02477e-07 1.52833e-08)
(2.65309e-07 -7.71839e-07 1.68654e-08)
(3.38548e-07 -8.14429e-07 1.89246e-08)
(4.01652e-07 -8.36054e-07 2.1553e-08)
(4.48337e-07 -8.41219e-07 2.47942e-08)
(4.73043e-07 -8.33868e-07 2.85282e-08)
(4.71527e-07 -8.17656e-07 3.25782e-08)
(4.41258e-07 -7.96227e-07 3.66569e-08)
(3.81633e-07 -7.72998e-07 4.0554e-08)
(2.94895e-07 -7.51271e-07 4.3933e-08)
(1.86779e-07 -7.33967e-07 4.62435e-08)
(6.52431e-08 -7.24722e-07 4.73848e-08)
(-6.14024e-08 -7.24764e-07 4.74604e-08)
(-1.83548e-07 -7.34163e-07 4.62286e-08)
(-2.91476e-07 -7.51091e-07 4.39485e-08)
(-3.78223e-07 -7.72936e-07 4.06845e-08)
(-4.38216e-07 -7.96161e-07 3.6779e-08)
(-4.69021e-07 -8.17586e-07 3.2677e-08)
(-4.71045e-07 -8.33827e-07 2.86129e-08)
(-4.46787e-07 -8.41229e-07 2.48692e-08)
(-4.00517e-07 -8.361e-07 2.16293e-08)
(-3.37761e-07 -8.14508e-07 1.89765e-08)
(-2.6482e-07 -7.71934e-07 1.6905e-08)
(-1.88386e-07 -7.02572e-07 1.52621e-08)
(-1.1491e-07 -5.98003e-07 1.36827e-08)
(-5.18391e-08 -4.4354e-07 1.13227e-08)
(-6.21092e-09 -2.08969e-07 6.0471e-09)
(6.23485e-09 -2.67225e-07 6.28139e-09)
(5.28021e-08 -5.63507e-07 1.17351e-08)
(1.17252e-07 -7.55853e-07 1.41236e-08)
(1.92092e-07 -8.86261e-07 1.56976e-08)
(2.69771e-07 -9.74257e-07 1.73733e-08)
(3.4382e-07 -1.03052e-06 1.95832e-08)
(4.07633e-07 -1.06217e-06 2.24379e-08)
(4.54986e-07 -1.07457e-06 2.5974e-08)
(4.80291e-07 -1.07221e-06 3.0066e-08)
(4.79189e-07 -1.05921e-06 3.45405e-08)
(4.49028e-07 -1.03966e-06 3.90736e-08)
(3.88976e-07 -1.01737e-06 4.33695e-08)
(3.00778e-07 -9.95661e-07 4.71582e-08)
(1.90389e-07 -9.77297e-07 4.97435e-08)
(6.64433e-08 -9.67473e-07 5.10008e-08)
(-6.2671e-08 -9.67684e-07 5.11257e-08)
(-1.8726e-07 -9.77821e-07 4.97496e-08)
(-2.97422e-07 -9.95619e-07 4.7218e-08)
(-3.85562e-07 -1.01742e-06 4.3506e-08)
(-4.45989e-07 -1.0397e-06 3.91877e-08)
(-4.7667e-07 -1.05922e-06 3.46364e-08)
(-4.78278e-07 -1.07223e-06 3.01498e-08)
(-4.53416e-07 -1.07465e-06 2.60465e-08)
(-4.06467e-07 -1.0623e-06 2.2515e-08)
(-3.42991e-07 -1.03066e-06 1.96372e-08)
(-2.69236e-07 -9.74367e-07 1.73938e-08)
(-1.91821e-07 -8.86271e-07 1.56377e-08)
(-1.172e-07 -7.55591e-07 1.39893e-08)
(-5.29273e-08 -5.62991e-07 1.15807e-08)
(-6.33632e-09 -2.67719e-07 6.20106e-09)
(6.13402e-09 -3.25938e-07 6.17982e-09)
(5.19286e-08 -6.83471e-07 1.1537e-08)
(1.15233e-07 -9.14132e-07 1.39114e-08)
(1.8866e-07 -1.07076e-06 1.55404e-08)
(2.64837e-07 -1.17786e-06 1.72772e-08)
(3.37507e-07 -1.24877e-06 1.95496e-08)
(4.00267e-07 -1.29198e-06 2.25438e-08)
(4.471e-07 -1.3136e-06 2.62914e-08)
(4.72526e-07 -1.3186e-06 3.06594e-08)
(4.72132e-07 -1.31143e-06 3.54834e-08)
(4.43141e-07 -1.29639e-06 4.04123e-08)
(3.84595e-07 -1.27738e-06 4.50533e-08)
(2.97689e-07 -1.25778e-06 4.91464e-08)
(1.88286e-07 -1.24002e-06 5.20342e-08)
(6.57286e-08 -1.23078e-06 5.34998e-08)
(-6.20604e-08 -1.23101e-06 5.36207e-08)
(-1.8525e-07 -1.24044e-06 5.19805e-08)
(-2.94417e-07 -1.25767e-06 4.91913e-08)
(-3.81206e-07 -1.27749e-06 4.51758e-08)
(-4.40169e-07 -1.29654e-06 4.0516e-08)
(-4.69649e-07 -1.31154e-06 3.55824e-08)
(-4.70553e-07 -1.31871e-06 3.07468e-08)
(-4.45563e-07 -1.31377e-06 2.63635e-08)
(-3.99102e-07 -1.29222e-06 2.26146e-08)
(-3.36658e-07 -1.249e-06 1.95792e-08)
(-2.64285e-07 -1.17794e-06 1.72247e-08)
(-1.88352e-07 -1.0705e-06 1.54155e-08)
(-1.15131e-07 -9.13419e-07 1.37584e-08)
(-5.20024e-08 -6.82623e-07 1.13882e-08)
(-6.21608e-09 -3.26521e-07 6.09767e-09)
(5.8112e-09 -3.82541e-07 5.80392e-09)
(4.9045e-08 -7.99139e-07 1.08381e-08)
(1.08767e-07 -1.06702e-06 1.30783e-08)
(1.78009e-07 -1.24943e-06 1.47067e-08)
(2.49909e-07 -1.37553e-06 1.64977e-08)
(3.1863e-07 -1.46145e-06 1.87823e-08)
(3.78206e-07 -1.51733e-06 2.17916e-08)
(4.22987e-07 -1.54989e-06 2.56092e-08)
(4.47781e-07 -1.56444e-06 3.00824e-08)
(4.48242e-07 -1.56556e-06 3.50734e-08)
(4.21486e-07 -1.55761e-06 4.02264e-08)
(3.66416e-07 -1.54425e-06 4.51055e-08)
(2.83869e-07 -1.52859e-06 4.92737e-08)
(1.79386e-07 -1.51318e-06 5.23579e-08)
(6.26495e-08 -1.5057e-06 5.40572e-08)
(-5.93056e-08 -1.50592e-06 5.41809e-08)
(-1.76603e-07 -1.51325e-06 5.22996e-08)
(-2.80645e-07 -1.52773e-06 4.92951e-08)
(-3.63032e-07 -1.5438e-06 4.52279e-08)
(-4.18602e-07 -1.55765e-06 4.0321e-08)
(-4.45792e-07 -1.56573e-06 3.51759e-08)
(-4.45861e-07 -1.56464e-06 3.01683e-08)
(-4.21512e-07 -1.5502e-06 2.56749e-08)
(-3.7706e-07 -1.51774e-06 2.18685e-08)
(-3.17761e-07 -1.46175e-06 1.88044e-08)
(-2.49305e-07 -1.37535e-06 1.64468e-08)
(-1.77606e-07 -1.24862e-06 1.46772e-08)
(-1.08527e-07 -1.06578e-06 1.30886e-08)
(-4.90097e-08 -7.98057e-07 1.085e-08)
(-5.8501e-09 -3.83231e-07 5.79726e-09)
(5.26115e-09 -4.34687e-07 5.17846e-09)
(4.40938e-08 -9.05575e-07 9.71265e-09)
(9.77518e-08 -1.208e-06 1.1708e-08)
(1.599e-07 -1.41495e-06 1.32063e-08)
(2.24506e-07 -1.55945e-06 1.49778e-08)
(2.8643e-07 -1.66007e-06 1.72155e-08)
(3.40416e-07 -1.72902e-06 2.01074e-08)
(3.81321e-07 -1.77362e-06 2.37803e-08)
(4.04445e-07 -1.79924e-06 2.80785e-08)
(4.05653e-07 -1.81045e-06 3.29572e-08)
(3.81955e-07 -1.81137e-06 3.80649e-08)
(3.32371e-07 -1.80511e-06 4.29334e-08)
(2.57772e-07 -1.79514e-06 4.69575e-08)
(1.63102e-07 -1.78452e-06 5.00631e-08)
(5.70303e-08 -1.77957e-06 5.18311e-08)
(-5.40335e-08 -1.77984e-06 5.19887e-08)
(-1.60571e-07 -1.78447e-06 5.00765e-08)
(-2.54704e-07 -1.79412e-06 4.68815e-08)
(-3.29373e-07 -1.80484e-06 4.29409e-08)
(-3.79441e-07 -1.81155e-06 3.80682e-08)
(-4.03343e-07 -1.81074e-06 3.3047e-08)
(-4.02636e-07 -1.79948e-06 2.8171e-08)
(-3.79975e-07 -1.77402e-06 2.38364e-08)
(-3.39382e-07 -1.7296e-06 2.0198e-08)
(-2.85685e-07 -1.66027e-06 1.72406e-08)
(-2.23975e-07 -1.55852e-06 1.49229e-08)
(-1.59452e-07 -1.41313e-06 1.31438e-08)
(-9.73646e-08 -1.20599e-06 1.15966e-08)
(-4.39273e-08 -9.0406e-07 9.58848e-09)
(-5.21319e-09 -4.3528e-07 5.15202e-09)
(4.45604e-09 -4.80067e-07 4.30932e-09)
(3.7009e-08 -9.9773e-07 8.11067e-09)
(8.1996e-08 -1.32984e-06 9.82258e-09)
(1.34329e-07 -1.55875e-06 1.11701e-08)
(1.88752e-07 -1.7205e-06 1.27989e-08)
(2.40941e-07 -1.83522e-06 1.49042e-08)
(2.86724e-07 -1.91684e-06 1.75477e-08)
(3.21724e-07 -1.97364e-06 2.08154e-08)
(3.41946e-07 -2.01086e-06 2.45773e-08)
(3.43589e-07 -2.03256e-06 2.89091e-08)
(3.23822e-07 -2.04228e-06 3.34311e-08)
(2.81847e-07 -2.04375e-06 3.77478e-08)
(2.18687e-07 -2.04122e-06 4.15085e-08)
(1.3877e-07 -2.03724e-06 4.45254e-08)
(4.85923e-08 -2.03542e-06 4.62133e-08)
(-4.60304e-08 -2.03556e-06 4.63801e-08)
(-1.36674e-07 -2.03697e-06 4.47332e-08)
(-2.1621e-07 -2.04105e-06 4.17739e-08)
(-2.79511e-07 -2.04579e-06 3.82478e-08)
(-3.21655e-07 -2.04391e-06 3.37384e-08)
(-3.41442e-07 -2.03321e-06 2.91114e-08)
(-3.403e-07 -2.01101e-06 2.46206e-08)
(-3.20593e-07 -1.97398e-06 2.06077e-08)
(-2.85827e-07 -1.91738e-06 1.72443e-08)
(-2.40224e-07 -1.83498e-06 1.45423e-08)
(-1.88068e-07 -1.7188e-06 1.24844e-08)
(-1.33732e-07 -1.55635e-06 1.09702e-08)
(-8.16439e-08 -1.32768e-06 9.71515e-09)
(-3.68893e-08 -9.95949e-07 8.07369e-09)
(-4.3972e-09 -4.80456e-07 4.37125e-09)
(3.48628e-09 -5.16244e-07 3.14167e-09)
(2.82862e-08 -1.07089e-06 5.87605e-09)
(6.21937e-08 -1.42639e-06 7.1899e-09)
(1.01905e-07 -1.67293e-06 8.23221e-09)
(1.43341e-07 -1.84928e-06 9.42346e-09)
(1.83163e-07 -1.9768e-06 1.10573e-08)
(2.18147e-07 -2.06993e-06 1.32344e-08)
(2.45026e-07 -2.13773e-06 1.60398e-08)
(2.61072e-07 -2.1855e-06 1.92642e-08)
(2.62936e-07 -2.21644e-06 2.28011e-08)
(2.47826e-07 -2.2346e-06 2.62519e-08)
(2.15491e-07 -2.24518e-06 2.97079e-08)
(1.67569e-07 -2.25129e-06 3.30479e-08)
(1.06846e-07 -2.25315e-06 3.55559e-08)
(3.76735e-08 -2.25375e-06 3.68448e-08)
(-3.49187e-08 -2.25312e-06 3.67391e-08)
(-1.04712e-07 -2.25136e-06 3.53406e-08)
(-1.65699e-07 -2.24999e-06 3.28399e-08)
(-2.14098e-07 -2.24753e-06 2.98305e-08)
(-2.46025e-07 -2.23649e-06 2.62464e-08)
(-2.60808e-07 -2.21691e-06 2.26201e-08)
(-2.59581e-07 -2.1852e-06 1.91065e-08)
(-2.44161e-07 -2.13768e-06 1.59379e-08)
(-2.1736e-07 -2.06999e-06 1.32475e-08)
(-1.82548e-07 -1.97612e-06 1.1096e-08)
(-1.42906e-07 -1.84784e-06 9.48504e-09)
(-1.01656e-07 -1.6718e-06 8.32883e-09)
(-6.2056e-08 -1.42614e-06 7.38224e-09)
(-2.80087e-08 -1.07047e-06 6.13087e-09)
(-3.34853e-09 -5.17131e-07 3.29612e-09)
(2.20952e-09 -5.42068e-07 2.04081e-09)
(1.78786e-08 -1.12258e-06 3.7799e-09)
(3.92625e-08 -1.49467e-06 4.51844e-09)
(6.43767e-08 -1.75268e-06 5.05982e-09)
(9.03642e-08 -1.93875e-06 5.75886e-09)
(1.15305e-07 -2.07565e-06 6.82899e-09)
(1.37252e-07 -2.1776e-06 8.29051e-09)
(1.54052e-07 -2.25392e-06 1.01939e-08)
(1.64359e-07 -2.30993e-06 1.24351e-08)
(1.65985e-07 -2.34833e-06 1.48104e-08)
(1.5664e-07 -2.37458e-06 1.71602e-08)
(1.36456e-07 -2.39352e-06 1.9622e-08)
(1.06452e-07 -2.40655e-06 2.19059e-08)
(6.81027e-08 -2.41292e-06 2.3607e-08)
(2.4331e-08 -2.41522e-06 2.43837e-08)
(-2.15142e-08 -2.41291e-06 2.39838e-08)
(-6.58822e-08 -2.40792e-06 2.2896e-08)
(-1.04357e-07 -2.4017e-06 2.10382e-08)
(-1.34807e-07 -2.39201e-06 1.87066e-08)
(-1.55251e-07 -2.37288e-06 1.61699e-08)
(-1.64816e-07 -2.3456e-06 1.3785e-08)
(-1.63985e-07 -2.30626e-06 1.17035e-08)
(-1.54098e-07 -2.25153e-06 9.87981e-09)
(-1.37036e-07 -2.17719e-06 8.365e-09)
(-1.14892e-07 -2.07623e-06 7.13122e-09)
(-8.97642e-08 -1.93951e-06 6.13474e-09)
(-6.37611e-08 -1.75343e-06 5.40081e-09)
(-3.88784e-08 -1.49536e-06 4.77737e-09)
(-1.75388e-08 -1.12265e-06 3.94238e-09)
(-2.11449e-09 -5.42745e-07 2.07304e-09)
(8.14718e-10 -5.55565e-07 6.44254e-10)
(6.25939e-09 -1.14915e-06 1.28449e-09)
(1.36721e-08 -1.53046e-06 1.61448e-09)
(2.25843e-08 -1.79504e-06 1.8319e-09)
(3.17487e-08 -1.98647e-06 2.11789e-09)
(4.05959e-08 -2.12788e-06 2.56488e-09)
(4.86096e-08 -2.23333e-06 3.09472e-09)
(5.4822e-08 -2.31238e-06 3.63028e-09)
(5.8552e-08 -2.37211e-06 4.32206e-09)
(5.91047e-08 -2.41613e-06 5.27068e-09)
(5.57634e-08 -2.44865e-06 6.25804e-09)
(4.87613e-08 -2.47254e-06 7.17062e-09)
(3.8071e-08 -2.48859e-06 7.87319e-09)
(2.44706e-08 -2.49768e-06 8.61592e-09)
(9.18177e-09 -2.50205e-06 8.97261e-09)
(-6.98736e-09 -2.49973e-06 8.68654e-09)
(-2.32142e-08 -2.49348e-06 8.33043e-09)
(-3.67474e-08 -2.48486e-06 7.65396e-09)
(-4.72605e-08 -2.47154e-06 6.69269e-09)
(-5.44325e-08 -2.44771e-06 5.74929e-09)
(-5.77861e-08 -2.41465e-06 4.88371e-09)
(-5.7626e-08 -2.36966e-06 4.12403e-09)
(-5.43143e-08 -2.31048e-06 3.41954e-09)
(-4.84321e-08 -2.23282e-06 2.85446e-09)
(-4.06342e-08 -2.12848e-06 2.44179e-09)
(-3.16696e-08 -1.98753e-06 2.1014e-09)
(-2.24195e-08 -1.79619e-06 1.8426e-09)
(-1.36145e-08 -1.53159e-06 1.62722e-09)
(-6.09641e-09 -1.14989e-06 1.38091e-09)
(-6.98259e-10 -5.5611e-07 7.40206e-10)
(-5.86639e-10 -5.56116e-07 -6.91272e-10)
(-5.44602e-09 -1.15013e-06 -1.25286e-09)
(-1.22434e-08 -1.53201e-06 -1.47103e-09)
(-1.99786e-08 -1.79682e-06 -1.65533e-09)
(-2.80818e-08 -1.98846e-06 -1.89163e-09)
(-3.58866e-08 -2.13019e-06 -2.22681e-09)
(-4.27779e-08 -2.23603e-06 -2.66329e-09)
(-4.82138e-08 -2.3154e-06 -3.20496e-09)
(-5.13875e-08 -2.37511e-06 -3.88746e-09)
(-5.15543e-08 -2.41874e-06 -4.64445e-09)
(-4.83378e-08 -2.45112e-06 -5.58958e-09)
(-4.19911e-08 -2.47497e-06 -6.63371e-09)
(-3.30641e-08 -2.49071e-06 -7.50366e-09)
(-2.15653e-08 -2.50009e-06 -7.84455e-09)
(-7.68564e-09 -2.50437e-06 -7.87536e-09)
(7.20034e-09 -2.50178e-06 -7.7672e-09)
(2.08398e-08 -2.49639e-06 -7.2488e-09)
(3.34592e-08 -2.48803e-06 -6.61655e-09)
(4.31094e-08 -2.47405e-06 -6.06417e-09)
(4.90093e-08 -2.45008e-06 -5.19245e-09)
(5.20925e-08 -2.41706e-06 -4.27381e-09)
(5.20478e-08 -2.37192e-06 -3.4126e-09)
(4.91205e-08 -2.31257e-06 -2.87124e-09)
(4.375e-08 -2.23453e-06 -2.53072e-09)
(3.65803e-08 -2.12981e-06 -2.1834e-09)
(2.86042e-08 -1.98855e-06 -1.90952e-09)
(2.03422e-08 -1.79697e-06 -1.67916e-09)
(1.24331e-08 -1.53225e-06 -1.45604e-09)
(5.66948e-09 -1.15041e-06 -1.12586e-09)
(7.32677e-10 -5.56403e-07 -5.66349e-10)
(-2.0356e-09 -5.43501e-07 -2.01406e-09)
(-1.69848e-08 -1.12437e-06 -3.815e-09)
(-3.76475e-08 -1.49787e-06 -4.63678e-09)
(-6.16578e-08 -1.75657e-06 -5.25331e-09)
(-8.67695e-08 -1.94334e-06 -5.97385e-09)
(-1.11004e-07 -2.08117e-06 -6.94142e-09)
(-1.32249e-07 -2.18378e-06 -8.21838e-09)
(-1.4851e-07 -2.26007e-06 -9.8835e-09)
(-1.58015e-07 -2.31622e-06 -1.19533e-08)
(-1.59082e-07 -2.35495e-06 -1.41232e-08)
(-1.49938e-07 -2.38172e-06 -1.65229e-08)
(-1.30513e-07 -2.40097e-06 -1.90597e-08)
(-1.02081e-07 -2.41407e-06 -2.12486e-08)
(-6.55909e-08 -2.4218e-06 -2.26451e-08)
(-2.29524e-08 -2.42479e-06 -2.31845e-08)
(2.18876e-08 -2.42151e-06 -2.28718e-08)
(6.42133e-08 -2.41753e-06 -2.18457e-08)
(1.01981e-07 -2.41194e-06 -2.01863e-08)
(1.31079e-07 -2.40031e-06 -1.83182e-08)
(1.49964e-07 -2.38031e-06 -1.59026e-08)
(1.59501e-07 -2.35263e-06 -1.3605e-08)
(1.58672e-07 -2.31292e-06 -1.13823e-08)
(1.4879e-07 -2.2572e-06 -9.46788e-09)
(1.32366e-07 -2.18168e-06 -7.87234e-09)
(1.11137e-07 -2.0802e-06 -6.5696e-09)
(8.71578e-08 -1.94318e-06 -5.59799e-09)
(6.21004e-08 -1.75674e-06 -4.86032e-09)
(3.80036e-08 -1.49839e-06 -4.28607e-09)
(1.73318e-08 -1.12506e-06 -3.52582e-09)
(2.18586e-09 -5.43688e-07 -1.9069e-09)
(-3.32792e-09 -5.18493e-07 -3.20536e-09)
(-2.75617e-08 -1.07348e-06 -5.98796e-09)
(-6.09521e-08 -1.4304e-06 -7.25702e-09)
(-9.98292e-08 -1.67696e-06 -8.19525e-09)
(-1.4035e-07 -1.85384e-06 -9.32247e-09)
(-1.79348e-07 -1.98303e-06 -1.08706e-08)
(-2.13616e-07 -2.07789e-06 -1.29333e-08)
(-2.39975e-07 -2.14669e-06 -1.56048e-08)
(-2.55332e-07 -2.19549e-06 -1.88565e-08)
(-2.56886e-07 -2.22725e-06 -2.22869e-08)
(-2.42159e-07 -2.246e-06 -2.58139e-08)
(-2.10536e-07 -2.25687e-06 -2.92085e-08)
(-1.63986e-07 -2.26357e-06 -3.23398e-08)
(-1.04976e-07 -2.26709e-06 -3.46944e-08)
(-3.67686e-08 -2.26852e-06 -3.58893e-08)
(3.4916e-08 -2.26595e-06 -3.56026e-08)
(1.03264e-07 -2.26451e-06 -3.42451e-08)
(1.63936e-07 -2.26369e-06 -3.19185e-08)
(2.10951e-07 -2.25735e-06 -2.90566e-08)
(2.42006e-07 -2.24492e-06 -2.55608e-08)
(2.57219e-07 -2.22549e-06 -2.21012e-08)
(2.56151e-07 -2.1944e-06 -1.8701e-08)
(2.40641e-07 -2.14672e-06 -1.56694e-08)
(2.14201e-07 -2.07846e-06 -1.29997e-08)
(1.79775e-07 -1.9843e-06 -1.08573e-08)
(1.40603e-07 -1.85543e-06 -9.2391e-09)
(9.99137e-08 -1.67821e-06 -7.93063e-09)
(6.1135e-08 -1.43157e-06 -6.92056e-09)
(2.78932e-08 -1.07467e-06 -5.66323e-09)
(3.48871e-09 -5.18386e-07 -3.05153e-09)
(-4.43273e-09 -4.8241e-07 -4.23155e-09)
(-3.66287e-08 -1.00024e-06 -7.89645e-09)
(-8.08576e-08 -1.33336e-06 -9.60059e-09)
(-1.32433e-07 -1.56297e-06 -1.08896e-08)
(-1.86215e-07 -1.72636e-06 -1.23945e-08)
(-2.37929e-07 -1.84353e-06 -1.44323e-08)
(-2.83224e-07 -1.92692e-06 -1.71082e-08)
(-3.17787e-07 -1.9846e-06 -2.04185e-08)
(-3.37591e-07 -2.02286e-06 -2.43402e-08)
(-3.39136e-07 -2.04578e-06 -2.86124e-08)
(-3.19628e-07 -2.05652e-06 -3.31276e-08)
(-2.7802e-07 -2.05866e-06 -3.73523e-08)
(-2.15927e-07 -2.057e-06 -4.10373e-08)
(-1.3742e-07 -2.05499e-06 -4.39997e-08)
(-4.76634e-08 -2.05442e-06 -4.57753e-08)
(4.61769e-08 -2.05283e-06 -4.56327e-08)
(1.35873e-07 -2.05429e-06 -4.39673e-08)
(2.15726e-07 -2.05879e-06 -4.09945e-08)
(2.78098e-07 -2.05962e-06 -3.73139e-08)
(3.19312e-07 -2.05609e-06 -3.31786e-08)
(3.38975e-07 -2.04511e-06 -2.8698e-08)
(3.37992e-07 -2.02295e-06 -2.42919e-08)
(3.18317e-07 -1.98517e-06 -2.05221e-08)
(2.83765e-07 -1.92746e-06 -1.73207e-08)
(2.38422e-07 -1.84447e-06 -1.47432e-08)
(1.86688e-07 -1.72828e-06 -1.27275e-08)
(1.32826e-07 -1.56599e-06 -1.10681e-08)
(8.10785e-08 -1.33712e-06 -9.70107e-09)
(3.66784e-08 -1.0034e-06 -7.96701e-09)
(4.43127e-09 -4.82505e-07 -4.23685e-09)
(-5.22534e-09 -4.3737e-07 -5.13646e-09)
(-4.37212e-08 -9.09078e-07 -9.59553e-09)
(-9.67691e-08 -1.21234e-06 -1.16074e-08)
(-1.58585e-07 -1.42054e-06 -1.31182e-08)
(-2.22869e-07 -1.56704e-06 -1.48476e-08)
(-2.84482e-07 -1.66989e-06 -1.71442e-08)
(-3.38151e-07 -1.74036e-06 -2.00857e-08)
(-3.78787e-07 -1.786e-06 -2.37153e-08)
(-4.01659e-07 -1.81275e-06 -2.80492e-08)
(-4.0279e-07 -1.82515e-06 -3.28695e-08)
(-3.79238e-07 -1.82706e-06 -3.79674e-08)
(-3.29891e-07 -1.8217e-06 -4.27806e-08)
(-2.56049e-07 -1.81261e-06 -4.68016e-08)
(-1.6236e-07 -1.80403e-06 -4.99172e-08)
(-5.59598e-08 -1.79998e-06 -5.19423e-08)
(5.46623e-08 -1.79882e-06 -5.1913e-08)
(1.6069e-07 -1.80351e-06 -5.02107e-08)
(2.55115e-07 -1.81389e-06 -4.7064e-08)
(3.29272e-07 -1.82243e-06 -4.28069e-08)
(3.78776e-07 -1.82741e-06 -3.80195e-08)
(4.02594e-07 -1.82537e-06 -3.2914e-08)
(4.0187e-07 -1.81317e-06 -2.80042e-08)
(3.79118e-07 -1.78661e-06 -2.36964e-08)
(3.38563e-07 -1.74105e-06 -2.00282e-08)
(2.84906e-07 -1.67085e-06 -1.71028e-08)
(2.23312e-07 -1.56881e-06 -1.49073e-08)
(1.59101e-07 -1.42375e-06 -1.31837e-08)
(9.72566e-08 -1.21659e-06 -1.16339e-08)
(4.40254e-08 -9.12495e-07 -9.60223e-09)
(5.29339e-09 -4.37389e-07 -5.12186e-09)
(-5.81823e-09 -3.85271e-07 -5.81519e-09)
(-4.88895e-08 -8.03345e-07 -1.08582e-08)
(-1.08333e-07 -1.07236e-06 -1.30913e-08)
(-1.77387e-07 -1.25637e-06 -1.46785e-08)
(-2.49094e-07 -1.38433e-06 -1.64321e-08)
(-3.17682e-07 -1.4719e-06 -1.87751e-08)
(-3.77154e-07 -1.52903e-06 -2.18425e-08)
(-4.21841e-07 -1.56266e-06 -2.56517e-08)
(-4.46513e-07 -1.57828e-06 -3.01527e-08)
(-4.4689e-07 -1.58049e-06 -3.51337e-08)
(-4.20084e-07 -1.57353e-06 -4.03206e-08)
(-3.65081e-07 -1.56137e-06 -4.52575e-08)
(-2.8323e-07 -1.5471e-06 -4.94864e-08)
(-1.79393e-07 -1.5336e-06 -5.25611e-08)
(-6.17827e-08 -1.52599e-06 -5.43758e-08)
(6.01599e-08 -1.52498e-06 -5.42073e-08)
(1.77513e-07 -1.53235e-06 -5.25728e-08)
(2.81868e-07 -1.54683e-06 -4.95013e-08)
(3.64136e-07 -1.56128e-06 -4.51699e-08)
(4.19433e-07 -1.57368e-06 -4.0306e-08)
(4.46538e-07 -1.58071e-06 -3.51421e-08)
(4.46491e-07 -1.5787e-06 -3.01445e-08)
(4.22013e-07 -1.56323e-06 -2.56512e-08)
(3.77493e-07 -1.52972e-06 -2.18176e-08)
(3.18141e-07 -1.47274e-06 -1.87569e-08)
(2.49605e-07 -1.38547e-06 -1.64645e-08)
(1.77839e-07 -1.25825e-06 -1.47524e-08)
(1.08602e-07 -1.07511e-06 -1.31652e-08)
(4.9002e-08 -8.05868e-07 -1.09014e-08)
(5.79337e-09 -3.85318e-07 -5.81953e-09)
(-6.16898e-09 -3.28668e-07 -6.17328e-09)
(-5.19808e-08 -6.8779e-07 -1.14662e-08)
(-1.1533e-07 -9.19975e-07 -1.37899e-08)
(-1.88754e-07 -1.07825e-06 -1.54428e-08)
(-2.64915e-07 -1.18686e-06 -1.72522e-08)
(-3.37612e-07 -1.25901e-06 -1.9611e-08)
(-4.00418e-07 -1.30328e-06 -2.26621e-08)
(-4.47276e-07 -1.3259e-06 -2.64268e-08)
(-4.72668e-07 -1.33188e-06 -3.08374e-08)
(-4.72184e-07 -1.32568e-06 -3.56835e-08)
(-4.43006e-07 -1.31154e-06 -4.06609e-08)
(-3.84347e-07 -1.29356e-06 -4.53827e-08)
(-2.97898e-07 -1.27507e-06 -4.95077e-08)
(-1.88662e-07 -1.25887e-06 -5.24232e-08)
(-6.49647e-08 -1.24937e-06 -5.4027e-08)
(6.31808e-08 -1.24885e-06 -5.39082e-08)
(1.86741e-07 -1.25816e-06 -5.24756e-08)
(2.9635e-07 -1.27501e-06 -4.95381e-08)
(3.83252e-07 -1.29368e-06 -4.53774e-08)
(4.4224e-07 -1.31177e-06 -4.07018e-08)
(4.71729e-07 -1.32597e-06 -3.57258e-08)
(4.72504e-07 -1.3323e-06 -3.08673e-08)
(4.47321e-07 -1.32645e-06 -2.64556e-08)
(4.00626e-07 -1.30397e-06 -2.26798e-08)
(3.37929e-07 -1.25984e-06 -1.9633e-08)
(2.65284e-07 -1.18787e-06 -1.73059e-08)
(1.89043e-07 -1.07958e-06 -1.55938e-08)
(1.15427e-07 -9.21823e-07 -1.40462e-08)
(5.19818e-08 -6.89779e-07 -1.16987e-08)
(6.10281e-09 -3.28658e-07 -6.23917e-09)
(-6.27967e-09 -2.69827e-07 -6.30709e-09)
(-5.2998e-08 -5.67631e-07 -1.17134e-08)
(-1.17664e-07 -7.61694e-07 -1.40578e-08)
(-1.92688e-07 -8.93534e-07 -1.56928e-08)
(-2.70553e-07 -9.82666e-07 -1.74549e-08)
(-3.44818e-07 -1.03991e-06 -1.97191e-08)
(-4.08814e-07 -1.07246e-06 -2.26171e-08)
(-4.56289e-07 -1.08571e-06 -2.61757e-08)
(-4.81634e-07 -1.08418e-06 -3.03189e-08)
(-4.8044e-07 -1.07201e-06 -3.48327e-08)
(-4.49973e-07 -1.05321e-06 -3.94291e-08)
(-3.89629e-07 -1.03164e-06 -4.38249e-08)
(-3.01584e-07 -1.01058e-06 -4.76311e-08)
(-1.91131e-07 -9.93458e-07 -5.03034e-08)
(-6.59552e-08 -9.83637e-07 -5.17091e-08)
(6.3962e-08 -9.83365e-07 -5.16563e-08)
(1.89015e-07 -9.93033e-07 -5.03587e-08)
(2.99976e-07 -1.01066e-06 -4.76106e-08)
(3.88579e-07 -1.03175e-06 -4.37926e-08)
(4.49199e-07 -1.05335e-06 -3.9471e-08)
(4.79908e-07 -1.07221e-06 -3.48867e-08)
(4.81369e-07 -1.08451e-06 -3.03638e-08)
(4.56238e-07 -1.08616e-06 -2.62171e-08)
(4.08915e-07 -1.07303e-06 -2.26478e-08)
(3.45011e-07 -1.04059e-06 -1.9749e-08)
(2.70802e-07 -9.8346e-07 -1.7497e-08)
(1.92905e-07 -8.94463e-07 -1.57892e-08)
(1.1778e-07 -7.62859e-07 -1.42472e-08)
(5.30257e-08 -5.69045e-07 -1.18928e-08)
(6.24968e-09 -2.69766e-07 -6.35019e-09)
(-6.18618e-09 -2.10808e-07 -6.14939e-09)
(-5.20334e-08 -4.47475e-07 -1.14504e-08)
(-1.15571e-07 -6.03303e-07 -1.37725e-08)
(-1.89601e-07 -7.0891e-07 -1.53488e-08)
(-2.66652e-07 -7.79161e-07 -1.70043e-08)
(-3.40247e-07 -8.22527e-07 -1.91016e-08)
(-4.03647e-07 -8.44861e-07 -2.17779e-08)
(-4.50541e-07 -8.50693e-07 -2.5051e-08)
(-4.75354e-07 -8.4398e-07 -2.88421e-08)
(-4.73744e-07 -8.28393e-07 -3.29473e-08)
(-4.43079e-07 -8.07542e-07 -3.71261e-08)
(-3.83006e-07 -7.84807e-07 -4.11323e-08)
(-2.962e-07 -7.63548e-07 -4.45339e-08)
(-1.87833e-07 -7.47154e-07 -4.6921e-08)
(-6.49097e-08 -7.38039e-07 -4.81729e-08)
(6.29259e-08 -7.3768e-07 -4.81359e-08)
(1.85618e-07 -7.46595e-07 -4.69129e-08)
(2.94551e-07 -7.63475e-07 -4.446e-08)
(3.81924e-07 -7.84786e-07 -4.10499e-08)
(4.42247e-07 -8.07573e-07 -3.7133e-08)
(4.73127e-07 -8.28525e-07 -3.29956e-08)
(4.75001e-07 -8.44229e-07 -2.88859e-08)
(4.50418e-07 -8.51046e-07 -2.50912e-08)
(4.03676e-07 -8.45296e-07 -2.18071e-08)
(3.4037e-07 -8.23041e-07 -1.91281e-08)
(2.6684e-07 -7.79755e-07 -1.70317e-08)
(1.89798e-07 -7.09581e-07 -1.53914e-08)
(1.15726e-07 -6.04069e-07 -1.38613e-08)
(5.20487e-08 -4.48394e-07 -1.15785e-08)
(6.14778e-09 -2.10872e-07 -6.19237e-09)
(-5.8246e-09 -1.54058e-07 -5.72712e-09)
(-4.89787e-08 -3.31934e-07 -1.07165e-08)
(-1.09136e-07 -4.50762e-07 -1.28976e-08)
(-1.79768e-07 -5.31086e-07 -1.43194e-08)
(-2.53752e-07 -5.83453e-07 -1.58017e-08)
(-3.2476e-07 -6.142e-07 -1.76779e-08)
(-3.86109e-07 -6.2792e-07 -2.00913e-08)
(-4.31522e-07 -6.28293e-07 -2.30338e-08)
(-4.55554e-07 -6.18603e-07 -2.64392e-08)
(-4.54005e-07 -6.01966e-07 -3.01124e-08)
(-4.24324e-07 -5.81395e-07 -3.38878e-08)
(-3.66414e-07 -5.59799e-07 -3.74646e-08)
(-2.83264e-07 -5.40281e-07 -4.0489e-08)
(-1.79602e-07 -5.25492e-07 -4.26285e-08)
(-6.2114e-08 -5.17476e-07 -4.37895e-08)
(6.01808e-08 -5.17133e-07 -4.37502e-08)