/*--------------------------------*- C++ -*----------------------------------*\
| =========                 |                                                 |
| \\      /  F ield         | OpenFOAM: The Open Source CFD Toolbox           |
|  \\    /   O peration     | Version:  v1906                                 |
|   \\  /    A nd           | Web:      www.OpenFOAM.com                      |
|    \\/     M anipulation  |                                                 |
\*---------------------------------------------------------------------------*/
FoamFile
{
    version     2.0;
    format      ascii;
    class       volVectorField;
    location    "54";
    object      U;
}
// * * * * * * * * * * * * * * * * * * * * * * * * * * * * * * * * * * * * * //

dimensions      [0 1 -1 0 0 0 0];


internalField   nonuniform List<vector> 
78750
(
(-0.564164 -0.308089 -0.0907361)
(0.787798 -0.274373 -0.0832198)
(0.887041 -0.30437 -0.138675)
(0.642707 -0.299812 -0.163481)
(0.521267 -0.29142 -0.193445)
(0.497634 -0.270405 -0.207616)
(0.518047 -0.251007 -0.233445)
(0.538566 -0.22766 -0.244367)
(0.553337 -0.208675 -0.265328)
(0.560435 -0.186186 -0.271898)
(0.567434 -0.167889 -0.287841)
(0.569401 -0.147057 -0.291745)
(0.576194 -0.131645 -0.303295)
(0.578158 -0.11726 -0.305742)
(0.58698 -0.108513 -0.312929)
(0.587207 -0.100566 -0.314152)
(0.584606 -0.094311 -0.319138)
(0.575403 -0.0897006 -0.322782)
(0.558373 -0.0856603 -0.326065)
(0.538962 -0.082248 -0.324527)
(0.519709 -0.0792924 -0.322436)
(0.500947 -0.0757171 -0.320781)
(0.478536 -0.0745813 -0.312787)
(0.455764 -0.0721866 -0.312651)
(0.427133 -0.0730513 -0.29335)
(0.399925 -0.0718795 -0.300999)
(0.365818 -0.0730667 -0.270477)
(0.325876 -0.0791361 -0.278431)
(0.283655 -0.0781407 -0.278464)
(0.232916 -0.0871381 -0.251072)
(0.183607 -0.0815161 -0.209662)
(0.145958 -0.112027 -0.0917437)
(0.105827 -0.0539023 -0.288258)
(0.0374405 0.196938 -0.439278)
(0.0136932 0.147865 0.174423)
(-0.0747431 0.83929 -0.341719)
(0.0559859 0.383878 -0.429422)
(-0.0666639 0.27838 -0.393161)
(-0.0409786 0.325607 -0.386313)
(-0.0678897 0.326212 -0.405912)
(-0.0951842 0.258084 -0.43509)
(-0.115588 0.187909 -0.443756)
(-0.136029 0.140226 -0.438958)
(-0.156986 0.109519 -0.430169)
(-0.175527 0.0896158 -0.420031)
(-0.191064 0.0775628 -0.408377)
(-0.194882 0.0706229 -0.397706)
(-0.175709 0.0655257 -0.386284)
(-0.145216 0.0886632 -0.385269)
(-0.114372 0.137004 -0.398765)
(-0.0984559 0.17619 -0.394376)
(-0.092081 0.209386 -0.377909)
(-0.0902606 0.234203 -0.344712)
(-0.092376 0.250874 -0.302893)
(-0.0946387 0.264217 -0.27345)
(-0.0939252 0.282111 -0.265491)
(-0.0898293 0.305436 -0.272911)
(-0.0809093 0.330798 -0.288695)
(-0.064445 0.354317 -0.303785)
(-0.0399355 0.374101 -0.305284)
(-0.0113657 0.39938 -0.298842)
(0.00693083 0.427929 -0.299679)
(0.014346 0.451335 -0.316258)
(0.0184206 0.475058 -0.336335)
(0.0208521 0.500569 -0.359418)
(0.0173364 0.52594 -0.386324)
(0.00421839 0.545114 -0.407418)
(-0.017514 0.544808 -0.405482)
(-0.0178873 0.420971 -0.133118)
(0.0118734 0.209044 0.276803)
(0.00838432 0.453068 -0.192617)
(0.101276 0.239355 -0.177237)
(0.129763 0.111555 -0.136565)
(0.167502 0.102645 -0.144097)
(0.198229 0.135236 -0.16473)
(0.21709 0.176448 -0.193178)
(0.222916 0.214045 -0.22614)
(0.217046 0.240894 -0.268406)
(0.203136 0.245146 -0.31062)
(0.18635 0.214056 -0.328292)
(0.151513 0.179892 -0.418112)
(0.118431 0.109256 -0.569528)
(0.103496 -0.262958 -0.214413)
(0.053067 -0.381721 0.0418475)
(0.0188617 -0.210518 -0.0422711)
(0.000344607 -0.030633 -0.176913)
(-0.018485 0.0750203 -0.242079)
(-0.033678 0.120369 -0.25068)
(-0.043803 0.134601 -0.240023)
(-0.0520138 0.135476 -0.222542)
(-0.0592934 0.126089 -0.196364)
(-0.0652668 0.102945 -0.152036)
(-0.0697224 0.055005 -0.0631192)
(-0.0763493 -0.0304835 0.0953332)
(-0.0921827 -0.107004 0.192233)
(-0.108971 -0.0701299 0.0750953)
(-0.101585 0.123557 -0.05212)
(-0.0829652 0.234996 -0.0158038)
(-0.0638626 0.248952 0.000564828)
(-0.0417292 0.261681 -0.011914)
(-0.0188151 0.278453 -0.0282701)
(0.000146011 0.291499 -0.0339815)
(0.0162689 0.286765 -0.00542255)
(0.0211114 0.154575 0.222553)
(0.0248099 0.113925 0.40848)
(0.0254256 -0.344839 0.11307)
(0.0536598 -0.485538 0.149449)
(0.0387644 -0.497926 0.153638)
(0.0417592 -0.31587 0.0177737)
(0.0470257 -0.189076 -0.0618002)
(0.0373782 -0.118004 -0.0716228)
(0.0412537 -0.0593619 -0.0650172)
(0.0483906 0.0190882 -0.0632651)
(0.0547627 0.100985 -0.0655378)
(0.0585602 0.173547 -0.0786059)
(0.0634372 0.236415 -0.126779)
(0.0679373 0.277528 -0.181757)
(0.0472312 0.315485 -0.286942)
(0.00155462 0.303207 -0.406055)
(-0.0330197 0.275785 -0.445233)
(-0.0495711 0.275691 -0.462441)
(-0.0557168 0.283514 -0.47219)
(-0.0566293 0.290163 -0.476829)
(-0.0544585 0.295467 -0.478829)
(-0.0503702 0.300963 -0.478827)
(-0.0455979 0.306841 -0.474962)
(-0.041601 0.312403 -0.463598)
(-0.0397514 0.318871 -0.434639)
(-0.0424179 0.335682 -0.345016)
(-0.057442 0.383011 -0.062748)
(-0.109332 0.384367 0.377882)
(-0.165601 0.208903 0.540755)
(-0.169727 0.0427916 0.390266)
(-0.154315 0.0360637 0.278043)
(-0.130963 0.0717633 0.247299)
(-0.0977604 0.100613 0.224412)
(-0.060034 0.134036 0.209321)
(-0.0228138 0.16512 0.21917)
(-0.00579276 0.172057 0.26644)
(0.00316657 0.201428 0.28239)
(-0.0318081 -0.153808 0.0526163)
(-0.0602067 0.256682 -0.158839)
(-0.0939476 0.107759 -0.177226)
(-0.11652 0.137535 -0.220513)
(-0.137685 0.179817 -0.290858)
(-0.161977 0.20324 -0.328567)
(-0.176082 0.237478 -0.347219)
(-0.188345 0.25893 -0.364516)
(-0.195079 0.28037 -0.381851)
(-0.19712 0.297758 -0.403451)
(-0.194047 0.309532 -0.428729)
(-0.187332 0.315135 -0.451854)
(-0.179204 0.315338 -0.47058)
(-0.171445 0.310514 -0.478282)
(-0.163517 0.307169 -0.473441)
(-0.154829 0.30698 -0.463264)
(-0.143399 0.307877 -0.450735)
(-0.128554 0.309906 -0.438565)
(-0.110906 0.314126 -0.427546)
(-0.0914282 0.321298 -0.416033)
(-0.0707732 0.331227 -0.401356)
(-0.0497607 0.343701 -0.380141)
(-0.0291572 0.35976 -0.346608)
(-0.00882039 0.382483 -0.28687)
(0.013507 0.418549 -0.161933)
(0.0306821 0.459223 0.076256)
(0.032823 0.424824 0.324052)
(0.0297609 0.266326 0.469836)
(0.0191404 0.0422861 0.480207)
(0.0109931 -0.114901 0.397154)
(0.0089643 -0.163764 0.320803)
(0.0104169 -0.156117 0.279083)
(0.0123545 -0.12112 0.261802)
(0.0104336 -0.0616065 0.264706)
(0.0059802 0.0384594 0.224682)
(-0.0644715 0.0184002 0.0460273)
(-0.0804694 -0.226194 0.311016)
(-0.136318 -0.190102 0.466988)
(-0.183025 -0.0375452 0.307789)
(-0.209348 0.0814642 0.209992)
(-0.235541 0.112235 0.160033)
(-0.246322 0.137063 0.132782)
(-0.255476 0.156884 0.0995388)
(-0.257719 0.176106 0.0767152)
(-0.255131 0.183576 0.0630943)
(-0.249046 0.189672 0.0530093)
(-0.239033 0.192873 0.0459396)
(-0.226185 0.19303 0.0440966)
(-0.211523 0.191596 0.0493183)
(-0.196091 0.189987 0.0601706)
(-0.180142 0.189093 0.072862)
(-0.163212 0.189359 0.0845474)
(-0.144983 0.190185 0.0955467)
(-0.125337 0.191396 0.105748)
(-0.104182 0.193145 0.11534)
(-0.0815626 0.195002 0.125698)
(-0.0576171 0.196667 0.138444)
(-0.0326637 0.198219 0.155275)
(-0.00694382 0.19919 0.17994)
(0.0204513 0.199159 0.218908)
(0.0494863 0.192334 0.283866)
(0.0769658 0.149781 0.359517)
(0.0983177 0.065047 0.393899)
(0.104488 0.00766315 0.381917)
(0.0987017 -0.00163904 0.359209)
(0.0839425 0.0154454 0.335281)
(0.0643234 0.0458311 0.305721)
(0.0456703 0.0892934 0.275531)
(0.0260092 0.149024 0.257322)
(0.00976069 0.186879 0.199315)
(-0.00400623 0.480994 -0.024771)
(-0.0174027 0.474846 -0.0646442)
(-0.0609614 0.44026 -0.128822)
(-0.0941255 0.37163 -0.226449)
(-0.112907 0.310014 -0.290286)
(-0.125119 0.259668 -0.309751)
(-0.135187 0.220139 -0.308144)
(-0.14323 0.185478 -0.294654)
(-0.148316 0.153231 -0.268855)
(-0.15025 0.122104 -0.230784)
(-0.149983 0.0917828 -0.17523)
(-0.148702 0.0613536 -0.090035)
(-0.148023 0.0332535 0.0285743)
(-0.149378 0.0150889 0.144923)
(-0.151969 0.00647621 0.203206)
(-0.151868 -0.00272771 0.221165)
(-0.149145 -0.0145958 0.236992)
(-0.143145 -0.0272113 0.25059)
(-0.133473 -0.0392623 0.261292)
(-0.120669 -0.0489967 0.269884)
(-0.105537 -0.0553855 0.27761)
(-0.08895 -0.0584456 0.285129)
(-0.0717637 -0.0589109 0.292628)
(-0.0548917 -0.0584025 0.300087)
(-0.0391312 -0.0590977 0.307084)
(-0.0251164 -0.0629892 0.312666)
(-0.0147747 -0.069448 0.31508)
(-0.0109471 -0.0723513 0.314743)
(-0.0123558 -0.0680943 0.315333)
(-0.0159025 -0.0580714 0.317131)
(-0.0191612 -0.0411978 0.318984)
(-0.0206272 -0.0112609 0.318898)
(-0.0183697 0.0433348 0.311311)
(-0.0128484 0.119629 0.283808)
(-0.0010032 0.171883 0.189649)
(0.00883616 0.361568 -0.135138)
(0.0156645 0.361354 -0.203474)
(0.0217149 0.326463 -0.249609)
(0.0318817 0.289009 -0.297868)
(0.039916 0.26098 -0.332399)
(0.0445588 0.239179 -0.350745)
(0.0474175 0.221915 -0.361843)
(0.0482354 0.205954 -0.36716)
(0.0471272 0.191631 -0.366865)
(0.0440633 0.178111 -0.360685)
(0.0390455 0.16423 -0.348231)
(0.0331204 0.149246 -0.329239)
(0.0254081 0.132689 -0.295085)
(0.012747 0.110703 -0.202555)
(-0.00263293 0.0760584 -0.0365482)
(-0.0221656 0.0323649 0.0964275)
(-0.039502 -0.0110417 0.150864)
(-0.0535341 -0.0534405 0.16687)
(-0.0643887 -0.0938078 0.168343)
(-0.0701958 -0.125641 0.166304)
(-0.0714519 -0.145927 0.165908)
(-0.069191 -0.154941 0.168067)
(-0.0639689 -0.152117 0.172726)
(-0.0564618 -0.136679 0.179479)
(-0.0480049 -0.111411 0.186815)
(-0.0402227 -0.0864741 0.192156)
(-0.0343384 -0.0707914 0.194828)
(-0.0302495 -0.0632456 0.196284)
(-0.0271294 -0.0600197 0.197242)
(-0.0245174 -0.0589729 0.19812)
(-0.0222555 -0.0585065 0.199516)
(-0.0199622 -0.0571706 0.201525)
(-0.0168588 -0.052585 0.203173)
(-0.0119944 -0.0374526 0.200014)
(-0.00366055 0.00766967 0.162516)
(0.0231435 0.297474 -0.179437)
(0.0406061 0.325016 -0.239623)
(0.0548517 0.317841 -0.269092)
(0.0663096 0.299103 -0.288079)
(0.0756183 0.274932 -0.299127)
(0.0827175 0.254723 -0.304552)
(0.0877633 0.239004 -0.30637)
(0.0909554 0.22547 -0.304167)
(0.0922958 0.213795 -0.297839)
(0.0923371 0.203388 -0.287186)
(0.0914839 0.193474 -0.271647)
(0.0897476 0.183609 -0.247405)
(0.0866696 0.173914 -0.204478)
(0.0817926 0.161244 -0.132688)
(0.0740837 0.138821 -0.0432823)
(0.0629057 0.103108 0.0283556)
(0.0492133 0.0533735 0.068377)
(0.0335309 -0.0117689 0.0822224)
(0.0174768 -0.0842752 0.0802752)
(0.00182613 -0.150258 0.0753597)
(-0.0133538 -0.203556 0.0747439)
(-0.027296 -0.242497 0.0801639)
(-0.039199 -0.267191 0.0912364)
(-0.0491772 -0.27637 0.108178)
(-0.0568769 -0.264438 0.132445)
(-0.0596833 -0.233135 0.161416)
(-0.0569303 -0.199845 0.187526)
(-0.0506084 -0.171914 0.208739)
(-0.0427198 -0.148161 0.225658)
(-0.0343545 -0.130593 0.235062)
(-0.0264687 -0.118945 0.236011)
(-0.0191142 -0.109182 0.231524)
(-0.0121121 -0.0979843 0.223687)
(-0.00540997 -0.0781063 0.209314)
(0.00119366 -0.0217756 0.158919)
(0.0116642 0.038212 0.0377424)
(0.0390275 0.14991 -0.0322834)
(0.0594214 0.200269 -0.0758502)
(0.0774695 0.223538 -0.102296)
(0.0934943 0.235261 -0.119489)
(0.107495 0.241055 -0.131454)
(0.11971 0.242524 -0.139048)
(0.13077 0.240819 -0.142698)
(0.141062 0.236602 -0.142438)
(0.15086 0.230154 -0.138062)
(0.160363 0.221562 -0.129068)
(0.16972 0.210709 -0.114771)
(0.179013 0.197038 -0.0944323)
(0.188181 0.179504 -0.0675382)
(0.196796 0.156846 -0.0360277)
(0.204048 0.128516 -0.00491872)
(0.20898 0.0947512 0.0218174)
(0.210806 0.0563216 0.0433389)
(0.208768 0.0167168 0.0597347)
(0.203193 -0.0201004 0.0710543)
(0.194837 -0.0529133 0.0782771)
(0.18388 -0.0818071 0.0826186)
(0.17017 -0.106255 0.084446)
(0.154108 -0.126224 0.0831306)
(0.137714 -0.14705 0.0785661)
(0.122745 -0.176214 0.0724373)
(0.110315 -0.214442 0.0672975)
(0.0999498 -0.254727 0.0673984)
(0.0866996 -0.273699 0.0932918)
(0.0710417 -0.255301 0.154752)
(0.0531868 -0.230805 0.203828)
(0.0324903 -0.215458 0.223521)
(0.01582 -0.203434 0.225106)
(0.00496618 -0.178225 0.213935)
(0.00122321 -0.0744364 0.15032)
(-0.0116405 -0.086317 0.186358)
(-0.0108664 -0.00180119 0.187279)
(-0.00195929 0.0430827 0.168337)
(0.0142031 0.0666621 0.153194)
(0.0360174 0.0779113 0.142181)
(0.0612056 0.0816325 0.134398)
(0.0883172 0.0807964 0.128953)
(0.116303 0.0771662 0.12522)
(0.144348 0.071655 0.122817)
(0.171812 0.0645984 0.121547)
(0.198224 0.0559343 0.121325)
(0.223257 0.0454355 0.122121)
(0.246683 0.0328648 0.123895)
(0.268304 0.0180188 0.126529)
(0.287975 0.000662556 0.129752)
(0.305382 -0.0190399 0.132988)
(0.320166 -0.0404005 0.135538)
(0.332678 -0.0632702 0.137383)
(0.342085 -0.0866641 0.138341)
(0.347559 -0.109165 0.138309)
(0.349855 -0.129536 0.137526)
(0.349892 -0.146296 0.136181)
(0.347992 -0.158312 0.134187)
(0.344115 -0.165816 0.13158)
(0.33786 -0.16948 0.129032)
(0.327842 -0.16789 0.127792)
(0.313276 -0.161531 0.127528)
(0.292067 -0.148111 0.129118)
(0.259938 -0.120555 0.135776)
(0.220207 -0.0877035 0.141657)
(0.181246 -0.0354633 0.135855)
(0.147078 0.0298464 0.14633)
(0.101321 0.000570682 0.183987)
(0.0492654 -0.0781704 0.217083)
(0.0121117 -0.0386772 0.18097)
(-0.0143365 0.00177412 0.249265)
(-0.0105193 -0.0764303 0.277535)
(0.00537245 -0.145432 0.255142)
(0.0313644 -0.200907 0.233968)
(0.0614387 -0.240476 0.218058)
(0.093393 -0.267482 0.205919)
(0.125775 -0.284603 0.196001)
(0.157446 -0.293821 0.187144)
(0.187488 -0.297248 0.178613)
(0.21529 -0.296923 0.17)
(0.240531 -0.294448 0.161113)
(0.263048 -0.290878 0.151874)
(0.282727 -0.28681 0.142257)
(0.299455 -0.282558 0.132238)
(0.313079 -0.278187 0.121792)
(0.323436 -0.273545 0.110906)
(0.330385 -0.268352 0.0996019)
(0.333803 -0.262208 0.0878825)
(0.333644 -0.254573 0.0757803)
(0.32994 -0.244791 0.0633874)
(0.322772 -0.23229 0.0508624)
(0.312288 -0.216628 0.0384537)
(0.29878 -0.197604 0.0266001)
(0.282781 -0.174958 0.0156522)
(0.264705 -0.148142 0.00608992)
(0.24541 -0.117366 -0.0010955)
(0.224791 -0.0811387 -0.00594033)
(0.203506 -0.0382773 -0.00444143)
(0.182118 0.00608859 0.00160098)
(0.1575 0.05659 0.0197154)
(0.130969 0.0948655 0.0555092)
(0.112196 0.122127 0.0536347)
(0.0834228 0.212368 0.127208)
(0.0409146 0.221351 0.283746)
(0.0120716 0.161677 0.246977)
(0.00733285 -0.0899456 0.0959961)
(0.0425425 -0.278734 0.0800588)
(0.073008 -0.382129 0.063601)
(0.100806 -0.437248 0.0521407)
(0.125031 -0.463532 0.0439977)
(0.145364 -0.470089 0.0370006)
(0.161135 -0.460658 0.0287092)
(0.171727 -0.438595 0.0171579)
(0.176941 -0.408693 0.00229512)
(0.177207 -0.375224 -0.0146561)
(0.173659 -0.34105 -0.0322482)
(0.16779 -0.307717 -0.0493095)
(0.160902 -0.276087 -0.0650966)
(0.153736 -0.246613 -0.0791904)
(0.146546 -0.219383 -0.091357)
(0.139366 -0.194271 -0.101472)
(0.132219 -0.171134 -0.109512)
(0.12506 -0.149776 -0.115558)
(0.117806 -0.129929 -0.119766)
(0.110347 -0.111173 -0.122427)
(0.102606 -0.0928715 -0.123877)
(0.0946112 -0.0742226 -0.124378)
(0.0865724 -0.0544168 -0.124016)
(0.0788862 -0.0328922 -0.122922)
(0.0717714 -0.00940936 -0.120906)
(0.0650015 0.0161853 -0.117246)
(0.0584345 0.0440328 -0.110611)
(0.0528451 0.0740109 -0.0992139)
(0.0479813 0.106046 -0.0816207)
(0.0435501 0.139487 -0.0560861)
(0.0376742 0.174917 -0.0185962)
(0.0291746 0.222062 0.0481056)
(0.0181112 0.251198 0.148848)
(0.00933854 0.224393 0.201556)
(0.00441884 0.180475 0.153073)
(0.012535 -0.340432 0.0334681)
(0.028288 -0.502563 0.056064)
(0.0348457 -0.527228 0.0705945)
(0.0368641 -0.516622 0.0790071)
(0.0367333 -0.491243 0.0832907)
(0.0343037 -0.450802 0.0822108)
(0.0295362 -0.389241 0.0710372)
(0.0225476 -0.309227 0.0460159)
(0.014285 -0.229381 0.0125552)
(0.0065071 -0.166783 -0.0194556)
(0.000333039 -0.127193 -0.0432901)
(-0.00387832 -0.105738 -0.0578731)
(-0.00652674 -0.0942845 -0.0661819)
(-0.00800927 -0.0881638 -0.070812)
(-0.00847788 -0.0851524 -0.0730778)
(-0.00809135 -0.0836813 -0.0737509)
(-0.00710756 -0.0826195 -0.0734648)
(-0.00570303 -0.0813005 -0.072739)
(-0.00405685 -0.0791056 -0.0720413)
(-0.00240992 -0.0755282 -0.0718298)
(-0.00101533 -0.0702912 -0.0725827)
(-7.68529e-05 -0.0633626 -0.0746715)
(0.000367386 -0.0549744 -0.0781722)
(0.000533511 -0.0445359 -0.0833534)
(0.00106814 -0.0296576 -0.090875)
(0.00297894 -0.00799742 -0.100238)
(0.00637751 0.0213433 -0.109443)
(0.0109064 0.0575327 -0.115249)
(0.0158687 0.0976271 -0.113683)
(0.0205247 0.139943 -0.101438)
(0.0242595 0.187033 -0.0730044)
(0.0251643 0.236203 -0.0161146)
(0.0197601 0.255832 0.0474871)
(0.0133923 0.2457 0.0775689)
(0.00642498 0.209249 0.0721063)
(0.00124426 -0.382591 0.0653612)
(0.00072917 -0.472965 0.0784946)
(0.00066325 -0.486717 0.0757207)
(0.00110372 -0.485749 0.070651)
(0.00241039 -0.474038 0.0637394)
(0.00444731 -0.445781 0.0530597)
(0.0070892 -0.393128 0.0336679)
(0.00987963 -0.328167 0.00459969)
(0.0128451 -0.275056 -0.0241008)
(0.0166265 -0.238683 -0.0448524)
(0.0211136 -0.212472 -0.0588932)
(0.0258124 -0.191538 -0.0691148)
(0.0302963 -0.173839 -0.0770703)
(0.0342423 -0.15865 -0.0833185)
(0.0375148 -0.145616 -0.0879556)
(0.0401079 -0.134392 -0.0908966)
(0.04208 -0.124617 -0.0920131)
(0.0434789 -0.115899 -0.0911739)
(0.0443394 -0.107816 -0.0883215)
(0.0446897 -0.0998987 -0.0835825)
(0.0445071 -0.0916506 -0.0773303)
(0.0436951 -0.0827157 -0.070316)
(0.0420635 -0.073258 -0.0637348)
(0.0396871 -0.0641794 -0.0587663)
(0.0369622 -0.0562864 -0.0559482)
(0.0345111 -0.049411 -0.055208)
(0.0326619 -0.0419473 -0.0569734)
(0.0315495 -0.0289411 -0.0646739)
(0.0306665 -0.00147349 -0.0862922)
(0.0285775 0.0336991 -0.109903)
(0.0252595 0.078393 -0.11733)
(0.0215235 0.140883 -0.0935252)
(0.0150328 0.205467 -0.0417471)
(0.00920462 0.234516 -0.00792575)
(0.00353152 0.224648 0.00910184)
(0.000113388 -0.375028 0.0292232)
(0.00137756 -0.517696 0.0357897)
(0.00211022 -0.541985 0.0422203)
(0.00290917 -0.540676 0.0491454)
(0.00378773 -0.524823 0.0576715)
(0.00502239 -0.490083 0.067163)
(0.00701249 -0.427924 0.071789)
(0.00942516 -0.341701 0.0577288)
(0.0100028 -0.257424 0.0214366)
(0.0085431 -0.194334 -0.0199319)
(0.00700457 -0.149979 -0.053849)
(0.00605716 -0.117114 -0.0803499)
(0.00547926 -0.0912568 -0.10258)
(0.00511794 -0.0703712 -0.122137)
(0.00502076 -0.0536357 -0.138992)
(0.00536341 -0.0405516 -0.152677)
(0.0062829 -0.0305946 -0.163039)
(0.00775949 -0.0231823 -0.170157)
(0.00967741 -0.0177454 -0.174079)
(0.0118878 -0.0137499 -0.17476)
(0.0141845 -0.0106709 -0.172133)
(0.0163064 -0.00801565 -0.16623)
(0.0179361 -0.00536383 -0.157418)
(0.01878 -0.00232404 -0.146346)
(0.0186614 0.00166406 -0.133533)
(0.0175946 0.0077251 -0.119044)
(0.0156711 0.018478 -0.102718)
(0.0127705 0.0416105 -0.0857889)
(0.00931942 0.0958225 -0.0821068)
(0.00516809 0.167669 -0.104994)
(-0.000690024 0.217208 -0.118417)
(-0.00555149 0.254117 -0.10926)
(-0.00788401 0.280455 -0.0861248)
(-0.00803164 0.288236 -0.061917)
(-0.00502292 0.249264 -0.0323767)
(-0.00342994 -0.383645 0.0476152)
(-0.0101072 -0.496106 0.0559625)
(-0.0165124 -0.514653 0.0578777)
(-0.0222181 -0.514534 0.0613938)
(-0.0278262 -0.502199 0.0680383)
(-0.0322674 -0.47257 0.0786392)
(-0.0343405 -0.413775 0.0909998)
(-0.0332198 -0.318948 0.0920091)
(-0.031396 -0.216621 0.0636221)
(-0.03266 -0.147712 0.0193934)
(-0.0359114 -0.108669 -0.0149359)
(-0.0390782 -0.0802493 -0.0401556)
(-0.0412979 -0.0542289 -0.0652347)
(-0.0417602 -0.0314927 -0.0921038)
(-0.0401862 -0.0157844 -0.115235)
(-0.0373347 -0.00655531 -0.131274)
(-0.0337885 -0.00107346 -0.142303)
(-0.0296962 0.0020956 -0.150354)
(-0.0251809 0.003529 -0.156209)
(-0.0204661 0.00360346 -0.160035)
(-0.0157673 0.00269445 -0.161805)
(-0.011296 0.00121279 -0.161411)
(-0.00729367 -0.000389081 -0.158692)
(-0.00403291 -0.00163626 -0.153497)
(-0.00178024 -0.00202685 -0.145728)
(-0.000834812 -0.000904863 -0.135271)
(-0.00137328 0.00313482 -0.121604)
(-0.00329977 0.0146951 -0.102967)
(-0.00589531 0.04762 -0.0784972)
(-0.00725101 0.112626 -0.0600512)
(-0.00738463 0.171871 -0.0542291)
(-0.00645942 0.206551 -0.0491026)
(-0.00489228 0.222453 -0.0420233)
(-0.00313436 0.223098 -0.0332014)
(-0.000639247 0.177986 -0.017324)
(-0.000151417 -0.341882 0.0136169)
(-0.00116986 -0.478424 0.00588186)
(-0.00361377 -0.508461 0.00411018)
(-0.00661878 -0.516242 0.00520537)
(-0.0103846 -0.514795 0.00941471)
(-0.0145053 -0.504547 0.0189637)
(-0.0185176 -0.478331 0.0380259)
(-0.0205295 -0.415268 0.0667654)
(-0.017539 -0.30275 0.0793932)
(-0.0132861 -0.181949 0.0445238)
(-0.0131924 -0.0991779 -0.0135182)
(-0.0166859 -0.0538272 -0.0518726)
(-0.0210561 -0.0295043 -0.0695811)
(-0.0249353 -0.0144512 -0.0790401)
(-0.0280598 -0.00281921 -0.0859947)
(-0.0302413 0.00762365 -0.0919466)
(-0.0312702 0.0170796 -0.0971067)
(-0.0311657 0.0254 -0.101428)
(-0.0301157 0.0328357 -0.104862)
(-0.0283231 0.039752 -0.107456)
(-0.0259712 0.0465223 -0.109291)
(-0.0232315 0.0535061 -0.110478)
(-0.0202637 0.061056 -0.111135)
(-0.0172231 0.0695224 -0.111319)
(-0.0142965 0.0792541 -0.110898)
(-0.0117685 0.0906594 -0.109373)
(-0.010027 0.104517 -0.105654)
(-0.00941217 0.122538 -0.0977727)
(-0.00968983 0.147529 -0.0833897)
(-0.00930697 0.180375 -0.0643756)
(-0.00691518 0.211486 -0.0490606)
(-0.00348308 0.230925 -0.0399602)
(-0.000599385 0.239588 -0.0344172)
(0.00150661 0.239772 -0.0292555)
(0.00202082 0.205125 -0.0200405)
(-0.00242623 -0.367911 0.0355154)
(-0.00735245 -0.467291 0.0412536)
(-0.0115992 -0.479418 0.0401533)
(-0.0156568 -0.474714 0.0385596)
(-0.0202808 -0.45897 0.0369275)
(-0.0250362 -0.433274 0.0364563)
(-0.0293233 -0.400256 0.0397629)
(-0.0317656 -0.358963 0.0517038)
(-0.0296537 -0.294056 0.0759233)
(-0.0208521 -0.191195 0.0959853)
(-0.00836852 -0.0796938 0.0865617)
(0.00380354 -0.000656181 0.0540612)
(0.0137175 0.0445383 0.0197334)
(0.0214217 0.0694387 -0.00965196)
(0.0260795 0.0809193 -0.0324393)
(0.0275616 0.0820815 -0.0465065)
(0.0268429 0.0787006 -0.0546267)
(0.02484 0.0742867 -0.059932)
(0.0221231 0.0701378 -0.0636616)
(0.0193194 0.0666947 -0.0662889)
(0.0167179 0.0640677 -0.0681504)
(0.0143839 0.0623611 -0.0695417)
(0.0122878 0.0618193 -0.0707739)
(0.0103456 0.0629431 -0.072154)
(0.0084489 0.0666073 -0.073906)
(0.00647827 0.0743249 -0.0760507)
(0.00431169 0.08863 -0.0781496)
(0.00195196 0.112152 -0.0785376)
(-0.000253368 0.143969 -0.0739674)
(-0.00153 0.17851 -0.0633286)
(-0.00129928 0.208415 -0.0510718)
(-9.46332e-07 0.229261 -0.0414425)
(0.00140941 0.241197 -0.0346157)
(0.00243539 0.245436 -0.0282236)
(0.00186732 0.222479 -0.0183354)
(-0.000254965 -0.334221 0.00563656)
(0.00225306 -0.464226 -0.00552331)
(0.00481555 -0.493927 -0.00861751)
(0.00765077 -0.502408 -0.00944384)
(0.0109887 -0.503036 -0.00913284)
(0.0147432 -0.498262 -0.00830824)
(0.0187421 -0.488769 -0.00771027)
(0.0227668 -0.475552 -0.00755017)
(0.0268871 -0.459143 -0.00576501)
(0.0321584 -0.432156 0.00539489)
(0.0408265 -0.37136 0.0361331)
(0.0511083 -0.280075 0.0736375)
(0.0572837 -0.194451 0.098876)
(0.0574289 -0.129111 0.110712)
(0.0527648 -0.0647128 0.103064)
(0.0437178 -0.00533326 0.065739)
(0.0327916 0.0407403 0.0223686)
(0.023981 0.0709815 -0.00798286)
(0.0174198 0.0895571 -0.0242175)
(0.0119397 0.10223 -0.0320281)
(0.00714047 0.112354 -0.0351204)
(0.00286793 0.121796 -0.0351892)
(-0.00101438 0.131959 -0.0333969)
(-0.00472035 0.143953 -0.0314668)
(-0.00844041 0.158334 -0.0319573)
(-0.0122031 0.175186 -0.0372198)
(-0.0157698 0.194225 -0.0476313)
(-0.0184995 0.214299 -0.0600061)
(-0.0197345 0.23343 -0.0692636)
(-0.0192524 0.249955 -0.0732501)
(-0.0172084 0.26306 -0.0733341)
(-0.0139992 0.272419 -0.0712496)
(-0.0103755 0.277616 -0.0674367)
(-0.00619673 0.276088 -0.0596089)
(-0.0018547 0.232413 -0.034325)
(-0.000275354 -0.359242 0.00889944)
(-0.000232637 -0.484514 0.00588753)
(-0.000739843 -0.505999 0.00478799)
(-0.00139299 -0.507232 0.0049117)
(-0.00238653 -0.498183 0.00614756)
(-0.00375528 -0.478691 0.00886326)
(-0.00548103 -0.447036 0.0134832)
(-0.0075352 -0.402567 0.0198012)
(-0.00995744 -0.347508 0.0265944)
(-0.01243 -0.284596 0.0333539)
(-0.0132418 -0.210844 0.0442983)
(-0.010353 -0.11663 0.0651021)
(-0.00610478 -0.0160141 0.0868611)
(-0.004374 0.0705162 0.0946968)
(-0.00441734 0.14878 0.0699639)
(-0.00480078 0.203659 0.00271405)
(-0.00694514 0.203809 -0.0390764)
(-0.00816742 0.192481 -0.0508804)
(-0.00942518 0.180701 -0.053665)
(-0.0112328 0.169547 -0.0519718)
(-0.0135044 0.160839 -0.0470866)
(-0.0159612 0.155724 -0.0398849)
(-0.0183816 0.154688 -0.030859)
(-0.0205921 0.158304 -0.0207423)
(-0.022376 0.166857 -0.0113922)
(-0.0235189 0.179506 -0.00530529)
(-0.0238701 0.194787 -0.00383945)
(-0.0232636 0.211371 -0.00645711)
(-0.0215766 0.227942 -0.0111827)
(-0.0188718 0.243311 -0.0158824)
(-0.0153405 0.256676 -0.0193233)
(-0.0112484 0.267252 -0.0209605)
(-0.00728838 0.273582 -0.0204172)
(-0.00356524 0.272318 -0.0167049)
(-8.78473e-05 0.230368 -0.00465828)
(0.00103314 -0.347983 -0.0103838)
(0.00416408 -0.473688 -0.0206621)
(0.00697167 -0.500471 -0.0245288)
(0.00955144 -0.50651 -0.0272582)
(0.0121728 -0.504569 -0.0299332)
(0.014615 -0.497433 -0.0325297)
(0.0168078 -0.486634 -0.0345679)
(0.0187424 -0.473292 -0.0352048)
(0.020419 -0.458116 -0.0334586)
(0.0218835 -0.440978 -0.0285613)
(0.0232979 -0.418484 -0.0193183)
(0.025384 -0.377965 -0.00173389)
(0.03024 -0.30109 0.0276466)
(0.0370758 -0.204859 0.0590832)
(0.043108 -0.11528 0.0823572)
(0.0473678 -0.0305029 0.0897097)
(0.0500081 0.0481873 0.0711162)
(0.0452069 0.0866133 0.038328)
(0.0349938 0.113942 0.0151982)
(0.0258222 0.137629 -0.00152772)
(0.0184766 0.154211 -0.0115661)
(0.0118611 0.164766 -0.0158745)
(0.0055125 0.172109 -0.0158715)
(-0.000474716 0.178456 -0.0125825)
(-0.00574135 0.185296 -0.00733543)
(-0.00997314 0.19331 -0.00187476)
(-0.0129811 0.202384 0.00235811)
(-0.0147303 0.212099 0.00476277)
(-0.015282 0.222152 0.00546234)
(-0.0147238 0.232311 0.00488181)
(-0.0131536 0.242257 0.00352672)
(-0.0106892 0.251257 0.00196497)
(-0.0078564 0.257506 0.000812585)
(-0.0047967 0.257287 0.000628786)
(-0.00126582 0.218704 0.0030638)
(0.000580097 -0.377036 0.00111326)
(0.0039044 -0.508919 0.00382721)
(0.00664503 -0.531546 0.00453322)
(0.00913216 -0.532904 0.00462224)
(0.0115928 -0.52387 0.00424059)
(0.0136574 -0.50451 0.00319585)
(0.0150696 -0.473226 0.00129555)
(0.0156154 -0.429558 -0.00132509)
(0.015181 -0.376129 -0.00389158)
(0.0137769 -0.31788 -0.00510648)
(0.0116486 -0.260017 -0.00342557)
(0.0093555 -0.204353 0.00342612)
(0.00786617 -0.143211 0.0195803)
(0.00800427 -0.0679547 0.0453773)
(0.00768552 0.00661757 0.0718823)
(0.00491351 0.0792011 0.094857)
(0.00271823 0.185628 0.0967206)
(2.39743e-05 0.280672 0.0219669)
(-0.00986076 0.272523 -0.0392982)
(-0.0177388 0.253487 -0.0496858)
(-0.0231395 0.245019 -0.0467523)
(-0.0269501 0.240882 -0.0418615)
(-0.0295752 0.238569 -0.036778)
(-0.0312673 0.237531 -0.0317831)
(-0.0321692 0.237727 -0.0269525)
(-0.0322297 0.239188 -0.0224217)
(-0.0313644 0.241856 -0.0183991)
(-0.0295515 0.245672 -0.0148683)
(-0.0267201 0.250629 -0.0116603)
(-0.0228993 0.256494 -0.00865661)
(-0.0182769 0.262581 -0.00579761)
(-0.0132304 0.267667 -0.00308656)
(-0.00857783 0.26995 -0.000471512)
(-0.00431748 0.265314 0.00287481)
(-0.000299443 0.216007 0.00739258)
(0.00210134 -0.375759 -0.0102471)
(0.00650888 -0.510336 -0.0138837)
(0.00997254 -0.537146 -0.0154834)
(0.0128709 -0.540981 -0.0172815)
(0.0155653 -0.534785 -0.0198653)
(0.017602 -0.520408 -0.0233677)
(0.0186991 -0.498868 -0.027525)
(0.0188105 -0.472278 -0.0315477)
(0.0181407 -0.443277 -0.0344302)
(0.0169723 -0.413333 -0.0353761)
(0.0154441 -0.381788 -0.033691)
(0.0135612 -0.344793 -0.0280469)
(0.0114027 -0.293473 -0.0151446)
(0.0100708 -0.217018 0.00921619)
(0.0105396 -0.124534 0.0399174)
(0.0117529 -0.0398122 0.0664563)
(0.0141884 0.0423382 0.087234)
(0.0194052 0.15456 0.0843948)
(0.0243273 0.240918 0.0353413)
(0.0209939 0.255489 -0.0159769)
(0.0136826 0.238767 -0.0368929)
(0.0068301 0.224809 -0.0402024)
(0.00103022 0.216842 -0.0377873)
(-0.00359556 0.21238 -0.0343573)
(-0.00723912 0.209493 -0.0313674)
(-0.0100472 0.207431 -0.0291815)
(-0.0119764 0.206108 -0.0277904)
(-0.0129575 0.205667 -0.0269135)
(-0.0129735 0.206448 -0.0260928)
(-0.0120527 0.209167 -0.0247165)
(-0.0102058 0.214842 -0.0221006)
(-0.00743294 0.223758 -0.017695)
(-0.0041779 0.233138 -0.0115707)
(-0.0011386 0.236344 -0.00420437)
(0.000892663 0.205689 0.00532183)
(0.00208073 -0.421362 0.00400549)
(0.00614466 -0.546952 0.0113191)
(0.00928269 -0.564547 0.012149)
(0.0120068 -0.561725 0.0112534)
(0.0147336 -0.547388 0.0089275)
(0.0169021 -0.520421 0.00477802)
(0.018079 -0.479414 -0.00142966)
(0.0180379 -0.427063 -0.00894028)
(0.0170052 -0.368919 -0.0163511)
(0.0153349 -0.309427 -0.0224793)
(0.0131143 -0.252102 -0.0263746)
(0.0103256 -0.200524 -0.0270464)
(0.00721454 -0.155543 -0.0232147)
(0.00425543 -0.111864 -0.0124359)
(0.00240312 -0.0607275 0.00776046)
(0.00185855 -0.00488687 0.0328599)
(0.00217069 0.0481925 0.0567611)
(0.00512014 0.109053 0.0778036)
(0.011872 0.19391 0.084376)
(0.0181791 0.286451 0.0576518)
(0.0134232 0.320279 0.00691509)
(0.0029907 0.313226 -0.0248114)
(-0.0062516 0.299413 -0.0363407)
(-0.0132008 0.289532 -0.0361802)
(-0.0175499 0.284386 -0.0316054)
(-0.0193802 0.281566 -0.0262229)
(-0.0189098 0.279293 -0.0209364)
(-0.0163429 0.277318 -0.0158534)
(-0.0121799 0.276246 -0.0114178)
(-0.00729773 0.275789 -0.0081857)
(-0.00265081 0.274468 -0.00558156)
(0.000771299 0.27224 -0.00162929)
(0.00254763 0.270169 0.00475609)
(0.0029747 0.265068 0.0127876)
(0.00203335 0.226517 0.0194879)
(0.0011577 -0.419789 0.00585197)
(0.00231919 -0.553121 0.0103558)
(0.00316445 -0.573589 0.010158)
(0.00375456 -0.572342 0.00837404)
(0.00418737 -0.559344 0.0049059)
(0.00415424 -0.533591 -0.000818014)
(0.00316153 -0.495581 -0.0086407)
(0.000977012 -0.452539 -0.0166606)
(-0.00191554 -0.411661 -0.0228529)
(-0.00480305 -0.373508 -0.0265647)
(-0.00726648 -0.334278 -0.0277839)
(-0.00920894 -0.289528 -0.0262299)
(-0.0107154 -0.236949 -0.0212406)
(-0.0118281 -0.177948 -0.0121479)
(-0.0122561 -0.117164 0.00121906)
(-0.0117349 -0.0609305 0.0174498)
(-0.0105553 -0.0122273 0.0344085)
(-0.00895401 0.0367135 0.0527568)
(-0.00659256 0.10561 0.0733093)
(-0.0016519 0.21694 0.0818035)
(0.000444276 0.318182 0.0430727)
(-0.00384553 0.338047 -0.00452361)
(-0.00757116 0.323335 -0.0302383)
(-0.0102025 0.29709 -0.0410119)
(-0.0110415 0.265398 -0.0416865)
(-0.00978726 0.233638 -0.0350431)
(-0.00684425 0.208197 -0.0240437)
(-0.00304827 0.192759 -0.011663)
(0.000886848 0.186919 0.000906781)