/*--------------------------------*- C++ -*----------------------------------*\
| =========                 |                                                 |
| \\      /  F ield         | OpenFOAM: The Open Source CFD Toolbox           |
|  \\    /   O peration     | Version:  v1906                                 |
|   \\  /    A nd           | Web:      www.OpenFOAM.com                      |
|    \\/     M anipulation  |                                                 |
\*---------------------------------------------------------------------------*/
FoamFile
{
    version     2.0;
    format      ascii;
    class       volVectorField;
    location    "5.4/oil";
    object      U;
}
// * * * * * * * * * * * * * * * * * * * * * * * * * * * * * * * * * * * * * //

dimensions      [0 1 -1 0 0 0 0];


internalField   nonuniform List<vector> 
27760
(
(-3.57528e-05 -3.64865e-05 -3.57529e-05)
(-7.06385e-05 -2.7395e-05 -2.57465e-05)
(-5.2678e-06 -7.12523e-06 -6.99663e-06)
(-8.72168e-06 -1.18948e-06 -1.20992e-06)
(-2.28051e-06 -4.10883e-07 -4.26849e-07)
(-1.44219e-06 -2.05712e-07 -2.11917e-07)
(-6.89655e-07 -8.59764e-08 -8.72369e-08)
(-3.73483e-07 -4.10356e-08 -4.02677e-08)
(-2.03447e-07 -1.99708e-08 -1.84318e-08)
(-1.15193e-07 -1.03265e-08 -8.51252e-09)
(-6.73102e-08 -5.57879e-09 -3.67404e-09)
(-4.17134e-08 -3.14566e-09 -1.21397e-09)
(-2.87773e-08 -1.82809e-09 1.11038e-10)
(-2.33659e-08 -1.09055e-09 8.51797e-10)
(-2.2449e-08 -6.8299e-10 1.25962e-09)
(-2.40911e-08 -4.81748e-10 1.4589e-09)
(-2.69516e-08 -4.21847e-10 1.51493e-09)
(-3.00494e-08 -4.64842e-10 1.46739e-09)
(-3.26697e-08 -5.80753e-10 1.34841e-09)
(-3.43231e-08 -7.45142e-10 1.18418e-09)
(-3.47243e-08 -9.3382e-10 9.99674e-10)
(-3.3772e-08 -1.12624e-09 8.14693e-10)
(-3.15119e-08 -1.30557e-09 6.45306e-10)
(-2.80978e-08 -1.46156e-09 5.03822e-10)
(-2.37496e-08 -1.59037e-09 4.0224e-10)
(-1.87277e-08 -1.69289e-09 3.5557e-10)
(-1.33436e-08 -1.7635e-09 3.82849e-10)
(-8.00531e-09 -1.76885e-09 4.92456e-10)
(-3.32112e-09 -1.58155e-09 6.17924e-10)
(-4.10291e-10 -9.55274e-10 5.51593e-10)
(-2.59723e-05 -7.2545e-05 -2.59723e-05)
(-8.62913e-06 -9.24449e-06 -1.16362e-05)
(-1.18681e-05 -1.11417e-05 -4.0635e-06)
(-5.9538e-06 -2.98583e-06 -1.15149e-06)
(-3.01777e-06 -1.67264e-06 -5.59449e-07)
(-1.80852e-06 -7.64072e-07 -2.6308e-07)
(-1.01411e-06 -3.89804e-07 -1.21536e-07)
(-6.01548e-07 -2.05551e-07 -5.84947e-08)
(-3.60816e-07 -1.15395e-07 -2.76267e-08)
(-2.22473e-07 -6.88323e-08 -1.2571e-08)
(-1.41299e-07 -4.37969e-08 -4.81059e-09)
(-9.44658e-08 -2.96946e-08 -6.41576e-10)
(-6.87148e-08 -2.14271e-08 1.71205e-09)
(-5.62581e-08 -1.64553e-08 3.07657e-09)
(-5.21325e-08 -1.34821e-08 3.84616e-09)
(-5.29656e-08 -1.18051e-08 4.2215e-09)
(-5.63296e-08 -1.10209e-08 4.31252e-09)
(-6.04069e-08 -1.08725e-08 4.18983e-09)
(-6.38572e-08 -1.1163e-08 3.91398e-09)
(-6.57566e-08 -1.17312e-08 3.53741e-09)
(-6.5563e-08 -1.24338e-08 3.1119e-09)
(-6.3079e-08 -1.31574e-08 2.68213e-09)
(-5.8384e-08 -1.38214e-08 2.28686e-09)
(-5.17605e-08 -1.43854e-08 1.95617e-09)
(-4.36151e-08 -1.48328e-08 1.71407e-09)
(-3.44295e-08 -1.5135e-08 1.57864e-09)
(-2.47618e-08 -1.51664e-08 1.55852e-09)
(-1.52703e-08 -1.4561e-08 1.62309e-09)
(-6.91709e-09 -1.23946e-08 1.63349e-09)
(-9.02777e-10 -6.85505e-09 1.11249e-09)
(-7.2088e-06 -6.55821e-06 -7.20882e-06)
(-1.15468e-05 -1.216e-05 -4.19618e-06)
(-6.46196e-06 -6.32916e-06 -1.87265e-06)
(-4.42955e-06 -3.11351e-06 -9.01209e-07)
(-2.62381e-06 -1.76592e-06 -4.39698e-07)
(-1.66111e-06 -9.48115e-07 -2.16541e-07)
(-1.02018e-06 -5.41772e-07 -1.057e-07)
(-6.45671e-07 -3.20199e-07 -5.24801e-08)
(-4.1201e-07 -1.99443e-07 -2.53241e-08)
(-2.68451e-07 -1.3107e-07 -1.13963e-08)
(-1.79592e-07 -9.11763e-08 -3.85924e-09)
(-1.25784e-07 -6.70973e-08 3.98221e-10)
(-9.4731e-08 -5.21616e-08 2.91409e-09)
(-7.86712e-08 -4.27537e-08 4.42824e-09)
(-7.23343e-08 -3.68746e-08 5.30223e-09)
(-7.19516e-08 -3.33593e-08 5.72963e-09)
(-7.47124e-08 -3.14951e-08 5.8207e-09)
(-7.84544e-08 -3.08075e-08 5.65022e-09)
(-8.15568e-08 -3.09239e-08 5.28878e-09)
(-8.28945e-08 -3.154e-08 4.79944e-09)
(-8.1805e-08 -3.23924e-08 4.24775e-09)
(-7.80534e-08 -3.32816e-08 3.69186e-09)
(-7.1747e-08 -3.40806e-08 3.18335e-09)
(-6.32475e-08 -3.47388e-08 2.76344e-09)
(-5.3068e-08 -3.5241e-08 2.46289e-09)
(-4.18087e-08 -3.55168e-08 2.29962e-09)
(-3.01408e-08 -3.52631e-08 2.27145e-09)
(-1.87856e-08 -3.36473e-08 2.31607e-09)
(-8.78489e-09 -2.86988e-08 2.25021e-09)
(-1.18036e-09 -1.60761e-08 1.44714e-09)
(-1.33063e-06 -9.29283e-06 -1.33066e-06)
(-3.30081e-06 -6.25216e-06 -1.23679e-06)
(-3.22211e-06 -4.49882e-06 -9.20436e-07)
(-2.62614e-06 -2.65332e-06 -5.15659e-07)
(-1.81423e-06 -1.63719e-06 -2.79389e-07)
(-1.26409e-06 -9.8483e-07 -1.49312e-07)
(-8.50903e-07 -6.15697e-07 -7.78685e-08)
(-5.77112e-07 -3.96119e-07 -4.03901e-08)
(-3.91451e-07 -2.66188e-07 -2.00023e-08)
(-2.68826e-07 -1.87282e-07 -8.82619e-09)
(-1.88611e-07 -1.38353e-07 -2.39587e-09)
(-1.37856e-07 -1.07267e-07 1.45787e-09)
(-1.07543e-07 -8.71515e-08 3.85313e-09)
(-9.13951e-08 -7.40204e-08 5.35078e-09)
(-8.47753e-08 -6.55328e-08 6.23106e-09)
(-8.41284e-08 -6.02383e-08 6.65569e-09)
(-8.66747e-08 -5.72067e-08 6.72112e-09)
(-9.01839e-08 -5.57973e-08 6.49554e-09)
(-9.29396e-08 -5.54913e-08 6.05552e-09)
(-9.37392e-08 -5.58624e-08 5.46963e-09)
(-9.18754e-08 -5.65439e-08 4.81531e-09)
(-8.71183e-08 -5.72706e-08 4.16047e-09)
(-7.96181e-08 -5.78907e-08 3.56707e-09)
(-6.98086e-08 -5.83659e-08 3.08393e-09)
(-5.82888e-08 -5.86995e-08 2.74661e-09)
(-4.57418e-08 -5.87843e-08 2.57329e-09)
(-3.2907e-08 -5.81233e-08 2.55637e-09)
(-2.05268e-08 -5.53621e-08 2.61659e-09)
(-9.6671e-09 -4.73394e-08 2.54758e-09)
(-1.304e-09 -2.67235e-08 1.63834e-09)
(-4.71438e-07 -2.59084e-06 -4.71475e-07)
(-1.80795e-06 -3.23873e-06 -5.98218e-07)
(-1.80977e-06 -2.75717e-06 -4.54472e-07)
(-1.60247e-06 -1.91509e-06 -2.83635e-07)
(-1.22714e-06 -1.3217e-06 -1.66261e-07)
(-9.20602e-07 -8.87777e-07 -9.47365e-08)
(-6.65275e-07 -6.07754e-07 -5.21327e-08)
(-4.77785e-07 -4.24822e-07 -2.80217e-08)
(-3.40947e-07 -3.07099e-07 -1.39708e-08)
(-2.44765e-07 -2.30434e-07 -5.67946e-09)
(-1.78901e-07 -1.79971e-07 -5.50674e-10)
(-1.35893e-07 -1.46275e-07 2.74529e-09)
(-1.09826e-07 -1.23553e-07 4.9152e-09)
(-9.60857e-08 -1.08187e-07 6.32888e-09)
(-9.09045e-08 -9.79103e-08 7.16991e-09)
(-9.11603e-08 -9.12193e-08 7.5601e-09)
(-9.42908e-08 -8.71049e-08 7.57604e-09)
(-9.8128e-08 -8.48547e-08 7.27307e-09)
(-1.0095e-07 -8.38648e-08 6.73418e-09)
(-1.01536e-07 -8.36373e-08 6.03161e-09)
(-9.91781e-08 -8.37422e-08 5.25704e-09)
(-9.36798e-08 -8.38853e-08 4.48863e-09)
(-8.52532e-08 -8.3922e-08 3.79884e-09)
(-7.44137e-08 -8.38556e-08 3.24278e-09)
(-6.18471e-08 -8.37311e-08 2.85997e-09)
(-4.83137e-08 -8.34174e-08 2.66864e-09)
(-3.46128e-08 -8.22226e-08 2.65789e-09)
(-2.1513e-08 -7.82443e-08 2.73898e-09)
(-1.0105e-08 -6.70403e-08 2.69116e-09)
(-1.34954e-09 -3.80531e-08 1.75205e-09)
(-2.29014e-07 -1.61524e-06 -2.29056e-07)
(-8.13433e-07 -1.99401e-06 -2.81184e-07)
(-9.48315e-07 -1.8237e-06 -2.25646e-07)
(-9.34253e-07 -1.40968e-06 -1.53236e-07)
(-7.89752e-07 -1.05967e-06 -9.58872e-08)
(-6.37504e-07 -7.76548e-07 -5.78175e-08)
(-4.91633e-07 -5.74202e-07 -3.32787e-08)
(-3.72026e-07 -4.31303e-07 -1.82317e-08)
(-2.77718e-07 -3.32659e-07 -8.74766e-09)
(-2.07392e-07 -2.64519e-07 -2.65871e-09)
(-1.57343e-07 -2.17342e-07 1.43105e-09)
(-1.24089e-07 -1.84471e-07 4.26651e-09)
(-1.0419e-07 -1.61493e-07 6.24329e-09)
(-9.44874e-08 -1.45433e-07 7.58053e-09)
(-9.205e-08 -1.34309e-07 8.37556e-09)
(-9.42289e-08 -1.26708e-07 8.71907e-09)
(-9.87491e-08 -1.21647e-07 8.6684e-09)
(-1.03555e-07 -1.18432e-07 8.26242e-09)
(-1.0695e-07 -1.16446e-07 7.59313e-09)
(-1.07722e-07 -1.15182e-07 6.73758e-09)
(-1.05181e-07 -1.14202e-07 5.80644e-09)
(-9.91845e-08 -1.13229e-07 4.8901e-09)
(-9.00259e-08 -1.1217e-07 4.07309e-09)
(-7.83183e-08 -1.11104e-07 3.41728e-09)
(-6.48397e-08 -1.10139e-07 2.96515e-09)
(-5.04334e-08 -1.09136e-07 2.7344e-09)
(-3.59623e-08 -1.07208e-07 2.71123e-09)
(-2.22349e-08 -1.01884e-07 2.80078e-09)
(-1.03773e-08 -8.73775e-08 2.77181e-09)
(-1.36331e-09 -4.97689e-08 1.82676e-09)
(-9.39876e-08 -8.18279e-07 -9.40342e-08)
(-3.98944e-07 -1.19174e-06 -1.29846e-07)
(-5.17187e-07 -1.20323e-06 -1.10897e-07)
(-5.52404e-07 -1.0291e-06 -8.07889e-08)
(-5.04217e-07 -8.40566e-07 -5.35248e-08)
(-4.32168e-07 -6.67515e-07 -3.38399e-08)
(-3.51299e-07 -5.30472e-07 -2.00287e-08)
(-2.77441e-07 -4.26028e-07 -1.07671e-08)
(-2.14881e-07 -3.49132e-07 -4.3661e-09)
(-1.65881e-07 -2.93143e-07 1.66029e-10)
(-1.3017e-07 -2.52632e-07 3.50138e-09)
(-1.06637e-07 -2.23344e-07 6.00288e-09)
(-9.3466e-08 -2.02193e-07 7.8411e-09)
(-8.85439e-08 -1.86916e-07 9.12347e-09)
(-8.95845e-08 -1.75897e-07 9.87445e-09)
(-9.43393e-08 -1.67884e-07 1.01662e-08)
(-1.00825e-07 -1.62e-07 1.00395e-08)
(-1.07097e-07 -1.57646e-07 9.5103e-09)
(-1.11484e-07 -1.54264e-07 8.68327e-09)
(-1.12783e-07 -1.51409e-07 7.64083e-09)
(-1.10321e-07 -1.487e-07 6.51731e-09)
(-1.04028e-07 -1.45939e-07 5.41816e-09)
(-9.42933e-08 -1.43136e-07 4.44321e-09)
(-8.18384e-08 -1.40484e-07 3.66038e-09)
(-6.75446e-08 -1.38182e-07 3.11484e-09)
(-5.23402e-08 -1.3609e-07 2.82241e-09)
(-3.71551e-08 -1.33127e-07 2.76608e-09)
(-2.28467e-08 -1.26236e-07 2.84647e-09)
(-1.05824e-08 -1.08237e-07 2.82405e-09)
(-1.36431e-09 -6.17582e-08 1.87763e-09)
(-4.27452e-08 -4.89187e-07 -4.27943e-08)
(-1.97382e-07 -7.84787e-07 -6.24194e-08)
(-2.83106e-07 -8.48462e-07 -5.56426e-08)
(-3.24851e-07 -7.83268e-07 -4.26955e-08)
(-3.16606e-07 -6.85022e-07 -2.95646e-08)
(-2.85605e-07 -5.82095e-07 -1.92385e-08)
(-2.42418e-07 -4.92711e-07 -1.13055e-08)
(-1.98175e-07 -4.19996e-07 -5.42065e-09)
(-1.58079e-07 -3.63582e-07 -9.06631e-10)
(-1.25499e-07 -3.20777e-07 2.64331e-09)
(-1.01723e-07 -2.88743e-07 5.50153e-09)
(-8.68974e-08 -2.64904e-07 7.80052e-09)
(-8.01668e-08 -2.47197e-07 9.55896e-09)
(-8.00796e-08 -2.33945e-07 1.08106e-08)
(-8.47799e-08 -2.23862e-07 1.15217e-08)
(-9.23239e-08 -2.15868e-07 1.17624e-08)
(-1.01007e-07 -2.09226e-07 1.15606e-08)
(-1.08982e-07 -2.0349e-07 1.09007e-08)
(-1.14581e-07 -1.98223e-07 9.90382e-09)
(-1.16602e-07 -1.93115e-07 8.65519e-09)
(-1.14389e-07 -1.87914e-07 7.31785e-09)
(-1.0795e-07 -1.82573e-07 6.01513e-09)
(-9.77774e-08 -1.77261e-07 4.86402e-09)
(-8.4708e-08 -1.72326e-07 3.93826e-09)
(-6.9729e-08 -1.68088e-07 3.28464e-09)
(-5.38513e-08 -1.64418e-07 2.91582e-09)
(-3.80664e-08 -1.6003e-07 2.81155e-09)
(-2.328e-08 -1.51268e-07 2.86857e-09)
(-1.06963e-08 -1.29531e-07 2.84299e-09)
(-1.35078e-09 -7.39358e-08 1.90198e-09)
(-1.92626e-08 -3.19988e-07 -1.93131e-08)
(-1.00141e-07 -5.56341e-07 -2.98131e-08)
(-1.56678e-07 -6.34994e-07 -2.77178e-08)
(-1.90831e-07 -6.23293e-07 -2.2217e-08)
(-1.96062e-07 -5.7745e-07 -1.5859e-08)
(-1.84175e-07 -5.19898e-07 -1.03224e-08)
(-1.61546e-07 -4.65071e-07 -5.58881e-09)
(-1.35455e-07 -4.17886e-07 -1.64409e-09)
(-1.10424e-07 -3.7983e-07 1.74054e-09)
(-8.97662e-08 -3.50176e-07 4.68846e-09)
(-7.52734e-08 -3.27544e-07 7.25461e-09)
(-6.76453e-08 -3.10391e-07 9.4346e-09)
(-6.64962e-08 -2.97317e-07 1.11432e-08)
(-7.0737e-08 -2.87054e-07 1.23698e-08)
(-7.87608e-08 -2.78568e-07 1.30349e-08)
(-8.88456e-08 -2.70925e-07 1.32273e-08)
(-9.95585e-08 -2.63537e-07 1.29655e-08)
(-1.0914e-07 -2.56137e-07 1.21886e-08)
(-1.15911e-07 -2.48464e-07 1.10353e-08)
(-1.18664e-07 -2.40398e-07 9.59055e-09)
(-1.16752e-07 -2.31893e-07 8.0488e-09)
(-1.10265e-07 -2.23124e-07 6.55089e-09)
(-9.9798e-08 -2.14483e-07 5.23062e-09)
(-8.63002e-08 -2.06525e-07 4.16775e-09)
(-7.08519e-08 -1.99711e-07 3.40914e-09)
(-5.45332e-08 -1.93928e-07 2.96393e-09)
(-3.83823e-08 -1.8769e-07 2.80766e-09)
(-2.33395e-08 -1.76726e-07 2.83542e-09)
(-1.06295e-08 -1.51005e-07 2.80512e-09)
(-1.31094e-09 -8.61337e-08 1.8886e-09)
(-8.80099e-09 -2.37304e-07 -8.85224e-09)
(-5.12217e-08 -4.32104e-07 -1.4294e-08)
(-8.65928e-08 -5.10777e-07 -1.37813e-08)
(-1.10923e-07 -5.23973e-07 -1.13778e-08)
(-1.18908e-07 -5.0775e-07 -8.16657e-09)
(-1.15241e-07 -4.79112e-07 -5.01195e-09)
(-1.0348e-07 -4.48916e-07 -1.97418e-09)
(-8.82364e-08 -4.2184e-07 8.80906e-10)
(-7.30303e-08 -3.99723e-07 3.60055e-09)
(-6.07096e-08 -3.82567e-07 6.17912e-09)
(-5.30716e-08 -3.69622e-07 8.55709e-09)
(-5.0974e-08 -3.5984e-07 1.06522e-08)
(-5.42098e-08 -3.52159e-07 1.23091e-08)
(-6.18594e-08 -3.45543e-07 1.34957e-08)
(-7.24407e-08 -3.39107e-07 1.41011e-08)
(-8.44021e-08 -3.32041e-07 1.42491e-08)
(-9.65924e-08 -3.23893e-07 1.39513e-08)
(-1.07344e-07 -3.14566e-07 1.30904e-08)
(-1.14962e-07 -3.04002e-07 1.18212e-08)
(-1.18247e-07 -2.9232e-07 1.02231e-08)
(-1.16565e-07 -2.79748e-07 8.51994e-09)
(-1.10085e-07 -2.66752e-07 6.86872e-09)
(-9.94926e-08 -2.54015e-07 5.41792e-09)
(-8.58307e-08 -2.42339e-07 4.2508e-09)
(-7.02437e-08 -2.3235e-07 3.41216e-09)
(-5.38538e-08 -2.23961e-07 2.90683e-09)
(-3.77172e-08 -2.15476e-07 2.70744e-09)
(-2.27832e-08 -2.02019e-07 2.71051e-09)
(-1.02676e-08 -1.72153e-07 2.68245e-09)
(-1.22972e-09 -9.80613e-08 1.82383e-09)
(-3.92558e-09 -1.95766e-07 -3.97751e-09)
(-2.61488e-08 -3.63931e-07 -6.7129e-09)
(-4.74812e-08 -4.38754e-07 -6.68984e-09)
(-6.35469e-08 -4.63644e-07 -5.59947e-09)
(-7.0519e-08 -4.64589e-07 -3.87617e-09)
(-6.99932e-08 -4.548e-07 -1.93483e-09)
(-6.3878e-08 -4.42415e-07 1.7143e-10)
(-5.50644e-08 -4.31246e-07 2.37644e-09)
(-4.61672e-08 -4.22821e-07 4.65688e-09)
(-3.94924e-08 -4.17199e-07 6.95366e-09)
(-3.66319e-08 -4.1374e-07 9.1513e-09)
(-3.8406e-08 -4.11512e-07 1.11261e-08)
(-4.46369e-08 -4.09538e-07 1.26827e-08)
(-5.44737e-08 -4.06867e-07 1.37835e-08)
(-6.65093e-08 -4.02691e-07 1.43022e-08)
(-7.93492e-08 -3.96327e-07 1.44088e-08)
(-9.21236e-08 -3.87435e-07 1.41104e-08)
(-1.03285e-07 -3.76043e-07 1.32266e-08)
(-1.11157e-07 -3.62289e-07 1.19206e-08)
(-1.14576e-07 -3.46544e-07 1.02609e-08)
(-1.12943e-07 -3.29365e-07 8.49306e-09)
(-1.06498e-07 -3.11565e-07 6.7817e-09)
(-9.59948e-08 -2.94175e-07 5.28301e-09)
(-8.25269e-08 -2.7828e-07 4.08004e-09)
(-6.72588e-08 -2.64685e-07 3.21438e-09)
(-5.13082e-08 -2.53335e-07 2.68642e-09)
(-3.5709e-08 -2.42334e-07 2.46689e-09)
(-2.13879e-08 -2.26216e-07 2.45979e-09)
(-9.50761e-09 -1.9222e-07 2.45022e-09)
(-1.09311e-09 -1.09302e-07 1.6952e-09)
(-1.67308e-09 -1.75281e-07 -1.72553e-09)
(-1.326e-08 -3.27026e-07 -3.05591e-09)
(-2.59045e-08 -3.97674e-07 -3.14335e-09)
(-3.61774e-08 -4.27988e-07 -2.61032e-09)
(-4.14734e-08 -4.39105e-07 -1.60728e-09)
(-4.21207e-08 -4.41869e-07 -3.15199e-10)
(-3.91091e-08 -4.42522e-07 1.2355e-09)
(-3.42522e-08 -4.43951e-07 2.9966e-09)
(-2.9445e-08 -4.47137e-07 4.92532e-09)
(-2.64841e-08 -4.51855e-07 6.94685e-09)
(-2.66895e-08 -4.57281e-07 8.92686e-09)
(-3.07663e-08 -4.62353e-07 1.07259e-08)
(-3.8527e-08 -4.65994e-07 1.21347e-08)
(-4.91757e-08 -4.67248e-07 1.31145e-08)
(-6.1396e-08 -4.65332e-07 1.35363e-08)
(-7.39563e-08 -4.59713e-07 1.36034e-08)
(-8.62294e-08 -4.5014e-07 1.33197e-08)
(-9.68206e-08 -4.36677e-07 1.24594e-08)
(-1.04143e-07 -4.19649e-07 1.11891e-08)
(-1.07131e-07 -3.99669e-07 9.56757e-09)
(-1.05268e-07 -3.77659e-07 7.84675e-09)
(-9.88625e-08 -3.54824e-07 6.18893e-09)
(-8.86974e-08 -3.32562e-07 4.7468e-09)
(-7.58544e-08 -3.12256e-07 3.59623e-09)
(-6.14567e-08 -2.949e-07 2.77195e-09)
(-4.65587e-08 -2.80468e-07 2.27028e-09)
(-3.21222e-08 -2.66874e-07 2.06293e-09)
(-1.90102e-08 -2.48122e-07 2.06677e-09)
(-8.28475e-09 -2.10254e-07 2.0962e-09)
(-8.93489e-10 -1.19343e-07 1.49653e-09)
(-6.78004e-10 -1.6516e-07 -7.31702e-10)
(-6.92809e-09 -3.06816e-07 -1.38246e-09)
(-1.46983e-08 -3.73939e-07 -1.48028e-09)
(-2.15614e-08 -4.06692e-07 -1.20224e-09)
(-2.57703e-08 -4.23969e-07 -5.85237e-10)
(-2.71738e-08 -4.35213e-07 3.00738e-10)
(-2.62485e-08 -4.45409e-07 1.44217e-09)
(-2.41143e-08 -4.56657e-07 2.80653e-09)
(-2.20953e-08 -4.6936e-07 4.35203e-09)
(-2.1529e-08 -4.82895e-07 6.0069e-09)
(-2.34489e-08 -4.96111e-07 7.64534e-09)
(-2.84194e-08 -5.0769e-07 9.1371e-09)
(-3.62645e-08 -5.16358e-07 1.029e-08)
(-4.62901e-08 -5.21123e-07 1.10695e-08)
(-5.73475e-08 -5.21227e-07 1.13711e-08)
(-6.83932e-08 -5.16324e-07 1.13972e-08)
(-7.89607e-08 -5.06229e-07 1.11528e-08)
(-8.78563e-08 -4.90955e-07 1.04028e-08)
(-9.36987e-08 -4.70955e-07 9.295e-09)
(-9.56079e-08 -4.47053e-07 7.87848e-09)
(-9.32086e-08 -4.20527e-07 6.38265e-09)
(-8.6862e-08 -3.92966e-07 4.9506e-09)
(-7.73262e-08 -3.66133e-07 3.71604e-09)
(-6.5597e-08 -3.41695e-07 2.74021e-09)
(-5.26787e-08 -3.20821e-07 2.04996e-09)
(-3.94965e-08 -3.03511e-07 1.63949e-09)
(-2.68888e-08 -2.87523e-07 1.48627e-09)
(-1.56142e-08 -2.66409e-07 1.52751e-09)
(-6.58586e-09 -2.25215e-07 1.61931e-09)
(-6.29735e-10 -1.27632e-07 1.22822e-09)
(-3.22291e-10 -1.59725e-07 -3.77196e-10)
(-4.28887e-09 -2.94733e-07 -7.58468e-10)
(-9.82606e-09 -3.58909e-07 -8.59083e-10)
(-1.52408e-08 -3.92523e-07 -7.19261e-10)
(-1.93195e-08 -4.1345e-07 -3.44013e-10)
(-2.17343e-08 -4.3032e-07 2.40929e-10)
(-2.26459e-08 -4.47299e-07 1.02971e-09)
(-2.26865e-08 -4.65882e-07 2.0035e-09)
(-2.27053e-08 -4.85977e-07 3.13392e-09)
(-2.36193e-08 -5.06561e-07 4.36819e-09)
(-2.61777e-08 -5.26145e-07 5.61214e-09)
(-3.082e-08 -5.43135e-07 6.76312e-09)
(-3.74557e-08 -5.56034e-07 7.67087e-09)
(-4.55834e-08 -5.63776e-07 8.28873e-09)
(-5.43322e-08 -5.65609e-07 8.52908e-09)
(-6.28508e-08 -5.61345e-07 8.51415e-09)
(-7.06768e-08 -5.50839e-07 8.2519e-09)
(-7.68399e-08 -5.34052e-07 7.58207e-09)
(-8.03006e-08 -5.11545e-07 6.64392e-09)
(-8.04801e-08 -4.84336e-07 5.49325e-09)
(-7.72171e-08 -4.54022e-07 4.31597e-09)
(-7.0919e-08 -4.2252e-07 3.21862e-09)
(-6.22694e-08 -3.91902e-07 2.29617e-09)
(-5.21003e-08 -3.64068e-07 1.58636e-09)
(-4.12198e-08 -3.40321e-07 1.10157e-09)
(-3.03612e-08 -3.20678e-07 8.33695e-10)
(-2.01876e-08 -3.02772e-07 7.68391e-10)
(-1.13165e-08 -2.79817e-07 8.68682e-10)
(-4.4697e-09 -2.36126e-07 1.04086e-09)
(-3.11467e-10 -1.33653e-07 9.0099e-10)
(-3.03978e-10 -1.55754e-07 -3.60738e-10)
(-3.79405e-09 -2.85513e-07 -7.09862e-10)
(-8.88229e-09 -3.4694e-07 -8.35586e-10)
(-1.43294e-08 -3.80385e-07 -7.97831e-10)
(-1.92067e-08 -4.03181e-07 -6.14847e-10)
(-2.31096e-08 -4.23446e-07 -3.06766e-10)
(-2.59683e-08 -4.44806e-07 1.19262e-10)
(-2.80326e-08 -4.68307e-07 6.50138e-10)
(-2.97344e-08 -4.93481e-07 1.26757e-09)
(-3.1592e-08 -5.18997e-07 1.94304e-09)
(-3.40725e-08 -5.43096e-07 2.6275e-09)
(-3.74921e-08 -5.63963e-07 3.26439e-09)
(-4.18839e-08 -5.79937e-07 3.77633e-09)
(-4.7005e-08 -5.89878e-07 4.12003e-09)
(-5.23569e-08 -5.93027e-07 4.24894e-09)
(-5.73195e-08 -5.89278e-07 4.18673e-09)
(-6.13935e-08 -5.78519e-07 3.95329e-09)
(-6.38945e-08 -5.60714e-07 3.48308e-09)
(-6.42357e-08 -5.36518e-07 2.88373e-09)
(-6.22098e-08 -5.07101e-07 2.19839e-09)
(-5.79017e-08 -4.74283e-07 1.53587e-09)
(-5.17318e-08 -4.40207e-07 9.50679e-10)
(-4.4247e-08 -4.07144e-07 4.86453e-10)
(-3.60461e-08 -3.77137e-07 1.54492e-10)
(-2.7679e-08 -3.51568e-07 -4.42547e-11)
(-1.96374e-08 -3.3046e-07 -1.14702e-10)
(-1.23751e-08 -3.11369e-07 -5.83233e-11)
(-6.34466e-09 -2.87316e-07 1.21001e-10)
(-2.04587e-09 -2.42197e-07 3.88802e-10)
(4.69775e-11 -1.36991e-07 5.30362e-10)
(-4.60363e-10 -1.51416e-07 -5.18975e-10)
(-4.51441e-09 -2.75974e-07 -9.66075e-10)
(-1.0274e-08 -3.3447e-07 -1.1348e-09)
(-1.67363e-08 -3.66905e-07 -1.1818e-09)
(-2.30846e-08 -3.90157e-07 -1.15884e-09)
(-2.88531e-08 -4.11952e-07 -1.09791e-09)
(-3.37721e-08 -4.35533e-07 -1.01155e-09)
(-3.77693e-08 -4.61638e-07 -9.0807e-10)
(-4.0902e-08 -4.89549e-07 -7.87903e-10)
(-4.33152e-08 -5.17753e-07 -6.4834e-10)
(-4.52116e-08 -5.44352e-07 -4.83215e-10)
(-4.68039e-08 -5.67421e-07 -2.98533e-10)
(-4.82935e-08 -5.85214e-07 -1.00987e-10)
(-4.9751e-08 -5.96528e-07 5.52092e-11)
(-5.10922e-08 -6.00558e-07 1.32582e-10)
(-5.19352e-08 -5.97186e-07 3.21149e-11)
(-5.17252e-08 -5.86343e-07 -2.15288e-10)
(-5.00755e-08 -5.68064e-07 -5.55837e-10)
(-4.6897e-08 -5.43126e-07 -8.82469e-10)
(-4.24004e-08 -5.12814e-07 -1.14649e-09)
(-3.69351e-08 -4.7906e-07 -1.31489e-09)
(-3.09206e-08 -4.44088e-07 -1.39047e-09)
(-2.47393e-08 -4.10228e-07 -1.38864e-09)
(-1.87145e-08 -3.79554e-07 -1.33045e-09)
(-1.31054e-08 -3.53457e-07 -1.23153e-09)
(-8.13535e-09 -3.31954e-07 -1.09597e-09)
(-4.02808e-09 -3.12574e-07 -9.12195e-10)
(-1.05702e-09 -2.88303e-07 -6.51828e-10)
(5.14713e-10 -2.42965e-07 -2.87989e-10)
(4.19782e-10 -1.37405e-07 1.42787e-10)
(-6.99984e-10 -1.45729e-07 -7.60472e-10)
(-5.85734e-09 -2.64324e-07 -1.37041e-09)
(-1.29031e-08 -3.19438e-07 -1.59446e-09)
(-2.09287e-08 -3.50106e-07 -1.71865e-09)
(-2.91245e-08 -3.72636e-07 -1.83997e-09)
(-3.69592e-08 -3.94372e-07 -2.01241e-09)
(-4.39861e-08 -4.18254e-07 -2.2585e-09)
(-4.98573e-08 -4.44814e-07 -2.58799e-09)
(-5.42972e-08 -4.73212e-07 -2.9906e-09)
(-5.71116e-08 -5.01886e-07 -3.44024e-09)
(-5.82512e-08 -5.28945e-07 -3.88062e-09)
(-5.78135e-08 -5.52492e-07 -4.26416e-09)
(-5.61292e-08 -5.70802e-07 -4.5166e-09)
(-5.355e-08 -5.82619e-07 -4.67578e-09)
(-5.04088e-08 -5.87075e-07 -4.72933e-09)
(-4.66391e-08 -5.83957e-07 -4.86395e-09)
(-4.17489e-08 -5.7324e-07 -5.0384e-09)
(-3.57247e-08 -5.5511e-07 -5.10363e-09)
(-2.8975e-08 -5.30483e-07 -5.00439e-09)
(-2.20751e-08 -5.00717e-07 -4.71363e-09)
(-1.55798e-08 -4.67723e-07 -4.28635e-09)
(-9.85925e-09 -4.33661e-07 -3.78417e-09)
(-5.10212e-09 -4.00766e-07 -3.27493e-09)
(-1.34582e-09 -3.71027e-07 -2.8044e-09)
(1.44441e-09 -3.45774e-07 -2.39733e-09)
(3.31061e-09 -3.24998e-07 -2.05162e-09)
(4.25251e-09 -3.06266e-07 -1.74056e-09)
(4.17146e-09 -2.82683e-07 -1.40177e-09)
(3.03602e-09 -2.38362e-07 -9.4754e-10)
(7.84457e-10 -1.34858e-07 -2.38697e-10)
(-9.60298e-10 -1.38269e-07 -1.02211e-09)
(-7.40199e-09 -2.49755e-07 -1.81119e-09)
(-1.59438e-08 -3.00922e-07 -2.08729e-09)
(-2.5688e-08 -3.29163e-07 -2.27016e-09)
(-3.57758e-08 -3.50012e-07 -2.50211e-09)
(-4.56049e-08 -3.70376e-07 -2.85949e-09)
(-5.45743e-08 -3.92927e-07 -3.37435e-09)
(-6.21074e-08 -4.18057e-07 -4.05603e-09)
(-6.76519e-08 -4.449e-07 -4.88429e-09)
(-7.07307e-08 -4.71959e-07 -5.81207e-09)
(-7.10736e-08 -4.97483e-07 -6.74383e-09)
(-6.86695e-08 -5.19728e-07 -7.59121e-09)
(-6.39373e-08 -5.37116e-07 -8.21852e-09)
(-5.74494e-08 -5.48422e-07 -8.64538e-09)
(-4.98999e-08 -5.52772e-07 -8.81548e-09)
(-4.15733e-08 -5.49825e-07 -8.95945e-09)
(-3.2172e-08 -5.396e-07 -9.04037e-09)
(-2.20701e-08 -5.22467e-07 -8.84991e-09)
(-1.20971e-08 -4.99408e-07 -8.38689e-09)
(-3.10007e-09 -4.71755e-07 -7.63912e-09)
(4.22745e-09 -4.41263e-07 -6.72865e-09)
(9.58652e-09 -4.09888e-07 -5.76e-09)
(1.2974e-08 -3.79648e-07 -4.84098e-09)
(1.46102e-08 -3.5235e-07 -4.03742e-09)
(1.47924e-08 -3.29207e-07 -3.38214e-09)
(1.3799e-08 -3.10188e-07 -2.86983e-09)
(1.18301e-08 -2.92956e-07 -2.46122e-09)
(8.94792e-09 -2.70887e-07 -2.06464e-09)
(5.33263e-09 -2.2872e-07 -1.53972e-09)
(1.11385e-09 -1.29525e-07 -5.86634e-10)
(-1.20315e-09 -1.29011e-07 -1.2662e-09)
(-8.86718e-09 -2.32191e-07 -2.22124e-09)
(-1.88261e-08 -2.78876e-07 -2.53894e-09)
(-3.01555e-08 -3.04188e-07 -2.76091e-09)
(-4.19259e-08 -3.2266e-07 -3.0699e-09)
(-5.34721e-08 -3.40694e-07 -3.56358e-09)
(-6.40685e-08 -3.60707e-07 -4.28099e-09)
(-7.2962e-08 -3.82998e-07 -5.23408e-09)
(-7.93892e-08 -4.06739e-07 -6.39797e-09)
(-8.26529e-08 -4.30584e-07 -7.71272e-09)
(-8.23048e-08 -4.53014e-07 -9.06098e-09)
(-7.82297e-08 -4.7254e-07 -1.03238e-08)
(-7.08653e-08 -4.87822e-07 -1.13212e-08)
(-6.09239e-08 -4.97757e-07 -1.20362e-08)
(-4.93608e-08 -5.01539e-07 -1.23625e-08)
(-3.68266e-08 -4.98738e-07 -1.25037e-08)
(-2.33881e-08 -4.89411e-07 -1.24302e-08)
(-9.806e-09 -4.74066e-07 -1.19449e-08)
(2.79148e-09 -4.53649e-07 -1.11093e-08)
(1.3397e-08 -4.29377e-07 -9.9446e-09)
(2.12683e-08 -4.02754e-07 -8.6231e-09)
(2.61975e-08 -3.75427e-07 -7.27742e-09)
(2.8345e-08 -3.49117e-07 -6.03856e-09)
(2.81415e-08 -3.25389e-07 -4.98155e-09)
(2.60939e-08 -3.05307e-07 -4.14231e-09)
(2.26699e-08 -2.8882e-07 -3.5109e-09)
(1.82339e-08 -2.73727e-07 -3.03763e-09)
(1.29797e-08 -2.53815e-07 -2.60733e-09)
(7.26778e-09 -2.14735e-07 -2.03447e-09)
(1.39051e-09 -1.2177e-07 -8.83685e-10)
(-1.40407e-09 -1.1818e-07 -1.46748e-09)
(-1.00717e-08 -2.12024e-07 -2.55437e-09)
(-2.11746e-08 -2.53829e-07 -2.89526e-09)
(-3.37541e-08 -2.75905e-07 -3.13098e-09)
(-4.68143e-08 -2.91593e-07 -3.475e-09)
(-5.96387e-08 -3.06718e-07 -4.03993e-09)
(-7.14108e-08 -3.23438e-07 -4.86919e-09)
(-8.12546e-08 -3.41987e-07 -5.97465e-09)
(-8.82633e-08 -3.61621e-07 -7.32749e-09)
(-9.15957e-08 -3.81195e-07 -8.86145e-09)
(-9.06764e-08 -3.99467e-07 -1.04488e-08)
(-8.53089e-08 -4.15257e-07 -1.19556e-08)
(-7.59102e-08 -4.27533e-07 -1.31844e-08)
(-6.32697e-08 -4.35408e-07 -1.40852e-08)
(-4.85076e-08 -4.38234e-07 -1.45246e-08)
(-3.25919e-08 -4.35596e-07 -1.4651e-08)
(-1.6e-08 -4.27573e-07 -1.44426e-08)
(1.89e-10 -4.147e-07 -1.37484e-08)
(1.4664e-08 -3.97777e-07 -1.26692e-08)
(2.63444e-08 -3.77814e-07 -1.1255e-08)
(3.45038e-08 -3.55982e-07 -9.69945e-09)
(3.9018e-08 -3.33584e-07 -8.14667e-09)
(4.01715e-08 -3.12004e-07 -6.73642e-09)
(3.85399e-08 -2.92539e-07 -5.54715e-09)
(3.47772e-08 -2.7609e-07 -4.61576e-09)
(2.94868e-08 -2.62584e-07 -3.93041e-09)
(2.3155e-08 -2.50009e-07 -3.43624e-09)
(1.60759e-08 -2.32658e-07 -3.0019e-09)
(8.75165e-09 -1.9733e-07 -2.40924e-09)
(1.60145e-09 -1.1208e-07 -1.11729e-09)
(-1.55189e-09 -1.06151e-07 -1.61525e-09)
(-1.0932e-08 -1.89928e-07 -2.79314e-09)
(-2.28184e-08 -2.26647e-07 -3.1391e-09)
(-3.62261e-08 -2.45398e-07 -3.36572e-09)
(-5.01096e-08 -2.58185e-07 -3.70835e-09)
(-6.37194e-08 -2.70207e-07 -4.28902e-09)
(-7.61823e-08 -2.83361e-07 -5.15273e-09)
(-8.65515e-08 -2.97838e-07 -6.30918e-09)
(-9.38405e-08 -3.13007e-07 -7.72693e-09)
(-9.71287e-08 -3.27935e-07 -9.33844e-09)
(-9.57677e-08 -3.41672e-07 -1.10168e-08)
(-8.95086e-08 -3.53364e-07 -1.26253e-08)
(-7.87264e-08 -3.62299e-07 -1.39664e-08)
(-6.42354e-08 -3.6785e-07 -1.4963e-08)
(-4.72423e-08 -3.69574e-07 -1.5471e-08)
(-2.89519e-08 -3.67144e-07 -1.5578e-08)
(-1.02196e-08 -3.60647e-07 -1.52691e-08)
(7.64504e-09 -3.50552e-07 -1.44495e-08)
(2.32467e-08 -3.37457e-07 -1.32398e-08)
(3.54984e-08 -3.22117e-07 -1.17156e-08)
(4.37263e-08 -3.05357e-07 -1.0072e-08)
(4.78724e-08 -2.88128e-07 -8.45282e-09)
(4.83028e-08 -2.7148e-07 -6.99411e-09)
(4.56779e-08 -2.56447e-07 -5.77359e-09)
(4.07371e-08 -2.43763e-07 -4.82703e-09)
(3.41669e-08 -2.3334e-07 -4.14293e-09)
(2.65325e-08 -2.23371e-07 -3.66481e-09)
(1.81977e-08 -2.08734e-07 -3.25171e-09)
(9.76555e-09 -1.77533e-07 -2.6638e-09)
(1.74408e-09 -1.01001e-07 -1.28545e-09)
(-1.64598e-09 -9.33427e-08 -1.70829e-09)
(-1.14414e-08 -1.66654e-07 -2.93647e-09)
(-2.37444e-08 -1.98274e-07 -3.27161e-09)
(-3.75586e-08 -2.13805e-07 -3.47154e-09)
(-5.18117e-08 -2.23812e-07 -3.78402e-09)
(-6.57397e-08 -2.32848e-07 -4.33466e-09)
(-7.84427e-08 -2.42555e-07 -5.16649e-09)
(-8.89459e-08 -2.53096e-07 -6.28622e-09)
(-9.62358e-08 -2.63958e-07 -7.66074e-09)
(-9.93682e-08 -2.74416e-07 -9.22351e-09)
(-9.7673e-08 -2.83797e-07 -1.0856e-08)
(-9.08777e-08 -2.91548e-07 -1.24271e-08)
(-7.93147e-08 -2.97256e-07 -1.3755e-08)
(-6.37925e-08 -3.00563e-07 -1.47481e-08)
(-4.55434e-08 -3.01231e-07 -1.52685e-08)
(-2.59155e-08 -2.99056e-07 -1.53551e-08)
(-6.04364e-09 -2.94125e-07 -1.49981e-08)
(1.26303e-08 -2.86788e-07 -1.41504e-08)
(2.86971e-08 -2.77431e-07 -1.29343e-08)
(4.11033e-08 -2.66535e-07 -1.14379e-08)
(4.92398e-08 -2.54606e-07 -9.8414e-09)
(5.30934e-08 -2.42277e-07 -8.28082e-09)
(5.30669e-08 -2.30293e-07 -6.88065e-09)
(4.9852e-08 -2.19438e-07 -5.71448e-09)
(4.42231e-08 -2.10296e-07 -4.81766e-09)
(3.69043e-08 -2.02767e-07 -4.18005e-09)
(2.85047e-08 -1.95263e-07 -3.74648e-09)
(1.94307e-08 -1.83277e-07 -3.37363e-09)
(1.0349e-08 -1.56319e-07 -2.81019e-09)
(1.82313e-09 -8.90583e-08 -1.39371e-09)
(-1.69371e-09 -8.01412e-08 -1.75389e-09)
(-1.16503e-08 -1.42885e-07 -2.99933e-09)
(-2.40619e-08 -1.69549e-07 -3.315e-09)
(-3.79343e-08 -1.82104e-07 -3.47972e-09)
(-5.21869e-08 -1.89628e-07 -3.74605e-09)
(-6.60563e-08 -1.96024e-07 -4.2394e-09)
(-7.86415e-08 -2.02688e-07 -4.99884e-09)
(-8.8971e-08 -2.09766e-07 -6.02723e-09)
(-9.60426e-08 -2.16861e-07 -7.29135e-09)
(-9.89343e-08 -2.23446e-07 -8.7273e-09)
(-9.69868e-08 -2.29082e-07 -1.02281e-08)
(-8.99313e-08 -2.33467e-07 -1.16744e-08)
(-7.80674e-08 -2.36438e-07 -1.29075e-08)
(-6.21786e-08 -2.3786e-07 -1.38317e-08)
(-4.34803e-08 -2.37677e-07 -1.43246e-08)
(-2.33809e-08 -2.35799e-07 -1.43933e-08)
(-3.18764e-09 -2.32305e-07 -1.40315e-08)
(1.56092e-08 -2.27424e-07 -1.32244e-08)
(3.16376e-08 -2.21346e-07 -1.20844e-08)
(4.38969e-08 -2.14312e-07 -1.07036e-08)
(5.18387e-08 -2.06568e-07 -9.2388e-09)
(5.54711e-08 -1.98479e-07 -7.81238e-09)
(5.5202e-08 -1.90533e-07 -6.53523e-09)
(5.17139e-08 -1.83301e-07 -5.4749e-09)
(4.57781e-08 -1.77222e-07 -4.66552e-09)
(3.81233e-08 -1.7219e-07 -4.09953e-09)
(2.93749e-08 -1.66838e-07 -3.72538e-09)
(1.99625e-08 -1.57286e-07 -3.40178e-09)
(1.05892e-08 -1.34493e-07 -2.87346e-09)
(1.85029e-09 -7.6692e-08 -1.45463e-09)
(-1.70548e-09 -6.68493e-08 -1.76219e-09)
(-1.16374e-08 -1.19137e-07 -3.00269e-09)
(-2.39385e-08 -1.41085e-07 -3.29693e-09)
(-3.76247e-08 -1.50976e-07 -3.42699e-09)
(-5.16201e-08 -1.56399e-07 -3.64393e-09)
(-6.51705e-08 -1.60614e-07 -4.06947e-09)
(-7.73905e-08 -1.64788e-07 -4.73872e-09)
(-8.73347e-08 -1.69056e-07 -5.65105e-09)
(-9.40385e-08 -1.73129e-07 -6.77278e-09)
(-9.66267e-08 -1.76648e-07 -8.04386e-09)
(-9.44769e-08 -1.79362e-07 -9.37079e-09)
(-8.73437e-08 -1.8116e-07 -1.06481e-08)
(-7.55043e-08 -1.8206e-07 -1.17417e-08)
(-5.97099e-08 -1.82095e-07 -1.25613e-08)
(-4.11342e-08 -1.81334e-07 -1.3004e-08)
(-2.11842e-08 -1.79782e-07 -1.30584e-08)
(-1.24225e-09 -1.77503e-07 -1.27205e-08)
(1.72144e-08 -1.74618e-07 -1.19956e-08)
(3.28758e-08 -1.71171e-07 -1.09797e-08)
(4.48017e-08 -1.67218e-07 -9.75989e-09)
(5.24944e-08 -1.62811e-07 -8.46865e-09)
(5.59644e-08 -1.5811e-07 -7.21262e-09)
(5.56011e-08 -1.53404e-07 -6.0874e-09)
(5.20538e-08 -1.49084e-07 -5.1547e-09)
(4.6064e-08 -1.45464e-07 -4.44749e-09)
(3.83436e-08 -1.42435e-07 -3.96127e-09)
(2.9516e-08 -1.38842e-07 -3.64871e-09)
(2.00238e-08 -1.3143e-07 -3.37332e-09)
(1.05935e-08 -1.12616e-07 -2.88226e-09)
(1.83895e-09 -6.42226e-08 -1.48273e-09)
(-1.68989e-09 -5.36799e-08 -1.74138e-09)
(-1.14696e-08 -9.57424e-08 -2.96331e-09)
(-2.35244e-08 -1.13233e-07 -3.24043e-09)
(-3.68794e-08 -1.20777e-07 -3.34386e-09)
(-5.04681e-08 -1.24492e-07 -3.51864e-09)
(-6.35466e-08 -1.27013e-07 -3.88092e-09)
(-7.52542e-08 -1.29288e-07 -4.46198e-09)