/*--------------------------------*- C++ -*----------------------------------*\
| =========                 |                                                 |
| \\      /  F ield         | OpenFOAM: The Open Source CFD Toolbox           |
|  \\    /   O peration     | Version:  v1912                                 |
|   \\  /    A nd           | Website:  www.openfoam.com                      |
|    \\/     M anipulation  |                                                 |
\*---------------------------------------------------------------------------*/
FoamFile
{
    version     2.0;
    format      ascii;
    class       volScalarField;
    location    "13.5/sphere";
    object      ddt0((betavSolid*thermo:rho),h);
}
// * * * * * * * * * * * * * * * * * * * * * * * * * * * * * * * * * * * * * //

dimensions      [1 -1 -3 0 0 0 0];


internalField   nonuniform List<scalar> 
1992
(
-5.27249e+06
-5.27516e+06
-5.27491e+06
-5.28052e+06
-5.27337e+06
-5.27327e+06
-5.27508e+06
-5.29197e+06
-5.29555e+06
-5.28538e+06
-5.27475e+06
-5.29541e+06
-5.2989e+06
-5.28914e+06
-5.28381e+06
-5.28894e+06
-5.28105e+06
-5.27489e+06
-5.28034e+06
-5.27339e+06
-5.27481e+06
-5.29539e+06
-5.29889e+06
-5.28914e+06
-5.2798e+06
-5.29875e+06
-5.30222e+06
-5.29257e+06
-5.2749e+06
-5.27299e+06
-5.28878e+06
-5.29229e+06
-5.28625e+06
-5.27448e+06
-5.27327e+06
-5.28504e+06
-5.289e+06
-5.28021e+06
-5.27306e+06
-5.28881e+06
-5.29239e+06
-5.28623e+06
-5.27983e+06
-5.28613e+06
-5.27696e+06
-5.27462e+06
-5.27462e+06
-5.27461e+06
-5.2744e+06
-5.27462e+06
-5.27272e+06
-5.28053e+06
-5.2753e+06
-5.28903e+06
-5.28533e+06
-5.29241e+06
-5.2891e+06
-5.28528e+06
-5.29239e+06
-5.28907e+06
-5.27515e+06
-5.27261e+06
-5.28051e+06
-5.27525e+06
-5.28907e+06
-5.289e+06
-5.28527e+06
-5.28051e+06
-5.27523e+06
-5.27518e+06
-5.27268e+06
-5.27439e+06
-5.2744e+06
-5.27433e+06
-5.27421e+06
-5.27365e+06
-5.27418e+06
-5.27434e+06
-5.27362e+06
-5.27418e+06
-5.27433e+06
-5.27363e+06
-5.27441e+06
-5.27624e+06
-5.27325e+06
-5.27326e+06
-5.27994e+06
-5.28613e+06
-5.27328e+06
-5.27332e+06
-5.28617e+06
-5.28022e+06
-5.27699e+06
-5.27316e+06
-5.2799e+06
-5.27307e+06
-5.28603e+06
-5.27502e+06
-5.27493e+06
-5.28019e+06
-5.28508e+06
-5.28892e+06
-5.28886e+06
-5.29225e+06
-5.27449e+06
-5.27728e+06
-5.27655e+06
-5.28254e+06
-5.28084e+06
-5.27944e+06
-5.28326e+06
-5.27337e+06
-5.28022e+06
-5.28627e+06
-5.27339e+06
-5.27316e+06
-5.27307e+06
-5.28602e+06
-5.27991e+06
-5.28018e+06
-5.2725e+06
-5.27503e+06
-5.28884e+06
-5.29223e+06
-5.28507e+06
-5.28888e+06
-5.27527e+06
-5.27515e+06
-5.27264e+06
-5.2924e+06
-5.2891e+06
-5.289e+06
-5.2853e+06
-5.28627e+06
-5.27339e+06
-5.28022e+06
-5.27616e+06
-5.27321e+06
-5.27984e+06
-5.2861e+06
-5.27322e+06
-5.28614e+06
-5.28018e+06
-5.27326e+06
-5.27693e+06
-5.27443e+06
-5.27456e+06
-5.27987e+06
-5.27316e+06
-5.27307e+06
-5.28602e+06
-5.27501e+06
-5.28386e+06
-5.28886e+06
-5.2749e+06
-5.28012e+06
-5.2888e+06
-5.29217e+06
-5.27273e+06
-5.28898e+06
-5.28534e+06
-5.28033e+06
-5.27527e+06
-5.29233e+06
-5.28909e+06
-5.28109e+06
-5.27337e+06
-5.28628e+06
-5.27338e+06
-5.27414e+06
-5.28384e+06
-5.27477e+06
-5.28875e+06
-5.2748e+06
-5.28876e+06
-5.27981e+06
-5.29203e+06
-5.27273e+06
-5.28915e+06
-5.27533e+06
-5.28916e+06
-5.27532e+06
-5.29257e+06
-5.28089e+06
-5.2749e+06
-5.27414e+06
-5.28875e+06
-5.28384e+06
-5.2798e+06
-5.29203e+06
-5.27475e+06
-5.28874e+06
-5.27529e+06
-5.28539e+06
-5.27271e+06
-5.29257e+06
-5.28089e+06
-5.28915e+06
-5.27531e+06
-5.27491e+06
-5.27987e+06
-5.273e+06
-5.286e+06
-5.2731e+06
-5.28883e+06
-5.27495e+06
-5.28878e+06
-5.29214e+06
-5.27485e+06
-5.28006e+06
-5.2853e+06
-5.27503e+06
-5.27264e+06
-5.29229e+06
-5.28904e+06
-5.28027e+06
-5.27523e+06
-5.28625e+06
-5.27338e+06
-5.27332e+06
-5.27438e+06
-5.27449e+06
-5.27444e+06
-5.27456e+06
-5.27314e+06
-5.27303e+06
-5.28601e+06
-5.27982e+06
-5.28013e+06
-5.28879e+06
-5.29217e+06
-5.27499e+06
-5.28381e+06
-5.28885e+06
-5.27527e+06
-5.29233e+06
-5.28907e+06
-5.27504e+06
-5.27262e+06
-5.28897e+06
-5.28531e+06
-5.28628e+06
-5.2734e+06
-5.28106e+06
-5.27415e+06
-5.28874e+06
-5.27981e+06
-5.29203e+06
-5.28381e+06
-5.27479e+06
-5.28875e+06
-5.27535e+06
-5.29257e+06
-5.28089e+06
-5.28534e+06
-5.27272e+06
-5.28913e+06
-5.2753e+06
-5.2749e+06
-5.27412e+06
-5.29202e+06
-5.27475e+06
-5.28872e+06
-5.27478e+06
-5.28874e+06
-5.28378e+06
-5.28089e+06
-5.28915e+06
-5.27531e+06
-5.28913e+06
-5.27532e+06
-5.28537e+06
-5.27266e+06
-5.28599e+06
-5.27311e+06
-5.27977e+06
-5.29214e+06
-5.27484e+06
-5.28003e+06
-5.28379e+06
-5.28883e+06
-5.27494e+06
-5.28905e+06
-5.28024e+06
-5.27522e+06
-5.28894e+06
-5.28529e+06
-5.27502e+06
-5.27262e+06
-5.27338e+06
-5.27331e+06
-5.28107e+06
-5.27434e+06
-5.27614e+06
-5.27323e+06
-5.27984e+06
-5.2861e+06
-5.2732e+06
-5.28614e+06
-5.2802e+06
-5.27329e+06
-5.27696e+06
-5.2799e+06
-5.27306e+06
-5.28601e+06
-5.27317e+06
-5.28888e+06
-5.28882e+06
-5.29222e+06
-5.27246e+06
-5.27504e+06
-5.27492e+06
-5.28018e+06
-5.28623e+06
-5.27335e+06
-5.27335e+06
-5.286e+06
-5.27984e+06
-5.27314e+06
-5.29221e+06
-5.28503e+06
-5.28888e+06
-5.27491e+06
-5.28016e+06
-5.27253e+06
-5.27503e+06
-5.27339e+06
-5.28022e+06
-5.27333e+06
-5.27611e+06
-5.2861e+06
-5.27318e+06
-5.27323e+06
-5.28018e+06
-5.27324e+06
-5.27328e+06
-5.27298e+06
-5.27248e+06
-5.27234e+06
-5.27295e+06
-5.27251e+06
-5.27317e+06
-5.27256e+06
-5.27314e+06
-5.27251e+06
-5.27314e+06
-5.27251e+06
-5.27303e+06
-5.27253e+06
-5.27242e+06
-5.2724e+06
-5.27366e+06
-5.27355e+06
-5.27254e+06
-5.27431e+06
-5.27416e+06
-5.27361e+06
-5.27313e+06
-5.27248e+06
-5.27297e+06
-5.27245e+06
-5.27361e+06
-5.2736e+06
-5.27529e+06
-5.28093e+06
-5.27561e+06
-5.27785e+06
-5.27788e+06
-5.27452e+06
-5.2775e+06
-5.27659e+06
-5.28259e+06
-5.28098e+06
-5.27946e+06
-5.28344e+06
-5.27446e+06
-5.27725e+06
-5.27649e+06
-5.28248e+06
-5.28081e+06
-5.2794e+06
-5.28322e+06
-5.27356e+06
-5.27358e+06
-5.27525e+06
-5.28086e+06
-5.27554e+06
-5.27781e+06
-5.27779e+06
-5.27448e+06
-5.27743e+06
-5.27657e+06
-5.28253e+06
-5.28092e+06
-5.27943e+06
-5.28338e+06
-5.27739e+06
-5.27451e+06
-5.27655e+06
-5.28253e+06
-5.28092e+06
-5.28337e+06
-5.27947e+06
-5.27732e+06
-5.27447e+06
-5.27653e+06
-5.28249e+06
-5.28081e+06
-5.28322e+06
-5.2794e+06
-5.2736e+06
-5.2736e+06
-5.27524e+06
-5.28087e+06
-5.27558e+06
-5.27788e+06
-5.27784e+06
-5.27251e+06
-5.27232e+06
-5.27366e+06
-5.27354e+06
-5.27254e+06
-5.27369e+06
-5.27354e+06
-5.27253e+06
-5.27253e+06
-5.27336e+06
-5.27336e+06
-5.27487e+06
-5.28051e+06
-5.27537e+06
-5.27763e+06
-5.27762e+06
-5.27318e+06
-5.27477e+06
-5.27278e+06
-5.27659e+06
-5.28201e+06
-5.27421e+06
-5.28061e+06
-5.27576e+06
-5.28287e+06
-5.27913e+06
-5.27276e+06
-5.2773e+06
-5.27358e+06
-5.27388e+06
-5.27638e+06
-5.27261e+06
-5.27305e+06
-5.27461e+06
-5.27271e+06
-5.27353e+06
-5.27716e+06
-5.27632e+06
-5.27378e+06
-5.27936e+06
-5.27281e+06
-5.27466e+06
-5.2728e+06
-5.2769e+06
-5.27435e+06
-5.27692e+06
-5.28225e+06
-5.27439e+06
-5.28072e+06
-5.27675e+06
-5.27935e+06
-5.27601e+06
-5.283e+06
-5.2728e+06
-5.27316e+06
-5.27483e+06
-5.2793e+06
-5.27458e+06
-5.27269e+06
-5.27266e+06
-5.27678e+06
-5.27686e+06
-5.27425e+06
-5.28169e+06
-5.28043e+06
-5.27395e+06
-5.27643e+06
-5.27888e+06
-5.28266e+06
-5.27548e+06
-5.27323e+06
-5.2726e+06
-5.27251e+06
-5.27269e+06
-5.27434e+06
-5.27554e+06
-5.27672e+06
-5.27666e+06
-5.28358e+06
-5.27378e+06
-5.27927e+06
-5.27921e+06
-5.27251e+06
-5.28177e+06
-5.27661e+06
-5.28051e+06
-5.27409e+06
-5.28278e+06
-5.27563e+06
-5.27893e+06
-5.28396e+06
-5.27965e+06
-5.28567e+06
-5.27871e+06
-5.28495e+06
-5.2779e+06
-5.28469e+06
-5.27362e+06
-5.27729e+06
-5.27274e+06
-5.27389e+06
-5.2764e+06
-5.2817e+06
-5.28046e+06
-5.27647e+06
-5.27403e+06
-5.28271e+06
-5.27888e+06
-5.27553e+06
-5.27328e+06
-5.27269e+06
-5.28331e+06
-5.28521e+06
-5.27827e+06
-5.27826e+06
-5.28428e+06
-5.28427e+06
-5.2769e+06
-5.2745e+06
-5.27448e+06
-5.27378e+06
-5.27331e+06
-5.27694e+06
-5.27239e+06
-5.27361e+06
-5.276e+06
-5.27235e+06
-5.27418e+06
-5.27368e+06
-5.27316e+06
-5.27261e+06
-5.27279e+06
-5.27441e+06
-5.27357e+06
-5.27275e+06
-5.27713e+06
-5.27632e+06
-5.2738e+06
-5.27256e+06
-5.27277e+06
-5.27438e+06
-5.28345e+06
-5.27622e+06
-5.27919e+06
-5.27549e+06
-5.27632e+06
-5.27919e+06
-5.27319e+06
-5.27335e+06
-5.27693e+06
-5.27252e+06
-5.2761e+06
-5.27364e+06
-5.27529e+06
-5.28329e+06
-5.27585e+06
-5.27597e+06
-5.27887e+06
-5.279e+06
-5.27294e+06
-5.27335e+06
-5.27402e+06
-5.27405e+06
-5.27268e+06
-5.27239e+06
-5.27354e+06
-5.27365e+06
-5.27253e+06
-5.27246e+06
-5.27315e+06
-5.27312e+06
-5.27308e+06
-5.2727e+06
-5.27303e+06
-5.27467e+06
-5.27267e+06
-5.27712e+06
-5.27351e+06
-5.2738e+06
-5.27625e+06
-5.27262e+06
-5.27287e+06
-5.27445e+06
-5.27348e+06
-5.27263e+06
-5.27711e+06
-5.2738e+06
-5.27615e+06
-5.27532e+06
-5.27604e+06
-5.27591e+06
-5.28334e+06
-5.27303e+06
-5.27904e+06
-5.2789e+06
-5.27269e+06
-5.27718e+06
-5.27636e+06
-5.27356e+06
-5.27381e+06
-5.27321e+06
-5.2748e+06
-5.27277e+06
-5.2736e+06
-5.2728e+06
-5.27718e+06
-5.27383e+06
-5.27637e+06
-5.2728e+06
-5.2732e+06
-5.2748e+06
-5.27624e+06
-5.28345e+06
-5.27918e+06
-5.2755e+06
-5.27634e+06
-5.2732e+06
-5.27919e+06
-5.27336e+06
-5.27402e+06
-5.27405e+06
-5.27273e+06
-5.27262e+06
-5.27302e+06
-5.27463e+06
-5.27258e+06
-5.27342e+06
-5.27709e+06
-5.27621e+06
-5.27369e+06
-5.27258e+06
-5.27276e+06
-5.27437e+06
-5.27527e+06
-5.27599e+06
-5.27587e+06
-5.28329e+06
-5.27294e+06
-5.27898e+06
-5.27884e+06
-5.27338e+06
-5.27247e+06
-5.277e+06
-5.27367e+06
-5.27608e+06
-5.27673e+06
-5.27429e+06
-5.28072e+06
-5.27582e+06
-5.28303e+06
-5.28208e+06
-5.27921e+06
-5.27423e+06
-5.27659e+06
-5.27573e+06
-5.28205e+06
-5.28062e+06
-5.27919e+06
-5.2829e+06
-5.27274e+06
-5.2773e+06
-5.27638e+06
-5.27359e+06
-5.27388e+06
-5.27623e+06
-5.28347e+06
-5.27915e+06
-5.2755e+06
-5.2763e+06
-5.27317e+06
-5.27923e+06
-5.27279e+06
-5.27321e+06
-5.27484e+06
-5.2736e+06
-5.2728e+06
-5.27727e+06
-5.27388e+06
-5.27641e+06
-5.27339e+06
-5.27256e+06
-5.27708e+06
-5.27368e+06
-5.27618e+06
-5.27258e+06
-5.27301e+06
-5.2746e+06
-5.27336e+06
-5.27696e+06
-5.27246e+06
-5.27366e+06
-5.27603e+06
-5.27258e+06
-5.27265e+06
-5.27432e+06
-5.27523e+06
-5.276e+06
-5.28329e+06
-5.27587e+06
-5.27896e+06
-5.2729e+06
-5.27883e+06
-5.27849e+06
-5.27864e+06
-5.2856e+06
-5.28363e+06
-5.27717e+06
-5.28454e+06
-5.28466e+06
-5.28048e+06
-5.27337e+06
-5.27336e+06
-5.27535e+06
-5.27488e+06
-5.27755e+06
-5.27761e+06
-5.27678e+06
-5.28205e+06
-5.27428e+06
-5.28071e+06
-5.27579e+06
-5.28302e+06
-5.27918e+06
-5.27747e+06
-5.27451e+06
-5.28099e+06
-5.27656e+06
-5.28343e+06
-5.28256e+06
-5.27951e+06
-5.2773e+06
-5.27442e+06
-5.27652e+06
-5.28249e+06
-5.28082e+06
-5.28322e+06
-5.27942e+06
-5.27359e+06
-5.27355e+06
-5.27524e+06
-5.28089e+06
-5.27558e+06
-5.27787e+06
-5.27784e+06
-5.27279e+06
-5.27319e+06
-5.27481e+06
-5.27361e+06
-5.27727e+06
-5.27282e+06
-5.27389e+06
-5.2764e+06
-5.27551e+06
-5.27624e+06
-5.28348e+06
-5.27636e+06
-5.27921e+06
-5.27318e+06
-5.27922e+06
-5.2728e+06
-5.27323e+06
-5.27483e+06
-5.27315e+06
-5.2731e+06
-5.27308e+06
-5.27346e+06
-5.27261e+06
-5.27712e+06
-5.27622e+06
-5.27376e+06
-5.27526e+06
-5.276e+06
-5.28326e+06
-5.27587e+06
-5.27894e+06
-5.27289e+06
-5.27884e+06
-5.27262e+06
-5.2728e+06
-5.27443e+06
-5.27346e+06
-5.27707e+06
-5.27261e+06
-5.27376e+06
-5.27615e+06
-5.27277e+06
-5.27317e+06
-5.27477e+06
-5.27545e+06
-5.27622e+06
-5.28341e+06
-5.2763e+06
-5.27917e+06
-5.27312e+06
-5.27913e+06
-5.27353e+06
-5.27713e+06
-5.27269e+06
-5.27378e+06
-5.27632e+06
-5.27273e+06
-5.27317e+06
-5.27474e+06
-5.27336e+06
-5.27402e+06
-5.27405e+06
-5.27269e+06
-5.27251e+06
-5.27238e+06
-5.27365e+06
-5.27356e+06
-5.27253e+06
-5.27259e+06
-5.27377e+06
-5.27427e+06
-5.27325e+06
-5.27314e+06
-5.27254e+06
-5.27257e+06
-5.2728e+06
-5.2744e+06
-5.27256e+06
-5.27279e+06
-5.27438e+06
-5.27523e+06
-5.27588e+06
-5.27587e+06
-5.28325e+06
-5.27294e+06
-5.27885e+06
-5.27883e+06
-5.27342e+06
-5.2726e+06
-5.27702e+06
-5.27614e+06
-5.2737e+06
-5.27339e+06
-5.27251e+06
-5.27696e+06
-5.27608e+06
-5.27366e+06
-5.28182e+06
-5.27419e+06
-5.28062e+06
-5.27668e+06
-5.27901e+06
-5.27568e+06
-5.28289e+06
-5.2818e+06
-5.2741e+06
-5.27656e+06
-5.28053e+06
-5.27563e+06
-5.27905e+06
-5.28279e+06
-5.2835e+06
-5.27853e+06
-5.27845e+06
-5.28552e+06
-5.2771e+06
-5.28455e+06
-5.28447e+06
-5.28077e+06
-5.27358e+06
-5.27559e+06
-5.27362e+06
-5.2778e+06
-5.27513e+06
-5.27784e+06
-5.28396e+06
-5.27872e+06
-5.27964e+06
-5.28567e+06
-5.27787e+06
-5.28469e+06
-5.28495e+06
-5.28244e+06
-5.27449e+06
-5.27736e+06
-5.28094e+06
-5.27639e+06
-5.27948e+06
-5.28333e+06
-5.27561e+06
-5.27669e+06
-5.27673e+06
-5.28362e+06
-5.27379e+06
-5.27926e+06
-5.27932e+06
-5.27288e+06
-5.27319e+06
-5.27484e+06
-5.27361e+06
-5.27278e+06
-5.27725e+06
-5.2764e+06
-5.27387e+06
-5.27361e+06
-5.27281e+06
-5.27726e+06
-5.2764e+06
-5.27387e+06
-5.27217e+06
-5.27227e+06
-5.27337e+06
-5.27341e+06
-5.27236e+06
-5.28168e+06
-5.27402e+06
-5.28045e+06
-5.27642e+06
-5.27889e+06
-5.27552e+06
-5.28266e+06
-5.2817e+06
-5.27401e+06
-5.28046e+06
-5.27645e+06
-5.27894e+06
-5.27552e+06
-5.2827e+06
-5.28334e+06
-5.27824e+06
-5.2783e+06
-5.28522e+06
-5.27695e+06
-5.28427e+06
-5.28431e+06
-5.28098e+06
-5.27564e+06
-5.27365e+06
-5.27367e+06
-5.27794e+06
-5.27793e+06
-5.27533e+06
-5.28265e+06
-5.27458e+06
-5.28099e+06
-5.27757e+06
-5.27954e+06
-5.27667e+06
-5.2835e+06
-5.28264e+06
-5.27456e+06
-5.28099e+06
-5.27754e+06
-5.27952e+06
-5.27661e+06
-5.2835e+06
-5.28438e+06
-5.28003e+06
-5.28002e+06
-5.28618e+06
-5.27857e+06
-5.28529e+06
-5.28529e+06
-5.27325e+06
-5.2726e+06
-5.27326e+06
-5.27259e+06
-5.27449e+06
-5.2745e+06
-5.27378e+06
-5.27221e+06
-5.27339e+06
-5.27335e+06
-5.27239e+06
-5.27209e+06
-5.27936e+06
-5.27266e+06
-5.27455e+06
-5.27266e+06
-5.27678e+06
-5.2742e+06
-5.27686e+06
-5.28335e+06
-5.27831e+06
-5.28522e+06
-5.27825e+06
-5.28429e+06
-5.27696e+06
-5.28428e+06
-5.28169e+06
-5.27396e+06
-5.27643e+06
-5.28045e+06
-5.27547e+06
-5.27893e+06
-5.28268e+06
-5.28263e+06
-5.28099e+06
-5.27453e+06
-5.2775e+06
-5.27951e+06
-5.28349e+06
-5.27663e+06
-5.28096e+06
-5.27365e+06
-5.27563e+06
-5.27366e+06
-5.27789e+06
-5.27533e+06
-5.27789e+06
-5.28438e+06
-5.28002e+06
-5.28618e+06
-5.28002e+06
-5.28529e+06
-5.27858e+06
-5.28529e+06
-5.28263e+06
-5.27453e+06
-5.27753e+06
-5.28098e+06
-5.27662e+06
-5.27949e+06
-5.28349e+06
-5.2745e+06
-5.2745e+06
-5.27381e+06
-5.27325e+06
-5.27262e+06
-5.27521e+06
-5.27583e+06
-5.27591e+06
-5.28325e+06
-5.27291e+06
-5.2788e+06
-5.27885e+06
-5.27256e+06
-5.27279e+06
-5.27441e+06
-5.27336e+06
-5.27247e+06
-5.27697e+06
-5.2761e+06
-5.27363e+06
-5.27339e+06
-5.27253e+06
-5.27698e+06
-5.27608e+06
-5.27366e+06
-5.27937e+06
-5.27461e+06
-5.27274e+06
-5.27273e+06
-5.27688e+06
-5.27686e+06
-5.27431e+06
-5.28179e+06
-5.2806e+06
-5.27415e+06
-5.27667e+06
-5.27901e+06
-5.28286e+06
-5.27564e+06
-5.28175e+06
-5.27407e+06
-5.2805e+06
-5.27651e+06
-5.27897e+06
-5.27559e+06
-5.28275e+06
-5.28346e+06
-5.27855e+06
-5.28545e+06
-5.27843e+06
-5.2845e+06
-5.27713e+06
-5.28441e+06
-5.28219e+06
-5.28067e+06
-5.27432e+06
-5.27676e+06
-5.27925e+06
-5.28297e+06
-5.27596e+06
-5.2807e+06
-5.27553e+06
-5.27348e+06
-5.27354e+06
-5.2777e+06
-5.27777e+06
-5.27506e+06
-5.28391e+06
-5.27869e+06
-5.28561e+06
-5.2796e+06
-5.28465e+06
-5.2778e+06
-5.28489e+06
-5.28237e+06
-5.27443e+06
-5.28089e+06
-5.27737e+06
-5.27936e+06
-5.27636e+06
-5.28328e+06
-5.27283e+06
-5.27318e+06
-5.2748e+06
-5.27275e+06
-5.27314e+06
-5.27472e+06
-5.27358e+06
-5.2728e+06
-5.27723e+06
-5.27636e+06
-5.27384e+06
-5.27354e+06
-5.27269e+06
-5.27723e+06
-5.27633e+06
-5.27382e+06
-5.27249e+06
-5.27237e+06
-5.27366e+06
-5.27355e+06
-5.27257e+06
-5.27372e+06
-5.2742e+06
-5.27317e+06
-5.27307e+06
-5.27248e+06
-5.2724e+06
-5.27359e+06
-5.27368e+06
-5.27259e+06
-5.27244e+06
-5.27426e+06
-5.27377e+06
-5.27324e+06
-5.27313e+06
-5.27252e+06
-5.27248e+06
-5.27339e+06
-5.277e+06
-5.27254e+06
-5.27368e+06
-5.27609e+06
-5.27335e+06
-5.27696e+06
-5.27239e+06
-5.27365e+06
-5.27605e+06
-5.2726e+06
-5.27284e+06
-5.2744e+06
-5.27253e+06
-5.27279e+06
-5.27438e+06
-5.27521e+06
-5.28322e+06
-5.27583e+06
-5.27586e+06
-5.27883e+06
-5.27881e+06
-5.27287e+06
-5.2835e+06
-5.2785e+06
-5.28552e+06
-5.27857e+06
-5.28447e+06
-5.27715e+06
-5.28454e+06
-5.27939e+06
-5.27274e+06
-5.27278e+06
-5.27462e+06
-5.27434e+06
-5.27687e+06
-5.2769e+06
-5.28182e+06
-5.27666e+06
-5.27418e+06
-5.28063e+06
-5.27567e+06
-5.28289e+06
-5.27904e+06
-5.28242e+06
-5.27736e+06
-5.28094e+06
-5.27444e+06
-5.28333e+06
-5.27638e+06
-5.27938e+06
-5.28225e+06
-5.27677e+06
-5.27437e+06
-5.2807e+06
-5.27599e+06
-5.28301e+06
-5.27932e+06
-5.28075e+06
-5.27355e+06
-5.27354e+06
-5.27557e+06
-5.27508e+06
-5.27782e+06
-5.27778e+06
-5.27361e+06
-5.27727e+06
-5.27282e+06
-5.27388e+06
-5.2764e+06
-5.27283e+06
-5.27313e+06
-5.27478e+06
-5.27557e+06
-5.28358e+06
-5.27669e+06
-5.27667e+06
-5.27925e+06
-5.27924e+06
-5.27378e+06
-5.27281e+06
-5.27314e+06
-5.27481e+06
-5.27224e+06
-5.27341e+06
-5.2734e+06
-5.27239e+06
-5.27222e+06
-5.28337e+06
-5.27832e+06
-5.28522e+06
-5.27828e+06
-5.28432e+06
-5.277e+06
-5.28429e+06
-5.2793e+06
-5.27264e+06
-5.27457e+06
-5.27273e+06
-5.27682e+06
-5.27423e+06
-5.27686e+06
-5.28172e+06
-5.27641e+06
-5.27406e+06
-5.28047e+06
-5.27554e+06
-5.28268e+06
-5.27897e+06
-5.28263e+06
-5.281e+06
-5.27757e+06
-5.27458e+06
-5.2835e+06
-5.27952e+06
-5.27667e+06
-5.28438e+06
-5.28004e+06
-5.28618e+06
-5.28002e+06
-5.28529e+06
-5.2786e+06
-5.28528e+06
-5.28095e+06
-5.27366e+06
-5.27558e+06
-5.27363e+06
-5.27792e+06
-5.27534e+06
-5.27789e+06
-5.28262e+06
-5.27753e+06
-5.27452e+06
-5.28098e+06
-5.27664e+06
-5.28348e+06
-5.27949e+06
-5.27451e+06
-5.27449e+06
-5.2738e+06
-5.27324e+06
-5.27263e+06
-5.27335e+06
-5.27336e+06
-5.27234e+06
-5.27211e+06
-5.27224e+06
-5.28166e+06
-5.27638e+06
-5.28044e+06
-5.274e+06
-5.28266e+06
-5.27546e+06
-5.27887e+06
-5.28167e+06
-5.27643e+06
-5.28044e+06
-5.274e+06
-5.28267e+06
-5.27548e+06
-5.27899e+06
-5.27924e+06
-5.27263e+06
-5.2727e+06
-5.27455e+06
-5.27416e+06
-5.27677e+06
-5.27684e+06
-5.28438e+06
-5.28618e+06
-5.28003e+06
-5.28002e+06
-5.28529e+06
-5.28528e+06
-5.27858e+06
-5.28263e+06
-5.27756e+06
-5.28099e+06
-5.27454e+06
-5.2835e+06
-5.27664e+06
-5.27948e+06
-5.28263e+06
-5.27756e+06
-5.28098e+06
-5.27456e+06
-5.28349e+06
-5.27666e+06
-5.27947e+06
-5.28096e+06
-5.27363e+06
-5.27364e+06
-5.27563e+06
-5.27532e+06
-5.27791e+06
-5.27788e+06
-5.27326e+06
-5.27264e+06
-5.27325e+06
-5.27264e+06
-5.27335e+06
-5.27698e+06
-5.27256e+06
-5.27365e+06
-5.27612e+06
-5.27251e+06
-5.27273e+06
-5.27429e+06
-5.27517e+06
-5.28319e+06
-5.2758e+06
-5.27585e+06
-5.27877e+06
-5.27881e+06
-5.27285e+06
-5.27249e+06
-5.27281e+06
-5.27439e+06
-5.28178e+06
-5.2805e+06
-5.27649e+06
-5.27407e+06
-5.28276e+06
-5.27901e+06
-5.27558e+06
-5.28345e+06
-5.28543e+06
-5.27841e+06
-5.27847e+06
-5.28441e+06
-5.28447e+06
-5.27705e+06
-5.27939e+06
-5.27274e+06
-5.27461e+06
-5.27272e+06
-5.2769e+06
-5.27433e+06
-5.27684e+06
-5.28177e+06
-5.2766e+06
-5.28058e+06
-5.27409e+06
-5.28283e+06
-5.2756e+06
-5.27895e+06
-5.28388e+06
-5.2856e+06
-5.27958e+06
-5.27861e+06
-5.28488e+06
-5.28461e+06
-5.27775e+06
-5.28238e+06
-5.28088e+06
-5.27734e+06
-5.27443e+06
-5.28327e+06
-5.2794e+06
-5.27635e+06
-5.28217e+06
-5.2767e+06
-5.28065e+06
-5.27432e+06
-5.28293e+06
-5.2759e+06
-5.27924e+06
-5.28071e+06
-5.27355e+06
-5.27553e+06
-5.2735e+06
-5.27778e+06
-5.27507e+06
-5.27772e+06
-5.27358e+06
-5.27724e+06
-5.27278e+06
-5.27385e+06
-5.27635e+06
-5.27356e+06
-5.27721e+06
-5.27273e+06
-5.27383e+06
-5.27634e+06
-5.27555e+06
-5.28359e+06
-5.27669e+06
-5.27665e+06
-5.27929e+06
-5.2792e+06
-5.27377e+06
-5.27281e+06
-5.27316e+06
-5.2748e+06
-5.27276e+06
-5.27309e+06
-5.27473e+06
-5.27351e+06
-5.27359e+06
-5.27249e+06
-5.27243e+06
-5.27306e+06
-5.27247e+06
-5.27245e+06
-5.27302e+06
-5.27306e+06
-5.27317e+06
-5.27346e+06
-5.27263e+06
-5.27711e+06
-5.27618e+06
-5.27378e+06
-5.27527e+06
-5.27587e+06
-5.28328e+06
-5.276e+06
-5.27884e+06
-5.27292e+06
-5.27899e+06
-5.27267e+06
-5.27304e+06
-5.27463e+06
-5.27714e+06
-5.27258e+06
-5.27346e+06
-5.27376e+06
-5.27623e+06
-5.27285e+06
-5.27319e+06
-5.27481e+06
-5.28342e+06
-5.27621e+06
-5.27912e+06
-5.27547e+06
-5.27631e+06
-5.27921e+06
-5.27317e+06
-5.27273e+06
-5.27717e+06
-5.27633e+06
-5.27354e+06
-5.27379e+06
-5.27315e+06
-5.27476e+06
-5.27274e+06
-5.27334e+06
-5.27401e+06
-5.27406e+06
-5.27269e+06
-5.27525e+06
-5.27589e+06
-5.28328e+06
-5.27601e+06
-5.27884e+06
-5.27297e+06
-5.27895e+06
-5.27337e+06
-5.2725e+06
-5.27696e+06
-5.27609e+06
-5.27365e+06
-5.2726e+06
-5.27298e+06
-5.27458e+06
-5.2726e+06
-5.2734e+06
-5.27703e+06
-5.27618e+06
-5.27368e+06
-5.27338e+06
-5.27334e+06
-5.27484e+06
-5.28045e+06
-5.27536e+06
-5.27756e+06
-5.27756e+06
-5.27676e+06
-5.28071e+06
-5.27426e+06
-5.28301e+06
-5.27577e+06
-5.28204e+06
-5.27916e+06
-5.2742e+06
-5.2766e+06
-5.27571e+06
-5.28198e+06
-5.28057e+06
-5.27912e+06
-5.28284e+06
-5.27274e+06
-5.27316e+06
-5.27481e+06
-5.27355e+06
-5.27276e+06
-5.27724e+06
-5.27639e+06
-5.27385e+06
-5.27316e+06
-5.27477e+06
-5.27277e+06
-5.27273e+06
-5.27722e+06
-5.27634e+06
-5.27356e+06
-5.27384e+06
-5.2725e+06
-5.27276e+06
-5.27435e+06
-5.27521e+06
-5.28324e+06
-5.27583e+06
-5.27594e+06
-5.27879e+06
-5.27893e+06
-5.27288e+06
-5.27259e+06
-5.2734e+06
-5.27701e+06
-5.27367e+06
-5.27615e+06
-5.27257e+06
-5.27295e+06
-5.27458e+06
-5.27657e+06
-5.2742e+06
-5.27574e+06
-5.28195e+06
-5.28054e+06
-5.28281e+06
-5.27909e+06
-5.27335e+06
-5.27339e+06
-5.27486e+06
-5.28045e+06
-5.27536e+06
-5.27756e+06
-5.27757e+06
-5.27675e+06
-5.28068e+06
-5.27422e+06
-5.28298e+06
-5.27575e+06
-5.28201e+06
-5.27915e+06
-5.27359e+06
-5.27728e+06
-5.27281e+06
-5.2764e+06
-5.27386e+06
-5.28345e+06
-5.27618e+06
-5.27913e+06
-5.2755e+06
-5.27631e+06
-5.27922e+06
-5.27321e+06
-5.27279e+06
-5.27321e+06
-5.27482e+06
-5.27276e+06
-5.27719e+06
-5.27634e+06
-5.27357e+06
-5.27384e+06
-5.27316e+06
-5.27475e+06
-5.27278e+06
-5.273e+06
-5.27297e+06
-5.27313e+06
-5.27261e+06
-5.2728e+06
-5.27442e+06
-5.27345e+06
-5.27706e+06
-5.27254e+06
-5.2761e+06
-5.27377e+06
-5.27264e+06
-5.27302e+06
-5.27464e+06
-5.27709e+06
-5.27264e+06
-5.27348e+06
-5.27623e+06
-5.27378e+06
-5.2834e+06
-5.2762e+06
-5.27914e+06
-5.27547e+06
-5.2763e+06
-5.27915e+06
-5.27315e+06
-5.27355e+06
-5.2771e+06
-5.27272e+06
-5.27628e+06
-5.2738e+06
-5.27278e+06
-5.27317e+06
-5.27474e+06
-5.27272e+06
-5.27714e+06
-5.2763e+06
-5.27355e+06
-5.2738e+06
-5.2732e+06
-5.27475e+06
-5.2728e+06
-5.27984e+06
-5.27962e+06
-5.28583e+06
-5.27839e+06
-5.28511e+06
-5.2842e+06
-5.28494e+06
-5.29548e+06
-5.29542e+06
-5.29883e+06
-5.2954e+06
-5.29881e+06
-5.29875e+06
-5.30216e+06
-5.29215e+06
-5.2989e+06
-5.29562e+06
-5.29889e+06
-5.29562e+06
-5.30222e+06
-5.29897e+06
-5.29882e+06
-5.29195e+06
-5.29545e+06
-5.29875e+06
-5.30215e+06
-5.29539e+06
-5.2988e+06
-5.29562e+06
-5.29553e+06
-5.29213e+06
-5.30222e+06
-5.29897e+06
-5.29888e+06
-5.29561e+06
-5.28489e+06
-5.28651e+06
-5.27921e+06
-5.28649e+06
-5.28241e+06
-5.28885e+06
-5.28241e+06
-5.29881e+06
-5.29875e+06
-5.30216e+06
-5.29194e+06
-5.29546e+06
-5.29541e+06
-5.29882e+06
-5.29562e+06
-5.30222e+06
-5.29897e+06
-5.29554e+06
-5.29213e+06
-5.2989e+06
-5.29561e+06
-5.30215e+06
-5.29538e+06
-5.2988e+06
-5.2954e+06
-5.29882e+06
-5.29193e+06
-5.29545e+06
-5.29897e+06
-5.29888e+06
-5.29561e+06
-5.29889e+06
-5.29561e+06
-5.29553e+06
-5.29213e+06
-5.27718e+06
-5.28233e+06
-5.2823e+06
-5.2854e+06
-5.27768e+06
-5.28152e+06
-5.28149e+06
-5.28535e+06
-5.28229e+06
-5.28145e+06
-5.27716e+06
-5.28232e+06
-5.28148e+06
-5.2777e+06
-5.28527e+06
-5.28223e+06
-5.28142e+06
-5.27713e+06
-5.28222e+06
-5.28141e+06
-5.27766e+06
-5.27964e+06
-5.27986e+06
-5.27845e+06
-5.28425e+06
-5.28585e+06
-5.28497e+06
-5.28513e+06
-5.27962e+06
-5.27983e+06
-5.27841e+06
-5.2842e+06
-5.28582e+06
-5.28494e+06
-5.28508e+06
-5.27982e+06
-5.27964e+06
-5.27843e+06
-5.2842e+06
-5.28581e+06
-5.28508e+06
-5.28493e+06
-5.28222e+06
-5.27707e+06
-5.2822e+06
-5.28521e+06
-5.27764e+06
-5.28136e+06
-5.2813e+06
-5.28226e+06
-5.28532e+06
-5.28146e+06
-5.27715e+06
-5.28225e+06
-5.27765e+06
-5.28146e+06
-5.27699e+06
-5.28213e+06
-5.28515e+06
-5.28209e+06
-5.2813e+06
-5.27751e+06
-5.28122e+06
-5.27866e+06
-5.27851e+06
-5.28561e+06
-5.27724e+06
-5.28469e+06
-5.28367e+06
-5.28456e+06
-5.28234e+06
-5.28537e+06
-5.28149e+06
-5.27718e+06
-5.28235e+06
-5.27774e+06
-5.28151e+06
-5.27696e+06
-5.28212e+06
-5.28208e+06
-5.28514e+06
-5.2775e+06
-5.28128e+06
-5.28121e+06
-5.28235e+06
-5.27721e+06
-5.28235e+06
-5.28538e+06
-5.27773e+06
-5.28151e+06
-5.28152e+06
-5.27702e+06
-5.2822e+06
-5.28517e+06
-5.28217e+06
-5.28132e+06
-5.2776e+06
-5.28126e+06
-5.27714e+06
-5.28224e+06
-5.28528e+06
-5.28221e+06
-5.28144e+06
-5.27764e+06
-5.2814e+06
-5.27697e+06
-5.28512e+06
-5.28211e+06
-5.28208e+06
-5.28124e+06
-5.28122e+06
-5.27751e+06
-5.2849e+06
-5.27928e+06
-5.28655e+06
-5.28652e+06
-5.28244e+06
-5.28244e+06
-5.28888e+06
-5.27722e+06
-5.28544e+06
-5.28234e+06
-5.28235e+06
-5.28154e+06
-5.28155e+06
-5.27773e+06
-5.28485e+06
-5.27925e+06
-5.28651e+06
-5.2865e+06
-5.2824e+06
-5.2824e+06
-5.28884e+06
-5.28488e+06
-5.28652e+06
-5.27922e+06
-5.2865e+06
-5.2824e+06
-5.28885e+06
-5.28241e+06
-5.27697e+06
-5.28511e+06
-5.28208e+06
-5.28209e+06
-5.28122e+06
-5.28123e+06
-5.27752e+06
-5.27716e+06
-5.28539e+06
-5.28232e+06
-5.28229e+06
-5.28151e+06
-5.28148e+06
-5.27767e+06
-5.27693e+06
-5.28209e+06
-5.28207e+06
-5.28509e+06
-5.27748e+06
-5.28121e+06
-5.28119e+06
-5.2849e+06
-5.28649e+06
-5.27922e+06
-5.28652e+06
-5.2824e+06
-5.28886e+06
-5.28242e+06
-5.27723e+06
-5.28235e+06
-5.28235e+06
-5.28541e+06
-5.27775e+06
-5.28154e+06
-5.28153e+06
-5.28485e+06
-5.28647e+06
-5.27919e+06
-5.2865e+06
-5.28237e+06
-5.28883e+06
-5.28239e+06
-5.28482e+06
-5.28645e+06
-5.28648e+06
-5.27921e+06
-5.28881e+06
-5.28235e+06
-5.28237e+06
-5.2769e+06
-5.28206e+06
-5.28207e+06
-5.28508e+06
-5.27748e+06
-5.28116e+06
-5.28119e+06
-5.28489e+06
-5.28647e+06
-5.28651e+06
-5.27921e+06
-5.28886e+06
-5.2824e+06
-5.28241e+06
-5.28219e+06
-5.27704e+06
-5.28219e+06
-5.28518e+06
-5.28128e+06
-5.27761e+06
-5.28132e+06
-5.28529e+06
-5.28222e+06
-5.28141e+06
-5.27714e+06
-5.28223e+06
-5.28145e+06
-5.27763e+06
-5.27697e+06
-5.28513e+06
-5.28207e+06
-5.2821e+06
-5.28122e+06
-5.28127e+06
-5.2775e+06
-5.27868e+06
-5.28558e+06
-5.27851e+06
-5.28467e+06
-5.2772e+06
-5.28362e+06
-5.28451e+06
-5.28535e+06
-5.28231e+06
-5.28147e+06
-5.27721e+06
-5.28233e+06
-5.2815e+06
-5.27774e+06
-5.27694e+06
-5.28206e+06
-5.28511e+06
-5.28209e+06
-5.28119e+06
-5.27749e+06
-5.28126e+06
-5.27865e+06
-5.28557e+06
-5.27844e+06
-5.28463e+06
-5.27714e+06
-5.28358e+06
-5.28449e+06
-5.28219e+06
-5.27703e+06
-5.28518e+06
-5.28218e+06
-5.28127e+06
-5.28133e+06
-5.27762e+06
)
;

boundaryField
{
    sphere_to_oil
    {
        type            calculated;
        value           nonuniform List<scalar> 
1536
(
-5.27174e+06
-5.27153e+06
-5.27143e+06
-5.27152e+06
-5.27147e+06
-5.27173e+06
-5.27151e+06
-5.27172e+06
-5.27156e+06
-5.27163e+06
-5.2713e+06
-5.27147e+06
-5.27177e+06
-5.27161e+06
-5.27133e+06
-5.27173e+06
-5.2713e+06
-5.27107e+06
-5.27156e+06
-5.27177e+06
-5.27164e+06
-5.27156e+06
-5.27145e+06
-5.27155e+06
-5.27155e+06
-5.27155e+06
-5.27152e+06
-5.27154e+06
-5.27148e+06
-5.27178e+06
-5.27164e+06
-5.27154e+06
-5.27149e+06
-5.2718e+06
-5.27162e+06
-5.2716e+06
-5.27159e+06
-5.2716e+06
-5.27151e+06
-5.27185e+06
-5.27171e+06
-5.27166e+06
-5.2715e+06
-5.27151e+06
-5.27161e+06
-5.27154e+06
-5.2716e+06
-5.27155e+06
-5.27159e+06
-5.2716e+06
-5.27154e+06
-5.27161e+06
-5.27161e+06
-5.27151e+06
-5.27177e+06
-5.27168e+06
-5.27173e+06
-5.27157e+06
-5.27169e+06
-5.2715e+06
-5.27179e+06
-5.27166e+06
-5.27148e+06
-5.27118e+06
-5.27147e+06
-5.27118e+06
-5.27153e+06
-5.27146e+06
-5.27167e+06
-5.27173e+06
-5.27152e+06
-5.27183e+06
-5.27169e+06
-5.27152e+06
-5.27122e+06
-5.27154e+06
-5.27139e+06
-5.27153e+06
-5.27172e+06
-5.27145e+06
-5.27148e+06
-5.27155e+06
-5.27145e+06
-5.27182e+06
-5.27162e+06
-5.27164e+06
-5.27182e+06
-5.27171e+06
-5.27163e+06
-5.27143e+06
-5.27169e+06
-5.27155e+06
-5.27171e+06
-5.27151e+06
-5.27158e+06
-5.27164e+06
-5.27167e+06
-5.27153e+06
-5.27148e+06
-5.27136e+06
-5.27159e+06
-5.27145e+06
-5.2718e+06
-5.27175e+06
-5.27199e+06
-5.27162e+06
-5.27178e+06
-5.27167e+06
-5.27178e+06
-5.27161e+06
-5.27135e+06
-5.2713e+06
-5.27136e+06
-5.27192e+06
-5.27169e+06
-5.27164e+06
-5.2716e+06
-5.27166e+06
-5.27173e+06
-5.27133e+06
-5.27124e+06
-5.27162e+06
-5.27182e+06
-5.27197e+06
-5.27175e+06
-5.27165e+06
-5.27173e+06
-5.27133e+06
-5.27104e+06
-5.27156e+06
-5.27136e+06
-5.27153e+06
-5.27142e+06
-5.27156e+06
-5.27166e+06
-5.27161e+06
-5.27187e+06
-5.27152e+06
-5.27182e+06
-5.27169e+06
-5.27167e+06
-5.27142e+06
-5.27153e+06
-5.27156e+06
-5.27157e+06
-5.27163e+06
-5.27165e+06
-5.27149e+06
-5.27133e+06
-5.27118e+06
-5.27151e+06
-5.27161e+06
-5.27158e+06
-5.27185e+06
-5.27163e+06
-5.27175e+06
-5.27181e+06
-5.27166e+06
-5.27135e+06
-5.27134e+06
-5.27165e+06
-5.27171e+06
-5.27192e+06
-5.27174e+06
-5.27159e+06
-5.27173e+06
-5.27132e+06
-5.27126e+06
-5.27135e+06
-5.27164e+06
-5.2716e+06
-5.27187e+06
-5.2717e+06
-5.27173e+06
-5.27161e+06
-5.27139e+06
-5.27142e+06
-5.27149e+06
-5.27153e+06
-5.27154e+06
-5.27161e+06
-5.27186e+06
-5.27163e+06
-5.27183e+06
-5.27171e+06
-5.2717e+06
-5.27154e+06
-5.27154e+06
-5.27165e+06
-5.27142e+06
-5.27152e+06
-5.27126e+06
-5.27171e+06
-5.27156e+06
-5.2715e+06
-5.27129e+06
-5.27163e+06
-5.27149e+06
-5.27173e+06
-5.2715e+06
-5.27145e+06
-5.27147e+06
-5.27144e+06
-5.27174e+06
-5.27157e+06
-5.27181e+06
-5.27166e+06
-5.27162e+06
-5.27146e+06
-5.27142e+06
-5.27173e+06
-5.27134e+06
-5.27147e+06
-5.27151e+06
-5.27177e+06
-5.27161e+06
-5.27178e+06
-5.27165e+06
-5.27169e+06
-5.27156e+06
-5.27172e+06
-5.2716e+06
-5.27179e+06
-5.27169e+06
-5.27174e+06
-5.27162e+06
-5.27137e+06
-5.27167e+06
-5.27168e+06
-5.27139e+06
-5.27093e+06
-5.27108e+06
-5.27091e+06
-5.27161e+06
-5.2712e+06
-5.27157e+06
-5.27174e+06
-5.27136e+06
-5.27098e+06
-5.27145e+06
-5.27175e+06
-5.27101e+06
-5.27176e+06
-5.27134e+06
-5.27139e+06
-5.27173e+06
-5.27114e+06
-5.27172e+06
-5.27114e+06
-5.27161e+06
-5.2718e+06
-5.27176e+06
-5.27136e+06
-5.27118e+06
-5.27128e+06