/*--------------------------------*- C++ -*----------------------------------*\
| =========                 |                                                 |
| \\      /  F ield         | OpenFOAM: The Open Source CFD Toolbox           |
|  \\    /   O peration     | Version:  v1906                                 |
|   \\  /    A nd           | Web:      www.OpenFOAM.com                      |
|    \\/     M anipulation  |                                                 |
\*---------------------------------------------------------------------------*/
FoamFile
{
    version     2.0;
    format      ascii;
    class       volScalarField;
    location    "94.6/sphere";
    object      T;
}
// * * * * * * * * * * * * * * * * * * * * * * * * * * * * * * * * * * * * * //

dimensions      [0 0 0 1 0 0 0];


internalField   nonuniform List<scalar> 
304
(
451.701
451.727
451.72
451.737
451.698
451.688
451.702
451.728
451.7
451.834
451.834
451.739
451.72
451.826
451.827
451.761
451.72
451.751
451.682
451.727
451.743
451.702
451.728
451.834
451.834
451.767
451.737
451.827
451.827
451.785
451.685
451.751
451.778
451.716
451.703
451.741
451.766
451.704
451.701
451.761
451.785
451.725
451.683
451.716
451.675
451.691
451.703
451.704
451.703
451.733
451.703
451.703
451.734
451.703
451.691
451.701
451.704
451.702
451.731
451.727
451.726
451.74
451.74
451.767
451.765
451.789
451.701
451.74
451.726
451.767
451.739
451.789
451.766
451.702
451.704
451.732
451.702
451.695
451.695
451.724
451.685
451.736
451.686
451.716
451.759
451.785
451.723
451.754
451.722
451.717
451.688
451.785
451.761
451.756
451.725
451.726
451.697
451.687
451.672
451.686
451.681
451.715
451.682
451.716
451.682
451.682
451.672
451.702
451.702
451.702
451.732
451.728
451.739
451.768
451.728
451.743
451.768
451.792
451.703
451.768
451.74
451.744
451.728
451.792
451.768
451.703
451.703
451.733
451.703
451.739
451.725
451.765
451.727
451.767
451.74
451.789
451.7
451.765
451.726
451.767
451.727
451.789
451.74
451.759
451.687
451.724
451.737
451.785
451.716
451.755
451.722
451.726
451.689
451.785
451.737
451.756
451.717
451.683
451.686
451.716
451.683
451.751
451.68
451.709
451.751
451.777
451.709
451.726
451.72
451.709
451.679
451.777
451.751
451.726
451.709
451.715
451.686
451.682
451.701
451.702
451.733
451.705
451.743
451.768
451.792
451.701
451.728
451.74
451.768
451.727
451.792
451.767
451.728
451.699
451.767
451.738
451.732
451.702
451.701
451.768
451.74
451.789
451.703
451.741
451.727
451.766
451.727
451.789
451.741
451.739
451.702
451.765
451.726
451.785
451.717
451.756
451.724
451.762
451.69
451.727
451.737
451.756
451.717
451.76
451.722
451.726
451.689
451.715
451.682
451.683
451.777
451.709
451.726
451.721
451.752
451.68
451.71
451.752
451.727
451.71
451.752
451.723
451.71
451.683
451.687
451.683
451.684
451.694
451.702
451.704
451.732
451.701
451.732
451.702
451.701
451.69
451.706
451.703
451.733
451.703
451.767
451.766
451.789
451.703
451.727
451.727
451.741
451.739
451.789
451.765
451.726
451.7
451.74
451.726
451.732
451.702
451.7
451.728
451.689
451.697
451.786
451.726
451.756
451.722
451.737
451.688
451.717
451.76
451.756
451.726
451.737
451.721
451.717
451.689
451.696
451.687
451.695
451.675
451.716
451.683
451.687
451.684
451.684
451.687
)
;

boundaryField
{
    sphere_to_oil
    {
        type            compressible::turbulentTemperatureCoupledBaffleMixed;
        refValue        nonuniform List<scalar> 
360
(
330.65
330.65
321.558
353.653
360.295
324.479
361.28
361.28
361.28
340.483
340.483
328.445
333.19
320.533
340.048
347.857
344
344
344
322.111
342.95
323.258
326.975
356.369
317.365
356.597
322.917
356.604
356.604
356.604
361.768
355.228
321.459
321.134
328.174
328.276
344.861
344.861
344.861
344.206
344.909
321.278
322.687
331.1
331.1
322.73
331.017
314.774
330.321
356.917
324.414
324.551
332.438
333.015
321.852
323.013
344.351
322.191
322.732
331.45
316.245
357.678
357.678
357.678
314.822
356.296
330.232
322.8
359.834
359.834
359.834
360.726
359.558
319.697
343.87
339.452
321.531
326.289
344.844
344.899
327.702
319.511
327.394
316.141
321.449
324.053
328.352
332.886
321.043
322.33
321.689
331.854
328.016
321.792
331.499
327.983
328.59
328.99
324.874
316.384
316.49
321.752
324.425
328.007
331.757
321.68
320.418
333.084
324.53
328.948
328.643
328.83
324.872
322.111
314.974
314.934
327.23
323.001
328.217
330.581
330.581
353.653
353.653
356.369
356.369
354.082
354.082
354.082
355.73
355.73
355.73
327.605
323.237
327.17
322.654
360.295
360.295
337.613
337.613
361.768
361.768
337.094
337.094
361.189
361.189
361.189
322.346
322.08
348.382
348.382
348.382
348.205
348.205
348.205
347.857
342.95
340.048
347.857
348.086
321.909
348.086
348.086
327.022
327.819
319.637
323.345
323.345
346.082
346.082
346.082
316.205
342.95
323.258
345.305
345.305
316.103
345.305
327.803
319.559
314.854
322.944
323.276
331.63
317.249
331.081
323.197
314.901
316.602
356.597
356.597
355.228
355.228
331.486
331.486
353.682
353.682
353.682
330.068
330.068
316.264
327.475
324.843
331.94
327.736
324.158
331.768
324.575
333.14
329.018
324.38
344.206
332.921
329.067
322.246
345.524
345.524
345.524
323.731
323.731
316.154
322.865
322.704
331.215
344.909
321.201
331.149
322.976
344.206
344.909
323.515
322.167
323.515
316.431
314.879
330.942
317.283
323.081
322.979
323.222
317.118
316.188
357.625
352.683
357.625
357.625
352.683
352.683
356.917
356.296
330.321
354.878
316.434
356.917
354.878
354.878
331.152
321.263
327.789
331.701
321.805
360.726
327.807
328.637
328.41
324.687
344.351
343.87
328.969
328.488
324.832
343.96
347.895
323.013
345.172
316.229
344.351
345.172
345.172
331.638
321.174
344.844
322.793
322.961
322.67
345.219
321.153
344.95
323.384
343.96
323.384
345.219
343.96
345.219
314.724
323.066
326.767
326.926
330.582
353.789
330.582
353.789
353.789
316.242
356.296
354.856
330.232
354.856
316.277
354.856
327.726
327.482
321.199
358.859
337.76
358.859
358.859
337.76
321.729
324.083
327.539
331.653
359.558
360.726
337.266
322.331
359.558
337.266
321.614
343.87
348.329
339.452
348.329
320.887
348.329
333.169
344.899
324.675
329.213
347.653
344.561
347.895
339.054
347.895
347.653
339.054
347.653
319.463
327.299
344.844
323.358
316.194
344.899
323.358
322.443
344.95
344.561
344.95
323.405
344.561
323.405
)
;
        refGradient     uniform 0;
        valueFraction   nonuniform List<scalar> 
360
(
0.00014106
0.000135327
8.66384e-05
0.000309503
0.000317423
0.000182018
0.000319395
0.00027416
0.000426737
0.000135874
0.000132474
0.000177719
0.000270849
7.74421e-05
0.000138531
0.000269291
0.000308602
0.000288346
0.000404616
7.08649e-05
0.000265665
0.000130604
0.000120371
0.000319413
9.27392e-05
0.000328319
0.000185071
0.00032408
0.000424119
0.000283709
0.000324134
0.000326926
8.77879e-05
8.68071e-05
0.000182171
0.000179273
0.000303351
0.000411257
0.000282402
0.000424618
0.000419435
8.95626e-05
0.000177648
0.00012965
0.000129495
0.000182868
0.000273586
7.29923e-05
0.000130606
0.000276943
0.000180397
0.000181569
0.000270647
0.000268017
7.57229e-05
0.000138525
0.000282487
7.25406e-05
0.000179708
0.000267981
7.10049e-05
0.000315467
0.000278482
0.000435851
7.3201e-05
0.000284737
0.000132819
0.000128462
0.000322757
0.000421047
0.000283229
0.000406023
0.000411707
7.86334e-05
0.000274517
0.000139264
7.24976e-05
0.000130001
0.000410853
0.000426801
0.000127506
0.000125101
0.000122875
7.30275e-05
8.80607e-05
0.000178532
0.000179533
0.000271882
8.2071e-05
6.92981e-05
8.71515e-05
0.000271438
0.000179192
8.90258e-05
0.00027099
0.000181239
0.000180167
0.000180446
8.79936e-05
7.05308e-05
7.15202e-05
7.05685e-05
0.000181417
0.000178309
0.000271233
7.98551e-05
6.9363e-05
0.000271037
8.61049e-05
0.000178592
0.000178624
0.000182269
8.91277e-05
7.13698e-05
6.96024e-05
7.0947e-05
0.000123493
0.000123641
0.000128445
0.00013928
0.000130904
0.000270477
0.000426083
0.000284965
0.000430002
0.000275634
0.000423763
0.000315519
0.000275857
0.00041454
0.000310734
0.000126746
0.000119862
0.000122769
6.77738e-05
0.000281075
0.000423189
0.000130936
0.000131534
0.00042767
0.000284352
0.000137258
0.000144663
0.000422406
0.000290178
0.000334369
7.45891e-05
6.94136e-05
0.000292978
0.000405997
0.000321813
0.000301658
0.000420053
0.000321779
0.000332227
0.000306023
0.000143149
0.000426682
0.000275609
7.68413e-05
0.000414707
0.000310337
0.000118434
0.000124776
0.000123439
0.000130221
0.000136124
0.000424554
0.000279547
0.00032813
7.86762e-05
0.000408402
0.000140041
0.000429446
0.000274918
7.68496e-05
0.000325972
0.000119485
0.000120594
7.04568e-05
0.000184676
0.000184603
0.000272963
9.10254e-05
0.000273375
0.000179878
6.97334e-05
6.77136e-05
0.000427174
0.000271425
0.00042216
0.000281461
0.000134257
0.000125556
0.000424129
0.000265078
0.000306405
0.000124107
0.000144003
7.24471e-05
0.000181431
0.000181266
0.000270825
0.000177329
0.000178242
0.000269758
9.24621e-05
0.000270684
0.000183537
8.99167e-05
0.000304674
0.000270385
0.000182437
7.27071e-05
0.000414881
0.000268961
0.000314687
0.000131102
0.000121834
7.03752e-05
0.000180026
0.000183053
0.000271409
0.000308579
8.63044e-05
0.000268833
0.000175578
0.000267053
0.000282717
0.000128335
7.20836e-05
0.000142408
7.29755e-05
6.86901e-05
0.000274429
9.15834e-05
0.000184496
0.000182363
0.000180189
9.04321e-05
6.9078e-05
0.000280589
0.000262919
0.000441377
0.00032854
0.000411781
0.000295867
0.000317115
0.000324681
0.000144322
0.000278537
7.50453e-05
0.00042386
0.000412141
0.000313142
0.000273127
8.70286e-05
0.000177719
0.000269986
8.78079e-05
0.000321703
0.000178488
0.000179766
0.000178109
8.72776e-05
0.000319311
0.000299222
0.000181717
0.000177017
8.89581e-05
0.000299811
0.000330012
0.000130882
0.000296251
7.03594e-05
0.000422064
0.000409193
0.000309193
0.000267991
8.8038e-05
0.000309679
0.000178318
0.000178593
0.00017961
0.000311365
8.88629e-05
0.000318123
0.000133859
0.000274278
0.000134977
0.000279501
0.000425935
0.000418149
7.03237e-05
0.000140921
0.000139256
0.000136205
0.00012404
0.000414986
0.000135476
0.000275889
0.000324873
6.9299e-05
0.000419036
0.00041853
0.000137014
0.000297587
7.26225e-05
0.000319036
0.000121471
0.000119332
7.25628e-05
0.000410427
0.000122663
0.000269165
0.000317005
0.000131506
7.16897e-05
0.000178381
0.000178321
0.000269079
0.000307888
0.000267052
0.000129117
6.95013e-05
0.000271525
0.000143404
8.02689e-05
0.000393488
0.000422526
0.000124876
0.000268399
7.44141e-05
0.000337553
0.000271142
0.000324864
8.88711e-05
0.000179151
0.000313209
0.000303651
0.000285667
0.000127686
0.00041846
0.00041756
0.000151573
0.000279113
0.000122806
0.00012469
0.000280999
0.000139101
7.52087e-05
0.000284191
0.000133941
6.94537e-05
0.000413624
0.000418588
0.000275419
0.000133662
0.000270536
0.000138069
)
;
        value           nonuniform List<scalar> 
360
(
451.701
451.702
451.705
451.686
451.688
451.719
451.687
451.692
451.68
451.695
451.695
451.714
451.72
451.704
451.698
451.686
451.668
451.67
451.652
451.694
451.674
451.686
451.672
451.686
451.704
451.686
451.72
451.687
451.678
451.691
451.686
451.683
451.703
451.704
451.712
451.715
451.669
451.654
451.671
451.652
451.653
451.683
451.701
451.701
451.702
451.719
451.726
451.707
451.701
451.691
451.72
451.719
451.72
451.721
451.691
451.683
451.67
451.693
451.701
451.71
451.689
451.687
451.691
451.678
451.708
451.691
451.702
451.689
451.689
451.683
451.692
451.683
451.682
451.706
451.687
451.701
451.702
451.674
451.654
451.653
451.674
451.673
451.675
451.689
451.707
451.719
451.715
451.72
451.7
451.693
451.705
451.723
451.719
451.703
451.723
451.718
451.714
451.71
451.693
451.708
451.708
451.707
451.719
451.719
451.723
451.706
451.701
451.719
451.69
451.709
451.716
451.71
451.692
451.692
451.709
451.709
451.691
451.69
451.69
451.701
451.703
451.691
451.677
451.692
451.677
451.691
451.677
451.685
451.692
451.679
451.688
451.691
451.691
451.691
451.708
451.691
451.68
451.702
451.702
451.681
451.691
451.701
451.701
451.681
451.691
451.685
451.708
451.701
451.68
451.659
451.668
451.679
451.657
451.669
451.669
451.67
451.696
451.658
451.684
451.702
451.659
451.672
451.673
451.672
451.671
451.685
451.68
451.651
451.668
451.66
451.687
451.653
451.679
451.652
451.668
451.687
451.66
451.672
451.671
451.707
451.72
451.719
451.726
451.706
451.726
451.721
451.708
451.708
451.677
451.691
451.677
451.69
451.701
451.702
451.676
451.692
451.685
451.703
451.7
451.708
451.718
451.719
451.723
451.72
451.72
451.723
451.69
451.72
451.709
451.692
451.671
451.72
451.71
451.692
451.654
451.669
451.662
451.685
451.682
451.688
451.701
451.7
451.708
451.662
451.683
451.709
451.702
451.673
451.667
451.685
451.692
451.679
451.687
451.707
451.725
451.704
451.719
451.719
451.72
451.703
451.708
451.69
451.692
451.679
451.686
451.679
451.689
451.685
451.684
451.7
451.69
451.707
451.676
451.676
451.687
451.723
451.707
451.721
451.723
451.706
451.688
451.719
451.71
451.717
451.694
451.671
451.673
451.71
451.715
451.693
451.672
451.67
451.681
451.666
451.688
451.653
451.655
451.663
451.709
451.684
451.663
451.702
451.703
451.702
451.665
451.687
451.664
451.686
451.673
451.681
451.669
451.653
451.655
451.707
451.691
451.692
451.692
451.702
451.678
451.7
451.69
451.687
451.707
451.677
451.676
451.7
451.688
451.707
451.684
451.69
451.69
451.709
451.683
451.704
451.693
451.689
451.703
451.709
451.72
451.72
451.724
451.687
451.693
451.702
451.708
451.691
451.699
451.705
451.662
451.661
451.699
451.685
451.703
451.668
451.72
451.668
451.692
451.71
451.671
451.671
451.682
451.697
451.659
451.659
451.693
451.681
451.674
451.674
451.669
451.681
451.688
451.672
451.686
451.694
451.655
451.655
451.67
451.682
451.673
451.685
)
;
        Tnbr            T;
        thicknessLayers 0();
        kappaLayers     0();
        kappaMethod     solidThermo;
        kappa           none;
        alphaAni        none;
    }
}


// ************************************************************************* //
