/*--------------------------------*- C++ -*----------------------------------*\
| =========                 |                                                 |
| \\      /  F ield         | OpenFOAM: The Open Source CFD Toolbox           |
|  \\    /   O peration     | Version:  v1906                                 |
|   \\  /    A nd           | Web:      www.OpenFOAM.com                      |
|    \\/     M anipulation  |                                                 |
\*---------------------------------------------------------------------------*/
FoamFile
{
    version     2.0;
    format      ascii;
    class       volVectorField;
    location    "81.8/oil";
    object      U;
}
// * * * * * * * * * * * * * * * * * * * * * * * * * * * * * * * * * * * * * //

dimensions      [0 1 -1 0 0 0 0];


internalField   nonuniform List<vector> 
27760
(
(-2.40212e-05 -2.4472e-05 -2.40212e-05)
(-4.74115e-05 -1.83553e-05 -1.73096e-05)
(-3.4451e-06 -4.75321e-06 -4.74615e-06)
(-5.5965e-06 -7.66221e-07 -8.82855e-07)
(-1.08113e-06 -2.3536e-07 -3.72839e-07)
(-3.16432e-07 -8.70025e-08 -2.38132e-07)
(3.71884e-07 3.72863e-09 -1.59543e-07)
(7.26394e-07 4.43696e-08 -1.28022e-07)
(9.2535e-07 6.85742e-08 -1.09814e-07)
(9.99862e-07 8.45144e-08 -9.71156e-08)
(9.7232e-07 9.60639e-08 -8.65169e-08)
(8.56185e-07 1.05045e-07 -7.71229e-08)
(6.65986e-07 1.11795e-07 -6.93904e-08)
(4.18865e-07 1.16393e-07 -6.38017e-08)
(1.35482e-07 1.18785e-07 -6.08102e-08)
(-1.61132e-07 1.18933e-07 -6.06632e-08)
(-4.47285e-07 1.16882e-07 -6.33172e-08)
(-7.00585e-07 1.12777e-07 -6.84129e-08)
(-9.01931e-07 1.06864e-07 -7.53016e-08)
(-1.03716e-06 9.94376e-08 -8.31014e-08)
(-1.09832e-06 9.0859e-08 -9.07127e-08)
(-1.08373e-06 8.1538e-08 -9.66974e-08)
(-9.9875e-07 7.13318e-08 -1.0031e-07)
(-8.55383e-07 6.07952e-08 -1.00225e-07)
(-6.70928e-07 5.01754e-08 -9.54754e-08)
(-4.67716e-07 3.99591e-08 -8.5451e-08)
(-2.71683e-07 3.11482e-08 -7.02872e-08)
(-1.10765e-07 2.55183e-08 -5.13583e-08)
(-9.57319e-09 2.52052e-08 -3.22735e-08)
(1.3267e-08 2.59926e-08 -1.32355e-08)
(-1.74237e-05 -4.87091e-05 -1.74236e-05)
(-5.68301e-06 -6.34249e-06 -7.80432e-06)
(-7.61348e-06 -7.69938e-06 -2.73321e-06)
(-3.31066e-06 -2.27734e-06 -7.92285e-07)
(-9.5011e-07 -1.40907e-06 -4.04596e-07)
(2.59948e-07 -7.83617e-07 -2.10279e-07)
(1.15096e-06 -4.9626e-07 -1.1446e-07)
(1.70226e-06 -3.21012e-07 -6.53756e-08)
(2.02076e-06 -1.99528e-07 -3.36889e-08)
(2.12894e-06 -1.02884e-07 -9.72854e-09)
(2.04649e-06 -2.14519e-08 1.08201e-08)
(1.79143e-06 4.7269e-08 2.85716e-08)
(1.38848e-06 1.01985e-07 4.30651e-08)
(8.70992e-07 1.40535e-07 5.34617e-08)
(2.80204e-07 1.60939e-07 5.90089e-08)
(-3.3737e-07 1.62151e-07 5.92909e-08)
(-9.3365e-07 1.44439e-07 5.43801e-08)
(-1.46315e-06 1.09492e-07 4.48745e-08)
(-1.88705e-06 6.029e-08 3.18356e-08)
(-2.17654e-06 8.18379e-10 1.67018e-08)
(-2.31529e-06 -6.42614e-08 1.11494e-09)
(-2.30059e-06 -1.29852e-07 -1.30877e-08)
(-2.1431e-06 -1.91221e-07 -2.41841e-08)
(-1.86639e-06 -2.43017e-07 -3.08939e-08)
(-1.50514e-06 -2.79807e-07 -3.21578e-08)
(-1.10253e-06 -2.95351e-07 -2.76047e-08)
(-7.06958e-07 -2.82031e-07 -1.8006e-08)
(-3.67048e-07 -2.31258e-07 -5.85234e-09)
(-1.23889e-07 -1.36388e-07 3.55225e-09)
(-5.12726e-09 -1.77273e-08 5.17513e-09)
(-4.81367e-06 -4.6204e-06 -4.81363e-06)
(-7.50581e-06 -8.74267e-06 -2.77345e-06)
(-3.7345e-06 -5.10397e-06 -1.21136e-06)
(-1.90535e-06 -3.11714e-06 -5.61492e-07)
(-1.73392e-07 -2.29419e-06 -2.53357e-07)
(9.92175e-07 -1.75358e-06 -1.01556e-07)
(1.88231e-06 -1.43212e-06 -2.03992e-08)
(2.48057e-06 -1.19175e-06 2.69053e-08)
(2.8276e-06 -9.90213e-07 6.06272e-08)
(2.92703e-06 -8.08076e-07 8.80596e-08)
(2.78856e-06 -6.42029e-07 1.12195e-07)
(2.42878e-06 -4.9606e-07 1.33264e-07)
(1.87691e-06 -3.77042e-07 1.50524e-07)
(1.17532e-06 -2.92133e-07 1.62899e-07)
(3.77603e-07 -2.46965e-07 1.69491e-07)
(-4.55159e-07 -2.44439e-07 1.69815e-07)
(-1.25957e-06 -2.84082e-07 1.63944e-07)
(-1.97562e-06 -3.61895e-07 1.52541e-07)
(-2.55209e-06 -4.7067e-07 1.36796e-07)
(-2.95104e-06 -6.00619e-07 1.18322e-07)
(-3.15093e-06 -7.4024e-07 9.8923e-08)
(-3.14808e-06 -8.76987e-07 8.04804e-08)
(-2.95647e-06 -9.97864e-07 6.46882e-08)
(-2.60646e-06 -1.0898e-06 5.28727e-08)
(-2.14191e-06 -1.13908e-06 4.5836e-08)
(-1.61657e-06 -1.13099e-06 4.358e-08)
(-1.08927e-06 -1.04915e-06 4.4898e-08)
(-6.16831e-07 -8.76219e-07 4.66755e-08)
(-2.49481e-07 -5.96366e-07 4.29866e-08)
(-2.3817e-08 -2.16666e-07 2.38733e-08)
(-8.55449e-07 -6.77727e-06 -8.55402e-07)
(-1.86209e-06 -5.4907e-06 -7.5727e-07)
(-1.33639e-06 -4.84322e-06 -5.31632e-07)
(-3.57507e-07 -3.9465e-06 -2.54337e-07)
(8.1378e-07 -3.44919e-06 -9.1144e-08)
(1.79558e-06 -3.0665e-06 3.39552e-09)
(2.60704e-06 -2.77025e-06 6.25142e-08)
(3.18687e-06 -2.49508e-06 1.03016e-07)
(3.52021e-06 -2.22448e-06 1.35572e-07)
(3.58933e-06 -1.9557e-06 1.64211e-07)
(3.39192e-06 -1.69747e-06 1.90311e-07)
(2.94079e-06 -1.4637e-06 2.13457e-07)
(2.26672e-06 -1.26992e-06 2.32534e-07)
(1.41778e-06 -1.13047e-06 2.46244e-07)
(4.56317e-07 -1.05608e-06 2.53544e-07)
(-5.45933e-07 -1.05228e-06 2.53869e-07)
(-1.51422e-06 -1.11844e-06 2.47286e-07)
(-2.37767e-06 -1.24766e-06 2.34507e-07)
(-3.0758e-06 -1.42729e-06 2.16816e-07)
(-3.56394e-06 -1.64008e-06 1.9593e-07)
(-3.8167e-06 -1.86562e-06 1.73755e-07)
(-3.82972e-06 -2.08172e-06 1.52205e-07)
(-3.61904e-06 -2.26541e-06 1.32951e-07)
(-3.21927e-06 -2.39348e-06 1.17277e-07)
(-2.67992e-06 -2.44226e-06 1.05821e-07)
(-2.06087e-06 -2.38719e-06 9.83887e-08)
(-1.42705e-06 -2.20185e-06 9.35822e-08)
(-8.40571e-07 -1.85754e-06 8.78691e-08)
(-3.61311e-07 -1.32059e-06 7.47298e-08)
(-3.94376e-08 -5.52868e-07 3.95038e-08)
(-2.65838e-07 -2.72551e-06 -2.65783e-07)
(-7.64128e-07 -4.40663e-06 -3.04374e-07)
(-1.92974e-07 -4.92903e-06 -1.88574e-07)
(6.28432e-07 -4.91421e-06 -6.32962e-08)
(1.60269e-06 -4.82943e-06 2.42906e-08)
(2.50373e-06 -4.65744e-06 8.32276e-08)
(3.27374e-06 -4.43199e-06 1.264e-07)
(3.83735e-06 -4.15012e-06 1.61147e-07)
(4.15251e-06 -3.82496e-06 1.92546e-07)
(4.18824e-06 -3.47465e-06 2.22233e-07)
(3.93361e-06 -3.12335e-06 2.50262e-07)
(3.39843e-06 -2.79781e-06 2.75558e-07)
(2.61453e-06 -2.52444e-06 2.96578e-07)
(1.63455e-06 -2.32638e-06 3.11745e-07)
(5.28247e-07 -2.22056e-06 3.19814e-07)
(-6.23495e-07 -2.21573e-06 3.20117e-07)
(-1.73608e-06 -2.31124e-06 3.12708e-07)
(-2.72924e-06 -2.49688e-06 2.98364e-07)
(-3.53453e-06 -2.75376e-06 2.78518e-07)
(-4.1015e-06 -3.05603e-06 2.55028e-07)
(-4.40165e-06 -3.37312e-06 2.29966e-07)
(-4.43003e-06 -3.67184e-06 2.05363e-07)
(-4.20431e-06 -3.91787e-06 1.82947e-07)
(-3.76238e-06 -4.07686e-06 1.63998e-07)
(-3.15806e-06 -4.11428e-06 1.49104e-07)
(-2.45594e-06 -3.99471e-06 1.37963e-07)
(-1.726e-06 -3.68006e-06 1.29059e-07)
(-1.03586e-06 -3.12622e-06 1.18474e-07)
(-4.56048e-07 -2.27166e-06 9.89729e-08)
(-5.17418e-08 -1.00575e-06 5.18215e-08)
(-9.34824e-08 -2.61076e-06 -9.34141e-08)
(-1.69075e-08 -4.70087e-06 -7.27107e-08)
(5.55903e-07 -5.80188e-06 -1.16027e-08)
(1.34403e-06 -6.31572e-06 5.07906e-08)
(2.25449e-06 -6.54438e-06 1.00956e-07)
(3.1316e-06 -6.55208e-06 1.40357e-07)
(3.89095e-06 -6.39928e-06 1.74485e-07)
(4.45035e-06 -6.11866e-06 2.06428e-07)
(4.75285e-06 -5.74613e-06 2.38243e-07)
(4.75849e-06 -5.31861e-06 2.70048e-07)
(4.45022e-06 -4.8758e-06 3.00945e-07)
(3.83551e-06 -4.45811e-06 3.2925e-07)
(2.9474e-06 -4.10383e-06 3.52958e-07)
(1.84289e-06 -3.84574e-06 3.70122e-07)
(5.98897e-07 -3.70776e-06 3.79245e-07)
(-6.94867e-07 -3.70225e-06 3.79518e-07)
(-1.94425e-06 -3.82856e-06 3.70979e-07)
(-3.05989e-06 -4.07297e-06 3.54517e-07)
(-3.9657e-06 -4.40982e-06 3.31766e-07)
(-4.6058e-06 -4.80398e-06 3.04856e-07)
(-4.94899e-06 -5.21403e-06 2.76135e-07)
(-4.98987e-06 -5.59489e-06 2.47845e-07)
(-4.7479e-06 -5.90032e-06 2.2186e-07)
(-4.26423e-06 -6.08423e-06 1.99558e-07)
(-3.59675e-06 -6.10055e-06 1.8155e-07)
(-2.81473e-06 -5.90202e-06 1.67482e-07)
(-1.99355e-06 -5.43681e-06 1.55714e-07)
(-1.20702e-06 -4.64089e-06 1.41916e-07)
(-5.36579e-07 -3.41527e-06 1.18005e-07)
(-6.16325e-08 -1.55556e-06 6.17305e-08)
(5.60162e-09 -2.7003e-06 5.68748e-09)
(3.31382e-07 -5.45906e-06 4.46291e-08)
(9.97371e-07 -7.09974e-06 8.45099e-08)
(1.84254e-06 -8.04586e-06 1.20855e-07)
(2.77608e-06 -8.55298e-06 1.53133e-07)
(3.678e-06 -8.72738e-06 1.82901e-07)
(4.45743e-06 -8.64977e-06 2.13052e-07)
(5.02983e-06 -8.37773e-06 2.44875e-07)
(5.33026e-06 -7.96605e-06 2.78853e-07)
(5.31279e-06 -7.4684e-06 3.14168e-07)
(4.95597e-06 -6.93944e-06 3.49175e-07)
(4.26572e-06 -6.43332e-06 3.81619e-07)
(3.27646e-06 -6.00039e-06 4.08971e-07)
(2.0499e-06 -5.68358e-06 4.28822e-07)
(6.70278e-07 -5.51416e-06 4.39352e-07)
(-7.63498e-07 -5.5083e-06 4.39591e-07)
(-2.14748e-06 -5.66546e-06 4.29566e-07)
(-3.38293e-06 -5.9682e-06 4.10299e-07)
(-4.38601e-06 -6.3839e-06 3.83703e-07)
(-5.09554e-06 -6.86782e-06 3.52311e-07)
(-5.4777e-06 -7.36725e-06 3.18843e-07)
(-5.5272e-06 -7.82512e-06 2.85874e-07)
(-5.2657e-06 -8.18312e-06 2.55559e-07)
(-4.73794e-06 -8.38319e-06 2.29413e-07)
(-4.0064e-06 -8.36723e-06 2.08134e-07)
(-3.14541e-06 -8.07518e-06 1.9133e-07)
(-2.23626e-06 -7.43924e-06 1.77232e-07)
(-1.35943e-06 -6.37118e-06 1.61066e-07)
(-6.06673e-07 -4.72592e-06 1.33793e-07)
(-6.99585e-08 -2.18811e-06 7.00806e-08)
(4.73759e-08 -3.17587e-06 4.74811e-08)
(5.28747e-07 -6.62997e-06 1.03649e-07)
(1.29114e-06 -8.76795e-06 1.38135e-07)
(2.21581e-06 -1.00875e-05 1.64963e-07)
(3.20643e-06 -1.08461e-05 1.89947e-07)
(4.15806e-06 -1.11768e-05 2.16292e-07)
(4.97672e-06 -1.11766e-05 2.46154e-07)
(5.57555e-06 -1.09213e-05 2.80201e-07)
(5.88392e-06 -1.0481e-05 3.18092e-07)
(5.85098e-06 -9.92393e-06 3.58424e-07)
(5.45159e-06 -9.31849e-06 3.9894e-07)
(4.69022e-06 -8.73178e-06 4.36758e-07)
(3.60292e-06 -8.22617e-06 4.68774e-07)
(2.25627e-06 -7.8547e-06 4.92056e-07)
(7.42275e-07 -7.65597e-06 5.04382e-07)
(-8.30514e-07 -7.65008e-06 5.04583e-07)
(-2.34786e-06 -7.83655e-06 4.92674e-07)
(-3.70127e-06 -8.19431e-06 4.69867e-07)
(-4.7988e-06 -8.68363e-06 4.38438e-07)
(-5.57399e-06 -9.25016e-06 4.01406e-07)
(-5.99087e-06 -9.83012e-06 3.61971e-07)
(-6.04469e-06 -1.03546e-05 3.23186e-07)
(-5.75996e-06 -1.07533e-05 2.87581e-07)
(-5.18551e-06 -1.09563e-05 2.56867e-07)
(-4.38908e-06 -1.08937e-05 2.31865e-07)
(-3.45053e-06 -1.04914e-05 2.12149e-07)
(-2.45723e-06 -9.66374e-06 1.95826e-07)
(-1.49633e-06 -8.29433e-06 1.77634e-07)
(-6.68822e-07 -6.18464e-06 1.47554e-07)
(-7.72721e-08 -2.89341e-06 7.7422e-08)
(6.97136e-08 -3.82371e-06 6.9842e-08)
(6.48984e-07 -8.0525e-06 1.37771e-07)
(1.49741e-06 -1.07037e-05 1.71527e-07)
(2.50325e-06 -1.23878e-05 1.95258e-07)
(3.56271e-06 -1.33946e-05 2.18025e-07)
(4.57518e-06 -1.38845e-05 2.44382e-07)
(5.44353e-06 -1.39714e-05 2.76368e-07)
(6.07788e-06 -1.37469e-05 3.14437e-07)
(6.40252e-06 -1.32941e-05 3.57795e-07)
(6.36175e-06 -1.26937e-05 4.04547e-07)
(5.92676e-06 -1.20268e-05 4.51886e-07)
(5.10044e-06 -1.13723e-05 4.96286e-07)
(3.92032e-06 -1.08041e-05 5.33993e-07)
(2.45788e-06 -1.03847e-05 5.61436e-07)
(8.13176e-07 -1.01602e-05 5.75916e-07)
(-8.95256e-07 -1.01545e-05 5.7608e-07)
(-2.54241e-06 -1.03672e-05 5.61943e-07)
(-4.00966e-06 -1.07736e-05 5.34882e-07)
(-5.19696e-06 -1.13271e-05 4.97612e-07)
(-6.0327e-06 -1.19639e-05 4.53779e-07)
(-6.47902e-06 -1.26093e-05 4.07203e-07)
(-6.53251e-06 -1.31835e-05 3.61477e-07)
(-6.22119e-06 -1.36049e-05 3.19543e-07)
(-5.59879e-06 -1.37924e-05 2.83422e-07)
(-4.73859e-06 -1.36641e-05 2.54077e-07)
(-3.72614e-06 -1.31317e-05 2.31096e-07)
(-2.65477e-06 -1.20899e-05 2.1241e-07)
(-1.61769e-06 -1.03906e-05 1.92272e-07)
(-7.23699e-07 -7.77532e-06 1.59745e-07)
(-8.37992e-08 -3.66347e-06 8.39805e-08)
(8.24618e-08 -4.58636e-06 8.26164e-08)
(7.28355e-07 -9.65953e-06 1.58761e-07)
(1.64701e-06 -1.28501e-05 1.93597e-07)
(2.72455e-06 -1.49065e-05 2.17147e-07)
(3.85034e-06 -1.61699e-05 2.40347e-07)
(4.92363e-06 -1.68312e-05 2.6876e-07)
(5.84408e-06 -1.70226e-05 3.04542e-07)
(6.51798e-06 -1.68496e-05 3.48028e-07)
(6.86478e-06 -1.64072e-05 3.98204e-07)
(6.82379e-06 -1.57869e-05 4.52714e-07)
(6.36187e-06 -1.50802e-05 5.08174e-07)
(5.47978e-06 -1.43766e-05 5.60364e-07)
(4.21606e-06 -1.37602e-05 6.04749e-07)
(2.64676e-06 -1.33029e-05 6.37048e-07)
(8.79971e-07 -1.30577e-05 6.54064e-07)
(-9.55531e-07 -1.30524e-05 6.54192e-07)
(-2.724e-06 -1.32866e-05 6.37438e-07)
(-4.29651e-06 -1.37319e-05 6.05418e-07)
(-5.56487e-06 -1.43351e-05 5.61365e-07)
(-6.45284e-06 -1.50235e-05 5.09613e-07)
(-6.92152e-06 -1.57126e-05 4.54671e-07)
(-6.9696e-06 -1.63124e-05 4.00844e-07)
(-6.62934e-06 -1.67314e-05 3.51576e-07)
(-5.95994e-06 -1.68784e-05 3.09235e-07)
(-5.04024e-06 -1.66601e-05 2.74918e-07)
(-3.9614e-06 -1.59741e-05 2.48226e-07)
(-2.82194e-06 -1.46942e-05 2.26967e-07)
(-1.71982e-06 -1.26377e-05 2.04919e-07)
(-7.69943e-07 -9.48041e-06 1.70235e-07)
(-8.94541e-08 -4.49005e-06 8.96711e-08)
(9.02864e-08 -5.42311e-06 9.04589e-08)
(7.80329e-07 -1.13966e-05 1.7214e-07)
(1.74997e-06 -1.51534e-05 2.08374e-07)
(2.88215e-06 -1.75979e-05 2.32899e-07)
(4.06163e-06 -1.91339e-05 2.57884e-07)
(5.18666e-06 -1.99863e-05 2.89552e-07)
(6.15415e-06 -2.03072e-05 3.30223e-07)
(6.86682e-06 -2.0215e-05 3.80239e-07)
(7.23936e-06 -1.98144e-05 4.38334e-07)
(7.20576e-06 -1.92058e-05 5.01776e-07)
(6.72795e-06 -1.84887e-05 5.66554e-07)
(5.80368e-06 -1.77614e-05 6.27658e-07)
(4.47151e-06 -1.7117e-05 6.79734e-07)
(2.81129e-06 -1.66356e-05 7.17639e-07)
(9.38558e-07 -1.63767e-05 7.37558e-07)
(-1.0079e-06 -1.63717e-05 7.37656e-07)
(-2.88162e-06 -1.66205e-05 7.17936e-07)
(-4.54371e-06 -1.70913e-05 6.80239e-07)
(-5.87851e-06 -1.77242e-05 6.28395e-07)
(-6.80602e-06 -1.84387e-05 5.67558e-07)
(-7.28729e-06 -1.91416e-05 5.03156e-07)
(-7.32404e-06 -1.97342e-05 4.40197e-07)
(-6.95372e-06 -2.01174e-05 3.82672e-07)
(-6.24126e-06 -2.01916e-05 3.33346e-07)
(-5.2709e-06 -1.98535e-05 2.93505e-07)
(-4.13845e-06 -1.89871e-05 2.62749e-07)
(-2.9463e-06 -1.74445e-05 2.38703e-07)
(-1.79552e-06 -1.50062e-05 2.14777e-07)
(-8.04528e-07 -1.12772e-05 1.78379e-07)
(-9.3893e-08 -5.36261e-06 9.41516e-08)
(9.45937e-08 -6.30575e-06 9.4801e-08)
(8.08053e-07 -1.32159e-05 1.7958e-07)
(1.80497e-06 -1.75589e-05 2.16878e-07)
(2.96746e-06 -2.04072e-05 2.42728e-07)
(4.1789e-06 -2.22353e-05 2.70065e-07)
(5.33775e-06 -2.33046e-05 3.05656e-07)
(6.33975e-06 -2.3787e-05 3.51942e-07)
(7.08524e-06 -2.38133e-05 4.09288e-07)
(7.48455e-06 -2.34957e-05 4.76255e-07)
(7.46642e-06 -2.29403e-05 5.49732e-07)
(6.98716e-06 -2.22519e-05 6.25082e-07)
(6.04025e-06 -2.15353e-05 6.96418e-07)
(4.66266e-06 -2.08902e-05 7.57382e-07)
(2.93655e-06 -2.04033e-05 8.01862e-07)
(9.83787e-07 -2.01401e-05 8.2522e-07)
(-1.04751e-06 -2.01357e-05 8.25286e-07)
(-3.00071e-06 -2.03898e-05 8.02046e-07)
(-4.72769e-06 -2.08672e-05 7.57695e-07)
(-6.10637e-06 -2.15025e-05 6.96903e-07)
(-7.05443e-06 -2.22083e-05 6.25755e-07)
(-7.53469e-06 -2.28849e-05 5.50683e-07)
(-7.55333e-06 -2.34281e-05 4.77532e-07)
(-7.1536e-06 -2.37331e-05 4.10941e-07)
(-6.40597e-06 -2.36945e-05 3.54032e-07)
(-5.39949e-06 -2.32011e-05 3.08229e-07)
(-4.23307e-06 -2.21244e-05 2.73138e-07)
(-3.0108e-06 -2.02948e-05 2.46245e-07)
(-1.83439e-06 -1.74545e-05 2.20633e-07)
(-8.22747e-07 -1.3134e-05 1.83126e-07)
(-9.65435e-08 -6.2661e-06 9.68445e-08)
(9.5608e-08 -7.20647e-06 9.58251e-08)
(8.0939e-07 -1.50645e-05 1.80943e-07)
(1.8037e-06 -2.0001e-05 2.18475e-07)
(2.96388e-06 -2.32645e-05 2.45529e-07)
(4.17607e-06 -2.54042e-05 2.75361e-07)
(5.34153e-06 -2.67192e-05 3.15016e-07)
(6.3574e-06 -2.74013e-05 3.67122e-07)
(7.12366e-06 -2.75918e-05 4.32106e-07)
(7.54772e-06 -2.74081e-05 5.08423e-07)
(7.55346e-06 -2.69586e-05 5.92644e-07)
(7.09109e-06 -2.63502e-05 6.79553e-07)
(6.14817e-06 -2.56895e-05 7.62389e-07)
(4.75809e-06 -2.508e-05 8.33514e-07)
(3.00297e-06 -2.4613e-05 8.85636e-07)
(1.00896e-06 -2.43585e-05 9.13071e-07)
(-1.068e-06 -2.43545e-05 9.13098e-07)
(-3.062e-06 -2.46009e-05 8.85726e-07)
(-4.81711e-06 -2.50596e-05 8.33674e-07)
(-6.20702e-06 -2.56605e-05 7.62643e-07)
(-7.14952e-06 -2.63121e-05 6.79956e-07)
(-7.61122e-06 -2.69113e-05 5.93235e-07)
(-7.60428e-06 -2.73514e-05 5.09216e-07)
(-7.17817e-06 -2.7526e-05 4.33186e-07)
(-6.40852e-06 -2.7327e-05 3.68497e-07)
(-5.38757e-06 -2.66381e-05 3.16709e-07)
(-4.21501e-06 -2.53193e-05 2.77337e-07)
(-2.99389e-06 -2.31808e-05 2.4773e-07)
(-1.82325e-06 -1.99254e-05 2.20768e-07)
(-8.18621e-07 -1.50068e-05 1.83051e-07)
(-9.66857e-08 -7.17956e-06 9.70383e-08)
(9.28144e-08 -8.09366e-06 9.30691e-08)
(7.79323e-07 -1.68792e-05 1.75275e-07)
(1.73392e-06 -2.23989e-05 2.11859e-07)
(2.85016e-06 -2.60794e-05 2.39525e-07)
(4.02163e-06 -2.85462e-05 2.7147e-07)
(5.15633e-06 -3.0136e-05 3.14796e-07)
(6.15628e-06 -3.10595e-05 3.72223e-07)
(6.92406e-06 -3.1467e-05 4.44405e-07)
(7.36668e-06 -3.14778e-05 5.29897e-07)
(7.4042e-06 -3.11987e-05 6.25101e-07)
(6.98094e-06 -3.07339e-05 7.24271e-07)
(6.07701e-06 -3.01877e-05 8.19713e-07)
(4.71929e-06 -2.96621e-05 9.02426e-07)
(2.98651e-06 -2.92494e-05 9.63631e-07)
(1.00591e-06 -2.90213e-05 9.96086e-07)
(-1.06113e-06 -2.90178e-05 9.96085e-07)
(-3.04137e-06 -2.92386e-05 9.63638e-07)
(-4.77343e-06 -2.9644e-05 9.02452e-07)
(-6.13005e-06 -3.01622e-05 8.19773e-07)
(-7.03256e-06 -3.0701e-05 7.24427e-07)
(-7.45397e-06 -3.11584e-05 6.25454e-07)
(-7.41395e-06 -3.14302e-05 5.30413e-07)
(-6.96825e-06 -3.14128e-05 4.45119e-07)
(-6.19646e-06 -3.09996e-05 3.73118e-07)
(-5.19135e-06 -3.00719e-05 3.15873e-07)
(-4.05034e-06 -2.84807e-05 2.72727e-07)
(-2.87151e-06 -2.60164e-05 2.40934e-07)
(-1.74732e-06 -2.23432e-05 2.1332e-07)
(-7.85333e-07 -1.68375e-05 1.76586e-07)
(-9.34348e-08 -8.0748e-06 9.38321e-08)
(8.55118e-08 -8.92912e-06 8.57777e-08)
(7.11874e-07 -1.85828e-05 1.61108e-07)
(1.58201e-06 -2.46526e-05 1.95111e-07)
(2.60316e-06 -2.87384e-05 2.22373e-07)
(3.68206e-06 -3.15393e-05 2.554e-07)
(4.73763e-06 -3.34286e-05 3.01089e-07)
(5.68142e-06 -3.46348e-05 3.62369e-07)
(6.42265e-06 -3.53142e-05 4.4011e-07)
(6.87145e-06 -3.55854e-05 5.33037e-07)
(6.94658e-06 -3.55499e-05 6.37686e-07)
(6.58704e-06 -3.53037e-05 7.48011e-07)
(5.76461e-06 -3.49426e-05 8.55614e-07)
(4.49711e-06 -3.45614e-05 9.50137e-07)
(2.85575e-06 -3.42472e-05 1.02101e-06)
(9.63819e-07 -3.4069e-05 1.05899e-06)
(-1.01615e-06 -3.40658e-05 1.05896e-06)
(-2.90743e-06 -3.42375e-05 1.02094e-06)
(-4.54756e-06 -3.45453e-05 9.50044e-07)
(-5.8132e-06 -3.49201e-05 8.55558e-07)
(-6.63328e-06 -3.5275e-05 7.48013e-07)
(-6.99011e-06 -3.55153e-05 6.37783e-07)
(-6.91185e-06 -3.55454e-05 5.3326e-07)
(-6.45938e-06 -3.52695e-05 4.40491e-07)
(-5.71382e-06 -3.45863e-05 3.62912e-07)
(-4.765e-06 -3.33778e-05 3.01782e-07)
(-3.70376e-06 -3.14883e-05 2.56207e-07)
(-2.6187e-06 -2.86901e-05 2.23257e-07)
(-1.59141e-06 -2.46108e-05 1.96042e-07)
(-7.15867e-07 -1.85521e-05 1.61965e-07)
(-8.58566e-08 -8.91551e-06 8.63006e-08)
(7.29683e-08 -9.66802e-06 7.32446e-08)
(6.01388e-07 -2.00848e-05 1.37098e-07)
(1.33552e-06 -2.66438e-05 1.66526e-07)
(2.2022e-06 -3.1104e-05 1.91832e-07)
(3.12716e-06 -3.42322e-05 2.2422e-07)
(4.04501e-06 -3.64354e-05 2.70031e-07)
(4.88192e-06 -3.79572e-05 3.32198e-07)
(5.55873e-06 -3.89582e-05 4.119e-07)
(5.99309e-06 -3.95532e-05 5.08343e-07)
(6.10659e-06 -3.98347e-05 6.18486e-07)
(5.83542e-06 -3.98855e-05 7.36379e-07)
(5.14348e-06 -3.97865e-05 8.53154e-07)
(4.03703e-06 -3.96175e-05 9.57308e-07)
(2.57497e-06 -3.94529e-05 1.03663e-06)
(8.70311e-07 -3.9352e-05 1.07971e-06)
(-9.20403e-07 -3.93491e-05 1.07967e-06)
(-2.62416e-06 -3.94442e-05 1.03655e-06)
(-4.08458e-06 -3.96033e-05 9.5717e-07)
(-5.18869e-06 -3.97667e-05 8.52997e-07)
(-5.87782e-06 -3.98606e-05 7.36264e-07)
(-6.14566e-06 -3.98052e-05 6.18477e-07)
(-6.02844e-06 -3.95196e-05 5.0843e-07)
(-5.58997e-06 -3.8921e-05 4.12078e-07)
(-4.90872e-06 -3.79176e-05 3.32491e-07)
(-4.06699e-06 -3.63946e-05 2.70438e-07)
(-3.14406e-06 -3.4192e-05 2.24729e-07)
(-2.21389e-06 -3.10664e-05 1.92419e-07)
(-1.34232e-06 -2.66119e-05 1.67135e-07)
(-6.04115e-07 -2.00617e-05 1.37688e-07)
(-7.3142e-08 -9.65796e-06 7.36283e-08)
(5.4624e-08 -1.02598e-05 5.48985e-08)
(4.44237e-07 -2.12833e-05 1.022e-07)
(9.86687e-07 -2.82389e-05 1.24682e-07)
(1.63413e-06 -3.3019e-05 1.46031e-07)
(2.33705e-06 -3.64481e-05 1.75226e-07)
(3.05053e-06 -3.8961e-05 2.17597e-07)
(3.72052e-06 -4.08133e-05 2.75976e-07)
(4.2851e-06 -4.2168e-05 3.51792e-07)
(4.67545e-06 -4.3134e-05 4.44758e-07)
(4.82117e-06 -4.37911e-05 5.52392e-07)
(4.65979e-06 -4.42052e-05 6.69351e-07)
(4.14955e-06 -4.4436e-05 7.87123e-07)
(3.28469e-06 -4.45414e-05 8.93819e-07)
(2.10735e-06 -4.4574e-05 9.7623e-07)
(7.12333e-07 -4.45765e-05 1.02154e-06)
(-7.60784e-07 -4.45741e-05 1.02147e-06)
(-2.15481e-06 -4.45665e-05 9.76107e-07)
(-3.33018e-06 -4.4529e-05 8.9362e-07)
(-4.19227e-06 -4.44189e-05 7.86925e-07)
(-4.69924e-06 -4.41838e-05 6.69156e-07)
(-4.85684e-06 -4.37659e-05 5.52258e-07)
(-4.70711e-06 -4.31056e-05 4.44666e-07)
(-4.31245e-06 -4.21371e-05 3.51799e-07)
(-3.74337e-06 -4.07807e-05 2.7609e-07)
(-3.06875e-06 -3.89279e-05 2.1779e-07)
(-2.35063e-06 -3.6416e-05 1.75507e-07)
(-1.64318e-06 -3.29895e-05 1.46383e-07)
(-9.91692e-07 -2.82141e-05 1.25068e-07)
(-4.46096e-07 -2.12656e-05 1.02614e-07)
(-5.46855e-08 -1.02523e-05 5.52092e-08)
(3.03721e-08 -1.06513e-05 3.06729e-08)
(2.40351e-07 -2.2072e-05 5.62729e-08)
(5.35643e-07 -2.92976e-05 6.93243e-08)
(8.99011e-07 -3.43166e-05 8.43673e-08)
(1.31058e-06 -3.79946e-05 1.07239e-07)
(1.75038e-06 -4.07869e-05 1.4175e-07)
(2.18906e-06 -4.29568e-05 1.90206e-07)
(2.58751e-06 -4.46665e-05 2.54192e-07)
(2.89679e-06 -4.60175e-05 3.33952e-07)
(3.06104e-06 -4.70755e-05 4.27869e-07)
(3.02538e-06 -4.78862e-05 5.3163e-07)
(2.74659e-06 -4.84843e-05 6.37788e-07)
(2.20757e-06 -4.89002e-05 7.35346e-07)
(1.43025e-06 -4.91594e-05 8.11687e-07)
(4.81809e-07 -4.92821e-05 8.54076e-07)
(-5.28966e-07 -4.92802e-05 8.54013e-07)
(-1.47625e-06 -4.91532e-05 8.11555e-07)
(-2.25138e-06 -4.88894e-05 7.35107e-07)
(-2.7874e-06 -4.84696e-05 6.375e-07)
(-3.06269e-06 -4.78678e-05 5.31309e-07)
(-3.09431e-06 -4.70539e-05 4.27631e-07)
(-2.92578e-06 -4.59933e-05 3.33754e-07)
(-2.61206e-06 -4.46405e-05 2.54092e-07)
(-2.20909e-06 -4.29298e-05 1.90188e-07)
(-1.76593e-06 -4.07598e-05 1.41785e-07)
(-1.32182e-06 -3.79687e-05 1.07363e-07)
(-9.06265e-07 -3.42931e-05 8.45602e-08)
(-5.39474e-07 -2.9278e-05 6.9609e-08)
(-2.41663e-07 -2.20582e-05 5.65828e-08)
(-3.0379e-08 -1.06455e-05 3.09325e-08)
(7.78157e-10 -1.07921e-05 1.04986e-09)
(-5.20743e-09 -2.23504e-05 2.49871e-10)
(-6.31855e-09 -2.96864e-05 1.49222e-09)
(1.48239e-08 -3.48354e-05 7.78355e-09)
(7.21648e-08 -3.86825e-05 2.09634e-08)
(1.73751e-07 -4.16923e-05 4.26718e-08)
(3.19457e-07 -4.4131e-05 7.45444e-08)
(4.98217e-07 -4.61571e-05 1.17886e-07)
(6.87007e-07 -4.78625e-05 1.73314e-07)
(8.51655e-07 -4.92979e-05 2.40244e-07)
(9.51361e-07 -5.04882e-05 3.15743e-07)
(9.46804e-07 -5.1443e-05 3.94624e-07)
(8.11951e-07 -5.21634e-05 4.68327e-07)
(5.45684e-07 -5.26465e-05 5.26838e-07)
(1.79041e-07 -5.28884e-05 5.59688e-07)
(-2.25065e-07 -5.28866e-05 5.59612e-07)
(-5.90409e-07 -5.26407e-05 5.26648e-07)
(-8.54414e-07 -5.21538e-05 4.68008e-07)
(-9.86136e-07 -5.14301e-05 3.94262e-07)
(-9.86874e-07 -5.04721e-05 3.15365e-07)
(-8.82997e-07 -4.92792e-05 2.39879e-07)
(-7.1399e-07 -4.78417e-05 1.73011e-07)
(-5.20719e-07 -4.61351e-05 1.17627e-07)
(-3.37491e-07 -4.41084e-05 7.43872e-08)
(-1.87443e-07 -4.16698e-05 4.25965e-08)
(-8.18001e-08 -3.86613e-05 2.09332e-08)
(-2.08613e-08 -3.48163e-05 7.85295e-09)
(3.29285e-09 -2.96708e-05 1.65593e-09)
(4.31016e-09 -2.23395e-05 4.79316e-10)
(-7.1574e-10 -1.07875e-05 1.28934e-09)
(-3.30102e-08 -1.06397e-05 -3.27291e-08)
(-2.81841e-07 -2.20349e-05 -6.34691e-08)
(-6.15297e-07 -2.92947e-05 -7.58978e-08)
(-9.79412e-07 -3.44402e-05 -8.05162e-08)
(-1.32404e-06 -3.83503e-05 -8.00646e-08)
(-1.61091e-06 -4.14853e-05 -7.54717e-08)
(-1.80788e-06 -4.41074e-05 -6.62091e-08)
(-1.89361e-06 -4.6368e-05 -5.14315e-08)
(-1.85984e-06 -4.83486e-05 -3.02431e-08)
(-1.71328e-06 -5.0086e-05 -2.18499e-09)
(-1.47419e-06 -5.15856e-05 3.19083e-08)
(-1.17282e-06 -5.28338e-05 6.98164e-08)
(-8.41712e-07 -5.38061e-05 1.06868e-07)
(-5.07259e-07 -5.44751e-05 1.3736e-07)
(-1.8219e-07 -5.48161e-05 1.54883e-07)
(1.37563e-07 -5.48143e-05 1.54776e-07)
(4.63889e-07 -5.44697e-05 1.3712e-07)
(8.0068e-07 -5.37974e-05 1.06519e-07)
(1.13497e-06 -5.28219e-05 6.93909e-08)
(1.44012e-06 -5.1571e-05 3.1484e-08)
(1.6834e-06 -5.00694e-05 -2.6096e-09)
(1.83437e-06 -4.83305e-05 -3.06135e-08)
(1.87261e-06 -4.6349e-05 -5.17548e-08)
(1.79125e-06 -4.40882e-05 -6.64472e-08)
(1.59848e-06 -4.14665e-05 -7.56215e-08)
(1.31549e-06 -3.83326e-05 -8.01392e-08)
(9.74254e-07 -3.44247e-05 -8.0502e-08)
(6.12848e-07 -2.92821e-05 -7.5801e-08)
(2.81188e-07 -2.20261e-05 -6.3281e-08)
(3.30963e-08 -1.0636e-05 -3.25132e-08)
(-6.88954e-08 -1.01672e-05 -6.86482e-08)
(-5.72969e-07 -2.10732e-05 -1.31193e-07)
(-1.2552e-06 -2.80529e-05 -1.5838e-07)
(-2.02515e-06 -3.30439e-05 -1.75247e-07)
(-2.79612e-06 -3.689e-05 -1.8959e-07)
(-3.49894e-06 -4.00331e-05 -2.05225e-07)
(-4.06775e-06 -4.27229e-05 -2.22991e-07)
(-4.44635e-06 -4.5101e-05 -2.42528e-07)
(-4.59162e-06 -4.72387e-05 -2.62645e-07)
(-4.47822e-06 -4.91594e-05 -2.81801e-07)
(-4.10148e-06 -5.08533e-05 -2.98421e-07)
(-3.47892e-06 -5.22897e-05 -3.11184e-07)
(-2.64771e-06 -5.34253e-05 -3.197e-07)
(-1.66041e-06 -5.42151e-05 -3.24224e-07)
(-5.78387e-07 -5.46206e-05 -3.25896e-07)
(5.35527e-07 -5.46189e-05 -3.25986e-07)
(1.61875e-06 -5.42102e-05 -3.24469e-07)
(2.60823e-06 -5.34175e-05 -3.20082e-07)
(3.44251e-06 -5.2279e-05 -3.11605e-07)
(4.06881e-06 -5.08403e-05 -2.9885e-07)
(4.44969e-06 -4.91446e-05 -2.82261e-07)
(4.56736e-06 -4.72228e-05 -2.63063e-07)
(4.42647e-06 -4.50845e-05 -2.4286e-07)
(4.05218e-06 -4.27064e-05 -2.23292e-07)
(3.4874e-06 -4.00171e-05 -2.05436e-07)
(2.78831e-06 -3.68754e-05 -1.89694e-07)
(2.02057e-06 -3.3031e-05 -1.7528e-07)
(1.2531e-06 -2.80426e-05 -1.58323e-07)
(5.72491e-07 -2.10661e-05 -1.31017e-07)
(6.90135e-08 -1.01642e-05 -6.84294e-08)
(-1.04283e-07 -9.36901e-06 -1.04045e-07)
(-8.57343e-07 -1.94562e-05 -1.97906e-07)
(-1.87956e-06 -2.59477e-05 -2.39771e-07)
(-3.04707e-06 -3.06262e-05 -2.69252e-07)
(-4.2391e-06 -3.42703e-05 -2.9919e-07)
(-5.3568e-06 -3.72891e-05 -3.36287e-07)
(-6.30057e-06 -3.99133e-05 -3.82705e-07)
(-6.97873e-06 -4.22714e-05 -4.38721e-07)
(-7.31206e-06 -4.44241e-05 -5.02845e-07)
(-7.24131e-06 -4.63843e-05 -5.7229e-07)
(-6.73531e-06 -4.81329e-05 -6.42985e-07)
(-5.79684e-06 -4.96286e-05 -7.0963e-07)
(-4.46653e-06 -5.08186e-05 -7.66607e-07)
(-2.82322e-06 -5.16499e-05 -8.08314e-07)
(-9.77968e-07 -5.20777e-05 -8.30362e-07)
(9.37293e-07 -5.20761e-05 -8.30423e-07)
(2.78363e-06 -5.16455e-05 -8.08474e-07)
(4.42908e-06 -5.08114e-05 -7.66873e-07)
(5.7622e-06 -4.96188e-05 -7.0998e-07)
(6.70416e-06 -4.81211e-05 -6.43357e-07)
(7.21402e-06 -4.6371e-05 -5.72665e-07)
(7.28887e-06 -4.44099e-05 -5.03223e-07)
(6.95981e-06 -4.22571e-05 -4.3904e-07)
(6.28578e-06 -3.98991e-05 -3.82996e-07)
(5.34592e-06 -3.72755e-05 -3.36518e-07)
(4.23182e-06 -3.42581e-05 -2.99355e-07)
(3.04285e-06 -3.06157e-05 -2.69329e-07)
(1.87765e-06 -2.59393e-05 -2.39744e-07)
(8.56934e-07 -1.94504e-05 -1.97748e-07)
(1.04401e-07 -9.36665e-06 -1.03835e-07)
(-1.35959e-07 -8.26543e-06 -1.35747e-07)
(-1.10977e-06 -1.72263e-05 -2.57605e-07)
(-2.43461e-06 -2.30337e-05 -3.12763e-07)
(-3.95968e-06 -2.72473e-05 -3.53927e-07)
(-5.53496e-06 -3.05532e-05 -3.98588e-07)
(-7.03482e-06 -3.33143e-05 -4.56177e-07)
(-8.32818e-06 -3.57364e-05 -5.30031e-07)
(-9.2892e-06 -3.79327e-05 -6.20917e-07)
(-9.80371e-06 -3.99541e-05 -7.27145e-07)
(-9.7802e-06 -4.18075e-05 -8.44573e-07)
(-9.16123e-06 -4.34687e-05 -9.66579e-07)
(-7.93532e-06 -4.48939e-05 -1.08416e-06)
(-6.14642e-06 -4.60298e-05 -1.18677e-06)
(-3.89787e-06 -4.68232e-05 -1.26326e-06)
(-1.34714e-06 -4.72315e-05 -1.30424e-06)
(1.30935e-06 -4.723e-05 -1.30428e-06)
(3.86094e-06 -4.68189e-05 -1.26342e-06)
(6.11125e-06 -4.6023e-05 -1.18698e-06)
(7.90265e-06 -4.4885e-05 -1.08443e-06)
(9.13171e-06 -4.34582e-05 -9.669e-07)
(9.75422e-06 -4.17958e-05 -8.44899e-07)
(9.78164e-06 -3.99419e-05 -7.27471e-07)
(9.27112e-06 -3.79204e-05 -6.2124e-07)
(8.31401e-06 -3.57243e-05 -5.30315e-07)
(7.02444e-06 -3.3303e-05 -4.56412e-07)
(5.52801e-06 -3.05431e-05 -3.98766e-07)
(3.95565e-06 -2.72388e-05 -3.5398e-07)
(2.4329e-06 -2.3027e-05 -3.12734e-07)
(1.10945e-06 -1.72217e-05 -2.57465e-07)
(1.36087e-07 -8.26358e-06 -1.35541e-07)
(-1.60328e-07 -6.90651e-06 -1.60142e-07)
(-1.30321e-06 -1.44845e-05 -3.03466e-07)
(-2.86354e-06 -1.94417e-05 -3.6878e-07)
(-4.67356e-06 -2.3057e-05 -4.19117e-07)
(-6.56189e-06 -2.5902e-05 -4.75818e-07)
(-8.38038e-06 -2.8284e-05 -5.50501e-07)
(-9.97035e-06 -3.03797e-05 -6.47615e-07)
(-1.11755e-05 -3.22862e-05 -7.68303e-07)
(-1.18506e-05 -3.4046e-05 -9.10424e-07)
(-1.18751e-05 -3.56625e-05 -1.06855e-06)
(-1.1169e-05 -3.71123e-05 -1.23387e-06)
(-9.70864e-06 -3.83551e-05 -1.39409e-06)
(-7.54087e-06 -3.93437e-05 -1.5345e-06)
(-4.79002e-06 -4.0033e-05 -1.63958e-06)
(-1.65328e-06 -4.03868e-05 -1.69609e-06)
(1.61874e-06 -4.03855e-05 -1.6961e-06)
(4.75616e-06 -4.00292e-05 -1.63966e-06)
(7.50847e-06 -3.93378e-05 -1.53461e-06)
(9.67835e-06 -3.83472e-05 -1.39426e-06)
(1.11414e-05 -3.71031e-05 -1.23407e-06)
(1.18507e-05 -3.56525e-05 -1.06878e-06)
(1.18297e-05 -3.40356e-05 -9.10681e-07)
(1.11583e-05 -3.22758e-05 -7.68559e-07)
(9.95684e-06 -3.03697e-05 -6.47844e-07)
(8.37049e-06 -2.82747e-05 -5.50693e-07)
(6.55527e-06 -2.58937e-05 -4.75996e-07)
(4.66973e-06 -2.30501e-05 -4.19194e-07)
(2.86189e-06 -1.94364e-05 -3.68762e-07)
(1.30289e-06 -1.4481e-05 -3.03334e-07)
(1.60448e-07 -6.90516e-06 -1.59947e-07)
(-1.73425e-07 -5.37408e-06 -1.7326e-07)
(-1.40948e-06 -1.13923e-05 -3.2785e-07)
(-3.10969e-06 -1.5379e-05 -3.9813e-07)
(-5.10223e-06 -1.82943e-05 -4.53148e-07)
(-7.20429e-06 -2.05823e-05 -5.16994e-07)
(-9.25049e-06 -2.24895e-05 -6.02895e-07)
(-1.10599e-05 -2.41614e-05 -7.16193e-07)
(-1.24513e-05 -2.56786e-05 -8.58185e-07)
(-1.32548e-05 -2.7077e-05 -1.02631e-06)
(-1.33269e-05 -2.83591e-05 -1.21402e-06)
(-1.25701e-05 -2.95059e-05 -1.41069e-06)
(-1.09515e-05 -3.04855e-05 -1.60155e-06)
(-8.52062e-06 -3.12617e-05 -1.76892e-06)
(-5.41752e-06 -3.18006e-05 -1.89419e-06)
(-1.86833e-06 -3.20765e-05 -1.96152e-06)
(1.8375e-06 -3.20755e-05 -1.96151e-06)
(5.38719e-06 -3.17975e-05 -1.89419e-06)
(8.4914e-06 -3.12569e-05 -1.76896e-06)