/*--------------------------------*- C++ -*----------------------------------*\
| =========                 |                                                 |
| \\      /  F ield         | OpenFOAM: The Open Source CFD Toolbox           |
|  \\    /   O peration     | Version:  v1906                                 |
|   \\  /    A nd           | Web:      www.OpenFOAM.com                      |
|    \\/     M anipulation  |                                                 |
\*---------------------------------------------------------------------------*/
FoamFile
{
    version     2.0;
    format      ascii;
    class       volScalarField;
    location    "99";
    object      T;
}
// * * * * * * * * * * * * * * * * * * * * * * * * * * * * * * * * * * * * * //

dimensions      [0 0 0 1 0 0 0];


internalField   nonuniform List<scalar> 
78750
(
308.913
308.759
308.481
308.278
307.992
307.752
307.347
307.063
306.592
306.346
305.834
305.698
305.133
305.166
304.533
304.74
304.035
304.348
303.639
303.916
303.391
303.374
303.372
302.676
303.693
301.849
304.476
301.024
306.057
301.4
309.928
301.777
312.392
295.525
311.74
303.967
300.734
302.717
303.852
304.586
305.082
305.342
305.452
305.465
305.433
305.45
305.594
305.999
306.577
307.162
307.587
307.777
307.672
307.337
306.84
306.192
305.479
304.679
303.73
302.647
301.518
300.347
297.221
290.74
286.275
294.177
300.726
314.366
322.464
343.052
301.464
300.621
303.078
305.671
306.873
307.322
307.303
306.897
306.187
305.555
305.486
306.386
308.902
312.049
314.588
316.339
317.485
317.72
317.265
316.445
315.454
314.443
313.59
313.097
313.232
314.067
315.252
316.537
317.497
318.787
321.982
325.191
334.825
338.311
373.396
300.103
300.205
302.432
305.358
306.975
306.957
305.794
303.662
301.217
300.603
302.638
309.701
326.549
342.911
347.879
343.882
339.547
334.791
328.253
321.216
315.383
310.593
305.289
299.334
293.714
290.354
292.07
298.78
306.939
313.145
314.905
313.286
313.605
320.493
361.378
301.64
304.551
306.38
306.665
306.612
306.554
305.907
303.855
300.791
299.473
302.134
309.929
319.409
324.132
324.251
323.773
324.157
325.028
326.332
328.285
331.298
335.472
339.207
336.052
321.049
299.517
283.427
278.901
282.575
289.28
295.566
301.571
309.565
323.462
359.123
300.45
300.695
300.708
301.027
303.373
307.041
310.025
313.438
319.162
325.872
325.5
318.038
308.026
300.525
297.864
296.915
296.842
298.015
300.944
305.608
311.803
319.01
325.24
326.979
322.065
312.8
304.394
300.741
301.436
304.443
309.274
317.19
329.862
349.54
381.578
299.589
299.398
299.611
300.587
302.448
304.622
306.775
308.17
308.459
308.212
308.007
308.029
308.41
309.229
310.114
310.602
310.289
308.972
306.918
304.744
303.023
302.109
302.271
303.561
305.546
307.365
308.516
309.713
312.09
316.429
322.721
329.267
336.643
349.256
380.622
301.021
303.841
307.398
311.625
314.162
315.243
315.79
315.994
315.821
315.312
314.605
313.81
312.964
312.065
311.121
310.168
309.254
308.407
307.605
306.795
305.94
305.041
304.13
303.264
302.515
301.948
301.626
301.642
302.246
304.212
309.642
318.885
332.653
347.836
377.255
302.638
307.476
309.65
310.511
311.03
311.491
311.927
312.352
312.751
313.077
313.282
313.342
313.252
313.024
312.668
312.202
311.634
310.969
310.231
309.449
308.647
307.845
307.054
306.288
305.555
304.86
304.202
303.554
302.823
301.796
300.19
301.52
310.925
325.192
365.52
302.744
307.943
311.299
313.154
314.302
315.143
315.788
316.262
316.563
316.672
316.57
316.277
315.856
315.369
314.824
314.211
313.543
312.833
312.091
311.33
310.565
309.81
309.08
308.393
307.765
307.183
306.632
306.094
305.476
304.388
300.698
293.381
291.09
306.437
362.06
303.879
309.844
312.083
313.242
314.095
314.776
315.298
315.671
315.908
316.025
316.035
315.948
315.772
315.513
315.182
314.79
314.346
313.862
313.344
312.802
312.243
311.676
311.11
310.559
310.038
309.565
309.152
308.792
308.416
307.772
305.077
295.348
292.09
309.794
361.192
304.518
311.104
314.069
315.569
316.58
317.354
317.938
318.345
318.579
318.644
318.556
318.337
318.002
317.57
317.058
316.482
315.859
315.203
314.531
313.857
313.195
312.559
311.961
311.414
310.931
310.523
310.203
309.976
309.795
309.591
308.625
303.607
306.737
323.632
359.179
305.324
312.157
314.728
316.071
317.047
317.818
318.395
318.794
319.03
319.127
319.104
318.981
318.776
318.503
318.175
317.802
317.39
316.948
316.481
315.994
315.496
314.992
314.495
314.016
313.573
313.189
312.888
312.702
312.649
312.876
313.899
315.678
323.382
338.515
367.01
305.853
313.146
316.006
317.516
318.589
319.412
320.015
320.413
320.616
320.649
320.543
320.318
319.995
319.592
319.127
318.617
318.078
317.523
316.964
316.413
315.878
315.37
314.897
314.467
314.09
313.776
313.54
313.399
313.375
313.59
314.749
318.873
330.358
345.465
371.369
306.34
313.803
316.681
318.238
319.379
320.276
320.957
321.433
321.72
321.849
321.848
321.737
321.535
321.259
320.92
320.533
320.106
319.65
319.174
318.686
318.197
317.714
317.251
316.817
316.426
316.094
315.838
315.678
315.638
315.787
316.538
319.69
329.966
347.38
376.885
306.606
314.253
317.234
318.858
320.057
320.997
321.702
322.176
322.431
322.498
322.423
322.243
321.975
321.639
321.25
320.823
320.372
319.907
319.44
318.98
318.534
318.112
317.72
317.368
317.063
316.817
316.639
316.544
316.545
316.681
317.205
319.442
327.703
346.152
379.451
306.854
314.78
317.933
319.68
321.002
322.078
322.925
323.537
323.917
324.091
324.102
323.997
323.8
323.526
323.19
322.803
322.379
321.929
321.464
320.994
320.529
320.081
319.66
319.277
318.946
318.679
318.492
318.404
318.433
318.63
319.284
321.91
330.758
348.881
381.373
307.009
315.008
318.167
319.93
321.271
322.351
323.181
323.755
324.086
324.21
324.177
324.039
323.824
323.544
323.215
322.849
322.46
322.057
321.65
321.248
320.861
320.495
320.161
319.867
319.623
319.442
319.335
319.318
319.407
319.647
320.314
322.917
331.838
350.236
382.582
307.392
315.916
319.295
321.192
322.66
323.873
324.832
325.517
325.928
326.098
326.083
325.948
325.73
325.44
325.094
324.706
324.287
323.849
323.404
322.962
322.533
322.128
321.758
321.433
321.168
320.975
320.871
320.872
320.999
321.324
322.268
325.795
336.151
354.118
383.976
307.627
316.137
319.458
321.344
322.811
324.001
324.912
325.534
325.886
326.02
325.994
325.866
325.668
325.412
325.111
324.777
324.422
324.055
323.685
323.322
322.975
322.652
322.362
322.117
321.927
321.805
321.765
321.824
321.999
322.37
323.395
327.099
337.907
356.078
384.947
308.243
317.425
321.006
323.045
324.647
325.961
326.969
327.642
327.996
328.091
328.006
327.812
327.549
327.227
326.86
326.461
326.043
325.616
325.191
324.778
324.386
324.026
323.707
323.442
323.241
323.121
323.096
323.185
323.406
323.889
325.327
330.157
342.28
359.559
385.711
308.468
317.388
320.871
322.895
324.502
325.81
326.801
327.459
327.818
327.946
327.914
327.783
327.586
327.334
327.039
326.715
326.371
326.018
325.667
325.325
325.001
324.706
324.449
324.241
324.094
324.022
324.04
324.167
324.422
324.952
326.53
331.695
344.508
361.485
386.15
309.054
318.676
322.466
324.673
326.428
327.857
328.921
329.588
329.897
329.936
329.805
329.582
329.298
328.962
328.588
328.191
327.782
327.371
326.969
326.585
326.228
325.907
325.632
325.415
325.267
325.202
325.236
325.387
325.697
326.386
328.442
334.644
348.508
364.17
386.125
309.242
318.515
322.173
324.342
326.094
327.527
328.606
329.312
329.691
329.826
329.799
329.675
329.485
329.238
328.949
328.631
328.295
327.952
327.612
327.285
326.98
326.708
326.477
326.299
326.187
326.153
326.212
326.382
326.712
327.449
329.624
336.167
350.778
365.659
385.884
309.886
319.965
323.939
326.282
328.156
329.659
330.729
331.349
331.596
331.589
331.435
331.208
330.93
330.607
330.251
329.876
329.493
329.111
328.74
328.39
328.069
327.788
327.555
327.382
327.279
327.261
327.341
327.536
327.914
328.801
331.362
338.561
353.655
367.259
385.404
310.249
320.084
323.935
326.239
328.118
329.634
330.716
331.364
331.668
331.739
331.668
331.517
331.313
331.062
330.774
330.461
330.134
329.804
329.481
329.174
328.893
328.647
328.448
328.307
328.236
328.247
328.354
328.574
328.99
329.983
332.809
340.52
356.002
368.497
384.951
310.947
321.485
325.599
328.06
330.067
331.649
332.688
333.203
333.338
333.251
333.051
332.803
332.523
332.209
331.87
331.519
331.163
330.812
330.475
330.16
329.877
329.635
329.445
329.317
329.264
329.298
329.435
329.697
330.208
331.46
334.892
343.371
358.63
370.041
385.139
311.113
321.346
325.369
327.835
329.921
331.629
332.799
333.431
333.669
333.669
333.537
333.341
333.108
332.841
332.546
332.233
331.913
331.594
331.286
330.998
330.741
330.523
330.355
330.249
330.217
330.274
330.433
330.728
331.319
332.775
336.672
345.772
360.719
371.492
385.863
311.283
321.89
326.122
328.737
330.98
332.83
334.068
334.688
334.873
334.809
334.623
334.384
334.118
333.825
333.509
333.18
332.849
332.524
332.214
331.928
331.675
331.465
331.308
331.216
331.2
331.275
331.454
331.789
332.493
334.238
338.704
348.342
362.625
373.052
387.191
310.922
321.312
325.593
328.277
330.634
332.66
334.111
334.931
335.272
335.322
335.212
335.025
334.804
334.553
334.273
333.974
333.669
333.366
333.076
332.807
332.571
332.376
332.233
332.155
332.152
332.239
332.429
332.784
333.55
335.442
340.185
350.127
364.046
374.349
388.392
310.86
321.675
326.219
329.056
331.514
333.577
335.013
335.798
336.111
336.144
336.031
335.846
335.63
335.386
335.114
334.825
334.529
334.236
333.956
333.699
333.474
333.291
333.162
333.098
333.111
333.214
333.426
333.827
334.703
336.836
341.936
352.041
365.376
375.58
389.64
310.883
321.931
326.61
329.528
332.045
334.136
335.588
336.397
336.74
336.804
336.715
336.551
336.353
336.132
335.888
335.624
335.351
335.078
334.816
334.574
334.363
334.193
334.076
334.023
334.048
334.164
334.394
334.835
335.801
338.121
343.484
353.674
366.507
376.617
390.675
311.439
322.919
327.691
330.677
333.247
335.302
336.632
337.312
337.565
337.58
337.471
337.301
337.105
336.893
336.66
336.412
336.155
335.899
335.654
335.428
335.232
335.077
334.974
334.935
334.975
335.106
335.363
335.87
336.99
339.619
345.391
355.658
367.741
377.672
391.792
311.895
323.453
328.181
331.165
333.797
335.955
337.376
338.109
338.383
338.4
338.283
338.103
337.898
337.686
337.463
337.226
336.982
336.739
336.506
336.292
336.107
335.961
335.866
335.835
335.881
336.018
336.288
336.837
338.054
340.876
346.926
357.276
368.807
378.579
392.729
312.197
323.719
328.413
331.412
334.118
336.394
337.929
338.744
339.071
339.122
339.029
338.864
338.668
338.463
338.248
338.022
337.79
337.56
337.34
337.139
336.965
336.83
336.744
336.72
336.77
336.913
337.199
337.792
339.108
342.108
348.391
358.782
369.779
379.377
393.558
312.01
323.442
328.166
331.172
333.929
336.412
338.238
339.291
339.763
339.891
339.834
339.685
339.494
339.289
339.079
338.862
338.638
338.416
338.204
338.009
337.842
337.712
337.63
337.608
337.658
337.8
338.092
338.698
340.029
343.034
349.312
359.675
370.426
379.937
394.089
311.635
322.903
327.701
330.751
333.539
336.16
338.251
339.57
340.232
340.478
340.495
340.394
340.235
340.053
339.862
339.661
339.452
339.242
339.041
338.857
338.7
338.578
338.504
338.487
338.542
338.69
339
339.643
341.037
344.112
350.382
360.564
370.952
380.33
394.478
311.249
322.49
327.399
330.481
333.252
335.946
338.288
339.915
340.801
341.171
341.248
341.176
341.032
340.859
340.677
340.489
340.29
340.091
339.899
339.722
339.571
339.454
339.383
339.369
339.425
339.574
339.891
340.55
341.968
345.057
351.272
361.255
371.315
380.567
394.723
310.926
322.253
327.355
330.537
333.319
335.975
338.355
340.14
341.207
341.706
341.864
341.841
341.731
341.583
341.422
341.253
341.074
340.892
340.716
340.553
340.414
340.308
340.246
340.24
340.304
340.467
340.811
341.525
343.042
346.257
352.498
362.199
371.732
380.771
395.006
311.022
322.943
328.367
331.712
334.559
337.14
339.343
340.994
342.018
342.515
342.671
342.644
342.53
342.38
342.221
342.058
341.89
341.718
341.552
341.399
341.267
341.168
341.11
341.107
341.172
341.339
341.694
342.433
344.003
347.307
353.607
363.112
372.167
380.982
395.286
311.41
324.157
329.971
333.588
336.651
339.21
341.08
342.293
342.996
343.324
343.409
343.359
343.241
343.097
342.948
342.799
342.648
342.495
342.347
342.211
342.097
342.012
341.967
341.973
342.047
342.227
342.606
343.388
345.029
348.421
354.74
363.992
372.553
381.133
395.546
312.627
326.308
332.374
336.274
339.689
342.299
343.803
344.46
344.657
344.635
344.509
344.335
344.146
343.956
343.779
343.616
343.462
343.312
343.171
343.044
342.939
342.863
342.825
342.835
342.913
343.1
343.49
344.29
345.96
349.397
355.736
364.803
372.965
381.329
395.81
313.959
327.879
333.988
338.185
342.047
344.699
345.866
346.119
345.992
345.748
345.483
345.228
344.99
344.773
344.576
344.402
344.247
344.107
343.979
343.867
343.777
343.715
343.689
343.71
343.8
344.002
344.41
345.227
346.905
350.32
356.582
365.447
373.305
381.501
396.025
315.409
329.2
335.241
339.686
343.976
346.715
347.714
347.784
347.504
347.122
346.731
346.368
346.042
345.754
345.503
345.287
345.102
344.946
344.814
344.707
344.624
344.571
344.555
344.589
344.696
344.923
345.362
346.218
347.931
351.333
357.464
366.035
373.563
381.588
396.187
315.617
328.823
334.652
339.12
343.675
346.777
348.085
348.398
348.299
348.032
347.702
347.356
347.022
346.713
346.435
346.191
345.982
345.807
345.664
345.553
345.472
345.425
345.418
345.466
345.593
345.848
346.332
347.257
349.07
352.572
358.684
366.962
374.095
381.891
396.544
315.176
328.199
333.814
338.055
342.693
346.508
348.504
349.188
349.26
349.073
348.777
348.437
348.089
347.753
347.44
347.159
346.916
346.711
346.546
346.42
346.333
346.285
346.285
346.346
346.494
346.781
347.31
348.302
350.199
353.772
359.835
367.792
374.537
382.091
396.788
313.873
326.663
332.216
336.18
340.563
344.923
347.842
349.199
349.65
349.686
349.535
349.294
349.009
348.707
348.406
348.119
347.857
347.629
347.44
347.293
347.191
347.136
347.136
347.204
347.371
347.693
348.285
349.383
351.439
355.176
361.247
368.85
375.182
382.483
397.228
313.52
326.836
332.626
336.563
340.719
344.99
348.133
349.741
350.328
350.431
350.327
350.126
349.879
349.609
349.331
349.055
348.791
348.551
348.343
348.178
348.059
347.993
347.989
348.061
348.241
348.591
349.235
350.424
352.627
356.531
362.613
369.871
375.839
382.885
397.577
313.62
327.31
333.129
337.07
341.287
345.569
348.676
350.309
350.942
351.088
351.022
350.861
350.653
350.421
350.176
349.926
349.678
349.442
349.227
349.046
348.911
348.83
348.814
348.882
349.064
349.425
350.091
351.321
353.588
357.569
363.643
370.641
376.356
383.239
397.897
314.424
328.221
333.817
337.639
341.918
346.449
349.626
351.183
351.748
351.861
351.785
351.627
351.432
351.218
350.994
350.767
350.539
350.316
350.106
349.922
349.779
349.69
349.67
349.742
349.943
350.347
351.095
352.461
354.918
359.059
365.072
371.696
377.125
383.828
398.358
314.187
327.046
332.388
336.047
340.227
345.285
349.335
351.441
352.248
352.466
352.446
352.326
352.161
351.974
351.775
351.572
351.365
351.159
350.958
350.774
350.62
350.512
350.468
350.509
350.672
351.027
351.711
353.009
355.431
359.613
365.661
372.168
377.47
384.041
398.434
313.324
325.53
331.029
334.683
338.556
343.514
348.313
351.222
352.464
352.879
352.962
352.912
352.8
352.658
352.5
352.332
352.157
351.981
351.808
351.646
351.508
351.413
351.382
351.442
351.63
352.014
352.718
353.997
356.324
360.354
366.261
372.627
377.855
384.4
398.731
312.329
324.891
331.015
334.88
338.512
342.798
347.472
350.887
352.529
353.135
353.32
353.345
353.3
353.22
353.114
352.988
352.85
352.706
352.563
352.423
352.294
352.198
352.16
352.215
352.412
352.831
353.619
355.04
357.524
361.592
367.301
373.333
378.377
384.82
399.022
312.298
326.62
333.659
337.906
341.563
345.095
348.438
351.307
352.894
353.508
353.713
353.77
353.768
353.733
353.675
353.598
353.508
353.411
353.313
353.219
353.131
353.063
353.04
353.094
353.271
353.65
354.378
355.73
358.174
362.236
367.877
373.733
378.648
384.993
399.1
313.654
329.806
337.274
341.887
346.051
349.546
351.429
352.778
353.669
354.033
354.163
354.208
354.219
354.207
354.178
354.135
354.08
354.019
353.957
353.899
353.851
353.826
353.85
353.961
354.213
354.688
355.527
356.979
359.452
363.427
368.838
374.375
379.136
385.448
399.5
316.357
332.982
340.062
344.774
349.482
353.368
354.717
354.713
354.735
354.757
354.767
354.771
354.77
354.765
354.753
354.735
354.71
354.68
354.647
354.615
354.59
354.583
354.621
354.744
355.017
355.547
356.508
358.166
360.864
364.896
370.048
375.178
379.715
385.914
399.811
318.661
334.509
340.966
345.417
349.99
354.152
356.242
356.136
355.708
355.491
355.393
355.346
355.323
355.313
355.308
355.307
355.306
355.305
355.305
355.309
355.32
355.35
355.416
355.552
355.816
356.312
357.227
358.87
361.633
365.752
370.835
375.753
380.141
386.225
399.954
318.814
333.881
339.911
343.897
347.812
351.969
355.589
357.018
356.789
356.384
356.143
356.017
355.953
355.924
355.913
355.915
355.925
355.94
355.962
355.993
356.038
356.11
356.227
356.421
356.746
357.295
358.235
359.854
362.552
366.587
371.537
376.28
380.568
386.592
400.198
317.367
332.058
338.104
341.977
345.518
349.184
353.15
356.444
357.579
357.327
356.911
356.658
356.53
356.473
356.456
356.462
356.484
356.516
356.556
356.607
356.671
356.761
356.894
357.105
357.453
358.037
359.027
360.693
363.388
367.329
372.104
376.669
380.852
386.794
400.311
316.573
331.127
337.19
341.135
344.796
348.32
351.691
355.014
357.578
358.324
357.958
357.495
357.22
357.088
357.036
357.03
357.055
357.101
357.165
357.247
357.349
357.476
357.642
357.874
358.224
358.787
359.74
361.367
364.025
367.904
372.564
377.01
381.122
387.009
400.441
316.024
330.472
336.421
340.228
343.86
347.587
351.021
353.938
356.566
358.496
358.942
358.461
357.95
357.666
357.545
357.511
357.526
357.576
357.655
357.763
357.902
358.079
358.308
358.611
359.03
359.651
360.631
362.244
364.857
368.664
373.205
377.518
381.545
387.366
400.648
315.524
330.014
336.056
339.787
343.285
347.119
350.97
354.062
356.321
358.2
359.55
359.688
359.058
358.494
358.201
358.086
358.062
358.092
358.161
358.267
358.413
358.607
358.862
359.204
359.676
360.359
361.397
363.038
365.615
369.322
373.721
377.9
381.828
387.547
400.711
314.989
329.79
336.218
340.144
343.753
347.726
351.832
355.229
357.473
358.882
359.941
360.578
360.252
359.462
358.911
358.667
358.596
358.611
358.68
358.793
358.952
359.164
359.442
359.808
360.306
361.017
362.085
363.743
366.292
369.889
374.118
378.149
381.989
387.649
400.781
315.432
330.948
337.689
341.85
345.765
350.009
354.164
357.504
359.666
360.839
361.439
361.72
361.534
360.673
359.807
359.346
359.181
359.161
359.219
359.335
359.511
359.753
360.075
360.496
361.058
361.833
362.962
364.672
367.243
370.783
374.854
378.715
382.457
388.071
401.072
316.118
332.627
339.735
344.26
348.677
353.106
356.877
359.672
361.456
362.437
362.904
363.027
362.766
361.936
360.827
360.094
359.785
359.709
359.747
359.858
360.039
360.3
360.659
361.141
361.787
362.666
363.905
365.71
368.331
371.827
375.737
379.409
383.025
388.535
401.321
317.689
335.409
342.829
347.844
352.983
357.388
360.427
362.363
363.488
364.075
364.324
364.316
363.987
363.173
361.956
360.964
360.484
360.328
360.333
360.43
360.608
360.878
361.261
361.791
362.515
363.504
364.875
366.795
369.449
372.834
376.505
379.952
383.441
388.882
401.543
319.973
338.291
345.954
351.539
357.299
361.113
363.104
364.202
364.825
365.162
365.307
365.28
365.02
364.366
363.232
362.036
361.318
361.041
360.994
361.068
361.234
361.498
361.889
362.447
363.236
364.34
365.868
367.954
370.696
373.997
377.427
380.635
383.974
389.308
401.777
322.338
340.313
348.224
354.477
360.759
364.094
365.368
365.904
366.163
366.274
366.276
366.169
365.906
365.382
364.473
363.297
362.349
361.886
361.762
361.815
361.976
362.233
362.602
363.124
363.881
364.994
366.604
368.828
371.69
374.993
378.299
381.366
384.606
389.844
402.079
323.349
340.586
348.579
355.234
361.793
365.211
366.444
366.891
367.065
367.115
367.08
366.963
366.737
366.334
365.651
364.66
363.612
362.899
362.614
362.625
362.82
363.161
363.638
364.242
365.006
366.057
367.607
369.836
372.715
375.928
379.058
381.996
385.221
390.547
402.671
323.164
339.783
347.22
353.408
359.948
364.409
366.624
367.585
367.951
368.04
367.988
367.845
367.615
367.265
366.735
365.965
365.012
364.142
363.613
363.443
363.548
363.895
364.517
365.446
366.63
367.995
369.604
371.667
374.286
377.213
380.076
382.828
385.986
391.341
403.162
321.322
337.114
343.439
348.14
353.521
359.048
363.356
366.111
367.615
368.306
368.546
368.554
368.428
368.196
367.843
367.319
366.584
365.72
364.991
364.599
364.492
364.572
364.874
365.547
366.774
368.604
370.849
373.288
375.853
378.484
381.055
383.59
386.544
391.586
403.039
318.982
334.382
340.5
344.307
348.007
352.521
357.592
362.149
365.541
367.633
368.668
369.054
369.105
368.979
368.736
368.381
367.884
367.218
366.471
365.934
365.851
366.1
366.4
366.701
367.207
368.265
370.181
372.879
375.889
378.772
381.418
383.983
386.969
392.054
403.505
317.23
333.85
341.055
345.269
348.619
351.68
354.98
358.721
362.468
365.659
367.869
369.054
369.525
369.615
369.509
369.278
368.938
368.478
367.883
367.242
366.86
367.094
367.959
369.103
370.176
371.14
372.273
373.945
376.264
378.929
381.607
384.29
387.537
393.138
404.522
317.317
335.891
344.097
349.11
353.435
357.195
359.876
361.682
363.333
365.216
367.147
368.669
369.55
369.922
370.007
369.937
369.761
369.49
369.117
368.643
368.136
367.823
368.067
369.117
370.908
373.124
375.392
377.487
379.457
381.461
383.586
385.899
388.853
394.06
404.568
319.132
338.046
345.993
351.097
356.156
361.39
365.446
367.563
368.325
368.534
368.819
369.368
369.921
370.266
370.408
370.422
370.357
370.228
370.031
369.758
369.414
369.038
368.748
368.771
369.405
370.909
373.338
376.415
379.581
382.344
384.643
386.753
389.169
393.287
403.156
320.93
339.328
346.95
352.018
357.264
362.82
367.386
370.139
371.39
371.731
371.54
371.203
371.02
370.963
370.93
370.883
370.815
370.724
370.604
370.446
370.243
369.989
369.697
369.424
369.296
369.53
370.419
372.234
374.969
378.183
381.355
384.278
387.134
391.271
401.433
322.379
340.724
348.228
353.561
359.478
365.362
369.556
371.859
372.938
373.336
373.278
372.839
372.273
371.835
371.548
371.351
371.197
371.058
370.915
370.748
370.541
370.286
369.985
369.652
369.313
369.025
368.947
369.466
371.156
374.196
377.999
381.737
385.138
389.742
400.733
323.443
341.383
348.546
353.871
360.123
366.429
370.896
373.274
374.321
374.661
374.554
374.037
373.235
372.496
371.995
371.668
371.433
371.255
371.11
370.928
370.662
370.343
370.004
369.662
369.335
369.094
369.146
369.92
371.893
375.049
378.694
382.142
385.496
390.578
402.503
322.823
339.891
346.616
351.445
356.975
363.236
368.813
372.574
374.577
375.443
375.635
375.288
374.422
373.359
372.533
372.003
371.675
371.537
371.566
371.535
371.287
370.941
370.613
370.396
370.41
370.776
371.636
373.184
375.518
378.409
381.413
384.342
387.78
393.618
405.044
320.771
337.459
344.052
348.25
352.439
357.579
363.663
369.226
373.018
375.06
375.972
376.191
375.795
374.778
373.571
372.648
372.067
371.808
371.947
372.364
372.623
372.548
372.345
372.241
372.476
373.249
374.611
376.51
378.826
381.349
383.903
386.565
390.037
396.045
406.224
319.612
336.982
344.007
348.162
351.692
355.386
360.077
365.652
370.625
373.928
375.69
376.496
376.715
376.369
375.357
374.055
372.994
372.295
371.99
372.234
372.987
373.817
374.355
374.666
375.043
375.781
377.039
378.767
380.793
382.949
385.165
387.569
390.795
396.433
405.98
320.018
338.195
345.654
350.202
354.074
357.628
361.146
365.126
369.392
372.934
375.201
376.415
376.986
377.148
376.886
376.031
374.77
373.618
372.784
372.306
372.364
373.107
374.332
375.607
376.705
377.766
379.017
380.547
382.287
384.132
386.055
388.172
390.999
396.001
405.333
321.196
339.433
346.779
351.463
355.745
359.844
363.633
367.016
370.155
372.971
375.086
376.403
377.117
377.454
377.523
377.291
376.606
375.509
374.383
373.476
372.84
372.624
373.097
374.324
375.976
377.664
379.318
381.026
382.814
384.647
386.523
388.54
391.095
395.519
404.713
321.661
339.609
346.734
351.225
355.286
359.25
363.105
366.69
369.879
372.635
374.826
376.331
377.222
377.684
377.873
377.852
377.585
376.971
376.028
375.013
374.13
373.433
373.06
373.347
374.517
376.286
378.189
380.1
382.039
384.012
386.02
388.131
390.683
394.999
404.47
321.017
339.706
347.246
351.809
355.687
359.237
362.485
365.436
368.201
370.891
373.421
375.494
376.892
377.681
378.058
378.177
378.094
377.783
377.188
376.353
375.458
374.635
373.948
373.602
374.046
375.501
377.478
379.459
381.408
383.407
385.497
387.72
390.403
394.943
404.725
321.071
341.292
349.72
354.827
359.211
363.174
366.394
368.609
370.063
371.315
372.83
374.652
376.326
377.462
378.07
378.324
378.348
378.178
377.801
377.212
376.486
375.73
375.011
374.445
374.414
375.472
377.563
379.87
381.93
383.857
385.829
387.97
390.646
395.262
404.906
323.732
344.675
353.276
358.747
363.894
368.892
372.911
375.209
375.926
375.793
375.556
375.84
376.721
377.627
378.196
378.448
378.482
378.351
378.07
377.651
377.132
376.555
375.951
375.38
375.088
375.633
377.448
380.066
382.568
384.687
386.639
388.669
391.187
395.523
404.739
327.592
347.929
356.032
361.646
367.524
373.303
377.741
380.177
380.794
380.288
379.325
378.495
378.282
378.487
378.682
378.745
378.696
378.558
378.339
378.046
377.686
377.263
376.781
376.265
375.852
375.934
377.068
379.367
382.111
384.593
386.762
388.857
391.332
395.519
404.619
329.252
349.15
357.169
363.225
369.974
375.987
379.922
381.917
382.458
382.049
381.173
380.251
379.662
379.445
379.367
379.297
379.201
379.066
378.885
378.654
378.372
378.036
377.639
377.19
376.759
376.596
377.184
378.944
381.627
384.391
386.791
388.984
391.488
395.684
404.771
328.588
348.692
356.89
363.377
370.898
377.118
380.705
382.371
382.856
382.584
381.953
381.289
380.774
380.45
380.253
380.108
379.974
379.829
379.659
379.456
379.211
378.919
378.569
378.16
377.726
377.413
377.585
378.75
381.092
383.964
386.542
388.796
391.274
395.402
404.6
327.807
347.618
355.603
362.01
369.882
376.708
380.672
382.472
383.057
382.967
382.589
382.181
381.83
381.541
381.306
381.11
380.937
380.772
380.601
380.414
380.202
379.958
379.673
379.342
378.97
378.608
378.445
378.896
380.457
383.068
385.88
388.356
390.869
394.883
404.205
326.61
345.976
353.897
360.171
368.143
375.75
380.551
382.82
383.631
383.687
383.405
383.056
382.751
382.502
382.29
382.101
381.924
381.751
381.574
381.385
381.176
380.941
380.67
380.358
379.996
379.594
379.222
379.14
379.917
382.052
385.028
387.781
390.391
394.389
404.061
325.601
345.097
353.26
359.726
368.066
376.299
381.737
384.357
385.239
385.197
384.705
384.122
383.656
383.336
383.112
382.937
382.784
382.636
382.482
382.316
382.129
381.911
381.649
381.327
380.929
380.46
379.996
379.814
380.517
382.611
385.472
388.062
390.65
394.907
405.133
324.938
344.476
352.59
359.014
367.438
376.15
382.17
385.224
386.301
386.255
385.667
384.977
384.429
384.06
383.811
383.627
383.474
383.331
383.184
383.019
382.819
382.57
382.257
381.875
381.44
381.018
380.779
381.054
382.253
384.405
386.817
389.049
391.708
396.655
406.884
324.264
343.64
351.73
357.988
366.076
375.039
381.619
385.112
386.523
386.732
386.288
385.642
385.095
384.715
384.459
384.273
384.123
383.991
383.867
383.739
383.586
383.382
383.111
382.79
382.481
382.319
382.505
383.263
384.699
386.603
388.612
390.731
393.705
399.351
408.409
324.03
343.499
351.677
357.899
365.788
374.974
382.23
386.097
387.547
387.7
387.18
386.43
385.785
385.341
385.049
384.841
384.682
384.557
384.476
384.446
384.446
384.417
384.337
384.244
384.225
384.408
384.934
385.892
387.255
388.886
390.694
392.844
396.05
401.705
409.172
324.084
343.675
351.648
357.442
364.482
373.27
381.413
386.406
388.433
388.738
388.192
387.342
386.58
386.043
385.686
385.438
385.263
385.157
385.147
385.267
385.512
385.794
386.03
386.238
386.511
386.955
387.648
388.619
389.836
391.26
392.905
394.955
398.023
403.116
409.402
324.027
343.872
351.863
357.252
363.187
370.686
378.796
385.011
388.284
389.381
389.239
388.481
387.598
386.889
386.397
386.059
385.829
385.692
385.674
385.827
386.201
386.76
387.378
387.958
388.528
389.173
389.962
390.917
392.035
393.316
394.8
396.649
399.366
403.765
409.374
324.836
345.176
353.334
358.879
364.834
371.601
378.628
384.699
388.461
390.011
390.174
389.583
388.699
387.884
387.279
386.856
386.562
386.375
386.301
386.386
386.699
387.285
388.093
388.985
389.854
390.696
391.567
392.515
393.569
394.749
396.098
397.744
400.09
403.876
409.179
325.433
346.112
354.322
359.885
365.812
372.266
378.528
384.181
388.323
390.43
390.999
390.667
389.873
388.978
388.227
387.677
387.292
387.034
386.892
386.883
387.057
387.48
388.191
389.138
390.192
391.24
392.252
393.264
394.32
395.462
396.735
398.247
400.337
403.728
408.972
326.461
347.41
355.85
361.887
368.678
375.545
381.036
385.37
388.846
391
391.807
391.695
391.046
390.174
389.347
388.698
388.225
387.892
387.679
387.585
387.634
387.871
388.349
389.094
390.062
391.145
392.242
393.318
394.395
395.518
396.74
398.158
400.089
403.302
408.738
326.97
347.815
356.392
362.907
370.737
378.454
383.992
387.578
390.106
391.789
392.55
392.568
392.091
391.326
390.485
389.744
389.17
388.754
388.471
388.31
388.277
388.391
388.688
389.205
389.959
390.91
391.977
393.079
394.182
395.306
396.5
397.862
399.716
402.911
408.614
327.151
347.907
356.758
363.859
372.731
381.084
386.599
389.815
391.796
393.017
393.556
393.523
393.083
392.386
391.587
390.833
390.209
389.731
389.386
389.163
389.065
389.099
389.286
389.65
390.216
390.986
391.927
392.973
394.064
395.181
396.355
397.679
399.482
402.682
408.579
327.179
347.676
356.699
364.274
374.035
383.232
388.981
391.883
393.373
394.188
394.523
394.443
394.038
393.399
392.632
391.862
391.193
390.664
390.274
390.011
389.872
389.862
389.992
390.279
390.742
391.391
392.221
393.195
394.259
395.375
396.548
397.853
399.607
402.742
408.658
326.683
346.993
355.831
363.088
372.431
382.329
389.469
393.24
394.917
395.574
395.712
395.512
395.061
394.424
393.673
392.901
392.197
391.615
391.17
390.858
390.675
390.627
390.72
390.968
391.383
391.975
392.739
393.656
394.686
395.794
396.974
398.282
400.007
403.048
408.816
326.601
347.16
355.584
361.807
369.278
378.387
386.817
392.396
395.27
396.48
396.798
396.63
396.169
395.515
394.743
393.94
393.196
392.568