/*--------------------------------*- C++ -*----------------------------------*\
| =========                 |                                                 |
| \\      /  F ield         | OpenFOAM: The Open Source CFD Toolbox           |
|  \\    /   O peration     | Version:  v1912                                 |
|   \\  /    A nd           | Website:  www.openfoam.com                      |
|    \\/     M anipulation  |                                                 |
\*---------------------------------------------------------------------------*/
FoamFile
{
    version     2.0;
    format      ascii;
    class       volScalarField;
    location    "46/oil";
    object      heatTransferCoeff(T);
}
// * * * * * * * * * * * * * * * * * * * * * * * * * * * * * * * * * * * * * //

dimensions      [1 0 -3 -1 0 0 0];


internalField   uniform 0;

boundaryField
{
    maxY
    {
        type            calculated;
        value           uniform 0;
    }
    minX
    {
        type            calculated;
        value           uniform 0;
    }
    maxX
    {
        type            calculated;
        value           uniform 0;
    }
    minY
    {
        type            calculated;
        value           uniform 0;
    }
    minZ
    {
        type            calculated;
        value           uniform 0;
    }
    maxZ
    {
        type            calculated;
        value           uniform 0;
    }
    oil_to_sphere
    {
        type            calculated;
        value           nonuniform List<scalar> 
1536
(
-126.17
-125.083
-125.24
-122.835
-122.435
-124.858
-124.09
-124.198
-124.058
-122.838
-122.174
-122.913
-123.99
-123.156
-121.569
-123.833
-124.927
-125.298
-123.739
-123.967
-124.553
-124.009
-124.192
-123.829
-123.987
-123.889
-123.858
-123.665
-124.987
-124.218
-125.316
-125.038
-125.147
-123.723
-123.838
-123.581
-123.6
-123.228
-123.55
-123.78
-123.46
-123.696
-124.031
-124.403
-124.725
-123.767
-125.078
-124.67
-121.46
-123.968
-124.459
-124.118
-124.608
-123.713
-124.932
-125.811
-124.098
-123.984
-124.618
-124.342
-124.078
-123.951
-124.115
-123.712
-123.911
-123.995
-123.947
-124.548
-124.412
-124.808
-123.708
-123.031
-123.189
-123.904
-123.824
-125.842
-125.113
-123.591
-123.843
-125.346
-124.562
-124.538
-122.565
-122.478
-124.971
-126.074
-122.655
-123.848
-124.413
-124.368
-124.315
-123.6
-123.649
-123.668
-123.875
-124.352
-124.819
-124.821
-125.137
-124.337
-124.611
-123.667
-126.324
-124.548
-123.171
-123.851
-123.86
-122.98
-123.091
-126.486
-125.072
-124.316
-123.961
-124.311
-122.474
-122.858
-122.366
-125.598
-126.186
-125.25
-124.137
-124.291
-123.54
-124.753
-125.222
-124.766
-124.005
-123.435
-124.818
-124.428
-124.039
-124.401
-124.882
-123.757
-123.927
-124.786
-124.286
-125.394
-123.489
-124.924
-124.016
-124.462
-124.453
-124.031
-123.85
-124.02
-124.077
-126.927
-125.495
-126.358
-124.658
-126.412
-124.068
-124.187
-123.527
-125.39
-124.602
-125.817
-126.879
-126.851
-125.058
-127.219
-122.719
-122.95
-123.624
-123.499
-124.593
-126.148
-124.853
-126.601
-123.84
-123.941
-123.718
-124.981
-124.859
-124.708
-125.973
-125.017
-125.74
-125.966
-123.213
-122.86
-122.927
-122.983
-125.779
-126.14
-126.907
-123.754
-123.548
-125.3
-123.698
-125.085
-124.892
-125.436
-122.932
-121.691
-125.484
-125.545
-124.815
-123.664
-124.214
-123.987
-125.443
-125.511
-124.78
-124.589
-124.283
-125.852
-125.306
-125.703
-123.356
-123.878
-123.838
-124.66
-125.085
-126.112
-125.082
-123.104
-123.072
-121.72
-125.165
-124.888
-124.488
-124.32
-124.451
-126.085
-125.155
-124.615
-125.234
-123.048
-123.665
-121.924
-123.863
-125.734
-125.491
-125.554
-124.992
-124.698
-125.127
-123
-123.118
-125.166
-125.466
-123.508
-122.373
-122.262
-124.761
-125.731
-126.509
-127.975
-124.387
-122.675
-121.609
-124.347
-126.483
-123.645
-123.683
-122.209
-123.595
-126.029
-126.379
-124.645
-123.808
-125.512
-127.239
-123.795
-122.495
-124.725
-126.143
-125.798
-124.708
-124.948
-125.402
-123.094
-123.688
-125.535
-124.95
-126.18
-124.153
-125.35
-126.123
-124.997
-124.864
-125.609
-123.945
-123.803
-124.19
-123.313
-123.596
-125.501
-126.022
-125.357
-123.962
-123.926
-124.149
-123.777
-124.639
-124.307
-123.409
-122.359
-123.518
-122.906
-123.398
-126.209
-125.665
-125.742
-128.267
-122.812
-122.906
-125.388
-126.265
-127.6
-123.853
-124.294
-123.738
-124.923
-123.871
-124.787
-124.893
-125.507
-124.843
-124.195
-125.079
-123.425
-125.466
-125.647
-125.07
-125.069
-123.133
-126.214
-126.609
-125.686
-122.825
-123.963
-124.372
-124.929
-124.784
-124.719
-123.121
-125.458
-126.768
-125.281
-125.715
-124.482
-124.52
-124.247
-123.223
-124.791
-125.115
-123.13
-122.954
-123.192
-126.446
-125.649
-125.856
-124.594
-124.597
-125.995
-123.001
-126.231
-125.356
-124.41
-124.528
-123.037
-125.811
-125.576
-123.339
-124.367
-124.091
-123.898
-125.037
-125.433
-124.047
-124.017
-123.043
-126.069
-125.421
-123.052
-126.066
-126.125
-125.237
-125.989
-124.369
-125.073
-123.28
-122.744
-124.974
-127.734
-125.346
-126.925
-124.88
-124.023
-125.145
-123.517
-124.198
-125.228
-125.411
-125.074
-124.504
-123.663
-123.065
-125.611
-126.718
-125.446
-124.588
-123.897
-124.76
-125.015
-125.208
-124.601
-124.192
-123.761
-124.427
-123.579
-123.015
-123.661
-123.658
-124.335
-122.661
-123.949
-126.838
-123.937
-123.925
-125.505
-125.366
-124.831
-124.128
-122.938
-125.309
-125.692
-124.875
-124.789
-125.073
-124.455
-124.372
-124.611
-122.606
-125.717
-126.66
-125.94
-125.315
-125.19
-124.796
-124.553
-124.293
-123.485
-124.365
-123.447
-123.01
-123.48
-122.775
-126.256
-126.135
-125.529
-127.805
-124.901
-126.132
-123.008
-123.181
-124.889
-125.202
-123.028
-123.95
-123.611
-126.202
-125.889
-124.583
-124.782
-126.066
-125.669
-124.493
-125.08
-123.246
-125.358
-122.686
-125.962
-122.566
-125.562
-125.519
-125.439
-124.168
-123.023
-124.007
-125.43
-124.063
-122.692
-125.685
-125.53
-126.804
-126.433
-125.787
-125.61
-122.791
-122.974
-121.669
-121.914
-124.191
-123.716
-123.72
-123.555
-126.133
-125.087
-122.664
-122.415
-124.858
-124.146
-126.97
-123.729
-123.76
-124.559
-122.127
-122.038
-123.65
-123.629
-123.88
-123.932
-125.502
-125.323
-124.812
-124.468
-122.688
-123.845
-125.71
-123.412
-123.26
-125.117
-125.91
-123.471
-122.28
-123.123
-122.272
-124.204
-124.028
-123.727
-123.025
-121.575
-125.322
-125.29
-124.63
-124.519
-126.225
-125.268
-124.712
-124.681
-123.121
-123.665
-125.561
-124.987
-123.922
-122.137
-124.46
-126.498
-126.248
-124.513
-125.052
-125.81
-125.661
-125.57
-123.128
-123.501
-122.96
-123.858
-124.23
-125.62
-126.837
-123.147
-123.064
-125.314
-126.589
-124.025
-123.763
-122.666
-125.081
-124.246
-125.777
-125.945
-124.458
-122.701
-126.153
-126.739
-122.321
-126.702
-125.994
-125.388
-126.399
-125.031
-124.781
-124.538
-126.204
-124.625
-124.796
-124.511
-125.231
-124.714
-124.407
-124.392
-122.941
-125.175
-125.134
-125.305
-125.278
-125.434
-124.998
-124.711
-122.872
-125.777
-125.912
-125.049
-124.394
-124.718
-126.427
-124.597
-123.066
-122.797
-125.605
-125.151
-126.335
-124.106
-124.278
-124.827
-122.033
-121.661
-123.699
-123.64
-124.134
-122.895
-123.159
-125.925
-124.796
-125.856
-124.931
-126.137
-125.816
-125.622
-123.571
-121.731
-121.521
-123.87
-125.315
-123.984
-123.766
-122.082
-124.136
-125.989
-124.105
-128.13
-123.341
-125.46
-126.24
-125.075
-125.912
-126.206
-125.5
-124.687
-124.356
-124.413
-125.239
-124.222
-124.605
-124.857
-124.717
-125.408
-125.041
-125.294
-123.372
-123.433
-121.731
-122.053
-122.885
-121.007
-123.992
-123.956
-124.18
-124.459
-122.866
-122.975
-123.932
-125.841
-126.231
-123.929
-122.706
-124.101
-125.604
-125.851
-124.232
-122.868
-123.328
-125.019
-125.141
-124.226
-124.083
-125.101
-125.337
-126.085
-125.16
-124.519
-123.94
-123.108
-122.735
-125.183
-125.439
-126.425
-124.155
-126.514
-125.229
-126.772
-123.81
-124.149
-123.325
-123.615
-123.88
-123.329
-124.191
-122.659
-123.723
-125.863
-123.975
-123.15
-126.299
-125.257
-124.632
-124.516
-127.048
-127.689
-122.344
-125.029
-125.37
-124.846
-123.461
-124.371
-123.786
-124.938
-125.928
-125.414
-123.324
-125.122
-124.753
-124.979
-125.007
-124.598
-124.286
-124.396
-123.969
-122.846
-122.727
-123.239
-125.793
-123.775
-122.869
-123.78
-125.685
-124.068
-125.966
-125.578
-124.931
-124.535
-125.031
-126.125
-123.214
-124.9
-125.976
-125.68
-124.689
-123.615
-124.334
-125.121
-125.745
-123.289
-124.398
-124.784
-125.583
-124.662
-125.332
-125.985
-123.225
-123.748
-123.595
-126.255
-125.496
-124.361
-125.616
-123.655
-123.895
-125.606
-125.569
-125.917
-123.171
-125.273
-125.557
-124.47
-124.915
-125.28
-123.559
-122.54
-124.328
-125.442
-126.975
-124.264
-123.947
-124.302
-124.828
-125.341
-124.324
-123.754
-124.21
-125.408
-124.21
-123.307
-124.087
-123.697
-124.655
-124.505
-125.663
-125.006
-125.174
-123.895
-124.476
-124.633
-124.218
-124.006
-123.994
-123.846
-123.34
-125.091
-124.625
-124.451
-125.016
-122.657
-123.885
-126.313
-126.181
-123.607
-125.62
-124.84
-124.855
-124.046
-125.837
-125.525
-123.049
-123.99
-123.909
-123.924
-123.102
-122.911
-123.88
-125.751
-127.469
-123.748
-125.337
-125.078
-124.703
-124.214
-124.641
-125.774
-125.48
-123.132
-123.898
-123.833
-124.284
-124.91
-125.516
-125.149
-125.114
-125.394
-123.841
-125.076
-124.003
-125.333
-121.679
-125.057
-125.636
-124.007
-122.379
-124.985
-124.596
-126.103
-123.657
-125.092
-124.504
-122.562
-126.375
-123.214
-124.228
-124.218
-122.846
-125.692
-124.428
-124.366
-125.181
-124.438
-123.987
-126.061
-123.419
-123.927
-121.856
-125.412
-123.837
-124.255
-125.683
-127.422
-123.163
-124.091
-126.831
-123.302
-125.123
-123.723
-124.869
-122.792
-123.838
-126.786
-122.486
-127.37
-122.628
-126.209
-122.984
-123.626
-122.464
-123.792
-126.583
-122.187
-125.04
-122.595
-126.634
-126.574
-122.313
-125.164
-123.317
-123.083
-122.926
-123.698
-124.245
-124.318
-124.732
-124.165
-126.13
-126.859
-122.387
-125.543
-124.507
-124.196
-124.356
-124.214
-124.406
-124.163
-125.251
-124.375
-125.132
-124.007
-124.752
-125.766
-123.925
-124.673
-125.431
-123.892
-124.758
-124.39
-124.778
-124.145
-124.67
-124.044
-125.331
-123.925
-124.541
-122.768
-126.519
-122.25
-125.784
-125.619
-125.764
-123.592
-124.423
-124.077
-124.241
-124.896
-124.455
-125.296
-123.407
-121.55
-126.219
-122.451
-125.965
-123.698
-124.332
-126.265
-121.487
-127.44
-124.183
-122.144
-124.599
-124.979
-124.824
-124.617
-121.975
-124.876
-125.012
-123.742
-123.601
-125.922
-125.812
-124.039
-124.187
-125.912
-122.145
-125.913
-123.629
-124.836
-122.283
-127.899
-126.256
-125.297
-124.679
-124.649
-125.474
-124.455
-121.959
-123.293
-125.044
-123.668
-125.789
-122.281
-126.025
-125.484
-120.7
-124.934
-124.732
-121.611
-127.164
-122.663
-125.854
-126.439
-125.516
-121.511
-124.599
-124.221
-124.864
-124.756
-125.301
-122.019
-124.318
-123.529
-123.596
-126.066
-124.547
-125.598
-124.809
-124.905
-124.204
-124.439
-124.278
-124.534
-125.569
-123.841
-124.174
-123.697
-125.01
-125.646
-123.891
-123.963
-123.862
-124.517
-123.631
-123.605
-124.04
-124.138
-124.447
-124.534
-125.876
-125.654
-122.22
-122.865
-126.544
-120.85
-124.985
-125.043
-123.841
-124.254
-127.052
-121.704
-125.392
-125.369
-121.682
-124.051
-124.059
-125.171
-121.544
-125.627
-125.906
-121.313
-125.466
-126.075
-121.994
-125.73
-125.836
-122.045
-123.911
-123.744
-121.804
-124.354
-124.539
-123.989
-123.58
-124.676
-121.497
-123.39
-122.954
-121.523
-125.549
-123.318
-126.465
-124.399
-121.96
-125.421
-125.288
-121.72
-123.953
-123.996
-121.699
-122.63
-127.401
-120.523
-123.355
-124.863
-121.35
-125.648
-125.309
-124.363
-123.932
-124.149
-123.211
-121.317
-124.386
-123.822
-123.995
-124.378
-121.707
-125.719
-123.753
-124.236
-123.548
-124.158
-124.443
-123.356
-121.871
-124.123
-125.592
-123.676
-124.039
-124.481
-123.559
-124.159
-121.879
-124.195
-125.874
-123.563
-124.255
-123.598
-122.01
-126.479
-126.674
-125.511
-126.456
-121.938
-121.5
-124.464
-126.302
-124.519
-125.097
-125.302
-123.334
-122.939
-122.428
-122.916
-123.373
-124.241
-124.15
-124.092
-123.304
-125.333
-125.003
-122.053
-122.995
-123.33
-125.256
-123.485
-121.498
-126.018
-124.229
-125.435
-121.667
-124.417
-125.394
-123.881
-124.075
-125.136
-124.277
-123.194
-126.121
-120.93
-124.308
-125.054
-123.634
-123.906
-126.094
-125.186
-124.714
-123.058
-125.85
-124.058
-124.498
-125.258
-125.512
-125.351
-125.495
-126.138
-126.29
-125.883
-125.884
-125.696
-125.454
-123.805
-124.19
-123.543
-122.71
-121.219
-126.123
-126.003
-125.581
-123.996
-124.462
-124.404
-123.61
-124.658
-125.349
-123.395
-124.203
-125.049
-124.009
-123.855
-123.715
-123.995
-123.405
-123.922
-123.848
-122.233
-125.361
-123.561
-124.147
-121.543
-126.694
-124.259
-123.622
-123.451
-122.319
-124.494
-123.686
-121.674
-123.37
-124.154
-122.975
-122.851
-126.203
-126.425
-123.937
-123.906
-125.261
-125.94
-121.591
-124.557
-123.504
-123.874
-123.911
-123.998
-124.202
-123.164
-121.748
-126.286
-123.926
-122.899
-123.119
-123.772
-124.363
-122.449
-124.957
-123.917
-123.786
-125.946
-123.005
-122.059
-124.129
-123.751
-123.599
-121.81
-125.859
-123.993
-123.678
-123.836
-121.647
-124.259
-123.902
-122.137
-124.178
-123.315
-124.762
-125.516
-123.827
-125.182
-124.525
-123.646
-123.586
-123.946
-121.922
-125.244
-125.485
-123.768
-121.805
-123.339
-124.135
-124.189
-123.71
-121.865
-123.797
-125.407
-124.896
-124.036
-126.208
-122.738
-125.97
-121.588
-122.84
-126.207
-121.904
-125.505
-124.36
-124.358
-123.827
-126.661
-123.072
-124.284
-125.739
-126.176
-122.106
-125.659
-126.043
-121.001
-125.82
-123.603
-121.62
-126.209
-123.569
-123.729
-123.747
-124.192
-124.029
-123.725
-123.734
-121.469
-125.769
-124.607
-124.272
-124.404
-123.958
-123.572
-123.338
-126.122
-121.35
-123.446
-124.899
-121.82
-125.518
-125.941
-125.507
-125.693
-126.205
-123.106
-125.633
-124.84
-125.692
-123.552
-125.089
-123.136
-122.072
-125.869
-122.928
-125.394
-126.553
-125.874
-121.697
-125.928
-125.083
-123.487
-123.723
-123.989
-123.664
-121.717
-126.583
-121.701
-126.551
-123.945
-123.167
-123.901
-124.871
-124.929
-126.373
-124.214
-126.175
-125.769
-125.358
-122.581
-125.486
-125.058
-125.603
-123.669
-123.405
-121.696
-124.078
-126.144
-126.014
-121.565
-123.182
-122.607
-123.635
-124.143
-123.009
-127.477
-123.811
-123.082
-121.754
-124.948
-123.533
-121.09
-124.641
-123.76
-123.615
-123.747
-123.77
-121.803
-122.853
-121.621
-124.1
-126.158
-124.806
-125.919
-125.712
-123.457
-123.153
-121.814
-123.193
-125.82
-125.654
-125.727
-125.247
-122.836
-121.888
-123.093
-121.565
-125.3
-125.534
-123.273
-125.255
-125.66
-125.543
-125.508
-124.385
-124.306
-123.451
-121.23
-123.313
-122.001
-123.714
-123.745
-123.68
-122.082
-121.725
-124.986
-126.024
-126.614
-125.924
-124.286
-124.73
-124.738
-124.46
-123.844
-124.238
-123.318
-124.011
-124.015
-121.635
-126.025
-124.052
-123.24
-122.132
-124.092
-124.206
-124.186
-123.746
-122.159
-125.942
-124.658
-123.714
-126.131
-123.266
-121.586
-125.708
-124.199
-124.04
-123.97
-123.621
-121.086
-125.154
-123.981
-121.731
-126.71
-123.943
-120.927
-123.728
-124.109
-124.207
-123.571
-121.768
-123.6
-123.677
-122.528
-123.963
-121.601
-124.149
-124.087
-122.3
-126.779
-123.94
-122.18
-127.517
-124.147
-124.197
-122.065
-124.031
-121.785
)
;
    }
}


// ************************************************************************* //
