/*--------------------------------*- C++ -*----------------------------------*\
| =========                 |                                                 |
| \\      /  F ield         | OpenFOAM: The Open Source CFD Toolbox           |
|  \\    /   O peration     | Version:  v1906                                 |
|   \\  /    A nd           | Web:      www.OpenFOAM.com                      |
|    \\/     M anipulation  |                                                 |
\*---------------------------------------------------------------------------*/
FoamFile
{
    version     2.0;
    format      ascii;
    class       volScalarField;
    location    "16";
    object      omega;
}
// * * * * * * * * * * * * * * * * * * * * * * * * * * * * * * * * * * * * * //

dimensions      [0 0 -1 0 0 0 0];


internalField   nonuniform List<scalar> 
78750
(
362.174
14.1648
15.2648
14.9799
15.0636
15.0537
15.0696
15.0789
15.0895
15.1007
15.1136
15.1276
15.141
15.1526
15.1615
15.1676
15.1706
15.1703
15.1667
15.1592
15.1478
15.1318
15.1106
15.0834
15.0499
15.0091
14.9601
14.9016
14.8325
14.7518
14.6605
14.5617
14.4347
14.2136
356.886
526.894
5.74635
6.03186
6.0958
6.08769
6.07089
6.05879
6.05151
6.05055
6.05655
6.06983
6.0885
6.10891
6.1283
6.14524
6.15875
6.16792
6.17197
6.17095
6.16419
6.15086
6.1301
6.10069
6.06122
6.01007
5.94503
5.86318
5.76064
5.63243
5.47335
5.28472
5.09764
4.9762
4.83473
524.057
527.179
5.38451
5.53061
5.54256
5.51145
5.49931
5.52095
5.56075
5.61208
5.67125
5.73438
5.79758
5.85746
5.91167
5.95874
5.99792
6.02892
6.05167
6.06626
6.0727
6.07082
6.06021
6.04011
6.0092
5.96543
5.90559
5.82459
5.71422
5.56162
5.34972
5.07625
4.82507
4.74232
4.72138
524.502
527.027
5.1962
5.35184
5.42414
5.45498
5.46568
5.4715
5.48785
5.53133
5.60501
5.70261
5.81007
5.91358
6.00449
6.07934
6.13801
6.18185
6.21252
6.23127
6.23883
6.23539
6.22069
6.19405
6.15402
6.09836
6.02364
5.92406
5.78959
5.60287
5.3391
4.99975
4.70009
4.6046
4.59516
524.924
526.956
5.07485
5.20195
5.24714
5.2384
5.19446
5.149
5.13723
5.19162
5.31086
5.46824
5.63044
5.77588
5.89626
5.99111
6.06302
6.11526
6.15085
6.17202
6.18012
6.17573
6.15886
6.12897
6.0851
6.0258
5.94912
5.85149
5.7253
5.55439
5.31208
4.98627
4.65777
4.48982
4.46188
525.397
526.812
4.95583
5.08366
5.13582
5.14266
5.10017
5.02595
4.9783
5.04238
5.22702
5.4624
5.6856
5.8688
6.00909
6.11268
6.18707
6.23844
6.27104
6.28768
6.28954
6.27717
6.2509
6.21022
6.15431
6.08286
5.99736
5.90025
5.79199
5.66478
5.49768
5.26253
4.97067
4.71507
4.5593
525.471
526.683
4.8289
4.95861
4.99455
4.96121
4.85465
4.75183
4.79764
5.03065
5.33812
5.61496
5.82482
5.97331
6.07695
6.14979
6.20061
6.23405
6.25107
6.25197
6.23687
6.20546
6.15652
6.08846
5.99907
5.88863
5.76463
5.64024
5.52384
5.40937
5.27843
5.11633
4.93151
4.75862
4.62447
525.644
526.653
4.74114
4.83726
4.82043
4.71955
4.63618
4.74613
5.06026
5.41524
5.69647
5.88937
6.02037
6.1145
6.18586
6.24056
6.28084
6.3055
6.31305
6.30249
6.27286
6.22263
6.14836
6.04364
5.90332
5.731
5.55206
5.4031
5.29948
5.21937
5.12698
5.01059
4.87399
4.74738
4.63857
525.951
526.689
4.67035
4.7056
4.64249
4.60857
4.79124
5.15358
5.5019
5.73747
5.88085
5.97667
6.05252
6.11838
6.17517
6.22174
6.25548
6.27347
6.27371
6.25383
6.21074
6.13955
6.03069
5.86777
5.63798
5.35427
5.07639
4.88747
4.82065
4.82385
4.82781
4.79459
4.72751
4.65555
4.56526
526.438
526.772
4.64194
4.65192
4.65574
4.81261
5.13017
5.43574
5.63824
5.75971
5.84375
5.91935
5.99699
6.07562
6.14944
6.21304
6.26398
6.29974
6.31939
6.32112
6.3016
6.25504
6.17127
6.03321
5.8203
5.52333
5.17007
4.84542
4.65268
4.61315
4.64185
4.64558
4.60541
4.54066
4.44253
526.937
526.852
4.66726
4.68704
4.76767
4.99411
5.27259
5.48456
5.61303
5.68474
5.73221
5.78193
5.84956
5.93485
6.02555
6.10835
6.1773
6.23051
6.26949
6.29552
6.30892
6.3085
6.2906
6.2466
6.15783
5.99234
5.71556
5.32792
4.90187
4.56618
4.42043
4.42786
4.45729
4.43965
4.36782
527.395
526.844
4.69407
4.73376
4.83446
5.04718
5.27327
5.4269
5.50475
5.53312
5.54282
5.56791
5.63566
5.74914
5.88416
6.0103
6.11233
6.18762
6.23979
6.2723
6.28738
6.28686
6.27296
6.24858
6.21584
6.17066
6.09117
5.92893
5.63066
5.20355
4.74976
4.42645
4.31364
4.31057
4.2983
527.701
526.73
4.68127
4.75195
4.83936
5.00227
5.17491
5.29515
5.35208
5.36369
5.35438
5.36063
5.42535
5.56276
5.73979
5.90862
6.04401
6.14302
6.21247
6.25864
6.28502
6.29302
6.28257
6.25249
6.2019
6.13337
6.05414
5.96772
5.85652
5.66609
5.33924
4.91279
4.54932
4.36013
4.29917
527.882
526.571
4.58632
4.70028
4.79165
4.90554
5.02668
5.11664
5.15748
5.15529
5.14361
5.1789
5.30917
5.51872
5.74301
5.93106
6.06937
6.1642
6.22673
6.26572
6.28686
6.29377
6.28859
6.27195
6.24242
6.1958
6.12523
6.02205
5.88398
5.71471
5.50137
5.20857
4.86212
4.5777
4.41897
528.16
526.476
4.4853
4.61606
4.70891
4.79611
4.8792
4.93121
4.93557
4.92133
4.97223
5.1451
5.41262
5.68823
5.90719
6.05626
6.15219
6.21245
6.24896
6.26836
6.27402
6.2673
6.2483
6.21631
6.17043
6.11095
6.03726
5.94787
5.83709
5.69418
5.5079
5.27201
4.99803
4.73448
4.53881
528.288
526.46
4.4493
4.57804
4.66582
4.73212
4.77023
4.7697
4.783
4.9151
5.18515
5.5101
5.78884
5.97658
6.08746
6.15314
6.19621
6.22677
6.24774
6.25959
6.26207
6.25463
6.23643
6.20604
6.16124
6.09941
6.01601
5.90846
5.77773
5.62475
5.44518
5.23586
5.01072
4.78733
4.59583
528.291
526.497
4.48067
4.59402
4.65083
4.67061
4.68164
4.76474
4.99715
5.32895
5.63654
5.84806
5.97108
6.04519
6.09891
6.14418
6.18285
6.21259
6.23144
6.23872
6.23421
6.2175
6.1876
6.14257
6.07972
5.99555
5.887
5.75636
5.6096
5.44988
5.27574
5.09043
4.91489
4.74397
4.57399
528.353
526.551
4.50984
4.59909
4.64207
4.68777
4.8183
5.07885
5.39134
5.63759
5.79427
5.8969
5.97686
6.04533
6.10211
6.14645
6.17971
6.20293
6.21662
6.22098
6.21561
6.19937
6.17033
6.1254
6.06029
5.96882
5.84617
5.69586
5.53004
5.3596
5.18573
5.01089
4.84986
4.69707
4.53661
528.532
526.597
4.53644
4.62151
4.68734
4.80158
5.00787
5.26861
5.49368
5.65753
5.78004
5.87754
5.9558
6.01803
6.06789
6.10835
6.14113
6.1662
6.18263
6.18978
6.18688
6.1726
6.14479
6.10004
6.03351
5.93693
5.80266
5.6316
5.43941
5.25013
5.07757
4.9231
4.77973
4.64241
4.49518
528.844
526.61
4.56011
4.65881
4.75161
4.89823
5.10214
5.32376
5.50873
5.64802
5.75356
5.83843
5.91145
5.97557
6.03042
6.07529
6.11068
6.13752
6.15579
6.16568
6.16704
6.15905
6.14004
6.10719
6.05605
5.9776
5.86027
5.69562
5.4892
5.26767
5.06435
4.89639
4.75095
4.61578
4.47522
529.183
526.589
4.5649
4.67422
4.77271
4.91054
5.07794
5.2515
5.40599
5.53138
5.63693
5.73262
5.82146
5.90065
5.96706
6.01988
6.0605
6.09114
6.11262
6.1255
6.13002
6.12578
6.11162
6.08557
6.04394
5.97954
5.88227
5.74043
5.54753
5.31684
5.08666
4.89662
4.7443
4.60924
4.47427
529.497
526.539
4.5474
4.66786
4.76659
4.89014
5.02991
5.17532
5.31656
5.44236
5.55779
5.6685
5.77281
5.86435
5.93852
5.99487
6.03598
6.0654
6.08583
6.09859
6.10447
6.10351
6.09497
6.07729
6.04634
5.99582
5.91701
5.79859
5.62894
5.40665
5.15785
4.93514
4.76235
4.62063
4.48908
529.796
526.485
4.50407
4.63205
4.72827
4.83273
4.94459
5.05949
5.18297
5.31199
5.44688
5.584
5.71185
5.81904
5.90104
5.95978
6.00012
6.02716
6.04502
6.05605
6.06128
6.06093
6.0545
6.04
6.01368
5.97008
5.90231
5.80158
5.6576
5.46286
5.2269
4.99288
4.80213
4.64948
4.51755
530.042
526.449
4.46562
4.59568
4.69299
4.79516
4.90345
5.01904
5.15543
5.31027
5.47485
5.63191
5.76351
5.86186
5.92937
5.97306
6.00018
6.01661
6.02645
6.03216
6.03476
6.03407
6.02871
6.01597
5.99163
5.94987
5.88386
5.78585
5.64815
5.46576
5.24534
5.02187
4.82947
4.67497
4.54731
530.331
526.438
4.44689
4.57724
4.67759
4.78313
4.89457
5.01929
5.17713
5.35711
5.53424
5.68365
5.794
5.86811
5.91468
5.9426
5.95897
5.96879
5.97508
5.97928
5.98165
5.98137
5.9765
5.96384
5.93867
5.8952
5.82726
5.72917
5.59658
5.42765
5.22853
5.02784
4.84602
4.69668
4.57504
530.601
526.443
4.45306
4.58758
4.69614
4.81523
4.94839
5.10994
5.30543
5.50095
5.6643
5.78164
5.85682
5.90084
5.92444
5.93605
5.9416
5.94483
5.94757
5.95027
5.95233
5.95219
5.94709
5.93265
5.90251
5.84923
5.76552
5.64702
5.49539
5.31977
5.13728
4.97315
4.82157
4.69328
4.58314
530.932
526.459
4.4725
4.61249
4.73175
4.87147
5.03282
5.22045
5.41807
5.58695
5.7091
5.78707
5.83175
5.85434
5.86396
5.86745
5.86935
5.8721
5.87651
5.88224
5.88822
5.89251
5.89186
5.88101
5.85235
5.79678
5.70547
5.57366
5.40587
5.2198
5.0452
4.9041
4.77907
4.67182
4.5711
531.239
526.483
4.5064
4.65561
4.79144
4.96059
5.15064
5.35014
5.53312
5.672
5.76208
5.81188
5.83327
5.83748
5.83376
5.8287
5.82608
5.8273
5.83225
5.84008
5.84952
5.8585
5.86341
5.85788
5.83234
5.77534
5.67595
5.52842
5.33956
5.13524
4.95759
4.82908
4.72597
4.63626
4.54175
531.411
526.514
4.54324
4.70189
4.8536
5.04573
5.24667
5.43098
5.57861
5.6779
5.73195
5.75181
5.75003
5.73828
5.72578
5.71814
5.71743
5.72327
5.73433
5.74943
5.76784
5.78853
5.80894
5.82286
5.8193
5.7843
5.70328
5.56492
5.36911
5.13886
4.92384
4.77279
4.67087
4.59125
4.50323
531.385
526.546
4.58254
4.75165
4.91808
5.12467
5.32466
5.48786
5.60329
5.67109
5.69817
5.69567
5.67634
5.65202
5.63186
5.62134
5.62154
5.6304
5.64513
5.66416
5.68766
5.71658
5.75085
5.78603
5.81093
5.81013
5.7675
5.66822
5.50204
5.27402
5.02077
4.81176
4.66987
4.57296
4.47796
531.172
526.556
4.60051
4.78439
4.95859
5.15509
5.3413
5.48242
5.56919
5.60606
5.60377
5.57501
5.5331
5.49151
5.46151
5.44949
5.45578
5.4751
5.50081
5.5294
5.56175
5.60123
5.65108
5.70978
5.76765
5.80778
5.81184
5.76389
5.65139
5.46736
5.22224
4.96701
4.76028
4.60938
4.48112
530.86
526.516
4.57073
4.78503
4.96566
5.13235
5.28739
5.407
5.47969
5.50566
5.4921
5.44969
5.39111
5.33149
5.28704
5.26965
5.28162
5.31413
5.35391
5.39362
5.43466
5.48261
5.54333
5.61944
5.70633
5.78889
5.84488
5.85295
5.7977
5.66949
5.46645
5.20826
4.94647
4.71864
4.53101
530.387
526.444
4.48999
4.70693
4.88855
5.03816
5.16468
5.26357
5.32794
5.35315
5.33752
5.28435
5.20629
5.12892
5.07896
5.07155
5.10429
5.16028
5.21964
5.27453
5.32855
5.38774
5.45784
5.54441
5.64733
5.75577
5.84875
5.90298
5.89675
5.81412
5.64766
5.40953
5.1329
4.85924
4.61315
530.063
526.388
4.40825
4.6047
4.77155
4.90685
5.01237
5.08205
5.10702
5.08426
5.02356
4.95056
4.89773
4.88803
4.92501
4.99532
5.07913
5.15673
5.22332
5.28511
5.34785
5.41656
5.49755
5.59469
5.70419
5.8135
5.90707
5.9718
5.99349
5.95103
5.81963
5.59172
5.30154
5.00873
4.72126
529.991
526.379
4.36386
4.51505
4.6198
4.68119
4.70334
4.69445
4.67664
4.67859
4.72014
4.80025
4.90315
5.011
5.10921
5.18096
5.23081
5.27691
5.33313
5.40194
5.48373
5.57965
5.68184
5.77573
5.85385
5.9168
5.96614
5.99896
6.00619
5.97012
5.86291
5.65803
5.36707
5.06286
4.76675
530.291
526.409
4.33147
4.42589
4.49226
4.55436
4.63574
4.75065
4.89696
5.05026
5.18114
5.26541
5.29244
5.2781
5.24383
5.20869
5.21648
5.30581
5.45633
5.59866
5.69749
5.76323
5.81256
5.85371
5.88965
5.92101
5.94528
5.95693
5.94725
5.90322
5.80667
5.63774
5.39181
5.10697
4.80515
530.552
526.45
4.40934
4.54765
4.68879
4.85672
5.03549
5.19495
5.29282
5.30952
5.25421
5.16446
5.09241
5.06364
5.07826
5.13271
5.20841
5.28777
5.36863
5.45297
5.53801
5.61856
5.69124
5.75479
5.80832
5.85043
5.8786
5.88819
5.87173
5.81871
5.71694
5.5566
5.33941
5.08617
4.80011
530.85
526.466
4.48323
4.66415
4.83885
5.01238
5.16382
5.27659
5.3429
5.36602
5.35025
5.30088
5.22899
5.15427
5.0916
5.04951
5.04553
5.08778
5.16383
5.25989
5.36584
5.47217
5.56976
5.65258
5.71827
5.766
5.79459
5.80229
5.78603
5.74047
5.65734
5.52818
5.35134
5.1283
4.84003
530.894
526.475
4.5408
4.74213
4.92187
5.09506
5.23904
5.34257
5.40187
5.42162
5.41084
5.3794
5.33331
5.27486
5.20914
5.145
5.08835
5.04374
5.02041
5.0252
5.05912
5.12361
5.21712
5.33291
5.45761
5.56725
5.63883
5.66514
5.64655
5.58553
5.48733
5.35684
5.1988
5.00837
4.75821
531.248
526.477
4.55793
4.74879
4.91283
5.0866
5.23734
5.35078
5.42848
5.48076
5.51736
5.54211
5.55101
5.53334
5.48263
5.40811
5.32713
5.24822
5.1699
5.08886
5.00372
4.92437
4.86735
4.84003
4.85425
4.92858
5.07446
5.26347
5.42134
5.48063
5.44656
5.34703
5.19855
5.00729
4.75576
532.094
526.47
4.54695
4.73308
4.88942
5.05249
5.19271
5.29456
5.36015
5.3977
5.41549
5.42133
5.42194
5.42332
5.43119
5.44909
5.47791
5.51349
5.53917
5.53444
5.49439
5.42684
5.34007
5.22659
5.07319
4.90313
4.76568
4.70472
4.77336
4.95666
5.13638
5.20205
5.16142
5.0416
4.82296
531.812
526.484
4.56708
4.75788
4.91127
5.06348
5.19469
5.28783
5.34377
5.37041
5.3759
5.3661
5.34452
5.3134
5.27505
5.23286
5.1922
5.1611
5.14832
5.15986
5.20146
5.27111
5.35831
5.43657
5.46916
5.43407
5.30913
5.06574
4.79461
4.65546
4.72332
4.88665
4.97866
4.95031
4.79965
531.655
526.483
4.56321
4.76207
4.907
5.03583
5.15018
5.23579
5.28926
5.31457
5.3174
5.30337
5.27828
5.24859
5.22155
5.2054
5.20772
5.23223
5.27605
5.32993
5.38262
5.42694
5.46348
5.49599
5.52557
5.54299
5.52678
5.44608
5.25722
4.96598
4.72376
4.66137
4.71233
4.73866
4.69059
534.05
526.459
4.5196
4.71358
4.84625
4.95154
5.04471
5.12208
5.17462
5.19684
5.1883
5.15535
5.11166
5.07485
5.0551
5.05877
5.08678
5.13563
5.19824
5.26957
5.35176
5.44985
5.56424
5.68563
5.79525
5.87386
5.90822
5.88709
5.79371
5.60403
5.31191
5.02135
4.84884
4.76469
4.68376
533.928
526.444
4.4968
4.68494
4.81406
4.91313
4.98955
5.03228
5.02904
4.98453
4.92739
4.89501
4.90656
4.95903
5.04094
5.13988
5.245
5.34863
5.4492
5.54879
5.64886
5.74723
5.83982
5.92254
5.99209
6.0436
6.06836
6.05397
5.98516
5.84604
5.62788
5.35898
5.11494
4.93492
4.75193
531.347
526.475
4.5222
4.69634
4.78574
4.82049
4.80875
4.76558
4.74422
4.78923
4.90079
5.04811
5.20254
5.34093
5.44852
5.52715
5.5869
5.63825
5.68947
5.74565
5.80701
5.86969
5.92859
5.97898
6.01625
6.03504
6.02769
5.9834
5.88861
5.73444
5.52722
5.29411
5.07844
4.89727
4.68347
529.593
526.54
4.53669
4.6642
4.71247
4.71706
4.72945
4.81572
4.99599
5.2144
5.39143
5.49369
5.53698
5.5435
5.52681
5.49817
5.46872
5.4475
5.44091
5.45307
5.48554
5.5369
5.60276
5.67742
5.75434
5.82499
5.87815
5.90008
5.87435
5.7855
5.62643
5.40817
5.16531
4.93514
4.67897
528.905
526.552
4.50035
4.6063
4.65849
4.69384
4.76825
4.91732
5.10971
5.27786
5.39122
5.4615
5.50332
5.52401
5.5268
5.51353
5.48631
5.44916
5.40959
5.3789
5.36933
5.38859
5.43724
5.51047
5.60093
5.69951
5.79522
5.8746
5.92053
5.91258
5.83023
5.66206
5.4217
5.15487
4.83773
528.801
526.499
4.44173
4.54838
4.61776
4.68366
4.78283
4.93316
5.12369
5.31463
5.47146
5.58244
5.65206
5.68901
5.69827
5.68138
5.63955
5.5768
5.50333
5.43764
5.40212
5.41059
5.4601
5.53669
5.62637
5.72046
5.81289
5.89668
5.96074
5.98702
5.95072
5.82797
5.61431
5.34135
4.98472
528.81
526.439
4.41645
4.54811
4.64643
4.74416
4.8636
5.01975
5.19841
5.36201
5.48436
5.56212
5.60432
5.61891
5.60953
5.57741
5.5233
5.44937
5.36168
5.27416
5.21083
5.19776
5.24488
5.33839
5.45466
5.57552
5.6917
5.79811
5.8873
5.9443
5.94477
5.86162
5.68374
5.43311
5.07768
529.682
526.391
4.34512
4.47585
4.58995
4.71066
4.85092
5.00735
5.15991
5.2886
5.38299
5.44184
5.46983
5.4743
5.4625
5.44005
5.41056
5.37526
5.3327
5.27951
5.2161
5.15871
5.14132
5.19052
5.2992
5.4364
5.57513
5.70187
5.80901
5.88483
5.90748
5.84935
5.69768
5.47177
5.13576
529.542
526.367
4.35552
4.53723
4.71853
4.90002
5.06983
5.21046
5.3092
5.36229
5.37314
5.34908
5.2993
5.2343
5.16436
5.09784
5.03971
4.99044
4.95288
4.94204
4.97639
5.05613
5.16099
5.27155
5.38005
5.48697
5.59506
5.70424
5.80778
5.8901
5.92618
5.88635
5.75254
5.5298
5.18485
530.154
526.372
4.52243
4.81325
5.04301
5.2063
5.29533
5.31257
5.27214
5.1943
5.09715
4.98954
4.87584
4.76877
4.70252
4.71983
4.82467
4.96834
5.09836
5.19569
5.27121
5.3388
5.40476
5.47097
5.53784
5.60577
5.67794
5.75469
5.82644
5.87694
5.88471
5.8287
5.69911
5.48961
5.15195
531.534
526.404
4.68019
4.98807
5.14692
5.17635
5.09945
4.96443
4.84299
4.78339
4.78925
4.84145
4.91235
4.98167
5.0419
5.09532
5.14961
5.20931
5.27302
5.33765
5.40134
5.46278
5.52102
5.57557
5.62546
5.67053
5.7093
5.73512
5.73947
5.71561
5.6577
5.56084
5.42049
5.21749
4.90518
531.709
526.405
4.81912
5.1104
5.1738
5.07974
4.93204
4.83708
4.82332
4.84013
4.84627
4.84199
4.83763
4.83801
4.84568
4.86183
4.8865
4.91975
4.96165
5.01153
5.06848
5.12983
5.1921
5.25248
5.30844
5.35717
5.39605
5.42047
5.42384
5.4001
5.34549
5.25779
5.13222
4.95333
4.69757
534.677
526.516
4.92338
5.23465
5.36676
5.37489
5.31501
5.23749
5.17041
5.11873
5.07519
5.03369
4.99219
4.95208
4.91638
4.88752
4.86608
4.8511
4.84146
4.83674
4.83727
4.84359
4.85569
4.87297
4.89272
4.91066
4.92228
4.92436
4.91563
4.896
4.86432
4.81737
4.74978
4.65114
4.50759
534.833
526.568
4.93049
5.22668
5.38515
5.46715
5.49058
5.47617
5.44226
5.39973
5.3528
5.30239
5.24791
5.19068
5.13653
5.09434
5.07054
5.065
5.07185
5.08476
5.09997
5.11509
5.12718
5.13293
5.12974
5.11612
5.09084
5.05244
4.9994
4.93069
4.84743
4.75153
4.64512
4.5322
4.40592
530.92
526.527
4.81595
5.10144
5.26106
5.36043
5.41837
5.44315
5.44197
5.42265
5.39145
5.35067
5.29906
5.2355
5.16053
5.07767
4.99383
4.91998
4.87063
4.85576
4.87786
4.93202
5.01088
5.10892
5.21612
5.31746
5.39775
5.44507
5.45217
5.41599
5.33567
5.20907
5.03427
4.81174
4.56168
528.246
526.458
4.58664
4.8389
5.00394
5.12199
5.21027
5.26988
5.30151
5.30723
5.28843
5.24643
5.1823
5.09765
4.99961
4.90233
4.82354
4.77917
4.77765
4.81872
4.89469
4.99478
5.10956
5.23022
5.34801
5.45607
5.54888
5.61997
5.66047
5.65988
5.60749
5.49429
5.31567
5.07289
4.75288
528.219
526.443
4.51067
4.72966
4.88258
4.99159
5.06807
5.11253
5.1242
5.1055
5.06249
5.00285
4.93456
4.86749
4.81356
4.78335
4.78346
4.81547
4.87609
4.96152
5.07162
5.20485
5.35114
5.49201
5.60924
5.69318
5.74277
5.7605
5.74791
5.70316
5.61945
5.48636
5.29757
5.05897
4.75127
528.797
526.468
4.51702
4.71018
4.82554
4.89437
4.9342
4.94993
4.94606
4.92897
4.90366
4.87541
4.8536
4.84898
4.86713
4.90557
4.96045
5.03024
5.11414
5.20569
5.2952
5.37672
5.4491
5.51323
5.56977
5.61916
5.65919
5.68443
5.68901
5.6652
5.60035
5.48033
5.29797
5.06315
4.76081
529.099
526.469
4.46323
4.61067
4.7
4.76129
4.80428
4.8319
4.84838
4.85738
4.86267
4.86996
4.88435
4.90883
4.9444
4.98947
5.04128
5.09776
5.15667
5.21618
5.27543
5.33437
5.39331
5.45236
5.51086
5.56684
5.61669
5.65517
5.67637
5.67116
5.62619
5.52641
5.36309
5.14371
4.83953
528.759
526.454
4.41776
4.54866
4.64829
4.73466
4.80227
4.85691
4.90207
4.93704
4.96231
4.97942
4.98948
4.99334
4.99343
4.99427
5.00266
5.02527
5.06464
5.11791
5.17961
5.24542
5.31421
5.38559
5.45781
5.52841
5.59371
5.64879
5.68766
5.70147
5.67662
5.59662
5.4499
5.23878
4.92536
528.804
526.438
4.40976
4.56041
4.69175
4.80861
4.9068
4.98413
5.03443
5.05421
5.04686
5.02258
4.99031
4.95554
4.92255
4.89731
4.88987
4.90934
4.95924
5.03298
5.11728
5.20252
5.28785
5.37386
5.45811
5.53784
5.60974
5.66903
5.7096
5.72397
5.69979
5.62315
5.48716
5.29098
4.98355
529.553
526.421
4.41089
4.57393
4.7141
4.84355
4.94862
5.01461
5.0336
5.00827
4.95513
4.90028
4.85447
4.82004
4.7993
4.79845
4.82295
4.87521
4.95412
5.04726
5.1389
5.2266
5.31422
5.40131
5.48477
5.56093
5.62538
5.67273
5.69695
5.69178
5.64842
5.55958
5.42515
5.24146
4.95218
529.194
526.404
4.39109
4.54865
4.67898
4.78827
4.85746
4.87772
4.85628
4.81158
4.76767
4.73994
4.7288
4.73393
4.76262
4.81953
4.90267
5.00228
5.09833
5.1826
5.26123
5.34065
5.4216
5.50386
5.58575
5.66386
5.73303
5.7865
5.81668
5.81612
5.77561
5.68623
5.54486
5.34142
5.01651
529.255
526.413
4.41568
4.5738
4.6824
4.72897
4.71939
4.68655
4.67471
4.69724
4.73744
4.78401
4.83413
4.88885
4.95141
5.02516
5.1078
5.19156
5.2729
5.35063
5.42262
5.48742
5.54467
5.59513
5.63962
5.67872
5.71271
5.73775
5.74605
5.73024
5.68268
5.59597
5.46408
5.26822
4.95091
529.966
526.478
4.49676
4.64686
4.72174
4.73031
4.70835
4.71323
4.75669
4.81034
4.85581
4.89262
4.92523
4.95465
4.98286
5.01315
5.04784
5.09045
5.14395
5.21151
5.29492
5.39225
5.4953
5.59045
5.67212
5.73768
5.7796
5.79226
5.7715
5.71341
5.61948
5.4947
5.3427
5.14762
4.85347
530.053
526.491
4.46968
4.60466
4.6829
4.72555
4.73291
4.70729
4.66186
4.63479
4.67179
4.77047
4.87615
4.94969
4.99768
5.03592
5.06984
5.09715
5.11361
5.11975
5.12002
5.12015
5.12643
5.14396
5.17616
5.23002
5.30928
5.4042
5.48728
5.52992
5.51739
5.44748
5.32618
5.14744
4.86158
531.062
526.444
4.38917
4.51935
4.60334
4.65686
4.68486
4.68837
4.67207
4.64548
4.61946
4.6007
4.59433
4.60748
4.64526
4.70981
4.80356
4.92299
5.05179
5.16972
5.26414
5.33128
5.37031
5.38131
5.36624
5.3305
5.28266
5.23539
5.20483
5.20224
5.21825
5.21979
5.17857
5.07634
4.86585
531.169
526.427
4.35472
4.47294
4.54728
4.59432
4.62373
4.64053
4.65056
4.65944
4.67162
4.69069
4.71953
4.75714
4.80294
4.85912
4.92914
5.01551
5.11305
5.2137
5.31055
5.39873
5.47546
5.53898
5.58737
5.61747
5.62421
5.60112
5.54531
5.46388
5.37625
5.29885
5.22229
5.1227
4.95557
530.988
526.415
4.29979
4.39269
4.46514
4.52997
4.59024
4.64673
4.69845
4.74302
4.7775
4.80292
4.82461
4.84836
4.8812
4.93162
5.00048
5.08006
5.16114
5.2408
5.31921
5.39464
5.46493
5.52794
5.58193
5.62748
5.66339
5.68231
5.67358
5.62854
5.54966
5.45231
5.34719
5.23275
5.07387
532.874
526.402
4.30907
4.43417
4.55669
4.67258
4.77096
4.84194
4.88288
4.89983
4.9023
4.8972
4.89193
4.89649
4.91794
4.95552
5.00648
5.06928
5.14031
5.21594
5.29325
5.36969
5.4427
5.50969
5.56745
5.61492
5.65075
5.66612
5.64648
5.58303
5.48398
5.37354
5.27143
5.16998
5.02661
533.691
526.384
4.36082
4.55175
4.71679
4.83686
4.90387
4.92493
4.91746
4.89536
4.86725
4.8414
4.82989
4.84281
4.88111
4.93526
4.99929
5.07218
5.14985
5.22884
5.30677
5.38191
5.4527
5.51747
5.57412
5.6245
5.6658
5.68276
5.65825
5.5825
5.4635
5.32744
5.20211
5.07483
4.90768
533.98
526.379
4.47408
4.72568
4.88448
4.95326
4.95591
4.91691
4.85328
4.78513
4.74055
4.74113
4.78749
4.86382
4.95042
5.03467
5.11621
5.19559
5.26987
5.33721
5.39662
5.4474
5.48896
5.52062
5.54333
5.55627
5.55502
5.53471
5.49037
5.41819
5.32003
5.20635
5.0877
4.95153
4.77487
533.475
526.398
4.598
4.8788
5.03281
5.09457
5.09358
5.04963
4.97671
4.8884
4.80254
4.74051
4.71934
4.74447
4.81047
4.90644
5.02096
5.14423
5.2665
5.3787
5.47324
5.54602
5.59821
5.63054
5.64314
5.63366
5.59743
5.53266
5.44326
5.33777
5.22683
5.11976
5.01744
4.89831
4.72051
530.816
526.4
4.67445
5.00706
5.21618
5.32178
5.34472
5.30238
5.20954
5.08579
4.95505
4.83775
4.74712
4.69123
4.67475
4.69861
4.75973
4.85216
4.96757
5.09756
5.23379
5.36872
5.49533
5.60691
5.69657
5.7574
5.7828
5.76922
5.71586
5.62569
5.50646
5.36915
5.22076
5.04588
4.79891
530.439
526.415
4.65707
4.94837
5.13936
5.25061
5.30517
5.32133
5.30978
5.27513
5.21926
5.14507
5.05825
4.96677
4.87961
4.8054
4.75109
4.72085
4.71594
4.73547
4.77751
4.83993
4.91987
5.01345
5.11534
5.21858
5.31426
5.39225
5.44246
5.45643
5.42895
5.35862
5.2451
5.07717
4.81737
532.399
526.45
4.69923
4.98287
5.17064
5.27297
5.31589
5.32606
5.32118
5.31046
5.29769
5.28337
5.26578
5.24222
5.2104
5.16943
5.12
5.06379
5.00304
4.94054
4.87964
4.82373
4.77592
4.73911
4.71654
4.71112
4.72414
4.75415
4.79662
4.84336
4.88297
4.9015
4.88203
4.80202
4.63251
532.364
526.482
4.72426
4.97555
5.13443
5.23359
5.27925
5.28946
5.28241
5.27039
5.25976
5.253
5.24998
5.24925
5.2489
5.24683
5.2408
5.22864
5.20878
5.18082
5.14578
5.10527
5.06107
5.01292
4.95967
4.90187
4.84105
4.77971
4.72236
4.67398
4.63662
4.60591
4.56902
4.5098
4.41206
531.018
526.464
4.64205
4.86702
4.99999
5.08406
5.13119
5.15167
5.15484
5.14843
5.1377
5.12598
5.11698
5.11522
5.12444
5.14561
5.17536
5.20674
5.23229
5.24719
5.24924
5.23759
5.21314
5.17824
5.13569
5.08802
5.03667
4.97988
4.91541
4.84343
4.76376
4.67636
4.58085
4.4752
4.35787
530.508
526.412
4.46722
4.656
4.77957
4.86853
4.9323
4.97768
5.00989
5.03281
5.04906
5.06023
5.06709
5.06964
5.0675
5.06077
5.05127
5.04283
5.04017
5.04667
5.06271
5.08535
5.10878
5.12592
5.13136
5.12285
5.10126
5.0692
5.02762
4.97503
4.90942
4.82749
4.72315
4.58954
4.42071
530.293
526.381
4.31132
4.44167
4.53835
4.61202
4.66888
4.71316
4.74805
4.77593
4.79847
4.81671
4.83189
4.845
4.85641
4.86641
4.87525
4.88293
4.88931
4.8943
4.89833
4.90205
4.90633
4.91137
4.91655
4.92115
4.92473
4.92734
4.9288
4.92775
4.91939
4.89196
4.82758
4.70781
4.51584
529.791
526.373
4.23839
4.33542
4.41508
4.47359
4.51181
4.53336
4.54238
4.5427
4.53765
4.53
4.5217
4.51432
4.50898
4.50636
4.50637
4.50897
4.51398
4.52081
4.5291
4.53888
4.55101
4.56764
4.5927
4.632
4.6902
4.7652
4.84753
4.92274
4.973
4.97866
4.92281
4.79939
4.5971
530.056
526.397
4.3811
4.56881
4.69503
4.76324
4.78921
4.78631
4.76393
4.72963
4.68995
4.65018
4.61405
4.58385
4.56162
4.54895
4.54698
4.55639
4.57732
4.60929
4.65218
4.70583
4.76925
4.84019
4.91489
4.98801
5.05317
5.10356
5.13286
5.13612
5.10841
5.04244
4.93639
4.7951
4.59523
529.14
526.42
4.52115
4.75878
4.90756
4.99264
5.02708
5.02265
4.99389
4.95464
4.91522
4.88039
4.85025
4.82336
4.79891
4.77726
4.75995
4.74945
4.7486
4.7601
4.78649
4.82958
4.88982
4.96546
5.05212
5.14245
5.22661
5.2933
5.33154
5.3327
5.2909
5.2026
5.06996
4.8983
4.65981
528.388
526.432
4.53975
4.79379
4.99805
5.13312
5.20043
5.21464
5.19377
5.15625
5.1169
5.08223
5.04964
5.0151
4.97714
4.93624
4.89385
4.85252
4.8155
4.78576
4.76612
4.75973
4.76976
4.79841
4.84634
4.91196
4.99081
5.0745
5.15083
5.20433
5.21804
5.17825
5.07935
4.92238
4.68513
530.465
526.434
4.55726
4.81585
5.02021
5.16956
5.2684
5.32974
5.36412
5.37785
5.37483
5.35761
5.32802
5.28786
5.23952
5.18621
5.13152
5.07884
5.02919
4.98162
4.93372
4.88471
4.83727
4.79538
4.76163
4.73819
4.72819
4.73469
4.75784
4.79213
4.82516
4.83844
4.8112
4.72675
4.56519
532.112
526.489
4.78378
5.10828
5.30591
5.41741
5.46798
5.48117
5.47408
5.4555
5.43006
5.40022
5.36704
5.33117
5.2937
5.25546
5.21761
5.18292
5.1542
5.131
5.11008
5.08832
5.06313
5.03219
4.99487
4.94839
4.88928
4.82169
4.75306
4.68776
4.62992
4.58093
4.53316
4.47176
4.38019
531.25
526.578
4.96943
5.30434
5.48116
5.56814
5.59006
5.57394
5.54175
5.50545
5.46989
5.4365
5.40481
5.37315
5.33981
5.30363
5.26383
5.22043
5.17444
5.12826
5.08575
5.05118
5.02791
5.01624
5.01303
5.01302
5.01021
4.9985
4.97063
4.91673
4.83214
4.72204
4.59575
4.46449
4.33529
529.955
526.555
4.86579
5.1788
5.35018
5.45129
5.5034
5.5169
5.50356
5.47433
5.43715
5.3965
5.35415
5.3105
5.2664
5.22309
5.18143
5.14218
5.10619
5.0741
5.04632
5.0234
5.00593
4.99469
4.99057
4.99364
5.00244
5.01328
5.02064
5.01791
4.99486
4.93431
4.81996
4.64723
4.42788
528.913
526.483
4.64038
4.908
5.07142
5.17858
5.24943
5.29025
5.30554
5.29962
5.27646
5.23953
5.19137
5.13487
5.07481
5.01591
4.96176
4.91663
4.88402
4.86584
4.86172
4.86989
4.88809
4.9141
4.94497
4.97752
5.00926
5.03896
5.0653
5.08435
5.08671
5.0563
4.97088
4.8063
4.54793
528.163
526.452
4.53392
4.75799
4.90138
4.99963
5.0668
5.106
5.1181
5.10362
5.06456
5.00633
4.93845
4.87273
4.81842
4.77998
4.75874
4.75392
4.76341
4.78433
4.8142
4.85123
4.89461
4.94345
4.99677
5.05323
5.11094
5.16675
5.21514
5.24744
5.25177
5.21246
5.11065
4.92924
4.65172
528.056
526.447
4.50137
4.69416
4.80431
4.8701
4.9049
4.90958
4.88588
4.84161
4.78945
4.74289
4.71102
4.69744
4.70157
4.72086
4.75175
4.78957
4.83046
4.87297
4.91716
4.9643
5.01514
5.07044
5.13047
5.19483
5.2616
5.32557
5.37684
5.40148
5.38372
5.30839
5.16716
4.96651
4.69274
528.467
526.428
4.37954
4.50698
4.5809
4.62224
4.63754
4.63758
4.63447
4.63595
4.64675
4.66927
4.70361
4.7451
4.7881
4.83053
4.87234
4.91429
4.95638
4.99797
5.04001
5.08475
5.13416
5.18794
5.24371
5.29739
5.34448
5.3808
5.40174
5.40044
5.36637
5.28668
5.1532
4.96955
4.71227
528.842
526.406
4.28184
4.3833
4.46818
4.54055
4.60209
4.65513
4.70244
4.7448
4.77973
4.80833
4.83306
4.85529
4.8781
4.90581
4.94092
4.98323
5.03017
5.07836
5.12583
5.17277
5.21963
5.26582
5.31014
5.35065
5.38441
5.40799
5.41671
5.4031
5.3578
5.27235
5.14411
4.97636
4.73293
529.044
526.4
4.33243
4.49106
4.62269
4.71258
4.76171
4.7816
4.78668
4.78832
4.79405
4.80836
4.83251
4.86561
4.90575
4.95107
4.99997
5.05112
5.10335
5.15553
5.20674
5.25615
5.30289
5.346
5.38429
5.41626
5.43986
5.45232
5.44987
5.42656
5.37489
5.28863
5.16634
5.00632
4.76285
529.148
526.422
4.43742
4.62842
4.74535
4.79574
4.80761
4.8036
4.79548
4.78755
4.78124
4.77808
4.7802
4.79038
4.8109
4.8429
4.88722
4.94337
5.00788
5.07711
5.14734
5.21469
5.27608
5.33022
5.37469
5.40642
5.42413
5.42666
5.41142
5.37529
5.31533
5.22926
5.1158
4.96592
4.73039
529.576
526.498
4.52775
4.72425
4.8551
4.91605
4.92893
4.91767
4.89647
4.86996
4.83904
4.80551
4.77235
4.74286
4.72045
4.70767
4.70645
4.71762
4.74064
4.77522
4.82211
4.88197
4.95466
5.0384
5.12855
5.21569
5.28614
5.32908
5.33929
5.31489
5.25532
5.16358
5.04504
4.89705
4.67482
529.931
526.502
4.50426
4.67854
4.81223
4.93124
5.02791
5.0979
5.14028
5.15539
5.14395
5.10801
5.05314
4.98917
4.92804
4.8788
4.84387
4.82011
4.802
4.78408
4.76349
4.74153
4.72228
4.71046
4.71221
4.73582
4.79019
4.87888
4.98806
5.08339
5.12927
5.11274
5.04043
4.91441
4.69544
530.161
526.48
4.48159
4.65291
4.77828
4.88771
4.97729
5.03832
5.07097
5.08015
5.07202
5.05126
5.02188
4.98719
4.95078
4.92006
4.90521
4.91504
4.94946
4.99629
5.03867
5.06592
5.07507
5.06274
5.02081
4.94354
4.84194
4.74365
4.68172
4.68348
4.75213
4.84233
4.88314
4.83752
4.678
530.259
526.475
4.47074
4.64296
4.76641
4.8664
4.94448
4.99833
5.02661
5.03178
5.01789
4.98969
4.9523
4.91093
4.87037
4.83568
4.81167
4.80209
4.80858
4.83035
4.86454
4.90998
4.96785
5.03699
5.10898
5.16695
5.19131
5.16704
5.08506
4.95424
4.82626
4.76804
4.77243
4.75552
4.64389
530.034
526.458
4.42649
4.58927
4.70436
4.79305
4.86096
4.90868
4.93469
4.93871
4.92183
4.88684
4.84081
4.79639
4.76512
4.75573
4.77274
4.81617
4.88136
4.9599
5.04406
5.12898
5.2096
5.2802
5.33572
5.37242
5.38743
5.37607
5.33235
5.24741
5.11909
4.98079
4.88014
4.80537
4.68328
529.822
526.445
4.39148
4.53953
4.6438
4.72081
4.77108
4.79495
4.79049
4.75676
4.70526
4.66088
4.64325
4.65849
4.70388
4.77205
4.85349
4.93841
5.02012
5.09636
5.16822
5.23604
5.29867
5.35326
5.39633
5.42403
5.43198
5.41556
5.37011
5.29323
5.18812
5.0719
4.96672
4.87218
4.74054
530.24
526.445
4.36915
4.50116
4.58399
4.63151
4.64747
4.63117
4.59572
4.57128
4.58414
4.63793
4.72196
4.81998
4.91527
4.99698
5.06345
5.11871
5.16762
5.2143
5.26104
5.30762
5.35187
5.39034
5.41897
5.43389
5.42889
5.39528
5.32741
5.2348
5.14
5.05543
4.97825
4.89366
4.76315
531.213
526.455
4.38235
4.50442
4.5687
4.59378
4.58793
4.57443
4.58862
4.64709
4.73808
4.83596
4.91703
4.9747
5.01482
5.04583
5.07527
5.10884
5.1498
5.19861
5.25353
5.31086