/*--------------------------------*- C++ -*----------------------------------*\
| =========                 |                                                 |
| \\      /  F ield         | OpenFOAM: The Open Source CFD Toolbox           |
|  \\    /   O peration     | Version:  v1906                                 |
|   \\  /    A nd           | Web:      www.OpenFOAM.com                      |
|    \\/     M anipulation  |                                                 |
\*---------------------------------------------------------------------------*/
FoamFile
{
    version     2.0;
    format      ascii;
    class       surfaceScalarField;
    location    "91/oil";
    object      phi;
}
// * * * * * * * * * * * * * * * * * * * * * * * * * * * * * * * * * * * * * //

dimensions      [1 0 -1 0 0 0 0];
oriented        oriented;


internalField   nonuniform List<scalar> 
80688
(
-2.05659e-06
-2.09073e-06
-2.05659e-06
-9.27794e-07
-5.83511e-07
-5.45284e-07
-2.48665e-07
-3.4184e-07
-3.37289e-07
-1.1592e-07
-6.66772e-08
-6.60678e-08
-3.64781e-08
-3.97342e-08
-3.97081e-08
3.87664e-09
-1.98532e-08
-2.05018e-08
2.67069e-08
-1.07272e-08
-1.21032e-08
3.96678e-08
-5.50443e-09
-7.45657e-09
4.59866e-08
-2.00449e-09
-4.31449e-09
4.70481e-08
6.89027e-10
-1.75071e-09
4.359e-08
2.93703e-09
5.20974e-10
3.62805e-08
4.81145e-09
2.498e-09
2.58537e-08
6.29043e-09
4.13623e-09
1.32093e-08
7.32765e-09
5.31675e-09
-6.11152e-10
7.87417e-09
5.9462e-09
-1.44934e-08
7.90462e-09
5.97763e-09
-2.73378e-08
7.42597e-09
5.4183e-09
-3.81519e-08
6.48179e-09
4.33234e-09
-4.61408e-08
5.14826e-09
2.84053e-09
-5.0773e-08
3.52492e-09
1.1073e-09
-5.18231e-08
1.73473e-09
-6.8465e-10
-4.93643e-08
-9.89397e-11
-2.3599e-09
-4.38353e-08
-1.82427e-09
-3.70481e-09
-3.59393e-08
-3.34051e-09
-4.55553e-09
-2.66402e-08
-4.50225e-09
-4.79687e-09
-1.71075e-08
-5.14856e-09
-4.38424e-09
-8.63558e-09
-5.07926e-09
-3.39267e-09
-2.49977e-09
-4.06169e-09
-2.07417e-09
3.54819e-10
-1.91486e-09
-9.39795e-10
7.06008e-10
-3.51228e-10
-5.52515e-07
-9.85704e-07
-5.52508e-07
-3.26275e-07
-3.68005e-07
-4.41746e-07
-2.24342e-07
-2.5634e-07
-1.87434e-07
-9.38022e-08
-1.23549e-07
-7.36688e-08
-1.44575e-08
-8.32967e-08
-3.57824e-08
3.59115e-08
-5.76676e-08
-1.25548e-08
6.89799e-08
-4.38127e-08
1.68937e-11
8.94153e-08
-3.40952e-08
8.15517e-09
9.93746e-08
-2.63366e-08
1.43726e-08
9.98869e-08
-1.95252e-08
1.97018e-08
9.17668e-08
-1.34186e-08
2.44757e-08
7.60116e-08
-8.10247e-09
2.8669e-08
5.39999e-08
-3.79272e-09
3.20948e-08
2.75126e-08
-7.35767e-10
3.45506e-08
-1.35845e-09
8.86491e-10
3.58587e-08
-3.03527e-08
9.70731e-10
3.59281e-08
-5.72312e-08
-4.68856e-10
3.47733e-08
-7.9982e-08
-3.28344e-09
3.25159e-08
-9.69828e-08
-7.2358e-09
2.93849e-08
-1.07147e-07
-1.19817e-08
2.56709e-08
-1.10014e-07
-1.71216e-08
2.17228e-08
-1.05781e-07
-2.22154e-08
1.78838e-08
-9.52716e-08
-2.68112e-08
1.44775e-08
-7.9902e-08
-3.04514e-08
1.17412e-08
-6.15614e-08
-3.26596e-08
9.81671e-09
-4.24702e-08
-3.2921e-08
8.68123e-09
-2.49711e-08
-3.06675e-08
8.08904e-09
-1.12242e-08
-2.53096e-08
7.50099e-09
-2.7601e-09
-1.63936e-08
6.01451e-09
-4.82001e-09
2.76588e-09
-3.41537e-07
-3.02638e-07
-3.41529e-07
-2.19714e-07
-3.01818e-07
-1.88011e-07
-1.31892e-07
-2.33363e-07
-1.10799e-07
-4.27912e-08
-1.64608e-07
-4.80418e-08
2.23696e-08
-1.33735e-07
-1.47231e-08
7.09522e-08
-1.12371e-07
6.12071e-09
1.05636e-07
-9.77056e-08
1.92092e-08
1.2793e-07
-8.51506e-08
2.87607e-08
1.38385e-07
-7.34183e-08
3.66268e-08
1.37307e-07
-6.20828e-08
4.36356e-08
1.25266e-07
-5.13612e-08
4.99838e-08
1.03338e-07
-4.17456e-08
5.55711e-08
7.32405e-08
-3.38252e-08
6.01295e-08
3.72637e-08
-2.81497e-08
6.33907e-08
-1.84102e-09
-2.51341e-08
6.51253e-08
-4.10952e-08
-2.49916e-08
6.52165e-08
-7.75465e-08
-2.76974e-08
6.36798e-08
-1.0852e-07
-3.29808e-08
6.0671e-08
-1.31881e-07
-4.03463e-08
5.64711e-08
-1.46187e-07
-4.91183e-08
5.14425e-08
-1.50833e-07
-5.84901e-08
4.60145e-08
-1.46058e-07
-6.75791e-08
4.05884e-08
-1.32939e-07
-7.54713e-08
3.55411e-08
-1.13272e-07
-8.12407e-08
3.11228e-08
-8.94323e-08
-8.39488e-08
2.74491e-08
-6.41551e-08
-8.26253e-08
2.44271e-08
-4.02505e-08
-7.62613e-08
2.16891e-08
-2.02741e-08
-6.38131e-08
1.8527e-08
-6.22819e-09
-4.42647e-08
1.38251e-08
-1.72829e-08
6.2347e-09
-6.09023e-08
-1.80843e-07
-6.08928e-08
-7.15578e-08
-2.25627e-07
-6.55351e-08
-3.75483e-08
-2.24693e-07
-4.2679e-08
1.53191e-08
-2.06301e-07
-1.11744e-08
6.51455e-08
-1.94059e-07
1.04983e-08
1.07868e-07
-1.81515e-07
2.64212e-08
1.4078e-07
-1.68946e-07
3.8328e-08
1.62482e-07
-1.55032e-07
4.81799e-08
1.71946e-07
-1.39862e-07
5.69795e-08
1.68682e-07
-1.2397e-07
6.51512e-08
1.52915e-07
-1.08278e-07
7.26836e-08
1.25687e-07
-9.38717e-08
7.93535e-08
8.89048e-08
-8.18517e-08
8.4809e-08
4.52247e-08
-7.3183e-08
8.87134e-08
-2.1284e-09
-6.8568e-08
9.07869e-08
-4.9633e-08
-6.83741e-08
9.0887e-08
-9.37898e-08
-7.25706e-08
8.90301e-08
-1.31437e-07
-8.0729e-08
8.53955e-08
-1.60033e-07
-9.20559e-08
8.03057e-08
-1.7788e-07
-1.05456e-07
7.41837e-08
-1.84244e-07
-1.19629e-07
6.75034e-08
-1.79404e-07
-1.3315e-07
6.073e-08
-1.64576e-07
-1.44556e-07
5.42577e-08
-1.4181e-07
-1.52357e-07
4.83492e-08
-1.1377e-07
-1.55085e-07
4.30969e-08
-8.34987e-08
-1.51253e-07
3.83561e-08
-5.41169e-08
-1.39325e-07
3.36815e-08
-2.8522e-08
-1.17653e-07
2.82451e-08
-9.33693e-09
-8.41965e-08
2.07467e-08
-3.59637e-08
9.34379e-09
-2.63138e-08
-1.28225e-07
-2.63037e-08
-1.83247e-08
-2.13432e-07
-2.01842e-08
1.32276e-08
-2.52549e-07
-3.69643e-09
5.71025e-08
-2.65818e-07
1.56424e-08
1.01685e-07
-2.699e-07
3.1258e-08
1.41928e-07
-2.65975e-07
4.42166e-08
1.73917e-07
-2.56225e-07
5.52905e-08
1.94992e-07
-2.41514e-07
6.54062e-08
2.03275e-07
-2.23176e-07
7.50313e-08
1.97754e-07
-2.02727e-07
8.42783e-08
1.78392e-07
-1.81869e-07
9.2953e-08
1.4622e-07
-1.62387e-07
1.00687e-07
1.03294e-07
-1.45972e-07
1.07047e-07
5.2583e-08
-1.3407e-07
1.11598e-07
-2.26577e-09
-1.27733e-07
1.14014e-07
-5.7255e-08
-1.27501e-07
1.14116e-07
-1.08398e-07
-1.33344e-07
1.11916e-07
-1.52096e-07
-1.44655e-07
1.07625e-07
-1.85458e-07
-1.60303e-07
1.01609e-07
-2.06552e-07
-1.7872e-07
9.43584e-08
-2.14544e-07
-1.98052e-07
8.64144e-08
-2.09719e-07
-2.1627e-07
7.82958e-08
-1.93426e-07
-2.31275e-07
7.04252e-08
-1.67898e-07
-2.40982e-07
6.30973e-08
-1.36038e-07
-2.43338e-07
5.63929e-08
-1.01151e-07
-2.36273e-07
5.01338e-08
-6.66498e-08
-2.17638e-07
4.38118e-08
-3.58329e-08
-1.84952e-07
3.6482e-08
-1.20039e-08
-1.34677e-07
2.6651e-08
-5.99787e-08
1.20111e-08
-2.69953e-09
-1.22837e-07
-2.68852e-09
1.54907e-08
-2.39818e-07
8.19497e-09
4.83274e-08
-3.0698e-07
2.15938e-08
9.02545e-08
-3.43326e-07
3.55807e-08
1.33763e-07
-3.61472e-07
4.80633e-08
1.7374e-07
-3.6545e-07
5.94984e-08
2.05846e-07
-3.5866e-07
7.03298e-08
2.26759e-07
-3.43416e-07
8.09885e-08
2.3407e-07
-3.22108e-07
9.16209e-08
2.26403e-07
-2.97171e-07
1.02111e-07
2.03547e-07
-2.71111e-07
1.12098e-07
1.66527e-07
-2.46438e-07
1.21071e-07
1.17559e-07
-2.25486e-07
1.28482e-07
5.99328e-08
-2.10236e-07
1.33792e-07
-2.28895e-09
-2.02112e-07
1.36601e-07
-6.46294e-08
-2.01857e-07
1.36697e-07
-1.22621e-07
-2.09443e-07
1.34091e-07
-1.72225e-07
-2.2407e-07
1.29018e-07
-2.10205e-07
-2.44235e-07
1.21912e-07
-2.34409e-07
-2.67864e-07
1.13348e-07
-2.43904e-07
-2.92512e-07
1.03955e-07
-2.38999e-07
-3.15486e-07
9.43107e-08
-2.21166e-07
-3.34043e-07
8.49351e-08
-1.92828e-07
-3.45452e-07
7.6132e-08
-1.57136e-07
-3.47026e-07
6.79961e-08
-1.17668e-07
-3.36065e-07
6.03245e-08
-7.81792e-08
-3.09679e-07
5.25517e-08
-4.2403e-08
-2.6434e-07
4.36117e-08
-1.4329e-08
-1.94539e-07
3.1788e-08
-8.86447e-08
1.43369e-08
8.31955e-09
-1.39489e-07
8.33152e-09
3.41865e-08
-2.89765e-07
2.40805e-08
7.17154e-08
-3.82234e-07
3.77248e-08
1.16161e-07
-4.3797e-07
5.01987e-08
1.61699e-07
-4.68686e-07
6.16757e-08
2.03416e-07
-4.79987e-07
7.28193e-08
2.36839e-07
-4.76167e-07
8.4083e-08
2.58301e-07
-4.60598e-07
9.57206e-08
2.65062e-07
-4.36573e-07
1.07703e-07
2.5548e-07
-4.0734e-07
1.19751e-07
2.29221e-07
-3.76203e-07
1.3135e-07
1.87339e-07
-3.464e-07
1.41845e-07
1.32242e-07
-3.20925e-07
1.50535e-07
6.75458e-08
-3.02314e-07
1.56775e-07
-2.23134e-09
-2.92405e-07
1.6007e-07
-7.2103e-08
-2.92141e-07
1.60156e-07
-1.37089e-07
-3.015e-07
1.57044e-07
-1.92686e-07
-3.19484e-07
1.51012e-07
-2.353e-07
-3.442e-07
1.42578e-07
-2.62544e-07
-3.73037e-07
1.32418e-07
-2.73404e-07
-4.02923e-07
1.21272e-07
-2.68232e-07
-4.30508e-07
1.0985e-07
-2.4865e-07
-4.52361e-07
9.87355e-08
-2.173e-07
-4.65097e-07
8.82951e-08
-1.7761e-07
-4.65364e-07
7.86479e-08
-1.3348e-07
-4.49764e-07
6.95682e-08
-8.90367e-08
-4.14549e-07
6.04266e-08
-4.84806e-08
-3.5493e-07
5.0034e-08
-1.64374e-08
-2.63018e-07
3.64358e-08
-1.21528e-07
1.64463e-08
1.4406e-08
-1.68314e-07
1.44191e-08
4.64633e-08
-3.55969e-07
3.41464e-08
8.92164e-08
-4.74006e-07
4.90191e-08
1.37777e-07
-5.48118e-07
6.15864e-08
1.86855e-07
-5.90974e-07
7.32113e-08
2.3152e-07
-6.09535e-07
8.48829e-08
2.67141e-07
-6.08943e-07
9.71554e-08
2.89794e-07
-5.93485e-07
1.10234e-07
2.96426e-07
-5.67189e-07
1.23984e-07
2.85196e-07
-5.34087e-07
1.37976e-07
2.55647e-07
-4.98213e-07
1.5156e-07
2.08875e-07
-4.63553e-07
1.63924e-07
1.47493e-07
-4.33745e-07
1.74202e-07
7.54942e-08
-4.11899e-07
1.81583e-07
-2.12132e-09
-4.00257e-07
1.85467e-07
-7.98094e-08
-3.99997e-07
1.85544e-07
-1.52029e-07
-4.11097e-07
1.81816e-07
-2.13776e-07
-4.32347e-07
1.7461e-07
-2.61072e-07
-4.61444e-07
1.64541e-07
-2.91298e-07
-4.95252e-07
1.5244e-07
-3.03373e-07
-5.30047e-07
1.39198e-07
-2.97727e-07
-5.61809e-07
1.25656e-07
-2.76149e-07
-5.86434e-07
1.12495e-07
-2.41556e-07
-5.99866e-07
1.00175e-07
-1.97693e-07
-5.98082e-07
8.88543e-08
-1.48814e-07
-5.76937e-07
7.82944e-08
-9.9439e-08
-5.31717e-07
6.77922e-08
-5.42349e-08
-4.56152e-07
5.6018e-08
-1.84164e-08
-3.39608e-07
4.07717e-08
-1.58371e-07
1.84264e-08
1.82191e-08
-2.04766e-07
1.82331e-08
5.53082e-08
-4.34253e-07
4.11949e-08
1.03174e-07
-5.79464e-07
5.75916e-08
1.56422e-07
-6.72332e-07
7.09668e-08
2.09769e-07
-7.27711e-07
8.33898e-08
2.58089e-07
-7.54007e-07
9.61513e-08
2.96534e-07
-7.57298e-07
1.0991e-07
3.20883e-07
-7.42692e-07
1.24858e-07
3.27808e-07
-7.14927e-07
1.40812e-07
3.15212e-07
-6.78698e-07
1.57208e-07
2.82555e-07
-6.38775e-07
1.73219e-07
2.30934e-07
-5.99785e-07
1.87852e-07
1.63185e-07
-5.66027e-07
2.0003e-07
8.36992e-08
-5.41188e-07
2.08775e-07
-1.98308e-09
-5.27951e-07
2.13376e-07
-8.77161e-08
-5.27702e-07
2.13439e-07
-1.6735e-07
-5.40429e-07
2.08966e-07
-2.35349e-07
-5.64699e-07
2.00351e-07
-2.87326e-07
-5.97815e-07
1.88347e-07
-3.20431e-07
-6.36072e-07
1.73926e-07
-3.33535e-07
-6.75097e-07
1.58154e-07
-3.2718e-07
-7.10247e-07
1.42082e-07
-3.03376e-07
-7.36768e-07
1.2653e-07
-2.65364e-07
-7.4994e-07
1.12063e-07
-2.17228e-07
-7.45076e-07
9.88583e-08
-1.63597e-07
-7.17248e-07
8.66794e-08
-1.09388e-07
-6.60713e-07
7.47873e-08
-5.97057e-08
-5.67508e-07
6.16729e-08
-2.02923e-08
-4.23884e-07
4.48629e-08
-1.98967e-07
2.03035e-08
2.09195e-08
-2.4662e-07
2.09345e-08
6.21993e-08
-5.22071e-07
4.65379e-08
1.14762e-07
-6.9645e-07
6.44241e-08
1.72686e-07
-8.09146e-07
7.88904e-08
2.30447e-07
-8.77957e-07
9.24839e-08
2.82686e-07
-9.12961e-07
1.06715e-07
3.24305e-07
-9.21278e-07
1.2236e-07
3.50711e-07
-9.08721e-07
1.39623e-07
3.58302e-07
-8.80735e-07
1.58218e-07
3.44715e-07
-8.42603e-07
1.77491e-07
3.09209e-07
-7.99682e-07
1.96413e-07
2.52921e-07
-7.57248e-07
2.13751e-07
1.78901e-07
-7.20222e-07
2.28216e-07
9.19466e-08
-6.92856e-07
2.38622e-07
-1.83508e-09
-6.78237e-07
2.44068e-07
-9.56496e-08
-6.78005e-07
2.44118e-07
-1.82702e-07
-6.92151e-07
2.38775e-07
-2.5688e-07
-7.19005e-07
2.28483e-07
-3.13373e-07
-7.55459e-07
2.14137e-07
-3.49139e-07
-7.97255e-07
1.96949e-07
-3.63017e-07
-8.39444e-07
1.78226e-07
-3.55712e-07
-8.76739e-07
1.59187e-07
-3.29525e-07
-9.03801e-07
1.40847e-07
-2.88016e-07
-9.15337e-07
1.23887e-07
-2.35646e-07
-9.06013e-07
1.08567e-07
-1.77419e-07
-8.70134e-07
9.46598e-08
-1.18647e-07
-8.00792e-07
8.13071e-08
-6.47888e-08
-6.88237e-07
6.68711e-08
-2.20417e-08
-5.15271e-07
4.864e-08
-2.43063e-07
2.2054e-08
2.29454e-08
-2.92526e-07
2.29602e-08
6.7639e-08
-6.17437e-07
5.06728e-08
1.24212e-07
-8.2293e-07
6.99072e-08
1.86326e-07
-9.56784e-07
8.55227e-08
2.48226e-07
-1.04029e-06
1.00431e-07
3.04299e-07
-1.08542e-06
1.16383e-07
3.49128e-07
-1.10035e-06
1.34242e-07
3.77832e-07
-1.09162e-06
1.542e-07
3.86437e-07
-1.06524e-06
1.75903e-07
3.72267e-07
-1.02698e-06
1.98547e-07
3.34378e-07
-9.82674e-07
2.2088e-07
2.73877e-07
-9.38177e-07
2.41431e-07
1.93978e-07
-8.98934e-07
2.58611e-07
9.98916e-08
-8.69752e-07
2.70982e-07
-1.69182e-09
-8.54098e-07
2.77445e-07
-1.03292e-07
-8.53885e-07
2.77479e-07
-1.97431e-07
-8.69088e-07
2.71077e-07
-2.77398e-07
-8.97833e-07
2.58794e-07
-3.38005e-07
-9.36575e-07
2.41723e-07
-3.76024e-07
-9.80535e-07
2.21298e-07
-3.903e-07
-1.02425e-06
1.99085e-07
-3.81792e-07
-1.06185e-06
1.76601e-07
-3.53129e-07
-1.08755e-06
1.55083e-07
-3.08221e-07
-1.09556e-06
1.35317e-07
-2.51905e-07
-1.07998e-06
1.17655e-07
-1.89539e-07
-1.03437e-06
1.01871e-07
-1.26712e-07
-9.50684e-07
8.70642e-08
-6.92113e-08
-8.17154e-07
7.14165e-08
-2.35809e-08
-6.12823e-07
5.19211e-08
-2.90238e-07
2.35942e-08
2.43796e-08
-3.413e-07
2.43948e-08
7.15665e-08
-7.18222e-07
5.35982e-08
1.31163e-07
-9.56391e-07
7.38637e-08
1.96559e-07
-1.11272e-06
9.0543e-08
2.6186e-07
-1.21243e-06
1.06845e-07
3.21227e-07
-1.26945e-06
1.24667e-07
3.6902e-07
-1.29308e-06
1.44943e-07
4.00072e-07
-1.29059e-06
1.67912e-07
4.09997e-07
-1.2683e-06
1.93128e-07
3.95809e-07
-1.23242e-06
2.19632e-07
3.56291e-07
-1.1891e-06
2.45947e-07
2.92372e-07
-1.14454e-06
2.70287e-07
2.07444e-07
-1.10472e-06
2.90711e-07
1.07032e-07
-1.07479e-06
3.05452e-07
-1.55979e-09
-1.05867e-06
3.13165e-07
-1.10157e-07
-1.05848e-06
3.13191e-07
-2.10572e-07
-1.07421e-06
3.05535e-07
-2.9554e-07
-1.10372e-06
2.90857e-07
-3.59471e-07
-1.14313e-06
2.70484e-07
-3.99009e-07
-1.18722e-06
2.46221e-07
-4.13208e-07
-1.23004e-06
2.19989e-07
-4.03243e-07
-1.26543e-06
1.93612e-07
-3.72118e-07
-1.28721e-06
1.68533e-07
-3.24152e-07
-1.28922e-06
1.45693e-07
-2.64501e-07
-1.26517e-06
1.25536e-07
-1.98775e-07
-1.20791e-06
1.07809e-07
-1.32817e-07
-1.10819e-06
9.15457e-08
-7.25753e-08
-9.52211e-07
7.48153e-08
-2.47562e-08
-7.15006e-07
5.43637e-08
-3.39764e-07
2.47699e-08
2.51506e-08
-3.91619e-07
2.5168e-08
7.36377e-08
-8.21825e-07
5.51156e-08
1.34811e-07
-1.09353e-06
7.59639e-08
2.0207e-07
-1.27342e-06
9.34363e-08
2.69449e-07
-1.39079e-06
1.10981e-07
3.31109e-07
-1.46176e-06
1.30645e-07
3.81264e-07
-1.49665e-06
1.53405e-07
4.14474e-07
-1.50335e-06
1.79549e-07
4.26042e-07
-1.48845e-06
2.0858e-07
4.12557e-07
-1.45832e-06
2.39377e-07
3.72441e-07
-1.41922e-06
2.70232e-07
3.06438e-07
-1.37749e-06
2.98945e-07
2.17907e-07
-1.33936e-06
3.23175e-07
1.12664e-07
-1.31029e-06
3.40743e-07
-1.44573e-09
-1.29453e-06
3.49969e-07
-1.15551e-07
-1.29435e-06
3.49981e-07
-2.20786e-07
-1.30976e-06
3.40783e-07
-3.0929e-07
-1.33846e-06
3.23246e-07
-3.7523e-07
-1.37623e-06
2.99042e-07
-4.15293e-07
-1.41755e-06
2.70391e-07
-4.28713e-07
-1.45626e-06
2.39635e-07
-4.17052e-07
-1.48602e-06
2.08936e-07
-3.837e-07
-1.50053e-06
1.79972e-07
-3.33347e-07
-1.49349e-06
1.53919e-07
-2.71378e-07
-1.45835e-06
1.31215e-07
-2.03624e-07
-1.38727e-06
1.11613e-07
-1.35941e-07
-1.26997e-06
9.4095e-08
-7.42724e-08
-1.09046e-06
7.65767e-08
-2.53856e-08
-8.19491e-07
5.55985e-08
-3.9055e-07
2.53998e-08
2.5069e-08
-4.41764e-07
2.50766e-08
7.32311e-08
-9.24739e-07
5.47517e-08
1.34039e-07
-1.22985e-06
7.55168e-08
2.01085e-07
-1.43383e-06
9.33631e-08
2.68672e-07
-1.57021e-06
1.11834e-07
3.31054e-07
-1.65721e-06
1.33072e-07
3.82469e-07
-1.70625e-06
1.58191e-07
4.17342e-07
-1.72566e-06
1.87444e-07
4.30727e-07
-1.72218e-06
2.20347e-07
4.18805e-07
-1.70201e-06
2.55619e-07
3.79571e-07
-1.67128e-06
2.91296e-07
3.13419e-07
-1.63622e-06
3.24883e-07
2.23505e-07
-1.60298e-06
3.53527e-07
1.15833e-07
-1.57707e-06
3.74451e-07
-1.34813e-09
-1.56285e-06
3.85498e-07
-1.18516e-07
-1.56269e-06
3.85501e-07
-2.26139e-07
-1.5766e-06
3.74463e-07
-3.15988e-07
-1.60217e-06
3.53551e-07
-3.82066e-07
-1.6351e-06
3.24952e-07
-4.21206e-07
-1.66982e-06
2.91411e-07
-4.32992e-07
-1.70021e-06
2.5574e-07
-4.19461e-07
-1.7201e-06
2.20544e-07
-3.84399e-07
-1.72332e-06
1.87724e-07
-3.32763e-07
-1.70366e-06
1.58534e-07
-2.70123e-07
-1.65448e-06
1.33484e-07
-2.02236e-07
-1.56745e-06
1.12287e-07
-1.34823e-07
-1.43118e-06
9.37997e-08
-7.36658e-08
-1.22753e-06
7.59202e-08
-2.52112e-08
-9.23009e-07
5.50636e-08
-4.40986e-07
2.5225e-08
2.38845e-08
-4.89543e-07
2.38939e-08
6.96317e-08
-1.02248e-06
5.19914e-08
1.27532e-07
-1.3596e-06
7.18451e-08
1.91666e-07
-1.58736e-06
8.93978e-08
2.56816e-07
-1.74359e-06
1.08221e-07
3.17638e-07
-1.84853e-06
1.30495e-07
3.68617e-07
-1.9146e-06
1.57372e-07
4.04243e-07
-1.95045e-06
1.89157e-07
4.19444e-07
-1.96278e-06
2.25399e-07
4.10019e-07
-1.95741e-06
2.64825e-07
3.73483e-07
-1.94e-06
3.05253e-07
3.09793e-07
-1.91629e-06
3.43767e-07
2.21742e-07
-1.89188e-06
3.76952e-07
1.15227e-07
-1.87204e-06
4.0149e-07
-1.26744e-09
-1.8609e-06
4.14547e-07
-1.17742e-07
-1.86076e-06
4.14542e-07
-2.24206e-07
-1.87161e-06
4.01479e-07
-3.12167e-07
-1.89115e-06
3.76941e-07
-3.75748e-07
-1.91527e-06
3.43745e-07
-4.12119e-07
-1.93871e-06
3.05264e-07
-4.21357e-07
-1.95589e-06
2.64914e-07
-4.06001e-07
-1.961e-06
2.25548e-07
-3.70192e-07
-1.94845e-06
1.89327e-07
-3.18965e-07
-1.91248e-06
1.57592e-07
-2.57909e-07
-1.84629e-06
1.30754e-07
-1.92478e-07
-1.74138e-06
1.08505e-07
-1.2809e-07
-1.58525e-06
8.96832e-08
-6.99471e-08
-1.35779e-06
7.21088e-08
-2.39795e-08
-1.02117e-06
5.21968e-08
-4.88958e-07
2.39929e-08
2.13501e-08
-5.3225e-07
2.13565e-08
6.21843e-08
-1.10962e-06
4.63037e-08
1.13956e-07
-1.47552e-06
6.41521e-08
1.71755e-07
-1.72568e-06
8.05165e-08
2.3111e-07
-1.90174e-06
9.87967e-08
2.87363e-07
-2.02589e-06
1.21114e-07
3.35533e-07
-2.11142e-06
1.48644e-07
3.70442e-07
-2.16718e-06
1.81819e-07
3.87044e-07
-2.1996e-06
2.20223e-07
3.80982e-07
-2.2139e-06
2.62554e-07
3.49368e-07
-2.21492e-06
3.06539e-07
2.91481e-07
-2.2075e-06
3.49089e-07
2.09607e-07
-2.1963e-06
3.86297e-07
1.09261e-07
-2.18582e-06
4.14117e-07
-1.19794e-09
-2.1795e-06
4.29056e-07
-1.1163e-07
-2.17937e-06
4.29048e-07
-2.11903e-07
-2.18543e-06
4.14096e-07
-2.93655e-07
-2.19566e-06
3.8627e-07
-3.51418e-07
-2.20659e-06
3.49085e-07
-3.82875e-07
-2.21382e-06
3.06562e-07
-3.88788e-07
-2.21255e-06
2.62574e-07
-3.71992e-07
-2.19808e-06
2.2028e-07
-3.36847e-07
-2.16551e-06
1.81913e-07
-2.88489e-07
-2.10961e-06
1.48774e-07
-2.31994e-07
-2.02406e-06
1.21275e-07
-1.72418e-07
-1.89994e-06
9.89788e-08
-1.14366e-07
-1.724e-06
8.07026e-08
-6.23768e-08
-1.4741e-06
6.43258e-08
-2.14126e-08
-1.10858e-06
4.64418e-08
-5.31796e-07
2.1425e-08
1.72519e-08
-5.66763e-07
1.72615e-08
5.01913e-08
-1.1798e-06
3.72458e-08
9.22512e-08
-1.56942e-06
5.18394e-08
1.39711e-07
-1.83903e-06
6.58959e-08
1.89297e-07
-2.03374e-06
8.2416e-08
2.37269e-07
-2.17723e-06
1.03364e-07
2.79548e-07
-2.28351e-06
1.29818e-07
3.11604e-07
-2.36151e-06
1.62275e-07
3.28768e-07
-2.41724e-06
2.00473e-07
3.26722e-07
-2.45513e-06
2.43267e-07
3.02257e-07
-2.47892e-06
2.88457e-07
2.54121e-07
-2.49209e-06
3.32731e-07
1.83839e-07
-2.49796e-06
3.71939e-07
9.61691e-08
-2.49974e-06
4.01594e-07
-1.13799e-09
-2.49981e-06
4.1762e-07
-9.84216e-08
-2.49973e-06
4.1764e-07
-1.86033e-07
-2.49942e-06
4.01593e-07
-2.56177e-07
-2.49741e-06
3.71896e-07
-3.04156e-07
-2.49129e-06
3.3268e-07
-3.28447e-07
-2.47794e-06
2.88419e-07
-3.30299e-07
-2.45394e-06
2.43245e-07
-3.12936e-07
-2.41592e-06
2.00476e-07
-2.80672e-07
-2.36008e-06
1.6231e-07
-2.38184e-07
-2.28198e-06
1.29882e-07
-1.89986e-07
-2.17571e-06
1.03453e-07
-1.40212e-07
-2.03224e-06
8.25234e-08
-9.25608e-08
-1.83767e-06
6.60111e-08
-5.03417e-08
-1.56827e-06
5.19494e-08
-1.72992e-08
-1.17896e-06
3.7337e-08
-5.66406e-07
1.73108e-08
1.14854e-08
-5.89729e-07
1.1481e-08
3.34178e-08
-1.22633e-06
2.45962e-08
6.1844e-08
-1.63237e-06
3.45255e-08
9.47018e-08
-1.91689e-06
4.49999e-08
1.30045e-07
-2.12736e-06
5.82814e-08
1.65574e-07
-2.28872e-06
7.59604e-08
1.98339e-07
-2.41538e-06
9.9096e-08
2.24887e-07
-2.51615e-06
1.28097e-07
2.41277e-07
-2.59649e-06
1.62859e-07
2.43547e-07
-2.65983e-06
2.0243e-07
2.28515e-07
-2.70868e-06
2.44801e-07
1.9438e-07
-2.74491e-06
2.86952e-07
1.41893e-07
-2.77022e-06
3.24748e-07
7.45778e-08
-2.78608e-06
3.53658e-07
-1.08471e-09
-2.79362e-06
3.69476e-07
-7.67202e-08
-2.79356e-06
3.69465e-07
-1.43959e-07
-2.78579e-06
3.53616e-07
-1.96316e-07
-2.76975e-06
3.24688e-07
-2.30276e-07
-2.74425e-06
2.86918e-07
-2.45143e-07
-2.70784e-06
2.44761e-07
-2.42654e-07
-2.6588e-06
2.02374e-07
-2.26061e-07
-2.59533e-06
1.62823e-07
-1.99326e-07
-2.5149e-06
1.28087e-07
-1.66339e-07
-2.41408e-06
9.91108e-08
-1.30648e-07
-2.28739e-06
7.59963e-08
-9.51054e-08
-2.12612e-06
5.83365e-08
-6.20859e-08
-1.91575e-06
4.50661e-08
-3.3551e-08
-1.6314e-06
3.45964e-08
-1.15071e-08
-1.22566e-06
2.4659e-08
-5.89431e-07
1.15179e-08
4.08722e-09
-5.97902e-07
4.08522e-09
1.20272e-08
-1.24277e-06
8.50308e-09
2.30263e-08
-1.65582e-06
1.24506e-08
3.70342e-08
-1.94887e-06
1.79704e-08
5.37693e-08
-2.17051e-06
2.6413e-08
7.25487e-08
-2.34628e-06
3.87844e-08
9.19867e-08
-2.49068e-06
5.58687e-08
1.10034e-07
-2.61232e-06
7.81224e-08
1.23896e-07
-2.71583e-06
1.05477e-07
1.30544e-07
-2.80379e-06
1.37316e-07
1.26962e-07
-2.87722e-06
1.72113e-07
1.11142e-07
-2.93636e-06
2.07271e-07
8.27744e-08
-2.98104e-06
2.39187e-07
4.38848e-08
-3.01104e-06
2.63845e-07
-1.03441e-09
-3.02608e-06
2.77373e-07
-4.59186e-08
-3.02599e-06
2.77316e-07
-8.46981e-08
-3.01077e-06
2.63753e-07
-1.12958e-07
-2.98059e-06
2.39106e-07
-1.28635e-07
-2.93571e-06
2.0714e-07
-1.32025e-07
-2.87643e-06
1.71977e-07
-1.25182e-07
-2.80287e-06
1.37228e-07
-1.11097e-07
-2.71483e-06
1.05407e-07
-9.28687e-08
-2.61121e-06
7.80723e-08
-7.32187e-08
-2.48957e-06
5.58437e-08
-5.42562e-08
-2.34514e-06
3.87815e-08
-3.73734e-08
-2.16943e-06
2.64272e-08
-2.32226e-08
-1.9479e-06
1.80006e-08
-1.209e-08
-1.65502e-06
1.24914e-08
-4.10453e-09
-1.24219e-06
8.54554e-09
-5.9765e-07
4.11478e-09
-4.70336e-09
-5.88494e-07
-4.70455e-09
-1.33094e-08
-1.22359e-06
-1.05724e-08
-2.28837e-08
-1.63247e-06
-1.37767e-08
-3.13567e-08
-1.92601e-06
-1.4381e-08
-3.7063e-08
-2.15256e-06
-1.2243e-08
-3.88971e-08
-2.33731e-06
-7.14284e-09
-3.62995e-08
-2.49456e-06
1.28167e-09
-2.96384e-08
-2.63237e-06
1.33927e-08
-2.0019e-08
-2.75482e-06
2.93676e-08
-9.3275e-09
-2.86342e-06
4.89426e-08
1.40163e-10
-2.95784e-06
7.11582e-08
6.28707e-09
-3.03678e-06
9.42742e-08
7.82171e-09
-3.09836e-06
1.15784e-07
4.83883e-09
-3.14076e-06
1.32701e-07
-9.7628e-10
-3.16238e-06
1.42116e-07
-6.7654e-09
-3.16229e-06
1.4209e-07
-9.68417e-09
-3.14048e-06
1.32634e-07
-7.99431e-09
-3.09797e-06
1.15688e-07
-1.68955e-09
-3.03617e-06
9.4158e-08
7.96283e-09
-2.95712e-06
7.10393e-08
1.88454e-08
-2.86259e-06
4.88317e-08
2.86412e-08
-2.75389e-06
2.92733e-08
3.55134e-08
-2.6314e-06
1.33185e-08
3.82761e-08
-2.49357e-06
1.23018e-09
3.66161e-08
-2.33631e-06
-7.17245e-09
3.10792e-08
-2.15164e-06
-1.22532e-08
2.27348e-08
-1.92519e-06
-1.43735e-08
1.32318e-08
-1.63177e-06
-1.37564e-08
4.69111e-09
-1.22311e-06
-1.0544e-08
-5.88278e-07
-4.68093e-09
-1.43825e-08
-5.59726e-07
-1.43859e-08
-4.11655e-08
-1.16532e-06
-3.14931e-08
-7.34592e-08
-1.5576e-06
-4.25737e-08
-1.06847e-07
-1.84242e-06
-5.02027e-08
-1.37737e-07
-2.06601e-06
-5.56577e-08
-1.6301e-07
-2.25254e-06
-5.94967e-08
-1.80059e-07
-2.41566e-06
-6.18573e-08
-1.87129e-07
-2.56274e-06
-6.25682e-08
-1.8337e-07
-2.69726e-06
-6.13151e-08
-1.69095e-07
-2.81971e-06
-5.79866e-08
-1.45557e-07
-2.92874e-06
-5.26366e-08
-1.148e-07
-3.02177e-06
-4.5769e-08
-7.90908e-08
-3.09554e-06
-3.85323e-08
-4.05903e-08
-3.14692e-06
-3.2333e-08
-9.11145e-10
-3.17332e-06
-2.87424e-08
3.88031e-08
-3.17323e-06
-2.87695e-08
7.73961e-08
-3.14671e-06
-3.23648e-08
1.13199e-07
-3.09517e-06
-3.85978e-08
1.44111e-07
-3.0212e-06
-4.58909e-08
1.67823e-07
-2.92807e-06
-5.27624e-08
1.82278e-07
-2.81894e-06
-5.81071e-08
1.86199e-07
-2.6964e-06
-6.14208e-08
1.79333e-07
-2.56188e-06
-6.26535e-08
1.62439e-07
-2.41475e-06
-6.19243e-08
1.37344e-07
-2.25167e-06
-5.95414e-08
1.06584e-07
-2.06519e-06
-5.56815e-08
7.33166e-08
-1.84171e-06
-5.02095e-08
4.11199e-08
-1.557e-06
-4.25642e-08
1.43748e-08
-1.16489e-06
-3.14707e-08
-5.5954e-07
-1.43638e-08
-2.42783e-08
-5.11167e-07
-2.42801e-08
-6.95965e-08
-1.06719e-06
-5.28082e-08
-1.25086e-07
-1.4301e-06
-7.20143e-08
-1.84188e-07
-1.69631e-06
-8.70103e-08
-2.41355e-07
-1.90825e-06
-1.00596e-07
-2.91393e-07
-2.08817e-06
-1.14327e-07
-3.29589e-07
-2.24861e-06
-1.28845e-07
-3.51847e-07
-2.39633e-06
-1.4415e-07
-3.55195e-07
-2.53401e-06
-1.59901e-07
-3.38013e-07
-2.66154e-06
-1.7535e-07
-3.00346e-07
-2.77682e-06
-1.89593e-07
-2.43957e-07
-2.87629e-06
-2.01867e-07
-1.72078e-07
-2.95597e-06
-2.11447e-07
-8.92658e-08
-3.01182e-06
-2.17911e-07
-8.34706e-10
-3.04063e-06
-2.21122e-07
8.76163e-08
-3.04054e-06
-2.21145e-07
1.705e-07
-3.01158e-06
-2.18015e-07
2.42465e-07
-2.95556e-06
-2.11577e-07
2.99031e-07
-2.87579e-06
-2.01976e-07
3.3683e-07
-2.77616e-06
-1.89705e-07
3.54156e-07
-2.66081e-06
-1.75457e-07
3.50995e-07
-2.53324e-06
-1.59999e-07
3.28872e-07
-2.39552e-06
-1.44234e-07
2.90856e-07
-2.24782e-06
-1.28911e-07
2.40957e-07
-2.08739e-06
-1.14376e-07
1.8393e-07
-1.90754e-06
-1.00628e-07
1.24954e-07
-1.69573e-06
-8.7004e-08
6.9534e-08
-1.42959e-06
-7.19906e-08
2.4271e-08
-1.06684e-06
-5.27908e-08
-5.11009e-07
-2.42599e-08
-3.34851e-08
-4.44195e-07
-3.34869e-08
-9.60253e-08
-9.3208e-07
-7.25719e-08
-1.73289e-07
-1.25357e-06
-9.92698e-08
-2.56789e-07
-1.49154e-06
-1.21272e-07
-3.39284e-07
-1.68289e-06
-1.42861e-07
-4.13631e-07
-1.84733e-06
-1.66496e-07
-4.72878e-07
-1.99599e-06
-1.93374e-07
-5.10675e-07
-2.13476e-06
-2.2377e-07
-5.21778e-07
-2.26582e-06
-2.57088e-07
-5.02587e-07
-2.38868e-06
-2.92054e-07
-4.51812e-07
-2.50073e-06
-3.26861e-07
-3.70679e-07
-2.59825e-06
-3.59172e-07
-2.63524e-07
-2.67673e-06
-3.86391e-07
-1.3722e-07
-2.73195e-06
-4.06175e-07
-7.41863e-10
-2.76046e-06
-4.16648e-07
1.35755e-07
-2.76037e-06
-4.16664e-07
2.62106e-07
-2.73171e-06
-4.0622e-07
3.69369e-07
-2.67637e-06
-3.86458e-07
4.50547e-07
-2.59771e-06
-3.5925e-07
5.01491e-07
-2.50016e-06
-3.26948e-07
5.20821e-07
-2.388e-06
-2.92133e-07
5.09877e-07
-2.26513e-06
-2.57166e-07
4.7223e-07
-2.13403e-06
-2.23839e-07
4.13118e-07
-1.99528e-06
-1.9343e-07
3.38932e-07
-1.84667e-06
-1.66538e-07
2.56576e-07
-1.68229e-06
-1.42891e-07
1.73163e-07
-1.49101e-06
-1.21309e-07
9.59784e-08
-1.25313e-06
-9.9282e-08
3.34789e-08
-9.31785e-07
-7.2555e-08
-4.44064e-07
-3.34663e-08
-4.09376e-08
-3.62325e-07
-4.09333e-08
-1.17555e-07
-7.66927e-07
-8.85345e-08
-2.12982e-07
-1.03682e-06
-1.21321e-07
-3.17351e-07
-1.23804e-06
-1.49135e-07
-4.21971e-07
-1.40067e-06
-1.776e-07
-5.17986e-07
-1.54128e-06
-2.10037e-07
-5.9646e-07
-1.6694e-06
-2.48119e-07
-6.48882e-07
-1.79003e-06
-2.9231e-07
-6.678e-07
-1.905e-06
-3.41903e-07
-6.47712e-07
-2.01362e-06
-3.95151e-07
-5.85941e-07
-2.11332e-06
-4.49184e-07
-4.83402e-07
-2.20048e-06
-5.00308e-07
-3.45074e-07
-2.27086e-06
-5.44198e-07
-1.80016e-07
-2.32047e-06
-5.76537e-07
-6.40103e-10
-2.34613e-06
-5.937e-07
1.78745e-07
-2.34606e-06
-5.93704e-07
3.43836e-07
-2.32025e-06
-5.76551e-07
4.82205e-07
-2.27051e-06
-5.44225e-07
5.8484e-07
-2.20001e-06
-5.00336e-07
6.46708e-07
-2.1128e-06
-4.49224e-07
6.66911e-07
-2.01302e-06
-3.95185e-07
6.48103e-07
-1.90438e-06
-3.4194e-07
5.95852e-07
-1.78944e-06
-2.92347e-07
5.17493e-07
-1.66877e-06
-2.48149e-07
4.21615e-07
-1.54073e-06
-2.10064e-07
3.17109e-07
-1.40017e-06
-1.77621e-07
2.12847e-07
-1.2376e-06
-1.49142e-07
1.17514e-07
-1.03648e-06
-1.21315e-07
4.09257e-08
-7.66681e-07
-8.85152e-08
-3.62225e-07
-4.09131e-08
-4.54812e-08
-2.71359e-07
-4.5484e-08
-1.31113e-07
-5.83096e-07
-9.81995e-08
-2.38838e-07
-7.94439e-07
-1.34655e-07
-3.58232e-07
-9.52501e-07
-1.6614e-07
-4.79566e-07
-1.08006e-06
-1.99285e-07
-5.92584e-07
-1.19014e-06
-2.38116e-07
-6.86688e-07
-1.29056e-06
-2.8474e-07
-7.51414e-07
-1.38556e-06
-3.39748e-07
-7.77556e-07
-1.47652e-06
-4.02334e-07
-7.57919e-07
-1.56293e-06
-4.70321e-07
-6.88622e-07
-1.64258e-06
-5.40036e-07
-5.7014e-07
-1.71241e-06
-6.06549e-07
-4.08063e-07
-1.76895e-06
-6.63994e-07
-2.13144e-07
-1.80883e-06
-7.06567e-07
-5.30569e-10
-1.82945e-06
-7.293e-07
2.12088e-07
-1.82938e-06
-7.29291e-07
4.0702e-07
-1.80863e-06
-7.06546e-07
5.6914e-07
-1.76868e-06
-6.6395e-07
6.87662e-07
-1.71206e-06
-6.06471e-07
7.56994e-07
-1.64215e-06
-5.39983e-07
7.76722e-07
-1.56244e-06
-4.70305e-07
7.50713e-07
-1.47604e-06
-4.0233e-07
6.86075e-07
-1.38504e-06
-3.39753e-07
5.92133e-07
-1.29009e-06
-2.84746e-07
4.79232e-07
-1.1897e-06
-2.38127e-07
3.58007e-07
-1.07965e-06
-1.99289e-07
2.38721e-07
-9.52177e-07
-1.66142e-07
1.31057e-07
-7.94171e-07
-1.34644e-07
4.54764e-08
-5.82922e-07
-9.81788e-08
-2.71285e-07
-4.54636e-08
-4.5982e-08
-1.79398e-07
-4.59799e-08
-1.33693e-07
-3.9629e-07
-9.90957e-08
-2.45948e-07
-5.46481e-07
-1.35703e-07
-3.72492e-07
-6.58299e-07
-1.67657e-07
-5.03075e-07
-7.47334e-07
-2.0214e-07
-6.26443e-07
-8.23158e-07
-2.43616e-07
-7.30716e-07
-8.91788e-07
-2.94496e-07
-8.04206e-07
-9.56564e-07
-3.55502e-07
-8.3626e-07
-1.01873e-06
-4.25739e-07
-8.18553e-07
-1.07792e-06
-5.0272e-07
-7.46303e-07
-1.13263e-06
-5.82204e-07
-6.19633e-07
-1.18065e-06
-6.58435e-07
-4.44363e-07
-1.21956e-06
-7.24652e-07
-2.32323e-07
-1.24699e-06
-7.73874e-07
-4.22617e-10
-1.26117e-06
-8.00175e-07
2.31473e-07
-1.26112e-06
-8.00155e-07
4.43507e-07
-1.24685e-06
-7.7382e-07
6.18774e-07
-1.21934e-06
-7.24611e-07
7.45473e-07
-1.18036e-06
-6.58399e-07
8.17742e-07
-1.13228e-06
-5.82137e-07
8.35517e-07
-1.07756e-06
-5.02656e-07
8.03524e-07
-1.01835e-06
-4.25694e-07
7.30156e-07
-9.56206e-07
-3.55471e-07
6.25991e-07
-8.91442e-07
-2.94478e-07
5.02741e-07
-8.22843e-07
-2.43608e-07
3.72279e-07
-7.47056e-07
-2.02133e-07
2.45829e-07
-6.58073e-07
-1.67653e-07
1.33648e-07
-5.46302e-07
-1.35689e-07
4.59728e-08
-3.96171e-07
-9.90749e-08
-1.79351e-07
-4.59608e-08
-4.14214e-08
-9.65571e-08
-4.14191e-08
-1.22971e-07
-2.2575e-07
-8.89908e-08
-2.30515e-07
-3.17709e-07
-1.21228e-07
-3.54742e-07
-3.84704e-07
-1.49368e-07
-4.85311e-07
-4.36083e-07
-1.80682e-07