/*--------------------------------*- C++ -*----------------------------------*\
| =========                 |                                                 |
| \\      /  F ield         | OpenFOAM: The Open Source CFD Toolbox           |
|  \\    /   O peration     | Version:  v1906                                 |
|   \\  /    A nd           | Web:      www.OpenFOAM.com                      |
|    \\/     M anipulation  |                                                 |
\*---------------------------------------------------------------------------*/
FoamFile
{
    version     2.0;
    format      ascii;
    class       volVectorField;
    location    "51.6/oil";
    object      U;
}
// * * * * * * * * * * * * * * * * * * * * * * * * * * * * * * * * * * * * * //

dimensions      [0 1 -1 0 0 0 0];


internalField   nonuniform List<vector> 
27760
(
(-2.57654e-05 -2.62705e-05 -2.57653e-05)
(-5.08655e-05 -1.97089e-05 -1.85559e-05)
(-3.72961e-06 -5.1153e-06 -5.06785e-06)
(-6.10175e-06 -8.39466e-07 -9.14627e-07)
(-1.33697e-06 -2.73238e-07 -3.60499e-07)
(-6.00916e-07 -1.18416e-07 -2.11775e-07)
(6.01498e-08 -2.51205e-08 -1.25143e-07)
(3.80324e-07 1.44011e-08 -9.16009e-08)
(5.57754e-07 3.65512e-08 -7.39254e-08)
(6.30852e-07 5.01462e-08 -6.33145e-08)
(6.25989e-07 5.98628e-08 -5.52112e-08)
(5.56746e-07 6.69398e-08 -4.87731e-08)
(4.3467e-07 7.22165e-08 -4.36307e-08)
(2.72546e-07 7.58174e-08 -3.99462e-08)
(8.48481e-08 7.77117e-08 -3.79583e-08)
(-1.12492e-07 7.78739e-08 -3.7799e-08)
(-3.03203e-07 7.63501e-08 -3.94224e-08)
(-4.72031e-07 7.32796e-08 -4.25783e-08)
(-6.06137e-07 6.8892e-08 -4.68259e-08)
(-6.96146e-07 6.34733e-08 -5.1573e-08)
(-7.36878e-07 5.72392e-08 -5.619e-08)
(-7.2792e-07 5.03379e-08 -5.99855e-08)
(-6.729e-07 4.32644e-08 -6.19815e-08)
(-5.79352e-07 3.60491e-08 -6.17363e-08)
(-4.58607e-07 2.8872e-08 -5.8646e-08)
(-3.24767e-07 2.20356e-08 -5.23051e-08)
(-1.94235e-07 1.6163e-08 -4.27474e-08)
(-8.48924e-08 1.24152e-08 -3.07804e-08)
(-1.31385e-08 1.23942e-08 -1.87524e-08)
(7.1747e-09 1.403e-08 -7.08954e-09)
(-1.86944e-05 -5.22678e-05 -1.86943e-05)
(-6.13893e-06 -6.76852e-06 -8.37153e-06)
(-8.30505e-06 -8.18554e-06 -2.92605e-06)
(-3.82641e-06 -2.34669e-06 -8.37721e-07)
(-1.45778e-06 -1.41018e-06 -4.16677e-07)
(-3.2856e-07 -7.48446e-07 -2.05096e-07)
(4.7497e-07 -4.59447e-07 -1.01242e-07)
(9.49632e-07 -2.98602e-07 -5.01758e-08)
(1.22476e-06 -1.99998e-07 -1.93354e-08)
(1.33479e-06 -1.30029e-07 2.07747e-09)
(1.30458e-06 -7.5385e-08 1.91512e-08)
(1.15166e-06 -3.15319e-08 3.34029e-08)
(8.95409e-07 2.66587e-09 4.4816e-08)
(5.59436e-07 2.66339e-08 5.29401e-08)
(1.7223e-07 3.95057e-08 5.72934e-08)
(-2.34348e-07 4.08148e-08 5.76025e-08)
(-6.27528e-07 3.08456e-08 5.39451e-08)
(-9.76532e-07 1.0747e-08 4.67881e-08)
(-1.25542e-06 -1.7546e-08 3.69458e-08)
(-1.44536e-06 -5.15257e-08 2.54916e-08)
(-1.53613e-06 -8.84284e-08 1.36711e-08)
(-1.52642e-06 -1.25458e-07 2.80263e-09)
(-1.42372e-06 -1.59564e-07 -6.02507e-09)
(-1.24359e-06 -1.88098e-07 -1.18818e-08)
(-1.00823e-06 -2.0801e-07 -1.4055e-08)
(-7.44963e-07 -2.1562e-07 -1.22743e-08)
(-4.8437e-07 -2.0602e-07 -6.98604e-09)
(-2.57409e-07 -1.73009e-07 2.13367e-10)
(-9.12272e-08 -1.10206e-07 5.75234e-09)
(-5.33447e-09 -2.57441e-08 5.46227e-09)
(-5.17279e-06 -4.89236e-06 -5.17272e-06)
(-8.14965e-06 -9.16777e-06 -2.9906e-06)
(-4.254e-06 -5.14626e-06 -1.31557e-06)
(-2.48948e-06 -2.94155e-06 -6.16725e-07)
(-8.55157e-07 -2.02789e-06 -2.84168e-07)
(1.70911e-07 -1.45377e-06 -1.20363e-07)
(9.27136e-07 -1.14411e-06 -3.38761e-08)
(1.41981e-06 -9.43874e-07 1.46283e-08)
(1.71148e-06 -8.00033e-07 4.7245e-08)
(1.81875e-06 -6.84458e-07 7.22218e-08)
(1.75714e-06 -5.86522e-07 9.32596e-08)
(1.54196e-06 -5.03542e-07 1.11208e-07)
(1.19475e-06 -4.36951e-07 1.25748e-07)
(7.44729e-07 -3.89508e-07 1.36141e-07)
(2.28332e-07 -3.63773e-07 1.41706e-07)
(-3.13096e-07 -3.61056e-07 1.42064e-07)
(-8.36782e-07 -3.80856e-07 1.37292e-07)
(-1.30249e-06 -4.20702e-07 1.27957e-07)
(-1.67632e-06 -4.76347e-07 1.15052e-07)
(-1.93369e-06 -5.42221e-07 9.98861e-08)
(-2.06128e-06 -6.11971e-07 8.39086e-08)
(-2.05759e-06 -6.789e-07 6.85829e-08)
(-1.93246e-06 -7.36359e-07 5.51724e-08)
(-1.70585e-06 -7.77553e-07 4.4685e-08)
(-1.40582e-06 -7.95128e-07 3.77328e-08)
(-1.06624e-06 -7.80566e-07 3.43842e-08)
(-7.24015e-07 -7.23326e-07 3.39065e-08)
(-4.14845e-07 -6.10635e-07 3.4241e-08)
(-1.71261e-07 -4.27701e-07 3.13326e-08)
(-1.74482e-08 -1.68109e-07 1.761e-08)
(-9.32904e-07 -7.07346e-06 -9.32812e-07)
(-2.14744e-06 -5.38078e-06 -8.41861e-07)
(-1.7897e-06 -4.45627e-06 -6.0506e-07)
(-9.94833e-07 -3.34761e-06 -3.09171e-07)
(-1.60733e-08 -2.7435e-06 -1.34539e-07)
(7.65403e-07 -2.32868e-06 -3.39523e-08)
(1.39976e-06 -2.06127e-06 2.76677e-08)
(1.84835e-06 -1.85877e-06 6.81411e-08)
(2.11691e-06 -1.69032e-06 9.90832e-08)
(2.2009e-06 -1.53959e-06 1.25174e-07)
(2.10364e-06 -1.40265e-06 1.48333e-07)
(1.83563e-06 -1.28177e-06 1.68598e-07)
(1.41797e-06 -1.18237e-06 1.85215e-07)
(8.82587e-07 -1.11058e-06 1.97157e-07)
(2.70891e-07 -1.07137e-06 2.03547e-07)
(-3.69371e-07 -1.06729e-06 2.0391e-07)
(-9.88502e-07 -1.0977e-06 1.98314e-07)
(-1.53966e-06 -1.15858e-06 1.87391e-07)
(-1.9834e-06 -1.24291e-06 1.72272e-07)
(-2.29131e-06 -1.34142e-06 1.54432e-07)
(-2.44807e-06 -1.4435e-06 1.35478e-07)
(-2.45214e-06 -1.53793e-06 1.16981e-07)
(-2.31493e-06 -1.61336e-06 1.00291e-07)
(-2.05913e-06 -1.65822e-06 8.64307e-08)
(-1.71616e-06 -1.6602e-06 7.59475e-08)
(-1.32332e-06 -1.60537e-06 6.8803e-08)
(-9.20649e-07 -1.47691e-06 6.41446e-08)
(-5.46339e-07 -1.25383e-06 5.96374e-08)
(-2.37982e-07 -9.07314e-07 5.0854e-08)
(-2.70274e-08 -3.95585e-07 2.72306e-08)
(-3.06813e-07 -2.53458e-06 -3.06699e-07)
(-1.02012e-06 -3.80474e-06 -3.68347e-07)
(-6.6903e-07 -3.99119e-06 -2.5247e-07)
(-1.01733e-07 -3.73625e-06 -1.21927e-07)
(6.10257e-07 -3.52378e-06 -3.01213e-08)
(1.2569e-06 -3.31958e-06 3.09456e-08)
(1.80928e-06 -3.14275e-06 7.43791e-08)
(2.21651e-06 -2.97172e-06 1.0782e-07)
(2.4577e-06 -2.80089e-06 1.36834e-07)
(2.51561e-06 -2.62931e-06 1.63506e-07)
(2.38488e-06 -2.46236e-06 1.88323e-07)
(2.07198e-06 -2.30908e-06 2.10595e-07)
(1.597e-06 -2.18015e-06 2.29091e-07)
(9.93479e-07 -2.08588e-06 2.42472e-07)
(3.06393e-07 -2.03416e-06 2.4963e-07)
(-4.1166e-07 -2.02901e-06 2.49973e-07)
(-1.10563e-06 -2.06974e-06 2.43556e-07)
(-1.72355e-06 -2.1508e-06 2.31086e-07)
(-2.22176e-06 -2.26223e-06 2.13863e-07)
(-2.56901e-06 -2.39081e-06 1.93532e-07)
(-2.74871e-06 -2.52138e-06 1.71893e-07)
(-2.75948e-06 -2.63794e-06 1.50659e-07)
(-2.61396e-06 -2.72419e-06 1.31263e-07)
(-2.33677e-06 -2.76364e-06 1.14751e-07)
(-1.96151e-06 -2.73888e-06 1.01655e-07)
(-1.52755e-06 -2.63032e-06 9.18749e-08)
(-1.07695e-06 -2.4141e-06 8.44925e-08)
(-6.49969e-07 -2.05873e-06 7.69647e-08)
(-2.89267e-07 -1.51536e-06 6.44968e-08)
(-3.39226e-08 -6.90146e-07 3.41713e-08)
(-1.27642e-07 -2.16513e-06 -1.27507e-07)
(-2.67291e-07 -3.59709e-06 -1.3107e-07)
(2.82333e-08 -4.22851e-06 -7.66119e-08)
(4.97505e-07 -4.42947e-06 -1.49478e-08)
(1.08113e-06 -4.49171e-06 3.54656e-08)
(1.649e-06 -4.45986e-06 7.43722e-08)
(2.14791e-06 -4.37485e-06 1.06907e-07)
(2.52319e-06 -4.24652e-06 1.36142e-07)
(2.7407e-06 -4.08636e-06 1.64409e-07)
(2.77545e-06 -3.90572e-06 1.92206e-07)
(2.61617e-06 -3.71855e-06 2.19045e-07)
(2.26607e-06 -3.54053e-06 2.43634e-07)
(1.74426e-06 -3.38779e-06 2.64293e-07)
(1.08532e-06 -3.27483e-06 2.79324e-07)
(3.37098e-07 -3.21263e-06 2.87361e-07)
(-4.43851e-07 -3.20679e-06 2.87678e-07)
(-1.19802e-06 -3.25663e-06 2.80309e-07)
(-1.86921e-06 -3.35512e-06 2.66067e-07)
(-2.41034e-06 -3.48946e-06 2.46454e-07)
(-2.78799e-06 -3.64262e-06 2.23367e-07)
(-2.98486e-06 -3.79508e-06 1.98852e-07)
(-2.99989e-06 -3.92612e-06 1.74805e-07)
(-2.84698e-06 -4.01472e-06 1.5277e-07)
(-2.55235e-06 -4.03965e-06 1.33862e-07)
(-2.15122e-06 -3.97843e-06 1.18614e-07)
(-1.68449e-06 -3.80559e-06 1.06892e-07)
(-1.19586e-06 -3.48938e-06 9.7719e-08)
(-7.27491e-07 -2.98544e-06 8.83671e-08)
(-3.26577e-07 -2.21955e-06 7.36747e-08)
(-3.86746e-08 -1.03399e-06 3.89699e-08)
(-2.74842e-08 -1.96053e-06 -2.73276e-08)
(5.60749e-08 -3.77608e-06 -1.62067e-08)
(3.92002e-07 -4.77786e-06 1.33009e-08)
(8.55574e-07 -5.31136e-06 4.54784e-08)
(1.39769e-06 -5.59899e-06 7.54563e-08)
(1.93222e-06 -5.71927e-06 1.02666e-07)
(2.40406e-06 -5.72652e-06 1.2936e-07)
(2.76031e-06 -5.64956e-06 1.56681e-07)
(2.96179e-06 -5.51212e-06 1.85333e-07)
(2.97953e-06 -5.33502e-06 2.14906e-07)
(2.7986e-06 -5.13946e-06 2.44241e-07)
(2.41988e-06 -4.94703e-06 2.71557e-07)
(1.86162e-06 -4.77865e-06 2.94728e-07)
(1.15925e-06 -4.65279e-06 3.11666e-07)
(3.62933e-07 -4.58326e-06 3.20714e-07)
(-4.67427e-07 -4.57711e-06 3.21e-07)
(-1.26863e-06 -4.63375e-06 3.12549e-07)
(-1.98089e-06 -4.74487e-06 2.96281e-07)
(-2.55437e-06 -4.8952e-06 2.73945e-07)
(-2.95408e-06 -5.06431e-06 2.47763e-07)
(-3.16236e-06 -5.22878e-06 2.20069e-07)
(-3.17885e-06 -5.3638e-06 1.92988e-07)
(-3.01873e-06 -5.4442e-06 1.68235e-07)
(-2.70967e-06 -5.4444e-06 1.46982e-07)
(-2.28827e-06 -5.33702e-06 1.29789e-07)
(-1.79662e-06 -5.09055e-06 1.16487e-07)
(-1.27968e-06 -4.66449e-06 1.06039e-07)
(-7.81222e-07 -3.99959e-06 9.55593e-08)
(-3.51833e-07 -2.99209e-06 7.95418e-08)
(-4.17657e-08 -1.41232e-06 4.21077e-08)
(1.1407e-08 -2.11406e-06 1.15824e-08)
(2.15686e-07 -4.28266e-06 3.55432e-08)
(5.91359e-07 -5.57394e-06 5.70206e-08)
(1.0681e-06 -6.35479e-06 7.75069e-08)
(1.59859e-06 -6.82459e-06 9.82299e-08)
(2.11911e-06 -7.07677e-06 1.19997e-07)
(2.57706e-06 -7.17333e-06 1.44173e-07)
(2.92222e-06 -7.154e-06 1.71235e-07)
(3.11374e-06 -7.05042e-06 2.01129e-07)
(3.12066e-06 -6.89012e-06 2.32964e-07)
(2.92571e-06 -6.69966e-06 2.65138e-07)
(2.52798e-06 -6.50517e-06 2.95434e-07)
(1.94491e-06 -6.33144e-06 3.21314e-07)
(1.21244e-06 -6.20015e-06 3.4031e-07)
(3.82506e-07 -6.12732e-06 3.50444e-07)
(-4.82359e-07 -6.12121e-06 3.50698e-07)
(-1.31611e-06 -6.18134e-06 3.41083e-07)
(-2.05623e-06 -6.29843e-06 3.22652e-07)
(-2.65073e-06 -6.45528e-06 2.97432e-07)
(-3.06367e-06 -6.62883e-06 2.67981e-07)
(-3.27752e-06 -6.79266e-06 2.36951e-07)
(-3.29286e-06 -6.91866e-06 2.06746e-07)
(-3.12618e-06 -6.97827e-06 1.79267e-07)
(-2.80638e-06 -6.94211e-06 1.55744e-07)
(-2.37123e-06 -6.77842e-06 1.3676e-07)
(-1.86355e-06 -6.44948e-06 1.22101e-07)
(-1.32903e-06 -5.90531e-06 1.1069e-07)
(-8.1242e-07 -5.07031e-06 9.9501e-08)
(-3.66245e-07 -3.80833e-06 8.27726e-08)
(-4.34903e-08 -1.8125e-06 4.38769e-08)
(2.88877e-08 -2.39273e-06 2.90806e-08)
(2.89738e-07 -4.938e-06 5.99032e-08)
(6.90917e-07 -6.49816e-06 7.81961e-08)
(1.178e-06 -7.49173e-06 9.36806e-08)
(1.70365e-06 -8.12247e-06 1.10198e-07)
(2.2153e-06 -8.49651e-06 1.29568e-07)
(2.66344e-06 -8.68281e-06 1.52913e-07)
(3.00057e-06 -8.72854e-06 1.80502e-07)
(3.1858e-06 -8.67071e-06 2.11945e-07)
(3.18725e-06 -8.54131e-06 2.46072e-07)
(2.9862e-06 -8.37064e-06 2.80988e-07)
(2.58028e-06 -8.18793e-06 3.14135e-07)
(1.98608e-06 -8.02054e-06 3.42609e-07)
(1.23955e-06 -7.89223e-06 3.63563e-07)
(3.93622e-07 -7.82066e-06 3.74705e-07)
(-4.87629e-07 -7.81486e-06 3.74928e-07)
(-1.33643e-06 -7.87446e-06 3.64238e-07)
(-2.08857e-06 -7.98961e-06 3.43757e-07)
(-2.69096e-06 -8.14192e-06 3.15793e-07)
(-3.10736e-06 -8.30655e-06 2.8326e-07)
(-3.32072e-06 -8.45506e-06 2.49135e-07)
(-3.33275e-06 -8.55725e-06 2.16067e-07)
(-3.16119e-06 -8.58211e-06 1.861e-07)
(-2.83595e-06 -8.49722e-06 1.60555e-07)
(-2.39537e-06 -8.26688e-06 1.40018e-07)
(-1.88241e-06 -7.84725e-06 1.24257e-07)
(-1.34271e-06 -7.17859e-06 1.12134e-07)
(-8.20989e-07 -6.16789e-06 1.00544e-07)
(-3.70179e-07 -4.64489e-06 8.36163e-08)
(-4.39672e-08 -2.22283e-06 4.43959e-08)
(3.57292e-08 -2.7325e-06 3.59379e-08)
(3.18379e-07 -5.665e-06 6.96338e-08)
(7.26555e-07 -7.48253e-06 8.65079e-08)
(1.21138e-06 -8.66943e-06 9.98174e-08)
(1.72588e-06 -9.44836e-06 1.14446e-07)
(2.22382e-06 -9.93883e-06 1.32798e-07)
(2.65888e-06 -1.02169e-05 1.55975e-07)
(2.98619e-06 -1.03354e-05 1.84177e-07)
(3.16583e-06 -1.03351e-05 2.16925e-07)
(3.16593e-06 -1.02508e-05 2.52892e-07)
(2.96681e-06 -1.01148e-05 2.89983e-07)
(2.56487e-06 -9.95791e-06 3.25397e-07)
(1.97562e-06 -9.80869e-06 3.55911e-07)
(1.2343e-06 -9.69204e-06 3.78392e-07)
(3.93777e-07 -9.62634e-06 3.90317e-07)
(-4.81666e-07 -9.62106e-06 3.90508e-07)
(-1.32423e-06 -9.67594e-06 3.78964e-07)
(-2.06946e-06 -9.78086e-06 3.56862e-07)
(-2.6642e-06 -9.91688e-06 3.26744e-07)
(-3.07282e-06 -1.00586e-05 2.9179e-07)
(-3.27929e-06 -1.01767e-05 2.55226e-07)
(-3.28652e-06 -1.02398e-05 2.19942e-07)
(-3.11317e-06 -1.02158e-05 1.88101e-07)
(-2.78965e-06 -1.00701e-05 1.61075e-07)
(-2.35406e-06 -9.76351e-06 1.39432e-07)
(-1.84872e-06 -9.24646e-06 1.22917e-07)
(-1.31813e-06 -8.44932e-06 1.10386e-07)
(-8.05749e-07 -7.26142e-06 9.87242e-08)
(-3.63275e-07 -5.47795e-06 8.20701e-08)
(-4.3183e-08 -2.63163e-06 4.3652e-08)
(3.72465e-08 -3.08872e-06 3.74629e-08)
(3.18691e-07 -6.40454e-06 7.11918e-08)
(7.15103e-07 -8.46831e-06 8.69214e-08)
(1.18098e-06 -9.83522e-06 9.89887e-08)
(1.67129e-06 -1.07536e-05 1.12563e-07)
(2.14458e-06 -1.13571e-05 1.30254e-07)
(2.55809e-06 -1.17295e-05 1.53161e-07)
(2.87002e-06 -1.19278e-05 1.81508e-07)
(3.04232e-06 -1.19956e-05 2.14761e-07)
(3.04387e-06 -1.19692e-05 2.51556e-07)
(2.85467e-06 -1.18813e-05 2.89697e-07)
(2.47008e-06 -1.17629e-05 3.26235e-07)
(1.90416e-06 -1.16427e-05 3.57789e-07)
(1.19057e-06 -1.15455e-05 3.81038e-07)
(3.80653e-07 -1.14898e-05 3.93311e-07)
(-4.62897e-07 -1.14851e-05 3.93472e-07)
(-1.27412e-06 -1.15313e-05 3.81516e-07)
(-1.99015e-06 -1.16184e-05 3.58573e-07)
(-2.55936e-06 -1.17275e-05 3.27306e-07)
(-2.94771e-06 -1.18334e-05 2.91064e-07)
(-3.14061e-06 -1.19071e-05 2.53282e-07)
(-3.14205e-06 -1.19174e-05 2.16931e-07)
(-2.97129e-06 -1.18318e-05 1.84225e-07)
(-2.65843e-06 -1.16147e-05 1.5656e-07)
(-2.24038e-06 -1.12242e-05 1.34499e-07)
(-1.75757e-06 -1.06055e-05 1.17767e-07)
(-1.25216e-06 -9.67952e-06 1.05211e-07)
(-7.65067e-07 -8.31803e-06 9.38334e-08)
(-3.44912e-07 -6.28238e-06 7.79907e-08)
(-4.10581e-08 -3.02666e-06 4.15663e-08)
(3.54811e-08 -3.43415e-06 3.57111e-08)
(2.98461e-07 -7.11265e-06 6.73292e-08)
(6.64877e-07 -9.4058e-06 8.16497e-08)
(1.09346e-06 -1.09388e-05 9.26128e-08)
(1.54304e-06 -1.19877e-05 1.05199e-07)
(1.97703e-06 -1.27004e-05 1.22025e-07)
(2.35707e-06 -1.31678e-05 1.44131e-07)
(2.64536e-06 -1.34511e-05 1.71755e-07)
(2.80664e-06 -1.35952e-05 2.04374e-07)
(2.8115e-06 -1.36368e-05 2.40654e-07)
(2.64027e-06 -1.36077e-05 2.78411e-07)
(2.28742e-06 -1.3538e-05 3.14675e-07)
(1.76503e-06 -1.34555e-05 3.46029e-07)
(1.10406e-06 -1.33839e-05 3.6914e-07)
(3.52644e-07 -1.33414e-05 3.81278e-07)
(-4.30122e-07 -1.33374e-05 3.81404e-07)
(-1.18222e-06 -1.33719e-05 3.69498e-07)
(-1.84444e-06 -1.34349e-05 3.46604e-07)
(-2.36833e-06 -1.35083e-05 3.15459e-07)
(-2.72259e-06 -1.35678e-05 2.79393e-07)
(-2.89476e-06 -1.35856e-05 2.41875e-07)
(-2.88989e-06 -1.3532e-05 2.05873e-07)
(-2.72715e-06 -1.33751e-05 1.73588e-07)
(-2.43524e-06 -1.3079e-05 1.4637e-07)
(-2.04882e-06 -1.26001e-05 1.2474e-07)
(-1.60507e-06 -1.18791e-05 1.08433e-07)
(-1.14231e-06 -1.0828e-05 9.63483e-08)
(-6.97498e-07 -9.30234e-06 8.56906e-08)
(-3.14435e-07 -7.03133e-06 7.12192e-08)
(-3.74995e-08 -3.39481e-06 3.80433e-08)
(3.13881e-08 -3.74783e-06 3.16157e-08)
(2.61446e-07 -7.75166e-06 5.93156e-08)
(5.80352e-07 -1.02494e-05 7.17149e-08)
(9.52838e-07 -1.19308e-05 8.13623e-08)
(1.3436e-06 -1.30986e-05 9.26965e-08)
(1.72174e-06 -1.39141e-05 1.08106e-07)
(2.05449e-06 -1.44746e-05 1.28563e-07)
(2.30914e-06 -1.48444e-05 1.543e-07)
(2.45448e-06 -1.50694e-05 1.84842e-07)
(2.46381e-06 -1.51853e-05 2.18954e-07)
(2.3185e-06 -1.52224e-05 2.54589e-07)
(2.01222e-06 -1.52085e-05 2.88949e-07)
(1.55457e-06 -1.51695e-05 3.18685e-07)
(9.72454e-07 -1.51277e-05 3.40611e-07)
(3.08872e-07 -1.51004e-05 3.52083e-07)
(-3.82787e-07 -1.50971e-05 3.52158e-07)
(-1.04649e-06 -1.51176e-05 3.40836e-07)
(-1.62878e-06 -1.51524e-05 3.19045e-07)
(-2.0864e-06 -1.51839e-05 2.8943e-07)
(-2.39222e-06 -1.51897e-05 2.55204e-07)
(-2.53641e-06 -1.51439e-05 2.1971e-07)
(-2.525e-06 -1.5019e-05 1.85762e-07)
(-2.37627e-06 -1.47848e-05 1.55445e-07)
(-2.11652e-06 -1.44063e-05 1.29963e-07)
(-1.77668e-06 -1.38386e-05 1.09801e-07)
(-1.38926e-06 -1.30189e-05 9.46867e-08)
(-9.8731e-07 -1.18516e-05 8.36259e-08)
(-6.02321e-07 -1.01774e-05 7.41381e-08)
(-2.71514e-07 -7.69677e-06 6.16341e-08)
(-3.24624e-08 -3.72238e-06 3.30432e-08)
(2.53868e-08 -4.01228e-06 2.56236e-08)
(2.09839e-07 -8.28817e-06 4.78594e-08)
(4.64889e-07 -1.09568e-05 5.77868e-08)
(7.63115e-07 -1.27637e-05 6.57322e-08)
(1.07687e-06 -1.40347e-05 7.53683e-08)
(1.38222e-06 -1.49427e-05 8.86987e-08)
(1.65326e-06 -1.55905e-05 1.06536e-07)
(1.86361e-06 -1.60448e-05 1.29151e-07)
(1.98751e-06 -1.63515e-05 1.56198e-07)
(2.002e-06 -1.65444e-05 1.86641e-07)
(1.89038e-06 -1.66516e-05 2.18673e-07)
(1.64555e-06 -1.6698e-05 2.49791e-07)
(1.27384e-06 -1.67064e-05 2.76895e-07)
(7.96587e-07 -1.66972e-05 2.97044e-07)
(2.49678e-07 -1.66866e-05 3.07632e-07)
(-3.21207e-07 -1.66839e-05 3.07656e-07)
(-8.67735e-07 -1.66889e-05 2.97119e-07)
(-1.34419e-06 -1.66923e-05 2.77018e-07)
(-1.7146e-06 -1.66778e-05 2.49957e-07)
(-1.95752e-06 -1.6625e-05 2.18911e-07)
(-2.06645e-06 -1.65111e-05 1.86995e-07)
(-2.04831e-06 -1.63114e-05 1.56673e-07)
(-1.91975e-06 -1.59983e-05 1.29771e-07)
(-1.70349e-06 -1.55381e-05 1.07317e-07)
(-1.42521e-06 -1.4886e-05 8.96605e-08)
(-1.11135e-06 -1.39761e-05 7.65262e-08)
(-7.88119e-07 -1.27068e-05 6.7079e-08)
(-4.80116e-07 -1.09064e-05 5.9257e-08)
(-2.16367e-07 -8.25073e-06 4.92888e-08)
(-2.59477e-08 -3.99559e-06 2.65585e-08)
(1.77828e-08 -4.21219e-06 1.80139e-08)
(1.4558e-07 -8.69208e-06 3.34228e-08)
(3.221e-07 -1.14893e-05 4.03142e-08)
(5.29375e-07 -1.33929e-05 4.61309e-08)
(7.49125e-07 -1.47469e-05 5.35257e-08)
(9.65469e-07 -1.57328e-05 6.39854e-08)
(1.16067e-06 -1.64579e-05 7.81942e-08)
(1.31605e-06 -1.69902e-05 9.64131e-08)
(1.41257e-06 -1.73749e-05 1.1842e-07)
(1.4323e-06 -1.7644e-05 1.43498e-07)
(1.36108e-06 -1.78223e-05 1.70231e-07)
(1.1913e-06 -1.79311e-05 1.96619e-07)
(9.2549e-07 -1.79898e-05 2.19986e-07)
(5.78061e-07 -1.80159e-05 2.37681e-07)
(1.75617e-07 -1.80235e-05 2.47119e-07)
(-2.4585e-07 -1.80212e-05 2.4708e-07)
(-6.47457e-07 -1.80089e-05 2.37587e-07)
(-9.93268e-07 -1.7978e-05 2.19856e-07)
(-1.25664e-06 -1.79144e-05 1.96489e-07)
(-1.4232e-06 -1.78005e-05 1.70124e-07)
(-1.49049e-06 -1.7617e-05 1.43441e-07)
(-1.46608e-06 -1.7343e-05 1.18455e-07)
(-1.36405e-06 -1.69538e-05 9.65686e-08)
(-1.20232e-06 -1.64176e-05 7.84906e-08)
(-9.99975e-07 -1.569e-05 6.44315e-08)
(-7.75828e-07 -1.47036e-05 5.41192e-08)
(-5.4797e-07 -1.33518e-05 4.6864e-08)
(-3.32899e-07 -1.14538e-05 4.1174e-08)
(-1.49871e-07 -8.66632e-06 3.43249e-08)
(-1.80354e-08 -4.20113e-06 1.86744e-08)
(8.86523e-09 -4.33458e-06 9.08915e-09)
(7.08633e-08 -8.93762e-06 1.65467e-08)
(1.56582e-07 -1.18136e-05 1.99196e-08)
(2.5881e-07 -1.37795e-05 2.31794e-08)
(3.69942e-07 -1.51911e-05 2.78093e-08)
(4.83066e-07 -1.62358e-05 3.46725e-08)
(5.89762e-07 -1.70233e-05 4.42291e-08)
(6.80165e-07 -1.76223e-05 5.67432e-08)
(7.43097e-07 -1.80769e-05 7.22204e-08)
(7.66903e-07 -1.84169e-05 9.03498e-08)
(7.40991e-07 -1.86639e-05 1.10256e-07)
(6.57737e-07 -1.88352e-05 1.30537e-07)
(5.15385e-07 -1.89458e-05 1.49074e-07)
(3.20235e-07 -1.90094e-05 1.63618e-07)
(8.78723e-08 -1.90368e-05 1.71628e-07)
(-1.57535e-07 -1.90348e-05 1.71545e-07)
(-3.88665e-07 -1.90033e-05 1.63408e-07)
(-5.81479e-07 -1.89357e-05 1.4874e-07)
(-7.20492e-07 -1.88209e-05 1.30136e-07)
(-7.99591e-07 -1.86456e-05 1.09846e-07)
(-8.20567e-07 -1.83947e-05 8.99872e-08)
(-7.91204e-07 -1.80511e-05 7.19325e-08)
(-7.22164e-07 -1.75933e-05 5.65489e-08)
(-6.25182e-07 -1.69919e-05 4.41537e-08)
(-5.11513e-07 -1.62031e-05 3.47302e-08)
(-3.91223e-07 -1.51587e-05 2.80063e-08)
(-2.73053e-07 -1.37494e-05 2.35188e-08)
(-1.64436e-07 -1.17882e-05 2.03885e-08)
(-7.37105e-08 -8.91969e-06 1.7124e-08)
(-8.92444e-09 -4.32718e-06 9.587e-09)
(-1.04438e-09 -4.36917e-06 -8.33268e-10)
(-1.15367e-08 -9.00443e-06 -2.17144e-09)
(-2.56128e-08 -1.19029e-05 -2.72146e-09)
(-3.88908e-08 -1.38918e-05 -2.38346e-09)
(-4.75076e-08 -1.53312e-05 -1.04114e-09)
(-4.87502e-08 -1.64107e-05 1.44891e-09)
(-4.10533e-08 -1.72404e-05 5.29995e-09)
(-2.45947e-08 -1.78888e-05 1.07348e-08)
(-1.5616e-09 -1.83989e-05 1.7935e-08)
(2.36892e-08 -1.87983e-05 2.69617e-08)
(4.51313e-08 -1.91056e-05 3.75911e-08)
(5.59582e-08 -1.93342e-05 4.92556e-08)
(5.06135e-08 -1.94945e-05 6.0653e-08)
(2.68105e-08 -1.9595e-05 7.01775e-08)
(-1.23748e-08 -1.96422e-05 7.5713e-08)
(-5.71763e-08 -1.96404e-05 7.5577e-08)
(-9.48452e-08 -1.95896e-05 6.98431e-08)
(-1.15749e-07 -1.94854e-05 6.01361e-08)
(-1.16996e-07 -1.93216e-05 4.86463e-08)
(-1.01188e-07 -1.90898e-05 3.69349e-08)
(-7.40507e-08 -1.87794e-05 2.63307e-08)
(-4.26444e-08 -1.83774e-05 1.73579e-08)
(-1.30996e-08 -1.78652e-05 1.02602e-08)
(1.00888e-08 -1.72153e-05 4.94589e-09)
(2.45809e-08 -1.63851e-05 1.219e-09)
(3.0011e-08 -1.53065e-05 -1.13418e-09)
(2.76529e-08 -1.38693e-05 -2.32914e-09)
(1.97723e-08 -1.18844e-05 -2.51654e-09)
(9.66341e-09 -8.99172e-06 -1.8055e-09)
(1.11135e-09 -4.36415e-06 -4.29899e-10)
(-1.15269e-08 -4.3091e-06 -1.13177e-08)
(-9.81592e-08 -8.87904e-06 -2.19292e-08)
(-2.16854e-07 -1.17395e-05 -2.66341e-08)
(-3.51273e-07 -1.37086e-05 -2.94714e-08)
(-4.85881e-07 -1.51423e-05 -3.17954e-08)
(-6.08072e-07 -1.6228e-05 -3.42474e-08)
(-7.06046e-07 -1.70742e-05 -3.69797e-08)
(-7.699e-07 -1.77481e-05 -3.98387e-08)
(-7.92218e-07 -1.82912e-05 -4.25159e-08)
(-7.69218e-07 -1.87295e-05 -4.45708e-08)
(-7.01203e-07 -1.90791e-05 -4.55822e-08)
(-5.9305e-07 -1.93499e-05 -4.52416e-08)
(-4.53394e-07 -1.95484e-05 -4.37432e-08)
(-2.92826e-07 -1.96783e-05 -4.16024e-08)
(-1.21887e-07 -1.97418e-05 -3.99655e-08)
(5.2358e-08 -1.97402e-05 -4.01184e-08)
(2.25053e-07 -1.96733e-05 -4.19989e-08)
(3.8892e-07 -1.95399e-05 -4.43619e-08)
(5.33199e-07 -1.93384e-05 -4.6e-08)
(6.46879e-07 -1.90648e-05 -4.64189e-08)
(7.21121e-07 -1.87128e-05 -4.53781e-08)
(7.50741e-07 -1.82725e-05 -4.32747e-08)
(7.35228e-07 -1.77281e-05 -4.0495e-08)
(6.78196e-07 -1.70536e-05 -3.75221e-08)
(5.86883e-07 -1.62074e-05 -3.46751e-08)
(4.71001e-07 -1.5123e-05 -3.20827e-08)
(3.42074e-07 -1.36914e-05 -2.96064e-08)
(2.12352e-07 -1.17257e-05 -2.65822e-08)
(9.69175e-08 -8.8698e-06 -2.16926e-08)
(1.16681e-08 -4.3056e-06 -1.09737e-08)
(-2.20665e-08 -4.15185e-06 -2.18805e-08)
(-1.84854e-07 -8.55687e-06 -4.18134e-08)
(-4.08017e-07 -1.13174e-05 -5.07136e-08)
(-6.63504e-07 -1.32222e-05 -5.68207e-08)
(-9.24271e-07 -1.46143e-05 -6.2976e-08)
(-1.16818e-06 -1.56743e-05 -7.06749e-08)
(-1.37331e-06 -1.65072e-05 -8.03984e-08)
(-1.51969e-06 -1.71773e-05 -9.21956e-08)
(-1.59026e-06 -1.77242e-05 -1.05718e-07)
(-1.57259e-06 -1.81723e-05 -1.20192e-07)
(-1.46073e-06 -1.85362e-05 -1.34641e-07)
(-1.25675e-06 -1.88238e-05 -1.47743e-07)
(-9.7128e-07 -1.90389e-05 -1.58383e-07)
(-6.22688e-07 -1.91825e-05 -1.65624e-07)
(-2.35165e-07 -1.92539e-05 -1.69109e-07)
(1.65819e-07 -1.92522e-05 -1.69268e-07)
(5.55243e-07 -1.91775e-05 -1.66058e-07)
(9.07357e-07 -1.90307e-05 -1.59058e-07)
(1.19776e-06 -1.88129e-05 -1.48572e-07)
(1.40769e-06 -1.85228e-05 -1.35553e-07)
(1.52612e-06 -1.81571e-05 -1.21113e-07)
(1.55068e-06 -1.77076e-05 -1.06587e-07)
(1.4871e-06 -1.71599e-05 -9.29895e-08)
(1.34758e-06 -1.64897e-05 -8.10719e-08)
(1.149e-06 -1.56573e-05 -7.12246e-08)
(9.11138e-07 -1.45986e-05 -6.34018e-08)
(6.5565e-07 -1.32086e-05 -5.70796e-08)
(4.04396e-07 -1.13067e-05 -5.07777e-08)
(1.84038e-07 -8.5499e-06 -4.16603e-08)
(2.2267e-08 -4.14931e-06 -2.15665e-08)
(-3.21497e-08 -3.89965e-06 -3.19716e-08)
(-2.67159e-07 -8.04285e-06 -6.0772e-08)
(-5.89113e-07 -1.06433e-05 -7.3654e-08)
(-9.59141e-07 -1.24404e-05 -8.29013e-08)
(-1.33948e-06 -1.37555e-05 -9.27376e-08)
(-1.69907e-06 -1.47579e-05 -1.05443e-07)
(-2.00646e-06 -1.55463e-05 -1.2187e-07)
(-2.23213e-06 -1.61812e-05 -1.42259e-07)
(-2.3497e-06 -1.66998e-05 -1.66229e-07)
(-2.33856e-06 -1.71255e-05 -1.92758e-07)
(-2.18639e-06 -1.74716e-05 -2.20257e-07)
(-1.89217e-06 -1.77458e-05 -2.46502e-07)
(-1.46804e-06 -1.79512e-05 -2.69091e-07)
(-9.39552e-07 -1.80887e-05 -2.85639e-07)
(-3.43928e-07 -1.81573e-05 -2.94274e-07)
(2.75173e-07 -1.81555e-05 -2.94432e-07)
(8.72716e-07 -1.80838e-05 -2.86075e-07)
(1.40485e-06 -1.79432e-05 -2.69759e-07)
(1.83405e-06 -1.77352e-05 -2.47337e-07)
(2.13436e-06 -1.74589e-05 -2.21175e-07)
(2.29326e-06 -1.71113e-05 -1.93701e-07)
(2.31145e-06 -1.66847e-05 -1.67133e-07)
(2.20094e-06 -1.61657e-05 -1.43096e-07)
(1.98213e-06 -1.5531e-05 -1.22602e-07)
(1.6812e-06 -1.47434e-05 -1.06055e-07)
(1.32747e-06 -1.37423e-05 -9.32176e-08)
(9.52164e-07 -1.24292e-05 -8.32199e-08)
(5.86058e-07 -1.06348e-05 -7.3778e-08)
(2.66593e-07 -8.03741e-06 -6.06615e-08)
(3.23763e-08 -3.89774e-06 -3.16779e-08)
(-4.11817e-08 -3.55988e-06 -4.10266e-08)
(-3.40502e-07 -7.35244e-06 -7.77852e-08)
(-7.50218e-07 -9.73788e-06 -9.42172e-08)
(-1.22203e-06 -1.13874e-05 -1.06214e-07)
(-1.70874e-06 -1.2593e-05 -1.19245e-07)
(-2.17133e-06 -1.35088e-05 -1.36296e-07)
(-2.56984e-06 -1.42246e-05 -1.5855e-07)
(-2.86618e-06 -1.47961e-05 -1.86359e-07)
(-3.0257e-06 -1.5258e-05 -2.19278e-07)
(-3.0203e-06 -1.56322e-05 -2.56076e-07)
(-2.83211e-06 -1.5932e-05 -2.94649e-07)
(-2.45745e-06 -1.6166e-05 -3.32038e-07)
(-1.90987e-06 -1.63389e-05 -3.64706e-07)
(-1.22128e-06 -1.64532e-05 -3.89076e-07)
(-4.40472e-07 -1.65097e-05 -4.02037e-07)
(3.72802e-07 -1.6508e-05 -4.02176e-07)
(1.1555e-06 -1.64485e-05 -3.89482e-07)
(1.8477e-06 -1.63313e-05 -3.65339e-07)
(2.40032e-06 -1.6156e-05 -3.32821e-07)
(2.78109e-06 -1.59201e-05 -2.95519e-07)
(2.97603e-06 -1.5619e-05 -2.56991e-07)
(2.98847e-06 -1.52442e-05 -2.2017e-07)
(2.836e-06 -1.47822e-05 -1.87182e-07)
(2.54647e-06 -1.42112e-05 -1.59299e-07)
(2.15431e-06 -1.34962e-05 -1.36932e-07)
(1.69745e-06 -1.2582e-05 -1.19744e-07)
(1.2156e-06 -1.13781e-05 -1.06561e-07)
(7.47487e-07 -9.73093e-06 -9.43689e-08)
(3.40079e-07 -7.34811e-06 -7.76907e-08)
(4.14256e-08 -3.55841e-06 -4.07376e-08)
(-4.86573e-08 -3.14494e-06 -4.85159e-08)
(-4.00686e-07 -6.51101e-06 -9.18561e-08)
(-8.82157e-07 -8.63478e-06 -1.11175e-07)
(-1.43735e-06 -1.01032e-05 -1.25358e-07)
(-2.01148e-06 -1.11724e-05 -1.40878e-07)
(-2.55892e-06 -1.19778e-05 -1.61263e-07)
(-3.03244e-06 -1.25992e-05 -1.87907e-07)
(-3.3867e-06 -1.30862e-05 -2.21246e-07)
(-3.58007e-06 -1.34707e-05 -2.60746e-07)
(-3.57837e-06 -1.37731e-05 -3.04961e-07)
(-3.35955e-06 -1.40075e-05 -3.51404e-07)
(-2.91805e-06 -1.41838e-05 -3.96541e-07)
(-2.26896e-06 -1.43094e-05 -4.36112e-07)
(-1.44969e-06 -1.43898e-05 -4.65762e-07)
(-5.1841e-07 -1.44285e-05 -4.81633e-07)
(4.5235e-07 -1.4427e-05 -4.8175e-07)
(1.38546e-06 -1.43854e-05 -4.66108e-07)
(2.20827e-06 -1.43024e-05 -4.36659e-07)
(2.86225e-06 -1.41745e-05 -3.9724e-07)
(3.30972e-06 -1.39965e-05 -3.52194e-07)
(3.53515e-06 -1.37611e-05 -3.05792e-07)
(3.54377e-06 -1.34582e-05 -2.61579e-07)
(3.35737e-06 -1.30739e-05 -2.22028e-07)
(3.00981e-06 -1.25873e-05 -1.88626e-07)
(2.54251e-06 -1.19669e-05 -1.6189e-07)
(2.00066e-06 -1.11629e-05 -1.41389e-07)
(1.43123e-06 -1.00955e-05 -1.25718e-07)
(8.79596e-07 -8.62912e-06 -1.11338e-07)
(4.00318e-07 -6.50757e-06 -9.17709e-08)
(4.88985e-08 -3.14381e-06 -4.82339e-08)
(-5.40834e-08 -2.67156e-06 -5.39598e-08)
(-4.4386e-07 -5.55272e-06 -1.02074e-07)
(-9.76895e-07 -7.379e-06 -1.23457e-07)
(-1.5927e-06 -8.64091e-06 -1.39118e-07)
(-2.23111e-06 -9.55376e-06 -1.56257e-07)
(-2.84143e-06 -1.02324e-05 -1.78792e-07)
(-3.37072e-06 -1.07453e-05 -2.0822e-07)
(-3.7678e-06 -1.11357e-05 -2.44976e-07)
(-3.98566e-06 -1.14321e-05 -2.88461e-07)
(-3.98583e-06 -1.16539e-05 -3.37021e-07)
(-3.74335e-06 -1.18155e-05 -3.87882e-07)
(-3.25185e-06 -1.19282e-05 -4.37215e-07)
(-2.52812e-06 -1.20023e-05 -4.8041e-07)
(-1.61388e-06 -1.20459e-05 -5.12728e-07)
(-5.73997e-07 -1.20654e-05 -5.30035e-07)
(5.10193e-07 -1.20641e-05 -5.30139e-07)
(1.5518e-06 -1.20419e-05 -5.13042e-07)
(2.46938e-06 -1.19959e-05 -4.80893e-07)
(3.19779e-06 -1.19199e-05 -4.37834e-07)
(3.69503e-06 -1.18057e-05 -3.88597e-07)
(3.94389e-06 -1.16433e-05 -3.37778e-07)
(3.95045e-06 -1.14212e-05 -2.89223e-07)
(3.73934e-06 -1.11249e-05 -2.45714e-07)
(3.34877e-06 -1.0735e-05 -2.08901e-07)
(2.82556e-06 -1.02231e-05 -1.79393e-07)
(2.22064e-06 -9.54585e-06 -1.56753e-07)
(1.58678e-06 -8.6346e-06 -1.39458e-07)
(9.74451e-07 -7.37447e-06 -1.23614e-07)
(4.43519e-07 -5.55004e-06 -1.01997e-07)
(5.43177e-08 -2.67073e-06 -5.36861e-08)
(-5.69856e-08 -2.16056e-06 -5.68799e-08)
(-4.66612e-07 -4.5195e-06 -1.07533e-07)
(-1.02762e-06 -6.0254e-06 -1.29916e-07)
(-1.678e-06 -7.06446e-06 -1.46196e-07)
(-2.35486e-06 -7.80874e-06 -1.6399e-07)
(-3.00407e-06 -8.3516e-06 -1.8741e-07)
(-3.56853e-06 -8.74997e-06 -2.18016e-07)
(-3.99281e-06 -9.0406e-06 -2.56203e-07)
(-4.22621e-06 -9.2483e-06 -3.01244e-07)
(-4.2275e-06 -9.39094e-06 -3.51327e-07)
(-3.97024e-06 -9.48273e-06 -4.03553e-07)
(-3.44815e-06 -9.53619e-06 -4.53983e-07)
(-2.67955e-06 -9.56298e-06 -4.97942e-07)
(-1.70907e-06 -9.57359e-06 -5.30717e-07)
(-6.05598e-07 -9.57609e-06 -5.48258e-07)
(5.44688e-07 -9.57492e-06 -5.48346e-07)
(1.64977e-06 -9.57016e-06 -5.30986e-07)
(2.6234e-06 -9.55755e-06 -4.98363e-07)
(3.39641e-06 -9.52906e-06 -4.54525e-07)
(3.9239e-06 -9.4744e-06 -4.04182e-07)
(4.18723e-06 -9.38189e-06 -3.52005e-07)
(4.19236e-06 -9.239e-06 -3.01938e-07)
(3.96542e-06 -9.03148e-06 -2.56881e-07)
(3.5474e-06 -8.74144e-06 -2.18647e-07)
(2.98879e-06 -8.34397e-06 -1.87971e-07)
(2.34479e-06 -7.80229e-06 -1.64467e-07)
(1.6723e-06 -7.05942e-06 -1.46531e-07)
(1.02524e-06 -6.02187e-06 -1.30073e-07)
(4.6626e-07 -4.51754e-06 -1.07463e-07)
(5.72029e-08 -2.16004e-06 -5.66218e-08)
(-5.68186e-08 -1.6367e-06 -5.67292e-08)
(-4.65446e-07 -3.46038e-06 -1.07158e-07)
(-1.0281e-06 -4.63697e-06 -1.29183e-07)
(-1.68488e-06 -5.44644e-06 -1.44981e-07)
(-2.37299e-06 -6.01772e-06 -1.62297e-07)
(-3.03641e-06 -6.42311e-06 -1.85286e-07)
(-3.61539e-06 -6.70824e-06 -2.15531e-07)
(-4.05181e-06 -6.90326e-06 -2.53337e-07)
(-4.29295e-06 -7.02926e-06 -2.97874e-07)
(-4.29626e-06 -7.102e-06 -3.47233e-07)
(-4.03507e-06 -7.13477e-06 -3.9847e-07)
(-3.50364e-06 -7.14001e-06 -4.47699e-07)
(-2.72149e-06 -7.12982e-06 -4.90418e-07)
(-1.73457e-06 -7.11525e-06 -5.22132e-07)
(-6.1305e-07 -7.10507e-06 -5.39067e-07)
(5.55813e-07 -7.10412e-06 -5.39144e-07)