/*--------------------------------*- C++ -*----------------------------------*\
| =========                 |                                                 |
| \\      /  F ield         | OpenFOAM: The Open Source CFD Toolbox           |
|  \\    /   O peration     | Version:  v1912                                 |
|   \\  /    A nd           | Website:  www.openfoam.com                      |
|    \\/     M anipulation  |                                                 |
\*---------------------------------------------------------------------------*/
FoamFile
{
    version     2.0;
    format      ascii;
    class       volScalarField;
    location    "225/oil";
    object      heatTransferCoeff(T);
}
// * * * * * * * * * * * * * * * * * * * * * * * * * * * * * * * * * * * * * //

dimensions      [1 0 -3 -1 0 0 0];


internalField   uniform 0;

boundaryField
{
    maxY
    {
        type            calculated;
        value           uniform 0;
    }
    minX
    {
        type            calculated;
        value           uniform 0;
    }
    maxX
    {
        type            calculated;
        value           uniform 0;
    }
    minY
    {
        type            calculated;
        value           uniform 0;
    }
    minZ
    {
        type            calculated;
        value           uniform 0;
    }
    maxZ
    {
        type            calculated;
        value           uniform 0;
    }
    oil_to_sphere
    {
        type            calculated;
        value           nonuniform List<scalar> 
360
(
-86.301
-86.7855
-61.2279
-158.552
-169.011
-71.1352
-173.499
-156.575
-168.555
-88.2516
-88.7237
-70.8519
-78.5803
-55.1981
-86.482
-150.092
-171.244
-158.676
-165.992
-54.9062
-138.063
-88.6442
-78.0497
-163.965
-61.5913
-170.071
-70.9832
-167.486
-166.233
-157.189
-178.537
-174.443
-61.4082
-60.7941
-70.1308
-70.4818
-164.225
-163.032
-158.633
-161.209
-165.106
-60.8608
-69.585
-89.0653
-89.2721
-70.8558
-76.7762
-54.6786
-86.7503
-155.378
-71.5286
-70.9055
-78.0531
-78.1219
-54.5824
-89.1538
-159.101
-54.8566
-69.8603
-76.6562
-54.8511
-166.892
-158.498
-165.427
-54.6841
-143.383
-86.683
-75.8761
-173.708
-165.093
-159.079
-162.966
-162.498
-54.6226
-123.259
-85.954
-55.2634
-74.8552
-163.162
-168.12
-76.6403
-75.3637
-75.5215
-54.8421
-60.9976
-70.4053
-70.6301
-78.2692
-54.9437
-55.2673
-61.1254
-78.3767
-70.6432
-61.0452
-77.8721
-70.427
-70.4269
-70.5392
-60.7102
-55.8178
-55.7211
-54.8637
-71.2926
-71.0649
-78.666
-54.8649
-55.4294
-78.8092
-60.9506
-70.8298
-70.7425
-70.6924
-60.8327
-54.7026
-56.2711
-56.1883
-77.6895
-77.3367
-77.0651
-88.6475
-88.7944
-153.115
-163.119
-147.389
-164.332
-153.187
-164.502
-166.628
-154.923
-161.893
-159.159
-77.078
-76.6896
-76.8455
-55.6413
-152.377
-165.918
-89.7338
-89.9477
-167.407
-154.677
-87.7604
-86.455
-169.869
-155.817
-179.566
-55.6635
-55.5095
-164.061
-168.082
-179.323
-170.297
-170.354
-177.646
-179.193
-155.123
-85.826
-169.421
-160.677
-55.1354
-167.525
-171.81
-75.0696
-73.9255
-76.983
-87.8514
-88.8749
-169.467
-155.918
-176.304
-54.3537
-158.443
-89.1952
-167.467
-159.948
-54.3865
-172.627
-76.2044
-76.1112
-55.963
-70.8747
-71.1549
-78.4006
-61.3626
-77.5876
-69.3327
-55.031
-55.6856
-166.302
-155.933
-167.283
-160.895
-87.922
-87.9841
-163.756
-149.79
-161.042
-87.183
-87.7104
-55.4797
-70.3876
-71.5505
-78.6434
-70.866
-70.5933
-78.6948
-60.8978
-78.1703
-70.3314
-60.4581
-154.658
-78.5548
-70.3084
-55.0437
-162.404
-153.789
-162.387
-91.0868
-91.089
-54.3494
-69.9487
-70.0457
-76.5188
-166.795
-60.351
-76.2148
-69.795
-157.281
-158.37
-90.4501
-54.7063
-89.7509
-54.6765
-56.2684
-77.5974
-61.1958
-69.2343
-69.0463
-69.3402
-60.6615
-55.3812
-158.678
-149.027
-167.071
-175.142
-156.93
-148.374
-169.35
-171.251
-87.8067
-160.771
-55.6279
-169.059
-167.117
-167.933
-78.1028
-61.2423
-70.8376
-78.1262
-61.5238
-167.766
-70.3627
-70.3312
-70.7417
-60.7516
-169.801
-156.368
-70.228
-70.2421
-60.6999
-156.791
-177.4
-88.853
-159.617
-54.9075
-166.628
-163.516
-167.71
-76.1739
-60.5638
-165.255
-69.7499
-69.9004
-69.6453
-163.916
-60.7895
-161.326
-90.071
-149.334
-90.5155
-157.287
-160.387
-163.308
-55.0318
-74.9764
-73.6268
-74.3832
-89.9135
-164.395
-89.6696
-159.201
-163.936
-55.3667
-165.603
-168.398
-86.516
-161.355
-55.4325
-177.445
-76.0036
-75.5665
-54.3171
-158.925
-89.8338
-141.293
-159.516
-89.7497
-54.8582
-70.5299
-70.5751
-78.4737
-164.777
-152.784
-88.4338
-55.5689
-153.88
-89.8188
-55.1386
-155.024
-167.753
-87.0805
-161.899
-54.1951
-174.869
-78.7762
-172.054
-60.7983
-70.6797
-172.724
-161.432
-158.547
-88.2206
-168.302
-166.745
-88.9208
-159.55
-74.5655
-76.3929
-156.404
-89.4201
-54.5429
-156.41
-89.6281
-55.1527
-161.193
-162.369
-153.319
-90.0284
-158.705
-90.2398
)
;
    }
}


// ************************************************************************* //
