/*--------------------------------*- C++ -*----------------------------------*\
| =========                 |                                                 |
| \\      /  F ield         | OpenFOAM: The Open Source CFD Toolbox           |
|  \\    /   O peration     | Version:  v1912                                 |
|   \\  /    A nd           | Website:  www.openfoam.com                      |
|    \\/     M anipulation  |                                                 |
\*---------------------------------------------------------------------------*/
FoamFile
{
    version     2.0;
    format      ascii;
    class       volScalarField;
    location    "14/oil";
    object      heatTransferCoeff(T);
}
// * * * * * * * * * * * * * * * * * * * * * * * * * * * * * * * * * * * * * //

dimensions      [1 0 -3 -1 0 0 0];


internalField   uniform 0;

boundaryField
{
    maxY
    {
        type            calculated;
        value           uniform 0;
    }
    minX
    {
        type            calculated;
        value           uniform 0;
    }
    maxX
    {
        type            calculated;
        value           uniform 0;
    }
    minY
    {
        type            calculated;
        value           uniform 0;
    }
    minZ
    {
        type            calculated;
        value           uniform 0;
    }
    maxZ
    {
        type            calculated;
        value           uniform 0;
    }
    oil_to_sphere
    {
        type            calculated;
        value           nonuniform List<scalar> 
1536
(
-131.737
-131.015
-131.191
-129.427
-129.023
-130.798
-130.331
-130.302
-130.206
-129.362
-128.974
-129.384
-130.142
-129.623
-128.435
-130.105
-130.87
-131.232
-130.029
-130.14
-130.578
-130.148
-130.31
-130.106
-130.231
-130.149
-130.097
-129.985
-130.959
-130.354
-131.179
-130.965
-131.065
-129.986
-130.082
-129.893
-129.874
-129.606
-129.868
-130.017
-129.79
-129.977
-130.192
-130.497
-130.733
-130.009
-131.141
-130.821
-128.287
-130.235
-130.519
-130.263
-130.764
-129.984
-130.915
-131.551
-130.216
-130.156
-130.654
-130.402
-130.252
-130.105
-130.299
-129.994
-130.163
-130.184
-130.119
-130.603
-130.463
-130.785
-129.993
-129.653
-129.682
-130.164
-130.082
-131.555
-131.023
-129.985
-130.116
-131.297
-130.582
-130.62
-129.138
-129.058
-130.944
-131.718
-129.343
-130.051
-130.476
-130.43
-130.477
-129.899
-129.958
-129.958
-130.135
-130.447
-130.863
-130.835
-131.017
-130.407
-130.63
-129.955
-131.892
-130.609
-129.681
-130.117
-130.093
-129.55
-129.671
-132.052
-130.984
-130.429
-130.119
-130.435
-129.103
-129.467
-129.073
-131.405
-131.793
-131.149
-130.271
-130.414
-129.862
-130.798
-131.084
-130.881
-130.135
-129.779
-130.841
-130.454
-130.227
-130.443
-130.867
-129.98
-130.133
-130.741
-130.407
-131.345
-129.828
-130.862
-130.158
-130.496
-130.482
-130.186
-130.044
-130.183
-130.149
-132.824
-131.784
-131.911
-130.645
-132.432
-130.185
-130.287
-129.766
-131.539
-130.549
-131.928
-132.39
-132.826
-130.971
-133.112
-129.13
-129.307
-129.919
-129.794
-130.563
-132.022
-130.719
-132.383
-130.172
-130.251
-130.116
-131.032
-131.034
-130.836
-131.648
-131.531
-132.392
-131.605
-129.501
-129.206
-129.293
-129.312
-131.919
-131.787
-132.882
-130.101
-130.019
-131.241
-130.149
-131.087
-130.883
-131.268
-129.408
-128.656
-131.334
-131.34
-131.105
-129.915
-130.362
-130.217
-131.385
-131.368
-130.784
-130.672
-130.61
-131.694
-131.193
-131.891
-129.696
-130.128
-130.103
-130.921
-131.135
-131.854
-131.638
-129.576
-129.529
-128.744
-131.123
-130.932
-130.57
-130.478
-130.598
-131.938
-131.164
-130.912
-131.193
-129.581
-129.98
-128.883
-130.01
-131.749
-131.34
-131.45
-130.938
-130.716
-131.021
-129.484
-129.547
-131.654
-131.247
-129.878
-129.364
-128.947
-130.794
-131.996
-132.206
-133.561
-130.507
-129.267
-128.615
-130.408
-132.445
-129.932
-129.96
-128.843
-129.896
-131.881
-132.023
-130.859
-130.093
-131.258
-133.23
-130.045
-128.965
-130.974
-131.874
-131.612
-130.727
-130.94
-131.264
-129.469
-129.949
-131.381
-130.943
-132.18
-130.321
-131.315
-131.879
-131.017
-130.911
-131.382
-130.246
-130.101
-130.472
-129.617
-129.891
-131.331
-131.733
-131.965
-130.181
-130.166
-130.385
-130.126
-130.796
-130.487
-129.782
-128.995
-129.819
-129.371
-129.729
-131.858
-131.431
-131.521
-133.91
-129.198
-129.267
-131.603
-131.811
-133.314
-130.178
-130.466
-130.079
-130.922
-130.151
-130.833
-130.91
-131.438
-130.818
-130.458
-131.052
-129.726
-131.329
-131.464
-131.006
-131.038
-129.48
-131.924
-132.361
-131.738
-129.304
-130.27
-130.626
-130.945
-130.835
-130.703
-129.481
-131.327
-132.701
-131.194
-131.495
-130.53
-130.622
-130.434
-129.658
-130.906
-131.133
-129.564
-129.408
-129.584
-132.048
-131.538
-131.644
-130.638
-130.712
-131.861
-129.448
-131.913
-131.278
-130.506
-130.639
-129.514
-131.763
-131.47
-129.681
-130.459
-130.279
-130.187
-131.042
-131.308
-130.209
-130.281
-129.438
-131.809
-131.278
-129.516
-131.932
-132.054
-131.199
-131.726
-130.468
-131.058
-129.839
-129.206
-130.997
-133.365
-131.295
-132.649
-130.946
-130.263
-131.028
-129.929
-130.565
-131.301
-131.293
-131.075
-130.538
-130.066
-129.433
-131.46
-132.655
-131.303
-130.708
-130.212
-130.796
-130.981
-131.083
-130.697
-130.413
-130.141
-130.551
-130.015
-129.586
-129.953
-130.028
-130.447
-129.172
-130.179
-132.583
-130.177
-130.169
-131.396
-131.255
-130.833
-130.317
-129.367
-131.26
-131.465
-130.901
-130.891
-130.994
-130.634
-130.502
-130.663
-129.186
-131.796
-132.586
-131.736
-131.212
-131.176
-130.779
-130.643
-130.51
-129.895
-130.514
-129.809
-129.483
-129.805
-129.335
-131.895
-131.826
-131.337
-133.467
-131.403
-131.759
-129.365
-129.465
-130.832
-131.752
-129.4
-130.176
-129.831
-131.881
-131.671
-130.633
-130.813
-131.813
-131.519
-130.584
-131.052
-129.574
-131.236
-129.159
-131.764
-129.148
-131.581
-131.483
-131.343
-130.432
-129.413
-130.198
-131.32
-130.236
-129.195
-131.584
-131.387
-132.682
-131.962
-131.954
-131.346
-129.181
-129.32
-128.489
-128.58
-130.268
-129.93
-129.989
-129.884
-131.73
-131.569
-129.092
-128.888
-131.135
-130.744
-132.493
-130.087
-130.088
-130.716
-128.914
-128.67
-129.939
-129.928
-130.032
-130.193
-131.36
-131.224
-130.794
-130.562
-129.231
-130.123
-131.647
-129.82
-129.597
-131.057
-131.636
-129.812
-129.137
-129.553
-129.079
-130.35
-130.284
-130.052
-129.519
-128.335
-131.341
-131.249
-130.669
-130.69
-131.957
-131.271
-130.716
-130.799
-129.471
-129.918
-131.424
-130.976
-130.134
-128.83
-130.538
-132.496
-131.957
-130.579
-131.421
-131.492
-131.878
-131.298
-129.453
-129.727
-129.332
-130.093
-130.288
-131.33
-133.448
-129.445
-129.413
-131.615
-132.078
-130.574
-130.028
-129.1
-131.265
-130.307
-131.648
-131.661
-131.1
-129.172
-131.887
-132.454
-128.927
-132.494
-131.855
-131.34
-132.296
-131.052
-130.924
-130.645
-131.955
-130.726
-130.797
-130.641
-131.106
-130.79
-130.563
-130.576
-129.361
-131.116
-131.342
-131.191
-131.272
-131.427
-130.99
-130.813
-129.341
-131.639
-131.785
-131.057
-130.554
-130.784
-132.004
-131.228
-129.395
-129.194
-131.749
-131.58
-131.903
-130.353
-130.492
-130.989
-128.864
-128.402
-129.978
-129.924
-130.22
-129.263
-129.464
-132.074
-131.179
-131.564
-131.464
-131.721
-132.165
-131.778
-130.629
-128.492
-128.339
-130.202
-131.262
-130.263
-130.092
-128.873
-130.238
-131.952
-130.198
-133.6
-129.677
-131.317
-132.325
-130.994
-131.757
-132.085
-131.447
-130.85
-130.586
-130.565
-131.167
-130.416
-130.638
-130.947
-130.764
-131.308
-131.033
-131.244
-129.825
-129.792
-128.71
-128.673
-129.46
-128.193
-130.3
-130.218
-130.37
-130.62
-129.429
-129.389
-130.146
-131.654
-132.113
-130.151
-129.2
-130.259
-131.527
-131.909
-130.358
-129.401
-129.663
-131.02
-131.231
-130.36
-130.382
-131.066
-131.309
-131.826
-131.116
-130.604
-130.2
-129.417
-129.152
-131.568
-131.692
-131.974
-130.23
-132.181
-131.669
-132.307
-130.108
-130.323
-129.743
-130.007
-130.134
-129.787
-130.391
-129.174
-129.997
-131.749
-130.208
-129.624
-132.024
-131.243
-130.659
-130.694
-132.86
-133.076
-128.972
-131.015
-131.463
-130.85
-129.929
-130.533
-130.132
-131.002
-131.925
-131.247
-129.689
-131.131
-130.879
-130.932
-130.988
-130.598
-130.526
-130.592
-130.251
-129.353
-129.273
-129.63
-131.554
-130.051
-129.31
-130.043
-131.551
-130.266
-131.74
-131.494
-130.961
-130.623
-131.076
-131.818
-129.603
-130.886
-131.835
-131.478
-130.793
-129.955
-130.557
-131.169
-131.535
-129.711
-130.589
-130.905
-131.454
-130.683
-131.399
-131.745
-129.636
-130.077
-129.97
-131.953
-131.339
-130.455
-131.492
-129.974
-130.179
-131.483
-131.652
-131.646
-129.539
-131.198
-131.447
-130.541
-130.974
-131.229
-129.94
-129.1
-130.452
-131.516
-132.699
-130.437
-130.261
-130.449
-130.857
-131.277
-130.399
-130.092
-130.377
-131.292
-130.677
-129.62
-130.247
-129.975
-130.712
-130.592
-131.469
-131.021
-131.066
-130.167
-130.629
-130.69
-130.371
-130.213
-130.259
-130.109
-129.749
-131.061
-130.693
-130.509
-131.049
-129.125
-130.12
-132.03
-131.881
-129.937
-131.488
-130.871
-130.815
-130.325
-131.639
-131.338
-129.419
-130.184
-130.152
-130.185
-129.609
-129.32
-130.121
-131.587
-133.103
-130.05
-131.293
-131.05
-130.735
-130.406
-130.696
-131.59
-131.597
-129.493
-130.13
-130.1
-130.557
-130.917
-131.515
-131.12
-131.062
-131.361
-130.181
-131.001
-130.231
-131.34
-128.444
-131.091
-131.4
-130.215
-129.009
-131.154
-130.804
-131.748
-130.028
-131.017
-130.666
-129.13
-132.112
-129.692
-130.409
-130.33
-129.329
-131.564
-130.467
-130.567
-131.322
-130.481
-130.156
-131.68
-129.898
-130.179
-128.741
-131.716
-130.033
-130.355
-131.557
-132.769
-129.7
-130.347
-132.284
-129.783
-131.081
-130.068
-130.831
-129.48
-130.218
-132.251
-129.077
-132.963
-129.158
-131.883
-129.569
-130
-129.338
-130.292
-132.097
-128.934
-131.238
-129.194
-132.429
-132.082
-129.043
-131.432
-129.586
-129.441
-129.289
-129.927
-130.354
-130.433
-130.698
-130.304
-131.885
-132.279
-129.131
-131.727
-130.512
-130.303
-130.421
-130.377
-130.635
-130.326
-131.16
-130.539
-131.027
-130.269
-130.827
-131.537
-130.131
-130.652
-131.281
-130.149
-130.834
-130.544
-130.752
-130.32
-130.776
-130.246
-131.196
-130.157
-130.567
-129.31
-132.277
-128.957
-131.881
-131.518
-131.462
-129.95
-130.5
-130.21
-130.309
-131.031
-130.624
-131.214
-129.804
-128.521
-132.546
-129.081
-131.83
-130.054
-130.457
-132.296
-128.401
-133.328
-130.64
-128.957
-131.033
-130.927
-130.791
-130.741
-128.702
-131.02
-131.103
-130.047
-129.949
-131.772
-131.714
-130.327
-130.277
-131.759
-128.871
-131.867
-129.987
-130.822
-128.977
-133.56
-131.861
-131.173
-130.814
-130.89
-131.463
-130.703
-128.691
-129.714
-130.981
-130.009
-131.857
-128.91
-131.905
-131.507
-127.776
-131.079
-130.786
-128.504
-133.025
-129.21
-131.707
-132.186
-131.454
-128.277
-130.704
-130.423
-131
-130.86
-131.339
-128.732
-130.605
-129.852
-129.921
-131.959
-130.69
-131.694
-130.773
-130.896
-130.411
-130.522
-130.468
-130.563
-131.389
-130.119
-130.398
-129.989
-131.134
-131.551
-130.176
-130.185
-130.112
-130.653
-129.963
-129.905
-130.27
-130.344
-130.537
-130.803
-131.603
-131.591
-128.812
-129.48
-132.37
-128.026
-130.91
-131.139
-130.186
-130.466
-132.889
-128.631
-131.227
-131.452
-128.425
-130.307
-130.383
-131.345
-128.502
-131.406
-132.006
-128.205
-131.267
-131.903
-128.654
-131.422
-131.741
-128.697
-130.217
-130.081
-128.727
-130.471
-130.622
-130.443
-129.936
-131.125
-128.589
-129.744
-129.977
-128.667
-131.422
-129.591
-131.972
-130.708
-128.674
-131.181
-131.533
-128.56
-130.238
-130.303
-128.547
-129.233
-133.297
-127.805
-129.777
-131.438
-128.556
-131.498
-131.214
-130.484
-130.161
-130.47
-129.622
-128.322
-130.495
-130.038
-130.203
-130.498
-128.496
-131.703
-130.025
-130.393
-129.844
-130.324
-130.535
-129.799
-128.634
-130.375
-131.733
-129.952
-130.274
-130.64
-129.915
-130.384
-128.696
-130.491
-131.988
-129.853
-130.463
-129.945
-128.768
-132.291
-132.511
-131.318
-132.188
-128.599
-128.381
-130.768
-132.299
-130.603
-131.058
-131.215
-129.753
-129.419
-129.347
-129.68
-129.721
-130.394
-130.322
-130.278
-129.802
-131.189
-131.063
-128.697
-129.338
-129.766
-131.174
-129.829
-128.516
-132.27
-130.359
-131.276
-128.486
-130.754
-131.535
-130.137
-130.276
-131.113
-130.441
-129.595
-131.793
-128.05
-130.926
-131.3
-129.991
-130.145
-131.812
-131.242
-130.867
-129.592
-131.622
-130.332
-130.594
-131.169
-131.357
-131.218
-131.342
-131.887
-131.961
-131.633
-131.633
-131.898
-131.357
-130.082
-130.399
-130.066
-129.288
-128.286
-131.826
-131.725
-131.393
-130.212
-130.553
-130.518
-129.953
-130.739
-131.252
-129.795
-130.391
-131.041
-130.323
-130.126
-129.998
-130.215
-129.756
-130.151
-130.105
-128.922
-131.504
-129.963
-130.335
-128.382
-132.431
-130.435
-129.939
-129.818
-128.968
-130.641
-129.996
-128.584
-129.933
-130.334
-129.581
-129.354
-131.851
-132.042
-130.196
-130.159
-131.213
-131.656
-128.506
-130.958
-129.86
-130.108
-130.15
-130.209
-130.366
-129.664
-128.479
-132.103
-130.174
-129.462
-129.624
-130.022
-130.49
-129.099
-131.213
-130.278
-130.062
-131.654
-129.563
-128.793
-130.381
-130.055
-129.961
-128.535
-131.72
-130.261
-129.945
-130.092
-128.55
-130.537
-130.141
-128.861
-130.461
-129.878
-130.808
-131.302
-130.183
-131.07
-130.574
-129.978
-129.9
-130.175
-128.652
-131.341
-131.541
-130.058
-128.632
-129.785
-130.333
-130.362
-130.053
-128.633
-130.129
-131.245
-130.964
-130.372
-131.868
-129.278
-131.925
-128.473
-129.407
-132.142
-128.821
-131.375
-130.721
-130.487
-130.103
-132.303
-129.541
-130.399
-131.434
-131.968
-128.699
-131.451
-131.756
-128.164
-132.123
-129.901
-128.483
-132.309
-129.874
-129.998
-130.016
-130.35
-130.238
-130.012
-130.055
-128.349
-131.846
-130.751
-130.42
-130.497
-130.171
-129.901
-129.779
-132.131
-128.34
-129.809
-131.363
-128.8
-131.409
-131.611
-131.761
-131.512
-131.998
-129.427
-132.08
-130.873
-131.515
-129.911
-131.087
-129.644
-128.959
-131.852
-129.298
-131.233
-132.234
-131.591
-128.518
-131.872
-131.241
-129.907
-130.014
-130.231
-129.97
-128.523
-132.46
-128.48
-132.44
-130.164
-129.677
-130.525
-131.134
-130.902
-132.147
-130.35
-131.713
-131.737
-131.216
-129.553
-131.395
-131.02
-131.452
-130.022
-129.81
-128.71
-130.251
-131.712
-131.848
-128.296
-129.665
-129.443
-129.986
-130.303
-129.52
-132.894
-130.083
-129.556
-128.475
-131.025
-129.937
-128.013
-130.874
-130.079
-129.914
-130.04
-130.058
-128.518
-129.346
-128.479
-130.435
-132.152
-130.851
-131.725
-131.568
-129.82
-129.582
-128.717
-129.497
-131.84
-131.405
-131.695
-131.163
-129.393
-128.882
-129.557
-128.6
-131.258
-131.473
-129.707
-131.119
-131.646
-131.326
-131.638
-130.515
-130.444
-129.813
-128.117
-129.772
-128.843
-130.279
-130.037
-130.022
-128.761
-128.553
-130.985
-131.582
-132.295
-131.643
-130.432
-130.727
-130.752
-130.654
-130.144
-130.42
-129.73
-130.236
-130.236
-128.454
-132.034
-130.309
-129.723
-128.828
-130.437
-130.358
-130.34
-130.09
-128.853
-131.688
-130.725
-130.021
-131.796
-129.661
-128.436
-131.801
-130.432
-130.26
-130.186
-129.948
-128.066
-131.437
-130.208
-128.505
-132.525
-130.209
-128.228
-130.021
-130.272
-130.348
-129.898
-128.579
-129.986
-130.046
-129.096
-130.16
-128.488
-130.336
-130.296
-128.892
-132.491
-130.168
-128.906
-133.183
-130.321
-130.374
-128.764
-130.236
-128.572
)
;
    }
}


// ************************************************************************* //
