/*--------------------------------*- C++ -*----------------------------------*\
| =========                 |                                                 |
| \\      /  F ield         | OpenFOAM: The Open Source CFD Toolbox           |
|  \\    /   O peration     | Version:  v1912                                 |
|   \\  /    A nd           | Website:  www.openfoam.com                      |
|    \\/     M anipulation  |                                                 |
\*---------------------------------------------------------------------------*/
FoamFile
{
    version     2.0;
    format      ascii;
    class       volScalarField;
    location    "70/oil";
    object      wallHeatFlux;
}
// * * * * * * * * * * * * * * * * * * * * * * * * * * * * * * * * * * * * * //

dimensions      [1 0 -3 0 0 0 0];


internalField   uniform 0;

boundaryField
{
    maxY
    {
        type            calculated;
        value           uniform 0;
    }
    minX
    {
        type            calculated;
        value           uniform 0;
    }
    maxX
    {
        type            calculated;
        value           uniform 0;
    }
    minY
    {
        type            calculated;
        value           uniform 0;
    }
    minZ
    {
        type            calculated;
        value           uniform 0;
    }
    maxZ
    {
        type            calculated;
        value           uniform 0;
    }
    oil_to_sphere
    {
        type            calculated;
        value           nonuniform List<scalar> 
1536
(
15406.4
15222.6
15240.3
14854.3
14803.6
15193
15057.9
15088.4
15065.2
14863.1
14744.2
14879.3
15056.1
14910.7
14658.8
15021.1
15201.2
15249.7
15006.8
15050.5
15143.5
15060
15085.8
15019.9
15044.1
15029.6
15028.3
14993.6
15205.4
15087.1
15261
15217.6
15232.5
15008.2
15025.1
14984
14991.1
14930.7
14979.4
15018.5
14966.3
15002.4
15060.2
15115.8
15167.6
15016.6
15205.7
15142.8
14649.8
15039.1
15127.3
15073.2
15134.2
15005.8
15197.1
15339.2
15074.1
15052.7
15150.5
15112.4
15064.5
15050.8
15068
15004.2
15033.5
15052.1
15047.8
15139.2
15122.4
15181.9
15003.4
14875.7
14911.7
15031.8
15021.6
15346.5
15229.2
14975.2
15022.5
15253.6
15145.2
15134.6
14822.1
14810.1
15203.3
15384.7
14819.6
15031.6
15121.1
15115.2
15096.2
14988.1
14993.1
14997.7
15027.8
15109
15175
15179
15235.8
15110.3
15151.6
14997.7
15425.8
15138.5
14907.2
15024.1
15029.2
14875.7
14888.5
15446.8
15223.7
15102.4
15051.5
15100.3
14803.7
14855.1
14780.4
15303.9
15403.5
15248.1
15077.1
15098
14977.5
15166.6
15248.8
15159.4
15060.7
14961.5
15177.6
15127.3
15057.6
15122
15190.4
15017.7
15041.5
15181.8
15097.7
15260
14969.1
15201.7
15060.6
15130.9
15130.4
15060.8
15033.1
15058.3
15076.7
15462.2
15231.1
15431.9
15161.4
15381.2
15070.3
15087.5
14986
15234.9
15159.1
15294
15503.4
15442.7
15221.6
15499.9
14861.5
14897.9
14991.7
14975.5
15155.4
15365.7
15201.3
15434.8
15014.8
15030.2
14991.1
15195
15164
15150.7
15367.8
15142.3
15217.2
15371.4
14939.9
14887.7
14893.8
14905.4
15285.7
15392.5
15449.9
15001.9
14960.3
15249.4
14981.9
15214.3
15191.1
15280.1
14881.1
14662.4
15283.8
15298.5
15144.2
15002.2
15085
15046.1
15267.3
15286.5
15175.1
15140.9
15071.9
15331.9
15256.7
15270.1
14951.9
15029.6
15022.7
15128
15208.5
15377.3
15145.5
14903.6
14901.3
14658.8
15230
15184
15128.2
15097.4
15115.6
15360.1
15222.3
15117.7
15238.7
14889
14994.4
14692.8
15040.3
15295.4
15285
15287
15209.2
15162.8
15233.1
14888.9
14910.6
15164.4
15290.1
14967.6
14746.1
14769.6
15169
15264
15433.4
15634.3
15110.6
14833.8
14646.6
15112.7
15397.3
14995.2
15001.4
14769.2
14987.2
15353.1
15423.5
15131.9
15016.4
15300.2
15490.3
15019
14825.9
15137.9
15382.6
15328.5
15164.1
15197.9
15272.1
14914.2
15004.2
15290.8
15198.1
15354.1
15075
15252.6
15377.1
15200.6
15180.4
15309.3
15032
15014.1
15065.4
14950.7
14988
15288.6
15369.7
15173.9
15044.1
15037.1
15065.9
15004.6
15138.4
15093.2
14954.6
14788.3
14977.4
14879.2
14958.4
15401.3
15317.4
15325.4
15664.4
14876.5
14891.7
15226.5
15420.9
15570.6
15017.3
15092.4
15000.7
15193.9
15025.1
15170.9
15188
15276.9
15186.6
15068.4
15217
14965.5
15280
15308.6
15220.5
15216.1
14922.5
15394.2
15439.6
15284.7
14866.8
15033.6
15092.3
15192.5
15169.9
15169.7
14919.4
15278.2
15437.5
15250.1
15322.1
15131.7
15129.7
15084.5
14923.3
15162.9
15216.2
14911.6
14886.5
14924.6
15437.3
15300.2
15339.1
15146.3
15138.1
15347
14893.3
15400
15258.5
15116.5
15129.8
14894.3
15312.8
15290.1
14949.4
15111.5
15064.6
15027.6
15207.8
15274.4
15062
15045.7
14905.1
15372.2
15275
14897.7
15356
15355.8
15238.7
15362.4
15110.8
15214.8
14915.4
14858.7
15197.4
15598
15254.1
15483.3
15180.1
15049.4
15236.5
14963.5
15056
15223.7
15270.8
15213.1
15136
14983.4
14911.3
15300.3
15430.7
15278.1
15136.3
15024
15168.5
15209.8
15245.5
15140.8
15073.4
14998.8
15115.3
14968.6
14880.1
14996.8
14986.9
15105
14842
15041.1
15469.7
15038.6
15036.4
15281.4
15264.1
15181.8
15069.1
14887.7
15249.2
15320
15184.7
15164.1
15222.7
15112.1
15107.5
15147.7
14826.6
15285.4
15424.5
15348.7
15256.5
15229.6
15179.8
15135.6
15086.8
14959.8
15104.5
14960.9
14891.4
14969.6
14850.8
15408.6
15386.8
15294.5
15603.1
15128.7
15394
14905.1
14936.2
15196.4
15161.5
14906.1
15041.8
14999
15396.5
15343.9
15144.2
15172.1
15370.8
15307.6
15127.6
15217.1
14939.4
15264.4
14850
15350.6
14821.3
15273.1
15274.3
15271.4
15064.9
14903.3
15053.5
15271.9
15062.7
14847
15303.6
15288.9
15448.8
15444.5
15283.3
15313.8
14873.5
14902.1
14677.4
14727.7
15090.9
15013.4
15007
14978.6
15397.7
15155
14852.5
14815.1
15151.2
15020.6
15513.6
14997.5
15005.1
15128.2
14739.9
14747.7
14995.8
14991.9
15041.9
15035.1
15285.2
15257.2
15181.9
15124.1
14841.6
15022
15301.9
14950.7
14940
15225.9
15353.5
14966.4
14750.7
14911.1
14755.9
15084.1
15048.2
15001.1
14890.7
14673
15242.3
15245.9
15151.5
15121.2
15393.1
15237.5
15166.5
15148.4
14920.7
15002
15292.1
15203.2
15039.9
14752.8
15125.2
15394.9
15398.7
15133.3
15164.6
15346.1
15261.2
15309.7
14924.5
14984.2
14897.4
15028.7
15098.1
15318.4
15362.4
14930.3
14913.4
15206.5
15469.4
15011.4
15013.1
14852.2
15191.2
15099.7
15318.6
15359
15055.1
14852.1
15383.5
15460.6
14786.9
15446.4
15347.5
15259
15394.7
15204.8
15158
15131.6
15387.9
15143.3
15177.5
15125.2
15248.6
15157.9
15108.7
15103.3
14889.1
15233.2
15195.1
15256.7
15240
15259.9
15204.3
15154.2
14874.2
15319.8
15335.7
15208.8
15106.6
15159.5
15437.6
15074.1
14915.9
14873.3
15263
15169.8
15427.1
15059.1
15085.2
15161.7
14722.5
14686.1
15003.4
14995.1
15082.4
14889.3
14930.7
15303.2
15130.2
15348.7
15128.9
15399.9
15264.3
15263.8
14890.7
14692.7
14658.8
15018.6
15250.5
15039.8
15006.2
14733.7
15080.7
15334.4
15077.9
15668.4
14950.4
15280
15351.3
15223.1
15339.1
15372.5
15273.9
15143.6
15093
15109.9
15243.1
15080.4
15149.2
15174.2
15161.8
15268.1
15209.9
15247.3
14940.3
14959.3
14665.8
14751
14863.1
14547.7
15037.1
15038.3
15075.6
15114.9
14861.9
14894.2
15041
15334
15375.2
15039.7
14850.1
15069.3
15290.1
15305.1
15090.2
14866
14949
15206.1
15210.7
15088.4
15049.8
15220.9
15250.2
15374
15229.5
15131.8
15036.2
14923.8
14863.2
15179.5
15228.4
15440.9
15086.5
15437.8
15178.5
15487.1
15015.2
15073.7
14938.4
14978.6
15029.5
14933.8
15075.9
14841.5
15006.8
15327.6
15044.2
14909.1
15403.3
15237.9
15153.4
15120.1
15487.9
15622.4
14787.1
15209
15239.4
15183.4
14949.5
15103.4
15006.2
15187.9
15322.4
15277
14944.8
15218.2
15156.7
15206.7
15206.9
15152.3
15083.1
15102.6
15037.4
14866.4
14846.3
14930.7
15334.4
15013.4
14877.2
15015.4
15307.5
15060.3
15354.6
15287.7
15190.9
15133.6
15202
15385.1
14927.7
15192.5
15345.4
15315.2
15151.2
14984.9
15091.2
15213.1
15324.6
14933.2
15103.3
15161
15294.1
15157.8
15237.7
15358.9
14926.4
15003.3
14978.2
15401.1
15286.4
15110.3
15297.5
14992.6
15027.6
15296
15265.9
15354
14924.9
15247.7
15288.4
15127.1
15185.4
15245.6
14972.7
14820.7
15102.6
15250.9
15489.7
15088.4
15030.7
15096.5
15178.3
15255.3
15108.1
15003
15082.4
15270
15045.1
14949.1
15067.5
15003.2
15152.5
15129.7
15312.2
15202.5
15239.2
15029.2
15118
15149.8
15085
15051.5
15042.7
15024.2
14941.5
15218.8
15147.4
15126.4
15201.6
14846.7
15032.3
15405.9
15391.3
14985.3
15299.2
15179.5
15189.9
15047.4
15334.8
15293.5
14909.1
15050.9
15034.6
15034.2
14898.8
14886.6
15031
15319.7
15564
15006.7
15252.1
15217.2
15161.8
15079.7
15151.2
15325.1
15250.4
14920.7
15034.3
15022
15078.6
15191.3
15269.5
15226.1
15224.5
15257.8
15013.8
15222.6
15048.2
15245.4
14685.6
15206.8
15313.9
15051.4
14791.4
15180.9
15126.6
15388.1
14986.5
15224.6
15120.5
14822.6
15411.5
14916.7
15082.7
15090.1
14869
15307.8
15125.9
15098
15209.4
15126.8
15053.6
15386
14942.7
15035.5
14693.1
15218.5
15031.1
15096.2
15306.1
15593.3
14903
15055.9
15504.7
14927.8
15224.3
14998
15191.6
14837
15008.4
15497.6
14809.8
15556.1
14835.5
15398.1
14874.2
14982
14772.2
14987.8
15465.7
14752.6
15184.3
14822.8
15437.2
15465.2
14770.6
15191.5
14955.4
14914.8
14894.1
15009.3
15093.8
15102.3
15173.7
15079.7
15377.9
15512.4
14778.5
15250.1
15140.1
15087.9
15113.3
15083.1
15099.8
15076.9
15246.9
15103.8
15233.5
15044.6
15162.6
15329.6
15041
15164.5
15277.2
15030.5
15163.4
15106.9
15178.7
15073
15148.6
15056.8
15262.5
15038
15141.9
14851.9
15427.3
14765.4
15291.5
15295.1
15338.4
14979.8
15120.5
15069.4
15098.4
15173.8
15113.4
15251.6
14951.4
14643.6
15318.5
14800.6
15343.2
14993.6
15103
15361.1
14642.4
15528.5
15043.1
14738.8
15098.9
15207.4
15185.1
15139.7
14728
15170
15194
15005.5
14982.3
15339.7
15319.2
15045.5
15088.7
15338.7
14749.7
15325.8
14984.5
15184.3
14771.3
15615.3
15412.7
15256.7
15146.1
15129.1
15265.5
15103.5
14725.3
14933.8
15216.9
14991.6
15295.8
14779
15349.1
15262.7
14522.3
15177.4
15162.8
14660.9
15496.7
14837.8
15330.6
15418.3
15277.1
14664
15139.5
15079.3
15169.4
15159.6
15237.5
14735.4
15081.2
14976.1
14984.4
15352.7
15128.1
15268.1
15183.6
15192.6
15076.5
15121.9
15087.9
15140.5
15298.4
15021.4
15070.8
15001.4
15189.8
15297.8
15026.8
15044
15027.6
15125.4
14988.1
14988.6
15052.8
15068.1
15122
15111.2
15348.9
15294.7
14775.9
14855.2
15422
14528.9
15210.7
15197.3
15013.3
15082.3
15485.4
14668.7
15273.9
15240.4
14688.5
15051.1
15043.6
15204
14644.4
15310.9
15306.7
14623.1
15287.5
15362
14738.7
15334.5
15321.9
14746.1
15026.9
15002
14681.9
15106.8
15134.5
15018.7
14978.7
15106.8
14621.9
14954.4
14816.3
14618.8
15289.3
14955.2
15451.4
15088.7
14727.6
15286.7
15210.1
14681.5
15035
15037.8
14677.8
14826.9
15522.7
14474.3
14941.7
15114.9
14589.1
15304.6
15254.6
15107.6
15039.2
15055.4
14924.7
14609.7
15111.8
15026.7
15049.7
15109.5
14686
15297.2
15011.1
15086.6
14981.8
15075.6
15121.2
14939.3
14710
15060.6
15261.8
15000.7
15051.9
15118
14975.9
15068.7
14704.7
15064.4
15301
14984.4
15082.8
14982
14728.5
15415.6
15437.3
15292.6
15422.6
14731.4
14648.2
15097.8
15370.1
15131.8
15220.8
15253.1
14939.3
14881.5
14762.2
14843.4
14953
15087.9
15073.9
15064.8
14925.8
15263.9
15196.6
14748.1
14905.3
14936.7
15246.4
14967.8
14631
15302.5
15089.1
15278.7
14677.1
15087.6
15236.5
15029.2
15060.8
15223.8
15091.2
14923.7
15387.1
14545.9
15039.1
15180.1
14985.4
15034.7
15378.2
15220.4
15148.4
14890.1
15340.5
15049.7
15127.8
15247.6
15288.1
15264.7
15285.6
15379.7
15408.9
15347.1
15347.3
15267.5
15273.3
15017
15074.6
14953.4
14840.2
14589.7
15383.5
15365.9
15301
15049
15123.7
15113.6
14984.1
15150.1
15260.2
14949.6
15078.8
15211
15038.6
15024.2
15004.8
15048.1
14956.9
15037.8
15024.8
14765.5
15232.1
14970.4
15071.7
14659
15452.2
15087.3
14988.6
14960.6
14781.3
15121.1
14997.7
14666.9
14926.1
15073.6
14870.4
14867.4
15400.7
15432.8
15036.2
15032.8
15243
15358.6
14655.6
15097.7
14968.8
15031.1
15035.2
15049.8
15081.6
14907.7
14698.3
15390.2
15035.8
14866
14901.5
15016.1
15106.7
14798
15166.6
15020.9
15014.7
15360.2
14880.3
14737.7
15061.5
15006.9
14980.1
14707
15330.3
15042
15001.9
15023.5
14664.3
15075
15034
14749.1
15064
14919.3
15167.8
15296
15010.1
15240.6
15137
14990
14984.4
15041
14720.8
15222.8
15258.6
15010.7
14693.8
14936.8
15068.9
15078.9
14996.8
14708.8
15009.2
15275.6
15181.9
15039.2
15399.7
14848.4
15332.8
14659
14858
15365.5
14695.3
15283.8
15077.3
15105.9
15019.8
15459.6
14899.8
15097.9
15335.3
15379.2
14761.1
15313.4
15372
14549.8
15270.9
14988.5
14665.7
15345.5
14983.4
15008.2
15010.6
15081.1
15053.9
15005.5
15002.4
14644.6
15292.4
15135.8
15092.6
15116.1
15044.4
14980.7
14937.3
15345.5
14615.7
14960.5
15133.5
14676.9
15283
15364.4
15237
15314.2
15382.9
14922.3
15229.2
15179.3
15313.7
14974.6
15215
14903.1
14720.5
15316.4
14893.4
15273.7
15441.1
15350
14680.8
15329.1
15194.7
14958.7
15004.7
15044.9
14995.3
14685.2
15420.9
14686.6
15415.1
15042
14907
14986.4
15154.6
15197.8
15406.8
15086.4
15410.6
15305.5
15266.7
14774.9
15276.8
15215.7
15299.4
14990.4
14950.1
14657
15064.5
15402.8
15353.6
14675.1
14912.3
14795
14986.1
15074.7
14886.6
15591.4
15018.3
14900.2
14700.3
15187.4
14966.6
14590.8
15129
15005.8
14990.1
15007.8
15011.2
14707.3
14868.7
14666.6
15047.7
15352
15173.2
15344.8
15312.4
14962
14915
14685.6
14935.6
15305.8
15317.8
15300.3
15245.3
14858.8
14684
14903.2
14637.6
15247.1
15279.3
14929.7
15253
15289.5
15299.5
15252.2
15109.2
15098.2
14961.1
14613.1
14931.7
14717
14969.7
15007.6
14993
14747.6
14683.5
15202
15388.9
15448.8
15356.2
15094.5
15169.5
15168.6
15110.8
15019.2
15084
14938.2
15049.8
15050.8
14673.1
15333.3
15050.9
14919.4
14751.7
15045.4
15083.7
15080.7
15001.2
14755.5
15355.3
15151.9
15001.6
15389.1
14933.6
14662.9
15282.4
15072.7
15054
15045.6
14987.4
14583.3
15188.2
15045.5
14690.9
15444.7
15036
14523.3
15005.2
15069.7
15085.1
14981.1
14691.1
14977.3
14989.4
14818.1
15047.1
14660.5
15071.9
15061.5
14786.1
15466.1
15040.3
14754.1
15566.1
15073.3
15079.3
14742.8
15054.7
14696.3
)
;
    }
}


// ************************************************************************* //
