/*--------------------------------*- C++ -*----------------------------------*\
| =========                 |                                                 |
| \\      /  F ield         | OpenFOAM: The Open Source CFD Toolbox           |
|  \\    /   O peration     | Version:  v1912                                 |
|   \\  /    A nd           | Website:  www.openfoam.com                      |
|    \\/     M anipulation  |                                                 |
\*---------------------------------------------------------------------------*/
FoamFile
{
    version     2.0;
    format      ascii;
    class       volVectorField;
    location    "108/oil";
    object      U;
}
// * * * * * * * * * * * * * * * * * * * * * * * * * * * * * * * * * * * * * //

dimensions      [0 1 -1 0 0 0 0];


internalField   nonuniform List<vector> 
35580
(
(-8.86419e-10 1.80745e-09 -9.04395e-10)
(9.81294e-10 1.62009e-09 -2.1999e-09)
(8.59244e-09 1.58689e-09 -3.54799e-09)
(2.05749e-08 1.98442e-09 -4.9104e-09)
(3.51242e-08 2.62427e-09 -6.00628e-09)
(5.02083e-08 3.37882e-09 -6.74284e-09)
(6.39472e-08 4.17578e-09 -7.11336e-09)
(7.47109e-08 4.98118e-09 -7.16002e-09)
(8.11651e-08 5.77398e-09 -6.94684e-09)
(8.24262e-08 6.53565e-09 -6.52962e-09)
(7.80089e-08 7.22303e-09 -5.96918e-09)
(6.7948e-08 7.80479e-09 -5.40956e-09)
(5.28541e-08 8.26102e-09 -4.88969e-09)
(3.36726e-08 8.60794e-09 -4.51892e-09)
(1.18794e-08 8.7992e-09 -4.32483e-09)
(-1.08688e-08 8.8226e-09 -4.32849e-09)
(-3.27343e-08 8.62378e-09 -4.51815e-09)
(-5.19685e-08 8.27184e-09 -4.87771e-09)
(-6.71734e-08 7.78771e-09 -5.37492e-09)
(-7.7349e-08 7.21753e-09 -5.94226e-09)
(-8.19474e-08 6.54179e-09 -6.49701e-09)
(-8.08352e-08 5.77113e-09 -6.93302e-09)
(-7.44802e-08 4.97798e-09 -7.1455e-09)
(-6.38089e-08 4.17457e-09 -7.10569e-09)
(-5.01416e-08 3.37701e-09 -6.73671e-09)
(-3.51167e-08 2.6241e-09 -6.00046e-09)
(-2.06064e-08 1.98323e-09 -4.90157e-09)
(-8.63969e-09 1.57744e-09 -3.53172e-09)
(-1.01066e-09 1.59374e-09 -2.18242e-09)
(8.76522e-10 1.74913e-09 -8.9934e-10)
(4.85343e-10 -1.74308e-09 4.75042e-10)
(9.41739e-09 -1.04604e-08 4.17479e-10)
(2.73454e-08 -1.73798e-08 -2.07053e-10)
(5.22943e-08 -2.11273e-08 -1.02229e-09)
(8.13007e-08 -2.23106e-08 -1.62231e-09)
(1.10888e-07 -2.15759e-08 -1.82657e-09)
(1.37571e-07 -1.94529e-08 -1.59346e-09)
(1.58211e-07 -1.63372e-08 -9.54302e-10)
(1.70209e-07 -1.25641e-08 1.52192e-11)
(1.71736e-07 -8.44535e-09 1.20422e-09)
(1.61784e-07 -4.31344e-09 2.59379e-09)
(1.40376e-07 -5.23214e-10 3.89738e-09)
(1.08838e-07 2.60505e-09 5.04283e-09)
(6.92404e-08 4.89098e-09 5.86552e-09)
(2.44091e-08 6.10533e-09 6.30025e-09)
(-2.23647e-08 6.13369e-09 6.31512e-09)
(-6.73584e-08 4.87503e-09 5.88773e-09)
(-1.07051e-07 2.54834e-09 5.09124e-09)
(-1.38635e-07 -6.44702e-10 3.97559e-09)
(-1.60151e-07 -4.3903e-09 2.67371e-09)
(-1.70417e-07 -8.51554e-09 1.30763e-09)
(-1.69167e-07 -1.26278e-08 8.86302e-11)
(-1.57402e-07 -1.63755e-08 -8.84734e-10)
(-1.37012e-07 -1.94724e-08 -1.5376e-09)
(-1.10547e-07 -2.15979e-08 -1.77928e-09)
(-8.11391e-08 -2.23491e-08 -1.57969e-09)
(-5.22636e-08 -2.1197e-08 -9.87443e-10)
(-2.7371e-08 -1.74874e-08 -1.77886e-10)
(-9.43457e-09 -1.0583e-08 4.31465e-10)
(-4.84396e-10 -1.87081e-09 4.60944e-10)
(1.84074e-09 -1.68256e-08 1.83952e-09)
(1.84081e-08 -4.43791e-08 3.25429e-09)
(4.50024e-08 -6.4734e-08 3.55188e-09)
(7.91761e-08 -7.76563e-08 3.50886e-09)
(1.17331e-07 -8.45217e-08 3.57993e-09)
(1.55487e-07 -8.66468e-08 3.9749e-09)
(1.8946e-07 -8.51611e-08 4.76814e-09)
(2.15366e-07 -8.09826e-08 5.95273e-09)
(2.29939e-07 -7.49058e-08 7.4547e-09)
(2.30857e-07 -6.76671e-08 9.14217e-09)
(2.16781e-07 -6.00064e-08 1.10036e-08)
(1.87668e-07 -5.27192e-08 1.2728e-08)
(1.45258e-07 -4.66044e-08 1.41864e-08)
(9.23064e-08 -4.21735e-08 1.52414e-08)
(3.25162e-08 -3.98275e-08 1.58022e-08)
(-2.98694e-08 -3.98326e-08 1.58403e-08)
(-8.99174e-08 -4.22765e-08 1.52729e-08)
(-1.42991e-07 -4.68353e-08 1.42337e-08)
(-1.85409e-07 -5.30369e-08 1.27767e-08)
(-2.14723e-07 -6.02721e-08 1.1084e-08)
(-2.29208e-07 -6.79041e-08 9.24217e-09)
(-2.28626e-07 -7.5077e-08 7.52318e-09)
(-2.14352e-07 -8.10952e-08 6.01852e-09)
(-1.88748e-07 -8.52368e-08 4.82879e-09)
(-1.55047e-07 -8.67173e-08 4.02985e-09)
(-1.17114e-07 -8.46195e-08 3.63339e-09)
(-7.91133e-08 -7.7807e-08 3.55409e-09)
(-4.50152e-08 -6.49424e-08 3.58258e-09)
(-1.84366e-08 -4.45875e-08 3.25843e-09)
(-1.85538e-09 -1.69619e-08 1.81872e-09)
(2.93066e-09 -4.15605e-08 2.92461e-09)
(2.5933e-08 -9.66792e-08 5.41602e-09)
(5.97693e-08 -1.35405e-07 6.34393e-09)
(1.01198e-07 -1.61079e-07 6.81807e-09)
(1.46069e-07 -1.76456e-07 7.37127e-09)
(1.90116e-07 -1.83673e-07 8.20976e-09)
(2.28821e-07 -1.84523e-07 9.41486e-09)
(2.57945e-07 -1.80496e-07 1.09875e-08)
(2.73855e-07 -1.72925e-07 1.28596e-08)
(2.73913e-07 -1.63053e-07 1.48951e-08)
(2.56546e-07 -1.52132e-07 1.70466e-08)
(2.21717e-07 -1.41364e-07 1.90436e-08)
(1.71444e-07 -1.32107e-07 2.0746e-08)
(1.08822e-07 -1.253e-07 2.19483e-08)
(3.8298e-08 -1.2171e-07 2.25785e-08)
(-3.52887e-08 -1.21758e-07 2.2627e-08)
(-1.06147e-07 -1.25434e-07 2.19652e-08)
(-1.68852e-07 -1.32334e-07 2.0761e-08)
(-2.19144e-07 -1.41607e-07 1.90714e-08)
(-2.54201e-07 -1.52331e-07 1.71048e-08)
(-2.71969e-07 -1.6323e-07 1.49492e-08)
(-2.72276e-07 -1.73048e-07 1.28946e-08)
(-2.56717e-07 -1.80579e-07 1.10253e-08)
(-2.27931e-07 -1.8458e-07 9.45338e-09)
(-1.89534e-07 -1.83741e-07 8.25133e-09)
(-1.45761e-07 -1.76575e-07 7.41768e-09)
(-1.01091e-07 -1.61274e-07 6.85373e-09)
(-5.97654e-08 -1.35655e-07 6.35603e-09)
(-2.59731e-08 -9.68997e-08 5.39925e-09)
(-2.9576e-09 -4.17308e-08 2.89302e-09)
(3.70238e-09 -7.3892e-08 3.69548e-09)
(3.16093e-08 -1.63445e-07 6.90964e-09)
(7.11438e-08 -2.24274e-07 8.23588e-09)
(1.18248e-07 -2.65165e-07 9.03323e-09)
(1.68235e-07 -2.90996e-07 9.88596e-09)
(2.16623e-07 -3.04958e-07 1.10292e-08)
(2.58699e-07 -3.09575e-07 1.25322e-08)
(2.90039e-07 -3.06927e-07 1.44062e-08)
(3.068e-07 -2.98886e-07 1.65812e-08)
(3.06156e-07 -2.87213e-07 1.89237e-08)
(2.86383e-07 -2.73672e-07 2.13236e-08)
(2.47365e-07 -2.59871e-07 2.35727e-08)
(1.9117e-07 -2.477e-07 2.55096e-08)
(1.21258e-07 -2.38555e-07 2.68484e-08)
(4.26521e-08 -2.3375e-07 2.75495e-08)
(-3.93701e-08 -2.33822e-07 2.76084e-08)
(-1.18359e-07 -2.3866e-07 2.68704e-08)
(-1.8827e-07 -2.47762e-07 2.55196e-08)
(-2.44524e-07 -2.59911e-07 2.36241e-08)
(-2.83823e-07 -2.73684e-07 2.1384e-08)
(-3.04021e-07 -2.87226e-07 1.89718e-08)
(-3.05073e-07 -2.98896e-07 1.66204e-08)
(-2.88693e-07 -3.06949e-07 1.44484e-08)
(-2.5771e-07 -3.09612e-07 1.25739e-08)
(-2.15952e-07 -3.05033e-07 1.10667e-08)
(-1.67851e-07 -2.91128e-07 9.92212e-09)
(-1.18097e-07 -2.65377e-07 9.04999e-09)
(-7.11296e-08 -2.24517e-07 8.22e-09)
(-3.16674e-08 -1.63591e-07 6.856e-09)
(-3.74595e-09 -7.4087e-08 3.64661e-09)
(4.1952e-09 -1.11619e-07 4.20789e-09)
(3.54949e-08 -2.40617e-07 7.86892e-09)
(7.91546e-08 -3.26337e-07 9.41956e-09)
(1.30411e-07 -3.84222e-07 1.04054e-08)
(1.84118e-07 -4.2187e-07 1.14433e-08)
(2.35648e-07 -4.43824e-07 1.27911e-08)
(2.8017e-07 -4.5342e-07 1.45213e-08)
(3.13149e-07 -4.53339e-07 1.6654e-08)
(3.3061e-07 -4.45972e-07 1.91116e-08)
(3.29573e-07 -4.33559e-07 2.17645e-08)
(3.08257e-07 -4.18349e-07 2.4443e-08)
(2.66387e-07 -4.02391e-07 2.69916e-08)
(2.05845e-07 -3.87901e-07 2.91833e-08)
(1.30527e-07 -3.76756e-07 3.06921e-08)
(4.58788e-08 -3.70879e-07 3.14703e-08)
(-4.2413e-08 -3.7094e-07 3.15262e-08)
(-1.27487e-07 -3.76845e-07 3.07039e-08)
(-2.02734e-07 -3.8781e-07 2.91914e-08)
(-2.63354e-07 -4.02326e-07 2.70697e-08)
(-3.05552e-07 -4.18275e-07 2.45198e-08)
(-3.27325e-07 -4.33496e-07 2.18285e-08)
(-3.28801e-07 -4.45933e-07 1.91688e-08)
(-3.11741e-07 -4.53345e-07 1.67097e-08)
(-2.79135e-07 -4.53465e-07 1.458e-08)
(-2.34935e-07 -4.43919e-07 1.28377e-08)
(-1.83687e-07 -4.22012e-07 1.14812e-08)
(-1.3022e-07 -3.84417e-07 1.04118e-08)
(-7.91322e-08 -3.26526e-07 9.37933e-09)
(-3.55809e-08 -2.4066e-07 7.78187e-09)
(-4.25961e-09 -1.11835e-07 4.14311e-09)
(4.47671e-09 -1.52773e-07 4.49471e-09)
(3.77909e-08 -3.24603e-07 8.39766e-09)
(8.39727e-08 -4.37108e-07 1.00824e-08)
(1.37779e-07 -5.13199e-07 1.11729e-08)
(1.93782e-07 -5.63682e-07 1.23267e-08)
(2.47261e-07 -5.94666e-07 1.38308e-08)
(2.93344e-07 -6.10398e-07 1.57523e-08)
(3.2745e-07 -6.14168e-07 1.81232e-08)
(3.45521e-07 -6.08844e-07 2.08557e-08)
(3.44458e-07 -5.97081e-07 2.38208e-08)
(3.22409e-07 -5.81524e-07 2.6808e-08)
(2.78929e-07 -5.64653e-07 2.96634e-08)
(2.15647e-07 -5.48866e-07 3.214e-08)
(1.36743e-07 -5.36284e-07 3.38342e-08)
(4.80265e-08 -5.29558e-07 3.4673e-08)
(-4.44366e-08 -5.29585e-07 3.47308e-08)
(-1.33625e-07 -5.36417e-07 3.38306e-08)
(-2.12443e-07 -5.48721e-07 3.21618e-08)
(-2.75803e-07 -5.64598e-07 2.97725e-08)
(-3.19636e-07 -5.81473e-07 2.6913e-08)
(-3.42166e-07 -5.9704e-07 2.39096e-08)
(-3.43688e-07 -6.08839e-07 2.09345e-08)
(-3.26028e-07 -6.14216e-07 1.81942e-08)
(-2.923e-07 -6.10489e-07 1.58232e-08)
(-2.46536e-07 -5.94794e-07 1.38825e-08)
(-1.9333e-07 -5.63832e-07 1.23678e-08)
(-1.37563e-07 -5.13351e-07 1.11674e-08)
(-8.39372e-08 -4.37168e-07 1.00133e-08)
(-3.78881e-08 -3.2448e-07 8.28882e-09)
(-4.54798e-09 -1.53046e-07 4.42613e-09)
(4.56182e-09 -1.9559e-07 4.59855e-09)
(3.85873e-08 -4.12037e-07 8.58644e-09)
(8.56605e-08 -5.52324e-07 1.03276e-08)
(1.40316e-07 -6.47323e-07 1.14749e-08)
(1.9704e-07 -7.11378e-07 1.26972e-08)
(2.51116e-07 -7.52326e-07 1.43116e-08)
(2.97725e-07 -7.75374e-07 1.6399e-08)
(3.32328e-07 -7.84431e-07 1.8986e-08)
(3.50847e-07 -7.82771e-07 2.19812e-08)
(3.50094e-07 -7.73386e-07 2.52576e-08)
(3.28129e-07 -7.59235e-07 2.85785e-08)
(2.84336e-07 -7.43079e-07 3.1727e-08)
(2.19982e-07 -7.27338e-07 3.45048e-08)
(1.39409e-07 -7.14004e-07 3.64013e-08)
(4.8916e-08 -7.0687e-07 3.73258e-08)
(-4.5368e-08 -7.07024e-07 3.742e-08)
(-1.36359e-07 -7.14388e-07 3.64142e-08)
(-2.16822e-07 -7.27313e-07 3.4561e-08)
(-2.81209e-07 -7.43132e-07 3.18429e-08)
(-3.25364e-07 -7.59292e-07 2.86802e-08)
(-3.47801e-07 -7.7344e-07 2.53469e-08)
(-3.49014e-07 -7.82856e-07 2.20614e-08)
(-3.30905e-07 -7.84574e-07 1.90572e-08)
(-2.96671e-07 -7.75569e-07 1.64721e-08)
(-2.50372e-07 -7.5254e-07 1.43662e-08)
(-1.96564e-07 -7.11581e-07 1.27253e-08)
(-1.40075e-07 -6.47452e-07 1.14418e-08)
(-8.56095e-08 -5.52242e-07 1.02371e-08)
(-3.86824e-08 -4.11743e-07 8.477e-09)
(-4.63948e-09 -1.95992e-07 4.53835e-09)
(4.48799e-09 -2.38498e-07 4.52416e-09)
(3.795e-08 -4.99652e-07 8.4416e-09)
(8.41899e-08 -6.67874e-07 1.01727e-08)
(1.3782e-07 -7.81978e-07 1.13605e-08)
(1.93456e-07 -8.59948e-07 1.26279e-08)
(2.46535e-07 -9.11577e-07 1.42885e-08)
(2.92388e-07 -9.43062e-07 1.64784e-08)
(3.26622e-07 -9.58866e-07 1.92208e-08)
(3.45238e-07 -9.62612e-07 2.24188e-08)
(3.45008e-07 -9.57516e-07 2.5952e-08)
(3.23899e-07 -9.46698e-07 2.95637e-08)
(2.81201e-07 -9.3298e-07 3.29661e-08)
(2.17779e-07 -9.18806e-07 3.59684e-08)
(1.37906e-07 -9.05943e-07 3.80876e-08)
(4.84041e-08 -8.99246e-07 3.91653e-08)
(-4.49377e-08 -8.99424e-07 3.9257e-08)
(-1.34932e-07 -9.0627e-07 3.8058e-08)
(-2.1469e-07 -9.18764e-07 3.60158e-08)
(-2.78105e-07 -9.33109e-07 3.30742e-08)
(-3.21198e-07 -9.4688e-07 2.96602e-08)
(-3.42759e-07 -9.57692e-07 2.60458e-08)
(-3.43452e-07 -9.62816e-07 2.25038e-08)
(-3.2524e-07 -9.59142e-07 1.92934e-08)
(-2.9135e-07 -9.43401e-07 1.65484e-08)
(-2.45791e-07 -9.11916e-07 1.43264e-08)
(-1.92979e-07 -8.60186e-07 1.26036e-08)
(-1.37561e-07 -7.81953e-07 1.12807e-08)
(-8.4108e-08 -6.67502e-07 1.00693e-08)
(-3.80104e-08 -4.99144e-07 8.33688e-09)
(-4.55189e-09 -2.38978e-07 4.463e-09)
(4.25227e-09 -2.79867e-07 4.24959e-09)
(3.58482e-08 -5.84138e-07 7.93133e-09)
(7.94798e-08 -7.795e-07 9.56484e-09)
(1.30065e-07 -9.12394e-07 1.07528e-08)
(1.8259e-07 -1.00422e-06 1.20603e-08)
(2.328e-07 -1.0668e-06 1.37305e-08)
(2.76341e-07 -1.10754e-06 1.59322e-08)
(3.09089e-07 -1.13135e-06 1.87267e-08)
(3.27252e-07 -1.1421e-06 2.20027e-08)
(3.27651e-07 -1.14309e-06 2.56592e-08)
(3.08172e-07 -1.13749e-06 2.94362e-08)
(2.68003e-07 -1.12795e-06 3.30142e-08)
(2.07747e-07 -1.11669e-06 3.60734e-08)
(1.31442e-07 -1.10557e-06 3.83376e-08)
(4.61613e-08 -1.10019e-06 3.95873e-08)
(-4.29512e-08 -1.10036e-06 3.96814e-08)
(-1.28673e-07 -1.10567e-06 3.83055e-08)
(-2.04713e-07 -1.11614e-06 3.61051e-08)
(-2.64932e-07 -1.12772e-06 3.31243e-08)
(-3.05557e-07 -1.13766e-06 2.95281e-08)
(-3.25448e-07 -1.14338e-06 2.57575e-08)
(-3.25526e-07 -1.14243e-06 2.20882e-08)
(-3.07771e-07 -1.1318e-06 1.8796e-08)
(-2.75334e-07 -1.10807e-06 1.60076e-08)
(-2.32055e-07 -1.06725e-06 1.37636e-08)
(-1.82086e-07 -1.00433e-06 1.20378e-08)
(-1.29743e-07 -9.12031e-07 1.07431e-08)
(-7.93023e-08 -7.78792e-07 9.58109e-09)
(-3.5831e-08 -5.83494e-07 7.94427e-09)
(-4.28484e-09 -2.80442e-07 4.24376e-09)
(3.8507e-09 -3.17988e-07 3.79276e-09)
(3.22387e-08 -6.619e-07 7.10959e-09)
(7.1453e-08 -8.82463e-07 8.56497e-09)
(1.16872e-07 -1.03325e-06 9.65838e-09)
(1.64088e-07 -1.13849e-06 1.09525e-08)
(2.09351e-07 -1.2118e-06 1.25893e-08)
(2.48825e-07 -1.2621e-06 1.47061e-08)
(2.78754e-07 -1.29473e-06 1.73957e-08)
(2.95705e-07 -1.31359e-06 2.05448e-08)
(2.96651e-07 -1.322e-06 2.41204e-08)
(2.79401e-07 -1.32292e-06 2.78656e-08)
(2.43224e-07 -1.3186e-06 3.14375e-08)
(1.88749e-07 -1.31154e-06 3.43931e-08)
(1.19582e-07 -1.30396e-06 3.66743e-08)
(4.20574e-08 -1.30044e-06 3.7975e-08)
(-3.91351e-08 -1.30067e-06 3.8094e-08)
(-1.1703e-07 -1.30399e-06 3.66949e-08)
(-1.85861e-07 -1.31092e-06 3.43544e-08)
(-2.40463e-07 -1.31857e-06 3.14647e-08)
(-2.77082e-07 -1.32326e-06 2.78921e-08)
(-2.94575e-07 -1.32245e-06 2.42104e-08)
(-2.94082e-07 -1.31404e-06 2.06359e-08)
(-2.77548e-07 -1.29532e-06 1.74584e-08)
(-2.47913e-07 -1.26283e-06 1.47917e-08)
(-2.08705e-07 -1.21226e-06 1.26247e-08)
(-1.63643e-07 -1.13812e-06 1.09274e-08)
(-1.16522e-07 -1.0322e-06 9.62525e-09)
(-7.11703e-08 -8.81238e-07 8.49303e-09)
(-3.21269e-08 -6.60977e-07 7.02381e-09)
(-3.82001e-09 -3.18509e-07 3.77287e-09)
(3.26276e-09 -3.51175e-07 3.15775e-09)
(2.70721e-08 -7.29254e-07 5.93952e-09)
(5.9967e-08 -9.71477e-07 7.18858e-09)
(9.82343e-08 -1.13829e-06 8.17248e-09)
(1.38032e-07 -1.25612e-06 9.36304e-09)
(1.76203e-07 -1.33972e-06 1.09038e-08)
(2.09703e-07 -1.3993e-06 1.284e-08)
(2.35331e-07 -1.44086e-06 1.52344e-08)
(2.50168e-07 -1.46824e-06 1.79927e-08)
(2.51431e-07 -1.48435e-06 2.11696e-08)
(2.37042e-07 -1.49174e-06 2.44881e-08)
(2.06405e-07 -1.49313e-06 2.76581e-08)
(1.60259e-07 -1.49154e-06 3.0422e-08)
(1.01836e-07 -1.48885e-06 3.26392e-08)
(3.58874e-08 -1.48764e-06 3.38819e-08)
(-3.33309e-08 -1.48778e-06 3.40075e-08)
(-9.96487e-08 -1.48875e-06 3.28012e-08)
(-1.57845e-07 -1.49159e-06 3.06318e-08)
(-2.04164e-07 -1.49484e-06 2.80439e-08)
(-2.35007e-07 -1.49322e-06 2.4736e-08)
(-2.49498e-07 -1.48515e-06 2.13413e-08)
(-2.48683e-07 -1.4687e-06 1.80474e-08)
(-2.34295e-07 -1.44149e-06 1.51043e-08)
(-2.08901e-07 -1.40008e-06 1.26379e-08)
(-1.75585e-07 -1.33994e-06 1.06568e-08)
(-1.37479e-07 -1.25525e-06 9.14845e-09)
(-9.7778e-08 -1.13688e-06 8.03884e-09)
(-5.97104e-08 -9.70201e-07 7.11914e-09)
(-2.69939e-08 -7.28175e-07 5.91709e-09)
(-3.22381e-09 -3.51566e-07 3.20241e-09)
(2.55436e-09 -3.77648e-07 2.30466e-09)
(2.07087e-08 -7.82756e-07 4.30727e-09)
(4.55258e-08 -1.04207e-06 5.26647e-09)
(7.45923e-08 -1.22175e-06 6.02842e-09)
(1.04924e-07 -1.35024e-06 6.90048e-09)
(1.3408e-07 -1.44321e-06 8.09779e-09)
(1.59707e-07 -1.5112e-06 9.69392e-09)
(1.79413e-07 -1.56084e-06 1.17509e-08)
(1.91202e-07 -1.59595e-06 1.41167e-08)
(1.92622e-07 -1.61887e-06 1.6713e-08)
(1.81621e-07 -1.63248e-06 1.92493e-08)
(1.58006e-07 -1.64056e-06 2.17907e-08)
(1.22965e-07 -1.64533e-06 2.42474e-08)
(7.85327e-08 -1.64694e-06 2.6093e-08)
(2.78963e-08 -1.64753e-06 2.70438e-08)
(-2.52605e-08 -1.64711e-06 2.697e-08)
(-7.63753e-08 -1.64577e-06 2.59443e-08)
(-1.21045e-07 -1.6446e-06 2.41093e-08)
(-1.56496e-07 -1.64257e-06 2.18988e-08)
(-1.79887e-07 -1.63422e-06 1.92664e-08)
(-1.90728e-07 -1.61961e-06 1.66023e-08)
(-1.89848e-07 -1.59617e-06 1.40216e-08)
(-1.78582e-07 -1.56126e-06 1.16948e-08)
(-1.58989e-07 -1.51171e-06 9.71966e-09)
(-1.33536e-07 -1.44317e-06 8.14034e-09)
(-1.0455e-07 -1.34963e-06 6.95811e-09)
(-7.43857e-08 -1.22133e-06 6.10975e-09)
(-4.54221e-08 -1.04223e-06 5.41521e-09)
(-2.05133e-08 -7.82707e-07 4.49759e-09)
(-2.45745e-09 -3.7842e-07 2.41684e-09)
(1.6213e-09 -3.96567e-07 1.4997e-09)
(1.31122e-08 -8.20604e-07 2.77526e-09)
(2.87938e-08 -1.09204e-06 3.31517e-09)
(4.72133e-08 -1.28011e-06 3.7117e-09)
(6.62779e-08 -1.41572e-06 4.22451e-09)
(8.4582e-08 -1.51555e-06 5.01023e-09)
(1.00699e-07 -1.59002e-06 6.08387e-09)
(1.13052e-07 -1.64592e-06 7.48222e-09)
(1.20649e-07 -1.6871e-06 9.12998e-09)
(1.21886e-07 -1.71549e-06 1.08778e-08)
(1.1508e-07 -1.73506e-06 1.26091e-08)
(1.0032e-07 -1.7493e-06 1.44231e-08)
(7.83434e-08 -1.75918e-06 1.61072e-08)
(5.02296e-08 -1.76411e-06 1.73624e-08)
(1.81238e-08 -1.76596e-06 1.79379e-08)
(-1.55168e-08 -1.76433e-06 1.76483e-08)
(-4.80781e-08 -1.76062e-06 1.68489e-08)
(-7.63179e-08 -1.75589e-06 1.54835e-08)
(-9.867e-08 -1.74855e-06 1.37685e-08)
(-1.1368e-07 -1.73424e-06 1.19024e-08)
(-1.20711e-07 -1.71397e-06 1.01465e-08)
(-1.2012e-07 -1.68491e-06 8.61279e-09)
(-1.12888e-07 -1.64469e-06 7.26881e-09)
(-1.00398e-07 -1.59025e-06 6.15246e-09)
(-8.41826e-08 -1.5165e-06 5.24353e-09)
(-6.57801e-08 -1.41677e-06 4.51e-09)
(-4.67351e-08 -1.28111e-06 3.96984e-09)
(-2.85066e-08 -1.09293e-06 3.51112e-09)
(-1.28688e-08 -8.20942e-07 2.89732e-09)
(-1.555e-09 -3.97199e-07 1.5225e-09)
(6.01703e-10 -4.06486e-07 4.78642e-10)
(4.62816e-09 -8.40126e-07 9.51251e-10)
(1.0114e-08 -1.11833e-06 1.19358e-09)
(1.67104e-08 -1.31121e-06 1.35391e-09)
(2.34995e-08 -1.45076e-06 1.5653e-09)
(3.00598e-08 -1.55392e-06 1.89591e-09)
(3.60071e-08 -1.63097e-06 2.28902e-09)
(4.06281e-08 -1.6889e-06 2.68832e-09)
(4.3417e-08 -1.73283e-06 3.20349e-09)
(4.38586e-08 -1.76538e-06 3.90746e-09)
(4.14227e-08 -1.78958e-06 4.64135e-09)
(3.62724e-08 -1.80747e-06 5.32145e-09)
(2.83845e-08 -1.81959e-06 5.84791e-09)
(1.83312e-08 -1.82654e-06 6.40064e-09)
(7.01784e-09 -1.82993e-06 6.66718e-09)
(-4.95328e-09 -1.8283e-06 6.45936e-09)
(-1.69632e-08 -1.82365e-06 6.1948e-09)
(-2.69882e-08 -1.81716e-06 5.69326e-09)
(-3.47809e-08 -1.80712e-06 4.98041e-09)
(-4.00994e-08 -1.78935e-06 4.27931e-09)
(-4.25943e-08 -1.76481e-06 3.63479e-09)
(-4.24903e-08 -1.73159e-06 3.06861e-09)
(-4.00573e-08 -1.68808e-06 2.5441e-09)
(-3.57256e-08 -1.63116e-06 2.12307e-09)
(-2.99795e-08 -1.55491e-06 1.815e-09)
(-2.33722e-08 -1.45206e-06 1.5613e-09)
(-1.65526e-08 -1.31253e-06 1.36835e-09)
(-1.00584e-08 -1.11956e-06 1.20772e-09)
(-4.50979e-09 -8.40972e-07 1.02368e-09)
(-5.18892e-10 -4.07032e-07 5.4753e-10)
(-4.23633e-10 -4.06949e-07 -4.98711e-10)
(-3.92427e-09 -8.40966e-07 -9.04997e-10)
(-8.81445e-09 -1.11962e-06 -1.06262e-09)
(-1.43726e-08 -1.31271e-06 -1.19561e-09)
(-2.01905e-08 -1.45244e-06 -1.36581e-09)
(-2.57888e-08 -1.55586e-06 -1.60709e-09)
(-3.07263e-08 -1.63323e-06 -1.92097e-09)
(-3.46152e-08 -1.69142e-06 -2.31038e-09)
(-3.68762e-08 -1.73538e-06 -2.80087e-09)
(-3.69738e-08 -1.76769e-06 -3.34467e-09)
(-3.46371e-08 -1.79182e-06 -4.0257e-09)
(-3.00532e-08 -1.80971e-06 -4.77975e-09)
(-2.3623e-08 -1.82164e-06 -5.40732e-09)
(-1.53466e-08 -1.82882e-06 -5.65046e-09)
(-5.3514e-09 -1.83215e-06 -5.66972e-09)
(5.36991e-09 -1.83032e-06 -5.59013e-09)
(1.51859e-08 -1.8263e-06 -5.21446e-09)
(2.42724e-08 -1.81997e-06 -4.75763e-09)
(3.12139e-08 -1.80944e-06 -4.36157e-09)
(3.54472e-08 -1.79152e-06 -3.73277e-09)
(3.76546e-08 -1.76698e-06 -3.06973e-09)
(3.76077e-08 -1.73361e-06 -2.44855e-09)
(3.54826e-08 -1.68994e-06 -2.06044e-09)
(3.15958e-08 -1.63272e-06 -1.81808e-09)
(2.64124e-08 -1.55615e-06 -1.56953e-09)
(2.06504e-08 -1.45305e-06 -1.37347e-09)
(1.46836e-08 -1.31332e-06 -1.20858e-09)
(8.97264e-09 -1.12022e-06 -1.04861e-09)
(4.09057e-09 -8.41481e-07 -8.11481e-10)
(5.28799e-10 -4.0731e-07 -4.09009e-10)
(-1.48409e-09 -3.97789e-07 -1.46712e-09)
(-1.23593e-08 -8.22268e-07 -2.78006e-09)
(-2.73792e-08 -1.09486e-06 -3.37822e-09)
(-4.48269e-08 -1.28352e-06 -3.82695e-09)
(-6.30696e-08 -1.41973e-06 -4.35119e-09)
(-8.0671e-08 -1.52033e-06 -5.05525e-09)
(-9.60986e-08 -1.59537e-06 -5.98448e-09)
(-1.07904e-07 -1.65134e-06 -7.19651e-09)
(-1.14803e-07 -1.69272e-06 -8.70348e-09)
(-1.15573e-07 -1.72147e-06 -1.02838e-08)
(-1.0892e-07 -1.74153e-06 -1.20323e-08)
(-9.47924e-08 -1.75608e-06 -1.38821e-08)
(-7.41164e-08 -1.76609e-06 -1.54787e-08)
(-4.75772e-08 -1.77208e-06 -1.64978e-08)
(-1.65584e-08 -1.77448e-06 -1.68923e-08)
(1.60664e-08 -1.77214e-06 -1.66647e-08)
(4.6861e-08 -1.76913e-06 -1.59166e-08)
(7.4337e-08 -1.76482e-06 -1.47065e-08)
(9.54982e-08 -1.75597e-06 -1.33448e-08)
(1.09224e-07 -1.74095e-06 -1.1583e-08)
(1.16147e-07 -1.72029e-06 -9.90778e-09)
(1.15526e-07 -1.69086e-06 -8.28769e-09)
(1.08317e-07 -1.64982e-06 -6.89262e-09)
(9.63526e-08 -1.59441e-06 -5.73021e-09)
(8.08955e-08 -1.52019e-06 -4.78123e-09)
(6.34409e-08 -1.42015e-06 -4.07385e-09)
(4.52033e-08 -1.28414e-06 -3.53758e-09)
(2.7665e-08 -1.09566e-06 -3.12055e-09)
(1.26195e-08 -8.2309e-07 -2.569e-09)
(1.59308e-09 -3.98077e-07 -1.39063e-09)
(-2.43082e-09 -3.79567e-07 -2.34003e-09)
(-2.00968e-08 -7.85214e-07 -4.37186e-09)
(-4.44214e-08 -1.04574e-06 -5.29688e-09)
(-7.27366e-08 -1.22559e-06 -5.98107e-09)
(-1.02243e-07 -1.35461e-06 -6.80306e-09)
(-1.30639e-07 -1.44892e-06 -7.93264e-09)
(-1.55591e-07 -1.51832e-06 -9.43799e-09)
(-1.74787e-07 -1.56884e-06 -1.13882e-08)
(-1.85975e-07 -1.60486e-06 -1.37623e-08)
(-1.87114e-07 -1.62852e-06 -1.6268e-08)
(-1.76394e-07 -1.64272e-06 -1.88456e-08)
(-1.53359e-07 -1.65115e-06 -2.13281e-08)
(-1.1944e-07 -1.65648e-06 -2.36194e-08)
(-7.64296e-08 -1.65939e-06 -2.53437e-08)
(-2.67048e-08 -1.66063e-06 -2.62204e-08)
(2.55631e-08 -1.65881e-06 -2.60124e-08)
(7.54001e-08 -1.65765e-06 -2.50206e-08)
(1.19636e-07 -1.65682e-06 -2.33193e-08)
(1.53907e-07 -1.65184e-06 -2.1226e-08)
(1.76534e-07 -1.64234e-06 -1.86693e-08)
(1.87606e-07 -1.62771e-06 -1.61391e-08)
(1.86805e-07 -1.60458e-06 -1.36534e-08)
(1.75478e-07 -1.5694e-06 -1.1438e-08)
(1.56188e-07 -1.51929e-06 -9.48789e-09)
(1.31082e-07 -1.45039e-06 -7.9234e-09)
(1.02522e-07 -1.35628e-06 -6.742e-09)
(7.28573e-08 -1.22697e-06 -5.78755e-09)
(4.45851e-08 -1.047e-06 -5.05119e-09)
(2.03483e-08 -7.86385e-07 -4.136e-09)
(2.54801e-09 -3.79633e-07 -2.22985e-09)
(-3.24072e-09 -3.5324e-07 -3.09253e-09)
(-2.67349e-08 -7.31806e-07 -5.77091e-09)
(-5.89894e-08 -9.7501e-07 -7.01403e-09)
(-9.65943e-08 -1.14252e-06 -7.955e-09)
(-1.35803e-07 -1.26171e-06 -9.05372e-09)
(-1.73503e-07 -1.34727e-06 -1.05425e-08)
(-2.06527e-07 -1.4083e-06 -1.24982e-08)
(-2.31734e-07 -1.45069e-06 -1.49184e-08)
(-2.46186e-07 -1.47901e-06 -1.77865e-08)
(-2.47329e-07 -1.4962e-06 -2.09125e-08)
(-2.3312e-07 -1.50453e-06 -2.42176e-08)
(-2.02788e-07 -1.50655e-06 -2.73122e-08)
(-1.57499e-07 -1.50575e-06 -3.00134e-08)
(-1.00219e-07 -1.50459e-06 -3.21863e-08)
(-3.47162e-08 -1.50437e-06 -3.34906e-08)
(3.37765e-08 -1.50326e-06 -3.33889e-08)
(9.92482e-08 -1.50422e-06 -3.21704e-08)
(1.5753e-07 -1.50729e-06 -2.99934e-08)
(2.03044e-07 -1.50756e-06 -2.72965e-08)
(2.33107e-07 -1.50458e-06 -2.42666e-08)
(2.47434e-07 -1.49613e-06 -2.09848e-08)
(2.46694e-07 -1.47954e-06 -1.77589e-08)
(2.32317e-07 -1.4516e-06 -1.49996e-08)
(2.07089e-07 -1.4092e-06 -1.26571e-08)
(1.73995e-07 -1.34845e-06 -1.07719e-08)
(1.36244e-07 -1.26359e-06 -9.29847e-09)
(9.69433e-08 -1.14516e-06 -8.08681e-09)
(5.91836e-08 -9.78134e-07 -7.08922e-09)
(2.67827e-08 -7.34396e-07 -5.82499e-09)
(3.23984e-09 -3.53443e-07 -3.09894e-09)
(-3.82278e-09 -3.20352e-07 -3.75674e-09)
(-3.19334e-08 -6.65281e-07 -7.0176e-09)
(-7.06465e-08 -8.86731e-07 -8.486e-09)
(-1.15751e-07 -1.03864e-06 -9.58934e-09)
(-1.6265e-07 -1.14553e-06 -1.08527e-08)
(-2.07601e-07 -1.22064e-06 -1.25319e-08)
(-2.46763e-07 -1.27223e-06 -1.46839e-08)
(-2.76423e-07 -1.30581e-06 -1.73406e-08)
(-2.9313e-07 -1.32569e-06 -2.05139e-08)
(-2.93978e-07 -1.33517e-06 -2.40448e-08)
(-2.76815e-07 -1.337e-06 -2.77806e-08)
(-2.40818e-07 -1.33351e-06 -3.13102e-08)
(-1.86925e-07 -1.32723e-06 -3.42611e-08)
(-1.18525e-07 -1.32124e-06 -3.65491e-08)
(-4.08254e-08 -1.31845e-06 -3.80375e-08)
(3.99687e-08 -1.31764e-06 -3.80186e-08)
(1.17412e-07 -1.32098e-06 -3.67715e-08)
(1.86374e-07 -1.32836e-06 -3.44648e-08)
(2.40524e-07 -1.3343e-06 -3.13425e-08)
(2.76659e-07 -1.33757e-06 -2.78314e-08)
(2.9403e-07 -1.33569e-06 -2.40886e-08)
(2.93478e-07 -1.3264e-06 -2.04904e-08)
(2.76846e-07 -1.30669e-06 -1.73341e-08)
(2.47221e-07 -1.27318e-06 -1.46476e-08)
(2.0804e-07 -1.22179e-06 -1.25061e-08)
(1.63069e-07 -1.14725e-06 -1.08998e-08)
(1.1619e-07 -1.04138e-06 -9.64023e-09)
(7.10369e-08 -8.90175e-07 -8.50834e-09)
(3.2168e-08 -6.6803e-07 -7.02579e-09)
(3.8728e-09 -3.20484e-07 -3.74877e-09)
(-4.25867e-09 -2.82287e-07 -4.25569e-09)
(-3.57274e-08 -5.88076e-07 -7.94525e-09)
(-7.91318e-08 -7.84557e-07 -9.57559e-09)
(-1.29546e-07 -9.18837e-07 -1.07351e-08)
(-1.81889e-07 -1.01221e-06 -1.20169e-08)
(-2.31957e-07 -1.07617e-06 -1.37313e-08)
(-2.75378e-07 -1.11801e-06 -1.59773e-08)
(-3.08014e-07 -1.14279e-06 -1.87678e-08)
(-3.26047e-07 -1.1545e-06 -2.20664e-08)
(-3.26348e-07 -1.15647e-06 -2.57183e-08)
(-3.06801e-07 -1.15177e-06 -2.95227e-08)
(-2.66658e-07 -1.14326e-06 -3.31459e-08)
(-2.06892e-07 -1.13315e-06 -3.62517e-08)
(-1.31047e-07 -1.12351e-06 -3.85117e-08)
(-4.51218e-08 -1.11809e-06 -3.98468e-08)
(4.39818e-08 -1.11738e-06 -3.9726e-08)
(1.29736e-07 -1.12269e-06 -3.85274e-08)
(2.05986e-07 -1.13309e-06 -3.62739e-08)
(2.66088e-07 -1.14339e-06 -3.30949e-08)
(3.06473e-07 -1.15213e-06 -2.9525e-08)
(3.26255e-07 -1.15693e-06 -2.57363e-08)
(3.26199e-07 -1.15513e-06 -2.20706e-08)
(3.08301e-07 -1.14356e-06 -1.87759e-08)
(2.7577e-07 -1.11889e-06 -1.59659e-08)
(2.32413e-07 -1.07716e-06 -1.37236e-08)
(1.82354e-07 -1.01341e-06 -1.20454e-08)
(1.29937e-07 -9.20551e-07 -1.07936e-08)
(7.93633e-08 -7.86858e-07 -9.63394e-09)
(3.58228e-08 -5.90138e-07 -7.98082e-09)
(4.24107e-09 -2.82422e-07 -4.26153e-09)
(-4.51761e-09 -2.4091e-07 -4.52029e-09)
(-3.80049e-08 -5.03658e-07 -8.39452e-09)
(-8.42838e-08 -6.73277e-07 -1.00915e-08)
(-1.37912e-07 -7.88795e-07 -1.12992e-08)
(-1.93532e-07 -8.68053e-07 -1.26223e-08)
(-2.46624e-07 -9.20752e-07 -1.43493e-08)
(-2.92499e-07 -9.5318e-07 -1.65847e-08)
(-3.26734e-07 -9.69877e-07 -1.93446e-08)
(-3.453e-07 -9.74499e-07 -2.25792e-08)
(-3.44973e-07 -9.70268e-07 -2.61347e-08)
(-3.23684e-07 -9.60255e-07 -2.97881e-08)
(-2.80852e-07 -9.47427e-07 -3.32558e-08)
(-2.17704e-07 -9.34175e-07 -3.62868e-08)
(-1.37886e-07 -9.22525e-07 -3.84311e-08)
(-4.7481e-08 -9.15695e-07 -3.96119e-08)
(4.61884e-08 -9.15335e-07 -3.9527e-08)
(1.3651e-07 -9.22068e-07 -3.84758e-08)
(2.16627e-07 -9.34235e-07 -3.63192e-08)
(2.80138e-07 -9.47662e-07 -3.32637e-08)
(3.23238e-07 -9.60619e-07 -2.98302e-08)
(3.44773e-07 -9.70711e-07 -2.61771e-08)
(3.45322e-07 -9.75071e-07 -2.26113e-08)
(3.26907e-07 -9.7057e-07 -1.93744e-08)
(2.92778e-07 -9.5399e-07 -1.66052e-08)
(2.46964e-07 -9.21672e-07 -1.43717e-08)
(1.93886e-07 -8.69099e-07 -1.26671e-08)
(1.38181e-07 -7.90055e-07 -1.14148e-08)
(8.43872e-08 -6.7487e-07 -1.02836e-08)
(3.80185e-08 -5.05293e-07 -8.56864e-09)
(4.46987e-09 -2.40986e-07 -4.57091e-09)
(-4.60088e-09 -1.97876e-07 -4.62067e-09)
(-3.87669e-08 -4.15837e-07 -8.57956e-09)
(-8.60287e-08 -5.57641e-07 -1.02922e-08)
(-1.4085e-07 -6.53881e-07 -1.14872e-08)
(-1.97738e-07 -7.18927e-07 -1.27762e-08)
(-2.51995e-07 -7.60737e-07 -1.44347e-08)
(-2.98755e-07 -7.84581e-07 -1.65591e-08)
(-3.33451e-07 -7.94396e-07 -1.91694e-08)
(-3.51987e-07 -7.93477e-07 -2.22097e-08)
(-3.51137e-07 -7.84821e-07 -2.55232e-08)
(-3.28895e-07 -7.71338e-07 -2.88989e-08)
(-2.84815e-07 -7.55819e-07 -3.21287e-08)
(-2.20477e-07 -7.40632e-07 -3.49265e-08)
(-1.39744e-07 -7.28269e-07 -3.68927e-08)
(-4.82316e-08 -7.21173e-07 -3.79282e-08)
(4.676e-08 -7.20987e-07 -3.78914e-08)
(1.38198e-07 -7.28e-07 -3.69385e-08)
(2.19327e-07 -7.40768e-07 -3.492e-08)
(2.84102e-07 -7.56007e-07 -3.21153e-08)
(3.28413e-07 -7.71581e-07 -2.89404e-08)
(3.50852e-07 -7.85144e-07 -2.55733e-08)
(3.51909e-07 -7.9392e-07 -2.22521e-08)
(3.33531e-07 -7.94953e-07 -1.92082e-08)
(2.98938e-07 -7.85238e-07 -1.65891e-08)
(2.5223e-07 -7.61481e-07 -1.44631e-08)
(1.97993e-07 -7.19751e-07 -1.28128e-08)
(1.4106e-07 -6.54786e-07 -1.15631e-08)
(8.61438e-08 -5.58687e-07 -1.04355e-08)
(3.87994e-08 -4.17015e-07 -8.71492e-09)
(4.57972e-09 -1.97898e-07 -4.65442e-09)
(-4.53484e-09 -1.54692e-07 -4.5077e-09)
(-3.80806e-08 -3.27978e-07 -8.39141e-09)
(-8.45392e-08 -4.41875e-07 -1.00884e-08)
(-1.38657e-07 -5.18977e-07 -1.12409e-08)
(-1.94973e-07 -5.70246e-07 -1.24523e-08)
(-2.48759e-07 -6.01914e-07 -1.39892e-08)
(-2.95096e-07 -6.18275e-07 -1.59521e-08)
(-3.29375e-07 -6.22637e-07 -1.8354e-08)
(-3.47522e-07 -6.17879e-07 -2.11371e-08)
(-3.46362e-07 -6.06668e-07 -2.4152e-08)
(-3.23963e-07 -5.9162e-07 -2.7222e-08)
(-2.80063e-07 -5.75185e-07 -3.01663e-08)
(-2.16609e-07 -5.59799e-07 -3.26674e-08)
(-1.37377e-07 -5.47927e-07 -3.44243e-08)
(-4.74883e-08 -5.41325e-07 -3.53468e-08)
(4.60041e-08 -5.41071e-07 -3.53211e-08)
(1.35738e-07 -5.47545e-07 -3.44227e-08)
(2.15405e-07 -5.59795e-07 -3.26207e-08)
(2.79301e-07 -5.75242e-07 -3.01148e-08)
(3.23411e-07 -5.91741e-07 -2.72365e-08)
(3.45987e-07 -6.06889e-07 -2.41966e-08)
(3.47354e-07 -6.18209e-07 -2.11779e-08)
(3.29379e-07 -6.23062e-07 -1.83913e-08)
(2.95207e-07 -6.18774e-07 -1.59806e-08)
(2.48927e-07 -6.02478e-07 -1.4015e-08)
(1.95172e-07 -5.70865e-07 -1.24781e-08)
(1.38845e-07 -5.19639e-07 -1.12773e-08)
(8.46786e-08 -4.42582e-07 -1.01581e-08)
(3.81028e-08 -3.28759e-07 -8.48903e-09)
(4.50757e-09 -1.54788e-07 -4.54114e-09)
(-4.27269e-09 -1.13145e-07 -4.20111e-09)
(-3.58665e-08 -2.43451e-07 -7.85879e-09)
(-7.98766e-08 -3.30331e-07 -9.45353e-09)
(-1.31534e-07 -3.88984e-07 -1.04936e-08)
(-1.85629e-07 -4.27202e-07 -1.15787e-08)
(-2.3754e-07 -4.4965e-07 -1.29542e-08)
(-2.8239e-07 -4.597e-07 -1.4725e-08)
(-3.15592e-07 -4.6004e-07 -1.68852e-08)
(-3.33166e-07 -4.53062e-07 -1.9386e-08)
(-3.32042e-07 -4.41028e-07 -2.20843e-08)
(-3.1035e-07 -4.26127e-07 -2.48584e-08)
(-2.68013e-07 -4.10469e-07 -2.74875e-08)
(-2.07211e-07 -3.96308e-07 -2.97113e-08)
(-1.31398e-07 -3.85574e-07 -3.1286e-08)
(-4.5461e-08 -3.79756e-07 -3.21412e-08)
(4.40001e-08 -3.79509e-07 -3.21135e-08)