/*--------------------------------*- C++ -*----------------------------------*\
| =========                 |                                                 |
| \\      /  F ield         | OpenFOAM: The Open Source CFD Toolbox           |
|  \\    /   O peration     | Version:  v1906                                 |
|   \\  /    A nd           | Web:      www.OpenFOAM.com                      |
|    \\/     M anipulation  |                                                 |
\*---------------------------------------------------------------------------*/
FoamFile
{
    version     2.0;
    format      ascii;
    class       volScalarField;
    location    "29.8/sphere";
    object      T;
}
// * * * * * * * * * * * * * * * * * * * * * * * * * * * * * * * * * * * * * //

dimensions      [0 0 0 1 0 0 0];


internalField   nonuniform List<scalar> 
304
(
482.792
482.822
482.82
482.836
482.794
482.792
482.791
482.822
482.79
482.947
482.947
482.836
482.82
482.946
482.946
482.868
482.835
482.868
482.794
482.821
482.837
482.791
482.823
482.947
482.947
482.868
482.837
482.946
482.946
482.895
482.79
482.867
482.896
482.828
482.792
482.839
482.868
482.797
482.797
482.869
482.895
482.827
482.794
482.828
482.78
482.78
482.793
482.794
482.795
482.83
482.793
482.794
482.83
482.795
482.78
482.794
482.797
482.794
482.83
482.822
482.822
482.837
482.838
482.869
482.869
482.896
482.792
482.837
482.822
482.869
482.837
482.896
482.869
482.793
482.797
482.83
482.794
482.791
482.791
482.827
482.792
482.836
482.786
482.819
482.867
482.895
482.833
482.866
482.822
482.82
482.789
482.895
482.868
482.868
482.835
482.829
482.792
482.792
482.778
482.79
482.792
482.827
482.791
482.828
482.793
482.791
482.777
482.794
482.791
482.792
482.829
482.822
482.837
482.869
482.821
482.837
482.868
482.896
482.792
482.869
482.837
482.837
482.822
482.896
482.868
482.795
482.792
482.829
482.793
482.837
482.822
482.869
482.822
482.869
482.837
482.896
482.79
482.869
482.822
482.868
482.822
482.896
482.837
482.867
482.788
482.835
482.837
482.895
482.82
482.867
482.821
482.835
482.789
482.895
482.837
482.868
482.82
482.794
482.79
482.828
482.791
482.867
482.791
482.821
482.868
482.895
482.821
482.837
482.835
482.821
482.79
482.895
482.867
482.837
482.821
482.827
482.79
482.791
482.791
482.793
482.829
482.797
482.837
482.869
482.896
482.791
482.821
482.837
482.869
482.821
482.896
482.868
482.821
482.789
482.868
482.834
482.828
482.792
482.793
482.87
482.838
482.896
482.794
482.84
482.824
482.87
482.822
482.895
482.837
482.836
482.792
482.868
482.822
482.896
482.82
482.867
482.823
482.869
482.79
482.836
482.837
482.868
482.82
482.867
482.821
482.835
482.789
482.827
482.791
482.794
482.895
482.821
482.837
482.836
482.868
482.791
482.822
482.868
482.838
482.822
482.868
482.837
482.822
482.793
482.791
482.792
482.795
482.783
482.791
482.796
482.828
482.792
482.828
482.793
482.791
482.778
482.8
482.795
482.832
482.795
482.869
482.87
482.896
482.794
482.822
482.823
482.837
482.836
482.896
482.868
482.821
482.79
482.837
482.821
482.83
482.794
482.792
482.83
482.795
482.792
482.895
482.835
482.867
482.821
482.836
482.788
482.82
482.867
482.868
482.835
482.836
482.82
482.82
482.789
482.791
482.793
482.79
482.78
482.828
482.792
482.791
482.795
482.792
482.791
)
;

boundaryField
{
    sphere_to_oil
    {
        type            compressible::turbulentTemperatureCoupledBaffleMixed;
        refValue        nonuniform List<scalar> 
360
(
340.364
340.364
315.233
362.078
370.423
317.752
371.583
371.583
371.583
342.32
342.32
318.508
320.676
313.102
339.551
364.793
359.704
359.704
359.704
314.558
357.575
335.577
333.929
365.927
313.276
366.757
316.921
366.329
366.329
366.329
372.48
364.461
315.267
315.023
318.301
318.468
360.354
360.354
360.354
359.676
368.852
316.592
318.364
340.345
340.345
316.811
320.676
311.115
338.156
367.177
317.893
317.785
320.32
320.642
314.306
335.77
360.75
314.561
318.376
320.522
311.93
367.596
367.596
367.596
311.119
366.209
337.994
325.417
370.634
370.634
370.634
370.751
369.179
312.697
358.202
338.846
313.454
332.351
368.676
360.606
335.06
323.093
334.204
311.8
315.228
317.618
318.687
320.532
313.209
314.694
315.255
320.439
318.371
315.446
320.287
318.314
318.656
318.562
315.758
312.061
312.145
313.392
317.741
318.401
320.454
313.273
313.207
320.688
315.741
318.702
318.733
318.596
315.787
314.418
311.478
311.424
327.501
325.106
328.768
340.29
340.29
362.078
362.078
365.927
365.927
363.344
363.344
363.344
365.569
365.569
365.569
328.114
325.129
327.5
313.965
370.423
370.423
339.328
339.328
372.48
372.48
337.166
337.166
371.711
371.711
371.711
313.945
313.835
365.238
365.238
365.238
365.55
365.55
365.55
364.793
357.575
339.551
364.793
363
313.48
363
363
334.008
334.689
323.594
335.138
335.138
370.498
370.498
370.498
311.692
357.575
335.577
369.481
369.481
311.734
369.481
334.779
323.456
311.212
316.859
317.098
320.985
313.179
320.675
317.086
311.193
312.034
366.757
366.757
364.461
364.461
340.356
340.356
362.266
362.266
362.266
338.539
338.539
311.988
318.012
317.936
320.615
318.213
317.636
320.612
315.635
320.697
318.617
315.63
359.676
320.736
318.824
314.567
369.57
369.57
369.57
336.547
336.547
311.552
318.508
318.501
320.462
368.852
316.433
320.353
318.522
359.676
368.852
336.639
314.468
336.639
312.034
311.465
320.612
313.254
317.03
316.942
317.153
313.098
311.682
367.699
360.627
367.699
367.699
360.627
360.627
367.177
366.209
338.156
363.875
312.062
367.177
363.875
363.875
320.096
314.994
318.436
320.402
315.415
370.751
318.117
318.598
318.764
315.747
360.75
358.202
318.664
318.556
315.731
359.901
363.445
335.77
369.222
312.053
360.75
369.222
369.222
320.814
316.448
368.676
318.477
318.325
318.346
368.811
316.345
368.456
336.973
359.901
336.973
368.811
359.901
368.811
311.1
324.947
326.627
327.039
339.013
362.334
339.013
362.334
362.334
311.935
366.209
363.536
337.994
363.536
312.015
363.536
328.063
327.699
313.036
368.817
337.802
368.817
368.817
337.802
313.255
317.593
318.228
320.508
369.179
370.751
337.796
313.703
369.179
337.796
313.317
358.202
364.537
338.846
364.537
312.891
364.537
320.752
360.606
315.848
318.711
363.282
360.123
363.445
339.351
363.445
363.282
339.351
363.282
322.836
334.121
368.676
335.988
311.765
360.606
335.988
314.723
368.456
360.123
368.456
336.974
360.123
336.974
)
;
        refGradient     uniform 0;
        valueFraction   nonuniform List<scalar> 
360
(
0.000132065
0.000126698
8.11138e-05
0.000289774
0.000297189
0.000170411
0.000299036
0.000256682
0.000399537
0.000127209
0.000124026
0.000166385
0.000253579
7.25032e-05
0.000129697
0.00025212
0.000288924
0.000269957
0.000378809
6.63442e-05
0.000248721
0.000122273
0.000112693
0.000299053
8.68259e-05
0.000307392
0.000173271
0.000303422
0.000397087
0.000265624
0.000303472
0.000306087
8.21901e-05
8.12719e-05
0.000170553
0.00016784
0.000284007
0.000385027
0.000264392
0.000397537
0.000392681
8.38481e-05
0.000166314
0.000121383
0.000121238
0.000171208
0.000256145
6.83379e-05
0.000122278
0.000259289
0.000168894
0.000169991
0.00025339
0.000250928
7.08924e-05
0.000129689
0.000264471
6.7913e-05
0.000168243
0.000250888
6.64747e-05
0.000295358
0.00026073
0.000408072
6.85333e-05
0.000266587
0.000124351
0.000120272
0.000302183
0.000394209
0.000265173
0.000380143
0.000385465
7.36184e-05
0.000257013
0.000130383
6.78741e-05
0.000121709
0.000384647
0.000399581
0.000119373
0.000117121
0.000115037
6.83682e-05
8.24454e-05
0.000167148
0.000168084
0.000254547
7.68371e-05
6.48774e-05
8.15943e-05
0.000254132
0.000167766
8.33492e-05
0.000253712
0.000169682
0.000168677
0.000168937
8.23812e-05
6.60332e-05
6.69595e-05
6.60683e-05
0.000169849
0.000166938
0.00025394
7.47629e-05
6.49392e-05
0.000253756
8.06129e-05
0.000167201
0.000167233
0.000170644
8.34429e-05
6.6817e-05
6.5164e-05
6.64229e-05
0.000115619
0.000115758
0.000120255
0.000130399
0.000122557
0.000253234
0.000398926
0.000266799
0.000402595
0.000258063
0.000396754
0.000295406
0.000258271
0.000388118
0.000290927
0.000118665
0.00011222
0.000114942
6.34518e-05
0.000263156
0.000396214
0.000122587
0.000123147
0.00040041
0.000266224
0.000128506
0.000135439
0.000395482
0.000271679
0.000313055
6.98326e-05
6.49866e-05
0.000274297
0.000380106
0.000301292
0.000282424
0.000393266
0.00030126
0.000311042
0.000286509
0.000134021
0.000399473
0.000258037
7.19408e-05
0.000388262
0.000290548
0.000110879
0.000116816
0.000115565
0.000121915
0.00012744
0.000397474
0.000261714
0.000307198
7.36565e-05
0.000382355
0.000131107
0.000402054
0.000257381
7.19464e-05
0.000305177
0.000111863
0.000112901
6.5964e-05
0.0001729
0.000172832
0.000255561
8.52213e-05
0.000255947
0.000168408
6.52867e-05
6.33956e-05
0.000399948
0.000254122
0.000395253
0.000263518
0.000125697
0.00011755
0.000397097
0.00024818
0.000286873
0.000116194
0.000134821
6.78274e-05
0.000169861
0.000169707
0.000253558
0.000166021
0.000166876
0.000252559
8.65645e-05
0.000253425
0.000171831
8.41816e-05
0.000285245
0.000253145
0.000170802
6.80689e-05
0.000388417
0.000251804
0.000294613
0.000122739
0.000114061
6.58851e-05
0.00016854
0.000171375
0.000254097
0.000288894
8.07978e-05
0.000251686
0.000164376
0.000250021
0.000264683
0.000120148
6.74853e-05
0.000133323
6.83196e-05
6.431e-05
0.000256934
8.57438e-05
0.000172732
0.000170735
0.0001687
8.4666e-05
6.4673e-05
0.000262702
0.000246158
0.000413246
0.000307599
0.000385535
0.000277006
0.000296901
0.000303985
0.00013512
0.000260781
7.026e-05
0.000396845
0.000385873
0.000293181
0.000255713
8.14791e-05
0.000166386
0.000252773
8.22089e-05
0.000301196
0.000167107
0.000168301
0.00016675
8.17108e-05
0.00029895
0.000280142
0.000170127
0.000165729
8.32841e-05
0.000280693
0.000308969
0.000122531
0.000277353
6.58703e-05
0.000395145
0.000383092
0.000289469
0.000250897
8.24208e-05
0.000289924
0.000166942
0.000167199
0.000168151
0.000291503
8.31931e-05
0.00029783
0.00012532
0.000256786
0.000126365
0.000261672
0.00039877
0.000391477
6.58395e-05
0.000131937
0.000130378
0.000127522
0.000116131
0.000388536
0.000126838
0.000258302
0.000304164
6.488e-05
0.000392328
0.000391855
0.000128278
0.000278618
6.79916e-05
0.0002987
0.000113726
0.000111724
6.79355e-05
0.000384266
0.000114841
0.000252005
0.000296797
0.000123121
6.7118e-05
0.000167007
0.00016695
0.000251923
0.000288262
0.000250027
0.000120884
6.50692e-05
0.000254215
0.00013426
7.51503e-05
0.000368395
0.000395582
0.000116912
0.000251286
6.96683e-05
0.000316029
0.000253854
0.000304149
8.32027e-05
0.000167725
0.000293238
0.000284288
0.000267453
0.000119544
0.000391776
0.000390933
0.000141908
0.000261317
0.000114972
0.000116736
0.000263074
0.000130227
7.04102e-05
0.000266067
0.000125397
6.50231e-05
0.000387241
0.000391891
0.00025785
0.000125135
0.000253282
0.000129262
)
;
        value           nonuniform List<scalar> 
360
(
482.795
482.796
482.799
482.778
482.779
482.814
482.779
482.785
482.773
482.793
482.794
482.813
482.816
482.802
482.795
482.784
482.771
482.777
482.766
482.801
482.781
482.794
482.781
482.777
482.797
482.776
482.814
482.777
482.769
482.782
482.777
482.775
482.797
482.797
482.812
482.814
482.773
482.768
482.778
482.765
482.769
482.797
482.814
482.794
482.796
482.813
482.816
482.8
482.794
482.782
482.815
482.814
482.817
482.817
482.798
482.791
482.778
482.8
482.814
482.817
482.801
482.777
482.781
482.769
482.801
482.782
482.795
482.78
482.781
482.776
482.786
482.775
482.773
482.804
482.785
482.798
482.8
482.782
482.77
482.766
482.782
482.781
482.783
482.801
482.801
482.814
482.814
482.815
482.797
482.8
482.798
482.816
482.815
482.796
482.816
482.814
482.813
482.813
482.795
482.802
482.802
482.803
482.815
482.815
482.816
482.801
482.8
482.815
482.793
482.812
482.815
482.812
482.796
482.799
482.803
482.803
482.782
482.782
482.782
482.795
482.797
482.783
482.768
482.783
482.769
482.783
482.768
482.777
482.784
482.77
482.778
482.782
482.782
482.782
482.804
482.785
482.773
482.797
482.797
482.773
482.785
482.795
482.795
482.773
482.784
482.776
482.803
482.8
482.779
482.768
482.771
482.778
482.766
482.773
482.773
482.774
482.793
482.766
482.782
482.8
482.766
482.774
482.782
482.781
482.78
482.792
482.793
482.768
482.782
482.777
482.799
482.766
482.792
482.768
482.782
482.799
482.776
482.781
482.779
482.801
482.814
482.813
482.816
482.798
482.816
482.814
482.802
482.802
482.768
482.782
482.768
482.781
482.794
482.796
482.767
482.783
482.776
482.796
482.794
482.802
482.814
482.814
482.817
482.815
482.815
482.817
482.794
482.816
482.812
482.795
482.774
482.816
482.813
482.799
482.771
482.783
482.778
482.793
482.795
482.801
482.814
482.813
482.816
482.778
482.797
482.817
482.814
482.779
482.781
482.793
482.799
482.791
482.799
482.8
482.816
482.797
482.813
482.813
482.814
482.795
482.802
482.781
482.783
482.77
482.776
482.771
482.781
482.775
482.774
482.793
482.781
482.8
482.767
482.767
482.777
482.817
482.801
482.817
482.817
482.799
482.779
482.815
482.813
482.816
482.797
482.774
482.776
482.813
482.814
482.795
482.775
482.772
482.794
482.78
482.8
482.767
482.771
482.779
482.817
482.798
482.779
482.815
482.815
482.815
482.781
482.8
482.78
482.793
482.78
482.794
482.782
482.766
482.771
482.8
482.782
482.783
482.783
482.795
482.769
482.794
482.781
482.778
482.801
482.768
482.767
482.793
482.778
482.8
482.774
482.781
482.781
482.804
482.776
482.799
482.787
482.781
482.798
482.804
482.815
482.816
482.817
482.777
482.786
482.796
482.803
482.784
482.793
482.8
482.769
482.769
482.796
482.783
482.801
482.771
482.816
482.771
482.794
482.813
482.774
482.774
482.779
482.794
482.766
482.766
482.79
482.779
482.782
482.783
482.783
482.793
482.801
482.779
482.793
482.8
482.771
482.767
482.783
482.795
482.78
482.792
)
;
        Tnbr            T;
        thicknessLayers 0();
        kappaLayers     0();
        kappaMethod     solidThermo;
        kappa           none;
        alphaAni        none;
    }
}


// ************************************************************************* //
