/*--------------------------------*- C++ -*----------------------------------*\
| =========                 |                                                 |
| \\      /  F ield         | OpenFOAM: The Open Source CFD Toolbox           |
|  \\    /   O peration     | Version:  v1912                                 |
|   \\  /    A nd           | Website:  www.openfoam.com                      |
|    \\/     M anipulation  |                                                 |
\*---------------------------------------------------------------------------*/
FoamFile
{
    version     2.0;
    format      ascii;
    class       volScalarField;
    location    "382/sphere";
    object      ddt0((betavSolid*thermo:rho),h);
}
// * * * * * * * * * * * * * * * * * * * * * * * * * * * * * * * * * * * * * //

dimensions      [1 -1 -3 0 0 0 0];


internalField   nonuniform List<scalar> 
6600
(
-83288.7
-83304.3
-83302.7
-83337.7
-83294
-83293.4
-83303.7
-83406.3
-83428.1
-83365.2
-83302.3
-83427.5
-83449
-83389
-83356.4
-83388.2
-83338.2
-83302.3
-83336.3
-83294.1
-83302.4
-83426.8
-83448.8
-83389.2
-83333.2
-83448.4
-83469.6
-83410.7
-83303.8
-83290.9
-83387.5
-83408.9
-83371.3
-83301.2
-83293.1
-83362.9
-83389.1
-83334.2
-83291.8
-83387.3
-83409.7
-83371.1
-83331.5
-83370.3
-83313.3
-83301.8
-83302
-83301.8
-83300.4
-83301.9
-83289.6
-83337.8
-83305.7
-83388.8
-83366
-83410.1
-83390.2
-83365.8
-83409.7
-83388.9
-83304.4
-83289.6
-83337.6
-83305.2
-83389.2
-83388.5
-83365.6
-83337.6
-83304.9
-83304.8
-83289.8
-83300.1
-83300.1
-83299.6
-83298.6
-83294.5
-83298.7
-83299.9
-83294.9
-83298.5
-83299.7
-83294.6
-83300.4
-83309.1
-83293.1
-83292.9
-83332.3
-83370.2
-83293
-83293.3
-83370.5
-83334.3
-83313.6
-83292.3
-83332
-83291.9
-83369.9
-83303.3
-83302.8
-83335.7
-83364.4
-83388.4
-83387.8
-83408.8
-83300.2
-83317.4
-83312.8
-83349.1
-83338.4
-83330.2
-83353.8
-83293.9
-83334
-83371.3
-83294.1
-83292.4
-83292.1
-83369.8
-83332.3
-83335.6
-83288.4
-83304.1
-83388.1
-83408.5
-83364.5
-83388
-83305.7
-83305.2
-83289.7
-83409.7
-83390
-83388.9
-83366.3
-83371.3
-83294
-83334.5
-83309
-83292.8
-83331.8
-83370.3
-83293
-83370.6
-83334.2
-83293.4
-83313.6
-83300.2
-83301.2
-83331.5
-83292.2
-83291.6
-83369.3
-83303.1
-83356.6
-83387.6
-83302.7
-83334.9
-83387.7
-83408
-83289.8
-83388.6
-83365.8
-83336.2
-83304.8
-83408.8
-83389.1
-83338.3
-83293.6
-83371.1
-83293.6
-83298.7
-83356.3
-83302.6
-83386.8
-83302.1
-83387.1
-83333.2
-83406.8
-83290
-83389.5
-83305.8
-83388.9
-83305.4
-83410.6
-83340
-83303.8
-83298.7
-83386.9
-83356.3
-83333.2
-83407.7
-83302.4
-83387.9
-83305.3
-83366
-83290.5
-83410.4
-83340.1
-83389.7
-83305.5
-83303.8
-83331.8
-83291
-83369.7
-83292
-83387.8
-83303.3
-83387.3
-83408.1
-83302.4
-83334.9
-83365.6
-83303.8
-83289.7
-83409
-83389.3
-83336.3
-83305.3
-83371.2
-83294
-83293.6
-83300.3
-83301.3
-83300.4
-83301.3
-83291.9
-83291
-83369.4
-83331.3
-83335
-83387.1
-83407.9
-83303.4
-83356.2
-83388.1
-83304.8
-83408.9
-83389
-83303.7
-83289.6
-83388.7
-83365.7
-83371.2
-83293.8
-83338
-83298.7
-83387
-83333.2
-83406.9
-83356
-83302.1
-83387.7
-83305.7
-83410.5
-83340.1
-83365.5
-83290.2
-83389.3
-83305.5
-83303.8
-83298.5
-83407.5
-83302.3
-83386.9
-83302
-83388
-83356.4
-83340.1
-83390.1
-83305.8
-83389.5
-83305.7
-83366
-83290.5
-83369.6
-83292.2
-83331.5
-83407.8
-83302.3
-83334.9
-83356
-83387.6
-83303.2
-83389.5
-83336.1
-83305.1
-83388.2
-83365.7
-83304
-83289.5
-83294.1
-83293.5
-83338.5
-83300.3
-83308.6
-83292.6
-83331.5
-83370.2
-83292.2
-83370.4
-83334.3
-83293.3
-83313.5
-83332.1
-83291.6
-83369.4
-83292.4
-83387.9
-83386.7
-83408.2
-83288.5
-83303.9
-83302.8
-83335.5
-83371
-83293.5
-83294.1
-83369.4
-83331.5
-83292.2
-83408.4
-83363.4
-83387.8
-83303.1
-83335.3
-83288.6
-83303.8
-83294.1
-83333.8
-83293.6
-83308.5
-83370.1
-83292.7
-83292.8
-83334
-83293.3
-83293.3
-83291.2
-83287.8
-83287.2
-83290.5
-83288.3
-83292.8
-83288.7
-83292.1
-83288.6
-83292.2
-83288.5
-83291.5
-83288.1
-83286.4
-83287.1
-83295.2
-83294.6
-83289.1
-83299.5
-83298.4
-83294.1
-83292.4
-83288.3
-83291.2
-83288.1
-83295
-83294.7
-83305.3
-83338.9
-83306.2
-83320.2
-83320.2
-83300.3
-83319.3
-83313.3
-83349.5
-83339.7
-83330.2
-83355.4
-83299.8
-83317.4
-83312.5
-83348.8
-83338.4
-83330
-83353.8
-83294.9
-83294.9
-83305.2
-83338.6
-83305.6
-83320.1
-83319.8
-83300.6
-83318.7
-83313.3
-83349.2
-83339.2
-83330.4
-83354.8
-83318.3
-83300.5
-83313
-83349.1
-83339
-83354.6
-83330.5
-83317.9
-83300.1
-83312.8
-83348.8
-83338.4
-83353.9
-83330.1
-83294.9
-83294.8
-83305.1
-83338.7
-83306
-83320.5
-83320.3
-83288.4
-83286.6
-83295.2
-83294.3
-83288.6
-83295.1
-83294.1
-83288.5
-83288.1
-83293.7
-83293.5
-83303.2
-83336.5
-83304.6
-83319.1
-83318.8
-83293.4
-83301.9
-83290.4
-83313.4
-83346.2
-83298.4
-83336.7
-83308.8
-83351.5
-83328.3
-83290.5
-83318.1
-83294.9
-83297.5
-83311.8
-83289.6
-83292.5
-83301
-83290
-83294.8
-83317
-83311.4
-83296.7
-83330.3
-83291.6
-83301.9
-83291.1
-83315.4
-83299.6
-83316.1
-83347.8
-83299.8
-83337.5
-83314.5
-83330
-83310.3
-83352.5
-83290.6
-83293.5
-83302.1
-83330.1
-83301.2
-83290.5
-83291
-83314.6
-83315.3
-83299.2
-83344.4
-83336
-83297.1
-83313.1
-83326.9
-83350.7
-83307.2
-83292.6
-83289
-83288.9
-83290.9
-83299.5
-83305.4
-83313.5
-83312.7
-83355
-83295.6
-83329.2
-83328
-83288.5
-83344.4
-83313.5
-83335.9
-83297.2
-83350.8
-83307.6
-83326.8
-83358.1
-83331.5
-83368.5
-83326.6
-83363.8
-83321
-83362.8
-83295.4
-83317.9
-83289.6
-83297.4
-83312.1
-83344.3
-83335.9
-83313.1
-83297.5
-83350.8
-83326.8
-83307.4
-83293.3
-83289.5
-83354.7
-83365.8
-83324.1
-83323.8
-83360.5
-83360.2
-83315.9
-83300.8
-83300.7
-83295.7
-83293.8
-83315.6
-83288.1
-83295.8
-83309.7
-83286.7
-83298.8
-83295.8
-83291.8
-83289.1
-83291.2
-83299.9
-83294.7
-83290.1
-83316.4
-83310.9
-83296.3
-83289
-83291.3
-83300.2
-83354.4
-83310.6
-83328.6
-83304.9
-83310.5
-83327.7
-83293.6
-83293.5
-83315.3
-83289
-83310.4
-83295.4
-83303.7
-83353.1
-83308.4
-83308.3
-83326.6
-83326.4
-83292.4
-83294.6
-83296.8
-83296.7
-83290.4
-83286.8
-83294.5
-83295
-83288.4
-83287.4
-83293.6
-83293.2
-83293.1
-83289.9
-83292.3
-83301.3
-83289.9
-83316.4
-83294.3
-83296.3
-83311
-83289.2
-83291.7
-83299.9
-83294.1
-83288.8
-83316.3
-83296.5
-83310
-83303.8
-83309.4
-83308.1
-83353.4
-83292.7
-83327.6
-83325.7
-83289.5
-83316.8
-83311.4
-83294.6
-83296.5
-83293.4
-83301.9
-83290.5
-83294.6
-83290.1
-83316.8
-83296.5
-83311.4
-83290.3
-83293.4
-83301.9
-83310.7
-83354.4
-83328.3
-83305
-83310.6
-83293.7
-83327.8
-83294.9
-83296.7
-83296.4
-83290.2
-83289.5
-83292.3
-83301.2
-83289
-83294.1
-83316.6
-83311
-83296.2
-83289.2
-83291.2
-83299.3
-83303.7
-83309
-83307.8
-83353.3
-83292.4
-83327.3
-83325.4
-83294
-83288.2
-83316.1
-83296.2
-83309.9
-83314.4
-83298.7
-83337.3
-83309.2
-83352.5
-83346.7
-83328.9
-83298.4
-83313.5
-83308.8
-83346.4
-83336.8
-83328.7
-83351.7
-83289.9
-83318
-83311.7
-83294.8
-83297.5
-83310.6
-83354.2
-83328
-83304.8
-83310
-83293.7
-83327.8
-83290.7
-83293.6
-83302.1
-83295.1
-83290.8
-83317.7
-83297.1
-83312
-83293.9
-83288.7
-83316.6
-83296.2
-83310.7
-83289.2
-83292.5
-83300.9
-83293.8
-83315.8
-83288.1
-83295.9
-83309.4
-83288.8
-83290.8
-83299.2
-83303.3
-83309.5
-83353.2
-83307.9
-83327.1
-83292.5
-83325.4
-83325.4
-83326.2
-83368.3
-83356.6
-83317.5
-83362.1
-83362.6
-83336.4
-83293.7
-83293.8
-83304.7
-83303.3
-83318.4
-83319
-83315.2
-83346.6
-83299.3
-83337.8
-83309.3
-83352.8
-83328.9
-83319.1
-83300.8
-83339.9
-83313.1
-83355.4
-83349.6
-83331.1
-83318.3
-83300.7
-83313.3
-83349.3
-83338.9
-83354.2
-83330.6
-83295
-83294.6
-83305.3
-83339
-83306
-83320.8
-83320.3
-83290.7
-83293.7
-83302.3
-83295.1
-83317.6
-83290.2
-83297.1
-83311.7
-83305.3
-83310.9
-83354.7
-83311
-83328.8
-83293.6
-83328.1
-83290.6
-83293.5
-83302
-83294.3
-83293.6
-83293.2
-83294.4
-83289
-83316.7
-83310.9
-83296.6
-83303.5
-83309.5
-83353
-83307.9
-83326.9
-83291.8
-83325.5
-83289.5
-83291.4
-83299.8
-83294.5
-83316.6
-83289.6
-83296.6
-83310.5
-83290.6
-83293.5
-83301.9
-83304.8
-83310.7
-83354.4
-83310.6
-83328.5
-83293.3
-83327.5
-83295.1
-83317
-83289.9
-83296.8
-83311.7
-83290.4
-83293.3
-83301.6
-83294.8
-83296.9
-83296.8
-83290.4
-83287.4
-83287
-83294.7
-83293.9
-83288.2
-83288.8
-83295.8
-83298.9
-83292.4
-83291.8
-83288.1
-83289.1
-83291.5
-83300.3
-83289.1
-83291.2
-83299.6
-83303.3
-83308.3
-83307.9
-83352.7
-83292.3
-83326.4
-83325.3
-83293.7
-83289
-83315.7
-83310.2
-83295.6
-83293.7
-83288.2
-83315.4
-83309.6
-83295.6
-83344.6
-83298.1
-83336.6
-83313.8
-83327.3
-83307.9
-83351.4
-83344.9
-83298.3
-83313.1
-83336.4
-83307.7
-83328.5
-83350.9
-83355.3
-83325.1
-83324.5
-83367.4
-83316.5
-83361.7
-83361.1
-83337.9
-83294.5
-83306.2
-83294.7
-83320.1
-83304.1
-83320
-83358.2
-83326.6
-83331.4
-83368.5
-83320.9
-83362.8
-83363.8
-83348.3
-83299.9
-83317.6
-83338.9
-83311.6
-83330.4
-83354.1
-83305.6
-83313
-83312.9
-83355.2
-83295.4
-83328.7
-83328.8
-83290.7
-83293.8
-83302.3
-83294.9
-83290
-83317.4
-83311.7
-83296.7
-83295
-83290.2
-83317.4
-83311.7
-83296.9
-83285.7
-83286.4
-83293.4
-83293.5
-83287.7
-83344.1
-83297.4
-83336.1
-83312.8
-83327
-83307.3
-83350.5
-83344.4
-83297.3
-83335.8
-83312.8
-83327.3
-83307.3
-83350.6
-83354.8
-83323.8
-83324.1
-83365.9
-83316
-83360.3
-83360.6
-83339.2
-83306.3
-83295.2
-83295.1
-83320.7
-83320.7
-83305.4
-83350.1
-83301.1
-83339.7
-83319.7
-83331.1
-83313.9
-83355.8
-83349.6
-83300.5
-83339.5
-83319.2
-83330.7
-83313.1
-83355.4
-83360.4
-83334
-83334.1
-83372.1
-83324.9
-83366.2
-83366.1
-83293
-83288.8
-83293.2
-83288.5
-83300.5
-83300.7
-83295.3
-83286.5
-83293.8
-83293.5
-83288.3
-83285.8
-83330.7
-83290.7
-83301.3
-83290.8
-83314.8
-83299
-83315.5
-83355.1
-83324.5
-83365.9
-83323.9
-83360.7
-83316.5
-83360.5
-83344.6
-83297.5
-83313.2
-83336.1
-83307.2
-83327.6
-83350.7
-83349.7
-83339.5
-83300.6
-83319.1
-83330.7
-83355.4
-83313.5
-83339.4
-83295.6
-83306.8
-83295.3
-83320.6
-83305.7
-83320.8
-83360.3
-83334
-83372.1
-83334.2
-83366.1
-83325.3
-83366.1
-83349.7
-83300.5
-83319.3
-83339.5
-83313.4
-83330.7
-83355.5
-83300.6
-83300.8
-83295.6
-83292.9
-83288.9
-83303.3
-83307.7
-83308.8
-83352.9
-83292.2
-83325.3
-83326.4
-83289.2
-83291.5
-83300
-83294
-83288.1
-83315.8
-83310.2
-83296.1
-83293.8
-83288.7
-83315.8
-83309.9
-83295.8
-83330.3
-83301.3
-83291.2
-83290.9
-83315.4
-83315.3
-83299.4
-83345
-83336.9
-83298.1
-83314.3
-83327.8
-83351.8
-83308.1
-83344.4
-83297.7
-83336
-83312.8
-83327.6
-83307.6
-83350.5
-83355.6
-83325.9
-83367.4
-83324.8
-83362
-83317.4
-83361
-83347.5
-83337.4
-83299.4
-83315
-83329.2
-83352.5
-83310.1
-83337.6
-83306.1
-83294.1
-83294.6
-83319.3
-83320
-83303.9
-83358.2
-83326.8
-83368.4
-83331.6
-83363
-83320.9
-83363.7
-83348.3
-83300
-83339.2
-83318.3
-83330
-83311.9
-83354.4
-83290.7
-83293.9
-83302.4
-83290.4
-83293.5
-83301.8
-83294.9
-83290.4
-83317.4
-83311.5
-83296.8
-83295.2
-83289.4
-83317.7
-83311.7
-83297
-83288.4
-83287.2
-83295.2
-83294.3
-83289.7
-83295.8
-83299
-83292.6
-83291.8
-83288.2
-83287
-83294.4
-83295.1
-83289.7
-83287.7
-83298.9
-83295.9
-83292.3
-83291.5
-83287.8
-83287.8
-83293.7
-83315.5
-83288.4
-83295.5
-83309.6
-83293.5
-83315.4
-83287.2
-83295.6
-83309.6
-83288.9
-83291.2
-83299.5
-83289
-83291.5
-83299.7
-83303.2
-83352.6
-83307.5
-83308.3
-83325.3
-83326.1
-83292.1
-83355.7
-83325.1
-83367.5
-83325.7
-83361.4
-83317.4
-83361.9
-83330.3
-83290.6
-83291.3
-83301.2
-83299.3
-83314.9
-83315.5
-83345.1
-83314.2
-83298.2
-83337
-83308.2
-83351.8
-83328
-83348.1
-83317.7
-83339
-83299.7
-83354.1
-83311.5
-83329.8
-83347.6
-83314.9
-83299.6
-83337.4
-83309.9
-83352.6
-83329.4
-83337.6
-83294.5
-83294.1
-83305.8
-83303.7
-83319.9
-83319.5
-83295.2
-83317.5
-83290.9
-83297.1
-83311.8
-83290.4
-83293.3
-83302
-83305.3
-83354.8
-83313.1
-83312.4
-83328.8
-83327.9
-83295.4
-83290.2
-83293.4
-83302
-83286.7
-83293.5
-83293.4
-83288.3
-83286.1
-83355
-83324.3
-83365.9
-83323.9
-83360.7
-83316.5
-83360.3
-83330
-83290.2
-83301.3
-83290.9
-83315
-83298.9
-83315.5
-83344.6
-83312.3
-83297.7
-83336
-83307.4
-83350.3
-83327.8
-83349.8
-83339.6
-83319.5
-83300.8
-83355.5
-83330.9
-83313.7
-83360.3
-83334.2
-83372.1
-83334.1
-83366.1
-83325.5
-83366.1
-83339.2
-83295.3
-83306.1
-83295
-83320.9
-83305.6
-83320.4
-83349.7
-83319.3
-83300.6
-83339.5
-83313.5
-83355.4
-83330.6
-83300.8
-83300.7
-83295.8
-83292.8
-83289.1
-83293.4
-83293.2
-83287.8
-83285.8
-83286
-83344.1
-83312.7
-83336
-83297.4
-83350.6
-83307.1
-83327.1
-83344.5
-83312.4
-83335.9
-83297.9
-83350.2
-83307.2
-83328.5
-83329.8
-83289.9
-83291.1
-83301.3
-83298.9
-83314.8
-83315.9
-83360.5
-83372.1
-83334.3
-83334.2
-83366.2
-83366.1
-83325.4
-83349.9
-83319.6
-83339.7
-83300.8
-83355.7
-83313.6
-83330.6
-83349.8
-83319.5
-83339.8
-83300.8
-83355.6
-83313.7
-83330.8
-83339.3
-83295.2
-83295.4
-83306.6
-83305.6
-83320.7
-83320.6
-83293.1
-83289.2
-83293
-83288.9
-83293.5
-83315.8
-83289.2
-83295.7
-83310.4
-83288.5
-83290.9
-83299.3
-83303.3
-83352.8
-83307.9
-83308.5
-83325.4
-83326.3
-83292
-83289.3
-83291.3
-83300
-83345
-83336.1
-83312.6
-83298
-83350.6
-83328.2
-83307.8
-83355.6
-83367.3
-83324.9
-83325.5
-83361.1
-83361.7
-83316.9
-83330.7
-83291.5
-83301.3
-83291
-83316
-83299.8
-83315
-83344.7
-83314
-83336.8
-83297.7
-83351.6
-83307.9
-83327.2
-83357.9
-83368.3
-83331.4
-83326.4
-83363.6
-83362.6
-83320.4
-83348.3
-83339.1
-83318.1
-83299.9
-83354.3
-83330.3
-83311.7
-83347.6
-83314.7
-83337.5
-83300
-83352.4
-83310.1
-83329.4
-83337.8
-83294.7
-83305.7
-83294.4
-83320.1
-83304.3
-83319.4
-83295.2
-83317.5
-83290.3
-83297
-83311.5
-83295.1
-83317.5
-83290
-83296.9
-83311.7
-83305.6
-83355.4
-83313.5
-83312.5
-83329.5
-83328
-83295.6
-83291
-83293.7
-83302.3
-83290.2
-83293.4
-83301.8
-83294.3
-83295.1
-83288.7
-83287.6
-83291.6
-83287.6
-83288.1
-83292.8
-83293
-83293.7
-83294.4
-83289.4
-83316.5
-83310.6
-83296.5
-83303.3
-83308.4
-83352.8
-83308.4
-83326.3
-83292.1
-83326.2
-83289.5
-83292.3
-83300.7
-83316.7
-83288
-83294.4
-83296.5
-83310.8
-83290.5
-83293.3
-83301.8
-83354.2
-83310.2
-83327.3
-83304.7
-83310.8
-83328.4
-83293.6
-83290.1
-83317
-83311.4
-83294.6
-83296.6
-83292.7
-83301.6
-83290.1
-83294.6
-83296.6
-83296.7
-83290.4
-83303.3
-83308.6
-83352.9
-83308.6
-83326.5
-83292.1
-83326
-83293.6
-83288.7
-83315.6
-83310.1
-83295.6
-83288.9
-83292
-83300.3
-83289.1
-83293.7
-83315.9
-83310.3
-83295.8
-83293.4
-83293
-83302.6
-83335.9
-83304.4
-83318.4
-83318.2
-83314.9
-83337.7
-83299.1
-83352.7
-83309.2
-83346.6
-83328.7
-83298.3
-83313.8
-83308.6
-83346
-83336.5
-83328.2
-83351.4
-83290
-83293.1
-83302
-83294.8
-83290.2
-83317.5
-83311.8
-83297.2
-83293.4
-83301.9
-83290.4
-83290.1
-83317.5
-83311.7
-83295.1
-83297.3
-83288.9
-83291.2
-83300.3
-83303
-83352.6
-83308.4
-83308.3
-83326.2
-83325.9
-83292.1
-83289.1
-83293.6
-83315.8
-83295.6
-83310.1
-83289.3
-83291.8
-83300.5
-83313.6
-83298.8
-83308.9
-83346
-83336.5
-83351.5
-83328.2
-83293.4
-83293.6
-83302.8
-83336
-83304.8
-83318.4
-83318.6
-83314.7
-83337.4
-83298.6
-83352.5
-83308.8
-83346.2
-83328.5
-83295.4
-83318
-83290.4
-83312.2
-83297.3
-83354.1
-83310
-83328
-83305.1
-83310.3
-83327.9
-83293.8
-83290.8
-83293.9
-83302.2
-83290.7
-83317.1
-83311.5
-83294.8
-83296.8
-83293.1
-83302
-83290.5
-83293.1
-83292.6
-83293.5
-83289.8
-83291.4
-83299.8
-83294.1
-83316.2
-83288.2
-83309.9
-83296.4
-83289.8
-83292.6
-83300.9
-83316.3
-83289
-83294.1
-83310.5
-83296.3
-83354.2
-83310.4
-83328.3
-83304.8
-83310.6
-83327.5
-83293.7
-83294.8
-83316.5
-83289.9
-83311
-83296.6
-83290.4
-83293.3
-83301.6
-83289.9
-83316.7
-83311.1
-83294.7
-83296.5
-83293.3
-83301.9
-83290.4
-83333
-83331.5
-83369.8
-83323.8
-83365.1
-83359.4
-83364
-83428
-83427.2
-83448.5
-83427
-83447.9
-83447.4
-83468.4
-83406.7
-83449.6
-83429.1
-83448.5
-83427.9
-83469.5
-83449.4
-83448.1
-83406.2
-83427.3
-83448.4
-83468.5
-83427.8
-83448.1
-83428.6
-83427.9
-83407.4
-83469.5
-83449.4
-83449.1
-83429
-83364.3
-83373.3
-83328.8
-83373.8
-83348.3
-83388.5
-83348.6
-83447.8
-83447.3
-83468.3
-83406
-83427.7
-83427
-83447.8
-83428.3
-83469.5
-83449.4
-83428.7
-83407.2
-83449.4
-83428.5
-83468.5
-83427.4
-83447.7
-83428
-83448.3
-83406.4
-83427.3
-83449.7
-83449.1
-83429.2
-83449.5
-83428.9
-83428
-83407.3
-83315
-83347.5
-83347.5
-83366
-83318.6
-83342
-83341.7
-83365.4
-83347.3
-83341.4
-83314.8
-83347.7
-83341.6
-83318.9
-83364.9
-83346.8
-83341.2
-83314.4
-83346.8
-83340.9
-83318.4
-83331.8
-83333.3
-83324.7
-83359.6
-83369.9
-83364.1
-83365.2
-83331.6
-83332.9
-83324.2
-83359.3
-83369.6
-83364
-83364.8
-83332.9
-83331.6
-83324.3
-83359.2
-83369.6
-83364.8
-83363.9
-83346.6
-83313.8
-83346.6
-83364.3
-83318.1
-83340.8
-83339.8
-83346.8
-83365.2
-83341.3
-83314.4
-83346.9
-83318.2
-83341.1
-83313.7
-83346.6
-83364.1
-83346.2
-83340.7
-83317.7
-83339.7
-83326.4
-83325.6
-83368.4
-83318.1
-83362.7
-83357
-83362.3
-83347.8
-83365.6
-83341.6
-83314.7
-83347.7
-83319.1
-83341.6
-83313.3
-83346.5
-83346
-83364
-83317.6
-83340.5
-83339.4
-83347.8
-83315
-83347.7
-83365.7
-83319.1
-83341.9
-83341.6
-83313.9
-83346.7
-83364.3
-83346.8
-83340.6
-83318.2
-83340.1
-83314.7
-83347
-83365.1
-83347.1
-83341.4
-83318.6
-83341.2
-83313.1
-83363.5
-83345.9
-83345.7
-83340
-83339.3
-83317.2
-83364.5
-83329.4
-83373.5
-83374.1
-83348.5
-83349.2
-83388.8
-83314.8
-83365.7
-83347.5
-83347.4
-83341.9
-83341.8
-83318.7
-83364.2
-83329
-83373.4
-83373.3
-83348.1
-83348.4
-83388.5
-83364.4
-83373.4
-83328.9
-83373.4
-83348.3
-83388.5
-83348.5
-83313.5
-83363.9
-83346.1
-83346.2
-83339.9
-83340
-83317.7
-83314.7
-83365.8
-83347.5
-83347.6
-83341.9
-83341.6
-83318.6
-83313
-83345.8
-83345.7
-83363.6
-83317.1
-83339.4
-83339.6
-83364.2
-83373
-83328.7
-83373.9
-83347.9
-83388.4
-83348.8
-83315.1
-83347.9
-83347.4
-83365.7
-83319.1
-83342.2
-83341.5
-83364
-83373.4
-83328.5
-83373.5
-83348.2
-83388.2
-83348.6
-83364.3
-83373.4
-83374
-83329.2
-83388.6
-83348.2
-83349.1
-83313.2
-83346
-83346.1
-83363.6
-83317.5
-83339.6
-83339.9
-83364.4
-83373.5
-83373.8
-83328.6
-83388.4
-83348.6
-83348.5
-83346.7
-83313.8
-83346.6
-83364.2
-83340.4
-83318.2
-83340.3
-83365
-83346.9
-83341
-83314.3
-83346.7
-83341.1
-83318.2
-83313.3
-83363.8
-83345.9
-83345.9
-83340.1
-83339.8
-83317.2
-83326.5
-83368.1
-83325.3
-83362.8
-83317.7
-83356.6
-83361.7
-83365.4
-83347.4
-83341.7
-83315.1
-83347.6
-83341.5
-83319.1
-83313
-83345.8
-83363.6
-83345.8
-83339.9
-83317.1
-83339.7
-83326.2
-83368
-83324.8
-83362.5
-83317.1
-83356.1
-83361.5
-83346.5
-83313.6
-83364.1
-83346.4
-83340.1
-83340.2
-83318.1
-83250
-83192
-83143.3
-83251.4
-83193
-83143.9
-83251.5
-83193.1
-83144
-83253.2
-83195
-83145
-83252.4
-83194.3
-83144.3
-83251.8
-83194
-83144.9
-83253.2
-83195
-83145.5
-83252
-83194
-83144.7
-83252.4
-83194.3
-83144.8
-83253.5
-83195.4
-83145.6
-83252.8
-83194.6
-83144.6
-83251.6
-83193.6
-83143.8
-83252.2
-83194.2
-83144.7
-83253.8
-83195.5
-83145.8
-83252.8
-83194.6
-83144.4
-83253.3
-83195.2
-83145.7
-83248.5
-83190.6
-83141.6
-83249.2
-83191.2
-83142.1
-83252.2
-83194.1
-83144.4
-83252
-83194.1
-83144.6
-83252
-83193.8
-83144.6
-83250.5
-83192.5
-83143
-83251.2
-83192.9
-83143.4
-83251.7
-83193.5
-83143.9
-83251.9
-83193.6
-83144
-83251.7
-83193.5
-83143.8
-83251.3
-83193.1
-83143.5
-83252
-83193.7
-83144
-83251.6
-83193.3
-83144.2
-83252.4
-83194
-83144.6
-83251.8
-83193.5
-83144.5
-83252
-83193.6
-83144.5
-83252.1
-83193.7
-83144.5
-83251
-83192.8
-83143.1
-83251.1
-83192.8
-83143.1
-83251.9
-83193.7
-83144
-83251
-83192.9
-83143.1
-83251.6
-83193.4
-83143.5
-83252
-83193.8
-83144.1
-83251
-83192.9
-83143.2
-83251.9
-83193.7
-83144
-83251.4
-83193.2
-83143.4
-83252.5
-83194.2
-83144.7
-83252.1
-83193.9
-83144.4
-83251.7
-83193.6
-83144.3
-83252.9
-83194.6
-83145
-83250.9
-83192.7
-83143.5
-83251.1
-83193
-83143.6
-83253.8
-83195.7
-83145.6
-83253.3
-83195.1
-83145.6
-83252.7
-83194.7
-83145.4
-83253.2
-83195
-83145.6
-83251.3
-83193.1
-83143.7
-83251.7
-83193.4
-83143.9
-83252
-83193.7
-83144.5
-83251.4
-83193.1
-83144.1
-83252.5
-83194.6
-83145.2
-83253.2
-83194.9
-83145.4
-83251.6
-83193.5
-83144.2
-83251.6
-83193.7
-83144.4
-83252.6
-83194.3
-83144.9
-83251.9
-83194
-83144.5
-83252.7
-83194.5
-83145
-83251.6
-83193.5
-83143.7
-83252.1
-83194
-83144.4
-83251.7
-83193.4
-83143.9
-83250.7
-83192.5
-83143
-83252.4
-83194.3
-83144.9
-83252
-83194.2
-83144.9
-83252.2
-83194.1
-83144.9
-83250.2
-83191.9
-83142.1
-83254.9
-83196.6
-83146.7
-83254.4
-83196.1
-83146.3
-83253.3
-83195.2
-83145.7
-83250.1
-83191.8
-83142
-83252.3
-83194.2
-83145.3
-83253.1
-83194.7
-83145.5
-83254.2
-83196
-83146.3
-83253.3
-83195.3
-83145.7
-83249.3
-83191.3
-83142.2
-83250.4
-83192.4
-83143.2
-83251.1
-83192.9
-83143.5
-83253.2
-83195.1
-83145.3
-83252.2
-83194.1
-83144.2
-83252.4
-83194
-83144.8
-83251.1
-83193
-83144.1
-83254.6
-83196.2
-83146.1
-83252.9
-83195
-83145.5
-83252.8
-83194.7
-83145.4
-83251.5
-83193.7
-83144.4
-83252.4
-83194.3
-83145
-83251.7
-83193.6
-83143.9
-83252.2
-83194.1
-83144.4
-83251.7
-83193.6
-83143.8
-83252.1
-83194
-83144.3
-83251.3
-83193
-83143.6
-83249.6
-83191.5
-83142.3
-83252.5
-83194.1
-83144.8
-83252.1
-83193.7
-83144.6
-83252.4
-83194.5
-83145.2
-83252.6
-83194.5
-83145.2
-83250.2
-83191.9
-83142.1
-83251.3
-83193.2
-83144.5
-83252.7
-83194.3
-83145
-83254.1
-83195.9
-83146.1
-83253.3
-83195.2
-83145.6
-83249.8
-83191.5
-83141.8
-83254.9
-83196.7
-83146.8
-83254.7
-83196.4
-83146.5
-83251.8
-83193.7
-83144.8
-83252.8
-83194.5
-83145.3
-83253.4
-83195
-83145.6
-83250.9
-83192.9
-83143.4
-83251.6
-83193.3
-83143.8
-83253.2
-83195.2
-83145.3
-83254.1
-83195.8
-83145.8
-83254.2
-83196.1
-83146.3
-83252.1
-83193.8
-83144.8
-83251
-83193
-83144.2
-83252
-83193.7
-83144.6
-83253.2
-83195
-83145.6
-83252.5
-83194.3
-83145
-83251.9
-83193.8
-83144
-83251.6
-83193.5
-83144.3
-83249.6
-83191.8
-83142.9
-83251
-83192.9
-83143.7
-83251.5
-83193.6
-83144.1
-83252.9
-83194.6
-83144.9
-83250.7
-83192.5
-83143.2
-83250.7
-83192.8
-83143.5
-83251.8
-83193.5
-83144
-83251.8
-83194
-83144.7
-83252.2
-83194.1
-83144.9
-83252.9
-83194.9
-83145.4
-83253.3
-83195.1
-83145.6
-83250.7
-83192.8
-83143.6
-83251.6
-83193.3
-83143.9
-83251.1
-83192.8
-83143.6
-83253.5
-83195.3
-83145.7
-83252.4
-83194.3
-83145.1
-83251.6
-83193.6
-83144.2
-83251.7
-83193.5
-83144.2
-83251.5
-83193.5
-83144.3
-83252.2
-83193.9
-83144.5
-83252.8
-83194.5
-83145
-83252.5
-83194.3
-83144.8
-83250
-83192.1
-83142.7
-83250.6
-83192.5
-83143.8
-83251.5
-83193.2
-83143.7
-83247.4
-83189.8
-83141.2
-83248.7
-83190.9
-83141.7
-83251.2
-83193
-83144.1
-83251.2
-83193.3
-83143.8
-83250.7
-83192.8
-83143.4
-83251.4
-83193.4
-83143.8
-83252
-83193.7
-83144.5
-83249.4
-83191.6
-83142.4
-83251.3
-83193.2
-83143.9
-83246.9
-83189.4
-83141
-83250
-83192
-83143
-83249.1
-83191.2
-83142.2
-83250.6
-83192.5
-83143.9
-83250.5
-83192.6
-83142.8
-83250.6
-83192.7
-83142.9
-83251.6
-83193.4
-83143.7
-83250.8
-83192.7
-83142.9
-83250.5
-83192.6
-83143.4
-83250.9
-83192.6
-83143.5
-83248.6
-83190.9
-83141.9
-83250.6
-83192.3
-83143.3
-83253.4
-83195
-83145.3
-83253.3
-83195
-83145.4
-83253.8
-83195.3
-83145.6
-83252.9
-83194.6
-83145.3
-83253.5
-83195.2
-83145.6
-83253.2
-83194.8
-83145.3
-83249
-83191.2
-83142.5
-83252.4
-83194.2
-83144.7
-83250.7
-83192.8
-83143.4
-83247
-83189.5
-83140.9
-83250.1
-83192.2
-83142.6
-83249.7
-83191.8
-83141.9
-83250.3
-83192.4
-83142.7
-83249.7
-83191.8
-83142
-83251.3
-83193.1
-83144.1
-83248.4
-83190.7
-83142
-83250.6
-83192.6
-83143.5
-83253.2
-83194.8
-83145.1
-83253.3
-83195
-83145.2
-83253.1
-83194.7
-83145.6
-83254.5
-83196.1
-83146.4
-83252.7
-83194.4
-83145.2
-83252.8
-83194.5
-83145.3
-83251.8
-83193.7
-83144.8
-83252.9
-83194.8
-83145
-83254.3
-83196.1
-83146.2
-83252
-83193.8
-83144.8
-83251.7
-83193.7
-83144.7
-83253.6
-83195.2
-83145.6
-83252.7
-83194.7
-83145.2
-83253
-83194.9
-83145.4
-83253.9
-83195.8
-83146.3
-83251.7
-83193.3
-83144.1
-83251.5
-83193
-83144
-83251.2
-83192.9
-83143.8
-83252.5
-83194
-83144.6
-83253.5
-83195
-83145.4
-83251.3
-83193.3
-83144.4
-83251.3
-83193.3
-83144.3
-83252.5
-83194.2
-83145
-83252.6
-83194.6
-83145.1
-83253
-83194.8
-83145.3
-83253.3
-83195.2
-83145.7
-83252.9
-83194.6
-83145.2
-83252.5
-83194.3
-83145.1
-83251.3
-83193.3
-83144.5
-83253
-83194.9
-83145.4
-83253.6
-83195.6
-83145.8
-83253.9
-83195.9
-83146.1
-83255.8
-83197.5
-83147.4
-83252.8
-83194.4
-83145.2
-83252.9
-83194.6
-83145.3
-83252.2
-83194
-83144.8
-83253.8
-83195.2
-83145.8
-83254.2
-83195.5
-83146
-83251
-83192.8
-83144
-83251.4
-83193.3
-83144.2
-83252.5
-83194.1
-83144.7
-83251.8
-83193.6
-83144.5
-83253.5
-83195.4
-83145.5
-83251.6
-83193.6
-83143.9
-83253.1
-83195
-83145
-83251.5
-83193.6
-83144.1
-83252.1
-83193.9
-83144.8
-83250.9
-83192.6
-83143.6
-83251
-83192.7
-83143.6
-83250.5
-83192.3
-83143.2
-83251.8
-83193.5
-83144.3
-83251.9
-83193.6
-83144.5
-83254
-83195.7
-83146.1
-83253.8
-83195.5
-83145.9
-83252.7
-83194.4
-83144.8
-83249.9
-83192
-83143.1
-83252.2
-83194.1
-83144.4
-83254.2
-83196
-83146
-83253.7
-83195.7
-83145.8
-83252.8
-83194.7
-83145.4
-83251.6
-83193.5
-83144.1
-83250
-83192.1
-83143.4
-83250.6
-83192.4
-83143.5
-83253.5
-83195.4
-83146
-83252.5
-83194.4
-83144.5
-83253.8
-83195.6
-83145.5
-83251.8
-83193.9
-83144.6
-83252
-83193.8
-83144.9
-83252.9
-83194.8
-83145.2
-83252.7
-83194.7
-83145
-83252.2
-83194
-83144.1
-83252.1
-83193.8
-83144.2
-83249.5
-83191.4
-83142.5
-83248.7
-83190.7
-83142
-83250.9
-83192.5
-83143.1
-83252.5
-83194.3
-83144.7
-83248.4
-83190.6
-83141.8
-83250.5
-83192.4
-83143.3
-83251.5
-83193.5
-83143.9
-83251.4
-83193.6
-83143.8
-83252.8
-83194.6
-83145
-83251
-83192.7
-83143.8
-83251
-83192.7
-83143.8
-83250.9
-83192.7
-83143.5
-83252.1
-83193.6
-83144.4
-83252
-83193.7
-83144.6
-83252.9
-83194.8
-83145.2
-83253.1
-83194.8
-83145.2
-83251.8
-83193.5
-83144.5
-83252
-83193.9
-83144.8
-83252.4
-83194
-83145
-83252.9
-83194.8
-83145.3
-83250.9
-83192.6
-83143.5
-83250.5
-83192.3
-83143.4
-83250.3
-83192.1
-83143
-83251.8
-83193.4
-83144.2
-83251.5
-83193.1
-83144.2
-83254.4
-83196
-83146.4
-83253.6
-83195.3
-83145.8
-83253.7
-83195.3
-83145.9
-83251.3
-83193.3
-83143.7
-83252.1
-83193.8
-83144.2
-83250.3
-83192.1
-83143.1
-83249.8
-83191.8
-83143
-83252.1
-83193.9
-83144.3
-83252.2
-83194
-83144.4
-83253.3
-83195
-83145.5
-83252.8
-83194.5
-83145.1
-83253.1
-83194.8
-83145.3
-83254.8
-83196.4
-83146.9
-83254.8
-83196.3
-83146.8
-83254.7
-83196.3
-83146.6
-83255.5
-83197.1
-83147.2
-83254.4
-83196.1
-83146.5
-83255
-83196.6
-83146.8
-83254.4
-83196
-83146.3
-83252.7
-83194.3
-83145.4
-83252.7
-83194.3
-83145.3
-83248.3
-83190.5
-83141.7
-83249.3
-83191.3
-83142.6
-83250.3
-83192.4
-83142.6
-83250
-83192.2
-83142.4
-83251.3
-83193.3
-83144.1
-83247.6
-83190
-83141.5
-83250.1
-83192.1
-83143.2
-83253.9
-83195.5
-83145.9
-83253.5
-83195.2
-83145.7
-83253.7
-83195.4
-83145.8
-83252.8
-83194.5
-83145.3
-83253.6
-83195.3
-83145.8
-83252.9
-83194.7
-83145.4
-83252.1
-83193.8
-83144.5
-83252
-83193.6
-83144.5
-83251.3
-83193.1
-83143.9
-83253
-83194.5
-83145
-83251.8
-83193.5
-83144.4
-83252.3
-83194.3
-83144.6
-83251.2
-83193
-83143.9
-83251.2
-83192.9
-83143.9
-83251
-83192.8
-83143.7
-83252.2
-83193.9
-83144.7
-83252
-83194
-83144.4
-83250.3
-83192.2
-83143.4
-83250.4
-83192.4
-83143.7
-83251.9
-83193.5
-83144.4
-83252.7
-83194.7
-83145
-83254
-83195.5
-83145.9
-83254.2
-83195.7
-83146.2
-83252.7
-83194.4
-83145.1
-83253.2
-83194.7
-83145.4
-83252.2
-83193.9
-83144.7
-83252.9
-83194.8
-83145.2
-83251.8
-83193.6
-83144.5
-83252.4
-83194.1
-83145.1
-83252.5
-83194.2
-83145
-83252.3
-83193.9
-83144.9
-83252.2
-83193.9
-83144.6
-83253.4
-83194.9
-83145.6
-83254
-83195.4
-83145.9
-83254.8
-83196.4
-83146.6
-83254.6
-83196.2
-83146.8
-83254.5
-83196.1
-83146.7
-83254.7
-83196.3
-83146.6
-83254.8
-83196.4
-83146.7
-83254.5
-83196.1
-83146.4
-83252.3
-83193.9
-83145.1
-83251.7
-83193.3
-83144.2
-83251.3
-83193
-83144.1
-83251.1
-83192.9
-83143.7
-83252.5
-83194
-83144.7
-83250.2
-83192.1
-83143.3
-83252
-83194
-83144.3
-83251.1
-83192.8
-83144
-83251.2
-83192.9
-83143.8
-83251.2
-83192.9
-83143.7
-83252.5
-83194.1
-83144.9
-83252.1
-83194
-83144.3
-83250.1
-83192
-83143
-83251.6
-83193.4
-83144.4
-83252.8
-83194.9
-83145.3
-83252.8
-83194.7
-83145.3
-83253.7
-83195.6
-83146.2
-83254.2
-83195.9
-83146.3
-83253.4
-83194.9
-83145.7
-83252.9
-83194.6
-83145.5
-83252.9
-83194.6
-83145.2
-83254.3
-83195.8
-83146.2
-83253.4
-83195.4
-83145.8
-83252.1
-83193.9
-83145.1
-83252.1
-83194.1
-83145.1
-83251.9
-83193.8
-83144.1
-83250.1
-83192
-83143.1
-83251.1
-83192.8
-83143.7
-83251.3
-83193
-83143.8
-83251.2
-83192.8
-83144
-83250.7
-83192.5
-83143.3
-83252.4
-83194
-83144.8
-83254.1
-83195.6
-83145.8
-83252
-83193.9
-83144.1
-83250.4
-83192.2
-83143
-83249.6
-83191.5
-83142.7
-83250.5
-83192.3
-83143.2
-83250.3
-83192.1
-83143.5
-83250.3
-83192.2
-83143.1
-83252.5
-83194.1
-83144.6
-83251.9
-83193.6
-83144.5
-83254
-83195.7
-83146
-83253.8
-83195.4
-83145.7
-83252.6
-83194.3
-83144.9
-83252.6
-83194.4
-83145.3
-83253.1
-83194.7
-83145.5
-83252.3
-83194.1
-83144.9
-83254.2
-83195.8
-83146.2
-83253.1
-83195.1
-83145.4
-83251.7
-83193.6
-83144.7
-83252.4
-83194.2
-83145.3
-83251.6
-83193.6
-83144.6
-83253.4
-83195.1
-83145.8
-83254.5
-83196.1
-83146.5
-83252.9
-83194.6
-83145.3
-83252.8
-83194.4
-83145.3
-83252
-83193.8
-83144.8
-83253.5
-83195.1
-83145.8
-83254.1
-83195.6
-83146.1
-83254.4
-83196
-83146.4
-83253.6
-83195.2
-83145.7
-83254.4
-83196.1
-83146.4
-83254.5
-83196.2
-83146.4
-83253.6
-83195.3
-83145.7
-83254
-83195.6
-83146
-83253.2
-83194.8
-83145.4
-83252.4
-83194.4
-83144.7
-83252.7
-83194.5
-83144.9
-83250.1
-83192
-83143.4
-83253.2
-83195.1
-83145.6
-83252.6
-83194.2
-83144.7
-83251.5
-83193.1
-83144.1
-83251.4
-83193.2
-83144.1
-83251.2
-83193
-83143.8
-83252.7
-83194.3
-83144.9
-83252.8
-83194.7
-83145
-83251.6
-83193.4
-83144.3
-83250.8
-83192.8
-83144
-83252.6
-83194.4
-83145.1
-83253.2
-83194.8
-83145.5
-83251.9
-83193.7
-83144.7
-83253.9
-83195.4
-83146
-83253.4
-83195
-83145.7
-83253.9
-83195.4
-83146.1
-83253.4
-83195.3
-83145.6
-83251.6
-83193.4