/*--------------------------------*- C++ -*----------------------------------*\
| =========                 |                                                 |
| \\      /  F ield         | OpenFOAM: The Open Source CFD Toolbox           |
|  \\    /   O peration     | Version:  v1912                                 |
|   \\  /    A nd           | Website:  www.openfoam.com                      |
|    \\/     M anipulation  |                                                 |
\*---------------------------------------------------------------------------*/
FoamFile
{
    version     2.0;
    format      ascii;
    class       volScalarField;
    location    "480/oil";
    object      heatTransferCoeff(T);
}
// * * * * * * * * * * * * * * * * * * * * * * * * * * * * * * * * * * * * * //

dimensions      [1 0 -3 -1 0 0 0];


internalField   uniform 0;

boundaryField
{
    maxY
    {
        type            calculated;
        value           uniform 0;
    }
    minX
    {
        type            calculated;
        value           uniform 0;
    }
    maxX
    {
        type            calculated;
        value           uniform 0;
    }
    minY
    {
        type            calculated;
        value           uniform 0;
    }
    minZ
    {
        type            calculated;
        value           uniform 0;
    }
    maxZ
    {
        type            calculated;
        value           uniform 0;
    }
    oil_to_sphere
    {
        type            calculated;
        value           nonuniform List<scalar> 
1536
(
-11.6489
-6.41645
-6.28293
3.21776
3.43238
-6.17694
-1.94299
-3.70674
-3.07993
2.37751
6.22787
1.65495
-2.9891
1.46683
7.43675
-1.38198
-6.18542
-6.53535
-1.1052
-2.71324
-4.92176
-3.16786
-3.52974
-1.32551
-1.83296
-1.57828
-1.82125
-0.68687
-5.85935
-3.32824
-7.42731
-6.45637
-6.63277
-1.44432
-1.74919
-0.73728
-1.22557
0.310805
-0.648743
-1.79695
-0.438745
-1.19593
-2.90036
-3.9638
-5.24599
-1.73162
-4.78656
-3.42753
7.02275
-1.54495
-4.43213
-3.15067
-3.32791
-1.32621
-5.69041
-9.26458
-3.475
-2.72397
-4.83325
-4.35644
-2.76549
-2.93489
-2.65932
-1.18593
-1.692
-2.53716
-2.70074
-4.5481
-4.51236
-5.67295
-1.16033
3.46891
1.77028
-1.59079
-1.57057
-9.61203
-6.70189
0.281602
-1.39352
-6.3493
-4.99205
-4.21225
3.16457
3.29868
-5.83363
-10.6303
4.52881
-2.2582
-4.35916
-4.33571
-3.06255
-0.91265
-0.822834
-1.0613
-1.56023
-3.92128
-4.86412
-5.22661
-7.0852
-4.21542
-5.02596
-1.08664
-11.7253
-4.47255
1.99917
-1.46728
-1.90068
2.85162
2.90667
-11.8517
-6.65016
-3.67342
-2.89615
-3.53649
3.91439
3.42045
4.94904
-8.30338
-11.1566
-6.93508
-3.30556
-3.53694
-0.589161
-4.80366
-7.37266
-3.93582
-3.27633
-0.245069
-5.1257
-4.82361
-2.55725
-4.61151
-5.62391
-1.96033
-2.28076
-5.94115
-3.56695
-6.38848
-0.341076
-6.23872
-3.13141
-4.76156
-4.81585
-2.97315
-2.3731
-2.85629
-4.02874
-8.03397
-2.25483
-11.9459
-5.46749
-6.17305
-3.47509
-3.761
-1.60423
-3.91855
-5.91593
-4.65996
-12.7897
-7.01133
-6.63718
-8.27232
1.05218
0.224235
-0.982571
-0.89995
-5.63369
-7.82598
-7.09614
-9.25623
-0.657252
-0.981132
0.237185
-4.87097
-3.24792
-3.74222
-10.1793
0.853381
2.10923
-10.6368
-0.79958
0.14232
0.348286
-0.146453
-4.28239
-10.6381
-7.04654
-0.413593
1.2566
-6.44779
0.922497
-5.54692
-5.56378
-7.88823
1.71544
8.58291
-7.68604
-8.41146
-1.79199
-1.54136
-3.16882
-2.00924
-6.52362
-7.62283
-5.33115
-4.22471
-1.00292
-8.03038
-7.1182
-3.63419
-0.243872
-1.6903
-1.47825
-2.0532
-4.95862
-9.42333
1.33101
1.55301
1.38994
9.30175
-6.15341
-4.90436
-4.17389
-3.11697
-3.33753
-8.03182
-5.5071
-1.5723
-6.17951
2.34343
-0.752373
8.35553
-2.96022
-5.80004
-7.71191
-7.16308
-6.18801
-5.09426
-6.92284
1.76557
1.01164
0.438203
-8.53756
0.0310247
8.47057
4.75084
-4.9521
-2.68813
-10.2458
-12.5667
-3.62334
3.31937
9.15292
-4.33865
-6.92765
-1.07536
-1.23514
4.14009
-0.882448
-8.02003
-10.8285
-2.64103
-1.2173
-9.00982
-7.06507
-1.64785
1.92071
-2.2531
-9.59174
-8.34906
-5.1061
-5.57857
-7.4939
0.358062
-1.44492
-7.76571
-5.5697
-6.26489
-2.89509
-6.18403
-9.27783
-5.2704
-4.84401
-8.72152
-1.10237
-1.04287
-1.48547
-0.656147
-0.955274
-7.95913
-9.76287
1.80778
-2.12977
-1.85023
-2.0426
-0.400752
-3.33595
-2.83483
0.146454
4.0772
-0.82252
1.59717
-0.376759
-10.648
-8.84519
-8.74281
-12.0464
0.679761
0.301322
-3.09714
-11.9714
-10.7378
-0.749749
-2.92889
-0.479182
-5.47004
-1.31692
-4.81189
-5.24621
-6.70801
-5.72761
-1.73623
-5.9036
-0.769911
-7.52162
-8.1949
-6.36672
-5.93643
-0.0100254
-9.89594
-9.63845
-5.3112
1.83272
-1.04493
-1.95922
-5.2656
-4.75214
-5.53759
0.160127
-7.43557
-7.48204
-6.76874
-8.71168
-4.59268
-3.93236
-2.70896
1.02728
-3.94928
-5.36028
1.06907
1.43978
0.514277
-11.3864
-7.31525
-8.70749
-4.7125
-3.83699
-7.81655
1.31301
-10.2557
-6.7113
-3.95468
-3.83855
1.65553
-6.63168
-7.19867
-0.198372
-3.96932
-2.59636
-1.23025
-5.47926
-7.34859
-2.89516
-1.60524
0.651342
-9.43625
-7.56082
1.4908
-7.86337
-7.12067
-6.15287
-9.42557
-3.88863
-5.75287
2.51721
1.66326
-5.22102
-11.8547
-6.38159
-10.185
-4.62788
-1.91588
-7.05573
0.558552
-0.440696
-4.75115
-7.2535
-5.5565
-4.77218
0.345895
0.292535
-7.78516
-7.40268
-7.57406
-3.75626
-0.891536
-4.90933
-5.94851
-7.1995
-4.06149
-2.25608
-0.00420948
-3.60731
0.814585
2.83777
-1.0315
-0.0623747
-3.69489
2.32923
-1.98234
-9.87173
-1.86266
-1.79862
-7.18925
-7.13368
-5.38669
-2.61515
1.11875
-6.32999
-8.78027
-5.12201
-4.11297
-6.54348
-2.94177
-3.50109
-4.61861
3.22072
-5.00373
-7.49654
-8.6521
-6.99293
-5.81234
-5.60623
-4.11456
-2.37333
0.549911
-3.2668
-0.0233976
1.63926
-0.500158
2.85806
-10.8068
-10.0893
-8.23445
-11.5113
0.785643
-10.8816
0.197285
-0.829355
-6.15674
1.17867
0.361249
-2.04552
-1.88584
-10.2681
-8.79589
-4.63748
-5.00076
-9.34242
-7.81596
-4.06128
-5.90532
-0.32929
-7.26835
1.83191
-8.59113
3.26669
-5.64544
-6.29581
-6.98474
-1.70556
0.584717
-2.51773
-7.15065
-2.76279
2.21002
-7.212
-7.63656
-8.19735
-12.2992
-3.95227
-9.19269
0.726069
0.0698186
6.80179
4.72685
-4.04876
-2.03698
-1.35504
-0.503394
-11.2535
0.411381
1.2855
2.00939
-1.99508
2.45022
-12.7156
-0.260912
-0.650245
-3.29189
6.09914
4.23101
-1.07067
-0.933136
-2.90952
-1.59021
-7.60217
-6.96663
-5.63158
-4.00746
2.70354
-1.32728
-6.75997
0.56028
-0.220985
-6.34416
-9.50251
-0.294603
6.87564
1.01997
6.25146
-3.1898
-1.72229
-0.667461
1.88121
6.1032
-5.48003
-6.22152
-4.79093
-3.08392
-9.62926
-5.65089
-5.29204
-3.84375
0.0279861
-1.51707
-7.57729
-5.63599
-2.19009
4.9217
-4.20364
-6.49905
-9.92993
-4.37944
-0.969296
-9.98911
-3.25334
-9.26475
-0.281663
-1.74989
0.398252
-1.86175
-4.30229
-9.52431
0.88946
-0.638866
0.0546603
-1.97899
-12.8899
1.91854
-1.44248
1.35914
-3.28349
-4.27602
-7.61892
-9.65162
2.79645
1.7999
-9.56289
-10.1727
3.71792
-9.20049
-7.88651
-6.36413
-7.69107
-5.27805
-3.6009
-3.89775
-9.38402
-4.02858
-5.38542
-3.58935
-7.22169
-4.39662
-3.19793
-2.83656
1.01844
-6.35562
-3.02063
-7.12911
-5.77911
-5.88495
-5.61415
-4.0661
1.67214
-7.72729
-7.68146
-5.44671
-3.14124
-4.50962
-11.6827
2.57212
-0.192249
0.815539
-4.12743
-0.299102
-11.7429
-1.87039
-2.40161
-3.39688
6.7007
5.82061
-1.23127
-1.12731
-3.89352
0.395208
-0.551301
-4.26396
-0.630289
-9.69969
1.13914
-11.4267
-1.70062
-3.98988
8.52945
6.02385
6.87248
-0.669291
-6.37641
-1.41079
-0.68495
6.17699
-3.69405
-6.61141
-3.79569
-14.1063
-0.285648
-7.58893
-5.25486
-6.57401
-8.03013
-7.80009
-6.50279
-3.29804
-2.24707
-3.24712
-6.56946
-2.61637
-4.86073
-4.2996
-4.75253
-7.01521
-5.64119
-6.32581
1.14282
-0.0507098
8.72748
4.07036
2.96958
11.78
-1.04682
-1.60227
-2.63032
-3.17778
2.84576
0.923851
-2.17393
-8.37765
-7.76234
-2.07441
2.08029
-2.96724
-6.85138
-5.34217
-3.45605
2.46148
-0.283092
-5.52294
-4.49337
-3.36006
-1.21424
-6.0091
-6.08273
-9.42463
-6.16612
-4.14982
-1.59779
-0.47018
1.10095
-0.859293
-2.6649
-12.0284
-4.05587
-10.6161
-0.205369
-12.4358
-1.06469
-2.81291
0.746195
0.241447
-1.64861
1.25099
-2.52105
2.36785
-1.29895
-7.47863
-1.97028
1.55036
-9.76575
-5.84537
-4.95754
-3.00572
-9.1647
-14.8599
3.98421
-5.70649
-4.60183
-5.36761
1.28334
-3.09859
-0.448142
-4.68581
-6.14941
-7.85784
0.0844912
-5.4876
-3.79709
-6.08347
-5.75761
-5.25907
-2.08218
-2.69916
-1.35316
2.15856
2.72365
0.468548
-8.99165
-1.31771
1.32371
-1.46597
-7.62534
-2.46486
-8.9352
-6.92987
-5.0941
-4.13658
-4.98254
-10.0546
0.456644
-5.62599
-7.88648
-8.45608
-4.03071
-0.410531
-2.32404
-4.99524
-8.60527
0.828077
-2.75994
-3.86543
-7.49811
-5.03532
-4.89984
-9.12739
0.728034
-0.627841
0.038376
-10.075
-7.79046
-3.93793
-7.44997
-0.690589
-1.28448
-7.43148
-4.84753
-9.46899
0.215529
-6.62702
-7.24651
-4.29665
-4.72579
-6.32516
0.14091
3.01087
-3.54677
-4.8842
-10.2049
-2.89217
-0.948381
-3.24563
-5.05522
-6.53931
-4.14954
-0.519201
-2.93684
-7.21457
0.793792
-0.5546
-2.95043
-1.22632
-4.57896
-4.1142
-8.3445
-5.32928
-6.97316
-1.43362
-3.2807
-4.56992
-3.11652
-2.32187
-1.58453
-1.52258
0.619323
-5.94054
-4.4366
-4.45092
-5.11517
1.80095
-1.88424
-9.87413
-10.0063
-0.533518
-7.56228
-5.03107
-5.91536
-1.43451
-8.51413
-8.16966
0.31924
-2.46085
-1.80256
-1.58132
2.00457
0.898679
-1.80467
-8.03389
-11.6535
-0.969191
-6.27757
-5.91914
-4.93005
-2.62499
-4.60757
-8.30264
-4.37245
0.163087
-1.92211
-1.4639
-1.66649
-5.36971
-5.85172
-5.96479
-6.22869
-6.17569
-0.552377
-6.5017
-2.04602
-5.64533
6.10838
-5.133
-8.85108
-2.30113
3.99154
-3.40979
-2.68628
-10.6253
-0.0476191
-6.5084
-3.19679
3.09305
-9.66662
1.56998
-2.76959
-3.62517
1.86486
-7.56439
-4.67052
-2.61528
-3.87979
-4.6331
-2.77062
-10.9279
1.44906
-1.70389
7.48931
-2.00832
-2.34105
-3.79712
-7.51864
-15.1813
2.32993
-1.74853
-13.4808
1.5354
-6.1097
-0.408838
-5.90281
4.44409
-0.0591762
-13.3051
3.43199
-12.0943
2.57814
-10.3464
3.04554
0.0160278
6.95927
1.45772
-12.5723
5.54985
-3.08517
3.46153
-9.10644
-12.6433
5.27376
-2.30186
-1.09425
0.146069
0.3098
-1.84536
-3.68193
-3.65549
-5.77102
-3.25587
-9.28475
-13.91
5.39283
-3.58228
-5.14135
-3.67864
-4.28992
-2.98663
-2.29952
-2.96785
-6.81119
-3.08669
-6.92036
-1.62956
-4.41769
-8.84918
-2.26743
-5.57703
-7.65936
-1.61171
-4.41741
-3.21103
-5.70438
-2.7939
-3.9903
-2.39963
-7.40083
-1.95424
-4.90903
2.646
-9.49893
5.0232
-4.82121
-7.16879
-9.75808
-0.170639
-4.19362
-3.27503
-4.19896
-3.77266
-3.07307
-6.72694
0.435235
8.74634
-2.2358
3.92987
-7.81124
-0.263246
-3.53615
-5.94995
8.08259
-8.47592
0.67401
6.41263
0.125937
-6.15057
-5.82535
-3.74068
5.44664
-3.64356
-4.39835
-0.91915
-0.301717
-7.97234
-7.25583
-1.33298
-3.88226
-8.00302
5.32812
-6.68317
-0.189326
-5.58544
4.84186
-11.5876
-11.229
-7.25483
-3.63399
-2.29338
-5.95923
-2.0856
5.52222
0.813654
-6.31494
-0.424705
-5.18632
4.02694
-7.67665
-5.5447
10.6012
-3.67283
-4.67793
7.73783
-8.63886
2.77308
-7.89727
-9.572
-6.61401
6.22351
-3.95512
-2.5083
-3.73457
-4.06314
-5.24189
5.24104
-1.51535
-0.558335
-0.581399
-7.52526
-3.45326
-4.71345
-5.84011
-5.57499
-2.43614
-4.13225
-2.68594
-4.86915
-8.11885
-1.3265
-2.21518
-1.05835
-3.99295
-7.11496
-1.26082
-2.08971
-1.68271
-3.5254
-0.523667
-0.896267
-2.04547
-2.39927
-4.04388
-1.8776
-9.46974
-6.72184
3.60549
3.49846
-8.66484
11.7458
-6.43681
-4.36171
-0.498338
-2.40863
-8.84706
8.10415
-7.8169
-4.72479
5.83798
-1.73972
-0.889558
-3.47025
8.59192
-8.67082
-4.85108
7.92613
-8.2887
-8.34591
4.59714
-9.80798
-7.23295
4.46998
-1.01832
-0.538882
7.99388
-3.65018
-4.1814
0.77369
-0.192978
0.262037
10.2891
-0.0872543
8.49566
10.9147
-7.44676
-1.05797
-12.5912
-1.29416
5.29934
-8.76679
-2.66214
7.01087
-1.30866
-1.06998
7.1237
3.48245
-8.33874
13.2708
0.776004
1.72016
11.799
-7.79443
-6.89847
-3.61357
-1.9911
-0.976918
0.731598
9.3206
-3.76651
-2.0793
-2.28761
-3.62881
6.3916
-6.16835
-1.34522
-3.07044
-0.914334
-2.90906
-4.0149
1.03717
5.96847
-1.82461
-4.15759
-1.24864
-1.97171
-3.21169
-0.173301
-2.18353
6.62713
-1.32448
-4.65975
-0.987603
-2.44638
-0.313017
5.8166
-8.80706
-8.61531
-8.24594
-9.78275
4.64865
7.66555
-1.40559
-6.39284
-4.16011
-6.05817
-6.79715
0.759406
1.76355
7.54066
5.30572
-0.152719
-3.13701
-2.8381
-2.62498
1.75277
-7.52275
-4.77456
4.36979
0.0294441
0.961609
-6.69895
-0.273506
9.37676
-3.05023
-3.41015
-7.76905
6.79515
-0.956453
-4.02453
-1.61859
-2.42849
-5.87977
-3.01762
0.626136
-10.3051
11.0069
2.59511
-2.50298
-0.21632
-1.8614
-9.72648
-4.93624
-3.43779
2.35388
-8.89936
-1.50755
-3.99985
-6.78674
-7.76718
-7.38677
-7.73439
-9.36603
-10.4398
-9.18361
-9.2007
-3.46237
-7.01217
-1.31315
-2.40569
1.91076
3.12878
10.1431
-9.92717
-9.61772
-8.22408
-2.19595
-4.04294
-3.72519
-0.372633
-4.29754
-6.94241
0.472772
-2.6756
-5.65319
-0.986265
-1.42046
-1.18413
-2.12993
-0.144864
-1.98086
-1.57942
4.81279
-3.98121
0.400567
-2.6401
7.11564
-9.86949
-2.85158
-0.69633
0.0362007
4.26863
-3.37342
-0.826807
7.91898
2.52567
-2.74004
3.31757
2.10658
-10.6635
-11.1859
-1.62095
-1.66742
-6.27571
-9.65682
8.03865
-0.263983
-0.136163
-1.89163
-1.85438
-2.25657
-2.96773
1.86335
5.65128
-8.61879
-1.74003
2.82113
1.95439
-1.62508
-3.52353
4.18438
-2.3111
-0.334958
-1.31165
-9.74365
2.67948
5.48733
-1.8384
-0.95414
-0.120694
5.5288
-7.79293
-1.54201
-1.35073
-1.58383
7.85247
-1.59909
-1.84234
5.3011
-1.47638
2.55042
-4.80408
-8.50683
-0.345754
-7.0164
-4.59993
-0.530413
-0.707574
-1.99965
5.52015
-4.47354
-5.13511
-1.12687
6.81073
1.08075
-2.50678
-2.84833
-0.431272
6.02949
-0.622066
-7.78592
-4.59352
-0.717798
-10.5186
2.63934
-6.69888
7.65917
2.90853
-7.09681
7.85573
-7.45294
-0.621079
-3.50148
-1.32692
-11.0201
1.53996
-3.62199
-9.7705
-8.84845
3.69899
-8.52623
-9.75282
11.4858
-2.28261
-0.918169
7.37223
-5.05752
-0.812144
-1.36492
-1.38179
-3.04153
-2.30078
-1.13662
-0.717942
7.67441
-5.0606
-3.4793
-3.21815
-3.97958
-2.19594
-0.510636
1.01443
-6.12251
9.10799
-0.0119592
0.294812
8.69104
-7.20871
-10.2263
-2.69342
-8.20887
-8.85945
-0.321949
-0.383375
-5.01346
-8.15712
-0.136325
-5.60425
1.98259
7.36676
-6.27435
0.411757
-7.77241
-10.4703
-9.59842
6.79793
-6.81991
-3.60886
0.663735
-1.08539
-1.8711
-0.857658
6.60361
-8.05714
6.27222
-7.88088
-2.12327
1.98235
2.92998
-2.16211
-5.80739
-9.20825
-3.32192
-12.0156
-6.40315
-7.50942
8.10197
-6.96231
-6.0294
-7.78863
-0.286204
0.538707
9.18376
-2.77888
-11.6177
-8.24025
5.76139
1.63915
6.40587
-0.280793
-2.98545
2.10204
-14.3455
-1.38417
1.60387
5.51504
-4.52557
0.43702
8.44805
-2.39133
-0.749629
-0.91802
-1.08076
-1.15433
5.42136
1.99015
7.30668
-0.78837
-6.33916
-4.84266
-8.51471
-7.76783
-0.0225587
0.989475
7.73656
-0.590412
-5.80066
-9.03243
-6.38228
-6.72176
2.78403
8.80553
1.45299
9.53128
-6.23525
-6.61594
0.983081
-7.38065
-6.1094
-8.55617
-4.22206
-3.51549
-3.37225
-0.0222539
7.90933
1.25788
6.8621
2.32438
-1.08724
-0.42601
4.78225
6.86802
-5.53245
-11.6729
-10.5126
-9.60054
-3.24466
-5.37375
-5.17846
-2.75738
-1.05508
-2.77004
0.67812
-2.09558
-2.14141
6.80915
-6.069
-1.7187
1.61211
4.96497
-0.656832
-3.13164
-3.07592
-0.444243
4.91598
-9.27657
-4.4705
-0.871428
-10.402
0.491501
7.23463
-4.81585
-2.11204
-2.17481
-2.17923
-0.583049
9.16026
-2.09513
-2.03648
6.19413
-8.91294
-1.53706
13.2473
-1.06575
-2.91758
-3.25841
-0.553992
6.62835
0.175648
-0.0854393
3.1261
-2.41175
7.67735
-2.64151
-2.34421
3.55759
-10.2343
-2.00803
5.30981
-11.2844
-2.80518
-2.79933
5.04803
-2.34643
6.31303
)
;
    }
}


// ************************************************************************* //
