/*--------------------------------*- C++ -*----------------------------------*\
| =========                 |                                                 |
| \\      /  F ield         | OpenFOAM: The Open Source CFD Toolbox           |
|  \\    /   O peration     | Version:  v1906                                 |
|   \\  /    A nd           | Web:      www.OpenFOAM.com                      |
|    \\/     M anipulation  |                                                 |
\*---------------------------------------------------------------------------*/
FoamFile
{
    version     2.0;
    format      ascii;
    class       surfaceScalarField;
    location    "49";
    object      phi;
}
// * * * * * * * * * * * * * * * * * * * * * * * * * * * * * * * * * * * * * //

dimensions      [1 0 -1 0 0 0 0];
oriented        oriented;


internalField   nonuniform List<scalar> 
228225
(
0.000196773
7.23504e-05
2.06154e-05
0.000166797
2.60097e-05
1.03917e-05
0.000168061
2.6128e-05
4.59903e-06
0.000177085
3.49995e-05
6.19857e-06
0.000177948
3.30855e-05
2.5241e-06
0.000167396
2.28775e-05
-3.75137e-06
0.000162503
1.94116e-05
-6.02474e-06
0.000158795
2.25018e-05
-2.21436e-06
0.00014551
3.00888e-05
1.66043e-05
0.000153512
3.97746e-05
2.66731e-05
0.000177381
3.72645e-05
2.16847e-05
0.000158165
2.5569e-05
1.54039e-05
0.000118903
1.81217e-05
1.38815e-05
8.10668e-05
1.4555e-05
1.38056e-05
4.98103e-05
1.14191e-05
1.38133e-05
2.47779e-05
7.75552e-06
1.3845e-05
5.17173e-06
3.85262e-06
1.39456e-05
-9.40198e-06
-2.09399e-07
1.41031e-05
-2.05712e-05
-3.12463e-06
1.43024e-05
-2.84966e-05
-6.13194e-06
1.45368e-05
-3.34377e-05
-9.03372e-06
1.47961e-05
-3.56561e-05
-1.17706e-05
1.50678e-05
-3.54265e-05
-1.42971e-05
1.53404e-05
-3.30408e-05
-1.65788e-05
1.56061e-05
-2.88058e-05
-1.85899e-05
1.58608e-05
-2.30461e-05
-2.03048e-05
1.61025e-05
-1.61178e-05
-2.16854e-05
1.63287e-05
-8.43255e-06
-2.26729e-05
1.65368e-05
-4.86119e-07
-2.31828e-05
1.67236e-05
7.10716e-06
-2.31027e-05
1.68866e-05
1.35769e-05
-2.229e-05
1.70243e-05
1.79446e-05
-2.05608e-05
1.71355e-05
1.88626e-05
-1.75665e-05
1.72011e-05
1.39342e-05
-1.20235e-05
1.69768e-05
6.48242e-07
1.36737e-05
1.22188e-05
7.1756e-05
1.32403e-05
3.41287e-05
3.47261e-05
5.86698e-06
5.80739e-05
3.06767e-05
3.28107e-06
8.77783e-05
3.08014e-05
2.77032e-06
0.000106674
3.199e-05
2.50686e-06
0.00010749
3.27629e-05
3.30375e-06
0.000101467
3.36638e-05
5.27276e-06
9.45604e-05
3.48706e-05
8.43438e-06
9.51868e-05
3.55197e-05
1.15021e-05
0.000107001
3.46943e-05
1.14188e-05
0.000109419
2.93076e-05
9.17621e-06
0.000100436
2.20766e-05
7.92438e-06
9.01255e-05
1.56883e-05
7.47669e-06
8.2791e-05
1.03374e-05
7.31346e-06
7.8021e-05
5.6523e-06
7.28027e-06
7.44282e-05
1.50344e-06
7.34662e-06
7.16658e-05
-2.77352e-06
7.50154e-06
6.92148e-05
-6.8635e-06
7.73619e-06
6.74415e-05
-1.04077e-05
8.04728e-06
6.56866e-05
-1.35361e-05
8.42986e-06
6.36227e-05
-1.63058e-05
8.87044e-06
6.10726e-05
-1.87591e-05
9.34319e-06
5.79598e-05
-2.09303e-05
9.81687e-06
5.4269e-05
-2.2844e-05
1.02678e-05
5.00232e-05
-2.45137e-05
1.0685e-05
4.52719e-05
-2.59392e-05
1.10664e-05
4.00877e-05
-2.71034e-05
1.14133e-05
3.45661e-05
-2.79708e-05
1.17292e-05
2.8824e-05
-2.8484e-05
1.20207e-05
2.29945e-05
-2.85575e-05
1.22984e-05
1.72119e-05
-2.80695e-05
1.2578e-05
1.16076e-05
-2.68627e-05
1.28815e-05
6.38786e-06
-2.46964e-05
1.32254e-05
2.08814e-06
-2.03897e-05
1.33849e-05
-7.44617e-06
1.09934e-05
2.86758e-05
5.95305e-05
1.76716e-05
3.73196e-05
3.0058e-05
1.0351e-05
3.93297e-05
2.68826e-05
8.40371e-06
4.00839e-05
2.67857e-05
7.79351e-06
4.14298e-05
2.65796e-05
7.61472e-06
4.36161e-05
2.58161e-05
7.71629e-06
4.7403e-05
2.45057e-05
7.98639e-06
5.35861e-05
2.25869e-05
8.31025e-06
6.2653e-05
1.98212e-05
8.47035e-06
7.39689e-05
1.5823e-05
8.27553e-06
8.39093e-05
1.07155e-05
7.97377e-06
9.18159e-05
5.36838e-06
7.77826e-06
9.89137e-05
1.04225e-07
7.66234e-06
0.000105165
-4.04772e-06
7.59107e-06
0.000110925
-7.98252e-06
7.55595e-06
0.000116307
-1.16051e-05
7.55471e-06
0.000120709
-1.48393e-05
7.58126e-06
0.00012381
-1.763e-05
7.622e-06
0.000125655
-1.99565e-05
7.66191e-06
0.000126203
-2.18378e-05
7.68936e-06
0.000125423
-2.33189e-05
7.70084e-06
0.000123316
-2.44576e-05
7.70163e-06
0.000119894
-2.53063e-05
7.70008e-06
0.000115168
-2.58999e-05
7.70214e-06
0.000109145
-2.62565e-05
7.71029e-06
0.000101837
-2.63846e-05
7.72491e-06
9.32796e-05
-2.6289e-05
7.74625e-06
8.35397e-05
-2.59698e-05
7.77608e-06
7.27211e-05
-2.54142e-05
7.81886e-06
6.09624e-05
-2.45864e-05
7.88282e-06
4.84392e-05
-2.34181e-05
7.98146e-06
3.53593e-05
-2.18023e-05
8.1356e-06
2.1922e-05
-1.95033e-05
8.36803e-06
8.66615e-06
-1.55696e-05
8.59786e-06
-5.89897e-06
7.60446e-06
3.29878e-05
2.76396e-05
7.14844e-06
3.29337e-05
2.53434e-05
6.6256e-06
2.93881e-05
2.43394e-05
6.80119e-06
2.69351e-05
2.26905e-05
7.0614e-06
2.6446e-05
2.02322e-05
7.33109e-06
2.80706e-05
1.7094e-05
7.59629e-06
3.18478e-05
1.34018e-05
7.82876e-06
3.76438e-05
9.27869e-06
7.99901e-06
4.49751e-05
4.85279e-06
8.09027e-06
5.28544e-05
2.18721e-07
8.10743e-06
6.05496e-05
-4.74503e-06
8.07512e-06
6.75119e-05
-9.3564e-06
8.0088e-06
7.3408e-05
-1.35536e-05
7.913e-06
7.88262e-05
-1.72234e-05
7.79042e-06
8.34209e-05
-2.03162e-05
7.64298e-06
8.69379e-05
-2.28129e-05
7.47189e-06
8.92333e-05
-2.47295e-05
7.2806e-06
9.02753e-05
-2.61144e-05
7.07565e-06
9.01167e-05
-2.7036e-05
6.86565e-06
8.88546e-05
-2.75709e-05
6.65933e-06
8.65999e-05
-2.77941e-05
6.46374e-06
8.34528e-05
-2.77673e-05
6.28349e-06
7.94935e-05
-2.75354e-05
6.12065e-06
7.47909e-05
-2.71331e-05
5.9764e-06
6.94123e-05
-2.65867e-05
5.85147e-06
6.343e-05
-2.5912e-05
5.74678e-06
5.69215e-05
-2.51152e-05
5.6642e-06
4.99593e-05
-2.41937e-05
5.60639e-06
4.2608e-05
-2.31372e-05
5.57601e-06
3.49362e-05
-2.1923e-05
5.57616e-06
2.70319e-05
-2.05077e-05
5.61133e-06
1.90221e-05
-1.88347e-05
5.6912e-06
1.11447e-05
-1.67874e-05
5.83149e-06
4.02516e-06
-1.37327e-05
5.98791e-06
-6.23317e-06
5.24077e-06
1.56143e-06
2.20058e-05
4.55133e-06
5.20951e-06
1.6226e-05
5.64884e-06
1.3061e-05
1.09376e-05
5.72451e-06
2.31906e-05
6.5558e-06
6.20246e-06
3.43935e-05
2.50231e-06
6.73453e-06
4.58958e-05
-1.36998e-06
7.18381e-06
5.71455e-05
-5.11694e-06
7.50839e-06
6.77972e-05
-8.83388e-06
7.70673e-06
7.75028e-05
-1.24044e-05
7.78452e-06
8.59271e-05
-1.57619e-05
7.75061e-06
9.25299e-05
-1.88421e-05
7.61704e-06
9.7376e-05
-2.15736e-05
7.39999e-06
0.000100538
-2.39049e-05
7.11606e-06
0.000102163
-2.58016e-05
6.78189e-06
0.000102434
-2.72519e-05
6.41302e-06
0.000101553
-2.82685e-05
6.02387e-06
9.97247e-05
-2.8885e-05
5.62751e-06
9.7136e-05
-2.914e-05
5.23403e-06
9.3933e-05
-2.90699e-05
4.85121e-06
9.02215e-05
-2.87168e-05
4.48628e-06
8.60637e-05
-2.81274e-05
4.14714e-06
8.14784e-05
-2.73462e-05
3.84233e-06
7.64862e-05
-2.64127e-05
3.57819e-06
7.11254e-05
-2.53644e-05
3.35786e-06
6.543e-05
-2.42337e-05
3.18309e-06
5.94323e-05
-2.30433e-05
3.05605e-06
5.31626e-05
-2.18043e-05
2.97632e-06
4.6645e-05
-2.05167e-05
2.94196e-06
3.98994e-05
-1.91738e-05
2.95118e-06
3.29712e-05
-1.77653e-05
3.0046e-06
2.59408e-05
-1.62847e-05
3.10633e-06
1.8876e-05
-1.469e-05
3.26807e-06
1.18193e-05
-1.28638e-05
3.52523e-06
4.92064e-06
-1.03343e-05
3.95678e-06
-4.67361e-06
4.00767e-06
-9.0533e-06
2.36895e-05
6.57128e-06
-6.60726e-06
7.35597e-06
6.11622e-06
5.41287e-06
-5.17998e-06
4.12483e-06
2.05022e-05
-1.2053e-05
3.53318e-06
3.4932e-05
-1.60985e-05
4.09883e-06
4.76901e-05
-1.89288e-05
4.65071e-06
5.84622e-05
-2.11189e-05
5.02115e-06
6.70041e-05
-2.28925e-05
5.26755e-06
7.32647e-05
-2.43703e-05
5.43647e-06
7.7324e-05
-2.56289e-05
5.54091e-06
7.93737e-05
-2.67151e-05
5.57836e-06
7.96983e-05
-2.76527e-05
5.54485e-06
7.86277e-05
-2.8446e-05
5.44064e-06
7.65043e-05
-2.90878e-05
5.27156e-06
7.36551e-05
-2.95677e-05
5.04776e-06
7.03645e-05
-2.98694e-05
4.78141e-06
6.68457e-05
-2.99792e-05
4.48654e-06
6.32507e-05
-2.98865e-05
4.17704e-06
5.9695e-05
-2.95813e-05
3.86367e-06
5.62461e-05
-2.90614e-05
3.55496e-06
5.29278e-05
-2.83334e-05
3.25835e-06
4.97296e-05
-2.74101e-05
2.98007e-06
4.66152e-05
-2.63081e-05
2.72507e-06
4.35268e-05
-2.50462e-05
2.49621e-06
4.03915e-05
-2.36426e-05
2.29382e-06
3.7131e-05
-2.21133e-05
2.11538e-06
3.3671e-05
-2.04715e-05
1.95625e-06
2.99506e-05
-1.87276e-05
1.80913e-06
2.59306e-05
-1.68923e-05
1.66351e-06
2.16026e-05
-1.49861e-05
1.50561e-06
1.70271e-05
-1.30463e-05
1.3181e-06
1.23376e-05
-1.10514e-05
1.07386e-06
7.73741e-06
-8.88554e-06
7.20866e-07
3.56229e-06
-6.12926e-06
2.02556e-07
-9.57027e-07
3.99803e-07
1.3884e-05
3.37466e-06
6.23794e-06
2.79808e-05
-1.12633e-05
4.81965e-06
4.11946e-05
-1.95245e-05
1.75043e-06
5.30465e-05
-2.31687e-05
8.76564e-08
6.1447e-05
-2.47567e-05
1.1689e-06
6.63413e-05
-2.56244e-05
2.7353e-06
6.85271e-05
-2.62125e-05
3.82509e-06
6.88874e-05
-2.66722e-05
4.30813e-06
6.79451e-05
-2.70869e-05
4.51797e-06
6.60324e-05
-2.74996e-05
4.61136e-06
6.34113e-05
-2.79265e-05
4.62418e-06
6.03013e-05
-2.8367e-05
4.57225e-06
5.68982e-05
-2.88084e-05
4.46198e-06
5.33773e-05
-2.92303e-05
4.29814e-06
4.98912e-05
-2.96107e-05
4.08669e-06
4.65775e-05
-2.99212e-05
3.83589e-06
4.35501e-05
-3.01262e-05
3.55635e-06
4.0887e-05
-3.01896e-05
3.26147e-06
3.86297e-05
-3.00776e-05
2.96574e-06
3.67813e-05
-2.97612e-05
2.68362e-06
3.53043e-05
-2.92188e-05
2.42946e-06
3.41252e-05
-2.84388e-05
2.21705e-06
3.31411e-05
-2.74199e-05
2.05894e-06
3.22294e-05
-2.61707e-05
1.9656e-06
3.12584e-05
-2.47078e-05
1.94461e-06
3.00974e-05
-2.30532e-05
1.9998e-06
2.86272e-05
-2.12334e-05
2.1309e-06
2.67508e-05
-1.92809e-05
2.3335e-06
2.43859e-05
-1.72197e-05
2.59977e-06
2.14409e-05
-1.50672e-05
2.91998e-06
1.78488e-05
-1.28603e-05
3.2871e-06
1.36151e-05
-1.06144e-05
3.70142e-06
8.78976e-06
-8.24425e-06
4.16392e-06
3.56971e-06
-5.31723e-06
4.54797e-06
-2.42192e-07
3.42372e-06
2.00412e-05
-1.64667e-05
8.51463e-07
3.34858e-05
-2.38974e-05
3.84007e-07
3.98136e-05
-2.58843e-05
1.23935e-06
4.3084e-05
-2.64341e-05
1.23768e-06
4.54666e-05
-2.65213e-05
6.77363e-07
4.73421e-05
-2.64559e-05
3.10904e-07
4.85308e-05
-2.63675e-05
3.74719e-07
4.89065e-05
-2.63128e-05
7.09665e-07
4.84624e-05
-2.6317e-05
1.13444e-06
4.72426e-05
-2.63902e-05
1.56464e-06
4.53278e-05
-2.65386e-05
1.95527e-06
4.28286e-05
-2.67623e-05
2.27951e-06
3.98828e-05
-2.7057e-05
2.52047e-06
3.6648e-05
-2.74107e-05
2.66909e-06
3.32895e-05
-2.78041e-05
2.72317e-06
2.99697e-05
-2.82081e-05
2.68724e-06
2.68396e-05
-2.85841e-05
2.57092e-06
2.40265e-05
-2.88842e-05
2.38784e-06
2.16237e-05
-2.9055e-05
2.15458e-06
1.96835e-05
-2.90424e-05
1.88947e-06
1.82145e-05
-2.87981e-05
1.61172e-06
1.7183e-05
-2.82849e-05
1.34065e-06
1.65188e-05
-2.74816e-05
1.09464e-06
1.61248e-05
-2.63845e-05
8.90142e-07
1.58875e-05
-2.50073e-05
7.40679e-07
1.56893e-05
-2.33784e-05
6.55964e-07
1.54176e-05
-2.15403e-05
6.42599e-07
1.49692e-05
-1.95449e-05
7.00749e-07
1.42506e-05
-1.74024e-05
8.28964e-07
1.31522e-05
-1.50939e-05
1.02436e-06
1.15587e-05
-1.26578e-05
1.28103e-06
9.41105e-06
-1.01618e-05
1.60036e-06
6.69783e-06
-7.58735e-06
2.01482e-06
3.39626e-06
-4.54777e-06
2.61366e-06
7.64168e-07
2.8077e-06
6.53415e-06
-2.14544e-05
-9.50201e-07
1.17874e-05
-2.61611e-05
-2.13924e-06
1.71402e-05
-2.72633e-05
-3.00999e-06
2.25103e-05
-2.7537e-05
-3.24706e-06
2.76601e-05
-2.74383e-05
-3.18878e-06
3.23712e-05
-2.71253e-05
-2.99275e-06
3.64381e-05
-2.67096e-05
-2.67869e-06
3.96898e-05
-2.628e-05
-2.2424e-06
4.20141e-05
-2.58965e-05
-1.70328e-06
4.33612e-05
-2.5593e-05
-1.1004e-06
4.37386e-05
-2.53842e-05
-4.83924e-07
4.31963e-05
-2.52735e-05
1.06562e-07
4.17451e-05
-2.52613e-05
7.15829e-07
3.95389e-05
-2.53402e-05
1.20214e-06
3.67338e-05
-2.54991e-05
1.56959e-06
3.35028e-05
-2.57201e-05
1.81017e-06
3.00291e-05
-2.59763e-05
1.92338e-06
2.64943e-05
-2.62283e-05
1.91749e-06
2.30657e-05
-2.64255e-05
1.80852e-06
1.98832e-05
-2.65093e-05
1.61835e-06
1.70483e-05
-2.64184e-05
1.37226e-06
1.4618e-05
-2.60965e-05
1.09626e-06
1.26046e-05
-2.55009e-05
8.14579e-07
1.09823e-05
-2.46079e-05
5.4712e-07
9.69958e-06
-2.34164e-05
3.07108e-07
8.69749e-06
-2.19468e-05
9.60336e-08
7.88778e-06
-2.02411e-05
-5.67409e-08
7.17145e-06
-1.83525e-05
-1.41303e-07
6.50583e-06
-1.63084e-05
-1.90984e-07
5.8385e-06
-1.4074e-05
-1.99596e-07
5.08015e-06
-1.16274e-05
-1.7915e-07
4.15127e-06
-9.02729e-06
-1.42477e-07
3.01207e-06
-6.28856e-06
-8.01817e-08
1.56269e-06
-3.11331e-06
1.85844e-07
1.70834e-06
1.06151e-06
3.53889e-06
-2.41982e-05
-4.34151e-07
6.36138e-06
-2.7861e-05
-6.44101e-07
9.08455e-06
-2.83228e-05
-1.13902e-06
1.19372e-05
-2.81409e-05
-1.69795e-06
1.4969e-05
-2.76533e-05
-2.24828e-06
1.81662e-05
-2.69924e-05
-2.75093e-06
2.14401e-05
-2.62508e-05
-3.15036e-06
2.46109e-05
-2.55059e-05
-3.36493e-06
2.74278e-05
-2.48121e-05
-3.32538e-06
2.96448e-05
-2.41944e-05
-3.04484e-06
3.10877e-05
-2.36676e-05
-2.59461e-06
3.16637e-05
-2.32437e-05
-2.04545e-06
3.13428e-05
-2.29294e-05
-1.45211e-06
3.01535e-05
-2.27274e-05
-8.61404e-07
2.81811e-05
-2.26357e-05
-3.20767e-07
2.55408e-05
-2.2646e-05
1.48933e-07
2.23592e-05
-2.27419e-05
5.47176e-07
1.88404e-05
-2.28932e-05
8.04145e-07
1.51915e-05
-2.3058e-05
9.2333e-07
1.16153e-05
-2.31811e-05
9.1029e-07
8.29217e-06
-2.31972e-05
7.80358e-07
5.36489e-06
-2.30379e-05
5.56368e-07
2.92813e-06
-2.26413e-05
2.64829e-07
1.0251e-06
-2.19625e-05
-6.54953e-08
-4.23351e-07
-2.09818e-05
-3.33705e-07
-1.45962e-06
-1.97045e-05
-5.91124e-07
-2.16358e-06
-1.81624e-05
-8.09311e-07
-2.62246e-06
-1.64092e-05
-9.7886e-07
-2.87831e-06
-1.4516e-05
-1.10094e-06
-2.93685e-06
-1.24832e-05
-1.17415e-06
-2.84095e-06
-1.0236e-05
-1.20419e-06
-2.63074e-06
-7.78067e-06
-1.22576e-06
-2.21259e-06
-5.17983e-06
-1.29703e-06
-1.29176e-06
-2.27263e-06
-1.44889e-06
1.86308e-06
-9.19602e-07
1.50243e-06
-2.26605e-05
-2.43114e-06
4.53265e-06
-2.59691e-05
-4.23089e-06
7.82629e-06
-2.63357e-05
-4.56757e-06
1.11003e-05
-2.60843e-05
-4.60161e-06
1.42702e-05
-2.55461e-05
-4.53292e-06
1.72866e-05
-2.4843e-05
-4.40874e-06
2.00986e-05
-2.40494e-05
-4.24805e-06
2.26418e-05
-2.32234e-05
-4.05859e-06
2.48429e-05
-2.24121e-05
-3.83854e-06
2.66222e-05
-2.16463e-05
-3.57626e-06
2.78906e-05
-2.09447e-05
-3.25855e-06
2.85576e-05
-2.03241e-05
-2.87807e-06
2.85431e-05
-1.98004e-05
-2.43427e-06
2.77845e-05
-1.93841e-05
-1.93463e-06
2.62443e-05
-1.90799e-05
-1.39529e-06
2.39185e-05
-1.8886e-05
-8.41027e-07
2.08484e-05
-1.87941e-05
-3.06318e-07
1.71205e-05
-1.8788e-05
1.78345e-07
1.28608e-05
-1.88416e-05
5.92244e-07
8.27045e-06
-1.89162e-05
8.76539e-07
3.58897e-06
-1.89611e-05
1.00712e-06
-9.21161e-07
-1.89159e-05
9.66522e-07
-5.00151e-06
-1.87161e-05
7.52147e-07
-8.42638e-06
-1.83024e-05
3.76969e-07
-1.10288e-05
-1.76319e-05
-1.29234e-07
-1.27755e-05
-1.66854e-05
-6.61333e-07
-1.36413e-05
-1.5469e-05
-1.23864e-06
-1.36736e-05
-1.40176e-05
-1.80729e-06
-1.29671e-05
-1.23918e-05
-2.32833e-06
-1.16146e-05
-1.06295e-05
-2.76517e-06
-9.71153e-06
-8.687e-06
-3.07827e-06
-7.41091e-06
-6.5414e-06
-3.22168e-06
-4.89292e-06
-4.28393e-06
-3.11177e-06
-2.35514e-06
-1.86936e-06
-2.5728e-06
1.32761e-06
-1.26206e-06
-2.77438e-07
-2.00655e-05
-2.25919e-06
-8.04118e-07
-2.24457e-05
-2.91824e-06
-5.94305e-07
-2.26924e-05
-3.75738e-06
4.19803e-07
-2.25122e-05
-4.47379e-06
2.17084e-06
-2.20807e-05
-5.08119e-06
4.52217e-06
-2.14703e-05
-5.55857e-06
7.29043e-06
-2.07386e-05
-5.87637e-06
1.02551e-05
-1.9932e-05
-6.01008e-06
1.31829e-05
-1.90919e-05
-5.95586e-06
1.58693e-05
-1.82577e-05
-5.73467e-06
1.81499e-05
-1.74572e-05
-5.37827e-06
1.98883e-05
-1.67095e-05
-4.91756e-06
2.09747e-05
-1.60317e-05
-4.38171e-06
2.13284e-05
-1.5437e-05
-3.79746e-06
2.08964e-05
-1.49346e-05
-3.18839e-06
1.96521e-05
-1.45285e-05
-2.57495e-06
1.75961e-05
-1.42174e-05
-1.97589e-06
1.47593e-05
-1.39947e-05
-1.41018e-06
1.12106e-05
-1.38481e-05
-8.99203e-07
7.06826e-06
-1.37584e-05
-4.69042e-07
2.51112e-06
-1.36982e-05
-1.52615e-07
-2.22629e-06
-1.36314e-05
2.1251e-08
-6.87943e-06
-1.35135e-05
4.40792e-08
-1.11481e-05
-1.32939e-05
-1.13089e-07
-1.47686e-05
-1.29238e-05
-4.23517e-07
-1.75126e-05
-1.23608e-05
-8.82781e-07
-1.92271e-05
-1.15786e-05
-1.45504e-06
-1.98425e-05
-1.05719e-05
-2.10404e-06
-1.93681e-05
-9.36104e-06
-2.79627e-06
-1.7846e-05
-7.97685e-06
-3.49631e-06
-1.52975e-05
-6.43116e-06
-4.15507e-06
-1.1763e-05
-4.74358e-06
-4.70624e-06
-7.43559e-06
-2.97437e-06
-5.01118e-06
-2.96171e-06
-1.10992e-06
-4.5475e-06
1.23738e-06
-2.01288e-06
-8.34838e-07
-1.84111e-05
-2.91131e-07
-1.35502e-06
-2.09004e-05
-4.34485e-07
-1.63432e-06
-2.10576e-05
-7.66123e-07
-1.63201e-06
-2.07382e-05
-1.21433e-06
-1.27826e-06
-2.01696e-05
-1.74528e-06
-5.11861e-07
-1.9439e-05
-2.32867e-06
7.06853e-07
-1.86007e-05
-2.93984e-06
2.37087e-06
-1.76964e-05
-3.53237e-06
4.39664e-06
-1.67605e-05
-4.03309e-06
6.64278e-06
-1.58115e-05
-4.40329e-06
8.95244e-06
-1.48648e-05
-4.63941e-06
1.11691e-05
-1.39441e-05
-4.73793e-06
1.31351e-05
-1.3071e-05
-4.6938e-06
1.46991e-05
-1.22639e-05
-4.50922e-06
1.57296e-05
-1.15375e-05
-4.19934e-06
1.61285e-05
-1.09011e-05
-3.79281e-06
1.58396e-05
-1.03592e-05
-3.32724e-06
1.48512e-05
-9.91143e-06
-2.84105e-06
1.31912e-05
-9.55332e-06
-2.36688e-06
1.09229e-05
-9.27602e-06
-1.92953e-06
8.14164e-06
-9.06565e-06
-1.54715e-06
4.97414e-06
-8.90238e-06
-1.23391e-06
1.57892e-06
-8.75979e-06
-1.00212e-06
-1.85603e-06
-8.60502e-06
-8.62794e-07
-5.12535e-06
-8.39997e-06
-8.22292e-07
-8.0213e-06
-8.10426e-06
-8.8222e-07
-1.03548e-05
-7.67901e-06
-1.0395e-06
-1.19745e-05
-7.09245e-06
-1.28753e-06
-1.2783e-05
-6.32594e-06
-1.61848e-06
-1.27299e-05
-5.37976e-06
-2.02593e-06
-1.1769e-05
-4.28365e-06
-2.50214e-06
-9.81015e-06
-3.08948e-06
-3.02833e-06
-6.77713e-06
-1.8595e-06
-3.52618e-06
-2.97464e-06
-6.16385e-07
-3.5587e-06
1.05237e-06
-1.77907e-06
1.60332e-06
-1.53772e-05
-4.39795e-06
3.80883e-06
-1.7342e-05
-5.36647e-06
5.56912e-06
-1.74554e-05
-4.88833e-06
7.14572e-06
-1.71694e-05
-4.61989e-06
8.72094e-06
-1.66733e-05
-4.51328e-06
1.03632e-05
-1.60342e-05
-4.4727e-06
1.20893e-05
-1.52937e-05
-4.45729e-06
1.38937e-05
-1.44852e-05
-4.44956e-06
1.57598e-05
-1.36357e-05
-4.44366e-06
1.76657e-05
-1.27587e-05
-4.43695e-06
1.95891e-05
-1.18678e-05
-4.42872e-06
2.15056e-05
-1.09824e-05
-4.41911e-06
2.3383e-05
-1.01192e-05
-4.40326e-06
2.51752e-05
-9.29194e-06
-4.37088e-06
2.68216e-05
-8.51198e-06
-4.30893e-06
2.82494e-05
-7.78914e-06
-4.20408e-06
2.93785e-05
-7.13189e-06
-4.04396e-06
3.01272e-05
-6.54698e-06
-3.81905e-06
3.04196e-05
-6.03856e-06
-3.52586e-06
3.01949e-05
-5.60696e-06
-3.16978e-06
2.94166e-05
-5.24798e-06
-2.76522e-06
2.80789e-05
-4.95243e-06
-2.33255e-06
2.62106e-05
-4.70614e-06
-1.89393e-06
2.38743e-05
-4.49001e-06
-1.47027e-06
2.11652e-05
-4.28026e-06
-1.07947e-06
1.82041e-05
-4.04913e-06
-7.35441e-07
1.51289e-05
-3.76653e-06
-4.47079e-07
1.20805e-05
-3.40284e-06
-2.16986e-07
9.1795e-06
-2.93131e-06
-3.56903e-08
6.56093e-06
-2.33517e-06
6.14515e-08
4.28508e-06
-1.61724e-06
1.16951e-07
2.38213e-06
-8.09969e-07
1.34997e-07
8.83773e-07
2.84392e-08
1.06405e-07
-1.01761e-07
8.82453e-07
9.60484e-09
2.06022e-06
-3.62797e-07
-1.29654e-06
-1.23497e-05
-1.26321e-06
-3.23179e-06
-1.31496e-05
-1.70266e-06
-4.38597e-06
-1.29788e-05
-2.74514e-06
-4.78468e-06
-1.26162e-05
-3.57104e-06
-4.47891e-06
-1.21257e-05
-4.27019e-06
-3.51908e-06
-1.154e-05
-4.87528e-06
-1.97884e-06
-1.08817e-05
-5.38182e-06
3.52855e-08
-1.01691e-05
-5.77257e-06
2.3945e-06
-9.41915e-06
-6.03423e-06
4.97252e-06
-8.64878e-06
-6.16464e-06
7.65754e-06
-7.8758e-06
-6.1731e-06
1.03537e-05
-7.1162e-06
-6.07898e-06
1.2987e-05
-6.38202e-06
-5.90847e-06
1.55051e-05
-5.68149e-06
-5.68869e-06
1.7871e-05
-5.02046e-06
-5.44026e-06
2.00533e-05
-4.40258e-06
-5.17388e-06
2.20161e-05
-3.83005e-06
-4.89117e-06
2.37165e-05
-3.30393e-06
-4.58934e-06
2.51031e-05
-2.82398e-06
-4.26338e-06
2.61195e-05
-2.38879e-06
-3.9091e-06
2.67104e-05
-1.99538e-06
-3.52523e-06
2.6828e-05
-1.63892e-06
-3.11422e-06
2.64383e-05
-1.31288e-06
-2.682e-06
2.55268e-05
-1.00883e-06
-2.23708e-06
2.41008e-05
-7.15266e-07
-1.78951e-06
2.21884e-05
-4.15615e-07
-1.34985e-06
1.98506e-05
-1.0459e-07
-9.27738e-07
1.72333e-05
1.66947e-07
-5.29697e-07
1.43972e-05
5.04967e-07
-1.52493e-07
1.14634e-05
8.91032e-07
1.75495e-07
8.53465e-06
1.32409e-06
4.66881e-07
5.66704e-06
1.78839e-06
7.47212e-07
2.90707e-06
2.24265e-06
1.00715e-06
5.15471e-07
2.6244e-06
1.12143e-06
3.03413e-06
1.42577e-07
1.04338e-07
-7.26293e-06
-5.02874e-06
3.74276e-07
-7.81088e-06
-5.42999e-06
6.14355e-07
-7.68955e-06
-5.34073e-06
1.02958e-06
-7.40972e-06
-5.42342e-06
1.75795e-06
-7.04236e-06
-5.60372e-06
2.88587e-06
-6.61698e-06
-5.83449e-06
4.45409e-06
-6.14806e-06
-6.07907e-06
6.45867e-06
-5.64143e-06
-6.30521e-06
8.86353e-06
-5.10269e-06
-6.49164e-06
1.1612e-05
-4.54102e-06
-6.62514e-06
1.46328e-05
-3.96801e-06
-6.69738e-06
1.78475e-05
-3.39612e-06
-6.7032e-06
2.11745e-05
-2.83542e-06
-6.64032e-06
2.45314e-05
-2.29348e-06
-6.50948e-06
2.78386e-05
-1.77606e-06
-6.31404e-06
3.10196e-05
-1.28521e-06
-6.05927e-06
3.4004e-05
-8.22416e-07
-5.75205e-06
3.67324e-05
-3.92025e-07
-5.39972e-06
3.91085e-05
5.00302e-08
-5.00889e-06
4.10636e-05
4.83013e-07
-4.58488e-06
4.25444e-05
9.00013e-07
-4.13218e-06
4.34936e-05
1.31462e-06
-3.65511e-06
4.38576e-05
1.73501e-06
-3.15823e-06
4.35902e-05
2.16838e-06
-2.64672e-06
4.26568e-05
2.62139e-06
-2.12668e-06
4.10409e-05
3.10012e-06
-1.60477e-06
3.87357e-05
3.60992e-06
-1.09035e-06
3.56884e-05
4.15459e-06
-5.92246e-07
3.19472e-05
4.73678e-06
-1.08785e-07
2.75994e-05
5.35261e-06
3.04402e-07
2.27092e-05
5.9842e-06
6.83152e-07
1.73234e-05
6.62512e-06
1.03076e-06
1.1462e-05
7.25667e-06
1.34651e-06
5.24415e-06
7.79382e-06
1.5532e-06
8.07628e-06
6.80764e-07
-7.10194e-07
-5.88047e-06
-5.32781e-07
-2.5105e-06
-5.86686e-06
2.55786e-08
-3.97002e-06
-5.51631e-06
-5.28963e-07
-4.86904e-06
-5.14195e-06
-1.17281e-06
-5.14068e-06
-4.73794e-06
-1.83083e-06
-4.72811e-06
-4.29916e-06
-2.52802e-06
-3.60619e-06
-3.83345e-06
-3.23904e-06
-1.84544e-06
-3.3466e-06
-3.86698e-06
4.38152e-07
-2.84314e-06
-4.36481e-06
3.1342e-06
-2.32782e-06
-4.74046e-06
6.13949e-06
-1.80677e-06
-5.00572e-06
9.3659e-06
-1.28458e-06
-5.18305e-06
1.27339e-05
-7.61959e-07
-5.29011e-06
1.61535e-05
-2.28806e-07
-5.3342e-06
1.96256e-05
2.2069e-07
-5.31754e-06
2.30515e-05
6.86298e-07
-5.24261e-06
2.63502e-05
1.15261e-06
-5.11319e-06
2.94427e-05
1.61814e-06
-4.93421e-06
3.22947e-05
2.0875e-06
-4.71096e-06
3.48488e-05
2.56805e-06
-4.44841e-06
3.70355e-05
3.06905e-06
-4.15048e-06
3.87907e-05
3.60128e-06
-3.81974e-06
4.00489e-05
4.17602e-06
-3.45798e-06
4.07436e-05
4.80407e-06
-3.0671e-06
4.08081e-05
5.49491e-06
-2.64987e-06
4.0179e-05
6.25599e-06
-2.21037e-06
3.87985e-05
7.09198e-06
-1.75364e-06
3.6618e-05
8.00332e-06
-1.28553e-06
3.36039e-05
8.98394e-06
-8.12918e-07
2.97402e-05
1.00174e-05
-3.42216e-07
2.50286e-05
1.10693e-05
1.23327e-07
1.94969e-05
1.2109e-05
5.79257e-07
1.31873e-05
1.30535e-05
1.05917e-06
6.21805e-06
1.37041e-05
1.60458e-06
1.34742e-05
1.33669e-06
8.77827e-07
-2.73039e-06
-3.89411e-06
2.97362e-06
-2.63078e-06
-5.16373e-06
4.9064e-06
-2.32464e-06
-4.94868e-06
6.66153e-06
-1.9712e-06
-4.74936e-06
8.33745e-06
-1.5896e-06
-4.65139e-06
1.002e-05
-1.18403e-06
-4.63203e-06
1.17751e-05
-7.69712e-07
-4.66307e-06
1.36544e-05
-3.61343e-07
-4.72046e-06
1.56061e-05
1.17003e-07
-4.78009e-06
1.75977e-05
6.17388e-07
-4.81734e-06
1.96245e-05
1.08735e-06
-4.81253e-06
2.16452e-05
1.54749e-06
-4.75401e-06
2.361e-05
2.00423e-06
-4.63939e-06
2.54814e-05
2.46197e-06
-4.4752e-06
2.71363e-05
2.92414e-06
-4.27293e-06
2.85595e-05
3.39507e-06
-4.04485e-06
2.9728e-05
3.87862e-06
-3.80274e-06
3.0624e-05
4.37894e-06
-3.55719e-06
3.12366e-05
4.90126e-06
-3.3162e-06
3.15589e-05
5.45242e-06
-3.08361e-06
3.15831e-05
6.0411e-06
-2.85857e-06
3.12961e-05
6.67747e-06
-2.63559e-06
3.06763e-05
7.37206e-06
-2.40646e-06
2.9696e-05
8.13382e-06
-2.16375e-06
2.83272e-05
8.96772e-06
-1.90397e-06
2.65508e-05
9.87301e-06
-1.62835e-06
2.43624e-05
1.08426e-05
-1.34172e-06
2.17801e-05
1.18594e-05
-1.05028e-06
1.88466e-05
1.28965e-05
-7.6001e-07
1.56269e-05
1.39158e-05
-4.74464e-07
1.22033e-05
1.48653e-05
-1.96117e-07
8.69408e-06
1.5677e-05
8.31144e-08
5.24528e-06
1.62441e-05
3.77841e-07
2.00899e-06
1.64057e-05
6.446e-07
1.53272e-05
2.71865e-07
-9.5352e-07
-1.20189e-06
-5.14155e-07
-3.57161e-06
-5.97794e-07
6.54626e-07
-5.56592e-06
-2.09244e-07
-5.23981e-08
-6.76571e-06
4.49023e-08
-7.51922e-07
-7.1842e-06
2.90662e-07
-1.40259e-06
-6.90316e-06
5.77549e-07
-1.98868e-06
-6.01191e-06
8.88136e-07
-2.50007e-06
-4.62427e-06
1.21674e-06
-2.92118e-06
-2.78954e-06
1.56053e-06
-3.2375e-06
-6.09875e-07
1.91901e-06
-3.44347e-06
1.76313e-06
2.29159e-06
-3.54135e-06
4.20569e-06
2.67945e-06
-3.53929e-06
6.61253e-06
3.08483e-06
-3.45141e-06
8.89914e-06
3.51022e-06
-3.29643e-06
1.10041e-05
3.95772e-06
-3.09599e-06
1.28922e-05
4.42853e-06
-2.87304e-06
1.45539e-05
4.92325e-06
-2.6501e-06
1.60027e-05
5.44307e-06
-2.44683e-06
1.7267e-05
5.99157e-06
-2.27697e-06
1.83795e-05
6.57648e-06
-2.14547e-06
1.93635e-05
7.20981e-06
-2.04626e-06
2.02203e-05
7.90584e-06
-1.96187e-06
2.09182e-05
8.67756e-06
-1.86127e-06
2.13895e-05
9.5333e-06
-1.70757e-06
2.15419e-05
1.04749e-05
-1.47203e-06
2.1285e-05
1.14969e-05
-1.15085e-06
2.0539e-05
1.25864e-05
-7.47673e-07
1.9252e-05
1.372e-05
-2.83755e-07
1.74013e-05
1.48646e-05
2.17913e-07
1.5042e-05
1.59758e-05
6.84142e-07
1.22993e-05
1.69932e-05
1.05073e-06
9.26024e-06
1.78539e-05
1.34757e-06
6.00242e-06
1.84456e-05
1.58599e-06
2.6687e-06
1.85647e-05
1.7384e-06
1.72078e-05
1.35884e-06
3.7399e-06
-2.92559e-06
-1.89259e-06
5.43703e-06
-2.00547e-06
-1.47913e-07
6.52875e-06
-1.3318e-06
1.76016e-07
7.42428e-06
-7.02225e-07
-5.35708e-09
8.15926e-06
-7.82885e-08
-2.26765e-07
8.7254e-06
6.43373e-07
-4.97847e-07
9.24126e-06
1.2806e-06
-7.79702e-07
9.75365e-06
1.88241e-06
-1.05477e-06
1.02859e-05
2.45579e-06
-1.30897e-06
1.08374e-05
3.00665e-06
-1.52409e-06
1.13897e-05
3.54155e-06
-1.68941e-06
1.19158e-05
4.06768e-06
-1.80143e-06
1.23879e-05
4.59228e-06
-1.86432e-06
1.27886e-05
5.12192e-06
-1.89211e-06
1.31214e-05
5.66178e-06
-1.90885e-06
1.3419e-05
6.21554e-06
-1.94599e-06
1.37443e-05
6.78597e-06
-2.03663e-06
1.41827e-05
7.37636e-06
-2.20655e-06
1.48245e-05
7.99229e-06
-2.46358e-06
1.57372e-05
8.6428e-06
-2.78837e-06
1.6939e-05
9.34034e-06
-3.13342e-06
1.83849e-05
1.00988e-05
-3.43616e-06
1.99716e-05
1.09306e-05
-3.63809e-06
2.1553e-05
1.18438e-05
-3.69581e-06
2.29566e-05
1.28417e-05
-3.58319e-06
2.40026e-05
1.39223e-05
-3.29351e-06
2.45218e-05
1.5078e-05
-2.84019e-06
2.43654e-05
1.62934e-05
-2.24857e-06
2.34079e-05
1.7543e-05
-1.54761e-06
2.15506e-05
1.87852e-05
-7.66551e-07
1.8756e-05
1.99575e-05
3.50622e-08
1.47368e-05
2.09908e-05
1.11314e-06
9.50523e-06
2.1777e-05
2.16307e-06
3.55271e-06
2.20446e-05
2.77048e-06
2.03884e-05
7.12826e-07
1.57105e-06
-3.73314e-06
-7.67444e-07
8.51656e-07
-2.20354e-06
9.36952e-07
-1.91317e-07
-1.26818e-06
1.00709e-06
-1.11207e-06
-4.98832e-07
7.49148e-07
-1.81595e-06
2.16071e-07
4.4489e-07
-2.22335e-06
9.49715e-07
1.39512e-07
-2.47318e-06
1.69926e-06
-1.26941e-07
-2.64792e-06
2.46619e-06
-3.63175e-07
-2.79985e-06
3.25085e-06
-5.92142e-07
-2.98082e-06
4.05322e-06
-8.07812e-07
-3.23987e-06
4.87317e-06
-1.00592e-06
-3.62106e-06
5.71026e-06
-1.1837e-06
-4.16013e-06
6.56313e-06
-1.34114e-06
-4.88105e-06
7.42895e-06
-1.48134e-06
-5.79425e-06
8.30334e-06
-1.60964e-06
-6.89567e-06
9.17851e-06
-1.73078e-06
-8.17173e-06
1.00473e-05
-1.84637e-06
-9.60613e-06
1.09038e-05
-1.95165e-06
-1.11813e-05
1.17436e-05
-2.0394e-06
-1.28747e-05
1.25647e-05
-2.10424e-06
-1.46488e-05
1.33672e-05
-2.14859e-06
-1.64399e-05
1.41513e-05
-2.18511e-06
-1.81491e-05
1.4915e-05
-2.2337e-06
-1.96458e-05
1.56549e-05
-2.31392e-06
-2.07812e-05
1.63647e-05
-2.43284e-06
-2.14076e-05
1.70377e-05
-2.58304e-06
-2.13947e-05
1.76723e-05
-2.75065e-06
-2.06398e-05
1.82733e-05
-2.92614e-06
-1.90904e-05
1.88356e-05
-3.07819e-06
-1.67399e-05
1.93554e-05
-3.19963e-06
-1.36578e-05
1.98309e-05
-3.27792e-06
-1.00439e-05
2.02549e-05
-3.24442e-06
-6.30711e-06
2.05733e-05
-2.96437e-06
-3.00411e-06
2.05431e-05
-2.37779e-06
1.84427e-05
-1.91279e-06
1.6487e-06
-4.9218e-06
-3.26239e-07
-2.79666e-06
-9.64529e-09
2.39904e-06
-8.16285e-06
1.44816e-06
2.76675e-06
-1.32254e-05
2.20914e-06
2.43511e-06
-1.77932e-05
2.76061e-06
2.065e-06
-2.18198e-05
3.22545e-06
1.75158e-06
-2.5309e-05
3.65885e-06
1.49106e-06
-2.82734e-05
4.09242e-06
1.26457e-06
-3.07183e-05
4.53955e-06
1.05368e-06
-3.26399e-05
5.00493e-06
8.45734e-07
-3.40302e-05
5.48947e-06
6.35481e-07
-3.48835e-05
5.99296e-06
4.24753e-07
-3.52035e-05
6.5159e-06
2.20153e-07
-3.49992e-05
7.06095e-06
2.02905e-08
-3.43663e-05
7.63278e-06
-9.92472e-08
-3.33593e-05
8.23787e-06
-1.95616e-07
-3.20594e-05
8.88282e-06
-2.57358e-07
-3.05663e-05
9.57146e-06
-2.77515e-07
-2.89849e-05
1.03051e-05
-2.57087e-07
-2.74161e-05
1.10843e-05
-2.03765e-07
-2.59496e-05
1.1911e-05
-1.30157e-07
-2.46602e-05
1.27798e-05
-4.49825e-08
-2.36356e-05
1.36766e-05
7.79781e-08
-2.29396e-05
1.45815e-05
2.32751e-07
-2.26103e-05
1.55078e-05
3.75288e-07
-2.26995e-05
1.64889e-05
4.88005e-07
-2.31819e-05
1.74605e-05
5.57255e-07
-2.38826e-05
1.82674e-05
5.86393e-07
-2.45495e-05
1.88521e-05
5.38141e-07
-2.48151e-05
1.92128e-05
2.97242e-07
-2.41706e-05
1.93301e-05
-2.62409e-07
-2.19138e-05
1.89822e-05
-1.11637e-06
-1.70736e-05
1.77303e-05
-2.14992e-06
-9.24236e-06
1.56696e-05
-3.12084e-06
1.23077e-05
-3.19709e-06
3.29171e-06
-1.15156e-05
3.24024e-06
2.97867e-06
-3.37086e-06
3.66371e-06
4.26473e-07
6.6497e-07
3.37571e-06
-2.75578e-06
2.6326e-06
2.83257e-06
-6.00187e-06
3.75285e-06
2.35569e-06
-9.20844e-06
4.5295e-06
2.02996e-06
-1.23756e-05
5.13366e-06
1.84377e-06
-1.55251e-05
5.66478e-06
1.75161e-06
-1.8671e-05
6.17196e-06
1.70989e-06
-2.18001e-05
6.66454e-06
1.68766e-06
-2.48777e-05
7.14221e-06
1.66489e-06
-2.78718e-05
7.61946e-06
1.62927e-06
-3.07969e-05
8.14925e-06
1.5738e-06
-3.37115e-05
8.77976e-06
1.49603e-06
-3.66685e-05
9.50758e-06
1.39681e-06
-3.96762e-05
1.02898e-05
1.28074e-06
-4.26717e-05
1.10539e-05
1.15472e-06
-4.55505e-05
1.17566e-05
1.0245e-06
-4.82212e-05
1.24083e-05
8.93478e-07
-5.06522e-05
1.30689e-05
7.62456e-07
-5.28358e-05
1.37664e-05
6.29724e-07
-5.47578e-05
1.4495e-05
4.88241e-07
-5.64062e-05
1.52537e-05