/*--------------------------------*- C++ -*----------------------------------*\
| =========                 |                                                 |
| \\      /  F ield         | OpenFOAM: The Open Source CFD Toolbox           |
|  \\    /   O peration     | Version:  v1906                                 |
|   \\  /    A nd           | Web:      www.OpenFOAM.com                      |
|    \\/     M anipulation  |                                                 |
\*---------------------------------------------------------------------------*/
FoamFile
{
    version     2.0;
    format      ascii;
    class       volScalarField;
    location    "0.25/sphere";
    object      T;
}
// * * * * * * * * * * * * * * * * * * * * * * * * * * * * * * * * * * * * * //

dimensions      [0 0 0 1 0 0 0];


internalField   nonuniform List<scalar> 
7664
(
490.193
490.91
490.349
491.791
489.974
490.577
493.007
494.084
495.357
493.408
490.333
494.805
495.904
494.168
493.482
494.834
492.757
492.93
494.395
492.416
490.788
495.301
496.484
494.691
491.605
495.865
497.019
495.38
490.311
490.482
494.782
496.015
494.115
493.447
492.387
493.322
494.667
492.401
489.877
494.075
495.333
493.424
492.481
494.079
491.737
490.244
490.22
490.266
490.148
490.208
490.274
491.807
490.478
494.605
493.374
495.198
494.153
493.4
495.344
494.248
490.958
490.316
491.907
490.52
494.236
494.591
493.349
491.89
490.522
490.824
490.167
490.192
490.17
490.16
490.158
489.993
490.151
490.138
489.999
490.219
490.178
490.056
490.138
491.646
490.678
492.329
492.617
494.112
490.686
492.364
494.138
492.741
491.836
489.909
492.253
489.895
493.259
490.856
490.365
491.717
493.255
494.583
494.084
495.193
490.738
491.221
491.032
492.594
492.407
492.112
492.773
489.978
492.386
493.349
490.014
489.907
489.886
493.239
492.143
491.702
490.122
490.767
494.063
495.175
493.167
494.49
490.464
490.81
490.173
495.181
494.136
494.511
493.251
493.329
489.999
492.26
491.51
490.564
492.486
493.984
492.136
494
492.581
492.158
491.694
493.642
493.684
492.625
492.295
490.6
494.073
492.978
493.616
494.944
492.938
494.349
494.905
496.086
492.164
494.961
493.751
494.393
493.048
496.102
495.012
492.889
492.422
494.204
490.756
490.094
493.248
490.342
494.051
490.785
494.518
491.625
495.126
490.295
494.182
490.498
494.697
490.981
495.38
491.985
490.321
490.08
494.035
493.146
491.606
495.112
490.693
494.442
490.487
493.293
490.188
495.37
491.974
494.628
490.894
490.31
492.47
490.482
493.947
492.103
494.82
492.76
494.778
495.975
492.725
494.148
493.609
492.785
491.933
495.997
494.917
494.187
492.817
494.103
490.616
492.189
493.41
493.442
493.646
493.687
492.281
490.593
494.056
492.631
494.353
494.905
496.086
492.981
493.613
494.972
493.047
496.105
495.012
492.999
492.181
494.989
493.742
494.194
490.752
492.902
490.094
494.52
491.622
495.135
493.258
490.334
494.058
490.986
495.387
491.988
493.441
490.288
494.263
490.514
490.323
490.08
495.119
490.684
494.435
490.317
494.037
493.151
491.977
494.637
490.88
494.258
490.502
493.358
490.199
493.958
492.08
492.478
495.985
492.733
494.152
493.485
494.864
492.767
494.933
494.195
492.816
494.894
493.666
492.78
491.943
490.613
492.196
492.802
493.412
491.684
492.365
492.655
494.157
490.722
494.171
492.75
490.731
491.858
492.297
489.893
493.246
489.921
494.65
494.091
495.33
490.221
490.921
490.382
491.81
493.433
490.009
490.018
493.23
492.139
489.885
495.318
493.181
494.564
490.364
491.796
490.09
490.779
490
492.333
490.006
491.488
494.047
492.158
490.562
492.641
492.171
490.582
490.022
489.906
489.564
489.968
489.866
489.837
489.772
489.856
489.79
489.844
489.724
489.934
489.809
489.844
489.632
490.008
489.898
489.744
490.124
490.132
489.968
489.828
489.695
489.93
489.807
490.503
490.295
490.731
492.189
491.066
491.697
491.425
490.373
491.025
490.902
492.447
491.961
491.704
492.571
490.771
491.297
491.094
492.685
492.483
492.157
492.874
490.519
490.321
490.767
492.271
491.1
491.749
491.492
490.397
491.096
490.944
492.547
492.049
491.785
492.686
491.097
490.371
490.906
492.511
492.045
492.682
491.739
491.203
490.648
490.993
492.612
492.376
492.801
492.047
490.244
490.395
490.675
492.201
491.001
491.429
491.629
489.879
489.644
490.06
489.938
489.782
490.008
489.902
489.698
489.78
490.405
490.186
490.586
492.049
490.98
491.625
491.3
490.5
490.658
490.123
490.797
492.255
490.201
491.832
490.633
492.42
491.542
489.919
491.047
490.151
490.158
490.888
490.856
490.618
491.047
490.447
491.083
491.706
491.483
491.177
493.563
492.383
492.256
492.393
492.915
492.881
492.898
494.216
492.804
493.767
493.597
493.474
493.373
494.414
491.605
491.819
492.242
491.829
490.866
490.057
490.27
491.201
491.434
490.434
492.185
491.798
490.176
490.765
491.508
492.378
490.589
489.84
489.732
490.815
490.588
490.981
491.704
491.652
492.048
493.461
491.215
492.34
492.716
492.809
494.115
493.527
493.7
492.699
494.352
493.284
493.372
494.643
494.186
495.047
494.078
494.852
493.846
494.834
491.834
492.915
492.248
491.942
492.693
492.392
492.284
491.01
490.589
492.628
491.942
490.798
490.076
489.934
492.598
492.978
491.283
491.223
492.82
492.753
490.954
490.24
490.185
490.034
491.03
491.633
490.335
491.112
491.394
492.779
493.279
493.208
493.034
491.565
491.726
492.159
491.838
492.226
492.885
492.675
491.927
490.059
490.372
490.546
493.022
491.345
491.873
490.867
491.402
491.915
490.608
490.055
490.934
489.772
490.75
490.068
491.615
493.353
491.862
491.475
492.612
492.253
491.089
490.829
490.938
491.306
490.906
489.588
489.874
489.98
489.685
489.786
490.898
491.336
490.91
491.013
490.756
491.199
490.543
491.823
491.225
491.333
491.595
491.5
491.732
492.134
491.789
492.169
492.853
491.908
492.602
491.78
491.603
492.032
493.464
491.252
492.375
492.778
490.567
491.844
491.641
491.245
491.34
490.823
491.247
491.055
491.815
492.221
492.869
491.914
492.652
491.599
491.793
492.209
491.68
493.546
492.412
491.836
492.163
491.321
492.873
490.982
491.476
491.059
491.081
490.053
490.419
490.58
489.795
490.116
491.005
490.841
490.127
490.042
490.388
490.527
490.734
491.255
491.211
492.854
490.493
491.768
491.69
490.114
489.807
490.968
490.113
490.806
491.078
490.662
492.361
490.858
492.713
492.477
492.044
490.231
490.836
490.686
492.293
491.85
491.562
492.443
489.92
491.066
490.927
490.18
490.179
491.325
492.965
491.809
490.819
491.371
490.566
491.871
490.153
490.506
490.691
490.192
489.941
491.09
490.18
490.928
490.063
489.809
490.983
490.106
490.798
490.014
490.319
490.517
490.055
490.944
489.782
490.09
490.756
489.992
490.298
490.471
490.66
491.15
492.779
491.098
491.687
490.406
491.622
491.272
491.391
493.078
492.674
491.004
492.825
492.922
491.982
490.126
490.325
490.874
490.515
491.258
491.496
491.021
492.4
490.561
492.267
490.783
492.65
491.912
491.014
490.331
491.948
490.839
492.559
492.404
491.682
491.148
490.627
490.944
492.509
492.302
492.699
491.986
490.215
490.386
490.629
492.11
490.949
491.382
491.569
490.079
490.382
490.601
490.142
491.068
489.893
490.163
490.877
490.735
491.193
492.883
491.257
491.733
490.469
491.785
490.077
490.415
490.604
490.764
490.753
491.171
491.07
490.398
491.698
491.451
491.174
491.598
491.439
493.33
491.884
492.191
491.102
492.628
491.356
491.549
491.947
491.599
492.66
491.959
491.714
492.413
490.876
490.664
491.081
491.641
491.508
493.391
491.984
492.237
491.159
492.695
491.608
492.666
491.995
491.71
492.443
491.386
491.597
492.009
490.837
490.908
491.301
490.901
493.013
493
493.398
493.368
493.153
493.07
493.435
493.52
493.261
493.155
492.958
491.502
491.717
492.113
490.976
490.715
491.092
491.76
492.05
491.575
493.445
491.237
492.774
492.287
491.746
492.127
492.801
492.567
491.856
491.16
490.432
491.762
491.507
491.276
494.127
492.728
493.741
493.553
493.4
493.294
494.379
494.117
492.721
493.528
493.703
493.292
493.381
494.355
494.568
494.023
494.005
495.014
493.732
494.795
494.784
493.792
492.492
492.439
492.541
493.049
493.022
493.084
494.641
494.068
494.184
495.045
493.84
494.831
494.851
494.225
492.824
493.658
493.828
493.416
493.514
494.455
491.877
492.23
491.779
493.599
491.392
492.892
492.487
491.081
490.82
491.281
491.839
492.252
492.917
492.69
491.941
491.288
490.621
491.924
491.685
491.381
489.554
489.762
489.876
489.937
489.701
492.229
490.199
491.812
490.782
491.543
490.618
492.392
492.388
490.58
492.282
490.999
491.931
490.781
492.624
492.641
491.238
491.322
492.998
490.973
492.781
492.862
492.263
491.088
490.307
490.51
491.501
491.741
490.748
492.528
490.382
492.014
491.08
491.745
490.935
492.666
492.697
490.777
492.517
491.344
492.175
491.092
492.928
492.97
491.732
491.825
493.358
491.459
493.107
493.206
489.851
489.764
490.058
489.9
490.193
490.271
490.055
489.592
489.858
489.894
489.65
489.712
491.751
490.009
490.765
490.189
491.127
490.358
491.347
492.588
491.221
492.981
491.267
492.763
490.936
492.812
492.302
490.492
490.918
492.184
490.692
491.839
492.547
492.481
491.997
490.324
491.079
491.69
492.653
490.889
492.182
490.22
490.974
490.398
491.379
490.678
491.629
492.926
491.719
493.346
491.788
493.092
491.422
493.167
492.631
490.674
491.287
492.427
491.047
492.072
492.867
490.182
490.236
490.023
490.018
489.858
491.584
491.433
491.855
493.305
491.085
492.184
492.586
491.341
491.528
491.925
491.024
490.334
491.633
491.397
491.114
491.575
491.919
492.625
492.387
491.671
493.391
492.078
492.203
492.175
492.738
492.711
492.675
493.948
493.555
492.523
493.338
493.22
494.196
493.082
493.93
492.498
493.518
493.303
493.182
493.073
494.164
494.389
493.815
494.843
493.793
494.624
493.518
494.6
494.026
493.573
492.578
493.371
493.275
494.223
493.15
493.603
492.236
492.271
492.304
492.851
492.883
492.81
494.459
493.849
494.874
493.974
494.65
493.627
494.678
494.039
492.597
493.644
493.433
493.313
493.193
494.277
490.927
490.685
491.133
491.398
491.621
492.035
491.127
490.474
491.782
491.533
491.209
491.64
492.004
492.721
492.48
491.743
492.786
492.733
493.16
493.142
492.931
493.19
493.272
493.016
492.898
492.7
492.999
493.372
493.412
493.167
493.027
493.523
493.443
493.271
493.155
492.977
493.08
491.749
492.806
492.117
491.857
492.571
491.157
491.766
490.455
491.281
491.505
491.516
491.723
492.116
490.948
490.718
491.105
491.739
493.439
492.051
491.557
492.783
492.276
491.249
494.576
494.011
495.016
494.037
494.786
493.74
494.801
493.578
492.374
492.407
492.267
492.887
492.899
492.932
494.145
493.559
492.748
493.75
493.315
494.383
493.423
494.231
493.657
493.829
492.826
494.456
493.421
493.52
494.209
493.589
492.794
493.769
493.365
494.409
493.467
493.795
492.553
492.502
492.431
493.024
493.102
493.047
491.29
491.92
490.598
491.382
491.674
491.612
491.83
492.263
491.875
493.605
492.238
491.78
492.925
492.454
491.396
491.084
490.84
491.271
489.781
489.947
489.86
489.716
489.548
492.655
491.342
492.995
491.239
492.871
491.017
492.773
491.818
490.271
490.86
490.063
491.45
490.428
491.215
492.242
490.775
490.226
491.804
490.64
492.386
491.577
492.707
492.519
491.348
490.781
492.93
492.167
491.114
492.985
491.829
493.363
491.743
493.208
491.479
493.124
492.274
490.518
491.102
490.308
491.741
490.765
491.483
492.551
491.098
490.385
492.048
490.953
492.695
491.767
490.278
490.198
490.076
489.861
489.789
489.904
489.849
489.681
489.731
489.55
492.314
490.935
492.18
490.485
492.552
490.722
491.838
492.179
490.76
491.786
490.177
492.366
490.591
491.497
491.736
490.192
489.996
490.768
490.366
491.328
491.137
492.95
493.352
491.793
491.73
493.174
493.113
491.438
492.643
491.282
492.423
490.66
492.87
491.041
492.052
492.517
491.089
492.039
490.338
492.686
490.913
491.714
492.207
490.409
490.218
490.984
490.693
491.626
491.397
490.007
489.869
489.849
489.748
491.578
492.628
491.922
491.668
492.403
490.818
490.593
490.976
491.611
493.315
491.426
491.875
492.153
492.626
491.076
491.322
491.536
491.931
493.936
493.523
493.32
492.51
494.174
493.203
493.077
494.392
494.847
493.807
493.826
494.609
494.63
493.514
493.372
492.182
492.072
492.185
492.715
492.642
492.727
493.946
493.343
493.571
492.535
494.206
493.083
493.225
494.489
494.884
493.981
493.88
494.689
494.679
493.643
494.063
493.651
493.432
492.599
494.285
493.338
493.202
494.055
493.375
493.596
492.578
494.247
493.169
493.289
493.629
492.324
492.249
492.279
492.913
492.817
492.867
491.122
491.778
490.433
491.21
491.514
491.648
492.73
492.026
491.746
492.502
491.706
493.499
491.667
492.089
492.363
492.754
491.237
490.91
490.686
491.126
491.405
491.624
492.06
493.146
493.173
492.922
492.798
492.895
492.705
492.831
491.358
490.914
490.928
491.795
492.185
492.865
492.627
491.915
491.802
492.066
493.509
491.633
492.829
491.269
492.376
491.032
490.775
491.211
491.886
490.57
491.255
491.363
491.626
491.616
491.805
492.228
493.571
491.676
492.423
491.845
492.176
492.897
491.348
490.606
491.893
491.652
491.273
491.366
490.824
491.266
491.053
490.986
491.472
491.063
491.09
490.73
491.226
492.867
491.294
491.706
490.511
491.779
490.09
489.832
490.946
490.806
490.081
490.064
490.441
490.599
489.84
490.11
490.982
490.834
490.094
490.441
490.219
490.636
492.119
491.008
491.656
491.343
491.165
492.453
490.711
492.82
490.919
492.567
492.096
490.271
490.877
490.746
492.372
491.877
491.616
492.509
490.176
490.523
490.702
490.22
489.934
491.123
490.97
490.208
490.508
490.7
490.158
489.95
491.109
490.957
490.202
490.197
489.997
490.31
490.471
490.661
492.78
491.13
491.111
491.656
491.655
490.39
489.798
490.072
490.982
490.09
490.811
489.996
490.334
490.519
490.82
490.237
490.676
492.325
491.868
492.485
491.594
490.139
490.331
490.555
492.039
490.899
491.298
491.509
491.081
492.331
490.566
492.751
490.817
492.483
491.95
490.172
491.108
489.874
490.901
490.194
492.958
491.252
491.792
490.77
491.302
491.825
490.483
490.086
490.408
490.608
489.884
491.103
490.919
490.167
490.184
490.417
490.622
490.077
490.762
491.172
490.75
491.353
491.542
491.95
491.6
492.675
491.968
492.421
491.716
490.87
490.621
491.061
491.736
490.385
491.085
491.473
491.176
493.475
491.611
492.361
491.718
491.982
492.731
491.18
491.641
492.699
492.004
492.476
491.728
491.418
491.598
492.025
490.446
491.762
491.516
491.102
491.191
490.709
491.125
490.906
491.602
491.606
493.136
491.302
492.946
492.788
492.97
495.344
494.823
495.915
495.302
496.469
495.876
497.01
494.21
495.919
494.905
496.481
495.427
497.02
496.059
493.832
493.476
492.279
494.091
492.838
493.093
494.444
495.902
493.993
495.249
495.86
496.998
495.207
496.385
494.887
495.262
494.094
497.009
496.052
496.403
495.364
493.681
493.214
494.033
494.769
493.059
493.828
494.633
494.208
494.185
492.78
494.156
493.576
494.796
493.546
494.698
494.657
494.273
495.424
494.085
495.251
494.879
496.468
495.882
497.014
494.11
495.39
494.823
496.035
495.425
497.025
496.067
495.406
494.233
496.043
494.989
493.909
493.737
495.05
494.496
494.108
493.526
494.861
497.004
495.205
496.394
494.805
496.027
493.998
495.313
496.064
496.42
495.377
496.038
494.983
495.341
494.177
494.132
494.487
495.251
495.198
494.334
494.278
495.067
494.633
495.388
494.226
494.59
494.838
495.201
494.019
495.141
495.841
495.502
495.846
495.322
495.668
495.323
492.126
493.108
493.513
493.908
492.29
492.883
493.29
493.369
494.008
493.746
492.215
494.372
493.001
492.733
493.892
494.483
495.022
493.706
494.851
493.512
494.067
493.574
494.685
493.926
493.111
494.551
493.714
492.963
494.1
495.174
495.208
494.415
495.042
494.245
494.273
493.263
492.429
492.247
491.078
492.433
492.249
491.189
493.888
493.095
492.883
492.126
493.486
493.267
492.277
491.645
491.619
491.362
492.839
493.152
493.015
492.962
493.789
493.634
494.424
494.924
493.451
493.962
494.754
493.392
492.25
494.027
493.78
493.021
492.77
494.376
494.01
494.288
495.119
495.039
494.185
494.114
494.947
493.632
493.178
494.026
494.699
493.053
493.744
494.588
493.485
494.07
493.85
492.268
494.461
493.073
492.848
494.133
495.244
495.178
494.434
495.071
494.313
494.254
493.754
494.124
494.821
493.28
494.707
493.155
493.872
491.743
491.712
491.436
492.95
493.284
493.135
493.089
493.717
494.811
494.082
493.27
494.671
493.866
493.112
493.831
494.967
494.421
493.622
494.803
494.003
493.434
493.425
493.799
494.025
492.209
494.416
492.788
493.005
491.698
491.696
491.383
492.91
493.267
493.077
493.095
493.117
492.204
493.576
493.897
492.385
492.898
493.33
493.145
493.953
492.939
492.236
493.598
492.402
493.387
490.987
492.299
493.131
492.265
492.146
491.081
492.104
491.432
491.313
493.094
491.077
492.964
492.729
492.853
493.29
492.155
493.952
493.695
492.956
492.681
494.292
493.6
494.907
493.927
493.715
494.383
493.398
494.708
493.523
493.105
493.965
494.638
492.961
493.657
494.522
494.261
495.107
494.157
493.941
495.012
494.061
494.909
492.358
493.223
492.214
491.071
492.377
491.141
492.233
490.941
492.278
492.245
493.082
491.062
492.1
492.056
493.496
493.086
494.622
493.924
493.638
492.934
494.49
494.243
493.89
494.987
495.061
494.031
494.112
494.857
493.232
492.05
493.645
493.848
492.631
492.837
494.244
493.635
493.504
494.834
494.265
493.857
493.276
494.626
494.27
495.029
494.1
493.96
495.069
494.133
494.912
493.164
494.691
493.733
493.603
493.999
493.026
494.571
493.707
493.528
494.852
494.326
493.883
493.338
494.685
493.324
492.118
493.708
493.916
492.707
492.906
494.313
492.338
491.018
492.361
493.181
491.127
492.17
492.187
492.029
492.982
493.762
493.412
492.742
492.211
493.171
492.05
492.994
493.809
493.422
492.778
492.214
493.21
492.196
493.877
493.536
493.068
493.314
492.842
492.35
494.355
492.942
494.29
494.296
493.716
493.714
494.913
494.793
494.415
494.726
495.533
494.182
495.014
495.327
494.77
494.704
494.378
495.505
494.161
495.302
494.987
495.196
495.908
495.602
495.901
495.409
495.706
495.401
494.79
494.86
494.435
495.552
494.249
495.039
495.383
494.399
494.46
493.081
494.413
493.828
493.848
495.006
495.256
495.929
495.624
495.93
495.437
495.755
495.444
494.868
494.818
494.488
495.579
494.28
495.392
495.07
492.291
494.012
493.65
493.224
493.431
493.017
492.446
493.238
492.106
493.667
493.911
492.625
492.858
494.273
493.49
493.927
493.057
494.609
492.924
494.503
493.615
493.64
494.313
493.527
494.839
493.308
494.653
493.844
493.875
494.966
495.042
494.17
494.865
493.994
494.069
494.074
493.724
493.228
494.781
493.106
494.674
493.841
493.907
494.511
493.741
495.055
493.539
494.863
494.11
494.143
495.172
495.276
494.491
495.071
494.261
494.364
493.446
493.042
493.88
494.594
492.883
493.602
494.453
493.17
493.596
492.009
493.836
492.558
494.204
492.787
493.826
494.951
494.156
494.999
493.979
494.816
494.025
493.565
494.243
494.777
493.438
494.582
493.225
493.775
493.393
493.747
492.163
493.981
492.742
494.365
492.977
494.099
495.158
494.479
495.243
494.247
495.027
494.326
493.835
494.411
495.004
493.656
494.792
493.434
494.052
492.004
493.736
492.942
493.382
492.721
493.141
492.17
494.641
494.611
494.258
495.409
494.035
495.208
494.859
494.617
494.569
495.376
494.222
495.183
493.996
494.828
495.048
495.794
495.772
495.461
495.588
495.268
495.244
494.295
494.258
492.903
494.273
493.662
494.869
493.677
495.102
495.81
495.825
495.488
495.627
495.289
495.307
494.708
494.685
495.473
494.345
495.255
494.114
494.93
492.116
493.875
493.103
493.504
492.868
493.26
492.287
492.145
493.527
493.055
493.854
492.324
493.301
492.819
494.772
494.377
495.503
494.707
494.985
494.161
495.305
495.204
495.603
495.9
495.907
495.403
495.411
495.713
494.363
494.29
492.939
494.334
493.712
494.918
493.747
494.811
495.544
494.432
494.777
495.019
495.353
494.218
495.259
495.626
495.933
495.932
495.446
495.438
495.761
494.882
494.488
495.583
494.836
495.073
494.294
495.41
494.811
494.854
495.56
494.449
495.037
495.386
494.255
494.409
494.464
494.425
493.053
493.861
495.013
493.829
492.271
493.642
493.211
494.005
492.436
493.431
492.988
493.641
493.527
494.842
494.317
493.844
493.313
494.656
493.878
495.05
494.177
494.964
494.077
494.871
493.989
493.244
493.914
492.106
493.682
492.871
494.281
492.638
493.503
494.615
493.948
493.062
494.518
493.613
492.946
494.158
495.278
494.497
495.2
494.365
495.085
494.284
493.886
493.498
494.099
492.311
493.092
494.484
492.869
494.146
493.761
494.838
493.293
494.723
493.885
493.159
493.824
494.161
495.002
494.946
494.029
493.971
494.812
493.564
494.774
493.434
494.219
493.774
494.574
493.213
493.431
494.592
493.042
493.897
493.591
494.453
492.882
493.154
493.808
493.621
492.012
494.199
492.754
492.567
493.858
495.011
493.661
494.443
494.058
494.824
493.447
494.116
493.733
494.834
493.282
493.879
494.7
493.115
493.823
493.438
494.031
492.202
494.425
493.013
492.789
492.061
492.947
493.389
493.759
492.193
492.726
493.174
495.052
495.782
495.466
495.804
495.253
495.59
495.276
494.207
494.172
494.186
492.785
494.8
493.565
493.569
494.639
495.433
494.621
494.288
495.203
494.876
494.038
494.749
495.488
494.36
494.729
494.945
495.296
494.155
494.707
494.734
495.471
494.317
495.297
494.915
494.118
494.31
494.336
494.321
492.933
494.915
493.721
493.695
493.173
492.228
493.603
493.946
493.37
492.411
492.934
493.983
493.183
492.967
492.255
493.616
493.407
492.418
490.973
493.13
492.259
492.275
492.107
492.142
491.048
495.002
493.686
494.037
493.813
494.436
494.79
493.461
493.607
493.987
494.703
493.121
494.593
493
493.731
495.227
494.4
494.281
494.049
495.121
495.01
494.17
491.513
493.218
491.374
493.074
491.151
492.822
492.947
493.306
492.436
492.284
491.123
492.447
492.302
491.201
490.93
492.244
493.079
492.265
492.066
491.036
492.091
495.196
494.387
494.254
494.006
495.097
494.966
494.147
493.295
493.642
493.907
492.073
494.297
492.647
492.893
494.942
493.589
493.97
493.728
494.339
494.717
493.345
491.493
493.206
491.335
493.052
491.074
492.777
492.925
493.061
492.058
493.802
493.457
493.188
492.801
492.253
494.739
494.483
494.734
495.07
495.337
495.061
495.641
495.201
495.661
495.5
495.938
495.778
496.055
496.214
495.371
494.682
495.358
495.253
495.234
495.807
495.918
495.754
495.801
495.649
496.19
496.444
496.295
496.345
495.896
495.61
495.125
495.717
495.435
496.01
496.18
496.319
496.315
496.152
496.431
496.761
496.601
496.592
495.755
495.699
495.585
496.148
496.415
496.315
496.253
496.597
496.875
496.917
496.853
496.768
496.706
496.747
495.651
495.156
495.924
495.466
495.73
496.021
496.203
494.729
495.384
495.373
495.289
495.278
495.845
495.933
495.837
495.738
495.654
496.2
496.449
496.376
496.28
495.123
495.898
495.608
495.712
495.431
496.004
496.179
496.293
496.284
496.1
496.383
496.747
496.572
496.56
495.716
495.796
495.63
496.186
496.423
496.267
496.35
496.561
496.816
496.924
496.802
496.745
496.643
496.73
494.827
494.59
495.138
494.857
495.416
495.183
495.705
495.844
495.763
495.683
496.227
496.459
496.385
496.306
494.811
495.437
495.337
495.492
495.394
495.896
495.991
496.31
496.316
496.144
496.423
496.759
496.586
496.598
495.254
495.974
495.761
495.793
495.58
496.087
496.266
496.597
496.829
496.937
496.862
496.758
496.678
496.776
495.873
495.966
495.778
496.274
496.551
496.367
496.457
495.725
495.796
495.612
496.164
496.436
496.268
496.337
494.421
494.654
494.642
495.016
495
495.249
495.581
495.583
495.057
495.828
495.389
495.641
495.953
496.134
495.7
495.748
495.583
496.145
496.409
496.251
496.305
496.522
496.798
496.791
496.887
496.63
496.7
496.69
495.03
495.538
495.799
495.364
495.62
495.938
496.105
496.205
496.185
496.011
496.316
496.686
496.504
496.489
495.426
494.775
495.477
495.312
495.358
495.868
495.979
495.593
495.101
495.839
495.429
495.675
495.981
496.143
494.512
494.72
494.749
495.073
495.108
495.312
495.639
496.555
496.81
496.859
496.902
496.666
496.711
496.75
495.857
495.945
495.741
496.243
496.548
496.356
496.441
496.216
496.234
496.042
496.348
496.704
496.514
496.544
495.156
495.721
495.901
495.512
495.692
496.022
496.226
496.284
496.296
496.11
496.396
496.747
496.563
496.581
495.801
495.718
495.633
496.189
496.429
496.353
496.272
496.572
496.928
496.807
496.852
496.735
496.764
496.654
494.738
494.788
494.508
495.35
495.07
495.123
495.656
495.723
495.946
495.207
495.763
495.528
496.057
496.244
495.375
494.738
495.425
495.282
495.333
495.85
495.94
495.937
495.831
495.735
496.243
496.533
496.438
496.332
495.977
495.759
495.261
495.811
495.586
496.102
496.269
496.615
496.94
496.874
496.862
496.783
496.773
496.708
495.971
495.898
495.798
496.298
496.561
496.465
496.394
495.243
495.737
495.568
495.959
495.794
496.086
496.251
494.859
494.648
495.202
494.875
495.436
495.225
495.747
495.947
495.882
495.781
496.282
496.541
496.446
496.383
494.89
495.537
495.429
495.55
495.447
495.956
496.057
496.523
496.795
496.898
496.838
496.697
496.633
496.727
495.539
495.807
495.029
495.362
495.63
495.941
496.113
496.194
496.215
496.009
496.317
496.697
496.498
496.522
495.355
495.407
494.686
495.236
495.283
495.809
495.92
495.911
495.81
495.691
496.197
496.52
496.311
496.409
494.637
494.432
494.682
495.001
495.254
495.047
495.584
495.674
495.865
495.102
495.646
495.458
495.976
496.191
495.956
495.896
495.782
496.284
496.562
496.458
496.393
496.25
496.251
496.081
496.389
496.721
496.562
496.55
495.732
495.914
495.196
495.554
495.729
496.063
496.24
495.881
495.923
495.763
496.271
496.534
496.383
496.426
495.533
494.863
495.408
495.547
495.429
495.942
496.055
495.697
495.186
495.538
495.899
495.732
496.053
496.215
494.6
494.806
495.17
494.805
495.178
495.367
495.707
488.432
485.664
483.256
488.675
485.987
483.676
488.568
485.834
483.492
488.593
485.81
483.369
488.022
485.14
482.628
488.039
485.179
482.701
488.073
485.216
482.758
488.723
486.003
483.613
488.992
486.341
484.023
491.706
489.91
488.227
488.049
485.174
482.665
491.61
489.796
488.102
491.255
489.294
487.482
490.911
488.799
486.896
488.496
485.705
483.248
487.859
484.872
482.272
488.591
485.86
483.465
488.879
486.222
483.897
492.4
491.179
490.209
491.228
489.262
487.449
490.899
488.778
486.855
487.962
485.088
482.593
488.019
485.144
482.684
487.822
484.841
482.242
487.845
484.862
482.255
487.846
484.863
482.256
487.821
484.851
482.256
487.835
484.856
482.257
488.78
486.106
483.801
488.821
486.138
483.809
488.663
485.938
483.607
488.485
485.756
483.42
488.586
485.887
483.552
487.818
484.848
482.252
487.794
484.826
482.237
487.859
484.905
482.33
487.887
484.952
482.399
487.882
484.937
482.36
487.877
484.921
482.343
487.957
485.017
482.444
487.881
484.924
482.343
487.814
484.848
482.262
489.123
486.474
484.138
490.827
488.699
486.778
489.125
486.487
484.164
490.872
488.746
486.823
488.028
485.163
482.704
488.037
485.164
482.695
488.599
485.841
483.391
488.064
485.208
482.746
488.078
485.209
482.714
488.119
485.258
482.797
488.041
485.173
482.716
488.021
485.148
482.689
488.515
485.788
483.457
488.639
485.948
483.636
488.06
485.195
482.717
488.112
485.252
482.794
488.983
486.329
484.012
490.932
488.917
487.07
490.62
488.464
486.533
490.97
488.956
487.103
490.648
488.493
486.556
492.645
491.453
490.512
492.683
491.508
490.583
490.807
488.664
486.73
489.016
486.366
484.034
490.912
488.798
486.895
488.877
486.164
483.763
489.166
486.532
484.212
487.809
484.846
482.251
488.081
485.19
482.677
488.618
485.828
483.373
487.87
484.877
482.27
487.8
484.844
482.26
488.434
485.683
483.308
488.67
485.986
483.695
488.52
485.73
483.291
487.861
484.874
482.274
488.882
486.228
483.913
490.889
488.864
487.003
490.582
488.409
486.462
491.413
489.568
487.848
491.376
489.525
487.799
490.568
488.41
486.508
490.788
488.724
486.864
491.415
489.581
487.9
488.728
486.012
483.63
488.988
486.342
484.026
490.988
488.985
487.145
490.657
488.51
486.584
492.372
491.14
490.167
492.395
491.172
490.206
492.645
491.45
490.497
492.685
491.51
490.582
490.769
488.622
486.69
489.001
486.351
484.022
490.858
488.747
486.872
490.843
488.734
486.849
488.866
486.154
483.76
489.146
486.51
484.187
487.81
484.848
482.254
488.504
485.747
483.357
488.623
485.896
483.55
488.071
485.181
482.676
487.87
484.878
482.27
487.795
484.838
482.254
488.504
485.712
483.264
488.068
485.179
482.676
488.434
485.677
483.303
488.7
486.007
483.694
488.537
485.8
483.454
490.845
488.82
486.963
490.527
488.354
486.409
491.421
489.596
487.906
491.407
489.575
487.897
491.41
489.593
487.92
490.584
488.438
486.543
490.823
488.778
486.943
490.554
488.408
486.512
488.995
486.35
484.046
490.669
488.527
486.605
492.375
491.142
490.161
490.863
488.734
486.811
488.825
486.109
483.709
489.149
486.508
484.177
488.865
486.157
483.757
489.167
486.532
484.216
488.042
485.164
482.69
487.997
485.121
482.619
488.035
485.159
482.698
488.052
485.182
482.682
488.096
485.234
482.772
488.086
485.218
482.721
488.104
485.239
482.777
487.914
485.041
482.546
487.977
485.107
482.651
488.568
485.87
483.55
488.098
485.239
482.788
488.09
485.228
482.766
490.978
488.977
487.138
490.643
488.492
486.557
488.676
485.95
483.556
488.964
486.31
483.996
490.639
488.491
486.566
488.982
486.333
484.019
488.062
485.197
482.712
488.238
485.426
483.08
487.851
484.994
482.626
487.707
484.84
482.406
488.029
485.158
482.654
488.221
485.407
483.055
487.904
484.996
482.484
487.889
484.978
482.465
487.847
484.942
482.44
488.052
485.215
482.852
487.999
485.132
482.662
488.11
485.282
482.929
488.03
485.172
482.703
488.176
485.348
482.998
487.749
484.886
482.461
487.952
485.112
482.762
487.885
484.969
482.416
487.782
484.872
482.331
487.878
484.926
482.353
487.906
484.977
482.429
487.904
485
482.501
488.009
485.182
482.843
488.017
485.155
482.691
488.112
485.292
482.944
488.913
486.233
483.894
488.466
485.687
483.306
488.875
486.191
483.857
488.495
485.716
483.342
488.394
485.612
483.237
488.698
486
483.684
488.004
485.149
482.696
488.181
485.356
482.998
487.985
485.138
482.766
487.738
484.871
482.433
487.912
484.997
482.442
487.794
484.882
482.339
487.835
484.931
482.406
487.771
484.862
482.333
488.063
485.239
482.872
487.921
485.075
482.649
488.086
485.264
482.911
488.788
486.095
483.747
488.372
485.573
483.181
488.78
486.107
483.792
489.009
486.379
484.068
488.403
485.62
483.19
488.574
485.852
483.523
488.377
485.605
483.207
488.077
485.206
482.673
488.105
485.247
482.768
488.158
485.332
482.924
488.093
485.258
482.824
488.325
485.526
483.155
488.258
485.443
482.99
488.245
485.419
482.965
488.175
485.319
482.833
489.218
486.644
484.379
489.331
486.805
484.619
489.507
487.026
484.846
489.168
486.602
484.367
488.955
486.343
484.087
488.956
486.313
484.018
488.688
485.982
483.642
488.857
486.192
483.926
489.269
486.703
484.417
489.599
487.118