/*--------------------------------*- C++ -*----------------------------------*\
| =========                 |                                                 |
| \\      /  F ield         | OpenFOAM: The Open Source CFD Toolbox           |
|  \\    /   O peration     | Version:  v1906                                 |
|   \\  /    A nd           | Web:      www.OpenFOAM.com                      |
|    \\/     M anipulation  |                                                 |
\*---------------------------------------------------------------------------*/
FoamFile
{
    version     2.0;
    format      ascii;
    class       volVectorField;
    location    "96";
    object      U;
}
// * * * * * * * * * * * * * * * * * * * * * * * * * * * * * * * * * * * * * //

dimensions      [0 1 -1 0 0 0 0];


internalField   nonuniform List<vector> 
78750
(
(-6.71398e-07 -5.60785e-05 0.000122225)
(-4.21558e-07 -8.30026e-05 0.000214557)
(-2.59303e-06 -8.91233e-05 0.000262041)
(-6.91865e-06 -8.71912e-05 0.000295053)
(-1.4028e-05 -8.04422e-05 0.000316824)
(-2.36231e-05 -7.08916e-05 0.000329946)
(-3.521e-05 -6.00116e-05 0.00033636)
(-4.82341e-05 -4.87944e-05 0.000337615)
(-6.22418e-05 -3.79558e-05 0.0003349)
(-7.67585e-05 -2.79397e-05 0.000329217)
(-9.13721e-05 -1.90863e-05 0.000321327)
(-0.000105706 -1.15224e-05 0.000311869)
(-0.000119434 -5.37063e-06 0.000301315)
(-0.00013224 -6.15723e-07 0.000290099)
(-0.000143865 2.7176e-06 0.000278543)
(-0.000154085 4.70824e-06 0.00026696)
(-0.000162705 5.37166e-06 0.000255581)
(-0.000169563 4.80844e-06 0.000244646)
(-0.000174527 3.05226e-06 0.000234326)
(-0.000177496 2.09275e-07 0.000224804)
(-0.000178401 -3.67565e-06 0.0002162)
(-0.000177189 -8.48758e-06 0.000208637)
(-0.000173837 -1.41623e-05 0.000202168)
(-0.000168353 -2.05603e-05 0.000196832)
(-0.000160754 -2.75706e-05 0.000192574)
(-0.000151091 -3.4993e-05 0.000189289)
(-0.000139443 -4.26168e-05 0.000186741)
(-0.000125886 -5.0106e-05 0.00018458)
(-0.000110543 -5.70742e-05 0.000182285)
(-9.35704e-05 -6.29492e-05 0.000179107)
(-7.5083e-05 -6.70114e-05 0.000173967)
(-5.51484e-05 -6.82378e-05 0.000165351)
(-3.44209e-05 -6.52577e-05 0.000151151)
(-1.71452e-05 -5.61944e-05 0.000128359)
(-4.4625e-06 -3.28297e-05 7.76024e-05)
(-3.21054e-07 6.13383e-05 -0.000150798)
(-1.04854e-05 0.000134017 -0.000237298)
(-2.14512e-05 0.000175271 -0.000270839)
(-3.81261e-05 0.000209621 -0.000297955)
(-5.61844e-05 0.000236924 -0.000319399)
(-7.43052e-05 0.000257625 -0.000335994)
(-9.18712e-05 0.000272713 -0.000348972)
(-0.000108488 0.000282692 -0.000359557)
(-0.000123778 0.000288417 -0.000368186)
(-0.00013752 0.000290195 -0.000375401)
(-0.000149522 0.000288721 -0.00038127)
(-0.000159717 0.000284165 -0.000386111)
(-0.000168004 0.000277121 -0.000389854)
(-0.000174415 0.000267648 -0.00039275)
(-0.000178913 0.000256272 -0.000394692)
(-0.000181561 0.00024305 -0.00039587)
(-0.000182382 0.000228439 -0.000396173)
(-0.000181465 0.000212476 -0.000395768)
(-0.000178871 0.000195577 -0.000394542)
(-0.000174712 0.000177774 -0.000392638)
(-0.000169077 0.000159446 -0.00038995)
(-0.000162097 0.000140618 -0.000386601)
(-0.00015388 0.000121641 -0.00038247)
(-0.000144577 0.000102535 -0.00037763)
(-0.00013431 8.36209e-05 -0.000371916)
(-0.000123227 6.49262e-05 -0.000365297)
(-0.00011144 4.67417e-05 -0.000357473)
(-9.91073e-05 2.90759e-05 -0.000348178)
(-8.63557e-05 1.22219e-05 -0.000336779)
(-7.331e-05 -3.75412e-06 -0.000322481)
(-5.99734e-05 -1.85003e-05 -0.000303852)
(-4.61177e-05 -3.17116e-05 -0.000278451)
(-3.1602e-05 -4.23111e-05 -0.000240757)
(-1.93955e-05 -4.77655e-05 -0.000184326)
(-1.12036e-05 -3.58953e-05 -6.92988e-05)
(1.36709e-06 0.000195696 -0.000132372)
(-4.17916e-06 0.000335504 -0.000219931)
(-8.54487e-06 0.000397316 -0.000255438)
(-1.59937e-05 0.00044168 -0.000279042)
(-2.41114e-05 0.000472453 -0.000295418)
(-3.21442e-05 0.00049297 -0.000307096)
(-3.98428e-05 0.000505181 -0.000315833)
(-4.70057e-05 0.000511014 -0.000322473)
(-5.35022e-05 0.000511447 -0.000327792)
(-5.92046e-05 0.000507693 -0.000332015)
(-6.40732e-05 0.000500231 -0.000335529)
(-6.80483e-05 0.000489899 -0.000338312)
(-7.1151e-05 0.000476924 -0.0003406)
(-7.33625e-05 0.000461935 -0.000342295)
(-7.47397e-05 0.000445043 -0.000343567)
(-7.52937e-05 0.000426803 -0.000344265)
(-7.50988e-05 0.000407288 -0.000344521)
(-7.41818e-05 0.000386953 -0.000344215)
(-7.26306e-05 0.000365836 -0.000343472)
(-7.04805e-05 0.000344357 -0.000342168)
(-6.78269e-05 0.000322532 -0.00034042)
(-6.47091e-05 0.00030074 -0.000338104)
(-6.12209e-05 0.000278982 -0.000335313)
(-5.74041e-05 0.000257594 -0.000331901)
(-5.33463e-05 0.000236555 -0.000327907)
(-4.90888e-05 0.00021609 -0.000323139)
(-4.47066e-05 0.000196126 -0.000317506)
(-4.02046e-05 0.000176879 -0.000310596)
(-3.56402e-05 0.000158227 -0.000301991)
(-3.10072e-05 0.000140237 -0.000290834)
(-2.62955e-05 0.000122655 -0.000275929)
(-2.12941e-05 0.000105373 -0.00025495)
(-1.5716e-05 8.78757e-05 -0.000223936)
(-1.01442e-05 6.97887e-05 -0.000178088)
(-7.26846e-06 3.81765e-05 -7.62558e-05)
(1.34553e-06 0.000271099 -3.81789e-05)
(-7.25958e-07 0.000447788 -0.000102401)
(-5.11543e-07 0.000526694 -0.000135414)
(-1.66315e-06 0.000583339 -0.000158179)
(-3.31099e-06 0.000623033 -0.000173299)
(-5.2274e-06 0.000649467 -0.000184313)
(-7.2393e-06 0.000665741 -0.000192928)
(-9.278e-06 0.000673815 -0.000200202)
(-1.12247e-05 0.000675588 -0.000206516)
(-1.30417e-05 0.000672087 -0.000212346)
(-1.46473e-05 0.000664542 -0.00021774)
(-1.60381e-05 0.000653485 -0.000222944)
(-1.71717e-05 0.00063978 -0.000227859)
(-1.80724e-05 0.0006237 -0.000232631)
(-1.87201e-05 0.000605904 -0.000237107)
(-1.91566e-05 0.000586532 -0.000241391)
(-1.93793e-05 0.00056612 -0.000245315)
(-1.94405e-05 0.000544735 -0.000248963)
(-1.93387e-05 0.000522833 -0.00025217)
(-1.91334e-05 0.000500434 -0.00025501)
(-1.88307e-05 0.000477926 -0.000257322)
(-1.84857e-05 0.000455287 -0.000259172)
(-1.80949e-05 0.000432831 -0.000260401)
(-1.77166e-05 0.000410562 -0.000261005)
(-1.73443e-05 0.000388711 -0.000260796)
(-1.69977e-05 0.000367088 -0.000259798)
(-1.66544e-05 0.000345807 -0.000257747)
(-1.63115e-05 0.00032457 -0.000254503)
(-1.58949e-05 0.000303235 -0.000249625)
(-1.53535e-05 0.000281264 -0.000242645)
(-1.45344e-05 0.000258149 -0.000232659)
(-1.31791e-05 0.000232913 -0.0002186)
(-1.07738e-05 0.000204377 -0.000198557)
(-7.41139e-06 0.000170804 -0.000168405)
(-5.87062e-06 0.000103644 -8.76665e-05)
(-1.08758e-07 0.000304823 2.10869e-05)
(-1.42818e-06 0.000492265 -1.99387e-05)
(1.79278e-07 0.000576963 -4.67123e-05)
(1.62536e-06 0.000638901 -6.585e-05)
(3.12724e-06 0.000683151 -7.85352e-05)
(4.62051e-06 0.00071395 -8.78237e-05)
(6.05604e-06 0.000734071 -9.55227e-05)
(7.41035e-06 0.000746036 -0.000102233)
(8.65859e-06 0.000751348 -0.000108477)
(9.80033e-06 0.00075158 -0.000114378)
(1.08144e-05 0.000747533 -0.000120211)
(1.17141e-05 0.000740248 -0.000125924)
(1.24698e-05 0.000730144 -0.000131663)
(1.30902e-05 0.000717964 -0.000137293)
(1.35485e-05 0.000703919 -0.000142907)
(1.38503e-05 0.000688578 -0.000148343)
(1.39603e-05 0.000672035 -0.000153667)
(1.3886e-05 0.000654747 -0.000158713)
(1.35963e-05 0.000636738 -0.000163534)
(1.30964e-05 0.000618378 -0.000167969)
(1.23566e-05 0.000599631 -0.000172065)
(1.13879e-05 0.000580798 -0.000175662)
(1.01694e-05 0.000561804 -0.000178785)
(8.72556e-06 0.000542852 -0.000181272)
(7.0523e-06 0.000523739 -0.000183141)
(5.19916e-06 0.000504492 -0.000184225)
(3.18419e-06 0.000484743 -0.000184495)
(1.09193e-06 0.000464276 -0.000183724)
(-1.01131e-06 0.000442416 -0.000181758)
(-3.00119e-06 0.000418522 -0.00017817)
(-4.74584e-06 0.000391368 -0.000172545)
(-5.95501e-06 0.000359569 -0.000164413)
(-6.11243e-06 0.000320879 -0.000153337)
(-4.71754e-06 0.000272552 -0.000135743)
(-4.36723e-06 0.000170814 -7.63898e-05)
(-7.4002e-07 0.000320492 5.18474e-05)
(-1.64205e-06 0.000507674 2.74051e-05)
(-9.36298e-09 0.000593253 7.1718e-06)
(1.84733e-06 0.000656666 -7.96507e-06)
(4.02012e-06 0.00070325 -1.80493e-05)
(6.32071e-06 0.000736701 -2.57873e-05)
(8.6525e-06 0.000760136 -3.24316e-05)
(1.09236e-05 0.000775568 -3.85847e-05)
(1.30825e-05 0.000784886 -4.44e-05)
(1.50764e-05 0.00078917 -5.01609e-05)
(1.68841e-05 0.000789621 -5.58639e-05)
(1.84659e-05 0.000786808 -6.16505e-05)
(1.98138e-05 0.000781542 -6.74325e-05)
(2.08924e-05 0.000774111 -7.32858e-05)
(2.17065e-05 0.000765104 -7.90799e-05)
(2.22262e-05 0.000754651 -8.48648e-05)
(2.24553e-05 0.000743202 -9.04971e-05)
(2.23705e-05 0.000730793 -9.60136e-05)
(2.1984e-05 0.00071778 -0.00010127)
(2.12755e-05 0.000704126 -0.000106297)
(2.026e-05 0.000690101 -0.000110954)
(1.89277e-05 0.000675597 -0.000115269)
(1.73065e-05 0.000660782 -0.000119108)
(1.53997e-05 0.000645446 -0.000122493)
(1.32487e-05 0.00062961 -0.000125291)
(1.08791e-05 0.000612904 -0.00012751)
(8.35844e-06 0.000595118 -0.000129001)
(5.73949e-06 0.000575588 -0.000129739)
(3.13096e-06 0.000553692 -0.000129508)
(6.23608e-07 0.000528249 -0.000128149)
(-1.62034e-06 0.000497904 -0.00012532)
(-3.38041e-06 0.000460552 -0.000121047)
(-4.1643e-06 0.000413539 -0.000115413)
(-3.47975e-06 0.000353112 -0.000105553)
(-3.37097e-06 0.000223643 -6.22621e-05)
(-8.54905e-07 0.000321851 5.97899e-05)
(-1.38457e-06 0.000505233 4.50698e-05)
(-4.28538e-08 0.000589654 3.00153e-05)
(1.62169e-06 0.000653167 1.84805e-05)
(3.61341e-06 0.000700617 1.06752e-05)
(5.76366e-06 0.000735888 4.662e-06)
(7.96341e-06 0.000761624 -6.61631e-07)
(1.01372e-05 0.000780116 -5.63135e-06)
(1.22224e-05 0.000792785 -1.05174e-05)
(1.41707e-05 0.000801024 -1.5325e-05)
(1.59411e-05 0.000805583 -2.02022e-05)
(1.75061e-05 0.000807355 -2.51031e-05)
(1.88334e-05 0.000806717 -3.00964e-05)
(1.99118e-05 0.000804279 -3.50896e-05)
(2.07139e-05 0.000800212 -4.01259e-05)
(2.12363e-05 0.000794957 -4.50921e-05)
(2.14598e-05 0.000788562 -5.00205e-05)
(2.13874e-05 0.000781358 -5.47932e-05)
(2.10077e-05 0.00077331 -5.9437e-05)
(2.03306e-05 0.000764662 -6.38356e-05)
(1.93502e-05 0.000755304 -6.80136e-05)
(1.80885e-05 0.000745384 -7.18592e-05)
(1.65477e-05 0.000734697 -7.53963e-05)
(1.47615e-05 0.000723263 -7.85175e-05)
(1.27463e-05 0.000710724 -8.12437e-05)
(1.05524e-05 0.000696893 -8.34682e-05)
(8.21705e-06 0.000681157 -8.52024e-05)
(5.81639e-06 0.000662974 -8.63279e-05)
(3.42504e-06 0.000641276 -8.68118e-05)
(1.14747e-06 0.000614903 -8.64534e-05)
(-9.03281e-07 0.00058197 -8.51501e-05)
(-2.51953e-06 0.000540227 -8.29644e-05)
(-3.31996e-06 0.000486314 -8.03222e-05)
(-2.87005e-06 0.000416024 -7.49264e-05)
(-2.69258e-06 0.000263826 -4.42284e-05)
(-6.95742e-07 0.000317617 5.56217e-05)
(-9.61627e-07 0.000498405 4.69115e-05)
(-1.02046e-07 0.00058214 3.64297e-05)
(9.83908e-07 0.000645593 2.81739e-05)
(2.3019e-06 0.000693791 2.25465e-05)
(3.73871e-06 0.000730236 1.80517e-05)
(5.22181e-06 0.000757817 1.40272e-05)
(6.69671e-06 0.000778424 1.01881e-05)
(8.11839e-06 0.000793758 6.48322e-06)
(9.45634e-06 0.000804832 2.74683e-06)
(1.06766e-05 0.000812681 -9.96999e-07)
(1.17531e-05 0.000817816 -4.80667e-06)
(1.2667e-05 0.000820905 -8.62925e-06)
(1.33978e-05 0.00082218 -1.25039e-05)
(1.39367e-05 0.000822098 -1.63472e-05)
(1.42659e-05 0.000820733 -2.01927e-05)
(1.43838e-05 0.000818409 -2.39495e-05)
(1.42791e-05 0.000815102 -2.76451e-05)
(1.39579e-05 0.00081104 -3.11872e-05)
(1.34148e-05 0.000806119 -3.46028e-05)
(1.26624e-05 0.00080048 -3.78019e-05)
(1.17014e-05 0.000793928 -4.0812e-05)
(1.05545e-05 0.000786493 -4.35462e-05)
(9.23243e-06 0.000777853 -4.6033e-05)
(7.76757e-06 0.000767862 -4.81877e-05)
(6.18305e-06 0.000755988 -5.00376e-05)
(4.52773e-06 0.000741794 -5.1497e-05)
(2.84386e-06 0.000724374 -5.25847e-05)
(1.20256e-06 0.000702781 -5.31916e-05)
(-3.33178e-07 0.00067545 -5.32791e-05)
(-1.66174e-06 0.000640525 -5.27052e-05)
(-2.64582e-06 0.000595265 -5.16543e-05)
(-2.99653e-06 0.000536179 -5.04435e-05)
(-2.47921e-06 0.000458414 -4.74924e-05)
(-2.0959e-06 0.000289452 -2.65612e-05)
(-6.44794e-07 0.000310641 4.81405e-05)
(-8.66926e-07 0.000490653 4.47313e-05)
(-5.08909e-07 0.000574182 3.86162e-05)
(-7.17404e-08 0.000637915 3.36146e-05)
(5.15325e-07 0.000686604 3.00809e-05)
(1.18982e-06 0.000724002 2.71962e-05)
(1.91219e-06 0.000752698 2.44964e-05)
(2.65081e-06 0.000774849 2.18941e-05)
(3.37944e-06 0.000791835 1.93e-05)
(4.06942e-06 0.000804927 1.67392e-05)
(4.70457e-06 0.000814846 1.41273e-05)
(5.27155e-06 0.000822373 1.14969e-05)
(5.75087e-06 0.000827847 8.81499e-06)
(6.13788e-06 0.000831768 6.13361e-06)
(6.41768e-06 0.000834265 3.44449e-06)
(6.58372e-06 0.000835675 8.14404e-07)
(6.62562e-06 0.000836001 -1.79118e-06)
(6.54642e-06 0.000835471 -4.30035e-06)
(6.33959e-06 0.000833998 -6.74639e-06)
(6.00933e-06 0.000831723 -9.05736e-06)
(5.55708e-06 0.000828476 -1.12661e-05)
(4.99232e-06 0.000824297 -1.33033e-05)
(4.32249e-06 0.00081891 -1.52029e-05)
(3.56413e-06 0.000812215 -1.68985e-05)
(2.73124e-06 0.000803762 -1.84252e-05)
(1.84843e-06 0.000793222 -1.97189e-05)
(9.39535e-07 0.000779848 -2.08148e-05)
(4.37414e-08 0.000762913 -2.16492e-05)
(-8.07717e-07 0.000741144 -2.22447e-05)
(-1.56357e-06 0.00071311 -2.2511e-05)
(-2.16994e-06 0.000676597 -2.24601e-05)
(-2.5321e-06 0.000628916 -2.2183e-05)
(-2.47953e-06 0.000566159 -2.20378e-05)
(-1.90535e-06 0.000483382 -2.09892e-05)
(-1.44707e-06 0.000303182 -9.08411e-06)
(-7.96961e-07 0.000302883 4.17055e-05)
(-1.15432e-06 0.000482365 4.38114e-05)
(-1.2697e-06 0.000565794 4.19286e-05)
(-1.41921e-06 0.00062952 3.99893e-05)
(-1.45101e-06 0.000678489 3.8491e-05)
(-1.38902e-06 0.000716236 3.7069e-05)
(-1.2703e-06 0.000745572 3.5621e-05)
(-1.10795e-06 0.000768403 3.40927e-05)
(-9.23303e-07 0.000786349 3.25313e-05)
(-7.23459e-07 0.000800415 3.09022e-05)
(-5.23416e-07 0.000811549 2.9268e-05)
(-3.31577e-07 0.000820254 2.76029e-05)
(-1.58705e-07 0.000827116 2.59616e-05)
(-1.63258e-08 0.000832362 2.43152e-05)
(9.31406e-08 0.000836371 2.2683e-05)
(1.66618e-07 0.000839197 2.1042e-05)
(2.00052e-07 0.000841081 1.94517e-05)
(1.90803e-07 0.000841971 1.78795e-05)
(1.39197e-07 0.000842014 1.63825e-05)
(4.30894e-08 0.000841077 1.49274e-05)
(-9.41936e-08 0.000839217 1.35709e-05)
(-2.69871e-07 0.000836205 1.22784e-05)
(-4.77115e-07 0.000831988 1.1103e-05)
(-7.07966e-07 0.000826198 1.00056e-05)
(-9.53287e-07 0.000818603 9.03448e-06)
(-1.20456e-06 0.000808608 8.14664e-06)
(-1.44309e-06 0.000795673 7.38444e-06)
(-1.66051e-06 0.000778809 6.69879e-06)
(-1.83138e-06 0.000756935 6.12708e-06)
(-1.94149e-06 0.000728353 5.62102e-06)
(-1.96936e-06 0.000691018 5.1949e-06)
(-1.87748e-06 0.00064197 4.65002e-06)
(-1.5863e-06 0.000577418 3.70793e-06)
(-1.06578e-06 0.000492141 2.74827e-06)
(-6.99663e-07 0.000306718 6.16563e-06)
(-1.02624e-06 0.000294645 3.71724e-05)
(-1.57507e-06 0.000472513 4.44444e-05)
(-2.03764e-06 0.00055516 4.61196e-05)
(-2.60325e-06 0.000618424 4.67832e-05)
(-3.03254e-06 0.000667033 4.69746e-05)
(-3.35378e-06 0.00070469 4.68227e-05)
(-3.5903e-06 0.000733975 4.63803e-05)
(-3.76565e-06 0.000756989 4.57633e-05)
(-3.88359e-06 0.000775116 4.50002e-05)
(-3.95839e-06 0.000789569 4.4166e-05)
(-3.98882e-06 0.000801068 4.32532e-05)
(-3.99131e-06 0.00081033 4.23155e-05)
(-3.96408e-06 0.0008177 4.13312e-05)
(-3.91775e-06 0.00082361 4.03545e-05)
(-3.85476e-06 0.000828184 3.93719e-05)
(-3.77653e-06 0.000831699 3.84255e-05)
(-3.68761e-06 0.000834155 3.7485e-05)
(-3.5886e-06 0.000835723 3.65942e-05)
(-3.47997e-06 0.000836312 3.572e-05)
(-3.36339e-06 0.000836003 3.49055e-05)
(-3.239e-06 0.00083462 3.41152e-05)
(-3.10402e-06 0.000832149 3.33898e-05)
(-2.956e-06 0.000828303 3.26908e-05)
(-2.79537e-06 0.000822929 3.20547e-05)
(-2.61958e-06 0.000815566 3.14388e-05)
(-2.42406e-06 0.000805834 3.08722e-05)
(-2.20944e-06 0.000792975 3.03024e-05)
(-1.97049e-06 0.000776209 2.97435e-05)
(-1.70995e-06 0.00075425 2.9124e-05)
(-1.42834e-06 0.000725615 2.84305e-05)
(-1.13353e-06 0.000688073 2.75396e-05)
(-8.2978e-07 0.000638876 2.62809e-05)
(-5.16562e-07 0.000574092 2.42508e-05)
(-1.63063e-07 0.000488705 2.14105e-05)
(-9.05218e-09 0.000303199 1.75956e-05)
(-1.16638e-06 0.000286215 3.27833e-05)
(-1.83064e-06 0.000460833 4.33527e-05)
(-2.48034e-06 0.000542016 4.73184e-05)
(-3.24683e-06 0.00060412 4.96355e-05)
(-3.86676e-06 0.000651939 5.09536e-05)
(-4.35168e-06 0.000688937 5.16129e-05)
(-4.74632e-06 0.000717822 5.18631e-05)
(-5.05899e-06 0.000740474 5.18207e-05)
(-5.30599e-06 0.000758435 5.16096e-05)
(-5.48462e-06 0.000772705 5.12644e-05)
(-5.60828e-06 0.000784178 5.08565e-05)
(-5.67375e-06 0.000793361 5.0386e-05)
(-5.6904e-06 0.000800786 4.99028e-05)
(-5.6594e-06 0.000806681 4.93924e-05)
(-5.5849e-06 0.000811368 4.88959e-05)
(-5.4686e-06 0.000814915 4.83914e-05)
(-5.31362e-06 0.000817515 4.79157e-05)
(-5.1202e-06 0.000819131 4.74424e-05)
(-4.89353e-06 0.000819865 4.70052e-05)
(-4.63066e-06 0.000819596 4.65744e-05)
(-4.33525e-06 0.000818342 4.61807e-05)
(-4.00964e-06 0.000815888 4.57915e-05)
(-3.6554e-06 0.000812145 4.54334e-05)
(-3.27046e-06 0.000806765 4.50691e-05)
(-2.86099e-06 0.000799488 4.47186e-05)
(-2.43091e-06 0.000789747 4.43357e-05)
(-1.97943e-06 0.000776993 4.39267e-05)
(-1.52172e-06 0.000760274 4.34252e-05)
(-1.0624e-06 0.000738528 4.28067e-05)
(-6.17355e-07 0.000710125 4.19615e-05)
(-2.08677e-07 0.000673078 4.07882e-05)
(1.27262e-07 0.000624543 3.90186e-05)
(3.56238e-07 0.000560872 3.62596e-05)
(5.18486e-07 0.000477041 3.21083e-05)
(4.74721e-07 0.000295319 2.35654e-05)
(-1.07972e-06 0.000278276 2.69875e-05)
(-1.71641e-06 0.000448892 3.8017e-05)
(-2.36309e-06 0.00052818 4.26269e-05)
(-3.13141e-06 0.000588898 4.54866e-05)
(-3.75426e-06 0.0006356 4.71684e-05)
(-4.25811e-06 0.000671798 4.81422e-05)
(-4.6669e-06 0.000699987 4.86553e-05)
(-5.00329e-06 0.000722155 4.88853e-05)
(-5.26412e-06 0.000739649 4.89138e-05)
(-5.4607e-06 0.000753606 4.88295e-05)
(-5.59331e-06 0.000764737 4.8657e-05)
(-5.6704e-06 0.000773702 4.84487e-05)
(-5.68765e-06 0.000780853 4.82041e-05)
(-5.65471e-06 0.000786581 4.79603e-05)
(-5.56699e-06 0.000791033 4.77053e-05)
(-5.43181e-06 0.000794442 4.74692e-05)
(-5.24836e-06 0.000796828 4.72341e-05)
(-5.02275e-06 0.000798323 4.70262e-05)
(-4.75109e-06 0.000798858 4.68237e-05)
(-4.44056e-06 0.000798481 4.66491e-05)
(-4.09526e-06 0.000797043 4.64779e-05)
(-3.71301e-06 0.000794501 4.63289e-05)
(-3.29861e-06 0.000790599 4.61733e-05)
(-2.85741e-06 0.000785168 4.6025e-05)
(-2.39551e-06 0.000777788 4.58489e-05)
(-1.91401e-06 0.000768078 4.56489e-05)
(-1.42677e-06 0.000755339 4.53762e-05)
(-9.40806e-07 0.000738819 4.50131e-05)
(-4.70908e-07 0.000717332 4.44789e-05)
(-3.16816e-08 0.000689465 4.37068e-05)
(3.45166e-07 0.000653151 4.25379e-05)
(6.21105e-07 0.000605798 4.07557e-05)
(7.45642e-07 0.000543761 3.79362e-05)
(7.80512e-07 0.000462324 3.36082e-05)
(6.38021e-07 0.00028599 2.36933e-05)
(-7.70032e-07 0.000271874 1.91292e-05)
(-1.25294e-06 0.000438976 2.76955e-05)
(-1.7651e-06 0.000516663 3.14404e-05)
(-2.38312e-06 0.00057611 3.37766e-05)
(-2.91028e-06 0.000621878 3.51509e-05)
(-3.34723e-06 0.000657282 3.59349e-05)
(-3.71805e-06 0.000684887 3.63645e-05)
(-4.02323e-06 0.000706506 3.65546e-05)
(-4.27434e-06 0.000723593 3.66013e-05)
(-4.46406e-06 0.000737128 3.65467e-05)
(-4.59936e-06 0.000747943 3.64427e-05)
(-4.67924e-06 0.000756549 3.63009e-05)
(-4.70869e-06 0.000763431 3.61543e-05)
(-4.68383e-06 0.000768836 3.60005e-05)
(-4.61356e-06 0.000773048 3.5864e-05)
(-4.49488e-06 0.000776157 3.57358e-05)
(-4.33271e-06 0.000778326 3.56355e-05)
(-4.12758e-06 0.000779542 3.55499e-05)
(-3.88622e-06 0.000779881 3.54952e-05)
(-3.60877e-06 0.000779251 3.54548e-05)
(-3.29813e-06 0.000777647 3.54419e-05)
(-2.96216e-06 0.000774887 3.54365e-05)
(-2.60127e-06 0.000770865 3.5448e-05)
(-2.22181e-06 0.000765274 3.54522e-05)
(-1.828e-06 0.00075785 3.54526e-05)
(-1.42772e-06 0.000748082 3.54178e-05)
(-1.02707e-06 0.000735433 3.53394e-05)
(-6.35047e-07 0.00071904 3.517e-05)
(-2.61537e-07 0.000697889 3.48751e-05)
(7.54492e-08 0.000670482 3.43693e-05)
(3.59382e-07 0.000634952 3.3556e-05)
(5.57373e-07 0.000588666 3.22416e-05)
(6.34177e-07 0.000528229 3.01318e-05)
(6.32687e-07 0.00044897 2.68027e-05)
(5.0807e-07 0.000277635 1.87911e-05)
(-3.23761e-07 0.000268089 1.00542e-05)
(-5.89752e-07 0.000433452 1.42045e-05)
(-8.79002e-07 0.000510302 1.6068e-05)
(-1.2811e-06 0.000569128 1.71941e-05)
(-1.65927e-06 0.000614356 1.77835e-05)
(-2.00383e-06 0.000649351 1.80597e-05)
(-2.31128e-06 0.000676555 1.81422e-05)
(-2.58551e-06 0.000697863 1.81103e-05)
(-2.81684e-06 0.000714611 1.80078e-05)
(-3.00985e-06 0.000727877 1.78783e-05)
(-3.15585e-06 0.000738379 1.77171e-05)
(-3.26238e-06 0.000746735 1.75511e-05)
(-3.32093e-06 0.000753319 1.73882e-05)
(-3.33625e-06 0.000758486 1.72468e-05)
(-3.30947e-06 0.000762411 1.71248e-05)
(-3.24407e-06 0.000765297 1.70372e-05)
(-3.14238e-06 0.000767193 1.69779e-05)
(-3.00719e-06 0.000768205 1.69583e-05)
(-2.84062e-06 0.000768295 1.69698e-05)
(-2.6509e-06 0.000767486 1.70204e-05)
(-2.43858e-06 0.000765662 1.7099e-05)
(-2.20641e-06 0.00076276 1.72103e-05)
(-1.96263e-06 0.000758561 1.73402e-05)
(-1.71007e-06 0.000752878 1.74905e-05)
(-1.45284e-06 0.00074534 1.76435e-05)
(-1.19254e-06 0.000735556 1.77963e-05)
(-9.40241e-07 0.000722892 1.79254e-05)
(-6.94295e-07 0.000706608 1.802e-05)
(-4.64998e-07 0.000685603 1.80436e-05)
(-2.54928e-07 0.000658516 1.79665e-05)
(-7.58153e-08 0.000623414 1.77234e-05)
(6.25665e-08 0.000577817 1.72349e-05)
(1.47512e-07 0.000518306 1.63492e-05)
(2.0395e-07 0.000440391 1.48551e-05)
(1.77014e-07 0.000272038 1.09265e-05)
(1.1194e-07 0.000267524 1.30331e-06)
(5.12759e-08 0.000433402 5.86133e-07)
(-2.21622e-08 0.000510495 3.48153e-07)
(-2.10361e-07 0.000569446 1.01651e-07)
(-4.55491e-07 0.000614757 -1.90903e-07)
(-7.14377e-07 0.000649742 -5.08e-07)
(-9.78604e-07 0.000676925 -8.34637e-07)
(-1.22819e-06 0.000698135 -1.16831e-06)
(-1.45642e-06 0.000714795 -1.50463e-06)
(-1.65804e-06 0.000727904 -1.84248e-06)
(-1.82732e-06 0.000738271 -2.15045e-06)
(-1.95804e-06 0.000746434 -2.42784e-06)
(-2.05653e-06 0.000752856 -2.66844e-06)
(-2.11603e-06 0.000757813 -2.87111e-06)
(-2.14156e-06 0.000761567 -3.02697e-06)
(-2.13547e-06 0.000764239 -3.13745e-06)
(-2.09961e-06 0.000765969 -3.19508e-06)
(-2.03904e-06 0.000766777 -3.20346e-06)
(-1.95768e-06 0.000766714 -3.15802e-06)
(-1.85985e-06 0.000765719 -3.06436e-06)
(-1.74871e-06 0.000763764 -2.92021e-06)
(-1.63053e-06 0.000760699 -2.73351e-06)
(-1.50761e-06 0.000756393 -2.50396e-06)
(-1.38475e-06 0.000750575 -2.24098e-06)
(-1.2634e-06 0.000742958 -1.94574e-06)
(-1.14909e-06 0.000733068 -1.62791e-06)
(-1.03889e-06 0.000720356 -1.28871e-06)
(-9.34943e-07 0.000703999 -9.36411e-07)
(-8.37892e-07 0.000682982 -5.70373e-07)
(-7.47056e-07 0.000655865 -1.94577e-07)
(-6.50993e-07 0.000620798 1.97374e-07)
(-5.47974e-07 0.000575234 6.18255e-07)
(-4.17998e-07 0.00051583 1.10362e-06)
(-2.70488e-07 0.000438048 1.66472e-06)
(-1.82822e-07 0.00027008 2.471e-06)
(4.41105e-07 0.000270071 -5.6031e-06)
(5.1665e-07 0.000438532 -1.02967e-05)
(6.1757e-07 0.000516782 -1.23062e-05)
(5.92557e-07 0.00057659 -1.37241e-05)
(4.6094e-07 0.00062248 -1.47819e-05)
(2.67298e-07 0.000657881 -1.56111e-05)
(5.11893e-08 0.000685302 -1.62917e-05)
(-1.74859e-07 0.000706667 -1.68682e-05)
(-3.92165e-07 0.000723366 -1.73711e-05)
(-5.98846e-07 0.000736482 -1.78149e-05)
(-7.81121e-07 0.000746779 -1.82084e-05)
(-9.35504e-07 0.000754872 -1.8552e-05)
(-1.06167e-06 0.000761169 -1.88458e-05)
(-1.15869e-06 0.000766018 -1.90858e-05)
(-1.2247e-06 0.000769624 -1.92708e-05)
(-1.26727e-06 0.000772177 -1.93962e-05)
(-1.28783e-06 0.000773757 -1.94612e-05)
(-1.29067e-06 0.000774448 -1.94633e-05)
(-1.27791e-06 0.000774244 -1.94034e-05)
(-1.25597e-06 0.000773144 -1.92811e-05)
(-1.22972e-06 0.000771059 -1.90993e-05)
(-1.20198e-06 0.0007679 -1.88595e-05)
(-1.17766e-06 0.000763472 -1.85661e-05)
(-1.15922e-06 0.000757563 -1.82211e-05)
(-1.14944e-06 0.000749819 -1.78279e-05)
(-1.14462e-06 0.000739823 -1.73865e-05)
(-1.1474e-06 0.000726954 -1.68954e-05)
(-1.15304e-06 0.000710442 -1.63455e-05)
(-1.15845e-06 0.000689194 -1.57211e-05)
(-1.14902e-06 0.000661811 -1.49914e-05)
(-1.1175e-06 0.000626361 -1.41051e-05)
(-1.03431e-06 0.000580316 -1.29623e-05)
(-8.66192e-07 0.000520232 -1.13882e-05)
(-6.32475e-07 0.000441564 -9.17413e-06)
(-4.68859e-07 0.000271635 -4.49439e-06)
(5.95197e-07 0.000274903 -9.71261e-06)
(7.24192e-07 0.000447187 -1.65691e-05)
(9.15956e-07 0.000527196 -1.95507e-05)
(9.82204e-07 0.000588284 -2.16132e-05)
(9.18026e-07 0.000635115 -2.30908e-05)
(7.80019e-07 0.000671172 -2.4207e-05)
(5.99746e-07 0.000699068 -2.50916e-05)
(4.04661e-07 0.000720736 -2.58197e-05)
(2.03866e-07 0.000737642 -2.6437e-05)
(1.25577e-08 0.000750858 -2.69697e-05)
(-1.60448e-07 0.000761212 -2.74326e-05)
(-3.14024e-07 0.000769292 -2.78319e-05)
(-4.45712e-07 0.000775564 -2.81697e-05)
(-5.50105e-07 0.000780343 -2.84452e-05)
(-6.33787e-07 0.000783886 -2.86568e-05)
(-6.94457e-07 0.000786345 -2.8802e-05)
(-7.40827e-07 0.000787848 -2.88793e-05)
(-7.71531e-07 0.00078844 -2.88872e-05)
(-7.94261e-07 0.000788159 -2.88259e-05)
(-8.12843e-07 0.000786962 -2.86954e-05)
(-8.30119e-07 0.000784801 -2.84982e-05)
(-8.54337e-07 0.000781544 -2.82355e-05)
(-8.83953e-07 0.000777033 -2.79108e-05)
(-9.24686e-07 0.000771008 -2.75253e-05)
(-9.76366e-07 0.00076315 -2.70806e-05)
(-1.03736e-06 0.000752989 -2.65739e-05)
(-1.1035e-06 0.00073993 -2.59992e-05)
(-1.17255e-06 0.000723143 -2.53406e-05)
(-1.23468e-06 0.000701552 -2.45713e-05)
(-1.27883e-06 0.000673683 -2.36437e-05)
(-1.28595e-06 0.000637598 -2.24799e-05)
(-1.2245e-06 0.000590676 -2.09353e-05)
(-1.04474e-06 0.000529427 -1.87604e-05)
(-7.82579e-07 0.000449175 -1.564e-05)
(-6.04718e-07 0.000275814 -8.81755e-06)
(5.67997e-07 0.000280802 -1.08423e-05)
(6.6373e-07 0.000457131 -1.77603e-05)
(8.57181e-07 0.00053899 -2.07896e-05)
(9.32555e-07 0.000601455 -2.28865e-05)
(8.90234e-07 0.000649281 -2.4384e-05)
(7.78428e-07 0.000686069 -2.55137e-05)
(6.31625e-07 0.000714472 -2.64076e-05)
(4.67752e-07 0.000736501 -2.71438e-05)
(3.03318e-07 0.000753636 -2.77677e-05)
(1.46677e-07 0.000767006 -2.83072e-05)
(2.79942e-09 0.000777433 -2.87763e-05)
(-1.2067e-07 0.000785553 -2.91824e-05)
(-2.21536e-07 0.000791817 -2.95268e-05)
(-3.02999e-07 0.000796578 -2.98095e-05)
(-3.63689e-07 0.000800074 -3.00279e-05)
(-4.07249e-07 0.000802492 -3.01805e-05)
(-4.36108e-07 0.000803934 -3.02646e-05)
(-4.56025e-07 0.000804478 -3.02798e-05)
(-4.70395e-07 0.000804133 -3.02248e-05)
(-4.82639e-07 0.000802888 -3.01011e-05)
(-4.99487e-07 0.000800662 -2.99095e-05)
(-5.23821e-07 0.000797349 -2.96529e-05)
(-5.59511e-07 0.000792759 -2.93329e-05)
(-6.06371e-07 0.000786654 -2.89524e-05)
(-6.65839e-07 0.000778676 -2.85114e-05)
(-7.39631e-07 0.000768373 -2.80086e-05)
(-8.24312e-07 0.000755104 -2.74363e-05)
(-9.108e-07 0.000738047 -2.67802e-05)
(-9.93793e-07 0.000716069 -2.60116e-05)
(-1.05873e-06 0.000687688 -2.50842e-05)
(-1.09452e-06 0.000650889 -2.39181e-05)
(-1.0632e-06 0.000603016 -2.23718e-05)
(-9.20896e-07 0.000540463 -2.01959e-05)
(-6.89253e-07 0.000458472 -1.70727e-05)
(-5.69207e-07 0.000281303 -1.01829e-05)
(4.05981e-07 0.000286493 -9.55404e-06)
(4.19762e-07 0.000466149 -1.47444e-05)
(5.44877e-07 0.000549543 -1.70337e-05)
(5.74033e-07 0.00061314 -1.86405e-05)
(5.19584e-07 0.000661802 -1.98126e-05)
(4.2162e-07 0.00069919 -2.07168e-05)
(3.03866e-07 0.000728026 -2.14509e-05)
(1.80175e-07 0.000750349 -2.20693e-05)
(5.80978e-08 0.000767688 -2.26058e-05)
(-5.04191e-08 0.000781179 -2.30776e-05)
(-1.42574e-07 0.000791683 -2.34952e-05)
(-2.146e-07 0.00079983 -2.38605e-05)
(-2.64976e-07 0.000806104 -2.41745e-05)
(-2.9784e-07 0.000810847 -2.4434e-05)
(-3.10781e-07 0.000814322 -2.46373e-05)
(-3.08695e-07 0.000816703 -2.47804e-05)
(-2.93915e-07 0.000818115 -2.48621e-05)
(-2.71763e-07 0.00081862 -2.48801e-05)
(-2.47015e-07 0.000818245 -2.48348e-05)
(-2.22589e-07 0.000816961 -2.47258e-05)
(-2.03773e-07 0.000814705 -2.45557e-05)
(-1.94699e-07 0.000811348 -2.43258e-05)
(-1.97218e-07 0.000806717 -2.40403e-05)
(-2.1559e-07 0.000800548 -2.37009e-05)
(-2.49831e-07 0.000792494 -2.33106e-05)
(-2.99108e-07 0.000782071 -2.28687e-05)
(-3.61837e-07 0.000768648 -2.23729e-05)
(-4.35019e-07 0.000751362 -2.18127e-05)
(-5.10364e-07 0.000729076 -2.11702e-05)
(-5.80314e-07 0.000700259 -2.04112e-05)
(-6.33115e-07 0.000662873 -1.94798e-05)
(-6.43114e-07 0.000614192 -1.8272e-05)
(-5.77065e-07 0.000550552 -1.66088e-05)
(-4.30284e-07 0.000467094 -1.42535e-05)
(-4.02427e-07 0.00028674 -9.08226e-06)
(1.69661e-07 0.000290894 -6.76373e-06)
(8.14791e-08 0.000472536 -9.081e-06)
(9.23825e-08 0.000556845 -1.01224e-05)
(3.98912e-08 0.000621126 -1.09004e-05)
(-4.39687e-08 0.000670282 -1.15207e-05)
(-1.42067e-07 0.000708029 -1.20435e-05)
(-2.34178e-07 0.000737111 -1.25038e-05)
(-3.19687e-07 0.000759605 -1.29212e-05)
(-3.89883e-07 0.000777045 -1.33053e-05)
(-4.42131e-07 0.0007906 -1.36601e-05)
(-4.73278e-07 0.000801126 -1.39851e-05)
(-4.83333e-07 0.00080928 -1.4278e-05)
(-4.7153e-07 0.000815536 -1.45345e-05)
(-4.39971e-07 0.00082026 -1.47506e-05)
(-3.919e-07 0.000823705 -1.49217e-05)
(-3.27459e-07 0.00082606 -1.50446e-05)
(-2.538e-07 0.000827443 -1.51159e-05)
(-1.73669e-07 0.000827926 -1.51344e-05)
(-9.03738e-08 0.000827528 -1.5099e-05)
(-9.43077e-09 0.000826231 -1.5011e-05)
(6.40122e-08 0.000823958 -1.48715e-05)
(1.26982e-07 0.000820592 -1.46838e-05)
(1.76522e-07 0.000815943 -1.44513e-05)
(2.11101e-07 0.000809755 -1.41785e-05)
(2.25857e-07 0.000801665 -1.38695e-05)
(2.21499e-07 0.000791193 -1.35285e-05)
(1.99028e-07 0.000777687 -1.31577e-05)
(1.60297e-07 0.000760284 -1.27572e-05)
(1.05711e-07 0.000737819 -1.23229e-05)
(4.26299e-08 0.000708756 -1.18444e-05)
(-2.22769e-08 0.000671017 -1.13013e-05)
(-7.97811e-08 0.00062186 -1.06543e-05)
(-1.10854e-07 0.000557566 -9.8339e-06)
(-8.44035e-08 0.000473234 -8.74235e-06)
(-1.65929e-07 0.000290981 -6.43544e-06)
(-7.71875e-08 0.000293327 -3.51185e-06)
(-2.58288e-07 0.000475354 -2.54759e-06)
(-3.68023e-07 0.000559849 -2.15453e-06)
(-5.08132e-07 0.00062426 -1.97427e-06)
(-6.31103e-07 0.000673506 -1.95307e-06)
(-7.28132e-07 0.000711302 -2.02915e-06)
(-7.99574e-07 0.000740409 -2.16713e-06)
(-8.50409e-07 0.000762898 -2.34467e-06)
(-8.74229e-07 0.000780323 -2.54591e-06)
(-8.71368e-07 0.000793842 -2.75796e-06)
(-8.4399e-07 0.000804331 -2.97003e-06)