/*--------------------------------*- C++ -*----------------------------------*\
| =========                 |                                                 |
| \\      /  F ield         | OpenFOAM: The Open Source CFD Toolbox           |
|  \\    /   O peration     | Version:  v1912                                 |
|   \\  /    A nd           | Website:  www.openfoam.com                      |
|    \\/     M anipulation  |                                                 |
\*---------------------------------------------------------------------------*/
FoamFile
{
    version     2.0;
    format      ascii;
    class       volVectorField;
    location    "514/oil";
    object      U;
}
// * * * * * * * * * * * * * * * * * * * * * * * * * * * * * * * * * * * * * //

dimensions      [0 1 -1 0 0 0 0];


internalField   nonuniform List<vector> 
35580
(
(-1.24098e-09 2.47048e-09 -1.26556e-09)
(1.26244e-09 2.24635e-09 -3.03921e-09)
(1.16497e-08 2.21588e-09 -4.88812e-09)
(2.8011e-08 2.76672e-09 -6.76018e-09)
(4.79045e-08 3.64611e-09 -8.2679e-09)
(6.85446e-08 4.68168e-09 -9.28299e-09)
(8.73545e-08 5.77475e-09 -9.79558e-09)
(1.02097e-07 6.87887e-09 -9.8632e-09)
(1.10944e-07 7.96558e-09 -9.573e-09)
(1.12678e-07 9.00599e-09 -9.00704e-09)
(1.06634e-07 9.94588e-09 -8.23941e-09)
(9.28635e-08 1.07413e-08 -7.47314e-09)
(7.22018e-08 1.13645e-08 -6.76132e-09)
(4.59447e-08 1.1838e-08 -6.2538e-09)
(1.61146e-08 1.20987e-08 -5.98832e-09)
(-1.5019e-08 1.213e-08 -5.99366e-09)
(-4.49391e-08 1.18574e-08 -6.25356e-09)
(-7.12514e-08 1.13757e-08 -6.74604e-09)
(-9.20413e-08 1.07132e-08 -7.42695e-09)
(-1.0594e-07 9.93297e-09 -8.20381e-09)
(-1.12202e-07 9.00868e-09 -8.96332e-09)
(-1.10638e-07 7.95568e-09 -9.55469e-09)
(-1.01895e-07 6.86828e-09 -9.84414e-09)
(-8.72501e-08 5.76708e-09 -9.78591e-09)
(-6.8511e-08 4.6737e-09 -9.2754e-09)
(-4.79278e-08 3.64134e-09 -8.26084e-09)
(-2.80688e-08 2.7624e-09 -6.74927e-09)
(-1.17153e-08 2.20527e-09 -4.86674e-09)
(-1.3185e-09 2.22386e-09 -3.0126e-09)
(1.21563e-09 2.42457e-09 -1.24619e-09)
(6.36563e-10 -2.31037e-09 6.21754e-10)
(1.27901e-08 -1.41501e-08 5.35983e-10)
(3.72695e-08 -2.36028e-08 -3.21298e-10)
(7.13785e-08 -2.87329e-08 -1.44213e-09)
(1.1107e-07 -3.036e-08 -2.26918e-09)
(1.51578e-07 -2.93593e-08 -2.55459e-09)
(1.88125e-07 -2.6454e-08 -2.24062e-09)
(2.16404e-07 -2.21861e-08 -1.37012e-09)
(2.32846e-07 -1.70154e-08 -4.65921e-11)
(2.34942e-07 -1.13738e-08 1.57756e-09)
(2.21311e-07 -5.71193e-09 3.47857e-09)
(1.91984e-07 -5.19629e-10 5.26126e-09)
(1.4878e-07 3.76438e-09 6.82779e-09)
(9.45386e-08 6.89325e-09 7.95253e-09)
(3.31341e-08 8.55324e-09 8.54623e-09)
(-3.09232e-08 8.58843e-09 8.56549e-09)
(-9.25323e-08 6.86019e-09 7.98e-09)
(-1.46869e-07 3.66919e-09 6.8898e-09)
(-1.90088e-07 -7.08513e-10 5.36302e-09)
(-2.19506e-07 -5.84253e-09 3.58189e-09)
(-2.33506e-07 -1.14963e-08 1.71269e-09)
(-2.31724e-07 -1.71288e-08 4.74039e-11)
(-2.15537e-07 -2.22633e-08 -1.28145e-09)
(-1.87542e-07 -2.65025e-08 -2.17066e-09)
(-1.51241e-07 -2.94073e-08 -2.49606e-09)
(-1.10931e-07 -3.04249e-08 -2.21662e-09)
(-7.13826e-08 -2.88324e-08 -1.39946e-09)
(-3.73256e-08 -2.37395e-08 -2.84623e-10)
(-1.28242e-08 -1.42908e-08 5.56415e-10)
(-6.43123e-10 -2.42866e-09 6.11794e-10)
(2.4988e-09 -2.28202e-08 2.49581e-09)
(2.51072e-08 -6.04363e-08 4.42112e-09)
(6.14643e-08 -8.83038e-08 4.82752e-09)
(1.08222e-07 -1.0603e-07 4.76704e-09)
(1.60459e-07 -1.15468e-07 4.86214e-09)
(2.1272e-07 -1.18405e-07 5.39983e-09)
(2.59262e-07 -1.16384e-07 6.48254e-09)
(2.94759e-07 -1.10662e-07 8.10096e-09)
(3.14727e-07 -1.02332e-07 1.0154e-08)
(3.15979e-07 -9.24047e-08 1.24607e-08)
(2.96681e-07 -8.18968e-08 1.50061e-08)
(2.56776e-07 -7.19031e-08 1.73637e-08)
(1.98651e-07 -6.3519e-08 1.93575e-08)
(1.26086e-07 -5.74465e-08 2.07992e-08)
(4.41593e-08 -5.42348e-08 2.15647e-08)
(-4.13124e-08 -5.42481e-08 2.16153e-08)
(-1.23568e-07 -5.76065e-08 2.0838e-08)
(-1.96255e-07 -6.38647e-08 1.94157e-08)
(-2.54327e-07 -7.23752e-08 1.74219e-08)
(-2.94433e-07 -8.23014e-08 1.51064e-08)
(-3.14209e-07 -9.27705e-08 1.25869e-08)
(-3.13332e-07 -1.02605e-07 1.02367e-08)
(-2.93693e-07 -1.1085e-07 8.17993e-09)
(-2.58533e-07 -1.16514e-07 6.55468e-09)
(-2.12294e-07 -1.1852e-07 5.46476e-09)
(-1.60279e-07 -1.1561e-07 4.92607e-09)
(-1.08205e-07 -1.06232e-07 4.82134e-09)
(-6.15157e-08 -8.85695e-08 4.86474e-09)
(-2.51589e-08 -6.06884e-08 4.42621e-09)
(-2.5202e-09 -2.29774e-08 2.47116e-09)
(3.99542e-09 -5.65914e-08 3.98506e-09)
(3.54352e-08 -1.31933e-07 7.38635e-09)
(8.17315e-08 -1.84997e-07 8.65828e-09)
(1.38447e-07 -2.20236e-07 9.30846e-09)
(1.99903e-07 -2.41376e-07 1.00664e-08)
(2.60245e-07 -2.51319e-07 1.12136e-08)
(3.13279e-07 -2.52514e-07 1.28617e-08)
(3.53183e-07 -2.47004e-07 1.50122e-08)
(3.74975e-07 -2.36619e-07 1.7572e-08)
(3.75036e-07 -2.23069e-07 2.03547e-08)
(3.5121e-07 -2.08078e-07 2.32961e-08)
(3.0345e-07 -1.93296e-07 2.60257e-08)
(2.34527e-07 -1.80592e-07 2.83521e-08)
(1.48687e-07 -1.71253e-07 2.99944e-08)
(5.20289e-08 -1.66334e-07 3.08539e-08)
(-4.88125e-08 -1.66407e-07 3.09183e-08)
(-1.459e-07 -1.71462e-07 3.00118e-08)
(-2.31801e-07 -1.8094e-07 2.83642e-08)
(-3.00675e-07 -1.93674e-07 2.60527e-08)
(-3.48659e-07 -2.08399e-07 2.3363e-08)
(-3.72938e-07 -2.23359e-07 2.04149e-08)
(-3.73278e-07 -2.36829e-07 1.76055e-08)
(-3.51872e-07 -2.47149e-07 1.50495e-08)
(-3.12343e-07 -2.52614e-07 1.29004e-08)
(-2.59653e-07 -2.51421e-07 1.12573e-08)
(-1.99617e-07 -2.41534e-07 1.01183e-08)
(-1.38382e-07 -2.20485e-07 9.34774e-09)
(-8.17648e-08 -1.85308e-07 8.66865e-09)
(-3.5501e-08 -1.32198e-07 7.36181e-09)
(-4.03153e-09 -5.67959e-08 3.94484e-09)
(5.05548e-09 -1.00792e-07 5.04334e-09)
(4.32329e-08 -2.23298e-07 9.4367e-09)
(9.73563e-08 -3.0669e-07 1.12561e-08)
(1.61866e-07 -3.62834e-07 1.23506e-08)
(2.30345e-07 -3.98345e-07 1.35203e-08)
(2.96644e-07 -4.17564e-07 1.5086e-08)
(3.54298e-07 -4.23939e-07 1.71428e-08)
(3.97234e-07 -4.20321e-07 1.97062e-08)
(4.20183e-07 -4.09281e-07 2.26805e-08)
(4.19267e-07 -3.93244e-07 2.58828e-08)
(3.92127e-07 -3.74637e-07 2.91629e-08)
(3.38607e-07 -3.55675e-07 3.2236e-08)
(2.61552e-07 -3.38955e-07 3.48818e-08)
(1.65704e-07 -3.26399e-07 3.67098e-08)
(5.79584e-08 -3.19806e-07 3.76655e-08)
(-5.44541e-08 -3.19913e-07 3.77437e-08)
(-1.62693e-07 -3.26568e-07 3.6733e-08)
(-2.58478e-07 -3.3908e-07 3.48853e-08)
(-3.35532e-07 -3.55776e-07 3.22929e-08)
(-3.89337e-07 -3.747e-07 2.923e-08)
(-4.16952e-07 -3.93302e-07 2.59318e-08)
(-4.18318e-07 -4.09325e-07 2.27169e-08)
(-3.95788e-07 -4.20368e-07 1.97469e-08)
(-3.53245e-07 -4.23991e-07 1.71835e-08)
(-2.95942e-07 -4.17653e-07 1.51221e-08)
(-2.29962e-07 -3.98497e-07 1.35562e-08)
(-1.61742e-07 -3.63084e-07 1.23624e-08)
(-9.73743e-08 -3.06974e-07 1.1227e-08)
(-4.33204e-08 -2.23453e-07 9.36091e-09)
(-5.11312e-09 -1.01031e-07 4.97936e-09)
(5.73309e-09 -1.52407e-07 5.74726e-09)
(4.8574e-08 -3.28966e-07 1.07544e-08)
(1.08366e-07 -4.46515e-07 1.28824e-08)
(1.78577e-07 -5.26005e-07 1.42359e-08)
(2.52163e-07 -5.77761e-07 1.56599e-08)
(3.2277e-07 -6.07966e-07 1.75062e-08)
(3.83772e-07 -6.21181e-07 1.98743e-08)
(4.28947e-07 -6.21079e-07 2.27916e-08)
(4.52842e-07 -6.10946e-07 2.6152e-08)
(4.51374e-07 -5.93868e-07 2.97782e-08)
(4.22105e-07 -5.72942e-07 3.3438e-08)
(3.64665e-07 -5.50993e-07 3.69193e-08)
(2.81641e-07 -5.31067e-07 3.99121e-08)
(1.78381e-07 -5.15749e-07 4.19714e-08)
(6.23519e-08 -5.07677e-07 4.30315e-08)
(-5.86516e-08 -5.07769e-07 4.3105e-08)
(-1.75229e-07 -5.15894e-07 4.19791e-08)
(-2.78326e-07 -5.30976e-07 3.9911e-08)
(-3.61364e-07 -5.5094e-07 3.70102e-08)
(-4.19146e-07 -5.72874e-07 3.35246e-08)
(-4.48925e-07 -5.93803e-07 2.98459e-08)
(-4.50878e-07 -6.10899e-07 2.62102e-08)
(-4.27424e-07 -6.21073e-07 2.28482e-08)
(-3.82659e-07 -6.21211e-07 1.9936e-08)
(-3.22009e-07 -6.08048e-07 1.7553e-08)
(-2.51713e-07 -5.77893e-07 1.56968e-08)
(-1.78395e-07 -5.26201e-07 1.42322e-08)
(-1.08367e-07 -4.467e-07 1.28188e-08)
(-4.86956e-08 -3.28963e-07 1.06321e-08)
(-5.8181e-09 -1.52671e-07 5.66127e-09)
(6.1204e-09 -2.08735e-07 6.14142e-09)
(5.17312e-08 -4.43999e-07 1.1481e-08)
(1.14988e-07 -5.98308e-07 1.37933e-08)
(1.887e-07 -7.02809e-07 1.52904e-08)
(2.65435e-07 -7.72204e-07 1.68734e-08)
(3.38709e-07 -8.14815e-07 1.89335e-08)
(4.01843e-07 -8.3645e-07 2.15632e-08)
(4.48551e-07 -8.41618e-07 2.48059e-08)
(4.73269e-07 -8.34263e-07 2.85416e-08)
(4.71752e-07 -8.18043e-07 3.25936e-08)
(4.41469e-07 -7.96603e-07 3.66742e-08)
(3.81816e-07 -7.73362e-07 4.05732e-08)
(2.95035e-07 -7.51625e-07 4.39538e-08)
(1.86867e-07 -7.34312e-07 4.62653e-08)
(6.52726e-08 -7.25062e-07 4.74071e-08)
(-6.14335e-08 -7.25104e-07 4.74828e-08)
(-1.83637e-07 -7.34508e-07 4.62504e-08)
(-2.91616e-07 -7.51444e-07 4.39691e-08)
(-3.78404e-07 -7.73301e-07 4.07036e-08)
(-4.38425e-07 -7.96537e-07 3.67963e-08)
(-4.69245e-07 -8.17973e-07 3.26924e-08)
(-4.71269e-07 -8.34221e-07 2.86264e-08)
(-4.46999e-07 -8.41627e-07 2.48809e-08)
(-4.00707e-07 -8.36496e-07 2.16395e-08)
(-3.37921e-07 -8.14893e-07 1.89854e-08)
(-2.64945e-07 -7.72299e-07 1.69129e-08)
(-1.88475e-07 -7.02903e-07 1.52693e-08)
(-1.14965e-07 -5.98284e-07 1.36891e-08)
(-5.18635e-08 -4.43748e-07 1.1328e-08)
(-6.2138e-09 -2.09067e-07 6.04993e-09)
(6.23784e-09 -2.6735e-07 6.2843e-09)
(5.28272e-08 -5.63772e-07 1.17405e-08)
(1.17308e-07 -7.5621e-07 1.41302e-08)
(1.92183e-07 -8.8668e-07 1.5705e-08)
(2.69899e-07 -9.74719e-07 1.73815e-08)
(3.43983e-07 -1.03101e-06 1.95924e-08)
(4.07827e-07 -1.06268e-06 2.24484e-08)
(4.55203e-07 -1.07508e-06 2.59862e-08)
(4.80521e-07 -1.07272e-06 3.00801e-08)
(4.79419e-07 -1.05971e-06 3.45567e-08)
(4.49243e-07 -1.04015e-06 3.90921e-08)
(3.89162e-07 -1.01784e-06 4.339e-08)
(3.00921e-07 -9.9613e-07 4.71805e-08)
(1.90479e-07 -9.77756e-07 4.97671e-08)
(6.64731e-08 -9.67927e-07 5.10249e-08)
(-6.27029e-08 -9.68139e-07 5.11498e-08)
(-1.87351e-07 -9.78281e-07 4.9773e-08)
(-2.97565e-07 -9.96088e-07 4.72401e-08)
(-3.85747e-07 -1.0179e-06 4.35264e-08)
(-4.46202e-07 -1.04019e-06 3.92061e-08)
(-4.76897e-07 -1.05972e-06 3.46527e-08)
(-4.78505e-07 -1.07274e-06 3.0164e-08)
(-4.53632e-07 -1.07515e-06 2.60588e-08)
(-4.0666e-07 -1.0628e-06 2.25256e-08)
(-3.43153e-07 -1.03114e-06 1.96465e-08)
(-2.69363e-07 -9.74828e-07 1.74019e-08)
(-1.91912e-07 -8.8669e-07 1.5645e-08)
(-1.17255e-07 -7.55947e-07 1.39959e-08)
(-5.29523e-08 -5.63255e-07 1.15861e-08)
(-6.33928e-09 -2.67844e-07 6.20397e-09)
(6.13698e-09 -3.26091e-07 6.1827e-09)
(5.19533e-08 -6.83793e-07 1.15424e-08)
(1.15288e-07 -9.14564e-07 1.39179e-08)
(1.88749e-07 -1.07127e-06 1.55477e-08)
(2.64963e-07 -1.17842e-06 1.72853e-08)
(3.37667e-07 -1.24937e-06 1.95587e-08)
(4.00457e-07 -1.29259e-06 2.25543e-08)
(4.47313e-07 -1.31422e-06 2.63036e-08)
(4.72752e-07 -1.31923e-06 3.06737e-08)
(4.72358e-07 -1.31205e-06 3.55001e-08)
(4.43353e-07 -1.29701e-06 4.04314e-08)
(3.84779e-07 -1.27799e-06 4.50747e-08)
(2.97831e-07 -1.25837e-06 4.91697e-08)
(1.88374e-07 -1.24061e-06 5.20588e-08)
(6.57578e-08 -1.23135e-06 5.3525e-08)
(-6.20922e-08 -1.23159e-06 5.3646e-08)
(-1.8534e-07 -1.24103e-06 5.20049e-08)
(-2.94559e-07 -1.25827e-06 4.92143e-08)
(-3.81388e-07 -1.27809e-06 4.51969e-08)
(-4.40379e-07 -1.29715e-06 4.0535e-08)
(-4.69873e-07 -1.31216e-06 3.55991e-08)
(-4.70776e-07 -1.31934e-06 3.07613e-08)
(-4.45775e-07 -1.3144e-06 2.63759e-08)
(-3.99292e-07 -1.29283e-06 2.26253e-08)
(-3.36818e-07 -1.24959e-06 1.95885e-08)
(-2.64411e-07 -1.1785e-06 1.72328e-08)
(-1.88441e-07 -1.071e-06 1.54227e-08)
(-1.15185e-07 -9.13849e-07 1.37648e-08)
(-5.20269e-08 -6.82943e-07 1.13935e-08)
(-6.21901e-09 -3.26673e-07 6.10051e-09)
(5.81399e-09 -3.8272e-07 5.80664e-09)
(4.90683e-08 -7.99516e-07 1.08432e-08)
(1.08819e-07 -1.06752e-06 1.30844e-08)
(1.78094e-07 -1.25002e-06 1.47137e-08)
(2.50027e-07 -1.37618e-06 1.65054e-08)
(3.18781e-07 -1.46215e-06 1.87911e-08)
(3.78386e-07 -1.51805e-06 2.18017e-08)
(4.23188e-07 -1.55062e-06 2.56211e-08)
(4.47995e-07 -1.56518e-06 3.00964e-08)
(4.48457e-07 -1.5663e-06 3.50898e-08)
(4.21688e-07 -1.55835e-06 4.02454e-08)
(3.66592e-07 -1.54498e-06 4.51269e-08)
(2.84005e-07 -1.52931e-06 4.92971e-08)
(1.7947e-07 -1.51389e-06 5.23827e-08)
(6.26769e-08 -1.50641e-06 5.40827e-08)
(-5.93366e-08 -1.50663e-06 5.42064e-08)
(-1.76689e-07 -1.51397e-06 5.23241e-08)
(-2.8078e-07 -1.52845e-06 4.93181e-08)
(-3.63205e-07 -1.54453e-06 4.52491e-08)
(-4.18801e-07 -1.55839e-06 4.03399e-08)
(-4.46004e-07 -1.56647e-06 3.51924e-08)
(-4.46073e-07 -1.56538e-06 3.01825e-08)
(-4.21712e-07 -1.55094e-06 2.56869e-08)
(-3.77239e-07 -1.51846e-06 2.18787e-08)
(-3.17912e-07 -1.46244e-06 1.88132e-08)
(-2.49423e-07 -1.376e-06 1.64546e-08)
(-1.7769e-07 -1.24921e-06 1.46841e-08)
(-1.08579e-07 -1.06628e-06 1.30947e-08)
(-4.90329e-08 -7.98432e-07 1.0855e-08)
(-5.85287e-09 -3.83411e-07 5.79996e-09)
(5.26366e-09 -4.34891e-07 5.18087e-09)
(4.41147e-08 -9.06002e-07 9.7172e-09)
(9.77981e-08 -1.20857e-06 1.17135e-08)
(1.59976e-07 -1.41562e-06 1.32124e-08)
(2.24613e-07 -1.56019e-06 1.49848e-08)
(2.86566e-07 -1.66086e-06 1.72235e-08)
(3.40578e-07 -1.72984e-06 2.01168e-08)
(3.81502e-07 -1.77446e-06 2.37914e-08)
(4.04638e-07 -1.80009e-06 2.80915e-08)
(4.05847e-07 -1.81131e-06 3.29726e-08)
(3.8214e-07 -1.81223e-06 3.80829e-08)
(3.32531e-07 -1.80596e-06 4.29538e-08)
(2.57896e-07 -1.79598e-06 4.69801e-08)
(1.63179e-07 -1.78536e-06 5.00871e-08)
(5.70545e-08 -1.7804e-06 5.18557e-08)
(-5.40627e-08 -1.78068e-06 5.20131e-08)
(-1.6065e-07 -1.78531e-06 5.00998e-08)
(-2.54827e-07 -1.79496e-06 4.69034e-08)
(-3.2953e-07 -1.80569e-06 4.2961e-08)
(-3.79621e-07 -1.8124e-06 3.80861e-08)
(-4.03535e-07 -1.81159e-06 3.30625e-08)
(-4.02827e-07 -1.80033e-06 2.81842e-08)
(-3.80156e-07 -1.77486e-06 2.38475e-08)
(-3.39543e-07 -1.73042e-06 2.02074e-08)
(-2.8582e-07 -1.66106e-06 1.72487e-08)
(-2.24081e-07 -1.55926e-06 1.493e-08)
(-1.59527e-07 -1.4138e-06 1.315e-08)
(-9.74107e-08 -1.20656e-06 1.16021e-08)
(-4.39481e-08 -9.04485e-07 9.59296e-09)
(-5.21568e-09 -4.35483e-07 5.15441e-09)
(4.45814e-09 -4.80293e-07 4.31131e-09)
(3.70265e-08 -9.98201e-07 8.11443e-09)
(8.20348e-08 -1.33046e-06 9.82714e-09)
(1.34393e-07 -1.55949e-06 1.11753e-08)
(1.88842e-07 -1.72132e-06 1.28049e-08)
(2.41055e-07 -1.83609e-06 1.49112e-08)
(2.8686e-07 -1.91775e-06 1.75559e-08)
(3.21876e-07 -1.97458e-06 2.0825e-08)
(3.42108e-07 -2.01181e-06 2.45885e-08)
(3.43754e-07 -2.03352e-06 2.89224e-08)
(3.23979e-07 -2.04324e-06 3.34467e-08)
(2.81985e-07 -2.04472e-06 3.77659e-08)
(2.18793e-07 -2.04218e-06 4.15288e-08)
(1.38835e-07 -2.0382e-06 4.45472e-08)
(4.86119e-08 -2.03638e-06 4.62355e-08)
(-4.60565e-08 -2.03652e-06 4.64019e-08)
(-1.36742e-07 -2.03793e-06 4.47539e-08)
(-2.16314e-07 -2.04201e-06 4.17933e-08)
(-2.79644e-07 -2.04675e-06 3.82657e-08)
(-3.21808e-07 -2.04488e-06 3.37543e-08)
(-3.41605e-07 -2.03417e-06 2.91251e-08)
(-3.40462e-07 -2.01196e-06 2.46322e-08)
(-3.20745e-07 -1.97491e-06 2.06173e-08)
(-2.85963e-07 -1.91829e-06 1.72523e-08)
(-2.40337e-07 -1.83585e-06 1.45491e-08)
(-1.88157e-07 -1.71961e-06 1.24903e-08)
(-1.33795e-07 -1.55708e-06 1.09754e-08)
(-8.16824e-08 -1.32831e-06 9.71972e-09)
(-3.69067e-08 -9.96417e-07 8.07747e-09)
(-4.39929e-09 -4.80681e-07 4.37328e-09)
(3.48792e-09 -5.16487e-07 3.14309e-09)
(2.82996e-08 -1.07139e-06 5.87873e-09)
(6.22231e-08 -1.42707e-06 7.19318e-09)
(1.01954e-07 -1.67372e-06 8.236e-09)
(1.4341e-07 -1.85015e-06 9.42787e-09)
(1.8325e-07 -1.97773e-06 1.10625e-08)
(2.18251e-07 -2.07091e-06 1.32406e-08)
(2.45142e-07 -2.13875e-06 1.60471e-08)
(2.61196e-07 -2.18653e-06 1.92729e-08)
(2.63064e-07 -2.21749e-06 2.28114e-08)
(2.47947e-07 -2.23565e-06 2.62642e-08)
(2.15598e-07 -2.24624e-06 2.97224e-08)
(1.67651e-07 -2.25234e-06 3.30646e-08)
(1.06896e-07 -2.2542e-06 3.55738e-08)
(3.76878e-08 -2.25481e-06 3.68629e-08)
(-3.49401e-08 -2.25418e-06 3.67564e-08)
(-1.04765e-07 -2.25241e-06 3.53568e-08)
(-1.6578e-07 -2.25104e-06 3.28548e-08)
(-2.142e-07 -2.24859e-06 2.98443e-08)
(-2.46141e-07 -2.23755e-06 2.62587e-08)
(-2.60931e-07 -2.21796e-06 2.26308e-08)
(-2.59704e-07 -2.18623e-06 1.91155e-08)
(-2.44277e-07 -2.13869e-06 1.59454e-08)
(-2.17463e-07 -2.07097e-06 1.32537e-08)
(-1.82635e-07 -1.97706e-06 1.11011e-08)
(-1.42973e-07 -1.84872e-06 9.48944e-09)
(-1.01704e-07 -1.67259e-06 8.33271e-09)
(-6.20851e-08 -1.42682e-06 7.3857e-09)
(-2.80219e-08 -1.07097e-06 6.13373e-09)
(-3.3501e-09 -5.17373e-07 3.29766e-09)
(2.21058e-09 -5.42323e-07 2.04167e-09)
(1.7887e-08 -1.12311e-06 3.78156e-09)
(3.9281e-08 -1.49537e-06 4.52042e-09)
(6.44072e-08 -1.75351e-06 5.06208e-09)
(9.04071e-08 -1.93967e-06 5.76148e-09)
(1.1536e-07 -2.07663e-06 6.83214e-09)
(1.37317e-07 -2.17864e-06 8.29429e-09)
(1.54126e-07 -2.25499e-06 1.01984e-08)
(1.64439e-07 -2.31103e-06 1.24405e-08)
(1.66067e-07 -2.34943e-06 1.4817e-08)
(1.56719e-07 -2.37569e-06 1.71682e-08)
(1.36526e-07 -2.39465e-06 1.96318e-08)
(1.06506e-07 -2.40768e-06 2.19172e-08)
(6.81353e-08 -2.41405e-06 2.36193e-08)
(2.43397e-08 -2.41635e-06 2.4396e-08)
(-2.1529e-08 -2.41404e-06 2.39952e-08)
(-6.59178e-08 -2.40905e-06 2.29064e-08)
(-1.04409e-07 -2.40282e-06 2.10475e-08)
(-1.34872e-07 -2.39313e-06 1.8715e-08)
(-1.55325e-07 -2.374e-06 1.61774e-08)
(-1.64894e-07 -2.3467e-06 1.37915e-08)
(-1.64063e-07 -2.30734e-06 1.17091e-08)
(-1.54171e-07 -2.2526e-06 9.88446e-09)
(-1.37101e-07 -2.17822e-06 8.36888e-09)
(-1.14947e-07 -2.07722e-06 7.13449e-09)
(-8.98065e-08 -1.94043e-06 6.13753e-09)
(-6.3791e-08 -1.75426e-06 5.40329e-09)
(-3.88965e-08 -1.49607e-06 4.77958e-09)
(-1.75469e-08 -1.12318e-06 3.94423e-09)
(-2.11545e-09 -5.42999e-07 2.07402e-09)
(8.15165e-10 -5.55826e-07 6.44431e-10)
(6.26244e-09 -1.14969e-06 1.28494e-09)
(1.36785e-08 -1.53119e-06 1.61507e-09)
(2.25946e-08 -1.79589e-06 1.83258e-09)
(3.17632e-08 -1.98741e-06 2.11868e-09)
(4.06151e-08 -2.12889e-06 2.56585e-09)
(4.86334e-08 -2.23439e-06 3.09595e-09)
(5.48499e-08 -2.31348e-06 3.6318e-09)
(5.85828e-08 -2.37323e-06 4.324e-09)
(5.91365e-08 -2.41726e-06 5.27318e-09)
(5.5794e-08 -2.4498e-06 6.26115e-09)
(4.87884e-08 -2.4737e-06 7.17433e-09)
(3.8092e-08 -2.48976e-06 7.87739e-09)
(2.44832e-08 -2.49885e-06 8.62062e-09)
(9.18471e-09 -2.50323e-06 8.97745e-09)
(-6.99425e-09 -2.5009e-06 8.691e-09)
(-2.32297e-08 -2.49465e-06 8.33433e-09)
(-3.67687e-08 -2.48603e-06 7.65725e-09)
(-4.72851e-08 -2.4727e-06 6.69547e-09)
(-5.44589e-08 -2.44886e-06 5.75174e-09)
(-5.78132e-08 -2.41579e-06 4.8859e-09)
(-5.7653e-08 -2.37077e-06 4.12595e-09)
(-5.43401e-08 -2.31158e-06 3.42118e-09)
(-4.84553e-08 -2.23387e-06 2.8558e-09)
(-4.06536e-08 -2.12949e-06 2.44288e-09)
(-3.16846e-08 -1.98847e-06 2.10229e-09)
(-2.24299e-08 -1.79704e-06 1.84338e-09)
(-1.36207e-08 -1.53231e-06 1.62792e-09)
(-6.09906e-09 -1.15043e-06 1.38153e-09)
(-6.98521e-10 -5.5637e-07 7.40553e-10)
(-5.86818e-10 -5.56377e-07 -6.91742e-10)
(-5.44848e-09 -1.15068e-06 -1.2536e-09)
(-1.22495e-08 -1.53273e-06 -1.47189e-09)
(-1.99889e-08 -1.79767e-06 -1.65634e-09)
(-2.80961e-08 -1.9894e-06 -1.89286e-09)
(-3.59039e-08 -2.1312e-06 -2.22825e-09)
(-4.27968e-08 -2.23709e-06 -2.66485e-09)
(-4.82332e-08 -2.31649e-06 -3.20653e-09)
(-5.14071e-08 -2.37623e-06 -3.889e-09)
(-5.1574e-08 -2.41988e-06 -4.64614e-09)
(-4.83567e-08 -2.45228e-06 -5.59186e-09)
(-4.2008e-08 -2.47613e-06 -6.63678e-09)
(-3.30774e-08 -2.49188e-06 -7.50737e-09)
(-2.15739e-08 -2.50126e-06 -7.84832e-09)
(-7.68932e-09 -2.50554e-06 -7.87878e-09)
(7.20129e-09 -2.50295e-06 -7.77032e-09)
(2.08452e-08 -2.49756e-06 -7.25178e-09)
(3.34702e-08 -2.48919e-06 -6.61958e-09)
(4.31263e-08 -2.47522e-06 -6.06723e-09)
(4.90311e-08 -2.45123e-06 -5.19519e-09)
(5.21172e-08 -2.4182e-06 -4.27605e-09)
(5.2073e-08 -2.37304e-06 -3.4143e-09)
(4.91441e-08 -2.31366e-06 -2.87257e-09)
(4.37705e-08 -2.23559e-06 -2.53189e-09)
(3.65973e-08 -2.13081e-06 -2.18445e-09)
(2.86175e-08 -1.98949e-06 -1.91049e-09)
(2.03519e-08 -1.79782e-06 -1.68005e-09)
(1.24391e-08 -1.53297e-06 -1.4568e-09)
(5.67235e-09 -1.15095e-06 -1.12642e-09)
(7.3308e-10 -5.56663e-07 -5.66624e-10)
(-2.03645e-09 -5.43756e-07 -2.01514e-09)
(-1.69927e-08 -1.1249e-06 -3.81693e-09)
(-3.76657e-08 -1.49858e-06 -4.63911e-09)
(-6.16881e-08 -1.7574e-06 -5.25603e-09)
(-8.6812e-08 -1.94426e-06 -5.97708e-09)
(-1.11057e-07 -2.08215e-06 -6.94514e-09)
(-1.3231e-07 -2.18481e-06 -8.22255e-09)
(-1.48576e-07 -2.26114e-06 -9.88807e-09)
(-1.58084e-07 -2.31731e-06 -1.19583e-08)
(-1.59152e-07 -2.35606e-06 -1.41291e-08)
(-1.50004e-07 -2.38284e-06 -1.65301e-08)
(-1.30572e-07 -2.4021e-06 -1.90687e-08)
(-1.02127e-07 -2.4152e-06 -2.1259e-08)
(-6.56203e-08 -2.42294e-06 -2.26561e-08)
(-2.29628e-08 -2.42593e-06 -2.31952e-08)
(2.18959e-08 -2.42265e-06 -2.28819e-08)
(6.42393e-08 -2.41866e-06 -2.18552e-08)
(1.02024e-07 -2.41307e-06 -2.01954e-08)
(1.31136e-07 -2.40144e-06 -1.83268e-08)
(1.50033e-07 -2.38143e-06 -1.59103e-08)
(1.59576e-07 -2.35374e-06 -1.36117e-08)
(1.58748e-07 -2.31401e-06 -1.13878e-08)
(1.48861e-07 -2.25827e-06 -9.47235e-09)
(1.32429e-07 -2.18271e-06 -7.876e-09)
(1.11189e-07 -2.08118e-06 -6.57267e-09)
(8.71986e-08 -1.9441e-06 -5.60067e-09)
(6.21296e-08 -1.75757e-06 -4.86268e-09)
(3.80216e-08 -1.4991e-06 -4.28815e-09)
(1.73401e-08 -1.12559e-06 -3.52752e-09)
(2.18693e-09 -5.43943e-07 -1.90781e-09)
(-3.32939e-09 -5.18735e-07 -3.20697e-09)
(-2.75747e-08 -1.07399e-06 -5.99089e-09)
(-6.09814e-08 -1.43107e-06 -7.26057e-09)
(-9.98777e-08 -1.67775e-06 -8.19936e-09)
(-1.40417e-07 -1.85472e-06 -9.32725e-09)
(-1.79433e-07 -1.98397e-06 -1.08761e-08)
(-2.13715e-07 -2.07887e-06 -1.29396e-08)
(-2.40084e-07 -2.14771e-06 -1.5612e-08)
(-2.55446e-07 -2.19652e-06 -1.88649e-08)
(-2.57001e-07 -2.2283e-06 -2.22966e-08)
(-2.42268e-07 -2.24706e-06 -2.58254e-08)
(-2.10632e-07 -2.25793e-06 -2.92218e-08)
(-1.64061e-07 -2.26463e-06 -3.23549e-08)
(-1.05024e-07 -2.26815e-06 -3.47106e-08)
(-3.67862e-08 -2.26958e-06 -3.59058e-08)
(3.493e-08 -2.26701e-06 -3.56186e-08)
(1.03308e-07 -2.26557e-06 -3.42605e-08)
(1.64008e-07 -2.26475e-06 -3.1933e-08)
(2.11047e-07 -2.25841e-06 -2.90701e-08)
(2.42118e-07 -2.24597e-06 -2.5573e-08)
(2.57341e-07 -2.22654e-06 -2.21118e-08)
(2.56272e-07 -2.19543e-06 -1.871e-08)
(2.40756e-07 -2.14774e-06 -1.56768e-08)
(2.14302e-07 -2.07945e-06 -1.30058e-08)
(1.79859e-07 -1.98524e-06 -1.08624e-08)
(1.40669e-07 -1.8563e-06 -9.24347e-09)
(9.99606e-08 -1.679e-06 -7.93441e-09)
(6.11638e-08 -1.43224e-06 -6.92386e-09)
(2.79063e-08 -1.07518e-06 -5.66593e-09)
(3.49037e-09 -5.18628e-07 -3.05299e-09)
(-4.43477e-09 -4.82635e-07 -4.23362e-09)
(-3.66461e-08 -1.00071e-06 -7.90027e-09)
(-8.08963e-08 -1.33399e-06 -9.60525e-09)
(-1.32497e-07 -1.56371e-06 -1.0895e-08)
(-1.86304e-07 -1.72717e-06 -1.24007e-08)
(-2.38041e-07 -1.8444e-06 -1.44394e-08)
(-2.83357e-07 -1.92783e-06 -1.71164e-08)
(-3.17934e-07 -1.98554e-06 -2.04281e-08)
(-3.37745e-07 -2.02382e-06 -2.43514e-08)
(-3.39289e-07 -2.04675e-06 -2.86253e-08)
(-3.19772e-07 -2.05749e-06 -3.31424e-08)
(-2.78146e-07 -2.05962e-06 -3.7369e-08)
(-2.16026e-07 -2.05796e-06 -4.10557e-08)
(-1.37484e-07 -2.05595e-06 -4.40195e-08)
(-4.76873e-08 -2.05538e-06 -4.5796e-08)
(4.61952e-08 -2.0538e-06 -4.56534e-08)
(1.35933e-07 -2.05525e-06 -4.39874e-08)
(2.15823e-07 -2.05976e-06 -4.10134e-08)
(2.78225e-07 -2.06058e-06 -3.73313e-08)
(3.1946e-07 -2.05705e-06 -3.31943e-08)
(3.39134e-07 -2.04607e-06 -2.87116e-08)
(3.38152e-07 -2.02391e-06 -2.43035e-08)
(3.18468e-07 -1.9861e-06 -2.05318e-08)
(2.83899e-07 -1.92837e-06 -1.73289e-08)
(2.38534e-07 -1.84534e-06 -1.47501e-08)
(1.86776e-07 -1.7291e-06 -1.27335e-08)
(1.32889e-07 -1.56673e-06 -1.10733e-08)
(8.11166e-08 -1.33775e-06 -9.70569e-09)
(3.66957e-08 -1.00387e-06 -7.97079e-09)
(4.43334e-09 -4.82731e-07 -4.23887e-09)
(-5.22783e-09 -4.37574e-07 -5.13896e-09)
(-4.37421e-08 -9.09505e-07 -9.60015e-09)
(-9.68153e-08 -1.21292e-06 -1.1613e-08)
(-1.58661e-07 -1.42121e-06 -1.31246e-08)
(-2.22975e-07 -1.56778e-06 -1.48548e-08)
(-2.84616e-07 -1.67068e-06 -1.71524e-08)
(-3.3831e-07 -1.74118e-06 -2.00952e-08)
(-3.78963e-07 -1.78684e-06 -2.37265e-08)
(-4.01844e-07 -1.8136e-06 -2.80623e-08)
(-4.02973e-07 -1.82601e-06 -3.28847e-08)
(-3.7941e-07 -1.82792e-06 -3.79846e-08)
(-3.3004e-07 -1.82256e-06 -4.27995e-08)
(-2.56165e-07 -1.81346e-06 -4.68222e-08)
(-1.62435e-07 -1.80487e-06 -4.99393e-08)
(-5.59884e-08 -1.80082e-06 -5.19656e-08)
(5.46838e-08 -1.79966e-06 -5.19367e-08)
(1.60761e-07 -1.80436e-06 -5.02339e-08)
(2.5523e-07 -1.81474e-06 -4.70859e-08)
(3.29424e-07 -1.82329e-06 -4.2827e-08)
(3.78953e-07 -1.82827e-06 -3.80373e-08)
(4.02784e-07 -1.82623e-06 -3.29295e-08)
(4.0206e-07 -1.81402e-06 -2.80174e-08)
(3.79297e-07 -1.78746e-06 -2.37076e-08)
(3.38723e-07 -1.74187e-06 -2.00376e-08)
(2.8504e-07 -1.67164e-06 -1.71109e-08)
(2.23417e-07 -1.56956e-06 -1.49144e-08)
(1.59175e-07 -1.42442e-06 -1.319e-08)
(9.73023e-08 -1.21717e-06 -1.16394e-08)
(4.40461e-08 -9.12923e-07 -9.60677e-09)
(5.29586e-09 -4.37593e-07 -5.12429e-09)
(-5.82106e-09 -3.85451e-07 -5.818e-09)
(-4.89129e-08 -8.03722e-07 -1.08634e-08)
(-1.08384e-07 -1.07287e-06 -1.30976e-08)
(-1.77472e-07 -1.25696e-06 -1.46856e-08)
(-2.49212e-07 -1.38498e-06 -1.644e-08)
(-3.17831e-07 -1.4726e-06 -1.87841e-08)
(-3.77331e-07 -1.52975e-06 -2.18529e-08)
(-4.22039e-07 -1.5634e-06 -2.56638e-08)
(-4.4672e-07 -1.57902e-06 -3.0167e-08)
(-4.47095e-07 -1.58123e-06 -3.51502e-08)
(-4.20275e-07 -1.57427e-06 -4.0339e-08)
(-3.65246e-07 -1.5621e-06 -4.52777e-08)
(-2.83359e-07 -1.54783e-06 -4.95082e-08)
(-1.79476e-07 -1.53431e-06 -5.25843e-08)
(-6.18141e-08 -1.5267e-06 -5.44002e-08)
(6.01837e-08 -1.52569e-06 -5.42321e-08)
(1.77591e-07 -1.53307e-06 -5.25972e-08)
(2.81996e-07 -1.54755e-06 -4.95245e-08)
(3.64305e-07 -1.56202e-06 -4.51911e-08)
(4.19629e-07 -1.57442e-06 -4.03249e-08)
(4.46749e-07 -1.58145e-06 -3.51586e-08)
(4.46701e-07 -1.57944e-06 -3.01586e-08)
(4.22212e-07 -1.56397e-06 -2.56632e-08)
(3.77671e-07 -1.53044e-06 -2.18278e-08)
(3.18291e-07 -1.47344e-06 -1.87657e-08)
(2.49723e-07 -1.38612e-06 -1.64723e-08)
(1.77923e-07 -1.25884e-06 -1.47594e-08)
(1.08654e-07 -1.07561e-06 -1.31714e-08)
(4.9025e-08 -8.06245e-07 -1.09065e-08)
(5.79607e-09 -3.85498e-07 -5.82225e-09)
(-6.17201e-09 -3.28821e-07 -6.17626e-09)
(-5.20057e-08 -6.88112e-07 -1.14717e-08)
(-1.15385e-07 -9.20408e-07 -1.37966e-08)
(-1.88843e-07 -1.07876e-06 -1.54503e-08)
(-2.65039e-07 -1.18742e-06 -1.72605e-08)
(-3.37771e-07 -1.2596e-06 -1.96203e-08)
(-4.00606e-07 -1.3039e-06 -2.26728e-08)
(-4.47485e-07 -1.32652e-06 -2.64394e-08)
(-4.72888e-07 -1.33251e-06 -3.0852e-08)
(-4.72402e-07 -1.3263e-06 -3.57002e-08)
(-4.43209e-07 -1.31216e-06 -4.06796e-08)
(-3.84521e-07 -1.29417e-06 -4.54031e-08)
(-2.98034e-07 -1.27567e-06 -4.95298e-08)
(-1.88749e-07 -1.25946e-06 -5.24466e-08)
(-6.4997e-08 -1.24996e-06 -5.40514e-08)
(6.32065e-08 -1.24944e-06 -5.39329e-08)
(1.86824e-07 -1.25875e-06 -5.25e-08)
(2.96486e-07 -1.2756e-06 -4.95614e-08)
(3.83431e-07 -1.29429e-06 -4.53987e-08)
(4.42447e-07 -1.31239e-06 -4.07209e-08)
(4.71951e-07 -1.32659e-06 -3.57425e-08)
(4.72726e-07 -1.33293e-06 -3.08817e-08)
(4.47532e-07 -1.32707e-06 -2.6468e-08)
(4.00814e-07 -1.30459e-06 -2.26905e-08)
(3.38088e-07 -1.26043e-06 -1.96423e-08)
(2.65409e-07 -1.18843e-06 -1.73141e-08)
(1.89132e-07 -1.08009e-06 -1.56012e-08)
(1.15481e-07 -9.22256e-07 -1.40528e-08)
(5.20062e-08 -6.90102e-07 -1.17042e-08)
(6.10567e-09 -3.28811e-07 -6.24207e-09)
(-6.28276e-09 -2.69952e-07 -6.31011e-09)
(-5.30233e-08 -5.67896e-07 -1.1719e-08)
(-1.17719e-07 -7.62051e-07 -1.40645e-08)
(-1.92779e-07 -8.93955e-07 -1.57003e-08)
(-2.7068e-07 -9.83129e-07 -1.74633e-08)
(-3.4498e-07 -1.0404e-06 -1.97285e-08)
(-4.09006e-07 -1.07297e-06 -2.26278e-08)
(-4.56503e-07 -1.08622e-06 -2.61882e-08)
(-4.81859e-07 -1.08469e-06 -3.03333e-08)
(-4.80663e-07 -1.07251e-06 -3.48491e-08)
(-4.5018e-07 -1.0537e-06 -3.94473e-08)
(-3.89806e-07 -1.03213e-06 -4.38448e-08)
(-3.01721e-07 -1.01105e-06 -4.76525e-08)
(-1.91218e-07 -9.93925e-07 -5.0326e-08)
(-6.59871e-08 -9.84098e-07 -5.17326e-08)
(6.39888e-08 -9.83825e-07 -5.168e-08)
(1.89099e-07 -9.93498e-07 -5.03821e-08)
(3.00113e-07 -1.01114e-06 -4.76328e-08)
(3.8876e-07 -1.03223e-06 -4.38132e-08)
(4.4941e-07 -1.05384e-06 -3.94895e-08)
(4.80134e-07 -1.07271e-06 -3.4903e-08)
(4.81596e-07 -1.08502e-06 -3.0378e-08)
(4.56453e-07 -1.08667e-06 -2.62294e-08)
(4.09108e-07 -1.07353e-06 -2.26584e-08)
(3.45174e-07 -1.04108e-06 -1.97583e-08)
(2.70929e-07 -9.83922e-07 -1.75053e-08)
(1.92996e-07 -8.94883e-07 -1.57967e-08)
(1.17836e-07 -7.63217e-07 -1.42539e-08)
(5.30507e-08 -5.69311e-07 -1.18984e-08)
(6.25262e-09 -2.69892e-07 -6.35314e-09)
(-6.18922e-09 -2.10906e-07 -6.15232e-09)
(-5.20582e-08 -4.47683e-07 -1.14558e-08)
(-1.15625e-07 -6.03586e-07 -1.37791e-08)
(-1.8969e-07 -7.09243e-07 -1.53561e-08)
(-2.66777e-07 -7.79528e-07 -1.70124e-08)
(-3.40407e-07 -8.22914e-07 -1.91107e-08)
(-4.03836e-07 -8.45258e-07 -2.17883e-08)
(-4.50752e-07 -8.51093e-07 -2.50629e-08)
(-4.75576e-07 -8.44376e-07 -2.88558e-08)
(-4.73964e-07 -8.28782e-07 -3.29628e-08)
(-4.43283e-07 -8.07921e-07 -3.71433e-08)
(-3.83181e-07 -7.85176e-07 -4.1151e-08)
(-2.96334e-07 -7.63907e-07 -4.4554e-08)
(-1.87918e-07 -7.47505e-07 -4.69422e-08)
(-6.49402e-08 -7.38385e-07 -4.81947e-08)
(6.29529e-08 -7.38025e-07 -4.81579e-08)
(1.85702e-07 -7.46943e-07 -4.69346e-08)
(2.94686e-07 -7.63832e-07 -4.44808e-08)
(3.82102e-07 -7.85153e-07 -4.10691e-08)
(4.42454e-07 -8.07952e-07 -3.71505e-08)
(4.7335e-07 -8.28914e-07 -3.30111e-08)
(4.75224e-07 -8.44625e-07 -2.88995e-08)
(4.5063e-07 -8.51446e-07 -2.51029e-08)
(4.03866e-07 -8.45693e-07 -2.18174e-08)
(3.4053e-07 -8.23428e-07 -1.91372e-08)
(2.66965e-07 -7.80121e-07 -1.70398e-08)
(1.89887e-07 -7.09913e-07 -1.53987e-08)
(1.1578e-07 -6.04351e-07 -1.38678e-08)
(5.20732e-08 -4.48602e-07 -1.15839e-08)
(6.15067e-09 -2.1097e-07 -6.19524e-09)
(-5.82745e-09 -1.54129e-07 -5.72983e-09)
(-4.90021e-08 -3.32088e-07 -1.07216e-08)
(-1.09188e-07 -4.50973e-07 -1.29037e-08)
(-1.79853e-07 -5.31334e-07 -1.43262e-08)
(-2.53871e-07 -5.83727e-07 -1.58093e-08)
(-3.24912e-07 -6.14489e-07 -1.76864e-08)
(-3.86289e-07 -6.28215e-07 -2.01009e-08)
(-4.31724e-07 -6.28588e-07 -2.30447e-08)
(-4.55766e-07 -6.18893e-07 -2.64518e-08)
(-4.54216e-07 -6.02248e-07 -3.01265e-08)
(-4.2452e-07 -5.81667e-07 -3.39035e-08)
(-3.66582e-07 -5.60062e-07 -3.74817e-08)
(-2.83393e-07 -5.40535e-07 -4.05074e-08)
(-1.79683e-07 -5.25738e-07 -4.26477e-08)
(-6.21426e-08 -5.17718e-07 -4.38093e-08)
(6.02072e-08 -5.17375e-07 -4.37701e-08)