/*--------------------------------*- C++ -*----------------------------------*\
| =========                 |                                                 |
| \\      /  F ield         | OpenFOAM: The Open Source CFD Toolbox           |
|  \\    /   O peration     | Version:  v1912                                 |
|   \\  /    A nd           | Website:  www.openfoam.com                      |
|    \\/     M anipulation  |                                                 |
\*---------------------------------------------------------------------------*/
FoamFile
{
    version     2.0;
    format      ascii;
    class       volScalarField;
    location    "514/oil";
    object      wallHeatFlux;
}
// * * * * * * * * * * * * * * * * * * * * * * * * * * * * * * * * * * * * * //

dimensions      [1 0 -3 0 0 0 0];


internalField   uniform 0;

boundaryField
{
    maxY
    {
        type            calculated;
        value           uniform 0;
    }
    minX
    {
        type            calculated;
        value           uniform 0;
    }
    maxX
    {
        type            calculated;
        value           uniform 0;
    }
    minY
    {
        type            calculated;
        value           uniform 0;
    }
    minZ
    {
        type            calculated;
        value           uniform 0;
    }
    maxZ
    {
        type            calculated;
        value           uniform 0;
    }
    oil_to_sphere
    {
        type            calculated;
        value           nonuniform List<scalar> 
1536
(
588.237
305.036
297.747
-216.336
-227.832
292.133
62.9323
158.485
124.562
-170.797
-379.256
-131.662
119.661
-121.549
-444.568
32.6155
292.573
311.411
17.6482
104.72
224.212
129.346
148.896
29.5574
57.0055
43.236
56.4153
-4.99882
274.875
137.963
359.739
307.214
316.736
36.0327
52.5166
-2.23839
24.219
-58.9206
-7.02623
55.1246
-18.3767
22.58
114.838
172.345
241.724
51.5868
216.707
143.193
-422.089
41.4016
197.707
128.373
137.815
29.6353
265.739
459.141
145.957
105.294
219.394
193.647
107.513
116.738
101.747
22.0324
49.3912
95.167
104.05
203.962
202.071
264.834
20.6478
-230.015
-138.007
43.9078
42.8417
477.959
320.494
-57.4625
33.2374
301.311
228.02
185.766
-213.362
-220.6
273.488
533.069
-287.332
80.0981
193.768
192.514
123.532
7.25985
2.37526
15.2928
42.2623
170.059
220.999
240.64
341.259
186.004
229.837
16.6679
592.319
199.867
-150.406
37.2324
60.7207
-196.541
-199.563
599.114
317.704
156.637
114.636
149.22
-253.969
-227.329
-310.01
407.121
561.548
333.085
136.761
149.25
-10.2518
217.743
356.812
170.706
135.224
-28.8649
235.176
218.937
96.242
207.449
262.152
63.9858
81.2934
279.381
150.879
303.415
-23.6807
295.457
127.366
215.561
218.507
118.784
86.3247
112.454
175.978
392.07
79.3554
604.273
253.753
291.393
145.974
161.429
44.7657
169.557
278.076
209.593
649.819
336.675
317.01
404.892
-98.9266
-54.1338
11.0409
6.60642
262.782
381.063
341.953
458.423
-6.66461
10.8542
-55.0985
221.313
133.392
160.233
508.666
-88.9379
-157.248
533.463
1.26419
-49.6631
-60.849
-34.0544
189.145
533.473
338.565
-19.8406
-110.29
306.659
-92.2335
257.91
258.889
384.676
-134.948
-506.73
373.704
412.999
54.5012
41.3105
129.325
66.5577
310.723
370.27
246.322
186.423
11.9183
392.242
342.993
154.039
-28.9028
49.3101
37.8316
68.7114
226.029
467.647
-114.847
-126.204
-117.354
-545.698
290.75
223.153
183.701
126.478
138.387
392.243
255.733
42.6641
292.148
-169.024
-1.44865
-494.49
118.139
271.406
375.106
345.343
292.689
233.512
332.467
-137.687
-96.8662
-66.4872
419.862
-43.8532
-500.874
-299.228
225.784
102.756
512.08
637.36
153.899
-221.79
-537.599
192.679
332.262
16.062
24.7084
-266.111
5.62475
391.625
543.711
100.576
23.6999
445.441
339.457
47.0383
-145.923
79.5234
476.759
409.529
234.148
259.673
363.32
-61.4363
36.0758
378.004
259.192
296.448
114.511
292.35
459.757
242.956
219.893
429.782
17.4227
14.2469
38.1023
-6.54362
9.57131
388.504
486.082
-140.78
73.1
57.9615
68.3112
-20.5444
138.237
111.192
-50.0758
-262.752
2.40179
-128.528
-21.7158
533.979
436.46
430.891
609.071
-78.7745
-58.2962
125.042
605.684
538.379
-1.65605
116.295
-16.2806
253.8
29.0767
218.178
241.679
320.692
267.785
51.6912
277.243
-0.416937
364.799
401.225
302.344
279.026
-41.5002
493.219
479.13
244.93
-141.266
14.3039
63.7153
242.717
214.939
257.529
-50.7181
360.138
362.21
324.059
429.207
206.399
170.6
104.39
-97.7499
171.425
247.785
-99.9833
-120.014
-69.9363
573.913
353.555
428.936
212.857
165.407
380.606
-113.16
512.716
320.924
171.85
165.515
-131.736
316.455
347.259
-31.3632
172.656
98.3414
24.3694
254.258
355.432
114.55
44.6518
-77.3136
468.355
366.938
-122.813
383.119
342.848
290.701
467.809
168.284
269.079
-178.521
-132.055
240.289
598.861
303.06
508.648
208.174
61.4865
339.664
-72.4472
-18.5234
214.736
350.287
258.432
216.121
-60.9716
-57.8752
379.031
357.925
367.648
161.033
6.01295
223.466
279.697
347.429
177.571
79.8651
-42.0308
153.018
-86.3449
-195.804
13.6796
-38.843
157.796
-168.12
65.1141
491.698
58.6312
55.1648
346.775
343.811
249.314
99.348
-102.61
300.274
432.937
234.955
180.298
311.924
116.938
147.279
207.762
-216.418
228.258
363.035
425.907
336.199
272.26
261.223
180.464
86.1854
-71.968
134.583
-40.8835
-130.845
-15.0559
-196.82
542.57
503.723
403.411
580.223
-85.2262
546.67
-52.6926
2.889
291.028
-106.63
-61.5864
68.5371
59.9988
513.395
433.716
208.795
228.415
463.274
380.685
177.598
277.337
-24.2358
351.112
-141.175
422.596
-218.894
263.085
298.347
335.71
50.0375
-73.696
94.1084
344.706
107.371
-161.669
347.943
371.005
400.972
623.399
171.252
455.321
-81.2773
-45.7722
-410.184
-297.809
177.022
68.1539
31.1943
-14.9058
566.83
-65.0061
-111.554
-150.702
65.4962
-175.185
645.783
-28.1075
-7.01749
135.877
-372.257
-270.979
15.8057
8.35926
115.386
43.8675
369.155
334.773
262.593
174.691
-188.416
29.6475
323.443
-72.5049
-30.1102
301.109
472.006
-26.1928
-414.4
-97.3202
-380.567
130.467
50.9926
-6.0726
-143.964
-372.291
254.204
294.4
217.093
124.619
478.763
263.483
244.223
165.744
-43.5566
39.9942
367.783
262.771
76.3816
-308.446
185.324
309.03
495.052
194.834
9.83408
498.412
133.414
459.237
-26.7762
52.6696
-63.5687
58.6098
190.75
473.285
-91.5142
-7.42361
-44.9821
64.4668
655.352
-146.328
35.9187
-115.545
135.245
189.319
369.967
480.073
-194.055
-139.445
475.193
508.042
-243.267
455.367
384.398
302.098
373.666
243.359
152.549
168.72
465.484
175.781
249.258
152.016
348.627
195.697
130.837
111.257
-97.1747
301.706
120.979
343.582
270.427
276.11
261.582
177.784
-132.579
375.838
373.308
252.49
127.768
201.818
589.989
-181.946
-31.6003
-86.1282
180.807
-26.5217
593.281
58.9921
87.7236
141.475
-404.828
-357.003
24.4928
18.8791
168.628
-63.3807
-12.1723
188.099
-8.45101
482.716
-104.396
576.216
49.2103
173.346
-504.477
-368.042
-413.965
-6.02278
302.786
34.1247
-5.13866
-376.461
157.817
315.292
163.336
720.741
-26.6333
368.453
241.691
313.581
392.211
379.643
309.575
136.169
79.3225
133.503
313.278
99.3831
220.888
190.391
214.986
337.38
263.038
300.054
-104.064
-39.3979
-514.581
-262.277
-202.904
-679.777
14.3965
44.5123
100.153
129.727
-196.186
-92.0597
75.5018
411.063
377.583
70.1092
-154.643
118.439
328.429
246.553
144.886
-175.358
-26.7681
256.633
200.793
139.685
23.4385
282.952
286.862
467.72
291.441
182.387
44.2746
-16.5521
-101.576
3.82761
101.598
608.719
177.421
532.151
-31.6291
630.679
15.4276
110.059
-82.5512
-55.2944
47.0497
-109.911
94.2267
-170.212
28.1537
362.336
64.451
-126.074
486.137
274.028
226.124
120.383
453.308
761.734
-257.707
266.578
206.593
248.274
-111.709
125.465
-17.9797
211.293
290.276
383.04
-46.6883
254.682
163.19
287.024
269.355
242.476
70.4083
103.809
31.0067
-158.933
-189.519
-67.4739
444.353
29.1526
-113.695
37.1868
370.35
91.2248
441.24
332.694
233.424
181.665
227.344
501.851
-66.82
262.258
384.398
415.367
175.873
-19.959
83.5006
227.999
423.432
-86.9766
107.102
166.883
363.485
230.328
222.758
451.648
-81.5324
-8.22713
-44.2821
502.918
379.362
170.959
360.87
-4.79417
27.3109
359.87
219.844
470.187
-53.7376
316.385
349.862
190.363
213.469
300.023
-49.8262
-205.021
149.769
221.872
509.702
114.315
9.07648
133.457
231.35
311.604
182.437
-14.1175
116.753
348.178
-85.4327
-12.0462
117.532
24.225
205.597
180.461
409.326
246.142
335.173
35.3936
135.301
205.117
126.49
83.4953
43.5387
40.2311
-75.6804
279.242
197.894
198.729
234.537
-139.487
59.8187
492.005
499.215
-13.2911
366.952
230.039
277.958
35.3902
418.463
399.902
-59.3169
91.033
55.3836
43.3877
-150.675
-90.6735
55.5075
392.466
588.044
10.2728
297.422
278.085
224.609
99.8512
207.153
407.023
194.125
-50.8823
61.8662
37.0552
47.8804
248.366
274.282
280.536
294.849
291.881
-12.349
309.659
68.5471
263.161
-372.607
235.489
436.789
82.3697
-258.118
142.124
103.044
532.782
-39.6424
310.015
130.744
-209.485
480.742
-127.16
107.683
154.056
-143.016
367.045
210.639
99.2742
167.529
208.606
107.823
549.199
-120.676
50.0308
-447.515
66.0237
84.5918
163.364
364.566
779.242
-168.33
52.3937
687.29
-125.316
288.399
-20.0878
277.273
-282.787
-39.0771
677.78
-227.827
611.966
-181.6
517.639
-207.054
-43.0808
-418.995
-121.273
638.138
-342.511
124.511
-229.467
450.297
641.991
-327.59
82.0164
17.1988
-49.9429
-58.7628
57.7755
157.124
155.667
270.176
134.062
460.13
710.542
-334.07
151.282
236.13
156.962
190.036
119.452
82.1471
118.451
326.37
124.818
332.333
45.9744
196.827
436.641
80.5713
259.687
372.278
45.0465
196.811
131.553
266.547
109.029
173.692
87.6962
358.3
63.5983
223.527
-185.325
471.601
-313.987
218.344
345.627
485.9
-32.9526
184.793
135.128
185.148
161.819
124.055
321.788
-65.7259
-515.543
78.0777
-254.801
380.332
-27.97
149.192
279.357
-479.547
415.854
-78.9321
-389.258
-49.3699
290.661
273.094
160.182
-336.843
154.83
195.691
7.56252
-25.8521
389.075
350.281
29.8898
168.001
390.741
-330.478
319.209
-31.9525
260.082
-304.17
584.325
565.447
350.403
154.378
81.7329
280.125
70.5374
-340.934
-86.1958
299.546
-19.2094
238.132
-260.004
373.017
257.658
-615.783
156.398
210.935
-460.903
424.779
-192.177
385.032
475.597
315.602
-378.793
171.808
93.5253
159.768
177.611
241.309
-325.716
39.679
-11.9197
-10.6924
364.796
144.628
212.568
273.896
259.494
89.6207
181.462
103.133
221.37
397.133
29.6065
77.6547
15.1223
173.721
342.701
26.03
70.9269
48.9036
148.548
-13.8328
6.36936
68.503
87.6457
176.672
59.2381
470.24
321.393
-237.14
-231.561
426.395
-677.873
306.175
193.693
-15.2776
88.1125
436.093
-480.783
380.829
213.259
-357.952
51.9292
5.85091
145.336
-507.165
427.027
219.921
-471.002
406.373
409.266
-290.808
488.62
349.031
-283.934
12.8799
-13.0472
-474.841
155.366
184.094
-84.2689
-31.738
-56.7722
-599.138
-37.4026
-502.431
-633.055
360.72
15.2319
639.201
27.6632
-328.854
432.299
101.5
-421.537
28.6011
15.6507
-427.642
-230.613
408.431
-760.416
-84.1773
-135.863
-680.924
379.528
331.086
153.38
65.5942
10.5552
-81.7214
-546.585
161.659
70.4109
81.6418
154.199
-387.964
291.373
30.6497
123.988
7.36874
115.268
175.103
-98.3317
-365.089
56.5063
182.443
25.4426
64.5069
131.557
-32.7974
75.9449
-400.787
29.3755
209.56
11.3336
90.1577
-25.2384
-356.903
434.117
423.658
404.037
487.002
-293.579
-456.944
33.6811
303.345
182.946
285.617
325.597
-83.2707
-137.558
-450.494
-329.528
-33.8485
127.593
111.424
99.8941
-137.097
364.905
216.08
-278.506
-43.5922
-94.2274
320.286
-27.3408
-549.692
122.285
142.401
378.221
-409.823
9.35446
175.299
45.4228
89.2502
275.931
121.108
-75.9994
515.423
-637.85
-183.094
92.9544
-30.491
58.5744
484.076
224.783
143.733
-169.593
439.333
39.3437
174.266
325.045
378.093
357.532
376.322
464.528
522.669
454.729
455.658
144.731
337.199
28.8952
87.976
-145.744
-211.473
-591.133
494.947
478.214
402.83
76.6739
176.615
159.414
-22.0116
190.346
333.45
-67.7564
102.599
263.683
11.109
34.6938
21.9331
73.0966
-34.2857
65.0423
43.3111
-302.576
172.962
-63.8993
100.694
-427.151
491.623
112.117
-4.4721
-44.1143
-273.113
140.317
2.57725
-470.733
-179.008
106.106
-221.793
-156.117
534.816
563.05
45.5303
48.0596
297.346
480.359
-477.195
-28.2227
-34.7908
60.2237
58.192
79.9595
118.433
-143.043
-347.856
423.985
51.989
-194.862
-147.962
45.8109
148.497
-268.591
82.5861
-24.1582
28.8196
485.064
-187.221
-339.077
57.2517
9.45635
-35.6616
-341.24
379.375
41.2348
30.9747
43.5532
-467.121
44.2363
57.5412
-329.008
37.6135
-180.333
217.764
418.178
-23.5422
337.518
206.78
-13.4725
-3.85029
66.0527
-340.808
199.685
235.458
18.812
-410.715
-100.688
93.4729
111.965
-18.8677
-368.394
-8.55682
379.143
206.305
-3.45033
526.97
-184.954
320.042
-456.627
-199.579
341.527
-467.389
361.066
-8.8024
147.305
29.6335
553.988
-125.484
153.862
486.582
436.463
-242.167
419.177
485.527
-663.826
80.7485
7.55745
-441.085
231.006
1.82288
31.7268
32.6352
122.435
82.3449
19.3555
-3.33852
-457.408
231.32
146.017
131.978
173.199
76.686
-14.5192
-97.0939
288.758
-535.075
-41.5024
-58.6246
-512.638
347.831
511.217
103.119
401.966
437.05
-24.5859
-22.1189
229.088
399.172
-34.7984
261.024
-149.497
-440.95
297.066
-64.2893
378.415
524.23
477.219
-409.986
326.616
152.879
-78.1371
16.5797
59.0719
4.25757
-399.458
393.441
-381.493
383.901
72.7518
-149.493
-201.104
74.5432
272.084
455.9
137.625
608.109
304.083
364.177
-480.966
334.485
284.07
379.227
-26.7158
-71.3332
-539.297
108.239
586.551
403.558
-353.76
-130.899
-389.048
-26.9973
119.412
-155.926
733.934
32.7425
-128.951
-340.473
202.606
-65.8653
-499.213
87.0445
-1.63021
7.54462
16.3194
20.2987
-335.411
-149.808
-437.53
0.352325
300.487
219.843
418.472
378.066
-40.9321
-95.6777
-460.903
-10.0662
271.41
446.612
302.964
321.534
-192.832
-518.869
-120.779
-558.093
295.148
315.701
-95.3728
357.231
288.198
420.839
185.964
148.057
140.321
-40.9461
-470.065
-110.278
-413.569
-168.218
16.6714
-19.1425
-300.869
-413.792
257.164
589.587
526.503
477.311
133.411
248.648
238.061
106.944
14.8953
107.705
-78.8591
71.2296
73.7117
-410.572
285.885
50.7908
-129.452
-310.789
-6.77373
127.313
124.301
-18.1768
-308.144
459.744
199.718
4.98593
520.679
-68.727
-433.615
218.079
72.058
75.514
75.7779
-10.611
-537.808
70.8143
68.0361
-377.27
439.778
40.9824
-759.278
15.5136
115.747
134.184
-12.1687
-400.819
-51.7227
-37.5996
-211.262
88.3803
-457.614
100.77
84.6783
-234.571
511.368
66.5087
-329.497
568.024
109.64
109.307
-315.268
84.8177
-383.733
)
;
    }
}


// ************************************************************************* //
