/*--------------------------------*- C++ -*----------------------------------*\
| =========                 |                                                 |
| \\      /  F ield         | OpenFOAM: The Open Source CFD Toolbox           |
|  \\    /   O peration     | Version:  v1906                                 |
|   \\  /    A nd           | Web:      www.OpenFOAM.com                      |
|    \\/     M anipulation  |                                                 |
\*---------------------------------------------------------------------------*/
FoamFile
{
    version     2.0;
    format      ascii;
    class       volVectorField;
    location    "94.6/oil";
    object      U;
}
// * * * * * * * * * * * * * * * * * * * * * * * * * * * * * * * * * * * * * //

dimensions      [0 1 -1 0 0 0 0];


internalField   nonuniform List<vector> 
27760
(
(-2.49572e-05 -2.53017e-05 -2.49572e-05)
(-4.48429e-05 -1.61544e-05 -1.53421e-05)
(-4.67281e-06 -4.29689e-06 -4.31546e-06)
(-5.43774e-06 -8.22106e-07 -9.45335e-07)
(-1.20505e-06 -2.64288e-07 -4.09933e-07)
(-3.26921e-07 -9.12532e-08 -2.52625e-07)
(3.74826e-07 4.67715e-09 -1.6994e-07)
(7.41213e-07 4.80476e-08 -1.35976e-07)
(9.46038e-07 7.31802e-08 -1.16641e-07)
(1.02328e-06 8.93308e-08 -1.03172e-07)
(9.95596e-07 1.00828e-07 -9.20279e-08)
(8.76894e-07 1.09717e-07 -8.19776e-08)
(6.8217e-07 1.16321e-07 -7.37254e-08)
(4.28969e-07 1.20763e-07 -6.77637e-08)
(1.38556e-07 1.23107e-07 -6.45958e-08)
(-1.65392e-07 1.23252e-07 -6.44528e-08)
(-4.58476e-07 1.21249e-07 -6.72908e-08)
(-7.17661e-07 1.17289e-07 -7.2757e-08)
(-9.23247e-07 1.11535e-07 -8.01506e-08)
(-1.0607e-06 1.04249e-07 -8.85641e-08)
(-1.1217e-06 9.58632e-08 -9.66065e-08)
(-1.10445e-06 8.66941e-08 -1.03015e-07)
(-1.01474e-06 7.6507e-08 -1.06911e-07)
(-8.6523e-07 6.58945e-08 -1.06854e-07)
(-6.74158e-07 5.51372e-08 -1.01817e-07)
(-4.65031e-07 4.47469e-08 -9.11918e-08)
(-2.64992e-07 3.57661e-08 -7.51833e-08)
(-1.03001e-07 3.00062e-08 -5.52856e-08)
(-3.85391e-09 2.9458e-08 -3.52477e-08)
(1.49355e-08 2.92429e-08 -1.49129e-08)
(-1.54244e-05 -4.58633e-05 -1.54244e-05)
(-6.97011e-06 -7.52563e-06 -7.02163e-06)
(-7.08091e-06 -7.4472e-06 -2.58577e-06)
(-3.21904e-06 -2.40781e-06 -8.43571e-07)
(-9.14789e-07 -1.42461e-06 -4.27227e-07)
(3.07148e-07 -7.85035e-07 -2.24338e-07)
(1.20014e-06 -4.86502e-07 -1.25376e-07)
(1.75932e-06 -3.04748e-07 -7.48445e-08)
(2.08339e-06 -1.77764e-07 -4.28225e-08)
(2.19342e-06 -7.60089e-08 -1.88317e-08)
(2.10801e-06 1.0178e-08 1.56528e-09)
(1.84502e-06 8.31857e-08 1.92126e-08)
(1.42978e-06 1.41344e-07 3.36323e-08)
(8.96716e-07 1.82331e-07 4.401e-08)
(2.88255e-07 2.03896e-07 4.94758e-08)
(-3.47737e-07 2.0506e-07 4.97453e-08)
(-9.61477e-07 1.86085e-07 4.48879e-08)
(-1.5061e-06 1.48622e-07 3.5399e-08)
(-1.94155e-06 9.589e-08 2.24341e-08)
(-2.23791e-06 3.20582e-08 7.43006e-09)
(-2.37817e-06 -3.77819e-08 -7.9071e-09)
(-2.35957e-06 -1.08261e-07 -2.18156e-08)
(-2.1934e-06 -1.74214e-07 -3.24529e-08)
(-1.90441e-06 -2.29785e-07 -3.85167e-08)
(-1.5292e-06 -2.69084e-07 -3.89583e-08)
(-1.11324e-06 -2.85525e-07 -3.34369e-08)
(-7.07209e-07 -2.71374e-07 -2.28156e-08)
(-3.61669e-07 -2.18414e-07 -9.68388e-09)
(-1.18158e-07 -1.21621e-07 5.51689e-10)
(-3.4962e-09 -5.99127e-09 3.53005e-09)
(-4.35128e-06 -5.64948e-06 -4.35128e-06)
(-7.20949e-06 -8.15236e-06 -2.60592e-06)
(-3.58324e-06 -4.9729e-06 -1.20133e-06)
(-1.83046e-06 -3.08951e-06 -5.75224e-07)
(-1.0792e-07 -2.27461e-06 -2.63468e-07)
(1.06814e-06 -1.74291e-06 -1.10018e-07)
(1.97001e-06 -1.41717e-06 -2.81838e-08)
(2.58047e-06 -1.16712e-06 1.89126e-08)
(2.93497e-06 -9.52255e-07 5.18837e-08)
(3.03534e-06 -7.54993e-07 7.83953e-08)
(2.8903e-06 -5.73727e-07 1.01575e-07)
(2.51654e-06 -4.13788e-07 1.21783e-07)
(1.94423e-06 -2.83265e-07 1.38323e-07)
(1.21712e-06 -1.9018e-07 1.50145e-07)
(3.90803e-07 -1.40888e-07 1.56509e-07)
(-4.71407e-07 -1.38463e-07 1.56822e-07)
(-1.30411e-06 -1.82444e-07 1.51162e-07)
(-2.04507e-06 -2.68642e-07 1.40277e-07)
(-2.64108e-06 -3.89179e-07 1.25234e-07)
(-3.05272e-06 -5.33425e-07 1.07618e-07)
(-3.25744e-06 -6.88722e-07 8.92136e-08)
(-3.25131e-06 -8.41251e-07 7.18437e-08)
(-3.04899e-06 -9.76498e-07 5.71913e-08)
(-2.68245e-06 -1.07996e-06 4.65522e-08)
(-2.19795e-06 -1.13663e-06 4.06836e-08)
(-1.65221e-06 -1.1309e-06 3.95264e-08)
(-1.10708e-06 -1.04619e-06 4.17766e-08)
(-6.21982e-07 -8.66166e-07 4.42582e-08)
(-2.48215e-07 -5.78435e-07 4.09784e-08)
(-2.26646e-08 -1.9923e-07 2.27032e-08)
(-8.96584e-07 -6.52181e-06 -8.96587e-07)
(-1.9509e-06 -5.35977e-06 -7.92324e-07)
(-1.2687e-06 -4.79838e-06 -5.39975e-07)
(-2.80781e-07 -3.94682e-06 -2.63595e-07)
(9.10917e-07 -3.46473e-06 -9.67586e-08)
(1.91433e-06 -3.0849e-06 -1.29923e-09)
(2.74639e-06 -2.77738e-06 5.75785e-08)
(3.34279e-06 -2.4815e-06 9.70478e-08)
(3.685e-06 -2.18356e-06 1.28168e-07)
(3.75321e-06 -1.884e-06 1.55219e-07)
(3.5442e-06 -1.59466e-06 1.79735e-07)
(3.07116e-06 -1.3323e-06 2.01432e-07)
(2.36622e-06 -1.1149e-06 2.19299e-07)
(1.47957e-06 -9.58723e-07 2.32128e-07)
(4.76164e-07 -8.75666e-07 2.38974e-07)
(-5.6933e-07 -8.72012e-07 2.39284e-07)
(-1.57921e-06 -9.47147e-07 2.33125e-07)
(-2.47971e-06 -1.09345e-06 2.21194e-07)
(-3.20769e-06 -1.29708e-06 2.04687e-07)
(-3.71633e-06 -1.53892e-06 1.85233e-07)
(-3.97879e-06 -1.7962e-06 1.6465e-07)
(-3.99023e-06 -2.04397e-06 1.44758e-07)
(-3.76734e-06 -2.25633e-06 1.2715e-07)
(-3.34659e-06 -2.40719e-06 1.13041e-07)
(-2.78035e-06 -2.47042e-06 1.02992e-07)
(-2.13217e-06 -2.41976e-06 9.67267e-08)
(-1.47075e-06 -2.22838e-06 9.27451e-08)
(-8.61745e-07 -1.86917e-06 8.74601e-08)
(-3.67175e-07 -1.31354e-06 7.42566e-08)
(-3.9052e-08 -5.36224e-07 3.9096e-08)
(-2.90571e-07 -2.80423e-06 -2.90576e-07)
(-7.52755e-07 -4.38697e-06 -3.14393e-07)
(-1.18205e-07 -4.95401e-06 -1.90708e-07)
(7.29625e-07 -4.97443e-06 -6.48739e-08)
(1.74124e-06 -4.90768e-06 2.407e-08)
(2.67802e-06 -4.73461e-06 8.25868e-08)
(3.47988e-06 -4.48911e-06 1.24621e-07)
(4.06685e-06 -4.17206e-06 1.57695e-07)
(4.39328e-06 -3.80098e-06 1.87126e-07)
(4.42593e-06 -3.39907e-06 2.14715e-07)
(4.15316e-06 -2.99556e-06 2.40663e-07)
(3.58555e-06 -2.62199e-06 2.64043e-07)
(2.75698e-06 -2.30883e-06 2.83453e-07)
(1.72303e-06 -2.08247e-06 2.97451e-07)
(5.57021e-07 -1.96204e-06 3.049e-07)
(-6.56255e-07 -1.95741e-06 3.05185e-07)
(-1.8282e-06 -2.06794e-06 2.98362e-07)
(-2.87464e-06 -2.28231e-06 2.85151e-07)
(-3.72357e-06 -2.57946e-06 2.6688e-07)
(-4.32157e-06 -2.93037e-06 2.45278e-07)
(-4.63807e-06 -3.30044e-06 2.22274e-07)
(-4.66728e-06 -3.65185e-06 1.9977e-07)
(-4.4275e-06 -3.94541e-06 1.79378e-07)
(-3.95872e-06 -4.14205e-06 1.62282e-07)
(-3.31825e-06 -4.20322e-06 1.48972e-07)
(-2.57517e-06 -4.09071e-06 1.39053e-07)
(-1.80442e-06 -3.76548e-06 1.30891e-07)
(-1.07837e-06 -3.18532e-06 1.2049e-07)
(-4.71342e-07 -2.29492e-06 1.00434e-07)
(-5.23401e-08 -9.98934e-07 5.23928e-08)
(-9.74239e-08 -2.62455e-06 -9.74258e-08)
(8.06369e-09 -4.74621e-06 -7.35004e-08)
(6.40945e-07 -5.91715e-06 -8.65355e-09)
(1.48104e-06 -6.4779e-06 5.45159e-08)
(2.4495e-06 -6.72877e-06 1.05008e-07)
(3.38068e-06 -6.73049e-06 1.43498e-07)
(4.18611e-06 -6.54523e-06 1.76108e-07)
(4.77792e-06 -6.21033e-06 2.06057e-07)
(5.09502e-06 -5.76795e-06 2.35582e-07)
(5.0949e-06 -5.26224e-06 2.64942e-07)
(4.75991e-06 -4.74039e-06 2.93388e-07)
(4.09886e-06 -4.24989e-06 3.19409e-07)
(3.14766e-06 -3.83526e-06 3.41177e-07)
(1.96737e-06 -3.53417e-06 3.56924e-07)
(6.39776e-07 -3.37394e-06 3.6529e-07)
(-7.40126e-07 -3.36868e-06 3.65544e-07)
(-2.07276e-06 -3.51772e-06 3.57723e-07)
(-3.26349e-06 -3.80562e-06 3.42641e-07)
(-4.23139e-06 -4.20337e-06 3.21793e-07)
(-4.9165e-06 -4.67095e-06 2.97135e-07)
(-5.28477e-06 -5.16081e-06 2.70833e-07)
(-5.32947e-06 -5.62089e-06 2.44969e-07)
(-5.07066e-06 -5.99761e-06 2.21277e-07)
(-4.552e-06 -6.23788e-06 2.01026e-07)
(-3.83573e-06 -6.28958e-06 1.84723e-07)
(-2.99684e-06 -6.10115e-06 1.71907e-07)
(-2.11719e-06 -5.61897e-06 1.60802e-07)
(-1.27713e-06 -4.78065e-06 1.46942e-07)
(-5.63988e-07 -3.49382e-06 1.21921e-07)
(-6.3493e-08 -1.57018e-06 6.35589e-08)
(6.39518e-09 -2.75135e-06 6.40332e-09)
(3.75011e-07 -5.60769e-06 4.96233e-08)
(1.11106e-06 -7.34696e-06 9.25655e-08)
(2.03257e-06 -8.35883e-06 1.29687e-07)
(3.04762e-06 -8.89499e-06 1.61858e-07)
(4.02583e-06 -9.05882e-06 1.90538e-07)
(4.86919e-06 -8.93406e-06 2.19027e-07)
(5.48582e-06 -8.58456e-06 2.48731e-07)
(5.80548e-06 -8.07374e-06 2.80276e-07)
(5.77908e-06 -7.46523e-06 3.12959e-07)
(5.38463e-06 -6.82414e-06 3.45287e-07)
(4.62993e-06 -6.21461e-06 3.75193e-07)
(3.55337e-06 -5.69581e-06 4.00361e-07)
(2.22222e-06 -5.31775e-06 4.18598e-07)
(7.27308e-07 -5.11657e-06 4.28263e-07)
(-8.2527e-07 -5.11098e-06 4.28481e-07)
(-2.3242e-06 -5.30041e-06 4.19279e-07)
(-3.66357e-06 -5.66494e-06 4.01586e-07)
(-4.75297e-06 -6.16706e-06 3.77136e-07)
(-5.52571e-06 -6.75499e-06 3.48247e-07)
(-5.94404e-06 -7.36725e-06 3.17426e-07)
(-6.00081e-06 -7.93687e-06 2.87059e-07)
(-5.71832e-06 -8.3952e-06 2.5916e-07)
(-5.14445e-06 -8.67433e-06 2.35133e-07)
(-4.34724e-06 -8.70763e-06 2.15577e-07)
(-3.40843e-06 -8.42875e-06 1.99988e-07)
(-2.41782e-06 -7.76668e-06 1.8643e-07)
(-1.46474e-06 -6.63402e-06 1.69907e-07)
(-6.49522e-07 -4.89165e-06 1.40854e-07)
(-7.34466e-08 -2.23902e-06 7.3532e-08)
(5.20838e-08 -3.27978e-06 5.2106e-08)
(5.92136e-07 -6.91265e-06 1.14065e-07)
(1.44538e-06 -9.19685e-06 1.51683e-07)
(2.47546e-06 -1.06115e-05 1.79448e-07)
(3.57691e-06 -1.1411e-05 2.04301e-07)
(4.63239e-06 -1.17279e-05 2.29656e-07)
(5.5375e-06 -1.16642e-05 2.57982e-07)
(6.19584e-06 -1.13045e-05 2.90059e-07)
(6.52977e-06 -1.07303e-05 3.25644e-07)
(6.48439e-06 -1.00234e-05 3.63425e-07)
(6.03381e-06 -9.26608e-06 4.01277e-07)
(5.18501e-06 -8.539e-06 4.36507e-07)
(3.97932e-06 -7.9166e-06 4.66251e-07)
(2.49081e-06 -7.46166e-06 4.87828e-07)
(8.2038e-07 -7.21957e-06 4.99232e-07)
(-9.1368e-07 -7.21395e-06 4.99408e-07)
(-2.58712e-06 -7.44432e-06 4.88375e-07)
(-4.08173e-06 -7.88608e-06 4.6723e-07)
(-5.29669e-06 -8.49271e-06 4.38034e-07)
(-6.15816e-06 -9.20015e-06 4.03556e-07)
(-6.6249e-06 -9.93258e-06 3.66757e-07)
(-6.68977e-06 -1.06076e-05 3.30497e-07)
(-6.37804e-06 -1.1141e-05 2.97178e-07)
(-5.74271e-06 -1.14496e-05 2.68423e-07)
(-4.8587e-06 -1.14518e-05 2.44973e-07)
(-3.81548e-06 -1.1065e-05 2.2629e-07)
(-2.71158e-06 -1.0198e-05 2.1028e-07)
(-1.64583e-06 -8.73385e-06 1.91334e-07)
(-7.31115e-07 -6.47786e-06 1.58639e-07)
(-8.28531e-08 -2.99954e-06 8.29619e-08)
(7.76651e-08 -4.00685e-06 7.77075e-08)
(7.36231e-07 -8.51696e-06 1.53747e-07)
(1.70399e-06 -1.13795e-05 1.91397e-07)
(2.85029e-06 -1.31987e-05 2.16528e-07)
(4.05651e-06 -1.42644e-05 2.39476e-07)
(5.20659e-06 -1.47397e-05 2.65246e-07)
(6.1894e-06 -1.47464e-05 2.96175e-07)
(6.9027e-06 -1.43877e-05 3.32821e-07)
(7.26152e-06 -1.37617e-05 3.74434e-07)
(7.2047e-06 -1.29666e-05 4.19157e-07)
(6.70224e-06 -1.21015e-05 4.64266e-07)
(5.76015e-06 -1.12634e-05 5.06399e-07)
(4.42276e-06 -1.05419e-05 5.42042e-07)
(2.77143e-06 -1.00127e-05 5.67891e-07)
(9.1812e-07 -9.73104e-06 5.81495e-07)
(-1.00551e-06 -9.7256e-06 5.81632e-07)
(-2.86093e-06 -9.99597e-06 5.68318e-07)
(-4.51641e-06 -1.05127e-05 5.42805e-07)
(-5.86005e-06 -1.12199e-05 5.07558e-07)
(-6.81048e-06 -1.20408e-05 4.65961e-07)
(-7.32305e-06 -1.28848e-05 4.21589e-07)
(-7.39136e-06 -1.36542e-05 3.77874e-07)
(-7.04469e-06 -1.42494e-05 3.37671e-07)
(-6.34229e-06 -1.45719e-05 3.02963e-07)
(-5.36685e-06 -1.45247e-05 2.74679e-07)
(-4.21632e-06 -1.40077e-05 2.52303e-07)
(-2.99842e-06 -1.29078e-05 2.33517e-07)
(-1.82144e-06 -1.10733e-05 2.12072e-07)
(-8.09976e-07 -8.24613e-06 1.7589e-07)
(-9.20235e-08 -3.84851e-06 9.21598e-08)
(9.38773e-08 -4.87794e-06 9.39455e-08)
(8.44106e-07 -1.03649e-05 1.81103e-07)
(1.91717e-06 -1.38521e-05 2.20999e-07)
(3.17675e-06 -1.60968e-05 2.46674e-07)
(4.49218e-06 -1.74455e-05 2.707e-07)
(5.74361e-06 -1.80962e-05 2.99328e-07)
(6.81263e-06 -1.81922e-05 3.35038e-07)
(7.58975e-06 -1.78543e-05 3.78245e-07)
(7.98225e-06 -1.71967e-05 4.27911e-07)
(7.92203e-06 -1.63324e-05 4.81621e-07)
(7.37393e-06 -1.5376e-05 5.35981e-07)
(6.34221e-06 -1.44399e-05 5.86856e-07)
(4.87396e-06 -1.36286e-05 6.29901e-07)
(3.05803e-06 -1.30314e-05 6.61083e-07)
(1.0182e-06 -1.27132e-05 6.7746e-07)
(-1.09923e-06 -1.27081e-05 6.77557e-07)
(-3.14039e-06 -1.30158e-05 6.61385e-07)
(-4.95889e-06 -1.36015e-05 6.30429e-07)
(-6.43086e-06 -1.43999e-05 5.87674e-07)
(-7.46741e-06 -1.53212e-05 5.37208e-07)
(-8.02115e-06 -1.62603e-05 4.83345e-07)
(-8.08735e-06 -1.71043e-05 4.30305e-07)
(-7.70038e-06 -1.77389e-05 3.81543e-07)
(-6.92694e-06 -1.80513e-05 3.39478e-07)
(-5.85808e-06 -1.79288e-05 3.05239e-07)
(-4.60083e-06 -1.72539e-05 2.78342e-07)
(-3.2719e-06 -1.58889e-05 2.563e-07)
(-1.9882e-06 -1.36441e-05 2.32181e-07)
(-8.84951e-07 -1.01895e-05 1.92561e-07)
(-1.00921e-07 -4.78297e-06 1.01089e-07)
(1.05604e-07 -5.85745e-06 1.05691e-07)
(9.29053e-07 -1.24131e-05 2.01811e-07)
(2.09374e-06 -1.65754e-05 2.44581e-07)
(3.45558e-06 -1.92769e-05 2.72243e-07)
(4.87417e-06 -2.09358e-05 2.99097e-07)
(6.22447e-06 -2.17893e-05 3.32312e-07)
(7.38091e-06 -2.20046e-05 3.74589e-07)
(8.22632e-06 -2.17195e-05 4.26318e-07)
(8.65969e-06 -2.10621e-05 4.86109e-07)
(8.60492e-06 -2.01591e-05 5.51031e-07)
(8.02044e-06 -1.91383e-05 6.16895e-07)
(6.90764e-06 -1.81263e-05 6.78615e-07)
(5.31545e-06 -1.72422e-05 7.30899e-07)
(3.33987e-06 -1.65879e-05 7.68756e-07)
(1.11686e-06 -1.62386e-05 7.88582e-07)
(-1.19171e-06 -1.62338e-05 7.88647e-07)
(-3.41535e-06 -1.65734e-05 7.68957e-07)
(-5.39216e-06 -1.72174e-05 7.3125e-07)
(-6.9861e-06 -1.80902e-05 6.79154e-07)
(-8.10112e-06 -1.90896e-05 6.17668e-07)
(-8.68799e-06 -2.00964e-05 5.52165e-07)
(-8.7449e-06 -2.09835e-05 4.87725e-07)
(-8.31287e-06 -2.16237e-05 4.28504e-07)
(-7.46698e-06 -2.1891e-05 3.7747e-07)
(-6.30722e-06 -2.16587e-05 3.36035e-07)
(-4.94932e-06 -2.07914e-05 3.03745e-07)
(-3.51818e-06 -1.91261e-05 2.77861e-07)
(-2.13809e-06 -1.64305e-05 2.50835e-07)
(-9.52695e-07 -1.22958e-05 2.07977e-07)
(-1.09189e-07 -5.7977e-06 1.09396e-07)
(1.14241e-07 -6.92163e-06 1.14367e-07)
(9.93134e-07 -1.46232e-05 2.17423e-07)
(2.22962e-06 -1.95064e-05 2.62981e-07)
(3.67392e-06 -2.26991e-05 2.93284e-07)
(5.17907e-06 -2.47022e-05 3.2399e-07)
(6.61585e-06 -2.57958e-05 3.63129e-07)
(7.85285e-06 -2.61722e-05 4.13588e-07)
(8.76591e-06 -2.59854e-05 4.75751e-07)
(9.24537e-06 -2.53754e-05 5.47927e-07)
(9.20636e-06 -2.44793e-05 6.26603e-07)
(8.5995e-06 -2.34357e-05 7.06712e-07)
(7.42146e-06 -2.23831e-05 7.82011e-07)
(5.72126e-06 -2.14533e-05 8.45947e-07)
(3.60101e-06 -2.07602e-05 8.9234e-07)
(1.20865e-06 -2.03888e-05 9.16622e-07)
(-1.27775e-06 -2.03844e-05 9.16653e-07)
(-3.67021e-06 -2.0747e-05 8.92419e-07)
(-5.79069e-06 -2.14309e-05 8.46093e-07)
(-7.49113e-06 -2.2351e-05 7.82286e-07)
(-8.66932e-06 -2.33928e-05 7.07145e-07)
(-9.27618e-06 -2.44248e-05 6.27305e-07)
(-9.31476e-06 -2.53086e-05 5.48956e-07)
(-8.83411e-06 -2.59061e-05 4.77163e-07)
(-7.91832e-06 -2.60805e-05 4.1545e-07)
(-6.67649e-06 -2.56932e-05 3.65491e-07)
(-5.232e-06 -2.45921e-05 3.26869e-07)
(-3.71613e-06 -2.25877e-05 2.9663e-07)
(-2.25819e-06 -1.94028e-05 2.66596e-07)
(-1.00741e-06 -1.4542e-05 2.20884e-07)
(-1.16149e-07 -6.88221e-06 1.16397e-07)
(1.19826e-07 -8.04558e-06 1.19965e-07)
(1.03212e-06 -1.69475e-05 2.27392e-07)
(2.31172e-06 -2.25869e-05 2.75061e-07)
(3.80744e-06 -2.63034e-05 3.08185e-07)
(5.37023e-06 -2.8688e-05 3.43398e-07)
(6.86948e-06 -3.00673e-05 3.89356e-07)
(8.17041e-06 -3.06587e-05 4.4924e-07)
(9.14362e-06 -3.06309e-05 5.23471e-07)
(9.67158e-06 -3.01328e-05 6.10102e-07)
(9.66019e-06 -2.93084e-05 7.05039e-07)
(9.05079e-06 -2.83029e-05 8.02286e-07)
(7.83291e-06 -2.72626e-05 8.94298e-07)
(6.05324e-06 -2.63287e-05 9.72785e-07)
(3.81789e-06 -2.56252e-05 1.02999e-06)
(1.28556e-06 -2.52461e-05 1.06002e-06)
(-1.34965e-06 -2.52421e-05 1.06001e-06)
(-3.88165e-06 -2.56132e-05 1.02998e-06)
(-6.11639e-06 -2.63085e-05 9.72776e-07)
(-7.89506e-06 -2.72337e-05 8.94337e-07)
(-9.11159e-06 -2.8265e-05 8.02447e-07)
(-9.71936e-06 -2.92611e-05 7.05384e-07)
(-9.72871e-06 -3.00761e-05 6.10647e-07)
(-9.19801e-06 -3.05649e-05 5.2432e-07)
(-8.22092e-06 -3.0584e-05 4.50403e-07)
(-6.91462e-06 -2.99858e-05 3.90859e-07)
(-5.40818e-06 -2.86027e-05 3.45202e-07)
(-3.83657e-06 -2.62193e-05 3.10235e-07)
(-2.33063e-06 -2.2511e-05 2.7723e-07)
(-1.04101e-06 -1.68896e-05 2.29418e-07)
(-1.20859e-07 -8.01848e-06 1.21157e-07)
(1.21475e-07 -9.19772e-06 1.2166e-07)
(1.0377e-06 -1.93223e-05 2.30068e-07)
(2.3205e-06 -2.57354e-05 2.78688e-07)
(3.82309e-06 -3.00002e-05 3.14274e-07)
(5.39985e-06 -3.28032e-05 3.54094e-07)
(6.92335e-06 -3.45192e-05 4.07241e-07)
(8.25935e-06 -3.53901e-05 4.77112e-07)
(9.27615e-06 -3.55977e-05 5.64371e-07)
(9.8505e-06 -3.52958e-05 6.67023e-07)
(9.87924e-06 -3.46297e-05 7.80496e-07)
(9.29366e-06 -3.37458e-05 8.97799e-07)
(8.07352e-06 -3.27929e-05 1.00984e-06)
(6.25951e-06 -3.19159e-05 1.1063e-06)
(3.95827e-06 -3.12449e-05 1.17728e-06)
(1.33667e-06 -3.08801e-05 1.21481e-06)
(-1.39642e-06 -3.08765e-05 1.21478e-06)
(-4.01736e-06 -3.1234e-05 1.17719e-06)
(-6.31732e-06 -3.18976e-05 1.10616e-06)
(-8.12946e-06 -3.2767e-05 1.00969e-06)
(-9.34734e-06 -3.37124e-05 8.9772e-07)
(-9.93021e-06 -3.45886e-05 7.8062e-07)
(-9.89819e-06 -3.52473e-05 6.67312e-07)
(-9.32017e-06 -3.55424e-05 5.64877e-07)
(-8.29894e-06 -3.53289e-05 4.77819e-07)
(-6.95756e-06 -3.44536e-05 4.08148e-07)
(-5.42772e-06 -3.27362e-05 3.55201e-07)
(-3.84371e-06 -2.99356e-05 3.15554e-07)
(-2.33338e-06 -2.56784e-05 2.80045e-07)
(-1.04344e-06 -1.92796e-05 2.31304e-07)
(-1.22058e-07 -9.1783e-06 1.22399e-07)
(1.17962e-07 -1.03356e-05 1.18165e-07)
(9.99436e-07 -2.16608e-05 2.22973e-07)
(2.23244e-06 -2.88398e-05 2.70713e-07)
(3.68166e-06 -3.36636e-05 3.07843e-07)
(5.21204e-06 -3.69161e-05 3.51585e-07)
(6.70473e-06 -3.90205e-05 4.11209e-07)
(8.03164e-06 -4.02425e-05 4.90511e-07)
(9.06333e-06 -4.07732e-05 5.90405e-07)
(9.67436e-06 -4.07675e-05 7.08936e-07)
(9.75454e-06 -4.03668e-05 8.4135e-07)
(9.22457e-06 -3.97114e-05 9.79798e-07)
(8.05239e-06 -3.89443e-05 1.11371e-06)
(6.26913e-06 -3.82068e-05 1.23047e-06)
(3.97719e-06 -3.7628e-05 1.31746e-06)
(1.34657e-06 -3.73088e-05 1.3639e-06)
(-1.40269e-06 -3.73055e-05 1.36383e-06)
(-4.0324e-06 -3.7618e-05 1.3173e-06)
(-6.32263e-06 -3.81902e-05 1.23024e-06)
(-8.10334e-06 -3.8921e-05 1.11347e-06)
(-9.2724e-06 -3.96816e-05 9.79594e-07)
(-9.7989e-06 -4.03307e-05 8.41239e-07)
(-9.71495e-06 -4.07256e-05 7.08954e-07)
(-9.09976e-06 -4.07264e-05 5.90602e-07)
(-8.06341e-06 -4.01916e-05 4.90891e-07)
(-6.73133e-06 -3.89671e-05 4.1176e-07)
(-5.23297e-06 -3.68627e-05 3.52268e-07)
(-3.69656e-06 -3.36129e-05 3.08617e-07)
(-2.2414e-06 -2.87959e-05 2.71554e-07)
(-1.00321e-06 -2.16284e-05 2.23763e-07)
(-1.18276e-07 -1.03211e-05 1.18663e-07)
(1.07883e-07 -1.14044e-05 1.08103e-07)
(9.06147e-07 -2.38515e-05 2.03493e-07)
(2.023e-06 -3.17546e-05 2.47891e-07)
(3.34273e-06 -3.71266e-05 2.8487e-07)
(4.74896e-06 -4.08463e-05 3.30882e-07)
(6.13793e-06 -4.33834e-05 3.94994e-07)
(7.39445e-06 -4.50255e-05 4.81206e-07)
(8.39751e-06 -4.59703e-05 5.90843e-07)
(9.02449e-06 -4.63689e-05 7.22373e-07)
(9.16232e-06 -4.6353e-05 8.71173e-07)
(8.72299e-06 -4.60488e-05 1.02889e-06)
(7.66191e-06 -4.5584e-05 1.18357e-06)
(5.99667e-06 -4.50864e-05 1.32027e-06)
(3.81941e-06 -4.4674e-05 1.4235e-06)
(1.2962e-06 -4.44398e-05 1.47924e-06)
(-1.34917e-06 -4.44368e-05 1.47919e-06)
(-3.87126e-06 -4.46648e-05 1.42335e-06)
(-6.04647e-06 -4.50714e-05 1.32002e-06)
(-7.70879e-06 -4.55631e-05 1.18326e-06)
(-8.76644e-06 -4.60223e-05 1.02861e-06)
(-9.20181e-06 -4.63215e-05 8.70999e-07)
(-9.05973e-06 -4.63329e-05 7.223e-07)
(-8.42826e-06 -4.59303e-05 5.90872e-07)
(-7.42053e-06 -4.49827e-05 4.8137e-07)
(-6.15911e-06 -4.33392e-05 3.95289e-07)
(-4.76512e-06 -4.08027e-05 3.31297e-07)
(-3.35385e-06 -3.70858e-05 2.85376e-07)
(-2.02942e-06 -3.17199e-05 2.48427e-07)
(-9.08697e-07 -2.38261e-05 2.04027e-07)
(-1.08034e-07 -1.13932e-05 1.08461e-07)
(8.99103e-08 -1.23371e-05 9.01335e-08)
(7.48129e-07 -2.57585e-05 1.69137e-07)
(1.67111e-06 -3.43017e-05 2.07002e-07)
(2.77145e-06 -4.01813e-05 2.41364e-07)
(3.95998e-06 -4.43632e-05 2.86719e-07)
(5.1553e-06 -4.73594e-05 3.51391e-07)
(6.26254e-06 -4.94756e-05 4.39515e-07)
(7.17679e-06 -5.09132e-05 5.5283e-07)
(7.78581e-06 -5.18154e-05 6.90333e-07)
(7.97956e-06 -5.2298e-05 8.47722e-07)
(7.66547e-06 -5.24656e-05 1.01671e-06)
(6.78768e-06 -5.24213e-05 1.18474e-06)
(5.34838e-06 -5.22676e-05 1.33521e-06)
(3.42299e-06 -5.20991e-05 1.45013e-06)
(1.16387e-06 -5.19916e-05 1.51281e-06)
(-1.21416e-06 -5.1989e-05 1.51273e-06)
(-3.47213e-06 -5.2091e-05 1.44996e-06)
(-5.3952e-06 -5.22541e-05 1.33493e-06)
(-6.83127e-06 -5.24026e-05 1.18444e-06)
(-7.70528e-06 -5.24423e-05 1.01639e-06)
(-8.01511e-06 -5.22703e-05 8.47466e-07)
(-7.81697e-06 -5.1784e-05 6.90117e-07)
(-7.20338e-06 -5.08787e-05 5.52728e-07)
(-6.28451e-06 -4.94392e-05 4.39539e-07)
(-5.17266e-06 -4.73223e-05 3.51504e-07)
(-3.97283e-06 -4.43271e-05 2.86932e-07)
(-2.77996e-06 -4.01479e-05 2.41655e-07)
(-1.67578e-06 -3.42734e-05 2.07328e-07)
(-7.49844e-07 -2.57381e-05 1.69502e-07)
(-8.99572e-08 -1.23282e-05 9.04189e-08)
(6.31721e-08 -1.30571e-05 6.34341e-08)
(5.19448e-07 -2.72274e-05 1.18339e-07)
(1.16415e-06 -3.62774e-05 1.46006e-07)
(1.94692e-06 -4.25875e-05 1.74528e-07)
(2.81399e-06 -4.71947e-05 2.15154e-07)
(3.71371e-06 -5.06457e-05 2.74808e-07)
(4.57944e-06 -5.32596e-05 3.57289e-07)
(5.33072e-06 -5.52373e-05 4.64729e-07)
(5.87459e-06 -5.67112e-05 5.96804e-07)
(6.11251e-06 -5.7776e-05 7.50014e-07)
(5.95453e-06 -5.85086e-05 9.1667e-07)
(5.33754e-06 -5.8978e-05 1.08444e-06)
(4.24737e-06 -5.9252e-05 1.23634e-06)
(2.73679e-06 -5.93917e-05 1.35347e-06)
(9.31673e-07 -5.94462e-05 1.41781e-06)
(-9.79538e-07 -5.94442e-05 1.41774e-06)
(-2.78337e-06 -5.93849e-05 1.35332e-06)
(-4.29147e-06 -5.92402e-05 1.23605e-06)
(-5.37831e-06 -5.89618e-05 1.08408e-06)
(-5.99145e-06 -5.8488e-05 9.16257e-07)
(-6.14505e-06 -5.77516e-05 7.49689e-07)
(-5.90261e-06 -5.66835e-05 5.96523e-07)
(-5.35419e-06 -5.52074e-05 4.64562e-07)
(-4.5984e-06 -5.32282e-05 3.57215e-07)
(-3.7283e-06 -5.06139e-05 2.74793e-07)
(-2.82447e-06 -4.71642e-05 2.15237e-07)
(-1.95365e-06 -4.25596e-05 1.74682e-07)
(-1.16769e-06 -3.62539e-05 1.46257e-07)
(-5.20653e-07 -2.72105e-05 1.1861e-07)
(-6.3178e-08 -1.30498e-05 6.36662e-08)
(2.76313e-08 -1.34844e-05 2.78626e-08)
(2.20675e-07 -2.80977e-05 5.08658e-08)
(5.03638e-07 -3.74692e-05 6.44462e-08)
(8.70802e-07 -4.40906e-05 8.33648e-08)
(1.31161e-06 -4.9046e-05 1.143e-07)
(1.81022e-06 -5.29052e-05 1.61856e-07)
(2.33632e-06 -5.59953e-05 2.29341e-07)
(2.84273e-06 -5.85126e-05 3.18834e-07)
(3.26535e-06 -6.05745e-05 4.30654e-07)
(3.52745e-06 -6.22516e-05 5.62479e-07)
(3.55031e-06 -6.35883e-05 7.07821e-07)
(3.26964e-06 -6.46155e-05 8.56127e-07)
(2.65621e-06 -6.53584e-05 9.91849e-07)
(1.73424e-06 -6.58385e-05 1.09742e-06)
(5.89918e-07 -6.60728e-05 1.1558e-06)
(-6.35481e-07 -6.60708e-05 1.15571e-06)
(-1.77838e-06 -6.58321e-05 1.09721e-06)
(-2.69787e-06 -6.53476e-05 9.91471e-07)
(-3.30795e-06 -6.46009e-05 8.557e-07)
(-3.58454e-06 -6.35698e-05 7.07377e-07)
(-3.55735e-06 -6.22299e-05 5.62042e-07)
(-3.29082e-06 -6.055e-05 4.30292e-07)
(-2.86378e-06 -5.84863e-05 3.18524e-07)
(-2.35305e-06 -5.59679e-05 2.29148e-07)
(-1.82283e-06 -5.28776e-05 1.61757e-07)
(-1.32045e-06 -4.90198e-05 1.14244e-07)
(-8.76332e-07 -4.40667e-05 8.34143e-08)
(-5.06404e-07 -3.74493e-05 6.45841e-08)
(-2.21488e-07 -2.80834e-05 5.10618e-08)
(-2.75716e-08 -1.34782e-05 2.80753e-08)
(-1.59017e-08 -1.35432e-05 -1.5652e-08)
(-1.39506e-07 -2.82181e-05 -3.14499e-08)
(-2.90516e-07 -3.76764e-05 -3.5544e-08)
(-4.24824e-07 -4.44471e-05 -3.0084e-08)
(-5.04062e-07 -4.96309e-05 -1.41053e-08)
(-5.0305e-07 -5.38044e-05 1.39928e-08)
(-4.09152e-07 -5.72948e-05 5.6432e-08)
(-2.2766e-07 -6.029e-05 1.15061e-07)
(1.59747e-08 -6.28901e-05 1.90832e-07)
(2.76909e-07 -6.51412e-05 2.82845e-07)
(4.97642e-07 -6.70534e-05 3.86994e-07)
(6.19795e-07 -6.86173e-05 4.95685e-07)
(6.0109e-07 -6.98147e-05 5.96863e-07)
(4.31687e-07 -7.06265e-05 6.76582e-07)
(1.44448e-07 -7.10362e-05 7.21011e-07)
(-1.87355e-07 -7.10341e-05 7.20882e-07)
(-4.73235e-07 -7.06203e-05 6.76296e-07)
(-6.40145e-07 -6.98047e-05 5.96449e-07)
(-6.55525e-07 -6.86034e-05 4.95181e-07)
(-5.29495e-07 -6.7036e-05 3.86503e-07)
(-3.04588e-07 -6.51212e-05 2.8236e-07)
(-3.93748e-08 -6.28679e-05 1.90419e-07)
(2.08511e-07 -6.02662e-05 1.14711e-07)
(3.94054e-07 -5.72705e-05 5.6183e-08)
(4.91809e-07 -5.37801e-05 1.38453e-08)
(4.96354e-07 -4.96078e-05 -1.41731e-08)
(4.20172e-07 -4.44264e-05 -3.00653e-08)
(2.883e-07 -3.76592e-05 -3.54568e-08)
(1.38904e-07 -2.82057e-05 -3.12853e-08)
(1.59737e-08 -1.35377e-05 -1.54656e-08)
(-6.51075e-08 -1.31725e-05 -6.48952e-08)
(-5.42325e-07 -2.74686e-05 -1.24563e-07)
(-1.1775e-06 -3.67385e-05 -1.49165e-07)
(-1.87447e-06 -4.34589e-05 -1.60384e-07)
(-2.54295e-06 -4.87095e-05 -1.64058e-07)
(-3.11356e-06 -5.30559e-05 -1.62282e-07)
(-3.52594e-06 -5.68155e-05 -1.54405e-07)
(-3.73685e-06 -6.01641e-05 -1.3888e-07)
(-3.7245e-06 -6.31852e-05 -1.1402e-07)
(-3.49206e-06 -6.58998e-05 -7.90368e-08)
(-3.0666e-06 -6.82867e-05 -3.48711e-08)
(-2.49389e-06 -7.03001e-05 1.51053e-08)
(-1.82687e-06 -7.18819e-05 6.45207e-08)
(-1.11331e-06 -7.29753e-05 1.05106e-07)
(-3.85155e-07 -7.35343e-05 1.28325e-07)
(3.45358e-07 -7.35324e-05 1.28203e-07)
(1.07479e-06 -7.29696e-05 1.04794e-07)
(1.79059e-06 -7.18725e-05 6.40434e-08)
(2.46071e-06 -7.0287e-05 1.45963e-08)
(3.0371e-06 -6.82705e-05 -3.53706e-08)
(3.46649e-06 -6.58811e-05 -7.95576e-08)
(3.70286e-06 -6.31648e-05 -1.14472e-07)
(3.71918e-06 -6.01425e-05 -1.3921e-07)
(3.51211e-06 -5.67935e-05 -1.54698e-07)
(3.10329e-06 -5.30342e-05 -1.62469e-07)
(2.53598e-06 -4.86892e-05 -1.64123e-07)
(1.87036e-06 -4.34406e-05 -1.60391e-07)
(1.17558e-06 -3.67234e-05 -1.49099e-07)
(5.41866e-07 -2.74578e-05 -1.24395e-07)
(6.52063e-08 -1.31678e-05 -6.47014e-08)
(-1.16559e-07 -1.23382e-05 -1.16352e-07)
(-9.59295e-07 -2.57823e-05 -2.21841e-07)
(-2.09512e-06 -3.45642e-05 -2.68316e-07)
(-3.37801e-06 -4.10074e-05 -2.9839e-07)
(-4.66706e-06 -4.61297e-05 -3.25208e-07)
(-5.84834e-06 -5.04661e-05 -3.54937e-07)
(-6.81096e-06 -5.43156e-05 -3.88666e-07)
(-7.45884e-06 -5.78386e-05 -4.2551e-07)
(-7.71682e-06 -6.1102e-05 -4.63056e-07)
(-7.53905e-06 -6.41053e-05 -4.98436e-07)
(-6.91537e-06 -6.68032e-05 -5.28865e-07)
(-5.87266e-06 -6.91198e-05 -5.5214e-07)
(-4.47181e-06 -7.09658e-05 -5.67707e-07)
(-2.80093e-06 -7.22555e-05 -5.76327e-07)
(-9.64296e-07 -7.29191e-05 -5.79812e-07)
(9.28141e-07 -7.29171e-05 -5.79905e-07)
(2.7659e-06 -7.225e-05 -5.76542e-07)
(4.43891e-06 -7.09567e-05 -5.68051e-07)
(5.8424e-06 -6.9107e-05 -5.52571e-07)
(6.8883e-06 -6.67876e-05 -5.29289e-07)
(7.51539e-06 -6.40875e-05 -4.98831e-07)
(7.6967e-06 -6.10827e-05 -4.63426e-07)
(7.44237e-06 -5.78189e-05 -4.25789e-07)
(6.79803e-06 -5.42956e-05 -3.88906e-07)
(5.83872e-06 -5.04467e-05 -3.5511e-07)
(4.66056e-06 -4.61117e-05 -3.25318e-07)
(3.37418e-06 -4.09915e-05 -2.98421e-07)
(2.09332e-06 -3.45511e-05 -2.68261e-07)
(9.58849e-07 -2.57729e-05 -2.21677e-07)
(1.16646e-07 -1.23341e-05 -1.16164e-07)
(-1.65431e-07 -1.1043e-05 -1.65248e-07)
(-1.35221e-06 -2.31666e-05 -3.14239e-07)
(-2.96176e-06 -3.11587e-05 -3.81996e-07)
(-4.8059e-06 -3.70876e-05 -4.31267e-07)
(-6.69839e-06 -4.18678e-05 -4.82491e-07)
(-8.48328e-06 -4.59847e-05 -5.46082e-07)
(-1e-05 -4.97102e-05 -6.24979e-07)
(-1.10981e-05 -5.31876e-05 -7.19006e-07)
(-1.16464e-05 -5.6469e-05 -8.25276e-07)
(-1.1547e-05 -5.95401e-05 -9.38594e-07)
(-1.07474e-05 -6.23379e-05 -1.05193e-06)
(-9.25171e-06 -6.47684e-05 -1.15698e-06)
(-7.12632e-06 -6.67229e-05 -1.24535e-06)
(-4.49881e-06 -6.80966e-05 -1.30913e-06)
(-1.54748e-06 -6.8806e-05 -1.34248e-06)
(1.51589e-06 -6.8804e-05 -1.34256e-06)
(4.46799e-06 -6.80907e-05 -1.30935e-06)
(7.09702e-06 -6.67134e-05 -1.24562e-06)
(9.22449e-06 -6.47559e-05 -1.15729e-06)
(1.07228e-05 -6.23231e-05 -1.05226e-06)
(1.15252e-05 -5.95235e-05 -9.38888e-07)
(1.16277e-05 -5.64514e-05 -8.2554e-07)
(1.10826e-05 -5.31695e-05 -7.19251e-07)
(9.98765e-06 -4.96922e-05 -6.2517e-07)
(8.47407e-06 -4.59674e-05 -5.4622e-07)
(6.69207e-06 -4.1852e-05 -4.82579e-07)
(4.80211e-06 -3.70738e-05 -4.31231e-07)
(2.96007e-06 -3.11474e-05 -3.8191e-07)
(1.35182e-06 -2.31585e-05 -3.14079e-07)
(1.65519e-07 -1.10394e-05 -1.65059e-07)
(-2.0577e-07 -9.33687e-06 -2.05613e-07)
(-1.67583e-06 -1.97225e-05 -3.90444e-07)
(-3.68189e-06 -2.66492e-05 -4.75976e-07)
(-6.00719e-06 -3.1837e-05 -5.42119e-07)
(-8.43056e-06 -3.60611e-05 -6.15912e-07)
(-1.07592e-05 -3.97412e-05 -7.11629e-07)
(-1.27868e-05 -4.31166e-05 -8.34285e-07)
(-1.43112e-05 -4.63114e-05 -9.8454e-07)
(-1.51472e-05 -4.93671e-05 -1.15887e-06)
(-1.51447e-05 -5.22613e-05 -1.34982e-06)
(-1.4209e-05 -5.49247e-05 -1.54624e-06)
(-1.23199e-05 -5.72571e-05 -1.73356e-06)
(-9.54602e-06 -5.91441e-05 -1.8952e-06)
(-6.0502e-06 -6.04762e-05 -2.01461e-06)
(-2.08064e-06 -6.11655e-05 -2.07821e-06)
(2.05403e-06 -6.11636e-05 -2.07823e-06)
(6.02401e-06 -6.04705e-05 -2.01468e-06)
(9.5208e-06 -5.91352e-05 -1.89529e-06)
(1.22961e-05 -5.72451e-05 -1.73365e-06)
(1.41869e-05 -5.49107e-05 -1.54634e-06)
(1.51247e-05 -5.22458e-05 -1.34991e-06)
(1.51296e-05 -4.9351e-05 -1.15897e-06)
(1.42964e-05 -4.62951e-05 -9.84632e-07)
(1.27749e-05 -4.31007e-05 -8.34346e-07)
(1.07502e-05 -3.97263e-05 -7.11662e-07)
(8.42435e-06 -3.60475e-05 -6.15961e-07)
(6.00344e-06 -3.18252e-05 -5.4208e-07)
(3.68013e-06 -2.66395e-05 -4.75874e-07)
(1.67536e-06 -1.97158e-05 -3.9027e-07)
(2.05839e-07 -9.33393e-06 -2.05426e-07)
(-2.30641e-07 -7.32505e-06 -2.305e-07)
(-1.8799e-06 -1.56568e-05 -4.37106e-07)
(-4.15274e-06 -2.12984e-05 -5.33241e-07)
(-6.82248e-06 -2.55531e-05 -6.10247e-07)
(-9.64718e-06 -2.90317e-05 -7.00426e-07)
(-1.24047e-05 -3.20773e-05 -8.21333e-07)
(-1.48499e-05 -3.48916e-05 -9.79989e-07)
(-1.67358e-05 -3.75799e-05 -1.17782e-06)
(-1.783e-05 -4.01763e-05 -1.41089e-06)
(-1.79365e-05 -4.26576e-05 -1.66978e-06)
(-1.69221e-05 -4.49585e-05 -1.93959e-06)
(-1.47432e-05 -4.69857e-05 -2.20001e-06)
(-1.14679e-05 -4.86334e-05 -2.42722e-06)
(-7.2869e-06 -4.98e-05 -2.59652e-06)
(-2.50611e-06 -5.04048e-05 -2.68722e-06)
(2.48488e-06 -5.0403e-05 -2.68717e-06)
(7.26572e-06 -4.97948e-05 -2.59642e-06)
(1.1447e-05 -4.86254e-05 -2.4271e-06)