/*--------------------------------*- C++ -*----------------------------------*\
| =========                 |                                                 |
| \\      /  F ield         | OpenFOAM: The Open Source CFD Toolbox           |
|  \\    /   O peration     | Version:  v1912                                 |
|   \\  /    A nd           | Website:  www.openfoam.com                      |
|    \\/     M anipulation  |                                                 |
\*---------------------------------------------------------------------------*/
FoamFile
{
    version     2.0;
    format      ascii;
    class       volScalarField;
    location    "120/oil";
    object      wallHeatFlux;
}
// * * * * * * * * * * * * * * * * * * * * * * * * * * * * * * * * * * * * * //

dimensions      [1 0 -3 0 0 0 0];


internalField   uniform 0;

boundaryField
{
    maxY
    {
        type            calculated;
        value           uniform 0;
    }
    minX
    {
        type            calculated;
        value           uniform 0;
    }
    maxX
    {
        type            calculated;
        value           uniform 0;
    }
    minY
    {
        type            calculated;
        value           uniform 0;
    }
    minZ
    {
        type            calculated;
        value           uniform 0;
    }
    maxZ
    {
        type            calculated;
        value           uniform 0;
    }
    oil_to_sphere
    {
        type            calculated;
        value           nonuniform List<scalar> 
1536
(
6139.03
6416.7
5984.46
5908.6
5161.22
5315.47
5251.19
4088.94
3932.44
6630.74
5118.32
6691.93
6795.06
6691.75
5873.78
5124.16
4135.16
3955.18
1228.6
6783.45
6629.95
5359.72
5280.67
5160
5409.53
5407.66
5408.83
5175.6
6439.05
6361.64
5982.78
4875.3
4509.2
5432.54
5137.59
5109.39
4919.86
5630.94
5345.04
5612.69
5346.58
5108.84
6287.09
6706.92
6384.75
6662
5303.93
5310.09
5795.63
5409.27
5339.34
5343.51
5244.71
5314.1
4671.03
4430.74
5296.21
5280.11
3975.3
2846.84
3102.72
2808.41
3046.68
6772.74
6808.19
6683.51
6414.31
6674.27
6127.93
6362.36
5445.1
5304.22
5973.05
5361.72
5139.59
4507.55
4375.61
4267.25
5131.57
3958.55
2799
3051.73
2505.4
2475.86
3232.27
3097.65
2557.73
4116.44
3949.24
2837.26
3073.31
1223.47
1229.21
6799.84
6814.3
6710.77
6484.58
6573.93
6691.89
6095.79
6436.57
5424.58
6109.06
5986.61
5336.84
5361.12
5168.9
4289.76
5085.28
4533.23
4358.25
4492.76
2839.75
3116.16
2530
2575.03
2524.12
3212.03
3097.33
3259.75
3967.52
3078.03
1230.84
6682.37
6102.23
6362.08
6134.13
6334.1
5332.83
5351.96
5388.47
5330.52
5342.17
5300.29
5377.02
5412.81
5309.01
4433.43
5247.42
5229.94
2848.36
3090.35
4120.91
3971.67
3054.16
3921.92
5814.87
5815.53
5244.28
5461.53
5970.24
5814.16
5293.88
5374.65
5361.38
4932.6
4662.86
4729.26
5831.46
5745.65
5853.5
6309.16
5566.93
5383.38
5116.05
4930.99
5321.21
5025.05
4681.86
4744.45
6268.94
5667.32
6391.96
5587.57
4818.49
4357.93
5839.73
5910.44
6158.94
5783.92
5557.54
5369.29
4937.18
5363.13
4841.52
4737.83
4767.85
6534.03
5755.15
5976.06
6243.63
5856.93
6183.8
5957
4833.93
4906.06
4979.26
5016.3
4801.94
4905.68
5001.5
5144.8
3955.11
3860.82
3767.12
4021.63
4145.63
4096.74
4277.55
4244.53
3873.24
3684.29
3578.91
6530.52
6929.22
6815.19
6573.35
6557.07
6601.99
6553.95
6503.41
6723.21
6391.77
6527.85
6546.44
5863.35
5863.13
6396.74
6091.01
5481.32
4960.16
4855.71
5311.22
4865.55
3895.2
3990.94
3798.38
4035.65
4124.71
3816.58
3664.7
2336.77
2120.04
6729.67
6556.74
6651.78
6533.73
6677.97
6951.99
6700.94
6524.71
5739.19
5396.48
5750.2
5820.4
4885.05
5147.52
3901.38
3705.4
4168.98
4403.98
4271.64
3609
2101.22
2303.3
1681.95
1684.92
2311.31
6630.55
6506.84
6476.54
6394.14
6528.75
6565.12
6458.66
6649.56
7026.67
6769.63
6509.4
6186.9
5826.95
5848.38
6048.78
6447.2
6110.67
5833.38
5824.25
4933.74
4970.41
5147.38
5192.8
5006.47
5135.96
3797.19
3695.2
3847.66
4068.63
3986.95
4128.03
4124.24
4117.41
3774.53
3637.49
4042.87
3863.02
5459.02
5241.74
5304.69
4928.68
4825.68
4744.6
4624.74
6287.97
6070.47
6385.75
6226.73
6063.66
6281.39
6326.11
6432.12
6607.69
6331.11
6384.46
6296.78
6906.96
6635.32
6539.32
6377.53
6593.34
6753.39
6565.24
6175.42
6229
6374
6057.02
6351.81
6440.17
6595.05
6557.51
6706.52
6643.51
6592.4
6453.07
6449.22
6404.76
6469.81
6279.16
6305.53
6100.28
6261.23
6006.28
6090.98
6430.24
5811.51
6311.79
5870.42
5938.03
5766.6
5485.9
6273.22
5830.34
5815.03
6036.15
5499.77
5687.14
5850.48
5440.99
5603.04
5330.7
5880.19
6280.3
5845.47
5885.52
5943.44
5555.26
5714.7
5672.12
4947.11
5065.75
4921.31
4692.13
4564.81
4707.15
4436.56
4324.96
4974.91
5070.74
4960.36
4744.02
4602.74
4814.23
4424.51
4328.07
4234.2
4906.81
4313.14
4728.32
4620.19
4745.38
4411.01
4962.87
5105.6
4955.48
5083.75
4366.48
4247.85
4737.32
4618.11
4782.24
4379.21
4288.88
4069.57
3965.43
4057.38
3956.33
3784.49
3792.68
3656
3918.24
3712.18
4171.27
3618.32
3681.16
3571.99
3419.68
3618.67
3544.96
3309.88
3235.8
3001.81
4002.88
3900.06
3777.36
4034.28
3691.39
3790.03
3313.27
3205.08
3160.53
3003.86
3579.02
3444.53
3626.37
3550.75
3508.45
4054.15
3951.06
4094.11
4096.96
3791.51
3638.18
3980.84
3843.6
7432.06
7146.75
6889.34
7359.48
6896.46
6970.07
7148.49
6727.94
6803.32
6911.72
6882.06
6525.68
6752.28
6452.85
6419.53
6372.95
6350.36
6477.88
6442.49
6586.59
6731.44
6221.66
6634.49
6292.7
6469.34
6315.33
6652.53
6391.26
6623.16
6502.55
6673.21
6527.49
6239.84
6424.73
6104.98
6580.37
5780.74
5986.46
5882.09
5348.35
5585.32
5574.03
5877.85
5343.48
5800.73
5327.11
5583.04
5385.41
5176.09
5311.09
4956.06
4878.73
4627.52
4758.21
4692.88
4562.83
4364.39
4851.3
4328.82
5116.77
4917.15
4666.15
3693.34
3554.82
3444.27
3654.93
3568.46
3883.06
3691.92
4169.41
3596.05
3293.01
3270.51
3030.12
2687.77
2452.1
2706.95
2462.55
2903.47
3109.14
2894.89
2646.08
2699.84
3862.27
3979.95
3765.9
4018.68
3630.36
3457.1
3658.68
3520.58
3856.65
3671.83
4074.1
4241.04
3601.59
3298.65
3516.65
3235.3
3004.1
3428.56
2309.42
2114.21
2371.37
2118.23
1700.45
1689.84
1694.78
1688.12
2067.64
7257.63
6820.47
6978.52
6918.72
6836.68
7270.34
7004.03
6903.95
6788.57
6538.97
6877.44
6944.54
7075.5
6566.41
6597.29
6741.67
6756.08
6222.76
6546.14
6243.83
6645.6
6460.27
6438.95
6357.05
6517.52
6346.82
6502.32
6680.42
6396.55
6203.29
6115.03
6484.26
6632.77
6223.61
6600.86
6285.1
6083.65
6696.51
6446.08
6418.21
6496.76
6311.89
6301.07
6452.67
6645.59
6337.12
6119.2
5875.79
5837.22
5603.35
5384.48
5640.72
6247.16
5958.47
5888.46
5686.43
5650.38
5491.97
5568.41
5586.02
5357
5346.69
4937.47
5289.13
4828.71
5052.62
4750.5
4634.74
5411.13
5151.36
4419.48
4887.06
4319.16
4826.51
4547.59
4348.52
4696.77
4774.83
4766.82
4690.04
4656.41
5343.84
4902.22
3293.44
3289.82
3199.09
3041.72
3984.93
3865.08
3776.78
4032.09
3699.92
3800.92
3469.44
3681.7
3649.17
3543.83
3490.35
2930.62
2928.08
3134.45
2675.95
2691.73
2448.33
2710.26
2714.79
2442.52
3085.47
2877.42
2891.22
3116.04
2655.62
3861.7
3680.18
4130.42
4252.42
3605.15
3309.66
3524.15
3208.2
3191.32
3440.43
3810.59
3649.31
3963.52
3893.48
3775.13
4032.28
4112.48
3447.14
3581.47
3646.51
3533.08
3501.43
1698.61
1696.54
2350.31
2326.05
2121.92
2066.12
2566.88
2324.41
2085.56
6052.34
6353.16
6339.92
6033.46
6312.6
6057.93
6040.07
6627.88
6511.68
6746.55
6521.14
6239.81
6438.22
6334.45
6592.28
6395.66
6492.51
6248.87
6251.02
6638.2
6452.3
6360.03
6394.15
6311.25
6306.11
6427.29
6128.62
6094.53
6256.34
6401.79
6246.37
6488.01
6329.15
6774.67
6282.61
6139.9
6221.74
6263.04
6095.25
6035.8
6441.91
5834.82
5594.34
5602.82
5759.23
5381.84
6232.45
5826.93
5806.29
5973.26
5701.14
5706.37
5560.55
6098.8
5780.06
5837.89
5972.84
5513.13
5558.99
5800.9
5749.09
5383.4
5932.63
6243.07
5909.52
5960.78
5729.31
5713.19
5592.66
5585.05
5359.79
4725.19
4609.73
4763.75
4422.74
4369.95
4267.03
5038.1
4869.54
5069.87
4968.68
4611.38
4741.33
4730.99
4362.07
4278.5
4306.37
4966.2
4955.96
5105.81
4942.93
5099.73
4342.62
4411.67
4714.94
4585.01
4728.3
4351.24
4278.13
5150.44
4928.94
4926.05
5022.33
5132.14
4397.14
4290.84
4616.34
4752.92
4756.04
3956.6
4080.84
3790.28
3768.14
3631.95
4061.17
3966.41
4075.35
3584.71
3443.12
3640.62
3520.9
3348.91
3578.92
3255.17
3017.9
3463.27
3885.52
3957.16
3758.64
4041.74
4272.5
4545.03
3979.53
3762.23
3640.31
3709.52
3910.43
3306.52
3500.12
3227.1
3196.73
3411.64
3597.38
3459.8
3607.25
3579.67
3506.84
4088.83
4293.2
3886.64
3687.83
3591.12
4022.11
4125.74
3881.23
3987.63
3792.96
5998.83
5860.45
4368.04
4177.94
6684.25
6476.25
6619.44
6665.01
6618.46
5780.18
6202.85
6008.19
6132.78
5096.04
5368.06
4189.22
2474.91
2413.43
5992.1
5979.19
4102.16
2481.17
2364.66
2844.82
6675.63
5836.1
5284.43
2809.37
6136.52
5944.74
6096.3
5080.12
5388.08
5370.14
4086.44
6025.82
6139.3
5354.93
5375.42
6080.76
5316
5365.18
4991.97
5138.83
4266.86
4492.67
4667.52
5863.54
6067.84
5282.16
5583.85
5062.52
5249.9
4267.9
4485.11
4542.58
5820.8
6168.1
5312.6
5709.37
4612.13
4293.12
4565.87
4956.7
5573.03
5524.85
6091.42
6165.27
5360.67
5319.84
5280.63
5376.6
4520.53
4305.09
4527.03
4128.92
6931.14
6784.2
6084.89
6579.67
6061.84
6708.3
6640.05
5345.62
5884.87
5864.63
5974.35
5848.77
5317.8
4599.97
4490.21
4500.79
4519.32
4502.3
4450.25
3358.69
4173.61
3270.37
3380.13
6811.75
6644.48
6898.54
6683.83
6839.79
6737.69
6824.04
6767.88
6886.3
6733.94
6085.69
6601.31
6094.62
6370.1
6097.83
5302.91
5642.69
5807.57
6285.87
5404.01
6053.45
5305.83
4310.2
4534.7
4613.03
4348.62
4510.03
4469.66
4140.24
3374.16
3163.63
3113.58
3238.96
4168.85
3336.86
2425.55
2492.66
2358.94
6927.41
6825.07
6734.34
7045.15
6751.76
6870.53
6738.04
6975.81
6851.03
6103.75
6580.52
6005.54
6659.43
6615.02
6460.88
6615.03
6460.3
6037.62
6238.9
5285.56
5815.25
6213.77
5847.69
6177.59
5367.53
4274.41
4553.22
5062.17
5309.38
4434.48
4675.87
4325.45
4509.54
5266.02
4192.4
3361.81
3061.58
3173.22
3093.64
4154.74
3336.04
2421.93
2362.75
2393.44
6790.37
6330.24
6129.4
6687.71
6038.37
5350.22
5980.02
5891.38
5890.93
5865.57
4471.29
4703.56
4462.88
4463.14
4464.41
3348.77
4256.11
3393.8
4212.8
6079.87
5803.54
5537.26
5761.69
6165.88
5843.15
4754.77
4961.05
4771.77
5926.45
6174.19
5903.12
5630.85
6249.7
5445.67
5756.43
5731.75
5498.27
5893.22
5676.59
6199.53
5542.14
5684.04
5709.07
5590.29
5116.64
5098.63
4785.9
4758.78
4582.84
4358.28
4749.09
4540.69
4672.57
6105.71
5756.08
5594.68
5771.48
6149.74
5456.56
5541.12
5575.12
5183.56
5757.37
4936.91
5230.03
5151.19
4802.38
4816.84
4616.15
4354.05
4698.2
4511.91
4677.34
5789.84
6123.36
5454.2
5502.75
5621.29
5148.69
5734.56
5081.7
4782.46
4500.32
4826.55
4714.15
4856.72
6451.16
6461.24
6417.61
6494.3
5545.99
6173.79
5910.25
4974.2
4985.19
5156.77
5128.48
5084.56
4090.91
4306.85
4273.59
3842.38
3759.08
4337.32
4133.97
4130.61
6493.1
6546.24
6671.2
6418.5
5642.98
5893.79
5487.99
6310.26
5868.2
5076.48
5070.7
4803.47
4118.41
4425.8
4269.29
3862.36
2925.78
2971.28
2669.28
2696.94
2445.82
2336.37
6497.08
6468.88
6461.75
6379.51
6603.89
5780.38
6054.04
5927.19
4911.17
3767.62
4295.53
2689.69
2442.22
2366.08
2040.43
3004.85
6503.65
6496.85
6660.51
6513.33
6602.37
6589.78
6508.12
6461.94
6617.71
5459.74
5675.41
6556.55
5852.84
5107.02
5124.54
4131.46
4312.84
4099.68
4004.09
4234.76
3840.15
3019.71
5088.98
4252.53
6242.39
6132.37
5771.91
5812.74
5090.34
4909.35
5014.72
4686.92
4489.53
4781.76
4578.35
4560.47
4456.85
6918.49
6814.35
5943.31
5975.65
6331.76
6469.37
6388.88
6416.73
6011.27
6303.47
6163.29
6376.81
6059.65
6233.92
6550.47
6402.98
6443.03
6407.01
5984.49
6146.65
6221.17
6345.36
6495.39
6619.19
6559.53
6596.62
6294.36
6003.66
6192.3
6617.88
6500.62
6616.58
6549.27
6038.29
6469.35
6576.53
6389
6176.12
6273.47
6150
5768.94
5635.23
6350.05
5768.21
5580.17
5585.44
5296.31
5340.11
5322.78
5606.34
6216.97
5890.44
5388.58
5362.94
5586.62
5392.99
5618.55
6124.22
5709.64
5350.27
5168.74
5133.76
4718.91
4806.84
4335.01
5134.46
4713.74
4849.15
4375.34
5002.76
5142.87
4761.91
4359.69
5112.91
4590.6
4742.37
4107.8
4101.64
3767.47
3797.38
3499.47
3527.26
3806.94
3530.99
3457.17
3193.77
3146.08
3121.27
3250.59
4080.33
3843.69
3516.12
3418.64
3223.58
3227.66
3103.83
4001.64
4122.96
3515.63
6982.23
6679.12
6847.9
6546.64
6655.88
6964.98
6448.91
7267.82
6686.16
6758.15
6727.67
6987.41
6738.14
6943.06
7269.32
7001.99
6686.8
6890.76
6283.74
6490.54
6774.8
6610.98
6081.99
6437.11
6228.77
6518.61
6400.85
6487.88
6408.97
6628.07
6246.88
5969.36
6112.94
6358.09
6603.19
6459.33
6431.56
6300.99
5514.42
5673.83
5325.46
5798.82
6110.14
5520.15
5682.34
5757.42
5826.75
5831.24
6068.59
5557.02
4971.82
4752.72
4629.65
4890.52
5102.04
4516.66
4570.69
4775.43
4967.84
4757.42
4567.28
4376.33
3237.25
3202.49
3150.04
3757
3514.49
3423.49
3213.82
4074.06
4184.4
3211.05
3168.59
3763.22
3228.01
2364.03
2373.02
2091.59
2566.78
2050.07
2357.62
2608.58
7040.38
6693.6
7142.72
6862.54
6840.93
6607.95
6669.79
6452.59
6922.07
7133.09
6948.81
6699.21
6621.08
6572.33
6752.59
6751.77
6749.27
6286.88
6641.56
6211.37
6585.14
6623.61
6496.01
5921.6
6652.58
6345.27
6475.06
6418
6283.88
6415.44
6423.38
6109.59
6247.42
6156.61
5712.17
6095.34
5792.13
5543.83
5458.32
5161.55
5592.63
6194.94
5729.83
5758.6
5009.38
4562.25
4640.5
4911.6
4940.73
4652.56
4826.48
4845.45
4737.69
4566.46
5056.41
5091.76
3517.47
3430.45
3222.7
4121.66
3867.13
3216.62
3157.99
3778.66
3240.54
4077.94
3194.07
2078.46
2348.24
2612.73
6971
6496.69
6069.44
6403.42
6079.02
6053.53
6270.54
6607.46
6488.82
6444.53
6091.57
6238.2
6384.88
6298.58
6513.6
6442.66
6482.62
6413.18
6294.58
6009.27
6420.06
6239.22
6168.07
5834.81
5377.74
5669.38
6377.4
5756.89
5562.97
5325.84
5322.69
5596.02
6205.49
5340.07
5589.41
6186.84
5380.47
4678.77
4417.67
5023.07
5133.63
5003.48
4691.22
4877.42
5079.49
4595.62
5104.87
4599.94
3488.88
4115.93
3201.91
3160.76
3272.2
4083.87
4333.64
3802.88
3214.17
3263.42
3749.41
4097.37
)
;
    }
}


// ************************************************************************* //
