/*--------------------------------*- C++ -*----------------------------------*\
| =========                 |                                                 |
| \\      /  F ield         | OpenFOAM: The Open Source CFD Toolbox           |
|  \\    /   O peration     | Version:  v1912                                 |
|   \\  /    A nd           | Website:  www.openfoam.com                      |
|    \\/     M anipulation  |                                                 |
\*---------------------------------------------------------------------------*/
FoamFile
{
    version     2.0;
    format      ascii;
    class       volScalarField;
    location    "242/oil";
    object      heatTransferCoeff(T);
}
// * * * * * * * * * * * * * * * * * * * * * * * * * * * * * * * * * * * * * //

dimensions      [1 0 -3 -1 0 0 0];


internalField   uniform 0;

boundaryField
{
    maxY
    {
        type            calculated;
        value           uniform 0;
    }
    minX
    {
        type            calculated;
        value           uniform 0;
    }
    maxX
    {
        type            calculated;
        value           uniform 0;
    }
    minY
    {
        type            calculated;
        value           uniform 0;
    }
    minZ
    {
        type            calculated;
        value           uniform 0;
    }
    maxZ
    {
        type            calculated;
        value           uniform 0;
    }
    oil_to_sphere
    {
        type            calculated;
        value           nonuniform List<scalar> 
1536
(
-133.398
-141.297
-127.731
-125.677
-101.198
-106.394
-104.871
-64.8215
-59.0061
-148.219
-99.6267
-150.178
-153.507
-150.285
-124.766
-100.504
-66.3344
-59.7271
38.7921
-153.097
-148.364
-107.743
-105.391
-101.81
-109.671
-109.59
-109.64
-102.225
-141.468
-139.1
-128.014
-89.8071
-79.1392
-110.284
-101.069
-100.065
-93.8046
-117.36
-107.624
-116.265
-107.609
-100.132
-137.389
-150.517
-140.421
-149.237
-106.96
-107.265
-122.161
-110.461
-107.848
-108.18
-104.075
-106.403
-84.4918
-76.49
-105.701
-105.244
-60.3693
-18.5068
-27.7022
-17.2877
-25.9537
-152.947
-154.007
-149.869
-141.177
-149.776
-132.695
-139.785
-110.824
-106.229
-127.639
-108.17
-101.161
-79.8677
-74.892
-71.2476
-100.753
-59.7154
-16.9449
-26.0148
-6.6901
-5.71563
-32.4059
-27.282
-8.339
-65.7087
-59.5597
-18.3011
-26.8313
38.9531
38.7034
-153.732
-154.178
-150.775
-143.352
-146.722
-150.341
-131.892
-141.942
-110.152
-132.463
-128.445
-107.14
-108.111
-101.935
-72.118
-99.3022
-80.6818
-74.0983
-78.7759
-18.2232
-27.9051
-7.47395
-8.85476
-7.22336
-31.8202
-27.2923
-33.2807
-60.2146
-26.9776
38.8369
-149.884
-131.911
-139.542
-132.818
-138.799
-107.688
-108.217
-109.449
-107.699
-108.301
-106.813
-109.086
-109.338
-106.49
-76.595
-104.552
-104.124
-18.643
-27.4246
-65.9473
-60.3332
-26.194
-58.6502
-123.07
-123.037
-104.602
-112.096
-127.701
-122.697
-106.825
-109.297
-108.008
-93.9206
-85.2484
-86.843
-123.422
-120.65
-123.51
-133.072
-114.89
-109.185
-100.165
-94.2049
-106.378
-96.7457
-85.9213
-87.6866
-135.783
-118.652
-139.473
-116.736
-88.0684
-73.7105
-124.128
-125.214
-129.421
-121.754
-114.441
-108.63
-94.4491
-107.716
-90.1248
-87.9445
-86.7829
-143.753
-121.464
-128.139
-134.961
-124.075
-133.183
-126.916
-91.1702
-91.5034
-96.284
-97.4178
-89.6393
-92.9098
-96.0833
-100.926
-59.4359
-56.0675
-52.5652
-61.9477
-66.4223
-64.5627
-71.6273
-68.8338
-56.5979
-49.6299
-45.894
-146.076
-157.576
-154.24
-146.706
-146.928
-148.115
-146.239
-144.847
-150.989
-141.427
-145.325
-145.519
-124.907
-124.291
-140.199
-131.255
-112.079
-94.7256
-89.9775
-106.238
-91.7379
-57.1031
-60.6347
-53.5599
-62.2449
-65.6473
-54.5006
-48.8616
1.24975
8.4711
-152.072
-146.046
-148.35
-145.177
-149.771
-157.927
-150.298
-145.026
-120.316
-110.353
-120.74
-122.702
-92.672
-101.225
-57.5587
-50.3357
-66.8832
-75.0179
-70.8302
-46.9052
9.02147
2.13269
22.7894
22.9854
1.50046
-148.391
-144.556
-143.772
-141.649
-145.239
-145.644
-142.954
-148.993
-160.335
-152.46
-144.56
-132.979
-123.047
-123.483
-130.289
-141.128
-131.958
-123.756
-123.589
-93.9335
-95.111
-101.387
-103.078
-96.375
-100.938
-53.6816
-49.7948
-55.4703
-63.9859
-60.7611
-66.1206
-64.5485
-64.8676
-53.0173
-47.9259
-62.0989
-55.5304
-112.048
-104.296
-106.08
-94.0675
-90.3174
-88.14
-83.6608
-137.469
-130.559
-140.795
-135.947
-130.624
-136.444
-138.893
-141.618
-146.469
-138.319
-140.481
-138.375
-156.62
-148.551
-145.714
-140.628
-146.611
-151.99
-145.696
-133.885
-136.242
-139.454
-130.948
-139.718
-142.014
-146.55
-145.623
-150.646
-148.825
-147.233
-143.012
-142.931
-141.775
-143.064
-137.104
-137.403
-131.994
-136.744
-129.139
-131.643
-141.979
-123.091
-136.654
-124.499
-127.195
-121.528
-112.159
-135.847
-123.542
-122.419
-130.052
-112.485
-119.113
-123.396
-111.113
-116.019
-107.033
-125.008
-135.449
-123.68
-124.655
-127.066
-114.34
-119.813
-118.487
-94.4202
-98.6642
-93.3951
-86.1916
-81.5709
-86.672
-76.3538
-72.7632
-95.3957
-99.2217
-94.8984
-88.0358
-82.9327
-90.2692
-76.2989
-72.754
-69.9723
-90.3031
-72.1001
-87.751
-83.6362
-88.2915
-76.2178
-94.8989
-100.004
-94.2963
-98.9999
-74.666
-70.4268
-87.7557
-83.3774
-89.3478
-74.9052
-71.4417
-64.0498
-59.9538
-63.5897
-59.6432
-53.1956
-53.4872
-48.3428
-58.1482
-50.5827
-66.9622
-47.1633
-49.3485
-45.0313
-39.6737
-47.1073
-44.1519
-35.7808
-32.2655
-23.8614
-60.8047
-57.3793
-52.8197
-62.5928
-49.8481
-53.5093
-35.868
-31.4225
-29.1861
-23.9533
-45.3932
-40.5314
-47.3515
-44.3945
-42.6892
-63.5193
-59.5176
-63.9556
-64.5942
-53.4115
-47.8424
-60.2118
-55.0251
-172.116
-163.225
-155.364
-169.918
-156.672
-158.887
-163.517
-151.325
-153.819
-157.162
-156.29
-145.538
-151.808
-143.156
-142.186
-139.859
-139.57
-143.05
-141.394
-146.524
-151.518
-136.077
-147.66
-137.778
-142.873
-138.691
-148.139
-140.449
-147.61
-144.361
-149.661
-145.188
-136.418
-141.526
-132.182
-142.061
-121.919
-127.374
-125.784
-108.089
-115.687
-114.403
-124.588
-108.113
-122.598
-107.074
-115.357
-109.61
-101.99
-106.207
-95.0111
-91.9694
-83.7948
-88.6044
-86.2616
-80.7309
-73.7161
-88.6456
-73.1887
-100.198
-93.6836
-85.3571
-49.7334
-44.5659
-40.5037
-48.3456
-44.9108
-56.923
-49.8743
-66.623
-46.3921
-35.2113
-33.2347
-24.6982
-12.8914
-4.54525
-13.6251
-4.87512
-20.3238
-27.7371
-20.0167
-11.3509
-13.4032
-56.0696
-60.1547
-52.4582
-61.9259
-46.2979
-40.7151
-48.3217
-43.362
-56.1111
-49.2077
-63.9253
-70.4317
-46.6667
-35.3983
-43.2881
-32.2613
-23.9292
-40.1493
1.87543
8.5773
0.551807
8.48004
22.3272
22.4609
22.5429
22.5871
9.36
-166.848
-153.859
-159.079
-157.265
-154.441
-167.004
-159.433
-156.889
-153.314
-145.955
-156.128
-158.026
-161.433
-146.609
-146.569
-151.918
-152.544
-136.113
-145.177
-136.576
-148.454
-143.549
-142.864
-140.02
-144.801
-139.708
-144.188
-149.257
-140.634
-135.428
-132.899
-143.913
-148.472
-136.026
-146.462
-137.76
-132.1
-150.242
-143.244
-142.233
-144.655
-138.293
-138.323
-142.475
-147.918
-138.9
-132.625
-125.2
-122.332
-116.075
-109.235
-117.494
-131.311
-127.214
-125.217
-118.781
-118.023
-113.68
-114.306
-115.287
-108.003
-108.347
-94.4647
-105.667
-90.3104
-96.3787
-88.4486
-84.0269
-111.187
-101.51
-76.1992
-91.131
-73.0161
-90.5886
-80.3055
-73.4195
-86.3086
-87.6002
-86.2692
-86.4807
-84.3057
-107.267
-92.8014
-35.2642
-33.6612
-29.6979
-24.9665
-60.4423
-56.2583
-52.889
-62.2268
-49.8708
-53.5837
-41.2619
-47.9895
-48.0322
-44.1275
-42.1697
-20.8548
-20.9076
-28.4973
-12.046
-13.1318
-4.43618
-13.6261
-13.823
-4.2098
-26.9796
-19.4478
-20.054
-28.1314
-11.6013
-56.2967
-49.5512
-65.6528
-69.7734
-46.7918
-35.7515
-43.6005
-31.4699
-29.2986
-40.5432
-54.3208
-48.3773
-59.6252
-56.9912
-52.745
-62.2907
-65.3132
-40.3971
-45.1671
-47.9289
-43.7163
-42.6752
22.6353
22.3693
0.871969
1.5812
8.22031
9.37892
-7.05829
1.82479
9.18032
-130.292
-139.109
-137.666
-129.86
-137.776
-130.103
-129.732
-147.621
-144.61
-151.935
-144.896
-136.541
-142.261
-139.253
-146.555
-140.426
-143.482
-136.809
-136.882
-148.197
-143.207
-140.629
-141.402
-138.387
-138.195
-141.395
-133.064
-131.828
-136.783
-140.797
-136.304
-144.252
-139.207
-151.954
-136.973
-133.091
-135.221
-136.675
-131.949
-130.147
-142.266
-123.871
-115.412
-115.702
-120.804
-108.685
-134.578
-123.436
-122.939
-128.118
-119.254
-119.505
-114.486
-130.551
-121.788
-123.193
-127.836
-113.095
-114.361
-122.286
-120.542
-108.603
-126.449
-134.131
-125.471
-126.998
-120.028
-119.635
-115.528
-115.413
-107.954
-87.4302
-83.0622
-88.5819
-76.1613
-74.3716
-70.7919
-98.1303
-91.8425
-99.1958
-94.5732
-83.0737
-87.7941
-87.5389
-74.6286
-71.2583
-72.2008
-94.8833
-94.5325
-100.026
-94.2135
-99.7488
-74.0617
-76.2217
-86.9601
-82.3278
-87.7045
-74.1516
-71.0579
-101.529
-93.6887
-93.8255
-96.6312
-100.631
-76.0778
-71.9324
-83.5933
-88.7529
-88.6107
-59.5018
-64.1657
-53.318
-52.7352
-47.5389
-63.61
-59.936
-64.0903
-45.3774
-40.4057
-47.7823
-43.4068
-37.0774
-45.3485
-32.9953
-24.4582
-41.2893
-56.7675
-59.5613
-52.326
-62.4031
-69.982
-79.5134
-60.0262
-52.1379
-47.9301
-50.1892
-57.1193
-35.6736
-42.7736
-32.0385
-30.4215
-39.5708
-45.8973
-41.0404
-46.7702
-45.2878
-42.751
-64.0617
-69.9063
-56.9317
-49.707
-46.3137
-62.1969
-66.0527
-56.8516
-60.4783
-53.4408
-128.73
-124.248
-74.6166
-67.9244
-150.269
-143.073
-147.927
-149.524
-147.842
-122.111
-133.521
-129.274
-132.945
-99.6365
-108.436
-67.9677
-5.63532
-1.63994
-128.033
-127.877
-65.2918
-6.01925
-0.724293
-18.5293
-149.72
-123.978
-105.334
-17.3807
-133.193
-126.816
-131.051
-98.9103
-109.784
-107.903
-64.7567
-128.76
-133.256
-107.341
-109.121
-131.464
-106.776
-108.531
-96.4022
-101.289
-71.3012
-79.2315
-85.4902
-124.336
-129.939
-105.639
-114.745
-98.6008
-104.695
-71.3274
-79.0143
-80.9403
-123.049
-132.615
-106.307
-118.644
-83.2713
-72.2564
-81.6685
-94.846
-115.147
-113.25
-131.416
-133.842
-108.992
-107.852
-105.383
-108.476
-80.453
-72.3308
-80.4828
-66.0494
-157.786
-153.182
-131.794
-146.771
-131.147
-150.764
-148.486
-108.612
-125.039
-124.678
-127.853
-124.137
-106.53
-82.3971
-78.9504
-78.9441
-79.9156
-79.5172
-77.3087
-37.1436
-67.7639
-33.5558
-37.9522
-154.128
-148.593
-155.894
-149.8
-154.152
-151.174
-154.21
-152.735
-156.348
-151.688
-131.6
-147.209
-131.529
-139.599
-131.963
-106.004
-116.698
-122.773
-136.124
-110.201
-129.949
-106.051
-72.1946
-80.6422
-83.1782
-73.769
-78.7568
-78.4524
-66.3023
-37.7556
-30.3793
-26.9335
-29.4815
-67.6484
-36.6782
-2.16567
-3.01545
-0.908883
-157.704
-153.873
-151.265
-160.551
-152.256
-155.917
-151.442
-158.369
-155.315
-132.429
-146.753
-128.885
-149.21
-148.216
-142.832
-147.747
-142.037
-130.234
-135.266
-105.402
-122.114
-135.377
-124.014
-133.767
-109.094
-71.4659
-81.3618
-98.0847
-107.461
-77.2127
-85.2176
-73.2899
-79.9444
-105.116
-68.3005
-37.3
-25.8178
-30.6564
-26.7106
-67.0493
-36.6647
-2.3584
-1.0196
-1.67656
-153.338
-138.571
-133.185
-149.934
-130.396
-108.633
-127.814
-125.201
-124.973
-124.21
-78.0573
-85.7377
-77.5993
-77.6286
-78.127
-36.8791
-69.5031
-38.4835
-69.2603
-130.948
-122.496
-114.038
-121.883
-132.942
-123.697
-88.253
-94.7781
-87.7194
-126.519
-132.739
-125.522
-117.098
-133.29
-112.312
-121.106
-119.725
-111.84
-125.267
-118.66
-132.204
-115.158
-118.95
-119.436
-115.068
-100.664
-99.1607
-88.8049
-88.7529
-82.2653
-73.821
-87.3661
-80.0299
-84.0358
-131.737
-121.01
-115.93
-121.119
-130.269
-111.791
-113.882
-114.879
-103.83
-120.709
-94.264
-103.874
-101.263
-89.7737
-90.7725
-83.5495
-73.8219
-86.205
-79.072
-84.2906
-121.794
-129.748
-111.745
-112.626
-116.032
-102.409
-120.268
-99.5145
-88.5125
-78.8876
-89.0605
-84.1978
-87.3181
-142.563
-142.984
-141.58
-144.075
-114.324
-131.068
-125.975
-95.1468
-95.325
-101.172
-100.198
-99.5355
-64.4969
-72.1997
-70.5456
-55.3912
-52.5901
-73.4309
-66.3536
-66.1342
-143.952
-146.04
-149.217
-141.538
-117.549
-125.292
-113.4
-134.728
-124.123
-99.4097
-99.3071
-89.9496
-65.5004
-75.9575
-70.4905
-55.9371
-20.7502
-22.068
-11.8853
-13.1187
-4.29633
0.884498
-144.239
-143.229
-143.063
-140.304
-147.317
-121.83
-130.172
-126.051
-93.5461
-52.8713
-71.7687
-12.9901
-4.19969
0.822989
10.9621
-23.8495
-143.908
-144.995
-149.22
-143.862
-147.211
-147.098
-144.632
-142.713
-147.768
-112.306
-119.707
-141.021
-124.147
-100.168
-100.454
-65.859
-72.2645
-64.8667
-60.4893
-69.9053
-55.0518
-24.5169
-99.5824
-70.3649
-136.313
-132.938
-122.132
-122.625
-99.7177
-93.3253
-97.4637
-86.2599
-78.5582
-87.9777
-79.8786
-79.7154
-76.9563
-157.278
-153.748
-127.237
-128.639
-137.44
-142.688
-140.753
-142.605
-129.366
-136.919
-133.733
-140.473
-129.776
-135.739
-145.54
-141.34
-142.229
-141.428
-128.406
-133.365
-135.715
-139.59
-143.625
-147.956
-144.925
-146.824
-137.978
-128.85
-134.83
-147.68
-144.234
-148.214
-144.938
-129.7
-142.908
-146.557
-140.651
-133.496
-136.437
-133.698
-121.961
-117.227
-137.267
-121.914
-115.016
-114.725
-105.981
-107.173
-106.72
-116.566
-133.328
-125.224
-108.714
-107.759
-115.073
-108.946
-116.672
-130.291
-120.123
-107.83
-102.419
-100.729
-85.2243
-88.022
-73.7567
-101.014
-85.2821
-89.6863
-75.0968
-95.9843
-101.145
-86.1198
-74.7875
-100.259
-81.9218
-86.4117
-65.2239
-65.034
-52.693
-53.7191
-42.4137
-43.3481
-54.1291
-43.8279
-41.0299
-31.5848
-28.6129
-28.0665
-33.4475
-63.7991
-55.6061
-43.3079
-39.7691
-32.5275
-32.7709
-27.6599
-60.5997
-65.6768
-43.0411
-158.957
-150.459
-154.866
-145.669
-149.76
-158.949
-142.88
-167.285
-150.329
-152.564
-151.284
-159.111
-151.809
-157.931
-167.864
-159.378
-150.053
-156.262
-138.015
-143.572
-153.03
-146.912
-131.373
-142.415
-136.167
-144.916
-141.207
-143.941
-141.264
-148.037
-136.526
-127.775
-132.362
-138.252
-147.382
-142.9
-142.136
-138.119
-113.099
-119.164
-107.726
-122.068
-129.498
-113.531
-118.997
-121.014
-122.817
-123.552
-130.207
-114.552
-94.7304
-88.7881
-83.1537
-90.8517
-100.158
-78.37
-80.1947
-87.6852
-95.1508
-88.5051
-81.7457
-73.9467
-33.0791
-30.4591
-29.0402
-52.4532
-43.231
-39.8402
-32.1514
-63.8215
-67.4534
-32.1725
-29.3676
-52.7415
-32.7234
0.637463
0.345774
9.84432
-6.99782
10.612
-0.118623
-8.9502
-160.837
-150.312
-163.405
-155.683
-154.832
-148.496
-150.142
-142.956
-157.26
-163.557
-157.976
-150.554
-148.787
-146.768
-152.081
-152.46
-152.255
-138.039
-148.252
-135.483
-146.394
-148.283
-143.445
-126.545
-146.914
-139.559
-143.223
-141.648
-137.607
-141.661
-141.651
-131.591
-135.815
-130.189
-119.584
-131.541
-122.435
-114.086
-111.219
-102.977
-115.362
-131.666
-120.231
-121.05
-97.41
-80.0061
-82.1526
-93.1264
-92.1408
-84.7824
-90.8623
-89.7
-88.0022
-81.8755
-98.8157
-99.6315
-43.3217
-40.1187
-32.5175
-65.3627
-56.2455
-32.4073
-28.6979
-53.2657
-33.1212
-64.0445
-31.6397
10.277
0.085869
-9.03997
-158.775
-143.79
-130.929
-141.344
-130.325
-130.851
-135.654
-147.363
-143.724
-142.44
-131.436
-136.606
-139.793
-138.051
-144.556
-141.81
-143.494
-141.471
-137.882
-128.562
-141.437
-135.287
-133.648
-123.391
-108.642
-118.093
-137.401
-121.33
-114.694
-107.14
-107.107
-116.084
-132.024
-107.424
-115.471
-131.508
-108.721
-84.5919
-75.9415
-96.8437
-100.773
-96.9618
-84.4374
-90.1039
-99.2348
-82.2679
-100.069
-82.2898
-42.0632
-65.4205
-31.9276
-29.181
-34.1648
-64.2879
-72.2475
-54.0388
-32.2474
-33.9452
-52.2649
-64.6007
)
;
    }
}


// ************************************************************************* //
