/*--------------------------------*- C++ -*----------------------------------*\
| =========                 |                                                 |
| \\      /  F ield         | OpenFOAM: The Open Source CFD Toolbox           |
|  \\    /   O peration     | Version:  v1906                                 |
|   \\  /    A nd           | Web:      www.OpenFOAM.com                      |
|    \\/     M anipulation  |                                                 |
\*---------------------------------------------------------------------------*/
FoamFile
{
    version     2.0;
    format      ascii;
    class       volScalarField;
    location    "77.4/sphere";
    object      T;
}
// * * * * * * * * * * * * * * * * * * * * * * * * * * * * * * * * * * * * * //

dimensions      [0 0 0 1 0 0 0];


internalField   nonuniform List<scalar> 
304
(
459.684
459.712
459.706
459.723
459.682
459.673
459.683
459.712
459.682
459.822
459.822
459.723
459.706
459.816
459.817
459.748
459.709
459.741
459.669
459.711
459.728
459.683
459.713
459.822
459.822
459.752
459.724
459.817
459.817
459.774
459.67
459.74
459.768
459.704
459.684
459.725
459.752
459.688
459.685
459.749
459.774
459.711
459.67
459.704
459.659
459.671
459.684
459.685
459.686
459.717
459.684
459.685
459.718
459.686
459.672
459.684
459.687
459.685
459.717
459.712
459.711
459.726
459.724
459.753
459.752
459.776
459.684
459.726
459.712
459.753
459.724
459.776
459.752
459.684
459.687
459.717
459.685
459.678
459.678
459.71
459.671
459.723
459.67
459.702
459.746
459.773
459.71
459.743
459.708
459.703
459.673
459.773
459.748
459.744
459.713
459.712
459.681
459.673
459.656
459.671
459.668
459.703
459.668
459.703
459.669
459.668
459.656
459.685
459.683
459.683
459.716
459.712
459.724
459.754
459.711
459.728
459.753
459.778
459.684
459.754
459.724
459.728
459.712
459.778
459.753
459.686
459.684
459.717
459.684
459.724
459.711
459.752
459.712
459.753
459.726
459.776
459.682
459.752
459.712
459.753
459.712
459.776
459.726
459.747
459.671
459.712
459.723
459.773
459.703
459.743
459.708
459.713
459.673
459.774
459.724
459.744
459.704
459.67
459.671
459.703
459.669
459.74
459.667
459.698
459.741
459.768
459.698
459.716
459.709
459.698
459.667
459.768
459.741
459.716
459.698
459.703
459.671
459.668
459.682
459.684
459.717
459.688
459.727
459.753
459.778
459.683
459.711
459.725
459.753
459.711
459.778
459.752
459.712
459.681
459.753
459.722
459.716
459.683
459.684
459.754
459.727
459.777
459.686
459.726
459.713
459.753
459.712
459.776
459.727
459.724
459.684
459.752
459.712
459.774
459.704
459.744
459.71
459.749
459.674
459.714
459.724
459.744
459.704
459.748
459.708
459.713
459.673
459.703
459.669
459.67
459.768
459.698
459.716
459.71
459.741
459.668
459.699
459.742
459.717
459.7
459.742
459.711
459.7
459.67
459.672
459.669
459.671
459.675
459.683
459.687
459.716
459.683
459.716
459.684
459.683
459.671
459.69
459.686
459.718
459.686
459.753
459.753
459.777
459.686
459.712
459.713
459.727
459.724
459.776
459.752
459.711
459.682
459.726
459.711
459.717
459.685
459.683
459.714
459.675
459.681
459.774
459.713
459.744
459.708
459.724
459.672
459.704
459.748
459.744
459.713
459.724
459.707
459.704
459.673
459.68
459.673
459.679
459.659
459.704
459.67
459.672
459.671
459.67
459.672
)
;

boundaryField
{
    sphere_to_oil
    {
        type            compressible::turbulentTemperatureCoupledBaffleMixed;
        refValue        nonuniform List<scalar> 
360
(
332.788
332.788
322.475
356.271
363.679
325.206
364.702
364.702
364.702
343.406
343.406
329.155
333.64
321.248
342.755
351.518
347.48
347.48
347.48
322.604
346.377
325.269
329.08
358.912
317.447
359.147
323.005
359.13
359.13
359.13
365.251
357.91
322.391
322.049
328.923
329.006
348.397
348.397
348.397
347.723
349.696
324.736
326.383
333.247
333.247
322.822
331.098
314.799
332.308
359.476
325.131
325.243
332.967
333.5
322.385
325.043
347.934
322.716
326.465
335.02
318.446
360.279
360.279
360.279
314.846
358.831
332.213
323.743
363.205
363.205
363.205
364.154
362.871
320.376
347.218
342.112
322.349
328.317
349.685
348.471
329.85
321.367
329.528
318.304
322.374
324.782
329.132
333.367
321.851
322.854
322.601
332.436
328.735
322.723
332.08
328.74
329.348
329.436
325.449
317.17
317.288
322.509
325.154
328.729
332.36
322.427
321.144
333.561
325.084
329.394
329.356
329.252
325.382
322.604
315.015
314.975
328.565
323.935
329.642
332.662
332.662
356.271
356.271
358.912
358.912
356.755
356.755
356.755
358.268
358.268
358.268
328.99
324.177
328.507
323.501
363.679
363.679
339.925
339.925
365.251
365.251
339.279
339.279
364.601
364.601
364.601
323.149
322.93
352.038
352.038
352.038
351.863
351.863
351.863
351.518
346.377
342.755
351.518
351.61
322.743
351.61
351.61
329.111
329.935
321.481
325.367
325.367
350.982
350.982
350.982
318.403
346.377
325.269
350.126
350.126
318.274
350.126
329.919
321.394
314.874
323.017
323.345
331.693
317.334
331.156
323.28
314.924
317.365
359.147
359.147
357.91
357.91
333.636
333.636
356.296
356.296
356.296
332.036
332.036
317.023
328.247
325.513
332.554
328.454
324.879
332.388
325.147
333.635
329.466
324.959
347.723
333.445
329.571
322.751
350.407
350.407
350.407
325.795
325.795
318.299
326.593
326.398
334.852
349.696
324.644
334.77
326.728
347.723
349.696
325.593
322.715
325.593
318.667
314.932
331.025
317.377
323.173
323.06
323.315
317.199
316.959
360.212
355.264
360.212
360.212
355.264
355.264
359.476
358.831
332.308
357.537
317.179
359.476
357.537
357.537
331.799
322.146
328.495
332.301
322.744
364.154
328.562
329.13
329.146
325.234
347.934
347.218
329.428
329.227
325.355
347.498
351.448
325.043
350.031
318.457
347.934
350.031
350.031
335.297
324.623
349.685
326.512
326.667
326.357
350.056
324.608
349.798
325.434
347.498
325.434
350.056
347.498
350.056
314.753
324.009
328.087
328.252
332.589
356.385
332.589
356.385
356.385
317.017
358.831
357.463
332.213
357.463
317.034
357.463
329.118
328.825
321.923
362.233
339.984
362.233
362.233
339.984
322.484
324.823
328.313
332.216
362.871
364.154
339.498
323.167
362.871
339.498
322.421
347.218
351.964
342.112
351.964
321.631
351.964
333.649
348.471
325.293
329.669
351.22
348.11
351.448
341.687
351.448
351.22
341.687
351.22
321.279
329.389
349.685
325.342
318.361
348.471
325.342
322.976
349.798
348.11
349.798
325.436
348.11
325.436
)
;
        refGradient     uniform 0;
        valueFraction   nonuniform List<scalar> 
360
(
0.000138758
0.000133119
8.52244e-05
0.000304454
0.000312244
0.000179047
0.000314185
0.000269687
0.000419775
0.000133656
0.000130312
0.000174818
0.000266428
7.61781e-05
0.000136271
0.000264897
0.000303567
0.000283641
0.000398012
6.97081e-05
0.000261329
0.000128472
0.000118407
0.000314203
9.1226e-05
0.000322964
0.000182051
0.000318793
0.000417201
0.000279081
0.000318846
0.000321593
8.63552e-05
8.53904e-05
0.000179197
0.000176347
0.000298401
0.000404545
0.000277794
0.000417688
0.000412589
8.81001e-05
0.000174746
0.000127534
0.000127382
0.000179883
0.000269122
7.18013e-05
0.000128475
0.000272426
0.000177453
0.000178605
0.000266229
0.000263642
7.44869e-05
0.000136264
0.000277877
7.13564e-05
0.000176773
0.000263604
6.98457e-05
0.000310321
0.00027394
0.000428742
7.20066e-05
0.000280093
0.000130652
0.000126367
0.000317491
0.000414178
0.000278608
0.0003994
0.000404991
7.73499e-05
0.000270037
0.000136991
7.13144e-05
0.00012788
0.000404148
0.000419836
0.000125425
0.000123059
0.00012087
7.18352e-05
8.66235e-05
0.000175618
0.000176603
0.000267444
8.07315e-05
6.81669e-05
8.57292e-05
0.000267007
0.000176267
8.7573e-05
0.000266567
0.00017828
0.000177226
0.0001775
8.65573e-05
6.93798e-05
7.03531e-05
6.94168e-05
0.000178456
0.000175398
0.000266806
7.85519e-05
6.82309e-05
0.000266613
8.46994e-05
0.000175676
0.000175708
0.000179294
8.76729e-05
7.02048e-05
6.84666e-05
6.97894e-05
0.000121478
0.000121624
0.000126349
0.000137007
0.000128768
0.000266064
0.000419133
0.000280317
0.000422988
0.000271138
0.000416851
0.000310372
0.000271357
0.000407778
0.000305666
0.000124678
0.000117907
0.000120766
6.66677e-05
0.000276489
0.000416285
0.000128799
0.000129388
0.000420693
0.000279713
0.000135018
0.000142302
0.000415515
0.000285444
0.000328914
7.33718e-05
6.82807e-05
0.000288198
0.000399372
0.000316562
0.000296736
0.000413199
0.000316529
0.000326806
0.000301029
0.000140813
0.000419719
0.000271112
7.55871e-05
0.000407939
0.000305273
0.000116501
0.000122739
0.000121424
0.000128096
0.000133902
0.000417625
0.000274984
0.000322773
7.73917e-05
0.000401737
0.000137755
0.000422437
0.000270431
7.55949e-05
0.00032065
0.000117535
0.000118626
6.93072e-05
0.000181662
0.00018159
0.000268508
8.95401e-05
0.000268914
0.000176942
6.85955e-05
6.66086e-05
0.000420207
0.000266997
0.000415274
0.000276869
0.000132067
0.000123508
0.000417211
0.000260754
0.000301406
0.000122082
0.000141654
7.12649e-05
0.000178469
0.000178307
0.000266404
0.000174434
0.000175332
0.000265355
9.09528e-05
0.000266266
0.00018054
8.8449e-05
0.000299702
0.000265971
0.000179459
7.15202e-05
0.00040811
0.000264571
0.00030955
0.000128962
0.000119845
6.92262e-05
0.000177086
0.000180064
0.000266976
0.000303541
8.48951e-05
0.000264443
0.00017271
0.000262695
0.000278103
0.00012624
7.0907e-05
0.000140084
7.17841e-05
6.75693e-05
0.000269951
9.0089e-05
0.000181485
0.000179386
0.000177249
8.89566e-05
6.79508e-05
0.000276012
0.00025863
0.000434178
0.000323182
0.000405064
0.00029104
0.000311942
0.000319385
0.000141967
0.000273993
7.38208e-05
0.000416946
0.000405419
0.000308034
0.000268669
8.56082e-05
0.000174818
0.00026558
8.63749e-05
0.000316455
0.000175575
0.000176832
0.000175202
8.5853e-05
0.000314101
0.00029434
0.00017875
0.000174128
8.7506e-05
0.000294919
0.000324627
0.000128745
0.000291415
6.92107e-05
0.000415176
0.000402515
0.000304146
0.000263614
8.66004e-05
0.000304624
0.000175406
0.000175676
0.000176676
0.000306282
8.74118e-05
0.00031293
0.000131674
0.000269802
0.000132773
0.000274939
0.000418984
0.000411324
6.91762e-05
0.000138622
0.000136985
0.000133983
0.000122016
0.000408217
0.000133266
0.000271388
0.000319573
6.81681e-05
0.000412201
0.000411704
0.000134779
0.000292733
7.14374e-05
0.000313831
0.000119489
0.000117385
7.13786e-05
0.000403731
0.000120661
0.000264774
0.000311833
0.00012936
7.05196e-05
0.00017547
0.00017541
0.000264687
0.000302865
0.000262695
0.000127009
6.8367e-05
0.000267095
0.000141064
7.89589e-05
0.000387066
0.000415631
0.000122838
0.00026402
7.31995e-05
0.000332045
0.000266716
0.000319563
8.74205e-05
0.000176226
0.000308099
0.000298696
0.000281006
0.000125603
0.000411632
0.000410746
0.0001491
0.000274559
0.000120802
0.000122655
0.000276413
0.00013683
7.39807e-05
0.000279553
0.000131755
6.83199e-05
0.000406873
0.000411757
0.000270924
0.00013148
0.000266121
0.000135815
)
;
        value           nonuniform List<scalar> 
360
(
459.686
459.686
459.691
459.671
459.673
459.706
459.673
459.678
459.666
459.682
459.682
459.702
459.709
459.69
459.685
459.672
459.655
459.658
459.642
459.682
459.662
459.674
459.66
459.67
459.689
459.669
459.706
459.671
459.662
459.675
459.671
459.668
459.689
459.689
459.701
459.704
459.657
459.644
459.659
459.641
459.643
459.674
459.694
459.685
459.687
459.705
459.712
459.691
459.685
459.674
459.707
459.707
459.709
459.71
459.679
459.671
459.658
459.681
459.694
459.703
459.678
459.671
459.674
459.663
459.692
459.674
459.686
459.672
459.674
459.669
459.678
459.668
459.667
459.693
459.673
459.687
459.689
459.661
459.644
459.642
459.661
459.661
459.662
459.679
459.693
459.706
459.704
459.708
459.686
459.681
459.691
459.711
459.707
459.689
459.711
459.706
459.703
459.699
459.68
459.693
459.693
459.693
459.707
459.707
459.711
459.692
459.688
459.708
459.678
459.698
459.704
459.699
459.68
459.68
459.694
459.693
459.674
459.674
459.674
459.686
459.687
459.676
459.661
459.675
459.662
459.675
459.662
459.671
459.676
459.663
459.672
459.674
459.674
459.675
459.694
459.676
459.666
459.688
459.688
459.667
459.677
459.687
459.687
459.667
459.677
459.67
459.694
459.688
459.666
459.647
459.655
459.665
459.646
459.656
459.657
459.658
459.683
459.646
459.67
459.689
459.647
459.659
459.66
459.659
459.658
459.672
459.669
459.641
459.657
459.651
459.676
459.642
459.668
459.642
459.657
459.676
459.65
459.66
459.659
459.692
459.706
459.705
459.712
459.69
459.712
459.707
459.693
459.693
459.661
459.675
459.661
459.674
459.685
459.686
459.661
459.676
459.67
459.687
459.685
459.693
459.706
459.706
459.711
459.708
459.707
459.711
459.678
459.709
459.698
459.68
459.658
459.709
459.699
459.68
459.644
459.659
459.652
459.673
459.671
459.678
459.694
459.693
459.702
459.652
459.674
459.702
459.694
459.66
459.656
459.673
459.68
459.668
459.677
459.691
459.712
459.689
459.705
459.705
459.706
459.687
459.693
459.674
459.676
459.663
459.67
459.664
459.674
459.668
459.667
459.684
459.674
459.692
459.661
459.661
459.672
459.711
459.693
459.709
459.712
459.691
459.673
459.707
459.699
459.706
459.682
459.658
459.66
459.699
459.704
459.68
459.659
459.657
459.67
459.655
459.678
459.643
459.645
459.653
459.702
459.675
459.653
459.695
459.695
459.695
459.656
459.677
459.655
459.673
459.661
459.67
459.658
459.643
459.645
459.691
459.675
459.675
459.676
459.686
459.663
459.685
459.674
459.672
459.692
459.662
459.661
459.684
459.672
459.691
459.669
459.674
459.674
459.695
459.669
459.69
459.679
459.675
459.689
459.695
459.707
459.708
459.712
459.672
459.679
459.688
459.694
459.676
459.685
459.691
459.651
459.649
459.685
459.671
459.689
459.655
459.709
459.656
459.679
459.7
459.659
459.659
459.668
459.684
459.648
459.648
459.68
459.668
459.661
459.662
459.658
459.67
459.678
459.66
459.673
459.682
459.645
459.644
459.659
459.671
459.661
459.672
)
;
        Tnbr            T;
        thicknessLayers 0();
        kappaLayers     0();
        kappaMethod     solidThermo;
        kappa           none;
        alphaAni        none;
    }
}


// ************************************************************************* //
