/*--------------------------------*- C++ -*----------------------------------*\
| =========                 |                                                 |
| \\      /  F ield         | OpenFOAM: The Open Source CFD Toolbox           |
|  \\    /   O peration     | Version:  v1912                                 |
|   \\  /    A nd           | Website:  www.openfoam.com                      |
|    \\/     M anipulation  |                                                 |
\*---------------------------------------------------------------------------*/
FoamFile
{
    version     2.0;
    format      ascii;
    class       volScalarField;
    location    "232/oil";
    object      heatTransferCoeff(T);
}
// * * * * * * * * * * * * * * * * * * * * * * * * * * * * * * * * * * * * * //

dimensions      [1 0 -3 -1 0 0 0];


internalField   uniform 0;

boundaryField
{
    maxY
    {
        type            calculated;
        value           uniform 0;
    }
    minX
    {
        type            calculated;
        value           uniform 0;
    }
    maxX
    {
        type            calculated;
        value           uniform 0;
    }
    minY
    {
        type            calculated;
        value           uniform 0;
    }
    minZ
    {
        type            calculated;
        value           uniform 0;
    }
    maxZ
    {
        type            calculated;
        value           uniform 0;
    }
    oil_to_sphere
    {
        type            calculated;
        value           nonuniform List<scalar> 
1536
(
-47.5509
-43.475
-43.4283
-35.8937
-35.6156
-43.2342
-39.971
-41.264
-40.7728
-36.495
-33.5372
-37.0341
-40.687
-37.2445
-32.4855
-39.4901
-43.2605
-43.6261
-39.2625
-40.4826
-42.2425
-40.8199
-41.1353
-39.4479
-39.8595
-39.6471
-39.811
-38.9406
-43.0474
-41.0002
-44.2699
-43.4899
-43.6497
-39.4996
-39.7531
-38.9507
-39.3053
-38.0921
-38.8779
-39.7693
-38.6998
-39.3139
-40.6363
-41.5116
-42.5277
-39.7195
-42.3088
-41.211
-32.748
-39.6486
-41.8639
-40.8424
-41.1205
-39.4123
-42.9097
-45.7361
-41.0679
-40.4958
-42.1994
-41.7731
-40.5544
-40.6358
-40.4901
-39.3117
-39.7354
-40.3654
-40.4668
-41.9743
-41.9065
-42.8586
-39.2916
-35.7756
-37.0382
-39.6614
-39.6208
-45.9942
-43.6887
-38.2265
-39.5016
-43.508
-42.2952
-41.7308
-35.8475
-35.7244
-43.0241
-46.7935
-34.9014
-40.1208
-41.7975
-41.7662
-40.8404
-39.0818
-39.0329
-39.2091
-39.63
-41.4649
-42.2835
-42.5438
-43.9697
-41.671
-42.3352
-39.2261
-47.6535
-41.9204
-36.8689
-39.5566
-39.8677
-36.2009
-36.1959
-47.7944
-43.6389
-41.2774
-40.611
-41.1773
-35.2837
-35.756
-34.5113
-44.9834
-47.2044
-43.8978
-40.9591
-41.1719
-38.832
-42.2204
-44.2008
-41.6041
-40.8967
-38.5539
-42.4702
-42.133
-40.3931
-41.9737
-42.8465
-39.8798
-40.1616
-43.0427
-41.1915
-43.5517
-38.6398
-43.299
-40.7965
-42.0998
-42.1357
-40.6881
-40.2035
-40.6012
-41.4559
-45.2038
-40.6298
-47.8208
-42.6644
-43.7141
-41.0581
-41.2992
-39.5533
-41.7859
-42.9673
-42.4482
-48.5855
-44.4492
-43.6242
-45.4645
-37.404
-38.0674
-39.1394
-39.041
-42.7634
-44.813
-43.8885
-45.9754
-38.9747
-39.2373
-38.2978
-42.3395
-41.142
-41.4484
-46.4395
-38.2608
-37.5881
-46.7638
-38.8805
-38.0976
-37.9716
-38.3421
-42.1667
-46.819
-44.4919
-38.7737
-37.5164
-43.5654
-37.8022
-42.8548
-42.807
-44.6366
-36.997
-31.7054
-44.5067
-45.0439
-40.0883
-39.5515
-40.8851
-39.9864
-43.6635
-44.47
-42.6056
-41.7556
-39.3592
-44.867
-44.0456
-41.6803
-38.5285
-39.7244
-39.5605
-40.2266
-42.4344
-45.9428
-37.9403
-37.1668
-37.2734
-31.2012
-43.3131
-42.3347
-41.6883
-40.8813
-41.0797
-44.9402
-42.8475
-39.8687
-43.3526
-36.5844
-38.9874
-31.9397
-40.6267
-43.2374
-44.5272
-44.1544
-43.2832
-42.4106
-43.8505
-36.983
-37.5581
-38.6039
-45.109
-38.3792
-31.9975
-34.6205
-42.329
-41.0131
-46.6539
-48.7678
-41.2637
-35.7708
-31.2721
-41.7619
-44.2756
-39.2124
-39.3386
-35.0398
-39.0588
-44.9141
-47.0292
-40.6413
-39.3643
-45.4604
-44.6082
-39.6678
-36.7142
-40.3896
-46.0728
-45.078
-42.4224
-42.8346
-44.3441
-38.0173
-39.4901
-44.5796
-42.8288
-43.708
-40.6706
-43.3919
-45.8422
-42.6292
-42.2836
-45.2852
-39.3256
-39.2387
-39.6751
-38.8092
-39.111
-44.7066
-46.1571
-37.6845
-40.0639
-39.8536
-40.0601
-38.7718
-41.137
-40.6758
-38.2667
-35.1325
-38.9929
-37.0741
-38.6371
-46.8485
-45.3915
-45.3412
-48.4864
-37.6987
-37.9985
-41.1983
-47.8101
-47.3443
-39.0448
-40.7386
-38.8158
-42.7494
-39.4556
-42.237
-42.5801
-43.8153
-42.9084
-39.8556
-43.1075
-38.9259
-44.3837
-44.9208
-43.4356
-43.1278
-38.2922
-46.3122
-46.2513
-42.8731
-36.88
-39.2901
-40.0704
-42.6052
-42.1936
-42.7342
-38.1671
-44.3199
-44.7604
-43.7885
-45.3117
-41.9857
-41.5257
-40.5671
-37.5798
-41.6223
-42.7312
-37.5211
-37.2014
-37.9365
-47.4497
-44.293
-45.3521
-42.1055
-41.4814
-44.7584
-37.3057
-46.5746
-43.7702
-41.5071
-41.4611
-37.0723
-43.8546
-44.1872
-38.491
-41.5045
-40.4382
-39.4025
-42.7917
-44.2501
-40.6377
-39.7072
-37.792
-45.9392
-44.3978
-37.1944
-44.8139
-44.3018
-43.3345
-45.9063
-41.4469
-42.9978
-36.5328
-36.9756
-42.5867
-48.1838
-43.5316
-46.7397
-42.134
-39.9304
-43.9509
-38.0055
-38.9312
-42.3305
-44.1754
-42.8584
-42.1205
-38.2032
-38.0552
-44.6173
-44.6883
-44.415
-41.4213
-39.1599
-42.2983
-43.1201
-44.0734
-41.6432
-40.2265
-38.4837
-41.2645
-37.842
-36.2215
-39.1862
-38.4931
-41.2984
-36.4741
-39.9548
-46.489
-39.8659
-39.8163
-44.1581
-44.0754
-42.661
-40.4628
-37.4253
-43.4836
-45.353
-42.486
-41.7383
-43.5628
-40.798
-41.1717
-42.0444
-35.8205
-42.663
-44.737
-45.3384
-43.9592
-43.0768
-42.8073
-41.6663
-40.3416
-38.0022
-41.0025
-38.3999
-37.0763
-38.7506
-36.1327
-46.9766
-46.4265
-44.9119
-47.9606
-38.273
-46.9904
-38.1046
-38.8916
-43.229
-38.0863
-37.9942
-40.0003
-39.7806
-46.5744
-45.4253
-42.0486
-42.3703
-45.8707
-44.6569
-41.609
-43.1089
-38.5553
-44.169
-36.8372
-45.3014
-35.7757
-43.0736
-43.5248
-43.992
-39.8257
-37.8335
-40.3558
-44.1076
-40.5482
-36.5694
-44.2309
-44.4858
-45.2815
-48.0962
-41.933
-45.621
-37.6589
-38.1845
-32.9711
-34.5296
-41.5063
-39.9216
-39.4355
-38.7759
-47.2557
-38.5978
-37.2195
-36.625
-40.2457
-36.8487
-48.5603
-38.6573
-38.945
-41.0806
-33.6157
-34.9225
-39.2108
-39.106
-40.5958
-39.6694
-44.4523
-43.9426
-42.8299
-41.5628
-36.215
-39.4544
-43.9148
-37.9713
-38.4821
-43.4337
-45.9365
-38.6004
-33.1079
-37.5532
-33.5514
-40.8968
-39.7939
-38.9466
-36.9077
-33.4408
-42.8806
-43.4006
-42.1732
-40.9195
-46.1256
-42.9859
-42.5567
-41.5126
-38.2616
-39.5344
-44.4531
-42.8878
-40.0951
-34.4597
-41.7009
-43.9739
-46.347
-41.8429
-39.5739
-46.2527
-41.3948
-45.6604
-38.484
-39.6488
-37.9464
-39.8399
-41.6991
-45.8615
-38.8009
-38.7452
-38.2241
-40.3767
-48.5674
-37.1916
-39.5114
-37.1685
-41.2364
-41.6856
-44.5497
-46.0536
-36.6992
-36.8646
-46.0551
-46.673
-35.3761
-45.9667
-44.8078
-43.5322
-44.7946
-42.6453
-41.3698
-41.5066
-45.9431
-41.6267
-42.6491
-41.2777
-44.0963
-41.9177
-40.9659
-40.7031
-37.4982
-43.4605
-41.0655
-44.0534
-43.0807
-43.2048
-42.8757
-41.6808
-37.0097
-44.6275
-44.6368
-42.772
-40.9215
-41.9998
-47.6539
-36.9019
-38.4003
-37.5969
-42.0015
-39.1254
-47.6684
-39.9241
-40.357
-41.2388
-33.1566
-33.6695
-39.3409
-39.2482
-41.3777
-37.9273
-38.6856
-42.1985
-39.2516
-46.0596
-38.0294
-47.381
-40.3331
-41.9088
-32.3277
-33.5463
-32.8748
-38.9928
-43.519
-39.558
-38.9717
-33.546
-41.2359
-43.8962
-41.2988
-49.9158
-38.5535
-44.4296
-43.0047
-43.5847
-44.8851
-44.8124
-43.666
-41.1239
-40.2704
-41.0025
-43.6327
-40.4925
-42.2148
-41.8924
-42.1727
-44.0037
-42.908
-43.4757
-37.5431
-38.4143
-31.6145
-35.0414
-36.087
-29.209
-39.3003
-39.6859
-40.4898
-40.9677
-36.1693
-37.5763
-40.0868
-45.112
-44.7938
-40.0148
-36.6665
-40.7059
-43.9477
-42.9467
-41.0961
-36.4448
-38.5484
-42.8173
-42.1199
-41.0256
-39.4484
-43.1901
-43.316
-45.9358
-43.3205
-41.6809
-39.6777
-38.6123
-37.3744
-39.536
-40.9054
-47.9006
-41.4999
-46.9199
-39.0833
-48.2998
-39.2564
-40.6107
-37.8119
-38.2626
-39.6954
-37.4524
-40.4153
-36.4462
-39.3963
-44.4761
-39.9547
-37.1829
-46.2457
-43.1209
-42.2926
-40.8625
-46.0488
-50.3167
-35.1932
-42.9512
-42.2684
-42.6521
-37.4707
-40.8839
-38.8088
-42.1938
-43.547
-44.6075
-38.2842
-42.824
-41.5017
-43.205
-42.9809
-42.4976
-40.1316
-40.6065
-39.5123
-36.6545
-36.2137
-37.9837
-45.5359
-39.4261
-37.2569
-39.5331
-44.5253
-40.3363
-45.5486
-43.9955
-42.4827
-41.6761
-42.4343
-46.3978
-37.9838
-42.8536
-44.8029
-45.1178
-41.6487
-38.7283
-40.3189
-42.4717
-45.2446
-37.7423
-40.6504
-41.5599
-44.4035
-42.3577
-42.4692
-45.6922
-37.7938
-38.925
-38.4018
-46.4528
-44.5849
-41.4795
-44.3789
-38.9406
-39.4396
-44.3624
-42.5051
-45.9147
-38.1427
-43.6843
-44.2153
-41.7698
-42.2148
-43.471
-38.3168
-35.9501
-41.1906
-42.4923
-46.7699
-40.7031
-39.2163
-40.9676
-42.4238
-43.6437
-41.62
-38.8496
-40.7185
-44.1464
-38.0531
-38.7357
-40.6897
-39.3369
-42.0297
-41.651
-45.0331
-42.6747
-43.9014
-39.5462
-41.0463
-42.0161
-40.8488
-40.2154
-39.6849
-39.5947
-37.9073
-43.1375
-41.9182
-41.8744
-42.5246
-36.8503
-39.8649
-46.3272
-46.3807
-38.8137
-44.4607
-42.4099
-43.046
-39.5937
-45.2077
-44.8646
-38.0309
-40.3096
-39.8143
-39.6611
-36.8438
-37.574
-39.8067
-44.8383
-47.9584
-39.1688
-43.4551
-43.1186
-42.2952
-40.4968
-42.0459
-45.0374
-42.1384
-38.1684
-39.8961
-39.5488
-39.8338
-42.6739
-43.2065
-43.173
-43.3506
-43.3997
-38.9002
-43.5337
-40.0169
-43.0021
-33.4696
-42.5502
-45.3865
-40.2012
-35.1991
-41.2966
-40.6589
-46.7991
-38.4824
-43.5437
-40.995
-35.898
-46.1984
-37.1889
-40.6041
-41.2124
-36.8631
-44.4841
-42.0242
-40.5369
-41.6934
-42.0009
-40.5298
-47.0017
-37.3386
-39.7488
-32.5375
-40.4277
-40.1765
-41.3463
-44.4484
-50.4637
-36.6301
-39.832
-49.0651
-37.2411
-43.2682
-38.7606
-43.0416
-35.0043
-38.5462
-48.9256
-35.632
-48.2417
-36.2858
-46.6321
-36.0632
-38.4268
-33.1055
-37.4484
-48.339
-34.0263
-41.0817
-35.6446
-45.8782
-48.3867
-34.2626
-40.5607
-39.1234
-38.1648
-37.9989
-39.779
-41.2609
-41.2643
-42.9051
-40.9312
-45.849
-49.3802
-34.2006
-41.5931
-42.3848
-41.2435
-41.7298
-40.7546
-40.3239
-40.7258
-43.8095
-40.8768
-43.8498
-39.721
-41.9442
-45.4255
-40.1514
-42.7475
-44.4711
-39.6722
-41.9458
-40.9701
-42.8721
-40.5959
-41.6136
-40.2828
-44.2554
-39.9276
-42.2294
-36.2813
-46.1235
-34.4218
-42.5529
-44.1792
-46.0743
-38.5498
-41.6821
-40.9182
-41.6286
-41.5286
-40.8915
-43.7635
-38.0598
-31.5443
-40.8407
-35.2652
-44.7448
-38.6491
-41.1842
-43.5084
-31.9986
-45.6779
-38.1298
-33.3963
-38.6507
-43.2529
-42.9714
-41.4188
-34.0342
-41.4298
-42.0113
-39.1314
-38.6465
-44.847
-44.3009
-39.519
-41.3859
-44.8656
-34.1716
-43.9235
-38.5747
-42.8046
-34.5619
-48.0445
-47.278
-44.1399
-41.3619
-40.3946
-43.27
-40.1861
-33.9753
-37.7539
-43.3906
-38.7553
-42.815
-35.1429
-44.6673
-42.9769
-29.9556
-41.4687
-42.1243
-32.2835
-45.7086
-36.1572
-44.7718
-46.1503
-43.7504
-33.3346
-41.5665
-40.4154
-41.4907
-41.6922
-42.7037
-34.1948
-39.736
-38.8075
-38.8447
-44.5724
-41.1914
-42.4184
-42.9779
-42.8185
-40.3584
-41.6434
-40.5599
-42.1984
-44.8422
-39.4527
-40.1917
-39.2168
-41.721
-44.149
-39.4211
-40.0365
-39.7141
-41.2339
-38.814
-39.0723
-40.0286
-40.3113
-41.5823
-40.0621
-45.9022
-43.8704
-35.4255
-35.7023
-45.5351
-29.1842
-43.4586
-41.9946
-38.8614
-40.3544
-45.8234
-32.0516
-44.5714
-42.3553
-33.6636
-39.8135
-39.2085
-41.3977
-31.6534
-45.2544
-42.6125
-32.0572
-44.9313
-45.1618
-34.6471
-46.0984
-44.2921
-34.7535
-39.2545
-38.8602
-32.1615
-41.2723
-41.7091
-37.9986
-38.562
-38.5773
-30.4262
-38.4269
-32.1602
-29.9873
-44.3555
-39.0978
-48.3155
-39.6029
-34.1346
-45.2585
-40.8566
-32.8374
-39.4751
-39.3178
-32.7503
-35.6409
-45.5685
-27.9935
-37.7995
-37.5935
-29.3018
-44.6344
-43.889
-41.2489
-39.9559
-39.2987
-37.7866
-31.0622
-41.3655
-39.9849
-40.1874
-41.2647
-33.276
-43.4956
-39.4394
-40.8211
-39.067
-40.6817
-41.5603
-37.6138
-33.6287
-39.8962
-42.0196
-39.346
-39.9752
-40.999
-38.5417
-40.1644
-33.1615
-39.5617
-42.4664
-39.1246
-40.3817
-38.6535
-33.7809
-45.617
-45.5406
-44.9151
-46.307
-34.593
-32.301
-39.7027
-43.8367
-41.6876
-43.2234
-43.8151
-37.8049
-36.9649
-32.6793
-34.4273
-38.4685
-40.8703
-40.6285
-40.4583
-37.0864
-44.3433
-42.2774
-34.8279
-38.2209
-37.6588
-43.7309
-38.5896
-31.078
-41.3608
-41.0616
-44.5507
-32.9749
-39.3675
-41.8631
-39.6739
-40.3128
-43.1085
-40.7969
-37.8572
-46.576
-29.7368
-36.7963
-40.67
-38.5954
-39.8549
-46.1543
-42.4494
-41.2325
-36.5803
-45.4879
-39.6502
-41.5673
-43.7942
-44.5736
-44.2514
-44.5445
-45.91
-46.7242
-45.7006
-45.7126
-41.5551
-44.0153
-39.4319
-40.3323
-37.0477
-35.9184
-30.4442
-46.3061
-46.0479
-44.9213
-40.1224
-41.5865
-41.3416
-38.6999
-41.8295
-43.9338
-38.0291
-40.5292
-42.9194
-39.2623
-39.5244
-39.3122
-40.0746
-38.4733
-39.9455
-39.6358
-34.5671
-41.822
-38.1321
-40.4865
-32.7077
-46.4425
-40.6724
-38.9345
-38.3581
-34.9827
-41.1187
-39.0478
-32.1746
-36.5548
-40.5604
-35.8665
-36.693
-46.8578
-47.2999
-39.6936
-39.717
-43.4305
-46.0558
-32.063
-38.9163
-38.4977
-39.8666
-39.8516
-40.166
-40.7374
-36.9634
-33.817
-45.4219
-39.7746
-36.1967
-36.885
-39.645
-41.185
-35.0838
-40.5035
-38.7685
-39.4255
-46.1195
-36.331
-34.031
-39.9079
-39.159
-38.5159
-33.9237
-44.6992
-39.6539
-39.4196
-39.6355
-32.2138
-39.7781
-39.8405
-34.189
-39.6652
-36.5199
-42.2237
-45.1031
-38.7479
-43.9344
-42.0039
-38.8236
-38.9313
-39.9665
-33.9651
-42.1371
-42.6846
-39.2876
-33.0069
-37.5775
-40.3875
-40.6484
-38.7728
-33.5836
-38.9361
-44.5545
-42.1151
-39.079
-46.755
-36.2769
-43.9523
-32.3333
-36.1159
-44.3103
-32.2909
-44.3461
-39.1103
-41.1676
-39.4488
-47.2543
-37.1662
-41.2301
-46.0748
-45.5522
-35.3233
-45.1615
-46.1563
-29.4171
-40.7511
-39.0871
-32.5479
-42.8541
-39.0008
-39.4452
-39.4629
-40.7871
-40.2071
-39.281
-38.9845
-32.2859
-42.7203
-41.2293
-40.9385
-41.5233
-40.1106
-38.7866
-37.6238
-43.5873
-31.2237
-38.3905
-38.6229
-31.6679
-44.1752
-46.4634
-40.9474
-44.945
-45.5692
-38.5065
-39.3354
-42.3969
-44.9073
-38.5122
-42.8955
-36.8691
-32.6919
-43.6179
-37.927
-44.5404
-46.8282
-45.9934
-32.9822
-44.0259
-41.4692
-37.9205
-39.2435
-39.8878
-39.0625
-33.1278
-45.114
-33.3594
-44.9776
-40.0546
-36.8799
-36.4305
-40.3696
-42.9917
-45.8706
-40.9938
-47.8142
-43.6785
-44.341
-32.3253
-43.9898
-43.1906
-44.6171
-38.6561
-37.9847
-31.2778
-40.5637
-47.5204
-45.0674
-33.6819
-37.1297
-33.5454
-38.6418
-40.7321
-36.7452
-49.8829
-39.4845
-37.123
-33.9163
-42.0821
-38.0973
-31.6147
-40.4618
-39.0153
-39.0911
-39.2486
-39.3081
-33.9988
-36.7766
-32.5958
-39.1495
-43.7533
-42.2638
-45.2335
-44.6358
-38.4016
-37.5839
-32.3476
-38.7256
-43.2645
-45.5214
-43.651
-43.7431
-36.2033
-31.6071
-37.2342
-30.9882
-43.4124
-43.7573
-37.6258
-44.2175
-43.4352
-45.1465
-42.0396
-41.1855
-41.0587
-38.3994
-32.0428
-37.4422
-33.0308
-36.805
-39.2525
-38.7597
-34.5425
-32.9413
-42.813
-47.5225
-46.8769
-46.0111
-40.9616
-42.6204
-42.4836
-40.6674
-39.2601
-40.6076
-37.8583
-40.0551
-40.0893
-32.955
-43.5196
-39.7983
-37.1667
-34.4272
-39.053
-40.8561
-40.8099
-38.7932
-34.4706
-45.7858
-41.9533
-39.0885
-46.6474
-37.975
-32.6356
-42.5257
-40.1253
-40.1205
-40.1019
-38.8532
-31.1051
-40.4102
-40.0038
-33.4244
-45.7645
-39.6352
-28.1355
-39.2313
-40.6725
-40.9466
-38.8169
-33.1255
-38.3046
-38.5157
-35.8641
-40.2664
-32.3246
-40.488
-40.2565
-35.4846
-46.7295
-39.9704
-34.1955
-47.7093
-40.6043
-40.6158
-34.347
-40.2406
-33.3563
)
;
    }
}


// ************************************************************************* //
