/*--------------------------------*- C++ -*----------------------------------*\
| =========                 |                                                 |
| \\      /  F ield         | OpenFOAM: The Open Source CFD Toolbox           |
|  \\    /   O peration     | Version:  v1912                                 |
|   \\  /    A nd           | Website:  www.openfoam.com                      |
|    \\/     M anipulation  |                                                 |
\*---------------------------------------------------------------------------*/
FoamFile
{
    version     2.0;
    format      ascii;
    class       surfaceScalarField;
    location    "232/oil";
    object      phi;
}
// * * * * * * * * * * * * * * * * * * * * * * * * * * * * * * * * * * * * * //

dimensions      [1 0 -1 0 0 0 0];
oriented        oriented;


internalField   nonuniform List<scalar> 
104676
(
-9.64561e-12
2.71235e-11
-1.25999e-11
2.66342e-10
-2.18231e-10
-5.76017e-11
8.31794e-10
-4.09348e-10
-1.55969e-10
1.59877e-09
-4.99268e-10
-2.67595e-10
2.45448e-09
-5.10411e-10
-3.4521e-10
3.28635e-09
-4.64168e-10
-3.67625e-10
3.9928e-09
-3.77336e-10
-3.29049e-10
4.48894e-09
-2.62375e-10
-2.33708e-10
4.70863e-09
-1.28922e-10
-9.07163e-11
4.61592e-09
1.10204e-11
8.17463e-11
4.19322e-09
1.55571e-10
2.67167e-10
3.46983e-09
2.7355e-10
4.49889e-10
2.48352e-09
3.80768e-10
6.0558e-10
1.30512e-09
4.58436e-10
7.20015e-10
2.47839e-11
4.99488e-10
7.80898e-10
-1.25955e-09
5.01715e-10
7.8268e-10
-2.4412e-09
4.58881e-10
7.22828e-10
-3.4315e-09
3.80485e-10
6.09887e-10
-4.16197e-09
2.75248e-10
4.55307e-10
-4.58998e-09
1.52287e-10
2.75805e-10
-4.69415e-09
1.21718e-11
9.2086e-11
-4.47943e-09
-1.31487e-10
-8.31294e-11
-3.98739e-09
-2.6443e-10
-2.27503e-10
-3.28404e-09
-3.79256e-10
-3.23989e-10
-2.4547e-09
-4.65727e-10
-3.635e-10
-1.60078e-09
-5.12894e-10
-3.40917e-10
-8.34344e-10
-5.03111e-10
-2.63224e-10
-2.68405e-10
-4.13892e-10
-1.51949e-10
9.26802e-12
-2.22707e-10
-5.48603e-11
2.14142e-11
-1.20798e-11
2.72027e-10
-5.16887e-10
2.72132e-10
1.04778e-09
-1.55197e-09
5.58148e-10
2.2798e-09
-2.33221e-09
6.90987e-10
3.83099e-09
-2.80727e-09
7.56927e-10
5.51484e-09
-3.03482e-09
8.40653e-10
7.13061e-09
-3.07105e-09
9.91194e-10
8.48868e-09
-2.96399e-09
1.22866e-09
9.42498e-09
-2.7515e-09
1.55288e-09
9.81165e-09
-2.46528e-09
1.94973e-09
9.5668e-09
-2.13388e-09
2.38979e-09
8.65231e-09
-1.78527e-09
2.85538e-09
7.11866e-09
-1.47999e-09
3.28723e-09
5.08046e-09
-1.21149e-09
3.6305e-09
2.66681e-09
-1.01724e-09
3.88937e-09
5.00524e-11
-9.15628e-10
4.03193e-09
-2.57685e-09
-9.16229e-10
4.0449e-09
-4.99704e-09
-1.02188e-09
3.90101e-09
-7.03711e-09
-1.2195e-09
3.64013e-09
-8.55805e-09
-1.48853e-09
3.2848e-09
-9.47519e-09
-1.79965e-09
2.86917e-09
-9.73452e-09
-2.14349e-09
2.41508e-09
-9.3608e-09
-2.4725e-09
1.9674e-09
-8.44028e-09
-2.75593e-09
1.57109e-09
-7.09916e-09
-2.96755e-09
1.24729e-09
-5.49733e-09
-3.07562e-09
1.00818e-09
-3.82586e-09
-3.04102e-09
8.56768e-10
-2.28246e-09
-2.8177e-09
7.71287e-10
-1.05132e-09
-2.34606e-09
7.0113e-10
-2.72882e-10
-1.56354e-09
5.62502e-10
-5.23406e-10
2.72001e-10
5.71198e-10
-1.66468e-09
5.76742e-10
1.81469e-09
-4.02878e-09
1.23346e-09
3.55832e-09
-5.71755e-09
1.64183e-09
5.63058e-09
-6.81902e-09
1.9396e-09
7.81701e-09
-7.45169e-09
2.23053e-09
9.88155e-09
-7.71351e-09
2.57799e-09
1.15936e-08
-7.68866e-09
3.01267e-09
1.27489e-08
-7.44655e-09
3.53984e-09
1.31879e-08
-7.05025e-09
4.146e-09
1.28087e-08
-6.5527e-09
4.79806e-09
1.15613e-08
-6.0114e-09
5.47358e-09
9.49844e-09
-5.4997e-09
6.08256e-09
6.7695e-09
-5.05099e-09
6.56847e-09
3.55041e-09
-4.7234e-09
6.92529e-09
6.44149e-11
-4.55452e-09
7.12492e-09
-3.43821e-09
-4.56254e-09
7.14899e-09
-6.66727e-09
-4.73448e-09
6.94171e-09
-9.39654e-09
-5.06383e-09
6.57366e-09
-1.14473e-08
-5.50919e-09
6.0715e-09
-1.27109e-08
-6.02534e-09
5.48937e-09
-1.31111e-08
-6.56541e-09
4.8222e-09
-1.26876e-08
-7.05927e-09
4.16334e-09
-1.15486e-08
-7.45359e-09
3.55879e-09
-9.85356e-09
-7.69397e-09
3.03148e-09
-7.80465e-09
-7.72025e-09
2.59583e-09
-5.62892e-09
-7.46303e-09
2.24638e-09
-3.56368e-09
-6.83505e-09
1.9522e-09
-1.82144e-09
-5.73708e-09
1.64887e-09
-5.74408e-10
-4.04422e-09
1.23373e-09
-1.67323e-09
5.75468e-10
8.18789e-10
-3.31218e-09
8.28813e-10
2.45571e-09
-7.45319e-09
1.7876e-09
4.6141e-09
-1.02931e-08
2.41722e-09
7.0832e-09
-1.21904e-08
2.90238e-09
9.62709e-09
-1.33628e-08
3.36726e-09
1.19917e-08
-1.39599e-08
3.88186e-09
1.39274e-08
-1.41063e-08
4.48188e-09
1.5211e-08
-1.39046e-08
5.17456e-09
1.5661e-08
-1.34483e-08
5.948e-09
1.51601e-08
-1.28229e-08
6.7711e-09
1.36496e-08
-1.21148e-08
7.61387e-09
1.12007e-08
-1.14085e-08
8.35779e-09
7.97595e-09
-1.07935e-08
8.96723e-09
4.18012e-09
-1.03195e-08
9.39192e-09
7.286e-11
-1.0078e-08
9.63075e-09
-4.05644e-09
-1.0095e-08
9.66181e-09
-7.86538e-09
-1.03314e-08
9.40589e-09
-1.10923e-08
-1.07928e-08
8.95594e-09
-1.35305e-08
-1.14111e-08
8.34011e-09
-1.50543e-08
-1.21201e-08
7.6186e-09
-1.55745e-08
-1.28284e-08
6.78324e-09
-1.51417e-08
-1.34524e-08
5.96043e-09
-1.38771e-08
-1.39082e-08
5.19e-09
-1.19585e-08
-1.41095e-08
4.49701e-09
-9.61052e-09
-1.39657e-08
3.89763e-09
-7.08077e-09
-1.33743e-08
3.38158e-09
-4.61853e-09
-1.22093e-08
2.9121e-09
-2.46242e-09
-1.03115e-08
2.4184e-09
-8.24758e-10
-7.45977e-09
1.77796e-09
-3.32364e-09
8.25696e-10
1.00558e-09
-5.33261e-09
1.01492e-09
2.94616e-09
-1.15864e-08
2.1927e-09
5.42954e-09
-1.5764e-08
2.98756e-09
8.20497e-09
-1.85771e-08
3.61127e-09
1.10169e-08
-2.03813e-08
4.20672e-09
1.35987e-08
-2.13941e-08
4.85245e-09
1.56906e-08
-2.17843e-08
5.58611e-09
1.70573e-08
-2.16891e-08
6.4179e-09
1.75091e-08
-2.12324e-08
7.33229e-09
1.69167e-08
-2.053e-08
8.29956e-09
1.52173e-08
-1.97011e-08
9.2857e-09
1.24847e-08
-1.88495e-08
1.01736e-08
8.88311e-09
-1.80849e-08
1.0893e-08
4.65268e-09
-1.74639e-08
1.13749e-08
7.84621e-11
-1.71499e-08
1.16461e-08
-4.52158e-09
-1.71731e-08
1.16782e-08
-8.76135e-09
-1.74789e-08
1.13873e-08
-1.23585e-08
-1.80626e-08
1.08669e-08
-1.50898e-08
-1.88434e-08
1.01637e-08
-1.68043e-08
-1.97001e-08
9.29453e-09
-1.74164e-08
-2.05301e-08
8.31392e-09
-1.69837e-08
-2.12326e-08
7.34755e-09
-1.56352e-08
-2.16904e-08
6.43381e-09
-1.35598e-08
-2.17866e-08
5.60185e-09
-1.09942e-08
-2.13987e-08
4.8674e-09
-8.19728e-09
-2.03904e-08
4.21934e-09
-5.43217e-09
-1.85928e-08
3.61839e-09
-2.95099e-09
-1.57777e-08
2.98502e-09
-1.01079e-09
-1.15785e-08
2.17863e-09
-5.34661e-09
1.01221e-09
1.13109e-09
-7.6058e-09
1.14212e-09
3.28731e-09
-1.62058e-08
2.4632e-09
6.00698e-09
-2.18554e-08
3.37178e-09
9.00472e-09
-2.56693e-08
4.0945e-09
1.20099e-08
-2.81716e-08
4.78512e-09
1.47478e-08
-2.96637e-08
5.53163e-09
1.69529e-08
-3.03632e-08
6.37379e-09
1.83829e-08
-3.04432e-08
7.3241e-09
1.88415e-08
-3.00562e-08
8.36523e-09
1.81943e-08
-2.93449e-08
9.46204e-09
1.63756e-08
-2.84549e-08
1.05725e-08
1.34357e-08
-2.75292e-08
1.16196e-08
9.55539e-09
-2.66576e-08
1.24529e-08
5.00186e-09
-2.59003e-08
1.29899e-08
7.86894e-11
-2.55047e-08
1.3278e-08
-4.87256e-09
-2.553e-08
1.33081e-08
-9.42627e-09
-2.5935e-08
1.30098e-08
-1.32942e-08
-2.66145e-08
1.24198e-08
-1.62387e-08
-2.75157e-08
1.16168e-08
-1.80755e-08
-2.84508e-08
1.05875e-08
-1.87448e-08
-2.93415e-08
9.48071e-09
-1.83067e-08
-3.00546e-08
8.38395e-09
-1.68952e-08
-3.04442e-08
7.34225e-09
-1.4707e-08
-3.03656e-08
6.39078e-09
-1.19837e-08
-2.96681e-08
5.54604e-09
-8.99231e-09
-2.81787e-08
4.79694e-09
-6.00588e-09
-2.56791e-08
4.09992e-09
-3.29244e-09
-2.18574e-08
3.36629e-09
-1.13693e-09
-1.61826e-08
2.44857e-09
-7.62422e-09
1.14069e-09
1.19428e-09
-1.00204e-08
1.22035e-09
3.48322e-09
-2.11335e-08
2.63879e-09
6.35193e-09
-2.83313e-08
3.60716e-09
9.48759e-09
-3.31896e-08
4.38461e-09
1.26115e-08
-3.64353e-08
5.13973e-09
1.54462e-08
-3.84598e-08
5.96139e-09
1.77249e-08
-3.9533e-08
6.89117e-09
1.92009e-08
-3.98633e-08
7.94406e-09
1.96746e-08
-3.96297e-08
9.09983e-09
1.90043e-08
-3.89945e-08
1.03199e-08
1.71226e-08
-3.81288e-08
1.15556e-08
1.40463e-08
-3.71989e-08
1.27459e-08
9.99414e-09
-3.63046e-08
1.36992e-08
5.23078e-09
-3.54237e-08
1.42867e-08
8.53919e-11
-3.49538e-08
1.45945e-08
-5.08366e-09
-3.49925e-08
1.46315e-08
-9.86308e-09
-3.54893e-08
1.43337e-08
-1.39013e-08
-3.62529e-08
1.36766e-08
-1.69818e-08
-3.7186e-08
1.27507e-08
-1.8883e-08
-3.81282e-08
1.15786e-08
-1.95754e-08
-3.89947e-08
1.03456e-08
-1.9123e-08
-3.96306e-08
9.12367e-09
-1.76658e-08
-3.98668e-08
7.96535e-09
-1.54042e-08
-3.95385e-08
6.91129e-09
-1.25833e-08
-3.84659e-08
5.97693e-09
-9.47257e-09
-3.6441e-08
5.15151e-09
-6.34903e-09
-3.31905e-08
4.38788e-09
-3.49191e-09
-2.83086e-08
3.59405e-09
-1.20883e-09
-2.10766e-08
2.61086e-09
-1.00502e-08
1.21711e-09
1.21797e-09
-1.24847e-08
1.24623e-09
3.54565e-09
-2.61672e-08
2.706e-09
6.46371e-09
-3.49523e-08
3.70293e-09
9.64664e-09
-4.08763e-08
4.50372e-09
1.28064e-08
-4.48856e-08
5.29044e-09
1.56699e-08
-4.74858e-08
6.16256e-09
1.79745e-08
-4.89969e-08
7.15919e-09
1.94751e-08
-4.96588e-08
8.29482e-09
1.99677e-08
-4.96721e-08
9.54978e-09
1.93082e-08
-4.92169e-08
1.08819e-08
1.74169e-08
-4.84742e-08
1.22366e-08
1.42935e-08
-4.76327e-08
1.35573e-08
1.01644e-08
-4.68209e-08
1.46452e-08
5.3122e-09
-4.58384e-08
1.52669e-08
8.49763e-11
-4.53363e-08
1.56096e-08
-5.17328e-09
-4.53836e-08
1.56494e-08
-1.00604e-08
-4.5906e-08
1.53038e-08
-1.41578e-08
-4.67661e-08
1.46105e-08
-1.72777e-08
-4.76231e-08
1.35569e-08
-1.91871e-08
-4.84779e-08
1.22591e-08
-1.98695e-08
-4.92205e-08
1.09081e-08
-1.93978e-08
-4.96768e-08
9.57449e-09
-1.79153e-08
-4.96669e-08
8.31763e-09
-1.56269e-08
-4.90078e-08
7.18082e-09
-1.27768e-08
-4.74963e-08
6.18037e-09
-9.63056e-09
-4.48899e-08
5.30262e-09
-6.46432e-09
-4.0856e-08
4.49926e-09
-3.55984e-09
-3.48881e-08
3.67508e-09
-1.23125e-09
-2.60741e-08
2.66893e-09
-1.25267e-08
1.24531e-09
1.1969e-09
-1.49053e-08
1.2237e-09
3.46927e-09
-3.11094e-08
2.66978e-09
6.32793e-09
-4.14871e-08
3.67614e-09
9.456e-09
-4.84826e-08
4.47814e-09
1.25632e-08
-5.32506e-08
5.25769e-09
1.53755e-08
-5.6437e-08
6.13884e-09
1.76452e-08
-5.8436e-08
7.16932e-09
1.91364e-08
-5.95061e-08
8.35614e-09
1.96452e-08
-5.98587e-08
9.67764e-09
1.90244e-08
-5.9687e-08
1.10908e-08
1.71987e-08
-5.91756e-08
1.25272e-08
1.41539e-08
-5.85069e-08
1.39189e-08
1.00484e-08
-5.78335e-08
1.5118e-08
5.24476e-09
-5.68212e-08
1.57865e-08
8.06897e-11
-5.63625e-08
1.61902e-08
-5.12093e-09
-5.64044e-08
1.62224e-08
-9.97292e-09
-5.68469e-08
1.57929e-08
-1.40413e-08
-5.77502e-08
1.50526e-08
-1.70661e-08
-5.84982e-08
1.38998e-08
-1.89063e-08
-5.91832e-08
1.25455e-08
-1.9548e-08
-5.96961e-08
1.11174e-08
-1.90597e-08
-5.98686e-08
9.70338e-09
-1.75867e-08
-5.95197e-08
8.37979e-09
-1.53324e-08
-5.84535e-08
7.19147e-09
-1.25348e-08
-5.64483e-08
6.15431e-09
-9.44998e-09
-5.32272e-08
5.25242e-09
-6.34436e-09
-4.83995e-08
4.43786e-09
-3.49368e-09
-4.13544e-08
3.61556e-09
-1.20515e-09
-3.09899e-08
2.62722e-09
-1.49563e-08
1.22445e-09
1.13557e-09
-1.71884e-08
1.14751e-09
3.28062e-09
-3.57613e-08
2.50677e-09
5.95165e-09
-4.76449e-08
3.48673e-09
8.89531e-09
-5.57111e-08
4.28482e-09
1.18436e-08
-6.12413e-08
5.04232e-09
1.45143e-08
-6.49921e-08
5.88436e-09
1.66749e-08
-6.74958e-08
6.89923e-09
1.8108e-08
-6.90288e-08
8.0895e-09
1.86223e-08
-6.97998e-08
9.42673e-09
1.80675e-08
-6.99996e-08
1.08674e-08
1.63715e-08
-6.98116e-08
1.23319e-08
1.35204e-08
-6.94001e-08
1.37443e-08
9.56868e-09
-6.88836e-08
1.50017e-08
4.99133e-09
-6.79717e-08
1.57278e-08
7.50146e-11
-6.76018e-08
1.61556e-08
-4.87025e-09
-6.76415e-08
1.61823e-08
-9.47967e-09
-6.79478e-08
1.57102e-08
-1.34106e-08
-6.87161e-08
1.48968e-08
-1.62476e-08
-6.93785e-08
1.37173e-08
-1.79536e-08
-6.98249e-08
1.23476e-08
-1.85287e-08
-7.00141e-08
1.08931e-08
-1.8035e-08
-6.98144e-08
9.45204e-09
-1.6618e-08
-6.90494e-08
8.11258e-09
-1.44702e-08
-6.75201e-08
6.91861e-09
-1.18215e-08
-6.49818e-08
5.88476e-09
-8.90654e-09
-6.11365e-08
4.9943e-09
-5.97155e-09
-5.55336e-08
4.19903e-09
-3.28359e-09
-4.74511e-08
3.40864e-09
-1.13166e-09
-3.56137e-08
2.47185e-09
-1.72415e-08
1.15343e-09
1.02479e-09
-1.92318e-08
1.01852e-09
2.96729e-09
-3.98998e-08
2.19595e-09
5.36104e-09
-5.31131e-08
3.0743e-09
7.97622e-09
-6.21814e-08
3.85507e-09
1.06282e-08
-6.84801e-08
4.58678e-09
1.30462e-08
-7.27756e-08
5.3655e-09
1.50131e-08
-7.5775e-08
6.3123e-09
1.63333e-08
-7.77967e-08
7.44766e-09
1.68302e-08
-7.90278e-08
8.73102e-09
1.63666e-08
-7.96459e-08
1.01099e-08
1.48897e-08
-7.98131e-08
1.14783e-08
1.23611e-08
-7.96476e-08
1.27761e-08
8.72014e-09
-7.92487e-08
1.40061e-08
4.54025e-09
-7.86521e-08
1.48603e-08
6.80703e-11
-7.84365e-08
1.53068e-08
-4.42191e-09
-7.84764e-08
1.53249e-08
-8.58039e-09
-7.86332e-08
1.48439e-08
-1.21557e-08
-7.91668e-08
1.4026e-08
-1.47208e-08
-7.97504e-08
1.29369e-08
-1.625e-08
-7.98609e-08
1.15651e-08
-1.6739e-08
-7.96675e-08
1.01422e-08
-1.62643e-08
-7.90403e-08
8.75121e-09
-1.49576e-08
-7.78205e-08
7.46438e-09
-1.29988e-08
-7.58012e-08
6.32229e-09
-1.06042e-08
-7.27164e-08
5.34001e-09
-7.97547e-09
-6.82625e-08
4.4972e-09
-5.32695e-09
-6.193e-08
3.74779e-09
-2.9147e-09
-5.28877e-08
3.02433e-09
-9.94884e-10
-3.97216e-08
2.18807e-09
-1.92621e-08
1.02578e-09
8.63515e-10
-2.0936e-08
8.40648e-10
2.51864e-09
-4.33202e-08
1.76519e-09
4.54138e-09
-5.7564e-08
2.42816e-09
6.73486e-09
-6.74691e-08
3.0941e-09
8.91962e-09
-7.44628e-08
3.7979e-09
1.09487e-08
-7.9328e-08
4.5232e-09
1.26261e-08
-8.28108e-08
5.35836e-09
1.37795e-08
-8.53204e-08
6.37031e-09
1.42486e-08
-8.70155e-08
7.51855e-09
1.39082e-08
-8.80209e-08
8.71538e-09
1.26749e-08
-8.8468e-08
9.88827e-09
1.04712e-08
-8.85751e-08
1.11311e-08
7.39726e-09
-8.84787e-08
1.23038e-08
3.86319e-09
-8.82121e-08
1.30939e-08
5.70449e-11
-8.81262e-08
1.34958e-08
-3.77657e-09
-8.81037e-08
1.34608e-08
-7.31738e-09
-8.80733e-08
1.29809e-08
-1.03479e-08
-8.83556e-08
1.22192e-08
-1.25124e-08
-8.88285e-08
1.12425e-08
-1.37743e-08
-8.85601e-08
9.96103e-09
-1.41474e-08
-8.80108e-08
8.71639e-09
-1.371e-08
-8.6986e-08
7.50822e-09
-1.25721e-08
-8.53278e-08
6.36934e-09
-1.0885e-08
-8.28375e-08
5.34914e-09
-8.85702e-09
-7.92288e-08
4.48438e-09
-6.65665e-09
-7.42282e-08
3.76523e-09
-4.46986e-09
-6.72743e-08
3.15739e-09
-2.46182e-09
-5.74634e-08
2.56764e-09
-8.49438e-10
-4.31951e-08
1.86105e-09
-2.09803e-08
8.68665e-10
6.62532e-10
-2.22324e-08
6.33766e-10
1.90809e-09
-4.59158e-08
1.34994e-09
3.46983e-09
-6.09485e-08
1.82273e-09
5.14232e-09
-7.13722e-08
2.23063e-09
6.76345e-09
-7.88201e-08
2.73613e-09
8.27237e-09
-8.41852e-08
3.34828e-09
9.54511e-09
-8.81224e-08
4.03881e-09
1.04658e-08
-9.10644e-08
4.8234e-09
1.09156e-08
-9.31682e-08
5.7028e-09
1.0676e-08
-9.4437e-08
6.65575e-09
9.61922e-09
-9.51263e-08
7.71507e-09
7.84768e-09
-9.56069e-08
8.80325e-09
5.6201e-09
-9.5972e-08
9.72085e-09
2.97015e-09
-9.59136e-08
1.03515e-08
4.98606e-11
-9.58601e-08
1.06542e-08
-2.91931e-09
-9.57186e-08
1.05842e-08
-5.62418e-09
-9.5564e-08
1.01956e-08
-7.90115e-09
-9.56194e-08
9.54079e-09
-9.61975e-09
-9.57247e-08
8.61479e-09
-1.05728e-08
-9.50866e-08
7.47951e-09
-1.08048e-08
-9.42783e-08
6.49945e-09
-1.04352e-08
-9.29484e-08
5.59273e-09
-9.5645e-09
-9.09583e-08
4.7598e-09
-8.29896e-09
-8.81616e-08
4.0585e-09
-6.75712e-09
-8.42247e-08
3.45399e-09
-5.08182e-09
-7.88079e-08
2.90435e-09
-3.41205e-09
-7.13623e-08
2.41819e-09
-1.87866e-09
-6.09478e-08
1.95092e-09
-6.49141e-10
-4.58347e-08
1.40999e-09
-2.22863e-08
6.56915e-10
4.47612e-10
-2.30655e-08
3.855e-10
1.20705e-09
-4.74854e-08
8.1021e-10
2.18181e-09
-6.3095e-08
1.17165e-09
3.23971e-09
-7.38928e-08
1.46271e-09
4.27761e-09
-8.16557e-08
1.79769e-09
5.24899e-09
-8.734e-08
2.18337e-09
6.0648e-09
-9.15315e-08
2.59329e-09
6.61884e-09
-9.4623e-08
3.00454e-09
6.91763e-09
-9.69195e-08
3.45255e-09
6.74358e-09
-9.83746e-08
4.1116e-09
6.05019e-09
-9.93551e-08
4.92214e-09
4.97702e-09
-1.00201e-07
5.66764e-09
3.57294e-09
-1.00819e-07
6.2508e-09
1.89518e-09
-1.00892e-07
6.65595e-09
5.8925e-11
-1.00905e-07
6.88091e-09
-1.80535e-09
-1.00716e-07
6.86154e-09
-3.51445e-09
-1.00488e-07
6.63341e-09
-4.92502e-09
-1.00426e-07
6.21711e-09
-6.02693e-09
-1.00272e-07
5.64925e-09
-6.70458e-09
-9.93091e-08
4.90007e-09
-6.95708e-09
-9.81351e-08
4.10918e-09
-6.76001e-09
-9.65177e-08
3.37225e-09
-6.16301e-09
-9.4362e-08
2.80661e-09
-5.28101e-09
-9.14629e-08
2.41921e-09
-4.26296e-09
-8.73551e-08
2.11224e-09
-3.19352e-09
-8.16906e-08
1.8131e-09
-2.13824e-09
-7.3934e-08
1.51641e-09
-1.17382e-09
-6.31348e-08
1.22256e-09
-4.05986e-10
-4.74841e-08
8.81606e-10
-2.31028e-08
4.10416e-10
1.63658e-10
-2.33604e-08
1.31119e-10
4.19926e-10
-4.80223e-08
2.80607e-10
7.63437e-10
-6.38573e-08
4.18795e-10
1.1407e-09
-7.47931e-08
5.23019e-10
1.52168e-09
-8.26641e-08
6.27414e-10
1.90762e-09
-8.84405e-08
7.1459e-10
2.26652e-09
-9.26812e-08
7.90786e-10
2.48099e-09
-9.57517e-08
9.14272e-10
2.51153e-09
-9.80574e-08
1.10738e-09
2.37679e-09
-9.96223e-08
1.38249e-09
2.16203e-09
-1.00811e-07
1.6708e-09
1.84668e-09
-1.01801e-07
1.9149e-09
1.25343e-09
-1.02306e-07
2.08066e-09
6.23842e-10
-1.02461e-07
2.19829e-09
3.49063e-11
-1.02632e-07
2.31611e-09
-6.20459e-10
-1.02476e-07
2.41589e-09
-1.23361e-09
-1.02286e-07
2.41085e-09
-1.71844e-09
-1.02194e-07
2.25259e-09
-2.1004e-09
-1.01933e-07
2.0427e-09
-2.33667e-09
-1.00858e-07
1.78534e-09
-2.43277e-09
-9.95526e-08
1.51348e-09
-2.37299e-09
-9.78285e-08
1.25096e-09
-2.16495e-09
-9.56067e-08
1.03665e-09
-1.85274e-09
-9.26488e-08
8.73647e-10
-1.48983e-09
-8.84563e-08
7.38196e-10
-1.11021e-09
-8.26868e-08
6.1655e-10
-7.37236e-10
-7.4817e-08
5.09944e-10
-4.00145e-10
-6.38823e-08
4.10353e-10
-1.3763e-10
-4.80396e-08
2.92968e-10
-2.33814e-08
1.41055e-10
-1.15074e-10
-2.31187e-08
-1.2657e-10
-3.57579e-10
-4.75244e-08
-2.55427e-10
-6.5575e-10
-6.32108e-08
-3.4828e-10
-9.81983e-10
-7.40331e-08
-4.33791e-10
-1.31848e-09
-8.18144e-08
-5.13255e-10
-1.65676e-09
-8.75325e-08
-5.69809e-10
-1.97255e-09
-9.17532e-08
-6.12193e-10
-2.17299e-09
-9.48555e-08
-6.95762e-10
-2.1769e-09
-9.71633e-08
-8.90165e-10
-2.03015e-09
-9.85876e-08
-1.18133e-09
-1.84028e-09
-9.95428e-08
-1.45819e-09
-1.67628e-09
-1.00321e-07
-1.6435e-09
-1.41656e-09
-1.00802e-07
-1.76358e-09
-8.73903e-10
-1.01114e-07
-1.88926e-09
-8.22347e-11
-1.01342e-07
-2.081e-09
5.67977e-10
-1.00971e-07
-2.15529e-09
1.12766e-09
-1.00777e-07
-2.06839e-09
1.63065e-09
-1.00765e-07
-1.93174e-09
1.90739e-09
-1.00454e-07
-1.75598e-09
2.085e-09
-9.94864e-08
-1.54951e-09
2.17322e-09
-9.83219e-08
-1.31902e-09
2.12501e-09
-9.66977e-08
-1.08265e-09
1.9586e-09
-9.45429e-08
-8.97439e-10
1.67929e-09
-9.16056e-08
-7.63925e-10
1.35559e-09
-8.74711e-08
-6.61584e-10
1.01981e-09
-8.17865e-08
-5.64566e-10
6.84455e-10
-7.40139e-08
-4.67819e-10
3.80495e-10
-6.32076e-08
-3.70736e-10
1.37117e-10
-4.75387e-08
-2.57536e-10
-2.31243e-08
-1.19965e-10
-3.90919e-10
-2.23332e-08
-3.94638e-10
-1.13559e-09
-4.59353e-08
-8.44354e-10
-2.06494e-09
-6.11089e-08
-1.17243e-09
-3.0826e-09
-7.15595e-08
-1.45588e-09
-4.10511e-09
-7.90402e-08
-1.75169e-09
-5.05293e-09
-8.45025e-08
-2.08228e-09
-5.84039e-09
-8.85132e-08
-2.4526e-09
-6.39789e-09
-9.14279e-08
-2.86998e-09
-6.65564e-09
-9.35667e-08
-3.33865e-09
-6.45651e-09
-9.48411e-08
-3.9456e-09
-5.79311e-09
-9.5501e-08
-4.70511e-09
-4.83782e-09
-9.58876e-08
-5.38922e-09
-3.53831e-09
-9.61869e-08
-5.91507e-09
-1.90383e-09
-9.64204e-08
-6.32806e-09
-3.32084e-11
-9.66169e-08
-6.5961e-09
1.77392e-09
-9.62065e-08
-6.5714e-09
3.47313e-09
-9.61316e-08
-6.34443e-09
4.95981e-09
-9.63169e-08
-5.93454e-09
5.85147e-09
-9.59765e-08
-5.36892e-09
6.43089e-09
-9.53415e-08
-4.72445e-09
6.68747e-09
-9.45952e-08
-3.9834e-09
6.49523e-09
-9.32956e-08
-3.21003e-09
5.9397e-09
-9.12865e-08
-2.70094e-09
5.08998e-09
-8.83938e-08
-2.36215e-09
4.11414e-09
-8.44376e-08
-2.05772e-09
3.10361e-09
-7.90228e-08
-1.75329e-09
2.08944e-09
-7.15556e-08
-1.44423e-09
1.1681e-09
-6.11443e-08
-1.14197e-09
4.24408e-10
-4.60006e-08
-7.94356e-10
-2.2321e-08
-3.78836e-10
-6.39752e-10
-2.1052e-08
-6.41361e-10
-1.84401e-09
-4.33533e-08
-1.37764e-09
-3.34776e-09
-5.76925e-08
-1.91249e-09
-4.9866e-09
-6.75463e-08
-2.37427e-09
-6.62517e-09
-7.45454e-08
-2.85624e-09
-8.12159e-09
-7.95917e-08
-3.41442e-09
-9.34156e-09
-8.32356e-08
-4.05769e-09
-1.02052e-08
-8.57616e-08
-4.80262e-09
-1.06369e-08
-8.74923e-08
-5.64256e-09
-1.04241e-08
-8.85349e-08
-6.51885e-09
-9.41445e-09
-8.89839e-08
-7.52668e-09
-7.73845e-09
-8.8994e-08
-8.5697e-09
-5.54545e-09
-8.89278e-08
-9.45226e-09
-2.93133e-09
-8.89392e-08
-1.00953e-08
-3.73017e-11
-8.90687e-08
-1.0442e-08
2.84239e-09
-8.87223e-08
-1.03636e-08
5.5246e-09
-8.87806e-08
-1.00329e-08
7.84701e-09
-8.9231e-08
-9.40817e-09
9.42606e-09
-8.90534e-08
-8.50213e-09
1.03804e-08
-8.87924e-08
-7.50358e-09
1.06691e-08
-8.83851e-08
-6.49885e-09
1.03032e-08
-8.74384e-08
-5.49137e-09
9.39938e-09
-8.57609e-08
-4.62192e-09
8.11809e-09
-8.32139e-08
-3.89865e-09
6.6008e-09
-7.96407e-08
-3.27962e-09
4.99312e-09
-7.46871e-08
-2.72808e-09
3.38641e-09
-6.77037e-08
-2.24513e-09
1.90189e-09
-5.7875e-08
-1.78476e-09
6.79545e-10
-4.3523e-08
-1.25514e-09
-2.10357e-08
-6.05729e-10
-8.54032e-10
-1.93497e-08
-8.48191e-10
-2.43916e-09
-3.99426e-08
-1.82541e-09
-4.42234e-09
-5.31624e-08
-2.5468e-09
-6.58689e-09
-6.22372e-08
-3.14444e-09
-8.76107e-09
-6.86172e-08
-3.75412e-09
-1.07751e-08
-7.31121e-08
-4.46564e-09
-1.24516e-08
-7.62378e-08
-5.32136e-09
-1.35839e-08
-7.83002e-08
-6.32889e-09
-1.40457e-08
-7.9576e-08
-7.45429e-09
-1.37162e-08
-8.02444e-08
-8.61981e-09
-1.24811e-08
-8.04405e-08
-9.77842e-09
-1.0272e-08
-8.02396e-08
-1.09636e-08
-7.29621e-09
-7.98193e-08
-1.20845e-08
-3.82281e-09
-7.95075e-08
-1.29051e-08
-3.04756e-11
-7.95206e-08
-1.33402e-08
3.75328e-09
-7.92749e-08
-1.32308e-08
7.26185e-09
-7.94692e-08
-1.28196e-08
1.02847e-08
-8.01597e-08
-1.2094e-08
1.24554e-08
-8.03197e-08
-1.09045e-08
1.37046e-08
-8.04035e-08
-9.6384e-09
1.40673e-08
-8.02321e-08
-8.51592e-09
1.36276e-08
-7.95998e-08
-7.399e-09
1.24944e-08
-7.83384e-08
-6.28939e-09
1.08373e-08
-7.62698e-08
-5.28696e-09
8.82864e-09
-7.31874e-08
-4.44477e-09
6.66818e-09
-6.88136e-08
-3.7131e-09
4.52814e-09
-6.25693e-08
-2.9944e-09
2.53241e-09
-5.35624e-08
-2.31679e-09
8.9494e-10
-4.02499e-08
-1.63551e-09
-1.93392e-08
-8.01485e-10
-1.02045e-09
-1.73188e-08
-1.01025e-09
-2.90599e-09
-3.58937e-08
-2.1631e-09
-5.29072e-09
-4.77541e-08
-3.02325e-09
-7.92192e-09
-5.58604e-08
-3.74549e-09
-1.05474e-08
-6.15106e-08
-4.48108e-09
-1.29425e-08
-6.54047e-08
-5.31252e-09
-1.49021e-08
-6.7989e-08
-6.28928e-09
-1.62125e-08
-6.95679e-08
-7.42192e-09
-1.67018e-08
-7.03858e-08
-8.70071e-09
-1.624e-08
-7.06349e-08
-1.00711e-08
-1.47628e-08
-7.04842e-08
-1.14335e-08
-1.22263e-08
-7.0084e-08
-1.26922e-08
-8.67018e-09
-6.95233e-08
-1.38524e-08
-4.50097e-09
-6.8898e-08
-1.47788e-08
-2.23896e-11
-6.86907e-08
-1.53082e-08
4.4407e-09
-6.85153e-08
-1.52223e-08
8.59809e-09
-6.88586e-08
-1.47676e-08
1.2151e-08
-6.9725e-08
-1.39875e-08
1.47209e-08
-7.01373e-08
-1.27524e-08
1.62346e-08
-7.0502e-08
-1.14154e-08
1.67122e-08
-7.06555e-08
-1.00545e-08
1.62309e-08
-7.04178e-08
-8.70077e-09
1.49257e-08
-6.96079e-08
-7.42542e-09
1.29772e-08
-6.8032e-08
-6.28942e-09
1.05773e-08
-6.54597e-08
-5.32782e-09
7.93417e-09
-6.16243e-08
-4.54624e-09
5.30673e-09
-5.60915e-08
-3.85041e-09
2.93566e-09
-4.80702e-08
-3.12102e-09
1.02826e-09
-3.61293e-08
-2.21307e-09
-1.73025e-08
-1.00821e-09
-1.13287e-09
-1.50365e-08
-1.14921e-09
-3.27649e-09
-3.12713e-08
-2.47839e-09
-5.96032e-09
-4.16581e-08
-3.41181e-09
-8.89267e-09
-4.87343e-08
-4.19355e-09
-1.18114e-08
-5.36108e-08
-4.98119e-09
-1.44685e-08
-5.6879e-08
-5.8687e-09
-1.66241e-08
-5.89317e-08
-6.90177e-09
-1.80523e-08
-6.00463e-08
-8.09329e-09
-1.85599e-08
-6.04438e-08
-9.43407e-09
-1.80037e-08
-6.03149e-08
-1.0876e-08
-1.63076e-08
-5.98431e-08
-1.23372e-08
-1.34745e-08
-5.92099e-08
-1.37074e-08
-9.56968e-09
-5.85403e-08
-1.48883e-08
-4.93311e-09
-5.77924e-08
-1.57423e-08
-1.50002e-11
-5.73544e-08
-1.62541e-08
4.91385e-09
-5.72428e-08
-1.62007e-08
9.53685e-09
-5.77157e-08
-1.57654e-08
1.34229e-08
-5.86029e-08
-1.5008e-08
1.62757e-08
-5.92316e-08
-1.37587e-08
1.79892e-08
-5.98634e-08
-1.23525e-08
1.85591e-08
-6.03381e-08
-1.08876e-08
1.80602e-08
-6.04729e-08
-9.44611e-09
1.66388e-08
-6.00818e-08
-8.10472e-09
1.44898e-08
-5.89734e-08
-6.90957e-09
1.18348e-08
-5.69264e-08
-5.87825e-09
8.89817e-09
-5.36731e-08
-5.01466e-09
5.9353e-09
-4.88474e-08
-4.28118e-09
3.24519e-09
-4.18397e-08
-3.5403e-09
1.12574e-09
-3.14469e-08
-2.56268e-09
-1.50233e-08
-1.15329e-09
-1.18432e-09
-1.26162e-08
-1.23555e-09
-3.48844e-09
-2.63027e-08
-2.66399e-09
-6.3551e-09
-3.51644e-08
-3.62659e-09
-9.46973e-09
-4.11797e-08
-4.43963e-09
-1.25669e-08
-4.52598e-08
-5.25382e-09
-1.53785e-08
-4.79098e-08
-6.15779e-09
-1.76489e-08
-4.9463e-08
-7.19826e-09
-1.91396e-08
-5.01645e-08
-8.39099e-09
-1.96456e-08
-5.02162e-08
-9.72128e-09
-1.90187e-08
-4.98001e-08
-1.11416e-08
-1.71852e-08
-4.90919e-08
-1.25847e-08
-1.4149e-08
-4.82772e-08
-1.39694e-08
-1.00626e-08
-4.74641e-08
-1.51631e-08
-5.18032e-09
-4.67041e-08
-1.59708e-08
-8.13765e-12
-4.61694e-08
-1.63569e-08
5.18051e-09
-4.61238e-08
-1.63071e-08
1.00429e-08
-4.66565e-08
-1.5921e-08
1.41141e-08
-4.75011e-08
-1.51729e-08
1.71542e-08
-4.82939e-08
-1.39781e-08
1.89993e-08
-4.91084e-08
-1.26005e-08
1.96378e-08
-4.9819e-08
-1.11579e-08
1.91417e-08
-5.02411e-08
-9.73593e-09
1.76595e-08
-5.0195e-08
-8.40453e-09
1.53933e-08
-4.94987e-08
-7.20854e-09
1.25843e-08
-4.79507e-08
-6.16687e-09
9.48423e-09
-4.53067e-08
-5.26639e-09
6.35095e-09
-4.1242e-08
-4.472e-09
3.47573e-09
-3.5275e-08
-3.68919e-09
1.19459e-09
-2.64605e-08
-2.70489e-09
-1.25986e-08
-1.22982e-09
-1.22172e-09
-1.01373e-08
-1.25663e-09
-3.56954e-09
-2.12626e-08
-2.69163e-09
-6.49219e-09
-2.85549e-08
-3.68631e-09
-9.67654e-09
-3.34846e-08
-4.51043e-09
-1.28435e-08
-3.67761e-08
-5.31664e-09
-1.57153e-08
-3.88389e-08
-6.19923e-09
-1.80261e-08
-3.99461e-08
-7.20624e-09
-1.95301e-08
-4.03088e-08
-8.35157e-09
-2.00203e-08
-4.01075e-08
-9.61829e-09
-1.9352e-08
-3.95042e-08
-1.09641e-08
-1.74448e-08
-3.86683e-08
-1.2331e-08
-1.4323e-08
-3.77529e-08
-1.36468e-08
-1.02174e-08
-3.68433e-08
-1.4727e-08
-5.33045e-09
-3.61272e-08
-1.54643e-08
-4.24949e-11
-3.5662e-08
-1.57951e-08
5.22087e-09
-3.56124e-08
-1.57741e-08
1.00889e-08
-3.60692e-08
-1.54549e-08
1.42592e-08
-3.68913e-08
-1.478e-08
1.74132e-08
-3.77696e-08
-1.36786e-08
1.93296e-08
-3.86765e-08
-1.23488e-08
2.00091e-08
-3.95177e-08
-1.09812e-08
1.95275e-08
-4.0126e-08
-9.6338e-09
1.80309e-08
-4.03334e-08
-8.36515e-09
1.57251e-08
-3.99745e-08
-7.21852e-09
1.28559e-08
-3.88709e-08
-6.21075e-09
9.68902e-09
-3.68124e-08
-5.32741e-09
6.49915e-09
-3.35263e-08
-4.5258e-09
3.56214e-09
-2.86138e-08
-3.72397e-09
1.21024e-09
-2.13604e-08
-2.74775e-09
-1.01282e-08
-1.25988e-09
-1.21096e-09
-7.69711e-09
-1.22859e-09
-3.51006e-09
-1.63346e-08
-2.62818e-09
-6.38864e-09
-2.20647e-08
-3.61086e-09
-9.53737e-09
-2.59275e-08
-4.40793e-09
-1.26757e-08
-2.84612e-08
-5.17646e-09
-1.55249e-08
-2.99807e-08
-6.00894e-09
-1.78137e-08
-3.07063e-08
-6.95109e-09
-1.92962e-08
-3.08112e-08
-8.01511e-09
-1.97693e-08
-3.04468e-08
-9.18732e-09
-1.90873e-08
-2.97592e-08
-1.0427e-08
-1.71822e-08
-2.88912e-08
-1.16826e-08
-1.41124e-08
-2.79645e-08
-1.2859e-08
-1.00731e-08
-2.70869e-08
-1.37966e-08
-5.28117e-09
-2.64334e-08
-1.44862e-08
-4.82789e-11
-2.60704e-08
-1.48244e-08
5.15345e-09
-2.60158e-08
-1.47978e-08
9.95211e-09
-2.63886e-08
-1.44787e-08
1.40461e-08
-2.71283e-08
-1.38569e-08
1.71504e-08
-2.79829e-08
-1.28914e-08
1.90629e-08
-2.88951e-08
-1.16945e-08
1.97526e-08
-2.97669e-08
-1.04411e-08
1.92903e-08
-3.04609e-08
-9.20318e-09
1.7815e-08
-3.08283e-08
-8.03001e-09
1.55309e-08
-3.07273e-08
-6.96326e-09
1.26853e-08
-3.00053e-08
-6.01999e-09
9.54881e-09
-2.84889e-08
-5.18715e-09
6.39722e-09
-2.59561e-08
-4.41847e-09
3.51076e-09
-2.21e-08
-3.6271e-09
1.19757e-09
-1.63861e-08
-2.66059e-09
-7.69925e-09
-1.23097e-09
-1.1434e-09
-5.40264e-09
-1.15024e-09
-3.3166e-09
-1.16965e-08
-2.46392e-09
-6.0545e-09
-1.59403e-08
-3.38573e-09
-9.06985e-09
-1.87874e-08
-4.12417e-09
-1.20925e-08
-2.06105e-08
-4.82778e-09
-1.48483e-08
-2.16411e-08
-5.58392e-09
-1.70663e-08
-2.20493e-08
-6.4391e-09
-1.85051e-08
-2.19709e-08
-7.40148e-09
-1.89638e-08
-2.15301e-08
-8.4579e-09
-1.83027e-08
-2.08438e-08
-9.57676e-09
-1.64562e-08
-2.00237e-08
-1.07146e-08
-1.35192e-08
-1.917e-08
-1.17327e-08
-9.64156e-09
-1.8407e-08
-1.25586e-08
-5.04938e-09
-1.78443e-08
-1.31819e-08
-4.22699e-11
-1.75551e-08
-1.35223e-08
4.93782e-09
-1.75108e-08
-1.34846e-08
9.53929e-09
-1.78156e-08
-1.3174e-08
1.34584e-08
-1.84321e-08
-1.26152e-08
1.64253e-08
-1.91847e-08
-1.17656e-08
1.82769e-08
-2.00293e-08
-1.07181e-08
1.89459e-08
-2.08483e-08
-9.58826e-09
1.84963e-08
-2.15384e-08
-8.47319e-09
1.70658e-08
-2.19823e-08
-7.41573e-09
1.48527e-08
-2.20633e-08
-6.45125e-09
1.21005e-08
-2.16583e-08
-5.59496e-09
9.07722e-09
-2.06288e-08
-4.83687e-09
6.06089e-09
-1.88068e-08
-4.13285e-09
3.32106e-09
-1.59645e-08
-3.39528e-09
1.14118e-09
-1.17275e-08
-2.47826e-09
-5.40614e-09
-1.15152e-09
-1.0191e-09
-3.36194e-09
-1.02067e-09
-2.97769e-09
-7.54341e-09
-2.19346e-09
-5.48529e-09
-1.04273e-08
-3.00434e-09
-8.27981e-09
-1.23487e-08
-3.64346e-09
-1.11094e-08
-1.35296e-08
-4.25105e-09
-1.37102e-08
-1.41345e-08
-4.90577e-09
-1.58162e-08
-1.42916e-08
-5.65175e-09
-1.71918e-08
-1.41007e-08
-6.49467e-09
-1.76444e-08
-1.3654e-08
-7.4236e-09
-1.70394e-08
-1.30384e-08
-8.41066e-09
-1.53245e-08
-1.23341e-08
-9.40525e-09
-1.25918e-08
-1.16317e-08
-1.02722e-08
-8.97407e-09
-1.10177e-08
-1.10084e-08
-4.69232e-09
-1.05658e-08
-1.1561e-08
-3.61462e-11
-1.03341e-08
-1.18771e-08
4.59796e-09
-1.03081e-08
-1.18363e-08
8.88137e-09
-1.05491e-08
-1.15494e-08
1.25245e-08
-1.10256e-08
-1.10497e-08
1.52857e-08
-1.16375e-08
-1.0309e-08
1.70134e-08
-1.2338e-08
-9.41984e-09
1.7626e-08
-1.3041e-08
-8.4206e-09
1.71822e-08
-1.36584e-08
-7.43674e-09
1.58139e-08
-1.4107e-08
-6.50727e-09
1.37124e-08
-1.43e-08
-5.66194e-09
1.11145e-08
-1.41444e-08
-4.91608e-09
8.28525e-09
-1.35408e-08
-4.25883e-09
5.49173e-09
-1.2363e-08
-3.65012e-09
2.9857e-09
-1.04494e-08
-3.0088e-09
1.02188e-09
-7.56664e-09
-2.19646e-09
-3.36433e-09
-1.0195e-09
-8.33181e-10
-1.69561e-09
-8.32115e-10
-2.48892e-09
-4.09624e-09
-1.79025e-09
-4.6718e-09
-5.80996e-09