/*--------------------------------*- C++ -*----------------------------------*\
| =========                 |                                                 |
| \\      /  F ield         | OpenFOAM: The Open Source CFD Toolbox           |
|  \\    /   O peration     | Version:  v1906                                 |
|   \\  /    A nd           | Web:      www.OpenFOAM.com                      |
|    \\/     M anipulation  |                                                 |
\*---------------------------------------------------------------------------*/
FoamFile
{
    version     2.0;
    format      ascii;
    class       surfaceScalarField;
    location    "62";
    object      phi;
}
// * * * * * * * * * * * * * * * * * * * * * * * * * * * * * * * * * * * * * //

dimensions      [1 0 -1 0 0 0 0];
oriented        oriented;


internalField   nonuniform List<scalar> 
228225
(
-2.30662e-09
1.72133e-09
3.09632e-10
-7.24738e-09
7.92267e-09
-2.98348e-09
-1.53705e-08
1.19238e-08
-3.79976e-09
-2.66478e-08
1.53694e-08
-4.09113e-09
-4.06393e-08
1.83185e-08
-4.32754e-09
-5.67388e-08
2.07296e-08
-4.63209e-09
-7.43367e-08
2.26198e-08
-5.01808e-09
-9.28321e-08
2.39843e-08
-5.49198e-09
-1.11671e-07
2.48721e-08
-6.03198e-09
-1.30331e-07
2.52977e-08
-6.63539e-09
-1.48377e-07
2.5323e-08
-7.28234e-09
-1.65365e-07
2.4964e-08
-7.97242e-09
-1.80962e-07
2.42858e-08
-8.68904e-09
-1.94841e-07
2.33122e-08
-9.43271e-09
-2.06754e-07
2.21001e-08
-1.01881e-08
-2.16472e-07
2.0674e-08
-1.09561e-08
-2.2384e-07
1.90827e-08
-1.1714e-08
-2.28707e-07
1.7337e-08
-1.24685e-08
-2.30993e-07
1.54859e-08
-1.32016e-08
-2.30641e-07
1.35486e-08
-1.39012e-08
-2.27646e-07
1.15635e-08
-1.45585e-08
-2.22024e-07
9.54654e-09
-1.51672e-08
-2.13846e-07
7.52914e-09
-1.57102e-08
-2.03188e-07
5.5251e-09
-1.61802e-08
-1.90185e-07
3.56211e-09
-1.65638e-08
-1.74987e-07
1.65574e-09
-1.68548e-08
-1.57787e-07
-1.56011e-10
-1.70424e-08
-1.38784e-07
-1.8833e-09
-1.71227e-08
-1.18236e-07
-3.4589e-09
-1.70865e-08
-9.64534e-08
-4.85716e-09
-1.6926e-08
-7.38167e-08
-6.02277e-09
-1.66126e-08
-5.08729e-08
-6.88009e-09
-1.60646e-08
-2.85825e-08
-7.27904e-09
-1.50123e-08
-9.01545e-09
-6.97523e-09
-1.25909e-08
-4.54393e-09
-4.47201e-09
-6.39645e-09
2.26565e-08
-1.45398e-08
-2.32393e-08
4.08734e-08
-1.61062e-08
-4.37601e-08
4.93495e-08
-1.69053e-08
-6.61449e-08
5.55513e-08
-1.77987e-08
-8.90683e-08
5.98445e-08
-1.86014e-08
-1.11625e-07
6.2583e-08
-1.92969e-08
-1.33112e-07
6.40381e-08
-1.99326e-08
-1.53047e-07
6.44432e-08
-2.0523e-08
-1.71071e-07
6.3977e-08
-2.10831e-08
-1.86953e-07
6.27931e-08
-2.16105e-08
-2.00536e-07
6.10172e-08
-2.21133e-08
-2.11736e-07
5.87519e-08
-2.2587e-08
-2.20504e-07
5.6091e-08
-2.30368e-08
-2.26855e-07
5.31172e-08
-2.34561e-08
-2.30805e-07
4.99007e-08
-2.3849e-08
-2.32432e-07
4.65082e-08
-2.42086e-08
-2.31805e-07
4.29939e-08
-2.4538e-08
-2.29038e-07
3.94024e-08
-2.48326e-08
-2.24233e-07
3.57769e-08
-2.50949e-08
-2.17533e-07
3.21667e-08
-2.53185e-08
-2.09074e-07
2.8607e-08
-2.55042e-08
-1.99008e-07
2.51299e-08
-2.56463e-08
-1.87496e-07
2.17617e-08
-2.57464e-08
-1.74699e-07
1.85265e-08
-2.57995e-08
-1.60776e-07
1.5444e-08
-2.58032e-08
-1.45904e-07
1.25322e-08
-2.57498e-08
-1.30232e-07
9.80685e-09
-2.56344e-08
-1.13955e-07
7.28244e-09
-2.5444e-08
-9.72224e-08
4.97317e-09
-2.51639e-08
-8.02066e-08
2.89502e-09
-2.47675e-08
-6.30717e-08
1.06797e-09
-2.42257e-08
-4.59903e-08
-4.72245e-10
-2.34895e-08
-2.92045e-08
-1.66067e-09
-2.2405e-08
-1.33391e-08
-2.30575e-09
-2.05337e-08
-1.57572e-09
-1.63072e-08
-4.15231e-09
3.60306e-08
-9.22109e-09
-1.25266e-08
6.02799e-08
-1.10334e-08
-2.22263e-08
7.08898e-08
-1.18385e-08
-3.24672e-08
7.82864e-08
-1.24966e-08
-4.2713e-08
8.31547e-08
-1.30638e-08
-5.25952e-08
8.60585e-08
-1.3595e-08
-6.18518e-08
8.74003e-08
-1.41046e-08
-7.02983e-08
8.75061e-08
-1.46155e-08
-7.78156e-08
8.6618e-08
-1.51248e-08
-8.43166e-08
8.49368e-08
-1.56426e-08
-8.97587e-08
8.26168e-08
-1.61582e-08
-9.41186e-08
7.97893e-08
-1.66765e-08
-9.74039e-08
7.65605e-08
-1.71849e-08
-9.96232e-08
7.30233e-08
-1.76857e-08
-1.00812e-07
6.92554e-08
-1.81669e-08
-1.01001e-07
6.53259e-08
-1.86295e-08
-1.00236e-07
6.12933e-08
-1.90641e-08
-9.85824e-08
5.72219e-08
-1.94723e-08
-9.61186e-08
5.31573e-08
-1.98452e-08
-9.29145e-08
4.91443e-08
-2.01819e-08
-8.90484e-08
4.52164e-08
-2.04751e-08
-8.45937e-08
4.14021e-08
-2.07263e-08
-7.96314e-08
3.77263e-08
-2.09292e-08
-7.42275e-08
3.42092e-08
-2.10851e-08
-6.84556e-08
3.08595e-08
-2.1188e-08
-6.23734e-08
2.76878e-08
-2.12376e-08
-5.60411e-08
2.47007e-08
-2.12265e-08
-4.95086e-08
2.18994e-08
-2.11496e-08
-4.28218e-08
1.92798e-08
-2.09933e-08
-3.60169e-08
1.6832e-08
-2.0742e-08
-2.91215e-08
1.45397e-08
-2.03677e-08
-2.2149e-08
1.23793e-08
-1.98229e-08
-1.51201e-08
1.03088e-08
-1.89988e-08
-8.04036e-09
8.26431e-09
-1.76495e-08
4.86819e-09
-1.44846e-08
-3.86495e-09
4.05418e-08
-6.47647e-10
-7.29269e-09
6.58696e-08
-2.16086e-09
-1.03827e-08
7.70856e-08
-3.10559e-09
-1.33292e-08
8.499e-08
-3.75746e-09
-1.62034e-08
9.03284e-08
-4.29895e-09
-1.89756e-08
9.36594e-08
-4.82975e-09
-2.15895e-08
9.54078e-08
-5.39344e-09
-2.39956e-08
9.58995e-08
-5.98712e-09
-2.61495e-08
9.53941e-08
-6.62207e-09
-2.80229e-08
9.40928e-08
-7.28336e-09
-2.95903e-08
9.21608e-08
-7.97543e-09
-3.08442e-08
8.97265e-08
-8.68411e-09
-3.17758e-08
8.69016e-08
-9.40985e-09
-3.23887e-08
8.37735e-08
-1.01367e-08
-3.26947e-08
8.04237e-08
-1.08637e-08
-3.27056e-08
7.69138e-08
-1.15764e-08
-3.24456e-08
7.33057e-08
-1.22728e-08
-3.19448e-08
6.96581e-08
-1.29366e-08
-3.12388e-08
6.60184e-08
-1.35671e-08
-3.03591e-08
6.24192e-08
-1.41538e-08
-2.93397e-08
5.88915e-08
-1.46966e-08
-2.8208e-08
5.54582e-08
-1.51863e-08
-2.6998e-08
5.21388e-08
-1.56231e-08
-2.57348e-08
4.89454e-08
-1.59995e-08
-2.4436e-08
4.58777e-08
-1.63171e-08
-2.31143e-08
4.29348e-08
-1.65697e-08
-2.17645e-08
4.01074e-08
-1.67564e-08
-2.03704e-08
3.73763e-08
-1.68704e-08
-1.88905e-08
3.47079e-08
-1.69081e-08
-1.72569e-08
3.20551e-08
-1.68572e-08
-1.53556e-08
2.93417e-08
-1.67032e-08
-1.30198e-08
2.64732e-08
-1.64306e-08
-9.96847e-09
2.33042e-08
-1.60456e-08
-5.90805e-09
1.96687e-08
-1.5466e-08
1.25194e-08
-1.35582e-08
-4.82353e-09
4.08374e-08
4.52726e-09
-6.30605e-09
6.39845e-08
3.3671e-09
-6.12064e-09
7.44366e-08
2.46476e-09
-5.01439e-09
8.20146e-08
1.86846e-09
-3.41435e-09
8.73338e-08
1.39514e-09
-1.54458e-09
9.08833e-08
9.0572e-10
4.50952e-10
9.30353e-08
3.77035e-10
2.47102e-09
9.40829e-08
-2.02452e-10
4.42643e-09
9.42492e-08
-8.12607e-10
6.27864e-09
9.37158e-08
-1.47348e-09
7.98724e-09
9.26208e-08
-2.16877e-09
9.52626e-09
9.10835e-08
-2.89766e-09
1.08766e-08
8.91952e-08
-3.64473e-09
1.20225e-08
8.70381e-08
-4.40809e-09
1.29393e-08
8.46757e-08
-5.17028e-09
1.36146e-08
8.21676e-08
-5.92904e-09
1.40317e-08
7.95592e-08
-6.66999e-09
1.41845e-08
7.68953e-08
-7.39075e-09
1.40724e-08
7.42094e-08
-8.07873e-09
1.36927e-08
7.15314e-08
-8.73238e-09
1.30425e-08
6.88827e-08
-9.34158e-09
1.21249e-08
6.62812e-08
-9.9056e-09
1.09437e-08
6.37358e-08
-1.04165e-08
9.51436e-09
6.12494e-08
-1.08743e-08
7.84988e-09
5.88158e-08
-1.12731e-08
5.97835e-09
5.642e-08
-1.16135e-08
3.94188e-09
5.40347e-08
-1.18909e-08
1.80746e-09
5.16175e-08
-1.21062e-08
-3.36321e-10
4.91059e-08
-1.2255e-08
-2.35823e-09
4.64121e-08
-1.23345e-08
-4.08796e-09
4.34063e-08
-1.23364e-08
-5.26306e-09
3.99212e-08
-1.22715e-08
-5.47399e-09
3.57199e-08
-1.22056e-08
-4.15443e-09
3.04957e-08
-1.21468e-08
1.95203e-08
-1.11548e-08
-3.61204e-09
3.85461e-08
5.90343e-09
-3.9538e-09
5.9347e-08
4.97933e-09
-2.57543e-09
6.88826e-08
4.17545e-09
-1.94987e-10
7.59613e-08
3.67195e-09
2.73121e-09
8.11339e-08
3.27382e-09
5.94e-09
8.48088e-08
2.86566e-09
9.24913e-09
8.73155e-08
2.4111e-09
1.25205e-08
8.8894e-08
1.91717e-09
1.56509e-08
8.97384e-08
1.38041e-09
1.85644e-08
8.99914e-08
8.10964e-10
2.12045e-08
8.97761e-08
2.04699e-10
2.35267e-08
8.9184e-08
-4.21585e-10
2.54924e-08
8.82959e-08
-1.0675e-09
2.70794e-08
8.71731e-08
-1.72291e-09
2.8271e-08
8.58707e-08
-2.38628e-09
2.90536e-08
8.44297e-08
-3.04455e-09
2.94191e-08
8.28887e-08
-3.69488e-09
2.93656e-08
8.12756e-08
-4.32606e-09
2.88928e-08
7.96162e-08
-4.93602e-09
2.80119e-08
7.79283e-08
-5.5153e-09
2.67319e-08
7.62264e-08
-6.06251e-09
2.50643e-08
7.45177e-08
-6.57002e-09
2.30349e-08
7.2803e-08
-7.03746e-09
2.06686e-08
7.10744e-08
-7.45915e-09
1.8003e-08
6.93153e-08
-7.83546e-09
1.50904e-08
6.74971e-08
-8.16242e-09
1.19889e-08
6.55759e-08
-8.44125e-09
8.78674e-09
6.34898e-08
-8.66976e-09
5.59218e-09
6.11495e-08
-8.84967e-09
2.54635e-09
5.84345e-08
-8.97732e-09
-1.71253e-10
5.51754e-08
-9.0507e-09
-2.31244e-09
5.11479e-08
-9.08516e-09
-3.46422e-09
4.60381e-08
-9.16624e-09
-3.08869e-09
3.945e-08
-9.33172e-09
2.5263e-08
-8.82992e-09
-1.9277e-09
3.5568e-08
4.90468e-09
-1.53603e-09
5.48545e-08
4.10142e-09
1.28529e-10
6.37929e-08
3.4253e-09
2.52447e-09
7.05563e-08
3.00988e-09
5.31473e-09
7.56459e-08
2.69699e-09
8.30581e-09
7.94391e-08
2.3792e-09
1.13595e-08
8.22246e-08
2.03694e-09
1.43681e-08
8.42217e-08
1.66499e-09
1.7239e-08
8.55962e-08
1.2696e-09
1.99061e-08
8.64789e-08
8.47362e-10
2.23087e-08
8.69678e-08
4.04913e-10
2.44082e-08
8.7144e-08
-5.94411e-11
2.61652e-08
8.70679e-08
-5.28442e-10
2.75567e-08
8.67918e-08
-1.0098e-09
2.85653e-08
8.63536e-08
-1.49169e-09
2.91813e-08
8.5788e-08
-1.97311e-09
2.93936e-08
8.51197e-08
-2.44519e-09
2.9205e-08
8.43703e-08
-2.90655e-09
2.86191e-08
8.3554e-08
-3.34963e-09
2.76371e-08
8.26816e-08
-3.77358e-09
2.62798e-08
8.17572e-08
-4.17208e-09
2.45612e-08
8.07802e-08
-4.54492e-09
2.25089e-08
7.97423e-08
-4.8871e-09
2.01567e-08
7.86273e-08
-5.1991e-09
1.75385e-08
7.74087e-08
-5.47722e-09
1.47131e-08
7.60466e-08
-5.72265e-09
1.17371e-08
7.44845e-08
-5.93306e-09
8.69359e-09
7.26432e-08
-6.11058e-09
5.68313e-09
7.04143e-08
-6.25388e-09
2.83321e-09
6.765e-08
-6.36371e-09
2.9476e-10
6.41486e-08
-6.43642e-09
-1.708e-09
5.96411e-08
-6.48946e-09
-2.83283e-09
5.37583e-08
-6.59517e-09
-2.61018e-09
4.6018e-08
-6.79196e-09
2.91498e-08
-6.49634e-09
-7.71243e-10
3.30006e-08
3.33884e-09
-3.59282e-10
5.17455e-08
2.69669e-09
7.71132e-10
6.04731e-08
2.18821e-09
2.30771e-09
6.71382e-08
1.88353e-09
4.05886e-09
7.224e-08
1.65364e-09
5.92423e-09
7.61435e-08
1.42955e-09
7.83065e-09
7.91292e-08
1.18987e-09
9.71227e-09
8.14025e-08
9.37386e-10
1.15167e-08
8.31231e-08
6.6917e-10
1.31976e-08
8.44084e-08
3.88895e-10
1.47205e-08
8.53514e-08
9.31117e-11
1.60509e-08
8.60202e-08
-2.07165e-10
1.71642e-08
8.64703e-08
-5.13515e-10
1.80369e-08
8.67422e-08
-8.23714e-10
1.86546e-08
8.68701e-08
-1.13553e-09
1.90086e-08
8.68779e-08
-1.44285e-09
1.90866e-08
8.67851e-08
-1.74524e-09
1.8892e-08
8.66039e-08
-2.03705e-09
1.84207e-08
8.63436e-08
-2.31831e-09
1.76789e-08
8.6007e-08
-2.58415e-09
1.66789e-08
8.55929e-08
-2.83508e-09
1.54321e-08
8.50933e-08
-3.0671e-09
1.39616e-08
8.44938e-08
-3.2812e-09
1.2292e-08
8.37715e-08
-3.47426e-09
1.0456e-08
8.28923e-08
-3.64776e-09
8.49353e-09
8.18085e-08
-3.7994e-09
6.45526e-09
8.04537e-08
-3.93119e-09
4.40192e-09
7.8738e-08
-4.04176e-09
2.41108e-09
7.65382e-08
-4.1335e-09
5.75246e-10
7.36903e-08
-4.20414e-09
-9.92264e-10
6.997e-08
-4.25408e-09
-2.13922e-09
6.50813e-08
-4.29277e-09
-2.62382e-09
5.86177e-08
-4.37397e-09
-2.1397e-09
5.00481e-08
-4.51578e-09
3.13114e-08
-4.30073e-09
-4.90174e-10
3.11307e-08
2.35978e-09
-4.77966e-10
4.97755e-08
1.95801e-09
-1.16412e-10
5.8461e-08
1.65036e-09
4.40385e-10
6.51167e-08
1.46585e-09
1.1108e-09
7.02433e-08
1.32535e-09
1.85758e-09
7.42128e-08
1.1844e-09
2.64878e-09
7.73002e-08
1.03634e-09
3.45966e-09
7.97137e-08
8.78584e-10
4.26197e-09
8.16067e-08
7.14776e-10
5.02942e-09
8.30969e-08
5.428e-10
5.74566e-09
8.42708e-08
3.66424e-10
6.38594e-09
8.51953e-08
1.83819e-10
6.93557e-09
8.59195e-08
9.99783e-13
7.37771e-09
8.64815e-08
-1.81668e-10
7.69878e-09
8.69083e-08
-3.59959e-10
7.89394e-09
8.72214e-08
-5.37443e-10
7.95373e-09
8.74343e-08
-7.08678e-10
7.87232e-09
8.75585e-08
-8.74037e-10
7.65051e-09
8.75967e-08
-1.02951e-09
7.28566e-09
8.75485e-08
-1.1765e-09
6.78167e-09
8.74074e-08
-1.31177e-09
6.14928e-09
8.71619e-08
-1.43701e-09
5.40001e-09
8.67929e-08
-1.54961e-09
4.54983e-09
8.62732e-08
-1.65166e-09
3.62014e-09
8.55641e-08
-1.74109e-09
2.63557e-09
8.46132e-08
-1.82034e-09
1.62829e-09
8.33488e-08
-1.88788e-09
6.38257e-10
8.16752e-08
-1.94657e-09
-2.90952e-10
7.94624e-08
-1.99529e-09
-1.1026e-09
7.65383e-08
-2.03625e-09
-1.73469e-09
7.26691e-08
-2.06728e-09
-2.10149e-09
6.75461e-08
-2.09805e-09
-2.07163e-09
6.07479e-08
-2.15961e-09
-1.47817e-09
5.17173e-08
-2.26084e-09
3.19767e-08
-2.1447e-09
-7.72528e-10
2.97984e-08
2.10616e-09
-1.30337e-09
4.83125e-08
1.99202e-09
-1.64997e-09
5.69309e-08
1.87689e-09
-1.88183e-09
6.35368e-08
1.81181e-09
-2.02351e-09
6.86321e-08
1.75201e-09
-2.08433e-09
7.25884e-08
1.68486e-09
-2.07085e-09
7.5682e-08
1.60645e-09
-1.99809e-09
7.81188e-08
1.52116e-09
-1.87178e-09
8.00533e-08
1.42856e-09
-1.70879e-09
8.16002e-08
1.33242e-09
-1.5155e-09
8.28464e-08
1.23186e-09
-1.30717e-09
8.38554e-08
1.13071e-09
-1.09136e-09
8.46765e-08
1.0281e-09
-8.80709e-10
8.53443e-08
9.27693e-10
-6.88293e-10
8.58851e-08
8.29288e-10
-5.18582e-10
8.63165e-08
7.36523e-10
-3.8425e-10
8.66512e-08
6.48244e-10
-2.88038e-10
8.68956e-08
5.66392e-10
-2.32183e-10
8.70522e-08
4.89395e-10
-2.22542e-10
8.71173e-08
4.202e-10
-2.54414e-10
8.70834e-08
3.56681e-10
-3.27529e-10
8.69359e-08
3.01151e-10
-4.416e-10
8.66546e-08
2.51075e-10
-5.87011e-10
8.62094e-08
2.08258e-10
-7.5265e-10
8.55608e-08
1.69813e-10
-9.30317e-10
8.4654e-08
1.37097e-10
-1.10493e-09
8.34167e-08
1.068e-10
-1.2628e-09
8.17514e-08
8.01816e-11
-1.38159e-09
7.95285e-08
5.36019e-11
-1.44452e-09
7.6575e-08
2.75269e-11
-1.43189e-09
7.26588e-08
-1.69913e-12
-1.32109e-09
6.74719e-08
-3.85075e-11
-1.06325e-09
6.05974e-08
-1.06849e-10
-6.2055e-10
5.14809e-08
-2.06091e-10
3.15982e-08
-2.41951e-10
-1.16219e-09
2.87396e-08
2.22161e-09
-2.10795e-09
4.68966e-08
2.36034e-09
-2.91451e-09
5.53403e-08
2.39894e-09
-3.61224e-09
6.18088e-08
2.42524e-09
-4.205e-09
6.67939e-08
2.42999e-09
-4.69254e-09
7.06623e-08
2.41486e-09
-5.08224e-09
7.36848e-08
2.38651e-09
-5.37681e-09
7.60659e-08
2.34674e-09
-5.5794e-09
7.79563e-08
2.30073e-09
-5.69953e-09
7.94706e-08
2.24869e-09
-5.7412e-09
8.06925e-08
2.19474e-09
-5.70906e-09
8.16866e-08
2.13843e-09
-5.61631e-09
8.24987e-08
2.08342e-09
-5.46523e-09
8.31649e-08
2.02888e-09
-5.26676e-09
8.37093e-08
1.97809e-09
-5.03196e-09
8.41503e-08
1.92974e-09
-4.76577e-09
8.44985e-08
1.88655e-09
-4.47562e-09
8.47592e-08
1.84763e-09
-4.17076e-09
8.49323e-08
1.81524e-09
-3.85743e-09
8.50151e-08
1.78715e-09
-3.53593e-09
8.49977e-08
1.76533e-09
-3.21471e-09
8.48664e-08
1.74713e-09
-2.89276e-09
8.45989e-08
1.73407e-09
-2.57354e-09
8.41665e-08
1.72312e-09
-2.25577e-09
8.35282e-08
1.71539e-09
-1.9415e-09
8.26312e-08
1.70745e-09
-1.62686e-09
8.14034e-08
1.69997e-09
-1.31649e-09
7.97509e-08
1.68897e-09
-1.00754e-09
7.75466e-08
1.67441e-09
-7.09426e-10
7.46243e-08
1.65161e-09
-4.29651e-10
7.07591e-08
1.61946e-09
-1.79589e-10
6.56545e-08
1.56875e-09
2.30929e-11
5.89097e-08
1.48413e-09
1.54428e-10
4.99912e-08
1.35678e-09
3.059e-08
1.16383e-09
-1.34622e-09
2.78695e-08
2.21702e-09
-2.46486e-09
4.55065e-08
2.50881e-09
-3.46338e-09
5.37033e-08
2.63311e-09
-4.34153e-09
5.99774e-08
2.71154e-09
-5.10461e-09
6.48063e-08
2.75001e-09
-5.75131e-09
6.85441e-08
2.76437e-09
-6.28216e-09
7.14565e-08
2.76053e-09
-6.70232e-09
7.3741e-08
2.74532e-09
-7.01423e-09
7.55466e-08
2.72067e-09
-7.21765e-09
7.69838e-08
2.69136e-09
-7.32012e-09
7.81366e-08
2.65792e-09
-7.32414e-09
7.90665e-08
2.62418e-09
-7.2371e-09
7.9821e-08
2.58992e-09
-7.06244e-09
8.04335e-08
2.55846e-09
-6.81322e-09
8.09296e-08
2.52905e-09
-6.49355e-09
8.13259e-08
2.50453e-09
-6.1119e-09
8.16343e-08
2.48366e-09
-5.68136e-09
8.18595e-08
2.4688e-09
-5.21062e-09
8.2003e-08
2.45812e-09
-4.70821e-09
8.20597e-08
2.45348e-09
-4.1854e-09
8.20216e-08
2.45252e-09
-3.6461e-09
8.18728e-08
2.45654e-09
-3.10524e-09
8.15933e-08
2.46268e-09
-2.56142e-09
8.11526e-08
2.47179e-09
-2.02778e-09
8.05127e-08
2.48055e-09
-1.50531e-09
7.96206e-08
2.48935e-09
-1.00607e-09
7.84085e-08
2.49438e-09
-5.33086e-10
7.67844e-08
2.49536e-09
-1.04685e-10
7.46287e-08
2.48766e-09
2.70275e-10
7.17807e-08
2.46988e-09
5.64962e-10
6.80287e-08
2.43575e-09
7.51108e-10
6.30885e-08
2.37961e-09
7.94278e-10
5.6583e-08
2.28368e-09
6.42815e-10
4.8005e-08
2.13852e-09
2.93892e-08
1.84339e-09
-1.19105e-09
2.72356e-08
1.82424e-09
-2.22549e-09
4.44057e-08
2.1357e-09
-3.17739e-09
5.23796e-08
2.27721e-09
-4.04077e-09
5.84765e-08
2.36088e-09
-4.79356e-09
6.31588e-08
2.40376e-09
-5.44379e-09
6.6772e-08
2.42071e-09
-5.98239e-09
6.95737e-08
2.42142e-09
-6.40805e-09
7.17587e-08
2.40921e-09
-6.72204e-09
7.34713e-08
2.38937e-09
-6.92568e-09
7.4822e-08
2.3634e-09
-7.01453e-09
7.58922e-08
2.33538e-09
-6.99931e-09
7.67447e-08
2.30582e-09
-6.88024e-09
7.7425e-08
2.27812e-09
-6.66968e-09
7.79688e-08
2.25219e-09
-6.3692e-09
7.84001e-08
2.23093e-09
-5.99631e-09
7.87377e-08
2.2137e-09
-5.55389e-09
7.8992e-08
2.20284e-09
-5.06449e-09
7.917e-08
2.19713e-09
-4.5303e-09
7.92714e-08
2.19833e-09
-3.96852e-09
7.92936e-08
2.20458e-09
-3.39001e-09
7.92264e-08
2.21705e-09
-2.80582e-09
7.90563e-08
2.23328e-09
-2.22958e-09
7.87613e-08
2.25387e-09
-1.66609e-09
7.8314e-08
2.27585e-09
-1.12775e-09
7.76747e-08
2.29933e-09
-6.21426e-10
7.67941e-08
2.32087e-09
-1.57309e-10
7.56043e-08
2.34009e-09
2.55779e-10
7.40186e-08
2.35296e-09
6.06515e-10
7.19199e-08
2.3583e-09
8.79692e-10
6.91563e-08
2.35109e-09
1.05699e-09
6.55233e-08
2.32854e-09
1.11092e-09
6.07514e-08
2.28207e-09
1.01674e-09
5.44799e-08
2.19971e-09
7.23623e-10
4.62273e-08
2.06672e-09
2.83432e-08
1.77214e-09
-7.7206e-10
2.69792e-08
1.02792e-09
-1.55052e-09
4.39376e-08
1.24644e-09
-2.32433e-09
5.18068e-08
1.34704e-09
-3.06256e-09
5.78126e-08
1.40113e-09
-3.73735e-09
6.24129e-08
1.4215e-09
-4.33579e-09
6.59471e-08
1.42269e-09
-4.84473e-09
6.86728e-08
1.4097e-09
-5.25435e-09
7.07813e-08
1.38753e-09
-5.55986e-09
7.24185e-08
1.35796e-09
-5.75507e-09
7.3693e-08
1.32496e-09
-5.8425e-09
7.46887e-08
1.28967e-09
-5.82048e-09
7.54674e-08
1.25545e-09
-5.69612e-09
7.60774e-08
1.22287e-09
-5.47539e-09
7.65533e-08
1.19485e-09
-5.16928e-09
7.69222e-08
1.17149e-09
-4.78812e-09
7.72018e-08
1.15517e-09
-4.34565e-09
7.74051e-08
1.14538e-09
-3.85799e-09
7.75377e-08
1.14389e-09
-3.33807e-09
7.7602e-08
1.1495e-09
-2.80071e-09
7.75931e-08
1.16332e-09
-2.2619e-09
7.75036e-08
1.18345e-09
-1.73354e-09
7.73175e-08
1.21032e-09
-1.22925e-09
7.70152e-08
1.24144e-09
-7.5758e-10
7.65667e-08
1.27667e-09
-3.31704e-10
7.59349e-08
1.31301e-09
4.54256e-11
7.50684e-08
1.34989e-09
3.61514e-10
7.39023e-08
1.38395e-09
6.17473e-10
7.23489e-08
1.41418e-09
8.04919e-10
7.02955e-08
1.43678e-09
9.18872e-10
6.75912e-08
1.45018e-09
9.54573e-10
6.40386e-08
1.44969e-09
8.99958e-10
5.93727e-08
1.43161e-09
7.51621e-10
5.32448e-08
1.3853e-09
4.90538e-10
4.5185e-08
1.30208e-09
2.77304e-08
1.10408e-09
-2.57334e-10
2.7202e-08
3.64623e-11
-7.21469e-10
4.43047e-08
9.4542e-11
-1.27007e-09
5.22312e-08
1.24681e-10
-1.85303e-09
5.82672e-08
1.28218e-10
-2.42685e-09
6.28738e-08
1.13388e-10
-2.96339e-09
6.63969e-08
8.66567e-11
-3.43729e-09
6.90954e-08
5.21135e-11
-3.83295e-09
7.11658e-08
1.07706e-11
-4.13647e-09
7.27551e-08
-3.40074e-11
-4.33687e-09
7.39764e-08
-8.14461e-11
-4.43499e-09
7.4914e-08
-1.28393e-10
-4.42651e-09
7.56339e-08
-1.73765e-10
-4.31973e-09
7.61845e-08
-2.1473e-10
-4.12002e-09
7.6604e-08
-2.50557e-10
-3.8363e-09
7.69192e-08
-2.78811e-10
-3.48923e-09
7.71509e-08
-2.99274e-10
-3.08194e-09
7.73113e-08
-3.10106e-10
-2.64257e-09
7.74087e-08
-3.11781e-10
-2.182e-09
7.74437e-08
-3.03177e-10
-1.71654e-09
7.74141e-08
-2.85521e-10
-1.26416e-09
7.73098e-08
-2.58452e-10
-8.40721e-10
7.7117e-08
-2.23915e-10
-4.56001e-10
7.68131e-08
-1.822e-10
-1.21579e-10
7.63697e-08
-1.35822e-10
1.51448e-10
7.57466e-08
-8.55644e-11
3.59943e-10
7.48935e-08
-3.42849e-11
5.03838e-10
7.37422e-08
1.69072e-11
5.81174e-10
7.22062e-08
6.52944e-11
5.9767e-10
7.01697e-08
1.09556e-10
5.5985e-10
6.74827e-08
1.46961e-10
4.76687e-10
6.39451e-08
1.76569e-10
3.59696e-10
5.92934e-08
1.95324e-10
2.28898e-10
5.31763e-08
2.00341e-10
1.00188e-10
4.51258e-08
1.87292e-10
2.76856e-08
1.45217e-10
1.89945e-10
2.79049e-08
-8.95026e-10
1.24594e-11
4.548e-08
-9.95236e-10
-3.34311e-10
5.3615e-08
-1.03782e-09
-7.77576e-10
5.97936e-08
-1.08389e-09
-1.26049e-09
6.44923e-08
-1.13469e-09
-1.74516e-09
6.80675e-08
-1.18836e-09
-2.19025e-09
7.07885e-08
-1.24546e-09
-2.57665e-09
7.28576e-08
-1.3049e-09
-2.88515e-09
7.44293e-08
-1.36637e-09
-3.10196e-09
7.56198e-08
-1.4276e-09
-3.21865e-09
7.65192e-08
-1.48753e-09
-3.23551e-09
7.71952e-08
-1.54361e-09
-3.15856e-09
7.77008e-08
-1.59465e-09
-2.99047e-09
7.80751e-08
-1.6382e-09
-2.74585e-09
7.83484e-08
-1.67338e-09
-2.43914e-09
7.85415e-08
-1.69822e-09
-2.08338e-09
7.86696e-08
-1.71246e-09
-1.70039e-09
7.87399e-08
-1.71484e-09
-1.30695e-09
7.87554e-08
-1.70587e-09
-9.1926e-10
7.87122e-08
-1.6851e-09
-5.58063e-10
7.86015e-08
-1.65388e-09
-2.33358e-10
7.84073e-08
-1.61252e-09
3.41997e-11
7.81075e-08
-1.56306e-09
2.41402e-10
7.76706e-08
-1.50642e-09
3.74933e-10
7.70563e-08
-1.44511e-09
4.40576e-10
7.62105e-08
-1.38033e-09
4.31109e-10
7.5064e-08
-1.31467e-09
3.6199e-10
7.35254e-08
-1.24919e-09
2.41918e-10
7.14768e-08
-1.18605e-09
8.85875e-11
6.87619e-08
-1.12551e-09
-7.40841e-11
6.51763e-08
-1.06854e-09
-2.1591e-10
6.04485e-08
-1.01384e-09
-2.97868e-10
5.42186e-08
-9.60478e-10
-2.73012e-10
4.60064e-08
-9.04116e-10
2.82026e-08
-7.90575e-10
4.70057e-10
2.89798e-08
-1.54405e-09
4.74035e-10
4.72394e-08
-1.76406e-09
2.68269e-10
5.56816e-08
-1.8611e-09
-7.23337e-11
6.20792e-08
-1.9454e-09
-4.8421e-10
6.69274e-08
-2.0232e-09
-9.18858e-10
7.06009e-08
-2.0984e-09
-1.33648e-09
7.33793e-08
-2.17266e-09
-1.70831e-09
7.54762e-08
-2.24721e-09
-2.00988e-09
7.70524e-08
-2.32133e-09
-2.2275e-09
7.82317e-08
-2.39436e-09
-2.35196e-09
7.91081e-08
-2.46429e-09
-2.38226e-09
7.97547e-08
-2.52976e-09
-2.31862e-09
8.02268e-08
-2.58844e-09
-2.17452e-09
8.05676e-08
-2.639e-09
-1.95442e-09
8.08083e-08
-2.67936e-09
-1.67521e-09
8.09729e-08
-2.70865e-09
-1.35851e-09
8.10764e-08
-2.72542e-09
-1.01851e-09
8.11285e-08
-2.7295e-09
-6.72493e-10
8.11311e-08
-2.72025e-09
-3.4479e-10
8.10814e-08
-2.69837e-09
-4.68221e-11
8.09692e-08
-2.66406e-09
2.00068e-10
8.07786e-08
-2.61883e-09
3.85272e-10
8.0485e-08
-2.56361e-09
4.99615e-10
8.00562e-08
-2.5005e-09
5.39312e-10
7.94484e-08
-2.43088e-09
5.00748e-10
7.86055e-08
-2.35708e-09
3.9181e-10
7.74536e-08
-2.28048e-09
2.2227e-10
7.58978e-08
-2.20304e-09
1.10295e-11
7.38135e-08
-2.12541e-09
-2.18196e-10
7.10387e-08
-2.04825e-09
-4.29237e-10
6.73589e-08
-1.97031e-09
-5.86571e-10
6.24928e-08
-1.88938e-09
-6.31041e-10
5.60644e-08
-1.79963e-09
-5.09109e-10
4.75761e-08
-1.69256e-09
2.91568e-08
-1.46302e-09
5.39407e-10
3.02604e-08
-1.82083e-09
6.09017e-10
4.92621e-08
-2.09237e-09
4.65278e-10
5.80404e-08
-2.21424e-09
1.79709e-10
6.468e-08
-2.31578e-09
-1.84616e-10
6.96982e-08
-2.40645e-09
-5.77985e-10
7.34859e-08
-2.49159e-09
-9.62013e-10
7.63367e-08
-2.57458e-09
-1.30095e-09
7.84736e-08
-2.65639e-09
-1.57826e-09
8.00663e-08
-2.73734e-09
-1.77456e-09
8.12445e-08
-2.81619e-09
-1.88301e-09
8.21082e-08
-2.89175e-09
-1.89936e-09
8.27341e-08
-2.96195e-09
-1.82933e-09
8.31818e-08
-3.02521e-09
-1.67859e-09
8.34965e-08
-3.07941e-09
-1.45951e-09
8.37129e-08
-3.12319e-09
-1.1875e-09
8.38554e-08
-3.15488e-09
-8.78635e-10
8.39416e-08
-3.17374e-09
-5.52994e-10
8.39808e-08
-3.17884e-09
-2.27382e-10
8.39765e-08
-3.17028e-09
7.772e-11
8.39247e-08
-3.14798e-09
3.43452e-10
8.38154e-08
-3.11292e-09
5.57702e-10
8.36311e-08
-3.06585e-09
7.05173e-10
8.33463e-08
-3.00847e-09
7.78434e-10
8.29261e-08
-2.94217e-09
7.70142e-10
8.23248e-08
-2.86908e-09
6.82483e-10
8.14824e-08
-2.79079e-09
5.25307e-10
8.03216e-08
-2.70937e-09
3.07592e-10
7.8742e-08
-2.62602e-09
4.90778e-11
7.66132e-08
-2.54192e-09
-2.18775e-10
7.37651e-08
-2.45675e-09
-4.6661e-10
6.99739e-08
-2.36952e-09
-6.41878e-10
6.49455e-08
-2.27651e-09
-6.93625e-10
5.82878e-08
-2.17104e-09
-5.58246e-10
4.94827e-08
-2.04215e-09
3.03623e-08
-1.76372e-09
4.47544e-10
3.15504e-08
-1.73883e-09
4.83648e-10
5.12224e-08
-1.99422e-09
3.28892e-10
6.03046e-08
-2.11056e-09
5.40948e-11
6.71646e-08
-2.20925e-09
-2.87805e-10
7.23376e-08
-2.298e-09
-6.50541e-10
7.62305e-08
-2.38229e-09
-9.96912e-10
7.91479e-08
-2.46481e-09
-1.29958e-09
8.13227e-08
-2.54677e-09
-1.53613e-09
8.29313e-08
-2.6279e-09
-1.6943e-09
8.411e-08
-2.70733e-09
-1.76611e-09
8.4963e-08
-2.78339e-09
-1.75041e-09
8.55719e-08
-2.85439e-09
-1.64632e-09
8.59987e-08
-2.91828e-09
-1.47013e-09
8.62918e-08
-2.97337e-09
-1.22736e-09
8.64876e-08
-3.01783e-09
-9.34331e-10
8.66128e-08
-3.05042e-09
-6.06551e-10
8.66854e-08
-3.06995e-09
-2.67267e-10
8.67161e-08
-3.07592e-09
7.05506e-11
8.6708e-08
-3.06796e-09
3.82855e-10
8.66577e-08
-3.04647e-09
6.57042e-10
8.65542e-08
-3.01192e-09
8.7317e-10
8.63792e-08
-2.96556e-09
1.02436e-09
8.61055e-08
-2.9086e-09
1.09488e-09
8.56966e-08
-2.8429e-09
1.0869e-09
8.51038e-08
-2.77015e-09
9.98321e-10
8.42647e-08
-2.69242e-09
8.34642e-10
8.30974e-08
-2.61137e-09
6.0637e-10
8.14974e-08
-2.52868e-09
3.3618e-10
7.93284e-08
-2.4452e-09
5.1347e-11
7.64133e-08
-2.36117e-09
-2.19165e-10
7.25189e-08
-2.27538e-09
-4.29951e-10
6.73405e-08
-2.18491e-09
-5.27867e-10
6.04705e-08
-2.0834e-09
-4.57855e-10
5.13731e-08
-1.96209e-09
3.16069e-08
-1.70151e-09
2.49353e-10
3.26934e-08
-1.39262e-09
1.81106e-10
5.28703e-08
-1.57953e-09
-2.88445e-11
6.21823e-08
-1.66743e-09
-3.24103e-10
6.92082e-08
-1.74747e-09
-6.60412e-10
7.44971e-08
-1.82328e-09
-9.99936e-10
7.84668e-08
-1.89791e-09
-1.30802e-09
8.14311e-08
-1.97308e-09
-1.56695e-09
8.36297e-08
-2.0491e-09
-1.75568e-09
8.52452e-08
-2.12549e-09
-1.86441e-09
8.64184e-08
-2.20087e-09
-1.88318e-09
8.72579e-08
-2.27363e-09
-1.81888e-09
8.78478e-08
-2.3418e-09
-1.67062e-09
8.82538e-08
-2.40347e-09
-1.44685e-09
8.85259e-08
-2.45674e-09
-1.16307e-09
8.87027e-08
-2.5e-09
-8.30544e-10
8.88121e-08
-2.53179e-09
-4.66965e-10
8.88734e-08
-2.55114e-09
-9.09871e-11
8.88976e-08
-2.55733e-09
2.77206e-10
8.88884e-08
-2.55023e-09
6.24464e-10
8.8842e-08
-2.52998e-09
9.28263e-10
8.8747e-08
-2.49729e-09
1.17632e-09
8.8584e-08
-2.45314e-09
1.35592e-09
8.83248e-08
-2.39898e-09
1.45775e-09
8.79309e-08
-2.33641e-09
1.47849e-09
8.73517e-08
-2.26738e-09
1.41329e-09
8.65216e-08
-2.19373e-09
1.27097e-09
8.53563e-08
-2.11746e-09
1.06361e-09
8.37469e-08
-2.04017e-09
8.0093e-10
8.15526e-08
-1.96321e-09
5.1194e-10
7.85905e-08
-1.88705e-09
2.20803e-10
7.46207e-08
-1.81138e-09
-3.44495e-11
6.93295e-08
-1.73431e-09
-2.10052e-10
6.22985e-08
-1.65214e-09
-2.53843e-10
5.29786e-08
-1.56055e-09
3.27217e-08
-1.36943e-09
1.50848e-11
3.35849e-08
-9.06382e-10
-1.83166e-10
5.40639e-08
-9.9632e-10
-4.71727e-10
6.35131e-08
-1.04296e-09
-8.01615e-10
7.06363e-08
-1.0957e-09
-1.1441e-09
7.59901e-08
-1.15209e-09
-1.46602e-09
7.99994e-08
-1.21205e-09
-1.74111e-09
8.29833e-08
-1.27558e-09
-1.95591e-09
8.51861e-08
-1.3421e-09
-2.0938e-09
8.67942e-08
-1.41046e-09
-2.14918e-09
8.7952e-08
-1.479e-09
-2.11576e-09
8.87709e-08
-1.54582e-09
-1.99674e-09
8.93375e-08
-1.60891e-09
-1.79772e-09
8.97196e-08
-1.66629e-09
-1.52343e-09
8.99693e-08
-1.71609e-09
-1.191e-09
9.01265e-08
-1.75666e-09
-8.12554e-10
9.02203e-08
-1.78664e-09
-4.04389e-10
9.02708e-08
-1.805e-09
1.38388e-11
9.02898e-08
-1.81112e-09
4.26904e-10
9.0281e-08
-1.80478e-09
8.13947e-10
9.02405e-08
-1.78619e-09
1.16185e-09
9.01565e-08
-1.75597e-09
1.45069e-09
9.00087e-08
-1.71515e-09
1.67357e-09
8.97678e-08
-1.66507e-09
1.81847e-09
8.9394e-08
-1.6074e-09
1.8779e-09
8.88347e-08
-1.54399e-09
1.85607e-09
8.80225e-08
-1.47681e-09
1.74851e-09
8.68702e-08
-1.40787e-09
1.56892e-09
8.52666e-08
-1.33905e-09
1.32521e-09
8.30671e-08
-1.27199e-09
1.0381e-09
8.00855e-08
-1.20784e-09
7.28843e-10
7.6077e-08
-1.14714e-09
4.27477e-10
7.07227e-08
-1.0898e-09
1.61605e-10
6.35977e-08
-1.03539e-09
-1.88225e-11
5.41453e-08
-9.8585e-10
3.35956e-08
-8.92437e-10
-2.02957e-10
3.4189e-08
-4.0039e-10
-5.24219e-10
5.4773e-08
-3.88654e-10
-8.87625e-10
6.42689e-08
-3.91667e-10
-1.25719e-09
7.14219e-08
-4.1525e-10
-1.60823e-09
7.67905e-08
-4.50653e-10
-1.91532e-09
8.08018e-08
-4.94475e-10
-2.16428e-09
8.37771e-08
-5.44983e-10
-2.34173e-09
8.59633e-08
-6.00648e-10
-2.43445e-09
8.75486e-08
-6.59687e-10
-2.44303e-09
8.86795e-08
-7.20114e-10
-2.36084e-09
8.94692e-08
-7.79808e-10
-2.19292e-09
9.00065e-08
-8.36716e-10
-1.94614e-09
9.03604e-08
-8.88799e-10
-1.62443e-09
9.05847e-08
-9.34241e-10
-1.24892e-09
9.07202e-08
-9.71402e-10
-8.27593e-10
9.07975e-08
-9.98972e-10
-3.76354e-10
9.08371e-08
-1.01594e-09
8.18891e-11
9.08513e-08
-1.02173e-09
5.35782e-10
9.0844e-08
-1.01609e-09
9.64535e-10
9.08112e-08
-9.99258e-10
1.3527e-09
9.07405e-08
-9.71811e-10
1.6841e-09
9.06113e-08
-9.34759e-10
1.94885e-09
9.03931e-08
-8.89385e-10
2.13588e-09
9.00448e-08
-8.37344e-10
2.23897e-09
8.95127e-08
-7.80431e-10
2.25216e-09
8.87275e-08
-7.20681e-10
2.18432e-09
8.76007e-08
-6.6013e-10
2.0321e-09
8.60187e-08
-6.00896e-10
1.80836e-09
8.38353e-08
-5.44942e-10
1.52561e-09
8.08622e-08
-4.94038e-10
1.20117e-09
7.68523e-08
-4.49695e-10
8.52582e-10
7.14846e-08
-4.13547e-10
5.06702e-10
6.43318e-08
-3.88625e-10
2.0111e-10
5.48358e-08
-3.83267e-10
3.41877e-08
-3.92172e-10
-3.64605e-10
3.45158e-08
3.78075e-11
-7.7394e-10
5.50481e-08
1.34987e-10
-1.19569e-09
6.45183e-08
1.70056e-10
-1.59111e-09
7.16463e-08
1.72451e-10
-1.94681e-09
7.69885e-08
1.56068e-10
-2.24078e-09
8.09707e-08
1.27198e-10
-2.4673e-09
8.39142e-08
8.90338e-11
-2.61422e-09
8.60659e-08
4.42118e-11
-2.67688e-09
8.76153e-08
-5.572e-12
-2.64693e-09
8.87094e-08
-5.83476e-11
-2.52868e-09
8.94627e-08
-1.11005e-10
-2.32593e-09
8.99651e-08
-1.61596e-10
-2.04556e-09
9.02869e-08
-2.08248e-10
-1.69548e-09
9.04829e-08
-2.49121e-10
-1.28732e-09
9.05953e-08
-2.82697e-10
-8.35519e-10
9.06549e-08
-3.07661e-10
-3.60546e-10
9.06832e-08
-3.23109e-10
1.27549e-10
9.06927e-08
-3.28413e-10
6.06984e-10
9.06877e-08
-3.23422e-10
1.06227e-09
9.06638e-08
-3.08279e-10
1.47769e-09
9.06086e-08
-2.83605e-10
1.83906e-09
9.05005e-08
-2.50292e-10
2.13372e-09
9.03085e-08
-2.09657e-10
2.35028e-09
8.99904e-08