/*--------------------------------*- C++ -*----------------------------------*\
| =========                 |                                                 |
| \\      /  F ield         | OpenFOAM: The Open Source CFD Toolbox           |
|  \\    /   O peration     | Version:  v1906                                 |
|   \\  /    A nd           | Web:      www.OpenFOAM.com                      |
|    \\/     M anipulation  |                                                 |
\*---------------------------------------------------------------------------*/
FoamFile
{
    version     2.0;
    format      ascii;
    class       volVectorField;
    location    "62";
    object      U;
}
// * * * * * * * * * * * * * * * * * * * * * * * * * * * * * * * * * * * * * //

dimensions      [0 1 -1 0 0 0 0];


internalField   nonuniform List<vector> 
78750
(
(-2.0346e-06 -7.62926e-05 0.000122406)
(-6.25119e-06 -0.000103488 0.000213301)
(-1.74836e-05 -0.00010348 0.000260187)
(-3.39373e-05 -9.25745e-05 0.000292863)
(-5.52504e-05 -7.57811e-05 0.000314514)
(-8.05771e-05 -5.60351e-05 0.00032768)
(-0.00010895 -3.5512e-05 0.000334118)
(-0.000139309 -1.55664e-05 0.000335195)
(-0.000170694 2.75325e-06 0.000331829)
(-0.000202191 1.89521e-05 0.000324782)
(-0.000233009 3.26021e-05 0.000314533)
(-0.00026241 4.36468e-05 0.000301532)
(-0.000289745 5.19842e-05 0.000286063)
(-0.000314462 5.77644e-05 0.000268458)
(-0.000336082 6.10256e-05 0.000248966)
(-0.000354261 6.1996e-05 0.000227919)
(-0.000368514 6.07835e-05 0.000205845)
(-0.000378809 5.76207e-05 0.000182688)
(-0.000384804 5.26698e-05 0.000159059)
(-0.000386428 4.61906e-05 0.000135427)
(-0.000383627 3.8329e-05 0.000112252)
(-0.000376414 2.93252e-05 9.00557e-05)
(-0.000364863 1.93313e-05 6.93377e-05)
(-0.000349094 8.58481e-06 5.06293e-05)
(-0.000329284 -2.72912e-06 3.4403e-05)
(-0.000305674 -1.43273e-05 2.11164e-05)
(-0.000278545 -2.59308e-05 1.1126e-05)
(-0.000248228 -3.71315e-05 4.70285e-06)
(-0.000215118 -4.74647e-05 1.98131e-06)
(-0.000179686 -5.62738e-05 2.87644e-06)
(-0.000142333 -6.2733e-05 6.99748e-06)
(-0.000103349 -6.56855e-05 1.34855e-05)
(-6.40211e-05 -6.35629e-05 2.09009e-05)
(-3.19935e-05 -5.43489e-05 2.67038e-05)
(-9.11676e-06 -3.05172e-05 2.58739e-05)
(-5.86106e-06 0.000151948 -0.000238467)
(-2.79901e-05 0.000308626 -0.0003439)
(-5.3705e-05 0.00038999 -0.000380215)
(-9.06045e-05 0.000453564 -0.000412095)
(-0.000129468 0.000500797 -0.000438462)
(-0.000167895 0.00053327 -0.000458786)
(-0.000204858 0.000553503 -0.000474195)
(-0.000239592 0.000562742 -0.000486379)
(-0.000271389 0.000563111 -0.000495779)
(-0.000299812 0.000555404 -0.000503247)
(-0.000324403 0.00054142 -0.000508801)
(-0.000345149 0.000521557 -0.000513092)
(-0.000361819 0.000497351 -0.000516024)
(-0.000374432 0.000469176 -0.000518053)
(-0.000383013 0.000438262 -0.000519055)
(-0.000387653 0.000404897 -0.000519377)
(-0.000388407 0.000370129 -0.000518868)
(-0.000385544 0.000333954 -0.000517913)
(-0.000379176 0.000297248 -0.000516342)
(-0.000369517 0.000260196 -0.000514328)
(-0.000356799 0.000223518 -0.000511686)
(-0.000341272 0.000187327 -0.00050852)
(-0.000323192 0.000152179 -0.000504672)
(-0.000302835 0.000118146 -0.000500178)
(-0.000280459 8.56698e-05 -0.000494733)
(-0.000256355 5.48088e-05 -0.000488163)
(-0.000230785 2.59284e-05 -0.000480003)
(-0.000204048 -8.95257e-07 -0.000469731)
(-0.00017644 -2.53221e-05 -0.000456383)
(-0.000148261 -4.7203e-05 -0.000438678)
(-0.00011964 -6.60814e-05 -0.000414646)
(-9.03205e-05 -8.13686e-05 -0.000380662)
(-6.04757e-05 -9.14524e-05 -0.000327972)
(-3.65687e-05 -9.23555e-05 -0.0002458)
(-1.92357e-05 -6.01337e-05 -8.10395e-05)
(-3.39718e-06 0.000352351 -0.000154702)
(-1.62603e-05 0.000605829 -0.000246667)
(-2.79183e-05 0.000715707 -0.000284151)
(-4.51449e-05 0.000791963 -0.000309451)
(-6.28087e-05 0.000841525 -0.00032763)
(-7.98161e-05 0.000870903 -0.000341094)
(-9.58787e-05 0.000883658 -0.000351825)
(-0.000110693 0.000883773 -0.000360456)
(-0.000124074 0.000873137 -0.000367963)
(-0.000135796 0.000854404 -0.00037434)
(-0.000145787 0.000828598 -0.000380113)
(-0.000153964 0.000797636 -0.000385065)
(-0.00016035 0.000762094 -0.000389542)
(-0.000164926 0.000723465 -0.000393259)
(-0.000167764 0.000682094 -0.000396493)
(-0.000168872 0.000639203 -0.000398944)
(-0.000168395 0.000594946 -0.000400909)
(-0.000166336 0.00055034 -0.000402175)
(-0.000162858 0.00050549 -0.00040295)
(-0.000158091 0.000461327 -0.0004029)
(-0.000152163 0.000417919 -0.000402195)
(-0.000145178 0.000375875 -0.000400656)
(-0.00013729 0.000335231 -0.000398405)
(-0.0001286 0.000296456 -0.000395257)
(-0.000119248 0.000259551 -0.00039125)
(-0.000109321 0.000224862 -0.000386127)
(-9.8938e-05 0.000192369 -0.000379742)
(-8.81705e-05 0.000162327 -0.000371601)
(-7.71293e-05 0.000134706 -0.00036114)
(-6.58752e-05 0.000109708 -0.00034728)
(-5.44484e-05 8.73065e-05 -0.000328447)
(-4.26209e-05 6.76884e-05 -0.000301622)
(-3.01654e-05 5.07797e-05 -0.000261526)
(-1.90293e-05 3.68948e-05 -0.000202081)
(-1.18442e-05 2.02251e-05 -7.15326e-05)
(-4.18623e-06 0.000447767 3.60138e-05)
(-1.10872e-05 0.000738085 -1.03921e-05)
(-1.43534e-05 0.000865756 -4.45758e-05)
(-1.9651e-05 0.000954661 -6.99357e-05)
(-2.46953e-05 0.00101379 -8.72108e-05)
(-2.94755e-05 0.00104924 -0.00010115)
(-3.39659e-05 0.00106648 -0.000113696)
(-3.81774e-05 0.00106878 -0.000126068)
(-4.20049e-05 0.00105967 -0.000138352)
(-4.53869e-05 0.00104097 -0.000150839)
(-4.82529e-05 0.0010151 -0.000163277)
(-5.06213e-05 0.00098309 -0.000176007)
(-5.24352e-05 0.00094672 -0.000188632)
(-5.37294e-05 0.000906569 -0.000201331)
(-5.44731e-05 0.000864032 -0.000213699)
(-5.47378e-05 0.000819414 -0.000225888)
(-5.45214e-05 0.000773871 -0.000237479)
(-5.38704e-05 0.000727822 -0.000248417)
(-5.28334e-05 0.000682171 -0.000258385)
(-5.15024e-05 0.000636987 -0.000267509)
(-4.98929e-05 0.000592946 -0.000275521)
(-4.80873e-05 0.000550076 -0.000282503)
(-4.61084e-05 0.000508894 -0.000288213)
(-4.40478e-05 0.000469375 -0.000292696)
(-4.18911e-05 0.000431711 -0.000295817)
(-3.9704e-05 0.000395791 -0.000297572)
(-3.74699e-05 0.000361788 -0.000297696)
(-3.51945e-05 0.000329464 -0.000296069)
(-3.2814e-05 0.000298762 -0.000292255)
(-3.02754e-05 0.000269257 -0.000285795)
(-2.74011e-05 0.000240622 -0.000275793)
(-2.38139e-05 0.000212141 -0.000261554)
(-1.88012e-05 0.000182892 -0.000242)
(-1.29331e-05 0.000151628 -0.000211803)
(-9.16687e-06 9.4257e-05 -0.000116052)
(-6.13623e-06 0.000460911 0.000139696)
(-1.08333e-05 0.000735466 0.000126666)
(-1.04258e-05 0.00085817 9.82931e-05)
(-9.48504e-06 0.00094597 7.56877e-05)
(-7.21841e-06 0.0010062 6.02962e-05)
(-4.26276e-06 0.00104521 4.77682e-05)
(-9.77165e-07 0.00106705 3.56253e-05)
(2.4043e-06 0.00107571 2.35443e-05)
(5.7641e-06 0.0010735 1.10299e-05)
(8.95601e-06 0.00106308 -2.01669e-06)
(1.19326e-05 0.00104571 -1.58363e-05)
(1.46596e-05 0.00102325 -3.00401e-05)
(1.70788e-05 0.000996395 -4.47508e-05)
(1.91677e-05 0.000966531 -5.95853e-05)
(2.08965e-05 0.000934076 -7.44633e-05)
(2.22394e-05 0.000900113 -8.90262e-05)
(2.31546e-05 0.00086488 -0.000103291)
(2.36427e-05 0.000829269 -0.000116911)
(2.36749e-05 0.00079343 -0.000129893)
(2.32735e-05 0.000758025 -0.000141951)
(2.24117e-05 0.000723074 -0.000153111)
(2.11101e-05 0.00068906 -0.000163141)
(1.93529e-05 0.000655905 -0.000172077)
(1.71754e-05 0.000623908 -0.000179732)
(1.45811e-05 0.000592871 -0.000186149)
(1.16214e-05 0.000562884 -0.000191172)
(8.33494e-06 0.000533569 -0.000194835)
(4.82861e-06 0.000504732 -0.000196987)
(1.21315e-06 0.000475686 -0.000197588)
(-2.33865e-06 0.000445798 -0.000196343)
(-5.59648e-06 0.000413696 -0.000193217)
(-8.12789e-06 0.000377985 -0.000188755)
(-9.05567e-06 0.000336359 -0.000184544)
(-7.5756e-06 0.000286094 -0.000175842)
(-6.58388e-06 0.000182698 -0.000112592)
(-5.0585e-06 0.000445477 0.000169768)
(-7.35476e-06 0.000690626 0.000169592)
(-5.65798e-06 0.000802134 0.000146321)
(-2.58256e-06 0.000883662 0.000126815)
(1.9154e-06 0.000942318 0.000113695)
(7.13091e-06 0.000982663 0.000102656)
(1.26464e-05 0.00100898 9.18287e-05)
(1.81839e-05 0.00102382 8.05492e-05)
(2.35634e-05 0.00102985 6.88665e-05)
(2.86321e-05 0.00102845 5.66211e-05)
(3.32931e-05 0.00102147 4.39434e-05)
(3.74453e-05 0.00100971 3.07628e-05)
(4.10391e-05 0.000994506 1.7352e-05)
(4.40195e-05 0.000976317 3.7431e-06)
(4.63482e-05 0.000956151 -9.9011e-06)
(4.79957e-05 0.000934239 -2.35047e-05)
(4.8964e-05 0.000911354 -3.67803e-05)
(4.92209e-05 0.000887603 -4.96975e-05)
(4.87883e-05 0.000863584 -6.2006e-05)
(4.76526e-05 0.000839302 -7.3693e-05)
(4.58527e-05 0.000815215 -8.45438e-05)
(4.3381e-05 0.000791242 -9.45634e-05)
(4.02922e-05 0.000767651 -0.000103584)
(3.66062e-05 0.000744208 -0.000111643)
(3.23955e-05 0.000720979 -0.000118609)
(2.77122e-05 0.000697531 -0.000124543)
(2.2668e-05 0.000673638 -0.000129355)
(1.73638e-05 0.000648538 -0.000133136)
(1.19805e-05 0.000621529 -0.000135802)
(6.69494e-06 0.000591276 -0.000137383)
(1.76449e-06 0.000556254 -0.000137887)
(-2.4295e-06 0.000514112 -0.000138467)
(-5.04822e-06 0.000461851 -0.000141367)
(-5.12878e-06 0.000395286 -0.000142675)
(-4.95455e-06 0.000253177 -9.96266e-05)
(-3.03112e-06 0.000411723 0.000149973)
(-3.41375e-06 0.000633117 0.000149352)
(-1.4151e-06 0.000735143 0.000129547)
(1.98127e-06 0.000811771 0.000113109)
(6.39685e-06 0.000868685 0.000102081)
(1.13002e-05 0.000910452 9.30846e-05)
(1.63991e-05 0.000940155 8.43612e-05)
(2.14984e-05 0.000960604 7.55696e-05)
(2.64364e-05 0.000973465 6.64919e-05)
(3.10857e-05 0.00098055 5.71558e-05)
(3.53369e-05 0.000982758 4.74488e-05)
(3.91118e-05 0.000981328 3.75068e-05)
(4.23419e-05 0.000976733 2.72919e-05)
(4.49822e-05 0.000969877 1.70065e-05)
(4.699e-05 0.000960978 6.69212e-06)
(4.83547e-05 0.000950732 -3.47319e-06)
(4.90454e-05 0.000939221 -1.34705e-05)
(4.90709e-05 0.000926967 -2.31086e-05)
(4.84199e-05 0.000913946 -3.23807e-05)
(4.71126e-05 0.000900543 -4.1118e-05)
(4.5151e-05 0.000886632 -4.93314e-05)
(4.25798e-05 0.000872454 -5.68792e-05)
(3.94182e-05 0.000857755 -6.37939e-05)
(3.57319e-05 0.000842597 -6.99621e-05)
(3.15619e-05 0.000826537 -7.54404e-05)
(2.69984e-05 0.000809374 -8.01467e-05)
(2.21246e-05 0.000790353 -8.41691e-05)
(1.70665e-05 0.000768849 -8.74632e-05)
(1.19672e-05 0.000743574 -9.01266e-05)
(7.01286e-06 0.000713165 -9.20892e-05)
(2.40839e-06 0.000675364 -9.35534e-05)
(-1.5005e-06 0.000627512 -9.54621e-05)
(-4.02354e-06 0.000565594 -9.99961e-05)
(-4.33759e-06 0.000484629 -0.000103954)
(-4.0659e-06 0.000308563 -7.39973e-05)
(-1.52541e-06 0.000380747 0.000113608)
(-1.15338e-06 0.000591282 0.00011082)
(1.81716e-07 0.000689238 9.57784e-05)
(2.43211e-06 0.000763732 8.33277e-05)
(5.22783e-06 0.000820546 7.49635e-05)
(8.29593e-06 0.000863541 6.81422e-05)
(1.14697e-05 0.000896086 6.17345e-05)
(1.46566e-05 0.000920276 5.53434e-05)
(1.77513e-05 0.000938143 4.89403e-05)
(2.06782e-05 0.000950801 4.23902e-05)
(2.33666e-05 0.000959544 3.57435e-05)
(2.57606e-05 0.000964941 2.89345e-05)
(2.78132e-05 0.000967869 2.20834e-05)
(2.94694e-05 0.000968592 1.51798e-05)
(3.07299e-05 0.000967737 8.35518e-06)
(3.15425e-05 0.000965388 1.60933e-06)
(3.19078e-05 0.00096201 -4.91303e-06)
(3.18094e-05 0.000957564 -1.12305e-05)
(3.1256e-05 0.000952389 -1.72103e-05)
(3.0239e-05 0.000946342 -2.28845e-05)
(2.87833e-05 0.000939644 -2.81348e-05)
(2.68999e-05 0.000932035 -3.30108e-05)
(2.4625e-05 0.000923582 -3.74112e-05)
(2.1991e-05 0.000913865 -4.1404e-05)
(1.90521e-05 0.00090273 -4.49057e-05)
(1.58617e-05 0.000889491 -4.80035e-05)
(1.25006e-05 0.000873633 -5.0636e-05)
(9.05689e-06 0.000854017 -5.29148e-05)
(5.64789e-06 0.000829505 -5.4786e-05)
(2.40504e-06 0.000798157 -5.63352e-05)
(-5.08294e-07 0.000757728 -5.75801e-05)
(-2.84276e-06 0.000704858 -5.93082e-05)
(-4.11496e-06 0.000635308 -6.29222e-05)
(-3.91973e-06 0.000543158 -6.62042e-05)
(-3.22292e-06 0.000341792 -4.55676e-05)
(-1.08409e-06 0.000356925 8.26293e-05)
(-9.26666e-07 0.000565194 8.22769e-05)
(-5.46051e-07 0.000662242 7.36408e-05)
(2.07418e-07 0.000736688 6.62645e-05)
(1.24596e-06 0.000793878 6.10865e-05)
(2.44749e-06 0.000838109 5.67738e-05)
(3.74369e-06 0.000872273 5.26109e-05)
(5.09166e-06 0.000898875 4.85005e-05)
(6.44843e-06 0.000919446 4.43408e-05)
(7.76758e-06 0.000935498 4.01787e-05)
(9.01477e-06 0.000947813 3.59445e-05)
(1.01552e-05 0.000957347 3.17261e-05)
(1.11554e-05 0.000964463 2.74812e-05)
(1.19942e-05 0.000969802 2.33201e-05)
(1.26274e-05 0.0009735 1.91955e-05)
(1.30647e-05 0.000976006 1.52065e-05)
(1.32847e-05 0.000977292 1.13162e-05)
(1.32691e-05 0.000977677 7.66787e-06)
(1.30149e-05 0.000977021 4.21202e-06)
(1.25262e-05 0.000975533 1.03798e-06)
(1.17984e-05 0.000972963 -1.91633e-06)
(1.08474e-05 0.000969397 -4.5662e-06)
(9.6881e-06 0.000964443 -6.99157e-06)
(8.34663e-06 0.000958008 -9.11763e-06)
(6.85071e-06 0.000949485 -1.10397e-05)
(5.24193e-06 0.000938496 -1.2695e-05)
(3.56423e-06 0.000924067 -1.41953e-05)
(1.88017e-06 0.000905334 -1.5495e-05)
(2.57373e-07 0.000880678 -1.67131e-05)
(-1.22446e-06 0.000848376 -1.7795e-05)
(-2.47043e-06 0.000805657 -1.89092e-05)
(-3.33326e-06 0.000749272 -2.04574e-05)
(-3.54112e-06 0.000674371 -2.34772e-05)
(-2.95996e-06 0.000574947 -2.65604e-05)
(-2.14127e-06 0.000357362 -1.62079e-05)
(-1.3915e-06 0.000340128 6.28485e-05)
(-1.86925e-06 0.000547965 6.90321e-05)
(-2.41943e-06 0.000644867 6.73342e-05)
(-2.9655e-06 0.000719167 6.51074e-05)
(-3.30299e-06 0.00077655 6.32684e-05)
(-3.4654e-06 0.000821027 6.13542e-05)
(-3.50131e-06 0.000855858 5.92737e-05)
(-3.42239e-06 0.000883184 5.69863e-05)
(-3.25411e-06 0.00090491 5.46103e-05)
(-3.00616e-06 0.00092215 5.21167e-05)
(-2.70536e-06 0.000936056 4.96087e-05)
(-2.36499e-06 0.000947169 4.70518e-05)
(-2.00807e-06 0.000956219 4.45493e-05)
(-1.64253e-06 0.000963423 4.20631e-05)
(-1.3013e-06 0.000969252 3.97271e-05)
(-9.93592e-07 0.000973728 3.75079e-05)
(-7.42859e-07 0.000977186 3.55084e-05)
(-5.45843e-07 0.000979553 3.36059e-05)
(-4.14875e-07 0.000981044 3.18908e-05)
(-3.59496e-07 0.000981436 3.03073e-05)
(-3.77307e-07 0.000980834 2.89291e-05)
(-4.6576e-07 0.000978896 2.76775e-05)
(-6.2356e-07 0.000975586 2.66151e-05)
(-8.42975e-07 0.000970389 2.5646e-05)
(-1.10686e-06 0.00096305 2.48215e-05)
(-1.39848e-06 0.000952773 2.40299e-05)
(-1.69868e-06 0.000938932 2.33049e-05)
(-1.98365e-06 0.000920249 2.25138e-05)
(-2.22224e-06 0.000895443 2.16685e-05)
(-2.38488e-06 0.000862386 2.06191e-05)
(-2.44022e-06 0.000818625 1.93073e-05)
(-2.34404e-06 0.000760512 1.7271e-05)
(-1.99975e-06 0.000683479 1.38433e-05)
(-1.39342e-06 0.000581144 9.41141e-06)
(-8.31794e-07 0.000357807 8.68067e-06)
(-1.85533e-06 0.000327154 5.13283e-05)
(-2.91288e-06 0.000532511 6.47128e-05)
(-4.08309e-06 0.000628063 6.87071e-05)
(-5.45051e-06 0.000701395 7.06875e-05)
(-6.57262e-06 0.000757886 7.15189e-05)
(-7.47785e-06 0.000801822 7.15752e-05)
(-8.20233e-06 0.000836124 7.1029e-05)
(-8.77339e-06 0.000863249 7.01148e-05)
(-9.18412e-06 0.000884749 6.89098e-05)
(-9.45373e-06 0.000902069 6.7568e-05)
(-9.58354e-06 0.000916 6.61029e-05)
(-9.59056e-06 0.000927425 6.46318e-05)
(-9.48053e-06 0.000936707 6.31406e-05)
(-9.27475e-06 0.000944408 6.17287e-05)
(-8.9775e-06 0.000950644 6.03645e-05)
(-8.61366e-06 0.000955786 5.91311e-05)
(-8.18752e-06 0.000959789 5.79774e-05)
(-7.72118e-06 0.000962866 5.70124e-05)
(-7.22061e-06 0.000964858 5.61708e-05)
(-6.70235e-06 0.000965904 5.55106e-05)
(-6.16912e-06 0.000965731 5.49557e-05)
(-5.63135e-06 0.000964355 5.4554e-05)
(-5.09271e-06 0.00096136 5.4216e-05)
(-4.55697e-06 0.000956592 5.39772e-05)
(-4.02513e-06 0.00094942 5.37334e-05)
(-3.49748e-06 0.000939416 5.35034e-05)
(-2.9734e-06 0.00092559 5.31622e-05)
(-2.45095e-06 0.000907043 5.26995e-05)
(-1.9341e-06 0.000882159 5.19524e-05)
(-1.42356e-06 0.000849198 5.08578e-05)
(-9.38998e-07 0.00080543 4.91529e-05)
(-4.98254e-07 0.000747618 4.64935e-05)
(-1.30899e-07 0.000671016 4.21055e-05)
(2.02911e-07 0.000569686 3.5778e-05)
(3.15917e-07 0.000348956 2.54637e-05)
(-2.04894e-06 0.000316067 4.17183e-05)
(-3.37603e-06 0.00051609 5.90426e-05)
(-4.81916e-06 0.000609133 6.62009e-05)
(-6.51039e-06 0.000680363 7.04845e-05)
(-7.94031e-06 0.000735278 7.28492e-05)
(-9.11663e-06 0.000777793 7.39678e-05)
(-1.00976e-05 0.000811035 7.43089e-05)
(-1.08862e-05 0.000837121 7.40929e-05)
(-1.15e-05 0.000857863 7.35444e-05)
(-1.19258e-05 0.000874379 7.27472e-05)
(-1.21827e-05 0.000887749 7.18445e-05)
(-1.22659e-05 0.000898531 7.08626e-05)
(-1.21963e-05 0.000907391 6.99072e-05)
(-1.19719e-05 0.000914569 6.89762e-05)
(-1.16158e-05 0.00092049 6.81541e-05)
(-1.11347e-05 0.000925196 6.74201e-05)
(-1.05459e-05 0.000928963 6.68425e-05)
(-9.8614e-06 0.000931699 6.63836e-05)
(-9.10533e-06 0.000933564 6.60959e-05)
(-8.28704e-06 0.000934356 6.59249e-05)
(-7.42747e-06 0.000934129 6.59067e-05)
(-6.53659e-06 0.00093256 6.59708e-05)
(-5.63135e-06 0.000929565 6.61374e-05)
(-4.72313e-06 0.00092466 6.63198e-05)
(-3.82057e-06 0.000917556 6.65212e-05)
(-2.93666e-06 0.000907508 6.6635e-05)
(-2.08064e-06 0.000893885 6.6639e-05)
(-1.26593e-06 0.000875496 6.6393e-05)
(-5.07864e-07 0.000851115 6.5824e-05)
(1.70948e-07 0.000818763 6.4723e-05)
(7.41452e-07 0.000776147 6.28913e-05)
(1.13465e-06 0.000719883 5.98587e-05)
(1.28434e-06 0.000645753 5.49335e-05)
(1.28092e-06 0.000547843 4.74263e-05)
(1.0203e-06 0.000335248 3.17651e-05)
(-1.76591e-06 0.000307077 3.0019e-05)
(-3.02558e-06 0.000501068 4.62054e-05)
(-4.38459e-06 0.000591168 5.35214e-05)
(-6.02068e-06 0.000660147 5.80614e-05)
(-7.42114e-06 0.000713143 6.05613e-05)
(-8.60096e-06 0.000754156 6.18234e-05)
(-9.58719e-06 0.000785996 6.22682e-05)
(-1.03952e-05 0.000810957 6.21919e-05)
(-1.10101e-05 0.000830562 6.17403e-05)
(-1.14453e-05 0.000846157 6.10783e-05)
(-1.16854e-05 0.000858544 6.02739e-05)
(-1.17473e-05 0.000868537 5.94379e-05)
(-1.16296e-05 0.00087653 5.86e-05)
(-1.13528e-05 0.000883031 5.78434e-05)
(-1.09191e-05 0.000888192 5.7175e-05)
(-1.03536e-05 0.000892334 5.66586e-05)
(-9.66529e-06 0.000895453 5.6282e-05)
(-8.88305e-06 0.000897741 5.60908e-05)
(-8.02088e-06 0.000899079 5.60547e-05)
(-7.1009e-06 0.000899548 5.62009e-05)
(-6.14279e-06 0.00089892 5.64806e-05)
(-5.16673e-06 0.000897159 5.69029e-05)
(-4.19343e-06 0.000893902 5.74018e-05)
(-3.23748e-06 0.000888955 5.79692e-05)
(-2.31426e-06 0.000881758 5.85209e-05)
(-1.43819e-06 0.000871869 5.9029e-05)
(-6.25462e-07 0.000858404 5.93858e-05)
(1.11211e-07 0.000840497 5.953e-05)
(7.5282e-07 0.000816705 5.93087e-05)
(1.28347e-06 0.000785411 5.85938e-05)
(1.66625e-06 0.00074418 5.71201e-05)
(1.84913e-06 0.000690048 5.45323e-05)
(1.7589e-06 0.000618799 5.01469e-05)
(1.53782e-06 0.000525034 4.33002e-05)
(1.11312e-06 0.000321674 2.79457e-05)
(-1.10783e-06 0.000301565 1.52822e-05)
(-2.06281e-06 0.000491291 2.56031e-05)
(-3.13711e-06 0.000579385 3.06299e-05)
(-4.48098e-06 0.000646652 3.36916e-05)
(-5.71052e-06 0.000698288 3.5227e-05)
(-6.77984e-06 0.000738014 3.58057e-05)
(-7.70979e-06 0.000768781 3.57829e-05)
(-8.47608e-06 0.000792643 3.53371e-05)
(-9.07889e-06 0.000811306 3.46219e-05)
(-9.49537e-06 0.000825891 3.37263e-05)
(-9.73335e-06 0.000837413 3.27575e-05)
(-9.78417e-06 0.000846467 3.17681e-05)
(-9.66067e-06 0.000853673 3.08387e-05)
(-9.36643e-06 0.000859321 3.00006e-05)
(-8.92286e-06 0.000863795 2.93157e-05)
(-8.34114e-06 0.000867197 2.87967e-05)
(-7.64803e-06 0.000869758 2.84871e-05)
(-6.86311e-06 0.000871446 2.83805e-05)
(-6.01541e-06 0.000872374 2.85003e-05)
(-5.12483e-06 0.0008724 2.88203e-05)
(-4.2199e-06 0.000871525 2.93437e-05)
(-3.3226e-06 0.000869487 3.0025e-05)
(-2.45477e-06 0.000866153 3.08487e-05)
(-1.63594e-06 0.000861106 3.17522e-05)
(-8.82075e-07 0.000854019 3.27027e-05)
(-2.10065e-07 0.000844234 3.36218e-05)
(3.71959e-07 0.000831112 3.44583e-05)
(8.4929e-07 0.000813587 3.51133e-05)
(1.22285e-06 0.000790484 3.55058e-05)
(1.4757e-06 0.000760024 3.54979e-05)
(1.60456e-06 0.000720073 3.49373e-05)
(1.5716e-06 0.000667575 3.3546e-05)
(1.36159e-06 0.000598679 3.08958e-05)
(1.09954e-06 0.000508022 2.65346e-05)
(7.30367e-07 0.000311706 1.65547e-05)
(-3.01899e-07 0.000301257 -3.37454e-07)
(-8.99605e-07 0.000490551 1.59553e-06)
(-1.59217e-06 0.000578322 3.00166e-06)
(-2.58377e-06 0.000645264 3.67744e-06)
(-3.58357e-06 0.000696426 3.60932e-06)
(-4.52834e-06 0.000735677 3.07814e-06)
(-5.3775e-06 0.000765816 2.2299e-06)
(-6.11226e-06 0.000789067 1.1663e-06)
(-6.69854e-06 0.000806988 -5.18219e-08)
(-7.12398e-06 0.00082088 -1.34484e-06)
(-7.37201e-06 0.000831605 -2.65835e-06)
(-7.44707e-06 0.000839947 -3.92139e-06)
(-7.34616e-06 0.000846371 -5.0889e-06)
(-7.08673e-06 0.000851355 -6.10137e-06)
(-6.67623e-06 0.000855125 -6.9265e-06)
(-6.14303e-06 0.000857968 -7.52038e-06)
(-5.5049e-06 0.000859951 -7.86791e-06)
(-4.7902e-06 0.000861225 -7.94496e-06)
(-4.02998e-06 0.000861734 -7.75672e-06)
(-3.24919e-06 0.000861513 -7.30062e-06)
(-2.47505e-06 0.000860388 -6.60297e-06)
(-1.73693e-06 0.00085827 -5.68193e-06)
(-1.05723e-06 0.00085485 -4.582e-06)
(-4.51219e-07 0.000849878 -3.33814e-06)
(5.75747e-08 0.000842849 -2.00891e-06)
(4.62354e-07 0.000833275 -6.40166e-07)
(7.55155e-07 0.000820341 7.01417e-07)
(9.39732e-07 0.000803156 1.96414e-06)
(1.01374e-06 0.000780378 3.07781e-06)
(9.93363e-07 0.000750409 3.9897e-06)
(8.84138e-07 0.000710974 4.62099e-06)
(7.03464e-07 0.000659209 4.88767e-06)
(4.76702e-07 0.000591168 4.63547e-06)
(3.16846e-07 0.000501703 3.82968e-06)
(1.02985e-07 0.000307914 1.97922e-06)
(4.04308e-07 0.000306649 -1.39633e-05)
(1.16171e-07 0.000499561 -2.01774e-05)
(-2.25249e-07 0.000588922 -2.23456e-05)
(-8.92154e-07 0.000656865 -2.40451e-05)
(-1.6956e-06 0.000708644 -2.56869e-05)
(-2.5217e-06 0.00074812 -2.73224e-05)
(-3.31354e-06 0.000778281 -2.89768e-05)
(-4.01475e-06 0.000801293 -3.06644e-05)
(-4.60383e-06 0.000818886 -3.23742e-05)
(-5.04416e-06 0.000832284 -3.40783e-05)
(-5.32585e-06 0.000842508 -3.57317e-05)
(-5.43534e-06 0.00085025 -3.72893e-05)
(-5.38316e-06 0.000856127 -3.86985e-05)
(-5.17271e-06 0.000860517 -3.99148e-05)
(-4.82222e-06 0.000863789 -4.08932e-05)
(-4.35372e-06 0.000866122 -4.16009e-05)
(-3.7926e-06 0.000867723 -4.20091e-05)
(-3.1663e-06 0.000868623 -4.21047e-05)
(-2.50938e-06 0.000868898 -4.18803e-05)
(-1.84829e-06 0.000868458 -4.13447e-05)
(-1.21446e-06 0.000867254 -4.0513e-05)
(-6.35626e-07 0.000865065 -3.94152e-05)
(-1.34036e-07 0.000861697 -3.80857e-05)
(2.64964e-07 0.000856764 -3.657e-05)
(5.53174e-07 0.000849871 -3.49138e-05)
(7.18067e-07 0.000840385 -3.31682e-05)
(7.6439e-07 0.000827595 -3.13786e-05)
(6.92706e-07 0.000810461 -2.95855e-05)
(5.29509e-07 0.000787733 -2.78137e-05)
(2.89534e-07 0.000757661 -2.60666e-05)
(1.24459e-08 0.000718044 -2.43171e-05)
(-2.57555e-07 0.000665862 -2.24911e-05)
(-4.34655e-07 0.000597207 -2.04454e-05)
(-4.45296e-07 0.000506772 -1.78178e-05)
(-5.02332e-07 0.000310824 -1.16419e-05)
(8.63909e-07 0.000317107 -2.32565e-05)
(7.32894e-07 0.000516898 -3.53771e-05)
(6.44349e-07 0.000609319 -4.02063e-05)
(2.04418e-07 0.000679451 -4.37001e-05)
(-4.44779e-07 0.000732674 -4.65498e-05)
(-1.1766e-06 0.000773093 -4.90404e-05)
(-1.90322e-06 0.000803739 -5.13332e-05)
(-2.57498e-06 0.000826964 -5.35164e-05)
(-3.14364e-06 0.000844492 -5.56267e-05)
(-3.58356e-06 0.000857698 -5.76625e-05)
(-3.86987e-06 0.000867571 -5.9598e-05)
(-3.99932e-06 0.000874935 -6.13949e-05)
(-3.96746e-06 0.000880357 -6.30076e-05)
(-3.78975e-06 0.000884331 -6.43919e-05)
(-3.47846e-06 0.000887168 -6.55043e-05)
(-3.05371e-06 0.00088915 -6.63104e-05)
(-2.54717e-06 0.000890412 -6.67824e-05)
(-1.98937e-06 0.000891084 -6.69047e-05)
(-1.40744e-06 0.000891158 -6.6671e-05)
(-8.35431e-07 0.000890632 -6.60889e-05)
(-3.04998e-07 0.000889365 -6.51747e-05)
(1.57289e-07 0.000887213 -6.39577e-05)
(5.23502e-07 0.000883883 -6.2473e-05)
(7.78093e-07 0.000879054 -6.07645e-05)
(9.07267e-07 0.000872222 -5.88767e-05)
(9.08733e-07 0.000862807 -5.68556e-05)
(7.80551e-07 0.000849978 -5.47377e-05)
(5.42966e-07 0.00083273 -5.25477e-05)
(2.14445e-07 0.000809677 -5.02837e-05)
(-1.66601e-07 0.00077908 -4.7906e-05)
(-5.55155e-07 0.000738571 -4.53166e-05)
(-8.75337e-07 0.000685099 -4.23224e-05)
(-1.01893e-06 0.000614533 -3.85727e-05)
(-9.11221e-07 0.000521465 -3.34198e-05)
(-9.04827e-07 0.000319607 -2.13572e-05)
(1.00431e-06 0.000330819 -2.73567e-05)
(8.90147e-07 0.000538972 -4.20052e-05)
(9.11168e-07 0.000635183 -4.80186e-05)
(5.81044e-07 0.000708021 -5.23229e-05)
(1.7656e-08 0.000763147 -5.5724e-05)
(-6.38309e-07 0.000804821 -5.86104e-05)
(-1.30546e-06 0.000836268 -6.12074e-05)
(-1.91954e-06 0.000859905 -6.36316e-05)
(-2.44308e-06 0.000877601 -6.59427e-05)
(-2.8426e-06 0.000890752 -6.81475e-05)
(-3.09964e-06 0.000900464 -7.02307e-05)
(-3.20258e-06 0.000907552 -7.21547e-05)
(-3.15523e-06 0.00091268 -7.38792e-05)
(-2.96524e-06 0.000916321 -7.53566e-05)
(-2.65015e-06 0.000918865 -7.65477e-05)
(-2.23151e-06 0.00092056 -7.74135e-05)
(-1.73777e-06 0.000921611 -7.79295e-05)
(-1.19841e-06 0.000922103 -7.80759e-05)
(-6.44936e-07 0.000922087 -7.78499e-05)
(-1.09355e-07 0.000921504 -7.72549e-05)
(3.75866e-07 0.000920263 -7.63115e-05)
(7.83482e-07 0.000918155 -7.50444e-05)
(1.09149e-06 0.000914923 -7.34931e-05)
(1.27881e-06 0.000910171 -7.16973e-05)
(1.33506e-06 0.000903418 -6.97049e-05)
(1.2529e-06 0.000893997 -6.75554e-05)
(1.0454e-06 0.000881082 -6.52865e-05)
(7.24137e-07 0.000863563 -6.29117e-05)
(3.17423e-07 0.000840034 -6.0423e-05)
(-1.38926e-07 0.000808621 -5.77579e-05)
(-5.90331e-07 0.000766895 -5.47949e-05)
(-9.59466e-07 0.000711621 -5.12864e-05)
(-1.11602e-06 0.000638525 -4.68014e-05)
(-9.84015e-07 0.000541933 -4.05656e-05)
(-1.0196e-06 0.000332286 -2.59556e-05)
(8.88523e-07 0.000345691 -2.66871e-05)
(6.87213e-07 0.00056208 -4.05564e-05)
(6.93181e-07 0.000662016 -4.62945e-05)
(3.57467e-07 0.000737561 -5.04391e-05)
(-1.77373e-07 0.000794581 -5.37402e-05)
(-7.89118e-07 0.000837556 -5.65703e-05)
(-1.39566e-06 0.000869821 -5.91352e-05)
(-1.94932e-06 0.000893941 -6.15473e-05)
(-2.40574e-06 0.00091184 -6.38544e-05)
(-2.74075e-06 0.00092502 -6.6065e-05)
(-2.93373e-06 0.000934611 -6.81559e-05)
(-2.97996e-06 0.000941512 -7.0093e-05)
(-2.87655e-06 0.000946391 -7.18298e-05)
(-2.63745e-06 0.000949785 -7.33237e-05)
(-2.28077e-06 0.000952077 -7.45289e-05)
(-1.82518e-06 0.000953569 -7.5412e-05)
(-1.29802e-06 0.000954444 -7.59424e-05)
(-7.31401e-07 0.00095483 -7.61059e-05)
(-1.5677e-07 0.000954749 -7.5894e-05)
(3.9513e-07 0.000954174 -7.53152e-05)
(8.93081e-07 0.000952974 -7.43843e-05)
(1.30974e-06 0.000950961 -7.3132e-05)
(1.62166e-06 0.000947829 -7.15917e-05)
(1.81082e-06 0.00094319 -6.98094e-05)
(1.86369e-06 0.000936505 -6.78273e-05)
(1.78256e-06 0.000927099 -6.56923e-05)
(1.56755e-06 0.000914072 -6.34377e-05)
(1.23408e-06 0.000896288 -6.10859e-05)
(8.07578e-07 0.000872242 -5.86269e-05)
(3.30164e-07 0.000840003 -5.60119e-05)
(-1.55851e-07 0.000797003 -5.31243e-05)
(-5.7406e-07 0.000739901 -4.97445e-05)
(-8.0663e-07 0.00066421 -4.54706e-05)
(-7.3553e-07 0.000564056 -3.95756e-05)
(-8.95023e-07 0.000346516 -2.57125e-05)
(5.96487e-07 0.000359607 -2.26842e-05)
(2.5128e-07 0.000582756 -3.32887e-05)
(1.47859e-07 0.000685767 -3.76526e-05)
(-2.64426e-07 0.00076353 -4.08961e-05)
(-8.1441e-07 0.000822118 -4.36029e-05)
(-1.3982e-06 0.000866145 -4.60227e-05)
(-1.95168e-06 0.000899079 -4.82968e-05)
(-2.43408e-06 0.000923563 -5.04925e-05)
(-2.81368e-06 0.000941615 -5.26366e-05)
(-3.0659e-06 0.000954778 -5.47172e-05)
(-3.17331e-06 0.000964254 -5.67058e-05)
(-3.13383e-06 0.00097096 -5.85586e-05)
(-2.95305e-06 0.000975621 -6.023e-05)
(-2.63704e-06 0.00097878 -6.16711e-05)
(-2.2067e-06 0.000980864 -6.28405e-05)
(-1.6837e-06 0.000982171 -6.36996e-05)
(-1.09392e-06 0.000982918 -6.42224e-05)
(-4.67052e-07 0.000983219 -6.43901e-05)
(1.634e-07 0.000983119 -6.41984e-05)
(7.69664e-07 0.000982571 -6.36514e-05)
(1.32141e-06 0.000981456 -6.27682e-05)
(1.78923e-06 0.000979557 -6.15746e-05)
(2.15178e-06 0.00097657 -6.01091e-05)
(2.39023e-06 0.000972069 -5.8413e-05)
(2.49451e-06 0.000965506 -5.65354e-05)
(2.45641e-06 0.000956156 -5.4521e-05)
(2.28015e-06 0.000943095 -5.24135e-05)
(1.98232e-06 0.000925123 -5.02406e-05)
(1.58188e-06 0.000900692 -4.80134e-05)
(1.10862e-06 0.000867783 -4.57038e-05)
(6.05621e-07 0.000823749 -4.32416e-05)
(1.286e-07 0.000765122 -4.04755e-05)
(-2.19518e-07 0.00068728 -3.71348e-05)
(-2.80298e-07 0.00058415 -3.26513e-05)
(-5.97987e-07 0.000360048 -2.20244e-05)
(2.37137e-07 0.000371113 -1.70151e-05)
(-2.5833e-07 0.000598836 -2.30256e-05)
(-5.17908e-07 0.00070392 -2.54154e-05)
(-1.04259e-06 0.000783174 -2.73522e-05)
(-1.62874e-06 0.000842783 -2.91839e-05)
(-2.19956e-06 0.000887474 -3.09934e-05)
(-2.70752e-06 0.000920787 -3.28214e-05)
(-3.12307e-06 0.000945439 -3.46804e-05)
(-3.42241e-06 0.000963493 -3.65595e-05)
(-3.58612e-06 0.00097655 -3.84269e-05)
(-3.60511e-06 0.000985837 -4.02387e-05)
(-3.47577e-06 0.000992316 -4.19455e-05)
(-3.20671e-06 0.000996729 -4.34957e-05)
(-2.80608e-06 0.000999653 -4.48404e-05)
(-2.2928e-06 0.00100152 -4.59356e-05)
(-1.69136e-06 0.00100266 -4.67447e-05)
(-1.02583e-06 0.00100328 -4.72399e-05)
(-3.27275e-07 0.00100352 -4.74044e-05)
(3.7631e-07 0.00100342 -4.7232e-05)
(1.05265e-06 0.00100293 -4.67289e-05)
(1.67457e-06 0.00100192 -4.59113e-05)
(2.21271e-06 0.00100018 -4.48075e-05)
(2.64578e-06 0.00099737 -4.3453e-05)
(2.95647e-06 0.000993066 -4.18927e-05)
(3.12927e-06 0.000986684 -4.01746e-05)
(3.16045e-06 0.000977483 -3.835e-05)
(3.05005e-06 0.000964499 -3.64679e-05)
(2.80613e-06 0.000946503 -3.45718e-05)
(2.44593e-06 0.000921892 -3.26921e-05)
(1.99422e-06 0.000888604 -3.08391e-05)
(1.48009e-06 0.000843918 -2.89976e-05)
(9.47311e-07 0.000784295 -2.71194e-05)
(4.66695e-07 0.000705007 -2.51057e-05)
(2.37197e-07 0.000599866 -2.26184e-05)
(-2.39013e-07 0.000371311 -1.65701e-05)
(-1.12434e-07 0.000379437 -1.12359e-05)
(-7.26169e-07 0.000609377 -1.24553e-05)
(-1.14227e-06 0.000715463 -1.27716e-05)
(-1.77961e-06 0.0007954 -1.33237e-05)
(-2.40743e-06 0.00085544 -1.42204e-05)
(-2.97002e-06 0.000900351 -1.53682e-05)
(-3.44048e-06 0.000933722 -1.67053e-05)
(-3.80132e-06 0.0009583 -1.81858e-05)
(-4.03025e-06 0.000976187 -1.97617e-05)
(-4.1167e-06 0.000989006 -2.13795e-05)
(-4.0546e-06 0.00099802 -2.29813e-05)
(-3.84369e-06 0.00100421 -2.45112e-05)
(-3.49344e-06 0.00100833 -2.59129e-05)