/*--------------------------------*- C++ -*----------------------------------*\
| =========                 |                                                 |
| \\      /  F ield         | OpenFOAM: The Open Source CFD Toolbox           |
|  \\    /   O peration     | Version:  v1906                                 |
|   \\  /    A nd           | Web:      www.OpenFOAM.com                      |
|    \\/     M anipulation  |                                                 |
\*---------------------------------------------------------------------------*/
FoamFile
{
    version     2.0;
    format      ascii;
    class       surfaceScalarField;
    location    "22";
    object      phi;
}
// * * * * * * * * * * * * * * * * * * * * * * * * * * * * * * * * * * * * * //

dimensions      [1 0 -1 0 0 0 0];
oriented        oriented;


internalField   nonuniform List<scalar> 
228225
(
-1.41231e-05
4.08284e-07
4.47495e-07
-1.32769e-05
-1.14715e-06
3.01575e-07
-1.13189e-05
-1.95303e-06
-4.93559e-09
-8.87687e-06
-2.24814e-06
-1.94042e-07
-6.3628e-06
-2.18985e-06
-3.24363e-07
-3.95316e-06
-2.00114e-06
-4.08661e-07
-1.67371e-06
-1.81965e-06
-4.59994e-07
4.82097e-07
-1.66912e-06
-4.86904e-07
2.508e-06
-1.53605e-06
-4.90063e-07
4.39514e-06
-1.41155e-06
-4.75803e-07
6.14248e-06
-1.29102e-06
-4.56548e-07
7.75383e-06
-1.17411e-06
-4.37484e-07
9.23464e-06
-1.06171e-06
-4.19351e-07
1.0591e-05
-9.5465e-07
-4.01916e-07
1.18288e-05
-8.53363e-07
-3.84746e-07
1.29535e-05
-7.57715e-07
-3.67297e-07
1.39691e-05
-6.66973e-07
-3.48889e-07
1.48776e-05
-5.79848e-07
-3.28887e-07
1.56786e-05
-4.94512e-07
-3.06788e-07
1.6369e-05
-4.0864e-07
-2.82092e-07
1.69424e-05
-3.19653e-07
-2.54059e-07
1.73891e-05
-2.25138e-07
-2.21901e-07
1.76968e-05
-1.2303e-07
-1.84984e-07
1.78572e-05
-1.78578e-08
-1.42827e-07
1.78129e-05
1.38544e-07
-9.46451e-08
1.75417e-05
3.11393e-07
-4.05108e-08
1.70058e-05
5.05845e-07
2.96327e-08
1.61612e-05
7.27557e-07
1.16561e-07
1.49649e-05
9.82441e-07
2.13442e-07
1.33653e-05
1.27484e-06
3.24311e-07
1.13052e-05
1.60741e-06
4.52139e-07
8.72177e-06
1.98294e-06
5.99672e-07
5.60298e-06
2.37823e-06
7.39369e-07
2.262e-06
2.59844e-06
7.40843e-07
1.84887e-06
4.1105e-07
-2.27067e-06
2.74675e-06
-6.83894e-08
-4.81621e-06
2.2947e-06
-8.96364e-07
-6.80727e-06
1.57084e-06
-1.53295e-06
-8.38183e-06
1.13986e-06
-1.81347e-06
-9.55988e-06
9.06631e-07
-1.91854e-06
-1.0346e-05
7.3131e-07
-1.94649e-06
-1.0744e-05
5.23574e-07
-1.94536e-06
-1.07744e-05
2.85368e-07
-1.92436e-06
-1.04687e-05
4.1835e-08
-1.88379e-06
-9.95099e-06
-1.01269e-07
-1.82826e-06
-9.32095e-06
-1.54611e-07
-1.76673e-06
-8.60467e-06
-1.82591e-07
-1.70811e-06
-7.81863e-06
-1.94412e-07
-1.65366e-06
-6.97045e-06
-2.00711e-07
-1.60247e-06
-6.06622e-06
-2.0413e-07
-1.55384e-06
-5.11242e-06
-2.04983e-07
-1.50694e-06
-4.11688e-06
-2.02178e-07
-1.46077e-06
-3.08918e-06
-1.9359e-07
-1.41441e-06
-2.04073e-06
-1.76205e-07
-1.36724e-06
-9.84987e-07
-1.46386e-07
-1.3185e-06
6.24332e-08
-1.00552e-07
-1.26705e-06
1.08569e-06
-3.72377e-08
-1.2117e-06
2.04885e-06
6.45997e-08
-1.15137e-06
2.90929e-06
2.05549e-07
-1.08444e-06
3.68214e-06
3.73142e-07
-1.00806e-06
4.33657e-06
5.75641e-07
-9.19308e-07
4.8401e-06
8.16891e-07
-8.15222e-07
5.15447e-06
1.10423e-06
-6.91714e-07
5.22875e-06
1.45004e-06
-5.42596e-07
4.99927e-06
1.86586e-06
-3.62317e-07
4.39888e-06
2.356e-06
-1.49076e-07
3.38791e-06
2.89189e-06
1.01016e-07
2.05806e-06
3.3478e-06
3.59111e-07
7.27016e-07
3.45073e-06
4.77438e-07
2.27336e-06
3.01076e-07
-1.52523e-07
2.80729e-06
9.16595e-08
-1.58592e-06
3.89568e-06
-1.68002e-07
-3.55259e-06
3.84859e-06
-3.10928e-07
-5.52878e-06
3.46121e-06
-3.45e-07
-7.17372e-06
2.90057e-06
-3.49057e-07
-8.34263e-06
2.26122e-06
-3.61166e-07
-9.05721e-06
1.62784e-06
-3.89869e-07
-9.40061e-06
1.04915e-06
-4.20573e-07
-9.47461e-06
5.5525e-07
-4.39625e-07
-9.32568e-06
1.9665e-07
-4.47091e-07
-9.01373e-06
-2.05315e-08
-4.46275e-07
-8.54708e-06
-2.09067e-07
-4.40443e-07
-7.99304e-06
-3.16096e-07
-4.32634e-07
-7.37718e-06
-3.92718e-07
-4.24151e-07
-6.70883e-06
-4.57503e-07
-4.15315e-07
-5.99041e-06
-5.17398e-07
-4.06373e-07
-5.22176e-06
-5.73649e-07
-3.97569e-07
-4.40338e-06
-6.22874e-07
-3.89527e-07
-3.54034e-06
-6.57111e-07
-3.82593e-07
-2.64485e-06
-6.65668e-07
-3.76686e-07
-1.73679e-06
-6.37858e-07
-3.71274e-07
-8.44967e-07
-5.64065e-07
-3.65545e-07
1.31853e-08
-4.35572e-07
-3.58567e-07
8.144e-07
-2.47084e-07
-3.49199e-07
1.50943e-06
1.30756e-08
-3.356e-07
2.10313e-06
2.97135e-07
-3.15844e-07
2.55839e-06
6.48601e-07
-2.87603e-07
2.85276e-06
1.05646e-06
-2.47214e-07
2.96819e-06
1.52463e-06
-1.90555e-07
2.88357e-06
2.06386e-06
-1.13834e-07
2.57214e-06
2.68285e-06
-1.57559e-08
2.00145e-06
3.33687e-06
1.25418e-07
1.23195e-06
3.83972e-06
2.77189e-07
4.37444e-07
3.8897e-06
3.54963e-07
2.47986e-06
2.30222e-07
-3.88776e-07
3.06389e-06
1.31495e-07
-9.73392e-07
4.49457e-06
-1.43478e-08
-1.39488e-06
4.43848e-06
-1.6853e-07
-1.71154e-06
4.07489e-06
-2.97083e-07
-1.99005e-06
3.56446e-06
-3.85372e-07
-2.24243e-06
2.9671e-06
-4.53507e-07
-2.4649e-06
2.36279e-06
-5.12514e-07
-2.65619e-06
1.80438e-06
-5.6399e-07
-2.81979e-06
1.32108e-06
-6.02259e-07
-2.94517e-06
9.42679e-07
-6.20688e-07
-3.01236e-06
6.65992e-07
-6.19375e-07
-3.07145e-06
4.529e-07
-6.0294e-07
-3.07732e-06
2.6565e-07
-5.75964e-07
-2.99547e-06
6.68449e-08
-5.41529e-07
-2.83927e-06
-1.1143e-07
-5.02422e-07
-2.5913e-06
-3.05538e-07
-4.6002e-07
-2.2206e-06
-5.29051e-07
-4.15513e-07
-1.70999e-06
-7.61793e-07
-3.71955e-07
-1.06173e-06
-9.73982e-07
-3.31678e-07
-3.04356e-07
-1.12935e-06
-2.9401e-07
5.23325e-07
-1.20815e-06
-2.57739e-07
1.38524e-06
-1.20469e-06
-2.21669e-07
2.24149e-06
-1.10782e-06
-1.84417e-07
3.04345e-06
-9.04394e-07
-1.45089e-07
3.75292e-06
-5.92751e-07
-1.04129e-07
4.29957e-06
-1.87452e-07
-6.25792e-08
4.64234e-06
3.27208e-07
-2.19394e-08
4.7273e-06
9.48431e-07
2.25055e-08
4.53272e-06
1.64691e-06
7.17696e-08
4.05903e-06
2.41161e-06
1.25514e-07
3.33955e-06
3.21104e-06
1.91041e-07
2.44207e-06
3.96017e-06
2.74109e-07
1.45161e-06
4.4672e-06
3.62972e-07
5.15697e-07
4.43927e-06
3.86263e-07
2.76243e-06
2.32854e-07
3.20763e-07
2.6441e-06
9.84375e-08
3.51521e-07
4.42558e-06
3.79222e-08
2.17546e-07
4.626e-06
-5.3913e-08
-7.49914e-09
4.42418e-06
-1.24421e-07
-3.15795e-07
4.04203e-06
-1.6933e-07
-6.98857e-07
3.54743e-06
-1.973e-07
-1.14106e-06
3.02012e-06
-2.15171e-07
-1.63041e-06
2.51875e-06
-2.25059e-07
-2.15483e-06
2.07093e-06
-2.25444e-07
-2.67918e-06
1.68079e-06
-2.13742e-07
-3.16213e-06
1.34047e-06
-1.915e-07
-3.5776e-06
1.03252e-06
-1.64113e-07
-3.91504e-06
7.39076e-07
-1.35984e-07
-4.18116e-06
4.42978e-07
-1.10033e-07
-4.33772e-06
1.33676e-07
-8.85964e-08
-4.32733e-06
-2.43111e-07
-7.29129e-08
-4.1398e-06
-6.53656e-07
-6.30686e-08
-3.78498e-06
-1.05909e-06
-5.76978e-08
-3.28163e-06
-1.42386e-06
-5.36927e-08
-2.66389e-06
-1.70026e-06
-4.7082e-08
-1.96464e-06
-1.87256e-06
-3.51073e-08
-1.20754e-06
-1.94489e-06
-1.71806e-08
-4.08913e-07
-1.91475e-06
8.00955e-09
4.10162e-07
-1.76945e-06
4.56579e-08
1.21511e-06
-1.48911e-06
9.10445e-08
1.94238e-06
-1.05758e-06
1.42439e-07
2.53616e-06
-4.63993e-07
1.96918e-07
2.9357e-06
2.97776e-07
2.50501e-07
3.07972e-06
1.20432e-06
2.97827e-07
2.89771e-06
2.25908e-06
3.33751e-07
2.3911e-06
3.35896e-06
3.57934e-07
1.65973e-06
4.31362e-06
3.7727e-07
8.74899e-07
4.85705e-06
3.94371e-07
2.37875e-07
4.71199e-06
3.63598e-07
2.79911e-06
2.00158e-07
-2.2066e-08
2.57602e-06
8.94562e-08
-1.80229e-07
4.51288e-06
7.04262e-08
-3.71615e-07
4.80833e-06
8.81691e-09
-5.77649e-07
4.67377e-06
-4.37615e-08
-8.13243e-07
4.36192e-06
-8.44429e-08
-1.0661e-06
3.91297e-06
-1.12773e-07
-1.30583e-06
3.3911e-06
-1.31302e-07
-1.5057e-06
2.8601e-06
-1.41489e-07
-1.65205e-06
2.36085e-06
-1.43566e-07
-1.74482e-06
1.9111e-06
-1.37523e-07
-1.78874e-06
1.50946e-06
-1.25045e-07
-1.7863e-06
1.13874e-06
-1.08658e-07
-1.7298e-06
7.72895e-07
-9.03108e-08
-1.60071e-06
3.85575e-07
-7.17097e-08
-1.3666e-06
-4.5618e-08
-5.48716e-08
-1.09184e-06
-4.76072e-07
-4.18911e-08
-7.78538e-07
-9.33208e-07
-3.38793e-08
-4.30794e-07
-1.37671e-06
-3.02978e-08
-5.80401e-08
-1.76804e-06
-2.87558e-08
3.25489e-07
-2.05864e-06
-2.53481e-08
7.06543e-07
-2.23682e-06
-1.69978e-08
1.07868e-06
-2.31405e-06
-3.1978e-09
1.43698e-06
-2.2962e-06
2.29337e-08
1.78326e-06
-2.17455e-06
5.86004e-08
2.11442e-06
-1.92591e-06
1.05427e-07
2.41794e-06
-1.52557e-06
1.64235e-07
2.68575e-06
-9.66202e-07
2.34117e-07
2.90302e-06
-2.31681e-07
3.11781e-07
2.98083e-06
7.35594e-07
3.90276e-07
2.8456e-06
1.93605e-06
4.57232e-07
2.43589e-06
3.26897e-06
4.98224e-07
1.77739e-06
4.46374e-06
5.06561e-07
1.01549e-06
5.13234e-06
4.8453e-07
3.38804e-07
4.97884e-06
4.07538e-07
2.92553e-06
2.09865e-07
1.25845e-07
2.36732e-06
8.2044e-08
1.40105e-07
4.40777e-06
9.04054e-08
2.45267e-08
4.86162e-06
6.19194e-08
-1.28994e-07
4.79674e-06
3.01428e-08
-3.07316e-07
4.53826e-06
1.61392e-09
-5.13255e-07
4.13142e-06
-1.27978e-08
-7.32173e-07
3.63098e-06
-2.11811e-08
-9.55875e-07
3.107e-06
-2.33788e-08
-1.18292e-06
2.60687e-06
-1.91451e-08
-1.40549e-06
2.14172e-06
-8.19949e-09
-1.60156e-06
1.69318e-06
1.22123e-08
-1.73272e-06
1.23094e-06
3.88393e-08
-1.75554e-06
7.31712e-07
6.38866e-08
-1.64884e-06
1.96766e-07
8.19833e-08
-1.40716e-06
-3.76127e-07
8.86806e-08
-1.0263e-06
-9.40072e-07
8.29658e-08
-5.6908e-07
-1.45846e-06
6.78535e-08
-9.14144e-08
-1.90304e-06
4.84744e-08
3.56728e-07
-2.24679e-06
3.04103e-08
7.52542e-07
-2.47356e-06
1.89065e-08
1.09197e-06
-2.59246e-06
1.60147e-08
1.3721e-06
-2.6168e-06
2.24302e-08
1.58864e-06
-2.552e-06
3.90658e-08
1.73903e-06
-2.39302e-06
6.79009e-08
1.82506e-06
-2.12311e-06
1.11008e-07
1.85639e-06
-1.72607e-06
1.69044e-07
1.8467e-06
-1.19799e-06
2.41436e-07
1.79651e-06
-5.08813e-07
3.27363e-07
1.71694e-06
3.92103e-07
4.23116e-07
1.59803e-06
1.53813e-06
5.16737e-07
1.36814e-06
2.91233e-06
5.86047e-07
9.86153e-07
4.23725e-06
6.07459e-07
5.24301e-07
5.02382e-06
5.68924e-07
1.47278e-07
4.89799e-06
4.56241e-07
2.84957e-06
2.2174e-07
4.5552e-08
2.23556e-06
8.54979e-08
3.93839e-08
4.29227e-06
1.20935e-07
-5.32764e-08
4.83586e-06
1.17752e-07
-1.84106e-07
4.82276e-06
1.04219e-07
-3.47788e-07
4.61366e-06
8.77287e-08
-5.5223e-07
4.26126e-06
7.40671e-08
-7.97637e-07
3.80912e-06
6.67531e-08
-1.06905e-06
3.30969e-06
6.8253e-08
-1.32685e-06
2.7843e-06
7.99407e-08
-1.50848e-06
2.2223e-06
1.00682e-07
-1.54937e-06
1.60805e-06
1.25687e-07
-1.40857e-06
9.44046e-07
1.45795e-07
-1.08325e-06
2.54113e-07
1.51966e-07
-6.05987e-07
-4.21699e-07
1.40904e-07
-4.89789e-08
-1.04897e-06
1.15549e-07
5.2925e-07
-1.60078e-06
8.22078e-08
1.08241e-06
-2.05936e-06
4.7483e-08
1.57262e-06
-2.40993e-06
1.64459e-08
1.97825e-06
-2.64647e-06
-6.16104e-09
2.3013e-06
-2.77926e-06
-1.75579e-08
2.55262e-06
-2.82253e-06
-2.14425e-08
2.73785e-06
-2.78504e-06
-1.71805e-08
2.85825e-06
-2.66777e-06
-4.81938e-09
2.90371e-06
-2.46092e-06
2.22469e-08
2.86825e-06
-2.1506e-06
6.27805e-08
2.75916e-06
-1.73448e-06
1.17364e-07
2.58625e-06
-1.21218e-06
1.87038e-07
2.36922e-06
-5.64584e-07
2.72925e-07
2.13325e-06
2.53727e-07
3.74783e-07
1.87178e-06
1.3139e-06
4.86529e-07
1.57402e-06
2.62176e-06
5.89474e-07
1.18699e-06
3.97454e-06
6.50972e-07
7.13718e-07
4.86403e-06
6.34151e-07
2.595e-07
4.8405e-06
5.1278e-07
2.86525e-06
2.45041e-07
4.09451e-08
2.09997e-06
9.39157e-08
4.69465e-08
4.13181e-06
1.53695e-07
-4.2786e-08
4.75346e-06
1.71496e-07
-1.90993e-07
4.79669e-06
1.73699e-07
-3.82131e-07
4.63755e-06
1.66664e-07
-6.15898e-07
4.33387e-06
1.6057e-07
-8.6561e-07
3.8947e-06
1.63574e-07
-1.06305e-06
3.32765e-06
1.78969e-07
-1.12287e-06
2.64028e-06
2.03386e-07
-9.82886e-07
1.85634e-06
2.25547e-07
-6.31636e-07
1.02402e-06
2.32343e-07
-1.13422e-07
2.0746e-07
2.17937e-07
5.11375e-07
-5.56047e-07
1.84946e-07
1.16937e-06
-1.22045e-06
1.40377e-07
1.80503e-06
-1.77723e-06
9.22704e-08
2.38363e-06
-2.2265e-06
4.68307e-08
2.88743e-06
-2.56987e-06
6.46184e-09
3.30347e-06
-2.80576e-06
-2.04229e-08
3.6397e-06
-2.94354e-06
-3.93661e-08
3.90839e-06
-2.99694e-06
-5.11974e-08
4.116e-06
-2.9742e-06
-5.61327e-08
4.26265e-06
-2.87788e-06
-5.39805e-08
4.34265e-06
-2.70392e-06
-4.40307e-08
4.34567e-06
-2.43895e-06
-2.51754e-08
4.26484e-06
-2.07212e-06
2.16846e-09
4.08571e-06
-1.60726e-06
5.17515e-08
3.80558e-06
-1.04574e-06
1.13584e-07
3.42652e-06
-3.78219e-07
1.92698e-07
2.96438e-06
4.24651e-07
2.91517e-07
2.45508e-06
1.41578e-06
4.08233e-07
1.92119e-06
2.62789e-06
5.29309e-07
1.356e-06
3.9197e-06
6.22276e-07
7.72537e-07
4.81624e-06
6.33844e-07
2.62015e-07
4.83302e-06
5.20705e-07
2.88465e-06
2.45232e-07
-7.31811e-08
2.06324e-06
1.09192e-07
-2.54494e-07
4.11309e-06
1.99464e-07
-5.3659e-07
4.79618e-06
2.38857e-07
-8.69626e-07
4.87515e-06
2.54104e-07
-1.20494e-06
4.71639e-06
2.56071e-07
-1.47858e-06
4.34633e-06
2.60846e-07
-1.60178e-06
3.74237e-06
2.75217e-07
-1.49978e-06
2.93298e-06
2.9233e-07
-1.15316e-06
1.99614e-06
2.97136e-07
-6.0616e-07
1.03089e-06
2.78006e-07
6.35352e-08
1.18925e-07
2.34955e-07
7.68587e-07
-6.75852e-07
1.77837e-07
1.44395e-06
-1.34922e-06
1.17431e-07
2.06437e-06
-1.90189e-06
6.06875e-08
2.62298e-06
-2.34607e-06
9.94339e-09
3.11519e-06
-2.69161e-06
-2.73495e-08
3.54341e-06
-2.94156e-06
-5.67519e-08
3.91564e-06
-3.0996e-06
-7.85974e-08
4.2419e-06
-3.17607e-06
-9.39193e-08
4.52724e-06
-3.17882e-06
-1.03655e-07
4.77141e-06
-3.11051e-06
-1.08039e-07
4.96905e-06
-2.96878e-06
-1.06924e-07
5.10792e-06
-2.74334e-06
-9.96356e-08
5.17284e-06
-2.41883e-06
-8.52219e-08
5.15207e-06
-1.98929e-06
-6.2228e-08
5.03081e-06
-1.45654e-06
-2.96398e-08
4.79223e-06
-8.21785e-07
1.44675e-08
4.4173e-06
-8.40763e-08
8.06786e-08
3.89365e-06
7.82952e-07
1.65403e-07
3.23549e-06
1.80131e-06
2.72985e-07
2.47882e-06
2.98838e-06
3.97066e-07
1.67905e-06
4.21016e-06
5.10845e-07
9.15875e-07
5.0269e-06
5.5453e-07
2.89892e-07
4.99407e-06
4.67137e-07
2.96009e-06
2.16372e-07
-1.11216e-07
2.04706e-06
1.2675e-07
-3.92413e-07
4.14276e-06
2.51011e-07
-7.8934e-07
4.87967e-06
3.12959e-07
-1.20818e-06
4.95428e-06
3.39349e-07
-1.54004e-06
4.70094e-06
3.47104e-07
-1.66482e-06
4.1161e-06
3.54866e-07
-1.51599e-06
3.23375e-06
3.59617e-07
-1.11412e-06
2.18571e-06
3.45161e-07
-5.45144e-07
1.12399e-06
3.02864e-07
8.84386e-08
1.58664e-07
2.38297e-07
7.13732e-07
-6.71714e-07
1.64999e-07
1.29935e-06
-1.35742e-06
9.56403e-08
1.83289e-06
-1.91874e-06
3.57022e-08
2.31991e-06
-2.37589e-06
-1.32591e-08
2.76566e-06
-2.74221e-06
-4.9819e-08
3.17639e-06
-3.02292e-06
-7.96141e-08
3.5541e-06
-3.21686e-06
-1.02587e-07
3.90297e-06
-3.32905e-06
-1.19595e-07
4.22534e-06
-3.36691e-06
-1.31697e-07
4.51892e-06
-3.33325e-06
-1.39316e-07
4.778e-06
-3.22713e-06
-1.42609e-07
4.99361e-06
-3.04311e-06
-1.41442e-07
5.15198e-06
-2.76657e-06
-1.35303e-07
5.23678e-06
-2.3804e-06
-1.23402e-07
5.23207e-06
-1.87997e-06
-1.04787e-07
5.11965e-06
-1.2659e-06
-7.84021e-08
4.88112e-06
-5.40572e-07
-4.2871e-08
4.49862e-06
2.96315e-07
1.92172e-09
3.95687e-06
1.25275e-06
7.17913e-08
3.25626e-06
2.34216e-06
1.5968e-07
2.43354e-06
3.54516e-06
2.6605e-07
1.57793e-06
4.69414e-06
3.72058e-07
8.10222e-07
5.36986e-06
4.25589e-07
2.25437e-07
5.21527e-06
3.64616e-07
3.02201e-06
1.64216e-07
-1.48924e-07
2.05433e-06
1.40957e-07
-4.92945e-07
4.18982e-06
2.96469e-07
-9.25781e-07
4.93406e-06
3.78098e-07
-1.33236e-06
4.94997e-06
4.10662e-07
-1.57694e-06
4.53036e-06
4.15059e-07
-1.5584e-06
3.69172e-06
4.05777e-07
-1.29685e-06
2.5991e-06
3.73001e-07
-8.89071e-07
1.46714e-06
3.10616e-07
-4.33241e-07
4.39217e-07
2.28715e-07
1.59235e-08
-4.34389e-07
1.43647e-07
4.37816e-07
-1.16115e-06
6.73039e-08
8.44769e-07
-1.76645e-06
1.85411e-09
1.23921e-06
-2.27175e-06
-4.1635e-08
1.63101e-06
-2.68936e-06
-7.85287e-08
2.02043e-06
-3.02382e-06
-1.07985e-07
2.40373e-06
-3.2753e-06
-1.3109e-07
2.77733e-06
-3.44192e-06
-1.48698e-07
3.13909e-06
-3.52934e-06
-1.61618e-07
3.48632e-06
-3.54373e-06
-1.70552e-07
3.81441e-06
-3.48568e-06
-1.75819e-07
4.11592e-06
-3.35123e-06
-1.77552e-07
4.37852e-06
-3.1302e-06
-1.75666e-07
4.5848e-06
-2.80301e-06
-1.70006e-07
4.71498e-06
-2.35065e-06
-1.60118e-07
4.74635e-06
-1.76599e-06
-1.45564e-07
4.65544e-06
-1.04948e-06
-1.25743e-07
4.42537e-06
-2.11405e-07
-9.93361e-08
4.04188e-06
7.42824e-07
-6.33052e-08
3.50727e-06
1.79992e-06
-1.29209e-08
2.83692e-06
2.95598e-06
5.60791e-08
2.07741e-06
4.16144e-06
1.42717e-07
1.32229e-06
5.2157e-06
2.33104e-07
6.63432e-07
5.74222e-06
2.8631e-07
1.73462e-07
5.45634e-06
2.48924e-07
3.0883e-06
1.06868e-07
-1.6607e-07
2.0715e-06
1.48221e-07
-5.27416e-07
4.22248e-06
3.28333e-07
-9.40187e-07
4.92329e-06
4.23324e-07
-1.29498e-06
4.85323e-06
4.51439e-07
-1.47221e-06
4.27358e-06
4.34024e-07
-1.44596e-06
3.28055e-06
3.84944e-07
-1.29249e-06
2.13899e-06
3.06603e-07
-1.09461e-06
1.05743e-06
2.1173e-07
-8.90431e-07
1.15917e-07
1.18972e-07
-6.83489e-07
-6.81023e-07
3.95251e-08
-4.58864e-07
-1.3645e-06
-2.1452e-08
-2.07753e-07
-1.95236e-06
-6.53738e-08
7.22149e-08
-2.45246e-06
-9.94186e-08
3.7495e-07
-2.86618e-06
-1.26072e-07
6.91015e-07
-3.19301e-06
-1.4702e-07
1.012e-06
-3.43323e-06
-1.63193e-07
1.33347e-06
-3.58841e-06
-1.75108e-07
1.6535e-06
-3.6662e-06
-1.83293e-07
1.96949e-06
-3.67172e-06
-1.8813e-07
2.27753e-06
-3.60411e-06
-1.89732e-07
2.57197e-06
-3.45767e-06
-1.88144e-07
2.84334e-06
-3.21846e-06
-1.8327e-07
3.07714e-06
-2.86195e-06
-1.75027e-07
3.25489e-06
-2.36521e-06
-1.63407e-07
3.35052e-06
-1.71293e-06
-1.48927e-07
3.33222e-06
-8.98977e-07
-1.3249e-07
3.16712e-06
6.77715e-08
-1.14429e-07
2.85165e-06
1.15048e-06
-9.26224e-08
2.39587e-06
2.31717e-06
-6.20177e-08
1.83969e-06
3.52765e-06
-1.62079e-08
1.25604e-06
4.70162e-06
4.25962e-08
7.33889e-07
5.62984e-06
1.07182e-07
3.11861e-07
6.01235e-06
1.51194e-07
4.57368e-08
5.58715e-06
1.34664e-07
3.08028e-06
5.28684e-08
-1.21125e-07
2.05623e-06
1.35759e-07
-4.18047e-07
4.20231e-06
3.16717e-07
-7.82556e-07
4.88058e-06
4.06977e-07
-1.1273e-06
4.78333e-06
4.14532e-07
-1.39004e-06
4.17298e-06
3.63331e-07
-1.56749e-06
3.17945e-06
2.78555e-07
-1.69204e-06
2.08339e-06
1.80112e-07
-1.77791e-06
1.0561e-06
8.71196e-08
-1.81058e-06
1.38398e-07
1.00743e-08
-1.78731e-06
-6.61399e-07
-4.30145e-08
-1.69563e-06
-1.37366e-06
-8.265e-08
-1.53873e-06
-1.99722e-06
-1.12158e-07
-1.32949e-06
-2.52667e-06
-1.35158e-07
-1.08442e-06
-2.95751e-06
-1.53853e-07
-8.19152e-07
-3.28939e-06
-1.6899e-07
-5.45488e-07
-3.52627e-06
-1.80722e-07
-2.68046e-07
-3.67687e-06
-1.89079e-07
1.09644e-08
-3.751e-06
-1.94305e-07
2.88463e-07
-3.75299e-06
-1.96312e-07
5.61317e-07
-3.68214e-06
-1.94917e-07
8.26385e-07
-3.53287e-06
-1.89978e-07
1.07894e-06
-3.28984e-06
-1.81286e-07
1.31325e-06
-2.92783e-06
-1.68567e-07
1.52252e-06
-2.42286e-06
-1.5178e-07
1.691e-06
-1.74983e-06
-1.31781e-07
1.79129e-06
-8.88657e-07
-1.10885e-07
1.78964e-06
1.61143e-07
-9.20815e-08
1.6573e-06
1.35858e-06
-7.62249e-08
1.39748e-06
2.63635e-06
-5.99624e-08
1.05179e-06
3.90976e-06
-3.71639e-08
6.89596e-07
5.06509e-06
-2.10508e-09
3.86153e-07
5.89994e-06
3.2537e-08
1.45532e-07
6.1916e-06
6.0637e-08
1.17908e-08
5.66299e-06
5.71017e-08
3.07008e-06
2.10453e-08
5.47386e-08
1.90358e-06
9.72477e-08
3.59681e-08
3.97802e-06
2.42524e-07
-9.83433e-08
4.70098e-06
3.13504e-07
-2.92721e-07
4.67262e-06
3.04774e-07
-5.56056e-07
4.19363e-06
2.42449e-07
-8.75108e-07
3.34043e-06
1.57873e-07
-1.20606e-06
2.34002e-06
7.41537e-08
-1.50161e-06
1.34634e-06
5.15026e-09
-1.73296e-06
4.13568e-07
-4.39731e-08
-1.86883e-06
-4.47476e-07
-7.81932e-08
-1.91195e-06
-1.22738e-06
-1.03294e-07
-1.87493e-06
-1.91063e-06
-1.23737e-07
-1.77654e-06
-2.4834e-06
-1.41767e-07
-1.6364e-06
-2.93989e-06
-1.57857e-07
-1.47117e-06
-3.28317e-06
-1.71558e-07
-1.29287e-06
-3.5223e-06
-1.82354e-07
-1.10724e-06
-3.67255e-06
-1.90043e-07
-9.17889e-07
-3.74582e-06
-1.94623e-07
-7.28316e-07
-3.74688e-06
-1.95777e-07
-5.41014e-07
-3.67636e-06
-1.93166e-07
-3.57118e-07
-3.53036e-06
-1.86484e-07
-1.76078e-07
-3.2956e-06
-1.75358e-07
5.97236e-09
-2.95083e-06
-1.59133e-07
1.93617e-07
-2.47324e-06
-1.3736e-07
3.86086e-07
-1.83193e-06
-1.10478e-07
5.70777e-07
-9.92323e-07
-8.11724e-08
7.12584e-07
7.35753e-08
-5.4436e-08
7.81837e-07
1.3241e-06
-3.50464e-08
7.43114e-07
2.69854e-06
-2.38046e-08
6.06918e-07
4.06146e-06
-1.59172e-08
4.24052e-07
5.25216e-06
-4.6486e-09
2.51111e-07
6.06394e-06
8.52942e-09
1.02883e-07
6.31879e-06
2.06368e-08
1.75101e-08
5.72658e-06
2.13235e-08
3.07736e-06
9.6406e-09
1.39916e-07
1.70417e-06
5.87632e-08
3.33678e-07
3.62925e-06
1.54418e-07
4.51579e-07
4.38055e-06
2.02014e-07
4.94738e-07
4.43838e-06
1.90605e-07
4.2084e-07
4.12304e-06
1.4404e-07
2.08686e-07
3.46623e-06
8.59635e-08
-8.71996e-08
2.60361e-06
3.19491e-08
-3.96788e-07
1.66571e-06
-1.00699e-08
-6.65429e-07
7.22111e-07
-4.01472e-08
-8.64241e-07
-1.86383e-07
-6.24863e-08
-9.80746e-07
-1.02839e-06
-8.26551e-08
-1.028e-06
-1.76035e-06
-1.03183e-07
-1.02345e-06
-2.36428e-06
-1.23797e-07
-9.83194e-07
-2.8372e-06
-1.43068e-07
-9.19215e-07
-3.18762e-06
-1.59631e-07
-8.3982e-07
-3.42903e-06
-1.72769e-07
-7.50761e-07
-3.57927e-06
-1.82426e-07
-6.56422e-07
-3.65162e-06
-1.88622e-07
-5.60243e-07
-3.65198e-06
-1.91165e-07
-4.64634e-07
-3.58227e-06
-1.89777e-07
-3.7093e-07
-3.44005e-06
-1.84088e-07
-2.77887e-07
-3.21517e-06
-1.73551e-07
-1.79469e-07
-2.8921e-06
-1.57212e-07
-6.65171e-08
-2.45236e-06
-1.33889e-07
7.18311e-08
-1.8675e-06
-1.02814e-07
2.43267e-07
-1.09842e-06
-6.53543e-08
4.47086e-07
-1.04117e-07
-2.61223e-08
6.33898e-07
1.12967e-06
7.63577e-09
7.52748e-07
2.55063e-06
2.90813e-08
7.59074e-07
4.01834e-06
3.6825e-08
6.5273e-07
5.32187e-06
3.6671e-08
4.73087e-07
6.20861e-06
3.50254e-08
2.71393e-07
6.48743e-06
3.30863e-08
9.4878e-08
5.87467e-06
2.84126e-08
3.15499e-06
1.70735e-08
9.46659e-08
1.57004e-06
3.87373e-08
2.78498e-07
3.34773e-06
9.70801e-08
4.54256e-07
4.07801e-06
1.26224e-07
5.90178e-07
4.18122e-06
1.2071e-07
6.5401e-07
3.96202e-06
9.66948e-08
6.0531e-07
3.44741e-06
6.70687e-08
4.74843e-07
2.69465e-06
3.90457e-08
3.20623e-07
1.8038e-06
1.58045e-08
1.89804e-07
8.57168e-07
-4.50576e-09
1.01158e-07
-7.19692e-08
-2.59906e-08
5.12219e-08
-9.2712e-07
-5.15229e-08
2.7748e-08
-1.65735e-06
-7.96785e-08
2.03631e-08
-2.24988e-06
-1.07152e-07
2.42542e-08
-2.70985e-06
-1.31369e-07
3.85076e-08
-3.05083e-06
-1.5117e-07
6.2894e-08
-3.28709e-06
-1.6644e-07
9.57525e-08
-3.43452e-06
-1.77726e-07
1.34679e-07
-3.5052e-06
-1.85462e-07
1.77032e-07
-3.50464e-06
-1.89795e-07
2.20069e-07
-3.43479e-06
-1.90631e-07
2.61442e-07
-3.2939e-06
-1.87632e-07
2.99998e-07
-3.07371e-06
-1.80112e-07
3.36833e-07
-2.76203e-06
-1.67e-07
3.76441e-07
-2.34531e-06
-1.46725e-07
4.28417e-07
-1.80192e-06
-1.17605e-07
5.07136e-07
-1.09794e-06
-7.9199e-08
6.24431e-07
-1.87841e-07
-3.34985e-08
7.721e-07
9.68042e-07
1.41273e-08
9.0517e-07
2.36216e-06
5.56765e-08
9.55591e-07
3.88771e-06
8.06043e-08
8.72083e-07
5.31736e-06
8.85047e-08
6.59906e-07
6.33544e-06
8.58255e-08
3.91863e-07
6.67908e-06
7.68533e-08
1.38256e-07
6.06695e-06
6.17384e-08
3.2596e-06
3.38636e-08
5.27218e-09
1.52947e-06
3.45764e-08
4.30228e-08
3.23207e-06
7.73069e-08
9.38125e-08
3.92792e-06
9.87882e-08
1.37842e-07
4.03585e-06
1.00868e-07
1.64168e-07
3.84299e-06
9.22835e-08
1.62115e-07
3.37035e-06
7.87536e-08
1.52073e-07
2.6416e-06
6.27814e-08
1.61935e-07
1.74973e-06
4.3952e-08
2.01727e-07
7.97632e-07
1.95377e-08
2.62801e-07
-1.21707e-07
-1.1511e-08
3.21441e-07
-9.39879e-07
-4.60363e-08
3.71108e-07
-1.62676e-06
-8.04058e-08
4.11792e-07
-2.18048e-06
-1.10227e-07
4.48922e-07
-2.61312e-06
-1.33998e-07
4.88892e-07
-2.93884e-06
-1.52093e-07
5.35858e-07
-3.16868e-06
-1.65506e-07
5.90335e-07
-3.31372e-06
-1.75402e-07
6.50856e-07
-3.38326e-06
-1.82585e-07
7.15099e-07
-3.38157e-06
-1.87444e-07
7.80053e-07
-3.30989e-06
-1.89978e-07
8.42381e-07
-3.16654e-06
-1.89808e-07
8.98689e-07
-2.94401e-06
-1.86125e-07
9.45938e-07
-2.6317e-06
-1.77692e-07
9.82712e-07
-2.21944e-06
-1.62752e-07
1.01101e-06
-1.69112e-06
-1.39183e-07
1.03803e-06
-1.01967e-06
-1.05353e-07
1.07517e-06
-1.6421e-07
-6.07929e-08
1.12921e-06
9.23046e-07
-8.95865e-09
1.17994e-06
2.26416e-06
4.75038e-08
1.17676e-06
3.79821e-06
9.31101e-08
1.05663e-06
5.31837e-06
1.19735e-07
7.99079e-07
6.4656e-06
1.28075e-07
4.74516e-07
6.88342e-06
1.20894e-07
1.64433e-07
6.28087e-06
9.67692e-08
3.37597e-06
4.83812e-08
-3.53999e-08
1.52747e-06
3.6686e-08
-1.0044e-07
3.21741e-06
7.91287e-08
-1.70027e-07
3.89572e-06
1.01326e-07
-2.32671e-07
3.98984e-06
1.08259e-07
-2.72428e-07
3.77783e-06
1.04586e-07
-2.67653e-07
3.27179e-06
9.35114e-08
-2.06975e-07
2.5052e-06
7.55065e-08
-9.69551e-08
1.59042e-06
4.91267e-08
3.95329e-08
6.47078e-07
1.39171e-08
1.7484e-07
-2.32177e-07
-2.49776e-08
2.94305e-07
-9.96393e-07
-6.30921e-08
3.96389e-07
-1.63287e-06
-9.61174e-08
4.87252e-07
-2.14981e-06
-1.21682e-07
5.74671e-07
-2.56051e-06
-1.40184e-07
6.64802e-07
-2.87588e-06
-1.53245e-07
7.60956e-07
-3.10239e-06
-1.62596e-07
8.63043e-07
-3.24621e-06
-1.69749e-07
9.69139e-07
-3.31382e-06
-1.75683e-07
1.07646e-06
-3.30815e-06
-1.80888e-07
1.18135e-06
-3.22956e-06
-1.85358e-07
1.27917e-06
-3.07589e-06
-1.8861e-07
1.36439e-06
-2.83964e-06
-1.89726e-07
1.43149e-06
-2.51165e-06
-1.87283e-07
1.47604e-06
-2.0847e-06
-1.79428e-07
1.4957e-06
-1.54719e-06
-1.63723e-07
1.49118e-06
-8.77692e-07
-1.37593e-07
1.46731e-06
-4.15832e-08
-9.88689e-08
1.4292e-06
1.0085e-06
-4.74188e-08
1.37587e-06
2.30532e-06
1.2193e-08
1.28017e-06
3.82024e-06
7.38567e-08
1.09976e-06
5.37876e-06
1.20399e-07
8.11624e-07
6.60842e-06
1.45794e-07
4.70629e-07
7.07782e-06
1.47068e-07
1.56381e-07
6.4767e-06
1.18773e-07
3.47721e-06
5.51167e-08
-4.27141e-08
1.52972e-06
3.97563e-08
-1.4334e-07
3.22949e-06
8.80033e-08
-2.64782e-07
3.90306e-06
1.13669e-07
-3.76588e-07
3.98026e-06
1.21031e-07
-4.48339e-07
3.73539e-06
1.13899e-07
-4.49112e-07
3.17654e-06
9.5824e-08
-3.79437e-07
2.36763e-06
6.77372e-08
-2.6329e-07
1.44381e-06
3.032e-08
-1.30471e-07
5.26393e-07
-1.22725e-08
-2.70712e-09
-3.07682e-07
-5.241e-08
1.14485e-07
-1.0268e-06
-8.69468e-08
2.24491e-07
-1.6302e-06
-1.12839e-07
3.33677e-07
-2.12901e-06
-1.3015e-07
4.47843e-07
-2.53421e-06
-1.40637e-07
5.70792e-07
-2.8524e-06
-1.46595e-07
7.04123e-07
-3.08564e-06
-1.50262e-07
8.46132e-07
-3.23497e-06
-1.53429e-07
9.93782e-07
-3.30449e-06
-1.57158e-07
1.14356e-06
-3.29608e-06
-1.62019e-07
1.29093e-06
-3.20906e-06
-1.68043e-07
1.42964e-06
-3.0401e-06
-1.74679e-07
1.55174e-06
-2.78098e-06
-1.80937e-07
1.64949e-06
-2.42425e-06
-1.85314e-07
1.71658e-06
-1.96607e-06
-1.85893e-07
1.74795e-06
-1.39879e-06
-1.7995e-07
1.7393e-06
-7.05105e-07
-1.64129e-07
1.68762e-06
1.45028e-07
-1.35141e-07
1.59263e-06
1.19414e-06
-9.08858e-08
1.45518e-06
2.47535e-06
-3.2837e-08
1.27096e-06
3.97168e-06
3.25468e-08
1.02793e-06
5.52912e-06
9.25126e-08
7.24768e-07
6.77792e-06
1.33554e-07
4.01334e-07
7.25535e-06
1.45799e-07
1.2364e-07
6.63468e-06
1.1949e-07
3.5483e-06
5.19692e-08
-2.08584e-08
1.51065e-06
3.92246e-08
-9.35709e-08
3.21128e-06
9.03635e-08
-1.96348e-07
3.88812e-06
1.17276e-07
-2.9578e-07
3.95785e-06
1.21483e-07
-3.61442e-07
3.69343e-06
1.07356e-07
-3.71923e-07
3.10684e-06
7.99764e-08
-3.34076e-07
2.28709e-06
4.25378e-08
-2.67678e-07
1.37935e-06
-2.09476e-09
-1.94225e-07
4.95717e-07
-4.29371e-08
-1.19913e-07
-3.03283e-07
-7.88792e-08
-4.37245e-08
-9.98065e-07
-1.05094e-07
3.86792e-08
-1.59169e-06
-1.21096e-07
1.31887e-07
-2.0938e-06
-1.28598e-07
2.39317e-07
-2.51171e-06
-1.30108e-07
3.62829e-07
-2.84789e-06
-1.28208e-07
5.0274e-07
-3.10031e-06
-1.25429e-07
6.56448e-07
-3.26503e-06
-1.23843e-07
8.19822e-07
-3.34343e-06
-1.24633e-07
9.8803e-07
-3.33605e-06
-1.28442e-07
1.15495e-06
-3.24072e-06
-1.35462e-07
1.31198e-06
-3.05214e-06
-1.4519e-07
1.44804e-06
-2.76054e-06
-1.56685e-07
1.55407e-06
-2.36204e-06
-1.68429e-07
1.6245e-06
-1.85842e-06
-1.78247e-07
1.65537e-06
-1.24698e-06
-1.8285e-07
1.64206e-06
-5.13841e-07
-1.78133e-07
1.57864e-06
3.6826e-07
-1.60033e-07
1.46166e-06
1.43622e-06
-1.25392e-07
1.29012e-06
2.72025e-06
-7.37502e-08
1.06981e-06
4.20196e-06
-1.04703e-08
8.11898e-07
5.73244e-06
5.40106e-08
5.37836e-07
6.94713e-06
1.04237e-07
2.74473e-07
7.39246e-06
1.25623e-07
7.22031e-08
6.73132e-06
1.04986e-07
3.57687e-06
4.27852e-08
6.63125e-09
1.4679e-06
3.54029e-08
-1.43988e-08
3.14695e-06
8.47894e-08
-6.54806e-08
3.82882e-06
1.09923e-07
-1.21836e-07
3.90445e-06
1.09375e-07
-1.62864e-07
3.6458e-06
8.83445e-08
-1.83659e-07
3.07374e-06
5.366e-08
-1.89219e-07
2.28161e-06
1.08325e-08
-1.88952e-07
1.41063e-06
-3.1741e-08
-1.85446e-07
5.6145e-07
-6.94279e-08
-1.76108e-07
-2.15588e-07
-9.72258e-08
-1.56336e-07
-9.04669e-07
-1.13363e-07
-1.21853e-07
-1.50742e-06
-1.1895e-07
-6.95917e-08
-2.02966e-06
-1.16609e-07
2.64997e-09
-2.47512e-06
-1.09049e-07
9.67334e-08
-2.84344e-06
-9.87594e-08
2.13989e-07
-3.12938e-06
-8.84106e-08
3.53386e-07
-3.32415e-06
-8.05168e-08
5.10084e-07
-3.42369e-06
-7.66871e-08
6.77441e-07
-3.42588e-06
-7.77783e-08
8.46919e-07
-3.32602e-06
-8.44292e-08
1.00621e-06
-3.11521e-06
-9.64627e-08
1.13952e-06
-2.7808e-06
-1.13266e-07
1.23688e-06
-2.32632e-06
-1.33284e-07
1.29478e-06
-1.76277e-06
-1.53724e-07
1.31206e-06
-1.09407e-06
-1.70346e-07
1.28604e-06
-3.09742e-07
-1.78227e-07
1.21238e-06
6.14401e-07
-1.72658e-07
1.08752e-06
1.71059e-06
-1.49734e-07
9.13041e-07
3.00215e-06
-1.07767e-07
7.02289e-07
4.46213e-06
-4.99159e-08
4.82383e-07
5.93816e-06
1.35439e-08
2.85293e-07
7.07569e-06
6.78182e-08
1.18503e-07
7.46289e-06
9.57214e-08
1.53386e-08
6.75145e-06
8.25302e-08
3.56047e-06
3.12506e-08
4.17116e-08
1.39703e-06
2.84497e-08
9.40805e-08
3.02331e-06
7.06914e-08
1.23373e-07
3.70816e-06
9.08945e-08
1.38814e-07
3.80345e-06
8.51484e-08
1.47365e-07
3.57742e-06
5.94844e-08
1.35158e-07
3.06355e-06
2.21094e-08
9.84656e-08
2.3368e-06
-1.87397e-08
4.31624e-08
1.52208e-06
-5.63763e-08
-1.9745e-08
7.09784e-07
-8.56462e-08
-7.90059e-08
-5.32334e-08
-1.03308e-07
-1.26037e-07
-7.48534e-07
-1.09318e-07
-1.56125e-07
-1.3719e-06
-1.05653e-07
-1.66822e-07
-1.92422e-06
-9.4965e-08
-1.56018e-07
-2.40692e-06
-7.9242e-08
-1.19879e-07
-2.81952e-06
-6.03167e-08
-5.31066e-08
-3.15561e-06
-4.08254e-08
4.75537e-08
-3.40106e-06
-2.40379e-08
1.77086e-07
-3.54081e-06
-1.27233e-08
3.2616e-07
-3.56693e-06
-8.33381e-09
4.82697e-07
-3.47076e-06
-1.21107e-08
6.29189e-07
-3.23733e-06
-2.46733e-08
7.45201e-07
-2.85096e-06
-4.61266e-08
8.19265e-07
-2.32585e-06
-7.47706e-08