/*--------------------------------*- C++ -*----------------------------------*\
| =========                 |                                                 |
| \\      /  F ield         | OpenFOAM: The Open Source CFD Toolbox           |
|  \\    /   O peration     | Version:  v1912                                 |
|   \\  /    A nd           | Website:  www.openfoam.com                      |
|    \\/     M anipulation  |                                                 |
\*---------------------------------------------------------------------------*/
FoamFile
{
    version     2.0;
    format      ascii;
    class       volVectorField;
    location    "74/oil";
    object      U;
}
// * * * * * * * * * * * * * * * * * * * * * * * * * * * * * * * * * * * * * //

dimensions      [0 1 -1 0 0 0 0];


internalField   nonuniform List<vector> 
35580
(
(-7.87652e-10 1.60251e-09 -8.02948e-10)
(8.76829e-10 1.43265e-09 -1.94925e-09)
(7.64332e-09 1.40076e-09 -3.1442e-09)
(1.82919e-08 1.75228e-09 -4.35211e-09)
(3.12147e-08 2.31971e-09 -5.32347e-09)
(4.46103e-08 2.98919e-09 -5.97597e-09)
(5.68098e-08 3.6965e-09 -6.30372e-09)
(6.63668e-08 4.41142e-09 -6.34418e-09)
(7.20972e-08 5.11512e-09 -6.15426e-09)
(7.32175e-08 5.79178e-09 -5.78261e-09)
(6.92973e-08 6.4024e-09 -5.28488e-09)
(6.03663e-08 6.91914e-09 -4.7879e-09)
(4.69664e-08 7.32446e-09 -4.32624e-09)
(2.99369e-08 7.63271e-09 -3.99694e-09)
(1.05875e-08 7.80274e-09 -3.82452e-09)
(-9.61079e-09 7.82367e-09 -3.82769e-09)
(-2.90267e-08 7.64727e-09 -3.9961e-09)
(-4.6108e-08 7.33481e-09 -4.31541e-09)
(-5.96133e-08 6.9049e-09 -4.75698e-09)
(-6.86545e-08 6.39855e-09 -5.26083e-09)
(-7.27446e-08 5.79834e-09 -5.75356e-09)
(-7.17657e-08 5.11379e-09 -6.14195e-09)
(-6.61323e-08 4.40985e-09 -6.33116e-09)
(-5.66654e-08 3.69675e-09 -6.29678e-09)
(-4.45369e-08 2.98885e-09 -5.97042e-09)
(-3.12004e-08 2.32063e-09 -5.31818e-09)
(-1.83175e-08 1.75191e-09 -4.34404e-09)
(-7.68866e-09 1.39195e-09 -3.12936e-09)
(-9.08307e-10 1.40722e-09 -1.93275e-09)
(7.75234e-10 1.54756e-09 -7.95564e-10)
(4.34751e-10 -1.56159e-09 4.26523e-10)
(8.37546e-09 -9.31443e-09 3.77107e-10)
(2.43039e-08 -1.54609e-08 -1.76532e-10)
(4.64639e-08 -1.87897e-08 -8.99087e-10)
(7.22221e-08 -1.98399e-08 -1.43044e-09)
(9.84928e-08 -1.91873e-08 -1.61035e-09)
(1.22183e-07 -1.73025e-08 -1.40197e-09)
(1.40508e-07 -1.45368e-08 -8.33125e-10)
(1.51161e-07 -1.11879e-08 2.89596e-11)
(1.5252e-07 -7.53176e-09 1.08591e-09)
(1.4369e-07 -3.86417e-09 2.32026e-09)
(1.2469e-07 -4.99653e-10 3.47836e-09)
(9.66961e-08 2.27759e-09 4.49593e-09)
(6.15475e-08 4.30734e-09 5.22687e-09)
(2.17506e-08 5.38612e-09 5.61334e-09)
(-1.97728e-08 5.41215e-09 5.62683e-09)
(-5.97186e-08 4.29594e-09 5.24743e-09)
(-9.49615e-08 2.23146e-09 4.54003e-09)
(-1.23009e-07 -6.02077e-10 3.54917e-09)
(-1.42121e-07 -3.92641e-09 2.39274e-09)
(-1.51248e-07 -7.5878e-09 1.17937e-09)
(-1.50153e-07 -1.12383e-08 9.58182e-11)
(-1.39725e-07 -1.4565e-08 -7.69621e-10)
(-1.21638e-07 -1.73146e-08 -1.35066e-09)
(-9.8156e-08 -1.92025e-08 -1.56674e-09)
(-7.20572e-08 -1.98711e-08 -1.39116e-09)
(-4.64254e-08 -1.88506e-08 -8.6691e-10)
(-2.43229e-08 -1.55593e-08 -1.49764e-10)
(-8.39117e-09 -9.4285e-09 3.89793e-10)
(-4.33729e-10 -1.68264e-09 4.12871e-10)
(1.63789e-09 -1.49713e-08 1.63783e-09)
(1.63591e-08 -3.94497e-08 2.89658e-09)
(3.99789e-08 -5.75225e-08 3.16123e-09)
(7.0326e-08 -6.89913e-08 3.12382e-09)
(1.04203e-07 -7.50815e-08 3.18777e-09)
(1.38079e-07 -7.69645e-08 3.53954e-09)
(1.68239e-07 -7.56437e-08 4.24498e-09)
(1.91238e-07 -7.19342e-08 5.29792e-09)
(2.04179e-07 -6.65409e-08 6.63265e-09)
(2.04999e-07 -6.01168e-08 8.13206e-09)
(1.92511e-07 -5.33187e-08 9.78571e-09)
(1.66677e-07 -4.68516e-08 1.13177e-08)
(1.29039e-07 -4.14244e-08 1.26134e-08)
(8.20411e-08 -3.74912e-08 1.35508e-08)
(2.89709e-08 -3.54077e-08 1.40495e-08)
(-2.6406e-08 -3.54107e-08 1.40839e-08)
(-7.97115e-08 -3.75778e-08 1.35802e-08)
(-1.2683e-07 -4.16221e-08 1.26573e-08)
(-1.64493e-07 -4.71245e-08 1.13633e-08)
(-1.90528e-07 -5.35446e-08 9.85985e-09)
(-2.03402e-07 -6.03172e-08 8.22378e-09)
(-2.02903e-07 -6.66836e-08 6.6965e-09)
(-1.90251e-07 -7.20262e-08 5.3594e-09)
(-1.67541e-07 -7.57047e-08 4.3018e-09)
(-1.37641e-07 -7.70229e-08 3.59107e-09)
(-1.03979e-07 -7.51668e-08 3.23763e-09)
(-7.0252e-08 -6.91268e-08 3.16584e-09)
(-3.99819e-08 -5.77134e-08 3.1896e-09)
(-1.63818e-08 -3.96438e-08 2.90037e-09)
(-1.65103e-09 -1.5099e-08 1.61838e-09)
(2.605e-09 -3.69454e-08 2.60073e-09)
(2.30359e-08 -8.59e-08 4.81532e-09)
(5.30822e-08 -1.20276e-07 5.63909e-09)
(8.98668e-08 -1.43056e-07 6.06042e-09)
(1.29704e-07 -1.56695e-07 6.55196e-09)
(1.68806e-07 -1.63094e-07 7.29715e-09)
(2.03167e-07 -1.63843e-07 8.36798e-09)
(2.29023e-07 -1.60267e-07 9.76534e-09)
(2.43151e-07 -1.53548e-07 1.14286e-08)
(2.43211e-07 -1.44788e-07 1.32371e-08)
(2.27805e-07 -1.35099e-07 1.51485e-08)
(1.96902e-07 -1.25544e-07 1.69228e-08)
(1.52289e-07 -1.1733e-07 1.84355e-08)
(9.67124e-08 -1.11288e-07 1.95039e-08)
(3.41186e-08 -1.08101e-07 2.00644e-08)
(-3.1197e-08 -1.08142e-07 2.01081e-08)
(-9.4095e-08 -1.11402e-07 1.95208e-08)
(-1.4976e-07 -1.17521e-07 1.84514e-08)
(-1.94411e-07 -1.25748e-07 1.69508e-08)
(-2.25543e-07 -1.35263e-07 1.5204e-08)
(-2.41331e-07 -1.44934e-07 1.32892e-08)
(-2.41622e-07 -1.53648e-07 1.14639e-08)
(-2.27831e-07 -1.60334e-07 9.80299e-09)
(-2.023e-07 -1.6389e-07 8.4061e-09)
(-1.68234e-07 -1.63153e-07 7.3376e-09)
(-1.29393e-07 -1.56803e-07 6.59621e-09)
(-8.97503e-08 -1.43235e-07 6.0944e-09)
(-5.30685e-08 -1.20507e-07 5.65118e-09)
(-2.3069e-08 -8.61069e-08 4.80057e-09)
(-2.62927e-09 -3.7105e-08 2.57167e-09)
(3.2897e-09 -6.5661e-08 3.28474e-09)
(2.80715e-08 -1.45183e-07 6.1408e-09)
(6.31727e-08 -1.99171e-07 7.31786e-09)
(1.04993e-07 -2.3545e-07 8.02588e-09)
(1.49368e-07 -2.5836e-07 8.7831e-09)
(1.92324e-07 -2.70739e-07 9.79858e-09)
(2.29676e-07 -2.74829e-07 1.11338e-08)
(2.575e-07 -2.72476e-07 1.27986e-08)
(2.72386e-07 -2.65341e-07 1.47308e-08)
(2.71825e-07 -2.54985e-07 1.68119e-08)
(2.54287e-07 -2.42972e-07 1.8944e-08)
(2.19668e-07 -2.30729e-07 2.09424e-08)
(1.69803e-07 -2.1993e-07 2.26635e-08)
(1.07758e-07 -2.11816e-07 2.38535e-08)
(3.79942e-08 -2.07551e-07 2.44771e-08)
(-3.48067e-08 -2.07612e-07 2.45302e-08)
(-1.04919e-07 -2.11901e-07 2.38752e-08)
(-1.6698e-07 -2.19975e-07 2.26756e-08)
(-2.16922e-07 -2.30752e-07 2.09921e-08)
(-2.51818e-07 -2.4297e-07 1.90024e-08)
(-2.69763e-07 -2.54986e-07 1.68595e-08)
(-2.70716e-07 -2.65342e-07 1.47706e-08)
(-2.56197e-07 -2.72492e-07 1.28409e-08)
(-2.28716e-07 -2.74862e-07 1.11754e-08)
(-1.91669e-07 -2.70811e-07 9.83608e-09)
(-1.48988e-07 -2.58486e-07 8.81873e-09)
(-1.04835e-07 -2.35651e-07 8.04349e-09)
(-6.31499e-08 -1.99401e-07 7.3054e-09)
(-2.81209e-08 -1.45326e-07 6.09343e-09)
(-3.32892e-09 -6.58426e-08 3.24028e-09)
(3.72681e-09 -9.91622e-08 3.73923e-09)
(3.15177e-08 -2.13697e-07 6.99187e-09)
(7.02783e-08 -2.8977e-07 8.36795e-09)
(1.15782e-07 -3.41122e-07 9.24322e-09)
(1.63459e-07 -3.74513e-07 1.01647e-08)
(2.09203e-07 -3.93979e-07 1.13617e-08)
(2.48727e-07 -4.02485e-07 1.28986e-08)
(2.78007e-07 -4.02409e-07 1.4793e-08)
(2.93516e-07 -3.95873e-07 1.69762e-08)
(2.92609e-07 -3.84862e-07 1.9333e-08)
(2.73704e-07 -3.71372e-07 2.17127e-08)
(2.36556e-07 -3.57217e-07 2.39772e-08)
(1.82834e-07 -3.44363e-07 2.59249e-08)
(1.15993e-07 -3.34476e-07 2.72659e-08)
(4.08661e-08 -3.29261e-07 2.79583e-08)
(-3.74999e-08 -3.29313e-07 2.80087e-08)
(-1.13014e-07 -3.34548e-07 2.7279e-08)
(-1.79811e-07 -3.44273e-07 2.59359e-08)
(-2.33629e-07 -3.5715e-07 2.40514e-08)
(-2.71098e-07 -3.71297e-07 2.17863e-08)
(-2.90441e-07 -3.848e-07 1.93955e-08)
(-2.91769e-07 -3.95837e-07 1.70327e-08)
(-2.76647e-07 -4.02418e-07 1.48481e-08)
(-2.47725e-07 -4.02534e-07 1.29559e-08)
(-2.0851e-07 -3.94078e-07 1.14078e-08)
(-1.63038e-07 -3.74658e-07 1.02024e-08)
(-1.15591e-07 -3.41317e-07 9.25196e-09)
(-7.02495e-08 -2.89959e-07 8.33418e-09)
(-3.1593e-08 -2.13753e-07 6.91507e-09)
(-3.78475e-09 -9.93638e-08 3.68074e-09)
(3.97651e-09 -1.35703e-07 3.99354e-09)
(3.3554e-08 -2.88254e-07 7.46087e-09)
(7.45522e-08 -3.88093e-07 8.9559e-09)
(1.22319e-07 -4.55595e-07 9.92406e-09)
(1.72034e-07 -5.00368e-07 1.09484e-08)
(2.19508e-07 -5.27842e-07 1.22841e-08)
(2.6042e-07 -5.4179e-07 1.39908e-08)
(2.90702e-07 -5.45131e-07 1.60967e-08)
(3.06754e-07 -5.4041e-07 1.85242e-08)
(3.05826e-07 -5.29979e-07 2.11582e-08)
(2.86273e-07 -5.16185e-07 2.38124e-08)
(2.47696e-07 -5.01224e-07 2.63496e-08)
(1.91542e-07 -4.87223e-07 2.85505e-08)
(1.21518e-07 -4.76062e-07 3.00565e-08)
(4.27781e-08 -4.70095e-07 3.08028e-08)
(-3.92929e-08 -4.70118e-07 3.08551e-08)
(-1.18462e-07 -4.76176e-07 3.00562e-08)
(-1.8843e-07 -4.87088e-07 2.85743e-08)
(-2.44682e-07 -5.0117e-07 2.6452e-08)
(-2.83604e-07 -5.16138e-07 2.39119e-08)
(-3.03618e-07 -5.29946e-07 2.12437e-08)
(-3.04987e-07 -5.40415e-07 1.86007e-08)
(-2.89331e-07 -5.4519e-07 1.61662e-08)
(-2.59412e-07 -5.41894e-07 1.40597e-08)
(-2.18808e-07 -5.27984e-07 1.23353e-08)
(-1.71597e-07 -5.00532e-07 1.09893e-08)
(-1.22108e-07 -4.55761e-07 9.92271e-09)
(-7.45135e-08 -3.88176e-07 8.89691e-09)
(-3.36403e-08 -2.88169e-07 7.36506e-09)
(-4.0407e-09 -1.35957e-07 3.93186e-09)
(4.05197e-09 -1.73719e-07 4.08554e-09)
(3.42606e-08 -3.6587e-07 7.62825e-09)
(7.60502e-08 -4.90359e-07 9.1734e-09)
(1.24572e-07 -5.74634e-07 1.01919e-08)
(1.74928e-07 -6.31445e-07 1.12772e-08)
(2.22934e-07 -6.67757e-07 1.27108e-08)
(2.64315e-07 -6.88195e-07 1.45649e-08)
(2.95041e-07 -6.96228e-07 1.68628e-08)
(3.11492e-07 -6.94759e-07 1.95235e-08)
(3.10841e-07 -6.86442e-07 2.24342e-08)
(2.91363e-07 -6.739e-07 2.53848e-08)
(2.52509e-07 -6.59578e-07 2.81826e-08)
(1.95402e-07 -6.45622e-07 3.06513e-08)
(1.23893e-07 -6.33798e-07 3.23371e-08)
(4.35717e-08 -6.27471e-07 3.31598e-08)
(-4.01206e-08 -6.27608e-07 3.32445e-08)
(-1.20895e-07 -6.34139e-07 3.2352e-08)
(-1.92328e-07 -6.45603e-07 3.07062e-08)
(-2.49494e-07 -6.59631e-07 2.82919e-08)
(-2.88703e-07 -6.73962e-07 2.54822e-08)
(-3.08636e-07 -6.86508e-07 2.25209e-08)
(-3.0973e-07 -6.9486e-07 1.96021e-08)
(-2.93673e-07 -6.96387e-07 1.69331e-08)
(-2.63303e-07 -6.88407e-07 1.46362e-08)
(-2.22222e-07 -6.67991e-07 1.27651e-08)
(-1.74473e-07 -6.31672e-07 1.13069e-08)
(-1.24341e-07 -5.74795e-07 1.01664e-08)
(-7.59999e-08 -4.90329e-07 9.09569e-09)
(-3.43461e-08 -3.65642e-07 7.5322e-09)
(-4.12199e-09 -1.74091e-07 4.03148e-09)
(3.98647e-09 -2.11815e-07 4.01939e-09)
(3.36958e-08 -4.43648e-07 7.49958e-09)
(7.47473e-08 -5.92924e-07 9.03584e-09)
(1.22361e-07 -6.94148e-07 1.00905e-08)
(1.71754e-07 -7.63302e-07 1.12158e-08)
(2.18879e-07 -8.09089e-07 1.26906e-08)
(2.59591e-07 -8.37012e-07 1.46357e-08)
(2.89993e-07 -8.51033e-07 1.70718e-08)
(3.06533e-07 -8.54365e-07 1.99127e-08)
(3.06348e-07 -8.49859e-07 2.30516e-08)
(2.87629e-07 -8.40278e-07 2.62606e-08)
(2.49745e-07 -8.28125e-07 2.92842e-08)
(1.93461e-07 -8.15566e-07 3.19527e-08)
(1.22568e-07 -8.04164e-07 3.38365e-08)
(4.312e-08 -7.98228e-07 3.47955e-08)
(-3.97434e-08 -7.98388e-07 3.48782e-08)
(-1.1964e-07 -8.04461e-07 3.38142e-08)
(-1.90454e-07 -8.15541e-07 3.20006e-08)
(-2.46762e-07 -8.2826e-07 2.93874e-08)
(-2.85031e-07 -8.40468e-07 2.63543e-08)
(-3.04188e-07 -8.50052e-07 2.31431e-08)
(-3.0482e-07 -8.54592e-07 1.99962e-08)
(-2.88669e-07 -8.51333e-07 1.71438e-08)
(-2.58601e-07 -8.37374e-07 1.47048e-08)
(-2.18172e-07 -8.09455e-07 1.27304e-08)
(-1.71303e-07 -7.6358e-07 1.11995e-08)
(-1.22117e-07 -6.9419e-07 1.00239e-08)
(-7.46716e-08 -5.92651e-07 8.94709e-09)
(-3.37514e-08 -4.4324e-07 7.4081e-09)
(-4.0444e-09 -2.12261e-07 3.96475e-09)
(3.77734e-09 -2.48547e-07 3.77562e-09)
(3.18322e-08 -5.18653e-07 7.04661e-09)
(7.05715e-08 -6.92013e-07 8.49638e-09)
(1.15486e-07 -8.09907e-07 9.55124e-09)
(1.62123e-07 -8.91354e-07 1.07124e-08)
(2.06706e-07 -9.46853e-07 1.21958e-08)
(2.4537e-07 -9.82991e-07 1.41516e-08)
(2.74456e-07 -1.00412e-06 1.6634e-08)
(2.90596e-07 -1.01367e-06 1.95444e-08)
(2.9097e-07 -1.01457e-06 2.27931e-08)
(2.73697e-07 -1.00963e-06 2.61492e-08)
(2.38054e-07 -1.00118e-06 2.93291e-08)
(1.84574e-07 -9.91218e-07 3.20486e-08)
(1.16841e-07 -9.8137e-07 3.40616e-08)
(4.11305e-08 -9.76604e-07 3.51736e-08)
(-3.79887e-08 -9.76764e-07 3.52584e-08)
(-1.14103e-07 -9.81474e-07 3.40373e-08)
(-1.81625e-07 -9.90753e-07 3.2083e-08)
(-2.35101e-07 -1.00102e-06 2.94348e-08)
(-2.71184e-07 -1.00983e-06 2.62396e-08)
(-2.88859e-07 -1.01489e-06 2.28892e-08)
(-2.88944e-07 -1.01404e-06 1.96289e-08)
(-2.73195e-07 -1.0046e-06 1.67035e-08)
(-2.44412e-07 -9.83547e-07 1.42258e-08)
(-2.06002e-07 -9.47347e-07 1.22316e-08)
(-1.61651e-07 -8.91537e-07 1.06978e-08)
(-1.1519e-07 -8.09669e-07 9.54709e-09)
(-7.04125e-08 -6.91457e-07 8.51407e-09)
(-3.18195e-08 -5.18136e-07 7.05976e-09)
(-3.80749e-09 -2.49083e-07 3.77026e-09)
(3.42103e-09 -2.82398e-07 3.37009e-09)
(2.8631e-08 -5.87695e-07 6.31719e-09)
(6.34535e-08 -7.83421e-07 7.60903e-09)
(1.03787e-07 -9.17192e-07 8.58014e-09)
(1.45717e-07 -1.01054e-06 9.72958e-09)
(1.85914e-07 -1.07557e-06 1.11837e-08)
(2.20973e-07 -1.12019e-06 1.30642e-08)
(2.47561e-07 -1.14914e-06 1.54538e-08)
(2.62628e-07 -1.1659e-06 1.82518e-08)
(2.63488e-07 -1.17339e-06 2.1429e-08)
(2.48191e-07 -1.17424e-06 2.47574e-08)
(2.16087e-07 -1.17044e-06 2.79323e-08)
(1.67731e-07 -1.16421e-06 3.05604e-08)
(1.06324e-07 -1.1575e-06 3.25888e-08)
(3.7487e-08 -1.1544e-06 3.37464e-08)
(-3.46136e-08 -1.15461e-06 3.38534e-08)
(-1.03791e-07 -1.15756e-06 3.26114e-08)
(-1.64924e-07 -1.1637e-06 3.05325e-08)
(-2.13421e-07 -1.17047e-06 2.79647e-08)
(-2.45951e-07 -1.17461e-06 2.47901e-08)
(-2.61499e-07 -1.17388e-06 2.15181e-08)
(-2.61075e-07 -1.1664e-06 1.83415e-08)
(-2.46407e-07 -1.14978e-06 1.55175e-08)
(-2.20106e-07 -1.12095e-06 1.31473e-08)
(-1.85304e-07 -1.07609e-06 1.12213e-08)
(-1.45301e-07 -1.01033e-06 9.7127e-09)
(-1.03468e-07 -9.16371e-07 8.55535e-09)
(-6.3202e-08 -7.82425e-07 7.54876e-09)
(-2.85348e-08 -5.86945e-07 6.24305e-09)
(-3.39509e-09 -2.82894e-07 3.3525e-09)
(2.8993e-09 -3.11873e-07 2.8064e-09)
(2.40482e-08 -6.47507e-07 5.2785e-09)
(5.32662e-08 -8.62459e-07 6.38739e-09)
(8.72576e-08 -1.01045e-06 7.26139e-09)
(1.22609e-07 -1.11498e-06 8.319e-09)
(1.56518e-07 -1.18914e-06 9.68803e-09)
(1.86279e-07 -1.24199e-06 1.14086e-08)
(2.09053e-07 -1.27889e-06 1.35364e-08)
(2.22246e-07 -1.3032e-06 1.5988e-08)
(2.23386e-07 -1.31753e-06 1.88118e-08)
(2.10626e-07 -1.32414e-06 2.17619e-08)
(1.83434e-07 -1.32541e-06 2.45805e-08)
(1.42462e-07 -1.32404e-06 2.70389e-08)
(9.05808e-08 -1.32168e-06 2.90109e-08)
(3.20072e-08 -1.32064e-06 3.01171e-08)
(-2.94771e-08 -1.32077e-06 3.023e-08)
(-8.83897e-08 -1.32164e-06 2.91588e-08)
(-1.40091e-07 -1.32415e-06 2.72313e-08)
(-1.81244e-07 -1.32702e-06 2.49308e-08)
(-2.0865e-07 -1.32555e-06 2.19907e-08)
(-2.21534e-07 -1.31837e-06 1.89731e-08)
(-2.20822e-07 -1.30375e-06 1.60452e-08)
(-2.08056e-07 -1.27958e-06 1.3429e-08)
(-1.85513e-07 -1.24283e-06 1.12364e-08)
(-1.55934e-07 -1.18948e-06 9.47518e-09)
(-1.22099e-07 -1.11435e-06 8.13406e-09)
(-8.68446e-08 -1.00933e-06 7.14732e-09)
(-5.3038e-08 -8.61438e-07 6.32919e-09)
(-2.39816e-08 -6.46632e-07 5.26051e-09)
(-2.8659e-09 -3.1226e-07 2.84616e-09)
(2.27057e-09 -3.35392e-07 2.04915e-09)
(1.84029e-08 -6.95032e-07 3.82953e-09)
(4.04559e-08 -9.25161e-07 4.68135e-09)
(6.62861e-08 -1.08458e-06 5.35856e-09)
(9.32411e-08 -1.19857e-06 6.13378e-09)
(1.19154e-07 -1.28104e-06 7.19822e-09)
(1.41932e-07 -1.34138e-06 8.61722e-09)
(1.59454e-07 -1.38545e-06 1.04458e-08)
(1.69943e-07 -1.41664e-06 1.25493e-08)
(1.71222e-07 -1.43701e-06 1.4858e-08)
(1.61465e-07 -1.44914e-06 1.71142e-08)
(1.40499e-07 -1.45637e-06 1.93753e-08)
(1.09376e-07 -1.46066e-06 2.15612e-08)
(6.99014e-08 -1.46212e-06 2.32038e-08)
(2.49079e-08 -1.46268e-06 2.40509e-08)
(-2.23314e-08 -1.46233e-06 2.39868e-08)
(-6.77595e-08 -1.46113e-06 2.30754e-08)
(-1.07462e-07 -1.46009e-06 2.14442e-08)
(-1.38974e-07 -1.45826e-06 1.94783e-08)
(-1.5977e-07 -1.45082e-06 1.71374e-08)
(-1.69414e-07 -1.43782e-06 1.47678e-08)
(-1.68642e-07 -1.41699e-06 1.24725e-08)
(-1.58643e-07 -1.38599e-06 1.04029e-08)
(-1.41243e-07 -1.342e-06 8.64609e-09)
(-1.18636e-07 -1.28118e-06 7.24128e-09)
(-9.28887e-08 -1.19819e-06 6.1896e-09)
(-6.60934e-08 -1.08435e-06 5.43477e-09)
(-4.03621e-08 -9.25431e-07 4.81658e-09)
(-1.82316e-08 -6.95085e-07 4.00031e-09)
(-2.18563e-09 -3.36123e-07 2.14889e-09)
(1.44223e-09 -3.52208e-07 1.33442e-09)
(1.16622e-08 -7.2867e-07 2.46918e-09)
(2.56098e-08 -9.6957e-07 2.94904e-09)
(4.1994e-08 -1.13645e-06 3.30187e-09)
(5.89536e-08 -1.25676e-06 3.75819e-09)
(7.5239e-08 -1.34534e-06 4.45732e-09)
(8.95817e-08 -1.41143e-06 5.41273e-09)
(1.0058e-07 -1.46105e-06 6.65699e-09)
(1.0735e-07 -1.49764e-06 8.12361e-09)
(1.08463e-07 -1.52289e-06 9.67962e-09)
(1.02425e-07 -1.54032e-06 1.12215e-08)
(8.93125e-08 -1.55303e-06 1.28371e-08)
(6.97773e-08 -1.56185e-06 1.43374e-08)
(4.47785e-08 -1.56628e-06 1.54559e-08)
(1.62237e-08 -1.56797e-06 1.59698e-08)
(-1.37015e-08 -1.56654e-06 1.57136e-08)
(-4.26685e-08 -1.56325e-06 1.50024e-08)
(-6.77933e-08 -1.55904e-06 1.37877e-08)
(-8.76814e-08 -1.55249e-06 1.22613e-08)
(-1.01039e-07 -1.53976e-06 1.06005e-08)
(-1.07301e-07 -1.52172e-06 9.03716e-09)
(-1.06783e-07 -1.49589e-06 7.67106e-09)
(-1.00361e-07 -1.46016e-06 6.4738e-09)
(-8.92616e-08 -1.41182e-06 5.47918e-09)
(-7.4849e-08 -1.34637e-06 4.66932e-09)
(-5.84904e-08 -1.25787e-06 4.01586e-09)
(-4.15592e-08 -1.1375e-06 3.53455e-09)
(-2.53523e-08 -9.70504e-07 3.12575e-09)
(-1.14474e-08 -7.29077e-07 2.57914e-09)
(-1.38431e-09 -3.52821e-07 1.3548e-09)
(5.36961e-10 -3.61038e-07 4.27851e-10)
(4.1325e-09 -7.46047e-07 8.49544e-10)
(9.03272e-09 -9.92966e-07 1.06541e-09)
(1.49254e-08 -1.16412e-06 1.2086e-09)
(2.09924e-08 -1.28794e-06 1.39742e-09)
(2.68572e-08 -1.37948e-06 1.69266e-09)
(3.21755e-08 -1.44788e-06 2.04416e-09)
(3.63114e-08 -1.49932e-06 2.40191e-09)
(3.88123e-08 -1.53836e-06 2.86317e-09)
(3.92179e-08 -1.56732e-06 3.49245e-09)
(3.70553e-08 -1.58888e-06 4.14887e-09)
(3.24666e-08 -1.60484e-06 4.7578e-09)
(2.54303e-08 -1.61567e-06 5.2303e-09)
(1.64558e-08 -1.6219e-06 5.72494e-09)
(6.35095e-09 -1.62496e-06 5.96394e-09)
(-4.34391e-09 -1.62352e-06 5.77992e-09)
(-1.50714e-08 -1.6194e-06 5.54328e-09)
(-2.40298e-08 -1.61362e-06 5.09513e-09)
(-3.09952e-08 -1.60467e-06 4.45807e-09)
(-3.57498e-08 -1.58884e-06 3.8311e-09)
(-3.79836e-08 -1.56701e-06 3.25425e-09)
(-3.78967e-08 -1.53746e-06 2.74731e-09)
(-3.57308e-08 -1.4988e-06 2.2778e-09)
(-3.18701e-08 -1.44826e-06 1.90072e-09)
(-2.67467e-08 -1.38057e-06 1.62448e-09)
(-2.08545e-08 -1.28929e-06 1.3971e-09)
(-1.47719e-08 -1.16548e-06 1.22411e-09)
(-8.97836e-09 -9.94215e-07 1.08008e-09)
(-4.02741e-09 -7.46913e-07 9.14993e-10)
(-4.64201e-10 -3.61578e-07 4.88995e-10)
(-3.73767e-10 -3.61475e-07 -4.40239e-10)
(-3.46016e-09 -7.46844e-07 -7.99344e-10)
(-7.76971e-09 -9.9418e-07 -9.38475e-10)
(-1.26655e-08 -1.16554e-06 -1.05583e-09)
(-1.7788e-08 -1.28953e-06 -1.20587e-09)
(-2.2715e-08 -1.38131e-06 -1.41847e-09)
(-2.70579e-08 -1.45e-06 -1.69484e-09)
(-3.04761e-08 -1.5017e-06 -2.03762e-09)
(-3.24595e-08 -1.54078e-06 -2.4693e-09)
(-3.25361e-08 -1.56954e-06 -2.94789e-09)
(-3.04671e-08 -1.59105e-06 -3.54817e-09)
(-2.64197e-08 -1.60703e-06 -4.21353e-09)
(-2.075e-08 -1.6177e-06 -4.76686e-09)
(-1.34558e-08 -1.62414e-06 -4.97977e-09)
(-4.64596e-09 -1.62715e-06 -4.99506e-09)
(4.80383e-09 -1.62555e-06 -4.92406e-09)
(1.34527e-08 -1.62197e-06 -4.59195e-09)
(2.14613e-08 -1.61633e-06 -4.18894e-09)
(2.75776e-08 -1.60693e-06 -3.84097e-09)
(3.13043e-08 -1.59096e-06 -3.28661e-09)
(3.32465e-08 -1.5691e-06 -2.70183e-09)
(3.32006e-08 -1.53942e-06 -2.15413e-09)
(3.13212e-08 -1.5006e-06 -1.81305e-09)
(2.78876e-08 -1.44977e-06 -1.60081e-09)
(2.33106e-08 -1.38179e-06 -1.38255e-09)
(1.82242e-08 -1.29027e-06 -1.21032e-09)
(1.29576e-08 -1.16626e-06 -1.06541e-09)
(7.91715e-09 -9.9487e-07 -9.24563e-10)
(3.60894e-09 -7.4742e-07 -7.1562e-10)
(4.66556e-10 -3.61852e-07 -3.60785e-10)
(-1.31581e-09 -3.53367e-07 -1.30052e-09)
(-1.09504e-08 -7.30297e-07 -2.46517e-09)
(-2.42535e-08 -9.72274e-07 -2.99538e-09)
(-3.97052e-08 -1.13971e-06 -3.39321e-09)
(-5.58588e-08 -1.26059e-06 -3.85775e-09)
(-7.14425e-08 -1.34989e-06 -4.48147e-09)
(-8.50998e-08 -1.41652e-06 -5.30446e-09)
(-9.55492e-08 -1.46626e-06 -6.37795e-09)
(-1.01653e-07 -1.50307e-06 -7.71279e-09)
(-1.0233e-07 -1.52869e-06 -9.11269e-09)
(-9.64335e-08 -1.54659e-06 -1.06619e-08)
(-8.39166e-08 -1.55961e-06 -1.23014e-08)
(-6.56008e-08 -1.56859e-06 -1.37165e-08)
(-4.20924e-08 -1.57399e-06 -1.46196e-08)
(-1.4615e-08 -1.57617e-06 -1.49691e-08)
(1.42858e-08 -1.57411e-06 -1.47672e-08)
(4.15656e-08 -1.57144e-06 -1.41041e-08)
(6.59058e-08 -1.56757e-06 -1.30317e-08)
(8.46508e-08 -1.55966e-06 -1.18253e-08)
(9.68084e-08 -1.54625e-06 -1.02639e-08)
(1.02938e-07 -1.52782e-06 -8.7793e-09)
(1.02383e-07 -1.50162e-06 -7.34371e-09)
(9.59916e-08 -1.46512e-06 -6.10757e-09)
(8.53863e-08 -1.41589e-06 -5.07764e-09)
(7.16876e-08 -1.34998e-06 -4.2368e-09)
(5.62197e-08 -1.26117e-06 -3.61008e-09)
(4.00582e-08 -1.14044e-06 -3.13512e-09)
(2.45163e-08 -9.73138e-07 -2.76573e-09)
(1.11838e-08 -7.31146e-07 -2.27749e-09)
(1.41219e-09 -3.53679e-07 -1.23293e-09)
(-2.15721e-09 -3.37212e-07 -2.07628e-09)
(-1.78237e-08 -6.9745e-07 -3.88001e-09)
(-3.93906e-08 -9.28737e-07 -4.70059e-09)
(-6.44941e-08 -1.08837e-06 -5.30778e-09)
(-9.06513e-08 -1.20288e-06 -6.037e-09)
(-1.15822e-07 -1.28661e-06 -7.03901e-09)
(-1.3794e-07 -1.34825e-06 -8.37421e-09)
(-1.54956e-07 -1.39315e-06 -1.0104e-08)
(-1.64872e-07 -1.42522e-06 -1.22098e-08)
(-1.65881e-07 -1.44633e-06 -1.44327e-08)
(-1.56377e-07 -1.45905e-06 -1.67196e-08)
(-1.35952e-07 -1.46664e-06 -1.89227e-08)
(-1.05876e-07 -1.47147e-06 -2.09564e-08)
(-6.77372e-08 -1.47413e-06 -2.24872e-08)
(-2.36431e-08 -1.47529e-06 -2.3266e-08)
(2.27081e-08 -1.47368e-06 -2.30819e-08)
(6.69051e-08 -1.47265e-06 -2.22018e-08)
(1.06135e-07 -1.47187e-06 -2.06923e-08)
(1.36527e-07 -1.46738e-06 -1.88347e-08)
(1.56592e-07 -1.45886e-06 -1.65658e-08)
(1.66407e-07 -1.44578e-06 -1.43204e-08)
(1.65693e-07 -1.42516e-06 -1.21146e-08)
(1.55643e-07 -1.39385e-06 -1.01488e-08)
(1.38531e-07 -1.34931e-06 -8.4186e-09)
(1.16263e-07 -1.28812e-06 -7.03057e-09)
(9.09323e-08 -1.20456e-06 -5.98236e-09)
(6.46223e-08 -1.08977e-06 -5.13561e-09)
(3.95467e-08 -9.30006e-07 -4.48223e-09)
(1.80503e-08 -6.98604e-07 -3.67086e-09)
(2.26102e-09 -3.37325e-07 -1.97904e-09)
(-2.87723e-09 -3.13855e-07 -2.74533e-09)
(-2.37227e-08 -6.50076e-07 -5.12402e-09)
(-5.23352e-08 -8.66002e-07 -6.22721e-09)
(-8.56926e-08 -1.0147e-06 -7.06271e-09)
(-1.2047e-07 -1.1205e-06 -8.03804e-09)
(-1.53909e-07 -1.19646e-06 -9.35957e-09)
(-1.83201e-07 -1.25068e-06 -1.10954e-08)
(-2.05559e-07 -1.28839e-06 -1.32437e-08)
(-2.18379e-07 -1.31362e-06 -1.57898e-08)
(-2.19395e-07 -1.32899e-06 -1.85651e-08)
(-2.06794e-07 -1.3365e-06 -2.14999e-08)
(-1.79887e-07 -1.3384e-06 -2.42481e-08)
(-1.3971e-07 -1.33778e-06 -2.66475e-08)
(-8.88929e-08 -1.33684e-06 -2.85784e-08)
(-3.07771e-08 -1.33669e-06 -2.97381e-08)
(2.99944e-08 -1.33572e-06 -2.96489e-08)
(8.80879e-08 -1.33656e-06 -2.85671e-08)
(1.39802e-07 -1.33924e-06 -2.6634e-08)
(1.80187e-07 -1.33941e-06 -2.42387e-08)
(2.0686e-07 -1.33667e-06 -2.15475e-08)
(2.19569e-07 -1.32908e-06 -1.86327e-08)
(2.18908e-07 -1.31426e-06 -1.57678e-08)
(2.06147e-07 -1.28937e-06 -1.33174e-08)
(1.8376e-07 -1.25167e-06 -1.12375e-08)
(1.54394e-07 -1.1977e-06 -9.56369e-09)
(1.20897e-07 -1.12235e-06 -8.2555e-09)
(8.60247e-08 -1.01721e-06 -7.17998e-09)
(5.25195e-08 -8.68918e-07 -6.29434e-09)
(2.37692e-08 -6.52482e-07 -5.17267e-09)
(2.87638e-09 -3.14086e-07 -2.75171e-09)
(-3.3951e-09 -2.84667e-07 -3.33621e-09)
(-2.83451e-08 -5.91044e-07 -6.23311e-09)
(-6.26989e-08 -7.87674e-07 -7.53663e-09)
(-1.02723e-07 -9.22533e-07 -8.51656e-09)
(-1.44337e-07 -1.01742e-06 -9.63841e-09)
(-1.84223e-07 -1.08413e-06 -1.11296e-08)
(-2.18973e-07 -1.12997e-06 -1.30407e-08)
(-2.45293e-07 -1.15985e-06 -1.54003e-08)
(-2.60122e-07 -1.17759e-06 -1.82189e-08)
(-2.60878e-07 -1.1861e-06 -2.13556e-08)
(-2.45652e-07 -1.18785e-06 -2.46745e-08)
(-2.13711e-07 -1.18486e-06 -2.78108e-08)
(-1.65886e-07 -1.17937e-06 -3.04334e-08)
(-1.05182e-07 -1.17412e-06 -3.24678e-08)
(-3.62215e-08 -1.17169e-06 -3.37917e-08)
(3.54897e-08 -1.17098e-06 -3.3776e-08)
(1.0423e-07 -1.17393e-06 -3.26684e-08)
(1.65442e-07 -1.18045e-06 -3.0619e-08)
(2.13506e-07 -1.18564e-06 -2.78443e-08)
(2.45579e-07 -1.18847e-06 -2.47241e-08)
(2.60993e-07 -1.1867e-06 -2.13982e-08)
(2.60499e-07 -1.17837e-06 -1.82011e-08)
(2.45733e-07 -1.16079e-06 -1.53968e-08)
(2.19436e-07 -1.13098e-06 -1.30102e-08)
(1.84659e-07 -1.08531e-06 -1.11079e-08)
(1.44744e-07 -1.01912e-06 -9.68113e-09)
(1.03136e-07 -9.25111e-07 -8.56248e-09)
(6.3058e-08 -7.9086e-07 -7.55716e-09)
(2.85578e-08 -5.93581e-07 -6.24118e-09)
(3.43953e-09 -2.84829e-07 -3.32982e-09)
(-3.78321e-09 -2.50874e-07 -3.78042e-09)
(-3.17211e-08 -5.22515e-07 -7.05894e-09)
(-7.02486e-08 -6.96991e-07 -8.50646e-09)
(-1.14996e-07 -8.16208e-07 -9.53651e-09)
(-1.61455e-07 -8.9911e-07 -1.06751e-08)
(-2.05894e-07 -9.55914e-07 -1.21982e-08)
(-2.44434e-07 -9.931e-07 -1.41936e-08)
(-2.73405e-07 -1.01516e-06 -1.66731e-08)
(-2.89416e-07 -1.02565e-06 -1.96045e-08)
(-2.89689e-07 -1.0275e-06 -2.28502e-08)
(-2.72344e-07 -1.02343e-06 -2.62317e-08)
(-2.36714e-07 -1.01596e-06 -2.94525e-08)
(-1.83664e-07 -1.00707e-06 -3.2214e-08)
(-1.16336e-07 -9.98578e-07 -3.42243e-08)
(-4.00546e-08 -9.93802e-07 -3.54126e-08)
(3.90528e-08 -9.9318e-07 -3.53063e-08)
(1.1519e-07 -9.9788e-07 -3.42415e-08)
(1.82889e-07 -1.00708e-06 -3.22385e-08)
(2.3625e-07 -1.01616e-06 -2.94122e-08)
(2.72104e-07 -1.02384e-06 -2.62382e-08)
(2.89664e-07 -1.02801e-06 -2.287e-08)
(2.8961e-07 -1.02634e-06 -1.96115e-08)
(2.73717e-07 -1.01599e-06 -1.6683e-08)
(2.44834e-07 -9.94024e-07 -1.41857e-08)
(2.06341e-07 -9.5694e-07 -1.21931e-08)
(1.619e-07 -9.00312e-07 -1.07018e-08)
(1.15366e-07 -8.1786e-07 -9.58971e-09)
(7.04668e-08 -6.99145e-07 -8.5593e-09)
(3.18106e-08 -5.24429e-07 -7.09143e-09)
(3.7677e-09 -2.51034e-07 -3.78621e-09)
(-4.0142e-09 -2.14132e-07 -4.01658e-09)
(-3.37511e-08 -4.47566e-07 -7.45994e-09)
(-7.48396e-08 -5.98202e-07 -8.96686e-09)
(-1.22452e-07 -7.00771e-07 -1.00399e-08)
(-1.7183e-07 -7.71146e-07 -1.12154e-08)
(-2.18964e-07 -8.17953e-07 -1.27501e-08)
(-2.59692e-07 -8.46783e-07 -1.47369e-08)
(-2.9009e-07 -8.61666e-07 -1.71901e-08)
(-3.06579e-07 -8.65844e-07 -2.00658e-08)
(-3.06294e-07 -8.62173e-07 -2.32271e-08)
(-2.874e-07 -8.53371e-07 -2.64758e-08)
(-2.49376e-07 -8.42064e-07 -2.95596e-08)
(-1.9331e-07 -8.30369e-07 -3.22555e-08)
(-1.2244e-07 -8.20076e-07 -3.41635e-08)
(-4.21649e-08 -8.14041e-07 -3.52147e-08)
(4.10136e-08 -8.13728e-07 -3.51402e-08)
(1.21222e-07 -8.19693e-07 -3.4206e-08)
(1.92369e-07 -8.30461e-07 -3.22886e-08)
(2.48769e-07 -8.42329e-07 -2.95712e-08)
(2.87043e-07 -8.53766e-07 -2.65174e-08)
(3.06163e-07 -8.62654e-07 -2.32686e-08)
(3.06648e-07 -8.66453e-07 -2.00977e-08)
(2.90292e-07 -8.62392e-07 -1.72196e-08)
(2.59985e-07 -8.4762e-07 -1.47576e-08)
(2.19304e-07 -8.18889e-07 -1.27721e-08)
(1.72174e-07 -7.7219e-07 -1.12569e-08)
(1.22711e-07 -7.01997e-07 -1.0144e-08)
(7.49436e-08 -5.99709e-07 -9.13859e-09)
(3.37679e-08 -4.49086e-07 -7.61544e-09)
(3.97194e-09 -2.14232e-07 -4.06194e-09)
(-4.08907e-09 -1.75911e-07 -4.10676e-09)
(-3.44352e-08 -3.69577e-07 -7.62598e-09)
(-7.64052e-08 -4.95524e-07 -9.14697e-09)
(-1.25087e-07 -5.80984e-07 -1.02089e-08)
(-1.756e-07 -6.38744e-07 -1.13543e-08)
(-2.23778e-07 -6.75882e-07 -1.28286e-08)
(-2.65301e-07 -6.97086e-07 -1.47173e-08)
(-2.96114e-07 -7.05849e-07 -1.70385e-08)
(-3.1258e-07 -7.05095e-07 -1.97423e-08)
(-3.11831e-07 -6.97479e-07 -2.26896e-08)
(-2.92087e-07 -6.8558e-07 -2.56924e-08)
(-2.52946e-07 -6.71868e-07 -2.85656e-08)
(-1.95813e-07 -6.5844e-07 -3.10549e-08)
(-1.24117e-07 -6.47503e-07 -3.28047e-08)
(-4.28437e-08 -6.41225e-07 -3.37267e-08)
(4.15235e-08 -6.41065e-07 -3.36948e-08)
(1.22737e-07 -6.47279e-07 -3.28477e-08)
(1.94795e-07 -6.58588e-07 -3.10527e-08)
(2.52329e-07 -6.72075e-07 -2.85577e-08)
(2.91685e-07 -6.85849e-07 -2.57331e-08)
(3.11613e-07 -6.97833e-07 -2.27376e-08)
(3.12549e-07 -7.05566e-07 -1.97833e-08)
(2.96226e-07 -7.0643e-07 -1.7076e-08)
(2.65502e-07 -6.97761e-07 -1.47467e-08)
(2.24021e-07 -6.76637e-07 -1.28562e-08)
(1.75854e-07 -6.39568e-07 -1.13888e-08)
(1.25292e-07 -5.81873e-07 -1.02779e-08)
(7.65186e-08 -4.96527e-07 -9.27552e-09)
(3.44686e-08 -3.70679e-07 -7.74698e-09)
(4.0705e-09 -1.75955e-07 -4.13695e-09)
(-4.03123e-09 -1.37547e-07 -4.00727e-09)
(-3.38328e-08 -2.91539e-07 -7.46026e-09)
(-7.50977e-08 -3.9271e-07 -8.96752e-09)
(-1.23163e-07 -4.61182e-07 -9.99173e-09)
(-1.73178e-07 -5.0671e-07 -1.10684e-08)
(-2.20947e-07 -5.34843e-07 -1.24349e-08)
(-2.621e-07 -5.49395e-07 -1.41806e-08)
(-2.92548e-07 -5.53306e-07 -1.63171e-08)
(-3.08671e-07 -5.49129e-07 -1.87931e-08)
(-3.07647e-07 -5.39229e-07 -2.14756e-08)
(-2.87758e-07 -5.25922e-07 -2.42073e-08)
(-2.4877e-07 -5.11381e-07 -2.68272e-08)
(-1.92412e-07 -4.97762e-07 -2.9053e-08)
(-1.22037e-07 -4.87251e-07 -3.06168e-08)
(-4.21934e-08 -4.81405e-07 -3.14383e-08)
(4.08546e-08 -4.81182e-07 -3.14162e-08)
(1.20567e-07 -4.86921e-07 -3.06174e-08)
(1.91337e-07 -4.97777e-07 -2.90145e-08)
(2.48099e-07 -5.11459e-07 -2.67849e-08)
(2.87283e-07 -5.26068e-07 -2.42236e-08)
(3.07338e-07 -5.39473e-07 -2.15185e-08)
(3.08552e-07 -5.49479e-07 -1.88325e-08)
(2.92585e-07 -5.53748e-07 -1.63534e-08)
(2.62231e-07 -5.49907e-07 -1.42088e-08)
(2.21124e-07 -5.35415e-07 -1.24605e-08)
(1.73378e-07 -5.0733e-07 -1.10936e-08)
(1.23346e-07 -4.61835e-07 -1.00259e-08)
(7.52312e-08 -3.93395e-07 -9.03067e-09)
(3.38565e-08 -2.92275e-07 -7.54771e-09)
(4.00728e-09 -1.37652e-07 -4.03706e-09)
(-3.7991e-09 -1.00629e-07 -3.7356e-09)
(-3.18727e-08 -2.16446e-07 -6.98824e-09)
(-7.09707e-08 -2.93627e-07 -8.40485e-09)
(-1.1686e-07 -3.45718e-07 -9.32925e-09)
(-1.6491e-07 -3.79659e-07 -1.02939e-08)
(-2.11021e-07 -3.99602e-07 -1.15173e-08)
(-2.5086e-07 -4.08544e-07 -1.30926e-08)
(-2.80354e-07 -4.08874e-07 -1.50147e-08)
(-2.9597e-07 -4.02712e-07 -1.72401e-08)
(-2.94976e-07 -3.92066e-07 -1.96415e-08)
(-2.75711e-07 -3.78873e-07 -2.21104e-08)
(-2.38105e-07 -3.65006e-07 -2.44502e-08)
(-1.84093e-07 -3.52461e-07 -2.64294e-08)
(-1.16744e-07 -3.42951e-07 -2.78311e-08)
(-4.04002e-08 -3.37796e-07 -2.85927e-08)
(3.90774e-08 -3.37578e-07 -2.85687e-08)