/*--------------------------------*- C++ -*----------------------------------*\
| =========                 |                                                 |
| \\      /  F ield         | OpenFOAM: The Open Source CFD Toolbox           |
|  \\    /   O peration     | Version:  v1912                                 |
|   \\  /    A nd           | Website:  www.openfoam.com                      |
|    \\/     M anipulation  |                                                 |
\*---------------------------------------------------------------------------*/
FoamFile
{
    version     2.0;
    format      ascii;
    class       volScalarField;
    location    "74/oil";
    object      wallHeatFlux;
}
// * * * * * * * * * * * * * * * * * * * * * * * * * * * * * * * * * * * * * //

dimensions      [1 0 -3 0 0 0 0];


internalField   uniform 0;

boundaryField
{
    maxY
    {
        type            calculated;
        value           uniform 0;
    }
    minX
    {
        type            calculated;
        value           uniform 0;
    }
    maxX
    {
        type            calculated;
        value           uniform 0;
    }
    minY
    {
        type            calculated;
        value           uniform 0;
    }
    minZ
    {
        type            calculated;
        value           uniform 0;
    }
    maxZ
    {
        type            calculated;
        value           uniform 0;
    }
    oil_to_sphere
    {
        type            calculated;
        value           nonuniform List<scalar> 
1536
(
14876.5
14689.2
14706
14315.7
14266.4
14660.3
14521.9
14554.7
14531.1
14325.8
14203.8
14342.8
14522.2
14373.4
14119.2
14485.3
14668.1
14715.6
14471
14516.3
14610.1
14526.3
14551.8
14484
14508.4
14494
14493.1
14457.5
14671.6
14552.7
14728.2
14684.5
14699.3
14473
14489.9
14448.3
14456.1
14395
14443.7
14483.7
14430.8
14467
14525.9
14581.6
14634
14481.7
14669.9
14606.6
14111.3
14503
14593.6
14539
14598.1
14470.5
14663.3
14807.1
14540.4
14518.4
14616.7
14579
14529.8
14516.9
14533
14468.7
14497.9
14517.5
14513.6
14605.3
14589
14648.6
14467.9
14335.9
14373.9
14496.1
14486.2
14814.8
14696.2
14437.9
14486.7
14719
14611.9
14600.2
14284.8
14273
14669.5
14853.6
14279.8
14497.2
14587.4
14581.7
14561
14452.6
14457.3
14462.2
14492.1
14575
14640.4
14645
14703.2
14576.8
14618.1
14462.2
14895.3
14604.4
14369
14488.4
14494.1
14337.1
14349.3
14915.8
14690.7
14568.1
14517.6
14565.9
14265.6
14316.1
14241.2
14771.2
14872.7
14714.8
14543.1
14563.6
14441.8
14632.2
14716.3
14623.6
14527.2
14425.7
14643.4
14594.3
14522.8
14588.8
14656.6
14483.2
14506.7
14649
14563.3
14725.3
14433.2
14668.7
14526.8
14597.7
14597.3
14526.7
14498.8
14524.1
14544
14923.3
14689.5
14901.6
14628.4
14841.7
14536.8
14553.9
14452
14696.3
14627.1
14754.7
14972.1
14902.6
14688.7
14960.2
14326.9
14363.5
14456.2
14440.5
14622.9
14829.9
14670
14899.2
14477.9
14493.3
14453.3
14659.6
14626.7
14614.8
14836.5
14597.9
14667.8
14840.8
14406
14353.8
14359.3
14371.5
14746.1
14861.2
14909.6
14465
14421.7
14715.1
14443.1
14679.5
14657.2
14747.5
14344.4
14120.5
14750.7
14766.2
14604.8
14467.4
14550.4
14510.6
14732.6
14753.2
14641.4
14606.3
14533.6
14797.7
14723.4
14729.7
14416.4
14494.2
14487.1
14589.7
14672.8
14844.1
14600.1
14366.5
14364.6
14115.6
14695.9
14649.2
14593.9
14562.2
14580.2
14824.9
14687.2
14578.8
14704.3
14350.8
14458.4
14150.2
14506.9
14758.3
14751.8
14752.8
14675.9
14629.1
14700.3
14351.9
14374.3
14620.1
14758.3
14431
14201.4
14231.1
14634.8
14722
14899.9
15097.9
14575.9
14295.8
14104.2
14579.3
14858.7
14459.7
14466.1
14231.9
14451.7
14818.1
14891.4
14594.6
14480.5
14769
14948.6
14483.8
14290.9
14599.6
14849.6
14795
14630.3
14663.9
14739
14378.9
14469.1
14757.6
14664
14815.7
14540.2
14717.8
14843.7
14665.9
14645.6
14777.3
14495.3
14477.9
14528.2
14416.1
14452.6
14755.8
14837.5
14626.6
14508.9
14501.7
14529.8
14467.5
14602.1
14557.6
14418.3
14250.4
14442.2
14342.8
14423
14869.6
14785.3
14792.8
15126
14342
14357.4
14686.7
14891
15033.1
14480.5
14557.1
14463.9
14659.7
14489.1
14636.3
14653.6
14742.2
14653.3
14531.7
14682.9
14430.5
14746.7
14775.5
14687.1
14682.1
14387.6
14861.3
14904.6
14747
14330.4
14496.7
14555.1
14658.1
14635.3
14636.6
14384.4
14744.8
14898.5
14716.5
14789.6
14598.1
14594.9
14549
14386.4
14626.9
14681.1
14375.1
14350.2
14388.7
14905.8
14765.7
14806
14612.4
14602.8
14811.9
14357
14867.6
14724.5
14582.3
14594.8
14357.3
14776.7
14755.9
14414
14577.5
14529.6
14491.3
14673.2
14741
14527.7
14509.5
14369.6
14839.3
14741.9
14360.9
14820.7
14819.1
14704.2
14829.8
14576.6
14680.5
14376
14322.9
14662.7
15061.6
14719.5
14947.8
14644.9
14513.7
14703.9
14426.2
14517.2
14687.1
14737.4
14678.5
14602.7
14445.7
14376.3
14766.7
14891.8
14745
14600.9
14487.3
14634.2
14676
14712.8
14605.9
14537.4
14461.2
14580.4
14430.5
14341.4
14461.2
14449.8
14570.6
14305.6
14505.8
14934.1
14503.1
14500.9
14747.4
14730.6
14647.9
14534
14352
14714.7
14787.7
14650.2
14628.5
14689.6
14576
14572.7
14613.6
14289
14747.1
14886
14815.1
14723
14694.8
14646.5
14601
14550.6
14422.6
14569.4
14424.7
14354.5
14434
14313.1
14877
14854.6
14762.1
15065.8
14585
14863
14370.5
14402.4
14663.5
14615.8
14371.1
14506.5
14465
14864.3
14810.8
14610.3
14637.9
14837.7
14773.8
14593.1
14683
14404.6
14731.2
14314.2
14816.8
14283.9
14736.4
14738.9
14737.4
14528.2
14368
14518.8
14738.2
14528.1
14310.6
14768.8
14755.5
14910.7
14914.4
14743.1
14782.5
14339
14367.9
14138.3
14190.8
14557.7
14479.1
14471.7
14442.7
14867.3
14611
14317.7
14280.2
14612
14477.6
14981.9
14460.4
14468.5
14592.3
14200
14211.1
14460.3
14456.3
14508.3
14499.2
14751.8
14723.7
14648.5
14589.7
14304.4
14486.1
14766.3
14413.8
14404.9
14692.3
14821.4
14430.5
14208.9
14374.7
14215.1
14549.5
14512.1
14464.7
14353.4
14135.4
14706.4
14711.3
14617.6
14585.1
14859.8
14702.2
14633
14612.8
14385.9
14467.2
14758.5
14669.1
14505
14214.7
14591.1
14855.5
14865.8
14599.3
14623
14815.2
14720.4
14778.7
14390.1
14450.5
14362.7
14493.6
14565.1
14787.5
14810.1
14396.4
14378.7
14665.2
14939.6
14469.7
14477.8
14317.2
14653
14566.7
14784.1
14827
14510.2
14316.3
14850.4
14925.9
14249.8
14910.3
14812.4
14724.2
14857.6
14669.9
14621.6
14596.7
14854.3
14608.2
14643.8
14590
14715.9
14623
14573.3
14567.4
14353.5
14699.4
14656.3
14723.5
14704.8
14724.2
14670.1
14618.8
14337.9
14785.5
14800.7
14674.1
14571.1
14624.8
14906.6
14528.9
14381.7
14338.7
14723.9
14626.7
14896.6
14522.9
14549.1
14624.8
14182
14148.6
14468
14459.8
14549.3
14354.9
14396.6
14762.8
14589.1
14817.1
14584.4
14869.8
14720.4
14724.3
14340.7
14154.6
14120.3
14481.6
14716
14503.4
14469.6
14193.8
14547.3
14797.4
14544.8
15133.8
14415.1
14746.8
14811.1
14690
14804.6
14836.4
14738.9
14607.1
14556.3
14574.5
14709.3
14544.9
14615.5
14638.5
14627.4
14734.2
14675.5
14712.9
14402.6
14423.2
14123.5
14214.5
14324.7
14003.8
14500.2
14502.3
14540.3
14579.2
14323.8
14358.6
14506
14800.4
14839
14504.6
14313.8
14534.9
14755.1
14766.7
14555.9
14328.4
14413.7
14671.6
14674.1
14554
14512.7
14686.8
14715.2
14841
14695.4
14597.4
14500.4
14389.8
14328.3
14637
14687.7
14910.5
14553.6
14904.7
14634.9
14955.8
14479.1
14538.8
14401.6
14441.2
14494
14396.2
14540.4
14305
14471.5
14792.5
14508.8
14371.8
14869.9
14703
14619.8
14583.9
14950.3
15090.8
14249.4
14674.8
14702
14649.5
14411.3
14568
14469.2
14652.4
14784.9
14744.5
14409
14683.2
14620.7
14673.3
14672.8
14619.3
14546.5
14566.4
14501.1
14329.4
14309
14394.7
14801.9
14477.8
14341.4
14480
14773.4
14525.2
14821.3
14753
14656.1
14599.1
14666.6
14852.9
14391.8
14658.7
14810.5
14782.4
14615.9
14448.6
14554.7
14677.3
14791.8
14396.4
14567.3
14625
14760.2
14624.2
14700.9
14825.9
14390
14466.7
14441.3
14868.4
14753.3
14576.3
14763.5
14456.5
14491.5
14762
14728
14821.8
14389.5
14713.8
14754.2
14593.2
14650.1
14711.2
14435.8
14283.7
14568.1
14713.6
14954
14553.1
14493.8
14561.6
14644
14721
14574.6
14466.3
14547.4
14736.4
14504.4
14414.4
14533.1
14467.8
14618.2
14595.3
14779.3
14667.8
14706.3
14493.2
14582.4
14615.5
14550.3
14516.4
14506.6
14488.6
14404.8
14684.7
14612.9
14592.8
14666.5
14311.2
14497.1
14872.6
14858.8
14449.2
14765.3
14645
14656.8
14510.8
14801.4
14761
14374.1
14516.1
14499.1
14498.3
14361
14351.3
14495.7
14786
15028.4
14470.7
14717.4
14683.1
14627.7
14544.2
14617
14791.7
14712.2
14385.6
14499.1
14486.4
14541.4
14657.1
14733.4
14691.8
14690.7
14722.8
14476.8
14689.4
14512.7
14709.7
14147.5
14671.6
14781.9
14516.3
14253.6
14643.3
14589.6
14856.9
14449.5
14691.4
14584.7
14285.4
14877.6
14379
14547.4
14556.1
14332.5
14773.6
14592.7
14561.9
14671.7
14593.5
14519.3
14855.4
14404.3
14499.9
14152.2
14676.9
14496.8
14562.4
14771.8
15063.4
14364.4
14519.6
14974.8
14389.8
14690.3
14461.3
14658.3
14296.7
14470.6
14967.5
14272.5
15021.6
14298.8
14865.9
14335.2
14445
14229.4
14447.8
14935.4
14213.3
14645.9
14284.9
14901.3
14935.1
14231.1
14651.4
14421.4
14380
14359.7
14474.8
14559.8
14567.9
14640.9
14545.5
14844.4
14983
14238.5
14710.4
14607.3
14554.1
14579.8
14548.2
14562.9
14542.2
14713.4
14568.3
14700.7
14508.5
14627.6
14797.1
14506.3
14631.7
14744.2
14494.8
14628.4
14571.5
14645.6
14538.1
14613.2
14521.8
14729.6
14502.7
14608.5
14314.5
14892.5
14226.6
14752.7
14760.6
14807.3
14443.2
14586.6
14535.5
14565.2
14637.2
14577.6
14717.8
14414.7
14102
14773.7
14262.6
14808.2
14456.7
14568.4
14821.8
14102.2
14988.1
14502.6
14198.3
14557.5
14674
14652
14604.2
14189.7
14633.2
14657.8
14469.4
14445.9
14805.1
14784
14508.8
14555.3
14804.2
14210.9
14789.3
14447.7
14650.8
14232.6
15077.8
14881.7
14723.7
14610.1
14591.2
14729.8
14566.1
14187
14397
14683.6
14455.1
14757.4
14241.6
14813.6
14726.2
13981.5
14640.4
14628.3
14120.7
14957.8
14300.6
14796.2
14884
14742.2
14126.5
14604.4
14543.6
14632.8
14624.1
14701.3
14197.3
14543.6
14440.4
14448.5
14816.8
14592.5
14729.8
14650.5
14658.7
14540.8
14587.8
14552.3
14607.2
14765.6
14485.6
14534.8
14465.8
14653
14763.1
14490.6
14508.8
14492.2
14590
14451.9
14453.1
14517.2
14532.6
14587.7
14573.1
14816.8
14759.4
14239.4
14316.1
14885.8
13985.7
14677.8
14660.9
14476.2
14546.4
14947.2
14127.5
14741.4
14703.2
14150.9
14515
14506.1
14665.7
14103.1
14778.7
14767.4
14083.8
14755.4
14827.4
14201.7
14803.7
14786.5
14209
14490.3
14465.3
14140.4
14572.3
14600
14478.9
14442.2
14564.8
14078.1
14418.6
14269
14074
14755.5
14421.2
14921.7
14550.3
14189.6
14755.6
14670
14141.9
14498.6
14500.8
14138.1
14288.8
14982.2
13930.1
14404.7
14569.9
14043.6
14771
14721
14573
14504
14517.7
14388.4
14068.3
14577.3
14492
14514.7
14574.9
14147.5
14760.7
14475.7
14551.7
14446.6
14540.8
14586.9
14401.8
14171.4
14524.3
14722.8
14465.4
14516.2
14582.2
14439.5
14532.8
14165
14527
14761.5
14449.2
14546.9
14445.6
14189.4
14879.9
14900.4
14760.3
14888.5
14194.5
14108.6
14559.3
14831.4
14597.4
14686.8
14719.4
14402.4
14344.7
14218.7
14301.2
14417.3
14553.1
14539.1
14529.8
14387.5
14731.2
14661
14211.2
14371
14399.5
14712.8
14431.9
14088.7
14759.8
14554.8
14745.9
14138.1
14548.7
14698.1
14493.6
14525.6
14689.4
14556.1
14387.6
14855.3
14003.5
14495.1
14640.8
14448.7
14499.3
14845.6
14684.3
14612
14351.9
14807.6
14513.2
14593.3
14714.1
14755
14731.7
14752.5
14846.4
14876.5
14814.6
14814.8
14726.9
14739.3
14481.3
14538.9
14413.8
14302.3
14047.4
14851.1
14833.5
14768.3
14513.8
14589.4
14579
14447.7
14615.3
14726.5
14412.9
14543.5
14676.6
14501.4
14488.4
14469.3
14512.8
14421.1
14502.6
14489.3
14227
14693.8
14433
14536.5
14120
14917.2
14552
14452.7
14424.3
14243.4
14585.6
14461.8
14126
14386.3
14538.5
14331.1
14330.5
14869.1
14901
14500.4
14497.2
14708.6
14826.6
14114.9
14557
14432.5
14495.9
14499.9
14514.7
14546.7
14369.8
14160.6
14855.1
14500.3
14327.8
14363.6
14481
14571.9
14259.7
14627.4
14483.1
14479.1
14828.2
14341.9
14198.9
14525.2
14470.9
14443.4
14169.3
14795.8
14505.8
14466.8
14488.1
14123.7
14537.7
14498.7
14210.4
14526.9
14379.7
14633.4
14764
14472.8
14707.8
14603.2
14453.7
14448.7
14505.7
14182.6
14685.7
14721.5
14474.8
14154.1
14399.4
14533.6
14543.9
14460.1
14170.1
14472.4
14743
14646.5
14501.5
14867.9
14311.1
14796.1
14119
14319.9
14828.4
14153.6
14750.3
14538.1
14571.1
14484
14926.6
14362.8
14563.6
14804.3
14844.9
14224.9
14780.8
14839.6
14006.4
14727.9
14453
14125.9
14805.2
14447.9
14472.9
14475.2
14546.4
14518.8
14469.8
14466
14105
14753.9
14600
14557.8
14581.9
14509.3
14444.8
14399.9
14807.1
14074.4
14424.3
14590.5
14134.2
14749
14833.2
14696
14781
14848.4
14388
14684.1
14644.8
14780.4
14438.2
14680.4
14365.1
14178.8
14779.4
14358.8
14741.1
14907.7
14818.2
14141.6
14792.7
14657
14421.3
14469
14509.2
14459.5
14146.3
14883.6
14148.2
14877.6
14507
14368.9
14443.6
14615.5
14664.2
14872.2
14552
14881.2
14769.2
14733.8
14229.8
14742.6
14681.9
14765.9
14453.6
14413.2
14114.1
14529.8
14873
14819
14138.1
14374.7
14252.5
14449.5
14540.1
14349
15060
14482.7
14363.1
14162.9
14651.7
14429.3
14051.7
14591.3
14469.4
14454.6
14471.9
14475.4
14169.8
14332
14127
14509.8
14813.9
14638.6
14811.1
14778.4
14425.8
14378.5
14144.4
14401.4
14768.3
14786
14764.1
14711.7
14320.9
14140.9
14366.3
14094.7
14712.5
14744.3
14392.7
14720.4
14753.1
14767.5
14713.6
14574.3
14563.5
14424.9
14074.2
14394.1
14176.4
14428.8
14471.7
14456.5
14209.9
14144.1
14667.7
14859.6
14915.2
14824.2
14559.7
14636.1
14634.8
14574.4
14482.9
14548.7
14401.5
14514.3
14515.4
14134.2
14795.3
14514.7
14381.6
14213.5
14507.4
14549.1
14546
14464.4
14217.3
14822.7
14617.3
14465.6
14857.4
14397.4
14123.5
14743.8
14536.5
14518.6
14510.5
14451.4
14043.1
14647.8
14510.2
14152.5
14908.1
14500
13977.5
14469.4
14535.2
14550.6
14445.2
14151.8
14440.1
14452.3
14281
14512.4
14120.3
14536.7
14526.2
14249.3
14931.3
14505
14215.1
15029.7
14538.4
14544.2
14204.8
14519.6
14157.5
)
;
    }
}


// ************************************************************************* //
