/*--------------------------------*- C++ -*----------------------------------*\
| =========                 |                                                 |
| \\      /  F ield         | OpenFOAM: The Open Source CFD Toolbox           |
|  \\    /   O peration     | Version:  v1906                                 |
|   \\  /    A nd           | Web:      www.OpenFOAM.com                      |
|    \\/     M anipulation  |                                                 |
\*---------------------------------------------------------------------------*/
FoamFile
{
    version     2.0;
    format      ascii;
    class       volScalarField;
    location    "0.59/sphere";
    object      T;
}
// * * * * * * * * * * * * * * * * * * * * * * * * * * * * * * * * * * * * * //

dimensions      [0 0 0 1 0 0 0];


internalField   nonuniform List<scalar> 
7664
(
478.669
479.167
479.004
480.048
478.754
479.313
480.267
481.597
482.774
481.017
478.986
482.469
483.545
481.905
481.378
482.525
480.819
480.221
481.407
479.827
479.08
482.72
483.945
482.158
479.9
483.502
484.762
483.032
479.023
479.244
482.481
483.647
481.913
481.103
479.817
480.944
482.129
480.205
478.68
481.823
482.98
481.276
480.607
481.88
480.072
478.962
478.892
478.923
478.844
478.937
478.721
480.01
479.045
482.072
480.987
482.814
481.849
481.009
482.953
481.934
479.197
478.748
480.082
479.071
481.964
482.334
481.281
480.12
479.125
479.461
479.002
478.874
478.91
478.902
478.951
478.837
478.791
478.835
478.686
478.836
478.862
478.722
478.888
479.558
478.948
479.788
480.295
481.549
478.951
479.809
481.566
480.381
479.695
478.651
480.1
478.638
481.093
479.133
478.963
479.943
480.899
482.055
481.788
482.809
479.042
479.455
479.319
480.472
480.258
480.019
480.617
478.704
480.196
481.169
478.732
478.703
478.684
481.121
480.348
479.981
478.966
479.42
481.811
482.829
481.132
482.242
479.088
479.449
479.003
482.836
481.877
482.26
481.2
481.198
478.773
480.438
479.903
479.304
480.608
481.798
480.307
481.811
480.681
480.322
480.038
480.613
480.638
480.303
479.772
478.892
481.518
480.25
481.111
482.294
480.228
481.371
482.261
483.424
479.654
482.307
481.215
481.406
480.279
483.441
482.36
480.51
479.833
481.629
479.007
478.795
480.893
478.941
481.76
479.078
481.996
479.866
482.741
478.744
481.877
479.064
482.163
479.228
482.994
480.155
478.978
478.836
481.786
481.114
479.901
482.766
479.362
482.2
479.108
481.236
479.017
483.022
480.195
482.368
479.516
479.022
480.596
479.243
481.769
480.29
482.513
480.724
482.477
483.604
480.705
481.755
481.481
480.739
480.162
483.627
482.604
481.785
480.756
481.902
479.347
480.336
481.081
481.101
480.615
480.639
479.759
478.886
481.503
480.303
481.373
482.26
483.423
480.242
481.103
482.32
480.277
483.444
482.36
480.25
479.661
482.335
481.211
481.622
479.003
480.524
478.795
481.998
479.864
482.75
480.895
478.939
481.766
479.231
483
480.157
481.048
478.74
481.948
479.076
478.979
478.836
482.772
479.356
482.195
478.977
481.789
481.121
480.198
482.376
479.506
481.985
479.119
481.29
479.028
481.78
480.274
480.605
483.615
480.71
481.758
481.382
482.556
480.724
482.619
481.791
480.755
482.583
481.53
480.731
480.164
479.345
480.34
480.856
481.082
479.579
479.805
480.316
481.585
478.971
481.597
480.388
478.978
479.71
480.124
478.64
481.083
478.663
482.114
481.796
482.941
478.683
479.172
478.977
480.01
481.238
478.731
478.73
481.116
480.349
478.69
482.965
481.146
482.31
479.015
480.049
478.951
479.431
478.776
480.497
478.774
479.892
481.854
480.317
479.305
480.728
480.324
479.318
478.649
478.57
478.497
478.616
478.547
478.632
478.539
478.643
478.548
478.687
478.652
478.842
478.756
478.536
478.5
478.696
478.674
478.527
478.879
478.932
478.82
478.677
478.633
478.837
478.753
478.882
478.8
479.103
480.153
479.242
479.701
479.575
478.914
479.43
479.286
480.416
480.099
479.844
480.568
479.063
479.505
479.358
480.54
480.312
480.053
480.693
478.893
478.815
479.125
480.213
479.264
479.74
479.621
478.928
479.478
479.312
480.491
480.161
479.901
480.656
479.53
479.068
479.441
480.606
480.209
480.701
480.021
479.695
479.337
479.544
480.716
480.558
480.865
480.307
479.024
479.16
479.32
480.399
479.556
479.828
479.999
478.556
478.509
478.729
478.7
478.551
478.85
478.727
478.64
478.744
478.817
478.723
479.004
480.05
479.187
479.657
479.486
478.854
479.028
478.675
479.317
480.409
478.949
480.049
479.247
480.497
479.875
478.762
479.479
478.91
478.869
479.411
479.488
479.313
479.606
479.224
479.647
480.074
479.913
479.714
480.84
479.81
479.828
479.821
480.322
480.169
480.308
481.395
480.102
481.025
480.715
480.763
480.528
481.575
479.376
479.5
479.809
479.872
479.1
478.638
478.722
479.408
479.51
478.891
480.352
480.019
478.926
479.288
479.847
480.46
479.21
478.696
478.668
479.46
479.29
479.559
480.057
480.014
480.287
481.371
479.719
480.517
480.777
480.668
481.314
480.669
480.979
480.041
481.527
480.47
480.693
481.771
481.22
482.147
481.116
481.963
480.91
481.949
479.535
480.327
479.704
479.614
480.148
480.312
480.162
479.3
478.94
480.499
479.895
479.148
478.703
478.606
480.672
480.937
479.709
479.619
480.848
480.756
479.469
479.021
478.933
478.878
479.612
480.021
479.144
479.671
479.85
480.656
480.988
480.932
480.809
479.352
479.448
479.758
479.538
479.692
480.309
480.136
479.604
478.626
478.769
478.948
480.781
479.421
479.891
479.168
479.467
479.925
478.921
478.839
479.393
478.655
479.309
478.802
479.995
481.284
480.154
479.889
480.7
480.452
479.635
479.455
479.528
479.778
479.513
478.511
478.707
478.829
478.628
478.744
479.045
479.264
479.051
479.078
478.965
479.27
478.856
479.734
479.227
479.301
479.566
479.315
479.46
479.748
479.519
479.678
480.295
479.601
480.098
479.59
479.538
479.756
480.99
479.213
480.126
480.336
478.866
479.746
479.59
479.233
479.304
479.002
479.293
479.096
479.526
479.701
480.3
479.6
480.121
479.372
479.484
479.788
479.583
481.048
480.143
479.619
479.84
479.252
480.399
479.096
479.353
479.148
479.102
478.624
478.803
478.974
478.525
478.721
479.392
479.218
478.787
478.615
478.78
478.934
479.075
479.366
479.333
480.651
478.846
479.817
479.757
478.719
478.529
479.364
478.777
479.192
479.356
478.995
480.225
479.197
480.573
480.386
479.976
478.815
479.295
479.133
480.3
480.014
479.739
480.47
478.615
479.44
479.282
478.77
478.83
479.411
480.737
479.845
479.135
479.446
478.896
479.891
478.695
478.864
479.052
478.78
478.63
479.458
478.831
479.284
478.844
478.683
479.428
478.827
479.343
478.849
479.086
479.189
478.837
479.399
478.66
478.816
479.312
478.832
479.07
479.155
479.28
479.642
480.815
479.606
480.001
479.14
479.953
479.662
479.795
481.023
480.736
479.51
480.818
480.935
480.235
478.94
479.111
479.463
479.207
479.702
479.902
479.566
480.554
479.276
480.475
479.395
480.748
480.209
479.474
479.042
480.139
479.394
480.607
480.525
479.981
479.656
479.321
479.509
480.637
480.501
480.786
480.262
479.004
479.152
479.287
480.331
479.517
479.795
479.955
478.898
479.133
479.251
478.905
479.494
478.747
478.874
479.404
479.338
479.677
480.9
479.72
480.038
479.189
480.075
478.897
479.158
479.253
479.401
479.393
479.681
479.638
479.192
480.068
479.89
479.713
479.98
479.86
481.262
480.167
480.404
479.64
480.709
479.812
479.931
480.203
479.979
480.712
480.188
480.059
480.532
479.502
479.346
479.63
480.009
479.91
481.311
480.237
480.437
479.68
480.758
479.983
480.715
480.21
480.056
480.551
479.831
479.963
480.244
479.455
479.503
479.772
479.506
480.129
480.132
480.419
480.402
480.227
480.171
480.441
480.508
480.298
480.222
480.077
479.32
479.45
479.734
479.054
478.937
479.193
479.582
479.773
479.518
480.978
479.206
480.338
480.06
479.49
479.65
480.259
480.074
479.567
479.184
478.774
479.69
479.5
479.265
481.326
480.062
481.008
480.682
480.717
480.478
481.546
481.32
480.062
480.669
480.983
480.483
480.704
481.53
481.712
481.075
481.065
482.119
480.824
481.916
481.91
481.03
479.873
479.941
479.904
480.415
480.259
480.442
481.771
481.111
481.22
482.146
480.907
481.949
481.963
481.402
480.107
480.758
481.068
480.557
480.793
481.606
479.652
479.895
479.666
481.097
479.306
480.414
480.205
479.119
479.01
479.326
479.541
479.711
480.328
480.146
479.613
479.267
478.912
479.81
479.629
479.334
478.438
478.471
478.648
478.636
478.484
480.246
478.788
479.981
479.25
479.721
479.08
480.426
480.309
478.931
480.16
479.292
479.884
479.135
480.496
480.569
479.579
479.585
480.908
479.333
480.733
480.746
480.215
479.263
478.815
478.898
479.632
479.741
479.125
480.485
478.925
480.142
479.478
479.877
479.318
480.648
480.561
479.08
480.35
479.554
480.076
479.372
480.749
480.841
479.961
479.977
481.215
479.701
481.006
481.035
478.653
478.545
478.69
478.583
478.887
478.888
478.738
478.504
478.685
478.759
478.594
478.681
480.059
478.858
479.387
479.017
479.607
479.095
479.792
480.664
479.618
480.94
479.697
480.764
479.455
480.842
480.475
479.222
479.485
480.41
479.325
480.151
480.664
480.589
480.178
479.041
479.527
479.989
480.685
479.437
480.388
479.011
479.538
479.166
479.794
479.327
480.001
480.943
480.001
481.251
480.097
481.04
479.825
481.138
480.736
479.36
479.764
480.601
479.589
480.331
480.923
478.931
479.018
478.871
478.91
478.799
479.97
479.855
480.147
481.244
479.628
480.397
480.68
479.803
479.918
480.191
479.607
479.143
480.021
479.85
479.672
479.964
480.165
480.691
480.516
480.034
481.243
480.288
480.341
480.325
480.754
480.736
480.658
481.683
481.38
480.558
481.123
481.117
481.883
480.94
481.67
480.545
481.357
481.102
481.091
480.937
481.86
482.04
481.485
482.425
481.469
482.236
481.252
482.217
481.744
481.393
480.592
481.146
481.156
481.904
480.984
481.409
480.394
480.384
480.403
480.836
480.86
480.747
482.097
481.508
482.452
481.617
482.258
481.335
482.283
481.754
480.599
481.448
481.194
481.184
481.014
481.95
479.542
479.366
479.671
479.843
479.981
480.265
479.683
479.249
480.134
479.954
479.743
480.008
480.212
480.755
480.577
480.081
480.656
480.623
480.906
480.896
480.746
480.923
480.984
480.8
480.727
480.595
480.131
480.404
480.425
480.234
480.131
480.509
480.444
480.303
480.22
480.088
480.17
479.491
480.263
479.639
479.568
480.076
479.181
479.693
478.791
479.27
479.499
479.327
479.449
479.733
479.031
478.938
479.202
479.561
480.967
479.769
479.503
480.341
480.047
479.211
481.715
481.069
482.121
481.082
481.91
480.825
481.918
480.846
479.801
479.822
479.827
480.165
480.303
480.328
481.335
480.677
480.069
481.008
480.487
481.543
480.728
481.404
480.755
481.067
480.104
481.605
480.558
480.796
481.386
480.7
480.086
481.021
480.516
481.565
480.753
481.029
479.907
479.874
479.934
480.255
480.454
480.409
479.268
479.808
478.895
479.336
479.622
479.379
479.508
479.824
479.652
481.104
479.904
479.668
480.442
480.182
479.31
479.121
479.024
479.32
478.485
478.643
478.637
478.496
478.435
480.581
479.6
480.906
479.579
480.754
479.363
480.728
479.865
478.727
479.097
478.646
479.523
478.89
479.42
480.257
479.247
478.811
479.978
479.097
480.422
479.75
480.568
480.352
479.557
479.082
480.749
480.069
479.386
480.853
479.98
481.219
479.969
481.037
479.715
481.019
480.225
478.903
479.275
478.818
479.742
479.137
479.623
480.503
479.49
478.929
480.168
479.331
480.671
479.895
478.894
478.891
478.753
478.659
478.563
478.767
478.679
478.616
478.694
478.477
480.483
479.497
480.407
479.218
480.668
479.346
480.151
480.347
479.285
480.012
478.928
480.451
479.214
479.84
480.049
479.019
478.85
479.39
479.102
479.78
479.614
480.961
481.255
480.1
480.009
481.144
481.057
479.836
480.746
479.761
480.599
479.352
480.926
479.586
480.317
480.617
479.535
480.21
479.053
480.712
479.453
480.008
480.409
479.177
479.013
479.548
479.339
480.003
479.808
478.903
478.807
478.703
478.679
479.968
480.694
480.167
480.032
480.528
479.464
479.296
479.557
479.991
481.254
479.853
480.163
480.377
480.711
479.625
479.792
479.925
480.196
481.674
481.361
481.114
480.552
481.869
481.107
480.937
482.041
482.428
481.479
481.49
482.225
482.242
481.246
481.226
480.328
480.285
480.326
480.739
480.632
480.745
481.68
481.123
481.392
480.562
481.891
480.936
481.12
482.123
482.461
481.622
481.533
482.293
482.284
481.344
481.774
481.454
481.193
480.599
481.956
481.204
481.018
481.767
481.146
481.411
480.585
481.925
480.992
481.165
481.429
480.414
480.402
480.383
480.882
480.748
480.846
479.681
480.132
479.224
479.744
479.942
480.014
480.761
480.225
480.083
480.593
480.061
481.403
480.028
480.317
480.535
480.806
479.737
479.533
479.37
479.669
479.848
479.982
480.281
480.897
480.911
480.736
480.657
480.724
480.594
480.679
479.273
479.051
479.057
479.512
479.678
480.295
480.108
479.597
479.598
479.775
481.021
479.55
480.371
479.217
480.118
479.08
478.967
479.269
479.773
478.865
479.238
479.315
479.579
479.379
479.489
479.797
481.069
479.579
480.151
479.624
479.85
480.417
479.268
478.891
479.779
479.598
479.249
479.317
479.003
479.307
479.091
479.097
479.353
479.149
479.107
479.067
479.339
480.656
479.384
479.767
478.851
479.819
478.704
478.549
479.35
479.194
478.757
478.627
478.81
478.983
478.557
478.717
479.377
479.215
478.767
478.837
478.743
479.036
480.099
479.198
479.671
479.515
479.411
480.288
479.022
480.651
479.235
480.449
480.006
478.844
479.324
479.173
480.359
480.034
479.779
480.521
478.714
478.877
479.063
478.801
478.63
479.483
479.316
478.851
478.861
479.056
478.698
478.632
479.468
479.301
478.785
478.842
478.837
479.079
479.156
479.282
480.819
479.63
479.62
479.978
479.981
479.132
478.677
478.851
479.429
478.818
479.355
478.838
479.101
479.193
479.334
478.976
479.279
480.464
480.077
480.547
479.915
478.954
479.12
479.238
480.281
479.485
479.735
479.916
479.609
480.525
479.284
480.827
479.422
480.62
480.239
478.926
479.524
478.737
479.423
478.896
480.96
479.721
480.083
479.365
479.756
480.107
479.203
478.907
479.158
479.26
478.739
479.516
479.432
478.921
478.887
479.161
479.267
478.9
479.402
479.684
479.396
479.811
479.928
480.206
479.979
480.721
480.191
480.536
480.06
479.501
479.32
479.62
480.097
479.186
479.651
479.909
479.716
481.38
479.985
480.53
480.063
480.237
480.786
479.697
480.004
480.737
480.209
480.571
480.067
479.852
479.962
480.254
479.225
480.116
479.938
479.661
479.725
479.38
479.663
479.525
479.906
479.952
481.071
479.729
480.917
480.827
480.973
482.762
482.448
483.521
482.722
483.929
483.476
484.722
481.698
483.524
482.526
483.943
482.848
484.733
483.674
481.454
481.167
480.122
481.605
480.642
480.776
481.994
483.542
481.802
482.925
483.497
484.738
482.886
484.06
482.548
482.937
481.89
484.751
483.7
484.08
483.037
481.533
481.113
481.818
482.446
481.022
481.626
482.35
481.948
481.958
480.816
481.933
481.435
482.487
481.412
482.364
482.366
482.006
483.065
481.848
482.902
482.523
483.927
483.483
484.726
481.612
482.808
482.449
483.646
482.847
484.739
483.683
482.823
481.722
483.653
482.606
481.542
481.327
482.566
481.974
481.72
481.144
482.384
484.745
482.885
484.07
482.47
483.671
481.809
482.988
483.714
484.098
483.05
483.682
482.638
483.014
481.964
481.923
482.211
482.931
482.853
482.102
482.021
482.754
482.31
483.033
481.972
482.31
482.49
482.857
481.798
482.761
483.473
483.095
483.478
482.927
483.302
482.928
480.362
481.111
481.398
481.739
480.482
480.934
481.222
481.077
481.531
481.38
480.07
481.929
480.699
480.558
481.519
481.956
482.533
481.292
482.368
481.125
481.674
481.442
482.367
481.727
481.026
482.275
481.525
480.944
481.89
482.825
482.885
482.138
482.726
481.986
482.043
481.178
480.49
480.39
479.54
480.495
480.393
479.576
481.719
481.096
480.93
480.356
481.374
481.2
480.467
479.832
479.867
479.619
480.729
481.039
480.873
480.881
481.433
481.233
481.902
482.442
481.074
481.586
482.279
481.095
480.098
481.546
481.408
480.715
480.587
481.932
481.685
481.985
482.688
482.659
481.843
481.83
482.521
481.359
481.036
481.686
482.339
480.879
481.508
482.186
481.17
481.583
481.467
480.109
482.006
480.755
480.647
481.791
482.806
482.79
482.113
482.637
481.953
481.95
481.46
481.77
482.452
481.118
482.295
480.959
481.615
479.901
479.933
479.669
480.814
481.143
480.966
480.981
481.56
482.482
481.86
481.155
482.381
481.654
481.062
481.681
482.672
482.182
481.519
482.52
481.829
481.364
481.342
481.64
481.839
480.408
482.171
480.833
481.019
479.974
480.018
479.786
480.922
481.176
481.019
481.072
480.727
479.914
480.996
481.361
480.05
480.548
480.791
480.743
481.397
480.57
479.926
481.008
480.056
480.825
479.317
480.339
480.935
480.313
480.167
479.441
480.135
479.675
479.641
480.993
479.415
480.835
480.647
480.797
481.016
480.034
481.489
481.341
480.672
480.521
481.861
481.208
482.426
481.558
481.377
481.874
481.039
482.241
481.271
480.975
481.633
482.284
480.806
481.435
482.129
481.963
482.676
481.82
481.631
482.635
481.785
482.488
480.388
481.011
480.221
479.381
480.403
479.49
480.236
479.438
480.372
480.346
481.029
479.479
480.275
480.242
481.375
481.005
482.308
481.722
481.461
480.919
482.218
481.987
481.709
482.648
482.747
481.799
481.903
482.554
481.184
480.286
481.509
481.687
480.707
480.885
482.018
481.517
481.422
482.55
482.044
481.705
481.236
482.359
482.012
482.69
481.861
481.771
482.754
481.922
482.606
481.071
482.373
481.543
481.467
481.789
480.995
482.293
481.577
481.441
482.566
482.096
481.727
481.285
482.412
481.259
480.338
481.563
481.745
480.768
480.939
482.08
480.421
479.497
480.439
481.112
479.532
480.332
480.345
480.288
481.008
481.613
481.317
480.821
480.421
481.127
480.303
481.016
481.651
481.324
480.848
480.423
481.156
479.912
481.347
480.967
480.689
480.782
480.505
480.028
481.648
480.458
481.693
481.701
481.099
481.098
482.261
482.043
481.709
482.09
482.859
481.503
482.25
482.655
482.024
482.072
481.68
482.834
481.485
482.633
482.227
482.422
483.238
482.818
483.232
482.628
483.031
482.622
482.142
482.1
481.723
482.876
481.552
482.272
482.705
481.783
481.734
480.553
481.797
481.183
481.2
482.342
482.475
483.26
482.839
483.261
482.654
483.079
482.659
482.108
482.172
481.769
482.904
481.581
482.716
482.298
479.968
481.456
481.05
480.812
480.862
480.638
480.089
480.968
479.994
481.316
481.453
480.473
480.589
481.841
481.239
481.6
480.936
482.257
480.774
482.109
481.397
481.306
481.808
481.145
482.36
480.96
482.185
481.482
481.567
482.588
482.611
481.878
482.443
481.722
481.738
481.73
481.442
481.08
482.419
480.925
482.27
481.595
481.541
481.988
481.33
482.571
481.154
482.386
481.721
481.808
482.79
482.843
482.172
482.644
481.964
482.007
481.332
480.968
481.684
482.282
480.876
481.428
482.184
481.132
481.467
480.255
481.677
480.65
481.982
480.845
481.653
482.612
481.907
482.686
481.752
482.514
481.824
481.456
482.024
482.495
481.367
482.318
481.193
481.633
481.317
481.597
480.373
481.802
480.797
482.127
480.998
481.894
482.814
482.204
482.923
481.994
482.716
482.096
481.687
482.175
482.71
481.551
482.512
481.366
481.874
480.272
481.592
480.977
481.295
480.804
481.105
480.393
482.315
482.327
481.995
483.051
481.808
482.862
482.506
482.296
482.29
483.022
481.967
482.84
481.777
482.481
482.674
483.423
483.401
483.054
483.222
482.874
482.853
482.02
482.02
480.908
482.034
481.503
482.553
481.515
482.723
483.438
483.456
483.08
483.26
482.893
482.912
482.374
482.394
483.115
482.07
482.908
481.874
482.571
480.354
481.71
481.106
481.39
480.922
481.198
480.479
479.87
480.959
480.679
481.323
480.007
480.768
480.485
482.023
481.679
482.831
482.072
482.224
481.484
482.632
482.426
482.818
483.231
483.236
482.623
482.626
483.036
481.651
481.691
480.449
481.728
481.092
482.26
481.12
482.056
482.868
481.721
482.134
482.25
482.677
481.529
482.476
482.841
483.263
483.262
482.66
482.654
483.084
482.118
481.769
482.907
482.189
482.3
481.592
482.733
482.164
482.092
482.884
481.734
482.267
482.708
481.556
481.793
481.735
481.809
480.533
481.211
482.347
481.183
479.956
481.045
480.804
481.451
480.084
480.865
480.617
481.307
481.145
482.364
481.81
481.482
480.963
482.188
481.572
482.62
481.885
482.587
481.746
482.449
481.72
480.972
481.451
479.992
481.325
480.598
481.846
480.483
481.25
482.262
481.617
480.941
482.122
481.396
480.793
481.82
482.844
482.177
482.816
482.008
482.656
481.984
481.502
481.188
481.615
480.15
480.779
482.033
480.67
481.793
481.473
482.472
481.132
482.314
481.633
480.969
481.65
481.911
482.689
482.607
481.828
481.744
482.511
481.456
482.493
481.364
482.006
481.632
482.312
481.185
481.32
482.279
480.969
481.7
481.419
482.183
480.876
481.121
481.655
481.49
480.259
481.98
480.822
480.658
481.707
482.716
481.555
482.204
481.88
482.542
481.378
481.891
481.578
482.507
481.169
481.67
482.411
481.069
481.662
481.356
481.847
480.405
482.182
481.029
480.835
480.313
480.982
481.302
481.614
480.411
480.81
481.132
482.678
483.412
483.059
483.435
482.861
483.224
482.883
481.948
481.949
481.96
480.823
482.493
481.428
481.43
482.314
483.078
482.338
482.022
482.86
482.524
481.812
482.412
483.131
482.083
482.435
482.585
482.948
481.91
482.414
482.398
483.114
482.046
482.948
482.559
481.878
482.066
482.056
482.077
480.932
482.598
481.553
481.53
480.767
479.922
481.014
481.398
480.817
480.062
480.569
481.427
480.775
480.594
479.939
481.024
480.843
480.067
479.307
480.934
480.309
480.323
480.138
480.164
479.419
482.514
481.275
481.648
481.454
481.915
482.314
481.083
481.341
481.652
482.345
480.99
482.194
480.838
481.498
482.791
482.084
481.926
481.722
482.738
482.583
481.879
479.729
481.09
479.683
480.919
479.464
480.716
480.87
481.079
480.447
480.273
479.418
480.457
480.289
479.532
479.431
480.346
481.028
480.364
480.25
479.462
480.271
482.874
482.112
482.026
481.809
482.752
482.656
481.899
481.238
481.509
481.74
480.307
482.067
480.723
480.933
482.65
481.492
481.801
481.596
482.111
482.443
481.293
479.869
481.125
479.708
481.037
479.562
480.817
480.897
481.07
480.311
481.649
481.352
481.142
480.869
480.452
482.187
482.027
482.182
482.57
482.754
482.56
483.127
482.62
483.151
482.988
483.358
483.191
483.554
483.723
483.006
482.384
482.992
482.917
482.898
483.46
483.553
483.391
483.461
483.308
483.86
484.114
483.952
484.025
483.314
483.097
482.548
483.129
482.92
483.504
483.684
483.765
483.759
483.584
483.961
484.331
484.151
484.14
483.413
483.332
483.242
483.814
484.081
483.992
483.904
484.3
484.597
484.661
484.57
484.492
484.404
484.467
483.141
482.58
483.343
482.956
483.144
483.517
483.711
482.312
482.983
482.971
482.843
482.829
483.395
483.534
483.391
483.338
483.204
483.767
484.085
483.957
483.901
482.548
483.317
483.095
483.127
482.917
483.497
483.683
483.736
483.725
483.529
483.906
484.315
484.116
484.102
483.313
483.345
483.176
483.75
484.054
483.884
483.926
484.161
484.495
484.575
484.479
484.369
484.299
484.351
482.262
482.119
482.632
482.29
482.826
482.677
483.191
483.399
483.363
483.232
483.796
484.095
483.967
483.928
482.388
483.036
482.887
483.092
482.947
483.449
483.594
483.754
483.763
483.575
483.952
484.329
484.132
484.148
482.675
483.399
483.258
483.209
483.072
483.59
483.784
484.203
484.51
484.591
484.55
484.384
484.338
484.407
483.478
483.529
483.334
483.85
484.2
483.996
484.051
483.36
483.456
483.27
483.83
484.104
483.922
484.016
482.167
482.377
482.365
482.706
482.69
482.92
483.244
483.251
482.745
483.483
483.062
483.297
483.617
483.806
483.333
483.406
483.239
483.811
484.074
483.902
483.981
484.215
484.508
484.5
484.626
484.317
484.414
484.402
482.719
483.207
483.455
483.037
483.277
483.602
483.775
483.868
483.848
483.667
483.996
484.401
484.199
484.183
483.062
482.472
483.112
482.976
483.021
483.526
483.617
483.261
482.785
483.495
483.101
483.331
483.648
483.815
482.251
482.437
482.464
482.761
482.795
482.981
483.304
484.254
484.522
484.578
484.644
484.359
484.427
484.471
483.496
483.61
483.401
483.916
484.229
484.017
484.131
483.88
483.901
483.7
484.032
484.421
484.21
484.245
482.839
483.391
483.56
483.183
483.35
483.691
483.905
483.725
483.739
483.538
483.919
484.315
484.105
484.126
483.351
483.315
483.18
483.753
484.061
483.93
483.89
484.172
484.581
484.484
484.537
484.357
484.391
484.311
482.18
482.226
482.044
482.761
482.564
482.618
483.138
483.215
483.368
482.627
483.176
483.016
483.555
483.756
482.974
482.319
483.024
482.832
482.884
483.398
483.54
483.495
483.433
483.287
483.813
484.179
484.027
483.957
483.402
483.256
482.682
483.227
483.078
483.607
483.788
484.225
484.597
484.565
484.55
484.417
484.403
484.375
483.535
483.504
483.354
483.878
484.213
484.061
484.028
482.661
483.229
483.056
483.382
483.209
483.588
483.765
482.292
482.173
482.694
482.31
482.846
482.719
483.235
483.506
483.485
483.334
483.86
484.189
484.038
484.015
482.463
483.136
482.98
483.15
482.999
483.513
483.665
484.217
484.504
484.639
484.553
484.41
484.321
484.444
483.208
483.464
482.72
483.035
483.288
483.606
483.784
483.858
483.881
483.667
483.998
484.414
484.192
484.221
482.991
483.042
482.389
482.901
482.947
483.464
483.555
483.573
483.446
483.349
483.866
484.197
483.967
484.094
482.363
482.179
482.404
482.693
482.926
482.737
483.249
483.343
483.524
482.788
483.305
483.13
483.643
483.867
483.622
483.537
483.443
483.961
484.245
484.149
484.059
483.918
483.92
483.743
484.077
484.441
484.265
484.252
483.403
483.573
482.878
483.225
483.388
483.735
483.921
483.519
483.586
483.421
483.945
484.212
484.046
484.113
483.166
482.553
483.068
483.183
483.091
483.601
483.697
483.365
482.867
483.208
483.558
483.391
483.724
483.893
482.331
482.516
482.853
482.516
482.862
483.036
483.373
477.479
475.768
474.354
477.59
475.916
474.559
477.556
475.864
474.502
477.589
475.862
474.416
477.477
475.755
474.314
477.491
475.796
474.387
477.509
475.818
474.432
478.115
476.549
475.25
478.295
476.774
475.537
479.091
477.691
476.506
477.484
475.764
474.324
479.043
477.64
476.451
478.814
477.344
476.098
478.654
477.141
475.895
477.521
475.786
474.313
477.423
475.64
474.134
478.024
476.45
475.143
478.218
476.696
475.458
480.187
479.21
478.472
478.81
477.345
476.104
478.657
477.145
475.894
477.428
475.717
474.287
477.462
475.755
474.36
477.379
475.596
474.087
477.33
475.526
473.992
477.332
475.53
473.998
477.314
475.518
473.99
477.386
475.603
474.092
477.652
475.985
474.635
477.679
476.005
474.635
477.615
475.93
474.575
477.914
476.34
475.073
477.996
476.444
475.186
477.314
475.52
473.992
477.359
475.583
474.079
477.4
475.636
474.149
477.477
475.745
474.29
477.293
475.507
473.995
477.349
475.568
474.062
477.341
475.559
474.051
477.353
475.572
474.066
477.369
475.594
474.092
477.82
476.151
474.776
478.622
477.111
475.856
477.817
476.153
474.786
478.648
477.136
475.883
477.409
475.693
474.295
477.411
475.69
474.285
477.59
475.875
474.407
477.443
475.737
474.337
477.46
475.743
474.313
477.481
475.771
474.377
477.479
475.776
474.386
477.462
475.756
474.365
477.929
476.354
475.089
478.026
476.477
475.238
477.508
475.807
474.396
477.537
475.841
474.451
478.289
476.767
475.533
479.439
478.196
477.167
479.27
477.973
476.927
479.463
478.218
477.187
479.287
477.988
476.94
479.595
478.479
477.643
479.604
478.484
477.641
478.618
477.101
475.846
477.749
476.081
474.71
478.658
477.146
475.904
477.72
476.027
474.614
477.85
476.189
474.827
477.288
475.493
473.962
477.471
475.736
474.288
477.62
475.889
474.431
477.368
475.565
474.038
477.343
475.569
474.063
477.887
476.295
475
478.051
476.506
475.281
477.982
476.373
475.044
477.424
475.641
474.135
478.22
476.699
475.468
479.419
478.175
477.142
479.253
477.95
476.9
479.707
478.52
477.534
479.691
478.506
477.522
479.225
477.924
476.89
479.345
478.078
477.045
479.687
478.49
477.508
478.129
476.567
475.276
478.302
476.784
475.549
479.461
478.214
477.185
479.287
477.989
476.945
480.183
479.214
478.488
480.188
479.213
478.478
479.594
478.477
477.64
479.603
478.482
477.639
478.59
477.072
475.814
477.739
476.073
474.702
478.622
477.118
475.903
478.609
477.103
475.87
477.713
476.022
474.615
477.838
476.176
474.808
477.29
475.496
473.965
477.539
475.843
474.456
477.6
475.917
474.554
477.466
475.734
474.296
477.369
475.566
474.037
477.34
475.567
474.061
477.972
476.361
475.025
477.525
475.809
474.39
477.89
476.296
475.005
478.074
476.522
475.283
477.952
476.37
475.096
479.39
478.146
477.112
479.218
477.917
476.865
479.699
478.514
477.533
479.679
478.483
477.501
479.688
478.504
477.526
479.231
477.932
476.899
479.356
478.095
477.071
479.211
477.912
476.873
478.307
476.789
475.565
479.293
477.996
476.953
480.182
479.212
478.482
478.64
477.127
475.877
477.675
475.984
474.577
477.83
476.164
474.79
477.7
476.011
474.601
477.84
476.179
474.821
477.417
475.691
474.28
477.396
475.669
474.227
477.416
475.694
474.295
477.446
475.728
474.295
477.469
475.759
474.361
477.459
475.742
474.31
477.468
475.756
474.36
477.405
475.697
474.266
477.442
475.741
474.353
477.985
476.435
475.194
477.529
475.835
474.452
477.521
475.826
474.431
479.459
478.217
477.191
479.28
477.981
476.932
478.089
476.518
475.213
478.279
476.757
475.527
479.275
477.976
476.933
478.291
476.771
475.54
477.353
475.616
474.182
477.444
475.732
474.39
477.41
475.727
474.415
477.292
475.587
474.186
477.331
475.586
474.13
477.436
475.72
474.373
477.364
475.622
474.179
477.354
475.612
474.169
477.388
475.662
474.231
477.595
475.94
474.65
477.594
475.93
474.564
477.661
476.022
474.754
477.333
475.598
474.178
477.413
475.689
474.345
477.267
475.552
474.161
477.36
475.647
474.312
477.296
475.527
474.029
477.287
475.533
474.049
477.411
475.647
474.159
477.488
475.759
474.309
477.422
475.694
474.259
477.568
475.922
474.648
477.603
475.943
474.589
477.659
476.028
474.767
477.736
476.06
474.696
477.554
475.847
474.468
477.713
476.037
474.68
477.571
475.866
474.5
477.824
476.207
474.917
478.076
476.52
475.281
477.32
475.591
474.184
477.415
475.696
474.347
477.384
475.669
474.325
477.266
475.55
474.151
477.314
475.548
474.052
477.298
475.544
474.06
477.442
475.73
474.291
477.339
475.6
474.125
477.607
475.958
474.667
477.545
475.896
474.563
477.655
476.021
474.757
477.661
475.98
474.61
477.49
475.768
474.379
477.669
476.009
474.659
477.774
476.127
474.779
477.516
475.812
474.396
477.579
475.905
474.567
477.498
475.804
474.416
477.566
475.865
474.414
477.598
475.913
474.522
477.612
475.955
474.621
477.575
475.91
474.545
477.747
476.114
474.824
477.677
476.025
474.652
477.668
476.01
474.639
477.57
475.879
474.474
478.422
476.939
475.724
478.487
477.03
475.872
478.604
477.17
476.011
478.373
476.892
475.699
478.228
476.722
475.514
478.266
476.751
475.533
478.087
476.532
475.271
478.192
476.662
475.464
478.464
476.985
475.756
478.669
477.232
476.05
478.694
477.256
476.068
478.701
477.224