/*--------------------------------*- C++ -*----------------------------------*\
| =========                 |                                                 |
| \\      /  F ield         | OpenFOAM: The Open Source CFD Toolbox           |
|  \\    /   O peration     | Version:  v1906                                 |
|   \\  /    A nd           | Web:      www.OpenFOAM.com                      |
|    \\/     M anipulation  |                                                 |
\*---------------------------------------------------------------------------*/
FoamFile
{
    version     2.0;
    format      ascii;
    class       volScalarField;
    location    "19";
    object      alphat;
}
// * * * * * * * * * * * * * * * * * * * * * * * * * * * * * * * * * * * * * //

dimensions      [1 -1 -1 0 0 0 0];


internalField   nonuniform List<scalar> 
78750
(
1.59117e-06
3.24028e-06
1.70508e-05
5.35151e-05
9.84341e-05
7.11494e-05
7.5061e-05
8.74643e-05
8.67353e-05
6.89256e-05
6.03843e-05
7.94245e-05
0.000121354
0.000193482
0.000302974
0.000426223
0.000505423
0.00053079
0.000530004
0.000519499
0.000507848
0.000500776
0.000509269
0.000568256
0.000749913
0.00111737
0.00142652
0.0015298
0.00161236
0.00166658
0.00168606
0.00166315
0.00158436
0.00142765
9.82298e-05
1.82999e-05
9.56849e-05
1.98849e-05
8.02988e-05
0.000291836
0.000405844
0.000799456
0.00100301
0.00112357
0.00110598
0.00106744
0.000949027
0.000797983
0.000685096
0.000629731
0.000626995
0.000668062
0.00074721
0.000860312
0.00102939
0.00128139
0.00146618
0.00146782
0.00147261
0.00147951
0.00148727
0.0014947
0.00150113
0.0015069
0.00138486
0.00122892
0.00106011
0.000964685
0.00088205
4.69954e-05
2.61107e-05
3.41653e-05
5.4893e-05
1.7611e-05
2.03375e-05
5.31045e-05
0.000165252
0.000504137
0.000743672
0.000798739
0.000862913
0.00090742
0.000950164
0.00102043
0.00111594
0.00122325
0.00135759
0.00145975
0.00145716
0.00145592
0.0014557
0.00145629
0.00145727
0.00145825
0.00145885
0.00145842
0.00145574
0.00144912
0.00143651
0.00141535
0.00138249
0.00133427
0.00126672
0.000962061
4.29761e-05
4.23616e-05
0.00037464
0.000317409
0.000343791
0.00070088
0.000851464
0.000516423
0.000366317
0.000355292
0.000441082
0.000588097
0.000740437
0.000897584
0.00104974
0.00116265
0.00121611
0.00121899
0.00119539
0.00116375
0.00113523
0.00111541
0.00109381
0.0010521
0.000991148
0.000940661
0.000933057
0.000984604
0.00106653
0.00112134
0.00116961
0.00119709
0.00124515
0.00119208
0.00111107
4.80344e-05
5.43554e-05
0.00108307
0.00116821
0.00123844
0.00109065
0.000734204
0.000651268
0.000779372
0.00100905
0.00115674
0.001239
0.00134262
0.00146626
0.00146821
0.0014487
0.00143107
0.00141512
0.00140032
0.00138616
0.0013724
0.00135905
0.00134626
0.00133433
0.00125906
0.00101636
0.000835258
0.00070527
0.000607538
0.000534705
0.000481502
0.000425593
0.000331809
0.000334619
0.000427852
4.43494e-05
3.87064e-05
0.000627411
0.00100499
0.00102195
0.000961563
0.000955062
0.0010675
0.00128642
0.00134184
0.00136437
0.00137846
0.00138513
0.00138576
0.00138142
0.00137278
0.00136034
0.00134422
0.0013215
0.00128985
0.00125121
0.00120984
0.00117025
0.00100833
0.000963606
0.000987957
0.000903712
0.000725224
0.00059179
0.000513961
0.000459379
0.000412861
0.0003775
0.000401882
0.000434591
3.67266e-05
6.06863e-05
0.000842106
0.00100043
0.000969357
0.00106994
0.00133721
0.0015113
0.00153279
0.00155043
0.00156364
0.00157207
0.0015757
0.00157412
0.00156687
0.00155347
0.00153342
0.00150635
0.00147231
0.00143228
0.00138841
0.0013429
0.001297
0.00125135
0.00120658
0.00109803
0.000922635
0.00082272
0.000701768
0.000623711
0.00057204
0.000514331
0.000466903
0.000460367
0.000443053
3.018e-05
6.20264e-05
0.000436052
0.000535928
0.000642335
0.000856994
0.00113206
0.00143524
0.00144158
0.00144568
0.00144837
0.00144843
0.00144628
0.00144261
0.00143818
0.0014337
0.00142952
0.0014252
0.00141931
0.00141012
0.00139622
0.00137694
0.00135235
0.00132296
0.00128852
0.00125014
0.00121213
0.000948287
0.000624303
0.000585412
0.00058945
0.000572381
0.00056646
0.000578893
0.00053076
3.45603e-05
4.90713e-05
0.000741207
0.000883405
0.000980626
0.00107256
0.00109383
0.00105534
0.00103205
0.00108476
0.00124356
0.00141642
0.00140481
0.00139218
0.00137873
0.0013646
0.00134984
0.00133432
0.00131734
0.00129756
0.00127323
0.00124239
0.0012037
0.00115756
0.00110583
0.00105232
0.000832667
0.000416324
0.000225642
0.000243637
0.00040911
0.000555104
0.000583178
0.000557827
0.000496366
3.28363e-05
3.84751e-05
0.000633392
0.000645728
0.000612984
0.000663467
0.000766822
0.000869803
0.000953624
0.00103413
0.00110945
0.00113858
0.00108093
0.000996256
0.000926884
0.000879037
0.000931707
0.00102548
0.00109266
0.00112474
0.0011208
0.00108189
0.00101734
0.000948736
0.000891255
0.000843657
0.000712277
0.000417528
0.000256299
0.000247394
0.000355509
0.00058452
0.000866852
0.000974254
0.000917783
3.84148e-05
2.88342e-05
0.000309823
0.000393022
0.000551373
0.000875945
0.00118425
0.00120471
0.0012199
0.0012304
0.00123657
0.0012389
0.00114633
0.001004
0.000960299
0.000977605
0.00101007
0.00102866
0.00102204
0.000994699
0.000955116
0.000910125
0.000864257
0.000821705
0.000787975
0.000773509
0.000792356
0.000863008
0.00106902
0.00137034
0.00133372
0.00128612
0.00122734
0.00091841
0.000582986
3.74916e-05
3.39036e-05
0.000107779
0.000320525
0.000503059
0.00048022
0.000540568
0.000753391
0.00111863
0.00120274
0.00122329
0.0012425
0.00126174
0.00128265
0.00130708
0.00133742
0.00137447
0.00141547
0.00145757
0.0014994
0.0015397
0.00151242
0.00145508
0.00143103
0.00139245
0.00131668
0.0012205
0.00112033
0.00100488
0.000893017
0.000850093
0.000901938
0.000986606
0.00093148
0.000695768
5.15684e-05
2.48157e-05
0.000138449
0.000338732
0.000458947
0.000496125
0.000514501
0.000539693
0.000596308
0.000677099
0.000748784
0.000799272
0.000815271
0.000722892
0.000554953
0.000456592
0.000419249
0.000401625
0.000385666
0.000367433
0.000347978
0.00033154
0.000323497
0.000326845
0.000345691
0.000389127
0.00047657
0.000619577
0.000736742
0.00068255
0.000606028
0.00063391
0.000496442
0.000203787
0.000104685
4.54784e-05
1.30123e-05
7.6292e-05
0.00017692
0.000309968
0.000434128
0.000488807
0.000450919
0.000374106
0.000316061
0.000287609
0.000280483
0.000281417
0.00028023
0.000273633
0.000268358
0.000275233
0.000295429
0.000312909
0.000302908
0.000277466
0.00026884
0.000288886
0.000345825
0.000462665
0.000675568
0.000927226
0.000930841
0.000735166
0.000414934
0.000220808
0.000155867
8.48715e-05
2.95114e-05
5.18681e-05
3.38026e-05
1.82435e-05
0.000171866
0.00018299
0.000195861
0.000203667
0.000204708
0.000212418
0.000258131
0.000380283
0.000615881
0.000980585
0.00119715
0.00122265
0.00123562
0.00123646
0.00122636
0.00120667
0.00117807
0.0010625
0.000942526
0.000833764
0.00072443
0.000626157
0.000544231
0.000478476
0.000426774
0.000381579
0.000334848
0.000288072
0.000249872
0.000237015
0.00021881
0.000244533
0.000394169
3.54764e-05
1.96154e-05
0.000103254
0.000280167
0.000441029
0.000507041
0.000582752
0.000835322
0.00141351
0.00154962
0.0016089
0.00164178
0.00165081
0.00148295
0.00123812
0.00108531
0.00102172
0.00100981
0.00101915
0.00103448
0.00105023
0.00106233
0.00106463
0.00104918
0.00100981
0.00094708
0.000869969
0.000789355
0.000711274
0.00063472
0.00055412
0.000452396
0.000320533
0.00020203
0.000114467
2.38397e-05
1.69048e-05
7.62817e-05
0.000156894
0.000185066
0.000242367
0.000353557
0.000515335
0.000702096
0.000898066
0.0010968
0.00127297
0.00137594
0.0013889
0.00134512
0.00128643
0.00123549
0.00119554
0.00116216
0.00113126
0.00110101
0.00107216
0.00104522
0.00101963
0.000994921
0.000970721
0.000945279
0.000911282
0.00085844
0.00076979
0.000599511
0.000354014
0.00017722
9.51075e-05
6.28091e-05
2.31369e-05
2.15039e-05
0.000147724
0.000465409
0.000441669
0.00044761
0.000418854
0.0003714
0.000456757
0.000579297
0.000579073
0.000587007
0.000643127
0.000737724
0.000849984
0.00095668
0.00103929
0.00108955
0.00111051
0.0011117
0.00110187
0.00108752
0.00107321
0.00106147
0.00105331
0.00104852
0.00104511
0.00103928
0.0010247
0.000982003
0.000838097
0.000528231
0.00024349
0.000110331
7.55878e-05
3.12287e-05
2.66562e-05
0.000166078
0.000429567
0.000458785
0.00031726
0.000255031
0.000280356
0.000428826
0.000620091
0.000641203
0.000589222
0.000557257
0.000566065
0.000610231
0.000681387
0.00077418
0.000883867
0.0009846
0.00100854
0.00102911
0.00104629
0.00106016
0.00107083
0.00107838
0.00108292
0.0010846
0.00108366
0.00108025
0.00093959
0.000618398
0.000356617
0.000191305
0.000104397
7.80546e-05
3.13919e-05
2.14687e-05
0.000172243
8.06641e-05
6.4697e-05
9.27883e-05
0.000152673
0.000211698
0.000255257
0.000284878
0.000309128
0.000333898
0.000363124
0.00040049
0.000449043
0.00051138
0.000590517
0.000691068
0.000793852
0.000813474
0.000832185
0.000849825
0.000866262
0.000881401
0.000895159
0.000907508
0.000918418
0.000923263
0.000679865
0.000488809
0.000344402
0.000233827
0.000150313
0.000101092
8.30284e-05
2.88037e-05
2.13085e-05
8.89796e-05
7.63162e-05
7.63254e-05
0.0001185
0.000206136
0.000268367
0.000290372
0.000299983
0.000307598
0.000316081
0.000325476
0.00033498
0.000343833
0.000351639
0.000358442
0.000364663
0.00037035
0.000375566
0.00038058
0.000385367
0.000389776
0.000393213
0.000395089
0.000393591
0.000388109
0.000374749
0.000355694
0.000321351
0.000279027
0.000228843
0.000180527
0.000120198
8.64562e-05
2.66781e-05
2.36208e-05
7.94955e-05
0.000142276
0.000179055
0.000200676
0.000217697
0.000227808
0.000230938
0.000229916
0.000227081
0.000223647
0.000220136
0.000216877
0.000214056
0.000211871
0.000210747
0.000211136
0.000212928
0.000216093
0.000220109
0.000225106
0.000230175
0.000236155
0.000241076
0.000248395
0.000250984
0.000260626
0.000253822
0.000259305
0.000230135
0.000203183
0.000146096
9.49084e-05
9.51487e-05
1.57552e-05
1.36352e-05
7.26493e-05
9.52212e-05
9.68709e-05
9.54966e-05
9.42794e-05
9.34447e-05
9.28488e-05
9.27462e-05
9.38361e-05
9.71273e-05
0.000103498
0.000112158
0.000120823
0.000128279
0.000134654
0.000140294
0.000144873
0.000149667
0.000155718
0.000165934
0.000179132
0.000198413
0.000210519
0.000219818
0.000196969
0.0001802
0.000137888
0.000116721
8.40359e-05
7.03826e-05
3.78239e-05
5.93311e-05
4.07365e-05
8.84383e-06
7.26053e-06
3.46355e-05
3.9743e-05
4.08693e-05
4.17489e-05
4.32029e-05
4.55521e-05
4.89025e-05
5.36503e-05
5.94962e-05
6.27019e-05
6.41942e-05
7.32477e-05
9.59276e-05
0.000128686
0.000146747
0.000137593
0.000123231
0.000115215
0.000113282
0.000115572
0.000117604
0.000114495
0.000102677
9.0676e-05
7.72737e-05
7.21883e-05
6.07312e-05
5.9559e-05
4.07145e-05
5.88327e-05
4.94737e-05
1.73682e-05
1.42764e-05
2.29973e-05
1.10006e-05
4.32667e-05
7.79764e-05
9.42265e-05
0.000103153
0.000111164
0.000114898
9.51677e-05
6.52924e-05
5.6686e-05
7.48882e-05
0.000137445
0.000223818
0.000222015
0.000187605
0.000167955
0.000163695
0.000168848
0.000173305
0.000158318
0.000127215
0.000102723
8.8109e-05
7.88263e-05
7.23989e-05
6.66004e-05
6.14436e-05
5.35083e-05
4.82645e-05
3.60697e-05
1.16958e-05
3.41011e-06
1.69026e-05
5.75625e-05
2.56545e-05
1.10692e-05
6.31617e-05
0.000145052
0.000161382
0.000151845
0.000122443
9.02035e-05
6.94302e-05
6.11747e-05
6.58687e-05
8.5841e-05
0.000122909
0.000172889
0.000225002
0.000270778
0.00030131
0.00030142
0.000264835
0.00021735
0.000184606
0.000170029
0.000166597
0.00016479
0.000157363
0.000142583
0.000122578
0.000101294
8.12069e-05
5.62395e-05
1.69877e-05
6.47315e-06
1.13096e-05
4.89062e-05
0.000110995
1.90877e-05
1.01645e-05
5.93808e-05
0.000167656
0.000189953
0.000169422
0.000139553
0.000112433
8.5194e-05
6.30487e-05
5.29117e-05
5.63553e-05
7.43835e-05
0.000107199
0.000148283
0.000182959
0.000198278
0.000194493
0.000182577
0.000173181
0.000171508
0.000177933
0.000189602
0.000201928
0.000210424
0.000211411
0.000200854
0.000175356
0.000137326
8.6626e-05
3.28566e-05
1.15731e-05
1.17825e-05
4.30684e-05
4.75521e-05
1.13119e-05
9.94594e-06
5.60917e-05
0.000178039
0.000183339
0.000134955
0.000109386
0.000109366
0.000114633
0.000101212
7.54095e-05
5.9556e-05
5.92858e-05
7.47097e-05
0.000104714
0.000141226
0.000170552
0.000185336
0.000189193
0.000189845
0.000192612
0.000198451
0.000204618
0.000207088
0.000203328
0.000193284
0.000178216
0.000159156
0.000135952
0.000105816
6.37477e-05
2.55546e-05
1.45623e-05
3.13356e-05
4.94325e-05
8.15373e-06
1.04625e-05
5.77721e-05
0.00018456
0.000154186
9.43355e-05
7.85468e-05
9.07446e-05
0.000120394
0.000146429
0.000134574
9.61663e-05
7.06327e-05
6.59664e-05
7.95753e-05
0.000107854
0.000141608
0.000169895
0.000189277
0.000203102
0.000214969
0.000225291
0.000231646
0.000231294
0.000223399
0.000209054
0.000189969
0.000167341
0.000141064
0.000108875
6.85589e-05
3.22407e-05
1.88e-05
3.11183e-05
5.26789e-05
7.17439e-06
1.08967e-05
5.76383e-05
0.000170241
0.000106313
6.34736e-05
6.29709e-05
8.57312e-05
0.000124922
0.00016821
0.000188809
0.000162511
0.000111899
7.98316e-05
7.28396e-05
8.66686e-05
0.000117007
0.000154886
0.000189742
0.000216929
0.00023693
0.000250437
0.00025666
0.000254623
0.000244585
0.000227852
0.000205797
0.000179007
0.000146592
0.000106231
6.10673e-05
2.93531e-05
1.96007e-05
3.24621e-05
3.79348e-05
6.21197e-06
1.08507e-05
5.23742e-05
0.000142507
6.7642e-05
4.15597e-05
5.10874e-05
8.63796e-05
0.000142106
0.000198279
0.000233073
0.00023038
0.000184066
0.000124648
8.95608e-05
8.21883e-05
9.73147e-05
0.000129728
0.000170214
0.000208475
0.000238224
0.000257108
0.000264762
0.000262015
0.000250535
0.000232193
0.000208388
0.000179373
0.00014397
0.000100903
5.69077e-05
2.88383e-05
2.09512e-05
3.51803e-05
3.04193e-05
5.55116e-06
1.01908e-05
4.14136e-05
0.000116821
5.60659e-05
2.81736e-05
3.52147e-05
6.81752e-05
0.000128976
0.000198817
0.000249663
0.000267588
0.000246054
0.000189898
0.000131299
9.87771e-05
9.43477e-05
0.000114387
0.000153674
0.000200288
0.000239289
0.000262242
0.00026919
0.000263878
0.000249947
0.000229912
0.000205191
0.00017601
0.000141463
0.000100859
5.98876e-05
3.25547e-05
2.44468e-05
3.88061e-05
3.00888e-05
5.22119e-06
1.01062e-05
3.99725e-05
0.000107823
6.66425e-05
2.1389e-05
1.97787e-05
4.18345e-05
9.19789e-05
0.00016805
0.000244222
0.000291132
0.000294179
0.000253064
0.000188543
0.000135184
0.000110221
0.000113601
0.000143151
0.000191825
0.000241169
0.000271961
0.000280014
0.000272077
0.000254991
0.000232517
0.000206255
0.000176419
0.000142279
0.00010345
6.45664e-05
3.74926e-05
2.90419e-05
4.35246e-05
3.2538e-05
5.12398e-06
1.06312e-05
4.76885e-05
0.000123752
8.09436e-05
2.66945e-05
1.5895e-05
3.0974e-05
6.75334e-05
0.000121839
0.000182557
0.000233438
0.000258872
0.000249851
0.000212246
0.000167235
0.000136448
0.000129643
0.000149552
0.000194029
0.000247261
0.000283743
0.000293097
0.000283001
0.000263005
0.000238092
0.00020997
0.000178658
0.000143366
0.000104101
6.59473e-05
3.98861e-05
3.21161e-05
4.72824e-05
3.24813e-05
5.03526e-06
1.10168e-05
5.92252e-05
0.000134313
9.46939e-05
5.06376e-05
2.79421e-05
2.94095e-05
4.6476e-05
7.46118e-05
0.000111565
0.000150914
0.000180572
0.000190194
0.00018012
0.000161333
0.000147494
0.000148639
0.000170106
0.000210324
0.000255229
0.000284954
0.00029207
0.000282339
0.000263122
0.000238534
0.000210144
0.000178061
0.000141708
0.000101815
6.4535e-05
4.02366e-05
3.3863e-05
5.03226e-05
2.97518e-05
4.83532e-06
1.03077e-05
5.03974e-05
0.000127245
0.000139605
0.000116111
6.12122e-05
2.88192e-05
2.28759e-05
2.92598e-05
4.46435e-05
7.07021e-05
0.000105279
0.000134633
0.00014945
0.00015521
0.000161433
0.000175679
0.000201512
0.000235809
0.00026807
0.000287119
0.000289589
0.000279044
0.000260159
0.000235914
0.000207584
0.000175257
0.000138639
9.92971e-05
6.38866e-05
4.15011e-05
3.64591e-05
5.37731e-05
2.7242e-05
4.55907e-06
9.56834e-06
4.04786e-05
0.000113688
0.00015211
0.000148246
0.000119316
6.76206e-05
3.18422e-05
1.72019e-05
1.30194e-05
1.73893e-05
3.6758e-05
7.53353e-05
0.000120291
0.000156402
0.000185473
0.000213793
0.000244073
0.000273891
0.000296688
0.000306692
0.000303131
0.000288923
0.000267571
0.000241471
0.000211713
0.000178347
0.000141243
0.000102289
6.79061e-05
4.62697e-05
4.19201e-05
5.89956e-05
2.71411e-05
4.35079e-06
9.67943e-06
4.05857e-05
0.00012851
0.000181704
0.000171765
0.000157
0.000146332
0.000113752
6.1955e-05
2.23741e-05
3.06156e-06
4.58824e-06
2.31134e-05
7.08316e-05
0.000148468
0.000228665
0.000294251
0.000342773
0.000359375
0.000356882
0.0003532
0.000348618
0.000324146
0.000293332
0.000260706
0.000226484
0.000190318
0.000151764
0.000112243
7.74206e-05
5.52674e-05
5.09173e-05
6.69321e-05
2.97337e-05
4.31404e-06
1.09793e-05
5.17158e-05
0.000151009
0.000196198
0.000189748
0.000158851
0.000124954
0.000111352
0.000110007
7.09046e-05
1.39689e-05
1.53877e-06
8.27695e-06
4.13734e-05
0.000136154
0.000304359
0.000343812
0.000350045
0.000353207
0.000353927
0.00035274
0.000350075
0.000346261
0.000314524
0.000274304
0.000236521
0.000199783
0.000162147
0.000123842
8.93474e-05
6.66047e-05
6.19844e-05
7.70555e-05
3.43061e-05
4.4566e-06
1.13891e-05
6.6368e-05
0.000162119
0.00018356
0.000183075
0.000164444
0.000113356
6.07808e-05
3.40728e-05
2.05568e-05
9.95061e-06
4.47787e-06
2.62037e-05
8.88993e-05
0.000153074
0.000197574
0.000228186
0.000251509
0.00026852
0.000278999
0.000282395
0.0002784
0.000267387
0.0002504
0.000229172
0.000205292
0.000179313
0.000150993
0.000120829
9.24866e-05
7.33339e-05
7.07718e-05
8.67174e-05
3.75568e-05
4.61141e-06
1.08586e-05
6.85606e-05
0.000166292
0.000185532
0.000181881
0.000165098
0.000129852
7.99781e-05
4.16147e-05
2.27898e-05
1.67139e-05
1.93127e-05
3.19639e-05
5.46813e-05
8.26095e-05
0.000113867
0.000139283
0.000158678
0.000175142
0.000188705
0.000198142
0.000202468
0.000201161
0.000194348
0.000182738
0.00016728
0.000148706
0.000127535
0.000104939
8.43352e-05
7.17462e-05
7.39297e-05
9.20168e-05
3.62728e-05
4.57443e-06
1.04451e-05
6.43582e-05
0.000201549
0.000243597
0.000239444
0.000232599
0.000233015
0.000230101
0.000196538
0.000127922
6.8256e-05
3.43313e-05
1.89816e-05
1.59247e-05
2.18242e-05
4.12402e-05
7.80451e-05
0.000117433
0.00014293
0.0001603
0.000173971
0.000182662
0.000184721
0.000179829
0.000168572
0.000151957
0.000131442
0.000109194
8.83307e-05
7.26847e-05
6.62214e-05
7.32387e-05
9.02557e-05
3.11419e-05
4.36638e-06
1.13205e-05
6.83076e-05
0.00020169
0.000250875
0.000243487
0.000218269
0.000192831
0.000179796
0.000184213
0.000202553
0.000213226
0.000174364
9.48492e-05
4.39269e-05
2.05878e-05
1.14663e-05
1.49033e-05
3.77552e-05
8.62482e-05
0.000135876
0.000167443
0.000185506
0.000192992
0.000190076
0.000177563
0.000156996
0.000130801
0.000103028
7.91329e-05
6.38591e-05
6.00123e-05
6.96783e-05
8.35509e-05
2.5867e-05
4.20349e-06
1.17381e-05
7.74493e-05
0.000213014
0.000253025
0.000253446
0.000240675
0.000218057
0.000185631
0.000150187
0.000124545
0.000117647
0.00013556
0.0001778
0.000184872
0.000101777
4.03434e-05
1.57614e-05
1.17397e-05
2.80889e-05
7.4554e-05
0.000134696
0.000174479
0.000192554
0.000195233
0.000184809
0.00016338
0.000134272
0.00010288
7.62902e-05
6.00036e-05
5.64721e-05
6.69096e-05
7.80036e-05
2.26736e-05
4.18597e-06
1.19239e-05
8.2957e-05
0.000223037
0.000249374
0.000242265
0.000228304
0.000216305
0.000208907
0.000202772
0.000189395
0.000160774
0.000124844
0.000103141
0.00010641
0.000129729
0.000118811
5.49176e-05
2.13891e-05
1.51483e-05
3.31862e-05
8.25637e-05
0.000140857
0.000174776
0.000185409
0.000180246
0.000162692
0.000136017
0.000105646
7.8959e-05
6.21133e-05
5.82401e-05
6.86876e-05
7.7638e-05
2.20429e-05
4.22362e-06
1.17637e-05
8.63623e-05
0.000225139
0.000240782
0.000226958
0.000206422
0.000185738
0.000166329
0.000150088
0.000142293
0.000147224
0.000159813
0.000160414
0.000141047
0.000127133
0.000124659
0.000101288
5.1152e-05
2.41988e-05
2.26354e-05
4.93316e-05
0.000102822
0.000149174
0.000169385
0.000170394
0.000158564
0.00013737
0.000111308
8.69541e-05
7.08309e-05
6.73296e-05
7.81951e-05
8.49244e-05
2.40144e-05
4.27297e-06
1.16683e-05
9.45124e-05
0.000231052
0.000232263
0.000212285
0.000192247
0.000177701
0.000164931
0.000148828
0.000132156
0.000124956
0.000134229
0.000158233
0.000181514
0.000182871
0.000161559
0.000127179
8.19914e-05
4.34138e-05
2.76399e-05
3.60081e-05
7.2088e-05
0.00011791
0.000145858
0.000153969
0.000149075
0.000135247
0.000116018
9.6634e-05
8.34199e-05
8.18554e-05
9.38365e-05
9.78179e-05
2.75749e-05
4.28139e-06
1.11489e-05
8.76732e-05
0.000223418
0.000219068
0.000190127
0.000167162
0.000158002
0.000157792
0.000158255
0.000153784
0.000146386
0.000144312
0.000153497
0.000171951
0.00018878
0.000188895
0.00016339
0.000117853
7.13007e-05
4.24546e-05
3.59518e-05
5.37417e-05
9.11796e-05
0.000123586
0.00013801
0.000139009
0.0001316
0.000119067
0.000105578
9.68e-05
9.83947e-05
0.000111362
0.000111146
3.12789e-05
4.25666e-06
1.1247e-05
8.65576e-05
0.000224355
0.000215461
0.000178438
0.000152526
0.000145772
0.000151034
0.000157569
0.000156562
0.000146682
0.000136035
0.000134623
0.000146486
0.000167864
0.000186735
0.000187017
0.000159263
0.000112179
6.99643e-05
4.87831e-05
5.02814e-05
7.45728e-05
0.000108426
0.000129459
0.000134851
0.00013117
0.000122964
0.000114057
0.000109365
0.000113769
0.000126261
0.000120807
3.42807e-05
4.25625e-06
1.12271e-05
8.66519e-05
0.000226594
0.000210784
0.000165555
0.000139968
0.000139824
0.000155432
0.000172103
0.000175579
0.000160126
0.000134488
0.000116204
0.000115427
0.000132499
0.00016044
0.000183216
0.000181981
0.000150972
0.000106659
7.3798e-05
6.26324e-05
7.37837e-05
0.000102048
0.000128056
0.000138144
0.000136418
0.00012977
0.000123116
0.00012099
0.000126762
0.000136941
0.000125663
3.5846e-05
4.31238e-06
1.1305e-05
8.66887e-05
0.00022427
0.00019762
0.00014451
0.000118815
0.000121832
0.00014476
0.000174299
0.000191261
0.000181431
0.000147673
0.000112595
9.60891e-05
0.000101587
0.000123105
0.000145225
0.00014817
0.000129032
0.000103517
8.61565e-05
8.35e-05
9.70761e-05
0.000120045
0.000136923
0.000141247
0.000137799
0.000132217
0.000128325
0.000129102
0.000135782
0.000143061
0.000125412
3.55297e-05
4.32807e-06
1.12351e-05
8.84653e-05
0.000211274
0.000170929
0.000120259
0.000100859
0.000107087
0.000131877
0.000167089
0.000196076
0.000197874
0.000163657
0.000114607
8.14629e-05
7.25937e-05
8.39018e-05
0.000105317
0.000120889
0.000122529
0.000115472
0.000108956
0.00010949
0.000117955
0.000128878
0.000135183
0.000134993
0.000130995
0.000126737
0.000125207
0.000128641
0.000137214
0.000144792
0.000125325
3.5411e-05
4.32863e-06
1.08992e-05
7.64326e-05
0.000189224
0.000158523
0.00011475
9.46143e-05
9.44581e-05
0.000107582
0.000130709
0.000160926
0.000190065
0.00019872
0.000163955
0.00010347
6.41636e-05
5.39386e-05
6.68568e-05
9.42088e-05
0.000116124
0.000122709
0.000121705
0.000121692
0.000125044
0.000129306
0.000131063
0.000129352
0.000125793
0.000122964
0.000123415
0.00012908
0.000139413
0.00014708
0.00012555
3.50778e-05
4.29968e-06
1.03256e-05
5.96704e-05
0.00015884
0.000154748
0.000121229
9.2453e-05
8.08514e-05
8.38494e-05
9.7209e-05
0.000116973
0.00014013
0.000164806
0.000183496
0.00017119
0.000110686
5.89124e-05
4.36255e-05
5.40504e-05
8.23779e-05
0.000114915
0.000136935
0.000146191
0.000147774
0.000145489
0.000140723
0.00013445
0.000128361
0.000124691
0.000125641
0.00013238
0.000142814
0.000148396
0.000123755
3.39475e-05
4.34652e-06
1.02813e-05
5.69432e-05
0.000152156
0.000162075
0.000138232
0.000101987
7.62589e-05
6.84874e-05
7.60787e-05
9.60659e-05
0.000120898
0.000135529
0.000126915
9.79353e-05
6.66842e-05
4.72637e-05
4.4311e-05
6.04491e-05
9.50419e-05
0.000132308
0.00015409
0.000159412
0.000155575
0.000147726
0.000138369
0.000129276
0.000122369
0.000119645
0.000122644
0.000131365
0.000142294
0.000146402
0.000116975
3.08566e-05
4.32079e-06
1.04283e-05
6.18385e-05
0.00016789
0.000182966
0.000163529
0.000127224
8.86352e-05
6.52812e-05
5.99273e-05
7.07518e-05
9.69734e-05
0.000129022
0.000141549
0.000115659
7.22801e-05
4.51583e-05
4.02057e-05
5.66973e-05
9.27551e-05
0.000126512
0.000141506
0.000142373
0.000136844
0.000128732
0.000119912
0.00011219
0.000107575
0.000107834
0.000113899
0.000124874
0.000136375
0.000139082
0.000103901
2.66925e-05
4.04491e-06
1.05918e-05
6.67158e-05
0.00019232
0.000210876
0.000192696
0.0001618
0.000121397
8.19446e-05
5.87477e-05
5.35586e-05
6.46006e-05
9.28612e-05
0.000134397
0.000165841
0.000147163
8.43606e-05
4.43763e-05
3.63725e-05
5.33057e-05
9.07925e-05
0.000123248
0.000133926
0.000129891
0.000120058
0.000109195
0.000100204
9.53813e-05
9.64128e-05
0.000103865
0.000116024
0.000127401
0.000128343
9.08723e-05
2.36231e-05
3.80408e-06
1.07859e-05
6.94957e-05
0.000201953
0.000216513
0.000193071
0.000164098
0.000137329
0.000107541
7.68051e-05
5.83627e-05
5.6027e-05
6.86638e-05
9.46817e-05
0.00012654
0.000145795
0.000128784
7.99949e-05
4.50845e-05
3.81309e-05
5.59424e-05
9.31231e-05
0.00012068
0.00012585
0.000118531
0.000107621
9.78148e-05
9.20035e-05
9.21169e-05
9.8793e-05
0.000110087
0.000120077
0.000119206
8.17348e-05
2.2008e-05
3.68074e-06
1.09967e-05
7.16313e-05
0.000192766
0.000198342
0.000172883
0.000144435
0.00012344
0.000107601
9.00157e-05
7.23587e-05
6.45132e-05
7.15422e-05
9.44149e-05
0.000129185
0.00016061
0.000162843
0.000122679
7.03682e-05
4.11126e-05
3.70946e-05
5.59759e-05
9.0805e-05
0.000113063
0.000115219
0.000107702
9.8684e-05
9.25453e-05
9.17637e-05
9.7298e-05
0.000107551
0.000116935
0.000116049
8.00062e-05
2.20233e-05
3.70199e-06
1.0829e-05
7.02933e-05
0.000182427
0.000186282
0.000163715
0.000137193
0.000116707
0.000102943
9.12204e-05
7.84787e-05
6.93057e-05
7.07466e-05
8.65584e-05
0.000116612
0.000153065
0.000176588
0.000163281
0.000113028
6.31521e-05
3.86077e-05
3.73664e-05
5.78813e-05
9.007e-05
0.000107175
0.000108003
0.000102843
9.81503e-05
9.73069e-05
0.000101892
0.000111009
0.000119884
0.000119318
8.37323e-05
2.31664e-05
3.74427e-06
1.07452e-05
7.14459e-05
0.000190197
0.000199297
0.000178685
0.000151135
0.000127393
0.00011075
9.86893e-05
8.72016e-05
7.62771e-05
7.13902e-05
7.78641e-05
9.82039e-05
0.000130509
0.000163994
0.000177999
0.000154051
0.000101848
5.71867e-05
3.67678e-05
3.74828e-05
5.83232e-05
8.76457e-05
0.000102304
0.000104237
0.000102888
0.000103503
0.000108354
0.000117225
0.000126181
0.000126315
9.11441e-05
2.51294e-05
3.82267e-06
1.07885e-05
7.45303e-05
0.000202906
0.000213514
0.000191263
0.000163472
0.000141187
0.000126047
0.000115061
0.000104139
9.1233e-05
7.97273e-05
7.59577e-05
8.42234e-05
0.000106232
0.000139099
0.000170283
0.000178852
0.000149533
9.60106e-05
5.36664e-05
3.55615e-05
3.7725e-05
5.90336e-05
8.68827e-05
0.00010148
0.000106353
0.000109694
0.000115431
0.000124169
0.000132821
0.000133097
9.84208e-05
2.711e-05
3.89462e-06
1.07356e-05
7.18599e-05
0.000200462
0.000212687
0.000190054
0.000161631
0.000140778
0.000129963
0.000125349
0.000121064
0.000111876
9.74364e-05
8.44844e-05
8.06315e-05
8.98599e-05
0.000113539
0.000147715
0.000177514
0.000181239
0.000146762
9.15959e-05
5.07752e-05
3.44866e-05
3.82123e-05
6.08646e-05
8.83839e-05
0.000103356
0.000111061
0.000118587
0.000127848
0.000136454
0.000136922
0.00010332
2.86191e-05
3.97051e-06
1.07584e-05
7.04947e-05
0.000196933
0.000210342
0.000186902
0.000157394
0.000136929
0.00012867
0.000129482
0.000133882
0.000134611
0.00012517
0.000106925
9.05019e-05
8.51095e-05
9.44045e-05
0.000119256
0.000154494
0.000182856
0.000181865
0.000142782
8.68276e-05
4.79433e-05
3.35639e-05
3.89768e-05
6.34593e-05
9.15015e-05
0.000107459
0.000117672
0.000127635
0.000136294
0.000136894
0.000104569
2.93904e-05
4.03759e-06
1.08108e-05
7.07615e-05
0.000199033
0.000210232
0.000182121
0.000149649
0.000129508
0.000123167
0.000126864
0.000136499
0.000146982
0.000150741
0.000140439
0.000118459
9.86441e-05
9.17715e-05
0.000101247
0.000126964
0.000161766
0.000186137
0.000178498
0.000135073
8.03926e-05
4.48691e-05
3.28944e-05
4.04299e-05
6.73773e-05
9.63123e-05
0.000113268
0.000125181
0.000134719
0.000136204
0.000105562
3.00256e-05
4.15928e-06
1.07453e-05
6.74641e-05
0.000196621
0.000206447
0.000171758
0.000136731
0.00011933
0.000117176
0.000124285
0.000136488
0.000150727
0.00016275
0.000165593
0.000152857
0.000128366
0.000107012
9.984e-05
0.000109922
0.00013597
0.000168397
0.000186431
0.000171733
0.000125563
7.37013e-05
4.20656e-05
3.25753e-05
4.24567e-05
7.2816e-05
0.000103766
0.000121125
0.000132086
0.000135449
0.000107111
3.03388e-05
4.26288e-06
1.06801e-05
6.16542e-05
0.000184357
0.000190886
0.000148327
0.000113114
0.000101391
0.000106564
0.000121112
0.00013959
0.000158468
0.000175077
0.000185491
0.000183662
0.000165639
0.000138103
0.000116156
0.000109583
0.000120544
0.000146252
0.000174734
0.000185342
0.00016422
0.000116683
6.81249e-05
4.00521e-05
3.25638e-05
4.38925e-05
7.59626e-05
0.000108213
0.00012524
0.000130805
0.000104402
3.00068e-05
4.36151e-06
1.0631e-05
5.52718e-05
0.000167007
0.000168978
0.000120802
8.8616e-05
8.23781e-05
9.32526e-05
0.000114811
0.000141693
0.000168787
0.000192098
0.000208373
0.000213546
0.000203159
0.000177554
0.000147099
0.00012572
0.000120377
0.000131449
0.000154131
0.000175347
0.000178018
0.000153674
0.000108787
6.50101e-05
4.00428e-05
3.39814e-05
4.59932e-05
7.88806e-05
0.000111899
0.000122699
9.99692e-05
3.03347e-05
4.62208e-06
1.0668e-05
5.17035e-05
0.000157774
0.000152295
9.85927e-05
7.10971e-05
6.98252e-05
8.51011e-05
0.000111941
0.000145553
0.000180107
0.000210332
0.000232257
0.000242265
0.00023677
0.000214898
0.000182853
0.000152813
0.000134599
0.000131357
0.000141163
0.00015739
0.000168927
0.000165235
0.000141971
0.000103413
6.54224e-05
4.34454e-05
3.91579e-05
5.25931e-05
8.44023e-05
0.000112146
0.000104405
3.24617e-05
5.28399e-06
1.08783e-05
5.23219e-05
0.000160573
0.000138987
8.09644e-05
5.95634e-05
6.33267e-05
8.35761e-05
0.0001165
0.00015672
0.000197124
0.000231835
0.000257031
0.00026956
0.00026632
0.00024632
0.000214321
0.000180735
0.000155478
0.000143066
0.000142814
0.000150423
0.000159096
0.000161685
0.000152953
0.000130076
9.55444e-05
6.28072e-05
4.51468e-05
4.3752e-05
5.95072e-05
9.31699e-05
0.000110243
3.41364e-05
6.11576e-06
1.1226e-05
5.74646e-05
0.000171316
0.000122243
6.71484e-05
5.33694e-05
6.29488e-05
8.96207e-05
0.000129471
0.00017503
0.000218158
0.000253737
0.000279073
0.000291721
0.000288819
0.00026917
0.00023691
0.00020173
0.000173275
0.000156198
0.000149907
0.00015034
0.000151807
0.000148969