/*--------------------------------*- C++ -*----------------------------------*\
| =========                 |                                                 |
| \\      /  F ield         | OpenFOAM: The Open Source CFD Toolbox           |
|  \\    /   O peration     | Version:  v1906                                 |
|   \\  /    A nd           | Web:      www.OpenFOAM.com                      |
|    \\/     M anipulation  |                                                 |
\*---------------------------------------------------------------------------*/
FoamFile
{
    version     2.0;
    format      ascii;
    class       volScalarField;
    location    "19";
    object      omega;
}
// * * * * * * * * * * * * * * * * * * * * * * * * * * * * * * * * * * * * * //

dimensions      [0 0 -1 0 0 0 0];


internalField   nonuniform List<scalar> 
78750
(
285.955
10.194
12.5987
21.1202
25.2324
24.3117
27.6923
29.7266
27.1154
22.8332
24.1191
31.254
39.5588
47.3309
54.0568
59.6052
64.0026
67.1847
68.9881
69.3275
68.3274
66.3726
64.0488
61.8792
60.2357
59.3893
59.3102
59.7388
60.4291
61.0702
61.3238
60.8207
59.1073
55.4886
431.319
477.32
41.2176
22.6103
27.9963
36.5468
37.4242
42.964
45.2413
46.8961
47.7427
47.6585
46.9986
46.2747
45.8595
45.7539
45.8127
45.9234
46.0184
46.0699
46.0581
45.9956
45.8988
45.7861
45.6887
45.643
45.6683
45.7578
45.8874
46.0216
46.1251
46.1063
45.68
44.194
40.9065
630.347
455.747
32.4021
28.1154
17.7807
16.1404
21.2404
29.8397
38.4356
46.4704
53.581
58.3402
60.3544
60.6524
60.1304
59.3378
58.5203
57.7661
57.0847
56.428
55.7448
55.0654
54.4354
53.8582
53.3107
52.7606
52.1714
51.503
50.7133
49.759
48.5932
47.1552
45.3603
43.0861
39.9277
636.115
484.617
36.2321
37.719
39.0967
41.2707
43.9208
47.8308
53.1149
56.7935
57.0749
56.3712
56.1102
56.0287
55.873
55.6055
55.2587
54.8633
54.4361
53.9834
53.5127
53.0392
52.5851
52.1559
51.7278
51.2794
50.8367
50.4227
50.002
49.5234
48.8638
47.856
46.4322
44.4879
41.8669
650.779
497.146
37.2916
39.7935
41.7499
43.5544
45.8591
49.3193
52.922
55.435
56.8532
57.5561
57.8048
57.7688
57.5844
57.3367
57.0703
56.8089
56.5593
56.324
56.1097
55.9224
55.7527
55.5797
55.3907
55.1697
54.9046
54.578
54.0846
53.2271
51.8524
50.237
49.3259
49.8587
46.446
650.861
477.855
36.7262
40.2271
42.7652
45.1542
47.5703
49.9065
51.9035
53.5361
54.8568
55.8529
56.5355
56.9414
57.1112
57.0762
56.8711
56.5075
55.8669
54.8673
53.6168
52.3027
51.0509
49.9533
49.117
48.487
47.9184
47.2958
46.5924
45.7795
44.9004
43.999
43.1296
42.1521
39.8681
638.642
506.675
43.0628
47.3457
50.5174
52.8695
54.4765
55.588
56.4715
57.2328
57.8761
58.3972
58.7924
59.049
59.1507
59.0798
58.816
58.337
57.6298
56.7126
55.6488
54.5017
53.2809
51.9674
50.5523
49.1199
47.8852
46.7754
45.6895
44.5637
43.3952
42.137
40.7191
38.9849
36.532
629.875
508.924
47.1179
51.0691
53.3762
54.7458
55.5158
55.9425
56.2215
56.4161
56.5633
56.6373
56.6401
56.583
56.4757
56.3255
56.1316
55.8762
55.523
55.0365
54.4021
53.6364
52.7784
51.8677
50.8911
49.8548
48.8269
47.6288
46.206
45.0899
44.2463
43.3906
42.3072
40.7617
38.3559
633.817
532.118
45.1904
48.111
50.2108
51.7771
53.0313
54.0959
54.9482
55.501
55.7284
55.7142
55.56
55.3127
55.0077
54.6584
54.2668
53.8261
53.3134
52.6904
51.9112
50.9273
49.71
48.2716
46.6259
44.8033
42.869
40.8435
39.3667
39.965
40.5951
40.4841
39.8979
38.7659
36.7709
632.687
500.214
37.492
40.098
42.2798
44.0834
45.521
46.6814
47.6308
48.379
48.9081
49.2122
49.3001
49.306
49.2608
49.229
49.3438
49.5441
49.6481
49.6116
49.4158
49.0531
48.5346
47.8895
47.1584
46.4045
45.6872
44.9932
44.3115
43.6613
42.9007
41.9866
40.9482
39.6429
37.8532
643.722
468.579
33.1426
37.095
40.0217
41.9617
43.2868
44.365
45.3153
46.1294
46.8049
47.3472
47.7956
48.1878
48.5389
48.8746
49.2115
49.5444
49.8654
50.174
50.466
50.7247
50.9315
51.0684
51.1214
51.075
50.8896
50.4812
49.8252
49.0389
48.1221
46.9977
45.6107
43.6759
40.614
642.266
501.09
38.8017
40.7961
41.9507
42.8747
43.743
44.5484
45.2435
45.8478
46.4325
47.0345
47.6644
48.3347
49.0513
49.8226
50.6234
51.3745
52.0272
52.5602
52.9522
53.1931
53.2434
53.0745
52.7082
52.1944
51.5828
50.9387
50.3427
49.8898
49.6084
49.3508
48.8661
47.8464
45.3744
652.931
483.549
40.2331
43.819
45.1193
45.6477
45.767
45.5744
45.159
44.684
44.239
43.8119
43.3437
42.8107
42.2422
41.7575
41.384
41.032
40.6366
40.176
39.6667
39.1387
38.6753
38.3072
38.0957
38.0475
38.2942
38.8416
39.6804
40.8302
42.4008
44.1596
45.8349
43.3532
41.2496
645.413
439.326
32.6283
37.8582
40.2314
41.3176
41.6579
41.4037
40.5516
39.289
38.0071
36.8787
35.8489
34.8249
33.7155
32.554
31.5375
30.9462
31.0517
32.0288
33.7001
35.5759
37.2217
38.4127
39.1262
39.4514
39.5381
39.4337
39.0272
38.3506
36.0792
33.888
29.1005
26.3313
33.8639
658.98
450.935
29.3753
31.8694
33.2999
34.2868
35.1837
36.5346
39.1857
42.4153
44.7312
46.1023
46.9667
47.5057
47.7457
47.736
47.5263
47.1429
46.5538
45.7216
44.685
43.4849
42.1627
40.7735
39.3871
38.085
36.9586
36.0903
35.5846
35.6008
36.211
37.7691
39.9032
42.772
45.281
706.595
455.586
26.7852
32.5322
36.68
40.9821
45.5284
49.5748
52.0899
53.3468
54.0261
54.3575
54.4183
54.2454
53.8232
53.1188
52.1766
51.0946
49.9626
48.8431
47.7807
46.8072
45.9447
45.2074
44.6061
44.1492
43.8439
43.6925
43.6908
43.8211
44.0435
44.2851
44.289
43.5061
40.7285
643.128
466.446
24.9917
30.3644
34.4511
37.9716
41.4636
44.9787
48.0277
50.5259
52.4655
53.8195
54.661
55.1123
55.2677
55.1888
54.9284
54.5407
54.078
53.5832
53.0875
52.6128
52.1695
51.7604
51.3815
51.023
50.668
50.2902
49.8537
49.2995
48.5067
47.1726
44.6676
40.4307
34.977
616.993
471.568
33.7261
35.7258
36.6976
37.1747
37.1992
37.0247
37.5896
39.11
41.094
43.3997
45.6494
47.5292
48.9519
49.9667
50.6619
51.1202
51.4068
51.5681
51.6302
51.6115
51.5231
51.3707
51.155
50.8717
50.512
50.062
49.5027
48.8068
47.8959
46.5391
44.2428
40.7311
37.9213
630.451
484.723
36.8771
37.0072
36.0523
34.5196
32.8176
31.4818
31.0077
31.2345
31.8378
32.7826
34.0381
35.4832
36.9627
38.3514
39.5717
40.5864
41.3965
42.0534
42.5904
43.0095
43.314
43.5068
43.59
43.5647
43.4331
43.2003
42.8692
42.4176
41.762
40.821
39.6582
38.6862
38.3035
633.029
487.33
27.6982
25.681
24.5352
25.6394
27.1552
28.2518
29.1532
29.9551
30.6574
31.2838
31.8756
32.4692
33.0809
33.706
34.327
34.9208
35.464
35.9565
36.4134
36.8343
37.2141
37.5493
37.8369
38.0763
38.2667
38.4187
38.5392
38.6207
38.6396
38.5844
38.4711
38.4655
37.8353
631.089
506.111
30.4607
28.145
27.3994
28.965
31.359
33.4196
34.999
36.1483
36.9269
37.4179
37.7105
37.8809
37.9854
38.0611
38.1306
38.2052
38.2916
38.3911
38.507
38.6327
38.7704
38.9052
39.0454
39.1653
39.2901
39.3747
39.4686
39.4648
39.4488
39.2743
39.0159
38.3983
38.1343
629.324
503.637
36.5512
36.5651
36.2269
36.2263
36.5048
36.8738
37.221
37.4993
37.6942
37.8074
37.8494
37.8368
37.7869
37.7164
37.6307
37.5388
37.4302
37.3196
37.1777
37.0443
36.8547
36.7059
36.4507
36.3165
35.9549
35.9056
35.3661
35.4819
34.7633
34.7591
34.4587
32.7725
34.0985
607.79
459.184
27.7275
28.9529
29.0521
28.7983
28.439
28.0495
27.6538
27.2658
26.9012
26.5758
26.2834
26.0043
25.7225
25.455
25.2157
25.0426
24.9231
24.8997
24.8973
24.9931
25.0007
25.1508
24.9936
25.2281
24.656
25.1434
23.9827
24.7344
23.4449
24.34
23.0737
27.0377
23.964
608.113
431.623
17.684
18.6882
18.8847
18.8207
18.6534
18.461
18.2207
17.8793
17.482
17.1364
16.9405
16.9225
17.0305
17.1941
17.3658
17.5197
17.6289
17.685
17.6712
17.59
17.3765
17.0809
16.6075
16.274
15.7366
15.8602
15.2956
16.2862
15.0707
17.6299
15.6505
14.7413
21.7447
695.915
439.299
19.0389
19.7744
19.9694
19.9792
19.855
19.5696
19.002
18.153
17.4851
17.276
17.3168
17.3841
17.4103
17.374
17.2536
17.0383
16.7221
16.276
15.6469
14.8575
14.049
13.3597
12.8306
12.4747
12.2157
12.0884
11.8612
11.8326
11.2475
10.9071
10.825
23.5034
33.5826
734.212
445.688
19.499
19.8335
19.9451
19.9704
19.8617
19.4985
18.8387
18.1094
17.68
17.612
17.692
17.751
17.7303
17.619
17.4111
17.0913
16.633
16.026
15.3182
14.6061
13.97
13.4392
13.0036
12.6398
12.32
12.0207
11.7092
11.3742
11.0079
11.9605
18.2305
28.1204
34.2343
671.683
444.749
19.6021
20.1991
20.5045
20.7379
20.8805
20.7929
20.3089
19.3978
18.3947
17.7825
17.6309
17.6858
17.7374
17.7058
17.5665
17.3052
16.9166
16.4214
15.8718
15.3263
14.8219
14.3683
13.9583
13.5809
13.2267
12.8892
12.5627
12.2409
11.9374
12.1204
15.11
21.5181
24.9522
612.817
445.412
19.4909
20.03
20.3575
20.7361
21.1906
21.4964
21.4485
20.9534
19.9733
18.785
17.934
17.6222
17.6118
17.648
17.6194
17.4908
17.254
16.92
16.5197
16.0925
15.6663
15.2527
14.8522
14.4608
14.0756
13.6965
13.326
12.9644
12.6002
12.2551
12.592
15.3821
17.5472
594.9
449.414
19.7177
19.8926
20.0618
20.4722
21.1907
21.8024
22.052
21.9435
21.4757
20.5485
19.2801
18.2335
17.7421
17.6154
17.5881
17.5288
17.3938
17.1773
16.8939
16.567
16.216
15.851
15.4754
15.089
14.6918
14.2853
13.8716
13.4475
12.9882
12.4496
12.1033
13.2017
14.739
590.352
453.143
19.5851
19.3154
19.2837
19.83
20.9889
21.9044
22.3316
22.3962
22.205
21.7448
20.88
19.6255
18.4966
17.8893
17.666
17.5738
17.48
17.3393
17.1428
16.8965
16.6098
16.2896
15.9395
15.5615
15.1568
14.7267
14.2711
13.779
13.2105
12.522
12.0064
12.5808
13.7556
588.16
454.853
18.9942
18.2682
17.9324
18.6083
20.4907
21.8824
22.5293
22.7398
22.6982
22.4604
21.9867
21.1451
19.9261
18.7894
18.118
17.8147
17.6553
17.5182
17.3574
17.1587
16.919
16.638
16.3159
15.9532
15.5508
15.1083
14.6243
14.085
13.4496
12.6924
12.0954
12.3674
13.217
586.598
452.717
18.3157
17.2702
16.358
16.2352
18.6401
20.9352
22.1379
22.6766
22.8664
22.831
22.5983
22.1222
21.2897
20.1176
19.0202
18.3383
17.9848
17.7747
17.6023
17.4215
17.2125
16.9655
16.6753
16.339
15.955
15.5214
15.0357
14.4854
13.837
13.072
12.4125
12.4251
12.986
585.776
452.602
18.9967
17.7651
16.1546
14.0271
15.4776
18.9714
21.0749
22.1163
22.6086
22.8037
22.7896
22.5715
22.0892
21.2529
20.1501
19.1743
18.5522
18.1896
17.9445
17.7364
17.5249
17.289
17.017
16.7019
16.3388
15.9228
15.4489
14.9044
14.2597
13.5008
12.8125
12.6647
13.0251
585.522
455.35
19.8981
18.7112
17.0866
14.4811
13.5198
17.0325
19.6176
21.0882
21.8941
22.3221
22.5022
22.4788
22.2376
21.721
20.9098
19.9868
19.2361
18.734
18.3966
18.1336
17.8908
17.6387
17.3605
17.0464
16.6884
16.278
15.8053
15.2521
14.5847
13.7919
13.0656
12.8343
13.074
585.308
457.276
19.9071
18.9926
17.9475
16.4293
14.8849
15.8908
17.8052
19.4836
20.6799
21.4388
21.8579
22.0065
21.9128
21.5704
20.9989
20.3161
19.6962
19.2206
18.8621
18.565
18.2883
18.0068
17.7054
17.374
17.0033
16.5823
16.0962
15.5196
14.8085
13.9548
13.1701
12.8751
13.0164
584.819
452.095
19.5529
19.3348
18.9745
18.319
16.9634
14.9043
14.4791
15.6744
17.4855
19.1679
20.3538
20.9895
21.211
21.1273
20.8294
20.426
20.0126
19.6398
19.3106
19.0067
18.7085
18.4014
18.0743
17.7184
17.3248
16.8808
16.3688
15.7591
15.0043
14.0946
13.2464
12.8681
12.8853
584.121
447.463
20.3622
20.7845
20.7678
20.4705
19.733
18.0557
15.3104
12.8588
12.1151
13.6839
16.7475
18.9065
19.9893
20.4272
20.5094
20.3983
20.1925
19.9458
19.6818
19.4057
19.1151
18.8043
18.4678
18.0994
17.6915
17.232
16.7027
16.0737
15.3012
14.3715
13.4778
12.9949
12.8427
583.574
447.864
20.8672
21.5451
21.728
21.7264
21.5917
21.2505
20.2004
17.8083
13.8212
7.35237
9.04706
14.4468
17.5832
19.0684
19.7428
20.025
20.0931
20.0325
19.8913
19.6943
19.4543
19.1756
18.8587
18.5026
18.1025
17.6482
17.123
16.4994
15.7369
14.8226
13.9083
13.3256
13.0084
583.462
456.404
21.6609
21.9607
22.0195
21.8865
21.5351
20.9839
20.3905
19.7016
18.124
12.6158
6.24971
10.4074
15.3623
17.747
18.7733
19.3012
19.6086
19.7588
19.7852
19.7162
19.5742
19.3763
19.127
18.8224
18.4633
18.0469
17.56
16.9785
16.2632
15.3928
14.4839
13.8244
13.3794
583.819
460.191
22.0107
22.2723
22.3378
22.1246
21.5074
20.2995
18.318
15.9844
13.8562
11.1646
7.79753
13.6957
16.5368
17.7558
18.4546
18.9083
19.2146
19.4076
19.504
19.5171
19.4573
19.3329
19.1484
18.9061
18.6069
18.2479
17.8183
17.2964
16.6454
15.8396
14.9696
14.2892
13.7717
584.227
454.579
21.7501
22.5161
22.9201
23.0591
22.8214
22.0141
20.334
17.6299
14.6119
12.7737
13.0718
14.7047
15.9736
17.0719
17.8324
18.3443
18.6973
18.9345
19.0772
19.1392
19.1293
19.0541
18.9194
18.7277
18.4798
18.1736
17.7997
17.3371
16.7502
16.0132
15.203
14.5383
13.9706
584.16
448.933
21.2324
22.1975
22.7888
23.3154
23.8149
24.2351
24.4547
24.2409
23.2176
21.0933
17.9185
14.3806
12.7814
13.2523
14.8125
16.2642
17.2455
17.86
18.2437
18.4676
18.5718
18.5814
18.5105
18.3665
18.151
17.8645
17.505
17.0623
16.5175
15.8551
15.1323
14.5061
13.8939
583.647
453
21.6233
22.2796
22.6363
22.8926
23.1072
23.3221
23.5722
23.8604
24.1141
24.1369
23.5766
21.8252
18.4668
14.3202
11.1145
11.2926
13.5684
15.4514
16.6189
17.3237
17.7405
17.9542
18.0143
17.9502
17.7774
17.5021
17.1241
16.6423
16.0661
15.4229
14.7698
14.1952
13.5872
583.243
455.904
21.7827
22.3103
22.6589
22.9223
23.0905
23.14
23.058
22.8605
22.6235
22.4674
22.4366
22.3966
21.9873
20.5276
17.1824
12.614
10.596
12.4886
14.5755
15.9085
16.7233
17.2157
17.4751
17.5484
17.4619
17.2268
16.8417
16.3055
15.6472
14.9494
14.3166
13.8013
13.2738
583.212
457.844
21.9746
22.4137
22.7615
23.0862
23.3783
23.6145
23.7684
23.8106
23.7046
23.4086
22.8879
22.1884
21.5028
20.8999
20.0096
17.9097
13.9381
11.5229
12.8989
14.6342
15.7841
16.509
16.9552
17.1811
17.2139
17.0644
16.7288
16.1989
15.5
14.7424
14.0919
13.6137
13.1702
583.315
457.811
21.6571
22.058
22.3972
22.7042
22.9493
23.1094
23.1853
23.2028
23.1928
23.1527
23.0171
22.6792
22.0508
21.194
20.2816
19.1978
17.3255
14.1653
12.6894
13.8796
15.1298
15.9748
16.5344
16.8771
17.0245
16.9814
16.7415
16.2932
15.6526
14.9225
14.2839
13.8206
13.3923
583.435
457.592
21.6446
22.0544
22.4157
22.7596
23.0334
23.1875
23.2056
23.1128
22.9646
22.8214
22.6912
22.5073
22.196
21.7002
20.9869
20.0446
18.7424
16.732
14.2967
13.9027
14.8289
15.6586
16.2518
16.6546
16.8827
16.9336
16.7975
16.4626
15.9387
15.3068
14.721
14.262
13.7814
583.442
453.701
21.0089
21.5092
21.9007
22.2823
22.62
22.8605
22.9806
23.0024
22.9671
22.912
22.8507
22.7551
22.572
22.2612
21.7916
21.1158
20.1398
18.677
16.592
14.91
14.9126
15.5322
16.0961
16.519
16.7962
16.9165
16.8659
16.6328
16.2245
15.7022
15.182
14.726
14.17
583.365
453.363
21.1331
21.5585
21.8638
22.167
22.4467
22.6378
22.701
22.6569
22.5566
22.4578
22.4166
22.4513
22.4976
22.4507
22.2487
21.8643
21.2489
20.2818
18.7774
16.8781
15.723
15.6892
16.045
16.4138
16.7014
16.8695
16.8903
16.7454
16.4366
16.0088
15.5482
15.0982
14.4812
583.353
452.922
20.8534
21.2231
21.5021
21.8127
22.1432
22.4007
22.4981
22.424
22.2121
21.9112
21.6064
21.4503
21.548
21.7667
21.8918
21.8304
21.5555
21.0128
20.0814
18.6876
17.2658
16.5536
16.4689
16.6179
16.8024
16.9391
16.9757
16.8761
16.6291
16.2647
15.8452
15.3981
14.7353
583.494
454.296
20.8101
21.0306
21.2283
21.4947
21.8299
22.1355
22.2968
22.2688
22.0581
21.6733
21.1284
20.5411
20.2448
20.427
20.7695
20.9538
20.8805
20.508
19.7937
18.7999
17.8368
17.2537
17.0421
17.0213
17.0692
17.1147
17.1036
16.9935
16.765
16.4335
16.0384
15.5871
14.8795
583.543
454.262
20.3856
20.4885
20.6389
20.8927
21.2333
21.5554
21.7679
21.8288
21.7274
21.4529
20.9627
20.2115
19.3699
19.0011
19.2678
19.6337
19.7718
19.6478
19.2965
18.7957
18.2886
17.9082
17.6788
17.5524
17.4773
17.4108
17.3135
17.1501
16.9006
16.5708
16.1836
15.7314
15.0018
583.559
452.707
19.8033
19.8507
19.9568
20.1588
20.4468
20.7427
20.9844
21.1445
21.2068
21.1593
20.982
20.6059
19.8711
18.7532
18.0255
18.2413
18.7258
19.0091
19.0475
18.8984
18.6511
18.3948
18.1799
18.0119
17.8739
17.7405
17.5822
17.3707
17.0897
16.7436
16.3476
15.8823
15.1167
583.491
450.255
19.3145
19.4006
19.4495
19.5046
19.6055
19.7686
19.949
20.0802
20.1258
20.087
19.9805
19.8206
19.5847
19.1307
18.1132
17.135
17.2908
17.8608
18.2761
18.4808
18.5294
18.4796
18.3784
18.2565
18.1263
17.9835
17.8107
17.5848
17.2915
16.9338
16.5219
16.0291
15.2098
583.618
450.419
19.7627
19.944
19.9663
19.8848
19.7241
19.5677
19.511
19.5273
19.4855
19.2943
18.9376
18.42
17.7464
16.9823
16.3701
16.2501
16.8368
17.4708
17.8987
18.1564
18.2935
18.3422
18.3276
18.2701
18.1826
18.0661
17.9081
17.6892
17.3971
17.0343
16.6066
16.0768
15.1832
583.57
450.802
20.1774
20.5145
20.6343
20.6064
20.4049
20.0269
19.6016
19.3506
19.2971
19.2408
19.0308
18.6225
17.9726
17.035
16.0457
15.7733
16.474
17.1891
17.6295
17.8941
18.0459
18.1144
18.1208
18.0847
18.0202
17.9295
17.7982
17.6022
17.325
16.9657
16.5255
15.951
14.9492
582.87
451.502
20.4771
20.8717
21.0761
21.172
21.1161
20.8284
20.2449
19.5112
19.004
18.8501
18.8164
18.7049
18.4538
18.0068
17.2067
15.9995
15.4002
16.0766
16.8343
17.3086
17.589
17.7398
17.7925
17.7723
17.7048
17.6079
17.4801
17.301
17.0486
16.714
16.2904
15.7114
14.6653
582.252
452.711
20.584
20.8848
21.0742
21.2267
21.3169
21.2755
20.991
20.35
19.4821
18.8003
18.4419
18.2272
18.0057
17.7149
17.3011
16.645
15.6906
15.2355
15.8703
16.5807
17.0363
17.3083
17.4444
17.4678
17.403
17.2786
17.1144
16.9114
16.6572
16.3392
15.9419
15.3913
14.3815
581.939
454.373
20.5659
20.7347
20.87
20.9958
21.0917
21.1195
21.0275
20.7414
20.2019
19.5595
19.0725
18.7442
18.4624
18.1611
17.7968
17.2961
16.535
15.5366
15.1386
15.7674
16.4293
16.852
17.0974
17.2007
17.1794
17.0574
16.8651
16.6275
16.3544
16.0423
15.6747
15.1798
14.2722
582.001
453.651
20.3698
20.6163
20.7961
20.9316
20.9942
20.9559
20.8031
20.5322
20.1324
19.636
19.1965
18.8971
18.665
18.4274
18.1477
17.7854
17.2615
16.4546
15.465
15.1573
15.7795
16.3788
16.7572
16.9657
17.0273
16.9573
16.7825
16.5374
16.251
15.936
15.5846
15.1317
14.3047
582.11
452.561
20.4814
20.8869
21.1545
21.3519
21.452
21.4216
21.2451
20.9334
20.5033
19.9766
19.4381
19.0222
18.7461
18.532
18.3157
18.0562
17.7083
17.1895
16.3902
15.4638
15.2368
15.8214
16.3593
16.6951
16.867
16.8918
16.7871
16.5845
16.3196
16.0176
15.6817
15.2573
14.4769
582.311
452.201
20.5118
20.9492
21.2534
21.5122
21.7024
21.7777
21.6982
21.4608
21.0869
20.5982
20.0285
19.4733
19.0434
18.7438
18.5087
18.2768
18.0064
17.6489
17.1196
16.3199
15.4428
15.2965
15.8661
16.3609
16.6625
16.8021
16.7956
16.6662
16.4479
16.1721
15.8515
15.4413
14.6737
582.493
452.02
20.4706
20.908
21.2223
21.5135
21.7722
21.9554
22.0078
21.8945
21.6201
21.2059
20.6746
20.0703
19.4979
19.0587
18.7519
18.5094
18.2709
17.994
17.6275
17.0845
16.2717
15.4245
15.3591
15.9244
16.3747
16.6355
16.7396
16.7048
16.5565
16.3249
16.0282
15.6302
14.8623
582.69
452.192
20.4865
20.9321
21.2602
21.573
21.8702
22.1185
22.2662
22.2734
22.1273
21.8336
21.3996
20.8324
20.1758
19.5523
19.0786
18.7544
18.5036
18.2621
17.9833
17.6125
17.058
16.2302
15.4182
15.4325
15.9953
16.3971
16.6047
16.66
16.5863
16.4093
16.1475
15.7691
15.0054
582.869
452.744
20.5183
20.9349
21.2595
21.586
21.9161
22.2119
22.4162
22.4931
22.4371
22.2571
21.9591
21.5358
20.9721
20.2983
19.642
19.1373
18.7884
18.523
18.2741
17.9898
17.6088
17.0331
16.1845
15.4216
15.524
16.0778
16.4268
16.5731
16.5706
16.4503
16.2325
15.8903
15.1609
583.193
452.781
20.4381
20.8151
21.1249
21.4665
21.8563
22.2452
22.5416
22.6933
22.7013
22.5876
22.3719
22.0604
21.641
21.0903
20.4254
19.7673
19.2479
18.8808
18.6019
18.3434
18.0478
17.6467
17.0356
16.1556
15.4354
15.5973
16.1319
16.4392
16.5321
16.4714
16.2904
15.9748
15.2727
583.471
453.055
20.3076
20.577
20.8262
21.1484
21.5962
22.1189
22.5675
22.8473
22.9519
22.9123
22.7604
22.5166
22.1864
21.757
21.2072
20.5552
19.912
19.3953
19.0232
18.7382
18.4711
18.1613
17.7351
17.0839
16.1748
15.4705
15.6102
16.0857
16.3612
16.4243
16.3236
16.058
15.3892
583.747
453.715
20.2013
20.3307
20.4882
20.746
21.2064
21.8389
22.436
22.8543
23.075
23.1325
23.064
22.8959
22.642
22.3033
21.8665
21.3176
20.6872
20.0754
19.5818
19.2217
18.938
18.6671
18.3507
17.9156
17.2595
16.3636
15.6702
15.6963
16.0306
16.2407
16.2725
16.1205
15.5687
584.455
454.757
20.2927
20.3106
20.3806
20.5522
20.9796
21.6624
22.3399
22.8339
23.1234
23.2474
23.2455
23.1447
22.9599
22.6962
22.3484
21.9037
21.3613
20.7643
20.2089
19.7688
19.4387
19.1698
18.9097
18.6077
18.1993
17.5909
16.771
16.1227
15.9971
16.117
16.1966
16.1476
15.798
586.195
456.642
20.6146
20.524
20.5056
20.5831
20.9578
21.6515
22.3513
22.8597
23.1644
23.3112
23.3404
23.2769
23.1347
22.9192
22.6276
22.2502
21.7808
21.2383
20.6896
20.2152
19.8478
19.5661
19.3288
19.0939
18.8171
18.4303
17.8349
17.0513
16.4643
16.2807
16.2795
16.2606
16.0838
588.329
459.221
21.0071
20.7922
20.6959
20.7159
21.0828
21.7745
22.442
22.9113
23.1913
23.3294
23.3608
23.3064
23.1775
22.978
22.7044
22.3474
21.9001
21.3753
20.8288
20.3393
19.9538
19.667
19.4448
19.2464
19.0259
18.7167
18.2202
17.5122
16.8911
16.6241
16.5607
16.5156
16.3559
588.849
461.381
21.1688
20.8044
20.6348
20.6617
21.1274
21.8582
22.4862
22.9069
23.1565
23.2802
23.3061
23.2496
23.1189
22.9153
22.6333
22.2618
21.7919
21.2364
20.6503
20.1191
19.7046
19.417
19.2275
19.0851
18.9153
18.6322
18.1754
17.6093
17.1605
16.9338
16.8038
16.6407
16.2191
586.733
461.989
20.9511
20.4423
20.1934
20.2365
20.8355
21.6609
22.3129
22.7388
22.996
23.13
23.1657
23.1162
22.9878
22.78
22.485
22.0886
21.5787
20.9664
20.3084
19.7002
19.2323
18.9512
18.8371
18.7915
18.6918
18.4626
18.1032
17.7032
17.3819
17.1502
16.9266
16.5848
15.7626
584.069
460.804
20.5176
19.9507
19.6311
19.5683
20.1105
21.025
21.8051
22.3315
22.6612
22.8496
22.9277
22.9111
22.807
22.6148
22.3257
21.9241
21.3947
20.7449
20.0249
19.333
18.7832
18.4798
18.4382
18.4954
18.4735
18.3202
18.0679
17.7839
17.5177
17.2587
16.9529
16.4631
15.3537
582.454
458.749
20.2884
19.8174
19.4651
19.1377
19.1841
19.9116
20.8553
21.5977
22.0909
22.3955
22.5606
22.6128
22.5647
22.4188
22.1682
21.7972
21.2905
20.6508
19.9189
19.1733
18.5161
18.0907
18.0114
18.1443
18.2202
18.1516
17.9845
17.7738
17.5409
17.2719
16.9233
16.356
15.1184
581.828
456.993
20.5779
20.3728
20.0926
19.6041
18.9545
18.7986
19.5041
20.4719
21.2357
21.7388
22.0458
22.2075
22.2499
22.1834
22.0051
21.7028
21.263
20.6864
20.0046
19.2701
18.5503
17.9623
17.6887
17.7717
17.9381
17.9566
17.8371
17.6456
17.4153
17.1419
16.791
16.2374
15.0622
582.007
456.25
21.2132
21.3417
21.2473
20.8804
20.0756
18.9136
18.4309
19.0969
20.098
20.8803
21.3907
21.6993
21.859
21.8947
21.812
21.6039
21.2592
20.7784
20.1852
19.5133
18.8008
18.1137
17.5988
17.4468
17.6094
17.7611
17.7518
17.6176
17.4069
17.137
16.792
16.2676
15.1758
582.436
456.676
21.802
22.1529
22.2495
22.1129
21.6118
20.4608
18.8165
18.1816
18.9064
19.9055
20.6525
21.1338
21.4235
21.569
21.59
21.4881
21.2555
20.8912
20.4066
19.826
19.1792
18.4973
17.8501
17.4024
17.324
17.4737
17.5682
17.5326
17.3924
17.1686
16.8566
16.3737
15.3646
583.09
458.043
22.1667
22.5414
22.715
22.7238
22.4825
21.807
20.3256
18.5247
18.1909
19.0418
19.9507
20.5904
20.9959
21.2357
21.3472
21.3422
21.2177
20.9698
20.5992
20.1229
19.5653
18.9491
18.3024
17.7073
17.35
17.3206
17.3976
17.3959
17.2957
17.1117
16.8432
16.425
15.5425
583.839
459.714
22.3607
22.6402
22.7834
22.8049
22.6364
22.1736
21.2281
19.5611
18.2919
18.5775
19.4454
20.1669
20.6469
20.948
21.1201
21.1849
21.1443
20.9899
20.7161
20.3308
19.8539
19.3054
18.7019
18.0794
17.5672
17.3511
17.3687
17.3801
17.3007
17.1377
16.8937
16.5103
15.6856
584.244
460.744
22.3974
22.5871
22.6823
22.6645
22.4641
22.0012
21.2165
20.0496
18.7691
18.5586
19.2218
19.9216
20.4211
20.7488
20.954
21.0624
21.0791
20.9946
20.7986
20.4913
20.0841
19.5923
19.0274
18.4044
17.8083
17.4432
17.3938
17.4392
17.4097
17.2833
17.0633
16.6924
15.8607
584.45
460.389
22.2203
22.3831
22.4646
22.4294
22.2
21.6999
20.9115
19.9412
19.0174
18.715
19.1837
19.7997
20.2759
20.606
20.8278
20.9645
21.0212
20.9881
20.8512
20.6049
20.2545
19.8108
19.2812
18.669
18.0255
17.5352
17.3793
17.4039
17.3966
17.2966
17.0951
16.7276
15.8668
584.258
458.801
21.8897
22.0899
22.1967
22.1834
21.9704
21.4828
20.7039
19.7703
19.0044
18.7571
19.1147
19.6601
20.119
20.4575
20.7008
20.8687
20.9663
20.9841
20.9063
20.7229
20.4332
20.0434
19.5586
18.9757
18.3184
17.7288
17.4403
17.3895
17.3492
17.2404
17.0434
16.6885
15.8465
584.168
456.817
21.5624
21.8392
21.9975
22.0366
21.8805
21.454
20.7208
19.7674
18.9159
18.5822
18.844
19.3542
19.8271
20.1984
20.4834
20.7005
20.8558
20.9385
20.9299
20.8162
20.5933
20.2655
19.8364
19.2993
18.6555
17.9953
17.5744
17.4679
17.4069
17.2816
17.0742
16.714
15.8626
584.055
455.202
21.3247
21.6772
21.8937
22.0042
21.9384
21.6182
20.9836
20.0351
18.9765
18.302
18.3287
18.7914
19.3106
19.7499
20.1061
20.398
20.6342
20.8027
20.8808
20.8492
20.7
20.4368
20.0631
19.5706
18.9456
18.2263
17.6398
17.4518
17.4311
17.3428
17.1547
16.7967
15.9081
583.888
454.126
21.1045
21.4887
21.744
21.9242
21.9655
21.7844
21.3076
20.485
19.3506
18.2454
17.7629
18.0031
18.5341
19.0579
19.5118
19.9098
20.2641
20.5599
20.7624
20.8407
20.7831
20.5953
20.283
19.8396
19.243
18.4879
17.7178
17.2973
17.2406
17.2022
17.0632
16.742
15.8619
583.659
453.325
20.8175
21.1813
21.4455
21.6789
21.8303
21.8093
21.5312
20.9329
19.9576
18.6683
17.549
17.2192
17.5677
18.1258
18.6789
19.2022
19.7075
20.1767
20.5537
20.7848
20.8511
20.7633
20.5341
20.1636
19.6306
18.9054
18.0401
17.3264
17.0335
16.9393
16.8171
16.5407
15.7172
583.327
452.546
20.4344
20.7409
20.9848
21.2428
21.4884
21.6337
21.5716
21.2304
20.5532
19.4653
18.0496
16.9091
16.6421
17.0181
17.5972
18.221
18.8792
19.5531
20.1558
20.5913
20.8217
20.862
20.7385
20.4622
20.0193
19.3744
18.521
17.6248
17.0158
16.7296
16.5433
16.2658
15.4699
582.692
451.837
20.044
20.2857
20.4901
20.7323
21.0204
21.2981
21.4453
21.3546
20.9723
20.242
19.0695
17.5445
16.347
16.0569
16.4081
17.01
17.7386
18.5765
19.4331
20.1375
20.5905
20.7989
20.8075
20.644
20.3074
19.7701
19.0075
18.1008
17.3143
16.8256
16.5106
16.1514
15.2825
582.031
451.507
19.842
20.0585
20.2269
20.4113
20.6421
20.9265
21.1966
21.3212
21.2006
20.7937
20.0412
18.8188
17.1964
15.8933
15.5069
15.7999
16.4223
17.2718
18.2975
19.304
20.0559
20.4899
20.663
20.6299
20.4089
19.9874
19.3466
18.5335
17.7359
17.1358
16.6922
16.2035
15.1848
581.572
452.033
20.103
20.402
20.5863
20.7159
20.8084
20.9067
21.0599
21.2244
21.2643
21.081
20.64
19.8776
18.6401
16.9546
15.5401
15.0274
15.2448
15.8875
16.8684
18.0725
19.169
19.9069
20.2961
20.4211
20.33
20.032
19.5244
18.8466
18.1281
17.5046
16.9722
16.3641
15.1988
581.482
453.626
20.8476
21.32
21.5922
21.7379
21.7423
21.612
21.443
21.3645
21.3503
21.252
20.9747
20.4831
19.7005
18.4522
16.7333
15.2376
14.6259
14.7839
15.4667
16.6075
17.9712
19.0779
19.744
20.0582
20.1087
19.9335
19.5501
19.0005
18.3783
17.7774
17.2066
16.5282
15.2743
581.553
455.971
21.7246
22.3201
22.6902
22.9209
22.9697
22.785
22.3871
21.9512
21.6544
21.4521
21.201
20.8222
20.2726
19.4554
18.1857
16.4543
14.9396
14.292
14.4373
15.2084
16.5366
17.9945
19.0232
19.5761
19.8023
19.7796
19.5456
19.144
18.6402
18.094
17.5158
16.7893
15.4544
581.715
457.941
22.2473
22.8345
23.2552
23.5964
23.7988
23.7676
23.4356
22.8614
22.2742
21.8388
21.4946
21.1263
20.6697
20.0675
19.2057
17.8996
16.1669
14.6773
14.0397
14.219
15.1228
16.6136
18.0734
18.9551
19.3521
19.4593
19.3579
19.0923
18.7093
18.2471
17.7117
17.0012
15.6643
582.006
458.632
22.2432
22.7437
23.1656
23.6062
24.0081
24.2315
24.1566
23.7433
23.0888
22.4351
21.919
21.4859
21.0485
20.5462
19.9088
19.0094
17.6766
15.9635
14.5093
13.8799
14.1006
15.1134
16.6816
18.0906
18.8549
19.1274
19.1244
18.937
18.6142
18.1908
17.6733
16.9575
15.5814
581.742
458.612
21.9985
22.4031
22.7933
23.29
23.8648
24.3316
24.5202
24.3744
23.8958
23.2002
22.5198
21.9635
21.4867
21.0195
20.4992
19.8469
18.9385
17.6287
15.9958
14.592
13.9362
14.1281
15.1209
16.6188
17.9415
18.6619
18.899
18.8572
18.6351
18.2804
17.8079
17.1269
15.7897
582.066
459.777
22.0576
22.3726
22.725
23.2273
23.8567
24.4205
24.7305
24.7405
24.4562
23.8942
23.1832
22.5184
21.9658
21.4851
21.0149
20.4936
19.843
18.9529
17.7224
16.2449
14.9532
14.2685
14.3208
15.0996
16.3596
17.5362
18.2201
18.4566
18.4151
18.1913
17.823
17.2569
16.11
583.146
462.63
22.5179
22.7695
23.1733
23.7474
24.3404
24.7976
25.0208
25.0043
24.7679
24.3154
23.6882
23.0187
22.4234
21.917
21.4575
20.994
20.4698
19.814
18.9427
17.8084
16.5262
15.4236
14.7723
14.6495
15.0784
15.953
16.88
17.5043
17.7904
17.8258
17.6709
17.3134
16.4647
584.906
464.531
22.7598
23.0012
23.6606
24.4674
25.0269
25.2983
25.3471
25.2211
24.9375
24.5015
23.9418
23.3338
22.7598
22.2491
21.781
21.3186
20.8191
20.232
19.4949
18.5496
17.4102
16.272
15.4276
14.9884
14.9267
15.3043
16.0868
16.9004
17.4304
17.6621
17.6668
17.4469
16.6959
585.08
462.12
22.1101
22.474
23.5894
24.667
25.2304
25.4475
25.4609
25.318
25.0339
24.624
24.1229
23.5814
23.0449
22.5322
22.035
21.5314
20.9912
20.373
19.6167
18.6502
17.4461
16.1748
15.3156
15.1695
15.3984
15.7752
16.3822
17.0354
17.4667
17.6482
17.6168
17.3045
16.2113
582.478
456.348
20.6886
21.1763
22.473
23.726
24.5141
24.9704
25.1913
25.2174
25.0754
24.7935
24.4048
23.9447
23.4456
22.9301
22.4048
21.8627
21.2815
20.6216
19.8193
18.7869
17.4612
15.9828
15.0202
15.3316
16.2646
16.7973
17.052
17.2824
17.4247
17.4271
17.263
16.7893
15.3895
580.195
450.899
19.3038
19.5498
20.2133
21.3239
22.4935
23.4921
24.2219
24.6603
24.8422
24.8186
24.6344
24.3274
23.9305
23.4702
22.9639
22.4169
21.8193
21.1457
20.3508
19.3628
18.087
16.49
14.9449
14.5446
15.7407
17.1263
17.7315
17.8512
17.7914
17.6203
17.3179
16.7268
15.2477
579.738
448.042
18.9982
19.0085
18.914
19.0346
19.6397
20.7072
22.0314
23.1898
23.945
24.3435
24.4844
24.4359
24.2428
23.937
23.5422
23.0735
22.5371
21.9292
21.2353
20.4257
19.4453
18.2079
16.6831
15.2092
14.7266
15.6259
16.8668
17.5858
17.8124
17.7711
17.5375
17.0335
15.7826
581.082
448.803
20.0049
20.4058
20.4582
20.1866
19.6088
19.0938
19.5079
20.9805
22.4149
23.3392
23.8378
24.0633
24.1071
24.0129
23.7998
23.4853
23.0857
22.6117
22.0603
21.4222
20.6849
19.8164
18.7646
17.5036
16.2178
15.4543
15.6362
16.3783
16.9938
17.2804
17.3233
17.1243
16.3293
583.507
454.171
21.1053
21.6546
22.1304
22.4412
22.1884
21.0636
19.6584
20.0317
21.4764
22.6291
23.2596
23.5899
23.7605
23.8052
23.7305
23.5476
23.2692
22.9089
22.4798
21.9955
21.4517
20.8152
20.0525
19.1428
18.0851
16.9763
16.1146
15.8652
16.1953
16.663
16.972
17.0362
16.5681
585.133
461.846
21.511
21.3225
21.7727
22.5742
22.9171
22.4767
21.343
21.1842
22.1086
22.8049
23.1717
23.3981
23.5419
23.5959
23.5567
23.4267
23.2113
22.9184
22.5583
22.1425
21.6853
21.1738
20.5713