/*--------------------------------*- C++ -*----------------------------------*\
| =========                 |                                                 |
| \\      /  F ield         | OpenFOAM: The Open Source CFD Toolbox           |
|  \\    /   O peration     | Version:  v1906                                 |
|   \\  /    A nd           | Web:      www.OpenFOAM.com                      |
|    \\/     M anipulation  |                                                 |
\*---------------------------------------------------------------------------*/
FoamFile
{
    version     2.0;
    format      ascii;
    class       volScalarField;
    location    "0.84/oil";
    object      nut;
}
// * * * * * * * * * * * * * * * * * * * * * * * * * * * * * * * * * * * * * //

dimensions      [0 2 -1 0 0 0 0];


internalField   nonuniform List<scalar> 
168664
(
1.25776e-06
1.82357e-07
1.58456e-07
4.41514e-08
3.89293e-08
1.85979e-08
1.33243e-08
1.0009e-08
7.45057e-09
8.23247e-09
8.20772e-09
9.88191e-09
9.48038e-09
9.95835e-09
9.20776e-09
9.30477e-09
8.56864e-09
7.99343e-09
7.24859e-09
6.61072e-09
6.12405e-09
6.2346e-09
6.0496e-09
5.63274e-09
4.86582e-09
3.90693e-09
3.00767e-09
2.2233e-09
1.61806e-09
6.1228e-10
1.82272e-07
1.89977e-07
4.90489e-08
3.72157e-08
1.69906e-08
1.23599e-08
8.89955e-09
7.42712e-09
6.81659e-09
7.221e-09
7.88849e-09
8.63102e-09
8.52663e-09
8.88201e-09
8.49703e-09
8.58082e-09
7.96516e-09
7.55622e-09
6.91754e-09
6.53888e-09
6.21122e-09
6.25562e-09
6.02019e-09
5.63233e-09
5.16701e-09
4.52058e-09
3.92373e-09
3.14788e-09
3.17944e-09
2.00199e-09
1.56166e-07
4.97007e-08
4.57162e-08
2.85498e-08
2.14504e-08
1.4644e-08
1.19283e-08
9.18159e-09
8.72331e-09
8.10896e-09
8.56734e-09
8.45741e-09
8.20987e-09
8.51935e-09
8.19203e-09
8.2078e-09
7.66488e-09
7.35018e-09
6.75818e-09
6.50172e-09
6.34207e-09
6.45131e-09
6.32249e-09
6.04636e-09
5.64929e-09
5.15485e-09
4.71226e-09
4.36327e-09
5.01568e-09
4.1646e-09
4.85308e-08
3.93763e-08
3.04715e-08
2.28835e-08
1.67891e-08
1.24813e-08
1.11047e-08
9.0496e-09
9.09391e-09
8.36673e-09
8.70445e-09
8.2351e-09
8.29827e-09
8.57783e-09
8.31202e-09
8.17814e-09
7.72495e-09
7.42304e-09
6.95484e-09
6.74122e-09
6.56581e-09
6.67346e-09
6.7375e-09
6.596e-09
6.18334e-09
5.6942e-09
5.35865e-09
5.56699e-09
6.41505e-09
6.01993e-09
4.16543e-08
2.12415e-08
2.3575e-08
1.74692e-08
1.67354e-08
1.33824e-08
1.25266e-08
1.06937e-08
1.04115e-08
9.55822e-09
9.48913e-09
8.83903e-09
8.77199e-09
8.90874e-09
8.52857e-09
8.23117e-09
7.76786e-09
7.50689e-09
7.22017e-09
7.29654e-09
7.09208e-09
7.20112e-09
7.2344e-09
7.2187e-09
6.87384e-09
6.53427e-09
6.35469e-09
6.83294e-09
7.80057e-09
7.85829e-09
2.84341e-08
2.01185e-08
2.06199e-08
1.61054e-08
1.57408e-08
1.23888e-08
1.22451e-08
1.02789e-08
1.04181e-08
9.53815e-09
9.68177e-09
8.8955e-09
8.77275e-09
8.95887e-09
8.72411e-09
8.20442e-09
7.80328e-09
7.44243e-09
7.44051e-09
7.68563e-09
7.53503e-09
7.5225e-09
7.4956e-09
7.52284e-09
7.28659e-09
7.22962e-09
7.25269e-09
7.92932e-09
8.91706e-09
9.4086e-09
2.31088e-08
1.73731e-08
1.75121e-08
1.47144e-08
1.47111e-08
1.25473e-08
1.23361e-08
1.08584e-08
1.07018e-08
9.99943e-09
9.97403e-09
9.31798e-09
9.2269e-09
9.6699e-09
9.32629e-09
8.56419e-09
7.95344e-09
7.5277e-09
7.47082e-09
7.74282e-09
7.58246e-09
7.66639e-09
7.68843e-09
7.87287e-09
7.85832e-09
8.11038e-09
8.38914e-09
9.19743e-09
1.02011e-08
1.11032e-08
2.33178e-08
1.82058e-08
1.80913e-08
1.52614e-08
1.51178e-08
1.2669e-08
1.25165e-08
1.06517e-08
1.05497e-08
9.57668e-09
9.79117e-09
9.31892e-09
9.75619e-09
1.0376e-08
1.01759e-08
9.144e-09
8.58298e-09
7.95214e-09
7.79915e-09
7.72284e-09
7.5298e-09
7.6178e-09
7.7484e-09
8.11298e-09
8.40745e-09
8.97737e-09
9.4784e-09
1.03441e-08
1.12902e-08
1.25315e-08
2.06558e-08
1.70001e-08
1.66054e-08
1.48107e-08
1.43755e-08
1.25862e-08
1.21396e-08
1.06095e-08
1.02447e-08
9.39837e-09
9.66123e-09
9.77516e-09
1.03919e-08
1.10095e-08
1.06753e-08
9.64402e-09
8.86977e-09
8.19019e-09
7.87257e-09
7.69422e-09
7.44962e-09
7.74338e-09
8.01746e-09
8.65811e-09
9.21003e-09
9.98841e-09
1.06763e-08
1.15416e-08
1.23531e-08
1.38665e-08
2.20824e-08
1.81091e-08
1.77979e-08
1.59337e-08
1.53532e-08
1.32593e-08
1.26374e-08
1.08103e-08
1.03147e-08
9.25243e-09
9.67846e-09
9.84054e-09
1.03988e-08
1.04904e-08
1.03476e-08
9.58268e-09
8.82348e-09
8.17736e-09
7.98772e-09
7.75627e-09
7.58657e-09
7.97534e-09
8.38975e-09
9.13557e-09
9.73244e-09
1.06588e-08
1.15111e-08
1.23329e-08
1.30597e-08
1.48037e-08
2.09567e-08
1.75023e-08
1.69772e-08
1.56227e-08
1.49105e-08
1.33778e-08
1.26935e-08
1.10983e-08
1.04688e-08
9.58286e-09
9.88371e-09
9.92289e-09
9.69076e-09
9.11733e-09
8.67717e-09
8.23234e-09
7.7246e-09
7.57132e-09
7.64737e-09
7.8426e-09
7.92499e-09
8.59083e-09
9.13889e-09
1.00302e-08
1.0638e-08
1.16623e-08
1.25473e-08
1.32336e-08
1.38658e-08
1.57782e-08
2.24547e-08
1.85997e-08
1.80196e-08
1.66413e-08
1.61204e-08
1.47532e-08
1.41952e-08
1.23916e-08
1.1422e-08
9.95449e-09
9.58852e-09
8.87873e-09
8.03141e-09
7.0014e-09
6.54296e-09
6.13265e-09
6.03092e-09
6.51774e-09
7.06649e-09
7.7434e-09
8.29161e-09
9.2494e-09
9.97007e-09
1.10647e-08
1.17377e-08
1.27227e-08
1.3421e-08
1.39332e-08
1.44809e-08
1.6554e-08
2.14466e-08
1.81697e-08
1.77349e-08
1.68884e-08
1.64232e-08
1.53752e-08
1.48303e-08
1.31664e-08
1.19955e-08
9.92574e-09
8.72792e-09
7.33719e-09
6.10167e-09
5.27228e-09
4.62999e-09
4.28553e-09
4.4128e-09
5.17552e-09
5.94488e-09
7.13546e-09
8.27708e-09
9.94027e-09
1.09088e-08
1.20489e-08
1.27069e-08
1.36336e-08
1.41879e-08
1.46909e-08
1.53012e-08
1.76956e-08
2.16445e-08
1.82536e-08
1.79506e-08
1.72549e-08
1.68473e-08
1.57538e-08
1.52581e-08
1.38428e-08
1.28474e-08
1.0193e-08
8.16677e-09
5.93915e-09
4.60156e-09
3.6322e-09
3.38726e-09
3.12912e-09
3.56002e-09
4.61511e-09
5.30468e-09
6.86667e-09
8.35254e-09
1.0519e-08
1.16918e-08
1.28428e-08
1.33477e-08
1.42259e-08
1.4767e-08
1.53491e-08
1.60283e-08
1.87792e-08
2.08023e-08
1.76436e-08
1.72884e-08
1.67061e-08
1.6321e-08
1.54248e-08
1.49225e-08
1.37712e-08
1.2974e-08
1.06486e-08
8.73959e-09
6.86891e-09
5.74001e-09
4.38833e-09
3.5103e-09
3.57036e-09
4.3982e-09
5.44688e-09
6.01649e-09
7.45161e-09
8.78499e-09
1.10004e-08
1.23475e-08
1.35963e-08
1.41103e-08
1.49467e-08
1.5496e-08
1.61006e-08
1.67467e-08
1.9749e-08
2.10412e-08
1.77313e-08
1.73172e-08
1.6715e-08
1.63725e-08
1.54955e-08
1.49887e-08
1.371e-08
1.27328e-08
1.06212e-08
9.02262e-09
7.35578e-09
6.33934e-09
4.74395e-09
3.26994e-09
3.68343e-09
4.72424e-09
5.96706e-09
6.39468e-09
7.7831e-09
9.00949e-09
1.12511e-08
1.24586e-08
1.37144e-08
1.41812e-08
1.50558e-08
1.55827e-08
1.62205e-08
1.67446e-08
1.96709e-08
1.96862e-08
1.67726e-08
1.63165e-08
1.58066e-08
1.54551e-08
1.46732e-08
1.42085e-08
1.31411e-08
1.20616e-08
9.91205e-09
7.93545e-09
6.21404e-09
5.3189e-09
4.12232e-09
3.2668e-09
3.62136e-09
4.49445e-09
6.04329e-09
6.68702e-09
8.1123e-09
9.46585e-09
1.15744e-08
1.26383e-08
1.37139e-08
1.42106e-08
1.51207e-08
1.57102e-08
1.62857e-08
1.67194e-08
1.95402e-08
1.91071e-08
1.63752e-08
1.58952e-08
1.53469e-08
1.49409e-08
1.40452e-08
1.3489e-08
1.23415e-08
1.14458e-08
9.63899e-09
8.19781e-09
6.87227e-09
5.89773e-09
5.1409e-09
4.72827e-09
4.73866e-09
4.83248e-09
6.45451e-09
7.61597e-09
9.1348e-09
9.82345e-09
1.14674e-08
1.22411e-08
1.34222e-08
1.40075e-08
1.49489e-08
1.55685e-08
1.62881e-08
1.68472e-08
1.96834e-08
1.79514e-08
1.56089e-08
1.50621e-08
1.44613e-08
1.3927e-08
1.30356e-08
1.23918e-08
1.13071e-08
1.05431e-08
9.52575e-09
8.91722e-09
8.09791e-09
7.1819e-09
6.52061e-09
6.41307e-09
6.27412e-09
6.15731e-09
7.21194e-09
8.34438e-09
9.42345e-09
9.6812e-09
1.05298e-08
1.11203e-08
1.22906e-08
1.29141e-08
1.37117e-08
1.43618e-08
1.53643e-08
1.62655e-08
1.91638e-08
1.71609e-08
1.48658e-08
1.42162e-08
1.34244e-08
1.27508e-08
1.18084e-08
1.12573e-08
1.03583e-08
9.82651e-09
9.13006e-09
9.0348e-09
8.68257e-09
8.21014e-09
7.99294e-09
8.12104e-09
8.03554e-09
7.93905e-09
8.43305e-09
8.70202e-09
9.07398e-09
8.94772e-09
9.55809e-09
9.98012e-09
1.10077e-08
1.15678e-08
1.24016e-08
1.30899e-08
1.41581e-08
1.50949e-08
1.77571e-08
1.57382e-08
1.372e-08
1.31475e-08
1.23125e-08
1.15862e-08
1.08095e-08
1.03108e-08
9.57716e-09
9.10499e-09
8.66846e-09
8.73394e-09
8.62994e-09
8.61685e-09
8.94259e-09
9.57426e-09
9.83895e-09
9.74284e-09
9.45943e-09
9.11962e-09
8.91251e-09
8.52219e-09
8.88901e-09
9.25538e-09
1.01704e-08
1.06939e-08
1.15302e-08
1.21928e-08
1.31445e-08
1.39629e-08
1.60687e-08
1.47214e-08
1.30341e-08
1.2528e-08
1.16574e-08
1.09413e-08
1.0256e-08
9.8364e-09
9.2279e-09
8.86012e-09
8.52082e-09
8.38731e-09
8.03663e-09
8.21755e-09
8.89733e-09
9.73161e-09
1.035e-08
1.02305e-08
9.29664e-09
8.60726e-09
8.48367e-09
8.23717e-09
8.59994e-09
8.83508e-09
9.54165e-09
9.88588e-09
1.05975e-08
1.11301e-08
1.20426e-08
1.28786e-08
1.46014e-08
1.32405e-08
1.19175e-08
1.12534e-08
1.04278e-08
9.91736e-09
9.4061e-09
9.12593e-09
8.75551e-09
8.57402e-09
8.42814e-09
8.18384e-09
7.60571e-09
7.63257e-09
8.35129e-09
9.20658e-09
9.82572e-09
9.66413e-09
8.71416e-09
8.21481e-09
8.36743e-09
8.27801e-09
8.46859e-09
8.48853e-09
8.89569e-09
9.02813e-09
9.54956e-09
9.9811e-09
1.08623e-08
1.17153e-08
1.30544e-08
1.18574e-08
1.07876e-08
9.95085e-09
9.26554e-09
8.96212e-09
8.67294e-09
8.60833e-09
8.47077e-09
8.42553e-09
8.27968e-09
7.90225e-09
7.29479e-09
7.0949e-09
7.52716e-09
8.20895e-09
8.70428e-09
8.62083e-09
8.10103e-09
7.87701e-09
8.18773e-09
8.18467e-09
8.35664e-09
8.25333e-09
8.44258e-09
8.37649e-09
8.62876e-09
8.85251e-09
9.68456e-09
1.05651e-08
1.1578e-08
9.92637e-09
9.28901e-09
8.46263e-09
7.99669e-09
7.85881e-09
7.75883e-09
7.89273e-09
7.99009e-09
8.13196e-09
7.99633e-09
7.51442e-09
7.02119e-09
7.01631e-09
7.22384e-09
7.62314e-09
7.85519e-09
8.04453e-09
7.9012e-09
7.70952e-09
7.82148e-09
7.89247e-09
8.09314e-09
7.96391e-09
8.03448e-09
7.8175e-09
7.79768e-09
7.73551e-09
8.47653e-09
9.37481e-09
1.00128e-08
8.2631e-09
7.97023e-09
7.10779e-09
6.81298e-09
6.95023e-09
7.12292e-09
7.3433e-09
7.57321e-09
7.81334e-09
7.78318e-09
7.3103e-09
6.87192e-09
7.01164e-09
7.15969e-09
7.25415e-09
7.24403e-09
7.59059e-09
7.68881e-09
7.38713e-09
7.33308e-09
7.33169e-09
7.57737e-09
7.50317e-09
7.53533e-09
7.25525e-09
6.94158e-09
6.69016e-09
7.27411e-09
8.20909e-09
8.45658e-09
6.39306e-09
6.51745e-09
5.59058e-09
5.49948e-09
5.90658e-09
6.2455e-09
6.5763e-09
6.93744e-09
7.24984e-09
7.41516e-09
7.10387e-09
6.87731e-09
7.12167e-09
7.18764e-09
7.0816e-09
6.87446e-09
7.22931e-09
7.3325e-09
7.17201e-09
7.02299e-09
6.87234e-09
6.90358e-09
6.77253e-09
6.72352e-09
6.45989e-09
6.09728e-09
5.71763e-09
6.01782e-09
6.85994e-09
6.67615e-09
4.5233e-09
5.16347e-09
4.32971e-09
4.70999e-09
5.13717e-09
5.61165e-09
6.06826e-09
6.51858e-09
6.922e-09
7.13449e-09
6.97265e-09
6.89697e-09
7.14248e-09
7.11688e-09
7.00923e-09
6.73691e-09
6.85283e-09
6.98416e-09
6.9603e-09
6.90115e-09
6.56151e-09
6.45869e-09
6.23051e-09
6.15053e-09
5.94511e-09
5.58772e-09
5.11155e-09
4.71754e-09
5.39802e-09
4.71754e-09
2.43649e-09
3.50547e-09
3.3861e-09
4.07888e-09
4.54968e-09
5.21297e-09
5.75906e-09
6.3526e-09
6.90267e-09
7.25563e-09
7.33864e-09
7.32903e-09
7.49726e-09
7.50321e-09
7.59238e-09
7.31877e-09
7.3022e-09
7.34432e-09
7.27115e-09
6.99095e-09
6.42347e-09
6.1839e-09
5.91008e-09
5.76868e-09
5.43165e-09
4.82477e-09
4.22407e-09
3.31817e-09
3.41746e-09
2.34551e-09
1.1522e-09
2.15877e-09
2.93771e-09
3.73977e-09
4.46589e-09
5.25245e-09
5.89707e-09
6.5973e-09
7.27231e-09
7.61649e-09
7.77336e-09
7.86924e-09
7.9379e-09
8.11009e-09
8.06446e-09
7.69251e-09
7.713e-09
7.7869e-09
7.67134e-09
7.07799e-09
6.29732e-09
6.00402e-09
5.64089e-09
5.43182e-09
4.85868e-09
3.99658e-09
3.11132e-09
2.18629e-09
1.62703e-09
7.2843e-10
1.815e-07
1.93872e-07
5.03523e-08
3.81708e-08
1.68774e-08
1.23406e-08
8.569e-09
7.49088e-09
6.33948e-09
7.2835e-09
7.27725e-09
8.58325e-09
8.10983e-09
9.09344e-09
8.69357e-09
8.93056e-09
8.35638e-09
7.64874e-09
7.32889e-09
6.53897e-09
6.26495e-09
5.78531e-09
5.84315e-09
5.37826e-09
5.14666e-09
4.31128e-09
3.72436e-09
2.82062e-09
2.45795e-09
1.64093e-09
1.92752e-07
5.30134e-08
3.69201e-08
1.70074e-08
8.9841e-09
6.33348e-09
4.80972e-09
3.52265e-09
3.39255e-09
3.43628e-09
4.09346e-09
3.64836e-09
3.2141e-09
3.1026e-09
3.29055e-09
3.39513e-09
3.18581e-09
3.13213e-09
2.8517e-09
2.77181e-09
2.57825e-09
3.07033e-09
3.41155e-09
3.80747e-09
3.65962e-09
3.3639e-09
2.88261e-09
2.60117e-09
3.50397e-09
3.21175e-09
4.95695e-08
3.73318e-08
2.19689e-08
1.73084e-08
9.81541e-09
7.96092e-09
6.12428e-09
4.49861e-09
4.20125e-09
4.39553e-09
5.31505e-09
5.27908e-09
4.18751e-09
3.20888e-09
2.98689e-09
2.86349e-09
2.33436e-09
1.97264e-09
1.95456e-09
2.50213e-09
2.75624e-09
3.68414e-09
4.26601e-09
4.44809e-09
4.36177e-09
4.21394e-09
3.50775e-09
3.36812e-09
3.95356e-09
5.06357e-09
3.91224e-08
1.45482e-08
1.55644e-08
1.02283e-08
5.90311e-09
5.2833e-09
3.88842e-09
3.80965e-09
3.96279e-09
4.25215e-09
4.88031e-09
5.07289e-09
3.92893e-09
2.85864e-09
2.51118e-09
2.41543e-09
2.29534e-09
1.84512e-09
2.1461e-09
3.11181e-09
3.69001e-09
4.22829e-09
3.99915e-09
3.9939e-09
4.22349e-09
4.34122e-09
3.81115e-09
3.85367e-09
3.74906e-09
6.46605e-09
2.1038e-08
6.60186e-09
7.66004e-09
6.11385e-09
4.32598e-09
4.10115e-09
3.16847e-09
3.07041e-09
3.04861e-09
2.97129e-09
3.18161e-09
3.48345e-09
2.53013e-09
2.09443e-09
2.03787e-09
2.08429e-09
2.15392e-09
1.75856e-09
2.3056e-09
3.33748e-09
3.62292e-09
3.14372e-09
2.32127e-09
2.43231e-09
2.86816e-09
3.41751e-09
3.61054e-09
3.94509e-09
3.51563e-09
7.89018e-09
1.98903e-08
3.43891e-09
5.96088e-09
5.00046e-09
3.67488e-09
3.38494e-09
2.19059e-09
2.14538e-09
1.75206e-09
1.83306e-09
2.19344e-09
2.62728e-09
2.22974e-09
2.02293e-09
2.09747e-09
2.20561e-09
2.3374e-09
2.19732e-09
2.76111e-09
3.10766e-09
2.74207e-09
1.92106e-09
1.24307e-09
1.50262e-09
1.85245e-09
2.67253e-09
3.30927e-09
3.83262e-09
3.30513e-09
9.00181e-09
1.7392e-08
2.50538e-09
4.35144e-09
3.4497e-09
3.0544e-09
2.74949e-09
2.17435e-09
1.98453e-09
1.5574e-09
1.58524e-09
1.91983e-09
2.4695e-09
2.23155e-09
2.141e-09
2.34631e-09
2.32808e-09
2.48554e-09
2.67375e-09
3.06318e-09
2.58606e-09
1.90908e-09
1.43017e-09
1.13433e-09
1.33134e-09
1.67063e-09
2.63259e-09
3.30102e-09
3.73969e-09
3.29437e-09
1.02553e-08
1.81657e-08
1.5304e-09
3.6306e-09
3.68803e-09
3.30904e-09
3.02522e-09
2.47429e-09
2.26058e-09
1.80154e-09
1.74711e-09
1.97525e-09
2.30235e-09
2.05144e-09
1.91227e-09
2.2823e-09
2.18457e-09
2.28261e-09
2.75968e-09
2.89745e-09
2.22573e-09
1.51958e-09
1.39597e-09
1.21811e-09
1.47608e-09
1.92161e-09
2.82681e-09
3.31949e-09
3.6392e-09
3.26935e-09
1.1308e-08
1.70176e-08
2.01051e-09
2.8304e-09
3.02011e-09
3.10132e-09
2.85114e-09
2.53691e-09
2.35144e-09
2.17657e-09
2.12777e-09
2.18474e-09
1.86752e-09
1.18244e-09
1.76015e-09
2.49685e-09
2.19898e-09
1.5887e-09
2.10626e-09
2.40395e-09
2.15354e-09
1.69139e-09
1.69762e-09
1.55773e-09
1.88188e-09
2.26924e-09
2.9246e-09
3.15788e-09
3.28361e-09
3.08973e-09
1.24003e-08
1.79858e-08
1.87495e-09
2.3015e-09
2.66043e-09
2.90819e-09
2.96047e-09
2.78675e-09
2.69019e-09
2.66971e-09
2.5762e-09
2.47865e-09
1.58936e-09
1.07433e-09
2.53375e-09
3.266e-09
2.68578e-09
1.55365e-09
8.34698e-10
1.71363e-09
2.18969e-09
1.95534e-09
2.04564e-09
1.94777e-09
2.23047e-09
2.36508e-09
2.71274e-09
2.71087e-09
2.64854e-09
2.72325e-09
1.3211e-08
1.75377e-08
2.23206e-09
1.90895e-09
2.02903e-09
2.14422e-09
2.50475e-09
2.67732e-09
2.82918e-09
2.99208e-09
2.84183e-09
2.59915e-09
1.71206e-09
2.25098e-09
3.6038e-09
4.18757e-09
3.89889e-09
3.10362e-09
1.14366e-09
1.14728e-09
2.20736e-09
2.35079e-09
2.5782e-09
2.49189e-09
2.67239e-09
2.64064e-09
2.69391e-09
2.46849e-09
2.28685e-09
2.45563e-09
1.39222e-08
1.86101e-08
2.34828e-09
1.79549e-09
1.83125e-09
1.92009e-09
2.37879e-09
2.67358e-09
3.0206e-09
3.47088e-09
3.40993e-09
2.68857e-09
2.2055e-09
2.82455e-09
3.23307e-09
3.46001e-09
3.40479e-09
2.86478e-09
1.81576e-09
1.26387e-09
2.15366e-09
2.73645e-09
3.00566e-09
2.87594e-09
2.83853e-09
2.71397e-09
2.63679e-09
2.28982e-09
2.1983e-09
2.29061e-09
1.44589e-08
1.8e-08
2.34897e-09
1.64211e-09
1.62402e-09
1.58636e-09
1.87568e-09
2.05004e-09
2.56241e-09
3.22556e-09
3.12849e-09
2.13116e-09
2.91489e-09
3.23257e-09
3.15388e-09
3.01152e-09
2.81941e-09
2.56685e-09
2.08622e-09
1.73537e-09
1.62766e-09
2.65172e-09
3.01029e-09
2.73443e-09
2.46428e-09
2.25328e-09
2.19001e-09
1.98353e-09
2.09719e-09
2.34258e-09
1.53533e-08
1.82e-08
2.08977e-09
1.51168e-09
1.53429e-09
1.54933e-09
1.56764e-09
1.64495e-09
2.23238e-09
2.92722e-09
2.92833e-09
2.73804e-09
3.0659e-09
2.80243e-09
2.58721e-09
2.16293e-09
1.87191e-09
1.41283e-09
1.50708e-09
1.50692e-09
1.55694e-09
2.13135e-09
2.6742e-09
2.433e-09
2.0411e-09
1.83918e-09
1.83381e-09
1.78387e-09
1.95329e-09
2.37545e-09
1.6128e-08
1.76009e-08
2.28652e-09
1.64939e-09
1.60369e-09
1.58719e-09
1.65229e-09
1.70993e-09
2.17892e-09
2.56133e-09
2.92355e-09
2.92197e-09
2.66694e-09
2.18419e-09
1.79525e-09
1.8839e-09
1.71932e-09
1.48304e-09
1.71848e-09
1.72978e-09
2.13128e-09
2.55336e-09
2.6933e-09
2.27944e-09
1.77702e-09
1.66146e-09
1.66161e-09
1.67368e-09
1.81287e-09
2.39376e-09
1.67928e-08
1.77674e-08
2.4593e-09
1.83733e-09
1.73294e-09
1.77098e-09
1.91594e-09
2.01444e-09
2.35838e-09
2.70685e-09
2.90409e-09
2.36884e-09
1.62079e-09
1.33682e-09
1.38382e-09
1.8555e-09
1.92738e-09
1.73625e-09
1.8928e-09
2.09035e-09
2.51591e-09
2.73296e-09
2.66123e-09
2.11452e-09
1.47201e-09
1.34089e-09
1.41383e-09
1.48798e-09
1.57002e-09
2.09363e-09
1.67118e-08
1.68939e-08
2.52629e-09
2.09186e-09
1.95467e-09
2.0238e-09
2.14594e-09
2.24743e-09
2.61865e-09
2.95028e-09
2.66467e-09
2.06728e-09
1.81785e-09
1.64982e-09
1.74021e-09
2.21737e-09
2.19154e-09
2.03176e-09
2.16331e-09
2.1722e-09
2.01529e-09
2.30597e-09
2.92725e-09
2.35971e-09
1.62188e-09
1.45114e-09
1.58413e-09
1.76792e-09
1.73584e-09
2.09273e-09
1.66767e-08
1.64831e-08
2.49126e-09
2.30969e-09
2.1418e-09
2.28639e-09
2.39569e-09
2.57936e-09
2.81628e-09
3.10474e-09
2.77416e-09
2.09722e-09
1.91342e-09
2.05643e-09
2.33438e-09
2.74216e-09
2.75492e-09
2.90211e-09
2.73571e-09
2.043e-09
1.22462e-09
2.81263e-09
3.57268e-09
2.91664e-09
2.40921e-09
2.15798e-09
2.12495e-09
2.30092e-09
2.25221e-09
2.47075e-09
1.6661e-08
1.55387e-08
2.73678e-09
2.72184e-09
2.70285e-09
2.95835e-09
2.99765e-09
3.04333e-09
3.02756e-09
3.18569e-09
3.00079e-09
2.75681e-09
1.75462e-09
1.66467e-09
2.33792e-09
3.00594e-09
2.99995e-09
2.906e-09
2.36971e-09
1.25158e-09
1.74135e-09
3.12148e-09
3.74472e-09
3.23676e-09
2.91283e-09
2.66e-09
2.64279e-09
2.79784e-09
2.82073e-09
2.91996e-09
1.62506e-08
1.49154e-08
2.83255e-09
2.71923e-09
2.92258e-09
3.16388e-09
2.86945e-09
2.71253e-09
2.50086e-09
2.71002e-09
2.5477e-09
2.66702e-09
1.53549e-09
6.92723e-10
2.16053e-09
3.23154e-09
3.40789e-09
3.18268e-09
1.74113e-09
7.91583e-10
2.17684e-09
2.71298e-09
3.16981e-09
2.80127e-09
2.73282e-09
2.62569e-09
2.84198e-09
2.89354e-09
2.78351e-09
2.93011e-09
1.52663e-08
1.39463e-08
3.10815e-09
2.85561e-09
3.21939e-09
3.40249e-09
2.73099e-09
2.38685e-09
2.08134e-09
2.27414e-09
2.20431e-09
2.56073e-09
2.06051e-09
1.23668e-09
6.77928e-10
2.00837e-09
2.62721e-09
2.37267e-09
6.14442e-10
1.53088e-09
2.56706e-09
2.48925e-09
2.67525e-09
2.37451e-09
2.55378e-09
2.72061e-09
3.25937e-09
3.22572e-09
3.05866e-09
2.98124e-09
1.39255e-08
1.30572e-08
3.21692e-09
3.30654e-09
3.60489e-09
3.41644e-09
2.5635e-09
2.1877e-09
1.73294e-09
1.86273e-09
1.86e-09
2.42482e-09
2.57648e-09
2.29671e-09
1.51362e-09
1.68083e-09
1.9035e-09
1.51321e-09
1.68951e-09
2.17959e-09
2.43786e-09
1.99887e-09
2.11114e-09
1.86689e-09
2.19213e-09
2.45236e-09
3.2474e-09
3.46824e-09
3.43806e-09
3.01401e-09
1.27783e-08
1.19136e-08
3.26999e-09
3.80095e-09
3.70721e-09
3.17444e-09
2.30443e-09
1.96353e-09
1.44976e-09
1.62444e-09
1.68108e-09
2.34294e-09
2.73484e-09
2.61377e-09
2.45065e-09
2.54717e-09
2.6081e-09
1.91946e-09
2.47187e-09
2.86437e-09
2.62079e-09
1.77742e-09
1.74823e-09
1.51324e-09
1.87498e-09
2.0653e-09
3.02722e-09
3.54554e-09
3.69997e-09
3.16515e-09
1.16757e-08
1.09076e-08
3.28074e-09
3.8531e-09
3.25821e-09
2.71015e-09
2.0016e-09
1.81263e-09
1.31295e-09
1.5033e-09
1.68734e-09
2.45535e-09
2.58067e-09
2.37529e-09
2.79964e-09
2.93622e-09
2.74443e-09
2.17078e-09
2.93299e-09
3.38758e-09
3.33392e-09
2.29497e-09
1.69295e-09
1.30235e-09
1.62177e-09
1.73151e-09
2.68819e-09
3.43767e-09
3.82881e-09
3.21863e-09
1.05864e-08
9.43468e-09
3.35827e-09
3.80093e-09
2.91534e-09
2.36803e-09
1.82934e-09
2.00892e-09
1.72861e-09
1.85855e-09
2.00039e-09
2.64712e-09
2.35598e-09
2.03289e-09
2.79891e-09
3.00074e-09
2.68674e-09
2.39692e-09
2.93126e-09
3.47365e-09
3.99152e-09
3.31298e-09
2.40021e-09
1.69978e-09
1.937e-09
2.06499e-09
2.96517e-09
3.57758e-09
4.14377e-09
3.46294e-09
9.43843e-09
8.20047e-09
3.34628e-09
3.62337e-09
2.71673e-09
2.36643e-09
2.14051e-09
2.50508e-09
2.46424e-09
2.77707e-09
2.78613e-09
2.90316e-09
2.02266e-09
1.82364e-09
2.68368e-09
3.02198e-09
2.76385e-09
2.484e-09
2.73953e-09
3.24768e-09
4.09732e-09
4.0433e-09
3.65096e-09
2.94626e-09
3.06426e-09
3.24143e-09
3.83786e-09
3.81353e-09
4.28846e-09
3.75523e-09
8.27774e-09
6.86635e-09
3.55792e-09
3.61799e-09
2.90919e-09
3.11954e-09
3.14179e-09
3.47435e-09
3.5384e-09
4.06427e-09
4.15784e-09
3.79612e-09
2.17906e-09
1.84775e-09
2.77458e-09
3.47785e-09
3.21654e-09
3.02937e-09
3.35115e-09
3.67807e-09
4.33575e-09
4.41272e-09
4.73738e-09
4.65296e-09
4.89123e-09
4.86739e-09
4.86697e-09
4.04138e-09
4.21806e-09
4.09012e-09
6.91275e-09
5.61371e-09
3.95528e-09
3.5644e-09
3.34382e-09
3.61629e-09
3.4762e-09
3.64718e-09
3.67213e-09
4.20803e-09
4.49748e-09
4.24607e-09
2.62521e-09
2.08997e-09
2.90058e-09
3.47832e-09
3.10697e-09
2.9558e-09
3.40563e-09
3.54644e-09
3.69125e-09
3.50049e-09
4.02729e-09
4.40043e-09
5.03727e-09
4.88548e-09
4.58348e-09
3.57511e-09
3.49595e-09
4.15723e-09
5.46993e-09
3.90234e-09
3.94748e-09
3.16189e-09
3.38267e-09
3.42984e-09
3.31909e-09
3.54153e-09
3.65606e-09
4.15373e-09
4.47326e-09
4.48136e-09
3.65114e-09
3.43872e-09
3.24003e-09
3.1023e-09
2.6199e-09
2.72793e-09
3.09471e-09
3.0569e-09
3.10111e-09
2.7933e-09
3.22706e-09
3.33414e-09
3.88246e-09
3.74592e-09
3.46799e-09
2.88108e-09
2.62828e-09
3.56001e-09
3.48328e-09
2.47525e-09
3.23875e-09
3.53456e-09
4.20552e-09
4.63109e-09
5.36398e-09
5.85346e-09
6.84079e-09
7.39294e-09
8.33943e-09
8.15662e-09
8.27825e-09
7.78408e-09
7.92061e-09
7.7631e-09
7.51923e-09
7.60163e-09
7.42613e-09
7.65312e-09
7.05631e-09
6.68719e-09
6.0478e-09
5.84955e-09
5.46569e-09
5.22757e-09
4.40767e-09
3.75599e-09
2.77529e-09
2.44564e-09
1.78951e-09
1.58425e-07
5.01058e-08
4.55316e-08
2.70996e-08
1.88269e-08
1.37032e-08
9.76235e-09
8.20568e-09
6.35875e-09
6.35381e-09
6.51015e-09
6.47904e-09
6.71344e-09
6.13595e-09
6.40359e-09
6.65556e-09
6.26104e-09
6.9058e-09
5.96705e-09
6.58708e-09
5.00198e-09
5.73729e-09
5.1563e-09
6.12187e-09
5.49671e-09
5.223e-09
4.26714e-09
3.40315e-09
2.64112e-09
2.23677e-09
4.85678e-08
3.78845e-08
2.24453e-08
1.78192e-08
8.65374e-09
6.72675e-09
5.09896e-09
4.3364e-09
4.39782e-09
4.03414e-09
3.45876e-09
2.8126e-09
2.17893e-09
2.36344e-09
2.65784e-09
2.38481e-09
2.69489e-09
2.75776e-09
2.81185e-09
2.17045e-09
1.57248e-09
1.89187e-09
2.66229e-09
3.01449e-09
2.8187e-09
2.3148e-09
2.24137e-09
2.32422e-09
2.77701e-09
3.09518e-09
4.47484e-08
2.31079e-08
2.08375e-08
1.7205e-08
1.11479e-08
8.33713e-09
6.0314e-09
4.85751e-09
5.10349e-09
5.44466e-09
5.22565e-09
4.68814e-09
3.74482e-09
3.35108e-09
3.17676e-09
2.9988e-09
3.29274e-09
2.87735e-09
2.91214e-09
2.44136e-09
2.27047e-09
2.84088e-09
4.12603e-09
4.55699e-09
3.60858e-09
2.66867e-09
2.81506e-09
3.6411e-09
3.44562e-09
4.51291e-09
2.99823e-08
1.62646e-08
1.55013e-08
1.22909e-08
8.06231e-09
6.79631e-09
4.59328e-09
3.92868e-09
3.73346e-09
4.78019e-09
5.74635e-09
6.05429e-09
5.27912e-09
4.49636e-09
3.86016e-09
3.61354e-09
3.38502e-09
2.65333e-09
2.93341e-09
2.66839e-09
2.42966e-09
3.9461e-09
5.51753e-09
5.55325e-09
4.53925e-09
3.33054e-09
3.34118e-09
3.91689e-09
3.68185e-09
5.84486e-09
2.29029e-08
8.00536e-09
9.17257e-09
7.61301e-09
6.26433e-09
5.71892e-09
4.5366e-09
3.99188e-09
3.67958e-09
4.66123e-09
6.22947e-09
6.55039e-09
5.08454e-09
4.19615e-09
3.60977e-09
3.36868e-09
2.87923e-09
2.29839e-09
2.86857e-09
3.11526e-09
4.11138e-09
5.16718e-09
5.55238e-09
5.33676e-09
4.89775e-09
3.93087e-09
3.87964e-09
3.50426e-09
3.74397e-09
7.17265e-09
2.06045e-08
5.61277e-09
7.17445e-09
6.05958e-09
4.93261e-09
4.07027e-09
2.99867e-09
2.48065e-09
2.14192e-09
2.9948e-09
4.31073e-09
4.51755e-09
3.25152e-09
2.69528e-09
2.15562e-09
2.18917e-09
2.03377e-09
1.98351e-09
2.4758e-09
3.2046e-09
3.69532e-09
3.51266e-09
3.07073e-09
3.22214e-09
3.75999e-09
3.91437e-09
4.03411e-09
3.00099e-09
3.70111e-09
8.26864e-09
1.77694e-08
3.50109e-09
4.55791e-09
3.9249e-09
3.55905e-09
3.03375e-09
2.25816e-09
1.97709e-09
1.70524e-09
2.22525e-09
3.03875e-09
3.49127e-09
2.53704e-09
2.23583e-09
1.76895e-09
1.87264e-09
1.90197e-09
1.97122e-09
2.74266e-09
2.99728e-09
2.49961e-09
1.77898e-09
1.35775e-09
1.81435e-09
3.03726e-09
3.78688e-09
3.73864e-09
2.5707e-09
3.67595e-09
9.44664e-09
1.8147e-08
2.50643e-09
3.42327e-09
3.94586e-09
3.85194e-09
3.38621e-09
2.56555e-09
2.25577e-09
1.73362e-09
1.87278e-09
2.3375e-09
3.07028e-09
2.44191e-09
2.43116e-09
1.60763e-09
1.43715e-09
1.43647e-09
2.05181e-09
2.8366e-09
2.40601e-09
1.52529e-09
1.0722e-09
1.05717e-09
1.697e-09
2.87552e-09
3.46065e-09
3.28821e-09
2.44988e-09
3.57648e-09
1.05027e-08
1.65536e-08
2.53079e-09
1.92559e-09
2.2706e-09
2.75873e-09
2.96302e-09
2.493e-09
2.23398e-09
1.82701e-09
1.92147e-09
2.05582e-09
2.55201e-09
2.39381e-09
2.6558e-09
1.74082e-09
1.50004e-09
1.52335e-09
1.63198e-09
2.22237e-09
1.85261e-09
1.40422e-09
1.21025e-09
1.43446e-09
2.01031e-09
2.7393e-09
2.98468e-09
2.92681e-09
2.40291e-09
3.33056e-09
1.16688e-08
1.72051e-08
2.47286e-09
1.73537e-09
1.57898e-09
1.9878e-09
2.65856e-09
2.70108e-09
2.54794e-09
2.0808e-09
2.09683e-09
1.91212e-09
2.27734e-09
2.13781e-09
2.33234e-09
2.16944e-09
1.72923e-09
2.08224e-09
1.66089e-09
1.49733e-09
1.32159e-09
1.44133e-09
1.43018e-09
1.77031e-09
2.21023e-09
2.37688e-09
2.40057e-09
2.32273e-09
1.93441e-09
2.88136e-09
1.26847e-08
1.65453e-08
2.52039e-09
1.33657e-09
1.20545e-09
1.07511e-09
1.59951e-09
2.10484e-09
2.45954e-09
2.1779e-09
2.17768e-09
2.37294e-09
3.11327e-09
2.96786e-09
3.60453e-09
3.80863e-09
3.317e-09
3.28159e-09
2.61055e-09
2.37131e-09
1.88879e-09
1.89545e-09
1.90757e-09
2.12829e-09
2.23238e-09
2.05391e-09
2.00697e-09
1.89483e-09
1.56616e-09
2.44465e-09
1.35078e-08
1.77266e-08
2.3664e-09
1.21674e-09
1.18544e-09
8.89162e-10
1.1101e-09
1.7605e-09
2.36699e-09
2.21471e-09
2.73817e-09
3.47624e-09
3.37002e-09
3.57147e-09
4.30237e-09
4.57267e-09
4.53517e-09
3.95511e-09
2.88169e-09
2.77847e-09
2.69987e-09
2.38121e-09
2.07413e-09
2.01409e-09
1.90051e-09
1.73425e-09
1.76788e-09
1.68228e-09
1.41601e-09
2.01235e-09
1.40735e-08
1.72676e-08
1.97977e-09
8.84159e-10
1.07321e-09
8.26768e-10
6.65237e-10
1.21921e-09
2.22716e-09
1.95783e-09
2.86198e-09
3.71411e-09
3.70464e-09
4.67796e-09
5.26054e-09
5.31079e-09
5.11459e-09
4.73794e-09
3.71636e-09
3.07148e-09
2.91153e-09
2.66252e-09
1.84134e-09
1.67502e-09
1.49972e-09
1.27316e-09
1.28109e-09
1.27216e-09
1.08686e-09
1.94954e-09
1.49256e-08
1.76705e-08
1.77318e-09
4.96249e-10
6.39672e-10
6.84601e-10
5.25063e-10
1.10319e-09
2.19179e-09
2.2549e-09
2.59984e-09
2.96932e-09
4.01493e-09
4.57454e-09
5.27679e-09
5.25202e-09
5.05717e-09
4.6157e-09
3.83506e-09
3.53589e-09
2.24171e-09
2.2987e-09
1.79325e-09
1.22482e-09
9.61109e-10
8.90758e-10
8.42262e-10
7.73907e-10
6.31113e-10
1.9232e-09
1.55823e-08
1.69585e-08
2.07236e-09
7.27525e-10
6.17169e-10
6.48931e-10
6.91354e-10
9.98784e-10
1.39135e-09
2.03919e-09
2.75567e-09
3.17429e-09
3.77398e-09
3.37686e-09
4.00654e-09
4.61289e-09
4.71522e-09
4.0614e-09
3.58088e-09
3.68028e-09
3.09445e-09
2.87351e-09
2.1778e-09
1.34712e-09
8.79798e-10
8.40452e-10
7.38502e-10
6.09138e-10
6.14383e-10
1.92105e-09
1.61401e-08
1.70834e-08
2.2976e-09
7.54707e-10
6.39794e-10
7.90039e-10
1.03532e-09
1.13592e-09
1.41892e-09
2.24728e-09
3.01039e-09
3.11827e-09
3.37757e-09
2.913e-09
3.70836e-09
4.55306e-09
4.68974e-09
4.06813e-09
3.60351e-09
3.96827e-09
3.3911e-09
2.95458e-09
2.3375e-09
1.27052e-09
7.59155e-10
6.89516e-10
5.75834e-10
5.97409e-10
5.05948e-10
1.69236e-09
1.60925e-08
1.63247e-08
2.47158e-09
9.6619e-10
1.05641e-09
1.05818e-09
1.30662e-09
1.27664e-09
1.46522e-09
2.02381e-09
2.54619e-09
2.56125e-09
3.49137e-09
3.51508e-09
4.29404e-09
4.80304e-09
4.9367e-09
4.70674e-09
3.93434e-09
3.74741e-09
2.36528e-09
2.79385e-09
2.34597e-09
1.42651e-09
9.98638e-10
6.82489e-10
5.7797e-10
1.06228e-09
1.00001e-09
1.70518e-09
1.61158e-08
1.60519e-08
2.49531e-09
1.39239e-09
1.51838e-09
1.35613e-09
1.47563e-09
1.66463e-09
1.7668e-09
1.90824e-09
2.78757e-09
3.25943e-09
3.23025e-09
3.57763e-09
4.38279e-09
4.94689e-09
5.15362e-09
4.73757e-09
3.75829e-09
3.01493e-09
2.45716e-09
3.02307e-09
2.19296e-09
1.95257e-09
1.66307e-09
1.19952e-09
1.23791e-09
1.86111e-09
1.80103e-09
2.23846e-09
1.59167e-08
1.49568e-08
2.70526e-09
1.80865e-09
1.91558e-09
2.03468e-09
2.25348e-09
2.32944e-09
2.25005e-09
2.18166e-09
2.54905e-09
3.01587e-09
2.94231e-09
2.63351e-09
3.51692e-09
4.35834e-09
4.76726e-09
3.95274e-09
2.95492e-09
2.51275e-09
2.62587e-09
2.71887e-09
2.5002e-09
2.17269e-09
1.9729e-09
1.72556e-09
1.69306e-09
2.11808e-09
2.02978e-09
2.81175e-09
1.53218e-08
1.41886e-08
2.85392e-09
1.87852e-09
1.89754e-09
2.45447e-09
2.73763e-09
2.41378e-09
2.07604e-09
1.88671e-09
1.92567e-09
2.01389e-09
2.51108e-09
2.15927e-09
2.70331e-09
3.32249e-09
4.13047e-09
3.63153e-09
2.75735e-09
2.46048e-09
2.15355e-09
2.27457e-09
2.3307e-09
2.2686e-09
2.31819e-09
2.40517e-09
2.14428e-09
1.96149e-09
1.77256e-09
3.01901e-09
1.42521e-08
1.31801e-08
3.26048e-09
2.24599e-09
2.14707e-09
3.04599e-09
3.27909e-09
2.48939e-09
1.82946e-09
1.55748e-09
1.52578e-09
1.52997e-09
2.02096e-09
2.06124e-09
2.46153e-09
1.87894e-09
2.3596e-09
2.21118e-09
2.40507e-09
2.19158e-09
1.89869e-09
2.09846e-09
2.03655e-09
2.11881e-09
2.61073e-09
3.20351e-09
2.98386e-09
2.206e-09
1.76824e-09
3.02883e-09
1.28968e-08
1.22407e-08
3.32292e-09
2.30495e-09
2.82956e-09
3.63336e-09
3.27349e-09
2.33048e-09
1.68068e-09
1.35202e-09
1.38103e-09
1.85276e-09
2.56226e-09
2.04245e-09
2.21188e-09
2.619e-09
2.72155e-09
2.61516e-09
2.93289e-09
2.75329e-09