/*--------------------------------*- C++ -*----------------------------------*\
| =========                 |                                                 |
| \\      /  F ield         | OpenFOAM: The Open Source CFD Toolbox           |
|  \\    /   O peration     | Version:  v1912                                 |
|   \\  /    A nd           | Website:  www.openfoam.com                      |
|    \\/     M anipulation  |                                                 |
\*---------------------------------------------------------------------------*/
FoamFile
{
    version     2.0;
    format      ascii;
    class       surfaceScalarField;
    location    "194/oil";
    object      phi;
}
// * * * * * * * * * * * * * * * * * * * * * * * * * * * * * * * * * * * * * //

dimensions      [1 0 -1 0 0 0 0];
oriented        oriented;


internalField   nonuniform List<scalar> 
104676
(
-1.00031e-11
2.4346e-11
-1.29277e-11
2.54738e-10
-2.09648e-10
-5.5074e-11
7.95477e-10
-3.92068e-10
-1.48655e-10
1.5285e-09
-4.77895e-10
-2.55116e-10
2.34609e-09
-4.88447e-10
-3.2912e-10
3.14074e-09
-4.44201e-10
-3.50437e-10
3.81549e-09
-3.61203e-10
-3.13536e-10
4.2893e-09
-2.51353e-10
-2.22446e-10
4.49901e-09
-1.23845e-10
-8.58566e-11
4.41035e-09
9.85838e-12
7.88147e-11
4.00651e-09
1.47947e-10
2.55912e-10
3.31545e-09
2.60669e-10
4.30411e-10
2.37327e-09
3.63108e-10
5.79093e-10
1.24758e-09
4.37321e-10
6.88382e-10
2.45077e-11
4.76553e-10
7.46534e-10
-1.20242e-09
4.78692e-10
7.48249e-10
-2.33129e-09
4.37783e-10
6.91103e-10
-3.27742e-09
3.62898e-10
5.83257e-10
-3.97541e-09
2.62363e-10
4.35647e-10
-4.3845e-09
1.4489e-10
2.64236e-10
-4.48428e-09
1.10385e-11
8.87727e-11
-4.27951e-09
-1.26216e-10
-7.85237e-11
-3.8098e-09
-2.53239e-10
-2.16439e-10
-3.13819e-09
-3.62967e-10
-3.08618e-10
-2.34614e-09
-4.45625e-10
-3.46406e-10
-1.53045e-09
-4.90757e-10
-3.24911e-10
-7.98132e-10
-4.81503e-10
-2.50796e-10
-2.57154e-10
-3.96353e-10
-1.44612e-10
8.54123e-12
-2.137e-10
-5.19825e-11
1.98066e-11
-1.12586e-11
2.59996e-10
-4.95594e-10
2.59964e-10
1.00181e-09
-1.485e-09
5.33552e-10
2.17936e-09
-2.23027e-09
6.60674e-10
3.66151e-09
-2.68381e-09
7.23784e-10
5.27011e-09
-2.90087e-09
8.03841e-10
6.81346e-09
-2.93521e-09
9.47679e-10
8.11052e-09
-2.83275e-09
1.1745e-09
9.00466e-09
-2.62964e-09
1.48417e-09
9.37381e-09
-2.35616e-09
1.86318e-09
9.13979e-09
-2.03956e-09
2.28345e-09
8.26621e-09
-1.70654e-09
2.7281e-09
6.80127e-09
-1.41492e-09
3.14055e-09
4.85443e-09
-1.15843e-09
3.46839e-09
2.54899e-09
-9.72851e-10
3.71565e-09
4.94969e-11
-8.75764e-10
3.85183e-09
-2.45973e-09
-8.7631e-10
3.86426e-09
-4.77159e-09
-9.772e-10
3.72687e-09
-6.72047e-09
-1.16594e-09
3.47774e-09
-8.17357e-09
-1.42291e-09
3.13841e-09
-9.05004e-09
-1.7201e-09
2.74149e-09
-9.29824e-09
-2.04856e-09
2.30785e-09
-8.94184e-09
-2.36289e-09
1.8803e-09
-8.06313e-09
-2.63372e-09
1.50181e-09
-6.7826e-09
-2.83602e-09
1.19256e-09
-5.25288e-09
-2.93947e-09
9.64152e-10
-3.6564e-09
-2.90671e-09
8.19489e-10
-2.18193e-09
-2.69372e-09
7.37764e-10
-1.00542e-09
-2.24348e-09
6.70638e-10
-2.61158e-10
-1.496e-09
5.38051e-10
-5.01606e-10
2.60261e-10
5.46065e-10
-1.59287e-09
5.51235e-10
1.73463e-09
-3.85235e-09
1.17881e-09
3.40078e-09
-5.46538e-09
1.56899e-09
5.38055e-09
-6.51699e-09
1.85341e-09
7.46912e-09
-7.12069e-09
2.13128e-09
9.44104e-09
-7.37024e-09
2.46312e-09
1.10762e-08
-7.34611e-09
2.87825e-09
1.21794e-08
-7.11459e-09
3.38172e-09
1.25986e-08
-6.73591e-09
3.96062e-09
1.22363e-08
-6.26062e-09
4.58338e-09
1.10448e-08
-5.74359e-09
5.22856e-09
9.0745e-09
-5.25484e-09
5.81022e-09
6.46803e-09
-4.82627e-09
6.27434e-09
3.39337e-09
-4.51335e-09
6.61518e-09
6.37457e-11
-4.35201e-09
6.8059e-09
-3.28184e-09
-4.35964e-09
6.82894e-09
-6.36623e-09
-4.52381e-09
6.63102e-09
-8.97334e-09
-4.83833e-09
6.27954e-09
-1.09325e-08
-5.26368e-09
5.79996e-09
-1.21399e-08
-5.75666e-09
5.24401e-09
-1.25227e-08
-6.27252e-09
4.60683e-09
-1.21189e-08
-6.74432e-09
3.97759e-09
-1.10316e-08
-7.12114e-09
3.40023e-09
-9.41317e-09
-7.35105e-09
2.89662e-09
-7.45656e-09
-7.3766e-09
2.48056e-09
-5.37855e-09
-7.13149e-09
2.1468e-09
-3.40573e-09
-6.53231e-09
1.86579e-09
-1.74108e-09
-5.4841e-09
1.57599e-09
-5.49221e-10
-3.86715e-09
1.1793e-09
-1.60101e-09
5.50184e-10
7.82616e-10
-3.16756e-09
7.92087e-10
2.34693e-09
-7.12477e-09
1.70813e-09
4.40918e-09
-9.83717e-09
2.30955e-09
6.76795e-09
-1.16486e-08
2.77289e-09
9.1979e-09
-1.27674e-08
3.21682e-09
1.14564e-08
-1.3337e-08
3.70824e-09
1.33052e-08
-1.34761e-08
4.28125e-09
1.4531e-08
-1.32832e-08
4.94279e-09
1.49608e-08
-1.28471e-08
5.68148e-09
1.44823e-08
-1.22498e-08
6.46764e-09
1.30396e-08
-1.15735e-08
7.27263e-09
1.07006e-08
-1.0899e-08
7.98323e-09
7.62063e-09
-1.03117e-08
8.5654e-09
3.99516e-09
-9.85898e-09
8.97113e-09
7.21669e-11
-9.62832e-09
9.19933e-09
-3.87197e-09
-9.64454e-09
9.22907e-09
-7.5102e-09
-9.87022e-09
8.98468e-09
-1.05926e-08
-1.03108e-08
8.55494e-09
-1.29218e-08
-1.09012e-08
7.96676e-09
-1.43778e-08
-1.15783e-08
7.27764e-09
-1.48752e-08
-1.22549e-08
6.47977e-09
-1.44625e-08
-1.28509e-08
5.69391e-09
-1.32553e-08
-1.32864e-08
4.95808e-09
-1.14233e-08
-1.34792e-08
4.29625e-09
-9.18117e-09
-1.33426e-08
3.72381e-09
-6.76509e-09
-1.27785e-08
3.23096e-09
-4.41316e-09
-1.16668e-08
2.78258e-09
-2.35327e-09
-9.85496e-09
2.31099e-09
-7.8835e-10
-7.13119e-09
1.69913e-09
-3.17855e-09
7.89202e-10
9.61045e-10
-5.09847e-09
9.69875e-10
2.81537e-09
-1.10741e-08
2.09506e-09
5.18801e-09
-1.5064e-08
2.85425e-09
7.83935e-09
-1.77498e-08
3.44987e-09
1.05253e-08
-1.94718e-08
4.01848e-09
1.29913e-08
-2.04381e-08
4.63513e-09
1.49894e-08
-2.081e-08
5.33578e-09
1.62946e-08
-2.07186e-08
6.13022e-09
1.67261e-08
-2.02822e-08
7.00359e-09
1.61603e-08
-1.96114e-08
7.92752e-09
1.45373e-08
-1.882e-08
8.86954e-09
1.19274e-08
-1.80069e-08
9.71777e-09
8.48745e-09
-1.72768e-08
1.04051e-08
4.44683e-09
-1.66838e-08
1.08655e-08
7.77568e-11
-1.63839e-08
1.11247e-08
-4.31609e-09
-1.64061e-08
1.11554e-08
-8.3659e-09
-1.6698e-08
1.08776e-08
-1.1802e-08
-1.72553e-08
1.03805e-08
-1.44112e-08
-1.80008e-08
9.70887e-09
-1.60492e-08
-1.88188e-08
8.87859e-09
-1.66345e-08
-1.96114e-08
7.94191e-09
-1.62218e-08
-2.02824e-08
7.01885e-09
-1.49344e-08
-2.07199e-08
6.14609e-09
-1.29527e-08
-2.08123e-08
5.35147e-09
-1.05026e-08
-2.04427e-08
4.65002e-09
-7.83141e-09
-1.94808e-08
4.03109e-09
-5.19023e-09
-1.77651e-08
3.45714e-09
-2.8199e-09
-1.50775e-08
2.85218e-09
-9.66042e-10
-1.10669e-08
2.08183e-09
-5.11194e-09
9.67354e-10
1.08094e-09
-7.2708e-09
1.09139e-09
3.14124e-09
-1.54879e-08
2.35344e-09
5.73957e-09
-2.08836e-08
3.22123e-09
8.60328e-09
-2.45249e-08
3.91141e-09
1.14739e-08
-2.69134e-08
4.57092e-09
1.40891e-08
-2.83371e-08
5.28384e-09
1.61953e-08
-2.90043e-08
6.08817e-09
1.75612e-08
-2.90804e-08
6.99587e-09
1.79993e-08
-2.87106e-08
7.99039e-09
1.73813e-08
-2.80316e-08
9.03817e-09
1.56443e-08
-2.7182e-08
1.0099e-08
1.28363e-08
-2.62983e-08
1.10995e-08
9.13005e-09
-2.54663e-08
1.18957e-08
4.78069e-09
-2.47432e-08
1.24088e-08
7.81282e-11
-2.43656e-08
1.26843e-08
-4.65137e-09
-2.43897e-08
1.27131e-08
-9.00121e-09
-2.47763e-08
1.24282e-08
-1.26961e-08
-2.5425e-08
1.18646e-08
-1.55089e-08
-2.62853e-08
1.10974e-08
-1.72639e-08
-2.7178e-08
1.01141e-08
-1.79037e-08
-2.80284e-08
9.05679e-09
-1.74858e-08
-2.87093e-08
8.00907e-09
-1.61382e-08
-2.90815e-08
7.01399e-09
-1.40486e-08
-2.9007e-08
6.10515e-09
-1.14478e-08
-2.83417e-08
5.29829e-09
-8.59084e-09
-2.69206e-08
4.58283e-09
-5.73824e-09
-2.45348e-08
3.91711e-09
-3.14606e-09
-2.0886e-08
3.21637e-09
-1.08653e-09
-1.54661e-08
2.3397e-09
-7.28857e-09
1.09009e-09
1.14131e-09
-9.57825e-09
1.16615e-09
3.32841e-09
-2.01962e-08
2.52121e-09
6.06916e-09
-2.70705e-08
3.44611e-09
9.06468e-09
-3.1709e-08
4.18858e-09
1.20489e-08
-3.48072e-08
4.90973e-09
1.47566e-08
-3.67393e-08
5.69447e-09
1.69332e-08
-3.77635e-08
6.58257e-09
1.83432e-08
-3.80786e-08
7.58834e-09
1.87958e-08
-3.78557e-08
8.69248e-09
1.81557e-08
-3.72497e-08
9.85817e-09
1.63585e-08
-3.64236e-08
1.10388e-08
1.34203e-08
-3.55363e-08
1.21762e-08
9.54973e-09
-3.46829e-08
1.30872e-08
4.9997e-09
-3.38419e-08
1.36488e-08
8.46127e-11
-3.33934e-08
1.3943e-08
-4.85321e-09
-3.34303e-08
1.39785e-08
-9.4189e-09
-3.39045e-08
1.36939e-08
-1.32766e-08
-3.46334e-08
1.30662e-08
-1.62195e-08
-3.55239e-08
1.21815e-08
-1.80361e-08
-3.64231e-08
1.10617e-08
-1.86979e-08
-3.72501e-08
9.88362e-09
-1.82663e-08
-3.7857e-08
8.71618e-09
-1.68749e-08
-3.80825e-08
7.60957e-09
-1.47151e-08
-3.77693e-08
6.60262e-09
-1.2021e-08
-3.67459e-08
5.71009e-09
-9.04978e-09
-3.48134e-08
4.92166e-09
-6.06614e-09
-3.17107e-08
4.19227e-09
-3.33666e-09
-2.70495e-08
3.43402e-09
-1.15524e-09
-2.01423e-08
2.49478e-09
-9.60693e-09
1.16313e-09
1.16397e-09
-1.19331e-08
1.19091e-09
3.38811e-09
-2.50058e-08
2.58549e-09
6.17608e-09
-3.33961e-08
3.53771e-09
9.21689e-09
-3.90523e-08
4.3025e-09
1.22354e-08
-4.28797e-08
5.05388e-09
1.49708e-08
-4.53615e-08
5.88689e-09
1.71724e-08
-4.6804e-08
6.83893e-09
1.8606e-08
-4.7436e-08
7.92385e-09
1.90769e-08
-4.74494e-08
9.12287e-09
1.84471e-08
-4.70156e-08
1.03957e-08
1.66407e-08
-4.63074e-08
1.16903e-08
1.36573e-08
-4.55051e-08
1.29523e-08
9.71306e-09
-4.47308e-08
1.39921e-08
5.07784e-09
-4.37931e-08
1.45864e-08
8.42373e-11
-4.33139e-08
1.49142e-08
-4.93914e-09
-4.33591e-08
1.49523e-08
-9.60807e-09
-4.38577e-08
1.46222e-08
-1.35226e-08
-4.46785e-08
1.39597e-08
-1.65033e-08
-4.54961e-08
1.29529e-08
-1.83277e-08
-4.63115e-08
1.17128e-08
-1.89799e-08
-4.70196e-08
1.04218e-08
-1.85298e-08
-4.74546e-08
9.14753e-09
-1.71141e-08
-4.74448e-08
7.94664e-09
-1.49284e-08
-4.68155e-08
6.86052e-09
-1.22063e-08
-4.53727e-08
5.90474e-09
-9.20104e-09
-4.28849e-08
5.06625e-09
-6.17647e-09
-3.90341e-08
4.29886e-09
-3.40165e-09
-3.33359e-08
3.51156e-09
-1.17669e-09
-2.49176e-08
2.55035e-09
-1.19737e-08
1.19011e-09
1.14387e-09
-1.42464e-08
1.16942e-09
3.31525e-09
-2.97282e-08
2.55098e-09
6.04657e-09
-3.96397e-08
3.51225e-09
9.03511e-09
-4.63191e-08
4.27826e-09
1.20036e-08
-5.0871e-08
5.02285e-09
1.46903e-08
-5.39128e-08
5.86457e-09
1.68587e-08
-5.58214e-08
6.84904e-09
1.82835e-08
-5.68437e-08
7.98298e-09
1.87699e-08
-5.71815e-08
9.24572e-09
1.81772e-08
-5.7019e-08
1.05962e-08
1.64333e-08
-5.65324e-08
1.19689e-08
1.35248e-08
-5.58955e-08
1.3299e-08
9.60293e-09
-5.5254e-08
1.44452e-08
5.01376e-09
-5.42882e-08
1.50843e-08
8.01181e-11
-5.38506e-08
1.54704e-08
-4.88954e-09
-5.38907e-08
1.55013e-08
-9.52524e-09
-5.43129e-08
1.50909e-08
-1.34123e-08
-5.51748e-08
1.43834e-08
-1.63023e-08
-5.58878e-08
1.32818e-08
-1.80607e-08
-5.65405e-08
1.19875e-08
-1.86741e-08
-5.70288e-08
1.06227e-08
-1.82079e-08
-5.71923e-08
9.27146e-09
-1.68011e-08
-5.68582e-08
8.00666e-09
-1.4648e-08
-5.58397e-08
6.87121e-09
-1.19757e-08
-5.39253e-08
5.88025e-09
-9.02895e-09
-5.08502e-08
5.0186e-09
-6.06213e-09
-4.62413e-08
4.24043e-09
-3.33858e-09
-3.95143e-08
3.45487e-09
-1.15179e-09
-2.9615e-08
2.51062e-09
-1.42958e-08
1.17023e-09
1.08531e-09
-1.64284e-08
1.09666e-09
3.13512e-09
-3.41734e-08
2.39534e-09
5.68732e-09
-4.55234e-08
3.33146e-09
8.49985e-09
-5.32254e-08
4.09379e-09
1.13167e-08
-5.85052e-08
4.81739e-09
1.38684e-08
-6.20862e-08
5.62183e-09
1.59327e-08
-6.44772e-08
6.59149e-09
1.73021e-08
-6.5942e-08
7.72885e-09
1.77939e-08
-6.66799e-08
9.00675e-09
1.72642e-08
-6.68729e-08
1.03836e-08
1.56442e-08
-6.66959e-08
1.17834e-08
1.29206e-08
-6.63053e-08
1.31334e-08
9.14526e-09
-6.58141e-08
1.43355e-08
4.77197e-09
-6.49445e-08
1.50297e-08
7.4624e-11
-6.4592e-08
1.54388e-08
-4.65054e-09
-6.463e-08
1.54646e-08
-9.05486e-09
-6.4922e-08
1.50135e-08
-1.28109e-08
-6.56547e-08
1.42361e-08
-1.55217e-08
-6.62857e-08
1.31087e-08
-1.71519e-08
-6.67099e-08
1.17996e-08
-1.77016e-08
-6.68884e-08
1.04094e-08
-1.72303e-08
-6.66957e-08
9.03215e-09
-1.58768e-08
-6.59637e-08
7.75206e-09
-1.38251e-08
-6.45025e-08
6.61107e-09
-1.1295e-08
-6.20785e-08
5.62316e-09
-8.51024e-09
-5.84072e-08
4.77234e-09
-5.70624e-09
-5.30578e-08
4.01252e-09
-3.13799e-09
-4.53399e-08
3.25737e-09
-1.08162e-09
-3.40337e-08
2.36231e-09
-1.64798e-08
1.10243e-09
9.79489e-10
-1.83814e-08
9.73448e-10
2.83586e-09
-3.81283e-08
2.09847e-09
5.12328e-09
-5.07484e-08
2.93758e-09
7.62216e-09
-5.94077e-08
3.68344e-09
1.01561e-08
-6.54216e-08
4.38247e-09
1.24666e-08
-6.95232e-08
5.12651e-09
1.4346e-08
-7.23879e-08
6.03124e-09
1.56078e-08
-7.43199e-08
7.11624e-09
1.60829e-08
-7.54979e-08
8.3428e-09
1.56404e-08
-7.60911e-08
9.66076e-09
1.42296e-08
-7.62539e-08
1.09689e-08
1.18139e-08
-7.60991e-08
1.22096e-08
8.33515e-09
-7.57207e-08
1.33855e-08
4.34127e-09
-7.51528e-08
1.42022e-08
6.78683e-11
-7.49479e-08
1.46294e-08
-4.2227e-09
-7.49863e-08
1.46468e-08
-8.19656e-09
-7.51353e-08
1.41872e-08
-1.16132e-08
-7.56435e-08
1.34054e-08
-1.40644e-08
-7.61987e-08
1.23643e-08
-1.55257e-08
-7.63015e-08
1.10531e-08
-1.59931e-08
-7.61139e-08
9.69291e-09
-1.55398e-08
-7.55123e-08
8.36334e-09
-1.42915e-08
-7.43453e-08
7.13341e-09
-1.24203e-08
-7.24156e-08
6.04188e-09
-1.01326e-08
-6.94693e-08
5.10314e-09
-7.62115e-09
-6.52164e-08
4.29776e-09
-5.09064e-09
-5.917e-08
3.58168e-09
-2.78567e-09
-5.05352e-08
2.89039e-09
-9.50962e-10
-3.79597e-08
2.09129e-09
-1.84113e-08
9.8051e-10
8.25404e-10
-2.00104e-08
8.03504e-10
2.40728e-09
-4.13972e-08
1.68697e-09
4.34033e-09
-5.50019e-08
2.32039e-09
6.43648e-09
-6.44605e-08
2.95662e-09
8.52428e-09
-7.11385e-08
3.62906e-09
1.04634e-08
-7.57843e-08
4.32215e-09
1.20664e-08
-7.91112e-08
5.1203e-09
1.31688e-08
-8.15097e-08
6.08748e-09
1.36175e-08
-8.31315e-08
7.18503e-09
1.32926e-08
-8.40953e-08
8.32915e-09
1.21144e-08
-8.45263e-08
9.45055e-09
1.00089e-08
-8.46324e-08
1.06388e-08
7.07168e-09
-8.45435e-08
1.17601e-08
3.69454e-09
-8.42912e-08
1.25157e-08
5.71689e-11
-8.42106e-08
1.29001e-08
-3.60663e-09
-8.41894e-08
1.28669e-08
-6.99065e-09
-8.41595e-08
1.24082e-08
-9.88695e-09
-8.44273e-08
1.16801e-08
-1.19556e-08
-8.48764e-08
1.07463e-08
-1.31616e-08
-8.46167e-08
9.52126e-09
-1.35183e-08
-8.40886e-08
8.33137e-09
-1.31005e-08
-8.31065e-08
7.17639e-09
-1.20134e-08
-8.15201e-08
6.08773e-09
-1.04015e-08
-7.914e-08
5.11258e-09
-8.46392e-09
-7.56929e-08
4.28604e-09
-6.36152e-09
-7.09175e-08
3.59872e-09
-4.27196e-09
-6.42773e-08
3.0178e-09
-2.35304e-09
-5.49083e-08
2.4542e-09
-8.12007e-10
-4.12796e-08
1.77893e-09
-2.00537e-08
8.30414e-10
6.33355e-10
-2.12496e-08
6.05832e-10
1.82394e-09
-4.38781e-08
1.29027e-09
3.31662e-09
-5.82367e-08
1.74204e-09
4.91515e-09
-6.81909e-08
2.13182e-09
6.46463e-09
-7.53028e-08
2.6149e-09
7.90692e-09
-8.04265e-08
3.19994e-09
9.12351e-09
-8.41877e-08
3.85998e-09
1.00036e-08
-8.69998e-08
4.61e-09
1.04338e-08
-8.90125e-08
5.45074e-09
1.02051e-08
-9.02285e-08
6.36189e-09
9.19551e-09
-9.08914e-08
7.37479e-09
7.50272e-09
-9.13548e-08
8.41531e-09
5.37394e-09
-9.17075e-08
9.29283e-09
2.84131e-09
-9.16545e-08
9.89598e-09
5.00911e-11
-9.16051e-08
1.01857e-08
-2.78803e-09
-9.14702e-08
1.0119e-08
-5.37359e-09
-9.13215e-08
9.74752e-09
-7.5501e-09
-9.13723e-08
9.12154e-09
-9.1928e-09
-9.14698e-08
8.23623e-09
-1.01038e-08
-9.08565e-08
7.15081e-09
-1.03256e-08
-9.00804e-08
6.2137e-09
-9.97251e-09
-8.88062e-08
5.34669e-09
-9.1406e-09
-8.69023e-08
4.55029e-09
-7.93134e-09
-8.4229e-08
3.87976e-09
-6.45802e-09
-8.0468e-08
3.30181e-09
-4.85711e-09
-7.52948e-08
2.77639e-09
-3.26138e-09
-6.81847e-08
2.31168e-09
-1.79587e-09
-5.82389e-08
1.86505e-09
-6.20613e-10
-4.38029e-08
1.34799e-09
-2.13024e-08
6.28088e-10
4.27964e-10
-2.20462e-08
3.68584e-10
1.15405e-09
-4.53788e-08
7.74577e-10
2.08595e-09
-6.02886e-08
1.12002e-09
3.09737e-09
-7.06005e-08
1.39821e-09
4.08975e-09
-7.80136e-08
1.7184e-09
5.01861e-09
-8.34424e-08
2.08712e-09
5.79874e-09
-8.74469e-08
2.4791e-09
6.32862e-09
-9.04021e-08
2.87246e-09
6.61444e-09
-9.25994e-08
3.30108e-09
6.44829e-09
-9.39938e-08
3.9314e-09
5.78574e-09
-9.49354e-08
4.70655e-09
4.76007e-09
-9.57487e-08
5.41959e-09
3.41797e-09
-9.63428e-08
5.97751e-09
1.8141e-09
-9.64158e-08
6.36517e-09
5.84942e-11
-9.643e-08
6.58049e-09
-1.72409e-09
-9.62498e-08
6.56212e-09
-3.35836e-09
-9.60312e-08
6.34399e-09
-4.70713e-09
-9.59694e-08
5.94587e-09
-5.76066e-09
-9.5819e-08
5.40278e-09
-6.40852e-09
-9.48948e-08
4.68632e-09
-6.64992e-09
-9.37689e-08
3.92999e-09
-6.46163e-09
-9.22197e-08
3.22526e-09
-5.89111e-09
-9.01571e-08
2.68427e-09
-5.04819e-09
-8.73855e-08
2.31365e-09
-4.07519e-09
-8.34609e-08
2.01997e-09
-3.05301e-09
-7.80508e-08
1.73384e-09
-2.0443e-09
-7.06435e-08
1.45013e-09
-1.12236e-09
-6.03299e-08
1.16914e-09
-3.88237e-10
-4.53801e-08
8.43106e-10
-2.20831e-08
3.92524e-10
1.56572e-10
-2.23283e-08
1.25481e-10
4.01836e-10
-4.58927e-08
2.68521e-10
7.306e-10
-6.10182e-08
4.00695e-10
1.09176e-09
-7.14621e-08
5.00416e-10
1.4566e-09
-7.89787e-08
6.00346e-10
1.8262e-09
-8.44958e-08
6.83884e-10
2.16985e-09
-8.85475e-08
7.57024e-10
2.37528e-09
-9.1483e-08
8.75416e-10
2.40473e-09
-9.36893e-08
1.06043e-09
2.27603e-09
-9.5189e-08
1.32386e-09
2.07065e-09
-9.633e-08
1.59994e-09
1.76898e-09
-9.72808e-08
1.83382e-09
1.20152e-09
-9.77681e-08
1.99276e-09
5.99101e-10
-9.79189e-08
2.10556e-09
3.52397e-11
-9.80845e-08
2.21837e-09
-5.92288e-10
-9.79361e-08
2.31377e-09
-1.17943e-09
-9.7753e-08
2.30882e-09
-1.64371e-09
-9.76624e-08
2.15731e-09
-2.00931e-09
-9.74097e-08
1.95636e-09
-2.2354e-09
-9.63786e-08
1.70991e-09
-2.32732e-09
-9.51265e-08
1.4496e-09
-2.27016e-09
-9.34751e-08
1.19824e-09
-2.07125e-09
-9.1349e-08
9.93001e-10
-1.77268e-09
-8.85209e-08
8.36865e-10
-1.42557e-09
-8.45151e-08
7.07106e-10
-1.0624e-09
-7.90044e-08
5.90583e-10
-7.05547e-10
-7.14887e-08
4.88459e-10
-3.82993e-10
-6.10454e-08
3.93041e-10
-1.3175e-10
-4.59119e-08
2.80593e-10
-2.23499e-08
1.35083e-10
-1.09866e-10
-2.20977e-08
-1.20811e-10
-3.41273e-10
-4.54176e-08
-2.43722e-10
-6.25682e-10
-6.04016e-08
-3.32279e-10
-9.36679e-10
-7.07373e-08
-4.13809e-10
-1.25728e-09
-7.81685e-08
-4.89543e-10
-1.57954e-09
-8.36301e-08
-5.43342e-10
-1.88048e-09
-8.76629e-08
-5.83578e-10
-2.07151e-09
-9.06289e-08
-6.63083e-10
-2.0751e-09
-9.28374e-08
-8.48396e-10
-1.93501e-09
-9.4203e-08
-1.12612e-09
-1.75389e-09
-9.51209e-08
-1.39016e-09
-1.59764e-09
-9.58703e-08
-1.56677e-09
-1.35007e-09
-9.63344e-08
-1.68115e-09
-8.32377e-10
-9.66355e-08
-1.80103e-09
-7.699e-11
-9.68558e-08
-1.98417e-09
5.4299e-10
-9.65011e-08
-2.05519e-09
1.07653e-09
-9.63144e-08
-1.97227e-09
1.55619e-09
-9.63003e-08
-1.84187e-09
1.82004e-09
-9.59993e-08
-1.67419e-09
1.98949e-09
-9.50706e-08
-1.47726e-09
2.07372e-09
-9.39533e-08
-1.25739e-09
2.02771e-09
-9.23971e-08
-1.03191e-09
1.86886e-09
-9.03349e-08
-8.55275e-10
1.60226e-09
-8.75263e-08
-7.28007e-10
1.29338e-09
-8.35757e-08
-6.30495e-10
9.73027e-10
-7.8146e-08
-5.38059e-10
6.53095e-10
-7.07228e-08
-4.45887e-10
3.63097e-10
-6.0402e-08
-3.53404e-10
1.30869e-10
-4.54341e-08
-2.4554e-10
-2.21047e-08
-1.14417e-10
-3.73565e-10
-2.13472e-08
-3.77032e-10
-1.08494e-09
-4.38999e-08
-8.06545e-10
-1.97254e-09
-5.83942e-08
-1.11982e-09
-2.94421e-09
-6.83752e-08
-1.39047e-09
-3.92024e-09
-7.55195e-08
-1.67291e-09
-4.82483e-09
-8.07368e-08
-1.98857e-09
-5.5764e-09
-8.4569e-08
-2.34217e-09
-6.10867e-09
-8.73559e-08
-2.74074e-09
-6.35494e-09
-8.9403e-08
-3.18826e-09
-6.16498e-09
-9.06253e-08
-3.76787e-09
-5.53152e-09
-9.12611e-08
-4.49331e-09
-4.61914e-09
-9.16357e-08
-5.14681e-09
-3.3779e-09
-9.19263e-08
-5.64918e-09
-1.8168e-09
-9.21527e-08
-6.04381e-09
-3.03819e-11
-9.23423e-08
-6.30002e-09
1.69513e-09
-9.19503e-08
-6.27649e-09
3.31758e-09
-9.18775e-08
-6.05967e-09
4.73729e-09
-9.20521e-08
-5.66804e-09
5.58881e-09
-9.17231e-08
-5.12762e-09
6.14229e-09
-9.1112e-08
-4.51193e-09
6.38743e-09
-9.03943e-08
-3.80398e-09
6.2038e-09
-8.91482e-08
-3.0652e-09
5.67313e-09
-8.72252e-08
-2.57895e-09
4.86149e-09
-8.44593e-08
-2.25542e-09
3.92949e-09
-8.06789e-08
-1.96471e-09
2.96442e-09
-7.55067e-08
-1.67405e-09
1.99586e-09
-6.83752e-08
-1.379e-09
1.11589e-09
-5.84315e-08
-1.09048e-09
4.05494e-10
-4.3965e-08
-7.58636e-10
-2.13373e-08
-3.61887e-10
-6.11477e-10
-2.0123e-08
-6.12878e-10
-1.76217e-09
-4.14331e-08
-1.31622e-09
-3.19875e-09
-5.51307e-08
-1.82707e-09
-4.76401e-09
-6.45418e-08
-2.26809e-09
-6.32866e-09
-7.12262e-08
-2.72842e-09
-7.75737e-09
-7.60462e-08
-3.26157e-09
-8.92219e-09
-7.9528e-08
-3.87608e-09
-9.74708e-09
-8.19434e-08
-4.5877e-09
-1.01597e-08
-8.36005e-08
-5.39014e-09
-9.95681e-09
-8.46011e-08
-6.22731e-09
-8.99259e-09
-8.50352e-08
-7.19024e-09
-7.39146e-09
-8.50497e-08
-8.18697e-09
-5.29626e-09
-8.49908e-08
-9.03049e-09
-2.79889e-09
-8.50048e-08
-9.64517e-09
-3.44428e-11
-8.51302e-08
-9.97665e-09
2.716e-09
-8.47993e-08
-9.90185e-09
5.27781e-09
-8.48538e-08
-9.5858e-09
7.49621e-09
-8.52818e-08
-8.98874e-09
9.00471e-09
-8.51087e-08
-8.12281e-09
9.91654e-09
-8.48551e-08
-7.16851e-09
1.01924e-08
-8.44616e-08
-6.20836e-09
9.84283e-09
-8.35529e-08
-5.24567e-09
8.97934e-09
-8.19468e-08
-4.41492e-09
7.75529e-09
-7.95113e-08
-3.72389e-09
6.30591e-09
-7.60969e-08
-3.1325e-09
4.77024e-09
-7.13653e-08
-2.60568e-09
3.23548e-09
-6.46958e-08
-2.14447e-09
1.8173e-09
-5.53084e-08
-1.70487e-09
6.49401e-10
-4.15981e-08
-1.19911e-09
-2.01091e-08
-5.78819e-10
-8.16376e-10
-1.84962e-08
-8.10606e-10
-2.3312e-09
-3.81743e-08
-1.74421e-09
-4.22604e-09
-5.08028e-08
-2.43329e-09
-6.29372e-09
-5.94701e-08
-3.00413e-09
-8.37013e-09
-6.55631e-08
-3.58648e-09
-1.02934e-08
-6.98565e-08
-4.26622e-09
-1.18943e-08
-7.28432e-08
-5.08377e-09
-1.2976e-08
-7.48154e-08
-6.04646e-09
-1.34176e-08
-7.60374e-08
-7.12179e-09
-1.31033e-08
-7.66802e-08
-8.23552e-09
-1.19237e-08
-7.68721e-08
-9.34276e-09
-9.81306e-09
-7.66847e-08
-1.04755e-08
-6.9696e-09
-7.62869e-08
-1.1547e-08
-3.65091e-09
-7.59917e-08
-1.23316e-08
-2.80049e-11
-7.60057e-08
-1.27477e-08
3.58636e-09
-7.57709e-08
-1.26432e-08
6.93782e-09
-7.59555e-08
-1.22502e-08
9.82561e-09
-7.66132e-08
-1.15566e-08
1.18996e-08
-7.67629e-08
-1.04196e-08
1.30934e-08
-7.68392e-08
-9.20941e-09
1.344e-08
-7.66715e-08
-8.13654e-09
1.30199e-08
-7.60637e-08
-7.06908e-09
1.19372e-08
-7.48555e-08
-6.00868e-09
1.0354e-08
-7.28773e-08
-5.05077e-09
8.43508e-09
-6.99319e-08
-4.24609e-09
6.3712e-09
-6.57542e-08
-3.54711e-09
4.32678e-09
-5.97907e-08
-2.86062e-09
2.42004e-09
-5.11882e-08
-2.21345e-09
8.55335e-10
-3.84706e-08
-1.56276e-09
-1.84878e-08
-7.66005e-10
-9.75544e-10
-1.65554e-08
-9.65562e-10
-2.77763e-09
-3.43056e-08
-2.06701e-09
-5.05635e-09
-4.56357e-08
-2.88867e-09
-7.57e-09
-5.33779e-08
-3.57856e-09
-1.00776e-08
-5.87741e-08
-4.28125e-09
-1.23649e-08
-6.24933e-08
-5.0756e-09
-1.42364e-08
-6.49626e-08
-6.0089e-09
-1.54882e-08
-6.64726e-08
-7.0912e-09
-1.59562e-08
-6.72567e-08
-8.31323e-09
-1.55157e-08
-6.74982e-08
-9.62286e-09
-1.41046e-08
-6.73583e-08
-1.0925e-08
-1.1681e-08
-6.69798e-08
-1.21282e-08
-8.28278e-09
-6.64474e-08
-1.32373e-08
-4.29902e-09
-6.58522e-08
-1.41231e-08
-2.02813e-11
-6.56552e-08
-1.46295e-08
4.24319e-09
-6.54875e-08
-1.45474e-08
8.21462e-09
-6.58146e-08
-1.41129e-08
1.1609e-08
-6.66407e-08
-1.3367e-08
1.40646e-08
-6.7032e-08
-1.21863e-08
1.55112e-08
-6.73773e-08
-1.09082e-08
1.59678e-08
-6.75205e-08
-9.60738e-09
1.5508e-08
-6.72903e-08
-8.3135e-09
1.42609e-08
-6.6514e-08
-7.09461e-09
1.23992e-08
-6.50068e-08
-6.00897e-09
1.01064e-08
-6.25489e-08
-5.09012e-09
7.58129e-09
-5.88857e-08
-4.34342e-09
5.07108e-09
-5.36017e-08
-3.67878e-09
2.80559e-09
-4.59406e-08
-2.98215e-09
9.82822e-10
-3.45331e-08
-2.11488e-09
-1.65414e-08
-9.63688e-10
-1.08312e-09
-1.43741e-08
-1.09846e-09
-3.13202e-09
-2.98887e-08
-2.36843e-09
-5.69672e-09
-3.98112e-08
-3.26008e-09
-8.49822e-09
-4.65697e-08
-4.00682e-09
-1.1286e-08
-5.12268e-08
-4.75926e-09
-1.38236e-08
-5.43482e-08
-5.60725e-09
-1.58823e-08
-5.63094e-08
-6.59437e-09
-1.72467e-08
-5.73754e-08
-7.733e-09
-1.77323e-08
-5.77573e-08
-9.0143e-09
-1.72015e-08
-5.76372e-08
-1.03923e-08
-1.55813e-08
-5.71896e-08
-1.1789e-08
-1.28741e-08
-5.65878e-08
-1.30988e-08
-9.14242e-09
-5.59507e-08
-1.42278e-08
-4.71191e-09
-5.52379e-08
-1.50445e-08
-1.31873e-11
-5.48202e-08
-1.55339e-08
4.69525e-09
-5.47135e-08
-1.54831e-08
9.11153e-09
-5.51645e-08
-1.50669e-08
1.28242e-08
-5.60108e-08
-1.43428e-08
1.55503e-08
-5.66094e-08
-1.31484e-08
1.7188e-08
-5.72104e-08
-1.18042e-08
1.77329e-08
-5.76613e-08
-1.04039e-08
1.72563e-08
-5.77876e-08
-9.02609e-09
1.58982e-08
-5.74119e-08
-7.74403e-09
1.38449e-08
-5.63518e-08
-6.60181e-09
1.13083e-08
-5.43961e-08
-5.61629e-09
8.50282e-09
-5.12889e-08
-4.79122e-09
5.67204e-09
-4.66802e-08
-4.09061e-09
3.10159e-09
-3.99872e-08
-3.38301e-09
1.07606e-09
-3.00586e-08
-2.44915e-09
-1.43631e-08
-1.10246e-09
-1.13244e-09
-1.2061e-08
-1.18105e-09
-3.33493e-09
-2.51408e-08
-2.54592e-09
-6.07451e-09
-3.36066e-08
-3.46544e-09
-9.05026e-09
-3.93519e-08
-4.24213e-09
-1.20086e-08
-4.32483e-08
-5.01997e-09
-1.46937e-08
-4.57791e-08
-5.88369e-09
-1.68621e-08
-4.7263e-08
-6.87793e-09
-1.82861e-08
-4.7934e-08
-8.01767e-09
-1.87702e-08
-4.79849e-08
-9.28894e-09
-1.81718e-08
-4.75896e-08
-1.06464e-08
-1.64203e-08
-4.69155e-08
-1.20256e-08
-1.35187e-08
-4.61395e-08
-1.33493e-08
-9.61336e-09
-4.53646e-08
-1.44905e-08
-4.94798e-09
-4.46399e-08
-1.52629e-08
-6.51474e-12
-4.41296e-08
-1.56323e-08
4.94997e-09
-4.40859e-08
-1.55848e-08
9.59483e-09
-4.45943e-08
-1.52157e-08
1.34844e-08
-4.54e-08
-1.45005e-08
1.63895e-08
-4.61559e-08
-1.33582e-08
1.81532e-08
-4.69323e-08
-1.20413e-08
1.87638e-08
-4.76092e-08
-1.06624e-08
1.829e-08
-4.80106e-08
-9.30325e-09
1.68738e-08
-4.79651e-08
-8.03072e-09
1.47086e-08
-4.72991e-08
-6.88769e-09
1.20249e-08
-4.58202e-08
-5.89227e-09
9.06318e-09
-4.32951e-08
-5.03195e-09
6.06953e-09
-3.94134e-08
-4.27315e-09
3.32211e-09
-3.37144e-08
-3.52547e-09
1.14193e-09
-2.52934e-08
-2.58523e-09
-1.20456e-08
-1.17572e-09
-1.16838e-09
-9.69191e-09
-1.20127e-09
-3.41282e-09
-2.03245e-08
-2.57245e-09
-6.20606e-09
-2.72912e-08
-3.52269e-09
-9.24851e-09
-3.19996e-08
-4.31002e-09
-1.22735e-08
-3.51429e-08
-5.08028e-09
-1.50161e-08
-3.71127e-08
-5.9236e-09
-1.72229e-08
-3.81703e-08
-6.88581e-09
-1.86597e-08
-3.85174e-08
-7.98021e-09
-1.91285e-08
-3.83261e-08
-9.19062e-09
-1.84906e-08
-3.77513e-08
-1.04766e-08
-1.66685e-08
-3.69544e-08
-1.17831e-08
-1.36849e-08
-3.60815e-08
-1.30407e-08
-9.76115e-09
-3.52139e-08
-1.40734e-08
-5.09124e-09
-3.45306e-08
-1.47785e-08
-3.92982e-11
-3.40866e-08
-1.50951e-08
4.9884e-09
-3.40391e-08
-1.50751e-08
9.6385e-09
-3.4475e-08
-1.477e-08
1.36227e-08
-3.52596e-08
-1.41247e-08
1.66368e-08
-3.60977e-08
-1.30719e-08
1.84687e-08
-3.69628e-08
-1.18007e-08
1.91186e-08
-3.77651e-08
-1.04936e-08
1.86588e-08
-3.8345e-08
-9.20572e-09
1.7229e-08
-3.85422e-08
-7.99322e-09
1.5026e-08
-3.81988e-08
-6.89738e-09
1.22848e-08
-3.71446e-08
-5.93436e-09
9.2592e-09
-3.5179e-08
-5.09042e-09
6.21143e-09
-3.20409e-08
-4.32474e-09
3.40489e-09
-2.73491e-08
-3.55889e-09
1.15696e-09
-2.04195e-08
-2.62635e-09
-9.68436e-09
-1.20457e-09
-1.1583e-09
-7.3597e-09
-1.17456e-09
-3.35639e-09
-1.56151e-08
-2.51198e-09
-6.10769e-09
-2.10896e-08
-3.45084e-09
-9.11621e-09
-2.4779e-08
-4.2124e-09
-1.21138e-08
-2.71986e-08
-4.94672e-09
-1.48347e-08
-2.86495e-08
-5.74217e-09
-1.70204e-08
-2.93424e-08
-6.64235e-09
-1.84365e-08
-2.94428e-08
-7.65891e-09
-1.8889e-08
-2.90953e-08
-8.77884e-09
-1.8238e-08
-2.84393e-08
-9.96329e-09
-1.64177e-08
-2.76112e-08
-1.11632e-08
-1.34836e-08
-2.67269e-08
-1.22875e-08
-9.62299e-09
-2.58893e-08
-1.31838e-08
-5.04391e-09
-2.52656e-08
-1.38432e-08
-4.46912e-11
-2.4919e-08
-1.41668e-08
4.92386e-09
-2.48668e-08
-1.41415e-08
9.50744e-09
-2.52225e-08
-1.38366e-08
1.34186e-08
-2.59287e-08
-1.32422e-08
1.63853e-08
-2.67446e-08
-1.23192e-08
1.82137e-08
-2.76152e-08
-1.11753e-08
1.88736e-08
-2.84473e-08
-9.97727e-09
1.84323e-08
-2.91095e-08
-8.79421e-09
1.70229e-08
-2.94598e-08
-7.67303e-09
1.48408e-08
-2.93632e-08
-6.65358e-09
1.21221e-08
-2.86737e-08
-5.75225e-09
9.12554e-09
-2.72259e-08
-4.95659e-09
6.11431e-09
-2.48073e-08
-4.22238e-09
3.35598e-09
-2.11244e-08
-3.46651e-09
1.14493e-09
-1.56655e-08
-2.54323e-09
-7.36269e-09
-1.17705e-09
-1.09393e-09
-5.16673e-09
-1.0998e-09
-3.17194e-09
-1.11827e-08
-2.35525e-09
-5.78902e-09
-1.52372e-08
-3.23604e-09
-8.67019e-09
-1.79566e-08
-3.94169e-09
-1.15573e-08
-1.96976e-08
-4.61404e-09
-1.41888e-08
-2.06814e-08
-5.33654e-09
-1.63067e-08
-2.1071e-08
-6.15353e-09
-1.76809e-08
-2.09961e-08
-7.07279e-09
-1.81196e-08
-2.05752e-08
-8.08184e-09
-1.74884e-08
-1.992e-08
-9.15064e-09
-1.5724e-08
-1.91371e-08
-1.02378e-08
-1.29166e-08
-1.83221e-08
-1.12107e-08
-9.21038e-09
-1.75938e-08
-1.20002e-08
-4.82214e-09
-1.70565e-08
-1.25962e-08
-3.88235e-11
-1.67803e-08
-1.29219e-08
4.71773e-09
-1.67379e-08
-1.2886e-08
9.11271e-09
-1.70289e-08
-1.25892e-08
1.28568e-08
-1.76176e-08
-1.20552e-08
1.56922e-08
-1.83362e-08
-1.12431e-08
1.74626e-08
-1.91428e-08
-1.0242e-08
1.81029e-08
-1.99247e-08
-9.16223e-09
1.76738e-08
-2.05836e-08
-8.09662e-09
1.63074e-08
-2.10073e-08
-7.08608e-09
1.41931e-08
-2.10846e-08
-6.16446e-09
1.15637e-08
-2.06981e-08
-5.34631e-09
8.67524e-09
-1.97153e-08
-4.62211e-09
5.79321e-09
-1.79757e-08
-3.94968e-09
3.17491e-09
-1.52611e-08
-3.2452e-09
1.09113e-09
-1.1213e-08
-2.36915e-09
-5.17069e-09
-1.10123e-09
-9.7534e-10
-3.2161e-09
-9.76138e-10
-2.84851e-09
-7.21337e-09
-2.0971e-09
-5.24574e-09
-9.96884e-09
-2.87203e-09
-7.91602e-09
-1.18041e-08
-3.48289e-09
-1.06186e-08
-1.29316e-08
-4.06355e-09
-1.3102e-08
-1.3509e-08
-4.6891e-09
-1.51128e-08
-1.36586e-08
-5.40161e-09
-1.64265e-08
-1.3476e-08
-6.20651e-09
-1.68592e-08
-1.30493e-08
-7.09347e-09
-1.62816e-08
-1.24613e-08
-8.03613e-09
-1.46428e-08
-1.17887e-08
-8.98624e-09
-1.20305e-08
-1.1118e-08
-9.8147e-09
-8.57241e-09
-1.05316e-08
-1.05184e-08
-4.48075e-09
-1.01e-08
-1.10469e-08
-3.28516e-11
-9.87878e-09
-1.13492e-08
4.39294e-09
-9.85382e-09
-1.13105e-08
8.48386e-09
-1.0084e-08
-1.10365e-08
1.19642e-08
-1.05391e-08
-1.05589e-08
1.46032e-08
-1.11236e-08
-9.85104e-09
1.62554e-08
-1.17927e-08
-9.00132e-09
1.68419e-08
-1.24641e-08
-8.04642e-09
1.64187e-08
-1.30537e-08
-7.10624e-09
1.51116e-08
-1.34821e-08
-6.21811e-09
1.31039e-08
-1.36666e-08
-5.41044e-09
1.06219e-08
-1.35183e-08
-4.69788e-09
7.91883e-09
-1.29423e-08
-4.07006e-09
5.24964e-09
-1.18179e-08
-3.48869e-09
2.85465e-09
-9.99021e-09
-2.87613e-09
9.77206e-10
-7.23595e-09
-2.10004e-09
-3.21869e-09
-9.75177e-10
-7.97849e-10
-1.62309e-09
-7.96109e-10
-2.38185e-09
-3.91832e-09