/*--------------------------------*- C++ -*----------------------------------*\
| =========                 |                                                 |
| \\      /  F ield         | OpenFOAM: The Open Source CFD Toolbox           |
|  \\    /   O peration     | Version:  v1912                                 |
|   \\  /    A nd           | Website:  www.openfoam.com                      |
|    \\/     M anipulation  |                                                 |
\*---------------------------------------------------------------------------*/
FoamFile
{
    version     2.0;
    format      ascii;
    class       volScalarField;
    location    "522/oil";
    object      heatTransferCoeff(T);
}
// * * * * * * * * * * * * * * * * * * * * * * * * * * * * * * * * * * * * * //

dimensions      [1 0 -3 -1 0 0 0];


internalField   uniform 0;

boundaryField
{
    maxY
    {
        type            calculated;
        value           uniform 0;
    }
    minX
    {
        type            calculated;
        value           uniform 0;
    }
    maxX
    {
        type            calculated;
        value           uniform 0;
    }
    minY
    {
        type            calculated;
        value           uniform 0;
    }
    minZ
    {
        type            calculated;
        value           uniform 0;
    }
    maxZ
    {
        type            calculated;
        value           uniform 0;
    }
    oil_to_sphere
    {
        type            calculated;
        value           nonuniform List<scalar> 
1536
(
-10.7844
-5.52462
-5.38903
4.15813
4.3712
-5.28516
-1.02823
-2.80315
-2.17313
3.31221
7.18369
2.5853
-2.08218
2.39773
8.39625
-0.46534
-5.29322
-5.64274
-0.187406
-1.80464
-4.02376
-2.26204
-2.62501
-0.408535
-0.918243
-0.662566
-0.907425
0.23321
-4.96446
-2.42192
-6.54058
-5.56514
-5.74192
-0.528942
-0.835026
0.181837
-0.309626
1.23439
0.270743
-0.883541
0.481491
-0.27907
-1.99254
-3.06042
-4.34889
-0.81784
-3.88372
-2.51853
7.97864
-0.628403
-3.53149
-2.24389
-2.4187
-0.410112
-4.79478
-8.38662
-2.57056
-1.8153
-3.93416
-3.45617
-1.85641
-2.02791
-1.74924
-0.26888
-0.776886
-1.62715
-1.79222
-3.64759
-3.61262
-4.77813
-0.243163
4.41247
2.70349
-0.675031
-0.65531
-8.73619
-5.81176
1.20772
-0.476881
-5.45507
-4.09446
-3.30955
4.10256
4.23692
-4.93868
-9.75968
5.47674
-1.34739
-3.45837
-3.43511
-2.15371
0.00541462
0.0962084
-0.143732
-0.644497
-3.018
-3.96375
-4.32866
-6.1975
-3.31422
-4.12821
-0.169277
-10.8602
-3.57152
2.93379
-0.551085
-0.987396
3.79061
3.84686
-10.9862
-5.75999
-2.76871
-1.98884
-2.63091
4.85678
4.36237
5.89765
-7.42049
-10.2886
-6.04551
-2.39968
-2.6315
0.330648
-3.90335
-6.48629
-3.02954
-2.37126
0.676299
-4.22711
-3.92588
-1.64706
-3.71253
-4.7282
-1.04818
-1.3695
-5.04833
-2.66175
-5.49414
0.58006
-5.34686
-2.22527
-3.86315
-3.91787
-2.06583
-1.46305
-1.94826
-3.12825
-7.13933
-1.33171
-11.0821
-4.57241
-5.26964
-2.5709
-2.85786
-0.691397
-3.00748
-5.02432
-3.75073
-11.9277
-6.11033
-5.74705
-7.37712
1.97697
1.14515
-0.0647958
0.017437
-4.74021
-6.93575
-6.21065
-8.37232
0.264357
-0.0609683
1.16395
-3.96942
-2.33627
-2.83505
-9.3064
1.79402
3.06378
-9.76706
0.116352
1.06199
1.26987
0.772182
-3.37089
-9.76706
-6.14536
0.509022
2.189
-5.55454
1.85377
-4.64917
-4.66759
-7.00373
2.64634
9.55112
-6.79982
-7.52971
-0.870787
-0.627058
-2.26145
-1.0957
-5.62983
-6.73598
-4.43423
-3.32171
-0.0803466
-7.14374
-6.22946
-2.71885
0.676913
-0.775415
-0.562228
-1.13494
-4.05688
-8.54421
2.27539
2.48411
2.3197
10.2751
-5.25916
-4.00372
-3.27129
-2.20845
-2.42952
-7.14346
-4.60857
-0.651117
-5.28495
3.27945
0.16726
9.32392
-2.05407
-4.89915
-6.82582
-6.27281
-5.29533
-4.19634
-6.03412
2.69734
1.93917
1.37714
-7.65726
0.954805
9.44311
5.69733
-4.05273
-1.76616
-9.36931
-11.695
-2.71776
4.25922
10.1244
-3.43822
-6.02881
-0.158048
-0.318624
5.08202
0.0357832
-7.13202
-9.95692
-1.72689
-0.299744
-8.13239
-6.16154
-0.733308
2.84973
-1.3357
-8.71352
-7.46499
-4.20818
-4.68207
-6.60699
1.28098
-0.529786
-6.87964
-4.67312
-5.36382
-1.98631
-5.28863
-8.39764
-4.37145
-3.94316
-7.84139
-0.182982
-0.12415
-0.566863
0.261507
-0.037529
-7.07466
-8.88673
2.75742
-1.21725
-0.936073
-1.12809
0.522122
-2.42652
-1.92449
1.0703
5.01987
0.0955702
2.52709
0.543456
-9.77648
-7.96546
-7.86185
-11.169
1.60272
1.22242
-2.18052
-11.1084
-9.85648
0.17133
-2.0193
0.442873
-4.57298
-0.399557
-3.91139
-4.34786
-5.81498
-4.8329
-0.819293
-5.00832
0.147825
-6.63442
-7.31092
-5.47465
-5.04144
0.91068
-9.01925
-8.75706
-4.40736
2.76362
-0.125026
-1.04246
-4.36711
-3.85125
-4.64252
1.0819
-6.54784
-6.58483
-5.87781
-7.83068
-3.69296
-3.02788
-1.79821
1.95571
-3.04288
-4.46103
1.99709
2.369
1.439
-10.5181
-6.42528
-7.82542
-3.81277
-2.9313
-6.92741
2.24169
-9.38137
-5.81944
-3.05119
-2.93338
2.58681
-5.73588
-6.30845
0.722604
-3.06624
-1.68601
-0.312083
-4.5814
-6.46046
-1.98718
-0.688727
1.57587
-8.55752
-6.67421
2.42107
-6.97402
-6.22583
-5.25811
-8.54738
-2.985
-4.85662
3.45616
2.5924
-4.32191
-10.9799
-5.48757
-9.305
-3.72544
-1.00145
-6.16778
1.48599
0.485056
-3.84694
-6.36488
-4.65889
-3.87352
1.27299
1.21479
-6.89865
-6.5053
-6.68737
-2.85007
0.0289171
-4.00968
-5.05399
-6.31204
-3.15728
-1.34267
0.921239
-2.70133
1.74422
3.77692
-0.113771
0.861908
-2.79019
3.26227
-1.06892
-8.99022
-0.948499
-0.884125
-6.29951
-6.2446
-4.48976
-1.70467
2.04566
-5.43588
-7.89992
-4.22295
-3.2077
-5.65259
-2.03105
-2.59479
-3.7181
4.1594
-4.09757
-6.60025
-7.76903
-6.10327
-4.91561
-4.71104
-3.21106
-1.45996
1.47706
-2.35895
0.899581
2.57025
0.41983
3.79556
-9.93601
-9.21447
-7.35163
-10.6337
1.72495
-10.0123
1.11845
0.0861321
-5.2646
2.12291
1.28369
-1.13251
-0.974289
-9.39405
-7.91418
-3.73732
-4.10158
-8.46309
-6.92925
-3.1579
-5.01005
0.590091
-6.38025
2.76176
-7.70749
4.2054
-4.74478
-5.39989
-6.09409
-0.788604
1.50865
-1.60748
-6.2612
-1.8538
3.14249
-6.32105
-6.74965
-7.30475
-11.4372
-3.03848
-8.31579
1.64918
0.989838
7.75776
5.67058
-3.14753
-1.12566
-0.439069
0.417126
-10.3867
1.34952
2.21145
2.93839
-1.07497
3.39516
-11.8524
0.662565
0.270823
-2.38277
7.05378
5.17231
-0.15328
-0.014974
-2.0029
-0.674251
-6.71525
-6.07674
-4.73646
-3.10389
3.63931
-0.410188
-5.8658
1.48693
0.699231
-5.4516
-8.62544
0.626696
7.83667
1.94758
7.20819
-2.28265
-0.806501
0.25323
2.81394
7.05372
-4.58005
-5.32681
-3.89145
-2.17368
-8.75067
-4.75248
-4.39535
-2.93746
0.948869
-0.602603
-6.68975
-4.73958
-1.27827
5.86842
-3.30145
-5.5972
-9.05323
-3.47805
-0.0407573
-9.11609
-2.33575
-8.38862
0.637143
-0.838251
1.32042
-0.948194
-3.40251
-8.64956
1.84395
0.277666
0.975274
-1.05534
-12.0308
2.85899
-0.526783
2.28563
-2.37043
-3.37593
-6.73006
-8.7753
3.7461
2.72964
-8.68441
-9.29398
4.65782
-8.31546
-6.99786
-5.46968
-6.79805
-4.3789
-2.69223
-2.99291
-8.50395
-3.12398
-4.48875
-2.68262
-6.33421
-3.49385
-2.28932
-1.92561
1.9447
-5.46267
-2.10537
-6.24044
-4.88149
-4.98688
-4.71751
-3.1611
2.60231
-6.83915
-6.792
-4.54854
-2.23233
-3.60757
-10.8166
3.52126
0.726681
1.7393
-3.21619
0.634708
-10.8778
-0.955018
-1.48856
-2.48647
7.65871
6.76987
-0.314601
-0.210384
-2.99167
1.31684
0.365886
-3.35125
0.298619
-8.82438
2.08106
-10.5611
-0.771356
-3.07757
9.51134
6.97501
7.82783
0.252469
-5.48256
-0.493203
0.235928
7.13181
-2.79083
-5.71412
-2.89339
-13.2438
0.634733
-6.70224
-4.34651
-5.68332
-7.14306
-6.90926
-5.60844
-2.38803
-1.3324
-2.33881
-5.67751
-1.70521
-3.96193
-3.3951
-3.85215
-6.12502
-4.74442
-5.4318
2.07313
0.871956
9.69696
5.01067
3.90865
12.7648
-0.126712
-0.6862
-1.71956
-2.26864
3.78385
1.84972
-1.26191
-7.49344
-6.87105
-1.16174
3.01199
-2.05935
-5.9586
-4.4373
-2.55049
3.39698
0.637232
-4.62552
-3.58804
-2.4539
-0.294579
-5.11436
-5.18673
-8.5457
-5.27201
-3.24682
-0.681806
0.447193
2.02621
0.0709704
-1.74497
-11.1646
-3.15498
-9.7421
0.729678
-11.5721
-0.146073
-1.90361
1.67347
1.16747
-0.733421
2.18171
-1.60945
3.30114
-0.382581
-6.58818
-1.05657
2.48178
-8.88755
-4.94837
-4.05919
-2.09499
-8.27684
-14.0058
4.9261
-4.81024
-3.69553
-4.47044
2.21528
-2.18956
0.474492
-3.78332
-5.24944
-6.97331
1.00727
-4.58916
-2.88994
-5.19015
-4.86187
-4.36301
-1.16689
-1.78723
-0.4353
3.09185
3.65988
1.3933
-8.11196
-0.401077
2.25148
-0.550318
-6.73722
-1.55383
-8.05386
-6.03783
-4.19445
-3.23338
-4.08138
-9.17962
1.38111
-4.73016
-6.99794
-7.57362
-3.12563
0.511065
-1.41005
-4.09349
-7.72333
1.75564
-1.84842
-2.95852
-6.60987
-4.13727
-3.99586
-8.2472
1.65444
0.293278
0.96288
-9.19925
-6.90487
-3.0347
-6.56118
0.229398
-0.366726
-6.54264
-3.94143
-8.59164
1.13804
-5.7352
-6.35677
-3.39504
-3.82375
-5.43124
1.06582
3.94764
-2.64111
-3.97928
-9.32459
-1.98255
-0.0279358
-2.33811
-4.15605
-5.64636
-3.248
0.402711
-2.02792
-6.32571
1.72801
0.363724
-2.04253
-0.309627
-3.67785
-3.21107
-7.46139
-4.43064
-6.08441
-0.516873
-2.37214
-3.66892
-2.20877
-1.41031
-0.668068
-0.606794
1.54585
-5.04542
-3.53476
-3.55049
-4.21502
2.73037
-0.970622
-8.99657
-9.13063
0.387188
-6.6742
-4.13166
-5.02184
-0.516641
-7.6309
-7.28642
1.24155
-1.55036
-0.888204
-0.665348
2.93872
1.82389
-0.890541
-7.14803
-10.7793
-0.050385
-5.38289
-5.02396
-4.03098
-1.71392
-3.70676
-7.41843
-3.46378
1.08496
-1.00865
-0.547811
-0.748398
-4.47206
-4.95282
-5.0694
-5.33535
-5.2799
0.369954
-5.6105
-1.13263
-4.74639
7.05972
-4.23265
-7.97162
-1.38941
4.93375
-2.49831
-1.77279
-9.75438
0.876762
-5.61712
-2.28745
4.03054
-8.78718
2.50202
-1.85941
-2.72086
2.79613
-6.6758
-3.77174
-1.70302
-2.97002
-3.73399
-1.86225
-10.0593
2.38179
-0.788748
8.45132
-1.08415
-1.43088
-2.89372
-6.62981
-14.3315
3.26674
-0.832456
-12.6239
2.46787
-5.21549
0.513578
-5.0091
5.39246
0.866459
-12.4472
4.3712
-11.2239
3.51261
-9.47282
3.98587
0.940594
7.92224
2.3933
-11.711
6.5012
-2.17107
4.40175
-8.22128
-11.7826
6.22417
-1.38152
-0.179539
1.06745
1.23112
-0.932879
-2.77782
-2.75067
-4.87742
-2.34949
-8.40456
-13.0557
6.3446
-2.6678
-4.24519
-2.77487
-3.3891
-2.07803
-1.38481
-2.0595
-5.92077
-2.17755
-6.0316
-0.713305
-3.51478
-7.96873
-1.3561
-4.68258
-6.77336
-0.696195
-3.51445
-2.30263
-4.80998
-1.8845
-3.0851
-1.48831
-6.51383
-1.04079
-4.01103
3.58199
-8.61727
5.97143
-3.91333
-6.27806
-8.88381
0.752417
-3.29164
-2.36941
-3.2984
-2.86429
-2.16325
-5.83561
1.36102
9.71459
-1.30715
4.87219
-6.92231
0.659978
-2.63038
-5.04615
9.04585
-7.58047
1.6072
7.36949
1.05852
-5.25771
-4.93148
-2.83418
6.3957
-2.73447
-3.49337
-4.47838e-05
0.620522
-7.0848
-6.36426
-0.414472
-2.97995
-7.11577
6.27765
-5.78694
0.733879
-4.68982
5.78912
-10.7098
-10.361
-6.36711
-2.72631
-1.37683
-5.06137
-1.16909
6.47167
1.74115
-5.4227
0.497203
-4.28089
4.96864
-6.78635
-4.64396
11.5757
-2.76351
-3.77692
8.69968
-7.74658
3.70912
-7.00974
-8.69145
-5.72029
7.17436
-3.05021
-1.5964
-2.8262
-3.1578
-4.34046
6.18904
-0.596
0.361627
0.338904
-6.63361
-2.54534
-3.80622
-4.94643
-4.67878
-1.52388
-3.22973
-1.77482
-3.97095
-7.23493
-0.409435
-1.30163
-0.140531
-3.08523
-6.22366
-0.34294
-1.17689
-0.767887
-2.61819
0.397278
0.021964
-1.13177
-1.48726
-3.14071
-0.959086
-8.59271
-5.82782
4.5439
4.44095
-7.77734
12.7292
-5.54587
-3.45625
0.424356
-1.49581
-7.957
9.06922
-6.93227
-3.81935
6.78751
-0.823872
0.0321104
-2.55778
9.55909
-7.79022
-3.94248
8.88707
-7.40671
-7.45975
5.54058
-8.93433
-6.34103
5.41293
-0.0986307
0.382813
8.95894
-2.74503
-3.27848
1.70612
0.729832
1.19611
11.2674
0.83484
9.47271
11.8974
-6.55844
-0.142999
-11.7309
-0.372702
6.24728
-7.88839
-1.74332
7.96863
-0.390628
-0.150007
8.08207
4.42308
-7.44263
14.2621
1.7037
2.66552
12.7864
-6.90774
-6.00824
-2.70811
-1.07785
-0.0551757
1.65792
10.291
-2.86191
-1.16747
-1.3759
-2.72333
7.34507
-5.27008
-0.428914
-2.16226
0.00333302
-2.00036
-3.11157
1.96666
6.92028
-0.908817
-3.24663
-0.33227
-1.05754
-2.3026
0.749495
-1.26988
7.58349
-0.404743
-3.75008
-0.0703027
-1.5338
0.609121
6.76844
-7.92101
-7.72649
-7.36332
-8.90347
5.59203
8.6261
-0.484413
-5.49175
-3.2572
-5.16381
-5.90626
1.68683
2.69483
8.50732
6.26086
0.768804
-2.22924
-1.92898
-1.71485
2.68672
-6.63655
-3.87219
5.31214
0.949385
1.89036
-5.80773
0.648036
10.3489
-2.12858
-2.50432
-6.88376
7.75105
-0.032568
-3.11415
-0.703205
-1.51715
-4.98389
-2.10874
1.55163
-9.43186
11.9859
3.54227
-1.58483
0.706731
-0.947478
-8.84953
-4.0336
-2.52851
3.29006
-8.01862
-0.590071
-3.09599
-5.8961
-6.8813
-6.49952
-6.84842
-8.48632
-9.56619
-8.30456
-8.32178
-2.54593
-6.12162
-0.396258
-1.49333
2.84757
4.06761
11.1184
-9.05139
-8.74072
-7.34079
-1.28361
-3.13965
-2.82018
0.549189
-3.3945
-6.05215
1.39872
-1.76497
-4.75643
-0.0656228
-0.503922
-0.267031
-1.21716
0.776967
-1.06762
-0.664012
5.75948
-3.07078
1.32726
-1.72964
8.0728
-8.98904
-1.94173
0.22338
0.9596
5.21227
-2.46534
0.0925003
8.88256
3.46536
-1.8302
4.25968
3.03955
-9.79208
-10.3163
-0.705137
-0.752159
-5.38158
-8.78057
9.00242
0.665641
0.786461
-0.978156
-0.940371
-1.34463
-2.0591
2.79699
6.60002
-7.73291
-0.825128
3.75928
2.88833
-0.710539
-2.61744
5.12844
-1.39235
0.589417
-0.394879
-8.86796
3.61747
6.43728
-0.922655
-0.0352159
0.802737
6.47717
-6.90465
-0.625273
-0.435037
-0.668523
8.8154
-0.680732
-0.928298
6.2504
-0.557793
3.48986
-3.90371
-7.62594
0.577865
-6.1279
-3.69995
0.390602
0.211787
-1.08635
6.46931
-3.56733
-4.23159
-0.208991
7.76778
2.01041
-1.59552
-1.93898
0.490899
6.98168
0.299458
-6.90095
-3.69071
0.204869
-9.64617
3.57507
-5.80234
8.62034
3.84683
-6.2012
8.8206
-6.565
0.304658
-2.59528
-0.409952
-10.1477
2.47072
-2.71718
-8.89652
-7.96494
4.63718
-7.6444
-8.87646
12.4685
-1.35723
-0.000110413
8.33168
-4.14807
0.10638
-0.448949
-0.465804
-2.13347
-1.38892
-0.219137
0.202446
8.63481
-4.15443
-2.5711
-2.31067
-3.07629
-1.28388
0.409966
1.94361
-5.22095
10.0772
0.911061
1.23077
9.66094
-6.31902
-9.35394
-1.77316
-7.32464
-7.9758
0.596439
0.553464
-4.11394
-7.27256
0.786641
-4.7069
2.91681
8.32955
-5.37568
1.33379
-6.88745
-9.59496
-8.72228
7.75407
-5.92451
-2.69799
1.59164
-0.167576
-0.956623
0.0612587
7.5586
-7.16521
7.22484
-6.98801
-1.21081
2.91683
3.87636
-1.24302
-4.91259
-8.32571
-2.41561
-11.1536
-5.50611
-6.62296
9.07356
-6.07117
-5.13514
-6.90221
0.636637
1.46517
10.1561
-1.86989
-10.7532
-7.35382
6.70953
2.57142
7.36616
0.641834
-2.07737
3.03615
-13.4896
-0.467724
2.53513
6.4629
-3.62193
1.36375
9.41084
-1.47552
0.170742
0.000143564
-0.162712
-0.236608
6.36897
2.92234
8.26573
0.134303
-5.43879
-3.94224
-7.63087
-6.88047
0.900476
1.91709
8.69993
0.326812
-4.89913
-8.15407
-5.4854
-5.8308
3.72145
9.77671
2.38331
10.505
-5.34059
-5.7221
1.91155
-6.49407
-5.21117
-7.67541
-3.31216
-2.6092
-2.46558
0.900736
8.86951
2.18852
7.82095
3.26526
-0.169253
0.495971
5.72762
7.82486
-4.63536
-10.8097
-9.63708
-8.72402
-2.33727
-4.47749
-4.28081
-1.84538
-0.136147
-1.85979
1.60488
-1.18246
-1.22856
7.76491
-5.16778
-0.802724
2.54462
5.91195
0.266671
-2.22408
-2.16814
0.478105
5.86283
-8.3977
-3.56863
0.0477872
-9.52936
1.41659
8.1929
-3.9085
-1.19763
-1.26201
-1.26699
0.337415
10.1279
-1.17345
-1.12317
7.14644
-8.02588
-0.620643
14.2414
-0.147765
-2.00931
-2.35171
0.366296
7.58387
1.1011
0.838837
4.06357
-1.50112
8.63875
-1.73106
-1.4322
4.49627
-9.35573
-1.09484
6.25947
-10.4074
-1.89584
-1.88959
5.99506
-1.43485
7.26656
)
;
    }
}


// ************************************************************************* //
