/*--------------------------------*- C++ -*----------------------------------*\
| =========                 |                                                 |
| \\      /  F ield         | OpenFOAM: The Open Source CFD Toolbox           |
|  \\    /   O peration     | Version:  v1912                                 |
|   \\  /    A nd           | Website:  www.openfoam.com                      |
|    \\/     M anipulation  |                                                 |
\*---------------------------------------------------------------------------*/
FoamFile
{
    version     2.0;
    format      ascii;
    class       volScalarField;
    location    "522/oil";
    object      wallHeatFlux;
}
// * * * * * * * * * * * * * * * * * * * * * * * * * * * * * * * * * * * * * //

dimensions      [1 0 -3 0 0 0 0];


internalField   uniform 0;

boundaryField
{
    maxY
    {
        type            calculated;
        value           uniform 0;
    }
    minX
    {
        type            calculated;
        value           uniform 0;
    }
    maxX
    {
        type            calculated;
        value           uniform 0;
    }
    minY
    {
        type            calculated;
        value           uniform 0;
    }
    minZ
    {
        type            calculated;
        value           uniform 0;
    }
    maxZ
    {
        type            calculated;
        value           uniform 0;
    }
    oil_to_sphere
    {
        type            calculated;
        value           nonuniform List<scalar> 
1536
(
580.77
297.518
290.216
-223.934
-235.41
284.623
55.3739
150.96
117.031
-178.377
-386.881
-139.23
112.132
-129.127
-452.184
25.0603
285.06
303.882
10.0926
97.1862
216.692
121.82
141.367
22.0013
49.4511
35.6819
48.8686
-12.5593
267.351
130.428
352.229
299.699
309.219
28.4857
44.9695
-9.79264
16.6746
-66.4768
-14.5806
47.5821
-25.9303
15.0291
107.305
164.814
234.202
44.0435
209.153
135.633
-429.689
33.8418
190.182
120.841
130.256
22.0863
258.214
451.643
138.433
97.7598
211.868
186.128
99.9744
109.211
94.2034
14.4803
41.8383
87.628
96.518
196.434
194.551
257.316
13.0955
-237.63
-145.594
36.3529
35.2915
470.467
312.98
-65.0404
25.6818
293.776
220.502
178.232
-220.942
-228.178
265.964
525.585
-294.948
72.5617
186.244
184.993
115.985
-0.291601
-5.18123
7.74054
34.7086
162.53
213.462
233.111
333.753
178.481
222.317
9.11637
584.845
192.337
-157.996
29.678
53.1758
-204.14
-207.17
591.633
310.192
149.104
107.107
141.684
-261.561
-234.933
-317.618
399.614
554.069
325.568
129.231
141.715
-17.8068
210.208
349.307
163.152
127.701
-36.4214
227.645
211.423
88.7008
199.932
254.628
56.4483
73.7527
271.871
143.345
295.877
-31.2384
287.945
119.839
208.044
210.991
111.252
78.7908
104.921
168.467
384.476
71.7181
596.802
246.239
283.788
138.452
153.906
37.2343
161.964
270.576
201.99
642.335
329.062
309.499
397.285
-106.468
-61.671
3.48951
-0.939054
255.276
373.512
334.464
450.876
-14.2366
3.28337
-62.6832
213.766
125.816
152.677
501.179
-96.616
-164.999
525.987
-6.26603
-57.1929
-68.3876
-41.5852
181.536
525.985
330.95
-27.4128
-117.887
299.129
-99.8324
250.372
251.363
377.169
-142.518
-514.379
366.19
405.497
46.8951
33.7693
121.787
59.0072
303.185
362.753
238.797
178.886
4.32699
384.713
335.477
146.42
-36.4544
41.7591
30.2782
61.1207
218.478
460.134
-122.539
-133.781
-124.926
-553.365
283.221
215.612
176.169
118.932
130.838
384.7
248.19
35.0654
284.615
-176.615
-9.00771
-502.148
110.618
263.834
367.592
337.813
285.171
225.988
324.958
-145.262
-104.432
-74.1651
412.368
-51.4203
-508.562
-306.825
218.253
95.1138
504.561
629.803
146.36
-229.38
-545.256
185.159
324.67
8.51145
17.159
-273.691
-1.92708
384.085
536.214
93
16.1425
437.955
331.822
39.4915
-153.471
71.9332
469.248
402.011
226.624
252.144
355.807
-68.9855
28.5309
370.489
251.662
288.859
106.97
284.81
452.24
235.417
212.353
422.284
9.85425
6.6859
30.5276
-14.0832
2.02109
380.995
478.582
-148.501
65.5538
50.4112
60.7516
-28.1183
130.677
103.64
-57.6395
-270.34
-5.14679
-136.094
-29.2671
526.487
428.961
423.385
601.485
-86.3135
-65.8325
117.43
598.219
530.804
-9.22677
108.746
-23.8504
246.27
21.5177
210.642
234.146
313.155
260.266
44.1219
269.714
-7.96091
357.283
393.713
294.826
271.498
-49.0434
485.71
471.591
237.35
-148.832
6.73307
56.14
235.183
207.401
250.013
-58.2645
352.62
354.613
316.537
421.702
198.877
163.061
96.8397
-105.322
163.869
240.241
-107.551
-127.579
-77.495
566.423
346.023
421.422
205.331
157.861
373.063
-120.725
505.214
313.396
164.317
157.973
-139.311
308.897
339.729
-38.9148
165.127
90.7977
16.8067
246.722
347.914
107.016
37.0903
-84.8663
460.845
359.425
-130.385
375.574
335.282
283.167
460.303
160.753
261.546
-186.13
-139.612
232.751
591.303
295.525
501.102
200.628
53.9317
332.156
-80.0269
-26.1222
207.172
342.768
250.895
208.601
-68.5554
-65.4211
371.511
350.329
360.133
153.485
-1.55729
215.934
272.172
339.921
170.029
72.3076
-49.6127
145.477
-93.9342
-203.405
6.12702
-46.4174
150.262
-175.687
57.5654
484.15
51.0804
47.6134
339.248
336.292
241.788
91.8026
-110.167
292.74
425.435
227.42
172.746
304.409
109.379
139.738
200.232
-224.002
220.669
355.445
418.387
328.68
264.722
253.704
172.926
78.6244
-79.5455
127.038
-48.4458
-138.418
-22.6094
-204.406
535.078
496.223
395.907
572.653
-92.8956
539.188
-60.2327
-4.63855
283.516
-114.327
-69.1316
60.9897
52.4687
505.895
426.203
201.267
220.884
455.762
373.162
170.063
269.808
-31.7787
343.597
-148.732
415.073
-226.477
255.52
290.8
328.183
42.469
-81.2459
86.5682
337.183
99.833
-169.235
340.406
363.487
393.389
615.931
163.635
447.834
-88.816
-53.3073
-417.791
-305.385
169.505
60.6206
23.6454
-22.4638
559.357
-72.6784
-119.097
-158.247
57.8922
-182.846
638.291
-35.6817
-14.5848
128.32
-379.877
-278.551
8.25468
0.806406
107.863
36.311
361.638
327.253
255.074
167.156
-195.993
22.0904
315.895
-80.0781
-37.6564
293.587
464.507
-33.7503
-422.046
-104.886
-388.199
122.93
43.4331
-13.6374
-151.543
-379.877
246.65
286.865
209.566
117.06
471.247
255.936
236.703
158.192
-51.1
32.4523
360.262
255.241
68.8392
-316.04
177.794
301.427
487.542
187.305
2.19495
490.93
125.789
451.754
-34.3128
45.1432
-71.1105
51.064
183.237
465.805
-99.3046
-14.9534
-52.5225
56.8344
647.888
-153.969
28.3692
-123.091
127.656
181.804
362.433
472.575
-201.743
-147.003
467.681
500.507
-250.844
447.813
376.858
294.56
366.096
235.818
144.986
161.179
457.964
168.237
241.734
144.469
341.118
188.156
123.287
103.701
-104.729
294.181
113.381
336.066
262.883
268.558
254.051
170.235
-140.144
368.307
365.767
244.952
120.218
194.279
582.508
-189.637
-39.1351
-93.6694
173.206
-34.1819
585.806
51.4312
80.1641
133.905
-412.456
-364.587
16.9424
11.3299
161.111
-70.9183
-19.7046
180.48
-16.0821
475.225
-112.075
568.746
41.541
165.74
-512.24
-375.636
-421.565
-13.5964
295.252
26.5608
-12.7056
-384.079
150.295
307.722
155.818
713.209
-34.183
360.938
234.076
306.067
384.679
372.087
302.034
128.605
71.7548
125.954
305.754
91.832
213.364
182.839
207.452
329.855
255.505
292.521
-111.648
-46.9586
-522.235
-269.847
-210.5
-687.457
6.82393
36.9545
92.6047
122.174
-203.777
-99.6144
67.9584
403.542
370.025
62.5637
-162.208
110.903
320.889
238.963
137.353
-182.941
-34.3172
249.098
193.228
132.15
15.8641
275.424
279.321
460.208
283.913
174.852
36.7177
-24.0832
-109.12
-3.82207
93.9736
601.246
169.906
524.64
-39.2963
623.194
7.86661
102.516
-90.1233
-62.8729
39.4976
-117.494
86.6753
-177.78
20.6035
354.794
56.9003
-133.654
478.62
266.486
218.6
112.823
445.732
754.247
-265.292
259.047
199.016
240.746
-119.301
117.915
-25.5532
203.744
282.7
375.534
-54.2453
247.141
155.633
279.505
261.827
234.961
62.8411
96.2487
23.4425
-166.508
-197.099
-75.0345
436.85
21.5995
-121.252
29.6368
362.823
83.6797
433.724
325.157
225.885
174.129
219.797
494.351
-74.3787
254.733
376.859
407.859
168.325
-27.5227
75.9359
220.447
415.923
-94.5484
99.5436
159.326
355.961
222.804
215.19
444.136
-89.0979
-15.7941
-51.8548
495.411
371.85
163.43
353.342
-12.354
19.7497
352.343
212.26
462.687
-61.2882
308.86
342.333
182.835
205.923
292.491
-57.399
-212.597
142.233
214.297
502.153
106.767
1.50444
125.915
223.816
304.073
174.915
-21.6874
109.21
340.658
-93.0601
-19.5879
109.997
16.6746
198.064
172.926
401.816
238.604
327.662
27.8358
127.749
197.585
118.951
75.9507
35.9782
32.6783
-83.2506
271.713
190.359
191.206
226.993
-147.042
52.2717
484.49
491.711
-20.8516
359.427
222.504
270.442
27.8231
410.947
392.396
-66.8624
83.4925
47.8332
35.8314
-158.262
-98.2237
47.9589
384.943
580.497
2.71343
289.885
270.556
217.081
92.3007
199.621
399.505
186.536
-58.4295
54.3193
29.5017
40.3039
240.835
266.725
273.003
287.325
284.338
-19.9234
302.144
60.9965
255.61
-380.2
227.944
429.292
74.8245
-265.706
134.544
95.4718
525.297
-47.2169
302.499
123.189
-217.063
473.218
-134.744
100.135
146.528
-150.584
359.515
203.121
91.7141
159.947
201.087
100.289
541.723
-128.27
42.4772
-455.149
58.3861
77.058
155.837
357.036
771.778
-175.928
44.831
679.824
-132.905
280.872
-27.6582
269.757
-290.41
-46.6624
670.313
-235.409
604.436
-189.17
510.141
-214.657
-50.6548
-426.655
-128.89
630.667
-350.121
116.921
-237.056
442.744
634.522
-335.202
74.4005
9.66886
-57.4865
-66.3005
50.239
149.595
148.134
262.665
126.529
452.612
703.084
-341.689
143.671
228.619
149.436
182.514
111.909
74.5775
110.911
318.85
117.268
324.824
38.4141
189.284
429.136
73.0304
252.175
364.767
37.4929
189.267
124.005
259.032
101.487
166.144
80.151
350.789
56.0503
216.008
-192.906
464.065
-321.59
210.747
338.093
478.415
-40.5204
177.265
127.6
177.631
154.253
116.5
314.264
-73.2961
-523.187
70.3958
-262.391
372.792
-35.5422
141.655
271.756
-487.172
408.238
-86.5551
-396.886
-57.0061
283.143
265.579
152.632
-344.439
147.262
188.131
0.00241177
-33.4175
381.541
342.738
22.3209
160.481
383.208
-338.081
311.646
-39.5221
252.561
-311.771
576.751
557.966
342.89
146.822
74.1483
272.573
62.96
-348.53
-93.7674
292.028
-26.7762
230.543
-267.586
365.47
250.096
-623.417
148.827
203.399
-468.528
417.184
-199.755
377.5
468.067
308.061
-386.377
164.264
85.9717
152.203
170.06
233.751
-333.31
32.0971
-19.4749
-18.2512
357.243
137.076
204.98
266.381
251.968
82.0666
173.931
95.5801
213.851
389.623
22.0497
70.0973
7.56808
166.153
335.164
18.4686
63.3796
41.3534
140.999
-21.395
-1.18284
60.9501
80.0949
169.139
51.6511
462.742
313.847
-244.709
-239.167
418.838
-685.541
298.663
186.131
-22.8532
80.5547
428.51
-488.421
373.324
205.685
-365.539
44.3687
-1.72927
137.746
-514.805
419.527
212.317
-478.613
398.874
401.731
-298.385
481.139
341.486
-291.511
5.31165
-20.616
-482.483
147.83
176.558
-91.8824
-39.3046
-64.4161
-606.814
-44.9598
-510.155
-640.746
353.196
7.70104
631.737
20.0714
-336.446
424.814
93.8846
-429.152
21.0369
8.07847
-435.258
-238.204
400.815
-768.099
-91.7519
-143.551
-688.625
372.007
323.565
145.842
58.0467
2.97146
-89.2862
-554.227
154.123
62.8721
74.0971
146.661
-395.564
283.81
23.0985
116.446
-0.179497
107.727
167.57
-105.912
-372.69
48.9434
174.843
17.894
56.9524
124.003
-40.3632
68.3877
-408.404
21.7969
201.954
3.78603
82.6006
-32.8034
-364.509
426.567
416.092
396.534
479.475
-301.155
-464.561
26.0878
295.752
175.412
278.09
318.074
-90.8437
-145.129
-458.164
-337.178
-41.4032
120.053
103.883
92.3511
-144.691
357.397
208.53
-286.082
-51.1279
-101.805
312.763
-34.8997
-557.347
114.633
134.867
370.711
-417.43
1.75391
167.708
37.8701
81.7038
268.398
113.563
-83.5608
507.929
-645.507
-190.768
85.3498
-38.0602
51.0256
476.571
217.225
136.171
-177.185
431.824
31.7774
166.729
317.524
370.579
350.02
368.809
457.012
515.168
447.224
448.154
137.109
329.671
21.3402
80.422
-153.355
-219.061
-598.788
487.444
470.711
395.322
69.1271
169.081
151.877
-29.5759
182.806
325.928
-75.3266
95.0501
256.15
3.53404
27.1381
14.3806
65.5484
-41.8426
57.4952
35.7595
-310.173
165.372
-71.4781
93.1475
-434.757
484.085
104.569
-12.0298
-51.6781
-280.703
132.767
-4.98148
-478.366
-186.623
98.5622
-229.401
-163.691
527.325
555.557
37.974
40.5063
289.814
472.862
-484.825
-35.8475
-42.354
52.6776
50.6427
72.4139
110.891
-150.631
-355.442
416.443
44.4362
-202.455
-155.548
38.2649
140.958
-276.187
74.983
-31.7422
21.2656
477.569
-194.817
-346.678
49.6886
1.89652
-43.2309
-348.827
371.841
33.6735
23.4283
36.0023
-474.751
36.6598
49.9921
-336.61
30.0392
-187.945
210.229
410.681
-31.1204
330.007
199.255
-21.0355
-11.4056
58.5045
-348.402
192.114
227.886
11.255
-418.331
-108.268
85.9245
104.421
-26.4369
-375.996
-16.127
371.635
198.757
-11.033
519.475
-192.533
312.475
-464.248
-207.17
333.956
-475.035
353.546
-16.407
139.765
22.0774
546.477
-133.058
146.33
479.099
428.933
-249.731
411.671
478.025
-671.498
73.092
0.00594616
-448.703
223.389
-5.72895
24.1776
25.0853
114.895
74.7985
11.8014
-10.9026
-465.023
223.729
138.462
124.437
165.668
69.1415
-22.0781
-104.673
281.17
-542.715
-49.0648
-66.2828
-520.297
340.304
503.732
95.4907
394.451
429.518
-32.1204
-29.8068
221.553
391.656
-42.3645
253.487
-157.085
-448.594
289.496
-71.8295
370.908
516.713
469.724
-417.595
319.055
145.297
-85.7172
9.02466
51.5182
-3.29904
-407.064
385.867
-389.091
376.326
65.2064
-157.084
-208.76
66.942
264.561
448.366
130.09
600.65
296.523
356.667
-488.658
326.954
276.545
371.707
-34.2857
-78.9055
-546.96
100.7
579.086
396.024
-361.337
-138.482
-396.704
-34.5652
111.873
-163.509
726.448
25.1888
-136.528
-348.056
195.054
-73.4432
-506.822
79.4627
-9.19513
-0.00773142
8.76262
12.7422
-342.996
-157.379
-445.146
-7.2327
292.902
212.306
410.95
370.539
-48.495
-103.245
-468.54
-17.6
263.833
439.118
295.405
314.013
-200.42
-526.535
-128.353
-565.755
287.612
308.159
-102.947
349.724
280.638
413.341
178.371
140.516
132.781
-48.5085
-477.67
-117.861
-421.198
-175.849
9.11486
-26.71
-308.456
-421.404
249.632
582.13
518.984
469.813
125.87
241.128
230.536
99.381
7.33203
100.157
-86.4293
63.6797
66.1624
-418.177
278.302
43.2299
-137.038
-318.383
-14.3612
119.774
116.762
-25.7479
-315.738
452.238
192.182
-2.57351
513.187
-76.2897
-441.227
210.487
64.4969
67.9641
68.2323
-18.1712
-545.433
63.1943
60.4866
-384.867
432.217
33.4239
-766.985
7.95773
108.209
126.649
-19.7265
-408.428
-59.2987
-45.1746
-218.839
80.8404
-465.237
93.2239
77.1292
-242.144
503.833
58.9611
-337.101
560.466
102.098
101.761
-322.86
77.2721
-391.337
)
;
    }
}


// ************************************************************************* //
