/*--------------------------------*- C++ -*----------------------------------*\
| =========                 |                                                 |
| \\      /  F ield         | OpenFOAM: The Open Source CFD Toolbox           |
|  \\    /   O peration     | Version:  v1906                                 |
|   \\  /    A nd           | Web:      www.OpenFOAM.com                      |
|    \\/     M anipulation  |                                                 |
\*---------------------------------------------------------------------------*/
FoamFile
{
    version     2.0;
    format      ascii;
    class       surfaceScalarField;
    location    "1.6/oil";
    object      phi;
}
// * * * * * * * * * * * * * * * * * * * * * * * * * * * * * * * * * * * * * //

dimensions      [1 0 -1 0 0 0 0];
oriented        oriented;


internalField   nonuniform List<scalar> 
80688
(
-3.33061e-06
-3.38786e-06
-3.33061e-06
-1.50734e-06
-9.41569e-07
-8.81697e-07
-4.17157e-07
-5.46635e-07
-5.43551e-07
-2.16366e-07
-9.88995e-08
-1.01892e-07
-1.03401e-07
-5.52544e-08
-5.7711e-08
-5.31076e-08
-2.42481e-08
-2.60451e-08
-2.88544e-08
-1.13974e-08
-1.28558e-08
-1.66987e-08
-5.41831e-09
-6.73737e-09
-1.03058e-08
-2.56463e-09
-3.8283e-09
-6.7742e-09
-1.14749e-09
-2.38407e-09
-4.71676e-09
-4.19958e-10
-1.63748e-09
-3.448e-09
-3.28681e-11
-1.23589e-09
-2.61514e-09
1.76997e-10
-1.00986e-09
-2.03526e-09
2.98353e-10
-8.78232e-10
-1.60941e-09
3.72684e-10
-7.98527e-10
-1.28267e-09
4.22076e-10
-7.48817e-10
-1.02231e-09
4.5761e-10
-7.17957e-10
-8.04964e-10
4.83727e-10
-7.01074e-10
-6.09571e-10
5.01015e-10
-6.96406e-10
-4.1312e-10
5.07339e-10
-7.03788e-10
-1.90817e-10
4.99991e-10
-7.22291e-10
7.85702e-11
4.78947e-10
-7.48333e-10
3.98843e-10
4.52532e-10
-7.72801e-10
7.35269e-10
4.43156e-10
-7.7958e-10
9.97734e-10
4.84834e-10
-7.47296e-10
1.05599e-09
5.98942e-10
-6.57196e-10
8.18902e-10
7.43686e-10
-5.06594e-10
3.60901e-10
7.74726e-10
-3.16721e-10
-1.39998e-11
4.9642e-10
-1.21515e-10
-4.14216e-11
2.74242e-11
-8.99809e-07
-1.58824e-06
-8.99803e-07
-5.47976e-07
-5.66384e-07
-7.27017e-07
-4.06365e-07
-3.70322e-07
-3.17924e-07
-2.24096e-07
-1.4627e-07
-1.34899e-07
-1.26873e-07
-7.77437e-08
-7.47332e-08
-7.50301e-08
-3.69978e-08
-3.90934e-08
-4.6143e-08
-1.83124e-08
-2.19721e-08
-2.97606e-08
-8.55275e-09
-1.32479e-08
-2.01307e-08
-3.44279e-09
-8.75175e-09
-1.42432e-08
-6.55936e-10
-6.37909e-09
-1.04712e-08
9.00639e-10
-5.09255e-09
-7.92308e-09
1.79378e-09
-4.37479e-09
-6.10396e-09
2.31889e-09
-3.96101e-09
-4.73227e-09
2.63874e-09
-3.71208e-09
-3.64785e-09
2.84177e-09
-3.55349e-09
-2.75834e-09
2.97732e-09
-3.44475e-09
-2.00681e-09
3.071e-09
-3.36491e-09
-1.35175e-09
3.13346e-09
-3.3048e-09
-7.55355e-10
3.16636e-09
-3.26173e-09
-1.77135e-10
3.16579e-09
-3.23667e-09
4.24796e-10
3.12851e-09
-3.23045e-09
1.08292e-09
3.06138e-09
-3.24056e-09
1.79557e-09
2.99608e-09
-3.25619e-09
2.4909e-09
3.00031e-09
-3.25248e-09
3.00003e-09
3.16268e-09
-3.18697e-09
3.08425e-09
3.51746e-09
-3.00273e-09
2.56524e-09
3.90717e-09
-2.64447e-09
1.5341e-09
3.88842e-09
-2.08255e-09
4.70661e-10
2.89457e-09
-1.33471e-09
8.91653e-10
-4.62411e-10
-5.64474e-07
-4.59302e-07
-5.64468e-07
-3.91099e-07
-4.10495e-07
-3.29264e-07
-2.82675e-07
-2.66006e-07
-2.1274e-07
-1.7809e-07
-1.34148e-07
-1.16707e-07
-1.14013e-07
-7.43641e-08
-6.74563e-08
-7.40343e-08
-3.82251e-08
-3.87519e-08
-4.95123e-08
-1.92272e-08
-2.36072e-08
-3.42784e-08
-8.38416e-09
-1.54025e-08
-2.45915e-08
-2.18049e-09
-1.09491e-08
-1.8224e-08
1.47597e-09
-8.49944e-09
-1.38624e-08
3.6649e-09
-7.12588e-09
-1.07269e-08
4.99817e-09
-6.33985e-09
-8.35644e-09
5.82422e-09
-5.87579e-09
-6.47599e-09
6.34784e-09
-5.58955e-09
-4.92419e-09
6.68926e-09
-5.3993e-09
-3.60585e-09
6.91861e-09
-5.25963e-09
-2.46197e-09
7.07368e-09
-5.14655e-09
-1.44893e-09
7.17066e-09
-5.05024e-09
-5.26762e-10
7.21259e-09
-4.9684e-09
3.46842e-10
7.19624e-09
-4.90405e-09
1.21365e-09
7.12218e-09
-4.86047e-09
2.10199e-09
7.01134e-09
-4.83829e-09
2.99995e-09
6.92765e-09
-4.82953e-09
3.81886e-09
6.99099e-09
-4.80958e-09
4.36814e-09
7.34194e-09
-4.72854e-09
4.38683e-09
8.00652e-09
-4.50774e-09
3.67692e-09
8.66936e-09
-4.05228e-09
2.31898e-09
8.52926e-09
-3.2829e-09
8.1877e-10
6.5818e-09
-2.18702e-09
2.527e-09
-8.16572e-10
-1.14523e-07
-2.30261e-07
-1.14517e-07
-1.64487e-07
-2.18505e-07
-1.42026e-07
-1.52436e-07
-1.59883e-07
-1.18175e-07
-1.15563e-07
-9.44993e-08
-7.65209e-08
-8.45629e-08
-5.60792e-08
-4.92852e-08
-6.10275e-08
-3.04241e-08
-3.13365e-08
-4.45131e-08
-1.50478e-08
-2.06938e-08
-3.30697e-08
-5.37201e-09
-1.44555e-08
-2.51014e-08
7.00919e-10
-1.08497e-08
-1.94304e-08
4.57336e-09
-8.76841e-09
-1.52612e-08
7.05406e-09
-7.55841e-09
-1.20695e-08
8.65381e-09
-6.8473e-09
-9.52017e-09
9.69358e-09
-6.41869e-09
-7.40345e-09
1.03786e-08
-6.1475e-09
-5.59191e-09
1.08371e-08
-5.95935e-09
-4.01147e-09
1.1149e-08
-5.81082e-09
-2.6168e-09
1.13584e-08
-5.67937e-09
-1.37326e-09
1.14846e-08
-5.5575e-09
-2.49035e-10
1.15332e-08
-5.44488e-09
7.91045e-10
1.15033e-08
-5.34714e-09
1.78015e-09
1.14031e-08
-5.26997e-09
2.73684e-09
1.12723e-08
-5.21764e-09
3.64126e-09
1.12089e-08
-5.18565e-09
4.40513e-09
1.13797e-08
-5.1526e-09
4.85353e-09
1.1963e-08
-5.06948e-09
4.7561e-09
1.29558e-08
-4.85187e-09
3.94563e-09
1.38701e-08
-4.39026e-09
2.50436e-09
1.35553e-08
-3.58479e-09
9.09868e-10
1.05848e-08
-2.40848e-09
4.34661e-09
-9.09747e-10
-6.28238e-08
-1.0462e-07
-6.2818e-08
-8.98e-08
-1.13729e-07
-7.77996e-08
-8.99957e-08
-9.17933e-08
-6.78935e-08
-7.59432e-08
-5.96445e-08
-4.89072e-08
-6.09875e-08
-3.69356e-08
-3.40993e-08
-4.77893e-08
-2.02298e-08
-2.33925e-08
-3.74018e-08
-8.9813e-09
-1.6454e-08
-2.94747e-08
-1.18886e-09
-1.21102e-08
-2.34741e-08
4.16018e-09
-9.45977e-09
-1.88726e-08
7.83703e-09
-7.86519e-09
-1.52537e-08
1.03463e-08
-6.91112e-09
-1.2313e-08
1.20524e-08
-6.33936e-09
-9.83924e-09
1.3211e-08
-5.99115e-09
-7.69637e-09
1.40012e-08
-5.76544e-09
-5.80251e-09
1.45441e-08
-5.60083e-09
-4.11352e-09
1.49185e-08
-5.45854e-09
-2.60581e-09
1.51703e-08
-5.31962e-09
-1.26069e-09
1.53198e-08
-5.18027e-09
-5.84636e-11
1.53746e-08
-5.04362e-09
1.02506e-09
1.53382e-08
-4.91841e-09
2.01158e-09
1.52301e-08
-4.81358e-09
2.91081e-09
1.51088e-08
-4.73571e-09
3.70058e-09
1.51022e-08
-4.68305e-09
4.30546e-09
1.54142e-08
-4.63931e-09
4.5878e-09
1.62416e-08
-4.56088e-09
4.37666e-09
1.75364e-08
-4.36946e-09
3.56099e-09
1.86457e-08
-3.95997e-09
2.23401e-09
1.81163e-08
-3.23401e-09
8.0806e-10
1.41754e-08
-2.16467e-09
5.96224e-09
-8.07569e-10
-2.81003e-08
-4.84247e-08
-2.80947e-08
-4.51331e-08
-5.70495e-08
-3.96472e-08
-5.10454e-08
-4.81269e-08
-3.77542e-08
-4.81012e-08
-3.26353e-08
-2.99534e-08
-4.23125e-08
-2.02186e-08
-2.25057e-08
-3.58441e-08
-1.01794e-08
-1.65188e-08
-2.99507e-08
-2.59553e-09
-1.22792e-08
-2.49223e-08
3.22872e-09
-9.44594e-09
-2.07483e-08
7.61363e-09
-7.62747e-09
-1.72803e-08
1.08638e-08
-6.49478e-09
-1.43531e-08
1.32235e-08
-5.80436e-09
-1.18224e-08
1.49109e-08
-5.3891e-09
-9.57817e-09
1.61047e-08
-5.13796e-09
-7.55076e-09
1.69463e-08
-4.9725e-09
-5.70217e-09
1.75381e-08
-4.8426e-09
-4.02124e-09
1.79522e-08
-4.71463e-09
-2.50888e-09
1.82317e-08
-4.57378e-09
-1.16345e-09
1.83958e-08
-4.42144e-09
2.08769e-11
1.84546e-08
-4.26423e-09
1.05749e-09
1.8417e-08
-4.11538e-09
1.95926e-09
1.83144e-08
-3.98609e-09
2.73032e-09
1.82227e-08
-3.88504e-09
3.3515e-09
1.82951e-08
-3.81407e-09
3.76839e-09
1.87575e-08
-3.76019e-09
3.88709e-09
1.98099e-08
-3.68703e-09
3.60051e-09
2.13505e-08
-3.52754e-09
2.85586e-09
2.25814e-08
-3.19097e-09
1.7524e-09
2.18128e-08
-2.593e-09
6.20205e-10
1.70209e-08
-1.71326e-09
7.2012e-09
-6.18746e-10
-1.34837e-08
-2.14625e-08
-1.34784e-08
-2.42294e-08
-2.52984e-08
-2.10053e-08
-3.00261e-08
-2.09137e-08
-2.14164e-08
-3.08746e-08
-1.34764e-08
-1.83105e-08
-2.92885e-08
-7.15907e-09
-1.46456e-08
-2.65152e-08
-1.57756e-09
-1.13751e-08
-2.34532e-08
3.20658e-09
-8.8642e-09
-2.0478e-08
7.33958e-09
-7.08605e-09
-1.77425e-08
1.0776e-08
-5.89778e-09
-1.52642e-08
1.35273e-08
-5.1419e-09
-1.30088e-08
1.56505e-08
-4.68241e-09
-1.09282e-08
1.72446e-08
-4.41433e-09
-8.98047e-09
1.84171e-08
-4.26019e-09
-7.14387e-09
1.92686e-08
-4.15894e-09
-5.41691e-09
1.98799e-08
-4.06878e-09
-3.81816e-09
2.03119e-08
-3.95839e-09
-2.372e-09
2.06023e-08
-3.81669e-09
-1.09264e-09
2.07686e-08
-3.65218e-09
1.39355e-11
2.08238e-08
-3.47579e-09
9.52648e-10
2.07831e-08
-3.30486e-09
1.73113e-09
2.06889e-08
-3.1529e-09
2.35222e-09
2.06329e-08
-3.03128e-09
2.80443e-09
2.07855e-08
-2.94269e-09
3.05444e-09
2.13852e-08
-2.87773e-09
3.04968e-09
2.26216e-08
-2.80696e-09
2.73622e-09
2.43388e-08
-2.67484e-09
2.10558e-09
2.56188e-08
-2.4068e-09
1.25434e-09
2.46001e-08
-1.93612e-09
4.28829e-10
1.90977e-08
-1.25136e-09
8.05702e-09
-4.26995e-10
-6.706e-09
-8.05543e-09
-6.7011e-09
-1.33219e-08
-7.2724e-09
-1.14101e-08
-1.79665e-08
-3.89395e-09
-1.23752e-08
-1.99815e-08
-1.79677e-10
-1.12817e-08
-2.0284e-08
2.67943e-09
-9.53599e-09
-1.94904e-08
5.41158e-09
-7.78278e-09
-1.81445e-08
8.1877e-09
-6.32698e-09
-1.65481e-08
1.09861e-08
-5.24295e-09
-1.48702e-08
1.35971e-08
-4.49903e-09
-1.31843e-08
1.58673e-08
-4.02586e-09
-1.15135e-08
1.77304e-08
-3.75074e-09
-9.85961e-09
1.91984e-08
-3.60765e-09
-8.21967e-09
2.03191e-08
-3.54196e-09
-6.60464e-09
2.11555e-08
-3.50194e-09
-5.03816e-09
2.17646e-08
-3.45122e-09
-3.56344e-09
2.21956e-08
-3.35847e-09
-2.22475e-09
2.24797e-08
-3.21611e-09
-1.04914e-09
2.26326e-08
-3.03961e-09
-5.10895e-11
2.26701e-08
-2.84438e-09
7.69755e-10
2.26159e-08
-2.65368e-09
1.4189e-09
2.25224e-08
-2.48263e-09
1.90116e-09
2.24941e-08
-2.34341e-09
2.21344e-09
2.27125e-08
-2.23922e-09
2.34168e-09
2.342e-08
-2.16304e-09
2.2643e-09
2.47903e-08
-2.09127e-09
1.96524e-09
2.66166e-08
-1.97876e-09
1.46209e-09
2.7887e-08
-1.76505e-09
8.40588e-10
2.66201e-08
-1.39843e-09
2.74497e-10
2.05391e-08
-8.75296e-10
8.60486e-09
-2.7334e-10
-3.49287e-09
-1.07413e-09
-3.48842e-09
-7.63681e-09
3.29548e-09
-6.42393e-09
-1.10885e-08
6.92845e-09
-7.37068e-09
-1.31931e-08
9.02748e-09
-7.10255e-09
-1.42033e-08
9.99164e-09
-6.30205e-09
-1.43748e-08
1.09564e-08
-5.37331e-09
-1.39978e-08
1.23515e-08
-4.54076e-09
-1.32694e-08
1.41531e-08
-3.8954e-09
-1.23215e-08
1.60985e-08
-3.44921e-09
-1.1229e-08
1.79514e-08
-3.1766e-09
-1.00322e-08
1.95726e-08
-3.03897e-09
-8.75166e-09
2.09115e-08
-2.99361e-09
-7.40283e-09
2.19702e-08
-2.99995e-09
-6.01429e-09
2.27791e-08
-3.01208e-09
-4.62566e-09
2.33735e-08
-2.99744e-09
-3.29772e-09
2.37888e-08
-2.92108e-09
-2.09051e-09
2.40501e-08
-2.77767e-09
-1.03775e-09
2.41723e-08
-2.59244e-09
-1.60273e-10
2.41766e-08
-2.38399e-09
5.4199e-10
2.40935e-08
-2.17985e-09
1.07415e-09
2.39853e-08
-1.99508e-09
1.44429e-09
2.39676e-08
-1.84367e-09
1.65629e-09
2.42294e-08
-1.72888e-09
1.71104e-09
2.50101e-08
-1.64486e-09
1.60691e-09
2.64657e-08
-1.57129e-09
1.35031e-09
2.83448e-08
-1.47152e-09
9.70161e-10
2.95651e-08
-1.2979e-09
5.36331e-10
2.80635e-08
-1.00954e-09
1.65604e-10
2.15164e-08
-6.06503e-10
8.93662e-09
-1.66154e-10
-1.91046e-09
2.74286e-09
-1.90653e-09
-4.55803e-09
9.71517e-09
-3.77212e-09
-7.05893e-09
1.39854e-08
-4.55602e-09
-8.90191e-09
1.54767e-08
-4.60628e-09
-1.00818e-08
1.54355e-08
-4.26396e-09
-1.06714e-08
1.53236e-08
-3.77762e-09
-1.08055e-08
1.57914e-08
-3.30587e-09
-1.05949e-08
1.68719e-08
-2.9294e-09
-1.01274e-08
1.83042e-08
-2.67324e-09
-9.46116e-09
1.98179e-08
-2.53269e-09
-8.63207e-09
2.12312e-08
-2.48761e-09
-7.66524e-09
2.24535e-08
-2.5088e-09
-6.5815e-09
2.34528e-08
-2.5663e-09
-5.41615e-09
2.42316e-08
-2.61782e-09
-4.21516e-09
2.48043e-08
-2.63181e-09
-3.04986e-09
2.51935e-08
-2.57005e-09
-1.98979e-09
2.5419e-08
-2.42893e-09
-1.07111e-09
2.5496e-08
-2.24235e-09
-3.15717e-10
2.54515e-08
-2.03024e-09
2.76924e-10
2.5325e-08
-1.82415e-09
7.12661e-10
2.51885e-08
-1.63891e-09
1.00189e-09
2.51643e-08
-1.48591e-09
1.15399e-09
2.54456e-08
-1.36832e-09
1.17719e-09
2.62683e-08
-1.28135e-09
1.08177e-09
2.77693e-08
-1.20821e-09
8.83835e-10
2.96622e-08
-1.11945e-09
6.15246e-10
3.08086e-08
-9.74925e-10
3.27451e-10
2.90943e-08
-7.43027e-10
9.51764e-11
2.21763e-08
-4.27633e-10
9.13005e-09
-9.82494e-11
-1.1002e-09
4.93991e-09
-1.09685e-09
-2.83744e-09
1.37694e-08
-2.31699e-09
-4.63995e-09
1.87176e-08
-2.92967e-09
-6.14222e-09
2.00638e-08
-3.08482e-09
-7.25709e-09
1.95091e-08
-2.95874e-09
-7.97532e-09
1.87487e-08
-2.70686e-09
-8.34498e-09
1.8601e-08
-2.43992e-09
-8.42023e-09
1.91693e-08
-2.22218e-09
-8.25205e-09
2.0216e-08
-2.07993e-09
-7.87902e-09
2.14616e-08
-2.01677e-09
-7.32809e-09
2.2703e-08
-2.02279e-09
-6.62117e-09
2.38248e-08
-2.07824e-09
-5.77703e-09
2.47697e-08
-2.16104e-09
-4.83062e-09
2.5518e-08
-2.23284e-09
-3.82644e-09
2.60656e-08
-2.26548e-09
-2.83896e-09
2.64226e-08
-2.2165e-09
-1.93959e-09
2.66031e-08
-2.08347e-09
-1.1622e-09
2.66269e-08
-1.90836e-09
-5.265e-10
2.65267e-08
-1.71091e-09
-3.03712e-11
2.63499e-08
-1.52101e-09
3.31129e-10
2.61771e-08
-1.35014e-09
5.69813e-10
2.61349e-08
-1.20931e-09
6.96212e-10
2.64192e-08
-1.10006e-09
7.21949e-10
2.72607e-08
-1.01819e-09
6.60764e-10
2.87802e-08
-9.49698e-10
5.3219e-10
3.06619e-08
-8.71179e-10
3.62036e-10
3.173e-08
-7.5129e-10
1.87035e-10
2.98332e-08
-5.63876e-10
5.19043e-11
2.26233e-08
-3.11906e-10
9.23997e-09
-5.80166e-11
-6.67067e-10
6.27135e-09
-6.64368e-10
-1.83573e-09
1.64236e-08
-1.48551e-09
-3.13622e-09
2.19699e-08
-1.95185e-09
-4.31548e-09
2.33663e-08
-2.12321e-09
-5.27481e-09
2.25627e-08
-2.09424e-09
-5.9741e-09
2.14115e-08
-1.96346e-09
-6.41907e-09
2.08542e-08
-1.80815e-09
-6.63091e-09
2.10586e-08
-1.67749e-09
-6.635e-09
2.18143e-08
-1.59418e-09
-6.45585e-09
2.28468e-08
-1.56429e-09
-6.11214e-09
2.39434e-08
-1.58406e-09
-5.61964e-09
2.4973e-08
-1.64071e-09
-4.99451e-09
2.58642e-08
-1.71961e-09
-4.26513e-09
2.65778e-08
-1.78921e-09
-3.46988e-09
2.70973e-08
-1.82698e-09
-2.67678e-09
2.7419e-08
-1.78949e-09
-1.95164e-09
2.75537e-08
-1.67577e-09
-1.32017e-09
2.75259e-08
-1.5304e-09
-7.99309e-10
2.73737e-08
-1.36791e-09
-3.86608e-10
2.71526e-08
-1.21539e-09
-7.67823e-11
2.69461e-08
-1.07883e-09
1.37941e-10
2.68865e-08
-9.66307e-10
2.66631e-10
2.71684e-08
-8.77806e-10
3.20304e-10
2.80169e-08
-8.09879e-10
3.11874e-10
2.9541e-08
-7.52335e-10
2.57104e-10
3.1403e-08
-6.86284e-10
1.7641e-10
3.23982e-08
-5.87498e-10
9.17658e-11
3.03538e-08
-4.36029e-10
2.54501e-11
2.29239e-08
-2.3427e-10
9.30022e-09
-3.48044e-11
-4.24042e-10
7.11745e-09
-4.22047e-10
-1.226e-09
1.82128e-08
-9.8721e-10
-2.16279e-09
2.42418e-08
-1.33513e-09
-3.06313e-09
2.57529e-08
-1.48628e-09
-3.84006e-09
2.48338e-08
-1.49414e-09
-4.44968e-09
2.34437e-08
-1.42265e-09
-4.88014e-09
2.26094e-08
-1.32482e-09
-5.13535e-09
2.25508e-08
-1.23701e-09
-5.22751e-09
2.30836e-08
-1.17722e-09
-5.17125e-09
2.39418e-08
-1.1513e-09
-4.97972e-09
2.4911e-08
-1.15913e-09
-4.66585e-09
2.58519e-08
-1.19275e-09
-4.24104e-09
2.66842e-08
-1.24478e-09
-3.72631e-09
2.73565e-08
-1.29344e-09
-3.14963e-09
2.78437e-08
-1.32307e-09
-2.56428e-09
2.81298e-08
-1.29623e-09
-2.0215e-09
2.82231e-08
-1.21218e-09
-1.53861e-09
2.81548e-08
-1.1118e-09
-1.12681e-09
2.79646e-08
-1.00266e-09
-7.83625e-10
2.77125e-08
-9.0305e-10
-5.08281e-10
2.74848e-08
-8.14071e-10
-2.97215e-10
2.74148e-08
-7.39379e-10
-1.45713e-10
2.76954e-08
-6.78497e-10
-4.65717e-11
2.8548e-08
-6.30244e-10
8.5831e-12
3.0073e-08
-5.87153e-10
3.15235e-11
3.19157e-08
-5.3567e-10
3.31045e-11
3.28551e-08
-4.58467e-10
2.2912e-11
3.07038e-08
-3.3974e-10
9.50422e-12
2.31175e-08
-1.80216e-10
9.33177e-09
-2.20408e-11
-2.80448e-10
7.67677e-09
-2.78869e-10
-8.35374e-10
1.94384e-08
-6.70679e-10
-1.50319e-09
2.58316e-08
-9.2195e-10
-2.16816e-09
2.74575e-08
-1.03954e-09
-2.76459e-09
2.64844e-08
-1.05421e-09
-3.25411e-09
2.49407e-08
-1.00746e-09
-3.62117e-09
2.39124e-08
-9.35899e-10
-3.86352e-09
2.36568e-08
-8.63607e-10
-3.98788e-09
2.40116e-08
-8.0362e-10
-4.00465e-09
2.47187e-08
-7.60147e-10
-3.9251e-09
2.55657e-08
-7.34243e-10
-3.76071e-09
2.64115e-08
-7.24029e-10
-3.51987e-09
2.71718e-08
-7.28453e-10
-3.21656e-09
2.77905e-08
-7.37267e-10
-2.86589e-09
2.82371e-08
-7.44072e-10
-2.49844e-09
2.84897e-08
-7.273e-10
-2.14399e-09
2.8555e-08
-6.86264e-10
-1.80759e-09
2.84652e-08
-6.46852e-10
-1.49674e-09
2.82613e-08
-6.07528e-10
-1.21209e-09
2.80024e-08
-5.74516e-10
-9.57683e-10
2.77733e-08
-5.42919e-10
-7.35747e-10
2.77073e-08
-5.14376e-10
-5.47604e-10
2.79953e-08
-4.8805e-10
-3.92035e-10
2.88558e-08
-4.63386e-10
-2.65471e-10
3.03841e-08
-4.37697e-10
-1.63936e-10
3.2217e-08
-4.02843e-10
-8.52951e-11
3.31226e-08
-3.46108e-10
-2.92471e-11
3.09055e-08
-2.57732e-10
-9.06256e-13
2.32265e-08
-1.37287e-10
9.34539e-09
-1.45225e-11
-1.91042e-10
8.05784e-09
-1.90028e-10
-5.71902e-10
2.02768e-08
-4.57587e-10
-1.03481e-09
2.69239e-08
-6.29405e-10
-1.50293e-09
2.86348e-08
-7.09225e-10
-1.93117e-09
2.76293e-08
-7.16676e-10
-2.29236e-09
2.59802e-08
-6.78286e-10
-2.5744e-09
2.48115e-08
-6.17058e-10
-2.77537e-09
2.4406e-08
-5.48195e-10
-2.90134e-09
2.46179e-08
-4.80266e-10
-2.96156e-09
2.51963e-08
-4.1729e-10
-2.96706e-09
2.59323e-08
-3.61165e-10
-2.92933e-09
2.66867e-08
-3.12877e-10
-2.85511e-09
2.73726e-08
-2.75088e-10
-2.74998e-09
2.79347e-08
-2.49313e-10
-2.61683e-09
2.83394e-08
-2.35473e-10
-2.46051e-09
2.85627e-08
-2.29297e-10
-2.28606e-09
2.86093e-08
-2.28779e-10
-2.0892e-09
2.85111e-08
-2.42722e-10
-1.87283e-09
2.83068e-08
-2.61896e-10
-1.64067e-09
2.80536e-08
-2.8343e-10
-1.40174e-09
2.78346e-08
-3.00207e-10
-1.16371e-09
2.77792e-08
-3.09938e-10
-9.34002e-10
2.8078e-08
-3.12451e-10
-7.18782e-10
2.89497e-08
-3.09061e-10
-5.19818e-10
3.04838e-08
-2.98673e-10
-3.41464e-10
3.23173e-08
-2.78606e-10
-1.88386e-10
3.32121e-08
-2.4265e-10
-7.24935e-11
3.09733e-08
-1.8377e-10
-7.64267e-12
2.32615e-08
-9.99289e-11
9.34776e-09
-1.00092e-11
-1.32168e-10
8.32149e-09
-1.31474e-10
-3.84984e-10
2.08342e-08
-3.04584e-10
-6.84227e-10
2.76312e-08
-4.08026e-10
-9.84883e-10
2.93849e-08
-4.49455e-10
-1.26016e-09
2.8347e-08
-4.42384e-10
-1.49514e-09
2.66175e-08
-4.02286e-10
-1.68441e-09
2.53421e-08
-3.41378e-10
-1.82972e-09
2.4819e-08
-2.67661e-10
-1.93859e-09
2.49114e-08
-1.84639e-10
-2.02232e-09
2.53742e-08
-9.42414e-11
-2.0941e-09
2.60027e-08
1.46235e-12
-2.16461e-09
2.666e-08
9.7116e-11
-2.24106e-09
2.7263e-08
1.86094e-10
-2.32201e-09
2.77589e-08
2.56741e-10
-2.3974e-09
2.81167e-08
2.98104e-10
-2.44488e-09
2.83151e-08
2.95023e-10
-2.44382e-09
2.83572e-08
2.51e-10
-2.37947e-09
2.82697e-08
1.76997e-10
-2.25094e-09
2.80854e-08
9.28687e-11
-2.06637e-09
2.78569e-08
1.21798e-11
-1.83808e-09
2.76613e-08
-5.49509e-11
-1.58159e-09
2.76275e-08
-1.04834e-10
-1.31022e-09
2.79437e-08
-1.3704e-10
-1.03375e-09
2.88275e-08
-1.54321e-10
-7.6336e-10
3.03733e-08
-1.59878e-10
-5.08586e-10
3.22177e-08
-1.55168e-10
-2.85128e-10
3.31284e-08
-1.39726e-10
-1.11927e-10
3.09105e-08
-1.1039e-10
-1.32175e-11
2.32263e-08
-6.34465e-11
9.34052e-09
-5.9809e-12
-9.07797e-11
8.50257e-09
-9.03047e-11
-2.42228e-10
2.11726e-08
-1.86886e-10
-4.07269e-10
2.80264e-08
-2.30152e-10
-5.63126e-10
2.97752e-08
-2.34388e-10
-7.01953e-10
2.86962e-08
-2.10365e-10
-8.20028e-10
2.69011e-08
-1.65572e-10
-9.2026e-10
2.5545e-08
-1.02626e-10
-1.00921e-09
2.49309e-08
-2.30387e-11
-1.09745e-09
2.49267e-08
7.29409e-11
-1.19811e-09
2.52911e-08
1.83775e-10
-1.32561e-09
2.58233e-08
3.06819e-10
-1.49105e-09
2.63903e-08
4.35162e-10
-1.70039e-09
2.69129e-08
5.59408e-10
-1.94478e-09
2.73441e-08
6.59221e-10
-2.20344e-09
2.76565e-08
7.18868e-10
-2.43076e-09
2.78352e-08
7.07215e-10
-2.58386e-09
2.78805e-08
6.29893e-10
-2.64076e-09
2.78114e-08
5.15291e-10
-2.59621e-09
2.76539e-08
3.8701e-10
-2.4598e-09
2.74544e-08
2.66021e-10
-2.24772e-09
2.72854e-08
1.63782e-10
-1.97882e-09
2.72733e-08
8.52887e-11
-1.67088e-09
2.76053e-08
3.04828e-11
-1.34013e-09
2.85001e-08
-3.2996e-12
-1.0024e-09
3.00571e-08
-2.15457e-11
-6.75321e-10
3.19205e-08
-2.99193e-11
-3.8141e-10
3.28686e-08
-3.4057e-11
-1.51668e-10
3.0715e-08
-3.41893e-11
-1.89016e-11
2.3118e-08
-2.44869e-11
9.32271e-09
-1.09284e-12
-5.83842e-11
8.61858e-09
-5.76229e-11
-1.23664e-10
2.13252e-08
-8.73579e-11
-1.70718e-10
2.81474e-08
-7.39312e-11
-1.98373e-10
2.98447e-08
-4.19176e-11
-2.13998e-10
2.87114e-08
3.87542e-13
-2.27176e-10
2.68617e-08
5.26014e-11
-2.47271e-10
2.54463e-08
1.18825e-10
-2.85778e-10
2.47644e-08
2.05036e-10
-3.55699e-10
2.46824e-08
3.14216e-10
-4.7138e-10
2.49606e-08
4.46189e-10
-6.48911e-10
2.54027e-08
5.98229e-10
-8.98302e-10
2.58804e-08
7.5934e-10
-1.22477e-09
2.63218e-08
9.17648e-10
-1.61175e-09
2.66863e-08
1.04479e-09
-2.02892e-09
2.69537e-08
1.11999e-09
-2.41327e-09
2.71151e-08
1.10448e-09
-2.70483e-09
2.71691e-08
1.00293e-09
-2.87408e-09
2.71267e-08
8.53918e-10
-2.91068e-09
2.70053e-08
6.85162e-10
-2.82478e-09
2.68428e-08
5.25753e-10
-2.63446e-09
2.67063e-08
3.88789e-10
-2.36128e-09
2.67178e-08
2.82339e-10
-2.02576e-09
2.70631e-08
2.06658e-10
-1.64825e-09
2.79646e-08
1.5795e-10
-1.2484e-09
2.95288e-08
1.28546e-10
-8.51084e-10
3.14164e-08
1.06755e-10
-4.87315e-10
3.2422e-08
8.27659e-11
-1.9735e-10
3.03727e-08
5.22752e-11
-2.72432e-11
2.29263e-08
2.15575e-11
9.28815e-09
7.32604e-12
-2.82282e-11
8.67408e-09
-2.72632e-11
-1.22605e-11
2.13019e-08
7.31658e-12
5.19549e-11
2.80069e-08
7.62599e-11
1.42847e-10
2.96084e-08
1.45406e-10
2.36822e-10
2.84114e-08
2.06036e-10
3.13723e-10
2.65203e-08
2.64522e-10
3.58197e-10
2.50691e-08
3.32753e-10
3.56123e-10
2.4345e-08
4.21467e-10
2.93895e-10
2.42069e-08
5.37654e-10
1.56071e-10
2.44168e-08
6.81622e-10
-7.15146e-11
2.47809e-08
8.49321e-10
-3.97859e-10
2.51784e-08
1.02837e-09
-8.23975e-10
2.55436e-08
1.20427e-09
-1.32773e-09
2.58456e-08
1.34441e-09
-1.87144e-09
2.60708e-08
1.42659e-09
-2.38226e-09
2.62161e-08
1.40978e-09
-2.79035e-09
2.62799e-08
1.29725e-09
-3.05992e-09
2.62642e-08
1.1321e-09
-3.17628e-09
2.61787e-08
9.43025e-10
-3.14768e-09
2.60521e-08
7.62054e-10
-2.99092e-09
2.59454e-08
6.04187e-10
-2.72754e-09
2.59743e-08
4.80133e-10
-2.37934e-09
2.63239e-08
3.90993e-10
-1.96793e-09
2.72203e-08
3.3295e-10
-1.51585e-09
2.87816e-08
2.9508e-10
-1.05129e-09
3.06896e-08
2.62327e-10
-6.14474e-10
3.17666e-08
2.18661e-10
-2.57856e-10
2.98609e-08
1.55177e-10
-4.06314e-11
2.26289e-08
8.02034e-11
9.22613e-09
2.13856e-11
6.9377e-12
8.65882e-09
8.32541e-12
1.11593e-10
2.10829e-08
1.14381e-10
2.8994e-10
2.7585e-08
2.4361e-10
4.9595e-10
2.90505e-08
3.51919e-10
6.87852e-10
2.77886e-08
4.30953e-10
8.3753e-10
2.58763e-08
4.94314e-10
9.2589e-10
2.4419e-08
5.61709e-10
9.40439e-10
2.36813e-08
6.49162e-10
8.68657e-10
2.35131e-08
7.65645e-10
6.98286e-10
2.36747e-08
9.12538e-10
4.17389e-10
2.39762e-08
1.08558e-09
2.00747e-11
2.43048e-08
1.27085e-09
-4.90733e-10
2.46032e-08
1.45117e-09
-1.08821e-09
2.48497e-08
1.59341e-09
-1.72896e-09
2.5037e-08
1.67458e-09
-2.33772e-09
2.51668e-08
1.65815e-09
-2.84186e-09
2.52369e-08
1.54721e-09
-3.20188e-09
2.52435e-08
1.38072e-09
-3.39734e-09
2.51883e-08
1.1858e-09
-3.43329e-09
2.50918e-08
9.9632e-10
-3.32393e-09
2.50064e-08
8.2957e-10
-3.08866e-09
2.50414e-08
6.97643e-10
-2.74746e-09
2.53803e-08
6.02408e-10
-2.31942e-09
2.62528e-08
5.39476e-10
-1.8263e-09
2.77917e-08
4.96768e-10
-1.29901e-09
2.97073e-08
4.54952e-10
-7.82701e-10
3.08587e-08
3.91497e-10
-3.44199e-10
2.9131e-08
2.91459e-10
-6.44002e-11
2.21854e-08
1.6369e-10
9.11545e-09
4.6286e-11
5.54377e-11
8.54597e-09
5.74068e-11
2.69562e-10
2.06168e-08
2.51914e-10
5.78216e-10
2.68239e-08
4.52436e-10
9.01318e-10
2.81202e-08
6.07241e-10
1.17989e-09
2.68015e-08
7.08553e-10
1.38034e-09
2.48997e-08
7.76092e-10
1.48634e-09
2.34747e-08
8.38322e-10
1.49061e-09
2.27596e-08
9.17453e-10
1.38664e-09
2.25917e-08
1.02535e-09
1.16781e-09
2.27287e-08
1.16475e-09
8.265e-10
2.29874e-08
1.33014e-09
3.61385e-10
2.32633e-08
1.50664e-09
-2.2064e-10
2.35082e-08
1.67704e-09
-8.89891e-10
2.37088e-08
1.81017e-09
-1.60109e-09
2.38635e-08
1.88465e-09
-2.2822e-09
2.39777e-08
1.87015e-09
-2.86308e-09
2.40491e-08
1.76862e-09
-3.30182e-09
2.40687e-08
1.61346e-09
-3.57612e-09
2.40333e-08
1.42928e-09
-3.6863e-09
2.39545e-08
1.24741e-09
-3.64192e-09
2.38766e-08
1.08545e-09
-3.45802e-09
2.39007e-08
9.56783e-10
-3.14906e-09
2.42062e-08
8.65117e-10
-2.72796e-09
2.50264e-08
8.05254e-10
-2.21103e-09
2.6512e-08
7.62802e-10
-1.62484e-09
2.84081e-08
7.13066e-10
-1.01933e-09
2.96276e-08
6.25678e-10
-4.76222e-10
2.81074e-08
4.8048e-10
-1.05243e-10
2.15283e-08
2.86177e-10
8.92172e-09
8.84886e-11
1.29057e-10
8.28529e-09
1.31632e-10
4.90463e-10
1.98084e-08
4.47057e-10
9.56743e-10
2.56162e-08
7.41432e-10
1.40469e-09
2.67168e-08
9.55447e-10
1.75655e-09
2.53656e-08
1.08402e-09
1.97949e-09
2.35199e-08
1.15685e-09
2.06891e-09
2.21734e-08
1.21185e-09
2.02955e-09
2.15211e-08
1.27785e-09
1.8664e-09
2.13838e-08
1.37102e-09
1.58048e-09
2.15206e-08
1.49411e-09
1.17043e-09
2.1756e-08
1.64145e-09
6.39172e-10
2.19952e-08
1.79941e-09
-3.34518e-12
2.22004e-08
1.95037e-09
-7.27047e-10
2.23651e-08
2.06739e-09
-1.48764e-09
2.2493e-08
2.13118e-09
-2.22009e-09
2.25911e-08
2.11909e-09
-2.86106e-09
2.26571e-08
2.033e-09
-3.36975e-09
2.26802e-08
1.89721e-09
-3.72285e-09
2.26531e-08
1.73334e-09
-3.91644e-09
2.25785e-08
1.56962e-09
-3.95589e-09
2.24924e-08
1.42367e-09
-3.85012e-09
2.2487e-08
1.30793e-09
-3.60444e-09
2.27338e-08
1.22673e-09
-3.22182e-09
2.34683e-08
1.1755e-09
-2.7046e-09
2.48587e-08
1.13606e-09
-2.06819e-09
2.66939e-08
1.07776e-09
-1.36004e-09
2.79583e-08
9.61143e-10
-6.78078e-10
2.66682e-08
7.57197e-10
-1.7381e-10
2.05519e-08
4.72158e-10
8.58949e-09
1.58422e-10
2.40107e-10
7.80185e-09
2.4333e-10
8.02625e-10
1.85177e-08
7.28218e-10
1.4653e-09
2.38056e-08
1.14792e-09
2.04606e-09
2.46942e-08
1.44178e-09
2.45153e-09
2.33509e-08
1.60923e-09
2.66027e-09
2.16196e-08
1.69159e-09
2.68985e-09
2.04046e-08
1.73927e-09
2.56762e-09
1.98531e-08
1.79025e-09
2.31478e-09
1.97727e-08
1.86396e-09
1.94255e-09
1.99278e-08
1.96503e-09
1.45592e-09
2.01538e-08
2.08888e-09
8.59752e-10
2.03692e-08
2.22217e-09
1.6669e-10
2.05448e-08
2.3486e-09
-5.9576e-10
2.06814e-08
2.44615e-09
-1.38794e-09
2.07863e-08
2.49883e-09
-2.15415e-09
2.08681e-08
2.48913e-09
-2.83988e-09
2.09247e-08
2.41811e-09
-3.40905e-09
2.09442e-08
2.30515e-09
-3.83874e-09
2.09149e-08
2.16791e-09
-4.12413e-09
2.08348e-08
2.02907e-09
-4.2663e-09
2.07294e-08
1.90513e-09
-4.26759e-09
2.06794e-08
1.80889e-09
-4.12328e-09
2.08458e-08
1.74373e-09
-3.81896e-09
2.14602e-08
1.70374e-09
-3.33537e-09
2.2707e-08
1.6681e-09
-2.6643e-09
2.44254e-08
1.59748e-09
-1.84038e-09
2.56933e-08
1.44108e-09
-9.77147e-10
2.46478e-08
1.15725e-09
-2.81641e-10
1.91086e-08
7.47751e-10
8.04051e-09
2.67338e-10
3.96415e-10
7.00526e-09
4.00177e-10
1.22249e-09
1.65774e-08
1.11416e-09
2.12122e-09
2.12066e-08
1.70024e-09
2.83695e-09
2.18783e-08
2.10021e-09
3.2647e-09
2.06015e-08
2.32162e-09
3.41032e-09
1.90527e-08
2.42131e-09
3.32997e-09
1.80205e-08
2.46439e-09
3.08346e-09
1.76e-08
2.49957e-09
2.71246e-09
1.75915e-08
2.55225e-09
2.23914e-09
1.77714e-08
2.62974e-09
1.67262e-09
1.79925e-08
2.72776e-09
1.01922e-09
1.81878e-08
2.83476e-09
2.8904e-10
1.83385e-08
2.93656e-09
-4.95053e-10
1.84507e-08
3.01476e-09
-1.29985e-09
1.85353e-08
3.0558e-09
-2.08067e-09
1.86008e-08
3.04813e-09
-2.79391e-09
1.86455e-08
2.99249e-09
-3.40915e-09
1.86576e-08
2.90183e-09
-3.90865e-09
1.86235e-08
2.79091e-09
-4.28756e-09
1.85349e-08
2.67879e-09
-4.54605e-09
1.84082e-08
2.57977e-09
-4.68119e-09
1.83095e-08
2.50507e-09
-4.6779e-09
1.83842e-08
2.45834e-09
-4.49992e-09
1.88511e-08
2.43118e-09
-4.09571e-09
1.99055e-08
2.39733e-09
-3.4179e-09
2.14405e-08
2.30705e-09
-2.47397e-09
2.26544e-08
2.09491e-09
-1.38712e-09
2.18562e-08
1.70473e-09
-4.35719e-10
1.70273e-08
1.12991e-09
7.18275e-09
4.22047e-10
5.8978e-10
5.82116e-09
5.94329e-10
1.72621e-09
1.38559e-08
1.58513e-09
2.87993e-09
1.76814e-08
2.37144e-09
3.71347e-09
1.81433e-08
2.90152e-09
4.11865e-09
1.70041e-08
3.19221e-09
4.14628e-09
1.57068e-08
3.31827e-09
3.9073e-09
1.48978e-08
3.36172e-09
3.5021e-09
1.4622e-08
3.38321e-09
2.99639e-09
1.46818e-08
3.41536e-09
2.42098e-09
1.48777e-08
3.46905e-09
1.78578e-09
1.5086e-08
3.54171e-09
1.09381e-09
1.52565e-08
3.62334e-09
3.50575e-10
1.53806e-08
3.70111e-09
-4.28406e-10
1.54687e-08
3.76101e-09
-1.21863e-09
1.55332e-08
3.7923e-09
-1.98673e-09
1.55828e-08
3.78613e-09
-2.70035e-09
1.5616e-08
3.7431e-09
-3.33755e-09
1.5622e-08
3.67281e-09
-3.88662e-09
1.55856e-08
3.58702e-09
-4.34698e-09
1.54946e-08
3.50069e-09
-4.72178e-09
1.53564e-08
3.42656e-09
-5.00695e-09
1.52205e-08
3.37415e-09
-5.17684e-09
1.52082e-08
3.34584e-09
-5.17333e-09
1.55175e-08
3.33005e-09
-4.90195e-09
1.63405e-08
3.29358e-09
-4.2612e-09
1.76247e-08
3.17504e-09
-3.21296e-09
1.87136e-08
2.89255e-09
-1.8816e-09
1.8153e-08
2.37186e-09
-6.27464e-10
1.4176e-08
1.5972e-09
5.94146e-09
6.13822e-10
7.80512e-10
4.25512e-09
7.85527e-10
2.21229e-09
1.03767e-08
2.04741e-09
3.58998e-09
1.32732e-08
3.03052e-09
4.49315e-09
1.35469e-08
3.69317e-09
4.82156e-09
1.26167e-08
4.05898e-09
4.68458e-09
1.16263e-08
4.21751e-09
4.25721e-09
1.10593e-08
4.26585e-09
3.68571e-09
1.0917e-08
4.2765e-09
3.05584e-09
1.10223e-08
4.28941e-09
2.40346e-09
1.12104e-08
4.31968e-09
1.73404e-09
1.13883e-08
4.36718e-09
1.04368e-09
1.15227e-08
4.42407e-09
3.29385e-10
1.16146e-08
4.4803e-09
-4.01955e-10
1.16761e-08
4.52393e-09
-1.13512e-09
1.17202e-08
4.54621e-09
-1.84801e-09
1.17547e-08
4.54099e-09
-2.51922e-09
1.17785e-08
4.50869e-09
-3.13564e-09
1.17821e-08
4.45636e-09
-3.69419e-09
1.17509e-08
4.39319e-09
-4.20178e-09
1.1671e-08
4.33117e-09
-4.6678e-09
1.15413e-08
4.28108e-09
-5.09155e-09
1.13935e-08
4.25074e-09
-5.44363e-09
1.13204e-08
4.23994e-09
-5.64354e-09
1.14843e-08
4.23313e-09
-5.55231e-09
1.20593e-08
4.18995e-09
-5.0037e-09
1.30386e-08
4.03753e-09
-3.89986e-09
1.39307e-08
3.67906e-09
-2.35716e-09
1.35848e-08
3.02551e-09
-8.15696e-10
1.05801e-08
2.05444e-09
4.32417e-09
8.016e-10
8.85914e-10
2.47787e-09
8.91336e-10
2.48648e-09
6.46856e-09
2.30755e-09
3.9738e-09
8.37717e-09
3.40874e-09
4.86386e-09
8.4982e-09
4.15866e-09
5.06867e-09
7.83071e-09
4.58122e-09
4.755e-09
7.17137e-09
4.76858e-09
4.15735e-09
6.83366e-09
4.82332e-09
3.45917e-09
6.79068e-09
4.82451e-09
2.75972e-09
6.90302e-09
4.81873e-09
2.09186e-09
7.05297e-09
4.82532e-09
1.45283e-09
7.18013e-09
4.84716e-09
8.279e-10
7.26822e-09
4.87945e-09
2.05316e-10
7.32307e-09
4.91411e-09
-4.17524e-10
7.35727e-09