/*--------------------------------*- C++ -*----------------------------------*\
| =========                 |                                                 |
| \\      /  F ield         | OpenFOAM: The Open Source CFD Toolbox           |
|  \\    /   O peration     | Version:  v1906                                 |
|   \\  /    A nd           | Web:      www.OpenFOAM.com                      |
|    \\/     M anipulation  |                                                 |
\*---------------------------------------------------------------------------*/
FoamFile
{
    version     2.0;
    format      ascii;
    class       volScalarField;
    location    "16";
    object      k;
}
// * * * * * * * * * * * * * * * * * * * * * * * * * * * * * * * * * * * * * //

dimensions      [0 2 -2 0 0 0 0];


internalField   nonuniform List<scalar> 
78750
(
2.03057
0.653017
0.303261
0.0928101
0.00536467
0.00266787
0.002393
0.00140842
0.00206852
0.00153979
0.00191832
0.00157255
0.00180902
0.00161328
0.00170332
0.00162335
0.00163599
0.00159975
0.00158618
0.00156202
0.00154046
0.00151705
0.00149237
0.00146592
0.00143716
0.00140537
0.00136957
0.00132825
0.0012792
0.00121927
0.00114639
0.00105484
0.000937048
0.000719154
0.00021881
0.0637802
0.00548855
0.0112006
0.00292262
0.00318152
0.0032759
0.00313955
0.00323093
0.0031704
0.00324001
0.00323295
0.00328526
0.00330087
0.00333746
0.00335881
0.00338218
0.00339789
0.00341043
0.00341798
0.00342179
0.00342188
0.00341857
0.0034121
0.00340265
0.00339029
0.00337493
0.00335615
0.0033329
0.003303
0.0032623
0.00320399
0.00311101
0.00292982
0.00239842
0.00131445
0.00191764
0.0013099
0.00275698
0.00233115
0.00247918
0.0025294
0.00260585
0.00265
0.00269077
0.00272307
0.00275111
0.00277402
0.00279319
0.00281013
0.00282565
0.0028404
0.00285533
0.00287116
0.00288839
0.00290738
0.00292841
0.00295159
0.00297703
0.00300476
0.00303476
0.00306692
0.00310095
0.00313617
0.00317116
0.00320302
0.0032257
0.00322515
0.00314813
0.00280168
0.00280305
0.00123423
0.00116141
0.00127213
0.00106371
0.000936031
0.00100738
0.00128165
0.00169227
0.00202172
0.00220653
0.00231007
0.00237714
0.00242562
0.00246314
0.00249347
0.00251888
0.00254111
0.00256177
0.00258238
0.00260445
0.00262926
0.00265784
0.00269095
0.00272906
0.00277233
0.00282056
0.00287307
0.00292841
0.00298399
0.00303513
0.0030731
0.00307779
0.00298528
0.0027461
0.00392176
0.000424522
0.000578711
0.000618207
0.000580459
0.000569078
0.00064186
0.000821803
0.00107405
0.00134388
0.00158561
0.00177817
0.00192416
0.00203257
0.00211247
0.00217154
0.00221584
0.00225006
0.00227792
0.00230245
0.00232625
0.00235152
0.00238015
0.00241373
0.00245357
0.00250064
0.00255558
0.00261868
0.00268987
0.00276869
0.00285421
0.00294442
0.00303232
0.00308287
0.00313166
0.0050882
8.53999e-05
0.000508418
0.00068174
0.000747546
0.000775398
0.000801154
0.000860018
0.000961746
0.00107714
0.00119261
0.00130714
0.00141549
0.00151359
0.00160056
0.00167722
0.00174518
0.00180614
0.00186154
0.00191285
0.00196167
0.00200964
0.00205844
0.00210966
0.00216474
0.00222484
0.00229079
0.00236284
0.00244038
0.00252141
0.00260183
0.00267428
0.00272394
0.00275833
0.00314615
0.00600793
0.000262918
0.000894896
0.00112353
0.00121033
0.00123988
0.00124984
0.00125305
0.00126099
0.0012782
0.00130297
0.00133367
0.00136905
0.00140735
0.00144693
0.00148676
0.00152635
0.0015657
0.00160502
0.00164473
0.00168538
0.00172776
0.00177282
0.00182171
0.00187572
0.00193627
0.00200487
0.00208337
0.00217429
0.00228138
0.00241075
0.00257249
0.00277827
0.0030584
0.00371139
0.00674018
0.000352844
0.000900288
0.00108614
0.00113233
0.00111252
0.0011045
0.00114701
0.00122405
0.00129467
0.0013472
0.00138149
0.00139757
0.00140364
0.00140843
0.00141647
0.001429
0.00144544
0.00146534
0.00148878
0.00151622
0.00154817
0.00158516
0.00162768
0.00167625
0.00173138
0.00179345
0.00186257
0.0019386
0.00202139
0.00211218
0.00221751
0.0023613
0.00267461
0.00364323
0.0072108
0.000540845
0.0012801
0.00150763
0.00155903
0.00151059
0.00137726
0.00118532
0.00099043
0.000899847
0.00097469
0.00110035
0.00119548
0.00125824
0.00129878
0.00132494
0.00134358
0.00135982
0.00137645
0.00139475
0.00141562
0.00143973
0.00146843
0.00150411
0.001549
0.00160477
0.00167308
0.00175539
0.00185323
0.00196852
0.00210633
0.00228195
0.00254962
0.00311767
0.00435331
0.00785348
0.000826034
0.00164127
0.00187613
0.00195041
0.00196953
0.00196389
0.0018995
0.00172418
0.0014322
0.00121357
0.00119896
0.00125535
0.00130755
0.00135072
0.00138177
0.00140186
0.00141085
0.00141145
0.0014092
0.00140729
0.0014072
0.00141005
0.00141682
0.00142893
0.00144871
0.00147909
0.0015236
0.00158645
0.00167287
0.00179162
0.00196205
0.00224542
0.00291174
0.00430781
0.00796376
0.00140633
0.00202813
0.00207419
0.00198466
0.00184902
0.00181008
0.00182401
0.00177169
0.00158956
0.00129975
0.00103718
0.000940377
0.000981383
0.00106705
0.00116986
0.00126278
0.00132763
0.00136588
0.00138956
0.00140676
0.00142109
0.00143468
0.00144978
0.0014681
0.00149022
0.00151738
0.00155187
0.00159756
0.00166136
0.00175932
0.00193911
0.00233872
0.00326311
0.00486051
0.00856371
0.00195737
0.00230741
0.00229589
0.00215256
0.00194836
0.00189556
0.0019795
0.00206649
0.00208112
0.00198923
0.00179888
0.00158324
0.00140829
0.00129074
0.00123015
0.00121183
0.00121119
0.00121779
0.00122756
0.00123983
0.00125493
0.00127335
0.00129557
0.00132228
0.00135427
0.00139267
0.00143909
0.00149554
0.00156557
0.00165763
0.00180176
0.00215361
0.00329703
0.00507093
0.00866681
0.0016269
0.00222359
0.00238581
0.00236985
0.00221481
0.00200286
0.00186911
0.00188034
0.00199324
0.00212157
0.00219592
0.002186
0.0021024
0.0019799
0.00185259
0.0017392
0.00164708
0.00157628
0.00152265
0.00148094
0.00144757
0.00142106
0.00140122
0.00138842
0.00138336
0.00138723
0.00140205
0.00143161
0.00148471
0.00158742
0.00182442
0.0024092
0.00371389
0.005484
0.00904175
0.00118914
0.00227832
0.00269742
0.00290625
0.00298713
0.00291556
0.00263314
0.00222367
0.00183744
0.00156861
0.00150969
0.00167962
0.00189978
0.00202307
0.00203945
0.00198103
0.00189066
0.00180009
0.00172189
0.00165671
0.00160188
0.00155518
0.00151531
0.00148159
0.00145412
0.00143365
0.00142107
0.00141686
0.00142088
0.00143646
0.00150638
0.00196579
0.00364675
0.00563468
0.00928692
0.00139164
0.00234282
0.00269713
0.00287947
0.00302969
0.00320189
0.00339341
0.00349078
0.0033748
0.00294562
0.00220774
0.00143095
0.00113439
0.00130158
0.00153574
0.00167602
0.00174015
0.00175638
0.00174266
0.00171353
0.00167921
0.00164544
0.0016149
0.00158861
0.00156676
0.00155008
0.0015405
0.00154227
0.00156448
0.00163298
0.00184774
0.00255713
0.0042742
0.00619455
0.00981827
0.00196596
0.00325666
0.0035093
0.00346202
0.00329132
0.00307057
0.00299901
0.00309648
0.00324063
0.00330514
0.00318752
0.00258343
0.00171193
0.00132401
0.00134472
0.00147573
0.00157813
0.00164046
0.00167912
0.0017003
0.00170533
0.0016972
0.00167947
0.00165458
0.00162409
0.00159024
0.00155436
0.00151648
0.00147648
0.00143813
0.00145343
0.00199428
0.00409027
0.00625148
0.0101137
0.00248693
0.00383089
0.0039608
0.00380632
0.00352706
0.0032999
0.00338038
0.00342182
0.00331514
0.00308045
0.00267069
0.00197493
0.0011253
0.000901195
0.00111591
0.00131773
0.00143794
0.00149194
0.00150948
0.00151342
0.00151663
0.00152306
0.00153307
0.00154691
0.00156489
0.00158666
0.00161286
0.00164448
0.00168523
0.00175168
0.00194623
0.00275653
0.00481275
0.00690062
0.0106861
0.0029833
0.00386468
0.00373886
0.00337261
0.00284016
0.00258146
0.00322427
0.00384202
0.00406972
0.00408383
0.0039721
0.00370134
0.00315359
0.0024074
0.00172055
0.00135883
0.00144223
0.00159599
0.00171367
0.00178215
0.00180763
0.00180375
0.00178154
0.00174662
0.00170331
0.00165809
0.00161779
0.00158709
0.00157051
0.00157953
0.00168088
0.002393
0.00473002
0.00697368
0.0108829
0.00474378
0.00453324
0.00396755
0.00335
0.00277823
0.00266643
0.00324804
0.00367753
0.00381894
0.00385326
0.00382193
0.00371879
0.00350784
0.00310808
0.00245459
0.00170573
0.00123173
0.00114241
0.00120232
0.00129974
0.0014158
0.00152541
0.00161356
0.0016783
0.0017232
0.00175214
0.00176809
0.00177379
0.00177631
0.00180618
0.00200801
0.00290176
0.00521771
0.00745558
0.0113212
0.0057258
0.00419157
0.00317198
0.00266995
0.00312313
0.00371451
0.00392288
0.00398143
0.00402618
0.00403826
0.00400834
0.00393467
0.00381214
0.00362504
0.00333627
0.00289423
0.00234175
0.00189153
0.00165004
0.00154554
0.00151044
0.00150921
0.0015248
0.00154876
0.00157718
0.00160821
0.00164046
0.00167337
0.00171002
0.00177747
0.0020382
0.00311474
0.00548323
0.00771027
0.011507
0.00501381
0.00367714
0.00298334
0.00288646
0.00306691
0.00320378
0.00336491
0.00349031
0.00358197
0.00362067
0.003588
0.00346604
0.00322404
0.00281829
0.00226383
0.00178493
0.00175514
0.00197472
0.00212025
0.00218706
0.00219722
0.00216818
0.00211604
0.00205503
0.00199458
0.00194005
0.00189433
0.00185689
0.00182729
0.00183062
0.00206602
0.00326254
0.00572115
0.00794128
0.0116952
0.00278866
0.00344019
0.00368194
0.00372962
0.00355461
0.00329276
0.00309374
0.0030806
0.00319854
0.00336744
0.00350995
0.00356905
0.00350382
0.00326553
0.00278247
0.00204796
0.00123714
0.000688919
0.000582249
0.000790123
0.00108339
0.0013853
0.00163611
0.00181847
0.00194724
0.00203638
0.00209639
0.00213305
0.00214763
0.00214772
0.00230178
0.00345922
0.00597025
0.00820774
0.0119019
0.00198437
0.00435024
0.00474877
0.00468778
0.00449309
0.00415852
0.00366912
0.00311903
0.00268004
0.00248707
0.00260157
0.00294538
0.00333407
0.00362602
0.00377324
0.0037645
0.00358005
0.00322097
0.0027678
0.00232824
0.00196833
0.00173273
0.00161369
0.00157635
0.00159772
0.001662
0.00175646
0.00187431
0.00201809
0.00219696
0.00247416
0.00351862
0.00599618
0.00828031
0.0120507
0.00241389
0.004221
0.00491234
0.00523724
0.00538521
0.00538836
0.00521266
0.00480007
0.00413067
0.00328578
0.00247282
0.00199317
0.00201738
0.00235647
0.00272064
0.0029975
0.00318488
0.00330486
0.00336865
0.0033595
0.00326357
0.00308487
0.00283526
0.00254025
0.0022433
0.00198917
0.00180987
0.00172366
0.00174319
0.00190815
0.002366
0.00363094
0.006126
0.00845374
0.0124654
0.00281795
0.00394546
0.00449192
0.00481247
0.00503188
0.00519354
0.00530909
0.00536546
0.00528979
0.00491218
0.00410818
0.00304168
0.00220153
0.00203949
0.00230814
0.00257261
0.002714
0.00270878
0.00258736
0.00253264
0.00260066
0.00268195
0.00269707
0.00262709
0.00248751
0.00231395
0.00214441
0.00200814
0.00193174
0.00197794
0.00240151
0.00383866
0.00634681
0.00870788
0.0129801
0.00420695
0.0053069
0.00560652
0.00565928
0.00561031
0.0054821
0.0052796
0.0050218
0.0048241
0.00481658
0.00474936
0.00423553
0.00317345
0.00214444
0.00196796
0.00230255
0.0025737
0.00266885
0.00258333
0.0023521
0.0021173
0.00199534
0.00197966
0.00201588
0.00205998
0.0020912
0.00210507
0.0021058
0.00210476
0.00214384
0.0024732
0.00394368
0.00655569
0.00900012
0.0133973
0.00464054
0.00523402
0.00554887
0.00575853
0.00589462
0.00593463
0.00583543
0.00552524
0.00497685
0.00449239
0.00433033
0.00427895
0.00399505
0.00310422
0.0020907
0.00202491
0.00242269
0.00269671
0.002786
0.00273696
0.00258135
0.00237081
0.00217359
0.00203381
0.0019594
0.00194325
0.00197486
0.00204476
0.0021511
0.00231987
0.00272547
0.00413779
0.00670667
0.00918243
0.0137074
0.00435351
0.00479652
0.00524369
0.00552906
0.00573864
0.00589804
0.00600024
0.00600913
0.00581683
0.00526497
0.00456248
0.00409904
0.00389144
0.00362804
0.0028224
0.00199967
0.00206654
0.0024771
0.00279225
0.00295278
0.00298031
0.00290369
0.00276057
0.00259063
0.00242402
0.0022815
0.00217791
0.00212555
0.00214208
0.00227488
0.00270929
0.00413718
0.0068329
0.00945154
0.0141267
0.0035332
0.00489528
0.00560292
0.00591103
0.00606116
0.00613521
0.00616146
0.00615381
0.00610939
0.00593986
0.00540866
0.00460528
0.00403736
0.00375916
0.00341667
0.00258962
0.00191702
0.00207984
0.00249267
0.00278901
0.00296891
0.00305239
0.00303654
0.00293752
0.00279263
0.00263803
0.00249999
0.00240161
0.00238437
0.00256443
0.00320863
0.00478063
0.00727721
0.00979489
0.0144313
0.00441715
0.00548092
0.00592251
0.00613901
0.00627196
0.00635979
0.00640257
0.00637679
0.00624636
0.0059989
0.00558332
0.00488493
0.00418636
0.00384868
0.00372483
0.00354154
0.00298669
0.00231753
0.00226659
0.00254652
0.00282265
0.00301189
0.00310154
0.00309128
0.00300083
0.00286156
0.00270149
0.00254251
0.0024173
0.00244948
0.0030505
0.00479097
0.00738574
0.00995784
0.014699
0.00518856
0.00555367
0.00573695
0.00582102
0.00586642
0.00590011
0.00593884
0.0059739
0.00595299
0.00579599
0.00545574
0.00493332
0.00432447
0.00384948
0.00354727
0.00327977
0.00287326
0.00218964
0.00195856
0.00224126
0.00256575
0.00280621
0.00296709
0.00305936
0.00309227
0.00307897
0.00303375
0.00297009
0.00291201
0.00297675
0.00361565
0.00542867
0.0078583
0.0103196
0.0149221
0.00517534
0.00597279
0.00617906
0.00621308
0.00619749
0.00617641
0.00615971
0.00610995
0.00600849
0.00586527
0.00566251
0.00536649
0.004978
0.00457302
0.00422996
0.00392931
0.00355869
0.00291215
0.00217164
0.00211447
0.00235974
0.00258004
0.00273522
0.00283021
0.00287935
0.00289787
0.0028977
0.00288909
0.00289484
0.00302374
0.0036991
0.00555587
0.00796986
0.0104018
0.0149843
0.00598078
0.00645047
0.00630758
0.00611567
0.00598626
0.00603249
0.00624768
0.00645925
0.00652066
0.00642902
0.00622142
0.00591035
0.00550112
0.00505562
0.00466589
0.00435465
0.00406171
0.00364268
0.00281344
0.00202726
0.00205442
0.00237767
0.00265662
0.00287066
0.00302495
0.00312673
0.00318616
0.00321305
0.0032277
0.00334394
0.00403971
0.00595183
0.00827975
0.010645
0.0151155
0.00799159
0.00692971
0.00614894
0.0055327
0.00523889
0.00529793
0.00557819
0.00589221
0.0060739
0.00609867
0.00598834
0.00577714
0.00551004
0.00522192
0.00494023
0.00468113
0.00443245
0.00414341
0.00366964
0.00283113
0.00214931
0.00204955
0.00224539
0.00248531
0.0027155
0.00292841
0.00311898
0.00328453
0.00343006
0.00362081
0.00425991
0.00609635
0.00838914
0.0107232
0.0152104
0.00895367
0.00688853
0.0057638
0.00502313
0.00518895
0.00544286
0.00559231
0.00567463
0.00569822
0.00566252
0.00555776
0.00538113
0.00516574
0.00495754
0.0047626
0.00456197
0.00432052
0.00394653
0.00338842
0.00283994
0.00251936
0.00247301
0.00255839
0.00268791
0.00283943
0.00300498
0.00317921
0.00336003
0.00355511
0.00382562
0.0045096
0.0063031
0.00856188
0.0109105
0.0154901
0.00684414
0.00547852
0.00485236
0.00449137
0.00475445
0.00500609
0.00519414
0.00527712
0.00525527
0.00514519
0.00497049
0.0047524
0.00450478
0.00423227
0.00390189
0.00342972
0.00288464
0.00265581
0.00276593
0.00284364
0.00290301
0.00298887
0.00309519
0.00321218
0.00333746
0.00347216
0.00361895
0.00378335
0.00398174
0.00428456
0.00500127
0.00672616
0.00888688
0.0111989
0.015669
0.00612211
0.00605335
0.00569752
0.0049742
0.00396387
0.00370684
0.00416415
0.00458595
0.00477191
0.0047371
0.0045178
0.00416664
0.00374279
0.00335651
0.00317478
0.00312188
0.00287576
0.00260119
0.00259637
0.0027208
0.00287239
0.00303963
0.00321313
0.00338718
0.0035609
0.00373555
0.00391298
0.00409897
0.00431779
0.00466439
0.00544967
0.00714955
0.00920219
0.0114242
0.015632
0.00653588
0.00648126
0.00614676
0.00558088
0.00442649
0.00304768
0.00325835
0.00403449
0.00451942
0.00471132
0.00465362
0.0043415
0.00377507
0.00301786
0.00231371
0.00225109
0.00286541
0.00318307
0.00328369
0.00331626
0.00333518
0.00337272
0.0034437
0.00355296
0.00370215
0.00389239
0.00412318
0.00438932
0.00469072
0.00510067
0.00592892
0.00759265
0.00949235
0.0115609
0.0155042
0.00602483
0.00571888
0.00552273
0.00520389
0.0045545
0.00307792
0.00244327
0.003333
0.00405488
0.00447819
0.00469228
0.00471169
0.00449829
0.00399801
0.00318827
0.00221064
0.00154715
0.00166884
0.00220273
0.00269256
0.00307436
0.00335655
0.00356359
0.0037225
0.00386519
0.00402563
0.00423482
0.00451972
0.00489972
0.00542912
0.00636693
0.00802977
0.00977335
0.0116905
0.0154671
0.00634259
0.00614371
0.00600462
0.00570992
0.00510953
0.00398525
0.00235217
0.00236358
0.00305252
0.00367815
0.00414306
0.00446205
0.00462603
0.00461076
0.00439918
0.0039674
0.00331159
0.00260964
0.00211594
0.00195382
0.00209288
0.00240923
0.00280695
0.0032223
0.00361882
0.00398227
0.00433465
0.00471899
0.00519663
0.00585174
0.00688929
0.00849067
0.0100461
0.0117877
0.0153759
0.00595658
0.00589391
0.00597941
0.00600113
0.00589714
0.00549521
0.00437734
0.00279257
0.00233071
0.00267434
0.00326062
0.00378063
0.00417435
0.00444128
0.00457164
0.00455435
0.00438117
0.00405255
0.00361196
0.00316495
0.00283034
0.00266147
0.002657
0.00280882
0.0031047
0.003516
0.00400536
0.00454451
0.0051712
0.00599195
0.00718217
0.00877167
0.0102002
0.0118202
0.01545
0.00511316
0.00571286
0.00606078
0.00625445
0.00638417
0.00643517
0.00626025
0.0052115
0.00344254
0.00229872
0.00219485
0.00268158
0.00323687
0.0036571
0.00393528
0.00409872
0.00416284
0.00412695
0.00397875
0.00371485
0.00337773
0.00306989
0.0028822
0.00285122
0.00299466
0.00332871
0.00384938
0.00451042
0.00528137
0.00623384
0.00752776
0.00907615
0.0104007
0.0119564
0.0157098
0.00493075
0.00580647
0.00617153
0.0063282
0.00640817
0.00646518
0.00652767
0.00654528
0.00588276
0.00422794
0.00266959
0.00211786
0.00245686
0.00307969
0.00359045
0.00391059
0.00407138
0.00410635
0.00403355
0.00385526
0.00357135
0.00322743
0.00293769
0.00280408
0.00286707
0.00314336
0.00365386
0.00439882
0.00533057
0.00645149
0.00784732
0.00935434
0.0105997
0.0121065
0.0159591
0.00493387
0.00565912
0.00596376
0.00609956
0.00615536
0.00615931
0.00615029
0.0062131
0.0063956
0.00622909
0.00505438
0.00333635
0.00223692
0.00225476
0.00287354
0.00343144
0.00375139
0.00387734
0.00385707
0.00370791
0.00343315
0.00308437
0.00279873
0.00268924
0.00277812
0.00306649
0.00358327
0.00436925
0.00541893
0.00669343
0.00816769
0.00961605
0.0107867
0.0122487
0.0161896
0.00558213
0.00630557
0.00653718
0.00662924
0.00665373
0.00661555
0.00649888
0.0063055
0.00618279
0.00635279
0.00652451
0.00602709
0.00453045
0.00279001
0.00216144
0.0025981
0.00313355
0.00345196
0.00356546
0.00350123
0.0032726
0.00293308
0.00264531
0.00257717
0.00274916
0.00311096
0.0036542
0.00443518
0.00552921
0.00691652
0.00845351
0.00984563
0.010958
0.012398
0.0164497
0.00617447
0.00637081
0.00639921
0.00640479
0.00639052
0.0063534
0.00631574
0.00628785
0.00613113
0.00587852
0.00590418
0.00616011
0.0062566
0.00537632
0.0030465
0.00183772
0.00214421
0.00271291
0.00309579
0.00328369
0.00329208
0.00311541
0.00283113
0.00264267
0.00271551
0.00307166
0.00366334
0.00448115
0.00559512
0.00704206
0.0086336
0.0100074
0.0110972
0.0125462
0.0167827
0.00705554
0.00666662
0.00649249
0.00637213
0.0062306
0.00603256
0.00584678
0.00583613
0.00594862
0.00587727
0.00554143
0.00520501
0.00504597
0.00493411
0.00394431
0.00231673
0.00201013
0.00251043
0.00293465
0.00318095
0.00328909
0.00325975
0.00310691
0.00293676
0.00291955
0.00317882
0.00374404
0.00458851
0.00572106
0.00718605
0.00879814
0.0101604
0.0112455
0.0127352
0.0172147
0.00723779
0.00661234
0.0063768
0.00620145
0.00596987
0.00563421
0.00533656
0.00524107
0.00536381
0.00551862
0.0054871
0.00509967
0.00429402
0.00320152
0.00216057
0.00209449
0.00263095
0.00304541
0.00331317
0.00349209
0.00359463
0.00360305
0.00351013
0.00336872
0.00331371
0.00350981
0.00405402
0.00492537
0.00608044
0.00752979
0.00909536
0.0104012
0.0114696
0.0129998
0.0175598
0.00762561
0.00679961
0.00646041
0.00618009
0.00579935
0.00528622
0.00492041
0.00476123
0.00469663
0.00470303
0.00467435
0.00441881
0.00369909
0.00269181
0.00226466
0.00278311
0.00320294
0.00348701
0.00370334
0.00386963
0.00397949
0.0040177
0.0039735
0.00386954
0.0037989
0.0039311
0.00443458
0.00533636
0.00654531
0.00799104
0.00948062
0.0106987
0.0117252
0.0132395
0.0176219
0.00751814
0.00657618
0.00621038
0.00586946
0.00535081
0.00463986
0.00419317
0.0041245
0.00405385
0.00384392
0.00351369
0.00310587
0.00274936
0.00267977
0.00298184
0.00336458
0.00365421
0.00389037
0.00409077
0.004255
0.00437469
0.00443695
0.00443041
0.00436349
0.00429926
0.00439098
0.00484737
0.00575803
0.00701464
0.00846177
0.00986845
0.0109886
0.0119554
0.0134042
0.0174731
0.00744042
0.00673911
0.00641745
0.00607143
0.00551602
0.00466216
0.00389643
0.00364305
0.00364516
0.00356785
0.0033137
0.00298331
0.00282544
0.00298734
0.00331039
0.00362513
0.0038976
0.00413923
0.00435468
0.00454141
0.00469115
0.00479171
0.00483084
0.00480837
0.00476625
0.00483751
0.00525227
0.00615948
0.00744603
0.00888831
0.010218
0.0112494
0.0121539
0.0135155
0.0172451
0.00717532
0.00659503
0.00626099
0.00589694
0.00533431
0.00451265
0.00367341
0.00313509
0.00295766
0.00294207
0.00295355
0.00296329
0.00304047
0.00324533
0.00350657
0.00377399
0.00403502
0.00428529
0.00452001
0.00473386
0.00491836
0.00506165
0.00515049
0.00517869
0.00517164
0.00523946
0.00561899
0.00652002
0.0078295
0.00925109
0.0105041
0.0114593
0.0123059
0.0135758
0.0169896
0.00722308
0.00675844
0.00638129
0.00596673
0.0053574
0.00454378
0.00376837
0.00319792
0.00287871
0.0027346
0.00273343
0.00288143
0.00312285
0.00337543
0.00361737
0.00385758
0.00410561
0.00436049
0.00461328
0.00485475
0.00507528
0.00526347
0.00540572
0.00549112
0.00553002
0.00560349
0.00593434
0.006801
0.00814132
0.00955726
0.0107429
0.0116314
0.0124203
0.0135953
0.0167629
0.0075255
0.00681932
0.00628608
0.00574668
0.00499433
0.00416471
0.00349147
0.00295194
0.00265441
0.00255453
0.00260805
0.00283907
0.00318473
0.00349387
0.00374322
0.00396751
0.00419573
0.00443923
0.00469369
0.00494908
0.00519452
0.00541879
0.00560854
0.00574973
0.00583979
0.00592664
0.00618948
0.0069449
0.00826754
0.00971269
0.0108806
0.0117356
0.0124875
0.0136023
0.0166966
0.00806178
0.00683826
0.00612311
0.00541749
0.00441575
0.00350386
0.00306143
0.00269468
0.00237882
0.00225713
0.0023956
0.00280512
0.00328642
0.00364126
0.00390085
0.00412368
0.00434609
0.00458367
0.00483612
0.00509619
0.00535457
0.00560199
0.00582734
0.00601663
0.00615962
0.00627712
0.00649213
0.00709862
0.00831034
0.00976401
0.0109491
0.0118027
0.0125429
0.0136406
0.0168137
0.00826188
0.00674916
0.00596426
0.00517317
0.00403674
0.00299069
0.00257601
0.00241038
0.00222503
0.00212485
0.002263
0.00271069
0.00327255
0.00368838
0.00398207
0.0042252
0.00446031
0.0047064
0.00496607
0.00523479
0.0055056
0.00577188
0.00602568
0.00625491
0.00644555
0.00659968
0.00679102
0.00725666
0.00828869
0.00969193
0.0109091
0.0117936
0.0125531
0.0136882
0.0171267
0.00814634
0.00653899
0.00581652
0.0050476
0.00387452
0.00260974
0.00194961
0.00178381
0.00172599
0.0017719
0.00209524
0.0027171
0.00334246
0.00377568
0.00408329
0.00434191
0.00459265
0.00485356
0.00512712
0.00540956
0.00569554
0.00598126
0.00626277
0.00653144
0.00677196
0.00697332
0.0071723
0.00754542
0.00839903
0.00969819
0.0109194
0.0118344
0.0126296
0.0138428
0.0175737
0.00741413
0.00642549
0.00601989
0.00552992
0.00466315
0.00325208
0.00191709
0.00133947
0.00121636
0.00126736
0.00159316
0.00232044
0.00310332
0.00365757
0.00404104
0.00434853
0.00463659
0.00492987
0.0052318
0.00553803
0.00584452
0.00615191
0.00646282
0.00677497
0.00707456
0.00734128
0.00758627
0.00793882
0.00867849
0.00986385
0.0110455
0.0119626
0.0127843
0.014059
0.0178474
0.00691509
0.00654691
0.00638512
0.00615059
0.005675
0.00461518
0.00280947
0.00120591
0.000537562
0.000507031
0.000821229
0.00167958
0.00268606
0.00340747
0.00389276
0.00426457
0.0046045
0.00494753
0.00529819
0.00564739
0.00598688
0.00631942
0.00665734
0.00701273
0.00738331
0.00774533
0.00808629
0.00849371
0.00919239
0.010257
0.0113317
0.0121902
0.012986
0.0142259
0.0177227
0.00652371
0.00643136
0.00637738
0.00628399
0.00611121
0.00570184
0.00456786
0.00248149
0.000612998
0.000304863
2.8928e-07
0.000681589
0.00195022
0.00292926
0.00358243
0.00406186
0.00447493
0.00488118
0.00529503
0.0057057
0.00609667
0.00646456
0.00682437
0.0072024
0.00762054
0.00807436
0.0085398
0.00905635
0.0097765
0.0107404
0.0116781
0.0124377
0.013157
0.0142671
0.017275
0.00647016
0.0064363
0.00636069
0.00625589
0.00611156
0.00589744
0.00546987
0.00422989
0.00190063
0.000203224
0.000325185
0.000361365
0.00118123
0.00240039
0.00324296
0.00383486
0.00431992
0.00478495
0.00526135
0.00574106
0.00619815
0.00661809
0.00701147
0.00740931
0.00785158
0.00836476
0.00893778
0.00956376
0.0103138
0.0111935
0.0120062
0.0126642
0.013286
0.0142289
0.0168482
0.00654004
0.00648652
0.0063857
0.00626142
0.00609753
0.00587895
0.0056071
0.00516956
0.00383502
0.00128571
0.000361309
0.000103248
0.00024286
0.00165015
0.00275725
0.00350757
0.00409111
0.0046212
0.00516129
0.00571801
0.00625731
0.00674393
0.00717623
0.00758573
0.00802348
0.00854442
0.00917225
0.00987724
0.0106366
0.0114214
0.0121131
0.0126738
0.0132069
0.01405
0.0168008
0.00680907
0.00672647
0.00658118
0.00642609
0.00622442
0.00592645
0.00551283
0.00507338
0.00455856
0.00285133
0.000668283
1.46637e-05
1.04799e-05
0.00119052
0.00243281
0.00329458
0.00394013
0.00451129
0.00509139
0.00570923
0.00633511
0.00690985
0.00740139
0.00782804
0.00824282
0.00872045
0.00933496
0.0100967
0.0109202
0.0116868
0.012306
0.0127945
0.013273
0.0141209
0.0173287
0.00733172
0.00689032
0.0066109
0.00640549
0.00618188
0.0058635
0.00537104
0.00470526
0.00408445
0.00325966
0.00126514
0.000170566
0.000230767
0.000577867
0.0020334
0.00308298
0.00381456
0.00444003
0.00506593
0.00574408
0.00645824
0.00714248
0.00773417
0.00822257
0.00864403
0.00906509
0.00957732
0.0102573
0.011068
0.0118461
0.0124622
0.012941
0.0134217
0.0143325
0.0178784
0.0080431
0.00697599
0.00651681
0.00622273
0.00590857
0.00546152
0.00481308
0.00397456
0.00310439
0.00239363
0.00113638
0.000195583
0.000323869
0.00036357
0.00212178
0.00319496
0.00391123
0.00453046
0.00516465
0.00586865
0.0066319
0.00739224
0.00807895
0.0086644
0.00916869
0.00963597
0.0101198
0.0106722
0.0113004
0.0119199
0.0124416
0.0128872
0.0133854
0.0143814
0.018073
0.00856707
0.00696335
0.00643788
0.00610666
0.00569895
0.00504197
0.00406945
0.00293006
0.00187323
0.0010835
0.000531068
0.000268648
0.000192046
0.000833188
0.00249416
0.00349978
0.0041661
0.00475454
0.00537297
0.00607882
0.00686747
0.00767404
0.00841574
0.00905567
0.00962005
0.010172
0.0107679
0.0114071
0.0120264
0.012554
0.0129723
0.0133385
0.0137782
0.014694
0.0179686
0.00849044
0.00677715
0.00631548
0.00600007
0.00553446
0.00470051
0.0034302
0.00193328
0.000674021
0.000197675
0.000208917
4.89646e-05
0.000329593
0.00128339
0.00290261
0.00382864
0.0044444
0.0050019
0.0056031
0.00630097
0.00710532
0.00797057
0.00880033
0.00950658
0.0100712
0.0105602
0.0110842
0.0117009
0.01234
0.0128847
0.0132999
0.0136362
0.014006
0.0147507
0.0174921
0.00800394
0.00662692
0.00629079
0.00604424
0.00564982
0.00490435
0.0036718
0.00203635
0.000522455
0.000198344
4.52047e-06
0.000170184
0.000468904
0.00141146
0.00313379
0.00408529
0.00468198
0.00523129
0.00584699
0.00656182
0.00735757
0.00821085
0.00910187
0.00996417
0.0106954
0.0112416
0.0116543
0.0120366
0.0124266
0.0127823
0.0130778
0.0133418
0.0136672
0.0143914
0.0171611
0.00763631
0.00659998
0.00633854
0.00616592
0.0059166
0.00543692
0.00453991
0.00311824
0.00131977
4.63556e-05
0.00023979
7.77801e-05
0.00012729
0.000820692
0.00262688
0.00401653
0.00474197
0.00534038
0.00601106
0.00682547
0.0077154
0.00854742
0.00932638
0.0101454
0.0110114
0.0118209
0.0124655
0.0129279
0.0132532
0.0134841
0.0136581
0.0138232
0.0140646
0.014672
0.0170104
0.00745372
0.00655231
0.00631989
0.00618204
0.00600545
0.00569491
0.00512837
0.00415663
0.00260604
0.000598742
2.52312e-05
9.15405e-05
0.000281459
0.000113707
0.00176114
0.00373179
0.00467299
0.00536442
0.00609141
0.00699494
0.00806627
0.00907923
0.00983764
0.0104288
0.0110322
0.0117226
0.0124374
0.0130628
0.0135313
0.0138394
0.0140218
0.0141344
0.0142632
0.0146419
0.0163723
0.0075006
0.00656742
0.0063263
0.00618627
0.00600498
0.00569565
0.00520734
0.00449513
0.00344785
0.0018915
0.000286798
2.50376e-05
0.000160923
0.000278636
0.000692196
0.00311859
0.00445935
0.00528041
0.00608324
0.00704398
0.00822587
0.0095139
0.0106174
0.0113454
0.0117718
0.0120746
0.0123732
0.0126868
0.0129766
0.0132057
0.0133677
0.0134896
0.0136391
0.0140193
0.015456
0.00748231
0.00648021
0.00624442
0.00612571
0.0059782
0.00570971
0.00526071
0.00463125
0.00379115
0.00256916
0.000792076
0.000211744
0.000156393
0.000291069
8.26771e-05
0.00186714
0.00402859
0.00501851
0.00585682
0.00680786
0.00794511
0.00922939
0.0105738
0.0118058
0.0127209
0.0132627
0.0135226
0.0136259
0.0136634
0.0136848
0.0137107
0.0137478
0.0138039
0.013943
0.0146611
0.0075121
0.00642896
0.00618606
0.00607469
0.00595055
0.00572884
0.0053496
0.00480787
0.00409695
0.00315051
0.00178692
2.00277e-05
0.000241895
2.09879e-05
0.00029893
0.00114947
0.00364241
0.00474603
0.0054959
0.00628622
0.00726422
0.00835426
0.00940368
0.0104913
0.0116696
0.0127821
0.0136492
0.0142068
0.0144861
0.0145499
0.0144569
0.0142563
0.0139974
0.0138096
0.015162
0.00739141
0.00626771
0.00602733
0.00592146
0.00581653
0.00564015
0.0053333
0.00488238
0.00428487
0.00348623
0.00233895
0.000780922
0.000186039
7.35189e-06
0.000159911
0.00023147
0.00299894
0.00478987
0.00546853
0.00599788
0.00668702
0.007678
0.00869747
0.00942756
0.0101009
0.0108828
0.0117166
0.0124694
0.0130421
0.0133942
0.0135347
0.0135227
0.0134951
0.0138699
0.0170192
0.00731379
0.00617786
0.005929
0.00581378
0.00571398
0.00556845
0.0053165
0.0049381
0.00442593
0.00373282
0.00276149
0.00140799
0.000139943
0.000159547
0.000381781
0.000602915
0.0022722
0.00515574
0.00590533
0.0061644
0.00640466
0.00712489
0.00873952
0.0103061
0.0111148
0.0114887
0.0117171
0.0119174
0.0121143
0.0123038
0.0124939
0.0127306
0.0131421
0.0141348
0.016786
0.0070713
0.0059892
0.00574093
0.00562322
0.00554961
0.00546793
0.00529887
0.00501528
0.00460584
0.00402777
0.00319653
0.00198945
0.000508125
0.000381028
0.000139774
0.000334834
0.00162174
0.00535962
0.00735178
0.00760182
0.00720269
0.00693415
0.0081598
0.010497
0.0124094
0.0135851
0.0142216
0.0145035
0.0145745
0.0145419
0.0144845
0.0144585
0.0144902
0.0144756
0.013337
0.0068749
0.00586672
0.00559734
0.00545904
0.00540183
0.00538222
0.00529133
0.00509916
0.00480325
0.0043749
0.00373783
0.00277745
0.00140574
1.07996e-05
0.000253619
0.000115203
0.000426231
0.00286586
0.00658346
0.00908356
0.00976053
0.0093606
0.00895825
0.00948577
0.0105121
0.0116782
0.0127709
0.0136391
0.0142251
0.0145232
0.0145464
0.0142926
0.0136417
0.0121897