/*--------------------------------*- C++ -*----------------------------------*\
| =========                 |                                                 |
| \\      /  F ield         | OpenFOAM: The Open Source CFD Toolbox           |
|  \\    /   O peration     | Version:  v1906                                 |
|   \\  /    A nd           | Web:      www.OpenFOAM.com                      |
|    \\/     M anipulation  |                                                 |
\*---------------------------------------------------------------------------*/
FoamFile
{
    version     2.0;
    format      ascii;
    class       volScalarField;
    location    "16";
    object      T;
}
// * * * * * * * * * * * * * * * * * * * * * * * * * * * * * * * * * * * * * //

dimensions      [0 0 0 1 0 0 0];


internalField   nonuniform List<scalar> 
78750
(
302.384
302.083
301.807
301.671
302.165
303.016
303.198
303.802
304.026
304.5
304.761
305.146
305.429
305.759
306.055
306.362
306.662
306.965
307.272
307.584
307.907
308.244
308.601
308.986
309.407
309.878
310.416
311.047
311.811
312.768
314.004
315.703
318.294
325.906
447.506
309.427
305.792
299.708
295.532
293.972
293.673
293.744
293.937
294.251
294.554
294.896
295.213
295.533
295.83
296.121
296.408
296.693
296.973
297.252
297.531
297.812
298.098
298.394
298.707
299.046
299.42
299.846
300.346
300.953
301.726
302.775
304.399
307.884
323.346
443.37
311.816
312.27
308.8
307.858
306.314
305.506
304.763
304.311
304.038
303.884
303.795
303.747
303.728
303.728
303.745
303.781
303.828
303.883
303.945
304.015
304.095
304.187
304.299
304.437
304.616
304.853
305.176
305.626
306.273
307.241
308.791
311.642
318.649
344.543
457.059
308.449
311.47
311.938
312.697
313.938
315.008
315.479
315.032
313.938
312.845
311.982
311.316
310.787
310.36
310.013
309.73
309.499
309.311
309.157
309.031
308.929
308.85
308.794
308.764
308.769
308.821
308.943
309.169
309.558
310.221
311.412
313.96
321.617
352.492
465.814
304.343
307.933
310.186
312.229
314.172
316.066
317.582
318.343
318.398
317.985
317.371
316.738
316.168
315.686
315.284
314.949
314.666
314.424
314.213
314.027
313.861
313.716
313.591
313.494
313.434
313.432
313.521
313.758
314.248
315.195
317.084
321.319
332.817
367.791
473.329
306.562
313.035
316.273
318.108
319.195
319.889
320.341
320.564
320.583
320.442
320.165
319.791
319.373
318.96
318.583
318.261
317.999
317.794
317.639
317.526
317.444
317.383
317.337
317.3
317.273
317.261
317.279
317.359
317.567
318.054
319.255
322.816
335.723
376.945
481.818
312.517
322.83
327.671
330.245
330.734
329.891
328.624
327.508
326.677
326.049
325.531
325.06
324.603
324.152
323.709
323.281
322.874
322.496
322.152
321.848
321.585
321.367
321.195
321.073
321.01
321.021
321.138
321.424
322.014
323.228
325.907
332.525
350.306
391.686
485.84
311.573
319.467
323.646
327.302
329.976
331.533
331.894
331.372
330.553
329.625
328.56
327.534
326.702
326.059
325.552
325.144
324.81
324.53
324.29
324.085
323.91
323.764
323.649
323.565
323.509
323.483
323.494
323.563
323.752
324.233
325.601
330.381
348.324
393.971
489.257
307.853
316.013
319.836
322.358
324.556
326.672
328.718
330.65
332.225
332.796
332.331
331.478
330.572
329.713
328.957
328.313
327.764
327.296
326.889
326.534
326.234
325.987
325.79
325.656
325.605
325.663
325.862
326.268
327.023
328.498
331.819
340.654
364.742
409.381
492.523
310.868
321.734
326.697
329.819
332.127
333.317
333.432
332.992
332.624
332.579
332.463
332.235
331.959
331.618
331.224
330.744
330.17
329.607
329.134
328.736
328.382
328.068
327.795
327.559
327.366
327.237
327.209
327.341
327.752
328.728
331.207
338.942
363.885
409.856
492.02
312.099
322.657
327.293
330.911
335.063
338.206
339.411
339.107
337.961
336.628
335.574
334.827
334.328
333.878
333.311
332.596
331.85
331.223
330.715
330.282
329.907
329.582
329.284
329.008
328.78
328.626
328.583
328.725
329.224
330.541
334.182
345.09
374.403
418.842
492.964
312.277
322.175
326.761
330.552
334.751
337.847
339.332
339.659
339.317
338.559
337.583
336.604
335.733
334.942
334.197
333.575
333.039
332.532
332.038
331.556
331.108
330.716
330.387
330.115
329.903
329.762
329.722
329.847
330.272
331.366
334.491
345.476
378.725
422.96
492.194
312.456
322.592
326.945
330.073
333.109
336.023
338.473
340.088
340.823
340.854
340.417
339.696
338.81
337.859
336.916
336.031
335.244
334.569
333.995
333.489
333.024
332.589
332.184
331.814
331.49
331.234
331.088
331.145
331.626
333.161
337.807
351.791
386.68
427.812
491.171
309.424
320.605
325.267
327.698
329.426
331.11
333.123
335.19
336.908
338.152
338.825
338.92
338.654
338.197
337.566
336.791
335.991
335.268
334.647
334.113
333.642
333.218
332.831
332.479
332.157
331.868
331.624
331.457
331.463
331.978
334.697
347.929
387.376
428.73
489.71
310.814
322.964
328.522
331.779
334.325
336.4
337.761
338.506
338.958
339.337
339.643
339.569
338.944
338.047
337.223
336.558
335.959
335.376
334.824
334.328
333.896
333.523
333.202
332.933
332.719
332.577
332.549
332.733
333.365
335.182
340.879
358.684
397.862
435.88
492.177
311.93
323.931
329.044
331.839
334.089
336.596
339.078
340.881
341.818
342.141
342.138
341.793
340.93
339.906
338.835
337.837
337.083
336.534
336.062
335.609
335.177
334.767
334.382
334.007
333.633
333.27
332.929
332.636
332.467
332.723
335.247
350.564
394.3
433.524
489.454
313.404
326.058
331.656
334.783
337.368
340.357
342.766
343.943
344.354
344.329
343.93
342.939
341.044
338.783
337.54
336.836
336.301
335.82
335.364
334.948
334.585
334.275
334.012
333.803
333.663
333.609
333.68
333.969
334.736
336.842
343.501
364.11
405.279
441.545
494.609
311.995
324.371
330.771
334.493
337.229
340.637
343.657
344.624
344.709
344.605
344.426
344.12
343.51
342.404
340.843
338.847
337.422
336.617
336.078
335.703
335.436
335.228
335.041
334.846
334.636
334.429
334.267
334.208
334.37
335.177
339.051
357.614
402.561
439.917
492.71
314.774
329.705
337.275
341.319
342.94
345.113
347.752
348.019
347.672
347.313
346.932
346.485
345.894
345.002
343.593
341.576
339.417
337.932
337.096
336.489
335.974
335.575
335.292
335.106
335.003
334.988
335.107
335.474
336.391
338.78
345.804
366.685
408.711
444.296
495.813
322.685
337.887
345.558
347.803
345.605
345.33
345.867
346.133
346.287
346.326
346.265
346.122
345.895
345.552
345.003
344.083
342.697
341.153
339.926
339.034
338.332
337.739
337.219
336.758
336.354
336.03
335.843
335.907
336.529
338.774
346.592
369.74
411.148
446.299
497.639
330.476
346.18
349.787
349.041
347.544
347.201
347.111
347.016
346.86
346.65
346.383
346.029
345.516
344.712
343.461
341.818
340.437
339.806
339.434
339.108
338.775
338.421
338.051
337.679
337.325
337.016
336.8
336.778
337.241
339.323
347.602
372.711
414.311
448.9
499.633
325.498
336.144
338.101
339.96
342.099
344.136
345.802
346.856
347.325
347.372
347.171
346.831
346.372
345.723
344.727
343.193
341.13
339.019
337.447
336.693
336.459
336.505
336.677
336.894
337.132
337.404
337.748
338.262
339.227
341.662
349.924
375.567
417.139
451.491
501.911
315.09
322.978
327.505
330.908
333.928
337.162
340.596
343.733
346.164
347.688
348.326
348.346
348.083
347.73
347.325
346.815
346.085
345.032
343.706
342.294
340.977
339.931
339.205
338.727
338.448
338.376
338.551
339.08
340.262
343.044
350.868
374.536
415.891
450.797
501.554
309.069
319.577
327.063
331.728
335.054
337.788
340.327
342.935
345.548
347.765
349.132
349.508
349.16
348.56
347.989
347.475
346.977
346.482
346.001
345.494
344.9
344.181
343.331
342.383
341.416
340.54
339.885
339.641
340.185
342.757
351.582
375.743
415.985
450.848
501.914
310.285
325.047
332.852
337.146
340.041
342.275
344.168
346.049
348.237
350.551
352.223
352.743
352.076
350.728
349.434
348.424
347.508
346.436
345.196
344.207
343.66
343.329
342.993
342.556
342.015
341.435
340.931
340.678
341.057
343.437
352.941
378.796
418.207
452.509
503.265
313.274
326.393
331.9
334.908
337.23
339.459
341.855
344.636
347.88
351.115
353.584
354.93
354.901
353.401
351.348
349.71
348.504
347.371
346.017
344.444
343.025
342.068
341.534
341.256
341.108
341.034
341.043
341.22
341.859
344.172
353.343
380.098
419.802
453.979
504.488
314.981
327.26
332.792
336.096
338.667
340.894
342.999
345.34
348.303
351.661
354.438
356.038
356.641
356
353.736
351.318
349.639
348.462
347.448
346.372
345.158
343.914
342.831
342.027
341.518
341.297
341.381
341.847
342.979
345.9
355.147
381.233
420.383
454.416
504.898
314.682
326.514
332.072
335.479
338.222
340.69
342.925
344.915
346.843
349.187
352.062
354.718
356.359
356.91
355.927
353.185
350.845
349.496
348.549
347.671
346.745
345.762
344.775
343.863
343.092
342.521
342.229
342.35
343.218
346.018
355.118
380.463
419.974
454.27
504.592
310.689
323.104
330.28
334.402
337.374
340.014
342.579
344.999
346.987
348.523
350.149
352.459
354.923
356.508
356.933
355.474
352.166
349.562
348.392
347.807
347.306
346.698
345.946
345.127
344.364
343.775
343.487
343.719
345.059
349.374
361.39
387.726
423.915
456.959
507.449
311.301
325.481
333.107
337.518
340.795
343.701
346.396
348.861
350.956
352.415
353.175
353.762
355.001
356.488
357.375
357.554
356.491
353.424
350.535
348.894
347.98
347.299
346.63
345.912
345.181
344.513
344.008
343.834
344.474
347.822
359.761
387.391
424.035
457.149
507.606
313.581
328.445
335.408
339.482
342.875
346.258
349.551
352.449
354.8
356.529
357.519
357.779
357.742
357.867
357.943
357.669
356.646
353.81
350.062
347.716
346.58
345.982
345.59
345.291
345.071
344.966
345.069
345.596
347.186
352.069
366.189
395.022
428.867
460.615
511.064
314.55
329.337
336.238
340.525
344.332
347.899
350.602
352.326
353.593
354.882
356.264
357.495
358.297
358.65
358.712
358.545
357.988
356.344
352.726
349.541
347.86
346.865
346.152
345.603
345.19
344.938
344.926
345.359
346.865
351.674
365.92
395.407
429.164
460.762
511.275
314.212
330.013
338.206
343.884
349.244
353.627
356.17
356.93
356.658
356.16
355.972
356.376
357.278
358.203
358.762
358.914
358.724
357.996
355.616
350.956
347.432
346.068
345.583
345.402
345.375
345.477
345.769
346.468
348.292
353.739
369.238
399.569
431.801
462.527
512.933
318.875
335.757
344.396
351.343
357.356
360.695
362.194
362.415
361.84
360.865
359.745
358.797
358.34
358.382
358.619
358.787
358.782
358.54
357.738
355.253
351.199
347.985
346.405
345.773
345.617
345.789
346.286
347.251
349.248
354.41
369.107
399.388
431.545
462.13
512.629
328.337
342.534
351.225
359.658
363.023
363.099
362.817
362.573
362.301
361.922
361.37
360.644
359.885
359.281
358.855
358.508
358.092
357.262
355.391
352.567
349.783
347.887
346.841
346.292
346.074
346.163
346.618
347.637
349.853
355.374
370.026
399.714
431.363
461.741
512.23
325.293
339.114
347.076
354.867
358.764
360.035
360.358
360.328
360.155
359.877
359.496
359.011
358.414
357.706
356.819
355.467
353.376
351.152
349.71
348.753
347.984
347.446
347.154
347.075
347.199
347.562
348.275
349.617
352.354
358.685
373.884
402.737
432.842
462.546
513.046
320.658
334.621
339.728
344.478
352.373
359.118
361.975
362.457
362.056
361.264
360.217
358.941
357.4
355.632
353.987
352.704
351.266
349.548
348.269
347.587
347.234
347.105
347.167
347.406
347.831
348.488
349.49
351.144
354.314
361.374
377.34
405.686
434.054
462.89
513.671
317.636
331.056
336.504
340.056
345.162
354.037
360.265
362.204
362.36
361.939
361.171
360.006
358.303
355.843
352.648
349.927
349.224
349.211
349.078
348.855
348.622
348.46
348.434
348.596
349.011
349.779
351.075
353.246
357.13
364.978
381.466
408.986
435.449
463.338
514.619
316.946
332.824
340.373
344.822
348.486
353.846
360.652
363.315
363.578
363.183
362.544
361.686
360.529
358.874
356.358
352.727
348.851
346.676
346.493
347.002
347.641
348.279
348.892
349.504
350.189
351.095
352.498
354.927
359.446
368.336
385.696
412.443
437.057
463.98
515.712
318.519
335.263
342.032
346.1
349.547
352.882
358.072
362.114
363.404
363.487
363.103
362.477
361.677
360.724
359.545
357.924
355.611
352.763
350.127
348.357
347.602
347.636
348.225
349.208
350.495
352.096
354.2
357.355
362.791
372.874
390.981
416.517
439.302
465.208
517.236
319.578
334.224
340.274
344.286
347.719
350.852
354.109
358.637
361.795
363.142
363.348
363.024
362.464
361.774
361.005
360.14
359.077
357.679
355.919
353.997
352.275
351.01
350.298
350.208
350.833
352.24
354.516
358.015
363.93
374.796
393.61
418.454
440.127
465.289
517.606
317.55
331.241
337.001
340.67
343.92
347.041
350.165
353.71
357.808
360.823
362.243
362.383
361.832
361.049
360.252
359.507
358.806
358.079
357.21
356.087
354.711
353.302
352.176
351.574
351.734
352.96
355.566
359.846
366.636
378.249
397.343
421.109
441.714
466.355
518.776
314.699
329.408
336.828
341.24
344.689
347.877
350.857
353.488
356.142
359.069
361.46
362.929
363.506
363.379
362.798
361.958
360.983
359.952
358.888
357.747
356.446
354.985
353.586
352.6
352.354
353.229
355.792
360.697
368.698
381.474
400.909
423.657
443.348
467.507
519.965
315.116
330.896
338.402
342.82
346.321
349.63
352.972
356.073
358.344
359.879
361.053
361.74
361.833
361.547
361.133
360.599
359.942
359.197
358.368
357.414
356.275
354.973
353.724
352.87
352.709
353.609
356.246
361.621
370.766
384.825
404.547
426.193
444.955
468.595
520.934
315.451
330.739
338.084
342.387
345.731
348.875
352.194
355.872
359.574
362.442
364.147
364.922
364.691
363.171
361.004
359.534
358.765
358.187
357.563
356.803
355.859
354.756
353.713
353.087
353.154
354.21
356.9
362.441
372.34
387.576
407.651
428.39
446.369
469.525
521.566
316.015
331.694
339.419
344.086
347.918
351.744
355.603
358.912
361.52
363.805
365.688
366.917
367.703
367.958
365.893
362.073
359.288
357.929
357.202
356.625
355.983
355.185
354.315
353.699
353.734
354.788
357.437
362.847
372.823
388.669
409.15
429.503
447.039
469.825
521.672
317.456
334.034
341.579
346.17
350.282
354.865
359.85
364.142
366.846
368.169
368.76
368.922
368.751
368.355
367.267
364.143
360.566
358.394
357.327
356.675
356.115
355.524
354.915
354.478
354.561
355.618
358.296
363.698
373.594
389.526
410.103
430.164
447.388
469.97
521.799
318.529
335.324
342.656
347.309
351.918
357.276
362.329
365.901
367.97
368.947
369.321
369.311
368.755
367.184
364.207
360.73
358.585
357.615
357.072
356.657
356.271
355.889
355.551
355.404
355.759
357.121
360.217
366.089
376.283
392.194
412.36
431.669
448.436
470.928
522.735
319.114
336.224
343.66
348.588
353.857
360.072
365.263
368.18
369.435
369.683
369.274
368.35
366.791
364.313
361.158
358.93
358.021
357.534
357.189
356.905
356.66
356.458
356.344
356.453
357.081
358.786
362.417
369.039
379.902
395.931
415.425
433.683
449.87
472.216
523.97
320.292
337.609
344.779
349.767
355.496
362.231
367.554
370.054
370.641
370.203
368.921
366.814
364.15
361.566
359.73
358.786
358.276
357.934
357.676
357.477
357.333
357.264
357.328
357.662
358.565
360.625
364.777
372.13
383.705
399.873
418.562
435.684
451.267
473.404
525.041
320.31
337.641
344.917
349.913
355.448
361.859
367.23
370.003
370.499
369.673
367.971
365.667
363.248
361.319
360.131
359.448
359.013
358.703
358.475
358.314
358.228
358.243
358.429
358.934
360.075
362.473
367.114
375.092
387.22
403.413
421.27
437.367
452.433
474.387
525.92
320.238
337.56
344.973
350.178
356.045
362.662
368.076
371.073
371.548
370.264
367.991
365.472
363.366
361.938
361.04
360.441
360.011
359.692
359.459
359.308
359.247
359.31
359.572
360.194
361.519
364.223
369.36
377.976
390.562
406.628
423.642
438.865
453.501
475.292
526.695
319.727
337.433
345.195
350.507
356.25
362.38
367.363
370.796
372.177
371.53
369.352
366.598
364.401
363.048
362.209
361.619
361.166
360.813
360.555
360.392
360.335
360.413
360.699
361.352
362.724
365.534
370.97
380.179
393.286
409.214
425.466
439.996
454.276
475.849
527.05
319.796
338.003
346.344
352.347
359.098
365.426
369.105
371.306
372.407
372.014
370.162
367.52
365.304
363.993
363.223
362.686
362.256
361.904
361.64
361.476
361.427
361.519
361.81
362.44
363.724
366.352
371.598
380.943
394.552
410.616
426.429
440.519
454.525
475.833
526.818
321.256
339.6
347.766
354.103
361.984
369.15
372.524
373.653
373.86
372.939
370.737
367.941
365.838
364.691
364.029
363.563
363.181
362.865
362.631
362.502
362.496
362.633
362.961
363.591
364.78
367.123
371.836
380.678
394.382
410.837
426.687
440.633
454.457
475.483
526.218
322.307
340.617
348.832
355.368
363.406
370.407
373.418
374.162
374.14
373.269
371.237
368.523
366.421
365.306
364.689
364.27
363.938
363.673
363.491
363.419
363.477
363.68
364.064
364.71
365.815
367.858
371.893
379.726
392.754
409.373
425.683
439.911
453.761
474.605
525.299
323.929
341.64
349.277
355.603
363.78
371.862
375.814
376.281
375.504
373.95
371.468
368.663
366.747
365.766
365.216
364.843
364.561
364.355
364.249
364.277
364.459
364.808
365.342
366.109
367.243
369.111
372.605
379.453
391.439
407.701
424.296
438.867
452.902
473.863
524.855
323.009
339.915
346.777
351.744
357.71
365.725
372.986
376.151
376.39
375.169
372.787
369.763
367.525
366.376
365.769
365.388
365.119
364.942
364.884
364.99
365.299
365.838
366.635
367.725
369.178
371.227
374.601
380.933
392.204
408.005
424.475
439.039
453.187
474.474
525.844
321.8
338.598
345.429
349.734
353.97
359.714
367.738
374.449
377.147
376.751
374.493
371.175
368.481
367.072
366.365
365.954
365.686
365.528
365.507
365.671
366.075
366.777
367.853
369.396
371.489
374.245
378.124
384.492
395.306
410.45
426.299
440.459
454.554
476.133
527.685
320.247
337.17
344.49
348.957
352.663
356.407
361.654
369.105
375.283
377.567
376.508
373.245
369.873
367.935
367.003
366.517
366.237
366.099
366.115
366.33
366.801
367.608
368.874
370.787
373.563
377.355
382.365
389.396
399.914
413.944
428.604
442.089
456.057
477.895
529.455
319.559
336.967
344.808
349.694
353.819
357.516
360.937
365.406
371.731
376.754
377.871
375.465
371.494
368.871
367.644
367.065
366.773
366.664
366.734
367.003
367.514
368.359
369.698
371.796
375.018
379.715
386.069
394.349
405.159
418.241
431.565
444.147
457.655
479.174
530.16
319.214
336.151
343.873
348.778
353.168
357.572
361.645
364.99
368.791
374.119
377.802
377.613
373.915
370.256
368.413
367.617
367.278
367.2
367.347
367.707
368.261
369.055
370.263
372.193
375.313
380.179
387.178
396.391
407.762
420.59
433.272
445.299
458.252
478.911
529.04
318.673
335.187
342.957
347.852
352.214
356.903
361.952
366.37
369.387
372.464
376.595
378.467
376.198
371.955
369.362
368.251
367.82
367.751
367.994
368.535
369.28
370.146
371.228
372.834
375.484
379.893
386.723
396.129
407.665
420.296
432.66
444.48
457.187
477.361
527.275
318.521
335.379
343.499
348.645
353.207
357.976
363.114
368.127
371.86
373.874
376.308
378.596
377.867
373.698
370.301
368.846
368.335
368.282
368.628
369.409
370.527
371.766
373.049
374.598
376.926
380.838
387.247
396.562
408.17
420.652
432.709
444.294
456.869
477.007
527.165
319.204
336.484
344.639
350.027
355.232
360.963
366.835
371.949
375.529
377.147
377.99
379.09
378.249
374.32
370.729
369.311
368.847
368.845
369.287
370.27
371.745
373.468
375.236
377.128
379.566
383.313
389.327
398.204
409.464
421.64
433.45
444.914
457.529
477.913
528.25
320.273
337.589
345.438
350.903
356.701
363.449
370.362
375.873
378.953
379.827
379.767
379.543
377.786
374.027
370.769
369.665
369.363
369.475
370.045
371.212
372.971
375.113
377.405
379.847
382.785
386.9
393.044
401.696
412.364
423.789
435.033
446.256
458.946
479.676
529.954
321.124
338.546
346.238
351.831
358.06
365.331
372.702
378.496
381.328
381.43
380.581
379.378
376.928
373.416
370.816
370.077
369.973
370.25
370.991
372.352
374.387
376.951
379.79
382.79
386.18
390.59
396.836
405.339
415.537
426.277
436.927
447.805
460.435
481.341
531.409
321.308
338.857
346.369
351.759
357.634
364.345
371.33
377.486
381.35
382.052
381.054
379.519
376.992
373.639
371.246
370.701
370.816
371.357
372.378
373.917
376.021
378.797
382.223
386.12
390.37
395.198
401.201
408.874
417.98
427.732
437.707
448.218
460.726
481.677
531.694
321.082
338.757
346.259
351.401
356.677
362.493
368.626
374.634
379.721
382.3
382.018
380.624
378.371
375.053
372.043
371.31
371.647
372.579
374.196
376.294
378.452
380.809
383.941
388.208
393.603
399.858
406.803
414.501
422.922
431.825
441.135
451.197
463.378
483.864
532.641
320.858
338.793
346.541
351.735
356.856
362.195
367.404
372.307
377.09
381.234
382.763
381.953
380.13
377.178
373.51
371.898
372.248
373.505
375.861
379.191
382.449
384.839
386.949
389.875
394.365
400.583
408.098
416.288
424.748
433.375
442.352
452.165
464.306
485.099
534.453
321.269
339.752
347.834
353.276
358.622
364.047
368.95
372.942
376.377
379.823
382.617
382.948
381.638
379.336
375.751
372.73
372.542
373.8
376.528
381.05
386.549
391.313
394.547
396.93
399.649
403.621
409.179
416.063
423.799
432.117
441.105
451.223
464.104
486.443
537.219
322.234
341.15
349.327
354.902
360.448
365.988
370.821
374.501
377.216
379.573
382.039
383.458
382.849
381.201
378.41
374.541
372.799
373.395
375.458
379.556
385.783
393.031
399.857
405.502
410.036
414.151
418.68
424.152
430.72
438.345
447.027
456.991
469.544
490.715
537.654
323.339
342.456
350.66
356.379
362.184
367.852
372.571
376.031
378.434
380.228
381.889
383.5
383.718
382.68
380.932
377.677
374.291
373.487
374.133
376.222
380.242
386.053
392.973
400.596
408.442
415.907
422.756
429.215
435.659
442.417
449.78
458.138
468.615
486.473
530.978
324.242
343.552
351.877
357.874
364.097
369.906
374.373
377.495
379.633
381.147
382.369
383.539
384.26
383.804
382.911
381.115
377.464
375.06
374.561
375.008
376.681
379.861
384.008
389.052
395.476
403.01
410.93
418.695
426.194
433.625
441.368
449.992
460.697
479.301
527.996
325.136
344.596
353.061
359.433
366.208
372.175
376.323
379.007
380.819
382.111
383.092
383.9
384.561
384.664
384.457
384.168
382.003
378.444
376.853
376.412
377.253
380.735
386.498
391.614
395.898
400.563
406.209
412.906
420.571
429.206
438.925
449.993
463.611
486.033
535.884
325.759
345.295
353.939
360.767
368.135
374.167
377.957
380.242
381.763
382.879
383.739
384.396
384.872
385.218
385.656
386.716
387.295
385.24
382.249
380.447
380.471
384.689
394.408
404.95
412.786
418.777
424.161
429.716
435.88
442.907
451.046
460.821
474.17
497.631
546.94
326.211
345.653
354.421
361.698
369.72
375.895
379.423
381.391
382.64
383.544
384.256
384.823
385.225
385.488
385.962
387.435
390.206
392.6
392.655
390.778
388.993
389.588
394.663
403.286
412.644
421.685
430.047
437.588
444.529
451.341
458.664
467.543
480.918
507.179
558.117
326.088
345.221
353.974
361.545
370.223
376.818
380.383
382.249
383.374
384.154
384.746
385.215
385.571
385.781
385.899
386.432
388.387
392.262
397.026
400.933
403.097
404.089
405.172
406.982
409.437
412.754
417.233
422.972
430.019
438.569
449.121
463.019
483.928
518.019
561.34
325.282
343.898
352.405
359.847
368.909
376.361
380.534
382.653
383.843
384.614
385.171
385.599
385.931
386.165
386.263
386.254
386.514
387.928
391.349
396.861
403.695
410.743
417.329
423.199
428.091
431.943
435.342
439.423
445.234
453.265
463.709
477.575
498.072
526.62
552.043
323.964
342.117
350.348
357.375
366.367
374.831
380.084
382.793
384.227
385.077
385.644
386.055
386.369
386.606
386.762
386.804
386.721
386.678
387.168
388.942
392.683
398.683
406.842
416.783
428.13
440.564
453.319
465.392
476.236
486.095
495.176
504.404
514.722
526.933
534.446
322.624
340.503
348.524
354.884
362.955
371.895
378.47
382.183
384.152
385.261
385.951
386.419
386.759
387.015
387.205
387.329
387.362
387.279
387.127
387.083
387.459
388.677
391.215
395.534
402.154
411.43
422.823
434.52
445.278
455.024
465.526
477.447
491.49
496.638
503.783
321.75
339.791
347.885
353.827
360.889
369.513
376.961
381.634
384.177
385.564
386.378
386.9
387.259
387.518
387.709
387.844
387.921
387.919
387.824
387.662
387.497
387.417
387.531
388.017
389.168
391.069
393.592
396.832
401.753
407.541
418.168
429.049
445.417
432.986
464.898
321.56
340.06
348.317
354.041
360.335
368.152
375.817
381.182
384.236
385.888
386.825
387.401
387.781
388.045
388.233
388.362
388.434
388.437
388.359
388.217
388.057
387.92
387.831
387.86
387.83
387.775
388.494
390.284
392.542
394.294
397.283
396.525
400.182
397.394
450.926
321.751
340.86
349.381
355.164
361.213
368.297
375.618
381.267
384.637
386.442
387.43
388.012
388.38
388.624
388.787
388.888
388.929
388.896
388.784
388.624
388.479
388.411
388.478
388.782
389.548
392.649
396.193
395.359
391.718
387.025
383.757
385.207
396.149
416.225
481.318
322.202
341.927
350.775
356.86
363.109
369.674
376.129
381.547
385.036
386.944
387.972
388.561
388.921
389.15
389.292
389.369
389.381
389.318
389.179
389.005
388.872
388.875
389.167
390.162
393.053
399.549
405.191
402.406
395.628
388.898
387.566
398.308
417.668
449.637
521.278
322.809
343.19
352.533
359.274
366.305
372.685
378
382.545
385.737
387.562
388.553
389.115
389.453
389.661
389.783
389.839
389.831
389.753
389.609
389.437
389.308
389.312
389.597
390.565
393.294
399.495
407.736
410.988
408.945
405.584
406.845
418.477
438.07
470.948
534.858
323.962
344.956
354.946
362.674
370.812
376.913
381.002
384.292
386.781
388.305
389.165
389.663
389.964
390.147
390.25
390.29
390.271
390.192
390.059
389.907
389.795
389.797
389.983
390.496
391.824
395.137
401.421
408.754
414.995
420.488
427.066
437.166
451.945
477.559
530.997
325.82
347.195
358.125
367.34
376.566
381.912
384.688
386.684
388.249
389.278
389.897
390.274
390.506
390.646
390.719
390.737
390.705
390.625
390.506
390.38
390.304
390.356
390.589
390.988
391.575
392.736
395.332
400.051
407.118
416.935
428.936
440.66
452.861
472.285
521.902
328.081
349.332
361.295
372.301
382.039
386.227
387.828
388.858
389.688
390.277
390.663
390.91
391.064
391.152
391.187
391.177
391.127
391.04
390.929
390.826
390.797
390.938
391.342
391.971
392.585
393.074
393.748
395.235
398.44
404.801
415.842
430.358
444.991
465.308
516.335
329.43
350.207
362.436
374.497
384.789
388.778
389.954
390.497
390.895
391.196
391.407
391.546
391.629
391.665
391.662
391.623
391.552
391.453
391.342
391.256
391.27
391.518
392.166
393.228
394.303
394.907
395.076
395.18
395.865
398.647
407.078
423.397
441.042
464.615
518.722
328.72
348.769
359.574
370.337
381.798
388.233
390.658
391.496
391.833
392.008
392.114
392.174
392.197
392.189
392.152
392.087
391.995
391.883
391.766
391.68
391.709
392.016
392.858
394.412
396.29
397.604
398.088
398.151
398.474
400.741
408.998
425.588
443.748
468.94
525.382
326.184
345.289
353.856
361.5
372.184
382.484
388.663
391.393
392.385
392.708
392.803
392.817
392.794
392.747
392.678
392.587
392.477
392.352
392.222
392.118
392.11
392.354
393.152
394.892
397.577
400.257
401.971
402.993
404.313
407.824
416.838
432.092
449.078
474.129
530.493
323.765
342.616
350.483
355.929
362.609
372.451
382.194
388.671
391.825
393.021
393.387
393.455
393.418
393.341
393.243
393.128
393.001
392.863
392.724
392.602
392.543
392.658
393.191
394.593
397.342
401.216
404.962
407.924
410.975
415.996
425.323
438.755
454.104
477.892
532.452
323.062
343.208
352.096
357.516
362.087
367.474
375.325
383.538
389.429
392.457
393.633
393.983
394.026
393.956
393.841
393.705
393.558
393.405
393.255
393.124
393.038
393.059
393.333
394.185
396.199
399.934
405.046
410.332
415.587
422.123
431.518
443.564
457.556
479.83
532.322
324.003
345.498
355.239
361.599
366.955
371.156
375.056
380.45
386.512
391.051
393.396
394.292
394.54
394.538
394.438
394.296
394.135
393.966
393.804
393.665
393.575
393.573
393.733
394.228
395.458
398.147
402.934
409.436
416.702
424.836
434.62
446.06
459.281
480.442
531.4
325.161
346.705
356.488
363.398
370.171
375.931
379.585
382.184
385.699
389.869
392.93
394.425
394.954
395.062
395.003
394.873
394.706
394.525
394.348
394.2
394.112
394.125
394.293
394.692
395.522
397.307
400.944
407.067
415.2
424.608
435.14
446.703
459.767
480.481
530.679
325.911
347.281
357.023
364.128
371.614
378.583
383.28
385.798
387.52
389.974
392.741
394.552
395.328
395.548
395.534
395.421
395.257
395.067
394.877
394.718
394.634
394.686
394.939
395.44
396.251
397.679
400.494
405.733
413.722
423.742
434.976
446.967
460.233
481.052
531.064
326.667
348.369
358.322
365.784
373.778
381.038
385.951
388.667
390.126
391.362
393.165
394.841
395.731
396.028
396.047
395.946
395.783
395.585
395.381
395.211
395.136
395.242
395.636
396.374
397.427
398.943
401.546
406.298
413.962
424.145
435.758
448.024
461.505
482.676
532.738
327.316
349.053
359.088
366.938
375.628
383.226
388.123
390.8
392.236
393.119
394.097
395.326
396.181
396.515
396.556
396.461
396.296
396.089
395.87
395.688
395.624
395.801
396.386
397.483
399
400.944
403.842
408.688
416.311
426.484
438.069
450.238
463.76
485.271
535.21
326.949
348.285
358.226
366.174
375.324
383.631
389.086
392.077
393.659
394.55
395.185
395.942
396.651
397.001
397.061
396.975
396.81
396.595
396.36
396.162
396.099
396.333
397.101
398.605
400.744
403.339
406.813
412.086
419.886
429.953
441.207
453.005
466.411
488.093
537.556
326.038
347.5
357.539
365.355
374.286
382.884
389.015
392.572
394.489
395.543
396.164
396.648
397.149
397.478
397.561
397.49
397.332
397.116
396.868
396.648
396.564
396.805
397.671
399.504
402.324
405.761
409.963
415.747
423.728
433.581
444.355
455.681
468.852
490.464
539.185
326.116
348.5
358.991
366.904
375.421
383.361
389.305
393.015
395.117
396.3
396.985
397.397
397.718
397.968
398.056
398.001
397.858
397.652
397.402
397.16
397.033
397.212
398.02
399.925
403.216
407.537
412.566
418.852
426.945
436.541
446.86
457.752
470.625
491.951
539.913
327.651
350.864
361.874
370.348
379.075
386.139
391.038
394.171
396.042
397.139
397.787
398.162
398.374
398.513
398.563
398.511
398.381
398.191
397.952
397.702
397.534
397.619
398.261
399.966
403.302
408.266
414.202
421.065
429.26
438.61
448.554
459.09
471.638
492.54
539.904
329.228
352.464
363.808
373.043
382.565
389.416
393.489
395.896
397.332
398.186
398.688
398.966
399.09
399.125
399.107
399.033
398.906
398.732
398.511
398.267
398.072
398.07
398.512
399.854
402.787
407.806
414.446
422.002
430.454
439.7
449.414
459.708
471.967
492.432
539.444
329.503
352.363
363.781
373.443
383.634
390.891
395.02
397.289
398.554
399.257
399.631
399.8
399.832
399.781
399.691
399.579
399.441
399.273
399.069
398.841
398.644
398.594
398.891
399.896
402.255
406.776
413.583
421.767
430.66
440.009
449.651
459.817
471.864
491.978
538.866
328.617
351.154
362.362
371.888
382.342
390.21
394.956
397.685
399.225
400.047
400.44
400.576
400.557
400.451
400.31
400.16