/*--------------------------------*- C++ -*----------------------------------*\
| =========                 |                                                 |
| \\      /  F ield         | OpenFOAM: The Open Source CFD Toolbox           |
|  \\    /   O peration     | Version:  v1906                                 |
|   \\  /    A nd           | Web:      www.OpenFOAM.com                      |
|    \\/     M anipulation  |                                                 |
\*---------------------------------------------------------------------------*/
FoamFile
{
    version     2.0;
    format      ascii;
    class       volVectorField;
    location    "16";
    object      U;
}
// * * * * * * * * * * * * * * * * * * * * * * * * * * * * * * * * * * * * * //

dimensions      [0 1 -1 0 0 0 0];


internalField   nonuniform List<vector> 
78750
(
(-7.23071e-06 -8.52384e-05 3.19662e-05)
(-2.87395e-05 -7.11823e-05 7.5376e-05)
(-7.42086e-05 -3.36089e-05 0.000115276)
(-0.000136446 1.28282e-05 0.000162132)
(-0.000209038 5.96596e-05 0.000214379)
(-0.000288208 0.000104169 0.000269527)
(-0.000370348 0.000144435 0.000324471)
(-0.000452841 0.000180169 0.00037589)
(-0.000533952 0.000211678 0.000420193)
(-0.000612657 0.00023954 0.00045406)
(-0.000688008 0.000263453 0.000474464)
(-0.00075867 0.000282253 0.000479044)
(-0.000822969 0.000294522 0.000466536)
(-0.000879484 0.000299405 0.000437152)
(-0.000927281 0.000296757 0.000391943)
(-0.000964356 0.000287202 0.000334026)
(-0.000991377 0.000270981 0.000262667)
(-0.00100688 0.00024929 0.000182129)
(-0.00101088 0.000223189 9.52262e-05)
(-0.00100345 0.000193793 4.72372e-06)
(-0.000984799 0.000162227 -8.66267e-05)
(-0.000955334 0.00012952 -0.000176214)
(-0.000915599 9.6619e-05 -0.000261563)
(-0.000866268 6.42857e-05 -0.000340356)
(-0.000808186 3.31468e-05 -0.000410307)
(-0.000742224 3.71306e-06 -0.000469475)
(-0.000669314 -2.35225e-05 -0.000515993)
(-0.000590493 -4.81186e-05 -0.000548034)
(-0.000506902 -6.94986e-05 -0.000563759)
(-0.000419785 -8.69355e-05 -0.000561354)
(-0.000330211 -9.93339e-05 -0.000538918)
(-0.000238912 -0.000105134 -0.000494608)
(-0.000148721 -0.000101974 -0.000426548)
(-7.63202e-05 -8.68304e-05 -0.000333478)
(-2.47671e-05 -4.79273e-05 -0.000168152)
(-3.30696e-05 0.00048029 -0.000350083)
(-9.745e-05 0.000900504 -0.000430971)
(-0.000181565 0.00111598 -0.000438922)
(-0.000294954 0.00126776 -0.000454725)
(-0.000410886 0.00135678 -0.000475778)
(-0.000521385 0.00138789 -0.000495853)
(-0.000623276 0.0013799 -0.000517354)
(-0.000713684 0.00134901 -0.00054507)
(-0.000790255 0.00130766 -0.000581617)
(-0.000852371 0.00125969 -0.000627519)
(-0.000899458 0.00120412 -0.000676206)
(-0.000930763 0.00113305 -0.000716326)
(-0.000947718 0.00104931 -0.000739772)
(-0.000953172 0.000958786 -0.000750423)
(-0.000947629 0.000864633 -0.000751832)
(-0.000932361 0.000769238 -0.000747658)
(-0.000908478 0.000674846 -0.000739982)
(-0.000877305 0.000582906 -0.000730333)
(-0.000840047 0.000494691 -0.000719692)
(-0.000797887 0.000411153 -0.000708994)
(-0.000751863 0.000332906 -0.000698984)
(-0.000702846 0.00026039 -0.000690092)
(-0.000651582 0.000193686 -0.000682487)
(-0.000598716 0.000132868 -0.000675984)
(-0.000544655 7.77715e-05 -0.000670243)
(-0.000489838 2.82834e-05 -0.00066452)
(-0.00043461 -1.59917e-05 -0.00065794)
(-0.00037924 -5.5135e-05 -0.000649083)
(-0.000324 -8.94726e-05 -0.000636236)
(-0.00026916 -0.000118859 -0.000616829)
(-0.000214749 -0.000143198 -0.000587819)
(-0.000160117 -0.000161395 -0.000543029)
(-0.0001056 -0.000171068 -0.000467305)
(-6.30125e-05 -0.000165146 -0.000340531)
(-3.14328e-05 -9.63112e-05 -8.70778e-05)
(-5.30529e-05 0.000905602 0.000237334)
(-0.00012406 0.00155626 0.000383415)
(-0.000211246 0.00183424 0.000456966)
(-0.000321347 0.00200599 0.000496474)
(-0.000424333 0.00208802 0.000498425)
(-0.000515162 0.00209755 0.000468387)
(-0.000594849 0.00205265 0.000405964)
(-0.000661566 0.00197186 0.000314973)
(-0.00071374 0.00186886 0.000196314)
(-0.000750147 0.0017536 5.59924e-05)
(-0.000770374 0.00163116 -9.87468e-05)
(-0.000775608 0.00150527 -0.000253899)
(-0.00076783 0.00137776 -0.000393219)
(-0.000749789 0.00125015 -0.000500892)
(-0.000722782 0.00112404 -0.000568713)
(-0.000690373 0.00100236 -0.000605749)
(-0.00065349 0.000886302 -0.000623089)
(-0.000613453 0.000777306 -0.000627704)
(-0.000571547 0.000676856 -0.000623923)
(-0.000528633 0.000585202 -0.000614436)
(-0.000485458 0.000502328 -0.000601453)
(-0.000442648 0.00042788 -0.000586265)
(-0.000400707 0.000361492 -0.000569898)
(-0.000359943 0.000302467 -0.000552924)
(-0.000320688 0.000250216 -0.000535739)
(-0.000283033 0.000203971 -0.000518429)
(-0.000247079 0.000163274 -0.000500799)
(-0.000212826 0.000127459 -0.000482402)
(-0.000180277 9.62964e-05 -0.000462332)
(-0.000149344 6.94551e-05 -0.000439211)
(-0.000119827 4.71777e-05 -0.000410661)
(-9.11033e-05 2.97529e-05 -0.000372429)
(-6.27111e-05 1.81839e-05 -0.000316695)
(-3.91216e-05 1.40635e-05 -0.000234585)
(-2.23113e-05 2.66469e-05 -5.61083e-05)
(-5.92977e-05 0.00116524 0.000616129)
(-0.000114215 0.00194643 0.000908471)
(-0.000167626 0.0022247 0.00100549)
(-0.000234401 0.00234367 0.00106782)
(-0.000296974 0.00236057 0.00110792)
(-0.000355517 0.00230989 0.00111531)
(-0.000410329 0.00222218 0.00108745)
(-0.000459481 0.00211049 0.00102018)
(-0.000500088 0.00198647 0.000917053)
(-0.000529542 0.00185381 0.000780983)
(-0.000546793 0.00171696 0.000619882)
(-0.000551764 0.00157689 0.000442054)
(-0.000546024 0.00143591 0.000260364)
(-0.000530059 0.00129513 9.19429e-05)
(-0.000506945 0.00115851 -4.71973e-05)
(-0.000478137 0.00102994 -0.000148001)
(-0.000447081 0.000912139 -0.000219789)
(-0.000413865 0.000805966 -0.000270851)
(-0.000379583 0.000711246 -0.00030687)
(-0.000345165 0.000627674 -0.000331808)
(-0.000311516 0.000555123 -0.000347943)
(-0.000279111 0.000492779 -0.000357334)
(-0.000248359 0.000439511 -0.000361324)
(-0.000219622 0.000394302 -0.000361078)
(-0.000193079 0.000355906 -0.000357352)
(-0.000168875 0.000323284 -0.000350874)
(-0.000146973 0.000295233 -0.000342092)
(-0.000127285 0.000270824 -0.000331465)
(-0.000109601 0.000248854 -0.00031946)
(-9.36365e-05 0.000228539 -0.000306148)
(-7.88225e-05 0.000208975 -0.000291485)
(-6.41392e-05 0.00018953 -0.000276942)
(-4.80288e-05 0.000169391 -0.000265696)
(-3.29173e-05 0.000148159 -0.000250933)
(-2.01375e-05 0.000113133 -0.000151346)
(-3.54305e-05 0.000837165 0.000592922)
(-5.05158e-05 0.0013082 0.000847753)
(-5.60065e-05 0.00151707 0.000918963)
(-5.91381e-05 0.00165799 0.000970773)
(-6.25255e-05 0.00174041 0.0010123)
(-6.89079e-05 0.00177437 0.00103584)
(-7.89574e-05 0.00176926 0.00104139)
(-9.10191e-05 0.00173298 0.00102695)
(-0.00010315 0.00167139 0.000992047)
(-0.000112903 0.00158979 0.000935235)
(-0.000119346 0.00149291 0.000858628)
(-0.000121438 0.00138542 0.000765908)
(-0.000119121 0.00127164 0.000663719)
(-0.000113733 0.00115672 0.00055827)
(-0.000106098 0.00104512 0.000457478)
(-9.71751e-05 0.000941123 0.000367591)
(-8.77524e-05 0.000847593 0.000292055)
(-7.84951e-05 0.000765951 0.000230779)
(-6.97133e-05 0.000696396 0.000182386)
(-6.16244e-05 0.000638445 0.00014502)
(-5.44735e-05 0.000591216 0.000116918)
(-4.83973e-05 0.000553643 9.66516e-05)
(-4.34723e-05 0.000524401 8.28047e-05)
(-3.9692e-05 0.000502002 7.4194e-05)
(-3.70564e-05 0.000484945 6.95963e-05)
(-3.54786e-05 0.000471661 6.79714e-05)
(-3.48287e-05 0.000460575 6.80685e-05)
(-3.49373e-05 0.000450069 6.86949e-05)
(-3.54581e-05 0.000438654 6.86924e-05)
(-3.60578e-05 0.000424693 6.69289e-05)
(-3.62676e-05 0.000406265 6.19029e-05)
(-3.53262e-05 0.000381128 4.94005e-05)
(-3.13538e-05 0.000346384 1.8743e-05)
(-2.45677e-05 0.000299845 -2.63407e-05)
(-1.54542e-05 0.000200912 -3.21593e-05)
(-1.31849e-05 0.000591392 0.000482696)
(-1.09528e-05 0.000877035 0.000654935)
(-2.97844e-06 0.00101539 0.000695223)
(1.35792e-05 0.00111737 0.000724348)
(3.46679e-05 0.00118492 0.000747476)
(5.75673e-05 0.00122228 0.000760316)
(8.06801e-05 0.00123518 0.000762455)
(0.000102966 0.00122764 0.000755205)
(0.000123728 0.00120419 0.000739143)
(0.000142307 0.00116823 0.000715098)
(0.000158267 0.00112317 0.000683905)
(0.00017118 0.00107139 0.000646957)
(0.000180756 0.00101546 0.000605821)
(0.000186716 0.000957644 0.000562479)
(0.000189036 0.000900601 0.000519055)
(0.000187743 0.000846588 0.000477621)
(0.00018301 0.00079756 0.00043981)
(0.000175441 0.00075438 0.000407116)
(0.000165414 0.000717486 0.000379884)
(0.000153395 0.000686745 0.000357695)
(0.000139877 0.000661741 0.000340204)
(0.000125268 0.000641681 0.000326825)
(0.000109994 0.00062574 0.000317012)
(9.44122e-05 0.000612861 0.00030995)
(7.88515e-05 0.000602032 0.00030494)
(6.35928e-05 0.000592049 0.000301003)
(4.88884e-05 0.000581753 0.000297256)
(3.49822e-05 0.000569768 0.000292442)
(2.21372e-05 0.000554654 0.000285166)
(1.06293e-05 0.00053465 0.000273788)
(7.75703e-07 0.000507932 0.000256729)
(-7.01168e-06 0.000472203 0.000229362)
(-1.14154e-05 0.000424876 0.000181222)
(-1.15861e-05 0.000362174 0.000114089)
(-7.70166e-06 0.000225046 5.68672e-05)
(-1.73639e-06 0.000335884 0.00035729)
(5.88138e-06 0.000495256 0.000427071)
(1.56648e-05 0.000578671 0.000421396)
(3.26278e-05 0.000647683 0.000417322)
(5.24898e-05 0.000702607 0.000416897)
(7.34925e-05 0.000745768 0.000414698)
(9.45462e-05 0.000779515 0.000409739)
(0.000114847 0.000805296 0.000402406)
(0.000133635 0.000824048 0.000392604)
(0.000150393 0.000836549 0.000380058)
(0.000164724 0.000843265 0.000364641)
(0.000176349 0.000845103 0.00034669)
(0.000185097 0.000842994 0.000326735)
(0.000190847 0.000838293 0.000305919)
(0.00019351 0.00083203 0.000285342)
(0.00019318 0.000825233 0.000266174)
(0.000190015 0.000818305 0.000249057)
(0.000184288 0.0008117 0.000234255)
(0.000176423 0.000805287 0.000222276)
(0.000166625 0.000799076 0.00021313)
(0.000155243 0.000792687 0.000206469)
(0.000142631 0.000785986 0.000202125)
(0.000129043 0.000778496 0.00019954)
(0.000114763 0.000770011 0.0001984)
(0.00010002 0.000759951 0.000198028)
(8.50435e-05 0.000747971 0.00019799)
(7.00567e-05 0.000733261 0.000197456)
(5.52724e-05 0.000715153 0.000195747)
(4.0977e-05 0.000692363 0.000191634)
(2.74283e-05 0.000663558 0.000184222)
(1.49565e-05 0.000626623 0.000172075)
(3.95945e-06 0.000579286 0.000151273)
(-4.04564e-06 0.000518427 0.000111909)
(-7.27869e-06 0.000438085 5.59202e-05)
(-6.08166e-06 0.000256228 1.59101e-05)
(-3.39617e-06 0.000251297 0.000270315)
(-2.76561e-06 0.000422445 0.000280505)
(-5.65481e-06 0.000503534 0.000251449)
(-7.25015e-06 0.000567928 0.000225586)
(-7.48746e-06 0.000620071 0.000206913)
(-6.5881e-06 0.00066266 0.000189655)
(-4.5973e-06 0.00069813 0.000171394)
(-1.48234e-06 0.000727833 0.000151507)
(2.74839e-06 0.000753153 0.000130671)
(7.98236e-06 0.000774695 0.000109838)
(1.40328e-05 0.000793307 9.04524e-05)
(2.05652e-05 0.000809186 7.30576e-05)
(2.72717e-05 0.000822916 5.77664e-05)
(3.38155e-05 0.000834539 4.39531e-05)
(4.00235e-05 0.000844595 3.147e-05)
(4.57053e-05 0.000853113 2.01797e-05)
(5.07863e-05 0.000860563 1.05579e-05)
(5.51239e-05 0.000866817 2.7351e-06)
(5.85602e-05 0.000872296 -3.10834e-06)
(6.10953e-05 0.000876582 -6.67793e-06)
(6.25667e-05 0.000879795 -7.81944e-06)
(6.28482e-05 0.000881439 -6.88837e-06)
(6.19127e-05 0.000881516 -3.91966e-06)
(5.96715e-05 0.000879377 5.2356e-07)
(5.61361e-05 0.000874876 6.19802e-06)
(5.13174e-05 0.000867122 1.2364e-05)
(4.53183e-05 0.000855686 1.85934e-05)
(3.82756e-05 0.000839228 2.39474e-05)
(3.04238e-05 0.000816701 2.78227e-05)
(2.20516e-05 0.000785887 2.91242e-05)
(1.35468e-05 0.000744493 2.67373e-05)
(5.46718e-06 0.000688638 1.71026e-05)
(-9.72665e-07 0.000613659 -5.83494e-06)
(-3.99087e-06 0.000512548 -3.97866e-05)
(-4.26848e-06 0.000286231 -5.35971e-05)
(-5.26563e-06 0.000210255 0.000160709)
(-8.48917e-06 0.000403087 0.000177435)
(-1.44055e-05 0.000492008 0.000168474)
(-2.12723e-05 0.00056086 0.000156939)
(-2.76121e-05 0.000614455 0.000145057)
(-3.31346e-05 0.000656883 0.000131307)
(-3.76794e-05 0.000690667 0.000114931)
(-4.10066e-05 0.000718185 9.6311e-05)
(-4.29941e-05 0.000740723 7.58621e-05)
(-4.35097e-05 0.000759774 5.47732e-05)
(-4.25629e-05 0.000775982 3.42524e-05)
(-4.01969e-05 0.00079041 1.55685e-05)
(-3.6609e-05 0.000803367 -8.93014e-07)
(-3.19989e-05 0.000815624 -1.47886e-05)
(-2.6609e-05 0.000827196 -2.6184e-05)
(-2.06498e-05 0.000838605 -3.48432e-05)
(-1.4391e-05 0.000849612 -4.08942e-05)
(-8.01345e-06 0.000860538 -4.41717e-05)
(-1.82996e-06 0.000870927 -4.49987e-05)
(3.96566e-06 0.000880951 -4.33018e-05)
(9.214e-06 0.000890034 -3.946e-05)
(1.37116e-05 0.00089822 -3.35436e-05)
(1.72864e-05 0.000904718 -2.60738e-05)
(1.98341e-05 0.000909419 -1.72648e-05)
(2.127e-05 0.00091131 -7.78382e-06)
(2.15589e-05 0.000910018 2.01448e-06)
(2.07284e-05 0.000904148 1.13293e-05)
(1.88509e-05 0.00089283 1.96722e-05)
(1.60835e-05 0.000873949 2.61195e-05)
(1.26194e-05 0.000845667 3.00996e-05)
(8.71133e-06 0.000804511 3.03891e-05)
(4.68065e-06 0.000746791 2.49576e-05)
(1.14305e-06 0.000666478 9.65374e-06)
(-7.18847e-07 0.000556328 -1.38396e-05)
(-1.49479e-06 0.000306909 -3.00513e-05)
(-6.37771e-06 0.000202316 0.000112339)
(-1.16216e-05 0.000402842 0.000148991)
(-1.85569e-05 0.000494358 0.000159501)
(-2.71548e-05 0.00056391 0.000161928)
(-3.51081e-05 0.000617302 0.000158636)
(-4.22085e-05 0.000658445 0.000150675)
(-4.83705e-05 0.000690671 0.000139039)
(-5.34453e-05 0.000715988 0.000124336)
(-5.72941e-05 0.000736422 0.00010741)
(-5.98266e-05 0.000752994 8.90367e-05)
(-6.09622e-05 0.000767032 7.05888e-05)
(-6.07087e-05 0.000779008 5.31767e-05)
(-5.91462e-05 0.000789914 3.77746e-05)
(-5.642e-05 0.000799934 2.4645e-05)
(-5.26884e-05 0.000809785 1.41554e-05)
(-4.81122e-05 0.000819373 6.29423e-06)
(-4.28795e-05 0.000829199 1.27792e-06)
(-3.71941e-05 0.000838938 -1.02943e-06)
(-3.12613e-05 0.000848907 -5.39538e-07)
(-2.5281e-05 0.000858563 2.4742e-06)
(-1.94792e-05 0.000868022 8.03619e-06)
(-1.40297e-05 0.000876543 1.57044e-05)
(-9.09808e-06 0.000884094 2.52444e-05)
(-4.81774e-06 0.000889694 3.59877e-05)
(-1.29538e-06 0.000893066 4.74899e-05)
(1.42297e-06 0.000892914 5.88982e-05)
(3.32541e-06 0.000888585 6.96734e-05)
(4.45137e-06 0.000878272 7.89226e-05)
(4.86928e-06 0.000860638 8.60814e-05)
(4.69972e-06 0.000832933 9.02195e-05)
(4.04427e-06 0.000792524 9.05494e-05)
(3.01811e-06 0.000734893 8.52389e-05)
(1.77303e-06 0.000654956 7.16028e-05)
(9.15494e-07 0.000544863 4.946e-05)
(4.71508e-07 0.000296757 1.7311e-05)
(-7.21339e-06 0.000195563 8.41597e-05)
(-1.34076e-05 0.00038989 0.000135961)
(-2.08652e-05 0.000477866 0.00015839)
(-3.00755e-05 0.000544234 0.000169733)
(-3.85135e-05 0.000594331 0.000172151)
(-4.60169e-05 0.000632411 0.000168297)
(-5.25334e-05 0.000661264 0.000159643)
(-5.79538e-05 0.000683394 0.000147248)
(-6.20996e-05 0.000700259 0.000131755)
(-6.48812e-05 0.000713443 0.000114139)
(-6.61946e-05 0.00072374 9.55833e-05)
(-6.60397e-05 0.000732306 7.7616e-05)
(-6.44416e-05 0.000739568 6.1304e-05)
(-6.15468e-05 0.000746381 4.74066e-05)
(-5.75085e-05 0.000752898 3.61547e-05)
(-5.25343e-05 0.000759729 2.78215e-05)
(-4.67933e-05 0.000766761 2.24363e-05)
(-4.05189e-05 0.000774384 2.01405e-05)
(-3.3914e-05 0.000782252 2.08433e-05)
(-2.7221e-05 0.00079055 2.45649e-05)
(-2.06374e-05 0.000798701 3.10814e-05)
(-1.43868e-05 0.000806678 4.02601e-05)
(-8.65093e-06 0.000813655 5.16811e-05)
(-3.61703e-06 0.00081937 6.49147e-05)
(6.098e-07 0.000822716 7.90281e-05)
(3.96563e-06 0.000823152 9.30116e-05)
(6.46322e-06 0.000819226 0.000105671)
(8.12449e-06 0.000809967 0.000116264)
(9.01128e-06 0.000793323 0.000124028)
(9.19732e-06 0.000767491 0.000128392)
(8.74311e-06 0.000729292 0.000128311)
(7.64561e-06 0.000675322 0.000122317)
(5.89426e-06 0.000600312 0.000107609)
(4.15154e-06 0.000497794 8.31685e-05)
(2.65686e-06 0.000267331 3.71992e-05)
(-6.52089e-06 0.000190016 5.78508e-05)
(-1.24844e-05 0.000373039 0.00011412)
(-1.99164e-05 0.000455538 0.000141646)
(-2.91389e-05 0.000517038 0.000156984)
(-3.76761e-05 0.000562961 0.000162133)
(-4.5251e-05 0.000596895 0.000160177)
(-5.18218e-05 0.00062193 0.000152974)
(-5.71937e-05 0.000640038 0.000141428)
(-6.11995e-05 0.000653116 0.000126247)
(-6.36643e-05 0.000662282 0.000108249)
(-6.45162e-05 0.000668829 8.88494e-05)
(-6.37145e-05 0.000673444 6.96283e-05)
(-6.13342e-05 0.000677105 5.2033e-05)
(-5.74776e-05 0.000680227 3.69346e-05)
(-5.23547e-05 0.000683552 2.4855e-05)
(-4.61696e-05 0.000687241 1.59427e-05)
(-3.92013e-05 0.000691785 1.03289e-05)
(-3.16787e-05 0.000697073 8.01574e-06)
(-2.38909e-05 0.000703347 9.07589e-06)
(-1.60752e-05 0.000710233 1.34389e-05)
(-8.53179e-06 0.000717723 2.11016e-05)
(-1.50128e-06 0.000725177 3.18987e-05)
(4.75682e-06 0.000732325 4.55875e-05)
(1.00676e-05 0.000738263 6.15202e-05)
(1.42704e-05 0.000742467 7.87138e-05)
(1.72993e-05 0.000743761 9.57393e-05)
(1.91309e-05 0.000741318 0.000111159)
(1.98282e-05 0.000733584 0.000123776)
(1.94773e-05 0.000719221 0.000132926)
(1.81976e-05 0.000695959 0.000138011)
(1.60882e-05 0.000661483 0.000138198)
(1.31581e-05 0.000612153 0.000131785)
(9.48179e-06 0.000543804 0.000115882)
(6.183e-06 0.000450173 8.89939e-05)
(3.60014e-06 0.000240242 3.66345e-05)
(-5.41457e-06 0.000187979 2.25419e-05)
(-1.1219e-05 0.000363063 7.21116e-05)
(-1.88514e-05 0.000441316 9.91391e-05)
(-2.85476e-05 0.000498886 0.000114399)
(-3.77645e-05 0.000540624 0.000119056)
(-4.60726e-05 0.000570304 0.000116416)
(-5.32841e-05 0.000590606 0.000108203)
(-5.91333e-05 0.000603889 9.51816e-05)
(-6.33317e-05 0.000611723 7.78933e-05)
(-6.56796e-05 0.000615713 5.74083e-05)
(-6.60578e-05 0.000616879 3.5254e-05)
(-6.44554e-05 0.000616435 1.33598e-05)
(-6.09435e-05 0.000615084 -6.70975e-06)
(-5.56989e-05 0.000613782 -2.38474e-05)
(-4.89572e-05 0.00061297 -3.75214e-05)
(-4.10107e-05 0.000613335 -4.74781e-05)
(-3.21588e-05 0.000615022 -5.3658e-05)
(-2.27472e-05 0.000618418 -5.59857e-05)
(-1.31097e-05 0.000623359 -5.44771e-05)
(-3.60564e-06 0.000629917 -4.90849e-05)
(5.43783e-06 0.000637608 -3.98529e-05)
(1.36773e-05 0.00064619 -2.68283e-05)
(2.08272e-05 0.00065488 -1.03029e-05)
(2.66119e-05 0.000663138 9.12386e-06)
(3.08514e-05 0.000669898 3.02882e-05)
(3.34201e-05 0.000674335 5.15841e-05)
(3.43197e-05 0.000675091 7.11629e-05)
(3.361e-05 0.00067099 8.74974e-05)
(3.14532e-05 0.000660237 9.96373e-05)
(2.80518e-05 0.000641029 0.000107079)
(2.36324e-05 0.000610739 0.00010912)
(1.83126e-05 0.000566342 0.000104195)
(1.23736e-05 0.000503635 8.93224e-05)
(7.46494e-06 0.00041723 6.34587e-05)
(3.79433e-06 0.000222528 1.56678e-05)
(-4.05096e-06 0.000201 -1.51949e-05)
(-9.84141e-06 0.000378921 2.04222e-05)
(-1.78253e-05 0.000457636 4.30902e-05)
(-2.83349e-05 0.000514075 5.51355e-05)
(-3.86551e-05 0.000553441 5.67563e-05)
(-4.81114e-05 0.000579372 5.09357e-05)
(-5.63784e-05 0.000595002 3.92233e-05)
(-6.30412e-05 0.000602568 2.21852e-05)
(-6.77441e-05 0.000604211 4.03051e-07)
(-7.02251e-05 0.000601458 -2.49678e-05)
(-7.0351e-05 0.000595921 -5.19219e-05)
(-6.80903e-05 0.000588728 -7.83243e-05)
(-6.35642e-05 0.000581161 -0.000102311)
(-5.69853e-05 0.000574038 -0.000122693)
(-4.86598e-05 0.000568336 -0.000138813)
(-3.89368e-05 0.000564547 -0.000150442)
(-2.82035e-05 0.000563291 -0.000157516)
(-1.68726e-05 0.000564678 -0.000160047)
(-5.36545e-06 0.000568936 -0.000158004)
(5.89523e-06 0.000575778 -0.000151373)
(1.64874e-05 0.000585029 -0.000140102)
(2.60116e-05 0.000596011 -0.00012424)
(3.40932e-05 0.000608161 -0.000104014)
(4.04101e-05 0.000620445 -8.01004e-05)
(4.47211e-05 0.000631954 -5.37462e-05)
(4.68845e-05 0.000641336 -2.68401e-05)
(4.68895e-05 0.000647346 -1.54393e-06)
(4.48346e-05 0.000648278 2.01689e-05)
(4.0945e-05 0.000642458 3.70704e-05)
(3.55224e-05 0.000627619 4.86283e-05)
(2.89281e-05 0.000601294 5.4389e-05)
(2.14492e-05 0.000560121 5.30363e-05)
(1.36133e-05 0.000500148 4.19033e-05)
(7.51888e-06 0.000415854 2.07766e-05)
(3.1442e-06 0.000224373 -1.40082e-05)
(-2.88678e-06 0.000231024 -4.55172e-05)
(-8.71664e-06 0.000423733 -2.62504e-05)
(-1.67487e-05 0.000507946 -1.04101e-05)
(-2.76655e-05 0.000566818 -3.4303e-06)
(-3.86247e-05 0.000605787 -6.05983e-06)
(-4.88208e-05 0.000629223 -1.58733e-05)
(-5.77699e-05 0.000640482 -3.18276e-05)
(-6.4966e-05 0.000642486 -5.36168e-05)
(-6.99948e-05 0.00063748 -8.0673e-05)
(-7.2554e-05 0.000627621 -0.000111473)
(-7.24817e-05 0.0006146 -0.000143687)
(-6.97654e-05 0.000600146 -0.000174815)
(-6.45457e-05 0.000585575 -0.000202797)
(-5.70794e-05 0.000572247 -0.000226333)
(-4.77093e-05 0.000561095 -0.000244799)
(-3.68376e-05 0.00055307 -0.000258016)
(-2.49062e-05 0.000548668 -0.000265984)
(-1.23619e-05 0.000548362 -0.000268756)
(3.16665e-07 0.000552151 -0.000266332)
(1.266e-05 0.000560002 -0.000258673)
(2.42017e-05 0.000571411 -0.000245695)
(3.44939e-05 0.000585844 -0.000227367)
(4.31187e-05 0.000602318 -0.000203849)
(4.97109e-05 0.000619845 -0.000175764)
(5.39891e-05 0.000637022 -0.000144431)
(5.5788e-05 0.00065246 -0.00011194)
(5.50896e-05 0.000664376 -8.08206e-05)
(5.20347e-05 0.00067098 -5.34408e-05)
(4.68815e-05 0.000670047 -3.13483e-05)
(4.00107e-05 0.000659207 -1.5122e-05)
(3.18889e-05 0.000635451 -4.9977e-06)
(2.2966e-05 0.000595292 -1.87637e-06)
(1.39428e-05 0.000534229 -7.86175e-06)
(7.22595e-06 0.000446595 -2.22738e-05)
(2.36651e-06 0.000245407 -4.12629e-05)
(-2.05914e-06 0.000274802 -6.04894e-05)
(-7.81623e-06 0.000490359 -5.43926e-05)
(-1.54825e-05 0.000583903 -4.53191e-05)
(-2.61648e-05 0.000647989 -4.34569e-05)
(-3.70342e-05 0.000688914 -5.01601e-05)
(-4.72234e-05 0.000711526 -6.36951e-05)
(-5.61783e-05 0.000719867 -8.34503e-05)
(-6.33472e-05 0.000717204 -0.000109346)
(-6.82916e-05 0.00070642 -0.000140762)
(-7.06955e-05 0.00068994 -0.000175887)
(-7.03887e-05 0.000670043 -0.000212045)
(-6.73748e-05 0.000648647 -0.000246446)
(-6.18205e-05 0.000627577 -0.000276944)
(-5.40033e-05 0.000608294 -0.000302269)
(-4.42938e-05 0.000592155 -0.000321943)
(-3.31094e-05 0.000580117 -0.000335906)
(-2.089e-05 0.000572997 -0.000344282)
(-8.10614e-06 0.000571181 -0.000347165)
(4.77591e-06 0.000574887 -0.000344598)
(1.72785e-05 0.000583889 -0.000336509)
(2.89321e-05 0.00059779 -0.000322775)
(3.92805e-05 0.000615766 -0.000303246)
(4.78986e-05 0.000636833 -0.000277957)
(5.43986e-05 0.000659617 -0.000247373)
(5.84805e-05 0.000682616 -0.000212765)
(5.99562e-05 0.000703973 -0.000176296)
(5.8806e-05 0.000721714 -0.000140796)
(5.51722e-05 0.000733516 -0.000108976)
(4.93467e-05 0.000736884 -8.26896e-05)
(4.17433e-05 0.00072888 -6.26019e-05)
(3.2883e-05 0.000706155 -4.87359e-05)
(2.32976e-05 0.000664603 -4.15668e-05)
(1.37918e-05 0.000599273 -4.26084e-05)
(6.93139e-06 0.000503779 -5.05817e-05)
(1.76966e-06 0.000283072 -5.65233e-05)
(-1.78276e-06 0.000325669 -6.17322e-05)
(-7.53368e-06 0.000567009 -6.26457e-05)
(-1.47786e-05 0.000671367 -5.79292e-05)
(-2.50397e-05 0.000742078 -5.94305e-05)
(-3.55113e-05 0.000786141 -6.8677e-05)
(-4.53447e-05 0.000809164 -8.446e-05)
(-5.39439e-05 0.000815675 -0.000106481)
(-6.07817e-05 0.000809559 -0.000134831)
(-6.54037e-05 0.000794076 -0.000168762)
(-6.75111e-05 0.000772189 -0.000206238)
(-6.69379e-05 0.000746469 -0.000244311)
(-6.37062e-05 0.000719292 -0.000280061)
(-5.7996e-05 0.000692684 -0.000311345)
(-5.01132e-05 0.000668476 -0.000337048)
(-4.04235e-05 0.000648129 -0.000356835)
(-2.93446e-05 0.000632873 -0.000370801)
(-1.73054e-05 0.000623539 -0.000379133)
(-4.75793e-06 0.000620691 -0.000381998)
(7.84774e-06 0.000624473 -0.000379433)
(2.00588e-05 0.000634748 -0.00037138)
(3.14199e-05 0.000650958 -0.00035765)
(4.14947e-05 0.000672273 -0.000338035)
(4.98584e-05 0.000697457 -0.00031242)
(5.6135e-05 0.000725033 -0.000281127)
(6.00051e-05 0.000753154 -0.000245261)
(6.12766e-05 0.000779762 -0.000206977)
(5.99078e-05 0.000802451 -0.000169221)
(5.60586e-05 0.000818603 -0.000134978)
(5.00106e-05 0.00082522 -0.000106324)
(4.2198e-05 0.000818988 -8.40211e-05)
(3.31373e-05 0.000795987 -6.7958e-05)
(2.341e-05 0.000751632 -5.83515e-05)
(1.38244e-05 0.00068027 -5.62761e-05)
(7.03772e-06 0.000574843 -6.02601e-05)
(1.62154e-06 0.000330278 -5.91926e-05)
(-1.93975e-06 0.000379116 -5.33627e-05)
(-7.7827e-06 0.000646191 -5.48877e-05)
(-1.48697e-05 0.000761499 -5.14262e-05)
(-2.49413e-05 0.000839046 -5.40788e-05)
(-3.5203e-05 0.000886632 -6.42576e-05)
(-4.48068e-05 0.000910462 -8.09349e-05)
(-5.3173e-05 0.000915671 -0.000103959)
(-5.97691e-05 0.000906589 -0.00013343)
(-6.41596e-05 0.00088699 -0.000168517)
(-6.60337e-05 0.000860213 -0.000206976)
(-6.52361e-05 0.000829275 -0.000245718)
(-6.17999e-05 0.000796847 -0.00028175)
(-5.59236e-05 0.000765312 -0.00031301)
(-4.79229e-05 0.000736694 -0.00033849)
(-3.81796e-05 0.000712702 -0.000357993)
(-2.71039e-05 0.000694656 -0.000371678)
(-1.51259e-05 0.000683534 -0.000379815)
(-2.68116e-06 0.000679903 -0.000382591)
(9.79568e-06 0.000683976 -0.000380086)
(2.18673e-05 0.000695554 -0.000372205)
(3.30995e-05 0.000714081 -0.000358745)
(4.30569e-05 0.000738589 -0.000339422)
(5.13219e-05 0.000767758 -0.000314062)
(5.75108e-05 0.000799872 -0.000282853)
(6.13035e-05 0.00083289 -0.000246798)
(6.24896e-05 0.000864414 -0.000207965)
(6.10275e-05 0.000891738 -0.000169359)
(5.70673e-05 0.000911821 -0.000134099)
(5.09142e-05 0.000921285 -0.00010445)
(4.2993e-05 0.000916328 -8.12482e-05)
(3.38295e-05 0.000892584 -6.43796e-05)
(2.39921e-05 0.000844889 -5.39452e-05)
(1.4306e-05 0.000767004 -5.08876e-05)
(7.48684e-06 0.000651096 -5.38275e-05)
(1.83628e-06 0.000381747 -5.20463e-05)
(-2.40551e-06 0.000431359 -3.82034e-05)
(-8.40045e-06 0.000722619 -3.52105e-05)
(-1.55611e-05 0.0008482 -3.04408e-05)
(-2.56844e-05 0.000932185 -3.24271e-05)
(-3.59429e-05 0.000983058 -4.22167e-05)
(-4.55188e-05 0.00100761 -5.8762e-05)
(-5.38499e-05 0.00101145 -8.18939e-05)
(-6.0416e-05 0.000999376 -0.000111701)
(-6.47614e-05 0.000975579 -0.000147258)
(-6.65596e-05 0.000943842 -0.000186212)
(-6.56314e-05 0.000907567 -0.000225333)
(-6.20115e-05 0.00086983 -0.000261584)
(-5.59038e-05 0.000833329 -0.000292873)
(-4.76583e-05 0.000800379 -0.000318251)
(-3.76706e-05 0.000772855 -0.000337563)
(-2.63764e-05 0.000752213 -0.000351045)
(-1.42095e-05 0.000739466 -0.000359023)
(-1.60666e-06 0.000735223 -0.000361731)
(1.10157e-05 0.00073968 -0.000359263)
(2.32338e-05 0.000752656 -0.000351514)
(3.46123e-05 0.000773556 -0.000338233)
(4.47199e-05 0.000801377 -0.000319088)
(5.3114e-05 0.000834667 -0.00029383)
(5.93954e-05 0.000871548 -0.000262614)
(6.32154e-05 0.000909692 -0.000226387)
(6.43643e-05 0.000946383 -0.000187247)
(6.28024e-05 0.000978521 -0.000148246)
(5.87087e-05 0.00100268 -0.000112625)
(5.24066e-05 0.00101505 -8.27484e-05)
(4.43466e-05 0.00101141 -5.95365e-05)
(3.50432e-05 0.000986963 -4.28848e-05)
(2.50551e-05 0.000936057 -3.29224e-05)
(1.51827e-05 0.000851888 -3.06316e-05)
(8.20283e-06 0.000725949 -3.49782e-05)
(2.33153e-06 0.000432888 -3.76228e-05)
(-3.05789e-06 0.000479145 -1.83502e-05)
(-9.16087e-06 0.000791514 -7.43025e-06)
(-1.64551e-05 0.000926028 3.06828e-07)
(-2.66411e-05 0.0010156 3.45551e-07)
(-3.69274e-05 0.00106928 -7.91721e-06)
(-4.65279e-05 0.00109429 -2.33052e-05)
(-5.49422e-05 0.00109661 -4.56568e-05)
(-6.16513e-05 0.00108135 -7.51163e-05)
(-6.61769e-05 0.00105306 -0.000110858)
(-6.81298e-05 0.00101589 -0.000150571)
(-6.72928e-05 0.000973652 -0.000190961)
(-6.36263e-05 0.000929931 -0.000228591)
(-5.72931e-05 0.000887936 -0.000260954)
(-4.86826e-05 0.000850334 -0.000286814)
(-3.83025e-05 0.000819145 -0.000306154)
(-2.66082e-05 0.000795895 -0.000319463)
(-1.40596e-05 0.000781593 -0.000327267)
(-1.08502e-06 0.000776795 -0.000329909)
(1.19004e-05 0.000781704 -0.000327478)
(2.4478e-05 0.000796127 -0.000319879)
(3.62218e-05 0.000819524 -0.000306757)
(4.66745e-05 0.000850892 -0.000287577)
(5.53779e-05 0.000888717 -0.00026183)
(6.182e-05 0.000930982 -0.000229511)
(6.56042e-05 0.000975006 -0.000191875)
(6.65766e-05 0.00101757 -0.000151467)
(6.47705e-05 0.00105503 -0.000111752)
(6.04093e-05 0.00108359 -7.60194e-05)
(5.38793e-05 0.00109907 -4.657e-05)
(4.56527e-05 0.0010969 -2.42168e-05)
(3.62469e-05 0.00107197 -8.79195e-06)
(2.61591e-05 0.00101829 -4.19815e-07)
(1.61626e-05 0.000928607 -2.23696e-07)
(9.00799e-06 0.000793879 -7.60069e-06)
(2.99606e-06 0.000479989 -1.81488e-05)
(-3.64027e-06 0.000519624 1.89823e-06)
(-9.69648e-06 0.000848722 2.17457e-05)
(-1.69894e-05 0.000990339 3.3079e-05)
(-2.70628e-05 0.0010844 3.58028e-05)
(-3.71972e-05 0.00114035 2.97474e-05)
(-4.66696e-05 0.0011657 1.62847e-05)
(-5.51221e-05 0.00116662 -4.48611e-06)
(-6.19441e-05 0.00114843 -3.28364e-05)
(-6.6802e-05 0.00111575 -6.83616e-05)
(-6.9283e-05 0.00107289 -0.000109264)
(-6.87897e-05 0.00102407 -0.000152131)
(-6.53232e-05 0.00097347 -0.000192427)
(-5.90117e-05 0.000925129 -0.00022645)
(-5.00229e-05 0.000882332 -0.000252936)
(-3.92804e-05 0.000847234 -0.00027206)
(-2.71716e-05 0.000821263 -0.000284867)
(-1.42041e-05 0.000805353 -0.000292249)
(-8.05251e-07 0.00080002 -0.000294716)
(1.25984e-05 0.000805428 -0.000292394)
(2.55849e-05 0.00082142 -0.000285159)
(3.77198e-05 0.000847485 -0.000272498)
(4.85038e-05 0.0008827 -0.000253506)
(5.7555e-05 0.000925644 -0.000227132)
(6.39202e-05 0.000974178 -0.000193198)
(6.74699e-05 0.001025 -0.000152948)
(6.8077e-05 0.00107404 -0.000110102)
(6.56942e-05 0.00111711 -6.92319e-05)
(6.09497e-05 0.00114996 -3.37555e-05)
(5.42754e-05 0.0011683 -5.44603e-06)
(4.59706e-05 0.00116748 1.53143e-05)
(3.66521e-05 0.00114219 2.87934e-05)
(2.66734e-05 0.00108625 3.49286e-05)
(1.67494e-05 0.000992139 3.23961e-05)
(9.57136e-06 0.000850409 2.13669e-05)
(3.58382e-06 0.000519993 1.85533e-06)
(-3.99148e-06 0.000551602 1.79827e-05)
(-9.84996e-06 0.000892983 4.55107e-05)
(-1.70344e-05 0.00103984 6.00402e-05)
(-2.68775e-05 0.00113722 6.5169e-05)
(-3.67053e-05 0.00119485 6.11338e-05)
(-4.599e-05 0.00122038 4.94355e-05)
(-5.42627e-05 0.00122018 3.01273e-05)
(-6.11436e-05 0.0011996 2.72606e-06)
(-6.64044e-05 0.00116331 -3.28092e-05)
(-6.90563e-05 0.0011158 -7.47624e-05)
(-6.8983e-05 0.001061 -0.000118924)
(-6.59364e-05 0.00100327 -0.000160152)
(-5.98686e-05 0.000947383 -0.000194538)
(-5.09679e-05 0.00089796 -0.000220811)
(-3.99271e-05 0.000857957 -0.000239576)
(-2.75934e-05 0.000828594 -0.000251908)
(-1.43215e-05 0.000810711 -0.000258909)