/*--------------------------------*- C++ -*----------------------------------*\
| =========                 |                                                 |
| \\      /  F ield         | OpenFOAM: The Open Source CFD Toolbox           |
|  \\    /   O peration     | Version:  v1912                                 |
|   \\  /    A nd           | Website:  www.openfoam.com                      |
|    \\/     M anipulation  |                                                 |
\*---------------------------------------------------------------------------*/
FoamFile
{
    version     2.0;
    format      ascii;
    class       volScalarField;
    location    "208/oil";
    object      heatTransferCoeff(T);
}
// * * * * * * * * * * * * * * * * * * * * * * * * * * * * * * * * * * * * * //

dimensions      [1 0 -3 -1 0 0 0];


internalField   uniform 0;

boundaryField
{
    maxY
    {
        type            calculated;
        value           uniform 0;
    }
    minX
    {
        type            calculated;
        value           uniform 0;
    }
    maxX
    {
        type            calculated;
        value           uniform 0;
    }
    minY
    {
        type            calculated;
        value           uniform 0;
    }
    minZ
    {
        type            calculated;
        value           uniform 0;
    }
    maxZ
    {
        type            calculated;
        value           uniform 0;
    }
    oil_to_sphere
    {
        type            calculated;
        value           nonuniform List<scalar> 
1536
(
-149.093
-157.534
-143.273
-141.119
-115.049
-120.446
-118.748
-76.4482
-70.3491
-165.317
-113.442
-167.406
-170.846
-167.402
-140.117
-114.218
-78.0299
-71.1296
31.5385
-170.422
-165.381
-121.871
-119.367
-115.588
-124.005
-123.907
-123.923
-116.049
-157.819
-155.369
-143.516
-102.976
-91.5019
-124.624
-114.796
-113.734
-107.113
-132.06
-121.825
-131
-121.79
-113.81
-153.586
-167.72
-156.772
-166.311
-120.989
-121.27
-137.404
-124.649
-121.949
-122.253
-118.016
-120.426
-97.2052
-88.7109
-119.718
-119.221
-71.8114
-28.3389
-37.8855
-27.0372
-36.02
-170.267
-171.423
-167.01
-157.591
-166.841
-148.542
-156.088
-125.172
-120.374
-143.194
-122.392
-114.901
-92.1974
-86.9653
-83.2101
-114.487
-71.1475
-26.6888
-36.0909
-16.0481
-15.0105
-42.6848
-37.3916
-17.7485
-77.3627
-70.9276
-28.094
-36.9403
31.6858
31.4507
-171.124
-171.609
-167.97
-159.875
-163.542
-167.413
-147.669
-158.392
-124.478
-148.101
-143.91
-121.361
-122.333
-115.748
-84.0989
-112.95
-93.0615
-86.1883
-91.1084
-28.0308
-38.0775
-16.8563
-18.2967
-16.5749
-42.0683
-37.3868
-43.626
-71.6012
-37.1042
31.5335
-167.015
-147.709
-155.901
-148.68
-155.064
-121.791
-122.349
-123.64
-121.788
-122.356
-120.848
-123.233
-123.563
-120.482
-88.8357
-118.431
-117.944
-28.4713
-37.5854
-77.5834
-71.7258
-36.2544
-69.9693
-138.149
-138.048
-118.351
-126.217
-143.063
-137.73
-120.801
-123.417
-122.097
-107.112
-97.9946
-99.5797
-138.478
-135.53
-138.468
-149.237
-129.501
-123.353
-113.874
-107.528
-120.46
-110.088
-98.6961
-100.406
-152.028
-133.463
-155.897
-131.329
-101.255
-85.9072
-139.145
-140.465
-145.236
-136.52
-129.072
-122.801
-107.764
-121.908
-103.317
-100.737
-99.7771
-160.446
-136.424
-143.567
-151.094
-139.199
-149.011
-142.296
-104.298
-104.951
-109.524
-110.731
-102.654
-106.215
-109.537
-114.702
-70.8491
-67.2471
-63.6401
-73.4403
-78.1044
-76.1735
-83.5079
-80.7807
-67.8846
-60.6184
-56.7027
-162.756
-175.101
-171.508
-163.517
-163.675
-164.963
-163.147
-161.409
-168.091
-157.835
-162.009
-162.298
-139.953
-139.475
-156.555
-147.027
-126.709
-108.149
-103.356
-120.295
-104.856
-68.3554
-72.1239
-64.72
-73.7758
-77.2842
-65.6699
-59.811
-7.89815
-0.328338
-169.19
-163.019
-165.495
-161.982
-166.878
-175.581
-167.44
-161.783
-135.504
-124.736
-135.751
-137.768
-105.896
-114.97
-68.9506
-61.3971
-78.6736
-87.2364
-82.6826
-57.7554
0.270289
-6.95454
14.7037
14.8684
-7.62703
-165.279
-161.195
-160.35
-158.024
-161.948
-162.629
-159.587
-166.02
-178.04
-169.716
-161.274
-148.856
-138.102
-138.704
-145.888
-157.581
-147.734
-138.947
-138.721
-107.284
-108.522
-114.927
-116.682
-109.667
-114.666
-64.7956
-60.7731
-66.6942
-75.54
-72.1518
-77.7489
-76.3652
-76.6613
-64.1525
-58.8497
-73.6072
-66.7677
-126.176
-118.079
-120.138
-107.376
-103.327
-100.936
-96.2174
-153.677
-146.353
-157.17
-152.02
-146.358
-152.743
-155.192
-158.172
-163.483
-154.667
-156.803
-154.572
-174.056
-165.453
-162.442
-157.029
-163.637
-169.202
-162.333
-149.836
-152.316
-155.883
-146.59
-156.012
-158.538
-163.394
-162.54
-167.727
-165.781
-164.051
-159.552
-159.442
-158.229
-159.728
-153.345
-153.716
-147.76
-152.989
-144.792
-147.451
-158.41
-138.077
-152.732
-139.68
-142.532
-136.366
-126.681
-151.831
-138.572
-137.571
-145.576
-127.04
-133.813
-138.487
-125.519
-130.733
-121.233
-140.284
-151.545
-138.821
-139.923
-142.47
-128.995
-134.586
-133.189
-107.773
-112.095
-106.587
-98.9467
-94.0528
-99.4692
-88.6063
-84.8116
-108.777
-112.589
-108.103
-100.83
-95.4808
-103.236
-88.4996
-84.7976
-81.8063
-103.697
-84.2411
-100.515
-96.1614
-101.104
-88.3376
-108.282
-113.506
-107.565
-112.529
-86.8063
-82.2852
-100.56
-95.947
-102.258
-87.0068
-83.4319
-75.583
-71.3605
-75.0934
-71.023
-64.3266
-64.6053
-59.2779
-69.5606
-61.6596
-78.7558
-58.0684
-60.3135
-55.7634
-50.2195
-57.9389
-54.891
-46.2455
-42.5741
-33.853
-72.2796
-68.6051
-63.9283
-74.0794
-60.8062
-64.6455
-46.3049
-41.6736
-39.3974
-33.945
-56.1337
-51.1087
-58.2056
-55.1315
-53.4192
-75.0631
-70.9085
-75.6538
-76.2743
-64.5608
-58.7689
-71.6003
-66.1912
-190.928
-181.53
-173.167
-188.591
-174.311
-176.689
-181.725
-168.645
-171.239
-174.804
-173.871
-162.185
-168.972
-159.695
-158.65
-156.271
-155.859
-159.706
-157.967
-163.531
-168.67
-152.112
-164.446
-154.051
-159.463
-154.93
-165.114
-156.839
-164.661
-161.08
-166.726
-161.932
-152.543
-157.931
-147.902
-158.541
-136.702
-142.819
-140.823
-122.219
-130.313
-129.149
-139.981
-122.223
-137.652
-121.222
-130.03
-123.651
-115.725
-120.291
-108.377
-105.094
-96.384
-101.444
-99.0431
-93.3571
-85.9554
-101.974
-85.3447
-113.898
-106.962
-98.0881
-60.7268
-55.3068
-51.0901
-59.2455
-55.6866
-68.2883
-60.9035
-78.4234
-57.23
-45.6428
-43.5923
-34.7369
-22.499
-13.8515
-23.2738
-14.1986
-30.2311
-37.8799
-29.9056
-20.934
-23.033
-67.2677
-71.6313
-63.567
-73.3835
-57.1584
-51.3544
-59.2157
-54.0775
-67.3759
-60.1902
-75.4837
-82.2364
-57.5119
-45.8453
-54.0281
-42.5672
-33.9377
-50.7523
-7.20784
-0.198203
-8.63429
-0.307211
14.1517
14.3244
14.3918
14.4903
0.683553
-185.318
-171.434
-176.904
-174.951
-171.991
-185.541
-177.332
-174.524
-170.705
-162.84
-173.693
-175.643
-179.473
-163.609
-163.654
-169.083
-169.737
-152.175
-161.786
-152.531
-165.481
-160.063
-159.367
-156.401
-161.492
-155.976
-160.796
-166.271
-157.044
-151.334
-148.73
-160.641
-165.456
-152.118
-163.261
-153.822
-147.767
-167.283
-159.684
-158.663
-161.222
-154.605
-154.525
-159.016
-164.885
-155.184
-148.384
-140.278
-137.578
-130.753
-123.415
-131.979
-147.385
-142.27
-140.581
-133.695
-132.82
-128.158
-129.04
-129.978
-122.208
-122.437
-107.803
-119.696
-103.369
-109.947
-101.241
-96.6218
-125.13
-115.182
-88.3817
-104.252
-85.102
-103.759
-92.8745
-85.5692
-99.1165
-100.562
-99.4243
-99.2269
-97.0137
-121.366
-105.973
-45.7165
-44.0232
-40.0317
-35.0099
-71.8681
-67.4236
-63.9719
-73.7254
-60.8752
-64.7491
-51.8764
-58.9217
-58.8917
-54.8971
-52.8483
-30.8072
-30.837
-38.6596
-21.6775
-22.7463
-13.7335
-23.2707
-23.4658
-13.5209
-37.1078
-29.3081
-29.9331
-38.2863
-21.1753
-67.5773
-60.5431
-77.2868
-81.602
-57.6502
-46.2106
-54.3459
-41.7521
-39.6505
-51.1682
-65.5111
-59.3343
-71.0745
-68.2337
-63.8709
-73.7694
-76.9332
-51.0245
-55.9475
-58.8349
-54.4473
-53.3592
14.4552
14.2119
-8.29775
-7.5229
-0.559769
0.702426
-16.4841
-7.32587
0.472163
-146.15
-155.544
-154.114
-145.52
-154.1
-145.921
-145.473
-164.717
-161.355
-169.123
-161.646
-152.636
-158.734
-155.514
-163.401
-156.85
-160.05
-152.815
-153.01
-165.197
-159.684
-156.949
-157.84
-154.648
-154.434
-157.848
-148.841
-147.556
-152.963
-157.202
-152.358
-160.767
-155.45
-169.134
-153.21
-148.951
-151.291
-152.931
-147.762
-145.832
-158.723
-139.019
-130.114
-130.459
-135.715
-122.971
-150.507
-138.466
-137.962
-143.551
-134.046
-134.278
-129.129
-146.262
-136.766
-138.348
-143.296
-127.632
-129.023
-137.227
-135.427
-122.885
-141.859
-150.182
-140.735
-142.396
-134.855
-134.446
-130.25
-130.12
-122.222
-100.195
-95.6138
-101.478
-88.3744
-86.5545
-82.7151
-111.496
-104.961
-112.584
-108.027
-95.6144
-100.615
-100.345
-86.71
-83.2353
-84.2854
-108.281
-107.91
-113.493
-107.419
-113.413
-86.1328
-88.3822
-99.7264
-94.829
-100.513
-86.2095
-83.0564
-115.062
-106.89
-107.145
-110.138
-114.386
-88.1426
-83.8885
-96.1143
-101.525
-101.444
-70.9065
-75.7169
-64.4662
-63.8101
-58.4499
-75.1652
-71.3145
-75.714
-56.14
-50.9778
-58.6316
-54.1307
-47.6229
-56.2559
-43.3632
-34.4819
-51.9573
-67.9904
-70.9902
-63.4058
-73.9455
-82.0721
-92.0995
-71.6463
-63.363
-58.8333
-61.2045
-68.465
-46.1045
-53.4918
-42.3073
-40.6843
-50.1296
-56.6824
-51.6382
-57.6096
-56.0838
-53.4546
-75.6809
-82.0086
-68.2419
-60.7079
-57.1175
-73.6971
-77.6809
-68.0704
-71.9542
-64.5609
-144.223
-139.535
-86.7177
-79.6727
-167.308
-159.88
-164.887
-166.512
-164.779
-137.277
-149.453
-144.742
-148.653
-113.296
-122.499
-79.7928
-14.9385
-10.8391
-143.656
-143.31
-76.9416
-15.3294
-9.83291
-28.3418
-166.71
-139.113
-119.343
-27.1212
-148.91
-142.305
-146.752
-112.6
-123.784
-122.075
-76.3557
-144.35
-148.956
-121.64
-123.25
-147.076
-120.912
-122.656
-109.886
-114.956
-83.2466
-91.5906
-97.9924
-139.676
-145.535
-119.737
-129.291
-112.213
-118.569
-83.2883
-91.3722
-93.3302
-138.325
-148.462
-120.486
-133.393
-95.7344
-84.2274
-94.0996
-108.199
-129.786
-127.839
-147.208
-149.763
-123.086
-121.863
-119.37
-122.587
-92.779
-84.4078
-92.8472
-77.7664
-175.345
-170.456
-147.484
-163.588
-146.79
-167.87
-165.47
-122.619
-140.328
-139.894
-143.322
-139.371
-120.547
-94.9184
-91.3298
-91.3691
-92.3588
-91.8688
-89.6693
-47.6569
-79.5531
-43.9233
-48.4972
-171.458
-165.779
-173.681
-167.046
-171.813
-168.552
-171.558
-170.056
-173.89
-168.908
-147.338
-164.121
-147.321
-155.834
-147.733
-120.17
-131.347
-138
-152.155
-124.364
-145.53
-120.13
-84.348
-93.0578
-95.7067
-85.8968
-91.1026
-90.7848
-78.0496
-48.28
-40.6525
-37.165
-39.9929
-79.3688
-47.1525
-11.3846
-12.3827
-10.0116
-175.257
-171.449
-168.642
-178.537
-169.54
-173.411
-168.788
-176.172
-172.655
-148.15
-163.593
-144.509
-166.236
-165.088
-159.572
-164.663
-158.462
-145.887
-151.138
-119.513
-137.044
-151.264
-139.321
-149.519
-123.163
-83.5002
-93.7708
-111.746
-121.343
-89.3973
-97.8367
-85.3611
-92.305
-119.008
-80.0692
-47.8145
-35.9216
-40.9242
-36.8528
-78.7828
-47.1373
-11.5598
-10.1371
-10.8032
-170.687
-154.69
-148.957
-167.016
-146.031
-122.708
-143.304
-140.531
-140.346
-139.551
-90.4325
-98.4151
-89.9965
-90.0221
-90.475
-47.3632
-81.517
-49.0331
-81.1254
-146.721
-137.642
-128.753
-136.74
-148.718
-139.01
-101.313
-107.87
-100.882
-141.717
-148.574
-140.927
-131.919
-149.334
-126.72
-135.958
-134.597
-126.5
-140.65
-133.534
-148.102
-129.744
-133.681
-134.189
-129.825
-114.154
-112.713
-101.969
-101.555
-94.7427
-86.0775
-100.346
-92.5888
-96.9615
-147.582
-136.089
-130.748
-136.366
-146.068
-126.323
-128.505
-129.405
-117.654
-135.554
-107.595
-117.597
-114.833
-102.916
-103.673
-96.0625
-86.0549
-99.0447
-91.5829
-97.1926
-137.07
-145.55
-126.299
-127.19
-130.668
-116.227
-135.07
-112.968
-101.512
-91.3598
-102.23
-97.2944
-100.886
-159.13
-159.627
-158.095
-160.774
-129.035
-146.983
-141.301
-108.551
-108.783
-114.98
-113.974
-113.118
-76.1828
-84.253
-82.4366
-66.5854
-63.659
-85.4657
-78.0066
-77.7887
-160.734
-162.827
-166.328
-158.066
-132.376
-140.66
-127.893
-150.908
-139.239
-112.835
-112.641
-103.063
-77.2675
-88.2104
-82.3794
-67.1802
-30.6819
-32.1035
-21.5298
-22.7457
-13.5929
-8.24108
-160.955
-159.825
-159.729
-156.776
-164.293
-136.803
-145.683
-141.575
-106.813
-63.9792
-83.7065
-22.6183
-13.5054
-8.39884
2.23815
-33.8658
-160.754
-161.598
-166.263
-160.619
-164.178
-163.911
-161.313
-159.357
-164.576
-126.748
-134.38
-157.776
-139.376
-113.806
-114.028
-77.5214
-84.299
-76.5527
-71.9672
-81.7731
-66.1845
-34.5368
-113.037
-82.1665
-152.322
-148.738
-136.95
-137.585
-113.18
-106.398
-110.801
-99.0136
-91.0051
-101.048
-92.6404
-92.5072
-89.195
-174.784
-171.091
-142.745
-144.105
-153.705
-159.321
-157.225
-158.955
-144.965
-153.117
-149.645
-156.879
-145.513
-151.925
-162.301
-157.887
-158.805
-157.968
-144.076
-149.214
-151.837
-155.879
-160.471
-164.931
-161.861
-163.841
-154.194
-144.556
-150.878
-164.679
-161.009
-165.123
-161.746
-145.429
-159.579
-163.304
-157.012
-149.391
-152.531
-149.51
-136.73
-132.061
-153.358
-136.938
-129.717
-129.516
-120.11
-121.414
-120.892
-131.298
-149.17
-140.516
-123.002
-122.025
-129.827
-123.264
-131.48
-146.044
-134.967
-122.025
-115.948
-114.448
-98.2369
-101.142
-85.8119
-114.696
-98.3054
-102.758
-87.219
-109.452
-114.878
-99.287
-86.8504
-113.926
-94.6643
-99.3956
-76.9118
-76.6971
-63.8108
-64.8497
-53.113
-54.0618
-65.2988
-54.6231
-51.6996
-41.8649
-38.7928
-38.234
-43.8501
-75.5412
-66.7829
-54.0354
-50.3431
-42.8424
-43.1019
-37.8159
-72.0214
-77.3025
-53.7384
-176.611
-167.499
-172.48
-162.691
-166.733
-176.661
-159.66
-185.777
-167.509
-169.77
-168.527
-176.905
-169.081
-175.663
-186.204
-177.233
-167.282
-173.761
-154.08
-160.395
-170.208
-163.832
-147.187
-158.709
-152.252
-161.658
-157.667
-160.626
-157.779
-165.064
-152.654
-143.427
-148.14
-154.645
-164.327
-159.48
-158.659
-154.365
-127.648
-133.709
-121.867
-137.379
-145.284
-128.242
-133.686
-135.886
-137.814
-138.594
-145.757
-129.159
-108.039
-101.531
-95.8237
-104.196
-113.671
-90.9933
-93.0027
-100.605
-108.521
-101.333
-94.1968
-86.1281
-43.411
-40.7085
-39.228
-63.5626
-53.9782
-50.4283
-42.4662
-75.5686
-79.2927
-42.5045
-39.5972
-63.8317
-43.064
-8.55608
-8.85723
0.99246
-16.457
1.87507
-9.26545
-18.4378
-178.615
-167.588
-181.644
-173.053
-172.191
-165.336
-167.162
-159.737
-174.941
-181.656
-175.686
-167.768
-165.667
-163.674
-169.353
-169.639
-169.489
-154.107
-165.361
-151.543
-163.414
-165.217
-160.144
-142.093
-163.819
-155.861
-159.872
-158.162
-153.822
-158.297
-158.178
-147.559
-151.92
-146.107
-134.351
-147.326
-137.44
-128.844
-125.674
-116.812
-130.064
-147.618
-135.042
-135.873
-110.737
-92.6848
-95.0745
-106.452
-105.734
-97.3819
-103.784
-102.956
-100.771
-94.2698
-112.203
-113.075
-54.0925
-50.7227
-42.8579
-77.1081
-67.4471
-42.732
-38.9697
-64.3754
-43.4862
-75.7516
-41.9555
1.44366
-9.0377
-18.5343
-176.394
-160.476
-146.643
-157.744
-146.116
-146.491
-151.852
-164.353
-160.38
-159.009
-147.314
-152.562
-156.138
-154.288
-161.392
-158.425
-160.122
-157.972
-154.114
-144.369
-157.909
-151.341
-149.537
-138.406
-122.877
-133.033
-153.624
-136.321
-129.328
-121.267
-121.217
-130.849
-147.994
-121.588
-130.296
-147.452
-122.994
-97.5106
-88.2009
-110.299
-114.477
-110.418
-97.4336
-103.358
-112.82
-94.9889
-113.723
-95.0261
-52.7275
-77.0556
-42.209
-39.3757
-44.5799
-76.008
-84.3036
-65.1832
-42.5444
-44.3054
-63.3131
-76.3701
)
;
    }
}


// ************************************************************************* //
