/*--------------------------------*- C++ -*----------------------------------*\
| =========                 |                                                 |
| \\      /  F ield         | OpenFOAM: The Open Source CFD Toolbox           |
|  \\    /   O peration     | Version:  v1912                                 |
|   \\  /    A nd           | Website:  www.openfoam.com                      |
|    \\/     M anipulation  |                                                 |
\*---------------------------------------------------------------------------*/
FoamFile
{
    version     2.0;
    format      ascii;
    class       surfaceScalarField;
    location    "176/oil";
    object      phi;
}
// * * * * * * * * * * * * * * * * * * * * * * * * * * * * * * * * * * * * * //

dimensions      [1 0 -1 0 0 0 0];
oriented        oriented;


internalField   nonuniform List<scalar> 
104676
(
-7.54292e-12
2.56874e-11
-1.02407e-11
2.48885e-10
-2.03418e-10
-5.26676e-11
7.73851e-10
-3.81197e-10
-1.44052e-10
1.48622e-09
-4.6472e-10
-2.4758e-10
2.28077e-09
-4.75029e-10
-3.19524e-10
3.05302e-09
-4.32042e-10
-3.4023e-10
3.70874e-09
-3.51382e-10
-3.04355e-10
4.16917e-09
-2.44623e-10
-2.15826e-10
4.37293e-09
-1.20699e-10
-8.30846e-11
4.28674e-09
9.2537e-12
7.69168e-11
3.89427e-09
1.43429e-10
2.49042e-10
3.22269e-09
2.52973e-10
4.1862e-10
2.30707e-09
3.52529e-10
5.63109e-10
1.21311e-09
4.24657e-10
6.69318e-10
2.44841e-11
4.62792e-10
7.25835e-10
-1.16793e-09
4.64882e-10
7.27508e-10
-2.26509e-09
4.25139e-10
6.7198e-10
-3.18471e-09
3.52373e-10
5.6718e-10
-3.86318e-09
2.54679e-10
4.23737e-10
-4.2609e-09
1.40519e-10
2.57159e-10
-4.35801e-09
1.04635e-11
8.6624e-11
-4.15914e-09
-1.22943e-10
-7.59374e-11
-3.70279e-09
-2.46398e-10
-2.09977e-10
-3.05022e-09
-3.53048e-10
-2.99579e-10
-2.28056e-09
-4.33397e-10
-3.36329e-10
-1.48787e-09
-4.77286e-10
-3.15475e-10
-7.76122e-10
-4.68321e-10
-2.43483e-10
-2.50236e-10
-3.85592e-10
-1.40333e-10
8.16404e-12
-2.08068e-10
-5.03539e-11
1.8993e-11
-1.08569e-11
2.53513e-10
-4.81139e-10
2.53521e-10
9.74455e-10
-1.44358e-09
5.19186e-10
2.11894e-09
-2.16819e-09
6.42553e-10
3.55945e-09
-2.60903e-09
7.03836e-10
5.12279e-09
-2.81997e-09
7.81618e-10
6.62268e-09
-2.85332e-09
9.21405e-10
7.88317e-09
-2.75372e-09
1.14185e-09
8.75207e-09
-2.55631e-09
1.4428e-09
9.11078e-09
-2.29053e-09
1.81114e-09
8.88335e-09
-1.98286e-09
2.21957e-09
8.03439e-09
-1.65925e-09
2.65169e-09
6.61076e-09
-1.37586e-09
3.05253e-09
4.71884e-09
-1.1266e-09
3.37115e-09
2.47839e-09
-9.46248e-10
3.61145e-09
4.93264e-11
-8.51879e-10
3.74381e-09
-2.38927e-09
-8.52388e-10
3.75591e-09
-4.63613e-09
-9.50404e-10
3.62241e-09
-6.53028e-09
-1.1338e-09
3.38031e-09
-7.94268e-09
-1.38351e-09
3.05056e-09
-8.79469e-09
-1.67231e-09
2.66483e-09
-9.03613e-09
-1.9915e-09
2.24341e-09
-8.69e-09
-2.29696e-09
1.82789e-09
-7.83629e-09
-2.56018e-09
1.46005e-09
-6.59205e-09
-2.75682e-09
1.15948e-09
-5.10559e-09
-2.85742e-09
9.37485e-10
-3.55415e-09
-2.82567e-09
7.96869e-10
-2.12116e-09
-2.61879e-09
7.17412e-10
-9.77598e-10
-2.18132e-09
6.52133e-10
-2.54031e-10
-1.45486e-09
5.23221e-10
-4.88151e-10
2.53096e-10
5.31082e-10
-1.54867e-09
5.36117e-10
1.68645e-09
-3.74514e-09
1.14609e-09
3.30587e-09
-5.31289e-09
1.52521e-09
5.23003e-09
-6.3348e-09
1.8016e-09
7.25984e-09
-6.92138e-09
2.07162e-09
9.17623e-09
-7.16378e-09
2.3941e-09
1.07653e-08
-7.14024e-09
2.79753e-09
1.18374e-08
-6.9152e-09
3.2868e-09
1.22447e-08
-6.54718e-09
3.84939e-09
1.18926e-08
-6.08531e-09
4.45461e-09
1.07348e-08
-5.58288e-09
5.08162e-09
8.82011e-09
-5.10795e-09
5.6469e-09
6.28719e-09
-4.69148e-09
6.09798e-09
3.29927e-09
-4.38739e-09
6.42924e-09
6.35084e-11
-4.23058e-09
6.61462e-09
-3.18784e-09
-4.23796e-09
6.63704e-09
-6.18544e-09
-4.39745e-09
6.44472e-09
-8.71928e-09
-4.70307e-09
6.10316e-09
-1.06235e-08
-5.11639e-09
5.63711e-09
-1.17971e-08
-5.59545e-09
5.09683e-09
-1.21695e-08
-6.09674e-09
4.47761e-09
-1.17772e-08
-6.55524e-09
3.86609e-09
-1.07209e-08
-6.92147e-09
3.30499e-09
-9.14835e-09
-7.14498e-09
2.81556e-09
-7.24709e-09
-7.16994e-09
2.41121e-09
-5.22775e-09
-6.93191e-09
2.08684e-09
-3.31049e-09
-6.34982e-09
1.81374e-09
-1.69257e-09
-5.33131e-09
1.53206e-09
-5.34012e-10
-3.75988e-09
1.14648e-09
-1.55704e-09
5.34882e-10
7.60853e-10
-3.07966e-09
7.70049e-10
2.28138e-09
-6.92609e-09
1.66041e-09
4.28577e-09
-9.5621e-09
2.24482e-09
6.57823e-09
-1.13223e-08
2.69506e-09
8.9398e-09
-1.24093e-08
3.12645e-09
1.11347e-08
-1.29626e-08
3.60398e-09
1.29314e-08
-1.30977e-08
4.16082e-09
1.41226e-08
-1.29101e-08
4.8037e-09
1.45403e-08
-1.24863e-08
5.52158e-09
1.40753e-08
-1.19058e-08
6.28559e-09
1.26734e-08
-1.12487e-08
7.06792e-09
1.04004e-08
-1.05933e-08
7.75853e-09
7.40743e-09
-1.00226e-08
8.32435e-09
3.88427e-09
-9.58265e-09
8.7187e-09
7.19192e-11
-9.35848e-09
8.94051e-09
-3.76107e-09
-9.37421e-09
8.96946e-09
-7.29689e-09
-9.59347e-09
8.73198e-09
-1.02926e-08
-1.00216e-08
8.31437e-09
-1.25564e-08
-1.05953e-08
7.74277e-09
-1.39716e-08
-1.12532e-08
7.07306e-09
-1.44553e-08
-1.19107e-08
6.29768e-09
-1.40546e-08
-1.24898e-08
5.53395e-09
-1.28816e-08
-1.29132e-08
4.81885e-09
-1.11017e-08
-1.31006e-08
4.17566e-09
-8.92294e-09
-1.29681e-08
3.61936e-09
-6.5751e-09
-1.24202e-08
3.1404e-09
-4.28948e-09
-1.13401e-08
2.70466e-09
-2.28749e-09
-9.57961e-09
2.24633e-09
-7.66406e-10
-6.93259e-09
1.65167e-09
-3.09059e-09
7.67164e-10
9.34209e-10
-4.95668e-09
9.4277e-10
2.73655e-09
-1.07648e-08
2.03637e-09
5.04255e-09
-1.46422e-08
2.7741e-09
7.61933e-09
-1.72519e-08
3.35288e-09
1.02297e-08
-1.8925e-08
3.9054e-09
1.26262e-08
-1.98637e-08
4.50463e-09
1.4568e-08
-2.02248e-08
5.1855e-09
1.58364e-08
-2.01359e-08
5.95753e-09
1.62558e-08
-1.97118e-08
6.80629e-09
1.5706e-08
-1.906e-08
7.7042e-09
1.41289e-08
-1.8291e-08
8.61972e-09
1.15927e-08
-1.75009e-08
9.44411e-09
8.24992e-09
-1.67916e-08
1.01121e-08
4.32334e-09
-1.62154e-08
1.05596e-08
7.75059e-11
-1.59239e-08
1.08116e-08
-4.19251e-09
-1.59454e-08
1.08415e-08
-8.12831e-09
-1.6229e-08
1.05716e-08
-1.14677e-08
-1.67705e-08
1.00885e-08
-1.40037e-08
-1.74949e-08
9.43576e-09
-1.55958e-08
-1.82898e-08
8.62887e-09
-1.61649e-08
-1.906e-08
7.71857e-09
-1.57641e-08
-1.9712e-08
6.8215e-09
-1.45133e-08
-2.01372e-08
5.97331e-09
-1.25878e-08
-2.02272e-08
5.20109e-09
-1.0207e-08
-1.98682e-08
4.51941e-09
-7.61128e-09
-1.89339e-08
3.91793e-09
-5.04459e-09
-1.7267e-08
3.36018e-09
-2.74094e-09
-1.46555e-08
2.77225e-09
-9.39093e-10
-1.0758e-08
2.02357e-09
-4.96993e-09
9.40291e-10
1.05071e-09
-7.06823e-09
1.06084e-09
3.05319e-09
-1.50547e-08
2.28743e-09
5.57852e-09
-2.02981e-08
3.13069e-09
8.36167e-09
-2.38363e-08
3.80136e-09
1.11515e-08
-2.61569e-08
4.44221e-09
1.3693e-08
-2.754e-08
5.13498e-09
1.57399e-08
-2.81881e-08
5.9166e-09
1.70673e-08
-2.82619e-08
6.79871e-09
1.74931e-08
-2.79026e-08
7.76521e-09
1.68926e-08
-2.72428e-08
8.7835e-09
1.52047e-08
-2.64174e-08
9.81454e-09
1.2476e-08
-2.55589e-08
1.07869e-08
8.87451e-09
-2.47504e-08
1.15608e-08
4.64791e-09
-2.40479e-08
1.20595e-08
7.7971e-11
-2.36809e-08
1.23273e-08
-4.51826e-09
-2.37042e-08
1.23554e-08
-8.74565e-09
-2.40799e-08
1.20785e-08
-1.23366e-08
-2.47102e-08
1.15308e-08
-1.50704e-08
-2.55461e-08
1.07853e-08
-1.67762e-08
-2.64135e-08
9.82964e-09
-1.73982e-08
-2.72398e-08
8.80206e-09
-1.69924e-08
-2.79014e-08
7.78382e-09
-1.56831e-08
-2.82632e-08
6.81675e-09
-1.36527e-08
-2.81909e-08
5.93351e-09
-1.11255e-08
-2.75448e-08
5.1494e-09
-8.34926e-09
-2.61642e-08
4.45411e-09
-5.57713e-09
-2.38462e-08
3.80716e-09
-3.0579e-09
-2.03008e-08
3.12617e-09
-1.05619e-09
-1.50338e-08
2.27417e-09
-7.08564e-09
1.05957e-09
1.10938e-09
-9.31106e-09
1.13349e-09
3.23508e-09
-1.96308e-08
2.45047e-09
5.89881e-09
-2.6311e-08
3.34922e-09
8.81006e-09
-3.08181e-08
4.0707e-09
1.17102e-08
-3.38283e-08
4.77145e-09
1.43417e-08
-3.57054e-08
5.53402e-09
1.64571e-08
-3.67004e-08
6.39706e-09
1.78274e-08
-3.70065e-08
7.37448e-09
1.82673e-08
-3.67899e-08
8.44753e-09
1.76454e-08
-3.62011e-08
9.58043e-09
1.5899e-08
-3.53986e-08
1.07279e-08
1.30437e-08
-3.45366e-08
1.18333e-08
9.28248e-09
-3.37075e-08
1.27188e-08
4.86085e-09
-3.28905e-08
1.32647e-08
8.43355e-11
-3.24546e-08
1.35507e-08
-4.71441e-09
-3.24904e-08
1.35853e-08
-9.15162e-09
-3.29513e-08
1.33088e-08
-1.29009e-08
-3.36594e-08
1.26987e-08
-1.57611e-08
-3.45246e-08
1.1839e-08
-1.75267e-08
-3.53983e-08
1.07506e-08
-1.81702e-08
-3.62018e-08
9.60572e-09
-1.7751e-08
-3.67915e-08
8.4711e-09
-1.6399e-08
-3.70106e-08
7.39563e-09
-1.43004e-08
-3.67065e-08
6.41702e-09
-1.16825e-08
-3.57123e-08
5.54962e-09
-8.79529e-09
-3.38348e-08
4.78341e-09
-5.8958e-09
-3.08202e-08
4.07459e-09
-3.24314e-09
-2.62911e-08
3.33769e-09
-1.12297e-09
-1.95787e-08
2.42489e-09
-9.33908e-09
1.13055e-09
1.13142e-09
-1.16e-08
1.15755e-09
3.29313e-09
-2.43054e-08
2.51296e-09
6.00276e-09
-3.24588e-08
3.43825e-09
8.95803e-09
-3.79547e-08
4.18143e-09
1.18916e-08
-4.16734e-08
4.91156e-09
1.455e-08
-4.40847e-08
5.72106e-09
1.66897e-08
-4.54861e-08
6.64625e-09
1.8083e-08
-4.61002e-08
7.70061e-09
1.85406e-08
-4.61133e-08
8.86589e-09
1.79287e-08
-4.5692e-08
1.0103e-08
1.61734e-08
-4.50042e-08
1.13611e-08
1.32742e-08
-4.42249e-08
1.25878e-08
9.44136e-09
-4.34728e-08
1.35985e-08
4.93689e-09
-4.25617e-08
1.41762e-08
8.40061e-11
-4.20962e-08
1.44949e-08
-4.79797e-09
-4.21401e-08
1.4532e-08
-9.33561e-09
-4.26246e-08
1.42112e-08
-1.31401e-08
-4.3422e-08
1.35674e-08
-1.60371e-08
-4.42163e-08
1.25889e-08
-1.78104e-08
-4.50084e-08
1.13837e-08
-1.84445e-08
-4.56963e-08
1.01289e-08
-1.80073e-08
-4.61189e-08
8.89046e-09
-1.66317e-08
-4.61093e-08
7.72333e-09
-1.45079e-08
-4.54979e-08
6.66775e-09
-1.18627e-08
-4.40962e-08
5.73888e-09
-8.94237e-09
-4.16791e-08
4.92399e-09
-6.00308e-09
-3.79377e-08
4.17822e-09
-3.30634e-09
-3.24008e-08
3.41307e-09
-1.14383e-09
-2.422e-08
2.47892e-09
-1.16396e-08
1.15678e-09
1.1119e-09
-1.38485e-08
1.13668e-09
3.22237e-09
-2.88952e-08
2.47943e-09
5.87697e-09
-3.85268e-08
3.41354e-09
8.78148e-09
-4.5017e-08
4.15791e-09
1.16665e-08
-4.94397e-08
4.88147e-09
1.42777e-08
-5.23951e-08
5.69944e-09
1.63851e-08
-5.42495e-08
6.65618e-09
1.77698e-08
-5.5243e-08
7.7582e-09
1.82426e-08
-5.55714e-08
8.98543e-09
1.76667e-08
-5.54139e-08
1.0298e-08
1.59722e-08
-5.49415e-08
1.16322e-08
1.31458e-08
-5.43232e-08
1.2925e-08
9.33452e-09
-5.37002e-08
1.40392e-08
4.87474e-09
-5.27619e-08
1.46605e-08
8.00229e-11
-5.23369e-08
1.50358e-08
-4.74987e-09
-5.23758e-08
1.5066e-08
-9.25535e-09
-5.2786e-08
1.46672e-08
-1.30333e-08
-5.36234e-08
1.39796e-08
-1.58423e-08
-5.4316e-08
1.29089e-08
-1.75514e-08
-5.495e-08
1.16509e-08
-1.81477e-08
-5.54241e-08
1.03244e-08
-1.76948e-08
-5.55827e-08
9.01113e-09
-1.63278e-08
-5.52579e-08
7.78185e-09
-1.42356e-08
-5.42683e-08
6.67829e-09
-1.16389e-08
-5.24081e-08
5.71519e-09
-8.77527e-09
-4.94204e-08
4.87777e-09
-5.89205e-09
-4.49423e-08
4.1215e-09
-3.24509e-09
-3.84057e-08
3.35803e-09
-1.11965e-09
-2.87857e-08
2.44034e-09
-1.38966e-08
1.13748e-09
1.05502e-09
-1.59694e-08
1.06598e-09
3.04738e-09
-3.32156e-08
2.3282e-09
5.52793e-09
-4.42452e-08
3.23788e-09
8.26143e-09
-5.17291e-08
3.9787e-09
1.09991e-08
-5.68591e-08
4.68188e-09
1.34791e-08
-6.03385e-08
5.46366e-09
1.54855e-08
-6.26618e-08
6.40603e-09
1.68165e-08
-6.40852e-08
7.51141e-09
1.72945e-08
-6.48027e-08
8.7534e-09
1.67798e-08
-6.49908e-08
1.00916e-08
1.52056e-08
-6.48194e-08
1.14522e-08
1.25588e-08
-6.44405e-08
1.27644e-08
8.88993e-09
-6.39638e-08
1.39329e-08
4.63987e-09
-6.31192e-08
1.46078e-08
7.46955e-11
-6.27769e-08
1.50057e-08
-4.51773e-09
-6.28139e-08
1.50308e-08
-8.79851e-09
-6.30975e-08
1.45924e-08
-1.24493e-08
-6.38093e-08
1.38368e-08
-1.50841e-08
-6.4422e-08
1.27411e-08
-1.66687e-08
-6.48339e-08
1.14687e-08
-1.72031e-08
-6.50069e-08
1.01175e-08
-1.67452e-08
-6.48192e-08
8.77884e-09
-1.543e-08
-6.41076e-08
7.53464e-09
-1.34362e-08
-6.26876e-08
6.42566e-09
-1.09775e-08
-6.03323e-08
5.46547e-09
-8.27135e-09
-5.67651e-08
4.63854e-09
-5.5463e-09
-5.15674e-08
3.90008e-09
-3.0502e-09
-4.40678e-08
3.16614e-09
-1.05147e-09
-3.30805e-08
2.29622e-09
-1.60196e-08
1.07159e-09
9.52211e-10
-1.78677e-08
9.46241e-10
2.75661e-09
-3.70596e-08
2.03971e-09
4.97988e-09
-4.93235e-08
2.85515e-09
7.40862e-09
-5.77377e-08
3.57998e-09
9.87146e-09
-6.35811e-08
4.25933e-09
1.21171e-08
-6.75664e-08
4.98243e-09
1.39439e-08
-7.03501e-08
5.86174e-09
1.51703e-08
-7.22278e-08
6.91626e-09
1.56322e-08
-7.3373e-08
8.10839e-09
1.52021e-08
-7.39501e-08
9.3894e-09
1.38312e-08
-7.41092e-08
1.06609e-08
1.14835e-08
-7.39596e-08
1.1867e-08
8.10282e-09
-7.35928e-08
1.30101e-08
4.22141e-09
-7.30415e-08
1.38041e-08
6.81331e-11
-7.28427e-08
1.42195e-08
-4.10209e-09
-7.28801e-08
1.42366e-08
-7.96471e-09
-7.30247e-08
1.37899e-08
-1.12858e-08
-7.35182e-08
1.30301e-08
-1.36684e-08
-7.40573e-08
1.20181e-08
-1.50889e-08
-7.41567e-08
1.07436e-08
-1.55432e-08
-7.39738e-08
9.4215e-09
-1.51028e-08
-7.33886e-08
8.12914e-09
-1.38897e-08
-7.22541e-08
6.93364e-09
-1.20713e-08
-7.03786e-08
5.87267e-09
-9.84819e-09
-6.75156e-08
4.96023e-09
-7.40748e-09
-6.33832e-08
4.17743e-09
-4.94815e-09
-5.75081e-08
3.48144e-09
-2.70786e-09
-4.91175e-08
2.80955e-09
-9.2451e-10
-3.68966e-08
2.03287e-09
-1.78971e-08
9.53112e-10
8.02486e-10
-1.94511e-08
7.8108e-10
2.34015e-09
-4.0237e-08
1.6398e-09
4.21908e-09
-5.34577e-08
2.25537e-09
6.25648e-09
-6.26487e-08
2.87371e-09
8.28581e-09
-6.91376e-08
3.52725e-09
1.01706e-08
-7.36519e-08
4.20087e-09
1.17289e-08
-7.68848e-08
4.97663e-09
1.28005e-08
-7.9216e-08
5.91669e-09
1.32366e-08
-8.07926e-08
6.98349e-09
1.29208e-08
-8.17301e-08
8.0956e-09
1.17758e-08
-8.21499e-08
9.18571e-09
9.72957e-09
-8.22541e-08
1.03409e-08
6.87507e-09
-8.21688e-08
1.14309e-08
3.59298e-09
-8.19245e-08
1.21656e-08
5.77381e-11
-8.18466e-08
1.25394e-08
-3.50353e-09
-8.1826e-08
1.25073e-08
-6.7931e-09
-8.17967e-08
1.20615e-08
-9.60868e-09
-8.20565e-08
1.13538e-08
-1.16196e-08
-8.24924e-08
1.04461e-08
-1.2792e-08
-8.22394e-08
9.25528e-09
-1.31387e-08
-8.17254e-08
8.09861e-09
-1.27326e-08
-8.07703e-08
6.97587e-09
-1.16761e-08
-7.92281e-08
5.9176e-09
-1.01097e-08
-7.69148e-08
4.9697e-09
-8.22672e-09
-7.35649e-08
4.16626e-09
-6.1835e-09
-6.89246e-08
3.49816e-09
-4.15264e-09
-6.24724e-08
2.9335e-09
-2.28747e-09
-5.33683e-08
2.38566e-09
-7.89482e-10
-4.01238e-08
1.7293e-09
-1.94937e-08
8.07238e-10
6.15855e-10
-2.06558e-08
5.88968e-10
1.77327e-09
-4.26486e-08
1.25428e-09
3.22426e-09
-5.66021e-08
1.69335e-09
4.7781e-09
-6.62748e-08
2.07221e-09
6.28435e-09
-7.31855e-08
2.54177e-09
7.68649e-09
-7.81643e-08
3.11044e-09
8.86926e-09
-8.18194e-08
3.75202e-09
9.72483e-09
-8.45526e-08
4.48105e-09
1.0143e-08
-8.65092e-08
5.29831e-09
9.92061e-09
-8.7692e-08
6.18405e-09
8.93924e-09
-8.83374e-08
7.16874e-09
7.29401e-09
-8.87892e-08
8.18034e-09
5.22517e-09
-8.91332e-08
9.03355e-09
2.76382e-09
-8.90827e-08
9.62006e-09
5.08676e-11
-8.90352e-08
9.9019e-09
-2.70809e-09
-8.89042e-08
9.83717e-09
-5.22188e-09
-8.87593e-08
9.47613e-09
-7.3381e-09
-8.88082e-08
8.86765e-09
-8.93524e-09
-8.89023e-08
8.00704e-09
-9.82083e-09
-8.83054e-08
6.95188e-09
-1.00364e-08
-8.75503e-08
6.04081e-09
-9.6931e-09
-8.63112e-08
5.19789e-09
-8.88452e-09
-8.44602e-08
4.4236e-09
-7.70931e-09
-8.18617e-08
3.77169e-09
-6.27748e-09
-7.82067e-08
3.20981e-09
-4.72158e-09
-7.31797e-08
2.69902e-09
-3.17059e-09
-6.62707e-08
2.24728e-09
-1.74603e-09
-5.66059e-08
1.8131e-09
-6.03483e-10
-4.25767e-08
1.31048e-09
-2.07077e-08
6.10597e-10
4.16238e-10
-2.14303e-08
3.5838e-10
1.12222e-09
-4.41076e-08
7.53086e-10
2.02821e-09
-5.8597e-08
1.08886e-09
3.0115e-09
-6.86174e-08
1.35929e-09
3.97643e-09
-7.58209e-08
1.67058e-09
4.87973e-09
-8.10964e-08
2.02905e-09
5.63844e-09
-8.49881e-08
2.41016e-09
6.15372e-09
-8.78604e-08
2.79262e-09
6.43146e-09
-8.99965e-08
3.2094e-09
6.2697e-09
-9.13528e-08
3.82223e-09
5.62545e-09
-9.22693e-08
4.5759e-09
4.62848e-09
-9.30614e-08
5.26924e-09
3.32421e-09
-9.36404e-08
5.81185e-09
1.76554e-09
-9.37124e-08
6.18892e-09
5.90732e-11
-9.37268e-08
6.39842e-09
-1.67416e-09
-9.35517e-08
6.38069e-09
-3.26361e-09
-9.33389e-08
6.16864e-09
-4.57559e-09
-9.32782e-08
5.78159e-09
-5.60022e-09
-9.31313e-08
5.25355e-09
-6.23006e-09
-9.22323e-08
4.55695e-09
-6.46453e-09
-9.1137e-08
3.82155e-09
-6.28129e-09
-8.96304e-08
3.13628e-09
-5.72667e-09
-8.76249e-08
2.61017e-09
-4.90744e-09
-8.49308e-08
2.2497e-09
-3.96184e-09
-8.11166e-08
1.96406e-09
-2.96835e-09
-7.58591e-08
1.68582e-09
-1.98781e-09
-6.86612e-08
1.40996e-09
-1.09149e-09
-5.86389e-08
1.13676e-09
-3.77644e-10
-4.41103e-08
8.1977e-10
-2.14669e-08
3.81639e-10
1.5245e-10
-2.17048e-08
1.22093e-10
3.9112e-10
-4.46076e-08
2.61248e-10
7.10912e-10
-5.93068e-08
3.89784e-10
1.06227e-09
-6.94557e-08
4.86789e-10
1.41742e-09
-7.676e-08
5.84028e-10
1.77736e-09
-8.21214e-08
6.65383e-10
2.112e-09
-8.60591e-08
7.36665e-10
2.31197e-09
-8.89123e-08
8.51937e-10
2.34042e-09
-9.10573e-08
1.03198e-09
2.21482e-09
-9.2516e-08
1.28826e-09
2.01467e-09
-9.36266e-08
1.55688e-09
1.72126e-09
-9.45526e-08
1.78453e-09
1.16991e-09
-9.50279e-08
1.93935e-09
5.84689e-10
-9.51758e-08
2.04925e-09
3.65408e-11
-9.53374e-08
2.15909e-09
-5.74168e-10
-9.51931e-08
2.25187e-09
-1.14615e-09
-9.50147e-08
2.24701e-09
-1.59871e-09
-9.4926e-08
2.09963e-09
-1.95486e-09
-9.46795e-08
1.90409e-09
-2.17475e-09
-9.36764e-08
1.66427e-09
-2.26378e-09
-9.24584e-08
1.41091e-09
-2.20782e-09
-9.08522e-08
1.16625e-09
-2.01427e-09
-8.87849e-08
9.66455e-10
-1.72408e-09
-8.60357e-08
8.14433e-10
-1.38677e-09
-8.21423e-08
6.88105e-10
-1.03376e-09
-7.67871e-08
5.74695e-10
-6.8674e-10
-6.94837e-08
4.75314e-10
-3.72922e-10
-5.93352e-08
3.82461e-10
-1.28364e-10
-4.46278e-08
2.73036e-10
-2.17265e-08
1.31413e-10
-1.06557e-10
-2.14809e-08
-1.173e-10
-3.31219e-10
-4.41465e-08
-2.36642e-10
-6.07419e-10
-5.87082e-08
-3.22613e-10
-9.09309e-10
-6.87522e-08
-4.01757e-10
-1.2202e-09
-7.59737e-08
-4.75222e-10
-1.53246e-09
-8.12813e-08
-5.27317e-10
-1.8241e-09
-8.52008e-08
-5.66189e-10
-2.00943e-09
-8.80837e-08
-6.43232e-10
-2.01331e-09
-9.0231e-08
-8.23107e-10
-1.87802e-09
-9.15595e-08
-1.09279e-09
-1.70282e-09
-9.24534e-08
-1.34914e-09
-1.55125e-09
-9.31838e-08
-1.5205e-09
-1.31029e-09
-9.36368e-08
-1.63136e-09
-8.06584e-10
-9.39309e-08
-1.74764e-09
-7.23606e-11
-9.41456e-08
-1.9255e-09
5.29333e-10
-9.38007e-08
-1.9945e-09
1.04633e-09
-9.36188e-08
-1.91396e-09
1.51094e-09
-9.36043e-08
-1.78735e-09
1.76647e-09
-9.33108e-08
-1.62458e-09
1.9311e-09
-9.24072e-08
-1.43347e-09
2.01347e-09
-9.132e-08
-1.22011e-09
1.96931e-09
-8.98063e-08
-1.00133e-09
1.81521e-09
-8.78008e-08
-8.29987e-10
1.5561e-09
-8.50704e-08
-7.06568e-10
1.25579e-09
-8.12305e-08
-6.11997e-10
9.44456e-10
-7.59538e-08
-5.22308e-10
6.33715e-10
-6.87402e-08
-4.32841e-10
3.52205e-10
-5.87106e-08
-3.43063e-10
1.26888e-10
-4.4164e-08
-2.3837e-10
-2.14884e-08
-1.11104e-10
-3.62916e-10
-2.07517e-08
-3.66366e-10
-1.05414e-09
-4.26718e-08
-7.83717e-10
-1.91668e-09
-5.67581e-08
-1.08808e-09
-2.86068e-09
-6.64574e-08
-1.35103e-09
-3.80845e-09
-7.34002e-08
-1.62538e-09
-4.68644e-09
-7.84706e-08
-1.93196e-09
-5.41587e-09
-8.21953e-08
-2.27537e-09
-5.93288e-09
-8.49042e-08
-2.66249e-09
-6.17291e-09
-8.68946e-08
-3.09725e-09
-5.98956e-09
-8.80839e-08
-3.66042e-09
-5.37504e-09
-8.87038e-08
-4.36531e-09
-4.48858e-09
-8.90701e-08
-5.00025e-09
-3.28156e-09
-8.93545e-08
-5.48831e-09
-1.76336e-09
-8.9576e-08
-5.87168e-09
-2.6839e-11
-8.97609e-08
-6.12059e-09
1.64933e-09
-8.93798e-08
-6.09772e-09
3.22442e-09
-8.93083e-08
-5.88704e-09
4.60246e-09
-8.94772e-08
-5.50648e-09
5.42907e-09
-8.91565e-08
-4.98139e-09
5.96707e-09
-8.85615e-08
-4.38323e-09
6.20606e-09
-8.78627e-08
-3.69545e-09
6.02835e-09
-8.66502e-08
-2.97774e-09
5.51292e-09
-8.478e-08
-2.50546e-09
4.72402e-09
-8.20908e-08
-2.19125e-09
3.81799e-09
-7.84163e-08
-1.90888e-09
2.87996e-09
-7.33898e-08
-1.6265e-09
1.93877e-09
-6.64594e-08
-1.33984e-09
1.08386e-09
-5.67962e-08
-1.0595e-09
3.9381e-10
-4.27367e-08
-7.37108e-10
-2.07428e-08
-3.51646e-10
-5.94213e-10
-1.95621e-08
-5.9564e-10
-1.71252e-09
-4.02748e-08
-1.27918e-09
-3.10875e-09
-5.35869e-08
-1.77556e-09
-4.62972e-09
-6.27326e-08
-2.2041e-09
-6.14946e-09
-6.92286e-08
-2.65135e-09
-7.53661e-09
-7.3913e-08
-3.1693e-09
-8.66748e-09
-7.72972e-08
-3.76628e-09
-9.46893e-09
-7.96451e-08
-4.45769e-09
-9.87095e-09
-8.12565e-08
-5.23746e-09
-9.67553e-09
-8.22303e-08
-6.05106e-09
-8.73986e-09
-8.26542e-08
-6.98691e-09
-7.18394e-09
-8.26705e-08
-7.95559e-09
-5.14654e-09
-8.26152e-08
-8.77533e-09
-2.71785e-09
-8.26303e-08
-9.37264e-09
-3.04338e-11
-8.27528e-08
-9.69472e-09
2.64189e-09
-8.24309e-08
-9.62202e-09
5.12973e-09
-8.24832e-08
-9.31486e-09
7.28376e-09
-8.28984e-08
-8.7346e-09
8.74884e-09
-8.27292e-08
-7.89305e-09
9.6353e-09
-8.24816e-08
-6.96569e-09
9.90443e-09
-8.2098e-08
-6.03273e-09
9.56561e-09
-8.12134e-08
-5.09735e-09
8.72676e-09
-7.9651e-08
-4.29018e-09
7.53692e-09
-7.72829e-08
-3.61875e-09
6.12788e-09
-7.3964e-08
-3.0441e-09
4.63516e-09
-6.93655e-08
-2.53215e-09
3.14361e-09
-6.28842e-08
-2.08394e-09
1.76558e-09
-5.37614e-08
-1.65673e-09
6.30878e-10
-4.04365e-08
-1.16528e-09
-1.95492e-08
-5.62516e-10
-7.93419e-10
-1.7981e-08
-7.87887e-10
-2.26575e-09
-3.71078e-08
-1.69526e-09
-4.10753e-09
-4.93811e-08
-2.36488e-09
-6.1169e-09
-5.78041e-08
-2.91959e-09
-8.13394e-09
-6.37255e-08
-3.48546e-09
-1.00015e-08
-6.78982e-08
-4.14588e-09
-1.15561e-08
-7.08012e-08
-4.94023e-09
-1.26072e-08
-7.27184e-08
-5.87571e-09
-1.30377e-08
-7.39069e-08
-6.92079e-09
-1.27344e-08
-7.45329e-08
-8.00333e-09
-1.15898e-08
-7.47213e-08
-9.07958e-09
-9.53858e-09
-7.45413e-08
-1.01806e-08
-6.77347e-09
-7.41566e-08
-1.12221e-08
-3.54595e-09
-7.3871e-08
-1.19846e-08
-2.3786e-11
-7.38851e-08
-1.23889e-08
3.48825e-09
-7.36567e-08
-1.22873e-08
6.74334e-09
-7.38354e-08
-1.19053e-08
9.54772e-09
-7.44738e-08
-1.12311e-08
1.15624e-08
-7.46185e-08
-1.0126e-08
1.2723e-08
-7.46916e-08
-8.9499e-09
1.30612e-08
-7.45274e-08
-7.90734e-09
1.26541e-08
-7.39353e-08
-6.87004e-09
1.16023e-08
-7.27597e-08
-5.83958e-09
1.00632e-08
-7.08361e-08
-4.90868e-09
8.19757e-09
-6.79729e-08
-4.12666e-09
6.19129e-09
-6.39128e-08
-3.44733e-09
4.20431e-09
-5.81174e-08
-2.78012e-09
2.35141e-09
-4.97573e-08
-2.15111e-09
8.31035e-10
-3.73972e-08
-1.51878e-09
-1.79735e-08
-7.44467e-10
-9.48173e-10
-1.60946e-08
-9.38559e-10
-2.69982e-09
-3.33478e-08
-2.00913e-09
-4.9149e-09
-4.43594e-08
-2.80761e-09
-7.35784e-09
-5.18836e-08
-3.47805e-09
-9.79393e-09
-5.71278e-08
-4.16086e-09
-1.2015e-08
-6.07426e-08
-4.93272e-09
-1.38324e-08
-6.31427e-08
-5.83959e-09
-1.50489e-08
-6.46106e-08
-6.89138e-09
-1.55054e-08
-6.53734e-08
-8.07913e-09
-1.508e-08
-6.56093e-08
-9.35219e-09
-1.37107e-08
-6.5475e-08
-1.06181e-08
-1.13552e-08
-6.51091e-08
-1.17877e-08
-8.05039e-09
-6.45935e-08
-1.28658e-08
-4.17586e-09
-6.40161e-08
-1.37267e-08
-1.58698e-11
-6.38251e-08
-1.42189e-08
4.12712e-09
-6.36619e-08
-1.41391e-08
7.98456e-09
-6.39791e-08
-1.37166e-08
1.1281e-08
-6.47813e-08
-1.29916e-08
1.36665e-08
-6.51609e-08
-1.18439e-08
1.50732e-08
-6.54956e-08
-1.06017e-08
1.55186e-08
-6.56337e-08
-9.33749e-09
1.50731e-08
-6.54087e-08
-8.08005e-09
1.38615e-08
-6.46529e-08
-6.89544e-09
1.20516e-08
-6.31871e-08
-5.84031e-09
9.82229e-09
-6.07978e-08
-4.94726e-09
7.36756e-09
-5.72376e-08
-4.22151e-09
4.92775e-09
-5.21025e-08
-3.57549e-09
2.72612e-09
-4.46573e-08
-2.89837e-09
9.5493e-10
-3.35702e-08
-2.0555e-09
-1.60816e-08
-9.36631e-10
-1.0528e-09
-1.39743e-08
-1.0678e-09
-3.04449e-09
-2.90548e-08
-2.30222e-09
-5.53772e-09
-3.86987e-08
-3.16874e-09
-8.26055e-09
-4.52669e-08
-3.89443e-09
-1.09688e-08
-4.9793e-08
-4.62562e-09
-1.3433e-08
-5.28267e-08
-5.44962e-09
-1.54321e-08
-5.4733e-08
-6.40884e-09
-1.67581e-08
-5.57693e-08
-7.51541e-09
-1.72322e-08
-5.6141e-08
-8.76085e-09
-1.67195e-08
-5.60252e-08
-1.01005e-08
-1.51471e-08
-5.55917e-08
-1.14585e-08
-1.25159e-08
-5.50086e-08
-1.27319e-08
-8.8865e-09
-5.4391e-08
-1.38294e-08
-4.57713e-09
-5.36992e-08
-1.46231e-08
-8.55897e-12
-5.32936e-08
-1.50988e-08
4.56699e-09
-5.31896e-08
-1.50493e-08
8.85657e-09
-5.36274e-08
-1.46447e-08
1.24622e-08
-5.44493e-08
-1.39407e-08
1.51106e-08
-5.50304e-08
-1.27796e-08
1.67032e-08
-5.56138e-08
-1.14731e-08
1.72347e-08
-5.60511e-08
-1.01122e-08
1.67732e-08
-5.61728e-08
-8.77312e-09
1.54536e-08
-5.58065e-08
-7.52702e-09
1.34573e-08
-5.47754e-08
-6.41681e-09
1.09909e-08
-5.28742e-08
-5.45891e-09
8.26338e-09
-4.98543e-08
-4.65695e-09
5.51189e-09
-4.53756e-08
-3.97593e-09
3.0138e-09
-3.8871e-08
-3.28811e-09
1.04554e-09
-2.92212e-08
-2.38048e-09
-1.39642e-08
-1.07153e-09
-1.10083e-09
-1.17259e-08
-1.14814e-09
-3.24196e-09
-2.444e-08
-2.47486e-09
-5.90536e-09
-3.26682e-08
-3.36848e-09
-8.79767e-09
-3.82519e-08
-4.12327e-09
-1.16716e-08
-4.20388e-08
-4.87916e-09
-1.42789e-08
-4.44985e-08
-5.71847e-09
-1.63844e-08
-4.59408e-08
-6.68462e-09
-1.77684e-08
-4.65931e-08
-7.79231e-09
-1.82413e-08
-4.66429e-08
-9.02805e-09
-1.76635e-08
-4.62595e-08
-1.03478e-08
-1.59638e-08
-4.56056e-08
-1.1689e-08
-1.31435e-08
-4.48529e-08
-1.2976e-08
-9.34481e-09
-4.41012e-08
-1.40855e-08
-4.80655e-09
-4.33977e-08
-1.48362e-08
-1.68785e-12
-4.29019e-08
-1.51951e-08
4.81504e-09
-4.28591e-08
-1.51488e-08
9.32657e-09
-4.33528e-08
-1.47899e-08
1.31039e-08
-4.41354e-08
-1.40945e-08
1.59263e-08
-4.48696e-08
-1.29841e-08
1.76415e-08
-4.56235e-08
-1.17041e-08
1.82373e-08
-4.62806e-08
-1.03639e-08
1.77786e-08
-4.66699e-08
-9.04291e-09
1.64026e-08
-4.66248e-08
-7.80599e-09
1.42974e-08
-4.59768e-08
-6.69492e-09
1.16877e-08
-4.45391e-08
-5.72735e-09
8.80818e-09
-4.20851e-08
-4.89111e-09
5.89826e-09
-3.83127e-08
-4.15351e-09
3.22811e-09
-3.27741e-08
-3.4267e-09
1.10954e-09
-2.45895e-08
-2.5128e-09
-1.17115e-08
-1.14274e-09
-1.13585e-09
-9.42288e-09
-1.16786e-09
-3.31794e-09
-1.97585e-08
-2.50075e-09
-6.0337e-09
-2.65298e-08
-3.42423e-09
-8.99092e-09
-3.1106e-08
-4.18934e-09
-1.19296e-08
-3.41609e-08
-4.93788e-09
-1.45924e-08
-3.60754e-08
-5.75738e-09
-1.67351e-08
-3.71033e-08
-6.69244e-09
-1.81316e-08
-3.74406e-08
-7.75608e-09
-1.859e-08
-3.72549e-08
-8.93274e-09
-1.79742e-08
-3.66969e-08
-1.01832e-08
-1.62062e-08
-3.59234e-08
-1.14537e-08
-1.33061e-08
-3.50763e-08
-1.26767e-08
-9.48902e-09
-3.42342e-08
-1.36807e-08
-4.94578e-09
-3.35708e-08
-1.4366e-08
-3.3054e-11
-3.31394e-08
-1.46735e-08
4.85284e-09
-3.3093e-08
-1.46539e-08
9.36924e-09
-3.35162e-08
-1.43571e-08
1.32384e-08
-3.42784e-08
-1.37297e-08
1.61666e-08
-3.50925e-08
-1.27062e-08
1.79484e-08
-3.59329e-08
-1.14707e-08
1.85827e-08
-3.67121e-08
-1.02002e-08
1.81378e-08
-3.72751e-08
-8.94844e-09
1.67486e-08
-3.74661e-08
-7.76979e-09
1.46064e-08
-3.71319e-08
-6.70453e-09
1.19407e-08
-3.6107e-08
-5.76843e-09
8.99887e-09
-3.41966e-08
-4.94809e-09
6.0362e-09
-3.11469e-08
-4.20379e-09
3.30853e-09
-2.65871e-08
-3.45928e-09
1.1241e-09
-1.98519e-08
-2.55282e-09
-9.41621e-09
-1.17079e-09
-1.12617e-09
-7.15566e-09
-1.14195e-09
-3.26337e-09
-1.51808e-08
-2.44207e-09
-5.93855e-09
-2.05019e-08
-3.35447e-09
-8.86287e-09
-2.40878e-08
-4.09452e-09
-1.17747e-08
-2.64394e-08
-4.80811e-09
-1.44164e-08
-2.78495e-08
-5.5811e-09
-1.65382e-08
-2.85229e-08
-6.45592e-09
-1.79147e-08
-2.86204e-08
-7.44396e-09
-1.83576e-08
-2.82828e-08
-8.53273e-09
-1.77295e-08
-2.76457e-08
-9.68453e-09
-1.59634e-08
-2.68416e-08
-1.08515e-08
-1.31114e-08
-2.59832e-08
-1.1945e-08
-9.35526e-09
-2.51701e-08
-1.28165e-08
-4.89975e-09
-2.45644e-08
-1.34574e-08
-3.79072e-11
-2.42276e-08
-1.37717e-08
4.79052e-09
-2.41766e-08
-1.37468e-08
9.24211e-09
-2.4522e-08
-1.34502e-08
1.30401e-08
-2.5208e-08
-1.28722e-08
1.59223e-08
-2.60006e-08
-1.1975e-08
1.77009e-08
-2.68466e-08
-1.08631e-08
1.8345e-08
-2.76549e-08
-9.69869e-09
1.79183e-08
-2.82981e-08
-8.54872e-09
1.65489e-08
-2.86382e-08
-7.4588e-09
1.4427e-08
-2.85439e-08
-6.46774e-09
1.17829e-08
-2.78735e-08
-5.59156e-09
8.86913e-09
-2.64663e-08
-4.81813e-09
5.94181e-09
-2.41159e-08
-4.10441e-09
3.26092e-09
-2.05366e-08
-3.36959e-09
1.11234e-09
-1.52308e-08
-2.47208e-09
-7.15934e-09
-1.14405e-09
-1.06372e-09
-5.02367e-09
-1.06935e-09
-3.08438e-09
-1.08721e-08
-2.28982e-09
-5.62927e-09
-1.48132e-08
-3.14576e-09
-8.42987e-09
-1.74564e-08
-3.83142e-09
-1.12342e-08
-1.91485e-08
-4.48478e-09
-1.37887e-08
-2.01047e-08
-5.18691e-09
-1.58445e-08
-2.04832e-08
-5.98092e-09
-1.71804e-08
-2.04102e-08
-6.87446e-09
-1.76102e-08
-2.00013e-08
-7.8555e-09
-1.70017e-08
-1.93648e-08
-8.89495e-09
-1.52902e-08
-1.86046e-08
-9.95236e-09
-1.25612e-08
-1.78132e-08
-1.08987e-08
-8.95468e-09
-1.71059e-08
-1.16664e-08
-4.68419e-09
-1.65841e-08
-1.22457e-08
-3.18624e-11
-1.63157e-08
-1.2562e-08
4.59058e-09
-1.62743e-08
-1.25267e-08
8.85872e-09
-1.65568e-08
-1.22379e-08
1.24941e-08
-1.71287e-08
-1.17187e-08
1.52487e-08
-1.7827e-08
-1.09293e-08
1.6971e-08
-1.86107e-08
-9.95622e-09
1.75962e-08
-1.93705e-08
-8.90672e-09
1.71815e-08
-2.00107e-08
-7.87091e-09
1.5854e-08
-2.04222e-08
-6.88849e-09
1.3798e-08
-2.0497e-08
-5.99248e-09
1.12406e-08
-2.01211e-08
-5.1971e-09
8.43162e-09
-1.91659e-08
-4.49311e-09
5.62968e-09
-1.74753e-08
-3.83944e-09
3.08479e-09
-1.48372e-08
-3.15455e-09
1.05994e-09
-1.09026e-08
-2.30294e-09
-5.02843e-09
-1.07038e-09
-9.48591e-10
-3.12719e-09
-9.49189e-10
-2.77033e-09
-7.01341e-09
-2.03895e-09
-5.10168e-09
-9.69205e-09
-2.79198e-09
-7.69734e-09
-1.14759e-08
-3.38549e-09
-1.03222e-08
-1.25719e-08
-3.94975e-09
-1.27324e-08
-1.31329e-08
-4.55769e-09
-1.46841e-08
-1.32782e-08
-5.25021e-09
-1.59612e-08
-1.31005e-08
-6.03268e-09
-1.63855e-08
-1.26859e-08
-6.89514e-09
-1.58294e-08
-1.21148e-08
-7.812e-09
-1.42402e-08
-1.14616e-08
-8.7362e-09
-1.17006e-08
-1.08101e-08
-9.54202e-09
-8.33497e-09
-1.02405e-08
-1.02263e-08
-4.35235e-09
-9.82117e-09
-1.074e-08
-2.57582e-11
-9.60613e-09
-1.10336e-08
4.27526e-09
-9.58174e-09
-1.09955e-08
8.24778e-09
-9.80527e-09
-1.07288e-08
1.16267e-08
-1.02474e-08
-1.02644e-08
1.41902e-08
-1.08153e-08
-9.57628e-09
1.57976e-08
-1.14656e-08
-8.75041e-09
1.63708e-08
-1.21181e-08
-7.82232e-09
1.5962e-08
-1.26911e-08
-6.90847e-09
1.46924e-08
-1.31074e-08
-6.04504e-09
1.274e-08
-1.32864e-08
-5.25974e-09
1.03256e-08
-1.31421e-08
-4.56695e-09
7.69655e-09
-1.25821e-08
-3.95659e-09
5.10125e-09
-1.14895e-08
-3.39141e-09
2.77331e-09
-9.71333e-09
-2.79588e-09
9.49074e-10
-7.03631e-09
-2.04143e-09
-3.13069e-09
-9.47896e-10
-7.7626e-10
-1.5783e-09
-7.74222e-10
-2.31714e-09
-3.81005e-09
-1.66477e-09