/*--------------------------------*- C++ -*----------------------------------*\
| =========                 |                                                 |
| \\      /  F ield         | OpenFOAM: The Open Source CFD Toolbox           |
|  \\    /   O peration     | Version:  v1906                                 |
|   \\  /    A nd           | Web:      www.OpenFOAM.com                      |
|    \\/     M anipulation  |                                                 |
\*---------------------------------------------------------------------------*/
FoamFile
{
    version     2.0;
    format      ascii;
    class       volScalarField;
    location    "76.4/sphere";
    object      T;
}
// * * * * * * * * * * * * * * * * * * * * * * * * * * * * * * * * * * * * * //

dimensions      [0 0 0 1 0 0 0];


internalField   nonuniform List<scalar> 
304
(
460.154
460.182
460.176
460.193
460.152
460.143
460.153
460.182
460.152
460.292
460.292
460.193
460.176
460.286
460.287
460.218
460.179
460.211
460.14
460.181
460.197
460.153
460.182
460.293
460.292
460.222
460.194
460.287
460.287
460.244
460.14
460.211
460.238
460.174
460.154
460.195
460.222
460.158
460.155
460.219
460.244
460.181
460.14
460.174
460.129
460.141
460.154
460.155
460.156
460.187
460.154
460.154
460.188
460.156
460.142
460.154
460.157
460.154
460.187
460.182
460.181
460.196
460.194
460.223
460.222
460.246
460.154
460.196
460.182
460.223
460.194
460.246
460.222
460.154
460.157
460.187
460.155
460.148
460.148
460.18
460.141
460.193
460.14
460.172
460.216
460.243
460.181
460.213
460.178
460.173
460.143
460.243
460.218
460.214
460.183
460.183
460.151
460.143
460.127
460.141
460.138
460.173
460.139
460.174
460.139
460.138
460.126
460.155
460.153
460.153
460.186
460.182
460.193
460.224
460.181
460.198
460.223
460.248
460.154
460.224
460.194
460.198
460.182
460.248
460.223
460.155
460.154
460.187
460.154
460.194
460.181
460.222
460.181
460.223
460.196
460.246
460.152
460.222
460.182
460.223
460.182
460.247
460.196
460.217
460.141
460.182
460.193
460.243
460.173
460.213
460.178
460.183
460.143
460.244
460.194
460.214
460.174
460.14
460.141
460.174
460.139
460.211
460.138
460.169
460.211
460.238
460.168
460.187
460.179
460.169
460.137
460.238
460.211
460.187
460.169
460.173
460.141
460.138
460.152
460.154
460.187
460.158
460.197
460.223
460.248
460.153
460.181
460.194
460.223
460.181
460.248
460.222
460.181
460.151
460.222
460.192
460.186
460.153
460.154
460.224
460.197
460.247
460.156
460.196
460.183
460.223
460.182
460.246
460.197
460.194
460.154
460.222
460.182
460.244
460.174
460.214
460.18
460.219
460.144
460.184
460.194
460.214
460.174
460.218
460.178
460.183
460.143
460.173
460.139
460.14
460.238
460.169
460.187
460.18
460.212
460.138
460.17
460.212
460.187
460.17
460.212
460.181
460.17
460.141
460.142
460.14
460.141
460.145
460.152
460.156
460.186
460.153
460.186
460.154
460.153
460.14
460.16
460.156
460.188
460.156
460.223
460.223
460.247
460.156
460.182
460.183
460.197
460.194
460.246
460.222
460.181
460.152
460.196
460.181
460.187
460.155
460.153
460.184
460.145
460.151
460.244
460.183
460.214
460.178
460.194
460.142
460.174
460.218
460.214
460.184
460.194
460.177
460.174
460.143
460.15
460.143
460.149
460.129
460.174
460.14
460.142
460.141
460.14
460.142
)
;

boundaryField
{
    sphere_to_oil
    {
        type            compressible::turbulentTemperatureCoupledBaffleMixed;
        refValue        nonuniform List<scalar> 
360
(
332.946
332.946
322.514
356.444
363.9
325.22
364.925
364.925
364.925
343.59
343.59
329.152
333.615
321.252
342.919
351.767
347.743
347.743
347.743
322.615
346.635
325.438
329.225
359.078
317.442
359.314
322.994
359.295
359.295
359.295
365.479
358.089
322.431
322.089
328.923
329.006
348.661
348.661
348.661
347.986
350.104
325.016
326.617
333.404
333.404
322.811
331.072
314.792
332.452
359.644
325.144
325.254
332.947
333.478
322.399
325.214
348.206
322.729
326.702
335.148
318.616
360.449
360.449
360.449
314.839
358.997
332.357
323.809
363.426
363.426
363.426
364.379
363.087
320.379
347.443
342.271
322.358
328.456
350.096
348.739
329.997
321.519
329.674
318.472
322.414
324.797
329.135
333.344
321.86
322.866
322.639
332.416
328.739
322.763
332.06
328.746
329.348
329.422
325.44
317.203
317.321
322.525
325.168
328.733
332.342
322.442
321.149
333.537
325.077
329.381
329.353
329.239
325.371
322.614
315.01
314.97
328.65
324
329.735
332.816
332.816
356.444
356.444
359.078
359.078
356.934
356.934
356.934
358.435
358.435
358.435
329.079
324.241
328.593
323.522
363.9
363.9
340.072
340.072
365.479
365.479
339.415
339.415
364.824
364.824
364.824
323.169
322.94
352.285
352.285
352.285
352.111
352.111
352.111
351.767
346.635
342.919
351.767
351.844
322.755
351.844
351.844
329.255
330.078
321.632
325.536
325.536
351.399
351.399
351.399
318.574
346.635
325.438
350.537
350.537
318.443
350.537
330.06
321.543
314.866
323.005
323.333
331.666
317.329
331.13
323.269
314.917
317.394
359.314
359.314
358.089
358.089
333.793
333.793
356.47
356.47
356.47
332.18
332.18
317.054
328.255
325.522
332.539
328.459
324.893
332.372
325.138
333.612
329.454
324.954
347.986
333.425
329.563
322.762
350.822
350.822
350.822
325.969
325.969
318.467
326.829
326.634
334.984
350.104
324.922
334.901
326.965
347.986
350.104
325.767
322.728
325.767
318.841
314.927
330.999
317.373
323.162
323.049
323.304
317.195
316.99
360.381
355.436
360.381
360.381
355.436
355.436
359.644
358.997
332.452
357.714
317.209
359.644
357.714
357.714
331.787
322.182
328.498
332.285
322.785
364.379
328.568
329.121
329.146
325.226
348.206
347.443
329.416
329.225
325.343
347.765
351.686
325.214
350.443
318.629
348.206
350.443
350.443
335.432
324.901
350.096
326.748
326.896
326.59
350.467
324.885
350.209
325.608
347.765
325.608
350.467
347.765
350.467
314.746
324.074
328.171
328.338
332.735
356.558
332.735
356.558
356.558
317.05
358.997
357.636
332.357
357.636
317.066
357.636
329.209
328.912
321.937
362.455
340.121
362.455
362.455
340.121
322.498
324.839
328.322
332.194
363.087
364.379
339.633
323.187
363.087
339.633
322.44
347.443
352.208
342.271
352.208
321.636
352.208
333.627
348.739
325.289
329.656
351.46
348.376
351.686
341.845
351.686
351.46
341.845
351.46
321.426
329.532
350.096
325.507
318.529
348.739
325.507
322.988
350.209
348.376
350.209
325.608
348.376
325.608
)
;
        refGradient     uniform 0;
        valueFraction   nonuniform List<scalar> 
360
(
0.000138623
0.000132989
8.51411e-05
0.000304156
0.000311939
0.000178872
0.000313878
0.000269424
0.000419365
0.000133525
0.000130185
0.000174647
0.000266167
7.61036e-05
0.000136137
0.000264638
0.00030327
0.000283364
0.000397623
6.96399e-05
0.000261074
0.000128347
0.000118291
0.000313896
9.11368e-05
0.000322649
0.000181873
0.000318482
0.000416794
0.000278809
0.000318535
0.000321278
8.62708e-05
8.5307e-05
0.000179022
0.000176174
0.000298109
0.000404149
0.000277522
0.00041728
0.000412186
8.80139e-05
0.000174575
0.00012741
0.000127257
0.000179707
0.000268859
7.17311e-05
0.00012835
0.00027216
0.000177279
0.000178431
0.000265969
0.000263384
7.4414e-05
0.000136131
0.000277605
7.12866e-05
0.0001766
0.000263347
6.97773e-05
0.000310018
0.000273672
0.000428323
7.19362e-05
0.000279819
0.000130525
0.000126243
0.000317181
0.000413774
0.000278336
0.000399009
0.000404595
7.72743e-05
0.000269773
0.000136857
7.12447e-05
0.000127755
0.000403752
0.000419425
0.000125303
0.000122939
0.000120752
7.17649e-05
8.65388e-05
0.000175447
0.00017643
0.000267183
8.06526e-05
6.81002e-05
8.56454e-05
0.000266746
0.000176095
8.74874e-05
0.000266306
0.000178106
0.000177053
0.000177326
8.64726e-05
6.9312e-05
7.02843e-05
6.93489e-05
0.000178282
0.000175227
0.000266545
7.84751e-05
6.81642e-05
0.000266353
8.46166e-05
0.000175504
0.000175537
0.000179118
8.75871e-05
7.01362e-05
6.83997e-05
6.97212e-05
0.000121359
0.000121505
0.000126226
0.000136873
0.000128642
0.000265804
0.000418724
0.000280043
0.000422575
0.000270873
0.000416444
0.000310068
0.000271092
0.00040738
0.000305367
0.000124556
0.000117791
0.000120648
6.66025e-05
0.000276219
0.000415878
0.000128673
0.000129261
0.000420282
0.000279439
0.000134886
0.000142163
0.000415109
0.000285165
0.000328592
7.33e-05
6.82139e-05
0.000287916
0.000398981
0.000316252
0.000296446
0.000412795
0.000316219
0.000326487
0.000300735
0.000140675
0.000419309
0.000270847
7.55132e-05
0.000407541
0.000304974
0.000116387
0.000122619
0.000121306
0.000127971
0.000133771
0.000417216
0.000274715
0.000322457
7.73159e-05
0.000401344
0.00013762
0.000422024
0.000270167
7.55209e-05
0.000320337
0.00011742
0.00011851
6.92394e-05
0.000181484
0.000181412
0.000268246
8.94526e-05
0.000268651
0.000176769
6.85285e-05
6.65435e-05
0.000419796
0.000266736
0.000414868
0.000276599
0.000131938
0.000123387
0.000416803
0.000260499
0.000301112
0.000121963
0.000141515
7.11952e-05
0.000178295
0.000178133
0.000266144
0.000174264
0.000175161
0.000265096
9.08639e-05
0.000266006
0.000180364
8.83625e-05
0.000299409
0.000265711
0.000179283
7.14503e-05
0.000407711
0.000264312
0.000309247
0.000128836
0.000119728
6.91585e-05
0.000176912
0.000179887
0.000266715
0.000303244
8.48121e-05
0.000264184
0.000172541
0.000262438
0.000277831
0.000126117
7.08376e-05
0.000139947
7.17139e-05
6.75033e-05
0.000269687
9.0001e-05
0.000181308
0.000179211
0.000177075
8.88696e-05
6.78843e-05
0.000275742
0.000258377
0.000433754
0.000322866
0.000404668
0.000290755
0.000311637
0.000319073
0.000141828
0.000273726
7.37486e-05
0.000416539
0.000405023
0.000307733
0.000268406
8.55246e-05
0.000174647
0.00026532
8.62905e-05
0.000316145
0.000175403
0.000176659
0.00017503
8.5769e-05
0.000313793
0.000294052
0.000178575
0.000173957
8.74204e-05
0.000294631
0.00032431
0.000128619
0.00029113
6.91429e-05
0.00041477
0.000402121
0.000303848
0.000263356
8.65156e-05
0.000304326
0.000175234
0.000175504
0.000176503
0.000305982
8.73263e-05
0.000312624
0.000131545
0.000269539
0.000132643
0.00027467
0.000418574
0.000410922
6.91086e-05
0.000138487
0.000136851
0.000133852
0.000121897
0.000407818
0.000133136
0.000271123
0.000319261
6.81015e-05
0.000411799
0.000411301
0.000134647
0.000292447
7.13676e-05
0.000313524
0.000119372
0.00011727
7.13088e-05
0.000403337
0.000120543
0.000264515
0.000311528
0.000129234
7.04507e-05
0.000175298
0.000175238
0.000264429
0.00030257
0.000262438
0.000126885
6.83001e-05
0.000266834
0.000140926
7.88817e-05
0.000386688
0.000415225
0.000122718
0.000263762
7.3128e-05
0.000331721
0.000266456
0.000319251
8.7335e-05
0.000176054
0.000307797
0.000298404
0.000280731
0.00012548
0.000411229
0.000410345
0.000148954
0.00027429
0.000120684
0.000122535
0.000276142
0.000136697
7.39083e-05
0.00027928
0.000131626
6.82531e-05
0.000406475
0.000411354
0.000270659
0.000131352
0.000265861
0.000135683
)
;
        value           nonuniform List<scalar> 
360
(
460.155
460.156
460.161
460.141
460.143
460.176
460.142
460.147
460.136
460.152
460.152
460.172
460.178
460.16
460.155
460.142
460.125
460.128
460.112
460.152
460.132
460.144
460.13
460.14
460.159
460.139
460.176
460.141
460.132
460.144
460.141
460.138
460.159
460.159
460.171
460.174
460.127
460.114
460.129
460.112
460.113
460.144
460.164
460.155
460.157
460.175
460.181
460.161
460.155
460.144
460.177
460.176
460.179
460.179
460.149
460.141
460.128
460.151
460.164
460.173
460.149
460.141
460.144
460.133
460.162
460.144
460.156
460.142
460.144
460.138
460.148
460.138
460.137
460.163
460.143
460.157
460.159
460.131
460.115
460.112
460.132
460.131
460.132
460.149
460.163
460.176
460.174
460.178
460.156
460.151
460.161
460.181
460.177
460.159
460.181
460.176
460.173
460.169
460.151
460.163
460.163
460.163
460.177
460.177
460.181
460.162
460.158
460.178
460.148
460.168
460.174
460.169
460.15
460.15
460.163
460.163
460.144
460.144
460.144
460.156
460.157
460.145
460.131
460.145
460.132
460.145
460.132
460.14
460.146
460.133
460.142
460.144
460.144
460.144
460.164
460.146
460.136
460.158
460.158
460.136
460.147
460.157
460.157
460.136
460.147
460.14
460.164
460.158
460.136
460.117
460.125
460.135
460.116
460.126
460.127
460.128
460.153
460.116
460.14
460.159
460.117
460.129
460.13
460.129
460.129
460.143
460.14
460.111
460.128
460.121
460.147
460.113
460.139
460.112
460.128
460.147
460.121
460.13
460.129
460.161
460.176
460.175
460.182
460.16
460.182
460.177
460.163
460.162
460.131
460.145
460.131
460.144
460.155
460.156
460.131
460.146
460.14
460.157
460.155
460.163
460.176
460.176
460.181
460.178
460.177
460.181
460.148
460.179
460.168
460.15
460.128
460.179
460.169
460.15
460.114
460.129
460.123
460.143
460.142
460.148
460.164
460.163
460.172
460.123
460.144
460.172
460.165
460.13
460.127
460.143
460.15
460.138
460.147
460.161
460.181
460.159
460.175
460.175
460.176
460.157
460.163
460.144
460.146
460.133
460.139
460.134
460.144
460.138
460.137
460.154
460.144
460.162
460.131
460.131
460.142
460.181
460.163
460.179
460.181
460.161
460.143
460.177
460.169
460.176
460.152
460.128
460.13
460.169
460.174
460.15
460.129
460.127
460.14
460.126
460.148
460.113
460.115
460.124
460.173
460.145
460.123
460.165
460.165
460.165
460.126
460.148
460.125
460.144
460.131
460.141
460.128
460.113
460.115
460.161
460.144
460.145
460.146
460.156
460.133
460.155
460.144
460.142
460.162
460.131
460.131
460.154
460.142
460.161
460.139
460.144
460.144
460.165
460.139
460.16
460.149
460.145
460.159
460.165
460.177
460.178
460.181
460.142
460.148
460.158
460.164
460.146
460.155
460.161
460.121
460.119
460.155
460.141
460.159
460.126
460.179
460.126
460.15
460.17
460.129
460.129
460.138
460.154
460.118
460.118
460.15
460.138
460.131
460.132
460.128
460.14
460.148
460.13
460.143
460.152
460.116
460.114
460.129
460.141
460.131
460.143
)
;
        Tnbr            T;
        thicknessLayers 0();
        kappaLayers     0();
        kappaMethod     solidThermo;
        kappa           none;
        alphaAni        none;
    }
}


// ************************************************************************* //
