/*--------------------------------*- C++ -*----------------------------------*\
| =========                 |                                                 |
| \\      /  F ield         | OpenFOAM: The Open Source CFD Toolbox           |
|  \\    /   O peration     | Version:  v1912                                 |
|   \\  /    A nd           | Website:  www.openfoam.com                      |
|    \\/     M anipulation  |                                                 |
\*---------------------------------------------------------------------------*/
FoamFile
{
    version     2.0;
    format      ascii;
    class       volScalarField;
    location    "394/oil";
    object      heatTransferCoeff(T);
}
// * * * * * * * * * * * * * * * * * * * * * * * * * * * * * * * * * * * * * //

dimensions      [1 0 -3 -1 0 0 0];


internalField   uniform 0;

boundaryField
{
    maxY
    {
        type            calculated;
        value           uniform 0;
    }
    minX
    {
        type            calculated;
        value           uniform 0;
    }
    maxX
    {
        type            calculated;
        value           uniform 0;
    }
    minY
    {
        type            calculated;
        value           uniform 0;
    }
    minZ
    {
        type            calculated;
        value           uniform 0;
    }
    maxZ
    {
        type            calculated;
        value           uniform 0;
    }
    oil_to_sphere
    {
        type            calculated;
        value           nonuniform List<scalar> 
1536
(
-15.6494
-10.5439
-10.42
-1.13473
-0.912963
-10.3041
-6.17673
-7.88869
-7.27677
-1.94869
1.80372
-2.65107
-7.18647
-2.84176
2.99553
-5.62445
-10.3146
-10.6664
-5.35304
-6.91847
-9.07783
-7.36016
-7.717
-5.56953
-6.0665
-5.81642
-6.05068
-4.94528
-10.001
-7.52283
-11.5311
-10.581
-10.7556
-5.68091
-5.98017
-4.99123
-5.4648
-3.96385
-4.9044
-6.02443
-4.69789
-5.43941
-7.10193
-8.14481
-9.39783
-5.96081
-8.965
-7.63456
2.59822
-5.78698
-8.60039
-7.34742
-7.53592
-5.56618
-9.83545
-13.3277
-7.66086
-6.92948
-8.99434
-8.52298
-6.9729
-7.13257
-6.87136
-5.43028
-5.92737
-6.74886
-6.90557
-8.71579
-8.67646
-9.81427
-5.40526
-0.898314
-2.54902
-5.82916
-5.80662
-13.6653
-10.8214
-4.0048
-5.636
-10.4878
-9.14618
-8.39007
-1.17688
-1.04393
-9.97553
-14.6596
0.141298
-6.47365
-8.52813
-8.50379
-7.26884
-5.16173
-5.07644
-5.30805
-5.79848
-8.10179
-9.03112
-9.3824
-11.1935
-8.38625
-9.1808
-5.33246
-15.7288
-8.6426
-2.32668
-5.70768
-6.1276
-1.49446
-1.44495
-15.8568
-10.7699
-7.86058
-7.09536
-7.72769
-0.4475
-0.939217
0.558327
-12.3893
-15.1732
-11.052
-7.4981
-7.7275
-4.84632
-8.97037
-11.4748
-8.13022
-7.46516
-4.50946
-9.28448
-8.97837
-6.76981
-8.77209
-9.76931
-6.182
-6.49824
-10.0732
-7.75634
-10.5275
-4.60439
-10.3663
-7.32517
-8.91952
-8.97178
-7.17241
-6.58499
-7.05885
-8.19633
-12.1743
-6.52728
-15.9435
-9.60996
-10.3541
-7.65984
-7.94086
-5.82905
-8.1351
-10.0424
-8.86796
-16.7788
-11.1812
-10.7567
-12.4153
-3.22814
-4.03806
-5.2303
-5.14589
-9.76874
-11.9459
-11.1941
-13.3469
-4.92274
-5.23992
-4.0522
-9.04348
-7.46722
-7.94078
-14.2192
-3.50025
-2.30883
-14.662
-5.03879
-4.11425
-3.91711
-4.3982
-8.50095
-14.6693
-11.2172
-4.68375
-3.05892
-10.5818
-3.38777
-9.70179
-9.71146
-11.9817
-2.59317
4.10134
-11.7874
-12.4922
-6.05553
-5.77297
-7.3683
-6.23735
-10.6601
-11.7271
-9.4822
-8.40391
-5.27285
-12.1337
-11.2313
-7.87054
-4.50557
-5.92462
-5.71786
-6.30316
-9.13197
-13.4918
-3.03994
-2.75648
-2.91334
4.79653
-10.292
-9.07264
-8.35126
-7.32178
-7.53996
-12.1431
-9.66555
-5.83576
-10.3196
-1.98893
-5.00871
3.87311
-7.15408
-9.96941
-11.8127
-11.2833
-10.3194
-9.24989
-11.0359
-2.54706
-3.28135
-3.90755
-12.6115
-4.24454
3.96895
0.369954
-9.11444
-6.95517
-14.3022
-16.6009
-7.81454
-1.03071
4.65634
-8.50593
-11.0875
-5.32094
-5.47704
-0.219676
-5.1323
-12.1297
-14.862
-6.8719
-5.46401
-13.0705
-11.2466
-5.88058
-2.37921
-6.49901
-13.656
-12.4405
-9.26172
-9.72767
-11.5985
-3.91353
-5.68039
-11.8664
-9.71914
-10.4351
-7.10106
-10.328
-13.3512
-9.43081
-9.01327
-12.7947
-5.35754
-5.29496
-5.73704
-4.90333
-5.20287
-12.0525
-13.8175
-2.58759
-6.35312
-6.08119
-6.2752
-4.67211
-7.54494
-7.04809
-4.12942
-0.285935
-5.07172
-2.70692
-4.63581
-14.6815
-12.9165
-12.8198
-16.107
-3.59204
-3.96186
-7.33941
-15.965
-14.8164
-5.01278
-7.13868
-4.74675
-9.6217
-5.56275
-8.97955
-9.40387
-10.841
-9.86838
-5.98006
-10.047
-5.01747
-11.6276
-12.2859
-10.4953
-10.0785
-4.27136
-13.9531
-13.7174
-9.49425
-2.47589
-5.30253
-6.20223
-9.42391
-8.92161
-9.68007
-4.10618
-11.544
-11.6343
-10.892
-12.7889
-8.75669
-8.11843
-6.92407
-3.26987
-8.14424
-9.52211
-3.22617
-2.86102
-3.76566
-15.4048
-11.434
-12.7896
-8.87653
-8.02869
-11.9315
-2.98531
-14.3022
-10.8389
-8.13619
-8.02782
-2.65481
-10.7774
-11.3186
-4.46095
-8.14893
-6.80962
-5.4798
-9.63461
-11.4589
-7.09747
-5.8471
-3.62771
-13.5029
-11.664
-2.81485
-11.9793
-11.262
-10.2939
-13.4897
-8.07075
-9.90079
-1.82869
-2.63717
-9.38217
-15.9028
-10.5192
-14.2577
-8.80446
-6.14809
-11.1652
-3.73396
-4.72537
-8.93595
-11.366
-9.71071
-8.93128
-3.94504
-3.976
-11.8879
-11.5557
-11.6777
-7.95024
-5.15167
-9.07299
-10.0884
-11.3067
-8.24631
-6.48353
-4.2875
-7.80036
-3.48814
-1.50904
-5.27901
-4.34027
-7.882
-1.98927
-6.20991
-13.9512
-6.09361
-6.03115
-11.307
-11.2483
-9.53774
-6.82903
-3.17134
-10.4679
-12.8544
-9.28296
-8.30266
-10.6666
-7.15674
-7.6956
-8.78628
-1.12396
-9.19751
-11.6446
-12.7389
-11.1103
-9.96246
-9.74922
-8.29605
-6.60057
-3.74129
-7.46848
-4.29525
-2.66975
-4.75815
-1.48114
-14.8369
-14.1377
-12.3201
-15.5727
-3.56182
-14.9049
-4.06617
-5.0665
-10.2856
-3.19164
-3.90811
-6.27114
-6.10472
-14.3132
-12.8764
-8.80349
-9.16229
-13.4118
-11.9196
-8.2423
-10.0487
-4.58449
-11.3785
-2.47183
-12.6805
-1.07812
-9.81373
-10.4422
-11.1067
-5.94948
-3.69156
-6.73053
-11.267
-6.96982
-2.10589
-11.3353
-11.7411
-12.3282
-16.2883
-8.18142
-13.2509
-3.54643
-4.18837
2.37694
0.358747
-8.21975
-6.2548
-5.59442
-4.76385
-15.265
-3.93069
-3.00016
-2.2904
-6.25358
-1.92337
-16.7101
-4.53507
-4.91323
-7.49948
1.68051
-0.125815
-5.31659
-5.18265
-7.10558
-5.8295
-11.7068
-11.085
-9.77426
-8.18931
-1.62765
-5.57181
-10.8982
-3.72861
-4.48004
-10.475
-13.5615
-4.55867
2.42737
-3.27339
1.82309
-7.38825
-5.9608
-4.9287
-2.43586
1.70357
-9.6452
-10.3623
-8.9538
-7.29665
-13.6952
-9.80882
-9.44201
-8.03818
-4.23417
-5.74947
-11.6848
-9.78465
-6.41024
0.53976
-8.37911
-10.6728
-13.9872
-8.55122
-5.26685
-14.0293
-7.50016
-13.3194
-4.53421
-5.96917
-3.8699
-6.08991
-8.46661
-13.5725
-3.52827
-4.88086
-4.20627
-6.25387
-16.8659
-2.43426
-5.68059
-2.92904
-7.50934
-8.44175
-11.7325
-13.7071
-1.59895
-2.50334
-13.6284
-14.2393
-0.632444
-13.2963
-11.9992
-10.5037
-11.8239
-9.43941
-7.80637
-8.08552
-13.4569
-8.21519
-9.53529
-7.78586
-11.3289
-8.5748
-7.40316
-7.05264
-3.26864
-10.4882
-7.25664
-11.2419
-9.93336
-10.0413
-9.76388
-8.25459
-2.6331
-11.8376
-11.7978
-9.60347
-7.34783
-8.68442
-15.6909
-1.82093
-4.44539
-3.45998
-8.3448
-4.62108
-15.746
-6.10697
-6.62744
-7.61042
2.26642
1.42688
-5.47385
-5.37111
-8.06743
-3.87045
-4.79635
-8.48808
-4.92957
-13.7505
-3.22041
-15.433
-6.00152
-8.21218
3.98456
1.62128
2.4505
-4.93548
-10.5132
-5.65761
-4.94705
1.75747
-7.87431
-10.7641
-7.97166
-18.0974
-4.54547
-11.6925
-9.45881
-10.6961
-12.1354
-11.9228
-10.6419
-7.50974
-6.48037
-7.45097
-10.6974
-6.83342
-9.02048
-8.48572
-8.9196
-11.135
-9.79151
-10.4634
-3.16305
-4.32112
4.23998
-0.281864
-1.37691
7.22154
-5.30534
-5.84208
-6.84555
-7.38545
-1.49614
-3.36143
-6.39494
-12.4697
-11.8872
-6.29845
-2.23203
-7.16914
-10.9832
-9.52998
-7.64715
-1.86847
-4.54266
-9.6763
-8.68333
-7.55397
-5.47067
-10.15
-10.2295
-13.4922
-10.3041
-8.32903
-5.83719
-4.71608
-3.18148
-5.16483
-6.92253
-16.0257
-8.22535
-14.661
-4.53308
-16.4323
-5.31634
-7.02133
-3.54559
-4.0445
-5.88433
-3.05678
-6.7401
-1.95184
-5.54018
-11.5996
-6.19917
-2.76063
-13.8299
-9.99673
-9.11521
-7.22076
-13.2737
-18.812
-0.375346
-9.85438
-8.79628
-9.51981
-3.03007
-7.30572
-4.71839
-8.86263
-10.3145
-11.9514
-4.18645
-9.64562
-7.99549
-10.2178
-9.90313
-9.40611
-6.31836
-6.91975
-5.6013
-2.16112
-1.60966
-3.81156
-13.0627
-5.56016
-2.97036
-5.70388
-11.7355
-6.68136
-13.0139
-11.0582
-9.25777
-8.31671
-9.15319
-14.1036
-3.82213
-9.77194
-11.9986
-12.5401
-8.21956
-4.67597
-6.55423
-9.16867
-12.6868
-3.46505
-6.97866
-8.06272
-11.6089
-9.19161
-9.08358
-13.2008
-3.55972
-4.89107
-4.24054
-14.128
-11.8889
-8.11821
-11.5633
-4.94858
-5.53212
-11.545
-9.04105
-13.5293
-4.05418
-10.7544
-11.3642
-8.46945
-8.90051
-10.4622
-4.13991
-1.32496
-7.73832
-9.07224
-14.2787
-7.1021
-5.20848
-7.44577
-9.21668
-10.6719
-8.32201
-4.7861
-7.14353
-11.3282
-3.53013
-4.80489
-7.1524
-5.469
-8.74938
-8.29405
-12.4314
-9.48825
-11.0863
-5.67658
-7.4857
-8.73983
-7.31776
-6.54076
-5.82619
-5.76107
-3.66899
-10.0832
-8.6104
-8.61826
-9.28118
-2.50082
-6.11268
-13.9354
-14.0588
-4.79483
-11.6723
-9.19365
-10.0506
-5.68266
-12.6017
-12.2572
-3.94955
-6.67482
-6.03444
-5.8207
-2.31908
-3.38355
-6.03547
-12.1336
-15.6989
-5.22169
-10.4182
-10.0621
-9.09107
-6.84159
-8.77662
-12.3947
-8.57788
-4.10368
-6.14982
-5.70381
-5.91564
-9.52411
-10.0119
-10.1087
-10.3631
-10.3214
-4.82121
-10.6262
-6.27343
-9.80567
1.70498
-9.29988
-12.9211
-6.52076
-0.369486
-7.62832
-6.91411
-14.6557
-4.32597
-10.6333
-7.40537
-1.24609
-13.7366
-2.74387
-6.98209
-7.81045
-2.44542
-11.6767
-8.83017
-6.8374
-8.09034
-8.79432
-6.97473
-14.9473
-2.86803
-5.93942
3.03646
-6.28562
-6.5535
-7.97822
-11.6321
-19.1142
-2.00603
-5.98837
-17.4467
-2.78041
-10.2481
-4.67807
-10.039
0.0545282
-4.34333
-17.2749
-0.915141
-16.1223
-1.74703
-14.3892
-1.30672
-4.26318
2.502
-2.87253
-16.5581
1.14648
-7.31579
-0.890268
-13.2029
-16.6265
0.874704
-6.5614
-5.3278
-4.1184
-3.95438
-6.06856
-7.8663
-7.84315
-9.90662
-7.45081
-13.3582
-17.8633
0.987466
-7.81467
-9.28889
-7.86144
-8.45904
-7.19179
-6.53297
-7.1719
-10.9321
-7.29435
-11.0336
-5.87024
-8.59647
-12.9238
-6.48526
-9.71658
-11.7597
-5.84893
-8.5964
-7.41529
-9.8437
-7.00279
-8.17972
-6.61741
-11.5059
-6.1819
-9.06504
-1.68621
-13.5791
0.634221
-9.02296
-11.2911
-13.8041
-4.44284
-8.3681
-7.46641
-8.36687
-7.97676
-7.28388
-10.852
-3.84965
4.26459
-6.53382
-0.43166
-11.9252
-4.53622
-7.72817
-10.1328
3.62393
-12.62
-3.64513
1.98364
-4.19037
-10.2828
-9.96226
-7.93611
1.05382
-7.85099
-8.58676
-5.17304
-4.57014
-12.0798
-11.382
-5.58408
-8.05831
-12.1092
0.933162
-10.8309
-4.46222
-9.73044
0.457401
-15.6498
-15.2457
-11.3632
-7.83491
-6.53539
-10.1146
-6.32745
1.12757
-3.47916
-10.4442
-4.69159
-9.37672
-0.331744
-11.7969
-9.71339
6.09047
-7.88133
-8.8479
3.28569
-12.7683
-1.55939
-12.0047
-13.6471
-10.7502
1.82238
-8.14321
-6.72879
-7.93866
-8.25321
-9.41377
0.853162
-5.77037
-4.81621
-4.84085
-11.6518
-7.65527
-8.91219
-9.97615
-9.72267
-6.65827
-8.30923
-6.90279
-9.02614
-12.2095
-5.57093
-6.44328
-5.3063
-8.19401
-11.2399
-5.50903
-6.31447
-5.91673
-7.72412
-4.78609
-5.14611
-6.27425
-6.62025
-8.22386
-6.12873
-13.5285
-10.8594
-0.737912
-0.863876
-12.7721
7.19394
-10.5601
-8.55232
-4.76886
-6.63338
-12.9662
3.63715
-11.911
-8.91527
1.44299
-5.97848
-5.15531
-7.69334
4.11513
-12.7462
-9.05617
3.47826
-12.3705
-12.447
0.230348
-13.8511
-11.3607
0.105454
-5.27491
-4.80477
3.52688
-7.83934
-8.36023
-3.54193
-4.46405
-4.06121
5.76061
-4.35502
3.97315
6.36562
-11.5579
-5.2927
-16.5722
-5.55891
0.911677
-12.8319
-6.91465
2.57772
-5.55758
-5.32787
2.68772
-0.871272
-12.4859
8.68225
-3.5177
-2.65535
7.2281
-11.898
-11.0185
-7.80419
-6.21781
-5.24301
-3.55575
4.82877
-7.95315
-6.29946
-6.5072
-7.81951
1.97833
-10.3256
-5.58612
-7.27369
-5.16157
-7.1147
-8.19565
-3.26486
1.56289
-6.06314
-8.37361
-5.48984
-6.20273
-7.41909
-4.4443
-6.41212
2.20046
-5.58129
-8.86982
-5.23314
-6.66999
-4.58097
1.41092
-12.9077
-12.7287
-12.3307
-13.8519
0.282164
3.21948
-5.66907
-10.5631
-8.33891
-10.1973
-10.9202
-3.53306
-2.54684
3.06631
0.884792
-4.41784
-7.33835
-7.0457
-6.83728
-2.56995
-11.6241
-8.95086
0.00809098
-4.22835
-3.33702
-10.8235
-4.5387
4.87694
-7.31579
-7.60248
-11.8661
2.37063
-5.23247
-8.23791
-5.85524
-6.64641
-10.026
-7.22406
-3.65738
-14.3462
6.47554
-1.78875
-6.75237
-4.48851
-6.09126
-13.7849
-9.11372
-7.64607
-1.97917
-12.9754
-5.75391
-8.18307
-10.9086
-11.867
-11.4929
-11.8346
-13.4372
-14.4824
-13.2517
-13.2682
-7.70383
-11.1336
-5.55676
-6.6283
-2.42518
-1.2166
5.62881
-13.9802
-13.6763
-12.3119
-6.41847
-8.22349
-7.91374
-4.63912
-8.4769
-11.0625
-3.81285
-6.89018
-9.80344
-5.24727
-5.66247
-5.42873
-6.35446
-4.41141
-6.20757
-5.8162
0.43098
-8.19482
-3.88851
-6.85387
2.6853
-13.9441
-7.06257
-4.95303
-4.23761
-0.0990657
-7.57621
-5.08164
3.45883
-1.82363
-6.95096
-1.04298
-2.2116
-14.6962
-15.2098
-5.85955
-5.90347
-10.4138
-13.712
3.57767
-4.56659
-4.40638
-6.11944
-6.08465
-6.47721
-7.17307
-2.45793
1.25995
-12.7185
-5.97441
-1.52108
-2.36829
-5.85781
-7.71704
-0.185224
-6.56327
-4.61327
-5.55473
-13.7962
-1.66196
1.09036
-6.07671
-5.2072
-4.39465
1.13919
-11.9039
-5.78492
-5.58882
-5.82008
3.39534
-5.84952
-6.07273
0.907188
-5.72786
-1.79773
-8.97111
-12.5835
-4.62056
-11.1284
-8.76515
-4.79316
-4.96266
-6.2266
1.12687
-8.66761
-9.31672
-5.37509
2.38092
-3.22207
-6.72432
-7.05703
-4.69937
1.62215
-4.88716
-11.8816
-8.77184
-4.98819
-14.5559
-1.69163
-10.8481
3.21019
-1.43439
-11.2417
3.38966
-11.5623
-4.90568
-7.6955
-5.5709
-15.0574
-2.76803
-7.80959
-13.8152
-12.9372
-0.643414
-12.6073
-13.8085
6.93684
-6.56548
-5.16722
2.93121
-9.26659
-5.06335
-5.60426
-5.62123
-7.24421
-6.52109
-5.38302
-4.97778
3.229
-9.25445
-7.68265
-7.4181
-8.16014
-6.41717
-4.77147
-3.28616
-10.295
4.62179
-4.28401
-4.03713
4.20166
-11.3261
-14.2637
-6.95258
-12.301
-12.9489
-4.57254
-4.71938
-9.17653
-12.2508
-4.40812
-9.75726
-2.34142
2.91034
-10.4335
-3.85574
-11.868
-14.5212
-13.6531
2.37228
-10.9639
-7.82453
-3.63097
-5.33329
-6.10354
-5.11068
2.18329
-12.185
1.86291
-12.0131
-6.34632
-2.34285
-1.45033
-6.41589
-9.94858
-13.2925
-7.5165
-16.0048
-10.5547
-11.612
3.60477
-11.0865
-10.1681
-11.8909
-4.55741
-3.74928
4.68311
-6.98584
-15.6183
-12.3426
1.37287
-2.67578
1.96103
-4.55101
-7.18825
-2.22145
-18.3064
-5.62575
-2.70638
1.12776
-8.70773
-3.85222
3.99154
-6.62994
-5.00939
-5.16755
-5.32977
-5.40179
1.03529
-2.32442
2.86758
-5.05878
-10.5061
-9.00986
-12.605
-11.8745
-4.29468
-3.30391
3.27741
-4.8356
-9.97297
-13.0974
-10.5331
-10.8451
-1.55478
4.31022
-2.8529
5.02433
-10.3758
-10.7526
-3.31425
-11.4837
-10.2665
-12.6322
-8.43317
-7.70991
-7.56847
-4.29416
3.46495
-3.04951
2.42393
-2.03041
-5.33596
-4.69324
0.406557
2.43915
-9.68425
-15.6676
-14.5642
-13.657
-7.44423
-9.52173
-9.33288
-6.97827
-5.3082
-6.98287
-3.61128
-6.32175
-6.36629
2.3853
-10.2399
-5.95809
-2.70393
0.581855
-4.93109
-7.33201
-7.27733
-4.71317
0.533462
-13.3439
-8.64446
-5.12583
-14.4403
-3.79016
2.79912
-9.01518
-6.34418
-6.39945
-6.40131
-4.84324
4.68143
-6.36087
-6.2635
1.78624
-13.0182
-5.77847
8.64553
-5.31448
-7.12125
-7.45478
-4.81337
2.20558
-4.10766
-4.3633
-1.21295
-6.62636
3.22731
-6.85528
-6.5652
-0.787064
-14.3004
-6.23448
0.914231
-15.343
-7.01375
-7.00983
0.664613
-6.56542
1.89954
)
;
    }
}


// ************************************************************************* //
