/*--------------------------------*- C++ -*----------------------------------*\
| =========                 |                                                 |
| \\      /  F ield         | OpenFOAM: The Open Source CFD Toolbox           |
|  \\    /   O peration     | Version:  v1912                                 |
|   \\  /    A nd           | Website:  www.openfoam.com                      |
|    \\/     M anipulation  |                                                 |
\*---------------------------------------------------------------------------*/
FoamFile
{
    version     2.0;
    format      ascii;
    class       volScalarField;
    location    "216/oil";
    object      wallHeatFlux;
}
// * * * * * * * * * * * * * * * * * * * * * * * * * * * * * * * * * * * * * //

dimensions      [1 0 -3 0 0 0 0];


internalField   uniform 0;

boundaryField
{
    maxY
    {
        type            calculated;
        value           uniform 0;
    }
    minX
    {
        type            calculated;
        value           uniform 0;
    }
    maxX
    {
        type            calculated;
        value           uniform 0;
    }
    minY
    {
        type            calculated;
        value           uniform 0;
    }
    minZ
    {
        type            calculated;
        value           uniform 0;
    }
    maxZ
    {
        type            calculated;
        value           uniform 0;
    }
    oil_to_sphere
    {
        type            calculated;
        value           nonuniform List<scalar> 
1536
(
1692.53
1785.49
1627.59
1603.82
1318.22
1378.15
1359.7
892.873
825.359
1867.31
1300.26
1890.23
1928.57
1891.02
1592.84
1309.42
910.54
834.099
-308.713
1923.89
1868.7
1393.87
1366.24
1324.54
1416.74
1415.72
1415.93
1329.59
1788.37
1760.97
1630.61
1186.18
1060.15
1423.63
1315.75
1304.03
1231.35
1505.51
1392.72
1493.49
1392.4
1304.85
1740.48
1894.31
1775.73
1878.86
1383.88
1387.08
1562.75
1424.51
1394.42
1397.97
1351.23
1377.97
1122.68
1029.41
1370.11
1364.65
841.461
357.151
463.509
342.692
442.859
1921.47
1934.12
1886.47
1784.7
1884.94
1685.34
1768.24
1429.72
1376.66
1626.69
1399.08
1316.87
1067.69
1010.24
967.759
1312.36
834.243
338.78
443.625
220.177
208.676
517.361
458.186
239.149
903.066
831.782
354.42
453.116
-310.373
-307.705
1930.84
1936.16
1897.1
1809.98
1848.95
1891.33
1675.78
1793.58
1421.97
1681.72
1635.17
1387.48
1398.42
1326.13
977.738
1295.36
1077.28
1001.28
1055.31
353.801
465.756
229.215
245.226
226.099
510.524
458.349
527.574
839.367
454.9
-308.807
1886.64
1676.24
1765.92
1686.81
1756.89
1392.55
1398.78
1413.09
1392.66
1399.19
1382.27
1408.73
1412.6
1378.84
1030.71
1356.13
1350.84
358.645
460.219
905.558
840.682
445.563
821.213
1572.19
1571.63
1356.75
1442.61
1626.35
1568.01
1381.88
1410.84
1396.59
1232.64
1131.05
1149.53
1576.06
1544.02
1576.89
1695.29
1477
1409.77
1305.51
1235.98
1378.16
1265.78
1138.88
1158.79
1723.43
1520.59
1766.47
1497.45
1166.34
997.821
1583.78
1598.06
1651.04
1555.74
1472.11
1403.59
1238.54
1393.93
1190.13
1161.92
1151.27
1816.61
1553.19
1631.4
1713.51
1583.93
1691.88
1617.66
1200.28
1206.64
1258.78
1272.1
1182.99
1221.15
1258.06
1314.62
830.803
791.056
750.978
859.936
911.462
890.482
971.982
941.295
797.796
717.139
673.432
1840.68
1975.72
1936.36
1848.56
1850.18
1864.24
1843.64
1826.41
1899.24
1786.8
1832.57
1835.48
1592.72
1586.8
1774.01
1669.11
1445.38
1242.51
1188.94
1376.4
1207.38
803.255
844.799
762.909
863.546
902.467
773.009
707.959
129.186
44.9809
1910.61
1842
1869.73
1831.82
1885.33
1980.74
1891.69
1829.71
1541.74
1424.19
1545.58
1568.4
1217.95
1317.71
809.376
725.641
917.907
1012.49
962.807
685.255
38.4366
118.759
-121.831
-124.053
125.948
1868.46
1823.62
1814.35
1789
1831.79
1838.11
1805.56
1875.94
2008.1
1916.68
1824.18
1690.01
1571.81
1577.79
1656.81
1785.41
1676.96
1580.37
1578.08
1232.92
1246.75
1318.42
1337.88
1261.05
1314.36
763.481
718.878
784.531
883.034
845.837
907.778
891.355
894.759
755.987
697.317
861.777
785.85
1442.15
1353.57
1374.51
1234.18
1190.93
1164.14
1112.4
1741.56
1660.97
1779.71
1723.1
1661.21
1730.78
1758.04
1790.58
1848.24
1752.31
1776.4
1751.27
1965.06
1870.75
1837.48
1777.75
1849.24
1911.05
1837.51
1699.65
1726.36
1765.62
1664.21
1767.23
1794.69
1847.88
1837.3
1894.92
1873.64
1854.91
1805.56
1804.47
1790.99
1807.03
1737.38
1741.72
1676.91
1733.29
1643.83
1673.14
1793.77
1571.76
1732.94
1588.98
1620.08
1553.74
1445.58
1723.01
1577.17
1565.37
1653.59
1449.51
1525.27
1576.57
1433.01
1490.61
1386.14
1595.03
1719.47
1579.54
1591.39
1619.17
1471.17
1533.78
1518.29
1238.47
1287.01
1226.86
1141.74
1088.32
1147.43
1027.67
985.96
1249.63
1292.7
1243.77
1162.86
1104.04
1189.38
1026.71
986.04
952.775
1193.23
979.277
1159.54
1112.15
1165.9
1025.03
1244.11
1302.57
1237.66
1291.44
1007.61
958.262
1159.78
1109.41
1178.55
1010.11
970.742
883.474
836.708
878.109
833.016
758.159
761.304
702.123
816.196
728.512
918.784
688.501
713.814
663.291
601.361
687.477
653.241
556.786
516.273
418.815
846.871
806.231
754.135
867.172
719.282
761.695
557.505
506.192
480.587
419.855
667.268
611.273
690.312
655.938
636.528
877.645
831.713
883.808
890.756
760.673
696.323
839.326
779.504
2148.19
2045.1
1952.96
2122.45
1965.66
1991.75
2047.11
1904.06
1932.07
1971.29
1961.12
1834.78
1908.91
1807.23
1795.69
1769.64
1765.55
1807.17
1788.55
1848.09
1905.29
1724.22
1860.58
1745.07
1804.85
1755.3
1866.83
1776.57
1860.7
1821.99
1883.78
1831.41
1728.77
1788.8
1678.84
1799.3
1557.63
1623.71
1602.41
1397.19
1486
1472.66
1591.14
1397.44
1566.76
1386.15
1482.87
1414.1
1327.28
1376.17
1245.24
1210.34
1114.16
1169.69
1142.8
1079.52
998.332
1173.92
990.969
1305.81
1229.75
1132.18
718.318
657.942
611.108
702.006
662.147
802.012
720.219
915.26
679.381
550.045
527.704
428.556
291.888
195.515
300.48
199.178
377.988
463.609
374.335
274.268
297.672
791.178
839.478
749.983
859.437
678.685
613.831
701.672
644.235
792.056
712.183
882.839
957.729
682.405
552.263
643.63
516.235
419.74
607.019
121.614
43.6873
137.697
44.9337
-116.062
-117.877
-118.787
-119.471
33.9903
2086.47
1934.45
1994.13
1972.72
1940.9
2088.7
1999.58
1968.19
1926.2
1840.31
1959.2
1981.34
2022.43
1848.69
1849.25
1910
1917
1724.83
1831.37
1729.94
1870.18
1811.53
1803.65
1770.73
1826.75
1766.99
1819.7
1879.59
1778.66
1716.48
1687.13
1816.63
1869.57
1724.1
1847.21
1744.11
1677.47
1890.41
1807.45
1796.05
1824.18
1751.1
1750.87
1800
1864.21
1758.31
1683.95
1596.17
1565.63
1490.78
1410.42
1505.9
1674.45
1619.33
1598.17
1522.83
1513.4
1462.2
1471.46
1482.26
1397.04
1399.93
1238.89
1369.63
1191.08
1262.87
1167.46
1116.76
1431.02
1321.25
1026.05
1200.67
988.517
1193.99
1074.43
994.161
1143.53
1159.5
1145.88
1145.01
1120.61
1388.33
1219.98
550.773
532.405
487.276
431.641
842.234
793.044
754.647
863.16
719.97
762.675
619.94
698.482
698.057
653.093
630.41
384.369
384.76
472.46
282.429
294.705
194.196
300.289
302.67
191.934
454.89
367.684
374.7
468.011
277.08
794.241
716.178
902.968
950.742
683.921
556.337
647.201
506.966
483.236
611.648
771.183
702.516
833.181
801.942
753.378
863.796
898.56
610.198
665.114
697.22
648.481
636.257
-119.545
-116.707
133.736
125.198
47.812
33.82
225.327
122.925
36.2505
1658.04
1761.31
1745.85
1652.04
1745.89
1656.01
1651.29
1861.12
1824.98
1910.26
1828.23
1729.84
1797.06
1761.74
1847.92
1776.45
1811.9
1732.91
1733.98
1867.13
1807.44
1777.2
1786.69
1751.86
1749.6
1787.66
1689.17
1674.87
1733.24
1780.49
1727.38
1819.73
1761.18
1911.19
1736.21
1689.86
1715.34
1732.57
1676.6
1655.36
1797.15
1581.28
1483.51
1487.31
1545.75
1405.31
1708.26
1576.02
1570.23
1631.18
1527.52
1530.21
1472.67
1661.37
1557.14
1574.16
1628.28
1456.28
1471.52
1562.86
1542.76
1404.4
1612.37
1704.33
1600.63
1618.71
1536.62
1531.95
1485.01
1483.71
1397
1155.78
1105.83
1169.79
1025.35
1004.71
962.866
1280.56
1208.6
1292.58
1240.97
1105.86
1160.33
1157.21
1006.77
968.434
979.708
1243.99
1239.99
1302.66
1236.07
1300.52
1000.28
1025.42
1150.53
1097.07
1159.19
1001.34
966.438
1320.12
1230.18
1231.52
1264.67
1311.17
1023.08
975.892
1111.48
1170.9
1169.67
831.644
885.103
759.691
752.586
692.911
878.738
836.371
884.668
667.288
609.876
695.203
644.629
572.085
668.292
524.979
425.923
620.398
799.387
832.401
748.236
865.588
955.171
1065.96
838.981
747.267
697.122
723.545
804.232
555.307
637.68
513.344
494.832
600.148
673.318
617.209
683.629
666.463
637.145
884.825
954.381
801.784
718.097
678.156
862.809
906.907
800.229
843.129
761.308
1638.55
1586.67
1007.14
928.907
1890.41
1807.77
1863.34
1881.62
1862.49
1561.56
1696.52
1644.59
1687.69
1299.19
1401.23
929.919
207.799
162.493
1631.64
1628.95
898.281
212.231
151.345
357.156
1884.08
1582.51
1365.91
343.609
1690.4
1616.94
1666.51
1291.21
1415.9
1396.09
891.955
1640.02
1691.07
1390.33
1408.95
1670.3
1382.78
1402.32
1261.5
1317.79
968.266
1060.92
1132.42
1588
1653.71
1369.65
1475.37
1287.17
1357.67
968.701
1058.37
1080.26
1573.02
1685.59
1377.78
1520.83
1107.09
979.104
1089.11
1243.24
1480.1
1458.45
1670.63
1698.78
1407.22
1393.79
1366.3
1402.03
1074.31
980.741
1075.14
907.342
1978.33
1924.46
1674.06
1849.72
1666.38
1896.38
1870.12
1402.24
1595.57
1590.95
1628.54
1585.01
1379.34
1097.74
1057.66
1058.02
1069.01
1063.91
1039.17
572.552
927.366
530.896
581.789
1935.5
1872.19
1958.98
1886.2
1938.37
1902.76
1936.73
1919.6
1961.73
1907.27
1672.2
1855.29
1671.89
1766.37
1676.51
1374.18
1498.24
1569.51
1726.59
1421.34
1653.35
1374.43
979.925
1077.54
1106.84
997.428
1055.62
1051.75
910.548
579.497
494.21
455.091
486.371
925.569
567.006
168.618
179.786
153.118
1977.27
1934.56
1903.58
2012.6
1913.93
1956.54
1905.28
1986.58
1949.04
1681.38
1849.61
1640.98
1878.29
1866.01
1804.5
1861.28
1795.31
1656.17
1715.72
1367.01
1561.23
1716.22
1583.98
1697.85
1408.21
970.775
1085.6
1281.71
1388.83
1036.76
1130.61
991.511
1068.88
1362.55
933.167
574.265
441.471
497.289
451.947
918.806
566.934
170.543
154.486
162.312
1926.8
1753.9
1690.22
1887.09
1657.85
1402.98
1628.18
1597.67
1595.45
1586.67
1047.66
1136.63
1042.55
1042.96
1048.17
569.354
948.967
587.813
944.797
1665.58
1566.29
1468.17
1557.38
1688.74
1580.52
1166.96
1241.09
1161.66
1611.92
1687.05
1601.9
1503.22
1695.74
1446.26
1548.8
1533.6
1443.17
1598.84
1521.13
1682.35
1479.55
1523.59
1529.46
1480.19
1309.86
1293.69
1173.87
1170.93
1096.15
998.917
1156.65
1071.22
1118.86
1674.98
1549.05
1490.19
1551.22
1660.21
1441.43
1465.94
1476.67
1347.12
1544.29
1236.53
1347.82
1317.4
1184.58
1194.56
1110.86
998.777
1142.64
1060.07
1121.59
1559.03
1653.95
1441.04
1451.41
1490.51
1331.04
1539.08
1296.72
1169.81
1057.45
1177.33
1122.13
1160.84
1800.93
1805.95
1789.45
1818.62
1471.07
1669.76
1606.26
1247.14
1249.51
1317.63
1306.42
1297.46
889.729
979.531
959.838
783.46
750.927
993.389
910.409
908.029
1817.47
1840.99
1879.25
1789.02
1508.33
1599
1459.11
1713.15
1584.75
1295.26
1293.51
1186.34
901.457
1023.66
959.133
789.933
382.998
398.701
280.674
294.612
192.623
133.053
1820.62
1808.64
1807.07
1774.85
1856.8
1557.71
1655.68
1608.6
1228.03
754.432
973.805
293.132
191.607
134.847
16.1833
418.874
1817.44
1827.86
1878.7
1816.97
1855.61
1853.36
1824.7
1803.11
1861.34
1446.31
1531.63
1788.64
1584.99
1304.93
1308.2
905.074
980.44
893.896
843.227
952.343
779.192
426.39
1297.54
957.071
1727.41
1687.84
1560.08
1566.82
1299.06
1224.5
1272.72
1142.55
1053.67
1164.39
1071.02
1069.33
1034.7
1972.28
1931.4
1621.45
1636.92
1742.6
1802.89
1779.62
1799.62
1646.05
1736.05
1697.48
1776.4
1652.22
1721.63
1835.87
1786.77
1797.23
1787.77
1635.76
1693.1
1720.89
1765.64
1814.25
1863.87
1830.26
1851.66
1746.95
1640.98
1710.35
1861.06
1820.56
1866.21
1829.64
1650.85
1805.49
1847.24
1778.41
1695.4
1729.91
1696.35
1557.76
1504.48
1740.81
1558.36
1479.19
1476.6
1373.74
1388.03
1382.35
1496.31
1694.35
1597.56
1405.63
1394.74
1480.22
1408.56
1498.2
1659.5
1537.42
1395.03
1329.9
1311.9
1132.95
1165.34
996.666
1314.8
1133.51
1183.96
1012.29
1257.06
1316.8
1144.21
1008.42
1306.25
1093.7
1146.2
897.869
895.592
752.302
763.937
633.207
644.01
769.054
650.203
617.572
507.901
473.953
467.65
529.955
882.375
785.77
643.768
602.567
518.886
521.621
462.652
844.18
902.716
640.559
1992.2
1892.01
1946.04
1838.14
1883.66
1992.7
1804.98
2091.47
1891.59
1916.98
1902.93
1994.86
1908.87
1980.68
2096.89
1998.34
1888.85
1960.92
1746.75
1813.43
1922.49
1852.59
1670
1798.14
1725.68
1828.4
1784.93
1817.03
1785.93
1865.3
1730.03
1628.54
1681.33
1752.5
1857.3
1804.86
1795.75
1748.79
1456.48
1524.9
1393.06
1562.34
1650.97
1462.33
1523.87
1547.88
1569.24
1577.43
1656.39
1473.21
1242.38
1171.05
1107.23
1198.78
1304.41
1053.05
1074.87
1160.41
1246.85
1168.41
1089.89
1000.15
525.03
495.184
478.529
749.764
643.139
603.535
514.679
882.512
924.538
514.84
482.894
752.747
521.235
136.586
139.971
29.7281
224.822
20.2093
144.516
246.934
2014.19
1892.48
2046.09
1953.25
1943.66
1868.42
1888.26
1805.82
1972.81
2046.73
1981.43
1894.34
1871.94
1849.65
1912.04
1915.54
1913.55
1747.09
1868.37
1717.8
1846.66
1867.18
1811.98
1613.83
1854.12
1765.33
1808.99
1790.21
1742.79
1790.67
1790.27
1673.71
1722.73
1659.89
1531.02
1672.4
1564.66
1468.95
1434.74
1337.45
1483.09
1676.72
1538.67
1548.13
1272.03
1071.76
1097.77
1223.76
1214.84
1125.19
1195.77
1185.04
1162.37
1091.08
1288.3
1298.01
644.271
606.77
518.989
899.766
793.112
517.521
475.435
758.825
525.914
884.691
508.844
24.7383
142.016
247.972
1989.93
1815.65
1664.42
1786.13
1658.76
1663.04
1721.8
1857.48
1814.62
1799.5
1671.23
1730.29
1769.33
1747.98
1824.63
1792.92
1811.84
1788.11
1746.02
1638.45
1787.93
1716.58
1696.8
1575.56
1404.38
1515.07
1743.75
1551.92
1475.02
1386.73
1386.21
1491.3
1680.98
1390.2
1484.85
1674.89
1405.63
1125.02
1023.09
1266.58
1312.3
1267.49
1123.86
1189.84
1294.09
1097.34
1304.04
1097.76
629.172
899.796
511.681
480.473
538.124
887.586
980.32
767.735
515.541
535.091
747.068
891.485
)
;
    }
}


// ************************************************************************* //
