/*--------------------------------*- C++ -*----------------------------------*\
| =========                 |                                                 |
| \\      /  F ield         | OpenFOAM: The Open Source CFD Toolbox           |
|  \\    /   O peration     | Version:  v1912                                 |
|   \\  /    A nd           | Website:  www.openfoam.com                      |
|    \\/     M anipulation  |                                                 |
\*---------------------------------------------------------------------------*/
FoamFile
{
    version     2.0;
    format      ascii;
    class       surfaceScalarField;
    location    "106/oil";
    object      phi;
}
// * * * * * * * * * * * * * * * * * * * * * * * * * * * * * * * * * * * * * //

dimensions      [1 0 -1 0 0 0 0];
oriented        oriented;


internalField   nonuniform List<scalar> 
104676
(
-7.36402e-12
1.99664e-11
-9.72122e-12
2.10813e-10
-1.73644e-10
-4.45359e-11
6.56088e-10
-3.23962e-10
-1.21305e-10
1.25947e-09
-3.9471e-10
-2.08652e-10
1.93221e-09
-4.0346e-10
-2.69263e-10
2.58594e-09
-3.67158e-10
-2.86553e-10
3.14097e-09
-2.99006e-10
-2.55996e-10
3.5307e-09
-2.08782e-10
-1.80911e-10
3.70317e-09
-1.04023e-10
-6.84075e-11
3.63034e-09
5.86721e-12
6.70059e-11
3.29828e-09
1.19274e-10
2.12842e-10
2.72997e-09
2.1192e-10
3.56442e-10
1.9551e-09
2.96141e-10
4.78794e-10
1.02925e-09
3.57174e-10
5.68747e-10
2.32218e-11
3.89463e-10
6.16636e-10
-9.86066e-10
3.91265e-10
6.18097e-10
-1.91481e-09
3.57695e-10
5.71125e-10
-2.69336e-09
2.96194e-10
4.82433e-10
-3.26792e-09
2.1361e-10
3.6102e-10
-3.60494e-09
1.17091e-10
2.20001e-10
-3.68759e-09
7.18139e-12
7.55418e-11
-3.51988e-09
-1.05634e-10
-6.20111e-11
-3.13419e-09
-2.09998e-10
-1.75632e-10
-2.58236e-09
-3.0015e-10
-2.51628e-10
-1.93131e-09
-3.68067e-10
-2.8293e-10
-1.26059e-09
-4.05168e-10
-2.65509e-10
-6.58148e-10
-3.9759e-10
-2.04819e-10
-2.12744e-10
-3.27623e-10
-1.17748e-10
6.46027e-12
-1.77376e-10
-4.18025e-11
1.51532e-11
-8.67784e-12
2.14684e-10
-4.09327e-10
2.14603e-10
8.25498e-10
-1.22412e-09
4.39664e-10
1.79456e-09
-1.83707e-09
5.44059e-10
3.01387e-09
-2.20991e-09
5.95908e-10
4.33693e-09
-2.38828e-09
6.61787e-10
5.60616e-09
-2.41654e-09
7.80179e-10
6.6728e-09
-2.33246e-09
9.6685e-10
7.40813e-09
-2.16574e-09
1.22166e-09
7.71189e-09
-1.94123e-09
1.5335e-09
7.51979e-09
-1.68128e-09
1.8793e-09
6.80186e-09
-1.40784e-09
2.24512e-09
5.59772e-09
-1.16836e-09
2.58449e-09
3.99733e-09
-9.57659e-10
2.85427e-09
2.10197e-09
-8.05169e-10
3.05777e-09
4.69239e-11
-7.25334e-10
3.16993e-09
-2.01632e-09
-7.25688e-10
3.18029e-09
-3.9175e-09
-8.08432e-10
3.06739e-09
-5.52042e-09
-9.63342e-10
2.86255e-09
-6.71592e-09
-1.1743e-09
2.58349e-09
-7.43748e-09
-1.4183e-09
2.25703e-09
-7.6426e-09
-1.68796e-09
1.90034e-09
-7.35068e-09
-1.94606e-09
1.54859e-09
-6.62933e-09
-2.16845e-09
1.23717e-09
-5.57749e-09
-2.33461e-09
9.82676e-10
-4.32053e-09
-2.41963e-09
7.9466e-10
-3.00833e-09
-2.39284e-09
6.75516e-10
-1.796e-09
-2.21804e-09
6.08161e-10
-8.28194e-10
-1.84823e-09
5.5284e-10
-2.15455e-10
-1.23375e-09
4.43669e-10
-4.1505e-10
2.14767e-10
4.49653e-10
-1.3128e-09
4.53826e-10
1.42751e-09
-3.17161e-09
9.69644e-10
2.79789e-09
-4.49739e-09
1.28995e-09
4.42591e-09
-5.36127e-09
1.52337e-09
6.14319e-09
-5.85705e-09
1.75152e-09
7.76449e-09
-6.06199e-09
2.02418e-09
9.1089e-09
-6.04228e-09
2.36544e-09
1.00162e-08
-5.85237e-09
2.77942e-09
1.03612e-08
-5.5417e-09
3.25549e-09
1.0064e-08
-5.1517e-09
3.7677e-09
9.08523e-09
-4.7274e-09
4.29838e-09
7.46631e-09
-4.32626e-09
4.7769e-09
5.32435e-09
-3.9744e-09
5.15879e-09
2.79739e-09
-3.71744e-09
5.43931e-09
6.06306e-11
-3.58486e-09
5.59638e-09
-2.6895e-09
-3.59099e-09
5.61553e-09
-5.22518e-09
-3.72558e-09
5.45293e-09
-7.3688e-09
-3.98363e-09
5.16399e-09
-8.98004e-09
-4.33265e-09
4.76968e-09
-9.97354e-09
-4.73721e-09
4.3125e-09
-1.02894e-08
-5.16055e-09
3.78853e-09
-9.95869e-09
-5.54775e-09
3.27105e-09
-9.06628e-09
-5.85704e-09
2.79625e-09
-7.73712e-09
-6.04581e-09
2.38211e-09
-6.12977e-09
-6.0669e-09
2.03999e-09
-4.42231e-09
-5.86586e-09
1.76561e-09
-2.8009e-09
-5.37407e-09
1.53467e-09
-1.43236e-09
-4.51328e-09
1.29655e-09
-4.52092e-10
-3.18448e-09
9.70499e-10
-1.32007e-09
4.52952e-10
6.43711e-10
-2.60792e-09
6.51417e-10
1.92996e-09
-5.8618e-09
1.40397e-09
3.62541e-09
-8.09031e-09
1.89748e-09
5.56445e-09
-9.57787e-09
2.27759e-09
7.56193e-09
-1.04964e-08
2.6419e-09
9.41851e-09
-1.0964e-08
3.04542e-09
1.09384e-08
-1.10784e-08
3.51621e-09
1.19465e-08
-1.09203e-08
4.05993e-09
1.23004e-08
-1.05628e-08
4.6672e-09
1.19081e-08
-1.00729e-08
5.31362e-09
1.07234e-08
-9.51824e-09
5.97562e-09
8.80203e-09
-8.96494e-09
6.56012e-09
6.2716e-09
-8.48298e-09
7.03909e-09
3.29264e-09
-8.11139e-09
7.37301e-09
6.88846e-11
-7.92197e-09
7.56095e-09
-3.17254e-09
-7.93514e-09
7.58567e-09
-6.16285e-09
-8.12011e-09
7.38494e-09
-8.69665e-09
-8.48147e-09
7.03174e-09
-1.06117e-08
-8.96576e-09
6.54821e-09
-1.18092e-08
-9.5212e-09
5.98163e-09
-1.22192e-08
-1.00762e-08
5.32566e-09
-1.18813e-08
-1.05651e-08
4.67955e-09
-1.08905e-08
-1.09224e-08
4.07462e-09
-9.38618e-09
-1.10806e-08
3.53058e-09
-7.54458e-09
-1.09686e-08
3.06013e-09
-5.55981e-09
-1.05058e-08
2.65522e-09
-3.62743e-09
-9.59338e-09
2.28698e-09
-1.93467e-09
-8.10572e-09
1.89972e-09
-6.48338e-10
-5.8679e-09
1.39713e-09
-2.6175e-09
6.49108e-10
7.9001e-10
-4.1951e-09
7.97194e-10
2.31406e-09
-9.10701e-09
1.72119e-09
4.26405e-09
-1.23843e-08
2.34401e-09
6.44305e-09
-1.45894e-08
2.83252e-09
8.65052e-09
-1.60028e-08
3.299e-09
1.06774e-08
-1.6796e-08
3.8052e-09
1.23199e-08
-1.71015e-08
4.38066e-09
1.33933e-08
-1.7027e-08
5.03341e-09
1.37489e-08
-1.66696e-08
5.75123e-09
1.32851e-08
-1.61199e-08
6.51078e-09
1.19527e-08
-1.54711e-08
7.28533e-09
9.80927e-09
-1.48043e-08
7.98293e-09
6.98363e-09
-1.42056e-08
8.54835e-09
3.66411e-09
-1.3719e-08
8.92725e-09
7.43755e-11
-1.34728e-08
9.14072e-09
-3.53606e-09
-1.34909e-08
9.1663e-09
-6.86409e-09
-1.37302e-08
8.9382e-09
-9.68807e-09
-1.41871e-08
8.52972e-09
-1.18329e-08
-1.47985e-08
7.97763e-09
-1.31798e-08
-1.54693e-08
7.29511e-09
-1.36618e-08
-1.61192e-08
6.52514e-09
-1.33239e-08
-1.66693e-08
5.76637e-09
-1.22673e-08
-1.7028e-08
5.04902e-09
-1.06402e-08
-1.71036e-08
4.39601e-09
-8.6281e-09
-1.68003e-08
3.81971e-09
-6.43413e-09
-1.60111e-08
3.31139e-09
-4.2646e-09
-1.4603e-08
2.84018e-09
-2.31731e-09
-1.23965e-08
2.34355e-09
-7.94067e-10
-9.10208e-09
1.71099e-09
-4.20675e-09
7.95211e-10
8.88223e-10
-5.98004e-09
8.96751e-10
2.58105e-09
-1.27326e-08
1.93285e-09
4.71603e-09
-1.71638e-08
2.64463e-09
7.06912e-09
-2.0153e-08
3.2106e-09
9.42803e-09
-2.21133e-08
3.75156e-09
1.15773e-08
-2.32818e-08
4.33667e-09
1.33086e-08
-2.38298e-08
4.99713e-09
1.44319e-08
-2.38931e-08
5.7428e-09
1.47931e-08
-2.35907e-08
6.56004e-09
1.42867e-08
-2.30347e-08
7.42128e-09
1.28611e-08
-2.23387e-08
8.29344e-09
1.05553e-08
-2.16146e-08
9.11613e-09
7.51133e-09
-2.09326e-08
9.77106e-09
3.93859e-09
-2.03395e-08
1.01933e-08
7.52598e-11
-2.00297e-08
1.04202e-08
-3.81057e-09
-2.00493e-08
1.04443e-08
-7.38476e-09
-2.03663e-08
1.02104e-08
-1.04211e-08
-2.0898e-08
9.74735e-09
-1.27329e-08
-2.16034e-08
9.11684e-09
-1.41757e-08
-2.2335e-08
8.30864e-09
-1.47024e-08
-2.30319e-08
7.43959e-09
-1.43602e-08
-2.35899e-08
6.57846e-09
-1.32541e-08
-2.38946e-08
5.76069e-09
-1.15385e-08
-2.38331e-08
5.01393e-09
-9.40284e-09
-2.32871e-08
4.35116e-09
-7.05657e-09
-2.2121e-08
3.76366e-09
-4.71375e-09
-2.0163e-08
3.2172e-09
-2.58463e-09
-1.71676e-08
2.64205e-09
-8.92824e-10
-1.27162e-08
1.92235e-09
-5.99536e-09
8.95814e-10
9.37589e-10
-7.87554e-09
9.57954e-10
2.73424e-09
-1.65995e-08
2.07022e-09
4.98588e-09
-2.22442e-08
2.82873e-09
7.44697e-09
-2.60516e-08
3.43751e-09
9.89896e-09
-2.85941e-08
4.02896e-09
1.21241e-08
-3.01799e-08
4.67294e-09
1.39133e-08
-3.1021e-08
5.40211e-09
1.50728e-08
-3.12808e-08
6.22823e-09
1.54461e-08
-3.10994e-08
7.13544e-09
1.49219e-08
-3.06039e-08
8.09348e-09
1.34471e-08
-2.99278e-08
9.06403e-09
1.10346e-08
-2.92013e-08
9.9992e-09
7.85594e-09
-2.85023e-08
1.07485e-08
4.11861e-09
-2.78128e-08
1.12107e-08
8.09015e-11
-2.74449e-08
1.14531e-08
-3.97588e-09
-2.74752e-08
1.14827e-08
-7.72721e-09
-2.78641e-08
1.12492e-08
-1.08971e-08
-2.84615e-08
1.07334e-08
-1.33157e-08
-2.91912e-08
1.00065e-08
-1.48089e-08
-2.99278e-08
9.0861e-09
-1.53536e-08
-3.06051e-08
8.11789e-09
-1.5e-08
-3.11018e-08
7.15844e-09
-1.38579e-08
-3.12857e-08
6.2491e-09
-1.20847e-08
-3.10281e-08
5.42179e-09
-9.87247e-09
-3.01879e-08
4.68869e-09
-7.43258e-09
-2.86021e-08
4.04133e-09
-4.98238e-09
-2.60558e-08
3.44267e-09
-2.74076e-09
-2.22296e-08
2.82037e-09
-9.49098e-10
-1.65572e-08
2.0494e-09
-7.90007e-09
9.55643e-10
9.56065e-10
-9.80972e-09
9.78161e-10
2.78294e-09
-2.0549e-08
2.12276e-09
5.07316e-09
-2.74379e-08
2.9036e-09
7.57128e-09
-3.20803e-08
3.53065e-09
1.00514e-08
-3.52211e-08
4.14687e-09
1.22992e-08
-3.72581e-08
4.83043e-09
1.41089e-08
-3.84427e-08
5.61206e-09
1.5288e-08
-3.89629e-08
6.50314e-09
1.56764e-08
-3.8976e-08
7.48824e-09
1.51609e-08
-3.86226e-08
8.53428e-09
1.36787e-08
-3.80439e-08
9.59838e-09
1.12292e-08
-3.73878e-08
1.0636e-08
7.99014e-09
-3.67543e-08
1.14912e-08
4.18287e-09
-3.59858e-08
1.19804e-08
8.06792e-11
-3.55931e-08
1.22505e-08
-4.04639e-09
-3.56303e-08
1.22823e-08
-7.88253e-09
-3.60392e-08
1.20114e-08
-1.10991e-08
-3.6712e-08
1.14671e-08
-1.35486e-08
-3.73814e-08
1.06398e-08
-1.50482e-08
-3.80487e-08
9.62068e-09
-1.5585e-08
-3.86279e-08
8.55968e-09
-1.52161e-08
-3.89831e-08
7.51247e-09
-1.4054e-08
-3.89734e-08
6.52567e-09
-1.22594e-08
-3.84559e-08
5.63334e-09
-1.00242e-08
-3.72714e-08
4.8483e-09
-7.55637e-09
-3.52297e-08
4.15983e-09
-5.07264e-09
-3.20694e-08
3.52996e-09
-2.79392e-09
-2.73921e-08
2.88384e-09
-9.6663e-10
-2.04793e-08
2.09487e-09
-9.84439e-09
9.77715e-10
9.39503e-10
-1.17096e-08
9.60459e-10
2.72296e-09
-2.44268e-08
2.09433e-09
4.96661e-09
-3.25641e-08
2.88261e-09
7.42179e-09
-3.80461e-08
3.51066e-09
9.86085e-09
-4.17814e-08
4.12133e-09
1.20687e-08
-4.42779e-08
4.81205e-09
1.38512e-08
-4.58454e-08
5.62031e-09
1.50231e-08
-4.66864e-08
6.55165e-09
1.54245e-08
-4.69664e-08
7.5891e-09
1.49395e-08
-4.68363e-08
8.6989e-09
1.35087e-08
-4.64404e-08
9.82728e-09
1.11208e-08
-4.59208e-08
1.09209e-08
7.89996e-09
-4.5397e-08
1.18636e-08
4.13035e-09
-4.46058e-08
1.23897e-08
7.71991e-11
-4.42477e-08
1.27078e-08
-4.00597e-09
-4.42809e-08
1.27338e-08
-7.81504e-09
-4.46271e-08
1.2397e-08
-1.10092e-08
-4.53335e-08
1.18158e-08
-1.33843e-08
-4.59167e-08
1.09105e-08
-1.48297e-08
-4.645e-08
9.84678e-09
-1.53345e-08
-4.68482e-08
8.72508e-09
-1.49523e-08
-4.69798e-08
7.6146e-09
-1.37974e-08
-4.67035e-08
6.57526e-09
-1.20294e-08
-4.58661e-08
5.64234e-09
-9.83499e-09
-4.42941e-08
4.82836e-09
-7.41512e-09
-4.17703e-08
4.12081e-09
-4.97875e-09
-3.79878e-08
3.48205e-09
-2.7421e-09
-3.2466e-08
2.83732e-09
-9.46162e-10
-2.43375e-08
2.06225e-09
-1.17519e-08
9.61379e-10
8.91439e-10
-1.35018e-08
9.00727e-10
2.57513e-09
-2.8077e-08
1.9666e-09
4.67176e-09
-3.73951e-08
2.73433e-09
6.98251e-09
-4.37162e-08
3.35946e-09
9.29715e-09
-4.8049e-08
3.95297e-09
1.13943e-08
-5.09882e-08
4.61316e-09
1.30914e-08
-5.29518e-08
5.40934e-09
1.4218e-08
-5.41565e-08
6.34356e-09
1.46238e-08
-5.47656e-08
7.39353e-09
1.41906e-08
-5.49281e-08
8.52511e-09
1.28615e-08
-5.4787e-08
9.67581e-09
1.06253e-08
-5.44705e-08
1.07859e-08
7.52452e-09
-5.40708e-08
1.17747e-08
3.93188e-09
-5.33593e-08
1.23462e-08
7.24048e-11
-5.30715e-08
1.26833e-08
-3.81038e-09
-5.31033e-08
1.27052e-08
-7.4298e-09
-5.33425e-08
1.23349e-08
-1.05167e-08
-5.39426e-08
1.16962e-08
-1.27448e-08
-5.44583e-08
1.07696e-08
-1.40849e-08
-5.48035e-08
9.69369e-09
-1.45374e-08
-5.49467e-08
8.55101e-09
-1.41508e-08
-5.47853e-08
7.41903e-09
-1.30396e-08
-5.41817e-08
6.367e-09
-1.13546e-08
-5.29804e-08
5.42942e-09
-9.27671e-09
-5.09898e-08
4.61782e-09
-6.98968e-09
-4.79763e-08
3.91905e-09
-4.68681e-09
-4.35859e-08
3.29525e-09
-2.57753e-09
-3.72506e-08
2.67538e-09
-8.88576e-10
-2.7967e-08
1.94059e-09
-1.35462e-08
9.05736e-10
8.04633e-10
-1.5106e-08
7.9962e-10
2.32966e-09
-3.13251e-08
1.72305e-09
4.20907e-09
-4.16857e-08
2.41131e-09
6.2625e-09
-4.87927e-08
3.02309e-09
8.34505e-09
-5.37281e-08
3.5966e-09
1.02443e-08
-5.70947e-08
4.20734e-09
1.17898e-08
-5.94477e-08
4.95036e-09
1.28281e-08
-6.10365e-08
5.84173e-09
1.32203e-08
-6.20075e-08
6.84969e-09
1.28586e-08
-6.24993e-08
7.93304e-09
1.17011e-08
-6.26381e-08
9.00863e-09
9.71747e-09
-6.2516e-08
1.00292e-08
6.8598e-09
-6.22096e-08
1.09966e-08
3.57823e-09
-6.17465e-08
1.16689e-08
6.63714e-11
-6.15805e-08
1.20209e-08
-3.46005e-09
-6.16128e-08
1.2036e-08
-6.72643e-09
-6.17347e-08
1.16587e-08
-9.53497e-09
-6.21503e-08
1.10163e-08
-1.15501e-08
-6.26035e-08
1.01604e-08
-1.27518e-08
-6.26842e-08
9.08249e-09
-1.31365e-08
-6.25262e-08
7.9643e-09
-1.27647e-08
-6.20284e-08
6.87129e-09
-1.17396e-08
-6.1067e-08
5.86026e-09
-1.02026e-08
-5.94805e-08
4.96313e-09
-8.32343e-09
-5.70607e-08
4.19173e-09
-6.26045e-09
-5.35694e-08
3.53012e-09
-4.18187e-09
-4.86065e-08
2.94207e-09
-2.28851e-09
-4.15184e-08
2.37447e-09
-7.81375e-10
-3.11924e-08
1.7183e-09
-1.51333e-08
8.05716e-10
6.78248e-10
-1.64444e-08
6.60193e-10
1.97815e-09
-3.40104e-08
1.3855e-09
3.5669e-09
-4.51796e-08
1.90511e-09
5.28994e-09
-5.29428e-08
2.42712e-09
7.00644e-09
-5.84236e-08
2.97903e-09
8.60099e-09
-6.22374e-08
3.54816e-09
9.91973e-09
-6.49702e-08
4.20389e-09
1.08273e-08
-6.69427e-08
4.99873e-09
1.11977e-08
-6.82789e-08
5.901e-09
1.09324e-08
-6.90758e-08
6.84183e-09
9.9656e-09
-6.94356e-08
7.76434e-09
8.23627e-09
-6.95286e-08
8.74201e-09
5.82277e-09
-6.94608e-08
9.66469e-09
3.04707e-09
-6.92577e-08
1.02869e-08
5.68961e-11
-6.91942e-08
1.0604e-08
-2.95543e-09
-6.91779e-08
1.05775e-08
-5.73796e-09
-6.91529e-08
1.02008e-08
-8.11962e-09
-6.93709e-08
9.60227e-09
-9.82088e-09
-6.97365e-08
8.83438e-09
-1.0813e-08
-6.9519e-08
7.82694e-09
-1.11068e-08
-6.90806e-08
6.84833e-09
-1.0764e-08
-6.82697e-08
5.89847e-09
-9.87099e-09
-6.69632e-08
5.00322e-09
-8.54665e-09
-6.50062e-08
4.20144e-09
-6.95466e-09
-6.21746e-08
3.52196e-09
-5.22722e-09
-5.82539e-08
2.95708e-09
-3.51036e-09
-5.28031e-08
2.4798e-09
-1.93367e-09
-4.51119e-08
2.01683e-09
-6.67407e-10
-3.39207e-08
1.46213e-09
-1.64833e-08
6.82585e-10
5.20721e-10
-1.74631e-08
4.98045e-10
1.49963e-09
-3.60496e-08
1.06023e-09
2.72717e-09
-4.78381e-08
1.43098e-09
4.04198e-09
-5.60085e-08
1.75091e-09
5.31675e-09
-6.1846e-08
2.14763e-09
6.50364e-09
-6.60526e-08
2.62833e-09
7.50517e-09
-6.91427e-08
3.17092e-09
8.23021e-09
-7.14554e-08
3.78772e-09
8.58541e-09
-7.31134e-08
4.47938e-09
8.39886e-09
-7.41184e-08
5.22917e-09
7.57004e-09
-7.46696e-08
6.06284e-09
6.17908e-09
-7.5057e-08
6.91936e-09
4.42893e-09
-7.53527e-08
7.64207e-09
2.34613e-09
-7.5314e-08
8.13919e-09
5.01894e-11
-7.52767e-08
8.3785e-09
-2.28467e-09
-7.51674e-08
8.32439e-09
-4.41196e-09
-7.50448e-08
8.01918e-09
-6.20288e-09
-7.50843e-08
7.50434e-09
-7.55471e-09
-7.51607e-08
6.77599e-09
-8.30468e-09
-7.46519e-08
5.88292e-09
-8.48777e-09
-7.40091e-08
5.11161e-09
-8.19794e-09
-7.29575e-08
4.39797e-09
-7.51424e-09
-7.13894e-08
3.74249e-09
-6.52021e-09
-6.91908e-08
3.19061e-09
-5.30906e-09
-6.61007e-08
2.71505e-09
-3.99304e-09
-6.18527e-08
2.28289e-09
-2.6813e-09
-5.60157e-08
1.90081e-09
-1.47657e-09
-4.78503e-08
1.53366e-09
-5.10383e-10
-3.59955e-08
1.10862e-09
-1.75102e-08
5.16573e-10
3.52241e-10
-1.81187e-08
3.03381e-10
9.50032e-10
-3.72846e-08
6.37234e-10
1.71742e-09
-4.95265e-08
9.21033e-10
2.55046e-09
-5.79912e-08
1.14963e-09
3.36806e-09
-6.40764e-08
1.41289e-09
4.13355e-09
-6.85343e-08
1.71624e-09
4.77682e-09
-7.18249e-08
2.03901e-09
5.21431e-09
-7.42561e-08
2.36322e-09
5.45077e-09
-7.60666e-08
2.71676e-09
5.31524e-09
-7.72191e-08
3.23619e-09
4.77098e-09
-7.80002e-08
3.87482e-09
3.92738e-09
-7.86759e-08
4.4626e-09
2.82268e-09
-7.91709e-08
4.92296e-09
1.502e-09
-7.92365e-08
5.24311e-09
5.60047e-11
-7.9252e-08
5.42123e-09
-1.41244e-09
-7.91057e-08
5.40669e-09
-2.75882e-09
-7.89256e-08
5.22719e-09
-3.87022e-09
-7.88722e-08
4.8993e-09
-4.73837e-09
-7.87443e-08
4.45179e-09
-5.27239e-09
-7.79794e-08
3.8615e-09
-5.47161e-09
-7.70483e-08
3.23839e-09
-5.31704e-09
-7.57698e-08
2.65775e-09
-4.84782e-09
-7.40704e-08
2.21179e-09
-4.15436e-09
-7.17903e-08
1.906e-09
-3.35376e-09
-6.8565e-08
1.66367e-09
-2.51264e-09
-6.41217e-08
1.42781e-09
-1.68259e-09
-5.80398e-08
1.19413e-09
-9.23896e-10
-4.95717e-08
9.62764e-10
-3.19681e-10
-3.72941e-08
6.94337e-10
-1.81531e-08
3.2324e-10
1.29526e-10
-1.83521e-08
1.03907e-10
3.32767e-10
-3.77099e-08
2.22129e-10
6.0517e-10
-5.013e-08
3.3113e-10
9.04492e-10
-5.87039e-08
4.13479e-10
1.20696e-09
-6.4875e-08
4.96134e-10
1.51328e-09
-6.94062e-08
5.65568e-10
1.79809e-09
-7.27365e-08
6.26744e-10
1.969e-09
-7.51524e-08
7.254e-10
1.99471e-09
-7.69715e-08
8.79111e-10
1.88961e-09
-7.82114e-08
1.09742e-09
1.72045e-09
-7.91573e-08
1.32632e-09
1.47095e-09
-7.99471e-08
1.52066e-09
1.00187e-09
-8.03552e-08
1.65331e-09
5.03158e-10
-8.04853e-08
1.74757e-09
3.56213e-11
-8.06257e-08
1.84128e-09
-4.84336e-10
-8.05056e-08
1.91989e-09
-9.70813e-10
-8.03544e-08
1.91531e-09
-1.35585e-09
-8.02769e-08
1.7898e-09
-1.65909e-09
-8.00642e-08
1.62314e-09
-1.84675e-09
-7.92105e-08
1.41874e-09
-1.92321e-09
-7.81747e-08
1.2029e-09
-1.87627e-09
-7.68112e-08
9.94512e-10
-1.71214e-09
-7.50587e-08
8.24208e-10
-1.46561e-09
-7.27313e-08
6.94462e-10
-1.17883e-09
-6.94384e-08
5.86602e-10
-8.7869e-10
-6.49116e-08
4.89839e-10
-5.83712e-10
-5.87399e-08
4.05085e-10
-3.17007e-10
-5.01644e-08
3.25907e-10
-1.09134e-10
-3.77346e-08
2.32643e-10
-1.83742e-08
1.119e-10
-8.91914e-11
-1.81647e-08
-9.8247e-11
-2.77211e-10
-3.73237e-08
-1.98186e-10
-5.08187e-10
-4.96288e-08
-2.70163e-10
-7.6074e-10
-5.8115e-08
-3.36407e-10
-1.02116e-09
-6.42168e-08
-3.97777e-10
-1.28309e-09
-6.87033e-08
-4.40938e-10
-1.52781e-09
-7.2019e-08
-4.727e-10
-1.68272e-09
-7.4461e-08
-5.36454e-10
-1.68444e-09
-7.6283e-08
-6.86804e-10
-1.56911e-09
-7.74138e-08
-9.12927e-10
-1.42129e-09
-7.81775e-08
-1.12773e-09
-1.2952e-09
-7.88025e-08
-1.27071e-09
-1.09526e-09
-7.91923e-08
-1.3628e-09
-6.741e-10
-7.94466e-08
-1.45994e-09
-5.79269e-11
-7.96321e-08
-1.60974e-09
4.47018e-10
-7.93424e-08
-1.6682e-09
8.81252e-10
-7.91879e-08
-1.60071e-09
1.27169e-09
-7.91727e-08
-1.49462e-09
1.48552e-09
-7.89196e-08
-1.35839e-09
1.62274e-09
-7.81492e-08
-1.19849e-09
1.69094e-09
-7.72232e-08
-1.01979e-09
1.6531e-09
-7.5937e-08
-8.36413e-10
1.52336e-09
-7.4236e-08
-6.9303e-10
1.30572e-09
-7.19236e-08
-5.90027e-10
1.05376e-09
-6.86752e-08
-5.11278e-10
7.92613e-10
-6.4214e-08
-4.3651e-10
5.31866e-10
-5.81173e-08
-3.61817e-10
2.95609e-10
-4.96413e-08
-2.8683e-10
1.0653e-10
-3.73462e-08
-1.99331e-10
-1.81746e-08
-9.29895e-11
-3.05739e-10
-1.75503e-08
-3.08654e-10
-8.87888e-10
-3.60812e-08
-6.60252e-10
-1.61425e-09
-4.79859e-08
-9.16567e-10
-2.40948e-09
-5.61818e-08
-1.13794e-09
-3.20837e-09
-6.2049e-08
-1.36893e-09
-3.94883e-09
-6.63358e-08
-1.62709e-09
-4.56398e-09
-6.94877e-08
-1.91624e-09
-4.99953e-09
-7.17834e-08
-2.2421e-09
-5.20099e-09
-7.34736e-08
-2.60794e-09
-5.04511e-09
-7.44875e-08
-3.08226e-09
-4.52604e-09
-7.50201e-08
-3.67649e-09
-3.77903e-09
-7.53377e-08
-4.21176e-09
-2.76282e-09
-7.55854e-08
-4.62312e-09
-1.48438e-09
-7.57786e-08
-4.94642e-09
-2.09064e-11
-7.59391e-08
-5.15655e-09
1.39272e-09
-7.56185e-08
-5.13752e-09
2.72199e-09
-7.55573e-08
-4.95995e-09
3.88507e-09
-7.56968e-08
-4.63904e-09
4.5818e-09
-7.54201e-08
-4.19633e-09
5.03452e-09
-7.49099e-08
-3.69205e-09
5.23486e-09
-7.43116e-08
-3.11196e-09
5.08387e-09
-7.32794e-08
-2.50661e-09
4.64861e-09
-7.1692e-08
-2.10873e-09
3.98314e-09
-6.94138e-08
-1.84441e-09
3.21922e-09
-6.63043e-08
-1.60692e-09
2.42841e-09
-6.20539e-08
-1.36931e-09
1.63484e-09
-5.61958e-08
-1.12804e-09
9.13978e-10
-4.80283e-08
-8.92122e-10
3.32147e-10
-3.61436e-08
-6.20755e-10
-1.75462e-08
-2.96287e-10
-5.01207e-10
-1.65466e-08
-5.0243e-10
-1.44428e-09
-3.40592e-08
-1.07891e-09
-2.62173e-09
-4.5311e-08
-1.49736e-09
-3.90479e-09
-5.30402e-08
-1.85858e-09
-5.18754e-09
-5.85306e-08
-2.23563e-09
-6.35896e-09
-6.24919e-08
-2.67248e-09
-7.31402e-09
-6.53566e-08
-3.17606e-09
-7.9904e-09
-6.73478e-08
-3.75934e-09
-8.32891e-09
-6.8718e-08
-4.41714e-09
-8.16278e-09
-6.95502e-08
-5.10348e-09
-7.37222e-09
-6.99173e-08
-5.89336e-09
-6.05935e-09
-6.99393e-08
-6.71137e-09
-4.34128e-09
-6.98997e-08
-7.40378e-09
-2.29309e-09
-6.99184e-08
-7.90846e-09
-2.53655e-11
-7.00261e-08
-8.18074e-09
2.23116e-09
-6.97554e-08
-8.11963e-09
4.33296e-09
-6.97987e-08
-7.86041e-09
6.15283e-09
-7.01463e-08
-7.37038e-09
7.3897e-09
-6.99972e-08
-6.65973e-09
8.13696e-09
-6.97806e-08
-5.87663e-09
8.36246e-09
-6.94483e-08
-5.08879e-09
8.07494e-09
-6.86929e-08
-4.29903e-09
7.36599e-09
-6.73654e-08
-3.6177e-09
6.36146e-09
-6.53581e-08
-3.05115e-09
5.17226e-09
-6.25487e-08
-2.56644e-09
3.91248e-09
-5.86594e-08
-2.13472e-09
2.65358e-09
-5.318e-08
-1.75693e-09
1.49041e-09
-4.54683e-08
-1.39692e-09
5.32624e-10
-3.42031e-08
-9.82736e-10
-1.6539e-08
-4.74603e-10
-6.69653e-10
-1.5212e-08
-6.65004e-10
-1.91207e-09
-3.13862e-08
-1.43068e-09
-3.46631e-09
-4.17613e-08
-1.99551e-09
-5.16254e-09
-4.88806e-08
-2.46334e-09
-6.86627e-09
-5.38862e-08
-2.94068e-09
-8.44462e-09
-5.74155e-08
-3.49808e-09
-9.75865e-09
-5.98739e-08
-4.16875e-09
-1.06465e-08
-6.15012e-08
-4.95872e-09
-1.10092e-08
-6.2514e-08
-5.84132e-09
-1.07517e-08
-6.30521e-08
-6.75559e-09
-9.78424e-09
-6.32201e-08
-7.66467e-09
-8.05256e-09
-6.30759e-08
-8.5951e-09
-5.71914e-09
-6.27575e-08
-9.47568e-09
-2.99527e-09
-6.25216e-08
-1.01207e-08
-2.11104e-11
-6.25375e-08
-1.04628e-08
2.94642e-09
-6.23457e-08
-1.03773e-08
5.69811e-09
-6.24958e-08
-1.00547e-08
8.06883e-09
-6.30322e-08
-9.48489e-09
9.7709e-09
-6.31485e-08
-8.55085e-09
1.075e-08
-6.32029e-08
-7.55681e-09
1.10337e-08
-6.30562e-08
-6.67577e-09
1.06881e-08
-6.2548e-08
-5.79933e-09
9.79875e-09
-6.15474e-08
-4.92873e-09
8.49869e-09
-5.99157e-08
-4.14242e-09
6.92326e-09
-5.74912e-08
-3.48211e-09
5.22901e-09
-5.40565e-08
-2.90871e-09
3.55096e-09
-4.91563e-08
-2.34568e-09
1.98606e-09
-4.20883e-08
-1.81505e-09
7.01999e-10
-3.16373e-08
-1.28177e-09
-1.52085e-08
-6.2856e-10
-8.00618e-10
-1.36188e-08
-7.92535e-10
-2.27939e-09
-2.82112e-08
-1.69626e-09
-4.14953e-09
-3.75211e-08
-2.37007e-09
-6.21282e-09
-4.38816e-08
-2.93578e-09
-8.27159e-09
-4.83154e-08
-3.51211e-09
-1.01498e-08
-5.13735e-08
-4.1639e-09
-1.16868e-08
-5.34069e-08
-4.93002e-09
-1.27151e-08
-5.46542e-08
-5.81876e-09
-1.30998e-08
-5.53069e-08
-6.82255e-09
-1.27387e-08
-5.55147e-08
-7.89857e-09
-1.15808e-08
-5.54093e-08
-8.9687e-09
-9.59157e-09
-5.51075e-08
-9.95771e-09
-6.80152e-09
-5.46778e-08
-1.08698e-08
-3.53006e-09
-5.41945e-08
-1.15986e-08
-1.56779e-11
-5.40365e-08
-1.20154e-08
3.48664e-09
-5.38996e-08
-1.19485e-08
6.74907e-09
-5.41669e-08
-1.15914e-08
9.53705e-09
-5.48421e-08
-1.09782e-08
1.15533e-08
-5.51572e-08
-1.00076e-08
1.27406e-08
-5.54332e-08
-8.95704e-09
1.31147e-08
-5.55425e-08
-7.88787e-09
1.27362e-08
-5.5345e-08
-6.82457e-09
1.17115e-08
-5.46996e-08
-5.82308e-09
1.01821e-08
-5.34551e-08
-4.93133e-09
8.29884e-09
-5.14312e-08
-4.17683e-09
6.22501e-09
-4.84188e-08
-3.56397e-09
4.16362e-09
-4.40762e-08
-3.01875e-09
2.30344e-09
-3.77808e-08
-2.4474e-09
8.06961e-10
-2.84049e-08
-1.73603e-09
-1.36103e-08
-7.9127e-10
-8.89254e-10
-1.18276e-08
-9.02052e-10
-2.57134e-09
-2.45846e-08
-1.94452e-09
-4.67711e-09
-3.27395e-08
-2.67595e-09
-6.97769e-09
-3.82926e-08
-3.28848e-09
-9.2675e-09
-4.21198e-08
-3.90587e-09
-1.13522e-08
-4.46868e-08
-4.60198e-09
-1.30438e-08
-4.63026e-08
-5.41271e-09
-1.41652e-08
-4.71847e-08
-6.34826e-09
-1.45646e-08
-4.75061e-08
-7.40141e-09
-1.41293e-08
-4.74157e-08
-8.5344e-09
-1.27992e-08
-4.70565e-08
-9.68304e-09
-1.05763e-08
-4.65701e-08
-1.07605e-08
-7.51133e-09
-4.60534e-08
-1.16894e-08
-3.87152e-09
-4.54727e-08
-1.23618e-08
-1.06069e-11
-4.51325e-08
-1.2765e-08
3.85887e-09
-4.50455e-08
-1.27237e-08
7.48827e-09
-4.54148e-08
-1.23816e-08
1.05389e-08
-4.6107e-08
-1.17858e-08
1.27783e-08
-4.65932e-08
-1.08035e-08
1.4123e-08
-4.70802e-08
-9.6978e-09
1.45697e-08
-4.74432e-08
-8.54614e-09
1.41774e-08
-4.75396e-08
-7.41314e-09
1.30609e-08
-4.72241e-08
-6.35912e-09
1.13736e-08
-4.63475e-08
-5.42036e-09
9.2894e-09
-4.47363e-08
-4.61068e-09
6.9844e-09
-4.21807e-08
-3.93315e-09
4.65889e-09
-3.83925e-08
-3.35818e-09
2.54745e-09
-3.28917e-08
-2.77767e-09
8.83854e-10
-2.47299e-08
-2.01139e-09
-1.18208e-08
-9.05622e-10
-9.30061e-10
-9.92724e-09
-9.70308e-10
-2.73895e-09
-2.06847e-08
-2.0911e-09
-4.98918e-09
-2.76437e-08
-2.84563e-09
-7.43381e-09
-3.23652e-08
-3.4829e-09
-9.86467e-09
-3.55677e-08
-4.12134e-09
-1.20715e-08
-3.76495e-08
-4.83066e-09
-1.3854e-08
-3.88726e-08
-5.64761e-09
-1.50248e-08
-3.94293e-08
-6.58458e-09
-1.54232e-08
-3.94777e-08
-7.63008e-09
-1.49323e-08
-3.916e-08
-8.74681e-09
-1.34938e-08
-3.86132e-08
-9.88181e-09
-1.11103e-08
-3.79823e-08
-1.09713e-08
-7.9017e-09
-3.73513e-08
-1.19109e-08
-4.06759e-09
-3.67598e-08
-1.25471e-08
-5.7429e-12
-3.63427e-08
-1.28517e-08
4.06908e-09
-3.63073e-08
-1.28131e-08
7.8877e-09
-3.67241e-08
-1.25094e-08
1.10848e-08
-3.73835e-08
-1.19207e-08
1.34722e-08
-3.79999e-08
-1.09807e-08
1.49209e-08
-3.8632e-08
-9.89693e-09
1.54218e-08
-3.9182e-08
-8.7622e-09
1.50316e-08
-3.95056e-08
-7.64395e-09
1.38671e-08
-3.94624e-08
-6.59723e-09
1.20872e-08
-3.89103e-08
-5.65734e-09
9.88144e-09
-3.76915e-08
-4.83916e-09
7.44732e-09
-3.56143e-08
-4.13237e-09
4.9872e-09
-3.24231e-08
-3.50934e-09
2.7296e-09
-2.77385e-08
-2.8957e-09
9.38317e-10
-2.08147e-08
-2.12394e-09
-9.91637e-09
-9.66166e-10
-9.59916e-10
-7.98004e-09
-9.87335e-10
-2.80391e-09
-1.67271e-08
-2.1137e-09
-5.09905e-09
-2.24549e-08
-2.8937e-09
-7.59939e-09
-2.6325e-08
-3.53989e-09
-1.0086e-08
-2.89089e-08
-4.1723e-09
-1.23408e-08
-3.05295e-08
-4.86511e-09
-1.41556e-08
-3.14018e-08
-5.65611e-09
-1.53374e-08
-3.16914e-08
-6.55625e-09
-1.57234e-08
-3.15395e-08
-7.55225e-09
-1.51997e-08
-3.10729e-08
-8.61083e-09
-1.37027e-08
-3.04238e-08
-9.6865e-09
-1.12511e-08
-2.97118e-08
-1.07222e-08
-8.02631e-09
-2.90033e-08
-1.15729e-08
-4.18732e-09
-2.8445e-08
-1.21539e-08
-3.32243e-11
-2.80818e-08
-1.24151e-08
4.10152e-09
-2.80431e-08
-1.2399e-08
7.92565e-09
-2.84005e-08
-1.21479e-08
1.12017e-08
-2.90431e-08
-1.16165e-08
1.36795e-08
-2.97281e-08
-1.07496e-08
1.51848e-08
-3.04344e-08
-9.70302e-09
1.57183e-08
-3.10887e-08
-8.62682e-09
1.53395e-08
-3.15602e-08
-7.56672e-09
1.41635e-08
-3.17176e-08
-6.5689e-09
1.23521e-08
-3.14315e-08
-5.6674e-09
1.00984e-08
-3.05623e-08
-4.87553e-09
7.61096e-09
-2.8945e-08
-4.18194e-09
5.10556e-09
-2.63648e-08
-3.55302e-09
2.79862e-09
-2.25074e-08
-2.9242e-09
9.51008e-10
-1.68087e-08
-2.15851e-09
-7.97516e-09
-9.9023e-10
-9.51975e-10
-6.06234e-09
-9.65789e-10
-2.75851e-09
-1.28558e-08
-2.06482e-09
-5.01998e-09
-1.73578e-08
-2.83573e-09
-7.49332e-09
-2.03908e-08
-3.46094e-09
-9.95822e-09
-2.23801e-08
-4.06399e-09
-1.21961e-08
-2.35739e-08
-4.7177e-09
-1.39941e-08
-2.41459e-08
-5.45802e-09
-1.51592e-08
-2.42318e-08
-6.29457e-09
-1.55319e-08
-2.39503e-08
-7.21662e-09
-1.49971e-08
-2.34156e-08
-8.19212e-09
-1.35011e-08
-2.27393e-08
-9.18055e-09
-1.10894e-08
-2.20167e-08
-1.0107e-08
-7.91558e-09
-2.13315e-08
-1.08457e-08
-4.15012e-09
-2.08213e-08
-1.13892e-08
-3.8078e-11
-2.05378e-08
-1.16562e-08
4.04935e-09
-2.0495e-08
-1.16356e-08
7.82003e-09
-2.07867e-08
-1.13845e-08
1.10371e-08
-2.13654e-08
-1.08949e-08
1.34766e-08
-2.20332e-08
-1.01345e-08
1.49796e-08
-2.27452e-08
-9.19224e-09
1.55215e-08
-2.34252e-08
-8.20548e-09
1.5158e-08
-2.39657e-08
-7.23119e-09
1.39985e-08
-2.42501e-08
-6.30811e-09
1.22037e-08
-2.41677e-08
-5.46911e-09
9.96788e-09
-2.35988e-08
-4.72765e-09
7.50365e-09
-2.24073e-08
-4.07349e-09
5.02749e-09
-2.04185e-08
-3.47021e-09
2.75943e-09
-1.739e-08
-2.84936e-09
9.41485e-10
-1.28998e-08
-2.09097e-09
-6.06575e-09
-9.67958e-10
-8.99402e-10
-4.25827e-09
-9.04725e-10
-2.60787e-09
-9.2106e-09
-1.9368e-09
-4.75978e-09
-1.25457e-08
-2.66025e-09
-7.12926e-09
-1.47817e-08
-3.2397e-09
-9.50417e-09
-1.62132e-08
-3.79201e-09
-1.16692e-08
-1.70229e-08
-4.38599e-09
-1.3412e-08
-1.73449e-08
-5.0582e-09
-1.4543e-08
-1.72858e-08
-5.81508e-09
-1.49043e-08
-1.69428e-08
-6.6463e-09
-1.43855e-08
-1.64074e-08
-7.52702e-09
-1.29349e-08
-1.57671e-08
-8.42299e-09
-1.06267e-08
-1.51e-08
-9.22503e-09
-7.5788e-09
-1.45035e-08
-9.87595e-09
-3.9692e-09
-1.40635e-08
-1.03674e-08
-3.35443e-11
-1.38375e-08
-1.0636e-08
3.88071e-09
-1.38027e-08
-1.06067e-08
7.4974e-09
-1.40413e-08
-1.03622e-08
1.0578e-08
-1.4524e-08
-9.92206e-09
1.29103e-08
-1.51128e-08
-9.25281e-09
1.43661e-08
-1.57732e-08
-8.42783e-09
1.48921e-08
-1.64133e-08
-7.5381e-09
1.45387e-08
-1.69522e-08
-6.66018e-09
1.34144e-08
-1.7298e-08
-5.82785e-09
1.1675e-08
-1.73594e-08
-5.06903e-09
9.51201e-09
-1.70402e-08
-4.39572e-09
7.13595e-09
-1.62312e-08
-3.80009e-09
4.76525e-09
-1.48004e-08
-3.24737e-09
2.61156e-09
-1.25679e-08
-2.66851e-09
8.97629e-10
-9.23732e-09
-1.94863e-09
-4.26219e-09
-9.05962e-10
-8.02224e-10
-2.65272e-09
-8.03389e-10
-2.34289e-09
-5.94469e-09
-1.72531e-09
-4.31477e-09
-8.21184e-09
-2.36202e-09
-6.51162e-09
-9.72109e-09
-2.86375e-09
-8.73555e-09
-1.06484e-08
-3.34089e-09
-1.07794e-08
-1.11237e-08
-3.85539e-09
-1.24346e-08
-1.12479e-08
-4.44196e-09
-1.3516e-08
-1.10994e-08
-5.10507e-09
-1.38722e-08
-1.07505e-08
-5.83614e-09
-1.33972e-08
-1.02692e-08
-6.61329e-09
-1.20494e-08
-9.71831e-09
-7.39668e-09
-9.90089e-09
-9.16866e-09
-8.0799e-09
-7.05626e-09
-8.68799e-09
-8.66024e-09
-3.68961e-09
-8.33421e-09
-9.09607e-09
-2.88308e-11
-8.1529e-09
-9.34548e-09
3.61439e-09
-8.13236e-09
-9.31366e-09
6.98197e-09
-8.32119e-09
-9.08779e-09
9.84647e-09
-8.69455e-09
-8.69408e-09
1.20179e-08
-9.17381e-09
-8.11049e-09
1.33769e-08
-9.72235e-09
-7.41e-09
1.38591e-08
-1.02726e-08
-6.62292e-09
1.35105e-08
-1.07556e-08
-5.84807e-09
1.24349e-08
-1.11062e-08
-5.11626e-09
1.07829e-08
-1.12565e-08
-4.45096e-09
8.74058e-09
-1.11337e-08
-3.86428e-09
6.51635e-09
-1.06594e-08
-3.34769e-09
4.31995e-09
-9.73449e-09
-2.86963e-09
2.34918e-09
-8.23108e-09
-2.36611e-09
8.04303e-10
-5.96441e-09
-1.72809e-09
-2.65529e-09
-8.02634e-10
-6.56556e-10
-1.34059e-09
-6.55621e-10
-1.95999e-09
-3.23192e-09
-1.40939e-09
-3.67753e-09
-4.57964e-09