/*--------------------------------*- C++ -*----------------------------------*\
| =========                 |                                                 |
| \\      /  F ield         | OpenFOAM: The Open Source CFD Toolbox           |
|  \\    /   O peration     | Version:  v1906                                 |
|   \\  /    A nd           | Web:      www.OpenFOAM.com                      |
|    \\/     M anipulation  |                                                 |
\*---------------------------------------------------------------------------*/
FoamFile
{
    version     2.0;
    format      ascii;
    class       volScalarField;
    location    "0.54/oil";
    object      heatTransferCoeff(T);
}
// * * * * * * * * * * * * * * * * * * * * * * * * * * * * * * * * * * * * * //

dimensions      [1 0 -3 -1 0 0 0];


internalField   uniform 0;

boundaryField
{
    maxY
    {
        type            calculated;
        value           uniform 0;
    }
    minX
    {
        type            calculated;
        value           uniform 0;
    }
    maxX
    {
        type            calculated;
        value           uniform 0;
    }
    minY
    {
        type            calculated;
        value           uniform 0;
    }
    minZ
    {
        type            calculated;
        value           uniform 0;
    }
    maxZ
    {
        type            calculated;
        value           uniform 0;
    }
    oil_to_sphere
    {
        type            calculated;
        value           nonuniform List<scalar> 
1536
(
-2976.72
-2744.5
-2690.39
-3120.42
-3169.12
-3029.71
-2893.73
-2827.62
-2553.75
-2572.38
-3178.72
-2581.22
-2749.72
-2598.81
-3304.05
-3257.48
-2838.28
-2533.58
-1375.06
-2725.96
-2655.35
-3099.38
-2866.05
-3271.31
-3347.75
-3338.79
-3338.59
-3284.68
-2683.3
-2874.86
-2644.62
-2578.91
-2619.17
-3343.18
-3259.89
-3227.72
-3154.08
-3287.12
-3271.16
-3288.93
-3290.07
-3253.34
-2867.4
-2705.65
-2803.02
-2668.47
-2844.76
-2896.7
-3387.15
-2906.75
-3097.78
-2844.22
-2841.2
-2836.5
-2559.32
-2424.13
-3010.48
-2911.08
-2509.22
-2263.12
-2171.24
-2270.93
-2178.09
-1435.38
-1463.6
-2660.4
-2810.71
-2561.11
-3053.08
-2786.83
-3359.42
-3132.22
-3188.62
-3310.23
-3273.04
-2640.25
-2335.37
-2860.91
-3259.6
-2471.75
-2274.54
-2167.85
-2170.49
-2180.32
-2052.77
-2212.78
-2127.59
-2799.32
-2568.13
-2268.27
-2137.87
-1324.31
-1354.76
-1439.5
-1466.9
-2675.08
-2815.63
-2458.08
-2612.32
-3008.45
-2819.35
-3357.13
-2819.16
-2751.9
-3069.63
-3317.13
-3282.13
-2910.1
-2999.74
-2580.89
-2449.2
-2627.78
-2274.39
-2222.99
-2172.15
-2134.45
-2164.83
-2095.71
-2124.44
-2131.67
-2440.4
-2141.16
-1336.12
-2646.37
-2984.51
-2868.52
-3051.05
-2744.96
-2930.03
-3136.15
-2842.21
-3116.46
-2873.1
-3115.51
-2862.29
-3136.74
-2846.43
-2467.7
-2826.06
-2954.12
-2248.84
-2182.33
-2845.92
-2461.61
-2127.53
-2498.45
-3055.96
-2391.55
-2179.41
-3081.07
-3175.32
-2349.85
-3088.71
-3060.82
-3057.2
-2132.37
-2954.37
-2088.04
-3036.17
-2232.26
-2919.49
-2300.59
-3328.73
-3307.86
-3233.27
-3148.02
-3088.43
-2037.92
-2875.3
-2122.14
-2707.46
-2671.13
-2612.36
-2504.47
-2448.11
-2267.82
-2950.77
-2365.89
-2438.89
-2973.97
-3333.33
-3292.06
-3188.54
-3276.28
-2165.37
-2819.33
-2123.86
-2701.13
-2708.14
-2795.89
-2837.51
-3109.75
-2499.2
-2952.7
-3308.2
-3045.38
-2654.8
-2889.97
-2324.89
-3013.46
-2931.95
-3030.77
-2652.19
-2287.16
-2412.42
-2447.33
-2449.52
-2456.55
-2631.42
-2173.93
-2753.1
-2487.19
-2540.98
-2353.83
-2779.59
-2688.66
-2367.19
-2554.55
-2687.71
-2281.74
-2510.56
-2850.14
-2726.57
-2537.68
-2492.81
-2495.82
-3182.52
-2466.65
-3164.16
-3429.46
-3261.25
-2992.76
-3133.68
-2269.84
-2259.73
-2753.62
-2340.66
-2344.56
-2278.13
-2583.1
-2524.94
-1579.63
-1967.31
-2681.21
-2336.71
-2860.92
-2815.76
-2554.4
-2769.7
-2283.75
-2800.05
-3392.02
-3022.58
-3127.42
-2361.99
-3169.47
-3207.44
-2762.2
-2500.1
-2475.81
-2649.8
-2104.33
-2470.23
-1969.88
-1563.99
-1730.83
-1753.78
-1644.51
-2810.91
-2542.14
-2761.56
-2596.74
-2583.97
-2842.34
-2760.46
-2651.14
-2708.04
-2329.75
-2788.98
-2461.23
-3076.39
-2986.67
-2741.33
-2558.47
-2820.03
-2903.35
-2828.37
-3070.84
-2846.31
-2649.2
-2989.9
-2150.63
-2923.78
-2359.07
-2435.79
-2508.56
-2490.91
-2323.16
-2531.93
-2574.95
-2854.07
-2753.26
-2550.65
-2417.09
-2348.97
-2981.96
-2159.36
-3263.4
-3192.77
-2049.51
-2744.08
-2058.62
-2789.59
-2762.81
-2752.33
-2647.03
-2874.44
-2856.46
-2951.96
-2483.83
-2809.3
-2671.2
-2645.13
-3050.56
-2884.03
-2641.5
-2777.4
-2508.89
-2867.56
-2572.1
-2544.12
-2401.75
-2998.9
-2726.55
-2591
-2936.08
-2533.63
-2807.86
-2892.04
-2488
-2246.45
-2780.88
-2576.74
-2682.15
-2629.76
-2633.03
-2696.4
-2662.88
-2610.11
-2857.49
-2928.35
-3036.14
-2692.83
-3030.59
-2580.64
-2860.63
-2800.69
-2690.57
-3140.23
-2605.42
-3051.08
-2875.22
-2668.15
-3133.47
-2778.63
-2800.29
-3083.58
-2975.82
-3050.54
-2808.02
-2551.86
-3140.33
-2899.33
-2747.63
-3164.6
-2724.67
-2949.38
-2999.32
-2737.59
-2116.39
-2915.61
-2352.15
-2754.79
-2427.14
-2534.77
-3029.92
-2761.6
-2153.71
-2853.38
-2535.43
-2642.37
-2478.82
-2314.45
-2547.96
-2468.76
-2305.15
-2850.26
-2203.72
-2769.08
-2466.38
-3033.91
-2772.65
-2037.33
-2972.25
-2745.9
-2461.4
-2858.36
-2346.13
-2690.54
-2520.4
-2435.59
-2438.42
-2477.3
-2555.82
-2470.79
-2387.95
-2485.61
-2473.02
-2739.52
-2546.11
-2499.46
-2557.65
-2356.52
-2160.24
-2594.32
-2338.01
-2280.96
-2464.33
-2078.26
-2273.37
-2619.7
-2339.14
-2441.51
-2403.04
-2441.31
-2379.33
-2470.5
-2040.77
-1910.91
-2203.25
-2184.74
-2478.14
-2362.57
-2237.43
-2262.12
-2603.46
-2475.47
-2658.03
-2763.03
-2497.83
-2661.86
-2565.85
-2377.63
-2250.68
-2135.4
-2088.89
-2321.68
-1920.32
-1952.16
-2283.65
-1925.07
-1980.48
-1943.61
-2283.24
-2499.34
-2835.97
-2737.32
-2533.01
-2602.3
-2893.93
-2772.45
-2702.37
-2873.75
-2484.26
-2964.19
-2698.52
-2916.99
-2575.63
-3008.42
-2699.24
-2514.04
-2853.57
-2857.44
-2552.04
-2832.22
-2982.21
-2687.4
-2830.38
-2230.1
-2978.79
-2211.52
-2987.55
-3296.2
-3347.48
-3380.78
-3443.18
-3119.16
-3109.43
-3252.29
-3291.23
-3021.55
-2169.39
-3286.18
-3156.18
-2117.24
-2141.02
-2809
-3172.77
-3212.51
-2200.97
-2923.67
-3175.5
-3211.47
-3160.52
-2911.78
-2415.99
-2207.29
-2485.47
-2330.88
-2193.84
-2785.08
-2539.7
-2273.97
-2513.67
-2499.66
-1995.85
-2281.39
-2283.8
-1922.75
-2262.53
-1971.33
-2354.29
-1934.68
-2423.77
-2218.53
-2286.92
-2347.1
-2596.71
-2451.1
-2343.73
-2096.22
-2520.4
-2398.85
-2157.1
-2729.25
-2567.56
-2383.98
-2675.78
-2499.09
-2466
-2415.68
-2004.92
-2275.9
-2469.67
-1644.49
-1964.22
-1686.68
-1937.18
-1671.67
-1673.59
-1704.91
-1724.17
-1926.8
-2329.57
-1927.47
-1965.18
-1952.38
-1909.31
-2346.62
-1917.43
-1957
-1991.78
-2038.35
-2270.58
-2136.02
-2246.77
-1895.47
-2884.03
-2504.44
-2328.76
-3002.39
-2626.68
-2359.4
-2939.18
-2448.7
-2619.12
-2580.47
-2510.35
-2940.03
-2586.16
-2822.1
-2718.57
-2582.36
-2591.24
-2370.56
-2460.52
-2946.52
-2814.25
-2327.79
-2862.37
-2889.21
-2502.63
-2669.15
-2476.05
-2916.3
-2987.37
-2543.15
-2819.35
-2533.39
-2616.91
-3032.15
-2202.5
-3326.61
-3326.19
-2232.42
-2386.26
-2975.71
-3297.98
-3337.98
-2738.21
-3122.63
-3356.33
-3295.38
-3278.74
-3103.9
-3150.37
-3270.62
-2216.41
-2335.3
-2829.97
-2168.75
-3030.24
-2142.18
-2143.36
-2377.64
-3162.64
-3229.66
-3107.79
-2300.7
-3176.49
-2366.14
-2982.16
-2887.71
-2162.55
-3093.88
-2104.26
-2467.22
-2095.93
-1806.33
-2322.58
-2650.17
-2316.36
-2370.68
-2311.21
-2358.55
-2382.96
-2494.78
-2131.18
-2474.6
-2262.2
-2207.36
-2297.19
-2346.24
-1895.8
-2259.42
-2278.34
-1970.77
-2287.17
-2265.49
-1917.26
-2001.25
-2436.97
-2372.77
-2007.03
-2200.46
-2800.31
-2490.59
-2325.1
-2155.69
-2520.51
-2474.19
-2401.46
-2060.33
-1829.27
-2468.63
-2621.6
-2646.59
-2698.37
-2257.88
-2402.61
-2218.31
-2449.54
-2466.07
-2116.56
-2380.59
-2093.06
-2151.61
-1722.2
-1707.38
-1617.41
-1629.32
-1917.73
-1904.21
-1560.09
-1586.42
-1985.04
-2657.01
-2774.69
-2760.4
-2769.19
-2796.43
-2749.25
-2776.06
-2853.38
-2760.81
-2563.79
-2753.99
-2707.53
-2558.24
-2909.71
-2835.48
-2751.84
-2803.79
-2905.93
-2946.66
-2934.57
-2479.6
-2605.68
-2577.29
-2752.67
-2629.26
-2650.16
-2393.48
-2890.61
-3004.6
-2627.12
-2750.21
-2638.68
-2940.29
-2833.77
-2763.31
-2718.27
-2913.27
-2763.57
-2753.01
-2919.74
-2723.05
-2790.15
-3191.41
-2997.21
-2736.34
-3003.8
-2683.91
-2928.99
-2965.24
-2694.03
-2778.93
-3007.79
-3141.47
-2573.66
-3020.73
-2829.37
-2678.76
-3119.4
-3000.23
-2785.63
-3021.32
-3008.02
-2637.56
-2523.57
-3114.77
-2976.89
-2609.1
-3060.34
-3155.49
-3003.6
-2970.36
-2933.12
-2267.14
-2759.33
-2416.52
-2608.69
-2508.29
-2663.67
-2154.25
-2950.66
-3034.17
-2178.07
-2852.49
-2793.88
-2605.26
-2563.2
-2368.4
-2971.98
-2958.54
-2660.38
-2180.31
-2975.43
-2592.08
-2665.97
-2821.19
-2313.09
-2828.26
-2461.23
-2481.29
-2602.59
-2201.62
-3029.97
-2830.97
-2894.11
-2472.31
-2553.6
-2337.38
-2818.7
-2812.01
-2511.33
-2584.48
-2451.62
-2468.82
-2480.65
-2638.3
-2473.29
-2634.48
-2181
-2486.72
-2404.17
-2326.88
-2453.88
-2407.61
-2086.07
-2224.73
-2461.42
-2253.98
-2598.21
-2527.21
-2393.74
-2359.78
-2657.02
-2791.49
-2541.81
-2490.8
-2543.41
-2457.98
-2439.32
-2458.22
-2077.95
-1902.47
-2510.52
-2051.23
-2425.09
-2456.68
-2234.24
-2214.6
-2472.52
-2170.67
-2727.54
-2523.96
-2480.57
-2446.62
-2459.52
-2223.32
-2640.7
-2415.99
-2782.5
-3077.14
-2618.7
-2783.21
-2343.59
-2743.85
-2343.55
-2440.99
-2919.81
-3157.11
-2447.87
-2365.13
-2822.99
-2999.78
-2681.11
-2896.54
-2189.95
-1650.45
-3175.71
-2695.82
-2872.2
-2134.9
-1640.15
-2255.37
-2916.52
-3173.74
-3114.5
-2281.41
-2896.11
-3078.94
-2833.36
-3125.73
-2560.33
-3045.36
-2813.37
-2613.96
-2877.85
-3070.46
-2772.35
-2845.66
-3005.75
-2841.05
-2972.86
-2849.65
-2973.91
-2402.2
-2606.41
-3311.02
-2442
-3199.03
-2585.96
-3030.29
-2740.85
-2920.06
-2571.46
-2702.04
-3202.9
-2696.46
-3187.17
-2569.43
-2654.25
-3131.28
-2350.08
-3174.53
-3326.51
-3293.06
-2996.81
-3073.58
-3137.2
-3083.78
-3126.28
-2575.75
-2595.82
-3094.87
-2397.19
-2844.05
-2741.76
-2723.61
-2991.4
-2918.12
-3034.72
-2545.31
-2891.55
-3089.95
-3038.08
-3215.56
-2811.77
-3095.17
-3129.08
-2507.45
-2896.67
-2935.83
-2886.37
-2594.39
-2907.81
-2548.68
-2828.74
-2040.68
-2488.54
-2716.88
-2574.04
-2236.48
-2592.52
-2231.89
-2167.63
-2613.87
-2623.15
-2226.4
-2756.52
-3068.11
-3002.22
-3176.47
-2792.25
-3012.84
-3260
-2534.64
-3304.48
-2533.79
-2762.24
-2697.61
-2503.38
-3094.99
-2233.74
-2384
-2942.3
-2242.61
-2623.45
-2886.85
-2586.38
-2318.85
-1912.9
-1827.32
-2818.11
-2517.24
-1681.91
-1666.74
-1862.28
-2790.53
-2160.84
-2651.58
-2118.34
-2625.47
-2231.95
-2663.31
-2178.1
-2587.22
-3042.47
-2921.09
-3131.02
-2362.95
-2299.75
-2759.19
-2857.99
-2742.78
-3033.36
-2480.59
-3242.1
-2551.97
-2608.63
-3137.82
-2471.35
-2758.11
-3153.23
-2240.27
-3190.11
-2507.52
-2508.88
-2234.66
-2883.56
-2584.13
-2798.65
-2960.97
-2573.33
-1972.71
-2335.92
-1916.33
-2810.84
-2458.84
-1714.09
-1886.79
-1686.6
-2726.98
-2642.94
-3072.96
-2885.81
-3005.47
-3074.72
-2716.15
-3056.22
-3109.44
-3095.47
-2987.19
-2652.44
-2867.86
-2950.35
-2876.77
-2517.31
-2705.61
-2512.59
-2798.83
-3285.3
-3300.04
-3419.27
-2854.27
-2695.4
-3322.2
-3321.39
-2218.42
-3016.14
-3053.92
-2484.33
-3284.31
-3347.14
-2337.27
-3004.61
-2973
-2525.07
-3353.06
-3312.04
-3322.35
-2337.52
-3026.4
-3063.47
-2525.52
-3357.97
-2988.27
-2492.29
-3204.9
-2872.03
-2341.92
-3194.56
-3170.54
-3112.3
-3028.43
-3305.35
-3298.93
-3327.86
-3409.71
-2173.11
-3078.67
-3417.38
-2405.08
-2947.81
-3134.82
-3165.91
-2875.44
-2682.31
-3244.61
-2811.75
-2429.14
-3153.81
-3176.94
-3186.96
-2971.99
-3348.66
-2345.35
-3015.03
-3397.72
-2358.49
-2813.27
-3148.06
-3052.03
-3095.7
-3060.84
-3189.91
-3231.24
-3017.61
-2794.14
-2768.83
-2814.21
-2761.65
-3055
-2356.48
-2887.63
-2848.83
-2960.22
-2947.82
-2959.81
-2924.26
-2671.94
-2370.45
-2274.09
-2496.05
-2612.32
-2494.47
-2504.73
-2562.3
-2673.38
-2321.38
-2296.92
-2835.42
-3325.33
-3300.52
-3150.07
-2221.7
-2155.45
-2933.35
-2550.56
-3251.92
-2878.03
-2213.42
-2235.72
-2510.78
-2329.85
-2296.91
-2251.18
-2292.36
-1909.62
-1603.31
-2757.53
-2795.12
-2750.86
-2825.5
-2797.16
-2892.55
-2460.61
-3378
-3191.17
-2629.58
-2755.57
-2262.93
-1923.65
-1606.03
-1971.34
-2259.79
-2736.99
-2296.11
-2351.76
-2782.31
-2736.11
-2643.5
-2673.51
-2865.28
-2766.41
-3148.27
-2434.12
-2308.91
-2921.15
-2951.69
-2963.14
-2438.96
-2339.93
-2640.49
-2538.02
-2568.36
-2331.7
-2249.53
-3014.27
-2663.93
-2919.84
-2961.26
-3100.65
-3041.35
-2965.91
-2307.35
-3088.19
-3102.07
-3036.92
-3254.16
-3260.86
-3013.08
-2504.22
-2730.36
-2792.25
-2787.7
-2683.9
-2669.11
-2754.37
-2616.34
-2413.15
-2739.58
-2647.2
-2645.05
-2675.96
-2688.37
-2712.61
-2748.74
-2757.36
-2824.83
-2734.04
-2907.73
-2321.95
-2748.5
-2898.31
-2712.83
-2331.1
-2769.06
-2776.07
-2904.84
-2905.86
-2765.76
-2778.61
-2715.9
-2411.09
-2716.32
-2763.78
-2927.86
-2851.06
-2687.41
-2512.85
-2629.35
-2660.06
-2947.62
-3080.47
-2445.39
-2759.65
-3037.82
-3047.62
-3031.83
-2956.85
-2995.48
-3173.88
-2418.55
-2888.8
-3027.64
-2974.75
-3018.73
-2976.91
-2990.22
-2528.27
-2586.39
-2981.31
-2881.86
-2942.05
-2840.07
-2523.35
-2658.73
-2969.05
-3069.53
-2402.04
-2678.69
-2816.32
-2824.92
-2870.9
-2680.86
-2932.43
-2885.03
-2550.61
-2624.73
-2720.27
-2482.8
-2475.91
-2253.82
-2222.37
-2610.36
-2389.01
-2407.29
-2402.83
-1827.73
-1857.61
-2374.02
-2708.78
-2431.55
-2436.51
-2441.87
-2379.53
-2332.15
-2056.54
-2417.27
-2365.46
-2130.9
-2793.88
-2679.77
-1993.88
-2415.4
-2654.62
-2015.26
-2325.75
-2266.49
-2008.69
-2784.36
-2878.61
-2248.2
-2631.73
-2264.35
-2229.73
-2320.15
-2732.88
-2686.65
-2966.51
-2794.9
-2373.03
-2737.9
-3083.82
-2416.67
-2726.43
-2794.55
-2805.59
-2744.29
-2852.67
-2803.94
-2873.78
-2882.97
-2397.5
-2610.84
-2794.46
-2733.76
-2784.12
-2889.6
-3426.13
-2145.15
-3173.57
-3377.57
-2312.68
-3128.32
-3138.14
-2983.74
-2549.96
-3015.77
-2366.63
-3325.54
-2304.47
-2907.67
-2910.15
-3322.08
-3090.22
-3211.45
-3084.31
-2093.5
-3149.69
-2729.1
-2519.29
-2672.93
-2414.45
-1911.17
-1996.93
-2645.6
-2448.56
-2474.56
-2373.3
-2762.31
-2175.22
-2374.6
-1898.06
-2625.02
-2393.36
-1564.33
-1569.52
-1981.65
-1571.9
-1988.63
-1964.93
-1697.6
-2829.38
-1874.28
-2294.74
-2760.19
-2770.15
-2626.55
-2656.43
-2378.26
-2262.2
-2281.63
-2279.68
-2724.84
-2676.65
-2264.92
-2876.36
-2788.22
-2655.27
-3008.8
-2790.17
-2861.97
-2786.69
-2365.77
-2735.35
-3061.85
-2448.22
-2816.51
-2810.78
-2804.13
-2893.84
-2612.69
-2847.04
-2963.09
-2617.82
-2376.86
-3144.41
-3240.56
-3199.37
-3433.83
-3358.8
-2991.94
-3313.4
-2325.77
-2935.86
-2540.45
-3054.03
-3262.89
-2878.3
-3261.65
-3054.17
-2897.78
-2927.87
-3253.58
-2742.9
-2414.29
-2924.74
-2548.8
-2483.05
-2507.38
-2344.98
-2877.39
-2441.72
-2355.91
-1954.73
-2651.9
-2398.2
-2783.36
-2327.16
-1939.33
-1975.87
-1701.94
-2774.96
-2802.87
-2883.7
-2628.39
-2784.63
-2708.01
-2757.18
-2752.99
-2808.62
-2858.57
-3001.15
-2353.67
-2582.06
-2867.94
-2689.42
-2726.99
-2777.67
-2822.69
-2913.92
-2932.1
-2824.69
-2716.41
-2751.73
-3086.11
-3012.48
-3158.46
-2184.66
-2840.41
-3024.88
-2989.79
-3004.02
-3026.16
-2337.42
-2988.51
-3140.84
-2442.97
-3000.73
-3060.7
-2565.17
-2910.94
-2974.31
-2951.98
-2946.93
-2519.95
-2943.89
-2939.09
-2920.37
-2866.17
-2147.91
-2476.05
-2424.83
-1873.63
-2377.11
-2710.75
-2095.06
-2682.88
-2386.26
-2342.79
-2623.72
-2771.54
)
;
    }
}


// ************************************************************************* //
