/*--------------------------------*- C++ -*----------------------------------*\
| =========                 |                                                 |
| \\      /  F ield         | OpenFOAM: The Open Source CFD Toolbox           |
|  \\    /   O peration     | Version:  v1906                                 |
|   \\  /    A nd           | Web:      www.OpenFOAM.com                      |
|    \\/     M anipulation  |                                                 |
\*---------------------------------------------------------------------------*/
FoamFile
{
    version     2.0;
    format      ascii;
    class       volScalarField;
    location    "0.54/oil";
    object      nut;
}
// * * * * * * * * * * * * * * * * * * * * * * * * * * * * * * * * * * * * * //

dimensions      [0 2 -1 0 0 0 0];


internalField   nonuniform List<scalar> 
168664
(
2.26717e-06
2.45733e-07
2.50815e-07
7.07403e-08
6.08813e-08
3.04146e-08
2.07355e-08
1.61602e-08
1.06345e-08
1.13881e-08
9.86923e-09
1.17062e-08
1.07173e-08
1.08912e-08
9.72048e-09
9.608e-09
8.73451e-09
7.98404e-09
7.16771e-09
6.4242e-09
5.93573e-09
5.95566e-09
5.78987e-09
5.33192e-09
4.54213e-09
3.60246e-09
2.62292e-09
1.94265e-09
1.30077e-09
3.16322e-10
2.44935e-07
2.86862e-07
6.47054e-08
5.55431e-08
2.43445e-08
1.86391e-08
1.23079e-08
1.0474e-08
8.13168e-09
8.51911e-09
8.40471e-09
9.4376e-09
9.05951e-09
9.29013e-09
8.62247e-09
8.60409e-09
7.9083e-09
7.37919e-09
6.67105e-09
6.18023e-09
5.85941e-09
5.82769e-09
5.61613e-09
5.19331e-09
4.72514e-09
4.09852e-09
3.4851e-09
2.77568e-09
2.81046e-09
1.60627e-09
2.488e-07
6.46962e-08
5.87589e-08
3.80324e-08
2.85724e-08
2.07039e-08
1.54193e-08
1.22245e-08
1.00392e-08
9.35404e-09
9.04527e-09
9.26245e-09
8.74987e-09
8.97623e-09
8.38293e-09
8.2998e-09
7.66492e-09
7.19945e-09
6.53001e-09
6.11569e-09
5.96923e-09
5.99269e-09
5.90453e-09
5.59417e-09
5.17796e-09
4.67736e-09
4.21764e-09
3.90443e-09
4.5972e-09
3.65579e-09
7.33719e-08
5.7149e-08
3.96757e-08
2.97895e-08
2.11682e-08
1.62879e-08
1.34558e-08
1.1136e-08
1.01794e-08
9.32728e-09
9.1074e-09
8.86146e-09
8.68823e-09
8.89156e-09
8.36041e-09
8.12732e-09
7.51259e-09
7.05893e-09
6.48447e-09
6.14019e-09
5.97272e-09
6.01915e-09
6.10282e-09
5.91456e-09
5.46769e-09
4.94346e-09
4.59832e-09
4.83704e-09
5.74509e-09
5.12795e-09
6.22985e-08
2.72204e-08
2.99667e-08
2.13883e-08
1.98619e-08
1.64138e-08
1.44075e-08
1.26514e-08
1.14163e-08
1.05674e-08
9.89305e-09
9.37827e-09
9.08601e-09
9.14606e-09
8.51871e-09
8.1108e-09
7.49182e-09
7.07797e-09
6.72786e-09
6.67699e-09
6.50595e-09
6.54384e-09
6.58804e-09
6.49647e-09
6.14389e-09
5.73555e-09
5.54503e-09
6.02202e-09
7.05724e-09
6.86997e-09
3.82626e-08
2.52927e-08
2.59194e-08
1.93085e-08
1.84477e-08
1.44143e-08
1.36667e-08
1.15751e-08
1.1117e-08
1.0221e-08
9.90612e-09
9.20336e-09
8.85826e-09
8.97101e-09
8.43758e-09
7.80949e-09
7.2053e-09
6.72352e-09
6.6564e-09
6.82683e-09
6.66218e-09
6.57387e-09
6.51847e-09
6.47667e-09
6.23233e-09
6.12141e-09
6.13906e-09
6.81916e-09
7.87951e-09
8.01793e-09
2.80317e-08
1.92419e-08
1.98529e-08
1.60855e-08
1.59535e-08
1.36752e-08
1.30275e-08
1.16856e-08
1.10572e-08
1.04606e-08
1.00849e-08
9.51366e-09
9.22767e-09
9.56379e-09
8.93006e-09
8.00607e-09
7.20186e-09
6.64077e-09
6.57589e-09
6.77228e-09
6.60982e-09
6.58436e-09
6.60472e-09
6.69679e-09
6.69706e-09
6.87947e-09
7.17365e-09
7.97568e-09
9.05551e-09
9.58441e-09
2.72282e-08
2.01458e-08
2.01575e-08
1.6477e-08
1.6168e-08
1.33202e-08
1.28298e-08
1.09558e-08
1.04884e-08
9.63718e-09
9.57791e-09
9.25015e-09
9.49606e-09
1.00448e-08
9.51705e-09
8.32029e-09
7.49518e-09
6.74086e-09
6.52137e-09
6.38946e-09
6.16008e-09
6.15432e-09
6.28525e-09
6.58056e-09
6.90408e-09
7.42851e-09
7.96228e-09
8.82847e-09
9.85249e-09
1.06261e-08
2.16822e-08
1.72205e-08
1.68795e-08
1.47643e-08
1.42756e-08
1.24155e-08
1.17524e-08
1.03341e-08
9.7275e-09
9.06971e-09
9.1821e-09
9.50075e-09
1.00791e-08
1.06478e-08
1.00659e-08
8.86822e-09
7.83683e-09
6.89879e-09
6.44124e-09
6.12926e-09
5.86646e-09
6.04718e-09
6.36485e-09
6.93245e-09
7.55298e-09
8.28313e-09
9.02856e-09
9.8847e-09
1.07738e-08
1.17838e-08
2.30045e-08
1.83557e-08
1.79653e-08
1.57921e-08
1.49969e-08
1.27273e-08
1.18069e-08
9.9936e-09
9.22605e-09
8.36744e-09
8.71675e-09
9.26529e-09
9.90206e-09
1.00209e-08
9.64075e-09
8.78509e-09
7.71107e-09
6.73e-09
6.20906e-09
5.77836e-09
5.55039e-09
5.86001e-09
6.34607e-09
7.05269e-09
7.74273e-09
8.64938e-09
9.58563e-09
1.04039e-08
1.12155e-08
1.23684e-08
2.04021e-08
1.6804e-08
1.62142e-08
1.47233e-08
1.38441e-08
1.22286e-08
1.13137e-08
9.75341e-09
8.93471e-09
8.32318e-09
8.74133e-09
9.2779e-09
9.27804e-09
8.67032e-09
8.1041e-09
7.60082e-09
6.81602e-09
6.21011e-09
5.85578e-09
5.66571e-09
5.66522e-09
6.23573e-09
6.89913e-09
7.7473e-09
8.47855e-09
9.4906e-09
1.04835e-08
1.11589e-08
1.18793e-08
1.31516e-08
2.16476e-08
1.77571e-08
1.70402e-08
1.55394e-08
1.47602e-08
1.32978e-08
1.24134e-08
1.05794e-08
9.38371e-09
8.26547e-09
8.15516e-09
8.09516e-09
7.37369e-09
6.26174e-09
5.69188e-09
5.30596e-09
4.80528e-09
4.88987e-09
5.05303e-09
5.25425e-09
5.67469e-09
6.56736e-09
7.43634e-09
8.51334e-09
9.3354e-09
1.03176e-08
1.11389e-08
1.16415e-08
1.22863e-08
1.36496e-08
1.99421e-08
1.6877e-08
1.63231e-08
1.54202e-08
1.47617e-08
1.36642e-08
1.28378e-08
1.11121e-08
9.76313e-09
8.05754e-09
7.21929e-09
6.43614e-09
5.23939e-09
4.43725e-09
3.82323e-09
3.48134e-09
3.14231e-09
3.27112e-09
3.90809e-09
4.56532e-09
5.5038e-09
7.06974e-09
8.20226e-09
9.3268e-09
1.01589e-08
1.10891e-08
1.17725e-08
1.22711e-08
1.2985e-08
1.46461e-08
1.97444e-08
1.67006e-08
1.62603e-08
1.55353e-08
1.49033e-08
1.37799e-08
1.29705e-08
1.15302e-08
1.03601e-08
7.99386e-09
6.05242e-09
4.09947e-09
2.66668e-09
1.80249e-09
1.46009e-09
1.27626e-09
9.55495e-10
1.53771e-09
2.35833e-09
3.81735e-09
5.33534e-09
7.4308e-09
8.78103e-09
9.93085e-09
1.06321e-08
1.15221e-08
1.22132e-08
1.27961e-08
1.359e-08
1.55757e-08
1.86268e-08
1.5895e-08
1.54171e-08
1.48052e-08
1.42262e-08
1.32893e-08
1.25144e-08
1.13245e-08
1.03497e-08
8.13555e-09
6.00294e-09
4.03942e-09
2.68324e-09
1.56615e-09
9.19307e-10
5.13183e-10
1.0111e-09
1.94985e-09
2.71873e-09
4.19359e-09
5.71593e-09
7.85862e-09
9.36399e-09
1.06128e-08
1.13279e-08
1.21824e-08
1.28824e-08
1.34912e-08
1.42476e-08
1.64777e-08
1.85796e-08
1.57928e-08
1.52463e-08
1.46244e-08
1.40791e-08
1.31726e-08
1.23793e-08
1.10429e-08
9.81156e-09
7.73958e-09
5.92301e-09
4.17659e-09
2.94529e-09
1.62708e-09
1.02603e-09
7.02107e-10
1.27225e-09
2.43792e-09
3.16962e-09
4.62269e-09
6.00674e-09
8.09029e-09
9.41125e-09
1.0657e-08
1.13386e-08
1.22335e-08
1.29252e-08
1.35674e-08
1.42043e-08
1.63385e-08
1.71832e-08
1.48143e-08
1.42366e-08
1.36966e-08
1.31674e-08
1.23356e-08
1.16201e-08
1.04849e-08
9.14624e-09
7.00162e-09
4.89516e-09
3.19688e-09
2.14909e-09
1.28018e-09
1.3981e-09
1.27242e-09
1.51362e-09
2.91818e-09
3.92948e-09
5.34678e-09
6.63724e-09
8.47332e-09
9.60727e-09
1.06682e-08
1.13758e-08
1.23205e-08
1.3064e-08
1.36436e-08
1.41777e-08
1.61996e-08
1.64349e-08
1.43091e-08
1.37084e-08
1.31398e-08
1.25623e-08
1.16309e-08
1.08462e-08
9.6628e-09
8.51641e-09
6.66063e-09
5.1535e-09
4.12198e-09
3.1641e-09
2.82219e-09
3.00339e-09
2.77205e-09
2.7715e-09
4.01762e-09
5.30986e-09
6.52591e-09
7.00249e-09
8.44302e-09
9.30284e-09
1.04578e-08
1.12538e-08
1.2228e-08
1.30059e-08
1.37269e-08
1.43914e-08
1.64583e-08
1.54041e-08
1.36475e-08
1.2993e-08
1.23609e-08
1.16806e-08
1.07414e-08
9.90158e-09
8.76214e-09
7.77095e-09
6.70195e-09
6.04083e-09
5.54716e-09
4.86944e-09
4.48573e-09
4.62435e-09
4.30113e-09
4.30921e-09
5.21338e-09
6.14448e-09
6.77604e-09
6.90883e-09
7.61797e-09
8.30478e-09
9.46e-09
1.02507e-08
1.10754e-08
1.18655e-08
1.2895e-08
1.3897e-08
1.60515e-08
1.46263e-08
1.29219e-08
1.21706e-08
1.1347e-08
1.05361e-08
9.55605e-09
8.8286e-09
7.89598e-09
7.17327e-09
6.46353e-09
6.33359e-09
6.25618e-09
6.1372e-09
6.26367e-09
6.60172e-09
6.42852e-09
6.47584e-09
6.80968e-09
6.75136e-09
6.6831e-09
6.41644e-09
6.8604e-09
7.35759e-09
8.36657e-09
9.08146e-09
9.9259e-09
1.07443e-08
1.18453e-08
1.28801e-08
1.48501e-08
1.34038e-08
1.19263e-08
1.12714e-08
1.0386e-08
9.54218e-09
8.72942e-09
8.09557e-09
7.33051e-09
6.70776e-09
6.26212e-09
6.27651e-09
6.30965e-09
6.49063e-09
7.10941e-09
7.97561e-09
8.31042e-09
8.34697e-09
7.86871e-09
7.24474e-09
6.70619e-09
6.19432e-09
6.41549e-09
6.84498e-09
7.74564e-09
8.38209e-09
9.22434e-09
9.98802e-09
1.09746e-08
1.18764e-08
1.33e-08
1.25442e-08
1.13658e-08
1.07942e-08
9.87475e-09
9.06087e-09
8.36124e-09
7.83917e-09
7.23722e-09
6.76944e-09
6.45711e-09
6.25923e-09
5.96094e-09
6.18072e-09
7.03282e-09
8.08127e-09
8.86951e-09
8.87204e-09
7.81135e-09
6.9448e-09
6.61121e-09
6.29212e-09
6.52169e-09
6.78231e-09
7.4408e-09
7.86111e-09
8.55802e-09
9.16726e-09
1.01131e-08
1.10302e-08
1.2141e-08
1.12867e-08
1.04282e-08
9.70395e-09
8.82443e-09
8.24923e-09
7.72577e-09
7.37871e-09
7.02432e-09
6.78338e-09
6.67366e-09
6.37664e-09
5.81741e-09
5.80824e-09
6.60425e-09
7.57334e-09
8.344e-09
8.27787e-09
7.29618e-09
6.71453e-09
6.74768e-09
6.62229e-09
6.68465e-09
6.69676e-09
7.04293e-09
7.21215e-09
7.71178e-09
8.18693e-09
9.10343e-09
1.00289e-08
1.07819e-08
1.01652e-08
9.49435e-09
8.59507e-09
7.86864e-09
7.52375e-09
7.24079e-09
7.13959e-09
7.04489e-09
6.96912e-09
6.87058e-09
6.43462e-09
5.85916e-09
5.63754e-09
6.11013e-09
6.8474e-09
7.42035e-09
7.44031e-09
6.90519e-09
6.62254e-09
6.85031e-09
6.86814e-09
6.94553e-09
6.83341e-09
6.949e-09
6.89545e-09
7.10993e-09
7.35097e-09
8.21153e-09
9.15756e-09
9.68351e-09
8.4263e-09
8.15717e-09
7.27058e-09
6.76921e-09
6.61052e-09
6.50767e-09
6.62573e-09
6.76488e-09
6.9071e-09
6.81586e-09
6.28567e-09
5.82687e-09
5.84962e-09
6.10314e-09
6.51713e-09
6.76012e-09
7.0199e-09
6.86757e-09
6.58344e-09
6.5708e-09
6.68833e-09
6.85462e-09
6.7274e-09
6.74254e-09
6.52059e-09
6.46323e-09
6.39136e-09
7.16691e-09
8.12322e-09
8.30543e-09
7.09071e-09
7.07631e-09
6.15539e-09
5.83392e-09
5.97024e-09
6.14636e-09
6.35685e-09
6.63095e-09
6.87866e-09
6.90438e-09
6.40338e-09
6.02865e-09
6.20608e-09
6.40999e-09
6.48946e-09
6.43974e-09
6.83236e-09
6.93744e-09
6.56426e-09
6.32904e-09
6.33866e-09
6.58532e-09
6.56322e-09
6.56916e-09
6.27404e-09
5.91297e-09
5.64436e-09
6.27003e-09
7.25946e-09
7.17456e-09
5.38959e-09
5.75881e-09
4.75918e-09
4.62142e-09
5.04187e-09
5.3617e-09
5.69667e-09
6.08258e-09
6.40322e-09
6.61019e-09
6.29611e-09
6.17457e-09
6.45925e-09
6.57357e-09
6.41445e-09
6.15964e-09
6.54935e-09
6.68135e-09
6.48307e-09
6.15693e-09
5.93019e-09
5.92721e-09
5.84457e-09
5.81307e-09
5.5242e-09
5.15848e-09
4.77326e-09
5.15338e-09
6.04367e-09
5.56734e-09
3.87034e-09
4.6474e-09
3.73961e-09
4.07558e-09
4.50716e-09
4.94526e-09
5.40479e-09
5.86944e-09
6.26071e-09
6.51531e-09
6.36591e-09
6.42697e-09
6.70432e-09
6.70784e-09
6.52335e-09
6.21232e-09
6.37288e-09
6.5247e-09
6.50199e-09
6.31513e-09
5.88653e-09
5.69058e-09
5.47295e-09
5.41961e-09
5.21981e-09
4.91837e-09
4.4336e-09
4.12891e-09
4.85113e-09
4.04307e-09
1.91432e-09
3.07062e-09
2.89502e-09
3.51073e-09
3.99271e-09
4.61481e-09
5.16908e-09
5.77387e-09
6.31618e-09
6.74062e-09
6.8457e-09
6.91688e-09
7.07274e-09
7.09522e-09
7.13257e-09
6.84429e-09
6.85782e-09
6.92482e-09
6.87206e-09
6.53993e-09
5.92493e-09
5.58594e-09
5.27061e-09
5.12745e-09
4.78367e-09
4.25049e-09
3.62306e-09
2.82955e-09
2.95825e-09
1.86129e-09
8.66434e-10
1.80947e-09
2.59181e-09
3.25641e-09
4.02537e-09
4.75957e-09
5.4453e-09
6.17602e-09
6.89668e-09
7.35625e-09
7.56632e-09
7.68797e-09
7.70051e-09
7.88038e-09
7.80936e-09
7.44072e-09
7.50533e-09
7.65995e-09
7.60058e-09
6.98453e-09
6.14538e-09
5.70715e-09
5.24197e-09
4.98916e-09
4.35126e-09
3.54353e-09
2.53869e-09
1.74509e-09
1.16971e-09
3.72659e-10
2.44496e-07
2.93558e-07
6.63214e-08
5.71573e-08
2.44862e-08
1.89897e-08
1.22051e-08
1.07915e-08
7.68583e-09
8.45029e-09
7.50438e-09
9.01382e-09
8.34738e-09
9.22895e-09
8.57293e-09
8.71071e-09
8.04758e-09
7.26508e-09
6.89993e-09
6.11668e-09
5.80467e-09
5.3799e-09
5.38462e-09
4.98322e-09
4.69779e-09
3.95969e-09
3.32795e-09
2.52883e-09
2.10569e-09
1.28104e-09
2.91349e-07
5.87617e-08
4.71254e-08
2.22444e-08
1.13085e-08
8.59204e-09
5.90899e-09
4.41229e-09
3.76145e-09
3.64915e-09
3.83122e-09
3.35311e-09
2.67995e-09
2.75266e-09
2.89964e-09
2.9789e-09
2.82868e-09
2.77574e-09
2.50478e-09
2.30277e-09
2.25447e-09
2.70038e-09
3.11975e-09
3.44542e-09
3.37807e-09
3.04831e-09
2.66422e-09
2.3178e-09
3.28011e-09
2.84258e-09
6.45563e-08
4.79136e-08
2.45637e-08
2.19217e-08
1.18564e-08
1.04369e-08
7.29966e-09
5.59229e-09
4.58569e-09
4.62231e-09
5.01878e-09
5.02654e-09
3.73144e-09
2.89198e-09
2.60684e-09
2.47845e-09
2.06467e-09
1.68347e-09
1.60926e-09
2.06206e-09
2.40262e-09
3.35654e-09
4.02351e-09
4.14444e-09
4.14169e-09
3.96334e-09
3.29745e-09
3.05898e-09
3.70907e-09
4.64522e-09
5.72416e-08
2.04343e-08
2.03453e-08
1.27534e-08
7.19362e-09
6.78447e-09
4.20148e-09
4.32729e-09
3.93335e-09
4.2823e-09
4.54506e-09
4.83502e-09
3.544e-09
2.66981e-09
2.27951e-09
2.21667e-09
2.26785e-09
1.72189e-09
1.92684e-09
2.76001e-09
3.44146e-09
3.96045e-09
3.77522e-09
3.6962e-09
4.04482e-09
4.10336e-09
3.59276e-09
3.53963e-09
3.48733e-09
5.80126e-09
2.69226e-08
9.94036e-09
9.87913e-09
7.65888e-09
4.9259e-09
5.22103e-09
3.50734e-09
3.63859e-09
3.09493e-09
3.09894e-09
2.93832e-09
3.26755e-09
2.21532e-09
2.18013e-09
2.10719e-09
2.16344e-09
2.30893e-09
1.72091e-09
2.10401e-09
3.04e-09
3.44072e-09
2.90201e-09
2.1095e-09
2.15055e-09
2.69357e-09
3.15529e-09
3.38298e-09
3.66959e-09
3.28605e-09
7.15752e-09
2.49198e-08
6.33319e-09
8.6867e-09
6.86264e-09
4.76192e-09
4.57785e-09
2.64362e-09
2.77836e-09
1.85428e-09
2.08412e-09
2.14818e-09
2.5313e-09
2.02361e-09
2.17649e-09
2.23735e-09
2.33796e-09
2.47155e-09
2.11141e-09
2.57016e-09
2.87585e-09
2.61094e-09
1.71809e-09
1.07802e-09
1.24019e-09
1.632e-09
2.34239e-09
3.03979e-09
3.54935e-09
3.06222e-09
7.97705e-09
1.92424e-08
4.04694e-09
5.62606e-09
4.11042e-09
3.36217e-09
3.26055e-09
2.28133e-09
2.40131e-09
1.72056e-09
1.94409e-09
2.00299e-09
2.46587e-09
2.04916e-09
2.32359e-09
2.557e-09
2.49304e-09
2.59054e-09
2.55124e-09
2.99731e-09
2.52293e-09
1.96498e-09
1.3771e-09
1.12456e-09
1.10633e-09
1.41157e-09
2.29831e-09
3.04379e-09
3.46823e-09
3.06708e-09
9.12009e-09
2.00925e-08
2.20589e-09
4.66892e-09
4.52574e-09
3.82658e-09
3.67048e-09
2.76374e-09
2.74749e-09
2.02545e-09
2.10203e-09
2.06188e-09
2.25562e-09
1.70961e-09
2.03395e-09
2.47526e-09
2.26894e-09
2.25003e-09
2.53588e-09
2.81623e-09
2.20934e-09
1.58622e-09
1.3071e-09
1.12881e-09
1.17475e-09
1.59943e-09
2.47018e-09
3.02926e-09
3.33773e-09
3.00833e-09
9.88052e-09
1.72823e-08
2.39299e-09
3.26584e-09
3.12486e-09
3.05916e-09
2.98169e-09
2.52226e-09
2.56061e-09
2.22871e-09
2.30121e-09
2.15454e-09
1.71596e-09
8.90715e-10
2.37914e-09
3.11444e-09
2.65303e-09
1.90861e-09
1.88483e-09
2.35658e-09
2.07563e-09
1.67752e-09
1.51269e-09
1.38931e-09
1.57184e-09
1.99255e-09
2.60607e-09
2.88171e-09
2.98882e-09
2.82569e-09
1.08352e-08
1.82553e-08
1.70363e-09
2.54202e-09
2.8086e-09
2.97034e-09
3.14024e-09
2.81309e-09
2.85392e-09
2.67231e-09
2.57931e-09
2.29506e-09
1.4206e-09
1.64725e-09
3.46775e-09
4.16242e-09
3.54481e-09
2.4158e-09
1.1017e-09
1.60587e-09
1.94959e-09
1.70086e-09
1.7149e-09
1.64861e-09
1.8819e-09
2.06458e-09
2.37681e-09
2.39739e-09
2.32854e-09
2.426e-09
1.13832e-08
1.68536e-08
2.02912e-09
1.91227e-09
1.83808e-09
1.89316e-09
2.28252e-09
2.40068e-09
2.73975e-09
2.84451e-09
2.72195e-09
2.45169e-09
2.06627e-09
3.15713e-09
4.62984e-09
5.20559e-09
4.91503e-09
4.10228e-09
2.02086e-09
1.39843e-09
1.89949e-09
2.04911e-09
2.23158e-09
2.21308e-09
2.34234e-09
2.35586e-09
2.37928e-09
2.17146e-09
1.98682e-09
2.16585e-09
1.19437e-08
1.77648e-08
1.9906e-09
1.53864e-09
1.51995e-09
1.56014e-09
2.05539e-09
2.3646e-09
2.83827e-09
3.28501e-09
3.27828e-09
2.75913e-09
2.86631e-09
3.70532e-09
4.17303e-09
4.40177e-09
4.36389e-09
3.75696e-09
2.6019e-09
1.70695e-09
1.92505e-09
2.38686e-09
2.63707e-09
2.54305e-09
2.50475e-09
2.41702e-09
2.35082e-09
2.0208e-09
1.93248e-09
1.98345e-09
1.22745e-08
1.66883e-08
2.08596e-09
1.44292e-09
1.30512e-09
1.22638e-09
1.46667e-09
1.69395e-09
2.25826e-09
2.94179e-09
2.99124e-09
2.49787e-09
3.69879e-09
4.06536e-09
4.03469e-09
3.938e-09
3.73187e-09
3.43448e-09
2.81528e-09
2.39545e-09
1.67252e-09
2.37818e-09
2.64325e-09
2.40191e-09
2.14206e-09
1.97212e-09
1.94131e-09
1.75174e-09
1.87303e-09
2.05022e-09
1.30577e-08
1.66412e-08
1.86217e-09
1.48501e-09
1.46585e-09
1.48231e-09
1.4358e-09
1.54374e-09
2.03832e-09
2.75383e-09
2.87822e-09
3.08613e-09
3.54602e-09
3.33953e-09
3.16448e-09
2.78217e-09
2.51118e-09
1.95261e-09
1.92315e-09
1.86156e-09
1.69902e-09
1.9321e-09
2.40424e-09
2.12043e-09
1.75354e-09
1.57185e-09
1.62456e-09
1.56047e-09
1.73982e-09
2.08213e-09
1.37126e-08
1.58494e-08
2.05018e-09
1.60398e-09
1.54182e-09
1.54278e-09
1.58462e-09
1.70259e-09
2.12641e-09
2.65309e-09
3.15769e-09
3.31822e-09
2.99968e-09
2.5433e-09
2.17483e-09
2.39301e-09
2.12787e-09
1.69645e-09
1.8639e-09
1.95675e-09
2.36949e-09
2.66881e-09
2.6868e-09
2.12838e-09
1.59003e-09
1.43654e-09
1.4831e-09
1.46024e-09
1.61617e-09
2.11161e-09
1.43099e-08
1.58324e-08
2.23701e-09
1.77135e-09
1.64882e-09
1.72695e-09
1.85274e-09
2.016e-09
2.33181e-09
2.87272e-09
3.17038e-09
2.81261e-09
2.03774e-09
1.74427e-09
1.73538e-09
2.26435e-09
2.30352e-09
1.92442e-09
2.10174e-09
2.33449e-09
2.85053e-09
2.91942e-09
2.74039e-09
1.99305e-09
1.33142e-09
1.12448e-09
1.26342e-09
1.29581e-09
1.39615e-09
1.79977e-09
1.41786e-08
1.49506e-08
2.29161e-09
1.98498e-09
1.83266e-09
1.94223e-09
2.04341e-09
2.16909e-09
2.5001e-09
2.94582e-09
2.74393e-09
2.45918e-09
2.301e-09
2.16873e-09
2.21151e-09
2.72567e-09
2.70685e-09
2.43201e-09
2.53957e-09
2.58339e-09
2.44282e-09
2.39037e-09
2.88522e-09
2.1599e-09
1.41187e-09
1.20059e-09
1.43029e-09
1.5848e-09
1.57649e-09
1.80136e-09
1.41414e-08
1.4442e-08
2.26207e-09
2.18898e-09
1.98112e-09
2.14782e-09
2.22193e-09
2.43139e-09
2.6202e-09
2.94615e-09
2.60668e-09
2.22172e-09
2.34597e-09
2.61877e-09
2.89471e-09
3.34203e-09
3.36468e-09
3.4532e-09
3.23461e-09
2.54566e-09
1.57026e-09
2.64741e-09
3.38557e-09
2.63538e-09
2.15086e-09
1.84484e-09
1.87768e-09
2.05468e-09
2.04912e-09
2.17818e-09
1.41994e-08
1.35907e-08
2.49039e-09
2.54841e-09
2.49028e-09
2.77589e-09
2.80129e-09
2.88787e-09
2.85624e-09
3.04791e-09
2.80677e-09
2.68164e-09
1.97085e-09
2.32837e-09
3.04783e-09
3.76107e-09
3.73544e-09
3.6309e-09
3.02689e-09
1.80781e-09
1.59331e-09
2.8646e-09
3.5475e-09
2.99857e-09
2.6694e-09
2.33634e-09
2.35617e-09
2.51819e-09
2.58473e-09
2.62029e-09
1.38705e-08
1.2989e-08
2.58855e-09
2.49861e-09
2.67233e-09
2.93602e-09
2.61687e-09
2.4914e-09
2.25627e-09
2.48481e-09
2.23929e-09
2.37175e-09
1.29482e-09
1.40362e-09
2.94292e-09
4.05751e-09
4.24697e-09
4.02334e-09
2.52055e-09
1.0833e-09
1.84321e-09
2.36388e-09
2.91172e-09
2.51879e-09
2.45857e-09
2.28631e-09
2.55628e-09
2.62102e-09
2.52036e-09
2.61872e-09
1.30574e-08
1.2198e-08
2.87058e-09
2.62595e-09
2.99396e-09
3.18042e-09
2.45391e-09
2.1276e-09
1.81994e-09
2.0503e-09
1.93102e-09
2.27203e-09
1.58549e-09
7.81204e-10
1.35037e-09
2.78071e-09
3.4699e-09
3.23709e-09
1.24748e-09
1.21101e-09
2.28243e-09
2.20932e-09
2.43476e-09
2.08935e-09
2.26589e-09
2.3953e-09
3.00432e-09
2.97556e-09
2.79976e-09
2.67107e-09
1.18402e-08
1.14354e-08
2.98383e-09
3.08275e-09
3.39774e-09
3.18213e-09
2.25906e-09
1.88202e-09
1.42067e-09
1.63532e-09
1.64016e-09
2.18442e-09
2.19493e-09
1.80814e-09
1.21956e-09
1.81275e-09
2.27103e-09
1.88553e-09
1.22359e-09
1.72485e-09
2.18332e-09
1.77268e-09
1.8925e-09
1.56188e-09
1.86222e-09
2.09569e-09
2.95847e-09
3.20413e-09
3.17966e-09
2.71027e-09
1.0922e-08
1.04636e-08
3.01216e-09
3.5726e-09
3.47667e-09
2.90185e-09
1.96542e-09
1.63203e-09
1.11874e-09
1.43372e-09
1.51764e-09
2.17146e-09
2.51129e-09
2.39672e-09
2.36951e-09
2.4694e-09
2.43743e-09
1.53212e-09
1.93724e-09
2.44877e-09
2.38343e-09
1.59039e-09
1.56366e-09
1.23931e-09
1.56209e-09
1.70623e-09
2.72389e-09
3.26996e-09
3.44257e-09
2.87322e-09
9.97971e-09
9.64919e-09
3.00605e-09
3.61152e-09
2.97368e-09
2.37872e-09
1.60763e-09
1.42333e-09
8.99577e-10
1.27475e-09
1.50889e-09
2.2806e-09
2.3912e-09
2.3365e-09
2.9017e-09
2.95104e-09
2.47984e-09
1.70978e-09
2.49637e-09
2.93876e-09
3.01114e-09
2.00839e-09
1.44915e-09
9.99547e-10
1.31394e-09
1.37643e-09
2.35773e-09
3.13893e-09
3.56316e-09
2.92985e-09
9.16643e-09
8.31987e-09
3.08127e-09
3.54675e-09
2.58443e-09
2.00715e-09
1.42607e-09
1.65153e-09
1.33618e-09
1.57736e-09
1.77944e-09
2.48416e-09
2.2209e-09
2.13905e-09
2.98587e-09
3.00882e-09
2.38587e-09
2.05457e-09
2.60219e-09
3.05877e-09
3.65572e-09
2.97288e-09
2.08867e-09
1.31341e-09
1.6237e-09
1.74076e-09
2.65079e-09
3.27099e-09
3.87771e-09
3.17499e-09
8.17237e-09
7.30598e-09
3.05283e-09
3.3324e-09
2.34613e-09
1.98938e-09
1.7441e-09
2.15575e-09
2.08492e-09
2.45823e-09
2.44884e-09
2.63794e-09
1.88647e-09
1.99662e-09
2.82063e-09
2.86696e-09
2.36358e-09
2.16182e-09
2.41852e-09
2.84912e-09
3.73207e-09
3.6396e-09
3.30783e-09
2.51603e-09
2.70576e-09
2.91356e-09
3.55132e-09
3.4961e-09
3.99077e-09
3.44917e-09
7.30873e-09
6.09491e-09
3.24625e-09
3.30314e-09
2.55195e-09
2.78731e-09
2.79279e-09
3.16277e-09
3.18843e-09
3.77673e-09
3.78477e-09
3.44134e-09
1.82102e-09
1.79043e-09
2.63395e-09
3.13274e-09
2.76419e-09
2.67144e-09
3.02572e-09
3.29518e-09
4.00998e-09
4.02469e-09
4.42122e-09
4.27443e-09
4.58149e-09
4.58374e-09
4.62803e-09
3.74407e-09
3.88746e-09
3.76447e-09
6.07136e-09
5.07326e-09
3.63369e-09
3.22725e-09
2.99705e-09
3.28465e-09
3.09491e-09
3.29558e-09
3.24228e-09
3.84111e-09
4.00892e-09
3.78151e-09
2.02389e-09
1.64176e-09
2.47072e-09
2.98366e-09
2.55631e-09
2.4197e-09
2.93718e-09
3.04607e-09
3.27602e-09
3.02118e-09
3.63392e-09
3.96753e-09
4.70871e-09
4.55355e-09
4.30339e-09
3.25251e-09
3.12177e-09
3.81565e-09
4.90033e-09
3.44734e-09
3.64963e-09
2.80947e-09
3.04273e-09
3.06935e-09
2.90862e-09
3.15177e-09
3.20225e-09
3.74159e-09
3.98766e-09
4.00812e-09
3.11254e-09
2.97434e-09
2.73054e-09
2.53595e-09
1.98872e-09
2.08648e-09
2.49352e-09
2.46588e-09
2.59024e-09
2.29143e-09
2.82016e-09
2.91077e-09
3.52813e-09
3.38422e-09
3.15729e-09
2.58355e-09
2.29324e-09
3.2441e-09
3.00788e-09
2.07257e-09
2.8234e-09
3.15924e-09
3.6968e-09
4.20195e-09
4.75729e-09
5.3879e-09
6.19046e-09
6.92855e-09
7.72556e-09
7.71768e-09
7.67165e-09
7.22305e-09
7.26205e-09
7.13121e-09
6.8613e-09
6.95533e-09
6.85297e-09
7.03132e-09
6.59683e-09
6.09056e-09
5.61709e-09
5.21298e-09
4.99449e-09
4.58103e-09
3.94285e-09
3.16264e-09
2.33514e-09
1.94236e-09
1.33711e-09
2.51367e-07
6.64002e-08
5.86589e-08
3.71291e-08
2.61567e-08
2.02431e-08
1.35893e-08
1.15656e-08
7.44326e-09
7.54907e-09
6.47535e-09
7.01435e-09
6.92284e-09
6.17926e-09
6.2178e-09
6.23408e-09
5.79378e-09
6.31474e-09
5.40669e-09
5.96983e-09
4.53386e-09
5.17322e-09
4.78578e-09
5.61175e-09
5.14789e-09
4.77738e-09
3.90605e-09
3.01803e-09
2.28116e-09
1.87476e-09
6.44699e-08
4.81533e-08
2.52686e-08
2.24881e-08
1.06798e-08
9.03942e-09
6.26838e-09
5.22207e-09
4.8565e-09
4.33215e-09
3.44342e-09
2.57379e-09
2.07176e-09
2.31421e-09
2.68212e-09
2.29181e-09
2.43234e-09
2.49297e-09
2.47856e-09
1.89733e-09
1.24031e-09
1.60802e-09
2.37529e-09
2.76872e-09
2.5787e-09
2.13808e-09
1.99301e-09
2.04925e-09
2.48308e-09
2.66653e-09
5.75229e-08
2.58096e-08
2.24449e-08
2.09915e-08
1.31805e-08
1.09263e-08
7.32205e-09
6.03811e-09
5.67938e-09
5.8682e-09
5.20547e-09
4.41547e-09
3.4086e-09
3.11152e-09
3.01696e-09
2.80648e-09
3.11439e-09
2.78518e-09
2.75297e-09
2.42473e-09
2.21182e-09
2.67475e-09
3.87748e-09
4.33164e-09
3.36396e-09
2.44992e-09
2.61694e-09
3.42372e-09
3.1477e-09
4.04703e-09
3.91446e-08
2.10762e-08
1.9785e-08
1.52743e-08
9.64316e-09
8.38047e-09
5.33069e-09
4.6612e-09
4.01416e-09
4.94494e-09
5.48071e-09
5.64616e-09
4.79569e-09
4.07336e-09
3.42786e-09
3.18685e-09
3.08737e-09
2.54759e-09
2.73769e-09
2.46105e-09
2.04456e-09
3.57944e-09
5.22132e-09
5.27782e-09
4.2782e-09
3.03909e-09
3.02341e-09
3.62905e-09
3.3873e-09
5.14135e-09
2.9078e-08
1.05138e-08
1.15748e-08
9.10394e-09
6.89144e-09
6.66849e-09
4.88339e-09
4.40579e-09
3.71963e-09
4.61917e-09
5.88081e-09
6.0925e-09
4.51911e-09
3.69387e-09
3.11211e-09
2.89589e-09
2.57962e-09
2.25432e-09
2.60326e-09
2.71897e-09
3.72921e-09
4.84453e-09
5.22227e-09
5.06675e-09
4.65826e-09
3.65261e-09
3.56351e-09
3.18748e-09
3.49307e-09
6.40193e-09
2.57269e-08
8.4733e-09
1.01855e-08
7.87073e-09
6.12811e-09
5.1383e-09
3.55073e-09
2.90562e-09
2.2749e-09
2.99111e-09
4.03437e-09
4.02345e-09
2.64698e-09
2.2409e-09
1.82965e-09
1.93248e-09
1.95767e-09
2.03622e-09
2.03882e-09
2.74269e-09
3.28295e-09
3.12896e-09
2.61218e-09
2.86062e-09
3.4381e-09
3.59527e-09
3.74011e-09
2.65179e-09
3.44477e-09
7.20364e-09
2.00656e-08
5.08272e-09
6.14393e-09
4.53493e-09
3.91251e-09
3.46169e-09
2.43685e-09
2.23633e-09
1.94922e-09
2.34361e-09
2.95969e-09
3.10605e-09
2.04629e-09
1.96403e-09
1.82389e-09
1.88945e-09
1.85576e-09
1.81219e-09
2.23926e-09
2.63182e-09
2.13853e-09
1.49432e-09
9.48643e-10
1.43647e-09
2.68564e-09
3.47902e-09
3.46558e-09
2.23856e-09
3.42845e-09
8.26433e-09
2.02268e-08
3.64643e-09
4.90861e-09
4.84706e-09
4.47323e-09
3.96801e-09
2.94006e-09
2.67955e-09
2.13606e-09
2.13003e-09
2.43258e-09
2.70992e-09
1.90095e-09
2.12469e-09
1.58854e-09
1.29932e-09
1.10857e-09
1.62884e-09
2.36737e-09
2.23405e-09
1.298e-09
9.59284e-10
7.36202e-10
1.28742e-09
2.47587e-09
3.11199e-09
2.97527e-09
2.09638e-09
3.28962e-09
9.01984e-09
1.6963e-08
3.0516e-09
2.85894e-09
2.4645e-09
2.77327e-09
3.01177e-09
2.53173e-09
2.42203e-09
2.08006e-09
2.06623e-09
2.15373e-09
2.12764e-09
1.91016e-09
2.5137e-09
1.70005e-09
9.99028e-10
1.04631e-09
1.03356e-09
1.83426e-09
1.85404e-09
1.30273e-09
1.16149e-09
1.14593e-09
1.64862e-09
2.36793e-09
2.65527e-09
2.63196e-09
2.07025e-09
3.04016e-09
1.00417e-08
1.74209e-08
2.72861e-09
2.47016e-09
1.99747e-09
2.19642e-09
2.79459e-09
2.78457e-09
2.6932e-09
2.2733e-09
2.11387e-09
1.92232e-09
1.99549e-09
2.22962e-09
2.7205e-09
2.70907e-09
1.95038e-09
2.08012e-09
1.63334e-09
1.22732e-09
1.26855e-09
1.18373e-09
1.18897e-09
1.42094e-09
1.85922e-09
2.01957e-09
2.05212e-09
1.97827e-09
1.56118e-09
2.58332e-09
1.07881e-08
1.58008e-08
2.46347e-09
1.80477e-09
1.48034e-09
1.23809e-09
1.44808e-09
1.98832e-09
2.49338e-09
2.36408e-09
2.21058e-09
2.53412e-09
3.31813e-09
3.75559e-09
4.43359e-09
4.75474e-09
4.26045e-09
3.99287e-09
3.11437e-09
2.48911e-09
1.90087e-09
1.67536e-09
1.66948e-09
1.85895e-09
1.96356e-09
1.74692e-09
1.6709e-09
1.56098e-09
1.24526e-09
2.18506e-09
1.14517e-08
1.67312e-08
2.24714e-09
1.3843e-09
1.27995e-09
9.77256e-10
9.95115e-10
1.73493e-09
2.44707e-09
2.39091e-09
2.79096e-09
3.67747e-09
3.81882e-09
4.51877e-09
5.17936e-09
5.53506e-09
5.51703e-09
4.77927e-09
3.59835e-09
3.02186e-09
2.69471e-09
2.16364e-09
1.78791e-09
1.70818e-09
1.64029e-09
1.47313e-09
1.48893e-09
1.43545e-09
1.17662e-09
1.73123e-09
1.17985e-08
1.58312e-08
1.8355e-09
9.61101e-10
9.61781e-10
7.48594e-10
5.42404e-10
1.20027e-09
2.21054e-09
1.93647e-09
2.95381e-09
4.06425e-09
4.50942e-09
5.64974e-09
6.20573e-09
6.30755e-09
6.10909e-09
5.64418e-09
4.56666e-09
3.71751e-09
3.10212e-09
2.54708e-09
1.53424e-09
1.39144e-09
1.29413e-09
1.12112e-09
1.13369e-09
1.15326e-09
9.32032e-10
1.70801e-09
1.25366e-08
1.59764e-08
1.72959e-09
8.54565e-10
8.39457e-10
8.94351e-10
8.62895e-10
1.32447e-09
2.25685e-09
2.19706e-09
2.72307e-09
3.51267e-09
4.76597e-09
5.41656e-09
6.0967e-09
6.08492e-09
5.89357e-09
5.36426e-09
4.55219e-09
4.16433e-09
2.66423e-09
2.34258e-09
1.62085e-09
1.07062e-09
8.74361e-10
9.0678e-10
8.62427e-10
7.45304e-10
4.74073e-10
1.70893e-09
1.30607e-08
1.50822e-08
2.03633e-09
9.9041e-10
9.14779e-10
9.3119e-10
1.05208e-09
1.26346e-09
1.58545e-09
2.16035e-09
3.17029e-09
3.80415e-09
4.44507e-09
4.10954e-09
4.7826e-09
5.43754e-09
5.51769e-09
4.78692e-09
4.21037e-09
4.31609e-09
3.62448e-09
3.20203e-09
2.21535e-09
1.38335e-09
9.03687e-10
9.32256e-10
7.8902e-10
6.04776e-10
4.79028e-10
1.74233e-09
1.35542e-08
1.50061e-08
2.25189e-09
9.09872e-10
8.7734e-10
1.01301e-09
1.29069e-09
1.3772e-09
1.66185e-09
2.4555e-09
3.4463e-09
3.716e-09
4.0425e-09
3.56799e-09
4.35887e-09
5.26589e-09
5.41386e-09
4.74641e-09
4.20097e-09
4.57453e-09
3.93604e-09
3.30059e-09
2.38109e-09
1.33496e-09
8.45417e-10
8.77679e-10
7.29086e-10
6.78386e-10
4.86988e-10
1.52779e-09
1.3456e-08
1.42518e-08
2.37599e-09
1.00561e-09
1.16535e-09
1.16453e-09
1.46867e-09
1.41937e-09
1.62635e-09
2.11083e-09
2.84034e-09
3.12301e-09
4.25312e-09
4.2966e-09
5.06731e-09
5.63309e-09
5.7777e-09
5.52203e-09
4.64472e-09
4.45964e-09
2.93676e-09
2.96683e-09
2.24303e-09
1.33972e-09
9.67829e-10
8.62876e-10
7.03281e-10
1.09825e-09
9.83484e-10
1.53884e-09
1.34852e-08
1.38919e-08
2.37908e-09
1.38497e-09
1.51575e-09
1.28123e-09
1.46229e-09
1.62185e-09
1.7779e-09
1.89533e-09
2.91103e-09
3.50298e-09
3.8545e-09
4.38872e-09
5.22195e-09
5.86364e-09
6.06388e-09
5.61369e-09
4.55367e-09
3.77722e-09
2.8394e-09
3.04666e-09
1.99121e-09
1.77365e-09
1.4575e-09
1.01574e-09
9.96219e-10
1.74169e-09
1.68889e-09
2.04527e-09
1.33499e-08
1.28982e-08
2.54684e-09
1.69265e-09
1.75879e-09
1.81415e-09
2.13654e-09
2.23419e-09
2.25949e-09
2.18856e-09
2.64452e-09
3.09787e-09
3.23248e-09
3.36603e-09
4.35723e-09
5.39525e-09
5.78385e-09
4.89184e-09
3.85031e-09
3.18374e-09
2.8969e-09
2.78479e-09
2.44322e-09
2.10848e-09
1.76214e-09
1.45692e-09
1.39114e-09
1.93424e-09
1.83451e-09
2.58669e-09
1.28395e-08
1.21447e-08
2.68342e-09
1.69599e-09
1.64748e-09
2.19943e-09
2.55905e-09
2.224e-09
2.00467e-09
1.79656e-09
1.90001e-09
1.97311e-09
2.48858e-09
2.48228e-09
3.30026e-09
4.31496e-09
5.1685e-09
4.54992e-09
3.53383e-09
2.77579e-09
2.25771e-09
2.26038e-09
2.21777e-09
2.13616e-09
2.03893e-09
2.13806e-09
1.87092e-09
1.73639e-09
1.51241e-09
2.76895e-09
1.19418e-08
1.1322e-08
3.06564e-09
2.01369e-09
1.86883e-09
2.82386e-09
3.10866e-09
2.23903e-09
1.675e-09
1.41635e-09
1.43941e-09
1.36538e-09
1.61467e-09
1.628e-09
2.35492e-09
2.3031e-09
3.09853e-09
2.89392e-09
2.65437e-09
2.00441e-09
1.73293e-09
1.98654e-09
1.86043e-09
1.91703e-09
2.29885e-09
2.96646e-09
2.72085e-09
1.92287e-09
1.42279e-09
2.7495e-09
1.07107e-08
1.0517e-08
3.09431e-09
2.00264e-09
2.60685e-09
3.43877e-09
3.07683e-09
2.04626e-09
1.50054e-09
1.24895e-09
1.25137e-09
1.62608e-09
2.13488e-09
1.41875e-09
1.71329e-09
2.30476e-09
2.39486e-09
2.28443e-09