/*--------------------------------*- C++ -*----------------------------------*\
| =========                 |                                                 |
| \\      /  F ield         | OpenFOAM: The Open Source CFD Toolbox           |
|  \\    /   O peration     | Version:  v1906                                 |
|   \\  /    A nd           | Web:      www.OpenFOAM.com                      |
|    \\/     M anipulation  |                                                 |
\*---------------------------------------------------------------------------*/
FoamFile
{
    version     2.0;
    format      ascii;
    class       volScalarField;
    location    "23";
    object      k;
}
// * * * * * * * * * * * * * * * * * * * * * * * * * * * * * * * * * * * * * //

dimensions      [0 2 -2 0 0 0 0];


internalField   nonuniform List<scalar> 
78750
(
0.0129688
0.0102768
0.0026757
0.00515009
0.00332167
0.00280476
0.00276401
0.00283547
0.00292494
0.00299685
0.00303998
0.00310089
0.00314218
0.00319166
0.00323419
0.00326476
0.00328369
0.00328608
0.00327443
0.00324597
0.0032063
0.00315186
0.00309234
0.00302171
0.00296079
0.00289393
0.00285011
0.0027791
0.0027861
0.00286012
0.00310537
0.00299976
0.00271638
0.0017059
0.000472551
0.327442
0.203097
0.0688241
0.0301155
0.0117304
0.00395545
0.00183581
0.00170981
0.00191683
0.00206288
0.00215036
0.00220012
0.00222955
0.00224504
0.00222874
0.00217148
0.00207911
0.00195535
0.00180351
0.0016247
0.00141242
0.00116393
0.00089304
0.000629731
0.000439066
0.000365641
0.000410326
0.000526755
0.00069648
0.000882952
0.00107162
0.00117556
0.00128558
0.00143709
0.00218038
0.0118346
0.00722708
0.00380258
0.000339737
0.000760583
0.00229705
0.00318329
0.00361083
0.00377866
0.00377129
0.00364267
0.00344135
0.00319214
0.00292259
0.00267864
0.00247696
0.00230613
0.00215024
0.00200212
0.00185815
0.00170504
0.00152657
0.00131929
0.00110499
0.000947367
0.000869061
0.000839003
0.000833608
0.000831724
0.000807386
0.00077677
0.000786539
0.000841344
0.00092738
0.00135416
0.00189559
0.00168265
0.00261031
0.00306617
0.00202221
0.000783363
0.00100716
0.00187677
0.00255812
0.00289881
0.00299531
0.00296785
0.00289707
0.00282899
0.00277712
0.00272232
0.00264355
0.0025361
0.00241773
0.00230854
0.00220255
0.00208511
0.00196253
0.00185543
0.00177834
0.00170308
0.00157589
0.00137352
0.0011206
0.000892099
0.000718344
0.000654086
0.000764633
0.00105972
0.00199854
0.00240023
0.00267938
0.00186903
0.00173566
0.00205128
0.00213753
0.00207572
0.00214314
0.00230285
0.00240784
0.00245789
0.00246964
0.00246156
0.00244493
0.00242868
0.00241694
0.00240705
0.00239304
0.00237152
0.00234344
0.00230884
0.00226229
0.00220511
0.00214763
0.00208425
0.00199093
0.00184407
0.0016328
0.00137024
0.00112668
0.000934452
0.000792569
0.000878099
0.00130527
0.00237507
0.00423085
0.00305545
0.00232542
0.00158363
0.00108878
0.000847151
0.000912555
0.00113821
0.00137172
0.00155489
0.00169884
0.00182647
0.00193761
0.00202072
0.0020766
0.00211585
0.00214802
0.0021765
0.00219875
0.0022093
0.00220269
0.00217933
0.00214189
0.0020932
0.00203219
0.00195174
0.00183953
0.0016829
0.0014842
0.00128288
0.00110698
0.000957594
0.0010624
0.00156744
0.0027299
0.00307773
0.00191225
0.00100537
0.000641731
0.000772478
0.00074292
0.00107048
0.00133926
0.00155879
0.00170028
0.00178722
0.00184998
0.00190481
0.00194956
0.00197892
0.0019973
0.00200974
0.0020184
0.00202256
0.00201997
0.00200868
0.00198883
0.0019608
0.00192365
0.00187492
0.00181046
0.0017247
0.00161429
0.00148785
0.0013676
0.00126106
0.00121272
0.00148024
0.00203528
0.00315965
0.00137758
0.00507819
0.00571861
0.00504539
0.00378523
0.00226587
0.00129384
0.000957851
0.000944714
0.00108563
0.00126594
0.0014404
0.00158569
0.00169529
0.00176605
0.00180179
0.00181562
0.00182015
0.00182288
0.00182538
0.00182483
0.00181794
0.00180333
0.00178076
0.00174946
0.00170735
0.0016524
0.00158568
0.00151451
0.00144828
0.00139796
0.00144103
0.00179744
0.00232193
0.00329407
0.00343948
0.0043288
0.00472109
0.00517359
0.0055763
0.00563423
0.00517062
0.00427413
0.00337342
0.00266337
0.00209064
0.00165794
0.00138831
0.00127751
0.00130436
0.00141834
0.00155692
0.00166715
0.00172395
0.00173087
0.00171237
0.00169326
0.00168121
0.00166764
0.00164129
0.00159988
0.0015505
0.00150279
0.00146395
0.00143843
0.00144312
0.00155276
0.00192035
0.0024127
0.0033481
0.00198382
0.00332394
0.00386819
0.00420119
0.00453341
0.00493164
0.00537969
0.00578803
0.00604816
0.00608618
0.00578845
0.00514888
0.00437013
0.00356168
0.00277017
0.00206253
0.00152407
0.00122403
0.00117199
0.00129449
0.00147368
0.00160428
0.00162025
0.00154995
0.00148703
0.00147471
0.00148759
0.00149597
0.00149289
0.00148767
0.00151011
0.00166576
0.00207337
0.00254603
0.00348553
0.00270584
0.00429339
0.00496332
0.00527807
0.00540582
0.00541059
0.00534953
0.00529269
0.00533377
0.00553352
0.00584484
0.0061401
0.00632875
0.00636795
0.00616731
0.00564126
0.00486527
0.00397874
0.00309037
0.00226172
0.00150594
0.000986973
0.000956742
0.00126077
0.00150954
0.00156527
0.00150809
0.00143981
0.0014093
0.00141793
0.00146348
0.00161334
0.00204186
0.0025548
0.00364933
0.00368924
0.00478973
0.00537695
0.0058091
0.00614254
0.00636522
0.00647009
0.00645788
0.00633101
0.0061048
0.00580808
0.00550068
0.00528176
0.00521352
0.00526636
0.00534578
0.00536857
0.00528462
0.00499422
0.00439386
0.00353596
0.0025928
0.0017415
0.00115055
0.000999354
0.00118344
0.00137274
0.00143719
0.00143259
0.00142213
0.00145126
0.00162439
0.00211155
0.0027074
0.0039976
0.00510313
0.00575415
0.00602505
0.00622372
0.0063979
0.00654338
0.00665675
0.00673762
0.00678015
0.00677199
0.00668897
0.00650792
0.0062183
0.00583246
0.00541143
0.00506061
0.00483556
0.00471083
0.00463273
0.00454564
0.00437255
0.00395377
0.00321976
0.00229279
0.00144551
0.00104014
0.00107516
0.00126986
0.00139573
0.00144496
0.00148522
0.00167852
0.00226526
0.00293759
0.00433257
0.00511918
0.00557484
0.00583893
0.00604521
0.00622388
0.00636594
0.00646288
0.00650841
0.00650041
0.00644183
0.00633777
0.00619742
0.00602276
0.00581117
0.00555993
0.00526902
0.0049495
0.00463651
0.00437575
0.00418419
0.00404802
0.00392754
0.00373749
0.00328149
0.00249809
0.00162913
0.0011035
0.00103217
0.0012014
0.00136327
0.00145785
0.00163129
0.00229258
0.00308506
0.00456967
0.00525508
0.00584297
0.00616922
0.00641274
0.00662629
0.00680493
0.00694014
0.00701837
0.00702058
0.00693062
0.00674697
0.00648554
0.00617561
0.00584869
0.00553314
0.00524414
0.00498671
0.00475389
0.00452253
0.0042656
0.00399418
0.00376891
0.00361501
0.00349372
0.00329725
0.00280068
0.00198915
0.00127136
0.000997584
0.00108677
0.00138644
0.00185933
0.00262826
0.00341689
0.00481006
0.00556961
0.00592188
0.0061134
0.00626957
0.00642488
0.00657824
0.00672355
0.00684604
0.00691861
0.00690887
0.00679747
0.00659086
0.00631474
0.00599682
0.00565242
0.00528768
0.00491611
0.00456706
0.00426686
0.00402198
0.00381766
0.00362385
0.00341888
0.00323472
0.00311655
0.00304281
0.00284525
0.00237104
0.00178829
0.00138021
0.00124008
0.00153859
0.00251122
0.00342826
0.00497758
0.00577393
0.0060591
0.00619213
0.00629149
0.00638692
0.00647847
0.00655975
0.00661638
0.00662844
0.00657529
0.00644121
0.00622423
0.00594325
0.00563447
0.00532389
0.00499676
0.00464285
0.0042835
0.00392557
0.0035496
0.00319358
0.00294621
0.00279218
0.00267905
0.00259747
0.00258381
0.00253436
0.00223895
0.00177009
0.00142586
0.00126989
0.00148591
0.00257949
0.00369156
0.00557692
0.00561092
0.0060794
0.00625045
0.00635506
0.00644957
0.00654245
0.00662566
0.00667176
0.00664613
0.00652466
0.00629947
0.00598038
0.00559849
0.00519722
0.00476285
0.00426788
0.00374372
0.00322254
0.0026801
0.00209483
0.00171884
0.00174053
0.00188953
0.00198437
0.00199952
0.00194018
0.00180192
0.00159697
0.00141158
0.00135083
0.00152553
0.00209278
0.00311542
0.00414547
0.00573738
0.00573198
0.0062205
0.00634445
0.00639699
0.00643513
0.00647568
0.00652658
0.00657828
0.00659745
0.00654229
0.00637976
0.0060995
0.00571432
0.00523764
0.00465734
0.00392256
0.0030443
0.00232933
0.00207186
0.00195156
0.00182424
0.00170517
0.00163127
0.00158423
0.00153806
0.00148156
0.00141595
0.00135492
0.0013247
0.0013536
0.00156505
0.00234064
0.00343928
0.00436167
0.00548847
0.00585814
0.00635954
0.00653978
0.0066351
0.00669259
0.00671376
0.00670611
0.00668649
0.00666806
0.00664493
0.00658827
0.006461
0.00623504
0.00590437
0.00548388
0.00500261
0.00450147
0.00400714
0.00348176
0.00285373
0.00223939
0.00187864
0.0016835
0.0015428
0.00142009
0.00131136
0.00122518
0.00118165
0.00122927
0.00146398
0.00192128
0.00256238
0.00359487
0.00441738
0.00510925
0.00563928
0.00637995
0.00675084
0.00698553
0.00714904
0.00722905
0.00721592
0.00711771
0.00697015
0.00681685
0.00668102
0.00655807
0.00642311
0.00624631
0.00601097
0.00571968
0.00538139
0.00499295
0.00453123
0.00396005
0.00326191
0.00253694
0.00201079
0.00173482
0.00157559
0.00144302
0.00131837
0.00121809
0.00120114
0.00143716
0.00222499
0.00336094
0.00398067
0.00439974
0.00466615
0.00528887
0.00649315
0.00707073
0.00743553
0.00771099
0.00789385
0.00796389
0.00790107
0.00770575
0.00741563
0.0070919
0.00679074
0.00653988
0.00632223
0.00609578
0.00583219
0.00552661
0.00518689
0.0048215
0.00443171
0.00400691
0.00351751
0.00292257
0.00228509
0.00182672
0.00158068
0.00142889
0.00130072
0.0011744
0.00107556
0.00117135
0.00233682
0.00363835
0.00437003
0.00528828
0.0052353
0.00667272
0.00736353
0.00781406
0.00819472
0.00851741
0.00874831
0.00883809
0.00875073
0.00847628
0.00803408
0.00749182
0.0069785
0.00659764
0.00632012
0.00606422
0.00578233
0.0054659
0.00512796
0.00478119
0.00440355
0.00396953
0.00345881
0.00283254
0.00216172
0.00165049
0.00136846
0.00120748
0.00110468
0.00134479
0.00202722
0.00246698
0.00359412
0.00450735
0.0055889
0.0064044
0.00731262
0.00780075
0.00818188
0.00856736
0.00895901
0.00931078
0.00954429
0.0095997
0.0094603
0.00911097
0.00851124
0.00772328
0.00703488
0.00659432
0.00629773
0.00602795
0.00574379
0.00545428
0.00515262
0.00481193
0.00441878
0.00397382
0.00344743
0.00279584
0.00208301
0.0015061
0.00118376
0.00108229
0.00138036
0.00258351
0.00417121
0.00458711
0.00487128
0.0048928
0.00795062
0.00793784
0.00806514
0.00831725
0.00867099
0.00905229
0.00938864
0.00961121
0.00967563
0.00957571
0.0093105
0.00883763
0.00811367
0.00734033
0.00679584
0.00644949
0.0061863
0.00595658
0.00573368
0.00548483
0.00518981
0.00485159
0.00447359
0.00406201
0.00360624
0.00306193
0.00242787
0.00184646
0.00139946
0.000998585
0.000763781
0.00240527
0.00385536
0.00443099
0.00521537
0.00786071
0.00753154
0.00760758
0.00797655
0.00844518
0.0088397
0.00910159
0.00922166
0.0092026
0.00904576
0.00874377
0.00829739
0.00777116
0.00729386
0.0069236
0.00663051
0.00637201
0.00611614
0.0058411
0.0055313
0.00518149
0.00479741
0.00438085
0.00390474
0.00331425
0.00259826
0.00182379
0.0012252
0.00111325
0.00131559
0.000936914
0.00116269
0.0033391
0.00477533
0.00665931
0.00569251
0.00579734
0.00608481
0.00656829
0.00703227
0.00743695
0.00779688
0.00808123
0.00824785
0.00827914
0.00819396
0.00803546
0.00783151
0.00758576
0.00730533
0.00700308
0.00668741
0.00635967
0.00602035
0.00567191
0.00529116
0.00485708
0.00437295
0.00384172
0.00320359
0.00238285
0.00144759
0.000840935
0.0013938
0.00293049
0.00422142
0.00445235
0.00499979
0.00556755
0.00538649
0.00389965
0.00458806
0.0045842
0.00455685
0.00462551
0.00486847
0.0053154
0.00591036
0.00656311
0.00718431
0.00767127
0.0079612
0.00806361
0.00801312
0.00785031
0.00761443
0.007336
0.00703271
0.00671319
0.00638076
0.00603481
0.00567074
0.00528107
0.00485414
0.00437047
0.0038097
0.00315414
0.0023426
0.00125187
0.000571042
0.0017385
0.0039923
0.0048432
0.00490709
0.00387341
0.00352226
0.00487679
0.00480819
0.0044854
0.00406207
0.00358449
0.00314771
0.00286926
0.00286988
0.00341644
0.00454904
0.00578485
0.00673214
0.00731567
0.00759639
0.00765217
0.00755083
0.00734469
0.00706937
0.00675028
0.00640341
0.0060347
0.00564
0.00520877
0.00473205
0.0042046
0.00355888
0.00278866
0.00204552
0.00128391
0.000521414
0.00067303
0.00307921
0.00443006
0.00597681
0.00443273
0.00647739
0.00707836
0.00717129
0.00695901
0.00640891
0.00546192
0.00408054
0.00220298
0.000462153
0.000475908
0.00208736
0.00397788
0.00546717
0.00643814
0.00697635
0.00721529
0.00727179
0.00719009
0.00698963
0.00668816
0.00630109
0.00584224
0.00532655
0.00477627
0.00417682
0.00334516
0.00242688
0.00292498
0.00309975
0.00226555
0.00151074
0.0035003
0.00522232
0.00728872
0.00601856
0.00753297
0.00813895
0.00839442
0.00846676
0.0083361
0.0078965
0.00693414
0.0050331
0.0021001
0.000267454
0.000827204
0.00246264
0.00406866
0.00531353
0.00612857
0.00658897
0.00685225
0.00697927
0.006975
0.00684781
0.00660741
0.00626334
0.00582599
0.00531076
0.00470984
0.00394324
0.0029756
0.00289118
0.00406295
0.00430096
0.00403312
0.00478882
0.00551461
0.00532968
0.00662178
0.00731102
0.00753164
0.00762737
0.00768961
0.00772673
0.00769857
0.007482
0.00682425
0.00540439
0.00347576
0.00233753
0.00241936
0.003214
0.00422731
0.00513506
0.0057982
0.00623316
0.00649857
0.00663754
0.00667216
0.00661095
0.00645747
0.00621761
0.00588929
0.00545359
0.00485379
0.00396391
0.00295902
0.00318592
0.00439236
0.00514499
0.00547944
0.00548426
0.00405288
0.00597475
0.00713059
0.0075433
0.00770291
0.00779274
0.00789365
0.00806468
0.0083102
0.00850836
0.00836521
0.00742572
0.00564539
0.00389239
0.00292763
0.00288795
0.00348305
0.00430274
0.00504396
0.00559314
0.0059575
0.00617416
0.00627256
0.00627176
0.00618548
0.00602114
0.00576399
0.0053523
0.00469633
0.0037818
0.00304003
0.00315289
0.0039419
0.00459582
0.00481855
0.00467776
0.00640849
0.00792838
0.00839915
0.00853843
0.00856453
0.00857192
0.00863487
0.00879837
0.00909298
0.00946818
0.00969411
0.00939469
0.00821311
0.00627138
0.00429429
0.00300177
0.00272501
0.0032375
0.00404276
0.00476807
0.00528906
0.00561789
0.0057935
0.00584792
0.00580202
0.00565482
0.00536148
0.00493105
0.00442998
0.00380746
0.00322921
0.003015
0.00391703
0.0047833
0.00597228
0.00818698
0.00874904
0.00866207
0.00851877
0.00841763
0.00846468
0.00869746
0.00895783
0.00915129
0.00938834
0.00975433
0.0101015
0.0101931
0.00982091
0.00868842
0.00669814
0.00450493
0.00300649
0.00270295
0.00325224
0.00401194
0.00464127
0.00507131
0.00532669
0.00543652
0.00541523
0.00524489
0.00492511
0.00466789
0.00436124
0.00382123
0.00326669
0.00400571
0.00506993
0.00639881
0.0104828
0.00922618
0.00847769
0.00800861
0.00776912
0.00798083
0.00867317
0.00941676
0.00988621
0.0100818
0.0101555
0.0102466
0.0103407
0.0103331
0.0101432
0.00963504
0.00845198
0.00634781
0.00408976
0.00281119
0.00283411
0.0034573
0.00409818
0.00458267
0.00489867
0.00506008
0.00506515
0.00489042
0.00464298
0.00451389
0.00424204
0.00389441
0.00433549
0.00512785
0.00603852
0.0106841
0.00873195
0.00807785
0.00769863
0.00751101
0.00770749
0.00832176
0.00910661
0.00982522
0.0103589
0.0106828
0.0108242
0.0108353
0.0107505
0.0105699
0.0102881
0.00986795
0.00912421
0.00762354
0.00533208
0.0034065
0.00284269
0.00320049
0.00375179
0.0042335
0.00459194
0.00480579
0.00483847
0.00468153
0.00455841
0.0045263
0.00446317
0.00472511
0.00518089
0.00570018
0.00898509
0.00853946
0.00860834
0.0085679
0.00835072
0.00797313
0.00762643
0.007614
0.00807517
0.00886327
0.00970781
0.0104086
0.0108847
0.0111219
0.0111324
0.0109519
0.0106321
0.0102014
0.00959283
0.00851519
0.00651799
0.0042528
0.00312531
0.00317497
0.00360888
0.00406239
0.00442129
0.00461147
0.00459087
0.00452023
0.00470036
0.0049234
0.00513888
0.00537586
0.00564358
0.00809977
0.00924729
0.00969651
0.00982972
0.00970302
0.00923725
0.00837272
0.00727942
0.00645793
0.006402
0.00717492
0.00837296
0.00954283
0.0104533
0.0110397
0.0113022
0.0112789
0.0110407
0.0106518
0.0101075
0.00923065
0.00756969
0.00513854
0.00347891
0.00328413
0.00378456
0.00435982
0.00469404
0.00469293
0.00453152
0.0046455
0.00503186
0.00530656
0.00552854
0.00584458
0.00867568
0.00951457
0.00989978
0.0101765
0.0104241
0.0105685
0.010403
0.00963057
0.0081282
0.00642385
0.00558028
0.00608517
0.00740749
0.00884824
0.0100318
0.0108479
0.0113038
0.0114473
0.0113422
0.0110475
0.0105797
0.0098511
0.00855325
0.0063842
0.00429122
0.00347694
0.00381386
0.00447243
0.00482618
0.00477706
0.00470757
0.005017
0.00537742
0.00570206
0.00602603
0.00919192
0.00926466
0.00942001
0.00957954
0.00977995
0.0100372
0.010314
0.0104528
0.0100623
0.00864544
0.00656112
0.00530394
0.00563341
0.00692792
0.00841304
0.00966137
0.0105413
0.011073
0.0113151
0.0113237
0.0111445
0.0107967
0.0102349
0.00927659
0.00765385
0.005765
0.00457712
0.00439408
0.0046655
0.00480639
0.00477762
0.00496061
0.00531279
0.00567467
0.00595669
0.0098271
0.0096197
0.00954653
0.00946367
0.00934647
0.00920378
0.00910826
0.00916502
0.00929239
0.00901115
0.00775978
0.0059922
0.00506559
0.00545852
0.00664796
0.00802439
0.00915885
0.0099068
0.0103063
0.0104237
0.0102909
0.00990016
0.00921988
0.00822734
0.00697775
0.00572107
0.00485034
0.00455937
0.00467625
0.00482286
0.00482966
0.0049259
0.00521007
0.00556603
0.00594369
0.0106674
0.00982115
0.00955997
0.00941029
0.00923795
0.00894571
0.0085135
0.00812483
0.00797872
0.00789658
0.00744579
0.00648946
0.00544956
0.00492328
0.00519582
0.00621258
0.00755201
0.00866312
0.009338
0.00963596
0.00963428
0.00936752
0.00885059
0.00811733
0.00725002
0.00638528
0.00567935
0.00524682
0.00510646
0.00511591
0.00510155
0.00514815
0.00535129
0.00564806
0.00589017
0.0107075
0.00939966
0.00908778
0.00897634
0.00888203
0.00866084
0.00823355
0.00772642
0.00740086
0.00732678
0.00728344
0.007043
0.00649051
0.00562973
0.00468038
0.00423817
0.00500322
0.00662143
0.00811809
0.00906375
0.00951479
0.00960549
0.00941706
0.00900153
0.00841229
0.00771908
0.00700594
0.00636287
0.00588239
0.00560984
0.00548099
0.00546951
0.00557838
0.00574954
0.00570139
0.00920469
0.0086119
0.00858246
0.00861868
0.00863271
0.00855473
0.00832136
0.00789513
0.00733853
0.00681996
0.00646799
0.00626119
0.00609486
0.00584541
0.00536854
0.00450726
0.00346271
0.00376728
0.00547756
0.00725966
0.00851684
0.00920738
0.00947292
0.00942862
0.00914928
0.00868669
0.00808587
0.00740267
0.00673605
0.00622322
0.00592978
0.00583063
0.00585143
0.0059155
0.00571917
0.00833595
0.00858371
0.00878894
0.00894346
0.00906771
0.00915497
0.00919056
0.00912281
0.00886216
0.00835278
0.00766619
0.0069651
0.00638388
0.00597437
0.00571582
0.005523
0.00517301
0.00418013
0.00381748
0.0050604
0.00674593
0.00812354
0.00899254
0.00942086
0.00950989
0.00932974
0.00892123
0.00830986
0.00756409
0.00687512
0.0064275
0.00622035
0.00614473
0.00609873
0.00580143
0.00824377
0.00865831
0.00897541
0.0092193
0.00941986
0.00954541
0.00956329
0.00946547
0.00926677
0.00896812
0.00854174
0.00797494
0.007311
0.00662333
0.00596377
0.00536646
0.00493742
0.00467424
0.00397115
0.00377581
0.00484261
0.00634413
0.00765454
0.00854768
0.0090451
0.00922083
0.00912643
0.00877814
0.00819014
0.00750042
0.0069722
0.0066822
0.00652864
0.00639796
0.00608141
0.00803667
0.0086709
0.00911838
0.00946109
0.00978432
0.010075
0.0102718
0.0102742
0.00998434
0.00937903
0.0085203
0.00752568
0.00653674
0.00566758
0.0049275
0.00430034
0.00405798
0.00437613
0.00483047
0.00533026
0.00606498
0.0069668
0.00783873
0.00852632
0.00896584
0.00915886
0.00911913
0.00884092
0.00831695
0.007668
0.00717727
0.00691713
0.00675904
0.00658287
0.00606707
0.00842247
0.00900527
0.00940008
0.00969586
0.00998576
0.0103002
0.0106402
0.0109502
0.0111061
0.0109522
0.0103485
0.0092361
0.0077259
0.00611782
0.00469173
0.00369295
0.00380187
0.00494528
0.00578278
0.00629925
0.00680731
0.00740935
0.00804889
0.0086067
0.00898983
0.00915986
0.00910764
0.00882217
0.00830984
0.00770227
0.00725308
0.00700383
0.00681027
0.00650809
0.005501
0.00936723
0.00952671
0.0098398
0.0101224
0.0103851
0.0106002
0.0107485
0.0108361
0.0108732
0.0108275
0.0106122
0.0100843
0.00907969
0.00760344
0.00600151
0.00456169
0.00342573
0.00364489
0.0051146
0.00613356
0.00676018
0.00728986
0.00781913
0.00832
0.0087186
0.0089499
0.00897149
0.00876239
0.00833412
0.00779937
0.00736448
0.00708068
0.00682833
0.00641028
0.00509302
0.00942798
0.0095177
0.00990062
0.0102955
0.0107112
0.0111015
0.0114043
0.0115604
0.0115495
0.0113909
0.0111016
0.0106576
0.0099588
0.00885323
0.00733817
0.00576185
0.00433066
0.00297718
0.00289915
0.00477881
0.00607152
0.00685621
0.00746301
0.00798133
0.00838646
0.00865019
0.00874735
0.00865087
0.00835421
0.00792425
0.00750903
0.00718396
0.00688332
0.0064224
0.00512996
0.00959304
0.00957051
0.00991317
0.0102951
0.0107098
0.0111079
0.0114384
0.0116633
0.011753
0.0116825
0.0114371
0.0110067
0.0103571
0.00941619
0.00813991
0.0066784
0.0053444
0.00420135
0.00303507
0.00267178
0.00457147
0.00590695
0.00675459
0.00743833
0.00800032
0.00838271
0.00856966
0.00857231
0.00839431
0.00807153
0.00770337
0.00737091
0.00705527
0.00660405
0.00543083
0.0094557
0.0095211
0.00993677
0.0103933
0.0108812
0.0113161
0.0116185
0.0117602
0.0117606
0.0116384
0.011389
0.0109897
0.0104063
0.0096
0.00855661
0.00735056
0.00614312
0.00504423
0.00399779
0.00291199
0.00274807
0.00469187
0.00590549
0.00671663
0.00744045
0.00804531
0.00840762
0.00851731
0.00843212
0.00820249
0.00790154
0.00759351
0.00727173
0.00678849
0.00553018
0.00893662
0.00930244
0.00979568
0.0102991
0.0108454
0.0113585
0.0117481
0.0119659
0.0120123
0.0119049
0.0116535
0.0112515
0.0106819
0.00992896
0.00900038
0.00795265
0.00688888
0.00588349
0.00489589
0.00379919
0.00266391
0.00295784
0.00505867
0.0061133
0.00681824
0.00754137
0.00818428
0.00850956
0.00852005
0.00834326
0.00807444
0.00777263
0.00743105
0.00689233
0.00550395
0.0088522
0.00919849
0.00964537
0.0101487
0.0107479
0.0113443
0.0118101
0.0120877
0.0121888
0.0121436
0.0119672
0.0116559
0.0111947
0.0105708
0.00978784
0.00887982
0.00791322
0.00695747
0.00601697
0.00498992
0.00370527
0.00241228
0.00308701
0.00537582
0.00639715
0.00692774
0.00752753
0.00815008
0.0084594
0.00843788
0.00824182
0.00796514
0.00762347
0.00707008
0.00561322
0.00869734
0.00890333
0.00930844
0.00984966
0.0105798
0.0113584
0.0119825
0.0123656
0.012529
0.0125248
0.0123921
0.0121482
0.011792
0.0113119
0.0106986
0.00995885
0.0091233
0.00824112
0.00734735
0.00641693
0.00532969
0.00389034
0.00241094
0.00294668
0.00538191
0.00677431
0.0072363
0.00759123
0.00802425
0.00826198
0.00824143
0.00806266
0.00776619
0.00720996
0.00559727
0.0083288
0.00838944
0.00868994
0.00917874
0.00996954
0.0109465
0.0118251
0.0124478
0.0128107
0.0129597
0.0129389
0.0127812
0.0125064
0.0121227
0.0116311
0.0110341
0.0103419
0.00957776
0.00876495
0.00790848
0.00697819
0.00586941
0.00440917
0.00278997
0.00261934
0.00474926
0.00684578
0.00757612
0.00779431
0.00795425
0.00801614
0.00793951
0.00771861
0.00717657
0.00536795
0.00822115
0.008065
0.00820352
0.00855286
0.00926506
0.0103277
0.0114189
0.0122792
0.0128625
0.013208
0.0133569
0.0133401
0.0131813
0.012898
0.012503
0.0120084
0.0114292
0.0107828
0.0100853
0.00934554
0.00855379
0.00768252
0.00665978
0.00534534
0.00371527
0.00270823
0.00385519
0.00636912
0.00755247
0.00786693
0.00790883
0.00782826
0.00762837
0.00711547
0.00527844
0.0080225
0.00780148
0.00784019
0.00803888
0.00853238
0.00948751
0.010712
0.0118211
0.0126558
0.0132285
0.013582
0.0137488
0.0137517
0.0136082
0.013333
0.0129411
0.0124519
0.0118901
0.0112798
0.010635
0.00995905
0.00924023
0.00845237
0.00754583
0.00639778
0.00486991
0.00331619
0.00326009
0.00573148
0.0071771
0.0076452
0.00771787
0.00760256
0.00719305
0.00562145
0.00802935
0.00793775
0.00797878
0.0080532
0.00823576
0.00879228
0.00989373
0.0111585
0.0122258
0.0130197
0.0135733
0.0139252
0.0141017
0.0141202
0.0139937
0.0137333
0.0133536
0.0128772
0.0123326
0.0117474
0.0111393
0.0105094
0.00984
0.00910411
0.00825619
0.00719027
0.00571974
0.00382461
0.00323042
0.00535071
0.0067479
0.00730331
0.00744641
0.00727465
0.0062488
0.00813261
0.00829216
0.0084455
0.00853064
0.00856334
0.0086982
0.00941151
0.0106217
0.0118134
0.012764
0.013468
0.0139637
0.0142811
0.0144391
0.0144501
0.0143229
0.0140663
0.0136947
0.0132309
0.0127035
0.0121386
0.0115497
0.0109335
0.0102723
0.00953592
0.00867557
0.00756347
0.00590509
0.00347735
0.00369324
0.0055298
0.00665565
0.00714869
0.0072969
0.00691967
0.00866365
0.00881046
0.00900332
0.00916769
0.0092884
0.00934381
0.00972225
0.0106882
0.0118068
0.0127664
0.0135123
0.0140675
0.0144567
0.0146964
0.0147972
0.0147657
0.0146073
0.0143303
0.0139495
0.0134879
0.0129707
0.0124151
0.0118246
0.011189
0.0104871
0.00968538
0.00870863
0.00735022
0.00515829
0.00326456
0.00459426
0.00606944
0.00684733
0.00726936
0.00737778
0.00936607
0.00902671
0.00906058
0.00926847
0.00964948
0.0100613
0.010571
0.0113835
0.0122995
0.0131176
0.0137885
0.0143157
0.014708
0.0149719
0.0151125
0.0151331
0.0150364
0.0148265
0.014512
0.0141091
0.0136371
0.0131116
0.0125384
0.0119121
0.0112176
0.0104291
0.00949007
0.00823672
0.00629671
0.00379026
0.0041865
0.00571657
0.00663336
0.00722717
0.00755047
0.00982232
0.00891276
0.0086766
0.00885887
0.00955589
0.0104344
0.0112849
0.0121037
0.0128644
0.0135404
0.0141201
0.0145976
0.0149688
0.0152317
0.0153861
0.0154324
0.0153719
0.0152071
0.014943
0.0145899
0.0141607
0.0136662
0.0131117
0.0124944
0.0118034
0.0110168
0.0100856
0.00887752
0.00711249
0.00470622
0.00425574
0.00559679
0.00651294
0.00715879
0.00749168
0.0095661
0.0084187
0.00803224
0.00827302
0.00929213
0.0104426
0.0114233
0.0122473
0.0129683
0.0136107
0.014174
0.0146508
0.0150337
0.0153179
0.0155012
0.0155828
0.0155633
0.0154445
0.0152299
0.0149264
0.0145427
0.0140862
0.0135611
0.0129658
0.0122922
0.0115226
0.0106188
0.00948202
0.00788562
0.00569946
0.0046631
0.00561716
0.00644395
0.00708628
0.00744436
0.00894151
0.00781032
0.00741646
0.00772968
0.00882225
0.00993321
0.0108758
0.0117047
0.012457
0.01314
0.0137487
0.0142753
0.0147127
0.0150559
0.0153016
0.0154485
0.0154963
0.0154456
0.0152988
0.0150607
0.0147377
0.014336
0.0138593
0.013307
0.0126731
0.0119422
0.0110845
0.0100215
0.00856737
0.00659331
0.00531264
0.0058531
0.00651658
0.00709122
0.00739558
0.00818456
0.00718848
0.00679302
0.00690166
0.00771614
0.00874529
0.00972199
0.0106108
0.0114257
0.0121718
0.012846
0.0134427
0.013956
0.0143812
0.0147147
0.0149537
0.015095
0.0151368
0.0150787
0.0149237
0.0146765
0.0143428
0.0139268
0.0134291
0.0128442
0.0121567
0.0113357
0.0103026
0.00890886
0.00715097
0.00601773
0.00628824
0.00673823
0.00714821
0.00709393
0.00759691
0.00693086
0.00653657
0.00623753
0.00635662
0.00712833
0.00817725
0.00917417
0.0100689
0.010878
0.0116111
0.0122693
0.012851
0.0133542
0.0137767
0.0141146
0.0143622
0.0145128
0.0145606
0.0145037
0.0143447
0.0140879
0.0137373
0.0132931
0.0127478
0.0120843
0.0112677
0.0102317
0.00891658
0.00750281
0.00671919
0.00680432
0.00700959
0.00714707
0.00640892
0.00737972
0.00728887
0.00697216
0.00648951
0.00579054
0.00567401
0.00655368
0.00768513
0.00870031
0.00957863
0.010357
0.0110531
0.0116737
0.0122221
0.012701
0.0131109
0.0134467
0.0136971
0.0138479
0.0138888
0.0138174
0.0136351
0.0133438
0.012941
0.0124154
0.0117498
0.0109216
0.00992086
0.00881148
0.00783106
0.00734756
0.00728454
0.007258
0.0070441
0.00563049
0.00824387
0.00810302
0.00775713
0.00734197
0.00652958
0.00549257
0.00577744
0.00685114
0.00790845
0.00879329
0.00954804
0.0102114
0.0107995
0.0113222
0.0117892
0.0122091
0.0125824
0.0128963
0.0131275
0.0132531
0.0132601
0.0131443
0.0129041
0.0125331
0.0120159
0.0113419
0.0105152
0.00959476
0.0087225
0.0080813
0.00775739
0.00759555
0.00739407
0.00688082
0.00508681
0.00997373
0.00837218
0.00758815
0.00718715
0.00682914
0.00615692
0.00635579
0.00727177
0.00811705
0.00880419
0.00939053
0.0099089
0.0103731
0.0107925
0.0111781
0.0115419
0.0118903
0.0122152
0.0124902
0.01268
0.0127562
0.0127046
0.0125185
0.0121872
0.011694
0.0110323
0.010228
0.00938377
0.00867031
0.00820479
0.00793706
0.00772216
0.00742236
0.00675474
0.00486574
0.0102802
0.00751455
0.00634822
0.00609774
0.0065368
0.00693027
0.00749935
0.00810095
0.00859887
0.00904439
0.00945412
0.00983029
0.0101738
0.010489
0.0107842
0.0110712
0.0113613
0.0116568
0.0119403
0.0121746
0.0123161
0.0123361
0.0122205
0.0119555
0.0115239
0.0109194
0.0101682
0.00937404
0.00870549
0.00825995
0.0079674
0.00770578
0.00735583
0.00665316
0.00484455
0.00788067
0.00583377
0.0053212
0.00567425
0.00637445
0.0069196
0.00742836
0.00794077
0.00842884
0.00886397
0.00924739
0.00958508
0.00988264
0.0101477
0.0103894
0.0106207
0.0108577
0.0111144
0.011392
0.0116655
0.0118827
0.0119941
0.0119723
0.0118014
0.0114655
0.010958
0.0102969
0.00956438
0.00890612
0.0084214
0.00807156
0.00776236
0.00738549
0.00669859
0.00498162
0.00584638
0.00622139
0.00620901
0.00595011
0.00564386
0.00550318
0.00561747
0.00615826
0.00698605
0.00777124
0.00840783
0.00891235
0.00931249
0.00963196
0.00989216
0.0101146
0.0103193
0.010532
0.0107774
0.0110643
0.0113584
0.01159
0.0117003
0.0116595
0.0114513
0.0110699
0.0105235
0.00986782
0.00921914
0.00868218
0.00826133
0.00789334
0.00747928
0.00678781
0.00512183
0.00567193
0.00752962
0.00763627
0.00728488
0.00669678
0.00597826
0.00500535
0.00420372
0.00461408
0.00577695
0.00692333
0.00782002
0.00849377
0.00899852
0.00937523
0.00965756
0.00987595
0.0100613
0.0102483
0.0104781
0.0107705
0.0110831
0.0113267
0.0114334
0.0113751
0.0111454
0.0107458
0.0102095
0.00962006
0.00907378
0.00860639
0.00818816
0.00773698
0.00702765
0.00537691
0.00685259
0.00788354
0.00793175
0.007819
0.00773062
0.00768873
0.00699373
0.00504209
0.00403678
0.00475899
0.00607584
0.0072133
0.00804248
0.00864528
0.0090894
0.00941791
0.00965768
0.00983389
0.00997769
0.0101267
0.0103304
0.010616
0.0109273
0.0111531
0.011224
0.0111253
0.0108577
0.0104414
0.00993495
0.00941692
0.00893283
0.00847595
0.0079798
0.00721987
0.00555419
0.00979917
0.00840897
0.0073819
0.00660513
0.00628566
0.0068558
0.00715518
0.00609918
0.00532515
0.00607639
0.00723164
0.00804383
0.00857323
0.00898691
0.00933702
0.0096102
0.00980749
0.00993817
0.0100195
0.0100785
0.0101604
0.0103221
0.0105825
0.010858
0.0110288
0.0110415
0.0108891
0.0105861
0.010174
0.00971325
0.00924701
0.00878117
0.0082627
0.00746936
0.00577067
0.0120413
0.00835317
0.00645593
0.00517197
0.0050611
0.006002
0.00659451
0.00697942
0.00778336
0.00850542
0.00895868
0.00930623
0.00959814
0.00984638
0.0100488
0.0101998
0.0102964
0.0103413
0.0103426
0.0103122
0.0102743
0.0102816