/*--------------------------------*- C++ -*----------------------------------*\
| =========                 |                                                 |
| \\      /  F ield         | OpenFOAM: The Open Source CFD Toolbox           |
|  \\    /   O peration     | Version:  v1906                                 |
|   \\  /    A nd           | Web:      www.OpenFOAM.com                      |
|    \\/     M anipulation  |                                                 |
\*---------------------------------------------------------------------------*/
FoamFile
{
    version     2.0;
    format      ascii;
    class       surfaceScalarField;
    location    "23";
    object      phi;
}
// * * * * * * * * * * * * * * * * * * * * * * * * * * * * * * * * * * * * * //

dimensions      [1 0 -1 0 0 0 0];
oriented        oriented;


internalField   nonuniform List<scalar> 
228225
(
-7.69151e-09
1.21996e-08
-4.76151e-09
-2.84379e-08
3.19258e-08
-1.11775e-08
-5.83982e-08
4.36814e-08
-1.37236e-08
-9.58368e-08
5.2483e-08
-1.50418e-08
-1.38526e-07
5.84974e-08
-1.581e-08
-1.84119e-07
6.19246e-08
-1.63301e-08
-2.30899e-07
6.35544e-08
-1.67756e-08
-2.77639e-07
6.39854e-08
-1.72433e-08
-3.23528e-07
6.36604e-08
-1.77723e-08
-3.67667e-07
6.2511e-08
-1.83716e-08
-4.09094e-07
6.04178e-08
-1.89894e-08
-4.46881e-07
5.7514e-08
-1.97282e-08
-4.80311e-07
5.40588e-08
-2.06292e-08
-5.08699e-07
5.01113e-08
-2.17226e-08
-5.31595e-07
4.58408e-08
-2.29443e-08
-5.48606e-07
4.13341e-08
-2.43253e-08
-5.59525e-07
3.67168e-08
-2.57979e-08
-5.64181e-07
3.20268e-08
-2.73684e-08
-5.62565e-07
2.73653e-08
-2.898e-08
-5.54766e-07
2.27848e-08
-3.05873e-08
-5.40953e-07
1.8339e-08
-3.21498e-08
-5.2139e-07
1.40656e-08
-3.36286e-08
-4.96397e-07
9.99701e-09
-3.49882e-08
-4.66364e-07
6.15921e-09
-3.61933e-08
-4.31723e-07
2.57212e-09
-3.72135e-08
-3.92971e-07
-7.36815e-10
-3.80164e-08
-3.50621e-07
-3.77365e-09
-3.85745e-08
-3.05279e-07
-6.48862e-09
-3.88543e-08
-2.57595e-07
-8.8604e-09
-3.8824e-08
-2.08322e-07
-1.08392e-08
-3.84333e-08
-1.58356e-07
-1.23623e-08
-3.76027e-08
-1.08901e-07
-1.33119e-08
-3.61436e-08
-6.18665e-08
-1.34695e-08
-3.35664e-08
-2.08987e-08
-1.24856e-08
-2.84795e-08
-7.83409e-09
-1.30664e-08
-2.47128e-08
5.87216e-08
-2.18082e-08
-7.50207e-08
1.05012e-07
-2.27809e-08
-1.33908e-07
1.25984e-07
-2.3414e-08
-1.95956e-07
1.39224e-07
-2.46931e-08
-2.57069e-07
1.45712e-07
-2.61024e-08
-3.14339e-07
1.46741e-07
-2.7546e-08
-3.65693e-07
1.4402e-07
-2.91119e-08
-4.09901e-07
1.38977e-07
-3.07828e-08
-4.46395e-07
1.3259e-07
-3.24375e-08
-4.75141e-07
1.25194e-07
-3.39345e-08
-4.96434e-07
1.16936e-07
-3.52267e-08
-5.10766e-07
1.08166e-07
-3.63191e-08
-5.18662e-07
9.9168e-08
-3.72142e-08
-5.2061e-07
9.00086e-08
-3.79488e-08
-5.17129e-07
8.09186e-08
-3.85583e-08
-5.08778e-07
7.20373e-08
-3.90547e-08
-4.96078e-07
6.34717e-08
-3.9456e-08
-4.79569e-07
5.5293e-08
-3.97731e-08
-4.59779e-07
4.75868e-08
-4.00136e-08
-4.37198e-07
4.03871e-08
-4.01823e-08
-4.12288e-07
3.37128e-08
-4.02846e-08
-3.85465e-07
2.75687e-08
-4.03248e-08
-3.57112e-07
2.1949e-08
-4.0305e-08
-3.27568e-07
1.68407e-08
-4.02276e-08
-2.97129e-07
1.22255e-08
-4.00904e-08
-2.66058e-07
8.08297e-09
-3.98917e-08
-2.34603e-07
4.39308e-09
-3.96218e-08
-2.02961e-07
1.13826e-09
-3.92689e-08
-1.71332e-07
-1.68433e-09
-3.88065e-08
-1.399e-07
-4.07112e-09
-3.81997e-08
-1.08861e-07
-5.99946e-09
-3.7402e-08
-7.84187e-08
-7.40159e-09
-3.63513e-08
-4.89452e-08
-8.14421e-09
-3.48005e-08
-2.15998e-08
-7.81791e-09
-3.20104e-08
-3.85135e-09
-2.55843e-08
-2.88986e-08
8.3901e-08
3.71745e-09
-7.0506e-08
1.42159e-07
4.46144e-09
-1.14687e-07
1.6561e-07
4.55629e-09
-1.58181e-07
1.78772e-07
3.9451e-09
-1.98792e-07
1.83637e-07
2.68666e-09
-2.35381e-07
1.82606e-07
7.23048e-10
-2.6721e-07
1.77778e-07
-1.92907e-09
-2.93428e-07
1.70499e-07
-5.30365e-09
-3.1339e-07
1.61765e-07
-9.21444e-09
-3.26924e-07
1.52122e-07
-1.33926e-08
-3.34524e-07
1.41945e-07
-1.74089e-08
-3.36831e-07
1.31428e-07
-2.09547e-08
-3.34575e-07
1.20722e-07
-2.38099e-08
-3.28576e-07
1.09985e-07
-2.59759e-08
-3.19549e-07
9.94963e-08
-2.76028e-08
-3.08095e-07
8.94398e-08
-2.88573e-08
-2.94712e-07
7.99185e-08
-2.98299e-08
-2.79821e-07
7.09934e-08
-3.05916e-08
-2.638e-07
6.2734e-08
-3.11686e-08
-2.46959e-07
5.51414e-08
-3.15951e-08
-2.29551e-07
4.81965e-08
-3.18909e-08
-2.11803e-07
4.18947e-08
-3.20762e-08
-1.93904e-07
3.62144e-08
-3.21642e-08
-1.76014e-07
3.11185e-08
-3.21667e-08
-1.58265e-07
2.65699e-08
-3.20927e-08
-1.40756e-07
2.2519e-08
-3.1947e-08
-1.23555e-07
1.89254e-08
-3.17331e-08
-1.06718e-07
1.57466e-08
-3.14462e-08
-9.02713e-08
1.29482e-08
-3.10779e-08
-7.42365e-08
1.05e-08
-3.06065e-08
-5.8622e-08
8.38648e-09
-3.00013e-08
-4.34332e-08
6.60388e-09
-2.91925e-08
-2.8722e-08
5.16985e-09
-2.80271e-08
-1.45324e-08
4.1147e-09
-2.61205e-08
3.32112e-09
-2.17057e-08
-2.75679e-08
8.13178e-08
3.01511e-08
-4.84553e-08
1.31011e-07
3.20344e-08
-6.64671e-08
1.51627e-07
3.19973e-08
-8.36343e-08
1.64094e-07
3.18432e-08
-1.01102e-07
1.6989e-07
3.12176e-08
-1.19155e-07
1.70928e-07
2.97278e-08
-1.3709e-07
1.68828e-07
2.68859e-08
-1.5388e-07
1.64439e-07
2.28495e-08
-1.68346e-07
1.58409e-07
1.78222e-08
-1.79615e-07
1.51062e-07
1.23305e-08
-1.87107e-07
1.42713e-07
6.72179e-09
-1.9065e-07
1.33578e-07
1.39257e-09
-1.90429e-07
1.23928e-07
-3.42831e-09
-1.86986e-07
1.14047e-07
-7.50567e-09
-1.80968e-07
1.04285e-07
-1.08057e-08
-1.73047e-07
9.49419e-08
-1.34247e-08
-1.63736e-07
8.62105e-08
-1.5602e-08
-1.53501e-07
7.81734e-08
-1.7414e-08
-1.42714e-07
7.0878e-08
-1.89329e-08
-1.3169e-07
6.43144e-08
-2.0196e-08
-1.2069e-07
5.84424e-08
-2.12466e-08
-1.09923e-07
5.32298e-08
-2.21032e-08
-9.95417e-08
4.86245e-08
-2.27897e-08
-8.96676e-08
4.4564e-08
-2.33213e-08
-8.03687e-08
4.0985e-08
-2.37137e-08
-7.16902e-08
3.78264e-08
-2.3983e-08
-6.364e-08
3.50122e-08
-2.41403e-08
-5.6165e-08
3.24681e-08
-2.4195e-08
-4.91718e-08
3.01071e-08
-2.41534e-08
-4.2501e-08
2.78479e-08
-2.40181e-08
-3.59221e-08
2.55887e-08
-2.37819e-08
-2.90834e-08
2.32257e-08
-2.34605e-08
-2.13703e-08
2.06049e-08
-2.31477e-08
-1.20921e-08
1.76663e-08
-2.28307e-08
1.22153e-08
-2.09857e-08
-1.6656e-08
6.28603e-08
3.51129e-08
-1.78621e-08
9.53266e-08
3.68906e-08
-1.3602e-08
1.10497e-07
3.68692e-08
-7.79794e-09
1.21532e-07
3.67589e-08
-2.83421e-09
1.2882e-07
3.61065e-08
3.53755e-10
1.32991e-07
3.47478e-08
1.7979e-09
1.34646e-07
3.27389e-08
1.90592e-09
1.34243e-07
3.00878e-08
1.29244e-09
1.32148e-07
2.6874e-08
5.32566e-10
1.28654e-07
2.31676e-08
8.89312e-11
1.24012e-07
1.91459e-08
2.00679e-10
1.18464e-07
1.50024e-08
9.04237e-10
1.12253e-07
1.09724e-08
2.0962e-09
1.05656e-07
7.19779e-09
3.64324e-09
9.89453e-08
3.79491e-09
5.38993e-09
9.23893e-08
8.04632e-10
7.1585e-09
8.61987e-08
-1.75788e-09
8.77205e-09
8.05056e-08
-3.9454e-09
1.00883e-08
7.53678e-08
-5.80397e-09
1.09832e-08
7.0799e-08
-7.38185e-09
1.13616e-08
6.67783e-08
-8.71348e-09
1.11679e-08
6.32565e-08
-9.83332e-09
1.03771e-08
6.01789e-08
-1.07646e-08
8.99896e-09
5.74743e-08
-1.15314e-08
7.06207e-09
5.50734e-08
-1.21517e-08
4.62672e-09
5.29007e-08
-1.26382e-08
1.77504e-09
5.08698e-08
-1.30082e-08
-1.34697e-09
4.88758e-08
-1.32836e-08
-4.56089e-09
4.68086e-08
-1.34886e-08
-7.60054e-09
4.45371e-08
-1.36481e-08
-1.0148e-08
4.19081e-08
-1.37722e-08
-1.17476e-08
3.8727e-08
-1.39036e-08
-1.16011e-08
3.47452e-08
-1.42859e-08
-8.51284e-09
2.97025e-08
-1.51225e-08
1.90687e-08
-1.53677e-08
-6.48296e-09
4.46961e-08
2.46483e-08
-3.41931e-09
6.65638e-08
2.56981e-08
4.20376e-09
7.74577e-08
2.54159e-08
1.45548e-08
8.59645e-08
2.52175e-08
2.63939e-08
9.2255e-08
2.47243e-08
3.88762e-08
9.66592e-08
2.38495e-08
5.13493e-08
9.95467e-08
2.26269e-08
6.33278e-08
1.0114e-07
2.11244e-08
7.44386e-08
1.0166e-07
1.93777e-08
8.43866e-08
1.01261e-07
1.74455e-08
9.29261e-08
1.00096e-07
1.53775e-08
9.98563e-08
9.82918e-08
1.32409e-08
1.05026e-07
9.59913e-08
1.10902e-08
1.08358e-07
9.33386e-08
8.98688e-09
1.0984e-07
9.04877e-08
6.97432e-09
1.0956e-07
8.75804e-08
5.08859e-09
1.07676e-07
8.47331e-08
3.35102e-09
1.04362e-07
8.20319e-08
1.78683e-09
9.98126e-08
7.95266e-08
3.89753e-10
9.4193e-08
7.72435e-08
-8.23745e-10
8.76689e-08
7.51768e-08
-1.87458e-09
8.03935e-08
7.33081e-08
-2.77737e-09
7.2517e-08
7.15967e-08
-3.54144e-09
6.41702e-08
7.00001e-08
-4.17873e-09
5.54896e-08
6.84574e-08
-4.70387e-09
4.66183e-08
6.69055e-08
-5.13309e-09
3.77142e-08
6.5259e-08
-5.48578e-09
2.89464e-08
6.34271e-08
-5.78345e-09
2.05184e-08
6.12893e-08
-6.05307e-09
1.26679e-08
5.87074e-08
-6.32089e-09
5.69035e-09
5.54928e-08
-6.60519e-09
-4.46727e-11
5.14174e-08
-6.95655e-09
-3.84521e-09
4.61675e-08
-7.62309e-09
-4.64208e-09
3.93134e-08
-8.81055e-09
2.43051e-08
-9.88043e-09
-2.234e-09
3.35479e-08
1.33821e-08
3.64947e-10
5.12581e-08
1.27067e-08
6.08979e-09
5.99239e-08
1.18109e-08
1.38737e-08
6.68342e-08
1.13453e-08
2.29658e-08
7.22571e-08
1.09063e-08
3.28018e-08
7.64869e-08
1.03367e-08
4.29072e-08
7.9778e-08
9.66342e-09
5.2856e-08
8.22901e-08
8.89932e-09
6.2311e-08
8.41521e-08
8.0549e-09
7.09886e-08
8.54553e-08
7.12645e-09
7.86732e-08
8.62788e-08
6.13257e-09
8.5184e-08
8.66905e-08
5.09062e-09
9.03764e-08
8.67647e-08
4.03304e-09
9.41586e-08
8.65743e-08
2.98401e-09
9.64769e-08
8.61951e-08
1.97289e-09
9.73523e-08
8.56896e-08
1.01627e-09
9.68448e-08
8.51135e-08
1.27922e-10
9.50442e-08
8.45022e-08
-6.71032e-10
9.20568e-08
8.38893e-08
-1.3751e-09
8.8012e-08
8.32806e-08
-1.99155e-09
8.30298e-08
8.26765e-08
-2.51706e-09
7.72371e-08
8.2057e-08
-2.95706e-09
7.07513e-08
8.14008e-08
-3.31687e-09
6.36898e-08
8.06673e-08
-3.60601e-09
5.6166e-08
7.98148e-08
-3.83332e-09
4.83034e-08
7.87791e-08
-4.01133e-09
4.02242e-08
7.74902e-08
-4.15171e-09
3.20764e-08
7.5846e-08
-4.27181e-09
2.40309e-08
7.37251e-08
-4.38905e-09
1.63067e-08
7.09553e-08
-4.52506e-09
9.17356e-09
6.73147e-08
-4.6874e-09
3.01794e-09
6.25047e-08
-4.93329e-09
-1.44968e-09
5.61242e-08
-5.48778e-09
-3.20294e-09
4.75924e-08
-6.52589e-09
2.85784e-08
-7.47606e-09
-9.82355e-10
2.76025e-08
6.92901e-09
-1.878e-09
4.62779e-08
5.87298e-09
-1.81519e-09
5.49606e-08
4.90197e-09
-9.52592e-10
6.16634e-08
4.30765e-09
5.51002e-10
6.69077e-08
3.84469e-09
2.63485e-09
7.10367e-08
3.36718e-09
5.26378e-09
7.43065e-08
2.84267e-09
8.35848e-09
7.69096e-08
2.28548e-09
1.18168e-08
7.89887e-08
1.70422e-09
1.55027e-08
8.06547e-08
1.11351e-09
1.92755e-08
8.19897e-08
5.18299e-10
2.29722e-08
8.30613e-08
-6.76773e-11
2.64477e-08
8.39203e-08
-6.31446e-10
2.95811e-08
8.46129e-08
-1.17295e-09
3.22866e-08
8.51746e-08
-1.68485e-09
3.44929e-08
8.56386e-08
-2.15469e-09
3.61551e-08
8.60268e-08
-2.57685e-09
3.72402e-08
8.63592e-08
-2.94206e-09
3.77369e-08
8.66457e-08
-3.25265e-09
3.76318e-08
8.68847e-08
-3.49908e-09
3.69284e-08
8.70646e-08
-3.68365e-09
3.56201e-08
8.71707e-08
-3.80716e-09
3.37269e-08
8.71719e-08
-3.87636e-09
3.12552e-08
8.7033e-08
-3.89639e-09
2.82501e-08
8.66997e-08
-3.87803e-09
2.475e-08
8.61091e-08
-3.82999e-09
2.08356e-08
8.51712e-08
-3.76622e-09
1.6601e-08
8.37769e-08
-3.69865e-09
1.21983e-08
8.17732e-08
-3.64398e-09
7.80074e-09
7.89668e-08
-3.61377e-09
3.65108e-09
7.50871e-08
-3.62323e-09
8.37499e-11
6.9786e-08
-3.71406e-09
-2.33101e-09
6.25722e-08
-4.0315e-09
-2.85593e-09
5.27969e-08
-4.68112e-09
3.09332e-08
-5.21071e-09
-1.73173e-09
2.51693e-08
4.16374e-09
-3.66706e-09
4.44951e-08
3.7203e-09
-5.40533e-09
5.34151e-08
3.2823e-09
-6.97062e-09
6.02479e-08
2.98177e-09
-8.28949e-09
6.55236e-08
2.70275e-09
-9.26677e-09
6.96295e-08
2.38385e-09
-9.83022e-09
7.28487e-08
2.02189e-09
-9.94094e-09
7.53953e-08
1.62381e-09
-9.58519e-09
7.74302e-08
1.20479e-09
-8.78156e-09
7.9076e-08
7.72755e-10
-7.56146e-09
8.04277e-08
3.42219e-10
-5.98073e-09
8.15586e-08
-7.64431e-11
-4.12671e-09
8.25264e-08
-4.6245e-10
-2.07009e-09
8.33756e-08
-8.16781e-10
8.8527e-11
8.41408e-08
-1.12516e-09
2.26472e-09
8.48462e-08
-1.38382e-09
4.36606e-09
8.55088e-08
-1.58428e-09
6.31773e-09
8.6136e-08
-1.72759e-09
8.04528e-09
8.67292e-08
-1.81031e-09
9.48546e-09
8.72803e-08
-1.83766e-09
1.0586e-08
8.77745e-08
-1.8097e-09
1.13063e-08
8.81868e-08
-1.73565e-09
1.16114e-08
8.84846e-08
-1.61907e-09
1.14957e-08
8.86229e-08
-1.47248e-09
1.09503e-08
8.85448e-08
-1.3021e-09
1.00084e-08
8.8176e-08
-1.12271e-09
8.69986e-09
8.74217e-08
-9.42604e-10
7.09652e-09
8.61592e-08
-7.7845e-10
5.28118e-09
8.4228e-08
-6.39774e-10
3.37283e-09
8.14174e-08
-5.42708e-10
1.51263e-09
7.74456e-08
-4.95701e-10
-1.11677e-10
7.19405e-08
-5.32517e-10
-1.1973e-09
6.43954e-08
-7.37384e-10
-1.35459e-09
5.41327e-08
-1.17822e-09
3.12058e-08
-1.62693e-09
-2.80391e-09
2.39498e-08
4.02383e-09
-5.83845e-09
4.32608e-08
4.2691e-09
-8.83119e-09
5.21191e-08
4.28638e-09
-1.1681e-08
5.88488e-08
4.2503e-09
-1.42837e-08
6.39929e-08
4.13264e-09
-1.65448e-08
6.79464e-08
3.94428e-09
-1.83915e-08
7.10023e-08
3.69391e-09
-1.97789e-08
7.33813e-08
3.40077e-09
-2.06753e-08
7.5251e-08
3.07536e-09
-2.10738e-08
7.67388e-08
2.73635e-09
-2.09833e-08
7.79443e-08
2.3935e-09
-2.04335e-08
7.89434e-08
2.06445e-09
-1.94603e-08
7.97975e-08
1.75693e-09
-1.81224e-08
8.05516e-08
1.48612e-09
-1.64814e-08
8.12424e-08
1.25638e-09
-1.46074e-08
8.18935e-08
1.07922e-09
-1.25762e-08
8.25228e-08
9.54697e-10
-1.04654e-08
8.31361e-08
8.90105e-10
-8.35223e-09
8.37336e-08
8.81933e-10
-6.30909e-09
8.43041e-08
9.3276e-10
-4.39971e-09
8.4832e-08
1.0334e-09
-2.68375e-09
8.52887e-08
1.18255e-09
-1.20569e-09
8.56399e-08
1.36697e-09
-1.52369e-12
8.5836e-08
1.582e-09
9.14524e-10
8.58188e-08
1.81127e-09
1.5324e-09
8.55094e-08
2.04764e-09
1.86984e-09
8.48128e-08
2.27257e-09
1.94876e-09
8.36032e-08
2.47724e-09
1.81115e-09
8.17229e-08
2.64179e-09
1.50872e-09
7.89622e-08
2.7577e-09
1.09984e-09
7.50501e-08
2.80528e-09
6.49502e-10
6.96237e-08
2.76543e-09
2.6962e-10
6.22031e-08
2.57284e-09
8.42956e-11
5.21325e-08
2.18528e-09
2.97206e-08
1.57007e-09
-3.69959e-09
2.31941e-08
4.45419e-09
-7.41156e-09
4.17671e-08
5.20659e-09
-1.10694e-08
5.02556e-08
5.52076e-09
-1.45421e-08
5.66707e-08
5.65197e-09
-1.77186e-08
6.15281e-08
5.64064e-09
-2.05073e-08
6.52108e-08
5.52462e-09
-2.28418e-08
6.80043e-08
5.33221e-09
-2.46657e-08
7.01275e-08
5.07809e-09
-2.59432e-08
7.17441e-08
4.78407e-09
-2.66535e-08
7.29845e-08
4.46325e-09
-2.67922e-08
7.39468e-08
4.13683e-09
-2.63781e-08
7.47129e-08
3.81611e-09
-2.54416e-08
7.53432e-08
3.51993e-09
-2.40385e-08
7.58901e-08
3.25614e-09
-2.22252e-08
7.63895e-08
3.0399e-09
-2.00784e-08
7.68724e-08
2.87466e-09
-1.76818e-08
7.73541e-08
2.77108e-09
-1.51182e-08
7.78466e-08
2.72751e-09
-1.24826e-08
7.83466e-08
2.74957e-09
-9.85501e-09
7.88477e-08
2.83024e-09
-7.32165e-09
7.93278e-08
2.97012e-09
-4.95222e-09
7.97618e-08
3.15713e-09
-2.80811e-09
8.01075e-08
3.38737e-09
-9.33607e-10
8.03188e-08
3.64446e-09
6.3331e-10
8.03297e-08
3.92088e-09
1.87837e-09
8.00673e-08
4.19691e-09
2.79838e-09
7.94318e-08
4.46235e-09
3.39785e-09
7.83071e-08
4.69583e-09
3.69854e-09
7.65365e-08
4.88632e-09
3.71812e-09
7.39281e-08
5.01264e-09
3.48202e-09
7.02246e-08
5.06319e-09
3.00369e-09
6.50947e-08
5.00764e-09
2.31329e-09
5.80953e-08
4.79809e-09
1.44132e-09
4.8632e-08
4.37259e-09
2.76377e-08
3.52403e-09
-3.67135e-09
2.257e-08
4.29435e-09
-7.47457e-09
4.02753e-08
5.29581e-09
-1.12973e-08
4.83322e-08
5.74661e-09
-1.49548e-08
5.43738e-08
5.9541e-09
-1.83055e-08
5.88965e-08
5.9829e-09
-2.12512e-08
6.22608e-08
5.89475e-09
-2.37088e-08
6.47464e-08
5.71465e-09
-2.56081e-08
6.65623e-08
5.46648e-09
-2.69036e-08
6.78739e-08
5.165e-09
-2.75601e-08
6.88079e-08
4.83287e-09
-2.75676e-08
6.94692e-08
4.48455e-09
-2.69332e-08
6.99392e-08
4.14177e-09
-2.56977e-08
7.02881e-08
3.81755e-09
-2.39081e-08
7.05695e-08
3.53163e-09
-2.1641e-08
7.08299e-08
3.29339e-09
-1.89879e-08
7.11005e-08
3.11743e-09
-1.6046e-08
7.14063e-08
3.00697e-09
-1.29261e-08
7.17569e-08
2.97049e-09
-9.74216e-09
7.21561e-08
3.00489e-09
-6.59845e-09
7.2592e-08
3.11256e-09
-3.60134e-09
7.30469e-08
3.28408e-09
-8.42131e-10
7.34869e-08
3.5158e-09
1.6022e-09
7.38729e-08
3.79216e-09
3.66697e-09
7.41484e-08
4.10361e-09
5.31749e-09
7.42508e-08
4.42959e-09
6.52731e-09
7.40981e-08
4.75766e-09
7.29697e-09
7.35977e-08
5.06589e-09
7.63465e-09
7.26288e-08
5.3412e-09
7.55991e-09
7.10493e-08
5.56117e-09
7.1046e-09
6.86712e-08
5.71318e-09
6.29199e-09
6.52622e-08
5.77413e-09
5.15592e-09
6.05086e-08
5.72217e-09
3.74181e-09
5.40119e-08
5.49762e-09
2.11769e-09
4.522e-08
5.03553e-09
2.5722e-08
4.03383e-09
-3.14938e-09
2.25672e-08
3.15368e-09
-6.81489e-09
3.97926e-08
4.14552e-09
-1.0678e-08
4.75885e-08
4.6094e-09
-1.44859e-08
5.3374e-08
4.80559e-09
-1.80334e-08
5.76273e-08
4.81795e-09
-2.11823e-08
6.07036e-08
4.70594e-09
-2.38142e-08
6.28778e-08
4.50082e-09
-2.5834e-08
6.43631e-08
4.21862e-09
-2.71654e-08
6.53259e-08
3.87973e-09
-2.77592e-08
6.59029e-08
3.49926e-09
-2.75892e-08
6.62022e-08
3.09779e-09
-2.66613e-08
6.6318e-08
2.69186e-09
-2.50061e-08
6.63259e-08
2.30747e-09
-2.26934e-08
6.62934e-08
1.96417e-09
-1.98187e-08
6.62725e-08
1.683e-09
-1.64982e-08
6.63068e-08
1.47338e-09
-1.28635e-08
6.64234e-08
1.34724e-09
-9.05236e-09
6.66405e-08
1.30646e-09
-5.21165e-09
6.69593e-08
1.35582e-09
-1.48237e-09
6.73727e-08
1.49042e-09
2.00074e-09
6.78559e-08
1.70818e-09
5.11445e-09
6.83758e-08
1.99691e-09
7.75855e-09
6.88818e-08
2.34712e-09
9.85275e-09
6.93157e-08
2.7369e-09
1.13589e-08
6.96021e-08
3.14575e-09
1.22501e-08
6.96578e-08
3.54666e-09
1.2545e-08
6.93798e-08
3.92349e-09
1.22672e-08
6.86502e-08
4.2563e-09
1.14659e-08
6.73201e-08
4.53118e-09
1.01999e-08
6.52098e-08
4.72837e-09
8.53828e-09
6.20883e-08
4.83334e-09
6.57165e-09
5.76605e-08
4.81713e-09
4.41058e-09
5.15434e-08
4.62725e-09
2.22143e-09
4.32254e-08
4.18478e-09
2.47266e-08
3.21768e-09
-2.32535e-09
2.35395e-08
1.3517e-09
-5.75458e-09
4.10755e-08
2.14813e-09
-9.65413e-09
4.89554e-08
2.53171e-09
-1.36548e-08
5.4718e-08
2.65719e-09
-1.74849e-08
5.88558e-08
2.60075e-09
-2.09393e-08
6.17345e-08
2.4246e-09
-2.38576e-08
6.36443e-08
2.1515e-09
-2.61055e-08
6.48094e-08
1.80026e-09
-2.75749e-08
6.54136e-08
1.38308e-09
-2.81947e-08
6.56042e-08
9.16846e-10
-2.79161e-08
6.55076e-08
4.17444e-10
-2.67421e-08
6.52287e-08
-8.55464e-11
-2.47147e-08
6.48614e-08
-5.62649e-10
-2.1922e-08
6.44827e-08
-9.82371e-10
-1.84822e-08
6.416e-08
-1.32609e-09
-1.45415e-08
6.39436e-08
-1.57713e-09
-1.02625e-08
6.38727e-08
-1.72956e-09
-5.81275e-09
6.39669e-08
-1.77627e-09
-1.36973e-09
6.42341e-08
-1.71827e-09
2.89594e-09
6.46621e-08
-1.55426e-09
6.81655e-09
6.52269e-08
-1.29101e-09
1.02398e-08
6.58849e-08
-9.34452e-10
1.30432e-08
6.65817e-08
-5.01175e-10
1.51236e-08
6.72446e-08
-9.93088e-12
1.64265e-08
6.7792e-08
5.06242e-10
1.69437e-08
6.81244e-08
1.01777e-09
1.66976e-08
6.81311e-08
1.4933e-09
1.57519e-08
6.7679e-08
1.91691e-09
1.41873e-08
6.66128e-08
2.27246e-09
1.21094e-08
6.47398e-08
2.54841e-09
9.64465e-09
6.18252e-08
2.72694e-09
6.953e-09
5.75653e-08
2.78774e-09
4.24062e-09
5.15782e-08
2.67691e-09
1.7896e-09
4.33503e-08
2.32549e-09
2.49575e-08
1.55946e-09
-1.58497e-09
2.56408e-08
-5.16838e-10
-4.76913e-09
4.42664e-08
-6.61363e-12
-8.64164e-09
5.25803e-08
2.48811e-10
-1.27731e-08
5.85756e-08
2.71193e-10
-1.68187e-08
6.27761e-08
1.26341e-10
-2.05299e-08
6.55829e-08
-1.36821e-10
-2.36983e-08
6.7309e-08
-4.96625e-10
-2.6153e-08
6.8207e-08
-9.42114e-10
-2.77571e-08
6.84796e-08
-1.46196e-09
-2.8409e-08
6.82991e-08
-2.04326e-09
-2.8052e-08
6.78086e-08
-2.65868e-09
-2.6687e-08
6.71362e-08
-3.27207e-09
-2.43727e-08
6.63898e-08
-3.842e-09
-2.12182e-08
6.56663e-08
-4.33819e-09
-1.73654e-08
6.50434e-08
-4.73746e-09
-1.29777e-08
6.45863e-08
-5.0291e-09
-8.24021e-09
6.43387e-08
-5.20413e-09
-3.3433e-09
6.43298e-08
-5.26073e-09
1.52251e-09
6.45659e-08
-5.19557e-09
6.15668e-09
6.50381e-08
-5.01135e-09
1.03789e-08
6.57144e-08
-4.7095e-09
1.40155e-08
6.65483e-08
-4.29858e-09
1.69134e-08
6.74717e-08
-3.78923e-09
1.8959e-08
6.84041e-08
-3.20461e-09
2.00808e-08
6.9245e-08
-2.57584e-09
2.02679e-08
6.98829e-08
-1.9452e-09
1.95645e-08
7.01857e-08
-1.35016e-09
1.80556e-08
7.00063e-08
-8.19272e-10
1.58672e-08
6.91676e-08
-3.65003e-10
1.31416e-08
6.74613e-08
3.33477e-12
1.00667e-08
6.46289e-08
2.7184e-10
6.85664e-09
6.03493e-08
4.2518e-10
3.80234e-09
5.42125e-08
4.19644e-10
1.27485e-09
4.56827e-08
1.96275e-10
2.65079e-08
-2.76367e-10
-1.0671e-09
2.86397e-08
-1.93309e-09
-4.0023e-09
4.88831e-08
-1.67958e-09
-7.75316e-09
5.78796e-08
-1.54993e-09
-1.1845e-08
6.42955e-08
-1.62523e-09
-1.59236e-08
6.87066e-08
-1.8539e-09
-1.97013e-08
7.15537e-08
-2.19421e-09
-2.29459e-08
7.31874e-08
-2.63317e-09
-2.54634e-08
7.38879e-08
-3.16214e-09
-2.70979e-08
7.38884e-08
-3.77554e-09
-2.77258e-08
7.3383e-08
-4.4551e-09
-2.72905e-08
7.25411e-08
-5.16795e-09
-2.57965e-08
7.1509e-08
-5.8666e-09
-2.33163e-08
7.04172e-08
-6.50792e-09
-1.99695e-08
6.93765e-08
-7.05725e-09
-1.59099e-08
6.84821e-08
-7.496e-09
-1.13211e-08
6.78076e-08
-7.81249e-09
-6.38739e-09
6.74088e-08
-8.00313e-09
-1.30813e-09
6.73168e-08
-8.06466e-09
3.71049e-09
6.75433e-08
-7.99784e-09
8.47537e-09
6.80752e-08
-7.80162e-09
1.27888e-08
6.88799e-08
-7.4788e-09
1.647e-08
6.99e-08
-7.03261e-09
1.93557e-08
7.10602e-08
-6.47437e-09
2.13198e-08
7.22634e-08
-5.82274e-09
2.22803e-08
7.33967e-08
-5.11245e-09
2.22224e-08
7.43272e-08
-4.38732e-09
2.11976e-08
7.49061e-08
-3.69567e-09
1.9316e-08
7.49614e-08
-3.07149e-09
1.67176e-08
7.42961e-08
-2.5334e-09
1.3594e-08
7.26743e-08
-2.08692e-09
1.0152e-08
6.98115e-08
-1.73975e-09
6.65097e-09
6.53534e-08
-1.5034e-09
3.42316e-09
5.88542e-08
-1.4139e-09
8.8991e-10
4.97322e-08
-1.51703e-09
2.91439e-08
-1.74517e-09
-8.74536e-10
3.21813e-08
-2.66617e-09
-3.64415e-09
5.42375e-08
-2.58626e-09
-7.23474e-09
6.40155e-08
-2.54538e-09
-1.11926e-08
7.09393e-08
-2.68519e-09
-1.51577e-08
7.56349e-08
-2.96436e-09
-1.88404e-08
7.85904e-08
-3.35167e-09
-2.2008e-08
8.01908e-08
-3.83698e-09
-2.4455e-08
8.07512e-08
-4.41777e-09
-2.60089e-08
8.05306e-08
-5.0873e-09
-2.65503e-08
7.9751e-08
-5.82545e-09
-2.60236e-08
7.86029e-08
-6.59104e-09
-2.44365e-08
7.72567e-08
-7.3331e-09
-2.18741e-08
7.58592e-08
-8.00408e-09
-1.84659e-08
7.45405e-08
-8.57252e-09
-1.43715e-08
7.34076e-08
-9.02066e-09
-9.76995e-09
7.25477e-08
-9.34224e-09
-4.84807e-09
7.20223e-08
-9.5347e-09
1.97522e-10
7.18697e-08
-9.59869e-09
5.17267e-09
7.2101e-08
-9.53339e-09
9.88465e-09
7.27043e-08
-9.3393e-09
1.41375e-08
7.36406e-08
-9.01544e-09
1.77549e-08
7.48475e-08
-8.56401e-09
2.05675e-08
7.6237e-08
-7.99106e-09
2.24462e-08
7.77007e-08
-7.31414e-09
2.32979e-08
7.91077e-08
-6.56489e-09
2.31084e-08
8.03094e-08
-5.79122e-09
2.19259e-08
8.11339e-08
-5.04493e-09
1.98641e-08
8.13891e-08
-4.36778e-09
1.70919e-08
8.08512e-08
-3.78046e-09
1.37934e-08
7.92591e-08
-3.28944e-09
1.02075e-08
7.62959e-08
-2.8969e-09
6.5987e-09
7.15741e-08
-2.61179e-09
3.31161e-09
6.46027e-08
-2.4619e-09
7.74813e-10
5.47527e-08
-2.4846e-09
3.24665e-08
-2.547e-09
-9.15437e-10
3.58754e-08
-2.77979e-09
-3.6429e-09
5.97239e-08
-2.75745e-09
-7.15742e-09
7.028e-08
-2.75087e-09
-1.10196e-08
7.77141e-08
-2.91271e-09
-1.48802e-08
8.2704e-08
-3.20846e-09
-1.84601e-08
8.578e-08
-3.60991e-09
-2.15236e-08
8.73642e-08
-4.11021e-09
-2.38661e-08
8.78017e-08
-4.70819e-09
-2.5316e-08
8.73802e-08
-5.39853e-09
-2.57547e-08
8.63458e-08
-6.15622e-09
-2.51297e-08
8.49135e-08
-6.93665e-09
-2.34607e-08
8.3273e-08
-7.68458e-09
-2.0839e-08
8.15917e-08
-8.35352e-09
-1.74007e-08
8.00142e-08
-8.9135e-09
-1.33031e-08
7.8663e-08
-9.35159e-09
-8.72653e-09
7.76345e-08
-9.66388e-09
-3.85222e-09
7.69992e-08
-9.85124e-09
1.13315e-09
7.67983e-08
-9.91392e-09
6.04047e-09
7.70462e-08
-9.85223e-09
1.06809e-08
7.77283e-08
-9.66566e-09
1.48734e-08
7.88029e-08
-9.3537e-09
1.84368e-08
8.01992e-08
-8.91527e-09
2.12077e-08
8.18202e-08
-8.35408e-09
2.30501e-08
8.35428e-08
-7.68295e-09
2.3866e-08
8.52216e-08
-6.93184e-09
2.36352e-08
8.66882e-08
-6.14749e-09
2.24018e-08
8.7752e-08
-5.3855e-09
2.02866e-08
8.81968e-08
-4.69101e-09
1.74511e-08
8.77754e-08
-4.08925e-09
1.40977e-08
8.61986e-08
-3.58551e-09
1.04539e-08
8.31201e-08
-3.18062e-09
6.79313e-09
7.81161e-08
-2.88076e-09
3.45394e-09
7.06547e-08
-2.71202e-09
8.55239e-10
6.00565e-08
-2.70655e-09
3.60384e-08
-2.71623e-09
-1.12889e-09
3.94197e-08
-2.41704e-09
-3.9429e-09
6.48908e-08
-2.35021e-09
-7.48418e-09
7.6148e-08
-2.32779e-09
-1.1332e-08
8.40374e-08
-2.47662e-09
-1.51461e-08
8.92812e-08
-2.76115e-09
-1.86633e-08
9.24492e-08
-3.15312e-09
-2.16477e-08
9.39953e-08
-3.64509e-09
-2.39055e-08
9.42946e-08
-4.23732e-09
-2.52612e-08
9.36597e-08
-4.92306e-09
-2.56029e-08
9.23617e-08
-5.67524e-09
-2.48801e-08
9.06371e-08
-6.44555e-09
-2.31256e-08
8.86973e-08
-7.1784e-09
-2.04329e-08
8.67271e-08
-7.82791e-09
-1.69404e-08
8.48891e-08
-8.36778e-09
-1.28072e-08
8.33182e-08
-8.78754e-09
-8.2103e-09
8.21233e-08
-9.08646e-09
-3.32625e-09
8.13809e-08
-9.26574e-09
1.66067e-09
8.11385e-08
-9.32631e-09
6.56356e-09
8.14105e-08
-9.26781e-09
1.11995e-08
8.21824e-08
-9.09046e-09
1.53894e-08
8.34067e-08
-8.79321e-09
1.89563e-08
8.50067e-08
-8.37471e-09
2.17405e-08
8.68732e-08
-7.83556e-09
2.35978e-08
8.88706e-08
-7.18616e-09
2.44364e-08
9.08362e-08
-6.45279e-09
2.42201e-08
9.25844e-08
-5.68141e-09
2.2998e-08
9.39031e-08
-4.92782e-09
2.08807e-08
9.45551e-08
-4.2405e-09
1.80338e-08
9.4268e-08
-3.64666e-09
1.46576e-08
9.27288e-08
-3.15298e-09
1.09756e-08
8.9561e-08
-2.75902e-09
7.25343e-09
8.43102e-08
-2.4717e-09
3.82083e-09
7.64051e-08
-2.31786e-09
1.08733e-09
6.51224e-08
-2.33146e-09
3.95132e-08
-2.38778e-09
-1.4529e-09
4.26052e-08
-1.73305e-09
-4.44585e-09
6.94339e-08
-1.55021e-09
-8.09075e-09
8.12704e-08
-1.47773e-09
-1.19855e-08
8.9523e-08
-1.5895e-09
-1.58126e-08
9.49516e-08
-1.84502e-09
-1.93077e-08
9.81579e-08
-2.21239e-09
-2.22542e-08
9.96231e-08
-2.68284e-09
-2.44502e-08
9.97477e-08
-3.25547e-09
-2.57371e-08
9.88672e-08
-3.9222e-09
-2.59958e-08
9.72752e-08
-4.65411e-09
-2.51872e-08
9.523e-08
-5.40189e-09
-2.33433e-08
9.29634e-08
-6.11009e-09
-2.05611e-08
9.06799e-08
-6.73482e-09
-1.69792e-08
8.8559e-08
-7.25192e-09
-1.27586e-08
8.6751e-08
-7.6532e-09
-8.0739e-09
8.53767e-08
-7.93883e-09
-3.10431e-09
8.45212e-08
-8.11046e-09
1.96576e-09
8.42371e-08
-8.16848e-09
6.94816e-09
8.45407e-08
-8.11278e-09
1.16598e-08
8.54156e-08
-7.94339e-09
1.5916e-08
8.68094e-08
-7.65985e-09
1.95464e-08
8.86369e-08
-7.26042e-09
2.23871e-08
9.07772e-08
-6.74485e-09
2.42985e-08
9.30797e-08
-6.12132e-09
2.51847e-08
9.53644e-08
-5.41393e-09
2.50094e-08
9.74265e-08
-4.66661e-09
2.38141e-08
9.90336e-08
-3.93487e-09
2.17112e-08
9.99268e-08
-3.26807e-09
1.88609e-08
9.98119e-08
-2.69509e-09
1.54619e-08
9.83528e-08
-2.22401e-09
1.17301e-08
9.51482e-08
-1.85555e-09
7.9226e-09
8.97164e-08
-1.59811e-09
4.35342e-09
8.1455e-08
-1.48247e-09
1.42038e-09
6.96034e-08
-1.5479e-09
4.26557e-08
-1.72156e-09
-1.82056e-09
4.53361e-08
-9.09013e-10
-5.02716e-09
7.32175e-08
-5.78466e-10
-8.81089e-09
8.5494e-08
-4.4044e-10
-1.27898e-08
9.40067e-08
-5.04308e-10
-1.66589e-08
9.95436e-08
-7.22704e-10
-2.01712e-08
1.02729e-07
-1.05894e-09
-2.31107e-08
1.04066e-07
-1.50203e-09
-2.52896e-08
1.03974e-07
-2.0494e-09
-2.65376e-08
1.02808e-07
-2.69129e-09
-2.67472e-08
1.00882e-07
-3.39793e-09
-2.58718e-08
9.84756e-08
-4.12011e-09
-2.39464e-08
9.5841e-08
-4.80329e-09
-2.10661e-08
9.32037e-08
-5.40537e-09
-1.73645e-08
9.07627e-08
-5.90363e-09
-1.301e-08
8.86857e-08
-6.29086e-09
-8.17155e-09
8.7107e-08
-6.56714e-09
-3.0402e-09
8.61232e-08
-6.73358e-09
2.19237e-09
8.57933e-08
-6.78983e-09
7.33308e-09
8.6136e-08
-6.73576e-09
1.21883e-08
8.71326e-08
-6.57146e-09
1.657e-08
8.87244e-08
-6.29722e-09
2.03028e-08
9.08148e-08
-5.91188e-09
2.32262e-08
9.32691e-08
-5.41533e-09
2.52007e-08
9.59198e-08
-4.81475e-09
2.6132e-08
9.85674e-08
-4.13286e-09
2.59838e-08
1.00986e-07
-3.41175e-09
2.47993e-08
1.02923e-07
-2.70598e-09
2.26929e-08
1.04098e-07
-2.06468e-09
1.9825e-08
1.04198e-07
-1.51752e-09
1.63859e-08
1.02866e-07
-1.07435e-09
1.25881e-08
9.9683e-08
-7.37574e-10
8.67745e-09
9.41455e-08
-5.17775e-10
4.95354e-09
8.56287e-08
-4.5077e-10
1.79746e-09
7.33446e-08
-5.82985e-10
4.5358e-08
-9.0586e-10
-2.13738e-09
4.75953e-08
-1.21352e-10
-5.52474e-09
7.62606e-08
3.4322e-10
-9.42821e-09
8.88541e-08
5.44975e-10
-1.34901e-08
9.75392e-08
5.2773e-10
-1.74148e-08
1.03122e-07
3.45982e-10
-2.09683e-08
1.06244e-07
4.06063e-11
-2.39451e-08
1.07418e-07
-3.75687e-10
-2.61506e-08
1.07078e-07
-8.98671e-10
-2.74203e-08
1.05595e-07
-1.51724e-09
-2.76333e-08
1.03297e-07
-2.20153e-09
-2.67386e-08
1.00483e-07
-2.90284e-09
-2.47582e-08
9.74302e-08
-3.56795e-09
-2.17856e-08
9.43865e-08
-4.15575e-09
-1.79543e-08
9.15758e-08
-4.64402e-09
-1.34315e-08
8.91876e-08
-5.02582e-09
-8.39974e-09
8.73742e-08
-5.2998e-09
-3.05285e-09
8.62441e-08
-5.4654e-09
2.39757e-09
8.58629e-08
-5.52139e-09
7.74875e-09
8.62523e-08
-5.46731e-09
1.27947e-08
8.73908e-08
-5.3036e-09
1.7337e-08
8.92129e-08
-5.03143e-09
2.11923e-08
9.16101e-08
-4.65134e-09
2.41975e-08
9.443e-08
-4.16464e-09
2.6211e-08
9.74831e-08
-3.57829e-09
2.71489e-08
1.00545e-07
-2.91449e-09
2.69813e-08
1.03367e-07
-2.21435e-09
2.57635e-08
1.05673e-07
-1.53105e-09
2.36102e-08
1.07164e-07
-9.13284e-10
2.06915e-08
1.07509e-07
-3.90819e-10
1.71937e-08
1.06338e-07
2.53172e-11
1.33261e-08
1.0322e-07
3.30956e-10
9.31956e-09
9.76376e-08
5.13707e-10
5.46368e-09
8.89519e-08
5.33362e-10
2.11831e-09
7.63563e-08
3.36262e-10
4.75966e-08
-1.22415e-10
-2.31541e-09
4.94308e-08
4.80769e-10
-5.79938e-09
7.868e-08
1.06392e-09
-9.76288e-09
9.15023e-08
1.31503e-09
-1.38638e-08
1.00304e-07
1.33566e-09
-1.78288e-08
1.05903e-07
1.18516e-09
-2.1438e-08
1.08946e-07
9.07039e-10
-2.44902e-08
1.09955e-07
5.14462e-10
-2.67893e-08
1.09366e-07
1.24065e-11
-2.8161e-08
1.07556e-07
-5.88473e-10
-2.84704e-08
1.04863e-07
-1.25819e-09
-2.76409e-08
1.01602e-07
-1.94953e-09
-2.56714e-08
9.80722e-08
-2.60984e-09
-2.26427e-08
9.45555e-08
-3.19819e-09
-1.86864e-08
9.13112e-08
-3.6916e-09
-1.39785e-08
8.85592e-08
-4.07961e-09
-8.71705e-09
8.64717e-08
-4.3592e-09
-3.11807e-09
8.51726e-08
-4.52864e-09
2.59971e-09
8.47325e-08
-4.58584e-09
8.20395e-09
8.51776e-08
-4.53029e-09
1.34751e-08
8.64819e-08
-4.36247e-09
1.81979e-08
8.8575e-08
-4.08443e-09
2.21726e-08
9.13329e-08
-3.69787e-09
2.52253e-08
9.45834e-08
-3.2058e-09
2.7221e-08
9.81064e-08
-2.61868e-09
2.80824e-08
1.01643e-07
-1.95951e-09
2.78107e-08
1.04909e-07
-1.26924e-09
2.64769e-08
1.07607e-07
-6.00474e-10