/*--------------------------------*- C++ -*----------------------------------*\
| =========                 |                                                 |
| \\      /  F ield         | OpenFOAM: The Open Source CFD Toolbox           |
|  \\    /   O peration     | Version:  v1912                                 |
|   \\  /    A nd           | Website:  www.openfoam.com                      |
|    \\/     M anipulation  |                                                 |
\*---------------------------------------------------------------------------*/
FoamFile
{
    version     2.0;
    format      ascii;
    class       volScalarField;
    location    "496/oil";
    object      wallHeatFlux;
}
// * * * * * * * * * * * * * * * * * * * * * * * * * * * * * * * * * * * * * //

dimensions      [1 0 -3 0 0 0 0];


internalField   uniform 0;

boundaryField
{
    maxY
    {
        type            calculated;
        value           uniform 0;
    }
    minX
    {
        type            calculated;
        value           uniform 0;
    }
    maxX
    {
        type            calculated;
        value           uniform 0;
    }
    minY
    {
        type            calculated;
        value           uniform 0;
    }
    minZ
    {
        type            calculated;
        value           uniform 0;
    }
    maxZ
    {
        type            calculated;
        value           uniform 0;
    }
    oil_to_sphere
    {
        type            calculated;
        value           nonuniform List<scalar> 
1536
(
608.053
324.989
317.734
-196.171
-207.719
312.064
82.9922
178.457
144.548
-150.683
-359.019
-111.579
139.642
-101.437
-424.357
52.6672
312.515
331.391
37.701
124.713
244.168
149.319
168.877
49.6115
77.0549
63.2847
76.4444
15.0668
294.846
157.961
379.67
327.157
336.687
56.0623
72.5467
17.8107
44.2418
-38.8662
13.0231
75.1424
1.67058
42.6202
134.831
192.335
261.689
71.6068
236.757
163.258
-401.92
61.4655
217.677
148.365
157.876
49.6704
285.711
479.042
165.927
125.29
239.366
213.603
127.522
136.716
121.768
42.0757
69.4368
115.176
124.041
223.94
222.029
284.787
40.6918
-209.803
-117.871
63.9585
62.8801
497.845
340.435
-37.3505
53.2901
321.311
247.974
205.763
-193.244
-200.489
293.458
552.931
-267.117
100.1
213.735
212.476
143.561
27.3015
22.4303
35.3365
62.3099
190.043
241.002
260.622
361.181
205.967
249.797
36.7096
612.156
219.849
-130.259
57.2818
80.7452
-176.375
-179.375
618.97
337.641
176.63
134.617
169.22
-233.822
-207.149
-289.817
427.045
581.396
353.034
156.747
169.247
9.79952
237.739
376.73
190.756
155.19
-8.81007
255.164
238.879
116.256
227.399
282.12
83.9906
101.307
299.314
170.873
323.42
-3.62256
315.395
147.343
235.513
238.454
138.772
106.32
132.448
195.91
412.226
99.6247
624.102
273.693
311.577
165.939
181.395
64.754
189.71
297.981
229.77
669.682
356.88
336.946
425.081
-78.9108
-34.1299
31.0823
26.6321
282.702
401.105
361.827
478.452
13.4315
30.9473
-34.9686
241.343
153.499
180.286
528.539
-68.5601
-136.678
553.307
21.2495
-29.6789
-40.8414
-14.0675
209.339
553.345
358.777
0.256116
-90.1263
326.646
-72.0657
277.916
278.862
404.598
-114.857
-486.43
393.647
432.908
74.6878
61.3251
149.332
86.597
330.728
390.221
266.29
206.427
32.0659
412.224
362.941
174.26
-8.86073
69.3505
57.8783
88.8571
246.07
487.587
-94.4294
-106.095
-97.2604
-525.35
310.732
243.165
203.692
146.505
158.422
412.263
275.752
62.8313
312.14
-148.877
18.6132
-474.165
138.101
291.502
395.048
365.328
312.64
253.482
352.398
-117.582
-76.7875
-46.11
439.75
-23.77
-480.47
-279.065
245.773
123.037
532.036
657.415
173.907
-201.645
-517.278
212.637
352.412
36.1014
44.7445
-245.993
25.6674
411.635
563.611
120.684
43.7572
465.308
359.722
67.0677
-125.891
99.6679
496.695
429.483
254.119
279.655
383.261
-41.4007
56.1001
397.95
279.174
316.588
134.524
312.36
479.708
262.964
239.905
449.683
37.5095
34.3139
58.2057
13.4666
29.6097
408.433
505.987
-120.29
93.1276
78.0002
88.3745
-0.44314
158.303
131.234
-30.0015
-242.613
22.4358
-108.449
-1.67457
553.862
456.362
450.812
629.204
-58.7659
-38.2951
145.243
625.496
558.482
18.4367
136.329
3.80966
273.784
49.1384
238.179
261.672
340.697
287.74
71.7803
297.227
19.6049
384.748
421.164
322.298
299.005
-21.4805
513.147
499.138
265.048
-121.186
34.3969
83.8201
262.714
234.943
277.475
-30.69
380.091
382.374
344.024
449.126
226.364
190.611
124.43
-77.653
191.479
267.807
-79.8991
-99.9366
-49.8753
593.79
373.547
448.878
232.833
185.436
400.623
-93.0821
532.626
340.904
191.841
185.533
-111.632
336.513
367.246
-11.3211
192.64
118.362
44.4409
274.26
375.387
134.546
64.72
-57.2687
488.288
386.878
-102.716
403.145
362.929
310.695
487.729
188.273
289.07
-158.325
-111.998
260.296
618.919
323.057
528.675
228.201
81.5369
359.589
-52.3307
1.64395
234.813
370.244
278.436
236.078
-40.844
-37.8481
398.988
378.085
387.59
181.066
26.1045
243.457
299.667
367.355
197.587
99.9229
-21.9081
173.033
-66.2029
-175.633
33.7243
-18.7407
177.791
-148.037
85.1485
511.729
78.671
75.2063
366.75
363.767
269.288
119.374
-82.5544
320.269
452.848
254.952
200.341
331.868
136.997
167.291
227.747
-196.291
248.399
383.18
445.865
356.155
292.267
281.178
200.469
106.253
-51.8571
154.609
-20.8131
-110.746
4.99125
-176.686
562.451
523.627
423.327
600.313
-64.8716
566.526
-32.681
22.8672
310.965
-86.2031
-41.5614
88.5679
79.9838
533.299
453.658
228.773
248.404
483.212
400.649
197.597
297.321
-4.21673
371.059
-121.118
442.561
-198.77
283.163
318.379
355.687
70.1242
-53.6583
114.12
364.671
127.377
-141.588
367.947
390.958
421.098
643.219
191.467
475.193
-61.2693
-25.7742
-389.994
-277.704
196.972
88.1471
51.229
5.15318
586.664
-44.6437
-91.5329
-130.679
85.6774
-154.854
665.665
-8.00537
13.0663
155.932
-352.035
-250.883
35.8462
28.4046
135.354
63.9226
389.105
354.732
282.549
194.688
-168.306
49.7042
343.478
-52.4054
-10.0825
321.072
491.909
-6.1349
-394.106
-77.2401
-360.312
150.47
71.0556
14.0046
-123.848
-352.158
274.252
314.399
237.07
144.68
498.71
283.512
264.184
185.786
-23.5364
60.0103
387.744
282.755
96.3993
-288.293
205.309
329.208
514.984
214.817
30.1084
518.269
153.651
479.099
-6.77375
72.6448
-43.5526
78.6364
210.691
493.139
-70.8385
12.5607
-24.97
84.7234
675.162
-126.048
55.9552
-95.5194
155.385
209.265
389.961
499.972
-173.652
-119.387
495.132
528.04
-223.156
475.416
404.411
322.104
393.756
263.371
172.622
188.736
485.441
195.803
269.226
172.046
368.556
215.712
150.873
131.313
-77.1243
321.678
141.144
363.529
290.451
296.152
281.57
197.817
-112.501
395.826
393.32
272.496
147.806
221.826
609.845
-161.534
-11.603
-66.114
200.983
-6.19132
613.118
79.059
107.787
161.568
-384.585
-336.873
44.5317
38.9146
188.578
-43.3758
7.81869
208.317
11.8019
502.598
-84.0153
596.04
69.5647
193.532
-483.875
-347.889
-393.795
14.0777
322.779
54.1994
14.944
-356.241
177.779
335.381
183.287
740.729
-6.59626
388.397
261.902
333.523
412.202
399.695
329.591
156.244
99.4071
153.537
333.248
119.424
240.857
210.434
234.979
357.35
283.031
320.047
-83.9361
-19.3317
-494.265
-242.189
-182.746
-659.397
34.4941
64.5709
120.186
149.773
-176.038
-72.0095
95.5221
431.022
397.643
90.1351
-134.567
138.439
348.441
266.695
164.878
-155.233
-6.73277
276.629
220.871
159.682
43.5409
302.933
306.877
487.656
311.422
202.384
64.3307
3.4357
-81.5548
24.1299
121.834
628.554
197.364
552.086
-11.2801
650.547
35.4945
130.076
-62.4546
-35.1809
67.0931
-89.7834
114.268
-150.127
48.1923
382.352
84.4906
-105.958
506.087
294.043
246.091
140.449
473.416
781.605
-237.576
286.564
226.701
268.251
-91.5579
145.501
2.12042
231.326
310.382
402.961
-26.6316
274.697
183.247
306.98
289.336
262.42
90.4919
123.873
51.0824
-138.83
-169.401
-47.408
464.268
49.1985
-93.6382
57.2245
390.329
111.25
461.185
352.697
253.431
201.666
247.374
521.756
-46.7591
282.228
404.409
435.295
195.905
0.115232
103.577
248.044
443.362
-66.881
127.163
186.941
383.455
250.295
242.842
471.586
-61.4533
11.8558
-24.1839
522.843
399.3
190.943
380.848
15.2697
47.3783
379.847
239.97
490.093
-33.6981
336.356
369.842
210.343
233.496
320.014
-29.728
-184.917
169.772
241.975
529.736
134.346
29.1728
153.473
251.343
331.593
202.403
5.97305
136.773
368.137
-65.1895
7.96948
137.531
44.264
225.591
200.458
429.258
266.148
355.108
55.4522
155.343
225.108
146.501
103.519
63.6044
60.2766
-55.589
299.225
217.891
218.698
254.557
-119.436
79.8486
511.951
519.131
6.77469
386.924
250.035
297.904
55.4732
438.413
419.822
-39.2909
111.045
75.4225
63.4423
-130.539
-70.6353
75.5414
412.431
608.071
30.3354
317.425
298.068
244.59
119.89
227.143
426.975
214.265
-30.8522
81.896
57.102
67.9883
268.354
294.34
300.527
314.819
311.899
7.75367
329.606
88.5864
283.201
-352.457
255.515
456.686
102.395
-237.981
162.241
123.142
552.649
-19.5394
329.965
150.796
-189.372
500.711
-107.032
127.716
174.036
-122.931
387.028
230.59
119.339
187.65
228.562
127.816
569.041
-100.522
70.0782
-427.254
86.2942
104.587
183.339
384.55
799.05
-148.165
72.4653
707.104
-105.176
308.377
0.00422054
297.222
-262.556
-18.9457
697.597
-207.707
631.951
-161.507
537.54
-186.875
-22.9792
-398.667
-101.058
657.967
-322.312
144.657
-209.327
470.341
661.814
-307.387
102.229
37.1833
-29.922
-38.7577
77.7773
177.104
175.661
290.111
154.055
480.081
730.335
-313.847
171.479
256.066
176.935
209.998
139.469
102.237
138.461
346.326
144.856
352.264
66.0394
216.846
456.56
100.585
279.624
392.214
65.0937
216.831
151.586
286.494
129.047
193.723
107.721
378.235
83.6306
243.482
-165.205
491.604
-293.81
238.506
365.623
505.764
-12.8677
204.772
155.105
205.096
181.901
144.106
341.757
-45.6347
-495.256
98.4655
-234.656
400.345
-7.87332
169.196
299.53
-459.31
436.066
-58.7005
-369.015
-29.1035
310.613
293.04
180.22
-316.685
174.916
215.753
27.6271
-5.77335
409.071
370.303
49.9778
187.96
410.733
-310.299
339.281
-11.8627
280.045
-283.998
604.426
585.303
370.34
174.432
101.863
300.169
90.648
-320.773
-66.1005
319.499
0.872801
258.274
-239.881
393.048
277.729
-595.523
176.491
230.936
-440.667
444.937
-172.068
405.022
495.581
335.613
-358.663
191.83
113.573
179.846
197.652
261.368
-305.563
59.8014
8.1319
9.36863
384.843
164.672
232.707
293.839
279.469
109.669
201.447
123.179
241.326
417.063
49.6626
97.7119
35.1712
193.808
362.704
46.0981
90.9574
68.942
168.583
6.23727
26.413
88.5486
107.686
196.664
79.3743
490.139
341.421
-217.052
-211.375
446.451
-657.52
326.11
213.763
4.82833
108.171
456.221
-460.509
400.749
233.36
-337.818
71.9949
25.9688
165.48
-486.888
446.934
240.101
-450.802
426.276
429.265
-270.697
508.475
369.058
-263.822
32.966
7.04056
-454.557
175.367
204.092
-64.0626
-11.6562
-36.4853
-578.767
-17.3456
-481.931
-612.642
380.687
35.2187
659.009
47.8119
-308.707
452.166
121.711
-401.326
48.6768
35.7475
-407.428
-210.466
428.646
-740.025
-64.0741
-115.458
-660.487
399.49
351.047
173.384
85.6255
30.6826
-61.6443
-526.301
181.657
90.4189
101.665
174.204
-367.792
311.444
50.6906
144.003
27.4019
135.281
195.096
-78.2126
-344.916
76.5785
202.614
45.4765
84.5566
151.605
-12.7178
96.0017
-380.574
49.4894
229.747
31.3648
110.214
-5.16099
-336.717
454.154
443.738
423.95
506.977
-273.475
-436.73
53.8337
323.498
202.943
305.594
345.563
-63.1719
-117.463
-430.136
-309.225
-13.7984
147.606
131.44
119.913
-116.944
384.833
236.119
-258.399
-23.5925
-74.1175
340.25
-7.27942
-529.376
142.592
162.395
398.15
-389.634
29.5264
195.446
65.4678
109.278
295.925
141.134
-55.9314
535.312
-617.528
-162.727
113.137
-10.402
78.609
503.996
244.842
163.805
-149.443
459.263
59.4246
194.27
345.005
398.035
377.471
396.264
484.476
542.578
474.646
475.575
164.961
357.176
48.9463
108.024
-125.542
-191.333
-570.815
514.859
498.125
422.756
96.7033
196.609
179.418
-1.93572
210.357
353.415
-47.6648
122.633
283.677
31.2129
54.7467
41.9773
93.1296
-14.2296
85.0725
63.3533
-282.414
193.106
-43.7853
120.721
-406.963
511.632
132.15
15.5862
-24.04
-252.969
160.357
22.6382
-450.476
-158.798
126.129
-201.599
-136.016
554.698
582.936
65.5847
68.106
317.337
500.257
-456.943
-7.98667
-14.7182
80.2514
78.2279
99.9856
138.449
-122.906
-327.722
444.001
72.034
-174.711
-127.826
65.8381
168.507
-248.431
102.765
-4.03024
48.8678
504.958
-167.061
-318.902
77.324
29.5202
-15.5726
-321.104
399.372
61.3026
51.0029
63.5934
-446.872
64.3443
77.5765
-308.832
57.7157
-160.13
237.762
438.077
-3.42949
357.451
226.752
6.59972
16.2015
86.0858
-320.654
219.781
255.553
38.8684
-390.503
-80.5689
113.506
131.987
1.22098
-348.218
11.5345
399.067
226.337
16.6742
546.86
-164.84
340.122
-436.399
-179.432
361.622
-447.098
381.026
11.3804
167.315
49.6873
573.922
-105.381
173.852
506.441
456.449
-222.092
439.097
505.436
-643.464
101.069
27.5992
-420.87
251.224
21.8655
51.7623
52.6727
142.445
102.373
39.4041
16.7365
-437.199
251.466
166.069
151.991
193.188
96.7093
5.5421
-76.9793
308.897
-514.799
-21.4318
-38.2995
-492.31
367.807
531.081
123.364
421.911
457.039
-4.58921
-1.71514
249.086
419.12
-14.718
281.026
-129.357
-420.661
317.155
-44.2777
398.337
544.18
497.11
-389.792
346.682
173
-58.0195
36.631
79.1196
24.3129
-379.272
413.54
-361.33
404.005
92.7772
-129.348
-180.783
94.7167
292.049
475.896
157.622
627.904
324.148
384.109
-460.55
354.471
304.043
399.182
-6.62513
-51.2362
-518.96
128.246
606.365
423.553
-333.649
-110.772
-368.729
-6.91198
139.418
-135.8
753.801
52.7902
-108.843
-320.346
222.65
-45.7537
-479.019
107.167
18.4472
27.5886
36.3753
40.3537
-315.282
-129.714
-417.318
20.4831
320.62
239.845
438.435
398.04
-20.8602
-75.5947
-440.633
9.92871
291.52
466.501
323.024
341.495
-172.693
-498.523
-100.678
-537.756
315.147
335.715
-75.2706
377.155
308.264
440.739
206.118
168.07
160.33
-20.8753
-449.88
-90.1534
-393.322
-147.964
36.7265
0.941486
-280.733
-393.589
277.155
609.378
546.46
497.21
153.425
268.606
258.032
127.015
34.9683
127.74
-58.7679
91.2674
93.7475
-390.387
306.012
70.8576
-109.317
-290.634
13.3635
147.32
144.308
1.91683
-287.987
479.666
219.719
25.0488
540.563
-48.6556
-413.413
238.23
92.1253
95.5516
95.8039
9.45392
-517.572
91.0378
88.0726
-357.106
459.846
61.0427
-738.823
35.5669
135.751
154.184
7.8898
-380.623
-31.6159
-17.4956
-191.153
108.391
-437.382
120.797
104.714
-214.473
531.368
86.5402
-309.313
588.081
129.658
129.333
-295.119
104.844
-363.554
)
;
    }
}


// ************************************************************************* //
