/*--------------------------------*- C++ -*----------------------------------*\
| =========                 |                                                 |
| \\      /  F ield         | OpenFOAM: The Open Source CFD Toolbox           |
|  \\    /   O peration     | Version:  v1906                                 |
|   \\  /    A nd           | Web:      www.OpenFOAM.com                      |
|    \\/     M anipulation  |                                                 |
\*---------------------------------------------------------------------------*/
FoamFile
{
    version     2.0;
    format      ascii;
    class       volScalarField;
    location    "6.8/sphere";
    object      T;
}
// * * * * * * * * * * * * * * * * * * * * * * * * * * * * * * * * * * * * * //

dimensions      [0 0 0 1 0 0 0];


internalField   nonuniform List<scalar> 
304
(
495.468
495.509
495.507
495.53
495.473
495.472
495.468
495.51
495.465
495.659
495.659
495.52
495.507
495.659
495.659
495.563
495.519
495.563
495.466
495.508
495.531
495.47
495.511
495.66
495.659
495.563
495.532
495.66
495.659
495.598
495.47
495.563
495.599
495.514
495.472
495.523
495.563
495.467
495.478
495.565
495.599
495.512
495.467
495.514
495.452
495.45
495.472
495.473
495.467
495.515
495.472
495.473
495.515
495.468
495.451
495.471
495.466
495.472
495.514
495.51
495.509
495.53
495.521
495.565
495.563
495.598
495.467
495.531
495.509
495.564
495.521
495.599
495.564
495.471
495.466
495.514
495.472
495.469
495.469
495.512
495.464
495.53
495.463
495.507
495.562
495.598
495.518
495.562
495.51
495.509
495.467
495.598
495.563
495.563
495.52
495.514
495.471
495.465
495.449
495.47
495.464
495.512
495.47
495.513
495.466
495.469
495.449
495.466
495.47
495.471
495.514
495.51
495.521
495.565
495.508
495.531
495.564
495.599
495.47
495.565
495.522
495.531
495.51
495.599
495.564
495.467
495.472
495.514
495.473
495.52
495.508
495.563
495.509
495.564
495.531
495.599
495.465
495.563
495.51
495.564
495.51
495.598
495.531
495.562
495.465
495.519
495.531
495.598
495.508
495.563
495.509
495.52
495.467
495.598
495.531
495.563
495.509
495.467
495.47
495.514
495.47
495.562
495.466
495.508
495.563
495.598
495.508
495.53
495.52
495.508
495.466
495.598
495.562
495.53
495.508
495.513
495.469
495.469
495.47
495.472
495.515
495.47
495.531
495.564
495.599
495.467
495.508
495.522
495.564
495.508
495.599
495.563
495.509
495.464
495.563
495.518
495.513
495.471
495.464
495.565
495.532
495.599
495.472
495.525
495.512
495.566
495.509
495.598
495.531
495.52
495.468
495.563
495.509
495.599
495.509
495.564
495.513
495.566
495.47
495.523
495.531
495.564
495.509
495.563
495.509
495.521
495.467
495.513
495.47
495.468
495.598
495.508
495.531
495.521
495.564
495.467
495.509
495.564
495.531
495.51
495.564
495.522
495.51
495.47
495.472
495.471
495.468
495.455
495.47
495.468
495.514
495.471
495.513
495.465
495.47
495.449
495.471
495.474
495.517
495.475
495.564
495.565
495.599
495.472
495.511
495.512
495.532
495.52
495.599
495.563
495.509
495.465
495.531
495.508
495.514
495.472
495.47
495.517
495.47
495.472
495.599
495.521
495.564
495.51
495.531
495.466
495.509
495.563
495.564
495.521
495.531
495.508
495.509
495.467
495.47
495.466
495.469
495.453
495.514
495.471
495.472
495.468
495.472
495.471
)
;

boundaryField
{
    sphere_to_oil
    {
        type            compressible::turbulentTemperatureCoupledBaffleMixed;
        refValue        nonuniform List<scalar> 
360
(
314.596
314.596
304.078
331.194
333.436
304.929
334.351
334.351
334.351
314.633
314.633
304.924
305.446
303.639
313.336
334.35
331.964
331.964
331.964
303.677
329.302
313.478
309.784
332.81
304.119
334.048
304.923
333.723
333.723
333.723
334.819
333.372
304.07
304.042
304.871
304.93
331.684
331.684
331.684
331.098
333.475
304.225
304.948
314.5
314.5
304.89
305.379
303.502
313.806
334.306
305.022
304.936
305.345
305.43
303.55
313.304
332.54
303.622
304.907
305.226
303.652
334.019
334.019
334.019
303.498
333.309
313.614
308.733
334.215
334.215
334.215
333.299
332.755
303.562
328.791
312.818
303.633
309.184
333.266
332.515
309.978
308.464
309.687
303.665
304.079
304.902
305.017
305.403
303.563
303.718
304.095
305.4
304.996
304.079
305.355
304.961
304.991
304.907
304.159
303.648
303.683
303.549
304.935
305.007
305.407
303.528
303.732
305.456
304.185
304.973
305.011
304.938
304.17
303.609
303.68
303.656
309.113
308.719
309.187
314.691
314.691
331.194
331.194
332.81
332.81
332.277
332.277
332.277
332.628
332.628
332.628
309.184
308.617
309.035
303.718
333.436
333.436
314.397
314.397
334.819
334.819
313.1
313.1
334.544
334.544
334.544
303.7
303.735
334.758
334.758
334.758
335.734
335.734
335.734
334.35
329.302
313.336
334.35
333.288
303.594
333.288
333.288
309.751
309.586
308.884
313.2
313.2
334.699
334.699
334.699
303.518
329.302
313.478
334.418
334.418
303.545
334.418
309.965
308.81
303.549
304.891
304.955
305.469
304.085
305.378
304.977
303.528
303.69
334.048
334.048
333.372
333.372
314.454
314.454
331.447
331.447
331.447
314.029
314.029
303.657
304.86
304.976
305.462
304.938
304.919
305.467
304.145
305.44
304.913
304.131
331.098
305.46
304.988
303.659
333.409
333.409
333.409
313.779
313.779
303.523
304.993
304.996
305.199
333.475
304.111
305.169
304.95
331.098
333.475
313.657
303.57
313.657
303.616
303.675
305.362
304.111
304.963
304.942
305.002
304.081
303.551
334.509
329.814
334.509
334.509
329.814
329.814
334.306
333.309
313.806
332.75
303.694
334.306
332.75
332.75
305.267
304.09
305.041
305.389
304.119
333.299
304.887
304.941
305.013
304.142
332.54
328.791
304.929
304.962
304.147
330.898
333.576
313.304
333.657
303.68
332.54
333.657
333.657
305.305
304.155
333.266
304.957
304.884
304.909
333.511
304.152
332.903
313.796
330.898
313.796
333.511
330.898
333.511
303.507
308.436
308.434
308.624
314.242
331.712
314.242
331.712
331.712
303.616
333.309
332.954
313.614
332.954
303.672
332.954
309.054
309.016
303.488
331.761
313.343
331.761
331.761
313.343
303.602
304.904
304.963
305.441
332.755
333.299
313.644
303.66
332.755
313.644
303.581
328.791
334.173
312.818
334.173
303.44
334.173
305.458
332.515
304.188
304.942
333.174
331.604
333.576
313.454
333.576
333.174
313.454
333.174
308.421
309.748
333.266
313.824
303.565
332.515
313.824
303.718
332.903
331.604
332.903
314.17
331.604
314.17
)
;
        refGradient     uniform 0;
        valueFraction   nonuniform List<scalar> 
360
(
0.000128377
0.000123159
7.88481e-05
0.000281688
0.000288898
0.000165648
0.000290693
0.000249519
0.000388402
0.000123656
0.000120562
0.000161735
0.000246489
7.04774e-05
0.000126075
0.000245082
0.00028086
0.000262421
0.000368246
6.44903e-05
0.000241777
0.000118857
0.000109547
0.000290709
8.44005e-05
0.000298815
0.000168427
0.000294956
0.000386016
0.000258209
0.000295007
0.000297547
7.98945e-05
7.9002e-05
0.000165786
0.000163149
0.000276081
0.00037429
0.000257011
0.000386452
0.000381734
8.15063e-05
0.000161665
0.000117993
0.000117851
0.000166422
0.000248983
6.64285e-05
0.000118863
0.000252052
0.000164173
0.00016524
0.000246305
0.000243912
6.89115e-05
0.000126066
0.000257087
6.60154e-05
0.00016354
0.000243874
6.46173e-05
0.000287117
0.000253452
0.000396695
6.66184e-05
0.000259145
0.000120877
0.000116915
0.000293751
0.00038322
0.000257772
0.000369547
0.000374721
7.15611e-05
0.000249837
0.000126741
6.59777e-05
0.000118311
0.000373922
0.000388438
0.00011604
0.000113851
0.000111826
6.64579e-05
8.01422e-05
0.000162476
0.000163385
0.00024743
7.46904e-05
6.30645e-05
7.93152e-05
0.000247027
0.000163077
8.10212e-05
0.000246619
0.000164939
0.000163962
0.000164215
8.00797e-05
6.41882e-05
6.50886e-05
6.42225e-05
0.000165102
0.000162272
0.00024684
7.26743e-05
6.31249e-05
0.000246661
7.8361e-05
0.000162527
0.000162558
0.000165874
8.11118e-05
6.495e-05
6.33432e-05
6.4567e-05
0.000112392
0.000112527
0.000116899
0.000126757
0.000119134
0.000246165
0.000387804
0.000259352
0.000391371
0.000250859
0.000385692
0.000287164
0.000251062
0.000377297
0.000282809
0.000115352
0.000109087
0.000111733
6.16791e-05
0.000255812
0.000385172
0.000119163
0.000119707
0.000389251
0.000258795
0.000124917
0.000131657
0.000384459
0.000264097
0.000304323
6.78816e-05
6.3171e-05
0.000266642
0.000369507
0.000292884
0.000274541
0.0003823
0.000292853
0.000302363
0.000278513
0.000130277
0.000388334
0.000250834
6.99308e-05
0.000377435
0.000282439
0.000107784
0.000113555
0.000112339
0.000118509
0.00012388
0.000386393
0.00025441
0.000298628
7.15986e-05
0.000371692
0.000127445
0.000390846
0.000250197
6.99364e-05
0.000296664
0.000108741
0.000109749
6.4121e-05
0.000168067
0.000168001
0.000248416
8.28406e-05
0.000248791
0.000163701
6.34625e-05
6.16243e-05
0.000388798
0.000247029
0.000384233
0.000256163
0.000122186
0.000114267
0.000386025
0.000241252
0.000278869
0.000112948
0.000131055
6.59321e-05
0.000165114
0.000164964
0.000246469
0.000161381
0.000162211
0.000245498
8.41464e-05
0.000246339
0.000167028
8.18299e-05
0.000277284
0.000246067
0.000166027
6.61669e-05
0.000377589
0.000244776
0.000286394
0.00011931
0.000110875
6.40442e-05
0.000163829
0.000166585
0.000246993
0.000280834
7.85411e-05
0.000244649
0.000159781
0.000243041
0.000257296
0.000116792
6.55997e-05
0.000129599
6.64108e-05
6.25132e-05
0.000249751
8.33487e-05
0.000167904
0.000165962
0.000163984
8.23012e-05
6.2866e-05
0.00025537
0.000239286
0.000401724
0.000299017
0.000374785
0.000269276
0.000288618
0.000295504
0.000131346
0.000253502
6.82969e-05
0.000385781
0.000375114
0.000285
0.000248563
7.92029e-05
0.000161735
0.000245706
7.99125e-05
0.000292793
0.000162436
0.000163596
0.000162089
7.94278e-05
0.000290605
0.000272322
0.000165371
0.000161096
8.09574e-05
0.000272859
0.000300347
0.000119109
0.000269612
6.40299e-05
0.000384125
0.000372411
0.000281392
0.000243882
8.01186e-05
0.000281835
0.000162275
0.000162525
0.000163451
0.000283369
8.08692e-05
0.00028952
0.000121819
0.000249617
0.000122836
0.000254368
0.00038765
0.000380562
6.39999e-05
0.000128253
0.000126738
0.000123961
0.000112887
0.000377702
0.000123295
0.000251091
0.000295677
6.30671e-05
0.00038139
0.00038093
0.000124695
0.000270841
6.60919e-05
0.000290365
0.000110552
0.000108605
6.60373e-05
0.000373554
0.000111633
0.000244971
0.000288516
0.000119682
6.52426e-05
0.000162338
0.000162283
0.00024488
0.00028022
0.000243049
0.000117507
6.32512e-05
0.00024712
0.000130511
7.30509e-05
0.00035812
0.00038455
0.000113647
0.00024427
6.77216e-05
0.00030721
0.000246756
0.000295661
8.08783e-05
0.000163036
0.000285054
0.000276353
0.000259988
0.000116205
0.000380851
0.000380032
0.000137945
0.000254023
0.000111762
0.000113477
0.000255732
0.000126589
6.84429e-05
0.000258638
0.000121894
6.3206e-05
0.000376444
0.000380963
0.000250653
0.000121639
0.000246211
0.000125651
)
;
        value           nonuniform List<scalar> 
360
(
495.474
495.475
495.478
495.447
495.446
495.502
495.445
495.456
495.428
495.471
495.472
495.501
495.508
495.484
495.475
495.458
495.442
495.452
495.428
495.485
495.457
495.475
495.453
495.445
495.476
495.444
495.503
495.446
495.429
495.455
495.443
495.442
495.475
495.475
495.5
495.503
495.444
495.43
495.453
495.427
495.429
495.475
495.502
495.473
495.476
495.501
495.508
495.482
495.473
495.454
495.504
495.502
495.51
495.509
495.481
495.471
495.452
495.484
495.502
495.51
495.483
495.445
495.454
495.429
495.484
495.455
495.475
495.452
495.449
495.433
495.457
495.432
495.43
495.489
495.461
495.479
495.482
495.456
495.431
495.429
495.455
495.455
495.456
495.484
495.481
495.502
495.503
495.508
495.479
495.484
495.477
495.508
495.503
495.475
495.509
495.502
495.502
495.502
495.476
495.485
495.485
495.484
495.503
495.503
495.508
495.482
495.482
495.507
495.473
495.501
495.503
495.502
495.476
495.482
495.486
495.485
495.454
495.454
495.453
495.474
495.477
495.457
495.428
495.456
495.428
495.456
495.429
495.445
495.457
495.431
495.448
495.454
495.455
495.454
495.485
495.455
495.428
495.475
495.475
495.428
495.455
495.473
495.473
495.428
495.454
495.441
495.484
495.482
495.451
495.429
495.441
495.45
495.428
495.443
495.443
495.445
495.472
495.427
495.455
495.482
495.428
495.445
495.454
495.453
495.453
495.473
495.472
495.427
495.454
495.443
495.481
495.429
495.471
495.428
495.454
495.481
495.442
495.453
495.453
495.483
495.503
495.501
495.509
495.478
495.509
495.504
495.484
495.484
495.428
495.455
495.428
495.454
495.473
495.475
495.428
495.458
495.444
495.476
495.474
495.485
495.502
495.502
495.509
495.504
495.504
495.509
495.473
495.509
495.501
495.476
495.446
495.509
495.502
495.482
495.43
495.455
495.444
495.473
495.475
495.483
495.502
495.501
495.508
495.445
495.475
495.509
495.503
495.454
495.452
495.473
495.482
495.47
495.481
495.483
495.508
495.476
495.501
495.501
495.503
495.473
495.485
495.453
495.457
495.43
495.444
495.433
495.452
495.443
495.441
495.472
495.454
495.483
495.427
495.428
495.447
495.509
495.481
495.506
495.509
495.478
495.446
495.503
495.503
495.507
495.479
495.447
495.449
495.502
495.503
495.476
495.447
495.443
495.473
495.451
495.483
495.43
495.432
495.446
495.509
495.476
495.446
495.503
495.504
495.504
495.449
495.48
495.448
495.474
495.455
495.473
495.454
495.429
495.431
495.482
495.456
495.456
495.457
495.474
495.431
495.473
495.455
495.448
495.484
495.428
495.428
495.472
495.451
495.482
495.443
495.453
495.453
495.486
495.434
495.478
495.459
495.449
495.478
495.487
495.504
495.505
495.51
495.445
495.457
495.475
495.484
495.454
495.471
495.481
495.435
495.432
495.476
495.457
495.484
495.442
495.509
495.443
495.476
495.503
495.445
495.446
495.453
495.473
495.429
495.429
495.468
495.452
495.457
495.457
495.455
495.473
495.483
495.454
495.474
495.484
495.432
495.43
495.456
495.475
495.456
495.473
)
;
        Tnbr            T;
        thicknessLayers 0();
        kappaLayers     0();
        kappaMethod     solidThermo;
        kappa           none;
        alphaAni        none;
    }
}


// ************************************************************************* //
