/*--------------------------------*- C++ -*----------------------------------*\
| =========                 |                                                 |
| \\      /  F ield         | OpenFOAM: The Open Source CFD Toolbox           |
|  \\    /   O peration     | Version:  v1912                                 |
|   \\  /    A nd           | Website:  www.openfoam.com                      |
|    \\/     M anipulation  |                                                 |
\*---------------------------------------------------------------------------*/
FoamFile
{
    version     2.0;
    format      ascii;
    class       volScalarField;
    location    "412/oil";
    object      heatTransferCoeff(T);
}
// * * * * * * * * * * * * * * * * * * * * * * * * * * * * * * * * * * * * * //

dimensions      [1 0 -3 -1 0 0 0];


internalField   uniform 0;

boundaryField
{
    maxY
    {
        type            calculated;
        value           uniform 0;
    }
    minX
    {
        type            calculated;
        value           uniform 0;
    }
    maxX
    {
        type            calculated;
        value           uniform 0;
    }
    minY
    {
        type            calculated;
        value           uniform 0;
    }
    minZ
    {
        type            calculated;
        value           uniform 0;
    }
    maxZ
    {
        type            calculated;
        value           uniform 0;
    }
    oil_to_sphere
    {
        type            calculated;
        value           nonuniform List<scalar> 
1536
(
-14.4421
-9.29823
-9.17143
0.178904
0.398515
-9.05857
-4.89898
-6.62658
-6.01016
-0.642998
3.139
-1.35148
-5.9197
-1.54139
4.33597
-4.34406
-9.06841
-9.41965
-4.07102
-5.64932
-7.82354
-6.09492
-6.45329
-4.28867
-4.7888
-4.53734
-4.77423
-3.66007
-8.75106
-6.2569
-10.2926
-9.33623
-9.51137
-4.40229
-4.70325
-3.70737
-4.18538
-2.67373
-3.62003
-4.74857
-3.41246
-4.15871
-5.83389
-6.88298
-8.14482
-4.68443
-7.70396
-6.36488
3.93362
-4.50672
-7.34242
-6.08084
-6.26594
-4.28654
-8.5845
-12.1015
-6.39757
-5.66025
-7.73854
-7.26553
-5.7031
-5.8657
-5.60016
-4.14932
-4.64912
-5.47776
-5.63655
-7.45799
-7.41975
-8.56444
-4.12413
0.41977
-1.24542
-4.55001
-4.52817
-12.4421
-9.57818
-2.71113
-4.3556
-9.23883
-7.89247
-7.12921
0.133421
0.26672
-8.72553
-13.4436
1.46551
-5.20142
-7.26995
-7.24587
-5.99938
-3.87934
-3.79268
-4.02636
-4.51937
-6.84011
-7.77353
-8.1282
-9.95363
-7.1275
-7.92688
-4.05105
-14.5206
-7.38409
-1.02109
-4.42792
-4.8519
-0.182766
-0.131585
-14.6481
-9.52659
-6.5969
-5.82803
-6.46278
0.868974
0.376583
1.88351
-11.1562
-13.961
-9.80955
-6.23279
-6.46279
-3.56149
-7.71287
-10.2368
-6.86435
-6.20097
-3.22244
-8.02937
-7.72447
-5.49846
-7.51644
-8.51825
-4.90789
-5.2254
-8.82615
-6.49198
-9.27838
-3.3177
-9.1206
-6.05949
-7.66466
-7.71753
-5.90507
-5.31383
-5.79051
-6.93856
-10.9248
-5.23784
-14.7371
-8.35977
-9.09226
-6.39688
-6.67938
-4.55399
-6.86255
-8.79702
-7.59799
-15.5749
-9.92273
-9.51346
-11.165
-1.9363
-2.75167
-3.94832
-3.86445
-8.5208
-10.7026
-9.9574
-12.1124
-3.6354
-3.9546
-2.75764
-7.78423
-6.19383
-6.67366
-13
-2.18629
-0.975416
-13.4473
-3.75938
-2.82959
-2.62979
-3.115
-7.2278
-13.4528
-9.95853
-3.39499
-1.75646
-9.33418
-2.0869
-8.44787
-8.45971
-10.7463
-1.29279
5.45397
-10.5497
-11.2606
-4.76878
-4.49585
-6.1009
-4.9613
-9.41175
-10.4885
-8.22943
-7.14263
-3.98417
-10.8953
-9.98997
-6.59201
-3.21937
-4.64669
-4.43833
-5.02051
-7.87246
-12.264
-1.72075
-1.45584
-1.61457
6.1563
-9.043
-7.81466
-7.09054
-6.05277
-6.27167
-10.9023
-8.41054
-4.54903
-9.07013
-0.681381
-3.72413
5.226
-5.88837
-8.71111
-10.5751
-10.0398
-9.07258
-7.99573
-9.79458
-1.24546
-1.98569
-2.59597
-11.382
-2.95415
5.32764
1.69217
-7.85825
-5.66737
-13.078
-15.3834
-6.54964
0.282196
6.01351
-7.24825
-9.83206
-4.03961
-4.19682
1.09616
-3.84967
-10.8894
-13.6447
-5.59502
-4.18233
-11.845
-9.98467
-4.60313
-1.08145
-5.21759
-12.4295
-11.2057
-8.00757
-8.47549
-10.3598
-2.62433
-4.40211
-10.6288
-8.46685
-9.17652
-5.8317
-9.07735
-12.1219
-8.17522
-7.755
-11.5654
-4.07331
-4.01166
-4.4539
-3.62151
-3.92093
-10.8171
-12.5939
-1.26102
-5.0785
-4.80427
-4.99779
-3.38299
-6.27466
-5.77652
-2.83893
1.03092
-3.78929
-1.40791
-3.3504
-13.4642
-11.6878
-11.5894
-14.8816
-2.30278
-2.67521
-6.05909
-14.7598
-13.5856
-3.72618
-5.86816
-3.45877
-8.36874
-4.28134
-7.72176
-8.1491
-9.59366
-8.61872
-4.69926
-8.79655
-3.73554
-10.3884
-11.0513
-9.24929
-8.82841
-2.98526
-12.7287
-12.4864
-8.23182
-1.17551
-4.01756
-4.92168
-8.16894
-7.66327
-8.42989
-2.81858
-10.3041
-10.3812
-9.64761
-11.5584
-7.5
-6.85508
-5.65195
-1.97296
-6.8782
-8.26609
-1.92983
-1.563
-2.47394
-14.1922
-10.191
-11.5577
-7.61983
-6.76364
-10.6896
-1.68804
-13.081
-9.59318
-6.87421
-6.7635
-1.35391
-9.52628
-10.0752
-3.17448
-6.88753
-5.53805
-4.19727
-8.38054
-10.2184
-5.82921
-4.56689
-2.33626
-12.2756
-10.4257
-1.51537
-10.7371
-10.0121
-9.04415
-12.2632
-6.80859
-8.64897
-0.517046
-1.33926
-8.12635
-14.6812
-9.27046
-13.0286
-7.54397
-4.87079
-9.92498
-2.43845
-3.43223
-7.67299
-10.1249
-8.45698
-7.67607
-2.65
-2.68773
-10.6497
-10.3024
-10.4392
-6.6845
-3.86594
-7.81641
-8.83897
-10.0671
-6.98333
-5.20767
-2.99478
-6.5349
-2.18954
-0.197124
-3.99709
-3.04917
-6.61833
-0.685903
-4.93402
-12.7201
-4.81669
-4.75376
-10.0643
-10.0066
-8.28497
-5.55728
-1.87655
-9.21913
-11.6249
-8.0272
-7.03822
-9.42225
-5.88466
-6.4297
-7.52849
0.187319
-7.93184
-10.3927
-11.5055
-9.8677
-8.70997
-8.49888
-7.03408
-5.32478
-2.44617
-6.20041
-3.00598
-1.36925
-3.47307
-0.171522
-13.6207
-12.9159
-11.0871
-14.347
-2.24972
-13.6907
-2.77943
-3.78771
-9.03952
-1.87265
-2.61959
-4.99584
-4.83145
-13.0924
-11.6449
-7.5462
-7.90635
-12.1837
-10.6812
-6.98047
-8.79824
-3.30024
-10.1381
-1.17292
-11.4464
0.2332
-8.55576
-9.19082
-9.86269
-4.66865
-2.40095
-5.4591
-10.0247
-5.70014
-0.803304
-10.0909
-10.5024
-11.0816
-15.0844
-6.90507
-12.0262
-2.25696
-2.90322
3.71244
1.6771
-6.96095
-4.98185
-4.31496
-3.47802
-14.0544
-2.62022
-1.70671
-0.992683
-4.96835
-0.603371
-15.5046
-3.2451
-3.62664
-6.22963
3.01413
1.18914
-4.03515
-3.90013
-5.83921
-4.55007
-10.468
-9.84213
-8.52402
-6.92723
-0.32045
-4.29079
-9.64931
-2.43419
-3.19464
-9.22833
-12.3365
-3.27175
3.76994
-1.97762
3.15965
-6.12116
-4.68161
-3.64264
-1.13293
3.03145
-8.38817
-9.11263
-7.69745
-6.02524
-12.4682
-8.55397
-8.18956
-6.7723
-2.94783
-4.47212
-10.4452
-8.5326
-5.13659
1.8623
-7.11896
-9.4132
-12.7628
-7.29219
-3.96983
-12.81
-6.21847
-12.0957
-3.25077
-4.69578
-2.58174
-4.81384
-7.20982
-12.3508
-2.19497
-3.6006
-2.9203
-4.9637
-15.666
-1.12054
-4.40152
-1.63483
-6.23398
-7.18454
-10.4911
-12.4832
-0.272364
-1.20458
-12.4015
-13.0121
0.680552
-12.0603
-10.758
-9.25441
-10.5767
-8.18353
-6.53715
-6.82165
-12.2277
-6.95168
-8.28288
-6.51935
-10.0894
-7.31383
-6.13402
-5.78023
-1.97477
-9.241
-5.97821
-10.0007
-8.67963
-8.78691
-8.51151
-6.99051
-1.33374
-10.5971
-10.5556
-8.34898
-6.07828
-7.42447
-14.4813
-0.495058
-3.16176
-2.1696
-7.072
-3.31668
-14.5379
-4.82836
-5.35208
-6.33878
3.60476
2.75298
-4.19342
-4.09031
-6.80775
-2.58305
-3.51517
-7.21325
-3.63202
-12.528
-1.90466
-14.224
-4.7035
-6.93789
5.35631
2.95005
3.78514
-3.64792
-9.26472
-4.3759
-3.66073
3.09135
-6.61271
-9.51083
-6.71135
-16.8929
-3.25983
-10.4541
-8.19007
-9.4521
-10.8965
-10.6786
-9.39271
-6.23865
-5.20275
-6.18225
-9.45164
-5.56071
-7.76508
-7.22235
-7.66199
-9.8917
-8.53896
-9.21467
-1.8635
-3.03228
5.5944
1.0317
-0.0650879
8.5974
-4.0201
-4.56249
-5.57339
-6.11557
-0.185702
-2.0681
-5.12103
-11.2347
-10.6424
-5.02362
-0.93053
-5.90101
-9.73622
-8.26611
-6.38228
-0.561643
-3.2571
-8.42283
-7.41881
-6.28825
-4.18606
-8.90031
-8.97802
-12.2646
-9.05529
-7.06775
-4.55773
-3.43465
-1.88901
-3.8654
-5.63757
-14.8194
-6.96701
-13.4403
-3.22695
-15.2262
-4.03317
-5.75122
-2.25029
-2.75097
-4.60597
-1.75666
-5.46678
-0.648114
-4.26016
-10.3559
-4.92288
-1.45953
-12.6034
-8.74387
-7.86044
-5.94866
-12.0336
-17.6193
0.940426
-8.60256
-7.5304
-8.26669
-1.72825
-6.03601
-3.4296
-7.60207
-9.05748
-10.716
-2.89745
-8.39075
-6.72841
-8.97007
-8.65203
-8.15455
-5.03987
-5.64597
-4.31919
-0.857395
-0.301819
-2.51979
-11.8341
-4.27977
-1.67437
-4.42486
-10.4951
-5.40881
-11.783
-9.81233
-8.00118
-7.05515
-7.8945
-12.8817
-2.53077
-8.52071
-10.7576
-11.3075
-6.95537
-3.38864
-5.27755
-7.90915
-11.455
-2.16935
-5.70544
-6.79598
-10.3683
-7.93726
-7.82094
-11.9715
-2.26564
-3.6044
-2.94914
-12.9048
-10.6521
-6.85661
-10.3219
-3.6635
-4.25017
-10.3036
-7.77546
-12.3039
-2.76556
-9.50876
-10.1215
-7.21011
-7.64059
-9.2137
-2.84793
-0.0163531
-6.47332
-7.8083
-13.0493
-5.83154
-3.92276
-6.17817
-7.96076
-9.42469
-7.06277
-3.49833
-5.87394
-10.0867
-2.22513
-3.52213
-5.88424
-4.18854
-7.49076
-7.03258
-11.198
-8.23309
-9.84496
-4.39604
-6.21663
-7.48136
-6.04982
-5.26749
-4.54604
-4.48188
-2.37475
-8.83296
-7.35075
-7.36057
-8.02389
-1.2025
-4.83652
-12.7097
-12.8358
-3.50875
-10.4319
-7.9374
-8.80262
-4.40055
-11.3681
-11.0236
-2.6612
-5.40303
-4.75725
-4.54124
-1.01416
-2.09114
-4.7586
-10.8963
-14.4781
-3.93827
-9.16858
-8.81175
-7.83529
-5.56901
-7.51841
-11.1597
-7.30869
-2.81594
-4.87389
-4.42419
-4.63323
-8.27033
-8.75639
-8.8581
-9.11536
-9.07027
-3.53286
-9.38143
-4.99759
-8.5501
3.034
-8.04233
-11.6928
-5.24726
0.946731
-6.35517
-5.63814
-13.4394
-3.03473
-9.38841
-6.13522
0.0635139
-12.5083
-1.44191
-5.71076
-6.54733
-1.14453
-10.4357
-7.5748
-5.56316
-6.8196
-7.53847
-5.70593
-13.7343
-1.56509
-4.66112
4.38042
-4.99472
-5.28217
-6.71637
-10.3907
-17.9273
-0.697392
-4.70877
-16.2499
-1.47786
-8.99917
-3.38959
-8.7907
1.37936
-3.05035
-16.0769
0.396877
-14.9067
-0.441648
-13.1691
0.00684303
-2.97169
3.84729
-1.56562
-15.3553
2.47549
-6.03899
0.423159
-11.9666
-15.4245
2.20241
-5.27587
-4.0501
-2.83136
-2.66742
-4.79398
-6.60346
-6.57932
-8.65851
-6.18478
-12.1288
-16.6703
2.31707
-6.53733
-8.03718
-6.59908
-7.20081
-5.92267
-5.2553
-5.90311
-9.6884
-6.02448
-9.79223
-4.59039
-7.33532
-11.6941
-5.21231
-8.46728
-10.5223
-4.57012
-7.33519
-6.14644
-8.59447
-5.73254
-6.91536
-5.34448
-10.267
-4.90598
-7.81077
-0.378701
-12.3478
1.95888
-7.75488
-10.047
-12.583
-3.15347
-7.10825
-6.20145
-7.109
-6.70797
-6.01305
-9.6071
-2.55644
5.61728
-5.23667
0.884707
-10.6837
-3.24661
-6.46302
-8.87044
4.96964
-11.3693
-2.34158
3.32039
-2.88768
-9.0357
-8.71376
-6.66993
2.37964
-6.58119
-7.32271
-3.8892
-3.2819
-10.8402
-10.1368
-4.30108
-6.79798
-10.87
2.25963
-9.57914
-3.17264
-8.4795
1.78069
-14.4239
-14.0335
-10.1233
-6.56708
-5.25514
-8.8605
-5.04725
2.45394
-2.18355
-9.19803
-3.40382
-8.11207
0.983765
-10.5535
-8.45529
7.45192
-6.6112
-7.58942
4.62944
-11.5221
-0.251801
-10.7651
-12.4173
-9.50188
3.15072
-6.87925
-5.45504
-6.66987
-6.98865
-8.15471
2.17749
-4.48619
-3.53116
-3.55532
-10.4064
-6.3871
-7.64502
-8.72791
-8.47092
-5.38402
-7.04863
-5.63014
-7.77157
-10.975
-4.28995
-5.16723
-4.02425
-6.92613
-9.99501
-4.2269
-5.03943
-4.63889
-6.45695
-3.49967
-3.86349
-4.99799
-5.34635
-6.96235
-4.84573
-12.3036
-9.6107
0.572983
0.452729
-11.5325
8.56781
-9.31574
-7.28761
-3.47999
-5.35834
-11.7231
4.98539
-10.6754
-7.65059
2.76947
-4.69921
-3.86789
-6.41881
5.46632
-11.5163
-7.78709
4.82072
-11.1386
-11.2093
1.54831
-12.6309
-10.115
1.42273
-3.99025
-3.5173
4.87511
-6.57505
-7.09906
-2.23944
-3.17501
-2.75642
7.12742
-3.06698
5.33814
7.73864
-10.3172
-4.01464
-15.3708
-4.27179
2.23594
-11.6051
-5.63124
3.91573
-4.27524
-4.04282
4.02658
0.442736
-11.2343
10.0672
-2.22183
-1.33477
8.6077
-10.6596
-9.77509
-6.53946
-4.94218
-3.95549
-2.2618
6.1845
-6.68962
-5.0258
-5.23372
-6.55476
3.31033
-9.07096
-4.3062
-6.00514
-3.87973
-5.84544
-6.9339
-1.96647
2.89257
-4.78394
-7.10122
-4.20982
-4.9258
-6.1493
-3.15529
-5.13592
3.5365
-4.29657
-7.59923
-3.95182
-5.3953
-3.29288
2.74063
-11.6701
-11.4873
-11.0979
-12.6239
1.60003
4.56139
-4.38233
-9.30455
-7.07776
-8.94815
-9.67588
-2.23756
-1.24592
4.41676
2.2191
-3.1306
-6.07039
-5.77584
-5.566
-1.26531
-10.3863
-7.69046
1.32451
-2.94332
-2.03966
-9.57874
-3.25144
6.23509
-6.02844
-6.33723
-10.6297
3.70603
-3.94194
-6.96631
-4.5766
-5.37344
-8.77465
-5.95455
-2.36458
-13.1267
7.84323
-0.465648
-5.46989
-3.19913
-4.81467
-12.5601
-7.85297
-6.37601
-0.671411
-11.7453
-4.47234
-6.92058
-9.66465
-10.6297
-10.2537
-10.5972
-12.2086
-13.2624
-12.024
-12.0407
-6.42376
-9.88979
-4.27602
-5.35391
-1.11655
0.0948889
6.99133
-12.757
-12.4515
-11.0783
-5.1441
-6.96181
-6.64964
-3.35147
-7.21557
-9.8191
-2.51942
-5.61821
-8.55091
-3.96128
-4.38221
-4.14769
-5.07949
-3.12374
-4.93194
-4.53752
1.75347
-6.92316
-2.59404
-5.58215
4.02246
-12.7144
-5.79169
-3.66833
-2.94774
1.21916
-6.30781
-3.79751
4.80499
-0.510964
-5.6801
0.273086
-0.908332
-13.4792
-13.9955
-4.58033
-4.62501
-9.16495
-12.4882
4.92409
-3.26804
-3.1176
-4.84348
-4.80794
-5.20341
-5.9039
-1.15372
2.58532
-11.4813
-4.69646
-0.210547
-1.06366
-4.58036
-6.45144
1.13358
-5.27996
-3.32205
-4.27415
-12.5732
-0.351665
2.41744
-4.79758
-3.9236
-3.10474
2.46405
-10.6632
-4.5044
-4.30975
-4.54157
4.74059
-4.56673
-4.79599
2.23334
-4.44475
-0.485412
-7.71351
-11.3532
-3.3304
-9.88742
-7.50809
-3.50664
-3.67845
-4.95089
2.45283
-7.40185
-8.05473
-4.09296
3.71791
-1.92344
-5.45146
-5.78684
-3.41124
2.95236
-3.59993
-10.6455
-7.51083
-3.69936
-13.3375
-0.384496
-9.59588
4.55298
-0.123648
-9.9908
4.73761
-10.3221
-3.61257
-6.42974
-4.29005
-13.839
-1.46784
-6.54577
-12.5945
-11.7033
0.667179
-11.3757
-12.5845
8.30983
-5.2729
-3.88483
4.27159
-7.9963
-3.78032
-4.32481
-4.34175
-5.97584
-5.24739
-4.10144
-3.69214
4.57071
-7.98876
-6.41408
-6.15055
-6.89845
-5.1432
-3.48553
-1.9882
-9.03577
5.97582
-2.99468
-2.72972
5.55665
-10.0835
-13.0453
-5.66716
-11.0661
-11.7148
-3.28969
-3.41075
-7.92013
-11.0154
-3.11887
-8.5039
-1.03639
4.25537
-9.17826
-2.56778
-10.632
-13.2987
-12.4294
3.70802
-9.71326
-6.55224
-2.33479
-4.05125
-4.82618
-3.8271
3.51742
-10.9392
3.19372
-10.766
-5.07179
-1.03747
-0.128302
-5.13209
-8.69879
-12.06
-6.25058
-14.8009
-9.30178
-10.3738
4.96211
-9.84182
-8.91906
-10.6529
-3.26833
-2.45514
6.0415
-5.71617
-14.411
-11.1045
2.69739
-1.37349
3.30256
-3.26223
-5.91984
-0.916576
-17.1111
-4.34563
-1.4055
2.45191
-7.44556
-2.55769
5.3366
-5.35072
-3.72377
-3.88502
-4.0474
-4.11989
2.35907
-1.02224
4.20738
-3.76995
-9.24855
-7.75221
-11.3706
-10.6351
-3.00533
-2.00813
4.62327
-3.55438
-8.71378
-11.8706
-9.28039
-9.60072
-0.245275
5.667
-1.55334
6.38463
-9.12619
-9.50419
-2.01728
-10.2455
-9.01189
-11.4021
-7.16226
-6.44404
-6.30205
-3.00487
4.80635
-1.7495
3.76345
-0.716087
-4.05368
-3.40536
1.72721
3.77586
-8.43125
-14.4621
-13.3414
-12.4328
-6.1768
-8.26988
-8.07909
-5.7044
-4.02459
-5.71143
-2.31671
-5.04628
-5.09121
3.7205
-8.98115
-4.67863
-1.40131
1.90475
-3.6411
-6.06434
-6.00934
-3.42478
1.85617
-12.1164
-7.38477
-3.84183
-13.2216
-2.49793
4.13784
-7.74783
-5.06691
-5.12444
-5.12708
-3.5575
6.03324
-5.07346
-4.98777
3.11662
-11.7793
-4.4984
10.0345
-4.03219
-5.85258
-6.18831
-3.52787
3.54045
-2.81493
-3.07221
0.0966296
-5.35438
4.57042
-5.58356
-5.2913
0.52421
-13.0733
-4.95893
2.24089
-14.1182
-5.74359
-5.7391
1.98759
-5.29212
3.23161
)
;
    }
}


// ************************************************************************* //
