/*--------------------------------*- C++ -*----------------------------------*\
| =========                 |                                                 |
| \\      /  F ield         | OpenFOAM: The Open Source CFD Toolbox           |
|  \\    /   O peration     | Version:  v1912                                 |
|   \\  /    A nd           | Website:  www.openfoam.com                      |
|    \\/     M anipulation  |                                                 |
\*---------------------------------------------------------------------------*/
FoamFile
{
    version     2.0;
    format      ascii;
    class       surfaceScalarField;
    location    "412/oil";
    object      phi;
}
// * * * * * * * * * * * * * * * * * * * * * * * * * * * * * * * * * * * * * //

dimensions      [1 0 -1 0 0 0 0];
oriented        oriented;


internalField   nonuniform List<scalar> 
104676
(
-1.24213e-11
2.84902e-11
-1.57528e-11
2.84538e-10
-2.33572e-10
-6.33871e-11
8.92198e-10
-4.38629e-10
-1.6903e-10
1.71667e-09
-5.35306e-10
-2.89161e-10
2.6368e-09
-5.47378e-10
-3.72749e-10
3.5315e-09
-4.97746e-10
-3.96954e-10
4.29147e-09
-4.04445e-10
-3.55518e-10
4.82533e-09
-2.80874e-10
-2.52978e-10
5.06191e-09
-1.37405e-10
-9.91709e-11
4.96239e-09
1.30237e-11
8.64969e-11
4.50796e-09
1.6849e-10
2.85941e-10
3.73009e-09
2.95336e-10
4.82545e-10
2.66943e-09
4.10603e-10
6.50062e-10
1.40216e-09
4.94095e-10
7.7318e-10
2.528e-11
5.38211e-10
8.38668e-10
-1.35586e-09
5.40586e-10
8.40559e-10
-2.62649e-09
4.94504e-10
7.76134e-10
-3.69126e-09
4.1019e-10
6.54585e-10
-4.47651e-09
2.97018e-10
4.88233e-10
-4.93638e-09
1.64801e-10
2.95072e-10
-5.04791e-09
1.40998e-11
9.74364e-11
-4.81639e-09
-1.4032e-10
-9.12006e-11
-4.28667e-09
-2.83239e-10
-2.46476e-10
-3.52978e-09
-4.06649e-10
-3.50234e-10
-2.63759e-09
-4.99531e-10
-3.92655e-10
-1.71924e-09
-5.5011e-10
-3.6824e-10
-8.95298e-10
-5.39421e-10
-2.84516e-10
-2.87303e-10
-4.43336e-10
-1.64656e-10
1.05226e-11
-2.37793e-10
-6.00282e-11
2.41404e-11
-1.36155e-11
2.91067e-10
-5.53635e-10
2.91062e-10
1.12422e-09
-1.66491e-09
5.98176e-10
2.44825e-09
-2.50363e-09
7.40978e-10
4.11593e-09
-3.01482e-09
8.11839e-10
5.92673e-09
-3.26002e-09
9.01851e-10
7.66467e-09
-3.29944e-09
1.06376e-09
9.12568e-09
-3.18465e-09
1.3192e-09
1.01331e-08
-2.95635e-09
1.66801e-09
1.05494e-08
-2.64866e-09
2.09497e-09
1.02864e-08
-2.29234e-09
2.56841e-09
9.30302e-09
-1.91745e-09
3.06932e-09
7.6536e-09
-1.58915e-09
3.53392e-09
5.46143e-09
-1.30043e-09
3.90321e-09
2.86544e-09
-1.09156e-09
4.18166e-09
5.10248e-11
-9.82332e-10
4.33496e-09
-2.77421e-09
-9.83024e-10
4.34885e-09
-5.37699e-09
-1.0967e-09
4.194e-09
-7.57079e-09
-1.30927e-09
3.91327e-09
-9.20606e-09
-1.59864e-09
3.53094e-09
-1.01917e-08
-1.93324e-09
3.08372e-09
-1.04698e-08
-2.30301e-09
2.59513e-09
-1.00668e-08
-2.65675e-09
2.11348e-09
-9.07574e-09
-2.9614e-09
1.6871e-09
-7.63244e-09
-3.18871e-09
1.33877e-09
-5.90905e-09
-3.3045e-09
1.08158e-09
-4.11121e-09
-3.26674e-09
9.18799e-10
-2.45165e-09
-3.02596e-09
8.26985e-10
-1.12849e-09
-2.51823e-09
7.51736e-10
-2.92507e-10
-1.67677e-09
6.03004e-10
-5.59823e-10
2.9146e-10
6.13016e-10
-1.78553e-09
6.18881e-10
1.94898e-09
-4.32525e-09
1.32439e-09
3.82315e-09
-6.14129e-09
1.76349e-09
6.05128e-09
-7.32672e-09
2.08377e-09
8.40269e-09
-8.00822e-09
2.39678e-09
1.06234e-08
-8.29076e-09
2.77062e-09
1.24652e-08
-8.26477e-09
3.23831e-09
1.37082e-08
-8.00485e-09
3.80549e-09
1.41808e-08
-7.57886e-09
4.45763e-09
1.37732e-08
-7.04384e-09
5.15912e-09
1.24316e-08
-6.46165e-09
5.8858e-09
1.02128e-08
-5.91126e-09
6.54087e-09
7.27756e-09
-5.42865e-09
7.06352e-09
3.81506e-09
-5.07633e-09
7.44727e-09
6.55598e-11
-4.89473e-09
7.66191e-09
-3.70172e-09
-4.90342e-09
7.68769e-09
-7.1746e-09
-5.08845e-09
7.46464e-09
-1.01097e-08
-5.44278e-09
7.06865e-09
-1.23149e-08
-5.92188e-09
6.52839e-09
-1.36731e-08
-6.47708e-09
5.9021e-09
-1.41025e-08
-7.05794e-09
5.18434e-09
-1.36458e-08
-7.58896e-09
4.4755e-09
-1.24196e-08
-8.01273e-09
3.8251e-09
-1.05954e-08
-8.27069e-09
3.25779e-09
-8.39091e-09
-8.29811e-09
2.78912e-09
-6.05051e-09
-8.02037e-09
2.41323e-09
-3.82954e-09
-7.34375e-09
2.09684e-09
-1.95659e-09
-6.16192e-09
1.77074e-09
-6.16664e-10
-4.34131e-09
1.32462e-09
-1.79418e-09
6.17698e-10
8.79386e-10
-3.555e-09
8.90091e-10
2.6385e-09
-8.00484e-09
1.92048e-09
4.95881e-09
-1.10592e-08
2.59761e-09
7.61382e-09
-1.31013e-08
3.11955e-09
1.03497e-08
-1.43639e-08
3.61977e-09
1.28932e-08
-1.50077e-08
4.17347e-09
1.49756e-08
-1.51662e-08
4.81905e-09
1.63564e-08
-1.495e-08
5.56427e-09
1.68408e-08
-1.44595e-08
6.39631e-09
1.63021e-08
-1.37869e-08
7.28168e-09
1.46775e-08
-1.30251e-08
8.18816e-09
1.20433e-08
-1.22653e-08
8.98824e-09
8.57465e-09
-1.16036e-08
9.64363e-09
4.49178e-09
-1.10937e-08
1.01003e-08
7.40365e-11
-1.0834e-08
1.0357e-08
-4.36728e-09
-1.08524e-08
1.03903e-08
-8.46385e-09
-1.11068e-08
1.01149e-08
-1.19342e-08
-1.16033e-08
9.6309e-09
-1.45561e-08
-1.22685e-08
8.96846e-09
-1.61942e-08
-1.30313e-08
8.19236e-09
-1.67526e-08
-1.37933e-08
7.29377e-09
-1.6286e-08
-1.44642e-08
6.40866e-09
-1.49245e-08
-1.49541e-08
5.57987e-09
-1.28598e-08
-1.51698e-08
4.83437e-09
-1.03336e-08
-1.50139e-08
4.18955e-09
-7.61231e-09
-1.4376e-08
3.63438e-09
-4.96423e-09
-1.31212e-08
3.12937e-09
-2.64602e-09
-1.10785e-08
2.59843e-09
-8.85898e-10
-8.01137e-09
1.90994e-09
-3.56689e-09
8.86815e-10
1.08032e-09
-5.72563e-09
1.09031e-09
3.16608e-09
-1.24469e-08
2.35628e-09
5.83595e-09
-1.69402e-08
3.21118e-09
8.82043e-09
-1.99679e-08
3.8822e-09
1.18445e-08
-2.19109e-08
4.52291e-09
1.46215e-08
-2.30023e-08
5.21769e-09
1.68718e-08
-2.34234e-08
6.00698e-09
1.83419e-08
-2.33218e-08
6.90176e-09
1.88279e-08
-2.28309e-08
7.88528e-09
1.81907e-08
-2.20752e-08
8.92557e-09
1.63628e-08
-2.11833e-08
9.98606e-09
1.34236e-08
-2.02668e-08
1.09408e-08
9.54963e-09
-1.9444e-08
1.17143e-08
4.99945e-09
-1.87758e-08
1.22323e-08
7.96555e-11
-1.84379e-08
1.25238e-08
-4.86777e-09
-1.8463e-08
1.25581e-08
-9.42755e-09
-1.87922e-08
1.22452e-08
-1.3296e-08
-1.94204e-08
1.16855e-08
-1.6233e-08
-2.02607e-08
1.09293e-08
-1.80762e-08
-2.11826e-08
9.99447e-09
-1.87336e-08
-2.20757e-08
8.93984e-09
-1.82671e-08
-2.28313e-08
7.90048e-09
-1.68155e-08
-2.33233e-08
6.91767e-09
-1.45822e-08
-2.34258e-08
6.02277e-09
-1.18219e-08
-2.30069e-08
5.23271e-09
-8.81328e-09
-2.19202e-08
4.53556e-09
-5.83939e-09
-1.99842e-08
3.88911e-09
-3.17152e-09
-1.69543e-08
3.20791e-09
-1.08597e-09
-1.24378e-08
2.34089e-09
-5.74027e-09
1.08741e-09
1.21533e-09
-8.16809e-09
1.22714e-09
3.53301e-09
-1.74118e-08
2.64723e-09
6.45696e-09
-2.34886e-08
3.62446e-09
9.68044e-09
-2.75934e-08
4.40199e-09
1.29123e-08
-3.02878e-08
5.14505e-09
1.5857e-08
-3.18952e-08
5.94818e-09
1.82286e-08
-3.26492e-08
6.85408e-09
1.97667e-08
-3.27361e-08
7.87619e-09
2.02598e-08
-3.23198e-08
8.99583e-09
1.95636e-08
-3.15542e-08
1.01752e-08
1.76074e-08
-3.05961e-08
1.13691e-08
1.44452e-08
-2.95995e-08
1.24949e-08
1.02717e-08
-2.86612e-08
1.33906e-08
5.37436e-09
-2.78461e-08
1.39676e-08
7.96418e-11
-2.74204e-08
1.42772e-08
-5.24511e-09
-2.74476e-08
1.43094e-08
-1.01422e-08
-2.78836e-08
1.39885e-08
-1.43016e-08
-2.86151e-08
1.33542e-08
-1.74677e-08
-2.95853e-08
1.24907e-08
-1.94424e-08
-3.05919e-08
1.1384e-08
-2.01613e-08
-3.15507e-08
1.01939e-08
-1.96891e-08
-3.2318e-08
9.01454e-09
-1.817e-08
-3.27368e-08
7.89431e-09
-1.58155e-08
-3.26512e-08
6.87103e-09
-1.28858e-08
-3.18991e-08
5.96246e-09
-9.66815e-09
-3.02945e-08
5.15671e-09
-6.45632e-09
-2.7603e-08
4.40695e-09
-3.5387e-09
-2.34899e-08
3.61793e-09
-1.2216e-09
-1.73861e-08
2.63118e-09
-8.18744e-09
1.22557e-09
1.28327e-09
-1.07626e-08
1.31124e-09
3.74362e-09
-2.27081e-08
2.83601e-09
6.82775e-09
-3.04503e-08
3.87752e-09
1.01994e-08
-3.56789e-08
4.71389e-09
1.35588e-08
-3.91735e-08
5.52625e-09
1.66072e-08
-4.13537e-08
6.4101e-09
1.90577e-08
-4.25098e-08
7.41009e-09
2.0645e-08
-4.28656e-08
8.54232e-09
2.11541e-08
-4.2614e-08
9.785e-09
2.04329e-08
-4.19297e-08
1.10967e-08
1.84089e-08
-4.0997e-08
1.24249e-08
1.51004e-08
-3.99952e-08
1.37043e-08
1.07424e-08
-3.9032e-08
1.47288e-08
5.61985e-09
-3.80835e-08
1.536e-08
8.6711e-11
-3.75777e-08
1.56905e-08
-5.4717e-09
-3.76193e-08
1.57301e-08
-1.0611e-08
-3.81542e-08
1.54098e-08
-1.49531e-08
-3.89764e-08
1.47035e-08
-1.82653e-08
-3.99813e-08
1.37082e-08
-2.03092e-08
-4.09962e-08
1.24482e-08
-2.1053e-08
-4.19296e-08
1.11227e-08
-2.05656e-08
-4.26144e-08
9.80902e-09
-1.89975e-08
-4.28685e-08
8.56365e-09
-1.65644e-08
-4.25146e-08
7.43025e-09
-1.353e-08
-4.1359e-08
6.42547e-09
-1.01842e-08
-3.91781e-08
5.53775e-09
-6.82507e-09
-3.56785e-08
4.71644e-09
-3.75306e-09
-3.04246e-08
3.86274e-09
-1.29886e-09
-2.26459e-08
2.8056e-09
-1.0794e-08
1.30771e-09
1.30871e-09
-1.34103e-08
1.33903e-09
3.81061e-09
-2.81182e-08
2.90817e-09
6.94763e-09
-3.75677e-08
3.98035e-09
1.03699e-08
-4.39429e-08
4.84173e-09
1.37675e-08
-4.8259e-08
5.68798e-09
1.68465e-08
-5.10587e-08
6.62595e-09
1.93247e-08
-5.26856e-08
7.69765e-09
2.0938e-08
-5.33976e-08
8.91863e-09
2.14674e-08
-5.3411e-08
1.02677e-08
2.07577e-08
-5.29195e-08
1.16995e-08
1.87234e-08
-5.21182e-08
1.31554e-08
1.53644e-08
-5.12107e-08
1.45746e-08
1.09242e-08
-5.03354e-08
1.57435e-08
5.7067e-09
-4.92772e-08
1.64112e-08
8.62277e-11
-4.87365e-08
1.67792e-08
-5.56742e-09
-4.87873e-08
1.68217e-08
-1.0822e-08
-4.93498e-08
1.64502e-08
-1.52272e-08
-5.02762e-08
1.57051e-08
-1.85814e-08
-5.11999e-08
1.45728e-08
-2.0634e-08
-5.21216e-08
1.31779e-08
-2.13671e-08
-5.29223e-08
1.17259e-08
-2.08591e-08
-5.34148e-08
1.02925e-08
-1.92641e-08
-5.34049e-08
8.94141e-09
-1.68025e-08
-5.26955e-08
7.7193e-09
-1.3737e-08
-5.10681e-08
6.64365e-09
-1.03534e-08
-4.82616e-08
5.69982e-09
-6.94861e-09
-4.39191e-08
4.83591e-09
-3.82589e-09
-3.7497e-08
3.94964e-09
-1.3229e-09
-2.80168e-08
2.8679e-09
-1.34549e-08
1.33796e-09
1.286e-09
-1.60111e-08
1.31475e-09
3.7283e-09
-3.34296e-08
2.86908e-09
6.80122e-09
-4.45919e-08
3.9513e-09
1.01642e-08
-5.21197e-08
4.81389e-09
1.35049e-08
-5.72521e-08
5.65231e-09
1.65286e-08
-6.06822e-08
6.59983e-09
1.89688e-08
-6.28335e-08
7.70772e-09
2.05717e-08
-6.39841e-08
8.98349e-09
2.11183e-08
-6.43614e-08
1.04038e-08
2.04502e-08
-6.41739e-08
1.19225e-08
1.84865e-08
-6.36204e-08
1.34659e-08
1.52123e-08
-6.28976e-08
1.49611e-08
1.07981e-08
-6.21703e-08
1.62491e-08
5.63347e-09
-6.10795e-08
1.69669e-08
8.16643e-11
-6.0585e-08
1.74003e-08
-5.51032e-09
-6.06299e-08
1.74346e-08
-1.07263e-08
-6.11067e-08
1.69729e-08
-1.50999e-08
-6.208e-08
1.61775e-08
-1.83514e-08
-6.28872e-08
1.49388e-08
-2.03295e-08
-6.36272e-08
1.34836e-08
-2.10189e-08
-6.41819e-08
1.1949e-08
-2.04932e-08
-6.43701e-08
1.04295e-08
-1.89087e-08
-6.39964e-08
9.00704e-09
-1.64843e-08
-6.28498e-08
7.72981e-09
-1.34756e-08
-6.06917e-08
6.61492e-09
-1.01583e-08
-5.72242e-08
5.6453e-09
-6.81911e-09
-5.20278e-08
4.76949e-09
-3.7545e-09
-4.44469e-08
3.88537e-09
-1.29476e-09
-3.32994e-08
2.82287e-09
-1.60651e-08
1.31546e-09
1.22001e-09
-1.84639e-08
1.2328e-09
3.52527e-09
-3.84285e-08
2.69369e-09
6.39622e-09
-5.12102e-08
3.74742e-09
9.56057e-09
-5.98897e-08
4.60568e-09
1.27301e-08
-6.58419e-08
5.42025e-09
1.56011e-08
-6.98788e-08
6.32554e-09
1.79237e-08
-7.25725e-08
7.41646e-09
1.94639e-08
-7.422e-08
8.69571e-09
2.00162e-08
-7.50464e-08
1.01327e-08
1.94189e-08
-7.52572e-08
1.16806e-08
1.75949e-08
-7.50503e-08
1.32539e-08
1.45294e-08
-7.4603e-08
1.47709e-08
1.0281e-08
-7.40433e-08
1.61214e-08
5.36038e-09
-7.30598e-08
1.69009e-08
7.56933e-11
-7.26603e-08
1.73601e-08
-5.23991e-09
-7.27027e-08
1.73884e-08
-1.01944e-08
-7.30333e-08
1.68811e-08
-1.44196e-08
-7.3862e-08
1.60072e-08
-1.74689e-08
-7.4578e-08
1.47401e-08
-1.93025e-08
-7.50624e-08
1.32687e-08
-1.99203e-08
-7.52701e-08
1.17061e-08
-1.93891e-08
-7.5059e-08
1.01578e-08
-1.78652e-08
-7.42388e-08
8.71854e-09
-1.55555e-08
-7.2595e-08
7.43549e-09
-1.27074e-08
-6.98641e-08
6.32437e-09
-9.57317e-09
-6.57256e-08
5.36723e-09
-6.41775e-09
-5.96956e-08
4.51231e-09
-3.52837e-09
-5.09989e-08
3.66262e-09
-1.21569e-09
-3.82677e-08
2.65567e-09
-1.85198e-08
1.23904e-09
1.10089e-09
-2.06589e-08
1.09411e-09
3.18824e-09
-4.28753e-08
2.35945e-09
5.76085e-09
-5.70866e-08
3.3038e-09
8.57173e-09
-6.68439e-08
4.14331e-09
1.14223e-08
-7.36224e-08
4.93e-09
1.40213e-08
-7.82449e-08
5.76706e-09
1.61353e-08
-8.1471e-08
6.78461e-09
1.75539e-08
-8.36433e-08
8.00462e-09
1.80874e-08
-8.49633e-08
9.38346e-09
1.75882e-08
-8.56227e-08
1.08647e-08
1.59999e-08
-8.57964e-08
1.23344e-08
1.32814e-08
-8.56125e-08
1.3728e-08
9.36764e-09
-8.51783e-08
1.50488e-08
4.87497e-09
-8.4533e-08
1.59659e-08
6.84514e-11
-8.42988e-08
1.6445e-08
-4.75699e-09
-8.43414e-08
1.64641e-08
-9.2261e-09
-8.45115e-08
1.59473e-08
-1.30685e-08
-8.50884e-08
1.50688e-08
-1.58251e-08
-8.57204e-08
1.3899e-08
-1.74685e-08
-8.58447e-08
1.24257e-08
-1.79937e-08
-8.56422e-08
1.08973e-08
-1.74831e-08
-8.49727e-08
9.40302e-09
-1.6078e-08
-8.36645e-08
8.02059e-09
-1.3972e-08
-8.14945e-08
6.79352e-09
-1.13975e-08
-7.81766e-08
5.73803e-09
-8.57138e-09
-7.3384e-08
4.83229e-09
-5.72429e-09
-6.65695e-08
4.0268e-09
-3.1316e-09
-5.68408e-08
3.2492e-09
-1.06861e-09
-4.26811e-08
2.35044e-09
-2.06902e-08
1.10178e-09
9.2751e-10
-2.24893e-08
9.02908e-10
2.70581e-09
-4.65499e-08
1.89633e-09
4.87936e-09
-6.18692e-08
2.60903e-09
7.23661e-09
-7.25261e-08
3.32493e-09
9.58456e-09
-8.00518e-08
4.08148e-09
1.17651e-08
-8.52865e-08
4.86098e-09
1.35676e-08
-8.90319e-08
5.75835e-09
1.48067e-08
-9.17279e-08
6.84554e-09
1.53102e-08
-9.35458e-08
8.07897e-09
1.49435e-08
-9.46204e-08
9.36433e-09
1.36173e-08
-9.50939e-08
1.06237e-08
1.12485e-08
-9.52018e-08
1.19581e-08
7.94474e-09
-9.50918e-08
1.32172e-08
4.14686e-09
-9.48004e-08
1.40653e-08
5.69105e-11
-9.47053e-08
1.44964e-08
-4.06237e-09
-9.46805e-08
1.44584e-08
-7.86697e-09
-9.46497e-08
1.39429e-08
-1.11232e-08
-9.4957e-08
1.31248e-08
-1.3449e-08
-9.54707e-08
1.20761e-08
-1.48048e-08
-9.51887e-08
1.06999e-08
-1.52055e-08
-9.46048e-08
9.36331e-09
-1.47351e-08
-9.35088e-08
8.06578e-09
-1.35118e-08
-9.17303e-08
6.84254e-09
-1.16981e-08
-8.90549e-08
5.74666e-09
-9.51815e-09
-8.51742e-08
4.81765e-09
-7.15295e-09
-7.97942e-08
4.04499e-09
-4.80256e-09
-7.23117e-08
3.39186e-09
-2.64463e-09
-6.17569e-08
2.75812e-09
-9.12256e-10
-4.64124e-08
1.99887e-09
-2.25353e-08
9.32889e-10
7.11497e-10
-2.38813e-08
6.80553e-10
2.04946e-09
-4.93378e-08
1.44995e-09
3.72726e-09
-6.55051e-08
1.9581e-09
5.52418e-09
-7.67195e-08
2.39649e-09
7.26594e-09
-8.47333e-08
2.9397e-09
8.8871e-09
-9.0505e-08
3.59742e-09
1.02544e-08
-9.47383e-08
4.33921e-09
1.12431e-08
-9.78985e-08
5.1819e-09
1.17259e-08
-1.00155e-07
6.12626e-09
1.14677e-08
-1.01512e-07
7.14943e-09
1.03315e-08
-1.02244e-07
8.28673e-09
8.42754e-09
-1.02753e-07
9.45491e-09
6.03397e-09
-1.03138e-07
1.04398e-08
3.18689e-09
-1.0307e-07
1.11164e-08
4.95875e-11
-1.03009e-07
1.1441e-08
-3.14006e-09
-1.02856e-07
1.13654e-08
-6.04575e-09
-1.02692e-07
1.0948e-08
-8.49175e-09
-1.02756e-07
1.02449e-08
-1.03379e-08
-1.02875e-07
9.25065e-09
-1.13616e-08
-1.02197e-07
8.03167e-09
-1.16106e-08
-1.01335e-07
6.97954e-09
-1.12132e-08
-9.99123e-08
6.00612e-09
-1.02773e-08
-9.7778e-08
5.11185e-09
-8.91718e-09
-9.47739e-08
4.35888e-09
-7.26009e-09
-9.0541e-08
3.70975e-09
-5.45966e-09
-8.4714e-08
3.1194e-09
-3.6653e-09
-7.67032e-08
2.59715e-09
-2.01776e-09
-6.54996e-08
2.09515e-09
-6.96998e-10
-4.92472e-08
1.51405e-09
-2.39377e-08
7.0533e-10
4.80545e-10
-2.47757e-08
4.13782e-10
1.29598e-09
-5.10231e-08
8.69874e-10
2.34272e-09
-6.78101e-08
1.25823e-09
3.47881e-09
-7.94265e-08
1.57095e-09
4.59341e-09
-8.77787e-08
1.93079e-09
5.63654e-09
-9.38932e-08
2.345e-09
6.51245e-09
-9.83993e-08
2.78508e-09
7.10704e-09
-1.0172e-07
3.22637e-09
7.42745e-09
-1.04182e-07
3.70698e-09
7.2399e-09
-1.05738e-07
4.4143e-09
6.49458e-09
-1.06783e-07
5.28433e-09
5.34158e-09
-1.07684e-07
6.0843e-09
3.83348e-09
-1.0834e-07
6.70979e-09
2.03168e-09
-1.08412e-07
7.14421e-09
5.98292e-11
-1.08422e-07
7.38529e-09
-1.94202e-09
-1.08219e-07
7.36422e-09
-3.77721e-09
-1.07976e-07
7.11934e-09
-5.29178e-09
-1.07914e-07
6.67256e-09
-6.47493e-09
-1.07755e-07
6.06318e-09
-7.2025e-09
-1.06728e-07
5.25913e-09
-7.47351e-09
-1.05475e-07
4.41023e-09
-7.26164e-09
-1.03743e-07
3.61924e-09
-6.62013e-09
-1.01432e-07
3.01224e-09
-5.67246e-09
-9.83183e-08
2.59668e-09
-4.57866e-09
-9.39023e-08
2.26743e-09
-3.42972e-09
-8.78094e-08
1.94639e-09
-2.2961e-09
-7.94647e-08
1.62787e-09
-1.26025e-09
-6.78478e-08
1.31234e-09
-4.35737e-10
-5.10179e-08
9.46246e-10
-2.48139e-08
4.40483e-10
1.75449e-10
-2.50916e-08
1.40462e-10
4.5007e-10
-5.15985e-08
3.00746e-10
8.18228e-10
-6.86273e-08
4.49059e-10
1.22257e-09
-8.03917e-08
5.60873e-10
1.6309e-09
-8.88598e-08
6.72803e-10
2.04462e-09
-9.5073e-08
7.6609e-10
2.42936e-09
-9.96315e-08
8.47426e-10
2.65897e-09
-1.02929e-07
9.79449e-10
2.69112e-09
-1.05401e-07
1.18618e-09
2.54597e-09
-1.07074e-07
1.48099e-09
2.31529e-09
-1.08343e-07
1.78987e-09
1.97707e-09
-1.09397e-07
2.05117e-09
1.34075e-09
-1.09932e-07
2.22829e-09
6.6577e-10
-1.10091e-07
2.35394e-09
3.46183e-11
-1.10271e-07
2.48009e-09
-6.67861e-10
-1.10103e-07
2.58716e-09
-1.32514e-09
-1.09901e-07
2.58205e-09
-1.8447e-09
-1.09807e-07
2.4125e-09
-2.25396e-09
-1.09534e-07
2.18772e-09
-2.50705e-09
-1.08387e-07
1.9121e-09
-2.60992e-09
-1.06993e-07
1.62092e-09
-2.54566e-09
-1.05147e-07
1.33969e-09
-2.32235e-09
-1.02765e-07
1.11017e-09
-1.98727e-09
-9.9589e-08
9.3568e-10
-1.59785e-09
-9.50824e-08
7.90688e-10
-1.19054e-09
-8.88771e-08
6.60417e-10
-7.90422e-10
-8.0411e-08
5.46218e-10
-4.2888e-10
-6.86488e-08
4.39529e-10
-1.47438e-10
-5.16131e-08
3.13776e-10
-2.51124e-08
1.5111e-10
-1.23989e-10
-2.48312e-08
-1.36372e-10
-3.85382e-10
-5.10619e-08
-2.75203e-10
-7.06931e-10
-6.79305e-08
-3.75271e-10
-1.05881e-09
-7.95724e-08
-4.67436e-10
-1.42174e-09
-8.79437e-08
-5.53154e-10
-1.78653e-09
-9.40939e-08
-6.14316e-10
-2.12702e-09
-9.86307e-08
-6.60337e-10
-2.34332e-09
-1.01962e-07
-7.50715e-10
-2.34807e-09
-1.04435e-07
-9.60348e-10
-2.19048e-09
-1.05958e-07
-1.27403e-09
-1.98603e-09
-1.06975e-07
-1.57233e-09
-1.8088e-09
-1.07802e-07
-1.77222e-09
-1.52816e-09
-1.0831e-07
-1.90195e-09
-9.43197e-10
-1.08639e-07
-2.03751e-09
-9.06206e-11
-1.0888e-07
-2.2438e-09
6.09888e-10
-1.0848e-07
-2.32361e-09
1.21298e-09
-1.08274e-07
-2.22997e-09
1.75501e-09
-1.08266e-07
-2.08276e-09
2.05369e-09
-1.07939e-07
-1.89333e-09
2.24546e-09
-1.06908e-07
-1.67076e-09
2.34073e-09
-1.05666e-07
-1.42235e-09
2.28896e-09
-1.03928e-07
-1.16765e-09
2.10978e-09
-1.01618e-07
-9.67962e-10
1.80898e-09
-9.84643e-08
-8.23906e-10
1.46029e-09
-9.40203e-08
-7.13426e-10
1.09855e-09
-8.79066e-08
-6.08738e-10
7.37288e-10
-7.95454e-08
-5.0439e-10
4.09855e-10
-6.79217e-08
-3.9969e-10
1.47678e-10
-5.10734e-08
-2.77615e-10
-2.48355e-08
-1.29259e-10
-4.20309e-10
-2.39866e-08
-4.24327e-10
-1.22132e-09
-4.93529e-08
-9.07941e-10
-2.22123e-09
-6.56697e-08
-1.26086e-09
-3.31629e-09
-7.69115e-08
-1.56583e-09
-4.41658e-09
-8.49593e-08
-1.88409e-09
-5.43651e-09
-9.08342e-08
-2.23977e-09
-6.28389e-09
-9.51451e-08
-2.63818e-09
-6.88386e-09
-9.82744e-08
-3.08719e-09
-7.16129e-09
-1.00567e-07
-3.59134e-09
-6.94722e-09
-1.01928e-07
-4.24405e-09
-6.23366e-09
-1.02628e-07
-5.06067e-09
-5.20585e-09
-1.03034e-07
-5.79618e-09
-3.80766e-09
-1.03347e-07
-6.36153e-09
-2.04933e-09
-1.03591e-07
-6.80549e-09
-3.73369e-11
-1.03799e-07
-7.09354e-09
1.90628e-09
-1.03357e-07
-7.06689e-09
3.73378e-09
-1.03279e-07
-6.82285e-09
5.33285e-09
-1.03483e-07
-6.38222e-09
6.29238e-09
-1.03124e-07
-5.77414e-09
6.91603e-09
-1.02451e-07
-5.08126e-09
7.19232e-09
-1.01657e-07
-4.28453e-09
6.98577e-09
-1.00268e-07
-3.45297e-09
6.38834e-09
-9.81152e-08
-2.90545e-09
5.47442e-09
-9.50094e-08
-2.541e-09
4.42476e-09
-9.07571e-08
-2.21348e-09
3.33778e-09
-8.49336e-08
-1.88597e-09
2.24692e-09
-7.69011e-08
-1.55346e-09
1.25601e-09
-6.57025e-08
-1.22826e-09
4.56253e-10
-4.94193e-08
-8.54274e-10
-2.39719e-08
-4.07313e-10
-6.87589e-10
-2.26096e-08
-6.89334e-10
-1.98242e-09
-4.65773e-08
-1.48084e-09
-3.59963e-09
-6.19965e-08
-2.05602e-09
-5.3623e-09
-7.25962e-08
-2.55265e-09
-7.12472e-09
-8.01259e-08
-3.071e-09
-8.73421e-09
-8.55535e-08
-3.67124e-09
-1.00464e-08
-8.94701e-08
-4.36292e-09
-1.09753e-08
-9.21817e-08
-5.16379e-09
-1.14395e-08
-9.40358e-08
-6.06671e-09
-1.12106e-08
-9.51482e-08
-7.00855e-09
-1.01248e-08
-9.56219e-08
-8.09163e-09
-8.32228e-09
-9.56238e-08
-9.21236e-09
-5.96389e-09
-9.55447e-08
-1.01606e-08
-3.15288e-09
-9.55509e-08
-1.08514e-08
-4.12598e-11
-9.56864e-08
-1.12238e-08
3.05474e-09
-9.53136e-08
-1.11394e-08
5.93843e-09
-9.53784e-08
-1.0784e-08
8.43548e-09
-9.58672e-08
-1.01128e-08
1.01337e-08
-9.56834e-08
-9.13923e-09
1.11603e-08
-9.5411e-08
-8.06623e-09
1.14712e-08
-9.49817e-08
-6.98655e-09
1.1078e-08
-9.39716e-08
-5.90375e-09
1.01063e-08
-9.21743e-08
-4.96921e-09
8.72852e-09
-8.94399e-08
-4.1917e-09
7.09689e-09
-8.55993e-08
-3.52616e-09
5.36807e-09
-8.02717e-08
-2.93315e-09
3.6404e-09
-7.27596e-08
-2.41383e-09
2.04429e-09
-6.21877e-08
-1.91874e-09
7.30267e-10
-4.67561e-08
-1.34919e-09
-2.25907e-08
-6.50985e-10
-9.17747e-10
-2.07804e-08
-9.11483e-10
-2.62181e-09
-4.29113e-08
-1.96186e-09
-4.7542e-09
-5.71266e-08
-2.73752e-09
-7.08186e-09
-6.68884e-08
-3.38018e-09
-9.41988e-09
-7.37522e-08
-4.03575e-09
-1.15857e-08
-7.85869e-08
-4.80075e-09
-1.33883e-08
-8.19468e-08
-5.72064e-09
-1.46059e-08
-8.41605e-08
-6.80359e-09
-1.51025e-08
-8.55262e-08
-8.01303e-09
-1.4748e-08
-8.62374e-08
-9.2654e-09
-1.34197e-08
-8.64399e-08
-1.05102e-08
-1.10443e-08
-8.6216e-08
-1.17833e-08
-7.84461e-09
-8.57571e-08
-1.29873e-08
-4.11027e-09
-8.54166e-08
-1.38687e-08
-3.3494e-11
-8.54273e-08
-1.43359e-08
4.03382e-09
-8.51628e-08
-1.42181e-08
7.80535e-09
-8.53736e-08
-1.37763e-08
1.1055e-08
-8.612e-08
-1.29969e-08
1.33889e-08
-8.62983e-08
-1.1719e-08
1.47325e-08
-8.63957e-08
-1.03589e-08
1.51229e-08
-8.62191e-08
-9.15297e-09
1.46504e-08
-8.55463e-08
-7.9529e-09
1.34323e-08
-8.41956e-08
-6.76053e-09
1.16505e-08
-8.1975e-08
-5.68319e-09
9.49079e-09
-7.86617e-08
-4.77796e-09
7.16789e-09
-7.39574e-08
-3.99142e-09
4.86705e-09
-6.724e-08
-3.21874e-09
2.72161e-09
-5.7552e-08
-2.49022e-09
9.61581e-10
-4.32384e-08
-1.75772e-09
-2.07679e-08
-8.61227e-10
-1.09649e-09
-1.85984e-08
-1.08556e-09
-3.12333e-09
-3.85599e-08
-2.32461e-09
-5.68723e-09
-5.13133e-08
-3.24939e-09
-8.51634e-09
-6.00333e-08
-4.02597e-09
-1.13393e-08
-6.61123e-08
-4.81687e-09
-1.39145e-08
-7.03011e-08
-5.71071e-09
-1.60215e-08
-7.30792e-08
-6.76061e-09
-1.74304e-08
-7.47738e-08
-7.97785e-09
-1.79564e-08
-7.56482e-08
-9.35197e-09
-1.74599e-08
-7.59097e-08
-1.08243e-08
-1.58713e-08
-7.57406e-08
-1.22878e-08
-1.3144e-08
-7.53036e-08
-1.36397e-08
-9.32055e-09
-7.46949e-08
-1.48857e-08
-4.83853e-09
-7.40182e-08
-1.58805e-08
-2.44154e-11
-7.37925e-08
-1.6449e-08
4.77274e-09
-7.36036e-08
-1.63564e-08
9.24135e-09
-7.39742e-08
-1.5868e-08
1.30606e-08
-7.49091e-08
-1.50302e-08
1.58235e-08
-7.53578e-08
-1.37035e-08
1.74513e-08
-7.57562e-08
-1.22673e-08
1.79652e-08
-7.59276e-08
-1.08055e-08
1.7448e-08
-7.56779e-08
-9.35113e-09
1.60449e-08
-7.48117e-08
-7.98082e-09
1.395e-08
-7.312e-08
-6.76007e-09
1.13697e-08
-7.03547e-08
-5.7266e-09
8.52809e-09
-6.62293e-08
-4.88649e-09
5.70348e-09
-6.02769e-08
-4.13843e-09
3.15476e-09
-5.16491e-08
-3.35424e-09
1.10476e-09
-3.88102e-08
-2.37814e-09
-1.85799e-08
-1.08325e-09
-1.21725e-09
-1.61463e-08
-1.23482e-09
-3.52137e-09
-3.35924e-08
-2.66334e-09
-6.40665e-09
-4.47611e-08
-3.66688e-09
-9.55937e-09
-5.23732e-08
-4.50741e-09
-1.26974e-08
-5.762e-08
-5.35426e-09
-1.55542e-08
-6.1136e-08
-6.30834e-09
-1.78718e-08
-6.3343e-08
-7.41868e-09
-1.94073e-08
-6.45391e-08
-8.69912e-09
-1.99531e-08
-6.49626e-08
-1.01397e-08
-1.9355e-08
-6.4819e-08
-1.16888e-08
-1.75312e-08
-6.4306e-08
-1.32584e-08
-1.4485e-08
-6.36197e-08
-1.473e-08
-1.02868e-08
-6.28949e-08
-1.59982e-08
-5.30253e-09
-6.20874e-08
-1.69151e-08
-1.61308e-11
-6.16144e-08
-1.74645e-08
5.28144e-09
-6.14941e-08
-1.7407e-08
1.02503e-08
-6.20037e-08
-1.69394e-08
1.44276e-08
-6.29603e-08
-1.6126e-08
1.74945e-08
-6.36406e-08
-1.47842e-08
1.9337e-08
-6.43249e-08
-1.32738e-08
1.99501e-08
-6.48404e-08
-1.17002e-08
1.9414e-08
-6.49901e-08
-1.01517e-08
1.78858e-08
-6.45731e-08
-8.71049e-09
1.55753e-08
-6.33833e-08
-7.42624e-09
1.27209e-08
-6.11824e-08
-6.31788e-09
9.56383e-09
-5.76826e-08
-5.38966e-09
6.37875e-09
-5.24907e-08
-4.60115e-09
3.48722e-09
-4.49529e-08
-3.80464e-09
1.20942e-09
-3.37788e-08
-2.75366e-09
-1.61314e-08
-1.23907e-09
-1.27253e-09
-1.35462e-08
-1.32756e-09
-3.74907e-09
-2.82532e-08
-2.86272e-09
-6.83079e-09
-3.77818e-08
-3.89763e-09
-1.01794e-08
-4.42528e-08
-4.77183e-09
-1.35092e-08
-4.86429e-08
-5.64722e-09
-1.65319e-08
-5.14943e-08
-6.61897e-09
-1.8973e-08
-5.31647e-08
-7.73727e-09
-2.05756e-08
-5.39175e-08
-9.01896e-09
-2.11199e-08
-5.39701e-08
-1.04483e-08
-2.04458e-08
-5.35189e-08
-1.19741e-08
-1.84745e-08
-5.27532e-08
-1.35242e-08
-1.52098e-08
-5.18729e-08
-1.50115e-08
-1.08164e-08
-5.0995e-08
-1.62934e-08
-5.56792e-09
-5.01752e-08
-1.71606e-08
-8.42438e-12
-4.95989e-08
-1.7575e-08
5.5683e-09
-4.95495e-08
-1.75214e-08
1.07944e-08
-5.01232e-08
-1.71067e-08
1.51707e-08
-5.10332e-08
-1.63033e-08
1.84389e-08
-5.1889e-08
-1.50199e-08
2.04229e-08
-5.27686e-08
-1.35402e-08
2.11096e-08
-5.35366e-08
-1.19906e-08
2.05764e-08
-5.39939e-08
-1.0463e-08
1.89828e-08
-5.39469e-08
-9.03254e-09
1.65462e-08
-5.31994e-08
-7.74738e-09
1.35262e-08
-5.15345e-08
-6.62791e-09
1.01935e-08
-4.86897e-08
-5.66004e-09
6.82525e-09
-4.43164e-08
-4.80608e-09
3.73484e-09
-3.7898e-08
-3.96452e-09
1.28335e-09
-2.84209e-08
-2.90639e-09
-1.35268e-08
-1.32127e-09
-1.31273e-09
-1.08833e-08
-1.3502e-09
-3.83618e-09
-2.28373e-08
-2.89239e-09
-6.978e-09
-3.06782e-08
-3.96178e-09
-1.04014e-08
-3.59815e-08
-4.84789e-09
-1.38062e-08
-3.95234e-08
-5.71471e-09
-1.68937e-08
-4.17433e-08
-6.66351e-09
-1.93781e-08
-4.29345e-08
-7.74582e-09
-2.09953e-08
-4.33237e-08
-8.9766e-09
-2.15225e-08
-4.31053e-08
-1.03376e-08
-2.08042e-08
-4.24539e-08
-1.17834e-08
-1.87536e-08
-4.1552e-08
-1.32518e-08
-1.53969e-08
-4.05646e-08
-1.4665e-08
-1.09827e-08
-3.9584e-08
-1.58252e-08
-5.72907e-09
-3.8812e-08
-1.66168e-08
-4.51186e-11
-3.83109e-08
-1.6972e-08
5.61199e-09
-3.82574e-08
-1.69492e-08
1.08443e-08
-3.87491e-08
-1.66064e-08
1.5327e-08
-3.96345e-08
-1.58815e-08
1.87177e-08
-4.05812e-08
-1.46985e-08
2.07782e-08
-4.15591e-08
-1.327e-08
2.15089e-08
-4.24664e-08
-1.18009e-08
2.09912e-08
-4.31228e-08
-1.03533e-08
1.9382e-08
-4.33475e-08
-8.99022e-09
1.69028e-08
-4.29621e-08
-7.75804e-09
1.3818e-08
-4.17747e-08
-6.67496e-09
1.04134e-08
-3.95596e-08
-5.7255e-09
6.98434e-09
-3.60236e-08
-4.86379e-09
3.82759e-09
-3.07394e-08
-4.00181e-09
1.30013e-09
-2.2941e-08
-2.95238e-09
-1.08731e-08
-1.35356e-09
-1.30117e-09
-8.26203e-09
-1.32006e-09
-3.7722e-09
-1.75422e-08
-2.82416e-09
-6.86656e-09
-2.37032e-08
-3.88064e-09
-1.02516e-08
-2.78587e-08
-4.73767e-09
-1.36255e-08
-3.05855e-08
-5.56401e-09
-1.66887e-08
-3.22212e-08
-6.45895e-09
-1.91495e-08
-3.30021e-08
-7.47157e-09
-2.07437e-08
-3.31146e-08
-8.61498e-09
-2.12528e-08
-3.27217e-08
-9.87449e-09
-2.05199e-08
-3.19805e-08
-1.12063e-08
-1.84716e-08
-3.1045e-08
-1.25552e-08
-1.51707e-08
-3.00465e-08
-1.38189e-08
-1.08276e-08
-2.91011e-08
-1.48259e-08
-5.67598e-09
-2.83972e-08
-1.55665e-08
-5.10982e-11
-2.80061e-08
-1.59297e-08
5.53981e-09
-2.79473e-08
-1.5901e-08
1.06976e-08
-2.83486e-08
-1.55583e-08
1.50983e-08
-2.91449e-08
-1.48903e-08
1.84356e-08
-3.00654e-08
-1.38531e-08
2.0492e-08
-3.10481e-08
-1.25674e-08
2.12336e-08
-3.19873e-08
-1.12207e-08
2.07365e-08
-3.2735e-08
-9.89068e-09
1.915e-08
-3.3131e-08
-8.63005e-09
1.6694e-08
-3.30225e-08
-7.48363e-09
1.36344e-08
-3.22453e-08
-6.46982e-09
1.02624e-08
-3.0613e-08
-5.57461e-09
6.87461e-09
-2.78875e-08
-4.74831e-09
3.77225e-09
-2.37395e-08
-3.89759e-09
1.28646e-09
-1.75966e-08
-2.85866e-09
-8.26413e-09
-1.32248e-09
-1.22856e-09
-5.79763e-09
-1.23584e-09
-3.56418e-09
-1.2559e-08
-2.64758e-09
-6.50722e-09
-1.71216e-08
-3.63857e-09
-9.74879e-09
-2.01846e-08
-4.43257e-09
-1.29983e-08
-2.21469e-08
-5.18911e-09
-1.5961e-08
-2.32565e-08
-6.00199e-09
-1.83457e-08
-2.36962e-08
-6.92114e-09
-1.9893e-08
-2.3612e-08
-7.95533e-09
-2.03869e-08
-2.31374e-08
-9.09044e-09
-1.96766e-08
-2.23983e-08
-1.02926e-08
-1.76914e-08
-2.15152e-08
-1.15151e-08
-1.45332e-08
-2.05959e-08
-1.26088e-08
-1.03638e-08
-1.97745e-08
-1.3496e-08
-5.42674e-09
-1.91686e-08
-1.41656e-08
-4.44544e-11
-1.88572e-08
-1.45312e-08
5.30829e-09
-1.88095e-08
-1.44905e-08
1.02541e-08
-1.91375e-08
-1.41569e-08
1.44669e-08
-1.98011e-08
-1.35566e-08
1.76566e-08
-2.06112e-08
-1.26438e-08
1.96474e-08
-2.15205e-08
-1.15184e-08
2.03667e-08
-2.24022e-08
-1.03044e-08
1.9883e-08
-2.31452e-08
-9.10615e-09
1.83445e-08
-2.36228e-08
-7.96972e-09
1.59648e-08
-2.37096e-08
-6.93313e-09
1.30055e-08
-2.32733e-08
-6.01276e-09
9.75523e-09
-2.21648e-08
-5.1979e-09
6.51287e-09
-2.0204e-08
-4.44112e-09
3.56822e-09
-1.71465e-08
-3.64829e-09
1.22579e-09
-1.25915e-08
-2.66262e-09
-5.80127e-09
-1.23707e-09
-1.09494e-09
-3.60612e-09
-1.09657e-09
-3.19977e-09
-8.09734e-09
-2.35679e-09
-5.8951e-09
-1.11978e-08
-3.22848e-09
-8.89913e-09
-1.32649e-08
-3.91566e-09
-1.19409e-08
-1.45361e-08
-4.56894e-09
-1.4737e-08
-1.51878e-08
-5.27277e-09
-1.70013e-08
-1.53574e-08
-6.07451e-09
-1.84808e-08
-1.51522e-08
-6.98029e-09
-1.89682e-08
-1.46717e-08
-7.97838e-09
-1.83184e-08
-1.40092e-08
-9.03897e-09
-1.64748e-08
-1.32511e-08
-1.01077e-08
-1.35363e-08
-1.24952e-08
-1.10392e-08
-9.64622e-09
-1.18344e-08
-1.18302e-08
-5.04281e-09
-1.13481e-08
-1.2424e-08
-3.77199e-11
-1.10987e-08
-1.27636e-08
4.94311e-09
-1.10707e-08
-1.27197e-08
9.54701e-09
-1.133e-08
-1.24114e-08
1.34631e-08
-1.18427e-08
-1.18745e-08
1.64316e-08
-1.25012e-08
-1.10786e-08
1.82892e-08
-1.3255e-08
-1.01231e-08
1.89478e-08
-1.40115e-08
-9.04931e-09
1.84703e-08
-1.46757e-08
-7.99195e-09
1.69985e-08
-1.51581e-08
-6.99297e-09
1.47385e-08
-1.53653e-08
-6.08438e-09
1.19451e-08
-1.51972e-08
-5.2827e-09
8.90348e-09
-1.4547e-08
-4.57625e-09
5.90075e-09
-1.32793e-08
-3.92197e-09
3.20757e-09
-1.12207e-08
-3.23266e-09
1.09751e-09
-8.12186e-09
-2.35961e-09
-3.60861e-09
-1.09515e-09
-8.95079e-10
-1.81718e-09
-8.93862e-10
-2.67422e-09
-4.39492e-09
-1.92328e-09
-5.02031e-09