/*--------------------------------*- C++ -*----------------------------------*\
| =========                 |                                                 |
| \\      /  F ield         | OpenFOAM: The Open Source CFD Toolbox           |
|  \\    /   O peration     | Version:  v1912                                 |
|   \\  /    A nd           | Website:  www.openfoam.com                      |
|    \\/     M anipulation  |                                                 |
\*---------------------------------------------------------------------------*/
FoamFile
{
    version     2.0;
    format      ascii;
    class       volScalarField;
    location    "334/oil";
    object      wallHeatFlux;
}
// * * * * * * * * * * * * * * * * * * * * * * * * * * * * * * * * * * * * * //

dimensions      [1 0 -3 0 0 0 0];


internalField   uniform 0;

boundaryField
{
    maxY
    {
        type            calculated;
        value           uniform 0;
    }
    minX
    {
        type            calculated;
        value           uniform 0;
    }
    maxX
    {
        type            calculated;
        value           uniform 0;
    }
    minY
    {
        type            calculated;
        value           uniform 0;
    }
    minZ
    {
        type            calculated;
        value           uniform 0;
    }
    maxZ
    {
        type            calculated;
        value           uniform 0;
    }
    oil_to_sphere
    {
        type            calculated;
        value           nonuniform List<scalar> 
1536
(
1254.51
975.899
969.736
461.634
448.378
962.255
737.381
829.968
796.542
505.5
301.154
543.584
791.453
554.653
234.967
706.786
963.035
983.201
691.855
776.939
895.188
800.872
820.693
703.81
731.102
717.308
729.828
669.642
946.337
810.317
1029.85
977.756
987.518
709.464
725.961
671.845
697.419
615.339
667.066
728.156
655.645
696.366
787.033
844.43
912.99
724.692
890.822
817.812
256.024
715.983
869.162
800.543
812.294
703.252
937.243
1128.25
817.365
777.588
890.905
864.611
780.236
788.423
774.887
695.924
723.358
767.891
776.173
875.666
873.104
935.694
694.562
449.54
538.991
718.048
716.567
1146.55
990.956
618.735
707.443
973.736
898.9
858.087
463.025
455.574
944.919
1200.87
392.301
752.587
865.119
863.658
796.952
681.095
676.66
689.196
716.296
841.943
893.535
912.469
1011.07
857.224
900.924
690.505
1259.28
871.723
526.951
711.328
733.976
481.495
479.187
1266.72
988.043
828.835
786.448
821.659
423.432
451.176
368.89
1077.01
1228.9
1003.82
808.725
821.584
663.906
890.052
1026.5
844.826
806.518
645.413
907.186
889.422
769.163
878.219
933.515
736.58
754.173
949.575
823.122
976.034
650.708
965.818
799.012
886.365
889.152
790.829
758.594
784.675
846.138
1069.76
760.845
1270.96
924.191
970.01
817.21
832.736
716.806
847.126
947.306
888.001
1317.66
1016
987.282
1083.7
574.037
618.431
684.866
679.905
932.542
1054.91
1010.18
1131.87
669.003
686.419
621.703
894.737
809.415
834.439
1176.82
596.198
534.358
1200.65
673.204
622.237
611.837
637.937
868.111
1201.61
1018.13
655.846
567.632
978.657
585.842
930.541
930.431
1054.51
540.531
175.792
1044.21
1082.38
733.213
714.236
801.98
740.313
983.341
1041.05
917.714
858.999
689.313
1064.06
1013.67
833.897
644.947
723.106
711.839
746.049
899.847
1138.09
571.613
549.894
558.24
138.433
962.599
896.003
855.828
799.82
812.005
1065.33
928.822
720.72
964.319
508.357
673.065
188.843
789.289
947.074
1045.59
1017.27
963.51
904.933
1002.56
538.269
578.215
618.628
1088.55
631.378
185.146
378.696
897.84
784.664
1183.03
1311.65
826.59
455.506
145.614
863.702
1009.75
689.818
698.354
410.289
679.493
1064.43
1212.77
776.641
698.062
1113.42
1020.8
720.459
527.574
756.817
1147.02
1080.41
905.597
931.487
1033.76
612.195
709.328
1048.63
931.034
973.617
787.387
965.14
1130.55
915.649
892.726
1098.88
692.775
688.935
714.015
666.234
683.297
1058.55
1155.34
548.133
746.464
731.7
742.876
655.295
812.89
785.039
624.857
414.357
675.981
546.578
652.104
1202.49
1105.62
1100.66
1286
593.946
614.179
804.254
1271.82
1214.3
673.898
789.874
659.19
925.701
703.588
890.662
913.863
993.291
938.723
727.123
949.12
672.75
1035.53
1071.59
973.236
950.78
631.598
1163.26
1151.85
921.318
533.858
689.867
739.676
915.06
887.527
928.173
622.662
1031
1040.15
995.301
1098.91
877.653
843.391
778.157
577.941
845.673
920.966
575.284
555.035
604.55
1242.23
1025.7
1099.42
884.474
838.81
1053.63
561.879
1182.13
992.683
843.988
838.539
544.191
990.857
1019.25
642.487
844.536
771.485
699.207
926.765
1026.34
786.842
719.383
596.629
1138.54
1037.35
552.86
1056.44
1017.99
962.938
1137.57
840.327
941.227
500.479
542.284
912.957
1273.27
975.428
1181.99
881.524
735.619
1009.58
603.904
659.537
889.749
1021.27
930.988
887.13
615.752
615.467
1050.03
1035.75
1038.17
834.555
681.525
895.603
951.139
1017.4
850.546
754.243
634.528
825.96
590.864
482.395
687.616
637.032
830.055
507.105
738.707
1165.2
732.406
728.996
1018.39
1014.78
920.871
772.648
571.701
972.551
1102.38
907.295
854.198
982.48
791.373
820.132
879.675
460.31
905.435
1040.35
1096.96
1007.18
944.929
932.155
853.073
760.881
604.196
807.878
633.917
544.913
658.963
480.109
1211.02
1172.96
1073.04
1255.71
599.13
1214.27
620.13
674.588
961.351
580.174
611.686
742.006
731.929
1182.62
1104.2
880.502
900.487
1133.62
1051.94
849.973
949.214
648.838
1021.76
533.187
1093.88
457.71
938.126
971.845
1007.38
725.39
600.004
766.944
1015.99
780.02
513.492
1020.5
1041.86
1077.65
1289.79
850.918
1123.46
591.421
626.602
268.631
378.167
847.775
740.363
704.796
659.51
1233.68
619.613
561.573
522.52
744.024
508.392
1314.26
647.758
668.233
810.178
307.649
404.681
689.601
682.317
786.733
718.155
1039.92
1005.84
933.553
847.043
487.711
703.99
997.036
603.271
643.257
972.3
1141.18
648.186
267.904
577.803
300.436
803.026
725.545
668.957
532.361
304.604
928.264
966.797
888.755
799.118
1149.41
936.906
915.327
839.597
629.558
712.972
1038.93
934.684
749.412
369.142
857.244
987.463
1165.21
866.69
691.493
1166.05
813.802
1127.02
645.742
724.269
609.406
731.941
861.201
1140.82
603.638
664.479
627.865
745.528
1321.41
535.529
709.579
557.753
812.407
859.91
1042.2
1149.13
491.934
534.931
1145.57
1180.39
432.89
1129.47
1057.27
974.73
1049.16
916.222
827.43
841.68
1136.5
848.946
920.624
825.448
1018.68
868.618
804.487
785.554
576.953
973.202
798.967
1014.23
943.646
949.967
933.597
851.352
542.484
1047.86
1046.16
925.122
801.464
874.533
1257.58
504.343
640.75
586.783
859.131
657.019
1260.25
733.675
762.277
817.027
275.773
319.792
698.235
692.506
839.382
609.215
659.96
867.896
672.486
1151.18
580.837
1242.74
733.561
852.041
188.209
309.549
264.187
669.79
975.008
709.069
670.074
303.355
828.986
990.721
834.128
1392.79
647.046
1039.02
921.22
984.08
1064.35
1053.86
982.539
811.144
754.605
807.086
984.688
773.188
892.268
864.282
887.205
1008.82
935.236
972.254
572.676
635.261
168.452
413.132
474.855
5.44668
690.114
718.916
773.71
803.706
481.212
582.062
748.621
1082.13
1052.02
743.414
520.336
790.882
1001.27
923.785
817.067
501.278
646.855
928.955
875.856
812.023
699.318
954.746
959.795
1138.01
963.234
854.737
718.598
655.473
571.581
686.426
781.959
1275.61
847.959
1202.38
652.538
1298.66
690.113
783.079
593.128
620.953
720.945
566.804
768.065
505.085
701.885
1035.32
738.217
550.261
1156.91
946.99
897.458
795.019
1129.37
1429.84
419.115
938.578
882.686
919.953
565.795
799.122
657.821
884.851
966.299
1052.81
627.649
927.637
837.532
957.993
941.133
913.019
745.655
778.414
705.987
516.976
486.876
607.175
1113.92
703.132
560.642
710.889
1042.07
764.495
1111.86
1005.23
906.109
854.125
900.807
1171.09
607.661
933.712
1057.19
1085.39
849.393
654.97
758.512
901.933
1093.51
588.671
781.59
841.25
1034.91
901.671
898.04
1121.99
593.56
666.995
631.453
1172.83
1049.72
842.858
1032.57
669.79
702.015
1031.55
896.521
1139.47
620.023
987.862
1021.65
862.138
886.815
972.15
625.909
470.924
822.289
897.786
1183.29
787.806
684.749
806.443
903.57
983.645
853.721
661.363
789.862
1019.22
595.179
660.915
789.936
697.971
877.827
852.807
1079.49
918.778
1005.42
709.8
809.166
877.245
799.275
756.722
718.185
714.195
599.827
951.109
870.24
870.095
907.656
534.653
733.259
1162.63
1168.85
661.354
1038.45
902.367
948.582
710.616
1089.22
1069.65
613.988
763.889
729.126
717.658
526.318
583.044
729.085
1063.73
1261.42
684.812
969.96
949.931
896.389
773.606
879.253
1077.87
871.278
622.564
735.303
711.066
723.947
920.401
948.656
952.673
966.262
964.927
663.536
980.313
742.303
936.953
304.869
908.803
1105.78
755.643
418.919
818.509
778.762
1200.75
636.255
980.747
804.93
466.747
1152.13
549.57
781.218
825.816
532.285
1038.92
881.44
773.876
844.041
879.542
780.04
1216.32
556.926
724.059
233.701
747.552
756.853
834.975
1036.48
1445.25
509.651
727.234
1353.49
551.828
960.1
655.439
948.004
397.421
637.775
1344.09
448.664
1283.89
493.946
1186.74
471.39
632.768
264.484
558.384
1304.81
336.615
801.847
447.679
1124.22
1308.47
351.668
761.605
689.111
623.193
613.842
730.271
828.909
827.898
940.427
806.261
1130.94
1376.03
345.835
830.362
906.411
828.489
861.207
792.468
757.606
791.234
997.36
798.523
1002.45
720.595
869.908
1106.34
753.462
929.997
1042.54
719.071
869.926
805.09
937.187
782.064
847.19
760.974
1028.54
737.121
894.459
491.128
1144.11
364.417
896.243
1017.91
1153.76
642.336
856.525
806.816
855.864
836.993
798.223
993.198
609.776
166.531
763.553
422.5
1053.2
647.716
821.754
957.611
200.841
1095.44
601.289
291.368
632.022
961.495
943.719
833.893
340.916
830.15
870.235
682.17
649.229
1061.39
1023.44
705.282
839.064
1062.93
347.97
994.073
643.501
931.268
374.054
1260.17
1233.04
1020.74
828.64
758.529
954.053
746.692
336.891
589.441
970.405
655.989
915.322
416.561
1046.48
932.477
65.3876
831.978
883.387
219.47
1102.53
483.949
1057.12
1147.52
988.44
297.992
844.986
767.549
834.833
851.43
915.736
351.872
716.232
662.25
663.796
1038.8
818.526
889.675
944.419
931.076
763.694
853.409
777.108
892.34
1067.23
703.926
752.014
689.203
849.071
1015.24
700.752
744.388
722.628
822.144
660.959
680.27
742.471
761.432
848.838
736.251
1139.28
994.76
438.25
447.141
1100.72
6.41783
976.452
868.474
660.717
762.518
1112.83
200.845
1050.56
889.092
318.992
726.574
682.248
822.614
174.57
1096.32
898.435
208.132
1075.56
1081.67
385.347
1156.18
1022.36
392.24
688.209
662.337
207.113
827.818
856.484
595.101
643.445
625.31
85.7577
636.948
186.814
53.2432
1032.06
687.224
1305.19
705.096
348.525
1100.27
781.041
257.978
703.578
691.341
251.982
446.775
1088.1
-74.8362
591.723
550.172
6.2077
1050.7
1002.21
825.956
739.08
687.271
593.304
135.379
834.05
743.115
754.873
826.827
290.23
966.215
704.462
796.954
680.917
788.138
847.306
578.104
313.144
731.366
860.636
699.02
738.615
805.594
642.312
750.292
278.827
705.639
888.289
684.82
764.492
649.8
321.789
1107.8
1098.79
1073.56
1158.6
382.372
222.679
711.25
980.918
855.268
957.283
996.899
592.483
538.059
233.965
353.09
640.273
800.454
784.391
772.973
540.494
1034.91
889.815
397.514
628.829
581.902
991.533
647.155
133.371
805.039
814.644
1048.29
268.96
687.571
852.679
719.373
762.634
948.174
794.417
598.723
1184.14
45.384
501.676
771.536
644.934
732.174
1153.81
899.192
818.582
507.862
1109.41
714.499
846.809
996.127
1048.59
1027.91
1046.79
1135.22
1192.03
1124.4
1125.29
824.892
1008.88
703.049
762.039
533.479
465.642
91.9546
1164.43
1147.66
1072.78
750.099
848.864
831.988
652.974
863.158
1004.72
607.756
776.188
935.904
687.04
708.907
695.857
746.641
640.034
738.492
717.165
375.313
850.252
612.37
774.047
251.605
1164.34
785.654
669.921
630.818
404.152
814.098
677.061
210.355
500.497
779.301
457.153
519.709
1203.26
1231.66
719.795
722.057
969.48
1149.38
203.678
652.15
640.085
733.588
731.835
753.272
791.428
533.999
329.064
1096.99
725.942
482.659
529.027
719.16
821.258
409.222
761.031
652.58
702.877
1153.94
490.596
339.218
732.118
684.04
639.765
335.772
1051.71
715.953
704.359
717.338
213.689
720.304
731.163
349.348
713.485
498.926
890.129
1087.21
652.682
1007.72
878.255
661.39
670.325
739.6
336.806
875.343
911.103
693.142
268.859
575.743
767.031
785.135
656.549
309.936
666.947
1049.03
879.825
673.171
1195.73
491.325
995.184
223.47
477.795
1017.16
214.829
1032.14
669.778
820.081
703.879
1224.21
550.408
825.979
1154.27
1108.41
432.784
1088.95
1154.91
20.7647
763.965
681.398
238.602
910.759
675.692
705.356
706.33
795.225
755.733
693.424
671.619
222.074
908.672
820.201
804.854
845.259
749.903
659.977
579.192
965.886
146.632
633.304
624.739
170.803
1019.46
1179.1
783.797
1072.55
1109.13
647.735
663.891
901.45
1069.86
640.34
933.542
527.63
241.198
972.513
608.535
1048.25
1194.97
1145.99
268.969
1001.29
829.397
598.252
690.738
733.11
678.552
279.223
1069.21
296.431
1059.84
746.043
527.813
482.114
752.812
943.331
1128.2
809.963
1273.67
978.721
1034.34
205.444
1006.45
955.578
1050.18
648.766
604.362
144.463
780.925
1252.74
1075.84
322.387
545.801
294.097
648.305
792.051
520.756
1401.91
706.781
547.113
336.206
876.536
610.323
179.746
763.592
673.407
681.459
690.632
694.585
341.352
525.792
242.041
677.183
977.38
892.352
1089.68
1049.65
633.919
579.543
220.58
662.194
947.546
1115.33
977.42
992.669
484.269
165.175
555.05
125.645
967.56
988.631
580.496
1027.1
962.839
1089.91
863.569
820.945
813.07
633.866
208.572
566.357
267.178
512.758
690.958
656.117
376.141
265.462
929.276
1255.01
1197.49
1146.36
806.307
919.684
909.537
781.771
689.785
781.296
596.643
744.935
747.351
268.066
962.594
725.472
547.501
366.855
670.277
800
796.99
657.406
369.552
1129.56
872.186
679.534
1189.24
606.108
245.608
895.579
746.756
749.214
749.088
664.006
142.566
750.767
741.699
300.658
1114.52
715.446
-71.5462
689.742
788.327
806.619
662.233
278.183
624.303
638.333
464.85
761.191
222.593
774.131
758.302
441.158
1183.81
740.002
349.103
1242.4
782.661
782.615
362.179
758.13
294.73
)
;
    }
}


// ************************************************************************* //
