/*--------------------------------*- C++ -*----------------------------------*\
| =========                 |                                                 |
| \\      /  F ield         | OpenFOAM: The Open Source CFD Toolbox           |
|  \\    /   O peration     | Version:  v1912                                 |
|   \\  /    A nd           | Website:  www.openfoam.com                      |
|    \\/     M anipulation  |                                                 |
\*---------------------------------------------------------------------------*/
FoamFile
{
    version     2.0;
    format      ascii;
    class       volScalarField;
    location    "225/sphere";
    object      T;
}
// * * * * * * * * * * * * * * * * * * * * * * * * * * * * * * * * * * * * * //

dimensions      [0 0 0 1 0 0 0];


internalField   nonuniform List<scalar> 
304
(
358.102
358.124
358.123
358.136
358.105
358.105
358.102
358.125
358.1
358.198
358.199
358.127
358.123
358.198
358.198
358.15
358.127
358.15
358.099
358.124
358.137
358.105
358.126
358.199
358.199
358.151
358.137
358.199
358.199
358.169
358.104
358.151
358.169
358.126
358.106
358.129
358.151
358.099
358.109
358.151
358.169
358.124
358.1
358.126
358.094
358.092
358.105
358.106
358.099
358.126
358.105
358.106
358.126
358.1
358.092
358.104
358.098
358.104
358.125
358.125
358.124
358.136
358.128
358.151
358.15
358.168
358.101
358.136
358.124
358.151
358.128
358.169
358.15
358.104
358.098
358.125
358.105
358.103
358.103
358.123
358.097
358.135
358.099
358.123
358.149
358.168
358.126
358.149
358.125
358.124
358.101
358.168
358.15
358.15
358.127
358.125
358.104
358.098
358.091
358.104
358.098
358.125
358.104
358.125
358.099
358.104
358.091
358.098
358.104
358.105
358.125
358.125
358.128
358.151
358.124
358.137
358.151
358.169
358.103
358.151
358.129
358.137
358.125
358.169
358.151
358.099
358.106
358.126
358.106
358.127
358.123
358.15
358.124
358.151
358.136
358.169
358.1
358.15
358.124
358.151
358.125
358.169
358.136
358.149
358.1
358.127
358.136
358.169
358.124
358.15
358.124
358.128
358.101
358.169
358.136
358.151
358.124
358.099
358.104
358.125
358.105
358.15
358.101
358.124
358.151
358.169
358.124
358.137
358.128
358.124
358.101
358.169
358.15
358.137
358.125
358.125
358.104
358.104
358.105
358.106
358.126
358.101
358.137
358.151
358.169
358.102
358.125
358.129
358.151
358.125
358.169
358.151
358.125
358.1
358.151
358.127
358.125
358.105
358.098
358.152
358.137
358.169
358.104
358.13
358.126
358.152
358.125
358.169
358.137
358.128
358.102
358.151
358.125
358.169
358.125
358.151
358.127
358.152
358.103
358.129
358.137
358.151
358.125
358.15
358.125
358.128
358.102
358.125
358.105
358.1
358.169
358.125
358.137
358.128
358.151
358.102
358.125
358.151
358.138
358.126
358.152
358.129
358.126
358.104
358.105
358.105
358.101
358.095
358.105
358.1
358.126
358.105
358.125
358.099
358.105
358.092
358.101
358.106
358.127
358.107
358.151
358.152
358.169
358.104
358.126
358.126
358.137
358.128
358.169
358.151
358.124
358.101
358.137
358.124
358.125
358.105
358.104
358.127
358.101
358.105
358.169
358.128
358.151
358.125
358.137
358.101
358.125
358.15
358.151
358.128
358.137
358.124
358.125
358.102
358.104
358.099
358.103
358.094
358.126
358.105
358.106
358.101
358.106
358.105
)
;

boundaryField
{
    sphere_to_oil
    {
        type            compressible::turbulentTemperatureCoupledBaffleMixed;
        refValue        nonuniform List<scalar> 
360
(
303.748
303.748
300.996
301.593
301.629
300.959
301.673
301.673
301.673
301.788
301.788
301.221
301.158
300.856
301.663
301.509
301.652
301.652
301.652
301.138
301.636
301.503
301.228
301.642
300.772
301.678
300.982
301.647
301.647
301.647
301.721
301.687
301.039
300.97
301.258
301.206
301.729
301.729
301.729
301.662
301.925
301.532
301.614
303.389
303.389
300.948
302.27
300.882
302.585
301.896
300.802
301.087
301.031
301.244
301.041
301.436
301.68
301.215
301.647
302.306
301.355
301.8
301.8
301.8
300.9
301.9
303.124
300.952
301.726
301.726
301.726
301.707
301.686
300.865
301.469
301.778
300.986
301.215
301.905
301.672
301.284
301.109
301.267
301.343
300.987
301.112
301.212
301.255
300.959
301.217
301.054
301.096
301.215
301.09
301.218
301.241
301.308
301.255
301.326
300.662
300.797
300.865
300.857
301.166
301.01
300.862
300.857
301.097
301.232
301.126
301.265
301.173
301.266
301.095
300.41
300.42
300.83
300.877
300.907
303.271
303.271
301.593
301.593
301.642
301.642
301.695
301.695
301.695
301.681
301.681
301.681
300.871
300.874
300.832
300.963
301.629
301.629
301.435
301.435
301.721
301.721
301.337
301.337
301.632
301.632
301.632
300.888
301.006
301.532
301.532
301.532
301.617
301.617
301.617
301.509
301.636
301.663
301.509
301.509
300.932
301.509
301.509
301.24
301.335
301.133
301.459
301.459
301.961
301.961
301.961
301.287
301.636
301.503
301.933
301.933
301.296
301.933
301.26
301.096
300.383
300.986
300.964
301.268
300.834
301.598
302.274
300.663
300.727
301.678
301.678
301.687
301.687
303.75
303.75
301.538
301.538
301.538
303.112
303.112
300.937
301.2
300.901
301.055
301.134
301.068
301.189
301.268
301.116
301.139
301.225
301.662
301.23
301.241
301.11
302
302
302
301.533
301.533
301.323
301.627
301.667
302.38
301.925
301.5
302.344
301.667
301.662
301.925
301.582
301.198
301.582
301.352
300.404
301.547
301.012
302.407
302.425
302.506
301.367
300.577
301.737
301.646
301.737
301.737
301.646
301.646
301.896
301.9
302.585
301.709
300.951
301.896
301.709
301.709
300.941
301.03
301.198
301.2
301.088
301.707
301.234
301.071
301.25
301.252
301.68
301.469
301.255
301.3
301.318
301.716
301.521
301.436
301.956
301.288
301.68
301.956
301.956
302.961
301.494
301.905
301.641
301.645
301.651
301.958
301.522
301.954
301.556
301.716
301.556
301.958
301.716
301.958
300.658
300.842
300.902
300.893
302.847
301.565
302.847
301.565
301.565
300.853
301.9
301.699
303.124
301.699
300.999
301.699
300.936
300.975
300.901
301.711
301.442
301.711
301.711
301.442
300.946
300.999
301.14
301.135
301.686
301.707
301.314
300.971
301.686
301.314
300.932
301.469
301.559
301.778
301.559
300.934
301.559
301.196
301.672
301.24
301.217
301.517
301.714
301.521
301.601
301.521
301.517
301.601
301.517
301.088
301.264
301.905
301.504
301.311
301.672
301.504
301.19
301.954
301.714
301.954
301.549
301.714
301.549
)
;
        refGradient     uniform 0;
        valueFraction   nonuniform List<scalar> 
360
(
0.00019059
0.000182846
0.000117063
0.000418149
0.00042885
0.000245931
0.000431515
0.000370407
0.000576514
0.000183582
0.000178989
0.000240121
0.000365942
0.000104637
0.000187173
0.000363824
0.000416918
0.000389555
0.000546601
9.57482e-05
0.000358917
0.000176458
0.000162632
0.000431538
0.000125306
0.000443568
0.000250057
0.000437841
0.000572974
0.000383306
0.000437915
0.000441685
0.000118616
0.000117291
0.000246135
0.000242221
0.000409825
0.000555572
0.000381526
0.000573617
0.000566617
0.000121009
0.000240019
0.000175174
0.000174965
0.00024708
0.000369644
9.86254e-05
0.000176467
0.000374166
0.000243742
0.000245325
0.00036567
0.000362117
0.000102312
0.000187159
0.000381639
9.80122e-05
0.000242802
0.00036206
9.59365e-05
0.000426207
0.000376244
0.000588821
9.89074e-05
0.000384695
0.000179457
0.000173568
0.000436056
0.000568828
0.000382658
0.000548535
0.000556211
0.000106247
0.000370883
0.000188163
9.79561e-05
0.000175642
0.000555027
0.000576566
0.000172271
0.000169021
0.000166015
9.86692e-05
0.000118985
0.000241222
0.000242573
0.000367338
0.000110891
9.36313e-05
0.000117756
0.00036674
0.000242114
0.000120289
0.000366134
0.000244878
0.000243429
0.000243803
0.000118891
9.52997e-05
9.66365e-05
9.53506e-05
0.000245121
0.00024092
0.000366463
0.000107898
9.37207e-05
0.000366197
0.000116339
0.000241298
0.000241345
0.000246267
0.000120423
9.64303e-05
9.40453e-05
9.58622e-05
0.000166855
0.000167055
0.000173545
0.000188186
0.000176869
0.00036543
0.000575625
0.000385003
0.000580919
0.000372397
0.000572492
0.000426276
0.000372698
0.000560034
0.000419814
0.000171249
0.000161949
0.000165877
9.15747e-05
0.000379748
0.00057172
0.000176913
0.000177721
0.000577774
0.000384175
0.000185455
0.000195459
0.000570663
0.000392046
0.00045174
0.000100783
9.37891e-05
0.00039582
0.000548474
0.000434764
0.000407544
0.000567459
0.000434719
0.000448833
0.000413435
0.000193412
0.000576412
0.000372359
0.000103825
0.000560238
0.000419264
0.000160014
0.000168582
0.000166776
0.000175941
0.000183915
0.000573531
0.000377665
0.000443289
0.000106301
0.000551715
0.000189206
0.000580139
0.000371413
0.000103833
0.000440374
0.000161434
0.000162932
9.51996e-05
0.000249523
0.000249424
0.000368802
0.00012299
0.000369359
0.000243041
9.42223e-05
9.14931e-05
0.0005771
0.000366711
0.000570326
0.000380268
0.0001814
0.000169644
0.000572985
0.000358137
0.000413964
0.000167687
0.000194567
9.78888e-05
0.000245138
0.000244916
0.000365912
0.000239597
0.00024083
0.000364471
0.000124928
0.00036572
0.000247979
0.000121489
0.000411613
0.000365315
0.000246494
9.8237e-05
0.000560468
0.000363367
0.000425132
0.000177131
0.000164609
9.50856e-05
0.000243231
0.000247321
0.00036669
0.00041688
0.000116607
0.00036321
0.000237222
0.000360791
0.000381948
0.000173392
9.73947e-05
0.000192404
9.85988e-05
9.28126e-05
0.000370783
0.000123744
0.000249279
0.000246397
0.000243461
0.000122188
9.33367e-05
0.00037909
0.000355219
0.000596286
0.000443867
0.000556308
0.000399729
0.000428431
0.000438652
0.000194997
0.000376318
0.000101399
0.000572622
0.000556793
0.000423066
0.000369021
0.00011759
0.000240124
0.000364779
0.000118643
0.000434632
0.000241163
0.000242885
0.000240649
0.000117924
0.000431385
0.000404249
0.00024552
0.000239174
0.000120194
0.000405045
0.00044584
0.000176832
0.000400229
9.50643e-05
0.000570168
0.000552785
0.00041771
0.000362072
0.000118949
0.000418367
0.000240925
0.000241296
0.000242669
0.000420646
0.000120064
0.000429774
0.000180856
0.000370552
0.000182364
0.000377604
0.000575398
0.000564881
9.50197e-05
0.000190401
0.000188152
0.00018403
0.000167596
0.000560636
0.000183046
0.00037274
0.000438912
9.36351e-05
0.000566107
0.000565423
0.000185124
0.000402052
9.81256e-05
0.000431026
0.000164123
0.000161233
9.80453e-05
0.000554483
0.000165736
0.000363659
0.000428286
0.000177684
9.68655e-05
0.000241019
0.000240936
0.000363554
0.000415969
0.000360805
0.000174455
9.39087e-05
0.000366846
0.000193757
0.000108457
0.000531577
0.0005708
0.000168724
0.000362618
0.000100545
0.000456026
0.000366339
0.000438885
0.000120077
0.000242054
0.000423144
0.000410231
0.000385944
0.000172521
0.000565308
0.000564092
0.000204792
0.00037709
0.000165921
0.000168467
0.000379628
0.000187937
0.000101616
0.000383942
0.000180967
9.38415e-05
0.00055877
0.000565474
0.000372091
0.000180589
0.000365497
0.000186543
)
;
        value           nonuniform List<scalar> 
360
(
358.107
358.108
358.107
358.09
358.089
358.122
358.088
358.095
358.077
358.104
358.104
358.121
358.127
358.111
358.106
358.096
358.087
358.094
358.078
358.112
358.097
358.107
358.094
358.089
358.106
358.088
358.123
358.09
358.078
358.096
358.087
358.087
358.105
358.105
358.12
358.122
358.088
358.08
358.095
358.078
358.079
358.106
358.123
358.107
358.108
358.122
358.128
358.111
358.107
358.095
358.123
358.122
358.128
358.128
358.11
358.105
358.094
358.111
358.123
358.129
358.111
358.089
358.095
358.079
358.112
358.096
358.108
358.093
358.091
358.081
358.096
358.08
358.08
358.114
358.099
358.11
358.11
358.096
358.08
358.079
358.095
358.095
358.096
358.112
358.109
358.122
358.123
358.127
358.108
358.111
358.106
358.127
358.122
358.106
358.128
358.122
358.122
358.122
358.107
358.112
358.112
358.11
358.122
358.122
358.127
358.11
358.109
358.126
358.104
358.121
358.122
358.122
358.106
358.11
358.113
358.112
358.094
358.094
358.094
358.107
358.108
358.096
358.078
358.096
358.078
358.096
358.079
358.089
358.097
358.08
358.091
358.094
358.095
358.094
358.111
358.094
358.078
358.106
358.106
358.077
358.094
358.105
358.105
358.077
358.094
358.086
358.111
358.109
358.092
358.078
358.086
358.091
358.076
358.087
358.087
358.09
358.105
358.077
358.095
358.11
358.078
358.089
358.094
358.093
358.093
358.106
358.105
358.077
358.094
358.088
358.11
358.08
358.105
358.078
358.095
358.11
358.088
358.094
358.094
358.111
358.123
358.122
358.127
358.108
358.128
358.124
358.112
358.111
358.077
358.095
358.078
358.095
358.106
358.107
358.078
358.097
358.088
358.108
358.107
358.112
358.121
358.122
358.127
358.122
358.123
358.127
358.104
358.127
358.121
358.106
358.09
358.127
358.122
358.11
358.079
358.096
358.089
358.106
358.107
358.111
358.122
358.122
358.128
358.089
358.106
358.128
358.123
358.095
358.094
358.106
358.11
358.105
358.11
358.111
358.127
358.106
358.122
358.122
358.123
358.105
358.112
358.095
358.097
358.079
358.088
358.082
358.093
358.088
358.087
358.106
358.095
358.111
358.078
358.078
358.09
358.127
358.109
358.124
358.128
358.107
358.089
358.123
358.122
358.125
358.108
358.091
358.092
358.122
358.123
358.106
358.09
358.088
358.106
358.094
358.111
358.08
358.081
358.09
358.129
358.107
358.09
358.123
358.124
358.124
358.092
358.109
358.092
358.107
358.096
358.107
358.096
358.08
358.08
358.111
358.096
358.096
358.096
358.107
358.08
358.107
358.096
358.091
358.111
358.078
358.078
358.106
358.094
358.111
358.088
358.094
358.094
358.112
358.082
358.109
358.098
358.092
358.108
358.113
358.123
358.124
358.128
358.089
358.096
358.107
358.111
358.095
358.105
358.109
358.083
358.081
358.108
358.096
358.111
358.087
358.128
358.088
358.106
358.123
358.089
358.09
358.094
358.106
358.078
358.079
358.103
358.093
358.096
358.096
358.096
358.106
358.111
358.096
358.107
358.112
358.081
358.08
358.096
358.107
358.096
358.106
)
;
        Tnbr            T;
        thicknessLayers 0();
        kappaLayers     0();
        kappaMethod     solidThermo;
        kappa           none;
        alphaAni        none;
        alpha           none;
    }
}


// ************************************************************************* //
