/*--------------------------------*- C++ -*----------------------------------*\
| =========                 |                                                 |
| \\      /  F ield         | OpenFOAM: The Open Source CFD Toolbox           |
|  \\    /   O peration     | Version:  v1906                                 |
|   \\  /    A nd           | Web:      www.OpenFOAM.com                      |
|    \\/     M anipulation  |                                                 |
\*---------------------------------------------------------------------------*/
FoamFile
{
    version     2.0;
    format      ascii;
    class       volScalarField;
    location    "85";
    object      alphat;
}
// * * * * * * * * * * * * * * * * * * * * * * * * * * * * * * * * * * * * * //

dimensions      [1 -1 -1 0 0 0 0];


internalField   nonuniform List<scalar> 
78750
(
1.44347e-09
2.71423e-07
5.17586e-07
7.68764e-07
1.01846e-06
1.26253e-06
1.49786e-06
1.72177e-06
1.93197e-06
2.12665e-06
2.30446e-06
2.46447e-06
2.6061e-06
2.72917e-06
2.83303e-06
2.91694e-06
2.98087e-06
3.0247e-06
3.04822e-06
3.05103e-06
3.03284e-06
2.99199e-06
2.92753e-06
2.83802e-06
2.72176e-06
2.57704e-06
2.4018e-06
2.19454e-06
1.9555e-06
1.68568e-06
1.38575e-06
1.05858e-06
7.20795e-07
4.08922e-07
5.75099e-09
4.13908e-09
2.50189e-06
5.41943e-06
8.07798e-06
1.00833e-05
1.16209e-05
1.29152e-05
1.40925e-05
1.52243e-05
1.63577e-05
1.75243e-05
1.87457e-05
2.00661e-05
2.1534e-05
2.24429e-05
2.25379e-05
2.2536e-05
2.24471e-05
2.22796e-05
2.20401e-05
2.17339e-05
2.13613e-05
2.09215e-05
2.04094e-05
1.98161e-05
1.91315e-05
1.77511e-05
1.55154e-05
1.32938e-05
1.09979e-05
8.51898e-06
6.14621e-06
4.59777e-06
2.67719e-06
2.24544e-08
7.2389e-09
2.43127e-06
5.3838e-06
8.98053e-06
1.27433e-05
1.60788e-05
1.87358e-05
2.07822e-05
2.23683e-05
2.36173e-05
2.46121e-05
2.54027e-05
2.60229e-05
2.65148e-05
2.69164e-05
2.71629e-05
2.68095e-05
2.63694e-05
2.58608e-05
2.53012e-05
2.47084e-05
2.37414e-05
2.25253e-05
2.12195e-05
1.98836e-05
1.85379e-05
1.7163e-05
1.56896e-05
1.39799e-05
1.18875e-05
9.54478e-06
7.72501e-06
7.20386e-06
2.67019e-06
3.96098e-08
1.1348e-08
2.32394e-06
5.33425e-06
9.60398e-06
1.48172e-05
1.97123e-05
2.33756e-05
2.58479e-05
2.7435e-05
2.83569e-05
2.87536e-05
2.87265e-05
2.83578e-05
2.7722e-05
2.68903e-05
2.59243e-05
2.48634e-05
2.37328e-05
2.25574e-05
2.13626e-05
2.01749e-05
1.90261e-05
1.79522e-05
1.69846e-05
1.6141e-05
1.54079e-05
1.47126e-05
1.38959e-05
1.2739e-05
1.11475e-05
9.4959e-06
8.75786e-06
9.15371e-06
2.40387e-06
5.20523e-08
1.63395e-08
2.28144e-06
5.43674e-06
1.04072e-05
1.70051e-05
2.32274e-05
2.75768e-05
3.01873e-05
3.1474e-05
3.1721e-05
3.11663e-05
3.00386e-05
2.85505e-05
2.68846e-05
2.51796e-05
2.35254e-05
2.19674e-05
2.05175e-05
1.91677e-05
1.79047e-05
1.67235e-05
1.56359e-05
1.46677e-05
1.38472e-05
1.31942e-05
1.26994e-05
1.2288e-05
1.1794e-05
1.10208e-05
9.9682e-06
9.11969e-06
9.46488e-06
9.61018e-06
2.2236e-06
6.02403e-08
2.12344e-08
2.31119e-06
5.66106e-06
1.13119e-05
1.92416e-05
2.66511e-05
3.13838e-05
3.37214e-05
3.42932e-05
3.35578e-05
3.19158e-05
2.97425e-05
2.73675e-05
2.50397e-05
2.29098e-05
2.10403e-05
1.94319e-05
1.805e-05
1.68454e-05
1.57709e-05
1.4796e-05
1.39112e-05
1.31149e-05
1.24089e-05
1.18031e-05
1.12968e-05
1.08415e-05
1.03265e-05
9.65537e-06
8.9389e-06
8.70165e-06
9.92729e-06
9.23617e-06
2.10577e-06
6.58099e-08
2.61392e-08
2.34039e-06
5.81888e-06
1.19278e-05
2.07304e-05
2.87515e-05
3.34875e-05
3.54344e-05
3.53393e-05
3.37643e-05
3.12558e-05
2.83346e-05
2.54202e-05
2.27773e-05
2.05169e-05
1.86438e-05
1.71085e-05
1.58439e-05
1.47865e-05
1.38865e-05
1.31184e-05
1.24688e-05
1.1904e-05
1.13827e-05
1.08791e-05
1.03781e-05
9.85383e-06
9.26757e-06
8.63178e-06
8.13779e-06
8.3132e-06
1.01162e-05
8.58231e-06
2.02407e-06
7.0384e-08
3.02623e-08
2.37686e-06
5.94513e-06
1.23594e-05
2.18154e-05
3.03618e-05
3.50989e-05
3.66497e-05
3.59097e-05
3.3599e-05
3.04291e-05
2.7035e-05
2.38638e-05
2.11346e-05
1.88903e-05
1.70855e-05
1.56462e-05
1.44958e-05
1.35677e-05
1.2817e-05
1.22244e-05
1.17631e-05
1.13637e-05
1.09493e-05
1.04671e-05
9.8969e-06
9.24358e-06
8.53931e-06
7.8806e-06
7.50179e-06
7.91555e-06
1.00495e-05
8.05343e-06
1.97326e-06
7.52045e-08
3.42441e-08
2.40052e-06
6.00889e-06
1.25899e-05
2.24109e-05
3.11625e-05
3.57518e-05
3.69464e-05
3.57434e-05
3.29702e-05
2.94368e-05
2.58265e-05
2.25686e-05
1.983e-05
1.7609e-05
1.58354e-05
1.44296e-05
1.33225e-05
1.24599e-05
1.18149e-05
1.13863e-05
1.11322e-05
1.09465e-05
1.07054e-05
1.03061e-05
9.70482e-06
8.93724e-06
8.11144e-06
7.39982e-06
7.06643e-06
7.60701e-06
9.90796e-06
7.6091e-06
1.93684e-06
8.0681e-08
3.79271e-08
2.42518e-06
6.06227e-06
1.27557e-05
2.28462e-05
3.17905e-05
3.62981e-05
3.72191e-05
3.56539e-05
3.25401e-05
2.87712e-05
2.50496e-05
2.17691e-05
1.90478e-05
1.68514e-05
1.50962e-05
1.36992e-05
1.25962e-05
1.17455e-05
1.11376e-05
1.07888e-05
1.06512e-05
1.06045e-05
1.04965e-05
1.01813e-05
9.58156e-06
8.74146e-06
7.82473e-06
7.0639e-06
6.74505e-06
7.35317e-06
9.74497e-06
7.26446e-06
1.91228e-06
8.66592e-08
4.15993e-08
2.44177e-06
6.09081e-06
1.28555e-05
2.31134e-05
3.21152e-05
3.64787e-05
3.71563e-05
3.53266e-05
3.19988e-05
2.81095e-05
2.43544e-05
2.10887e-05
1.83944e-05
1.62177e-05
1.44692e-05
1.3069e-05
1.19587e-05
1.11073e-05
1.05237e-05
1.02394e-05
1.01997e-05
1.02759e-05
1.02941e-05
1.00713e-05
9.4991e-06
8.6238e-06
7.64787e-06
6.85056e-06
6.53913e-06
7.19579e-06
9.65047e-06
6.97001e-06
1.89439e-06
9.28954e-08
4.54105e-08
2.46264e-06
6.13325e-06
1.29827e-05
2.34057e-05
3.24553e-05
3.66892e-05
3.71543e-05
3.51047e-05
3.16162e-05
2.76545e-05
2.38974e-05
2.06608e-05
1.79956e-05
1.58331e-05
1.4081e-05
1.26621e-05
1.15242e-05
1.06453e-05
1.00467e-05
9.77511e-06
9.77642e-06
9.92184e-06
1.00275e-05
9.88571e-06
9.36073e-06
8.49163e-06
7.50078e-06
6.69545e-06
6.40004e-06
7.10412e-06
9.61833e-06
6.72833e-06
1.88315e-06
9.91655e-08
4.91972e-08
2.47894e-06
6.16562e-06
1.30859e-05
2.36347e-05
3.26801e-05
3.67637e-05
3.70302e-05
3.47988e-05
3.11964e-05
2.72027e-05
2.34694e-05
2.0275e-05
1.76451e-05
1.55009e-05
1.3749e-05
1.23156e-05
1.11541e-05
1.02501e-05
9.63667e-06
9.3697e-06
9.3948e-06
9.58512e-06
9.75228e-06
9.6745e-06
9.1984e-06
8.35644e-06
7.38002e-06
6.59093e-06
6.3262e-06
7.08858e-06
9.66319e-06
6.51972e-06
1.87671e-06
1.05319e-07
5.32596e-08
2.50014e-06
6.21495e-06
1.32325e-05
2.3928e-05
3.29527e-05
3.6874e-05
3.69503e-05
3.45629e-05
3.08799e-05
2.68815e-05
2.31867e-05
2.00383e-05
1.7441e-05
1.53088e-05
1.3549e-05
1.20918e-05
1.0896e-05
9.95347e-06
9.30592e-06
9.01966e-06
9.04094e-06
9.24518e-06
9.44505e-06
9.41394e-06
8.98827e-06
8.19264e-06
7.2574e-06
6.50787e-06
6.28867e-06
7.11964e-06
9.75696e-06
6.3501e-06
1.87531e-06
1.11319e-07
5.72393e-08
2.51834e-06
6.25832e-06
1.33632e-05
2.41799e-05
3.31642e-05
3.69254e-05
3.68263e-05
3.43044e-05
3.05626e-05
2.65757e-05
2.29289e-05
1.9832e-05
1.72717e-05
1.51561e-05
1.33933e-05
1.19167e-05
1.069e-05
9.71071e-06
9.02797e-06
8.71718e-06
8.72569e-06
8.9302e-06
9.14584e-06
9.14655e-06
8.76574e-06
8.0233e-06
7.14423e-06
6.45e-06
6.28976e-06
7.20211e-06
9.89848e-06
6.20709e-06
1.87761e-06
1.17125e-07
6.14901e-08
2.54046e-06
6.31433e-06
1.35272e-05
2.44828e-05
3.34126e-05
3.70039e-05
3.67397e-05
3.41075e-05
3.03329e-05
2.63744e-05
2.27814e-05
1.97346e-05
1.72066e-05
1.51021e-05
1.33302e-05
1.18277e-05
1.05625e-05
9.53746e-06
8.80615e-06
8.45333e-06
8.43052e-06
8.61695e-06
8.83191e-06
8.85386e-06
8.51733e-06
7.83681e-06
7.02695e-06
6.40039e-06
6.30921e-06
7.31184e-06
1.0064e-05
6.09522e-06
1.88371e-06
1.22771e-07
6.56346e-08
2.56054e-06
6.36682e-06
1.3681e-05
2.47573e-05
3.36239e-05
3.70549e-05
3.66399e-05
3.3912e-05
3.01153e-05
2.61911e-05
2.26549e-05
1.96612e-05
1.71697e-05
1.50813e-05
1.33052e-05
1.17807e-05
1.04796e-05
9.40963e-06
8.62848e-06
8.22924e-06
8.16852e-06
8.32803e-06
8.53207e-06
8.56583e-06
8.26833e-06
7.65089e-06
6.91607e-06
6.36477e-06
6.3509e-06
7.45259e-06
1.02505e-05
6.00318e-06
1.89229e-06
1.2824e-07
7.00136e-08
2.58348e-06
6.42801e-06
1.38579e-05
2.50678e-05
3.38634e-05
3.71334e-05
3.6582e-05
3.37797e-05
2.99785e-05
2.60965e-05
2.26168e-05
1.96723e-05
1.72128e-05
1.51363e-05
1.33523e-05
1.18014e-05
1.04591e-05
9.33694e-06
8.49588e-06
8.03606e-06
7.92333e-06
8.04275e-06
8.2252e-06
8.26487e-06
8.00623e-06
7.45586e-06
6.80192e-06
6.33183e-06
6.4011e-06
7.60768e-06
1.04451e-05
5.93513e-06
1.90367e-06
1.33572e-07
7.42913e-08
2.60498e-06
6.48753e-06
1.40308e-05
2.53629e-05
3.40834e-05
3.72016e-05
3.65245e-05
3.36558e-05
2.98538e-05
2.60146e-05
2.25926e-05
1.97002e-05
1.72778e-05
1.52196e-05
1.34337e-05
1.18616e-05
1.04812e-05
9.3075e-06
8.40522e-06
7.88014e-06
7.70929e-06
7.78138e-06
7.93437e-06
7.97288e-06
7.74866e-06
7.26409e-06
6.69209e-06
6.3059e-06
6.4626e-06
7.77914e-06
1.06437e-05
5.87996e-06
1.91633e-06
1.38739e-07
7.87679e-08
2.62845e-06
6.55327e-06
1.42214e-05
2.5687e-05
3.43298e-05
3.73009e-05
3.65122e-05
3.35926e-05
2.9799e-05
2.6004e-05
2.26361e-05
1.97915e-05
1.74031e-05
1.53613e-05
1.35722e-05
1.19775e-05
1.05562e-05
9.32616e-06
8.35487e-06
7.75317e-06
7.51336e-06
7.52857e-06
7.64463e-06
7.67751e-06
7.48631e-06
7.06828e-06
6.58003e-06
6.28007e-06
6.52709e-06
7.95716e-06
1.08424e-05
5.84233e-06
1.93096e-06
1.43776e-07
8.31574e-08
2.6507e-06
6.61815e-06
1.44126e-05
2.60079e-05
3.45717e-05
3.74023e-05
3.65075e-05
3.35383e-05
2.97514e-05
2.59992e-05
2.26864e-05
1.98938e-05
1.75457e-05
1.55279e-05
1.37434e-05
1.21321e-05
1.06735e-05
9.38769e-06
8.34541e-06
7.66216e-06
7.34752e-06
7.29972e-06
7.37277e-06
7.39448e-06
7.23192e-06
6.87741e-06
6.4712e-06
6.25754e-06
6.59708e-06
8.14327e-06
1.10371e-05
5.81288e-06
1.94609e-06
1.48647e-07
8.77166e-08
2.67407e-06
6.68732e-06
1.46189e-05
2.63577e-05
3.48456e-05
3.75412e-05
3.65479e-05
3.35353e-05
2.97568e-05
2.60453e-05
2.27842e-05
2.00405e-05
1.77313e-05
1.57377e-05
1.39593e-05
1.2333e-05
1.08373e-05
9.49331e-06
8.37473e-06
7.60089e-06
7.20288e-06
7.08481e-06
7.10916e-06
7.11569e-06
6.97907e-06
6.68619e-06
6.36088e-06
6.23333e-06
6.66642e-06
8.33041e-06
1.1226e-05
5.79341e-06
1.96204e-06
1.53364e-07
9.2205e-08
2.69618e-06
6.75527e-06
1.48265e-05
2.67117e-05
3.51259e-05
3.76917e-05
3.65992e-05
3.35366e-05
2.97622e-05
2.60908e-05
2.28841e-05
2.01945e-05
1.79311e-05
1.597e-05
1.42059e-05
1.25716e-05
1.10431e-05
9.64214e-06
8.44505e-06
7.57557e-06
7.08844e-06
6.89452e-06
6.86507e-06
6.8517e-06
6.73659e-06
6.50143e-06
6.25419e-06
6.21173e-06
6.73979e-06
8.52464e-06
1.14123e-05
5.78095e-06
1.97838e-06
1.57897e-07
9.68333e-08
2.71891e-06
6.82566e-06
1.50418e-05
2.70737e-05
3.53999e-05
3.78395e-05
3.66661e-05
3.3565e-05
2.97996e-05
2.61686e-05
2.30142e-05
2.03768e-05
1.81592e-05
1.62324e-05
1.44865e-05
1.28487e-05
1.12909e-05
9.83364e-06
8.55529e-06
7.58392e-06
7.00045e-06
6.72424e-06
6.63566e-06
6.59794e-06
6.50034e-06
6.31921e-06
6.14704e-06
6.18781e-06
6.80994e-06
8.71414e-06
1.15841e-05
5.77113e-06
1.99434e-06
1.62235e-07
1.01404e-07
2.74083e-06
6.89578e-06
1.52569e-05
2.7424e-05
3.56582e-05
3.79739e-05
3.67213e-05
3.35931e-05
2.98364e-05
2.62444e-05
2.31444e-05
2.05639e-05
1.83982e-05
1.65135e-05
1.47939e-05
1.31605e-05
1.15795e-05
1.0069e-05
8.70882e-06
7.63213e-06
6.94641e-06
6.58229e-06
6.42936e-06
6.3622e-06
6.27688e-06
6.14478e-06
6.04386e-06
6.16614e-06
6.88358e-06
8.91132e-06
1.17587e-05
5.76778e-06
2.01057e-06
1.66364e-07
1.06079e-07
2.763e-06
6.96864e-06
1.54837e-05
2.77767e-05
3.59127e-05
3.81054e-05
3.67782e-05
3.36301e-05
2.98863e-05
2.63354e-05
2.329e-05
2.07662e-05
1.86535e-05
1.68137e-05
1.51256e-05
1.35032e-05
1.19056e-05
1.03463e-05
8.90534e-06
7.72098e-06
6.92667e-06
6.46832e-06
6.24524e-06
6.14314e-06
6.06458e-06
5.97617e-06
5.94206e-06
6.14295e-06
6.9544e-06
9.10602e-06
1.19279e-05
5.76699e-06
2.02623e-06
1.70269e-07
1.10687e-07
2.78386e-06
7.0386e-06
1.57043e-05
2.81142e-05
3.61485e-05
3.82203e-05
3.68208e-05
3.36555e-05
2.99302e-05
2.64236e-05
2.3435e-05
2.09712e-05
1.89164e-05
1.71278e-05
1.54786e-05
1.38752e-05
1.22685e-05
1.06659e-05
9.14712e-06
7.85545e-06
6.94742e-06
6.38911e-06
6.09005e-06
5.94686e-06
5.86846e-06
5.81726e-06
5.84483e-06
6.1217e-06
7.02882e-06
9.31114e-06
1.2097e-05
5.77327e-06
2.04228e-06
1.7395e-07
1.15359e-07
2.80502e-06
7.11009e-06
1.59294e-05
2.84529e-05
3.63802e-05
3.83311e-05
3.6861e-05
3.36812e-05
2.99845e-05
2.65197e-05
2.35848e-05
2.1181e-05
1.91861e-05
1.74527e-05
1.58481e-05
1.42711e-05
1.26635e-05
1.1025e-05
9.43305e-06
8.03587e-06
7.0093e-06
6.3453e-06
5.96438e-06
5.77374e-06
5.68854e-06
5.66777e-06
5.7517e-06
6.10197e-06
7.10614e-06
9.52421e-06
1.22681e-05
5.78735e-06
2.05908e-06
1.77413e-07
1.1996e-07
2.82521e-06
7.17949e-06
1.61492e-05
2.87775e-05
3.65936e-05
3.84243e-05
3.68837e-05
3.36892e-05
3.00214e-05
2.66028e-05
2.37276e-05
2.13896e-05
1.94601e-05
1.77873e-05
1.62337e-05
1.46905e-05
1.309e-05
1.14227e-05
9.76273e-06
8.26265e-06
7.11453e-06
6.34044e-06
5.87246e-06
5.62804e-06
5.52862e-06
5.53072e-06
5.66477e-06
6.08486e-06
7.18594e-06
9.74226e-06
1.24381e-05
5.80628e-06
2.07631e-06
1.80654e-07
1.24587e-07
2.84563e-06
7.25006e-06
1.63721e-05
2.91013e-05
3.68013e-05
3.85109e-05
3.69001e-05
3.36916e-05
3.00539e-05
2.66829e-05
2.38686e-05
2.15975e-05
1.97354e-05
1.81268e-05
1.66297e-05
1.51278e-05
1.35429e-05
1.18553e-05
1.01336e-05
8.53367e-06
7.26208e-06
6.37433e-06
5.81461e-06
5.51037e-06
5.38941e-06
5.40675e-06
5.58469e-06
6.07099e-06
7.26838e-06
9.96367e-06
1.26074e-05
5.82991e-06
2.0939e-06
1.83685e-07
1.29146e-07
2.86554e-06
7.31955e-06
1.65909e-05
2.94116e-05
3.69911e-05
3.85792e-05
3.68974e-05
3.36751e-05
3.00692e-05
2.67499e-05
2.4001e-05
2.1801e-05
2.00105e-05
1.84708e-05
1.70356e-05
1.55817e-05
1.40206e-05
1.23207e-05
1.05436e-05
8.8474e-06
7.45202e-06
6.44821e-06
5.79288e-06
5.42321e-06
5.27341e-06
5.29794e-06
5.51243e-06
6.05934e-06
7.35e-06
1.01848e-05
1.27732e-05
5.85669e-06
2.11163e-06
1.86513e-07
1.33703e-07
2.88578e-06
7.39062e-06
1.68115e-05
2.97181e-05
3.71719e-05
3.86364e-05
3.68826e-05
3.3646e-05
3.00729e-05
2.68079e-05
2.41259e-05
2.19984e-05
2.02815e-05
1.88141e-05
1.74459e-05
1.6047e-05
1.45179e-05
1.28147e-05
1.09897e-05
9.2017e-06
7.68323e-06
6.56155e-06
5.80705e-06
5.3667e-06
5.18105e-06
5.2049e-06
5.44888e-06
6.05212e-06
7.43552e-06
1.04054e-05
1.29364e-05
5.8864e-06
2.12938e-06
1.89148e-07
1.38201e-07
2.90586e-06
7.46291e-06
1.7028e-05
3.00113e-05
3.73346e-05
3.86739e-05
3.68468e-05
3.35959e-05
3.00576e-05
2.68533e-05
2.42408e-05
2.21878e-05
2.05477e-05
1.91562e-05
1.78596e-05
1.65216e-05
1.50322e-05
1.33339e-05
1.14688e-05
9.59427e-06
7.95495e-06
6.71461e-06
5.85806e-06
5.34223e-06
5.11406e-06
5.12954e-06
5.39592e-06
6.05053e-06
7.5244e-06
1.06256e-05
1.30976e-05
5.91859e-06
2.14706e-06
1.91601e-07
1.42665e-07
2.92525e-06
7.53428e-06
1.7243e-05
3.02971e-05
3.74846e-05
3.86966e-05
3.67946e-05
3.35283e-05
3.00245e-05
2.68836e-05
2.43421e-05
2.23657e-05
2.08051e-05
1.94931e-05
1.82726e-05
1.70011e-05
1.55587e-05
1.3874e-05
1.19771e-05
1.00224e-05
8.26558e-06
6.90657e-06
5.94561e-06
5.34987e-06
5.0729e-06
5.07263e-06
5.35428e-06
6.05464e-06
7.6151e-06
1.08444e-05
1.32569e-05
5.95302e-06
2.16461e-06
1.93881e-07
1.4705e-07
2.94411e-06
7.6044e-06
1.74547e-05
3.0571e-05
3.76173e-05
3.86995e-05
3.6722e-05
3.34413e-05
2.99731e-05
2.6897e-05
2.44297e-05
2.25333e-05
2.10552e-05
1.98257e-05
1.86846e-05
1.7484e-05
1.60944e-05
1.44308e-05
1.25102e-05
1.04824e-05
8.61306e-06
7.13661e-06
6.06969e-06
5.39022e-06
5.05864e-06
5.03555e-06
5.32536e-06
6.06539e-06
7.70775e-06
1.10615e-05
1.34149e-05
5.98942e-06
2.18199e-06
1.95997e-07
1.51349e-07
2.96202e-06
7.67185e-06
1.76617e-05
3.08361e-05
3.77362e-05
3.86847e-05
3.66271e-05
3.33294e-05
2.98984e-05
2.68912e-05
2.4502e-05
2.26882e-05
2.12951e-05
2.01505e-05
1.90919e-05
1.79663e-05
1.66351e-05
1.49996e-05
1.30632e-05
1.097e-05
8.99414e-06
7.40251e-06
6.22902e-06
5.46274e-06
5.0714e-06
5.01895e-06
5.31003e-06
6.08347e-06
7.80247e-06
1.12764e-05
1.35715e-05
6.02747e-06
2.19917e-06
1.97957e-07
1.55588e-07
2.97945e-06
7.73925e-06
1.78704e-05
3.10946e-05
3.78414e-05
3.8655e-05
3.65189e-05
3.32059e-05
2.98108e-05
2.68678e-05
2.45554e-05
2.28284e-05
2.1524e-05
2.04667e-05
1.9493e-05
1.84457e-05
1.71773e-05
1.5576e-05
1.36314e-05
1.14807e-05
9.4053e-06
7.70181e-06
6.42212e-06
5.56687e-06
5.11142e-06
5.02368e-06
5.30947e-06
6.11011e-06
7.90035e-06
1.14899e-05
1.37274e-05
6.06713e-06
2.21615e-06
1.99771e-07
1.59753e-07
2.99627e-06
7.805e-06
1.80748e-05
3.13407e-05
3.793e-05
3.86055e-05
3.63876e-05
3.30583e-05
2.97022e-05
2.68301e-05
2.45989e-05
2.29558e-05
2.17399e-05
2.07732e-05
1.98873e-05
1.8921e-05
1.77193e-05
1.61577e-05
1.42117e-05
1.2011e-05
9.84333e-06
8.03176e-06
6.64685e-06
5.70119e-06
5.1781e-06
5.04985e-06
5.32429e-06
6.14608e-06
8.00202e-06
1.17024e-05
1.38829e-05
6.10823e-06
2.23292e-06
2.01451e-07
1.63833e-07
3.01246e-06
7.8696e-06
1.82771e-05
3.15767e-05
3.80031e-05
3.8539e-05
3.62393e-05
3.28944e-05
2.95767e-05
2.67749e-05
2.46267e-05
2.30722e-05
2.19455e-05
2.10688e-05
2.02724e-05
1.93898e-05
1.82578e-05
1.67403e-05
1.47993e-05
1.25563e-05
1.03042e-05
8.3893e-06
6.90102e-06
5.8643e-06
5.27084e-06
5.09766e-06
5.35533e-06
6.19262e-06
8.10882e-06
1.1915e-05
1.4039e-05
6.15087e-06
2.24952e-06
2.03011e-07
1.67826e-07
3.02796e-06
7.93245e-06
1.84749e-05
3.17997e-05
3.80589e-05
3.84525e-05
3.60692e-05
3.2709e-05
2.94321e-05
2.67033e-05
2.46407e-05
2.31767e-05
2.21417e-05
2.13558e-05
2.06489e-05
1.98514e-05
1.87919e-05
1.73224e-05
1.53919e-05
1.31135e-05
1.07846e-05
8.7715e-06
7.18217e-06
6.05434e-06
5.38843e-06
5.1666e-06
5.40265e-06
6.25018e-06
8.22133e-06
1.2128e-05
1.41964e-05
6.19506e-06
2.26598e-06
2.04467e-07
1.71731e-07
3.04289e-06
7.99395e-06
1.86694e-05
3.20115e-05
3.80987e-05
3.83477e-05
3.58799e-05
3.2505e-05
2.927e-05
2.66154e-05
2.46401e-05
2.32682e-05
2.23263e-05
2.16325e-05
2.10153e-05
2.0303e-05
1.93178e-05
1.78996e-05
1.59848e-05
1.36784e-05
1.12808e-05
9.17545e-06
7.48816e-06
6.26977e-06
5.52993e-06
5.25641e-06
5.46671e-06
6.31976e-06
8.34083e-06
1.23428e-05
1.43558e-05
6.24096e-06
2.28235e-06
2.05835e-07
1.75524e-07
3.05694e-06
8.0531e-06
1.88585e-05
3.22098e-05
3.81209e-05
3.82225e-05
3.56689e-05
3.22803e-05
2.90893e-05
2.65111e-05
2.46256e-05
2.33476e-05
2.25e-05
2.18995e-05
2.13731e-05
2.07459e-05
1.98353e-05
1.84707e-05
1.65759e-05
1.42478e-05
1.17893e-05
9.59839e-06
7.81682e-06
6.50889e-06
5.69412e-06
5.36635e-06
5.54725e-06
6.40152e-06
8.46777e-06
1.25597e-05
1.45183e-05
6.28881e-06
2.29872e-06
2.07134e-07
1.79219e-07
3.07037e-06
8.11071e-06
1.9044e-05
3.23964e-05
3.81262e-05
3.80776e-05
3.54376e-05
3.20367e-05
2.88916e-05
2.63916e-05
2.45975e-05
2.34144e-05
2.26617e-05
2.21548e-05
2.17192e-05
2.11773e-05
2.03406e-05
1.90312e-05
1.71603e-05
1.48171e-05
1.23062e-05
1.00373e-05
8.16607e-06
6.77033e-06
5.88016e-06
5.4961e-06
5.64444e-06
6.49609e-06
8.60308e-06
1.27799e-05
1.46844e-05
6.33869e-06
2.31513e-06
2.0838e-07
1.82799e-07
3.08299e-06
8.16611e-06
1.92242e-05
3.25694e-05
3.81133e-05
3.79118e-05
3.51849e-05
3.17735e-05
2.86769e-05
2.62573e-05
2.45565e-05
2.34698e-05
2.28127e-05
2.23997e-05
2.20551e-05
2.15981e-05
2.08347e-05
1.95789e-05
1.77352e-05
1.53829e-05
1.28279e-05
1.04893e-05
8.53374e-06
7.05256e-06
6.08699e-06
5.64501e-06
5.7581e-06
6.60373e-06
8.74741e-06
1.30041e-05
1.48556e-05
6.39098e-06
2.33169e-06
2.09593e-07
1.86279e-07
3.09497e-06
8.21995e-06
1.94008e-05
3.27301e-05
3.80825e-05
3.77253e-05
3.49116e-05
3.14922e-05
2.84468e-05
2.61095e-05
2.45034e-05
2.35135e-05
2.2952e-05
2.26325e-05
2.23781e-05
2.20052e-05
2.13144e-05
2.01121e-05
1.82945e-05
1.59386e-05
1.3349e-05
1.09502e-05
8.91705e-06
7.35397e-06
6.31385e-06
5.81286e-06
5.88838e-06
6.72498e-06
8.90169e-06
1.32334e-05
1.50323e-05
6.44568e-06
2.34845e-06
2.10787e-07
1.89648e-07
3.10619e-06
8.27174e-06
1.95722e-05
3.28765e-05
3.80326e-05
3.75175e-05
3.46178e-05
3.11935e-05
2.82024e-05
2.59495e-05
2.44397e-05
2.35474e-05
2.30814e-05
2.28548e-05
2.26894e-05
2.23989e-05
2.1779e-05
2.06293e-05
1.88396e-05
1.64833e-05
1.38667e-05
1.14164e-05
9.31273e-06
7.6722e-06
6.55933e-06
5.99908e-06
6.03539e-06
6.86048e-06
9.06703e-06
1.34692e-05
1.52154e-05
6.50305e-06
2.36548e-06
2.11975e-07
1.92915e-07
3.11673e-06
8.32179e-06
1.97393e-05
3.30095e-05
3.79637e-05
3.72884e-05
3.43039e-05
3.08783e-05
2.79449e-05
2.57785e-05
2.43661e-05
2.35714e-05
2.32004e-05
2.30655e-05
2.29875e-05
2.27773e-05
2.22259e-05
2.1127e-05
1.93654e-05
1.70129e-05
1.43777e-05
1.18845e-05
9.71772e-06
8.00492e-06
6.822e-06
6.20305e-06
6.19922e-06
7.01101e-06
9.24486e-06
1.37132e-05
1.54051e-05
6.56304e-06
2.38283e-06
2.13167e-07
1.96074e-07
3.12651e-06
8.36978e-06
1.99012e-05
3.31276e-05
3.7875e-05
3.70378e-05
3.39705e-05
3.05479e-05
2.7676e-05
2.55985e-05
2.42848e-05
2.3588e-05
2.33112e-05
2.32666e-05
2.32739e-05
2.31412e-05
2.2655e-05
2.16041e-05
1.98699e-05
1.75244e-05
1.48776e-05
1.23502e-05
1.01282e-05
8.34917e-06
7.09989e-06
6.42376e-06
6.37965e-06
7.17698e-06
9.43652e-06
1.39672e-05
1.56018e-05
6.62582e-06
2.40057e-06
2.14374e-07
1.99131e-07
3.13554e-06
8.41577e-06
2.0058e-05
3.32311e-05
3.77665e-05
3.67656e-05
3.36179e-05
3.02028e-05
2.73963e-05
2.54101e-05
2.41964e-05
2.35976e-05
2.34142e-05
2.34581e-05
2.35481e-05
2.34897e-05
2.30651e-05
2.20589e-05
2.0351e-05
1.80154e-05
1.53645e-05
1.28101e-05
1.05405e-05
8.70186e-06
7.39083e-06
6.66007e-06
6.57671e-06
7.35996e-06
9.64384e-06
1.42332e-05
1.58056e-05
6.69127e-06
2.41872e-06
2.15601e-07
2.02086e-07
3.14379e-06
8.45963e-06
2.02093e-05
3.33193e-05
3.76373e-05
3.64713e-05
3.32462e-05
2.98439e-05
2.71074e-05
2.52154e-05
2.41034e-05
2.36029e-05
2.3512e-05
2.36425e-05
2.38124e-05
2.38243e-05
2.34567e-05
2.2491e-05
2.08072e-05
1.84833e-05
1.58348e-05
1.32609e-05
1.09514e-05
9.05988e-06
7.69232e-06
6.9104e-06
6.78993e-06
7.56051e-06
9.86847e-06
1.45132e-05
1.60166e-05
6.75953e-06
2.43737e-06
2.16854e-07
2.04943e-07
3.15124e-06
8.50137e-06
2.03553e-05
3.33924e-05
3.74874e-05
3.61545e-05
3.28552e-05
2.94711e-05
2.68092e-05
2.50144e-05
2.40059e-05
2.36043e-05
2.36053e-05
2.38207e-05
2.40674e-05
2.41457e-05
2.38302e-05
2.29003e-05
2.12379e-05
1.89269e-05
1.62864e-05
1.36996e-05
1.13576e-05
9.4203e-06
8.00203e-06
7.17319e-06
7.01854e-06
7.77854e-06
1.01118e-05
1.48092e-05
1.62345e-05
6.83052e-06
2.45655e-06
2.18136e-07
2.07711e-07
3.15795e-06
8.54113e-06
2.04963e-05
3.34502e-05
3.73161e-05
3.58145e-05
3.24447e-05
2.9085e-05
2.65029e-05
2.48088e-05
2.3906e-05
2.36044e-05
2.36971e-05
2.39956e-05
2.43161e-05
2.44561e-05
2.41873e-05
2.32877e-05
2.1643e-05
1.9345e-05
1.67171e-05
1.41236e-05
1.17563e-05
9.7805e-06
8.31793e-06
7.44711e-06
7.26178e-06
8.01396e-06
1.03748e-05
1.51221e-05
1.6459e-05
6.90428e-06
2.47632e-06
2.19449e-07
2.10393e-07
3.1639e-06
8.57892e-06
2.06324e-05
3.34926e-05
3.71226e-05
3.54503e-05
3.20139e-05
2.8685e-05
2.61878e-05
2.4598e-05
2.38036e-05
2.36033e-05
2.37878e-05
2.41684e-05
2.45598e-05
2.47572e-05
2.45294e-05
2.36544e-05
2.20235e-05
1.9738e-05
1.71261e-05
1.45314e-05
1.21454e-05
1.01382e-05
8.63763e-06
7.73006e-06
7.51833e-06
8.26663e-06
1.06586e-05
1.54536e-05
1.66895e-05
6.98074e-06
2.49672e-06
2.20796e-07
2.13001e-07
3.1692e-06
8.61509e-06
2.07644e-05
3.35199e-05
3.69064e-05
3.50615e-05
3.15629e-05
2.82715e-05
2.5865e-05
2.43834e-05
2.37001e-05
2.36029e-05
2.38798e-05
2.43415e-05
2.48012e-05
2.50515e-05
2.48589e-05
2.40023e-05
2.23806e-05
2.01064e-05
1.75131e-05
1.49217e-05
1.25234e-05
1.04916e-05
8.95954e-06
8.02087e-06
7.78741e-06
8.53613e-06
1.09629e-05
1.58036e-05
1.69255e-05
7.0598e-06
2.51776e-06
2.22181e-07
2.15538e-07
3.17384e-06
8.6496e-06
2.08923e-05
3.35314e-05
3.66663e-05
3.46468e-05
3.10911e-05
2.78442e-05
2.55339e-05
2.41644e-05
2.3595e-05
2.36027e-05
2.39728e-05
2.45153e-05
2.50415e-05
2.53409e-05
2.51779e-05
2.43338e-05
2.27166e-05
2.04521e-05
1.7879e-05
1.52944e-05
1.2889e-05
1.08389e-05
9.28177e-06
8.31766e-06
8.06781e-06
8.82232e-06
1.12889e-05
1.61733e-05
1.71666e-05
7.14136e-06
2.53949e-06
2.23601e-07
2.18013e-07
3.17791e-06
8.68279e-06
2.10165e-05
3.35273e-05
3.64024e-05
3.42068e-05
3.05995e-05
2.74044e-05
2.5196e-05
2.39429e-05
2.34898e-05
2.36037e-05
2.40677e-05
2.46908e-05
2.52817e-05
2.56266e-05
2.5488e-05
2.46505e-05
2.30333e-05
2.07768e-05
1.82248e-05
1.56499e-05
1.32418e-05
1.11791e-05
9.60289e-06
8.61917e-06
8.35851e-06
9.12445e-06
1.16358e-05
1.6562e-05
1.74121e-05
7.22519e-06
2.56186e-06
2.2506e-07
2.20426e-07
3.18139e-06
8.71456e-06
2.11369e-05
3.35068e-05
3.61135e-05
3.37409e-05
3.00881e-05
2.6952e-05
2.4851e-05
2.37196e-05
2.33842e-05
2.36048e-05
2.41634e-05
2.48674e-05
2.55221e-05
2.59097e-05
2.57909e-05
2.49549e-05
2.33336e-05
2.10835e-05
1.85527e-05
1.59894e-05
1.35822e-05
1.15116e-05
9.92201e-06
8.92439e-06
8.65825e-06
9.44173e-06
1.20036e-05
1.69694e-05
1.76615e-05
7.31118e-06
2.58489e-06
2.26559e-07
2.22781e-07
3.18435e-06
8.74512e-06
2.12537e-05
3.34698e-05
3.58004e-05
3.32507e-05
2.95596e-05
2.64893e-05
2.44998e-05
2.34938e-05
2.3277e-05
2.36049e-05
2.4259e-05
2.50443e-05
2.57621e-05
2.61898e-05
2.60868e-05
2.52478e-05
2.36194e-05
2.13749e-05
1.88647e-05
1.63137e-05
1.39101e-05
1.18359e-05
1.02379e-05
9.23193e-06
8.96631e-06
9.77369e-06
1.23917e-05
1.73947e-05
1.79138e-05
7.39902e-06
2.60855e-06
2.28099e-07
2.25074e-07
3.18675e-06
8.77426e-06
2.13663e-05
3.34157e-05
3.54625e-05
3.27371e-05
2.90154e-05
2.60175e-05
2.41428e-05
2.32632e-05
2.31659e-05
2.36025e-05
2.43534e-05
2.52209e-05
2.60012e-05
2.64672e-05
2.63766e-05
2.55311e-05
2.38937e-05
2.16551e-05
1.91638e-05
1.66252e-05
1.42271e-05
1.21527e-05
1.05506e-05
9.54118e-06
9.28138e-06
1.01184e-05
1.27986e-05
1.78359e-05
1.81679e-05
7.48829e-06
2.63274e-06
2.29682e-07
2.27305e-07
3.18863e-06
8.80203e-06
2.14745e-05
3.33445e-05
3.51013e-05
3.22026e-05
2.84587e-05
2.55402e-05
2.37832e-05
2.30311e-05
2.30534e-05
2.35986e-05
2.44464e-05
2.53958e-05
2.62378e-05
2.67399e-05
2.66589e-05
2.58046e-05
2.41579e-05
2.19269e-05
1.9452e-05
1.6925e-05
1.45335e-05
1.24617e-05
1.08596e-05
9.85153e-06
9.60325e-06
1.04764e-05
1.32234e-05
1.82917e-05
1.84235e-05
7.57891e-06
2.65748e-06
2.31311e-07
2.29467e-07
3.18988e-06
8.82803e-06
2.15773e-05
3.32552e-05
3.47166e-05
3.16485e-05
2.78914e-05
2.50582e-05
2.34209e-05
2.27963e-05
2.29377e-05
2.35913e-05
2.45361e-05
2.55675e-05
2.64706e-05
2.70072e-05
2.69334e-05
2.60686e-05
2.44131e-05
2.21918e-05
1.9731e-05
1.72141e-05
1.48301e-05
1.27632e-05
1.11645e-05
1.01622e-05
9.93068e-06
1.08463e-05
1.36652e-05
1.87597e-05
1.86783e-05
7.67003e-06
2.68257e-06
2.32982e-07
2.31554e-07
3.19049e-06
8.85206e-06
2.1674e-05
3.31483e-05
3.43103e-05
3.10778e-05
2.73171e-05
2.45751e-05
2.30593e-05
2.25614e-05
2.28207e-05
2.35814e-05
2.46221e-05
2.57346e-05
2.66978e-05
2.72671e-05
2.71984e-05
2.63217e-05
2.4658e-05
2.24485e-05
2.00003e-05
1.74931e-05
1.51174e-05
1.30577e-05
1.14657e-05
1.04731e-05
1.02633e-05
1.12274e-05
1.4123e-05
1.92385e-05
1.89321e-05
7.7612e-06
2.70792e-06
2.3469e-07
2.33559e-07
3.19033e-06
8.87362e-06
2.17635e-05
3.30231e-05
3.38822e-05
3.04913e-05
2.67367e-05
2.40917e-05
2.26986e-05
2.23269e-05
2.27025e-05
2.35689e-05
2.47042e-05
2.58967e-05
2.69186e-05
2.75191e-05
2.74536e-05
2.65638e-05
2.48921e-05
2.26954e-05
2.02586e-05
1.77607e-05
1.53944e-05
1.33443e-05
1.17622e-05
1.07834e-05
1.06003e-05
1.16189e-05
1.45958e-05
1.9727e-05
1.91831e-05
7.85179e-06
2.7334e-06
2.36434e-07
2.3548e-07
3.18939e-06
8.89251e-06
2.18454e-05
3.28801e-05
3.34335e-05
2.98908e-05
2.61523e-05
2.36099e-05
2.23411e-05
2.20946e-05
2.25849e-05
2.35548e-05
2.47828e-05
2.60534e-05
2.7132e-05
2.77616e-05
2.76977e-05
2.67941e-05
2.51151e-05
2.29317e-05
2.05056e-05
1.80167e-05
1.56607e-05
1.36223e-05
1.20535e-05
1.10929e-05
1.09417e-05
1.20209e-05
1.50836e-05
2.02245e-05
1.94299e-05
7.94137e-06
2.75891e-06
2.38216e-07
2.37316e-07
3.18759e-06
8.90851e-06
2.19195e-05
3.27189e-05
3.29631e-05
2.92755e-05
2.55635e-05
2.31297e-05
2.19869e-05
2.18657e-05
2.24695e-05
2.35412e-05
2.48597e-05
2.6206e-05
2.73391e-05
2.79955e-05
2.79315e-05
2.70136e-05
2.5328e-05
2.3158e-05
2.07418e-05
1.82617e-05
1.59166e-05
1.38915e-05
1.23387e-05
1.13998e-05
1.12853e-05
1.2431e-05
1.55833e-05
2.07268e-05
1.96713e-05
8.02939e-06
2.78429e-06
2.40034e-07
2.39081e-07
3.18503e-06
8.92195e-06
2.19868e-05
3.25399e-05
3.24709e-05
2.86459e-05
2.49708e-05
2.26515e-05
2.16371e-05
2.16414e-05
2.23579e-05
2.353e-05
2.4937e-05
2.63565e-05
2.75412e-05
2.8222e-05
2.81562e-05
2.72242e-05
2.55335e-05
2.33762e-05
2.09688e-05
1.8497e-05
1.61633e-05
1.41531e-05
1.26189e-05
1.17053e-05
1.16321e-05
1.28497e-05
1.6094e-05
2.12323e-05
1.99073e-05
8.11579e-06
2.80952e-06
2.41884e-07
2.40786e-07
3.18176e-06
8.93314e-06
2.20479e-05
3.23422e-05
3.19553e-05
2.8001e-05
2.43736e-05
2.21751e-05
2.12919e-05
2.14224e-05
2.22518e-05
2.35236e-05
2.50176e-05
2.6508e-05
2.77413e-05
2.84435e-05
2.83745e-05
2.7429e-05
2.57351e-05
2.35889e-05
2.11884e-05
1.87239e-05
1.64016e-05
1.44073e-05
1.28935e-05
1.20081e-05
1.19803e-05
1.32748e-05
1.66132e-05
2.17382e-05
2.01367e-05
8.20009e-06
2.83449e-06
2.43761e-07
2.42456e-07
3.17804e-06
8.94296e-06
2.21046e-05
3.2126e-05
3.14164e-05
2.73419e-05
2.37729e-05
2.17007e-05
2.09519e-05
2.12092e-05
2.21512e-05
2.35229e-05
2.51034e-05
2.66629e-05
2.7942e-05
2.86627e-05
2.8589e-05
2.76314e-05
2.59373e-05
2.3799e-05
2.14025e-05
1.89437e-05
1.66323e-05
1.46544e-05
1.31626e-05
1.23079e-05
1.23293e-05
1.37055e-05
1.71396e-05
2.22428e-05
2.03591e-05
8.2822e-06
2.85917e-06
2.45659e-07
2.44096e-07
3.17395e-06
8.95175e-06
2.2157e-05
3.18899e-05
3.08541e-05
2.66705e-05
2.31697e-05
2.12281e-05
2.06188e-05
2.10012e-05
2.20549e-05
2.35272e-05
2.5195e-05
2.68232e-05
2.81459e-05
2.88822e-05
2.88023e-05
2.7834e-05
2.61428e-05
2.4009e-05
2.16132e-05
1.91581e-05
1.68569e-05
1.48957e-05
1.34274e-05
1.2607e-05
1.2683e-05
1.41412e-05
1.76704e-05
2.27429e-05
2.05732e-05
8.36147e-06
2.88333e-06
2.47566e-07
2.45719e-07
3.1697e-06
8.96012e-06
2.22057e-05
3.1634e-05
3.02712e-05
2.59913e-05
2.2568e-05
2.07577e-05
2.02849e-05
2.07918e-05
2.19589e-05
2.35344e-05
2.52916e-05
2.6989e-05
2.83539e-05
2.91034e-05
2.90158e-05
2.80377e-05
2.63513e-05
2.42188e-05
2.1821e-05
1.93681e-05
1.70765e-05
1.51324e-05
1.36891e-05
1.29058e-05
1.304e-05
1.45827e-05
1.82059e-05
2.32387e-05
2.078e-05
8.43834e-06
2.9072e-06