/*--------------------------------*- C++ -*----------------------------------*\
| =========                 |                                                 |
| \\      /  F ield         | OpenFOAM: The Open Source CFD Toolbox           |
|  \\    /   O peration     | Version:  v1906                                 |
|   \\  /    A nd           | Web:      www.OpenFOAM.com                      |
|    \\/     M anipulation  |                                                 |
\*---------------------------------------------------------------------------*/
FoamFile
{
    version     2.0;
    format      ascii;
    class       volScalarField;
    location    "85";
    object      k;
}
// * * * * * * * * * * * * * * * * * * * * * * * * * * * * * * * * * * * * * //

dimensions      [0 2 -2 0 0 0 0];


internalField   nonuniform List<scalar> 
78750
(
4.21714e-07
3.049e-06
5.82593e-06
8.6707e-06
1.15099e-05
1.4296e-05
1.69925e-05
1.95674e-05
2.19931e-05
2.42469e-05
2.63117e-05
2.81749e-05
2.98285e-05
3.12688e-05
3.24871e-05
3.34738e-05
3.42274e-05
3.4746e-05
3.50265e-05
3.50639e-05
3.48548e-05
3.43798e-05
3.3628e-05
3.25834e-05
3.12269e-05
2.95401e-05
2.75007e-05
2.50937e-05
2.23255e-05
1.9212e-05
1.57668e-05
1.20289e-05
8.18968e-06
4.65508e-06
1.71498e-06
1.77462e-06
1.43651e-05
2.59331e-05
3.6371e-05
4.56934e-05
5.39445e-05
6.11565e-05
6.73707e-05
7.26417e-05
7.70316e-05
8.06045e-05
8.34249e-05
8.55545e-05
8.70509e-05
8.79845e-05
8.84281e-05
8.84332e-05
8.80438e-05
8.72988e-05
8.62307e-05
8.48656e-05
8.32083e-05
8.12591e-05
7.90012e-05
7.64012e-05
7.34234e-05
7.00168e-05
6.6059e-05
6.13677e-05
5.57111e-05
4.8735e-05
4.00508e-05
2.98574e-05
1.93458e-05
9.83525e-06
3.10391e-06
2.25942e-05
4.04831e-05
5.62384e-05
6.95215e-05
8.04295e-05
8.92593e-05
9.6305e-05
0.000101803
0.000105943
0.000108882
0.000110761
0.000111703
0.000111826
0.000111242
0.000110064
0.000108391
0.00010631
0.000103915
0.000101293
9.85319e-05
9.57024e-05
9.28417e-05
8.99569e-05
8.7018e-05
8.3951e-05
8.06345e-05
7.68873e-05
7.24482e-05
6.69353e-05
5.9811e-05
5.06205e-05
3.98395e-05
2.83014e-05
1.73705e-05
4.8662e-06
3.02335e-05
5.32399e-05
7.28405e-05
8.84428e-05
0.000100401
0.00010946
0.000116244
0.000121172
0.000124529
0.000126528
0.000127334
0.000127086
0.000125906
0.000123911
0.00012122
0.000117959
0.000114263
0.000110276
0.000106155
0.000102058
9.81399e-05
9.45181e-05
9.12458e-05
8.82916e-05
8.55336e-05
8.27612e-05
7.96817e-05
7.59152e-05
7.09685e-05
6.42605e-05
5.54963e-05
4.53962e-05
3.42278e-05
2.28557e-05
7.00715e-06
3.74154e-05
6.45399e-05
8.68485e-05
0.000103694
0.000115903
0.000124716
0.00013102
0.000135339
0.000137992
0.000139189
0.000139073
0.000137753
0.000135331
0.000131916
0.000127639
0.00012266
0.000117166
0.000111372
0.000105518
9.98729e-05
9.47162e-05
9.02746e-05
8.66584e-05
8.38441e-05
8.16762e-05
7.98629e-05
7.79808e-05
7.54876e-05
7.17375e-05
6.60845e-05
5.83437e-05
4.91559e-05
3.83712e-05
2.64843e-05
9.10693e-06
4.36669e-05
7.41461e-05
9.86296e-05
0.000116475
0.000128968
0.000137762
0.000143917
0.000147987
0.000150275
0.000150949
0.000150111
0.000147837
0.000144213
0.000139363
0.00013346
0.000126725
0.000119424
0.000111858
0.000104362
9.7315e-05
9.10929e-05
8.59483e-05
8.1957e-05
7.90738e-05
7.71463e-05
7.58875e-05
7.48483e-05
7.34133e-05
7.08294e-05
6.63646e-05
5.98174e-05
5.15644e-05
4.11575e-05
2.89676e-05
1.12112e-05
4.93907e-05
8.2714e-05
0.000108972
0.000127609
0.000140341
0.000149137
0.00015516
0.00015898
0.000160879
0.000160995
0.000159392
0.000156122
0.000151275
0.000145007
0.000137546
0.000129189
0.000120279
0.0001112
0.000102388
9.43286e-05
8.74602e-05
8.19536e-05
7.77932e-05
7.48959e-05
7.31183e-05
7.22117e-05
7.17642e-05
7.11593e-05
6.95882e-05
6.62268e-05
6.07674e-05
5.33152e-05
4.32476e-05
3.10172e-05
1.29803e-05
5.42e-05
8.99889e-05
0.000117912
0.000137426
0.000150553
0.000159515
0.000165572
0.000169303
0.00017097
0.000170675
0.000168453
0.000164347
0.000158463
0.000151003
0.000142255
0.00013258
0.000122387
0.00011213
0.000102324
9.35491e-05
8.62118e-05
8.03487e-05
7.58757e-05
7.27001e-05
7.07142e-05
6.97421e-05
6.94603e-05
6.93143e-05
6.84858e-05
6.60535e-05
6.15327e-05
5.48007e-05
4.51476e-05
3.31766e-05
1.46889e-05
5.87425e-05
9.68029e-05
0.00012623
0.000146531
0.000160017
0.000169121
0.000175177
0.000178774
0.000180158
0.000179406
0.000176537
0.000171596
0.000164719
0.000156153
0.000146244
0.000135414
0.000124138
0.000112945
0.000102449
9.33202e-05
8.58424e-05
7.98955e-05
7.53155e-05
7.19762e-05
6.97826e-05
6.8622e-05
6.82755e-05
6.82964e-05
6.792e-05
6.6172e-05
6.2401e-05
5.62983e-05
4.71197e-05
3.56277e-05
1.62694e-05
6.2971e-05
0.000103168
0.000134056
0.000155171
0.000169064
0.00017836
0.00018447
0.000187993
0.000189159
0.000188025
0.000184595
0.000178919
0.000171161
0.00016161
0.000150664
0.000138799
0.000126549
0.000114513
0.000103405
9.39759e-05
8.63797e-05
8.03806e-05
7.57451e-05
7.23019e-05
6.99424e-05
6.85818e-05
6.80772e-05
6.80916e-05
6.79485e-05
6.66736e-05
6.34902e-05
5.79404e-05
4.92571e-05
3.83021e-05
1.78454e-05
6.70223e-05
0.000109206
0.000141424
0.000163262
0.000177507
0.00018696
0.000193091
0.000196504
0.000197417
0.000195871
0.000191863
0.000185457
0.000176845
0.000166359
0.000154444
0.000141631
0.000128512
0.000115757
0.000104185
9.46176e-05
8.70554e-05
8.11577e-05
7.66205e-05
7.32228e-05
7.0831e-05
6.93664e-05
6.87324e-05
6.86777e-05
6.8624e-05
6.76404e-05
6.48852e-05
5.97887e-05
5.1555e-05
4.10932e-05
1.94812e-05
7.11576e-05
0.00011531
0.000148818
0.000171342
0.000185923
0.000195529
0.000201686
0.000205002
0.000205681
0.000203746
0.00019919
0.000192088
0.000182662
0.000171278
0.000158428
0.000144689
0.000130711
0.00011723
0.00010516
9.54069e-05
8.78582e-05
8.2082e-05
7.77015e-05
7.44379e-05
7.21211e-05
7.0659e-05
6.99723e-05
6.98645e-05
6.98401e-05
6.90324e-05
6.6584e-05
6.18478e-05
5.39859e-05
4.39017e-05
2.11066e-05
7.50554e-05
0.000120999
0.000155672
0.000178812
0.000193698
0.000203444
0.000209619
0.000212834
0.000213277
0.000210958
0.00020587
0.000198104
0.000187909
0.000175687
0.000161968
0.000147372
0.0001326
0.000118452
0.000105944
9.60517e-05
8.85619e-05
8.29641e-05
7.88122e-05
7.57738e-05
7.36385e-05
7.22915e-05
7.16512e-05
7.15468e-05
7.15404e-05
7.08333e-05
6.85878e-05
6.411e-05
5.65104e-05
4.66612e-05
2.28505e-05
7.91668e-05
0.000126935
0.000162748
0.000186463
0.000201624
0.000211494
0.000217683
0.000220794
0.000221003
0.000218308
0.000212701
0.000204291
0.000193353
0.000180319
0.000165754
0.000150315
0.000134747
0.000119905
0.000106891
9.67833e-05
8.92986e-05
8.38522e-05
7.99317e-05
7.71508e-05
7.52562e-05
7.41029e-05
7.3593e-05
7.35593e-05
7.35961e-05
7.296e-05
7.08504e-05
6.65491e-05
5.91087e-05
4.93549e-05
2.4559e-05
8.29978e-05
0.000132404
0.000169246
0.00019349
0.000208916
0.000218918
0.000225132
0.000228156
0.000228152
0.000225107
0.00021902
0.000210016
0.000198395
0.000184617
0.000169273
0.000153053
0.000136739
0.000121237
0.000107731
9.74022e-05
8.99238e-05
8.46423e-05
8.09843e-05
7.85101e-05
7.69215e-05
7.60396e-05
7.57414e-05
7.58465e-05
7.59597e-05
7.5378e-05
7.33478e-05
6.91423e-05
6.17543e-05
5.19649e-05
2.6384e-05
8.70486e-05
0.000138145
0.000176013
0.00020076
0.000216434
0.000226557
0.00023279
0.000235726
0.000235509
0.000232122
0.000225568
0.000215994
0.000203719
0.000189228
0.000173133
0.000156148
0.000139084
0.00012289
0.000108807
9.81467e-05
9.05832e-05
8.54073e-05
8.19842e-05
7.98182e-05
7.85656e-05
7.80076e-05
7.79874e-05
7.82977e-05
7.85342e-05
7.80168e-05
7.60362e-05
7.18673e-05
6.4443e-05
5.45063e-05
2.81635e-05
9.08304e-05
0.000143448
0.000182248
0.000207469
0.000223392
0.000233651
0.000239924
0.000242792
0.000242388
0.000238691
0.000231714
0.00022162
0.000208751
0.000193612
0.00017683
0.000159136
0.000141365
0.000124509
0.000109854
9.88371e-05
9.11632e-05
8.60781e-05
8.28928e-05
8.10566e-05
8.0177e-05
7.99945e-05
8.03121e-05
8.08845e-05
8.12835e-05
8.08374e-05
7.88791e-05
7.46923e-05
6.7151e-05
5.69711e-05
3.00439e-05
9.48015e-05
0.000148995
0.000188741
0.00021443
0.000230598
0.00024099
0.0002473
0.0002501
0.000249512
0.000245513
0.00023813
0.000227543
0.000214114
0.000198363
0.000180926
0.000162539
0.00014406
0.000126504
0.000111198
9.96955e-05
9.17993e-05
8.67214e-05
8.37236e-05
8.22007e-05
8.17079e-05
8.19373e-05
8.26451e-05
8.35388e-05
8.41511e-05
8.38025e-05
8.18589e-05
7.76152e-05
6.98873e-05
5.93768e-05
3.18809e-05
9.85387e-05
0.000154167
0.000194788
0.00022093
0.000237355
0.000247897
0.000254261
0.000257008
0.000256255
0.000251982
0.000244229
0.000233196
0.000219264
0.000202961
0.000184929
0.000165912
0.000146775
0.00012855
0.000112599
0.000100573
9.24078e-05
8.72974e-05
8.44635e-05
8.3251e-05
8.31622e-05
8.3837e-05
8.49781e-05
8.62362e-05
8.70966e-05
8.68599e-05
8.49202e-05
8.05858e-05
7.26167e-05
6.17114e-05
3.38035e-05
0.000102426
0.000159538
0.000201061
0.000227671
0.000244361
0.000255058
0.00026147
0.000264158
0.000263237
0.000258695
0.00025059
0.00023914
0.000224741
0.000207927
0.000189337
0.000169715
0.000149926
0.000131005
0.000114337
0.000101658
9.31051e-05
8.78657e-05
8.51301e-05
8.41953e-05
8.4509e-05
8.56532e-05
8.72698e-05
8.89444e-05
9.00986e-05
9.00041e-05
8.8073e-05
8.36247e-05
7.53611e-05
6.39894e-05
3.56889e-05
0.000106109
0.00016459
0.000206973
0.000234063
0.000251046
0.000261912
0.000268377
0.000271003
0.000269918
0.000265124
0.000256697
0.000244875
0.000230062
0.000212798
0.000193717
0.000173555
0.000153168
0.000133586
0.000116207
0.000102835
9.38346e-05
8.84087e-05
8.57278e-05
8.50485e-05
8.57646e-05
8.73966e-05
8.95181e-05
9.16415e-05
9.31205e-05
9.31843e-05
9.12599e-05
8.66765e-05
7.80789e-05
6.61954e-05
3.76472e-05
0.000109896
0.000169779
0.000213059
0.000240678
0.000258004
0.000269041
0.000275523
0.000278055
0.000276789
0.000271745
0.000263016
0.000250853
0.000235668
0.000217996
0.000198465
0.000177796
0.000156826
0.000136572
0.000118434
0.000104255
9.46929e-05
8.89795e-05
8.6277e-05
8.58078e-05
8.69115e-05
8.90423e-05
9.16976e-05
9.43068e-05
9.61438e-05
9.63873e-05
9.44742e-05
8.97435e-05
8.07789e-05
6.83348e-05
3.95754e-05
0.000113496
0.000174673
0.000218822
0.00024703
0.000264762
0.000275993
0.000282456
0.000284851
0.000283398
0.000278121
0.000269125
0.000256668
0.000241166
0.000223149
0.000203236
0.000182126
0.000160631
0.000139746
0.000120859
0.000105836
9.56481e-05
8.95771e-05
8.67934e-05
8.64954e-05
8.79724e-05
9.06089e-05
9.382e-05
9.69444e-05
9.91701e-05
9.96183e-05
9.77254e-05
9.28259e-05
8.34487e-05
7.03935e-05
4.15638e-05
0.000117157
0.000179628
0.000224639
0.000253446
0.000271506
0.000282936
0.000289468
0.000291735
0.000290105
0.000284615
0.000275378
0.000262661
0.000246882
0.000228566
0.000208316
0.000186807
0.00016482
0.000143315
0.000123655
0.000107711
9.67934e-05
9.02599e-05
8.73059e-05
8.71176e-05
8.89372e-05
9.2076e-05
9.58572e-05
9.95174e-05
0.000102146
0.000102797
0.000100911
9.58497e-05
8.60548e-05
7.23668e-05
4.35276e-05
0.00012066
0.000184336
0.000230165
0.000259526
0.000277916
0.000289562
0.000296195
0.000298423
0.000296602
0.000290909
0.000281461
0.000268528
0.000252525
0.000233971
0.000213451
0.000191613
0.0001692
0.000147129
0.000126726
0.00010985
9.81353e-05
9.10575e-05
8.78533e-05
8.77125e-05
8.98391e-05
9.34703e-05
9.78315e-05
0.00010205
0.000105109
0.000105997
0.000104162
9.88858e-05
8.86206e-05
7.4248e-05
4.55363e-05
0.000124184
0.000189068
0.00023577
0.000265591
0.000284275
0.00029613
0.000302877
0.000305094
0.000303102
0.000297237
0.000287613
0.000274502
0.000258317
0.00023957
0.000218829
0.000196713
0.000173924
0.000151327
0.000130202
0.000112372
9.97724e-05
9.20442e-05
8.84847e-05
8.83065e-05
9.06851e-05
9.4784e-05
9.97229e-05
0.000104507
0.000108005
0.000109137
0.0001074
0.000101864
9.11079e-05
7.60303e-05
4.75165e-05
0.000127538
0.000193519
0.000241035
0.000271302
0.000290295
0.000302382
0.000309273
0.000311522
0.00030941
0.000303402
0.000293629
0.000280376
0.000264056
0.000245171
0.000224272
0.000201947
0.000178856
0.000155806
0.000134021
0.000115279
0.000101741
9.32775e-05
8.92632e-05
8.89562e-05
9.15195e-05
9.60481e-05
0.000101552
0.00010691
0.000110877
0.000112327
0.000110664
0.000104874
9.35514e-05
7.77135e-05
4.95243e-05
0.00013089
0.000197945
0.000246248
0.000276937
0.000296223
0.000308538
0.000315583
0.000317896
0.000315743
0.000309566
0.000299654
0.000286289
0.000269876
0.000250901
0.000229895
0.000207416
0.000184083
0.000160644
0.000138257
0.000118647
0.000104116
9.48264e-05
9.02489e-05
8.97066e-05
9.23704e-05
9.7277e-05
0.000103327
0.000109268
0.000113738
0.000115559
0.000113962
0.000107918
9.5963e-05
7.92993e-05
5.15021e-05
0.000134095
0.000202132
0.000251167
0.000282258
0.000301836
0.000314386
0.000321597
0.000323989
0.000321818
0.000315517
0.000305521
0.000292098
0.000275644
0.000256635
0.000235581
0.000213013
0.000189508
0.000165756
0.000142848
0.000122441
0.000106905
9.67327e-05
9.15001e-05
9.06172e-05
9.3287e-05
9.85037e-05
0.000105064
0.000111579
0.000116567
0.000118783
0.00011726
0.000110958
9.833e-05
8.0787e-05
5.34908e-05
0.000137278
0.000206268
0.000256001
0.000287468
0.000307324
0.000320106
0.000327488
0.000329975
0.000327807
0.000321408
0.000311353
0.000297903
0.000281446
0.000262443
0.000241388
0.000218785
0.000195168
0.000171172
0.000147813
0.000126674
0.000110134
9.90362e-05
9.30652e-05
9.17356e-05
9.43086e-05
9.97576e-05
0.000106785
0.000113866
0.000119383
0.000122003
0.000120552
0.000113978
0.000100647
8.21806e-05
5.54505e-05
0.000140343
0.000210212
0.000260583
0.000292397
0.000312523
0.000325539
0.000333102
0.000335701
0.000333565
0.000327107
0.000317033
0.000303598
0.000287181
0.000268234
0.00024723
0.00022465
0.000200988
0.000176821
0.000153093
0.000131301
0.000113794
0.000101757
9.4987e-05
9.31138e-05
9.5483e-05
0.000101071
0.000108499
0.000116105
0.000122129
0.000125167
0.000123802
0.000116957
0.000102904
8.34831e-05
5.74097e-05
0.00014338
0.000214105
0.000265057
0.000297182
0.000317562
0.000330805
0.000338552
0.000341276
0.000339191
0.000332704
0.000322633
0.000309235
0.000292889
0.000274033
0.000253125
0.000230619
0.00020697
0.000182702
0.00015868
0.000136313
0.000117888
0.000104916
9.72984e-05
9.47932e-05
9.68506e-05
0.000102478
0.000110235
0.000118336
0.000124893
0.000128298
0.000127004
0.000119883
0.000105096
8.46995e-05
5.93438e-05
0.000146325
0.000217887
0.000269311
0.00030171
0.000322331
0.000335801
0.000343739
0.000346602
0.0003446
0.000338138
0.000328079
0.000314743
0.000298501
0.000279778
0.000259012
0.00023663
0.000213056
0.000188755
0.000164523
0.000141669
0.0001224
0.000108521
0.00010003
9.68182e-05
9.84595e-05
0.000104021
0.000112026
0.00012058
0.000127662
0.000131395
0.000130154
0.000122748
0.00010722
8.58341e-05
6.12631e-05
0.000149183
0.000221543
0.0002734
0.000306057
0.00032691
0.000340601
0.000348727
0.00035173
0.00034982
0.000343412
0.000333378
0.000320128
0.000304021
0.000285466
0.000264883
0.000242673
0.000219226
0.000194959
0.000170594
0.000147343
0.000127318
0.000112575
0.000103205
9.92252e-05
0.000100352
0.000105739
0.000113901
0.000122847
0.000130419
0.00013445
0.000133245
0.000125546
0.000109271
8.68911e-05
6.31487e-05
0.000151938
0.000225034
0.000277284
0.000310175
0.000331246
0.000345152
0.000353465
0.000356611
0.000354801
0.000348463
0.000338484
0.000325353
0.000309415
0.000291064
0.0002707
0.000248703
0.000225433
0.000201261
0.00017684
0.000153288
0.000132609
0.00011707
0.000106835
0.000102046
0.000102569
0.000107672
0.000115891
0.000125154
0.000133164
0.000137458
0.000136271
0.000128272
0.000111251
8.78746e-05
6.49977e-05
0.000154589
0.000228377
0.000280994
0.000314098
0.000335372
0.000349482
0.000357975
0.000361268
0.000359568
0.000353317
0.000343415
0.000330427
0.000314683
0.000296563
0.000276449
0.000254702
0.000231652
0.000207628
0.000183224
0.000159462
0.00013824
0.000121983
0.00011092
0.000105301
0.000105145
0.000109859
0.000118027
0.000127518
0.0001359
0.000140418
0.000139229
0.000130924
0.000113158
8.87879e-05
6.6821e-05
0.000157153
0.000231582
0.00028451
0.0003178
0.000339269
0.000353581
0.000362256
0.000365694
0.000364103
0.000357943
0.000348145
0.000335333
0.00031981
0.000301949
0.000282116
0.00026065
0.000237858
0.000214031
0.000189707
0.000165824
0.00014417
0.000127286
0.000115448
0.000108998
0.000108107
0.000112334
0.000120342
0.000129963
0.00013864
0.000143334
0.000142119
0.0001335
0.000114993
8.96354e-05
6.86123e-05
0.000159623
0.000234628
0.000287833
0.000321292
0.000342945
0.000357452
0.000366307
0.000369895
0.000368426
0.000362374
0.00035269
0.000340057
0.000324785
0.000307211
0.000287685
0.00026653
0.00024403
0.000220444
0.000196259
0.000172335
0.00015036
0.000132941
0.000120394
0.000113131
0.000111467
0.000115122
0.00012286
0.000132506
0.000141394
0.000146211
0.000144943
0.000136002
0.000116758
9.04226e-05
7.03678e-05
0.000161992
0.000237523
0.000290967
0.000324574
0.000346398
0.000361093
0.000370123
0.000373858
0.000372513
0.000366581
0.000357039
0.000344613
0.000329599
0.000312334
0.000293142
0.000272325
0.000250147
0.000226839
0.000202845
0.000178957
0.000156766
0.00013891
0.000125728
0.000117687
0.000115229
0.000118239
0.000125607
0.000135174
0.000144181
0.000149059
0.000147708
0.000138432
0.000118458
9.11559e-05
7.20854e-05
0.000164256
0.000240258
0.000293907
0.000327644
0.000349628
0.000364503
0.000373704
0.000377587
0.00037637
0.000370569
0.000361187
0.000348989
0.000334256
0.000317312
0.000298473
0.00027802
0.000256192
0.000233197
0.000209441
0.000185656
0.000163348
0.000145149
0.000131414
0.000122642
0.000119386
0.000121694
0.000128596
0.000137977
0.000147011
0.000151888
0.000150417
0.000140795
0.000120096
9.18422e-05
7.37658e-05
0.000166425
0.000242847
0.000296665
0.000330511
0.000352643
0.000367689
0.000377054
0.000381081
0.000379993
0.000374331
0.000365127
0.000353173
0.00033874
0.000322137
0.000303665
0.000283595
0.000262144
0.000239493
0.000216018
0.000192398
0.000170063
0.00015162
0.000137416
0.000127969
0.000123926
0.00012549
0.000131843
0.000140938
0.000149902
0.000154708
0.000153081
0.000143099
0.00012168
9.24892e-05
7.53981e-05
0.00016848
0.000245272
0.000299228
0.000333167
0.000355435
0.000370643
0.000380166
0.000384334
0.000383376
0.000377861
0.00036885
0.000357157
0.000343041
0.000326796
0.000308709
0.000289036
0.000267985
0.000245708
0.000222552
0.000199154
0.000176876
0.000158284
0.000143698
0.000133638
0.000128829
0.00012962
0.00013535
0.000144062
0.000152862
0.000157532
0.00015571
0.000145351
0.000123218
9.31047e-05
7.69879e-05
0.000170441
0.000247557
0.000301617
0.000335627
0.000358017
0.000373378
0.000383051
0.000387353
0.000386524
0.000381161
0.000372357
0.000360938
0.00034715
0.000331276
0.000313589
0.000294329
0.00027369
0.000251815
0.000229014
0.000205889
0.000183749
0.000165104
0.000150226
0.000139623
0.000134081
0.000134081
0.000139125
0.000147363
0.000155907
0.000160371
0.000158314
0.000147562
0.000124718
9.36967e-05
7.85289e-05
0.000172292
0.000249683
0.000303815
0.000337879
0.00036038
0.000375883
0.000385699
0.000390131
0.00038943
0.000384222
0.00037564
0.000364506
0.00035106
0.000335569
0.000318294
0.000299461
0.000279249
0.000257789
0.000235384
0.000212579
0.000190649
0.000172046
0.000156964
0.000145893
0.000139658
0.000138862
0.000143167
0.000150849
0.000159047
0.000163238
0.000160906
0.000149743
0.00012619
9.42735e-05
8.00268e-05
0.000174051
0.000251671
0.000305843
0.000339941
0.000362538
0.000378173
0.000388123
0.000392678
0.000392101
0.000387053
0.0003787
0.00036786
0.000354762
0.000339662
0.000322809
0.000304413
0.000284642
0.000263611
0.000241608
0.000219176
0.000197532
0.000179064
0.000163874
0.000152416
0.000145541
0.000143954
0.000147477
0.000154526
0.000162294
0.000166146
0.000163497
0.000151903
0.000127642
9.48417e-05
8.14771e-05
0.000175706
0.000253505
0.000307685
0.000341799
0.000364481
0.00038024
0.000390316
0.000394989
0.000394535
0.00038965
0.000381538
0.000370999
0.000358256
0.000343554
0.000327128
0.000309179
0.000289861
0.000269278
0.000247707
0.000225677
0.000204383
0.000186129
0.000170916
0.000159155
0.000151702
0.000149345
0.000152058
0.000158406
0.000165662
0.000169109
0.000166102
0.000154057
0.000129085
9.54073e-05
8.28836e-05
0.000177266
0.000255199
0.000309356
0.000343469
0.000366223
0.000382096
0.000392291
0.000397077
0.000396743
0.000392022
0.000384158
0.000373926
0.00036154
0.000347237
0.000331241
0.000313742
0.000294883
0.000274761
0.000253645
0.000232055
0.000211178
0.000193211
0.000178055
0.000166074
0.000158111
0.000155018
0.000156904
0.000162494
0.000169164
0.000172141
0.000168734
0.000156214
0.000130525
9.5975e-05
8.42439e-05
0.000178724
0.000256742
0.000310845
0.00034494
0.000367757
0.000383737
0.000394046
0.00039894
0.000398726
0.000394174
0.000386568
0.000376648
0.000364621
0.000350718
0.000335151
0.000318103
0.000299707
0.000280054
0.000259409
0.000238291
0.000217886
0.000200272
0.000185249
0.00017313
0.000164734
0.000160949
0.000162007
0.000166792
0.000172809
0.000175257
0.000171407
0.000158387
0.000131972
9.65492e-05
8.55601e-05
0.000180084
0.000258143
0.000312162
0.000346224
0.000369094
0.000385173
0.00039559
0.000400589
0.000400493
0.000396114
0.000388774
0.00037917
0.000367502
0.000353995
0.000338855
0.000322254
0.000304321
0.000285142
0.000264983
0.000244369
0.000224496
0.000207286
0.000192463
0.000180285
0.000171531
0.000167111
0.000167358
0.000171318
0.000176612
0.00017847
0.000174134
0.000160586
0.000133431
9.71325e-05
8.68326e-05
0.000181346
0.000259397
0.000313304
0.000347317
0.000370232
0.000386403
0.000396924
0.000402026
0.000402052
0.000397852
0.000390789
0.000381504
0.000370196
0.000357082
0.000342362
0.000326203
0.000308729
0.000290024
0.00027036
0.000250274
0.000230984
0.000214226
0.000199662
0.000187496
0.000178464
0.000173474
0.000172943
0.000176073
0.000180585
0.000181796
0.000176931
0.000162824
0.000134911
9.7728e-05
8.80632e-05
0.000182512
0.00026051
0.000314278
0.000348227
0.000371175
0.000387433
0.000398054
0.000403257
0.000403406
0.000399393
0.000392617
0.000383658
0.000372709
0.000359983
0.000345676
0.000329951
0.00031293
0.000294698
0.000275534
0.000255996
0.000237332
0.000221068
0.000206814
0.000194728
0.000185492
0.000180003
0.000178737
0.000181038
0.00018473
0.000185243
0.000179808
0.00016511
0.000136416
9.83367e-05
8.92552e-05
0.000183585
0.000261486
0.000315085
0.000348954
0.000371927
0.000388265
0.000398981
0.000404286
0.000404563
0.000400746
0.00039427
0.000385644
0.000375056
0.000362714
0.000348813
0.000333513
0.000316934
0.000299167
0.000280504
0.000261527
0.000243523
0.000227788
0.000213894
0.00020195
0.000192587
0.000186671
0.000184719
0.0001862
0.000189046
0.000188821
0.000182776
0.000167453
0.000137955
9.89603e-05
9.04106e-05
0.000184569
0.000262328
0.00031573
0.000349502
0.000372488
0.000388898
0.000399706
0.000405111
0.000405521
0.000401912
0.00039575
0.000387465
0.00037724
0.000365281
0.00035178
0.000336895
0.00032075
0.00030344
0.000285276
0.000266869
0.000249551
0.000234375
0.000220881
0.000209135
0.000199711
0.000193439
0.000190855
0.00019154
0.000193528
0.000192532
0.000185844
0.000169864
0.000139531
9.95994e-05
9.15342e-05
0.000185471
0.000263046
0.00031622
0.000349876
0.000372864
0.000389338
0.000400232
0.000405738
0.000406288
0.000402898
0.000397067
0.000389133
0.000379275
0.000367698
0.00035459
0.000340111
0.000324389
0.000307527
0.000289857
0.000272025
0.000255414
0.00024082
0.00022776
0.000216261
0.000206839
0.000200281
0.000197124
0.000197043
0.000198167
0.000196377
0.000189015
0.000172345
0.000141149
0.000100256
9.26274e-05
0.000186291
0.000263638
0.000316553
0.000350074
0.000373049
0.000389577
0.000400553
0.00040616
0.000406859
0.000403703
0.000398219
0.000390644
0.000381159
0.000369965
0.000357249
0.000343171
0.000327864
0.000311443
0.000294261
0.000277009
0.000261118
0.000247121
0.00023452
0.000223308
0.000213945
0.000207163
0.000203495
0.00020269
0.000202957
0.000200356
0.000192296
0.000174906
0.000142814
0.00010093
9.36938e-05
0.000187038
0.000264114
0.000316738
0.000350103
0.000373051
0.000389624
0.000400674
0.000406385
0.000407244
0.000404342
0.000399216
0.000392008
0.000382899
0.000372089
0.000359763
0.000346084
0.000331186
0.000315199
0.000298503
0.000281834
0.000266673
0.000253283
0.000241159
0.000230265
0.000221009
0.000214062
0.000209945
0.000208462
0.000207884
0.000204464
0.000195685
0.000177545
0.000144526
0.000101621
9.47337e-05
0.000187709
0.000264471
0.000316772
0.00034996
0.000372865
0.000389469
0.000400586
0.000406401
0.000407437
0.000404831
0.000400055
0.000393214
0.000384486
0.000374065
0.000362134
0.000348853
0.000334364
0.00031881
0.000302601
0.000286522
0.000272094
0.000259315
0.000247679
0.000237125
0.000228016
0.000220961
0.000216445
0.000214334
0.000212937
0.000208698
0.000199184
0.000180268
0.000146289
0.000102332
9.57486e-05
0.00018831
0.000264718
0.000316664
0.000349653
0.0003725
0.000389122
0.000400295
0.000406208
0.00040743
0.000405147
0.000400721
0.000394252
0.000385913
0.00037589
0.000364359
0.000351482
0.000337404
0.000322287
0.00030657
0.000291097
0.000277398
0.000265229
0.000254084
0.000243886
0.000234952
0.000227835
0.00022298
0.000220292
0.000218101
0.000213049
0.00020279
0.000183075
0.000148104
0.000103061
9.6737e-05
0.000188837
0.000264848
0.000316409
0.00034918
0.000371952
0.00038858
0.000399797
0.0004058
0.000407205
0.000405252
0.000401188
0.000395107
0.000387171
0.000377556
0.000366436
0.000353971
0.000340313
0.000325642
0.000310433
0.00029559
0.000282611
0.000271041
0.000260385
0.00025055
0.000241814
0.000234672
0.000229527
0.000226301
0.000223354
0.000217503
0.000206496
0.00018596
0.00014997
0.000103811
9.76989e-05
0.000189295
0.000264869
0.000316017
0.00034855
0.000371236
0.000387858
0.00039911
0.000405201
0.000406794
0.000405182
0.000401488
0.000395799
0.000388269
0.000379068
0.000368365
0.000356319
0.000343093
0.000328883
0.000314207
0.000300034
0.000287754
0.000276769
0.000266591
0.00025712
0.000248596
0.000241462
0.000236073
0.000232368
0.000228688
0.000222057
0.000210301
0.000188929
0.000151889
0.000104582
9.86309e-05
0.000189675
0.000264773
0.000315482
0.000347761
0.000370347
0.000386951
0.000398228
0.000404399
0.000406181
0.000404917
0.0004016
0.00039631
0.000389194
0.000380415
0.000370137
0.000358522
0.000345739
0.000332009
0.000317894
0.000304434
0.000292836
0.000282419
0.000272709
0.000263599
0.000255297
0.000248193
0.000242598
0.00023846
0.000234083
0.000226689
0.000214188
0.000191968
0.000153855
0.000105374
9.9531e-05
0.000189981
0.000264565
0.000314812
0.000346825
0.000369301
0.000385879
0.000397175
0.000403424
0.000405397
0.000404488
0.00040155
0.000396659
0.000389957
0.000381602
0.000371754
0.000360575
0.000348246
0.000335013
0.000321485
0.000308775
0.000297848
0.000287988
0.00027874
0.000269988
0.000261915
0.000254862
0.000249096
0.000244569
0.000239534
0.000231397
0.000218154
0.000195074
0.000155865
0.000106182
0.000100396
0.000190204
0.00026424
0.000314005
0.000345738
0.000368096
0.000384642
0.000395951
0.000402276
0.000404445
0.000403896
0.000401339
0.000396848
0.00039056
0.000382628
0.000373212
0.000362473
0.000350606
0.000337882
0.000324961
0.000313025
0.000302765
0.000293458
0.000284666
0.000276274
0.000268436
0.000261451
0.000255543
0.000250667
0.000245014
0.000236165
0.000222188
0.000198241
0.000157914
0.000107007
0.000101224
0.00019035
0.000263806
0.000313071
0.000344517
0.00036675
0.000383257
0.000394577
0.000400982
0.000403351
0.000403169
0.000400993
0.000396897
0.000391018
0.000383508
0.000374521
0.000364225
0.000352824
0.00034062
0.000328323
0.000317177
0.000307581
0.000298821
0.000290482
0.00028245
0.000274858
0.000267963
0.000261945
0.00025676
0.000250523
0.000240984
0.000226281
0.000201454
0.000159991
0.00010785
0.000102016
0.000190419
0.000263263
0.000312012
0.000343158
0.000365258
0.000381723
0.000393053
0.000399543
0.000402123
0.000402318
0.000400525
0.000396821
0.000391346
0.00038425
0.000375689
0.000365836
0.000354906
0.00034323
0.000331574
0.000321224
0.000312286
0.000304068
0.000296176
0.0002885
0.000281156
0.000274361
0.000268259
0.000262806
0.000256024
0.000245827
0.000230412
0.000204703
0.000162093
0.00010871
0.000102778
0.000190422
0.000262629
0.000310844
0.000341678
0.000363637
0.000380053
0.000391394
0.000397977
0.000400782
0.000401364
0.000399956
0.000396642
0.000391565
0.000384878
0.000376739
0.000367327
0.000356872
0.000345736
0.000334738
0.000325182
0.000316893
0.000309208
0.000301756
0.000294435
0.000287344
0.000280666
0.000274503
0.000268815
0.00026152
0.000250692
0.000234578
0.000207986
0.000164221
0.000109585
0.000103513
0.000190366
0.000261908
0.000309568
0.000340076
0.000361881
0.000378242
0.000389592
0.000396281
0.000399332
0.000400312
0.000399294
0.000396369
0.000391687
0.000385404
0.000377685
0.000368714
0.00035874
0.000348157
0.000337843
0.000329065
0.000321409
0.000314242
0.000307218
0.000300243
0.000293404
0.000286847
0.000280641
0.000274758
0.000266988
0.000255558
0.000238763
0.000211292
0.000166366
0.000110473
0.000104234
0.000190268
0.000261119
0.000308202
0.000338365
0.000360002
0.000376294
0.000387653
0.000394466
0.000397793
0.000399175
0.000398546
0.000396012
0.000391727
0.00038585
0.00037855
0.000370024
0.00036054
0.000350532
0.000340936
0.000332907
0.000325857
0.000319185
0.000312572
0.00030593
0.000299333
0.0002929
0.000286668
0.000280619
0.000272415
0.000260418
0.000242961
0.000214617
0.000168527
0.00011137
0.000104942
0.00019013
0.000260261
0.000306742
0.000336542
0.000357994
0.000374201
0.00038556
0.000392515
0.000396193
0.000397938
0.000397693
0.000395558
0.000391679
0.000386215
0.000379341
0.000371268
0.00036229
0.000352882
0.000344042
0.000336729
0.000330256
0.000324054
0.00031783
0.000311506
0.000305148
0.000298856
0.000292664
0.000286416
0.000277788
0.000265249
0.000247148
0.00021794
0.000170687
0.000112272
0.000105642
0.00018996
0.000259342
0.000305199
0.000334619
0.000355869
0.00037197
0.000383306
0.000390383
0.000394402
0.000396534
0.000396704
0.000394994
0.000391541
0.000386505
0.000380068
0.000372458
0.000363999
0.000355214
0.00034716
0.000340537
0.000334615
0.000328863
0.00032301
0.000316991
0.000310868
0.000304727
0.000298601
0.000292158
0.00028312
0.000270061
0.000251333
0.00022127
0.000172859
0.000113178
0.000106328
0.000189747