/*--------------------------------*- C++ -*----------------------------------*\
| =========                 |                                                 |
| \\      /  F ield         | OpenFOAM: The Open Source CFD Toolbox           |
|  \\    /   O peration     | Version:  v1906                                 |
|   \\  /    A nd           | Web:      www.OpenFOAM.com                      |
|    \\/     M anipulation  |                                                 |
\*---------------------------------------------------------------------------*/
FoamFile
{
    version     2.0;
    format      ascii;
    class       volScalarField;
    location    "85";
    object      T;
}
// * * * * * * * * * * * * * * * * * * * * * * * * * * * * * * * * * * * * * //

dimensions      [0 0 0 1 0 0 0];


internalField   nonuniform List<scalar> 
78750
(
300.027
300.08
300.132
300.183
300.231
300.276
300.32
300.361
300.401
300.437
300.472
300.505
300.535
300.563
300.59
300.615
300.638
300.66
300.68
300.699
300.716
300.732
300.747
300.761
300.773
300.784
300.792
300.798
300.804
300.818
300.865
301.004
301.331
301.939
302.836
300.055
300.161
300.257
300.342
300.418
300.487
300.548
300.603
300.653
300.697
300.737
300.772
300.804
300.831
300.856
300.877
300.895
300.91
300.924
300.934
300.943
300.95
300.956
300.959
300.961
300.961
300.96
300.958
300.959
300.972
301.025
301.173
301.502
302.088
302.962
300.073
300.214
300.343
300.457
300.557
300.643
300.719
300.785
300.843
300.894
300.94
300.979
301.014
301.044
301.07
301.091
301.108
301.121
301.131
301.137
301.14
301.14
301.136
301.13
301.121
301.11
301.097
301.085
301.079
301.093
301.158
301.328
301.669
302.249
303.127
300.087
300.255
300.408
300.542
300.655
300.75
300.83
300.9
300.96
301.013
301.06
301.102
301.138
301.17
301.197
301.22
301.239
301.254
301.264
301.271
301.274
301.273
301.268
301.258
301.245
301.228
301.209
301.192
301.185
301.207
301.291
301.487
301.839
302.419
303.305
300.098
300.288
300.46
300.609
300.731
300.83
300.912
300.982
301.044
301.098
301.146
301.188
301.226
301.258
301.285
301.307
301.325
301.338
301.347
301.351
301.352
301.35
301.343
301.334
301.32
301.304
301.286
301.272
301.273
301.311
301.418
301.638
302.004
302.593
303.487
300.108
300.316
300.503
300.664
300.792
300.895
300.979
301.051
301.115
301.171
301.222
301.267
301.306
301.339
301.367
301.389
301.404
301.414
301.419
301.419
301.415
301.408
301.398
301.385
301.37
301.353
301.339
301.332
301.346
301.403
301.536
301.779
302.16
302.762
303.663
300.116
300.338
300.538
300.706
300.84
300.945
301.031
301.105
301.171
301.23
301.282
301.329
301.37
301.405
301.433
301.453
301.467
301.474
301.474
301.47
301.462
301.45
301.436
301.421
301.405
301.391
301.382
301.385
301.414
301.491
301.648
301.912
302.31
302.929
303.835
300.122
300.356
300.566
300.742
300.881
300.989
301.078
301.155
301.223
301.284
301.34
301.39
301.433
301.469
301.497
301.517
301.528
301.532
301.529
301.519
301.506
301.489
301.471
301.452
301.436
301.423
301.418
301.43
301.473
301.57
301.749
302.03
302.445
303.079
303.991
300.127
300.371
300.59
300.773
300.916
301.027
301.118
301.197
301.268
301.332
301.39
301.443
301.488
301.525
301.554
301.574
301.585
301.587
301.581
301.568
301.55
301.529
301.507
301.485
301.467
301.455
301.454
301.474
301.53
301.643
301.841
302.139
302.57
303.218
304.135
300.132
300.385
300.612
300.801
300.949
301.063
301.157
301.239
301.312
301.379
301.44
301.494
301.541
301.58
301.61
301.63
301.64
301.64
301.632
301.616
301.595
301.57
301.545
301.52
301.5
301.488
301.49
301.517
301.582
301.71
301.924
302.238
302.683
303.344
304.266
300.137
300.398
300.632
300.827
300.979
301.096
301.193
301.277
301.352
301.422
301.485
301.541
301.591
301.631
301.662
301.682
301.692
301.692
301.682
301.665
301.641
301.613
301.584
301.557
301.536
301.524
301.528
301.56
301.634
301.774
302.003
302.331
302.79
303.462
304.388
300.141
300.411
300.652
300.853
301.009
301.129
301.228
301.314
301.392
301.464
301.529
301.588
301.639
301.681
301.712
301.733
301.743
301.742
301.731
301.712
301.686
301.656
301.625
301.596
301.573
301.561
301.568
301.604
301.686
301.836
302.078
302.419
302.889
303.572
304.502
300.145
300.423
300.671
300.877
301.036
301.159
301.261
301.349
301.43
301.504
301.571
301.632
301.684
301.727
301.76
301.781
301.791
301.79
301.778
301.757
301.73
301.698
301.665
301.635
301.612
301.6
301.609
301.649
301.738
301.899
302.153
302.504
302.985
303.678
304.611
300.15
300.435
300.69
300.901
301.064
301.19
301.293
301.384
301.467
301.543
301.612
301.675
301.729
301.773
301.806
301.828
301.838
301.836
301.824
301.802
301.773
301.74
301.706
301.675
301.651
301.64
301.651
301.696
301.792
301.962
302.226
302.587
303.077
303.778
304.714
300.154
300.447
300.708
300.924
301.09
301.218
301.324
301.417
301.502
301.58
301.651
301.716
301.771
301.817
301.851
301.873
301.883
301.881
301.869
301.846
301.816
301.782
301.747
301.715
301.691
301.681
301.695
301.744
301.847
302.025
302.299
302.668
303.166
303.875
304.814
300.158
300.458
300.726
300.947
301.116
301.246
301.354
301.449
301.536
301.616
301.69
301.756
301.813
301.859
301.894
301.917
301.927
301.926
301.912
301.889
301.859
301.824
301.788
301.755
301.732
301.723
301.739
301.792
301.902
302.089
302.371
302.747
303.252
303.967
304.909
300.161
300.469
300.743
300.968
301.14
301.272
301.382
301.48
301.569
301.651
301.726
301.794
301.852
301.9
301.936
301.959
301.97
301.969
301.955
301.932
301.901
301.865
301.829
301.796
301.773
301.766
301.784
301.842
301.958
302.153
302.443
302.825
303.336
304.058
305.002
300.165
300.48
300.76
300.989
301.164
301.298
301.41
301.51
301.601
301.685
301.762
301.831
301.891
301.94
301.977
302.001
302.012
302.011
301.998
301.975
301.943
301.907
301.87
301.837
301.814
301.809
301.83
301.892
302.014
302.216
302.513
302.902
303.418
304.145
305.091
300.169
300.491
300.776
301.01
301.187
301.323
301.437
301.539
301.632
301.718
301.797
301.867
301.928
301.978
302.016
302.041
302.053
302.053
302.04
302.017
301.985
301.948
301.911
301.879
301.856
301.852
301.877
301.944
302.072
302.281
302.584
302.977
303.498
304.23
305.178
300.173
300.501
300.792
301.03
301.21
301.348
301.464
301.567
301.662
301.75
301.83
301.903
301.965
302.016
302.055
302.081
302.094
302.094
302.082
302.059
302.027
301.99
301.953
301.921
301.899
301.897
301.924
301.995
302.129
302.345
302.654
303.051
303.576
304.313
305.263
300.176
300.512
300.808
301.049
301.231
301.372
301.489
301.594
301.691
301.781
301.863
301.937
302.001
302.053
302.093
302.12
302.134
302.134
302.123
302.1
302.069
302.032
301.995
301.963
301.942
301.942
301.972
302.047
302.187
302.409
302.724
303.125
303.654
304.395
305.346
300.18
300.522
300.823
301.069
301.253
301.395
301.515
301.622
301.72
301.811
301.895
301.971
302.036
302.089
302.13
302.158
302.173
302.174
302.163
302.142
302.111
302.075
302.038
302.006
301.986
301.987
302.02
302.1
302.245
302.473
302.793
303.197
303.73
304.474
305.427
300.183
300.532
300.838
301.087
301.274
301.418
301.539
301.648
301.748
301.841
301.927
302.004
302.07
302.124
302.166
302.195
302.211
302.214
302.204
302.183
302.153
302.117
302.081
302.049
302.03
302.033
302.069
302.153
302.303
302.537
302.862
303.269
303.805
304.553
305.507
300.187
300.541
300.854
301.106
301.295
301.441
301.564
301.674
301.776
301.871
301.958
302.036
302.104
302.159
302.202
302.232
302.249
302.252
302.244
302.224
302.195
302.16
302.124
302.093
302.075
302.08
302.118
302.206
302.362
302.601
302.93
303.341
303.879
304.63
305.585
300.19
300.551
300.868
301.124
301.316
301.463
301.588
301.7
301.804
301.9
301.989
302.068
302.137
302.194
302.238
302.268
302.286
302.291
302.283
302.265
302.236
302.202
302.167
302.137
302.121
302.127
302.168
302.261
302.421
302.665
302.999
303.412
303.952
304.706
305.662
300.194
300.561
300.883
301.143
301.336
301.485
301.612
301.726
301.831
301.929
302.019
302.1
302.17
302.227
302.272
302.304
302.323
302.329
302.323
302.305
302.278
302.245
302.211
302.182
302.166
302.174
302.219
302.315
302.48
302.73
303.067
303.482
304.024
304.781
305.737
300.197
300.57
300.898
301.161
301.356
301.507
301.635
301.751
301.858
301.958
302.049
302.131
302.202
302.261
302.307
302.34
302.359
302.366
302.361
302.345
302.32
302.288
302.254
302.227
302.212
302.223
302.27
302.37
302.54
302.794
303.135
303.552
304.096
304.854
305.811
300.2
300.58
300.912
301.179
301.376
301.529
301.659
301.776
301.885
301.986
302.079
302.162
302.234
302.294
302.341
302.375
302.395
302.404
302.4
302.385
302.361
302.33
302.298
302.272
302.259
302.271
302.321
302.425
302.6
302.858
303.202
303.62
304.166
304.925
305.882
300.204
300.589
300.927
301.196
301.396
301.551
301.682
301.801
301.912
302.015
302.109
302.194
302.267
302.327
302.375
302.409
302.431
302.44
302.438
302.424
302.402
302.373
302.342
302.317
302.306
302.32
302.373
302.481
302.66
302.923
303.269
303.688
304.235
304.995
305.952
300.207
300.599
300.941
301.214
301.416
301.572
301.706
301.826
301.939
302.043
302.139
302.224
302.298
302.36
302.408
302.444
302.466
302.477
302.475
302.464
302.443
302.415
302.386
302.362
302.352
302.369
302.424
302.536
302.719
302.986
303.335
303.755
304.303
305.063
306.02
300.21
300.608
300.955
301.232
301.435
301.594
301.729
301.851
301.965
302.071
302.168
302.255
302.33
302.392
302.442
302.478
302.501
302.513
302.513
302.502
302.483
302.457
302.43
302.407
302.399
302.418
302.476
302.591
302.778
303.049
303.4
303.821
304.369
305.129
306.085
300.214
300.617
300.97
301.249
301.455
301.615
301.752
301.876
301.992
302.1
302.198
302.286
302.362
302.425
302.475
302.512
302.536
302.549
302.55
302.541
302.523
302.499
302.473
302.453
302.446
302.467
302.528
302.646
302.837
303.111
303.464
303.885
304.433
305.194
306.149
300.217
300.627
300.984
301.267
301.475
301.636
301.775
301.901
302.019
302.128
302.228
302.317
302.394
302.457
302.508
302.546
302.571
302.584
302.587
302.579
302.563
302.541
302.517
302.498
302.494
302.516
302.58
302.701
302.896
303.173
303.527
303.948
304.496
305.256
306.211
300.22
300.636
300.998
301.284
301.494
301.658
301.798
301.926
302.045
302.156
302.257
302.347
302.425
302.49
302.541
302.579
302.605
302.619
302.623
302.617
302.603
302.582
302.56
302.543
302.541
302.565
302.631
302.755
302.953
303.233
303.589
304.01
304.557
305.317
306.271
300.224
300.646
301.013
301.302
301.514
301.679
301.821
301.951
302.072
302.184
302.287
302.378
302.457
302.522
302.574
302.613
302.639
302.655
302.659
302.655
302.642
302.624
302.604
302.588
302.588
302.614
302.682
302.81
303.01
303.293
303.649
304.07
304.617
305.376
306.329
300.227
300.655
301.027
301.319
301.533
301.7
301.845
301.976
302.099
302.213
302.317
302.409
302.489
302.555
302.607
302.646
302.674
302.69
302.695
302.692
302.681
302.664
302.646
302.633
302.634
302.663
302.734
302.863
303.067
303.352
303.709
304.129
304.675
305.434
306.386
300.23
300.664
301.041
301.337
301.553
301.722
301.868
302.001
302.126
302.241
302.347
302.44
302.521
302.587
302.64
302.68
302.708
302.724
302.731
302.729
302.72
302.705
302.689
302.678
302.681
302.712
302.785
302.917
303.123
303.41
303.767
304.187
304.732
305.491
306.442
300.234
300.674
301.056
301.354
301.573
301.743
301.891
302.027
302.153
302.27
302.377
302.471
302.552
302.62
302.673
302.713
302.742
302.759
302.767
302.766
302.758
302.745
302.731
302.722
302.728
302.76
302.836
302.97
303.179
303.467
303.825
304.243
304.788
305.546
306.497
300.237
300.683
301.07
301.372
301.592
301.764
301.914
302.052
302.18
302.299
302.407
302.502
302.584
302.652
302.706
302.747
302.776
302.794
302.802
302.803
302.796
302.785
302.773
302.767
302.774
302.809
302.886
303.023
303.234
303.524
303.882
304.299
304.843
305.6
306.55
300.24
300.693
301.085
301.389
301.612
301.786
301.938
302.077
302.207
302.328
302.437
302.534
302.616
302.685
302.739
302.78
302.81
302.828
302.838
302.839
302.834
302.825
302.815
302.81
302.82
302.857
302.937
303.076
303.288
303.58
303.938
304.354
304.897
305.654
306.603
300.244
300.702
301.099
301.407
301.631
301.807
301.961
302.102
302.234
302.357
302.467
302.565
302.648
302.717
302.772
302.814
302.843
302.863
302.873
302.876
302.872
302.865
302.857
302.854
302.866
302.905
302.987
303.128
303.342
303.635
303.993
304.408
304.95
305.706
306.655
300.247
300.712
301.113
301.424
301.651
301.829
301.985
302.128
302.262
302.386
302.498
302.596
302.681
302.75
302.805
302.847
302.877
302.897
302.908
302.912
302.91
302.904
302.898
302.898
302.912
302.953
303.037
303.18
303.396
303.69
304.047
304.462
305.003
305.758
306.706
300.25
300.721
301.128
301.442
301.67
301.85
302.008
302.154
302.289
302.415
302.528
302.628
302.713
302.783
302.838
302.88
302.911
302.932
302.943
302.948
302.947
302.943
302.939
302.941
302.957
303.001
303.087
303.232
303.449
303.744
304.101
304.515
305.054
305.809
306.756
300.254
300.731
301.142
301.46
301.69
301.872
302.032
302.179
302.317
302.444
302.559
302.66
302.745
302.816
302.871
302.914
302.945
302.966
302.978
302.984
302.985
302.982
302.98
302.983
303.002
303.048
303.136
303.283
303.502
303.798
304.155
304.567
305.105
305.859
306.806
300.257
300.74
301.157
301.477
301.71
301.894
302.056
302.205
302.345
302.474
302.59
302.692
302.778
302.848
302.905
302.947
302.979
303
303.013
303.02
303.022
303.02
303.02
303.026
303.047
303.095
303.185
303.334
303.555
303.851
304.207
304.618
305.155
305.908
306.855
300.26
300.75
301.171
301.495
301.73
301.916
302.08
302.232
302.373
302.504
302.622
302.724
302.811
302.882
302.938
302.981
303.013
303.035
303.048
303.056
303.059
303.059
303.06
303.068
303.091
303.141
303.234
303.384
303.606
303.903
304.259
304.669
305.205
305.957
306.903
300.264
300.759
301.186
301.513
301.75
301.937
302.104
302.258
302.402
302.534
302.653
302.756
302.844
302.915
302.971
303.015
303.046
303.069
303.083
303.092
303.095
303.097
303.1
303.11
303.135
303.188
303.282
303.434
303.658
303.955
304.311
304.719
305.254
306.005
306.951
300.267
300.769
301.2
301.53
301.769
301.959
302.128
302.284
302.43
302.565
302.685
302.789
302.877
302.948
303.005
303.048
303.08
303.103
303.118
303.127
303.132
303.135
303.14
303.152
303.179
303.234
303.33
303.484
303.709
304.007
304.362
304.769
305.302
306.053
306.999
300.271
300.779
301.215
301.548
301.789
301.982
302.152
302.311
302.459
302.595
302.717
302.822
302.91
302.981
303.038
303.082
303.114
303.137
303.153
303.163
303.169
303.174
303.18
303.194
303.223
303.279
303.378
303.533
303.759
304.058
304.412
304.818
305.35
306.1
307.046
300.274
300.788
301.23
301.566
301.81
302.004
302.177
302.338
302.488
302.626
302.749
302.854
302.943
303.015
303.072
303.115
303.148
303.172
303.188
303.199
303.206
303.212
303.22
303.235
303.267
303.325
303.425
303.583
303.81
304.108
304.462
304.866
305.397
306.147
307.093
300.277
300.798
301.244
301.584
301.83
302.026
302.202
302.365
302.518
302.657
302.781
302.888
302.976
303.048
303.105
303.149
303.182
303.206
303.223
303.234
303.242
303.249
303.259
303.277
303.31
303.371
303.473
303.632
303.86
304.159
304.511
304.915
305.445
306.194
307.139
300.281
300.808
301.259
301.602
301.85
302.049
302.227
302.393
302.547
302.689
302.814
302.921
303.01
303.082
303.139
303.183
303.216
303.24
303.257
303.27
303.279
303.287
303.299
303.318
303.354
303.416
303.52
303.681
303.91
304.209
304.561
304.963
305.492
306.241
307.187
300.284
300.817
301.274
301.62
301.87
302.072
302.252
302.421
302.578
302.72
302.847
302.954
303.044
303.116
303.173
303.217
303.25
303.274
303.292
303.305
303.315
303.325
303.338
303.36
303.397
303.462
303.568
303.73
303.96
304.259
304.61
305.011
305.539
306.288
307.234
300.288
300.827
301.289
301.638
301.891
302.095
302.278
302.449
302.608
302.753
302.88
302.988
303.078
303.15
303.207
303.251
303.284
303.308
303.327
303.341
303.352
303.363
303.378
303.401
303.441
303.508
303.616
303.779
304.011
304.31
304.66
305.059
305.586
306.335
307.281
300.291
300.837
301.304
301.657
301.912
302.118
302.304
302.477
302.639
302.785
302.914
303.022
303.112
303.184
303.241
303.284
303.318
303.343
303.362
303.376
303.388
303.401
303.417
303.442
303.484
303.553
303.663
303.829
304.061
304.36
304.709
305.107
305.633
306.382
307.329
300.295
300.847
301.319
301.675
301.933
302.141
302.33
302.506
302.67
302.818
302.948
303.057
303.146
303.218
303.275
303.318
303.352
303.377
303.396
303.411
303.425
303.438
303.456
303.484
303.528
303.599
303.712
303.879
304.112
304.411
304.759
305.156
305.681
306.43
307.377
300.298
300.857
301.335
301.694
301.954
302.165
302.356
302.536
302.702
302.852
302.982
303.091
303.181
303.253
303.309
303.352
303.386
303.411
303.431
303.447
303.461
303.476
303.496
303.525
303.571
303.645
303.76
303.929
304.163
304.463
304.809
305.204
305.729
306.478
307.426
300.302
300.868
301.35
301.713
301.975
302.189
302.383
302.565
302.734
302.885
303.017
303.126
303.216
303.287
303.343
303.386
303.42
303.445
303.466
303.482
303.497
303.514
303.535
303.566
303.615
303.692
303.808
303.98
304.215
304.514
304.859
305.253
305.777
306.526
307.475
300.305
300.878
301.366
301.732
301.997
302.213
302.41
302.595
302.767
302.92
303.052
303.162
303.251
303.322
303.378
303.421
303.454
303.48
303.5
303.517
303.534
303.551
303.574
303.608
303.659
303.738
303.857
304.03
304.267
304.566
304.91
305.302
305.825
306.575
307.524
300.309
300.888
301.382
301.751
302.019
302.238
302.438
302.626
302.799
302.954
303.087
303.197
303.286
303.357
303.412
303.455
303.488
303.514
303.535
303.553
303.57
303.589
303.614
303.649
303.703
303.784
303.906
304.081
304.319
304.618
304.961
305.352
305.874
306.624
307.573
300.313
300.899
301.398
301.77
302.04
302.262
302.466
302.657
302.833
302.989
303.122
303.233
303.321
303.392
303.447
303.489
303.522
303.548
303.57
303.588
303.606
303.627
303.653
303.69
303.746
303.831
303.955
304.132
304.372
304.671
305.012
305.402
305.923
306.673
307.623
300.316
300.909
301.413
301.789
302.062
302.287
302.494
302.688
302.866
303.024
303.158
303.268
303.357
303.427
303.481
303.523
303.556
303.582
303.604
303.623
303.643
303.664
303.692
303.732
303.79
303.877
304.004
304.184
304.424
304.723
305.063
305.452
305.973
306.722
307.673
300.32
300.92
301.429
301.809
302.084
302.312
302.522
302.719
302.9
303.059
303.194
303.304
303.392
303.462
303.516
303.558
303.59
303.617
303.639
303.659
303.679
303.702
303.732
303.773
303.834
303.924
304.053
304.235
304.477
304.776
305.115
305.502
306.022
306.772
307.723
300.324
300.93
301.445
301.828
302.106
302.337
302.55
302.751
302.934
303.094
303.23
303.34
303.428
303.497
303.55
303.592
303.625
303.651
303.673
303.694
303.715
303.739
303.771
303.815
303.878
303.97
304.103
304.287
304.53
304.829
305.166
305.552
306.072
306.822
307.773
300.328
300.941
301.461
301.847
302.129
302.363
302.579
302.783
302.968
303.13
303.266
303.376
303.463
303.532
303.585
303.626
303.659
303.685
303.708
303.729
303.751
303.777
303.81
303.856
303.922
304.017
304.152
304.339
304.583
304.882
305.218
305.603
306.122
306.871
307.823
300.331
300.952
301.477
301.867
302.151
302.388
302.609
302.815
303.003
303.166
303.302
303.412
303.499
303.567
303.619
303.66
303.693
303.719
303.742
303.764
303.787
303.814
303.849
303.897
303.965
304.063
304.201
304.39
304.636
304.935
305.269
305.653
306.172
306.921
307.873
300.335
300.962
301.494
301.887
302.174
302.415
302.638
302.849
303.039
303.203
303.339
303.449
303.535
303.602
303.654
303.694
303.727
303.753
303.777
303.799
303.823
303.852
303.888
303.938
304.009
304.11
304.251
304.442
304.689
304.987
305.321
305.703
306.221
306.971
307.923
300.339
300.973
301.51
301.907
302.197
302.441
302.669
302.882
303.075
303.24
303.376
303.485
303.571
303.637
303.689
303.729
303.761
303.788
303.811
303.834
303.859
303.889
303.927
303.979
304.053
304.156
304.3
304.494
304.742
305.04
305.372
305.753
306.271
307.02
307.972
300.343
300.984
301.527
301.927
302.221
302.469
302.7
302.917
303.112
303.278
303.414
303.523
303.607
303.673
303.723
303.763
303.795
303.822
303.846
303.87
303.895
303.926
303.966
304.02
304.096
304.202
304.349
304.545
304.795
305.092
305.423
305.803
306.32
307.069
308.021
300.347
300.995
301.544
301.948
302.245
302.496
302.732
302.952
303.149
303.316
303.452
303.56
303.644
303.708
303.758
303.798
303.829
303.856
303.88
303.905
303.931
303.963
304.005
304.061
304.14
304.249
304.398
304.596
304.847
305.145
305.474
305.853
306.37
307.118
308.069
300.35
301.007
301.561
301.969
302.269
302.525
302.764
302.988
303.187
303.355
303.491
303.598
303.681
303.744
303.793
303.832
303.863
303.89
303.915
303.94
303.967
304.001
304.044
304.102
304.183
304.294
304.446
304.647
304.899
305.196
305.524
305.902
306.418
307.166
308.117
300.354
301.018
301.579
301.991
302.294
302.553
302.797
303.024
303.225
303.394
303.529
303.636
303.718
303.78
303.829
303.867
303.898
303.924
303.949
303.975
304.003
304.038
304.083
304.143
304.226
304.34
304.495
304.697
304.951
305.247
305.574
305.951
306.466
307.214
308.165
300.359
301.03
301.597
302.013
302.319
302.582
302.831
303.061
303.264
303.433
303.568
303.674
303.755
303.816
303.864
303.901
303.932
303.959
303.984
304.01
304.039
304.075
304.121
304.184
304.269
304.386
304.543
304.748
305.002
305.298
305.623
305.999
306.514
307.261
308.212
300.363
301.041
301.615
302.035
302.345
302.612
302.865
303.098
303.303
303.472
303.607
303.712
303.792
303.853
303.899
303.936
303.967
303.993
304.018
304.045
304.075
304.112
304.16
304.224
304.312
304.431
304.591
304.797
305.053
305.348
305.672
306.047
306.561
307.308
308.258
300.367
301.053
301.633
302.057
302.371
302.643
302.899
303.136
303.342
303.512
303.646
303.75
303.829
303.889
303.935
303.971
304.001
304.028
304.053
304.08
304.111
304.149
304.198
304.265
304.355
304.476
304.638
304.847
305.103
305.397
305.72
306.094
306.608
307.354
308.304
300.371
301.066
301.652
302.08
302.398
302.674
302.935
303.175
303.383
303.552
303.686
303.788
303.866
303.925
303.97
304.006
304.036
304.062
304.088
304.115
304.146
304.186
304.237
304.305
304.397
304.521
304.686
304.896
305.152
305.447
305.768
306.14
306.654
307.4
308.349
300.375
301.078
301.671
302.104
302.426
302.707
302.973
303.216
303.424
303.594
303.726
303.827
303.904
303.961
304.006
304.041
304.07
304.096
304.122
304.15
304.182
304.222
304.275
304.345
304.439
304.566
304.732
304.944
305.201
305.495
305.814
306.186
306.699
307.444
308.393
300.38
301.091
301.691
302.129
302.456
302.742
303.012
303.258
303.467
303.636
303.767
303.867
303.942
303.998
304.041
304.076
304.105
304.131
304.157
304.185
304.218
304.259
304.313
304.385
304.482
304.61
304.779
304.992
305.25
305.542
305.861
306.231
306.744
307.488
308.436
300.384
301.104
301.712
302.155
302.486
302.777
303.053
303.302
303.512
303.68
303.81
303.907
303.98
304.035
304.078
304.111
304.14
304.166
304.192
304.22
304.254
304.296
304.351
304.425
304.523
304.654
304.825
305.04
305.298
305.589
305.906
306.276
306.788
307.531
308.479
300.389
301.118
301.734
302.182
302.518
302.815
303.095
303.347
303.558
303.725
303.853
303.948
304.02
304.073
304.114
304.147
304.175
304.2
304.226
304.255
304.289
304.333
304.389
304.464
304.565
304.698
304.871
305.087
305.345
305.636
305.951
306.32
306.831
307.574
308.521
300.394
301.133
301.756
302.21
302.551
302.853
303.139
303.394
303.605
303.771
303.897
303.99
304.06
304.111
304.151
304.183
304.21
304.236
304.262
304.29
304.325
304.369
304.427
304.504
304.606
304.741
304.916
305.133
305.391
305.681
305.995
306.363
306.874
307.615
308.561
300.4
301.148
301.779
302.238
302.585
302.893
303.185
303.442
303.654
303.818
303.942
304.033
304.1
304.15
304.188
304.219
304.246
304.271
304.297
304.326
304.361
304.406
304.465
304.543
304.648
304.784
304.96
305.179
305.437
305.726
306.039
306.405
306.916
307.657
308.602
300.405
301.164
301.803
302.268
302.62
302.935
303.231
303.492
303.703
303.866
303.988
304.076
304.141
304.189
304.226
304.256
304.282
304.306
304.332
304.362
304.397
304.443
304.503
304.583
304.688
304.827
305.004
305.224
305.482
305.77
306.081
306.447
306.956
307.697
308.641
300.41
301.18
301.828
302.298
302.656
302.978
303.28
303.543
303.754
303.915
304.034
304.12
304.183
304.229
304.264
304.293
304.318
304.342
304.368
304.397
304.434
304.48
304.541
304.622
304.729
304.87
305.048
305.269
305.527
305.813
306.123
306.488
306.997
307.736
308.68
300.416
301.196
301.853
302.33
302.694
303.023
303.33
303.595
303.806
303.965
304.081
304.164
304.225
304.269
304.303
304.33
304.355
304.379
304.404
304.433
304.47
304.517
304.579
304.661
304.77
304.912
305.092
305.312
305.57
305.855
306.164
306.527
307.036
307.775
308.718
300.422
301.214
301.88
302.363
302.734
303.07
303.382
303.649
303.86
304.016
304.129
304.21
304.267
304.309
304.342
304.368
304.392
304.415
304.44
304.47
304.507
304.554
304.617
304.701
304.811
304.954
305.135
305.356
305.614
305.898
306.205
306.567
307.075
307.813
308.755
300.428
301.231
301.907
302.397
302.774
303.118
303.436
303.705
303.914
304.068
304.178
304.255
304.31
304.35
304.381
304.406
304.429
304.452
304.477
304.507
304.544
304.592
304.655
304.74
304.851
304.995
305.178
305.399
305.656
305.938
306.244
306.606
307.113
307.85
308.792
300.435
301.25
301.936
302.432
302.816
303.168
303.491
303.762
303.97
304.121
304.228
304.302
304.354
304.392
304.421
304.445
304.467
304.489
304.514
304.544
304.581
304.63
304.694
304.78
304.892
305.038
305.221
305.442
305.698
305.98
306.284
306.645
307.152
307.888
308.829
300.441
301.269
301.964
302.468
302.859
303.218
303.547
303.819
304.026
304.174
304.278
304.349
304.399
304.434
304.462
304.484
304.505
304.527
304.551
304.581
304.619
304.668
304.733
304.819
304.933
305.079
305.263
305.484
305.74
306.019
306.322
306.682
307.188
307.924
308.865
300.448
301.288
301.994
302.504
302.902
303.269
303.602
303.876
304.081
304.228
304.328
304.396
304.443
304.477
304.502
304.524
304.544
304.565
304.589
304.619
304.657
304.706
304.772
304.86
304.974
305.121
305.306
305.527
305.782
306.06
306.361
306.72
307.226
307.961
308.901
300.455
301.307
302.023
302.541
302.947
303.321
303.659
303.934
304.138
304.281
304.378
304.444
304.488
304.52
304.544
304.564
304.583
304.604
304.627
304.657
304.695
304.745
304.811
304.899
305.015
305.163
305.347
305.569
305.822
306.099
306.399
306.757
307.262
307.996
308.936
300.462
301.327
302.054
302.58
302.993
303.375
303.718
303.993
304.195
304.335
304.429
304.492
304.533
304.563
304.585
304.605
304.623
304.643
304.666
304.696
304.734
304.784
304.851
304.94
305.057
305.205
305.39
305.611
305.863
306.139
306.437
306.795
307.299
308.033
308.973
300.469
301.348
302.085
302.62
303.042
303.432
303.779
304.054
304.254
304.39
304.481
304.54
304.579
304.606
304.627
304.645
304.663
304.682
304.705
304.735
304.773
304.824
304.891
304.981
305.098
305.247
305.432
305.652
305.903
306.177
306.474
306.83
307.335
308.068
309.007
300.476
301.369
302.119
302.662
303.093
303.492
303.843
304.118
304.315
304.447
304.533
304.589
304.625
304.651
304.67
304.687
304.703
304.722
304.745
304.774
304.813
304.864
304.932
305.022
305.14
305.29
305.475
305.695
305.945
306.217
306.512
306.868
307.372
308.105
309.044
300.484
301.392
302.154
302.706
303.147
303.554
303.91
304.185
304.378
304.506
304.587
304.639
304.672
304.695
304.713
304.728
304.744
304.762
304.785
304.814
304.852
304.904
304.973
305.064
305.182
305.332
305.517
305.736
305.985
306.255
306.549
306.904
307.407
308.14
309.079
300.493
301.416
302.191
302.752
303.202
303.619
303.979
304.253
304.443
304.566
304.643
304.69
304.72
304.741
304.757
304.771
304.786
304.803
304.825
304.855
304.893
304.945
305.015
305.106
305.225
305.376
305.561
305.779
306.026
306.295
306.588
306.942
307.445
308.177
309.116
300.501
301.441
302.228
302.799
303.258
303.684
304.048
304.322
304.508
304.627
304.699
304.742
304.769
304.787
304.801
304.814
304.828
304.845
304.866
304.895
304.934
304.986
305.056
305.148
305.267
305.418
305.603
305.821
306.066
306.333
306.624
306.978
307.48
308.212
309.151
300.51
301.467
302.266
302.846
303.314
303.748
304.117
304.391
304.574
304.688
304.756
304.795
304.819
304.834
304.846
304.858
304.871
304.887
304.908
304.937
304.976
305.029
305.099
305.192
305.312
305.463
305.648
305.864
306.108
306.373
306.664
307.016
307.519
308.25
309.189
300.519
301.492
302.303
302.893
303.37
303.812
304.185
304.458
304.639
304.749
304.812
304.848
304.868
304.881
304.892
304.902
304.914
304.929
304.95
304.979
305.018
305.071
305.142
305.235
305.355
305.506
305.69
305.906
306.148
306.412
306.7
307.052
307.555
308.286
309.224
300.528
301.517
302.341
302.94
303.426
303.876
304.252
304.526
304.704
304.81
304.869
304.901
304.919
304.929
304.938
304.946
304.957
304.972
304.993
305.022
305.061
305.114
305.186
305.28
305.4
305.552
305.736
305.951
306.191
306.453
306.74
307.092
307.594
308.325
309.263
300.537
301.542
302.379
302.988
303.484
303.942
304.321
304.594
304.769
304.871
304.927
304.955
304.969
304.978
304.984
304.992
305.001
305.016
305.036
305.064
305.104
305.157
305.229
305.323
305.444
305.596
305.779
305.993
306.232
306.492
306.778
307.128
307.63
308.361
309.299
300.547
301.568
302.419
303.039
303.544
304.01
304.393
304.665
304.836
304.934
304.985
305.01
305.021
305.027
305.031
305.037
305.046
305.06
305.08
305.108
305.148
305.202
305.274
305.369
305.49
305.642
305.825
306.038
306.275
306.534
306.819
307.169
307.67
308.401
309.34
300.556
301.596
302.461
303.092
303.608
304.082
304.468
304.738
304.906
304.999
305.045
305.065
305.073
305.076
305.079
305.084
305.091
305.104
305.123
305.152
305.191
305.245
305.318
305.413
305.535
305.686
305.869
306.08
306.316
306.573
306.857
307.206
307.707
308.438
309.376
300.566
301.625
302.505
303.148
303.674
304.158
304.547
304.815
304.978
305.065
305.106
305.122
305.126
305.127
305.128
305.131
305.137
305.149
305.168
305.197
305.236
305.291
305.364
305.46
305.582
305.734
305.916
306.126
306.361
306.616
306.898
307.247
307.749
308.479
309.418
300.577
301.656
302.551
303.206
303.743
304.235
304.628
304.895
305.053
305.134
305.169
305.179
305.18
305.178
305.177
305.178
305.184
305.195
305.213
305.241
305.281
305.336
305.409
305.505
305.628
305.779
305.96
306.17
306.402
306.656
306.937
307.285
307.787
308.517
309.456
300.588
301.688
302.598
303.265
303.814
304.315
304.71
304.976
305.129
305.204
305.233
305.239
305.236
305.23
305.227
305.226
305.231
305.241
305.259
305.287