/*--------------------------------*- C++ -*----------------------------------*\
| =========                 |                                                 |
| \\      /  F ield         | OpenFOAM: The Open Source CFD Toolbox           |
|  \\    /   O peration     | Version:  v1906                                 |
|   \\  /    A nd           | Web:      www.OpenFOAM.com                      |
|    \\/     M anipulation  |                                                 |
\*---------------------------------------------------------------------------*/
FoamFile
{
    version     2.0;
    format      ascii;
    class       volScalarField;
    location    "0.35/oil";
    object      alphat;
}
// * * * * * * * * * * * * * * * * * * * * * * * * * * * * * * * * * * * * * //

dimensions      [1 -1 -1 0 0 0 0];


internalField   nonuniform List<scalar> 
168664
(
0.00358372
0.000375273
0.000388054
0.000113008
9.39577e-05
4.9841e-05
3.25167e-05
2.62452e-05
1.71906e-05
1.73629e-05
1.48044e-05
1.63906e-05
1.50309e-05
1.45676e-05
1.28988e-05
1.23915e-05
1.12083e-05
1.00619e-05
8.93391e-06
7.9175e-06
7.30679e-06
7.29735e-06
7.10968e-06
6.51976e-06
5.50277e-06
4.34706e-06
3.0639e-06
2.29356e-06
1.45998e-06
2.55992e-07
0.000374117
0.000433447
0.000102145
8.65599e-05
3.80453e-05
3.05633e-05
1.93171e-05
1.68675e-05
1.23129e-05
1.23845e-05
1.16651e-05
1.27059e-05
1.21881e-05
1.20952e-05
1.11054e-05
1.0864e-05
9.96677e-06
9.14869e-06
8.19506e-06
7.48793e-06
7.10167e-06
7.0354e-06
6.77591e-06
6.23798e-06
5.62921e-06
4.87245e-06
4.08703e-06
3.25516e-06
3.28907e-06
1.82032e-06
0.000385593
0.000101991
8.93819e-05
6.01056e-05
4.2219e-05
3.25173e-05
2.24769e-05
1.85867e-05
1.42426e-05
1.32231e-05
1.22876e-05
1.24824e-05
1.18044e-05
1.17737e-05
1.09029e-05
1.06002e-05
9.76608e-06
9.01143e-06
8.10427e-06
7.47751e-06
7.29634e-06
7.28695e-06
7.16741e-06
6.76524e-06
6.20616e-06
5.58158e-06
4.98423e-06
4.60854e-06
5.49265e-06
4.28835e-06
0.000115638
8.83977e-05
6.19586e-05
4.70163e-05
3.20602e-05
2.59097e-05
1.9814e-05
1.7015e-05
1.44412e-05
1.32157e-05
1.23348e-05
1.19762e-05
1.16196e-05
1.15824e-05
1.07547e-05
1.02693e-05
9.3798e-06
8.6546e-06
7.85473e-06
7.34104e-06
7.12957e-06
7.14971e-06
7.2326e-06
6.97354e-06
6.38315e-06
5.71201e-06
5.26807e-06
5.58041e-06
6.75255e-06
5.8696e-06
9.53535e-05
4.10275e-05
4.3751e-05
3.22902e-05
2.8112e-05
2.43254e-05
2.01849e-05
1.81605e-05
1.57337e-05
1.45436e-05
1.32601e-05
1.25031e-05
1.20474e-05
1.18742e-05
1.09511e-05
1.02575e-05
9.36866e-06
8.7039e-06
8.20586e-06
8.05973e-06
7.83529e-06
7.82923e-06
7.85634e-06
7.69345e-06
7.24122e-06
6.68504e-06
6.43339e-06
7.01734e-06
8.35302e-06
7.99352e-06
5.85273e-05
3.81443e-05
3.84132e-05
2.92517e-05
2.64056e-05
2.14977e-05
1.90786e-05
1.66511e-05
1.51919e-05
1.40217e-05
1.31576e-05
1.21919e-05
1.16164e-05
1.15258e-05
1.06461e-05
9.68927e-06
8.7698e-06
8.05195e-06
7.90129e-06
8.06214e-06
7.81234e-06
7.65758e-06
7.55324e-06
7.45868e-06
7.14979e-06
6.97244e-06
6.98891e-06
7.82982e-06
9.20137e-06
9.18631e-06
4.06776e-05
2.71647e-05
2.7673e-05
2.28677e-05
2.18663e-05
1.9268e-05
1.76781e-05
1.61267e-05
1.48422e-05
1.4039e-05
1.33097e-05
1.24817e-05
1.20344e-05
1.22088e-05
1.12233e-05
9.87361e-06
8.71065e-06
7.88866e-06
7.77779e-06
7.95492e-06
7.71675e-06
7.60629e-06
7.61144e-06
7.66025e-06
7.66202e-06
7.83592e-06
8.20535e-06
9.1944e-06
1.05893e-05
1.10444e-05
3.86017e-05
2.79759e-05
2.76139e-05
2.29196e-05
2.16953e-05
1.83572e-05
1.6975e-05
1.4852e-05
1.37813e-05
1.27866e-05
1.24619e-05
1.20231e-05
1.22031e-05
1.26734e-05
1.17598e-05
1.00812e-05
8.81994e-06
7.78315e-06
7.44215e-06
7.24425e-06
6.91475e-06
6.84713e-06
7.00067e-06
7.31623e-06
7.73567e-06
8.34873e-06
9.0325e-06
1.01045e-05
1.14322e-05
1.21469e-05
2.97386e-05
2.30576e-05
2.24418e-05
1.9803e-05
1.87775e-05
1.65801e-05
1.52943e-05
1.36411e-05
1.25749e-05
1.17941e-05
1.18057e-05
1.21823e-05
1.29046e-05
1.3422e-05
1.25215e-05
1.08488e-05
9.33163e-06
7.96339e-06
7.26566e-06
6.7813e-06
6.43223e-06
6.5642e-06
6.97982e-06
7.62116e-06
8.4287e-06
9.29623e-06
1.02519e-05
1.13061e-05
1.24609e-05
1.34382e-05
3.03612e-05
2.38443e-05
2.30956e-05
2.04447e-05
1.90109e-05
1.63329e-05
1.47595e-05
1.26766e-05
1.14393e-05
1.05398e-05
1.0909e-05
1.17514e-05
1.26057e-05
1.26217e-05
1.19739e-05
1.07838e-05
9.19523e-06
7.72298e-06
6.78583e-06
6.10565e-06
5.77439e-06
6.09e-06
6.74524e-06
7.58393e-06
8.50337e-06
9.60687e-06
1.08236e-05
1.18329e-05
1.28984e-05
1.40156e-05
2.66046e-05
2.15453e-05
2.06577e-05
1.8794e-05
1.73874e-05
1.539e-05
1.39252e-05
1.20418e-05
1.08119e-05
1.02191e-05
1.08302e-05
1.17242e-05
1.19174e-05
1.10248e-05
1.02735e-05
9.55312e-06
8.36365e-06
7.27687e-06
6.4425e-06
5.86294e-06
5.78126e-06
6.39713e-06
7.30251e-06
8.30596e-06
9.28725e-06
1.05233e-05
1.18208e-05
1.26447e-05
1.35978e-05
1.48219e-05
2.72263e-05
2.21214e-05
2.10598e-05
1.92343e-05
1.79659e-05
1.62006e-05
1.47709e-05
1.25495e-05
1.08865e-05
9.8451e-06
9.98719e-06
1.02874e-05
9.54075e-06
8.07381e-06
7.36257e-06
6.86595e-06
5.98371e-06
5.73434e-06
5.52453e-06
5.27442e-06
5.62834e-06
6.64977e-06
7.84161e-06
9.13708e-06
1.02581e-05
1.14578e-05
1.25595e-05
1.31673e-05
1.4034e-05
1.53438e-05
2.49785e-05
2.09488e-05
2.0124e-05
1.89933e-05
1.79468e-05
1.65836e-05
1.52688e-05
1.31074e-05
1.12723e-05
9.50047e-06
8.83872e-06
8.25823e-06
7.01572e-06
6.0892e-06
5.55082e-06
5.16022e-06
4.49658e-06
4.07669e-06
4.46856e-06
4.57034e-06
5.37062e-06
7.16156e-06
8.68116e-06
1.00269e-05
1.11691e-05
1.23035e-05
1.32323e-05
1.38366e-05
1.47918e-05
1.64522e-05
2.40447e-05
2.02683e-05
1.95985e-05
1.87351e-05
1.77533e-05
1.64034e-05
1.51383e-05
1.33862e-05
1.18303e-05
9.23025e-06
7.09066e-06
5.10903e-06
3.87153e-06
3.3727e-06
3.25487e-06
3.24613e-06
2.55828e-06
1.95076e-06
2.31625e-06
3.43947e-06
5.10842e-06
7.51535e-06
9.31816e-06
1.06921e-05
1.1705e-05
1.27886e-05
1.37478e-05
1.44574e-05
1.55206e-05
1.75784e-05
2.26183e-05
1.92279e-05
1.85286e-05
1.77641e-05
1.68743e-05
1.57074e-05
1.45202e-05
1.30498e-05
1.17208e-05
9.13897e-06
6.45597e-06
4.13282e-06
2.70903e-06
2.51769e-06
2.91212e-06
2.63568e-06
1.93847e-06
1.57529e-06
2.2462e-06
3.71692e-06
5.602e-06
8.04782e-06
9.99831e-06
1.14917e-05
1.25146e-05
1.35576e-05
1.45224e-05
1.52642e-05
1.6276e-05
1.86331e-05
2.21609e-05
1.88345e-05
1.80583e-05
1.73003e-05
1.64738e-05
1.53662e-05
1.41679e-05
1.251e-05
1.08101e-05
8.36107e-06
6.04586e-06
3.98129e-06
2.56966e-06
2.27983e-06
3.21064e-06
2.70767e-06
1.89099e-06
2.05874e-06
2.96153e-06
4.46538e-06
6.12572e-06
8.38205e-06
1.00654e-05
1.15267e-05
1.25269e-05
1.3613e-05
1.45829e-05
1.53641e-05
1.62302e-05
1.84566e-05
2.04412e-05
1.763e-05
1.68248e-05
1.61425e-05
1.53572e-05
1.43066e-05
1.32364e-05
1.18081e-05
9.96646e-06
7.39284e-06
4.85947e-06
3.15489e-06
2.36723e-06
2.65598e-06
3.60593e-06
3.27297e-06
2.6655e-06
3.10008e-06
4.32585e-06
5.76809e-06
7.06944e-06
8.92568e-06
1.03131e-05
1.15483e-05
1.25694e-05
1.37334e-05
1.47543e-05
1.54564e-05
1.61848e-05
1.82719e-05
1.92797e-05
1.68537e-05
1.60265e-05
1.53216e-05
1.44923e-05
1.33369e-05
1.22128e-05
1.07581e-05
9.16001e-06
6.87519e-06
5.06779e-06
4.28047e-06
3.50626e-06
3.67265e-06
4.40024e-06
4.07368e-06
3.94861e-06
4.7138e-06
6.09137e-06
7.15821e-06
7.45801e-06
8.91516e-06
1.00075e-05
1.1345e-05
1.24821e-05
1.36766e-05
1.47477e-05
1.56228e-05
1.65173e-05
1.86749e-05
1.80822e-05
1.60968e-05
1.52134e-05
1.44117e-05
1.34766e-05
1.22875e-05
1.11236e-05
9.69404e-06
8.31313e-06
6.98332e-06
6.16841e-06
5.9307e-06
5.46893e-06
5.32713e-06
5.74076e-06
5.28756e-06
5.38181e-06
6.23415e-06
7.04703e-06
7.35718e-06
7.32138e-06
7.96884e-06
8.83943e-06
1.01996e-05
1.12876e-05
1.23005e-05
1.33694e-05
1.465e-05
1.59603e-05
1.82546e-05
1.70381e-05
1.51512e-05
1.41539e-05
1.31172e-05
1.20287e-05
1.07995e-05
9.78824e-06
8.63153e-06
7.60211e-06
6.73953e-06
6.56529e-06
6.72001e-06
6.94542e-06
7.37014e-06
7.97183e-06
7.73471e-06
7.86843e-06
8.16414e-06
7.79899e-06
7.32086e-06
6.83204e-06
7.14205e-06
7.78144e-06
8.95418e-06
9.94101e-06
1.09615e-05
1.2059e-05
1.34322e-05
1.4781e-05
1.68623e-05
1.56336e-05
1.39953e-05
1.31333e-05
1.19999e-05
1.0886e-05
9.85723e-06
8.9918e-06
8.03468e-06
7.16455e-06
6.62469e-06
6.61641e-06
6.77711e-06
7.20036e-06
8.17999e-06
9.43833e-06
9.90601e-06
1.00387e-05
9.35185e-06
8.3523e-06
7.42077e-06
6.64772e-06
6.73444e-06
7.27742e-06
8.33246e-06
9.18723e-06
1.02064e-05
1.12149e-05
1.24501e-05
1.36238e-05
1.50408e-05
1.45923e-05
1.33333e-05
1.25876e-05
1.1413e-05
1.03498e-05
9.476e-06
8.76864e-06
8.03936e-06
7.39519e-06
7.04645e-06
6.75855e-06
6.43726e-06
6.75824e-06
7.92153e-06
9.39784e-06
1.04885e-05
1.05703e-05
9.21499e-06
7.99994e-06
7.42061e-06
6.95202e-06
7.0806e-06
7.40569e-06
8.13425e-06
8.69797e-06
9.52047e-06
1.03206e-05
1.15039e-05
1.26974e-05
1.37471e-05
1.31489e-05
1.22658e-05
1.13288e-05
1.0202e-05
9.45358e-06
8.80002e-06
8.3314e-06
7.91058e-06
7.57737e-06
7.48233e-06
7.0764e-06
6.40607e-06
6.37274e-06
7.4009e-06
8.69733e-06
9.76362e-06
9.74633e-06
8.5523e-06
7.75316e-06
7.70972e-06
7.50967e-06
7.46317e-06
7.45581e-06
7.80269e-06
8.03041e-06
8.6044e-06
9.21893e-06
1.03649e-05
1.15652e-05
1.21924e-05
1.1862e-05
1.11915e-05
1.00336e-05
9.10635e-06
8.65931e-06
8.31514e-06
8.17091e-06
8.08603e-06
7.97538e-06
7.88968e-06
7.31731e-06
6.62706e-06
6.34701e-06
6.95205e-06
7.90763e-06
8.6826e-06
8.76251e-06
8.11986e-06
7.70782e-06
7.93195e-06
7.95187e-06
7.96735e-06
7.80689e-06
7.87413e-06
7.81213e-06
8.02463e-06
8.33111e-06
9.40357e-06
1.06258e-05
1.1015e-05
9.78238e-06
9.60594e-06
8.46089e-06
7.82244e-06
7.61409e-06
7.49042e-06
7.62838e-06
7.83152e-06
8.0081e-06
7.92419e-06
7.23814e-06
6.69151e-06
6.73822e-06
7.08563e-06
7.60416e-06
7.93197e-06
8.28376e-06
8.11673e-06
7.68437e-06
7.58591e-06
7.7612e-06
7.9335e-06
7.76874e-06
7.73468e-06
7.45759e-06
7.33467e-06
7.24006e-06
8.20669e-06
9.43937e-06
9.41987e-06
8.29089e-06
8.38712e-06
7.20049e-06
6.79359e-06
6.96614e-06
7.19231e-06
7.45231e-06
7.82014e-06
8.13509e-06
8.20026e-06
7.56236e-06
7.12096e-06
7.37444e-06
7.66587e-06
7.75103e-06
7.68624e-06
8.17724e-06
8.3371e-06
7.81149e-06
7.40678e-06
7.42486e-06
7.72068e-06
7.71989e-06
7.69657e-06
7.32102e-06
6.81892e-06
6.47443e-06
7.26025e-06
8.53176e-06
8.24804e-06
6.22577e-06
6.79892e-06
5.50154e-06
5.31192e-06
5.84688e-06
6.23692e-06
6.65965e-06
7.15374e-06
7.55848e-06
7.84083e-06
7.44061e-06
7.34625e-06
7.72087e-06
7.90352e-06
7.66411e-06
7.33544e-06
7.81806e-06
8.02778e-06
7.74443e-06
7.23525e-06
6.89986e-06
6.87031e-06
6.80191e-06
6.76295e-06
6.38935e-06
5.91376e-06
5.43758e-06
5.94543e-06
7.09138e-06
6.33833e-06
4.54227e-06
5.56195e-06
4.38219e-06
4.78841e-06
5.33545e-06
5.86102e-06
6.44505e-06
7.02921e-06
7.51433e-06
7.85445e-06
7.66327e-06
7.81959e-06
8.17555e-06
8.20853e-06
7.92291e-06
7.52385e-06
7.73913e-06
7.94657e-06
7.91863e-06
7.60941e-06
7.02279e-06
6.71474e-06
6.44313e-06
6.3913e-06
6.13986e-06
5.78828e-06
5.17875e-06
4.84117e-06
5.76889e-06
4.70778e-06
2.14278e-06
3.62002e-06
3.3615e-06
4.09044e-06
4.70533e-06
5.45799e-06
6.15888e-06
6.91841e-06
7.58779e-06
8.1612e-06
8.28071e-06
8.41964e-06
8.59817e-06
8.66131e-06
8.65997e-06
8.29761e-06
8.32765e-06
8.42568e-06
8.38521e-06
7.93378e-06
7.15329e-06
6.65839e-06
6.24754e-06
6.05068e-06
5.62164e-06
4.99307e-06
4.19895e-06
3.27587e-06
3.45938e-06
2.12377e-06
9.71943e-07
2.10959e-06
3.09141e-06
3.84915e-06
4.84188e-06
5.73671e-06
6.61622e-06
7.54902e-06
8.46559e-06
9.10084e-06
9.37466e-06
9.51934e-06
9.51887e-06
9.74742e-06
9.65233e-06
9.19474e-06
9.29652e-06
9.55805e-06
9.52274e-06
8.74977e-06
7.68888e-06
7.03704e-06
6.4175e-06
6.041e-06
5.22076e-06
4.21607e-06
2.89371e-06
1.95236e-06
1.22866e-06
3.27502e-07
0.000373313
0.00044322
0.000104077
8.86869e-05
3.8169e-05
3.10734e-05
1.92687e-05
1.72717e-05
1.18378e-05
1.20875e-05
1.03601e-05
1.17787e-05
1.10924e-05
1.17399e-05
1.08205e-05
1.0756e-05
9.87758e-06
8.81902e-06
8.26865e-06
7.3315e-06
6.84446e-06
6.4499e-06
6.36402e-06
5.97353e-06
5.54852e-06
4.72768e-06
3.89906e-06
3.0052e-06
2.41622e-06
1.39502e-06
0.000440132
9.12057e-05
7.19459e-05
3.48264e-05
1.71367e-05
1.39056e-05
8.85055e-06
6.98647e-06
5.39866e-06
5.08514e-06
4.84e-06
4.04678e-06
3.03832e-06
3.2709e-06
3.43018e-06
3.45655e-06
3.34382e-06
3.2638e-06
2.94526e-06
2.5508e-06
2.62447e-06
3.12261e-06
3.69426e-06
4.04234e-06
4.00971e-06
3.58174e-06
3.17176e-06
2.72709e-06
3.94918e-06
3.34044e-06
0.000101807
7.30258e-05
3.77181e-05
3.41981e-05
1.7309e-05
1.61515e-05
1.03421e-05
8.3337e-06
6.26764e-06
6.13006e-06
6.19612e-06
6.08124e-06
4.40089e-06
3.44513e-06
3.07696e-06
2.87105e-06
2.49118e-06
2.01786e-06
1.87205e-06
2.26742e-06
2.77979e-06
3.96764e-06
4.86507e-06
4.95834e-06
5.01368e-06
4.77439e-06
3.97478e-06
3.62564e-06
4.4734e-06
5.56509e-06
8.86024e-05
3.27494e-05
3.23477e-05
2.07494e-05
1.15261e-05
1.10863e-05
6.33321e-06
6.50959e-06
5.29645e-06
5.6139e-06
5.57842e-06
5.86697e-06
4.23511e-06
3.30904e-06
2.81237e-06
2.72982e-06
2.92391e-06
2.18281e-06
2.33955e-06
3.20429e-06
4.14551e-06
4.75756e-06
4.56367e-06
4.39135e-06
4.91146e-06
4.94726e-06
4.32071e-06
4.20224e-06
4.16874e-06
6.83906e-06
4.05837e-05
1.56763e-05
1.48949e-05
1.20643e-05
7.30243e-06
8.11963e-06
5.08653e-06
5.32876e-06
4.19752e-06
4.16919e-06
3.74042e-06
4.00862e-06
2.73258e-06
2.95328e-06
2.84971e-06
2.90237e-06
3.10838e-06
2.25504e-06
2.57873e-06
3.62476e-06
4.2012e-06
3.49523e-06
2.53855e-06
2.50537e-06
3.2546e-06
3.76633e-06
4.06466e-06
4.39968e-06
3.95486e-06
8.49808e-06
3.75871e-05
1.13837e-05
1.40376e-05
1.12639e-05
7.644e-06
7.39582e-06
4.30239e-06
4.36229e-06
2.86733e-06
3.0796e-06
2.94375e-06
3.22001e-06
2.5563e-06
2.9746e-06
3.03294e-06
3.13184e-06
3.28131e-06
2.67537e-06
3.14443e-06
3.47373e-06
3.22736e-06
2.07073e-06
1.33241e-06
1.41152e-06
1.91963e-06
2.70039e-06
3.59969e-06
4.23567e-06
3.65885e-06
9.34313e-06
2.71447e-05
6.76199e-06
8.25049e-06
6.28539e-06
4.9162e-06
4.9703e-06
3.45073e-06
3.63218e-06
2.65303e-06
2.9105e-06
2.83787e-06
3.26248e-06
2.66268e-06
3.22431e-06
3.51449e-06
3.39178e-06
3.45493e-06
3.22438e-06
3.79136e-06
3.18809e-06
2.58761e-06
1.77511e-06
1.49419e-06
1.29028e-06
1.62704e-06
2.64857e-06
3.62007e-06
4.15043e-06
3.68434e-06
1.0687e-05
2.78981e-05
4.33677e-06
7.0476e-06
6.76403e-06
5.51395e-06
5.36246e-06
4.00854e-06
3.97086e-06
2.9789e-06
3.04245e-06
2.85557e-06
2.96426e-06
2.12357e-06
2.8453e-06
3.40019e-06
3.06459e-06
2.95569e-06
3.12772e-06
3.56413e-06
2.83313e-06
2.14593e-06
1.66682e-06
1.46741e-06
1.32197e-06
1.81617e-06
2.84608e-06
3.58442e-06
3.96758e-06
3.58804e-06
1.14823e-05
2.31684e-05
3.71389e-06
4.65406e-06
4.36039e-06
4.1256e-06
4.16874e-06
3.53581e-06
3.64394e-06
3.15519e-06
3.23425e-06
2.93081e-06
2.3351e-06
1.33291e-06
3.51989e-06
4.4143e-06
3.7636e-06
2.82304e-06
2.39775e-06
3.06648e-06
2.64658e-06
2.22244e-06
1.84102e-06
1.7135e-06
1.78436e-06
2.32167e-06
3.04093e-06
3.40839e-06
3.53938e-06
3.35559e-06
1.25545e-05
2.37455e-05
2.52779e-06
3.61654e-06
3.81935e-06
3.90063e-06
4.16615e-06
3.71565e-06
3.80636e-06
3.52827e-06
3.37539e-06
2.90525e-06
1.92072e-06
2.50402e-06
4.94627e-06
5.77675e-06
4.98571e-06
3.61409e-06
1.76287e-06
2.13839e-06
2.36995e-06
2.08416e-06
1.98159e-06
1.94317e-06
2.1449e-06
2.41257e-06
2.75691e-06
2.80031e-06
2.71307e-06
2.84542e-06
1.31245e-05
2.16241e-05
2.58596e-06
2.61866e-06
2.41748e-06
2.44401e-06
2.90727e-06
3.07443e-06
3.57767e-06
3.68629e-06
3.51311e-06
3.14334e-06
2.99725e-06
4.52885e-06
6.44362e-06
7.1358e-06
6.76404e-06
5.77027e-06
3.07003e-06
2.12721e-06
2.26642e-06
2.45895e-06
2.58614e-06
2.62806e-06
2.71594e-06
2.76704e-06
2.76788e-06
2.51711e-06
2.28711e-06
2.50853e-06
1.36869e-05
2.21298e-05
2.32747e-06
1.87303e-06
1.75391e-06
1.78123e-06
2.36451e-06
2.82403e-06
3.49664e-06
4.0791e-06
4.08888e-06
3.59611e-06
4.05803e-06
5.16877e-06
5.78818e-06
6.05535e-06
6.00608e-06
5.2399e-06
3.71533e-06
2.50253e-06
2.33285e-06
2.81258e-06
3.06943e-06
3.00771e-06
2.92981e-06
2.85765e-06
2.77053e-06
2.37216e-06
2.25884e-06
2.29097e-06
1.40298e-05
2.0696e-05
2.46814e-06
1.78666e-06
1.55067e-06
1.43528e-06
1.62914e-06
2.01457e-06
2.73057e-06
3.61107e-06
3.76714e-06
3.48064e-06
5.16387e-06
5.61316e-06
5.59657e-06
5.48938e-06
5.20691e-06
4.82661e-06
3.95204e-06
3.43205e-06
2.20324e-06
2.84005e-06
3.07203e-06
2.81144e-06
2.47787e-06
2.29131e-06
2.26445e-06
2.03447e-06
2.1867e-06
2.35804e-06
1.48993e-05
2.01835e-05
2.25742e-06
1.94851e-06
1.90307e-06
1.90383e-06
1.80409e-06
1.97719e-06
2.48832e-06
3.3963e-06
3.62442e-06
4.13828e-06
4.7852e-06
4.54275e-06
4.33984e-06
3.8752e-06
3.53738e-06
2.82124e-06
2.70774e-06
2.62443e-06
2.26169e-06
2.32558e-06
2.8461e-06
2.47507e-06
2.03015e-06
1.82512e-06
1.91409e-06
1.82709e-06
2.04742e-06
2.42011e-06
1.56914e-05
1.91663e-05
2.41965e-06
2.02955e-06
1.96357e-06
1.97042e-06
2.01441e-06
2.21104e-06
2.68082e-06
3.44858e-06
4.14674e-06
4.44124e-06
4.0178e-06
3.46849e-06
3.02999e-06
3.34996e-06
2.96039e-06
2.35085e-06
2.47805e-06
2.64748e-06
3.10872e-06
3.40702e-06
3.34876e-06
2.55967e-06
1.87905e-06
1.65258e-06
1.73571e-06
1.67946e-06
1.87837e-06
2.43287e-06
1.63643e-05
1.88796e-05
2.67516e-06
2.22001e-06
2.07759e-06
2.17632e-06
2.32907e-06
2.56358e-06
2.92625e-06
3.72029e-06
4.12857e-06
3.7868e-06
2.81066e-06
2.45056e-06
2.41311e-06
3.09219e-06
3.11941e-06
2.52903e-06
2.77391e-06
3.07093e-06
3.73143e-06
3.74494e-06
3.46234e-06
2.42284e-06
1.59897e-06
1.29364e-06
1.49767e-06
1.51749e-06
1.64224e-06
2.06182e-06
1.62025e-05
1.78057e-05
2.71309e-06
2.42562e-06
2.24762e-06
2.39774e-06
2.528e-06
2.68976e-06
3.07134e-06
3.70526e-06
3.48964e-06
3.32643e-06
3.17219e-06
3.02108e-06
3.06223e-06
3.71849e-06
3.68721e-06
3.27376e-06
3.38943e-06
3.46394e-06
3.28166e-06
3.02158e-06
3.57318e-06
2.56103e-06
1.63024e-06
1.33247e-06
1.6772e-06
1.85433e-06
1.84827e-06
2.04099e-06
1.6142e-05
1.70308e-05
2.6995e-06
2.67365e-06
2.41705e-06
2.61213e-06
2.71367e-06
2.96235e-06
3.18369e-06
3.59466e-06
3.16734e-06
2.89073e-06
3.17981e-06
3.59344e-06
3.92483e-06
4.50739e-06
4.5397e-06
4.6035e-06
4.30857e-06
3.44424e-06
2.18587e-06
3.22748e-06
4.11247e-06
3.13055e-06
2.51702e-06
2.11863e-06
2.18672e-06
2.42777e-06
2.43008e-06
2.53987e-06
1.62724e-05
1.60321e-05
2.96483e-06
3.07563e-06
3.0033e-06
3.35199e-06
3.40961e-06
3.51892e-06
3.49586e-06
3.74041e-06
3.41003e-06
3.35787e-06
2.63834e-06
3.29084e-06
4.18571e-06
5.09548e-06
5.04698e-06
4.90342e-06
4.13855e-06
2.56646e-06
1.98759e-06
3.43469e-06
4.30029e-06
3.60406e-06
3.15361e-06
2.71292e-06
2.732e-06
2.96654e-06
3.05264e-06
3.06862e-06
1.59173e-05
1.52439e-05
3.10939e-06
2.99114e-06
3.22025e-06
3.52321e-06
3.16101e-06
2.98416e-06
2.72011e-06
2.98824e-06
2.65361e-06
2.84495e-06
1.60731e-06
2.15898e-06
4.06957e-06
5.47387e-06
5.71387e-06
5.42967e-06
3.5528e-06
1.62721e-06
2.18593e-06
2.79104e-06
3.48336e-06
3.01044e-06
2.88556e-06
2.67747e-06
3.00232e-06
3.13343e-06
2.97983e-06
3.09099e-06
1.50052e-05
1.43664e-05
3.45519e-06
3.13278e-06
3.62403e-06
3.81646e-06
2.93563e-06
2.50338e-06
2.18053e-06
2.46537e-06
2.3189e-06
2.74135e-06
1.79942e-06
1.00321e-06
2.09876e-06
3.87664e-06
4.76245e-06
4.47644e-06
1.97146e-06
1.50231e-06
2.77014e-06
2.64992e-06
2.91896e-06
2.48313e-06
2.63647e-06
2.81987e-06
3.56476e-06
3.57673e-06
3.31469e-06
3.14524e-06
1.35786e-05
1.34498e-05
3.6112e-06
3.71319e-06
4.15025e-06
3.81514e-06
2.68939e-06
2.16592e-06
1.66526e-06
1.94883e-06
1.99936e-06
2.66943e-06
2.58939e-06
2.09691e-06
1.54177e-06
2.43328e-06
3.07935e-06
2.62689e-06
1.44409e-06
1.99426e-06
2.6609e-06
2.16719e-06
2.27227e-06
1.84396e-06
2.11901e-06
2.45097e-06
3.49894e-06
3.87167e-06
3.80677e-06
3.22356e-06
1.2554e-05
1.23362e-05
3.62907e-06
4.31685e-06
4.23205e-06
3.4404e-06
2.30702e-06
1.8408e-06
1.30176e-06
1.73616e-06
1.88778e-06
2.69695e-06
3.06291e-06
2.98613e-06
2.99085e-06
3.14642e-06
3.02841e-06
1.85545e-06
2.22785e-06
2.87627e-06
2.92189e-06
1.96908e-06
1.91926e-06
1.48035e-06
1.76607e-06
1.97505e-06
3.1918e-06
3.94055e-06
4.12457e-06
3.42509e-06
1.14935e-05
1.14058e-05
3.62293e-06
4.3653e-06
3.58371e-06
2.75919e-06
1.84013e-06
1.53475e-06
9.76939e-07
1.50361e-06
1.85255e-06
2.80878e-06
2.91655e-06
2.98437e-06
3.70233e-06
3.76287e-06
3.01438e-06
1.96813e-06
2.95157e-06
3.44095e-06
3.61637e-06
2.40026e-06
1.72113e-06
1.1818e-06
1.47224e-06
1.58738e-06
2.7303e-06
3.7763e-06
4.28115e-06
3.51189e-06
1.06236e-05
9.82006e-06
3.71191e-06
4.27373e-06
3.07055e-06
2.27636e-06
1.60944e-06
1.8356e-06
1.51564e-06
1.83346e-06
2.15749e-06
3.06529e-06
2.73952e-06
2.81991e-06
3.84948e-06
3.84008e-06
2.88812e-06
2.44568e-06
3.15596e-06
3.61225e-06
4.4039e-06
3.5566e-06
2.44375e-06
1.49504e-06
1.84098e-06
2.05488e-06
3.1006e-06
3.93337e-06
4.66625e-06
3.81018e-06
9.48553e-06
8.672e-06
3.67065e-06
3.98854e-06
2.75774e-06
2.24778e-06
2.00456e-06
2.46366e-06
2.43464e-06
2.87747e-06
2.89648e-06
3.1698e-06
2.32038e-06
2.65171e-06
3.59554e-06
3.55094e-06
2.78327e-06
2.55763e-06
2.91377e-06
3.35195e-06
4.45919e-06
4.32576e-06
3.91443e-06
2.93399e-06
3.13155e-06
3.4931e-06
4.23878e-06
4.21391e-06
4.79286e-06
4.14631e-06
8.5753e-06
7.20944e-06
3.89523e-06
3.93422e-06
3.01872e-06
3.2649e-06
3.33302e-06
3.73926e-06
3.82046e-06
4.53373e-06
4.53095e-06
4.1069e-06
2.13489e-06
2.3038e-06
3.23324e-06
3.76552e-06
3.24415e-06
3.15562e-06
3.65249e-06
3.91567e-06
4.82894e-06
4.82025e-06
5.31196e-06
5.14528e-06
5.49376e-06
5.59319e-06
5.60311e-06
4.53258e-06
4.63927e-06
4.52074e-06
7.10338e-06
6.07682e-06
4.37723e-06
3.82873e-06
3.58105e-06
3.88635e-06
3.68856e-06
3.88309e-06
3.83365e-06
4.56082e-06
4.72783e-06
4.43773e-06
2.18501e-06
1.84301e-06
2.85955e-06
3.4521e-06
2.90004e-06
2.69472e-06
3.41648e-06
3.51847e-06
3.84664e-06
3.50754e-06
4.27227e-06
4.72442e-06
5.6392e-06
5.52624e-06
5.17331e-06
3.90627e-06
3.66263e-06
4.5803e-06
5.81015e-06
4.0782e-06
4.41555e-06
3.29752e-06
3.63903e-06
3.59784e-06
3.43209e-06
3.68368e-06
3.76199e-06
4.40591e-06
4.70602e-06
4.7124e-06
3.57645e-06
3.44719e-06
3.11626e-06
2.83173e-06
2.13541e-06
2.192e-06
2.75549e-06
2.72661e-06
2.92214e-06
2.60036e-06
3.26549e-06
3.42194e-06
4.15817e-06
4.05147e-06
3.7305e-06
3.09276e-06
2.66849e-06
3.88949e-06
3.50488e-06
2.3928e-06
3.32641e-06
3.74274e-06
4.37496e-06
5.00398e-06
5.62755e-06
6.46589e-06
7.34823e-06
8.3849e-06
9.21109e-06
9.37523e-06
9.11308e-06
8.66897e-06
8.58134e-06
8.4577e-06
8.10612e-06
8.19656e-06
8.20326e-06
8.30494e-06
7.97784e-06
7.19361e-06
6.7749e-06
6.1315e-06
5.9573e-06
5.37107e-06
4.64246e-06
3.63648e-06
2.66385e-06
2.15402e-06
1.43371e-06
0.000389047
0.000104298
8.91316e-05
5.90726e-05
3.94359e-05
3.20754e-05
2.06689e-05
1.7799e-05
1.1346e-05
1.0917e-05
8.96869e-06
9.554e-06
9.34895e-06
8.09286e-06
7.9317e-06
7.66315e-06
7.08058e-06
7.52982e-06
6.47298e-06
6.99937e-06
5.43082e-06
6.01669e-06
5.82123e-06
6.62676e-06
6.27041e-06
5.66333e-06
4.67769e-06
3.53988e-06
2.62801e-06
2.12441e-06
0.000101978
7.33726e-05
3.89437e-05
3.49385e-05
1.59104e-05
1.43053e-05
9.06822e-06
7.73255e-06
6.63889e-06
5.83995e-06
4.47916e-06
3.01837e-06
2.63884e-06
2.94347e-06
3.42949e-06
2.87999e-06
2.86133e-06
2.98497e-06
2.84913e-06
2.23385e-06
1.33612e-06
1.81881e-06
2.75247e-06
3.28457e-06
3.06222e-06
2.56836e-06
2.34923e-06
2.39114e-06
2.92158e-06
3.06787e-06
8.77873e-05
3.94461e-05
3.15385e-05
3.1632e-05
1.80079e-05
1.61891e-05
1.00037e-05
8.55465e-06
7.5248e-06
7.62847e-06
6.58565e-06
5.20861e-06
4.09067e-06
3.70049e-06
3.70849e-06
3.42773e-06
3.76848e-06
3.48938e-06
3.31052e-06
3.07746e-06
2.71673e-06
3.23882e-06
4.66595e-06
5.24761e-06
4.04454e-06
2.93205e-06
3.17385e-06
4.14305e-06
3.74851e-06
4.78529e-06
6.12847e-05
3.33398e-05
3.03185e-05
2.37312e-05
1.41054e-05
1.2697e-05
7.65549e-06
6.78192e-06
5.52296e-06
6.42125e-06
6.79376e-06
6.66118e-06
5.65919e-06
4.71697e-06
3.99557e-06
3.68863e-06
3.63389e-06
3.17834e-06
3.24734e-06
2.96497e-06
2.27878e-06
4.22665e-06
6.30552e-06
6.39191e-06
5.1612e-06
3.61041e-06
3.57488e-06
4.34133e-06
4.03754e-06
5.99125e-06
4.25637e-05
1.58668e-05
1.61925e-05
1.33002e-05
9.14684e-06
9.31742e-06
6.45748e-06
5.89937e-06
4.79705e-06
5.75919e-06
7.22175e-06
7.25122e-06
5.30851e-06
4.23656e-06
3.59626e-06
3.32464e-06
3.05227e-06
2.90136e-06
3.06487e-06
3.16826e-06
4.41445e-06
5.85623e-06
6.28498e-06
6.15038e-06
5.65961e-06
4.38328e-06
4.25167e-06
3.78269e-06
4.21076e-06
7.53502e-06
3.80871e-05
1.38788e-05
1.54591e-05
1.21439e-05
8.89646e-06
7.71918e-06
5.14419e-06
4.20516e-06
3.18605e-06
3.85741e-06
5.01516e-06
4.65141e-06
2.95386e-06
2.47941e-06
2.18777e-06
2.32898e-06
2.44874e-06
2.68924e-06
2.2481e-06
3.15091e-06
3.82704e-06
3.67927e-06
2.95484e-06
3.33698e-06
4.07781e-06
4.26431e-06
4.47786e-06
3.08412e-06
4.13803e-06
8.35594e-06
2.79277e-05
7.80987e-06
8.75385e-06
6.65828e-06
5.44597e-06
5.02358e-06
3.53319e-06
3.21239e-06
2.84112e-06
3.13897e-06
3.872e-06
3.67964e-06
2.42005e-06
2.3632e-06
2.49129e-06
2.51184e-06
2.37295e-06
2.3285e-06
2.47836e-06
3.13154e-06
2.47497e-06
1.79451e-06
9.90027e-07
1.58663e-06
3.13413e-06
4.13823e-06
4.15919e-06
2.59621e-06
4.131e-06
9.596e-06
2.77319e-05
5.95921e-06
7.31175e-06
7.04643e-06
6.14958e-06
5.51905e-06
4.10889e-06
3.71463e-06
3.11031e-06
2.91033e-06
3.32284e-06
3.19335e-06
2.20145e-06
2.52733e-06
2.20555e-06
1.77871e-06
1.37163e-06
1.9419e-06
2.69894e-06
2.81335e-06
1.57975e-06
1.31535e-06
8.52573e-07
1.38252e-06
2.84032e-06
3.65199e-06
3.52177e-06
2.40146e-06
3.92693e-06
1.0376e-05
2.26164e-05
4.43643e-06
4.31174e-06
3.69441e-06
3.84141e-06
4.13358e-06
3.56689e-06
3.3856e-06
3.06717e-06
2.84568e-06
3.05141e-06
2.51091e-06
2.3244e-06
3.14853e-06
2.38013e-06
1.34224e-06
1.28324e-06
1.25269e-06
2.15288e-06
2.51482e-06
1.67331e-06
1.60513e-06
1.33973e-06
1.86829e-06
2.72941e-06
3.10141e-06
3.10982e-06
2.38502e-06
3.61327e-06
1.15305e-05
2.24774e-05
3.81868e-06
3.69684e-06
3.0332e-06
3.04086e-06
3.66016e-06
3.67811e-06
3.53309e-06
3.16326e-06
2.75925e-06
2.6653e-06
2.3778e-06
3.02894e-06
3.67964e-06
3.8179e-06
2.79037e-06
2.72397e-06
2.30483e-06
1.541e-06
1.82291e-06
1.45404e-06
1.52231e-06
1.62172e-06
2.14663e-06
2.32841e-06
2.34933e-06
2.27247e-06
1.7258e-06
3.04627e-06
1.23375e-05
2.01604e-05
3.22976e-06
2.7406e-06
2.36402e-06
1.9495e-06
2.03249e-06
2.73273e-06
3.33799e-06
3.35591e-06
2.9608e-06
3.50032e-06
4.31796e-06
5.26721e-06
6.02096e-06
6.53528e-06
5.91405e-06
5.42056e-06
4.33367e-06
3.24952e-06
2.57905e-06
2.0467e-06
2.0723e-06
2.1989e-06
2.32911e-06
2.02498e-06
1.88844e-06
1.75428e-06
1.36342e-06
2.56546e-06
1.3025e-05
2.06627e-05
2.80005e-06
2.01071e-06
1.89085e-06
1.5178e-06
1.38047e-06
2.33442e-06
3.19369e-06
3.29247e-06
3.58665e-06
4.82137e-06
5.03309e-06
6.24022e-06
6.94264e-06
7.46966e-06
7.44128e-06
6.41264e-06
4.9685e-06
3.92356e-06
3.46611e-06
2.61612e-06
2.17836e-06
2.00386e-06
1.96248e-06
1.73942e-06
1.72818e-06
1.68128e-06
1.35897e-06
2.00305e-06
1.3375e-05
1.94946e-05
2.29344e-06
1.44812e-06
1.36794e-06
1.1755e-06
9.8281e-07
1.75993e-06
2.89524e-06
2.67177e-06
3.84814e-06
5.39879e-06
6.09941e-06
7.67263e-06
8.27601e-06
8.45542e-06
8.19711e-06
7.54757e-06
6.2281e-06
5.00657e-06
4.07122e-06
3.15723e-06
1.83796e-06
1.63377e-06
1.57332e-06
1.36442e-06
1.36738e-06
1.39442e-06
1.09444e-06
1.97946e-06
1.41894e-05
1.92408e-05
2.21961e-06
1.39651e-06
1.32688e-06
1.39038e-06
1.40365e-06
1.94732e-06
2.93724e-06
2.86894e-06
3.54876e-06
4.78646e-06
6.37522e-06
7.26621e-06
8.04238e-06
8.04816e-06
7.80215e-06
7.07551e-06
6.09669e-06
5.52401e-06
3.62444e-06
2.98016e-06
2.00681e-06
1.33702e-06
1.16889e-06
1.20131e-06
1.16129e-06
9.6975e-07
5.61499e-07
2.01678e-06
1.48088e-05
1.81083e-05
2.56014e-06
1.46857e-06
1.41061e-06
1.4358e-06
1.61283e-06
1.86845e-06
2.20721e-06
2.91283e-06
4.2701e-06
5.1924e-06
5.94238e-06
5.58671e-06
6.4093e-06
7.2613e-06
7.33017e-06
6.3902e-06
5.63427e-06
5.7412e-06
4.84012e-06
4.19593e-06
2.82952e-06
1.80368e-06
1.22845e-06
1.23981e-06
1.06242e-06
7.86472e-07
5.46372e-07
2.05332e-06
1.53573e-05
1.77471e-05
2.8126e-06
1.31183e-06
1.32042e-06
1.48624e-06
1.82111e-06
1.95375e-06
2.29207e-06
3.26923e-06
4.59299e-06
5.02524e-06
5.40836e-06
4.83122e-06
5.79016e-06
6.958e-06
7.11605e-06
6.26296e-06
5.54996e-06
6.00959e-06
5.21337e-06
4.32334e-06
3.02955e-06
1.76527e-06
1.18694e-06
1.22288e-06
1.04761e-06
9.31754e-07
6.49259e-07
1.81263e-06
1.52359e-05
1.6843e-05
2.91002e-06
1.34047e-06
1.57189e-06
1.6015e-06
1.9763e-06
1.95492e-06
2.19784e-06
2.77613e-06
3.77825e-06
4.26583e-06
5.735e-06
5.81e-06
6.75498e-06
7.49612e-06
7.65246e-06
7.33467e-06
6.16903e-06
5.95026e-06
3.97957e-06
3.84961e-06
2.77062e-06
1.66958e-06
1.25626e-06
1.17935e-06
9.89074e-07
1.40251e-06
1.23177e-06
1.79885e-06
1.52658e-05
1.62638e-05
2.90804e-06
1.78478e-06
1.93807e-06
1.63003e-06
1.87475e-06
2.0818e-06
2.29485e-06
2.44318e-06
3.77251e-06
4.56632e-06
5.17557e-06
5.92297e-06
6.9596e-06
7.79562e-06
8.03255e-06
7.45522e-06
6.0835e-06
5.11689e-06
3.79737e-06
3.88783e-06
2.40877e-06
2.13597e-06
1.73889e-06
1.19156e-06
1.12975e-06
2.11794e-06
2.06738e-06
2.43175e-06
1.51483e-05
1.50975e-05
3.08151e-06
2.0933e-06
2.12398e-06
2.18175e-06
2.63659e-06
2.80374e-06
2.88909e-06
2.82502e-06
3.43946e-06
3.99035e-06
4.28566e-06
4.64093e-06
5.89687e-06
7.28812e-06
7.75294e-06
6.61136e-06
5.28175e-06
4.37376e-06
3.83077e-06
3.58306e-06
3.06169e-06
2.62647e-06
2.1122e-06
1.67515e-06
1.57166e-06
2.30001e-06
2.17895e-06
3.05815e-06
1.45708e-05
1.41141e-05
3.25467e-06
2.06467e-06
1.92739e-06
2.63968e-06
3.12326e-06
2.72733e-06
2.5294e-06
2.28677e-06
2.46661e-06
2.56899e-06
3.23462e-06
3.40453e-06
4.49753e-06
5.91297e-06
6.99748e-06
6.16888e-06
4.87101e-06
3.73338e-06
2.97499e-06
2.89572e-06
2.75903e-06
2.6276e-06
2.41937e-06
2.53805e-06
2.21281e-06
2.05429e-06
1.764e-06
3.29169e-06
1.35522e-05
1.32015e-05
3.70634e-06
2.41934e-06
2.17178e-06
3.43511e-06
3.8028e-06
2.70648e-06
2.08667e-06
1.81716e-06
1.89701e-06
1.81005e-06
1.96837e-06
2.02319e-06
3.06769e-06
3.25709e-06
4.32473e-06
4.06717e-06
3.60525e-06
2.57857e-06
2.22084e-06
2.52879e-06
2.30476e-06
2.32864e-06
2.72135e-06
3.57733e-06
3.26296e-06
2.23258e-06
1.58239e-06
3.23412e-06
1.21073e-05
1.22344e-05
3.72775e-06
2.37108e-06
3.13931e-06
4.21703e-06
3.74973e-06
2.44424e-06
1.86352e-06
1.62772e-06
1.64878e-06
2.04335e-06
2.55481e-06
1.59922e-06
2.05043e-06
2.86532e-06
2.96734e-06
2.84022e-06
2.83131e-06