/*--------------------------------*- C++ -*----------------------------------*\
| =========                 |                                                 |
| \\      /  F ield         | OpenFOAM: The Open Source CFD Toolbox           |
|  \\    /   O peration     | Version:  v1912                                 |
|   \\  /    A nd           | Website:  www.openfoam.com                      |
|    \\/     M anipulation  |                                                 |
\*---------------------------------------------------------------------------*/
FoamFile
{
    version     2.0;
    format      ascii;
    class       volScalarField;
    location    "16/sphere";
    object      T;
}
// * * * * * * * * * * * * * * * * * * * * * * * * * * * * * * * * * * * * * //

dimensions      [0 0 0 1 0 0 0];


internalField   nonuniform List<scalar> 
7664
(
432.265
432.299
432.58
432.684
432.553
432.853
432.039
432.512
432.614
432.457
432.575
432.9
433.001
432.851
433.063
433.171
433.011
432.033
432.139
432.018
432.29
432.608
432.714
432.569
432.666
432.994
433.096
432.955
432.589
432.842
433.164
433.264
433.111
433.234
432.018
432.449
432.564
432.379
432.543
432.841
432.946
432.793
432.99
433.106
432.94
432.577
432.503
432.504
432.5
432.578
432.268
432.607
432.515
432.555
432.455
432.86
432.773
432.458
432.87
432.781
432.299
432.268
432.611
432.514
432.855
433.085
432.994
432.688
432.589
432.815
432.756
432.499
432.571
432.571
432.64
432.628
432.422
432.497
432.412
432.424
432.498
432.412
432.572
432.233
432.21
432.015
432.302
432.426
432.209
432.018
432.424
432.31
432.251
432.476
432.374
432.474
432.703
432.297
432.508
432.602
432.45
432.555
432.766
432.861
432.286
432.401
432.391
432.496
432.396
432.369
432.51
432.48
432.381
432.712
432.484
432.548
432.545
432.78
432.909
432.676
432.756
432.816
432.841
432.937
432.981
433.086
432.588
432.819
432.759
432.938
432.849
433.088
432.99
432.787
432.556
432.918
432.924
432.852
432.994
433.103
433.107
433.105
433.003
433.109
432.937
431.974
431.979
432.305
432.013
432.204
432.423
432.037
432.383
432.489
432.034
432.133
432.486
432.582
432.014
432.489
432.392
432.139
432.041
432.585
432.5
432.329
432.019
432.435
432.214
432.493
432.45
432.503
432.766
432.291
432.549
432.592
432.851
432.271
432.777
432.517
432.569
432.305
432.876
432.622
432.514
432.564
432.839
432.978
432.667
432.929
432.805
433.079
432.591
432.993
432.76
432.955
432.7
433.093
432.827
432.589
432.991
432.842
433.099
433.104
433.169
433.158
433.164
433.263
433.155
433.254
433.075
433.16
433.087
433.264
433.174
433.256
433.16
433.111
432.859
433.111
433.232
433.234
431.975
431.979
432.011
432.203
432.421
432.303
432.133
432.486
432.582
432.035
432.38
432.494
432.041
432.586
432.5
432.037
432.014
432.496
432.395
432.436
432.213
432.333
432.492
432.549
432.591
432.853
432.445
432.504
432.765
432.304
432.875
432.622
432.463
432.27
432.784
432.517
432.514
432.564
432.929
432.804
433.077
432.572
432.838
432.977
432.7
433.093
432.826
432.858
432.591
432.996
432.761
433.098
433.102
432.99
433.263
433.155
433.254
433.061
433.166
433.155
433.174
433.256
433.159
433.168
433.076
433.155
433.085
432.858
433.111
433.014
433.232
432.232
432.017
432.302
432.431
432.209
432.433
432.312
432.21
432.25
432.37
432.474
432.702
432.476
432.562
432.769
432.871
432.263
432.297
432.507
432.604
432.717
432.483
432.481
432.777
432.905
432.544
432.944
432.979
433.083
432.577
432.679
432.751
432.812
432.555
432.923
432.553
432.921
433.102
433.105
432.847
433.004
433.106
432.85
432.338
432.332
432.52
432.34
432.335
432.477
432.406
432.477
432.402
432.547
432.602
432.684
432.674
432.334
432.472
432.416
432.484
432.409
432.571
432.642
432.629
432.549
432.603
432.688
432.676
432.28
432.347
432.372
432.468
432.301
432.34
432.414
432.43
432.552
432.466
432.568
432.613
432.512
432.657
432.287
432.401
432.391
432.501
432.4
432.373
432.515
432.28
432.344
432.372
432.472
432.3
432.344
432.415
432.429
432.554
432.465
432.573
432.617
432.515
432.663
432.629
432.65
432.688
432.8
432.694
432.741
432.747
432.781
432.801
432.763
432.874
432.922
432.889
432.899
432.706
432.775
432.738
432.844
432.826
432.79
432.87
432.33
432.47
432.413
432.481
432.406
432.629
432.55
432.6
432.674
432.274
432.338
432.365
432.46
432.298
432.339
432.407
432.271
432.361
432.339
432.611
432.781
432.64
432.68
432.67
432.722
432.734
432.613
432.625
432.631
432.564
432.686
432.921
432.853
432.892
432.842
432.942
432.94
432.922
432.953
432.17
432.001
432.089
432.004
432.127
432.022
432.124
432.231
432.026
432.201
432.068
432.172
432.053
432.246
432.074
432.071
432.095
432.435
432.284
432.335
432.263
432.395
432.322
432.352
432.776
432.676
432.634
432.607
432.73
432.718
432.665
432.554
432.61
432.915
432.848
432.884
432.992
432.932
433.017
433.063
432.952
432.983
433.065
433.191
432.217
432.06
432.195
432.018
432.239
432.041
432.162
432.264
432.125
432.295
432.106
432.28
432.088
432.278
432.081
432.141
432.008
432.084
432.122
432.479
432.385
432.387
432.279
432.496
432.358
432.374
432.347
432.339
432.805
432.763
432.719
432.64
432.824
432.744
432.692
432.653
432.578
432.637
432.934
432.93
432.83
432.944
432.911
433.188
433.22
433.216
433.204
432.071
432.067
432.09
432.082
432.007
432.14
432.122
432.084
432.333
432.266
432.355
432.521
432.305
432.436
432.37
432.313
432.441
432.27
432.622
432.614
432.599
432.672
432.555
432.98
433.051
433
432.917
433.053
432.972
432.94
432.87
432.882
432.958
432.918
432.526
432.552
432.63
432.601
432.678
432.198
432.13
432.198
432.136
432.201
432.22
432.204
432.264
432.145
432.147
432.251
432.067
432.069
432.088
432.082
432.008
432.138
432.085
432.118
432.16
432.237
432.167
432.372
432.13
432.293
432.223
432.203
432.264
432.25
432.146
432.148
432.202
432.219
432.137
432.082
432.011
432.138
432.083
432.119
432.075
432.073
432.095
432.24
432.377
432.293
432.164
432.178
432.137
432.233
432.203
432.142
432.208
432.142
432.334
432.27
432.357
432.4
432.41
432.545
432.456
432.486
432.333
432.268
432.353
432.366
432.309
432.304
432.513
432.27
432.434
432.427
432.409
432.399
432.542
432.485
432.452
432.396
432.285
432.394
432.383
432.508
432.492
432.369
432.422
432.541
432.452
432.561
432.605
432.503
432.65
432.41
432.55
432.462
432.414
432.492
432.31
432.519
432.435
432.37
432.315
432.273
432.438
432.339
432.273
432.361
432.415
432.408
432.552
432.491
432.459
432.627
432.606
432.62
432.56
432.679
432.682
432.771
432.728
432.625
432.617
432.601
432.56
432.675
432.68
432.768
432.723
432.737
432.838
432.886
432.834
432.81
432.779
432.805
432.647
432.729
432.773
432.813
432.697
432.752
432.833
432.832
432.701
432.777
432.817
432.729
432.779
432.865
432.771
432.863
432.8
432.92
432.751
432.883
432.897
432.627
432.651
432.69
432.687
432.735
432.796
432.747
432.782
432.805
432.763
432.872
432.922
432.887
432.902
432.707
432.779
432.738
432.842
432.824
432.791
432.871
432.687
432.776
432.734
432.632
432.626
432.611
432.565
432.684
432.741
432.842
432.894
432.844
432.814
432.783
432.815
432.687
432.779
432.732
432.866
432.863
432.95
432.941
432.839
432.939
432.92
432.953
432.982
432.919
433.053
433.004
432.973
432.943
433.056
433.006
433.024
433.056
433.027
433.107
433.094
433.039
433.09
432.923
432.857
432.895
432.986
432.926
433.059
433.013
432.977
432.949
433.062
433.027
433.107
433.096
433.038
433.092
433.007
433.027
433.059
432.873
432.88
432.96
432.918
431.938
431.938
431.958
431.955
431.935
431.945
431.963
431.976
431.954
431.957
431.946
432.069
432.068
432.087
432.137
432.2
432.213
432.165
432.171
432.235
432.374
432.131
432.227
432.289
432.077
432.004
432.133
432.114
432.078
432.143
432.194
432.261
432.245
432.146
432.219
432.021
432.199
432.062
432.167
432.042
432.242
432.219
432.021
432.059
432.196
432.044
432.164
432.239
432.252
432.098
432.096
432.29
432.069
432.272
432.27
432.2
432.015
432.101
432.016
432.142
432.038
432.145
432.263
432.105
432.125
432.294
432.086
432.277
432.28
432.233
432.027
432.078
432.207
432.058
432.177
432.252
432.167
432.183
432.254
432.383
432.144
432.232
432.301
432.139
432.205
432.224
432.083
432.01
432.14
432.122
432.084
432.148
432.207
432.271
432.255
432.15
432.464
432.325
432.481
432.407
432.4
432.553
432.419
432.601
432.535
432.5
432.448
432.645
432.479
432.277
432.385
432.387
432.356
432.373
432.496
432.583
432.565
432.488
432.688
432.47
432.673
432.597
432.473
432.302
432.347
432.283
432.416
432.345
432.377
432.576
432.43
432.617
432.558
432.513
432.47
432.666
432.506
432.292
432.406
432.41
432.377
432.398
432.523
432.609
432.604
432.53
432.718
432.503
432.699
432.625
432.482
432.408
432.347
432.339
432.505
432.434
432.42
432.523
432.548
432.62
432.597
432.665
432.818
432.687
432.809
432.765
432.771
432.718
432.852
432.807
432.643
432.765
432.718
432.748
432.692
432.825
432.855
432.79
432.758
432.91
432.742
432.888
432.873
432.802
432.693
432.649
432.634
432.745
432.743
432.693
432.845
432.707
432.824
432.779
432.786
432.743
432.872
432.837
432.681
432.797
432.76
432.778
432.736
432.856
432.881
432.809
432.796
432.931
432.775
432.906
432.9
432.579
432.654
432.639
432.699
432.684
432.981
432.917
433.002
433.051
432.942
432.971
433.054
433.003
433.022
433.054
432.935
432.83
432.93
432.913
432.944
433.026
433.091
433.104
433.088
433.035
433.164
433.067
433.116
433.114
433.117
433.114
433.154
433.202
433.171
433.141
433.202
433.15
433.22
433.185
433.201
433.138
433.168
433.2
433.146
433.184
433.217
433.235
433.234
433.268
433.233
433.252
433.216
433.25
433.207
433.172
433.144
433.204
433.153
433.222
433.189
433.175
433.078
433.118
433.122
433.122
433.125
433.161
433.239
433.236
433.27
433.24
433.254
433.221
433.254
433.206
433.145
433.176
433.204
433.156
433.189
433.223
432.928
432.859
432.898
433.011
433.031
433.063
432.948
432.846
432.946
432.926
432.957
433.033
433.098
433.112
433.097
433.043
433.19
433.186
433.216
433.214
433.202
433.217
433.22
433.205
433.193
433.18
431.938
431.956
431.958
431.936
431.937
431.976
431.964
431.956
431.957
431.948
431.945
432.077
432.134
432.001
432.08
432.115
432.143
432.262
432.197
432.146
432.245
432.069
432.067
432.086
432.132
432.2
432.213
432.159
432.37
432.17
432.234
432.226
432.284
432.132
432.251
432.096
432.29
432.098
432.27
432.067
432.271
432.17
432
432.003
432.087
432.019
432.123
432.127
432.219
432.06
432.021
432.199
432.041
432.241
432.167
432.233
432.078
432.207
432.027
432.252
432.058
432.176
432.23
432.066
432.025
432.201
432.053
432.245
432.172
432.201
432.016
432.016
432.102
432.038
432.146
432.141
432.147
432.272
432.204
432.15
432.254
432.073
432.072
432.096
432.168
432.386
432.187
432.253
432.237
432.299
432.144
432.138
432.206
432.223
432.327
432.407
432.476
432.4
432.462
432.584
432.49
432.688
432.562
432.599
432.47
432.672
432.435
432.266
432.285
432.336
432.325
432.352
432.397
432.554
432.532
432.422
432.601
432.447
432.643
432.504
432.506
432.406
432.41
432.29
432.523
432.374
432.396
432.609
432.529
432.718
432.604
432.625
432.502
432.699
432.475
432.282
432.303
432.348
432.345
432.376
432.418
432.577
432.558
432.43
432.619
432.47
432.667
432.516
432.434
432.505
432.419
432.481
432.408
432.621
432.545
432.598
432.666
432.518
432.854
432.76
432.91
432.789
432.873
432.744
432.886
432.773
432.604
432.673
432.632
432.715
432.664
432.727
432.814
432.762
432.684
432.808
432.718
432.847
432.768
432.837
432.797
432.76
432.681
432.856
432.778
432.734
432.88
432.794
432.93
432.808
432.899
432.772
432.903
432.803
432.633
432.696
432.651
432.744
432.692
432.747
432.846
432.781
432.707
432.825
432.743
432.872
432.788
432.698
432.684
432.553
432.608
433.024
433.103
433.09
433.034
433.088
432.914
432.847
432.882
432.98
433.048
432.914
433.002
432.966
433.054
432.939
433.001
433.02
433.052
433.2
433.168
433.2
433.138
433.217
433.147
433.183
433.234
433.268
433.233
433.233
433.251
433.251
433.215
433.161
433.113
433.064
433.113
433.113
433.15
433.113
433.2
433.2
433.169
433.139
433.218
433.183
433.147
433.238
433.269
433.24
433.235
433.254
433.253
433.22
433.206
433.176
433.203
433.144
433.222
433.155
433.188
433.206
433.201
433.17
433.14
433.22
433.187
433.15
433.174
433.121
433.076
433.116
433.124
433.159
433.12
432.946
432.945
432.843
432.957
432.923
433.032
433.112
433.098
433.042
433.096
432.991
433.064
432.933
433.019
432.983
433.066
432.953
432.927
432.858
432.896
433.01
433.029
433.063
433.214
433.215
433.2
433.188
433.192
433.179
433.189
432.13
432.198
432.196
432.079
432.006
432.138
432.118
432.083
432.162
432.17
432.375
432.235
432.229
432.13
432.291
432.135
432.198
432.217
432.266
432.2
432.144
432.147
432.25
432.074
432.071
432.094
432.381
432.238
432.294
432.164
432.179
432.234
432.135
432.203
432.268
432.252
432.145
432.148
432.201
432.221
432.134
432.199
432.143
432.203
432.14
432.361
432.302
432.509
432.304
432.426
432.265
432.431
432.408
432.401
432.54
432.453
432.482
432.332
432.266
432.357
432.403
432.408
432.544
432.457
432.484
432.273
432.339
432.367
432.463
432.294
432.338
432.41
432.395
432.397
432.283
432.511
432.381
432.494
432.368
432.425
432.54
432.453
432.566
432.607
432.509
432.653
432.341
432.273
432.363
432.417
432.409
432.554
432.465
432.492
432.27
432.361
432.338
432.407
432.551
432.461
432.414
432.49
432.678
432.766
432.72
432.731
432.882
432.832
432.831
432.803
432.803
432.773
432.6
432.623
432.617
432.557
432.676
432.677
432.768
432.724
432.609
432.637
432.668
432.783
432.679
432.723
432.734
432.7
432.774
432.728
432.833
432.816
432.78
432.863
432.772
432.919
432.796
432.886
432.749
432.865
432.894
432.633
432.628
432.611
432.686
432.566
432.898
432.846
432.817
432.744
432.849
432.819
432.785
432.688
432.778
432.733
432.609
432.627
432.686
432.632
432.564
432.778
432.734
432.686
432.863
432.948
432.862
433.002
433.02
433.053
433.024
433.104
433.091
433.088
433.035
432.918
432.85
432.888
432.937
432.833
432.938
432.916
432.948
433.06
432.929
432.982
432.99
433.01
433.062
432.95
433.028
433.106
433.094
433.092
433.036
433.007
433.025
433.058
432.839
432.94
432.92
432.941
432.95
432.859
432.894
432.922
432.67
432.744
432.779
432.723
432.765
432.826
432.84
432.613
432.827
432.922
432.608
432.712
432.914
433.02
432.517
432.922
432.835
432.714
432.626
433.02
432.935
432.582
432.557
432.375
432.512
432.508
432.44
432.63
433.001
433.043
433.149
432.994
433.096
433.142
433.242
432.909
433.151
433.056
433.097
433.011
433.243
433.154
432.888
432.78
432.913
432.9
432.839
432.828
432.961
433.174
433.117
433.068
433.116
433.125
433.167
433.122
433.212
433.156
433.178
433.219
433.163
433.204
433.226
432.712
432.915
433.02
432.508
432.62
432.827
432.933
432.626
433.02
432.936
432.622
432.523
432.933
432.843
432.593
432.495
432.684
432.55
432.61
432.476
432.667
433.096
433.141
433.241
432.899
433.008
433.042
433.146
433.013
433.242
433.155
433.009
432.916
433.147
433.058
432.926
432.883
433.016
432.939
432.942
432.865
433.001
433.206
433.214
433.173
433.149
433.222
433.199
433.157
433.243
433.248
433.273
433.249
433.258
433.233
433.258
433.022
433.036
433.118
433.094
433.036
433.018
433.101
432.551
432.505
432.575
432.368
432.626
432.433
432.503
432.589
432.547
432.68
432.49
432.664
432.474
432.604
432.875
432.891
432.902
432.769
432.952
432.814
432.829
432.919
432.933
433.007
432.871
432.993
432.859
432.931
432.852
432.72
432.778
432.695
432.721
432.779
432.632
433.091
433.033
433.017
433.02
433.114
433.098
433.031
432.515
432.593
432.493
432.596
432.701
432.609
432.686
432.582
432.483
432.538
432.67
432.467
432.596
432.656
432.552
432.373
432.507
432.579
432.434
432.506
432.625
432.681
432.786
432.771
432.846
432.697
432.771
432.755
432.653
432.699
432.683
432.817
432.61
432.742
432.727
432.558
432.511
432.582
432.373
432.631
432.438
432.509
432.69
432.782
432.856
432.795
432.766
432.706
432.78
432.662
432.69
432.827
432.706
432.737
432.616
432.751
432.518
432.597
432.494
432.602
432.708
432.616
432.693
432.888
432.901
432.914
432.782
432.96
432.828
432.842
432.964
433.053
433.072
433.011
433.04
432.977
432.997
432.933
432.961
433.043
432.913
433.008
432.887
432.966
432.673
432.746
432.726
432.83
432.785
432.771
432.844
432.355
432.192
432.292
432.408
432.203
432.338
432.272
432.354
432.407
432.336
432.192
432.291
432.202
432.273
432.465
432.634
432.615
432.632
432.545
432.549
432.541
432.501
432.572
432.698
432.48
432.61
432.594
432.682
432.547
432.37
432.505
432.575
432.434
432.502
432.621
432.483
432.669
432.595
432.581
432.54
432.469
432.655
432.648
432.693
432.678
432.812
432.604
432.737
432.724
432.785
432.77
432.697
432.682
432.845
432.77
432.755
432.639
432.623
432.55
432.471
432.641
432.555
432.551
432.687
432.71
432.708
432.84
432.625
432.769
432.766
432.872
432.769
432.886
432.903
432.81
432.829
432.949
432.86
432.903
432.919
432.999
432.842
432.922
432.98
432.922
432.902
432.951
433.033
432.876
432.958
432.999
432.955
433.009
433.05
433.067
432.972
432.991
433.032
432.865
432.925
432.851
432.914
433.002
432.927
432.991
432.777
432.895
432.821
432.885
432.913
432.84
432.961
432.961
433.011
433.053
433.073
432.975
432.996
433.04
432.932
432.909
432.96
433.041
432.885
432.964
433.009
432.715
432.692
432.716
432.848
432.629
432.775
432.775
433.014
433.027
433.086
433.111
433.01
433.029
433.093
433.015
433.028
433.09
433.112
433.013
433.029
433.096
432.194
432.408
432.289
432.352
432.272
432.335
432.201
432.339
432.232
432.434
432.436
432.293
432.293
432.483
432.374
432.351
432.47
432.535
432.332
432.394
432.517
432.372
432.469
432.347
432.533
432.329
432.515
432.391
432.406
432.567
432.441
432.566
432.426
432.549
432.425
432.474
432.382
432.352
432.537
432.336
432.397
432.522
432.443
432.352
432.243
432.445
432.304
432.306
432.492
432.415
432.57
432.445
432.572
432.43
432.555
432.431
432.385
432.481
432.36
432.543
432.342
432.525
432.401
432.195
432.418
432.298
432.363
432.278
432.345
432.206
432.538
432.364
432.571
432.5
432.494
432.423
432.616
432.643
432.676
432.69
432.81
432.6
432.72
432.733
432.567
432.531
432.475
432.66
432.458
432.643
432.583
432.67
432.838
432.761
432.775
432.746
432.762
432.686
432.689
432.662
432.704
432.827
432.615
432.738
432.752
432.594
432.551
432.495
432.685
432.478
432.668
432.611
432.695
432.859
432.786
432.803
432.77
432.785
432.713
432.868
432.765
432.9
432.884
432.826
432.808
432.945
432.916
432.946
432.897
433.031
432.87
432.994
432.952
432.9
432.915
432.853
432.994
432.839
432.978
432.916
432.948
433.064
433.043
433
433.027
432.985
432.964
432.933
432.961
432.91
433.044
432.883
433.01
432.966
432.924
432.935
432.883
433.015
432.864
432.996
432.942
432.968
433.076
433.061
433.018
433.043
433
432.985
433.013
433.084
433.023
433.109
433.008
433.092
433.025
433.208
433.152
433.176
433.217
433.159
433.201
433.225
433.206
433.149
433.214
433.173
433.199
433.156
433.222
433.24
433.249
433.247
433.272
433.233
433.257
433.255
433.18
433.124
433.078
433.125
433.131
433.173
433.132
433.243
433.25
433.249
433.273
433.235
433.258
433.258
433.211
433.156
433.219
433.181
433.203
433.164
433.228
433.023
433.093
433.037
433.118
433.019
433.101
433.036
432.188
432.288
432.351
432.404
432.199
432.27
432.332
432.371
432.347
432.533
432.468
432.39
432.329
432.514
432.406
432.441
432.566
432.567
432.424
432.425
432.549
432.34
432.433
432.23
432.438
432.293
432.482
432.296
432.375
432.537
432.353
432.476
432.394
432.519
432.335
432.415
432.446
432.572
432.571
432.431
432.43
432.555
432.385
432.36
432.543
432.483
432.401
432.343
432.527
432.48
432.382
432.54
432.355
432.397
432.524
432.339
432.446
432.352
432.448
432.243
432.308
432.493
432.305
432.196
432.299
432.364
432.419
432.206
432.281
432.345
432.567
432.475
432.66
432.53
432.584
432.457
432.643
432.672
432.763
432.777
432.839
432.688
432.748
432.762
432.538
432.497
432.364
432.568
432.422
432.613
432.495
432.643
432.81
432.676
432.69
432.72
432.732
432.602
432.695
432.785
432.803
432.86
432.712
432.769
432.785
432.587
432.561
432.516
432.379
432.442
432.635
432.514
432.694
432.665
432.831
432.709
432.741
432.754
432.619
432.895
432.851
432.992
432.912
432.913
432.835
432.973
432.945
433.041
432.999
433.059
432.963
433.023
432.982
432.863
432.882
432.763
432.898
432.804
432.942
432.822
432.912
433.026
432.946
432.895
432.992
432.947
432.868
432.97
433.061
433.018
433.077
432.986
433.046
433
432.918
432.892
432.906
432.784
432.832
432.968
432.843
432.965
432.936
433.045
432.912
433.014
432.967
432.886
433.014
433.022
433.108
433.082
433.025
433.005
433.092
433.239
433.247
433.272
433.247
433.255
433.231
433.255
433.172
433.115
433.115
433.066
433.165
433.122
433.122
433.205
433.214
433.148
433.174
433.197
433.222
433.156
433.211
433.219
433.181
433.156
433.228
433.202
433.164
433.154
433.21
433.216
433.176
433.202
433.224
433.161
433.124
433.179
433.125
433.077
433.171
433.132
433.129
432.36
432.192
432.296
432.412
432.275
432.204
432.339
432.415
432.361
432.342
432.194
432.297
432.279
432.205
432.463
432.614
432.63
432.632
432.541
432.544
432.546
432.678
432.488
432.601
432.585
432.543
432.661
432.47
432.656
432.681
432.819
432.695
432.731
432.608
432.743
432.781
432.794
432.705
432.689
432.854
432.765
432.777
432.5
432.704
432.571
432.614
432.48
432.598
432.685
432.628
432.643
432.552
432.473
432.645
432.556
432.557
432.682
432.705
432.837
432.707
432.763
432.62
432.765
433.004
432.867
432.927
432.908
432.926
432.986
432.848
432.924
432.949
433.034
432.9
433.001
432.875
432.957
433.052
433.009
432.975
432.957
433.066
433.035
432.99
432.732
432.778
432.647
432.838
432.698
432.816
432.756
433.029
433.013
433.084
433.111
433.091
433.009
433.029
432.565
432.635
432.564
432.682
432.613
432.678
432.727
432.601
432.729
432.716
432.663
432.649
432.764
432.776
432.949
432.962
432.947
433.012
433.009
433.062
432.998
432.987
433.066
433.054
433.102
433.05
433.035
433.117
432.658
432.722
432.593
432.643
432.705
432.756
432.77
432.701
432.699
432.685
432.801
432.83
432.817
432.815
433.057
432.977
433.04
433.093
433.045
433.11
433.028
433.13
433.086
433.158
433.082
433.146
433.07
433.142
432.727
432.598
432.661
432.713
432.644
432.759
432.774
432.74
432.875
432.873
432.786
432.783
432.831
432.922
432.83
432.907
432.816
432.862
432.968
432.876
432.954
432.594
432.659
432.721
432.643
432.705
432.755
432.769
432.695
432.693
432.677
432.792
432.828
432.811
432.808
432.901
432.822
432.808
432.857
432.962
432.95
432.87
432.894
433
432.928
432.999
432.911
432.986
432.908
432.569
432.64
432.685
432.571
432.618
432.689
432.733
432.832
432.907
432.817
432.864
432.968
432.878
432.954
432.747
432.878
432.788
432.885
432.796
432.836
432.926
432.697
432.701
432.684
432.799
432.829
432.813
432.817
432.609
432.671
432.743
432.653
432.726
432.769
432.787
432.899
433.001
432.93
433.007
432.912
432.988
432.918
432.918
432.846
432.829
432.871
432.979
432.96
432.89
432.983
433.064
433.046
433.097
433.05
433.033
433.115
433.011
433.096
433.095
433.061
433.059
433.145
433.111
433.114
433.13
433.197
433.096
433.18
433.146
433.163
432.979
433.059
433.043
433.094
433.044
433.029
433.11
433.13
433.082
433.081
433.16
433.066
433.147
433.145
433.128
433.107
433.192
433.092
433.178
433.144
433.158
433.228
433.226
433.211
433.177
433.207
433.194
433.191
432.956
432.974
432.958
433.022
433.022
433.07
433.004
433.116
433.136
433.198
433.103
433.184
433.151
433.164
433.024
433.104
433.106
433.072
433.072
433.153
433.12
433.133
433.083
433.084
433.16
433.068
433.148
433.147
432.993
433.074
433.056
433.102
433.055
433.037
433.118
433.229
433.228
433.214
433.181
433.208
433.196
433.195
433.137
433.122
433.199
433.105
433.183
433.151
433.167
432.693
432.697
432.678
432.793
432.827
432.808
432.813
432.824
432.901
432.809
432.857
432.963
432.871
432.949
432.894
432.929
432.999
433.005
432.909
432.914
432.985
432.56
432.565
432.631
432.611
432.674
432.683
432.725
432.738
432.667
432.603
432.648
432.719
432.763
432.783
432.872
432.738
432.878
432.781
432.789
432.83
432.921
432.842
432.915
432.823
432.865
432.977
432.886
432.957
432.672
432.743
432.61
432.655
432.727
432.772
432.788
432.905
432.932
433.01
433.007
432.92
432.918
432.995
432.846
432.921
432.832
432.877
432.982
432.892
432.966
432.608
432.74
432.725
432.669
432.654
432.77
432.785
432.573
432.646
432.692
432.576
432.622
432.695
432.739
432.844
432.919
432.829
432.875
432.979
432.889
432.965
432.754
432.889
432.799
432.891
432.802
432.846
432.935
433.127
433.082
433.159
433.081
433.145
433.065
433.142
433.106
433.193
433.126
433.09
433.177
433.143
433.158
433.226
433.225
433.209
433.175
433.206
433.192
433.19
432.946
432.951
432.961
433.008
433.012
433.06
432.996
433.068
432.988
433.049
433.096
433.053
433.034
433.113
433.093
433.011
433.097
433.058
433.145
433.063
433.11
433.115
433.193
433.13
433.177
433.098
433.144
433.161
433.076
432.998
433.061
433.104
433.058
433.12
433.041
433.227
433.226
433.211
433.176
433.206
433.193
433.19
433.123
433.199
433.138
433.108
433.181
433.15
433.167
432.994
433.07
433.054
433.099
433.054
433.04
433.114
432.961
432.977
433.021
432.965
433.027
433.07
433.009
433.116
433.134
433.101
433.195
433.181
433.147
433.161
433.026
433.105
433.07
433.106
433.075
433.151
433.118
432.137
431.933
431.761
432.098
431.888
431.713
432.139
431.934
431.762
432.128
431.922
431.749
432.433
432.262
432.116
432.43
432.259
432.113
432.43
432.259
432.114
432.747
432.616
432.503
432.8
432.676
432.568
431.82
431.582
431.387
432.429
432.258
432.112
431.813
431.575
431.377
431.834
431.598
431.403
431.86
431.625
431.431
432.125
431.92
431.749
432.438
432.268
432.123
432.734
432.602
432.487
432.787
432.662
432.553
433.196
433.143
433.097
431.833
431.597
431.402
431.861
431.627
431.433
432.422
432.25
432.103
432.424
432.251
432.104
432.428
432.256
432.11
432.352
432.172
432.019
432.35
432.171
432.018
432.351
432.172
432.018
432.431
432.26
432.114
432.102
431.893
431.719
432.104
431.894
431.719
432.14
431.935
431.765
432.659
432.515
432.388
432.697
432.559
432.436
432.349
432.169
432.015
432.423
432.252
432.106
432.428
432.257
432.112
432.502
432.34
432.202
432.275
432.087
431.926
432.353
432.174
432.022
432.277
432.089
431.929
432.352
432.173
432.021
432.428
432.257
432.111
432.033
431.816
431.635
431.856
431.623
431.429
432.031
431.814
431.633
431.86
431.627
431.433
432.351
432.171
432.02
432.351
432.17
432.018
432.133
431.929
431.758
432.354
432.174
432.022
432.358
432.179
432.027
432.359
432.179
432.027
432.429
432.257
432.111
432.426
432.253
432.107
432.664
432.52
432.395
432.704
432.567
432.447
432.433
432.261
432.115
432.435
432.263
432.117
432.799
432.675
432.565
433.067
432.982
432.904
433.031
432.939
432.855
433.069
432.985
432.907
433.033
432.94
432.857
431.761
431.518
431.318
431.763
431.52
431.321
431.855
431.621
431.427
432.027
431.809
431.628
431.862
431.627
431.434
432.073
431.862
431.685
432.032
431.815
431.634
432.345
432.165
432.011
432.361
432.181
432.029
432.131
431.924
431.751
432.359
432.181
432.028
432.421
432.249
432.102
432.659
432.517
432.394
432.71
432.574
432.455
432.695
432.558
432.439
432.438
432.268
432.123
432.787
432.663
432.553
433.063
432.978
432.899
433.028
432.935
432.851
433.112
433.035
432.962
433.108
433.031
432.958
433.019
432.923
432.836
433.048
432.958
432.875
433.11
433.032
432.959
432.752
432.622
432.51
432.803
432.68
432.572
433.07
432.985
432.907
433.035
432.942
432.859
433.195
433.142
433.096
433.196
433.143
433.097
431.761
431.518
431.318
431.762
431.52
431.321
431.852
431.618
431.423
432.026
431.809
431.628
431.87
431.637
431.446
431.868
431.635
431.443
432.072
431.861
431.684
432.031
431.814
431.633
432.345
432.164
432.01
432.141
431.938
431.768
432.139
431.935
431.764
432.359
432.179
432.027
432.36
432.181
432.029
432.421
432.248
432.102
432.693
432.556
432.437
432.437
432.266
432.121
432.658
432.515
432.391
432.712
432.576
432.457
432.668
432.526
432.402
433.061
432.975
432.896
433.025
432.931
432.848
433.108
433.031
432.958
433.109
433.031
432.958
433.108
433.031
432.958
433.018
432.922
432.835
433.049
432.959
432.876
433.015
432.919
432.832
432.804
432.682
432.574
433.035
432.943
432.859
433.195
433.142
433.095
431.86
431.626
431.432
432.069
431.859
431.682
432.031
431.813
431.632
432.07
431.859
431.682
432.031
431.813
431.632
432.35
432.17
432.017
432.35
432.169
432.016
432.35
432.169
432.016
432.356
432.176
432.024
432.357
432.177
432.025
432.354
432.175
432.023
432.355
432.175
432.023
432.419
432.247
432.101
432.422
432.251
432.104
432.697
432.559
432.437
432.432
432.26
432.114
432.431
432.26
432.114
433.066
432.981
432.902
433.029
432.936
432.851
432.741
432.608
432.493
432.792
432.667
432.557
433.029
432.936
432.852
432.796
432.671
432.562
432.212
432.017
431.851
432.206
432.008
431.843
432.45
432.284
432.139
432.405
432.233
432.084
432.211
432.015
431.849
432.211
432.012
431.847
432.353
432.174
432.022
432.349
432.17
432.019
432.424
432.253
432.107
432.54
432.383
432.247
432.568
432.416
432.286
432.579
432.428
432.298
432.214
432.018
431.853
432.21
432.012
431.847
432.351
432.169
432.012
432.321
432.133
431.975
432.277
432.089
431.929
432.349
432.169
432.014
432.432
432.261
432.115
432.507
432.345
432.206
432.429
432.258
432.111
432.54
432.383
432.246
432.571
432.419
432.288
432.58
432.43
432.299
432.101
431.89
431.714
432.206
432.008
431.842
432.097
431.886
431.71
432.203
432.004
431.839
432.6
432.449
432.316
432.715
432.579
432.458
432.211
432.015
431.85
432.204
432.006
431.839
432.32
432.131
431.972
432.349
432.167
432.011
432.276
432.088
431.928
432.347
432.166
432.011
432.496
432.335
432.198
432.417
432.246
432.098
432.539
432.385
432.247
432.56
432.408
432.278
432.582
432.431
432.3
432.095
431.883
431.707
432.201
432.001
431.835
432.134
431.928
431.756
432.1
431.89
431.716
432.213
432.016
431.85
432.171
431.968
431.799
432.21
432.012
431.845
432.509
432.349
432.212
432.518
432.359
432.221
432.5
432.339
432.201
432.499
432.338
432.2
432.554
432.398
432.262
432.515
432.355
432.217
432.514
432.352
432.213
432.437
432.266
432.121
432.829
432.706
432.599
432.844
432.724
432.619
432.879
432.764
432.661
432.805
432.679
432.569
432.761
432.631
432.517
432.791
432.665
432.553
432.74
432.607
432.493
432.759
432.629
432.514
432.841
432.722
432.616
432.892
432.78
432.679
432.9
432.79
432.691
431.85
431.617
431.425