/*--------------------------------*- C++ -*----------------------------------*\
| =========                 |                                                 |
| \\      /  F ield         | OpenFOAM: The Open Source CFD Toolbox           |
|  \\    /   O peration     | Version:  v1906                                 |
|   \\  /    A nd           | Web:      www.OpenFOAM.com                      |
|    \\/     M anipulation  |                                                 |
\*---------------------------------------------------------------------------*/
FoamFile
{
    version     2.0;
    format      ascii;
    class       volScalarField;
    location    "4/sphere";
    object      T;
}
// * * * * * * * * * * * * * * * * * * * * * * * * * * * * * * * * * * * * * //

dimensions      [0 0 0 1 0 0 0];


internalField   nonuniform List<scalar> 
304
(
497.232
497.276
497.274
497.299
497.238
497.238
497.232
497.277
497.229
497.432
497.432
497.285
497.274
497.431
497.432
497.332
497.285
497.331
497.228
497.275
497.3
497.235
497.278
497.433
497.432
497.332
497.301
497.433
497.432
497.369
497.235
497.331
497.369
497.28
497.237
497.289
497.332
497.229
497.244
497.334
497.37
497.278
497.23
497.281
497.215
497.213
497.238
497.239
497.229
497.281
497.238
497.238
497.281
497.23
497.214
497.236
497.228
497.237
497.279
497.277
497.276
497.299
497.287
497.333
497.332
497.369
497.231
497.299
497.276
497.333
497.286
497.369
497.332
497.236
497.227
497.28
497.237
497.234
497.234
497.277
497.225
497.298
497.227
497.274
497.33
497.368
497.283
497.33
497.277
497.276
497.231
497.369
497.332
497.332
497.286
497.28
497.236
497.227
497.212
497.235
497.226
497.278
497.235
497.279
497.228
497.234
497.212
497.228
497.235
497.236
497.28
497.277
497.286
497.333
497.275
497.3
497.332
497.37
497.234
497.334
497.288
497.3
497.277
497.37
497.333
497.229
497.237
497.28
497.238
497.286
497.275
497.332
497.276
497.332
497.3
497.369
497.229
497.332
497.277
497.332
497.277
497.369
497.3
497.33
497.229
497.285
497.3
497.369
497.275
497.331
497.276
497.286
497.231
497.369
497.3
497.332
497.276
497.229
497.236
497.28
497.235
497.331
497.23
497.275
497.331
497.369
497.275
497.299
497.285
497.275
497.229
497.369
497.331
497.299
497.275
497.279
497.235
497.234
497.235
497.238
497.281
497.233
497.299
497.333
497.37
497.231
497.275
497.288
497.333
497.275
497.369
497.331
497.276
497.228
497.332
497.284
497.279
497.236
497.226
497.334
497.301
497.37
497.236
497.291
497.28
497.335
497.276
497.369
497.3
497.286
497.233
497.332
497.277
497.37
497.277
497.332
497.28
497.335
497.234
497.289
497.3
497.332
497.276
497.332
497.276
497.287
497.231
497.279
497.235
497.23
497.369
497.275
497.3
497.287
497.332
497.231
497.277
497.332
497.3
497.277
497.333
497.288
497.277
497.235
497.237
497.236
497.23
497.219
497.235
497.231
497.28
497.236
497.279
497.227
497.236
497.212
497.233
497.24
497.283
497.241
497.333
497.334
497.37
497.236
497.278
497.279
497.301
497.286
497.37
497.332
497.276
497.23
497.3
497.276
497.28
497.237
497.235
497.284
497.232
497.238
497.37
497.287
497.333
497.277
497.3
497.231
497.277
497.332
497.333
497.287
497.3
497.275
497.276
497.231
497.235
497.228
497.234
497.217
497.28
497.237
497.238
497.231
497.237
497.237
)
;

boundaryField
{
    sphere_to_oil
    {
        type            compressible::turbulentTemperatureCoupledBaffleMixed;
        refValue        nonuniform List<scalar> 
360
(
308.995
308.995
302.465
320.432
321.609
302.951
322.26
322.26
322.26
308.988
308.988
302.944
303.256
302.184
308.181
322.371
321.076
321.076
321.076
302.189
319.144
308.279
305.643
321.22
302.493
322.103
302.945
321.91
321.91
321.91
322.549
322.02
302.458
302.444
302.912
302.948
320.862
320.862
320.862
320.407
321.597
302.545
302.951
308.932
308.932
302.924
303.213
302.123
308.466
322.28
303.009
302.954
303.195
303.245
302.113
308.165
321.424
302.161
302.925
303.155
302.205
322.036
322.036
322.036
302.121
321.558
308.327
305.244
322.152
322.152
322.152
321.48
321.166
302.137
318.527
307.833
302.178
305.311
321.467
321.489
305.7
305.117
305.553
302.215
302.466
302.935
303.003
303.23
302.136
302.214
302.475
303.227
302.991
302.462
303.199
302.97
302.986
302.933
302.492
302.191
302.213
302.14
302.954
302.998
303.231
302.128
302.242
303.262
302.509
302.974
302.997
302.952
302.499
302.146
302.233
302.217
305.443
305.265
305.43
309.044
309.044
320.432
320.432
321.22
321.22
321.166
321.166
321.166
321.088
321.088
321.088
305.467
305.191
305.379
302.244
321.609
321.609
308.904
308.904
322.549
322.549
308.077
308.077
322.388
322.388
322.388
302.232
302.24
322.673
322.673
322.673
323.384
323.384
323.384
322.371
319.144
308.181
322.371
321.741
302.153
321.741
321.741
305.601
305.449
305.388
308.087
308.087
322.446
322.446
322.446
302.131
319.144
308.279
322.288
322.288
302.146
322.288
305.691
305.347
302.15
302.924
302.963
303.269
302.472
303.213
302.976
302.141
302.218
322.103
322.103
322.02
322.02
308.9
308.9
320.626
320.626
320.626
308.597
308.597
302.196
302.908
302.978
303.265
302.955
302.945
303.268
302.484
303.252
302.936
302.475
320.407
303.263
302.981
302.18
321.515
321.515
321.515
308.449
308.449
302.129
302.978
302.981
303.136
321.597
302.474
303.118
302.952
320.407
321.597
308.412
302.128
308.412
302.178
302.227
303.203
302.488
302.968
302.956
302.992
302.472
302.135
322.415
319.461
322.415
322.415
319.461
319.461
322.28
321.558
308.466
321.566
302.218
322.28
321.566
321.566
303.145
302.474
303.019
303.22
302.488
321.48
302.923
302.954
302.998
302.481
321.424
318.527
302.945
302.968
302.484
320.21
321.921
308.165
321.731
302.222
321.424
321.731
321.731
303.203
302.503
321.467
302.955
302.91
302.926
321.662
302.502
321.214
308.498
320.21
308.498
321.662
320.21
321.662
302.127
305.076
304.988
305.103
308.733
320.848
308.733
320.848
320.848
302.171
321.558
321.766
308.327
321.766
302.204
321.766
305.373
305.35
302.103
320.383
308.218
320.383
320.383
308.218
302.174
302.936
302.971
303.253
321.166
321.48
308.435
302.208
321.166
308.435
302.162
318.527
322.282
307.833
322.282
302.059
322.282
303.263
321.489
302.509
302.954
321.602
320.78
321.921
308.254
321.921
321.602
308.254
321.602
305.105
305.593
321.467
308.506
302.155
321.489
308.506
302.213
321.214
320.78
321.214
308.73
320.78
308.73
)
;
        refGradient     uniform 0;
        valueFraction   nonuniform List<scalar> 
360
(
0.000127863
0.000122666
7.85324e-05
0.000280562
0.000287744
0.000164984
0.000289532
0.000248521
0.000386854
0.000123161
0.00012008
0.000161086
0.0002455
7.0195e-05
0.00012557
0.000244102
0.000279738
0.000261371
0.000366778
6.42319e-05
0.00024081
0.000118381
0.000109109
0.000289548
8.40626e-05
0.000297622
0.000167752
0.000293777
0.000384477
0.000257177
0.000293829
0.000296359
7.95747e-05
7.86857e-05
0.000165121
0.000162495
0.000274978
0.000372797
0.000255983
0.00038491
0.000380212
8.118e-05
0.000161017
0.00011752
0.000117379
0.000165755
0.000247984
6.61624e-05
0.000118387
0.000251044
0.000163515
0.000164577
0.000245317
0.000242933
6.86354e-05
0.000125561
0.000256059
6.57508e-05
0.000162885
0.000242895
6.43584e-05
0.00028597
0.000252439
0.000395114
6.63514e-05
0.000258109
0.000120393
0.000116447
0.000292577
0.000381692
0.000256741
0.000368074
0.000373226
7.12743e-05
0.000248837
0.000126233
6.57134e-05
0.000117837
0.000372431
0.000386888
0.000115576
0.000113395
0.000111378
6.61916e-05
7.98212e-05
0.000161824
0.00016273
0.000246436
7.43911e-05
6.28118e-05
7.89977e-05
0.000246035
0.000162423
8.06968e-05
0.000245629
0.000164277
0.000163305
0.000163556
7.9759e-05
6.3931e-05
6.48278e-05
6.39652e-05
0.00016444
0.000161622
0.00024585
7.23831e-05
6.2872e-05
0.000245671
7.80473e-05
0.000161876
0.000161906
0.000165209
8.0787e-05
6.46897e-05
6.30893e-05
6.43083e-05
0.000111942
0.000112077
0.000116431
0.000126249
0.000118656
0.000245181
0.000386257
0.000258315
0.000389811
0.000249856
0.000384154
0.000286017
0.000250058
0.000375792
0.000281679
0.000114891
0.000108651
0.000111286
6.1432e-05
0.000254789
0.000383637
0.000118686
0.000119228
0.0003877
0.00025776
0.000124417
0.000131129
0.000382927
0.000263042
0.000303108
6.76096e-05
6.29179e-05
0.000265576
0.000368034
0.000291715
0.000273444
0.000380777
0.000291684
0.000301155
0.0002774
0.000129756
0.000386786
0.000249831
6.96506e-05
0.00037593
0.000281311
0.000107353
0.000113101
0.000111889
0.000118034
0.000123384
0.000384853
0.000253393
0.000297436
7.13118e-05
0.00037021
0.000126935
0.000389287
0.000249197
6.96562e-05
0.000295479
0.000108306
0.00010931
6.38641e-05
0.000167393
0.000167327
0.000247419
8.25089e-05
0.000247793
0.000163044
6.32082e-05
6.13774e-05
0.000387248
0.000246041
0.000382701
0.000255138
0.000121697
0.000113809
0.000384486
0.000240286
0.000277755
0.000112496
0.00013053
6.56679e-05
0.000164452
0.000164302
0.000245479
0.000160733
0.000161561
0.000244513
8.38096e-05
0.000245351
0.000166358
8.15023e-05
0.000276176
0.000245079
0.000165361
6.59018e-05
0.000376084
0.000243797
0.00028525
0.000118833
0.000110431
6.37876e-05
0.000163173
0.000165917
0.000246002
0.000279712
7.82267e-05
0.000243667
0.00015914
0.000242069
0.000256267
0.000116324
6.53368e-05
0.00012908
6.61447e-05
6.22627e-05
0.000248749
8.30151e-05
0.00016723
0.000165297
0.000163327
8.19717e-05
6.26141e-05
0.000254348
0.000238329
0.000400123
0.000297823
0.000373289
0.000268199
0.000287465
0.000294324
0.00013082
0.000252488
6.80232e-05
0.000384243
0.000373619
0.000283862
0.000247566
7.88856e-05
0.000161086
0.000244719
7.95925e-05
0.000291624
0.000161784
0.00016294
0.000161438
7.91096e-05
0.000289444
0.000271233
0.000164708
0.00016045
8.06333e-05
0.000271769
0.000299147
0.000118632
0.000268534
6.37733e-05
0.000382593
0.000370926
0.000280268
0.000242904
7.97978e-05
0.000280709
0.000161625
0.000161874
0.000162795
0.000282237
8.05453e-05
0.000288363
0.000121331
0.000248618
0.000122344
0.000253351
0.000386104
0.000379045
6.37435e-05
0.00012774
0.000126231
0.000123465
0.000112435
0.000376195
0.000122801
0.000250087
0.000294495
6.28144e-05
0.00037987
0.000379411
0.000124195
0.000269758
6.58271e-05
0.000289205
0.000110109
0.00010817
6.57726e-05
0.000372064
0.000111186
0.000243991
0.000287363
0.000119202
6.49811e-05
0.000161687
0.000161632
0.000243897
0.0002791
0.000242077
0.000117037
6.29978e-05
0.000246132
0.000129988
7.27581e-05
0.00035669
0.000383016
0.000113191
0.000243293
6.74502e-05
0.000305983
0.000245766
0.000294479
8.05544e-05
0.000162382
0.000283915
0.000275249
0.000258948
0.000115739
0.000379333
0.000378517
0.000137392
0.000253007
0.000111315
0.000113023
0.000254709
0.000126082
6.81686e-05
0.000257604
0.000121406
6.29527e-05
0.000374943
0.000379443
0.000249651
0.000121152
0.000245226
0.000125147
)
;
        value           nonuniform List<scalar> 
360
(
497.238
497.24
497.242
497.208
497.207
497.269
497.205
497.217
497.184
497.235
497.236
497.268
497.276
497.249
497.239
497.22
497.203
497.214
497.186
497.25
497.22
497.24
497.215
497.205
497.24
497.204
497.269
497.207
497.186
497.217
497.202
497.202
497.238
497.238
497.266
497.269
497.205
497.188
497.215
497.185
497.186
497.239
497.269
497.238
497.24
497.268
497.276
497.247
497.238
497.216
497.271
497.269
497.278
497.278
497.246
497.236
497.215
497.249
497.268
497.278
497.249
497.206
497.216
497.186
497.249
497.217
497.239
497.214
497.21
497.191
497.22
497.189
497.188
497.255
497.224
497.245
497.247
497.219
497.189
497.186
497.218
497.218
497.219
497.249
497.246
497.269
497.27
497.277
497.244
497.249
497.24
497.277
497.27
497.239
497.277
497.268
497.269
497.269
497.241
497.25
497.25
497.249
497.27
497.269
497.276
497.247
497.246
497.275
497.237
497.267
497.27
497.268
497.24
497.248
497.251
497.251
497.217
497.217
497.216
497.239
497.241
497.219
497.186
497.218
497.185
497.218
497.187
497.205
497.219
497.188
497.209
497.216
497.218
497.217
497.249
497.216
497.185
497.239
497.239
497.185
497.216
497.237
497.237
497.185
497.216
497.201
497.249
497.246
497.212
497.186
497.201
497.211
497.184
497.203
497.203
497.206
497.236
497.184
497.217
497.247
497.186
497.206
497.216
497.215
497.215
497.238
497.236
497.183
497.215
497.202
497.246
497.187
497.235
497.185
497.215
497.245
497.202
497.216
497.215
497.248
497.27
497.268
497.277
497.242
497.277
497.27
497.25
497.249
497.185
497.217
497.185
497.216
497.237
497.24
497.186
497.221
497.204
497.241
497.238
497.25
497.268
497.269
497.277
497.27
497.27
497.277
497.237
497.277
497.267
497.24
497.207
497.277
497.268
497.248
497.187
497.217
497.204
497.238
497.239
497.248
497.268
497.267
497.276
497.205
497.239
497.277
497.269
497.217
497.214
497.238
497.247
497.235
497.246
497.248
497.276
497.239
497.268
497.268
497.269
497.237
497.25
497.215
497.22
497.187
497.204
497.191
497.213
497.202
497.201
497.236
497.217
497.248
497.184
497.185
497.208
497.278
497.246
497.273
497.277
497.242
497.206
497.27
497.27
497.274
497.244
497.208
497.211
497.269
497.27
497.24
497.208
497.204
497.238
497.213
497.248
497.188
497.19
497.207
497.277
497.24
497.207
497.27
497.27
497.271
497.21
497.244
497.209
497.239
497.218
497.238
497.217
497.187
497.189
497.248
497.219
497.219
497.22
497.239
497.189
497.238
497.217
497.209
497.249
497.185
497.185
497.237
497.213
497.248
497.204
497.216
497.216
497.252
497.192
497.244
497.222
497.21
497.243
497.253
497.271
497.273
497.278
497.205
497.219
497.24
497.25
497.217
497.235
497.246
497.193
497.19
497.241
497.22
497.249
497.202
497.277
497.204
497.24
497.27
497.206
497.208
497.215
497.238
497.186
497.186
497.232
497.214
497.22
497.22
497.217
497.238
497.248
497.217
497.239
497.25
497.189
497.188
497.218
497.239
497.218
497.238
)
;
        Tnbr            T;
        thicknessLayers 0();
        kappaLayers     0();
        kappaMethod     solidThermo;
        kappa           none;
        alphaAni        none;
    }
}


// ************************************************************************* //
