/*--------------------------------*- C++ -*----------------------------------*\
| =========                 |                                                 |
| \\      /  F ield         | OpenFOAM: The Open Source CFD Toolbox           |
|  \\    /   O peration     | Version:  v1906                                 |
|   \\  /    A nd           | Web:      www.OpenFOAM.com                      |
|    \\/     M anipulation  |                                                 |
\*---------------------------------------------------------------------------*/
FoamFile
{
    version     2.0;
    format      ascii;
    class       volVectorField;
    location    "16.6/oil";
    object      U;
}
// * * * * * * * * * * * * * * * * * * * * * * * * * * * * * * * * * * * * * //

dimensions      [0 1 -1 0 0 0 0];


internalField   nonuniform List<vector> 
27760
(
(-3.09292e-05 -3.15594e-05 -3.09292e-05)
(-6.10957e-05 -2.36888e-05 -2.22694e-05)
(-4.54757e-06 -6.15927e-06 -6.05615e-06)
(-7.50994e-06 -1.02599e-06 -1.05457e-06)
(-1.91515e-06 -3.51488e-07 -3.79081e-07)
(-1.16444e-06 -1.72633e-07 -1.94283e-07)
(-4.90849e-07 -6.76813e-08 -8.70438e-08)
(-1.99665e-07 -2.73933e-08 -4.64975e-08)
(-4.19875e-08 -7.77368e-09 -2.72858e-08)
(3.63914e-08 1.90049e-09 -1.81121e-08)
(7.04992e-08 7.26018e-09 -1.31669e-08)
(7.6083e-08 1.05133e-08 -1.01634e-08)
(6.23781e-08 1.26061e-08 -8.22995e-09)
(3.54553e-08 1.39003e-08 -7.00644e-09)
(2.54683e-10 1.45792e-08 -6.34501e-09)
(-3.87302e-08 1.47537e-08 -6.16572e-09)
(-7.73541e-08 1.44802e-08 -6.41204e-09)
(-1.11933e-07 1.38197e-08 -7.00637e-09)
(-1.3948e-07 1.28149e-08 -7.85591e-09)
(-1.57898e-07 1.15463e-08 -8.8317e-09)
(-1.66047e-07 1.01103e-08 -9.78479e-09)
(-1.63764e-07 8.58819e-09 -1.05717e-08)
(-1.51816e-07 7.0352e-09 -1.10534e-08)
(-1.31746e-07 5.50622e-09 -1.107e-08)
(-1.05774e-07 4.02028e-09 -1.05409e-08)
(-7.67237e-08 2.62683e-09 -9.38524e-09)
(-4.78819e-08 1.44611e-09 -7.58535e-09)
(-2.29303e-08 7.21934e-10 -5.27577e-09)
(-5.45644e-09 8.76092e-10 -2.91983e-09)
(9.47923e-10 1.73011e-09 -8.15636e-10)
(-2.246e-05 -6.27513e-05 -2.246e-05)
(-7.45156e-06 -8.02134e-06 -1.00612e-05)
(-1.02191e-05 -9.66875e-06 -3.51373e-06)
(-5.06226e-06 -2.62195e-06 -9.97188e-07)
(-2.47476e-06 -1.4878e-06 -4.85994e-07)
(-1.37991e-06 -7.00978e-07 -2.2988e-07)
(-6.49031e-07 -3.74122e-07 -1.06918e-07)
(-2.58457e-07 -2.10177e-07 -5.11334e-08)
(-3.07203e-08 -1.2669e-07 -2.25961e-08)
(9.12963e-08 -8.04602e-08 -7.33394e-09)
(1.45162e-07 -5.28123e-08 1.80182e-09)
(1.50691e-07 -3.50073e-08 7.77979e-09)
(1.21066e-07 -2.31251e-08 1.18636e-08)
(6.63759e-08 -1.53996e-08 1.45712e-08)
(-4.31346e-09 -1.10164e-08 1.60668e-08)
(-8.2419e-08 -9.5218e-09 1.64141e-08)
(-1.59849e-07 -1.05705e-08 1.5706e-08)
(-2.29352e-07 -1.37716e-08 1.40956e-08)
(-2.84989e-07 -1.86626e-08 1.1823e-08)
(-3.22522e-07 -2.46989e-08 9.15725e-09)
(-3.39676e-07 -3.12996e-08 6.38111e-09)
(-3.36163e-07 -3.791e-08 3.77055e-09)
(-3.13522e-07 -4.40139e-08 1.58461e-09)
(-2.7487e-07 -4.91022e-08 3.99395e-11)
(-2.24613e-07 -5.26529e-08 -7.20347e-10)
(-1.68169e-07 -5.39666e-08 -6.31527e-10)
(-1.11638e-07 -5.2001e-08 2.34706e-10)
(-6.13269e-08 -4.52452e-08 1.55914e-09)
(-2.31505e-08 -3.16342e-08 2.56258e-09)
(-1.8276e-09 -1.10059e-08 2.02506e-09)
(-6.23057e-06 -5.71047e-06 -6.23059e-06)
(-9.95462e-06 -1.05993e-05 -3.62265e-06)
(-5.51325e-06 -5.5893e-06 -1.61292e-06)
(-3.69894e-06 -2.82911e-06 -7.72866e-07)
(-2.07475e-06 -1.67484e-06 -3.73546e-07)
(-1.17976e-06 -9.71645e-07 -1.79743e-07)
(-5.70124e-07 -6.18953e-07 -8.23347e-08)
(-2.04142e-07 -4.22255e-07 -3.40289e-08)
(2.15502e-08 -3.10173e-07 -7.65335e-09)
(1.47037e-07 -2.41862e-07 7.6966e-09)
(2.00912e-07 -1.97621e-07 1.76711e-08)
(2.00195e-07 -1.67447e-07 2.46631e-08)
(1.57745e-07 -1.46497e-07 2.96839e-08)
(8.464e-08 -1.32437e-07 3.30897e-08)
(-8.38203e-09 -1.24167e-07 3.49682e-08)
(-1.10652e-07 -1.21028e-07 3.53617e-08)
(-2.11892e-07 -1.22412e-07 3.43638e-08)
(-3.02793e-07 -1.27586e-07 3.21586e-08)
(-3.75714e-07 -1.35607e-07 2.90325e-08)
(-4.25238e-07 -1.45408e-07 2.53272e-08)
(-4.48465e-07 -1.55857e-07 2.14089e-08)
(-4.45065e-07 -1.65832e-07 1.76275e-08)
(-4.17048e-07 -1.74231e-07 1.42873e-08)
(-3.68433e-07 -1.7994e-07 1.16248e-08)
(-3.04794e-07 -1.81695e-07 9.7816e-09)
(-2.32829e-07 -1.77874e-07 8.78586e-09)
(-1.5986e-07 -1.662e-07 8.50009e-09)
(-9.3081e-08 -1.43465e-07 8.4878e-09)
(-3.9429e-08 -1.05047e-07 7.83384e-09)
(-4.30219e-09 -4.56839e-08 4.55539e-09)
(-1.14609e-06 -8.11367e-06 -1.14612e-06)
(-2.8119e-06 -5.5787e-06 -1.06041e-06)
(-2.68775e-06 -4.12522e-06 -7.84946e-07)
(-2.10458e-06 -2.57071e-06 -4.33945e-07)
(-1.32956e-06 -1.71711e-06 -2.28577e-07)
(-7.82432e-07 -1.16586e-06 -1.14511e-07)
(-3.62549e-07 -8.50295e-07 -5.04508e-08)
(-7.87569e-08 -6.57298e-07 -1.5052e-08)
(1.07479e-07 -5.37067e-07 6.20512e-09)
(2.13568e-07 -4.57922e-07 1.9901e-08)
(2.5498e-07 -4.03246e-07 2.96219e-08)
(2.42893e-07 -3.64056e-07 3.69106e-08)
(1.87622e-07 -3.35838e-07 4.23734e-08)
(9.96072e-08 -3.16406e-07 4.61619e-08)
(-9.99715e-09 -3.04692e-07 4.82541e-08)
(-1.29518e-07 -2.99964e-07 4.86475e-08)
(-2.47443e-07 -3.01434e-07 4.74236e-08)
(-3.53208e-07 -3.08054e-07 4.47804e-08)
(-4.38111e-07 -3.18437e-07 4.10457e-08)
(-4.96008e-07 -3.30972e-07 3.66106e-08)
(-5.23647e-07 -3.43915e-07 3.18991e-08)
(-5.20736e-07 -3.55521e-07 2.73049e-08)
(-4.89632e-07 -3.64052e-07 2.31623e-08)
(-4.34918e-07 -3.67711e-07 1.97187e-08)
(-3.62835e-07 -3.64434e-07 1.71103e-08)
(-2.80718e-07 -3.51594e-07 1.53449e-08)
(-1.96451e-07 -3.25552e-07 1.42564e-08)
(-1.17609e-07 -2.81049e-07 1.33427e-08)
(-5.19768e-08 -2.09738e-07 1.16039e-08)
(-6.12465e-09 -9.70201e-08 6.44528e-09)
(-4.017e-07 -2.37128e-06 -4.01729e-07)
(-1.51184e-06 -3.08284e-06 -5.05789e-07)
(-1.44928e-06 -2.76542e-06 -3.79089e-07)
(-1.19406e-06 -2.10314e-06 -2.29829e-07)
(-7.89284e-07 -1.63215e-06 -1.2677e-07)
(-4.46702e-07 -1.28132e-06 -6.28404e-08)
(-1.5856e-07 -1.05019e-06 -2.32185e-08)
(5.37543e-08 -8.93062e-07 1.14486e-09)
(1.98986e-07 -7.85148e-07 1.74503e-08)
(2.81162e-07 -7.07969e-07 2.92043e-08)
(3.06618e-07 -6.50846e-07 3.83547e-08)
(2.81715e-07 -6.07679e-07 4.56863e-08)
(2.14239e-07 -5.75384e-07 5.14063e-08)
(1.13611e-07 -5.52521e-07 5.54588e-08)
(-9.09155e-09 -5.38407e-07 5.7697e-08)
(-1.41715e-07 -5.32429e-07 5.80635e-08)
(-2.72022e-07 -5.33737e-07 5.66225e-08)
(-3.88644e-07 -5.41071e-07 5.35801e-08)
(-4.82189e-07 -5.52657e-07 4.9311e-08)
(-5.46056e-07 -5.66401e-07 4.42499e-08)
(-5.76829e-07 -5.80005e-07 3.88775e-08)
(-5.74314e-07 -5.91152e-07 3.36283e-08)
(-5.41152e-07 -5.97494e-07 2.88634e-08)
(-4.82319e-07 -5.96588e-07 2.48393e-08)
(-4.04464e-07 -5.856e-07 2.16913e-08)
(-3.15271e-07 -5.60885e-07 1.94144e-08)
(-2.22916e-07 -5.17323e-07 1.78274e-08)
(-1.35225e-07 -4.47196e-07 1.63865e-08)
(-6.07661e-08 -3.37287e-07 1.40245e-08)
(-7.31648e-09 -1.60486e-07 7.70775e-09)
(-1.91337e-07 -1.58772e-06 -1.91369e-07)
(-6.46626e-07 -2.13091e-06 -2.30306e-07)
(-6.93605e-07 -2.12258e-06 -1.79568e-07)
(-6.00077e-07 -1.8576e-06 -1.15128e-07)
(-3.90142e-07 -1.61617e-06 -6.36744e-08)
(-1.7705e-07 -1.40922e-06 -2.835e-08)
(1.94614e-08 -1.25457e-06 -3.99324e-09)
(1.75074e-07 -1.13821e-06 1.29307e-08)
(2.84341e-07 -1.05054e-06 2.57259e-08)
(3.43573e-07 -9.82676e-07 3.60544e-08)
(3.53182e-07 -9.29061e-07 4.48066e-08)
(3.15975e-07 -8.86459e-07 5.22291e-08)
(2.37656e-07 -8.53403e-07 5.82133e-08)
(1.26635e-07 -8.29347e-07 6.25253e-08)
(-6.2663e-09 -8.14124e-07 6.48986e-08)
(-1.48706e-07 -8.07332e-07 6.52283e-08)
(-2.88052e-07 -8.08152e-07 6.3561e-08)
(-4.12425e-07 -8.15216e-07 6.0109e-08)
(-5.11986e-07 -8.26488e-07 5.52991e-08)
(-5.79873e-07 -8.39515e-07 4.96173e-08)
(-6.12635e-07 -8.51592e-07 4.36093e-08)
(-6.10211e-07 -8.59925e-07 3.77514e-08)
(-5.75514e-07 -8.61681e-07 3.24333e-08)
(-5.13829e-07 -8.53858e-07 2.79252e-08)
(-4.3206e-07 -8.32903e-07 2.43626e-08)
(-3.3809e-07 -7.94158e-07 2.17317e-08)
(-2.40262e-07 -7.30905e-07 1.98392e-08)
(-1.46596e-07 -6.32563e-07 1.81124e-08)
(-6.62715e-08 -4.80122e-07 1.54293e-08)
(-8.01255e-09 -2.31917e-07 8.47061e-09)
(-7.42272e-08 -9.63517e-07 -7.42614e-08)
(-2.85646e-07 -1.56995e-06 -9.88385e-08)
(-3.15606e-07 -1.7608e-06 -7.96233e-08)
(-2.62128e-07 -1.73181e-06 -5.16298e-08)
(-1.33284e-07 -1.6504e-06 -2.6026e-08)
(1.22162e-08 -1.55352e-06 -6.39294e-09)
(1.53863e-07 -1.4663e-06 8.94383e-09)
(2.70844e-07 -1.39121e-06 2.11722e-08)
(3.53121e-07 -1.32814e-06 3.16635e-08)
(3.93777e-07 -1.27485e-06 4.10595e-08)
(3.90108e-07 -1.22974e-06 4.9605e-08)
(3.42747e-07 -1.19201e-06 5.7186e-08)
(2.55957e-07 -1.16159e-06 6.3451e-08)
(1.37354e-07 -1.13877e-06 6.80207e-08)
(-2.54542e-09 -1.12388e-06 7.05188e-08)
(-1.51385e-07 -1.11673e-06 7.0808e-08)
(-2.96419e-07 -1.11659e-06 6.89195e-08)
(-4.25499e-07 -1.12212e-06 6.50612e-08)
(-5.28546e-07 -1.13117e-06 5.97166e-08)
(-5.98596e-07 -1.14114e-06 5.3427e-08)
(-6.32228e-07 -1.14906e-06 4.68047e-08)
(-6.29574e-07 -1.1519e-06 4.03713e-08)
(-5.93792e-07 -1.14648e-06 3.45523e-08)
(-5.30387e-07 -1.12937e-06 2.96259e-08)
(-4.46432e-07 -1.09638e-06 2.57299e-08)
(-3.49888e-07 -1.04185e-06 2.28413e-08)
(-2.49151e-07 -9.57348e-07 2.07572e-08)
(-1.52331e-07 -8.29135e-07 1.88866e-08)
(-6.8958e-08 -6.31766e-07 1.6069e-08)
(-8.32135e-09 -3.07855e-07 8.83863e-09)
(-2.98882e-08 -7.45174e-07 -2.99235e-08)
(-1.11275e-07 -1.35335e-06 -4.05267e-08)
(-1.13153e-07 -1.63195e-06 -3.18459e-08)
(-6.55663e-08 -1.72626e-06 -1.86621e-08)
(2.82865e-08 -1.74403e-06 -5.21091e-09)
(1.37739e-07 -1.7237e-06 6.44266e-09)
(2.46309e-07 -1.69002e-06 1.68493e-08)
(3.37383e-07 -1.6521e-06 2.63603e-08)
(4.0019e-07 -1.61452e-06 3.54725e-08)
(4.26837e-07 -1.57885e-06 4.43223e-08)
(4.13186e-07 -1.54603e-06 5.27941e-08)
(3.58649e-07 -1.51682e-06 6.05444e-08)
(2.66565e-07 -1.49218e-06 6.70507e-08)
(1.4393e-07 -1.47298e-06 7.18343e-08)
(9.26583e-10 -1.45984e-06 7.44247e-08)
(-1.5028e-07 -1.45273e-06 7.46733e-08)
(-2.97141e-07 -1.45104e-06 7.25987e-08)
(-4.27517e-07 -1.45358e-06 6.83921e-08)
(-5.31281e-07 -1.45827e-06 6.25918e-08)
(-6.01514e-07 -1.46257e-06 5.57787e-08)
(-6.34911e-07 -1.46352e-06 4.86297e-08)
(-6.31797e-07 -1.45802e-06 4.17122e-08)
(-5.95522e-07 -1.44278e-06 3.5485e-08)
(-5.31711e-07 -1.41407e-06 3.02312e-08)
(-4.47495e-07 -1.36718e-06 2.60883e-08)
(-3.50777e-07 -1.29544e-06 2.3023e-08)
(-2.49858e-07 -1.18863e-06 2.08286e-08)
(-1.52782e-07 -1.02971e-06 1.8906e-08)
(-6.91143e-08 -7.86474e-07 1.60845e-08)
(-8.30611e-09 -3.85328e-07 8.87332e-09)
(-9.83469e-09 -6.63953e-07 -9.87057e-09)
(-2.93314e-08 -1.28861e-06 -1.2838e-08)
(-8.58616e-09 -1.62199e-06 -8.31995e-09)
(4.24846e-08 -1.79128e-06 -1.6237e-09)
(1.21462e-07 -1.87552e-06 5.96102e-09)
(2.11321e-07 -1.91083e-06 1.34841e-08)
(2.99539e-07 -1.9203e-06 2.11558e-08)
(3.73136e-07 -1.91556e-06 2.90452e-08)
(4.22139e-07 -1.90331e-06 3.72638e-08)
(4.38811e-07 -1.88714e-06 4.57034e-08)
(4.18588e-07 -1.86934e-06 5.40565e-08)
(3.6031e-07 -1.85161e-06 6.18491e-08)
(2.66759e-07 -1.83541e-06 6.84464e-08)
(1.44418e-07 -1.82184e-06 7.33138e-08)
(3.03386e-09 -1.81166e-06 7.59116e-08)
(-1.45698e-07 -1.8049e-06 7.61214e-08)
(-2.89797e-07 -1.80108e-06 7.39527e-08)
(-4.17469e-07 -1.79923e-06 6.95436e-08)
(-5.18802e-07 -1.79754e-06 6.34722e-08)
(-5.87071e-07 -1.79371e-06 5.63405e-08)
(-6.19117e-07 -1.78503e-06 4.88772e-08)
(-6.15445e-07 -1.76857e-06 4.1676e-08)
(-5.79501e-07 -1.74112e-06 3.52144e-08)
(-5.16915e-07 -1.6988e-06 2.97835e-08)
(-4.34691e-07 -1.63648e-06 2.55161e-08)
(-3.40507e-07 -1.54655e-06 2.23751e-08)
(-2.42378e-07 -1.41702e-06 2.01491e-08)
(-1.48075e-07 -1.22745e-06 1.82495e-08)
(-6.68763e-08 -9.38851e-07 1.55356e-08)
(-7.99638e-09 -4.61592e-07 8.60398e-09)
(-1.29293e-09 -6.53983e-07 -1.32927e-09)
(8.74707e-09 -1.30668e-06 -3.87901e-10)
(4.26987e-08 -1.67965e-06 2.55906e-09)
(9.63813e-08 -1.89785e-06 6.45495e-09)
(1.66914e-07 -2.02816e-06 1.12217e-08)
(2.43943e-07 -2.10476e-06 1.65808e-08)
(3.17919e-07 -2.14915e-06 2.26674e-08)
(3.78647e-07 -2.17363e-06 2.94745e-08)
(4.17431e-07 -2.18569e-06 3.69685e-08)
(4.27218e-07 -2.18972e-06 4.49337e-08)
(4.03563e-07 -2.18858e-06 5.29703e-08)
(3.4513e-07 -2.18424e-06 6.05474e-08)
(2.54362e-07 -2.17825e-06 6.69701e-08)
(1.37226e-07 -2.17173e-06 7.17032e-08)
(2.85592e-09 -2.16537e-06 7.41846e-08)
(-1.37851e-07 -2.15918e-06 7.4357e-08)
(-2.73963e-07 -2.15281e-06 7.22224e-08)
(-3.94417e-07 -2.14553e-06 6.78387e-08)
(-4.89788e-07 -2.13591e-06 6.17953e-08)
(-5.53726e-07 -2.12208e-06 5.46714e-08)
(-5.8329e-07 -2.10174e-06 4.72139e-08)
(-5.79098e-07 -2.07235e-06 4.00295e-08)
(-5.44555e-07 -2.03093e-06 3.36008e-08)
(-4.85115e-07 -1.97366e-06 2.82157e-08)
(-4.07437e-07 -1.89502e-06 2.39983e-08)
(-3.18772e-07 -1.78659e-06 2.09083e-08)
(-2.26621e-07 -1.63465e-06 1.87452e-08)
(-1.38233e-07 -1.4155e-06 1.695e-08)
(-6.22868e-08 -1.0836e-06 1.44456e-08)
(-7.40235e-09 -5.34002e-07 8.04137e-09)
(2.19816e-09 -6.73817e-07 2.15979e-09)
(2.42852e-08 -1.36142e-06 4.76799e-09)
(6.29183e-08 -1.76698e-06 6.99939e-09)
(1.15151e-07 -2.02031e-06 9.56597e-09)
(1.77694e-07 -2.1844e-06 1.28609e-08)
(2.4361e-07 -2.29264e-06 1.6939e-08)
(3.05518e-07 -2.36561e-06 2.19233e-08)
(3.55401e-07 -2.41558e-06 2.78022e-08)
(3.85956e-07 -2.45015e-06 3.44831e-08)
(3.91061e-07 -2.47388e-06 4.17202e-08)
(3.66719e-07 -2.4896e-06 4.90873e-08)
(3.11668e-07 -2.4992e-06 5.60518e-08)
(2.28098e-07 -2.50406e-06 6.19281e-08)
(1.21383e-07 -2.50509e-06 6.62316e-08)
(-2.13567e-10 -2.50285e-06 6.84267e-08)
(-1.27e-07 -2.49734e-06 6.85622e-08)
(-2.49525e-07 -2.48833e-06 6.6635e-08)
(-3.57906e-07 -2.4753e-06 6.25842e-08)
(-4.43551e-07 -2.45717e-06 5.69611e-08)
(-5.00685e-07 -2.43255e-06 5.02803e-08)
(-5.26627e-07 -2.39968e-06 4.32751e-08)
(-5.2203e-07 -2.3565e-06 3.65189e-08)
(-4.9011e-07 -2.30045e-06 3.04769e-08)
(-4.35917e-07 -2.22784e-06 2.54248e-08)
(-3.65535e-07 -2.13296e-06 2.14817e-08)
(-2.85521e-07 -2.00662e-06 1.86086e-08)
(-2.02621e-07 -1.83357e-06 1.66185e-08)
(-1.23333e-07 -1.58704e-06 1.50134e-08)
(-5.54042e-08 -1.2155e-06 1.28273e-08)
(-6.52987e-09 -5.9996e-07 7.19222e-09)
(3.20595e-09 -7.04014e-07 3.16624e-09)
(2.75337e-08 -1.42721e-06 6.14439e-09)
(6.40853e-08 -1.86008e-06 7.90707e-09)
(1.10238e-07 -2.13974e-06 9.72916e-09)
(1.62765e-07 -2.32918e-06 1.21238e-08)
(2.16754e-07 -2.46189e-06 1.52848e-08)
(2.66575e-07 -2.55798e-06 1.93231e-08)
(3.06049e-07 -2.62957e-06 2.42328e-08)
(3.2929e-07 -2.68403e-06 2.9909e-08)
(3.31269e-07 -2.72571e-06 3.61163e-08)
(3.08635e-07 -2.75711e-06 4.24531e-08)
(2.60317e-07 -2.77984e-06 4.84313e-08)
(1.88225e-07 -2.79493e-06 5.3428e-08)
(9.69834e-08 -2.80309e-06 5.70511e-08)
(-6.32225e-09 -2.80472e-06 5.88334e-08)
(-1.13573e-07 -2.79996e-06 5.89294e-08)
(-2.17137e-07 -2.78861e-06 5.73306e-08)
(-3.08711e-07 -2.77022e-06 5.38641e-08)
(-3.80881e-07 -2.74402e-06 4.90156e-08)
(-4.28676e-07 -2.70902e-06 4.31954e-08)
(-4.49804e-07 -2.66403e-06 3.70672e-08)
(-4.449e-07 -2.60757e-06 3.11441e-08)
(-4.16819e-07 -2.53751e-06 2.58493e-08)
(-3.69955e-07 -2.45038e-06 2.14294e-08)
(-3.09576e-07 -2.3404e-06 1.79899e-08)
(-2.41283e-07 -2.19779e-06 1.55007e-08)
(-1.70805e-07 -2.00591e-06 1.38031e-08)
(-1.03652e-07 -1.7354e-06 1.24789e-08)
(-4.63567e-08 -1.32949e-06 1.0712e-08)
(-5.39386e-09 -6.56947e-07 6.07177e-09)
(2.94914e-09 -7.33526e-07 2.90449e-09)
(2.36171e-08 -1.48773e-06 5.46837e-09)
(5.29469e-08 -1.94226e-06 6.77531e-09)
(8.88099e-08 -2.24142e-06 8.05606e-09)
(1.28562e-07 -2.44957e-06 9.76417e-09)
(1.68817e-07 -2.60072e-06 1.21048e-08)
(2.05524e-07 -2.71479e-06 1.51707e-08)
(2.34195e-07 -2.80371e-06 1.89546e-08)
(2.5042e-07 -2.8745e-06 2.336e-08)
(2.50376e-07 -2.93114e-06 2.81853e-08)
(2.31466e-07 -2.97574e-06 3.3095e-08)
(1.92862e-07 -3.00944e-06 3.76953e-08)
(1.36113e-07 -3.03295e-06 4.14757e-08)
(6.4869e-08 -3.04686e-06 4.41628e-08)
(-1.52891e-08 -3.05161e-06 4.54174e-08)
(-9.81168e-08 -3.04755e-06 4.54666e-08)
(-1.77968e-07 -3.03454e-06 4.43061e-08)
(-2.48437e-07 -3.01199e-06 4.16817e-08)
(-3.03672e-07 -2.97924e-06 3.79549e-08)
(-3.3977e-07 -2.93558e-06 3.3418e-08)
(-3.54944e-07 -2.88029e-06 2.86092e-08)
(-3.49782e-07 -2.81242e-06 2.39425e-08)
(-3.26613e-07 -2.73031e-06 1.97701e-08)
(-2.8897e-07 -2.63078e-06 1.62885e-08)
(-2.41041e-07 -2.50801e-06 1.35909e-08)
(-1.8723e-07 -2.35178e-06 1.16561e-08)
(-1.32023e-07 -2.14443e-06 1.03666e-08)
(-7.97212e-08 -1.85448e-06 9.40549e-09)
(-3.53892e-08 -1.4209e-06 8.15108e-09)
(-4.02513e-09 -7.02655e-07 4.7126e-09)
(1.99794e-09 -7.55955e-07 1.9499e-09)
(1.53341e-08 -1.53256e-06 3.62543e-09)
(3.37276e-08 -2.00205e-06 4.43123e-09)
(5.5938e-08 -2.3143e-06 5.22563e-09)
(8.03431e-08 -2.53519e-06 6.31818e-09)
(1.04978e-07 -2.69921e-06 7.85756e-09)
(1.27351e-07 -2.82619e-06 9.89998e-09)
(1.44633e-07 -2.92787e-06 1.24462e-08)
(1.53964e-07 -3.01092e-06 1.54321e-08)
(1.5279e-07 -3.07889e-06 1.87172e-08)
(1.39349e-07 -3.13347e-06 2.20662e-08)
(1.13014e-07 -3.17544e-06 2.52039e-08)
(7.47667e-08 -3.20521e-06 2.77722e-08)
(2.70245e-08 -3.22335e-06 2.95898e-08)
(-2.64462e-08 -3.23036e-06 3.04171e-08)
(-8.14143e-08 -3.2269e-06 3.04151e-08)
(-1.34093e-07 -3.21286e-06 2.95847e-08)
(-1.80132e-07 -3.18744e-06 2.77362e-08)
(-2.15585e-07 -3.14998e-06 2.51404e-08)
(-2.37914e-07 -3.0999e-06 2.19935e-08)
(-2.4602e-07 -3.03688e-06 1.86829e-08)
(-2.40463e-07 -2.96036e-06 1.5487e-08)
(-2.22953e-07 -2.8691e-06 1.26482e-08)
(-1.95987e-07 -2.76018e-06 1.03017e-08)
(-1.62443e-07 -2.62786e-06 8.50553e-09)
(-1.2533e-07 -2.46161e-06 7.24485e-09)
(-8.76784e-08 -2.24302e-06 6.44986e-09)
(-5.23975e-08 -1.93912e-06 5.91841e-09)
(-2.28891e-08 -1.48585e-06 5.2435e-09)
(-2.47078e-09 -7.35144e-07 3.16139e-09)
(6.6037e-10 -7.6741e-07 6.05782e-10)
(4.41093e-09 -1.55489e-06 1.10471e-09)
(9.36729e-09 -2.0316e-06 1.35232e-09)
(1.55231e-08 -2.35053e-06 1.66214e-09)
(2.26194e-08 -2.57838e-06 2.14328e-09)
(3.01126e-08 -2.74986e-06 2.84792e-09)
(3.71128e-08 -2.88469e-06 3.79942e-09)
(4.2467e-08 -2.99433e-06 4.9936e-09)
(4.49101e-08 -3.08519e-06 6.39596e-09)
(4.32182e-08 -3.16047e-06 7.94479e-09)
(3.64643e-08 -3.22155e-06 9.53128e-09)
(2.41882e-08 -3.26893e-06 1.10307e-08)
(6.6859e-09 -3.30281e-06 1.22745e-08)
(-1.50446e-08 -3.32375e-06 1.31632e-08)
(-3.92903e-08 -3.3323e-06 1.35586e-08)
(-6.39276e-08 -3.32929e-06 1.34977e-08)
(-8.69609e-08 -3.31464e-06 1.29968e-08)
(-1.06213e-07 -3.28746e-06 1.19875e-08)
(-1.19883e-07 -3.24709e-06 1.06541e-08)
(-1.26988e-07 -3.19305e-06 9.09451e-09)
(-1.27265e-07 -3.12524e-06 7.50208e-09)
(-1.21256e-07 -3.04342e-06 6.00625e-09)
(-1.09957e-07 -2.9466e-06 4.7126e-09)
(-9.46973e-08 -2.83206e-06 3.67363e-09)
(-7.69028e-08 -2.6941e-06 2.91407e-09)
(-5.8023e-08 -2.52205e-06 2.42881e-09)
(-3.95049e-08 -2.2971e-06 2.19226e-09)
(-2.27502e-08 -1.98546e-06 2.13643e-09)
(-9.34156e-09 -1.52141e-06 2.09458e-09)
(-7.87896e-10 -7.52953e-07 1.47698e-09)
(-8.70899e-10 -7.65671e-07 -9.32327e-10)
(-7.92404e-09 -1.55067e-06 -1.75934e-09)
(-1.78103e-08 -2.02612e-06 -2.0993e-09)
(-2.90625e-08 -2.34517e-06 -2.27195e-09)
(-4.0372e-08 -2.5743e-06 -2.38493e-09)
(-5.08337e-08 -2.74797e-06 -2.49867e-09)
(-5.97077e-08 -2.88564e-06 -2.63291e-09)
(-6.64781e-08 -2.99851e-06 -2.79022e-09)
(-7.08246e-08 -3.09275e-06 -2.95319e-09)
(-7.26204e-08 -3.17142e-06 -3.09037e-09)
(-7.19592e-08 -3.23568e-06 -3.16683e-09)
(-6.91598e-08 -3.28589e-06 -3.16242e-09)
(-6.47356e-08 -3.32212e-06 -3.0701e-09)
(-5.92235e-08 -3.3448e-06 -2.94175e-09)
(-5.30424e-08 -3.35439e-06 -2.86126e-09)
(-4.62021e-08 -3.35167e-06 -2.97072e-09)
(-3.84652e-08 -3.3366e-06 -3.23895e-09)
(-2.98544e-08 -3.30839e-06 -3.56519e-09)
(-2.08035e-08 -3.26655e-06 -3.80015e-09)
(-1.19937e-08 -3.21076e-06 -3.8982e-09)
(-4.06548e-09 -3.14109e-06 -3.8465e-09)
(2.45609e-09 -3.0574e-06 -3.67425e-09)
(7.29656e-09 -2.95882e-06 -3.42312e-09)
(1.03847e-08 -2.84269e-06 -3.13411e-09)
(1.18069e-08 -2.70334e-06 -2.83385e-09)
(1.17385e-08 -2.53009e-06 -2.52529e-09)
(1.03963e-08 -2.30406e-06 -2.18478e-09)
(7.94005e-09 -1.99133e-06 -1.75388e-09)
(4.66864e-09 -1.52591e-06 -1.15099e-09)
(9.47267e-10 -7.55255e-07 -2.6401e-10)
(-2.46724e-09 -7.49727e-07 -2.53626e-09)
(-2.07185e-08 -1.51805e-06 -4.73839e-09)
(-4.58735e-08 -1.98344e-06 -5.67599e-09)
(-7.48855e-08 -2.29603e-06 -6.32317e-09)
(-1.04809e-07 -2.52089e-06 -7.02037e-09)
(-1.33297e-07 -2.69169e-06 -7.94956e-09)
(-1.58029e-07 -2.82734e-06 -9.17446e-09)
(-1.76873e-07 -2.9388e-06 -1.07054e-08)
(-1.87952e-07 -3.03206e-06 -1.249e-08)
(-1.89828e-07 -3.11015e-06 -1.44241e-08)
(-1.81767e-07 -3.17426e-06 -1.63334e-08)
(-1.639e-07 -3.22472e-06 -1.80376e-08)
(-1.37441e-07 -3.26156e-06 -1.93327e-08)
(-1.04389e-07 -3.28494e-06 -2.01843e-08)
(-6.72907e-08 -3.29507e-06 -2.0552e-08)
(-2.84234e-08 -3.29251e-06 -2.07034e-08)
(1.04852e-08 -3.27725e-06 -2.0592e-08)
(4.70928e-08 -3.24877e-06 -1.99913e-08)
(7.87534e-08 -3.20695e-06 -1.88706e-08)
(1.03217e-07 -3.15171e-06 -1.72814e-08)
(1.19045e-07 -3.08316e-06 -1.54079e-08)
(1.25816e-07 -3.00118e-06 -1.34474e-08)
(1.24024e-07 -2.90479e-06 -1.15798e-08)
(1.14854e-07 -2.79125e-06 -9.92615e-09)
(9.99058e-08 -2.6549e-06 -8.54821e-09)
(8.09676e-08 -2.48514e-06 -7.43593e-09)
(5.98853e-08 -2.26338e-06 -6.51782e-09)
(3.8361e-08 -1.95627e-06 -5.60349e-09)
(1.85478e-08 -1.49902e-06 -4.36401e-09)
(2.66487e-09 -7.4188e-07 -1.99117e-09)
(-4.0205e-09 -7.19542e-07 -4.09478e-09)
(-3.31608e-08 -1.45701e-06 -7.6317e-09)
(-7.31106e-08 -1.90367e-06 -9.13904e-09)
(-1.19245e-07 -2.20349e-06 -1.02254e-08)
(-1.67029e-07 -2.41883e-06 -1.14557e-08)
(-2.12739e-07 -2.58195e-06 -1.31293e-08)
(-2.52575e-07 -2.71098e-06 -1.53627e-08)
(-2.82914e-07 -2.81647e-06 -1.81713e-08)
(-3.00441e-07 -2.90433e-06 -2.14763e-08)
(-3.025e-07 -2.97765e-06 -2.51078e-08)
(-2.87525e-07 -3.03782e-06 -2.87778e-08)
(-2.55407e-07 -3.0853e-06 -3.21733e-08)
(-2.07922e-07 -3.12021e-06 -3.49047e-08)
(-1.48336e-07 -3.14259e-06 -3.68151e-08)
(-8.12085e-08 -3.15243e-06 -3.77063e-08)
(-1.11398e-08 -3.14995e-06 -3.78709e-08)
(5.79577e-08 -3.13516e-06 -3.72683e-08)
(1.21374e-07 -3.10794e-06 -3.56309e-08)
(1.74395e-07 -3.06848e-06 -3.30952e-08)
(2.13431e-07 -3.01679e-06 -2.98283e-08)
(2.36421e-07 -2.95293e-06 -2.62004e-08)
(2.43138e-07 -2.87656e-06 -2.25509e-08)
(2.34848e-07 -2.78647e-06 -1.91715e-08)
(2.13929e-07 -2.67975e-06 -1.62513e-08)
(1.83401e-07 -2.55069e-06 -1.38772e-08)
(1.46553e-07 -2.38897e-06 -1.20298e-08)
(1.0675e-07 -2.17665e-06 -1.05842e-08)
(6.71618e-08 -1.88165e-06 -9.22353e-09)
(3.16795e-08 -1.44178e-06 -7.39464e-09)
(4.28559e-09 -7.1333e-07 -3.62505e-09)
(-5.44401e-09 -6.75933e-07 -5.52588e-09)
(-4.45698e-08 -1.36922e-06 -1.02878e-08)
(-9.80578e-08 -1.78904e-06 -1.2312e-08)
(-1.59815e-07 -2.07031e-06 -1.37864e-08)
(-2.23828e-07 -2.27141e-06 -1.54788e-08)
(-2.85144e-07 -2.42258e-06 -1.7802e-08)
(-3.38642e-07 -2.54091e-06 -2.09115e-08)
(-3.79377e-07 -2.63642e-06 -2.48451e-08)
(-4.02783e-07 -2.71487e-06 -2.95132e-08)
(-4.05109e-07 -2.77946e-06 -3.46981e-08)
(-3.84046e-07 -2.83189e-06 -4.00378e-08)
(-3.39211e-07 -2.87296e-06 -4.50941e-08)
(-2.7273e-07 -2.90306e-06 -4.93144e-08)
(-1.88912e-07 -2.92231e-06 -5.23781e-08)
(-9.40347e-08 -2.93073e-06 -5.38976e-08)
(5.03212e-09 -2.92828e-06 -5.40613e-08)
(1.01949e-07 -2.91503e-06 -5.28376e-08)
(1.89712e-07 -2.89115e-06 -5.00464e-08)
(2.61852e-07 -2.85682e-06 -4.60243e-08)
(3.13719e-07 -2.81199e-06 -4.10979e-08)
(3.42841e-07 -2.75644e-06 -3.58105e-08)
(3.49243e-07 -2.68943e-06 -3.06144e-08)
(3.34917e-07 -2.6094e-06 -2.58862e-08)
(3.03309e-07 -2.51326e-06 -2.18514e-08)
(2.5869e-07 -2.39534e-06 -1.86118e-08)
(2.05679e-07 -2.24578e-06 -1.61279e-08)
(1.49001e-07 -2.04758e-06 -1.42263e-08)
(9.31221e-08 -1.77061e-06 -1.24801e-08)
(4.35126e-08 -1.35656e-06 -1.01255e-08)
(5.74391e-09 -6.70789e-07 -5.1003e-09)
(-6.67449e-09 -6.20381e-07 -6.7602e-09)
(-5.43985e-08 -1.25765e-06 -1.2575e-08)
(-1.19503e-07 -1.64355e-06 -1.50337e-08)
(-1.94625e-07 -1.9013e-06 -1.68216e-08)
(-2.72473e-07 -2.08425e-06 -1.88715e-08)
(-3.47035e-07 -2.22005e-06 -2.16854e-08)
(-4.12069e-07 -2.32444e-06 -2.54566e-08)
(-4.61523e-07 -2.40678e-06 -3.02389e-08)
(-4.89796e-07 -2.47261e-06 -3.59338e-08)
(-4.92272e-07 -2.52531e-06 -4.22951e-08)
(-4.66015e-07 -2.56687e-06 -4.89e-08)
(-4.10399e-07 -2.59856e-06 -5.52244e-08)
(-3.27793e-07 -2.62121e-06 -6.06034e-08)
(-2.23347e-07 -2.63534e-06 -6.45731e-08)
(-1.04737e-07 -2.64121e-06 -6.66097e-08)
(1.91799e-08 -2.63882e-06 -6.67605e-08)
(1.39817e-07 -2.62828e-06 -6.50014e-08)
(2.48193e-07 -2.60975e-06 -6.12827e-08)
(3.36408e-07 -2.58313e-06 -5.60932e-08)
(3.98972e-07 -2.54806e-06 -4.98941e-08)
(4.33164e-07 -2.50381e-06 -4.33477e-08)
(4.39242e-07 -2.44917e-06 -3.69857e-08)
(4.19806e-07 -2.38222e-06 -3.12449e-08)
(3.79163e-07 -2.29965e-06 -2.63782e-08)
(3.22619e-07 -2.19596e-06 -2.24915e-08)
(2.55912e-07 -2.06187e-06 -1.95288e-08)
(1.84914e-07 -1.88167e-06 -1.72818e-08)
(1.15197e-07 -1.62777e-06 -1.5231e-08)
(5.35772e-08 -1.24687e-06 -1.24448e-08)
(6.98305e-09 -6.15994e-07 -6.36066e-09)
(-7.65778e-09 -5.54912e-07 -7.74784e-09)
(-6.22356e-08 -1.12639e-06 -1.44072e-08)
(-1.36565e-07 -1.47259e-06 -1.72051e-08)
(-2.22263e-07 -1.70292e-06 -1.92162e-08)
(-3.11011e-07 -1.8648e-06 -2.1503e-08)
(-3.9594e-07 -1.98285e-06 -2.46368e-08)
(-4.69919e-07 -2.07124e-06 -2.88389e-08)
(-5.26043e-07 -2.13851e-06 -3.41673e-08)
(-5.57929e-07 -2.18998e-06 -4.05137e-08)
(-5.60309e-07 -2.22906e-06 -4.76173e-08)
(-5.29813e-07 -2.25809e-06 -5.50229e-08)
(-4.65668e-07 -2.27884e-06 -6.21591e-08)
(-3.70421e-07 -2.29268e-06 -6.82936e-08)
(-2.49847e-07 -2.30061e-06 -7.28581e-08)
(-1.12673e-07 -2.30335e-06 -7.52479e-08)
(3.07071e-08 -2.30109e-06 -7.53788e-08)
(1.69845e-07 -2.29394e-06 -7.32357e-08)
(2.94226e-07 -2.28187e-06 -6.88939e-08)
(3.94902e-07 -2.26438e-06 -6.29296e-08)
(4.65783e-07 -2.24059e-06 -5.59106e-08)
(5.03964e-07 -2.20922e-06 -4.85673e-08)
(5.09856e-07 -2.16856e-06 -4.14734e-08)
(4.86499e-07 -2.1163e-06 -3.50934e-08)
(4.38851e-07 -2.04906e-06 -2.97e-08)
(3.72996e-07 -1.96153e-06 -2.53988e-08)
(2.9554e-07 -1.84518e-06 -2.21294e-08)
(2.13265e-07 -1.68586e-06 -1.96599e-08)
(1.32627e-07 -1.45897e-06 -1.73982e-08)
(6.1526e-08 -1.11713e-06 -1.42835e-08)
(7.95931e-09 -5.51137e-07 -7.36307e-09)
(-8.3642e-09 -4.81932e-07 -8.45512e-09)
(-6.78136e-08 -9.80264e-07 -1.57213e-08)
(-1.48658e-07 -1.28251e-06 -1.87506e-08)
(-2.41805e-07 -1.48268e-06 -2.08935e-08)
(-3.38207e-07 -1.62163e-06 -2.32983e-08)
(-4.30371e-07 -1.72069e-06 -2.65783e-08)
(-5.10505e-07 -1.79225e-06 -3.09652e-08)
(-5.71093e-07 -1.84397e-06 -3.65188e-08)
(-6.05226e-07 -1.8808e-06 -4.31222e-08)
(-6.07223e-07 -1.90615e-06 -5.05043e-08)
(-5.73496e-07 -1.92263e-06 -5.82032e-08)
(-5.03228e-07 -1.93243e-06 -6.56272e-08)
(-3.9912e-07 -1.93742e-06 -7.20381e-08)
(-2.67393e-07 -1.93916e-06 -7.68197e-08)
(-1.1746e-07 -1.93876e-06 -7.93522e-08)
(3.92665e-08 -1.93668e-06 -7.94616e-08)
(1.91066e-07 -1.93304e-06 -7.71375e-08)
(3.26419e-07 -1.92754e-06 -7.25451e-08)
(4.35693e-07 -1.91924e-06 -6.62847e-08)
(5.12386e-07 -1.90675e-06 -5.89678e-08)
(5.53452e-07 -1.88824e-06 -5.13299e-08)
(5.5937e-07 -1.8616e-06 -4.39676e-08)
(5.33408e-07 -1.82422e-06 -3.73446e-08)
(4.80932e-07 -1.77267e-06 -3.17416e-08)
(4.08565e-07 -1.70202e-06 -2.7273e-08)
(3.23527e-07 -1.6046e-06 -2.38749e-08)
(2.33278e-07 -1.468e-06 -2.13014e-08)
(1.44927e-07 -1.27087e-06 -1.89228e-08)
(6.71345e-08 -9.72386e-07 -1.5593e-08)
(8.6462e-09 -4.7873e-07 -8.08248e-09)
(-8.77148e-09 -4.0406e-07 -8.86133e-09)
(-7.09511e-08 -8.24533e-07 -1.64773e-08)
(-1.55434e-07 -1.08019e-06 -1.963e-08)
(-2.52782e-07 -1.24867e-06 -2.18168e-08)
(-3.5353e-07 -1.36389e-06 -2.42311e-08)
(-4.49792e-07 -1.44375e-06 -2.7507e-08)
(-5.33349e-07 -1.49878e-06 -3.1874e-08)
(-5.96295e-07 -1.53569e-06 -3.73852e-08)
(-6.31417e-07 -1.55898e-06 -4.39224e-08)
(-6.32875e-07 -1.57197e-06 -5.12083e-08)
(-5.97012e-07 -1.57739e-06 -5.87875e-08)
(-5.23074e-07 -1.5777e-06 -6.60829e-08)
(-4.13911e-07 -1.57514e-06 -7.23906e-08)
(-2.75997e-07 -1.57162e-06 -7.70896e-08)
(-1.19085e-07 -1.5686e-06 -7.95918e-08)
(4.49112e-08 -1.56676e-06 -7.96824e-08)
(2.0357e-07 -1.56621e-06 -7.73551e-08)
(3.44881e-07 -1.56642e-06 -7.28135e-08)
(4.589e-07 -1.5661e-06 -6.66347e-08)
(5.3889e-07 -1.56346e-06 -5.94359e-08)
(5.81691e-07 -1.55632e-06 -5.19157e-08)
(5.87738e-07 -1.54227e-06 -4.46544e-08)
(5.60377e-07 -1.51859e-06 -3.81105e-08)
(5.05148e-07 -1.48193e-06 -3.25626e-08)
(4.28987e-07 -1.42778e-06 -2.81286e-08)
(3.39506e-07 -1.34944e-06 -2.47496e-08)
(2.44612e-07 -1.23631e-06 -2.21802e-08)
(1.51833e-07 -1.07048e-06 -1.97758e-08)
(7.02633e-08 -8.18023e-07 -1.63435e-08)
(9.0274e-09 -4.01444e-07 -8.50303e-09)
(-8.85768e-09 -3.24084e-07 -8.94373e-09)
(-7.1512e-08 -6.64759e-07 -1.66316e-08)
(-1.56674e-07 -8.72845e-07 -1.97864e-08)
(-2.54966e-07 -1.0092e-06 -2.1928e-08)
(-3.5685e-07 -1.10079e-06 -2.4256e-08)
(-4.54252e-07 -1.16205e-06 -2.74015e-08)
(-5.38734e-07 -1.20172e-06 -3.15897e-08)
(-6.02193e-07 -1.22547e-06 -3.68646e-08)
(-6.37315e-07 -1.23729e-06 -4.31007e-08)
(-6.38261e-07 -1.24027e-06 -5.0021e-08)
(-6.01453e-07 -1.2371e-06 -5.71938e-08)
(-5.26276e-07 -1.23028e-06 -6.40729e-08)
(-4.15685e-07 -1.22222e-06 -7.00095e-08)
(-2.76235e-07 -1.21499e-06 -7.44197e-08)
(-1.17717e-07 -1.21019e-06 -7.6776e-08)
(4.78959e-08 -1.20864e-06 -7.68505e-08)
(2.08033e-07 -1.21042e-06 -7.46392e-08)
(3.50636e-07 -1.21487e-06 -7.03607e-08)
(4.65744e-07 -1.22051e-06 -6.45349e-08)
(5.46563e-07 -1.22537e-06 -5.77412e-08)
(5.89861e-07 -1.22713e-06 -5.06251e-08)
(5.95963e-07 -1.2233e-06 -4.37335e-08)
(5.68147e-07 -1.2112e-06 -3.74986e-08)
(5.11974e-07 -1.18773e-06 -3.21977e-08)
(4.34484e-07 -1.14888e-06 -2.79548e-08)
(3.43494e-07 -1.08895e-06 -2.47209e-08)
(2.47148e-07 -9.99168e-07 -2.22536e-08)
(1.53184e-07 -8.6506e-07 -1.99117e-08)
(7.08012e-08 -6.59635e-07 -1.6499e-08)
(9.08299e-09 -3.2208e-07 -8.60686e-09)
(-8.58379e-09 -2.44985e-07 -8.66288e-09)
(-6.92866e-08 -5.06787e-07 -1.61042e-08)
(-1.52098e-07 -6.67889e-07 -1.91153e-08)
(-2.48139e-07 -7.72717e-07 -2.11052e-08)
(-3.48125e-07 -8.41509e-07 -2.32474e-08)
(-4.4397e-07 -8.85427e-07 -2.61544e-08)
(-5.27178e-07 -9.11444e-07 -3.00445e-08)
(-5.89614e-07 -9.24214e-07 -3.49487e-08)
(-6.24028e-07 -9.27137e-07 -4.07374e-08)
(-6.24709e-07 -9.22929e-07 -4.71398e-08)
(-5.88257e-07 -9.1405e-07 -5.37504e-08)
(-5.14216e-07 -9.02863e-07 -6.00641e-08)