/*--------------------------------*- C++ -*----------------------------------*\
| =========                 |                                                 |
| \\      /  F ield         | OpenFOAM: The Open Source CFD Toolbox           |
|  \\    /   O peration     | Version:  v1912                                 |
|   \\  /    A nd           | Website:  www.openfoam.com                      |
|    \\/     M anipulation  |                                                 |
\*---------------------------------------------------------------------------*/
FoamFile
{
    version     2.0;
    format      ascii;
    class       volVectorField;
    location    "24.5/oil";
    object      U;
}
// * * * * * * * * * * * * * * * * * * * * * * * * * * * * * * * * * * * * * //

dimensions      [0 1 -1 0 0 0 0];


internalField   nonuniform List<vector> 
35580
(
(-2.69252e-05 -2.69327e-05 -2.69031e-05)
(-2.9532e-05 -5.5769e-06 -5.55147e-06)
(-6.13379e-06 -3.93819e-06 -3.93266e-06)
(-5.4143e-06 -1.06946e-06 -1.06951e-06)
(-1.39514e-06 -6.77975e-07 -6.78076e-07)
(-1.12052e-06 -2.29278e-07 -2.31019e-07)
(-3.27613e-07 -1.30992e-07 -1.33353e-07)
(-2.565e-07 -5.17966e-08 -5.48706e-08)
(-7.34891e-08 -2.73367e-08 -3.07438e-08)
(-5.64397e-08 -1.15577e-08 -1.5259e-08)
(-9.13917e-09 -5.01524e-09 -8.85992e-09)
(-7.60971e-09 -1.41941e-09 -5.33605e-09)
(2.63611e-09 5.28108e-10 -3.44315e-09)
(-1.89893e-09 1.49482e-09 -2.49528e-09)
(-3.7199e-09 2.10118e-09 -1.90905e-09)
(-1.04265e-08 2.34186e-09 -1.683e-09)
(-1.56246e-08 2.44937e-09 -1.55591e-09)
(-2.16174e-08 2.39679e-09 -1.58538e-09)
(-2.58788e-08 2.28286e-09 -1.66214e-09)
(-2.91287e-08 2.10325e-09 -1.79903e-09)
(-3.04136e-08 1.88663e-09 -1.93153e-09)
(-3.00606e-08 1.63552e-09 -2.04557e-09)
(-2.78964e-08 1.37605e-09 -2.10786e-09)
(-2.43744e-08 1.11444e-09 -2.10249e-09)
(-1.97038e-08 8.53922e-10 -2.00803e-09)
(-1.45093e-08 6.06323e-10 -1.7946e-09)
(-9.20898e-09 3.84726e-10 -1.47681e-09)
(-4.60953e-09 2.36589e-10 -1.02783e-09)
(-1.22259e-09 2.46558e-10 -6.11325e-10)
(2.09216e-10 3.70405e-10 -1.84861e-10)
(-5.56019e-06 -2.9574e-05 -5.5588e-06)
(-7.21865e-06 -7.23916e-06 -2.42871e-06)
(-2.9037e-06 -6.11053e-06 -2.05508e-06)
(-2.70713e-06 -1.72071e-06 -7.7686e-07)
(-9.78188e-07 -1.14035e-06 -5.12428e-07)
(-8.50717e-07 -3.7772e-07 -2.11157e-07)
(-3.10214e-07 -2.37659e-07 -1.24812e-07)
(-2.55277e-07 -9.39488e-08 -5.69598e-08)
(-8.45758e-08 -6.02289e-08 -3.15849e-08)
(-6.35882e-08 -2.88125e-08 -1.55767e-08)
(-1.00174e-08 -1.91006e-08 -7.86633e-09)
(-7.14735e-09 -1.05012e-08 -3.63669e-09)
(3.94481e-09 -6.93049e-09 -1.09852e-09)
(-3.816e-09 -4.0387e-09 2.09876e-10)
(-9.55692e-09 -2.72287e-09 1.05055e-09)
(-2.19411e-08 -1.95452e-09 1.36525e-09)
(-3.26482e-08 -1.97214e-09 1.50064e-09)
(-4.39973e-08 -2.41515e-09 1.38238e-09)
(-5.24729e-08 -3.27161e-09 1.16362e-09)
(-5.86953e-08 -4.34084e-09 8.36522e-10)
(-6.12802e-08 -5.59338e-09 4.91162e-10)
(-6.05778e-08 -6.85621e-09 1.63036e-10)
(-5.64763e-08 -8.04285e-09 -1.02126e-10)
(-4.97274e-08 -9.05229e-09 -2.82482e-10)
(-4.08385e-08 -9.79925e-09 -3.53158e-10)
(-3.08959e-08 -1.01484e-08 -2.82991e-10)
(-2.07486e-08 -9.92331e-09 -1.08165e-10)
(-1.16764e-08 -8.81832e-09 1.83707e-10)
(-4.55218e-09 -6.40091e-09 3.5247e-10)
(-3.01796e-10 -2.51326e-09 3.44584e-10)
(-3.94188e-06 -6.1678e-06 -3.93471e-06)
(-6.10146e-06 -2.93886e-06 -2.05581e-06)
(-2.89824e-06 -2.93963e-06 -1.77943e-06)
(-2.74495e-06 -1.1807e-06 -7.34036e-07)
(-1.1812e-06 -9.12322e-07 -4.71599e-07)
(-9.64368e-07 -4.04243e-07 -2.04227e-07)
(-4.15082e-07 -2.96422e-07 -1.17575e-07)
(-3.12029e-07 -1.54661e-07 -5.44765e-08)
(-1.24128e-07 -1.14985e-07 -2.89348e-08)
(-8.35341e-08 -7.15985e-08 -1.34844e-08)
(-2.15733e-08 -5.54748e-08 -5.61007e-09)
(-1.25663e-08 -3.99689e-08 -1.33877e-09)
(1.98246e-10 -3.27037e-08 1.34722e-09)
(-7.70215e-09 -2.65984e-08 2.7188e-09)
(-1.53922e-08 -2.36166e-08 3.62352e-09)
(-3.05291e-08 -2.17267e-08 3.95637e-09)
(-4.43692e-08 -2.14483e-08 4.05726e-09)
(-5.86665e-08 -2.20194e-08 3.86873e-09)
(-6.95711e-08 -2.34191e-08 3.54501e-09)
(-7.74956e-08 -2.52418e-08 3.10004e-09)
(-8.08391e-08 -2.7338e-08 2.61084e-09)
(-7.99271e-08 -2.93738e-08 2.14397e-09)
(-7.47484e-08 -3.11717e-08 1.73512e-09)
(-6.61758e-08 -3.25073e-08 1.41879e-09)
(-5.49042e-08 -3.31585e-08 1.21461e-09)
(-4.22361e-08 -3.28183e-08 1.15342e-09)
(-2.92068e-08 -3.10753e-08 1.17567e-09)
(-1.72528e-08 -2.72697e-08 1.28929e-09)
(-7.42646e-09 -2.04582e-08 1.20092e-09)
(-7.32305e-10 -9.37716e-09 7.80363e-10)
(-1.07173e-06 -5.4527e-06 -1.06871e-06)
(-1.70593e-06 -2.77051e-06 -7.75659e-07)
(-1.13001e-06 -2.82537e-06 -7.33185e-07)
(-1.1545e-06 -1.2486e-06 -3.52688e-07)
(-5.88107e-07 -9.9362e-07 -2.4121e-07)
(-5.21376e-07 -4.87005e-07 -1.15854e-07)
(-2.43392e-07 -3.71093e-07 -6.97659e-08)
(-1.9338e-07 -2.15446e-07 -3.43453e-08)
(-7.42883e-08 -1.69154e-07 -1.81732e-08)
(-4.93136e-08 -1.17237e-07 -7.98196e-09)
(-5.27764e-09 -9.70587e-08 -2.1345e-09)
(-1.5031e-09 -7.69913e-08 1.16733e-09)
(5.24519e-09 -6.72456e-08 3.45828e-09)
(-5.85692e-09 -5.88341e-08 4.66239e-09)
(-1.71556e-08 -5.46516e-08 5.48339e-09)
(-3.52283e-08 -5.19522e-08 5.77806e-09)
(-5.19801e-08 -5.15087e-08 5.82702e-09)
(-6.86432e-08 -5.22684e-08 5.58051e-09)
(-8.14578e-08 -5.41658e-08 5.1815e-09)
(-9.06386e-08 -5.66611e-08 4.65515e-09)
(-9.45629e-08 -5.94111e-08 4.0794e-09)
(-9.35571e-08 -6.2001e-08 3.52616e-09)
(-8.77086e-08 -6.41077e-08 3.02837e-09)
(-7.79688e-08 -6.53855e-08 2.62201e-09)
(-6.51541e-08 -6.54535e-08 2.32538e-09)
(-5.0684e-08 -6.38256e-08 2.1668e-09)
(-3.5666e-08 -5.98177e-08 2.07975e-09)
(-2.16156e-08 -5.23689e-08 2.07798e-09)
(-9.69578e-09 -3.98159e-08 1.82311e-09)
(-1.07451e-09 -1.90932e-08 1.12562e-09)
(-6.7888e-07 -1.44487e-06 -6.7562e-07)
(-1.12185e-06 -1.07326e-06 -5.10546e-07)
(-8.56559e-07 -1.30517e-06 -4.70419e-07)
(-8.91271e-07 -7.31711e-07 -2.40913e-07)
(-5.12512e-07 -6.68549e-07 -1.64315e-07)
(-4.45829e-07 -4.03882e-07 -8.25829e-08)
(-2.2864e-07 -3.46194e-07 -4.92776e-08)
(-1.73689e-07 -2.39476e-07 -2.44717e-08)
(-7.08911e-08 -2.0573e-07 -1.21107e-08)
(-4.26672e-08 -1.61067e-07 -4.42709e-09)
(-3.01247e-09 -1.41876e-07 3.32338e-10)
(1.57714e-09 -1.21164e-07 3.05501e-09)
(6.18887e-09 -1.10191e-07 5.0631e-09)
(-5.90123e-09 -1.00328e-07 6.12708e-09)
(-1.933e-08 -9.51816e-08 6.86371e-09)
(-3.92261e-08 -9.18206e-08 7.11367e-09)
(-5.8049e-08 -9.11589e-08 7.10425e-09)
(-7.63617e-08 -9.20111e-08 6.79273e-09)
(-9.05764e-08 -9.42334e-08 6.31568e-09)
(-1.00606e-07 -9.7147e-08 5.69806e-09)
(-1.04882e-07 -1.00223e-07 5.04239e-09)
(-1.03748e-07 -1.03002e-07 4.39987e-09)
(-9.73569e-08 -1.05006e-07 3.82128e-09)
(-8.67294e-08 -1.05779e-07 3.33958e-09)
(-7.27563e-08 -1.04784e-07 2.97295e-09)
(-5.69303e-08 -1.01348e-07 2.74746e-09)
(-4.04098e-08 -9.45066e-08 2.59905e-09)
(-2.47715e-08 -8.27287e-08 2.5317e-09)
(-1.12769e-08 -6.33872e-08 2.1819e-09)
(-1.28376e-09 -3.11063e-08 1.33368e-09)
(-2.29516e-07 -1.18653e-06 -2.27883e-07)
(-3.56741e-07 -9.81317e-07 -2.08688e-07)
(-3.4542e-07 -1.1345e-06 -2.02747e-07)
(-3.79678e-07 -7.17323e-07 -1.15393e-07)
(-2.40348e-07 -6.58572e-07 -8.2514e-08)
(-2.20408e-07 -4.43601e-07 -4.48364e-08)
(-1.11216e-07 -3.88268e-07 -2.74004e-08)
(-8.40278e-08 -2.92465e-07 -1.38738e-08)
(-2.22865e-08 -2.58215e-07 -6.11758e-09)
(-6.61545e-09 -2.14526e-07 -1.07936e-09)
(1.78206e-08 -1.9408e-07 2.48582e-09)
(1.66486e-08 -1.72338e-07 4.66003e-09)
(1.47784e-08 -1.60135e-07 6.41865e-09)
(-7.58628e-10 -1.49139e-07 7.37968e-09)
(-1.7805e-08 -1.43195e-07 8.05051e-09)
(-4.02315e-08 -1.39311e-07 8.26249e-09)
(-6.14825e-08 -1.38454e-07 8.19287e-09)
(-8.15196e-08 -1.39292e-07 7.81553e-09)
(-9.71049e-08 -1.41624e-07 7.25179e-09)
(-1.07857e-07 -1.44568e-07 6.52422e-09)
(-1.12401e-07 -1.47547e-07 5.76922e-09)
(-1.1115e-07 -1.50043e-07 5.01959e-09)
(-1.04314e-07 -1.51461e-07 4.34971e-09)
(-9.30007e-08 -1.51259e-07 3.79313e-09)
(-7.81571e-08 -1.48754e-07 3.36627e-09)
(-6.13347e-08 -1.431e-07 3.09226e-09)
(-4.37202e-08 -1.33021e-07 2.90712e-09)
(-2.69422e-08 -1.16451e-07 2.80685e-09)
(-1.23363e-08 -8.96225e-08 2.40849e-09)
(-1.41998e-09 -4.45111e-08 1.47619e-09)
(-1.30891e-07 -4.11097e-07 -1.29818e-07)
(-2.16371e-07 -4.76757e-07 -1.22166e-07)
(-2.36885e-07 -6.31574e-07 -1.16113e-07)
(-2.62042e-07 -4.92276e-07 -6.94254e-08)
(-1.79404e-07 -4.98957e-07 -4.93959e-08)
(-1.59841e-07 -3.95304e-07 -2.76068e-08)
(-8.1755e-08 -3.73543e-07 -1.62895e-08)
(-5.57386e-08 -3.14779e-07 -7.70096e-09)
(-7.41116e-09 -2.93327e-07 -2.18646e-09)
(7.27281e-09 -2.6083e-07 1.4717e-09)
(2.61162e-08 -2.44485e-07 4.3119e-09)
(2.38814e-08 -2.25736e-07 6.13908e-09)
(1.90387e-08 -2.14475e-07 7.7007e-09)
(2.05408e-09 -2.03841e-07 8.57494e-09)
(-1.71585e-08 -1.97831e-07 9.15691e-09)
(-4.11243e-08 -1.93855e-07 9.32678e-09)
(-6.40624e-08 -1.92959e-07 9.18984e-09)
(-8.52708e-08 -1.93668e-07 8.7364e-09)
(-1.0175e-07 -1.95766e-07 8.06535e-09)
(-1.12881e-07 -1.9824e-07 7.22007e-09)
(-1.17492e-07 -2.00581e-07 6.34888e-09)
(-1.16035e-07 -2.02206e-07 5.48279e-09)
(-1.0879e-07 -2.02458e-07 4.71547e-09)
(-9.69398e-08 -2.00739e-07 4.07601e-09)
(-8.14739e-08 -1.96241e-07 3.59095e-09)
(-6.39856e-08 -1.87958e-07 3.27136e-09)
(-4.5667e-08 -1.74269e-07 3.05828e-09)
(-2.81869e-08 -1.52526e-07 2.93447e-09)
(-1.29174e-08 -1.17696e-07 2.51179e-09)
(-1.48195e-09 -5.88929e-08 1.54541e-09)
(-5.17511e-08 -3.57494e-07 -5.12381e-08)
(-7.33498e-08 -4.56602e-07 -5.44673e-08)
(-9.61075e-08 -5.73277e-07 -5.3319e-08)
(-1.0723e-07 -4.93291e-07 -3.43631e-08)
(-7.294e-08 -4.99607e-07 -2.5045e-08)
(-6.31826e-08 -4.27239e-07 -1.45611e-08)
(-2.04686e-08 -4.09548e-07 -8.20328e-09)
(-5.06734e-09 -3.63718e-07 -3.19706e-09)
(2.45052e-08 -3.45214e-07 5.92733e-10)
(3.24732e-08 -3.17743e-07 3.27323e-09)
(4.23336e-08 -3.03034e-07 5.63554e-09)
(3.63075e-08 -2.86249e-07 7.29193e-09)
(2.69448e-08 -2.75643e-07 8.76215e-09)
(7.48524e-09 -2.65331e-07 9.63056e-09)
(-1.42769e-08 -2.59302e-07 1.01862e-08)
(-3.98829e-08 -2.55275e-07 1.03487e-08)
(-6.43548e-08 -2.54173e-07 1.01384e-08)
(-8.65905e-08 -2.54454e-07 9.59749e-09)
(-1.0377e-07 -2.55763e-07 8.79656e-09)
(-1.15088e-07 -2.57104e-07 7.82524e-09)
(-1.19658e-07 -2.58081e-07 6.8238e-09)
(-1.17983e-07 -2.58107e-07 5.83553e-09)
(-1.10441e-07 -2.5651e-07 4.96821e-09)
(-9.82744e-08 -2.52671e-07 4.24752e-09)
(-8.25154e-08 -2.45681e-07 3.70656e-09)
(-6.47704e-08 -2.34385e-07 3.3434e-09)
(-4.62147e-08 -2.16798e-07 3.10946e-09)
(-2.85262e-08 -1.89653e-07 2.97379e-09)
(-1.30628e-08 -1.46569e-07 2.54942e-09)
(-1.49484e-09 -7.36702e-08 1.57447e-09)
(-2.75735e-08 -1.90721e-07 -2.71976e-08)
(-4.10391e-08 -3.17858e-07 -2.9368e-08)
(-5.88569e-08 -4.2638e-07 -2.8256e-08)
(-6.41539e-08 -4.21071e-07 -1.87166e-08)
(-4.27713e-08 -4.48007e-07 -1.32854e-08)
(-3.22772e-08 -4.2037e-07 -7.47596e-09)
(-1.41402e-09 -4.19379e-07 -3.40355e-09)
(1.28348e-08 -3.9531e-07 -1.74702e-10)
(3.52841e-08 -3.86631e-07 2.61803e-09)
(4.20594e-08 -3.69268e-07 4.73564e-09)
(4.82746e-08 -3.59841e-07 6.76193e-09)
(4.14498e-08 -3.47717e-07 8.28983e-09)
(3.02659e-08 -3.3965e-07 9.64967e-09)
(1.00848e-08 -3.31074e-07 1.05209e-08)
(-1.26248e-08 -3.25899e-07 1.10619e-08)
(-3.86135e-08 -3.22175e-07 1.1188e-08)
(-6.34745e-08 -3.20688e-07 1.08687e-08)
(-8.59065e-08 -3.20309e-07 1.02296e-08)
(-1.03119e-07 -3.20323e-07 9.33286e-09)
(-1.14181e-07 -3.19924e-07 8.24939e-09)
(-1.18495e-07 -3.18794e-07 7.13232e-09)
(-1.16568e-07 -3.16476e-07 6.03635e-09)
(-1.08874e-07 -3.12333e-07 5.08775e-09)
(-9.66873e-08 -3.05768e-07 4.29774e-09)
(-8.10504e-08 -2.95793e-07 3.71021e-09)
(-6.35464e-08 -2.81112e-07 3.30604e-09)
(-4.52915e-08 -2.59376e-07 3.05328e-09)
(-2.79337e-08 -2.26698e-07 2.90618e-09)
(-1.27706e-08 -1.75329e-07 2.49155e-09)
(-1.45203e-09 -8.83719e-08 1.53953e-09)
(-1.20961e-08 -1.87675e-07 -1.19436e-08)
(-1.16415e-08 -3.24322e-07 -1.3852e-08)
(-1.92923e-08 -4.2108e-07 -1.34636e-08)
(-1.7704e-08 -4.36685e-07 -9.25487e-09)
(-4.82147e-09 -4.64419e-07 -6.39786e-09)
(4.05298e-09 -4.52861e-07 -3.32038e-09)
(2.38765e-08 -4.56327e-07 -7.42055e-10)
(3.42295e-08 -4.42439e-07 1.44308e-09)
(4.88715e-08 -4.38404e-07 3.60495e-09)
(5.26632e-08 -4.27352e-07 5.40717e-09)
(5.46906e-08 -4.21685e-07 7.24254e-09)
(4.64075e-08 -4.13392e-07 8.73486e-09)
(3.34609e-08 -4.07657e-07 1.00207e-08)
(1.28115e-08 -4.00874e-07 1.0926e-08)
(-1.01887e-08 -3.96668e-07 1.14879e-08)
(-3.584e-08 -3.93144e-07 1.16045e-08)
(-6.02535e-08 -3.90825e-07 1.12069e-08)
(-8.209e-08 -3.89204e-07 1.04892e-08)
(-9.87794e-08 -3.87372e-07 9.55346e-09)
(-1.09286e-07 -3.84664e-07 8.37513e-09)
(-1.13196e-07 -3.80713e-07 7.18195e-09)
(-1.11082e-07 -3.75323e-07 6.01557e-09)
(-1.0348e-07 -3.67984e-07 5.02052e-09)
(-9.16656e-08 -3.58151e-07 4.19546e-09)
(-7.66593e-08 -3.44799e-07 3.58889e-09)
(-5.99831e-08 -3.26506e-07 3.16817e-09)
(-4.26719e-08 -3.00569e-07 2.91876e-09)
(-2.62815e-08 -2.62448e-07 2.77289e-09)
(-1.20008e-08 -2.03055e-07 2.38981e-09)
(-1.36284e-09 -1.02529e-07 1.47171e-09)
(-5.94611e-09 -1.51458e-07 -5.8741e-09)
(-4.45874e-09 -2.92318e-07 -6.75129e-09)
(-8.16789e-09 -3.86931e-07 -6.41066e-09)
(-4.93449e-09 -4.24815e-07 -4.31177e-09)
(4.81984e-09 -4.60434e-07 -2.60782e-09)
(1.34119e-08 -4.67232e-07 -8.33672e-10)
(2.84606e-08 -4.79703e-07 9.17079e-10)
(3.7631e-08 -4.78498e-07 2.47554e-09)
(4.87415e-08 -4.82066e-07 4.16369e-09)
(5.18107e-08 -4.79342e-07 5.69649e-09)
(5.22694e-08 -4.79297e-07 7.31905e-09)
(4.42999e-08 -4.76104e-07 8.6989e-09)
(3.16603e-08 -4.73885e-07 9.85722e-09)
(1.2426e-08 -4.70027e-07 1.07463e-08)
(-9.11572e-09 -4.6734e-07 1.12823e-08)
(-3.28485e-08 -4.64287e-07 1.13815e-08)
(-5.54015e-08 -4.61126e-07 1.09526e-08)
(-7.53241e-08 -4.57833e-07 1.01545e-08)
(-9.05862e-08 -4.53784e-07 9.22499e-09)
(-1.00019e-07 -4.48279e-07 8.0255e-09)
(-1.03278e-07 -4.41034e-07 6.84745e-09)
(-1.01037e-07 -4.32101e-07 5.69108e-09)
(-9.38405e-08 -4.21181e-07 4.72297e-09)
(-8.29132e-08 -4.07781e-07 3.92085e-09)
(-6.91936e-08 -3.90839e-07 3.32379e-09)
(-5.40581e-08 -3.68817e-07 2.89034e-09)
(-3.83883e-08 -3.387e-07 2.61638e-09)
(-2.35998e-08 -2.95363e-07 2.44707e-09)
(-1.07405e-08 -2.28493e-07 2.10229e-09)
(-1.20387e-09 -1.15503e-07 1.30777e-09)
(-2.72722e-09 -1.57472e-07 -2.72971e-09)
(1.16227e-09 -3.03948e-07 -3.23175e-09)
(1.36975e-09 -3.96514e-07 -3.01988e-09)
(6.07726e-09 -4.42808e-07 -1.96108e-09)
(1.34542e-08 -4.80429e-07 -8.98038e-10)
(2.06027e-08 -4.95723e-07 2.15391e-10)
(3.11038e-08 -5.12306e-07 1.45605e-09)
(3.79747e-08 -5.18482e-07 2.61986e-09)
(4.54859e-08 -5.26928e-07 3.94286e-09)
(4.72483e-08 -5.30087e-07 5.21974e-09)
(4.6391e-08 -5.34227e-07 6.58541e-09)
(3.89558e-08 -5.35264e-07 7.79262e-09)
(2.73374e-08 -5.36436e-07 8.8661e-09)
(1.0584e-08 -5.35554e-07 9.71339e-09)
(-8.23264e-09 -5.3432e-07 1.02088e-08)
(-2.87253e-08 -5.31546e-07 1.02931e-08)
(-4.8163e-08 -5.27372e-07 9.91858e-09)
(-6.50442e-08 -5.22185e-07 9.17769e-09)
(-7.80093e-08 -5.15834e-07 8.35927e-09)
(-8.59051e-08 -5.07168e-07 7.21746e-09)
(-8.84264e-08 -4.96389e-07 6.11884e-09)
(-8.62297e-08 -4.837e-07 5.03334e-09)
(-7.97975e-08 -4.6905e-07 4.12046e-09)
(-7.02445e-08 -4.52004e-07 3.35896e-09)
(-5.84021e-08 -4.31518e-07 2.80448e-09)
(-4.54649e-08 -4.05944e-07 2.41185e-09)
(-3.2181e-08 -3.71967e-07 2.18662e-09)
(-1.97481e-08 -3.23976e-07 2.06304e-09)
(-8.98862e-09 -2.50569e-07 1.78994e-09)
(-1.0139e-09 -1.26775e-07 1.12472e-09)
(-1.1752e-09 -1.5079e-07 -1.26029e-09)
(1.57033e-09 -2.99509e-07 -1.47526e-09)
(1.96141e-09 -3.92149e-07 -1.29621e-09)
(5.40607e-09 -4.46e-07 -7.52344e-10)
(1.0351e-08 -4.87435e-07 -1.30726e-10)
(1.55614e-08 -5.11151e-07 5.42297e-10)
(2.27376e-08 -5.33014e-07 1.3934e-09)
(2.77269e-08 -5.46614e-07 2.26301e-09)
(3.29973e-08 -5.60512e-07 3.29324e-09)
(3.4307e-08 -5.69552e-07 4.28008e-09)
(3.33002e-08 -5.78179e-07 5.28717e-09)
(2.74275e-08 -5.8398e-07 6.23372e-09)
(1.84989e-08 -5.88987e-07 7.15952e-09)
(5.84058e-09 -5.9096e-07 7.82924e-09)
(-8.57011e-09 -5.9115e-07 8.19479e-09)
(-2.41397e-08 -5.88621e-07 8.17689e-09)
(-3.90129e-08 -5.83633e-07 7.85393e-09)
(-5.17706e-08 -5.76721e-07 7.22252e-09)
(-6.14288e-08 -5.67942e-07 6.51275e-09)
(-6.71065e-08 -5.56168e-07 5.59144e-09)
(-6.86463e-08 -5.42331e-07 4.73701e-09)
(-6.66305e-08 -5.26424e-07 3.88863e-09)
(-6.13919e-08 -5.0846e-07 3.18549e-09)
(-5.38554e-08 -4.88127e-07 2.57965e-09)
(-4.46615e-08 -4.64515e-07 2.14198e-09)
(-3.47083e-08 -4.35922e-07 1.83034e-09)
(-2.45218e-08 -3.98835e-07 1.65941e-09)
(-1.50055e-08 -3.47146e-07 1.56657e-09)
(-6.78833e-09 -2.68486e-07 1.36298e-09)
(-7.60245e-10 -1.35927e-07 8.55643e-10)
(-6.29969e-10 -1.55002e-07 -6.87978e-10)
(1.16046e-09 -3.06277e-07 -8.47118e-10)
(1.2127e-09 -3.98655e-07 -7.92035e-10)
(3.029e-09 -4.5538e-07 -5.52202e-10)
(5.24317e-09 -4.97928e-07 -1.96158e-10)
(7.71075e-09 -5.25861e-07 2.19676e-10)
(1.12731e-08 -5.50474e-07 7.79484e-10)
(1.36298e-08 -5.68465e-07 1.35977e-09)
(1.63801e-08 -5.85688e-07 2.07076e-09)
(1.7005e-08 -5.98641e-07 2.71739e-09)
(1.62746e-08 -6.10727e-07 3.41009e-09)
(1.26223e-08 -6.20223e-07 4.09549e-09)
(7.15034e-09 -6.28054e-07 4.71586e-09)
(-6.5655e-10 -6.32144e-07 5.17045e-09)
(-9.50663e-09 -6.33285e-07 5.39032e-09)
(-1.89213e-08 -6.30555e-07 5.29029e-09)
(-2.79698e-08 -6.24757e-07 5.06588e-09)
(-3.55315e-08 -6.16337e-07 4.60374e-09)
(-4.11315e-08 -6.05319e-07 4.07916e-09)
(-4.44071e-08 -5.90947e-07 3.4136e-09)
(-4.50079e-08 -5.74588e-07 2.84201e-09)
(-4.33153e-08 -5.56182e-07 2.3297e-09)
(-3.95785e-08 -5.35935e-07 1.92638e-09)
(-3.44618e-08 -5.13559e-07 1.59148e-09)
(-2.8343e-08 -4.87962e-07 1.36412e-09)
(-2.18483e-08 -4.57239e-07 1.18058e-09)
(-1.53099e-08 -4.17822e-07 1.08684e-09)
(-9.30013e-09 -3.63409e-07 1.02959e-09)
(-4.17192e-09 -2.81002e-07 9.00766e-10)
(-4.66157e-10 -1.42309e-07 5.60058e-10)
(-4.33167e-10 -1.52592e-07 -4.87388e-10)
(-8.26428e-10 -3.03353e-07 -6.47342e-10)
(-2.80552e-09 -3.95159e-07 -6.33211e-10)
(-3.94052e-09 -4.53809e-07 -5.35216e-10)
(-5.00215e-09 -4.97337e-07 -3.59974e-10)
(-5.70225e-09 -5.28146e-07 -1.75966e-10)
(-5.44993e-09 -5.54519e-07 6.82366e-11)
(-5.42349e-09 -5.75204e-07 2.5035e-10)
(-4.73083e-09 -5.94628e-07 5.29304e-10)
(-4.77876e-09 -6.10718e-07 8.20378e-10)
(-4.81633e-09 -6.25546e-07 1.1242e-09)
(-5.72108e-09 -6.37539e-07 1.36698e-09)
(-7.00567e-09 -6.4704e-07 1.54657e-09)
(-9.04389e-09 -6.52608e-07 1.72736e-09)
(-1.1216e-08 -6.54848e-07 1.82559e-09)
(-1.3628e-08 -6.52476e-07 1.74846e-09)
(-1.60852e-08 -6.46547e-07 1.70144e-09)
(-1.77751e-08 -6.37503e-07 1.55647e-09)
(-1.87437e-08 -6.25461e-07 1.37266e-09)
(-1.90031e-08 -6.09683e-07 1.13548e-09)
(-1.83618e-08 -5.9163e-07 9.46754e-10)
(-1.71295e-08 -5.71541e-07 7.48555e-10)
(-1.52549e-08 -5.49914e-07 6.03462e-10)
(-1.29999e-08 -5.26465e-07 4.783e-10)
(-1.04397e-08 -4.999e-07 4.19082e-10)
(-7.83372e-09 -4.68138e-07 3.65325e-10)
(-5.30953e-09 -4.27558e-07 3.53227e-10)
(-3.11312e-09 -3.71769e-07 3.42346e-10)
(-1.31414e-09 -2.87429e-07 3.27546e-10)
(-1.17182e-10 -1.45579e-07 2.23315e-10)
(-5.39985e-10 -1.51443e-07 -5.75175e-10)
(-2.94595e-09 -3.00198e-07 -8.70344e-10)
(-7.1592e-09 -3.90121e-07 -9.54071e-10)
(-1.13566e-08 -4.48415e-07 -9.42569e-10)
(-1.58141e-08 -4.91246e-07 -9.1007e-10)
(-1.99345e-08 -5.22671e-07 -9.21448e-10)
(-2.32357e-08 -5.4923e-07 -9.26215e-10)
(-2.60402e-08 -5.70852e-07 -9.9126e-10)
(-2.7445e-08 -5.90736e-07 -1.08793e-09)
(-2.79331e-08 -6.0753e-07 -1.2493e-09)
(-2.68792e-08 -6.22797e-07 -1.45108e-09)
(-2.49713e-08 -6.35364e-07 -1.68688e-09)
(-2.19592e-08 -6.45178e-07 -1.88301e-09)
(-1.8263e-08 -6.51241e-07 -1.95875e-09)
(-1.36994e-08 -6.53756e-07 -1.98808e-09)
(-8.69648e-09 -6.51567e-07 -1.99611e-09)
(-4.01308e-09 -6.46044e-07 -1.84067e-09)
(5.47526e-10 -6.37205e-07 -1.66863e-09)
(4.28711e-09 -6.25099e-07 -1.50041e-09)
(6.93216e-09 -6.09402e-07 -1.28627e-09)
(8.85914e-09 -5.91499e-07 -1.0319e-09)
(9.83962e-09 -5.71486e-07 -8.08152e-10)
(1.0036e-08 -5.49952e-07 -6.46585e-10)
(9.43971e-09 -5.26523e-07 -5.72402e-10)
(8.26562e-09 -4.99942e-07 -4.72942e-10)
(6.75333e-09 -4.68162e-07 -4.11772e-10)
(5.04885e-09 -4.27551e-07 -3.4214e-10)
(3.26423e-09 -3.71761e-07 -3.02682e-10)
(1.61009e-09 -2.87446e-07 -2.04651e-10)
(2.25523e-10 -1.45604e-07 -8.94266e-11)
(-7.24352e-10 -1.45889e-07 -7.12801e-10)
(-5.42747e-09 -2.89641e-07 -1.17002e-09)
(-1.23219e-08 -3.76285e-07 -1.36217e-09)
(-1.98627e-08 -4.32974e-07 -1.43182e-09)
(-2.78601e-08 -4.74321e-07 -1.52113e-09)
(-3.54747e-08 -5.05257e-07 -1.68712e-09)
(-4.20554e-08 -5.3111e-07 -1.91584e-09)
(-4.72934e-08 -5.5245e-07 -2.26697e-09)
(-5.03862e-08 -5.71589e-07 -2.72521e-09)
(-5.13271e-08 -5.87514e-07 -3.23049e-09)
(-4.92344e-08 -6.01532e-07 -3.81551e-09)
(-4.44294e-08 -6.13177e-07 -4.46172e-09)
(-3.69641e-08 -6.22407e-07 -5.00368e-09)
(-2.73093e-08 -6.28265e-07 -5.37161e-09)
(-1.58363e-08 -6.30604e-07 -5.52394e-09)
(-3.66829e-09 -6.28474e-07 -5.47857e-09)
(7.82597e-09 -6.2357e-07 -5.2106e-09)
(1.83609e-08 -6.15759e-07 -4.75716e-09)
(2.66195e-08 -6.0465e-07 -4.27414e-09)
(3.21664e-08 -5.90377e-07 -3.66109e-09)
(3.53969e-08 -5.74188e-07 -3.07148e-09)
(3.58922e-08 -5.55915e-07 -2.51054e-09)
(3.41405e-08 -5.35666e-07 -2.02753e-09)
(3.07744e-08 -5.13234e-07 -1.66051e-09)
(2.61661e-08 -4.87725e-07 -1.35287e-09)
(2.08564e-08 -4.57137e-07 -1.14765e-09)
(1.51592e-08 -4.17833e-07 -9.84441e-10)
(9.5216e-09 -3.63546e-07 -9.08996e-10)
(4.51765e-09 -2.81186e-07 -7.31421e-10)
(5.85306e-10 -1.42355e-07 -4.27797e-10)
(-9.62388e-10 -1.38845e-07 -9.30827e-10)
(-7.70841e-09 -2.75312e-07 -1.52545e-09)
(-1.71049e-08 -3.57168e-07 -1.79216e-09)
(-2.76806e-08 -4.10702e-07 -1.89851e-09)
(-3.88519e-08 -4.49239e-07 -2.07441e-09)
(-4.95609e-08 -4.78021e-07 -2.36699e-09)
(-5.90524e-08 -5.01632e-07 -2.7791e-09)
(-6.66259e-08 -5.20998e-07 -3.3652e-09)
(-7.12835e-08 -5.37958e-07 -4.12156e-09)
(-7.25007e-08 -5.51892e-07 -4.93984e-09)
(-6.93342e-08 -5.63473e-07 -5.8106e-09)
(-6.17995e-08 -5.72715e-07 -6.66514e-09)
(-5.02119e-08 -5.80013e-07 -7.45912e-09)
(-3.53368e-08 -5.84662e-07 -8.05664e-09)
(-1.78941e-08 -5.86632e-07 -8.34846e-09)
(6.55464e-10 -5.84936e-07 -8.29159e-09)
(1.83512e-08 -5.81051e-07 -7.93213e-09)
(3.42801e-08 -5.75011e-07 -7.32841e-09)
(4.66859e-08 -5.65914e-07 -6.61198e-09)
(5.49801e-08 -5.54321e-07 -5.71174e-09)
(5.93408e-08 -5.41012e-07 -4.84136e-09)
(5.95614e-08 -5.25691e-07 -4.00887e-09)
(5.62736e-08 -5.08073e-07 -3.27023e-09)
(5.03831e-08 -4.87968e-07 -2.64987e-09)
(4.25342e-08 -4.64616e-07 -2.15983e-09)
(3.35766e-08 -4.36184e-07 -1.83117e-09)
(2.41559e-08 -3.99107e-07 -1.56479e-09)
(1.51029e-08 -3.47466e-07 -1.43131e-09)
(7.1208e-09 -2.68824e-07 -1.15595e-09)
(8.94298e-10 -1.35917e-07 -6.90867e-10)
(-1.17213e-09 -1.28714e-07 -1.10919e-09)
(-9.74561e-09 -2.55463e-07 -1.83059e-09)
(-2.13646e-08 -3.31247e-07 -2.17742e-09)
(-3.45768e-08 -3.80718e-07 -2.3341e-09)
(-4.85033e-08 -4.15837e-07 -2.58332e-09)
(-6.18934e-08 -4.41686e-07 -2.97029e-09)
(-7.37997e-08 -4.62192e-07 -3.52663e-09)
(-8.31545e-08 -4.78532e-07 -4.26411e-09)
(-8.88688e-08 -4.92305e-07 -5.1748e-09)
(-9.01422e-08 -5.0345e-07 -6.18954e-09)
(-8.60431e-08 -5.12335e-07 -7.29095e-09)
(-7.63189e-08 -5.18804e-07 -8.34946e-09)
(-6.11698e-08 -5.2348e-07 -9.28644e-09)
(-4.17452e-08 -5.26422e-07 -1.00356e-08)
(-1.92819e-08 -5.27735e-07 -1.04504e-08)
(4.41202e-09 -5.26438e-07 -1.04105e-08)
(2.70258e-08 -5.23708e-07 -9.9768e-09)
(4.73659e-08 -5.19689e-07 -9.22104e-09)
(6.32462e-08 -5.13294e-07 -8.31932e-09)
(7.37204e-08 -5.04953e-07 -7.29804e-09)
(7.89098e-08 -4.94811e-07 -6.2031e-09)
(7.90045e-08 -4.82735e-07 -5.14806e-09)
(7.46118e-08 -4.68457e-07 -4.25185e-09)
(6.67499e-08 -4.51647e-07 -3.52305e-09)
(5.63267e-08 -4.31476e-07 -2.95028e-09)
(4.44749e-08 -4.06296e-07 -2.54782e-09)
(3.19948e-08 -3.72738e-07 -2.21969e-09)
(1.99075e-08 -3.25054e-07 -2.02885e-09)
(9.26695e-09 -2.51583e-07 -1.67374e-09)
(1.11918e-09 -1.26917e-07 -9.88464e-10)
(-1.33663e-09 -1.17013e-07 -1.30302e-09)
(-1.13179e-08 -2.32331e-07 -2.15674e-09)
(-2.47426e-08 -3.00916e-07 -2.55048e-09)
(-4.00576e-08 -3.45368e-07 -2.73471e-09)
(-5.61171e-08 -3.76328e-07 -3.02003e-09)
(-7.15034e-08 -3.98572e-07 -3.45053e-09)
(-8.51255e-08 -4.15476e-07 -4.05397e-09)
(-9.57189e-08 -4.28313e-07 -4.85069e-09)
(-1.02094e-07 -4.3846e-07 -5.84906e-09)
(-1.03255e-07 -4.46162e-07 -6.99034e-09)
(-9.82968e-08 -4.51917e-07 -8.22732e-09)
(-8.68862e-08 -4.55665e-07 -9.40798e-09)
(-6.91673e-08 -4.57742e-07 -1.04042e-08)
(-4.63351e-08 -4.58571e-07 -1.11919e-08)
(-2.01421e-08 -4.5882e-07 -1.16896e-08)
(7.287e-09 -4.57814e-07 -1.16984e-08)
(3.35496e-08 -4.56397e-07 -1.12559e-08)
(5.7078e-08 -4.54618e-07 -1.04548e-08)
(7.55164e-08 -4.5118e-07 -9.41547e-09)
(8.78165e-08 -4.46117e-07 -8.23571e-09)
(9.3848e-08 -4.39386e-07 -6.98794e-09)
(9.3904e-08 -4.30899e-07 -5.81937e-09)
(8.87263e-08 -4.20345e-07 -4.80685e-09)
(7.94402e-08 -4.07226e-07 -3.98169e-09)
(6.70797e-08 -3.90615e-07 -3.34161e-09)
(5.29542e-08 -3.68991e-07 -2.92265e-09)
(3.81009e-08 -3.39428e-07 -2.62232e-09)
(2.3739e-08 -2.9653e-07 -2.42598e-09)
(1.10473e-08 -2.29617e-07 -2.02667e-09)
(1.31968e-09 -1.15595e-07 -1.20114e-09)
(-1.44871e-09 -1.0349e-07 -1.44105e-09)
(-1.24634e-08 -2.05795e-07 -2.39107e-09)
(-2.7187e-08 -2.66418e-07 -2.81333e-09)
(-4.39344e-08 -3.054e-07 -2.98587e-09)
(-6.14417e-08 -3.31994e-07 -3.255e-09)
(-7.81712e-08 -3.50492e-07 -3.67497e-09)
(-9.29076e-08 -3.63779e-07 -4.29726e-09)
(-1.04224e-07 -3.73139e-07 -5.12237e-09)
(-1.1088e-07 -3.79745e-07 -6.14358e-09)
(-1.11772e-07 -3.84036e-07 -7.30422e-09)
(-1.06081e-07 -3.86606e-07 -8.54435e-09)
(-9.34551e-08 -3.87756e-07 -9.74325e-09)
(-7.40539e-08 -3.87755e-07 -1.07661e-08)
(-4.90867e-08 -3.86854e-07 -1.15183e-08)
(-2.05468e-08 -3.85977e-07 -1.19647e-08)
(9.21998e-09 -3.85148e-07 -1.19364e-08)
(3.78581e-08 -3.8487e-07 -1.15253e-08)
(6.34342e-08 -3.84895e-07 -1.07689e-08)
(8.35277e-08 -3.83975e-07 -9.73876e-09)
(9.70054e-08 -3.81946e-07 -8.56668e-09)
(1.03685e-07 -3.78696e-07 -7.32963e-09)
(1.03895e-07 -3.73869e-07 -6.16207e-09)
(9.83534e-08 -3.67013e-07 -5.12616e-09)
(8.82148e-08 -3.57547e-07 -4.28368e-09)
(7.46223e-08 -3.4455e-07 -3.63462e-09)
(5.89889e-08 -3.26543e-07 -3.20976e-09)
(4.24467e-08 -3.00981e-07 -2.92944e-09)
(2.64089e-08 -2.63249e-07 -2.75452e-09)
(1.22344e-08 -2.03995e-07 -2.32453e-09)
(1.43292e-09 -1.02611e-07 -1.38175e-09)
(-1.51564e-09 -8.91395e-08 -1.52031e-09)
(-1.31356e-08 -1.77417e-07 -2.50211e-09)
(-2.86368e-08 -2.29676e-07 -2.93433e-09)
(-4.62105e-08 -2.62981e-07 -3.10939e-09)
(-6.45155e-08 -2.85164e-07 -3.38081e-09)
(-8.19251e-08 -2.99966e-07 -3.79142e-09)
(-9.71675e-08 -3.09825e-07 -4.39814e-09)
(-1.08731e-07 -3.15965e-07 -5.1944e-09)
(-1.1536e-07 -3.1943e-07 -6.17405e-09)
(-1.15911e-07 -3.20759e-07 -7.27792e-09)
(-1.09631e-07 -3.20601e-07 -8.44121e-09)
(-9.62084e-08 -3.19412e-07 -9.55668e-09)
(-7.59575e-08 -3.17592e-07 -1.05396e-08)
(-5.00179e-08 -3.15506e-07 -1.12333e-08)
(-2.03765e-08 -3.13945e-07 -1.16266e-08)
(1.0461e-08 -3.13361e-07 -1.16067e-08)
(4.02194e-08 -3.13995e-07 -1.12488e-08)
(6.66688e-08 -3.15372e-07 -1.05425e-08)
(8.75829e-08 -3.16479e-07 -9.56919e-09)
(1.01813e-07 -3.16969e-07 -8.46688e-09)
(1.09002e-07 -3.16603e-07 -7.29986e-09)
(1.09437e-07 -3.14866e-07 -6.18919e-09)
(1.03806e-07 -3.11232e-07 -5.19643e-09)
(9.32678e-08 -3.05062e-07 -4.38767e-09)
(7.9003e-08 -2.95472e-07 -3.76161e-09)
(6.25119e-08 -2.81099e-07 -3.34633e-09)
(4.50072e-08 -2.59694e-07 -3.07922e-09)
(2.80162e-08 -2.27345e-07 -2.92819e-09)
(1.29556e-08 -1.76182e-07 -2.49709e-09)
(1.50159e-09 -8.8517e-08 -1.48496e-09)
(-1.53854e-09 -7.41949e-08 -1.54636e-09)
(-1.33602e-08 -1.47991e-07 -2.54544e-09)
(-2.90819e-08 -1.91732e-07 -2.97736e-09)
(-4.68988e-08 -2.19338e-07 -3.13816e-09)
(-6.54145e-08 -2.37222e-07 -3.39195e-09)
(-8.29626e-08 -2.48575e-07 -3.76837e-09)
(-9.82352e-08 -2.55415e-07 -4.32853e-09)
(-1.09689e-07 -2.58861e-07 -5.05956e-09)
(-1.16091e-07 -2.59834e-07 -5.9583e-09)
(-1.16316e-07 -2.58916e-07 -6.95993e-09)
(-1.09675e-07 -2.56765e-07 -8.0072e-09)
(-9.58869e-08 -2.53881e-07 -9.01558e-09)
(-7.54257e-08 -2.50764e-07 -9.90691e-09)
(-4.94944e-08 -2.47959e-07 -1.05275e-08)
(-1.9849e-08 -2.46132e-07 -1.08697e-08)
(1.10445e-08 -2.45702e-07 -1.08628e-08)
(4.08049e-08 -2.46818e-07 -1.05573e-08)
(6.72613e-08 -2.49074e-07 -9.91531e-09)
(8.83745e-08 -2.51621e-07 -9.03991e-09)
(1.0289e-07 -2.53971e-07 -8.05173e-09)
(1.10341e-07 -2.55754e-07 -7.00426e-09)
(1.11011e-07 -2.56404e-07 -5.99698e-09)
(1.05509e-07 -2.55346e-07 -5.08726e-09)
(9.49621e-08 -2.51927e-07 -4.34554e-09)
(8.05442e-08 -2.45327e-07 -3.76874e-09)
(6.37845e-08 -2.34331e-07 -3.38589e-09)
(4.59406e-08 -2.17025e-07 -3.12486e-09)
(2.86174e-08 -1.90125e-07 -2.98019e-09)
(1.32389e-08 -1.47229e-07 -2.55073e-09)
(1.53954e-09 -7.38369e-08 -1.52191e-09)
(-1.52842e-09 -5.92875e-08 -1.51764e-09)
(-1.31724e-08 -1.18706e-07 -2.50376e-09)
(-2.86218e-08 -1.53999e-07 -2.93884e-09)
(-4.6169e-08 -1.76055e-07 -3.08621e-09)
(-6.43843e-08 -1.89921e-07 -3.32066e-09)
(-8.161e-08 -1.982e-07 -3.6562e-09)
(-9.6533e-08 -2.02528e-07 -4.16086e-09)
(-1.07616e-07 -2.03883e-07 -4.81416e-09)
(-1.13668e-07 -2.0307e-07 -5.61425e-09)
(-1.13611e-07 -2.00663e-07 -6.49865e-09)
(-1.06804e-07 -1.9729e-07 -7.42073e-09)
(-9.30645e-08 -1.93417e-07 -8.30807e-09)
(-7.3e-08 -1.89688e-07 -9.08159e-09)
(-4.77565e-08 -1.86648e-07 -9.61401e-09)
(-1.89079e-08 -1.84823e-07 -9.89974e-09)
(1.12071e-08 -1.84456e-07 -9.89608e-09)
(4.01269e-08 -1.85727e-07 -9.62182e-09)
(6.5862e-08 -1.88376e-07 -9.06488e-09)
(8.65263e-08 -1.91696e-07 -8.30413e-09)
(1.00924e-07 -1.95184e-07 -7.44047e-09)
(1.08452e-07 -1.98303e-07 -6.52631e-09)
(1.09315e-07 -2.00532e-07 -5.63826e-09)
(1.0407e-07 -2.01302e-07 -4.83122e-09)
(9.37837e-08 -1.99991e-07 -4.17011e-09)
(7.96026e-08 -1.95868e-07 -3.65331e-09)
(6.30532e-08 -1.87885e-07 -3.31099e-09)
(4.54089e-08 -1.74465e-07 -3.06876e-09)
(2.82831e-08 -1.52927e-07 -2.92389e-09)
(1.30816e-08 -1.1824e-07 -2.50204e-09)
(1.52235e-09 -5.91201e-08 -1.49746e-09)
(-1.46476e-09 -4.47473e-08 -1.43623e-09)
(-1.25664e-08 -9.02538e-08 -2.381e-09)
(-2.73083e-08 -1.17389e-07 -2.79643e-09)
(-4.41173e-08 -1.34155e-07 -2.91822e-09)
(-6.15938e-08 -1.4432e-07 -3.12576e-09)
(-7.81298e-08 -1.49928e-07 -3.41447e-09)
(-9.2423e-08 -1.52259e-07 -3.86241e-09)
(-1.02966e-07 -1.52138e-07 -4.43432e-09)
(-1.08629e-07 -1.50229e-07 -5.13728e-09)