/*--------------------------------*- C++ -*----------------------------------*\
| =========                 |                                                 |
| \\      /  F ield         | OpenFOAM: The Open Source CFD Toolbox           |
|  \\    /   O peration     | Version:  v1912                                 |
|   \\  /    A nd           | Website:  www.openfoam.com                      |
|    \\/     M anipulation  |                                                 |
\*---------------------------------------------------------------------------*/
FoamFile
{
    version     2.0;
    format      ascii;
    class       surfaceScalarField;
    location    "264/oil";
    object      phi;
}
// * * * * * * * * * * * * * * * * * * * * * * * * * * * * * * * * * * * * * //

dimensions      [1 0 -1 0 0 0 0];
oriented        oriented;


internalField   nonuniform List<scalar> 
104676
(
-1.1229e-11
2.70191e-11
-1.40385e-11
2.72345e-10
-2.23924e-10
-5.96189e-11
8.52666e-10
-4.19861e-10
-1.60412e-10
1.63993e-09
-5.12154e-10
-2.74983e-10
2.51838e-09
-5.2364e-10
-3.54656e-10
3.37236e-09
-4.76231e-10
-3.77653e-10
4.09754e-09
-3.87149e-10
-3.38018e-10
4.60672e-09
-2.69183e-10
-2.40093e-10
4.83206e-09
-1.32233e-10
-9.32455e-11
4.73672e-09
1.13533e-11
8.3855e-11
4.3028e-09
1.59691e-10
2.74194e-10
3.56044e-09
2.80714e-10
4.61759e-10
2.54844e-09
3.90674e-10
6.21577e-10
1.33937e-09
4.70331e-10
7.39056e-10
2.55608e-11
5.12452e-10
8.01573e-10
-1.29262e-09
5.14776e-10
8.0343e-10
-2.50568e-09
4.7087e-10
7.42007e-10
-3.52245e-09
3.90456e-10
6.26054e-10
-4.2724e-09
2.82459e-10
4.67324e-10
-4.71157e-09
1.56243e-10
2.82981e-10
-4.81803e-09
1.2397e-11
9.43215e-11
-4.59704e-09
-1.35019e-10
-8.56403e-11
-4.09153e-09
-2.7142e-10
-2.33871e-10
-3.36944e-09
-3.89189e-10
-3.329e-10
-2.5184e-09
-4.77839e-10
-3.73416e-10
-1.64236e-09
-5.26149e-10
-3.50185e-10
-8.56144e-10
-5.16023e-10
-2.70404e-10
-2.75586e-10
-4.24389e-10
-1.56172e-10
9.34092e-12
-2.28163e-10
-5.65178e-11
2.22379e-11
-1.25473e-11
2.78346e-10
-5.30162e-10
2.78768e-10
1.07414e-09
-1.59204e-09
5.72322e-10
2.33839e-09
-2.39279e-09
7.08744e-10
3.93049e-09
-2.88054e-09
7.76444e-10
5.65895e-09
-3.11434e-09
8.62414e-10
7.31761e-09
-3.15175e-09
1.017e-09
8.71171e-09
-3.04205e-09
1.26084e-09
9.67277e-09
-2.82408e-09
1.59376e-09
1.00695e-08
-2.53039e-09
2.00122e-09
9.81806e-09
-2.19033e-09
2.45301e-09
8.87932e-09
-1.83262e-09
2.93097e-09
7.30527e-09
-1.51943e-09
3.37429e-09
5.21357e-09
-1.244e-09
3.72666e-09
2.73662e-09
-1.04474e-09
3.99239e-09
5.10747e-11
-9.40477e-10
4.13876e-09
-2.64517e-09
-9.41043e-10
4.15211e-09
-5.12953e-09
-1.04939e-09
4.00442e-09
-7.22384e-09
-1.25213e-09
3.73659e-09
-8.78512e-09
-1.52821e-09
3.37176e-09
-9.72626e-09
-1.84752e-09
2.94497e-09
-9.99182e-09
-2.20043e-09
2.47869e-09
-9.60742e-09
-2.53805e-09
2.01902e-09
-8.66188e-09
-2.82883e-09
1.61213e-09
-7.28499e-09
-3.04583e-09
1.27974e-09
-5.64092e-09
-3.15648e-09
1.03432e-09
-3.9257e-09
-3.12066e-09
8.78947e-10
-2.34204e-09
-2.89114e-09
7.91233e-10
-1.07885e-09
-2.40681e-09
7.19227e-10
-2.80102e-10
-1.60357e-09
5.76941e-10
-5.36367e-10
2.78916e-10
5.85556e-10
-1.70745e-09
5.91601e-10
1.86124e-09
-4.13324e-09
1.26548e-09
3.6505e-09
-5.86664e-09
1.68466e-09
5.77737e-09
-6.99758e-09
1.9903e-09
8.02168e-09
-7.64744e-09
2.28898e-09
1.0141e-08
-7.91662e-09
2.64572e-09
1.18985e-08
-7.89149e-09
3.09203e-09
1.30843e-08
-7.64325e-09
3.63328e-09
1.35348e-08
-7.23666e-09
4.25561e-09
1.31454e-08
-6.72612e-09
4.925e-09
1.18649e-08
-6.17069e-09
5.61844e-09
9.74764e-09
-5.64567e-09
6.24355e-09
6.94692e-09
-5.18531e-09
6.74231e-09
3.64324e-09
-4.8492e-09
7.10857e-09
6.55083e-11
-4.67591e-09
7.3135e-09
-3.52959e-09
-4.68409e-09
7.33822e-09
-6.8442e-09
-4.86046e-09
7.12547e-09
-9.64591e-09
-5.19839e-09
6.74765e-09
-1.1751e-08
-5.65542e-09
6.23211e-09
-1.30477e-08
-6.18515e-09
5.63442e-09
-1.34578e-08
-6.73942e-09
4.94941e-09
-1.30222e-08
-7.24621e-09
4.27295e-09
-1.18524e-08
-7.65071e-09
3.65229e-09
-1.01121e-08
-7.89709e-09
3.11099e-09
-8.00906e-09
-7.9236e-09
2.66382e-09
-5.7762e-09
-7.65904e-09
2.30517e-09
-3.6569e-09
-7.0139e-09
2.00323e-09
-1.86913e-09
-5.88646e-09
1.69189e-09
-5.89494e-10
-4.14873e-09
1.2658e-09
-1.71582e-09
5.90361e-10
8.39705e-10
-3.39761e-09
8.50375e-10
2.51913e-09
-7.64695e-09
1.83426e-09
4.73402e-09
-1.0562e-08
2.48052e-09
7.26816e-09
-1.25101e-08
2.97851e-09
9.87933e-09
-1.37142e-08
3.45573e-09
1.23066e-08
-1.43278e-08
3.98402e-09
1.42937e-08
-1.44785e-08
4.60003e-09
1.56112e-08
-1.42719e-08
5.31116e-09
1.6073e-08
-1.38038e-08
6.10515e-09
1.55586e-08
-1.3162e-08
6.95005e-09
1.4008e-08
-1.24354e-08
7.81511e-09
1.14944e-08
-1.17107e-08
8.57865e-09
8.18487e-09
-1.10796e-08
9.20416e-09
4.28929e-09
-1.05932e-08
9.64004e-09
7.39839e-11
-1.03454e-08
9.88516e-09
-4.16425e-09
-1.03628e-08
9.91707e-09
-8.07398e-09
-1.06053e-08
9.65439e-09
-1.13865e-08
-1.10788e-08
9.19255e-09
-1.38892e-08
-1.17133e-08
8.56037e-09
-1.5453e-08
-1.2441e-08
7.81968e-09
-1.59861e-08
-1.3168e-08
6.96207e-09
-1.55411e-08
-1.38082e-08
6.11737e-09
-1.42422e-08
-1.42758e-08
5.32648e-09
-1.22725e-08
-1.4482e-08
4.61514e-09
-9.86247e-09
-1.43338e-08
3.99993e-09
-7.26623e-09
-1.37259e-08
3.47027e-09
-4.73945e-09
-1.25293e-08
2.98842e-09
-2.5269e-09
-1.05807e-08
2.48169e-09
-8.46385e-10
-7.65336e-09
1.82436e-09
-3.40902e-09
8.47194e-10
1.03141e-09
-5.47048e-09
1.04139e-09
3.02244e-09
-1.1888e-08
2.25002e-09
5.57081e-09
-1.61762e-08
3.06585e-09
8.41928e-09
-1.90645e-08
3.70602e-09
1.13054e-08
-2.09174e-08
4.31724e-09
1.39556e-08
-2.19579e-08
4.98011e-09
1.6103e-08
-2.2359e-08
5.73324e-09
1.75057e-08
-2.22617e-08
6.5871e-09
1.79693e-08
-2.17932e-08
7.52569e-09
1.73609e-08
-2.10724e-08
8.51849e-09
1.56165e-08
-2.02218e-08
9.53061e-09
1.28118e-08
-1.93478e-08
1.04418e-08
9.1155e-09
-1.85632e-08
1.11802e-08
4.77401e-09
-1.79258e-08
1.16746e-08
7.96116e-11
-1.76035e-08
1.1953e-08
-4.64161e-09
-1.76274e-08
1.19859e-08
-8.9934e-09
-1.79411e-08
1.16874e-08
-1.26857e-08
-1.85401e-08
1.11533e-08
-1.54893e-08
-1.93415e-08
1.04315e-08
-1.72487e-08
-2.02209e-08
9.53934e-09
-1.78764e-08
-2.10728e-08
8.53273e-09
-1.74313e-08
-2.17936e-08
7.54075e-09
-1.60463e-08
-2.22633e-08
6.60283e-09
-1.39157e-08
-2.23615e-08
5.74891e-09
-1.12823e-08
-2.19625e-08
4.99511e-09
-8.41195e-09
-2.09266e-08
4.33e-09
-5.57434e-09
-1.90804e-08
3.71322e-09
-3.02821e-09
-1.619e-08
3.06318e-09
-1.03725e-09
-1.18796e-08
2.23555e-09
-5.48453e-09
1.03862e-09
1.16021e-09
-7.80267e-09
1.17192e-09
3.37249e-09
-1.66279e-08
2.52758e-09
6.16326e-09
-2.2427e-08
3.46009e-09
9.23978e-09
-2.63427e-08
4.20186e-09
1.23242e-08
-2.89124e-08
4.91071e-09
1.51345e-08
-3.04449e-08
5.67697e-09
1.73979e-08
-3.11636e-08
6.5414e-09
1.88657e-08
-3.12463e-08
7.51682e-09
1.93361e-08
-3.08492e-08
8.5854e-09
1.86715e-08
-3.01192e-08
9.71106e-09
1.68046e-08
-2.92057e-08
1.08506e-08
1.37871e-08
-2.82555e-08
1.19252e-08
9.80495e-09
-2.73609e-08
1.27803e-08
5.13207e-09
-2.65836e-08
1.33311e-08
7.97676e-11
-2.61776e-08
1.36268e-08
-5.00166e-09
-2.62035e-08
1.36577e-08
-9.67543e-09
-2.66192e-08
1.33516e-08
-1.36456e-08
-2.73166e-08
1.27462e-08
-1.66678e-08
-2.82416e-08
1.19221e-08
-1.85528e-08
-2.92015e-08
1.08656e-08
-1.9239e-08
-3.01158e-08
9.72963e-09
-1.87885e-08
-3.08477e-08
8.60393e-09
-1.73389e-08
-3.12473e-08
7.53477e-09
-1.50926e-08
-3.11661e-08
6.55828e-09
-1.22975e-08
-3.04492e-08
5.69135e-09
-9.22757e-09
-2.89194e-08
4.9226e-09
-6.16289e-09
-2.63525e-08
4.20726e-09
-3.37847e-09
-2.24287e-08
3.45436e-09
-1.16661e-09
-1.66038e-08
2.51253e-09
-7.82129e-09
1.17046e-09
1.22502e-09
-1.02799e-08
1.25217e-09
3.57343e-09
-2.1684e-08
2.70768e-09
6.51705e-09
-2.90721e-08
3.70152e-09
9.73498e-09
-3.406e-08
4.49941e-09
1.29412e-08
-3.73929e-08
5.27441e-09
1.58507e-08
-3.94719e-08
6.11772e-09
1.81895e-08
-4.05743e-08
7.072e-09
1.97043e-08
-4.09137e-08
8.15261e-09
2.01902e-08
-4.0674e-08
9.33874e-09
1.95018e-08
-4.00219e-08
1.05908e-08
1.75702e-08
-3.91331e-08
1.18587e-08
1.4413e-08
-3.81784e-08
1.30801e-08
1.02546e-08
-3.72604e-08
1.40581e-08
5.36666e-09
-3.6356e-08
1.46609e-08
8.66099e-11
-3.58737e-08
1.49766e-08
-5.21803e-09
-3.59133e-08
1.50146e-08
-1.01232e-08
-3.64233e-08
1.4709e-08
-1.42679e-08
-3.72071e-08
1.40348e-08
-1.74296e-08
-3.8165e-08
1.30847e-08
-1.93807e-08
-3.91324e-08
1.18819e-08
-2.00906e-08
-4.00221e-08
1.06165e-08
-1.96255e-08
-4.06749e-08
9.36244e-09
-1.81291e-08
-4.09171e-08
8.17372e-09
-1.58075e-08
-4.05796e-08
7.09203e-09
-1.29124e-08
-3.94778e-08
6.13321e-09
-9.72002e-09
-3.73983e-08
5.2862e-09
-6.51474e-09
-3.40605e-08
4.50257e-09
-3.58298e-09
-2.90484e-08
3.68795e-09
-1.24031e-09
-2.16252e-08
2.67897e-09
-1.03102e-08
1.24885e-09
1.2493e-09
-1.2808e-08
1.27867e-09
3.63737e-09
-2.68487e-08
2.77654e-09
6.6315e-09
-3.58659e-08
3.79964e-09
9.8978e-09
-4.19476e-08
4.62143e-09
1.31407e-08
-4.60643e-08
5.4288e-09
1.60795e-08
-4.87343e-08
6.32382e-09
1.84449e-08
-5.02861e-08
7.34662e-09
1.99848e-08
-5.09657e-08
8.51204e-09
2.04901e-08
-5.09792e-08
9.79984e-09
1.98127e-08
-5.05116e-08
1.11667e-08
1.78713e-08
-4.97487e-08
1.25567e-08
1.46658e-08
-4.88845e-08
1.39116e-08
1.04287e-08
-4.80508e-08
1.50278e-08
5.44987e-09
-4.70421e-08
1.56655e-08
8.61801e-11
-4.65266e-08
1.6017e-08
-5.30966e-09
-4.65751e-08
1.60578e-08
-1.03251e-08
-4.71113e-08
1.57033e-08
-1.45303e-08
-4.79943e-08
1.4992e-08
-1.77323e-08
-4.88744e-08
1.3911e-08
-1.96917e-08
-4.97523e-08
1.25793e-08
-2.03914e-08
-5.0515e-08
1.11929e-08
-1.99066e-08
-5.09837e-08
9.82438e-09
-1.83844e-08
-5.09736e-08
8.53464e-09
-1.60353e-08
-5.02968e-08
7.36814e-09
-1.31103e-08
-4.87446e-08
6.3416e-09
-9.88168e-09
-4.60681e-08
5.44096e-09
-6.63271e-09
-4.19263e-08
4.61663e-09
-3.65247e-09
-3.57996e-08
3.77092e-09
-1.26323e-09
-2.67527e-08
2.73843e-09
-1.28509e-08
1.27774e-09
1.22765e-09
-1.52912e-08
1.2555e-09
3.55889e-09
-3.19192e-08
2.73925e-09
6.49192e-09
-4.25709e-08
3.77197e-09
9.70176e-09
-4.97523e-08
4.59495e-09
1.28905e-08
-5.46478e-08
5.39491e-09
1.57767e-08
-5.79194e-08
6.29912e-09
1.81061e-08
-5.99718e-08
7.35656e-09
1.96363e-08
-6.10702e-08
8.57441e-09
2.01581e-08
-6.14316e-08
9.93039e-09
1.95205e-08
-6.12547e-08
1.13804e-08
1.76464e-08
-6.07289e-08
1.2854e-08
1.45216e-08
-6.00416e-08
1.42817e-08
1.03091e-08
-5.93497e-08
1.55117e-08
5.38033e-09
-5.83102e-08
1.61973e-08
8.1818e-11
-5.7839e-08
1.66114e-08
-5.25554e-09
-5.78819e-08
1.66444e-08
-1.02346e-08
-5.83363e-08
1.62038e-08
-1.44099e-08
-5.92638e-08
1.54444e-08
-1.75141e-08
-6.00322e-08
1.42617e-08
-1.94024e-08
-6.07363e-08
1.28722e-08
-2.00605e-08
-6.12635e-08
1.14068e-08
-1.95585e-08
-6.14413e-08
9.95593e-09
-1.80462e-08
-6.10835e-08
8.59784e-09
-1.57324e-08
-5.9989e-08
7.37859e-09
-1.28614e-08
-5.79303e-08
6.31446e-09
-9.6959e-09
-5.46229e-08
5.38911e-09
-6.50928e-09
-4.96664e-08
4.55335e-09
-3.58438e-09
-4.24341e-08
3.70964e-09
-1.23636e-09
-3.17961e-08
2.6955e-09
-1.53433e-08
1.25627e-09
1.16471e-09
-1.76333e-08
1.17727e-09
3.36521e-09
-3.66917e-08
2.57187e-09
6.10559e-09
-4.88888e-08
3.57745e-09
9.12604e-09
-5.71691e-08
4.39637e-09
1.21515e-08
-6.28467e-08
5.17364e-09
1.48923e-08
-6.66975e-08
6.03764e-09
1.71096e-08
-6.92678e-08
7.07899e-09
1.85801e-08
-7.08409e-08
8.30029e-09
1.91075e-08
-7.16315e-08
9.67229e-09
1.85375e-08
-7.18354e-08
1.11504e-08
1.67966e-08
-7.16411e-08
1.26527e-08
1.38708e-08
-7.12174e-08
1.41014e-08
9.81618e-09
-7.06861e-08
1.53912e-08
5.12001e-09
-6.97494e-08
1.61359e-08
7.60752e-11
-6.93692e-08
1.65746e-08
-4.9979e-09
-6.94097e-08
1.6602e-08
-9.72776e-09
-6.97244e-08
1.61178e-08
-1.37618e-08
-7.05136e-08
1.52834e-08
-1.66732e-08
-7.11946e-08
1.40733e-08
-1.84237e-08
-7.16541e-08
1.26682e-08
-1.90134e-08
-7.18495e-08
1.11759e-08
-1.85061e-08
-7.16455e-08
9.69736e-09
-1.70513e-08
-7.0861e-08
8.32311e-09
-1.48469e-08
-6.92915e-08
7.09815e-09
-1.21289e-08
-6.66858e-08
6.03749e-09
-9.13782e-09
-6.27381e-08
5.12394e-09
-6.12643e-09
-5.6986e-08
4.30805e-09
-3.36864e-09
-4.8689e-08
3.49712e-09
-1.1609e-09
-3.65396e-08
2.53595e-09
-1.76873e-08
1.18334e-09
1.05104e-09
-1.97292e-08
1.04488e-09
3.04366e-09
-4.09372e-08
2.25285e-09
5.49941e-09
-5.44987e-08
3.15411e-09
8.18265e-09
-6.38075e-08
3.95522e-09
1.09039e-08
-7.02737e-08
4.70598e-09
1.33853e-08
-7.46836e-08
5.50494e-09
1.54036e-08
-7.77623e-08
6.47636e-09
1.67582e-08
-7.98367e-08
7.64123e-09
1.72677e-08
-8.1099e-08
8.95787e-09
1.67913e-08
-8.17318e-08
1.03724e-08
1.52753e-08
-8.19015e-08
1.1776e-08
1.26805e-08
-8.173e-08
1.31071e-08
8.94501e-09
-8.1319e-08
1.43687e-08
4.65698e-09
-8.07055e-08
1.52447e-08
6.9088e-11
-8.04834e-08
1.57027e-08
-4.53744e-09
-8.05241e-08
1.57212e-08
-8.80437e-09
-8.06854e-08
1.52278e-08
-1.24733e-08
-8.12341e-08
1.43889e-08
-1.51056e-08
-8.18345e-08
1.32717e-08
-1.66747e-08
-8.19497e-08
1.18645e-08
-1.71759e-08
-8.17528e-08
1.04048e-08
-1.66882e-08
-8.11106e-08
8.9777e-09
-1.53467e-08
-7.98597e-08
7.65754e-09
-1.33364e-08
-7.77876e-08
6.48589e-09
-1.08793e-08
-7.46213e-08
5.47821e-09
-8.1821e-09
-7.00491e-08
4.61361e-09
-5.46479e-09
-6.35482e-08
3.84481e-09
-2.99001e-09
-5.42664e-08
3.10261e-09
-1.02052e-09
-4.07536e-08
2.24465e-09
-1.976e-08
1.05232e-09
8.85582e-10
-2.14772e-08
8.62329e-10
2.5833e-09
-4.44458e-08
1.81079e-09
4.6583e-09
-5.90647e-08
2.49102e-09
6.90871e-09
-6.92321e-08
3.17426e-09
9.15044e-09
-7.64116e-08
3.89634e-09
1.12326e-08
-8.14059e-08
4.64046e-09
1.29538e-08
-8.49805e-08
5.49726e-09
1.4137e-08
-8.75553e-08
6.53542e-09
1.46179e-08
-8.92934e-08
7.71334e-09
1.42679e-08
-9.03232e-08
8.941e-09
1.30019e-08
-9.07799e-08
1.0144e-08
1.07407e-08
-9.08876e-08
1.14186e-08
7.5873e-09
-9.07867e-08
1.26213e-08
3.96221e-09
-9.05115e-08
1.34316e-08
5.79731e-11
-9.04223e-08
1.38437e-08
-3.87488e-09
-9.03989e-08
1.38078e-08
-7.50787e-09
-9.03682e-08
1.33156e-08
-1.06176e-08
-9.06592e-08
1.25344e-08
-1.28388e-08
-9.11463e-08
1.15326e-08
-1.41335e-08
-9.08731e-08
1.0218e-08
-1.45159e-08
-9.03116e-08
8.94129e-09
-1.40664e-08
-8.92617e-08
7.70191e-09
-1.28983e-08
-8.75612e-08
6.53361e-09
-1.11669e-08
-8.5006e-08
5.48709e-09
-9.08612e-09
-8.13022e-08
4.60004e-09
-6.82865e-09
-7.61691e-08
3.86237e-09
-4.58522e-09
-6.90307e-08
3.23889e-09
-2.52528e-09
-5.89603e-08
2.63393e-09
-8.71278e-10
-4.43166e-08
1.90906e-09
-2.15222e-08
8.91086e-10
6.79401e-10
-2.28066e-08
6.50033e-10
1.95688e-09
-4.7108e-08
1.38468e-09
3.55879e-09
-6.25364e-08
1.86975e-09
5.27455e-09
-7.32361e-08
2.28819e-09
6.93785e-09
-8.08816e-08
2.80676e-09
8.48618e-09
-8.63887e-08
3.43473e-09
9.7921e-09
-9.04293e-08
4.14309e-09
1.07365e-08
-9.34475e-08
4.94792e-09
1.11975e-08
-9.56046e-08
5.84994e-09
1.09509e-08
-9.69044e-08
6.82735e-09
9.86604e-09
-9.76092e-08
7.91379e-09
8.04843e-09
-9.80999e-08
9.02978e-09
5.76365e-09
-9.84723e-08
9.97073e-09
3.04597e-09
-9.84106e-08
1.06173e-08
5.08681e-11
-9.83544e-08
1.09277e-08
-2.9949e-09
-9.82087e-08
1.08558e-08
-5.77014e-09
-9.80505e-08
1.04573e-08
-8.10667e-09
-9.81089e-08
9.7858e-09
-9.87021e-09
-9.82192e-08
8.83604e-09
-1.08479e-08
-9.75671e-08
7.67155e-09
-1.10855e-08
-9.67402e-08
6.66631e-09
-1.07056e-08
-9.53775e-08
5.73628e-09
-9.81182e-09
-9.33367e-08
4.88197e-09
-8.51316e-09
-9.04673e-08
4.1627e-09
-6.93131e-09
-8.64269e-08
3.54273e-09
-5.21272e-09
-8.08668e-08
2.97901e-09
-3.49987e-09
-7.3224e-08
2.48038e-09
-1.92698e-09
-6.25343e-08
2.00111e-09
-6.65797e-10
-4.70239e-08
1.44623e-09
-2.28617e-08
6.73814e-10
4.58928e-10
-2.36608e-08
3.95308e-10
1.23764e-09
-4.87177e-08
8.30907e-10
2.23728e-09
-6.47379e-08
1.20171e-09
3.32238e-09
-7.58215e-08
1.50027e-09
4.38723e-09
-8.37902e-08
1.84387e-09
5.38398e-09
-8.96247e-08
2.23947e-09
6.22098e-09
-9.3926e-08
2.65988e-09
6.78906e-09
-9.70971e-08
3.0816e-09
7.09493e-09
-9.94516e-08
3.54096e-09
6.91556e-09
-1.00942e-07
4.21681e-09
6.20366e-09
-1.01946e-07
5.04804e-09
5.10278e-09
-1.02812e-07
5.81244e-09
3.66318e-09
-1.03443e-07
6.41027e-09
1.94324e-09
-1.03516e-07
6.82557e-09
6.05225e-11
-1.03527e-07
7.05619e-09
-1.85158e-09
-1.03333e-07
7.03634e-09
-3.60517e-09
-1.031e-07
6.80251e-09
-5.05279e-09
-1.03037e-07
6.37565e-09
-6.18355e-09
-1.02882e-07
5.79333e-09
-6.87863e-09
-1.01897e-07
5.02498e-09
-7.13715e-09
-1.00695e-07
4.2138e-09
-6.93435e-09
-9.90379e-08
3.45797e-09
-6.32141e-09
-9.68273e-08
2.87791e-09
-5.41642e-09
-9.3853e-08
2.48073e-09
-4.37214e-09
-8.96373e-08
2.16607e-09
-3.27529e-09
-8.38232e-08
1.85938e-09
-2.19301e-09
-7.58616e-08
1.55516e-09
-1.2039e-09
-6.47772e-08
1.25381e-09
-4.16385e-10
-4.87155e-08
9.0412e-10
-2.36989e-08
4.20914e-10
1.6761e-10
-2.39628e-08
1.34315e-10
4.30066e-10
-4.92678e-08
2.87546e-10
7.82e-10
-6.55192e-08
4.29259e-10
1.16876e-09
-7.67445e-08
5.36117e-10
1.55963e-09
-8.48241e-08
6.43133e-10
1.95573e-09
-9.0753e-08
7.32443e-10
2.32393e-09
-9.51043e-08
8.10457e-10
2.5435e-09
-9.82536e-08
9.36938e-10
2.57398e-09
-1.00617e-07
1.1348e-09
2.43482e-09
-1.0222e-07
1.41676e-09
2.214e-09
-1.03438e-07
1.71217e-09
1.89085e-09
-1.04451e-07
1.96217e-09
1.28346e-09
-1.04967e-07
2.13179e-09
6.39226e-10
-1.05123e-07
2.25219e-09
3.6354e-11
-1.05297e-07
2.37298e-09
-6.3547e-10
-1.05136e-07
2.47543e-09
-1.2648e-09
-1.04941e-07
2.47051e-09
-1.76273e-09
-1.04849e-07
2.30838e-09
-2.15481e-09
-1.04584e-07
2.09329e-09
-2.39692e-09
-1.03484e-07
1.8295e-09
-2.49486e-09
-1.02148e-07
1.55082e-09
-2.43288e-09
-1.00381e-07
1.28172e-09
-2.21912e-09
-9.8103e-08
1.06209e-09
-1.89888e-09
-9.50683e-08
8.95125e-10
-1.52694e-09
-9.07659e-08
7.56404e-10
-1.13797e-09
-8.48442e-08
6.31805e-10
-7.55782e-10
-7.67665e-08
5.22585e-10
-4.10281e-10
-6.55433e-08
4.20534e-10
-1.41147e-10
-4.92848e-08
3.00229e-10
-2.39845e-08
1.44571e-10
-1.18358e-10
-2.37145e-08
-1.30052e-10
-3.67655e-10
-4.87563e-08
-2.6238e-10
-6.74096e-10
-6.48553e-08
-3.57733e-10
-1.00909e-09
-7.5964e-08
-4.4554e-10
-1.35424e-09
-8.39516e-08
-5.27155e-10
-1.70107e-09
-8.98205e-08
-5.85249e-10
-2.02511e-09
-9.41511e-08
-6.28824e-10
-2.23136e-09
-9.73326e-08
-7.14692e-10
-2.23644e-09
-9.96981e-08
-9.14383e-10
-2.08697e-09
-1.01157e-07
-1.21344e-09
-1.89264e-09
-1.02135e-07
-1.49786e-09
-1.72379e-09
-1.02931e-07
-1.68838e-09
-1.45568e-09
-1.03422e-07
-1.81192e-09
-8.96942e-10
-1.0374e-07
-1.94106e-09
-8.32585e-11
-1.03972e-07
-2.13778e-09
5.8422e-10
-1.0359e-07
-2.21383e-09
1.15794e-09
-1.03391e-07
-2.12443e-09
1.67328e-09
-1.03381e-07
-1.98405e-09
1.95697e-09
-1.03064e-07
-1.80356e-09
2.13962e-09
-1.02075e-07
-1.59158e-09
2.23096e-09
-1.00884e-07
-1.35494e-09
2.18224e-09
-9.92198e-08
-1.11225e-09
2.0118e-09
-9.70103e-08
-9.2199e-10
1.725e-09
-9.39969e-08
-7.8477e-10
1.39232e-09
-8.97539e-08
-6.79546e-10
1.04716e-09
-8.39195e-08
-5.79834e-10
7.02576e-10
-7.59416e-08
-4.8045e-10
3.90416e-10
-6.48504e-08
-3.80748e-10
1.40613e-10
-4.87704e-08
-2.64497e-10
-2.37205e-08
-1.23197e-10
-4.01396e-10
-2.29083e-08
-4.0506e-10
-1.16595e-09
-4.71255e-08
-8.66565e-10
-2.11999e-09
-6.26982e-08
-1.20327e-09
-3.16431e-09
-7.34255e-08
-1.49417e-09
-4.21313e-09
-8.11046e-08
-1.79774e-09
-5.18513e-09
-8.67108e-08
-2.13696e-09
-5.99299e-09
-9.08259e-08
-2.51691e-09
-6.56569e-09
-9.38148e-08
-2.9452e-09
-6.8315e-09
-9.60068e-08
-3.4262e-09
-6.62856e-09
-9.73117e-08
-4.04915e-09
-5.94847e-09
-9.79866e-08
-4.82871e-09
-4.96753e-09
-9.83812e-08
-5.53091e-09
-3.63222e-09
-9.86862e-08
-6.07064e-09
-1.95296e-09
-9.89234e-08
-6.49441e-09
-3.22885e-11
-9.91228e-08
-6.76928e-09
1.8219e-09
-9.87006e-08
-6.74369e-09
3.56434e-09
-9.86239e-08
-6.51061e-09
5.08865e-09
-9.88159e-08
-6.08997e-09
6.00316e-09
-9.84697e-08
-5.5096e-09
6.59819e-09
-9.78217e-08
-4.8484e-09
6.86248e-09
-9.70593e-08
-4.08807e-09
6.66612e-09
-9.57283e-08
-3.29448e-09
6.09643e-09
-9.36684e-08
-2.77202e-09
5.22428e-09
-9.07006e-08
-2.42425e-09
4.22236e-09
-8.66406e-08
-2.11173e-09
3.18482e-09
-8.1083e-08
-1.79926e-09
2.14375e-09
-7.34186e-08
-1.48208e-09
1.19823e-09
-6.27329e-08
-1.17191e-09
4.35232e-10
-4.71921e-08
-8.15185e-10
-2.28963e-08
-3.88769e-10
-6.56745e-10
-2.15937e-08
-6.58177e-10
-1.89289e-09
-4.44761e-08
-1.41366e-09
-3.4363e-09
-5.91927e-08
-1.96251e-09
-5.11784e-09
-6.93075e-08
-2.43637e-09
-6.79847e-09
-7.64924e-08
-2.93092e-09
-8.33303e-09
-8.16718e-08
-3.50358e-09
-9.5845e-09
-8.54102e-08
-4.16351e-09
-1.04715e-08
-8.80002e-08
-4.92774e-09
-1.09161e-08
-8.97735e-08
-5.78959e-09
-1.06995e-08
-9.08409e-08
-6.68884e-09
-9.66422e-09
-9.12997e-08
-7.72309e-09
-7.94358e-09
-9.13083e-08
-8.79343e-09
-5.69113e-09
-9.12384e-08
-9.69901e-09
-3.00647e-09
-9.12479e-08
-1.03586e-08
-3.5774e-11
-9.13786e-08
-1.07141e-08
2.91851e-09
-9.10219e-08
-1.06333e-08
5.66903e-09
-9.10818e-08
-1.02938e-08
8.05041e-09
-9.15456e-08
-9.65288e-09
9.67009e-09
-9.13664e-08
-8.7234e-09
1.06499e-08
-9.11021e-08
-7.69907e-09
1.09474e-08
-9.06875e-08
-6.66838e-09
1.05731e-08
-8.97184e-08
-5.63475e-09
9.64611e-09
-8.79985e-08
-4.74261e-09
8.33105e-09
-8.53854e-08
-4.00038e-09
6.77343e-09
-8.17184e-08
-3.3651e-09
5.12309e-09
-7.6634e-08
-2.79913e-09
3.47407e-09
-6.94662e-08
-2.3036e-09
1.95081e-09
-5.93784e-08
-1.83127e-09
6.96851e-10
-4.46501e-08
-1.28785e-09
-2.15777e-08
-6.21526e-10
-8.76688e-10
-1.98471e-08
-8.70387e-10
-2.50372e-09
-4.09766e-08
-1.87305e-09
-4.53904e-09
-5.45445e-08
-2.61329e-09
-6.75984e-09
-6.38601e-08
-3.22653e-09
-8.98969e-09
-7.04097e-08
-3.85207e-09
-1.1055e-08
-7.50233e-08
-4.58201e-09
-1.27746e-08
-7.823e-08
-5.4598e-09
-1.39374e-08
-8.03442e-08
-6.49339e-09
-1.44134e-08
-8.16509e-08
-7.648e-09
-1.40774e-08
-8.23346e-08
-8.84394e-09
-1.2811e-08
-8.25343e-08
-1.00329e-08
-1.05431e-08
-8.23268e-08
-1.1249e-08
-7.48702e-09
-8.1894e-08
-1.2399e-08
-3.92034e-09
-8.15721e-08
-1.32408e-08
-2.8001e-11
-8.15833e-08
-1.36868e-08
3.8535e-09
-8.13298e-08
-1.3574e-08
7.45134e-09
-8.15291e-08
-1.3152e-08
1.0551e-08
-8.22391e-08
-1.24076e-08
1.27775e-08
-8.24062e-08
-1.11874e-08
1.40601e-08
-8.24954e-08
-9.88876e-09
1.44338e-08
-8.23226e-08
-8.73744e-09
1.39839e-08
-8.1676e-08
-7.59165e-09
1.28217e-08
-8.03828e-08
-6.45318e-09
1.11209e-08
-7.82604e-08
-5.42455e-09
9.05901e-09
-7.50968e-08
-4.56036e-09
6.8414e-09
-7.06074e-08
-3.8096e-09
4.64515e-09
-6.4198e-08
-3.0722e-09
2.59746e-09
-5.49537e-08
-2.37703e-09
9.17704e-10
-4.12921e-08
-1.67805e-09
-1.98374e-08
-8.22361e-10
-1.04759e-09
-1.77634e-08
-1.03667e-09
-2.98302e-09
-3.68223e-08
-2.21953e-09
-5.43039e-09
-4.89955e-08
-3.10215e-09
-8.12981e-09
-5.73173e-08
-3.84322e-09
-1.08223e-08
-6.31181e-08
-4.59793e-09
-1.32781e-08
-6.71151e-08
-5.45086e-09
-1.52881e-08
-6.97662e-08
-6.45276e-09
-1.66337e-08
-7.13843e-08
-7.61456e-09
-1.71384e-08
-7.22214e-08
-8.92649e-09
-1.66673e-08
-7.24753e-08
-1.03326e-08
-1.51525e-08
-7.23196e-08
-1.17307e-08
-1.25485e-08
-7.19081e-08
-1.30223e-08
-8.89638e-09
-7.13316e-08
-1.42125e-08
-4.61538e-09
-7.06882e-08
-1.51626e-08
-1.89104e-11
-7.04734e-08
-1.57053e-08
4.55924e-09
-7.0292e-08
-1.56166e-08
8.82225e-09
-7.06441e-08
-1.515e-08
1.24653e-08
-7.15344e-08
-1.43497e-08
1.51014e-08
-7.196e-08
-1.30828e-08
1.66555e-08
-7.23373e-08
-1.17116e-08
1.71474e-08
-7.24974e-08
-1.03158e-08
1.66551e-08
-7.22554e-08
-8.92709e-09
1.53164e-08
-7.14251e-08
-7.61858e-09
1.33166e-08
-6.98081e-08
-6.45291e-09
1.0853e-08
-6.71678e-08
-5.4662e-09
8.14007e-09
-6.32309e-08
-4.66428e-09
5.4437e-09
-5.75516e-08
-3.95039e-09
3.01097e-09
-4.93188e-08
-3.20211e-09
1.05438e-09
-3.70646e-08
-2.27059e-09
-1.77482e-08
-1.03446e-09
-1.16321e-09
-1.54217e-08
-1.17926e-09
-3.36366e-09
-3.20798e-08
-2.54306e-09
-6.11797e-09
-4.2741e-08
-3.50089e-09
-9.12616e-09
-5.00058e-08
-4.30304e-09
-1.21191e-08
-5.50126e-08
-5.11117e-09
-1.48433e-08
-5.83673e-08
-6.02158e-09
-1.70541e-08
-6.0473e-08
-7.08112e-09
-1.85209e-08
-6.16148e-08
-8.30323e-09
-1.9045e-08
-6.20207e-08
-9.67868e-09
-1.84774e-08
-6.18872e-08
-1.11582e-08
-1.67382e-08
-6.14024e-08
-1.26578e-08
-1.38295e-08
-6.07523e-08
-1.40639e-08
-9.81905e-09
-6.00644e-08
-1.52754e-08
-5.05803e-09
-5.92955e-08
-1.61511e-08
-1.05382e-11
-5.88443e-08
-1.66755e-08
5.04518e-09
-5.87284e-08
-1.66202e-08
9.78542e-09
-5.92132e-08
-1.61734e-08
1.37699e-08
-6.01246e-08
-1.53964e-08
1.66962e-08
-6.0772e-08
-1.4115e-08
1.84555e-08
-6.14228e-08
-1.26729e-08
1.90424e-08
-6.19122e-08
-1.11705e-08
1.85323e-08
-6.20521e-08
-9.69181e-09
1.70744e-08
-6.16513e-08
-8.31553e-09
1.48687e-08
-6.05137e-08
-7.08913e-09
1.21432e-08
-5.84124e-08
-6.03087e-09
9.12902e-09
-5.50727e-08
-5.14482e-09
6.08843e-09
-5.0119e-08
-4.39233e-09
3.32839e-09
-4.29264e-08
-3.6323e-09
1.15431e-09
-3.22609e-08
-2.62929e-09
-1.54102e-08
-1.18333e-09
-1.21638e-09
-1.29387e-08
-1.26782e-09
-3.5818e-09
-2.6982e-08
-2.73351e-09
-6.52375e-09
-3.60783e-08
-3.72137e-09
-9.71872e-09
-4.22546e-08
-4.55572e-09
-1.28943e-08
-4.6444e-08
-5.39112e-09
-1.57765e-08
-4.91644e-08
-6.31836e-09
-1.8105e-08
-5.07576e-08
-7.3854e-09
-1.96361e-08
-5.14757e-08
-8.60861e-09
-2.01591e-08
-5.1527e-08
-9.97326e-09
-1.95195e-08
-5.1099e-08
-1.14308e-08
-1.76396e-08
-5.03721e-08
-1.29118e-08
-1.4522e-08
-4.95361e-08
-1.4333e-08
-1.03246e-08
-4.87013e-08
-1.55576e-08
-5.311e-09
-4.79204e-08
-1.63858e-08
-2.6904e-12
-4.73701e-08
-1.67812e-08
5.31931e-09
-4.73219e-08
-1.67295e-08
1.03047e-08
-4.78681e-08
-1.63331e-08
1.44788e-08
-4.87355e-08
-1.55657e-08
1.75972e-08
-4.9551e-08
-1.43402e-08
1.94918e-08
-5.03889e-08
-1.29275e-08
2.01494e-08
-5.11199e-08
-1.1448e-08
1.96423e-08
-5.15542e-08
-9.98935e-09
1.8122e-08
-5.15072e-08
-8.62325e-09
1.5796e-08
-5.07924e-08
-7.39594e-09
1.29124e-08
-4.92029e-08
-6.32702e-09
9.73032e-09
-4.64884e-08
-5.40311e-09
6.51481e-09
-4.23158e-08
-4.58815e-09
3.56482e-09
-3.61912e-08
-3.78512e-09
1.22489e-09
-2.71453e-08
-2.77526e-09
-1.29229e-08
-1.26189e-09
-1.25522e-09
-1.03956e-08
-1.28942e-09
-3.66582e-09
-2.18111e-08
-2.7619e-09
-6.66527e-09
-2.92968e-08
-3.78281e-09
-9.93148e-09
-3.43589e-08
-4.62864e-09
-1.31782e-08
-3.77391e-08
-5.4559e-09
-1.61217e-08
-3.98568e-08
-6.36117e-09
-1.84915e-08
-4.09924e-08
-7.39374e-09
-2.00366e-08
-4.13631e-08
-8.56822e-09
-2.05438e-08
-4.1155e-08
-9.8676e-09
-1.98623e-08
-4.05353e-08
-1.12486e-08
-1.79069e-08
-3.96775e-08
-1.26518e-08
-1.47012e-08
-3.87385e-08
-1.40023e-08
-1.04835e-08
-3.78051e-08
-1.51107e-08
-5.46446e-09
-3.70694e-08
-1.58666e-08
-3.71757e-11
-3.65907e-08
-1.62053e-08
5.36123e-09
-3.65386e-08
-1.6183e-08
1.0352e-08
-3.70068e-08
-1.58552e-08
1.46276e-08
-3.7851e-08
-1.51628e-08
1.78628e-08
-3.87537e-08
-1.40334e-08
1.98307e-08
-3.96861e-08
-1.26697e-08
2.05306e-08
-4.05507e-08
-1.12671e-08
2.00386e-08
-4.11757e-08
-9.88487e-09
1.85037e-08
-4.13887e-08
-8.58308e-09
1.61369e-08
-4.10199e-08
-7.40632e-09
1.31914e-08
-3.98864e-08
-6.37212e-09
9.94052e-09
-3.77729e-08
-5.46578e-09
6.66683e-09
-3.43992e-08
-4.64344e-09
3.65344e-09
-2.93569e-08
-3.8209e-09
1.24091e-09
-2.19131e-08
-2.81932e-09
-1.03887e-08
-1.2928e-09
-1.24469e-09
-7.8924e-09
-1.26061e-09
-3.60566e-09
-1.67551e-08
-2.69684e-09
-6.55993e-09
-2.26377e-08
-3.70559e-09
-9.78933e-09
-2.66046e-08
-4.52379e-09
-1.3006e-08
-2.9207e-08
-5.31245e-09
-1.5926e-08
-3.07673e-08
-6.16626e-09
-1.8273e-08
-3.15113e-08
-7.13219e-09
-1.97963e-08
-3.16176e-08
-8.22311e-09
-2.02866e-08
-3.12425e-08
-9.42549e-09
-1.95916e-08
-3.05364e-08
-1.06977e-08
-1.76385e-08
-2.96458e-08
-1.19868e-08
-1.44857e-08
-2.86955e-08
-1.31946e-08
-1.03354e-08
-2.77951e-08
-1.41567e-08
-5.4134e-09
-2.7124e-08
-1.48638e-08
-4.23868e-11
-2.67503e-08
-1.52099e-08
5.29255e-09
-2.66932e-08
-1.51818e-08
1.02118e-08
-2.70752e-08
-1.48541e-08
1.44088e-08
-2.78347e-08
-1.42162e-08
1.7593e-08
-2.87128e-08
-1.32261e-08
1.95572e-08
-2.96502e-08
-1.19989e-08
2.02678e-08
-3.05458e-08
-1.07133e-08
1.97958e-08
-3.12585e-08
-9.44339e-09
1.82826e-08
-3.16355e-08
-8.23948e-09
1.59381e-08
-3.15313e-08
-7.14459e-09
1.30165e-08
-3.07895e-08
-6.17652e-09
9.79678e-09
-2.92322e-08
-5.32197e-09
6.56227e-09
-2.66318e-08
-4.53341e-09
3.6007e-09
-2.26736e-08
-3.7216e-09
1.22788e-09
-1.68098e-08
-2.73e-09
-7.8971e-09
-1.2632e-09
-1.17586e-09
-5.53891e-09
-1.18019e-09
-3.40801e-09
-1.19969e-08
-2.52836e-09
-6.218e-09
-1.63537e-08
-3.47479e-09
-9.31025e-09
-1.92781e-08
-4.23296e-09
-1.24079e-08
-2.1151e-08
-4.95506e-09
-1.52314e-08
-2.22094e-08
-5.73051e-09
-1.75056e-08
-2.26278e-08
-6.6071e-09
-1.89843e-08
-2.25463e-08
-7.59362e-09
-1.94604e-08
-2.20929e-08
-8.67711e-09
-1.87873e-08
-2.13883e-08
-9.82547e-09
-1.68945e-08
-2.0547e-08
-1.09939e-08
-1.38777e-08
-1.96716e-08
-1.20393e-08
-9.89271e-09
-1.8889e-08
-1.28871e-08
-5.17513e-09
-1.83112e-08
-1.35263e-08
-3.56241e-11
-1.80136e-08
-1.38746e-08
5.07176e-09
-1.79673e-08
-1.3835e-08
9.78839e-09
-1.82796e-08
-1.35158e-08
1.38058e-08
-1.89125e-08
-1.29427e-08
1.6849e-08
-1.96856e-08
-1.20716e-08
1.87509e-08
-2.05533e-08
-1.09976e-08
1.94405e-08
-2.13944e-08
-9.83875e-09
1.89815e-08
-2.2103e-08
-8.69472e-09
1.75144e-08
-2.25583e-08
-7.60941e-09
1.52426e-08
-2.26408e-08
-6.61939e-09
1.24168e-08
-2.22244e-08
-5.74052e-09
9.313e-09
-2.11669e-08
-4.96264e-09
6.2172e-09
-1.92962e-08
-4.24042e-09
3.40604e-09
-1.63786e-08
-3.48383e-09
1.17001e-09
-1.20303e-08
-2.54301e-09
-5.54475e-09
-1.18174e-09
-1.04875e-09
-3.44597e-09
-1.04721e-09
-3.06102e-09
-7.73638e-09
-2.25089e-09
-5.63475e-09
-1.06974e-08
-3.08363e-09
-8.50016e-09
-1.26712e-08
-3.74001e-09
-1.13992e-08
-1.38846e-08
-4.36364e-09
-1.40633e-08
-1.45059e-08
-5.03497e-09
-1.62224e-08
-1.46668e-08
-5.79938e-09
-1.76365e-08
-1.44701e-08
-6.66319e-09
-1.81066e-08
-1.40111e-08
-7.61578e-09
-1.74916e-08
-1.33792e-08
-8.62894e-09
-1.57339e-08
-1.26566e-08
-9.65048e-09
-1.29266e-08
-1.19363e-08
-1.05411e-08
-9.20785e-09
-1.13063e-08
-1.1297e-08
-4.80842e-09
-1.08424e-08
-1.18637e-08
-2.88755e-11
-1.06042e-08
-1.21871e-08
4.72337e-09
-1.0577e-08
-1.21442e-08
9.11341e-09
-1.08242e-08
-1.18494e-08
1.28474e-08
-1.13132e-08
-1.13368e-08
1.56796e-08
-1.19416e-08
-1.05774e-08
1.74544e-08
-1.26611e-08
-9.66582e-09
1.80863e-08
-1.33829e-08
-8.64096e-09
1.76335e-08
-1.40166e-08
-7.63145e-09
1.62302e-08
-1.44768e-08
-6.6774e-09
1.40728e-08
-1.46743e-08
-5.80959e-09
1.14052e-08
-1.4514e-08
-5.044e-09
8.50042e-09
-1.38938e-08
-4.36957e-09
5.63318e-09
-1.26844e-08
-3.74515e-09
3.06191e-09
-1.07199e-08
-3.08733e-09
1.04759e-09
-7.76152e-09
-2.25393e-09
-3.45018e-09
-1.04633e-09
-8.58345e-10
-1.73741e-09
-8.53706e-10
-2.56011e-09
-4.2005e-09
-1.83717e-09
-4.80065e-09
-5.96005e-09