/*--------------------------------*- C++ -*----------------------------------*\
| =========                 |                                                 |
| \\      /  F ield         | OpenFOAM: The Open Source CFD Toolbox           |
|  \\    /   O peration     | Version:  v1906                                 |
|   \\  /    A nd           | Web:      www.OpenFOAM.com                      |
|    \\/     M anipulation  |                                                 |
\*---------------------------------------------------------------------------*/
FoamFile
{
    version     2.0;
    format      ascii;
    class       volScalarField;
    location    "27";
    object      omega;
}
// * * * * * * * * * * * * * * * * * * * * * * * * * * * * * * * * * * * * * //

dimensions      [0 0 -1 0 0 0 0];


internalField   nonuniform List<scalar> 
78750
(
357.481
14.2085
14.4356
14.379
14.3448
14.3075
14.2728
14.2415
14.2133
14.1878
14.1646
14.1434
14.1242
14.1067
14.0907
14.0761
14.0627
14.0503
14.0386
14.0273
14.0161
14.0048
13.9927
13.9796
13.9649
13.948
13.9283
13.905
13.8775
13.8447
13.8066
13.7642
13.7237
13.7003
357.154
522.444
5.00199
5.31904
5.40622
5.39262
5.34753
5.30173
5.26432
5.23604
5.21457
5.19731
5.18276
5.16987
5.15822
5.14739
5.13727
5.12757
5.11815
5.10844
5.09816
5.0869
5.07376
5.05757
5.03765
5.01352
4.98457
4.94997
4.90841
4.85744
4.79302
4.70972
4.60395
4.4809
4.3512
524.323
522.525
4.63158
4.79134
4.82929
4.81173
4.78573
4.76945
4.7614
4.75823
4.75765
4.75908
4.762
4.76614
4.77121
4.77695
4.78316
4.78965
4.79626
4.80284
4.80923
4.81528
4.82051
4.82457
4.82698
4.82715
4.82427
4.81727
4.80435
4.78208
4.74557
4.68894
4.60893
4.51197
4.39774
525.228
522.481
4.50356
4.63552
4.69428
4.71275
4.70885
4.69699
4.68469
4.67314
4.66219
4.65252
4.64462
4.6391
4.63619
4.63593
4.63803
4.64216
4.648
4.65525
4.66363
4.67285
4.68262
4.6926
4.70232
4.71115
4.71818
4.72224
4.72173
4.71378
4.69395
4.65676
4.59811
4.52119
4.42026
525.575
522.459
4.42576
4.54193
4.60265
4.63289
4.63857
4.62529
4.59966
4.56827
4.53668
4.50724
4.48144
4.46085
4.44599
4.43674
4.43256
4.43293
4.4374
4.44569
4.45771
4.47342
4.49282
4.51551
4.54068
4.5673
4.59368
4.61867
4.63966
4.65114
4.64731
4.62332
4.57756
4.51563
4.42929
526.24
522.418
4.3598
4.46653
4.52261
4.55
4.55342
4.53593
4.50336
4.46301
4.42217
4.38648
4.35792
4.33577
4.31911
4.30703
4.29844
4.29239
4.2881
4.28516
4.28358
4.2839
4.2873
4.29554
4.31056
4.33425
4.36824
4.41326
4.46531
4.51482
4.54985
4.56017
4.5409
4.49653
4.42273
526.649
522.404
4.31357
4.40799
4.45833
4.48024
4.47775
4.4535
4.41388
4.36854
4.32739
4.29726
4.28022
4.27447
4.27654
4.28301
4.29087
4.29787
4.3024
4.3034
4.30019
4.2925
4.2806
4.26566
4.25036
4.23943
4.24089
4.26406
4.31304
4.38051
4.44794
4.49371
4.50355
4.47808
4.41871
527.127
522.394
4.28133
4.36185
4.40108
4.41159
4.39762
4.36584
4.32805
4.29698
4.2812
4.28254
4.2975
4.32046
4.34613
4.37071
4.39226
4.40977
4.42232
4.42925
4.42992
4.42369
4.40994
4.38823
4.35802
4.31989
4.27919
4.24744
4.24065
4.27071
4.33224
4.39974
4.44213
4.44304
4.40404
527.398
522.391
4.25872
4.32947
4.36182
4.3664
4.34914
4.31991
4.29239
4.27797
4.28147
4.3009
4.33037
4.36357
4.39566
4.42412
4.44841
4.46837
4.48364
4.49388
4.49862
4.4972
4.4888
4.47248
4.44688
4.40994
4.36182
4.30855
4.26392
4.24735
4.27273
4.33052
4.38668
4.4083
4.39058
527.628
522.387
4.24251
4.30535
4.33239
4.3336
4.31656
4.29353
4.27805
4.27854
4.2963
4.32693
4.36363
4.40064
4.43435
4.46327
4.48777
4.50829
4.52472
4.53686
4.54435
4.54659
4.54275
4.53183
4.51232
4.48165
4.43781
4.38236
4.3239
4.27887
4.26692
4.29632
4.34645
4.37866
4.37853
527.77
522.384
4.23072
4.28951
4.3153
4.31744
4.30385
4.28637
4.27687
4.28213
4.30299
4.33531
4.37253
4.4094
4.44274
4.4713
4.49567
4.51652
4.53382
4.54749
4.55718
4.56231
4.56201
4.55519
4.5403
4.51476
4.47604
4.42419
4.36539
4.31341
4.28537
4.29488
4.33311
4.36626
4.37625
527.992
522.38
4.22026
4.27707
4.30348
4.3081
4.29836
4.28464
4.27755
4.28378
4.30522
4.33795
4.37539
4.41238
4.44578
4.47427
4.49844
4.51921
4.53681
4.5513
4.56246
4.56979
4.57242
4.56924
4.55853
4.53765
4.50383
4.45599
4.39845
4.34462
4.30958
4.30713
4.33469
4.36471
4.37874
528.287
522.374
4.21001
4.26623
4.29456
4.30241
4.29624
4.2843
4.27632
4.27998
4.29913
4.33068
4.36782
4.4049
4.43851
4.46724
4.49137
4.5119
4.52945
4.54409
4.55571
4.56391
4.56799
4.56692
4.55908
4.54198
4.51306
4.47079
4.41825
4.36773
4.33233
4.32472
4.34496
4.37043
4.38437
528.643
522.37
4.20092
4.25561
4.28436
4.29355
4.28914
4.27915
4.27377
4.28136
4.3052
4.34016
4.37881
4.41606
4.44952
4.47849
4.50298
4.52384
4.5417
4.55646
4.56784
4.57545
4.57879
4.57714
4.56925
4.55334
4.52746
4.48996
4.44247
4.39524
4.35927
4.3462
4.35862
4.37838
4.38991
528.925
522.368
4.19392
4.24578
4.27332
4.28256
4.27993
4.27434
4.27566
4.29039
4.3191
4.3553
4.39305
4.42945
4.46353
4.49484
4.52278
4.54702
4.56763
4.58439
4.59665
4.60387
4.60556
4.60124
4.59
4.57113
4.54414
4.50854
4.46589
4.42438
4.3907
4.37393
4.37854
4.39133
4.39844
529.096
522.368
4.1891
4.23822
4.26503
4.27584
4.27746
4.27839
4.28629
4.30536
4.33508
4.37029
4.40785
4.44651
4.48525
4.52264
4.55689
4.58674
4.61209
4.63263
4.64747
4.65581
4.65702
4.65041
4.63496
4.61068
4.57839
4.53932
4.49659
4.45794
4.42636
4.40709
4.4047
4.41018
4.41119
529.156
522.366
4.18318
4.23148
4.25988
4.27403
4.27968
4.28299
4.2896
4.30414
4.32941
4.36273
4.40222
4.44612
4.49193
4.53663
4.57743
4.61298
4.6435
4.66879
4.68795
4.69999
4.70401
4.69891
4.68305
4.65579
4.61833
4.57405
4.52864
4.4915
4.4626
4.44303
4.43575
4.43475
4.42919
529.207
522.361
4.17366
4.22146
4.25189
4.26912
4.27767
4.28168
4.28576
4.29586
4.31821
4.35219
4.39573
4.44545
4.49713
4.54674
4.59124
4.6297
4.66293
4.69119
4.71378
4.7297
4.73785
4.73695
4.72481
4.69949
4.66101
4.61302
4.56368
4.52541
4.49771
4.47856
4.46818
4.4621
4.45094
529.307
522.356
4.16435
4.2102
4.24088
4.25941
4.26918
4.27386
4.27855
4.29068
4.31715
4.35709
4.40657
4.4603
4.51335
4.56228
4.60517
4.64194
4.67389
4.70162
4.7246
4.74188
4.75226
4.75445
4.74617
4.72475
4.68905
4.64195
4.59272
4.55542
4.52947
4.51174
4.50011
4.49078
4.47603
529.508
522.355
4.15776
4.20091
4.23032
4.24858
4.25906
4.26629
4.27673
4.29849
4.33529
4.38309
4.43582
4.48814
4.53682
4.58053
4.61895
4.65247
4.6823
4.70888
4.73149
4.74905
4.76029
4.76392
4.75774
4.73892
4.70596
4.66136
4.61507
4.58044
4.55684
4.54087
4.52903
4.51773
4.50078
529.783
522.355
4.15355
4.19451
4.22293
4.24154
4.25434
4.26671
4.28501
4.3157
4.35789
4.4058
4.45417
4.5001
4.54276
4.58223
4.61845
4.65122
4.68114
4.70835
4.73179
4.75023
4.76247
4.76723
4.76238
4.7452
4.71433
4.67258
4.63102
4.60023
4.57957
4.56581
4.55442
4.54198
4.52348
530.104
522.355
4.15064
4.19037
4.21887
4.2391
4.25532
4.27258
4.29574
4.32942
4.37029
4.41354
4.45618
4.4973
4.53713
4.57578
4.61261
4.64658
4.67785
4.70644
4.73112
4.75067
4.76413
4.7703
4.76712
4.75194
4.72344
4.68457
4.64713
4.61862
4.59911
4.5864
4.57554
4.56249
4.5425
530.394
522.354
4.14807
4.18736
4.21662
4.23871
4.25742
4.27669
4.29986
4.33058
4.36623
4.40371
4.44158
4.47979
4.51863
4.55788
4.59632
4.63209
4.66502
4.69512
4.72119
4.74212
4.75726
4.76569
4.76559
4.75444
4.73079
4.69726
4.66553
4.6391
4.61905
4.60515
4.5933
4.57913
4.55761
530.625
522.353
4.14488
4.18373
4.21359
4.23696
4.25685
4.27619
4.29744
4.32365
4.35407
4.3869
4.42147
4.45794
4.49652
4.53674
4.57699
4.6148
4.64938
4.68063
4.70764
4.72939
4.74567
4.75615
4.75951
4.75379
4.73747
4.71227
4.68807
4.66421
4.64252
4.62574
4.61192
4.59645
4.57341
530.769
522.352
4.14128
4.17937
4.20942
4.23352
4.25388
4.27274
4.29208
4.31457
4.34081
4.37
4.40198
4.43706
4.47551
4.51681
4.55912
4.59936
4.63577
4.66801
4.69545
4.71713
4.73317
4.7439
4.7489
4.74756
4.73934
4.7258
4.71307
4.6952
4.67266
4.65069
4.63182
4.61357
4.58933
530.839
522.352
4.13814
4.17538
4.20539
4.22988
4.25041
4.26878
4.28679
4.30689
4.33027
4.3568
4.38673
4.4207
4.45918
4.50181
4.54656
4.58972
4.62834
4.66171
4.68941
4.7104
4.72504
4.73413
4.73834
4.739
4.73746
4.73622
4.7369
4.72919
4.71036
4.68562
4.66138
4.63903
4.61235
530.885
522.351
4.13575
4.17235
4.20222
4.22672
4.24692
4.26426
4.28041
4.29772
4.31767
4.3407
4.36776
4.40015
4.43893
4.48385
4.53235
4.57969
4.62152
4.65669
4.68477
4.70454
4.71638
4.72137
4.72177
4.72215
4.727
4.74014
4.75653
4.76125
4.74833
4.72218
4.69248
4.66533
4.63533
530.94
522.351
4.13291
4.16859
4.19781
4.22152
4.24046
4.25567
4.26869
4.28203
4.29754
4.31666
4.34144
4.3742
4.41636
4.46695
4.52192
4.57501
4.62107
4.65881
4.68749
4.70551
4.7128
4.71002
4.70077
4.69471
4.70276
4.7321
4.76866
4.79071
4.78847
4.76479
4.73121
4.69776
4.66008
531.071
522.35
4.12838
4.16206
4.18971
4.21167
4.22838
4.24063
4.25017
4.26004
4.27283
4.29146
4.31926
4.35872
4.40987
4.46929
4.53073
4.58741
4.63578
4.67512
4.70408
4.72058
4.72363
4.7123
4.68914
4.66696
4.66664
4.70494
4.76172
4.80407
4.81535
4.79708
4.76242
4.72347
4.67649
531.256
522.349
4.12355
4.1545
4.17966
4.19887
4.21242
4.22155
4.22935
4.23995
4.25736
4.2856
4.3272
4.38164
4.44492
4.51063
4.57218
4.62549
4.67093
4.7085
4.73609
4.75143
4.75257
4.73649
4.70202
4.65867
4.63315
4.65889
4.72751
4.79559
4.82966
4.82343
4.79086
4.74699
4.69018
531.494
522.349
4.11973
4.14779
4.16995
4.18595
4.19681
4.20579
4.21812
4.23925
4.27332
4.32152
4.3813
4.44718
4.5127
4.57255
4.62422
4.66931
4.70916
4.7428
4.76854
4.78428
4.78756
4.7744
4.74037
4.68669
4.63217
4.6182
4.66656
4.74695
4.8096
4.82712
4.80602
4.76369
4.70307
531.706
522.35
4.11725
4.14292
4.16291
4.17801
4.19168
4.20982
4.23843
4.28061
4.33519
4.39727
4.46041
4.51915
4.57053
4.61449
4.65376
4.69072
4.7254
4.75669
4.78283
4.8017
4.81068
4.80558
4.78084
4.73266
4.66824
4.61939
4.6249
4.68712
4.76516
4.8112
4.81125
4.77888
4.72128
531.893
522.351
4.11689
4.14257
4.16442
4.18515
4.20993
4.24386
4.28859
4.34138
4.39661
4.4487
4.49432
4.53306
4.56659
4.59773
4.62907
4.66169
4.69518
4.72844
4.75968
4.78709
4.80805
4.8178
4.81018
4.77898
4.72334
4.66025
4.62518
4.64459
4.70963
4.77277
4.79674
4.78169
4.73524
532.041
522.353
4.11987
4.14888
4.17582
4.20404
4.23722
4.27622
4.3188
4.36085
4.39878
4.43114
4.45848
4.48236
4.50448
4.5266
4.55066
4.57804
4.60923
4.6441
4.68262
4.7235
4.76293
4.79516
4.81279
4.80819
4.77667
4.72459
4.67332
4.65183
4.68185
4.74099
4.78171
4.78405
4.75006
532.133
522.354
4.12235
4.15372
4.18306
4.21256
4.2434
4.27481
4.30496
4.33209
4.35521
4.37407
4.38878
4.39971
4.40769
4.41425
4.42172
4.43272
4.45048
4.47881
4.52095
4.5771
4.64341
4.71102
4.76812
4.80342
4.80933
4.78664
4.74392
4.70048
4.69027
4.72357
4.76523
4.77921
4.75777
532.15
522.354
4.12063
4.15084
4.17879
4.20548
4.23106
4.25498
4.27638
4.29432
4.30806
4.31731
4.32232
4.32344
4.3206
4.31321
4.30128
4.28577
4.27058
4.26351
4.27645
4.3229
4.40802
4.52074
4.63797
4.7365
4.80166
4.82981
4.82013
4.7821
4.74748
4.74837
4.77517
4.7895
4.77423
532.078
522.355
4.11739
4.14537
4.17132
4.1954
4.21744
4.23711
4.25434
4.26999
4.28656
4.3079
4.33694
4.37242
4.40744
4.43168
4.43562
4.41262
4.36026
4.28153
4.19199
4.12915
4.14119
4.24578
4.41192
4.58713
4.73241
4.83071
4.87307
4.86231
4.82331
4.79704
4.80019
4.80609
4.79283
531.981
522.356
4.11515
4.14177
4.16695
4.19068
4.21338
4.23669
4.26473
4.30482
4.36596
4.45406
4.56629
4.68927
4.80344
4.89053
4.93803
4.93848
4.88592
4.77242
4.59274
4.36736
4.17135
4.11077
4.22
4.42508
4.63904
4.80965
4.91094
4.94037
4.9161
4.87706
4.85575
4.84492
4.82505
531.929
522.357
4.11569
4.14328
4.17044
4.19853
4.23155
4.2773
4.34683
4.45027
4.59024
4.75763
4.93345
5.09577
5.22745
5.32003
5.37162
5.38154
5.34585
5.25443
5.08789
4.82994
4.51373
4.25825
4.21089
4.36712
4.60212
4.81401
4.95236
5.00819
4.99672
4.95315
4.91468
4.88722
4.85484
531.967
522.358
4.11615
4.1458
4.17983
4.22534
4.29342
4.39511
4.53417
4.70223
4.88084
5.04862
5.18846
5.29241
5.36238
5.40545
5.42734
5.42932
5.40775
5.35356
5.24779
5.05541
4.75581
4.42776
4.25865
4.35915
4.6094
4.85281
5.0153
5.08592
5.08046
5.03129
4.97703
4.93061
4.87694
532.104
522.36
4.1227
4.1658
4.22936
4.32636
4.463
4.63037
4.80623
4.96583
5.0921
5.1796
5.23378
5.26591
5.28604
5.29972
5.30851
5.31118
5.30412
5.28099
5.2305
5.12681
4.91993
4.59545
4.30512
4.29151
4.54181
4.8345
5.03984
5.13656
5.14507
5.09804
5.03435
4.97006
4.89158
532.275
522.363
4.1489
4.22913
4.34732
4.50383
4.6778
4.83753
4.95978
5.04001
5.08974
5.12615
5.16186
5.20098
5.24075
5.27537
5.29906
5.30745
5.29762
5.26722
5.21293
5.12538
4.97893
4.73379
4.4187
4.24752
4.4106
4.74168
5.00788
5.14828
5.18188
5.14608
5.08074
5.00399
4.90563
532.473
522.367
4.1902
4.30697
4.45062
4.60129
4.7279
4.81379
4.86841
4.91575
4.97469
5.05044
5.13783
5.22761
5.31059
5.37916
5.42729
5.45026
5.44455
5.40773
5.33778
5.23012
5.07363
4.84821
4.54486
4.25849
4.24127
4.5487
4.89737
5.11374
5.19278
5.17899
5.1197
5.03796
4.92727
532.635
522.37
4.21308
4.3318
4.44913
4.54815
4.62076
4.68081
4.75129
4.84314
4.95141
5.06538
5.17692
5.28195
5.37838
5.464
5.5353
5.5872
5.61348
5.60744
5.56278
5.4724
5.32479
5.10263
4.79708
4.44094
4.19638
4.30642
4.66994
4.98837
5.15158
5.18541
5.14691
5.06976
4.95435
532.777
522.373
4.20518
4.30342
4.39045
4.4666
4.54226
4.63064
4.73431
4.845
4.95358
5.05606
5.15264
5.24474
5.33314
5.41733
5.49544
5.56416
5.61864
5.65259
5.65847
5.62702
5.54561
5.39149
5.13079
4.75804
4.36522
4.19742
4.42161
4.79124
5.05236
5.1583
5.15884
5.09926
4.9884
532.887
522.376
4.1934
4.28033
4.36309
4.44715
4.53803
4.6355
4.73426
4.83013
4.92283
5.01406
5.10488
5.19482
5.28239
5.36562
5.44233
5.51022
5.56654
5.60804
5.63066
5.62874
5.59364
5.51115
5.35149
5.06993
4.66294
4.28295
4.24097
4.55364
4.89603
5.09114
5.14745
5.11792
5.02119
532.987
522.378
4.19003
4.2749
4.35812
4.44274
4.53079
4.62218
4.7163
4.8133
4.91335
5.01552
5.11789
5.21825
5.3146
5.4051
5.48768
5.55998
5.61892
5.66126
5.68361
5.68206
5.65142
5.58398
5.46442
5.26162
4.93914
4.52941
4.25942
4.38228
4.72526
4.9969
5.11682
5.12558
5.04949
533.074
522.379
4.18323
4.26172
4.34042
4.42456
4.51779
4.6199
4.72789
4.83799
4.94709
5.05337
5.15625
5.25597
5.35281
5.4465
5.53575
5.6183
5.69064
5.74843
5.78663
5.79964
5.78165
5.72544
5.61972
5.4439
5.16745
4.78291
4.40635
4.32095
4.58178
4.89574
5.07446
5.12209
5.06861
533.153
522.379
4.17572
4.25318
4.33982
4.43954
4.55034
4.66533
4.77735
4.88234
4.98
5.07248
5.16261
5.25261
5.34352
5.43511
5.52616
5.61446
5.69713
5.7699
5.82745
5.8635
5.87132
5.84373
5.77115
5.63553
5.40841
5.06468
4.65048
4.38831
4.49019
4.79424
5.02357
5.11169
5.08423
533.213
522.381
4.18546
4.27745
4.3822
4.49625
4.61108
4.71849
4.81487
4.90171
4.98331
5.06414
5.14716
5.2335
5.32286
5.41405
5.50558
5.5954
5.68123
5.75956
5.82578
5.87398
5.89757
5.88948
5.84133
5.74052
5.56465
5.28459
4.90523
4.56394
4.49307
4.71862
4.97017
5.09367
5.09578
533.254
522.384
4.20455
4.30946
4.41857
4.52573
4.62474
4.7133
4.79372
4.8708
4.94923
5.03176
5.11904
5.21034
5.30436
5.39985
5.49556
5.58971
5.68036
5.76429
5.83703
5.89261
5.92437
5.92544
5.88822
5.80245
5.65249
5.41646
5.08916
4.75016
4.57539
4.69636
4.93495
5.07996
5.10861
533.28
522.387
4.21357
4.31745
4.41671
4.50895
4.59391
4.67376
4.75202
4.83206
4.91599
5.0043
5.09633
5.19111
5.28757
5.38526
5.4836
5.58138
5.67722
5.76832
5.85022
5.91625
5.95869
5.96962
5.94078
5.86213
5.72038
5.50144
5.20815
4.89367
4.68348
4.72254
4.92467
5.07321
5.11798
533.316
522.39
4.21289
4.30998
4.40015
4.48484
4.56672
4.64845
4.73203
4.81875
4.90895
5.00204
5.09696
5.19272
5.28831
5.38353
5.47816
5.57174
5.66391
5.75319
5.8368
5.90863
5.96043
5.98281
5.96561
5.89702
5.76328
5.55373
5.28041
4.99048
4.78319
4.78224
4.94617
5.08212
5.12531
533.393
522.394
4.20843
4.29842
4.38328
4.46643
4.55093
4.63847
4.72971
4.8246
4.92236
5.02178
5.12165
5.22097
5.31858
5.41373
5.50563
5.59337
5.67644
5.75438
5.82603
5.88816
5.93433
5.95579
5.94175
5.87907
5.75349
5.55779
5.30987
5.05051
4.86582
4.8533
4.98351
5.09493
5.12019
533.516
522.397
4.20261
4.28814
4.37307
4.46044
4.55179
4.64713
4.74562
4.84612
4.94761
5.04957
5.15192
5.25456
5.3567
5.45722
5.55428
5.64558
5.72885
5.8024
5.86464
5.91328
5.9438
5.9499
5.92289
5.85139
5.72395
5.53981
5.31787
5.09349
4.93968
4.92932
5.02896
5.10896
5.10711
533.65
522.399
4.20332
4.29072
4.37988
4.4722
4.56781
4.6657
4.76432
4.86238
4.95957
5.05656
5.15445
5.25409
5.35533
5.45734
5.55817
5.65502
5.74451
5.82364
5.88932
5.93776
5.96363
5.96079
5.92185
5.8381
5.70357
5.5268
5.32534
5.13208
5.0057
4.99594
5.06508
5.11363
5.08743
533.767
522.402
4.20505
4.29303
4.38303
4.47659
4.57381
4.67293
4.77143
4.86745
4.9608
5.05263
5.14474
5.23863
5.33481
5.43292
5.53135
5.62736
5.71748
5.79841
5.8667
5.91811
5.94669
5.94565
5.9072
5.82331
5.69107
5.52398
5.3388
5.17068
5.06721
5.05716
5.10026
5.12159
5.07609
533.852
522.404
4.20406
4.29317
4.38806
4.48916
4.59396
4.69805
4.79749
4.89069
4.97871
5.06418
5.15008
5.2387
5.331
5.42677
5.52421
5.62006
5.71033
5.79073
5.85722
5.90552
5.93042
5.92638
5.88714
5.80657
5.68408
5.53081
5.35953
5.20626
5.11416
5.10045
5.12354
5.12532
5.0686
533.916
522.406
4.21132
4.30954
4.41487
4.52349
4.62996
4.72974
4.82094
4.90464
4.98373
5.0617
5.14165
5.22582
5.31522
5.40987
5.50825
5.60717
5.7024
5.78864
5.86041
5.91189
5.9369
5.9299
5.88614
5.80287
5.68455
5.54098
5.38273
5.24267
5.15892
5.14188
5.15039
5.13756
5.07231
533.969
522.409
4.223
4.32805
4.43456
4.53811
4.63557
4.72592
4.81002
4.88975
4.96733
5.04496
5.12473
5.20835
5.29665
5.38958
5.48584
5.58275
5.67676
5.7634
5.83793
5.89424
5.92544
5.9247
5.88606
5.80677
5.69349
5.55414
5.40099
5.26681
5.18716
5.16859
5.16905
5.14729
5.07557
534.022
522.41
4.22585
4.32902
4.42927
4.52527
4.61714
4.70538
4.79033
4.87235
4.95254
5.033
5.11641
5.20504
5.29979
5.39965
5.50162
5.60124
5.69373
5.77488
5.8413
5.88909
5.91377
5.91016
5.87295
5.79929
5.6957
5.56516
5.41968
5.29152
5.21418
5.19249
5.18565
5.15594
5.07644
534.072
522.41
4.22194
4.31924
4.4126
4.50356
4.59362
4.68254
4.76858
4.85034
4.92859
5.00655
5.0889
5.17993
5.28219
5.39472
5.51283
5.62898
5.73469
5.8232
5.89005
5.93201
5.94675
5.93211
5.88577
5.80706
5.70337
5.57363
5.42934
5.30327
5.22863
5.20762
5.19834
5.16367
5.0759
534.097
522.409
4.21105
4.30155
4.39276
4.48767
4.58648
4.68529
4.77831
4.86189
4.93673
5.00738
5.08079
5.16433
5.26392
5.38083
5.51034
5.64287
5.76651
5.87086
5.94849
5.99446
6.00659
5.98483
5.93021
5.84547
5.73897
5.60409
5.45197
5.3167
5.23515
5.21081
5.19978
5.16214
5.06851
534.098
522.41
4.2092
4.30559
4.41157
4.52685
4.64503
4.7558
4.85085
4.92804
4.99098
5.04676
5.10454
5.17455
5.26623
5.38395
5.52387
5.67462
5.82149
5.94973
6.0476
6.10652
6.12225
6.09526
6.02981
5.93333
5.81514
5.66915
5.50275
5.34724
5.24543
5.2099
5.19744
5.16049
5.06541
534.042
522.415
4.22943
4.35138
4.48823
4.62944
4.75944
4.86575
4.94485
5.00118
5.04243
5.07745
5.11659
5.17154
5.25372
5.36999
5.51848
5.68805
5.86189
6.02302
6.15569
6.24633
6.28586
6.27124
6.20616
6.10072
5.96426
5.79711
5.60627
5.41863
5.27885
5.2138
5.19054
5.15287
5.06097
533.965
522.427
4.28366
4.44945
4.61829
4.76876
4.88494
4.96425
5.01476
5.04692
5.06999
5.09329
5.1273
5.18271
5.26847
5.38951
5.54397
5.72287
5.91202
6.09545
6.25728
6.38133
6.45441
6.46915
6.42511
6.32793
6.18367
5.99706
5.77831
5.55293
5.36557
5.25535
5.20781
5.16212
5.07052
533.84
522.444
4.35587
4.5553
4.72611
4.85096
4.92987
4.97606
5.00358
5.02228
5.04006
5.06539
5.10771
5.1757
5.27533
5.40914
5.57484
5.76527
5.96925
6.17294
6.36142
6.51785
6.62601
6.67485
6.66009
6.58251
6.44458
6.25013
6.00892
5.74561
5.5057
5.33861
5.25198
5.18677
5.08761
533.696
522.456
4.40212
4.60284
4.75013
4.84718
4.90946
4.95185
4.98344
5.0095
5.03448
5.0642
5.10664
5.17081
5.26448
5.39253
5.55539
5.74834
5.96209
6.18398
6.39948
6.59125
6.74139
6.83416
6.86026
6.81583
6.7003
6.51562
6.26928
5.98263
5.69907
5.47622
5.34235
5.24562
5.12346
533.549
522.454
4.39412
4.57669
4.71223
4.81412
4.89165
4.95035
4.99467
5.02812
5.05414
5.07812
5.10881
5.15812
5.23825
5.35778
5.51897
5.71629
5.93868
6.17294
6.4056
6.62207
6.80498
6.93742
7.00519
6.99961
6.91624
6.75395
6.51711
6.22318
5.91181
5.64281
5.46185
5.32577
5.16778
533.441
522.445
4.34988
4.51901
4.66377
4.78494
4.87836
4.94501
4.99066
5.02079
5.04045
5.05659
5.0793
5.12135
5.19642
5.31496
5.48089
5.68854
5.92429
6.17189
6.41723
6.64787
6.84994
7.00849
7.1085
7.13751
7.08685
6.9516
6.73281
6.44423
6.12137
5.82318
5.60256
5.42466
5.22238
533.388
522.446
4.3373
4.51738
4.6835
4.82042
4.91846
4.98227
5.02154
5.04307
5.05303
5.06074
5.07842
5.11895
5.19444
5.31409
5.48153
5.69216
5.93326
6.18791
6.44051
6.67792
6.88862
7.06096
7.18238
7.23882
7.21778
7.10964
6.91117
6.63253
6.30647
5.99105
5.74004
5.52346
5.27808
533.376
522.459
4.38571
4.59965
4.78412
4.91965
5.00565
5.05647
5.084
5.0945
5.09446
5.09385
5.1051
5.14091
5.21299
5.33043
5.49723
5.70896
5.95256
6.21042
6.46547
6.70465
6.91843
7.09802
7.23341
7.31153
7.31808
7.23957
7.06768
6.80747
6.48769
6.16374
5.88737
5.63305
5.34453
533.411
522.474
4.44044
4.66915
4.84476
4.96036
5.02854
5.06702
5.08632
5.09293
5.0947
5.1006
5.11916
5.159
5.23004
5.34268
5.50456
5.71487
5.9611
6.22276
6.48023
6.72003
6.93429
7.11701
7.26077
7.35437
7.38376
7.33378
7.19245
6.95972
6.6591
6.33751
6.04287
5.7533
5.4217
533.485
522.483
4.45097
4.67259
4.83928
4.94778
5.01104
5.04517
5.05884
5.0596
5.05962
5.07108
5.10136
5.15481
5.23688
5.35558
5.51903
5.7292
5.97552
6.23729
6.49456
6.73357
6.94699
7.13032
7.27787
7.38066
7.42604
7.39901
7.28627
7.08453
6.81124
6.50277
6.19946
5.88055
5.50695
533.633
522.49
4.46885
4.70864
4.89296
5.01052
5.07612
5.10794
5.11339
5.10011
5.08371
5.08089
5.10154
5.14968
5.2288
5.34554
5.50803
5.71914
5.96781
6.23183
6.49038
6.72948
6.9424
7.12582
7.27569
7.38472
7.44171
7.43264
7.34464
7.17386
6.93012
6.64179
6.33989
6.00192
5.59244
533.839
522.504
4.50993
4.7632
4.94491
5.05225
5.10888
5.13335
5.13228
5.11501
5.09755
5.09478
5.11471
5.15986
5.23263
5.33999
5.49238
5.69621
5.94152
6.20622
6.46735
6.7085
6.92201
7.1053
7.25591
7.36841
7.43339
7.43858
7.37256
7.22947
7.0144
6.74873
6.45451
6.10608
5.66814
534.118
522.517
4.52326
4.77141
4.94488
5.04407
5.09488
5.1133
5.10543
5.08534
5.07246
5.08033
5.11316
5.16986
5.24998
5.35843
5.50524
5.69821
5.9311
6.18634
6.44216
6.68053
6.89178
7.07262
7.22127
7.33378
7.40271
7.41797
7.37018
7.25089
7.06272
6.82068
6.53855
6.1873
5.7299
534.428
522.528
4.54402
4.80868
4.99376
5.09602
5.14604
5.15902
5.14031
5.10739
5.08349
5.08421
5.11375
5.17007
5.25125
5.36022
5.50493
5.69068
5.91337
6.15989
6.41078
6.64692
6.85623
7.03407
7.1789
7.28821
7.35678
7.37745
7.34058
7.23853
7.07242
6.85227
6.58475
6.23735
5.77116
534.748
522.561
4.60143
4.87065
5.03927
5.12367
5.16068
5.16297
5.13961
5.11082
5.09632
5.10647
5.14194
5.19977
5.27873
5.38234
5.51803
5.69022
5.89688
6.1289
6.37027
6.60222
6.81029
6.98724
7.13046
7.23796
7.30615
7.32974
7.29929
7.20892
7.05973
6.85915
6.60875
6.27229
5.80598
535.015
522.592
4.63285
4.88976
5.04149
5.11523
5.14499
5.14195
5.11998
5.10216
5.10531
5.13382
5.18414
5.25191
5.33608
5.44027
5.57102
5.73193
5.9226
6.13697
6.36258
6.58287
6.78321
6.9548
7.09381
7.19814
7.26523
7.28914
7.26184
7.17871
7.04133
6.85623
6.62196
6.29879
5.83558
535.226
522.602
4.63751
4.89959
5.05973
5.13862
5.17074
5.16796
5.14263
5.11875
5.1171
5.14463
5.19721
5.26855
5.35581
5.46132
5.59063
5.74664
5.92927
6.13389
6.34984
6.56205
6.75632
6.92342
7.05899
7.16101
7.22782
7.2526
7.22855
7.15181
7.02418
6.8519
6.63205
6.32242
5.863
535.371
522.629
4.66484
4.91531
5.0572
5.1228
5.14578
5.13923
5.1176
5.10213
5.11027
5.14755
5.20901
5.28765
5.38045
5.48937
5.6188
5.77109
5.9472
6.14417
6.35257
6.5578
6.74561
6.90669
7.0369
7.13484
7.19862
7.22207
7.19956
7.12791
7.0088
6.84769
6.64036
6.34272
5.88589
535.51
522.628
4.64489
4.88318
5.02384
5.0912
5.1162
5.11328
5.0948
5.08048
5.08936
5.12944
5.19639
5.28174
5.38067
5.49421
5.62571
5.7767
5.94872
6.14103
6.34625
6.54996
6.73639
6.89496
7.02154
7.11569
7.1754
7.19596
7.1731
7.10454
6.99194
6.83982
6.64253
6.35394
5.89691
535.636
522.612
4.62152
4.8611
5.00819
5.08101
5.1078
5.10281
5.07592
5.04555
5.03606
5.06445
5.1311
5.22454
5.33393
5.45678
5.59448
5.74721
5.91689
6.10494
6.30747
6.5136
6.70638
6.8714
7.002
7.09776
7.15628
7.17475
7.15057
7.08267
6.97301
6.82528
6.63236
6.34688
5.8898
535.734
522.599
4.58991
4.81366
4.95544
5.03242
5.06748
5.07229
5.05205
5.01641
4.9858
4.9866
5.03549
5.12868
5.24972
5.38747
5.53739
5.69648
5.86641
6.04937
6.24541
6.44792
6.64444
6.81892
6.96012
7.06433
7.1278
7.14895
7.12672
7.06123
6.95488
6.81106
6.62199
6.34075
5.88955
535.763
522.581
4.55714
4.78392
4.93928
5.0294
5.07416
5.08636
5.07037
5.03071
4.9791
4.93892
4.94026
5.00207
5.1179
5.26806
5.43671
5.6108
5.79017
5.9767
6.17102
6.37013
6.56581
6.74677
6.90017
7.01688
7.09014
7.1181
7.10088
7.0398
6.93797
6.79877
6.61439
6.33926
5.8978
535.814
522.577
4.54246
4.76046
4.90959
4.99861
5.04702
5.06756
5.06483
5.04077
4.99832
4.94676
4.90874
4.91744
4.9949
5.13584
5.31783
5.5108
5.70622
5.90478
6.10676
6.30824
6.5026
6.68326
6.84188
6.96816
7.05213
7.08966
7.08038
7.02594
6.92977
6.79523
6.6144
6.34253
5.90621
535.926
522.572
4.52325
4.73623
4.88836
4.98351
5.03799
5.06481
5.06995
5.05651
5.02686
4.98374
4.93535
4.90389
4.92347
5.01873
5.18579
5.38834
5.60041
5.81637
6.0363
6.25497
6.46274
6.64973
6.81102
6.93952
7.02724
7.06983
7.06608
7.01712
6.92578
6.79446
6.61342
6.3365
5.89471
536.051
522.567
4.50887
4.7193
4.87195
4.96908
5.02618
5.05625
5.06608
5.05991
5.04099
5.01109
4.97211
4.9322
4.91395
4.95162
5.07033
5.25652
5.47198
5.69822
5.93211
6.17033
6.40267
6.61413
6.79239
6.92875
7.01862
7.06142
7.05799
7.01025
6.9207
6.79045
6.6069
6.32152
5.87256
536.075
522.566
4.5017
4.70855
4.86
4.95833
5.01813
5.05186
5.06633
5.06628
5.05567
5.03668
5.00943
4.97512
4.94309
4.93754
4.99384
5.13309
5.32732
5.5483
5.78359
6.02915
6.27822
6.51744
6.72934
6.89385
7.0016
7.05337
7.0537
7.00758
6.91901
6.78907
6.60411
6.31555
5.86865
536.014
522.563
4.49669
4.70059
4.85155
4.9523
5.01539
5.05214
5.06935
5.07241
5.06662
5.05575
5.04033
5.01864
4.9917
4.97071
4.98288
5.06338
5.2136
5.40912
5.63117
5.87001
6.11804
6.3664
6.60217
6.80257
6.94552
7.0244
7.04285
7.00802
6.92622
6.80007
6.61761
6.33321
5.8954
535.976
522.557
4.47601
4.67222
4.82443
4.93175
5.00237
5.04579
5.06836
5.07556
5.07356
5.06797
5.06121
5.05155
5.03608
5.01715
5.00948
5.04361
5.14598
5.30448
5.50456
5.73378
5.97912
6.22701
6.46708
6.68451
6.85688
6.96795
7.0145
7.0014
6.93541
6.82009
6.64501
6.3661
5.92966
536.022
522.555
4.46645
4.66779
4.8299
4.94465
5.01874
5.06289
5.08459
5.09022
5.08696
5.08184
5.07905
5.07791
5.07435
5.06587
5.05715
5.06673
5.12635
5.23987
5.40351
5.61385
5.86136
6.12385
6.37693
6.60189
6.78312
6.90936
6.97433
6.97911
6.92844
6.8246
6.65537
6.3737
5.92529
536.097
522.558
4.47435
4.68292
4.84809
4.96241
5.03527
5.07851
5.09984
5.10566
5.10315
5.09956
5.09986
5.10448
5.10987
5.11214
5.11134
5.11653
5.14996
5.22454
5.33984
5.5036
5.72532
5.99618
6.28257
6.54049
6.7394
6.87225
6.9412
6.9505
6.90448
6.80417
6.63371
6.34195
5.88199
536.061
522.565
4.48512
4.69418
4.85693
4.96891
5.04089
5.08442
5.10691
5.1148
5.11549
5.11649
5.12299
5.13556
5.15047
5.16313
5.17185
5.18128
5.20538
5.25904
5.33639
5.44239
5.59714
5.82079
6.10694
6.40836
6.65918
6.82776
6.91459
6.93131
6.88821
6.78881
6.61672
6.32091
5.8618
535.872
522.575
4.49714
4.706
4.86662
4.97605
5.04601
5.08805
5.10967
5.11772
5.1201
5.12491
5.13793
5.15993
5.18655
5.21196
5.23323
5.2529
5.28081
5.3316
5.39624
5.46758
5.55515
5.688
5.89647
6.17752
6.46669
6.69529
6.83369
6.8861
6.86678
6.78441
6.62726
6.34744
5.90102
535.673
522.581
4.50106
4.70955
4.8699
4.97903
5.0491
5.09182
5.11452
5.12361
5.12655
5.1317
5.14639
5.17354
5.20967
5.24756
5.28229
5.31473
5.35336
5.41281
5.4885
5.5635
5.6288
5.6973
5.80479
5.98914
6.24027
6.49224
6.68199
6.78582
6.80877
6.76033
6.63333
6.38201
5.94781
535.593
522.583
4.49598
4.70071
4.85783
4.96538
5.03606
5.08142
5.10824
5.12202
5.12889
5.13586
5.1503
5.17768
5.21787
5.26446
5.31019
5.35307
5.4
5.46642
5.55768
5.65696
5.74179
5.80369
5.86062
5.95424
6.1207
6.33646
6.53905
6.6782
6.73848
6.72198
6.6205
6.38568
5.94621
535.587
522.589
4.49805
4.70265
4.85972
4.96669
5.03693
5.08247
5.1103
5.12616
5.13595
5.14542
5.16031
5.18621
5.22603
5.27679
5.33098
5.38321
5.43646
5.50469
5.6016
5.72086
5.83969
5.93242
5.99435
6.05143
6.14927
6.30192
6.47554
6.61556
6.69003
6.69005
6.59988
6.36228
5.90119
535.545
522.579
4.48384
4.69203
4.85405
4.96411
5.0359
5.08275
5.11242
5.1309
5.1438
5.15557
5.16992
5.19137
5.22512
5.27329
5.33146
5.3919
5.45172
5.51882
5.60819
5.72706
5.86831
6.00454
6.10886
6.18176
6.25548
6.35647
6.48039
6.59035
6.65268
6.65224
6.56536
6.32245
5.84534
535.455
522.579
4.49358
4.70549
4.86323
4.96618
5.03265
5.07705
5.10713
5.12921
5.14894
5.16958
5.19206
5.21719
5.24796
5.28883
5.3417
5.40287
5.46668
5.53315
5.60967
5.70652
5.83478
5.98839
6.13923
6.26053
6.35404
6.43677
6.51766
6.58478
6.61754
6.60239
6.51401
6.27776
5.80908
535.331
522.572
4.49101
4.70216
4.85692
4.95754
5.02277
5.06679
5.09737
5.12114
5.14437
5.17077
5.20095
5.23398
5.26995
5.31095
5.36028
5.41919
5.48487
5.55358
5.62313
5.69646
5.7875
5.91147
6.06598
6.22537
6.36333
6.46916
6.54275
6.58532
6.59323
6.5615
6.46994
6.25012
5.80932
535.208
522.57
4.49779
4.70839
4.85879
4.95521
5.01762
5.06008
5.0902
5.11468
5.13996
5.17006
5.20556
5.24495
5.28707
5.33217
5.3823
5.44023
5.50684
5.58
5.65292
5.71975
5.78561
5.86575
5.97761
6.12291
6.28026
6.4209
6.5193
6.56925
6.57386
6.53695
6.44708
6.24725
5.84024
535.161
522.569
4.49434
4.69654
4.83979
4.93269
4.99347
5.03502
5.06488
5.09014
5.11781
5.15259
5.19558
5.24503
5.29862
5.35509
5.41453
5.47842
5.54842
5.62467
5.70121
5.76912
5.82668
5.88118
5.94898
6.04807
6.18157
6.3298
6.45392
6.52843
6.5486
6.52017
6.43901
6.25806
5.87857
535.212
522.566
4.48403
4.68131
4.82438
4.91876
4.97985
5.02002
5.04701
5.06824
5.09147
5.12275
5.16476
5.21703
5.27729
5.34398
5.41626
5.49423
5.57822
5.66765
5.75619
5.83397
5.8963
5.94493
5.98975
6.04941
6.14173
6.26692
6.39394
6.4843
6.51991
6.50212
6.4299
6.26153
5.89784
535.328
522.568
4.47373
4.66541
4.8064
4.89874
4.95693
4.9935
5.01683
5.0352
5.05701
5.08844
5.13211
5.18761
5.25312
5.32726
5.40951
5.49983
5.59794
5.70209