/*--------------------------------*- C++ -*----------------------------------*\
| =========                 |                                                 |
| \\      /  F ield         | OpenFOAM: The Open Source CFD Toolbox           |
|  \\    /   O peration     | Version:  v1906                                 |
|   \\  /    A nd           | Web:      www.OpenFOAM.com                      |
|    \\/     M anipulation  |                                                 |
\*---------------------------------------------------------------------------*/
FoamFile
{
    version     2.0;
    format      ascii;
    class       surfaceScalarField;
    location    "27";
    object      phi;
}
// * * * * * * * * * * * * * * * * * * * * * * * * * * * * * * * * * * * * * //

dimensions      [1 0 -1 0 0 0 0];
oriented        oriented;


internalField   nonuniform List<scalar> 
228225
(
-1.71438e-05
-5.59242e-07
9.81932e-08
-1.56292e-05
-1.64696e-06
1.32537e-07
-1.37279e-05
-2.00607e-06
1.04742e-07
-1.16005e-05
-2.10161e-06
-2.57663e-08
-9.48196e-06
-2.01452e-06
-1.03983e-07
-7.44915e-06
-1.86261e-06
-1.70192e-07
-5.52784e-06
-1.70383e-06
-2.1748e-07
-3.72665e-06
-1.5517e-06
-2.49491e-07
-2.0504e-06
-1.40798e-06
-2.68268e-07
-5.02051e-07
-1.27373e-06
-2.74617e-07
9.19875e-07
-1.14903e-06
-2.72894e-07
2.22264e-06
-1.03382e-06
-2.6895e-07
3.41564e-06
-9.27635e-07
-2.65364e-07
4.50812e-06
-8.29882e-07
-2.62604e-07
5.50843e-06
-7.39831e-07
-2.60482e-07
6.42363e-06
-6.56547e-07
-2.58646e-07
7.25909e-06
-5.78852e-07
-2.56612e-07
8.01832e-06
-5.05374e-07
-2.53859e-07
8.70271e-06
-4.34603e-07
-2.49783e-07
9.31137e-06
-3.64854e-07
-2.43811e-07
9.84068e-06
-2.93974e-07
-2.35336e-07
1.0284e-05
-2.19731e-07
-2.23579e-07
1.06311e-05
-1.39628e-07
-2.07529e-07
1.08694e-05
-5.20695e-08
-1.8618e-07
1.09846e-05
4.33409e-08
-1.58561e-07
1.09539e-05
1.5434e-07
-1.23633e-07
1.07549e-05
2.79564e-07
-8.05404e-08
1.03625e-05
4.21676e-07
-2.93302e-08
9.7371e-06
5.83196e-07
4.21855e-08
8.83365e-06
7.68376e-07
1.35061e-07
7.60111e-06
9.87826e-07
2.44734e-07
5.96609e-06
1.2641e-06
3.70992e-07
3.88612e-06
1.59857e-06
4.81549e-07
1.58267e-06
1.82178e-06
4.81747e-07
1.32227e-06
2.60145e-07
-1.95554e-06
1.40289e-06
-6.98798e-09
-4.39319e-06
1.21035e-06
-4.19569e-07
-6.32977e-06
7.93365e-07
-8.62833e-07
-7.76164e-06
4.63754e-07
-1.13331e-06
-8.70822e-06
2.041e-07
-1.27193e-06
-9.20637e-06
-1.6068e-08
-1.34832e-06
-9.38221e-06
-1.32842e-07
-1.39508e-06
-9.29131e-06
-2.19484e-07
-1.42305e-06
-9.00185e-06
-2.63581e-07
-1.43379e-06
-8.57528e-06
-2.71356e-07
-1.42889e-06
-8.05173e-06
-2.60221e-07
-1.41231e-06
-7.45193e-06
-2.42664e-07
-1.39088e-06
-6.78706e-06
-2.2189e-07
-1.37055e-06
-6.06486e-06
-1.99006e-07
-1.35301e-06
-5.2924e-06
-1.7431e-07
-1.33791e-06
-4.47676e-06
-1.47735e-07
-1.32439e-06
-3.62516e-06
-1.18932e-07
-1.31145e-06
-2.7451e-06
-8.73911e-08
-1.29797e-06
-1.84415e-06
-5.26843e-08
-1.2828e-06
-9.26447e-07
-1.76579e-08
-1.26482e-06
-2.2683e-08
4.53075e-08
-1.24297e-06
8.56766e-07
1.1666e-07
-1.21576e-06
1.70236e-06
1.96458e-07
-1.1816e-06
2.49908e-06
2.90133e-07
-1.13885e-06
3.22613e-06
4.02098e-07
-1.08572e-06
3.86322e-06
5.3728e-07
-1.01996e-06
4.37943e-06
7.02054e-07
-9.38625e-07
4.73292e-06
9.0593e-07
-8.37671e-07
4.8683e-06
1.15916e-06
-7.11261e-07
4.71775e-06
1.47155e-06
-5.52526e-07
4.20462e-06
1.8549e-06
-3.53827e-07
3.28072e-06
2.30522e-06
-1.1709e-07
2.0221e-06
2.73233e-06
1.24988e-07
7.31411e-07
2.85641e-06
2.56055e-07
1.87876e-06
1.74596e-07
-4.90381e-07
1.82381e-06
6.90567e-08
-2.02714e-06
2.82087e-06
-7.39666e-08
-3.84362e-06
2.81589e-06
-2.06051e-07
-5.53558e-06
2.43745e-06
-2.81672e-07
-6.91322e-06
1.90192e-06
-3.2014e-07
-7.91883e-06
1.34164e-06
-3.5208e-07
-8.50783e-06
8.45194e-07
-3.89029e-07
-8.77273e-06
4.74012e-07
-4.28585e-07
-8.80357e-06
2.30482e-07
-4.63209e-07
-8.6708e-06
8.50691e-08
-4.89191e-07
-8.42346e-06
1.70906e-09
-5.09257e-07
-8.06132e-06
-7.84629e-08
-5.26334e-07
-7.61846e-06
-1.23083e-07
-5.41639e-07
-7.11523e-06
-1.46752e-07
-5.55449e-07
-6.56557e-06
-1.56081e-07
-5.67862e-07
-5.98e-06
-1.54229e-07
-5.7903e-07
-5.36707e-06
-1.42721e-07
-5.891e-07
-4.73421e-06
-1.21993e-07
-5.98206e-07
-4.08897e-06
-9.15032e-08
-6.06357e-07
-3.44376e-06
-4.92952e-08
-6.13506e-07
-2.78639e-06
7.48389e-09
-6.19471e-07
-2.10825e-06
6.23058e-08
-6.23712e-07
-1.42532e-06
1.3921e-07
-6.25607e-07
-7.50667e-07
2.3981e-07
-6.2424e-07
-9.84409e-08
3.68327e-07
-6.18363e-07
5.14645e-07
5.30575e-07
-6.06283e-07
1.06766e-06
7.34686e-07
-5.8554e-07
1.52833e-06
9.97575e-07
-5.52193e-07
1.84861e-06
1.33942e-06
-5.0041e-07
1.97236e-06
1.77055e-06
-4.22608e-07
1.84395e-06
2.29316e-06
-3.097e-07
1.44545e-06
2.86196e-06
-1.5808e-07
8.73704e-07
3.3048e-06
-5.89758e-10
2.89106e-07
3.32102e-06
1.20011e-07
2.06323e-06
1.04367e-07
-1.47256e-07
1.8576e-06
1.12874e-07
-4.78833e-07
3.05507e-06
9.73215e-08
-8.12234e-07
3.13506e-06
1.40379e-08
-1.17815e-06
2.87062e-06
-6.73921e-08
-1.5734e-06
2.43679e-06
-1.39679e-07
-1.95555e-06
1.92178e-06
-1.98038e-07
-2.27769e-06
1.41469e-06
-2.47432e-07
-2.50173e-06
9.87321e-07
-2.89375e-07
-2.60782e-06
6.59388e-07
-3.22918e-07
-2.59752e-06
4.22401e-07
-3.47737e-07
-2.48847e-06
2.56894e-07
-3.64322e-07
-2.33476e-06
1.42129e-07
-3.74402e-07
-2.14006e-06
6.2505e-08
-3.80377e-07
-1.90662e-06
3.43935e-09
-3.83725e-07
-1.655e-06
-2.25043e-08
-3.85279e-07
-1.38519e-06
-3.86337e-08
-3.85474e-07
-1.09499e-06
-4.84121e-08
-3.84574e-07
-7.82374e-07
-5.1904e-08
-3.8276e-07
-4.45457e-07
-4.83186e-08
-3.80147e-07
-8.204e-08
-3.59638e-08
-3.76784e-07
3.11482e-07
-1.34617e-08
-3.72601e-07
7.02344e-07
3.88684e-08
-3.67439e-07
1.08651e-06
1.16281e-07
-3.61241e-07
1.45795e-06
2.22325e-07
-3.53942e-07
1.80464e-06
3.66726e-07
-3.45069e-07
2.10856e-06
5.60278e-07
-3.33589e-07
2.34112e-06
8.19824e-07
-3.1767e-07
2.4669e-06
1.1662e-06
-2.94356e-07
2.45621e-06
1.61001e-06
-2.59864e-07
2.28481e-06
2.15128e-06
-2.09294e-07
1.942e-06
2.77225e-06
-1.36258e-07
1.45334e-06
3.39044e-06
-3.97866e-08
8.81144e-07
3.80801e-06
6.90233e-08
3.14712e-07
3.752e-06
1.35423e-07
2.27566e-06
1.01988e-07
2.7207e-07
1.50252e-06
8.24952e-08
4.41888e-07
2.78099e-06
1.03872e-07
4.51364e-07
3.04731e-06
7.78945e-08
3.46486e-07
2.94193e-06
3.32381e-08
1.3206e-07
2.66063e-06
-9.6952e-09
-1.76158e-07
2.26502e-06
-3.52899e-08
-5.29323e-07
1.81853e-06
-5.09335e-08
-8.60327e-07
1.37655e-06
-5.84712e-08
-1.12109e-06
9.80157e-07
-6.02287e-08
-1.29618e-06
6.54413e-07
-5.71395e-08
-1.39555e-06
4.05983e-07
-4.9909e-08
-1.43903e-06
2.26241e-07
-4.08305e-08
-1.44531e-06
1.01108e-07
-3.25044e-08
-1.43449e-06
1.8755e-08
-2.63181e-08
-1.37918e-06
-5.5104e-08
-2.28831e-08
-1.28623e-06
-1.0941e-07
-2.23422e-08
-1.16488e-06
-1.45293e-07
-2.4623e-08
-1.0204e-06
-1.67014e-07
-2.95171e-08
-8.56599e-07
-1.75473e-07
-3.67743e-08
-6.76971e-07
-1.69585e-07
-4.61223e-08
-4.86768e-07
-1.46515e-07
-5.72491e-08
-2.76973e-07
-1.01246e-07
-6.97646e-08
-5.50144e-08
-2.27159e-08
-8.3028e-08
1.90324e-07
7.30163e-08
-9.60825e-08
4.47966e-07
2.16887e-07
-1.07845e-07
6.9569e-07
4.29094e-07
-1.16578e-07
9.04712e-07
7.32115e-07
-1.2135e-07
1.04655e-06
1.14523e-06
-1.2092e-07
1.0958e-06
1.67274e-06
-1.12035e-07
1.03036e-06
2.30689e-06
-9.02579e-08
8.47892e-07
3.00625e-06
-5.16222e-08
5.83473e-07
3.65295e-06
1.8126e-09
2.97896e-07
4.02582e-06
6.76996e-08
6.92166e-08
3.87796e-06
1.0263e-07
2.27154e-06
7.30162e-08
6.13562e-08
1.35746e-06
8.3142e-08
1.09564e-07
2.59942e-06
1.32904e-07
9.9536e-08
2.92087e-06
1.36167e-07
4.94017e-08
2.87581e-06
1.15914e-07
-3.33371e-08
2.65476e-06
8.82628e-08
-1.40569e-07
2.30529e-06
6.66682e-08
-2.52678e-07
1.87399e-06
5.64128e-08
-3.50452e-07
1.41675e-06
5.73859e-08
-4.16265e-07
9.78079e-07
6.77172e-08
-4.33761e-07
5.87041e-07
8.46958e-08
-3.92028e-07
2.6011e-07
1.03965e-07
-2.81694e-07
-6.60378e-09
1.22335e-07
-1.2793e-07
-1.91636e-07
1.38805e-07
7.46678e-08
-3.36745e-07
1.52726e-07
3.01238e-07
-4.45674e-07
1.63822e-07
5.43008e-07
-5.23906e-07
1.72544e-07
7.93091e-07
-5.75082e-07
1.79522e-07
1.0417e-06
-6.01198e-07
1.85388e-07
1.27841e-06
-6.0292e-07
1.90549e-07
1.49345e-06
-5.79856e-07
1.95048e-07
1.6789e-06
-5.3062e-07
1.98482e-07
1.83012e-06
-4.52622e-07
1.99983e-07
1.95049e-06
-3.41566e-07
1.98315e-07
2.02194e-06
-1.90939e-07
1.92349e-07
2.04973e-06
7.52878e-09
1.81434e-07
2.01931e-06
2.94386e-07
1.65005e-07
1.94456e-06
6.64356e-07
1.42406e-07
1.83334e-06
1.14052e-06
1.15825e-07
1.68004e-06
1.73473e-06
9.12054e-08
1.47055e-06
2.44015e-06
7.60943e-08
1.19499e-06
3.20486e-06
7.6787e-08
8.64836e-07
3.88899e-06
9.39694e-08
5.12391e-07
4.26203e-06
1.16127e-07
1.84506e-07
4.08575e-06
1.19999e-07
2.38149e-06
7.43064e-08
5.19827e-08
1.22435e-06
8.06017e-08
7.49881e-08
2.42975e-06
1.46286e-07
2.63925e-08
2.79989e-06
1.69273e-07
-6.0901e-08
2.7942e-06
1.6864e-07
-1.63068e-07
2.59749e-06
1.5923e-07
-2.73753e-07
2.26018e-06
1.5565e-07
-3.91135e-07
1.82649e-06
1.64779e-07
-5.13218e-07
1.35406e-06
1.84694e-07
-6.34863e-07
8.90074e-07
2.09568e-07
-7.46151e-07
4.655e-07
2.32735e-07
-8.34146e-07
9.89439e-08
2.49055e-07
-8.77194e-07
-2.19777e-07
2.5611e-07
-8.3961e-07
-4.83931e-07
2.54606e-07
-7.27658e-07
-6.95896e-07
2.47101e-07
-5.48152e-07
-8.61584e-07
2.36316e-07
-3.11512e-07
-9.85496e-07
2.24868e-07
-2.99872e-08
-1.07153e-06
2.14851e-07
2.82545e-07
-1.1216e-06
2.07804e-07
6.11143e-07
-1.13635e-06
2.04768e-07
9.4012e-07
-1.11528e-06
2.06377e-07
1.25314e-06
-1.0566e-06
2.12889e-07
1.53329e-06
-9.56979e-07
2.24134e-07
1.76311e-06
-8.1082e-07
2.39344e-07
1.92359e-06
-6.08432e-07
2.56929e-07
1.99265e-06
-3.35752e-07
2.74145e-07
1.97539e-06
2.55824e-08
2.85995e-07
1.89374e-06
4.60131e-07
2.85848e-07
1.75026e-06
1.0144e-06
2.69605e-07
1.5532e-06
1.69218e-06
2.39674e-07
1.30819e-06
2.48015e-06
2.05115e-07
1.02011e-06
3.31596e-06
1.77108e-07
6.9873e-07
4.04899e-06
1.61543e-07
3.73342e-07
4.43507e-06
1.52552e-07
1.12004e-07
4.21576e-06
1.31528e-07
2.42135e-06
7.21984e-08
-6.08921e-08
1.19861e-06
8.6198e-08
-2.04058e-07
2.40144e-06
1.71059e-07
-4.08345e-07
2.7925e-06
2.11382e-07
-6.36839e-07
2.79638e-06
2.26142e-07
-8.64349e-07
2.59398e-06
2.30903e-07
-1.07433e-06
2.23051e-06
2.39567e-07
-1.25925e-06
1.75599e-06
2.55358e-07
-1.41367e-06
1.23609e-06
2.72324e-07
-1.52939e-06
7.23001e-07
2.82753e-07
-1.59366e-06
2.47814e-07
2.81921e-07
-1.59108e-06
-1.72966e-07
2.69321e-07
-1.52738e-06
-5.31107e-07
2.47628e-07
-1.39808e-06
-8.3429e-07
2.2106e-07
-1.20644e-06
-1.08127e-06
1.93755e-07
-9.64186e-07
-1.27262e-06
1.68796e-07
-6.83553e-07
-1.41389e-06
1.47777e-07
-3.75307e-07
-1.51119e-06
1.31429e-07
-4.9359e-08
-1.56784e-06
1.20305e-07
2.85031e-07
-1.58552e-06
1.14787e-07
6.19095e-07
-1.56454e-06
1.15197e-07
9.4429e-07
-1.50366e-06
1.21859e-07
1.25202e-06
-1.39984e-06
1.35106e-07
1.53307e-06
-1.24715e-06
1.55256e-07
1.77564e-06
-1.03387e-06
1.82824e-07
1.96552e-06
-7.43677e-07
2.18e-07
2.0953e-06
-3.62415e-07
2.58189e-07
2.13162e-06
1.27373e-07
2.96445e-07
2.07067e-06
7.52715e-07
3.22735e-07
1.91538e-06
1.51986e-06
3.27832e-07
1.66926e-06
2.41674e-06
3.09916e-07
1.33973e-06
3.36858e-06
2.77447e-07
9.44828e-07
4.20202e-06
2.42518e-07
5.28473e-07
4.6431e-06
2.09029e-07
1.74629e-07
4.40691e-06
1.63371e-07
2.5152e-06
8.12979e-08
-4.33994e-08
1.15471e-06
8.68085e-08
-1.851e-07
2.35924e-06
1.83547e-07
-4.06527e-07
2.7773e-06
2.36393e-07
-6.58244e-07
2.7862e-06
2.61732e-07
-9.04982e-07
2.5671e-06
2.73508e-07
-1.12572e-06
2.16768e-06
2.83494e-07
-1.31163e-06
1.64861e-06
2.93233e-07
-1.45604e-06
1.08376e-06
2.96728e-07
-1.5512e-06
5.29571e-07
2.88587e-07
-1.594e-06
2.2466e-08
2.68177e-07
-1.57094e-06
-4.35151e-07
2.39172e-07
-1.48125e-06
-8.27093e-07
2.06338e-07
-1.33338e-06
-1.1558e-06
1.73673e-07
-1.13773e-06
-1.42102e-06
1.44126e-07
-9.05178e-07
-1.62431e-06
1.19142e-07
-6.44547e-07
-1.77344e-06
9.89225e-08
-3.63519e-07
-1.87559e-06
8.33756e-08
-6.95604e-08
-1.93435e-06
7.25475e-08
2.30189e-07
-1.9518e-06
6.65166e-08
5.28912e-07
-1.92873e-06
6.54433e-08
8.20107e-07
-1.86449e-06
6.96031e-08
1.09762e-06
-1.75679e-06
7.94037e-08
1.35591e-06
-1.6009e-06
9.54057e-08
1.58934e-06
-1.38596e-06
1.18615e-07
1.78733e-06
-1.09265e-06
1.50936e-07
1.93186e-06
-7.00298e-07
1.93302e-07
2.00406e-06
-1.88048e-07
2.43203e-07
1.99493e-06
4.67889e-07
2.94035e-07
1.88885e-06
1.29197e-06
3.34222e-07
1.67715e-06
2.27773e-06
3.51234e-07
1.35983e-06
3.34633e-06
3.40366e-07
9.5407e-07
4.30086e-06
3.0797e-07
5.17891e-07
4.81826e-06
2.62148e-07
1.59257e-07
4.57033e-06
1.96286e-07
2.5845e-06
9.07971e-08
-6.19875e-08
1.13164e-06
8.4558e-08
-2.2698e-07
2.33646e-06
1.87467e-07
-4.66767e-07
2.76932e-06
2.47529e-07
-7.38219e-07
2.77978e-06
2.77682e-07
-1.00769e-06
2.54575e-06
2.90692e-07
-1.25181e-06
2.11512e-06
2.96609e-07
-1.455e-06
1.55553e-06
2.96256e-07
-1.60494e-06
9.47852e-07
2.85864e-07
-1.6908e-06
3.51575e-07
2.63902e-07
-1.70243e-06
-1.99064e-07
2.33206e-07
-1.65111e-06
-6.85199e-07
1.98785e-07
-1.53722e-06
-1.10573e-06
1.6479e-07
-1.36801e-06
-1.45871e-06
1.33736e-07
-1.1527e-06
-1.74333e-06
1.07017e-07
-9.01451e-07
-1.96059e-06
8.50383e-08
-6.22972e-07
-2.11936e-06
6.74358e-08
-3.24451e-07
-2.22795e-06
5.38135e-08
-1.2841e-08
-2.29009e-06
4.40883e-08
3.04988e-07
-2.30795e-06
3.82735e-08
6.22264e-07
-2.28253e-06
3.64829e-08
9.32323e-07
-2.21354e-06
3.8936e-08
1.22866e-06
-2.09915e-06
4.59609e-08
1.50493e-06
-1.93525e-06
5.80354e-08
1.75401e-06
-1.71119e-06
7.60871e-08
1.96584e-06
-1.40652e-06
1.0196e-07
2.12593e-06
-9.97881e-07
1.37425e-07
2.21776e-06
-4.62623e-07
1.82695e-07
2.22014e-06
2.29645e-07
2.35852e-07
2.11089e-06
1.1111e-06
2.90239e-07
1.87992e-06
2.17587e-06
3.33164e-07
1.52701e-06
3.34897e-06
3.50914e-07
1.07442e-06
4.41673e-06
3.37672e-07
5.90552e-07
5.00813e-06
2.95082e-07
1.86328e-07
4.75676e-06
2.18811e-07
2.67558e-06
9.59629e-08
-2.55272e-08
1.07952e-06
7.71448e-08
-1.32961e-07
2.26591e-06
1.77634e-07
-3.1898e-07
2.71577e-06
2.39304e-07
-5.4788e-07
2.73787e-06
2.70622e-07
-7.89658e-07
2.50541e-06
2.81984e-07
-1.02447e-06
2.06761e-06
2.82255e-07
-1.23314e-06
1.49039e-06
2.73784e-07
-1.39751e-06
8.56561e-07
2.55682e-07
-1.5028e-06
2.28106e-07
2.28805e-07
-1.54081e-06
-3.57783e-07
1.96788e-07
-1.50791e-06
-8.82035e-07
1.63981e-07
-1.41044e-06
-1.3364e-06
1.33229e-07
-1.25689e-06
-1.71814e-06
1.05895e-07
-1.05659e-06
-2.02628e-06
8.26521e-08
-8.19136e-07
-2.26164e-06
6.35739e-08
-5.52963e-07
-2.43379e-06
4.82168e-08
-2.6544e-07
-2.55172e-06
3.61958e-08
3.63597e-08
-2.61935e-06
2.74096e-08
3.45488e-07
-2.639e-06
2.18631e-08
6.55081e-07
-2.61186e-06
1.96719e-08
9.58364e-07
-2.53794e-06
2.10544e-08
1.24872e-06
-2.41587e-06
2.63086e-08
1.51976e-06
-2.24221e-06
3.58566e-08
1.76404e-06
-2.00607e-06
5.05374e-08
1.97153e-06
-1.68602e-06
7.19478e-08
2.12876e-06
-1.25701e-06
1.01821e-07
2.21635e-06
-6.91337e-07
1.41047e-07
2.21058e-06
4.58312e-08
1.89494e-07
2.0912e-06
9.86526e-07
2.43876e-07
1.84207e-06
2.12998e-06
2.95051e-07
1.46884e-06
3.39371e-06
3.2869e-07
1.00696e-06
4.54714e-06
3.31897e-07
5.34828e-07
5.18315e-06
2.97658e-07
1.59134e-07
4.91289e-06
2.2005e-07
2.74226e-06
9.25917e-08
3.04713e-09
1.00918e-06
6.6764e-08
-4.06159e-08
2.15075e-06
1.58448e-07
-1.51266e-07
2.60934e-06
2.16843e-07
-3.10453e-07
2.65015e-06
2.46729e-07
-4.98258e-07
2.43663e-06
2.56445e-07
-7.01673e-07
2.01693e-06
2.53996e-07
-8.99707e-07
1.44549e-06
2.42897e-07
-1.06831e-06
8.01203e-07
2.23969e-07
-1.1865e-06
1.47531e-07
1.9879e-07
-1.24163e-06
-4.72989e-07
1.70376e-07
-1.23098e-06
-1.03455e-06
1.41895e-07
-1.15878e-06
-1.52391e-06
1.15326e-07
-1.0323e-06
-1.93628e-06
9.16398e-08
-8.59089e-07
-2.27091e-06
7.13891e-08
-6.46791e-07
-2.52868e-06
5.46955e-08
-4.04109e-07
-2.71774e-06
4.12222e-08
-1.39121e-07
-2.84743e-06
3.06733e-08
1.41061e-07
-2.92247e-06
2.28814e-08
4.29234e-07
-2.94502e-06
1.7787e-08
7.18041e-07
-2.91617e-06
1.54406e-08
1.00008e-06
-2.83606e-06
1.60117e-08
1.26806e-06
-2.7037e-06
1.97733e-08
1.51488e-06
-2.51625e-06
2.71381e-08
1.73152e-06
-2.26172e-06
3.89345e-08
1.90773e-06
-1.91883e-06
5.65457e-08
2.03491e-06
-1.46578e-06
8.15335e-08
2.10044e-06
-8.72025e-07
1.15084e-07
2.08495e-06
-9.65529e-08
1.57774e-07
1.9636e-06
8.99908e-07
2.07817e-07
1.71809e-06
2.1168e-06
2.58481e-07
1.3538e-06
3.46063e-06
2.9715e-07
9.12952e-07
4.67868e-06
3.09145e-07
4.76867e-07
5.33689e-06
2.82247e-07
1.39021e-07
5.04223e-06
2.08354e-07
2.79574e-06
8.51264e-08
2.60998e-08
9.24698e-07
5.78646e-08
3.97648e-08
1.99726e-06
1.39445e-07
6.33282e-09
2.44936e-06
1.93144e-07
-7.11095e-08
2.50539e-06
2.21996e-07
-1.81508e-07
2.31455e-06
2.32315e-07
-3.1743e-07
1.92186e-06
2.30886e-07
-4.61582e-07
1.36799e-06
2.2159e-07
-5.91404e-07
7.25323e-07
2.05684e-07
-6.89409e-07
6.13245e-08
1.84218e-07
-7.38215e-07
-5.83283e-07
1.59114e-07
-7.3748e-07
-1.16823e-06
1.32958e-07
-6.90557e-07
-1.67868e-06
1.0785e-07
-6.01389e-07
-2.11062e-06
8.51526e-08
-4.73039e-07
-2.46502e-06
6.57327e-08
-3.07956e-07
-2.74362e-06
4.98282e-08
-1.12719e-07
-2.95018e-06
3.71716e-08
1.05298e-07
-3.09298e-06
2.74949e-08
3.39636e-07
-3.17734e-06
2.04955e-08
5.83169e-07
-3.2046e-06
1.60073e-08
8.2813e-07
-3.17516e-06
1.39831e-08
1.0663e-06
-3.08878e-06
1.45044e-08
1.28919e-06
-2.94441e-06
1.77776e-08
1.48675e-06
-2.73804e-06
2.41859e-08
1.64765e-06
-2.45711e-06
3.44542e-08
1.76325e-06
-2.08435e-06
4.98861e-08
1.82881e-06
-1.60324e-06
7.18879e-08
1.83984e-06
-9.84853e-07
1.01802e-07
1.78697e-06
-1.84254e-07
1.40584e-07
1.65846e-06
8.41303e-07
1.87096e-07
1.43731e-06
2.10228e-06
2.35551e-07
1.12262e-06
3.50076e-06
2.74345e-07
7.4748e-07
4.76472e-06
2.88819e-07
3.82721e-07
5.436e-06
2.65382e-07
1.07629e-07
5.12124e-06
1.95823e-07
2.82381e-06
7.91619e-08
-4.10246e-09
8.74721e-07
5.3588e-08
-2.64445e-08
1.88997e-06
1.29232e-07
-7.86018e-08
2.3215e-06
1.79722e-07
-1.58924e-07
2.3772e-06
2.08302e-07
-2.56449e-07
2.19197e-06
2.19955e-07
-3.60098e-07
1.80538e-06
2.20011e-07
-4.5637e-07
1.25241e-06
2.11783e-07
-5.31991e-07
6.0481e-07
1.96099e-07
-5.78205e-07
-6.60671e-08
1.73588e-07
-5.94803e-07
-7.13101e-07
1.46405e-07
-5.82615e-07
-1.29849e-06
1.18054e-07
-5.41222e-07
-1.81159e-06
9.15048e-08
-4.68688e-07
-2.25155e-06
6.83926e-08
-3.62558e-07
-2.62048e-06
4.93419e-08
-2.21465e-07
-2.9189e-06
3.42065e-08
-4.86331e-08
-3.1455e-06
2.25111e-08
1.48872e-07
-3.30422e-06
1.37661e-08
3.63943e-07
-3.40004e-06
7.66576e-09
5.89667e-07
-3.43428e-06
3.99792e-09
8.18391e-07
-3.40661e-06
2.76822e-09
1.04169e-06
-3.31616e-06
4.11714e-09
1.25049e-06
-3.16124e-06
8.05303e-09
1.43182e-06
-2.93417e-06
1.48142e-08
1.57057e-06
-2.62078e-06
2.49306e-08
1.65718e-06
-2.21049e-06
3.9552e-08
1.68616e-06
-1.69212e-06
5.99514e-08
1.65701e-06
-1.04324e-06
8.76453e-08
1.57318e-06
-2.24373e-07
1.24134e-07
1.43368e-06
8.11888e-07
1.6919e-07
1.23404e-06
2.08431e-06
2.17932e-07
9.69709e-07
3.50642e-06
2.58967e-07
6.56035e-07
4.80185e-06
2.76815e-07
3.44543e-07
5.49117e-06
2.56601e-07
1.01271e-07
5.17428e-06
1.90549e-07
2.84786e-06
7.74966e-08
-3.96203e-08
8.61961e-07
5.18711e-08
-1.31731e-07
1.85556e-06
1.2612e-07
-2.56066e-07
2.26946e-06
1.76086e-07
-3.95719e-07
2.31195e-06
2.04694e-07
-5.30458e-07
2.11096e-06
2.1558e-07
-6.43409e-07
1.70543e-06
2.12787e-07
-7.28094e-07
1.1378e-06
1.99215e-07
-7.84944e-07
4.85322e-07
1.76284e-07
-8.14806e-07
-1.82489e-07
1.46249e-07
-8.25519e-07
-8.15684e-07
1.13277e-07
-8.12119e-07
-1.39385e-06
8.19555e-08
-7.69104e-07
-1.90951e-06
5.49246e-08
-6.91208e-07
-2.36215e-06
3.27426e-08
-5.76191e-07
-2.75041e-06
1.49733e-08
-4.2501e-07
-3.07037e-06
3.70829e-10
-2.43575e-07
-3.31739e-06
-9.44212e-09
-3.94144e-08
-3.4913e-06
-1.69536e-08
1.80105e-07
-3.59747e-06
-2.19553e-08
4.0898e-07
-3.63851e-06
-2.45123e-08
6.4117e-07
-3.61402e-06
-2.46388e-08
8.70204e-07
-3.52275e-06
-2.23156e-08
1.08837e-06
-3.36179e-06
-1.74827e-08
1.2843e-06
-3.12e-06
-9.97839e-09
1.44378e-06
-2.78018e-06
2.06346e-11
1.55034e-06
-2.33322e-06
1.62689e-08
1.59243e-06
-1.77073e-06
3.66415e-08
1.56416e-06
-1.07807e-06
6.33034e-08
1.46895e-06
-2.27105e-07
9.827e-08
1.31731e-06
8.21537e-07
1.42532e-07
1.1193e-06
2.09021e-06
1.92898e-07
8.78006e-07
3.50981e-06
2.38901e-07
6.00035e-07
4.81714e-06
2.63805e-07
3.21141e-07
5.52162e-06
2.4962e-07
9.65817e-08
5.21243e-06
1.87611e-07
2.86882e-06
7.67308e-08
-3.39943e-08
8.47771e-07
4.76658e-08
-1.3128e-07
1.83246e-06
1.20011e-07
-2.73676e-07
2.24282e-06
1.68764e-07
-4.36229e-07
2.28052e-06
1.93779e-07
-5.94445e-07
2.0715e-06
1.97518e-07
-7.3309e-07
1.65948e-06
1.84475e-07
-8.47523e-07
1.09262e-06
1.59542e-07
-9.37605e-07
4.48353e-07
1.27004e-07
-1.00149e-06
-2.10123e-07
9.14944e-08
-1.03736e-06
-8.37597e-07
5.778e-08
-1.03595e-06
-1.42425e-06
2.901e-08
-9.9048e-07
-1.96043e-06
5.4968e-09
-8.99544e-07
-2.43984e-06
-1.31687e-08
-7.66827e-07
-2.8547e-06
-2.83258e-08
-5.99747e-07
-3.19657e-06
-4.07475e-08
-4.07252e-07
-3.45915e-06
-5.05842e-08
-1.97484e-07
-3.64307e-06
-5.78314e-08
2.34796e-08
-3.75574e-06
-6.2509e-08
2.50969e-07
-3.80118e-06
-6.46212e-08
4.81035e-07
-3.77977e-06
-6.41232e-08
7.1003e-07
-3.69056e-06
-6.09838e-08
9.33606e-07
-3.53003e-06
-5.51355e-08
1.1448e-06
-3.28468e-06
-4.63346e-08
1.33223e-06
-2.93332e-06
-3.41112e-08
1.47965e-06
-2.46228e-06
-1.82008e-08
1.56898e-06
-1.86077e-06
8.8657e-10
1.58127e-06
-1.11779e-06
2.76468e-08
1.51035e-06
-2.16532e-07
6.06967e-08
1.36244e-06
8.67189e-07
1.02868e-07
1.1537e-06
2.14668e-06
1.53239e-07
8.99665e-07
3.56151e-06
2.03693e-07
6.14398e-07
4.8665e-06
2.37565e-07
3.31804e-07
5.57312e-06
2.32892e-07
1.0118e-07
5.26709e-06
1.77741e-07
2.89915e-06
7.23904e-08
4.41532e-08
7.68115e-07
3.49898e-08
8.32683e-08
1.6989e-06
9.40716e-08
7.72394e-08
2.11344e-06
1.35141e-07
3.27989e-08
2.17151e-06
1.53248e-07
-3.70202e-08
1.99145e-06
1.49722e-07
-1.2939e-07
1.62136e-06
1.30397e-07
-2.37152e-07
1.09814e-06
1.02177e-07
-3.48226e-07
4.887e-07
7.06897e-08
-4.46397e-07
-1.52184e-07
4.02164e-08
-5.07412e-07
-7.90163e-07
1.35863e-08
-5.22358e-07
-1.40066e-06
-8.61898e-09
-4.87372e-07
-1.96774e-06
-2.76294e-08
-4.05958e-07
-2.47693e-06
-4.42426e-08
-2.8616e-07
-2.91529e-06
-5.91069e-08
-1.37925e-07
-3.27258e-06
-7.21097e-08
2.89182e-08
-3.54304e-06
-8.28144e-08
2.07297e-07
-3.7304e-06
-9.09011e-08
3.92352e-07
-3.84431e-06
-9.63256e-08
5.80129e-07
-3.88975e-06
-9.90459e-08
7.67579e-07
-3.868e-06
-9.90359e-08
9.5252e-07
-3.779e-06
-9.631e-08
1.13373e-06
-3.62022e-06
-9.0835e-08
1.30893e-06
-3.37748e-06
-8.22175e-08
1.47106e-06
-3.02536e-06
-6.99091e-08
1.60732e-06
-2.54459e-06
-5.37794e-08
1.69921e-06
-1.91853e-06
-3.3978e-08
1.72527e-06
-1.13331e-06
-1.03597e-08
1.6666e-06
-1.7703e-07
1.94323e-08
1.51763e-06
9.59135e-07
5.74853e-08
1.28867e-06
2.27222e-06
1.04217e-07
1.00094e-06
3.69561e-06
1.54858e-07
6.80549e-07
4.99347e-06
1.95033e-07
3.68234e-07
5.68659e-06
2.00632e-07
1.13361e-07
5.36793e-06
1.5574e-07
2.9513e-06
6.25384e-08
8.21954e-08
6.62602e-07
2.28016e-08
2.23947e-07
1.49299e-06
6.37591e-08
3.56083e-07
1.88751e-06
9.35105e-08
4.56791e-07
1.96438e-06
1.06222e-07
5.22296e-07
1.82322e-06
1.0258e-07
5.46431e-07
1.50917e-06
8.79489e-08
5.32282e-07
1.04423e-06
6.7995e-08
4.96483e-07
4.77796e-07
4.66615e-08
4.59991e-07
-1.4176e-07
2.60478e-08
4.47246e-07
-7.84305e-07
6.89038e-09
4.67289e-07
-1.40883e-06
-1.18485e-08
5.21233e-07
-1.99101e-06
-3.06272e-08
6.04065e-07
-2.51038e-06
-4.93251e-08
7.08883e-07
-2.95277e-06
-6.72597e-08
8.29363e-07
-3.30966e-06
-8.33139e-08
9.60245e-07
-3.57725e-06
-9.65856e-08
1.0973e-06
-3.76063e-06
-1.06744e-07
1.23713e-06
-3.87019e-06
-1.13858e-07
1.37665e-06
-3.91111e-06
-1.1806e-07
1.51289e-06
-3.88463e-06
-1.19494e-07
1.64311e-06
-3.79081e-06
-1.18302e-07
1.76564e-06
-3.62807e-06
-1.14546e-07
1.87844e-06
-3.38233e-06
-1.07828e-07
1.97608e-06
-3.02537e-06
-9.75009e-08
2.04982e-06
-2.53493e-06
-8.32842e-08
2.08643e-06
-1.8898e-06
-6.5237e-08
2.06746e-06
-1.07084e-06
-4.34146e-08
1.97379e-06
-6.5944e-08
-1.73235e-08
1.78861e-06
1.12966e-06
1.48285e-08
1.51468e-06
2.49148e-06
5.50524e-08
1.17225e-06
3.93789e-06
1.00843e-07
7.96195e-07
5.22869e-06
1.41849e-07
4.33652e-07
5.89499e-06
1.55325e-07
1.3617e-07
5.54377e-06
1.22718e-07
3.04007e-06
4.80115e-08
4.90516e-08
5.94792e-07
1.82365e-08
1.58573e-07
1.33478e-06
4.82784e-08
2.86135e-07
1.68951e-06
7.01385e-08
4.06797e-07
1.76245e-06
8.1046e-08
5.12085e-07
1.63613e-06
8.16286e-08
5.97753e-07
1.34842e-06
7.49434e-08
6.6472e-07
9.1329e-07
6.38734e-08
7.24861e-07
3.67595e-07
5.00004e-08
7.93156e-07
-2.43694e-07
3.36072e-08
8.72132e-07
-8.77695e-07
1.44088e-08
9.6487e-07
-1.49416e-06
-7.39154e-09
1.06772e-06
-2.06286e-06
-3.09564e-08
1.17622e-06
-2.56433e-06
-5.44994e-08
1.288e-06
-2.98849e-06
-7.60121e-08
1.40311e-06
-3.33068e-06
-9.40331e-08
1.52247e-06
-3.58854e-06
-1.08022e-07
1.64573e-06
-3.76559e-06
-1.18239e-07
1.77138e-06
-3.8706e-06
-1.25193e-07
1.89716e-06
-3.90749e-06
-1.29342e-07
2.0198e-06
-3.87614e-06
-1.31073e-07
2.1353e-06
-3.77557e-06
-1.30668e-07
2.23952e-06
-3.60395e-06
-1.28268e-07
2.32716e-06
-3.34635e-06
-1.23548e-07
2.39016e-06
-2.97244e-06
-1.15847e-07
2.41953e-06
-2.45954e-06
-1.04696e-07
2.40502e-06
-1.78542e-06
-8.98342e-08
2.33321e-06
-9.27834e-07
-7.12025e-08
2.18694e-06
1.28968e-07
-4.87157e-08
1.95399e-06
1.38412e-06
-2.16216e-08
1.63333e-06
2.80059e-06
1.14765e-08
1.24615e-06
4.27546e-06
4.96698e-08
8.34155e-07
5.55417e-06
8.67417e-08
4.47021e-07
6.17841e-06
1.04037e-07
1.36623e-07
5.77094e-06
8.3445e-08
3.14591e-06
3.0524e-08
6.63256e-09
5.69058e-07
1.85823e-08
3.42579e-08
1.26038e-06
4.63595e-08
7.53857e-08
1.58204e-06
6.60085e-08
1.23447e-07
1.6368e-06
7.73229e-08
1.78365e-07
1.50034e-06
8.06608e-08
2.43562e-07
1.20612e-06
7.6952e-08
3.23744e-07
7.65906e-07
6.70918e-08
4.225e-07
2.17291e-07
5.14774e-08
5.38824e-07
-3.9028e-07
3.02246e-08
6.66032e-07
-1.00899e-06
4.0778e-09
7.96045e-07
-1.60012e-06
-2.4043e-08
9.23409e-07
-2.13844e-06
-5.17703e-08
1.0472e-06
-2.61169e-06
-7.64081e-08
1.17023e-06
-3.01521e-06
-9.62851e-08
1.29672e-06
-3.34609e-06
-1.11049e-07
1.42993e-06
-3.60038e-06
-1.21341e-07
1.56991e-06
-3.77733e-06
-1.2822e-07
1.71479e-06
-3.88294e-06
-1.32513e-07
1.86166e-06
-3.91952e-06
-1.34812e-07
2.0064e-06
-3.88529e-06
-1.35557e-07
2.14391e-06
-3.77806e-06
-1.34991e-07
2.26781e-06
-3.59462e-06
-1.33182e-07
2.3692e-06
-3.31788e-06
-1.29812e-07
2.43705e-06
-2.91601e-06
-1.24225e-07
2.46097e-06
-2.36755e-06
-1.15861e-07
2.43138e-06
-1.65159e-06
-1.04234e-07
2.33777e-06
-7.45207e-07
-8.90635e-08
2.16773e-06
3.69218e-07
-7.03793e-08
1.9126e-06
1.68709e-06
-4.81423e-08
1.57446e-06
3.15996e-06
-2.16473e-08
1.178e-06
4.66227e-06
9.16903e-09
7.72136e-07
5.92049e-06
3.90848e-08
4.02218e-07
6.49144e-06
5.64666e-08
1.16832e-07
6.00962e-06
4.61659e-08
3.24723e-06
1.46066e-08
-6.84628e-09
5.56663e-07
1.87171e-08
-2.09641e-08
1.22708e-06
4.69894e-08
-3.65812e-08
1.53064e-06
6.6677e-08
-4.57812e-08
1.56825e-06
7.74755e-08
-3.91455e-08
1.41448e-06
7.90179e-08
-7.87824e-09
1.10331e-06
7.13766e-08
5.23951e-08
6.50242e-07
5.52775e-08
1.37878e-07
9.98057e-08
3.1931e-08
2.39349e-07
-4.94865e-07
3.07541e-09
3.46828e-07
-1.0887e-06
-2.77815e-08
4.53951e-07
-1.64999e-06
-5.72552e-08
5.59951e-07
-2.16212e-06
-8.23079e-08
6.68453e-07
-2.61869e-06
-1.0148e-07
7.84569e-07
-3.01657e-06
-1.14731e-07
9.12303e-07
-3.35075e-06
-1.23054e-07
1.05309e-06
-3.61323e-06
-1.27911e-07
1.2047e-06
-3.79825e-06
-1.3067e-07
1.36372e-06
-3.90985e-06
-1.32079e-07
1.52622e-06
-3.94943e-06
-1.32575e-07
1.68747e-06
-3.91405e-06
-1.32453e-07
1.84198e-06
-3.80074e-06
-1.31799e-07
1.98212e-06
-3.60421e-06
-1.30498e-07
2.09662e-06
-3.30413e-06
-1.282e-07
2.17325e-06
-2.86835e-06
-1.24234e-07
2.20171e-06
-2.27799e-06
-1.17963e-07
2.17396e-06
-1.51505e-06
-1.08735e-07
2.08228e-06
-5.57432e-07
-9.61094e-08
1.91847e-06
6.13103e-07
-8.02145e-08
1.67668e-06
1.99024e-06
-6.16714e-08
1.3613e-06
3.51567e-06
-4.08724e-08
9.98697e-07
5.04189e-06
-1.77386e-08
6.37836e-07
6.27467e-06
5.89537e-09
3.18932e-07
6.78932e-06
2.02241e-08
8.55791e-08
6.22465e-06
1.74573e-08
3.32816e-06
3.5543e-09
2.85131e-09
5.3731e-07
1.59743e-08
-2.14055e-09
1.18974e-06
4.19116e-08
-1.59463e-08
1.48441e-06
5.9706e-08
-3.01715e-08
1.515e-06
6.72082e-08
-3.39878e-08
1.35471e-06
6.33717e-08
-2.00543e-08
1.04047e-06
4.87496e-08
1.20093e-08
5.9267e-07
2.53993e-08
5.6881e-08
5.82824e-08
-3.41472e-09
1.08096e-07
-5.1148e-07
-3.46353e-08
1.61484e-07
-1.07825e-06
-6.38551e-08
2.1715e-07
-1.61761e-06
-8.80467e-08
2.78806e-07
-2.11802e-06
-1.05748e-07
3.51605e-07
-2.57447e-06
-1.17013e-07
4.40106e-07
-2.98216e-06
-1.22907e-07
5.46943e-07
-3.33256e-06
-1.25022e-07
6.7208e-07
-3.61331e-06
-1.2505e-07
8.11851e-07
-3.81365e-06
-1.24366e-07
9.61866e-07
-3.93635e-06
-1.23503e-07
1.11777e-06
-3.98264e-06
-1.22676e-07
1.27469e-06
-3.94891e-06
-1.22044e-07
1.42728e-06
-3.83175e-06
-1.2156e-07
1.56748e-06
-3.62343e-06
-1.20943e-07
1.68274e-06
-3.29955e-06
-1.19795e-07
1.76059e-06
-2.82871e-06
-1.17427e-07
1.79156e-06
-2.19583e-06
-1.13042e-07
1.76958e-06
-1.38726e-06
-1.05705e-07
1.69036e-06
-3.83413e-07
-9.46959e-08
1.55058e-06
8.33032e-07
-8.01118e-08
1.34738e-06
2.25646e-06
-6.31171e-08
1.08522e-06
3.82275e-06
-4.52368e-08
7.87042e-07
5.36689e-06
-2.73369e-08
4.95372e-07
6.57567e-06
-9.95209e-09
2.40083e-07
7.04154e-06
2.41983e-09
6.06907e-08
6.39998e-06
3.40249e-09
3.38896e-06
-8.4251e-10
2.73353e-08
4.99209e-07
1.02414e-08
6.91476e-08
1.11885e-06
2.86595e-08
1.05874e-07
1.40655e-06
4.07963e-08
1.36089e-07
1.44173e-06
4.27916e-08
1.6497e-07
1.29226e-06
3.33599e-08
1.93976e-07
9.97116e-07
1.42012e-08
2.18809e-07
5.79359e-07
-1.16225e-08
2.36801e-07
8.04854e-08
-4.02567e-08
2.48241e-07
-4.55792e-07
-6.71612e-08
2.55685e-07
-9.96255e-07
-8.94551e-08
2.64262e-07
-1.52073e-06
-1.0546e-07
2.80064e-07
-2.01886e-06
-1.14966e-07
3.08856e-07
-2.48449e-06
-1.18779e-07
3.55401e-07
-2.9104e-06
-1.18307e-07
4.22862e-07
-3.28479e-06
-1.15238e-07
5.11829e-07
-3.591e-06
-1.11285e-07
6.19135e-07
-3.81311e-06
-1.07854e-07
7.39743e-07
-3.95163e-06
-1.05337e-07
8.68793e-07
-4.00799e-06
-1.03709e-07
1.00148e-06
-3.97856e-06
-1.03036e-07
1.13288e-06
-3.85997e-06
-1.03176e-07
1.25519e-06
-3.642e-06
-1.03722e-07
1.35566e-06
-3.29571e-06
-1.0428e-07
1.42239e-06
-2.79118e-06
-1.04211e-07
1.4469e-06
-2.11776e-06
-1.02487e-07
1.42517e-06
-1.26766e-06
-9.7691e-08
1.35607e-06
-2.25546e-07