/*--------------------------------*- C++ -*----------------------------------*\
| =========                 |                                                 |
| \\      /  F ield         | OpenFOAM: The Open Source CFD Toolbox           |
|  \\    /   O peration     | Version:  v1906                                 |
|   \\  /    A nd           | Web:      www.OpenFOAM.com                      |
|    \\/     M anipulation  |                                                 |
\*---------------------------------------------------------------------------*/
FoamFile
{
    version     2.0;
    format      ascii;
    class       volScalarField;
    location    "32";
    object      k;
}
// * * * * * * * * * * * * * * * * * * * * * * * * * * * * * * * * * * * * * //

dimensions      [0 2 -2 0 0 0 0];


internalField   nonuniform List<scalar> 
78750
(
7.15934e-05
5.74076e-05
5.92828e-05
5.76875e-05
5.48524e-05
5.16719e-05
4.86456e-05
4.59058e-05
4.34304e-05
4.11835e-05
3.91407e-05
3.73086e-05
3.56902e-05
3.4278e-05
3.30569e-05
3.20062e-05
3.11007e-05
3.03139e-05
2.96184e-05
2.89873e-05
2.83934e-05
2.78067e-05
2.71962e-05
2.65311e-05
2.57793e-05
2.49083e-05
2.38807e-05
2.26244e-05
2.1094e-05
1.91954e-05
1.68252e-05
1.38411e-05
1.0196e-05
6.31165e-06
2.88458e-06
9.96428e-06
6.54552e-05
9.56752e-05
0.000106183
0.000105955
0.000101553
9.65653e-05
9.24015e-05
8.9139e-05
8.65718e-05
8.4448e-05
8.2631e-05
8.1062e-05
7.96876e-05
7.84835e-05
7.74123e-05
7.64356e-05
7.55259e-05
7.46345e-05
7.3734e-05
7.28039e-05
7.17615e-05
7.0533e-05
6.90814e-05
6.73687e-05
6.53372e-05
6.28998e-05
5.9939e-05
5.63398e-05
5.1822e-05
4.58698e-05
3.82552e-05
2.94105e-05
2.03871e-05
1.17047e-05
1.46275e-05
3.68394e-05
4.88142e-05
5.15689e-05
4.8454e-05
4.32018e-05
3.84888e-05
3.52133e-05
3.30067e-05
3.14167e-05
3.0251e-05
2.94224e-05
2.88705e-05
2.85641e-05
2.84833e-05
2.86124e-05
2.89389e-05
2.94564e-05
3.01624e-05
3.10585e-05
3.21502e-05
3.34412e-05
3.4929e-05
3.65992e-05
3.84165e-05
4.03106e-05
4.21625e-05
4.37951e-05
4.48573e-05
4.4834e-05
4.30469e-05
3.89577e-05
3.27389e-05
2.49342e-05
1.59262e-05
7.66493e-06
2.30818e-05
3.20667e-05
3.59318e-05
3.62718e-05
3.42969e-05
3.11143e-05
2.75654e-05
2.42245e-05
2.1127e-05
1.83301e-05
1.59506e-05
1.40896e-05
1.27563e-05
1.187e-05
1.13066e-05
1.09389e-05
1.06632e-05
1.04146e-05
1.01742e-05
9.96886e-06
9.87466e-06
1.00206e-05
1.05854e-05
1.17753e-05
1.37922e-05
1.67884e-05
2.07265e-05
2.52576e-05
2.96575e-05
3.27102e-05
3.32081e-05
3.06663e-05
2.55059e-05
1.86492e-05
5.84111e-06
1.66778e-05
2.37368e-05
2.71666e-05
2.766e-05
2.56722e-05
2.18549e-05
1.72031e-05
1.28968e-05
9.92822e-06
8.79702e-06
9.48254e-06
1.15253e-05
1.42788e-05
1.71596e-05
1.97534e-05
2.18072e-05
2.31828e-05
2.38058e-05
2.36356e-05
2.26554e-05
2.08762e-05
1.83579e-05
1.52677e-05
1.19659e-05
9.12241e-06
7.77082e-06
9.0288e-06
1.3426e-05
2.01505e-05
2.6904e-05
3.09829e-05
3.09952e-05
2.7581e-05
2.22859e-05
3.93373e-06
1.22584e-05
1.77352e-05
2.01815e-05
2.00274e-05
1.78448e-05
1.4763e-05
1.22418e-05
1.14756e-05
1.30152e-05
1.6693e-05
2.17726e-05
2.73483e-05
3.26883e-05
3.73639e-05
4.11975e-05
4.41731e-05
4.63154e-05
4.76231e-05
4.80752e-05
4.76265e-05
4.62044e-05
4.36819e-05
3.98595e-05
3.45621e-05
2.78064e-05
2.01565e-05
1.319e-05
9.43805e-06
1.08789e-05
1.68003e-05
2.35826e-05
2.72855e-05
2.70385e-05
2.45398e-05
3.15445e-06
9.70782e-06
1.41722e-05
1.62183e-05
1.61239e-05
1.45228e-05
1.26966e-05
1.21662e-05
1.38918e-05
1.78631e-05
2.33007e-05
2.91765e-05
3.46682e-05
3.93231e-05
4.31057e-05
4.61375e-05
4.84878e-05
5.01968e-05
5.12882e-05
5.17616e-05
5.15887e-05
5.07121e-05
4.90472e-05
4.64656e-05
4.27242e-05
3.75456e-05
3.09454e-05
2.36169e-05
1.74381e-05
1.49488e-05
1.72598e-05
2.24007e-05
2.64222e-05
2.758e-05
2.69872e-05
2.39174e-06
7.65862e-06
1.1262e-05
1.28838e-05
1.28353e-05
1.1961e-05
1.17076e-05
1.33431e-05
1.71968e-05
2.27086e-05
2.89209e-05
3.49886e-05
4.04103e-05
4.50017e-05
4.88113e-05
5.1965e-05
5.4518e-05
5.64685e-05
5.77997e-05
5.8474e-05
5.84321e-05
5.75956e-05
5.58678e-05
5.30655e-05
4.89276e-05
4.32729e-05
3.6131e-05
2.80851e-05
2.07448e-05
1.65709e-05
1.70833e-05
2.12466e-05
2.55284e-05
2.77213e-05
2.85038e-05
1.93041e-06
6.20282e-06
9.22886e-06
1.08029e-05
1.13105e-05
1.16794e-05
1.31542e-05
1.64714e-05
2.14625e-05
2.73952e-05
3.34734e-05
3.91367e-05
4.41049e-05
4.83262e-05
5.19395e-05
5.50458e-05
5.76497e-05
5.97507e-05
6.13332e-05
6.23593e-05
6.27633e-05
6.24493e-05
6.12938e-05
5.9085e-05
5.5483e-05
5.01569e-05
4.29633e-05
3.43333e-05
2.58568e-05
2.0169e-05
1.90014e-05
2.19129e-05
2.58446e-05
2.85076e-05
3.02292e-05
1.44964e-06
4.98433e-06
7.62147e-06
9.27378e-06
1.0328e-05
1.15924e-05
1.39337e-05
1.76757e-05
2.25654e-05
2.8074e-05
3.36837e-05
3.9016e-05
4.38406e-05
4.8047e-05
5.16859e-05
5.48252e-05
5.74619e-05
5.95878e-05
6.1193e-05
6.22571e-05
6.27426e-05
6.25876e-05
6.16873e-05
5.98398e-05
5.6768e-05
5.21645e-05
4.58039e-05
3.78818e-05
2.96293e-05
2.35469e-05
2.13848e-05
2.31975e-05
2.65569e-05
2.92461e-05
3.13209e-05
9.91171e-07
3.88752e-06
6.18361e-06
7.86459e-06
9.26961e-06
1.10328e-05
1.37418e-05
1.76327e-05
2.25764e-05
2.8203e-05
3.4068e-05
3.97752e-05
4.50321e-05
4.96591e-05
5.36197e-05
5.69625e-05
5.9706e-05
6.18419e-05
6.33711e-05
6.42957e-05
6.46097e-05
6.42884e-05
6.32493e-05
6.13095e-05
5.82358e-05
5.37418e-05
4.76014e-05
3.99752e-05
3.20058e-05
2.60466e-05
2.35971e-05
2.48217e-05
2.77099e-05
3.02914e-05
3.26065e-05
6.55984e-07
3.05215e-06
5.11923e-06
6.94135e-06
8.8776e-06
1.14161e-05
1.49098e-05
1.94448e-05
2.48335e-05
3.07246e-05
3.6748e-05
4.25997e-05
4.80504e-05
5.29186e-05
5.70636e-05
6.04385e-05
6.30559e-05
6.4912e-05
6.60094e-05
6.6381e-05
6.60796e-05
6.51479e-05
6.35767e-05
6.13231e-05
5.82714e-05
5.41796e-05
4.87465e-05
4.19248e-05
3.45626e-05
2.88338e-05
2.61282e-05
2.67571e-05
2.91037e-05
3.14235e-05
3.3811e-05
5.04373e-07
2.65772e-06
4.70984e-06
6.83077e-06
9.34341e-06
1.25493e-05
1.66175e-05
2.15549e-05
2.72341e-05
3.34618e-05
4.00277e-05
4.67044e-05
5.32221e-05
5.92645e-05
6.45103e-05
6.87013e-05
7.17003e-05
7.34876e-05
7.40753e-05
7.35068e-05
7.18643e-05
6.92376e-05
6.5776e-05
6.17265e-05
5.7323e-05
5.261e-05
4.73753e-05
4.14118e-05
3.52135e-05
3.04879e-05
2.82278e-05
2.8746e-05
3.0769e-05
3.2896e-05
3.54554e-05
4.32406e-07
2.57048e-06
4.7455e-06
7.17501e-06
1.01357e-05
1.38497e-05
1.84826e-05
2.41284e-05
3.07994e-05
3.84244e-05
4.68352e-05
5.57354e-05
6.46805e-05
7.31151e-05
8.04792e-05
8.63314e-05
9.04153e-05
9.26372e-05
9.29924e-05
9.14986e-05
8.81705e-05
8.30548e-05
7.63613e-05
6.86205e-05
6.06601e-05
5.32691e-05
4.67447e-05
4.0851e-05
3.55583e-05
3.187e-05
3.02273e-05
3.08179e-05
3.26447e-05
3.46481e-05
3.74462e-05
3.92741e-07
2.50616e-06
4.75843e-06
7.41808e-06
1.07873e-05
1.51347e-05
2.06963e-05
2.76449e-05
3.60655e-05
4.5931e-05
5.7046e-05
6.89713e-05
8.10118e-05
9.23348e-05
0.000102179
0.000110023
0.00011561
0.000118848
0.0001197
0.000118099
0.000113917
0.00010697
9.71602e-05
8.48365e-05
7.1184e-05
5.81151e-05
4.73756e-05
3.95923e-05
3.45142e-05
3.20816e-05
3.1612e-05
3.2787e-05
3.47431e-05
3.68291e-05
3.9956e-05
3.76393e-07
2.65723e-06
5.20036e-06
8.37021e-06
1.25002e-05
1.78401e-05
2.45872e-05
3.29098e-05
4.29512e-05
5.47521e-05
6.80877e-05
8.23367e-05
9.65399e-05
0.000109671
0.000120951
0.000129992
0.000136701
0.000141095
0.000143154
0.000142751
0.000139619
0.000133306
0.000123207
0.00010887
9.08153e-05
7.13055e-05
5.38535e-05
4.12656e-05
3.42578e-05
3.21021e-05
3.26619e-05
3.46384e-05
3.69645e-05
3.92318e-05
4.23408e-05
3.29147e-07
2.84792e-06
5.63107e-06
9.0514e-06
1.33878e-05
1.88254e-05
2.55769e-05
3.39485e-05
4.42797e-05
5.67215e-05
7.09636e-05
8.61383e-05
0.000101042
0.000114565
0.000126044
0.000135318
0.000142515
0.000147799
0.000151224
0.000152685
0.000151884
0.000148284
0.000140993
0.000128796
0.000110824
8.81169e-05
6.46777e-05
4.59123e-05
3.51796e-05
3.22466e-05
3.35409e-05
3.64091e-05
3.92183e-05
4.15918e-05
4.41651e-05
2.43943e-07
2.83093e-06
5.60164e-06
8.84465e-06
1.28099e-05
1.77597e-05
2.40943e-05
3.23497e-05
4.29966e-05
5.60924e-05
7.1025e-05
8.65921e-05
0.000101422
0.000114469
0.000125287
0.000133954
0.00014078
0.000146052
0.000149926
0.00015239
0.000153249
0.000152086
0.00014812
0.000140009
0.000125923
0.000104818
7.89185e-05
5.45871e-05
3.86496e-05
3.33669e-05
3.45793e-05
3.81021e-05
4.13217e-05
4.3649e-05
4.55474e-05
2.79522e-07
2.61783e-06
5.16209e-06
8.15853e-06
1.19566e-05
1.70665e-05
2.41643e-05
3.39025e-05
4.65297e-05
6.15503e-05
7.77343e-05
9.35397e-05
0.000107678
0.000119472
0.00012887
0.000136188
0.000141823
0.000146091
0.00014918
0.000151148
0.000151921
0.000151256
0.000148636
0.000143075
0.000132888
0.000115987
9.19521e-05
6.51953e-05
4.43774e-05
3.56212e-05
3.58442e-05
3.96666e-05
4.31937e-05
4.54958e-05
4.72133e-05
3.66622e-07
2.70092e-06
5.43559e-06
9.01685e-06
1.40924e-05
2.14653e-05
3.18341e-05
4.53594e-05
6.13367e-05
7.83007e-05
9.45694e-05
0.000108869
0.000120653
0.000130011
0.000137349
0.000143091
0.000147541
0.00015087
0.000153144
0.000154353
0.000154411
0.000153134
0.000150165
0.000144846
0.000136027
0.00012198
0.000101229
7.53737e-05
5.17434e-05
3.92678e-05
3.75365e-05
4.11231e-05
4.48572e-05
4.72833e-05
4.92835e-05
4.37603e-07
3.36814e-06
7.16168e-06
1.26639e-05
2.07648e-05
3.20717e-05
4.64389e-05
6.27584e-05
7.93012e-05
9.44449e-05
0.000107286
0.000117761
0.000126322
0.000133514
0.000139714
0.000145093
0.000149668
0.000153368
0.000156078
0.000157652
0.00015791
0.000156614
0.000153396
0.000147697
0.000138704
0.000125323
0.000106475
8.26086e-05
5.86943e-05
4.37785e-05
3.98061e-05
4.2633e-05
4.64061e-05
4.90217e-05
5.12684e-05
5.45261e-07
4.95657e-06
1.08026e-05
1.91287e-05
3.042e-05
4.42475e-05
5.92432e-05
7.36678e-05
8.62553e-05
9.67126e-05
0.000105557
0.000113549
0.000121217
0.00012872
0.00013595
0.000142693
0.00014872
0.000153827
0.000157823
0.000160521
0.00016171
0.000161114
0.000158315
0.000152705
0.000143519
0.000129966
0.000111489
8.86207e-05
6.50755e-05
4.88714e-05
4.28314e-05
4.44644e-05
4.79849e-05
5.06236e-05
5.26377e-05
7.03007e-07
6.95462e-06
1.46196e-05
2.43562e-05
3.58419e-05
4.79215e-05
5.92315e-05
6.90075e-05
7.74595e-05
8.54456e-05
9.38009e-05
0.000102866
0.000112447
0.00012208
0.000131305
0.000139787
0.000147304
0.000153697
0.000158828
0.000162552
0.000164688
0.00016498
0.000163
0.000158089
0.000149388
0.000136092
0.000117763
9.51311e-05
7.15577e-05
5.44124e-05
4.65549e-05
4.6766e-05
4.9724e-05
5.21001e-05
5.35084e-05
9.11469e-07
8.16332e-06
1.61029e-05
2.48394e-05
3.38319e-05
4.23515e-05
5.00904e-05
5.7459e-05
6.53236e-05
7.44135e-05
8.48796e-05
9.62705e-05
0.000107858
0.000119004
0.000129313
0.00013859
0.000146731
0.000153664
0.000159312
0.000163577
0.000166324
0.000167343
0.00016626
0.000162444
0.00015499
0.000142954
0.000125747
0.000103785
8.00367e-05
6.15282e-05
5.14521e-05
4.97707e-05
5.18217e-05
5.37688e-05
5.47712e-05
1.14535e-06
8.04178e-06
1.4947e-05
2.17727e-05
2.83829e-05
3.4876e-05
4.17529e-05
4.97471e-05
5.94076e-05
7.07485e-05
8.32253e-05
9.60266e-05
0.000108429
0.000119973
0.000130441
0.000139748
0.000147857
0.000154725
0.000160302
0.000164514
0.000167263
0.00016839
0.0001676
0.000164367
0.000157904
0.00014734
0.000132012
0.000112009
8.94114e-05
7.02366e-05
5.79423e-05
5.38911e-05
5.46346e-05
5.61365e-05
5.747e-05
1.35776e-06
7.31195e-06
1.31418e-05
1.89561e-05
2.51126e-05
3.21862e-05
4.07867e-05
5.12548e-05
6.3434e-05
7.67034e-05
9.02508e-05
0.000103374
0.000115627
0.000126795
0.000136808
0.000145648
0.000153295
0.000159705
0.000164808
0.000168519
0.000170747
0.000171348
0.00017006
0.000166408
0.000159748
0.000149486
0.000135317
0.000117395
9.72611e-05
7.89903e-05
6.5548e-05
5.93469e-05
5.86317e-05
5.97828e-05
6.21591e-05
1.53679e-06
7.05079e-06
1.28732e-05
1.94706e-05
2.74096e-05
3.7144e-05
4.87656e-05
6.18916e-05
7.57875e-05
8.9652e-05
0.000102868
0.000115097
0.000126225
0.000136266
0.000145261
0.000153227
0.000160127
0.000165875
0.000170349
0.000173415
0.000174958
0.000174808
0.000172662
0.000167994
0.000160188
0.000148942
0.000134608
0.000118041
0.00010091
8.50405e-05
7.21771e-05
6.50719e-05
6.34513e-05
6.44997e-05
6.78995e-05
1.78576e-06
8.16178e-06
1.55363e-05
2.45357e-05
3.54306e-05
4.80465e-05
6.17885e-05
7.58514e-05
8.95005e-05
0.000102264
0.000113962
0.000124622
0.000134359
0.000143275
0.000151408
0.000158718
0.000165089
0.000170354
0.00017432
0.000176792
0.000177607
0.000176545
0.000173208
0.000166965
0.000157209
0.00014407
0.000128874
0.000113548
0.000100103
8.77536e-05
7.69293e-05
7.0176e-05
6.82746e-05
6.90335e-05
7.19032e-05
2.16505e-06
1.04267e-05
2.00191e-05
3.13164e-05
4.4045e-05
5.7554e-05
7.11055e-05
8.41241e-05
9.63116e-05
0.000107625
0.000118167
0.000128068
0.000137414
0.000146208
0.000154374
0.000161768
0.000168188
0.000173409
0.000177181
0.000179249
0.000179384
0.000177266
0.000172346
0.000163809
0.000151069
0.000134951
0.000118387
0.000105046
9.62986e-05
8.84123e-05
8.04942e-05
7.46858e-05
7.23928e-05
7.19931e-05
7.22441e-05
2.60293e-06
1.2588e-05
2.36155e-05
3.57234e-05
4.84795e-05
6.13758e-05
7.40387e-05
8.62769e-05
9.80368e-05
0.000109321
0.000120137
0.000130469
0.00014027
0.00014946
0.000157931
0.000165538
0.000172091
0.000177369
0.0001811
0.000182978
0.00018269
0.000179788
0.00017353
0.000162859
0.000147018
0.000127191
0.000108034
9.59915e-05
9.15878e-05
8.84007e-05
8.3559e-05
7.86042e-05
7.54182e-05
7.3023e-05
6.9896e-05
2.95822e-06
1.38479e-05
2.54265e-05
3.7692e-05
5.04339e-05
6.34359e-05
7.64933e-05
8.93874e-05
0.000101898
0.000113844
0.000125118
0.000135672
0.000145491
0.000154564
0.000162855
0.000170283
0.000176711
0.000181947
0.000185722
0.000187704
0.000187519
0.000184617
0.000178167
0.000166952
0.000149722
0.000126833
0.000103067
8.78217e-05
8.48181e-05
8.61766e-05
8.50407e-05
8.12542e-05
7.7228e-05
7.29734e-05
6.76953e-05
3.19724e-06
1.48523e-05
2.71837e-05
4.02721e-05
5.39678e-05
6.79808e-05
8.19229e-05
9.54064e-05
0.000108152
0.000120038
0.000131063
0.000141286
0.000150764
0.000159531
0.000167575
0.000174836
0.0001812
0.000186505
0.000190514
0.000192931
0.000193395
0.000191361
0.000185995
0.000176091
0.000160093
0.000136958
0.000109047
8.56939e-05
7.69084e-05
7.94911e-05
8.2983e-05
8.208e-05
7.84668e-05
7.34233e-05
6.77569e-05
3.36114e-06
1.60845e-05
2.94918e-05
4.36076e-05
5.81309e-05
7.26299e-05
8.66852e-05
0.000100006
0.000112473
0.000124093
0.000134932
0.000145053
0.000154491
0.00016325
0.000171307
0.000178605
0.000185056
0.000190545
0.000194905
0.000197951
0.000199425
0.000198853
0.000195492
0.000188217
0.00017551
0.000155651
0.000128123
9.78454e-05
7.70076e-05
7.16352e-05
7.6073e-05
7.93909e-05
7.84077e-05
7.46187e-05
7.07479e-05
3.53717e-06
1.73934e-05
3.17505e-05
4.65619e-05
6.15102e-05
7.62318e-05
9.04232e-05
0.000103891
0.000116551
0.000128398
0.000139455
0.000149745
0.000159276
0.000168039
0.000176018
0.000183183
0.000189481
0.000194859
0.00019923
0.000202557
0.000204762
0.000205642
0.000204627
0.000200636
0.000192244
0.00017759
0.00015491
0.000124767
9.49719e-05
7.51266e-05
7.06962e-05
7.42203e-05
7.63789e-05
7.58605e-05
7.63089e-05
3.82024e-06
1.87383e-05
3.39948e-05
4.95902e-05
6.52754e-05
8.07214e-05
9.56028e-05
0.000109675
0.000122812
0.000134989
0.000146228
0.000156558
0.000165994
0.000174538
0.000182184
0.000188926
0.000194734
0.000199602
0.000203511
0.000206568
0.000208882
0.000210508
0.000211243
0.000210416
0.000206655
0.000197898
0.000181923
0.000157767
0.000127665
9.78245e-05
7.91358e-05
7.47073e-05
7.61356e-05
7.82353e-05
8.35621e-05
4.33063e-06
2.04355e-05
3.68605e-05
5.36507e-05
7.04971e-05
8.69472e-05
0.000102575
0.000117115
0.000130486
0.000142723
0.000153892
0.000164043
0.000173193
0.000181331
0.000188437
0.000194501
0.0001995
0.000203443
0.000206362
0.000208508
0.000210215
0.000211901
0.000213943
0.000216131
0.000217118
0.000214408
0.000205346
0.000188287
0.000162425
0.000130472
0.000101875
8.64586e-05
8.27246e-05
8.41802e-05
9.07576e-05
5.14469e-06
2.26519e-05
4.0488e-05
5.86443e-05
7.66457e-05
9.39113e-05
0.000110008
0.000124757
0.000138181
0.000150384
0.000161454
0.000171432
0.000180301
0.000188007
0.00019448
0.000199664
0.000203517
0.000206027
0.000207234
0.000207486
0.00020736
0.000207833
0.00021034
0.000215644
0.00022244
0.000227236
0.000226042
0.000215559
0.000193825
0.000162265
0.000128822
0.000105167
9.54601e-05
9.30924e-05
9.46421e-05
6.22932e-06
2.51807e-05
4.44343e-05
6.3869e-05
8.28589e-05
0.000100775
0.000117245
0.000132191
0.000145712
0.000157946
0.000168981
0.000178832
0.000187444
0.000194711
0.0002005
0.00020468
0.000207158
0.000207863
0.000206775
0.000204228
0.000200992
0.00019887
0.000201014
0.000209883
0.000224
0.000237976
0.000245245
0.000240559
0.000221562
0.000189727
0.000152901
0.000123942
0.000109306
0.000101251
9.2844e-05
7.41004e-06
2.761e-05
4.81187e-05
6.86611e-05
8.8483e-05
0.000106934
0.000123699
0.000138779
0.000152346
0.00016457
0.000175545
0.00018527
0.000193659
0.000200556
0.000205761
0.000209052
0.000210221
0.000209103
0.000205525
0.000199653
0.000192312
0.000186254
0.00018692
0.000199116
0.000221136
0.00024452
0.00025913
0.000258878
0.000241744
0.000209706
0.000171041
0.000138851
0.000119519
0.000104932
8.65385e-05
8.45117e-06
2.9643e-05
5.11663e-05
7.25726e-05
9.3007e-05
0.000111829
0.000128794
0.000143992
0.00015765
0.000169967
0.000181033
0.00019083
0.000199244
0.000206086
0.000211104
0.000213997
0.000214432
0.000212058
0.000206501
0.000197581
0.000185839
0.00017426
0.000170052
0.000181505
0.00020895
0.000240556
0.000261941
0.00026628
0.000252077
0.000221804
0.000183594
0.00014991
0.000125814
0.000104867
8.0068e-05
9.13768e-06
3.10515e-05
5.33463e-05
7.54194e-05
9.63691e-05
0.000115573
0.000132829
0.000148278
0.000162184
0.000174757
0.000186084
0.000196135
0.000204792
0.000211859
0.000217079
0.000220127
0.000220608
0.000218049
0.000211861
0.000201506
0.000186763
0.0001693
0.000155751
0.00015796
0.000183376
0.000221235
0.000250904
0.00026218
0.000253573
0.000227874
0.000192538
0.000158694
0.000130626
0.000104518
7.65428e-05
9.46804e-06
3.20175e-05
5.49759e-05
7.76351e-05
9.90737e-05
0.000118677
0.000136266
0.000152021
0.000166238
0.00017914
0.000190815
0.000201231
0.000210277
0.000217773
0.000223485
0.000227114
0.000228277
0.000226474
0.000221031
0.000211225
0.000196216
0.00017583
0.000153358
0.000139454
0.000149232
0.000184859
0.00022369
0.000246015
0.000246686
0.000228443
0.000198146
0.000165657
0.000135347
0.00010592
7.66004e-05
9.5362e-06
3.26797e-05
5.61854e-05
7.93207e-05
0.000101198
0.000121223
0.000139228
0.000155414
0.000170092
0.000183484
0.000195668
0.000206609
0.000216199
0.00022428
0.000230653
0.000235073
0.000237223
0.000236671
0.000232831
0.000225018
0.00021223
0.000193276
0.000168007
0.000141155
0.000126782
0.00014193
0.00018004
0.000215187
0.000229727
0.000222355
0.000199478
0.000170385
0.000140122
0.000109383
7.97582e-05
9.48265e-06
3.32061e-05
5.72416e-05
8.08949e-05
0.000103306
0.000123861
0.000142381
0.000159079
0.000174281
0.000188208
0.000200933
0.000212419
0.000222566
0.00023124
0.00023828
0.000243497
0.000246651
0.000247411
0.000245382
0.000240017
0.00023043
0.000215342
0.00019328
0.000164092
0.000133628
0.000118722
0.000134241
0.000170311
0.000199882
0.000207501
0.000195278
0.000172298
0.000144639
0.000114472
8.53869e-05
9.46858e-06
3.39072e-05
5.8582e-05
8.28382e-05
0.000105821
0.000126908
0.000145938
0.000163158
0.000178909
0.000193402
0.000206692
0.000218732
0.000229422
0.000238643
0.000246266
0.000252138
0.000256096
0.000257963
0.000257516
0.000254375
0.000247857
0.000236896
0.000219994
0.000195481
0.000163302
0.000130497
0.00011485
0.000128264
0.000159475
0.000182071
0.000183702
0.000169804
0.000147518
0.000120129
9.29796e-05
9.6117e-06
3.49052e-05
6.02934e-05
8.51794e-05
0.000108734
0.000130353
0.00014991
0.000167694
0.000184046
0.000199153
0.000213038
0.000225626
0.000236806
0.000246458
0.000254476
0.000260765
0.00026523
0.000267846
0.000268531
0.000267047
0.000262948
0.000255458
0.000243345
0.000224905
0.000198376
0.000164232
0.000131324
0.000114746
0.00012557
0.000150278
0.000164757
0.00016211
0.000147578
0.000125228
0.000102057
9.99931e-06
3.6236e-05
6.23917e-05
8.79517e-05
0.000112098
0.000134242
0.000154326
0.00017268
0.000189641
0.000205358
0.000219817
0.000232914
0.000244519
0.000254508
0.000262782
0.000269269
0.000273906
0.000276776
0.000277917
0.000277321
0.0002748
0.000269889
0.000261664
0.000248582
0.000228818
0.000200866
0.000166875
0.000133754
0.000117547
0.000126324
0.000143562
0.000150494
0.000144607
0.000129047
0.000111712
1.0705e-05
3.79332e-05
6.49025e-05
9.1144e-05
0.000115858
0.000138502
0.000159099
0.000178022
0.00019559
0.000211903
0.000226899
0.000240434
0.00025235
0.000262507
0.000270804
0.000277185
0.000281641
0.000284331
0.000285397
0.000284983
0.000283122
0.000279669
0.000274123
0.000265396
0.000251776
0.000231433
0.000203442
0.000168311
0.00013567
0.000122139
0.000129281
0.000139236
0.000140072
0.000131368
0.000120491
1.17499e-05
3.98877e-05
6.76022e-05
9.44737e-05
0.000119707
0.000142817
0.000163918
0.00018342
0.000201609
0.000218526
0.000234047
0.000247978
0.000260115
0.000270284
0.00027837
0.000284315
0.000288135
0.000290048
0.000290295
0.000289177
0.000286994
0.000284029
0.000280325
0.000275209
0.000267068
0.000253947
0.000233424
0.000202954
0.00016597
0.000136655
0.000128093
0.0001334
0.000136715
0.000132826
0.000126512
1.30647e-05
4.19037e-05
7.02493e-05
9.768e-05
0.000123384
0.000146937
0.000168546
0.000188649
0.000207489
0.000225043
0.000241124
0.00025547
0.000267816
0.000277936
0.000285669
0.000290938
0.000293746
0.000294339
0.000293014
0.000290191
0.000286437
0.000282599
0.000279568
0.000277377
0.000274531
0.000268523
0.000255235
0.000230809
0.000195658
0.000159609
0.000138324
0.000135268
0.000136737
0.000133904
0.000127402
1.44634e-05
4.37121e-05
7.25345e-05
0.000100425
0.000126526
0.000150474
0.000172563
0.000193255
0.000212758
0.000230992
0.0002477
0.000262548
0.000275194
0.000285336
0.000292746
0.000297293
0.000298935
0.000297892
0.000294454
0.000289067
0.000282487
0.000276212
0.000272359
0.000272147
0.00027429
0.000274977
0.000268089
0.0002491
0.000217478
0.000180477
0.00015279
0.000142424
0.000139383
0.000133283
0.000121373
1.56989e-05
4.51054e-05
7.42677e-05
0.000102511
0.000128915
0.000153175
0.000175675
0.000196913
0.000217079
0.000236046
0.000253494
0.000269013
0.000282175
0.000292592
0.000299945
0.000304016
0.000304686
0.000302099
0.000296449
0.000288072
0.000277718
0.000267384
0.00026066
0.000260722
0.000267077
0.000273712
0.000272294
0.000257849
0.000229967
0.000194989
0.000165612
0.000150399
0.00014178
0.000129625
0.000110122
1.65391e-05
4.59491e-05
7.53255e-05
0.000103788
0.000130363
0.000154813
0.000177616
0.000199322
0.000220127
0.000239877
0.000258199
0.000274613
0.000288611
0.000299716
0.000307517
0.000311693
0.000312039
0.000308576
0.000301339
0.000290433
0.000276295
0.00026083
0.000248639
0.000245557
0.000253607
0.000265049
0.000268984
0.000259386
0.00023588
0.000204273
0.000175432
0.000156898
0.000142842
0.000124454
9.88441e-05
1.69133e-05
4.63194e-05
7.58371e-05
0.0001044
0.000131009
0.000155498
0.000178457
0.000200513
0.00022189
0.000242427
0.000261715
0.000279219
0.000294362
0.000306592
0.000315418
0.000320431
0.000321356
0.000318094
0.00031052
0.000298495
0.000281955
0.000261947
0.000242612
0.000231736
0.000235979
0.000249625
0.000259352
0.000256261
0.000238675
0.000211379
0.000183741
0.000162761
0.000144154
0.000120893
9.15383e-05
1.68991e-05
4.63731e-05
7.59785e-05
0.000104519
0.000131001
0.000155355
0.000178293
0.000200542
0.000222381
0.000243657
0.00026394
0.000282651
0.000299159
0.000312854
0.000323185
0.000329675
0.000332022
0.000330039
0.000323496
0.000312112
0.000295454
0.000273487
0.000248425
0.000227236
0.000220499
0.00022999
0.000243665
0.000248489
0.000238994
0.000217697
0.000192408
0.000170139
0.000148255
0.00012135
8.90511e-05
1.66779e-05
4.63572e-05
7.6039e-05
0.000104455
0.000130655
0.000154693
0.000177424
0.000199693
0.000221848
0.000243763
0.000264995
0.000284928
0.000302885
0.000318211
0.000330311
0.000338667
0.000342979
0.000343011
0.000338479
0.000329063
0.000314204
0.000293227
0.000266437
0.000237721
0.0002171
0.00021418
0.000224814
0.000235605
0.000235233
0.000221792
0.000200754
0.00017902
0.000155442
0.000125738
9.03542e-05
1.64089e-05
4.63975e-05
7.61385e-05
0.000104337
0.000130113
0.000153666
0.000176015
0.000198131
0.000220445
0.000242867
0.000264949
0.000286041
0.00030542
0.000322387
0.000336317
0.000346676
0.000353175
0.000355549
0.000353489
0.000346691
0.000334648
0.000316547
0.000291643
0.000260995
0.000230725
0.000212469
0.000210917
0.000220011
0.000226385
0.000221574
0.000206669
0.000187483
0.000163978
0.000132496
9.41456e-05
1.62313e-05
4.6626e-05
7.64382e-05
0.000104368
0.000129618
0.000152552
0.000174365
0.000196166
0.000218477
0.000241256
0.000264055
0.000286185
0.000306876
0.000325379
0.000341033
0.000353332
0.000361975
0.000366683
0.000367148
0.000363092
0.000354081
0.000339416
0.000318179
0.000289825
0.000256901
0.000228183
0.000211376
0.000209785
0.00021563
0.000216811
0.000208355
0.000193207
0.000171546
0.000139728
9.93454e-05
1.62269e-05
4.70872e-05
7.69836e-05
0.000104621
0.000129285
0.000151511
0.000172675
0.000194025
0.000216186
0.000239169
0.000262531
0.000285548
0.000307389
0.000327254
0.00034444
0.000358462
0.000369018
0.000375827
0.000378593
0.000377074
0.000370907
0.000359494
0.000341986
0.000317633
0.000287015
0.000255005
0.000227619
0.00021224
0.000209731
0.000211084
0.000207024
0.00019598
0.000177118
0.000146338
0.000105325
1.64517e-05
4.78118e-05
7.78204e-05
0.000105182
0.000129252
0.000150739
0.000171196
0.000192009
0.000213903
0.000236954
0.000260727
0.000284459
0.000307257
0.000328258
0.000346714
0.000362157
0.000374282
0.000382811
0.000387465
0.000388052
0.000384283
0.000375671
0.00036149
0.000341002
0.000314315
0.000284007
0.000252999
0.000227671
0.000213853
0.000209389
0.000205681
0.000197232
0.000181027
0.000152081
0.000111673
1.69392e-05
4.88039e-05
7.89528e-05
0.000106073
0.000129579
0.000150344
0.000170091
0.000190332
0.00021189
0.000234906
0.000258959
0.000283247
0.000306811
0.000328715
0.000348159
0.000364685
0.000377974
0.000387749
0.000393755
0.000395851
0.000393824
0.000387295
0.000375685
0.000358428
0.000335638
0.000308717
0.000278869
0.000249785
0.000227408
0.000214737
0.000207477
0.000199121
0.00018438
0.000157087
0.000117716
1.76854e-05
5.00165e-05
8.03124e-05
0.000107222
0.000130208
0.000150304
0.000169384
0.00018906
0.000210245
0.000233145
0.000257361
0.000282059
0.00030621
0.00032881
0.000348998
0.000366309
0.000380393
0.00039096
0.000397776
0.000400747
0.000399729
0.000394432
0.000384428
0.000369401
0.000349777
0.000326504
0.000299774
0.000271236
0.000245141
0.000225941
0.000213549
0.000203088
0.000188127
0.000161376
0.000122498
1.86478e-05
5.13672e-05
8.17995e-05
0.000108531
0.000131065
0.000150578
0.000169063
0.000188212
0.000209001
0.000231703
0.000255953
0.000280902
0.000305463
0.000328556
0.000349298
0.000367166
0.00038176
0.00039277
0.000399967
0.000403288
0.000402631
0.000397772
0.000388417
0.000374559
0.000357106
0.000336889
0.000313714
0.000287955
0.000261895
0.000239381
0.000222648
0.000209111
0.000192496
0.000164794
0.000125257
1.97304e-05
5.27523e-05
8.33105e-05
0.000109902
0.000132058
0.000151077
0.000169046
0.000187701
0.000208069
0.000230486
0.000254632
0.000279668
0.000304474
0.000327903
0.000349052
0.00036733
0.000382276
0.000393543
0.000400887
0.000404248
0.000403538
0.000398563
0.000389138
0.000375588
0.000359347
0.000341267
0.000321207
0.000298866
0.000274925
0.000251841
0.00023259
0.000216183
0.000197129
0.000167263
0.000126114
2.08258e-05
5.40894e-05
8.47542e-05
0.000111217
0.000133035
0.000151618
0.000169123
0.000187309
0.000207232
0.000229284
0.000253207
0.000278192
0.000303106
0.000326756
0.000348225
0.000366857
0.000382122
0.000393622
0.000401085
0.000404437
0.000403574
0.000398304
0.000388528
0.00037486
0.000359062
0.000342086
0.000324221
0.000305013
0.000283978
0.000262086
0.000241927
0.000223341
0.000201689
0.000169071
0.000126072
2.18368e-05
5.52875e-05
8.60151e-05
0.000112328
0.000133819
0.000151998
0.000169068
0.000186786
0.000206225
0.000227831
0.000251418
0.000276231
0.000301153
0.000324956
0.000346726
0.000365736
0.000381388
0.000393234
0.000400966
0.000404484
0.000403663
0.000398308
0.000388373
0.000374659
0.000358803
0.000341905
0.000324973
0.000307957
0.00028974
0.00026999
0.000249954
0.000229997
0.000206114
0.000170884
0.00012633
2.27215e-05
5.63334e-05
8.70775e-05
0.000113213
0.000134386
0.000152194
0.00016886
0.00018612
0.000205047
0.000226129
0.000249263
0.000273775
0.000298586
0.000322469
0.000344519
0.000363939
0.000380066
0.00039241
0.000400633
0.000404615
0.000404216
0.000399249
0.00038971
0.000376423
0.000360451
0.000342936
0.000325614
0.000309347
0.000293104
0.00027557
0.00025638
0.000235879
0.000210482
0.000173279
0.000127648
2.34789e-05
5.72069e-05
8.79002e-05
0.000113823
0.000134687
0.000152159
0.000168466
0.000185308
0.00020374
0.000224281
0.000246897
0.000270998
0.000295569
0.000319456
0.000341726
0.000361524
0.000378142
0.000391063
0.000399934
0.000404634
0.000405031
0.000400973
0.000392513
0.000380314
0.000364689
0.000346551
0.000327997
0.000310956
0.000295275
0.000279347
0.000261273
0.000240909
0.000214824
0.000176452
0.000130204
2.41521e-05
5.79237e-05
8.84954e-05
0.000114169
0.000134714
0.000151851
0.00016781
0.000184258
0.000202232
0.000222266
0.000244375
0.000268038
0.0002923
0.000316107
0.000338507
0.000358598
0.000375639
0.000389104
0.000398642
0.000404157
0.000405559
0.000402773
0.000395945
0.000385409
0.000370867
0.000352782
0.000333075
0.000314344
0.000297731
0.000282263
0.000265023
0.000245132
0.000219013
0.000180171
0.000133663
2.48057e-05
5.85387e-05
8.89328e-05
0.000114322
0.000134505
0.000151263
0.000166835
0.000182878
0.00020042
0.000220001
0.000241663
0.000264926
0.000288875
0.000312563
0.000335017
0.000355296
0.000372639
0.000386518
0.000396606
0.000402852
0.000405241
0.000403813
0.00039883
0.00039024
0.000377389
0.000360285
0.000340312
0.000320083
0.000301758
0.000285583
0.000268437
0.000248877
0.000222964
0.000184008
0.000137396
2.54895e-05