/*--------------------------------*- C++ -*----------------------------------*\
| =========                 |                                                 |
| \\      /  F ield         | OpenFOAM: The Open Source CFD Toolbox           |
|  \\    /   O peration     | Version:  v1906                                 |
|   \\  /    A nd           | Web:      www.OpenFOAM.com                      |
|    \\/     M anipulation  |                                                 |
\*---------------------------------------------------------------------------*/
FoamFile
{
    version     2.0;
    format      ascii;
    class       volScalarField;
    location    "32";
    object      nut;
}
// * * * * * * * * * * * * * * * * * * * * * * * * * * * * * * * * * * * * * //

dimensions      [0 2 -1 0 0 0 0];


internalField   nonuniform List<scalar> 
78750
(
2.01305e-07
4.08967e-06
4.21935e-06
4.10958e-06
3.91379e-06
3.69338e-06
3.48294e-06
3.29182e-06
3.11866e-06
2.96107e-06
2.81746e-06
2.68839e-06
2.57416e-06
2.47432e-06
2.38787e-06
2.31339e-06
2.24913e-06
2.19324e-06
2.14382e-06
2.09893e-06
2.05665e-06
2.01487e-06
1.97136e-06
1.92392e-06
1.87025e-06
1.80801e-06
1.73449e-06
1.64448e-06
1.53466e-06
1.3981e-06
1.22711e-06
1.01093e-06
7.45561e-07
4.61558e-07
8.07824e-09
1.91205e-08
2.86003e-06
5.90239e-06
9.79383e-06
1.21556e-05
1.34843e-05
1.49785e-05
1.65344e-05
1.78251e-05
1.8367e-05
1.79734e-05
1.76348e-05
1.73411e-05
1.70828e-05
1.68557e-05
1.6653e-05
1.64678e-05
1.62948e-05
1.61248e-05
1.59527e-05
1.57744e-05
1.5574e-05
1.53371e-05
1.5056e-05
1.47227e-05
1.43252e-05
1.38448e-05
1.32564e-05
1.25335e-05
9.29052e-06
5.99789e-06
3.9454e-06
3.22853e-06
3.20258e-06
2.23155e-08
2.80667e-08
3.02202e-06
5.70814e-06
5.9652e-06
5.51871e-06
5.23594e-06
5.40677e-06
6.2844e-06
7.63776e-06
7.29032e-06
7.03438e-06
6.85178e-06
6.72984e-06
6.66199e-06
6.64401e-06
6.67248e-06
6.74455e-06
6.85868e-06
7.01407e-06
7.21081e-06
7.44967e-06
7.73101e-06
8.05373e-06
8.41407e-06
8.80383e-06
9.20753e-06
9.14987e-06
8.27265e-06
6.99169e-06
5.59861e-06
4.41753e-06
3.78256e-06
4.39098e-06
3.05487e-06
3.03099e-08
1.47088e-08
3.24733e-06
7.42397e-06
7.53127e-06
6.21874e-06
5.27032e-06
4.75366e-06
4.56549e-06
4.58133e-06
4.62903e-06
4.35675e-06
3.8083e-06
3.37592e-06
3.06425e-06
2.85619e-06
2.72352e-06
2.63678e-06
2.57164e-06
2.5128e-06
2.45586e-06
2.40717e-06
2.38476e-06
2.4192e-06
2.55265e-06
2.83292e-06
2.91791e-06
2.86822e-06
2.85482e-06
2.81136e-06
2.68769e-06
2.52945e-06
2.57007e-06
3.62296e-06
2.81504e-06
3.54592e-08
1.12092e-08
2.04268e-06
5.577e-06
6.34545e-06
5.35598e-06
4.00637e-06
2.97497e-06
2.19438e-06
1.65444e-06
1.37011e-06
1.36411e-06
1.65527e-06
2.20738e-06
2.9215e-06
3.68636e-06
4.40201e-06
4.98257e-06
5.36803e-06
5.53148e-06
5.46852e-06
5.18513e-06
4.69512e-06
4.02531e-06
3.22164e-06
2.36007e-06
1.58453e-06
1.09783e-06
9.92173e-07
1.17004e-06
1.48104e-06
1.83158e-06
2.35106e-06
4.1376e-06
2.28014e-06
4.23268e-08
7.54912e-09
1.71226e-06
4.21293e-06
4.77393e-06
3.39518e-06
2.34951e-06
1.71617e-06
1.38335e-06
1.3461e-06
1.64339e-06
2.29906e-06
3.2871e-06
4.55939e-06
6.05947e-06
7.69055e-06
9.27453e-06
1.00153e-05
1.04624e-05
1.07338e-05
1.08273e-05
1.07344e-05
1.04392e-05
9.23122e-06
7.55774e-06
5.73666e-06
3.94398e-06
2.37916e-06
1.25261e-06
7.0442e-07
6.58443e-07
9.19023e-07
1.44799e-06
3.06007e-06
2.03449e-06
4.65784e-08
6.05368e-09
1.37409e-06
3.38873e-06
3.86428e-06
2.77608e-06
1.91816e-06
1.46581e-06
1.34955e-06
1.58202e-06
2.18665e-06
3.17472e-06
4.56001e-06
6.38911e-06
8.64623e-06
9.78919e-06
1.04233e-05
1.09105e-05
1.12625e-05
1.14862e-05
1.15829e-05
1.15473e-05
1.13676e-05
1.1025e-05
1.01037e-05
7.64966e-06
5.39358e-06
3.50157e-06
2.07685e-06
1.20241e-06
8.47704e-07
8.98114e-07
1.34472e-06
3.10242e-06
1.77676e-06
5.11855e-08
4.59002e-09
1.23032e-06
2.70754e-06
3.08877e-06
1.95098e-06
1.3939e-06
1.19967e-06
1.32555e-06
1.78102e-06
2.58781e-06
3.76581e-06
5.32454e-06
7.24763e-06
9.41522e-06
1.09765e-05
1.1624e-05
1.21433e-05
1.25373e-05
1.28048e-05
1.29398e-05
1.29313e-05
1.27635e-05
1.22251e-05
1.00703e-05
7.77123e-06
5.59344e-06
3.69786e-06
2.23552e-06
1.29253e-06
8.47618e-07
8.01902e-07
1.15479e-06
2.77899e-06
1.69562e-06
5.40335e-08
3.70469e-09
1.08726e-06
2.22718e-06
2.34965e-06
1.57234e-06
1.27907e-06
1.30578e-06
1.63786e-06
2.29925e-06
3.32237e-06
4.73181e-06
6.54113e-06
8.73623e-06
1.08739e-05
1.16161e-05
1.22474e-05
1.27718e-05
1.31918e-05
1.35063e-05
1.37093e-05
1.37889e-05
1.37267e-05
1.34975e-05
1.11675e-05
8.5627e-06
6.17481e-06
4.1331e-06
2.55274e-06
1.50828e-06
9.76286e-07
8.5778e-07
1.17325e-06
2.91548e-06
1.5989e-06
5.72699e-08
2.78205e-09
1.03281e-06
1.8448e-06
1.84781e-06
1.35584e-06
1.23491e-06
1.37955e-06
1.7848e-06
2.47425e-06
3.47291e-06
4.79463e-06
6.44192e-06
8.40549e-06
1.0555e-05
1.1564e-05
1.22026e-05
1.27341e-05
1.31592e-05
1.34783e-05
1.36887e-05
1.37841e-05
1.37529e-05
1.25098e-05
1.0301e-05
8.06211e-06
5.96586e-06
4.11998e-06
2.64365e-06
1.62418e-06
1.0717e-06
9.10771e-07
1.18229e-06
2.92995e-06
1.58145e-06
5.93081e-08
1.9022e-09
9.47535e-07
1.50076e-06
1.53704e-06
1.24541e-06
1.22683e-06
1.42822e-06
1.85848e-06
2.54703e-06
3.52041e-06
4.79103e-06
6.36012e-06
8.22639e-06
1.03298e-05
1.19586e-05
1.26344e-05
1.31836e-05
1.36078e-05
1.39094e-05
1.40907e-05
1.41515e-05
1.38176e-05
1.1731e-05
9.57662e-06
7.5429e-06
5.66225e-06
3.99325e-06
2.63356e-06
1.67453e-06
1.14283e-06
9.78849e-07
1.25079e-06
3.11256e-06
1.55893e-06
6.17101e-08
1.25893e-09
7.45099e-07
1.24489e-06
1.26042e-06
1.17926e-06
1.29279e-06
1.59535e-06
2.10696e-06
2.84774e-06
3.82006e-06
5.00592e-06
6.38554e-06
7.9627e-06
9.76369e-06
1.17434e-05
1.33332e-05
1.38521e-05
1.42172e-05
1.44314e-05
1.45027e-05
1.44421e-05
1.25251e-05
1.04194e-05
8.47257e-06
6.74459e-06
5.19409e-06
3.79962e-06
2.61363e-06
1.7318e-06
1.21879e-06
1.04722e-06
1.30784e-06
3.20313e-06
1.57652e-06
6.39621e-08
9.67968e-10
6.49281e-07
1.14616e-06
1.17298e-06
1.24391e-06
1.46996e-06
1.86108e-06
2.43047e-06
3.17819e-06
4.08714e-06
5.13938e-06
6.34032e-06
7.72699e-06
9.34672e-06
1.12035e-05
1.31727e-05
1.49367e-05
1.58915e-05
1.60031e-05
1.5434e-05
1.365e-05
1.13857e-05
9.15118e-06
7.23665e-06
5.68938e-06
4.42401e-06
3.34188e-06
2.41259e-06
1.69151e-06
1.25548e-06
1.11191e-06
1.39095e-06
3.38742e-06
1.59083e-06
6.70464e-08
8.29852e-10
6.28052e-07
1.13276e-06
1.17275e-06
1.3374e-06
1.6367e-06
2.08317e-06
2.68445e-06
3.43557e-06
4.32727e-06
5.36544e-06
6.58339e-06
8.03393e-06
9.75832e-06
1.17299e-05
1.37863e-05
1.56078e-05
1.68048e-05
1.70597e-05
1.62121e-05
1.43254e-05
1.17688e-05
9.12121e-06
6.8495e-06
5.11541e-06
3.85342e-06
2.91656e-06
2.18178e-06
1.61646e-06
1.26707e-06
1.15989e-06
1.45805e-06
3.52403e-06
1.62399e-06
7.07894e-08
7.53728e-10
6.12392e-07
1.08489e-06
1.20045e-06
1.43296e-06
1.79709e-06
2.30261e-06
2.94992e-06
3.73366e-06
4.66114e-06
5.76953e-06
7.12555e-06
8.80388e-06
1.08421e-05
1.31705e-05
1.55532e-05
1.76225e-05
1.90114e-05
1.94516e-05
1.87698e-05
1.68915e-05
1.39865e-05
1.0637e-05
7.58454e-06
5.23995e-06
3.62132e-06
2.56814e-06
1.89203e-06
1.45866e-06
1.22448e-06
1.18777e-06
1.53873e-06
3.77189e-06
1.6447e-06
7.55124e-08
7.22354e-10
6.49095e-07
1.13562e-06
1.31341e-06
1.61582e-06
2.04811e-06
2.60576e-06
3.28084e-06
4.08073e-06
5.04819e-06
6.2657e-06
7.84214e-06
9.88175e-06
1.24186e-05
1.53165e-05
1.82236e-05
2.06936e-05
2.2374e-05
2.30544e-05
2.25842e-05
2.08114e-05
1.76858e-05
1.36111e-05
9.53931e-06
6.27032e-06
4.00091e-06
2.57152e-06
1.74531e-06
1.3163e-06
1.1522e-06
1.18621e-06
1.60643e-06
4.07206e-06
1.66263e-06
7.99974e-08
6.3168e-10
6.95386e-07
1.25363e-06
1.44123e-06
1.73644e-06
2.13663e-06
2.63339e-06
3.23609e-06
3.98867e-06
4.97426e-06
6.31049e-06
8.14209e-06
1.06135e-05
1.37754e-05
1.74213e-05
2.10338e-05
2.40306e-05
2.60562e-05
2.69733e-05
2.66971e-05
2.50778e-05
2.1911e-05
1.7307e-05
1.22112e-05
7.86181e-06
4.7796e-06
2.8394e-06
1.74306e-06
1.22262e-06
1.07865e-06
1.17689e-06
1.69322e-06
4.50734e-06
1.66168e-06
8.34168e-08
4.68161e-10
6.91232e-07
1.20523e-06
1.4079e-06
1.65446e-06
1.97926e-06
2.4043e-06
2.97154e-06
3.74966e-06
4.83332e-06
6.34633e-06
8.44607e-06
1.12952e-05
1.49337e-05
1.90609e-05
2.3013e-05
2.61523e-05
2.81878e-05
2.90883e-05
2.88805e-05
2.75096e-05
2.47643e-05
2.04687e-05
1.50912e-05
9.91149e-06
5.96725e-06
3.40906e-06
1.93962e-06
1.23219e-06
1.03555e-06
1.16068e-06
1.76335e-06
4.88648e-06
1.6582e-06
8.59952e-08
5.36442e-10
6.2348e-07
1.01096e-06
1.26489e-06
1.51984e-06
1.85401e-06
2.32603e-06
2.99786e-06
3.94054e-06
5.2407e-06
7.01125e-06
9.38936e-06
1.24796e-05
1.62036e-05
2.0157e-05
2.37374e-05
2.64934e-05
2.82474e-05
2.89759e-05
2.86955e-05
2.7387e-05
2.49555e-05
2.13042e-05
1.65968e-05
1.15617e-05
7.221e-06
4.14936e-06
2.28912e-06
1.34383e-06
1.04014e-06
1.15255e-06
1.81926e-06
5.15837e-06
1.65075e-06
8.91021e-08
7.03596e-10
4.92406e-07
9.06531e-07
1.26063e-06
1.64352e-06
2.14542e-06
2.83511e-06
3.77083e-06
5.01658e-06
6.65808e-06
8.80042e-06
1.15198e-05
1.47578e-05
1.8242e-05
2.15789e-05
2.44507e-05
2.66798e-05
2.81602e-05
2.87922e-05
2.84647e-05
2.70627e-05
2.45132e-05
2.09184e-05
1.66253e-05
1.21412e-05
8.03874e-06
4.83108e-06
2.70841e-06
1.53844e-06
1.09685e-06
1.15413e-06
1.83939e-06
5.28573e-06
1.64794e-06
9.29683e-08
8.39816e-10
5.28418e-07
1.02522e-06
1.54656e-06
2.15073e-06
2.90224e-06
3.85251e-06
5.05699e-06
6.5923e-06
8.5448e-06
1.09552e-05
1.3745e-05
1.67171e-05
1.96634e-05
2.24404e-05
2.49318e-05
2.6997e-05
2.84623e-05
2.91304e-05
2.87959e-05
2.72545e-05
2.44017e-05
2.0484e-05
1.61269e-05
1.193e-05
8.21844e-06
5.20296e-06
3.04535e-06
1.75056e-06
1.19489e-06
1.182e-06
1.85535e-06
5.36714e-06
1.64681e-06
9.66736e-08
1.04642e-09
7.22315e-07
1.36869e-06
2.0552e-06
2.82666e-06
3.72798e-06
4.81389e-06
6.15432e-06
7.80896e-06
9.7745e-06
1.19721e-05
1.43304e-05
1.68464e-05
1.95087e-05
2.22058e-05
2.47337e-05
2.6866e-05
2.83957e-05
2.91246e-05
2.88427e-05
2.73168e-05
2.43914e-05
2.0319e-05
1.58576e-05
1.17299e-05
8.2268e-06
5.39889e-06
3.29638e-06
1.95183e-06
1.3175e-06
1.23593e-06
1.87414e-06
5.43196e-06
1.65645e-06
9.92254e-08
1.34915e-09
9.79449e-07
1.74438e-06
2.46973e-06
3.23441e-06
4.10037e-06
5.12107e-06
6.32583e-06
7.70325e-06
9.24919e-06
1.10476e-05
1.32363e-05
1.58643e-05
1.87911e-05
2.17298e-05
2.43884e-05
2.65595e-05
2.81002e-05
2.88696e-05
2.86863e-05
2.73067e-05
2.45076e-05
2.04597e-05
1.59436e-05
1.17916e-05
8.35302e-06
5.61537e-06
3.5446e-06
2.16112e-06
1.46244e-06
1.31876e-06
1.91704e-06
5.51971e-06
1.68032e-06
1.00848e-07
1.74921e-09
1.0539e-06
1.85e-06
2.52316e-06
3.17754e-06
3.88272e-06
4.67807e-06
5.59545e-06
6.70542e-06
8.14662e-06
1.00798e-05
1.25865e-05
1.55709e-05
1.87517e-05
2.17913e-05
2.44384e-05
2.65504e-05
2.80336e-05
2.87829e-05
2.86491e-05
2.74053e-05
2.479e-05
2.08656e-05
1.63484e-05
1.21449e-05
8.69182e-06
5.97904e-06
3.89913e-06
2.44653e-06
1.65739e-06
1.43363e-06
1.97018e-06
5.59483e-06
1.73048e-06
1.03221e-07
2.19804e-09
8.88595e-07
1.62919e-06
2.25069e-06
2.8207e-06
3.41715e-06
4.11814e-06
5.02378e-06
6.26136e-06
7.95956e-06
1.02001e-05
1.29587e-05
1.6069e-05
1.92604e-05
2.22554e-05
2.4843e-05
2.68843e-05
2.82771e-05
2.89208e-05
2.86936e-05
2.74052e-05
2.48126e-05
2.09427e-05
1.64535e-05
1.22708e-05
8.88516e-06
6.27559e-06
4.26796e-06
2.79586e-06
1.92095e-06
1.6051e-06
2.06709e-06
5.68692e-06
1.80451e-06
1.08307e-07
2.60565e-09
6.8126e-07
1.31706e-06
1.92635e-06
2.53865e-06
3.2378e-06
4.12619e-06
5.30864e-06
6.87595e-06
8.88373e-06
1.13282e-05
1.41276e-05
1.71244e-05
2.01149e-05
2.28943e-05
2.52921e-05
2.71787e-05
2.8448e-05
2.89957e-05
2.87065e-05
2.73925e-05
2.47943e-05
2.08971e-05
1.63346e-05
1.20974e-05
8.7564e-06
6.29521e-06
4.46101e-06
3.09188e-06
2.20465e-06
1.8253e-06
2.2325e-06
5.88265e-06
1.89031e-06
1.17145e-07
2.94921e-09
5.73489e-07
1.17103e-06
1.87003e-06
2.68736e-06
3.67753e-06
4.90609e-06
6.42857e-06
8.27814e-06
1.04562e-05
1.29231e-05
1.55924e-05
1.83378e-05
2.10157e-05
2.34925e-05
2.56563e-05
2.74073e-05
2.86375e-05
2.92139e-05
2.8975e-05
2.76658e-05
2.49456e-05
2.07784e-05
1.59197e-05
1.15248e-05
8.20846e-06
5.9141e-06
4.32483e-06
3.18907e-06
2.41404e-06
2.05393e-06
2.49333e-06
6.42633e-06
1.94064e-06
1.27952e-07
3.42698e-09
6.00886e-07
1.28594e-06
2.17557e-06
3.26079e-06
4.5417e-06
6.03598e-06
7.76984e-06
9.76154e-06
1.20014e-05
1.44368e-05
1.69764e-05
1.95144e-05
2.19577e-05
2.42335e-05
2.62758e-05
2.80021e-05
2.92909e-05
2.99633e-05
2.9779e-05
2.8361e-05
2.52321e-05
2.0404e-05
1.49936e-05
1.04116e-05
7.19513e-06
5.14409e-06
3.8665e-06
3.05596e-06
2.51105e-06
2.2905e-06
2.92783e-06
7.37805e-06
1.92143e-06
1.35458e-07
4.15484e-09
7.14373e-07
1.53904e-06
2.58866e-06
3.82495e-06
5.23501e-06
6.84547e-06
8.69628e-06
1.07994e-05
1.31119e-05
1.55455e-05
1.80044e-05
2.04151e-05
2.27288e-05
2.49052e-05
2.6894e-05
2.86129e-05
2.99297e-05
3.06368e-05
3.04309e-05
2.88191e-05
2.5188e-05
1.96461e-05
1.37292e-05
9.04054e-06
5.97505e-06
4.19218e-06
3.25292e-06
2.80251e-06
2.56279e-06
2.60076e-06
3.65126e-06
7.72222e-06
1.84409e-06
1.36028e-07
4.99511e-09
8.15077e-07
1.72493e-06
2.82128e-06
4.07706e-06
5.5199e-06
7.20861e-06
9.18137e-06
1.14144e-05
1.38204e-05
1.62878e-05
1.87229e-05
2.10611e-05
2.32596e-05
2.52857e-05
2.71006e-05
2.86383e-05
2.97846e-05
3.03466e-05
3.0026e-05
2.83367e-05
2.46781e-05
1.91054e-05
1.30745e-05
8.25927e-06
5.15754e-06
3.45524e-06
2.71647e-06
2.5422e-06
2.61067e-06
2.97867e-06
4.581e-06
6.96032e-06
1.76527e-06
1.31518e-07
5.67688e-09
8.56303e-07
1.78954e-06
2.89398e-06
4.17781e-06
5.70408e-06
7.54053e-06
9.70577e-06
1.21359e-05
1.46977e-05
1.72434e-05
1.96608e-05
2.18864e-05
2.38928e-05
2.56679e-05
2.71914e-05
2.84128e-05
2.92342e-05
2.9489e-05
2.89431e-05
2.7256e-05
2.40283e-05
1.92061e-05
1.3597e-05
8.6091e-06
5.13117e-06
3.15435e-06
2.31181e-06
2.21573e-06
2.53175e-06
3.25235e-06
5.35917e-06
6.2438e-06
1.71656e-06
1.2729e-07
6.13553e-09
8.82432e-07
1.83967e-06
2.9926e-06
4.37743e-06
6.06878e-06
8.12297e-06
1.05213e-05
1.31441e-05
1.58105e-05
1.83585e-05
2.06905e-05
2.2766e-05
2.45742e-05
2.61102e-05
2.7354e-05
2.82546e-05
2.87211e-05
2.86181e-05
2.77805e-05
2.60296e-05
2.32409e-05
1.94415e-05
1.48593e-05
1.01011e-05
6.11884e-06
3.51127e-06
2.20909e-06
1.86871e-06
2.17799e-06
3.11395e-06
5.53124e-06
5.94742e-06
1.70998e-06
1.27338e-07
6.45005e-09
9.22229e-07
1.91138e-06
3.1184e-06
4.60046e-06
6.4341e-06
8.65541e-06
1.1205e-05
1.39216e-05
1.66087e-05
1.9112e-05
2.13461e-05
2.32772e-05
2.48982e-05
2.62071e-05
2.71885e-05
2.77988e-05
2.79608e-05
2.75663e-05
2.65017e-05
2.46929e-05
2.2181e-05
1.91545e-05
1.57604e-05
1.19975e-05
8.09475e-06
4.80584e-06
2.73245e-06
1.82923e-06
1.76977e-06
2.50366e-06
4.77368e-06
5.94061e-06
1.72879e-06
1.32911e-07
6.78781e-09
9.52439e-07
1.95107e-06
3.18145e-06
4.72489e-06
6.66425e-06
9.02202e-06
1.17074e-05
1.45234e-05
1.72473e-05
1.97142e-05
2.18409e-05
2.36056e-05
2.50163e-05
2.60862e-05
2.6814e-05
2.71692e-05
2.70897e-05
2.6485e-05
2.5265e-05
2.33964e-05
2.10189e-05
1.84304e-05
1.58447e-05
1.32069e-05
1.02403e-05
6.97091e-06
4.14768e-06
2.44486e-06
1.76901e-06
1.97832e-06
3.57621e-06
6.13698e-06
1.75315e-06
1.43329e-07
7.33098e-09
9.59258e-07
1.95543e-06
3.21855e-06
4.85512e-06
6.95156e-06
9.50622e-06
1.2377e-05
1.53117e-05
1.80599e-05
2.04642e-05
2.24674e-05
2.40734e-05
2.53075e-05
2.61915e-05
2.67272e-05
2.68831e-05
2.65938e-05
2.57641e-05
2.43102e-05
2.22373e-05
1.97726e-05
1.73099e-05
1.51537e-05
1.33106e-05
1.14574e-05
9.11945e-06
6.31308e-06
3.88156e-06
2.44384e-06
2.03786e-06
2.93389e-06
6.68144e-06
1.83324e-06
1.56979e-07
8.31032e-09
9.59922e-07
1.97396e-06
3.317e-06
5.11005e-06
7.4244e-06
1.02058e-05
1.32384e-05
1.62238e-05
1.89229e-05
2.1223e-05
2.31079e-05
2.46042e-05
2.5742e-05
2.65357e-05
2.69727e-05
2.7e-05
2.65232e-05
2.54102e-05
2.35575e-05
2.10317e-05
1.82393e-05
1.57561e-05
1.39199e-05
1.26795e-05
1.16855e-05
1.04024e-05
8.36252e-06
5.7981e-06
3.70172e-06
2.688e-06
3.09826e-06
7.56937e-06
2.01924e-06
1.70593e-07
9.87234e-09
9.72365e-07
2.03587e-06
3.5025e-06
5.49182e-06
8.03753e-06
1.1013e-05
1.41364e-05
1.71039e-05
1.97253e-05
2.1941e-05
2.37653e-05
2.52321e-05
2.63631e-05
2.71533e-05
2.75616e-05
2.74961e-05
2.67991e-05
2.52506e-05
2.26972e-05
1.93577e-05
1.60103e-05
1.34769e-05
1.20342e-05
1.14749e-05
1.13481e-05
1.10456e-05
9.86893e-06
7.61024e-06
5.18519e-06
3.71798e-06
3.94349e-06
9.0968e-06
2.22258e-06
1.78022e-07
1.19535e-08
9.98594e-07
2.1347e-06
3.74824e-06
5.94341e-06
8.7057e-06
1.18426e-05
1.50341e-05
1.79948e-05
2.05798e-05
2.27656e-05
2.45822e-05
2.60637e-05
2.72217e-05
2.80301e-05
2.84119e-05
2.82177e-05
2.71872e-05
2.49543e-05
2.13444e-05
1.69802e-05
1.31873e-05
1.08413e-05
9.97855e-06
1.02333e-05
1.10728e-05
1.17002e-05
1.11531e-05
9.12637e-06
6.6085e-06
4.98041e-06
5.42839e-06
1.06509e-05
2.32886e-06
1.74727e-07
1.42189e-08
1.03333e-06
2.25205e-06
4.01275e-06
6.39754e-06
9.35253e-06
1.26387e-05
1.59054e-05
1.88737e-05
2.14307e-05
2.358e-05
2.53659e-05
2.6825e-05
2.79629e-05
2.87377e-05
2.90393e-05
2.86541e-05
2.72123e-05
2.42158e-05
1.96001e-05
1.45289e-05
1.06437e-05
8.59978e-06
8.22506e-06
9.13193e-06
1.07535e-05
1.20666e-05
1.19415e-05
1.01903e-05
7.91035e-06
6.54894e-06
7.67826e-06
1.02966e-05
2.31038e-06
1.62855e-07
1.62164e-08
1.07157e-06
2.36755e-06
4.24786e-06
6.77778e-06
9.88611e-06
1.33018e-05
1.66391e-05
1.96146e-05
2.21357e-05
2.42269e-05
2.59426e-05
2.73223e-05
2.83703e-05
2.90403e-05
2.92126e-05
2.86527e-05
2.69549e-05
2.3597e-05
1.85598e-05
1.31554e-05
9.09425e-06
6.98209e-06
6.63817e-06
7.75876e-06
9.82021e-06
1.16846e-05
1.21074e-05
1.0934e-05
9.24209e-06
8.49885e-06
1.04727e-05
9.05779e-06
2.25157e-06
1.50603e-07
1.75334e-08
1.10492e-06
2.45702e-06
4.41215e-06
7.03909e-06
1.02771e-05
1.38289e-05
1.72553e-05
2.02492e-05
2.27306e-05
2.47427e-05
2.6353e-05
2.7609e-05
2.85222e-05
2.90557e-05
2.91078e-05
2.84814e-05
2.68396e-05
2.37227e-05
1.89573e-05
1.34484e-05
8.86738e-06
6.14129e-06
5.25925e-06
6.00496e-06
8.04796e-06
1.04214e-05
1.17088e-05
1.14444e-05
1.05731e-05
1.05751e-05
1.28348e-05
8.3397e-06
2.22661e-06
1.43871e-07
1.81672e-08
1.13305e-06
2.52042e-06
4.51676e-06
7.21521e-06
1.05785e-05
1.42745e-05
1.77918e-05
2.07945e-05
2.32201e-05
2.51364e-05
2.6629e-05
2.7759e-05
2.85492e-05
2.89772e-05
2.89668e-05
2.83747e-05
2.69683e-05
2.44136e-05
2.04267e-05
1.52691e-05
1.01607e-05
6.44283e-06
4.56195e-06
4.38695e-06
5.74753e-06
8.15264e-06
1.04226e-05
1.14212e-05
1.15525e-05
1.22276e-05
1.41839e-05
8.14676e-06
2.2483e-06
1.43882e-07
1.82979e-08
1.15436e-06
2.55601e-06
4.56624e-06
7.31705e-06
1.07997e-05
1.46416e-05
1.82527e-05
2.12703e-05
2.36528e-05
2.54945e-05
2.69009e-05
2.79472e-05
2.86669e-05
2.90486e-05
2.90332e-05
2.85125e-05
2.73294e-05
2.52836e-05
2.21683e-05
1.78956e-05
1.28897e-05
8.27337e-06
5.10507e-06
3.67378e-06
3.86017e-06
5.42871e-06
7.90964e-06
1.02054e-05
1.16462e-05
1.30497e-05
1.47667e-05
8.22622e-06
2.30137e-06
1.49733e-07
1.81952e-08
1.16729e-06
2.56778e-06
4.58254e-06
7.39108e-06
1.10083e-05
1.50056e-05
1.87067e-05
2.17325e-05
2.40737e-05
2.58564e-05
2.72066e-05
2.8212e-05
2.89135e-05
2.93054e-05
2.93363e-05
2.89116e-05
2.7905e-05
2.61923e-05
2.36786e-05
2.02995e-05
1.60801e-05
1.14006e-05
7.1886e-06
4.35465e-06
3.16917e-06
3.46813e-06
5.05689e-06
7.5672e-06
1.02261e-05
1.27324e-05
1.48063e-05
8.37196e-06
2.36384e-06
1.60237e-07
1.81682e-08
1.17652e-06
2.57352e-06
4.60494e-06
7.49619e-06
1.12655e-05
1.54027e-05
1.91558e-05
2.21621e-05
2.44586e-05
2.6201e-05
2.75294e-05
2.85366e-05
2.92652e-05
2.97104e-05
2.98183e-05
2.94936e-05
2.86191e-05
2.70912e-05
2.48739e-05
2.20182e-05
1.85909e-05
1.46227e-05
1.03416e-05
6.49158e-06
3.91932e-06
2.88975e-06
3.21948e-06
4.79104e-06
7.45032e-06
1.08998e-05
1.41588e-05
8.42479e-06
2.40663e-06
1.74436e-07
1.84427e-08
1.18341e-06
2.58054e-06
4.64722e-06
7.64772e-06
1.15811e-05
1.58367e-05
1.96063e-05
2.25726e-05
2.48261e-05
2.65471e-05
2.78818e-05
2.89207e-05
2.97007e-05
3.02107e-05
3.03931e-05
3.0149e-05
2.93595e-05
2.7915e-05
2.57877e-05
2.31049e-05
2.0084e-05
1.68257e-05
1.32412e-05
9.39286e-06
5.9238e-06
3.65372e-06
2.76104e-06
3.15308e-06
4.82677e-06
8.04588e-06
1.26517e-05
8.37472e-06
2.41402e-06
1.91425e-07
1.91863e-08
1.18868e-06
2.59496e-06
4.72372e-06
7.87069e-06
1.19872e-05
1.63371e-05
2.00853e-05
2.2995e-05
2.52122e-05
2.69325e-05
2.82993e-05
2.93947e-05
3.02461e-05
3.0833e-05
3.10884e-05
3.0901e-05
3.01338e-05
2.86466e-05
2.6416e-05
2.36447e-05
2.06991e-05
1.78371e-05
1.49828e-05
1.18533e-05
8.44059e-06
5.41494e-06
3.45008e-06
2.76527e-06
3.35703e-06
5.53882e-06
1.03685e-05
8.31051e-06
2.38842e-06
2.09497e-07
2.054e-08
1.19528e-06
2.62613e-06
4.85037e-06
8.18354e-06
1.24902e-05
1.6894e-05
2.05831e-05
2.34275e-05
2.56208e-05
2.73621e-05
2.87848e-05
2.99579e-05
3.08958e-05
3.15654e-05
3.18854e-05
3.17244e-05
3.09123e-05
2.92706e-05
2.67751e-05
2.37148e-05
2.06108e-05
1.7866e-05
1.5501e-05
1.31729e-05
1.04763e-05
7.4807e-06
4.85776e-06
3.28195e-06
2.96575e-06
4.14541e-06
8.18168e-06
8.28767e-06
2.33919e-06
2.25932e-07
2.25446e-08
1.20559e-06
2.67807e-06
5.02862e-06
8.57401e-06
1.30557e-05
1.74689e-05
2.10786e-05
2.38666e-05
2.6058e-05
2.78455e-05
2.93477e-05
3.06183e-05
3.16576e-05
3.2417e-05
3.27946e-05
3.26268e-05
3.16921e-05
2.97539e-05
2.6793e-05
2.32423e-05
1.98387e-05
1.7116e-05
1.51168e-05
1.34677e-05
1.16074e-05
9.16113e-06
6.43828e-06
4.29358e-06
3.28787e-06
3.73151e-06
6.93632e-06
8.31515e-06
2.285e-06
2.37205e-07
2.50667e-08
1.2204e-06
2.7483e-06
5.24366e-06
9.00691e-06
1.36365e-05
1.80336e-05
2.15731e-05
2.43316e-05
2.65491e-05
2.84075e-05
3.00108e-05
3.13992e-05
3.25591e-05
3.3425e-05
3.3869e-05
3.3682e-05
3.25679e-05
3.02014e-05
2.65728e-05
2.23383e-05
1.85221e-05
1.57674e-05
1.40768e-05
1.3017e-05
1.19306e-05
1.01696e-05
7.72278e-06
5.38936e-06
3.97414e-06
3.97956e-06
6.8095e-06
8.23651e-06
2.22868e-06
2.38861e-07
2.77497e-08
1.23826e-06
2.82815e-06
5.4697e-06
9.43381e-06
1.41789e-05
1.85519e-05
2.20406e-05
2.4791e-05
2.70493e-05
2.89881e-05
3.07012e-05
3.22185e-05
3.35148e-05
3.45079e-05
3.50417e-05
3.48553e-05
3.35569e-05
3.0697e-05
2.62715e-05
2.12296e-05
1.69321e-05
1.40972e-05
1.26451e-05
1.20662e-05
1.16079e-05
1.04558e-05
8.43077e-06
6.23119e-06
4.741e-06
4.67672e-06
7.79425e-06
7.73207e-06
2.14994e-06
2.27549e-07
3.01196e-08
1.257e-06
2.90658e-06
5.67675e-06
9.80795e-06
1.46427e-05
1.89949e-05
2.24427e-05
2.51816e-05
2.74644e-05
2.94608e-05
3.126e-05
3.28856e-05
3.43036e-05
3.5419e-05
3.6054e-05
3.59077e-05
3.45044e-05
3.12608e-05
2.61278e-05
2.02985e-05
1.54595e-05
1.24173e-05
1.1042e-05
1.07842e-05
1.08056e-05
1.01866e-05
8.65361e-06
6.81549e-06
5.55499e-06
5.80006e-06
9.7862e-06
6.94997e-06
2.06134e-06
2.06455e-07
3.1731e-08
1.27339e-06
2.97013e-06
5.83389e-06
1.00875e-05
1.49915e-05
1.93254e-05
2.27244e-05
2.54235e-05
2.7689e-05
2.96958e-05
3.15341e-05
3.32241e-05
3.47255e-05
3.59351e-05
3.66692e-05
3.66223e-05
3.52959e-05
3.20215e-05
2.65924e-05
2.01719e-05
1.46865e-05
1.1168e-05
9.5589e-06
9.35081e-06
9.70381e-06
9.63507e-06
8.70387e-06
7.37234e-06
6.53072e-06
7.3444e-06
1.19903e-05
6.41673e-06
2.00799e-06
1.85325e-07
3.24488e-08
1.28582e-06
3.0123e-06
5.93104e-06
1.0268e-05
1.52303e-05
1.95433e-05
2.28718e-05
2.5491e-05
2.76917e-05
2.96633e-05
3.15014e-05
3.32244e-05
3.47866e-05
3.60814e-05
3.69326e-05
3.70643e-05
3.60222e-05
3.31427e-05
2.8001e-05
2.13623e-05
1.51538e-05
1.08142e-05
8.56338e-06
8.01001e-06
8.43351e-06
8.8954e-06
8.7028e-06
8.01169e-06
7.69539e-06
9.12175e-06
1.3549e-05
6.35581e-06
2.02425e-06
1.71648e-07
3.24215e-08
1.29396e-06
3.03214e-06
5.97011e-06
1.0355e-05
1.53618e-05
1.96435e-05
2.28764e-05
2.53821e-05
2.74869e-05
2.94022e-05
3.1232e-05
3.29939e-05
3.46372e-05
3.60531e-05
3.70791e-05
3.74817e-05
3.68762e-05
3.46699e-05
3.02962e-05
2.39605e-05
1.71872e-05
1.17768e-05
8.47754e-06
7.1299e-06
7.1785e-06
7.86649e-06
8.4121e-06
8.53539e-06
8.88078e-06
1.08604e-05
1.47366e-05
6.76039e-06
2.12132e-06
1.67003e-07
3.19972e-08
1.2991e-06
3.03506e-06
5.96792e-06
1.03757e-05
1.54096e-05
1.96387e-05
2.27469e-05
2.51114e-05
2.71032e-05
2.89597e-05
3.07945e-05
3.26229e-05
3.4388e-05
3.59782e-05
3.72423e-05
3.79827e-05
3.78725e-05
3.64026e-05
3.29886e-05
2.74272e-05
2.05863e-05
1.4211e-05
9.62862e-06
7.13114e-06
6.36357e-06
6.73432e-06
7.6242e-06
8.53094e-06
9.66749e-06
1.22026e-05
1.5802e-05
7.47441e-06
2.27548e-06
1.69461e-07
3.14811e-08
1.30129e-06
3.02453e-06
5.93561e-06
1.03446e-05
1.53801e-05
1.9526e-05
2.24788e-05
2.46791e-05
2.65482e-05
2.83509e-05
3.02083e-05
3.21316e-05
3.40556e-05
3.58646e-05
3.74164e-05
3.85354e-05
3.89293e-05
3.81479e-05
3.56394e-05
3.10234e-05
2.46405e-05
1.77942e-05
1.20445e-05
8.23724e-06
6.3725e-06
5.97268e-06
6.58468e-06
7.80943e-06
9.605e-06
1.27303e-05
1.65532e-05
8.26879e-06
2.44304e-06
1.76578e-07
3.11405e-08
1.30137e-06
3.00639e-06
5.88979e-06
1.02885e-05
1.52992e-05
1.93232e-05
2.20842e-05
2.40952e-05
2.58306e-05
2.75814e-05
2.9473e-05
3.15086e-05
3.36115e-05
3.56607e-05
3.7519e-05
3.90171e-05
3.98816e-05
3.96973e-05
3.79437e-05
3.41842e-05
2.84897e-05
2.17446e-05
1.53191e-05
1.03663e-05
7.33409e-06
5.95201e-06
5.86356e-06
6.78956e-06
8.70824e-06
1.22122e-05
1.67448e-05
8.94111e-06
2.5826e-06
1.86329e-07
3.1132e-08
1.29974e-06
2.98463e-06
5.84074e-06
1.02228e-05
1.51812e-05
1.90418e-05
2.15748e-05
2.33734e-05
2.49651e-05
2.66638e-05
2.85955e-05
3.07524e-05
3.30438e-05
3.53397e-05
3.75029e-05
3.93614e-05
4.06451e-05
4.09493e-05
3.97667e-05
3.66483e-05
3.15644e-05
2.51746e-05
1.86268e-05
1.30256e-05
9.04101e-06
6.69478e-06
5.77283e-06
6.06434e-06
7.59361e-06
1.101e-05
1.63756e-05
9.44059e-06
2.67825e-06
1.97537e-07
3.15631e-08
1.29718e-06
2.96346e-06
5.79923e-06
1.01679e-05
1.50527e-05
1.87116e-05
2.09861e-05
2.25554e-05
2.39975e-05
2.56442e-05
2.76177e-05
2.98972e-05
3.23761e-05
3.49131e-05
3.73671e-05
3.95564e-05
4.12014e-05
4.18869e-05
4.10957e-05
3.83732e-05
3.36808e-05
2.76281e-05
2.124e-05
1.54872e-05
1.10057e-05
7.94977e-06
6.27925e-06
5.88354e-06
6.81183e-06
9.75955e-06
1.56471e-05
9.82366e-06
2.73538e-06
2.09429e-07
3.24982e-08
1.29476e-06
2.94684e-06
5.77451e-06
1.01418e-05
1.49404e-05
1.83702e-05
2.03691e-05
2.17051e-05
2.30011e-05
2.4601e-05
2.66204e-05
2.90242e-05
3.169e-05
3.44636e-05
3.71961e-05
3.96891e-05
4.1641e-05
4.26073e-05
4.20359e-05
3.9457e-05
3.48696e-05
2.89547e-05
2.27559e-05
1.71517e-05
1.2618e-05
9.266e-06
7.11939e-06
6.17679e-06
6.55196e-06
8.96271e-06
1.49651e-05
1.01178e-05
2.7634e-06
2.2074e-07
3.39293e-08
1.29329e-06
2.93721e-06
5.77189e-06
1.01538e-05
1.48567e-05
1.80371e-05
1.97554e-05
2.08642e-05
2.20228e-05
2.35812e-05
2.56466e-05
2.81716e-05
3.10195e-05
3.40242e-05
3.7025e-05
3.9799e-05
4.20119e-05
4.31719e-05
4.26715e-05
4.00178e-05
3.52802e-05
2.92858e-05
2.31808e-05
1.78149e-05
1.35088e-05
1.02304e-05
7.94699e-06
6.71196e-06
6.72419e-06
8.76954e-06
1.47602e-05
1.02641e-05
2.7665e-06
2.29669e-07
3.57751e-08
1.29337e-06
2.93652e-06
5.79608e-06
1.02127e-05
1.4814e-05
1.77351e-05
1.91784e-05
2.0072e-05
2.11002e-05
2.2614e-05
2.47128e-05
2.73394e-05
3.03491e-05
3.35681e-05
3.68153e-05
3.98394e-05
4.22649e-05
4.35392e-05
4.29857e-05
4.0092e-05
3.50308e-05
2.88168e-05
2.27261e-05
1.76008e-05
1.3635e-05
1.066e-05
8.53131e-06
7.27859e-06
7.17531e-06
9.13619e-06
1.52459e-05
1.01808e-05
2.74817e-06
2.34781e-07
3.78512e-08
1.29545e-06
2.94516e-06
5.84595e-06
1.03152e-05
1.48143e-05
1.74794e-05
1.86623e-05
1.9353e-05
2.0252e-05
2.17066e-05
2.381e-05
2.65005e-05
2.96299e-05
3.30206e-05
3.64714e-05
3.96994e-05
4.22825e-05
4.36041e-05
4.29247e-05
3.97333e-05
3.43231e-05
2.78848e-05
2.17948e-05
1.68808e-05
1.32465e-05
1.06406e-05
8.82437e-06
7.76684e-06
7.78424e-06
9.94786e-06
1.6288e-05
9.90289e-06
2.71847e-06
2.36313e-07
3.99519e-08
1.2995e-06
2.96138e-06
5.91423e-06
1.04444e-05
1.48371e-05
1.72543e-05
1.81944e-05
1.8696e-05
1.94651e-05
2.0841e-05
2.29119e-05
2.56155e-05
2.88059e-05
3.23061e-05
3.58962e-05
3.92614e-05
4.19364e-05
4.32547e-05
4.24459e-05
3.9032e-05
3.34111e-05
2.68729e-05
2.08265e-05
1.60739e-05
1.2684e-05
1.03917e-05
8.91344e-06
8.16257e-06
8.47307e-06
1.1042e-05
1.74814e-05
9.57109e-06
2.69073e-06
2.36151e-07
4.18907e-08
1.30444e-06
2.98038e-06
5.98571e-06
1.05672e-05
1.48421e-05
1.7025e-05
1.77474e-05
1.80788e-05
1.87201e-05
1.99991e-05
2.2e-05
2.46648e-05
2.7855e-05
3.13989e-05
3.506e-05
3.84954e-05
4.12075e-05
4.25074e-05
4.16372e-05
3.81766e-05
3.25756e-05
2.61147e-05
2.01627e-05
1.54951e-05
1.22136e-05
1.01033e-05
8.8892e-06
8.45683e-06
9.14289e-06
1.2185e-05
1.84329e-05
9.30813e-06
2.67599e-06
2.36555e-07
4.35872e-08
1.30958e-06
2.99913e-06
6.05216e-06
1.06694e-05
1.48169e-05
1.67853e-05
1.73203e-05
1.75049e-05
1.80251e-05
1.91942e-05
2.10946e-05
2.36772e-05
2.68167e-05
3.03504e-05
3.40286e-05
3.74861e-05
4.0206e-05
4.15016e-05
4.0661e-05
3.73312e-05
3.19648e-05
2.57457e-05
1.99414e-05
1.52949e-05
1.19897e-05
9.90468e-06
8.81958e-06
8.62893e-06
9.66819e-06
1.31374e-05
1.90182e-05
9.15564e-06
2.67731e-06
2.38953e-07
4.50395e-08
1.31358e-06
3.014e-06
6.10716e-06
1.0746e-05
1.47666e-05
1.65464e-05
1.69256e-05
1.69889e-05
1.74002e-05
1.84564e-05
2.02378e-05
2.2708e-05
2.57633e-05
2.92471e-05
3.29029e-05
3.63521e-05
3.90686e-05
4.03804e-05
3.96332e-05
3.65416e-05
3.15418e-05
2.56872e-05
2.00988e-05
1.5468e-05
1.20644e-05
9.87878e-06
8.77442e-06
8.68945e-06
9.96976e-06
1.37464e-05
1.93157e-05
9.09512e-06
2.69054e-06
2.43677e-07
4.63303e-08
1.31602e-06
3.02471e-06
6.15208e-06
1.08036e-05
1.47021e-05
1.63146e-05
1.65632e-05
1.65282e-05
1.68489e-05
1.78029e-05
1.94666e-05
2.1815e-05
2.47675e-05
2.81765e-05
3.17843e-05
3.52051e-05
3.79078e-05
3.9237e-05
3.85926e-05
3.57538e-05
3.11518e-05
2.57233e-05
2.04251e-05
1.58736e-05
1.23869e-05
1.00527e-05
8.82623e-06
8.71007e-06
1.008e-05
1.40233e-05
1.94556e-05
9.08284e-06
2.70761e-06
2.50094e-07
4.75836e-08
1.31726e-06
3.03298e-06
6.19119e-06
1.08467e-05
1.46202e-05
1.60747e-05
1.62076e-05
1.60941e-05
1.63466e-05
1.7221e-05
1.87854e-05
2.1023e-05
2.38742e-05
2.72003e-05
3.07458e-05
3.41221e-05
3.67952e-05
3.81222e-05
3.75472e-05
3.49095e-05
3.06539e-05
2.56388e-05
2.06744e-05
1.62945e-05
1.28139e-05
1.03738e-05
9.00712e-06
8.78562e-06
1.01302e-05
1.41299e-05
1.95602e-05
9.07782e-06
2.72096e-06
2.57028e-07
4.88947e-08
1.31808e-06