/*--------------------------------*- C++ -*----------------------------------*\
| =========                 |                                                 |
| \\      /  F ield         | OpenFOAM: The Open Source CFD Toolbox           |
|  \\    /   O peration     | Version:  v1906                                 |
|   \\  /    A nd           | Web:      www.OpenFOAM.com                      |
|    \\/     M anipulation  |                                                 |
\*---------------------------------------------------------------------------*/
FoamFile
{
    version     2.0;
    format      ascii;
    class       volScalarField;
    location    "32";
    object      T;
}
// * * * * * * * * * * * * * * * * * * * * * * * * * * * * * * * * * * * * * //

dimensions      [0 0 0 1 0 0 0];


internalField   nonuniform List<scalar> 
78750
(
299.577
299.167
299.128
299.113
299.104
299.097
299.091
299.086
299.081
299.077
299.072
299.067
299.062
299.057
299.053
299.048
299.043
299.038
299.034
299.029
299.024
299.018
299.013
299.007
299
298.993
298.985
298.976
298.966
298.959
298.97
299.059
299.357
300.027
301.076
299.835
299.56
299.374
299.271
299.217
299.188
299.172
299.161
299.153
299.146
299.14
299.135
299.13
299.125
299.121
299.117
299.113
299.109
299.105
299.101
299.096
299.092
299.087
299.082
299.077
299.072
299.067
299.065
299.068
299.088
299.15
299.317
299.691
300.352
301.341
299.865
299.614
299.415
299.273
299.182
299.131
299.107
299.095
299.088
299.083
299.08
299.079
299.079
299.081
299.083
299.087
299.091
299.095
299.1
299.105
299.11
299.116
299.122
299.131
299.142
299.156
299.177
299.208
299.257
299.341
299.49
299.756
300.196
300.873
301.858
299.895
299.697
299.542
299.423
299.33
299.257
299.201
299.157
299.122
299.095
299.077
299.067
299.065
299.069
299.078
299.088
299.099
299.108
299.115
299.119
299.121
299.12
299.117
299.115
299.116
299.123
299.142
299.18
299.248
299.366
299.564
299.892
300.396
301.12
302.128
299.918
299.756
299.617
299.5
299.397
299.306
299.228
299.17
299.136
299.129
299.147
299.184
299.232
299.282
299.329
299.369
299.401
299.424
299.439
299.445
299.443
299.433
299.414
299.388
299.357
299.327
299.308
299.316
299.374
299.507
299.747
300.129
300.672
301.422
302.447
299.924
299.773
299.639
299.524
299.423
299.342
299.286
299.263
299.274
299.312
299.368
299.431
299.492
299.547
299.592
299.627
299.656
299.677
299.692
299.701
299.705
299.702
299.693
299.676
299.649
299.613
299.572
299.539
299.543
299.627
299.84
300.226
300.8
301.585
302.626
299.933
299.798
299.675
299.571
299.485
299.422
299.389
299.387
299.413
299.455
299.504
299.551
299.592
299.625
299.651
299.673
299.69
299.704
299.715
299.723
299.729
299.732
299.732
299.729
299.724
299.714
299.704
299.702
299.727
299.82
300.034
300.423
301.003
301.795
302.842
299.941
299.819
299.709
299.617
299.544
299.496
299.478
299.486
299.514
299.553
299.595
299.634
299.67
299.7
299.726
299.747
299.766
299.781
299.794
299.803
299.809
299.812
299.813
299.81
299.805
299.798
299.793
299.799
299.835
299.937
300.156
300.55
301.139
301.942
302.994
299.948
299.842
299.746
299.666
299.606
299.572
299.564
299.578
299.606
299.642
299.678
299.711
299.741
299.766
299.788
299.807
299.824
299.839
299.852
299.862
299.871
299.878
299.883
299.887
299.889
299.891
299.897
299.915
299.965
300.08
300.312
300.715
301.309
302.115
303.168
299.956
299.866
299.783
299.714
299.665
299.637
299.631
299.642
299.664
299.691
299.719
299.746
299.77
299.792
299.811
299.829
299.844
299.858
299.871
299.882
299.892
299.901
299.909
299.918
299.926
299.938
299.956
299.99
300.058
300.191
300.438
300.852
301.452
302.262
303.318
299.965
299.891
299.823
299.766
299.724
299.701
299.695
299.703
299.72
299.744
299.769
299.794
299.818
299.839
299.858
299.874
299.89
299.903
299.916
299.927
299.937
299.946
299.956
299.966
299.977
299.994
300.019
300.064
300.148
300.3
300.567
300.996
301.604
302.415
303.471
299.973
299.915
299.859
299.813
299.779
299.76
299.755
299.761
299.775
299.793
299.814
299.834
299.853
299.871
299.887
299.901
299.914
299.925
299.937
299.947
299.957
299.968
299.979
299.992
300.008
300.03
300.064
300.119
300.215
300.383
300.666
301.109
301.726
302.541
303.597
299.98
299.934
299.889
299.852
299.824
299.808
299.803
299.808
299.819
299.834
299.852
299.87
299.887
299.903
299.918
299.931
299.943
299.954
299.964
299.973
299.982
299.992
300.004
300.018
300.036
300.062
300.101
300.164
300.27
300.452
300.75
301.209
301.835
302.653
303.709
299.985
299.948
299.912
299.881
299.858
299.845
299.841
299.846
299.856
299.87
299.886
299.903
299.919
299.935
299.949
299.962
299.973
299.983
299.992
300.001
300.009
300.018
300.028
300.041
300.06
300.088
300.13
300.198
300.31
300.5
300.808
301.278
301.912
302.735
303.793
299.989
299.961
299.932
299.906
299.888
299.877
299.874
299.879
299.889
299.902
299.918
299.935
299.952
299.97
299.986
300.001
300.014
300.026
300.036
300.044
300.051
300.058
300.066
300.077
300.092
300.118
300.16
300.23
300.348
300.543
300.86
301.339
301.98
302.807
303.868
299.993
299.971
299.948
299.928
299.912
299.904
299.902
299.906
299.916
299.93
299.948
299.968
299.989
300.01
300.031
300.049
300.065
300.079
300.09
300.1
300.108
300.115
300.123
300.131
300.145
300.167
300.207
300.276
300.395
300.594
300.915
301.4
302.045
302.875
303.941
299.996
299.98
299.962
299.945
299.932
299.924
299.922
299.927
299.937
299.953
299.974
299.998
300.023
300.048
300.071
300.091
300.108
300.123
300.137
300.148
300.158
300.167
300.177
300.188
300.204
300.228
300.271
300.343
300.466
300.67
300.998
301.489
302.133
302.961
304.032
299.999
299.988
299.975
299.961
299.95
299.944
299.944
299.949
299.962
299.98
300.004
300.029
300.055
300.08
300.102
300.121
300.138
300.153
300.166
300.178
300.19
300.202
300.214
300.229
300.25
300.282
300.332
300.415
300.548
300.762
301.098
301.595
302.238
303.064
304.14
300.001
299.996
299.987
299.978
299.971
299.968
299.97
299.979
299.995
300.015
300.039
300.064
300.087
300.108
300.127
300.144
300.158
300.171
300.184
300.196
300.208
300.221
300.235
300.253
300.278
300.316
300.377
300.473
300.625
300.857
301.207
301.712
302.357
303.183
304.264
300.004
300.003
299.999
299.995
299.993
299.995
300.003
300.017
300.035
300.057
300.08
300.101
300.121
300.138
300.153
300.166
300.179
300.191
300.202
300.214
300.226
300.239
300.254
300.273
300.299
300.339
300.404
300.512
300.681
300.935
301.306
301.827
302.477
303.305
304.388
300.006
300.011
300.012
300.012
300.016
300.024
300.037
300.054
300.073
300.093
300.111
300.128
300.143
300.157
300.17
300.183
300.195
300.208
300.22
300.233
300.246
300.26
300.277
300.297
300.324
300.364
300.43
300.541
300.722
300.997
301.392
301.932
302.591
303.422
304.502
300.009
300.018
300.024
300.029
300.037
300.048
300.062
300.078
300.094
300.109
300.124
300.138
300.151
300.165
300.179
300.193
300.206
300.221
300.235
300.25
300.265
300.282
300.301
300.323
300.352
300.393
300.458
300.568
300.751
301.038
301.454
302.013
302.684
303.515
304.589
300.011
300.024
300.034
300.042
300.051
300.062
300.073
300.086
300.098
300.111
300.125
300.14
300.155
300.17
300.186
300.201
300.216
300.232
300.248
300.264
300.282
300.301
300.323
300.348
300.38
300.423
300.487
300.593
300.773
301.063
301.49
302.066
302.746
303.576
304.642
300.012
300.028
300.04
300.049
300.057
300.066
300.076
300.087
300.1
300.114
300.13
300.146
300.163
300.18
300.196
300.212
300.228
300.243
300.26
300.277
300.295
300.316
300.339
300.368
300.403
300.448
300.511
300.611
300.78
301.061
301.489
302.075
302.763
303.595
304.657
300.013
300.031
300.043
300.053
300.062
300.071
300.082
300.095
300.109
300.125
300.142
300.16
300.177
300.194
300.21
300.226
300.241
300.256
300.272
300.289
300.307
300.328
300.353
300.383
300.422
300.47
300.534
300.627
300.781
301.043
301.458
302.044
302.74
303.578
304.643
300.014
300.033
300.048
300.06
300.071
300.083
300.096
300.111
300.128
300.146
300.164
300.181
300.198
300.215
300.23
300.245
300.26
300.275
300.29
300.306
300.324
300.345
300.37
300.402
300.444
300.496
300.563
300.654
300.794
301.032
301.423
301.998
302.697
303.545
304.621
300.015
300.038
300.056
300.071
300.086
300.102
300.119
300.136
300.155
300.173
300.191
300.208
300.224
300.24
300.256
300.27
300.285
300.3
300.316
300.332
300.35
300.372
300.399
300.434
300.48
300.54
300.615
300.709
300.845
301.065
301.431
301.988
302.679
303.531
304.621
300.017
300.044
300.067
300.086
300.106
300.125
300.144
300.163
300.181
300.2
300.217
300.234
300.251
300.266
300.282
300.297
300.312
300.328
300.344
300.361
300.381
300.404
300.435
300.476
300.533
300.607
300.699
300.808
300.952
301.17
301.526
302.067
302.74
303.584
304.692
300.02
300.051
300.078
300.101
300.123
300.143
300.163
300.183
300.201
300.22
300.237
300.255
300.272
300.288
300.304
300.319
300.335
300.35
300.367
300.385
300.406
300.432
300.467
300.518
300.591
300.69
300.811
300.95
301.118
301.353
301.714
302.242
302.897
303.736
304.853
300.022
300.057
300.086
300.111
300.134
300.155
300.176
300.196
300.216
300.235
300.254
300.272
300.289
300.306
300.322
300.338
300.353
300.369
300.385
300.403
300.424
300.451
300.488
300.546
300.633
300.76
300.923
301.108
301.315
301.578
301.95
302.466
303.109
303.95
305.069
300.023
300.06
300.091
300.118
300.142
300.166
300.188
300.21
300.232
300.252
300.272
300.29
300.308
300.325
300.341
300.357
300.373
300.388
300.404
300.421
300.44
300.464
300.498
300.552
300.641
300.782
300.983
301.227
301.494
301.797
302.187
302.695
303.331
304.176
305.288
300.024
300.064
300.097
300.126
300.153
300.179
300.203
300.227
300.25
300.271
300.291
300.31
300.328
300.345
300.362
300.378
300.394
300.41
300.425
300.441
300.459
300.479
300.506
300.548
300.619
300.744
300.949
301.237
301.577
301.947
302.369
302.88
303.511
304.351
305.449
300.025
300.067
300.103
300.135
300.164
300.192
300.218
300.243
300.266
300.288
300.308
300.328
300.346
300.364
300.381
300.397
300.414
300.43
300.446
300.463
300.481
300.499
300.521
300.551
300.599
300.686
300.848
301.122
301.508
301.961
302.452
302.995
303.632
304.463
305.547
300.027
300.071
300.109
300.143
300.174
300.204
300.231
300.257
300.281
300.303
300.325
300.345
300.363
300.382
300.399
300.416
300.433
300.45
300.467
300.485
300.504
300.524
300.546
300.57
300.602
300.654
300.755
300.956
301.304
301.801
302.39
303.021
303.695
304.521
305.585
300.028
300.075
300.115
300.152
300.185
300.216
300.246
300.273
300.298
300.322
300.344
300.364
300.384
300.402
300.42
300.438
300.455
300.473
300.492
300.511
300.533
300.555
300.579
300.605
300.632
300.666
300.724
300.844
301.089
301.525
302.148
302.88
303.623
304.461
305.502
300.029
300.079
300.122
300.162
300.198
300.231
300.263
300.291
300.318
300.342
300.365
300.386
300.406
300.425
300.444
300.462
300.481
300.5
300.52
300.543
300.568
300.595
300.625
300.657
300.687
300.718
300.758
300.831
300.987
301.308
301.859
302.609
303.401
304.261
305.296
300.031
300.084
300.131
300.173
300.212
300.248
300.281
300.311
300.338
300.363
300.386
300.408
300.429
300.448
300.468
300.487
300.506
300.528
300.551
300.577
300.608
300.645
300.685
300.727
300.766
300.802
300.839
300.896
301.011
301.253
301.709
302.4
303.169
304.021
305.059
300.033
300.09
300.14
300.186
300.227
300.265
300.299
300.33
300.359
300.384
300.408
300.43
300.451
300.471
300.491
300.511
300.532
300.555
300.581
300.613
300.653
300.703
300.76
300.817
300.868
300.912
300.954
301.012
301.118
301.329
301.725
302.336
303.038
303.857
304.914
300.035
300.095
300.149
300.198
300.242
300.281
300.317
300.349
300.378
300.404
300.428
300.451
300.473
300.493
300.513
300.533
300.555
300.579
300.609
300.646
300.696
300.762
300.84
300.919
300.987
301.043
301.098
301.168
301.286
301.498
301.865
302.405
303.05
303.862
304.952
300.037
300.101
300.158
300.209
300.255
300.296
300.332
300.365
300.395
300.422
300.447
300.47
300.491
300.512
300.532
300.552
300.573
300.598
300.627
300.667
300.724
300.803
300.904
301.012
301.109
301.189
301.265
301.358
301.497
301.724
302.079
302.569
303.183
304.014
305.132
300.038
300.105
300.164
300.218
300.265
300.308
300.346
300.379
300.41
300.438
300.463
300.487
300.509
300.53
300.549
300.569
300.589
300.611
300.638
300.675
300.729
300.81
300.925
301.064
301.204
301.326
301.436
301.558
301.723
301.965
302.316
302.777
303.378
304.229
305.362
300.039
300.109
300.17
300.225
300.275
300.319
300.358
300.393
300.424
300.453
300.479
300.503
300.526
300.547
300.567
300.586
300.605
300.624
300.647
300.677
300.72
300.789
300.896
301.048
301.229
301.409
301.572
301.734
301.926
302.184
302.534
302.981
303.576
304.436
305.569
300.04
300.112
300.175
300.232
300.283
300.329
300.369
300.405
300.438
300.467
300.494
300.519
300.542
300.564
300.584
300.603
300.622
300.64
300.66
300.683
300.715
300.764
300.844
300.975
301.164
301.392
301.622
301.843
302.074
302.353
302.707
303.148
303.738
304.595
305.718
300.041
300.115
300.18
300.239
300.292
300.339
300.381
300.418
300.452
300.482
300.51
300.535
300.559
300.581
300.602
300.622
300.64
300.659
300.677
300.697
300.721
300.754
300.807
300.899
301.052
301.278
301.555
301.847
302.139
302.454
302.822
303.265
303.851
304.701
305.813
300.042
300.118
300.185
300.246
300.302
300.351
300.394
300.432
300.467
300.498
300.527
300.553
300.578
300.6
300.622
300.642
300.661
300.68
300.698
300.717
300.738
300.763
300.799
300.856
300.959
301.135
301.401
301.734
302.096
302.472
302.877
303.335
303.921
304.765
305.868
300.044
300.121
300.191
300.255
300.312
300.364
300.408
300.448
300.484
300.516
300.545
300.572
300.598
300.621
300.643
300.664
300.684
300.703
300.723
300.742
300.763
300.785
300.813
300.853
300.918
301.037
301.243
301.557
301.956
302.4
302.867
303.36
303.958
304.798
305.895
300.045
300.126
300.198
300.265
300.325
300.378
300.425
300.466
300.502
300.535
300.566
300.594
300.619
300.643
300.666
300.687
300.708
300.729
300.749
300.77
300.792
300.816
300.842
300.875
300.922
301.001
301.145
301.396
301.774
302.254
302.788
303.34
303.967
304.81
305.906
300.047
300.131
300.207
300.277
300.339
300.394
300.442
300.485
300.522
300.556
300.588
300.616
300.643
300.667
300.69
300.712
300.734
300.756
300.778
300.801
300.826
300.852
300.882
300.914
300.955
301.016
301.12
301.31
301.63
302.097
302.671
303.287
303.957
304.812
305.909
300.049
300.136
300.216
300.29
300.355
300.412
300.461
300.505
300.544
300.579
300.61
300.64
300.667
300.692
300.716
300.738
300.761
300.784
300.807
300.833
300.862
300.894
300.929
300.967
301.01
301.066
301.152
301.302
301.568
301.992
302.57
303.229
303.938
304.806
305.907
300.051
300.143
300.227
300.303
300.371
300.43
300.481
300.526
300.565
300.601
300.634
300.664
300.691
300.717
300.741
300.764
300.788
300.812
300.838
300.867
300.9
300.939
300.984
301.032
301.083
301.144
301.227
301.362
301.595
301.98
302.537
303.209
303.939
304.818
305.92
300.053
300.149
300.238
300.317
300.388
300.448
300.5
300.546
300.587
300.624
300.657
300.688
300.716
300.741
300.766
300.79
300.814
300.839
300.866
300.899
300.938
300.986
301.043
301.106
301.173
301.248
301.342
301.481
301.708
302.075
302.612
303.266
303.991
304.869
305.96
300.055
300.156
300.248
300.331
300.403
300.465
300.519
300.566
300.607
300.645
300.679
300.71
300.739
300.765
300.79
300.814
300.838
300.863
300.892
300.927
300.971
301.029
301.101
301.184
301.273
301.371
301.488
301.648
301.89
302.258
302.775
303.387
304.08
304.943
306.007
300.057
300.162
300.257
300.343
300.417
300.481
300.536
300.584
300.626
300.665
300.7
300.732
300.761
300.788
300.812
300.836
300.86
300.885
300.913
300.948
300.994
301.057
301.142
301.246
301.363
301.491
301.638
301.827
302.089
302.46
302.952
303.51
304.157
304.995
306.03
300.059
300.167
300.265
300.353
300.43
300.495
300.551
300.6
300.644
300.684
300.72
300.753
300.782
300.809
300.834
300.858
300.881
300.904
300.931
300.963
301.006
301.067
301.155
301.273
301.416
301.576
301.755
301.97
302.248
302.616
303.076
303.585
304.191
305.003
306.023
300.061
300.172
300.273
300.363
300.442
300.508
300.565
300.616
300.661
300.702
300.739
300.772
300.803
300.83
300.856
300.879
300.902
300.924
300.948
300.977
301.013
301.066
301.145
301.26
301.414
301.6
301.81
302.05
302.34
302.7
303.132
303.605
304.18
304.977
305.996
300.062
300.176
300.279
300.372
300.453
300.521
300.579
300.631
300.677
300.719
300.757
300.792
300.823
300.852
300.878
300.901
300.924
300.946
300.968
300.993
301.024
301.066
301.13
301.228
301.372
301.564
301.795
302.06
302.364
302.723
303.136
303.587
304.145
304.936
305.964
300.064
300.18
300.286
300.381
300.463
300.532
300.592
300.645
300.692
300.736
300.775
300.811
300.844
300.873
300.9
300.924
300.947
300.969
300.991
301.014
301.04
301.074
301.123
301.2
301.319
301.495
301.729
302.011
302.334
302.701
303.111
303.554
304.104
304.895
305.935
300.065
300.185
300.293
300.39
300.473
300.544
300.605
300.659
300.708
300.753
300.794
300.831
300.864
300.895
300.923
300.948
300.972
300.994
301.016
301.038
301.062
301.092
301.131
301.189
301.282
301.428
301.642
301.923
302.262
302.647
303.07
303.519
304.069
304.863
305.916
300.067
300.189
300.3
300.399
300.484
300.556
300.618
300.673
300.723
300.769
300.812
300.85
300.885
300.917
300.946
300.973
300.997
301.02
301.043
301.065
301.089
301.116
301.15
301.198
301.27
301.387
301.568
301.829
302.168
302.572
303.018
303.483
304.041
304.84
305.902
300.068
300.194
300.307
300.408
300.494
300.567
300.63
300.687
300.739
300.787
300.831
300.871
300.907
300.94
300.97
300.998
301.023
301.048
301.071
301.094
301.119
301.146
301.178
301.221
301.281
301.376
301.525
301.755
302.078
302.487
302.956
303.445
304.016
304.822
305.894
300.07
300.198
300.314
300.417
300.505
300.579
300.644
300.702
300.755
300.805
300.85
300.892
300.929
300.963
300.995
301.023
301.05
301.076
301.1
301.125
301.151
301.179
301.212
301.254
301.311
301.394
301.522
301.721
302.018
302.418
302.9
303.41
303.998
304.813
305.898
300.071
300.203
300.322
300.427
300.517
300.592
300.658
300.717
300.772
300.823
300.87
300.913
300.952
300.988
301.02
301.05
301.078
301.104
301.13
301.156
301.184
301.215
301.251
301.295
301.354
301.435
301.553
301.734
302.007
302.39
302.873
303.396
303.998
304.827
305.93
300.073
300.208
300.33
300.437
300.529
300.606
300.673
300.734
300.79
300.843
300.891
300.936
300.976
301.012
301.045
301.076
301.105
301.133
301.16
301.188
301.218
301.252
301.292
301.342
301.407
301.493
301.614
301.789
302.049
302.419
302.894
303.419
304.029
304.876
305.996
300.075
300.213
300.338
300.449
300.543
300.621
300.689
300.752
300.809
300.863
300.913
300.958
300.999
301.037
301.071
301.103
301.132
301.161
301.19
301.219
301.251
301.289
301.334
301.391
301.465
301.563
301.694
301.876
302.136
302.499
302.966
303.482
304.095
304.959
306.091
300.077
300.219
300.348
300.461
300.557
300.637
300.706
300.77
300.829
300.884
300.934
300.981
301.023
301.061
301.096
301.129
301.159
301.189
301.219
301.25
301.284
301.324
301.374
301.438
301.523
301.635
301.782
301.979
302.247
302.611
303.069
303.574
304.185
305.061
306.198
300.079
300.225
300.357
300.474
300.571
300.653
300.724
300.788
300.848
300.904
300.956
301.003
301.046
301.085
301.121
301.154
301.185
301.216
301.246
301.278
301.314
301.357
301.41
301.48
301.575
301.7
301.865
302.08
302.362
302.732
303.183
303.676
304.283
305.165
306.3
300.081
300.231
300.367
300.486
300.586
300.669
300.741
300.806
300.867
300.924
300.976
301.024
301.068
301.108
301.144
301.178
301.211
301.242
301.273
301.306
301.343
301.387
301.442
301.516
301.616
301.751
301.931
302.164
302.463
302.84
303.288
303.772
304.375
305.256
306.385
300.083
300.237
300.376
300.498
300.6
300.684
300.757
300.824
300.886
300.943
300.996
301.045
301.09
301.13
301.168
301.203
301.236
301.268
301.3
301.334
301.372
301.416
301.472
301.547
301.649
301.789
301.978
302.225
302.539
302.926
303.374
303.854
304.453
305.33
306.451
300.085
300.243
300.386
300.51
300.614
300.7
300.774
300.842
300.905
300.963
301.016
301.066
301.111
301.152
301.191
301.226
301.261
301.294
301.327
301.362
301.401
301.446
301.502
301.577
301.678
301.818
302.009
302.264
302.589
302.987
303.439
303.918
304.515
305.388
306.503
300.087
300.249
300.395
300.523
300.628
300.715
300.791
300.86
300.923
300.982
301.036
301.086
301.132
301.174
301.213
301.25
301.286
301.32
301.355
301.391
301.431
301.478
301.535
301.609
301.709
301.847
302.037
302.293
302.624
303.03
303.488
303.97
304.566
305.438
306.55
300.089
300.255
300.405
300.535
300.642
300.731
300.808
300.878
300.942
301.002
301.056
301.107
301.153
301.196
301.236
301.274
301.311
301.347
301.383
301.421
301.463
301.512
301.571
301.647
301.747
301.884
302.071
302.326
302.658
303.068
303.53
304.015
304.613
305.487
306.601
300.091
300.261
300.414
300.547
300.657
300.747
300.825
300.896
300.961
301.022
301.077
301.128
301.175
301.218
301.259
301.299
301.336
301.374
301.412
301.452
301.497
301.549
301.612
301.691
301.795
301.933
302.12
302.373
302.704
303.114
303.579
304.064
304.666
305.545
306.663
300.093
300.267
300.424
300.56
300.672
300.763
300.843
300.915
300.981
301.042
301.097
301.149
301.196
301.241
301.282
301.323
301.362
301.4
301.44
301.483
301.531
301.587
301.655
301.741
301.85
301.994
302.185
302.439
302.77
303.178
303.64
304.124
304.729
305.615
306.736
300.096
300.274
300.435
300.573
300.686
300.779
300.86
300.933
301
301.062
301.118
301.17
301.218
301.263
301.305
301.346
301.386
301.427
301.469
301.514
301.565
301.626
301.7
301.793
301.912
302.065
302.264
302.523
302.855
303.261
303.716
304.197
304.805
305.696
306.816
300.098
300.281
300.445
300.587
300.702
300.796
300.878
300.952
301.02
301.082
301.139
301.191
301.239
301.284
301.328
301.37
301.411
301.453
301.496
301.544
301.598
301.663
301.743
301.844
301.974
302.14
302.351
302.619
302.954
303.358
303.804
304.279
304.889
305.78
306.891
300.1
300.288
300.456
300.6
300.717
300.813
300.896
300.97
301.039
301.102
301.159
301.211
301.26
301.306
301.35
301.392
301.434
301.477
301.523
301.572
301.629
301.697
301.783
301.892
302.032
302.212
302.438
302.718
303.059
303.46
303.897
304.366
304.974
305.857
306.949
300.103
300.295
300.467
300.614
300.733
300.83
300.913
300.989
301.058
301.121
301.179
301.231
301.28
301.326
301.371
301.414
301.457
301.501
301.547
301.598
301.657
301.727
301.816
301.931
302.08
302.272
302.514
302.809
303.16
303.56
303.987
304.449
305.052
305.914
306.975
300.105
300.302
300.479
300.629
300.749
300.848
300.932
301.008
301.078
301.141
301.198
301.251
301.3
301.346
301.391
301.435
301.479
301.523
301.571
301.622
301.682
301.753
301.843
301.96
302.114
302.315
302.57
302.881
303.243
303.646
304.068
304.521
305.11
305.939
306.958
300.108
300.309
300.49
300.644
300.767
300.866
300.952
301.028
301.098
301.16
301.217
301.27
301.319
301.365
301.41
301.455
301.499
301.545
301.592
301.645
301.704
301.776
301.865
301.98
302.133
302.335
302.596
302.917
303.291
303.7
304.118
304.562
305.131
305.918
306.894
300.11
300.317
300.502
300.659
300.785
300.887
300.973
301.05
301.119
301.181
301.237
301.289
301.337
301.384
301.429
301.474
301.519
301.565
301.613
301.666
301.725
301.796
301.882
301.993
302.14
302.335
302.591
302.912
303.29
303.702
304.118
304.552
305.098
305.848
306.794
300.113
300.325
300.515
300.676
300.805
300.908
300.996
301.073
301.142
301.203
301.258
301.309
301.356
301.403
301.448
301.493
301.538
301.585
301.633
301.686
301.746
301.814
301.898
302.003
302.141
302.323
302.564
302.871
303.24
303.647
304.059
304.483
305.011
305.74
306.68
300.116
300.333
300.528
300.693
300.825
300.931
301.02
301.098
301.167
301.227
301.281
301.33
301.376
301.422
301.467
301.512
301.557
301.604
301.654
301.707
301.766
301.834
301.915
302.016
302.144
302.312
302.533
302.817
303.164
303.556
303.959
304.374
304.892
305.621
306.576
300.119
300.341
300.541
300.711
300.846
300.954
301.044
301.123
301.192
301.252
301.304
301.352
301.397
301.442
301.486
301.531
301.576
301.624
301.674
301.727
301.787
301.855
301.935
302.032
302.153
302.309
302.512
302.772
303.094
303.464
303.852
304.259
304.774
305.517
306.499
300.122
300.35
300.555
300.729
300.868
300.978
301.07
301.15
301.219
301.278
301.33
301.376
301.419
301.463
301.506
301.551
301.596
301.644
301.694
301.748
301.809
301.877
301.957
302.053
302.17
302.319
302.508
302.749
303.047
303.395
303.769
304.169
304.683
305.444
306.456
300.125
300.359
300.569
300.748
300.89
301.002
301.096
301.178
301.247
301.306
301.356
301.401
301.443
301.485
301.528
301.571
301.617
301.664
301.715
301.77
301.83
301.9
301.981
302.077
302.194
302.338
302.52
302.749
303.03
303.361
303.722
304.115
304.631
305.408
306.445
300.128
300.368
300.584
300.767
300.912
301.027
301.123
301.205
301.276
301.334
301.384
301.427
301.468
301.509
301.55
301.594
301.638
301.686
301.736
301.791
301.853
301.923
302.005
302.103
302.221
302.365
302.544
302.766
303.038
303.356
303.708
304.097
304.614
305.402
306.458
300.131
300.377
300.599
300.787
300.935
301.052
301.15
301.234
301.305
301.363
301.412
301.454
301.494
301.533
301.574
301.617
301.661
301.708
301.758
301.813
301.875
301.946
302.03
302.129
302.249
302.395
302.574
302.795
303.062
303.373
303.718
304.105
304.622
305.418
306.485
300.134
300.387
300.614
300.806
300.958
301.078
301.178
301.263
301.334
301.393
301.441
301.482
301.521
301.56
301.6
301.642
301.686
301.732
301.782
301.836
301.898
301.969
302.053
302.154
302.276
302.425
302.606
302.828
303.093
303.401
303.743
304.128
304.646
305.446
306.518
300.138
300.397
300.63
300.826
300.981
301.104
301.205
301.292
301.364
301.423
301.47
301.511
301.549
301.587
301.627
301.668
301.712
301.758
301.807
301.86
301.921
301.992
302.076
302.178
302.302
302.453
302.637
302.86
303.126
303.433
303.773
304.158
304.677
305.478
306.553
300.141
300.407
300.646
300.847
301.005
301.13
301.234
301.322
301.395
301.454
301.5
301.54
301.577
301.615
301.655
301.697
301.74
301.785
301.834
301.887
301.947
302.017
302.1
302.202
302.326
302.478
302.665
302.89
303.158
303.465
303.805
304.189
304.709
305.51
306.584
300.145
300.417
300.662
300.868
301.03
301.158
301.264
301.354
301.427
301.485
301.531
301.57
301.606
301.644
301.684
301.727
301.77
301.816
301.864
301.916
301.974
302.043
302.125
302.225
302.349
302.502
302.689
302.916
303.185
303.492
303.832
304.217
304.737
305.538
306.612
300.148
300.428
300.679
300.89
301.056
301.186
301.295
301.385
301.459
301.517
301.562
301.6
301.636
301.674
301.715
301.759
301.804
301.85
301.897
301.949
302.006
302.073
302.153
302.252
302.374
302.526
302.713
302.941
303.21
303.517
303.857
304.241
304.762
305.564
306.639
300.152
300.439
300.697
300.913
301.082
301.215
301.326
301.418
301.492
301.55
301.593
301.63
301.665
301.704
301.746
301.792
301.839
301.887
301.935
301.986
302.043
302.108
302.186
302.282
302.402
302.551
302.737
302.963
303.232
303.538
303.876
304.261
304.784
305.59
306.672
300.156
300.451
300.715
300.936
301.108
301.244
301.357
301.45
301.525
301.582
301.625
301.66
301.694
301.733
301.778
301.827
301.877
301.928
301.978
302.03
302.087
302.152
302.228
302.322
302.439
302.585
302.768
302.992
303.259
303.563
303.901
304.287
304.813
305.629
306.722
300.16
300.462
300.733
300.958
301.133
301.272
301.387
301.482
301.558
301.615
301.656
301.689
301.722
301.76
301.807
301.86
301.916
301.971
302.025
302.08
302.138
302.203
302.279
302.371
302.485
302.629
302.809
303.03
303.293
303.594
303.93
304.318
304.852
305.682
306.792
300.164
300.474
300.75
300.98
301.158
301.299
301.417
301.514
301.591
301.648
301.688
301.719
301.749
301.786
301.834
301.891
301.953
302.015
302.076
302.136
302.198
302.265
302.342
302.435
302.548
302.691
302.868
303.086
303.346
303.645
303.979
304.371
304.915
305.762
306.89
300.168
300.484
300.767
301.001
301.182
301.326
301.445
301.544
301.623
301.68
301.72
301.748
301.775
301.809
301.856
301.917
301.986
302.057
302.126
302.193
302.262
302.334
302.415
302.51
302.625
302.767
302.943
303.159
303.415
303.71
304.043
304.438
304.995
305.86
307.002
300.172
300.495
300.783
301.02
301.205
301.351
301.473
301.574
301.654
301.713
301.752
301.779
301.801
301.83
301.875
301.937
302.012
302.092
302.172
302.25
302.329
302.41
302.498
302.599
302.719
302.864
303.042
303.256
303.509
303.801
304.133
304.532
305.1
305.978
307.127
300.175
300.504
300.798
301.04
301.227
301.376
301.501
301.604
301.685
301.745
301.785
301.81
301.829
301.852
301.89
301.949
302.027
302.115
302.206
302.297
302.388
302.48
302.579
302.688
302.815
302.966
303.147
303.362
303.614
303.903
304.233
304.634
305.209
306.093
307.239
300.178
300.514
300.813
301.059
301.25
301.402
301.529
301.634
301.717
301.778
301.818
301.843
301.858
301.875
301.906
301.958
302.033
302.126
302.227
302.331
302.436
302.542
302.653
302.775
302.912
303.071
303.257
303.476
303.728
304.016
304.345
304.747
305.325
306.207
307.341
300.182
300.524
300.829
301.08
301.274
301.429
301.558
301.665
301.75
301.812
301.853
301.877
301.89
301.902
301.924
301.967
302.035
302.126
302.232
302.346
302.463
302.583
302.708
302.841
302.989
303.156
303.348
303.57
303.823
304.11
304.438
304.839
305.415
306.29
307.411
300.185
300.535
300.847
301.103
301.301
301.458
301.59
301.699
301.785
301.847
301.889
301.913
301.925
301.933
301.947
301.979
302.037
302.122
302.228
302.349
302.476
302.609
302.746
302.892
303.051
303.227
303.426
303.652
303.908
304.195
304.521
304.921
305.494
306.361
307.469
300.19
300.548
300.867
301.129
301.33
301.49
301.625
301.735
301.822
301.885
301.926
301.95
301.961
301.967
301.975
301.998
302.045
302.119
302.22
302.341
302.474
302.616
302.764
302.92
303.088
303.272
303.476
303.706
303.962
304.249
304.574
304.971
305.542
306.402
307.501
300.194
300.562
300.889
301.157
301.362
301.526
301.662
301.775
301.862
301.925
301.966
301.989
301.999
302.003
302.007
302.023
302.06
302.124
302.217
302.334
302.469
302.617
302.774
302.94
303.117
303.309
303.519
303.752
304.01
304.298
304.623
305.02
305.589
306.445
307.537
300.2
300.577
300.914
301.187
301.396
301.563
301.703
301.816
301.904
301.967
302.007
302.029
302.039
302.04
302.042
302.052
302.081
302.135
302.218
302.328
302.462
302.611
302.774
302.947
303.131
303.328
303.543
303.779
304.039
304.327
304.651
305.048
305.617
306.469
307.556
300.205
300.594
300.94
301.22
301.433
301.603
301.745
301.86
301.948
302.01
302.049
302.07
302.078
302.079
302.079
302.086
302.108
302.154
302.229
302.332