/*--------------------------------*- C++ -*----------------------------------*\
| =========                 |                                                 |
| \\      /  F ield         | OpenFOAM: The Open Source CFD Toolbox           |
|  \\    /   O peration     | Version:  v1912                                 |
|   \\  /    A nd           | Website:  www.openfoam.com                      |
|    \\/     M anipulation  |                                                 |
\*---------------------------------------------------------------------------*/
FoamFile
{
    version     2.0;
    format      ascii;
    class       volScalarField;
    location    "152/oil";
    object      wallHeatFlux;
}
// * * * * * * * * * * * * * * * * * * * * * * * * * * * * * * * * * * * * * //

dimensions      [1 0 -3 0 0 0 0];


internalField   uniform 0;

boundaryField
{
    maxY
    {
        type            calculated;
        value           uniform 0;
    }
    minX
    {
        type            calculated;
        value           uniform 0;
    }
    maxX
    {
        type            calculated;
        value           uniform 0;
    }
    minY
    {
        type            calculated;
        value           uniform 0;
    }
    minZ
    {
        type            calculated;
        value           uniform 0;
    }
    maxZ
    {
        type            calculated;
        value           uniform 0;
    }
    oil_to_sphere
    {
        type            calculated;
        value           nonuniform List<scalar> 
1536
(
3769.11
3943.5
3660.36
3613.83
3132.11
3236.51
3199.04
2434.86
2329.93
4071.46
3102.28
4110.43
4179.6
4113.78
3593.02
3113.03
2464.93
2343.42
514.241
4171.68
4073.68
3264.54
3214.53
3137.23
3295.25
3294.44
3295.84
3146.55
3954.19
3903.12
3663.66
2941.3
2710.82
3310.36
3122.25
3103.59
2981.34
3442.26
3254.31
3426.31
3255.37
3103.48
3855.23
4121.34
3918.86
4093.68
3232.58
3237.68
3541.15
3303.31
3253.75
3258.5
3189.81
3236.14
2817.1
2659.84
3223.19
3213.25
2356.8
1597.19
1769.1
1572.25
1732.41
4165.09
4187.51
4106.47
3936.61
4102.94
3755.54
3904.81
3319.16
3226.86
3655.29
3265.25
3123.34
2715.59
2625.47
2553
3117.89
2344.71
1565.1
1734.98
1369.04
1349.29
1857.27
1765.97
1404.45
2453.66
2341.35
1591.73
1750.56
510.483
514.866
4181.86
4191.26
4124.72
3982.3
4040.17
4115.41
3736.22
3951.74
3305.37
3750.59
3668.49
3247.05
3264.71
3141.23
2568.41
3087.53
2732.17
2611.6
2700.99
1592.58
1778.02
1385.13
1415.65
1382.11
1844.16
1765.85
1874.67
2353.52
1753.28
514.63
4106.46
3739.39
3902.36
3759.14
3885.73
3249.45
3261.11
3286.01
3248.89
3259.06
3229.39
3279.31
3298.92
3235.25
2660.52
3194.89
3184.58
1598
1760.45
2455.84
2354.72
1737.85
2322.72
3559.04
3561.39
3194.93
3338.16
3657.95
3558.49
3227.02
3279.36
3268.09
2989.37
2814.82
2855.2
3570.19
3515.95
3584
3848.6
3397.46
3280.99
3106.79
2988.69
3238.3
3048.99
2827.41
2865.53
3837.88
3465.77
3917.88
3418.83
2897.64
2607.33
3579.71
3617.46
3757.11
3543.18
3389.69
3270.59
2993.5
3264.8
2919.43
2867.1
2870.35
4008.31
3522.47
3662.42
3822.6
3586.02
3788.84
3647.05
2926.16
2953.48
3024.9
3049.11
2901.93
2968.63
3032.73
3124.79
2343.25
2281.53
2217.02
2386.78
2471.06
2437.05
2563.52
2528.29
2287.17
2160.58
2091.8
4017.88
4267.05
4195.37
4039.23
4033.25
4060.98
4025.32
3999.03
4134.66
3927.05
4011.8
4020.88
3594.98
3589.54
3924.97
3732.88
3337.99
3004.59
2920.72
3233.19
2943.71
2303.29
2366.87
2236.57
2394.28
2456.55
2250
2146.95
1250.9
1107.57
4142.34
4024.17
4082.78
4012.17
4104.98
4278.39
4118.93
4007.22
3503.62
3290.94
3514.73
3560.31
2958.89
3127.9
2304.87
2174.02
2483.42
2639.71
2556.05
2111.46
1095.27
1229.44
818.119
818.772
1234.48
4077.48
3997.96
3979.69
3930.22
4012.46
4026.93
3965.08
4087.93
4328.43
4163.5
3997.6
3788.82
3565.86
3575.76
3708.1
3954.88
3745.12
3570.07
3565.42
2987.61
3012.19
3132.92
3163.9
3037.87
3121.56
2237.68
2166.94
2269.6
2420.39
2364.61
2460.8
2446.67
2446.1
2221.01
2128.47
2401.9
2279.49
3336.36
3190.92
3228.65
2987.42
2917.17
2871.57
2790.17
3856.94
3716.35
3921.55
3819.93
3715.03
3846.15
3882.24
3946.54
4053.12
3881.09
3919.59
3865.56
4253.67
4081.73
4020.53
3915.17
4045.2
4153.26
4035.35
3784.76
3822.18
3907.43
3714.71
3900.16
3953.34
4050.39
4024.12
4124.6
4085.15
4053
3964.78
3962.69
3934.78
3970.41
3849.45
3863.24
3740.56
3838.47
3678.15
3731.79
3949.42
3559.99
3869.23
3593.47
3639.69
3533.01
3342.79
3846.62
3570.73
3553.9
3701.68
3350.83
3480.92
3580.81
3316.79
3421.43
3244.1
3598.34
3845.51
3577.2
3599.86
3639.89
3387.89
3497.54
3469.53
2997.63
3078.98
2980.73
2834.97
2749.45
2843.94
2658.6
2587.52
3016.07
3084.7
3007.97
2870.4
2774.59
2915.78
2653.53
2588.96
2530.97
2952.34
2576.66
2862.07
2788
2870.96
2646.75
3007.28
3105.11
3001.89
3087.86
2616.74
2539.69
2865.04
2784.46
2894.93
2624.04
2562.82
2422.36
2349.68
2414.29
2343.33
2228.69
2234.55
2140.94
2316.81
2179.13
2484.93
2116.94
2157.84
2086.98
1983.72
2118.1
2067.62
1908.53
1858.87
1700.78
2374.2
2308.02
2222.7
2397.27
2165.75
2232.36
1911.22
1838.49
1807.43
1702.23
2092.05
2000.61
2122.88
2071.82
2042.04
2410.7
2339.66
2430.78
2435.43
2232.29
2128.41
2361.28
2267.91
4579.1
4395.64
4229.87
4532.66
4242.53
4289.21
4398.81
4135.69
4183.77
4253.23
4234.26
4013.79
4153.2
3965.36
3944.45
3908.78
3898.03
3974.84
3950.48
4041.9
4140.61
3817.51
4077.56
3858.99
3971.19
3876.86
4085.85
3921.97
4065.57
3993.28
4102.24
4009.72
3827.44
3944.63
3743.98
4034.36
3542.12
3663.52
3609.09
3257.65
3410.32
3395.78
3593.3
3257.05
3549.81
3243.05
3407.58
3287.2
3145.91
3231.97
3005.3
2951.94
2791.53
2880.13
2836.49
2742.26
2610.24
2914.54
2590
3107.63
2979.77
2817.26
2165.56
2074.59
2000
2141.95
2083.15
2292.59
2165.49
2482.46
2102.46
1896.98
1882.33
1718.96
1490.02
1331.62
1502.19
1338.51
1634.26
1772.93
1628.54
1461.73
1498.46
2281.91
2359.59
2215.21
2385.81
2120.45
2006.96
2144.46
2050.9
2277.16
2153.09
2424.1
2539.49
2107.39
1901.21
2048.44
1858.77
1702.04
1990.46
1234.05
1104.13
1273.16
1105.48
828.639
822.581
825.349
822.246
1075.82
4467.69
4191.88
4294.15
4256.24
4204.02
4473.87
4310.07
4247.95
4174.04
4017.54
4231.32
4275.84
4353.37
4033.82
4046.19
4148.14
4158.08
3818.19
4022.35
3834.46
4083.02
3972.17
3957.21
3902.02
4004.28
3897.65
3994.68
4105.61
3925.59
3808.17
3751.57
3980.77
4075.92
3817.61
4053.95
3859.93
3733.97
4118.39
3963.49
3944.56
3994.43
3870.81
3868.2
3961.42
4081.13
3887.87
3752.75
3601.83
3563.64
3420.66
3281.46
3451.51
3807.86
3657.16
3603.08
3474.02
3453.5
3355.22
3392.73
3408.51
3262.32
3260.27
2993.4
3218.98
2918.46
3053.48
2875.21
2796.28
3311.36
3131.48
2652.28
2950.19
2584.82
2917.79
2733.5
2602.16
2838.05
2878.49
2861.93
2835.87
2804.06
3254.55
2967.85
1896.77
1893.8
1822.65
1725.39
2360.91
2284.24
2221.81
2393.77
2169.35
2238.34
2015.91
2153.54
2137.9
2065.82
2030.51
1650.62
1650.01
1790.49
1480.59
1492.64
1329.36
1505.03
1508.3
1325.03
1756.76
1617.01
1626.15
1777.53
1468.32
2279.81
2158.51
2460.26
2542.39
2109.16
1908.65
2053.55
1840.54
1820.1
1998.01
2245.45
2136.55
2348.6
2303.01
2221.49
2395.08
2449.44
2001.01
2092.8
2136.21
2059.77
2038.75
826.608
826.473
1260.25
1244.57
1109.36
1074.94
1407.13
1241.91
1086.42
3704.55
3894.55
3880.25
3696.92
3869.02
3707.38
3697.59
4067.22
3998.77
4150.22
4004.54
3829.03
3954.43
3888.92
4048.72
3923.77
3986.5
3837.93
3835.31
4078.28
3966.49
3908.5
3926.95
3871.96
3868.79
3944.56
3760.58
3736.79
3837.08
3928.96
3831.86
3990.13
3886.96
4165.55
3850.11
3764.33
3813.52
3838.12
3735.94
3697.8
3956.49
3572.21
3412.51
3418.57
3522.17
3277.83
3819.72
3569.17
3555.55
3660.75
3486.68
3490.67
3391.68
3733.26
3536.71
3569.76
3658.17
3361.63
3390.32
3551.85
3516.41
3278.04
3631.05
3820.15
3617.62
3649.24
3505.13
3494.5
3412.37
3408.97
3262.81
2857.57
2778.79
2881.54
2650.41
2615.27
2549.22
3063.68
2946.97
3085.2
3007.23
2780.11
2867.22
2860.59
2616.16
2557.46
2575.13
3008.59
3002.13
3106.34
2995.97
3097.68
2603.54
2647.24
2850.54
2763.69
2860.68
2609.04
2555.96
3136.23
2986.11
2983.61
3045.42
3117.32
2642.08
2567.21
2785.53
2878.8
2878.81
2342.32
2428.33
2231.59
2218.35
2124.31
2414.68
2350.68
2423.08
2094.71
1999.15
2133.13
2051.06
1933.75
2087.72
1870.96
1711.38
2011.91
2296.75
2344.66
2210.81
2397.64
2547.98
2729.78
2354.43
2210.47
2131.78
2174.24
2306.08
1906.61
2036.7
1853.48
1831.24
1979
2102.51
2010.35
2109.95
2089.33
2041.93
2429.19
2555.51
2295.5
2162.73
2100.3
2387.86
2459.05
2295.11
2364.82
2234.12
3675.76
3584.9
2618.8
2493.87
4112.35
3970.51
4066.98
4098.65
4066.76
3534.14
3798.37
3684.05
3763.77
3094.42
3274.47
2497.55
1349
1304.49
3665.87
3662.53
2443.54
1353.51
1273.57
1596.4
4105.85
3573.79
3215.41
1573.25
3766.48
3637.61
3734.2
3081.39
3291.94
3270.48
2433.8
3687.58
3769.15
3256
3279.02
3731.31
3236.23
3270.2
3027.09
3125.61
2553.22
2702.72
2825.57
3586.09
3716.3
3212.2
3406.13
3072.92
3197.18
2553.55
2697.49
2738.71
3558.33
3777.24
3229.63
3488.5
2785.37
2569.91
2751.27
3004.61
3401.46
3367.41
3731.15
3779.72
3270.98
3246.06
3214.06
3275.67
2725.19
2574.15
2726.51
2459.54
4268.28
4173.57
3732.71
4044.28
3718.19
4125.62
4080.85
3262.73
3601.37
3590.64
3658.68
3578.79
3238.28
2772.25
2699.58
2704.21
2717.79
2709.9
2671.21
1940.95
2490.04
1881.76
1954.91
4191.32
4078.71
4238.44
4104.12
4200.9
4137.96
4198.47
4161.68
4237.51
4140.77
3730.06
4055.75
3733.96
3910.66
3738.14
3223.34
3445.92
3550.87
3853.76
3298.64
3708.7
3226.79
2574.45
2730.32
2779.8
2600.96
2705.98
2687.33
2466.49
1951.56
1809
1769.77
1841.44
2488.23
1926.27
1312.7
1349.21
1270.72
4265.76
4193.27
4135.57
4334.3
4151.49
4227.94
4139.09
4290.12
4218.38
3744.04
4043.96
3677.17
4093.35
4068.3
3962.54
4064.74
3966.78
3700.22
3828.08
3211.99
3558.99
3814.44
3576.01
3790.29
3275.59
2554.39
2743.64
3068.02
3241.69
2664.13
2821.78
2589.55
2715.24
3206.9
2503.22
1943.16
1740.55
1815.64
1761.91
2477.54
1925.83
1310.66
1273.18
1293.59
4176.09
3886.4
3761.12
4111.07
3702
3263.67
3660.17
3604.89
3602.29
3586.24
2685.32
2840.93
2677.57
2679.12
2681.98
1934.4
2534.03
1964.17
2516.17
3724.6
3550.27
3376.26
3530.74
3779.41
3572.48
2871.59
3000.47
2868.23
3632.97
3781.61
3611.73
3438.46
3821.31
3325.74
3524.01
3503.65
3344.77
3605.24
3469.05
3791.98
3386.66
3477.25
3492.69
3407.64
3114.44
3097.03
2887.25
2880.74
2761.78
2605.67
2867.62
2728.46
2805.95
3740.91
3518.93
3413.88
3523.26
3758.76
3326.31
3378.92
3402.55
3156.11
3521.9
2991.55
3185.45
3134.21
2901.68
2920.84
2785.07
2603.5
2838.1
2709.13
2809.32
3535.69
3741.03
3324.17
3353.73
3430.39
3130.65
3509.57
3090.38
2890.38
2703.26
2911.03
2829.87
2903.51
3960.18
3966.43
3938.29
3987.85
3381.68
3772.91
3618.01
3014.89
3020.09
3132.01
3112.55
3090.06
2432.17
2576.12
2555.7
2267.75
2213.27
2597.57
2464.54
2461.72
3984.31
4022.86
4097.89
3937.91
3446.81
3605.81
3351.38
3857.97
3591.71
3088.04
3086.38
2903.54
2449.32
2652.1
2552.34
2279.76
1648.02
1675.12
1475.38
1496.1
1327.63
1251.49
3989.99
3971.89
3966.3
3912.54
4055.56
3537.1
3712.41
3623.94
2975.99
2217.65
2571.9
1490.61
1325.08
1269.4
1054.41
1701.56
3988.23
3995.75
4094.11
3995.44
4054.39
4050.73
3997.91
3964.65
4069.67
3331.27
3478.76
4008.81
3581.47
3103.66
3116.02
2461.06
2578.45
2437.8
2373.43
2529.38
2266.93
1712.54
3095.32
2541.94
3831.75
3760.71
3538.46
3559.36
3096.46
2968.26
3047.78
2833.5
2696.62
2884.2
2743.02
2726.16
2674.41
4260.09
4190.97
3639.06
3663.85
3879.18
3969.02
3920.51
3947.71
3683.87
3862.86
3778.6
3915.05
3707.63
3820.27
4023.11
3929.1
3953.46
3931.69
3662.37
3769.12
3815.08
3895.2
3982.33
4066.69
4021.6
4048.35
3861.74
3674.02
3796.43
4064.41
3990.02
4068.09
4019.47
3696.51
3969.27
4043.29
3922.97
3784.64
3846.66
3773.34
3536.57
3440.24
3894.06
3529.64
3404.39
3403.53
3222.52
3249.24
3239.12
3423.28
3807.73
3604.78
3280.95
3262.92
3406.51
3284.28
3429.07
3745.21
3494.33
3258.38
3149.55
3119.25
2834.85
2892.93
2598.43
3121.49
2832.39
2923.57
2624.38
3032.06
3126.04
2858.62
2615.9
3106.54
2756.64
2854.97
2444.52
2440.21
2217.01
2237.69
2036.56
2055.83
2244.02
2057.12
2008.2
1830.46
1797.83
1782.22
1868.62
2420.68
2269.6
2047.54
1983.56
1851.79
1852.95
1769.3
2373.98
2455.75
2047.99
4298.91
4109.44
4210.55
4016.12
4094.82
4291.01
3955.25
4474.95
4110.71
4158.38
4135.38
4300.44
4142.62
4272.2
4481.45
4307.91
4107.53
4240.81
3861.01
3979.98
4170.54
4059.65
3725.11
3958.53
3821.93
4004.12
3928.76
3983.83
3932.07
4070.86
3831.23
3651.66
3748.25
3894.1
4056
3965.69
3948.3
3865.41
3362.24
3477.36
3244.59
3541.12
3733.06
3364.83
3477.73
3523.22
3566.07
3571
3719
3390.76
3008.86
2877.75
2788.77
2950.13
3104.35
2706.25
2734.43
2879.26
3011.69
2878.97
2751.68
2620.7
1859.6
1835.5
1801.15
2209.9
2045.88
1985.75
1844.12
2418.89
2494.34
1841.38
1812.53
2216.02
1854.95
1268.28
1274.19
1084.88
1406.28
1060.56
1266.97
1435.92
4336.54
4114.01
4394.83
4225.47
4210.15
4066.22
4103.39
3957.86
4258.86
4392.88
4275.7
4116.78
4073.71
4037.58
4151.75
4154.93
4151.27
3862.71
4077.54
3808.75
4040.1
4071.7
3985.97
3622.53
4083.29
3895.63
3974.17
3938.85
3854.42
3935.01
3940.9
3737.56
3829.5
3758.44
3494.49
3736.5
3546.8
3378.85
3325.12
3140.57
3411.35
3785.33
3506.04
3525.32
3045.27
2737.11
2778.23
2972.72
2972.12
2811.31
2925.67
2922.54
2866.9
2752.88
3075.15
3097.24
2047.32
1990.44
1849.97
2446.64
2284.46
1844.88
1800.27
2226.09
1862.97
2422.5
1829.74
1076.8
1260.87
1438.55
4293.2
3988.6
3719.53
3933.2
3719.78
3712.04
3838.79
4057.21
3983.6
3955.54
3729.14
3831.93
3916.7
3863.78
3997.1
3950.58
3979.93
3935.59
3861.1
3673.11
3940.73
3823.5
3781.28
3572.68
3276.04
3460.93
3907.93
3522.45
3394.76
3243.65
3242.22
3415.74
3793.29
3251.32
3407.95
3781.19
3277.49
2812.68
2646.33
3047.95
3119.79
3036.69
2816.87
2939.08
3085.42
2761.48
3101.87
2762.6
2029.78
2451.21
1835.87
1807.84
1883.05
2426.44
2593.16
2241.11
1845.73
1876.95
2206.75
2434.16
)
;
    }
}


// ************************************************************************* //
