/*--------------------------------*- C++ -*----------------------------------*\
| =========                 |                                                 |
| \\      /  F ield         | OpenFOAM: The Open Source CFD Toolbox           |
|  \\    /   O peration     | Version:  v1906                                 |
|   \\  /    A nd           | Web:      www.OpenFOAM.com                      |
|    \\/     M anipulation  |                                                 |
\*---------------------------------------------------------------------------*/
FoamFile
{
    version     2.0;
    format      ascii;
    class       volVectorField;
    location    "42.6/oil";
    object      U;
}
// * * * * * * * * * * * * * * * * * * * * * * * * * * * * * * * * * * * * * //

dimensions      [0 1 -1 0 0 0 0];


internalField   nonuniform List<vector> 
27760
(
(-2.64416e-05 -2.69663e-05 -2.64416e-05)
(-5.22072e-05 -2.02325e-05 -1.90399e-05)
(-3.84519e-06 -5.25424e-06 -5.1933e-06)
(-6.30639e-06 -8.66544e-07 -9.27524e-07)
(-1.44753e-06 -2.86739e-07 -3.56274e-07)
(-7.24754e-07 -1.29565e-07 -2.02071e-07)
(-7.58881e-08 -3.55151e-08 -1.12376e-07)
(2.29831e-07 3.32404e-09 -7.79165e-08)
(3.98402e-07 2.43924e-08 -6.03191e-08)
(4.71233e-07 3.6779e-08 -5.03657e-08)
(4.76167e-07 4.53164e-08 -4.32421e-08)
(4.26965e-07 5.13939e-08 -3.78259e-08)
(3.34214e-07 5.58147e-08 -3.36284e-08)
(2.08737e-07 5.88162e-08 -3.06498e-08)
(6.24014e-08 6.04021e-08 -2.90368e-08)
(-9.19695e-08 6.05663e-08 -2.88742e-08)
(-2.41373e-07 5.93559e-08 -3.01148e-08)
(-3.73674e-07 5.6893e-08 -3.25541e-08)
(-4.78723e-07 5.33768e-08 -3.58365e-08)
(-5.49099e-07 4.90586e-08 -3.94899e-08)
(-5.80826e-07 4.40247e-08 -4.30683e-08)
(-5.73692e-07 3.8513e-08 -4.60071e-08)
(-5.30548e-07 3.29035e-08 -4.75378e-08)
(-4.57294e-07 2.72179e-08 -4.73244e-08)
(-3.62753e-07 2.15846e-08 -4.49277e-08)
(-2.57861e-07 1.62342e-08 -4.00315e-08)
(-1.55316e-07 1.16457e-08 -3.26519e-08)
(-6.89936e-08 8.72378e-09 -2.3401e-08)
(-1.17434e-08 8.76288e-09 -1.41019e-08)
(5.27793e-09 1.02927e-08 -5.18198e-09)
(-1.91881e-05 -5.36416e-05 -1.91881e-05)
(-6.32036e-06 -6.92378e-06 -8.59301e-06)
(-8.58321e-06 -8.36342e-06 -3.0024e-06)
(-4.04127e-06 -2.36247e-06 -8.57066e-07)
(-1.67378e-06 -1.39903e-06 -4.23426e-07)
(-5.79434e-07 -7.22301e-07 -2.05625e-07)
(1.87412e-07 -4.31322e-07 -9.92693e-08)
(6.30401e-07 -2.74328e-07 -4.80454e-08)
(8.87703e-07 -1.82694e-07 -1.82506e-08)
(9.98521e-07 -1.21163e-07 1.40297e-09)
(9.90116e-07 -7.53015e-08 1.63789e-08)
(8.79969e-07 -3.96288e-08 2.85091e-08)
(6.85415e-07 -1.23247e-08 3.80964e-08)
(4.26155e-07 6.6881e-09 4.48773e-08)
(1.25266e-07 1.69765e-08 4.85208e-08)
(-1.91716e-07 1.83081e-08 4.88356e-08)
(-4.98681e-07 1.09747e-08 4.59016e-08)
(-7.71208e-07 -4.09014e-09 4.01097e-08)
(-9.88806e-07 -2.53614e-08 3.21289e-08)
(-1.13675e-06 -5.08833e-08 2.28327e-08)
(-1.20708e-06 -7.85993e-08 1.32782e-08)
(-1.19888e-06 -1.06331e-07 4.45093e-09)
(-1.11817e-06 -1.31791e-07 -2.76485e-09)
(-9.77161e-07 -1.53017e-07 -7.62675e-09)
(-7.93104e-07 -1.67743e-07 -9.58259e-09)
(-5.87183e-07 -1.73174e-07 -8.41826e-09)
(-3.83053e-07 -1.65497e-07 -4.47381e-09)
(-2.04709e-07 -1.39759e-07 1.00965e-09)
(-7.33807e-08 -9.05586e-08 5.22328e-09)
(-4.57787e-09 -2.31507e-08 4.7217e-09)
(-5.31309e-06 -4.98491e-06 -5.31304e-06)
(-8.40483e-06 -9.312e-06 -3.07654e-06)
(-4.46549e-06 -5.13957e-06 -1.35792e-06)
(-2.73027e-06 -2.8489e-06 -6.40428e-07)
(-1.13732e-06 -1.89769e-06 -2.98972e-07)
(-1.68223e-07 -1.30664e-06 -1.31316e-07)
(5.3373e-07 -9.95838e-07 -4.38488e-08)
(9.83567e-07 -8.04092e-07 3.87132e-09)
(1.2525e-06 -6.74748e-07 3.46443e-08)
(1.36243e-06 -5.7695e-07 5.71608e-08)
(1.33155e-06 -4.97817e-07 7.5492e-08)
(1.17501e-06 -4.32683e-07 9.08129e-08)
(9.1152e-07 -3.81196e-07 1.03101e-07)
(5.65084e-07 -3.44688e-07 1.11853e-07)
(1.64993e-07 -3.24674e-07 1.16554e-07)
(-2.55781e-07 -3.21908e-07 1.16917e-07)
(-6.6328e-07 -3.35876e-07 1.13023e-07)
(-1.02567e-06 -3.64631e-07 1.05351e-07)
(-1.31625e-06 -4.04927e-07 9.47322e-08)
(-1.51582e-06 -4.52569e-07 8.22524e-08)
(-1.61406e-06 -5.02785e-07 6.91158e-08)
(-1.61003e-06 -5.50686e-07 5.65003e-08)
(-1.51158e-06 -5.91394e-07 4.54338e-08)
(-1.33436e-06 -6.1994e-07 3.67275e-08)
(-1.10019e-06 -6.30887e-07 3.08711e-08)
(-8.35295e-07 -6.17793e-07 2.79264e-08)
(-5.68181e-07 -5.72462e-07 2.73276e-08)
(-3.26445e-07 -4.8464e-07 2.74612e-08)
(-1.35407e-07 -3.41878e-07 2.51224e-08)
(-1.39955e-08 -1.36847e-07 1.41792e-08)
(-9.63773e-07 -7.16955e-06 -9.63708e-07)
(-2.26192e-06 -5.30855e-06 -8.76128e-07)
(-1.97141e-06 -4.27362e-06 -6.35238e-07)
(-1.24909e-06 -3.08033e-06 -3.32552e-07)
(-3.45497e-07 -2.42985e-06 -1.54229e-07)
(3.58089e-07 -1.99397e-06 -5.23253e-08)
(9.23455e-07 -1.72551e-06 8.85137e-09)
(1.32036e-06 -1.53596e-06 4.7632e-08)
(1.56262e-06 -1.39005e-06 7.60467e-08)
(1.65111e-06 -1.2675e-06 9.91166e-08)
(1.59185e-06 -1.16081e-06 1.19092e-07)
(1.39498e-06 -1.06893e-06 1.36331e-07)
(1.07818e-06 -9.94275e-07 1.50374e-07)
(6.67186e-07 -9.40488e-07 1.60448e-07)
(1.94956e-07 -9.10729e-07 1.65856e-07)
(-3.00677e-07 -9.06578e-07 1.66225e-07)
(-7.80453e-07 -9.2737e-07 1.61622e-07)
(-1.20747e-06 -9.70024e-07 1.52585e-07)
(-1.55078e-06 -1.02927e-06 1.40071e-07)
(-1.78827e-06 -1.09827e-06 1.25311e-07)
(-1.90818e-06 -1.16923e-06 1.09644e-07)
(-1.90959e-06 -1.23404e-06 9.43619e-08)
(-1.80162e-06 -1.28451e-06 8.05695e-08)
(-1.60204e-06 -1.31229e-06 6.90976e-08)
(-1.33525e-06 -1.30833e-06 6.03924e-08)
(-1.03006e-06 -1.26215e-06 5.44349e-08)
(-7.17299e-07 -1.1607e-06 5.05656e-08)
(-4.26346e-07 -9.87135e-07 4.6953e-08)
(-1.86258e-07 -7.17612e-07 4.01033e-08)
(-2.13367e-08 -3.16028e-07 2.15688e-08)
(-3.23189e-07 -2.43846e-06 -3.23108e-07)
(-1.11957e-06 -3.53913e-06 -3.93922e-07)
(-8.50984e-07 -3.59401e-06 -2.78091e-07)
(-3.77705e-07 -3.24339e-06 -1.45899e-07)
(2.3784e-07 -2.9737e-06 -5.33189e-08)
(7.90723e-07 -2.74266e-06 7.3722e-09)
(1.26234e-06 -2.56389e-06 4.92879e-08)
(1.61056e-06 -2.40979e-06 8.02555e-08)
(1.82247e-06 -2.2694e-06 1.06102e-07)
(1.88644e-06 -2.13662e-06 1.29191e-07)
(1.79985e-06 -2.01185e-06 1.5032e-07)
(1.56866e-06 -1.89936e-06 1.6912e-07)
(1.20909e-06 -1.80546e-06 1.84677e-07)
(7.47662e-07 -1.73677e-06 1.95928e-07)
(2.19793e-07 -1.69851e-06 2.01968e-07)
(-3.33165e-07 -1.69327e-06 2.02316e-07)
(-8.68005e-07 -1.72035e-06 1.97028e-07)
(-1.34402e-06 -1.77556e-06 1.86703e-07)
(-1.72715e-06 -1.85159e-06 1.72441e-07)
(-1.99323e-06 -1.93882e-06 1.55623e-07)
(-2.12962e-06 -2.02633e-06 1.37749e-07)
(-2.13561e-06 -2.1027e-06 1.20233e-07)
(-2.02131e-06 -2.15632e-06 1.04251e-07)
(-1.80594e-06 -2.17541e-06 9.06559e-08)
(-1.51554e-06 -2.14728e-06 7.98811e-08)
(-1.18035e-06 -2.05726e-06 7.18605e-08)
(-8.32608e-07 -1.88691e-06 6.58842e-08)
(-5.03046e-07 -1.61109e-06 5.99647e-08)
(-2.24383e-07 -1.18995e-06 5.03386e-08)
(-2.64976e-08 -5.45847e-07 2.67821e-08)
(-1.40696e-07 -1.97242e-06 -1.40598e-07)
(-3.5861e-07 -3.14544e-06 -1.53186e-07)
(-1.60089e-07 -3.59864e-06 -1.00955e-07)
(1.98966e-07 -3.67754e-06 -4.00689e-08)
(6.69937e-07 -3.6653e-06 9.54018e-09)
(1.13082e-06 -3.59728e-06 4.69429e-08)
(1.53872e-06 -3.50741e-06 7.71124e-08)
(1.84827e-06 -3.39864e-06 1.03156e-07)
(2.03351e-06 -3.27591e-06 1.2758e-07)
(2.07534e-06 -3.14407e-06 1.5114e-07)
(1.96537e-06 -3.01064e-06 1.73659e-07)
(1.70625e-06 -2.88504e-06 1.94198e-07)
(1.31283e-06 -2.77757e-06 2.11428e-07)
(8.11971e-07 -2.6978e-06 2.23975e-07)
(2.40894e-07 -2.65311e-06 2.30706e-07)
(-3.56342e-07 -2.64717e-06 2.31027e-07)
(-9.33424e-07 -2.6793e-06 2.24973e-07)
(-1.44666e-06 -2.74433e-06 2.13227e-07)
(-1.8596e-06 -2.83303e-06 1.9706e-07)
(-2.1466e-06 -2.93324e-06 1.78052e-07)
(-2.29464e-06 -3.03113e-06 1.57908e-07)
(-2.30334e-06 -3.11212e-06 1.38187e-07)
(-2.18376e-06 -3.16147e-06 1.20151e-07)
(-1.95631e-06 -3.16415e-06 1.04704e-07)
(-1.64811e-06 -3.10394e-06 9.2278e-08)
(-1.29038e-06 -2.96184e-06 8.27775e-08)
(-9.16332e-07 -2.71341e-06 7.5448e-08)
(-5.57904e-07 -2.32349e-06 6.8173e-08)
(-2.50929e-07 -1.73223e-06 5.6934e-08)
(-2.99012e-08 -8.11675e-07 3.02379e-08)
(-3.88722e-08 -1.66343e-06 -3.8759e-08)
(-3.60042e-08 -3.12524e-06 -3.75834e-08)
(1.92885e-07 -3.89347e-06 -1.14795e-08)
(5.34225e-07 -4.27107e-06 1.88816e-08)
(9.51204e-07 -4.46252e-06 4.71807e-08)
(1.36769e-06 -4.53418e-06 7.21101e-08)
(1.73948e-06 -4.53136e-06 9.57111e-08)
(2.02366e-06 -4.47461e-06 1.19109e-07)
(2.18968e-06 -4.37983e-06 1.43155e-07)
(2.21489e-06 -4.26001e-06 1.67694e-07)
(2.08753e-06 -4.12846e-06 1.91911e-07)
(1.80795e-06 -3.99902e-06 2.14425e-07)
(1.38988e-06 -3.88537e-06 2.33523e-07)
(8.60338e-07 -3.7998e-06 2.47507e-07)
(2.57853e-07 -3.75158e-06 2.54997e-07)
(-3.71417e-07 -3.74534e-06 2.55287e-07)
(-9.78806e-07 -3.78048e-06 2.48399e-07)
(-1.51829e-06 -3.85106e-06 2.35094e-07)
(-1.95167e-06 -3.94632e-06 2.16844e-07)
(-2.25237e-06 -4.05196e-06 1.95481e-07)
(-2.40727e-06 -4.15172e-06 1.72937e-07)
(-2.41658e-06 -4.22845e-06 1.50945e-07)
(-2.29232e-06 -4.26475e-06 1.30893e-07)
(-2.05585e-06 -4.24274e-06 1.1372e-07)
(-1.73513e-06 -4.14281e-06 9.98718e-08)
(-1.36198e-06 -3.9416e-06 8.92219e-08)
(-9.70231e-07 -3.60807e-06 8.09743e-08)
(-5.92704e-07 -3.09556e-06 7.29091e-08)
(-2.67387e-07 -2.32128e-06 6.07858e-08)
(-3.19219e-08 -1.1012e-06 3.23086e-08)
(-5.38751e-11 -1.71276e-06 7.28236e-11)
(1.20222e-07 -3.4225e-06 1.39256e-08)
(3.81304e-07 -4.41725e-06 3.13542e-08)
(7.26305e-07 -5.00225e-06 4.94215e-08)
(1.12161e-06 -5.34994e-06 6.7876e-08)
(1.5147e-06 -5.53769e-06 8.6741e-08)
(1.86456e-06 -5.61601e-06 1.07134e-07)
(2.13164e-06 -5.61477e-06 1.29491e-07)
(2.28431e-06 -5.55639e-06 1.53904e-07)
(2.29843e-06 -5.45926e-06 1.79756e-07)
(2.16032e-06 -5.34073e-06 2.05834e-07)
(1.86868e-06 -5.21779e-06 2.30397e-07)
(1.43628e-06 -5.1067e-06 2.51399e-07)
(8.90044e-07 -5.02171e-06 2.66849e-07)
(2.69298e-07 -4.97345e-06 2.75109e-07)
(-3.78435e-07 -4.96727e-06 2.75366e-07)
(-1.003e-06 -5.00267e-06 2.67631e-07)
(-1.55686e-06 -5.07326e-06 2.52752e-07)
(-2.00067e-06 -5.1672e-06 2.32416e-07)
(-2.30747e-06 -5.2688e-06 2.08706e-07)
(-2.46443e-06 -5.36012e-06 1.83789e-07)
(-2.4725e-06 -5.42214e-06 1.596e-07)
(-2.3446e-06 -5.43546e-06 1.37656e-07)
(-2.10279e-06 -5.3798e-06 1.18927e-07)
(-1.77557e-06 -5.23258e-06 1.03863e-07)
(-1.39495e-06 -4.96601e-06 9.23012e-08)
(-9.94883e-07 -4.54193e-06 8.34201e-08)
(-6.08488e-07 -3.90127e-06 7.49197e-08)
(-2.74725e-07 -2.93636e-06 6.24204e-08)
(-3.27896e-08 -1.4038e-06 3.32223e-08)
(1.71878e-08 -1.88356e-06 1.73261e-08)
(1.90772e-07 -3.8579e-06 3.77029e-08)
(4.71601e-07 -5.0536e-06 5.15949e-08)
(8.19853e-07 -5.80716e-06 6.42839e-08)
(1.20262e-06 -6.28632e-06 7.80793e-08)
(1.57932e-06 -6.57672e-06 9.39862e-08)
(1.9126e-06 -6.73318e-06 1.12853e-07)
(2.16622e-06 -6.79127e-06 1.34897e-07)
(2.3091e-06 -6.7775e-06 1.59881e-07)
(2.31681e-06 -6.71355e-06 1.86945e-07)
(2.1747e-06 -6.61934e-06 2.14639e-07)
(1.88032e-06 -6.51377e-06 2.40966e-07)
(1.4455e-06 -6.41451e-06 2.63611e-07)
(8.96702e-07 -6.33686e-06 2.80317e-07)
(2.73339e-07 -6.29227e-06 2.89213e-07)
(-3.76724e-07 -6.28643e-06 2.89438e-07)
(-1.00292e-06 -6.31895e-06 2.80998e-07)
(-1.55726e-06 -6.38329e-06 2.64768e-07)
(-2.00015e-06 -6.46726e-06 2.42636e-07)
(-2.30482e-06 -6.55443e-06 2.16924e-07)
(-2.45899e-06 -6.62605e-06 1.90027e-07)
(-2.46444e-06 -6.66219e-06 1.64037e-07)
(-2.33483e-06 -6.64217e-06 1.40557e-07)
(-2.09262e-06 -6.54392e-06 1.20603e-07)
(-1.7663e-06 -6.34226e-06 1.0462e-07)
(-1.38752e-06 -6.00503e-06 9.24246e-08)
(-9.89682e-07 -5.48688e-06 8.31582e-08)
(-6.05393e-07 -4.71563e-06 7.44963e-08)
(-2.73319e-07 -3.55786e-06 6.20488e-08)
(-3.26058e-08 -1.70963e-06 3.30799e-08)
(2.3786e-08 -2.1121e-06 2.39342e-08)
(2.17014e-07 -4.35728e-06 4.69408e-08)
(5.01367e-07 -5.73904e-06 5.92147e-08)
(8.42989e-07 -6.63857e-06 6.94688e-08)
(1.20965e-06 -7.23326e-06 8.09981e-08)
(1.56747e-06 -7.61736e-06 9.53641e-08)
(1.88264e-06 -7.85007e-06 1.13368e-07)
(2.12199e-06 -7.97084e-06 1.35161e-07)
(2.25596e-06 -8.00886e-06 1.60416e-07)
(2.2607e-06 -7.98766e-06 1.88155e-07)
(2.1212e-06 -7.92823e-06 2.16795e-07)
(1.83419e-06 -7.8501e-06 2.44192e-07)
(1.41052e-06 -7.77131e-06 2.67828e-07)
(8.75601e-07 -7.70744e-06 2.85282e-07)
(2.68008e-07 -7.66997e-06 2.94542e-07)
(-3.65277e-07 -7.66468e-06 2.94735e-07)
(-9.74852e-07 -7.69128e-06 2.85859e-07)
(-1.51355e-06 -7.74335e-06 2.68785e-07)
(-1.94251e-06 -7.80881e-06 2.45542e-07)
(-2.2359e-06 -7.87151e-06 2.18596e-07)
(-2.38235e-06 -7.91271e-06 1.90482e-07)
(-2.38442e-06 -7.91238e-06 1.63428e-07)
(-2.25613e-06 -7.84943e-06 1.3909e-07)
(-2.01985e-06 -7.70071e-06 1.18499e-07)
(-1.70334e-06 -7.43871e-06 1.02069e-07)
(-1.33717e-06 -7.02727e-06 8.96004e-08)
(-9.53322e-07 -6.41382e-06 8.02443e-08)
(-5.82925e-07 -5.51312e-06 7.1712e-08)
(-2.63081e-07 -4.16611e-06 5.9709e-08)
(-3.13814e-08 -2.009e-06 3.18931e-08)
(2.52321e-08 -2.35537e-06 2.53836e-08)
(2.16943e-07 -4.8656e-06 4.83823e-08)
(4.88955e-07 -6.42065e-06 5.94397e-08)
(8.10653e-07 -7.45083e-06 6.82763e-08)
(1.15163e-06 -8.14965e-06 7.84332e-08)
(1.48272e-06 -8.62065e-06 9.16623e-08)
(1.77373e-06 -8.92781e-06 1.08744e-07)
(1.99478e-06 -9.1135e-06 1.29841e-07)
(2.11856e-06 -9.20856e-06 1.54585e-07)
(2.12249e-06 -9.2373e-06 1.8199e-07)
(1.99187e-06 -9.22068e-06 2.10436e-07)
(1.72291e-06 -9.17789e-06 2.37732e-07)
(1.32529e-06 -9.12647e-06 2.61319e-07)
(8.2271e-07 -9.0814e-06 2.78726e-07)
(2.5169e-07 -9.05372e-06 2.87898e-07)
(-3.4324e-07 -9.04908e-06 2.88058e-07)
(-9.1549e-07 -9.06725e-06 2.79203e-07)
(-1.42034e-06 -9.10222e-06 2.62096e-07)
(-1.82099e-06 -9.14245e-06 2.3879e-07)
(-2.0933e-06 -9.1726e-06 2.11783e-07)
(-2.22709e-06 -9.17478e-06 1.83685e-07)
(-2.22552e-06 -9.12959e-06 1.56717e-07)
(-2.10253e-06 -9.01632e-06 1.32523e-07)
(-1.87969e-06 -8.81137e-06 1.12119e-07)
(-1.5832e-06 -8.48549e-06 9.59062e-08)
(-1.24158e-06 -7.99888e-06 8.36714e-08)
(-8.84455e-07 -7.29215e-06 7.45795e-08)
(-5.40493e-07 -6.26741e-06 6.64852e-08)
(-2.43833e-07 -4.741e-06 5.5358e-08)
(-2.9091e-08 -2.29209e-06 2.96371e-08)
(2.36983e-08 -2.58878e-06 2.38569e-08)
(1.99137e-07 -5.34467e-06 4.49872e-08)
(4.44206e-07 -7.05655e-06 5.47017e-08)
(7.3185e-07 -8.20271e-06 6.23522e-08)
(1.0349e-06 -8.99476e-06 7.12935e-08)
(1.32857e-06 -9.54564e-06 8.32693e-08)
(1.58676e-06 -9.92388e-06 9.89955e-08)
(1.78343e-06 -1.01744e-05 1.18638e-07)
(1.89421e-06 -1.03288e-05 1.4184e-07)
(1.89862e-06 -1.04114e-05 1.6767e-07)
(1.78288e-06 -1.04422e-05 1.94572e-07)
(1.54293e-06 -1.04395e-05 2.2043e-07)
(1.18695e-06 -1.04196e-05 2.4277e-07)
(7.36141e-07 -1.03963e-05 2.59241e-07)
(2.23596e-07 -1.03799e-05 2.67848e-07)
(-3.10256e-07 -1.0376e-05 2.67971e-07)
(-8.23385e-07 -1.03843e-05 2.59591e-07)
(-1.27523e-06 -1.03992e-05 2.43329e-07)
(-1.63237e-06 -1.04099e-05 2.21184e-07)
(-1.87326e-06 -1.04024e-05 1.9551e-07)
(-1.98934e-06 -1.03601e-05 1.68829e-07)
(-1.98418e-06 -1.02652e-05 1.43268e-07)
(-1.87109e-06 -1.00976e-05 1.20397e-07)
(-1.66989e-06 -9.834e-06 1.01166e-07)
(-1.40434e-06 -9.44389e-06 8.59306e-08)
(-1.09989e-06 -8.88444e-06 7.4497e-08)
(-7.82689e-07 -8.09002e-06 6.60954e-08)
(-4.77915e-07 -6.95127e-06 5.87938e-08)
(-2.15497e-07 -5.26192e-06 4.89714e-08)
(-2.57154e-08 -2.54877e-06 2.62911e-08)
(2.02365e-08 -2.79484e-06 2.03897e-08)
(1.68053e-07 -5.76415e-06 3.82149e-08)
(3.73039e-07 -7.61081e-06 4.62443e-08)
(6.1289e-07 -8.85616e-06 5.26094e-08)
(8.65117e-07 -9.72899e-06 6.01845e-08)
(1.10972e-06 -1.03508e-05 7.05071e-08)
(1.32535e-06 -1.07942e-05 8.42135e-08)
(1.49053e-06 -1.11061e-05 1.01451e-07)
(1.58474e-06 -1.13184e-05 1.21902e-07)
(1.59035e-06 -1.14547e-05 1.4474e-07)
(1.4951e-06 -1.1534e-05 1.6858e-07)
(1.29482e-06 -1.15724e-05 1.91542e-07)
(9.95939e-07 -1.15848e-05 2.11348e-07)
(6.16164e-07 -1.15838e-05 2.25917e-07)
(1.83739e-07 -1.1579e-05 2.33465e-07)
(-2.66645e-07 -1.15757e-05 2.33535e-07)
(-6.99078e-07 -1.15739e-05 2.26124e-07)
(-1.07877e-06 -1.1568e-05 2.11674e-07)
(-1.37724e-06 -1.1548e-05 1.9197e-07)
(-1.57653e-06 -1.15014e-05 1.69121e-07)
(-1.66999e-06 -1.14134e-05 1.45405e-07)
(-1.6615e-06 -1.12678e-05 1.22723e-07)
(-1.56301e-06 -1.1046e-05 1.02488e-07)
(-1.39177e-06 -1.07252e-05 8.55083e-08)
(-1.16808e-06 -1.02744e-05 7.21067e-08)
(-9.13235e-07 -9.6481e-06 6.21002e-08)
(-6.48915e-07 -8.77568e-06 5.48309e-08)
(-3.95787e-07 -7.53775e-06 4.86662e-08)
(-1.78342e-07 -5.7084e-06 4.05795e-08)
(-2.12858e-08 -2.76902e-06 2.18899e-08)
(1.53575e-08 -2.96031e-06 1.55137e-08)
(1.26481e-07 -6.09932e-06 2.89189e-08)
(2.80041e-07 -8.05269e-06 3.49045e-08)
(4.59729e-07 -9.37699e-06 3.97494e-08)
(6.48979e-07 -1.03155e-05 4.568e-08)
(8.33293e-07 -1.09966e-05 5.39034e-08)
(9.96862e-07 -1.14964e-05 6.49051e-08)
(1.12354e-06 -1.18631e-05 7.88446e-08)
(1.19754e-06 -1.21286e-05 9.55014e-08)
(1.20484e-06 -1.23152e-05 1.14227e-07)
(1.1353e-06 -1.24402e-05 1.33886e-07)
(9.84746e-07 -1.2518e-05 1.52931e-07)
(7.57301e-07 -1.25615e-05 1.69429e-07)
(4.66166e-07 -1.25818e-05 1.81643e-07)
(1.33332e-07 -1.2588e-05 1.87978e-07)
(-2.13606e-07 -1.25853e-05 1.87992e-07)
(-5.45928e-07 -1.25736e-05 1.81686e-07)
(-8.35987e-07 -1.25476e-05 1.69496e-07)
(-1.06169e-06 -1.24981e-05 1.53018e-07)
(-1.20974e-06 -1.24138e-05 1.34021e-07)
(-1.27586e-06 -1.2282e-05 1.14453e-07)
(-1.2641e-06 -1.20884e-05 9.58368e-08)
(-1.18452e-06 -1.18162e-05 7.93209e-08)
(-1.051e-06 -1.14435e-05 6.5549e-08)
(-8.79248e-07 -1.09392e-05 5.47427e-08)
(-6.85514e-07 -1.0256e-05 4.67348e-08)
(-4.85967e-07 -9.31919e-06 4.10205e-08)
(-2.9583e-07 -8.00152e-06 3.63376e-08)
(-1.33124e-07 -6.06129e-06 3.0364e-08)
(-1.58785e-08 -2.94339e-06 1.65043e-08)
(9.42248e-09 -3.0747e-06 9.57017e-09)
(7.67421e-08 -6.32987e-06 1.76742e-08)
(1.69615e-07 -8.35641e-06 2.1273e-08)
(2.78763e-07 -9.73599e-06 2.43506e-08)
(3.94634e-07 -1.07221e-05 2.83154e-08)
(5.08828e-07 -1.14484e-05 3.39516e-08)
(6.11856e-07 -1.19929e-05 4.162e-08)
(6.93672e-07 -1.24048e-05 5.14528e-08)
(7.44004e-07 -1.27154e-05 6.33182e-08)
(7.53171e-07 -1.29459e-05 7.68229e-08)
(7.13579e-07 -1.31118e-05 9.11874e-08)
(6.21161e-07 -1.32255e-05 1.05337e-07)
(4.77415e-07 -1.32976e-05 1.17813e-07)
(2.90162e-07 -1.3338e-05 1.27242e-07)
(7.37752e-08 -1.33546e-05 1.3221e-07)
(-1.52424e-07 -1.33523e-05 1.32158e-07)
(-3.6783e-07 -1.33311e-05 1.27105e-07)
(-5.53154e-07 -1.3286e-05 1.17606e-07)
(-6.93995e-07 -1.32088e-05 1.05097e-07)
(-7.82586e-07 -1.309e-05 9.09446e-08)
(-8.17487e-07 -1.29189e-05 7.66143e-08)
(-8.02786e-07 -1.26832e-05 6.31916e-08)
(-7.46046e-07 -1.23679e-05 5.14449e-08)
(-6.56979e-07 -1.1952e-05 4.17581e-08)
(-5.45911e-07 -1.14048e-05 3.42521e-08)
(-4.23078e-07 -1.0678e-05 2.87846e-08)
(-2.98364e-07 -9.694e-06 2.49903e-08)
(-1.80833e-07 -8.32016e-06 2.20772e-08)
(-8.10835e-08 -6.30361e-06 1.85719e-08)
(-9.62901e-09 -3.06345e-06 1.02736e-08)
(2.74154e-09 -3.13016e-06 2.87975e-09)
(2.1128e-08 -6.44038e-06 5.05367e-09)
(4.65346e-08 -8.50211e-06 6.01337e-09)
(7.74626e-08 -9.91013e-06 7.10737e-09)
(1.12123e-07 -1.09233e-05 8.84944e-09)
(1.48679e-07 -1.16778e-05 1.15405e-08)
(1.84555e-07 -1.22529e-05 1.53566e-08)
(2.16359e-07 -1.26976e-05 2.04157e-08)
(2.39905e-07 -1.30428e-05 2.67485e-08)
(2.50526e-07 -1.33086e-05 3.42738e-08)
(2.43674e-07 -1.35088e-05 4.26543e-08)
(2.1566e-07 -1.36536e-05 5.1329e-08)
(1.65002e-07 -1.37518e-05 5.93668e-08)
(9.34871e-08 -1.38111e-05 6.57866e-08)
(6.95371e-09 -1.38376e-05 6.93404e-08)
(-8.46264e-08 -1.38356e-05 6.92377e-08)
(-1.69777e-07 -1.3805e-05 6.55155e-08)
(-2.38634e-07 -1.37416e-05 5.89337e-08)
(-2.85461e-07 -1.36392e-05 5.07974e-08)
(-3.08674e-07 -1.34902e-05 4.20868e-08)
(-3.09839e-07 -1.3286e-05 3.37334e-08)
(-2.92837e-07 -1.30164e-05 2.62765e-08)
(-2.6232e-07 -1.26679e-05 2.0042e-08)
(-2.2307e-07 -1.22206e-05 1.51113e-08)
(-1.79389e-07 -1.16442e-05 1.14427e-08)
(-1.34899e-07 -1.089e-05 8.91078e-09)
(-9.25373e-08 -9.87909e-06 7.33892e-09)
(-5.47067e-08 -8.47594e-06 6.41521e-09)
(-2.3984e-08 -6.4219e-06 5.61355e-09)
(-2.75317e-09 -3.12254e-06 3.41195e-09)
(-4.38843e-09 -3.12144e-06 -4.2637e-09)
(-3.78908e-08 -6.42054e-06 -8.39445e-09)
(-8.38563e-08 -8.47646e-06 -1.02481e-08)
(-1.35625e-07 -9.88382e-06 -1.12853e-08)
(-1.86884e-07 -1.09014e-05 -1.19882e-08)
(-2.32654e-07 -1.16652e-05 -1.25846e-08)
(-2.68367e-07 -1.22539e-05 -1.30882e-08)
(-2.90428e-07 -1.27164e-05 -1.34227e-08)
(-2.9645e-07 -1.30828e-05 -1.34373e-08)
(-2.85676e-07 -1.33722e-05 -1.29431e-08)
(-2.59159e-07 -1.35971e-05 -1.17841e-08)
(-2.19786e-07 -1.37662e-05 -9.88603e-09)
(-1.71655e-07 -1.38859e-05 -7.51175e-09)
(-1.19133e-07 -1.39615e-05 -5.12644e-09)
(-6.55372e-08 -1.3997e-05 -3.5703e-09)
(-1.15179e-08 -1.39951e-05 -3.72463e-09)
(4.37515e-08 -1.39559e-05 -5.52329e-09)
(9.94919e-08 -1.38765e-05 -8.13153e-09)
(1.52198e-07 -1.37531e-05 -1.06353e-08)
(1.97178e-07 -1.35806e-05 -1.26042e-08)
(2.30113e-07 -1.33525e-05 -1.3754e-08)
(2.47839e-07 -1.30603e-05 -1.4195e-08)
(2.49145e-07 -1.26916e-05 -1.40757e-08)
(2.34621e-07 -1.22277e-05 -1.36117e-08)
(2.06473e-07 -1.16384e-05 -1.29679e-08)
(1.68078e-07 -1.08755e-05 -1.22151e-08)
(1.23672e-07 -9.86026e-06 -1.13385e-08)
(7.77542e-08 -8.45702e-06 -1.01121e-08)
(3.60249e-08 -6.40717e-06 -8.0509e-09)
(4.50122e-09 -3.11614e-06 -3.83271e-09)
(-1.1635e-08 -3.04616e-06 -1.15158e-08)
(-9.76178e-08 -6.26581e-06 -2.20374e-08)
(-2.15641e-07 -8.27353e-06 -2.67413e-08)
(-3.50859e-07 -9.6501e-06 -2.99601e-08)
(-4.88955e-07 -1.06482e-05 -3.31978e-08)
(-6.18146e-07 -1.14005e-05 -3.72283e-08)
(-7.26813e-07 -1.19841e-05 -4.23225e-08)
(-8.04391e-07 -1.24463e-05 -4.84545e-08)
(-8.41841e-07 -1.28167e-05 -5.53892e-08)
(-8.32755e-07 -1.31137e-05 -6.26776e-08)
(-7.742e-07 -1.3349e-05 -6.97106e-08)
(-6.67696e-07 -1.353e-05 -7.58044e-08)
(-5.19471e-07 -1.36617e-05 -8.0425e-08)
(-3.39613e-07 -1.37472e-05 -8.32786e-08)
(-1.40878e-07 -1.37884e-05 -8.44787e-08)
(6.44317e-08 -1.37867e-05 -8.46494e-08)
(2.65064e-07 -1.37418e-05 -8.37345e-08)
(4.4852e-07 -1.36526e-05 -8.11389e-08)
(6.01817e-07 -1.35177e-05 -7.66884e-08)
(7.14441e-07 -1.33337e-05 -7.06924e-08)
(7.79899e-07 -1.30958e-05 -6.36501e-08)
(7.9634e-07 -1.27967e-05 -5.63151e-08)
(7.66448e-07 -1.24249e-05 -4.92776e-08)
(6.96434e-07 -1.19619e-05 -4.3023e-08)
(5.95132e-07 -1.13785e-05 -3.77974e-08)
(4.72889e-07 -1.06273e-05 -3.36099e-08)
(3.41019e-07 -9.63157e-06 -3.01956e-08)
(2.10909e-07 -8.25858e-06 -2.67598e-08)
(9.63888e-08 -6.25575e-06 -2.18244e-08)
(1.18203e-08 -3.04231e-06 -1.11473e-08)
(-1.86373e-08 -2.90514e-06 -1.85382e-08)
(-1.55167e-07 -5.97808e-06 -3.5238e-08)
(-3.42488e-07 -7.8959e-06 -4.26968e-08)
(-5.57963e-07 -9.21183e-06 -4.80363e-08)
(-7.79605e-07 -1.01664e-05 -5.37464e-08)
(-9.89283e-07 -1.0886e-05 -6.11656e-08)
(-1.16865e-06 -1.14445e-05 -7.07765e-08)
(-1.30047e-06 -1.1887e-05 -8.26847e-08)
(-1.36935e-06 -1.22419e-05 -9.66269e-08)
(-1.36326e-06 -1.25272e-05 -1.11936e-07)
(-1.27524e-06 -1.27542e-05 -1.27642e-07)
(-1.10507e-06 -1.29301e-05 -1.42412e-07)
(-8.60425e-07 -1.30593e-05 -1.54863e-07)
(-5.56536e-07 -1.3144e-05 -1.63779e-07)
(-2.15119e-07 -1.31853e-05 -1.68286e-07)
(1.39495e-07 -1.31835e-05 -1.68459e-07)
(4.82931e-07 -1.31385e-05 -1.64258e-07)
(7.90615e-07 -1.30503e-05 -1.55613e-07)
(1.0406e-06 -1.29181e-05 -1.43343e-07)
(1.21723e-06 -1.27396e-05 -1.28676e-07)
(1.31244e-06 -1.25105e-05 -1.12989e-07)
(1.32609e-06 -1.22237e-05 -9.76358e-08)
(1.26487e-06 -1.18679e-05 -8.3614e-08)
(1.14059e-06 -1.14252e-05 -7.15826e-08)
(9.68417e-07 -1.08672e-05 -6.18379e-08)
(7.65368e-07 -1.0149e-05 -5.42764e-08)
(5.49508e-07 -9.19667e-06 -4.83816e-08)
(3.38644e-07 -7.88394e-06 -4.28198e-08)
(1.54351e-07 -5.97018e-06 -3.51042e-08)
(1.88742e-08 -2.90217e-06 -1.82026e-08)
(-2.50735e-08 -2.70229e-06 -2.49831e-08)
(-2.07723e-07 -5.56557e-06 -4.73308e-08)
(-4.58092e-07 -7.35462e-06 -5.72895e-08)
(-7.46561e-07 -8.58206e-06 -6.45506e-08)
(-1.04422e-06 -9.47077e-06 -7.2476e-08)
(-1.32719e-06 -1.0138e-05 -8.28933e-08)
(-1.571e-06 -1.06525e-05 -9.65102e-08)
(-1.75237e-06 -1.10565e-05 -1.13544e-07)
(-1.85009e-06 -1.1377e-05 -1.33703e-07)
(-1.8471e-06 -1.16316e-05 -1.56166e-07)
(-1.73264e-06 -1.18315e-05 -1.79593e-07)
(-1.50478e-06 -1.19845e-05 -2.02119e-07)
(-1.17233e-06 -1.20957e-05 -2.21609e-07)
(-7.55122e-07 -1.2168e-05 -2.36005e-07)
(-2.82967e-07 -1.22031e-05 -2.4355e-07)
(2.08565e-07 -1.22012e-05 -2.43716e-07)
(6.82748e-07 -1.21625e-05 -2.36471e-07)
(1.10383e-06 -1.20868e-05 -2.2233e-07)
(1.4417e-06 -1.19728e-05 -2.03026e-07)
(1.6761e-06 -1.18174e-05 -1.80602e-07)
(1.79783e-06 -1.16157e-05 -1.57209e-07)
(1.80845e-06 -1.13601e-05 -1.34715e-07)
(1.71841e-06 -1.10391e-05 -1.14488e-07)
(1.5445e-06 -1.06352e-05 -9.73477e-08)
(1.30773e-06 -1.01216e-05 -8.36043e-08)
(1.03116e-06 -9.45581e-06 -7.30442e-08)
(7.38992e-07 -8.56929e-06 -6.49417e-08)
(4.548e-07 -7.3447e-06 -5.7461e-08)
(2.07141e-07 -5.5591e-06 -4.72344e-08)
(2.5331e-08 -2.6999e-06 -2.46676e-08)
(-3.05978e-08 -2.44471e-06 -3.05256e-08)
(-2.52643e-07 -5.04283e-06 -5.77345e-08)
(-5.5673e-07 -6.66905e-06 -6.98195e-08)
(-9.07366e-07 -7.78386e-06 -7.86582e-08)
(-1.26976e-06 -8.5876e-06 -8.83614e-08)
(-1.61505e-06 -9.18592e-06 -1.01174e-07)
(-1.91357e-06 -9.6409e-06 -1.17989e-07)
(-2.13684e-06 -9.99145e-06 -1.39078e-07)
(-2.25873e-06 -1.02628e-05 -1.64099e-07)
(-2.25789e-06 -1.04717e-05 -1.92111e-07)
(-2.12049e-06 -1.06302e-05 -2.21493e-07)
(-1.84331e-06 -1.0747e-05 -2.49991e-07)
(-1.43622e-06 -1.08286e-05 -2.74871e-07)
(-9.22948e-07 -1.088e-05 -2.93447e-07)
(-3.40097e-07 -1.09042e-05 -3.03315e-07)
(2.6738e-07 -1.09024e-05 -3.03461e-07)
(8.52217e-07 -1.08747e-05 -2.93871e-07)
(1.36929e-06 -1.08201e-05 -2.75535e-07)
(1.78172e-06 -1.07357e-05 -2.50822e-07)
(2.06538e-06 -1.06168e-05 -2.22426e-07)
(2.20999e-06 -1.04569e-05 -1.93093e-07)
(2.21838e-06 -1.02471e-05 -1.65064e-07)
(2.10407e-06 -9.97552e-06 -1.3998e-07)
(1.88817e-06 -9.62539e-06 -1.18813e-07)
(1.59653e-06 -9.17137e-06 -1.01883e-07)
(1.25744e-06 -8.5746e-06 -8.89298e-08)
(9.0033e-07 -7.77289e-06 -7.9061e-08)
(5.53743e-07 -6.66065e-06 -7.00059e-08)
(2.52183e-07 -5.03742e-06 -5.76488e-08)
(3.08642e-08 -2.44272e-06 -3.02162e-08)
(-3.49475e-08 -2.14219e-06 -3.48862e-08)
(-2.87707e-07 -4.42988e-06 -6.59224e-08)
(-6.3355e-07 -5.86575e-06 -7.96411e-08)
(-1.03257e-06 -6.84866e-06 -8.96397e-08)
(-1.44546e-06 -7.55263e-06 -1.00595e-07)
(-1.83944e-06 -8.06982e-06 -1.15049e-07)
(-2.18053e-06 -8.4549e-06 -1.34001e-07)
(-2.43608e-06 -8.74262e-06 -1.57753e-07)
(-2.5761e-06 -8.9561e-06 -1.85906e-07)
(-2.57596e-06 -9.1115e-06 -2.17404e-07)
(-2.41977e-06 -9.2212e-06 -2.50442e-07)
(-2.10359e-06 -9.29523e-06 -2.825e-07)
(-1.63836e-06 -9.34202e-06 -3.10532e-07)
(-1.05103e-06 -9.36859e-06 -3.31509e-07)
(-3.83342e-07 -9.37983e-06 -3.42715e-07)
(3.1279e-07 -9.37813e-06 -3.42838e-07)
(9.82386e-07 -9.36364e-06 -3.31869e-07)
(1.57341e-06 -9.3341e-06 -3.11101e-07)
(2.04378e-06 -9.28475e-06 -2.83228e-07)
(2.36624e-06 -9.20881e-06 -2.5127e-07)
(2.52942e-06 -9.09781e-06 -2.18279e-07)
(2.53693e-06 -8.94178e-06 -1.86785e-07)
(2.40433e-06 -8.7283e-06 -1.58588e-07)
(2.15596e-06 -8.44107e-06 -1.34771e-07)
(1.82158e-06 -8.05702e-06 -1.15726e-07)
(1.43364e-06 -7.54134e-06 -1.01151e-07)
(1.02585e-06 -6.8393e-06 -9.00353e-08)
(6.30715e-07 -5.85866e-06 -7.98253e-08)
(2.87282e-07 -4.42537e-06 -6.58388e-08)
(3.52053e-08 -2.14056e-06 -3.45835e-08)
(-3.78784e-08 -1.80675e-06 -3.78295e-08)
(-3.11004e-07 -3.75116e-06 -7.14456e-08)
(-6.84632e-07 -4.97687e-06 -8.62372e-08)
(-1.11627e-06 -5.8144e-06 -9.69226e-08)
(-1.56363e-06 -6.40886e-06 -1.08555e-07)
(-1.99109e-06 -6.83778e-06 -1.2387e-07)
(-2.3615e-06 -7.14785e-06 -1.43904e-07)
(-2.63903e-06 -7.36937e-06 -1.68941e-07)
(-2.79091e-06 -7.52308e-06 -1.98544e-07)
(-2.79046e-06 -7.62436e-06 -2.31557e-07)
(-2.62056e-06 -7.68565e-06 -2.66056e-07)
(-2.27715e-06 -7.71794e-06 -2.99437e-07)
(-1.77232e-06 -7.7312e-06 -3.28574e-07)
(-1.13535e-06 -7.73405e-06 -3.50332e-07)
(-4.1133e-07 -7.73302e-06 -3.61961e-07)
(3.43509e-07 -7.73149e-06 -3.62067e-07)
(1.06932e-06 -7.72955e-06 -3.50648e-07)
(1.70977e-06 -7.72403e-06 -3.29065e-07)
(2.21948e-06 -7.70855e-06 -3.00067e-07)
(2.56888e-06 -7.6746e-06 -2.66786e-07)
(2.74549e-06 -7.61221e-06 -2.32334e-07)
(2.75304e-06 -7.51045e-06 -1.99331e-07)
(2.60831e-06 -7.35679e-06 -1.69705e-07)
(2.33772e-06 -7.13581e-06 -1.44614e-07)
(1.97382e-06 -6.82675e-06 -1.245e-07)
(1.55219e-06 -6.39924e-06 -1.09078e-07)
(1.10975e-06 -5.80653e-06 -9.7288e-08)
(6.81887e-07 -4.97101e-06 -8.64062e-08)
(3.10582e-07 -3.7475e-06 -7.13623e-08)
(3.81222e-08 -1.80545e-06 -3.75352e-08)
(-3.91563e-08 -1.45236e-06 -3.91187e-08)
(-3.20901e-07 -3.03484e-06 -7.38534e-08)
(-7.06828e-07 -4.0392e-06 -8.90339e-08)
(-1.15401e-06 -4.72384e-06 -9.98689e-08)
(-1.61896e-06 -5.20392e-06 -1.11589e-07)
(-2.06429e-06 -5.54207e-06 -1.27e-07)
(-2.45072e-06 -5.77697e-06 -1.47153e-07)
(-2.7403e-06 -5.93425e-06 -1.72297e-07)
(-2.89854e-06 -6.03212e-06 -2.01922e-07)
(-2.89765e-06 -6.08466e-06 -2.34803e-07)
(-2.72012e-06 -6.10393e-06 -2.69003e-07)
(-2.36229e-06 -6.10114e-06 -3.01935e-07)
(-1.83719e-06 -6.08695e-06 -3.30551e-07)
(-1.17547e-06 -6.07085e-06 -3.51841e-07)
(-4.23912e-07 -6.06016e-06 -3.63217e-07)
(3.59402e-07 -6.05885e-06 -3.63306e-07)
(1.11263e-06 -6.067e-06 -3.52108e-07)
(1.77759e-06 -6.08083e-06 -3.30971e-07)
(2.30727e-06 -6.0931e-06 -3.02477e-07)
(2.67073e-06 -6.09447e-06 -2.69634e-07)
(2.8546e-06 -6.0743e-06 -2.35486e-07)
(2.86223e-06 -6.02138e-06 -2.02624e-07)
(2.7108e-06 -5.9236e-06 -1.72984e-07)
(2.42787e-06 -5.76686e-06 -1.47798e-07)
(2.04767e-06 -5.53289e-06 -1.27577e-07)
(1.60793e-06 -5.19598e-06 -1.12077e-07)
(1.14771e-06 -4.71744e-06 -1.00215e-07)
(7.04137e-07 -4.03452e-06 -8.91928e-08)
(3.20454e-07 -3.03202e-06 -7.3773e-08)
(3.93779e-08 -1.45143e-06 -3.88401e-08)
(-3.84886e-08 -1.09497e-06 -3.846e-08)
(-3.15615e-07 -2.31244e-06 -7.25622e-08)
(-6.97161e-07 -3.09315e-06 -8.72823e-08)
(-1.14212e-06 -3.62338e-06 -9.75985e-08)
(-1.60763e-06 -3.98889e-06 -1.0874e-07)
(-2.05551e-06 -4.23798e-06 -1.23497e-07)
(-2.4453e-06 -4.40151e-06 -1.42913e-07)
(-2.73788e-06 -4.50051e-06 -1.67175e-07)
(-2.89805e-06 -4.5504e-06 -1.9572e-07)
(-2.89773e-06 -4.56349e-06 -2.2729e-07)
(-2.71969e-06 -4.55079e-06 -2.59973e-07)
(-2.36085e-06 -4.52286e-06 -2.91285e-07)
(-1.8349e-06 -4.49005e-06 -3.18375e-07)
(-1.17291e-06 -4.46164e-06 -3.38443e-07)
(-4.21638e-07 -4.44492e-06 -3.49145e-07)