/*--------------------------------*- C++ -*----------------------------------*\
| =========                 |                                                 |
| \\      /  F ield         | OpenFOAM: The Open Source CFD Toolbox           |
|  \\    /   O peration     | Version:  v1906                                 |
|   \\  /    A nd           | Web:      www.OpenFOAM.com                      |
|    \\/     M anipulation  |                                                 |
\*---------------------------------------------------------------------------*/
FoamFile
{
    version     2.0;
    format      ascii;
    class       volVectorField;
    location    "54.6/oil";
    object      U;
}
// * * * * * * * * * * * * * * * * * * * * * * * * * * * * * * * * * * * * * //

dimensions      [0 1 -1 0 0 0 0];


internalField   nonuniform List<vector> 
27760
(
(-2.55722e-05 -2.60714e-05 -2.55721e-05)
(-5.04822e-05 -1.95591e-05 -1.84178e-05)
(-3.69626e-06 -5.07537e-06 -5.03235e-06)
(-6.0423e-06 -8.31459e-07 -9.11375e-07)
(-1.30346e-06 -2.69073e-07 -3.62227e-07)
(-5.62653e-07 -1.1487e-07 -2.15106e-07)
(1.02805e-07 -2.17523e-08 -1.29408e-07)
(4.27816e-07 1.80103e-08 -9.61043e-08)
(6.08179e-07 4.05058e-08 -7.83774e-08)
(6.81418e-07 5.44783e-08 -6.75359e-08)
(6.73458e-07 6.45517e-08 -5.91081e-08)
(5.97849e-07 7.19328e-08 -5.23307e-08)
(4.66465e-07 7.74648e-08 -4.68796e-08)
(2.92719e-07 8.1244e-08 -4.29651e-08)
(9.19169e-08 8.32298e-08 -4.08552e-08)
(-1.19032e-07 8.33911e-08 -4.06971e-08)
(-3.22831e-07 8.17737e-08 -4.24448e-08)
(-5.03239e-07 7.85215e-08 -4.58342e-08)
(-6.46569e-07 7.38722e-08 -5.03975e-08)
(-7.42815e-07 6.81199e-08 -5.55047e-08)
(-7.86416e-07 6.15165e-08 -6.04695e-08)
(-7.76871e-07 5.41941e-08 -6.45444e-08)
(-7.18042e-07 4.66661e-08 -6.66992e-08)
(-6.17989e-07 3.89712e-08 -6.64508e-08)
(-4.88849e-07 3.13068e-08 -6.31402e-08)
(-3.4575e-07 2.3999e-08 -5.63324e-08)
(-2.06299e-07 1.77186e-08 -4.60681e-08)
(-8.96757e-08 1.37089e-08 -3.32192e-08)
(-1.34089e-08 1.36668e-08 -2.02983e-08)
(7.8234e-09 1.53082e-08 -7.74352e-09)
(-1.85534e-05 -5.1875e-05 -1.85533e-05)
(-6.08665e-06 -6.72425e-06 -8.30834e-06)
(-8.22413e-06 -8.13533e-06 -2.90437e-06)
(-3.76197e-06 -2.34304e-06 -8.32407e-07)
(-1.39106e-06 -1.41426e-06 -4.15043e-07)
(-2.49902e-07 -7.56636e-07 -2.05309e-07)
(5.65914e-07 -4.67869e-07 -1.02182e-07)
(1.05102e-06 -3.05493e-07 -5.11765e-08)
(1.33198e-06 -2.04394e-07 -2.00328e-08)
(1.4418e-06 -1.31491e-07 1.89897e-09)
(1.40464e-06 -7.38348e-08 1.95956e-08)
(1.23806e-06 -2.71941e-08 3.44756e-08)
(9.62136e-07 9.33615e-09 4.64299e-08)
(6.01738e-07 3.49749e-08 5.49508e-08)
(1.87075e-07 4.87156e-08 5.95133e-08)
(-2.47993e-07 5.00175e-08 5.98203e-08)
(-6.68594e-07 3.91628e-08 5.5949e-08)
(-1.04195e-06 1.73697e-08 4.83885e-08)
(-1.34038e-06 -1.32942e-08 3.79953e-08)
(-1.54374e-06 -5.01407e-08 2.59023e-08)
(-1.64106e-06 -9.01748e-08 1.34116e-08)
(-1.63089e-06 -1.30379e-07 1.94181e-09)
(-1.52114e-06 -1.67455e-07 -7.35133e-09)
(-1.32847e-06 -1.98512e-07 -1.34801e-08)
(-1.07664e-06 -2.20232e-07 -1.56813e-08)
(-7.94986e-07 -2.28636e-07 -1.36667e-08)
(-5.16324e-07 -2.18461e-07 -7.9182e-09)
(-2.73879e-07 -1.83119e-07 -1.46727e-10)
(-9.66919e-08 -1.15968e-07 5.83523e-09)
(-5.52503e-09 -2.62079e-08 5.64587e-09)
(-5.13264e-06 -4.86626e-06 -5.13256e-06)
(-8.07567e-06 -9.12861e-06 -2.96591e-06)
(-4.19069e-06 -5.15166e-06 -1.30332e-06)
(-2.41541e-06 -2.97237e-06 -6.09844e-07)
(-7.66519e-07 -2.06968e-06 -2.7988e-07)
(2.78548e-07 -1.50016e-06 -1.17231e-07)
(1.05268e-06 -1.19004e-06 -3.10469e-08)
(1.55937e-06 -9.86315e-07 1.76574e-08)
(1.85844e-06 -8.37031e-07 5.07823e-08)
(1.96485e-06 -7.14979e-07 7.64481e-08)
(1.89334e-06 -6.10291e-07 9.82481e-08)
(1.6593e-06 -5.20964e-07 1.16937e-07)
(1.28524e-06 -4.49035e-07 1.3211e-07)
(8.02049e-07 -3.97745e-07 1.42964e-07)
(2.48456e-07 -3.70001e-07 1.48771e-07)
(-3.31541e-07 -3.67299e-07 1.49126e-07)
(-8.92382e-07 -3.8914e-07 1.44108e-07)
(-1.39117e-06 -4.32879e-07 1.34305e-07)
(-1.79169e-06 -4.93931e-07 1.20755e-07)
(-2.06767e-06 -5.6626e-07 1.04832e-07)
(-2.20475e-06 -6.42966e-07 8.80545e-08)
(-2.20124e-06 -7.16729e-07 7.19683e-08)
(-2.06757e-06 -7.8027e-07 5.79078e-08)
(-1.82509e-06 -8.26155e-07 4.69392e-08)
(-1.50384e-06 -8.46359e-07 3.97114e-08)
(-1.1402e-06 -8.31663e-07 3.62932e-08)
(-7.73781e-07 -7.70762e-07 3.58968e-08)
(-4.42954e-07 -6.50113e-07 3.63218e-08)
(-1.82571e-07 -4.54288e-07 3.32451e-08)
(-1.8508e-08 -1.77463e-07 1.86606e-08)
(-9.23906e-07 -7.04795e-06 -9.23809e-07)
(-2.11289e-06 -5.40704e-06 -8.31728e-07)
(-1.73334e-06 -4.51694e-06 -5.96031e-07)
(-9.14478e-07 -3.43421e-06 -3.02098e-07)
(8.92781e-08 -2.844e-06 -1.28543e-07)
(8.96434e-07 -2.43482e-06 -2.83516e-08)
(1.55347e-06 -2.16647e-06 3.33614e-08)
(2.01894e-06 -1.95838e-06 7.42847e-08)
(2.29601e-06 -1.78114e-06 1.05916e-07)
(2.37847e-06 -1.6198e-06 1.32837e-07)
(2.2688e-06 -1.47166e-06 1.56872e-07)
(1.9777e-06 -1.34017e-06 1.77969e-07)
(1.5274e-06 -1.23177e-06 1.95292e-07)
(9.51859e-07 -1.15348e-06 2.07745e-07)
(2.95205e-07 -1.11086e-06 2.14402e-07)
(-3.91656e-07 -1.1068e-06 2.14763e-07)
(-1.05571e-06 -1.14066e-06 2.08894e-07)
(-1.64694e-06 -1.20811e-06 1.97454e-07)
(-2.12317e-06 -1.30153e-06 1.8162e-07)
(-2.45395e-06 -1.4108e-06 1.62931e-07)
(-2.62277e-06 -1.52431e-06 1.43072e-07)
(-2.62784e-06 -1.62976e-06 1.2369e-07)
(-2.48126e-06 -1.71466e-06 1.06205e-07)
(-2.20729e-06 -1.7663e-06 9.1697e-08)
(-1.83961e-06 -1.7712e-06 8.07408e-08)
(-1.41829e-06 -1.71427e-06 7.32898e-08)
(-9.86407e-07 -1.57747e-06 6.8428e-08)
(-5.85041e-07 -1.33849e-06 6.36595e-08)
(-2.54583e-07 -9.67145e-07 5.42617e-08)
(-2.88253e-08 -4.20268e-07 2.90163e-08)
(-3.0185e-07 -2.56641e-06 -3.0173e-07)
(-9.89065e-07 -3.89157e-06 -3.60501e-07)
(-6.10897e-07 -4.12046e-06 -2.4448e-07)
(-1.25116e-08 -3.89571e-06 -1.14432e-07)
(7.3147e-07 -3.70075e-06 -2.28354e-08)
(1.40915e-06 -3.50377e-06 3.83297e-08)
(1.98818e-06 -3.3257e-06 8.21718e-08)
(2.41479e-06 -3.14698e-06 1.16289e-07)
(2.66546e-06 -2.96387e-06 1.46173e-07)
(2.72121e-06 -2.77724e-06 1.73831e-07)
(2.57585e-06 -2.59427e-06 1.9966e-07)
(2.23608e-06 -2.42568e-06 2.22881e-07)
(1.72331e-06 -2.28373e-06 2.42178e-07)
(1.0734e-06 -2.17999e-06 2.56135e-07)
(3.34421e-07 -2.1233e-06 2.63595e-07)
(-4.3741e-07 -2.11817e-06 2.63937e-07)
(-1.18324e-06 -2.16393e-06 2.57213e-07)
(-1.84748e-06 -2.25452e-06 2.4416e-07)
(-2.38336e-06 -2.37908e-06 2.26128e-07)
(-2.75731e-06 -2.52312e-06 2.04836e-07)
(-2.95139e-06 -2.66996e-06 1.82163e-07)
(-2.96393e-06 -2.80195e-06 1.59905e-07)
(-2.80836e-06 -2.90109e-06 1.39568e-07)
(-2.511e-06 -2.94921e-06 1.22255e-07)
(-2.10793e-06 -2.9272e-06 1.08523e-07)
(-1.64151e-06 -2.81377e-06 9.82598e-08)
(-1.15709e-06 -2.58329e-06 9.04779e-08)
(-6.98062e-07 -2.2023e-06 8.24554e-08)
(-3.10425e-07 -1.61926e-06 6.90676e-08)
(-3.63134e-08 -7.35723e-07 3.65471e-08)
(-1.23504e-07 -2.22797e-06 -1.23361e-07)
(-2.3774e-07 -3.74421e-06 -1.23985e-07)
(9.00497e-08 -4.43381e-06 -6.8586e-08)
(5.9624e-07 -4.67404e-06 -6.7926e-09)
(1.21754e-06 -4.75939e-06 4.38332e-08)
(1.82118e-06 -4.73743e-06 8.31602e-08)
(2.35044e-06 -4.65142e-06 1.16358e-07)
(2.74751e-06 -4.51359e-06 1.46489e-07)
(2.97555e-06 -4.33775e-06 1.75832e-07)
(3.00769e-06 -4.13761e-06 2.04812e-07)
(2.83175e-06 -3.92946e-06 2.32851e-07)
(2.45125e-06 -3.73129e-06 2.5856e-07)
(1.88677e-06 -3.5613e-06 2.8016e-07)
(1.17546e-06 -3.43578e-06 2.9587e-07)
(3.68674e-07 -3.36697e-06 3.04263e-07)
(-4.72973e-07 -3.36116e-06 3.04577e-07)
(-1.28569e-06 -3.41766e-06 2.96848e-07)
(-2.00919e-06 -3.52877e-06 2.81922e-07)
(-2.59291e-06 -3.68046e-06 2.61361e-07)
(-3.00084e-06 -3.85391e-06 2.37146e-07)
(-3.2142e-06 -4.02757e-06 2.11416e-07)
(-3.23163e-06 -4.17844e-06 1.86161e-07)
(-3.06787e-06 -4.28323e-06 1.63005e-07)
(-2.75104e-06 -4.31843e-06 1.43125e-07)
(-2.31903e-06 -4.2593e-06 1.27082e-07)
(-1.81595e-06 -4.07812e-06 1.14729e-07)
(-1.28904e-06 -3.74072e-06 1.05013e-07)
(-7.83939e-07 -3.19983e-06 9.50074e-08)
(-3.51672e-07 -2.37686e-06 7.91784e-08)
(-4.15529e-08 -1.10517e-06 4.18308e-08)
(-2.35589e-08 -2.05738e-06 -2.33932e-08)
(8.69761e-08 -3.98935e-06 -9.19418e-09)
(4.58992e-07 -5.06808e-06 2.15435e-08)
(9.64171e-07 -5.65241e-06 5.43056e-08)
(1.54887e-06 -5.97026e-06 8.47942e-08)
(2.12353e-06 -6.10408e-06 1.12675e-07)
(2.62927e-06 -6.11125e-06 1.40269e-07)
(3.00977e-06 -6.02347e-06 1.68725e-07)
(3.22295e-06 -5.86733e-06 1.98706e-07)
(3.2378e-06 -5.66657e-06 2.29721e-07)
(3.0384e-06 -5.44529e-06 2.60514e-07)
(2.62593e-06 -5.22798e-06 2.89187e-07)
(2.02022e-06 -5.0382e-06 3.13503e-07)
(1.25958e-06 -4.89669e-06 3.31265e-07)
(3.98028e-07 -4.81891e-06 3.40745e-07)
(-4.99949e-07 -4.81278e-06 3.41029e-07)
(-1.36636e-06 -4.87772e-06 3.32141e-07)
(-2.13687e-06 -5.00453e-06 3.15044e-07)
(-2.75775e-06 -5.17634e-06 2.9156e-07)
(-3.19115e-06 -5.37046e-06 2.64014e-07)
(-3.41782e-06 -5.56083e-06 2.34853e-07)
(-3.4371e-06 -5.71979e-06 2.06314e-07)
(-3.26516e-06 -5.81928e-06 1.80207e-07)
(-2.93169e-06 -5.83084e-06 1.57774e-07)
(-2.47624e-06 -5.7243e-06 1.39609e-07)
(-1.94436e-06 -5.46525e-06 1.25528e-07)
(-1.38481e-06 -5.01005e-06 1.14413e-07)
(-8.45189e-07 -4.2954e-06 1.03158e-07)
(-3.80401e-07 -3.21102e-06 8.58348e-08)
(-4.50629e-08 -1.51318e-06 4.53858e-08)
(1.53295e-08 -2.24604e-06 1.55149e-08)
(2.48514e-07 -4.5673e-06 4.28975e-08)
(6.63873e-07 -5.95729e-06 6.57833e-08)
(1.18637e-06 -6.80263e-06 8.70709e-08)
(1.76383e-06 -7.3112e-06 1.08507e-07)
(2.32855e-06 -7.5817e-06 1.31161e-07)
(2.82385e-06 -7.68002e-06 1.56481e-07)
(3.1958e-06 -7.6494e-06 1.84957e-07)
(3.40039e-06 -7.52486e-06 2.16488e-07)
(3.40439e-06 -7.33738e-06 2.501e-07)
(3.18939e-06 -7.11702e-06 2.84069e-07)
(2.75472e-06 -6.89335e-06 3.1604e-07)
(2.11955e-06 -6.69441e-06 3.43336e-07)
(1.32293e-06 -6.5446e-06 3.63354e-07)
(4.21112e-07 -6.46199e-06 3.74024e-07)
(-5.18314e-07 -6.45589e-06 3.74276e-07)
(-1.42395e-06 -6.52583e-06 3.6412e-07)
(-2.22819e-06 -6.66148e-06 3.44662e-07)
(-2.87478e-06 -6.8436e-06 3.18024e-07)
(-3.32464e-06 -7.04642e-06 2.86894e-07)
(-3.55854e-06 -7.24029e-06 2.54063e-07)
(-3.5768e-06 -7.39367e-06 2.22074e-07)
(-3.39707e-06 -7.47453e-06 1.92943e-07)
(-3.05051e-06 -7.45005e-06 1.67983e-07)
(-2.57807e-06 -7.2851e-06 1.47815e-07)
(-2.02633e-06 -6.93844e-06 1.32213e-07)
(-1.44507e-06 -6.35607e-06 1.20011e-07)
(-8.83159e-07 -5.45707e-06 1.07938e-07)
(-3.97908e-07 -4.09621e-06 8.97611e-08)
(-4.71599e-08 -1.94667e-06 4.75264e-08)
(3.29954e-08 -2.56232e-06 3.31999e-08)
(3.24733e-07 -5.29951e-06 6.76955e-08)
(7.68684e-07 -6.98236e-06 8.75393e-08)
(1.30518e-06 -8.05584e-06 1.03974e-07)
(1.88168e-06 -8.73532e-06 1.21378e-07)
(2.44128e-06 -9.1337e-06 1.4185e-07)
(2.93006e-06 -9.32482e-06 1.66608e-07)
(3.29654e-06 -9.35996e-06 1.95937e-07)
(3.49636e-06 -9.28007e-06 2.29393e-07)
(3.4951e-06 -9.12108e-06 2.65707e-07)
(3.27272e-06 -8.9173e-06 3.02841e-07)
(2.82701e-06 -8.70196e-06 3.38066e-07)
(2.17631e-06 -8.50617e-06 3.68302e-07)
(1.35997e-06 -8.35691e-06 3.90532e-07)
(4.35655e-07 -8.27424e-06 4.02345e-07)
(-5.26962e-07 -8.26844e-06 4.02565e-07)
(-1.45415e-06 -8.33915e-06 3.91199e-07)
(-2.2761e-06 -8.47525e-06 3.6944e-07)
(-2.93499e-06 -8.656e-06 3.39711e-07)
(-3.39122e-06 -8.85332e-06 3.05098e-07)
(-3.62596e-06 -9.03503e-06 2.68755e-07)
(-3.64077e-06 -9.16696e-06 2.33497e-07)
(-3.45474e-06 -9.21408e-06 2.0151e-07)
(-3.1003e-06 -9.14005e-06 1.74213e-07)
(-2.61926e-06 -8.90523e-06 1.52242e-07)
(-2.05861e-06 -8.46161e-06 1.35349e-07)
(-1.46837e-06 -7.74453e-06 1.223e-07)
(-8.97662e-07 -6.65412e-06 1.0972e-07)
(-4.04548e-07 -5.00826e-06 9.12187e-08)
(-4.79682e-08 -2.39354e-06 4.83766e-08)
(4.00545e-08 -2.94194e-06 4.02765e-08)
(3.55302e-07 -6.10836e-06 7.78516e-08)
(8.08751e-07 -8.07435e-06 9.63911e-08)
(1.34598e-06 -9.35808e-06 1.10773e-07)
(1.91455e-06 -1.01971e-05 1.26451e-07)
(2.46365e-06 -1.07194e-05 1.46133e-07)
(2.94234e-06 -1.10069e-05 1.71022e-07)
(3.30143e-06 -1.1117e-05 2.01335e-07)
(3.49729e-06 -1.10952e-05 2.36535e-07)
(3.4952e-06 -1.09805e-05 2.75174e-07)
(3.2739e-06 -1.08097e-05 3.14991e-07)
(2.82979e-06 -1.06179e-05 3.52969e-07)
(2.18018e-06 -1.04381e-05 3.85668e-07)
(1.3639e-06 -1.02988e-05 4.09734e-07)
(4.38983e-07 -1.0221e-05 4.22497e-07)
(-5.24138e-07 -1.02157e-05 4.22686e-07)
(-1.45111e-06 -1.02827e-05 4.10299e-07)
(-2.27131e-06 -1.04103e-05 3.86608e-07)
(-2.92645e-06 -1.05769e-05 3.54305e-07)
(-3.37729e-06 -1.07534e-05 3.16788e-07)
(-3.60605e-06 -1.09064e-05 2.775e-07)
(-3.6156e-06 -1.10001e-05 2.39543e-07)
(-3.42621e-06 -1.09977e-05 2.05249e-07)
(-3.07113e-06 -1.08605e-05 1.76108e-07)
(-2.59217e-06 -1.05448e-05 1.52742e-07)
(-2.03597e-06 -9.99611e-06 1.34881e-07)
(-1.45164e-06 -9.13905e-06 1.21278e-07)
(-8.87237e-07 -7.8544e-06 1.08521e-07)
(-3.99848e-07 -5.92232e-06 9.01867e-08)
(-4.7464e-08 -2.84164e-06 4.79131e-08)
(4.17469e-08 -3.33991e-06 4.19781e-08)
(3.56973e-07 -6.9336e-06 7.97341e-08)
(8.00313e-07 -9.17295e-06 9.72106e-08)
(1.3206e-06 -1.06549e-05 1.10455e-07)
(1.86725e-06 -1.16461e-05 1.25241e-07)
(2.39411e-06 -1.22905e-05 1.44498e-07)
(2.85362e-06 -1.26785e-05 1.69437e-07)
(3.19947e-06 -1.28728e-05 2.003e-07)
(3.38964e-06 -1.29217e-05 2.36491e-07)
(3.38982e-06 -1.28662e-05 2.76507e-07)
(3.17816e-06 -1.27438e-05 3.1795e-07)
(2.74981e-06 -1.25901e-05 3.57615e-07)
(2.12057e-06 -1.24385e-05 3.91847e-07)
(1.32785e-06 -1.23179e-05 4.17049e-07)
(4.28525e-07 -1.22496e-05 4.30355e-07)
(-5.08012e-07 -1.22449e-05 4.30514e-07)
(-1.40865e-06 -1.23036e-05 4.17521e-07)
(-2.20384e-06 -1.24141e-05 3.92623e-07)
(-2.83643e-06 -1.25545e-05 3.5868e-07)
(-3.26864e-06 -1.26957e-05 3.19312e-07)
(-3.48414e-06 -1.2804e-05 2.78231e-07)
(-3.48713e-06 -1.28435e-05 2.38664e-07)
(-3.29873e-06 -1.27769e-05 2.03022e-07)
(-2.9522e-06 -1.25639e-05 1.72838e-07)
(-2.48844e-06 -1.21578e-05 1.4874e-07)
(-1.9524e-06 -1.14985e-05 1.30433e-07)
(-1.39097e-06 -1.04998e-05 1.16652e-07)
(-8.49796e-07 -9.02327e-06 1.04081e-07)
(-3.8299e-07 -6.81195e-06 8.64778e-08)
(-4.5544e-08 -3.27812e-06 4.60337e-08)
(4.00619e-08 -3.72821e-06 4.03089e-08)
(3.37192e-07 -7.7295e-06 7.60103e-08)
(7.51013e-07 -1.02261e-05 9.21183e-08)
(1.23467e-06 -1.18932e-05 1.04342e-07)
(1.7415e-06 -1.30289e-05 1.1829e-07)
(2.23023e-06 -1.37931e-05 1.36913e-07)
(2.65771e-06 -1.42846e-05 1.61373e-07)
(2.98151e-06 -1.45705e-05 1.9193e-07)
(3.16216e-06 -1.47009e-05 2.27993e-07)
(3.1668e-06 -1.47173e-05 2.68077e-07)
(2.97358e-06 -1.46564e-05 3.09761e-07)
(2.57649e-06 -1.45533e-05 3.49769e-07)
(1.98921e-06 -1.44405e-05 3.8435e-07)
(1.24651e-06 -1.43461e-05 4.09829e-07)
(4.02336e-07 -1.42911e-05 4.23223e-07)
(-4.77038e-07 -1.42872e-05 4.23348e-07)
(-1.32191e-06 -1.43339e-05 4.10183e-07)
(-2.06592e-06 -1.44198e-05 3.84922e-07)
(-2.65478e-06 -1.45234e-05 3.50554e-07)
(-3.0534e-06 -1.46163e-05 3.10747e-07)
(-3.24773e-06 -1.46659e-05 2.69307e-07)
(-3.24329e-06 -1.46375e-05 2.29507e-07)
(-3.06144e-06 -1.44944e-05 1.9378e-07)
(-2.73432e-06 -1.41958e-05 1.63629e-07)
(-2.30077e-06 -1.36929e-05 1.39642e-07)
(-1.80259e-06 -1.29205e-05 1.21532e-07)
(-1.2829e-06 -1.17827e-05 1.08074e-07)
(-7.83295e-07 -1.01229e-05 9.61429e-08)
(-3.53047e-07 -7.64838e-06 7.98702e-08)
(-4.2081e-08 -3.68895e-06 4.26081e-08)
(3.59084e-08 -4.08465e-06 3.61542e-08)
(2.99374e-07 -8.45589e-06 6.78622e-08)
(6.64599e-07 -1.11849e-05 8.20326e-08)
(1.09103e-06 -1.302e-05 9.29924e-08)
(1.53812e-06 -1.42896e-05 1.05812e-07)
(1.97052e-06 -1.51688e-05 1.23219e-07)
(2.35079e-06 -1.57638e-05 1.46321e-07)
(2.64163e-06 -1.61455e-05 1.75376e-07)
(2.8075e-06 -1.63649e-05 2.09844e-07)
(2.81807e-06 -1.64625e-05 2.48325e-07)
(2.65217e-06 -1.64737e-05 2.88511e-07)
(2.30266e-06 -1.6431e-05 3.27253e-07)
(1.7805e-06 -1.63651e-05 3.60794e-07)
(1.11633e-06 -1.63025e-05 3.85532e-07)
(3.59116e-07 -1.6264e-05 3.98503e-07)
(-4.30242e-07 -1.62606e-05 3.98578e-07)
(-1.18761e-06 -1.62923e-05 3.85759e-07)
(-1.85202e-06 -1.63478e-05 3.61158e-07)
(-2.37425e-06 -1.64061e-05 3.27743e-07)
(-2.72345e-06 -1.64407e-05 2.89142e-07)
(-2.88843e-06 -1.64208e-05 2.49103e-07)
(-2.87604e-06 -1.63141e-05 2.10789e-07)
(-2.70706e-06 -1.60856e-05 1.76551e-07)
(-2.41142e-06 -1.56954e-05 1.47751e-07)
(-2.02437e-06 -1.50932e-05 1.24943e-07)
(-1.583e-06 -1.42098e-05 1.07825e-07)
(-1.12501e-06 -1.29408e-05 9.52695e-08)
(-6.86323e-07 -1.1113e-05 8.44565e-08)
(-3.09373e-07 -8.40104e-06 7.01658e-08)
(-3.69911e-08 -4.0592e-06 3.75577e-08)
(2.96576e-08 -4.39022e-06 2.99151e-08)
(2.45373e-07 -9.07616e-06 5.59172e-08)
(5.43718e-07 -1.20028e-05 6.75275e-08)
(8.9252e-07 -1.39827e-05 7.67857e-08)
(1.25939e-06 -1.5371e-05 8.79781e-08)
(1.61637e-06 -1.63563e-05 1.03445e-07)
(1.93318e-06 -1.70511e-05 1.24134e-07)
(2.17911e-06 -1.7529e-05 1.5036e-07)
(2.32411e-06 -1.78412e-05 1.81719e-07)
(2.34147e-06 -1.80263e-05 2.17012e-07)
(2.2117e-06 -1.81168e-05 2.54151e-07)
(1.92654e-06 -1.81421e-05 2.9024e-07)
(1.49328e-06 -1.81297e-05 3.21701e-07)
(9.36747e-07 -1.81038e-05 3.45105e-07)
(2.98722e-07 -1.8084e-05 3.57438e-07)
(-3.67456e-07 -1.80813e-05 3.57464e-07)
(-1.00514e-06 -1.80954e-05 3.45188e-07)
(-1.56096e-06 -1.81153e-05 3.21838e-07)
(-1.99305e-06 -1.81216e-05 2.90426e-07)
(-2.27649e-06 -1.80899e-05 2.54418e-07)
(-2.40379e-06 -1.79927e-05 2.17405e-07)
(-2.38304e-06 -1.78009e-05 1.82237e-07)
(-2.23367e-06 -1.74823e-05 1.51025e-07)
(-1.98214e-06 -1.69985e-05 1.24958e-07)
(-1.65839e-06 -1.62994e-05 1.04446e-07)
(-1.29321e-06 -1.53123e-05 8.91702e-08)
(-9.17128e-07 -1.39257e-05 7.81581e-08)
(-5.58766e-07 -1.19524e-05 6.90107e-08)
(-2.51866e-07 -9.03866e-06 5.73418e-08)
(-3.02321e-08 -4.37349e-06 3.08315e-08)
(2.15767e-08 -4.62765e-06 2.18297e-08)
(1.76846e-07 -9.55623e-06 4.05623e-08)
(3.91374e-07 -1.2636e-05 4.89582e-08)
(6.43229e-07 -1.47308e-05 5.60184e-08)
(9.10153e-07 -1.62174e-05 6.49579e-08)
(1.17285e-06 -1.7295e-05 7.758e-08)
(1.4098e-06 -1.80811e-05 9.47119e-08)
(1.59843e-06 -1.86511e-05 1.16669e-07)
(1.71569e-06 -1.90554e-05 1.43187e-07)
(1.73995e-06 -1.93302e-05 1.73397e-07)
(1.65413e-06 -1.95044e-05 2.05603e-07)
(1.44908e-06 -1.96032e-05 2.3739e-07)
(1.12784e-06 -1.96499e-05 2.65553e-07)
(7.07823e-07 -1.96656e-05 2.8688e-07)
(2.21177e-07 -1.96672e-05 2.9828e-07)
(-2.88626e-07 -1.96649e-05 2.98246e-07)
(-7.74487e-07 -1.96585e-05 2.868e-07)
(-1.19299e-06 -1.9638e-05 2.65448e-07)
(-1.51194e-06 -1.95862e-05 2.37296e-07)
(-1.71399e-06 -1.94823e-05 2.0554e-07)
(-1.79612e-06 -1.93029e-05 1.73391e-07)
(-1.76746e-06 -1.90232e-05 1.43275e-07)
(-1.64499e-06 -1.86144e-05 1.1688e-07)
(-1.45032e-06 -1.80407e-05 9.50623e-08)
(-1.20651e-06 -1.7252e-05 7.80763e-08)
(-9.36291e-07 -1.6174e-05 6.55947e-08)
(-6.615e-07 -1.46896e-05 5.67844e-08)
(-4.0204e-07 -1.26004e-05 4.98382e-08)
(-1.81124e-07 -9.5304e-06 4.14669e-08)
(-2.18453e-08 -4.61653e-06 2.2476e-08)
(1.19284e-08 -4.78175e-06 1.21754e-08)
(9.58032e-08 -9.86588e-06 2.22918e-08)
(2.11776e-07 -1.30451e-05 2.68883e-08)
(3.49714e-07 -1.52183e-05 3.12307e-08)
(4.99048e-07 -1.67769e-05 3.72808e-08)
(6.50284e-07 -1.79275e-05 4.61779e-08)
(7.92048e-07 -1.87909e-05 5.85188e-08)
(9.11245e-07 -1.94431e-05 7.4634e-08)
(9.93249e-07 -1.99333e-05 9.45113e-08)
(1.02301e-06 -2.02953e-05 1.17721e-07)
(9.87033e-07 -2.05538e-05 1.43125e-07)
(8.75899e-07 -2.07291e-05 1.68918e-07)
(6.87836e-07 -2.08394e-05 1.92421e-07)
(4.31457e-07 -2.09008e-05 2.10787e-07)
(1.27145e-07 -2.09265e-05 2.20888e-07)
(-1.94061e-07 -2.09245e-05 2.20813e-07)
(-4.97197e-07 -2.08947e-05 2.106e-07)
(-7.5136e-07 -2.08291e-05 1.92124e-07)
(-9.36262e-07 -2.07146e-05 1.68565e-07)
(-1.04347e-06 -2.05352e-05 1.42774e-07)
(-1.07477e-06 -2.02729e-05 1.17423e-07)
(-1.03974e-06 -1.99074e-05 9.429e-08)
(-9.51926e-07 -1.9414e-05 7.45043e-08)
(-8.26444e-07 -1.87594e-05 5.85047e-08)
(-6.77987e-07 -1.78947e-05 4.62918e-08)
(-5.19843e-07 -1.67445e-05 3.75271e-08)
(-3.63692e-07 -1.51881e-05 3.16097e-08)
(-2.19533e-07 -1.30197e-05 2.73823e-08)
(-9.86531e-08 -9.84791e-06 2.28765e-08)
(-1.20046e-08 -4.77431e-06 1.26619e-08)
(1.02625e-09 -4.8399e-06 1.2611e-09)
(5.00343e-09 -9.98004e-06 1.68953e-09)
(1.09575e-08 -1.31972e-05 1.9714e-09)
(2.16196e-08 -1.54061e-05 3.12834e-09)
(3.91332e-08 -1.70049e-05 5.62636e-09)
(6.46631e-08 -1.82032e-05 9.82137e-09)
(9.78566e-08 -1.91231e-05 1.60484e-08)
(1.36261e-07 -1.98405e-05 2.46017e-08)
(1.75067e-07 -2.0403e-05 3.56685e-08)
(2.07121e-07 -2.08417e-05 4.9227e-08)
(2.23794e-07 -2.11777e-05 6.48418e-08)
(2.16381e-07 -2.14262e-05 8.15942e-08)
(1.7882e-07 -2.15995e-05 9.76523e-08)
(1.10248e-07 -2.17076e-05 1.10823e-07)
(1.74068e-08 -2.17583e-05 1.18379e-07)
(-8.4285e-08 -2.17565e-05 1.18251e-07)
(-1.75675e-07 -2.17021e-05 1.10516e-07)
(-2.41477e-07 -2.15904e-05 9.71781e-08)
(-2.75127e-07 -2.14135e-05 8.10415e-08)
(-2.77796e-07 -2.11618e-05 6.42507e-08)
(-2.55694e-07 -2.08228e-05 4.86661e-08)
(-2.17772e-07 -2.03815e-05 3.51609e-08)
(-1.72744e-07 -1.98169e-05 2.41948e-08)
(-1.27891e-07 -1.90981e-05 1.57588e-08)
(-8.81673e-08 -1.81778e-05 9.6495e-09)
(-5.62032e-08 -1.69803e-05 5.58402e-09)
(-3.26308e-08 -1.53837e-05 3.22359e-09)
(-1.67212e-08 -1.31788e-05 2.20306e-09)
(-6.88619e-09 -9.96735e-06 2.06522e-09)
(-9.76186e-10 -4.83488e-06 1.65545e-09)
(-1.06902e-08 -4.79297e-06 -1.04554e-08)
(-9.1897e-08 -9.88074e-06 -2.0401e-08)
(-2.03007e-07 -1.30688e-05 -2.47692e-08)
(-3.27872e-07 -1.5266e-05 -2.71568e-08)
(-4.51259e-07 -1.68679e-05 -2.87368e-08)
(-5.60912e-07 -1.80829e-05 -3.00261e-08)
(-6.45729e-07 -1.90315e-05 -3.10931e-08)
(-6.96901e-07 -1.97884e-05 -3.17161e-08)
(-7.08525e-07 -2.03995e-05 -3.1561e-08)
(-6.78709e-07 -2.08936e-05 -3.0224e-08)
(-6.09747e-07 -2.12884e-05 -2.74256e-08)
(-5.0826e-07 -2.15948e-05 -2.31154e-08)
(-3.83791e-07 -2.18197e-05 -1.79162e-08)
(-2.46511e-07 -2.19672e-05 -1.28253e-08)
(-1.04852e-07 -2.20394e-05 -9.53615e-09)
(3.78846e-08 -2.20378e-05 -9.68034e-09)
(1.81236e-07 -2.19622e-05 -1.31944e-08)
(3.21686e-07 -2.18113e-05 -1.84922e-08)
(4.50588e-07 -2.15834e-05 -2.38189e-08)
(5.57366e-07 -2.12742e-05 -2.82004e-08)
(6.32292e-07 -2.0877e-05 -3.09627e-08)
(6.6845e-07 -2.0381e-05 -3.22517e-08)
(6.63352e-07 -1.97686e-05 -3.23055e-08)
(6.18737e-07 -1.90111e-05 -3.15728e-08)
(5.40333e-07 -1.80626e-05 -3.0398e-08)
(4.36767e-07 -1.68488e-05 -2.89751e-08)
(3.18876e-07 -1.52489e-05 -2.7252e-08)
(1.9857e-07 -1.30551e-05 -2.4689e-08)
(9.06428e-08 -9.87158e-06 -2.01536e-08)
(1.08144e-08 -4.7895e-06 -1.01193e-08)
(-2.2651e-08 -4.63654e-06 -2.24403e-08)
(-1.90303e-07 -9.55961e-06 -4.29713e-08)
(-4.20009e-07 -1.26486e-05 -5.21143e-08)
(-6.8233e-07 -1.47839e-05 -5.82329e-08)
(-9.48976e-07 -1.63486e-05 -6.4188e-08)
(-1.19688e-06 -1.75444e-05 -7.14652e-08)
(-1.40346e-06 -1.84882e-05 -8.05072e-08)
(-1.54847e-06 -1.92516e-05 -9.13215e-08)
(-1.61502e-06 -1.98786e-05 -1.03527e-07)
(-1.59141e-06 -2.03956e-05 -1.16339e-07)
(-1.47278e-06 -2.08181e-05 -1.28843e-07)
(-1.26251e-06 -2.11541e-05 -1.39831e-07)
(-9.72412e-07 -2.14067e-05 -1.48441e-07)
(-6.21481e-07 -2.15761e-05 -1.54011e-07)
(-2.3368e-07 -2.16606e-05 -1.56543e-07)
(1.66753e-07 -2.1659e-05 -1.56693e-07)
(5.56397e-07 -2.15711e-05 -1.54421e-07)
(9.10723e-07 -2.13987e-05 -1.4908e-07)
(1.20557e-06 -2.11434e-05 -1.40612e-07)
(1.42157e-06 -2.0805e-05 -1.29699e-07)
(1.54653e-06 -2.03807e-05 -1.172e-07)
(1.57676e-06 -1.98623e-05 -1.04335e-07)
(1.51693e-06 -1.92346e-05 -9.20577e-08)
(1.37853e-06 -1.8471e-05 -8.11255e-08)
(1.17828e-06 -1.75277e-05 -7.19644e-08)
(9.36208e-07 -1.63333e-05 -6.4571e-08)
(6.74666e-07 -1.47706e-05 -5.84562e-08)
(4.16452e-07 -1.26381e-05 -5.21535e-08)
(1.89479e-07 -9.5528e-06 -4.28088e-08)
(2.2837e-08 -4.63406e-06 -2.21333e-08)
(-3.42664e-08 -4.37152e-06 -3.40628e-08)
(-2.85091e-07 -9.01908e-06 -6.48145e-08)
(-6.28579e-07 -1.19401e-05 -7.85657e-08)
(-1.02287e-06 -1.39636e-05 -8.83454e-08)
(-1.42738e-06 -1.54503e-05 -9.86117e-08)
(-1.80879e-06 -1.65897e-05 -1.11761e-07)
(-2.13356e-06 -1.74925e-05 -1.28668e-07)
(-2.37041e-06 -1.8226e-05 -1.49566e-07)
(-2.4917e-06 -1.88312e-05 -1.7404e-07)
(-2.47615e-06 -1.93333e-05 -2.01014e-07)
(-2.31144e-06 -1.97461e-05 -2.28861e-07)
(-1.99728e-06 -2.00762e-05 -2.55308e-07)
(-1.5471e-06 -2.03258e-05 -2.77976e-07)
(-9.88208e-07 -2.0494e-05 -2.94494e-07)
(-3.59658e-07 -2.05784e-05 -3.03081e-07)
(2.93168e-07 -2.05767e-05 -3.03234e-07)
(9.2358e-07 -2.04892e-05 -2.94913e-07)
(1.48602e-06 -2.0318e-05 -2.78615e-07)
(1.94108e-06 -2.00659e-05 -2.56104e-07)
(2.26113e-06 -1.97337e-05 -2.29733e-07)
(2.43234e-06 -1.93196e-05 -2.01909e-07)
(2.4547e-06 -1.88166e-05 -1.74894e-07)
(2.34023e-06 -1.82109e-05 -1.50355e-07)
(2.10999e-06 -1.74777e-05 -1.29354e-07)
(1.79147e-06 -1.65757e-05 -1.12329e-07)
(1.41573e-06 -1.54375e-05 -9.90538e-08)
(1.01609e-06 -1.39529e-05 -8.86327e-08)
(6.25592e-07 -1.19319e-05 -7.86687e-08)
(2.84521e-07 -9.01386e-06 -6.46963e-08)
(3.44801e-08 -4.36971e-06 -3.37763e-08)
(-4.48327e-08 -4.00489e-06 -4.46533e-08)
(-3.70841e-07 -8.27383e-06 -8.4718e-08)
(-8.16946e-07 -1.0963e-05 -1.02649e-07)
(-1.33033e-06 -1.28282e-05 -1.15706e-07)
(-1.85943e-06 -1.41984e-05 -1.29816e-07)
(-2.36169e-06 -1.52469e-05 -1.48208e-07)
(-2.79363e-06 -1.60748e-05 -1.72152e-07)
(-3.11394e-06 -1.67441e-05 -2.02024e-07)
(-3.28517e-06 -1.72929e-05 -2.37337e-07)
(-3.27714e-06 -1.77444e-05 -2.76767e-07)
(-3.07085e-06 -1.81122e-05 -3.18065e-07)
(-2.66268e-06 -1.84038e-05 -3.58062e-07)
(-2.0676e-06 -1.86221e-05 -3.92998e-07)
(-1.32032e-06 -1.87681e-05 -4.19038e-07)
(-4.73609e-07 -1.88409e-05 -4.32887e-07)
(4.08046e-07 -1.88393e-05 -4.33022e-07)
(1.25659e-06 -1.87635e-05 -4.19431e-07)
(2.00738e-06 -1.86148e-05 -3.9361e-07)
(2.60734e-06 -1.83941e-05 -3.58816e-07)
(3.02144e-06 -1.81008e-05 -3.18901e-07)
(3.23428e-06 -1.77318e-05 -2.77646e-07)
(3.24912e-06 -1.72796e-05 -2.38191e-07)
(3.08472e-06 -1.67307e-05 -2.02808e-07)
(2.77101e-06 -1.60619e-05 -1.72865e-07)
(2.34521e-06 -1.52349e-05 -1.4881e-07)
(1.84849e-06 -1.41878e-05 -1.30284e-07)
(1.32409e-06 -1.28193e-05 -1.16028e-07)
(8.14293e-07 -1.09564e-05 -1.02783e-07)
(3.70424e-07 -8.26976e-06 -8.46178e-08)
(4.50665e-08 -4.00353e-06 -4.43712e-08)
(-5.37302e-08 -3.54961e-06 -5.35651e-08)
(-4.42432e-07 -7.35049e-06 -1.01465e-07)
(-9.7391e-07 -9.75254e-06 -1.22861e-07)
(-1.58658e-06 -1.14193e-05 -1.38595e-07)
(-2.21993e-06 -1.26404e-05 -1.55795e-07)
(-2.8236e-06 -1.35689e-05 -1.7835e-07)
(-3.3455e-06 -1.42944e-05 -2.07794e-07)
(-3.73564e-06 -1.48726e-05 -2.44612e-07)
(-3.94818e-06 -1.53381e-05 -2.8822e-07)
(-3.94552e-06 -1.57127e-05 -3.3703e-07)
(-3.70341e-06 -1.60103e-05 -3.88314e-07)
(-3.2158e-06 -1.62399e-05 -4.38173e-07)
(-2.4993e-06 -1.64073e-05 -4.81914e-07)
(-1.5952e-06 -1.65169e-05 -5.14699e-07)
(-5.67595e-07 -1.65705e-05 -5.32259e-07)
(5.03486e-07 -1.6569e-05 -5.32373e-07)
(1.53287e-06 -1.65126e-05 -5.15034e-07)
(2.44043e-06 -1.64006e-05 -4.82443e-07)
(3.16168e-06 -1.62309e-05 -4.3885e-07)
(3.65509e-06 -1.59998e-05 -3.89078e-07)
(3.90362e-06 -1.57012e-05 -3.37833e-07)
(3.913e-06 -1.53262e-05 -2.89024e-07)
(3.70723e-06 -1.48608e-05 -2.45365e-07)
(3.32358e-06 -1.42831e-05 -2.08485e-07)
(2.80773e-06 -1.35585e-05 -1.7895e-07)
(2.20947e-06 -1.26315e-05 -1.56284e-07)
(1.58067e-06 -1.14121e-05 -1.38936e-07)
(9.71437e-07 -9.74726e-06 -1.23012e-07)
(4.42076e-07 -7.34732e-06 -1.01376e-07)
(5.39634e-08 -3.54861e-06 -5.32904e-08)
(-6.03441e-08 -3.02405e-06 -6.01982e-08)
(-4.95057e-07 -6.28654e-06 -1.13917e-07)
(-1.08941e-06 -8.35821e-06 -1.37857e-07)
(-1.77601e-06 -9.79548e-06 -1.5547e-07)
(-2.48785e-06 -1.08426e-05 -1.74781e-07)
(-3.16848e-06 -1.16298e-05 -2.00165e-07)
(-3.7589e-06 -1.22341e-05 -2.33297e-07)
(-4.20202e-06 -1.27042e-05 -2.74673e-07)
(-4.44537e-06 -1.3071e-05 -3.23631e-07)
(-4.44593e-06 -1.33549e-05 -3.78327e-07)
(-4.17567e-06 -1.35702e-05 -4.35657e-07)
(-3.62728e-06 -1.37278e-05 -4.9131e-07)
(-2.81931e-06 -1.38367e-05 -5.40087e-07)
(-1.79826e-06 -1.39043e-05 -5.76608e-07)
(-6.36597e-07 -1.39361e-05 -5.9618e-07)
(5.74605e-07 -1.39348e-05 -5.96281e-07)
(1.73794e-06 -1.39005e-05 -5.76916e-07)
(2.76226e-06 -1.38306e-05 -5.40559e-07)
(3.57479e-06 -1.37198e-05 -4.91913e-07)
(4.12876e-06 -1.35609e-05 -4.36355e-07)
(4.40524e-06 -1.33447e-05 -3.79065e-07)
(4.41123e-06 -1.30606e-05 -3.24373e-07)
(4.17445e-06 -1.2694e-05 -2.75392e-07)
(3.73765e-06 -1.22245e-05 -2.3396e-07)
(3.15313e-06 -1.1621e-05 -2.00748e-07)
(2.47774e-06 -1.08352e-05 -1.75262e-07)
(1.77031e-06 -9.78962e-06 -1.55796e-07)
(1.08706e-06 -8.35405e-06 -1.38006e-07)
(4.94739e-07 -6.28414e-06 -1.13839e-07)
(6.05729e-08 -3.02335e-06 -5.9932e-08)
(-6.40786e-08 -2.4517e-06 -6.39526e-08)
(-5.24403e-07 -5.12936e-06 -1.20938e-07)
(-1.15475e-06 -6.84193e-06 -1.46203e-07)
(-1.8856e-06 -8.02884e-06 -1.64701e-07)
(-2.64648e-06 -8.88587e-06 -1.85e-07)
(-3.37666e-06 -9.51909e-06 -2.11736e-07)
(-4.01202e-06 -9.99288e-06 -2.46674e-07)
(-4.49018e-06 -1.03483e-05 -2.90272e-07)
(-4.75394e-06 -1.06124e-05 -3.41717e-07)
(-4.75665e-06 -1.0804e-05 -3.98963e-07)
(-4.46819e-06 -1.09375e-05 -4.58714e-07)
(-3.88109e-06 -1.10251e-05 -5.1647e-07)
(-3.01568e-06 -1.1078e-05 -5.66872e-07)
(-1.92209e-06 -1.11063e-05 -6.04482e-07)
(-6.78075e-07 -1.11177e-05 -6.24624e-07)
(6.18842e-07 -1.11165e-05 -6.2471e-07)
(1.86442e-06 -1.1103e-05 -6.04747e-07)
(2.96109e-06 -1.10728e-05 -5.67285e-07)
(3.83081e-06 -1.10183e-05 -5.17003e-07)
(4.42318e-06 -1.09296e-05 -4.59332e-07)
(4.71755e-06 -1.07954e-05 -3.99628e-07)
(4.7211e-06 -1.06035e-05 -3.42399e-07)
(4.46363e-06 -1.03396e-05 -2.90937e-07)
(3.99157e-06 -9.98484e-06 -2.47292e-07)
(3.3619e-06 -9.51195e-06 -2.12284e-07)
(2.63676e-06 -8.87986e-06 -1.85467e-07)
(1.88012e-06 -8.0242e-06 -1.65028e-07)
(1.15247e-06 -6.83873e-06 -1.46355e-07)
(5.2408e-07 -5.12765e-06 -1.20869e-07)
(6.42924e-08 -2.45129e-06 -6.37019e-08)
(-6.42634e-08 -1.86102e-06 -6.41556e-08)
(-5.26103e-07 -3.93526e-06 -1.21211e-07)
(-1.16199e-06 -5.27612e-06 -1.46225e-07)
(-1.90447e-06 -6.20301e-06 -1.64316e-07)
(-2.68283e-06 -6.86296e-06 -1.84259e-07)
(-3.43384e-06 -7.33834e-06 -2.10771e-07)
(-4.09e-06 -7.68079e-06 -2.45659e-07)
(-4.58546e-06 -7.924e-06 -2.89281e-07)
(-4.86028e-06 -8.09106e-06 -3.40699e-07)
(-4.86591e-06 -8.19859e-06 -3.97733e-07)
(-4.57162e-06 -8.26021e-06 -4.57001e-07)
(-3.9704e-06 -8.2884e-06 -5.1401e-07)
(-3.08399e-06 -8.29529e-06 -5.63539e-07)
(-1.96437e-06 -8.292e-06 -6.0034e-07)
(-6.91326e-07 -8.28743e-06 -6.20003e-07)
(6.35642e-07 -8.28652e-06 -6.20078e-07)