/*--------------------------------*- C++ -*----------------------------------*\
| =========                 |                                                 |
| \\      /  F ield         | OpenFOAM: The Open Source CFD Toolbox           |
|  \\    /   O peration     | Version:  v1912                                 |
|   \\  /    A nd           | Website:  www.openfoam.com                      |
|    \\/     M anipulation  |                                                 |
\*---------------------------------------------------------------------------*/
FoamFile
{
    version     2.0;
    format      ascii;
    class       volScalarField;
    location    "502/oil";
    object      wallHeatFlux;
}
// * * * * * * * * * * * * * * * * * * * * * * * * * * * * * * * * * * * * * //

dimensions      [1 0 -3 0 0 0 0];


internalField   uniform 0;

boundaryField
{
    maxY
    {
        type            calculated;
        value           uniform 0;
    }
    minX
    {
        type            calculated;
        value           uniform 0;
    }
    maxX
    {
        type            calculated;
        value           uniform 0;
    }
    minY
    {
        type            calculated;
        value           uniform 0;
    }
    minZ
    {
        type            calculated;
        value           uniform 0;
    }
    maxZ
    {
        type            calculated;
        value           uniform 0;
    }
    oil_to_sphere
    {
        type            calculated;
        value           nonuniform List<scalar> 
1536
(
600.944
317.831
310.563
-203.406
-214.935
304.913
75.7955
171.292
137.378
-157.899
-366.279
-118.784
132.474
-108.653
-431.608
45.4734
305.361
324.223
30.5068
117.54
237.009
142.153
161.708
42.4169
69.8619
56.092
69.2588
7.86805
287.682
150.786
372.519
320.002
329.53
48.8765
65.3607
10.6179
37.0584
-46.0609
5.83019
67.9608
-5.5216
35.4306
127.658
185.163
254.527
64.4244
229.564
156.059
-409.156
54.2673
210.513
141.193
150.679
42.4826
278.546
471.902
158.763
118.116
232.201
206.444
120.344
129.548
114.585
34.885
62.2452
107.997
116.869
216.772
214.869
277.629
33.5008
-217.054
-125.095
56.7651
55.6911
490.711
333.281
-44.5659
46.096
314.136
240.815
198.589
-200.462
-207.704
286.294
545.806
-274.369
92.9239
206.572
205.314
136.375
20.1113
15.2353
28.1456
55.1176
182.874
233.825
253.453
354.034
198.805
242.636
29.5194
605.039
212.68
-137.487
50.0888
73.5612
-183.61
-186.618
611.847
330.489
169.457
127.449
162.045
-241.05
-214.389
-297.061
419.898
574.276
345.877
149.577
162.073
2.6059
230.565
369.585
183.563
148.027
-16.005
247.993
231.725
109.076
220.242
274.956
76.8137
94.1266
292.163
163.7
316.243
-10.8186
308.242
140.176
228.355
231.298
131.601
99.1463
125.275
188.759
404.995
92.3528
616.988
266.539
304.336
158.776
174.232
57.5829
182.48
290.84
222.531
662.556
349.631
329.794
417.838
-86.0917
-41.3065
23.8922
19.4477
275.556
393.915
354.697
471.266
6.22182
23.7387
-42.1904
234.157
146.286
173.091
521.409
-75.8709
-144.058
546.188
14.0796
-36.8484
-48.0194
-21.238
202.094
546.215
351.526
-6.95381
-97.3601
319.476
-79.3011
270.738
271.696
397.451
-122.065
-493.713
386.492
425.765
67.4456
54.1447
142.154
79.4077
323.551
383.063
259.126
199.25
24.8377
405.055
355.784
167.005
-16.0511
62.1608
50.6864
81.6296
238.88
480.434
-101.754
-113.309
-104.469
-532.65
303.563
235.985
196.52
139.32
151.234
405.08
268.57
55.5961
304.967
-156.105
11.4158
-481.457
130.94
284.292
387.894
358.158
305.483
246.318
345.247
-124.795
-83.991
-53.4206
432.615
-30.975
-487.79
-286.298
238.602
115.761
524.876
650.22
166.729
-208.872
-524.569
205.477
345.183
28.912
37.5563
-253.211
18.4769
404.456
556.472
113.47
36.5614
458.181
352.452
59.8819
-133.078
92.4408
489.543
422.324
246.954
272.486
376.107
-48.5887
48.9162
390.795
272.005
309.363
127.344
305.182
472.55
255.786
232.725
442.543
30.3031
27.1146
50.9934
6.28771
22.4207
401.283
498.846
-127.641
85.9425
70.8111
81.1766
-7.65469
151.104
124.044
-37.2033
-249.838
15.2484
-115.652
-8.86457
546.729
449.222
443.665
621.981
-65.9442
-45.4708
137.996
618.388
551.27
11.2282
129.142
-3.39796
266.614
41.941
231.003
254.499
333.52
280.581
64.5731
290.057
12.4218
377.591
414.011
315.139
291.837
-28.6628
505.998
491.96
257.83
-128.39
27.1883
76.6073
255.54
227.767
270.319
-37.8753
372.933
375.14
336.861
441.98
219.202
183.432
117.241
-84.863
184.285
260.624
-87.1045
-107.14
-57.0724
586.659
366.375
441.724
225.666
178.25
393.442
-100.285
525.483
333.736
184.669
178.351
-118.844
329.317
360.075
-18.5114
185.47
111.18
37.24
267.084
368.228
127.372
57.5203
-64.46
481.137
379.725
-109.926
395.961
355.724
303.522
480.582
181.102
281.898
-165.571
-119.194
253.118
611.723
315.883
521.49
221.016
74.3436
352.44
-59.5477
-5.59131
227.61
363.084
271.259
228.918
-48.065
-45.0331
391.828
370.853
380.436
173.879
18.8964
236.285
292.503
360.207
190.406
92.7269
-29.1274
165.853
-73.4291
-182.869
26.533
-25.9526
170.617
-155.242
77.9609
504.543
71.4815
68.0162
359.584
356.608
262.122
112.189
-89.7497
313.096
445.705
247.778
193.15
324.713
129.8
160.111
220.577
-203.512
241.173
375.953
438.705
348.996
285.089
274.019
193.292
99.0533
-59.0721
147.424
-28.0136
-117.956
-2.20088
-183.91
555.318
516.486
416.182
593.105
-72.174
559.402
-39.8604
15.6998
303.812
-93.5316
-48.7456
81.3816
72.814
526.158
446.504
221.605
241.233
476.059
393.487
190.422
290.151
-11.3988
363.903
-128.313
435.398
-205.99
275.96
311.192
348.52
62.9179
-60.847
106.941
357.508
120.2
-148.792
360.77
383.8
413.878
636.108
184.215
468.064
-68.4474
-32.9487
-397.237
-284.917
189.814
80.9743
44.0413
-2.04321
579.548
-51.9489
-98.7155
-137.862
78.4372
-162.148
658.532
-15.2172
5.86101
148.737
-359.29
-258.093
28.6565
21.2131
128.19
56.7276
381.948
347.572
275.39
187.514
-175.521
42.5086
336.29
-59.6163
-17.2676
313.91
484.768
-13.3309
-401.386
-84.4441
-367.578
143.294
63.8578
6.80168
-131.065
-359.381
267.059
307.224
229.903
137.483
491.553
276.327
257.023
178.596
-30.7189
52.8293
380.583
275.586
89.2177
-295.523
198.139
321.969
507.834
207.647
22.8348
511.145
146.391
471.973
-13.9499
65.4785
-50.7336
71.4517
203.537
486.017
-78.2561
5.39108
-32.1495
77.4561
668.055
-133.323
48.7669
-102.704
148.16
202.109
382.788
492.833
-180.972
-126.583
487.979
520.865
-230.371
468.223
397.232
314.926
386.549
256.192
165.42
181.555
478.281
188.62
262.062
164.86
361.407
208.531
143.685
124.118
-84.3176
314.513
133.91
356.373
283.267
288.961
274.399
190.63
-119.704
388.655
386.14
265.318
140.617
214.648
602.722
-168.857
-18.7772
-73.2943
193.745
-13.4851
606.001
71.8598
100.589
154.36
-391.848
-344.095
37.3426
31.7266
181.421
-50.5528
0.646665
201.064
4.53596
495.465
-91.3271
588.928
62.2623
186.29
-491.266
-355.119
-401.031
6.86644
315.606
46.9974
7.73911
-363.495
170.618
328.174
176.129
733.558
-13.7848
381.242
254.651
326.369
405.03
392.501
322.41
149.042
92.2015
146.349
326.084
112.234
233.693
203.243
227.806
350.185
275.858
312.874
-91.1573
-26.5307
-501.554
-249.396
-189.978
-666.709
27.2839
57.3747
112.999
142.582
-183.267
-79.2027
88.3396
423.861
390.446
82.9506
-141.77
131.264
341.262
259.469
157.705
-162.453
-13.9207
269.455
213.668
152.508
36.3289
295.765
299.697
480.503
304.254
195.21
57.1354
-3.73518
-88.7378
16.8462
114.574
621.438
190.209
544.934
-18.5805
643.419
28.2953
122.895
-69.6645
-42.3969
59.9023
-97.0043
107.078
-157.333
41.0032
375.171
77.3012
-113.175
498.93
286.863
238.927
133.25
466.202
774.476
-244.798
279.394
219.487
261.084
-98.7872
138.313
-5.09071
224.139
303.169
395.814
-33.8272
267.517
176.051
299.821
282.168
255.264
83.2867
116.675
43.8801
-146.042
-176.619
-54.6069
457.123
42.0068
-100.834
50.0357
383.161
104.066
454.03
345.521
246.253
194.49
240.188
514.615
-53.9562
275.064
397.23
428.146
188.718
-7.08661
96.3745
240.853
436.212
-74.0905
119.966
179.745
376.291
243.132
235.637
464.433
-68.6569
4.65082
-31.3943
515.694
392.147
183.774
373.68
8.07159
40.1789
372.68
232.749
482.952
-40.8875
329.191
362.674
203.175
226.311
312.842
-36.9385
-192.13
162.596
234.763
522.549
127.16
21.963
146.292
244.17
324.422
195.24
-1.23467
129.591
360.976
-72.452
0.788629
130.356
37.0748
218.418
193.284
422.107
258.971
347.956
48.256
148.153
217.936
139.322
96.3352
56.4056
53.0851
-62.797
292.056
210.717
211.534
247.375
-126.63
72.6626
504.796
511.986
-0.424119
379.759
242.861
290.748
48.2682
431.256
412.675
-46.4755
103.866
68.2333
56.2474
-137.763
-77.8242
68.354
405.268
600.886
23.1377
310.249
290.899
237.421
112.701
219.971
419.817
207.04
-38.0383
74.7101
49.91
60.7744
261.183
287.144
293.355
307.654
304.717
0.541629
322.45
81.3971
276.012
-359.686
248.331
449.548
95.2104
-245.206
155.024
115.932
545.522
-26.7515
322.808
143.602
-196.588
493.547
-114.253
120.529
166.868
-130.137
379.859
223.432
112.14
180.431
221.402
120.643
561.922
-107.753
62.886
-434.523
79.0219
97.4133
176.173
377.38
791.944
-155.399
65.2644
699.996
-112.402
301.21
-7.20401
290.065
-269.814
-26.1681
690.488
-214.925
624.781
-168.715
530.401
-194.114
-30.1909
-405.96
-108.311
650.853
-329.558
137.43
-216.552
463.15
654.702
-314.635
94.9776
30.0136
-37.1047
-45.9348
70.6014
169.936
168.488
282.959
146.882
472.923
723.234
-321.102
164.233
248.914
169.769
202.837
132.288
95.0296
131.282
339.167
137.667
345.114
58.8409
209.664
449.414
93.4047
272.471
385.062
57.9015
209.648
144.399
279.338
121.865
186.537
100.537
371.083
76.4438
236.323
-172.423
484.428
-301.049
231.273
358.449
498.637
-20.0734
197.604
147.938
197.94
174.696
136.913
334.593
-52.8426
-502.534
91.1511
-241.883
393.165
-15.0832
162.019
292.293
-466.57
428.815
-65.9588
-376.277
-36.3743
303.455
285.884
173.031
-323.917
167.71
208.555
20.4287
-12.9768
401.897
363.12
42.771
180.8
403.561
-317.539
332.08
-19.0701
272.883
-291.235
597.214
578.18
363.187
167.238
94.6409
292.978
83.4331
-328.006
-73.3099
312.341
-6.33192
251.048
-247.1
385.861
270.528
-602.792
169.282
223.76
-447.927
437.705
-179.282
397.85
488.412
328.434
-365.885
184.647
106.38
172.643
190.462
254.171
-312.793
52.5823
0.938162
2.1715
377.651
157.481
225.481
286.684
272.302
102.477
194.277
115.987
234.167
409.913
42.4673
90.5161
27.9785
186.601
355.528
38.8984
83.7712
61.753
161.395
-0.963109
19.2221
81.357
100.496
189.492
72.1502
483
334.236
-224.259
-218.617
439.256
-664.822
318.958
206.563
-2.38489
100.975
449
-467.782
393.602
226.149
-345.041
64.7961
18.7513
158.253
-494.162
439.792
232.861
-458.049
419.136
422.09
-277.912
501.352
361.873
-271.038
25.7599
-0.16614
-461.834
168.191
196.917
-71.3118
-18.8608
-43.7634
-586.076
-24.5413
-489.286
-619.966
373.523
28.0482
651.902
40.5833
-315.935
445.039
114.46
-408.577
41.4744
28.5376
-414.68
-217.694
421.394
-747.34
-71.2863
-122.779
-667.819
392.329
343.885
166.207
78.439
23.4616
-68.8472
-533.578
174.483
83.2408
94.4817
167.027
-375.029
304.243
43.5007
136.823
20.2148
128.101
187.924
-85.4306
-352.153
69.3774
195.378
38.2891
77.3635
144.412
-19.9216
88.8061
-387.826
42.2733
222.505
24.1784
103.019
-12.364
-343.959
446.966
436.534
416.806
499.81
-280.688
-443.982
46.6037
316.268
195.769
298.427
338.4
-70.3825
-124.672
-437.439
-316.509
-20.9916
140.426
124.259
112.731
-124.174
377.683
228.93
-265.612
-30.7677
-81.3322
333.088
-14.4767
-536.664
135.306
155.222
391
-396.877
22.2895
188.218
58.2765
102.093
288.752
133.95
-63.131
528.177
-624.819
-170.034
105.896
-17.6092
71.4214
496.85
237.645
156.604
-156.672
452.113
52.2203
187.093
337.844
390.88
370.318
389.11
477.32
535.435
467.501
468.429
157.703
350.009
41.7528
100.832
-132.789
-198.558
-578.104
507.715
490.981
415.607
89.5175
189.436
172.241
-9.13815
203.178
346.253
-54.8729
115.446
276.504
24.0004
47.5525
34.7862
85.9426
-21.4249
77.8865
56.163
-289.647
185.879
-51.0014
113.536
-414.205
504.454
124.963
8.39003
-31.2419
-260.196
153.168
15.4411
-457.744
-166.049
118.946
-208.844
-143.228
547.565
575.802
58.39
60.9141
310.165
493.119
-464.209
-15.2466
-21.9195
73.0662
71.0398
92.801
131.268
-130.13
-334.945
436.82
64.8426
-181.94
-135.05
58.6531
161.328
-255.664
95.5254
-11.2514
41.6753
497.821
-174.294
-326.14
70.1228
22.3221
-22.7798
-328.328
392.198
54.1031
43.8176
56.4038
-454.136
57.1304
70.3886
-316.07
50.5038
-167.378
230.588
430.938
-10.6451
350.3
219.587
-0.601416
9.00768
78.8987
-327.885
212.572
248.344
31.6729
-397.754
-87.7867
106.319
124.804
-5.98607
-355.456
4.32648
391.919
219.15
9.45428
539.724
-172.056
332.918
-443.656
-186.659
354.413
-454.378
373.865
4.13959
160.136
42.4928
566.77
-112.593
166.681
499.316
449.279
-229.294
431.951
498.293
-650.769
93.7789
20.409
-428.122
243.971
14.675
44.5743
45.484
135.266
95.1878
32.2114
9.53438
-444.449
244.238
158.876
144.811
186.017
89.5257
-1.65513
-84.1956
301.672
-522.074
-28.6324
-45.5913
-499.603
360.64
523.955
116.101
414.755
449.868
-11.7632
-9.03521
241.911
411.963
-21.9221
273.85
-136.582
-427.939
309.948
-51.4571
391.19
537.022
489.974
-397.037
339.483
165.782
-65.2369
29.4374
71.9272
17.1178
-386.514
406.329
-368.564
396.792
85.5929
-136.575
-188.073
87.4792
284.886
468.722
150.447
620.802
316.95
376.958
-467.874
347.301
296.877
392.023
-13.8329
-58.4462
-526.256
121.069
599.257
416.38
-340.864
-117.992
-376.019
-14.1178
132.24
-143.02
746.673
45.5979
-116.057
-327.567
215.459
-52.969
-486.264
99.9477
11.2442
20.3976
29.18
33.1588
-322.504
-136.923
-424.569
13.2609
313.397
232.669
431.273
390.874
-28.0612
-82.7997
-447.905
2.75533
284.306
459.366
315.827
334.334
-179.918
-505.822
-107.89
-545.052
307.972
328.535
-82.4825
370.007
301.065
433.6
198.888
160.89
153.151
-28.0759
-457.122
-97.3734
-400.586
-155.23
29.5315
-6.26388
-287.957
-400.837
269.983
602.278
539.3
490.071
146.245
261.446
250.868
119.814
27.7669
120.552
-65.9758
84.0786
86.5594
-397.628
298.792
63.6584
-116.541
-297.865
6.13907
140.142
137.13
-5.29199
-295.218
472.519
212.543
17.851
533.43
-55.8564
-420.661
231.001
84.9259
88.3629
88.6193
2.25541
-524.832
83.7824
80.8843
-364.34
452.647
53.8458
-746.161
28.3726
128.574
147.009
0.693581
-387.869
-38.8294
-24.7081
-198.367
101.212
-444.641
113.612
97.5257
-221.683
524.193
79.3537
-316.554
580.886
122.476
122.148
-302.348
97.6592
-370.794
)
;
    }
}


// ************************************************************************* //
