/*--------------------------------*- C++ -*----------------------------------*\
| =========                 |                                                 |
| \\      /  F ield         | OpenFOAM: The Open Source CFD Toolbox           |
|  \\    /   O peration     | Version:  v1906                                 |
|   \\  /    A nd           | Web:      www.OpenFOAM.com                      |
|    \\/     M anipulation  |                                                 |
\*---------------------------------------------------------------------------*/
FoamFile
{
    version     2.0;
    format      ascii;
    class       volScalarField;
    location    "0.1/oil";
    object      alphat;
}
// * * * * * * * * * * * * * * * * * * * * * * * * * * * * * * * * * * * * * //

dimensions      [1 -1 -1 0 0 0 0];


internalField   nonuniform List<scalar> 
168664
(
0.00241538
0.000289138
0.000240075
8.1917e-05
6.4118e-05
3.45404e-05
2.37523e-05
1.93945e-05
1.28989e-05
1.40382e-05
1.26612e-05
1.44911e-05
1.3826e-05
1.3345e-05
1.2264e-05
1.17281e-05
1.08176e-05
9.7458e-06
8.80552e-06
7.88545e-06
7.2527e-06
7.13382e-06
6.90328e-06
6.32939e-06
5.30981e-06
4.18446e-06
2.82431e-06
2.09117e-06
1.27087e-06
3.18652e-07
0.00028761
0.000308381
8.00571e-05
5.74373e-05
2.98572e-05
2.11322e-05
1.44653e-05
1.24497e-05
9.52894e-06
1.02621e-05
1.01819e-05
1.1317e-05
1.1126e-05
1.10576e-05
1.0464e-05
1.01675e-05
9.48232e-06
8.6753e-06
7.85805e-06
7.16846e-06
6.77163e-06
6.66096e-06
6.36135e-06
5.87419e-06
5.26077e-06
4.57337e-06
3.779e-06
3.02433e-06
3.11584e-06
1.67739e-06
0.000237856
8.00253e-05
6.48996e-05
4.17261e-05
3.29212e-05
2.33617e-05
1.73644e-05
1.42219e-05
1.13454e-05
1.10625e-05
1.06842e-05
1.09789e-05
1.0648e-05
1.07139e-05
1.02332e-05
9.90326e-06
9.31053e-06
8.58617e-06
7.76755e-06
7.10894e-06
6.89289e-06
6.90905e-06
6.81299e-06
6.48479e-06
5.91332e-06
5.32079e-06
4.72889e-06
4.4044e-06
5.354e-06
4.0789e-06
8.38271e-05
5.91828e-05
4.31469e-05
3.07145e-05
2.42408e-05
1.84488e-05
1.54513e-05
1.32624e-05
1.17009e-05
1.10911e-05
1.05763e-05
1.03754e-05
1.03163e-05
1.03513e-05
9.82548e-06
9.33613e-06
8.64546e-06
7.95826e-06
7.19714e-06
6.65593e-06
6.45101e-06
6.57835e-06
6.72002e-06
6.51871e-06
5.89386e-06
5.23645e-06
4.79156e-06
5.16953e-06
6.40186e-06
5.36111e-06
6.63983e-05
3.34007e-05
3.46575e-05
2.47046e-05
2.26365e-05
1.8984e-05
1.60457e-05
1.47145e-05
1.28576e-05
1.22909e-05
1.13822e-05
1.08642e-05
1.07532e-05
1.0677e-05
1.00564e-05
9.39515e-06
8.70306e-06
8.07151e-06
7.60185e-06
7.47066e-06
7.29563e-06
7.3842e-06
7.44004e-06
7.28691e-06
6.81476e-06
6.24806e-06
5.97865e-06
6.60037e-06
7.99601e-06
7.47612e-06
4.2406e-05
2.82497e-05
2.86852e-05
2.15269e-05
2.07834e-05
1.67248e-05
1.53085e-05
1.36736e-05
1.25117e-05
1.1955e-05
1.12535e-05
1.05626e-05
1.02134e-05
1.02121e-05
9.56205e-06
8.64813e-06
7.86933e-06
7.18959e-06
7.08023e-06
7.33358e-06
7.15055e-06
7.06679e-06
6.97127e-06
6.87422e-06
6.55915e-06
6.37273e-06
6.37102e-06
7.24596e-06
8.67793e-06
8.45886e-06
3.16283e-05
2.19598e-05
2.19702e-05
1.80315e-05
1.7341e-05
1.53761e-05
1.4106e-05
1.32034e-05
1.21521e-05
1.18427e-05
1.13531e-05
1.0757e-05
1.06083e-05
1.08849e-05
1.01745e-05
8.88032e-06
7.83557e-06
7.02867e-06
6.97812e-06
7.24367e-06
7.03828e-06
6.93547e-06
6.93158e-06
6.96522e-06
6.95865e-06
7.12586e-06
7.47856e-06
8.51189e-06
9.96654e-06
1.02012e-05
3.06647e-05
2.27335e-05
2.23867e-05
1.85455e-05
1.76756e-05
1.5062e-05
1.3792e-05
1.23575e-05
1.12912e-05
1.08081e-05
1.05759e-05
1.03915e-05
1.08107e-05
1.13948e-05
1.06899e-05
9.09943e-06
7.88077e-06
6.87032e-06
6.53755e-06
6.42132e-06
6.10893e-06
6.03736e-06
6.19275e-06
6.49967e-06
6.93109e-06
7.54163e-06
8.22446e-06
9.33172e-06
1.07186e-05
1.12059e-05
2.39995e-05
1.90085e-05
1.82694e-05
1.6117e-05
1.51504e-05
1.34691e-05
1.2253e-05
1.109e-05
1.00953e-05
9.69395e-06
9.87547e-06
1.04798e-05
1.15446e-05
1.22372e-05
1.1625e-05
1.0098e-05
8.66241e-06
7.2504e-06
6.44125e-06
5.88324e-06
5.50305e-06
5.5663e-06
5.97849e-06
6.60791e-06
7.43295e-06
8.31495e-06
9.27787e-06
1.03708e-05
1.15787e-05
1.22936e-05
2.534e-05
2.02681e-05
1.94766e-05
1.72432e-05
1.57658e-05
1.35843e-05
1.19211e-05
1.03279e-05
9.05707e-06
8.56173e-06
9.07813e-06
1.02123e-05
1.14481e-05
1.16737e-05
1.12808e-05
1.02744e-05
8.78347e-06
7.24748e-06
6.04868e-06
5.15968e-06
4.72434e-06
4.95442e-06
5.63313e-06
6.47235e-06
7.43434e-06
8.56905e-06
9.816e-06
1.08606e-05
1.1981e-05
1.28342e-05
2.24026e-05
1.84249e-05
1.74883e-05
1.58849e-05
1.44719e-05
1.27978e-05
1.13004e-05
9.74047e-06
8.50107e-06
8.22204e-06
9.02319e-06
1.02835e-05
1.10365e-05
1.03294e-05
9.91915e-06
9.41029e-06
8.31843e-06
7.13481e-06
5.94331e-06
4.91732e-06
4.6208e-06
5.08758e-06
6.0156e-06
7.0145e-06
8.04218e-06
9.32048e-06
1.06592e-05
1.15145e-05
1.25239e-05
1.34345e-05
2.32907e-05
1.92018e-05
1.80621e-05
1.64667e-05
1.51321e-05
1.36838e-05
1.2184e-05
1.02856e-05
8.63342e-06
7.96897e-06
8.44932e-06
9.34333e-06
9.11454e-06
7.82794e-06
7.43624e-06
7.16682e-06
6.35149e-06
5.91389e-06
5.36574e-06
4.4867e-06
4.44636e-06
5.27304e-06
6.51811e-06
7.81388e-06
9.01466e-06
1.02532e-05
1.14058e-05
1.20374e-05
1.29606e-05
1.3957e-05
2.16649e-05
1.84231e-05
1.75441e-05
1.6554e-05
1.54551e-05
1.42635e-05
1.28791e-05
1.0922e-05
9.08427e-06
7.65382e-06
7.56361e-06
7.73281e-06
7.1112e-06
6.42888e-06
6.34388e-06
6.19432e-06
5.52364e-06
4.83657e-06
4.75811e-06
4.12168e-06
4.20211e-06
5.69763e-06
7.24711e-06
8.5741e-06
9.7958e-06
1.09655e-05
1.19463e-05
1.2576e-05
1.35976e-05
1.49303e-05
2.06895e-05
1.77305e-05
1.69997e-05
1.62738e-05
1.52317e-05
1.40549e-05
1.27139e-05
1.1171e-05
9.66368e-06
7.53106e-06
6.11203e-06
5.19226e-06
4.9423e-06
4.86967e-06
4.9174e-06
5.03799e-06
4.3306e-06
3.42238e-06
3.02001e-06
3.05956e-06
4.03206e-06
6.0512e-06
7.91761e-06
9.24517e-06
1.03679e-05
1.14725e-05
1.24973e-05
1.3227e-05
1.43563e-05
1.61057e-05
1.9799e-05
1.70532e-05
1.62911e-05
1.5585e-05
1.46284e-05
1.35414e-05
1.22718e-05
1.09247e-05
9.6027e-06
7.32463e-06
4.97023e-06
3.43501e-06
3.39971e-06
4.18653e-06
4.92367e-06
4.71609e-06
3.80037e-06
2.88443e-06
2.58184e-06
3.03864e-06
4.51119e-06
6.59368e-06
8.54685e-06
9.9986e-06
1.1121e-05
1.21833e-05
1.32155e-05
1.39754e-05
1.50533e-05
1.71092e-05
1.93416e-05
1.66713e-05
1.58347e-05
1.51412e-05
1.42659e-05
1.32511e-05
1.19898e-05
1.04529e-05
8.73805e-06
6.56505e-06
4.46046e-06
2.9554e-06
2.5687e-06
3.80201e-06
5.23494e-06
4.71385e-06
3.45643e-06
2.76341e-06
3.03293e-06
3.85684e-06
5.18515e-06
6.9762e-06
8.66958e-06
1.00601e-05
1.11856e-05
1.22736e-05
1.33215e-05
1.41118e-05
1.504e-05
1.69579e-05
1.80014e-05
1.57356e-05
1.48652e-05
1.42032e-05
1.33646e-05
1.23417e-05
1.12111e-05
9.85142e-06
8.00663e-06
5.73772e-06
3.82526e-06
3.16951e-06
3.45533e-06
4.51338e-06
5.66282e-06
5.25985e-06
4.27366e-06
3.80072e-06
4.55259e-06
5.4883e-06
6.25219e-06
7.57793e-06
8.91044e-06
1.00858e-05
1.12251e-05
1.24026e-05
1.34994e-05
1.42045e-05
1.4992e-05
1.6778e-05
1.68901e-05
1.50193e-05
1.41331e-05
1.34587e-05
1.25905e-05
1.14725e-05
1.03027e-05
8.92048e-06
7.32449e-06
5.28727e-06
4.1264e-06
4.28053e-06
4.2099e-06
4.87254e-06
5.75447e-06
5.41662e-06
5.07551e-06
5.13216e-06
6.05025e-06
6.55068e-06
6.4829e-06
7.59765e-06
8.73032e-06
9.98507e-06
1.12353e-05
1.24245e-05
1.35749e-05
1.44451e-05
1.54017e-05
1.72706e-05
1.6018e-05
1.4503e-05
1.35585e-05
1.27557e-05
1.17821e-05
1.05911e-05
9.39588e-06
7.98237e-06
6.62153e-06
5.47568e-06
5.09284e-06
5.60285e-06
5.71113e-06
5.93511e-06
6.43103e-06
5.92404e-06
5.99151e-06
6.49837e-06
6.82276e-06
6.57188e-06
6.29907e-06
6.72865e-06
7.61183e-06
8.91859e-06
1.00861e-05
1.10975e-05
1.22399e-05
1.35361e-05
1.4917e-05
1.69665e-05
1.5087e-05
1.36573e-05
1.26025e-05
1.15662e-05
1.04491e-05
9.23546e-06
8.21237e-06
7.09751e-06
6.09549e-06
5.39365e-06
5.47999e-06
6.14052e-06
6.88098e-06
7.54743e-06
8.21769e-06
7.91462e-06
8.00083e-06
8.12587e-06
7.40966e-06
6.50469e-06
5.90337e-06
5.99513e-06
6.66591e-06
7.77041e-06
8.83047e-06
9.82571e-06
1.09895e-05
1.23749e-05
1.37917e-05
1.56186e-05
1.39752e-05
1.27081e-05
1.1796e-05
1.06368e-05
9.49766e-06
8.47745e-06
7.62288e-06
6.69075e-06
5.8626e-06
5.42848e-06
5.58453e-06
6.03736e-06
6.7987e-06
7.99697e-06
9.37118e-06
9.8329e-06
9.94224e-06
9.11468e-06
7.84232e-06
6.67679e-06
5.80225e-06
5.73176e-06
6.28986e-06
7.29386e-06
8.20351e-06
9.19869e-06
1.02657e-05
1.15117e-05
1.27529e-05
1.39367e-05
1.30609e-05
1.21623e-05
1.13783e-05
1.01818e-05
9.10502e-06
8.25599e-06
7.57928e-06
6.90422e-06
6.32001e-06
6.0694e-06
5.86442e-06
5.66938e-06
6.14845e-06
7.43016e-06
9.08328e-06
1.02404e-05
1.02758e-05
8.83371e-06
7.45287e-06
6.73285e-06
6.24161e-06
6.23214e-06
6.56932e-06
7.21835e-06
7.81857e-06
8.59848e-06
9.43981e-06
1.06285e-05
1.18933e-05
1.26945e-05
1.18905e-05
1.13034e-05
1.03204e-05
9.1725e-06
8.42089e-06
7.79561e-06
7.36022e-06
6.99197e-06
6.72044e-06
6.68652e-06
6.3398e-06
5.71773e-06
5.73874e-06
6.81891e-06
8.2246e-06
9.38084e-06
9.31487e-06
8.1442e-06
7.24811e-06
7.1675e-06
6.94431e-06
6.80102e-06
6.79195e-06
7.06134e-06
7.31929e-06
7.83852e-06
8.48925e-06
9.63331e-06
1.09097e-05
1.13245e-05
1.07395e-05
1.03437e-05
9.13569e-06
8.19486e-06
7.75982e-06
7.44982e-06
7.35188e-06
7.3212e-06
7.27303e-06
7.22911e-06
6.69908e-06
6.04104e-06
5.81745e-06
6.45006e-06
7.43811e-06
8.28265e-06
8.31964e-06
7.71817e-06
7.23588e-06
7.44569e-06
7.46756e-06
7.41043e-06
7.2511e-06
7.24058e-06
7.19484e-06
7.34786e-06
7.67047e-06
8.73926e-06
1.00355e-05
1.02181e-05
8.8631e-06
8.9292e-06
7.72458e-06
7.08944e-06
6.88861e-06
6.79903e-06
6.96864e-06
7.22592e-06
7.45647e-06
7.40685e-06
6.73125e-06
6.20648e-06
6.30899e-06
6.69212e-06
7.17598e-06
7.55612e-06
7.8619e-06
7.76501e-06
7.23481e-06
7.13167e-06
7.33076e-06
7.49142e-06
7.33348e-06
7.24292e-06
6.98851e-06
6.80052e-06
6.71819e-06
7.66947e-06
8.98109e-06
8.77932e-06
7.55893e-06
7.84631e-06
6.60284e-06
6.20198e-06
6.39865e-06
6.65061e-06
6.94275e-06
7.34865e-06
7.72133e-06
7.81587e-06
7.20348e-06
6.79352e-06
7.09827e-06
7.42997e-06
7.45939e-06
7.41824e-06
7.86553e-06
8.08919e-06
7.47922e-06
7.04124e-06
7.07116e-06
7.37755e-06
7.38934e-06
7.32913e-06
6.95637e-06
6.39185e-06
6.04807e-06
6.82681e-06
8.17204e-06
7.74911e-06
5.60692e-06
6.36405e-06
4.98311e-06
4.79279e-06
5.34499e-06
5.75126e-06
6.19885e-06
6.71412e-06
7.16427e-06
7.45113e-06
7.0839e-06
7.04681e-06
7.45204e-06
7.67694e-06
7.34204e-06
7.0395e-06
7.49339e-06
7.77854e-06
7.43066e-06
6.8919e-06
6.52218e-06
6.50808e-06
6.45558e-06
6.4146e-06
6.04332e-06
5.52219e-06
5.07082e-06
5.58132e-06
6.80491e-06
5.90942e-06
4.18428e-06
5.30562e-06
4.04473e-06
4.46101e-06
5.01332e-06
5.54e-06
6.14974e-06
6.74283e-06
7.26485e-06
7.60647e-06
7.46487e-06
7.68958e-06
8.07863e-06
8.14224e-06
7.75805e-06
7.38451e-06
7.60829e-06
7.8491e-06
7.79955e-06
7.45924e-06
6.84404e-06
6.51474e-06
6.23567e-06
6.18549e-06
5.93698e-06
5.57527e-06
4.97874e-06
4.63219e-06
5.621e-06
4.51205e-06
1.84188e-06
3.39214e-06
3.04851e-06
3.76334e-06
4.37715e-06
5.12968e-06
5.85571e-06
6.61882e-06
7.3262e-06
7.92839e-06
8.09615e-06
8.27326e-06
8.44718e-06
8.52983e-06
8.47229e-06
8.14293e-06
8.17039e-06
8.29017e-06
8.24309e-06
7.781e-06
6.9931e-06
6.46346e-06
6.0436e-06
5.83105e-06
5.4119e-06
4.78415e-06
4.01205e-06
3.09974e-06
3.33504e-06
2.02286e-06
8.94849e-07
1.96336e-06
2.91953e-06
3.64286e-06
4.65113e-06
5.56263e-06
6.47852e-06
7.44823e-06
8.42799e-06
9.13227e-06
9.47814e-06
9.58184e-06
9.56852e-06
9.7477e-06
9.65983e-06
9.21326e-06
9.31628e-06
9.64e-06
9.62116e-06
8.8482e-06
7.77716e-06
7.04992e-06
6.42713e-06
5.98693e-06
5.17004e-06
4.11423e-06
2.75365e-06
1.79755e-06
1.08668e-06
3.11003e-07
0.000287415
0.000315573
8.1991e-05
5.89499e-05
2.99546e-05
2.1463e-05
1.43493e-05
1.28239e-05
9.03439e-06
9.90648e-06
9.03978e-06
1.03771e-05
1.01841e-05
1.06702e-05
1.0248e-05
1.00951e-05
9.36488e-06
8.41828e-06
7.88451e-06
7.15089e-06
6.54002e-06
6.30166e-06
6.05561e-06
5.76915e-06
5.2902e-06
4.53387e-06
3.65755e-06
2.82247e-06
2.21649e-06
1.25621e-06
0.000312883
9.30624e-05
5.16672e-05
2.74551e-05
1.491e-05
1.01688e-05
7.03521e-06
5.30464e-06
4.2146e-06
4.52465e-06
4.39499e-06
3.94447e-06
2.70745e-06
2.90173e-06
3.10126e-06
3.12704e-06
3.05894e-06
2.98528e-06
2.71579e-06
2.33696e-06
2.54196e-06
3.01595e-06
3.5373e-06
3.85397e-06
3.84461e-06
3.43671e-06
3.03652e-06
2.57361e-06
3.80365e-06
3.15317e-06
8.00133e-05
5.19393e-05
3.07596e-05
2.29082e-05
1.46664e-05
1.17296e-05
8.28822e-06
6.54529e-06
5.04436e-06
5.56512e-06
5.86618e-06
6.09994e-06
4.33714e-06
3.3247e-06
2.96042e-06
2.73741e-06
2.33816e-06
1.89641e-06
1.80345e-06
2.15448e-06
2.68892e-06
3.84576e-06
4.77203e-06
4.84548e-06
4.9504e-06
4.71909e-06
3.89704e-06
3.50298e-06
4.36762e-06
5.40659e-06
5.89951e-05
2.54471e-05
2.13522e-05
1.3192e-05
8.54318e-06
7.46426e-06
4.91335e-06
5.23859e-06
4.60155e-06
5.28329e-06
5.35072e-06
5.89014e-06
4.20791e-06
3.28583e-06
2.82053e-06
2.75127e-06
2.91312e-06
2.2126e-06
2.3432e-06
3.06642e-06
4.03219e-06
4.60818e-06
4.41144e-06
4.22215e-06
4.80635e-06
4.85944e-06
4.19141e-06
4.05105e-06
3.98698e-06
6.4704e-06
3.29066e-05
1.31711e-05
1.27697e-05
8.91033e-06
6.21392e-06
6.12678e-06
3.89322e-06
4.38236e-06
3.50909e-06
3.79203e-06
3.40993e-06
3.93996e-06
2.79784e-06
3.0734e-06
3.01245e-06
3.10356e-06
3.21601e-06
2.42002e-06
2.6049e-06
3.54378e-06
4.11904e-06
3.39669e-06
2.41585e-06
2.3931e-06
3.18988e-06
3.7134e-06
4.00493e-06
4.35056e-06
3.86503e-06
8.12968e-06
2.77903e-05
7.8792e-06
9.92633e-06
7.53971e-06
5.74329e-06
5.3615e-06
3.15737e-06
3.44422e-06
2.28443e-06
2.73497e-06
2.71014e-06
3.134e-06
2.67266e-06
3.10933e-06
3.16859e-06
3.30638e-06
3.38871e-06
2.79779e-06
3.12413e-06
3.38333e-06
3.12479e-06
1.99982e-06
1.269e-06
1.34155e-06
1.82524e-06
2.58419e-06
3.47978e-06
4.14829e-06
3.51816e-06
8.80934e-06
2.19233e-05
5.19006e-06
6.64932e-06
4.80713e-06
3.8128e-06
3.81397e-06
2.52262e-06
2.90651e-06
2.14062e-06
2.62594e-06
2.71194e-06
3.23969e-06
2.81618e-06
3.36266e-06
3.65235e-06
3.59263e-06
3.59112e-06
3.36096e-06
3.82348e-06
3.23178e-06
2.59198e-06
1.85215e-06
1.51097e-06
1.28337e-06
1.54206e-06
2.56624e-06
3.5354e-06
4.09872e-06
3.58401e-06
1.00561e-05
2.26649e-05
3.14268e-06
5.71076e-06
5.54688e-06
4.64566e-06
4.5062e-06
3.33386e-06
3.43819e-06
2.61531e-06
2.87994e-06
2.81087e-06
2.97913e-06
2.20654e-06
2.9297e-06
3.48354e-06
3.15314e-06
3.02733e-06
3.17934e-06
3.61177e-06
2.92281e-06
2.24784e-06
1.77664e-06
1.53275e-06
1.30456e-06
1.72221e-06
2.75063e-06
3.47689e-06
3.88098e-06
3.4591e-06
1.07636e-05
1.91232e-05
2.89072e-06
3.71372e-06
3.65801e-06
3.43548e-06
3.55647e-06
2.94654e-06
3.20194e-06
2.84665e-06
3.11183e-06
2.9356e-06
2.45711e-06
1.57943e-06
3.73376e-06
4.62561e-06
3.94478e-06
3.01319e-06
2.51958e-06
3.17998e-06
2.75276e-06
2.3163e-06
1.88476e-06
1.72135e-06
1.73003e-06
2.22801e-06
2.96037e-06
3.28925e-06
3.43844e-06
3.21111e-06
1.16771e-05
2.0164e-05
2.2354e-06
3.11816e-06
3.44519e-06
3.50407e-06
3.80707e-06
3.33585e-06
3.50333e-06
3.28666e-06
3.28279e-06
2.88413e-06
2.11557e-06
2.78837e-06
5.26092e-06
6.07921e-06
5.24943e-06
3.92573e-06
2.02744e-06
2.35017e-06
2.43747e-06
2.18529e-06
1.97771e-06
1.97103e-06
2.0945e-06
2.35516e-06
2.67986e-06
2.67215e-06
2.59584e-06
2.69627e-06
1.22172e-05
1.85155e-05
2.23839e-06
2.12803e-06
2.0636e-06
2.06877e-06
2.62654e-06
2.7967e-06
3.3478e-06
3.52242e-06
3.46174e-06
3.18244e-06
3.20007e-06
4.79615e-06
6.75991e-06
7.46075e-06
7.11485e-06
6.11693e-06
3.4303e-06
2.44508e-06
2.33914e-06
2.52789e-06
2.54027e-06
2.59848e-06
2.62118e-06
2.65494e-06
2.64834e-06
2.35438e-06
2.15253e-06
2.34894e-06
1.26134e-05
1.92135e-05
2.20558e-06
1.72585e-06
1.67434e-06
1.64814e-06
2.23033e-06
2.65016e-06
3.31812e-06
3.9423e-06
4.02152e-06
3.61353e-06
4.18037e-06
5.3757e-06
6.04161e-06
6.355e-06
6.31809e-06
5.59749e-06
4.04316e-06
2.81516e-06
2.44249e-06
2.88806e-06
3.04011e-06
3.0221e-06
2.86468e-06
2.79005e-06
2.69942e-06
2.27609e-06
2.18553e-06
2.15575e-06
1.29579e-05
1.81664e-05
2.12923e-06
1.48318e-06
1.37139e-06
1.2518e-06
1.46006e-06
1.89263e-06
2.62192e-06
3.54659e-06
3.70744e-06
3.50173e-06
5.30357e-06
5.81973e-06
5.84778e-06
5.78744e-06
5.53075e-06
5.15855e-06
4.25845e-06
3.73375e-06
2.3976e-06
2.89742e-06
3.0165e-06
2.75594e-06
2.36868e-06
2.17822e-06
2.16266e-06
1.91566e-06
2.09241e-06
2.18827e-06
1.37171e-05
1.76522e-05
1.96904e-06
1.67368e-06
1.67328e-06
1.67185e-06
1.58089e-06
1.79711e-06
2.35721e-06
3.33081e-06
3.53441e-06
4.16523e-06
4.93117e-06
4.68912e-06
4.54967e-06
4.13886e-06
3.81714e-06
3.1751e-06
2.95661e-06
2.9669e-06
2.44684e-06
2.41385e-06
2.85947e-06
2.47832e-06
1.98839e-06
1.79591e-06
1.87553e-06
1.7631e-06
1.98519e-06
2.27562e-06
1.45419e-05
1.70003e-05
2.08882e-06
1.70653e-06
1.67379e-06
1.70373e-06
1.77819e-06
2.01185e-06
2.49023e-06
3.3819e-06
4.14956e-06
4.52974e-06
4.16634e-06
3.61752e-06
3.25507e-06
3.66344e-06
3.30376e-06
2.71139e-06
2.74686e-06
2.97769e-06
3.29833e-06
3.57248e-06
3.42647e-06
2.552e-06
1.83896e-06
1.59103e-06
1.66255e-06
1.56497e-06
1.75819e-06
2.23979e-06
1.51497e-05
1.67326e-05
2.4254e-06
1.9678e-06
1.83762e-06
1.93265e-06
2.13366e-06
2.36489e-06
2.74098e-06
3.59085e-06
4.0858e-06
3.80515e-06
2.93082e-06
2.55786e-06
2.62677e-06
3.41666e-06
3.47495e-06
2.80462e-06
3.0375e-06
3.37376e-06
3.94306e-06
3.93713e-06
3.52063e-06
2.42184e-06
1.56837e-06
1.27149e-06
1.45339e-06
1.44963e-06
1.55545e-06
1.88893e-06
1.50138e-05
1.59474e-05
2.44848e-06
2.17047e-06
1.99455e-06
2.1327e-06
2.30007e-06
2.42351e-06
2.83918e-06
3.4813e-06
3.33168e-06
3.32048e-06
3.37117e-06
3.22334e-06
3.37873e-06
4.11539e-06
4.10606e-06
3.63438e-06
3.72082e-06
3.82194e-06
3.56475e-06
3.07783e-06
3.47898e-06
2.40756e-06
1.45733e-06
1.21094e-06
1.56092e-06
1.73385e-06
1.71153e-06
1.831e-06
1.49514e-05
1.52362e-05
2.48475e-06
2.46593e-06
2.20052e-06
2.34957e-06
2.50555e-06
2.68232e-06
2.99697e-06
3.32096e-06
3.01614e-06
2.90061e-06
3.40138e-06
3.91005e-06
4.25412e-06
4.89881e-06
4.94375e-06
4.94556e-06
4.67371e-06
3.78575e-06
2.42308e-06
3.19075e-06
3.9329e-06
3.02729e-06
2.35295e-06
2.01682e-06
2.03681e-06
2.31078e-06
2.29825e-06
2.37315e-06
1.51468e-05
1.44648e-05
2.73338e-06
2.8392e-06
2.76148e-06
3.06685e-06
3.18899e-06
3.2223e-06
3.32533e-06
3.4794e-06
3.27587e-06
3.27566e-06
2.79352e-06
3.66289e-06
4.58069e-06
5.55558e-06
5.49731e-06
5.30865e-06
4.58774e-06
2.91901e-06
1.96624e-06
3.31645e-06
4.07708e-06
3.50723e-06
2.92587e-06
2.55409e-06
2.49906e-06
2.80309e-06
2.87506e-06
2.88257e-06
1.4866e-05
1.3773e-05
2.91309e-06
2.77639e-06
3.0323e-06
3.27061e-06
2.98765e-06
2.71017e-06
2.60429e-06
2.74604e-06
2.57082e-06
2.68922e-06
1.71466e-06
2.58677e-06
4.44146e-06
5.87948e-06
6.12834e-06
5.79919e-06
3.99866e-06
1.92055e-06
2.04726e-06
2.72112e-06
3.27564e-06
2.97401e-06
2.68971e-06
2.57453e-06
2.81612e-06
3.03185e-06
2.83437e-06
2.9541e-06
1.4028e-05
1.31384e-05
3.28326e-06
2.94479e-06
3.47434e-06
3.5873e-06
2.76691e-06
2.21532e-06
2.08161e-06
2.25146e-06
2.28823e-06
2.59294e-06
1.70023e-06
1.20269e-06
2.4998e-06
4.25793e-06
5.18895e-06
4.8504e-06
2.40622e-06
1.57015e-06
2.64199e-06
2.62101e-06
2.72251e-06
2.44091e-06
2.40081e-06
2.69917e-06
3.36757e-06
3.46864e-06
3.1554e-06
3.00183e-06
1.27138e-05
1.23316e-05
3.47234e-06
3.55767e-06
4.05281e-06
3.62545e-06
2.56791e-06
1.9099e-06
1.61734e-06
1.80517e-06
2.04796e-06
2.56801e-06
2.50316e-06
2.01944e-06
1.65859e-06
2.63406e-06
3.3161e-06
2.85795e-06
1.4878e-06
1.92818e-06
2.58373e-06
2.21723e-06
2.14783e-06
1.84236e-06
1.90382e-06
2.36372e-06
3.32403e-06
3.79853e-06
3.68665e-06
3.11704e-06
1.17483e-05
1.14226e-05
3.46959e-06
4.14766e-06
4.10248e-06
3.20364e-06
2.15275e-06
1.56198e-06
1.27964e-06
1.6489e-06
1.96934e-06
2.63656e-06
3.02696e-06
3.03292e-06
3.04303e-06
3.29977e-06
3.06568e-06
1.9071e-06
2.0879e-06
2.76423e-06
2.84765e-06
2.0493e-06
1.83748e-06
1.51619e-06
1.56175e-06
1.88266e-06
2.98485e-06
3.84372e-06
3.98783e-06
3.31256e-06
1.08379e-05
1.0596e-05
3.46475e-06
4.2129e-06
3.44531e-06
2.51491e-06
1.69563e-06
1.24415e-06
9.42148e-07
1.40158e-06
1.90504e-06
2.72896e-06
2.87727e-06
3.08357e-06
3.76188e-06
3.89656e-06
2.97172e-06
1.86291e-06
2.81486e-06
3.28881e-06
3.44651e-06
2.38618e-06
1.60559e-06
1.20347e-06
1.29777e-06
1.52793e-06
2.53533e-06
3.68749e-06
4.16184e-06
3.41878e-06
1.00321e-05
9.16848e-06
3.55743e-06
4.11095e-06
2.8956e-06
2.00623e-06
1.46352e-06
1.57332e-06
1.47457e-06
1.67142e-06
2.19433e-06
2.99362e-06
2.7548e-06
3.01053e-06
3.95644e-06
3.9804e-06
2.84311e-06
2.34475e-06
3.09031e-06
3.49243e-06
4.22284e-06
3.52189e-06
2.26317e-06
1.46349e-06
1.64861e-06
2.00886e-06
2.91255e-06
3.8384e-06
4.54479e-06
3.71378e-06
9.02787e-06
8.13563e-06
3.50914e-06
3.80663e-06
2.57006e-06
1.98609e-06
1.8663e-06
2.20755e-06
2.36092e-06
2.63723e-06
2.82454e-06
2.99777e-06
2.32244e-06
2.82758e-06
3.648e-06
3.55783e-06
2.65797e-06
2.41279e-06
2.82746e-06
3.22831e-06
4.22271e-06
4.24197e-06
3.67196e-06
2.83849e-06
2.87748e-06
3.4244e-06
4.07876e-06
4.1258e-06
4.6615e-06
4.04604e-06
8.21368e-06
6.77192e-06
3.72264e-06
3.73602e-06
2.84843e-06
3.04228e-06
3.22423e-06
3.50825e-06
3.76054e-06
4.31276e-06
4.45707e-06
3.87179e-06
2.05995e-06
2.42903e-06
3.19443e-06
3.70159e-06
3.10438e-06
3.01741e-06
3.56723e-06
3.82182e-06
4.63443e-06
4.76452e-06
5.09222e-06
5.1043e-06
5.2844e-06
5.57552e-06
5.48794e-06
4.46929e-06
4.49129e-06
4.4149e-06
6.81194e-06
5.80586e-06
4.20324e-06
3.61385e-06
3.42184e-06
3.66057e-06
3.55633e-06
3.61923e-06
3.70685e-06
4.27541e-06
4.56202e-06
4.10799e-06
1.92308e-06
1.65953e-06
2.63684e-06
3.20971e-06
2.65084e-06
2.3901e-06
3.17697e-06
3.32823e-06
3.5671e-06
3.37526e-06
3.97083e-06
4.6373e-06
5.42149e-06
5.48102e-06
5.02776e-06
3.82224e-06
3.48839e-06
4.47822e-06
5.6555e-06
3.84335e-06
4.27169e-06
3.07098e-06
3.48271e-06
3.33916e-06
3.26192e-06
3.39169e-06
3.59603e-06
4.09804e-06
4.54008e-06
4.40035e-06
3.34361e-06
3.1693e-06
2.85894e-06
2.49484e-06
1.82992e-06
1.77735e-06
2.36892e-06
2.46029e-06
2.60252e-06
2.46733e-06
2.99988e-06
3.32627e-06
3.91966e-06
3.97238e-06
3.55927e-06
3.02823e-06
2.54256e-06
3.81445e-06
3.37132e-06
2.18154e-06
3.12616e-06
3.51791e-06
4.16644e-06
4.73262e-06
5.39367e-06
6.17119e-06
7.06135e-06
8.10363e-06
8.86231e-06
9.12104e-06
8.66803e-06
8.30239e-06
7.99641e-06
7.90895e-06
7.56371e-06
7.61352e-06
7.8097e-06
7.8084e-06
7.67999e-06
6.86214e-06
6.50555e-06
5.91629e-06
5.71304e-06
5.20022e-06
4.42943e-06
3.46955e-06
2.4877e-06
1.97922e-06
1.26511e-06
0.00024
8.18556e-05
6.42811e-05
4.03367e-05
3.01326e-05
2.28358e-05
1.5659e-05
1.3704e-05
8.83333e-06
9.23576e-06
7.98747e-06
8.65086e-06
8.55008e-06
7.48389e-06
7.48668e-06
7.38603e-06
6.87525e-06
7.20715e-06
6.55696e-06
6.78009e-06
5.74771e-06
5.89873e-06
5.97369e-06
6.34645e-06
6.17033e-06
5.38747e-06
4.4425e-06
3.32248e-06
2.42071e-06
1.98853e-06
7.97385e-05
5.30967e-05
3.2121e-05
2.37981e-05
1.34714e-05
9.845e-06
6.89225e-06
5.97168e-06
5.40495e-06
5.24568e-06
4.13241e-06
3.00691e-06
2.33986e-06
2.57283e-06
3.00965e-06
2.57734e-06
2.44618e-06
2.72472e-06
2.51521e-06
1.98905e-06
1.1256e-06
1.75475e-06
2.76893e-06
3.25299e-06
3.04376e-06
2.55506e-06
2.21978e-06
2.20048e-06
2.74665e-06
2.83192e-06
6.33508e-05
3.23792e-05
2.99138e-05
2.26658e-05
1.5478e-05
1.19159e-05
7.70109e-06
6.77171e-06
6.18947e-06
6.92782e-06
6.23132e-06
5.20543e-06
4.22473e-06
3.47724e-06
3.4247e-06
3.27741e-06
3.5709e-06
3.45125e-06
3.17249e-06
3.09498e-06
2.81624e-06
3.24473e-06
4.70191e-06
5.24645e-06
4.04765e-06
2.88582e-06
3.10582e-06
4.05798e-06
3.60289e-06
4.57366e-06
4.22693e-05
2.23613e-05
2.13655e-05
1.55445e-05
1.10554e-05
9.22761e-06
5.90198e-06
5.24007e-06
4.40876e-06
5.70483e-06
6.4381e-06
6.57118e-06
5.73823e-06
4.52004e-06
3.78368e-06
3.49219e-06
3.36585e-06
3.04874e-06
3.06398e-06
2.93709e-06
2.14461e-06
4.09692e-06
6.25304e-06
6.343e-06
5.09173e-06
3.48905e-06
3.39052e-06
4.18115e-06
3.83514e-06
5.57384e-06
3.3491e-05
1.3607e-05
1.38226e-05
1.02911e-05
7.69631e-06
7.40458e-06
5.09033e-06
4.82227e-06
3.92146e-06
5.17282e-06
6.88525e-06
7.0686e-06
5.28774e-06
3.99232e-06
3.39371e-06
3.1012e-06
2.7874e-06
2.8189e-06
2.92667e-06
3.08558e-06
4.29086e-06
5.78612e-06
6.22111e-06
6.13711e-06
5.65243e-06
4.33505e-06
4.17798e-06
3.66917e-06
4.09377e-06
7.11846e-06
2.83878e-05
9.7059e-06
1.12915e-05
8.69562e-06
6.93735e-06
5.83094e-06
3.88209e-06
3.21209e-06
2.43799e-06
3.29507e-06
4.54596e-06
4.25299e-06
2.78432e-06
2.20729e-06
2.04273e-06
2.1903e-06
2.31355e-06
2.72522e-06
2.07565e-06
2.96681e-06
3.6258e-06
3.46163e-06
2.74452e-06
3.2118e-06
3.9851e-06
4.16595e-06
4.41084e-06
2.91611e-06
3.98256e-06
7.77268e-06
2.22177e-05
6.02657e-06
6.66201e-06
5.12208e-06
4.09031e-06
3.79933e-06
2.43614e-06
2.40663e-06
2.1966e-06
2.6624e-06
3.42748e-06
3.29322e-06
2.30881e-06
2.15104e-06
2.43155e-06
2.4786e-06
2.25893e-06
2.34318e-06
2.30262e-06
2.98912e-06
2.31256e-06
1.64131e-06
9.41784e-07
1.50883e-06
3.07888e-06
4.08832e-06
4.13631e-06
2.48074e-06
4.01573e-06
8.9219e-06
2.24756e-05
4.50846e-06
5.63352e-06
5.89256e-06
5.2268e-06
4.75674e-06
3.37693e-06
3.1942e-06
2.65648e-06
2.59781e-06
3.04052e-06
2.82484e-06
2.06261e-06
2.27102e-06
2.13606e-06
1.79283e-06
1.30951e-06
1.89089e-06
2.58478e-06
2.77393e-06
1.60175e-06
1.33822e-06
9.8176e-07
1.30669e-06
2.77413e-06
3.56547e-06
3.46501e-06
2.26091e-06
3.78194e-06
9.60723e-06
1.83973e-05
3.46392e-06
2.99004e-06
2.85151e-06
3.10837e-06
3.61701e-06
2.98417e-06
2.99924e-06
2.73799e-06
2.62199e-06
2.92903e-06
2.21905e-06
2.37022e-06
2.96911e-06
2.2627e-06
1.25156e-06
1.11144e-06
1.24361e-06
2.05753e-06
2.59657e-06
1.77623e-06
1.66032e-06
1.40875e-06
1.79657e-06
2.67651e-06
3.01755e-06
3.05328e-06
2.26442e-06
3.46976e-06
1.06107e-05
1.87935e-05
3.35938e-06
2.91422e-06
2.50372e-06
2.56718e-06
3.34316e-06
3.2865e-06
3.19654e-06
2.89259e-06
2.52198e-06
2.65671e-06
2.31863e-06
3.27907e-06
3.70116e-06
3.87062e-06
2.85527e-06
2.57316e-06
2.43608e-06
1.55603e-06
2.02708e-06
1.56422e-06
1.61293e-06
1.68161e-06
2.12019e-06
2.32246e-06
2.2643e-06
2.19272e-06
1.58579e-06
2.91761e-06
1.13856e-05
1.69701e-05
2.80461e-06
2.06665e-06
1.936e-06
1.51583e-06
1.81583e-06
2.51949e-06
3.1441e-06
3.2482e-06
2.86407e-06
3.64909e-06
4.41651e-06
5.60251e-06
6.1371e-06
6.73023e-06
6.14124e-06
5.46752e-06
4.58121e-06
3.33458e-06
2.81657e-06
2.14161e-06
2.16414e-06
2.2431e-06
2.30324e-06
1.98339e-06
1.76245e-06
1.64379e-06
1.26655e-06
2.45177e-06
1.19061e-05
1.76805e-05
2.6185e-06
1.69437e-06
1.65718e-06
1.20901e-06
1.21811e-06
2.16857e-06
2.98895e-06
3.21381e-06
3.53358e-06
4.94813e-06
5.09309e-06
6.47864e-06
7.05126e-06
7.6526e-06
7.66218e-06
6.53176e-06
5.24606e-06
4.01366e-06
3.68158e-06
2.72722e-06
2.32983e-06
2.07026e-06
1.98563e-06
1.75431e-06
1.69382e-06
1.68251e-06
1.36107e-06
1.89467e-06
1.22499e-05
1.69292e-05
2.01383e-06
1.16225e-06
1.21942e-06
1.0364e-06
9.43952e-07
1.69772e-06
2.79457e-06
2.71143e-06
3.8956e-06
5.5443e-06
6.20116e-06
7.95822e-06
8.44887e-06
8.69911e-06
8.48077e-06
7.75885e-06
6.58928e-06
5.21538e-06
4.31308e-06
3.28642e-06
1.92508e-06
1.63933e-06
1.58159e-06
1.40102e-06
1.38895e-06
1.42637e-06
1.10144e-06
1.84071e-06
1.2949e-05
1.66696e-05
1.9721e-06
1.13727e-06
1.17126e-06
1.24576e-06
1.30272e-06
1.86269e-06
2.87859e-06
2.94214e-06
3.54578e-06
4.90127e-06
6.44603e-06
7.46843e-06
8.15751e-06
8.19274e-06
7.99007e-06
7.17887e-06
6.36828e-06
5.66814e-06
3.94486e-06
3.15911e-06
2.16481e-06
1.46979e-06
1.35169e-06
1.35416e-06
1.31075e-06
1.0804e-06
6.12425e-07
1.9137e-06
1.35962e-05
1.59007e-05
2.29356e-06
1.19049e-06
1.1748e-06
1.24055e-06
1.48768e-06
1.79174e-06
2.15327e-06
2.99771e-06
4.3122e-06
5.40178e-06
6.03166e-06
5.80823e-06
6.57009e-06
7.52181e-06
7.60465e-06
6.63322e-06
5.95642e-06
5.97964e-06
5.21603e-06
4.43233e-06
3.01033e-06
1.93466e-06
1.38249e-06
1.34712e-06
1.17323e-06
8.32424e-07
5.07675e-07
1.92137e-06
1.40802e-05
1.55596e-05
2.61306e-06
1.08544e-06
1.11708e-06
1.31882e-06
1.6986e-06
1.88225e-06
2.21601e-06
3.28982e-06
4.65668e-06
5.27351e-06
5.54101e-06
5.07804e-06
5.95722e-06
7.21524e-06
7.36937e-06
6.47162e-06
5.85774e-06
6.23697e-06
5.57226e-06
4.56562e-06
3.18021e-06
1.90606e-06
1.37603e-06
1.3883e-06
1.22025e-06
1.02555e-06
6.96271e-07
1.72306e-06
1.39919e-05
1.49525e-05
2.71238e-06
1.11012e-06
1.3938e-06
1.46389e-06
1.82291e-06
1.88743e-06
2.04118e-06
2.75514e-06
3.79737e-06
4.5283e-06
6.01252e-06
6.18876e-06
7.11007e-06
7.9397e-06
8.06465e-06
7.74518e-06
6.55646e-06
6.282e-06
4.34029e-06
3.99445e-06
2.77616e-06
1.59037e-06
1.33649e-06
1.2701e-06
1.08247e-06
1.39154e-06
1.201e-06
1.65815e-06
1.40246e-05
1.44408e-05
2.72681e-06
1.60602e-06
1.76286e-06
1.43566e-06
1.6608e-06
1.94207e-06
2.10113e-06
2.39768e-06
3.77615e-06
4.7412e-06
5.45754e-06
6.32187e-06
7.35685e-06
8.2431e-06
8.49142e-06
7.90243e-06
6.48656e-06
5.48136e-06
4.0891e-06
3.98469e-06
2.38427e-06
2.01457e-06
1.78067e-06
1.18991e-06
1.0307e-06
2.04887e-06
2.02663e-06
2.31628e-06
1.39635e-05
1.34935e-05
2.86843e-06
1.86456e-06
1.86613e-06
1.9622e-06
2.40398e-06
2.67834e-06
2.7195e-06
2.83329e-06
3.43359e-06
4.13248e-06
4.51696e-06
5.04333e-06
6.38699e-06
7.88065e-06
8.33355e-06
7.16274e-06
5.76329e-06
4.76975e-06
4.07189e-06
3.63673e-06
3.12359e-06
2.55498e-06
2.09805e-06
1.5307e-06
1.39757e-06
2.15768e-06
2.05925e-06
2.90206e-06
1.34529e-05
1.25852e-05
3.06431e-06
1.84918e-06
1.68919e-06
2.49232e-06
2.93678e-06
2.60381e-06
2.38914e-06
2.28844e-06
2.46073e-06
2.70819e-06
3.37837e-06
3.76125e-06
4.9129e-06
6.47841e-06
7.59115e-06
6.69851e-06
5.33958e-06
4.03715e-06
3.1702e-06
2.94691e-06
2.82132e-06
2.55881e-06
2.36895e-06
2.41291e-06
2.1189e-06
1.94367e-06
1.65875e-06
3.17119e-06
1.25055e-05
1.19171e-05
3.51642e-06
2.22511e-06
1.92648e-06
3.31476e-06
3.63728e-06
2.5703e-06
1.93998e-06
1.83757e-06
1.9307e-06
1.94734e-06
1.90941e-06
2.16222e-06
3.30161e-06
3.75681e-06
4.84354e-06
4.58553e-06
3.95804e-06
2.65679e-06
2.34469e-06
2.5388e-06
2.3514e-06
2.22378e-06
2.61914e-06
3.43705e-06
3.1462e-06
2.06298e-06
1.4049e-06
3.08088e-06
1.11671e-05
1.10548e-05
3.55791e-06
2.15222e-06
2.97114e-06
4.13086e-06
3.59672e-06
2.31709e-06
1.77739e-06
1.6733e-06
1.72295e-06
2.09418e-06
2.51514e-06
1.5731e-06
2.10454e-06
3.03557e-06
3.15e-06
2.93282e-06
2.84195e-06
2.18746e-06
2.02646e-06
2.14622e-06
1.9878e-06
1.74593e-06