/*--------------------------------*- C++ -*----------------------------------*\
| =========                 |                                                 |
| \\      /  F ield         | OpenFOAM: The Open Source CFD Toolbox           |
|  \\    /   O peration     | Version:  v1906                                 |
|   \\  /    A nd           | Web:      www.OpenFOAM.com                      |
|    \\/     M anipulation  |                                                 |
\*---------------------------------------------------------------------------*/
FoamFile
{
    version     2.0;
    format      ascii;
    class       volScalarField;
    location    "44.6/sphere";
    object      T;
}
// * * * * * * * * * * * * * * * * * * * * * * * * * * * * * * * * * * * * * //

dimensions      [0 0 0 1 0 0 0];


internalField   nonuniform List<scalar> 
304
(
475.402
475.43
475.428
475.444
475.402
475.399
475.4
475.43
475.4
475.549
475.549
475.444
475.427
475.547
475.547
475.473
475.44
475.471
475.399
475.429
475.445
475.4
475.431
475.549
475.549
475.474
475.445
475.548
475.548
475.499
475.396
475.471
475.499
475.433
475.401
475.446
475.474
475.407
475.405
475.474
475.499
475.434
475.4
475.433
475.386
475.389
475.402
475.402
475.404
475.437
475.402
475.402
475.437
475.404
475.389
475.403
475.407
475.404
475.438
475.431
475.431
475.445
475.445
475.475
475.475
475.5
475.401
475.445
475.431
475.475
475.445
475.501
475.475
475.403
475.406
475.438
475.404
475.399
475.399
475.434
475.398
475.444
475.394
475.426
475.472
475.499
475.438
475.471
475.429
475.427
475.397
475.499
475.473
475.472
475.44
475.436
475.401
475.399
475.384
475.397
475.398
475.432
475.398
475.433
475.399
475.397
475.384
475.403
475.4
475.401
475.436
475.43
475.444
475.475
475.429
475.445
475.474
475.501
475.401
475.475
475.444
475.445
475.43
475.501
475.474
475.404
475.401
475.436
475.402
475.444
475.43
475.475
475.43
475.475
475.445
475.501
475.4
475.475
475.431
475.474
475.43
475.5
475.445
475.472
475.395
475.44
475.444
475.499
475.426
475.471
475.429
475.44
475.396
475.499
475.444
475.472
475.427
475.4
475.397
475.433
475.398
475.471
475.398
475.428
475.472
475.498
475.427
475.444
475.44
475.428
475.397
475.498
475.471
475.444
475.427
475.432
475.397
475.397
475.4
475.402
475.437
475.406
475.445
475.474
475.501
475.4
475.429
475.444
475.474
475.429
475.5
475.473
475.429
475.397
475.474
475.441
475.436
475.401
475.402
475.476
475.446
475.501
475.404
475.447
475.432
475.476
475.43
475.5
475.446
475.444
475.402
475.474
475.431
475.5
475.427
475.472
475.431
475.475
475.398
475.441
475.445
475.472
475.427
475.473
475.429
475.44
475.396
475.432
475.398
475.4
475.499
475.427
475.444
475.441
475.472
475.398
475.428
475.472
475.444
475.429
475.472
475.442
475.429
475.401
475.398
475.398
475.401
475.392
475.4
475.405
475.436
475.401
475.435
475.402
475.4
475.388
475.409
475.405
475.439
475.405
475.475
475.476
475.501
475.404
475.431
475.432
475.446
475.444
475.5
475.474
475.429
475.4
475.445
475.43
475.438
475.403
475.402
475.437
475.401
475.401
475.5
475.441
475.472
475.429
475.444
475.396
475.427
475.473
475.472
475.441
475.444
475.428
475.427
475.396
475.4
475.399
475.399
475.387
475.433
475.399
475.398
475.401
475.399
475.397
)
;

boundaryField
{
    sphere_to_oil
    {
        type            compressible::turbulentTemperatureCoupledBaffleMixed;
        refValue        nonuniform List<scalar> 
360
(
339.992
339.992
320.156
362.345
371.021
322.275
372.136
372.136
372.136
346.626
346.626
324.339
327.566
317.201
344.612
361.465
357.584
357.584
357.584
319.479
356.106
333.363
334.953
365.255
315.908
365.683
320.63
365.462
365.462
365.462
372.925
364.385
320.169
319.839
324.104
324.265
358.561
358.561
358.561
357.814
366.132
324.561
324.189
340.24
340.24
320.486
326.688
313.373
338.369
366.079
322.291
322.308
327.105
327.516
319.269
333.3
358.443
319.567
324.269
328.411
317.142
366.772
366.772
366.772
313.398
365.293
338.297
326.3
370.766
370.766
370.766
371.513
369.939
316.518
356.052
343.926
317.99
333.771
366.075
358.653
335.923
325.701
335.358
317.031
320.128
322.028
324.474
327.392
317.643
319.658
320.206
326.964
324.139
320.466
326.753
324.161
324.509
324.527
320.939
315.213
315.292
318.571
322.251
324.169
326.962
318.405
317.19
327.556
320.826
324.609
324.564
324.469
320.956
319.389
313.68
313.632
330.2
326.251
331.599
339.713
339.713
362.345
362.345
365.255
365.255
363.226
363.226
363.226
364.739
364.739
364.739
330.828
326.425
330.188
319.403
371.021
371.021
343.021
343.021
372.925
372.925
341.51
341.51
372.102
372.102
372.102
319.259
318.527
361.94
361.94
361.94
361.856
361.856
361.856
361.465
356.106
344.612
361.465
360.441
318.306
360.441
360.441
335.002
335.726
325.882
333.214
333.214
367.65
367.65
367.65
317.21
356.106
333.363
366.603
366.603
317.111
366.603
335.621
325.796
313.454
320.589
320.878
327.137
315.802
326.712
320.853
313.475
315.136
365.683
365.683
364.385
364.385
340.38
340.38
362.436
362.436
362.436
338.388
338.388
315.093
323.772
322.479
327.149
323.941
322.063
327.1
320.726
327.614
324.595
320.72
357.814
327.595
324.798
319.543
367.033
367.033
367.033
334.245
334.245
317.033
324.355
324.286
328.305
366.132
324.464
328.168
324.445
357.814
366.132
334.179
319.513
334.179
317.436
313.643
326.62
315.875
320.779
320.664
320.916
315.687
314.81
366.737
361.171
366.737
366.737
361.171
361.171
366.079
365.293
338.369
363.913
315.155
366.079
363.913
363.913
326.554
319.761
324.068
326.908
320.418
371.513
323.938
324.465
324.562
320.932
358.443
356.052
324.628
324.375
320.876
357.93
360.676
333.3
366.547
317.319
358.443
366.547
366.547
328.776
324.462
366.075
324.339
324.225
324.148
366.378
324.182
366.093
334.171
357.93
334.171
366.378
357.93
366.378
313.344
326.261
329.567
329.861
338.989
362.486
338.989
362.486
362.486
315.093
365.293
363.581
338.297
363.581
315.087
363.581
330.933
330.501
318.004
369.592
342.17
369.592
369.592
342.17
318.362
322.022
323.928
326.951
369.939
371.513
341.837
319.077
369.939
341.837
318.45
356.052
361.564
343.926
361.564
317.3
361.564
327.669
358.653
321.014
324.733
360.518
358.258
360.676
343.815
360.676
360.518
343.815
360.518
325.261
335.194
366.075
333.395
317.126
358.653
333.395
319.733
366.093
358.258
366.093
334.092
358.258
334.092
)
;
        refGradient     uniform 0;
        valueFraction   nonuniform List<scalar> 
360
(
0.000134211
0.000128757
8.24313e-05
0.000294478
0.000302014
0.000173179
0.000303891
0.00026085
0.000406023
0.000129275
0.000126041
0.000169088
0.000257697
7.3681e-05
0.000131804
0.000256215
0.000293617
0.000274342
0.000384963
6.74223e-05
0.000252762
0.00012426
0.000114524
0.000303909
8.82363e-05
0.000312383
0.000176085
0.000308349
0.000403534
0.000269937
0.000308399
0.000311056
8.3525e-05
8.25919e-05
0.000173324
0.000170567
0.00028862
0.000391281
0.000268687
0.000403994
0.00039906
8.52105e-05
0.000169016
0.000123355
0.000123207
0.000173989
0.000260305
6.94481e-05
0.000124265
0.0002635
0.000171638
0.000172752
0.000257505
0.000255003
7.20444e-05
0.000131796
0.000268767
6.90166e-05
0.000170976
0.000254963
6.75549e-05
0.000300155
0.000264964
0.000414697
6.96467e-05
0.000270916
0.00012637
0.000122226
0.000307089
0.000400609
0.000269478
0.000386314
0.000391722
7.48144e-05
0.000261187
0.000132501
6.89767e-05
0.000123686
0.000390895
0.000406071
0.000121312
0.000119024
0.000116906
6.94792e-05
8.37845e-05
0.000169863
0.000170814
0.00025868
7.80853e-05
6.59316e-05
8.29195e-05
0.000258259
0.000170491
8.4703e-05
0.000257832
0.000172438
0.000171417
0.000171682
8.37196e-05
6.71059e-05
6.80472e-05
6.71415e-05
0.000172608
0.00016965
0.000258064
7.59772e-05
6.59942e-05
0.000257877
8.19226e-05
0.000169917
0.000169949
0.000173416
8.47986e-05
6.79027e-05
6.62227e-05
6.75021e-05
0.000117497
0.000117638
0.000122208
0.000132517
0.000124548
0.000257346
0.000405403
0.000271132
0.000409131
0.000262254
0.000403195
0.000300203
0.000262466
0.000394419
0.000295652
0.000120592
0.000114043
0.000116809
6.44825e-05
0.000267429
0.000402646
0.000124578
0.000125147
0.00040691
0.000270547
0.000130593
0.000137639
0.000401901
0.00027609
0.000318138
7.09669e-05
6.60424e-05
0.000278752
0.000386281
0.000306186
0.000287011
0.000399655
0.000306154
0.000316095
0.000291162
0.000136197
0.000405962
0.000262227
7.31094e-05
0.000394568
0.000295267
0.000112681
0.000118714
0.000117443
0.000123896
0.000129511
0.00040393
0.000265966
0.000312188
7.48534e-05
0.000388566
0.000133237
0.000408585
0.000261562
7.31156e-05
0.000310135
0.000113681
0.000114736
6.70357e-05
0.000175709
0.000175639
0.000259711
8.66057e-05
0.000260104
0.000171144
6.63474e-05
6.44255e-05
0.000406441
0.000258249
0.00040167
0.000267798
0.000127739
0.00011946
0.000403543
0.00025221
0.000291531
0.000118081
0.000137011
6.89292e-05
0.00017262
0.000172464
0.000257675
0.000168718
0.000169587
0.00025666
8.7971e-05
0.000257541
0.000174622
8.55493e-05
0.000289879
0.000257256
0.000173576
6.9175e-05
0.000394727
0.000255895
0.000299398
0.000124734
0.000115915
6.69557e-05
0.000171278
0.000174159
0.000258224
0.000293587
8.21106e-05
0.000255774
0.000167046
0.000254082
0.000268983
0.000122101
6.85819e-05
0.00013549
6.94298e-05
6.53548e-05
0.000261107
8.71367e-05
0.000175538
0.000173508
0.00017144
8.60414e-05
6.57237e-05
0.000266968
0.000250155
0.000419955
0.000312594
0.000391794
0.000281504
0.000301723
0.000308922
0.000137315
0.000265016
7.14014e-05
0.000403288
0.000392138
0.000297941
0.000259865
8.28025e-05
0.000169089
0.000256878
8.35441e-05
0.000306086
0.000169821
0.000171035
0.000169459
8.30383e-05
0.000303805
0.000284692
0.000172891
0.000168421
8.46372e-05
0.000285252
0.000313987
0.000124523
0.000281859
6.69407e-05
0.000401563
0.000389316
0.000294171
0.000254972
8.37599e-05
0.000294633
0.000169654
0.000169916
0.000170883
0.000296238
8.45448e-05
0.000302668
0.000127356
0.000260957
0.000128419
0.000265923
0.000405247
0.000397836
6.69091e-05
0.000134079
0.000132495
0.000129593
0.000118018
0.000394844
0.000128898
0.000262496
0.000309103
6.59339e-05
0.000398698
0.000398217
0.000130362
0.000283142
6.90961e-05
0.000303549
0.000115573
0.000113538
6.9039e-05
0.000390504
0.000116707
0.000256097
0.000301616
0.000125121
6.82082e-05
0.000169719
0.000169661
0.000256015
0.000292942
0.000254087
0.000122847
6.61261e-05
0.000258343
0.000136441
7.6371e-05
0.000374379
0.000402008
0.000118811
0.000255367
7.08e-05
0.000321162
0.000257977
0.000309089
8.45545e-05
0.000170449
0.000298
0.000288906
0.000271797
0.000121486
0.00039814
0.000397283
0.000144213
0.000265561
0.00011684
0.000118633
0.000267348
0.000132343
7.15544e-05
0.000270389
0.000127435
6.60797e-05
0.000393531
0.000398257
0.000262039
0.000127168
0.000257397
0.000131362
)
;
        value           nonuniform List<scalar> 
360
(
475.404
475.404
475.409
475.388
475.39
475.423
475.39
475.396
475.384
475.402
475.403
475.422
475.426
475.41
475.405
475.393
475.379
475.384
475.372
475.408
475.388
475.401
475.387
475.386
475.405
475.385
475.422
475.387
475.379
475.391
475.388
475.385
475.407
475.407
475.421
475.423
475.381
475.374
475.385
475.372
475.375
475.405
475.422
475.403
475.405
475.421
475.426
475.408
475.403
475.391
475.424
475.423
475.426
475.427
475.405
475.397
475.385
475.407
475.421
475.426
475.407
475.387
475.391
475.379
475.41
475.391
475.403
475.389
475.391
475.387
475.396
475.386
475.385
475.413
475.394
475.408
475.409
475.389
475.377
475.372
475.389
475.388
475.39
475.408
475.411
475.423
475.423
475.425
475.406
475.407
475.408
475.427
475.425
475.406
475.427
475.423
475.422
475.421
475.403
475.411
475.411
475.412
475.424
475.425
475.426
475.411
475.409
475.425
475.401
475.42
475.423
475.42
475.403
475.406
475.411
475.411
475.392
475.391
475.391
475.404
475.405
475.393
475.378
475.392
475.379
475.392
475.379
475.387
475.393
475.38
475.388
475.391
475.392
475.392
475.413
475.395
475.384
475.407
475.407
475.385
475.396
475.405
475.405
475.384
475.395
475.387
475.412
475.409
475.387
475.374
475.379
475.386
475.372
475.38
475.38
475.381
475.403
475.372
475.391
475.409
475.373
475.382
475.388
475.387
475.386
475.399
475.399
475.374
475.389
475.384
475.405
475.372
475.398
475.374
475.389
475.405
475.383
475.388
475.386
475.409
475.422
475.421
475.426
475.407
475.426
475.423
475.41
475.41
475.378
475.391
475.378
475.391
475.403
475.405
475.378
475.393
475.387
475.405
475.403
475.411
475.424
475.423
475.427
475.425
475.424
475.427
475.401
475.426
475.42
475.403
475.382
475.426
475.421
475.406
475.377
475.39
475.385
475.399
475.401
475.407
475.421
475.421
475.425
475.385
475.404
475.426
475.422
475.386
475.387
475.399
475.406
475.398
475.406
475.409
475.426
475.405
475.421
475.421
475.422
475.403
475.411
475.39
475.393
475.38
475.385
475.381
475.391
475.384
475.383
475.402
475.391
475.409
475.377
475.378
475.388
475.427
475.411
475.426
475.427
475.409
475.39
475.425
475.421
475.425
475.405
475.382
475.383
475.421
475.423
475.403
475.383
475.38
475.4
475.387
475.407
475.373
475.378
475.386
475.426
475.405
475.386
475.422
475.422
475.423
475.388
475.407
475.387
475.4
475.387
475.4
475.389
475.373
475.377
475.409
475.392
475.393
475.393
475.403
475.38
475.403
475.391
475.389
475.41
475.378
475.377
475.402
475.388
475.409
475.385
475.391
475.391
475.413
475.387
475.409
475.397
475.392
475.408
475.414
475.424
475.426
475.427
475.389
475.397
475.407
475.413
475.394
475.403
475.41
475.376
475.375
475.405
475.392
475.41
475.379
475.426
475.379
475.402
475.421
475.382
475.382
475.388
475.404
475.373
475.373
475.399
475.388
475.389
475.39
475.389
475.399
475.407
475.386
475.399
475.407
475.378
475.374
475.39
475.401
475.387
475.399
)
;
        Tnbr            T;
        thicknessLayers 0();
        kappaLayers     0();
        kappaMethod     solidThermo;
        kappa           none;
        alphaAni        none;
    }
}


// ************************************************************************* //
