/*--------------------------------*- C++ -*----------------------------------*\
| =========                 |                                                 |
| \\      /  F ield         | OpenFOAM: The Open Source CFD Toolbox           |
|  \\    /   O peration     | Version:  v1912                                 |
|   \\  /    A nd           | Website:  www.openfoam.com                      |
|    \\/     M anipulation  |                                                 |
\*---------------------------------------------------------------------------*/
FoamFile
{
    version     2.0;
    format      ascii;
    class       surfaceScalarField;
    location    "372/oil";
    object      phi;
}
// * * * * * * * * * * * * * * * * * * * * * * * * * * * * * * * * * * * * * //

dimensions      [1 0 -1 0 0 0 0];
oriented        oriented;


internalField   nonuniform List<scalar> 
104676
(
-1.24083e-11
2.81333e-11
-1.57034e-11
2.82977e-10
-2.32421e-10
-6.29713e-11
8.87256e-10
-4.36299e-10
-1.67973e-10
1.70707e-09
-5.32412e-10
-2.87393e-10
2.62197e-09
-5.44406e-10
-3.70482e-10
3.51156e-09
-4.95053e-10
-3.9453e-10
4.26717e-09
-4.02286e-10
-3.53318e-10
4.79794e-09
-2.79422e-10
-2.51356e-10
5.03314e-09
-1.36774e-10
-9.84204e-11
4.93417e-09
1.27942e-11
8.61765e-11
4.48233e-09
1.67367e-10
2.84484e-10
3.70889e-09
2.93486e-10
4.79961e-10
2.65429e-09
4.08092e-10
6.46518e-10
1.39427e-09
4.91107e-10
7.68931e-10
2.52639e-11
5.34974e-10
8.34046e-10
-1.34799e-09
5.37339e-10
8.35929e-10
-2.61139e-09
4.91524e-10
7.71877e-10
-3.67011e-09
4.07696e-10
6.51027e-10
-4.45091e-09
2.95173e-10
4.85629e-10
-4.90819e-09
1.63712e-10
2.93575e-10
-5.01913e-09
1.38761e-11
9.70664e-11
-4.78898e-09
-1.39661e-10
-9.04822e-11
-4.26234e-09
-2.81762e-10
-2.4488e-10
-3.50981e-09
-4.04466e-10
-3.48053e-10
-2.62274e-09
-4.96822e-10
-3.90245e-10
-1.70964e-09
-5.47118e-10
-3.65987e-10
-8.90371e-10
-5.365e-10
-2.8276e-10
-2.85789e-10
-4.40974e-10
-1.63604e-10
1.041e-11
-2.36601e-10
-5.95939e-11
2.38876e-11
-1.34769e-11
2.89446e-10
-5.50774e-10
2.89453e-10
1.11795e-09
-1.6558e-09
5.9487e-10
2.4345e-09
-2.48972e-09
7.36875e-10
4.0927e-09
-2.99795e-09
8.07342e-10
5.89316e-09
-3.2417e-09
8.96848e-10
7.62114e-09
-3.28087e-09
1.05784e-09
9.07375e-09
-3.16672e-09
1.31183e-09
1.00754e-08
-2.93973e-09
1.65865e-09
1.04893e-08
-2.63381e-09
2.08316e-09
1.02277e-08
-2.27954e-09
2.55389e-09
9.24996e-09
-1.9068e-09
3.05194e-09
7.60998e-09
-1.5804e-09
3.51388e-09
5.43038e-09
-1.29334e-09
3.88105e-09
2.84926e-09
-1.08568e-09
4.15791e-09
5.09762e-11
-9.77069e-10
4.31035e-09
-2.75809e-09
-9.77749e-10
4.32416e-09
-5.346e-09
-1.09076e-09
4.1702e-09
-7.52727e-09
-1.30211e-09
3.89108e-09
-9.15323e-09
-1.5898e-09
3.51094e-09
-1.01333e-08
-1.92248e-09
3.06629e-09
-1.04098e-08
-2.29012e-09
2.5805e-09
-1.00093e-08
-2.64182e-09
2.1016e-09
-9.02395e-09
-2.94473e-09
1.67766e-09
-7.589e-09
-3.17074e-09
1.33132e-09
-5.87552e-09
-3.28589e-09
1.0756e-09
-4.08798e-09
-3.24838e-09
9.13734e-10
-2.43789e-09
-3.00902e-09
8.22434e-10
-1.12222e-09
-2.50425e-09
7.47602e-10
-2.90914e-10
-1.6676e-09
5.99699e-10
-5.56905e-10
2.8988e-10
6.09572e-10
-1.77575e-09
6.15411e-10
1.93798e-09
-4.30113e-09
1.31692e-09
3.8015e-09
-6.10674e-09
1.7535e-09
6.01691e-09
-7.28529e-09
2.07194e-09
8.35486e-09
-7.96279e-09
2.38314e-09
1.05628e-08
-8.24366e-09
2.75483e-09
1.23941e-08
-8.21778e-09
3.21983e-09
1.36299e-08
-7.95934e-09
3.78376e-09
1.40997e-08
-7.53581e-09
4.43217e-09
1.36944e-08
-7.00388e-09
5.12964e-09
1.23605e-08
-6.42506e-09
5.85216e-09
1.01545e-08
-5.87787e-09
6.50349e-09
7.23608e-09
-5.39805e-09
7.02315e-09
3.79348e-09
-5.04776e-09
7.40472e-09
6.55035e-11
-4.86721e-09
7.61814e-09
-3.68017e-09
-4.87584e-09
7.64378e-09
-7.13316e-09
-5.05978e-09
7.42201e-09
-1.00515e-08
-5.41206e-09
7.0283e-09
-1.22441e-08
-5.88838e-09
6.49113e-09
-1.35946e-08
-6.44036e-09
5.86843e-09
-1.40216e-08
-7.01786e-09
5.15477e-09
-1.35676e-08
-7.54582e-09
4.45e-09
-1.23485e-08
-7.96716e-09
3.80332e-09
-1.05348e-08
-8.22366e-09
3.23927e-09
-8.34305e-09
-8.25096e-09
2.77328e-09
-6.01609e-09
-7.97488e-09
2.39955e-09
-3.80784e-09
-7.30224e-09
2.08497e-09
-1.94556e-09
-6.12727e-09
1.76074e-09
-6.13212e-10
-4.31711e-09
1.31717e-09
-1.78436e-09
6.14247e-10
8.74408e-10
-3.53522e-09
8.85059e-10
2.62352e-09
-7.9598e-09
1.90956e-09
4.93059e-09
-1.09966e-08
2.58279e-09
7.57039e-09
-1.30268e-08
3.1017e-09
1.02906e-08
-1.4282e-08
3.59902e-09
1.28194e-08
-1.4922e-08
4.14953e-09
1.48898e-08
-1.50796e-08
4.79139e-09
1.62628e-08
-1.48646e-08
5.53233e-09
1.67443e-08
-1.43769e-08
6.35959e-09
1.62088e-08
-1.37082e-08
7.2399e-09
1.45934e-08
-1.29509e-08
8.1412e-09
1.19744e-08
-1.21955e-08
8.93671e-09
8.52572e-09
-1.15377e-08
9.58837e-09
4.46634e-09
-1.10308e-08
1.00424e-08
7.39852e-11
-1.07725e-08
1.02977e-08
-4.34183e-09
-1.07908e-08
1.03308e-08
-8.41491e-09
-1.10437e-08
1.0057e-08
-1.18654e-08
-1.15373e-08
9.57576e-09
-1.44723e-08
-1.21986e-08
8.91711e-09
-1.6101e-08
-1.2957e-08
8.14544e-09
-1.66563e-08
-1.37146e-08
7.25199e-09
-1.61924e-08
-1.43816e-08
6.37196e-09
-1.48389e-08
-1.48686e-08
5.54792e-09
-1.27861e-08
-1.50831e-08
4.80669e-09
-1.02745e-08
-1.49282e-08
4.16558e-09
-7.56883e-09
-1.42941e-08
3.61362e-09
-4.93595e-09
-1.30466e-08
3.11152e-09
-2.631e-09
-1.10159e-08
2.58365e-09
-8.80891e-10
-7.96632e-09
1.89911e-09
-3.54706e-09
8.81807e-10
1.07418e-09
-5.69351e-09
1.08412e-09
3.14804e-09
-1.23765e-08
2.34282e-09
5.80263e-09
-1.6844e-08
3.19278e-09
8.76999e-09
-1.98541e-08
3.85991e-09
1.17767e-08
-2.17857e-08
4.4969e-09
1.45377e-08
-2.28707e-08
5.18766e-09
1.67751e-08
-2.32893e-08
5.9724e-09
1.82367e-08
-2.31883e-08
6.86204e-09
1.872e-08
-2.27002e-08
7.83992e-09
1.80864e-08
-2.1949e-08
8.87426e-09
1.62691e-08
-2.10623e-08
9.9287e-09
1.33467e-08
-2.01512e-08
1.0878e-08
9.4951e-09
-1.93332e-08
1.16471e-08
4.97111e-09
-1.86689e-08
1.21621e-08
7.96084e-11
-1.83329e-08
1.2452e-08
-4.8394e-09
-1.83579e-08
1.24861e-08
-9.37301e-09
-1.86851e-08
1.2175e-08
-1.32192e-08
-1.93096e-08
1.16185e-08
-1.61395e-08
-2.0145e-08
1.08666e-08
-1.79721e-08
-2.10616e-08
9.93715e-09
-1.86258e-08
-2.19494e-08
8.88855e-09
-1.8162e-08
-2.27006e-08
7.85513e-09
-1.67189e-08
-2.31897e-08
6.87795e-09
-1.44985e-08
-2.32916e-08
5.98819e-09
-1.17541e-08
-2.28753e-08
5.20267e-09
-8.76281e-09
-2.1795e-08
4.50955e-09
-5.80602e-09
-1.98703e-08
3.86683e-09
-3.15345e-09
-1.6858e-08
3.18958e-09
-1.0798e-09
-1.23675e-08
2.32755e-09
-5.7081e-09
1.08124e-09
1.2084e-09
-8.12204e-09
1.22015e-09
3.51283e-09
-1.7313e-08
2.63208e-09
6.42002e-09
-2.33548e-08
3.60365e-09
9.625e-09
-2.74357e-08
4.37666e-09
1.28383e-08
-3.01144e-08
5.11541e-09
1.5766e-08
-3.17123e-08
5.91389e-09
1.81241e-08
-3.24619e-08
6.81457e-09
1.96533e-08
-3.25483e-08
7.83081e-09
2.01436e-08
-3.21345e-08
8.94405e-09
1.94514e-08
-3.13735e-08
1.01167e-08
1.75064e-08
-3.04211e-08
1.13038e-08
1.43625e-08
-2.94303e-08
1.24232e-08
1.02131e-08
-2.84975e-08
1.33138e-08
5.3439e-09
-2.76872e-08
1.38875e-08
7.96195e-11
-2.7264e-08
1.41954e-08
-5.21455e-09
-2.72911e-08
1.42274e-08
-1.00835e-08
-2.77245e-08
1.39084e-08
-1.42191e-08
-2.84517e-08
1.32776e-08
-1.7367e-08
-2.94161e-08
1.24191e-08
-1.93304e-08
-3.04168e-08
1.13187e-08
-2.00453e-08
-3.13699e-08
1.01354e-08
-1.95758e-08
-3.21327e-08
8.96276e-09
-1.80655e-08
-3.2549e-08
7.84894e-09
-1.57246e-08
-3.2464e-08
6.83153e-09
-1.28118e-08
-3.17163e-08
5.92819e-09
-9.61271e-09
-3.01211e-08
5.12709e-09
-6.41936e-09
-2.74453e-08
4.38166e-09
-3.51848e-09
-2.33561e-08
3.59721e-09
-1.21464e-09
-1.72875e-08
2.61615e-09
-8.14133e-09
1.2186e-09
1.27594e-09
-1.07017e-08
1.30376e-09
3.7222e-09
-2.2579e-08
2.81976e-09
6.78865e-09
-3.02765e-08
3.85524e-09
1.01409e-08
-3.54747e-08
4.68674e-09
1.3481e-08
-3.89488e-08
5.49439e-09
1.65119e-08
-4.11163e-08
6.37313e-09
1.89484e-08
-4.22657e-08
7.36737e-09
2.05265e-08
-4.26195e-08
8.49311e-09
2.10328e-08
-4.23695e-08
9.72869e-09
2.03158e-08
-4.16894e-08
1.10329e-08
1.83034e-08
-4.07623e-08
1.23536e-08
1.50139e-08
-3.97665e-08
1.36257e-08
1.06811e-08
-3.8809e-08
1.46443e-08
5.58801e-09
-3.78661e-08
1.5272e-08
8.66631e-11
-3.73633e-08
1.56006e-08
-5.43984e-09
-3.74046e-08
1.564e-08
-1.05497e-08
-3.79363e-08
1.53216e-08
-1.48669e-08
-3.87537e-08
1.46193e-08
-1.81601e-08
-3.97526e-08
1.36296e-08
-2.01923e-08
-4.07615e-08
1.23768e-08
-2.09318e-08
-4.16892e-08
1.10589e-08
-2.04473e-08
-4.237e-08
9.75269e-09
-1.88883e-08
-4.26225e-08
8.51443e-09
-1.64692e-08
-4.22706e-08
7.38752e-09
-1.34523e-08
-4.11217e-08
6.38851e-09
-1.01257e-08
-3.89536e-08
5.50591e-09
-6.78596e-09
-3.54744e-08
4.68936e-09
-3.7316e-09
-3.0251e-08
3.84059e-09
-1.29146e-09
-2.25172e-08
2.78956e-09
-1.0733e-08
1.30025e-09
1.30123e-09
-1.33344e-08
1.33138e-09
3.78879e-09
-2.7958e-08
2.8915e-09
6.90782e-09
-3.73529e-08
3.95746e-09
1.03104e-08
-4.36911e-08
4.81384e-09
1.36885e-08
-4.79821e-08
5.65518e-09
1.67499e-08
-5.07654e-08
6.58775e-09
1.92138e-08
-5.23829e-08
7.65329e-09
2.08179e-08
-5.3091e-08
8.86728e-09
2.13443e-08
-5.31045e-08
1.02086e-08
2.06387e-08
-5.26161e-08
1.16323e-08
1.86162e-08
-5.18197e-08
1.30799e-08
1.52765e-08
-5.09178e-08
1.44911e-08
1.08619e-08
-5.00478e-08
1.56534e-08
5.67439e-09
-4.89959e-08
1.63173e-08
8.61913e-11
-4.84583e-08
1.66833e-08
-5.53503e-09
-4.85088e-08
1.67255e-08
-1.07594e-08
-4.90681e-08
1.63562e-08
-1.51395e-08
-4.99889e-08
1.56153e-08
-1.84745e-08
-5.0907e-08
1.44894e-08
-2.05153e-08
-5.18231e-08
1.31025e-08
-2.12442e-08
-5.2619e-08
1.16587e-08
-2.07392e-08
-5.31084e-08
1.02334e-08
-1.91534e-08
-5.30983e-08
8.89006e-09
-1.67059e-08
-5.2393e-08
7.67493e-09
-1.36581e-08
-5.07749e-08
6.60545e-09
-1.02939e-08
-4.79849e-08
5.66705e-09
-6.90878e-09
-4.36677e-08
4.80813e-09
-3.804e-09
-3.72828e-08
3.927e-09
-1.31536e-09
-2.78573e-08
2.85149e-09
-1.33787e-08
1.33033e-09
1.27865e-09
-1.59203e-08
1.30725e-09
3.70696e-09
-3.3239e-08
2.85263e-09
6.76226e-09
-4.43368e-08
3.92859e-09
1.01059e-08
-5.18209e-08
4.78617e-09
1.34275e-08
-5.69235e-08
5.61974e-09
1.64338e-08
-6.03336e-08
6.5618e-09
1.886e-08
-6.24725e-08
7.66335e-09
2.04538e-08
-6.36166e-08
8.93183e-09
2.09973e-08
-6.39921e-08
1.03441e-08
2.03331e-08
-6.3806e-08
1.18541e-08
1.83807e-08
-6.32561e-08
1.33887e-08
1.51254e-08
-6.25379e-08
1.48755e-08
1.07366e-08
-6.18152e-08
1.61563e-08
5.60163e-09
-6.07309e-08
1.687e-08
8.16643e-11
-6.02393e-08
1.7301e-08
-5.47829e-09
-6.0284e-08
1.73351e-08
-1.06645e-08
-6.0758e-08
1.68761e-08
-1.5013e-08
-6.17255e-08
1.60851e-08
-1.82459e-08
-6.25276e-08
1.48535e-08
-2.02126e-08
-6.3263e-08
1.34065e-08
-2.08981e-08
-6.38141e-08
1.18806e-08
-2.03754e-08
-6.40008e-08
1.03698e-08
-1.88001e-08
-6.3629e-08
8.95538e-09
-1.63896e-08
-6.24889e-08
7.68543e-09
-1.33982e-08
-6.03432e-08
6.57692e-09
-1.01001e-08
-5.68959e-08
5.61287e-09
-6.78004e-09
-5.17298e-08
4.74211e-09
-3.73302e-09
-4.41929e-08
3.8631e-09
-1.28737e-09
-3.31097e-08
2.80672e-09
-1.5974e-08
1.30796e-09
1.21304e-09
-1.83591e-08
1.22577e-09
3.5051e-09
-3.82093e-08
2.67825e-09
6.3596e-09
-5.09172e-08
3.72588e-09
9.50581e-09
-5.95463e-08
4.57918e-09
1.26571e-08
-6.54638e-08
5.38904e-09
1.55117e-08
-6.94773e-08
6.28913e-09
1.7821e-08
-7.21556e-08
7.37381e-09
1.93525e-08
-7.37938e-08
8.64577e-09
1.99016e-08
-7.46158e-08
1.00746e-08
1.93079e-08
-7.48259e-08
1.16137e-08
1.74944e-08
-7.46207e-08
1.31781e-08
1.44465e-08
-7.41766e-08
1.46866e-08
1.02225e-08
-7.36206e-08
1.60295e-08
5.33015e-09
-7.26431e-08
1.68046e-08
7.57431e-11
-7.22461e-08
1.72612e-08
-5.20947e-09
-7.22882e-08
1.72894e-08
-1.01357e-08
-7.26167e-08
1.6785e-08
-1.43368e-08
-7.34404e-08
1.5916e-08
-1.73686e-08
-7.41519e-08
1.46561e-08
-1.91917e-08
-7.4633e-08
1.3193e-08
-1.9806e-08
-7.4839e-08
1.16392e-08
-1.92778e-08
-7.46287e-08
1.00997e-08
-1.77627e-08
-7.38128e-08
8.66862e-09
-1.54662e-08
-7.21782e-08
7.39286e-09
-1.26345e-08
-6.9463e-08
6.28809e-09
-9.51831e-09
-6.53486e-08
5.33643e-09
-6.38101e-09
-5.93536e-08
4.48643e-09
-3.50819e-09
-5.07074e-08
3.64164e-09
-1.20875e-09
-3.80496e-08
2.64049e-09
-1.84148e-08
1.23198e-09
1.0946e-09
-2.05415e-08
1.08787e-09
3.17002e-09
-4.26306e-08
2.34594e-09
5.7279e-09
-5.67599e-08
3.28484e-09
8.52269e-09
-6.64606e-08
4.11949e-09
1.13569e-08
-7.31997e-08
4.90165e-09
1.39411e-08
-7.77954e-08
5.73391e-09
1.6043e-08
-8.10031e-08
6.74565e-09
1.74535e-08
-8.31631e-08
7.95873e-09
1.7984e-08
-8.44761e-08
9.32976e-09
1.74877e-08
-8.51323e-08
1.08026e-08
1.59086e-08
-8.53057e-08
1.2264e-08
1.32057e-08
-8.51235e-08
1.36498e-08
9.31443e-09
-8.46924e-08
1.49631e-08
4.84756e-09
-8.40512e-08
1.5875e-08
6.8563e-11
-8.38186e-08
1.63516e-08
-4.72934e-09
-8.38609e-08
1.63706e-08
-9.17301e-09
-8.40298e-08
1.58567e-08
-1.29935e-08
-8.4603e-08
1.49831e-08
-1.57344e-08
-8.52309e-08
1.382e-08
-1.73684e-08
-8.53539e-08
1.23549e-08
-1.78906e-08
-8.5152e-08
1.08351e-08
-1.73829e-08
-8.44857e-08
9.34935e-09
-1.59859e-08
-8.31846e-08
7.97475e-09
-1.38919e-08
-8.10268e-08
6.75465e-09
-1.13322e-08
-7.77279e-08
5.70517e-09
-8.52232e-09
-7.2963e-08
4.8046e-09
-5.69155e-09
-6.61881e-08
4.00374e-09
-3.11371e-09
-5.65158e-08
3.23061e-09
-1.06252e-09
-4.24378e-08
2.33703e-09
-2.05728e-08
1.09551e-09
9.22227e-10
-2.23615e-08
8.97769e-10
2.69037e-09
-4.62843e-08
1.8855e-09
4.8515e-09
-6.15151e-08
2.59408e-09
7.19526e-09
-7.21102e-08
3.30585e-09
9.52979e-09
-7.95922e-08
4.05804e-09
1.16979e-08
-8.47966e-08
4.83308e-09
1.34902e-08
-8.85206e-08
5.72535e-09
1.47222e-08
-9.12015e-08
6.80638e-09
1.52228e-08
-9.30096e-08
8.03284e-09
1.48583e-08
-9.40787e-08
9.31095e-09
1.35396e-08
-9.45503e-08
1.05632e-08
1.11844e-08
-9.46584e-08
1.18901e-08
7.89971e-09
-9.45497e-08
1.31421e-08
4.12365e-09
-9.42605e-08
1.39854e-08
5.71029e-11
-9.41662e-08
1.44142e-08
-4.03873e-09
-9.41416e-08
1.43765e-08
-7.82174e-09
-9.41107e-08
1.38639e-08
-1.10595e-08
-9.44158e-08
1.30505e-08
-1.3372e-08
-9.4926e-08
1.20076e-08
-1.47201e-08
-9.46449e-08
1.06391e-08
-1.51185e-08
-9.40636e-08
9.31007e-09
-1.46508e-08
-9.29733e-08
8.01986e-09
-1.34345e-08
-9.12044e-08
6.80354e-09
-1.16312e-08
-8.8544e-08
5.71387e-09
-9.46372e-09
-8.46855e-08
4.79013e-09
-7.11208e-09
-7.93366e-08
4.02188e-09
-4.77514e-09
-7.18975e-08
3.37247e-09
-2.62954e-09
-6.14038e-08
2.74237e-09
-9.07064e-10
-4.61478e-08
1.98748e-09
-2.24075e-08
9.27589e-10
7.07454e-10
-2.37457e-08
6.76692e-10
2.0378e-09
-4.90563e-08
1.44168e-09
3.70602e-09
-6.51303e-08
1.94691e-09
5.49269e-09
-7.62796e-08
2.38277e-09
7.22453e-09
-8.42469e-08
2.92287e-09
8.83647e-09
-8.99854e-08
3.57683e-09
1.0196e-08
-9.41945e-08
4.31442e-09
1.11792e-08
-9.7337e-08
5.15236e-09
1.16592e-08
-9.95811e-08
6.09141e-09
1.14024e-08
-1.00931e-07
7.10883e-09
1.02727e-08
-1.0166e-07
8.23972e-09
8.37967e-09
-1.02167e-07
9.4013e-09
5.99988e-09
-1.0255e-07
1.03806e-08
3.16917e-09
-1.02483e-07
1.10534e-08
4.98092e-11
-1.02423e-07
1.13763e-08
-3.12173e-09
-1.02271e-07
1.13012e-08
-6.011e-09
-1.02108e-07
1.08862e-08
-8.44319e-09
-1.02171e-07
1.01871e-08
-1.02789e-08
-1.02289e-07
9.1984e-09
-1.12967e-08
-1.01613e-07
7.98625e-09
-1.15443e-08
-1.00756e-07
6.94002e-09
-1.11491e-08
-9.93405e-08
5.97205e-09
-1.02187e-08
-9.72178e-08
5.08282e-09
-8.86628e-09
-9.42305e-08
4.3341e-09
-7.21867e-09
-9.00218e-08
3.68864e-09
-5.42853e-09
-8.42283e-08
3.10163e-09
-3.64443e-09
-7.62639e-08
2.58235e-09
-2.00628e-09
-6.51252e-08
2.08323e-09
-6.93043e-10
-4.89665e-08
1.50545e-09
-2.38018e-08
7.01333e-10
4.77823e-10
-2.46349e-08
4.11452e-10
1.28863e-09
-5.0732e-08
8.64946e-10
2.32944e-09
-6.74222e-08
1.25108e-09
3.45908e-09
-7.89713e-08
1.562e-09
4.56737e-09
-8.7275e-08
1.91979e-09
5.6046e-09
-9.33543e-08
2.33165e-09
6.47557e-09
-9.78347e-08
2.76925e-09
7.06682e-09
-1.01136e-07
3.20809e-09
7.38541e-09
-1.03586e-07
3.68604e-09
7.19891e-09
-1.05134e-07
4.38941e-09
6.4578e-09
-1.06174e-07
5.25454e-09
5.31139e-09
-1.0707e-07
6.05e-09
3.81196e-09
-1.07723e-07
6.67199e-09
2.02052e-09
-1.07796e-07
7.104e-09
5.99285e-11
-1.07806e-07
7.34379e-09
-1.93058e-09
-1.07604e-07
7.32291e-09
-3.75546e-09
-1.07362e-07
7.07944e-09
-5.26156e-09
-1.073e-07
6.63517e-09
-6.43808e-09
-1.07141e-07
6.02917e-09
-7.16156e-09
-1.06119e-07
5.2296e-09
-7.43101e-09
-1.04872e-07
4.38544e-09
-7.22033e-09
-1.0315e-07
3.59888e-09
-6.58247e-09
-1.00851e-07
2.99528e-09
-5.64019e-09
-9.77548e-08
2.58203e-09
-4.55264e-09
-9.3364e-08
2.25461e-09
-3.41025e-09
-8.73061e-08
1.93538e-09
-2.28308e-09
-7.90097e-08
1.61866e-09
-1.25312e-09
-6.746e-08
1.30492e-09
-4.33279e-10
-5.07272e-08
9.40902e-10
-2.46731e-08
4.37999e-10
1.74465e-10
-2.49491e-08
1.39698e-10
4.47568e-10
-5.13042e-08
2.99088e-10
8.13698e-10
-6.82348e-08
4.46563e-10
1.21582e-09
-7.99311e-08
5.5775e-10
1.62189e-09
-8.83501e-08
6.69062e-10
2.03329e-09
-9.45275e-08
7.61848e-10
2.41586e-09
-9.90601e-08
8.42761e-10
2.64418e-09
-1.02339e-07
9.74081e-10
2.67617e-09
-1.04797e-07
1.17969e-09
2.53185e-09
-1.06463e-07
1.47287e-09
2.30247e-09
-1.07725e-07
1.78005e-09
1.96616e-09
-1.08774e-07
2.03992e-09
1.33346e-09
-1.09306e-07
2.2161e-09
6.62319e-10
-1.09465e-07
2.34108e-09
3.47574e-11
-1.09645e-07
2.46655e-09
-6.63768e-10
-1.09478e-07
2.57304e-09
-1.31741e-09
-1.09277e-07
2.56797e-09
-1.83417e-09
-1.09183e-07
2.39937e-09
-2.24125e-09
-1.0891e-07
2.17582e-09
-2.49301e-09
-1.07769e-07
1.90169e-09
-2.59533e-09
-1.06382e-07
1.61208e-09
-2.53141e-09
-1.04546e-07
1.33237e-09
-2.30934e-09
-1.02177e-07
1.1041e-09
-1.97614e-09
-9.90186e-08
9.30558e-10
-1.58891e-09
-9.45376e-08
7.86355e-10
-1.1839e-09
-8.8368e-08
6.56798e-10
-7.8603e-10
-7.99509e-08
5.43224e-10
-4.26511e-10
-6.82567e-08
4.37119e-10
-1.4663e-10
-5.13191e-08
3.12056e-10
-2.497e-08
1.50278e-10
-1.23268e-10
-2.46903e-08
-1.35553e-10
-3.83107e-10
-5.07708e-08
-2.7356e-10
-7.02715e-10
-6.75422e-08
-3.7303e-10
-1.05247e-09
-7.91167e-08
-4.64639e-10
-1.41324e-09
-8.74396e-08
-5.4983e-10
-1.7759e-09
-9.35543e-08
-6.10607e-10
-2.11446e-09
-9.80653e-08
-6.56338e-10
-2.32954e-09
-1.01378e-07
-7.46179e-10
-2.33427e-09
-1.03838e-07
-9.54592e-10
-2.17755e-09
-1.05353e-07
-1.26645e-09
-1.97424e-09
-1.06365e-07
-1.56299e-09
-1.79805e-09
-1.07188e-07
-1.76168e-09
-1.5191e-09
-1.07695e-07
-1.8906e-09
-9.3756e-10
-1.08022e-07
-2.02536e-09
-8.98787e-11
-1.08262e-07
-2.23048e-09
6.06617e-10
-1.07865e-07
-2.30985e-09
1.20621e-09
-1.07659e-07
-2.21675e-09
1.74501e-09
-1.07651e-07
-2.07037e-09
2.04181e-09
-1.07325e-07
-1.88204e-09
2.23234e-09
-1.06299e-07
-1.66077e-09
2.32699e-09
-1.05063e-07
-1.41384e-09
2.27552e-09
-1.03334e-07
-1.16064e-09
2.0974e-09
-1.01037e-07
-9.62147e-10
1.79837e-09
-9.79006e-08
-8.18955e-10
1.45172e-09
-9.34818e-08
-7.09139e-10
1.0921e-09
-8.74033e-08
-6.05078e-10
7.32946e-10
-7.90904e-08
-5.01358e-10
4.07432e-10
-6.75339e-08
-3.9729e-10
1.46804e-10
-5.07826e-08
-2.75953e-10
-2.46947e-08
-1.28492e-10
-4.17902e-10
-2.38505e-08
-4.21866e-10
-1.21427e-09
-4.90718e-08
-9.02679e-10
-2.20835e-09
-6.52945e-08
-1.25355e-09
-3.29701e-09
-7.64713e-08
-1.55672e-09
-4.39093e-09
-8.44725e-08
-1.87312e-09
-5.405e-09
-9.03136e-08
-2.22673e-09
-6.24758e-09
-9.46e-08
-2.62284e-09
-6.84417e-09
-9.77119e-08
-3.06929e-09
-7.12004e-09
-9.99918e-08
-3.57057e-09
-6.90716e-09
-1.01346e-07
-4.21956e-09
-6.19765e-09
-1.02043e-07
-5.0315e-09
-5.17573e-09
-1.02448e-07
-5.76277e-09
-3.78563e-09
-1.0276e-07
-6.32487e-09
-2.03744e-09
-1.03004e-07
-6.7663e-09
-3.69632e-11
-1.0321e-07
-7.05274e-09
1.89557e-09
-1.02771e-07
-7.02627e-09
3.71262e-09
-1.02693e-07
-6.78363e-09
5.30246e-09
-1.02895e-07
-6.34549e-09
6.25633e-09
-1.02538e-07
-5.74084e-09
6.87625e-09
-1.01867e-07
-5.0519e-09
7.15086e-09
-1.01078e-07
-4.25972e-09
6.94546e-09
-9.96958e-08
-3.43294e-09
6.35148e-09
-9.75542e-08
-2.88859e-09
5.44285e-09
-9.44657e-08
-2.52624e-09
4.39925e-09
-9.02376e-08
-2.20061e-09
3.31853e-09
-8.44476e-08
-1.87499e-09
2.23396e-09
-7.64614e-08
-1.54442e-09
1.24877e-09
-6.53276e-08
-1.22112e-09
4.53624e-10
-4.91381e-08
-8.49319e-10
-2.38361e-08
-4.04963e-10
-6.83659e-10
-2.24815e-08
-6.85366e-10
-1.97103e-09
-4.63121e-08
-1.47231e-09
-3.57887e-09
-6.16425e-08
-2.04414e-09
-5.33133e-09
-7.21809e-08
-2.53789e-09
-7.08359e-09
-7.96671e-08
-3.05322e-09
-8.68387e-09
-8.50634e-08
-3.64999e-09
-9.98858e-09
-8.89577e-08
-4.33771e-09
-1.09123e-08
-9.16543e-08
-5.13402e-09
-1.13739e-08
-9.34984e-08
-6.03182e-09
-1.11463e-08
-9.46054e-08
-6.96833e-09
-1.00666e-08
-9.50772e-08
-8.04524e-09
-8.27447e-09
-9.50801e-08
-9.1596e-09
-5.9296e-09
-9.50023e-08
-1.01024e-08
-3.13471e-09
-9.50091e-08
-1.07893e-08
-4.08698e-11
-9.51441e-08
-1.11596e-08
3.03747e-09
-9.47733e-08
-1.10758e-08
5.90469e-09
-9.48376e-08
-1.07224e-08
8.38739e-09
-9.53231e-08
-1.00549e-08
1.00757e-08
-9.51397e-08
-9.08688e-09
1.10963e-08
-9.48681e-08
-8.01995e-09
1.14053e-08
-9.44403e-08
-6.94639e-09
1.10143e-08
-9.34352e-08
-5.86977e-09
1.00482e-08
-9.16475e-08
-4.94057e-09
8.67835e-09
-8.89283e-08
-4.16751e-09
7.05611e-09
-8.51095e-08
-3.50579e-09
5.33723e-09
-7.98125e-08
-2.91619e-09
3.61949e-09
-7.23438e-08
-2.39987e-09
2.03256e-09
-6.1833e-08
-1.90766e-09
7.26082e-10
-4.64902e-08
-1.34141e-09
-2.24628e-08
-6.47249e-10
-9.12503e-10
-2.06627e-08
-9.06255e-10
-2.60677e-09
-4.26672e-08
-1.95058e-09
-4.72686e-09
-5.68006e-08
-2.72175e-09
-7.0411e-09
-6.6506e-08
-3.36068e-09
-9.36567e-09
-7.33301e-08
-4.01245e-09
-1.1519e-08
-7.8137e-08
-4.77305e-09
-1.33115e-08
-8.14778e-08
-5.68768e-09
-1.45221e-08
-8.36792e-08
-6.76447e-09
-1.5016e-08
-8.50377e-08
-7.96704e-09
-1.46635e-08
-8.57455e-08
-9.21233e-09
-1.33429e-08
-8.59477e-08
-1.04501e-08
-1.09811e-08
-8.57259e-08
-1.1716e-08
-7.79966e-09
-8.52704e-08
-1.29132e-08
-4.08663e-09
-8.49324e-08
-1.37896e-08
-3.31224e-11
-8.49434e-08
-1.42542e-08
4.01098e-09
-8.46803e-08
-1.41371e-08
7.76096e-09
-8.48897e-08
-1.36978e-08
1.0992e-08
-8.56314e-08
-1.29227e-08
1.33124e-08
-8.58081e-08
-1.16521e-08
1.46481e-08
-8.59042e-08
-1.02996e-08
1.50362e-08
-8.57278e-08
-9.10053e-09
1.45664e-08
-8.50581e-08
-7.90726e-09
1.33552e-08
-8.37146e-08
-6.72168e-09
1.15837e-08
-8.15063e-08
-5.65048e-09
9.43635e-09
-7.82118e-08
-4.75044e-09
7.12678e-09
-7.35345e-08
-3.96841e-09
4.83915e-09
-6.6856e-08
-3.20018e-09
2.70603e-09
-5.7224e-08
-2.47588e-09
9.56086e-10
-4.29927e-08
-1.74762e-09
-2.06504e-08
-8.56298e-10
-1.09022e-09
-1.84932e-08
-1.07934e-09
-3.10543e-09
-3.83407e-08
-2.31127e-09
-5.65459e-09
-5.10207e-08
-3.2307e-09
-8.46744e-09
-5.96903e-08
-4.00277e-09
-1.12742e-08
-6.57342e-08
-4.7891e-09
-1.38346e-08
-6.98989e-08
-5.67782e-09
-1.59296e-08
-7.26611e-08
-6.72172e-09
-1.73305e-08
-7.43464e-08
-7.93204e-09
-1.78537e-08
-7.52163e-08
-9.29835e-09
-1.73601e-08
-7.54769e-08
-1.07623e-08
-1.57806e-08
-7.53095e-08
-1.22177e-08
-1.30689e-08
-7.48756e-08
-1.3562e-08
-9.26725e-09
-7.42711e-08
-1.48009e-08
-4.81075e-09
-7.35987e-08
-1.57901e-08
-2.40721e-11
-7.33746e-08
-1.63554e-08
4.74571e-09
-7.31867e-08
-1.62634e-08
9.18877e-09
-7.35551e-08
-1.57777e-08
1.29861e-08
-7.44842e-08
-1.49445e-08
1.57331e-08
-7.49298e-08
-1.36254e-08
1.73514e-08
-7.53254e-08
-1.21973e-08
1.78624e-08
-7.54951e-08
-1.07437e-08
1.73481e-08
-7.52463e-08
-9.29757e-09
1.5953e-08
-7.43845e-08
-7.93504e-09
1.38701e-08
-7.27021e-08
-6.72123e-09
1.13045e-08
-6.99526e-08
-5.69366e-09
8.47924e-09
-6.58509e-08
-4.85837e-09
5.67082e-09
-5.9933e-08
-4.11462e-09
3.13671e-09
-5.13549e-08
-3.33497e-09
1.09845e-09
-3.85899e-08
-2.36451e-09
-1.84749e-08
-1.07706e-09
-1.2103e-09
-1.60551e-08
-1.22777e-09
-3.50121e-09
-3.34017e-08
-2.64807e-09
-6.36994e-09
-4.45062e-08
-3.64581e-09
-9.50457e-09
-5.20742e-08
-4.48147e-09
-1.26246e-08
-5.72907e-08
-5.32343e-09
-1.54651e-08
-6.07864e-08
-6.27204e-09
-1.77693e-08
-6.29809e-08
-7.37604e-09
-1.92961e-08
-6.41704e-08
-8.6492e-09
-1.9839e-08
-6.45919e-08
-1.00816e-08
-1.92444e-08
-6.44496e-08
-1.16219e-08
-1.74312e-08
-6.39401e-08
-1.31827e-08
-1.44024e-08
-6.32583e-08
-1.46461e-08
-1.02281e-08
-6.25381e-08
-1.59071e-08
-5.27214e-09
-6.17356e-08
-1.6819e-08
-1.58389e-11
-6.12656e-08
-1.73653e-08
5.25152e-09
-6.1146e-08
-1.7308e-08
1.0192e-08
-6.16525e-08
-1.68431e-08
1.43453e-08
-6.26033e-08
-1.60342e-08
1.73946e-08
-6.32793e-08
-1.46999e-08
1.92264e-08
-6.39592e-08
-1.31981e-08
1.9836e-08
-6.44713e-08
-1.16334e-08
1.93028e-08
-6.46196e-08
-1.00936e-08
1.77834e-08
-6.42045e-08
-8.66056e-09
1.54862e-08
-6.30213e-08
-7.38361e-09
1.26481e-08
-6.08329e-08
-6.28157e-09
9.50909e-09
-5.73532e-08
-5.35867e-09
6.34226e-09
-5.21914e-08
-4.57472e-09
3.4673e-09
-4.46972e-08
-3.78281e-09
1.20253e-09
-3.35872e-08
-2.7379e-09
-1.60404e-08
-1.232e-09
-1.26527e-09
-1.34698e-08
-1.31998e-09
-3.72763e-09
-2.8093e-08
-2.84633e-09
-6.7917e-09
-3.75669e-08
-3.87525e-09
-1.01211e-08
-4.40005e-08
-4.74439e-09
-1.34318e-08
-4.83652e-08
-5.61474e-09
-1.64372e-08
-5.12001e-08
-6.58092e-09
-1.88643e-08
-5.2861e-08
-7.69283e-09
-2.04579e-08
-5.36097e-08
-8.96722e-09
-2.09991e-08
-5.36623e-08
-1.03884e-08
-2.0329e-08
-5.32141e-08
-1.19057e-08
-1.8369e-08
-5.24532e-08
-1.3447e-08
-1.51231e-08
-5.15783e-08
-1.4926e-08
-1.07547e-08
-5.07058e-08
-1.62007e-08
-5.53606e-09
-4.9891e-08
-1.70631e-08
-8.20798e-12
-4.93182e-08
-1.74752e-08
5.53673e-09
-4.92691e-08
-1.74218e-08
1.0733e-08
-4.98394e-08
-1.70094e-08
1.50841e-08
-5.07441e-08
-1.62105e-08
1.83336e-08
-5.15946e-08
-1.49343e-08
2.03061e-08
-5.24688e-08
-1.3463e-08
2.09889e-08
-5.32319e-08
-1.19221e-08
2.04587e-08
-5.36862e-08
-1.04032e-08
1.88742e-08
-5.36392e-08
-8.9808e-09
1.64516e-08
-5.28958e-08
-7.70294e-09
1.34489e-08
-5.12403e-08
-6.58985e-09
1.01352e-08
-4.8412e-08
-5.62753e-09
6.78625e-09
-4.4064e-08
-4.7785e-09
3.71352e-09
-3.76827e-08
-3.9418e-09
1.27603e-09
-2.826e-08
-2.88979e-09
-1.34506e-08
-1.31375e-09
-1.30524e-09
-1.08221e-08
-1.3425e-09
-3.81426e-09
-2.27082e-08
-2.87585e-09
-6.93811e-09
-3.0504e-08
-3.93906e-09
-1.03419e-08
-3.57766e-08
-4.82005e-09
-1.37273e-08
-3.92981e-08
-5.68187e-09
-1.6797e-08
-4.15051e-08
-6.62522e-09
-1.92672e-08
-4.26894e-08
-7.70136e-09
-2.08752e-08
-4.30766e-08
-8.92513e-09
-2.13995e-08
-4.28597e-08
-1.02784e-08
-2.06853e-08
-4.22123e-08
-1.1716e-08
-1.86466e-08
-4.13159e-08
-1.31762e-08
-1.53091e-08
-4.03344e-08
-1.45815e-08
-1.09201e-08
-3.93597e-08
-1.57351e-08
-5.69635e-09
-3.85924e-08
-1.65224e-08
-4.47405e-11
-3.80942e-08
-1.68755e-08
5.58013e-09
-3.80411e-08
-1.68529e-08
1.07826e-08
-3.85299e-08
-1.6512e-08
1.52396e-08
-3.94101e-08
-1.57911e-08
1.86108e-08
-4.03511e-08
-1.46148e-08
2.06595e-08
-4.13231e-08
-1.31944e-08
2.1386e-08
-4.22249e-08
-1.17335e-08
2.08712e-08
-4.28773e-08
-1.02941e-08
1.92712e-08
-4.31005e-08
-8.93875e-09
1.68062e-08
-4.27172e-08
-7.71357e-09
1.37391e-08
-4.15366e-08
-6.63666e-09
1.03539e-08
-3.93342e-08
-5.69264e-09
6.94447e-09
-3.58187e-08
-4.8359e-09
3.80576e-09
-3.0565e-08
-3.9789e-09
1.29273e-09
-2.28114e-08
-2.93553e-09
-1.0812e-08
-1.34586e-09
-1.29376e-09
-8.21576e-09
-1.31255e-09
-3.75068e-09
-1.74432e-08
-2.80804e-09
-6.82737e-09
-2.35689e-08
-3.85842e-09
-1.01931e-08
-2.77004e-08
-4.7105e-09
-1.35477e-08
-3.04114e-08
-5.53207e-09
-1.65934e-08
-3.20376e-08
-6.42187e-09
-1.904e-08
-3.2814e-08
-7.42871e-09
-2.06251e-08
-3.2926e-08
-8.56561e-09
-2.11314e-08
-3.25354e-08
-9.81798e-09
-2.04027e-08
-3.17988e-08
-1.11423e-08
-1.83662e-08
-3.08689e-08
-1.24836e-08
-1.50842e-08
-2.98763e-08
-1.37402e-08
-1.07659e-08
-2.89364e-08
-1.47416e-08
-5.64362e-09
-2.82367e-08
-1.5478e-08
-5.07336e-11
-2.78479e-08
-1.58391e-08
5.50834e-09
-2.77895e-08
-1.58106e-08
1.06367e-08
-2.81884e-08
-1.54698e-08
1.50122e-08
-2.89801e-08
-1.48056e-08
1.83304e-08
-2.98951e-08
-1.37742e-08
2.03749e-08
-3.0872e-08
-1.24957e-08
2.11123e-08
-3.18056e-08
-1.11566e-08
2.0618e-08
-3.25489e-08
-9.83415e-09
1.90406e-08
-3.29424e-08
-8.58067e-09
1.65986e-08
-3.28345e-08
-7.44077e-09
1.35566e-08
-3.20617e-08
-6.43274e-09
1.02039e-08
-3.04389e-08
-5.54266e-09
6.83542e-09
-2.77292e-08
-4.72112e-09
3.75077e-09
-2.36051e-08
-3.87531e-09
1.27915e-09
-1.74974e-08
-2.84237e-09
-8.21788e-09
-1.31497e-09
-1.22158e-09
-5.76533e-09
-1.22883e-09
-3.5439e-09
-1.24884e-08
-2.6325e-09
-6.47015e-09
-1.70249e-08
-3.61778e-09
-9.6932e-09
-2.00702e-08
-4.40719e-09
-1.29242e-08
-2.20211e-08
-5.15937e-09
-1.58699e-08
-2.31243e-08
-5.96759e-09
-1.8241e-08
-2.35615e-08
-6.88149e-09
-1.97794e-08
-2.34777e-08
-7.90979e-09
-2.02705e-08
-2.30059e-08
-9.03846e-09
-1.95642e-08
-2.22713e-08
-1.02338e-08
-1.75905e-08
-2.13933e-08
-1.14494e-08
-1.44504e-08
-2.04795e-08
-1.2537e-08
-1.03048e-08
-1.96629e-08
-1.34192e-08
-5.39585e-09
-1.90605e-08
-1.40851e-08
-4.41649e-11
-1.87509e-08
-1.44486e-08
5.27811e-09
-1.87036e-08
-1.44082e-08
1.01957e-08
-1.90297e-08
-1.40764e-08
1.43845e-08
-1.96893e-08
-1.34795e-08
1.75558e-08
-2.04947e-08
-1.25718e-08
1.95352e-08
-2.13987e-08
-1.14527e-08
2.02504e-08
-2.22752e-08
-1.02456e-08
1.97694e-08
-2.30138e-08
-9.05415e-09
1.82398e-08
-2.34886e-08
-7.92417e-09
1.58737e-08
-2.35749e-08
-6.89348e-09
1.29314e-08
-2.31411e-08
-5.97836e-09
9.69966e-09
-2.20391e-08
-5.16816e-09
6.47581e-09
-2.00896e-08
-4.41574e-09
3.54794e-09
-1.70498e-08
-3.62748e-09
1.21884e-09
-1.25208e-08
-2.64748e-09
-5.76896e-09
-1.23007e-09
-1.08875e-09
-3.5862e-09
-1.09037e-09
-3.18162e-09
-8.05209e-09
-2.34341e-09
-5.86161e-09
-1.11348e-08
-3.21009e-09
-8.8485e-09
-1.319e-08
-3.89331e-09
-1.1873e-08
-1.44538e-08
-4.54283e-09
-1.4653e-08
-1.51017e-08
-5.24262e-09
-1.69044e-08
-1.52703e-08
-6.03979e-09
-1.83755e-08
-1.50663e-08
-6.94041e-09
-1.886e-08
-1.45886e-08
-7.93284e-09
-1.82139e-08
-1.39299e-08
-8.98742e-09
-1.63809e-08
-1.31763e-08
-1.00501e-08
-1.34592e-08
-1.24248e-08
-1.09764e-08
-9.59136e-09
-1.17678e-08
-1.1763e-08
-5.01415e-09
-1.12843e-08
-1.23534e-08
-3.74962e-11
-1.10365e-08
-1.26911e-08
4.91502e-09
-1.10086e-08
-1.26474e-08
9.49269e-09
-1.12664e-08
-1.23409e-08
1.33864e-08
-1.17761e-08
-1.1807e-08
1.63379e-08
-1.24308e-08
-1.10155e-08
1.81849e-08
-1.31802e-08
-1.00655e-08
1.88397e-08
-1.39323e-08
-8.99776e-09
1.83649e-08
-1.45926e-08
-7.94638e-09
1.69016e-08
-1.50722e-08
-6.95308e-09
1.46546e-08
-1.52782e-08
-6.04966e-09
1.18771e-08
-1.51111e-08
-5.25254e-09
8.85288e-09
-1.44647e-08
-4.55013e-09
5.86727e-09
-1.32044e-08
-3.89962e-09
3.1894e-09
-1.11576e-08
-3.21428e-09
1.09131e-09
-8.0765e-09
-2.34624e-09
-3.58868e-09
-1.08897e-09
-8.90044e-10
-1.8073e-09
-8.88836e-10
-2.65912e-09
-4.37058e-09
-1.91241e-09
-4.9919e-09
-6.20229e-09
-2.59973e-09