/*--------------------------------*- C++ -*----------------------------------*\
| =========                 |                                                 |
| \\      /  F ield         | OpenFOAM: The Open Source CFD Toolbox           |
|  \\    /   O peration     | Version:  v1906                                 |
|   \\  /    A nd           | Web:      www.OpenFOAM.com                      |
|    \\/     M anipulation  |                                                 |
\*---------------------------------------------------------------------------*/
FoamFile
{
    version     2.0;
    format      ascii;
    class       surfaceScalarField;
    location    "5.6/oil";
    object      phi;
}
// * * * * * * * * * * * * * * * * * * * * * * * * * * * * * * * * * * * * * //

dimensions      [1 0 -1 0 0 0 0];
oriented        oriented;


internalField   nonuniform List<scalar> 
80688
(
-3.11488e-06
-3.16861e-06
-3.11488e-06
-1.40909e-06
-8.81405e-07
-8.24392e-07
-3.8881e-07
-5.12349e-07
-5.07928e-07
-2.0036e-07
-9.36713e-08
-9.47784e-08
-9.43048e-08
-5.27259e-08
-5.33296e-08
-4.70865e-08
-2.36036e-08
-2.36147e-08
-2.43696e-08
-1.15098e-08
-1.12071e-08
-1.30575e-08
-5.87964e-09
-5.43243e-09
-7.20105e-09
-3.18651e-09
-2.66991e-09
-4.08389e-09
-1.83619e-09
-1.28095e-09
-2.41243e-09
-1.12644e-09
-5.45002e-10
-1.54479e-09
-7.34714e-10
-1.32917e-10
-1.14543e-09
-5.0854e-10
1.09202e-10
-1.02578e-09
-3.74309e-10
2.54665e-10
-1.07038e-09
-2.95251e-10
3.39856e-10
-1.20196e-09
-2.51976e-10
3.83567e-10
-1.36523e-09
-2.33483e-10
3.96761e-10
-1.51924e-09
-2.32863e-10
3.86873e-10
-1.63494e-09
-2.44682e-10
3.6039e-10
-1.69336e-09
-2.64575e-10
3.23002e-10
-1.68517e-09
-2.88447e-10
2.80266e-10
-1.60894e-09
-3.13124e-10
2.369e-10
-1.46961e-09
-3.3619e-10
1.96865e-10
-1.27665e-09
-3.56186e-10
1.6323e-10
-1.04249e-09
-3.72411e-10
1.38257e-10
-7.82282e-10
-3.83781e-10
1.23583e-10
-5.15385e-10
-3.86721e-10
1.19833e-10
-2.68326e-10
-3.71526e-10
1.24475e-10
-7.97605e-11
-3.13338e-10
1.24783e-10
-1.68051e-10
8.82973e-11
-8.40935e-07
-1.48674e-06
-8.40933e-07
-5.1051e-07
-5.33475e-07
-6.78355e-07
-3.76482e-07
-3.51253e-07
-2.95124e-07
-2.04744e-07
-1.41891e-07
-1.23518e-07
-1.13026e-07
-7.74964e-08
-6.69477e-08
-6.41757e-08
-3.90458e-08
-3.34078e-08
-3.71004e-08
-2.13522e-08
-1.72329e-08
-2.19266e-08
-1.21242e-08
-8.92911e-09
-1.32272e-08
-7.30229e-09
-4.58367e-09
-8.17487e-09
-4.6634e-09
-2.22507e-09
-5.24794e-09
-3.1666e-09
-8.86748e-10
-3.60786e-09
-2.28285e-09
-9.19305e-11
-2.77052e-09
-1.744e-09
3.98137e-10
-2.43939e-09
-1.40923e-09
7.0381e-10
-2.4189e-09
-1.20321e-09
8.87474e-10
-2.57149e-09
-1.08305e-09
9.8367e-10
-2.79539e-09
-1.02307e-09
1.01349e-09
-3.01417e-09
-1.00622e-09
9.92152e-10
-3.17289e-09
-1.01927e-09
9.3331e-10
-3.23558e-09
-1.05117e-09
8.49295e-10
-3.1842e-09
-1.09241e-09
7.52592e-10
-3.01579e-09
-1.13544e-09
6.53919e-10
-2.73944e-09
-1.17515e-09
5.6262e-10
-2.37257e-09
-1.20878e-09
4.85728e-10
-1.93837e-09
-1.23461e-09
4.28006e-10
-1.46453e-09
-1.24878e-09
3.91163e-10
-9.84245e-10
-1.23946e-09
3.72461e-10
-5.39097e-10
-1.17675e-09
3.60088e-10
-1.83511e-10
-9.91686e-10
3.22771e-10
-5.43023e-10
1.91467e-10
-5.26894e-07
-4.32955e-07
-5.26891e-07
-3.6293e-07
-3.91881e-07
-3.05558e-07
-2.59566e-07
-2.5899e-07
-1.95627e-07
-1.60171e-07
-1.36072e-07
-1.05214e-07
-9.92056e-08
-7.96825e-08
-5.87791e-08
-6.12799e-08
-4.52962e-08
-3.16753e-08
-3.81965e-08
-2.7146e-08
-1.72895e-08
-2.40899e-08
-1.6838e-08
-9.39279e-09
-1.54109e-08
-1.09872e-08
-4.99401e-09
-1.00587e-08
-7.55118e-09
-2.46445e-09
-6.79689e-09
-5.47882e-09
-9.49531e-10
-4.88249e-09
-4.19108e-09
-6.1558e-12
-3.85292e-09
-3.37223e-09
5.98672e-10
-3.40369e-09
-2.84562e-09
9.87166e-10
-3.32185e-09
-2.5104e-09
1.22536e-09
-3.45045e-09
-2.306e-09
1.35156e-09
-3.66977e-09
-2.19419e-09
1.39046e-09
-3.88752e-09
-2.14906e-09
1.36058e-09
-4.037e-09
-2.14957e-09
1.27979e-09
-4.07401e-09
-2.17871e-09
1.16456e-09
-3.97684e-09
-2.22159e-09
1.03201e-09
-3.74213e-09
-2.26705e-09
8.96901e-10
-3.38183e-09
-2.30804e-09
7.72599e-10
-2.91811e-09
-2.34122e-09
6.68723e-10
-2.38001e-09
-2.3643e-09
5.91598e-10
-1.80134e-09
-2.37014e-09
5.427e-10
-1.22039e-09
-2.33676e-09
5.16367e-10
-6.81811e-10
-2.20951e-09
4.94185e-10
-2.41667e-10
-1.86598e-09
4.34162e-10
-1.03345e-09
2.48766e-10
-1.06061e-07
-2.20836e-07
-1.06058e-07
-1.50854e-07
-2.16787e-07
-1.30301e-07
-1.37543e-07
-1.65303e-07
-1.06998e-07
-1.01357e-07
-1.04827e-07
-6.74311e-08
-7.11622e-08
-6.82872e-08
-4.15899e-08
-4.84355e-08
-4.34863e-08
-2.45365e-08
-3.26846e-08
-2.85708e-08
-1.43261e-08
-2.20183e-08
-1.92974e-08
-8.20688e-09
-1.49073e-08
-1.35772e-08
-4.521e-09
-1.02346e-08
-9.97611e-09
-2.24776e-09
-7.24404e-09
-7.67083e-09
-7.98537e-10
-5.42335e-09
-6.16582e-09
1.54058e-10
-4.41796e-09
-5.16906e-09
7.91449e-10
-3.97179e-09
-4.50555e-09
1.21377e-09
-3.89e-09
-4.06912e-09
1.47694e-09
-4.02047e-09
-3.79138e-09
1.61587e-09
-4.24161e-09
-3.62765e-09
1.6546e-09
-4.45651e-09
-3.54653e-09
1.61238e-09
-4.59364e-09
-3.52186e-09
1.50944e-09
-4.60577e-09
-3.53197e-09
1.3654e-09
-4.47002e-09
-3.55822e-09
1.20089e-09
-4.18446e-09
-3.58717e-09
1.03456e-09
-3.76384e-09
-3.61123e-09
8.82577e-10
-3.23451e-09
-3.62742e-09
7.56872e-10
-2.62979e-09
-3.63391e-09
6.64891e-10
-1.98717e-09
-3.62065e-09
6.07903e-10
-1.34761e-09
-3.55476e-09
5.78447e-10
-7.56366e-10
-3.35496e-09
5.54203e-10
-2.70771e-10
-2.83877e-09
4.87201e-10
-1.58324e-09
2.79024e-10
-5.77948e-08
-1.05249e-07
-5.77927e-08
-8.12803e-08
-1.22807e-07
-7.0494e-08
-7.95686e-08
-1.06655e-07
-6.03592e-08
-6.47564e-08
-7.75576e-08
-4.20821e-08
-4.94843e-08
-5.56381e-08
-2.79211e-08
-3.62687e-08
-3.90406e-08
-1.76613e-08
-2.60706e-08
-2.78679e-08
-1.0901e-08
-1.85367e-08
-2.03208e-08
-6.51041e-09
-1.31544e-08
-1.53053e-08
-3.65413e-09
-9.42416e-09
-1.19461e-08
-1.76031e-09
-6.94539e-09
-9.67898e-09
-4.70604e-10
-5.40663e-09
-8.13192e-09
4.27349e-10
-4.56182e-09
-7.06917e-09
1.05531e-09
-4.21316e-09
-6.33829e-09
1.48409e-09
-4.19508e-09
-5.84096e-09
1.75377e-09
-4.36951e-09
-5.50986e-09
1.89291e-09
-4.62063e-09
-5.29888e-09
1.92236e-09
-4.85206e-09
-5.17539e-09
1.8603e-09
-4.9914e-09
-5.11117e-09
1.72866e-09
-4.99056e-09
-5.08267e-09
1.54986e-09
-4.82749e-09
-5.06981e-09
1.34853e-09
-4.50255e-09
-5.05889e-09
1.14679e-09
-4.03441e-09
-5.04305e-09
9.63677e-10
-3.45354e-09
-5.02171e-09
8.13431e-10
-2.7974e-09
-4.99442e-09
7.04385e-10
-2.10692e-09
-4.9488e-09
6.37671e-10
-1.42511e-09
-4.84116e-09
6.046e-10
-7.98398e-10
-4.56188e-09
5.8022e-10
-2.85492e-10
-3.86431e-09
5.12639e-10
-2.16467e-09
2.95946e-10
-2.54939e-08
-5.42625e-08
-2.54922e-08
-3.99494e-08
-7.31285e-08
-3.52234e-08
-4.38121e-08
-7.0039e-08
-3.27537e-08
-3.94987e-08
-5.68185e-08
-2.50525e-08
-3.27818e-08
-4.45125e-08
-1.78425e-08
-2.57505e-08
-3.40461e-08
-1.20258e-08
-1.96012e-08
-2.62304e-08
-7.78675e-09
-1.46204e-08
-2.05217e-08
-4.77989e-09
-1.08111e-08
-1.64631e-08
-2.65159e-09
-8.04287e-09
-1.35897e-08
-1.12459e-09
-6.1557e-09
-1.1558e-08
-8.10808e-12
-4.98795e-09
-1.01169e-08
8.17193e-10
-4.38372e-09
-9.09338e-09
1.42e-09
-4.19804e-09
-8.36648e-09
1.84252e-09
-4.29454e-09
-7.85301e-09
2.10856e-09
-4.55232e-09
-7.49149e-09
2.23942e-09
-4.86438e-09
-7.23886e-09
2.25206e-09
-5.13635e-09
-7.0653e-09
2.16189e-09
-5.29672e-09
-6.94365e-09
1.99286e-09
-5.29759e-09
-6.85189e-09
1.77009e-09
-5.11879e-09
-6.77138e-09
1.52279e-09
-4.76405e-09
-6.69046e-09
1.27684e-09
-4.25657e-09
-6.6059e-09
1.05538e-09
-3.63155e-09
-6.52092e-09
8.74188e-10
-2.93092e-09
-6.43761e-09
7.42562e-10
-2.19901e-09
-6.3421e-09
6.61398e-10
-1.48146e-09
-6.1797e-09
6.21e-10
-8.26204e-10
-5.81166e-09
5.94529e-10
-2.9376e-10
-4.92363e-09
5.26892e-10
-2.7649e-09
3.06478e-10
-1.19777e-08
-3.03083e-08
-1.19764e-08
-2.08103e-08
-4.61336e-08
-1.81623e-08
-2.47958e-08
-4.80538e-08
-1.79998e-08
-2.41651e-08
-4.26646e-08
-1.47845e-08
-2.14076e-08
-3.61057e-08
-1.11642e-08
-1.77746e-08
-2.97696e-08
-7.9096e-09
-1.4165e-08
-2.45542e-08
-5.28582e-09
-1.09772e-08
-2.04659e-08
-3.24354e-09
-8.39062e-09
-1.73864e-08
-1.66329e-09
-6.44602e-09
-1.51029e-08
-4.31364e-10
-5.11518e-09
-1.34261e-08
5.37275e-10
-4.32917e-09
-1.21986e-08
1.29573e-09
-3.9935e-09
-1.13009e-08
1.87183e-09
-4.00253e-09
-1.06416e-08
2.28417e-09
-4.24299e-09
-1.01539e-08
2.54138e-09
-4.60977e-09
-9.78343e-09
2.65873e-09
-5.00503e-09
-9.4929e-09
2.6493e-09
-5.33646e-09
-9.25855e-09
2.52469e-09
-5.53357e-09
-9.0575e-09
2.31097e-09
-5.54856e-09
-8.87255e-09
2.03565e-09
-5.36383e-09
-8.68958e-09
1.73348e-09
-4.98707e-09
-8.50265e-09
1.43544e-09
-4.44675e-09
-8.31433e-09
1.16812e-09
-3.78326e-09
-8.13392e-09
9.49531e-10
-3.04321e-09
-7.9674e-09
7.89742e-10
-2.27456e-09
-7.79991e-09
6.89167e-10
-1.52562e-09
-7.56568e-09
6.37038e-10
-8.46337e-10
-7.09601e-09
6.05079e-10
-2.98782e-10
-6.00705e-09
5.35871e-10
-3.37685e-09
3.13167e-10
-5.7531e-09
-1.88031e-08
-5.75211e-09
-1.09217e-08
-3.1501e-08
-9.46395e-09
-1.40209e-08
-3.50284e-08
-9.9261e-09
-1.46124e-08
-3.342e-08
-8.65314e-09
-1.36765e-08
-3.01861e-08
-6.85554e-09
-1.18833e-08
-2.65347e-08
-5.02808e-09
-9.82056e-09
-2.32321e-08
-3.38476e-09
-7.83689e-09
-2.04785e-08
-1.97109e-09
-6.1468e-09
-1.83057e-08
-7.70766e-10
-4.85665e-09
-1.66396e-08
2.46569e-10
-4.00208e-09
-1.53839e-08
1.10325e-09
-3.56628e-09
-1.44442e-08
1.80985e-09
-3.49167e-09
-1.37391e-08
2.36367e-09
-3.69809e-09
-1.32002e-08
2.76499e-09
-4.08857e-09
-1.27732e-08
3.00979e-09
-4.5716e-09
-1.24115e-08
3.11112e-09
-5.05802e-09
-1.20845e-08
3.07797e-09
-5.457e-09
-1.1776e-08
2.91643e-09
-5.69863e-09
-1.14703e-08
2.65448e-09
-5.73492e-09
-1.11587e-08
2.32248e-09
-5.55101e-09
-1.08348e-08
1.96135e-09
-5.15903e-09
-1.05016e-08
1.607e-09
-4.59263e-09
-1.01707e-08
1.28996e-09
-3.89778e-09
-9.8594e-09
1.03063e-09
-3.12563e-09
-9.57916e-09
8.39626e-10
-2.32756e-09
-9.31473e-09
7.16758e-10
-1.55419e-09
-8.98915e-09
6.50104e-10
-8.57341e-10
-8.40303e-09
6.10172e-10
-3.00343e-10
-7.1023e-09
5.38252e-10
-3.99264e-09
3.15455e-10
-2.82478e-09
-1.31541e-08
-2.82418e-09
-5.82356e-09
-2.35171e-08
-4.98513e-09
-7.95708e-09
-2.73982e-08
-5.49671e-09
-8.75237e-09
-2.75975e-08
-5.02718e-09
-8.55119e-09
-2.6265e-08
-4.12224e-09
-7.68642e-09
-2.43369e-08
-3.06257e-09
-6.51565e-09
-2.24106e-08
-1.99228e-09
-5.30123e-09
-2.07206e-08
-9.72261e-10
-4.23366e-09
-1.93503e-08
-2.29495e-11
-3.43265e-09
-1.82866e-08
8.45936e-10
-2.95705e-09
-1.74816e-08
1.62207e-09
-2.81504e-09
-1.68749e-08
2.28867e-09
-2.96734e-09
-1.64082e-08
2.82138e-09
-3.34874e-09
-1.60274e-08
3.2086e-09
-3.87223e-09
-1.56875e-08
3.43775e-09
-4.45823e-09
-1.53475e-08
3.52196e-09
-5.02661e-09
-1.49834e-08
3.46732e-09
-5.48737e-09
-1.45875e-08
3.27228e-09
-5.7709e-09
-1.41534e-08
2.96663e-09
-5.82884e-09
-1.36824e-08
2.58164e-09
-5.64895e-09
-1.31793e-08
2.16457e-09
-5.24758e-09
-1.266e-08
1.75704e-09
-4.6636e-09
-1.21482e-08
1.39358e-09
-3.94817e-09
-1.16713e-08
1.09643e-09
-3.15606e-09
-1.12473e-08
8.76071e-10
-2.34127e-09
-1.08612e-08
7.31671e-10
-1.556e-09
-1.04252e-08
6.50811e-10
-8.53091e-10
-9.70893e-09
6.03011e-10
-2.96213e-10
-8.18845e-09
5.29283e-10
-4.59985e-09
3.11001e-10
-1.39869e-09
-1.03569e-08
-1.39852e-09
-3.10653e-09
-1.91744e-08
-2.63484e-09
-4.47571e-09
-2.29897e-08
-3.03928e-09
-5.14119e-09
-2.40483e-08
-2.88379e-09
-5.18972e-09
-2.38102e-08
-2.40622e-09
-4.77501e-09
-2.29976e-08
-1.75394e-09
-4.10712e-09
-2.20643e-08
-1.01419e-09
-3.37272e-09
-2.12176e-08
-2.37469e-10
-2.72485e-09
-2.05435e-08
5.45323e-10
-2.27368e-09
-2.00463e-08
1.30855e-09
-2.08205e-09
-1.96947e-08
2.02152e-09
-2.16562e-09
-1.94423e-08
2.65099e-09
-2.49309e-09
-1.92397e-08
3.15898e-09
-3.00692e-09
-1.90401e-08
3.52654e-09
-3.62639e-09
-1.88027e-08
3.73469e-09
-4.28322e-09
-1.84925e-08
3.8019e-09
-4.90726e-09
-1.80913e-08
3.732e-09
-5.40931e-09
-1.75981e-08
3.5127e-09
-5.72056e-09
-1.70165e-08
3.17431e-09
-5.79294e-09
-1.63591e-08
2.7491e-09
-5.61649e-09
-1.5646e-08
2.29027e-09
-5.21154e-09
-1.49077e-08
1.84272e-09
-4.62158e-09
-1.41829e-08
1.44473e-09
-3.90094e-09
-1.35116e-08
1.11966e-09
-3.10697e-09
-1.29194e-08
8.78052e-10
-2.2947e-09
-1.23919e-08
7.18408e-10
-1.51695e-09
-1.183e-08
6.2703e-10
-8.25807e-10
-1.09741e-08
5.74082e-10
-2.83687e-10
-9.23337e-09
5.02801e-10
-5.18069e-09
2.97156e-10
-6.87814e-10
-8.98089e-09
-6.88206e-10
-1.64136e-09
-1.68362e-08
-1.38468e-09
-2.47822e-09
-2.04874e-08
-1.66543e-09
-2.94933e-09
-2.1955e-08
-1.62214e-09
-3.04957e-09
-2.23608e-08
-1.34916e-09
-2.84573e-09
-2.2285e-08
-9.16499e-10
-2.46133e-09
-2.20753e-08
-3.73345e-10
-2.02431e-09
-2.18982e-08
2.43672e-10
-1.65367e-09
-2.18195e-08
9.05377e-10
-1.44245e-09
-2.1838e-08
1.58052e-09
-1.44719e-09
-2.19201e-08
2.23016e-09
-1.68391e-09
-2.2019e-08
2.81343e-09
-2.12346e-09
-2.20842e-08
3.28401e-09
-2.71229e-09
-2.2071e-08
3.6198e-09
-3.37498e-09
-2.19403e-08
3.8003e-09
-4.05494e-09
-2.16637e-08
3.85116e-09
-4.69266e-09
-2.12276e-08
3.77398e-09
-5.20147e-09
-2.06352e-08
3.54584e-09
-5.51564e-09
-1.98984e-08
3.19613e-09
-5.58817e-09
-1.90417e-08
2.75516e-09
-5.41136e-09
-1.81021e-08
2.27932e-09
-5.00929e-09
-1.71263e-08
1.81658e-09
-4.42802e-09
-1.61711e-08
1.40688e-09
-3.72305e-09
-1.52896e-08
1.07311e-09
-2.95181e-09
-1.45159e-08
8.25348e-10
-2.16853e-09
-1.38365e-08
6.61364e-10
-1.42376e-09
-1.31426e-08
5.67822e-10
-7.67921e-10
-1.21462e-08
5.16251e-10
-2.60176e-10
-1.01946e-08
4.53513e-10
-5.71236e-09
2.71502e-10
-3.33175e-10
-8.3135e-09
-3.34206e-10
-8.58466e-10
-1.55863e-08
-7.24621e-10
-1.35787e-09
-1.90789e-08
-9.09095e-10
-1.67074e-09
-2.07414e-08
-9.0072e-10
-1.76594e-09
-2.15365e-08
-7.29102e-10
-1.67008e-09
-2.19569e-08
-4.23937e-10
-1.45514e-09
-2.22791e-08
-1.12165e-11
-1.20845e-09
-2.26306e-08
4.85693e-10
-1.0202e-09
-2.30497e-08
1.04198e-09
-9.64415e-10
-2.35209e-08
1.62711e-09
-1.08837e-09
-2.39976e-08
2.20143e-09
-1.40628e-09
-2.44231e-08
2.72195e-09
-1.88892e-09
-2.47411e-08
3.13961e-09
-2.48812e-09
-2.49043e-08
3.43244e-09
-3.13433e-09
-2.4875e-08
3.58091e-09
-3.78169e-09
-2.46324e-08
3.61608e-09
-4.38147e-09
-2.41667e-08
3.53889e-09
-4.8536e-09
-2.348e-08
3.31694e-09
-5.13688e-09
-2.25926e-08
2.97749e-09
-5.18831e-09
-2.154e-08
2.54971e-09
-5.00542e-09
-2.03752e-08
2.09014e-09
-4.61294e-09
-1.91645e-08
1.64573e-09
-4.05728e-09
-1.79813e-08
1.25461e-09
-3.39265e-09
-1.68922e-08
9.37955e-10
-2.67325e-09
-1.594e-08
7.04661e-10
-1.94927e-09
-1.5112e-08
5.51512e-10
-1.26788e-09
-1.42901e-08
4.66178e-10
-6.75147e-10
-1.31627e-08
4.23787e-10
-2.23912e-10
-1.10238e-08
3.77916e-10
-6.1688e-09
2.32528e-10
-1.64638e-10
-7.98251e-09
-1.66344e-10
-4.65257e-10
-1.48927e-08
-3.92988e-10
-7.78063e-10
-1.82503e-08
-5.15719e-10
-9.99448e-10
-2e-08
-5.19973e-10
-1.09709e-09
-2.10302e-08
-4.0861e-10
-1.07704e-09
-2.17848e-08
-1.92142e-10
-9.80749e-10
-2.24917e-08
1.16351e-10
-8.67207e-10
-2.32468e-08
5.02614e-10
-8.00677e-10
-2.40632e-08
9.47018e-10
-8.38347e-10
-2.49069e-08
1.42375e-09
-1.01742e-09
-2.57158e-08
1.89728e-09
-1.34804e-09
-2.64199e-08
2.32747e-09
-1.80507e-09
-2.69538e-08
2.66976e-09
-2.34706e-09
-2.72672e-08
2.90492e-09
-2.91401e-09
-2.73248e-08
3.0168e-09
-3.46945e-09
-2.71136e-08
3.03663e-09
-3.9748e-09
-2.66261e-08
2.96474e-09
-4.35951e-09
-2.58625e-08
2.76725e-09
-4.57294e-09
-2.4847e-08
2.46777e-09
-4.58107e-09
-2.36238e-08
2.09196e-09
-4.38483e-09
-2.22625e-08
1.69115e-09
-4.00984e-09
-2.0846e-08
1.30651e-09
-3.49926e-09
-1.94629e-08
9.71032e-10
-2.90204e-09
-1.81925e-08
7.03097e-10
-2.26548e-09
-1.70852e-08
5.0867e-10
-1.63389e-09
-1.61281e-08
3.84587e-10
-1.04747e-09
-1.51973e-08
3.20752e-10
-5.45956e-10
-1.39614e-08
2.97148e-10
-1.74898e-10
-1.16716e-08
2.7675e-10
-6.52425e-09
1.80558e-10
-9.84372e-11
-7.78297e-09
-1.01089e-10
-3.04281e-10
-1.4434e-08
-2.52788e-10
-5.40256e-10
-1.76697e-08
-3.44622e-10
-7.38135e-10
-1.94426e-08
-3.59555e-10
-8.67256e-10
-2.06066e-08
-2.94498e-10
-9.24062e-10
-2.15751e-08
-1.52842e-10
-9.29602e-10
-2.25457e-08
5.95745e-11
-9.19918e-10
-2.35896e-08
3.33156e-10
-9.37285e-10
-2.47003e-08
6.54473e-10
-1.02201e-09
-2.58266e-08
1.00439e-09
-1.20169e-09
-2.68921e-08
1.35602e-09
-1.48503e-09
-2.7816e-08
1.67949e-09
-1.85567e-09
-2.85231e-08
1.93988e-09
-2.28173e-09
-2.89595e-08
2.11837e-09
-2.71785e-09
-2.90893e-08
2.20059e-09
-3.13221e-09
-2.89048e-08
2.2056e-09
-3.49179e-09
-2.84005e-08
2.13407e-09
-3.74312e-09
-2.75749e-08
1.96375e-09
-3.84977e-09
-2.64582e-08
1.71794e-09
-3.79077e-09
-2.51025e-08
1.4197e-09
-3.57284e-09
-2.35901e-08
1.10961e-09
-3.22135e-09
-2.20172e-08
8.19654e-10
-2.77305e-09
-2.04842e-08
5.72993e-10
-2.26758e-09
-1.90791e-08
3.81153e-10
-1.74282e-09
-1.78575e-08
2.4752e-10
-1.23297e-09
-1.68068e-08
1.68852e-10
-7.69728e-10
-1.57979e-08
1.37403e-10
-3.85447e-10
-1.44863e-08
1.40604e-10
-1.14551e-10
-1.20958e-08
1.53362e-10
-6.75612e-09
1.1733e-10
-9.06086e-11
-7.59842e-09
-9.39365e-11
-2.84368e-10
-1.40141e-08
-2.26165e-10
-5.20872e-10
-1.71229e-08
-3.10268e-10
-7.50726e-10
-1.8871e-08
-3.41704e-10
-9.45273e-10
-2.0091e-08
-3.21108e-10
-1.09347e-09
-2.11751e-08
-2.51796e-10
-1.20064e-09
-2.22999e-08
-1.38656e-10
-1.2834e-09
-2.35185e-08
1.163e-11
-1.36399e-09
-2.48108e-08
1.91074e-10
-1.46642e-09
-2.61132e-08
3.89059e-10
-1.60923e-09
-2.73402e-08
5.90888e-10
-1.79973e-09
-2.8404e-08
7.78449e-10
-2.03278e-09
-2.92218e-08
9.31815e-10
-2.29073e-09
-2.97389e-08
1.0374e-09
-2.54583e-09
-2.99182e-08
1.08408e-09
-2.77072e-09
-2.97543e-08
1.0743e-09
-2.93887e-09
-2.9243e-08
1.0106e-09
-3.01667e-09
-2.83845e-08
8.87392e-10
-2.98701e-09
-2.72133e-08
7.25385e-10
-2.84491e-09
-2.5787e-08
5.42357e-10
-2.60263e-09
-2.4196e-08
3.63654e-10
-2.28316e-09
-2.25422e-08
2.05535e-10
-1.91389e-09
-2.0933e-08
7.94883e-11
-1.52129e-09
-1.94616e-08
-1.01081e-11
-1.13149e-09
-1.81835e-08
-6.37965e-11
-7.66578e-10
-1.70881e-08
-8.3624e-11
-4.49168e-10
-1.60425e-08
-7.27924e-11
-2.01251e-10
-1.46979e-08
-3.62599e-11
-4.6124e-11
-1.22656e-08
1.47026e-11
-6.84865e-09
4.64099e-11
-1.15212e-10
-7.36402e-09
-1.19177e-10
-3.46135e-10
-1.35184e-08
-2.64741e-10
-6.33621e-10
-1.64787e-08
-3.56732e-10
-9.34008e-10
-1.81612e-08
-4.09428e-10
-1.21881e-09
-1.93737e-08
-4.32395e-10
-1.47007e-09
-2.04909e-08
-4.32977e-10
-1.6797e-09
-2.16732e-08
-4.17004e-10
-1.84696e-09
-2.29624e-08
-3.88794e-10
-1.97635e-09
-2.43297e-08
-3.51716e-10
-2.07564e-09
-2.57059e-08
-3.08022e-10
-2.15441e-09
-2.70027e-08
-2.58664e-10
-2.22248e-09
-2.81303e-08
-2.05556e-10
-2.28713e-09
-2.90046e-08
-1.52504e-10
-2.347e-09
-2.95676e-08
-1.11485e-10
-2.39349e-09
-2.97783e-08
-9.34239e-11
-2.40322e-09
-2.96289e-08
-1.15617e-10
-2.35537e-09
-2.91173e-08
-1.73527e-10
-2.23853e-09
-2.82488e-08
-2.52553e-10
-2.05682e-09
-2.70647e-08
-3.30318e-10
-1.82246e-09
-2.56282e-08
-3.93126e-10
-1.55471e-09
-2.40307e-08
-4.33048e-10
-1.27113e-09
-2.23763e-08
-4.49372e-10
-9.88188e-10
-2.07706e-08
-4.45274e-10
-7.20138e-10
-1.93047e-08
-4.24943e-10
-4.76938e-10
-1.80348e-08
-3.91876e-10
-2.69448e-10
-1.69477e-08
-3.47892e-10
-1.0812e-10
-1.59121e-08
-2.91768e-10
-6.24373e-12
-1.45799e-08
-2.19929e-10
2.59074e-11
-1.21686e-08
-1.29134e-10
-6.79524e-09
-2.74996e-11
-1.56147e-10
-7.04738e-09
-1.60484e-10
-4.51484e-10
-1.28861e-08
-3.3692e-10
-8.16244e-10
-1.56688e-08
-4.4517e-10
-1.20844e-09
-1.72477e-08
-5.21328e-10
-1.59649e-09
-1.83997e-08
-5.85972e-10
-1.95636e-09
-1.94787e-08
-6.52283e-10
-2.26808e-09
-2.06324e-08
-7.29054e-10
-2.5157e-09
-2.18944e-08
-8.2041e-10
-2.68723e-09
-2.32322e-08
-9.25939e-10
-2.77586e-09
-2.45776e-08
-1.03962e-09
-2.78292e-09
-2.58459e-08
-1.14975e-09
-2.71764e-09
-2.6951e-08
-1.24465e-09
-2.59888e-09
-2.78129e-08
-1.31053e-09
-2.44119e-09
-2.83735e-08
-1.35174e-09
-2.25644e-09
-2.859e-08
-1.37305e-09
-2.03032e-09
-2.84502e-08
-1.40477e-09
-1.75255e-09
-2.79537e-08
-1.4413e-09
-1.43494e-09
-2.71134e-08
-1.45294e-09
-1.10139e-09
-2.59752e-08
-1.42303e-09
-7.79912e-10
-2.46033e-08
-1.34635e-09
-4.91926e-10
-2.30847e-08
-1.23392e-09
-2.50381e-10
-2.15176e-08
-1.10025e-09
-5.96442e-11
-2.00001e-08
-9.61276e-10
8.12355e-11
-1.86168e-08
-8.28827e-10
1.75486e-10
-1.74199e-08
-7.09146e-10
2.25198e-10
-1.6395e-08
-6.02414e-10
2.29635e-10
-1.54143e-08
-5.02263e-10
1.86336e-10
-1.41399e-08
-3.96661e-10
9.67002e-11
-1.18108e-08
-2.68201e-10
-6.59913e-09
-9.94049e-11
-2.01967e-10
-6.63877e-09
-2.06637e-10
-5.70237e-10
-1.20982e-08
-4.19692e-10
-1.02068e-09
-1.46717e-08
-5.46667e-10
-1.50822e-09
-1.61163e-08
-6.438e-10
-1.99875e-09
-1.71658e-08
-7.43392e-10
-2.46091e-09
-1.81517e-08
-8.64839e-10
-2.86538e-09
-1.92091e-08
-1.01884e-09
-3.18321e-09
-2.0366e-08
-1.21056e-09
-3.38872e-09
-2.15902e-08
-1.43643e-09
-3.46303e-09
-2.28186e-08
-1.68475e-09
-3.3992e-09
-2.39757e-08
-1.93409e-09
-3.20618e-09
-2.49845e-08
-2.15946e-09
-2.91049e-09
-2.57753e-08
-2.33328e-09
-2.54094e-09
-2.62917e-08
-2.45137e-09
-2.12857e-09
-2.64928e-08
-2.50953e-09
-1.67246e-09
-2.63602e-08
-2.54613e-09
-1.17614e-09
-2.58952e-08
-2.55483e-09
-6.73622e-10
-2.51197e-08
-2.49622e-09
-2.04707e-10
-2.408e-08
-2.36411e-09
1.91661e-10
-2.28376e-08
-2.16212e-09
4.93088e-10
-2.14701e-08
-1.91607e-09
6.92534e-10
-2.00636e-08
-1.6535e-09
7.96426e-10
-1.87037e-08
-1.4003e-09
8.18849e-10
-1.74656e-08
-1.17353e-09
7.75118e-10
-1.63947e-08
-9.81464e-10
6.79056e-10
-1.54768e-08
-8.22132e-10
5.39557e-10
-1.4589e-08
-6.85808e-10
3.62439e-10
-1.34101e-08
-5.52714e-10
1.61406e-10
-1.12175e-08
-3.92232e-10
-6.27323e-09
-1.64492e-10
-2.45308e-10
-6.14361e-09
-2.49845e-10
-6.82309e-10
-1.11637e-08
-4.9748e-10
-1.21265e-09
-1.35007e-08
-6.40613e-10
-1.78675e-09
-1.47884e-08
-7.53813e-10
-2.36696e-09
-1.57066e-08
-8.78942e-10
-2.91664e-09
-1.65611e-08
-1.04096e-09
-3.39855e-09
-1.74737e-08
-1.25345e-09
-3.77387e-09
-1.84692e-08
-1.52145e-09
-4.00658e-09
-1.95172e-08
-1.84034e-09
-4.06695e-09
-2.05638e-08
-2.19442e-09
-3.94224e-09
-2.1545e-08
-2.55531e-09
-3.63867e-09
-2.23977e-08
-2.89037e-09
-3.18804e-09
-2.30644e-08
-3.16147e-09
-2.62869e-09
-2.34972e-08
-3.3538e-09
-2.00717e-09
-2.3661e-08
-3.45334e-09
-1.34145e-09
-2.35351e-08
-3.49085e-09
-6.53543e-10
-2.31229e-08
-3.46026e-09
4.2179e-12
-2.24495e-08
-3.328e-09
5.82038e-10
-2.15568e-08
-3.10094e-09
1.03479e-09
-2.0499e-08
-2.79132e-09
1.34118e-09
-1.93398e-08
-2.43671e-09
1.49986e-09
-1.81493e-08
-2.07298e-09
1.52708e-09
-1.69986e-08
-1.73222e-09
1.4472e-09
-1.5951e-08
-1.43471e-09
1.28586e-09
-1.50445e-08
-1.18884e-09
1.06526e-09
-1.42643e-08
-9.91879e-10
8.02888e-10
-1.34963e-08
-8.30285e-10
5.12279e-10
-1.24415e-08
-6.77941e-10
2.1608e-10
-1.04274e-08
-4.93913e-10
-5.83821e-09
-2.18938e-10
-2.8131e-10
-5.57678e-09
-2.85511e-10
-7.74953e-10
-1.01089e-08
-5.61081e-10
-1.36952e-09
-1.2191e-08
-7.15168e-10
-2.01193e-09
-1.33092e-08
-8.36721e-10
-2.66078e-09
-1.40825e-08
-9.75296e-10
-3.27573e-09
-1.47858e-08
-1.16028e-09
-3.81332e-09
-1.5529e-08
-1.40717e-09
-4.22864e-09
-1.63327e-08
-1.72117e-09
-4.47779e-09
-1.71722e-08
-2.09588e-09
-4.52489e-09
-1.80029e-08
-2.51377e-09
-4.35192e-09
-1.87742e-08
-2.94382e-09
-3.96265e-09
-1.9438e-08
-3.34901e-09
-3.39047e-09
-1.99517e-08
-3.68488e-09
-2.67999e-09
-2.0279e-08
-3.92869e-09
-1.89008e-09
-2.0393e-08
-4.05795e-09
-1.05714e-09
-2.02755e-08
-4.09249e-09
-2.21491e-10
-1.99305e-08
-4.028e-09
5.52521e-10
-1.93827e-08
-3.84079e-09
1.20765e-09
-1.86651e-08
-3.54691e-09
1.69722e-09
-1.78212e-08
-3.16742e-09
2.00245e-09
-1.68986e-08
-2.74637e-09
2.12704e-09
-1.59509e-08
-2.32302e-09
2.09405e-09
-1.50338e-08
-1.93179e-09
1.93477e-09
-1.41978e-08
-1.59394e-09
1.68216e-09
-1.34732e-08
-1.31866e-09
1.3655e-09
-1.28453e-08
-1.10232e-09
1.0076e-09
-1.22094e-08
-9.28942e-10
6.28277e-10
-1.12945e-08
-7.67665e-10
2.58521e-10
-9.48801e-09
-5.69637e-10
-5.31891e-09
-2.60769e-10
-3.07494e-10
-4.95811e-09
-3.11167e-10
-8.41516e-10
-8.96972e-09
-6.05198e-10
-1.48097e-09
-1.07877e-08
-7.63784e-10
-2.16907e-09
-1.17347e-08
-8.86414e-10
-2.86252e-09
-1.23611e-08
-1.02793e-09
-3.51799e-09
-1.29107e-08
-1.2197e-09
-4.0887e-09
-1.348e-08
-1.47824e-09
-4.52562e-09
-1.40872e-08
-1.80855e-09
-4.78083e-09
-1.47131e-08
-2.20389e-09
-4.81496e-09
-1.53221e-08
-2.64663e-09
-4.60662e-09
-1.58778e-08
-3.10475e-09
-4.158e-09
-1.63466e-08
-3.54e-09
-3.50147e-09
-1.67013e-08
-3.90698e-09
-2.68587e-09
-1.69175e-08
-4.17708e-09
-1.77691e-09
-1.69787e-08
-4.32321e-09
-8.27133e-10
-1.68719e-08
-4.35342e-09
1.07915e-10
-1.66012e-08
-4.26431e-09
9.55838e-10
-1.61863e-08
-4.04432e-09
1.65719e-09
-1.56508e-08
-3.71565e-09
2.16615e-09
-1.50251e-08
-3.30496e-09
2.46623e-09
-1.43414e-08
-2.85728e-09
2.56501e-09
-1.36369e-08
-2.41269e-09
2.48938e-09
-1.29525e-08
-2.00569e-09
2.27492e-09
-1.23265e-08
-1.65684e-09
1.95918e-09
-1.17825e-08
-1.37494e-09
1.5753e-09
-1.13056e-08
-1.15583e-09
1.15074e-09
-1.08027e-08
-9.82203e-10
7.09438e-10
-1.00321e-08
-8.21067e-10
2.87907e-10
-8.44806e-09
-6.1841e-10
-4.74156e-09
-2.89443e-10
-3.23807e-10
-4.30752e-09
-3.26774e-10
-8.81636e-10
-7.78183e-09
-6.3005e-10
-1.54565e-09
-9.33589e-09
-7.87795e-10
-2.25733e-09
-1.01179e-08
-9.0511e-10
-2.9719e-09
-1.06066e-08
-1.03987e-09
-3.64431e-09
-1.10134e-08
-1.22485e-09
-4.22667e-09
-1.14213e-08
-1.47634e-09
-4.66807e-09
-1.18471e-08
-1.79865e-09
-4.91964e-09
-1.2276e-08
-2.18547e-09
-4.94068e-09
-1.26823e-08
-2.61875e-09
-4.70883e-09
-1.30415e-08
-3.06809e-09
-4.22502e-09
-1.33329e-08
-3.49744e-09
-3.52024e-09
-1.3543e-08
-3.86299e-09
-2.64458e-09
-1.3659e-08
-4.13416e-09
-1.66737e-09
-1.36735e-08
-4.28238e-09
-6.52155e-10
-1.35794e-08
-4.30767e-09
3.35096e-10
-1.33805e-08
-4.20796e-09
1.21887e-09
-1.30907e-08
-3.97931e-09
1.9394e-09
-1.27244e-08
-3.64686e-09
2.4531e-09
-1.22988e-08
-3.23999e-09
2.74594e-09
-1.18325e-08
-2.80172e-09
2.8276e-09
-1.13491e-08
-2.36948e-09
2.72608e-09
-1.08756e-08
-1.97535e-09
2.47922e-09
-1.04403e-08
-1.63932e-09
2.12602e-09
-1.00601e-08
-1.36921e-09
1.702e-09
-9.72062e-09
-1.16095e-09
1.2371e-09
-9.3406e-09
-9.97146e-10
7.58044e-10
-8.70942e-09
-8.43645e-10
3.05364e-10
-7.35171e-09
-6.43672e-10
-4.1298e-09
-3.06389e-10
-3.31454e-10
-3.64245e-09
-3.33612e-10
-8.98458e-10
-6.57637e-09
-6.38452e-10
-1.57002e-09
-7.87348e-09
-7.90836e-10
-2.28636e-09
-8.50277e-09
-8.98804e-10
-3.00253e-09
-8.86932e-09
-1.02113e-09
-3.67313e-09
-9.1524e-09
-1.19037e-09
-4.24979e-09
-9.42238e-09
-1.42223e-09
-4.68218e-09
-9.69411e-09
-1.72063e-09
-4.92221e-09
-9.95737e-09
-2.07861e-09
-4.93021e-09
-1.01951e-08
-2.47924e-09
-4.6843e-09
-1.03921e-08
-2.89535e-09
-4.18452e-09
-1.05391e-08
-3.29359e-09
-3.46097e-09
-1.06321e-08
-3.63448e-09
-2.5632e-09
-1.06683e-08
-3.88849e-09
-1.56068e-09
-1.06475e-08
-4.02856e-09
-5.23163e-10
-1.05677e-08
-4.04919e-09
4.77567e-10
-1.04325e-08
-3.94879e-09
1.36679e-09
-1.02499e-08
-3.7301e-09
2.08548e-09
-1.00256e-08
-3.4175e-09
2.59363e-09
-9.76762e-09
-3.03936e-09
2.87847e-09
-9.48293e-09
-2.63444e-09
2.95017e-09
-9.18386e-09
-2.23694e-09
2.83671e-09
-8.88706e-09
-1.87511e-09
2.57515e-09
-8.61162e-09
-1.56712e-09
2.20489e-09
-8.36907e-09
-1.32079e-09
1.76204e-09
-8.14571e-09
-1.13206e-09
1.27767e-09
-7.87206e-09
-9.84166e-10
7.80448e-10
-7.36932e-09
-8.42875e-10
3.13055e-10
-6.23359e-09
-6.5072e-10
-3.50272e-09
-3.14016e-10
-3.32224e-10
-2.97674e-09
-3.33476e-10
-8.97391e-10
-5.37651e-09
-6.34689e-10
-1.56374e-09
-6.42723e-09
-7.799e-10
-2.27123e-09
-6.91828e-09
-8.7699e-10
-2.97487e-09
-7.1813e-09
-9.84369e-10
-3.62976e-09
-7.36378e-09
-1.13372e-09
-4.18855e-09
-7.52395e-09
-1.33964e-09
-4.60258e-09
-7.67477e-09
-1.60529e-09
-4.82571e-09
-7.81039e-09
-1.92384e-09
-4.82064e-09
-7.92008e-09
-2.28005e-09
-4.56682e-09
-7.99643e-09
-2.64945e-09
-4.06533e-09
-8.0377e-09
-3.00291e-09
-3.34396e-09
-8.04695e-09
-3.30651e-09
-2.45124e-09
-8.02796e-09
-3.53303e-09
-1.45493e-09
-7.98558e-09
-3.6582e-09
-4.26632e-10
-7.92115e-09
-3.67487e-09
5.60364e-10
-7.8375e-09
-3.58193e-09
1.4335e-09
-7.73848e-09
-3.38451e-09
2.1367e-09
-7.62401e-09
-3.10478e-09
2.63246e-09
-7.49425e-09
-2.76913e-09
2.909e-09
-7.34877e-09
-2.41069e-09
2.97584e-09
-7.19162e-09
-2.05908e-09
2.85976e-09
-7.03169e-09
-1.73929e-09
2.59588e-09
-6.8804e-09
-1.46733e-09
2.22252e-09
-6.74532e-09
-1.25038e-09
1.77529e-09
-6.61364e-09
-1.08483e-09
1.28589e-09
-6.42776e-09
-9.54883e-10
7.83939e-10
-6.03982e-09
-8.2754e-10
3.13468e-10
-5.11743e-09
-6.45673e-10
-2.87424e-09
-3.15011e-10
-3.27615e-10
-2.32107e-09
-3.28049e-10
-8.83055e-10
-4.19917e-09
-6.21896e-10
-1.53516e-09
-5.01559e-09
-7.59527e-10
-2.22478e-09
-5.3823e-09
-8.46343e-10
-2.90698e-09
-5.55995e-09
-9.39141e-10
-3.53766e-09
-5.66482e-09
-1.06828e-09
-4.07118e-09
-5.74321e-09
-1.24721e-09
-4.46078e-09
-5.80688e-09
-1.47828e-09
-4.66382e-09
-5.85233e-09
-1.75501e-09
-4.64582e-09
-5.87436e-09
-2.06372e-09
-4.38829e-09
-5.87072e-09
-2.38323e-09
-3.89324e-09
-5.84442e-09
-2.68832e-09
-3.18717e-09
-5.80266e-09
-2.95037e-09
-2.31664e-09
-5.75255e-09
-3.14593e-09
-1.34643e-09
-5.70131e-09
-3.25447e-09
-3.47112e-10
-5.65233e-09
-3.26812e-09
6.09115e-10
-5.60771e-09
-3.18601e-09
1.45356e-09
-5.56834e-09
-3.01458e-09
2.13285e-09
-5.53048e-09
-2.7728e-09
2.61212e-09
-5.48994e-09
-2.48358e-09
2.88006e-09
-5.4419e-09
-2.17481e-09
2.94518e-09
-5.38506e-09
-1.87167e-09
2.83152e-09
-5.32242e-09
-1.5956e-09
2.57231e-09
-5.26051e-09
-1.36067e-09
2.20358e-09
-5.2032e-09
-1.17339e-09
1.76014e-09
-5.13944e-09
-1.03076e-09
1.27374e-09
-5.02315e-09
-9.18202e-10
7.7495e-10
-4.73693e-09
-8.04096e-10
3.0886e-10
-4.01844e-09
-6.32896e-10
-2.25371e-09
-3.11667e-10
-3.17655e-10
-1.68616e-09
-3.17246e-10
-8.55768e-10
-3.06115e-09
-5.99897e-10
-1.48676e-09
-3.65533e-09
-7.29263e-10
-2.15196e-09
-3.91017e-09
-8.06931e-10
-2.80659e-09
-4.01837e-09
-8.86949e-10
-3.40741e-09
-4.06624e-09
-9.97752e-10
-3.91046e-09
-4.08861e-09
-1.15154e-09
-4.27242e-09
-4.09479e-09
-1.35013e-09
-4.45345e-09
-4.08389e-09
-1.5874e-09
-4.42275e-09
-4.05387e-09
-1.85119e-09
-4.16425e-09
-4.00587e-09
-2.12335e-09
-3.68109e-09
-3.94513e-09
-2.38244e-09
-2.99845e-09
-3.88013e-09
-2.60516e-09
-2.16071e-09
-3.81897e-09
-2.77131e-09
-1.22893e-09
-3.76935e-09
-2.86373e-09
-2.71005e-10
-3.73504e-09
-2.8752e-09
6.43953e-10
-3.7176e-09
-2.80506e-09
1.4514e-09
-3.71609e-09
-2.65969e-09
2.10124e-09
-3.72551e-09
-2.45482e-09
2.56098e-09
-3.73976e-09
-2.20991e-09
2.81925e-09
-3.75212e-09
-1.94803e-09
2.88295e-09
-3.75837e-09