/*--------------------------------*- C++ -*----------------------------------*\
| =========                 |                                                 |
| \\      /  F ield         | OpenFOAM: The Open Source CFD Toolbox           |
|  \\    /   O peration     | Version:  v1906                                 |
|   \\  /    A nd           | Web:      www.OpenFOAM.com                      |
|    \\/     M anipulation  |                                                 |
\*---------------------------------------------------------------------------*/
FoamFile
{
    version     2.0;
    format      ascii;
    class       volVectorField;
    location    "56";
    object      U;
}
// * * * * * * * * * * * * * * * * * * * * * * * * * * * * * * * * * * * * * //

dimensions      [0 1 -1 0 0 0 0];


internalField   nonuniform List<vector> 
78750
(
(-2.30626e-06 -8.1157e-05 0.000116823)
(-7.83266e-06 -0.000107484 0.000203067)
(-2.18332e-05 -0.000105127 0.000247876)
(-4.19677e-05 -9.11321e-05 0.000279553)
(-6.7562e-05 -7.10266e-05 0.00030113)
(-9.76117e-05 -4.80077e-05 0.000314984)
(-0.000131016 -2.44567e-05 0.000322674)
(-0.000166554 -1.83944e-06 0.000325359)
(-0.000203119 1.87012e-05 0.000323736)
(-0.000239668 3.66489e-05 0.000318359)
(-0.000275279 5.15444e-05 0.000309501)
(-0.000309116 6.33614e-05 0.000297447)
(-0.000340438 7.20036e-05 0.000282325)
(-0.000368601 7.76762e-05 0.000264379)
(-0.000393082 8.04344e-05 0.00024377)
(-0.000413488 8.05689e-05 0.00022083)
(-0.000429259 7.82449e-05 0.000196147)
(-0.00044038 7.37486e-05 0.000169613)
(-0.00044648 6.73016e-05 0.000141974)
(-0.000447492 5.92192e-05 0.000113843)
(-0.000443395 4.96858e-05 8.57973e-05)
(-0.000434214 3.89886e-05 5.85488e-05)
(-0.000420064 2.73116e-05 3.27582e-05)
(-0.000401119 1.49304e-05 9.15623e-06)
(-0.000377603 2.06075e-06 -1.1594e-05)
(-0.000349817 -1.09883e-05 -2.88282e-05)
(-0.000318105 -2.391e-05 -4.19822e-05)
(-0.000282876 -3.62774e-05 -5.05635e-05)
(-0.000244624 -4.75949e-05 -5.42126e-05)
(-0.000203902 -5.718e-05 -5.27842e-05)
(-0.000161189 -6.41727e-05 -4.64214e-05)
(-0.00011685 -6.73801e-05 -3.5734e-05)
(-7.23437e-05 -6.51804e-05 -2.18897e-05)
(-3.62436e-05 -5.55196e-05 -7.18866e-06)
(-1.05524e-05 -3.08133e-05 8.15654e-06)
(-7.56317e-06 0.000179189 -0.000263611)
(-3.32135e-05 0.000361479 -0.000373256)
(-6.33397e-05 0.000454789 -0.000409677)
(-0.00010622 0.000526781 -0.000442294)
(-0.000151191 0.00057943 -0.000469463)
(-0.000195501 0.000614678 -0.000490218)
(-0.000238015 0.000635554 -0.000505659)
(-0.000277805 0.000643563 -0.000517599)
(-0.000314127 0.000641237 -0.000526514)
(-0.000346405 0.000629591 -0.00053334)
(-0.000374193 0.00061078 -0.000538133)
(-0.000397426 0.000585327 -0.000541618)
(-0.00041592 0.000555093 -0.000543727)
(-0.000429668 0.000520591 -0.00054498)
(-0.000438754 0.000483307 -0.000545253)
(-0.000443218 0.000443616 -0.000544936)
(-0.000443363 0.000402473 -0.000544031)
(-0.000439328 0.000360174 -0.000542827)
(-0.000431322 0.000317722 -0.000541124)
(-0.00041963 0.000275331 -0.000539105)
(-0.00040452 0.000233773 -0.000536558)
(-0.000386306 0.000193168 -0.000533621)
(-0.000365276 0.000154087 -0.000530112)
(-0.000341755 0.0001166 -0.000525972)
(-0.000316048 8.11311e-05 -0.000520875)
(-0.000288479 4.77341e-05 -0.000514619)
(-0.000259351 1.67437e-05 -0.000506694)
(-0.000228988 -1.17649e-05 -0.000496506)
(-0.000197717 -3.74812e-05 -0.000483015)
(-0.00016587 -6.024e-05 -0.000464815)
(-0.000133593 -7.95941e-05 -0.00043981)
(-0.000100617 -9.48909e-05 -0.000404087)
(-6.71814e-05 -0.000104423 -0.000348155)
(-4.05501e-05 -0.000103869 -0.000260196)
(-2.10895e-05 -6.63206e-05 -8.41098e-05)
(-5.11499e-06 0.000396979 -0.000155889)
(-2.03733e-05 0.000684416 -0.000245902)
(-3.44495e-05 0.000808434 -0.000282702)
(-5.48527e-05 0.00089376 -0.000307794)
(-7.5556e-05 0.000948182 -0.000326177)
(-9.53725e-05 0.00097924 -0.000340099)
(-0.000113993 0.000990984 -0.000351534)
(-0.000131093 0.000988093 -0.000361001)
(-0.00014646 0.00097275 -0.000369487)
(-0.000159852 0.000948125 -0.000376896)
(-0.000171177 0.000915461 -0.000383761)
(-0.000180366 0.00087706 -0.000389794)
(-0.000187433 0.000833666 -0.000395336)
(-0.000192379 0.00078705 -0.000400058)
(-0.000195276 0.000737696 -0.00040421)
(-0.000196193 0.000687013 -0.000407483)
(-0.000195214 0.000635297 -0.000410228)
(-0.000192476 0.000583621 -0.000412172)
(-0.000188123 0.000532152 -0.000413506)
(-0.000182319 0.000481904 -0.000413894)
(-0.000175209 0.000432963 -0.000413511)
(-0.000166921 0.000385955 -0.000412188)
(-0.000157633 0.000340909 -0.000410053)
(-0.000147456 0.000298274 -0.00040693)
(-0.000136543 0.000258036 -0.000402861)
(-0.000124993 0.000220505 -0.000397595)
(-0.000112938 0.000185652 -0.000390979)
(-0.000100461 0.000153698 -0.000382516)
(-8.76826e-05 0.000124624 -0.00037161)
(-7.46859e-05 9.86243e-05 -0.000357149)
(-6.15275e-05 7.57226e-05 -0.000337477)
(-4.79648e-05 5.61515e-05 -0.000309429)
(-3.37774e-05 3.9961e-05 -0.000267426)
(-2.12577e-05 2.76313e-05 -0.000205116)
(-1.29708e-05 1.54512e-05 -6.86466e-05)
(-6.47421e-06 0.00049698 6.59573e-05)
(-1.53143e-05 0.000819539 2.91816e-05)
(-2.00198e-05 0.000960775 -4.03856e-06)
(-2.70091e-05 0.00105824 -2.95999e-05)
(-3.34046e-05 0.00112198 -4.74433e-05)
(-3.92768e-05 0.00115882 -6.25455e-05)
(-4.46747e-05 0.00117494 -7.6792e-05)
(-4.96316e-05 0.00117408 -9.13123e-05)
(-5.40402e-05 0.0011603 -0.000106018)
(-5.78604e-05 0.00113568 -0.00012137)
(-6.10202e-05 0.00110304 -0.000137033)
(-6.35591e-05 0.00106358 -0.000153269)
(-6.53756e-05 0.00101941 -0.000169314)
(-6.65297e-05 0.000971282 -0.000185323)
(-6.70396e-05 0.000920775 -0.000200896)
(-6.69901e-05 0.000868327 -0.000216142)
(-6.63227e-05 0.000815506 -0.000230375)
(-6.51724e-05 0.000762609 -0.000243701)
(-6.3594e-05 0.000710562 -0.000255821)
(-6.16683e-05 0.000659503 -0.000266827)
(-5.94373e-05 0.000610137 -0.000276451)
(-5.69864e-05 0.000562513 -0.000284774)
(-5.43784e-05 0.000517145 -0.000291561)
(-5.16573e-05 0.000473814 -0.000296979)
(-4.88598e-05 0.000432839 -0.000300824)
(-4.60456e-05 0.000394089 -0.000303118)
(-4.32008e-05 0.000357684 -0.000303638)
(-4.03242e-05 0.000323362 -0.000302308)
(-3.73598e-05 0.000291133 -0.000298657)
(-3.42573e-05 0.000260642 -0.000292208)
(-3.08167e-05 0.000231505 -0.000282161)
(-2.66264e-05 0.000203021 -0.000267992)
(-2.0926e-05 0.000174315 -0.000248931)
(-1.44136e-05 0.000144296 -0.000219401)
(-1.00224e-05 9.04941e-05 -0.000121327)
(-8.41709e-06 0.000503047 0.000182799)
(-1.44548e-05 0.000799651 0.000181232)
(-1.46363e-05 0.000931716 0.000153346)
(-1.40824e-05 0.00102551 0.000130032)
(-1.17206e-05 0.00108896 0.00011375)
(-8.40299e-06 0.00112898 9.98012e-05)
(-4.57589e-06 0.00114997 8.55562e-05)
(-5.69666e-07 0.00115637 7.07482e-05)
(3.47523e-06 0.00115066 5.50237e-05)
(7.3946e-06 0.00113585 3.86907e-05)
(1.11099e-05 0.00111337 2.16188e-05)
(1.45613e-05 0.00108544 4.22202e-06)
(1.7617e-05 0.00105289 -1.38313e-05)
(2.02903e-05 0.00101731 -3.20127e-05)
(2.25187e-05 0.000979169 -5.02655e-05)
(2.42933e-05 0.000939695 -6.80356e-05)
(2.55707e-05 0.000899212 -8.52795e-05)
(2.63409e-05 0.000858706 -0.000101624)
(2.65871e-05 0.000818337 -0.000117057)
(2.63214e-05 0.000778809 -0.000131285)
(2.55218e-05 0.000740147 -0.000144333)
(2.42054e-05 0.000702841 -0.000155975)
(2.23594e-05 0.0006668 -0.000166263)
(2.00184e-05 0.000632305 -0.000175032)
(1.71838e-05 0.000599141 -0.00018235)
(1.39107e-05 0.000567373 -0.000188094)
(1.02465e-05 0.000536603 -0.000192331)
(6.30626e-06 0.000506584 -0.000194978)
(2.21289e-06 0.000476639 -0.000196029)
(-1.83249e-06 0.000446052 -0.000195297)
(-5.57421e-06 0.000413489 -0.000192838)
(-8.53273e-06 0.000377518 -0.000189554)
(-9.73976e-06 0.000335859 -0.000187654)
(-8.29932e-06 0.000285815 -0.000182181)
(-7.13861e-06 0.000183271 -0.000119732)
(-6.33701e-06 0.000476153 0.000209495)
(-8.91911e-06 0.000733031 0.000217669)
(-7.12324e-06 0.000849659 0.000193428)
(-3.52712e-06 0.000934522 0.000172414)
(1.84518e-06 0.000995129 0.000158136)
(8.11288e-06 0.00103614 0.0001458)
(1.47533e-05 0.00106212 0.000133346)
(2.14346e-05 0.00107572 0.000120151)
(2.79322e-05 0.00107988 0.000106295)
(3.40419e-05 0.00107614 9.16253e-05)
(3.96348e-05 0.0010665 7.63329e-05)
(4.46055e-05 0.00105181 6.04717e-05)
(4.89047e-05 0.0010335 4.43801e-05)
(5.24478e-05 0.00101212 2.81074e-05)
(5.52322e-05 0.000988788 1.2013e-05)
(5.71787e-05 0.000963808 -3.93949e-06)
(5.83095e-05 0.000938025 -1.94163e-05)
(5.86023e-05 0.000911567 -3.43494e-05)
(5.80846e-05 0.000885074 -4.84835e-05)
(5.67448e-05 0.000858568 -6.17865e-05)
(5.46216e-05 0.000832528 -7.40475e-05)
(5.17268e-05 0.000806845 -8.52783e-05)
(4.81164e-05 0.000781789 -9.53268e-05)
(4.38171e-05 0.000757103 -0.000104244)
(3.89167e-05 0.000732836 -0.000111926)
(3.34722e-05 0.000708533 -0.000118461)
(2.76123e-05 0.000683936 -0.000123798)
(2.14509e-05 0.000658256 -0.000128078)
(1.51869e-05 0.000630752 -0.000131277)
(9.02332e-06 0.000600052 -0.000133501)
(3.23635e-06 0.000564584 -0.000134888)
(-1.75193e-06 0.000521944 -0.000136944)
(-5.0033e-06 0.000469061 -0.000142582)
(-5.39966e-06 0.000401672 -0.000147697)
(-5.27578e-06 0.000257677 -0.000106544)
(-3.45135e-06 0.000430008 0.000177498)
(-3.52275e-06 0.000657507 0.000180853)
(-1.20297e-06 0.000762368 0.000159378)
(2.88543e-06 0.000841063 0.000141256)
(8.16126e-06 0.000899387 0.000129091)
(1.39952e-05 0.000941992 0.000119049)
(2.00395e-05 0.000972025 0.000109176)
(2.60601e-05 0.000992396 9.91123e-05)
(3.18696e-05 0.00100482 8.86684e-05)
(3.73197e-05 0.00101121 7.78891e-05)
(4.22854e-05 0.00101249 6.66956e-05)
(4.66806e-05 0.00101001 5.52527e-05)
(5.04293e-05 0.00100425 4.35572e-05)
(5.34769e-05 0.000996194 3.18224e-05)
(5.57642e-05 0.000986107 2.00994e-05)
(5.73092e-05 0.00097471 8.63406e-06)
(5.80538e-05 0.000962118 -2.55754e-06)
(5.80234e-05 0.000948891 -1.32753e-05)
(5.7206e-05 0.000935005 -2.35023e-05)
(5.56298e-05 0.000920866 -3.30691e-05)
(5.33055e-05 0.000906337 -4.19885e-05)
(5.02832e-05 0.000891666 -5.01252e-05)
(4.65889e-05 0.000876578 -5.7524e-05)
(4.22943e-05 0.000861128 -6.40847e-05)
(3.74544e-05 0.000844846 -6.9886e-05)
(3.21671e-05 0.000827507 -7.48674e-05)
(2.65266e-05 0.000808327 -7.91482e-05)
(2.0675e-05 0.000786649 -8.27186e-05)
(1.47734e-05 0.000761129 -8.57284e-05)
(9.02347e-06 0.00073035 -8.81604e-05)
(3.65978e-06 0.000691968 -9.03212e-05)
(-9.40112e-07 0.000643236 -9.3415e-05)
(-4.00852e-06 0.000579997 -0.00010013)
(-4.59942e-06 0.000497104 -0.000107098)
(-4.34288e-06 0.000316423 -7.87758e-05)
(-1.61502e-06 0.000390535 0.000129498)
(-9.15174e-07 0.000605633 0.000128095)
(5.99918e-07 0.000705822 0.000111681)
(3.24069e-06 0.00078208 9.7971e-05)
(6.48469e-06 0.000840281 8.87508e-05)
(1.00254e-05 0.000884319 8.11917e-05)
(1.36726e-05 0.000917635 7.40359e-05)
(1.73301e-05 0.000942349 6.68697e-05)
(2.08743e-05 0.000960553 5.96705e-05)
(2.42234e-05 0.000973384 5.23123e-05)
(2.72942e-05 0.000982186 4.48582e-05)
(3.00242e-05 0.000987548 3.72597e-05)
(3.23591e-05 0.000990388 2.96462e-05)
(3.42501e-05 0.000990987 2.20185e-05)
(3.56796e-05 0.000990009 1.4543e-05)
(3.6587e-05 0.000987551 7.19849e-06)
(3.69938e-05 0.000984102 1.55655e-07)
(3.68725e-05 0.000979619 -6.60296e-06)
(3.62279e-05 0.000974463 -1.29374e-05)
(3.50611e-05 0.00096848 -1.88867e-05)
(3.33966e-05 0.0009619 -2.43313e-05)
(3.12484e-05 0.000954445 -2.93354e-05)
(2.86571e-05 0.000946183 -3.38019e-05)
(2.56583e-05 0.000936663 -3.78198e-05)
(2.23141e-05 0.000925723 -4.13144e-05)
(1.86828e-05 0.000912634 -4.44011e-05)
(1.48559e-05 0.000896859 -4.70333e-05)
(1.09331e-05 0.000877201 -4.93601e-05)
(7.04277e-06 0.000852475 -5.13519e-05)
(3.33311e-06 0.000820656 -5.31417e-05)
(-1.67911e-08 0.000779411 -5.4801e-05)
(-2.73169e-06 0.000725246 -5.72885e-05)
(-4.28244e-06 0.000653759 -6.23005e-05)
(-4.20983e-06 0.000558805 -6.75112e-05)
(-3.44915e-06 0.000350875 -4.79848e-05)
(-1.16247e-06 0.000362241 9.11212e-05)
(-8.72891e-07 0.000575195 9.15323e-05)
(-5.09469e-07 0.000674503 8.23158e-05)
(2.96555e-07 0.000750764 7.43556e-05)
(1.41361e-06 0.000809406 6.87325e-05)
(2.71013e-06 0.000854811 6.40035e-05)
(4.11469e-06 0.000889918 5.94017e-05)
(5.58382e-06 0.000917288 5.48333e-05)
(7.07041e-06 0.00093848 5.02019e-05)
(8.52831e-06 0.00095505 4.55703e-05)
(9.91272e-06 0.000967795 4.08734e-05)
(1.11897e-05 0.000977709 3.62183e-05)
(1.23222e-05 0.000985164 3.15672e-05)
(1.328e-05 0.000990832 2.70472e-05)
(1.4027e-05 0.000994838 2.26268e-05)
(1.45538e-05 0.000997671 1.84104e-05)
(1.48347e-05 0.000999291 1.43559e-05)
(1.48715e-05 0.00100004 1.05797e-05)
(1.46383e-05 0.000999765 7.06278e-06)
(1.4142e-05 0.000998688 3.9055e-06)
(1.33825e-05 0.000996535 1.02018e-06)
(1.2371e-05 0.000993399 -1.50389e-06)
(1.11232e-05 0.000988857 -3.77224e-06)
(9.66424e-06 0.000982815 -5.71156e-06)
(8.02533e-06 0.000974621 -7.44458e-06)
(6.25295e-06 0.000963887 -8.91544e-06)
(4.39755e-06 0.000949581 -1.02669e-05)
(2.5249e-06 0.000930807 -1.14657e-05)
(7.1212e-07 0.000905866 -1.26675e-05)
(-9.55639e-07 0.000872974 -1.38355e-05)
(-2.37135e-06 0.000829238 -1.51913e-05)
(-3.37782e-06 0.000771292 -1.72207e-05)
(-3.68064e-06 0.000694087 -2.1145e-05)
(-3.13816e-06 0.0005914 -2.5494e-05)
(-2.25185e-06 0.000366292 -1.63019e-05)
(-1.56937e-06 0.000343559 6.74629e-05)
(-2.10756e-06 0.000556282 7.48335e-05)
(-2.82739e-06 0.000655489 7.33753e-05)
(-3.55042e-06 0.000731597 7.11934e-05)
(-4.03718e-06 0.000790409 6.93002e-05)
(-4.32435e-06 0.000836022 6.72407e-05)
(-4.46099e-06 0.00087177 6.49472e-05)
(-4.4542e-06 0.000899838 6.2392e-05)
(-4.3291e-06 0.000922183 5.97202e-05)
(-4.09316e-06 0.00093994 5.6912e-05)
(-3.77676e-06 0.000954302 5.40949e-05)
(-3.39589e-06 0.000965819 5.12401e-05)
(-2.9744e-06 0.000975255 4.84743e-05)
(-2.53028e-06 0.000982825 4.57612e-05)
(-2.08395e-06 0.000989042 4.32228e-05)
(-1.66413e-06 0.000993906 4.08486e-05)
(-1.28686e-06 0.000997776 3.87554e-05)
(-9.7667e-07 0.00100054 3.6876e-05)
(-7.27661e-07 0.00100247 3.52425e-05)
(-5.59227e-07 0.00100331 3.37833e-05)
(-4.78374e-07 0.00100317 3.25851e-05)
(-4.81613e-07 0.00100169 3.15476e-05)
(-5.67966e-07 0.000998824 3.07358e-05)
(-7.29655e-07 0.000994024 3.00286e-05)
(-9.54928e-07 0.000987027 2.94727e-05)
(-1.22652e-06 0.000976986 2.89283e-05)
(-1.52172e-06 0.000963256 2.84208e-05)
(-1.81283e-06 0.000944491 2.77864e-05)
(-2.06818e-06 0.000919372 2.70233e-05)
(-2.25617e-06 0.000885672 2.59451e-05)
(-2.34288e-06 0.000840864 2.44664e-05)
(-2.27621e-06 0.000781154 2.20479e-05)
(-1.96173e-06 0.000701823 1.79145e-05)
(-1.38142e-06 0.000596258 1.24205e-05)
(-8.02122e-07 0.000365587 1.00511e-05)
(-2.10618e-06 0.00032987 5.39636e-05)
(-3.33624e-06 0.00053989 6.90946e-05)
(-4.75534e-06 0.00063759 7.38824e-05)
(-6.41186e-06 0.000712575 7.63241e-05)
(-7.78534e-06 0.000770329 7.73526e-05)
(-8.9094e-06 0.000815243 7.74356e-05)
(-9.81885e-06 0.000850296 7.67933e-05)
(-1.05364e-05 0.00087801 7.57019e-05)
(-1.10562e-05 0.000899968 7.42593e-05)
(-1.13929e-05 0.000917664 7.26497e-05)
(-1.1546e-05 0.000931903 7.09003e-05)
(-1.15386e-05 0.000943606 6.91544e-05)
(-1.13756e-05 0.000953141 6.74068e-05)
(-1.10817e-05 0.000961104 6.57789e-05)
(-1.06658e-05 0.000967604 6.42437e-05)
(-1.01556e-05 0.000973043 6.29015e-05)
(-9.5655e-06 0.000977363 6.1702e-05)
(-8.91872e-06 0.000980815 6.07404e-05)
(-8.23208e-06 0.000983194 5.99698e-05)
(-7.52524e-06 0.000984659 5.945e-05)
(-6.80691e-06 0.000984906 5.909e-05)
(-6.09333e-06 0.000983962 5.89354e-05)
(-5.39076e-06 0.000981375 5.88762e-05)
(-4.70912e-06 0.000976989 5.89409e-05)
(-4.04906e-06 0.000970129 5.90004e-05)
(-3.41341e-06 0.000960358 5.90628e-05)
(-2.80273e-06 0.000946629 5.89745e-05)
(-2.21486e-06 0.000928018 5.87099e-05)
(-1.65319e-06 0.000902836 5.80734e-05)
(-1.11748e-06 0.000869298 5.6981e-05)
(-6.26896e-07 0.000824568 5.51244e-05)
(-2.07132e-07 0.000765321 5.21068e-05)
(1.11134e-07 0.000686651 4.70456e-05)
(3.80749e-07 0.000582459 3.96816e-05)
(4.53338e-07 0.000355256 2.73632e-05)
(-2.30483e-06 0.000318522 4.28265e-05)
(-3.83918e-06 0.000522674 6.20047e-05)
(-5.5515e-06 0.000617587 7.01412e-05)
(-7.55927e-06 0.00069021 7.50226e-05)
(-9.27441e-06 0.000746162 7.76638e-05)
(-1.06955e-05 0.000789427 7.88467e-05)
(-1.18859e-05 0.000823212 7.91102e-05)
(-1.28422e-05 0.000849669 7.8711e-05)
(-1.35777e-05 0.00087067 7.79088e-05)
(-1.40781e-05 0.000887353 7.68103e-05)
(-1.43617e-05 0.000900841 7.55872e-05)
(-1.44215e-05 0.000911706 7.42835e-05)
(-1.42838e-05 0.000920649 7.30284e-05)
(-1.39482e-05 0.000927913 7.18325e-05)
(-1.34416e-05 0.000933953 7.07995e-05)
(-1.27789e-05 0.000938808 6.99149e-05)
(-1.19864e-05 0.000942775 6.926e-05)
(-1.10783e-05 0.000945752 6.87968e-05)
(-1.0086e-05 0.000947913 6.85835e-05)
(-9.02795e-06 0.000949036 6.85581e-05)
(-7.93491e-06 0.000949179 6.87549e-05)
(-6.82107e-06 0.000947995 6.90887e-05)
(-5.71065e-06 0.000945395 6.95715e-05)
(-4.62128e-06 0.00094086 7.00957e-05)
(-3.56463e-06 0.000934091 7.0651e-05)
(-2.55316e-06 0.000924296 7.11059e-05)
(-1.60187e-06 0.000910828 7.14196e-05)
(-7.25939e-07 0.000892439 7.14237e-05)
(6.51202e-08 0.00086787 7.10221e-05)
(7.46181e-07 0.000835069 6.9972e-05)
(1.28564e-06 0.00079169 6.80402e-05)
(1.61383e-06 0.000734243 6.46947e-05)
(1.66087e-06 0.000658418 5.91492e-05)
(1.54257e-06 0.000558137 5.06524e-05)
(1.19213e-06 0.0003402 3.29982e-05)
(-1.9604e-06 0.000309648 2.94248e-05)
(-3.40967e-06 0.000507334 4.6998e-05)
(-5.02795e-06 0.000599067 5.51444e-05)
(-6.97236e-06 0.000669226 6.01889e-05)
(-8.65785e-06 0.000723047 6.28847e-05)
(-1.00923e-05 0.000764608 6.41404e-05)
(-1.12937e-05 0.000796777 6.44347e-05)
(-1.22759e-05 0.000821906 6.41039e-05)
(-1.30135e-05 0.000841552 6.33203e-05)
(-1.35188e-05 0.000857108 6.22791e-05)
(-1.37756e-05 0.0008694 6.10719e-05)
(-1.38002e-05 0.000879281 5.98364e-05)
(-1.35913e-05 0.000887159 5.8622e-05)
(-1.31744e-05 0.000893575 5.75341e-05)
(-1.25586e-05 0.000898689 5.65942e-05)
(-1.17757e-05 0.000902846 5.58821e-05)
(-1.08444e-05 0.000906041 5.53936e-05)
(-9.79831e-06 0.000908482 5.5182e-05)
(-8.66358e-06 0.000910039 5.52167e-05)
(-7.47508e-06 0.0009108 5.5524e-05)
(-6.25515e-06 0.000910515 5.60464e-05)
(-5.04053e-06 0.000909148 5.67839e-05)
(-3.85155e-06 0.000906304 5.76541e-05)
(-2.71328e-06 0.000901779 5.86325e-05)
(-1.64531e-06 0.000894975 5.96135e-05)
(-6.64475e-07 0.000885429 6.05475e-05)
(2.0745e-07 0.000872212 6.13012e-05)
(9.62385e-07 0.000854427 6.17892e-05)
(1.58269e-06 0.000830578 6.18295e-05)
(2.05675e-06 0.000799003 6.12676e-05)
(2.34735e-06 0.000757197 5.98018e-05)
(2.40515e-06 0.000702128 5.70269e-05)
(2.15685e-06 0.00062948 5.21713e-05)
(1.78519e-06 0.000533739 4.45447e-05)
(1.25948e-06 0.000325871 2.77191e-05)
(-1.21081e-06 0.000304798 1.28204e-05)
(-2.31865e-06 0.000498214 2.36552e-05)
(-3.62244e-06 0.00058791 2.9161e-05)
(-5.25602e-06 0.000656283 3.24977e-05)
(-6.76755e-06 0.000708639 3.40803e-05)
(-8.09499e-06 0.000748772 3.45255e-05)
(-9.25162e-06 0.000779708 3.42337e-05)
(-1.02017e-05 0.000803549 3.342e-05)
(-1.09373e-05 0.000822058 3.2263e-05)
(-1.1429e-05 0.000836393 3.08786e-05)
(-1.16816e-05 0.000847615 2.94023e-05)
(-1.16856e-05 0.000856347 2.79119e-05)
(-1.14592e-05 0.000863247 2.65141e-05)
(-1.10048e-05 0.000868626 2.52621e-05)
(-1.0354e-05 0.000872899 2.42378e-05)
(-9.5281e-06 0.000876176 2.34698e-05)
(-8.56414e-06 0.000878709 2.30137e-05)
(-7.48668e-06 0.000880466 2.28696e-05)
(-6.34151e-06 0.00088157 2.30633e-05)
(-5.16011e-06 0.000881866 2.35659e-05)
(-3.97805e-06 0.000881351 2.43725e-05)
(-2.8318e-06 0.000879742 2.54258e-05)
(-1.74881e-06 0.000876893 2.66936e-05)
(-7.58865e-07 0.00087235 2.80936e-05)
(1.17917e-07 0.000865766 2.95704e-05)
(8.62385e-07 0.000856438 3.1021e-05)
(1.46387e-06 0.000843698 3.2368e-05)
(1.91112e-06 0.000826427 3.34863e-05)
(2.20719e-06 0.000803409 3.42682e-05)
(2.34216e-06 0.000772802 3.45516e-05)
(2.32084e-06 0.000732419 3.41559e-05)
(2.10952e-06 0.000679117 3.27652e-05)
(1.70628e-06 0.000608967 2.98886e-05)
(1.27833e-06 0.000516482 2.50948e-05)
(8.08188e-07 0.000315946 1.45193e-05)
(-3.29532e-07 0.000305797 -4.24954e-06)
(-1.05926e-06 0.000499322 -2.64227e-06)
(-1.96284e-06 0.000588909 -1.11816e-06)
(-3.2362e-06 0.000657079 -4.52785e-07)
(-4.52502e-06 0.000708997 -7.41043e-07)
(-5.73902e-06 0.000748624 -1.61929e-06)
(-6.82791e-06 0.000778841 -2.91103e-06)
(-7.75816e-06 0.000801942 -4.50127e-06)
(-8.48323e-06 0.000819541 -6.306e-06)
(-8.98632e-06 0.000833001 -8.22122e-06)
(-9.24666e-06 0.000843228 -1.0166e-05)
(-9.26929e-06 0.000851056 -1.20421e-05)
(-9.05078e-06 0.000856982 -1.3778e-05)
(-8.61551e-06 0.000861527 -1.52906e-05)
(-7.98082e-06 0.000864939 -1.65256e-05)
(-7.18216e-06 0.000867536 -1.74221e-05)
(-6.24638e-06 0.000869393 -1.79511e-05)
(-5.21886e-06 0.000870679 -1.80813e-05)
(-4.14007e-06 0.000871333 -1.78142e-05)
(-3.0494e-06 0.000871393 -1.71512e-05)
(-1.98877e-06 0.000870665 -1.6126e-05)
(-9.93398e-07 0.000869051 -1.4771e-05)
(-1.01119e-07 0.000866206 -1.31486e-05)
(6.65903e-07 0.000861859 -1.13162e-05)
(1.2802e-06 0.000855461 -9.35699e-06)
(1.72965e-06 0.000846487 -7.3443e-06)
(2.00745e-06 0.00083407 -5.37207e-06)
(2.11987e-06 0.000817271 -3.51964e-06)
(2.07107e-06 0.000794687 -1.88168e-06)
(1.88599e-06 0.000764659 -5.3196e-07)
(1.58186e-06 0.000724835 4.32055e-07)
(1.18837e-06 0.000672268 9.02384e-07)
(7.48271e-07 0.000602907 6.89447e-07)
(4.23387e-07 0.00051148 -1.70888e-07)
(1.15315e-07 0.000313105 -1.69059e-06)
(4.33585e-07 0.000313206 -1.89979e-05)
(2.30176e-08 0.000511354 -2.62566e-05)
(-5.10904e-07 0.000602944 -2.86105e-05)
(-1.44386e-06 0.00067236 -3.05111e-05)
(-2.53367e-06 0.000725013 -3.24866e-05)
(-3.63329e-06 0.000764886 -3.45666e-05)
(-4.67018e-06 0.000795073 -3.67597e-05)
(-5.57564e-06 0.000817826 -3.90646e-05)
(-6.31149e-06 0.000834955 -4.14523e-05)
(-6.83354e-06 0.000847748 -4.38695e-05)
(-7.12801e-06 0.000857293 -4.62433e-05)
(-7.18218e-06 0.000864333 -4.84987e-05)
(-7.00831e-06 0.000869539 -5.0555e-05)
(-6.6134e-06 0.000873325 -5.234e-05)
(-6.02702e-06 0.000876103 -5.37855e-05)
(-5.27828e-06 0.000878075 -5.48387e-05)
(-4.40677e-06 0.000879471 -5.54569e-05)
(-3.45433e-06 0.000880333 -5.56173e-05)
(-2.46642e-06 0.000880744 -5.53104e-05)
(-1.4859e-06 0.000880605 -5.45474e-05)
(-5.5687e-07 0.000879855 -5.33534e-05)
(2.77584e-07 0.00087825 -5.17723e-05)
(9.87796e-07 0.000875569 -4.98587e-05)
(1.54025e-06 0.000871385 -4.76812e-05)
(1.92027e-06 0.000865262 -4.53129e-05)
(2.11337e-06 0.000856512 -4.2833e-05)
(2.12158e-06 0.000844373 -4.03165e-05)
(1.9522e-06 0.000827735 -3.78308e-05)
(1.63576e-06 0.000805284 -3.54267e-05)
(1.199e-06 0.000775186 -3.31242e-05)
(6.9893e-07 0.000735153 -3.09109e-05)
(1.8976e-07 0.000682056 -2.87239e-05)
(-2.11614e-07 0.000611864 -2.64359e-05)
(-3.84978e-07 0.00051911 -2.35777e-05)
(-5.38283e-07 0.000317723 -1.63829e-05)
(9.10953e-07 0.00032605 -2.85668e-05)
(6.59884e-07 0.000532291 -4.20453e-05)
(3.96566e-07 0.000627467 -4.72204e-05)
(-3.02194e-07 0.000699424 -5.1042e-05)
(-1.23179e-06 0.000753726 -5.43275e-05)
(-2.23327e-06 0.000794639 -5.73504e-05)
(-3.20353e-06 0.000825318 -6.02615e-05)
(-4.07434e-06 0.000848227 -6.31369e-05)
(-4.78552e-06 0.000865183 -6.5996e-05)
(-5.30521e-06 0.000877647 -6.88128e-05)
(-5.60133e-06 0.000886683 -7.15318e-05)
(-5.67107e-06 0.000893181 -7.40856e-05)
(-5.51148e-06 0.000897768 -7.63978e-05)
(-5.14214e-06 0.000900993 -7.83967e-05)
(-4.58643e-06 0.000903206 -8.00136e-05)
(-3.87654e-06 0.000904727 -8.11945e-05)
(-3.05416e-06 0.000905713 -8.1895e-05)
(-2.16015e-06 0.000906311 -8.20912e-05)
(-1.24149e-06 0.000906517 -8.17728e-05)
(-3.47e-07 0.000906324 -8.09515e-05)
(4.79251e-07 0.000905574 -7.96521e-05)
(1.19897e-06 0.000904099 -7.792e-05)
(1.77236e-06 0.000901568 -7.58101e-05)
(2.17586e-06 0.000897619 -7.33921e-05)
(2.38908e-06 0.000891693 -7.07378e-05)
(2.40449e-06 0.00088315 -6.79236e-05)
(2.22554e-06 0.00087109 -6.50157e-05)
(1.87346e-06 0.000854435 -6.20681e-05)
(1.37514e-06 0.000831709 -5.91029e-05)
(7.82726e-07 0.00080108 -5.60978e-05)
(1.51264e-07 0.000760069 -5.29657e-05)
(-4.21491e-07 0.000705494 -4.95219e-05)
(-7.99078e-07 0.000633071 -4.54213e-05)
(-8.52989e-07 0.000537196 -3.98944e-05)
(-9.53459e-07 0.000328757 -2.64837e-05)
(1.03633e-06 0.000342328 -3.23793e-05)
(7.89431e-07 0.000558146 -4.83558e-05)
(6.36765e-07 0.00065764 -5.47225e-05)
(4.59821e-08 0.000732652 -5.93702e-05)
(-7.93674e-07 0.000789071 -6.32268e-05)
(-1.71328e-06 0.000831341 -6.66686e-05)
(-2.61758e-06 0.000862839 -6.99101e-05)
(-3.42343e-06 0.000886115 -7.30547e-05)
(-4.08281e-06 0.000903147 -7.61439e-05)
(-4.55253e-06 0.000915432 -7.91583e-05)
(-4.81168e-06 0.000924164 -8.20539e-05)
(-4.84799e-06 0.000930237 -8.47611e-05)
(-4.6659e-06 0.000934386 -8.72099e-05)
(-4.27672e-06 0.000937142 -8.93235e-05)
(-3.71135e-06 0.000938948 -9.10378e-05)
(-3.00112e-06 0.000940093 -9.22924e-05)
(-2.18347e-06 0.000940808 -9.30478e-05)
(-1.30505e-06 0.000941197 -9.32739e-05)
(-4.12468e-07 0.000941318 -9.29653e-05)
(4.48574e-07 0.000941104 -9.21278e-05)
(1.2339e-06 0.000940448 -9.07923e-05)
(1.89987e-06 0.000939108 -8.89988e-05)
(2.4157e-06 0.00093679 -8.68079e-05)
(2.75105e-06 0.000933043 -8.42843e-05)
(2.88891e-06 0.000927329 -8.15048e-05)
(2.82242e-06 0.000918907 -7.85391e-05)
(2.5616e-06 0.000906874 -7.54564e-05)
(2.12101e-06 0.00089003 -7.2299e-05)
(1.54131e-06 0.00086687 -6.90849e-05)
(8.67313e-07 0.000835405 -6.57698e-05)
(1.69037e-07 0.000793077 -6.22448e-05)
(-4.59314e-07 0.000736498 -5.82711e-05)
(-8.60604e-07 0.000661209 -5.34264e-05)
(-8.94116e-07 0.000561305 -4.68168e-05)
(-1.05496e-06 0.000343906 -3.08755e-05)
(9.00843e-07 0.000359706 -3.10799e-05)
(5.4848e-07 0.000584849 -4.602e-05)
(3.76174e-07 0.000688541 -5.20164e-05)
(-2.20991e-07 0.000766576 -5.64483e-05)
(-1.02919e-06 0.000825079 -6.01695e-05)
(-1.89882e-06 0.000868742 -6.35334e-05)
(-2.73222e-06 0.000901075 -6.67286e-05)
(-3.46919e-06 0.000924789 -6.98522e-05)
(-4.05295e-06 0.000941937 -7.29307e-05)
(-4.44908e-06 0.000954135 -7.59463e-05)
(-4.63558e-06 0.000962614 -7.8845e-05)
(-4.6055e-06 0.000968362 -8.15624e-05)
(-4.36238e-06 0.000972127 -8.40203e-05)
(-3.92102e-06 0.000974513 -8.61483e-05)
(-3.3093e-06 0.000975963 -8.78751e-05)
(-2.55643e-06 0.000976823 -8.91466e-05)
(-1.7045e-06 0.000977311 -8.99168e-05)
(-7.98431e-07 0.000977572 -9.01617e-05)
(1.1792e-07 0.000977638 -8.98694e-05)
(9.96717e-07 0.000977472 -8.90521e-05)
(1.79323e-06 0.000976925 -8.77335e-05)
(2.47091e-06 0.000975774 -8.59601e-05)
(2.99092e-06 0.000973669 -8.37861e-05)
(3.33053e-06 0.000970162 -8.12824e-05)
(3.4701e-06 0.000964645 -7.852e-05)
(3.40238e-06 0.000956365 -7.55762e-05)
(3.13483e-06 0.00094433 -7.25151e-05)
(2.68764e-06 0.000927304 -6.93897e-05)
(2.09108e-06 0.000903668 -6.62168e-05)
(1.39444e-06 0.000871363 -6.29679e-05)
(6.60516e-07 0.000827672 -5.95419e-05)
(-1.96777e-08 0.000769079 -5.57346e-05)
(-5.04548e-07 0.000690887 -5.11617e-05)
(-6.05894e-07 0.000586958 -4.49927e-05)
(-9.08671e-07 0.000360596 -3.00492e-05)
(5.79486e-07 0.000375904 -2.63032e-05)
(7.54006e-08 0.000608717 -3.76091e-05)
(-2.11757e-07 0.000715878 -4.2083e-05)
(-8.93561e-07 0.000796391 -4.5517e-05)
(-1.71625e-06 0.000856612 -4.85781e-05)
(-2.5517e-06 0.000901392 -5.14827e-05)
(-3.32669e-06 0.000934391 -5.43486e-05)
(-3.98419e-06 0.000958415 -5.72224e-05)
(-4.4829e-06 0.000975623 -6.01082e-05)
(-4.78649e-06 0.000987686 -6.2966e-05)
(-4.88185e-06 0.000995916 -6.5737e-05)
(-4.76133e-06 0.00100133 -6.83456e-05)
(-4.43124e-06 0.00100475 -7.0717e-05)
(-3.91054e-06 0.00100678 -7.27738e-05)
(-3.22252e-06 0.00100792 -7.445e-05)
(-2.39988e-06 0.00100852 -7.56867e-05)
(-1.48508e-06 0.00100883 -7.64433e-05)
(-5.18394e-07 0.00100898 -7.6691e-05)
(4.54838e-07 0.00100904 -7.64227e-05)
(1.38949e-06 0.00100895 -7.56455e-05)
(2.24144e-06 0.00100855 -7.43879e-05)
(2.97058e-06 0.00100761 -7.26903e-05)
(3.54474e-06 0.00100577 -7.06119e-05)
(3.93547e-06 0.00100252 -6.8218e-05)
(4.12679e-06 0.000997261 -6.5586e-05)
(4.10963e-06 0.000989165 -6.27905e-05)
(3.8893e-06 0.000977212 -5.99064e-05)
(3.48042e-06 0.000960089 -5.69914e-05)
(2.91344e-06 0.000936122 -5.40848e-05)
(2.22842e-06 0.00090315 -5.11813e-05)
(1.47893e-06 0.000858362 -4.82307e-05)
(7.38592e-07 0.000798096 -4.51043e-05)
(1.31201e-07 0.000717498 -4.15632e-05)
(-1.09573e-07 0.000610207 -3.69559e-05)
(-5.81885e-07 0.000376381 -2.56149e-05)
(1.92981e-07 0.000389404 -1.98794e-05)
(-4.72161e-07 0.000627517 -2.62122e-05)
(-9.20465e-07 0.000737062 -2.85556e-05)
(-1.71588e-06 0.000819262 -3.05782e-05)
(-2.57382e-06 0.000880612 -3.26887e-05)
(-3.39132e-06 0.000926089 -3.49244e-05)
(-4.11379e-06 0.000959439 -3.72938e-05)
(-4.69733e-06 0.000983559 -3.97856e-05)
(-5.10743e-06 0.00100067 -4.23635e-05)
(-5.31926e-06 0.00101249 -4.49672e-05)
(-5.31836e-06 0.0010204 -4.75219e-05)
(-5.10216e-06 0.00102545 -4.99482e-05)
(-4.68098e-06 0.00102848 -5.2165e-05)
(-4.07217e-06 0.00103015 -5.40968e-05)
(-3.30062e-06 0.00103097 -5.56753e-05)
(-2.39872e-06 0.00103133 -5.68448e-05)
(-1.40801e-06 0.00103146 -5.75632e-05)
(-3.67517e-07 0.00103154 -5.78043e-05)
(6.78338e-07 0.00103161 -5.75595e-05)
(1.6814e-06 0.00103162 -5.68374e-05)
(2.6047e-06 0.0010314 -5.56634e-05)
(3.40569e-06 0.00103072 -5.40799e-05)
(4.05154e-06 0.00102917 -5.21421e-05)
(4.51789e-06 0.00102625 -4.99181e-05)
(4.78314e-06 0.00102131 -4.74831e-05)
(4.83848e-06 0.0010135 -4.49175e-05)
(4.68596e-06 0.00100175 -4.23007e-05)
(4.33829e-06 0.000984706 -3.97062e-05)
(3.81774e-06 0.000960631 -3.71936e-05)
(3.15938e-06 0.000927306 -3.47976e-05)
(2.40429e-06 0.000881834 -3.25275e-05)
(1.60404e-06 0.000820468 -3.03654e-05)
(8.60176e-07 0.000738228 -2.82572e-05)
(4.47276e-07 0.000628619 -2.58039e-05)
(-1.97793e-07 0.000389623 -1.94189e-05)
(-1.73969e-07 0.000399437 -1.34887e-05)
(-9.63378e-07 0.000640339 -1.47258e-05)
(-1.57276e-06 0.000751124 -1.48678e-05)
(-2.48176e-06 0.000834153 -1.54175e-05)
(-3.37952e-06 0.000896001 -1.65266e-05)
(-4.185e-06 0.000941698 -1.80448e-05)
(-4.86461e-06 0.000975056 -1.98726e-05)
(-5.38699e-06 0.000999009 -2.19369e-05)
(-5.72228e-06 0.00101583 -2.41635e-05)
(-5.85219e-06 0.00102728 -2.64701e-05)
(-5.76643e-06 0.00103476 -2.87689e-05)
(-5.46586e-06 0.00103937 -3.09747e-05)
(-4.96156e-06 0.00104197 -3.30032e-05)
(-4.27326e-06 0.00104325 -3.47798e-05)