/*--------------------------------*- C++ -*----------------------------------*\
| =========                 |                                                 |
| \\      /  F ield         | OpenFOAM: The Open Source CFD Toolbox           |
|  \\    /   O peration     | Version:  v1906                                 |
|   \\  /    A nd           | Web:      www.OpenFOAM.com                      |
|    \\/     M anipulation  |                                                 |
\*---------------------------------------------------------------------------*/
FoamFile
{
    version     2.0;
    format      ascii;
    class       volVectorField;
    location    "56";
    object      U;
}
// * * * * * * * * * * * * * * * * * * * * * * * * * * * * * * * * * * * * * //

dimensions      [0 1 -1 0 0 0 0];


internalField   nonuniform List<vector> 
78750
(
(-0.614379 -0.306789 -0.177563)
(-0.537613 -0.273607 -0.173048)
(-0.519567 -0.225472 -0.160895)
(-0.443441 -0.179373 -0.147606)
(-0.360897 -0.134161 -0.131581)
(-0.318958 -0.117392 -0.120689)
(-0.299813 -0.0977874 -0.115489)
(-0.256499 -0.0900545 -0.104102)
(-0.23405 -0.079661 -0.092918)
(-0.198495 -0.0777103 -0.0815604)
(-0.179937 -0.070674 -0.0773492)
(-0.15608 -0.0674357 -0.0726503)
(-0.141365 -0.062066 -0.0702747)
(-0.125135 -0.0583299 -0.0670684)
(-0.112151 -0.0546451 -0.0647272)
(-0.0995824 -0.0513073 -0.0622423)
(-0.0880735 -0.048431 -0.0600383)
(-0.0772971 -0.0457584 -0.0579065)
(-0.0670957 -0.0433783 -0.0558755)
(-0.0574463 -0.0412102 -0.0539112)
(-0.0482716 -0.0392324 -0.0519935)
(-0.0395448 -0.0374132 -0.0501019)
(-0.0312457 -0.0357225 -0.0482206)
(-0.023365 -0.0341298 -0.0463364)
(-0.0159041 -0.0326014 -0.0444393)
(-0.00887474 -0.0310965 -0.0425233)
(-0.00230147 -0.0295623 -0.0405879)
(0.00376089 -0.0279297 -0.0386381)
(0.00924566 -0.0260958 -0.0366816)
(0.0140431 -0.0239258 -0.0347206)
(0.0179993 -0.021208 -0.032715)
(0.0208245 -0.0176818 -0.0306202)
(0.0222862 -0.0122132 -0.0282067)
(0.0235934 0.0030215 -0.0247625)
(0.0135898 0.0766459 -0.0122602)
(0.0885863 -0.54399 0.040253)
(-0.122689 -0.402887 -0.0141117)
(-0.0458676 -0.403588 -0.053331)
(-0.0906914 -0.385158 -0.0770235)
(-0.100659 -0.284256 -0.0908813)
(-0.107448 -0.234602 -0.0931424)
(-0.108539 -0.184643 -0.100371)
(-0.107654 -0.155164 -0.102256)
(-0.103918 -0.131884 -0.104381)
(-0.100381 -0.113931 -0.105167)
(-0.0955372 -0.101241 -0.105184)
(-0.0906593 -0.0905228 -0.105112)
(-0.0851401 -0.0816599 -0.104705)
(-0.0794048 -0.0741561 -0.104235)
(-0.0733537 -0.0676964 -0.103605)
(-0.0670831 -0.0621202 -0.102864)
(-0.0606457 -0.0572579 -0.101987)
(-0.0540862 -0.0530028 -0.100961)
(-0.0474569 -0.049251 -0.0997593)
(-0.0408033 -0.0459163 -0.0983505)
(-0.0341716 -0.0429249 -0.0967028)
(-0.0276084 -0.0402109 -0.0947871)
(-0.0211618 -0.0377117 -0.0925782)
(-0.0148829 -0.0353627 -0.0900535)
(-0.00882638 -0.0330927 -0.0871943)
(-0.00305054 -0.0308182 -0.0839865)
(0.00235997 -0.0284342 -0.0804281)
(0.00732535 -0.0257976 -0.0765419)
(0.0117562 -0.022703 -0.0723974)
(0.0154921 -0.0188479 -0.0681183)
(0.0183206 -0.0137364 -0.0638085)
(0.0201006 -0.00627143 -0.0593029)
(0.0206072 0.00759508 -0.0537619)
(0.0177967 0.0516334 -0.0444597)
(0.00515406 0.197569 -0.0180543)
(-0.0414007 0.189538 -0.0233578)
(-0.0280475 0.0252005 -0.0130715)
(-0.0656706 -0.0272791 -0.0269662)
(-0.0570502 -0.0659826 -0.0449256)
(-0.0698309 -0.090158 -0.0617884)
(-0.0717392 -0.0945773 -0.0709861)
(-0.0736483 -0.0986669 -0.0740519)
(-0.0734841 -0.0950809 -0.0759363)
(-0.0719453 -0.0891055 -0.0770581)
(-0.0694398 -0.0836784 -0.0776077)
(-0.0662781 -0.0782765 -0.0777158)
(-0.0626485 -0.0730619 -0.0775196)
(-0.0586751 -0.0681435 -0.0771231)
(-0.0544338 -0.063535 -0.0765799)
(-0.0499827 -0.0592185 -0.0759331)
(-0.0453773 -0.0551836 -0.0752052)
(-0.0406601 -0.0514154 -0.0744055)
(-0.0358675 -0.047891 -0.073533)
(-0.0310326 -0.0445823 -0.0725791)
(-0.0261865 -0.0414542 -0.0715266)
(-0.0213607 -0.0384619 -0.0703507)
(-0.0165884 -0.0355491 -0.0690187)
(-0.011907 -0.0326451 -0.0674893)
(-0.00735958 -0.0296617 -0.0657113)
(-0.00299862 -0.0264893 -0.0636224)
(0.00110689 -0.0229914 -0.0611465)
(0.00488039 -0.0189958 -0.0581901)
(0.00823312 -0.0142804 -0.0546399)
(0.0110444 -0.00854516 -0.0503658)
(0.0131817 -0.00131944 -0.0452282)
(0.0145496 0.00837482 -0.0390042)
(0.0151245 0.023576 -0.0311303)
(0.014607 0.0579269 -0.021228)
(0.0121815 0.167305 -0.018484)
(0.00307821 0.300116 -0.0107074)
(0.0082824 -0.130799 0.0265784)
(0.0150502 -0.231343 0.0299155)
(0.00812375 -0.252444 0.0244433)
(-0.00014104 -0.232324 0.0166275)
(-0.00724052 -0.165055 -0.00319971)
(-0.0102628 -0.119686 -0.0256224)
(-0.0109375 -0.103683 -0.0407484)
(-0.0118342 -0.097567 -0.0502694)
(-0.0127245 -0.0924166 -0.057075)
(-0.0135309 -0.0863518 -0.0622212)
(-0.0140629 -0.0802307 -0.0659669)
(-0.0141656 -0.0747325 -0.0685384)
(-0.0138092 -0.069791 -0.0702073)
(-0.0130365 -0.0651923 -0.0711934)
(-0.0119143 -0.0608572 -0.071649)
(-0.0105018 -0.0567791 -0.0716805)
(-0.0088461 -0.052944 -0.0713659)
(-0.0069787 -0.0493119 -0.0707616)
(-0.00492113 -0.0458377 -0.0699113)
(-0.00268781 -0.0424732 -0.0688497)
(-0.000292517 -0.0391624 -0.0676021)
(0.00224581 -0.0358378 -0.0661857)
(0.00490034 -0.0324138 -0.0646085)
(0.00763343 -0.0287807 -0.0628692)
(0.0103947 -0.0247997 -0.0609549)
(0.0131176 -0.0203006 -0.058838)
(0.0156984 -0.0150865 -0.0564719)
(0.0179944 -0.00892998 -0.0537754)
(0.0198013 -0.00155997 -0.0506153)
(0.0208525 0.00738365 -0.0467819)
(0.0208775 0.0184589 -0.0419271)
(0.0197045 0.0333179 -0.0351848)
(0.0162841 0.0614077 -0.0235996)
(0.010008 0.171303 -0.00780632)
(0.00193826 0.33022 -0.000263062)
(-0.000839147 -0.0276007 0.0284757)
(-0.00434678 -0.0029106 0.0145287)
(-0.00677575 -0.00769203 0.00690886)
(-0.00765515 -0.0265732 0.00422457)
(-0.00380757 -0.0639165 0.00743605)
(0.00358341 -0.0803728 0.0092577)
(0.0105654 -0.0765575 0.00684993)
(0.0154423 -0.0635991 0.000100852)
(0.016899 -0.0508108 -0.00923541)
(0.0156856 -0.0425843 -0.0182615)
(0.0132907 -0.0385744 -0.0254762)
(0.0106821 -0.0367473 -0.0308824)
(0.00829656 -0.0355371 -0.0349348)
(0.00629694 -0.0342516 -0.0379801)
(0.00469098 -0.0327376 -0.0402056)
(0.00344908 -0.0310332 -0.0417152)
(0.00253921 -0.0291793 -0.0425994)
(0.0019419 -0.027279 -0.0429514)
(0.00164672 -0.0254749 -0.042865)
(0.00163513 -0.0237968 -0.0424224)
(0.00189006 -0.0221738 -0.0416943)
(0.00240149 -0.0204856 -0.0407448)
(0.00316743 -0.0185726 -0.0396329)
(0.00419273 -0.0162287 -0.0384124)
(0.00548031 -0.0131906 -0.0371306)
(0.00697983 -0.00909665 -0.035815)
(0.00865088 -0.00336003 -0.0343896)
(0.010508 0.00477998 -0.0327347)
(0.0124412 0.0159611 -0.0308638)
(0.0142491 0.0309054 -0.0288714)
(0.0156711 0.0515957 -0.0267232)
(0.0163612 0.0843708 -0.0239575)
(0.0146468 0.15152 -0.0179989)
(0.00843831 0.282386 -0.00572344)
(0.000369946 0.392263 0.00253553)
(0.000199258 -0.154599 0.0447414)
(0.0072977 -0.251378 0.0531302)
(0.0172019 -0.285381 0.0518566)
(0.0263851 -0.29855 0.0520925)
(0.0343165 -0.29558 0.0548814)
(0.0405719 -0.275761 0.0606022)
(0.0459526 -0.234576 0.0679584)
(0.0505887 -0.176112 0.0709375)
(0.054084 -0.117517 0.0645362)
(0.0559447 -0.0738122 0.0502553)
(0.055924 -0.0483959 0.0334115)
(0.0542246 -0.0359423 0.0180509)
(0.0513299 -0.0297992 0.00537661)
(0.0477403 -0.0258047 -0.00475532)
(0.0439679 -0.0224068 -0.0126157)
(0.0403678 -0.0195889 -0.0184202)
(0.0370832 -0.0174924 -0.0224381)
(0.0341453 -0.0159608 -0.0250011)
(0.0315418 -0.0147392 -0.0263963)
(0.0292193 -0.0136473 -0.0268214)
(0.0271062 -0.0126663 -0.0264167)
(0.0251564 -0.0118537 -0.0253226)
(0.0233409 -0.011182 -0.0236802)
(0.0216497 -0.0105193 -0.021619)
(0.0200942 -0.00964824 -0.0192672)
(0.0186924 -0.00826261 -0.016757)
(0.0175067 -0.0059255 -0.0142318)
(0.0166652 -0.00204704 -0.0118211)
(0.0161607 0.00447295 -0.00925729)
(0.0159643 0.0156202 -0.00629478)
(0.0160473 0.0343512 -0.00336749)
(0.0161383 0.0688508 -0.00176837)
(0.014668 0.146402 -0.00342322)
(0.00905951 0.307107 -0.000422126)
(0.000984915 0.417901 0.00521171)
(-0.00251946 -0.124098 0.0139764)
(-0.00564728 -0.202428 -0.00527091)
(-0.00621858 -0.231734 -0.015778)
(-0.00612051 -0.243574 -0.0207792)
(-0.00559833 -0.246072 -0.0222505)
(-0.00408726 -0.240407 -0.0202169)
(-0.000341939 -0.224173 -0.0133598)
(0.00673463 -0.194469 -0.00238312)
(0.0164843 -0.153608 0.0089113)
(0.0273191 -0.108201 0.0175699)
(0.0376627 -0.0651069 0.0223326)
(0.0461131 -0.0296341 0.0228058)
(0.051671 -0.00494995 0.0193136)
(0.0540789 0.00907326 0.0132487)
(0.0539982 0.0160066 0.00621053)
(0.0521322 0.019424 -0.00102821)
(0.0490233 0.0209696 -0.00791798)
(0.0454698 0.021281 -0.0137683)
(0.0419954 0.0209909 -0.0182402)
(0.0387658 0.0207257 -0.0213261)
(0.0358375 0.0207718 -0.0231525)
(0.033213 0.0210995 -0.0238481)
(0.0308449 0.0215448 -0.0235215)
(0.0286383 0.0220136 -0.0222859)
(0.0265145 0.0225896 -0.0202502)
(0.0243758 0.0235106 -0.0174317)
(0.022142 0.0249997 -0.0138498)
(0.0198365 0.0274033 -0.00970678)
(0.0175909 0.0315371 -0.0051591)
(0.0155158 0.0389338 -2.78269e-05)
(0.013637 0.0540197 0.00629349)
(0.0121597 0.0943756 0.0136156)
(0.0108629 0.213151 0.0140024)
(0.00643227 0.385981 0.00747283)
(1.00843e-06 0.457304 0.0066622)
(-0.00185061 -0.134645 0.0109489)
(0.00287147 -0.263644 0.00966439)
(0.00947705 -0.316925 0.00913295)
(0.0159463 -0.340276 0.00771997)
(0.0215215 -0.350357 0.00509471)
(0.0263693 -0.352158 0.00112332)
(0.0305144 -0.345989 -0.00432472)
(0.0341028 -0.329854 -0.0102402)
(0.0377615 -0.301902 -0.0140603)
(0.0422547 -0.263399 -0.0136696)
(0.0479439 -0.217821 -0.00858459)
(0.0546271 -0.168455 0.000407977)
(0.0616069 -0.117783 0.0116623)
(0.0678644 -0.0683107 0.0228804)
(0.0722813 -0.0242969 0.0310815)
(0.0738553 0.00792659 0.0336342)
(0.0725435 0.0260983 0.030747)
(0.0692057 0.0351853 0.0246488)
(0.0645005 0.0397776 0.0168411)
(0.0592358 0.0412655 0.00848849)
(0.0542395 0.0405722 0.000886762)
(0.0496137 0.0390195 -0.00520421)
(0.0453882 0.0376542 -0.00961825)
(0.041633 0.0369858 -0.0125223)
(0.038234 0.0371281 -0.0141502)
(0.0350433 0.0380027 -0.0146526)
(0.0319958 0.0395519 -0.0141496)
(0.0288842 0.0419762 -0.0126575)
(0.0255107 0.0456817 -0.0100985)
(0.0219599 0.0514269 -0.00640355)
(0.018282 0.0616919 -0.00104716)
(0.0140604 0.0888772 0.00780471)
(0.0102364 0.199228 0.0189233)
(0.00701786 0.407806 0.0167241)
(0.00114051 0.476186 0.0113697)
(0.0021963 -0.149607 0.000453894)
(0.0158363 -0.283055 0.00414475)
(0.0278877 -0.332904 0.00693997)
(0.0375263 -0.348275 0.00823273)
(0.0448053 -0.348478 0.00799256)
(0.0502732 -0.338307 0.00591587)
(0.0535726 -0.317594 0.00112738)
(0.0540691 -0.287716 -0.00736839)
(0.0519266 -0.253547 -0.0196548)
(0.0482455 -0.219848 -0.0339712)
(0.0443845 -0.189141 -0.0462263)
(0.0415892 -0.160726 -0.0523172)
(0.0407442 -0.131572 -0.0506438)
(0.0422898 -0.0987926 -0.0415912)
(0.0459682 -0.0608118 -0.0268289)
(0.0507399 -0.0175718 -0.00914572)
(0.0548876 0.0258988 0.00657753)
(0.0560549 0.056772 0.0140861)
(0.0548538 0.0710421 0.0139233)
(0.0527017 0.0778785 0.0106494)
(0.0496589 0.0812672 0.00578983)
(0.0460779 0.0817477 -4.54126e-05)
(0.0423724 0.0797989 -0.00589543)
(0.0387967 0.0768729 -0.0107375)
(0.0353929 0.0744748 -0.0141709)
(0.0321708 0.0734585 -0.0162742)
(0.0290656 0.074206 -0.0172358)
(0.0259443 0.0769686 -0.0171319)
(0.0226749 0.0820239 -0.0159106)
(0.0192416 0.0900923 -0.0133725)
(0.0156069 0.103832 -0.00884113)
(0.0113271 0.136022 4.61957e-05)
(0.00637249 0.246319 0.0158515)
(0.00363887 0.447943 0.0209976)
(0.0002775 0.496896 0.014546)
(0.00507029 -0.24138 0.0104421)
(0.0167199 -0.396482 0.0239311)
(0.025403 -0.437577 0.0263431)
(0.0322652 -0.443712 0.0257746)
(0.0381049 -0.435912 0.0238878)
(0.0427982 -0.415891 0.0200111)
(0.0453267 -0.381263 0.0133962)
(0.0446947 -0.333701 0.00525359)
(0.0411483 -0.278315 -0.00312699)
(0.0360239 -0.221314 -0.0141747)
(0.0304697 -0.171929 -0.0296724)
(0.0256079 -0.137173 -0.0447839)
(0.0223708 -0.114875 -0.0542284)
(0.0207574 -0.0977203 -0.057645)
(0.0206437 -0.0791761 -0.0554855)
(0.0225097 -0.0538112 -0.0462401)
(0.0264522 -0.018732 -0.029628)
(0.0309004 0.0224455 -0.0105986)
(0.033359 0.056955 0.00251491)
(0.0337882 0.0751758 0.0066027)
(0.0335159 0.0844922 0.00624595)
(0.0328705 0.0900114 0.00390838)
(0.0318078 0.0928568 0.000358541)
(0.0303328 0.0936969 -0.00368521)
(0.0285055 0.0935647 -0.00757301)
(0.0264153 0.0935137 -0.010828)
(0.0241262 0.0944221 -0.0131655)
(0.0217652 0.0969309 -0.0144685)
(0.0192961 0.101553 -0.014735)
(0.0165634 0.109263 -0.0137482)
(0.013591 0.122501 -0.0108895)
(0.0101937 0.152558 -0.00408381)
(0.00593803 0.257313 0.0115105)
(0.00319742 0.460654 0.0224431)
(0.00078682 0.504488 0.0169235)
(0.00221803 -0.296278 0.0173097)
(0.00110413 -0.41462 0.0245392)
(0.000516676 -0.429418 0.0235466)
(0.000472586 -0.424351 0.020791)
(0.00122081 -0.406 0.0155382)
(0.00290637 -0.36786 0.00523655)
(0.00509545 -0.308117 -0.0116242)
(0.00648362 -0.242657 -0.0304096)
(0.00640035 -0.186669 -0.044556)
(0.00572943 -0.143251 -0.0526005)
(0.00554739 -0.111258 -0.0573716)
(0.00598735 -0.0899983 -0.0607193)
(0.00664807 -0.075971 -0.0628155)
(0.00729106 -0.0647549 -0.063637)
(0.0079276 -0.0530611 -0.0628055)
(0.0086913 -0.0377441 -0.0588855)
(0.00988645 -0.0145081 -0.0488696)
(0.011826 0.0186194 -0.0319404)
(0.0139027 0.0530647 -0.0153363)
(0.0153377 0.0759942 -0.00633802)
(0.0162341 0.0875101 -0.00372676)
(0.0168755 0.0949695 -0.00366077)
(0.0173756 0.100752 -0.00498385)
(0.0175936 0.105 -0.00722187)
(0.0174612 0.108158 -0.00985875)
(0.0169714 0.110926 -0.0124202)
(0.0161343 0.114051 -0.0145414)
(0.0150325 0.118208 -0.0159927)
(0.0136709 0.124284 -0.0166626)
(0.0119676 0.133732 -0.0162699)
(0.00996447 0.149465 -0.014133)
(0.00760667 0.183433 -0.00812294)
(0.00413318 0.288979 0.00704359)
(0.00170203 0.477047 0.0205828)
(0.000333055 0.510707 0.0169613)
(-0.00478294 -0.269587 0.0218217)
(-0.0106713 -0.40851 0.027427)
(-0.0123981 -0.441738 0.0288332)
(-0.0124465 -0.447746 0.0296417)
(-0.0112432 -0.43941 0.0302105)
(-0.00781113 -0.412248 0.0293892)
(-0.00121026 -0.360408 0.0240531)
(0.00764934 -0.289978 0.0114548)
(0.015892 -0.218165 -0.00699151)
(0.0208741 -0.16212 -0.0251339)
(0.0225944 -0.124712 -0.0377636)
(0.022466 -0.0993264 -0.0449191)
(0.0216001 -0.0801871 -0.0486032)
(0.0204849 -0.0638555 -0.0501096)
(0.0192699 -0.0477025 -0.0497457)
(0.0179831 -0.0290143 -0.046897)
(0.0166698 -0.00488182 -0.0400706)
(0.0155787 0.0255287 -0.0287027)
(0.0149752 0.0557117 -0.0170458)
(0.0147539 0.0766808 -0.010216)
(0.0146936 0.0883953 -0.00793273)
(0.0147689 0.0958901 -0.00782286)
(0.0149117 0.102053 -0.00878316)
(0.0150676 0.107567 -0.010451)
(0.015134 0.112496 -0.0125116)
(0.0150478 0.117158 -0.0146412)
(0.0147529 0.121985 -0.0165597)
(0.0142147 0.127591 -0.0180664)
(0.0133821 0.135009 -0.0189803)
(0.0121957 0.145649 -0.0190139)
(0.0106989 0.162328 -0.0175566)
(0.00890122 0.197624 -0.012472)
(0.00554437 0.307827 0.00241982)
(0.00249005 0.489405 0.0171928)
(0.000619743 0.515163 0.0155326)
(-0.00266988 -0.236284 0.00691947)
(-0.000631507 -0.402338 0.00304884)
(0.00203373 -0.452413 0.0023507)
(0.00579704 -0.467417 0.00335513)
(0.00978091 -0.468599 0.00584817)
(0.0142427 -0.458683 0.0106794)
(0.0193424 -0.431417 0.0185779)
(0.025434 -0.373014 0.0270876)
(0.0323548 -0.280701 0.0282736)
(0.0384493 -0.179254 0.0146839)
(0.0405314 -0.103 -0.00682394)
(0.0387694 -0.0599597 -0.0242037)
(0.0355085 -0.0371883 -0.0344554)
(0.0320993 -0.0222872 -0.039691)
(0.0288633 -0.00886328 -0.0415438)
(0.0258452 0.0064952 -0.0403155)
(0.0230446 0.0262833 -0.0354347)
(0.0206083 0.0506434 -0.0269898)
(0.0188404 0.0742967 -0.0181385)
(0.0178284 0.0907108 -0.0126669)
(0.0172736 0.100053 -0.0106787)
(0.0169363 0.106429 -0.0104589)
(0.0167011 0.112035 -0.0111595)
(0.0165294 0.117382 -0.0124828)
(0.0163916 0.122609 -0.0141793)
(0.0162379 0.127937 -0.0160013)
(0.0159859 0.13385 -0.0177755)
(0.0155544 0.141072 -0.0193403)
(0.0148557 0.15038 -0.020487)
(0.0138329 0.162907 -0.0209534)
(0.0125045 0.181861 -0.0201887)
(0.0109346 0.221037 -0.0161123)
(0.00734718 0.338394 -0.0019567)
(0.00376874 0.509417 0.0128453)
(0.00106723 0.525163 0.0132033)
(0.00239907 -0.272105 -0.00167957)
(0.0110599 -0.45461 -0.0034243)
(0.016839 -0.507659 -0.00521277)
(0.0211483 -0.519641 -0.00659049)
(0.024763 -0.515367 -0.00787263)
(0.0274971 -0.497311 -0.00922099)
(0.0283492 -0.462459 -0.00984214)
(0.0264119 -0.409528 -0.00532597)
(0.0230339 -0.332634 0.00867447)
(0.021949 -0.227328 0.0184494)
(0.0219484 -0.123095 0.00949988)
(0.0205363 -0.0514807 -0.00833627)
(0.0186315 -0.0128904 -0.0223168)
(0.0171013 0.00771589 -0.0300384)
(0.0158585 0.022215 -0.0335822)
(0.0147347 0.0366507 -0.0340571)
(0.0137149 0.0542995 -0.0310962)
(0.0130014 0.0747855 -0.0249995)
(0.0128263 0.0924985 -0.0188622)
(0.0131097 0.103571 -0.0153731)
(0.013557 0.110646 -0.0139606)
(0.0140681 0.116309 -0.013687)
(0.0145703 0.12148 -0.0141862)
(0.0150514 0.126479 -0.0152459)
(0.015524 0.131569 -0.0166537)
(0.0159351 0.136994 -0.0182121)
(0.0162508 0.143335 -0.0197634)
(0.0164089 0.151328 -0.0211963)
(0.0163004 0.161551 -0.022352)
(0.0158395 0.175075 -0.0230009)
(0.0149849 0.195136 -0.0226616)
(0.013695 0.236309 -0.0193933)
(0.00974643 0.363493 -0.00608499)
(0.00557621 0.532541 0.00836977)
(0.00162218 0.541102 0.0103615)
(0.00433072 -0.320939 0.000125036)
(0.00954431 -0.484345 -0.00170454)
(0.0117446 -0.519348 -0.00354869)
(0.0124612 -0.522054 -0.00440145)
(0.0126938 -0.509917 -0.00495373)
(0.0124165 -0.478876 -0.00585158)
(0.0111356 -0.416968 -0.00918057)
(0.00771158 -0.329996 -0.0161103)
(0.0011945 -0.243234 -0.0178571)
(-0.00514159 -0.158643 -0.012011)
(-0.0082868 -0.0788291 -0.0131382)
(-0.00873619 -0.0237288 -0.0216539)
(-0.00776291 0.00538089 -0.028464)
(-0.00621234 0.0218562 -0.0318794)
(-0.004405 0.0349418 -0.0332126)
(-0.00249648 0.048908 -0.0327428)
(-0.000567381 0.0656146 -0.0298656)
(0.00143715 0.0835765 -0.0248008)
(0.00356734 0.0980057 -0.0200753)
(0.00554468 0.107402 -0.0173482)
(0.0074012 0.114248 -0.0160758)
(0.00922317 0.1202 -0.0157273)
(0.0109608 0.125744 -0.0161185)
(0.0126016 0.131125 -0.0170824)
(0.0141316 0.13664 -0.0184198)
(0.0155491 0.14279 -0.019957)
(0.0168724 0.150222 -0.0215629)
(0.0180345 0.159573 -0.0231394)
(0.018946 0.171676 -0.0245555)
(0.019463 0.18796 -0.0256005)
(0.0194032 0.212558 -0.0257798)
(0.0182278 0.263435 -0.0229781)
(0.0124175 0.405922 -0.0103524)
(0.00665514 0.5719 0.00328443)
(0.00159405 0.567779 0.00624909)
(-3.07055e-07 -0.348738 0.0043337)
(-0.00326584 -0.495316 -0.00261255)
(-0.00574914 -0.521338 -0.00420535)
(-0.00807685 -0.522204 -0.00353001)
(-0.0104544 -0.509026 -0.00132003)
(-0.0127322 -0.476092 0.00265903)
(-0.0139795 -0.411698 0.0074045)
(-0.013004 -0.315862 0.00723243)
(-0.0115124 -0.214336 -0.000564749)
(-0.0113523 -0.131389 -0.00897475)
(-0.01126 -0.0698117 -0.0160415)
(-0.010194 -0.0291565 -0.0222474)
(-0.0084034 -0.00451051 -0.0262678)
(-0.00645893 0.0123266 -0.0283481)
(-0.00449662 0.026846 -0.0290312)
(-0.00240693 0.0420504 -0.028299)
(-0.000163201 0.0591029 -0.0258222)
(0.00219149 0.0765293 -0.0219167)
(0.00448746 0.0907889 -0.0182447)
(0.0065553 0.100795 -0.01596)
(0.00847285 0.108261 -0.0148661)
(0.0103599 0.114717 -0.0146228)
(0.0122686 0.120837 -0.0150525)
(0.0141703 0.126892 -0.01603)
(0.0160375 0.13318 -0.0174168)
(0.0178713 0.140151 -0.0190555)
(0.0196533 0.1484 -0.0208315)
(0.02134 0.158713 -0.0226517)
(0.0228218 0.172249 -0.0244117)
(0.0238734 0.191334 -0.025933)
(0.0240265 0.223085 -0.026709)
(0.0217366 0.2968 -0.0244572)
(0.0126144 0.469366 -0.0133465)
(0.00558107 0.620652 -0.00224967)
(0.00149817 0.595915 0.000389655)
(-0.00315085 -0.309041 -0.00530976)
(-0.00469951 -0.458483 -0.0141668)
(-0.00529673 -0.490848 -0.0157124)
(-0.00540378 -0.495532 -0.0159698)
(-0.00559428 -0.485943 -0.0155691)
(-0.00588414 -0.459645 -0.0140355)
(-0.00589014 -0.412704 -0.00977377)
(-0.00411767 -0.343404 -0.00173837)
(0.000990613 -0.251888 0.00518686)
(0.00775602 -0.15417 0.0046692)
(0.0126914 -0.0754195 -0.00260389)
(0.014426 -0.0271633 -0.0110739)
(0.0141882 -0.000790037 -0.0169297)
(0.0132769 0.0155308 -0.020289)
(0.0123163 0.028585 -0.02196)
(0.0117014 0.0417387 -0.0222016)
(0.0116328 0.0567004 -0.0208297)
(0.0121406 0.0732587 -0.0178126)
(0.0129782 0.0884581 -0.0142435)
(0.0137996 0.0994532 -0.0117135)
(0.0145246 0.106997 -0.0105084)
(0.0152462 0.11314 -0.010222)
(0.0160675 0.118967 -0.0106211)
(0.0169888 0.124807 -0.0115938)
(0.0180236 0.13107 -0.0130101)
(0.0191718 0.138313 -0.0147612)
(0.0204066 0.147166 -0.0167222)
(0.0216685 0.158569 -0.0187796)
(0.022833 0.174357 -0.0208223)
(0.0235915 0.19924 -0.0226716)
(0.0230098 0.247825 -0.0238078)
(0.0189889 0.360298 -0.0225732)
(0.00836725 0.554975 -0.0152031)
(0.00225284 0.662527 -0.00853671)
(0.00108714 0.620258 -0.00639713)
(0.00167274 -0.314864 -0.00813702)
(0.00900367 -0.484022 -0.00947269)
(0.013289 -0.522304 -0.00992184)
(0.0165039 -0.527083 -0.0103515)
(0.0190802 -0.516141 -0.0113314)
(0.0204466 -0.48778 -0.0137583)
(0.0195861 -0.440361 -0.0185737)
(0.016733 -0.383017 -0.0220081)
(0.0144957 -0.318268 -0.0158034)
(0.0159284 -0.232333 -0.00164838)
(0.0204144 -0.128141 0.0074177)
(0.0235696 -0.0401984 0.0039645)
(0.0231843 0.0106879 -0.00445467)
(0.0210769 0.0350629 -0.0109071)
(0.0190167 0.048326 -0.0146449)
(0.0173391 0.0583011 -0.0165101)
(0.0161324 0.0683617 -0.0168533)
(0.0154731 0.0799481 -0.0155611)
(0.01536 0.0926208 -0.0127688)
(0.0154849 0.103949 -0.00960129)
(0.0155622 0.112281 -0.0073047)
(0.0155206 0.118628 -0.00598284)
(0.0153742 0.124089 -0.00549994)
(0.015199 0.12925 -0.00579654)
(0.0150661 0.134712 -0.00673082)
(0.0149995 0.141182 -0.00816803)
(0.0150139 0.149461 -0.00998472)
(0.0151023 0.160669 -0.0120115)
(0.0151696 0.177536 -0.0140698)
(0.0149171 0.207975 -0.0159102)
(0.0134842 0.275647 -0.0169881)
(0.00937448 0.424789 -0.0167802)
(0.00197664 0.623296 -0.0143731)
(-0.00165495 0.689613 -0.0117456)
(-0.000627196 0.627804 -0.00954131)
(0.00606173 -0.376258 -0.00465999)
(0.0122942 -0.516522 -0.00817204)
(0.015129 -0.538785 -0.00964373)
(0.0161557 -0.533636 -0.00970303)
(0.0163549 -0.511177 -0.00901981)
(0.0152851 -0.465977 -0.0084222)
(0.0125995 -0.395283 -0.0122192)
(0.00790479 -0.318616 -0.023423)
(0.00196667 -0.260052 -0.0316256)
(-0.0029597 -0.20809 -0.0268777)
(-0.00467811 -0.135403 -0.0118831)
(-0.00366608 -0.0478362 -0.00311765)
(-0.00273354 0.0165965 -0.00578004)
(-0.00176853 0.0481403 -0.0108645)
(-0.000736161 0.062005 -0.0138089)
(0.000225221 0.0715278 -0.0154497)
(0.0011835 0.0804042 -0.0161361)
(0.00213792 0.0893967 -0.0157306)
(0.0031131 0.0988257 -0.0142131)
(0.00405708 0.108573 -0.0117425)
(0.00480439 0.117687 -0.00887868)
(0.00524273 0.125501 -0.00628104)
(0.00535321 0.132241 -0.00427612)
(0.00517734 0.138374 -0.00301271)
(0.00477087 0.144524 -0.00248967)
(0.00417058 0.151448 -0.00264471)
(0.0034174 0.160011 -0.00342724)
(0.00257772 0.17164 -0.00468162)
(0.00165037 0.189804 -0.00616731)
(0.000526151 0.224488 -0.00751946)
(-0.000837787 0.303328 -0.00799258)
(-0.00191131 0.469504 -0.00740137)
(-0.00364089 0.659905 -0.0075839)
(-0.00451268 0.701946 -0.00714951)
(-0.00216758 0.615476 -0.00519545)
(0.000921266 -0.412305 0.000836669)
(-0.00490504 -0.521825 -0.00819065)
(-0.00917191 -0.529685 -0.0104656)
(-0.0136725 -0.516346 -0.0100317)
(-0.0183046 -0.4847 -0.00725165)
(-0.0215948 -0.431315 -0.00241608)
(-0.0224817 -0.358663 0.00110008)
(-0.0218304 -0.27928 -0.00186139)
(-0.0223899 -0.211122 -0.00905301)
(-0.0246586 -0.154626 -0.0128611)
(-0.0271419 -0.0964656 -0.0108898)
(-0.0277008 -0.0339673 -0.00848466)
(-0.0263045 0.0120242 -0.0107123)
(-0.0237282 0.0364964 -0.0133636)
(-0.0209841 0.050893 -0.0148777)
(-0.0183732 0.0621231 -0.0156609)
(-0.0159799 0.0728808 -0.0158735)
(-0.0138284 0.0841294 -0.015409)
(-0.0119588 0.0959293 -0.0140887)
(-0.0103786 0.107674 -0.0119208)
(-0.00912126 0.11851 -0.00926141)
(-0.00819856 0.128021 -0.00658445)
(-0.00762094 0.136438 -0.00420663)
(-0.00738564 0.144289 -0.00227225)
(-0.00748722 0.152146 -0.00085007)
(-0.00791902 0.160594 3.82582e-06)
(-0.00866398 0.170368 0.000267335)
(-0.00967278 0.182763 3.14708e-05)
(-0.0108543 0.200914 -0.000479813)
(-0.0120252 0.233974 -0.000850547)
(-0.0124807 0.307758 -0.000117325)
(-0.0104415 0.46679 0.00260317)
(-0.00691241 0.655367 0.00400477)
(-0.00486547 0.688305 0.00407609)
(-0.00205062 0.592811 0.00440959)
(-0.00588151 -0.350701 -0.00268171)
(-0.015411 -0.46273 -0.01451)
(-0.0214601 -0.477051 -0.0164603)
(-0.0261357 -0.47208 -0.0154148)
(-0.029909 -0.453916 -0.0116409)
(-0.0309931 -0.420459 -0.00473882)
(-0.0286923 -0.368636 0.00467099)
(-0.023962 -0.299024 0.0133587)
(-0.0192113 -0.222075 0.0163091)
(-0.016399 -0.151322 0.0136252)
(-0.0154378 -0.0889294 0.00929294)
(-0.0150014 -0.0352886 0.00513388)
(-0.014182 0.00216525 0.000794959)
(-0.0134089 0.0245547 -0.00244245)
(-0.0129659 0.0398871 -0.00459139)
(-0.0125928 0.0528043 -0.00603922)
(-0.0121668 0.0653345 -0.00693699)
(-0.0116611 0.0781745 -0.00725303)
(-0.0110888 0.0912758 -0.00691422)
(-0.0104848 0.104168 -0.00594084)
(-0.00991616 0.116306 -0.00450716)
(-0.00946896 0.127422 -0.00287013)
(-0.0092158 0.137653 -0.00125113)
(-0.00919994 0.147411 0.000198464)
(-0.00944148 0.157216 0.00137072)
(-0.00994736 0.167643 0.00217897)
(-0.0107152 0.179392 0.00257279)
(-0.0117185 0.193582 0.00258246)
(-0.0128542 0.212698 0.00236988)
(-0.0138288 0.243677 0.00232957)
(-0.0138508 0.306518 0.00356153)
(-0.0111536 0.44285 0.00815454)
(-0.00573998 0.627057 0.0135905)
(-0.00248672 0.663722 0.0145965)
(-0.000672887 0.576479 0.0134847)
(-0.00333422 -0.31383 -0.00794438)
(-0.00615447 -0.451072 -0.0215921)
(-0.00837068 -0.478532 -0.0259307)
(-0.0097482 -0.484142 -0.0275276)
(-0.0108631 -0.479691 -0.027402)
(-0.0115091 -0.464272 -0.0246381)
(-0.0111372 -0.431878 -0.016876)
(-0.0086609 -0.37479 -0.00258682)
(-0.00370421 -0.294133 0.0140982)
(0.00203008 -0.205078 0.025184)
(0.0062743 -0.12406 0.0279434)
(0.00843475 -0.055943 0.0256532)
(0.00906393 -0.00522454 0.0209838)
(0.00787242 0.0249416 0.0160401)
(0.00556996 0.0424932 0.0122105)
(0.00318926 0.0550408 0.00943152)
(0.00109749 0.0662638 0.00735203)
(-0.000511482 0.0776086 0.00579845)
(-0.00159941 0.0894505 0.0047356)
(-0.00224885 0.101626 0.00415536)
(-0.00257458 0.113774 0.00399883)
(-0.0027225 0.125601 0.00414654)
(-0.00282783 0.137016 0.00445183)
(-0.00299022 0.148162 0.00477597)
(-0.00326905 0.159364 0.00499939)
(-0.00370091 0.17107 0.00502182)
(-0.00430916 0.183851 0.0047751)
(-0.00509071 0.198552 0.0042557)
(-0.00598949 0.216904 0.00357111)
(-0.00685375 0.243829 0.00302996)
(-0.00723143 0.294905 0.00363479)
(-0.00596262 0.410357 0.00838822)
(-0.00203744 0.591682 0.0175009)
(0.000462789 0.639707 0.0200646)
(0.000646373 0.567015 0.0186126)
(0.000717448 -0.310399 -0.0139696)
(0.00268729 -0.442126 -0.0254024)
(0.00333695 -0.466886 -0.0307808)
(0.00345137 -0.467945 -0.0350317)
(0.00295227 -0.457148 -0.0396882)
(0.00155292 -0.436608 -0.0443411)
(-0.000449426 -0.410121 -0.0462952)
(-0.00197499 -0.377733 -0.0412434)
(-0.00119544 -0.329211 -0.0253562)
(0.00318209 -0.255028 -0.00174846)
(0.00942189 -0.166424 0.0182464)
(0.0145193 -0.0836712 0.0281454)
(0.0173706 -0.0157458 0.0304328)
(0.0178615 0.0314585 0.0286549)
(0.0162715 0.0573609 0.025496)
(0.0137826 0.0707292 0.0225721)
(0.0111942 0.079436 0.0201735)
(0.00881164 0.087147 0.0181536)
(0.00686158 0.0952615 0.0164023)
(0.00545455 0.104222 0.0148856)
(0.00455929 0.114043 0.0135952)
(0.00407006 0.124583 0.0125088)
(0.0038575 0.135711 0.0115754)
(0.00379499 0.147387 0.0107203)
(0.0037712 0.159692 0.00985602)
(0.00369531 0.17286 0.00889017)
(0.00349721 0.187332 0.00773641)
(0.00312905 0.203903 0.00633688)
(0.00258716 0.224214 0.00470173)
(0.00193635 0.25252 0.0029965)
(0.00136569 0.301658 0.00205001)
(0.00106811 0.406365 0.00540215)
(0.00160491 0.576367 0.0159814)
(0.00242612 0.631248 0.020075)
(0.00169425 0.567878 0.0191492)
(0.00104838 -0.328518 -0.0105378)
(0.00287122 -0.457045 -0.013916)
(0.00423179 -0.478724 -0.0163893)
(0.00515715 -0.477789 -0.0196136)
(0.00598327 -0.46387 -0.0248089)
(0.00631759 -0.436138 -0.0328138)
(0.00559334 -0.399357 -0.0419439)
(0.00390428 -0.363492 -0.04816)
(0.00213054 -0.329767 -0.0476278)
(0.00195539 -0.286208 -0.0356787)
(0.0054139 -0.217821 -0.012239)
(0.0112569 -0.132716 0.010613)
(0.0162417 -0.0528788 0.0237104)
(0.019039 0.00976264 0.0284568)
(0.0194883 0.0509675 0.0287937)
(0.0182051 0.0734868 0.0274288)
(0.016257 0.0852662 0.0257759)
(0.0142524 0.0927206 0.0242281)
(0.0123928 0.0990042 0.0227755)
(0.010819 0.105496 0.0213686)
(0.00963107 0.112819 0.0199799)
(0.00885473 0.12126 0.0185901)
(0.00846352 0.130952 0.0171756)
(0.00839749 0.14199 0.0157021)
(0.00857126 0.154494 0.0141237)
(0.00887494 0.168632 0.0123891)
(0.00917271 0.184654 0.0104483)
(0.00931011 0.203019 0.00826088)
(0.00916253 0.224892 0.00580763)
(0.00872024 0.254072 0.00310755)
(0.00806106 0.303682 0.000575053)
(0.00678001 0.409957 0.00168255)
(0.00466859 0.577173 0.011649)
(0.00388341 0.63461 0.0163907)
(0.00240229 0.575553 0.0161738)
(0.000245837 -0.328667 -0.00977349)
(0.00229764 -0.454643 -0.00997866)
(0.00451213 -0.476664 -0.0112959)
(0.0064503 -0.4761 -0.0142255)
(0.00833227 -0.461846 -0.0197898)
(0.00966525 -0.431425 -0.0290795)
(0.00993164 -0.388044 -0.039956)
(0.0091973 -0.343351 -0.0483894)
(0.00788449 -0.305677 -0.052405)
(0.00654393 -0.272625 -0.0508872)
(0.00632793 -0.231991 -0.039872)
(0.00933271 -0.167911 -0.0171864)
(0.0146351 -0.0873347 0.00616602)
(0.0191886 -0.0129902 0.0203042)
(0.0217078 0.0414841 0.0260613)
(0.022158 0.0731681 0.0273468)
(0.0213501 0.0884304 0.0268677)
(0.0200886 0.0963477 0.0259156)
(0.0186952 0.102004 0.0248732)
(0.0173165 0.107392 0.0237993)
(0.0161097 0.113231 0.0226877)
(0.0151699 0.119893 0.0215157)
(0.0145434 0.127741 0.0202427)
(0.0142619 0.137182 0.0188096)
(0.0143337 0.148683 0.0171412)
(0.0147236 0.162805 0.0151527)
(0.0153259 0.180209 0.0127673)
(0.0159381 0.201718 0.00993259)
(0.016279 0.22873 0.00660406)
(0.0161193 0.264949 0.00271805)
(0.015325 0.322727 -0.00152571)
(0.0132811 0.434333 -0.00277587)
(0.00887409 0.596857 0.00530808)
(0.00637096 0.654107 0.0101025)