/*--------------------------------*- C++ -*----------------------------------*\
| =========                 |                                                 |
| \\      /  F ield         | OpenFOAM: The Open Source CFD Toolbox           |
|  \\    /   O peration     | Version:  v1906                                 |
|   \\  /    A nd           | Web:      www.OpenFOAM.com                      |
|    \\/     M anipulation  |                                                 |
\*---------------------------------------------------------------------------*/
FoamFile
{
    version     2.0;
    format      ascii;
    class       surfaceScalarField;
    location    "66";
    object      phi;
}
// * * * * * * * * * * * * * * * * * * * * * * * * * * * * * * * * * * * * * //

dimensions      [1 0 -1 0 0 0 0];
oriented        oriented;


internalField   nonuniform List<scalar> 
228225
(
-3.24947e-06
-8.0505e-09
1.30195e-07
-2.91102e-06
-4.74074e-07
1.3641e-07
-2.23055e-06
-8.18927e-07
1.38351e-07
-1.2941e-06
-1.07893e-06
1.4274e-07
-1.82934e-07
-1.25974e-06
1.48793e-07
1.03122e-06
-1.36895e-06
1.5496e-07
2.29324e-06
-1.4218e-06
1.59954e-07
3.56238e-06
-1.43239e-06
1.63382e-07
4.8088e-06
-1.41151e-06
1.65177e-07
6.00953e-06
-1.3661e-06
1.65405e-07
7.14609e-06
-1.30076e-06
1.64186e-07
8.20311e-06
-1.21872e-06
1.6165e-07
9.16756e-06
-1.12246e-06
1.57925e-07
1.00281e-05
-1.01379e-06
1.53134e-07
1.07744e-05
-8.93863e-07
1.47417e-07
1.13978e-05
-7.64558e-07
1.40876e-07
1.18923e-05
-6.28393e-07
1.33599e-07
1.22539e-05
-4.87542e-07
1.25668e-07
1.24804e-05
-3.4404e-07
1.17159e-07
1.2572e-05
-2.00117e-07
1.08136e-07
1.25325e-05
-5.96187e-08
9.8662e-08
1.23575e-05
8.58153e-08
8.8774e-08
1.20492e-05
2.29293e-07
7.85123e-08
1.16156e-05
3.65164e-07
6.79227e-08
1.10646e-05
4.93402e-07
5.70189e-08
1.04055e-05
6.12736e-07
4.57882e-08
9.64899e-06
7.21737e-07
3.42054e-08
8.80688e-06
8.19331e-07
2.22307e-08
7.89009e-06
9.06615e-07
9.65402e-09
6.90065e-06
9.91675e-07
-2.73732e-09
5.81293e-06
1.09944e-06
-1.22051e-08
4.55465e-06
1.27889e-06
-2.10317e-08
3.02471e-06
1.55525e-06
-2.55316e-08
1.28121e-06
1.76336e-06
-1.95316e-08
1.2833e-06
-9.43108e-10
-4.6252e-08
-7.01568e-08
1.08185e-07
6.46286e-08
-7.4069e-07
1.55688e-07
3.41146e-07
-1.27501e-06
1.79519e-07
7.75136e-07
-1.70531e-06
1.92515e-07
1.34816e-06
-2.03246e-06
1.99868e-07
2.0347e-06
-2.25974e-06
2.04453e-07
2.80196e-06
-2.39624e-06
2.07417e-07
3.61747e-06
-2.45659e-06
2.08958e-07
4.45335e-06
-2.45616e-06
2.09045e-07
5.28673e-06
-2.40697e-06
2.07757e-07
6.09837e-06
-2.31737e-06
2.05228e-07
6.87197e-06
-2.19367e-06
2.01591e-07
7.59383e-06
-2.04105e-06
1.96975e-07
8.25237e-06
-1.86368e-06
1.91569e-07
8.83762e-06
-1.66463e-06
1.85707e-07
9.34056e-06
-1.44694e-06
1.7959e-07
9.75321e-06
-1.21418e-06
1.73231e-07
1.00687e-05
-9.69618e-07
1.66652e-07
1.02812e-05
-7.16419e-07
1.59852e-07
1.0386e-05
-4.57743e-07
1.52821e-07
1.03781e-05
-1.97331e-07
1.45535e-07
1.02635e-05
6.22469e-08
1.37959e-07
1.00369e-05
3.25698e-07
1.30011e-07
9.70042e-06
5.79788e-07
1.2159e-07
9.25645e-06
8.24502e-07
1.12549e-07
8.70854e-06
1.05761e-06
1.02672e-07
8.06078e-06
1.27741e-06
9.1677e-08
7.31601e-06
1.4844e-06
7.92634e-08
6.47184e-06
1.68511e-06
6.52442e-08
5.51608e-06
1.89753e-06
4.94788e-08
4.42677e-06
2.15651e-06
3.18781e-08
3.19121e-06
2.50075e-06
1.34753e-08
1.86831e-06
2.8796e-06
-1.3388e-09
6.54312e-07
2.98092e-06
-2.89084e-09
1.93137e-06
7.67129e-09
1.88257e-07
-3.3241e-07
7.3356e-08
4.94399e-07
-1.16675e-06
1.20307e-07
9.18163e-07
-1.84664e-06
1.47716e-07
1.43265e-06
-2.38461e-06
1.64518e-07
2.01117e-06
-2.78539e-06
1.74368e-07
2.63262e-06
-3.0609e-06
1.79767e-07
3.28097e-06
-3.22729e-06
1.82724e-07
3.9421e-06
-3.30239e-06
1.84662e-07
4.60194e-06
-3.30208e-06
1.86098e-07
5.24714e-06
-3.23918e-06
1.87047e-07
5.86584e-06
-3.12357e-06
1.87557e-07
6.4469e-06
-2.96236e-06
1.87683e-07
6.97984e-06
-2.76139e-06
1.87426e-07
7.45563e-06
-2.52621e-06
1.86768e-07
7.86708e-06
-2.26173e-06
1.85677e-07
8.20844e-06
-1.97239e-06
1.84109e-07
8.4746e-06
-1.66234e-06
1.82018e-07
8.66106e-06
-1.33545e-06
1.79375e-07
8.76394e-06
-9.95454e-07
1.76142e-07
8.77986e-06
-6.45969e-07
1.72273e-07
8.70536e-06
-2.90639e-07
1.67742e-07
8.5383e-06
6.66722e-08
1.62538e-07
8.28417e-06
4.23045e-07
1.56649e-07
7.94075e-06
7.73017e-07
1.50031e-07
7.50981e-06
1.11264e-06
1.42601e-07
6.99464e-06
1.43835e-06
1.34196e-07
6.39867e-06
1.74859e-06
1.24525e-07
5.72327e-06
2.04636e-06
1.13144e-07
4.96559e-06
2.34304e-06
9.94529e-08
4.11763e-06
2.66259e-06
8.26365e-08
3.17317e-06
3.03888e-06
6.19098e-08
2.1577e-06
3.47783e-06
3.84195e-08
1.17197e-06
3.84761e-06
1.81219e-08
3.6614e-07
3.77928e-06
8.41852e-09
2.2886e-06
1.05475e-08
1.69777e-07
-5.67349e-07
6.49054e-08
5.63269e-07
-1.67504e-06
1.14674e-07
1.11168e-06
-2.53673e-06
1.41454e-07
1.74318e-06
-3.17256e-06
1.5621e-07
2.40102e-06
-3.6076e-06
1.64211e-07
3.04987e-06
-3.87839e-06
1.68514e-07
3.6737e-06
-4.02204e-06
1.70804e-07
4.267e-06
-4.06775e-06
1.71947e-07
4.82768e-06
-4.03529e-06
1.72412e-07
5.35401e-06
-3.93802e-06
1.72407e-07
5.84385e-06
-3.78565e-06
1.72147e-07
6.29333e-06
-3.58394e-06
1.72001e-07
6.69673e-06
-3.33709e-06
1.72195e-07
7.04809e-06
-3.05049e-06
1.72815e-07
7.34172e-06
-2.72936e-06
1.73897e-07
7.57263e-06
-2.37882e-06
1.75415e-07
7.73675e-06
-2.00383e-06
1.77281e-07
7.83102e-06
-1.60918e-06
1.79353e-07
7.85333e-06
-1.19928e-06
1.81406e-07
7.80222e-06
-7.78183e-07
1.83211e-07
7.67675e-06
-3.49776e-07
1.84477e-07
7.47671e-06
8.1707e-08
1.84869e-07
7.20025e-06
5.15322e-07
1.84032e-07
6.84842e-06
9.43056e-07
1.81623e-07
6.42282e-06
1.36073e-06
1.77333e-07
5.92635e-06
1.7637e-06
1.70908e-07
5.36253e-06
2.15007e-06
1.62134e-07
4.73354e-06
2.52435e-06
1.50777e-07
4.03849e-06
2.90149e-06
1.36389e-07
3.2749e-06
3.30802e-06
1.17993e-07
2.45033e-06
3.76901e-06
9.43784e-08
1.60862e-06
4.25303e-06
6.66882e-08
8.3966e-07
4.57545e-06
4.16819e-08
2.45049e-07
4.34902e-06
2.5945e-08
2.51798e-06
1.74141e-08
1.7298e-07
-7.89775e-07
4.92573e-08
5.56888e-07
-2.14712e-06
8.77368e-08
1.06354e-06
-3.15079e-06
1.07435e-07
1.62247e-06
-3.84943e-06
1.1789e-07
2.18565e-06
-4.29417e-06
1.23195e-07
2.72994e-06
-4.54804e-06
1.25182e-07
3.24886e-06
-4.66573e-06
1.24671e-07
3.74269e-06
-4.68391e-06
1.22273e-07
4.21193e-06
-4.62312e-06
1.18545e-07
4.65564e-06
-4.49598e-06
1.14176e-07
5.07068e-06
-4.31067e-06
1.09891e-07
5.45183e-06
-4.0715e-06
1.06328e-07
5.79287e-06
-3.78216e-06
1.03947e-07
6.08711e-06
-3.4478e-06
1.03e-07
6.32829e-06
-3.07428e-06
1.03671e-07
6.51129e-06
-2.66798e-06
1.06082e-07
6.63261e-06
-2.23551e-06
1.10283e-07
6.69043e-06
-1.78331e-06
1.16224e-07
6.68443e-06
-1.31719e-06
1.23798e-07
6.61543e-06
-8.42044e-07
1.32761e-07
6.48463e-06
-3.61809e-07
1.42718e-07
6.2928e-06
1.20326e-07
1.53093e-07
6.04353e-06
6.01349e-07
1.63123e-07
5.73647e-06
1.07812e-06
1.71859e-07
5.37179e-06
1.54699e-06
1.7826e-07
4.94934e-06
2.00466e-06
1.8133e-07
4.46847e-06
2.45051e-06
1.8027e-07
3.92751e-06
2.89064e-06
1.74515e-07
3.32406e-06
3.34134e-06
1.63472e-07
2.65932e-06
3.82656e-06
1.46134e-07
1.9511e-06
4.35565e-06
1.21648e-07
1.25158e-06
4.86086e-06
9.19966e-08
6.33371e-07
5.13029e-06
6.40339e-08
1.74894e-07
4.76609e-06
4.25429e-08
2.6717e-06
2.29651e-08
1.41881e-07
-9.6853e-07
3.66546e-08
4.69138e-07
-2.54186e-06
6.72666e-08
8.99873e-07
-3.66646e-06
8.48031e-08
1.37092e-06
-4.41611e-06
9.54852e-08
1.84306e-06
-4.86773e-06
1.01242e-07
2.3007e-06
-5.10855e-06
1.02738e-07
2.74181e-06
-5.20746e-06
1.00519e-07
3.16759e-06
-5.20523e-06
9.54462e-08
3.57771e-06
-5.12177e-06
8.84311e-08
3.96997e-06
-4.96872e-06
8.03765e-08
4.33916e-06
-4.75203e-06
7.20516e-08
4.67821e-06
-4.47466e-06
6.3985e-08
4.98008e-06
-4.14077e-06
5.66278e-08
5.23762e-06
-3.7559e-06
5.04362e-08
5.44452e-06
-3.32711e-06
4.58304e-08
5.59597e-06
-2.86272e-06
4.31805e-08
5.68913e-06
-2.37162e-06
4.28237e-08
5.72316e-06
-1.86251e-06
4.50346e-08
5.69904e-06
-1.34321e-06
5.00072e-08
5.61914e-06
-8.20107e-07
5.78309e-08
5.48664e-06
-2.97911e-07
6.84633e-08
5.30511e-06
2.2009e-07
8.16233e-08
5.07792e-06
7.31698e-07
9.66995e-08
4.80757e-06
1.2356e-06
1.12728e-07
4.49494e-06
1.73107e-06
1.28398e-07
4.1388e-06
2.21851e-06
1.42151e-07
3.73553e-06
2.70128e-06
1.52362e-07
3.27972e-06
3.1889e-06
1.57427e-07
2.76657e-06
3.69872e-06
1.55692e-07
2.19835e-06
4.24927e-06
1.45496e-07
1.5968e-06
4.8314e-06
1.25939e-07
1.01319e-06
5.34574e-06
9.91125e-08
5.04003e-07
5.56888e-06
7.13275e-08
1.36226e-07
5.08837e-06
4.6653e-08
2.78805e-06
2.16866e-08
1.23759e-07
-1.12032e-06
2.80371e-08
3.99964e-07
-2.87294e-06
5.45693e-08
7.58374e-07
-4.09705e-06
7.18384e-08
1.14908e-06
-4.89038e-06
8.34207e-08
1.5419e-06
-5.35073e-06
9.01474e-08
1.92584e-06
-5.58499e-06
9.24334e-08
2.30005e-06
-5.67264e-06
9.08695e-08
2.66503e-06
-5.65666e-06
8.63167e-08
3.01991e-06
-5.55648e-06
7.97096e-08
3.36131e-06
-5.38202e-06
7.1807e-08
3.68346e-06
-5.1374e-06
6.31275e-08
3.9799e-06
-4.82528e-06
5.41032e-08
4.24365e-06
-4.44968e-06
4.50804e-08
4.46801e-06
-4.01677e-06
3.64329e-08
4.64716e-06
-3.53509e-06
2.87225e-08
4.77685e-06
-3.01499e-06
2.24786e-08
4.85474e-06
-2.46774e-06
1.81159e-08
4.88053e-06
-1.90443e-06
1.60205e-08
4.85569e-06
-1.33504e-06
1.65629e-08
4.78307e-06
-7.67664e-07
2.00605e-08
4.66632e-06
-2.0803e-07
2.67449e-08
4.50976e-06
3.39828e-07
3.66878e-08
4.31714e-06
8.74467e-07
4.97202e-08
4.0909e-06
1.39636e-06
6.5339e-08
3.83134e-06
1.90792e-06
8.25938e-08
3.53586e-06
2.41382e-06
1.00049e-07
3.19896e-06
2.92223e-06
1.15846e-07
2.81339e-06
3.4466e-06
1.27782e-07
2.37367e-06
4.00503e-06
1.3338e-07
1.88315e-06
4.60963e-06
1.30212e-07
1.36457e-06
5.23336e-06
1.16811e-07
8.64504e-07
5.75168e-06
9.45812e-08
4.28478e-07
5.93678e-06
6.88968e-08
1.16582e-07
5.35767e-06
4.37803e-08
2.88826e-06
1.8187e-08
9.92137e-08
-1.24155e-06
2.18608e-08
3.28128e-07
-3.14778e-06
4.5706e-08
6.30682e-07
-4.46298e-06
6.31707e-08
9.65644e-07
-5.30123e-06
7.57455e-08
1.30743e-06
-5.77606e-06
8.34414e-08
1.64604e-06
-6.01017e-06
8.64648e-08
1.97953e-06
-6.09171e-06
8.54681e-08
2.30706e-06
-6.06572e-06
8.14117e-08
2.62688e-06
-5.9517e-06
7.52898e-08
2.93501e-06
-5.75801e-06
6.77515e-08
3.22603e-06
-5.48774e-06
5.92192e-08
3.49402e-06
-5.14328e-06
4.99262e-08
3.73269e-06
-4.72855e-06
4.00882e-08
3.93613e-06
-4.25043e-06
3.01126e-08
4.09925e-06
-3.71882e-06
2.04997e-08
4.2182e-06
-3.14583e-06
1.17683e-08
4.29062e-06
-2.54472e-06
4.43932e-09
4.31583e-06
-1.92875e-06
-1.01054e-09
4.29491e-06
-1.31009e-06
-4.15739e-09
4.23041e-06
-6.98747e-07
-4.54729e-09
4.1261e-06
-1.02216e-07
-1.64654e-09
3.98704e-06
4.74422e-07
4.32327e-09
3.81766e-06
1.02961e-06
1.4089e-08
3.6212e-06
1.56526e-06
2.74146e-08
3.39819e-06
2.08705e-06
4.37415e-08
3.1456e-06
2.60431e-06
6.19713e-08
2.85686e-06
3.13047e-06
8.03928e-08
2.52342e-06
3.68331e-06
9.66631e-08
2.13873e-06
4.28184e-06
1.07858e-07
1.7055e-06
4.93208e-06
1.10864e-07
1.24455e-06
5.59112e-06
1.03441e-07
7.96467e-07
6.11418e-06
8.6085e-08
4.00802e-07
6.27003e-06
6.32229e-08
1.13257e-07
5.60736e-06
3.90688e-08
2.98855e-06
1.47978e-08
8.53533e-08
-1.34652e-06
1.93137e-08
2.84742e-07
-3.39079e-06
4.36157e-08
5.51145e-07
-4.79187e-06
6.2363e-08
8.49264e-07
-5.67569e-06
7.61312e-08
1.15631e-06
-6.16817e-06
8.48835e-08
1.46275e-06
-6.40571e-06
8.89831e-08
1.76595e-06
-6.48416e-06
8.91762e-08
2.06439e-06
-6.45064e-06
8.6415e-08
2.35576e-06
-6.32473e-06
8.15848e-08
2.63633e-06
-6.11395e-06
7.52759e-08
2.90154e-06
-5.82086e-06
6.78125e-08
3.14616e-06
-5.44734e-06
5.93241e-08
3.36495e-06
-4.99739e-06
4.99555e-08
3.553e-06
-4.47857e-06
3.99962e-08
3.70611e-06
-3.90185e-06
2.982e-08
3.82098e-06
-3.28065e-06
1.98634e-08
3.89526e-06
-2.62972e-06
1.06137e-08
3.92765e-06
-1.9639e-06
2.65018e-09
3.91832e-06
-1.29708e-06
-3.81311e-09
3.86902e-06
-6.41034e-07
-8.55197e-09
3.78205e-06
-4.74934e-09
-1.06337e-08
3.66192e-06
6.03992e-07
-9.57282e-09
3.51235e-06
1.18383e-06
-4.79348e-09
3.33693e-06
1.73694e-06
3.61098e-09
3.1369e-06
2.27126e-06
1.56921e-08
2.90975e-06
2.80005e-06
3.1296e-08
2.64946e-06
3.3416e-06
4.9057e-08
2.34776e-06
3.91813e-06
6.68244e-08
1.99798e-06
4.55011e-06
8.15179e-08
1.60191e-06
5.23881e-06
8.94596e-08
1.17765e-06
5.92812e-06
8.75362e-08
7.60655e-07
6.45656e-06
7.51555e-08
3.87424e-07
6.58838e-06
5.57283e-08
1.11953e-07
5.85046e-06
3.36023e-08
3.09059e-06
1.17641e-08
7.58304e-08
-1.44024e-06
1.76891e-08
2.57243e-07
-3.61408e-06
4.17434e-08
5.03029e-07
-5.09847e-06
6.0662e-08
7.80538e-07
-6.0281e-06
7.47414e-08
1.06795e-06
-6.5397e-06
8.397e-08
1.35565e-06
-6.78226e-06
8.87396e-08
1.64042e-06
-6.85885e-06
8.98205e-08
1.92025e-06
-6.81872e-06
8.81637e-08
2.19251e-06
-6.68167e-06
8.45835e-08
2.45364e-06
-6.45481e-06
7.96299e-08
2.69937e-06
-6.14026e-06
7.35523e-08
2.92516e-06
-5.73965e-06
6.64138e-08
3.12663e-06
-5.25726e-06
5.83009e-08
3.29986e-06
-4.70131e-06
4.94127e-08
3.44156e-06
-4.08365e-06
4.0002e-08
3.54916e-06
-3.41875e-06
3.03869e-08
3.62079e-06
-2.7224e-06
2.09466e-08
3.65528e-06
-2.01063e-06
1.21093e-08
3.65234e-06
-1.29858e-06
4.31061e-09
3.61268e-06
-5.99502e-07
-2.00984e-09
3.53937e-06
7.56021e-08
-7.19228e-09
3.43443e-06
7.18543e-07
-9.75163e-09
3.30166e-06
1.32575e-06
-9.29425e-09
3.14374e-06
1.89994e-06
-5.22339e-09
2.96164e-06
2.45064e-06
2.57885e-09
2.75368e-06
2.99408e-06
1.37953e-08
2.51413e-06
3.55252e-06
2.8525e-08
2.23511e-06
4.15202e-06
4.50744e-08
1.90992e-06
4.81464e-06
6.06686e-08
1.53942e-06
5.53795e-06
7.14779e-08
1.13931e-06
6.25481e-06
7.37214e-08
7.41469e-07
6.78924e-06
6.57134e-08
3.81034e-07
6.8999e-06
4.97552e-08
1.11464e-07
6.09127e-06
3.00025e-08
3.19372e-06
1.01834e-08
7.10041e-08
-1.52879e-06
1.73244e-08
2.42374e-07
-3.82797e-06
4.22764e-08
4.75618e-07
-5.39378e-06
6.19564e-08
7.39256e-07
-6.36835e-06
7.65443e-08
1.01221e-06
-6.8989e-06
8.61545e-08
1.28523e-06
-7.14672e-06
9.13183e-08
1.55511e-06
-7.22176e-06
9.29091e-08
1.8197e-06
-7.17535e-06
9.19199e-08
2.07632e-06
-7.02756e-06
8.91553e-08
2.32152e-06
-6.78525e-06
8.51367e-08
2.55139e-06
-6.4503e-06
8.00883e-08
2.76193e-06
-6.02433e-06
7.40547e-08
2.94948e-06
-5.51199e-06
6.70867e-08
3.11091e-06
-4.92213e-06
5.92915e-08
3.24372e-06
-4.26739e-06
5.08189e-08
3.34594e-06
-3.56295e-06
4.18669e-08
3.41606e-06
-2.82532e-06
3.26928e-08
3.45294e-06
-2.07125e-06
2.36123e-08
3.45602e-06
-1.31672e-06
1.49438e-08
3.42539e-06
-5.7609e-07
7.08936e-09
3.36188e-06
1.38208e-07
7.72789e-10
3.26832e-06
8.16461e-07
-4.50103e-09
3.14735e-06
1.4539e-06
-7.32301e-09
3.00124e-06
2.05298e-06
-7.08041e-09
2.83063e-06
2.62425e-06
-3.13516e-09
2.63424e-06
3.18615e-06
4.19131e-09
2.40743e-06
3.76413e-06
1.5098e-08
2.14291e-06
4.38743e-06
2.90515e-08
1.83429e-06
5.07947e-06
4.38099e-08
1.4819e-06
5.83468e-06
5.58052e-08
1.09979e-06
6.57626e-06
6.09626e-08
7.17465e-07
7.11542e-06
5.6697e-08
3.69053e-07
7.20503e-06
4.41358e-08
1.07745e-07
6.32688e-06
2.69332e-08
3.29427e-06
9.03875e-09
6.8565e-08
-1.6148e-06
1.7238e-08
2.34541e-07
-4.0366e-06
4.24727e-08
4.59948e-07
-5.68144e-06
6.21199e-08
7.13812e-07
-6.69895e-06
7.66153e-08
9.75687e-07
-7.24717e-06
8.62878e-08
1.23676e-06
-7.49965e-06
9.17361e-08
1.4939e-06
-7.57284e-06
9.38234e-08
1.74492e-06
-7.51998e-06
9.35032e-08
1.98715e-06
-7.36142e-06
9.15349e-08
2.2173e-06
-7.10391e-06
8.84085e-08
2.43176e-06
-6.74919e-06
8.43462e-08
2.62702e-06
-6.29909e-06
7.93975e-08
2.80008e-06
-5.75874e-06
7.36015e-08
2.94853e-06
-5.13771e-06
6.70276e-08
3.07061e-06
-4.44934e-06
5.97661e-08
3.16502e-06
-3.7094e-06
5.19327e-08
3.23075e-06
-2.93485e-06
4.36826e-08
3.267e-06
-2.14284e-06
3.52182e-08
3.27322e-06
-1.34981e-06
2.67532e-08
3.24922e-06
-5.70794e-07
1.85676e-08
3.19545e-06
1.80764e-07
1.10744e-08
3.11311e-06
8.93865e-07
4.79931e-09
3.00369e-06
1.56267e-06
4.86767e-10
2.86941e-06
2.18927e-06
-2.1563e-09
2.71044e-06
2.78476e-06
-1.69407e-09
2.52531e-06
3.36919e-06
1.96659e-09
2.30986e-06
3.97041e-06
9.06262e-09
2.05751e-06
4.62002e-06
1.97065e-08
1.76241e-06
5.34224e-06
3.23389e-08
1.42493e-06
6.12833e-06
4.39493e-08
1.05836e-06
6.89257e-06
5.05654e-08
6.90626e-07
7.43467e-06
4.90318e-08
3.54749e-07
7.50237e-06
3.93775e-08
1.03056e-07
6.5553e-06
2.45101e-08
3.39092e-06
8.24355e-09
6.72626e-08
-1.69951e-06
1.7324e-08
2.29665e-07
-4.24214e-06
4.29486e-08
4.49128e-07
-5.96382e-06
6.26992e-08
6.94847e-07
-7.02199e-06
7.71504e-08
9.47061e-07
-7.58626e-06
8.67596e-08
1.19759e-06
-7.84249e-06
9.22286e-08
1.44351e-06
-7.91334e-06
9.4494e-08
1.68265e-06
-7.85374e-06
9.4526e-08
1.91236e-06
-7.6843e-06
9.30606e-08
2.12947e-06
-7.41168e-06
9.05596e-08
2.33065e-06
-7.03771e-06
8.72344e-08
2.51284e-06
-6.56452e-06
8.31344e-08
2.67359e-06
-5.99787e-06
7.82853e-08
2.81111e-06
-5.34805e-06
7.27261e-08
2.92419e-06
-4.62902e-06
6.64993e-08
3.012e-06
-3.85696e-06
5.96588e-08
3.07385e-06
-3.0491e-06
5.22889e-08
3.1091e-06
-2.22272e-06
4.45171e-08
3.11715e-06
-1.39448e-06
3.64937e-08
3.09757e-06
-5.79776e-07
2.84322e-08
3.05033e-06
2.07208e-07
2.06597e-08
2.97603e-06
9.54427e-07
1.35922e-08
2.87575e-06
1.65507e-06
7.72874e-09
2.75045e-06
2.31079e-06
3.63722e-09
2.60016e-06
2.93306e-06
1.84973e-09
2.42333e-06
3.54316e-06
2.72756e-09
2.21609e-06
4.17074e-06
6.81112e-09
1.97264e-06
4.84907e-06
1.43264e-08
1.68799e-06
5.60247e-06
2.44269e-08
1.36303e-06
6.41863e-06
3.47763e-08
1.01088e-06
7.20322e-06
4.17918e-08
6.58252e-07
7.74573e-06
4.21e-08
3.36657e-07
7.78995e-06
3.48409e-08
9.69748e-08
6.77409e-06
2.21059e-08
3.48227e-06
7.43871e-09
6.6183e-08
-1.78344e-06
1.75835e-08
2.25068e-07
-4.44466e-06
4.34647e-08
4.38313e-07
-6.24028e-06
6.30517e-08
6.75341e-07
-7.33639e-06
7.7234e-08
9.17162e-07
-7.91487e-06
8.66743e-08
1.15631e-06
-8.17389e-06
9.21461e-08
1.39017e-06
-8.24188e-06
9.45839e-08
1.61668e-06
-8.17527e-06
9.49316e-08
1.83326e-06
-7.99488e-06
9.38959e-08
2.03693e-06
-7.70737e-06
9.19231e-08
2.22464e-06
-7.31475e-06
8.923e-08
2.39377e-06
-6.81963e-06
8.58803e-08
2.54238e-06
-6.22848e-06
8.19022e-08
2.66925e-06
-5.55234e-06
7.73206e-08
2.77369e-06
-4.8057e-06
7.21459e-08
2.85531e-06
-4.00507e-06
6.63813e-08
2.91376e-06
-3.1677e-06
6.00419e-08
2.94855e-06
-2.31081e-06
5.31743e-08
2.95907e-06
-1.45097e-06
4.58529e-08
2.94462e-06
-6.03686e-07
3.82172e-08
2.90473e-06
2.1645e-07
3.05172e-08
2.83932e-06
9.9659e-07
2.31011e-08
2.74875e-06
1.72908e-06
1.6407e-08
2.63331e-06
2.41513e-06
1.09507e-08
2.49252e-06
3.0664e-06
7.29984e-09
2.32446e-06
3.70506e-06
6.01249e-09
2.1254e-06
4.36211e-06
7.57501e-09
1.89029e-06
5.07182e-06
1.22881e-08
1.61511e-06
5.85787e-06
1.97712e-08
1.30167e-06
6.70386e-06
2.83279e-08
9.63367e-07
7.50689e-06
3.49078e-08
6.2586e-07
8.04755e-06
3.62051e-08
3.18882e-07
8.06699e-06
3.07399e-08
9.1269e-08
6.98307e-06
1.98325e-08
3.56866e-06
6.67459e-09
6.50649e-08
-1.86644e-06
1.76946e-08
2.20871e-07
-4.64413e-06
4.35344e-08
4.28747e-07
-6.51106e-06
6.27904e-08
6.58223e-07
-7.64259e-06
7.6593e-08
8.91006e-07
-8.23354e-06
8.57491e-08
1.12029e-06
-8.4944e-06
9.11106e-08
1.3437e-06
-8.55904e-06
9.36345e-08
1.55924e-06
-8.48516e-06
9.42384e-08
1.76441e-06
-8.29373e-06
9.35877e-08
1.95636e-06
-7.99152e-06
9.20997e-08
2.13235e-06
-7.58083e-06
8.99843e-08
2.29017e-06
-7.06485e-06
8.7311e-08
2.42833e-06
-6.45086e-06
8.41072e-08
2.5461e-06
-5.75059e-06
8.03859e-08
2.6432e-06
-4.97905e-06
7.61374e-08
2.71958e-06
-4.15289e-06
7.13346e-08
2.77512e-06
-3.2893e-06
6.59508e-08
2.80942e-06
-2.40521e-06
5.9979e-08
2.82179e-06
-1.5169e-06
5.34366e-08
2.81133e-06
-6.39755e-07
4.63983e-08
2.77714e-06
2.11467e-07
3.90387e-08
2.71862e-06
1.02333e-06
3.16342e-08
2.63555e-06
1.78745e-06
2.45623e-08
2.52767e-06
2.50458e-06
1.82889e-08
2.3941e-06
3.18646e-06
1.33523e-08
2.23274e-06
3.85595e-06
1.03347e-08
2.04002e-06
4.54493e-06
9.79288e-09
1.8115e-06
5.28816e-06
1.21112e-08
1.54419e-06
6.10801e-06
1.71655e-08
1.241e-06
6.98339e-06
2.37633e-08
9.1581e-07
7.80293e-06
2.94092e-08
5.93219e-07
8.33958e-06
3.10562e-08
3.00984e-07
8.33314e-06
2.68776e-08
8.56142e-08
7.18207e-06
1.7554e-08
3.65014e-06
5.89679e-09
6.38963e-08
-1.9485e-06
1.79629e-08
2.15847e-07
-4.8401e-06
4.38745e-08
4.17244e-07
-6.77541e-06
6.28188e-08
6.38059e-07
-7.93976e-06
7.62224e-08
8.60839e-07
-8.54151e-06
8.50691e-08
1.07943e-06
-8.80339e-06
9.02798e-08
1.29175e-06
-8.86428e-06
9.28192e-08
1.49586e-06
-8.78296e-06
9.35845e-08
1.68939e-06
-8.58057e-06
9.32153e-08
1.86965e-06
-8.264e-06
9.21138e-08
2.03421e-06
-7.83598e-06
9.04918e-08
2.18124e-06
-7.3004e-06
8.84261e-08
2.30969e-06
-6.66536e-06
8.59453e-08
2.41925e-06
-5.9433e-06
8.30537e-08
2.51003e-06
-5.14965e-06
7.9721e-08
2.58228e-06
-4.30114e-06
7.58878e-08
2.63609e-06
-3.41469e-06
7.14825e-08
2.67113e-06
-2.50681e-06
6.64423e-08
2.68663e-06
-1.59325e-06
6.07264e-08
2.68141e-06
-6.89019e-07
5.43476e-08
2.65411e-06
1.9121e-07
4.74139e-08
2.60353e-06
1.03362e-06
4.0142e-08
2.52878e-06
1.82918e-06
3.28618e-08
2.42903e-06
2.57817e-06
2.60036e-08
2.30298e-06
3.29229e-06
2.0077e-08
2.14836e-06
3.99477e-06
1.56521e-08
1.96178e-06
4.71807e-06
1.33146e-08
1.73941e-06
5.49692e-06
1.35308e-08
1.4793e-06
6.35174e-06
1.63532e-08
1.18551e-06
7.25631e-06
2.09591e-08
8.72525e-07
8.09081e-06
2.53535e-08
5.63879e-07
8.62185e-06
2.68458e-08
2.85338e-07
8.58895e-06
2.34863e-08
8.09149e-08
7.37218e-06
1.54654e-08
3.72761e-06
5.19269e-09
6.26705e-08
-2.02937e-06
1.8018e-08
2.11111e-07
-5.03233e-06
4.35918e-08
4.06918e-07
-7.03331e-06
6.19324e-08
6.20399e-07
-8.22811e-06
7.47521e-08
8.34765e-07
-8.83917e-06
8.31922e-08
1.04436e-06
-9.10132e-06
8.82288e-08
1.24726e-06
-9.15809e-06
9.0808e-08
1.4416e-06
-9.06918e-06
9.17756e-08
1.62508e-06
-8.85589e-06
9.17252e-08
1.79524e-06
-8.5253e-06
9.10331e-08
1.94991e-06
-8.08065e-06
8.99085e-08
2.0876e-06
-7.52663e-06
8.8435e-08
2.20765e-06
-6.87215e-06
8.66416e-08
2.31009e-06
-6.13037e-06
8.45277e-08
2.39535e-06
-5.31707e-06
8.20545e-08
2.46396e-06
-4.449e-06
7.91462e-08
2.51616e-06
-3.54271e-06
7.57035e-08
2.55172e-06
-2.6141e-06
7.16227e-08
2.56977e-06
-1.67824e-06
6.68109e-08
2.56892e-06
-7.49516e-07
6.12185e-08
2.54738e-06
1.57739e-07
5.48808e-08
2.50337e-06
1.02954e-06
4.79445e-08
2.43544e-06
1.85628e-06
4.06843e-08
2.34223e-06
2.63774e-06
3.34929e-08
2.22211e-06
3.38541e-06
2.68553e-08
2.07269e-06
4.12272e-06
2.13259e-08
1.89082e-06
4.88233e-06
1.74959e-08
1.67331e-06
5.69845e-06
1.58879e-08
1.41924e-06
6.58909e-06
1.6697e-08
1.13378e-06
7.52247e-06
1.93854e-08
8.31984e-07
8.37046e-06
2.23836e-08
5.36323e-07
8.89458e-06
2.33876e-08
2.70637e-07
8.83489e-06
2.04915e-08
7.65189e-08
7.55388e-06
1.35478e-08
3.80128e-06
4.56007e-09
6.1398e-08
-2.10914e-06
1.81822e-08
2.06183e-07
-5.22087e-06
4.35798e-08
3.96087e-07
-7.28479e-06
6.14323e-08
6.0185e-07
-8.50773e-06
7.3728e-08
8.07459e-07
-9.12665e-06
8.17628e-08
1.00783e-06
-9.38837e-06
8.65691e-08
1.20125e-06
-9.44071e-06
8.90942e-08
1.38592e-06
-9.34412e-06
9.01574e-08
1.55965e-06
-9.12005e-06
9.03237e-08
1.72014e-06
-8.77586e-06
8.9953e-08
1.8655e-06
-8.31536e-06
8.92536e-08
1.99453e-06
-7.74407e-06
8.83129e-08
2.10691e-06
-7.07178e-06
8.71595e-08
2.20297e-06
-6.31231e-06
8.57859e-08
2.28345e-06
-5.4818e-06
8.41404e-08
2.34914e-06
-4.59692e-06
8.21296e-08
2.40047e-06
-3.67379e-06
7.96282e-08
2.43731e-06
-2.72755e-06
7.64958e-08
2.45874e-06
-1.77239e-06
7.25932e-08
2.46311e-06
-8.2184e-07
6.78145e-08
2.44818e-06
1.10397e-07
6.21278e-08
2.41156e-06
1.01041e-06
5.56114e-08
2.35109e-06
1.86811e-06
4.84835e-08
2.26484e-06
2.68273e-06
4.10982e-08
2.1508e-06
3.46538e-06
3.39176e-08
2.00648e-06
4.2394e-06
2.74823e-08
1.82899e-06
5.03731e-06
2.23796e-08
1.61579e-06
5.89239e-06
1.91632e-08
1.367e-06
6.81971e-06
1.81377e-08
1.08888e-06
7.78165e-06
1.89973e-08
7.97021e-07
8.642e-06
2.05307e-08
5.12876e-07
9.15834e-06
2.08077e-08
2.58482e-07
9.07192e-06
1.807e-08
7.30693e-08
7.72844e-06
1.19555e-08
3.87197e-06
4.05839e-09
6.02088e-08
-2.18767e-06
1.81384e-08
2.01823e-07
-5.40559e-06
4.29574e-08
3.86699e-07
-7.52983e-06
6.00165e-08
5.85934e-07
-8.7787e-06
7.15957e-08
7.84162e-07
-9.40415e-06
7.91472e-08
9.76746e-07
-9.6648e-06
8.37329e-08
1.16209e-06
-9.71241e-06
8.62536e-08
1.33847e-06
-9.60807e-06
8.74665e-08
1.50379e-06
-9.37336e-06
8.78915e-08
1.65593e-06
-9.01596e-06
8.78663e-08
1.7932e-06
-8.54034e-06
8.75977e-08
1.9147e-06
-7.95285e-06
8.71788e-08
2.02033e-06
-7.26415e-06
8.66402e-08
2.1107e-06
-6.48876e-06
8.59734e-08
2.1868e-06
-5.64312e-06
8.51239e-08
2.24962e-06
-4.74384e-06
8.39906e-08
2.29983e-06
-3.80653e-06
8.24326e-08
2.33738e-06
-2.8455e-06
8.02825e-08
2.36139e-06
-1.87387e-06
7.73608e-08
2.37002e-06
-9.04101e-07
7.35045e-08
2.36066e-06
5.10147e-08
6.861e-08
2.33034e-06
9.77907e-07
6.26777e-08
2.27628e-06
1.86617e-06
5.58584e-08
2.19598e-06
2.71442e-06
4.84605e-08
2.08704e-06
3.53325e-06
4.09221e-08
1.9469e-06
4.34561e-06
3.37739e-08
1.77292e-06
5.18356e-06
2.76025e-08
1.56324e-06
6.07899e-06
2.29826e-08
1.31895e-06
7.04367e-06
2.03018e-08
1.04735e-06
8.03385e-06
1.94474e-08
7.6449e-07
8.90554e-06
1.95165e-08
4.9085e-07
9.41347e-06
1.89263e-08
2.46881e-07
9.30046e-06
1.61263e-08
6.96827e-08
7.89607e-06
1.06415e-08
3.93964e-06
3.66653e-09
5.91316e-08
-2.26515e-06
1.81627e-08
1.97702e-07
-5.58687e-06
4.2539e-08
3.77735e-07
-7.76894e-06
5.89219e-08
5.70651e-07
-9.04161e-06
6.9854e-08
7.61726e-07
-9.67228e-06
7.69284e-08
9.46782e-07
-9.93121e-06
8.12438e-08
1.12439e-06
-9.97381e-06
8.36822e-08
1.2929e-06
-9.86165e-06
8.49616e-08
1.45031e-06
-9.61645e-06
8.55691e-08
1.59466e-06
-9.24625e-06
8.58237e-08
1.72447e-06
-8.75618e-06
8.59287e-08
1.83902e-06
-8.15348e-06
8.5979e-08
1.93846e-06
-7.44971e-06
8.60037e-08
2.02363e-06
-6.66003e-06
8.59906e-08
2.09575e-06
-5.80123e-06
8.58807e-08
2.15607e-06
-4.88983e-06
8.55666e-08
2.20545e-06
-3.94092e-06
8.48967e-08
2.24403e-06
-2.96788e-06
8.36843e-08
2.27093e-06
-1.98262e-06
8.17188e-08
2.28419e-06
-9.96285e-07
7.87901e-08
2.28082e-06
-2.04892e-08
7.47294e-08
2.25726e-06
9.31858e-07
6.94601e-08
2.21001e-06
1.85021e-06
6.30584e-08
2.13594e-06
2.73255e-06
5.57775e-08
2.03222e-06
3.58879e-06
4.80237e-08
1.89617e-06
4.44119e-06
4.03154e-08
1.7254e-06
5.32095e-06
3.32398e-08
1.5187e-06
6.25819e-06
2.7389e-08
1.27815e-06
7.26094e-06
2.32139e-08
1.01207e-06
8.2792e-06
2.07605e-08
7.36957e-07
9.16143e-06
1.93913e-08
4.72397e-07
9.66057e-06
1.78383e-08
2.37398e-07
9.52132e-06
1.4784e-08
6.70425e-08
8.05775e-06
9.71231e-09
4.00488e-06
3.42574e-09
5.82167e-08
-2.34156e-06
1.79998e-08
1.94276e-07
-5.76466e-06
4.15743e-08
3.70256e-07
-8.00205e-06
5.70026e-08
5.57829e-07
-9.29641e-06
6.71147e-08
7.42808e-07
-9.93102e-06
7.36489e-08
9.21399e-07
-1.01876e-05
7.77078e-08
1.09231e-06
-1.02249e-05
8.01062e-08
1.25396e-06
-1.01049e-05
8.14945e-08
1.40447e-06
-9.84938e-06
8.23162e-08
1.54202e-06
-9.46676e-06
8.2869e-08
1.66526e-06
-8.96286e-06
8.3353e-08
1.77364e-06
-8.34583e-06
8.38672e-08
1.86748e-06
-7.62808e-06
8.44418e-08
1.94779e-06
-6.82549e-06
8.50644e-08
2.01599e-06
-5.95521e-06
8.5676e-08
2.07355e-06
-5.03366e-06
8.61679e-08
2.12156e-06
-4.07542e-06
8.63834e-08
2.16034e-06
-3.0929e-06
8.61227e-08
2.18915e-06
-2.09669e-06
8.51502e-08
2.20597e-06
-1.09644e-06
8.32139e-08
2.20756e-06
-1.02285e-07
8.00822e-08
2.18984e-06
8.73841e-07
7.55991e-08
2.14865e-06
1.8215e-06
6.97591e-08
2.08021e-06
2.73809e-06
6.27494e-08
1.98123e-06
3.63267e-06
5.49369e-08
1.84887e-06
4.52657e-06
4.68259e-08
1.68096e-06
5.44972e-06
3.90083e-08
1.4769e-06
6.43003e-06
3.20965e-08
1.2397e-06
7.47149e-06
2.65934e-08
9.7863e-07
8.51761e-06
2.26771e-08
7.10613e-07
9.40968e-06
1.99363e-08
4.54431e-07
9.89973e-06
1.73839e-08
2.27884e-07
9.73456e-06
1.39427e-08
6.42516e-08
8.21329e-06
9.11129e-09
4.0674e-06
3.31598e-09
5.74308e-08
-2.41706e-06
1.78672e-08
1.91179e-07
-5.9393e-06
4.07315e-08
3.63407e-07
-8.22973e-06
5.52982e-08
5.46012e-07
-9.54381e-06
6.46508e-08
7.25323e-07
-1.01811e-05
7.06511e-08
8.97911e-07
-1.04347e-05
7.44121e-08
1.06264e-06
-1.04665e-05
7.67078e-08
1.21802e-06
-1.03386e-05
7.81393e-08
1.36227e-06
-1.00729e-05
7.91148e-08
1.49366e-06
-9.67817e-06
7.99117e-08
1.61095e-06
-9.16098e-06
8.07247e-08
1.71371e-06
-8.53036e-06
8.16534e-08
1.80243e-06
-7.79963e-06
8.27264e-08
1.87826e-06
-6.98537e-06
8.39293e-08
1.94285e-06
-6.1051e-06
8.52018e-08
1.99784e-06
-5.17521e-06
8.6435e-08
2.04459e-06
-4.20975e-06
8.7471e-08
2.08362e-06
-3.22016e-06
8.81044e-08
2.11432e-06
-2.2156e-06
8.80849e-08
2.13467e-06
-1.20405e-06
8.71292e-08
2.14123e-06
-1.93926e-07
8.49521e-08
2.12941e-06
8.04195e-07
8.13215e-08
2.09435e-06
1.78026e-06
7.61443e-08
2.03161e-06
2.73115e-06
6.95299e-08
1.93737e-06
3.66495e-06
6.17928e-08
1.80861e-06
4.60175e-06
5.34138e-08
1.64333e-06
5.56985e-06
4.49874e-08
1.44153e-06
6.59453e-06
3.71528e-08
1.20711e-06
7.67534e-06
3.04741e-08
9.50246e-07
8.74922e-06
2.52376e-08
6.88283e-07
9.65056e-06
2.12051e-08
4.39309e-07
1.01314e-05
1.76399e-08
2.20034e-07
9.94072e-06
1.3702e-08
6.20436e-08
8.36331e-06
8.94299e-09
4.12759e-06
3.39769e-09
5.69202e-08
-2.49172e-06
1.75592e-08
1.88896e-07
-6.11084e-06
3.93947e-08
3.58028e-07
-8.45187e-06
5.28632e-08
5.36439e-07
-9.78366e-06
6.13172e-08
7.10902e-07
-1.04224e-05
6.67387e-08
8.78251e-07
-1.06724e-05
7.02137e-08
1.03753e-06
-1.06983e-05
7.24344e-08
1.18741e-06
-1.05625e-05
7.39332e-08
1.32617e-06
-1.02868e-05
7.50766e-08
1.45212e-06
-9.88034e-06
7.61213e-08
1.56408e-06
-9.35031e-06
7.72578e-08
1.66173e-06
-8.7067e-06
7.85889e-08
1.74564e-06
-7.96378e-06
8.01446e-08
1.81713e-06
-7.13886e-06
8.191e-08
1.87796e-06
-6.24986e-06
8.38258e-08
1.93001e-06
-5.31314e-06
8.57851e-08
1.97481e-06
-4.34229e-06
8.76317e-08
2.01316e-06
-3.34777e-06
8.91588e-08
2.04465e-06
-2.33731e-06
9.01072e-08
2.06737e-06
-1.31706e-06
9.01696e-08
2.0778e-06
-2.9349e-07
8.9014e-08
2.07096e-06
7.2456e-07
8.63348e-08
2.04136e-06
1.72776e-06
8.19477e-08
1.98386e-06
2.71262e-06
7.58743e-08
1.89411e-06
3.68617e-06
6.83646e-08
1.76882e-06
4.66701e-06
5.98674e-08
1.60612e-06
5.68141e-06
5.09756e-08
1.40658e-06
6.75159e-06
4.23554e-08
1.1749e-06
7.87229e-06
3.46323e-08
9.22143e-07
8.97375e-06
2.8209e-08
6.65998e-07
9.8838e-06
2.3015e-08
4.23935e-07
1.03553e-05
1.84872e-08
2.11787e-07
1.01394e-05
1.39982e-08
5.95833e-08
8.50727e-06
9.1771e-09
4.18503e-06
3.65994e-09
5.63788e-08
-2.56555e-06
1.72584e-08
1.8659e-07
-6.27935e-06
3.81217e-08
3.52776e-07
-8.66877e-06
5.05607e-08
5.27309e-07
-1.00165e-05
5.81657e-08