/*--------------------------------*- C++ -*----------------------------------*\
| =========                 |                                                 |
| \\      /  F ield         | OpenFOAM: The Open Source CFD Toolbox           |
|  \\    /   O peration     | Version:  v1912                                 |
|   \\  /    A nd           | Website:  www.openfoam.com                      |
|    \\/     M anipulation  |                                                 |
\*---------------------------------------------------------------------------*/
FoamFile
{
    version     2.0;
    format      ascii;
    class       volVectorField;
    location    "166/oil";
    object      U;
}
// * * * * * * * * * * * * * * * * * * * * * * * * * * * * * * * * * * * * * //

dimensions      [0 1 -1 0 0 0 0];


internalField   nonuniform List<vector> 
35580
(
(-1.03531e-09 2.07791e-09 -1.05673e-09)
(1.10457e-09 1.87463e-09 -2.54834e-09)
(9.88602e-09 1.84371e-09 -4.10386e-09)
(2.37023e-08 2.30576e-09 -5.67811e-09)
(4.04836e-08 3.04602e-09 -6.94526e-09)
(5.78844e-08 3.91823e-09 -7.79765e-09)
(7.37351e-08 4.83909e-09 -8.22734e-09)
(8.61534e-08 5.76943e-09 -8.28292e-09)
(9.36e-08 6.68512e-09 -8.03809e-09)
(9.50537e-08 7.56355e-09 -7.55914e-09)
(8.99541e-08 8.3566e-09 -6.91316e-09)
(7.83432e-08 9.02778e-09 -6.26815e-09)
(6.09255e-08 9.55392e-09 -5.66895e-09)
(3.87923e-08 9.95385e-09 -5.24166e-09)
(1.36471e-08 1.01741e-08 -5.01806e-09)
(-1.25982e-08 1.02008e-08 -5.02241e-09)
(-3.78232e-08 9.97118e-09 -5.24109e-09)
(-6.00104e-08 9.56492e-09 -5.65561e-09)
(-7.75466e-08 9.00611e-09 -6.22877e-09)
(-8.92783e-08 8.34799e-09 -6.88267e-09)
(-9.45744e-08 7.56823e-09 -7.52192e-09)
(-9.32793e-08 6.67937e-09 -8.0223e-09)
(-8.59341e-08 5.76322e-09 -8.26631e-09)
(-7.36104e-08 4.83529e-09 -8.21859e-09)
(-5.78313e-08 3.91396e-09 -7.7907e-09)
(-4.0489e-08 3.04404e-09 -6.93879e-09)
(-2.37451e-08 2.30337e-09 -5.66839e-09)
(-9.94219e-09 1.83402e-09 -4.08537e-09)
(-1.14973e-09 1.85141e-09 -2.5262e-09)
(1.01573e-09 2.02718e-09 -1.04275e-09)
(5.50881e-10 -2.0057e-09 5.38042e-10)
(1.08425e-08 -1.20337e-08 4.72225e-10)
(3.15195e-08 -2.00114e-08 -2.47795e-10)
(6.03009e-08 -2.43322e-08 -1.18959e-09)
(9.37686e-08 -2.56958e-08 -1.88381e-09)
(1.2791e-07 -2.48453e-08 -2.12175e-09)
(1.58701e-07 -2.23916e-08 -1.85514e-09)
(1.82519e-07 -1.87916e-08 -1.12002e-09)
(1.96362e-07 -1.44324e-08 -3.61808e-12)
(1.98117e-07 -9.67561e-09 1.36599e-09)
(1.86625e-07 -4.90337e-09 2.96769e-09)
(1.61909e-07 -5.26503e-10 4.46997e-09)
(1.25502e-07 3.08527e-09 5.79001e-09)
(7.97957e-08 5.7238e-09 6.73797e-09)
(2.80515e-08 7.12457e-09 7.23864e-09)
(-2.59311e-08 7.15579e-09 7.25536e-09)
(-7.78553e-08 5.70081e-09 6.76242e-09)
(-1.23658e-07 3.01266e-09 5.84408e-09)
(-1.60098e-07 -6.75905e-10 4.55793e-09)
(-1.84915e-07 -5.00246e-09 3.05735e-09)
(-1.96746e-07 -9.76746e-09 1.48281e-09)
(-1.95283e-07 -1.45166e-08 7.87493e-11)
(-1.81684e-07 -1.88459e-08 -1.04193e-09)
(-1.5813e-07 -2.2423e-08 -1.79283e-09)
(-1.27569e-07 -2.4878e-08 -2.06929e-09)
(-9.36161e-08 -2.57451e-08 -1.83675e-09)
(-6.02844e-08 -2.4414e-08 -1.15139e-09)
(-3.15584e-08 -2.01307e-08 -2.15531e-10)
(-1.08684e-08 -1.21633e-08 4.89178e-10)
(-5.54329e-10 -2.12467e-09 5.26632e-10)
(2.11963e-09 -1.93743e-08 2.11706e-09)
(2.12276e-08 -5.11542e-08 3.74901e-09)
(5.19132e-08 -7.46466e-08 4.09369e-09)
(9.13496e-08 -8.95656e-08 4.04444e-09)
(1.35385e-07 -9.74931e-08 4.12597e-09)
(1.79423e-07 -9.99457e-08 4.58048e-09)
(2.18633e-07 -9.82263e-08 5.49406e-09)
(2.4853e-07 -9.33955e-08 6.85891e-09)
(2.65343e-07 -8.63713e-08 8.58983e-09)
(2.66391e-07 -7.80051e-08 1.05346e-08)
(2.50129e-07 -6.9152e-08 1.26803e-08)
(2.16509e-07 -6.07321e-08 1.46677e-08)
(1.6754e-07 -5.36679e-08 1.63485e-08)
(1.06404e-07 -4.85503e-08 1.7564e-08)
(3.73782e-08 -4.58422e-08 1.82099e-08)
(-3.46388e-08 -4.58507e-08 1.82532e-08)
(-1.03953e-07 -4.8677e-08 1.75987e-08)
(-1.65211e-07 -5.39465e-08 1.64002e-08)
(-2.14163e-07 -6.1114e-08 1.47203e-08)
(-2.47986e-07 -6.94754e-08 1.2769e-08)
(-2.64687e-07 -7.82957e-08 1.06458e-08)
(-2.63992e-07 -8.65848e-08 8.66474e-09)
(-2.47492e-07 -9.35395e-08 6.93083e-09)
(-2.17911e-07 -9.83251e-08 5.56014e-09)
(-1.78988e-07 -1.00035e-07 4.64007e-09)
(-1.35182e-07 -9.76096e-08 4.18403e-09)
(-9.13055e-08 -8.9738e-08 4.09341e-09)
(-5.19421e-08 -7.48787e-08 4.12688e-09)
(-2.12663e-08 -5.13803e-08 3.75329e-09)
(-2.13743e-09 -1.95187e-08 2.09464e-09)
(3.38023e-09 -4.79107e-08 3.37176e-09)
(2.99264e-08 -1.11514e-07 6.24754e-09)
(6.89819e-08 -1.56228e-07 7.32086e-09)
(1.16804e-07 -1.85881e-07 7.86965e-09)
(1.68601e-07 -2.03644e-07 8.50877e-09)
(2.19446e-07 -2.1198e-07 9.47607e-09)
(2.64124e-07 -2.12958e-07 1.08656e-08)
(2.97737e-07 -2.08298e-07 1.26787e-08)
(3.16091e-07 -1.99542e-07 1.4837e-08)
(3.16141e-07 -1.88127e-07 1.71835e-08)
(2.9607e-07 -1.75501e-07 1.96639e-08)
(2.55839e-07 -1.63053e-07 2.19657e-08)
(1.9778e-07 -1.52355e-07 2.39277e-08)
(1.25466e-07 -1.44489e-07 2.5313e-08)
(4.40342e-08 -1.40344e-07 2.60386e-08)
(-4.09279e-08 -1.40402e-07 2.60938e-08)
(-1.22734e-07 -1.44655e-07 2.53302e-08)
(-1.95122e-07 -1.52632e-07 2.39414e-08)
(-2.53174e-07 -1.63353e-07 2.19931e-08)
(-2.93632e-07 -1.75751e-07 1.97257e-08)
(-3.14127e-07 -1.88351e-07 1.72405e-08)
(-3.14458e-07 -1.99702e-07 1.4872e-08)
(-2.96471e-07 -2.08407e-07 1.2717e-08)
(-2.63212e-07 -2.13033e-07 1.09048e-08)
(-2.18858e-07 -2.12064e-07 9.51894e-09)
(-1.68301e-07 -2.0378e-07 8.55754e-09)
(-1.16714e-07 -1.86099e-07 7.90665e-09)
(-6.89934e-08 -1.56503e-07 7.33188e-09)
(-2.99775e-08 -1.11753e-07 6.22711e-09)
(-3.41107e-09 -4.80949e-08 3.33625e-09)
(4.27286e-09 -8.52299e-08 4.26314e-09)
(3.64917e-08 -1.88601e-07 7.97466e-09)
(8.21369e-08 -2.58853e-07 9.50881e-09)
(1.36522e-07 -3.06093e-07 1.04315e-08)
(1.94234e-07 -3.35939e-07 1.14172e-08)
(2.50098e-07 -3.52069e-07 1.27369e-08)
(2.98671e-07 -3.57398e-07 1.44709e-08)
(3.34843e-07 -3.54327e-07 1.66324e-08)
(3.54178e-07 -3.45021e-07 1.91406e-08)
(3.53412e-07 -3.31517e-07 2.18417e-08)
(3.30555e-07 -3.15855e-07 2.46087e-08)
(2.85477e-07 -2.99896e-07 2.72014e-08)
(2.20569e-07 -2.85824e-07 2.94338e-08)
(1.39825e-07 -2.75254e-07 3.09765e-08)
(4.90501e-08 -2.69702e-07 3.17838e-08)
(-4.56636e-08 -2.69789e-07 3.18508e-08)
(-1.36868e-07 -2.75385e-07 3.09991e-08)
(-2.17586e-07 -2.85913e-07 2.94411e-08)
(-2.82529e-07 -2.99962e-07 2.7255e-08)
(-3.27892e-07 -3.15889e-07 2.4672e-08)
(-3.51195e-07 -3.3155e-07 2.18904e-08)
(-3.52389e-07 -3.45046e-07 1.91792e-08)
(-3.33452e-07 -3.54361e-07 1.66745e-08)
(-2.97653e-07 -3.57442e-07 1.45128e-08)
(-2.49413e-07 -3.52151e-07 1.27742e-08)
(-1.93849e-07 -3.3608e-07 1.14533e-08)
(-1.36381e-07 -3.06322e-07 1.0446e-08)
(-8.21363e-08 -2.59114e-07 9.48702e-09)
(-3.65625e-08 -1.88751e-07 7.9114e-09)
(-4.32244e-09 -8.54435e-08 4.2077e-09)
(4.84333e-09 -1.28793e-07 4.85602e-09)
(4.09886e-08 -2.77729e-07 9.0846e-09)
(9.14067e-08 -3.76744e-07 1.08785e-08)
(1.50594e-07 -4.43625e-07 1.20194e-08)
(2.1261e-07 -4.87132e-07 1.32193e-08)
(2.72107e-07 -5.12498e-07 1.47757e-08)
(3.23507e-07 -5.23579e-07 1.67725e-08)
(3.61573e-07 -5.23469e-07 1.9233e-08)
(3.81713e-07 -5.14934e-07 2.20679e-08)
(3.80489e-07 -5.00566e-07 2.51275e-08)
(3.55844e-07 -4.82965e-07 2.82161e-08)
(3.07465e-07 -4.64504e-07 3.11545e-08)
(2.37526e-07 -4.47744e-07 3.3681e-08)
(1.50532e-07 -4.34858e-07 3.54197e-08)
(5.27691e-08 -4.28064e-07 3.63157e-08)
(-4.9193e-08 -4.28139e-07 3.63789e-08)
(-1.47432e-07 -4.3497e-07 3.54297e-08)
(-2.34319e-07 -4.47653e-07 3.36851e-08)
(-3.0431e-07 -4.64445e-07 3.12379e-08)
(-3.53025e-07 -4.82894e-07 2.82971e-08)
(-3.7815e-07 -5.00502e-07 2.51934e-08)
(-3.79834e-07 -5.14893e-07 2.2126e-08)
(-3.60113e-07 -5.23472e-07 1.92897e-08)
(-3.22437e-07 -5.2362e-07 1.68331e-08)
(-2.71373e-07 -5.1259e-07 1.48228e-08)
(-2.12171e-07 -4.87271e-07 1.32569e-08)
(-1.50407e-07 -4.43822e-07 1.20214e-08)
(-9.13948e-08 -3.76932e-07 1.08282e-08)
(-4.109e-08 -2.77753e-07 8.9825e-09)
(-4.91656e-09 -1.29029e-07 4.7822e-09)
(5.16949e-09 -1.76323e-07 5.18816e-09)
(4.36478e-08 -3.74744e-07 9.69687e-09)
(9.69857e-08 -5.04713e-07 1.1646e-08)
(1.59125e-07 -5.9264e-07 1.29081e-08)
(2.23798e-07 -6.50983e-07 1.42423e-08)
(2.85549e-07 -6.86786e-07 1.59794e-08)
(3.38754e-07 -7.04956e-07 1.81975e-08)
(3.78121e-07 -7.0929e-07 2.09333e-08)
(3.98963e-07 -7.03107e-07 2.40858e-08)
(3.97705e-07 -6.89479e-07 2.75061e-08)
(3.72209e-07 -6.71466e-07 3.09513e-08)
(3.21963e-07 -6.51939e-07 3.42439e-08)
(2.48854e-07 -6.33671e-07 3.7099e-08)
(1.57712e-07 -6.19117e-07 3.90517e-08)
(5.52453e-08 -6.11339e-07 4.00174e-08)
(-5.15388e-08 -6.11372e-07 4.00825e-08)
(-1.54535e-07 -6.19276e-07 3.90432e-08)
(-2.45549e-07 -6.33511e-07 3.7118e-08)
(-3.18708e-07 -6.51882e-07 3.43618e-08)
(-3.69314e-07 -6.7141e-07 3.10637e-08)
(-3.95316e-07 -6.89427e-07 2.75996e-08)
(-3.97055e-07 -7.03088e-07 2.41678e-08)
(-3.7664e-07 -7.09324e-07 2.10067e-08)
(-3.37669e-07 -7.0503e-07 1.82712e-08)
(-2.84797e-07 -6.86897e-07 1.60316e-08)
(-2.2333e-07 -6.51112e-07 1.42827e-08)
(-1.58906e-07 -5.9277e-07 1.28959e-08)
(-9.69558e-08 -5.04739e-07 1.15621e-08)
(-4.37603e-08 -3.74568e-07 9.56938e-09)
(-5.25028e-09 -1.76621e-07 5.10992e-09)
(5.26847e-09 -2.25782e-07 5.30872e-09)
(4.45724e-08 -4.75754e-07 9.91597e-09)
(9.89442e-08 -6.37833e-07 1.19305e-08)
(1.62068e-07 -7.47616e-07 1.32582e-08)
(2.27576e-07 -8.21647e-07 1.46717e-08)
(2.90019e-07 -8.68968e-07 1.65365e-08)
(3.43832e-07 -8.95588e-07 1.89463e-08)
(3.83772e-07 -9.06025e-07 2.1932e-08)
(4.0513e-07 -9.04067e-07 2.53881e-08)
(4.04227e-07 -8.93174e-07 2.91681e-08)
(3.78824e-07 -8.76773e-07 3.29987e-08)
(3.28214e-07 -8.5806e-07 3.66297e-08)
(2.53863e-07 -8.39834e-07 3.98324e-08)
(1.6079e-07 -8.24404e-07 4.20184e-08)
(5.62706e-08 -8.16148e-07 4.30828e-08)
(-5.26173e-08 -8.16326e-07 4.31898e-08)
(-1.57695e-07 -8.24847e-07 4.20283e-08)
(-2.50611e-07 -8.39803e-07 3.98899e-08)
(-3.24957e-07 -8.58113e-07 3.67542e-08)
(-3.75935e-07 -8.76824e-07 3.31058e-08)
(-4.01831e-07 -8.93211e-07 2.92607e-08)
(-4.03215e-07 -9.04129e-07 2.54705e-08)
(-3.82283e-07 -9.06143e-07 2.20045e-08)
(-3.42729e-07 -8.95757e-07 1.90217e-08)
(-2.89238e-07 -8.69151e-07 1.65912e-08)
(-2.27075e-07 -8.21815e-07 1.46966e-08)
(-1.61815e-07 -7.47698e-07 1.32138e-08)
(-9.88933e-08 -6.37677e-07 1.18215e-08)
(-4.46807e-08 -4.75368e-07 9.78757e-09)
(-5.35637e-09 -2.26222e-07 5.24008e-09)
(5.18355e-09 -2.75348e-07 5.2232e-09)
(4.38382e-08 -5.76979e-07 9.74924e-09)
(9.72488e-08 -7.71345e-07 1.17521e-08)
(1.59189e-07 -9.03213e-07 1.31266e-08)
(2.2344e-07 -9.93328e-07 1.45921e-08)
(2.84731e-07 -1.05299e-06 1.65103e-08)
(3.37669e-07 -1.08936e-06 1.90387e-08)
(3.77182e-07 -1.10759e-06 2.2204e-08)
(3.9865e-07 -1.11186e-06 2.58944e-08)
(3.9835e-07 -1.10592e-06 2.99711e-08)
(3.73934e-07 -1.09335e-06 3.41376e-08)
(3.24588e-07 -1.07744e-06 3.80618e-08)
(2.51314e-07 -1.06102e-06 4.15234e-08)
(1.59051e-07 -1.04612e-06 4.39661e-08)
(5.5679e-08 -1.03836e-06 4.52072e-08)
(-5.21171e-08 -1.03856e-06 4.53111e-08)
(-1.5604e-07 -1.04649e-06 4.39263e-08)
(-2.48137e-07 -1.06095e-06 4.15696e-08)
(-3.21358e-07 -1.07756e-06 3.81759e-08)
(-3.7111e-07 -1.09352e-06 3.42374e-08)
(-3.95995e-07 -1.10606e-06 3.00676e-08)
(-3.9678e-07 -1.11203e-06 2.59812e-08)
(-3.75731e-07 -1.10783e-06 2.22771e-08)
(-3.36576e-07 -1.08966e-06 1.91096e-08)
(-2.83942e-07 -1.05329e-06 1.65451e-08)
(-2.22932e-07 -9.93506e-07 1.4556e-08)
(-1.5891e-07 -9.0309e-07 1.30278e-08)
(-9.7159e-08 -7.70831e-07 1.16278e-08)
(-4.39048e-08 -5.7633e-07 9.62601e-09)
(-5.25532e-09 -2.75872e-07 5.15329e-09)
(4.91132e-09 -3.23138e-07 4.90617e-09)
(4.14095e-08 -6.74591e-07 9.15989e-09)
(9.18057e-08 -9.00322e-07 1.10498e-08)
(1.50226e-07 -1.05391e-06 1.24243e-08)
(2.10882e-07 -1.16004e-06 1.3936e-08)
(2.68856e-07 -1.23235e-06 1.58652e-08)
(3.19121e-07 -1.27941e-06 1.84071e-08)
(3.56915e-07 -1.30689e-06 2.16326e-08)
(3.77858e-07 -1.31924e-06 2.54131e-08)
(3.78283e-07 -1.32032e-06 2.96322e-08)
(3.55751e-07 -1.31377e-06 3.39895e-08)
(3.09328e-07 -1.30267e-06 3.81164e-08)
(2.39714e-07 -1.2896e-06 4.16434e-08)
(1.51579e-07 -1.27671e-06 4.42533e-08)
(5.30897e-08 -1.27046e-06 4.56926e-08)
(-4.98136e-08 -1.27065e-06 4.5799e-08)
(-1.48794e-07 -1.2768e-06 4.42101e-08)
(-2.36591e-07 -1.28892e-06 4.16706e-08)
(-3.06115e-07 -1.30235e-06 3.82317e-08)
(-3.53013e-07 -1.31389e-06 3.40829e-08)
(-3.75968e-07 -1.32057e-06 2.97328e-08)
(-3.76045e-07 -1.31953e-06 2.54995e-08)
(-3.55526e-07 -1.30728e-06 2.1701e-08)
(-3.18053e-07 -1.2799e-06 1.84836e-08)
(-2.68057e-07 -1.23275e-06 1.58939e-08)
(-2.10335e-07 -1.16003e-06 1.39016e-08)
(-1.49871e-07 -1.05336e-06 1.24062e-08)
(-9.16027e-08 -8.99395e-07 1.10636e-08)
(-4.13853e-08 -6.73764e-07 9.1724e-09)
(-4.94677e-09 -3.23762e-07 4.90009e-09)
(4.44721e-09 -3.67173e-07 4.37839e-09)
(3.72366e-08 -7.64427e-07 8.2102e-09)
(8.25256e-08 -1.01928e-06 9.89393e-09)
(1.34974e-07 -1.19355e-06 1.11588e-08)
(1.8949e-07 -1.31518e-06 1.26547e-08)
(2.41745e-07 -1.3999e-06 1.4545e-08)
(2.87308e-07 -1.45799e-06 1.69887e-08)
(3.21843e-07 -1.49564e-06 2.00929e-08)
(3.41385e-07 -1.51737e-06 2.37267e-08)
(3.42442e-07 -1.527e-06 2.78523e-08)
(3.22487e-07 -1.52797e-06 3.21727e-08)
(2.80681e-07 -1.52289e-06 3.62922e-08)
(2.17753e-07 -1.51466e-06 3.96992e-08)
(1.37872e-07 -1.50584e-06 4.23283e-08)
(4.83529e-08 -1.50174e-06 4.38262e-08)
(-4.53908e-08 -1.50198e-06 4.39613e-08)
(-1.3532e-07 -1.50584e-06 4.23456e-08)
(-2.1478e-07 -1.51387e-06 3.96446e-08)
(-2.7781e-07 -1.52276e-06 3.63111e-08)
(-3.20076e-07 -1.52825e-06 3.21898e-08)
(-3.4026e-07 -1.52738e-06 2.79427e-08)
(-3.39678e-07 -1.51773e-06 2.38191e-08)
(-3.20574e-07 -1.49616e-06 2.01535e-08)
(-2.86342e-07 -1.45867e-06 1.70768e-08)
(-2.41056e-07 -1.40025e-06 1.45764e-08)
(-1.89009e-07 -1.31458e-06 1.26173e-08)
(-1.34582e-07 -1.19218e-06 1.11136e-08)
(-8.21996e-08 -1.01773e-06 9.80565e-09)
(-3.71025e-08 -7.63258e-07 8.10853e-09)
(-4.40949e-09 -3.67726e-07 4.35591e-09)
(3.76758e-09 -4.05503e-07 3.6446e-09)
(3.12628e-08 -8.42229e-07 6.85775e-09)
(6.92452e-08 -1.12211e-06 8.30257e-09)
(1.13425e-07 -1.31489e-06 9.44047e-09)
(1.59365e-07 -1.45108e-06 1.08162e-08)
(2.03421e-07 -1.54768e-06 1.25953e-08)
(2.42077e-07 -1.61649e-06 1.483e-08)
(2.71639e-07 -1.66446e-06 1.75928e-08)
(2.88739e-07 -1.696e-06 2.07748e-08)
(2.90164e-07 -1.71451e-06 2.44396e-08)
(2.73519e-07 -1.72295e-06 2.82668e-08)
(2.3812e-07 -1.72444e-06 3.19216e-08)
(1.84824e-07 -1.72252e-06 3.5107e-08)
(1.17366e-07 -1.71933e-06 3.76619e-08)
(4.1232e-08 -1.71789e-06 3.90924e-08)
(-3.86662e-08 -1.71803e-06 3.92351e-08)
(-1.15209e-07 -1.71916e-06 3.78426e-08)
(-1.82374e-07 -1.72248e-06 3.53397e-08)
(-2.35828e-07 -1.7263e-06 3.23553e-08)
(-2.71418e-07 -1.7245e-06 2.85399e-08)
(-2.88133e-07 -1.71526e-06 2.46247e-08)
(-2.8718e-07 -1.69634e-06 2.08255e-08)
(-2.7056e-07 -1.66497e-06 1.74309e-08)
(-2.41232e-07 -1.61718e-06 1.4586e-08)
(-2.02759e-07 -1.54772e-06 1.23007e-08)
(-1.58756e-07 -1.44986e-06 1.05602e-08)
(-1.12909e-07 -1.31307e-06 9.27938e-09)
(-6.89488e-08 -1.12047e-06 8.21748e-09)
(-3.11676e-08 -8.40859e-07 6.82947e-09)
(-3.72043e-09 -4.05896e-07 3.69667e-09)
(2.94864e-09 -4.36071e-07 2.6587e-09)
(2.39052e-08 -9.04013e-07 4.97109e-09)
(5.25482e-08 -1.20364e-06 6.08028e-09)
(8.60905e-08 -1.41128e-06 6.9611e-09)
(1.21087e-07 -1.55978e-06 7.9683e-09)
(1.54723e-07 -1.66719e-06 9.35005e-09)
(1.84278e-07 -1.74572e-06 1.11914e-08)
(2.06997e-07 -1.80301e-06 1.35641e-08)
(2.20575e-07 -1.84347e-06 1.62924e-08)
(2.22185e-07 -1.86983e-06 1.92861e-08)
(2.0946e-07 -1.88543e-06 2.22094e-08)
(1.82182e-07 -1.89465e-06 2.51378e-08)
(1.41727e-07 -1.90005e-06 2.7968e-08)
(9.04435e-08 -1.90181e-06 3.00933e-08)
(3.20114e-08 -1.90244e-06 3.11868e-08)
(-2.93193e-08 -1.90193e-06 3.10994e-08)
(-8.82884e-08 -1.90038e-06 2.99162e-08)
(-1.39818e-07 -1.89908e-06 2.78e-08)
(-1.80711e-07 -1.8968e-06 2.52519e-08)
(-2.07689e-07 -1.88724e-06 2.22173e-08)
(-2.20185e-07 -1.87047e-06 1.91464e-08)
(-2.19159e-07 -1.84349e-06 1.61715e-08)
(-2.06148e-07 -1.80324e-06 1.34893e-08)
(-1.83529e-07 -1.74605e-06 1.12121e-08)
(-1.54147e-07 -1.6669e-06 9.39118e-09)
(-1.20686e-07 -1.55883e-06 8.0278e-09)
(-8.58652e-08 -1.41057e-06 7.04916e-09)
(-5.243e-08 -1.20363e-06 6.24772e-09)
(-2.36755e-08 -9.03814e-07 5.18883e-09)
(-2.8347e-09 -4.36894e-07 2.78882e-09)
(1.87021e-09 -4.57904e-07 1.72853e-09)
(1.51232e-08 -9.47696e-07 3.20028e-09)
(3.32051e-08 -1.26132e-06 3.82429e-09)
(5.44401e-08 -1.47865e-06 4.28235e-09)
(7.64139e-08 -1.63536e-06 4.87405e-09)
(9.7506e-08 -1.75069e-06 5.77999e-09)
(1.16072e-07 -1.83669e-06 7.01737e-09)
(1.30294e-07 -1.90118e-06 8.62884e-09)
(1.3903e-07 -1.94864e-06 1.05271e-08)
(1.40432e-07 -1.98131e-06 1.25402e-08)
(1.32561e-07 -2.00378e-06 1.45333e-08)
(1.15523e-07 -2.02008e-06 1.66214e-08)
(9.01709e-08 -2.03137e-06 1.8559e-08)
(5.77516e-08 -2.03696e-06 2.00025e-08)
(2.0738e-08 -2.03903e-06 2.06629e-08)
(-1.80371e-08 -2.03712e-06 2.03268e-08)
(-5.55645e-08 -2.03284e-06 1.94056e-08)
(-8.81078e-08 -2.02743e-06 1.78324e-08)
(-1.13864e-07 -2.01902e-06 1.58571e-08)
(-1.31157e-07 -2.0026e-06 1.37077e-08)
(-1.39252e-07 -1.9793e-06 1.16859e-08)
(-1.3856e-07 -1.94585e-06 9.92052e-09)
(-1.30213e-07 -1.89948e-06 8.3736e-09)
(-1.15803e-07 -1.83666e-06 7.08879e-09)
(-9.70987e-08 -1.7515e-06 6.04251e-09)
(-7.58716e-08 -1.63629e-06 5.19779e-09)
(-5.39032e-08 -1.47955e-06 4.57559e-09)
(-3.28769e-08 -1.26213e-06 4.04701e-09)
(-1.48393e-08 -9.47928e-07 3.33962e-09)
(-1.7919e-09 -4.58558e-07 1.75546e-09)
(6.91885e-10 -4.69333e-07 5.48714e-10)
(5.31672e-09 -9.70191e-07 1.09228e-09)
(1.16139e-08 -1.29161e-06 1.37165e-09)
(1.91844e-08 -1.51449e-06 1.55621e-09)
(2.6972e-08 -1.67573e-06 1.79918e-09)
(3.44934e-08 -1.79489e-06 2.17895e-09)
(4.13091e-08 -1.88386e-06 2.62992e-09)
(4.65991e-08 -1.95068e-06 3.08695e-09)
(4.97841e-08 -2.0013e-06 3.67686e-09)
(5.02733e-08 -2.03875e-06 4.48416e-09)
(4.7458e-08 -2.06654e-06 5.32518e-09)
(4.15298e-08 -2.08705e-06 6.10361e-09)
(3.24633e-08 -2.10091e-06 6.7046e-09)
(2.09173e-08 -2.10882e-06 7.33738e-09)
(7.93085e-09 -2.11265e-06 7.64172e-09)
(-5.80697e-09 -2.11073e-06 7.40106e-09)
(-1.95909e-08 -2.10538e-06 7.09774e-09)
(-3.10907e-08 -2.09793e-06 6.52244e-09)
(-4.00266e-08 -2.08643e-06 5.70481e-09)
(-4.61236e-08 -2.06602e-06 4.90128e-09)
(-4.89792e-08 -2.03782e-06 4.16319e-09)
(-4.88516e-08 -1.99957e-06 3.51511e-09)
(-4.60497e-08 -1.94942e-06 2.91461e-09)
(-4.10672e-08 -1.88377e-06 2.43275e-09)
(-3.44597e-08 -1.79574e-06 2.08049e-09)
(-2.68627e-08 -1.67694e-06 1.79011e-09)
(-1.90222e-08 -1.51575e-06 1.56927e-09)
(-1.15566e-08 -1.29281e-06 1.3854e-09)
(-5.17927e-09 -9.70998e-07 1.17493e-09)
(-5.94899e-10 -4.69882e-07 6.29087e-10)
(-4.92637e-10 -4.69833e-07 -5.80195e-10)
(-4.56618e-09 -9.71089e-07 -1.05233e-09)
(-1.02592e-08 -1.293e-06 -1.23565e-09)
(-1.67328e-08 -1.51611e-06 -1.39044e-09)
(-2.35109e-08 -1.67754e-06 -1.58863e-09)
(-3.00356e-08 -1.79699e-06 -1.86953e-09)
(-3.5793e-08 -1.8863e-06 -2.23512e-09)
(-4.03306e-08 -1.95341e-06 -2.68868e-09)
(-4.29743e-08 -2.00404e-06 -3.26006e-09)
(-4.31011e-08 -2.04119e-06 -3.89377e-09)
(-4.03952e-08 -2.06888e-06 -4.68632e-09)
(-3.50707e-08 -2.08937e-06 -5.56299e-09)
(-2.75909e-08 -2.10298e-06 -6.2931e-09)
(-1.79596e-08 -2.11115e-06 -6.57783e-09)
(-6.33077e-09 -2.11491e-06 -6.60228e-09)
(6.14178e-09 -2.11276e-06 -6.51054e-09)
(1.75658e-08 -2.10813e-06 -6.07472e-09)
(2.81386e-08 -2.10089e-06 -5.54381e-09)
(3.62198e-08 -2.08883e-06 -5.0816e-09)
(4.11546e-08 -2.06828e-06 -4.35024e-09)
(4.37302e-08 -2.04009e-06 -3.57929e-09)
(4.36838e-08 -2.00169e-06 -2.8567e-09)
(4.12209e-08 -1.95138e-06 -2.40374e-09)
(3.671e-08 -1.88539e-06 -2.11968e-09)
(3.06917e-08 -1.79701e-06 -1.82932e-09)
(2.39991e-08 -1.67794e-06 -1.60031e-09)
(1.70673e-08 -1.51653e-06 -1.40775e-09)
(1.04315e-08 -1.29346e-06 -1.22104e-09)
(4.75702e-09 -9.7151e-07 -9.4463e-10)
(6.15091e-10 -4.70165e-07 -4.75641e-10)
(-1.71744e-09 -4.59215e-07 -1.69852e-09)
(-1.43105e-08 -9.49412e-07 -3.21808e-09)
(-3.17055e-08 -1.2643e-06 -3.91088e-09)
(-5.19127e-08 -1.48226e-06 -4.43076e-09)
(-7.30415e-08 -1.63961e-06 -5.03807e-09)
(-9.34282e-08 -1.75578e-06 -5.85344e-09)
(-1.11298e-07 -1.84238e-06 -6.92935e-09)
(-1.24974e-07 -1.9069e-06 -8.33249e-09)
(-1.32967e-07 -1.95454e-06 -1.00769e-08)
(-1.33863e-07 -1.98757e-06 -1.19064e-08)
(-1.26164e-07 -2.01053e-06 -1.39303e-08)
(-1.09811e-07 -2.02715e-06 -1.60706e-08)
(-8.58749e-08 -2.03853e-06 -1.79178e-08)
(-5.51515e-08 -2.04531e-06 -1.90967e-08)
(-1.9246e-08 -2.04799e-06 -1.95528e-08)
(1.85162e-08 -2.04526e-06 -1.92892e-08)
(5.41606e-08 -2.04181e-06 -1.84238e-08)
(8.59647e-08 -2.0369e-06 -1.70239e-08)
(1.10464e-07 -2.02681e-06 -1.54481e-08)
(1.26359e-07 -2.00961e-06 -1.34101e-08)
(1.3438e-07 -1.98591e-06 -1.14718e-08)
(1.33671e-07 -1.95209e-06 -9.59697e-09)
(1.25339e-07 -1.90483e-06 -7.98228e-09)
(1.115e-07 -1.84096e-06 -6.63672e-09)
(9.36181e-08 -1.75531e-06 -5.53818e-09)
(7.34222e-08 -1.63979e-06 -4.71905e-09)
(5.23185e-08 -1.4827e-06 -4.09758e-09)
(3.20219e-08 -1.26498e-06 -3.61388e-09)
(1.46079e-08 -9.50187e-07 -2.97406e-09)
(1.84392e-09 -4.59462e-07 -1.60907e-09)
(-2.81036e-09 -4.38128e-07 -2.70608e-09)
(-2.32453e-08 -9.06528e-07 -5.05587e-09)
(-5.1385e-08 -1.20745e-06 -6.12651e-09)
(-8.41405e-08 -1.4152e-06 -6.91847e-09)
(-1.18274e-07 -1.56422e-06 -7.86962e-09)
(-1.51121e-07 -1.67312e-06 -9.17596e-09)
(-1.79984e-07 -1.75319e-06 -1.09165e-08)
(-2.02187e-07 -1.8114e-06 -1.31709e-08)
(-2.15125e-07 -1.85283e-06 -1.59152e-08)
(-2.16439e-07 -1.87996e-06 -1.88115e-08)
(-2.04038e-07 -1.89616e-06 -2.17905e-08)
(-1.77395e-07 -1.90569e-06 -2.4659e-08)
(-1.38167e-07 -1.91167e-06 -2.73056e-08)
(-8.84305e-08 -1.91488e-06 -2.92964e-08)
(-3.09347e-08 -1.91623e-06 -3.03077e-08)
(2.94975e-08 -1.9141e-06 -3.00664e-08)
(8.71179e-08 -1.9128e-06 -2.892e-08)
(1.38264e-07 -1.91192e-06 -2.69545e-08)
(1.77893e-07 -1.9063e-06 -2.45363e-08)
(2.04062e-07 -1.89549e-06 -2.15828e-08)
(2.16873e-07 -1.87876e-06 -1.86597e-08)
(2.15959e-07 -1.85222e-06 -1.57875e-08)
(2.02875e-07 -1.81175e-06 -1.32272e-08)
(1.80581e-07 -1.754e-06 -1.09733e-08)
(1.51561e-07 -1.67452e-06 -9.16482e-09)
(1.18544e-07 -1.56587e-06 -7.79886e-09)
(8.42478e-08 -1.41654e-06 -6.69474e-09)
(5.1558e-08 -1.20868e-06 -5.84239e-09)
(2.35312e-08 -9.07712e-07 -4.78251e-09)
(2.94603e-09 -4.38123e-07 -2.57754e-09)
(-3.74493e-09 -4.07684e-07 -3.57424e-09)
(-3.09069e-08 -8.44761e-07 -6.6703e-09)
(-6.8199e-08 -1.12564e-06 -8.10844e-09)
(-1.11675e-07 -1.31912e-06 -9.19691e-09)
(-1.57004e-07 -1.45677e-06 -1.04674e-08)
(-2.00586e-07 -1.55554e-06 -1.21879e-08)
(-2.3876e-07 -1.62593e-06 -1.44473e-08)
(-2.67893e-07 -1.67476e-06 -1.72429e-08)
(-2.84591e-07 -1.70729e-06 -2.05556e-08)
(-2.85903e-07 -1.72694e-06 -2.41655e-08)
(-2.6947e-07 -1.73635e-06 -2.79818e-08)
(-2.34402e-07 -1.73849e-06 -3.15541e-08)
(-1.82053e-07 -1.73738e-06 -3.46712e-08)
(-1.15853e-07 -1.73591e-06 -3.71777e-08)
(-4.01566e-08 -1.73556e-06 -3.8681e-08)
(3.89901e-08 -1.73426e-06 -3.8562e-08)
(1.14644e-07 -1.73541e-06 -3.71547e-08)
(1.81991e-07 -1.73903e-06 -3.46418e-08)
(2.3459e-07 -1.73947e-06 -3.15293e-08)
(2.69337e-07 -1.73619e-06 -2.80323e-08)
(2.85906e-07 -1.72662e-06 -2.42441e-08)
(2.85063e-07 -1.70764e-06 -2.05198e-08)
(2.68461e-07 -1.67553e-06 -1.73337e-08)
(2.39318e-07 -1.6267e-06 -1.46286e-08)
(2.01083e-07 -1.55663e-06 -1.24511e-08)
(1.57461e-07 -1.45868e-06 -1.07487e-08)
(1.12045e-07 -1.32192e-06 -9.34784e-09)
(6.84055e-08 -1.12904e-06 -8.19392e-09)
(3.09562e-08 -8.47595e-07 -6.73112e-09)
(3.74394e-09 -4.07843e-07 -3.58013e-09)
(-4.41595e-09 -3.69669e-07 -4.33996e-09)
(-3.69026e-08 -7.67856e-07 -8.1079e-09)
(-8.16439e-08 -1.02358e-06 -9.80611e-09)
(-1.33769e-07 -1.19902e-06 -1.10819e-08)
(-1.87965e-07 -1.32245e-06 -1.25422e-08)
(-2.39907e-07 -1.40914e-06 -1.44817e-08)
(-2.85154e-07 -1.46863e-06 -1.69666e-08)
(-3.19418e-07 -1.50727e-06 -2.00335e-08)
(-3.38711e-07 -1.53006e-06 -2.36963e-08)
(-3.39677e-07 -1.5408e-06 -2.77712e-08)
(-3.19832e-07 -1.54272e-06 -3.20818e-08)
(-2.7823e-07 -1.53851e-06 -3.61533e-08)
(-2.15959e-07 -1.53109e-06 -3.95561e-08)
(-1.36937e-07 -1.52405e-06 -4.21936e-08)
(-4.7182e-08 -1.52075e-06 -4.39084e-08)
(4.61429e-08 -1.51979e-06 -4.3885e-08)
(1.35594e-07 -1.52368e-06 -4.24458e-08)
(2.15253e-07 -1.53229e-06 -3.97847e-08)
(2.77806e-07 -1.53927e-06 -3.61834e-08)
(3.19556e-07 -1.54321e-06 -3.21336e-08)
(3.39634e-07 -1.5412e-06 -2.78157e-08)
(3.3901e-07 -1.53065e-06 -2.36641e-08)
(3.19809e-07 -1.50804e-06 -2.00219e-08)
(2.85599e-07 -1.46948e-06 -1.69213e-08)
(2.40344e-07 -1.41022e-06 -1.44491e-08)
(1.88397e-07 -1.3242e-06 -1.25942e-08)
(1.34242e-07 -1.20196e-06 -1.11386e-08)
(8.20762e-08 -1.02737e-06 -9.8299e-09)
(3.71668e-08 -7.7089e-07 -8.11531e-09)
(4.47358e-09 -3.69755e-07 -4.32918e-09)
(-4.91798e-09 -3.25685e-07 -4.91451e-09)
(-4.12735e-08 -6.78637e-07 -9.17648e-09)
(-9.142e-08 -9.05494e-07 -1.10615e-08)
(-1.49661e-07 -1.06055e-06 -1.24019e-08)
(-2.10129e-07 -1.16836e-06 -1.38829e-08)
(-2.67963e-07 -1.24217e-06 -1.58624e-08)
(-3.18113e-07 -1.29039e-06 -1.84544e-08)
(-3.55801e-07 -1.31888e-06 -2.1674e-08)
(-3.76616e-07 -1.33224e-06 -2.54793e-08)
(-3.76946e-07 -1.33434e-06 -2.96914e-08)
(-3.54352e-07 -1.32874e-06 -3.40786e-08)
(-3.07972e-07 -1.31873e-06 -3.82558e-08)
(-2.38937e-07 -1.30691e-06 -4.18352e-08)
(-1.51342e-07 -1.29568e-06 -4.44388e-08)
(-5.21155e-08 -1.28936e-06 -4.59762e-08)
(5.07753e-08 -1.28852e-06 -4.58354e-08)
(1.49796e-07 -1.29468e-06 -4.4453e-08)
(2.37845e-07 -1.30677e-06 -4.18547e-08)
(3.07253e-07 -1.31878e-06 -3.81899e-08)
(3.53897e-07 -1.32901e-06 -3.40743e-08)
(3.76753e-07 -1.33471e-06 -2.97058e-08)
(3.76702e-07 -1.33279e-06 -2.54786e-08)
(3.56046e-07 -1.31958e-06 -2.16786e-08)
(3.18488e-07 -1.2912e-06 -1.84372e-08)
(2.68424e-07 -1.24311e-06 -1.585e-08)
(2.10616e-07 -1.16954e-06 -1.39129e-08)
(1.5008e-07 -1.06235e-06 -1.24668e-08)
(9.16686e-08 -9.07989e-07 -1.11263e-08)
(4.13765e-08 -6.80897e-07 -9.21521e-09)
(4.89734e-09 -3.25786e-07 -4.91973e-09)
(-5.21543e-09 -2.7789e-07 -5.21823e-09)
(-4.38913e-08 -5.81112e-07 -9.69219e-09)
(-9.73426e-08 -7.76927e-07 -1.16538e-08)
(-1.59279e-07 -9.10304e-07 -1.30497e-08)
(-2.23512e-07 -1.0018e-06 -1.45779e-08)
(-2.84821e-07 -1.06261e-06 -1.65709e-08)
(-3.37789e-07 -1.09997e-06 -1.91496e-08)
(-3.77311e-07 -1.11913e-06 -2.23323e-08)
(-3.98735e-07 -1.12433e-06 -2.60618e-08)
(-3.98338e-07 -1.11929e-06 -3.01606e-08)
(-3.73738e-07 -1.10757e-06 -3.43715e-08)
(-3.24267e-07 -1.09261e-06 -3.83673e-08)
(-2.51345e-07 -1.07719e-06 -4.18591e-08)
(-1.59187e-07 -1.06365e-06 -4.43282e-08)
(-5.48151e-08 -1.05571e-06 -4.56871e-08)
(5.33186e-08 -1.05528e-06 -4.5588e-08)
(1.57586e-07 -1.06308e-06 -4.43762e-08)
(2.50076e-07 -1.07719e-06 -4.1891e-08)
(3.23401e-07 -1.0928e-06 -3.83702e-08)
(3.73166e-07 -1.10788e-06 -3.44135e-08)
(3.98039e-07 -1.11967e-06 -3.02034e-08)
(3.98686e-07 -1.12484e-06 -2.60932e-08)
(3.77437e-07 -1.11977e-06 -2.23618e-08)
(3.38044e-07 -1.10073e-06 -1.91689e-08)
(2.85155e-07 -1.0635e-06 -1.6593e-08)
(2.23876e-07 -1.00284e-06 -1.46263e-08)
(1.59558e-07 -9.11603e-07 -1.318e-08)
(9.74442e-08 -7.78632e-07 -1.18728e-08)
(4.39e-08 -5.829e-07 -9.89082e-09)
(5.15994e-09 -2.77933e-07 -5.27528e-09)
(-5.30996e-09 -2.28197e-07 -5.33227e-09)
(-4.47579e-08 -4.79685e-07 -9.90263e-09)
(-9.93288e-08 -6.43364e-07 -1.18819e-08)
(-1.62625e-07 -7.54469e-07 -1.32627e-08)
(-2.28304e-07 -8.29551e-07 -1.47511e-08)
(-2.90942e-07 -8.77782e-07 -1.66644e-08)
(-3.44917e-07 -9.05242e-07 -1.91139e-08)
(-3.84961e-07 -9.16477e-07 -2.21226e-08)
(-4.06344e-07 -9.15299e-07 -2.56263e-08)
(-4.05344e-07 -9.05176e-07 -2.94443e-08)
(-3.79651e-07 -8.8948e-07 -3.33332e-08)
(-3.28751e-07 -8.71443e-07 -3.70533e-08)
(-2.54476e-07 -8.53809e-07 -4.02751e-08)
(-1.61284e-07 -8.39462e-07 -4.25382e-08)
(-5.56607e-08 -8.31229e-07 -4.37293e-08)
(5.39727e-08 -8.31006e-07 -4.36859e-08)
(1.59503e-07 -8.39126e-07 -4.2588e-08)
(2.53139e-07 -8.53921e-07 -4.0263e-08)
(3.27904e-07 -8.71597e-07 -3.70324e-08)
(3.79054e-07 -8.8968e-07 -3.33754e-08)
(4.04963e-07 -9.05453e-07 -2.94964e-08)
(4.06193e-07 -9.15699e-07 -2.567e-08)
(3.84992e-07 -9.16996e-07 -2.21625e-08)
(3.45071e-07 -9.05867e-07 -1.91441e-08)
(2.91163e-07 -8.78505e-07 -1.66932e-08)
(2.2856e-07 -8.30369e-07 -1.47899e-08)
(1.6284e-07 -7.55389e-07 -1.33472e-08)
(9.94455e-08 -6.44465e-07 -1.20446e-08)
(4.47889e-08 -4.80966e-07 -1.00566e-08)
(5.28508e-09 -2.28186e-07 -5.37002e-09)
(-5.23203e-09 -1.78345e-07 -5.20003e-09)
(-4.3952e-08 -3.78244e-07 -9.6822e-09)
(-9.75799e-08 -5.09689e-07 -1.16428e-08)
(-1.60046e-07 -5.98688e-07 -1.29742e-08)
(-2.25047e-07 -6.5786e-07 -1.43726e-08)
(-2.87125e-07 -6.94387e-07 -1.61449e-08)
(-3.406e-07 -7.13218e-07 -1.84071e-08)
(-3.80153e-07 -7.18176e-07 -2.11743e-08)
(-4.01084e-07 -7.1259e-07 -2.43802e-08)
(-3.99728e-07 -6.99546e-07 -2.78525e-08)
(-3.73862e-07 -6.82072e-07 -3.13879e-08)
(-3.23184e-07 -6.63006e-07 -3.47778e-08)
(-2.49947e-07 -6.45167e-07 -3.76569e-08)
(-1.58511e-07 -6.31406e-07 -3.96783e-08)
(-5.47851e-08 -6.23753e-07 -4.0739e-08)
(5.30936e-08 -6.23454e-07 -4.07086e-08)
(1.56635e-07 -6.30947e-07 -3.9674e-08)
(2.48562e-07 -6.45132e-07 -3.75991e-08)
(3.22295e-07 -6.63028e-07 -3.47138e-08)
(3.73199e-07 -6.82156e-07 -3.13996e-08)
(3.99258e-07 -6.99731e-07 -2.78991e-08)
(4.00844e-07 -7.1289e-07 -2.44225e-08)
(3.80109e-07 -7.18576e-07 -2.12129e-08)
(3.40681e-07 -7.13695e-07 -1.84358e-08)
(2.87278e-07 -6.94935e-07 -1.61708e-08)
(2.25245e-07 -6.58474e-07 -1.43989e-08)
(1.6024e-07 -5.99359e-07 -1.30132e-08)
(9.77268e-08 -5.10425e-07 -1.17206e-08)
(4.39718e-08 -3.79086e-07 -9.7928e-09)
(5.20009e-09 -1.78429e-07 -5.23762e-09)
(-4.92774e-09 -1.30398e-07 -4.84443e-09)
(-4.13826e-08 -2.8068e-07 -9.06426e-09)
(-9.21686e-08 -3.80928e-07 -1.09062e-08)
(-1.51778e-07 -4.48621e-07 -1.21074e-08)
(-2.14199e-07 -4.92725e-07 -1.33595e-08)
(-2.74099e-07 -5.18613e-07 -1.4945e-08)
(-3.25846e-07 -5.30171e-07 -1.6985e-08)
(-3.64148e-07 -5.30506e-07 -1.94726e-08)
(-3.84415e-07 -5.2238e-07 -2.23521e-08)
(-3.83105e-07 -5.08414e-07 -2.54586e-08)
(-3.58062e-07 -4.91138e-07 -2.8652e-08)
(-3.09203e-07 -4.72995e-07 -3.16781e-08)
(-2.39045e-07 -4.56594e-07 -3.42373e-08)
(-1.51574e-07 -4.44163e-07 -3.60484e-08)
(-5.24309e-08 -4.37425e-07 -3.70317e-08)
(5.0774e-08 -4.37137e-07 -3.69992e-08)