/*--------------------------------*- C++ -*----------------------------------*\
| =========                 |                                                 |
| \\      /  F ield         | OpenFOAM: The Open Source CFD Toolbox           |
|  \\    /   O peration     | Version:  v1906                                 |
|   \\  /    A nd           | Web:      www.OpenFOAM.com                      |
|    \\/     M anipulation  |                                                 |
\*---------------------------------------------------------------------------*/
FoamFile
{
    version     2.0;
    format      ascii;
    class       surfaceScalarField;
    location    "56.4/oil";
    object      phi;
}
// * * * * * * * * * * * * * * * * * * * * * * * * * * * * * * * * * * * * * //

dimensions      [1 0 -1 0 0 0 0];
oriented        oriented;


internalField   nonuniform List<scalar> 
80688
(
-2.22449e-06
-2.26262e-06
-2.22448e-06
-1.00402e-06
-6.31326e-07
-5.89142e-07
-2.71293e-07
-3.69105e-07
-3.6362e-07
-1.30654e-07
-7.10214e-08
-6.96178e-08
-4.82136e-08
-4.18411e-08
-4.05993e-08
-8.03263e-09
-2.06369e-08
-1.95441e-08
1.36559e-08
-1.12882e-08
-1.04004e-08
2.55409e-08
-6.32866e-09
-5.5564e-09
3.13888e-08
-3.33024e-09
-2.51768e-09
3.28403e-08
-1.23513e-09
-2.16468e-10
3.07616e-08
3.8871e-10
1.68995e-09
2.5731e-08
1.70956e-09
3.32109e-09
1.83536e-08
2.72864e-09
4.64873e-09
9.31161e-09
3.44057e-09
5.60135e-09
-6.20996e-10
3.82011e-09
6.11248e-09
-1.06225e-08
3.85384e-09
6.14764e-09
-1.98864e-08
3.5495e-09
5.71442e-09
-2.76914e-08
2.93912e-09
4.86584e-09
-3.34678e-08
2.07845e-09
3.69794e-09
-3.68391e-08
1.03504e-09
2.33621e-09
-3.7656e-08
-1.11823e-10
9.28741e-10
-3.60064e-08
-1.25894e-09
-3.90728e-10
-3.21667e-08
-2.34558e-09
-1.49413e-09
-2.6632e-08
-3.29638e-09
-2.23837e-09
-2.00569e-08
-4.02661e-09
-2.54843e-09
-1.32326e-08
-4.43439e-09
-2.39001e-09
-7.04477e-09
-4.37973e-09
-1.80808e-09
-2.39379e-09
-3.67861e-09
-9.72397e-10
-1.18084e-11
-2.13066e-09
-2.51349e-10
-3.00895e-11
1.82659e-11
-5.9837e-07
-1.06588e-06
-5.98366e-07
-3.56278e-07
-3.93894e-07
-4.79524e-07
-2.50763e-07
-2.69779e-07
-2.04842e-07
-1.15907e-07
-1.24054e-07
-8.18233e-08
-3.72025e-08
-7.97531e-08
-4.07924e-08
1.0317e-08
-5.24334e-08
-1.5723e-08
4.02081e-08
-3.87797e-08
-2.39966e-09
5.82494e-08
-3.03195e-08
5.94941e-09
6.73477e-08
-2.44354e-08
1.20068e-08
6.89272e-08
-1.97948e-08
1.69802e-08
6.39055e-08
-1.58987e-08
2.1309e-08
5.31754e-08
-1.26185e-08
2.50582e-08
3.77982e-08
-9.99543e-09
2.81012e-08
1.90953e-08
-8.13542e-09
3.02789e-08
-1.39656e-09
-7.13346e-09
3.14454e-08
-2.20254e-08
-7.04094e-09
3.15236e-08
-4.1164e-08
-7.83993e-09
3.05281e-08
-5.73582e-08
-9.43725e-09
2.85705e-08
-6.94566e-08
-1.16735e-08
2.58503e-08
-7.67064e-08
-1.43371e-08
2.2622e-08
-7.88104e-08
-1.71902e-08
1.91823e-08
-7.59172e-08
-1.99763e-08
1.58242e-08
-6.86223e-08
-2.24441e-08
1.28036e-08
-5.78979e-08
-2.43397e-08
1.03189e-08
-4.50261e-08
-2.5389e-08
8.49057e-09
-3.15084e-08
-2.52698e-08
7.31763e-09
-1.89416e-08
-2.35825e-08
6.63595e-09
-8.83638e-09
-1.98408e-08
6.05695e-09
-2.34367e-09
-1.3514e-08
4.89062e-09
-4.72571e-09
2.35194e-09
-3.7149e-07
-3.22906e-07
-3.71486e-07
-2.44621e-07
-3.12644e-07
-2.0812e-07
-1.56973e-07
-2.31101e-07
-1.26325e-07
-6.96298e-08
-1.51911e-07
-5.94871e-08
-8.8656e-09
-1.16361e-07
-2.41565e-08
3.44286e-08
-9.35013e-08
-2.22632e-09
6.42853e-08
-7.989e-08
1.12536e-08
8.32963e-08
-7.01195e-08
2.0789e-08
9.27647e-08
-6.22967e-08
2.83929e-08
9.34199e-08
-5.54529e-08
3.50029e-08
8.59307e-08
-4.93168e-08
4.09073e-08
7.11873e-08
-4.39444e-08
4.60692e-08
5.04695e-08
-3.95523e-08
5.02747e-08
2.54422e-08
-3.63955e-08
5.32873e-08
-1.90482e-09
-3.46849e-08
5.48984e-08
-2.94192e-08
-3.45284e-08
5.50018e-08
-5.49739e-08
-3.58993e-08
5.36141e-08
-7.66627e-08
-3.86298e-08
5.08813e-08
-9.29837e-08
-4.24217e-08
4.70691e-08
-1.02951e-07
-4.68844e-08
4.25145e-08
-1.06181e-07
-5.15661e-08
3.76059e-08
-1.02877e-07
-5.59872e-08
3.27069e-08
-9.38067e-08
-5.96639e-08
2.81497e-08
-8.02062e-08
-6.21032e-08
2.4163e-08
-6.36802e-08
-6.2781e-08
2.0866e-08
-4.60656e-08
-6.11027e-08
1.82184e-08
-2.9255e-08
-5.63636e-08
1.59705e-08
-1.5e-08
-4.76989e-08
1.3603e-08
-4.74039e-09
-3.4025e-08
1.02514e-08
-1.42153e-08
4.7492e-09
-6.92446e-08
-1.84422e-07
-6.92393e-08
-8.80799e-08
-2.15107e-07
-7.87011e-08
-6.13038e-08
-2.00916e-07
-5.69607e-08
-1.57986e-08
-1.72509e-07
-2.49068e-08
2.59563e-08
-1.55184e-07
-2.93226e-09
6.08888e-08
-1.41502e-07
1.30686e-08
8.736e-08
-1.31162e-07
2.48004e-08
1.04957e-07
-1.2201e-07
3.42942e-08
1.13383e-07
-1.13345e-07
4.26222e-08
1.12557e-07
-1.04898e-07
5.02707e-08
1.02768e-07
-9.682e-08
5.7293e-08
8.47944e-08
-8.94814e-08
6.35101e-08
5.99881e-08
-8.33542e-08
6.86082e-08
3.02246e-08
-7.89019e-08
7.22699e-08
-2.21065e-09
-7.6477e-08
7.42272e-08
-3.48163e-08
-7.62646e-08
7.43418e-08
-6.51132e-08
-7.82329e-08
7.26305e-08
-9.0882e-08
-8.2131e-08
6.92699e-08
-1.10369e-07
-8.75099e-08
6.4575e-08
-1.2244e-07
-9.37672e-08
5.8954e-08
-1.26651e-07
-1.00211e-07
5.2856e-08
-1.23249e-07
-1.06106e-07
4.67168e-08
-1.13105e-07
-1.10712e-07
4.09039e-08
-9.76182e-08
-1.13262e-07
3.56721e-08
-7.85706e-08
-1.12966e-07
3.11369e-08
-5.79686e-08
-1.08934e-07
2.72288e-08
-3.78671e-08
-1.00112e-07
2.3647e-08
-2.01902e-08
-8.51642e-08
1.97883e-08
-6.73271e-09
-6.21404e-08
1.46579e-08
-2.76906e-08
6.74259e-09
-3.31928e-08
-1.18043e-07
-3.31863e-08
-3.42942e-08
-1.81343e-07
-3.26628e-08
-1.3009e-08
-2.03189e-07
-1.90125e-08
1.99035e-08
-2.04422e-07
-9.9975e-10
5.3374e-08
-2.0232e-07
1.36655e-08
8.34572e-08
-1.97431e-07
2.5845e-08
1.07374e-07
-1.91225e-07
3.61473e-08
1.23495e-07
-1.83601e-07
4.5469e-08
1.307e-07
-1.74844e-07
5.4294e-08
1.28389e-07
-1.65355e-07
6.27681e-08
1.16556e-07
-1.55731e-07
7.07441e-08
9.58803e-08
-1.46699e-07
7.7893e-08
6.77397e-08
-1.39019e-07
8.38051e-08
3.41551e-08
-1.33379e-07
8.80616e-08
-2.35929e-09
-1.30299e-07
9.03367e-08
-3.90325e-08
-1.30046e-07
9.04547e-08
-7.31057e-08
-1.32588e-07
8.8428e-08
-1.02113e-07
-1.37589e-07
8.44649e-08
-1.24112e-07
-1.44445e-07
7.8934e-08
-1.37859e-07
-1.52334e-07
7.23143e-08
-1.42875e-07
-1.60324e-07
6.51288e-08
-1.39437e-07
-1.67415e-07
5.78705e-08
-1.28504e-07
-1.72586e-07
5.09421e-08
-1.11583e-07
-1.74815e-07
4.46312e-08
-9.0568e-08
-1.73032e-07
3.9052e-08
-6.75811e-08
-1.66038e-07
3.41173e-08
-4.47921e-08
-1.52391e-07
2.94897e-08
-2.43039e-08
-1.30148e-07
2.44959e-08
-8.26765e-09
-9.62041e-08
1.80274e-08
-4.42374e-08
8.27906e-09
-9.03028e-09
-9.99899e-08
-9.02248e-09
-1.6998e-09
-1.83631e-07
-5.04252e-09
1.78442e-08
-2.26835e-07
4.10152e-09
4.54398e-08
-2.47403e-07
1.53854e-08
7.4744e-08
-2.57542e-07
2.59183e-08
1.02009e-07
-2.60465e-07
3.57687e-08
1.24208e-07
-2.58595e-07
4.51705e-08
1.39168e-07
-2.53033e-07
5.44723e-08
1.45313e-07
-2.448e-07
6.38117e-08
1.41708e-07
-2.34849e-07
7.30989e-08
1.28142e-07
-2.24187e-07
8.20219e-08
1.05202e-07
-2.13877e-07
9.01175e-08
7.42788e-08
-2.04957e-07
9.68614e-08
3.75149e-08
-1.98348e-07
1.01732e-07
-2.38765e-09
-1.94728e-07
1.04331e-07
-4.2427e-08
-1.94451e-07
1.04445e-07
-7.96099e-08
-1.97489e-07
1.02084e-07
-1.11258e-07
-2.03426e-07
9.7485e-08
-1.35278e-07
-2.11506e-07
9.10812e-08
-1.50343e-07
-2.20704e-07
8.34355e-08
-1.5596e-07
-2.29858e-07
7.51509e-08
-1.52445e-07
-2.37708e-07
6.67781e-08
-1.40833e-07
-2.42992e-07
5.87931e-08
-1.22714e-07
-2.44427e-07
5.14928e-08
-1.00078e-07
-2.40669e-07
4.50011e-08
-7.51335e-08
-2.30201e-07
3.9218e-08
-5.01621e-08
-2.1114e-07
3.37775e-08
-2.74289e-08
-1.80828e-07
2.79469e-08
-9.40053e-09
-1.34738e-07
2.05053e-08
-6.30515e-08
9.41359e-09
1.41599e-09
-1.02831e-07
1.42492e-09
1.41992e-08
-2.05268e-07
8.8534e-09
3.5324e-08
-2.64975e-07
1.70157e-08
6.19628e-08
-2.99746e-07
2.57045e-08
8.99629e-08
-3.19848e-07
3.43059e-08
1.16098e-07
-3.2963e-07
4.30305e-08
1.37469e-07
-3.32046e-07
5.20804e-08
1.5175e-07
-3.28918e-07
6.16041e-08
1.57166e-07
-3.21781e-07
7.15645e-08
1.52584e-07
-3.1199e-07
8.17235e-08
1.37653e-07
-3.00899e-07
9.16433e-08
1.12893e-07
-2.89854e-07
1.00737e-07
7.9714e-08
-2.80134e-07
1.08356e-07
4.03484e-08
-2.72863e-07
1.13881e-07
-2.33123e-09
-2.68875e-07
1.16827e-07
-4.51229e-08
-2.68591e-07
1.16932e-07
-8.48284e-08
-2.71989e-07
1.14206e-07
-1.18588e-07
-2.78591e-07
1.08924e-07
-1.44184e-07
-2.87506e-07
1.01597e-07
-1.60229e-07
-2.97531e-07
9.28705e-08
-1.66232e-07
-3.07295e-07
8.34412e-08
-1.62561e-07
-3.15333e-07
7.39536e-08
-1.50327e-07
-3.20152e-07
6.49255e-08
-1.31198e-07
-3.20244e-07
5.6689e-08
-1.07246e-07
-3.14001e-07
4.93793e-08
-8.07531e-08
-2.99575e-07
4.28818e-08
-5.40953e-08
-2.746e-07
3.68028e-08
-2.96774e-08
-2.35609e-07
3.03622e-08
-1.01979e-08
-1.7646e-07
2.2243e-08
-8.34618e-08
1.02125e-08
6.35706e-09
-1.15555e-07
6.36688e-09
2.26859e-08
-2.37729e-07
1.61324e-08
4.55446e-08
-3.12106e-07
2.42725e-08
7.24427e-08
-3.58634e-07
3.19902e-08
1.00212e-07
-3.87383e-07
3.97656e-08
1.25976e-07
-4.03445e-07
4.80501e-08
1.46998e-07
-4.10175e-07
5.71069e-08
1.60944e-07
-4.0989e-07
6.70271e-08
1.65922e-07
-4.04447e-07
7.76868e-08
1.60701e-07
-3.95517e-07
8.87481e-08
1.44817e-07
-3.84696e-07
9.96804e-08
1.18739e-07
-3.73571e-07
1.09795e-07
8.38804e-08
-3.63598e-07
1.18323e-07
4.25596e-08
-3.56064e-07
1.24522e-07
-2.22099e-09
-3.51912e-07
1.27818e-07
-4.70903e-08
-3.51636e-07
1.27914e-07
-8.86785e-08
-3.55216e-07
1.24815e-07
-1.23977e-07
-3.62121e-07
1.18828e-07
-1.50673e-07
-3.71351e-07
1.10541e-07
-1.6734e-07
-3.81583e-07
1.00719e-07
-1.73516e-07
-3.91275e-07
9.01558e-08
-1.6963e-07
-3.98793e-07
7.95741e-08
-1.56857e-07
-4.02466e-07
6.9541e-08
-1.36945e-07
-4.00588e-07
6.04317e-08
-1.1203e-07
-3.91309e-07
5.23937e-08
-8.44523e-08
-3.72456e-07
4.53037e-08
-5.66463e-08
-3.41145e-07
3.87385e-08
-3.11135e-08
-2.93017e-07
3.18751e-08
-1.07009e-08
-2.20198e-07
2.33252e-08
-1.04879e-07
1.07167e-08
8.66848e-09
-1.32902e-07
8.67864e-09
2.69562e-08
-2.75803e-07
1.97863e-08
5.09971e-08
-3.64235e-07
2.80873e-08
7.82664e-08
-4.21368e-07
3.54643e-08
1.06034e-07
-4.58074e-07
4.29228e-08
1.31634e-07
-4.80148e-07
5.11039e-08
1.52473e-07
-4.91347e-07
6.03322e-08
1.66237e-07
-4.94343e-07
7.06876e-08
1.71012e-07
-4.91249e-07
8.2028e-08
1.65472e-07
-4.83928e-07
9.3952e-08
1.49103e-07
-4.74171e-07
1.05843e-07
1.22295e-07
-4.63681e-07
1.16918e-07
8.64589e-08
-4.54049e-07
1.26287e-07
4.39644e-08
-4.46677e-07
1.33107e-07
-2.08388e-09
-4.426e-07
1.36736e-07
-4.81985e-08
-4.42343e-07
1.36821e-07
-9.08867e-08
-4.45891e-07
1.33363e-07
-1.27043e-07
-4.5268e-07
1.26715e-07
-1.54287e-07
-4.61655e-07
1.17548e-07
-1.7119e-07
-4.71386e-07
1.06707e-07
-1.77327e-07
-4.80216e-07
9.50783e-08
-1.73193e-07
-4.86421e-07
8.34926e-08
-1.60026e-07
-4.88204e-07
7.25715e-08
-1.39647e-07
-4.83688e-07
6.27214e-08
-1.1422e-07
-4.70817e-07
5.40814e-08
-8.61108e-08
-4.47092e-07
4.65259e-08
-5.77724e-08
-4.09116e-07
3.96332e-08
-3.17394e-08
-3.51582e-07
3.25326e-08
-1.09177e-08
-2.648e-07
2.37804e-08
-1.26731e-07
1.09341e-08
9.61856e-09
-1.52149e-07
9.62863e-09
2.86817e-08
-3.16148e-07
2.1282e-08
5.30944e-08
-4.18246e-07
2.95988e-08
8.02877e-08
-4.85351e-07
3.679e-08
1.07736e-07
-5.29621e-07
4.40993e-08
1.32948e-07
-5.57621e-07
5.2261e-08
1.5348e-07
-5.73535e-07
6.16566e-08
1.6704e-07
-5.80282e-07
7.23795e-08
1.71736e-07
-5.80199e-07
8.42536e-08
1.66203e-07
-5.75263e-07
9.68677e-08
1.49833e-07
-5.67339e-07
1.09538e-07
1.22979e-07
-5.58215e-07
1.21389e-07
8.70208e-08
-5.49545e-07
1.31454e-07
4.43329e-08
-5.42792e-07
1.38803e-07
-1.94114e-09
-5.39018e-07
1.42692e-07
-4.82626e-08
-5.38786e-07
1.42765e-07
-9.10897e-08
-5.42087e-07
1.39024e-07
-1.27268e-07
-5.4833e-07
1.31829e-07
-1.54404e-07
-5.56431e-07
1.21913e-07
-1.71106e-07
-5.64915e-07
1.10231e-07
-1.76993e-07
-5.72098e-07
9.77684e-08
-1.72626e-07
-5.76179e-07
8.53908e-08
-1.59309e-07
-5.75302e-07
7.37807e-08
-1.38875e-07
-5.67491e-07
6.33691e-08
-1.13497e-07
-5.50507e-07
5.43114e-08
-8.55136e-08
-5.2156e-07
4.64854e-08
-5.7358e-08
-4.767e-07
3.94282e-08
-3.15092e-08
-4.09704e-07
3.22734e-08
-1.08393e-08
-3.09051e-07
2.35811e-08
-1.48426e-07
1.08557e-08
9.74758e-09
-1.71653e-07
9.75652e-09
2.86056e-08
-3.56314e-07
2.13079e-08
5.24744e-08
-4.71521e-07
2.94064e-08
7.88358e-08
-5.48055e-07
3.63418e-08
1.0535e-07
-5.99574e-07
4.34389e-08
1.29694e-07
-6.33462e-07
5.14967e-08
1.49546e-07
-6.54305e-07
6.09169e-08
1.62737e-07
-6.65264e-07
7.17916e-08
1.67393e-07
-6.68803e-07
8.39473e-08
1.62135e-07
-6.66953e-07
9.69481e-08
1.46314e-07
-6.61588e-07
1.1007e-07
1.20214e-07
-6.54516e-07
1.224e-07
8.51439e-08
-6.47373e-07
1.32898e-07
4.34347e-08
-6.41647e-07
1.40564e-07
-1.8096e-09
-6.38383e-07
1.44609e-07
-4.70843e-08
-6.3818e-07
1.44669e-07
-8.88853e-08
-6.41021e-07
1.40734e-07
-1.24082e-07
-6.46324e-07
1.33191e-07
-1.50351e-07
-6.52989e-07
1.22827e-07
-1.6636e-07
-6.59538e-07
1.10631e-07
-1.71775e-07
-6.64323e-07
9.76394e-08
-1.6724e-07
-6.6551e-07
8.4797e-08
-1.54086e-07
-6.61275e-07
7.28199e-08
-1.34126e-07
-6.49587e-07
6.21361e-08
-1.09482e-07
-6.28063e-07
5.29112e-08
-8.24202e-08
-5.93647e-07
4.50247e-08
-5.52456e-08
-5.41906e-07
3.80312e-08
-3.03388e-08
-4.65671e-07
3.10601e-08
-1.0442e-08
-3.51628e-07
2.26795e-08
-1.69326e-07
1.04578e-08
9.27784e-09
-1.90217e-07
9.28579e-09
2.70443e-08
-3.94237e-07
2.01558e-08
4.94231e-08
-5.21627e-07
2.77265e-08
7.40527e-08
-6.06917e-07
3.42333e-08
9.88213e-08
-6.65325e-07
4.0982e-08
1.21592e-07
-7.04981e-07
4.8748e-08
1.40245e-07
-7.30882e-07
5.79245e-08
1.52766e-07
-7.46417e-07
6.86318e-08
1.57336e-07
-7.54064e-07
8.06917e-08
1.52627e-07
-7.55909e-07
9.36648e-08
1.37958e-07
-7.5375e-07
1.06832e-07
1.13493e-07
-7.49307e-07
1.19256e-07
8.04765e-08
-7.44211e-07
1.29855e-07
4.10797e-08
-7.39851e-07
1.37602e-07
-1.69854e-09
-7.37291e-07
1.41687e-07
-4.44931e-08
-7.3712e-07
1.41735e-07
-8.39304e-08
-7.39333e-07
1.37749e-07
-1.17028e-07
-7.43323e-07
1.30096e-07
-1.41561e-07
-7.48033e-07
1.19577e-07
-1.56296e-07
-7.52044e-07
1.07243e-07
-1.61045e-07
-7.53738e-07
9.41645e-08
-1.56448e-07
-7.51411e-07
8.13039e-08
-1.43834e-07
-7.43256e-07
6.93671e-08
-1.24967e-07
-7.27233e-07
5.87793e-08
-1.01846e-07
-7.009e-07
4.97159e-08
-7.65675e-08
-6.60965e-07
4.204e-08
-5.12813e-08
-6.02522e-07
3.53293e-08
-2.81587e-08
-5.17563e-07
2.87693e-08
-9.69119e-09
-3.91095e-07
2.09996e-08
-1.88723e-07
9.7056e-09
8.31565e-09
-2.06856e-07
8.32335e-09
2.41603e-08
-4.28078e-07
1.79965e-08
4.40658e-08
-5.66255e-07
2.47223e-08
6.59851e-08
-6.59389e-07
3.05527e-08
8.80523e-08
-7.24096e-07
3.67042e-08
1.08437e-07
-7.69265e-07
4.38995e-08
1.25268e-07
-8.00208e-07
5.2495e-08
1.36719e-07
-8.20497e-07
6.26289e-08
1.41138e-07
-8.32622e-07
7.41385e-08
1.3724e-07
-8.38616e-07
8.66057e-08
1.24319e-07
-8.40174e-07
9.93452e-08
1.02471e-07
-8.38865e-07
1.11405e-07
7.27538e-08
-8.36214e-07
1.2172e-07
3.71332e-08
-8.33507e-07
1.29277e-07
-1.61525e-09
-8.31804e-07
1.33261e-07
-4.03682e-08
-8.31661e-07
1.33293e-07
-7.60037e-08
-8.3307e-07
1.29372e-07
-1.05731e-07
-8.35472e-07
1.21877e-07
-1.27564e-07
-8.37813e-07
1.11613e-07
-1.40462e-07
-8.38765e-07
9.96181e-08
-1.44307e-07
-8.36857e-07
8.69643e-08
-1.39782e-07
-8.30511e-07
7.45748e-08
-1.28156e-07
-8.18013e-07
6.31306e-08
-1.1107e-07
-7.97393e-07
5.30741e-08
-9.03165e-08
-7.6619e-07
4.45368e-08
-6.77922e-08
-7.20883e-07
3.73938e-08
-4.53539e-08
-6.56223e-07
3.12627e-08
-2.48832e-08
-5.63421e-07
2.5387e-08
-8.57264e-09
-4.25933e-07
1.85273e-08
-2.05881e-07
8.58556e-09
6.90896e-09
-2.20675e-07
6.91012e-09
2.00226e-08
-4.56076e-07
1.48848e-08
3.65033e-08
-6.03165e-07
2.04299e-08
5.46819e-08
-7.02898e-07
2.53293e-08
7.30876e-08
-7.73115e-07
3.06131e-08
9.02159e-08
-8.233e-07
3.69073e-08
1.04521e-07
-8.59079e-07
4.45656e-08
1.14454e-07
-8.84118e-07
5.36879e-08
1.18588e-07
-9.00913e-07
6.41573e-08
1.15743e-07
-9.11361e-07
7.55901e-08
1.05219e-07
-9.17005e-07
8.73545e-08
8.69938e-08
-9.1925e-07
9.86096e-08
6.18715e-08
-9.19423e-07
1.08331e-07
3.15485e-08
-9.18683e-07
1.15499e-07
-1.5592e-09
-9.17986e-07
1.1929e-07
-3.46594e-08
-9.17867e-07
1.19306e-07
-6.49535e-08
-9.18324e-07
1.15548e-07
-9.00345e-08
-9.18806e-07
1.08415e-07
-1.08203e-07
-9.18385e-07
9.87406e-08
-1.18638e-07
-9.15857e-07
8.7528e-08
-1.21351e-07
-9.0993e-07
7.57856e-08
-1.17046e-07
-8.99225e-07
6.4408e-08
-1.06883e-07
-8.82178e-07
5.40023e-08
-9.22958e-08
-8.56913e-07
4.4932e-08
-7.483e-08
-8.20984e-07
3.73284e-08
-5.60334e-08
-7.70747e-07
3.10671e-08
-3.74164e-08
-7.0062e-07
2.57803e-08
-2.05183e-08
-6.01171e-07
2.08517e-08
-7.0682e-09
-4.54604e-07
1.52216e-08
-2.20028e-07
7.0791e-09
5.09235e-09
-2.30861e-07
5.09325e-09
1.47216e-08
-4.76608e-07
1.09029e-08
2.68691e-08
-6.30282e-07
1.49693e-08
4.03369e-08
-7.35027e-07
1.86616e-08
5.40957e-08
-8.09662e-07
2.27883e-08
6.70714e-08
-8.64127e-07
2.78512e-08
7.81222e-08
-9.04263e-07
3.41332e-08
8.60589e-08
-9.33783e-07
4.17289e-08
8.97458e-08
-9.55173e-07
5.05725e-08
8.81581e-08
-9.70168e-07
6.03941e-08
8.06139e-08
-9.80127e-07
7.0666e-08
6.69859e-08
-9.86246e-07
8.06248e-08
4.77838e-08
-9.89551e-07
8.93304e-08
2.42916e-08
-9.91049e-07
9.58577e-08
-1.52854e-09
-9.91514e-07
9.93483e-08
-2.73304e-08
-9.91412e-07
9.93476e-08
-5.0774e-08
-9.90741e-07
9.58602e-08
-6.98919e-08
-9.89029e-07
8.93403e-08
-8.34086e-08
-9.85507e-07
8.06378e-08
-9.07896e-08
-9.7918e-07
7.07037e-08
-9.2183e-08
-9.69022e-07
6.04852e-08
-8.82891e-08
-9.53822e-07
5.07035e-08
-8.01065e-08
-9.32248e-07
4.18876e-08
-6.87521e-08
-9.026e-07
3.43328e-08
-5.54575e-08
-8.62365e-07
2.80863e-08
-4.13432e-08
-8.0791e-07
2.3049e-08
-2.75344e-08
-7.3336e-07
1.89311e-08
-1.50736e-08
-6.28858e-07
1.52265e-08
-5.19589e-09
-4.75596e-07
1.11143e-08
-2.30429e-07
5.205e-09
2.9174e-09
-2.36694e-07
2.91585e-09
8.42218e-09
-4.8827e-07
6.15743e-09
1.5387e-08
-6.45703e-07
8.45643e-09
2.3244e-08
-7.53569e-07
1.0685e-08
3.14541e-08
-8.31238e-07
1.33658e-08
3.94356e-08
-8.88944e-07
1.6835e-08
4.65218e-08
-9.32648e-07
2.12988e-08
5.19614e-08
-9.66094e-07
2.68715e-08
5.49565e-08
-9.9169e-07
3.35219e-08
5.47417e-08
-1.01102e-06
4.10679e-08
5.07238e-08
-1.02525e-06
4.91373e-08
4.2591e-08
-1.0353e-06
5.71889e-08
3.05475e-08
-1.04194e-06
6.4432e-08
1.53882e-08
-1.04588e-06
6.99866e-08
-1.51517e-09
-1.04763e-06
7.30169e-08
-1.83905e-08
-1.04754e-06
7.30026e-08
-3.34719e-08
-1.04561e-06
6.99511e-08
-4.5387e-08
-1.04149e-06
6.43807e-08
-5.33689e-08
-1.03467e-06
5.71464e-08
-5.71951e-08
-1.02446e-06
4.91051e-08
-5.72014e-08
-1.01006e-06
4.10422e-08
-5.39571e-08
-9.90591e-07
3.35245e-08
-4.82309e-08
-9.6488e-07
2.69063e-08
-4.0865e-08
-9.31334e-07
2.13676e-08
-3.25685e-08
-8.87597e-07
1.69353e-08
-2.40519e-08
-8.29919e-07
1.34919e-08
-1.5886e-08
-7.52353e-07
1.08271e-08
-8.65795e-09
-6.44687e-07
8.60127e-09
-2.98352e-09
-4.87557e-07
6.28575e-09
-2.36404e-07
2.991e-09
4.52351e-10
-2.37598e-07
4.51258e-10
1.27573e-09
-4.89893e-07
7.98898e-10
2.42426e-09
-6.4796e-07
1.10829e-09
3.93003e-09
-7.56729e-07
1.65389e-09
5.84558e-09
-8.35778e-07
2.6248e-09
8.09719e-09
-8.95365e-07
4.16908e-09
1.05614e-08
-9.41485e-07
6.3728e-09
1.29859e-08
-9.77847e-07
9.32827e-09
1.50043e-08
-1.00678e-06
1.30691e-08
1.61586e-08
-1.02974e-06
1.75627e-08
1.59764e-08
-1.0477e-06
2.26329e-08
1.40706e-08
-1.06132e-06
2.79188e-08
1.02968e-08
-1.07105e-06
3.28821e-08
4.88102e-09
-1.0773e-06
3.68435e-08
-1.51303e-09
-1.08029e-06
3.9058e-08
-7.87431e-09
-1.08022e-06
3.90448e-08
-1.32034e-08
-1.07707e-06
3.67869e-08
-1.6819e-08
-1.07066e-06
3.27768e-08
-1.85299e-08
-1.06076e-06
2.77958e-08
-1.84834e-08
-1.04701e-06
2.25068e-08
-1.70752e-08
-1.02891e-06
1.7448e-08
-1.47847e-08
-1.00586e-06
1.29757e-08
-1.20743e-08
-9.76855e-07
9.2639e-09
-9.3168e-09
-9.40432e-07
6.34045e-09
-6.76506e-09
-8.94317e-07
4.16766e-09
-4.57227e-09
-8.34763e-07
2.65128e-09
-2.80881e-09
-7.5582e-07
1.70328e-09
-1.45155e-09
-6.47218e-07
1.17336e-09
-4.96186e-10
-4.89382e-07
8.69766e-10
-2.37402e-07
5.02522e-10
-2.20305e-09
-2.33184e-07
-2.21053e-09
-6.40641e-09
-4.80728e-07
-4.96109e-09
-1.15234e-08
-6.36034e-07
-6.80914e-09
-1.6843e-08
-7.43312e-07
-8.09681e-09
-2.17729e-08
-8.21811e-07
-9.03782e-09
-2.57759e-08
-8.81644e-07
-9.71792e-09
-2.8442e-08
-9.2869e-07
-1.01291e-08
-2.94648e-08
-9.66559e-07
-1.02654e-08
-2.8731e-08
-9.97467e-07
-1.00438e-08
-2.63363e-08
-1.02275e-06
-9.38719e-09
-2.25233e-08
-1.04323e-06
-8.27785e-09
-1.77405e-08
-1.05936e-06
-6.73846e-09
-1.2412e-08
-1.07138e-06
-4.99874e-09
-6.94726e-09
-1.07937e-06
-3.39786e-09
-1.51467e-09
-1.08333e-06
-2.39383e-09
3.95664e-09
-1.08327e-06
-2.42864e-09
9.5271e-09
-1.07915e-06
-3.49134e-09
1.50279e-08
-1.07101e-06
-5.14185e-09
2.00379e-08
-1.05887e-06
-6.89813e-09
2.4096e-08
-1.04262e-06
-8.45015e-09
2.67765e-08
-1.02203e-06
-9.5673e-09
2.78002e-08
-9.96674e-07
-1.0207e-08
2.7066e-08
-9.65718e-07
-1.04022e-08
2.47001e-08
-9.2783e-07
-1.02358e-08
2.0967e-08
-8.8079e-07
-9.79373e-09
1.63065e-08
-8.2102e-07
-9.08256e-09
1.12158e-08
-7.42616e-07
-8.11248e-09
6.2673e-09
-6.35472e-07
-6.79735e-09
2.18073e-09
-4.80367e-07
-4.92825e-09
-2.33047e-07
-2.17497e-09
-4.92928e-09
-2.23319e-07
-4.93588e-09
-1.42636e-08
-4.6055e-07
-1.08436e-08
-2.57944e-08
-6.09618e-07
-1.48857e-08
-3.81229e-08
-7.12898e-07
-1.80851e-08
-5.00884e-08
-7.8881e-07
-2.10355e-08
-6.05911e-08
-8.47062e-07
-2.40785e-08
-6.8647e-08
-8.93275e-07
-2.73594e-08
-7.33909e-08
-9.30914e-07
-3.09013e-08
-7.42032e-08
-9.62018e-07
-3.46367e-08
-7.07097e-08
-9.87872e-07
-3.83673e-08
-6.29395e-08
-1.00916e-06
-4.18409e-08
-5.1284e-08
-1.02622e-06
-4.47979e-08
-3.64851e-08
-1.03912e-06
-4.70588e-08
-1.954e-08
-1.04782e-06
-4.84963e-08
-1.51403e-09
-1.05219e-06
-4.91691e-08
1.65555e-08
-1.05211e-06
-4.92222e-08
3.36278e-08
-1.0476e-06
-4.86181e-08
4.86028e-08
-1.03876e-06
-4.72254e-08
6.04879e-08
-1.02574e-06
-4.50166e-08
6.85302e-08
-1.00859e-06
-4.20767e-08
7.23169e-08
-9.87222e-07
-3.85923e-08
7.18131e-08
-9.61322e-07
-3.48477e-08
6.73634e-08
-9.30179e-07
-3.10897e-08
5.96076e-08
-8.92555e-07
-2.75187e-08
4.93804e-08
-8.46357e-07
-2.42056e-08
3.76575e-08
-7.88166e-07
-2.11311e-08
2.55379e-08
-7.12351e-07
-1.81462e-08
1.41717e-08
-6.09194e-07
-1.49116e-08
4.91575e-09
-4.60274e-07
-1.08365e-08
-2.23221e-07
-4.91003e-09
-7.58475e-09
-2.08143e-07
-7.59104e-09
-2.19014e-08
-4.29662e-07
-1.65714e-08
-3.96323e-08
-5.69146e-07
-2.27412e-08
-5.87678e-08
-6.65979e-07
-2.77842e-08
-7.75763e-08
-7.3732e-07
-3.26815e-08
-9.44411e-08
-7.92158e-07
-3.80393e-08
-1.07795e-07
-8.35759e-07
-4.41623e-08
-1.16258e-07
-8.71313e-07
-5.11369e-08
-1.18664e-07
-9.00768e-07
-5.88445e-08
-1.14233e-07
-9.25301e-07
-6.70015e-08
-1.02698e-07
-9.45524e-07
-7.51732e-08
-8.43892e-08
-9.61743e-07
-8.27831e-08
-6.0297e-08
-9.74017e-07
-8.91935e-08
-3.19994e-08
-9.82306e-07
-9.38109e-08
-1.50455e-09
-9.86471e-07
-9.62112e-08
2.90312e-08
-9.86398e-07
-9.62511e-08
5.74435e-08
-9.8209e-07
-9.39235e-08
8.17375e-08
-9.7369e-07
-8.93685e-08
1.00288e-07
-9.61287e-07
-8.3e-08
1.12104e-07
-9.44989e-07
-7.54123e-08
1.16835e-07
-9.24707e-07
-6.72469e-08
1.14733e-07
-9.00138e-07
-5.90811e-08
1.0658e-07
-8.70672e-07
-5.13541e-08
9.35113e-08
-8.35133e-07
-4.43534e-08
7.69178e-08
-7.91564e-07
-3.81991e-08
5.83529e-08
-7.36793e-07
-3.28076e-08
3.94146e-08
-6.65538e-07
-2.78738e-08
2.18167e-08
-5.68805e-07
-2.27912e-08
7.57769e-09
-4.29455e-07
-1.65806e-08
-2.08072e-07
-7.57161e-09
-1.00062e-08
-1.88124e-07
-1.00131e-08
-2.88599e-08
-3.89031e-07
-2.17772e-08
-5.22543e-08
-5.15892e-07
-2.98594e-08
-7.75872e-08
-6.04071e-07
-3.65745e-08
-1.02655e-07
-6.68991e-07
-4.32611e-08
-1.25339e-07
-7.18758e-07
-5.07162e-08
-1.43574e-07
-7.58141e-07
-5.93831e-08
-1.55459e-07
-7.90017e-07
-6.94106e-08
-1.59349e-07
-8.16205e-07
-8.06732e-08
-1.54074e-07
-8.37751e-07
-9.28245e-08
-1.39092e-07
-8.55294e-07
-1.05212e-07
-1.14699e-07
-8.69176e-07
-1.16961e-07
-8.20947e-08
-8.79547e-07
-1.27073e-07
-4.34112e-08
-8.86469e-07
-1.34521e-07
-1.485e-09
-8.89915e-07
-1.38482e-07
4.04848e-08
-8.89848e-07
-1.3852e-07
7.92947e-08
-8.86281e-07
-1.34619e-07
1.12079e-07
-8.79243e-07
-1.27231e-07
1.36721e-07
-8.68755e-07
-1.17173e-07
1.51985e-07
-8.54802e-07
-1.05452e-07
1.57563e-07
-8.3721e-07
-9.30747e-08
1.53976e-07
-8.15633e-07
-8.09185e-08
1.42402e-07
-7.89458e-07
-6.96399e-08
1.2445e-07
-7.57592e-07
-5.95898e-08
1.02036e-07
-7.18257e-07
-5.08933e-08
7.71968e-08
-6.6855e-07
-4.34048e-08
5.20523e-08
-6.03713e-07
-3.66808e-08
2.87941e-08
-5.15624e-07
-2.99229e-08
1.00034e-08
-3.88869e-07
-2.17952e-08
-1.88071e-07
-9.99672e-09
-1.20537e-08
-1.6401e-07
-1.20598e-08
-3.47298e-08
-3.40194e-07
-2.61614e-08
-6.28802e-08
-4.5189e-07
-3.58513e-08
-9.34529e-08
-5.29561e-07
-4.39372e-08
-1.23826e-07
-5.86562e-07
-5.20569e-08
-1.51442e-07
-6.29933e-07
-6.12086e-08
-1.73818e-07
-6.63839e-07
-7.19252e-08
-1.88589e-07
-6.90862e-07
-8.43846e-08
-1.9372e-07
-7.12595e-07
-9.84788e-08
-1.87688e-07
-7.30046e-07
-1.13738e-07
-1.69757e-07
-7.43868e-07
-1.29357e-07
-1.40192e-07
-7.54464e-07
-1.44277e-07
-1.00402e-07
-7.62161e-07
-1.57177e-07
-5.29733e-08
-7.67162e-07
-1.66736e-07
-1.45335e-09
-7.69602e-07
-1.71833e-07
5.01055e-08
-7.6954e-07
-1.71867e-07
9.76529e-08
-7.6698e-07
-1.66848e-07
1.37624e-07
-7.6187e-07
-1.57344e-07
1.6744e-07
-7.54095e-07
-1.44477e-07
1.85644e-07
-7.4342e-07
-1.29585e-07
1.9197e-07
-7.29559e-07
-1.13978e-07
1.8715e-07
-7.12094e-07
-9.87189e-08
1.7267e-07
-6.90364e-07
-8.46138e-08
1.50584e-07
-6.63371e-07
-7.21342e-08
1.23223e-07
-6.29504e-07
-6.13916e-08
9.30771e-08
-5.86195e-07
-5.2209e-08
6.26909e-08
-5.29281e-07
-4.40457e-08
3.46628e-08
-4.5168e-07
-3.59154e-08
1.20524e-08
-3.40074e-07
-2.61849e-08
-1.63973e-07
-1.20457e-08
-1.35848e-08
-1.36835e-07
-1.35906e-08
-3.91056e-08
-2.85254e-07
-2.94197e-08
-7.08344e-08
-3.79905e-07
-4.0256e-08
-1.05377e-07
-4.45707e-07
-4.9312e-08
-1.39816e-07
-4.93677e-07
-5.84453e-08
-1.71254e-07
-5.29721e-07
-6.87744e-08
-1.96821e-07
-5.57369e-07
-8.09033e-08
-2.13809e-07
-5.7883e-07
-9.50437e-08
-2.19859e-07
-5.95521e-07
-1.11024e-07
-2.13204e-07
-6.0839e-07
-1.28311e-07
-1.92978e-07
-6.18073e-07
-1.46021e-07
-1.59418e-07
-6.25106e-07
-1.62918e-07
-1.14163e-07
-6.29901e-07
-1.77515e-07
-6.01423e-08
-6.32844e-07
-1.88338e-07
-1.40695e-09
-6.34209e-07
-1.94129e-07
5.73665e-08
-6.34154e-07
-1.94159e-07
1.11499e-07
-6.32684e-07
-1.88428e-07
1.56938e-07
-6.29652e-07
-1.77657e-07
1.90712e-07
-6.24768e-07
-1.63101e-07
2.11217e-07
-6.17692e-07
-1.46232e-07
2.18161e-07
-6.07968e-07
-1.28535e-07
2.12413e-07
-5.95093e-07
-1.11252e-07
1.95717e-07
-5.78404e-07
-9.52644e-08
1.70423e-07
-5.5697e-07
-8.11072e-08
1.39243e-07
-5.29369e-07
-6.89555e-08
1.05026e-07
-4.93381e-07
-5.85977e-08
7.06533e-08
-4.45473e-07
-4.94356e-08
3.90465e-08
-3.7974e-07
-4.03338e-08
1.35843e-08
-2.85166e-07
-2.94456e-08
-1.36811e-07
-1.35777e-08
-1.44646e-08
-1.07902e-07
-1.44686e-08
-4.16437e-08
-2.268e-07
-3.12745e-08
-7.55347e-08
-3.03285e-07
-4.27297e-08
-1.1258e-07
-3.56387e-07
-5.22741e-08
-1.49657e-07
-3.9469e-07
-6.19103e-08
-1.83623e-07
-4.22918e-07
-7.28364e-08
-2.1134e-07
-4.4397e-07
-8.56819e-08
-2.29836e-07
-4.59681e-07
-1.00654e-07
-2.36514e-07
-4.71292e-07
-1.17551e-07
-2.29452e-07
-4.79646e-07
-1.35807e-07
-2.07706e-07
-4.85377e-07
-1.54442e-07
-1.71585e-07
-4.89059e-07
-1.72169e-07
-1.22831e-07
-4.91205e-07
-1.8745e-07
-6.46257e-08
-4.92298e-07
-1.98752e-07
-1.34555e-09
-4.92719e-07
-2.0477e-07
6.19698e-08
-4.92673e-07
-2.04796e-07
1.20281e-07
-4.92164e-07
-1.98831e-07
1.69199e-07
-4.90993e-07
-1.87577e-07
2.05542e-07
-4.88781e-07
-1.72331e-07
2.27542e-07
-4.85059e-07
-1.54633e-07
2.34882e-07
-4.79296e-07
-1.36011e-07
2.28484e-07
-4.70934e-07
-1.17762e-07
2.1028e-07
-4.5934e-07
-1.00859e-07
1.82824e-07
-4.4364e-07
-8.58743e-08
1.49102e-07
-4.22637e-07
-7.30104e-08
1.12233e-07
-3.94453e-07
-6.20583e-08
7.53573e-08
-3.56209e-07
-5.23883e-08
4.15883e-08
-3.03168e-07
-4.28026e-08
1.44625e-08
-2.26739e-07
-3.13012e-08
-1.07892e-07
-1.44572e-08
-1.45606e-08
-7.87743e-08
-1.45667e-08
-4.20223e-08
-1.67905e-07
-3.14336e-08
-7.64646e-08
-2.25978e-07
-4.28642e-08
-1.14389e-07
-2.66126e-07
-5.23368e-08
-1.52578e-07
-2.94598e-07
-6.19028e-08
-1.87734e-07
-3.14968e-07
-7.27943e-08
-2.16544e-07
-3.29512e-07
-8.56479e-08
-2.35838e-07
-3.39744e-07
-1.00644e-07
-2.42917e-07
-3.46654e-07
-1.17558e-07
-2.35776e-07
-3.50995e-07
-1.35793e-07
-2.13452e-07
-3.53347e-07
-1.54353e-07
-1.763e-07
-3.54273e-07
-1.71937e-07
-1.26158e-07
-3.54322e-07
-1.87025e-07
-6.63131e-08
-3.53992e-07
-1.9815e-07
-1.26581e-09
-3.53694e-07
-2.04072e-07
6.38148e-08
-3.53658e-07
-2.04095e-07
1.23757e-07
-3.53887e-07
-1.98219e-07
1.74059e-07
-3.54162e-07
-1.87133e-07
2.11413e-07
-3.54064e-07
-1.72071e-07
2.33968e-07
-3.53098e-07
-1.54516e-07
2.4137e-07
-3.5072e-07
-1.35978e-07
2.34566e-07
-3.46379e-07
-1.17751e-07
2.15531e-07
-3.39471e-07
-1.00834e-07
1.86983e-07
-3.29264e-07
-8.58276e-08
1.52055e-07
-3.14751e-07
-7.29584e-08
1.14063e-07
-2.94419e-07
-6.20424e-08
7.63014e-08
-2.66e-07
-5.24471e-08
4.19656e-08
-2.25897e-07
-4.29356e-08
1.45604e-08
-1.67872e-07
-3.14613e-08
-7.87741e-08
-1.45573e-08
-1.37371e-08
-5.12953e-08
-1.3742e-08
-3.99137e-08
-1.12133e-07
-2.95949e-08
-7.31827e-08
-1.52492e-07
-4.02174e-08
-1.10268e-07
-1.80093e-07
-4.89484e-08
-1.4798e-07
-1.9909e-07
-5.77953e-08
-1.82949e-07
-2.12028e-07
-6.79705e-08
-2.11759e-07
-2.20608e-07
-8.00945e-08
-2.31201e-07
-2.25977e-07
-9.43259e-08
-2.38512e-07
-2.28927e-07
-1.10416e-07
-2.31705e-07
-2.30047e-07
-1.27755e-07
-2.09848e-07
-2.29838e-07
-1.45365e-07
-1.73336e-07
-2.28793e-07
-1.61993e-07
-1.2401e-07
-2.27414e-07
-1.76234e-07
-6.5141e-08
-2.26158e-07
-1.86704e-07
-1.16439e-09
-2.25411e-07
-1.9226e-07
6.28423e-08
-2.25385e-07
-1.9228e-07
1.218e-07
-2.26081e-07
-1.86764e-07
1.71267e-07
-2.27292e-07
-1.76337e-07
2.07968e-07
-2.28636e-07
-1.62129e-07
2.30039e-07
-2.29651e-07
-1.45517e-07
2.37087e-07
-2.29848e-07
-1.2792e-07
2.30018e-07
-2.28722e-07
-1.10589e-07
2.10828e-07
-2.25782e-07
-9.4498e-08
1.8225e-07
-2.20428e-07
-8.02592e-08
1.47495e-07
-2.11874e-07
-6.81216e-08
1.0997e-07
-1.98967e-07
-5.79255e-08
7.30308e-08
-1.80009e-07
-4.90526e-08
3.98643e-08
-1.52444e-07
-4.02861e-08
1.37357e-08
-1.1212e-07
-2.96236e-08
-5.13029e-08
-1.37355e-08
-1.18414e-08
-2.76074e-08
-1.18464e-08
-3.50452e-08
-6.35102e-08
-2.54192e-08
-6.53182e-08
-8.79181e-08