/*--------------------------------*- C++ -*----------------------------------*\
| =========                 |                                                 |
| \\      /  F ield         | OpenFOAM: The Open Source CFD Toolbox           |
|  \\    /   O peration     | Version:  v1912                                 |
|   \\  /    A nd           | Website:  www.openfoam.com                      |
|    \\/     M anipulation  |                                                 |
\*---------------------------------------------------------------------------*/
FoamFile
{
    version     2.0;
    format      ascii;
    class       volScalarField;
    location    "12/oil";
    object      wallHeatFlux;
}
// * * * * * * * * * * * * * * * * * * * * * * * * * * * * * * * * * * * * * //

dimensions      [1 0 -3 0 0 0 0];


internalField   uniform 0;

boundaryField
{
    maxY
    {
        type            calculated;
        value           uniform 0;
    }
    minX
    {
        type            calculated;
        value           uniform 0;
    }
    maxX
    {
        type            calculated;
        value           uniform 0;
    }
    minY
    {
        type            calculated;
        value           uniform 0;
    }
    minZ
    {
        type            calculated;
        value           uniform 0;
    }
    maxZ
    {
        type            calculated;
        value           uniform 0;
    }
    oil_to_sphere
    {
        type            calculated;
        value           nonuniform List<scalar> 
1536
(
24325.9
24196.5
24229.1
23910.5
23836.1
24156.7
24073.8
24067
24049.7
23898
23829.1
23901.2
24037.9
23945.5
23730.4
24032.5
24169.6
24236.3
24018.4
24037.7
24116.9
24038.7
24068.5
24032.4
24055.2
24040.1
24030.3
24010.5
24186.6
24076.9
24226.1
24187.3
24205.7
24010
24027.5
23993.5
23989.5
23941.3
23988.9
24015.4
23974.7
24008.6
24047.3
24102.8
24145.4
24014.3
24221
24163
23702.9
24056.3
24106.5
24060.3
24152.4
24009.9
24178.7
24293.4
24051.4
24040.8
24131
24084.9
24058.5
24031.1
24067.3
24011.8
24042.7
24045.9
24033.7
24121.9
24096
24154.7
24011.3
23952.7
23956.8
24043.1
24027.5
24294.2
24198.1
24011.5
24034.4
24248.4
24117.6
24125.2
23857.2
23842.3
24184
24323.3
23896.2
24021.7
24098.7
24090.2
24099.9
23994.5
24005.4
24005.3
24037.7
24093.4
24169.4
24164.3
24196.5
24086.1
24126.6
24004.5
24354.6
24123.1
23956.7
24034.6
24029.3
23933.2
23955.5
24384.3
24190.8
24090.5
24033.6
24091.6
23851.4
23918.2
23846.7
24267.2
24336.8
24221
24061.6
24087.8
23987.9
24157.8
24208.4
24173.7
24036.3
23972.9
24165.2
24094.1
24054
24092.3
24169.9
24008.9
24036.9
24146.2
24086.3
24257.4
23982.1
24168.6
24040.7
24101.9
24099.3
24046
24020.4
24045.7
24038.2
24529.5
24341.6
24357.5
24128.6
24458.4
24045.4
24063.9
23969.4
24295.2
24110.7
24366.5
24445.4
24530.6
24188
24582.5
23853.8
23885.9
23998.1
23974.8
24113.6
24381.4
24141
24447
24045.3
24059.7
24035.6
24201
24202.7
24165.7
24310.5
24297.4
24457.2
24301.9
23920.9
23867
23883.3
23886.3
24365.2
24335.7
24540.9
24032.4
24018.5
24238.4
24042.4
24210.6
24172.9
24242.2
23906
23772.4
24254.6
24255.1
24216.8
23997.2
24078.6
24052.8
24264.9
24260.9
24154.7
24134.9
24126
24320.7
24229
24360.6
23957.6
24036.5
24032.1
24182.7
24219.9
24349.5
24317.7
23937
23928.2
23789.2
24216.7
24182.5
24116
24100
24122.2
24365.9
24224.8
24181.4
24229.8
23938.4
24009.7
23814
24013.5
24332.7
24255.6
24276.3
24182.3
24142.4
24197.4
23920.1
23931.1
24319.8
24237.7
23991.4
23903
23823.2
24156.9
24380.6
24413.6
24662.1
24105.2
23881
23765.1
24086
24460.5
24000.7
24005.7
23803.3
23994.1
24355.2
24379.3
24170.5
24030.2
24239.1
24605.1
24020.9
23824.1
24192.3
24352.8
24305.3
24144.2
24183.5
24241.8
23916.2
24003.5
24263.3
24183.9
24412
24071.1
24252.1
24353.9
24197.6
24178.7
24262.7
24058.8
24032
24100.2
23942.7
23993
24253.6
24326.7
24378.3
24045.8
24043.4
24083.5
24037.1
24158.7
24102.1
23974.1
23831.7
23980.2
23899.2
23963.8
24349.2
24271.8
24288
24726.9
23866
23878.5
24307.7
24339
24617.9
24046.4
24098
24028.3
24180.4
24041
24164.3
24178
24274.4
24160.7
24097.2
24203.8
23962.8
24253.7
24278.2
24194.8
24201.3
23917.9
24361.7
24442.6
24331
23886.8
24063.2
24128.4
24184.7
24164.7
24139.5
23918.3
24253.5
24507.3
24229.6
24283.6
24108.4
24126
24092.3
23951.8
24178.6
24219.6
23934.4
23906
23937.7
24383.7
24292.5
24311
24128.1
24142.6
24351.7
23912.9
24359.6
24244.9
24104.3
24129.2
23925.4
24334.4
24280.1
23955
24095.8
24063.8
24047.7
24202.4
24250.1
24050.4
24064.9
23910.8
24341
24244.3
23925.5
24364.8
24387.9
24230.7
24325.6
24097.2
24205
23986.3
23868.5
24194
24626.5
24248.1
24495.4
24185
24061.1
24198.6
24001.6
24118.2
24250.9
24247.4
24208.5
24109.7
24026.7
23909.5
24277.8
24498.9
24249
24142.1
24052.7
24157.4
24190.8
24208.5
24139.8
24088.7
24040.3
24113.3
24017.7
23939.8
24004.7
24019.4
24093.9
23862.7
24045.6
24483.5
24045.4
24043.9
24266.4
24240.4
24163.7
24070.6
23897.8
24241.9
24278
24176.6
24175.6
24192.6
24129.1
24104.2
24133.1
23866.2
24341.9
24486.1
24328.1
24232.7
24226.8
24153.6
24129.8
24106.6
23995.3
24106.7
23978.9
23920
23977.8
23893.5
24356
24343.8
24254.5
24645.5
24273.6
24330.3
23896.6
23914.1
24162.9
24338.4
23903.3
24044.8
23981.2
24353.7
24315.9
24127.2
24160.3
24341.7
24288.6
24118.7
24203.9
23934.9
24236.7
23859.9
24333.1
23859.2
24301.7
24283.3
24256.8
24092.6
23905.9
24048.6
24252.4
24055.6
23867
24301.2
24264.3
24502.9
24366.5
24371.8
24255.1
23862.7
23887.9
23740.1
23755.2
24060.2
23999.5
24010.9
23992.2
24324.5
24303.9
23846.7
23809.6
24221.9
24153
24464.2
24030.1
24030
24143.9
23818.2
23771.7
24001.8
23999.9
24017.7
24048.4
24259.4
24234.6
24156.2
24114.7
23873.9
24035.7
24312.9
23981.1
23939.3
24204.2
24308.9
23979.2
23860
23932.2
23848.7
24076.4
24065.2
24023.1
23926.7
23711
24257.7
24240
24134
24139.3
24368.3
24244.6
24142.1
24158.8
23916.2
23997.7
24271.3
24190.1
24037.2
23801.7
24110.3
24470.1
24367.9
24117.8
24275.7
24281.7
24358.3
24246.3
23912.5
23962
23890.7
24029.6
24063.8
24252
24651.4
23910.6
23905.4
24310.9
24387.8
24121.3
24017.9
23848.4
24245.2
24067.3
24312.5
24313.1
24219.2
23862.2
24355.1
24459.4
23818.3
24467.4
24350.3
24256.5
24432.2
24204.1
24181.9
24130.2
24367.8
24144.9
24156.9
24129.8
24212.8
24156.7
24115.6
24118.4
23896.8
24215.5
24259.7
24228.6
24244.5
24273.1
24192.6
24161.1
23893.5
24311
24337.9
24205.1
24114
24155.6
24375
24242.5
23901.7
23865.3
24333.7
24305.3
24356.2
24078
24103.1
24194.2
23809.3
23723.2
24008.9
23999
24051.6
23877.6
23914.1
24393.8
24231.2
24295.1
24285.1
24322.7
24412.4
24339.3
24136.7
23740.1
23712.6
24051.1
24242.4
24061.6
24030.6
23810.6
24055.2
24369.6
24047.5
24668.2
23954
24251.5
24439.5
24192.4
24332.3
24393.1
24276.1
24168.4
24120.5
24116
24224.5
24088.7
24128
24185.8
24151.6
24250.5
24200.6
24239
23982.7
23975.6
23782.4
23771.9
23916.7
23689.5
24068.8
24053.1
24080.5
24126.1
23910.9
23901.9
24039.4
24313.2
24398.6
24040.4
23867.8
24059.8
24290.9
24362.7
24077.7
23905.3
23951.7
24198.3
24238.1
24078
24083.8
24206.6
24251.3
24344.2
24215.5
24122.6
24050
23905.6
23857.9
24302.9
24324.4
24369.3
24053.1
24408.8
24322.1
24430.5
24033.2
24071.7
23967.2
24015.7
24037.7
23975.8
24084.4
23863.1
24012.4
24331.4
24051.1
23945.7
24380.4
24239.2
24131.8
24139.9
24535.1
24570.7
23827
24197.2
24280.8
24166.9
24002
24110.3
24038.2
24195.5
24364.9
24238.3
23956.6
24218.8
24173.6
24181.6
24192.1
24120.4
24109.8
24121.5
24059.6
23896.4
23882
23946.1
24294.3
24022.3
23887.4
24020.8
24294.5
24061.2
24328.6
24284.6
24187.5
24125.9
24208.8
24342.2
23941
24173.3
24347
24280.6
24157.5
24005.3
24115.1
24226.1
24291
23961.4
24120.8
24178.3
24276.9
24136.4
24268.7
24329.5
23947.4
24027.8
24008.7
24367.2
24255.4
24094.9
24284
24008.7
24046.1
24282.2
24315.5
24310.8
23928.8
24230.1
24275.8
24110.5
24190.3
24236.3
24003.1
23850.1
24094.9
24290.3
24505
24092.7
24061.6
24094.6
24168.5
24245
24084.7
24030.8
24081.6
24247.2
24139.8
23943.3
24057.4
24008.7
24142.2
24120.4
24279.2
24198.6
24205.6
24043.9
24127.9
24138.2
24080.3
24051.6
24060.8
24033
23968.2
24205.6
24138.5
24104.5
24203.9
23853.7
24034.7
24381.2
24353.7
24002
24283.1
24171.1
24160
24073.1
24310.1
24254.9
23906.8
24046.2
24040.8
24047.2
23943.5
23889
24035.1
24301.1
24578.4
24022.5
24248.2
24203.5
24146
24087.2
24139.2
24301.3
24305.7
23920.5
24036.7
24031.4
24115.8
24179.5
24289.6
24216.5
24205.5
24260.6
24047.1
24193.9
24055.1
24257.4
23731.3
24211.8
24266
24052
23834.1
24224.7
24160.5
24328.9
24019.3
24196.9
24134.6
23855.7
24396.8
23958.4
24087.5
24072.2
23891.4
24296.9
24096.7
24116.9
24255.5
24099.3
24040.8
24315.9
23996.3
24045.6
23787.1
24329.2
24018.3
24076.7
24295.6
24513.9
23960.4
24076.9
24425.7
23975.1
24209.1
24026.3
24163
23921.4
24054
24419.7
23846
24551.8
23860.2
24353.7
23936.9
24014.1
23897.1
24068.9
24391.7
23821.2
24240.3
23867.7
24455.6
24388.8
23841.3
24276.7
23936.4
23910.6
23882.5
23999
24076.4
24090.9
24138.6
24067.5
24354.9
24424.4
23857.7
24330.2
24104.6
24067.1
24088.5
24081.3
24129.7
24071.9
24223
24111.3
24198.2
24062.5
24163.6
24291.2
24036.6
24130
24244.8
24040.3
24164.8
24112.3
24148.7
24071.1
24154.5
24057.7
24229.3
24041.5
24114.8
23888.6
24427.3
23825.1
24357.5
24289
24276.7
24004.6
24103.1
24050.2
24067.5
24201.8
24127.1
24233.2
23978.2
23747.4
24482.4
23847.1
24345.9
24023.9
24095.8
24433.3
23724.7
24621.9
24132.7
23826.3
24205
24180.5
24155.3
24148.1
23778.4
24199.8
24214.4
24022.1
24004.5
24335.1
24324.9
24073.3
24062.1
24332.6
23809.6
24353.6
24011.5
24161.5
23828.7
24662.7
24349.3
24224.8
24161.7
24176.9
24279.8
24142.4
23776.5
23961.9
24190.6
24015.6
24352.8
23815.5
24359.6
24288.3
23611.5
24210.7
24155.7
23743.4
24565.8
23870
24323
24410.6
24277.7
23700.4
24141.1
24090.3
24196
24169.9
24257.4
23783.8
24124.7
23986.4
23999.1
24370.1
24138.7
24323.2
24152.3
24175.1
24088.1
24107.3
24098.5
24114
24264.4
24034.9
24085.9
24011.3
24220.5
24295
24045.5
24046.9
24033.5
24132
24006.7
23995.8
24062.5
24075.8
24110.2
24161.2
24302.6
24302.6
23797.2
23920.8
24445.2
23658.3
24176.9
24220.9
24048
24098.3
24541
23767.3
24234.6
24278.5
23727.6
24069.4
24084.2
24259.8
23743.9
24266.9
24380.8
23688.6
24241.5
24359.1
23768.8
24268.9
24329.9
23776.7
24053.4
24028.6
23785.1
24098.3
24125.9
24096.8
24002.1
24221.9
23761.3
23966.6
24016.2
23776.1
24270.9
23937.3
24368.4
24143.7
23773.1
24225.2
24295.1
23753.3
24057.1
24069.2
23750.9
23875
24616.8
23618.9
23973.5
24280.9
23756.4
24284.6
24232.7
24100.7
24042.4
24100.4
23944.8
23711.3
24102.6
24019.4
24049.8
24103.3
23741
24324
24017.7
24084.3
23984.4
24071.8
24109.9
23977.8
23766.2
24081.9
24330.8
24004.1
24063.3
24130
23998.3
24083.5
23778.3
24103.7
24377.7
23986.2
24097.8
24003.6
23790.9
24430.4
24471.2
24251
24410.7
23758.7
23720.7
24154.8
24433.7
24122.2
24205
24233.4
23969.1
23908.1
23899.4
23959
23962.2
24084.3
24071.3
24063.4
23978.8
24227.8
24206.7
23776.7
23891.6
23971.3
24225.8
23982.2
23747.2
24430.9
24077.6
24243.8
23739.5
24152.6
24294.4
24038
24063.1
24215.4
24093.3
23939.9
24337.4
23662.2
24187
24252.1
24012.1
24039.2
24341.3
24239.8
24171.7
23940.5
24307
24074.4
24120.9
24224.9
24258.9
24233.4
24255.9
24355.3
24368.1
24308.7
24308.5
24361.8
24259.1
24028.2
24086
24028
23885
23705.1
24343.6
24325.2
24265.1
24051.6
24113
24106.9
24005.1
24147.3
24240.2
23976.6
24084.2
24202
24073
24036.2
24012.8
24052.2
23968.8
24040.4
24032.3
23818.5
24288.7
24007.5
24073.9
23720.6
24455.4
24092.3
24002.1
23980.4
23826.7
24129.9
24012.6
23758.5
24003.7
24073.8
23939.4
23896.3
24347.9
24382.8
24049.2
24042.3
24233.6
24312.3
23744.2
24190.6
23988.1
24032.5
24040.3
24051
24079.5
23953.3
23737.3
24395.7
24044.9
23916.8
23946.1
24016.9
24102
23850.8
24236.4
24065.2
24024.5
24312
23935.2
23795.3
24082.9
24023.4
24006.8
23747.4
24325.8
24061
24002.8
24030.1
23752.3
24112.1
24038.7
23807.7
24098.2
23993.5
24159.7
24248.1
24047.7
24206.5
24116.6
24009.6
23995.1
24044.9
23769.2
24258.3
24294.8
24023.9
23766.7
23975.2
24073.7
24078.9
24023.7
23766.1
24037.5
24238.2
24188.9
24082.5
24350.9
23882.8
24364.4
23737.8
23906.6
24404.2
23802.2
24262
24146.8
24101.5
24032.2
24431
23930.4
24084.9
24271.3
24370.7
23776.3
24275.5
24330.7
23683.6
24404.5
23995
23739.4
24436.5
23990.1
24012.5
24015.8
24076.3
24056.2
24015.3
24023.5
23715
24351.2
24150.2
24089.1
24102.7
24044.1
23995.4
23973.9
24402.8
23714.2
23978.7
24265.7
23799
24268.4
24303.6
24337.2
24286.8
24376.3
23907.7
24397.7
24171.4
24287.7
23997.4
24210.2
23949.8
23827.1
24351.4
23884.5
24235.7
24418.8
24300.3
23745.4
24354.5
24240.5
23997.2
24015.7
24055.3
24007.8
23746.4
24462.5
23738.1
24458.8
24042.7
23955.9
24113.1
24221.9
24176.2
24403.6
24076
24321.1
24329.9
24232.8
23937.5
24266.2
24197.8
24276.3
24017.9
23979.4
23782.7
24058
24321.2
24348.9
23703.6
23953.5
23916.1
24011.2
24067.8
23927
24537.4
24028.1
23933.1
23736.3
24199.8
24002.7
23653.4
24173.6
24028.1
23997.5
24020.7
24023.9
23744.5
23894.8
23738.8
24093.9
24406.5
24167.2
24326.2
24297.8
23980.9
23937.5
23782.8
23920.5
24349.4
24266.5
24322.2
24223.4
23904
23814.1
23933.2
23762.6
24241.5
24281.1
23960.8
24214.9
24313.4
24252.3
24313.4
24106.4
24093.4
23979.5
23672.1
23972.7
23805.5
24067.3
24020.1
24017.8
23788.9
23752
24191.5
24297.1
24429.8
24310.2
24091.4
24144.3
24149
24132.8
24039.9
24089.6
23964.7
24056
24056.1
23733.6
24384.9
24069.7
23964.1
23801.3
24094.3
24077.7
24074.6
24030.3
23805.8
24318.9
24144.6
24017.4
24337.6
23951.6
23730.6
24342.9
24092.3
24060.3
24046.6
24003.9
23663.7
24277.9
24051.1
23742.6
24473.6
24051.6
23696.8
24017.1
24062
24075.8
23994.6
23756.6
24011.6
24022.6
23849.5
24041.8
23740.6
24074.2
24067
23811.9
24466.2
24043.5
23816
24593.3
24071.3
24081.1
23789.6
24055.9
23755
)
;
    }
}


// ************************************************************************* //
