/*--------------------------------*- C++ -*----------------------------------*\
| =========                 |                                                 |
| \\      /  F ield         | OpenFOAM: The Open Source CFD Toolbox           |
|  \\    /   O peration     | Version:  v1912                                 |
|   \\  /    A nd           | Website:  www.openfoam.com                      |
|    \\/     M anipulation  |                                                 |
\*---------------------------------------------------------------------------*/
FoamFile
{
    version     2.0;
    format      ascii;
    class       volScalarField;
    location    "3/oil";
    object      heatTransferCoeff(T);
}
// * * * * * * * * * * * * * * * * * * * * * * * * * * * * * * * * * * * * * //

dimensions      [1 0 -3 -1 0 0 0];


internalField   uniform 0;

boundaryField
{
    maxY
    {
        type            calculated;
        value           uniform 0;
    }
    minX
    {
        type            calculated;
        value           uniform 0;
    }
    maxX
    {
        type            calculated;
        value           uniform 0;
    }
    minY
    {
        type            calculated;
        value           uniform 0;
    }
    minZ
    {
        type            calculated;
        value           uniform 0;
    }
    maxZ
    {
        type            calculated;
        value           uniform 0;
    }
    oil_to_sphere
    {
        type            calculated;
        value           nonuniform List<scalar> 
1536
(
-174.327
-174.849
-175.13
-175.502
-175.01
-174.637
-175.223
-174.701
-174.72
-175.155
-175.76
-174.971
-174.671
-175.255
-175.364
-175.096
-174.737
-175.111
-175.082
-174.748
-174.697
-174.622
-174.735
-175.114
-175.142
-175.099
-174.964
-175.135
-175.38
-174.723
-174.921
-175.628
-175.639
-174.564
-174.83
-174.784
-175.511
-175.329
-175.942
-174.572
-174.764
-174.838
-174.918
-174.961
-174.997
-174.823
-174.447
-174.905
-174.987
-174.613
-174.851
-174.943
-174.441
-174.98
-174.711
-174.761
-174.683
-174.867
-174.751
-174.823
-174.676
-174.843
-174.851
-175.502
-174.731
-175.46
-175.074
-174.94
-175.035
-174.613
-175.205
-174.763
-174.772
-174.807
-175.415
-174.618
-174.931
-174.783
-174.431
-174.857
-175.731
-175.656
-176.481
-174.562
-174.915
-174.75
-174.625
-174.76
-174.557
-174.823
-174.632
-174.883
-174.636
-174.986
-174.997
-175.079
-174.697
-174.847
-174.545
-174.715
-175.161
-175.371
-174.682
-174.932
-174.495
-175.229
-174.668
-174.844
-174.654
-174.765
-175.015
-175.873
-175.23
-174.636
-174.862
-175.04
-175.896
-175.429
-175.116
-175.018
-175.506
-175.38
-174.701
-174.689
-174.785
-175.409
-175.107
-174.736
-175.254
-174.688
-174.963
-175.086
-175.014
-175.057
-174.821
-174.932
-174.597
-175.781
-174.758
-174.728
-174.671
-175.111
-174.958
-175.064
-174.984
-175.082
-174.59
-174.808
-174.829
-175.095
-175.343
-175.275
-175.343
-174.63
-174.949
-174.653
-174.668
-174.74
-174.984
-175.026
-175.384
-174.856
-174.526
-174.848
-175.504
-175.087
-174.933
-175.544
-175.078
-175.563
-175.752
-174.725
-174.739
-174.845
-174.665
-174.916
-174.973
-175.261
-175.62
-175.527
-174.858
-174.544
-174.884
-174.755
-174.746
-174.627
-174.88
-175.005
-174.7
-175.026
-174.67
-175.388
-174.579
-174.969
-174.685
-174.996
-174.554
-174.907
-174.458
-174.923
-174.882
-175.493
-175.247
-174.594
-174.892
-174.742
-174.859
-174.634
-174.858
-175.807
-174.514
-175.385
-175.288
-175.574
-174.658
-174.997
-174.701
-174.714
-174.649
-174.636
-174.621
-174.72
-174.764
-174.707
-174.74
-174.756
-175.097
-174.361
-174.767
-175.571
-176.883
-177.055
-177.076
-174.472
-175.286
-174.598
-174.705
-175.656
-176.888
-175.318
-174.577
-176.767
-174.732
-175.955
-175.054
-174.623
-176.17
-174.744
-176.679
-174.773
-174.545
-174.667
-175.546
-176.28
-175.609
-174.366
-174.433
-175.626
-176.606
-175.869
-174.861
-177.168
-174.924
-174.704
-177.283
-174.436
-174.451
-176.941
-177.663
-175.169
-174.955
-174.808
-174.458
-175.353
-174.472
-174.384
-175.911
-175.828
-176.142
-174.255
-174.401
-176.635
-175.936
-175.476
-175.394
-175.284
-175.396
-175.789
-174.877
-174.751
-175.279
-175.573
-175.612
-175.344
-175.76
-175.186
-174.828
-174.85
-175.365
-175.84
-175.32
-175.423
-175.9
-176.147
-174.652
-177.649
-176.045
-179.085
-174.442
-174.405
-174.282
-177.527
-177.768
-175.122
-174.467
-174.35
-176.136
-174.995
-176.694
-176.586
-174.699
-177.234
-174.93
-175.362
-174.973
-175.731
-176.209
-175.425
-175.193
-175.8
-175.117
-175.234
-174.916
-174.776
-175.06
-175.959
-174.941
-174.738
-176.296
-174.764
-174.922
-175.379
-175.066
-175.382
-174.998
-174.837
-175.063
-175.042
-175.896
-175.179
-175.328
-174.925
-176.84
-174.833
-175.033
-175.154
-175.06
-175.553
-175.982
-175.458
-174.957
-175.35
-175.161
-177.905
-175.238
-175.123
-176.331
-175.091
-175.218
-174.875
-174.96
-175.089
-175.204
-175.46
-175.13
-175.92
-175.677
-175.333
-175.665
-176.128
-175.197
-175.475
-175.122
-176.237
-174.857
-174.48
-174.738
-175.507
-176.023
-174.918
-175.286
-174.799
-175.366
-174.821
-174.718
-175.329
-175.12
-174.989
-175.453
-177.678
-174.56
-175.2
-176.931
-175.264
-175.017
-177.229
-175.37
-176.573
-175.588
-175.002
-175.306
-176.111
-175.104
-174.637
-174.771
-175.424
-176.689
-174.949
-174.94
-174.437
-174.945
-174.967
-175.582
-174.977
-175.724
-175.304
-175.136
-175.28
-174.421
-177.716
-174.931
-174.487
-174.837
-176.056
-175.158
-175.103
-174.817
-175.388
-174.996
-174.903
-175.204
-174.702
-174.859
-174.978
-175.003
-176.499
-175.014
-174.943
-175.325
-175.248
-175.166
-176.059
-175.158
-174.692
-175.834
-175.368
-175.167
-175.549
-174.611
-174.923
-174.862
-174.893
-178.479
-175.012
-174.977
-175.041
-175.264
-175.38
-175.492
-175.204
-175.066
-175.136
-174.843
-174.927
-174.854
-175.009
-174.809
-174.719
-175.204
-174.846
-177.218
-174.441
-174.417
-176.889
-175.169
-176.612
-176.607
-174.333
-176.798
-174.993
-175.365
-175.143
-175.137
-175.31
-175.036
-175.178
-175.164
-175.094
-175.072
-175.368
-174.769
-174.994
-174.929
-175.439
-175.238
-174.929
-176.235
-175.066
-175.027
-174.733
-174.978
-175.042
-174.997
-174.945
-174.84
-175.574
-175.098
-175.033
-175.157
-174.974
-174.602
-174.888
-175.809
-175.081
-175.038
-175.06
-175.503
-175.391
-175.084
-175.195
-175.762
-176.153
-174.935
-174.9
-174.958
-175.104
-174.934
-175.384
-175.648
-175.144
-175.126
-175.095
-174.68
-174.795
-174.661
-174.847
-174.989
-176.878
-174.98
-175.101
-175.044
-174.855
-174.702
-175.182
-175.039
-175.151
-175.669
-175.245
-174.979
-175.165
-175.7
-175.47
-175.375
-175.049
-175.051
-174.924
-174.896
-174.785
-174.894
-174.842
-175.346
-175.08
-174.815
-175.235
-174.967
-175.193
-175.614
-174.993
-176.539
-175.617
-174.949
-174.945
-174.986
-175.429
-175.019
-175.152
-174.85
-175.222
-175.095
-175.084
-174.864
-175.106
-175.092
-175.059
-175.019
-175.141
-174.779
-175.723
-175.803
-174.999
-175.431
-175.214
-176.379
-174.982
-176.685
-175.895
-174.91
-175.248
-174.832
-174.813
-175.406
-174.978
-174.969
-175.145
-175.234
-175.185
-175.029
-174.754
-174.862
-175.073
-175.256
-175.298
-174.905
-174.737
-176.297
-175.098
-174.907
-174.999
-175.052
-175.002
-175.098
-174.892
-175.69
-176.075
-174.953
-175.529
-175.217
-174.99
-174.823
-175.088
-175.129
-175.826
-175.255
-174.871
-174.741
-174.755
-175.172
-176.526
-174.919
-175.273
-175.271
-176.015
-175.261
-175.243
-175.105
-174.707
-174.897
-175.108
-175.232
-175.416
-175.077
-175.33
-175.331
-175.193
-176.041
-175.318
-175.924
-175.076
-175.415
-175.315
-175.996
-175.467
-175.758
-175.379
-175.036
-175.196
-174.665
-175.178
-175.3
-175.506
-175.61
-174.878
-174.64
-175.073
-176.811
-174.921
-175.013
-175.01
-175.597
-175.208
-175.373
-175.022
-174.938
-174.728
-174.982
-175.105
-175.243
-175.294
-175.916
-175.552
-175.071
-175.049
-175.613
-175.596
-174.964
-175.377
-174.886
-174.856
-175.034
-176.468
-174.951
-175.995
-175.162
-175.057
-174.88
-174.703
-175.02
-175.161
-175
-174.892
-175.273
-174.777
-174.997
-175.07
-175.011
-174.794
-175.87
-175.231
-174.791
-175.012
-175.106
-175.12
-175.361
-174.79
-174.977
-175.167
-175.372
-175.421
-175.33
-175.006
-174.93
-175.083
-175.152
-176.327
-176.71
-175.189
-175.024
-175.298
-174.962
-175.283
-174.751
-174.988
-175.02
-175.367
-175.196
-175.24
-175.358
-175.11
-175.08
-175.092
-174.924
-175.241
-174.784
-174.826
-174.92
-175.684
-174.732
-176.746
-176.489
-177.402
-174.571
-174.518
-174.349
-176.018
-176.235
-175.036
-175.351
-174.68
-178.026
-174.624
-174.988
-176.147
-174.831
-174.808
-174.547
-175.302
-174.433
-175.457
-174.933
-175.109
-174.824
-175.704
-175.05
-174.983
-176.134
-175.113
-175.171
-174.926
-175.325
-175.13
-175.058
-175.377
-174.99
-174.909
-174.912
-174.952
-174.643
-174.851
-177.553
-174.914
-174.947
-175.032
-174.978
-174.71
-174.893
-177.005
-175.261
-175.006
-175.222
-175.141
-175.457
-175.383
-176.002
-175.964
-175
-175.634
-175.108
-175.156
-174.619
-174.834
-175.099
-175.854
-175.555
-175.122
-175.196
-175.218
-175.442
-175.285
-174.688
-174.888
-176.687
-174.854
-175.061
-174.984
-174.861
-174.873
-174.863
-176.395
-175.413
-175.014
-174.945
-175.061
-178.107
-176.652
-174.429
-175.594
-176.863
-174.49
-174.421
-174.42
-176.512
-177.233
-175.184
-175.355
-175.701
-175.085
-176.222
-175.28
-175.61
-175.189
-175.396
-175.313
-175.249
-174.763
-175.341
-174.521
-175.925
-174.559
-176.936
-174.959
-174.647
-176.259
-174.996
-175.528
-174.944
-175.049
-174.446
-176.756
-174.428
-177.514
-174.474
-174.402
-178.049
-175.223
-176.33
-177.405
-176.97
-175.059
-176.381
-175.45
-175.089
-175.77
-176.771
-175.969
-175.071
-175.214
-175.457
-176.055
-174.766
-175.546
-175.414
-175.298
-175.38
-175.602
-174.736
-174.96
-174.985
-174.495
-174.83
-174.531
-176.038
-174.761
-175.379
-174.951
-175.506
-175.126
-174.995
-175.006
-174.766
-175.299
-174.782
-174.938
-175.262
-175.059
-175.149
-176.633
-174.729
-175.608
-175.411
-175.276
-175.054
-174.72
-175.944
-174.937
-174.815
-175.133
-175.059
-175.129
-175.686
-175.032
-175.973
-175.588
-175.037
-175.998
-175.246
-175.011
-176.17
-175.036
-175.899
-175.08
-176.661
-175.338
-174.901
-175.245
-175.233
-175.235
-174.838
-175.58
-175.279
-174.843
-175.131
-175.351
-175.396
-175.209
-175.252
-175.456
-174.754
-175.187
-175.654
-175.334
-175.061
-174.605
-174.796
-176.388
-175.082
-175.045
-174.952
-174.892
-175.153
-174.877
-176.396
-176.85
-175.121
-175.48
-174.877
-175.457
-176.975
-174.473
-175.587
-176.939
-174.409
-174.509
-174.454
-176.884
-176.284
-174.909
-174.549
-174.935
-176.431
-174.865
-175.413
-174.476
-175.629
-174.175
-175.859
-175.421
-174.374
-180.212
-174.381
-174.536
-177.037
-175.246
-177.002
-175.938
-174.432
-176.62
-174.959
-174.501
-174.866
-176.142
-174.838
-174.498
-174.287
-175.471
-175.37
-176.852
-174.779
-177.549
-174.928
-174.712
-174.796
-175.146
-175.762
-174.967
-175.056
-174.993
-174.927
-175.113
-176.05
-175.583
-174.972
-175.206
-175.34
-176.233
-175.215
-175.435
-175.546
-175.075
-174.815
-175.33
-175.145
-174.836
-175.933
-175.167
-174.749
-175.035
-175.34
-175.224
-175.184
-175.627
-174.982
-175.415
-175.688
-176.078
-175.078
-175.137
-175.317
-175.256
-176.234
-174.672
-175.388
-176.445
-175.251
-175.187
-174.891
-175.305
-175.299
-174.957
-174.756
-175.034
-176.297
-174.908
-175.085
-175.093
-175.427
-175.577
-175.032
-175.171
-175.185
-175.288
-174.85
-174.992
-174.909
-175.354
-175.546
-175.158
-175.23
-175.19
-175.119
-175.349
-176.378
-174.697
-177.685
-174.444
-174.469
-176.518
-175.094
-176.556
-175.716
-177.326
-174.536
-175.823
-175.828
-175.237
-175.362
-175.792
-177.325
-175.243
-175.105
-175.063
-175.833
-174.82
-175.715
-175.301
-175.322
-175.731
-175.699
-174.838
-174.96
-174.921
-174.466
-175.063
-174.494
-176.172
-174.629
-175.813
-174.446
-174.442
-174.996
-176.972
-176.763
-176.979
-174.655
-177.591
-175.371
-174.358
-177.72
-175.352
-176.364
-175.176
-176.193
-175.568
-175.251
-176.585
-175.46
-175.459
-178.606
-174.76
-175.268
-175.026
-175.066
-175.441
-175.238
-175.324
-175.255
-175.54
-175.16
-174.591
-174.723
-175.821
-176.072
-175.196
-174.502
-174.645
-176.335
-176.261
-175.037
-174.801
-174.954
-177.007
-174.781
-174.985
-175.083
-175.447
-175.91
-175.393
-175.668
-175.616
-175.527
-175.036
-175.362
-175.49
-175.183
-175.055
-175.129
-174.78
-175.367
-175.382
-175.009
-175.726
-175.044
-176.034
-175.684
-176.372
-175.111
-175.113
-175.724
-175.122
-175.223
-175.462
-175.056
-176.115
-174.701
-175.499
-176.314
-175.461
-175.187
-175.086
-175.265
-175.397
-174.753
-174.927
-175.012
-175.171
-175.973
-175.084
-174.953
-174.838
-174.845
-174.827
-175.448
-176.415
-175.257
-174.838
-175.214
-174.782
-175.17
-175.727
-174.833
-174.969
-175.51
-175.081
-175
-175.372
-175.109
-175.052
-175.064
-174.975
-175.157
-175.338
-174.403
-174.501
-177.571
-175.091
-177.229
-175.833
-176.856
-174.535
-175.293
-174.463
-174.081
-175.443
-175.259
-176.27
-177.526
-174.883
-174.972
-175.178
-174.967
-174.779
-175.194
-175.423
-175.043
-175.411
-175.162
-174.875
-174.978
-176.251
-174.79
-175.553
-175.168
-175.07
-175.027
-174.898
-175.241
-175.306
-175.364
-174.772
-175.207
-175.226
-175.41
-175.178
-176.325
-176.548
-175.212
-175.072
-175.074
-175.055
-175.436
-175.095
-175.993
-174.926
-174.863
-175.073
-175.592
-175.147
-175.727
-175.165
-175.4
-175.344
-176.2
-174.77
-174.928
-174.929
-174.919
-175.347
-175.198
-175.275
-175.433
-175.167
-174.837
-175.037
-174.609
-175.473
-175.387
-175.287
-174.948
-175.077
-175.119
-174.95
-174.829
-174.966
-174.855
-175.242
-175.461
-175.01
-174.756
-174.982
-176.407
-174.781
-175.252
-175.027
-175.005
-175.138
-175.386
-175.136
-175.115
-175.115
-174.991
-175.28
-176.403
-175.352
-174.909
-175.072
-174.917
-174.971
-175.115
-175.118
-175.285
-174.89
-175.317
-175.936
-175.315
-176.188
-175.282
-176.784
-174.904
-175.584
-174.884
-175.243
-175.04
-175.247
-175.321
-175.131
-175.419
-176.679
-175.473
-174.957
-175.047
-175.193
-175.025
-175.11
-175.352
-175.065
-175.435
-175.183
-174.787
-176.224
-175.799
-175.083
-175.035
-175.267
-175.197
-175.327
-175.136
-174.899
-174.799
-175.79
-175.512
-175.215
-176.729
-175.03
-175.088
-175.221
-175.207
-176.173
-174.838
-174.878
-174.757
-174.883
-175.048
-175.053
-175.252
-174.816
-175.212
-175.291
-175.21
-175.294
-175.681
-176.028
-174.966
-175.368
-174.986
-175.29
-175.755
-175.075
-175.729
-174.976
-174.943
-174.994
-175.975
-176.08
-175.39
-175.117
-175.371
-175.405
-174.994
-175.075
-175.207
-174.655
-175.006
-175.3
-175.012
-174.979
-174.963
-175.014
-176.441
-174.644
-174.825
-174.862
-174.959
-175.019
-174.969
-174.961
-175.488
-174.926
-175.207
-174.759
-175.44
-175.158
-175.274
-174.971
-174.95
-174.944
-175.246
-175.061
-175.164
-175.068
-175.016
-174.727
-175.235
-175.025
-175.288
-174.829
-174.656
-174.975
-175.765
-175.243
-174.977
-175
-175.11
-175.193
-175.101
-174.721
-175.139
-175.07
-175.367
-175.365
-176.46
-175.093
-174.782
-174.617
-174.893
-174.976
-175.035
-175.028
-175.133
-175.361
-174.658
-174.997
-174.947
-175.185
-176.245
-175.056
-175.137
-175.284
-175.075
-174.885
-174.947
-175.129
-174.978
-175.086
-174.879
-175.109
-176.239
-174.674
-174.974
-174.993
-175.062
-175.11
-175.604
-175.054
-175.195
-175.713
-175.171
-174.964
)
;
    }
}


// ************************************************************************* //
