/*--------------------------------*- C++ -*----------------------------------*\
| =========                 |                                                 |
| \\      /  F ield         | OpenFOAM: The Open Source CFD Toolbox           |
|  \\    /   O peration     | Version:  v1912                                 |
|   \\  /    A nd           | Website:  www.openfoam.com                      |
|    \\/     M anipulation  |                                                 |
\*---------------------------------------------------------------------------*/
FoamFile
{
    version     2.0;
    format      ascii;
    class       surfaceScalarField;
    location    "3/oil";
    object      phi;
}
// * * * * * * * * * * * * * * * * * * * * * * * * * * * * * * * * * * * * * //

dimensions      [1 0 -1 0 0 0 0];
oriented        oriented;


internalField   nonuniform List<scalar> 
104676
(
-1.94326e-06
-1.94587e-06
-1.96544e-06
-1.08584e-06
-4.25493e-07
-4.3192e-07
-3.97824e-07
-3.41454e-07
-3.46565e-07
-2.10261e-07
-9.30628e-08
-9.44999e-08
-8.689e-08
-6.12708e-08
-6.21004e-08
-4.6334e-08
-2.01228e-08
-2.04332e-08
-2.18039e-08
-1.21788e-08
-1.23513e-08
-1.23427e-08
-4.69483e-09
-4.76637e-09
-6.74567e-09
-2.7894e-09
-2.8076e-09
-4.23205e-09
-1.26733e-09
-1.24629e-09
-2.71882e-09
-7.83521e-10
-7.29715e-10
-1.93201e-09
-4.32109e-10
-3.54696e-10
-1.43442e-09
-3.017e-10
-1.9589e-10
-1.12888e-09
-2.17574e-10
-8.7966e-11
-9.18297e-10
-1.77402e-10
-3.31833e-11
-7.73055e-10
-1.47947e-10
2.70563e-12
-6.71694e-10
-1.24665e-10
2.33038e-11
-6.02372e-10
-1.03135e-10
3.38131e-11
-5.55181e-10
-8.26e-11
3.54085e-11
-5.18336e-10
-6.44235e-11
2.7579e-11
-4.79704e-10
-5.02602e-11
1.16279e-11
-4.27736e-10
-4.09012e-11
-1.10671e-11
-3.56399e-10
-3.47442e-11
-3.6593e-11
-2.65183e-10
-3.04599e-11
-6.07556e-11
-1.61511e-10
-2.49826e-11
-7.86895e-11
-6.2017e-11
-1.38233e-11
-8.56709e-11
1.23495e-11
5.82126e-12
-8.01878e-11
4.27828e-11
3.27871e-11
-6.32205e-11
3.06102e-11
5.46757e-11
-4.2503e-11
5.15211e-11
-2.09109e-11
-4.24831e-07
-1.08773e-06
-4.33309e-07
-3.18542e-07
-3.18813e-07
-2.12968e-07
-1.89951e-07
-2.78118e-07
-1.91927e-07
-1.16898e-07
-8.95664e-08
-7.65493e-08
-6.40963e-08
-6.234e-08
-5.17322e-08
-3.95022e-08
-2.31561e-08
-2.15609e-08
-2.29544e-08
-1.5445e-08
-1.32817e-08
-1.49408e-08
-6.7436e-09
-5.96477e-09
-9.61312e-09
-4.60748e-09
-3.50961e-09
-6.78176e-09
-2.46249e-09
-1.6362e-09
-4.86508e-09
-1.83262e-09
-8.67582e-10
-3.73491e-09
-1.23738e-09
-3.24895e-10
-2.95048e-09
-1.03734e-09
-4.87952e-11
-2.43166e-09
-8.70069e-10
1.3368e-10
-2.04596e-09
-8.00505e-10
2.37399e-10
-1.76982e-09
-7.3133e-10
3.07245e-10
-1.56639e-09
-6.76538e-10
3.4844e-10
-1.42367e-09
-6.15971e-10
3.70121e-10
-1.31998e-09
-5.59126e-10
3.72836e-10
-1.23588e-09
-5.04047e-10
3.55526e-10
-1.14549e-09
-4.5847e-10
3.17815e-10
-1.03001e-09
-4.20068e-10
2.63691e-10
-8.77963e-10
-3.88162e-10
2.01367e-10
-6.88828e-10
-3.57237e-10
1.37643e-10
-4.75489e-10
-3.18179e-10
7.98568e-11
-2.66871e-10
-2.57877e-10
3.54362e-11
-9.90771e-11
-1.69521e-10
7.54861e-12
-3.43126e-12
-5.9385e-11
-3.47367e-12
1.8212e-11
3.91908e-11
-6.15831e-12
7.38849e-11
-4.15188e-12
-3.41693e-07
-3.98789e-07
-3.47244e-07
-2.78354e-07
-1.90223e-07
-1.91929e-07
-1.90524e-07
-1.90892e-07
-1.75057e-07
-1.24457e-07
-7.84895e-08
-7.71434e-08
-7.43908e-08
-6.07305e-08
-5.16758e-08
-4.72467e-08
-2.69855e-08
-2.33146e-08
-2.90008e-08
-1.95414e-08
-1.41495e-08
-1.91766e-08
-9.89014e-09
-6.67761e-09
-1.27327e-08
-7.22874e-09
-3.82264e-09
-9.06005e-09
-4.35953e-09
-1.77562e-09
-6.61267e-09
-3.42961e-09
-8.50393e-10
-5.1063e-09
-2.52487e-09
-2.18881e-10
-4.0662e-09
-2.19574e-09
1.18299e-10
-3.36313e-09
-1.90955e-09
3.36412e-10
-2.84327e-09
-1.78618e-09
4.65811e-10
-2.46627e-09
-1.66321e-09
5.5488e-10
-2.18663e-09
-1.56576e-09
6.09589e-10
-1.98591e-09
-1.45869e-09
6.42006e-10
-1.83715e-09
-1.35845e-09
6.50555e-10
-1.715e-09
-1.26079e-09
6.34591e-10
-1.58741e-09
-1.17463e-09
5.88567e-10
-1.43238e-09
-1.09747e-09
5.22374e-10
-1.23667e-09
-1.02769e-09
4.43812e-10
-9.9902e-10
-9.54792e-10
3.59906e-10
-7.32697e-10
-8.62595e-10
2.78093e-10
-4.66847e-10
-7.29082e-10
2.05354e-10
-2.3928e-10
-5.42059e-10
1.44971e-10
-8.46152e-11
-3.14183e-10
1.00132e-10
-1.11061e-11
-9.71467e-11
6.28283e-11
3.53203e-11
2.74583e-11
-9.33063e-08
-2.1085e-07
-9.46325e-08
-8.94899e-08
-1.17593e-07
-7.64462e-08
-7.7752e-08
-1.25517e-07
-7.71131e-08
-5.69908e-08
-5.84867e-08
-4.0764e-08
-4.04038e-08
-4.81607e-08
-2.91568e-08
-2.85476e-08
-2.40388e-08
-1.48029e-08
-2.00469e-08
-1.86153e-08
-9.42681e-09
-1.45824e-08
-1.05753e-08
-4.77926e-09
-1.07295e-08
-8.29401e-09
-2.78764e-09
-8.22888e-09
-5.56889e-09
-1.29129e-09
-6.44977e-09
-4.65843e-09
-5.50294e-10
-5.23837e-09
-3.70761e-09
-2.86602e-11
-4.34528e-09
-3.35113e-09
2.62297e-10
-3.69198e-09
-3.01486e-09
4.52005e-10
-3.18277e-09
-2.86551e-09
5.70115e-10
-2.79167e-09
-2.71047e-09
6.56163e-10
-2.48992e-09
-2.58277e-09
7.15256e-10
-2.26377e-09
-2.44144e-09
7.56601e-10
-2.08998e-09
-2.30804e-09
7.75804e-10
-1.94479e-09
-2.17622e-09
7.70251e-10
-1.79652e-09
-2.05566e-09
7.32757e-10
-1.62487e-09
-1.94435e-09
6.7523e-10
-1.41717e-09
-1.83842e-09
6.03036e-10
-1.17087e-09
-1.72265e-09
5.21559e-10
-8.95655e-10
-1.57416e-09
4.36348e-10
-6.14527e-10
-1.3624e-09
3.52188e-10
-3.58907e-10
-1.06968e-09
2.71999e-10
-1.62859e-10
-7.11646e-10
2.01416e-10
-4.17436e-11
-3.50797e-10
1.32534e-10
-6.66064e-11
6.01832e-11
-6.13346e-08
-8.74421e-08
-6.20738e-08
-6.20657e-08
-6.52235e-08
-5.16385e-08
-5.97828e-08
-7.61563e-08
-5.16433e-08
-4.63889e-08
-4.27099e-08
-2.91707e-08
-3.53379e-08
-3.79825e-08
-2.12292e-08
-2.59672e-08
-2.2013e-08
-1.13965e-08
-1.9123e-08
-1.8111e-08
-7.34851e-09
-1.42609e-08
-1.15815e-08
-3.85592e-09
-1.08068e-08
-9.50659e-09
-2.24147e-09
-8.42022e-09
-6.91849e-09
-1.037e-09
-6.71606e-09
-5.95034e-09
-4.12249e-10
-5.49765e-09
-4.94344e-09
1.74169e-11
-4.5914e-09
-4.51691e-09
2.59534e-10
-3.90627e-09
-4.11208e-09
4.12091e-10
-3.36296e-09
-3.91824e-09
5.09417e-10
-2.93314e-09
-3.72582e-09
5.85521e-10
-2.59443e-09
-3.57176e-09
6.50287e-10
-2.33466e-09
-3.40475e-09
7.03541e-10
-2.13283e-09
-3.2517e-09
7.41834e-10
-1.96625e-09
-3.09752e-09
7.5471e-10
-1.8054e-09
-2.95663e-09
7.4012e-10
-1.63188e-09
-2.82435e-09
7.06484e-10
-1.43363e-09
-2.69384e-09
6.5717e-10
-1.20547e-09
-2.54546e-09
5.94646e-10
-9.5093e-10
-2.35024e-09
5.21536e-10
-6.84027e-10
-2.06972e-09
4.40418e-10
-4.27661e-10
-1.67999e-09
3.53948e-10
-2.12758e-10
-1.19622e-09
2.69666e-10
-6.20524e-11
-6.8222e-10
1.80719e-10
-2.1162e-10
8.29611e-11
-2.00897e-08
-4.6996e-08
-2.03564e-08
-2.27449e-08
-4.10894e-08
-2.14789e-08
-2.59058e-08
-4.96757e-08
-2.33197e-08
-2.21213e-08
-3.1615e-08
-1.48794e-08
-1.92151e-08
-2.94194e-08
-1.14694e-08
-1.5468e-08
-1.90738e-08
-6.68629e-09
-1.26622e-08
-1.6421e-08
-4.49581e-09
-1.02338e-08
-1.15226e-08
-2.48738e-09
-8.41384e-09
-9.84467e-09
-1.48184e-09
-6.97984e-09
-7.64704e-09
-7.05458e-10
-5.88979e-09
-6.7543e-09
-2.86084e-10
-5.02266e-09
-5.80799e-09
-2.58734e-12
-4.3254e-09
-5.36948e-09
1.55304e-10
-3.74314e-09
-4.93817e-09
2.43841e-10
-3.24657e-09
-4.72003e-09
3.05222e-10
-2.82591e-09
-4.51224e-09
3.65774e-10
-2.47753e-09
-4.35934e-09
4.39191e-10
-2.20195e-09
-4.18856e-09
5.08237e-10
-1.98525e-09
-4.03822e-09
5.69818e-10
-1.80776e-09
-3.88495e-09
6.09941e-10
-1.6469e-09
-3.74831e-09
6.30812e-10
-1.4867e-09
-3.61812e-09
6.33568e-10
-1.31515e-09
-3.48462e-09
6.1923e-10
-1.12403e-09
-3.32417e-09
5.87589e-10
-9.09875e-10
-3.10193e-09
5.37534e-10
-6.7776e-10
-2.77212e-09
4.70288e-10
-4.42111e-10
-2.30363e-09
3.87986e-10
-2.30548e-10
-1.70816e-09
3.0038e-10
-7.04145e-11
-1.04551e-09
2.03158e-10
-3.76293e-10
9.42578e-11
-1.21412e-08
-2.26135e-08
-1.22413e-08
-1.50208e-08
-2.49707e-08
-1.32391e-08
-1.84403e-08
-3.20069e-08
-1.42493e-08
-1.66789e-08
-2.37575e-08
-9.61886e-09
-1.53098e-08
-2.32468e-08
-7.54172e-09
-1.28407e-08
-1.69257e-08
-4.61716e-09
-1.09497e-08
-1.51484e-08
-3.16356e-09
-9.12137e-09
-1.152e-08
-1.83092e-09
-7.72799e-09
-1.01063e-08
-1.13174e-09
-6.55375e-09
-8.21968e-09
-6.01606e-10
-5.63872e-09
-7.34814e-09
-3.21188e-10
-4.86789e-09
-6.42745e-09
-1.51374e-10
-4.21035e-09
-5.95253e-09
-7.44807e-11
-3.62594e-09
-5.47489e-09
-4.76886e-11
-3.10707e-09
-5.222e-09
-1.68962e-11
-2.65068e-09
-5.00245e-09
3.38144e-11
-2.27115e-09
-4.85577e-09
1.16898e-10
-1.96338e-09
-4.70252e-09
2.06192e-10
-1.7265e-09
-4.57338e-09
2.98283e-10
-1.54009e-09
-4.44958e-09
3.78215e-10
-1.38585e-09
-4.34535e-09
4.42797e-10
-1.24766e-09
-4.2455e-09
4.89197e-10
-1.11197e-09
-4.13625e-09
5.15937e-10
-9.6636e-10
-3.98995e-09
5.20171e-10
-8.0113e-10
-3.76535e-09
4.98197e-10
-6.13692e-10
-3.41e-09
4.50439e-10
-4.11702e-10
-2.88515e-09
3.79529e-10
-2.19763e-10
-2.19746e-09
2.97365e-10
-6.78229e-11
-1.39969e-09
2.02236e-10
-5.3858e-10
9.4465e-11
-4.65861e-09
-1.32898e-08
-4.66508e-09
-6.33995e-09
-1.72748e-08
-6.01457e-09
-8.81922e-09
-2.26159e-08
-6.91175e-09
-8.68171e-09
-1.87723e-08
-5.12275e-09
-8.85013e-09
-1.88704e-08
-4.208e-09
-8.05505e-09
-1.49591e-08
-2.7617e-09
-7.49291e-09
-1.37328e-08
-1.97772e-09
-6.70457e-09
-1.10736e-08
-1.23483e-09
-6.08113e-09
-9.89534e-09
-8.34407e-10
-5.44842e-09
-8.31265e-09
-5.39744e-10
-4.9101e-09
-7.48238e-09
-4.04082e-10
-4.37874e-09
-6.60605e-09
-3.52747e-10
-3.85108e-09
-6.11035e-09
-3.69852e-10
-3.3219e-09
-5.60468e-09
-3.99392e-10
-2.81925e-09
-5.32514e-09
-3.99504e-10
-2.35413e-09
-5.10318e-09
-3.64384e-10
-1.95687e-09
-4.97366e-09
-2.79368e-10
-1.6275e-09
-4.87039e-09
-1.61509e-10
-1.38207e-09
-4.7915e-09
-2.73102e-11
-1.20049e-09
-4.73249e-09
1.0133e-10
-1.06531e-09
-4.69585e-09
2.15322e-10
-9.59353e-10
-4.6602e-09
3.08743e-10
-8.6615e-10
-4.60711e-09
3.77662e-10
-7.69547e-10
-4.50414e-09
4.17593e-10
-6.55195e-10
-4.30386e-09
4.24156e-10
-5.15304e-10
-3.94762e-09
3.9773e-10
-3.53145e-10
-3.38947e-09
3.42167e-10
-1.90718e-10
-2.63081e-09
2.70918e-10
-5.82153e-11
-1.71754e-09
1.85345e-10
-6.84118e-10
8.73219e-11
-2.75733e-09
-7.7839e-09
-2.74858e-09
-4.22711e-09
-1.21427e-08
-3.66226e-09
-6.20457e-09
-1.64431e-08
-4.19535e-09
-6.46508e-09
-1.52288e-08
-3.28296e-09
-6.86769e-09
-1.57185e-08
-2.74922e-09
-6.51568e-09
-1.3406e-08
-1.9051e-09
-6.28382e-09
-1.2549e-08
-1.41563e-09
-5.8144e-09
-1.05795e-08
-9.63429e-10
-5.43515e-09
-9.54662e-09
-7.2797e-10
-4.9948e-09
-8.17271e-09
-5.80285e-10
-4.588e-09
-7.33734e-09
-5.51841e-10
-4.13199e-09
-6.46161e-09
-6.00444e-10
-3.63722e-09
-5.90364e-09
-7.01483e-10
-3.10592e-09
-5.36254e-09
-7.73441e-10
-2.57699e-09
-5.04883e-09
-8.05241e-10
-2.07426e-09
-4.82209e-09
-7.83816e-10
-1.64299e-09
-4.71333e-09
-6.91603e-10
-1.29114e-09
-4.67954e-09
-5.42703e-10
-1.03478e-09
-4.68791e-09
-3.59944e-10
-8.61004e-10
-4.72968e-09
-1.76588e-10
-7.4968e-10
-4.7954e-09
-1.17722e-11
-6.78573e-10
-4.85747e-09
1.26162e-10
-6.27131e-10
-4.89131e-09
2.32756e-10
-5.75506e-10
-4.85901e-09
3.03237e-10
-5.06402e-10
-4.70738e-09
3.34411e-10
-4.09405e-10
-4.37231e-09
3.27691e-10
-2.85438e-10
-3.80196e-09
2.88516e-10
-1.54518e-10
-2.99283e-09
2.311e-10
-4.56475e-11
-1.98572e-09
1.59315e-10
-8.05609e-10
7.58435e-11
-1.23723e-09
-5.31431e-09
-1.23236e-09
-2.0874e-09
-9.40431e-09
-1.88826e-09
-3.36417e-09
-1.28939e-08
-2.27238e-09
-3.7906e-09
-1.28799e-08
-1.92246e-09
-4.3536e-09
-1.34763e-08
-1.67921e-09
-4.43277e-09
-1.20739e-08
-1.25295e-09
-4.57639e-09
-1.1415e-08
-9.9044e-10
-4.49832e-09
-9.90243e-09
-7.55176e-10
-4.43598e-09
-8.95526e-09
-6.53705e-10
-4.25919e-09
-7.7226e-09
-6.269e-10
-4.04215e-09
-6.85982e-09
-6.94566e-10
-3.70948e-09
-5.96256e-09
-8.31724e-10
-3.29139e-09
-5.32519e-09
-9.96537e-10
-2.79962e-09
-4.74584e-09
-1.10846e-09
-2.27672e-09
-4.3982e-09
-1.17353e-09
-1.76149e-09
-4.17751e-09
-1.15981e-09
-1.31638e-09
-4.10801e-09
-1.05044e-09
-9.64927e-10
-4.15668e-09
-8.74311e-10
-7.13722e-10
-4.28961e-09
-6.49502e-10
-5.57557e-10
-4.46711e-09
-4.18734e-10
-4.74568e-10
-4.66858e-09
-2.0981e-10
-4.37662e-10
-4.85887e-09
-3.55063e-11
-4.22746e-10
-5.00623e-09
9.99985e-11
-4.07374e-10
-5.06725e-09
1.92868e-10
-3.73857e-10
-4.98338e-09
2.42483e-10
-3.11044e-10
-4.68712e-09
2.51995e-10
-2.19331e-10
-4.12195e-09
2.28281e-10
-1.17713e-10
-3.27995e-09
1.85502e-10
-3.29388e-11
-2.19965e-09
1.29154e-10
-9.0149e-10
6.29421e-11
-7.5378e-10
-3.80864e-09
-7.51888e-10
-1.44605e-09
-7.50393e-09
-1.20811e-09
-2.42153e-09
-1.04563e-08
-1.46218e-09
-2.88439e-09
-1.11187e-08
-1.29839e-09
-3.41004e-09
-1.17858e-08
-1.16483e-09
-3.59703e-09
-1.09626e-08
-9.24366e-10
-3.81702e-09
-1.04238e-08
-7.71194e-10
-3.86198e-09
-9.20907e-09
-6.48401e-10
-3.90139e-09
-8.29276e-09
-6.2309e-10
-3.82385e-09
-7.12684e-09
-6.73299e-10
-3.67483e-09
-6.19666e-09
-8.12189e-10
-3.38944e-09
-5.23761e-09
-1.01034e-09
-3.01156e-09
-4.50048e-09
-1.20259e-09
-2.54121e-09
-3.87239e-09
-1.34381e-09
-2.02532e-09
-3.48549e-09
-1.4286e-09
-1.51137e-09
-3.2737e-09
-1.41776e-09
-1.06618e-09
-3.25922e-09
-1.29398e-09
-7.21942e-10
-3.40592e-09
-1.095e-09
-4.84231e-10
-3.68412e-09
-8.43206e-10
-3.47201e-10
-4.0181e-09
-5.86042e-10
-2.86578e-10
-4.37751e-09
-3.51689e-10
-2.73391e-10
-4.71497e-09
-1.57089e-10
-2.81102e-10
-4.99159e-09
-6.92605e-12
-2.86992e-10
-5.15815e-09
9.67982e-11
-2.74922e-10
-5.15193e-09
1.5648e-10
-2.34006e-10
-4.90454e-09
1.76508e-10
-1.64585e-10
-4.35612e-09
1.64747e-10
-8.54912e-11
-3.49513e-09
1.36087e-10
-2.10979e-11
-2.36071e-09
9.66668e-11
-9.72137e-10
4.95491e-11
-4.05539e-10
-2.99844e-09
-4.0466e-10
-8.44725e-10
-6.32902e-09
-7.35725e-10
-1.49467e-09
-8.87268e-09
-9.33626e-10
-1.90397e-09
-9.82361e-09
-8.85748e-10
-2.38115e-09
-1.04868e-08
-8.21818e-10
-2.64546e-09
-1.00031e-08
-6.95174e-10
-2.92823e-09
-9.52394e-09
-6.17079e-10
-3.07859e-09
-8.49274e-09
-5.65971e-10
-3.20899e-09
-7.57401e-09
-5.88347e-10
-3.22381e-09
-6.42425e-09
-6.8777e-10
-3.14906e-09
-5.40995e-09
-8.61449e-10
-2.94092e-09
-4.38353e-09
-1.06223e-09
-2.63231e-09
-3.55402e-09
-1.25507e-09
-2.22142e-09
-2.86725e-09
-1.41602e-09
-1.75913e-09
-2.44163e-09
-1.50616e-09
-1.29458e-09
-2.24135e-09
-1.49689e-09
-8.90779e-10
-2.29261e-09
-1.37041e-09
-5.79402e-10
-2.54938e-09
-1.16792e-09
-3.67305e-10
-2.97655e-09
-9.19669e-10
-2.47591e-10
-3.47332e-09
-6.64493e-10
-1.98008e-10
-3.99762e-09
-4.29468e-10
-1.91664e-10
-4.48729e-09
-2.34017e-10
-2.03527e-10
-4.89486e-09
-8.48717e-11
-2.12459e-10
-5.16679e-09
1.75714e-11
-2.06074e-10
-5.23769e-09
7.93788e-11
-1.76042e-10
-5.0417e-09
1.07131e-10
-1.23994e-10
-4.51756e-09
1.09387e-10
-6.27765e-11
-3.65231e-09
9.59682e-11
-1.37728e-11
-2.48104e-09
7.13296e-11
-1.02479e-09
3.88798e-11
-2.66961e-10
-2.46759e-09
-2.63889e-10
-6.29735e-10
-5.46856e-09
-4.97681e-10
-1.13263e-09
-7.72294e-09
-6.46848e-10
-1.50126e-09
-8.79429e-09
-6.6069e-10
-1.90947e-09
-9.43575e-09
-6.42874e-10
-2.16756e-09
-9.17084e-09
-5.74137e-10
-2.42164e-09
-8.73885e-09
-5.31008e-10
-2.56876e-09
-7.83241e-09
-5.13214e-10
-2.6864e-09
-6.90572e-09
-5.50645e-10
-2.70957e-09
-5.74885e-09
-6.5222e-10
-2.66183e-09
-4.66307e-09
-7.94623e-10
-2.5041e-09
-3.57989e-09
-9.61364e-10
-2.24961e-09
-2.67299e-09
-1.13552e-09
-1.91081e-09
-1.9286e-09
-1.27745e-09
-1.53315e-09
-1.46842e-09
-1.35087e-09
-1.15464e-09
-1.28202e-09
-1.33784e-09
-8.24373e-10
-1.39905e-09
-1.22383e-09
-5.65511e-10
-1.75897e-09
-1.04927e-09
-3.87265e-10
-2.31218e-09
-8.42614e-10
-2.78817e-10
-2.95271e-09
-6.29051e-10
-2.24036e-10
-3.62254e-09
-4.2986e-10
-2.04153e-10
-4.24497e-09
-2.62204e-10
-2.01274e-10
-4.76628e-09
-1.31456e-10
-1.98406e-10
-5.13312e-09
-3.65363e-11
-1.83061e-10
-5.27741e-09
2.43708e-11
-1.49853e-10
-5.12876e-09
5.3852e-11
-1.00682e-10
-4.62817e-09
6.1443e-11
-4.73614e-11
-3.76313e-09
5.74981e-11
-8.18197e-12
-2.5669e-09
4.66751e-11
-1.06219e-09
2.92183e-11
-1.72059e-10
-2.1255e-09
-1.70035e-10
-4.40527e-10
-4.85375e-09
-3.46349e-10
-8.0574e-10
-6.89966e-09
-4.58072e-10
-1.10216e-09
-8.00852e-09
-4.89354e-10
-1.42128e-09
-8.62319e-09
-4.93434e-10
-1.64121e-09
-8.4837e-09
-4.67211e-10
-1.85218e-09
-8.07531e-09
-4.52579e-10
-1.98833e-09
-7.23907e-09
-4.57189e-10
-2.08756e-09
-6.3149e-09
-4.91598e-10
-2.10928e-09
-5.17641e-09
-5.50717e-10
-2.07899e-09
-4.06291e-09
-6.30457e-10
-1.96761e-09
-2.95283e-09
-7.38436e-10
-1.79348e-09
-1.99748e-09
-8.49651e-10
-1.56402e-09
-1.22311e-09
-9.34949e-10
-1.31117e-09
-7.49946e-10
-9.7133e-10
-1.05721e-09
-5.87319e-10
-9.48662e-10
-8.3619e-10
-7.5885e-10
-8.61216e-10
-6.55211e-10
-1.19908e-09
-7.40865e-10
-5.18839e-10
-1.84619e-09
-6.02359e-10
-4.20791e-10
-2.5871e-09
-4.63658e-10
-3.52991e-10
-3.35005e-09
-3.40291e-10
-3.03237e-10
-4.05847e-09
-2.3626e-10
-2.61958e-10
-4.65882e-09
-1.48734e-10
-2.21734e-10
-5.09531e-09
-7.80429e-11
-1.79847e-10
-5.29243e-09
-2.68654e-11
-1.32785e-10
-5.17867e-09
2.84459e-12
-8.10636e-11
-4.69632e-09
1.64268e-11
-3.33439e-11
-3.83348e-09
2.26311e-11
-3.10658e-12
-2.62208e-09
2.49438e-11
-1.08647e-09
2.11702e-11
-1.30708e-10
-1.8722e-09
-1.22595e-10
-3.61368e-10
-4.3632e-09
-2.59886e-10
-6.58241e-10
-6.24567e-09
-3.57114e-10
-9.07336e-10
-7.35843e-09
-4.00994e-10
-1.15175e-09
-7.95682e-09
-4.21959e-10
-1.3111e-09
-7.90355e-09
-4.20801e-10
-1.44266e-09
-7.52832e-09
-4.15425e-10
-1.51267e-09
-6.76358e-09
-4.05487e-10
-1.55965e-09
-5.87027e-09
-3.97652e-10
-1.55319e-09
-4.78964e-09
-3.93225e-10
-1.51436e-09
-3.7044e-09
-3.97333e-10
-1.43604e-09
-2.61763e-09
-4.13525e-10
-1.34281e-09
-1.66355e-09
-4.27157e-10
-1.23463e-09
-9.02038e-10
-4.2925e-10
-1.12769e-09
-4.42511e-10
-4.14371e-10
-1.02099e-09
-3.04872e-10
-3.89144e-10
-9.24942e-10
-5.06682e-10
-3.4822e-10
-8.3109e-10
-9.86476e-10
-3.06457e-10
-7.35865e-10
-1.67646e-09
-2.64958e-10
-6.37095e-10
-2.46012e-09
-2.25755e-10
-5.38702e-10
-3.25951e-09
-1.88934e-10
-4.431e-10
-3.99942e-09
-1.54649e-10
-3.53114e-10
-4.62765e-09
-1.2116e-10
-2.69904e-10
-5.08789e-09
-9.06211e-11
-1.9457e-10
-5.30333e-09
-6.44319e-11
-1.26642e-10
-5.20278e-09
-4.38181e-11
-6.72735e-11
-4.72874e-09
-2.69455e-11
-2.20175e-11
-3.86789e-09
-1.0845e-11
1.14248e-12
-2.6499e-09
4.65914e-12
-1.09975e-09
1.44309e-11
-1.02757e-10
-1.67826e-09
-9.11806e-11
-2.90319e-10
-3.97122e-09
-2.04421e-10
-5.24027e-10
-5.71636e-09
-2.95603e-10
-7.22874e-10
-6.81071e-09
-3.48868e-10
-9.02059e-10
-7.39955e-09
-3.78089e-10
-1.01072e-09
-7.41752e-09
-3.77364e-10
-1.0836e-09
-7.10034e-09
-3.55097e-10
-1.09175e-09
-6.43843e-09
-3.17005e-10
-1.06735e-09
-5.62471e-09
-2.69963e-10
-1.01062e-09
-4.63435e-09
-2.12009e-10
-9.59257e-10
-3.62036e-09
-1.35411e-10
-9.1949e-10
-2.61199e-09
-4.54081e-11
-9.09059e-10
-1.72497e-09
5.09949e-11
-9.24863e-10
-1.02024e-09
1.34002e-10
-9.66336e-10
-5.94775e-10
1.93736e-10
-1.01139e-09
-4.73827e-10
2.14012e-10
-1.04172e-09
-6.77515e-10
2.01162e-10
-1.03513e-09
-1.15061e-09
1.57545e-10
-9.82046e-10
-1.8225e-09
9.29513e-11
-8.81532e-10
-2.58181e-09
2.11758e-11
-7.46725e-10
-3.35467e-09
-3.9652e-11
-5.95382e-10
-4.06896e-09
-8.18015e-11
-4.46604e-10
-4.67245e-09
-1.03979e-10
-3.14566e-10
-5.10927e-09
-1.10665e-10
-2.03365e-10
-5.30965e-09
-1.04885e-10
-1.14224e-10
-5.20207e-09
-8.98473e-11
-4.87311e-11
-4.72646e-09
-6.7771e-11
-7.94347e-12
-3.86766e-09
-4.1023e-11
6.51899e-12
-2.6522e-09
-1.21645e-11
-1.10174e-09
8.50752e-12
-8.72081e-11
-1.5174e-09
-7.36485e-11
-2.53831e-10
-3.62791e-09
-1.76684e-10
-4.50503e-10
-5.25218e-09
-2.67513e-10
-6.1294e-10
-6.31888e-09
-3.29398e-10
-7.38754e-10
-6.90622e-09
-3.67515e-10
-7.92342e-10
-6.98993e-09
-3.74003e-10
-7.96395e-10
-6.74745e-09
-3.48837e-10
-7.42268e-10
-6.20344e-09
-2.89112e-10
-6.64452e-10
-5.5094e-09
-1.9313e-10
-5.7145e-10
-4.66127e-09
-6.60888e-11
-5.06608e-10
-3.7762e-09
9.10005e-11
-4.93721e-10
-2.89668e-09
2.71799e-10
-5.51238e-10
-2.12551e-09
4.58055e-10
-6.72943e-10
-1.51413e-09
6.15601e-10
-8.42435e-10
-1.14474e-09
7.19455e-10
-1.01463e-09
-1.03844e-09
7.36804e-10
-1.15037e-09
-1.22196e-09
6.80185e-10
-1.21563e-09
-1.64771e-09
5.62355e-10
-1.19637e-09
-2.24433e-09
4.02568e-10
-1.09303e-09
-2.9193e-09
2.34149e-10
-9.28363e-10
-3.61072e-09
9.13902e-11
-7.29606e-10
-4.25022e-09
-1.74929e-11
-5.27533e-10
-4.78015e-09
-9.43697e-11
-3.48962e-10
-5.14808e-09
-1.3976e-10
-2.02331e-10
-5.30251e-09
-1.53771e-10
-9.20584e-11
-5.17001e-09
-1.4234e-10
-2.2114e-11
-4.68398e-09
-1.12421e-10
1.1518e-11
-3.82809e-09
-7.32047e-11
1.4165e-11
-2.62487e-09
-2.99713e-11
-1.08937e-09
1.79576e-12
-7.76549e-11
-1.3751e-09
-6.46491e-11
-2.25234e-10
-3.31576e-09
-1.64576e-10
-3.9095e-10
-4.82763e-09
-2.58826e-10
-5.20743e-10
-5.85944e-09
-3.29639e-10
-6.02864e-10
-6.44822e-09
-3.75877e-10
-6.12499e-10
-6.59299e-09
-3.8731e-10
-5.66847e-10
-6.43452e-09
-3.5858e-10
-4.70836e-10
-6.01494e-09
-2.84509e-10
-3.59932e-10
-5.4597e-09
-1.60604e-10
-2.50456e-10
-4.78614e-09
1.53981e-11
-1.84179e-10
-4.07501e-09
2.32534e-10
-1.93528e-10
-3.36014e-09
4.7281e-10
-3.02219e-10
-2.73255e-09
7.15732e-10
-4.98747e-10
-2.23775e-09
9.2015e-10
-7.55022e-10
-1.93956e-09
1.0511e-09
-1.01064e-09
-1.84803e-09
1.06521e-09
-1.21424e-09
-1.99537e-09
9.77003e-10
-1.32561e-09
-2.34515e-09
8.08814e-10
-1.32692e-09
-2.82613e-09
5.83113e-10
-1.21976e-09
-3.37646e-09
3.50008e-10
-1.0336e-09
-3.94041e-09
1.43529e-10
-8.01367e-10
-4.45837e-09
-2.40918e-11
-5.62819e-10
-4.8819e-09
-1.36805e-10
-3.47053e-10
-5.16677e-09
-1.97076e-10
-1.73771e-10
-5.26261e-09
-2.13181e-10
-5.10732e-11
-5.09744e-09
-1.95267e-10
1.77347e-11
-4.59726e-09
-1.55533e-10
3.85392e-11
-3.74506e-09
-1.03829e-10
2.37512e-11
-2.56274e-09
-4.73405e-11
-1.06033e-09
-5.29521e-12
-7.35678e-11
-1.23967e-09
-6.18597e-11
-2.11488e-10
-3.01251e-09
-1.65328e-10
-3.58284e-10
-4.41249e-09
-2.6835e-10
-4.66365e-10
-5.40334e-09
-3.48025e-10
-5.20576e-10
-5.99397e-09
-4.00042e-10
-5.06216e-10
-6.19398e-09
-4.13366e-10
-4.37814e-10
-6.12011e-09
-3.82815e-10
-3.21466e-10
-5.82952e-09
-3.01769e-10
-1.92011e-10
-5.424e-09
-1.65155e-10
-7.77065e-11
-4.92995e-09
2.94985e-11
-2.05829e-11
-4.40772e-09
2.75581e-10
-4.60333e-11
-3.87753e-09
5.42837e-10
-1.76814e-10
-3.40318e-09
8.01403e-10
-4.03568e-10
-3.02801e-09
1.01701e-09
-6.93641e-10
-2.80482e-09
1.15533e-09
-9.80275e-10
-2.72846e-09
1.16706e-09
-1.20701e-09
-2.83285e-09
1.06421e-09
-1.333e-09
-3.09527e-09
8.76115e-10
-1.33831e-09
-3.44486e-09
6.24037e-10
-1.22828e-09
-3.84992e-09
3.63427e-10
-1.03143e-09
-4.2599e-09
1.22634e-10
-7.82798e-10
-4.6322e-09
-7.4802e-11
-5.24902e-10
-4.93375e-09
-2.06043e-10
-2.91512e-10
-5.12549e-09
-2.74669e-10
-1.08727e-10
-5.15405e-09
-2.91343e-10
1.19386e-11
-4.95179e-09
-2.66315e-10
6.89153e-11
-4.44616e-09
-2.08073e-10
6.9382e-11
-3.60873e-09
-1.36798e-10
3.40277e-11
-2.46049e-09
-6.68987e-11
-1.01203e-09
-1.42733e-11
-7.37376e-11
-1.09966e-09
-6.62716e-11
-2.06905e-10
-2.70025e-09
-1.79091e-10
-3.44664e-10
-3.98145e-09
-2.93284e-10
-4.45188e-10
-4.91842e-09
-3.84397e-10
-4.88465e-10
-5.50527e-09
-4.45426e-10
-4.65426e-10
-5.75462e-09
-4.62399e-10
-3.91565e-10
-5.76307e-09
-4.30902e-10
-2.78562e-10
-5.59428e-09
-3.48242e-10
-1.55876e-10
-5.33203e-09
-2.1465e-10
-5.07778e-11
-5.00415e-09
-3.0894e-11
-2.17992e-12
-4.6566e-09
2.00289e-10
-3.49694e-11
-4.30488e-09
4.60145e-10
-1.61058e-10
-3.98565e-09
7.08559e-10
-3.74421e-10
-3.71868e-09
9.04036e-10
-6.4507e-10
-3.55897e-09
1.0248e-09
-9.09874e-10
-3.49417e-09
1.03052e-09
-1.11636e-09
-3.5565e-09
9.3013e-10
-1.22984e-09
-3.73363e-09
7.51849e-10
-1.22581e-09
-3.95428e-09
5.05391e-10
-1.11215e-09
-4.2122e-09
2.48615e-10
-9.16239e-10
-4.47339e-09
1.75802e-11
-6.71649e-10
-4.70832e-09
-1.6846e-10
-4.17292e-10
-4.89251e-09
-2.95599e-10
-1.88417e-10
-4.99139e-09
-3.62977e-10
-1.48371e-11
-4.95188e-09
-3.75755e-10
8.74581e-11
-4.70724e-09
-3.46845e-10
1.20257e-10
-4.19387e-09
-2.85096e-10
9.88032e-11
-3.38496e-09
-2.02321e-10
4.421e-11
-2.29726e-09
-1.08637e-10
-9.39713e-10
-2.81038e-11
-7.69085e-11
-9.46203e-10
-7.65492e-11
-2.15701e-10
-2.35348e-09
-2.07981e-10
-3.54923e-10
-3.50855e-09
-3.3367e-10
-4.56095e-10
-4.38407e-09
-4.33178e-10
-5.01701e-10
-4.96054e-09
-4.99121e-10
-4.88371e-10
-5.24876e-09
-5.1919e-10
-4.30174e-10
-5.32995e-09
-4.9131e-10
-3.40535e-10
-5.26705e-09
-4.16869e-10
-2.42598e-10
-5.12956e-09
-3.00406e-10
-1.57444e-10
-4.94367e-09
-1.45635e-10
-1.13531e-10
-4.74389e-09
4.33789e-11
-1.33021e-10
-4.54228e-09
2.56891e-10
-2.2834e-10
-4.36024e-09
4.69913e-10
-3.92601e-10
-4.19142e-09
6.37002e-10
-6.05006e-10
-4.07914e-09
7.32576e-10
-8.08965e-10
-4.02518e-09
7.34964e-10
-9.60327e-10
-4.05379e-09
6.48648e-10
-1.03497e-09
-4.15126e-09
4.92268e-10
-1.00896e-09
-4.25976e-09
2.79474e-10
-8.92627e-10
-4.39118e-09
6.2645e-11
-7.09103e-10
-4.52559e-09
-1.31323e-10
-4.8579e-10
-4.643e-09
-2.88638e-10
-2.55291e-10
-4.72474e-09
-3.9826e-10
-4.98621e-11
-4.74147e-09
-4.55348e-10
1.01397e-10
-4.64372e-09
-4.59412e-10
1.79759e-10
-4.36603e-09
-4.19572e-10
1.83336e-10
-3.84994e-09
-3.47503e-10
1.32035e-10
-3.07891e-09
-2.54744e-10
5.49611e-11
-2.07457e-09
-1.45617e-10
-8.42039e-10
-4.27123e-11
-8.10495e-11
-7.76047e-10
-8.91064e-11
-2.28364e-10
-1.96771e-09
-2.38454e-10
-3.76368e-10
-2.98693e-09
-3.73617e-10
-4.90048e-10
-3.79047e-09
-4.79915e-10
-5.54486e-10
-4.34498e-09
-5.5112e-10
-5.68938e-10
-4.65741e-09
-5.76897e-10
-5.45012e-10
-4.7943e-09
-5.59579e-10
-4.93167e-10
-4.81405e-09
-5.04847e-10
-4.28191e-10
-4.77461e-09
-4.19934e-10
-3.63407e-10
-4.6995e-09
-3.08954e-10
-3.1802e-10
-4.61405e-09
-1.75231e-10
-3.08683e-10
-4.52689e-09
-2.47312e-11
-3.52085e-10
-4.44545e-09
1.28616e-10
-4.41219e-10
-4.35953e-09
2.57239e-10
-5.68027e-10
-4.28687e-09
3.34538e-10
-6.87222e-10
-4.24605e-09
3.40071e-10
-7.64754e-10
-4.25032e-09
2.74068e-10
-7.82975e-10
-4.28201e-09
1.48977e-10
-7.23269e-10
-4.30596e-09
-1.35069e-11
-5.99832e-10
-4.33864e-09
-1.75981e-10
-4.30688e-10
-4.3745e-09
-3.2023e-10
-2.36519e-10
-4.40009e-09
-4.37076e-10
-4.26505e-11
-4.40161e-09
-5.17007e-10
1.24131e-10
-4.35426e-09
-5.53985e-10
2.38153e-10
-4.21367e-09
-5.44071e-10
2.82417e-10
-3.91912e-09
-4.91173e-10
2.53505e-10
-3.41681e-09
-4.04217e-10
1.70635e-10
-2.698e-09
-2.98043e-10
6.73066e-11
-1.79426e-09
-1.76978e-10
-7.17599e-10
-5.7134e-11
-8.6828e-11
-5.90463e-10
-9.87562e-11
-2.42214e-10
-1.5535e-09
-2.5882e-10
-4.03206e-10
-2.42348e-09
-4.02464e-10
-5.40276e-10
-3.14028e-09
-5.13126e-10
-6.3849e-10
-3.65806e-09
-5.88711e-10
-6.95878e-10
-3.97622e-09
-6.23802e-10
-7.18221e-10
-4.14706e-09
-6.24893e-10
-7.09908e-10
-4.2223e-09
-6.00066e-10
-6.77248e-10
-4.25014e-09
-5.57123e-10
-6.26559e-10
-4.25143e-09
-4.98762e-10
-5.68906e-10
-4.24626e-09
-4.25438e-10
-5.19357e-10
-4.23795e-09
-3.38484e-10
-5.01241e-10
-4.2214e-09
-2.42168e-10
-5.10351e-10
-4.1985e-09
-1.51911e-10
-5.38084e-10
-4.16651e-09
-9.26277e-11
-5.63608e-10
-4.13366e-09
-8.6867e-11
-5.62964e-10
-4.11413e-09
-1.36839e-10
-5.13534e-10
-4.10239e-09
-2.29056e-10
-4.11349e-10
-4.07218e-09
-3.35964e-10
-2.74972e-10
-4.03621e-09
-4.38806e-10
-1.1761e-10
-4.00326e-09
-5.28599e-10
4.6117e-11
-3.96569e-09
-5.98132e-10
1.97792e-10
-3.91275e-09
-6.40527e-10
3.17249e-10
-3.82345e-09
-6.50272e-10
3.83975e-10
-3.65885e-09
-6.21545e-10
3.84765e-10
-3.36507e-09
-5.54841e-10
3.18782e-10
-2.89562e-09
-4.55211e-10
2.05008e-10
-2.24706e-09
-3.37163e-10
7.76684e-11
-1.46137e-09
-2.05558e-10
-5.69202e-10
-7.07286e-11
-8.92332e-11
-3.97652e-10
-1.03578e-10
-2.49472e-10
-1.12645e-09
-2.66815e-10
-4.25834e-10
-1.83549e-09
-4.11625e-10
-5.9365e-10
-2.45013e-09
-5.22332e-10
-7.36134e-10
-2.91294e-09
-6.02637e-10
-8.46117e-10
-3.21456e-09
-6.51679e-10
-9.20141e-10
-3.39424e-09
-6.788e-10
-9.54525e-10
-3.49585e-09
-6.92062e-10
-9.47898e-10
-3.55907e-09
-6.97705e-10
-9.01056e-10
-3.60342e-09
-6.9485e-10
-8.22707e-10
-3.64452e-09
-6.80093e-10
-7.30708e-10
-3.68123e-09
-6.48726e-10
-6.44993e-10
-3.70764e-09
-5.99473e-10
-5.72329e-10
-3.72536e-09
-5.45808e-10
-5.0656e-10
-3.72695e-09
-5.05327e-10
-4.41162e-10
-3.70119e-09
-4.97866e-10
-3.59413e-10
-3.66723e-09
-5.28652e-10
-2.48335e-10
-3.62763e-09
-5.85833e-10
-1.08966e-10
-3.56533e-09
-6.46224e-10
4.39754e-11
-3.4912e-09
-6.97947e-10
1.9551e-10
-3.41904e-09
-7.35759e-10
3.33103e-10
-3.34677e-09
-7.56509e-10
4.4319e-10
-3.2659e-09
-7.56943e-10
5.11944e-10
-3.15866e-09
-7.33542e-10
5.25778e-10
-2.99161e-09
-6.81078e-10
4.7798e-10
-2.71868e-09
-5.98587e-10
3.72278e-10
-2.30188e-09
-4.88036e-10
2.30536e-10
-1.74422e-09
-3.61097e-10
8.55113e-11
-1.09469e-09
-2.21649e-10
-4.04024e-10
-7.9666e-11
-8.48235e-11
-2.13475e-10
-9.93535e-11
-2.43242e-10
-7.14098e-10
-2.53931e-10
-4.31988e-10
-1.25638e-09
-3.90361e-10
-6.3163e-10
-1.75366e-09
-4.96825e-10
-8.21644e-10
-2.14105e-09
-5.81875e-10
-9.85884e-10
-2.40259e-09
-6.4773e-10
-1.10939e-09
-2.56573e-09
-7.05005e-10
-1.17997e-09
-2.66645e-09
-7.58822e-10
-1.18999e-09
-2.7372e-09
-8.11837e-10
-1.13814e-09
-2.7958e-09
-8.59469e-10
-1.03319e-09
-2.85397e-09
-8.95499e-10
-8.98749e-10
-2.9079e-09
-9.07763e-10
-7.53215e-10
-2.9574e-09
-8.95777e-10
-6.10445e-10
-2.99622e-09
-8.7191e-10
-4.71366e-10
-3.0167e-09
-8.49332e-10
-3.34355e-10
-2.99935e-09
-8.38849e-10
-1.87677e-10
-2.96267e-09
-8.51235e-10
-2.56027e-11
-2.91061e-09
-8.79098e-10
1.46611e-10
-2.83501e-09
-9.02536e-10
3.17717e-10
-2.75015e-09
-9.12157e-10
4.67939e-10
-2.66459e-09
-9.0467e-10
5.84633e-10
-2.58254e-09
-8.80923e-10
6.5725e-10
-2.49789e-09
-8.40624e-10
6.7721e-10
-2.39537e-09
-7.83246e-10
6.38315e-10
-2.24728e-09
-7.05435e-10
5.42228e-10
-2.01547e-09
-6.07124e-10
4.00467e-10
-1.67124e-09
-4.88881e-10
2.38574e-10
-1.22227e-09
-3.60059e-10
8.67434e-11
-7.21866e-10
-2.20995e-10
-2.35933e-10
-8.13474e-11
-7.10795e-11
-5.82049e-11
-8.41903e-11
-2.15033e-10
-3.53881e-10
-2.16263e-10
-4.06786e-10
-7.30864e-10
-3.33768e-10
-6.31542e-10
-1.09881e-09
-4.3009e-10
-8.63324e-10
-1.39205e-09
-5.17212e-10
-1.07475e-09
-1.59228e-09
-5.98885e-10
-1.23879e-09
-1.7177e-09
-6.83982e-10
-1.33531e-09
-1.79639e-09
-7.7354e-10
-1.35334e-09
-1.8535e-09
-8.65685e-10
-1.29221e-09
-1.90461e-09
-9.52327e-10
-1.16434e-09
-1.95793e-09
-1.02391e-09
-9.95177e-10
-2.01184e-09
-1.06522e-09
-8.06778e-10
-2.06522e-09
-1.08058e-09
-6.16123e-10
-2.10909e-09
-1.07779e-09
-4.29284e-10
-2.13525e-09
-1.06829e-09
-2.46406e-10
-2.12675e-09
-1.05548e-09
-5.93961e-11
-2.09564e-09
-1.05404e-09
1.34644e-10
-2.04469e-09
-1.05996e-09
3.30481e-10
-1.97375e-09
-1.05709e-09