/*--------------------------------*- C++ -*----------------------------------*\
| =========                 |                                                 |
| \\      /  F ield         | OpenFOAM: The Open Source CFD Toolbox           |
|  \\    /   O peration     | Version:  v1912                                 |
|   \\  /    A nd           | Website:  www.openfoam.com                      |
|    \\/     M anipulation  |                                                 |
\*---------------------------------------------------------------------------*/
FoamFile
{
    version     2.0;
    format      ascii;
    class       volVectorField;
    location    "270/oil";
    object      U;
}
// * * * * * * * * * * * * * * * * * * * * * * * * * * * * * * * * * * * * * //

dimensions      [0 1 -1 0 0 0 0];


internalField   nonuniform List<vector> 
27760
(
(2.519e-06 1.71918e-06 2.53385e-06)
(-3.69251e-05 -2.18751e-05 -1.97779e-05)
(1.2975e-05 -9.8744e-06 -1.03927e-05)
(-7.16381e-06 4.36307e-06 3.53037e-06)
(-1.31237e-06 -1.6893e-08 -8.04213e-07)
(-5.34276e-06 1.66063e-06 8.58366e-07)
(-4.68461e-06 7.80124e-07 9.53789e-09)
(-5.57775e-06 1.13247e-06 3.61277e-07)
(-5.53605e-06 9.08389e-07 1.80534e-07)
(-5.46716e-06 1.02698e-06 3.17002e-07)
(-5.35345e-06 9.30219e-07 2.70989e-07)
(-4.72044e-06 9.89548e-07 3.54651e-07)
(-4.44702e-06 9.30627e-07 3.3951e-07)
(-3.42818e-06 9.58842e-07 3.88669e-07)
(-3.02924e-06 9.26559e-07 3.80585e-07)
(-1.81829e-06 9.30391e-07 3.9342e-07)
(-1.36886e-06 9.12187e-07 3.83934e-07)
(-2.0508e-07 8.8775e-07 3.61157e-07)
(2.04615e-07 8.93801e-07 3.51467e-07)
(1.11392e-06 8.48251e-07 3.01981e-07)
(1.41912e-06 8.70848e-07 2.95812e-07)
(1.93754e-06 8.10198e-07 2.34339e-07)
(2.09585e-06 8.36749e-07 2.34808e-07)
(2.16219e-06 7.66844e-07 1.79108e-07)
(2.1542e-06 7.84444e-07 1.90127e-07)
(1.78124e-06 7.14392e-07 1.51675e-07)
(1.60221e-06 7.16348e-07 1.6868e-07)
(8.67484e-07 6.5869e-07 1.40156e-07)
(5.78014e-07 5.85557e-07 1.63968e-07)
(-1.35246e-07 3.64893e-07 1.40906e-07)
(-2.02733e-05 -3.82779e-05 -2.02595e-05)
(1.20949e-05 1.58662e-05 -1.11611e-05)
(-1.16169e-05 -1.76261e-06 1.26784e-06)
(-4.18524e-06 5.00258e-06 9.33499e-07)
(-7.64599e-06 1.86397e-06 5.36609e-07)
(-7.44118e-06 2.37099e-06 6.4754e-07)
(-8.25128e-06 1.55915e-06 3.07077e-07)
(-8.41319e-06 1.38022e-06 4.75228e-07)
(-8.55274e-06 8.22205e-07 3.58837e-07)
(-8.15338e-06 5.44516e-07 5.02724e-07)
(-7.92759e-06 4.44746e-08 4.67362e-07)
(-6.90124e-06 -2.12261e-07 5.80817e-07)
(-6.41589e-06 -5.8205e-07 5.66979e-07)
(-4.90199e-06 -7.53175e-07 6.35889e-07)
(-4.24298e-06 -9.13401e-07 6.21e-07)
(-2.49534e-06 -9.60798e-07 6.32528e-07)
(-1.777e-06 -8.60515e-07 6.17406e-07)
(-8.46433e-08 -7.75583e-07 5.76654e-07)
(5.81152e-07 -4.57782e-07 5.54717e-07)
(1.92316e-06 -2.77757e-07 4.73186e-07)
(2.43989e-06 1.83525e-07 4.51972e-07)
(3.23233e-06 4.02239e-07 3.52138e-07)
(3.52026e-06 9.04541e-07 3.38644e-07)
(3.65151e-06 1.11002e-06 2.45276e-07)
(3.64762e-06 1.56731e-06 2.42657e-07)
(3.09728e-06 1.74325e-06 1.66561e-07)
(2.77526e-06 2.11342e-06 1.60536e-07)
(1.64035e-06 2.2087e-06 9.43611e-08)
(1.12403e-06 2.04391e-06 1.10626e-07)
(-1.32207e-07 9.38591e-07 1.3264e-07)
(-1.10028e-05 1.60596e-05 -1.09641e-05)
(-7.78991e-06 -2.05537e-06 8.46602e-07)
(-3.79992e-06 7.21398e-06 -2.69582e-06)
(-7.62601e-06 5.68861e-06 1.27428e-06)
(-6.4288e-06 5.79626e-06 -3.43892e-07)
(-8.51763e-06 5.47408e-06 6.36778e-07)
(-8.39853e-06 4.71224e-06 1.50328e-07)
(-9.04544e-06 4.44022e-06 4.74046e-07)
(-8.94274e-06 3.58493e-06 3.36624e-07)
(-8.5941e-06 3.264e-06 5.14034e-07)
(-8.27304e-06 2.47475e-06 4.74194e-07)
(-7.17307e-06 2.17686e-06 5.98735e-07)
(-6.63427e-06 1.60345e-06 5.83669e-07)
(-5.00894e-06 1.39851e-06 6.56141e-07)
(-4.3176e-06 1.15e-06 6.4603e-07)
(-2.42238e-06 1.09713e-06 6.58674e-07)
(-1.66824e-06 1.23253e-06 6.37681e-07)
(1.3304e-07 1.33986e-06 5.90618e-07)
(8.27617e-07 1.81787e-06 5.69557e-07)
(2.25867e-06 2.0348e-06 4.78258e-07)
(2.8018e-06 2.73554e-06 4.58684e-07)
(3.64401e-06 3.00187e-06 3.50054e-07)
(3.9512e-06 3.78205e-06 3.38598e-07)
(4.07939e-06 4.04809e-06 2.36983e-07)
(4.07143e-06 4.8022e-06 2.33223e-07)
(3.45565e-06 5.09254e-06 1.44076e-07)
(3.11174e-06 5.79779e-06 1.24429e-07)
(1.87161e-06 6.0164e-06 3.44183e-08)
(1.34819e-06 5.72769e-06 4.07701e-08)
(-9.60758e-08 3.11945e-06 9.28847e-08)
(3.1527e-06 3.48196e-07 3.18851e-06)
(-6.01136e-07 1.00625e-05 7.36674e-07)
(-4.59392e-06 7.59238e-06 1.26742e-06)
(-5.08613e-06 9.05911e-06 7.85612e-07)
(-6.85366e-06 6.84511e-06 6.24547e-07)
(-7.45737e-06 6.58212e-06 6.8275e-07)
(-8.11524e-06 5.03258e-06 5.51057e-07)
(-8.2823e-06 4.43289e-06 7.12594e-07)
(-8.39334e-06 3.02116e-06 6.64231e-07)
(-7.89845e-06 2.32977e-06 8.44006e-07)
(-7.70077e-06 1.07036e-06 8.36382e-07)
(-6.56513e-06 4.58825e-07 9.93628e-07)
(-6.19255e-06 -4.48344e-07 9.87789e-07)
(-4.58913e-06 -8.33196e-07 1.08534e-06)
(-4.09458e-06 -1.18511e-06 1.073e-06)
(-2.26309e-06 -1.26699e-06 1.0859e-06)
(-1.72104e-06 -1.00045e-06 1.06421e-06)
(4.31443e-08 -7.6677e-07 9.92945e-07)
(5.60818e-07 5.43352e-08 9.57174e-07)
(1.95716e-06 5.31146e-07 8.28608e-07)
(2.39376e-06 1.72074e-06 7.88871e-07)
(3.21297e-06 2.30598e-06 6.36818e-07)
(3.48315e-06 3.6257e-06 6.04018e-07)
(3.59453e-06 4.22559e-06 4.61971e-07)
(3.61507e-06 5.51779e-06 4.39787e-07)
(2.99489e-06 6.16439e-06 3.15746e-07)
(2.76021e-06 7.42428e-06 2.74093e-07)
(1.56272e-06 7.99254e-06 1.50403e-07)
(1.24734e-06 7.82605e-06 1.30276e-07)
(-1.53928e-07 4.18629e-06 1.5965e-07)
(-9.56355e-07 9.63521e-06 -9.1424e-07)
(-2.97982e-06 1.12924e-05 4.33521e-07)
(-3.5613e-06 1.30462e-05 -3.18542e-07)
(-5.94665e-06 1.10841e-05 6.35311e-07)
(-6.39707e-06 9.80286e-06 2.3406e-07)
(-7.98644e-06 8.67145e-06 6.51948e-07)
(-8.31422e-06 7.11225e-06 4.77549e-07)
(-8.87841e-06 6.2863e-06 7.20562e-07)
(-8.91718e-06 4.62746e-06 6.6005e-07)
(-8.50129e-06 3.8524e-06 8.58756e-07)
(-8.24859e-06 2.33162e-06 8.43291e-07)
(-7.00931e-06 1.68056e-06 1.00517e-06)
(-6.53166e-06 5.76826e-07 1.00582e-06)
(-4.69209e-06 1.72741e-07 1.09528e-06)
(-4.09205e-06 -2.61962e-07 1.08255e-06)
(-1.98717e-06 -3.38877e-07 1.09041e-06)
(-1.33293e-06 1.1397e-08 1.07187e-06)
(6.43261e-07 2.75906e-07 9.98094e-07)
(1.24113e-06 1.31157e-06 9.77934e-07)
(2.76353e-06 1.81711e-06 8.34834e-07)
(3.19279e-06 3.28282e-06 8.0903e-07)
(4.00115e-06 3.91938e-06 6.48435e-07)
(4.19722e-06 5.55671e-06 6.30915e-07)
(4.18454e-06 6.22701e-06 4.84021e-07)
(4.08723e-06 7.86894e-06 4.73439e-07)
(3.28818e-06 8.66028e-06 3.45183e-07)
(2.97633e-06 1.03692e-05 3.0482e-07)
(1.63752e-06 1.11934e-05 1.68397e-07)
(1.36845e-06 1.11538e-05 1.35686e-07)
(-1.53119e-07 6.23923e-06 1.60801e-07)
(9.01606e-07 8.14588e-06 9.45829e-07)
(-1.78909e-06 1.50134e-05 7.71586e-07)
(-2.83466e-06 1.40554e-05 8.6718e-07)
(-4.82639e-06 1.30446e-05 8.91334e-07)
(-5.97564e-06 1.02701e-05 8.53447e-07)
(-7.36463e-06 9.08495e-06 1.00161e-06)
(-8.09722e-06 6.67577e-06 9.55133e-07)
(-8.60998e-06 5.49795e-06 1.17759e-06)
(-8.85108e-06 3.15145e-06 1.17216e-06)
(-8.38739e-06 1.93629e-06 1.4292e-06)
(-8.25712e-06 -1.54491e-07 1.44591e-06)
(-6.9271e-06 -1.17907e-06 1.67932e-06)
(-6.57379e-06 -2.65043e-06 1.69856e-06)
(-4.60077e-06 -3.28894e-06 1.84355e-06)
(-4.11395e-06 -3.83185e-06 1.83646e-06)
(-1.84462e-06 -3.92529e-06 1.84793e-06)
(-1.31218e-06 -3.38958e-06 1.81032e-06)
(8.10469e-07 -2.93083e-06 1.69186e-06)
(1.26835e-06 -1.4544e-06 1.62644e-06)
(2.82994e-06 -6.05631e-07 1.42177e-06)
(3.16075e-06 1.45767e-06 1.365e-06)
(3.93833e-06 2.51095e-06 1.12636e-06)
(4.03221e-06 4.79326e-06 1.07315e-06)
(3.90662e-06 5.86368e-06 8.56461e-07)
(3.72956e-06 8.11383e-06 8.21929e-07)
(2.79284e-06 9.28028e-06 6.44638e-07)
(2.51521e-06 1.16225e-05 5.84621e-07)
(1.14521e-06 1.28698e-05 4.12078e-07)
(1.14231e-06 1.31633e-05 3.47384e-07)
(-3.00281e-07 7.34069e-06 3.17701e-07)
(2.27392e-07 1.08283e-05 2.75691e-07)
(-1.86382e-06 1.72183e-05 6.58563e-07)
(-2.5013e-06 1.67382e-05 6.38074e-07)
(-5.06286e-06 1.45855e-05 9.9624e-07)
(-6.2687e-06 1.17469e-05 9.14961e-07)
(-8.39045e-06 1.01004e-05 1.15782e-06)
(-9.38599e-06 7.43771e-06 1.07635e-06)
(-1.03341e-05 5.99845e-06 1.31182e-06)
(-1.07248e-05 3.27157e-06 1.27378e-06)
(-1.03056e-05 1.86376e-06 1.52888e-06)
(-1.00949e-05 -6.00259e-07 1.51681e-06)
(-8.46363e-06 -1.76364e-06 1.73599e-06)
(-7.83863e-06 -3.48806e-06 1.72919e-06)
(-5.31875e-06 -4.18337e-06 1.85996e-06)
(-4.44013e-06 -4.7949e-06 1.84448e-06)
(-1.52741e-06 -4.86521e-06 1.84496e-06)
(-5.97877e-07 -4.18282e-06 1.82254e-06)
(2.05522e-06 -3.61784e-06 1.69798e-06)
(2.78649e-06 -1.83055e-06 1.67067e-06)
(4.64773e-06 -8.06581e-07 1.45798e-06)
(5.03044e-06 1.6937e-06 1.42879e-06)
(5.79426e-06 2.92538e-06 1.18422e-06)
(5.70641e-06 5.66594e-06 1.17167e-06)
(5.27696e-06 6.88811e-06 9.63097e-07)
(4.74039e-06 9.56792e-06 9.60988e-07)
(3.35183e-06 1.08728e-05 7.93903e-07)
(2.75901e-06 1.371e-05 7.44825e-07)
(1.06933e-06 1.5215e-05 5.63004e-07)
(1.12932e-06 1.58382e-05 4.71252e-07)
(-3.82384e-07 8.9432e-06 4.01266e-07)
(9.72015e-07 1.07895e-05 1.02471e-06)
(-7.11615e-07 1.84594e-05 1.41269e-06)
(-8.79168e-07 1.69011e-05 1.64808e-06)
(-3.60064e-06 1.489e-05 1.86782e-06)
(-5.31337e-06 1.11378e-05 1.88343e-06)
(-7.89485e-06 9.31025e-06 2.08236e-06)
(-9.42768e-06 5.84157e-06 2.02722e-06)
(-1.06691e-05 3.92501e-06 2.30347e-06)
(-1.13343e-05 3.9028e-07 2.28394e-06)
(-1.09491e-05 -1.6082e-06 2.62494e-06)
(-1.08567e-05 -4.77637e-06 2.64454e-06)
(-9.02925e-06 -6.44959e-06 2.97385e-06)
(-8.43205e-06 -8.65102e-06 2.99069e-06)
(-5.55697e-06 -9.64035e-06 3.19543e-06)
(-4.65956e-06 -1.03748e-05 3.17932e-06)
(-1.30802e-06 -1.04235e-05 3.18016e-06)
(-3.60805e-07 -9.44776e-06 3.12821e-06)
(2.64876e-06 -8.54506e-06 2.92834e-06)
(3.33408e-06 -6.12391e-06 2.85553e-06)
(5.36044e-06 -4.56058e-06 2.52405e-06)
(5.61483e-06 -1.26178e-06 2.44926e-06)
(6.30244e-06 5.78695e-07 2.09562e-06)
(5.97694e-06 4.12304e-06 2.05667e-06)
(5.23688e-06 5.87523e-06 1.75994e-06)
(4.34461e-06 9.23616e-06 1.7457e-06)
(2.50302e-06 1.0886e-05 1.52173e-06)
(1.66051e-06 1.43379e-05 1.4485e-06)
(-1.95935e-07 1.6149e-05 1.2108e-06)
(3.15226e-07 1.72581e-05 1.02723e-06)
(-7.55054e-07 9.60344e-06 7.84269e-07)
(1.39203e-06 9.80028e-06 1.44938e-06)
(8.1477e-07 1.72713e-05 2.28648e-06)
(8.92536e-07 1.53195e-05 2.71305e-06)
(-2.55397e-06 1.3128e-05 3.04883e-06)
(-5.34948e-06 9.09665e-06 3.04505e-06)
(-9.1564e-06 7.05981e-06 3.20194e-06)
(-1.16472e-05 3.16893e-06 3.04411e-06)
(-1.35672e-05 8.96975e-07 3.21803e-06)
(-1.46402e-05 -3.1672e-06 3.07266e-06)
(-1.42834e-05 -5.51303e-06 3.31614e-06)
(-1.40787e-05 -9.12752e-06 3.21272e-06)
(-1.17434e-05 -1.10441e-05 3.45846e-06)
(-1.06516e-05 -1.3535e-05 3.3864e-06)
(-6.84735e-06 -1.46396e-05 3.53241e-06)
(-5.20141e-06 -1.54129e-05 3.47799e-06)
(-7.41471e-07 -1.53849e-05 3.45266e-06)
(9.63491e-07 -1.41208e-05 3.42808e-06)
(4.87683e-06 -1.29454e-05 3.24227e-06)
(6.05086e-06 -9.99438e-06 3.23985e-06)
(8.52831e-06 -8.05384e-06 2.95502e-06)
(8.86394e-06 -4.10853e-06 2.97984e-06)
(9.46835e-06 -1.86612e-06 2.69225e-06)
(8.76066e-06 2.35185e-06 2.75762e-06)
(7.39654e-06 4.39883e-06 2.52817e-06)
(5.63388e-06 8.30559e-06 2.60747e-06)
(2.7738e-06 1.00539e-05 2.43796e-06)
(9.86122e-07 1.39592e-05 2.38674e-06)
(-1.51834e-06 1.57816e-05 2.11118e-06)
(-7.9574e-07 1.73878e-05 1.77484e-06)
(-1.21773e-06 9.22817e-06 1.24414e-06)
(2.80115e-06 5.49083e-06 2.86401e-06)
(4.48061e-06 1.22758e-05 4.57532e-06)
(5.20885e-06 9.58844e-06 5.48342e-06)
(9.35606e-07 7.84891e-06 5.94473e-06)
(-3.39053e-06 3.3095e-06 5.98492e-06)
(-8.56968e-06 1.11483e-06 6.0892e-06)
(-1.22269e-05 -3.49619e-06 5.80087e-06)
(-1.48148e-05 -6.28843e-06 5.93951e-06)
(-1.63004e-05 -1.10753e-05 5.67133e-06)
(-1.59687e-05 -1.39725e-05 5.92942e-06)
(-1.58051e-05 -1.81806e-05 5.74654e-06)
(-1.31121e-05 -2.05454e-05 6.05134e-06)
(-1.18916e-05 -2.34232e-05 5.93183e-06)
(-7.43462e-06 -2.47645e-05 6.12363e-06)
(-5.51785e-06 -2.55753e-05 6.02906e-06)
(-2.26946e-07 -2.54068e-05 5.98378e-06)
(1.7544e-06 -2.37014e-05 5.921e-06)
(6.31714e-06 -2.19987e-05 5.65087e-06)
(7.5821e-06 -1.82678e-05 5.62558e-06)
(1.03492e-05 -1.56112e-05 5.23773e-06)
(1.05597e-05 -1.07734e-05 5.27661e-06)
(1.10567e-05 -7.79753e-06 4.9224e-06)
(9.88785e-06 -2.72415e-06 5.03719e-06)
(7.86731e-06 -8.01077e-08 4.81379e-06)
(5.15173e-06 4.51392e-06 4.96514e-06)
(1.08991e-06 6.50901e-06 4.80822e-06)
(-1.8888e-06 1.08552e-05 4.72963e-06)
(-5.09386e-06 1.24682e-05 4.3172e-06)
(-3.78482e-06 1.45811e-05 3.61933e-06)
(-2.34687e-06 6.52428e-06 2.37347e-06)
(4.91738e-06 -5.50488e-06 4.99091e-06)
(1.02193e-05 -1.24886e-06 8.35156e-06)
(1.06849e-05 -4.33944e-06 9.9933e-06)
(4.50233e-06 -5.27591e-06 1.06476e-05)
(-2.7613e-06 -1.00599e-05 1.06435e-05)
(-1.0254e-05 -1.24258e-05 1.0497e-05)
(-1.57712e-05 -1.75607e-05 9.87452e-06)
(-1.93314e-05 -2.06361e-05 9.61985e-06)
(-2.13738e-05 -2.5727e-05 8.94191e-06)
(-2.09665e-05 -2.87154e-05 8.8133e-06)
(-2.05611e-05 -3.30001e-05 8.24985e-06)
(-1.71017e-05 -3.53543e-05 8.23078e-06)
(-1.5106e-05 -3.82255e-05 7.82025e-06)
(-9.29109e-06 -3.95249e-05 7.79395e-06)
(-6.16178e-06 -4.01752e-05 7.55648e-06)
(8.1246e-07 -3.97588e-05 7.44116e-06)
(4.03337e-06 -3.75492e-05 7.43227e-06)
(9.9313e-06 -3.53654e-05 7.25304e-06)
(1.19582e-05 -3.09701e-05 7.43437e-06)
(1.53563e-05 -2.78308e-05 7.25969e-06)
(1.57121e-05 -2.23638e-05 7.59913e-06)
(1.60915e-05 -1.89748e-05 7.53517e-06)
(1.43341e-05 -1.3303e-05 7.99545e-06)
(1.13103e-05 -1.02726e-05 8.07347e-06)
(6.92406e-06 -5.06825e-06 8.52953e-06)
(8.04976e-07 -2.93769e-06 8.5798e-06)
(-4.70028e-06 1.76147e-06 8.56451e-06)
(-9.61575e-06 2.68425e-06 8.0144e-06)
(-8.47275e-06 5.14924e-06 6.70834e-06)
(-4.14137e-06 -1.60715e-06 4.13975e-06)
(8.79819e-06 -2.59719e-05 8.88244e-06)
(1.96969e-05 -2.55394e-05 1.49667e-05)
(1.90221e-05 -2.80958e-05 1.75719e-05)
(1.02887e-05 -2.75191e-05 1.84454e-05)
(-5.16294e-07 -3.26092e-05 1.83844e-05)
(-1.03768e-05 -3.53331e-05 1.80533e-05)
(-1.76508e-05 -4.10113e-05 1.70842e-05)
(-2.19278e-05 -4.42501e-05 1.65449e-05)
(-2.43048e-05 -4.92202e-05 1.54498e-05)
(-2.36919e-05 -5.18581e-05 1.50639e-05)
(-2.31535e-05 -5.56424e-05 1.41288e-05)
(-1.91431e-05 -5.75494e-05 1.39321e-05)
(-1.68631e-05 -5.99986e-05 1.3242e-05)
(-1.01107e-05 -6.09909e-05 1.30965e-05)
(-6.37321e-06 -6.12767e-05 1.26894e-05)
(1.91709e-06 -6.04183e-05 1.24894e-05)
(5.80131e-06 -5.76014e-05 1.2451e-05)
(1.26762e-05 -5.47925e-05 1.22391e-05)
(1.4971e-05 -4.98204e-05 1.25345e-05)
(1.87933e-05 -4.62605e-05 1.24138e-05)
(1.91036e-05 -4.04985e-05 1.30024e-05)
(1.94385e-05 -3.69025e-05 1.31053e-05)
(1.71796e-05 -3.0977e-05 1.39006e-05)
(1.33197e-05 -2.76695e-05 1.4218e-05)
(7.28781e-06 -2.19534e-05 1.49921e-05)
(-1.04078e-06 -1.95474e-05 1.52297e-05)
(-9.68304e-06 -1.45618e-05 1.52813e-05)
(-1.69521e-05 -1.48635e-05 1.45218e-05)
(-1.66825e-05 -1.28684e-05 1.23466e-05)
(-7.47298e-06 -1.73244e-05 7.43018e-06)
(1.42163e-05 -6.37406e-05 1.43172e-05)
(3.11922e-05 -6.77871e-05 2.34085e-05)
(2.6662e-05 -6.75399e-05 2.65805e-05)
(1.4565e-05 -6.51824e-05 2.7335e-05)
(-3.91678e-07 -7.08987e-05 2.70846e-05)
(-1.24295e-05 -7.46626e-05 2.64935e-05)
(-2.14131e-05 -8.10905e-05 2.51896e-05)
(-2.61866e-05 -8.44525e-05 2.4216e-05)
(-2.88052e-05 -8.88078e-05 2.25951e-05)
(-2.78695e-05 -9.04504e-05 2.16263e-05)
(-2.70657e-05 -9.29044e-05 2.00796e-05)
(-2.23844e-05 -9.36508e-05 1.9277e-05)
(-1.94837e-05 -9.50266e-05 1.80325e-05)
(-1.14442e-05 -9.53202e-05 1.74209e-05)
(-6.4071e-06 -9.49382e-05 1.67012e-05)
(3.77851e-06 -9.34672e-05 1.63575e-05)
(9.08712e-06 -8.98794e-05 1.64008e-05)
(1.7347e-05 -8.64419e-05 1.6417e-05)
(2.03395e-05 -8.10465e-05 1.71003e-05)
(2.46907e-05 -7.74344e-05 1.74438e-05)
(2.51037e-05 -7.18622e-05 1.85709e-05)
(2.54021e-05 -6.85782e-05 1.92162e-05)
(2.26521e-05 -6.28176e-05 2.0553e-05)
(1.79741e-05 -5.93846e-05 2.1342e-05)
(1.01281e-05 -5.30534e-05 2.25323e-05)
(-5.37088e-07 -4.99044e-05 2.30967e-05)
(-1.32279e-05 -4.43198e-05 2.33706e-05)
(-2.39071e-05 -4.61942e-05 2.26862e-05)
(-2.70422e-05 -4.6536e-05 1.98786e-05)
(-1.22981e-05 -4.79865e-05 1.21625e-05)
(2.03638e-05 -0.000118549 2.04743e-05)
(4.1584e-05 -0.000122125 3.11797e-05)
(3.17679e-05 -0.000115113 3.39105e-05)
(1.80036e-05 -0.000110933 3.40574e-05)
(1.39768e-06 -0.000117601 3.36024e-05)
(-1.03455e-05 -0.000123124 3.31978e-05)
(-1.91359e-05 -0.000130469 3.20757e-05)
(-2.32001e-05 -0.000133979 3.14075e-05)
(-2.549e-05 -0.000137178 2.98579e-05)
(-2.4257e-05 -0.000137146 2.90462e-05)
(-2.38154e-05 -0.000137287 2.73794e-05)
(-1.94323e-05 -0.000136023 2.65541e-05)
(-1.73372e-05 -0.00013556 2.50589e-05)
(-9.41532e-06 -0.000134685 2.43084e-05)
(-4.66361e-06 -0.000133381 2.33715e-05)
(6.10991e-06 -0.000131071 2.28956e-05)
(1.13408e-05 -0.000126669 2.29125e-05)
(1.97045e-05 -0.000122552 2.28735e-05)
(2.20461e-05 -0.00011716 2.36812e-05)
(2.60188e-05 -0.000113983 2.40008e-05)
(2.58774e-05 -0.000109522 2.52887e-05)
(2.60379e-05 -0.00010722 2.58797e-05)
(2.31548e-05 -0.000102422 2.72969e-05)
(1.85466e-05 -9.90867e-05 2.79557e-05)
(1.02943e-05 -9.23108e-05 2.91331e-05)
(-8.63792e-07 -8.79031e-05 2.9651e-05)
(-1.58631e-05 -8.15491e-05 3.0162e-05)
(-2.88982e-05 -8.50472e-05 2.99686e-05)
(-3.71301e-05 -9.13597e-05 2.7383e-05)
(-1.80972e-05 -9.38619e-05 1.78481e-05)
(2.39493e-05 -0.000189665 2.40575e-05)
(4.37935e-05 -0.000184099 3.35185e-05)
(2.95476e-05 -0.000167607 3.47373e-05)
(1.84306e-05 -0.000162819 3.37713e-05)
(4.99119e-06 -0.000171074 3.31253e-05)
(-2.41304e-06 -0.00017943 3.30867e-05)
(-8.21834e-06 -0.000188499 3.26052e-05)
(-9.92771e-06 -0.000193217 3.26497e-05)
(-1.13006e-05 -0.000196005 3.17091e-05)
(-1.00407e-05 -0.000194973 3.13422e-05)
(-1.08086e-05 -0.000193164 2.99167e-05)
(-8.11589e-06 -0.000190246 2.90844e-05)
(-8.38344e-06 -0.000188197 2.74584e-05)
(-2.46502e-06 -0.000186545 2.64428e-05)
(3.06081e-07 -0.000184561 2.53098e-05)
(9.6991e-06 -0.000181422 2.4722e-05)
(1.3141e-05 -0.000175812 2.47849e-05)
(1.96531e-05 -0.000170485 2.48934e-05)
(1.97095e-05 -0.000164597 2.58191e-05)
(2.17501e-05 -0.000161493 2.62085e-05)
(2.01074e-05 -0.000157813 2.74065e-05)
(1.96614e-05 -0.000156093 2.77659e-05)
(1.69766e-05 -0.000151752 2.88014e-05)
(1.36234e-05 -0.000147772 2.89698e-05)
(7.12315e-06 -0.000139877 2.96869e-05)
(-1.31273e-06 -0.000133236 2.99263e-05)
(-1.47348e-05 -0.00012545 3.06618e-05)
(-2.66884e-05 -0.000129545 3.15167e-05)
(-4.00405e-05 -0.00014465 3.02656e-05)
(-2.19298e-05 -0.000155936 2.15545e-05)
(2.21691e-05 -0.000256149 2.22345e-05)
(3.4502e-05 -0.000231685 2.81662e-05)
(2.17041e-05 -0.000206991 2.7646e-05)
(1.97799e-05 -0.000203177 2.59593e-05)
(1.65824e-05 -0.0002127 2.54313e-05)
(1.86514e-05 -0.000223546 2.62975e-05)
(2.00857e-05 -0.000233942 2.69636e-05)
(2.31204e-05 -0.000239936 2.85219e-05)
(2.39587e-05 -0.000242251 2.89444e-05)
(2.51222e-05 -0.000240221 3.00153e-05)
(2.20014e-05 -0.000236197 2.9598e-05)
(2.08451e-05 -0.000231341 2.9658e-05)
(1.50049e-05 -0.000227415 2.84381e-05)
(1.50441e-05 -0.000224963 2.77005e-05)
(1.12484e-05 -0.000222427 2.65859e-05)
(1.4583e-05 -0.000218427 2.59589e-05)
(1.1291e-05 -0.000211509 2.60447e-05)
(1.1537e-05 -0.000204805 2.5921e-05)
(5.43808e-06 -0.000198672 2.65873e-05)
(2.85316e-06 -0.000195946 2.62098e-05)
(-1.91055e-06 -0.000193637 2.66052e-05)
(-3.40099e-06 -0.000192752 2.56993e-05)
(-4.93777e-06 -0.000189224 2.55462e-05)
(-5.04808e-06 -0.000184626 2.43018e-05)
(-6.10366e-06 -0.000176012 2.39331e-05)
(-7.30939e-06 -0.000167353 2.32813e-05)
(-1.27615e-05 -0.000158401 2.39218e-05)
(-1.76902e-05 -0.000161811 2.55469e-05)
(-3.14717e-05 -0.000185284 2.60404e-05)
(-2.08612e-05 -0.000215328 2.04873e-05)
(1.46705e-05 -0.00030509 1.46318e-05)
(1.72283e-05 -0.000261132 1.5858e-05)
(1.38374e-05 -0.000235701 1.42543e-05)
(2.56574e-05 -0.000235872 1.28599e-05)
(3.75033e-05 -0.000247207 1.3053e-05)
(5.19983e-05 -0.000261022 1.5084e-05)
(6.35868e-05 -0.000273383 1.7151e-05)
(7.30358e-05 -0.000281828 2.02847e-05)
(7.7361e-05 -0.000285101 2.23539e-05)
(7.87407e-05 -0.000283584 2.48988e-05)
(7.31658e-05 -0.000278695 2.57837e-05)
(6.68832e-05 -0.000272823 2.66955e-05)
(5.33258e-05 -0.000267656 2.60826e-05)
(4.37893e-05 -0.000264906 2.55131e-05)
(2.88875e-05 -0.000262083 2.44819e-05)
(2.03951e-05 -0.000257199 2.39334e-05)
(4.83835e-06 -0.000248627 2.42066e-05)
(-6.21419e-06 -0.000240197 2.41912e-05)
(-2.17146e-05 -0.000233346 2.45444e-05)
(-3.1134e-05 -0.000230439 2.34793e-05)
(-3.96343e-05 -0.000228452 2.27405e-05)
(-4.21073e-05 -0.000227097 2.04103e-05)
(-4.13027e-05 -0.000222864 1.86455e-05)
(-3.6543e-05 -0.000216234 1.57512e-05)
(-2.9325e-05 -0.000205881 1.39553e-05)
(-2.03889e-05 -0.000194492 1.20898e-05)
(-1.32643e-05 -0.000183734 1.21093e-05)
(-6.73511e-06 -0.00018365 1.36124e-05)
(-1.38022e-05 -0.000208903 1.53233e-05)
(-1.41216e-05 -0.000259402 1.40379e-05)
(3.74823e-06 -0.000320846 3.52071e-06)
(-1.52335e-07 -0.000263635 -2.01986e-07)
(1.23675e-05 -0.000246325 -1.61346e-06)
(3.72543e-05 -0.000252745 -1.37724e-06)
(6.46516e-05 -0.000266657 2.50436e-07)
(9.02914e-05 -0.000283418 3.73242e-06)
(0.000112196 -0.000297391 7.15122e-06)
(0.00012782 -0.000307684 1.1841e-05)
(0.0001363 -0.000311421 1.54637e-05)
(0.000138534 -0.000309671 1.97401e-05)
(0.000131405 -0.000302881 2.21215e-05)
(0.000120555 -0.000294241 2.44915e-05)
(9.89887e-05 -0.000285811 2.48599e-05)
(7.85685e-05 -0.000280739 2.50076e-05)
(4.95938e-05 -0.000276049 2.43282e-05)
(2.52695e-05 -0.000269645 2.40408e-05)
(-6.68192e-06 -0.000260384 2.46024e-05)
(-3.13754e-05 -0.000252671 2.43075e-05)
(-5.69237e-05 -0.000247846 2.41181e-05)
(-7.26174e-05 -0.000247169 2.17167e-05)
(-8.37138e-05 -0.000247078 1.95932e-05)
(-8.62611e-05 -0.00024615 1.53425e-05)
(-8.21665e-05 -0.00024151 1.18806e-05)
(-7.25436e-05 -0.000232958 7.13193e-06)
(-5.66548e-05 -0.000220858 3.87828e-06)
(-3.86165e-05 -0.000206576 4.80632e-07)
(-1.82719e-05 -0.000193593 -7.72107e-07)
(-1.04007e-06 -0.000187953 -6.49297e-07)
(4.9626e-06 -0.00020655 1.10494e-06)
(-3.76063e-06 -0.000272201 4.24153e-06)
(-6.24087e-06 -0.000312282 -6.65573e-06)
(-1.01126e-05 -0.000257088 -1.35794e-05)
(1.82442e-05 -0.000255679 -1.38802e-05)
(5.10005e-05 -0.000270701 -1.17213e-05)
(8.93329e-05 -0.00028966 -8.88554e-06)
(0.000121335 -0.000310331 -4.78593e-06)
(0.000150339 -0.000326944 -8.75911e-07)
(0.000169901 -0.000339591 4.06415e-06)
(0.000181782 -0.000344762 8.23293e-06)
(0.000184996 -0.000343635 1.31023e-05)
(0.000177519 -0.000335848 1.65541e-05)
(0.000163704 -0.000324473 1.99579e-05)
(0.000136348 -0.000312082 2.1497e-05)
(0.00010681 -0.000303001 2.24306e-05)
(6.48542e-05 -0.000294329 2.24664e-05)
(2.47953e-05 -0.000285671 2.26794e-05)
(-2.20526e-05 -0.000277501 2.33206e-05)
(-5.7519e-05 -0.000273738 2.25399e-05)
(-8.90234e-05 -0.000273219 2.14749e-05)
(-0.000107496 -0.000275597 1.80022e-05)
(-0.000118521 -0.00027678 1.47345e-05)
(-0.000120142 -0.000274869 9.45635e-06)
(-0.00011304 -0.00026807 5.18794e-06)
(-0.000100493 -0.000256146 -1.17454e-07)
(-7.8822e-05 -0.000240716 -3.92251e-06)
(-5.61577e-05 -0.000222313 -7.93868e-06)
(-2.67474e-05 -0.00020498 -1.02182e-05)
(-3.76589e-06 -0.000191758 -1.17812e-05)
(1.59558e-05 -0.000196181 -1.09334e-05)
(5.81244e-06 -0.000262284 -4.96077e-06)
(-1.19753e-05 -0.000285819 -1.25494e-05)
(-1.19322e-05 -0.00024613 -1.92589e-05)
(2.39777e-05 -0.000261477 -1.89783e-05)
(5.57752e-05 -0.000283873 -1.61217e-05)
(9.60403e-05 -0.000307034 -1.36694e-05)
(0.000126797 -0.000329268 -1.04167e-05)
(0.000157067 -0.000346058 -7.56676e-06)
(0.000176746 -0.000357604 -3.7276e-06)
(0.000190102 -0.00036128 -5.01397e-07)
(0.000193911 -0.000357884 3.77553e-06)
(0.00018692 -0.000347197 7.22817e-06)
(0.000172361 -0.000331232 1.13471e-05)
(0.000143251 -0.000313197 1.4011e-05)
(0.000110557 -0.00029751 1.62337e-05)
(6.26238e-05 -0.000282413 1.75351e-05)
(1.61129e-05 -0.000271696 1.83167e-05)
(-3.43044e-05 -0.00026781 1.84516e-05)
(-7.01435e-05 -0.000271805 1.62045e-05)
(-9.95786e-05 -0.000278586 1.401e-05)
(-0.000115451 -0.000285749 9.55763e-06)
(-0.000123724 -0.000289497 6.13335e-06)
(-0.000123844 -0.000288293 1.19366e-06)
(-0.000115148 -0.000281488 -2.06692e-06)
(-0.000103151 -0.000269154 -6.18075e-06)
(-8.11133e-05 -0.000252847 -8.74126e-06)
(-6.08884e-05 -0.000232955 -1.17669e-05)
(-3.05434e-05 -0.000212668 -1.35402e-05)
(-9.5159e-06 -0.00019382 -1.5734e-05)
(1.7351e-05 -0.000183844 -1.56104e-05)
(1.1032e-05 -0.000237025 -1.01976e-05)
(-1.21791e-05 -0.000261589 -1.29272e-05)
(-6.63241e-06 -0.000246008 -1.64952e-05)
(2.60646e-05 -0.000271369 -1.71398e-05)
(4.87705e-05 -0.000297401 -1.58184e-05)
(8.15117e-05 -0.000321607 -1.56944e-05)
(0.000104195 -0.000342732 -1.4968e-05)
(0.000129685 -0.000357792 -1.44534e-05)
(0.000146168 -0.000366558 -1.28278e-05)
(0.000159164 -0.00036778 -1.11998e-05)
(0.000163166 -0.000361695 -8.17995e-06)
(0.000157 -0.000348975 -5.22305e-06)
(0.000142753 -0.000330663 -1.18595e-06)
(0.000115094 -0.000310292 2.34397e-06)
(8.39511e-05 -0.000290431 5.76039e-06)
(3.82689e-05 -0.000271666 8.62906e-06)
(-2.32348e-06 -0.000262301 9.59442e-06)
(-4.25576e-05 -0.000263317 8.49972e-06)
(-6.93149e-05 -0.000271977 4.61496e-06)
(-9.12121e-05 -0.0002821 1.45282e-06)
(-0.000102023 -0.000290185 -2.98253e-06)
(-0.000106363 -0.000294269 -5.56164e-06)
(-0.000104411 -0.000293416 -8.66755e-06)
(-9.48569e-05 -0.000287636 -9.62484e-06)
(-8.51294e-05 -0.00027692 -1.09403e-05)
(-6.71043e-05 -0.000262263 -1.07647e-05)
(-5.39606e-05 -0.000244296 -1.11225e-05)
(-2.99415e-05 -0.000224811 -1.077e-05)
(-1.62706e-05 -0.000204869 -1.18099e-05)
(9.81181e-06 -0.000187411 -1.15906e-05)
(1.06385e-05 -0.000217633 -9.90295e-06)
(-1.01436e-05 -0.000243247 -1.11464e-05)
(-2.55568e-06 -0.000249846 -1.00045e-05)
(1.89884e-05 -0.00027073 -1.16206e-05)
(2.58601e-05 -0.00029153 -1.28681e-05)
(4.23123e-05 -0.000308933 -1.59753e-05)
(5.11454e-05 -0.000322456 -1.86282e-05)
(6.62783e-05 -0.000330732 -2.12617e-05)
(7.69474e-05 -0.000332744 -2.23789e-05)
(8.79562e-05 -0.000328685 -2.28735e-05)
(9.24806e-05 -0.000317909 -2.13112e-05)
(8.84687e-05 -0.000302303 -1.93521e-05)
(7.73369e-05 -0.000282205 -1.60136e-05)
(5.54945e-05 -0.000261813 -1.27086e-05)
(3.13726e-05 -0.000241114 -9.10781e-06)
(-2.31418e-06 -0.000225306 -5.89022e-06)
(-2.46454e-05 -0.000221741 -5.71045e-06)
(-4.58455e-05 -0.000225038 -7.48563e-06)
(-5.90308e-05 -0.000231688 -1.13008e-05)
(-7.21188e-05 -0.000240558 -1.36443e-05)
(-7.735e-05 -0.000248216 -1.64651e-05)
(-7.68446e-05 -0.000254419 -1.67709e-05)
(-7.14042e-05 -0.000257519 -1.70718e-05)
(-6.04511e-05 -0.000257574 -1.48345e-05)
(-5.22813e-05 -0.000253982 -1.27096e-05)
(-3.99775e-05 -0.000247177 -9.27703e-06)
(-3.4899e-05 -0.000238228 -6.71272e-06)
(-2.15751e-05 -0.000227287 -4.1694e-06)
(-1.70305e-05 -0.000214929 -3.82187e-06)
(2.78766e-06 -0.000202252 -4.06588e-06)
(7.87126e-06 -0.000208241 -7.1692e-06)
(-6.72803e-06 -0.000231787 -7.86619e-06)
(-2.84957e-06 -0.000260844 -3.37748e-06)
(6.52342e-06 -0.00026762 -3.19713e-06)
(2.59207e-06 -0.000274463 -4.78284e-06)
(3.63987e-06 -0.000279467 -8.47163e-06)
(2.25693e-06 -0.000281768 -1.25535e-05)
(7.40336e-06 -0.000281373 -1.68402e-05)
(1.3691e-05 -0.000276558 -2.00007e-05)
(2.19489e-05 -0.000268107 -2.21891e-05)
(2.67976e-05 -0.000255313 -2.21933e-05)
(2.49162e-05 -0.000239865 -2.15703e-05)
(1.77499e-05 -0.000221829 -1.99861e-05)
(2.97576e-06 -0.000204497 -1.85508e-05)
(-1.45052e-05 -0.000187907 -1.68806e-05)
(-3.52451e-05 -0.000181682 -1.61247e-05)
(-4.70931e-05 -0.000183764 -1.78796e-05)
(-6.26085e-05 -0.000183878 -1.81449e-05)
(-7.43588e-05 -0.00018258 -1.82499e-05)
(-8.54725e-05 -0.000186812 -1.72919e-05)
(-8.88085e-05 -0.000193886 -1.68345e-05)
(-8.44424e-05 -0.000203843 -1.4753e-05)
(-7.44861e-05 -0.000212523 -1.26505e-05)
(-6.014e-05 -0.00022078 -8.65946e-06)
(-4.83131e-05 -0.000226404 -4.65637e-06)
(-3.64535e-05 -0.000230028 -1.17926e-07)
(-3.05292e-05 -0.00023239 3.30978e-06)
(-2.23591e-05 -0.000232774 5.79842e-06)
(-1.84779e-05 -0.000231821 6.26405e-06)
(-6.00277e-06 -0.000225933 4.50201e-06)
(1.35413e-06 -0.000206512 -1.07087e-06)
(2.70083e-06 -0.000219975 1.84744e-06)
(6.43182e-07 -0.000265161 4.45072e-06)
(-6.93745e-06 -0.000268622 5.91709e-06)
(-1.2385e-05 -0.00026441 4.81834e-06)
(-1.90642e-05 -0.000258138 2.64971e-06)
(-2.0917e-05 -0.000248565 -6.62241e-07)
(-2.00601e-05 -0.000237255 -4.76224e-06)
(-1.37697e-05 -0.000223035 -8.59017e-06)
(-7.36572e-06 -0.000207293 -1.15937e-05)
(-2.31956e-06 -0.000190905 -1.30773e-05)
(-3.20975e-06 -0.000174361 -1.4143e-05)
(-7.71986e-06 -0.000157519 -1.49332e-05)
(-1.71214e-05 -0.000140707 -1.62187e-05)
(-2.8964e-05 -0.000126163 -1.74877e-05)
(-4.29703e-05 -0.000121943 -2.01159e-05)
(-6.46513e-05 -0.000117602 -2.21174e-05)
(-9.63522e-05 -0.000114443 -1.94883e-05)
(-0.000119864 -0.000115951 -1.56829e-05)
(-0.000133152 -0.000126583 -1.17054e-05)
(-0.000135434 -0.000142264 -9.07509e-06)
(-0.000128456 -0.000162561 -6.05607e-06)
(-0.000115135 -0.00018129 -3.42856e-06)
(-9.76139e-05 -0.000200634 1.18239e-07)
(-7.98019e-05 -0.000217163 3.76687e-06)
(-6.3555e-05 -0.000231766 7.66987e-06)
(-4.93196e-05 -0.000243643 1.09566e-05)
(-3.97193e-05 -0.000251527 1.35523e-05)
(-3.04403e-05 -0.000255663 1.59065e-05)
(-2.86072e-05 -0.00024894 1.59697e-05)
(-1.30029e-05 -0.000218714 1.24873e-05)
(2.03836e-05 -0.000240963 2.01543e-05)
(3.0578e-05 -0.000272591 2.018e-05)
(9.61976e-06 -0.000280004 1.73475e-05)
(5.91018e-06 -0.000276251 1.26974e-05)
(-1.82204e-06 -0.000265821 9.42353e-06)
(2.64435e-06 -0.000250195 6.11295e-06)
(8.03171e-06 -0.000231156 3.08421e-06)
(2.20271e-05 -0.000210628 7.33131e-07)
(3.39821e-05 -0.000189329 -4.11693e-07)
(4.37092e-05 -0.000170397 -7.95022e-07)
(4.3886e-05 -0.000152332 -8.79944e-07)
(3.52003e-05 -0.000136946 -1.0538e-06)
(1.77295e-05 -0.000121262 -1.53999e-06)
(-5.56316e-06 -0.00010632 -2.04255e-06)
(-3.47056e-05 -8.86685e-05 -2.79864e-06)
(-8.19703e-05 -6.68075e-05 1.16481e-06)
(-0.000129024 -6.77679e-05 5.36825e-06)
(-0.000163811 -8.73833e-05 5.46671e-06)
(-0.000183791 -0.000114148 5.65798e-06)
(-0.000189637 -0.000138874 4.6703e-06)
(-0.000186087 -0.000165325 4.1331e-06)
(-0.000174353 -0.000188637 3.73068e-06)
(-0.00015688 -0.000213144 4.25111e-06)
(-0.000135481 -0.000234834 5.77159e-06)