/*--------------------------------*- C++ -*----------------------------------*\
| =========                 |                                                 |
| \\      /  F ield         | OpenFOAM: The Open Source CFD Toolbox           |
|  \\    /   O peration     | Version:  v1906                                 |
|   \\  /    A nd           | Web:      www.OpenFOAM.com                      |
|    \\/     M anipulation  |                                                 |
\*---------------------------------------------------------------------------*/
FoamFile
{
    version     2.0;
    format      ascii;
    class       surfaceScalarField;
    location    "93.8/oil";
    object      phi;
}
// * * * * * * * * * * * * * * * * * * * * * * * * * * * * * * * * * * * * * //

dimensions      [1 0 -1 0 0 0 0];
oriented        oriented;


internalField   nonuniform List<scalar> 
80688
(
-2.04994e-06
-2.07742e-06
-2.04994e-06
-9.23623e-07
-5.78715e-07
-5.47602e-07
-2.7377e-07
-3.26877e-07
-3.22976e-07
-1.2393e-07
-7.52269e-08
-7.46125e-08
-3.98413e-08
-4.20251e-08
-4.20641e-08
2.45554e-09
-2.07475e-08
-2.15495e-08
2.60892e-08
-1.10237e-08
-1.261e-08
3.9386e-08
-5.55048e-09
-7.7464e-09
4.58542e-08
-1.94543e-09
-4.52294e-09
4.6986e-08
7.98034e-10
-1.92997e-09
4.3561e-08
3.06982e-09
3.5514e-10
3.62674e-08
4.96023e-09
2.3333e-09
2.58465e-08
6.44928e-09
3.97154e-09
1.32025e-08
7.49191e-09
5.15207e-09
-6.20544e-10
8.04217e-09
5.78085e-09
-1.45055e-08
8.07261e-09
5.81226e-09
-2.73497e-08
7.5906e-09
5.25363e-09
-3.81598e-08
6.6416e-09
4.1684e-09
-4.61386e-08
5.30031e-09
2.67848e-09
-5.07563e-08
3.66675e-09
9.50961e-10
-5.17816e-08
1.86797e-09
-8.42746e-10
-4.92932e-08
2.0703e-11
-2.50912e-09
-4.37339e-08
-1.713e-09
-3.84628e-09
-3.58116e-08
-3.23608e-09
-4.6863e-09
-2.64961e-08
-4.4015e-09
-4.91407e-09
-1.6963e-08
-5.04714e-09
-4.48592e-09
-8.51116e-09
-4.97326e-09
-3.47867e-09
-2.41534e-09
-3.95017e-09
-2.14569e-09
3.90872e-10
-1.80757e-09
-9.98691e-10
7.78204e-10
-3.87363e-10
-5.52818e-07
-9.71789e-07
-5.52811e-07
-3.38789e-07
-3.77465e-07
-4.1528e-07
-2.22522e-07
-2.56518e-07
-1.86626e-07
-9.40968e-08
-1.26633e-07
-7.70192e-08
-1.49576e-08
-8.40666e-08
-3.70978e-08
3.56024e-08
-5.79611e-08
-1.33465e-08
6.88157e-08
-4.37704e-08
-4.66784e-10
8.93608e-08
-3.38811e-08
7.7854e-09
9.93918e-08
-2.60099e-08
1.40334e-08
9.99459e-08
-1.91107e-08
1.93546e-08
9.18412e-08
-1.29299e-08
2.41044e-08
7.60807e-08
-7.55025e-09
2.82708e-08
5.40474e-08
-3.19013e-09
3.16727e-08
2.75321e-08
-1.05303e-10
3.41124e-08
-1.37719e-09
1.54309e-09
3.54083e-08
-3.04088e-08
1.62677e-09
3.54775e-08
-5.73146e-08
1.62477e-10
3.43339e-08
-8.00843e-08
-2.68203e-09
3.20933e-08
-9.70883e-08
-6.68374e-09
2.8988e-08
-1.07237e-07
-1.14899e-08
2.53057e-08
-1.10069e-07
-1.66949e-08
2.13944e-08
-1.05787e-07
-2.18545e-08
1.75932e-08
-9.52182e-08
-2.65086e-08
1.42268e-08
-7.97898e-08
-3.01939e-08
1.15293e-08
-6.14035e-08
-3.24284e-08
9.64053e-09
-4.22916e-08
-3.26949e-08
8.53579e-09
-2.48049e-08
-3.04272e-08
7.96728e-09
-1.11047e-08
-2.5047e-08
7.39648e-09
-2.70655e-09
-1.61298e-08
5.92404e-09
-4.64057e-09
2.7122e-09
-3.24857e-07
-3.22083e-07
-3.24849e-07
-2.18576e-07
-2.97877e-07
-1.85868e-07
-1.31028e-07
-2.32502e-07
-1.11566e-07
-4.31604e-08
-1.65155e-07
-4.93456e-08
2.20877e-08
-1.33846e-07
-1.5469e-08
7.08481e-08
-1.12332e-07
5.61006e-09
1.05695e-07
-9.74581e-08
1.88406e-08
1.28108e-07
-8.47234e-08
2.84295e-08
1.38634e-07
-7.28127e-08
3.62762e-08
1.37585e-07
-6.12996e-08
4.3238e-08
1.25534e-07
-5.04079e-08
4.95289e-08
1.03564e-07
-4.06395e-08
5.50597e-08
7.33987e-08
-3.25944e-08
5.95691e-08
3.73322e-08
-2.68319e-08
6.2793e-08
-1.86571e-09
-2.377e-08
6.4511e-08
-4.12125e-08
-2.36283e-08
6.46018e-08
-7.77499e-08
-2.63813e-08
6.30812e-08
-1.08788e-07
-3.1753e-08
6.01089e-08
-1.32187e-07
-3.92433e-08
5.59583e-08
-1.465e-07
-4.81663e-08
5.09893e-08
-1.51119e-07
-5.77024e-08
4.5627e-08
-1.46287e-07
-6.69548e-08
4.0268e-08
-1.33088e-07
-7.49928e-08
3.52856e-08
-1.13332e-07
-8.08759e-08
3.0926e-08
-8.94087e-08
-8.36533e-08
2.73013e-08
-6.40706e-08
-8.23488e-08
2.43158e-08
-4.01403e-08
-7.59573e-08
2.15997e-08
-2.01791e-08
-6.34554e-08
1.84472e-08
-6.1786e-09
-4.3878e-08
1.37476e-08
-1.70041e-08
6.18494e-09
-6.79688e-08
-1.86155e-07
-6.79595e-08
-7.35698e-08
-2.24338e-07
-6.79388e-08
-3.77842e-08
-2.2461e-07
-4.3677e-08
1.53275e-08
-2.06373e-07
-1.18937e-08
6.53793e-08
-1.9403e-07
1.01326e-08
1.08252e-07
-1.81393e-07
2.61886e-08
1.41292e-07
-1.68642e-07
3.81437e-08
1.63086e-07
-1.54492e-07
4.79745e-08
1.72596e-07
-1.39038e-07
5.6715e-08
1.69326e-07
-1.22837e-07
6.48078e-08
1.53499e-07
-1.06836e-07
7.2255e-08
1.26164e-07
-9.21483e-08
7.88435e-08
8.92353e-08
-7.98956e-08
8.42297e-08
4.53823e-08
-7.10622e-08
8.80833e-08
-2.15639e-09
-6.63616e-08
9.01302e-08
-4.98453e-08
-6.61691e-08
9.02296e-08
-9.41712e-08
-7.04533e-08
8.83979e-08
-1.31958e-07
-7.87787e-08
8.48128e-08
-1.60653e-07
-9.034e-08
7.97918e-08
-1.78549e-07
-1.04023e-07
7.37519e-08
-1.84909e-07
-1.18503e-07
6.71608e-08
-1.80011e-07
-1.3233e-07
6.04766e-08
-1.65082e-07
-1.44009e-07
5.40874e-08
-1.42185e-07
-1.52023e-07
4.82504e-08
-1.14007e-07
-1.54885e-07
4.30531e-08
-8.36102e-08
-1.51093e-07
3.83471e-08
-5.4136e-08
-1.39116e-07
3.36849e-08
-2.84954e-08
-1.17337e-07
2.82411e-08
-9.30829e-09
-8.3785e-08
2.07199e-08
-3.56274e-08
9.31495e-09
-2.80112e-08
-1.30142e-07
-2.80012e-08
-1.85511e-08
-2.12937e-07
-2.08608e-08
1.34548e-08
-2.5259e-07
-4.02602e-09
5.75564e-08
-2.6596e-07
1.54855e-08
1.02372e-07
-2.70105e-07
3.12592e-08
1.42821e-07
-2.66106e-07
4.42644e-08
1.74981e-07
-2.56131e-07
5.53287e-08
1.96171e-07
-2.4107e-07
6.53887e-08
2.04493e-07
-2.2229e-07
7.49294e-08
1.98929e-07
-2.01348e-07
8.40756e-08
1.79441e-07
-1.79993e-07
9.26444e-08
1.47069e-07
-1.60054e-07
1.00278e-07
1.03884e-07
-1.43262e-07
1.06551e-07
5.28728e-08
-1.31091e-07
1.1104e-07
-2.29619e-09
-1.24615e-07
1.13422e-07
-5.76042e-08
-1.24384e-07
1.13523e-07
-1.09043e-07
-1.3037e-07
1.11355e-07
-1.52994e-07
-1.41953e-07
1.07125e-07
-1.86545e-07
-1.57982e-07
1.01194e-07
-2.07753e-07
-1.76858e-07
9.4043e-08
-2.15774e-07
-1.96689e-07
8.62055e-08
-2.10893e-07
-2.15402e-07
7.81914e-08
-1.94468e-07
-2.3085e-07
7.04151e-08
-1.68751e-07
-2.40905e-07
6.31646e-08
-1.36671e-07
-2.43479e-07
5.65146e-08
-1.01563e-07
-2.36483e-07
5.02826e-08
-6.68692e-08
-2.17767e-07
4.3957e-08
-3.59138e-08
-1.84888e-07
3.65951e-08
-1.20095e-08
-1.34395e-07
2.67052e-08
-5.96534e-08
1.20165e-08
-3.33599e-09
-1.23481e-07
-3.32524e-09
1.55318e-08
-2.39778e-07
7.9726e-09
4.87978e-08
-3.07483e-07
2.16269e-08
9.11277e-08
-3.44076e-07
3.57854e-08
1.35007e-07
-3.62358e-07
4.83729e-08
1.75309e-07
-3.6624e-07
5.98324e-08
2.07669e-07
-3.5913e-07
7.06378e-08
2.2874e-07
-3.4337e-07
8.12298e-08
2.36088e-07
-3.21406e-07
9.17677e-08
2.28329e-07
-2.95735e-07
1.02146e-07
2.05256e-07
-2.68934e-07
1.12014e-07
1.67907e-07
-2.43578e-07
1.20873e-07
1.18519e-07
-2.2206e-07
1.28186e-07
6.04123e-08
-2.06407e-07
1.33423e-07
-2.32121e-09
-1.98074e-07
1.36193e-07
-6.51718e-08
-1.97822e-07
1.36288e-07
-1.2364e-07
-2.0562e-07
1.33719e-07
-1.73655e-07
-2.20654e-07
1.28717e-07
-2.11955e-07
-2.41389e-07
1.21707e-07
-2.36363e-07
-2.65705e-07
1.13256e-07
-2.45933e-07
-2.91098e-07
1.03979e-07
-2.40973e-07
-3.1481e-07
9.44478e-08
-2.22964e-07
-3.34028e-07
8.517e-08
-1.94353e-07
-3.45958e-07
7.64423e-08
-1.58325e-07
-3.4786e-07
6.83528e-08
-1.18502e-07
-3.36999e-07
6.06932e-08
-7.86797e-08
-3.10483e-07
5.28934e-08
-4.2635e-08
-2.6482e-07
4.38877e-08
-1.43836e-08
-1.94603e-07
3.19566e-08
-8.84282e-08
1.43912e-08
8.17171e-09
-1.39836e-07
8.18335e-09
3.45641e-08
-2.90405e-07
2.4235e-08
7.25948e-08
-3.8363e-07
3.81161e-08
1.17599e-07
-4.39833e-07
5.07526e-08
1.6368e-07
-4.70764e-07
6.23251e-08
2.0588e-07
-4.81938e-07
7.34978e-08
2.39677e-07
-4.77668e-07
8.47417e-08
2.6136e-07
-4.61373e-07
9.63196e-08
2.68162e-07
-4.36421e-07
1.08212e-07
2.58428e-07
-4.06151e-07
1.20149e-07
2.31831e-07
-3.73964e-07
1.31628e-07
1.89445e-07
-3.43195e-07
1.42003e-07
1.33711e-07
-3.16915e-07
1.50589e-07
6.82861e-08
-2.97732e-07
1.5675e-07
-2.26519e-09
-2.87525e-07
1.60002e-07
-7.29094e-08
-2.87264e-07
1.60086e-07
-1.38619e-07
-2.96925e-07
1.57014e-07
-1.94845e-07
-3.15487e-07
1.51058e-07
-2.37952e-07
-3.4101e-07
1.42727e-07
-2.65522e-07
-3.70819e-07
1.32684e-07
-2.76519e-07
-4.01759e-07
1.21658e-07
-2.7129e-07
-4.30385e-07
1.10345e-07
-2.51469e-07
-4.53171e-07
9.93214e-08
-2.1973e-07
-4.66641e-07
8.89435e-08
-1.79547e-07
-4.67367e-07
7.93241e-08
-1.34879e-07
-4.51899e-07
7.02315e-08
-8.99141e-08
-4.16478e-07
6.10296e-08
-4.89157e-08
-3.56345e-07
5.05265e-08
-1.65583e-08
-2.63718e-07
3.67579e-08
-1.21553e-07
1.65669e-08
1.45114e-08
-1.68872e-07
1.45241e-08
4.71457e-08
-3.57641e-07
3.46011e-08
9.05914e-08
-4.7683e-07
4.97542e-08
1.39939e-07
-5.51697e-07
6.25159e-08
1.89794e-07
-5.94882e-07
7.4264e-08
2.35152e-07
-6.1329e-07
8.59949e-08
2.71304e-07
-6.12097e-07
9.82769e-08
2.94267e-07
-5.9566e-07
1.11324e-07
3.00949e-07
-5.6811e-07
1.25007e-07
2.89492e-07
-5.33602e-07
1.38908e-07
2.59448e-07
-4.96304e-07
1.52384e-07
2.11943e-07
-4.60327e-07
1.64637e-07
1.49637e-07
-4.29423e-07
1.74814e-07
7.65822e-08
-4.06794e-07
1.82117e-07
-2.15653e-09
-3.94745e-07
1.85959e-07
-8.09661e-08
-3.94488e-07
1.86034e-07
-1.54237e-07
-4.06e-07
1.82346e-07
-2.169e-07
-4.28037e-07
1.75214e-07
-2.64919e-07
-4.58235e-07
1.65244e-07
-2.95627e-07
-4.93363e-07
1.53253e-07
-3.07914e-07
-5.29588e-07
1.40116e-07
-3.02204e-07
-5.62759e-07
1.26664e-07
-2.80302e-07
-5.88642e-07
1.13569e-07
-2.45164e-07
-6.0306e-07
1.01282e-07
-2.00602e-07
-6.01884e-07
8.99545e-08
-1.50947e-07
-5.80896e-07
7.93427e-08
-1.00806e-07
-5.35353e-07
6.87338e-08
-5.49344e-08
-4.59007e-07
5.67904e-08
-1.86244e-08
-3.41321e-07
4.12933e-08
-1.58812e-07
1.86343e-08
1.85e-08
-2.05885e-07
1.85137e-08
5.63401e-08
-4.37426e-07
4.19449e-08
1.05168e-07
-5.84364e-07
5.87069e-08
1.59499e-07
-6.78368e-07
7.23394e-08
2.13923e-07
-7.34247e-07
8.4941e-08
2.632e-07
-7.60384e-07
9.78168e-08
3.02378e-07
-7.62916e-07
1.1164e-07
3.27155e-07
-7.47046e-07
1.2661e-07
3.34148e-07
-7.17651e-07
1.42549e-07
3.21234e-07
-6.79588e-07
1.589e-07
2.87887e-07
-6.37798e-07
1.74842e-07
2.35243e-07
-5.97076e-07
1.89393e-07
1.66202e-07
-5.61874e-07
2.01491e-07
8.5237e-08
-5.36001e-07
2.10171e-07
-2.01937e-09
-5.22225e-07
2.14736e-07
-8.93249e-08
-5.21979e-07
2.14796e-07
-1.70433e-07
-5.35249e-07
2.10357e-07
-2.39716e-07
-5.60558e-07
2.01804e-07
-2.92706e-07
-5.95123e-07
1.89877e-07
-3.26489e-07
-6.35116e-07
1.75536e-07
-3.39898e-07
-6.7601e-07
1.59831e-07
-3.33462e-07
-7.12998e-07
1.43803e-07
-3.09218e-07
-7.41152e-07
1.28265e-07
-2.70462e-07
-7.55591e-07
1.13776e-07
-2.21362e-07
-7.51492e-07
1.00509e-07
-1.66655e-07
-7.23823e-07
8.82189e-08
-1.11372e-07
-6.66792e-07
7.61565e-08
-6.07394e-08
-5.72437e-07
6.27974e-08
-2.06116e-08
-4.27086e-07
4.56365e-08
-2.00046e-07
2.06226e-08
2.13622e-08
-2.48625e-07
2.1377e-08
6.36446e-08
-5.27322e-07
4.76138e-08
1.17507e-07
-7.04207e-07
6.59801e-08
1.76884e-07
-8.18539e-07
8.0793e-08
2.3609e-07
-8.88099e-07
9.46473e-08
2.89613e-07
-9.22984e-07
1.09076e-07
3.32219e-07
-9.30396e-07
1.24873e-07
3.59205e-07
-9.16281e-07
1.42249e-07
3.66893e-07
-8.8626e-07
1.6092e-07
3.52886e-07
-8.45817e-07
1.80235e-07
3.16454e-07
-8.00532e-07
1.99166e-07
2.58785e-07
-7.55895e-07
2.16488e-07
1.83015e-07
-7.17024e-07
2.30921e-07
9.40511e-08
-6.88333e-07
2.41295e-07
-1.87205e-09
-6.73023e-07
2.46721e-07
-9.78263e-08
-6.72793e-07
2.46769e-07
-1.86883e-07
-6.87635e-07
2.41442e-07
-2.62803e-07
-7.15818e-07
2.3118e-07
-3.20667e-07
-7.54121e-07
2.16862e-07
-3.57347e-07
-7.98123e-07
1.99688e-07
-3.71633e-07
-8.42679e-07
1.80954e-07
-3.6422e-07
-8.82285e-07
1.61874e-07
-3.37442e-07
-9.11385e-07
1.43456e-07
-2.94936e-07
-9.24481e-07
1.26383e-07
-2.41277e-07
-9.16063e-07
1.10912e-07
-1.81605e-07
-8.80304e-07
9.68095e-08
-1.21383e-07
-8.10214e-07
8.32008e-08
-6.62314e-08
-6.96014e-07
6.84249e-08
-2.24981e-08
-5.20541e-07
4.97218e-08
-2.45055e-07
2.25102e-08
2.35606e-08
-2.95761e-07
2.35753e-08
6.95674e-08
-6.25448e-07
5.21188e-08
1.2784e-07
-8.34452e-07
7.19726e-08
1.91846e-07
-9.70594e-07
8.80485e-08
2.55626e-07
-1.05521e-06
1.03328e-07
3.13374e-07
-1.10033e-06
1.19595e-07
3.595e-07
-1.11426e-06
1.37735e-07
3.88976e-07
-1.1037e-06
1.57947e-07
3.97728e-07
-1.07488e-06
1.79873e-07
3.83027e-07
-1.03382e-06
2.02703e-07
3.43939e-07
-9.86624e-07
2.2518e-07
2.81631e-07
-9.39418e-07
2.4583e-07
1.99429e-07
-8.97894e-07
2.63072e-07
1.02689e-07
-8.67066e-07
2.75474e-07
-1.72896e-09
-8.50553e-07
2.81948e-07
-1.06162e-07
-8.50342e-07
2.81981e-07
-2.0295e-07
-8.66409e-07
2.75563e-07
-2.85212e-07
-8.96802e-07
2.63245e-07
-3.47616e-07
-9.37827e-07
2.4611e-07
-3.86823e-07
-9.84499e-07
2.25583e-07
-4.01617e-07
-1.03111e-06
2.03225e-07
-3.92953e-07
-1.0715e-06
1.80554e-07
-3.63507e-07
-1.09964e-06
1.58813e-07
-3.17295e-07
-1.10949e-06
1.38794e-07
-2.59298e-07
-1.09491e-06
1.20851e-07
-1.95051e-07
-1.04931e-06
1.04754e-07
-1.30334e-07
-9.6451e-07
8.95794e-08
-7.11361e-08
-8.28688e-07
7.34757e-08
-2.42003e-08
-6.20843e-07
5.3366e-08
-2.93468e-07
2.42135e-08
2.51835e-08
-3.46143e-07
2.51987e-08
7.40383e-08
-7.29758e-07
5.54553e-08
1.35786e-07
-9.72699e-07
7.64989e-08
2.03569e-07
-1.13215e-06
9.3775e-08
2.71245e-07
-1.23347e-06
1.10588e-07
3.32741e-07
-1.29071e-06
1.28883e-07
3.82196e-07
-1.31333e-06
1.49621e-07
4.14258e-07
-1.30881e-06
1.73047e-07
4.24404e-07
-1.28373e-06
1.98703e-07
4.09578e-07
-1.24461e-06
2.25616e-07
3.68559e-07
-1.19789e-06
2.52288e-07
3.02348e-07
-1.15012e-06
2.76918e-07
2.14474e-07
-1.10758e-06
2.97557e-07
1.1065e-07
-1.07568e-06
3.12437e-07
-1.5964e-09
-1.05852e-06
3.20218e-07
-1.13846e-07
-1.05833e-06
3.20241e-07
-2.17668e-07
-1.0751e-06
3.12514e-07
-3.05576e-07
-1.10659e-06
2.97693e-07
-3.71788e-07
-1.14872e-06
2.77102e-07
-4.12815e-07
-1.19602e-06
2.52546e-07
-4.27643e-07
-1.24224e-06
2.25955e-07
-4.17445e-07
-1.28087e-06
1.9917e-07
-3.85302e-07
-1.30544e-06
1.73651e-07
-3.35667e-07
-1.30948e-06
1.50355e-07
-2.73883e-07
-1.28643e-06
1.29738e-07
-2.05779e-07
-1.22895e-06
1.11539e-07
-1.37435e-07
-1.12762e-06
9.47669e-08
-7.5044e-08
-9.68522e-07
7.7443e-08
-2.55609e-08
-7.26543e-07
5.62173e-08
-3.44604e-07
2.55745e-08
2.61546e-08
-3.9847e-07
2.61721e-08
7.66887e-08
-8.37701e-07
5.74089e-08
1.40493e-07
-1.11571e-06
7.92054e-08
2.10669e-07
-1.29976e-06
9.7429e-08
2.80961e-07
-1.41941e-06
1.15653e-07
3.45248e-07
-1.49099e-06
1.35992e-07
3.9748e-07
-1.52502e-06
1.59452e-07
4.31983e-07
-1.52964e-06
1.86328e-07
4.43885e-07
-1.51174e-06
2.16103e-07
4.29668e-07
-1.47802e-06
2.47626e-07
3.87739e-07
-1.43511e-06
2.7915e-07
3.18917e-07
-1.38974e-06
3.08438e-07
2.26723e-07
-1.3485e-06
3.33119e-07
1.17212e-07
-1.31716e-06
3.50995e-07
-1.48104e-09
-1.30021e-06
3.60375e-07
-1.20168e-07
-1.30003e-06
3.60385e-07
-2.29666e-07
-1.31663e-06
3.51027e-07
-3.21825e-07
-1.34761e-06
3.33179e-07
-3.90575e-07
-1.38849e-06
3.08521e-07
-4.32441e-07
-1.43345e-06
2.79293e-07
-4.46582e-07
-1.47596e-06
2.47867e-07
-4.34578e-07
-1.50932e-06
2.16443e-07
-3.99925e-07
-1.52683e-06
1.86735e-07
-3.47489e-07
-1.52186e-06
1.59951e-07
-2.82888e-07
-1.48758e-06
1.36547e-07
-2.12219e-07
-1.41589e-06
1.16273e-07
-1.41619e-07
-1.2963e-06
9.80775e-08
-7.73202e-08
-1.11263e-06
7.98107e-08
-2.63891e-08
-8.35362e-07
5.78875e-08
-3.97396e-07
2.64034e-08
2.62713e-08
-4.5102e-07
2.6279e-08
7.6854e-08
-9.45758e-07
5.7474e-08
1.40766e-07
-1.25898e-06
7.93563e-08
2.11258e-07
-1.46837e-06
9.81185e-08
2.82303e-07
-1.60792e-06
1.17462e-07
3.47832e-07
-1.69613e-06
1.39614e-07
4.0177e-07
-1.74469e-06
1.65731e-07
4.3826e-07
-1.7622e-06
1.96067e-07
4.52131e-07
-1.75572e-06
2.30114e-07
4.39419e-07
-1.73184e-06
2.66538e-07
3.98076e-07
-1.69708e-06
3.03312e-07
3.28568e-07
-1.6581e-06
3.37872e-07
2.3424e-07
-1.62148e-06
3.67304e-07
1.21385e-07
-1.59309e-06
3.88779e-07
-1.38115e-09
-1.57755e-06
4.00108e-07
-1.24133e-07
-1.57739e-06
4.00109e-07
-2.36934e-07
-1.59261e-06
3.88784e-07
-3.3119e-07
-1.62067e-06
3.67318e-07
-4.00614e-07
-1.65699e-06
3.37928e-07
-4.41854e-07
-1.69562e-06
3.03412e-07
-4.54419e-07
-1.73004e-06
2.66642e-07
-4.40394e-07
-1.75364e-06
2.30295e-07
-4.03707e-07
-1.75984e-06
1.96332e-07
-3.49543e-07
-1.74209e-06
1.6606e-07
-2.83753e-07
-1.69339e-06
1.40014e-07
-2.12406e-07
-1.60514e-06
1.17904e-07
-1.41546e-07
-1.4657e-06
9.85458e-08
-7.72861e-08
-1.25664e-06
7.97526e-08
-2.64125e-08
-9.44017e-07
5.77815e-08
-4.50235e-07
2.64263e-08
2.52624e-08
-5.01555e-07
2.52722e-08
7.37568e-08
-1.04934e-06
5.5089e-08
1.35178e-07
-1.39661e-06
7.62107e-08
2.03232e-07
-1.63126e-06
9.48401e-08
2.72341e-07
-1.79177e-06
1.1474e-07
3.36805e-07
-1.89879e-06
1.38199e-07
3.90753e-07
-1.96505e-06
1.66418e-07
4.28344e-07
-1.9995e-06
1.99706e-07
4.44229e-07
-2.00918e-06
2.37577e-07
4.3401e-07
-2.00031e-06
2.78688e-07
3.95122e-07
-1.97895e-06
3.20758e-07
3.27582e-07
-1.95133e-06
3.60765e-07
2.34391e-07
-1.92347e-06
3.95181e-07
1.21787e-07
-1.90108e-06
4.20596e-07
-1.29732e-09
-1.88857e-06
4.34108e-07
-1.2436e-07
-1.88843e-06
4.34101e-07
-2.36909e-07
-1.90064e-06
4.20579e-07
-3.30004e-07
-1.92273e-06
3.9516e-07
-3.97425e-07
-1.9503e-06
3.6073e-07
-4.36139e-07
-1.97766e-06
3.20755e-07
-4.46162e-07
-1.99878e-06
2.78761e-07
-4.30114e-07
-2.0074e-06
2.37711e-07
-3.92333e-07
-1.99749e-06
1.99862e-07
-3.38132e-07
-1.96291e-06
1.66625e-07
-2.73432e-07
-1.89653e-06
1.38446e-07
-2.0404e-07
-1.78955e-06
1.15015e-07
-1.35733e-07
-1.62913e-06
9.51171e-08
-7.40702e-08
-1.39478e-06
7.64681e-08
-2.53564e-08
-1.04802e-06
5.52903e-08
-5.00961e-07
2.53699e-08
2.28533e-08
-5.47268e-07
2.28602e-08
6.66632e-08
-1.14281e-06
4.96624e-08
1.22249e-07
-1.52108e-06
6.88876e-08
1.84315e-07
-1.77979e-06
8.64656e-08
2.48018e-07
-1.96149e-06
1.06019e-07
3.08321e-07
-2.08889e-06
1.29796e-07
3.59859e-07
-2.17563e-06
1.59035e-07
3.97078e-07
-2.23089e-06
1.94177e-07
4.14598e-07
-2.26146e-06
2.34758e-07
4.07812e-07
-2.27292e-06
2.79389e-07
3.73704e-07
-2.27051e-06
3.25661e-07
3.11585e-07
-2.25954e-06
3.70329e-07
2.23957e-07
-2.24516e-06
4.09315e-07
1.16725e-07
-2.23227e-06
4.38418e-07
-1.22372e-09
-2.22465e-06
4.54029e-07
-1.19145e-07
-2.22453e-06
4.54019e-07
-2.26299e-07
-2.23188e-06
4.38392e-07
-3.13798e-07
-2.24451e-06
4.09279e-07
-3.75786e-07
-2.25863e-06
3.70315e-07
-4.09729e-07
-2.26939e-06
3.25673e-07
-4.16359e-07
-2.27154e-06
2.79397e-07
-3.98637e-07
-2.25992e-06
2.34803e-07
-3.61177e-07
-2.22921e-06
1.94258e-07
-3.09449e-07
-2.1738e-06
1.59154e-07
-2.489e-07
-2.08703e-06
1.29947e-07
-1.84976e-07
-1.95967e-06
1.06193e-07
-1.22657e-07
-1.77809e-06
8.66445e-08
-6.68532e-08
-1.51964e-06
6.90558e-08
-2.29148e-08
-1.14176e-06
4.97969e-08
-5.46804e-07
2.29275e-08
1.87975e-08
-5.84874e-07
1.88079e-08
5.47795e-08
-1.21948e-06
4.06812e-08
1.00751e-07
-1.62375e-06
5.66911e-08
1.52615e-07
-1.9037e-06
7.20481e-08
2.0674e-07
-2.10562e-06
8.9998e-08
2.59007e-07
-2.25381e-06
1.12652e-07
3.04937e-07
-2.36272e-06
1.41162e-07
3.39596e-07
-2.44159e-06
1.76037e-07
3.57934e-07
-2.49677e-06
2.1697e-07
3.55323e-07
-2.53301e-06
2.62707e-07
3.2837e-07
-2.55443e-06
3.10879e-07
2.75817e-07
-2.56494e-06
3.57957e-07
1.99396e-07
-2.56829e-06
3.99554e-07
1.04287e-07
-2.56811e-06
4.30953e-07
-1.15899e-09
-2.56711e-06
4.47899e-07
-1.0658e-07
-2.56702e-06
4.47918e-07
-2.01628e-07
-2.56778e-06
4.30948e-07
-2.77906e-07
-2.56774e-06
3.99504e-07
-3.30295e-07
-2.56413e-06
3.57897e-07
-3.57066e-07
-2.55345e-06
3.10831e-07
-3.59477e-07
-2.53181e-06
2.62674e-07
-3.40934e-07
-2.49543e-06
2.16962e-07
-3.06063e-07
-2.44014e-06
1.76061e-07
-2.5992e-07
-2.36115e-06
1.41216e-07
-2.07426e-07
-2.25225e-06
1.12733e-07
-1.53113e-07
-2.10408e-06
9.00983e-08
-1.01058e-07
-1.9023e-06
7.21574e-08
-5.4928e-08
-1.62256e-06
5.67964e-08
-1.88442e-08
-1.21861e-06
4.07693e-08
-5.84504e-07
1.8856e-08
1.29571e-08
-6.10784e-07
1.2953e-08
3.77761e-08
-1.27215e-06
2.78517e-08
6.99348e-08
-1.69504e-06
3.91364e-08
1.07037e-07
-1.99172e-06
5.0918e-08
1.46819e-07
-2.21111e-06
6.57089e-08
1.86631e-07
-2.37888e-06
8.52589e-08
2.23137e-07
-2.50994e-06
1.10716e-07
2.52471e-07
-2.61343e-06
1.42509e-07
2.70279e-07
-2.69507e-06
1.80491e-07
2.72236e-07
-2.75856e-06
2.23588e-07
2.54921e-07
-2.80671e-06
2.69591e-07
2.16472e-07
-2.84171e-06
3.15214e-07
1.57821e-07
-2.86565e-06
3.56008e-07
8.29202e-08
-2.88034e-06
3.87134e-07
-1.10035e-09
-2.88722e-06
4.04132e-07
-8.50931e-08
-2.88715e-06
4.0412e-07
-1.59914e-07
-2.88005e-06
3.87089e-07
-2.1843e-07
-2.86517e-06
3.55942e-07
-2.56699e-07
-2.84104e-06
3.15175e-07
-2.73843e-07
-2.80585e-06
2.69544e-07
-2.71661e-07
-2.75751e-06
2.23522e-07
-2.53645e-07
-2.69389e-06
1.80446e-07
-2.24123e-07
-2.61215e-06
1.42491e-07
-1.87393e-07
-2.50861e-06
1.10723e-07
-1.47418e-07
-2.37752e-06
8.52881e-08
-1.07437e-07
-2.20982e-06
6.57586e-08
-7.01739e-08
-1.99055e-06
5.09797e-08
-3.79084e-08
-1.69403e-06
3.92038e-08
-1.2978e-08
-1.27145e-06
2.79121e-08
-6.10471e-07
1.29889e-08
5.33891e-09
-6.2146e-07
5.33721e-09
1.57341e-08
-1.2938e-06
1.1261e-08
2.99401e-08
-1.72563e-06
1.63788e-08
4.76547e-08
-2.03254e-06
2.30984e-08
6.83484e-08
-2.26481e-06
3.30105e-08
9.10525e-08
-2.44887e-06
4.72803e-08
1.14039e-07
-2.59972e-06
6.67904e-08
1.34867e-07
-2.7263e-06
9.20344e-08
1.50328e-07
-2.83344e-06
1.22905e-07
1.57001e-07
-2.9239e-06
1.58668e-07
1.51575e-07
-2.99887e-06
1.97581e-07
1.31924e-07
-3.05879e-06
2.36736e-07
9.7863e-08
-3.10374e-06
2.72152e-07
5.18243e-08
-3.13373e-06
2.99426e-07
-1.04445e-09
-3.1487e-06
3.14355e-07
-5.38771e-08
-3.14861e-06
3.14296e-07
-9.9802e-08
-3.13345e-06
2.99328e-07
-1.33752e-07
-3.10328e-06
2.72065e-07
-1.53257e-07
-3.05813e-06
2.36597e-07
-1.58485e-07
-2.99806e-06
1.97436e-07
-1.51613e-07
-2.92296e-06
1.58572e-07
-1.35927e-07
-2.8324e-06
1.22828e-07
-1.14916e-07
-2.72514e-06
9.19776e-08
-9.17162e-08
-2.59857e-06
6.67597e-08
-6.88294e-08
-2.44768e-06
4.72725e-08
-4.799e-08
-2.26368e-06
3.30207e-08
-3.01337e-08
-2.03153e-06
2.31255e-08
-1.57945e-08
-1.72479e-06
1.64171e-08
-5.35565e-09
-1.29319e-06
1.13016e-08
-6.21193e-07
5.36595e-09
-3.83596e-09
-6.13787e-07
-3.83684e-09
-1.07269e-08
-1.27824e-06
-8.66948e-09
-1.80055e-08
-1.70731e-06
-1.10323e-08
-2.37425e-08
-2.01612e-06
-1.06811e-08
-2.64144e-08
-2.25487e-06
-7.2719e-09
-2.51082e-08
-2.44973e-06
-4.41211e-10
-1.95188e-08
-2.61558e-06
1.02738e-08
-1.03442e-08
-2.76076e-06
2.52858e-08
9.33407e-10
-2.88947e-06
4.47576e-08
1.20394e-08
-3.00333e-06
6.83216e-08
2.03497e-08
-3.10198e-06
9.48033e-08
2.35859e-08
-3.18417e-06
1.22137e-07
2.05143e-08
-3.24807e-06
1.47399e-07
1.15645e-08
-3.29193e-06
1.67155e-07
-9.80171e-10
-3.31426e-06
1.78106e-07
-1.3498e-08
-3.31417e-06
1.78078e-07
-2.23819e-08
-3.29165e-06
1.67084e-07
-2.52938e-08
-3.24767e-06
1.47297e-07
-2.18948e-08
-3.18354e-06
1.22013e-07
-1.33973e-08
-3.10123e-06
9.46771e-08
-2.09841e-09
-3.00246e-06
6.82036e-08
9.35568e-09
-2.88851e-06
4.4657e-08
1.87423e-08
-2.75973e-06
2.52063e-08
2.44949e-08
-2.61454e-06
1.02183e-08
2.59736e-08
-2.44868e-06
-4.73943e-10
2.34702e-08
-2.25389e-06
-7.28452e-09
1.786e-08
-2.01524e-06
-1.06755e-08
1.06501e-08
-1.70656e-06
-1.10136e-08
3.82403e-09
-1.27772e-06
-8.64235e-09
-6.13555e-07
-3.81392e-09
-1.40596e-08
-5.85665e-07
-1.40629e-08
-4.0169e-08
-1.22134e-06
-3.07905e-08
-7.14651e-08
-1.63452e-06
-4.15002e-08
-1.03526e-07
-1.93549e-06
-4.85701e-08
-1.32775e-07
-2.17247e-06
-5.31447e-08
-1.56157e-07
-2.37068e-06
-5.56656e-08
-1.71194e-07
-2.54436e-06
-5.618e-08
-1.76349e-07
-2.70115e-06
-5.44553e-08
-1.71061e-07
-2.84459e-06
-5.01659e-08
-1.55984e-07
-2.97513e-06
-4.32754e-08
-1.32693e-07
-3.09125e-06
-3.40163e-08
-1.03462e-07
-3.19021e-06
-2.31922e-08
-7.05915e-08
-3.26857e-06
-1.2369e-08
-3.60259e-08
-3.32308e-06
-3.41704e-09
-9.08599e-10
-3.35106e-06
1.67325e-09
3.42452e-08
-3.35097e-06
1.64377e-09
6.89061e-08
-3.32286e-06
-3.45163e-09
1.01872e-07
-3.26819e-06
-1.24396e-08
1.31261e-07
-3.18961e-06
-2.33223e-08
1.54727e-07
-3.09055e-06
-3.41497e-08
1.69984e-07
-2.97431e-06
-4.34024e-08
1.75433e-07
-2.84368e-06
-5.02768e-08
1.70481e-07
-2.70024e-06
-5.45441e-08
1.55595e-07
-2.5434e-06
-5.62494e-08
1.3239e-07
-2.36976e-06
-5.57116e-08
1.03268e-07
-2.1716e-06
-5.3169e-08
7.13249e-08
-1.93472e-06
-4.85771e-08
4.01248e-08
-1.63387e-06
-4.1491e-08
1.4052e-08
-1.22088e-06
-3.07684e-08
-5.85462e-07
-1.40411e-08
-2.46299e-08
-5.36403e-07
-2.46316e-08
-7.05601e-08
-1.12183e-06
-5.3584e-08
-1.26667e-07
-1.5054e-06
-7.30135e-08
-1.86234e-07
-1.78794e-06
-8.79861e-08
-2.43579e-07
-2.01386e-06
-1.01267e-07
-2.93417e-07
-2.20649e-06
-1.14354e-07
-3.31012e-07
-2.37895e-06
-1.27816e-07
-3.52318e-07
-2.53825e-06
-1.41588e-07
-3.54512e-07
-2.6871e-06
-1.55296e-07
-3.36207e-07
-2.82522e-06
-1.68212e-07
-2.97719e-07
-2.9502e-06
-1.79544e-07
-2.4106e-07
-3.0581e-06
-1.88764e-07
-1.69592e-07
-3.14454e-06
-1.9549e-07
-8.78247e-08
-3.20514e-06
-1.99711e-07
-8.24931e-10
-3.23638e-06
-2.01676e-07
8.61954e-08
-3.23629e-06
-2.01701e-07
1.68036e-07
-3.20488e-06
-1.99823e-07
2.3959e-07
-3.14412e-06
-1.9563e-07
2.9643e-07
-3.05757e-06
-1.88881e-07
3.35047e-07
-2.9495e-06
-1.79663e-07
3.53494e-07
-2.82444e-06
-1.68324e-07
3.51484e-07
-2.68628e-06
-1.55397e-07
3.30308e-07
-2.53739e-06
-1.41673e-07
2.92891e-07
-2.3781e-06
-1.27882e-07
2.43186e-07
-2.20566e-06
-1.14402e-07
1.85979e-07
-2.01309e-06
-1.01299e-07
1.26537e-07
-1.7873e-06
-8.79772e-08
7.04973e-08
-1.50485e-06
-7.29877e-08
2.46223e-08
-1.12144e-06
-5.35662e-08
-5.36228e-07
-2.46115e-08
-3.45757e-08
-4.6725e-07
-3.45775e-08
-9.91367e-08
-9.82306e-07
-7.49619e-08
-1.78814e-07
-1.32318e-06
-1.0254e-07
-2.64807e-07
-1.57679e-06
-1.25151e-07
-3.49598e-07
-1.7819e-06
-1.47165e-07
-4.25787e-07
-1.95925e-06
-1.71052e-07
-4.86206e-07
-2.12055e-06
-1.97983e-07
-5.24357e-07
-2.27193e-06
-2.28175e-07
-5.34953e-07
-2.41554e-06
-2.6097e-07
-5.14456e-07
-2.55066e-06
-2.95054e-07
-4.61743e-07
-2.67426e-06
-3.28647e-07
-3.78262e-07
-2.78207e-06
-3.59512e-07
-2.68579e-07
-2.86897e-06
-3.85253e-07
-1.39725e-07
-2.93019e-06
-4.03805e-07
-7.23708e-10
-2.96181e-06
-4.13573e-07
1.38297e-07
-2.96172e-06
-4.13591e-07
2.67198e-07
-2.92993e-06
-4.03855e-07
3.76989e-07
-2.86858e-06
-3.85326e-07
4.6051e-07
-2.78149e-06
-3.59596e-07
5.1339e-07
-2.67364e-06
-3.28738e-07
5.34021e-07
-2.54993e-06
-2.95136e-07
5.23581e-07
-2.41479e-06
-2.61047e-07
4.85573e-07
-2.27114e-06
-2.28243e-07
4.25284e-07
-2.11978e-06
-1.98036e-07
3.49252e-07
-1.95853e-06
-1.71091e-07
2.64598e-07
-1.78125e-06
-1.47191e-07
1.78688e-07
-1.57621e-06
-1.25185e-07
9.90893e-08
-1.3227e-06
-1.0255e-07
3.4569e-08
-9.81978e-07
-7.49435e-08
-4.67102e-07
-3.45566e-08
-4.27314e-08
-3.81792e-07
-4.27268e-08
-1.22725e-07
-8.09854e-07
-9.24592e-08
-2.2233e-07
-1.09681e-06
-1.26766e-07
-3.31244e-07
-1.31204e-06
-1.55834e-07
-4.40362e-07
-1.48727e-06
-1.85515e-07
-5.40411e-07
-1.63997e-06
-2.19229e-07
-6.2204e-07
-1.78025e-06
-2.58673e-07
-6.7637e-07
-1.91331e-06
-3.04281e-07
-6.95668e-07
-2.04097e-06
-3.55267e-07
-6.74281e-07
-2.16226e-06
-4.09788e-07
-6.0954e-07
-2.27413e-06
-4.64878e-07
-5.02524e-07
-2.37231e-06
-5.16777e-07
-3.58505e-07
-2.45184e-06
-5.61152e-07
-1.86926e-07
-2.50803e-06
-5.93734e-07
-6.1292e-10
-2.53714e-06
-6.10979e-07
1.85708e-07
-2.53706e-06
-6.10984e-07
3.57319e-07
-2.50779e-06
-5.93749e-07
5.01374e-07
-2.45146e-06
-5.61181e-07
6.08482e-07
-2.3718e-06
-5.16804e-07
6.73313e-07
-2.27356e-06
-4.64915e-07
6.94807e-07
-2.16161e-06
-4.09818e-07
6.7561e-07
-2.04029e-06
-3.55299e-07
6.21446e-07
-1.91266e-06
-3.0431e-07
5.39924e-07
-1.77956e-06
-2.58696e-07
4.40009e-07
-1.63937e-06
-2.19249e-07
3.31e-07
-1.48671e-06
-1.85529e-07
2.22193e-07
-1.31157e-06
-1.55836e-07
1.22682e-07
-1.09643e-06
-1.26754e-07
4.27182e-08
-8.09577e-07
-9.24373e-08
-3.81678e-07
-4.27059e-08
-4.78156e-08
-2.86158e-07
-4.78186e-08
-1.37903e-07
-6.16461e-07
-1.03305e-07
-2.51275e-07
-8.41653e-07
-1.41786e-07
-3.77002e-07
-1.01125e-06
-1.75071e-07
-5.04838e-07
-1.14929e-06
-2.10144e-07
-6.23961e-07
-1.26962e-06
-2.51227e-07
-7.23175e-07
-1.38052e-06
-3.00517e-07
-7.9142e-07
-1.48646e-06
-3.58609e-07
-8.18975e-07
-1.5888e-06
-4.24617e-07
-7.98254e-07
-1.68677e-06
-4.96215e-07
-7.25193e-07
-1.77767e-06
-5.69515e-07
-6.00332e-07
-1.85784e-06
-6.3933e-07
-4.29599e-07
-1.92305e-06
-6.99526e-07
-2.2434e-07
-1.96922e-06
-7.44075e-07
-4.94162e-10
-1.99315e-06
-7.67837e-07
2.23355e-07
-1.99308e-06
-7.67827e-07
4.28621e-07
-1.969e-06
-7.4405e-07
5.99392e-07
-1.92275e-06
-6.99475e-07
7.24282e-07
-1.85745e-06
-6.39239e-07
7.97366e-07
-1.77719e-06
-5.69449e-07
8.18166e-07
-1.68622e-06
-4.96186e-07
7.90737e-07
-1.58827e-06
-4.246e-07
7.22569e-07
-1.48589e-06
-3.58601e-07
6.23514e-07
-1.38e-06
-3.00511e-07
5.04504e-07
-1.26913e-06
-2.51227e-07
3.76774e-07
-1.14884e-06
-2.10139e-07
2.51156e-07
-1.01088e-06
-1.75065e-07
1.37844e-07
-8.4135e-07
-1.41769e-07
4.78096e-08
-6.16262e-07
-1.0328e-07
-2.86072e-07
-4.77969e-08
-4.85598e-08
-1.89041e-07
-4.85576e-08
-1.41297e-07
-4.18989e-07
-1.04735e-07
-2.60104e-07
-5.79241e-07
-1.43604e-07
-3.94206e-07
-6.99486e-07
-1.77659e-07
-5.3277e-07
-7.96199e-07
-2.14528e-07
-6.63868e-07
-8.79568e-07
-2.58955e-07
-7.74864e-07
-9.56013e-07
-3.1351e-07
-8.53293e-07
-1.02907e-06
-3.78958e-07
-8.8777e-07
-1.09999e-06
-4.54337e-07
-8.6937e-07
-1.16819e-06
-5.36974e-07
-7.92933e-07
-1.2318e-06
-6.22309e-07
-6.58537e-07
-1.28808e-06
-7.04155e-07
-4.72346e-07
-1.33399e-06
-7.75248e-07
-2.46952e-07
-1.36652e-06
-8.28092e-07
-3.78665e-10
-1.3834e-06
-8.56325e-07
2.46187e-07
-1.38334e-06
-8.56301e-07
4.71567e-07
-1.36636e-06
-8.28027e-07
6.57743e-07
-1.33373e-06
-7.75194e-07
7.92154e-07
-1.28776e-06
-7.04102e-07
8.68594e-07
-1.23141e-06
-6.22221e-07
8.87051e-07
-1.16779e-06
-5.36887e-07
8.52622e-07
-1.09957e-06
-4.54271e-07
7.74307e-07
-1.02867e-06
-3.78908e-07
6.63413e-07
-9.55627e-07
-3.13475e-07
5.32431e-07
-8.79217e-07
-2.58933e-07
3.93986e-07
-7.95887e-07
-2.1451e-07
2.59979e-07
-6.9923e-07
-1.77645e-07
1.41249e-07
-5.79037e-07
-1.43583e-07
4.85489e-08
-4.18852e-07
-1.04709e-07
-1.88986e-07
-4.85369e-08
-4.38308e-08
-1.01381e-07
-4.38284e-08
-1.30289e-07
-2.38265e-07
-9.42653e-08
-2.445e-07
-3.36418e-07
-1.28613e-07
-3.7668e-07
-4.08544e-07
-1.58761e-07
-5.15885e-07
-4.64513e-07