/*--------------------------------*- C++ -*----------------------------------*\
| =========                 |                                                 |
| \\      /  F ield         | OpenFOAM: The Open Source CFD Toolbox           |
|  \\    /   O peration     | Version:  v1906                                 |
|   \\  /    A nd           | Web:      www.OpenFOAM.com                      |
|    \\/     M anipulation  |                                                 |
\*---------------------------------------------------------------------------*/
FoamFile
{
    version     2.0;
    format      ascii;
    class       volScalarField;
    location    "76";
    object      alphat;
}
// * * * * * * * * * * * * * * * * * * * * * * * * * * * * * * * * * * * * * //

dimensions      [1 -1 -1 0 0 0 0];


internalField   nonuniform List<scalar> 
78750
(
6.20509e-09
4.77582e-07
7.644e-07
1.03974e-06
1.30175e-06
1.54514e-06
1.76788e-06
1.96933e-06
2.14924e-06
2.30761e-06
2.44461e-06
2.5606e-06
2.6561e-06
2.73173e-06
2.78783e-06
2.82414e-06
2.84136e-06
2.84022e-06
2.82129e-06
2.78499e-06
2.73222e-06
2.66165e-06
2.57328e-06
2.46687e-06
2.34181e-06
2.19727e-06
2.03237e-06
1.84582e-06
1.63604e-06
1.40198e-06
1.1418e-06
8.56756e-07
5.66843e-07
3.21163e-07
6.50394e-09
3.27799e-09
1.88981e-06
4.73165e-06
8.22459e-06
1.15562e-05
1.37598e-05
1.50564e-05
1.59681e-05
1.67575e-05
1.75284e-05
1.83306e-05
1.91932e-05
2.01411e-05
2.11854e-05
2.21984e-05
2.20792e-05
2.1856e-05
2.15416e-05
2.11477e-05
2.06843e-05
2.01603e-05
1.95786e-05
1.89428e-05
1.82539e-05
1.7509e-05
1.67021e-05
1.58264e-05
1.46481e-05
1.23098e-05
9.86214e-06
7.25396e-06
4.89514e-06
3.60505e-06
2.42156e-06
2.73439e-08
5.1094e-09
2.28178e-06
4.91398e-06
8.20919e-06
1.2147e-05
1.63368e-05
2.00321e-05
2.26652e-05
2.42365e-05
2.50606e-05
2.54376e-05
2.55593e-05
2.55333e-05
2.54158e-05
2.52251e-05
2.49468e-05
2.45584e-05
2.40585e-05
2.3459e-05
2.27736e-05
2.20169e-05
2.12144e-05
2.03824e-05
1.95093e-05
1.85707e-05
1.75301e-05
1.63193e-05
1.48336e-05
1.29454e-05
1.05813e-05
8.02643e-06
6.18087e-06
6.06583e-06
2.61807e-06
4.58536e-08
9.45674e-09
2.16427e-06
4.8562e-06
8.57598e-06
1.33497e-05
1.851e-05
2.29309e-05
2.59618e-05
2.76499e-05
2.83063e-05
2.823e-05
2.7666e-05
2.67944e-05
2.57399e-05
2.45879e-05
2.33967e-05
2.22039e-05
2.10329e-05
1.99007e-05
1.88243e-05
1.78262e-05
1.69355e-05
1.61792e-05
1.55654e-05
1.50681e-05
1.46117e-05
1.4051e-05
1.31727e-05
1.17722e-05
9.86302e-06
7.95212e-06
7.0332e-06
8.24709e-06
2.4243e-06
5.90085e-08
1.4045e-08
2.19134e-06
5.10636e-06
9.51503e-06
1.55506e-05
2.20897e-05
2.7382e-05
3.06568e-05
3.16217e-05
3.20949e-05
3.11014e-05
2.94907e-05
2.76128e-05
2.5679e-05
2.3817e-05
2.20884e-05
2.05101e-05
1.9074e-05
1.77619e-05
1.65595e-05
1.54684e-05
1.45099e-05
1.37134e-05
1.30972e-05
1.26543e-05
1.23275e-05
1.19753e-05
1.13732e-05
1.03317e-05
8.94235e-06
7.7575e-06
7.75348e-06
9.39162e-06
2.27865e-06
6.80841e-08
1.90636e-08
2.2293e-06
5.35499e-06
1.04251e-05
1.77022e-05
2.53999e-05
3.09744e-05
3.33104e-05
3.40745e-05
3.34092e-05
3.14162e-05
2.89405e-05
2.63837e-05
2.39798e-05
2.18384e-05
1.9983e-05
1.83898e-05
1.7015e-05
1.58117e-05
1.47441e-05
1.37985e-05
1.29812e-05
1.22992e-05
1.17489e-05
1.13161e-05
1.09557e-05
1.05614e-05
9.97613e-06
9.1072e-06
8.11683e-06
7.53296e-06
8.30624e-06
9.48629e-06
2.17373e-06
7.4358e-08
2.37135e-08
2.27304e-06
5.55581e-06
1.11086e-05
1.92726e-05
2.76418e-05
3.32085e-05
3.54547e-05
3.55339e-05
3.37539e-05
3.09996e-05
2.79155e-05
2.49368e-05
2.22907e-05
2.0046e-05
1.81808e-05
1.66338e-05
1.53364e-05
1.42292e-05
1.32717e-05
1.24517e-05
1.17767e-05
1.1231e-05
1.0778e-05
1.03798e-05
9.98773e-06
9.52728e-06
8.91922e-06
8.16694e-06
7.47378e-06
7.33141e-06
8.66914e-06
9.00028e-06
2.09226e-06
7.94169e-08
2.78945e-08
2.31418e-06
5.70193e-06
1.15882e-05
2.04123e-05
2.92692e-05
3.47373e-05
3.66657e-05
3.59619e-05
3.35312e-05
3.0242e-05
2.67956e-05
2.36255e-05
2.09129e-05
1.86747e-05
1.68529e-05
1.53724e-05
1.41612e-05
1.31591e-05
1.23299e-05
1.16637e-05
1.11489e-05
1.07314e-05
1.03427e-05
9.92628e-06
9.4408e-06
8.85606e-06
8.17091e-06
7.4636e-06
6.95418e-06
7.09816e-06
8.79613e-06
8.44772e-06
2.03331e-06
8.43984e-08
3.17501e-08
2.34462e-06
5.7892e-06
1.18745e-05
2.10999e-05
3.01811e-05
3.54739e-05
3.7041e-05
3.59202e-05
3.30996e-05
2.95171e-05
2.58974e-05
2.2651e-05
1.99186e-05
1.76841e-05
1.58732e-05
1.44044e-05
1.32109e-05
1.22441e-05
1.1482e-05
1.0933e-05
1.05768e-05
1.0324e-05
1.00642e-05
9.69929e-06
9.1736e-06
8.49157e-06
7.72408e-06
7.01441e-06
6.59864e-06
6.90976e-06
8.81488e-06
7.94636e-06
1.98847e-06
8.989e-08
3.53959e-08
2.37198e-06
5.85711e-06
1.2088e-05
2.16174e-05
3.0871e-05
3.6024e-05
3.72948e-05
3.58358e-05
3.27206e-05
2.89434e-05
2.52325e-05
2.1966e-05
1.92463e-05
1.70319e-05
1.52374e-05
1.378e-05
1.25951e-05
1.16417e-05
1.09123e-05
1.04298e-05
1.01683e-05
1.00243e-05
9.86244e-06
9.55019e-06
9.00939e-06
8.26074e-06
7.42742e-06
6.70172e-06
6.33377e-06
6.74463e-06
8.77453e-06
7.537e-06
1.9555e-06
9.57687e-08
3.905e-08
2.39462e-06
5.90634e-06
1.22441e-05
2.19894e-05
3.13113e-05
3.62923e-05
3.73126e-05
3.56092e-05
3.2308e-05
2.84269e-05
2.46824e-05
2.14214e-05
1.87179e-05
1.65149e-05
1.47218e-05
1.32571e-05
1.20616e-05
1.11027e-05
1.03857e-05
9.94958e-06
9.76489e-06
9.71964e-06
9.66043e-06
9.42422e-06
8.90604e-06
8.1292e-06
7.25312e-06
6.51027e-06
6.16713e-06
6.64435e-06
8.76286e-06
7.19913e-06
1.93156e-06
1.01865e-07
4.27471e-08
2.41786e-06
5.95993e-06
1.24073e-05
2.23559e-05
3.17313e-05
3.65526e-05
3.73443e-05
3.54217e-05
3.19642e-05
2.80104e-05
2.42589e-05
2.10227e-05
1.83488e-05
1.61659e-05
1.4379e-05
1.29077e-05
1.16966e-05
1.07197e-05
9.99321e-06
9.56814e-06
9.41499e-06
9.42199e-06
9.42916e-06
9.25558e-06
8.77468e-06
8.00346e-06
7.11753e-06
6.3746e-06
6.05678e-06
6.59266e-06
8.79178e-06
6.92399e-06
1.91555e-06
1.07926e-07
4.65416e-08
2.43956e-06
6.00968e-06
1.25583e-05
2.26804e-05
3.20628e-05
3.67064e-05
3.72857e-05
3.51821e-05
3.16132e-05
2.76227e-05
2.38847e-05
2.06803e-05
1.80349e-05
1.58679e-05
1.4083e-05
1.26022e-05
1.13742e-05
1.03789e-05
9.64108e-06
9.22191e-06
9.08948e-06
9.13257e-06
9.19002e-06
9.07104e-06
8.63424e-06
7.88901e-06
7.01734e-06
6.29088e-06
6.00484e-06
6.602e-06
8.88015e-06
6.69696e-06
1.90614e-06
1.13851e-07
5.04447e-08
2.46317e-06
6.06803e-06
1.27306e-05
2.3032e-05
3.24094e-05
3.68728e-05
3.72471e-05
3.49778e-05
3.13184e-05
2.73122e-05
2.36034e-05
2.04406e-05
1.78287e-05
1.56794e-05
1.38955e-05
1.24017e-05
1.11513e-05
1.01289e-05
9.36696e-06
8.93544e-06
8.80254e-06
8.85698e-06
8.93897e-06
8.85652e-06
8.46103e-06
7.75498e-06
6.91878e-06
6.22753e-06
5.98537e-06
6.65275e-06
9.01299e-06
6.51461e-06
1.90275e-06
1.19577e-07
5.43968e-08
2.48566e-06
6.12394e-06
1.28946e-05
2.33558e-05
3.27059e-05
3.69887e-05
3.71754e-05
3.47668e-05
3.10433e-05
2.7039e-05
2.33668e-05
2.02459e-05
1.7665e-05
1.55305e-05
1.37456e-05
1.22379e-05
1.09644e-05
9.9147e-06
9.12687e-06
8.67884e-06
8.53961e-06
8.59817e-06
8.69532e-06
8.63975e-06
8.28281e-06
7.62221e-06
6.83354e-06
6.18979e-06
6.00129e-06
6.74759e-06
9.18733e-06
6.36581e-06
1.90395e-06
1.25107e-07
5.84618e-08
2.51003e-06
6.18688e-06
1.3076e-05
2.37025e-05
3.30152e-05
3.71165e-05
3.7126e-05
3.45968e-05
3.08294e-05
2.68431e-05
2.32166e-05
2.01416e-05
1.75926e-05
1.54715e-05
1.36823e-05
1.21557e-05
1.08527e-05
9.76751e-06
8.94286e-06
8.46373e-06
8.30287e-06
8.35012e-06
8.44869e-06
8.41002e-06
8.08709e-06
7.47639e-06
6.74542e-06
6.1603e-06
6.03505e-06
6.86886e-06
9.38637e-06
6.25101e-06
1.9096e-06
1.30468e-07
6.25217e-08
2.5332e-06
6.24733e-06
1.32497e-05
2.40268e-05
3.3292e-05
3.72212e-05
3.70723e-05
3.44427e-05
3.06472e-05
2.66862e-05
2.31065e-05
2.00757e-05
1.75567e-05
1.54484e-05
1.36549e-05
1.2109e-05
1.07754e-05
9.65313e-06
8.7887e-06
8.27345e-06
8.08559e-06
8.1159e-06
8.21032e-06
8.18465e-06
7.89477e-06
7.33518e-06
6.66623e-06
6.14593e-06
6.09061e-06
7.01881e-06
9.60645e-06
6.15994e-06
1.91829e-06
1.35674e-07
6.66939e-08
2.55795e-06
6.3131e-06
1.34369e-05
2.43692e-05
3.35809e-05
3.73413e-05
3.70473e-05
3.43357e-05
3.05282e-05
2.66024e-05
2.30735e-05
2.00877e-05
1.75985e-05
1.55017e-05
1.37015e-05
1.21325e-05
1.07628e-05
9.59547e-06
8.68067e-06
8.11474e-06
7.88573e-06
7.88637e-06
7.96642e-06
7.9477e-06
7.69036e-06
7.18591e-06
6.58429e-06
6.13412e-06
6.15421e-06
7.18212e-06
9.83431e-06
6.09272e-06
1.92984e-06
1.4076e-07
7.08337e-08
2.5815e-06
6.37702e-06
1.362e-05
2.46991e-05
3.3853e-05
3.74551e-05
3.70306e-05
3.42494e-05
3.04367e-05
2.65473e-05
2.30679e-05
2.01263e-05
1.76675e-05
1.55843e-05
1.37802e-05
1.21903e-05
1.07854e-05
9.57173e-06
8.60351e-06
7.98115e-06
7.70471e-06
7.66966e-06
7.73021e-06
7.7149e-06
7.48879e-06
7.04051e-06
6.50898e-06
6.13242e-06
6.23212e-06
7.36473e-06
1.00721e-05
6.04324e-06
1.9436e-06
1.45728e-07
7.50881e-08
2.60629e-06
6.44522e-06
1.38152e-05
2.5047e-05
3.41403e-05
3.75896e-05
3.70477e-05
3.42115e-05
3.04039e-05
2.65555e-05
2.31265e-05
2.02287e-05
1.78e-05
1.57305e-05
1.3922e-05
1.23099e-05
1.08662e-05
9.60001e-06
8.56874e-06
7.87656e-06
7.53968e-06
7.45756e-06
7.48997e-06
7.47327e-06
7.27742e-06
6.88684e-06
6.42791e-06
6.1278e-06
6.31022e-06
7.55045e-06
1.03064e-05
6.00889e-06
1.95884e-06
1.50598e-07
7.93001e-08
2.62987e-06
6.5123e-06
1.40109e-05
2.53935e-05
3.44245e-05
3.77288e-05
3.70777e-05
3.41908e-05
3.03883e-05
2.65787e-05
2.31988e-05
2.03457e-05
1.79504e-05
1.58992e-05
1.40919e-05
1.24624e-05
1.09829e-05
9.66446e-06
8.56762e-06
7.8005e-06
7.39685e-06
7.26122e-06
7.2597e-06
7.23727e-06
7.06924e-06
6.73567e-06
6.34998e-06
6.12811e-06
6.39651e-06
7.7485e-06
1.05442e-05
5.98718e-06
1.97565e-06
1.55363e-07
8.36306e-08
2.65424e-06
6.58272e-06
1.42185e-05
2.57613e-05
3.47311e-05
3.78961e-05
3.71446e-05
3.42146e-05
3.04211e-05
2.66513e-05
2.33203e-05
2.05118e-05
1.81506e-05
1.6119e-05
1.43141e-05
1.26677e-05
1.11512e-05
9.77663e-06
8.6072e-06
7.75444e-06
7.27331e-06
7.07463e-06
7.03152e-06
6.99811e-06
6.85514e-06
6.57766e-06
6.26533e-06
6.12254e-06
6.47849e-06
7.94402e-06
1.07744e-05
5.97581e-06
1.99326e-06
1.60033e-07
8.79153e-08
2.6772e-06
6.65168e-06
1.44277e-05
2.61356e-05
3.50502e-05
3.80809e-05
3.72264e-05
3.42466e-05
3.04569e-05
2.67249e-05
2.34439e-05
2.06838e-05
1.83621e-05
1.6357e-05
1.45619e-05
1.29053e-05
1.13562e-05
9.92699e-06
8.6833e-06
7.7405e-06
7.17601e-06
6.90816e-06
6.81765e-06
6.76815e-06
6.64614e-06
6.42189e-06
6.18143e-06
6.11769e-06
6.56261e-06
8.14368e-06
1.09998e-05
5.97101e-06
2.01147e-06
1.64591e-07
9.23172e-08
2.70055e-06
6.72248e-06
1.46441e-05
2.65198e-05
3.53627e-05
3.82628e-05
3.73241e-05
3.43043e-05
3.05237e-05
2.68321e-05
2.36021e-05
2.08912e-05
1.86105e-05
1.66343e-05
1.48521e-05
1.31881e-05
1.1608e-05
1.01232e-05
8.80112e-06
7.76092e-06
7.10398e-06
6.75856e-06
6.61346e-06
6.54204e-06
6.43646e-06
6.26222e-06
6.09183e-06
6.10684e-06
6.64201e-06
8.3409e-06
1.12201e-05
5.97501e-06
2.0304e-06
1.69046e-07
9.66689e-08
2.7226e-06
6.79141e-06
1.48567e-05
2.68886e-05
3.56523e-05
3.84232e-05
3.74022e-05
3.43538e-05
3.05834e-05
2.69321e-05
2.37555e-05
2.10984e-05
1.88653e-05
1.6926e-05
1.51653e-05
1.3502e-05
1.18973e-05
1.03605e-05
8.9603e-06
7.82041e-06
7.0648e-06
6.63544e-06
6.42956e-06
6.33022e-06
6.2354e-06
6.10624e-06
6.00228e-06
6.09394e-06
6.71854e-06
8.53427e-06
1.14271e-05
5.97993e-06
2.04897e-06
1.73365e-07
1.01135e-07
2.74516e-06
6.86319e-06
1.50785e-05
2.72607e-05
3.59374e-05
3.85804e-05
3.74831e-05
3.44161e-05
3.06607e-05
2.7052e-05
2.393e-05
2.13278e-05
1.91442e-05
1.72451e-05
1.55104e-05
1.3853e-05
1.22284e-05
1.06422e-05
9.1639e-06
7.9215e-06
7.05933e-06
6.53823e-06
6.26435e-06
6.13041e-06
6.04021e-06
5.95095e-06
5.90982e-06
6.07656e-06
6.79132e-06
8.72776e-06
1.16374e-05
5.99231e-06
2.06792e-06
1.77557e-07
1.05543e-07
2.76615e-06
6.93292e-06
1.52995e-05
2.76145e-05
3.61969e-05
3.87122e-05
3.75389e-05
3.44548e-05
3.07206e-05
2.71587e-05
2.40946e-05
2.15521e-05
1.94245e-05
1.75736e-05
1.58739e-05
1.42315e-05
1.25949e-05
1.09651e-05
9.41145e-06
8.06707e-06
7.09319e-06
6.47453e-06
6.1265e-06
5.95135e-06
5.85875e-06
5.80273e-06
5.8191e-06
6.05746e-06
6.86085e-06
8.91826e-06
1.18405e-05
6.00738e-06
2.08656e-06
1.8159e-07
1.10045e-07
2.78711e-06
7.00276e-06
1.55218e-05
2.79679e-05
3.64496e-05
3.8838e-05
3.7593e-05
3.44973e-05
3.07962e-05
2.72789e-05
2.42696e-05
2.17865e-05
1.97172e-05
1.79182e-05
1.62588e-05
1.46382e-05
1.29965e-05
1.13285e-05
9.70253e-06
8.25624e-06
7.1652e-06
6.44303e-06
6.01492e-06
5.79211e-06
5.69016e-06
5.6606e-06
5.72912e-06
6.03613e-06
6.92912e-06
9.11389e-06
1.20425e-05
6.02982e-06
2.10567e-06
1.85473e-07
1.14488e-07
2.80699e-06
7.07071e-06
1.57393e-05
2.83048e-05
3.66785e-05
3.89391e-05
3.76207e-05
3.45113e-05
3.08423e-05
2.73742e-05
2.44268e-05
2.20106e-05
2.00066e-05
1.82673e-05
1.66567e-05
1.50667e-05
1.34287e-05
1.17296e-05
1.00354e-05
8.48849e-06
7.27746e-06
6.44776e-06
5.93483e-06
5.65857e-06
5.5403e-06
5.53002e-06
5.64476e-06
6.0172e-06
7.00028e-06
9.31589e-06
1.2244e-05
6.05659e-06
2.12511e-06
1.89181e-07
1.19011e-07
2.82703e-06
7.13965e-06
1.59604e-05
2.86418e-05
3.69009e-05
3.90331e-05
3.76435e-05
3.45234e-05
3.0889e-05
2.74716e-05
2.45864e-05
2.22373e-05
2.02999e-05
1.86231e-05
1.70662e-05
1.55138e-05
1.38875e-05
1.21648e-05
1.04076e-05
8.76181e-06
7.42852e-06
6.48764e-06
5.88549e-06
5.55023e-06
5.40892e-06
5.41074e-06
5.56551e-06
5.99945e-06
7.07172e-06
9.51981e-06
1.24432e-05
6.08685e-06
2.14474e-06
1.92709e-07
1.23473e-07
2.84629e-06
7.20712e-06
1.61769e-05
2.8963e-05
3.71007e-05
3.91031e-05
3.76403e-05
3.45078e-05
3.09086e-05
2.7546e-05
2.47279e-05
2.24509e-05
2.05857e-05
1.89776e-05
1.74817e-05
1.59751e-05
1.43692e-05
1.2631e-05
1.08165e-05
9.07458e-06
7.61888e-06
6.56471e-06
5.86999e-06
5.47098e-06
5.30036e-06
5.30737e-06
5.49623e-06
5.98813e-06
7.14904e-06
9.73034e-06
1.26411e-05
6.11952e-06
2.16439e-06
1.96038e-07
1.27998e-07
2.86601e-06
7.27647e-06
1.63978e-05
2.92838e-05
3.72929e-05
3.91637e-05
3.76278e-05
3.44838e-05
3.09213e-05
2.76161e-05
2.48651e-05
2.26597e-05
2.08673e-05
1.93305e-05
1.79e-05
1.64456e-05
1.48683e-05
1.3123e-05
1.12582e-05
9.42421e-06
7.84687e-06
6.67775e-06
5.8874e-06
5.42018e-06
5.21426e-06
5.21953e-06
5.43583e-06
5.98048e-06
7.22722e-06
9.94269e-06
1.28353e-05
6.15405e-06
2.18393e-06
1.99168e-07
1.32466e-07
2.88535e-06
7.34558e-06
1.66146e-05
2.95892e-05
3.74631e-05
3.92003e-05
3.75892e-05
3.4432e-05
3.09068e-05
2.76666e-05
2.49848e-05
2.28533e-05
2.11377e-05
1.96772e-05
1.83178e-05
1.69224e-05
1.53814e-05
1.36371e-05
1.17291e-05
9.80795e-06
8.11157e-06
6.82716e-06
5.93905e-06
5.39983e-06
5.15311e-06
5.15007e-06
5.38775e-06
5.98161e-06
7.31466e-06
1.01604e-05
1.30264e-05
6.18948e-06
2.20318e-06
2.0209e-07
1.36976e-07
2.9053e-06
7.41845e-06
1.68343e-05
2.98915e-05
3.76235e-05
3.92252e-05
3.75382e-05
3.43677e-05
3.08789e-05
2.77022e-05
2.50908e-05
2.30354e-05
2.13988e-05
2.00169e-05
1.87321e-05
1.74008e-05
1.59029e-05
1.41678e-05
1.22247e-05
1.02226e-05
8.41092e-06
7.01151e-06
6.0239e-06
5.40921e-06
5.11654e-06
5.09902e-06
5.35222e-06
5.99135e-06
7.40936e-06
1.03825e-05
1.32147e-05
6.22614e-06
2.22212e-06
2.04811e-07
1.41387e-07
2.92382e-06
7.48828e-06
1.70481e-05
3.01787e-05
3.77629e-05
3.92267e-05
3.7463e-05
3.428e-05
3.08291e-05
2.77183e-05
2.51808e-05
2.32046e-05
2.16498e-05
2.03494e-05
1.91425e-05
1.78795e-05
1.64305e-05
1.47116e-05
1.27406e-05
1.06643e-05
8.74282e-06
7.22995e-06
6.14205e-06
5.44911e-06
5.10594e-06
5.0682e-06
5.33123e-06
6.01134e-06
7.51198e-06
1.06103e-05
1.3401e-05
6.2638e-06
2.24071e-06
2.07334e-07
1.45769e-07
2.94224e-06
7.55781e-06
1.7262e-05
3.04628e-05
3.78933e-05
3.92155e-05
3.73709e-05
3.41724e-05
3.07595e-05
2.7717e-05
2.5256e-05
2.33609e-05
2.18894e-05
2.06722e-05
1.95455e-05
1.83543e-05
1.6959e-05
1.52629e-05
1.32718e-05
1.11289e-05
9.10391e-06
7.48e-06
6.29175e-06
5.5184e-06
5.12069e-06
5.05737e-06
5.3246e-06
6.04096e-06
7.62109e-06
1.08419e-05
1.35852e-05
6.30271e-06
2.25899e-06
2.09671e-07
1.50067e-07
2.95957e-06
7.6259e-06
1.74755e-05
3.07371e-05
3.80065e-05
3.91865e-05
3.72627e-05
3.40503e-05
3.06747e-05
2.7697e-05
2.53117e-05
2.35013e-05
2.2117e-05
2.09856e-05
1.99415e-05
1.88248e-05
1.74871e-05
1.58189e-05
1.38141e-05
1.16118e-05
9.49047e-06
7.75907e-06
6.47154e-06
5.61662e-06
5.16114e-06
5.06744e-06
5.33348e-06
6.08125e-06
7.73729e-06
1.10773e-05
1.37671e-05
6.3427e-06
2.27697e-06
2.1183e-07
1.54335e-07
2.97695e-06
7.69443e-06
1.76894e-05
3.10049e-05
3.81081e-05
3.91426e-05
3.71364e-05
3.39089e-05
3.05727e-05
2.76648e-05
2.53585e-05
2.36299e-05
2.23312e-05
2.12876e-05
2.03282e-05
1.92886e-05
1.8012e-05
1.63765e-05
1.43642e-05
1.21093e-05
9.89867e-06
8.06377e-06
6.67867e-06
5.74174e-06
5.22602e-06
5.09775e-06
5.35754e-06
6.13184e-06
7.85979e-06
1.13153e-05
1.3947e-05
6.3839e-06
2.29466e-06
2.13828e-07
1.58492e-07
2.99325e-06
7.76066e-06
1.7899e-05
3.1259e-05
3.81907e-05
3.9079e-05
3.69906e-05
3.37486e-05
3.04515e-05
2.76134e-05
2.53889e-05
2.37473e-05
2.25362e-05
2.15796e-05
2.07062e-05
1.97455e-05
1.85322e-05
1.69332e-05
1.49184e-05
1.26173e-05
1.03242e-05
8.39073e-06
6.91069e-06
5.89218e-06
5.3146e-06
5.14838e-06
5.39745e-06
6.19367e-06
7.98957e-06
1.15565e-05
1.41255e-05
6.4262e-06
2.31206e-06
2.15676e-07
1.626e-07
3.00939e-06
7.82702e-06
1.81089e-05
3.15059e-05
3.82606e-05
3.9e-05
3.68277e-05
3.35712e-05
3.03147e-05
2.75481e-05
2.54069e-05
2.38534e-05
2.27315e-05
2.18629e-05
2.10748e-05
2.01941e-05
1.90464e-05
1.74868e-05
1.5474e-05
1.31325e-05
1.07635e-05
8.73658e-06
7.16464e-06
6.06556e-06
5.42516e-06
5.21828e-06
5.45269e-06
6.26651e-06
8.12624e-06
1.18002e-05
1.4303e-05
6.4697e-06
2.3292e-06
2.17386e-07
1.66592e-07
3.02461e-06
7.89112e-06
1.83135e-05
3.1738e-05
3.83114e-05
3.89004e-05
3.66436e-05
3.33731e-05
3.01584e-05
2.74652e-05
2.54099e-05
2.39467e-05
2.29156e-05
2.21365e-05
2.14346e-05
2.06335e-05
1.95529e-05
1.80355e-05
1.60286e-05
1.36522e-05
1.12134e-05
9.09879e-06
7.43842e-06
6.26022e-06
5.55664e-06
5.3071e-06
5.52357e-06
6.35111e-06
8.27074e-06
1.2047e-05
1.44801e-05
6.51438e-06
2.3461e-06
2.18969e-07
1.70493e-07
3.03928e-06
7.9541e-06
1.85159e-05
3.19604e-05
3.83478e-05
3.87841e-05
3.64417e-05
3.31579e-05
2.99864e-05
2.73681e-05
2.54004e-05
2.40289e-05
2.30895e-05
2.24003e-05
2.1785e-05
2.10636e-05
2.00498e-05
1.85764e-05
1.65794e-05
1.41732e-05
1.16713e-05
9.47486e-06
7.72979e-06
6.47418e-06
5.70747e-06
5.41379e-06
5.60964e-06
6.44745e-06
8.42317e-06
1.2297e-05
1.46572e-05
6.56031e-06
2.36278e-06
2.20434e-07
1.74275e-07
3.05318e-06
8.01521e-06
1.87137e-05
3.21686e-05
3.83652e-05
3.86468e-05
3.62182e-05
3.29223e-05
2.9796e-05
2.72546e-05
2.5377e-05
2.40989e-05
2.32523e-05
2.26539e-05
2.21257e-05
2.14843e-05
2.05371e-05
1.91085e-05
1.71241e-05
1.46933e-05
1.21345e-05
9.86284e-06
8.03713e-06
6.70609e-06
5.87658e-06
5.53775e-06
5.71081e-06
6.55596e-06
8.5843e-06
1.25508e-05
1.4835e-05
6.60766e-06
2.37932e-06
2.21794e-07
1.77949e-07
3.06647e-06
8.07483e-06
1.89079e-05
3.2365e-05
3.83668e-05
3.84918e-05
3.59765e-05
3.26697e-05
2.95905e-05
2.71278e-05
2.53418e-05
2.4158e-05
2.34045e-05
2.28966e-05
2.2455e-05
2.18933e-05
2.10126e-05
1.96288e-05
1.76601e-05
1.52097e-05
1.26009e-05
1.02607e-05
8.35877e-06
6.95451e-06
6.06277e-06
5.6781e-06
5.82664e-06
6.67662e-06
8.75435e-06
1.28086e-05
1.5014e-05
6.65643e-06
2.39571e-06
2.23059e-07
1.81494e-07
3.07896e-06
8.13233e-06
1.90967e-05
3.25466e-05
3.83495e-05
3.83158e-05
3.57137e-05
3.23979e-05
2.93683e-05
2.69865e-05
2.52945e-05
2.42066e-05
2.35469e-05
2.31295e-05
2.2774e-05
2.2291e-05
2.14762e-05
2.01374e-05
1.81846e-05
1.57194e-05
1.30679e-05
1.06667e-05
8.69333e-06
7.21832e-06
6.26512e-06
5.83413e-06
5.95674e-06
6.80941e-06
8.93366e-06
1.30708e-05
1.51949e-05
6.7069e-06
2.41206e-06
2.24244e-07
1.84919e-07
3.09079e-06
8.18811e-06
1.92813e-05
3.27153e-05
3.83148e-05
3.81206e-05
3.54317e-05
3.2109e-05
2.91315e-05
2.68328e-05
2.52364e-05
2.42452e-05
2.36793e-05
2.3352e-05
2.30815e-05
2.26759e-05
2.19258e-05
2.0632e-05
1.86976e-05
1.62216e-05
1.35341e-05
1.10792e-05
9.03942e-06
7.49634e-06
6.48266e-06
6.00518e-06
6.10084e-06
6.95449e-06
9.12268e-06
1.3338e-05
1.53784e-05
6.75914e-06
2.4284e-06
2.25361e-07
1.88203e-07
3.10173e-06
8.2413e-06
1.94591e-05
3.28681e-05
3.8261e-05
3.79044e-05
3.51292e-05
3.18021e-05
2.88797e-05
2.66665e-05
2.51679e-05
2.42746e-05
2.38028e-05
2.35649e-05
2.33781e-05
2.3048e-05
2.23607e-05
2.11108e-05
1.91961e-05
1.67139e-05
1.39981e-05
1.14972e-05
9.39628e-06
7.78801e-06
6.71489e-06
6.19074e-06
6.25842e-06
7.11159e-06
9.32123e-06
1.36101e-05
1.55653e-05
6.8135e-06
2.44483e-06
2.26429e-07
1.91356e-07
3.11193e-06
8.2924e-06
1.96316e-05
3.30067e-05
3.81885e-05
3.76677e-05
3.48068e-05
3.14784e-05
2.86143e-05
2.6489e-05
2.50899e-05
2.42955e-05
2.39179e-05
2.37687e-05
2.36641e-05
2.34074e-05
2.27805e-05
2.1573e-05
1.96788e-05
1.71944e-05
1.4457e-05
1.19181e-05
9.76206e-06
8.09216e-06
6.96116e-06
6.39055e-06
6.42987e-06
7.28197e-06
9.53015e-06
1.38878e-05
1.57561e-05
6.87012e-06
2.46142e-06
2.27462e-07
1.94369e-07
3.12124e-06
8.3408e-06
1.9797e-05
3.31293e-05
3.80966e-05
3.74096e-05
3.44641e-05
3.11376e-05
2.83352e-05
2.63005e-05
2.50029e-05
2.43084e-05
2.4025e-05
2.39635e-05
2.39393e-05
2.37533e-05
2.31838e-05
2.20167e-05
2.01436e-05
1.76617e-05
1.49111e-05
1.23413e-05
1.01359e-05
8.40812e-06
7.22106e-06
6.60451e-06
6.61518e-06
7.46534e-06
9.74977e-06
1.41717e-05
1.5952e-05
6.92942e-06
2.47829e-06
2.28479e-07
1.97251e-07
3.12974e-06
8.38674e-06
1.99559e-05
3.32368e-05
3.79853e-05
3.71299e-05
3.41012e-05
3.07804e-05
2.80434e-05
2.6102e-05
2.4908e-05
2.43144e-05
2.41254e-05
2.41509e-05
2.42052e-05
2.40869e-05
2.35715e-05
2.2442e-05
2.05899e-05
1.81148e-05
1.53591e-05
1.27653e-05
1.05162e-05
8.73446e-06
7.49359e-06
6.83197e-06
6.81401e-06
7.66164e-06
9.98076e-06
1.44625e-05
1.61531e-05
6.9914e-06
2.49549e-06
2.29491e-07
2.00002e-07
3.13739e-06
8.43005e-06
2.01081e-05
3.33285e-05
3.78538e-05
3.68281e-05
3.37177e-05
3.04069e-05
2.77392e-05
2.58938e-05
2.48053e-05
2.43138e-05
2.42193e-05
2.4331e-05
2.44618e-05
2.44082e-05
2.3943e-05
2.28482e-05
2.10168e-05
1.85525e-05
1.57999e-05
1.31886e-05
1.09016e-05
9.07032e-06
7.77832e-06
7.07285e-06
7.02647e-06
7.87108e-06
1.02234e-05
1.47609e-05
1.63609e-05
7.05648e-06
2.51312e-06
2.30515e-07
2.02632e-07
3.1442e-06
8.47076e-06
2.02536e-05
3.3405e-05
3.77025e-05
3.65042e-05
3.33142e-05
3.00178e-05
2.74235e-05
2.5677e-05
2.4696e-05
2.43077e-05
2.43081e-05
2.45053e-05
2.47107e-05
2.47186e-05
2.42996e-05
2.32356e-05
2.14236e-05
1.89732e-05
1.62311e-05
1.36088e-05
1.12898e-05
9.41379e-06
8.0739e-06
7.32641e-06
7.25245e-06
8.09426e-06
1.0479e-05
1.50686e-05
1.65756e-05
7.12453e-06
2.5312e-06
2.31561e-07
2.05143e-07
3.15021e-06
8.50893e-06
2.03925e-05
3.34656e-05
3.75301e-05
3.61572e-05
3.28905e-05
2.96134e-05
2.70967e-05
2.54518e-05
2.45802e-05
2.42962e-05
2.43919e-05
2.4674e-05
2.49523e-05
2.50185e-05
2.46414e-05
2.36041e-05
2.18094e-05
1.93751e-05
1.66497e-05
1.40231e-05
1.16788e-05
9.76367e-06
8.37985e-06
7.59257e-06
7.49199e-06
8.33129e-06
1.07478e-05
1.53857e-05
1.67974e-05
7.1959e-06
2.54985e-06
2.32646e-07
2.07551e-07
3.1554e-06
8.5446e-06
2.05251e-05
3.35106e-05
3.73366e-05
3.57872e-05
3.2447e-05
2.91948e-05
2.67599e-05
2.52192e-05
2.44588e-05
2.42802e-05
2.44715e-05
2.48382e-05
2.51878e-05
2.53093e-05
2.49697e-05
2.39547e-05
2.21747e-05
1.97573e-05
1.70535e-05
1.44283e-05
1.2065e-05
1.01165e-05
8.69316e-06
7.86932e-06
7.74403e-06
8.58192e-06
1.10307e-05
1.57135e-05
1.70254e-05
7.27016e-06
2.56904e-06
2.33772e-07
2.09858e-07
3.1598e-06
8.57778e-06
2.0651e-05
3.35389e-05
3.71208e-05
3.53937e-05
3.19843e-05
2.87628e-05
2.64142e-05
2.49803e-05
2.43325e-05
2.42599e-05
2.45471e-05
2.49979e-05
2.54173e-05
2.55912e-05
2.5285e-05
2.42877e-05
2.25193e-05
2.01188e-05
1.74403e-05
1.48218e-05
1.24458e-05
1.04703e-05
9.01295e-06
8.15621e-06
8.00875e-06
8.84706e-06
1.1329e-05
1.60532e-05
1.72597e-05
7.34749e-06
2.58887e-06
2.34948e-07
2.12083e-07
3.16349e-06
8.60881e-06
2.07713e-05
3.35514e-05
3.68829e-05
3.4977e-05
3.15032e-05
2.83188e-05
2.60609e-05
2.47362e-05
2.42023e-05
2.42363e-05
2.46194e-05
2.51538e-05
2.56418e-05
2.58655e-05
2.5589e-05
2.46051e-05
2.28451e-05
2.04612e-05
1.78104e-05
1.52027e-05
1.28194e-05
1.08226e-05
9.33607e-06
8.45038e-06
8.28431e-06
9.12617e-06
1.16435e-05
1.64061e-05
1.74999e-05
7.4277e-06
2.60937e-06
2.36174e-07
2.14226e-07
3.16642e-06
8.63742e-06
2.0885e-05
3.35469e-05
3.66223e-05
3.45373e-05
3.10049e-05
2.78641e-05
2.57014e-05
2.44885e-05
2.40691e-05
2.42093e-05
2.46878e-05
2.53052e-05
2.58603e-05
2.61315e-05
2.58813e-05
2.4907e-05
2.31526e-05
2.07845e-05
1.81631e-05
1.55697e-05
1.31839e-05
1.11714e-05
9.66149e-06
8.75201e-06
8.57102e-06
9.41976e-06
1.19746e-05
1.67725e-05
1.77452e-05
7.5106e-06
2.63053e-06
2.37454e-07
2.16307e-07
3.16872e-06
8.66422e-06
2.09937e-05
3.35265e-05
3.63396e-05
3.40757e-05
3.04908e-05
2.74004e-05
2.53374e-05
2.42404e-05
2.39352e-05
2.41805e-05
2.47536e-05
2.5453e-05
2.60741e-05
2.63907e-05
2.61635e-05
2.51955e-05
2.34442e-05
2.10915e-05
1.85002e-05
1.59233e-05
1.35389e-05
1.15155e-05
9.98716e-06
9.05833e-06
8.86649e-06
9.72671e-06
1.23228e-05
1.71533e-05
1.79953e-05
7.59612e-06
2.65241e-06
2.38787e-07
2.18324e-07
3.17034e-06
8.68888e-06
2.10964e-05
3.34895e-05
3.60347e-05
3.35931e-05
2.99625e-05
2.69286e-05
2.4969e-05
2.3991e-05
2.37994e-05
2.41486e-05
2.48153e-05
2.55962e-05
2.6282e-05
2.66419e-05
2.64352e-05
2.54708e-05
2.37211e-05
2.13839e-05
1.88227e-05
1.62638e-05
1.3884e-05
1.18541e-05
1.03122e-05
9.36906e-06
9.17139e-06
1.00473e-05
1.26877e-05
1.75475e-05
1.82491e-05
7.68383e-06
2.67493e-06
2.40173e-07
2.20289e-07
3.17135e-06
8.71179e-06
2.11943e-05
3.34365e-05
3.57079e-05
3.30904e-05
2.94218e-05
2.64509e-05
2.45973e-05
2.37384e-05
2.36604e-05
2.41137e-05
2.48741e-05
2.57358e-05
2.64851e-05
2.68863e-05
2.66975e-05
2.57346e-05
2.39859e-05
2.16652e-05
1.9133e-05
1.65924e-05
1.42194e-05
1.21867e-05
1.06357e-05
9.68279e-06
9.4837e-06
1.03798e-05
1.30693e-05
1.79559e-05
1.8506e-05
7.7735e-06
2.69811e-06
2.41607e-07
2.22203e-07
3.17171e-06
8.73274e-06
2.12867e-05
3.33671e-05
3.53592e-05
3.25682e-05
2.88698e-05
2.59686e-05
2.42242e-05
2.34855e-05
2.35208e-05
2.40772e-05
2.49302e-05
2.58715e-05
2.66825e-05
2.71228e-05
2.69498e-05
2.59874e-05
2.42407e-05
2.1939e-05
1.94338e-05
1.69106e-05
1.45457e-05
1.25131e-05
1.09569e-05
9.99878e-06
9.80346e-06
1.07255e-05
1.34669e-05
1.83768e-05
1.87645e-05
7.86464e-06
2.72184e-06
2.43088e-07
2.24075e-07
3.1715e-06
8.75209e-06
2.13746e-05
3.3282e-05
3.49892e-05
3.2028e-05
2.83084e-05
2.54832e-05
2.38507e-05
2.32327e-05
2.3381e-05
2.40401e-05
2.49849e-05
2.60044e-05
2.68751e-05
2.7352e-05
2.71925e-05
2.62299e-05
2.4487e-05
2.22076e-05
1.97269e-05
1.722e-05
1.48639e-05
1.28338e-05
1.12759e-05
1.03166e-05
1.01297e-05
1.10827e-05
1.38802e-05
1.88097e-05
1.90244e-05
7.9572e-06
2.74615e-06
2.44619e-07
2.25904e-07
3.17069e-06
8.76966e-06
2.14576e-05
3.31806e-05
3.45975e-05
3.14698e-05
2.77381e-05
2.49955e-05
2.34775e-05
2.29807e-05
2.32417e-05
2.40027e-05
2.50384e-05
2.61347e-05
2.70633e-05
2.75744e-05
2.7426e-05
2.64624e-05
2.47249e-05
2.24709e-05
2.00132e-05
1.75216e-05
1.51748e-05
1.31491e-05
1.15927e-05
1.06362e-05
1.04623e-05
1.14517e-05
1.43088e-05
1.9253e-05
1.92845e-05
8.05063e-06
2.77093e-06
2.46195e-07
2.27697e-07
3.16936e-06
8.78578e-06
2.15364e-05
3.30635e-05
3.41843e-05
3.08946e-05
2.71604e-05
2.45071e-05
2.31063e-05
2.27312e-05
2.31047e-05
2.3967e-05
2.50925e-05
2.62641e-05
2.7248e-05
2.77901e-05
2.76501e-05
2.66839e-05
2.49529e-05
2.27262e-05
2.02911e-05
1.7815e-05
1.54786e-05
1.34594e-05
1.19071e-05
1.0957e-05
1.08006e-05
1.18318e-05
1.4753e-05
1.97076e-05
1.95446e-05
8.14472e-06
2.79613e-06
2.47818e-07
2.29453e-07
3.16746e-06
8.80032e-06
2.16109e-05
3.29302e-05
3.37491e-05
3.03027e-05
2.6576e-05
2.40182e-05
2.27368e-05
2.2484e-05
2.29697e-05
2.3933e-05
2.51475e-05
2.63929e-05
2.74299e-05
2.80002e-05
2.78656e-05
2.68952e-05
2.51706e-05
2.29722e-05
2.05598e-05
1.81e-05
1.57757e-05
1.37653e-05
1.222e-05
1.12796e-05
1.11447e-05
1.22225e-05
1.52109e-05
2.01708e-05
1.98039e-05
8.2392e-06
2.82166e-06
2.49486e-07
2.3118e-07
3.16516e-06
8.81379e-06
2.1682e-05
3.27807e-05
3.32923e-05
2.96956e-05
2.5987e-05
2.35308e-05
2.23711e-05
2.22407e-05
2.28384e-05
2.3902e-05
2.52047e-05
2.65224e-05
2.76101e-05
2.82053e-05
2.8073e-05
2.70965e-05
2.53781e-05
2.32077e-05
2.08176e-05
1.83748e-05
1.60644e-05
1.40655e-05
1.25303e-05
1.16032e-05
1.14944e-05
1.26243e-05
1.56835e-05
2.06434e-05
2.0061e-05
8.3336e-06
2.84753e-06
2.51193e-07
2.32882e-07
3.16241e-06
8.82613e-06
2.17494e-05
3.26138e-05
3.2813e-05
2.90739e-05
2.5394e-05
2.30453e-05
2.20088e-05
2.20007e-05
2.27098e-05
2.38733e-05
2.52637e-05
2.66526e-05
2.77891e-05
2.84066e-05
2.8274e-05
2.72901e-05
2.5578e-05
2.34343e-05
2.10655e-05
1.86397e-05
1.63447e-05
1.43596e-05
1.28375e-05
1.19272e-05
1.18485e-05
1.30357e-05
1.61685e-05
2.11222e-05
2.03139e-05
8.42674e-06
2.8734e-06
2.5293e-07
2.34562e-07
3.1593e-06
8.83757e-06
2.18134e-05
3.24297e-05
3.23125e-05
2.84401e-05
2.48e-05
2.25642e-05
2.16522e-05
2.17656e-05
2.25849e-05
2.38474e-05
2.53245e-05
2.67833e-05
2.79666e-05
2.86039e-05
2.84692e-05
2.74775e-05
2.57726e-05
2.36531e-05
2.13039e-05
1.88949e-05
1.66164e-05
1.46476e-05
1.31422e-05
1.22528e-05
1.22093e-05
1.34585e-05
1.66671e-05
2.16077e-05
2.05638e-05
8.51904e-06
2.89934e-06
2.54699e-07
2.36215e-07
3.15576e-06
8.84781e-06
2.18728e-05
3.22265e-05
3.17902e-05
2.77949e-05
2.42055e-05
2.20876e-05
2.13018e-05
2.15353e-05
2.24629e-05
2.38231e-05
2.53863e-05
2.69144e-05
2.8143e-05
2.87985e-05
2.86605e-05
2.76619e-05
2.59662e-05
2.38673e-05
2.15346e-05
1.91414e-05
1.688e-05
1.4929e-05
1.34426e-05
1.25772e-05
1.25727e-05
1.38899e-05
1.71766e-05
2.20969e-05
2.08089e-05
8.60982e-06
2.92538e-06
2.56498e-07
2.37831e-07
3.15175e-06
8.85649e-06
2.19265e-05
3.2004e-05
3.12475e-05
2.71411e-05
2.36126e-05
2.16169e-05
2.09611e-05
2.13111e-05
2.23433e-05
2.37992e-05
2.54477e-05
2.70441e-05
2.8317e-05
2.89893e-05
2.88477e-05
2.7844e-05
2.616e-05
2.40773e-05
2.17577e-05
1.9379e-05
1.7135e-05
1.52038e-05
1.37397e-05
1.29033e-05
1.29445e-05
1.43315e-05
1.76975e-05
2.259e-05
2.10498e-05
8.69931e-06
2.95155e-06
2.58335e-07
2.39393e-07
3.14708e-06
8.86294e-06