/*--------------------------------*- C++ -*----------------------------------*\
| =========                 |                                                 |
| \\      /  F ield         | OpenFOAM: The Open Source CFD Toolbox           |
|  \\    /   O peration     | Version:  v1906                                 |
|   \\  /    A nd           | Web:      www.OpenFOAM.com                      |
|    \\/     M anipulation  |                                                 |
\*---------------------------------------------------------------------------*/
FoamFile
{
    version     2.0;
    format      ascii;
    class       volScalarField;
    location    "76";
    object      omega;
}
// * * * * * * * * * * * * * * * * * * * * * * * * * * * * * * * * * * * * * //

dimensions      [0 0 -1 0 0 0 0];


internalField   nonuniform List<scalar> 
78750
(
352.479
13.5702
13.599
13.6264
13.6524
13.6765
13.6986
13.7187
13.7367
13.7526
13.7665
13.7783
13.7882
13.7961
13.8022
13.8064
13.8088
13.8094
13.8083
13.8056
13.8013
13.7954
13.7878
13.7786
13.7676
13.7548
13.7402
13.7237
13.7051
13.6849
13.664
13.6457
13.6369
13.6476
356.996
517.207
4.16268
4.26179
4.3496
4.42537
4.48998
4.54454
4.58979
4.62646
4.65533
4.67715
4.69266
4.70251
4.70733
4.70778
4.70446
4.69782
4.68827
4.6762
4.66194
4.64578
4.62782
4.60821
4.587
4.56413
4.53944
4.51277
4.4839
4.45198
4.41545
4.37215
4.31995
4.26198
4.21115
524.202
517.215
4.21608
4.35439
4.47411
4.57316
4.6523
4.71426
4.7622
4.79866
4.82542
4.84378
4.85474
4.85918
4.85788
4.85156
4.84093
4.82665
4.80941
4.78985
4.76863
4.74634
4.72346
4.70032
4.67701
4.65339
4.62902
4.6033
4.57535
4.54389
4.50683
4.46112
4.40462
4.34255
4.28566
524.579
517.231
4.27365
4.44511
4.58752
4.69907
4.783
4.84509
4.89056
4.92303
4.94481
4.95742
4.96196
4.95931
4.95023
4.93543
4.91566
4.89176
4.86463
4.8353
4.8049
4.77463
4.74567
4.71888
4.69456
4.6724
4.65152
4.6306
4.60801
4.58164
4.54875
4.50605
4.45228
4.39432
4.33864
524.938
517.248
4.32597
4.52445
4.68333
4.80166
4.88606
4.94566
4.98755
5.01611
5.03364
5.04153
5.04072
5.03184
5.01543
4.99214
4.96279
4.92839
4.89018
4.84963
4.80845
4.76861
4.73217
4.70076
4.67501
4.65457
4.63823
4.62403
4.60948
4.59151
4.56651
4.53085
4.48375
4.43169
4.37772
525.275
517.266
4.37407
4.59465
4.76624
4.88926
4.97387
5.03216
5.07254
5.09921
5.11423
5.11883
5.11362
5.09897
5.07532
5.04334
5.00401
4.95867
4.90898
4.85692
4.80484
4.75554
4.71192
4.67594
4.64811
4.62798
4.61425
4.60485
4.59689
4.58668
4.56993
4.54249
4.5034
4.45737
4.4052
525.593
517.283
4.4152
4.65358
4.83545
4.96259
5.04814
5.10624
5.14576
5.17101
5.18406
5.18585
5.1767
5.15679
5.12652
5.08666
5.03842
4.98343
4.92373
4.86175
4.80045
4.74343
4.69426
4.65466
4.62477
4.60406
4.59139
4.58484
4.58154
4.57757
4.56809
4.54835
4.51673
4.47597
4.42564
525.9
517.299
4.45141
4.7055
4.89681
5.02818
5.11517
5.17361
5.2129
5.23742
5.24907
5.24856
5.23602
5.21158
5.17567
5.12922
5.07369
5.01097
4.94342
4.87385
4.80575
4.74341
4.69043
4.64772
4.61507
4.59202
4.5778
4.57104
4.56934
4.56897
4.56483
4.55149
4.52626
4.49025
4.44255
526.182
517.313
4.48439
4.75265
4.95264
5.08823
5.17695
5.23604
5.2753
5.29915
5.30939
5.30658
5.29077
5.26205
5.22095
5.16857
5.10659
5.03718
4.96297
4.88719
4.81391
4.74818
4.69322
4.64895
4.61468
4.58979
4.5737
4.56551
4.56352
4.56455
4.56367
4.55501
4.53489
4.50313
4.45879
526.442
517.326
4.51521
4.79659
5.00462
5.14415
5.23456
5.2943
5.33359
5.35687
5.36588
5.36104
5.34231
5.30979
5.2641
5.20652
5.13895
5.06379
4.98397
4.90305
4.82569
4.7576
4.70139
4.65621
4.62092
4.59465
4.57683
4.56688
4.56365
4.56466
4.56542
4.55996
4.54385
4.51595
4.47535
526.679
517.34
4.54536
4.83919
5.05472
5.19787
5.2898
5.35007
5.38926
5.41181
5.41939
5.41232
5.39052
5.3541
5.3038
5.24109
5.16806
5.0874
5.00233
4.91679
4.83605
4.76652
4.71009
4.66516
4.63007
4.60361
4.58506
4.57393
4.56947
4.56983
4.57113
4.56762
4.55446
4.52982
4.49277
526.899
517.353
4.57483
4.88028
5.1026
5.24892
5.34215
5.40289
5.44199
5.4639
5.47018
5.46106
5.4364
5.39636
5.34178
5.27428
5.19617
5.11033
5.02027
4.93031
4.8463
4.7753
4.71871
4.67432
4.63999
4.6141
4.59569
4.58419
4.57904
4.57882
4.58021
4.57786
4.56687
4.54489
4.51086
527.105
517.367
4.60394
4.92044
5.14906
5.2982
5.39254
5.45362
5.49252
5.51367
5.51854
5.50727
5.47969
5.43602
5.37722
5.30506
5.22202
5.13121
5.0364
4.94222
4.85514
4.78293
4.72645
4.68298
4.64993
4.62531
4.60784
4.5968
4.59165
4.5912
4.59258
4.59091
4.58138
4.56138
4.52956
527.3
517.382
4.63287
4.9598
5.19416
5.34576
5.44106
5.50247
5.54123
5.56172
5.5653
5.55205
5.52177
5.47473
5.412
5.33549
5.24781
5.15227
5.05284
4.95448
4.86414
4.79035
4.73373
4.6911
4.65943
4.63639
4.62036
4.61041
4.60591
4.60575
4.60734
4.60617
4.59768
4.57907
4.54865
527.484
517.396
4.66104
4.99777
5.23744
5.3913
5.48749
5.54919
5.5878
5.60763
5.60996
5.59477
5.56189
5.51165
5.44522
5.36461
5.27259
5.17259
5.06876
4.96635
4.87277
4.79731
4.74048
4.69872
4.66859
4.64737
4.6332
4.62488
4.62161
4.62221
4.62423
4.62346
4.61562
4.59784
4.56802
527.662
517.411
4.68929
5.03542
5.28006
5.43595
5.53295
5.59498
5.6335
5.65277
5.65396
5.63702
5.60176
5.54858
5.47874
5.39437
5.2983
5.19407
5.08598
4.97951
4.88244
4.80479
4.7473
4.70609
4.67736
4.65803
4.6459
4.63955
4.63795
4.63978
4.64257
4.6423
4.63491
4.61752
4.58763
527.833
517.426
4.7165
5.07139
5.32064
5.47845
5.57628
5.63867
5.67717
5.69595
5.6961
5.67753
5.64008
5.58421
5.51127
5.42345
5.32366
5.21548
5.10332
4.9929
4.89229
4.81222
4.75385
4.71305
4.68572
4.6684
4.65856
4.6545
4.65494
4.65837
4.66219
4.66244
4.6553
4.63792
4.60735
527.998
517.441
4.74394
5.1074
5.36108
5.5207
5.61934
5.68214
5.72067
5.73904
5.73827
5.71822
5.67877
5.62047
5.54473
5.45379
5.35058
5.23868
5.12261
5.00819
4.90373
4.82057
4.7607
4.71985
4.69362
4.67822
4.67078
4.66926
4.67208
4.67745
4.68258
4.68349
4.67652
4.65886
4.62717
528.158
517.456
4.77026
5.14167
5.39949
5.56089
5.66041
5.7237
5.76234
5.78037
5.77876
5.75737
5.71613
5.65565
5.57742
5.48369
5.37739
5.2621
5.14236
5.02405
4.91572
4.82914
4.76743
4.72626
4.701
4.68753
4.68263
4.6839
4.68943
4.69708
4.70378
4.70543
4.69855
4.68036
4.64708
528.314
517.471
4.79688
5.17617
5.43809
5.60128
5.70173
5.76555
5.80433
5.82205
5.81966
5.79703
5.75415
5.69173
5.61129
5.51511
5.40605
5.28767
5.16445
5.04224
4.9297
4.83898
4.77468
4.73257
4.70784
4.6961
4.69373
4.69796
4.70645
4.71667
4.72518
4.72773
4.72092
4.70205
4.66693
528.465
517.486
4.82236
5.20897
5.47481
5.63987
5.74138
5.80582
5.84478
5.86219
5.85904
5.83525
5.7909
5.72677
5.64443
5.54612
5.43467
5.31356
5.18716
5.06125
4.94451
4.84937
4.78208
4.73863
4.71416
4.70402
4.70423
4.71159
4.72333
4.73641
4.74699
4.75058
4.74385
4.72413
4.68683
528.613
517.502
4.84811
5.24201
5.51184
5.67896
5.78175
5.84687
5.88589
5.90288
5.89891
5.87401
5.82834
5.76273
5.67877
5.57866
5.46516
5.34162
5.21226
5.08271
4.96155
4.86135
4.7903
4.74481
4.72005
4.71117
4.71384
4.7244
4.73955
4.75575
4.76866
4.77346
4.76687
4.74625
4.7066
528.757
517.517
4.87266
5.27328
5.54701
5.71649
5.8211
5.88701
5.92578
5.94209
5.93725
5.91131
5.86449
5.79765
5.71238
5.61082
5.49565
5.37008
5.23812
5.1052
4.97974
4.8743
4.7991
4.7511
4.72563
4.71774
4.72278
4.7366
4.75536
4.77489
4.7903
4.79644
4.79
4.76842
4.72624
528.899
517.533
4.89738
5.30458
5.58217
5.75425
5.86023
5.92695
5.96594
5.98151
5.97582
5.94896
5.90118
5.83335
5.74705
5.64437
5.52787
5.4006
5.26633
5.13022
5.00042
4.88933
4.80925
4.75797
4.73113
4.72375
4.7309
4.74796
4.77043
4.79352
4.81171
4.81941
4.81326
4.79067
4.74575
529.038
517.549
4.92092
5.33409
5.6152
5.78968
5.89702
5.96463
6.00404
6.01938
6.01286
5.98518
5.93661
5.86803
5.781
5.67754
5.56011
5.43156
5.29544
5.15654
5.02269
4.90605
4.8207
4.7656
4.73682
4.72952
4.73851
4.7587
4.78493
4.81166
4.83269
4.84195
4.83606
4.81254
4.76489
529.174
517.565
4.94462
5.36371
5.64841
5.82499
5.93354
6.00203
6.04194
6.05724
6.04991
6.02153
5.97235
5.90325
5.81575
5.71182
5.59379
5.46432
5.32669
5.18534
5.04769
4.92551
4.83428
4.77462
4.74313
4.73525
4.74567
4.7688
4.79879
4.82931
4.85341
4.86453
4.85936
4.83446
4.7838
529.309
517.58
4.96706
5.39154
5.67987
5.85804
5.96771
6.03713
6.07767
6.09316
6.08535
6.05646
6.00685
5.93744
5.84974
5.74566
5.62741
5.49746
5.35882
5.21553
5.07457
4.94728
4.84997
4.78527
4.75046
4.74139
4.75276
4.77854
4.81216
4.84643
4.8736
4.88664
4.88244
4.85619
4.80232
529.442
517.596
4.98946
5.41906
5.7108
5.89058
6.0014
6.07181
6.11307
6.12893
6.12104
6.09147
6.04144
5.97186
5.88418
5.78022
5.66205
5.53197
5.3927
5.24789
5.10403
4.97195
4.86828
4.79801
4.7592
4.74825
4.75999
4.78805
4.82513
4.86315
4.89359
4.90909
4.90565
4.87814
4.82062
529.573
517.612
5.01074
5.44494
5.73977
5.92101
6.03293
6.10431
6.14631
6.16259
6.15473
6.12473
6.07458
6.00513
5.91776
5.81423
5.6965
5.56669
5.42725
5.28145
5.13525
4.99891
4.889
4.81296
4.76968
4.75625
4.76778
4.79768
4.83796
4.87966
4.91348
4.93165
4.92894
4.90013
4.83866
529.703
517.628
5.03197
5.47056
5.76833
5.95093
6.06391
6.13627
6.17907
6.19585
6.18811
6.15779
6.10761
6.0384
5.95149
5.84859
5.73154
5.6023
5.46306
5.31669
5.16862
5.02847
4.91245
4.83046
4.78225
4.76569
4.77639
4.80761
4.85076
4.89599
4.93318
4.95411
4.95214
4.92198
4.85639
529.831
517.644
5.0522
5.49468
5.79505
5.97886
6.09286
6.1662
6.20981
6.22718
6.21972
6.18927
6.13926
6.07048
5.98426
5.88223
5.76615
5.63783
5.4992
5.35276
5.20341
5.06005
4.93837
4.85053
4.79714
4.77697
4.78622
4.81823
4.86389
4.91248
4.953
4.97661
4.97529
4.94366
4.87373
529.957
517.66
5.07239
5.51859
5.82134
6.00621
6.12115
6.19543
6.23988
6.25787
6.25078
6.22037
6.17055
6.10225
6.01681
5.9158
5.80089
5.67373
5.53604
5.38994
5.23981
5.0938
4.96691
4.87336
4.8146
4.79032
4.7975
4.8297
4.87738
4.92895
4.97253
4.99882
4.99817
4.96503
4.89063
530.081
517.676
5.09172
5.54127
5.84597
6.03171
6.14752
6.22273
6.26803
6.28672
6.28015
6.25012
6.20047
6.13275
6.04825
5.94846
5.83495
5.70924
5.57284
5.42752
5.27716
5.12917
4.99776
4.89887
4.83475
4.80601
4.81055
4.84232
4.8915
4.94578
4.99247
5.02095
5.02076
4.986
4.90702
530.203
517.692
5.11096
5.56398
5.87006
6.05648
6.17308
6.24919
6.29531
6.31466
6.3086
6.27892
6.22957
6.16256
6.07913
5.9807
5.86876
5.74469
5.60983
5.46565
5.31553
5.16618
5.03093
4.92711
4.8577
4.82424
4.82558
4.85629
4.90644
4.96307
5.0127
5.043
5.04304
5.00652
4.92286
530.323
517.707
5.12904
5.58509
5.89239
6.07947
6.19685
6.27386
6.32083
6.34091
6.33542
6.30623
6.25731
6.19115
6.10891
6.01197
5.90175
5.77952
5.64644
5.50375
5.35437
5.20432
5.06606
4.95788
4.88343
4.84511
4.8428
4.87183
4.92236
4.9809
5.03316
5.06495
5.06499
5.02657
4.93815
530.441
517.723
5.14677
5.60571
5.9141
6.10167
6.21973
6.29755
6.34532
6.36609
6.36118
6.33252
6.28412
6.21888
6.13793
6.0426
5.93419
5.81393
5.68283
5.54188
5.39363
5.24348
5.10301
4.99106
4.91192
4.8687
4.86235
4.88909
4.93939
4.99931
5.05377
5.08673
5.08656
5.04612
4.95288
530.556
517.738
5.16355
5.62499
5.93417
6.12216
6.24091
6.31959
6.3682
6.3897
6.38541
6.35731
6.30956
6.24541
6.16587
6.07224
5.96578
5.84761
5.71865
5.57968
5.43293
5.28323
5.14135
5.02631
4.94295
4.89496
4.88431
4.90822
4.95763
5.01835
5.07452
5.10831
5.10773
5.06516
4.96706
530.668
517.753
5.17995
5.64362
5.95344
6.14175
6.26112
6.3406
6.39001
6.41223
6.40859
6.38112
6.33404
6.27097
6.19293
6.1011
5.99667
5.8807
5.75399
5.61717
5.4722
5.32341
5.18084
5.06337
4.97631
4.92378
4.90866
4.92926
4.97715
5.03803
5.0954
5.12967
5.12848
5.08367
4.98069
530.778
517.767
5.19537
5.66091
5.97118
6.15975
6.27972
6.36
6.41023
6.4332
6.43025
6.40349
6.35725
6.29539
6.21889
6.12893
6.02663
5.91293
5.78859
5.65409
5.51114
5.36367
5.22104
5.10183
5.01166
4.95493
4.93533
4.95224
4.99801
5.05844
5.11644
5.15081
5.14879
5.10165
4.9938
530.886
517.782
5.21031
5.67748
5.98804
6.17678
6.29727
6.37831
6.42932
6.45303
6.45077
6.42475
6.37941
6.31884
6.24397
6.15591
6.05576
5.94444
5.82253
5.69045
5.54971
5.40387
5.26172
5.1414
5.04871
4.98818
4.96418
4.97711
5.02023
5.07957
5.13765
5.17172
5.16866
5.1191
5.0064
530.991
517.796
5.22434
5.69281
6.00349
6.19233
6.31333
6.3951
6.4469
6.47135
6.46981
6.44459
6.40026
6.34107
6.2679
6.18183
6.08389
5.97497
5.85561
5.72606
5.5877
5.44378
5.30258
5.18177
5.08715
5.02328
4.99504
5.00382
5.04381
5.10148
5.15906
5.19244
5.18811
5.13603
5.01851
531.094
517.81
5.23773
5.70729
6.01797
6.20683
6.32828
6.41076
6.4633
6.48847
6.48765
6.46326
6.42001
6.36225
6.29084
6.2068
6.11113
6.00463
5.88784
5.76092
5.62506
5.48329
5.34346
5.22274
5.12675
5.05998
5.02774
5.03227
5.06874
5.12418
5.1807
5.21297
5.20714
5.15247
5.03015
531.194
517.823
5.25031
5.72067
6.03118
6.21999
6.34185
6.42499
6.47827
6.50415
6.50407
6.48055
6.43845
6.3822
6.31261
6.23066
6.1373
6.03329
5.91909
5.79486
5.66164
5.52223
5.38413
5.26405
5.16724
5.09805
5.06208
5.06233
5.09497
5.14767
5.20259
5.23336
5.22582
5.16844
5.04136
531.293
517.836
5.26221
5.73317
6.04338
6.23207
6.35429
6.43806
6.49203
6.51861
6.51927
6.49664
6.45576
6.40106
6.33333
6.2535
6.16247
6.06096
5.9494
5.82787
5.6974
5.56052
5.42448
5.30555
5.20844
5.13728
5.09787
5.09389
5.12244
5.17195
5.22476
5.25365
5.24415
5.18398
5.05216
531.39
517.849
5.27333
5.74462
6.05439
6.2429
6.36543
6.4498
6.50445
6.53172
6.53311
6.51142
6.47183
6.41874
6.3529
6.27522
6.18655
6.08758
5.97868
5.85989
5.73217
5.59803
5.46436
5.34706
5.25013
5.17745
5.13493
5.1268
5.15107
5.19698
5.24723
5.27386
5.2622
5.19914
5.06262
531.485
517.861
5.28377
5.75517
6.06439
6.25264
6.37544
6.46037
6.51567
6.54361
6.54574
6.525
6.48675
6.43531
6.3714
6.29588
6.20959
6.11315
6.00693
5.89093
5.76606
5.63474
5.50372
5.38847
5.29216
5.2184
5.17308
5.16093
5.18081
5.22279
5.27002
5.29405
5.28001
5.21395
5.07276
531.579
517.872
5.29343
5.76472
6.07326
6.2612
6.38423
6.46969
6.52562
6.55422
6.55709
6.53734
6.5005
6.45075
6.38879
6.31545
6.23154
6.13765
6.03412
5.92092
5.79896
5.67061
5.54251
5.4297
5.33443
5.25998
5.21219
5.19616
5.21154
5.2493
5.29312
5.31424
5.29764
5.2285
5.08266
531.671
517.884
5.3024
5.77339
6.08114
6.26871
6.39192
6.47788
6.53441
6.56364
6.56726
6.54852
6.51314
6.46511
6.40512
6.33397
6.25244
6.16109
6.06024
5.94986
5.83085
5.70556
5.5806
5.47058
5.37674
5.30202
5.25211
5.23239
5.24326
5.27665
5.31661
5.3345
5.31513
5.24282
5.09235
531.761
517.894
5.31065
5.78113
6.08798
6.27511
6.39847
6.48489
6.542
6.57186
6.57623
6.55853
6.52466
6.47839
6.42039
6.35143
6.27227
6.18345
6.08527
5.97772
5.86171
5.73962
5.61807
5.51111
5.41902
5.34439
5.29271
5.26952
5.27592
5.30478
5.34053
5.35488
5.33256
5.257
5.10191
531.85
517.905
5.31823
5.78802
6.09386
6.28051
6.40397
6.49082
6.54847
6.57895
6.58406
6.56743
6.53513
6.49066
6.43465
6.36789
6.29108
6.20477
6.10926
6.00453
5.89156
5.7728
5.65495
5.55124
5.46117
5.38697
5.33384
5.30744
5.30943
5.33363
5.36488
5.37545
5.34999
5.27109
5.11139
531.938
517.914
5.32517
5.79407
6.0988
6.2849
6.40842
6.49566
6.55384
6.5849
6.59077
6.57524
6.54456
6.50191
6.44792
6.38334
6.30887
6.22505
6.13217
6.03028
5.92038
5.80508
5.69122
5.59092
5.5031
5.42962
5.37539
5.34604
5.34374
5.36318
5.3897
5.39625
5.36751
5.28517
5.12087
532.024
517.924
5.33149
5.79934
6.10286
6.28835
6.41188
6.49948
6.55815
6.58979
6.59641
6.582
6.55299
6.5122
6.46024
6.39784
6.32569
6.24433
6.15407
6.05499
5.9482
5.83645
5.72682
5.63008
5.54471
5.47223
5.41722
5.38522
5.37878
5.39343
5.41504
5.41737
5.38518
5.29932
5.13038
532.108
517.933
5.33722
5.80384
6.10604
6.29086
6.41437
6.50228
6.56142
6.59362
6.60099
6.58772
6.56043
6.52153
6.47161
6.41138
6.34153
6.26259
6.17491
6.07861
5.97493
5.86681
5.76159
5.66855
5.58585
5.51468
5.45925
5.42491
5.4145
5.42437
5.44093
5.43887
5.40311
5.31363
5.14001
532.192
517.942
5.34241
5.80763
6.10842
6.29251
6.41593
6.50413
6.5637
6.59644
6.60457
6.59248
6.56696
6.52997
6.48209
6.42403
6.35646
6.27992
6.19476
6.10121
6.00061
5.89615
5.79545
5.70621
5.62635
5.55673
5.50118
5.46486
5.45072
5.45585
5.46732
5.46077
5.42132
5.32814
5.14979
532.274
517.95
5.34708
5.81072
6.10998
6.29328
6.41658
6.50502
6.565
6.59826
6.60715
6.59626
6.57255
6.53749
6.49167
6.43577
6.37045
6.29627
6.21361
6.12276
6.02522
5.92442
5.82831
5.74295
5.66607
5.59827
5.54296
5.505
5.48741
5.48793
5.49429
5.48315
5.43991
5.34293
5.15978
532.356
517.958
5.35128
5.81318
6.11082
6.29326
6.41639
6.50504
6.56539
6.59916
6.60883
6.59917
6.57731
6.5442
6.50043
6.44668
6.38361
6.31176
6.23156
6.14336
6.04885
5.9517
5.86021
5.77876
5.70495
5.63911
5.58431
5.545
5.52432
5.52046
5.52178
5.50602
5.45891
5.35805
5.17002
532.437
517.966
5.355
5.815
6.1109
6.29243
6.41534
6.50416
6.56486
6.59914
6.60962
6.60125
6.58125
6.55008
6.50835
6.45674
6.39589
6.32636
6.24859
6.16302
6.07151
5.97802
5.89116
5.81361
5.74292
5.67921
5.62518
5.58492
5.56144
5.55343
5.54979
5.5294
5.47836
5.37352
5.18051
532.518
517.974
5.35833
5.81625
6.11031
6.29086
6.41351
6.50247
6.56349
6.59829
6.60963
6.6027
6.58449
6.55522
6.5155
6.46602
6.40738
6.34015
6.26479
6.18184
6.09332
6.00349
5.92123
5.84757
5.78
5.7185
5.66542
5.62449
5.5985
5.58667
5.57825
5.55329
5.4983
5.38942
5.19131
532.598
517.981
5.36122
5.8169
6.10904
6.28855
6.4109
6.49994
6.56125
6.59654
6.6088
6.60346
6.58694
6.55954
6.52182
6.47446
6.41804
6.35311
6.28018
6.19985
6.11433
6.02822
5.95051
5.88068
5.81622
5.75698
5.70501
5.66367
5.63557
5.62016
5.60713
5.57766
5.51871
5.40572
5.2024
532.678
517.988
5.36373
5.81701
6.10713
6.28555
6.40755
6.49665
6.5582
6.59394
6.60708
6.60331
6.58854
6.56303
6.52735
6.48213
6.42794
6.36533
6.29483
6.21715
6.1347
6.05241
5.97913
5.91304
5.85165
5.79468
5.74393
5.7024
5.67244
5.65373
5.63634
5.6025
5.53963
5.42247
5.21383
532.758
517.996
5.36585
5.81657
6.10458
6.28186
6.40348
6.4926
6.55437
6.59055
6.60459
6.60243
6.58941
6.56579
6.53213
6.48904
6.43708
6.3768
6.30877
6.23381
6.15453
6.07625
6.00727
5.94478
5.88635
5.83163
5.78217
5.74061
5.70909
5.68743
5.66584
5.62775
5.56099
5.43962
5.22555
532.839
518.003
5.36761
5.81563
6.10144
6.27754
6.39874
6.48784
6.54979
6.5864
6.60134
6.60082
6.58957
6.56785
6.53621
6.49524
6.44551
6.38758
6.32205
6.24989
6.17393
6.09988
6.03503
5.97601
5.92044
5.86792
5.81976
5.77831
5.74545
5.72113
5.69558
5.65341
5.58281
5.45721
5.2376
532.92
518.009
5.36902
5.81419
6.09771
6.27257
6.39332
6.48238
6.54448
6.5815
6.59735
6.5985
6.58903
6.56921
6.53958
6.50073
6.45323
6.39765
6.33467
6.26538
6.19288
6.12326
6.06244
6.00678
5.95398
5.90358
5.85674
5.8155
5.7815
5.75478
5.72553
5.67937
5.60503
5.47519
5.24994
533.001
518.016
5.37012
5.81229
6.09344
6.26701
6.38728
6.47626
6.5385
6.57592
6.59271
6.59556
6.58789
6.56997
6.54234
6.50559
6.46029
6.40705
6.34663
6.28025
6.2113
6.14625
6.0894
6.03706
5.98697
5.93867
5.89314
5.85219
5.81722
5.78835
5.75563
5.7057
5.62764
5.49354
5.26258
533.083
518.023
5.37088
5.8099
6.08859
6.26083
6.38057
6.46946
6.5318
6.56962
6.58737
6.59197
6.58613
6.57011
6.54447
6.50981
6.46671
6.4158
6.35794
6.2945
6.22917
6.16875
6.11586
6.06681
6.01943
5.97322
5.92902
5.8884
5.8526
5.82178
5.78581
5.73228
5.65061
5.51226
5.2755
533.165
518.029
5.37136
5.80709
6.08323
6.25407
6.37326
6.46202
6.52446
6.56269
6.58143
6.58782
6.58382
6.56971
6.54605
6.51346
6.47253
6.42394
6.36863
6.30816
6.2465
6.19071
6.14174
6.09595
6.05127
6.00715
5.96431
5.9241
5.88758
5.85506
5.81607
5.75911
5.67391
5.5313
5.28867
533.248
518.036
5.37155
5.80382
6.0773
6.2467
6.3653
6.4539
6.51641
6.55506
6.57483
6.58306
6.58092
6.56874
6.54708
6.51656
6.4778
6.43153
6.37878
6.32131
6.2634
6.2122
6.16708
6.12451
6.08249
6.04046
5.99899
5.95923
5.9221
5.88806
5.84626
5.78604
5.69741
5.55053
5.30198
533.332
518.042
5.37146
5.80012
6.07084
6.23873
6.35671
6.44513
6.50773
6.54683
6.56769
6.57778
6.5775
6.56723
6.54756
6.51912
6.48254
6.43861
6.38846
6.33406
6.28
6.23329
6.19192
6.1525
6.11311
6.07317
6.03314
5.99395
5.95637
5.92099
5.87652
5.81317
5.72117
5.57004
5.3155
533.416
518.048
5.37106
5.79594
6.0638
6.23013
6.34744
6.43567
6.49835
6.53799
6.56003
6.57196
6.57352
6.56516
6.54749
6.52115
6.48678
6.44523
6.39776
6.34653
6.29649
6.2541
6.21633
6.17993
6.14308
6.10517
6.06655
6.02793
5.98996
5.9535
5.90664
5.84035
5.74507
5.58971
5.32922
533.5
518.054
5.37033
5.79128
6.05619
6.22091
6.33754
6.42553
6.48831
6.52858
6.55214
6.56568
6.56898
6.56251
6.54685
6.52262
6.4905
6.4514
6.40669
6.35878
6.31298
6.27471
6.24038
6.20688
6.17248
6.13657
6.09938
6.06149
6.02354
5.98588
5.93672
5.86762
5.76917
5.60961
5.34317
533.586
518.06
5.36923
5.78607
6.04795
6.21103
6.32694
6.41468
6.47752
6.51842
6.54351
6.55871
6.56381
6.55925
6.54563
6.52355
6.49371
6.4571
6.41524
6.37079
6.32939
6.29509
6.26405
6.23333
6.20128
6.16732
6.13159
6.09455
6.05684
6.01802
5.96665
5.89486
5.79331
5.62961
5.35724
533.67
518.066
5.36775
5.78035
6.03913
6.20052
6.3157
6.40318
6.4661
6.50768
6.53435
6.55125
6.55815
6.55551
6.54392
6.52399
6.49646
6.46238
6.42344
6.38256
6.34565
6.31521
6.28736
6.25931
6.22955
6.1975
6.16325
6.12716
6.08984
6.04997
5.99649
5.92214
5.81757
5.64976
5.37147
533.756
518.071
5.36588
5.77409
6.02969
6.18935
6.30376
6.39097
6.45399
6.4963
6.52465
6.54329
6.55201
6.5513
6.54174
6.52396
6.49875
6.46725
6.43128
6.39405
6.36167
6.33501
6.31025
6.2848
6.25725
6.22706
6.19427
6.15918
6.12236
6.08155
6.0261
5.94929
5.84179
5.66992
5.38575
533.841
518.077
5.36368
5.76736
6.01968
6.17755
6.29115
6.37807
6.44122
6.48436
6.51449
6.53494
6.54553
6.54675
6.53921
6.52358
6.50069
6.47178
6.43885
6.40538
6.37749
6.35451
6.33276
6.30983
6.28443
6.25607
6.22474
6.19069
6.15445
6.11283
6.05554
5.9764
5.86605
5.69018
5.40013
533.927
518.082
5.36117
5.76017
6.00909
6.16507
6.2778
6.36439
6.4277
6.47177
6.50383
6.52621
6.53874
6.54193
6.53643
6.52295
6.50239
6.47611
6.44629
6.41667
6.39316
6.37373
6.35488
6.33438
6.31106
6.28446
6.25458
6.22159
6.18602
6.14367
6.08467
6.00332
5.89021
5.71037
5.41449
534.012
518.087
5.3585
5.75266
5.99801
6.15197
6.26371
6.34992
6.41341
6.45851
6.49265
6.51711
6.53167
6.5369
6.53347
6.52216
6.50397
6.48038
6.45377
6.42817
6.40886
6.39281
6.37673
6.35856
6.33722
6.31232
6.28384
6.25191
6.21707
6.17411
6.11353
6.03011
5.91433
5.73059
5.4289
534.097
518.092
5.35573
5.74484
5.98642
6.1382
6.24883
6.33457
6.39824
6.4445
6.48091
6.5076
6.52434
6.53169
6.5304
6.5213
6.50553
6.48469
6.46142
6.44001
6.42466
6.4118
6.39834
6.38238
6.36294
6.33967
6.31255
6.28167
6.24757
6.20406
6.14201
6.0566
5.93823
5.75065
5.44321
534.181
518.098
5.35298
5.73681
5.9744
6.12378
6.23313
6.31827
6.38211
6.42965
6.46848
6.49757
6.51665
6.52627
6.5272
6.52041
6.5071
6.4891
6.46929
6.4522
6.44061
6.43077
6.41977
6.4059
6.38825
6.36653
6.3407
6.31085
6.27755
6.23357
6.17017
6.08291
5.96203
5.77066
5.45749
534.266
518.103
5.35021
5.72856
5.96194
6.10872
6.21657
6.30095
6.36497
6.41394
6.45529
6.4869
6.50848
6.52053
6.52384
6.51944
6.5087
6.49363
6.47736
6.46463
6.45665
6.44967
6.44102
6.42913
6.41319
6.39293
6.36834
6.33948
6.30695
6.26251
6.19783
6.10879
5.98549
5.79039
5.47157
534.349
518.109
5.34746
5.72016
5.94909
6.09302
6.19912
6.28254
6.34671
6.39747
6.44118
6.4754
6.49967
6.51434
6.52021
6.51836
6.51031
6.49827
6.48567
6.47727
6.47275
6.4685
6.46209
6.45209
6.43778
6.41894
6.39554
6.36765
6.3359
6.29106
6.22517
6.13444
6.00877
5.80998
5.48554
534.432
518.114
5.34474
5.71162
5.93588
6.07672
6.18079
6.26294
6.32709
6.37969
6.42585
6.46288
6.49006
6.5076
6.51622
6.51711
6.51192
6.50308
6.49429
6.49012
6.4889
6.48724
6.48295
6.47472
6.46196
6.44443
6.42212
6.39513
6.36416
6.31897
6.25195
6.1596
6.03162
5.8292
5.49921
534.514
518.12
5.34209
5.70301
5.92238
6.05989
6.16162
6.2422
6.30615
6.36057
6.40927
6.44927
6.47956
6.50017
6.51178
6.51562
6.5135
6.50808
6.50333
6.50322
6.50512
6.50591
6.50361
6.49709
6.48581
6.4696
6.44848
6.42269
6.39215
6.3465
6.27838
6.18448
6.05424
5.84824
5.51274
534.596
518.126
5.33954
5.69437
5.90865
6.04256
6.14163
6.22029
6.28384
6.34004
6.39135
6.43447
6.46807
6.49196
6.50678
6.5138
6.515
6.51327
6.51282
6.5166
6.52144
6.52453
6.5241
6.51919
6.50932
6.49439
6.47447
6.44993
6.41967
6.37347
6.30423
6.20881
6.07637
5.86684
5.52592
534.675
518.132
5.33714
5.68575
5.89475
6.02481
6.12086
6.19724
6.26014
6.31808
6.37205
6.41844
6.45552
6.48288
6.50109
6.51152
6.51627
6.51849
6.52256
6.53008
6.53774
6.54303
6.5444
6.54102
6.53254
6.5189
6.50021
6.47691
6.44691
6.40013
6.32978
6.23287
6.09826
5.88523
5.53895
534.755
518.138
5.33489
5.67717
5.88071
6.00666
6.09934
6.17304
6.23503
6.29461
6.3513
6.40108
6.44181
6.47284
6.49465
6.50868
6.51722
6.52361
6.53236
6.54353
6.55392
6.56133
6.56443
6.56253
6.55538
6.54297
6.52547
6.50339
6.47358
6.42619
6.35473
6.25636
6.11962
5.90316
5.5516
534.832
518.144
5.33279
5.66866
5.86659
5.98819
6.07712
6.14775
6.20855
6.26963
6.32906
6.38235
6.42689
6.46174
6.48734
6.50519
6.51772
6.52854
6.542
6.55676
6.56984
6.57934
6.58414
6.58371
6.57788
6.56671
6.55041
6.52955
6.49992
6.45192
6.37939
6.27958
6.14075
5.92089
5.56411
534.91
518.15
5.33084
5.66023
5.85239
5.96941
6.05425
6.12142
6.18075
6.24318
6.30534
6.3622
6.41066
6.44952
6.47911
6.50099
6.51778
6.53328
6.55142
6.56968
6.58541
6.59697
6.60344
6.60444
6.59989
6.58991
6.57476
6.55508
6.5256
6.477
6.40341
6.30222
6.16133
5.93814
5.57624
534.984
518.157
5.32906
5.65192
5.83817
5.95036
6.03074
6.09408
6.1517
6.21534
6.28017
6.34063
6.39313
6.43612
6.46988
6.49602
6.51734
6.53781
6.56049
6.58216
6.6005
6.61412
6.62229
6.62474
6.6215
6.61274
6.59876
6.58025
6.55093
6.50173
6.42713
6.32458
6.18168
5.95519
5.58821
535.059
518.163
5.3275
5.64374
5.82392
5.931
6.00653
6.0657
6.12145
6.18615
6.25359
6.31769
6.3743
6.42156
6.45966
6.49028
6.51638
6.54208
6.56915
6.59414
6.61503
6.63068
6.64053
6.64442
6.64245
6.63488
6.62204
6.60468
6.5755
6.52574
6.45017
6.34632
6.20146
5.97175
5.59978
535.131
518.17
5.32626
5.63578
5.80965
5.9113
5.98155
6.03623
6.09006
6.15562
6.22563
6.29339
6.35417
6.40579
6.44835
6.48362
6.51471
6.5458
6.57717
6.60543
6.62888
6.6466
6.65818
6.66357
6.66295
6.6566
6.64494
6.62871
6.59967
6.54936
6.47286
6.36775
6.22098
5.98808
5.61116
535.203
518.177
5.32542
5.62804
5.79534
5.89117
5.95561
6.00542
6.05747
6.12362
6.19625
6.26779
6.33285
6.38892
6.43604
6.47608
6.51233
6.54881
6.58438
6.61587
6.64188
6.6617
6.67503
6.68193
6.68263
6.67749
6.66695
6.65188
6.62301
6.57219
6.49483
6.38852
6.23989
6.00387
5.62209
535.272
518.185
5.32501
5.62052
5.78098
5.87057
5.92858
5.97288
6.02281
6.08965
6.16515
6.24072
6.31024
6.3709
6.42271
6.46765
6.50921
6.55099
6.59065
6.62535
6.65397
6.67595
6.69112
6.69961
6.70172
6.69788
6.68863
6.67458
6.64585
6.59457
6.51638
6.40892
6.25847
6.01938
5.63276
535.342
518.193
5.32491
5.61307
5.76649
5.84948
5.90047
5.93868
5.98613
6.05359
6.13214
6.21201
6.28624
6.35168
6.40834
6.45836
6.50541
6.55225
6.59585
6.6337
6.66493
6.68912
6.70619
6.71634
6.71994
6.7175
6.70973
6.69646
6.66781
6.61607
6.53712
6.42858
6.27639
6.0343
5.6429
535.407
518.201
5.32488
5.60556
5.75183
5.82792
5.8713
5.9027
5.9471
6.01497
6.0967
6.18116
6.2604
6.33089
6.39263
6.44796
6.50069
6.5524
6.59983
6.64083
6.67471
6.70121
6.7203
6.73226
6.73749
6.7366
6.73039
6.71783
6.68922
6.63704
6.55736
6.44778
6.29389
6.04884
5.65269
535.475
518.21
5.32466
5.59778
5.73693
5.80604
5.84135
5.86528
5.90591
5.97375
6.05857
6.14778
6.2323
6.30813
6.37522
6.43609
6.49465
6.55109
6.6023
6.64643
6.68303
6.7119
6.73312
6.74697
6.75393
6.75466
6.75004
6.73821
6.70965
6.65707
6.57673
6.46618
6.31067
6.06274
5.66191
535.538
518.218
5.32401
5.58957
5.72171
5.7838
5.81084
5.82673
5.8628
5.93
6.01756
6.11146
6.20142
6.28283
6.35556
6.42224
6.48676
6.54794
6.60298
6.65038
6.68983
6.72125
6.74475
6.76066
6.76951
6.77197
6.76901
6.75793
6.72942
6.67645
6.59549
6.48402
6.32693
6.07617
5.6707
535.604
518.225
5.32283
5.58084
5.70606
5.76112
5.77974
5.78734
5.81832
5.88421
5.974
6.07237
6.16776
6.25487
6.33341
6.40611
6.47658
6.54251
6.60147
6.65224
6.69469
6.7288
6.75473
6.77284
6.78369
6.78799
6.78675
6.77647
6.74808
6.69481
6.61331
6.501
6.34243
6.08892
5.67889
535.664
518.232
5.32124
5.57164
5.68993
5.7379
5.74799
5.74728
5.77279
5.83686
5.92836
6.03083
6.13151
6.22435
6.30883
6.38774
6.46407
6.53473
6.5977
6.65201
6.69765
6.73467
6.76325
6.78377
6.79678
6.80304
6.8036
6.79416
6.76592
6.71238
6.63039
6.51729
6.35728
6.1011
5.68659
535.729
518.239
5.31946
5.56204
5.6732
5.71385
5.71518
5.70611
5.72624
5.78834
5.8812
5.9874
6.0931
6.19156
6.28198
6.36718
6.44912
6.52442
6.59142
6.64937
6.69834
6.73843
6.76982
6.7929
6.80824
6.81658
6.81903
6.81052
6.78254
6.72885
6.64647
6.53268
6.37133
6.11257
5.69365
535.787
518.247
5.31775
5.55217
5.65584
5.68873
5.68087
5.66336
5.67841
5.73867
5.83283
5.94254
6.05302
6.1569
6.25318
6.34464
6.43194
6.51179
6.58285
6.64454
6.69701
6.74036
6.77477
6.80061
6.81843
6.82899
6.83339
6.82586
6.79817
6.74436
6.66164
6.54721
6.38457
6.12329
5.70009
535.851
518.255
5.3162
5.54209
5.63789
5.66248
5.6448
5.61859
5.62871
5.68752
5.78319
5.89636
6.01141
6.12051
6.22246
6.32001
6.41241
6.49669
6.57179
6.63726
6.69331
6.74004
6.77761
6.80636
6.82682
6.83973
6.8462
6.83978
6.8125
6.75871
6.67578
6.56082
6.39699
6.1333
5.70588
535.908
518.264
5.31484
5.53188
5.61943
5.63515
5.60688
5.57138
5.57661
5.63433
5.73178
5.84854
5.96816
6.08238
6.18989
6.29334
6.3907
6.47936
6.55853
6.62787
6.68763
6.73788
6.77877
6.81059
6.83381
6.84917
6.85775
6.85246
6.82564
6.77191
6.68881
6.57335
6.40838
6.14234
5.71083
535.971
518.273
5.31357
5.52163
5.60071
5.60707
5.56749
5.52201
5.52194
5.57852
5.67797
5.79852
5.92279
6.04211
6.1551
6.26424
6.36643
6.45942
6.54268
6.61595
6.6795
6.73339
6.77773
6.81276
6.83891
6.85686
6.86768
6.86368
6.83745
6.78393
6.70079
6.58496
6.41896
6.15069
5.71514
536.028
518.282
5.31244
5.5115
5.58193
5.57846
5.52683
5.47064
5.46465
5.51983
5.62135
5.74588
5.87494
5.99945
6.11794
6.23263
6.33961
6.437
6.52445
6.60179
6.66928
6.72697
6.77491
6.81328
6.84246
6.86311
6.87616
6.87347
6.84788
6.79461
6.71147
6.59532
6.42834
6.1579
5.71847
536.091
518.291
5.31162
5.50176
5.56341
5.54967
5.48531
5.41772
5.40506
5.45832
5.56173
5.69026
5.82422
5.95399
6.07802
6.19808
6.30981
6.41163
6.50335
6.58486
6.65642
6.71804
6.76973
6.81162
6.84407
6.86771
6.88298
6.88171
6.85692
6.80406
6.72108
6.60474
6.4369
6.16441
5.72116
536.146
518.301
5.31147
5.49274
5.54539
5.52082
5.44294
5.36339
5.34322
5.39411
5.4992
5.63169
5.77059
5.90569
6.03531
6.16067
6.27719
6.38357