/*--------------------------------*- C++ -*----------------------------------*\
| =========                 |                                                 |
| \\      /  F ield         | OpenFOAM: The Open Source CFD Toolbox           |
|  \\    /   O peration     | Version:  v1906                                 |
|   \\  /    A nd           | Web:      www.OpenFOAM.com                      |
|    \\/     M anipulation  |                                                 |
\*---------------------------------------------------------------------------*/
FoamFile
{
    version     2.0;
    format      ascii;
    class       volVectorField;
    location    "76";
    object      U;
}
// * * * * * * * * * * * * * * * * * * * * * * * * * * * * * * * * * * * * * //

dimensions      [0 1 -1 0 0 0 0];


internalField   nonuniform List<vector> 
78750
(
(-0.00457235 -0.00108407 0.00181629)
(-0.0046681 -0.00473706 0.00238908)
(-0.00376303 -0.00637236 0.00282766)
(-0.00182847 -0.00730293 0.00319078)
(-0.00015845 -0.00785446 0.00348627)
(0.0017095 -0.00812893 0.00372697)
(0.00369939 -0.00819532 0.00391802)
(0.00574032 -0.00809608 0.00406668)
(0.00777796 -0.00786047 0.00417923)
(0.00976925 -0.00750959 0.00426047)
(0.0116781 -0.00705965 0.00431397)
(0.013474 -0.00652393 0.00434235)
(0.0151309 -0.00591391 0.00434748)
(0.0166267 -0.0052399 0.00433076)
(0.0179427 -0.00450947 0.00429382)
(0.0190625 -0.0037281 0.00423909)
(0.019973 -0.00290849 0.00416787)
(0.0206639 -0.00206414 0.00408135)
(0.0211285 -0.00120788 0.0039807)
(0.021364 -0.000351789 0.00386717)
(0.0213718 0.000491923 0.00374222)
(0.0211533 0.00131138 0.0036067)
(0.0207081 0.00209496 0.00346198)
(0.0200435 0.00283096 0.00330961)
(0.019173 0.00350727 0.00315104)
(0.0181119 0.00411148 0.00298757)
(0.0168775 0.00463085 0.00282068)
(0.0154898 0.00504882 0.00265173)
(0.0139704 0.00534817 0.00248201)
(0.01234 0.00555096 0.00231461)
(0.0105953 0.00580095 0.00214422)
(0.00865673 0.00647286 0.00193555)
(0.00633347 0.00797917 0.00161539)
(0.00358651 0.00955857 0.00113272)
(0.000892742 0.00724269 0.000538104)
(-0.000186662 -0.000713612 0.00189016)
(0.000177667 -0.00833886 0.00311179)
(0.000641737 -0.013814 0.00376022)
(0.00143679 -0.0177829 0.00409449)
(0.00247684 -0.0204943 0.00427247)
(0.00371873 -0.0222045 0.00438268)
(0.00510845 -0.0231339 0.00446108)
(0.00658328 -0.0234495 0.00451854)
(0.00809137 -0.0232676 0.00455974)
(0.00959324 -0.0226715 0.00458758)
(0.0110563 -0.0217251 0.00460347)
(0.0124526 -0.0204805 0.00460744)
(0.0137577 -0.0189825 0.00459808)
(0.0149489 -0.0172714 0.00457279)
(0.0160079 -0.015381 0.00453107)
(0.01693 -0.0133289 0.00448211)
(0.0177001 -0.011138 0.00443151)
(0.0182987 -0.00884584 0.00437647)
(0.0187183 -0.00648487 0.00431604)
(0.0189518 -0.0040863 0.00424922)
(0.0189925 -0.00168022 0.0041755)
(0.0188398 0.000704106 0.00409464)
(0.0184928 0.00303742 0.00400646)
(0.0179486 0.00529239 0.00391096)
(0.0172096 0.00744197 0.00380784)
(0.0162794 0.0094592 0.00369611)
(0.0151636 0.0113183 0.00357403)
(0.0138784 0.0130098 0.00344343)
(0.0124193 0.0145779 0.00331573)
(0.0107696 0.0161609 0.00319609)
(0.00891687 0.0181065 0.00306746)
(0.00680757 0.0210196 0.00287249)
(0.00446781 0.0249445 0.00249674)
(0.00216546 0.027046 0.00183326)
(0.000271816 0.0185456 0.000841881)
(3.58996e-05 -0.00249757 0.00145837)
(0.000565094 -0.01051 0.0027434)
(0.00128318 -0.017288 0.0034733)
(0.00223939 -0.0227657 0.00385471)
(0.00334978 -0.0269366 0.00401957)
(0.00454943 -0.0298755 0.00406631)
(0.0057941 -0.0317184 0.0040631)
(0.0070541 -0.0326225 0.00404943)
(0.00830415 -0.0327337 0.00404286)
(0.00952048 -0.0321755 0.00404776)
(0.0106823 -0.0310487 0.00406245)
(0.0117718 -0.0294366 0.00408293)
(0.0127734 -0.0274095 0.0041049)
(0.0136724 -0.0250291 0.0041245)
(0.0144551 -0.022351 0.00413843)
(0.0151112 -0.0194252 0.0041442)
(0.0156317 -0.0162937 0.00414131)
(0.0160102 -0.0129953 0.00413032)
(0.0162408 -0.0095683 0.00411186)
(0.0163184 -0.00605141 0.00408645)
(0.0162378 -0.00248357 0.00405422)
(0.0159957 0.00109493 0.00401486)
(0.0155944 0.00464096 0.00396759)
(0.0150353 0.00811221 0.00391149)
(0.0143173 0.0114692 0.00384634)
(0.0134417 0.0146783 0.0037727)
(0.0124116 0.0177192 0.00369182)
(0.0112309 0.0206048 0.00360603)
(0.00990267 0.0234163 0.00351812)
(0.00842107 0.026361 0.00342449)
(0.00676098 0.0298257 0.00330039)
(0.00489502 0.0341216 0.0030751)
(0.00301481 0.0382814 0.00265203)
(0.00132735 0.0384542 0.00192675)
(0.000119056 0.0240578 0.000842936)
(2.58922e-05 -0.00589879 0.00134313)
(0.000602044 -0.0176814 0.00260832)
(0.00147369 -0.0269185 0.00323742)
(0.00256629 -0.0337592 0.00350857)
(0.00374443 -0.0384444 0.00359142)
(0.00492356 -0.0413585 0.00358966)
(0.00606728 -0.0428997 0.00356096)
(0.00716365 -0.043379 0.00353184)
(0.00820601 -0.0430082 0.00351138)
(0.0091884 -0.0419317 0.00349861)
(0.0101046 -0.0402491 0.00349311)
(0.0109484 -0.038036 0.00349237)
(0.0117111 -0.0353551 0.00349434)
(0.0123825 -0.0322622 0.00349815)
(0.0129524 -0.02881 0.00350436)
(0.0134113 -0.0250497 0.00351469)
(0.0137514 -0.0210325 0.00353165)
(0.013967 -0.0168083 0.00355791)
(0.0140554 -0.0124251 0.00359586)
(0.0140153 -0.00792765 0.00364686)
(0.0138471 -0.00335888 0.00371007)
(0.0135512 0.00123879 0.00378159)
(0.0131282 0.00581976 0.00385407)
(0.0125781 0.0103332 0.00391728)
(0.0119008 0.0147249 0.00396006)
(0.0110969 0.0189451 0.00397315)
(0.0101685 0.0229667 0.00395203)
(0.00911854 0.0268173 0.00389799)
(0.00794818 0.0306242 0.00381526)
(0.00665071 0.0346525 0.00370148)
(0.00520835 0.0392332 0.0035297)
(0.00362559 0.0442473 0.00323558)
(0.00215127 0.0479506 0.00276441)
(0.000896224 0.0461897 0.00201723)
(5.35912e-05 0.0272682 0.000876859)
(5.05616e-05 -0.00844325 0.00100118)
(0.00059528 -0.0232563 0.0019093)
(0.00139884 -0.0342838 0.002309)
(0.00235712 -0.0419389 0.00245114)
(0.00334941 -0.0467761 0.00246995)
(0.0043143 -0.0495069 0.00243843)
(0.00523851 -0.0507448 0.00239356)
(0.00612338 -0.0508876 0.00234926)
(0.00697498 -0.0501678 0.00230642)
(0.0077863 -0.0487232 0.00226197)
(0.00854878 -0.0466426 0.00221365)
(0.00925878 -0.0439792 0.00216132)
(0.00990197 -0.0407865 0.00210418)
(0.0104645 -0.0371188 0.0020437)
(0.0109333 -0.033036 0.00198375)
(0.0112976 -0.0286045 0.00193063)
(0.0115497 -0.0238941 0.00189288)
(0.0116862 -0.0189745 0.00188081)
(0.0117072 -0.0139091 0.0019058)
(0.011616 -0.00875215 0.00197885)
(0.0114177 -0.00354626 0.00210869)
(0.0111183 0.00167496 0.00229904)
(0.0107235 0.00688178 0.00254549)
(0.0102375 0.012042 0.0028331)
(0.00966086 0.0171164 0.00313643)
(0.00899173 0.0220625 0.00342329)
(0.00822634 0.0268562 0.00366221)
(0.0073596 0.0315345 0.0038303)
(0.00638433 0.0362426 0.00391465)
(0.00529037 0.0412337 0.00390247)
(0.00407001 0.0466756 0.00376397)
(0.00276343 0.0519974 0.00345131)
(0.00160003 0.0550529 0.00294599)
(0.000638094 0.0515871 0.00215664)
(2.67635e-05 0.0292597 0.000909411)
(4.36868e-05 -0.010758 0.000705938)
(0.000499374 -0.0282822 0.00137168)
(0.00116899 -0.0407816 0.00169804)
(0.00196119 -0.0490223 0.0018455)
(0.00277386 -0.0538989 0.00189172)
(0.00356074 -0.0564345 0.00188548)
(0.00431804 -0.057413 0.00185554)
(0.00505745 -0.0572822 0.00181333)
(0.0057778 -0.0562643 0.00175912)
(0.00646815 -0.0544799 0.00169287)
(0.00712461 -0.0519926 0.00161249)
(0.00773718 -0.0488414 0.00151712)
(0.00829081 -0.045072 0.00140599)
(0.00877071 -0.0407434 0.00127963)
(0.0091634 -0.0359337 0.00114045)
(0.00945831 -0.0307377 0.000993396)
(0.00964898 -0.0252601 0.000846538)
(0.00973352 -0.0196049 0.000711525)
(0.00971427 -0.0138662 0.000603619)
(0.00959699 -0.00811985 0.000541637)
(0.00938956 -0.00242 0.000546693)
(0.00910107 0.00320035 0.000639198)
(0.00874038 0.00872619 0.000834106)
(0.00831434 0.0141549 0.001135)
(0.00782629 0.0194899 0.00152864)
(0.00727478 0.0247393 0.00198292)
(0.00665305 0.0299304 0.00245138)
(0.00594971 0.0351431 0.00288304)
(0.00515055 0.0405394 0.00322984)
(0.00424253 0.0463129 0.00344366)
(0.00322464 0.0524036 0.00346799)
(0.00216234 0.0578306 0.00325138)
(0.00123505 0.0602986 0.0027887)
(0.000476492 0.0554124 0.00201545)
(1.80645e-05 0.030577 0.000794277)
(4.08275e-05 -0.0125954 0.00050783)
(0.000414435 -0.0322813 0.0010352)
(0.000963824 -0.0459489 0.00133364)
(0.00161634 -0.054677 0.00149472)
(0.00228816 -0.059635 0.00156417)
(0.00294231 -0.0620856 0.00158008)
(0.0035799 -0.0629288 0.00156798)
(0.00420758 -0.0626325 0.00153821)
(0.00482094 -0.0614096 0.00149544)
(0.00541285 -0.0593591 0.00143946)
(0.00597646 -0.0565235 0.00136905)
(0.00650016 -0.0529327 0.00128325)
(0.006971 -0.0486268 0.0011811)
(0.00737594 -0.0436738 0.00106207)
(0.00770347 -0.0381744 0.000926752)
(0.00794493 -0.0322552 0.000777161)
(0.00809508 -0.0260558 0.00061739)
(0.00815274 -0.0197133 0.000454506)
(0.00812119 -0.0133498 0.000299492)
(0.00800657 -0.00706189 0.000167866)
(0.00781596 -0.000915993 7.98071e-05)
(0.00756062 0.00505122 5.89508e-05)
(0.00725276 0.0108304 0.00012915)
(0.00689862 0.0164398 0.000309098)
(0.00650034 0.0219203 0.000605682)
(0.00605489 0.0273323 0.00100784)
(0.00555296 0.0327638 0.00148424)
(0.00497984 0.0383478 0.00198609)
(0.00431868 0.0442602 0.00245109)
(0.00355627 0.0506184 0.00280351)
(0.00269532 0.0571404 0.00295652)
(0.00181232 0.06254 0.00284173)
(0.0010406 0.0645031 0.00245105)
(0.000402499 0.0584165 0.00174196)
(2.10503e-05 0.0316361 0.000645356)
(3.13393e-05 -0.0140659 0.000360773)
(0.000332938 -0.0355392 0.00079686)
(0.000791337 -0.0502323 0.00109097)
(0.0013487 -0.0594458 0.00127514)
(0.00193069 -0.0645426 0.00136951)
(0.00250282 -0.0669722 0.00140513)
(0.00306626 -0.0677299 0.00140666)
(0.00362408 -0.067303 0.00138498)
(0.00417065 -0.0658983 0.00134445)
(0.0046988 -0.0635981 0.00128599)
(0.0052003 -0.0604316 0.00121015)
(0.00566513 -0.0564181 0.00111673)
(0.00608213 -0.0515985 0.00100514)
(0.00644054 -0.0460541 0.000874992)
(0.00673111 -0.0399073 0.000726428)
(0.00694657 -0.0333113 0.000560445)
(0.0070822 -0.026435 0.000379695)
(0.0071363 -0.0194485 0.000189739)
(0.00711011 -0.0125046 3.77722e-07)
(0.00700847 -0.00572664 -0.0001735)
(0.00684099 0.00079788 -0.000312045)
(0.00661613 0.0070239 -0.000391851)
(0.00634289 0.012952 -0.000388128)
(0.00603185 0.0186294 -0.00027922)
(0.00568767 0.0241426 -5.17001e-05)
(0.00530839 0.0296104 0.000294268)
(0.00488454 0.0351836 0.000740425)
(0.00439947 0.0410458 0.00124801)
(0.00383464 0.0473809 0.00175575)
(0.00317564 0.0542293 0.00217786)
(0.00242364 0.0611161 0.00241144)
(0.00165415 0.0665261 0.00237581)
(0.000970232 0.068132 0.00206016)
(0.000388326 0.0610839 0.00143848)
(2.81588e-05 0.0326798 0.000503232)
(2.69319e-05 -0.0153031 0.000309836)
(0.000289536 -0.0383882 0.000745744)
(0.000699161 -0.0540743 0.00106412)
(0.00120329 -0.0638072 0.00127098)
(0.00173209 -0.0691004 0.00138131)
(0.00225305 -0.0715659 0.00142756)
(0.00276743 -0.0722842 0.0014364)
(0.00327698 -0.0717631 0.00142063)
(0.00377504 -0.070207 0.00138574)
(0.00425423 -0.0676892 0.00133463)
(0.00470713 -0.064229 0.00126878)
(0.00512498 -0.0598398 0.0011886)
(0.00549867 -0.0545651 0.00109352)
(0.00581995 -0.0484957 0.000982302)
(0.006082 -0.041768 0.000853134)
(0.0062795 -0.0345519 0.000704043)
(0.00640816 -0.0270354 0.000533737)
(0.00646643 -0.0194082 0.000342962)
(0.00645524 -0.0118487 0.000136313)
(0.00637625 -0.00450806 -7.55906e-05)
(0.00623443 0.00249637 -0.000274705)
(0.00603762 0.00909173 -0.000436079)
(0.00579556 0.0152671 -0.000530672)
(0.00551748 0.0210807 -0.000530043)
(0.00520884 0.0266542 -0.000411906)
(0.00486866 0.0321616 -0.000165523)
(0.0044889 0.0378183 0.000203061)
(0.00405545 0.0438645 0.000665317)
(0.00355053 0.0505035 0.00116402)
(0.00295846 0.0577196 0.00160945)
(0.00227674 0.0648876 0.00188944)
(0.00157626 0.0703176 0.00191444)
(0.000940563 0.0716431 0.00167168)
(0.000384873 0.0637515 0.0011493)
(3.044e-05 0.0338083 0.000382585)
(2.24838e-05 -0.0163927 0.000274181)
(0.000260806 -0.0409534 0.000693132)
(0.000641527 -0.0575713 0.0010115)
(0.00111383 -0.0678028 0.00122403)
(0.00160993 -0.0732924 0.00134133)
(0.00209859 -0.0757993 0.00139374)
(0.00258132 -0.0764826 0.00140711)
(0.00305904 -0.0758709 0.0013943)
(0.00352433 -0.0741682 0.00136125)
(0.00396958 -0.0714407 0.00131132)
(0.00438761 -0.0677018 0.00124658)
(0.00477044 -0.0629631 0.00116814)
(0.00511035 -0.057274 0.00107626)
(0.00540087 -0.0507363 0.000970503)
(0.00563714 -0.0434996 0.000849885)
(0.00581568 -0.0357478 0.000713096)
(0.00593399 -0.0276823 0.00055892)
(0.0059902 -0.0195075 0.000386911)
(0.0059844 -0.0114159 0.000198596)
(0.00591841 -0.00357713 -7.39006e-07)
(0.00579573 0.00386962 -0.000199782)
(0.00562226 0.010831 -0.000379913)
(0.00540584 0.0172837 -0.00051609)
(0.00515444 0.0232883 -0.000580066)
(0.00487329 0.0289866 -0.0005452)
(0.00456238 0.0345903 -0.000391749)
(0.0042147 0.0403653 -0.000113007)
(0.00381725 0.0465998 0.000276307)
(0.00335402 0.0535189 0.000729519)
(0.00280909 0.0610688 0.00116096)
(0.0021764 0.0685073 0.00145656)
(0.0015221 0.0739961 0.00152172)
(0.000917188 0.0750988 0.00134118)
(0.00037816 0.0664325 0.000912839)
(2.99989e-05 0.034974 0.000292863)
(2.11414e-05 -0.0174246 0.000278675)
(0.000249342 -0.0434388 0.000725825)
(0.000615025 -0.0609926 0.00106643)
(0.00106743 -0.07173 0.00129166)
(0.00154005 -0.0774244 0.00141491)
(0.0020035 -0.079982 0.00147019)
(0.00246024 -0.080638 0.00148525)
(0.00291108 -0.0799415 0.00147406)
(0.0033484 -0.0780974 0.00144334)
(0.00376479 -0.0751681 0.00139712)
(0.00415339 -0.0711634 0.00133789)
(0.00450694 -0.0660958 0.0012669)
(0.00481882 -0.0600208 0.00118402)
(0.00508394 -0.05305 0.00108792)
(0.00529894 -0.0453435 0.000976373)
(0.00546173 -0.0370941 0.00084678)
(0.00557098 -0.0285119 0.000696904)
(0.00562573 -0.0198103 0.000525703)
(0.00562544 -0.011194 0.000334277)
(0.0055704 -0.00284832 0.000127218)
(0.00546323 0.00506595 -8.57613e-05)
(0.00530861 0.0124319 -0.000288629)
(0.00511236 0.0192108 -0.000459324)
(0.00488085 0.0254609 -0.000572037)
(0.00461876 0.0313374 -0.000600535)
(0.00432675 0.0370816 -0.000522008)
(0.00399943 0.0430001 -0.000322424)
(0.00362515 0.0494232 -5.65504e-06)
(0.00318926 0.0565972 0.000393091)
(0.00267684 0.0644408 0.000796426)
(0.00208006 0.0721166 0.00109343)
(0.00146178 0.0776561 0.00118748)
(0.000883193 0.078541 0.00106056)
(0.000362547 0.069109 0.000717312)
(2.75435e-05 0.0361351 0.000222327)
(2.01276e-05 -0.0184206 0.000282208)
(0.000241407 -0.0458369 0.000734908)
(0.000595203 -0.0642728 0.00107414)
(0.00103057 -0.0754692 0.00129597)
(0.00148226 -0.0813384 0.00141681)
(0.00192279 -0.0839304 0.00147115)
(0.00235551 -0.08455 0.00148612)
(0.00278118 -0.0837637 0.00147552)
(0.00319218 -0.0817768 0.00144626)
(0.0035813 -0.0786482 0.00140271)
(0.00394199 -0.0743861 0.00134784)
(0.0042676 -0.0690068 0.00128337)
(0.00455242 -0.0625749 0.0012096)
(0.00479252 -0.0552137 0.00112537)
(0.00498574 -0.0470941 0.00102834)
(0.00513113 -0.0384172 0.00091537)
(0.00522837 -0.0293982 0.000783265)
(0.0052774 -0.0202545 0.000629616)
(0.0052783 -0.0111949 0.000453764)
(0.00523124 -0.00241217 0.000258002)
(0.00513711 0.00591959 4.91466e-05)
(0.00499931 0.0136687 -0.000159804)
(0.0048228 0.0207831 -0.000349628)
(0.00461182 0.0273154 -0.000496433)
(0.00436959 0.0334266 -0.000574376)
(0.00409635 0.0393762 -0.000558776)
(0.00378759 0.0454991 -0.000430623)
(0.00343347 0.0521558 -0.000185344)
(0.00302034 0.0596084 0.000152733)
(0.00253444 0.0677493 0.000516715)
(0.00196891 0.0756542 0.000802403)
(0.00138476 0.0812359 0.000913783)
(0.000834905 0.081896 0.000830009)
(0.000338811 0.0717011 0.000559502)
(2.40475e-05 0.0372435 0.000167642)
(1.93541e-05 -0.0194024 0.000298894)
(0.000235459 -0.048206 0.000778073)
(0.000578587 -0.0675088 0.00113162)
(0.000997755 -0.0791489 0.00135863)
(0.00142943 -0.0851833 0.00148003)
(0.00184835 -0.0878062 0.00153389)
(0.00225878 -0.0883882 0.00154866)
(0.00266142 -0.0875117 0.00153864)
(0.00304868 -0.0853827 0.00151116)
(0.00341356 -0.0820578 0.00147096)
(0.00374987 -0.0775454 0.00142128)
(0.00405162 -0.0718669 0.00136386)
(0.00431399 -0.0650965 0.00129862)
(0.00453408 -0.057368 0.00122368)
(0.00471064 -0.0488613 0.0011357)
(0.00484346 -0.0397836 0.0010305)
(0.00493273 -0.0303543 0.000904076)
(0.00497869 -0.0207936 0.000753681)
(0.00498152 -0.011314 0.00057879)
(0.00494137 -0.00211502 0.000381999)
(0.00485893 0.00661817 0.000169839)
(0.00473579 0.014741 -4.62845e-05)
(0.00457509 0.0221925 -0.000249716)
(0.00438048 0.0290216 -0.000419519)
(0.00415415 0.0353944 -0.000532138)
(0.00389565 0.0415845 -0.000563435)
(0.0036007 0.0479481 -0.000492244)
(0.0032608 0.0548667 -0.000308374)
(0.00286423 0.062609 -2.71255e-05)
(0.00239876 0.0710372 0.000295333)
(0.00185917 0.0791432 0.000563718)
(0.00130619 0.084735 0.000684997)
(0.000785028 0.0851469 0.000636265)
(0.000315027 0.0741837 0.000428045)
(2.1371e-05 0.038287 0.000123074)
(1.90374e-05 -0.0203725 0.000313473)
(0.000229835 -0.0505289 0.000805068)
(0.000561269 -0.0706518 0.00115673)
(0.000962968 -0.082692 0.00137645)
(0.00137352 -0.0888626 0.00149126)
(0.00176993 -0.091501 0.00154105)
(0.00215722 -0.0920378 0.00155389)
(0.00253597 -0.0910675 0.00154386)
(0.00289877 -0.0887961 0.00151847)
(0.00323894 -0.0852787 0.00148286)
(0.00355076 -0.0805258 0.00144075)
(0.0038289 -0.0745665 0.0013943)
(0.00406946 -0.0674859 0.00134359)
(0.00427046 -0.0594291 0.00128645)
(0.00443144 -0.0505842 0.00121866)
(0.00455284 -0.0411624 0.00113456)
(0.0046353 -0.0313838 0.00102808)
(0.00467928 -0.021468 0.00089422)
(0.00468499 -0.0116268 0.000730499)
(0.00465233 -0.00206219 0.000538369)
(0.00458153 0.00703388 0.000324121)
(0.00447348 0.0155073 9.92903e-05)
(0.00432974 0.02329 -0.000119763)
(0.00415219 0.0304286 -0.000312914)
(0.00394218 0.0370922 -0.00045762)
(0.00369881 0.0435644 -0.000530428)
(0.00341765 0.0502159 -0.00050943)
(0.00309114 0.0574403 -0.000381102)
(0.0027095 0.065503 -0.000153988)
(0.00226243 0.074229 0.000125378)
(0.0017471 0.0825252 0.000371326)
(0.00122454 0.0881063 0.000495529)
(0.000732976 0.0882552 0.000474008)
(0.000290759 0.0765327 0.000318317)
(1.8794e-05 0.0392607 8.66555e-05)
(1.78768e-05 -0.0213221 0.00033162)
(0.000222149 -0.052794 0.000842904)
(0.000541427 -0.0737059 0.00120013)
(0.000926435 -0.0861243 0.00141797)
(0.00131761 -0.0924204 0.00152898)
(0.00169387 -0.095071 0.00157592)
(0.00206076 -0.095562 0.00158734)
(0.0024187 -0.0944992 0.00157747)
(0.00276037 -0.0920886 0.00155405)
(0.00307941 -0.0883849 0.00152258)
(0.00337055 -0.0834022 0.00148707)
(0.00362915 -0.0771775 0.00144986)
(0.00385216 -0.069807 0.00141092)
(0.00403836 -0.0614458 0.00136778)
(0.00418797 -0.0522886 0.00131562)
(0.00430184 -0.0425495 0.00124795)
(0.00438083 -0.0324483 0.00115753)
(0.00442544 -0.0222027 0.00103788)
(0.00443564 -0.0120236 0.000884876)
(0.00441091 -0.00211411 0.000698438)
(0.00435083 0.00732786 0.000483799)
(0.00425555 0.01614 0.000252032)
(0.00412585 0.0242482 1.93047e-05)
(0.0039625 0.031698 -0.000194628)
(0.00376546 0.0386636 -0.000367772)
(0.00353336 0.0454373 -0.000476961)
(0.0032623 0.0524006 -0.000500014)
(0.0029454 0.0599529 -0.000421319)
(0.00257457 0.0683476 -0.000244333)
(0.00214166 0.0773639 -7.26795e-06)
(0.00164681 0.0858235 0.000213691)
(0.00115143 0.0913629 0.000336039)
(0.000687056 0.0912305 0.000335798)
(0.000270296 0.0787571 0.000225134)
(1.71444e-05 0.0401726 5.66543e-05)
(1.72228e-05 -0.0222625 0.000348455)
(0.000215579 -0.055024 0.000871374)
(0.000523038 -0.0766915 0.00122378)
(0.000891243 -0.0894571 0.00143098)
(0.00126277 -0.0958585 0.00153282)
(0.00161865 -0.098511 0.00157401)
(0.00196496 -0.0989518 0.00158261)
(0.00230198 -0.0977951 0.00157251)
(0.00262258 -0.0952472 0.00155163)
(0.00292079 -0.0913636 0.00152584)
(0.0031918 -0.0861636 0.00149963)
(0.00343164 -0.0796941 0.00147567)
(0.00363799 -0.0720626 0.00145406)
(0.00381036 -0.0634342 0.00143202)
(0.00394953 -0.0540087 0.00140399)
(0.00405683 -0.044001 0.00136216)
(0.00413339 -0.0336276 0.00129744)
(0.00417976 -0.0231011 0.00120104)
(0.00419569 -0.0126276 0.00106633)
(0.00418019 -0.00240859 0.00089102)
(0.00413203 0.00735546 0.000678863)
(0.00405038 0.0164955 0.000440582)
(0.00393502 0.024931 0.000192897)
(0.00378595 0.0327052 -4.36155e-05)
(0.00360242 0.0399949 -0.000246429)
(0.00338199 0.0471002 -0.000392173)
(0.00312055 0.0544094 -0.000458099)
(0.00281248 0.0623216 -0.00042708)
(0.00245135 0.071071 -0.000298705)
(0.00203138 0.0803847 -0.000104153)
(0.00155551 0.0889985 8.92452e-05)
(0.00108501 0.0944833 0.000205343)
(0.000645746 0.094066 0.000220835)
(0.000252345 0.080864 0.000148137)
(1.5776e-05 0.0410314 3.31095e-05)
(1.59508e-05 -0.0231743 0.000364284)
(0.000207461 -0.057175 0.000897634)
(0.000503115 -0.0795594 0.0012461)
(0.000855923 -0.0926479 0.00144438)
(0.00121029 -0.099144 0.00153835)
(0.00154882 -0.101796 0.00157445)
(0.0018778 -0.102186 0.00158038)
(0.00219726 -0.100938 0.00156981)
(0.00250024 -0.0982579 0.00155077)
(0.00278109 -0.0942026 0.00152945)
(0.00303547 -0.0887977 0.00151066)
(0.00326001 -0.0820997 0.00149735)
(0.00345304 -0.0742275 0.00148978)
(0.00361463 -0.0653547 0.00148523)
(0.00374605 -0.0556864 0.00147801)
(0.00384897 -0.0454373 0.00145988)
(0.00392473 -0.0348197 0.00142079)
(0.0039739 -0.0240397 0.0013502)
(0.00399601 -0.0132974 0.00123902)
(0.00398954 -0.00279035 0.001082)
(0.00395245 0.00727968 0.000880122)
(0.0038829 0.0167378 0.000642316)
(0.00377966 0.0254974 0.000384901)
(0.0036419 0.033599 0.000129134)
(0.00346845 0.0412216 -0.000101363)
(0.00325679 0.0486712 -0.000282228)
(0.00300258 0.0563416 -0.000389775)
(0.00270058 0.0646275 -0.000405127)
(0.00234625 0.0737366 -0.000324325)
(0.0019364 0.0833381 -0.000172309)
(0.00147662 0.0920834 -8.16378e-06)
(0.00102773 0.0974925 9.85018e-05)
(0.000610401 0.0967823 0.000125421)
(0.000237333 0.0828685 8.49788e-05)
(1.47859e-05 0.0418446 1.5194e-05)
(1.53218e-05 -0.0240792 0.000378575)
(0.000201337 -0.0593019 0.000917148)
(0.000486656 -0.0823819 0.00125534)
(0.000825213 -0.0957727 0.00143933)
(0.00116326 -0.10235 0.00152205)
(0.0014851 -0.104994 0.00155122)
(0.00179736 -0.105332 0.00155359)
(0.00209989 -0.103993 0.00154236)
(0.00238592 -0.101184 0.00152563)
(0.0026502 -0.0969643 0.00150989)
(0.00288879 -0.0913679 0.00150034)
(0.00309886 -0.0844614 0.00150021)
(0.00327926 -0.0763749 0.00150988)
(0.00343058 -0.0672906 0.00152652)
(0.00355452 -0.0574173 0.00154415)
(0.00365314 -0.0469681 0.00155388)
(0.00372811 -0.0361492 0.00154459)
(0.00378016 -0.0251574 0.00150411)
(0.0038087 -0.014183 0.00142101)
(0.0038118 -0.00341636 0.00128715)
(0.00378653 0.00694313 0.00110053)
(0.00372992 0.0167163 0.000867772)
(0.00363952 0.025809 0.00060424)
(0.0035135 0.0342565 0.000331584)
(0.00335003 0.0422371 7.46221e-05)
(0.00314647 0.0500592 -0.000140896)
(0.00289883 0.0581183 -0.000289905)
(0.00260263 0.0668013 -0.000351682)
(0.00225452 0.076286 -0.000318848)
(0.00185358 0.0861798 -0.000210402)
(0.00140816 0.0950511 -7.75813e-05)
(0.000978373 0.100381 1.64927e-05)
(0.00058031 0.0993827 5.0535e-05)
(0.000224842 0.0847828 3.63812e-05)
(1.40724e-05 0.04262 3.0405e-06)
(1.4208e-05 -0.0249539 0.000389229)
(0.000194357 -0.0613451 0.000927196)
(0.000470002 -0.0850793 0.00125229)
(0.000795998 -0.0987461 0.00142132)
(0.00112004 -0.105392 0.00149287)
(0.00142779 -0.108025 0.00151512)
(0.00172602 -0.10831 0.00151368)
(0.00201438 -0.106881 0.00150119)
(0.00228629 -0.103947 0.00148577)
(0.00253681 -0.0995716 0.00147413)
(0.00276238 -0.0937942 0.00147177)
(0.0029606 -0.0866929 0.00148223)
(0.00313075 -0.0784085 0.00150618)
(0.00327379 -0.0691318 0.0015411)
(0.00339176 -0.0590755 0.00158118)
(0.00348704 -0.0484514 0.00161757)
(0.00356158 -0.0374591 0.00163868)
(0.00361628 -0.0262853 0.00163113)
(0.00365056 -0.0151087 0.00158132)
(0.00366217 -0.00410943 0.00147792)
(0.0036474 0.00651848 0.00131516)
(0.00360224 0.0165937 0.0010962)
(0.00352303 0.026015 0.000834357)
(0.00340697 0.0348118 0.000550937)
(0.00325165 0.0431594 0.000271764)
(0.00305422 0.0513666 2.42384e-05)
(0.00281109 0.0598275 -0.000164715)
(0.00251874 0.0689165 -0.000272098)
(0.00217537 0.078777 -0.000286977)
(0.00178192 0.0889523 -0.000222596)
(0.00134884 0.0979314 -0.000122545)
(0.000935523 0.103169 -4.35103e-05)
(0.000554097 0.101882 -6.01796e-06)
(0.000213915 0.0866154 6.89099e-07)
(1.34196e-05 0.0433608 -4.21458e-06)
(1.36553e-05 -0.0258248 0.000397767)
(0.000189547 -0.0633748 0.000931365)
(0.000457353 -0.0877494 0.00123997)
(0.000772379 -0.101677 0.00139147)
(0.0010837 -0.108383 0.00145029)
(0.00137843 -0.110998 0.00146479)
(0.00166362 -0.111228 0.00145914)
(0.00193879 -0.109712 0.00144535)
(0.00219753 -0.106657 0.00143147)
(0.00243522 -0.102133 0.00142442)
(0.00264861 -0.0961879 0.00142996)
(0.00283565 -0.0889093 0.00145185)
(0.002996 -0.0804495 0.00149095)
(0.00313096 -0.071007 0.00154485)
(0.00324292 -0.0607981 0.00160786)
(0.00333462 -0.0500325 0.0016711)
(0.00340837 -0.0389022 0.00172277)
(0.00346536 -0.0275818 0.00174875)
(0.00350513 -0.0162355 0.00173387)
(0.00352519 -0.0050299 0.00166413)
(0.00352118 0.00585058 0.00153006)
(0.00348796 0.0162249 0.00133092)
(0.00342056 0.0259842 0.00107701)
(0.00331503 0.035149 0.000788393)
(0.0031682 0.0438882 0.000491296)
(0.00297703 0.0525072 0.000214596)
(0.00273822 0.0613949 -1.27629e-05)
(0.00244914 0.0709102 -0.000165191)
(0.0021094 0.0811592 -0.000227933)
(0.00172182 0.0916204 -0.000208394)
(0.00129901 0.100706 -0.000142617)
(0.000899693 0.105854 -8.10448e-05)
(0.00053239 0.104287 -4.38522e-05)
(0.000205049 0.0883774 -2.19709e-05)
(1.30614e-05 0.0440725 -6.67939e-06)
(1.28988e-05 -0.0266674 0.000401495)
(0.000184597 -0.0653247 0.000923235)
(0.000445412 -0.0902984 0.00121123)
(0.00075106 -0.104459 0.00134364)
(0.00105162 -0.111209 0.00138927)
(0.00133537 -0.113802 0.0013957)
(0.00160955 -0.113976 0.00138539)
(0.00187354 -0.112371 0.00136956)
(0.00212117 -0.1092 0.00135615)
(0.00234806 -0.104533 0.00135219)
(0.0025512 -0.0984267 0.00136369)
(0.00272884 -0.0909804 0.00139472)
(0.00288089 -0.0823568 0.00144649)
(0.00300891 -0.072763 0.00151699)
(0.00311554 -0.0624194 0.00160093)
(0.00320382 -0.0515341 0.00168977)
(0.00327638 -0.0402922 0.00177183)
(0.00333471 -0.0288555 0.00183258)
(0.00337854 -0.0173725 0.00185559)
(0.00340538 -0.00599311 0.00182441)
(0.00341038 0.00511206 0.0017258)
(0.0033875 0.0157659 0.00155452)
(0.00333056 0.0258538 0.00131699)
(0.00323447 0.0353869 0.00103102)
(0.00309527 0.0445258 0.000722522)
(0.00290962 0.0535685 0.000421562)
(0.00267454 0.062895 0.00015917)
(0.0023882 0.0728446 -3.62158e-05)
(0.0020515 0.0834824 -0.000145751)
(0.00166882 0.0942206 -0.000170854)
(0.00125486 0.103399 -0.00014006)
(0.000867737 0.10845 -9.77584e-05)
(0.000512832 0.106605 -6.42217e-05)
(0.000196946 0.0900704 -3.26311e-05)
(1.26872e-05 0.044755 -4.89093e-06)
(1.25462e-05 -0.02751 0.00040292)
(0.000181336 -0.06727 0.00091021)
(0.000436765 -0.0928326 0.0011763)
(0.000734575 -0.107214 0.00128901)
(0.00102571 -0.113999 0.00132118)
(0.00129962 -0.116564 0.0013194)
(0.00156381 -0.11668 0.00130435)
(0.00181765 -0.11499 0.00128646)
(0.00205517 -0.111706 0.0012735)
(0.0022722 -0.106903 0.00127257)
(0.0024659 -0.100647 0.00128985)
(0.00263472 -0.0930469 0.00132963)
(0.00277881 -0.084277 0.00139337)
(0.0029 -0.0745524 0.00147934)
(0.00300123 -0.0640971 0.0015826)
(0.00308582 -0.0531175 0.00169501)
(0.00315678 -0.0417911 0.00180522)
(0.00321595 -0.0302666 0.0018988)
(0.00326335 -0.018675 0.00195874)
(0.00329652 -0.00714665 0.00196681)
(0.00331027 0.00416509 0.00190655)
(0.00329769 0.0150907 0.00176818)
(0.00325139 0.0255106 0.00155354)
(0.00316502 0.0354255 0.00127716)
(0.00303371 0.0449841 0.000963687)
(0.00285374 0.0544737 0.000643707)
(0.00262235 0.0642612 0.000350104)
(0.00233854 0.0746626 0.000114212)
(0.0020044 0.0857003 -4.08584e-05)
(0.00162575 0.0967205 -0.000110377)
(0.00121911 0.105994 -0.000115294)
(0.00084201 0.110952 -9.40466e-05)
(0.000497187 0.108839 -6.74101e-05)
(0.000190568 0.0917027 -3.14032e-05)
(1.26022e-05 0.0454122 1.21603e-06)
(1.22506e-05 -0.0283275 0.0003995)
(0.000178489 -0.0691415 0.000885054)
(0.00042932 -0.0952524 0.00112514)
(0.00072055 -0.109826 0.00121651)
(0.00100384 -0.11663 0.00123476)
(0.00126969 -0.11916 0.00122451)
(0.00152582 -0.119214 0.00120423)
(0.00177131 -0.117439 0.00118348)
(0.00200032 -0.114044 0.00116983)
(0.00220892 -0.109109 0.00117049)
(0.00239442 -0.102707 0.00119181)
(0.00255546 -0.0949587 0.00123841)
(0.00269237 -0.0860503 0.0013121)
(0.00280717 -0.0762054 0.00141158)
(0.002903 -0.0656526 0.00153239)
(0.00298346 -0.0545973 0.00166691)
(0.00305186 -0.0432101 0.0018043)
(0.00311044 -0.0316268 0.0019304)
(0.00315957 -0.0199595 0.0020279)
(0.00319705 -0.00831712 0.00207725)
(0.00321757 0.00316875 0.00205913)
(0.00321362 0.0143405 0.00195934)
(0.00317671 0.0250771 0.00177469)
(0.00309926 0.0353691 0.00151567)
(0.0029754 0.045352 0.00120475)
(0.00280088 0.0552984 0.000872395)
(0.00257307 0.0655576 0.000552996)
(0.00229167 0.0764184 0.000280709)
(0.00195989 0.0878569 8.29498e-05)
(0.00158491 0.0991524 -2.93642e-05)
(0.00118501 0.108511 -6.96366e-05)
(0.000817117 0.113374 -7.05351e-05)
(0.000481652 0.110996 -5.37335e-05)
(0.000183937 0.0932731 -1.86138e-05)
(1.23207e-05 0.0460429 1.13321e-05)
(1.21227e-05 -0.0291473 0.000394059)
(0.00017637 -0.0710119 0.000856138)
(0.000423358 -0.0976615 0.00107004)
(0.000708958 -0.112416 0.00114052)
(0.000985569 -0.119232 0.00114531)
(0.00124479 -0.121724 0.00112691)
(0.00149438 -0.121716 0.00110153)
(0.00173293 -0.119854 0.00107782)
(0.00195457 -0.116351 0.00106324)
(0.0021556 -0.111288 0.00106505)
(0.00233362 -0.104747 0.00108973)
(0.00248744 -0.0968618 0.00114208)
(0.00261758 -0.0878274 0.00122416)
(0.00272624 -0.0778768 0.00133504)
(0.00281677 -0.0672425 0.00147074)
(0.002893 -0.0561293 0.00162427)
(0.00295856 -0.044701 0.00178548)
(0.00301606 -0.0330805 0.00194085)
(0.00306625 -0.0213612 0.00207331)
(0.00310722 -0.00962878 0.00216265)
(0.00313374 0.00200996 0.00218733)
(0.0031378 0.0134136 0.00212906)
(0.00310994 0.0244621 0.00197948)
(0.00304133 0.0351369 0.00174428)
(0.00292497 0.0455577 0.00144281)
(0.00275599 0.0559791 0.00110461)
(0.0025318 0.0667289 0.000765054)
(0.00225274 0.0780645 0.000460861)
(0.00192305 0.0899138 0.000223662)
(0.00155113 0.101489 7.05079e-05)
(0.00115686 0.110934 -4.52842e-06)