/*--------------------------------*- C++ -*----------------------------------*\
| =========                 |                                                 |
| \\      /  F ield         | OpenFOAM: The Open Source CFD Toolbox           |
|  \\    /   O peration     | Version:  v1912                                 |
|   \\  /    A nd           | Website:  www.openfoam.com                      |
|    \\/     M anipulation  |                                                 |
\*---------------------------------------------------------------------------*/
FoamFile
{
    version     2.0;
    format      ascii;
    class       volVectorField;
    location    "4.5/oil";
    object      U;
}
// * * * * * * * * * * * * * * * * * * * * * * * * * * * * * * * * * * * * * //

dimensions      [0 1 -1 0 0 0 0];


internalField   nonuniform List<vector> 
35580
(
(-3.71883e-05 -3.71994e-05 -3.71577e-05)
(-4.0832e-05 -7.72364e-06 -7.68682e-06)
(-8.48138e-06 -5.43304e-06 -5.42472e-06)
(-7.48807e-06 -1.47663e-06 -1.47556e-06)
(-1.94868e-06 -9.33654e-07 -9.32138e-07)
(-1.57154e-06 -3.16509e-07 -3.16766e-07)
(-4.85975e-07 -1.80708e-07 -1.81423e-07)
(-3.91031e-07 -7.22379e-08 -7.35846e-08)
(-1.42801e-07 -3.88275e-08 -4.03382e-08)
(-1.19501e-07 -1.75586e-08 -1.92156e-08)
(-5.30379e-08 -8.9295e-09 -1.05789e-08)
(-4.64192e-08 -4.3346e-09 -5.92576e-09)
(-2.5892e-08 -1.93813e-09 -3.49582e-09)
(-2.34586e-08 -8.33677e-10 -2.32758e-09)
(-1.62663e-08 -1.18846e-10 -1.58643e-09)
(-1.51167e-08 1.90309e-10 -1.27838e-09)
(-1.23424e-08 4.4802e-10 -1.04311e-09)
(-1.17533e-08 5.68424e-10 -9.71432e-10)
(-1.0574e-08 6.83056e-10 -9.22885e-10)
(-1.01307e-08 7.43204e-10 -9.42618e-10)
(-9.31517e-09 7.89614e-10 -9.69416e-10)
(-8.53819e-09 7.96717e-10 -1.01261e-09)
(-7.35017e-09 7.83e-10 -1.03982e-09)
(-5.95643e-09 7.41756e-10 -1.04495e-09)
(-4.27378e-09 6.82435e-10 -1.00513e-09)
(-2.57766e-09 6.1359e-10 -9.09311e-10)
(-1.03212e-09 5.45793e-10 -7.59781e-10)
(3.15181e-11 4.97688e-10 -5.64595e-10)
(4.53328e-10 4.62346e-10 -3.70405e-10)
(2.38135e-10 3.94662e-10 -1.6376e-10)
(-7.70006e-06 -4.08857e-05 -7.69817e-06)
(-9.98849e-06 -1.00024e-05 -3.36581e-06)
(-4.037e-06 -8.4304e-06 -2.837e-06)
(-3.76835e-06 -2.36851e-06 -1.07358e-06)
(-1.39474e-06 -1.56184e-06 -7.05911e-07)
(-1.22776e-06 -5.10347e-07 -2.90959e-07)
(-4.95463e-07 -3.16533e-07 -1.71395e-07)
(-4.27686e-07 -1.19938e-07 -7.82966e-08)
(-1.99409e-07 -7.48743e-08 -4.35681e-08)
(-1.71554e-07 -3.37143e-08 -2.19791e-08)
(-9.49418e-08 -2.23863e-08 -1.18241e-08)
(-8.23573e-08 -1.26431e-08 -6.47391e-09)
(-5.43533e-08 -9.43148e-09 -3.358e-09)
(-4.81481e-08 -6.8264e-09 -1.87078e-09)
(-3.69541e-08 -5.74427e-09 -8.59623e-10)
(-3.36529e-08 -4.80973e-09 -4.3371e-10)
(-2.88188e-08 -4.22251e-09 -1.03084e-10)
(-2.70249e-08 -3.6722e-09 2.04369e-12)
(-2.4725e-08 -3.23473e-09 6.33654e-11)
(-2.34614e-08 -2.85429e-09 1.89665e-11)
(-2.17246e-08 -2.58841e-09 -5.11542e-11)
(-1.99246e-08 -2.40913e-09 -1.58466e-10)
(-1.74388e-08 -2.30378e-09 -2.6186e-10)
(-1.45073e-08 -2.21731e-09 -3.5504e-10)
(-1.10538e-08 -2.08167e-09 -4.08268e-10)
(-7.51377e-09 -1.8079e-09 -4.06042e-10)
(-4.21088e-09 -1.34149e-09 -3.48152e-10)
(-1.69405e-09 -6.51354e-10 -2.36846e-10)
(-2.27609e-10 1.41094e-10 -1.30179e-10)
(1.32145e-10 6.46766e-10 -2.51696e-11)
(-5.43936e-06 -8.5107e-06 -5.42961e-06)
(-8.43866e-06 -4.04582e-06 -2.83918e-06)
(-4.02455e-06 -4.02874e-06 -2.45272e-06)
(-3.8235e-06 -1.59786e-06 -1.01357e-06)
(-1.68433e-06 -1.22138e-06 -6.49867e-07)
(-1.39885e-06 -5.20969e-07 -2.82239e-07)
(-6.58783e-07 -3.71898e-07 -1.62648e-07)
(-5.27986e-07 -1.79002e-07 -7.63514e-08)
(-2.78186e-07 -1.26926e-07 -4.16443e-08)
(-2.2417e-07 -7.09771e-08 -2.10262e-08)
(-1.3533e-07 -5.25635e-08 -1.08815e-08)
(-1.1203e-07 -3.51667e-08 -5.66025e-09)
(-7.80224e-08 -2.84491e-08 -2.5135e-09)
(-6.71479e-08 -2.26514e-08 -1.0391e-09)
(-5.2932e-08 -1.9985e-08 -8.06212e-12)
(-4.73601e-08 -1.76526e-08 4.30942e-10)
(-4.09165e-08 -1.61936e-08 7.73704e-10)
(-3.792e-08 -1.48393e-08 8.87875e-10)
(-3.47038e-08 -1.37924e-08 9.50967e-10)
(-3.27148e-08 -1.28698e-08 9.01547e-10)
(-3.03136e-08 -1.21664e-08 8.1025e-10)
(-2.78327e-08 -1.15928e-08 6.74163e-10)
(-2.45974e-08 -1.11152e-08 5.27023e-10)
(-2.08076e-08 -1.05874e-08 3.77769e-10)
(-1.63772e-08 -9.84964e-09 2.54243e-10)
(-1.17682e-08 -8.71458e-09 1.73776e-10)
(-7.33652e-09 -7.07625e-09 1.34952e-10)
(-3.69699e-09 -4.91203e-09 1.46982e-10)
(-1.19147e-09 -2.44558e-09 1.47554e-10)
(6.4974e-12 -2.34481e-10 1.2217e-10)
(-1.48124e-06 -7.50601e-06 -1.47722e-06)
(-2.37208e-06 -3.78376e-06 -1.07397e-06)
(-1.58863e-06 -3.84064e-06 -1.01335e-06)
(-1.63774e-06 -1.66042e-06 -4.88777e-07)
(-8.74681e-07 -1.30099e-06 -3.33953e-07)
(-8.00073e-07 -6.01994e-07 -1.61452e-07)
(-4.35281e-07 -4.4125e-07 -9.79561e-08)
(-3.79996e-07 -2.29439e-07 -4.9759e-08)
(-2.25988e-07 -1.68809e-07 -2.81036e-08)
(-1.94148e-07 -1.02184e-07 -1.48697e-08)
(-1.29394e-07 -7.94761e-08 -7.64465e-09)
(-1.11778e-07 -5.72689e-08 -3.91218e-09)
(-8.34217e-08 -4.85274e-08 -1.43728e-09)
(-7.34563e-08 -4.06618e-08 -2.96953e-10)
(-6.01131e-08 -3.70025e-08 5.72456e-10)
(-5.41992e-08 -3.36869e-08 9.45889e-10)
(-4.74719e-08 -3.16004e-08 1.2599e-09)
(-4.39503e-08 -2.96304e-08 1.376e-09)
(-4.03112e-08 -2.80969e-08 1.4497e-09)
(-3.79067e-08 -2.67297e-08 1.41552e-09)
(-3.51658e-08 -2.56385e-08 1.33955e-09)
(-3.2371e-08 -2.46954e-08 1.21428e-09)
(-2.88454e-08 -2.38156e-08 1.06671e-09)
(-2.47359e-08 -2.27568e-08 9.02898e-10)
(-1.99227e-08 -2.12551e-08 7.47726e-10)
(-1.48277e-08 -1.90226e-08 6.18368e-10)
(-9.76889e-09 -1.58927e-08 5.16416e-10)
(-5.37548e-09 -1.18489e-08 4.62404e-10)
(-2.04687e-09 -7.14141e-09 3.86253e-10)
(-1.06436e-10 -2.23518e-09 2.55931e-10)
(-9.36263e-07 -1.9624e-06 -9.31957e-07)
(-1.56174e-06 -1.41636e-06 -7.05908e-07)
(-1.20957e-06 -1.71429e-06 -6.49733e-07)
(-1.27505e-06 -9.12151e-07 -3.3405e-07)
(-7.73838e-07 -8.15964e-07 -2.27965e-07)
(-7.01853e-07 -4.48029e-07 -1.15804e-07)
(-4.23051e-07 -3.66621e-07 -7.02008e-08)
(-3.629e-07 -2.21394e-07 -3.6784e-08)
(-2.32567e-07 -1.77914e-07 -2.05759e-08)
(-1.96941e-07 -1.21528e-07 -1.09868e-08)
(-1.3799e-07 -1.00769e-07 -5.43001e-09)
(-1.18179e-07 -7.85511e-08 -2.66466e-09)
(-9.06994e-08 -6.90085e-08 -7.35942e-10)
(-7.92734e-08 -5.99891e-08 9.54545e-11)
(-6.55009e-08 -5.54818e-08 7.85736e-10)
(-5.84878e-08 -5.13597e-08 1.07629e-09)
(-5.10758e-08 -4.86918e-08 1.35233e-09)
(-4.67747e-08 -4.62185e-08 1.46864e-09)
(-4.26138e-08 -4.43148e-08 1.5632e-09)
(-3.97757e-08 -4.26258e-08 1.5608e-09)
(-3.67944e-08 -4.12582e-08 1.52724e-09)
(-3.38885e-08 -4.00385e-08 1.43661e-09)
(-3.03689e-08 -3.88148e-08 1.31683e-09)
(-2.63146e-08 -3.72431e-08 1.16806e-09)
(-2.15429e-08 -3.49569e-08 1.01256e-09)
(-1.6399e-08 -3.1564e-08 8.66213e-10)
(-1.114e-08 -2.68325e-08 7.36044e-10)
(-6.37932e-09 -2.07225e-08 6.45606e-10)
(-2.56911e-09 -1.34128e-08 5.2718e-10)
(-1.69173e-10 -5.08393e-09 3.38493e-10)
(-3.18051e-07 -1.58657e-06 -3.15995e-07)
(-5.07405e-07 -1.25822e-06 -2.90494e-07)
(-5.0725e-07 -1.44176e-06 -2.81998e-07)
(-5.73989e-07 -8.5226e-07 -1.61578e-07)
(-4.03531e-07 -7.59819e-07 -1.15939e-07)
(-3.97779e-07 -4.58401e-07 -6.429e-08)
(-2.68561e-07 -3.78525e-07 -4.06556e-08)
(-2.47964e-07 -2.46865e-07 -2.28272e-08)
(-1.74774e-07 -2.01592e-07 -1.31179e-08)
(-1.56875e-07 -1.4579e-07 -7.35006e-09)
(-1.18582e-07 -1.22907e-07 -3.63313e-09)
(-1.05765e-07 -9.91875e-08 -1.82328e-09)
(-8.53158e-08 -8.8108e-08 -4.4117e-10)
(-7.60994e-08 -7.78282e-08 1.09746e-10)
(-6.42516e-08 -7.24079e-08 6.27826e-10)
(-5.75049e-08 -6.76024e-08 8.49529e-10)
(-5.02856e-08 -6.45367e-08 1.10097e-09)
(-4.57139e-08 -6.18077e-08 1.23455e-09)
(-4.13754e-08 -5.98061e-08 1.36794e-09)
(-3.83462e-08 -5.80616e-08 1.42069e-09)
(-3.53626e-08 -5.6689e-08 1.4491e-09)
(-3.26025e-08 -5.54338e-08 1.41517e-09)
(-2.9379e-08 -5.40737e-08 1.34353e-09)
(-2.57057e-08 -5.21661e-08 1.2324e-09)
(-2.13331e-08 -4.92444e-08 1.09859e-09)
(-1.65157e-08 -4.48193e-08 9.5997e-10)
(-1.14433e-08 -3.85825e-08 8.26712e-10)
(-6.69657e-09 -3.04391e-08 7.25562e-10)
(-2.76098e-09 -2.04324e-08 5.91948e-10)
(-1.91799e-10 -8.34471e-09 3.81544e-10)
(-1.81571e-07 -5.03426e-07 -1.80296e-07)
(-3.13001e-07 -5.34006e-07 -1.70821e-07)
(-3.57849e-07 -7.13067e-07 -1.62497e-07)
(-4.13019e-07 -5.00743e-07 -9.8252e-08)
(-3.22025e-07 -4.95307e-07 -7.0557e-08)
(-3.18043e-07 -3.43637e-07 -4.08868e-08)
(-2.32746e-07 -3.07308e-07 -2.58382e-08)
(-2.14843e-07 -2.23851e-07 -1.49419e-08)
(-1.60825e-07 -1.93883e-07 -8.49758e-09)
(-1.4475e-07 -1.51431e-07 -4.85842e-09)
(-1.14068e-07 -1.32539e-07 -2.36157e-09)
(-1.02007e-07 -1.11622e-07 -1.26497e-09)
(-8.4088e-08 -1.01018e-07 -3.59081e-10)
(-7.46518e-08 -9.07989e-08 -8.83564e-11)
(-6.31021e-08 -8.51011e-08 2.4303e-10)
(-5.56776e-08 -8.01309e-08 3.86025e-10)
(-4.80415e-08 -7.70784e-08 6.10964e-10)
(-4.28335e-08 -7.44959e-08 7.67525e-10)
(-3.81004e-08 -7.27577e-08 9.46755e-10)
(-3.4808e-08 -7.13412e-08 1.07499e-09)
(-3.18516e-08 -7.03371e-08 1.1794e-09)
(-2.93302e-08 -6.93951e-08 1.21904e-09)
(-2.65509e-08 -6.82106e-08 1.21142e-09)
(-2.34436e-08 -6.62493e-08 1.15087e-09)
(-1.96891e-08 -6.29426e-08 1.05314e-09)
(-1.5449e-08 -5.77178e-08 9.36323e-10)
(-1.08455e-08 -5.01787e-08 8.14877e-10)
(-6.418e-09 -4.01626e-08 7.17206e-10)
(-2.66162e-09 -2.75466e-08 5.87146e-10)
(-1.7749e-10 -1.169e-08 3.84572e-10)
(-7.29129e-08 -4.11378e-07 -7.23991e-08)
(-1.16495e-07 -4.73279e-07 -7.78907e-08)
(-1.65397e-07 -5.91949e-07 -7.64849e-08)
(-2.01995e-07 -4.56447e-07 -5.03388e-08)
(-1.78062e-07 -4.46749e-07 -3.74868e-08)
(-1.88246e-07 -3.34551e-07 -2.33921e-08)
(-1.51979e-07 -3.00345e-07 -1.52646e-08)
(-1.49242e-07 -2.31065e-07 -9.41175e-09)
(-1.21394e-07 -2.01629e-07 -5.53028e-09)
(-1.14864e-07 -1.62719e-07 -3.42114e-09)
(-9.6429e-08 -1.43004e-07 -1.84589e-09)
(-8.91099e-08 -1.22087e-07 -1.24006e-09)
(-7.61626e-08 -1.10374e-07 -6.93587e-10)
(-6.83109e-08 -9.93627e-08 -6.23442e-10)
(-5.81826e-08 -9.29746e-08 -4.19498e-10)
(-5.0849e-08 -8.77695e-08 -3.10148e-10)
(-4.32498e-08 -8.48284e-08 -8.37985e-11)
(-3.77323e-08 -8.26818e-08 1.18034e-10)
(-3.28571e-08 -8.15699e-08 3.62603e-10)
(-2.95033e-08 -8.093e-08 5.86813e-10)
(-2.67424e-08 -8.07465e-08 7.84093e-10)
(-2.46097e-08 -8.0561e-08 9.11104e-10)
(-2.24165e-08 -7.99616e-08 9.78033e-10)
(-2.0012e-08 -7.83201e-08 9.77066e-10)
(-1.70224e-08 -7.49708e-08 9.2369e-10)
(-1.35265e-08 -6.9266e-08 8.36862e-10)
(-9.58934e-09 -6.07263e-08 7.3731e-10)
(-5.70414e-09 -4.91177e-08 6.54791e-10)
(-2.35322e-09 -3.41548e-08 5.43025e-10)
(-1.40717e-10 -1.48053e-08 3.64851e-10)
(-3.95621e-08 -1.65519e-07 -3.92163e-08)
(-7.17861e-08 -2.50354e-07 -4.33045e-08)
(-1.14091e-07 -3.49244e-07 -4.20762e-08)
(-1.4271e-07 -3.104e-07 -2.89773e-08)
(-1.36634e-07 -3.24557e-07 -2.15937e-08)
(-1.4584e-07 -2.69244e-07 -1.39987e-08)
(-1.259e-07 -2.53502e-07 -9.12631e-09)
(-1.24909e-07 -2.09287e-07 -5.83047e-09)
(-1.07059e-07 -1.88467e-07 -3.46785e-09)
(-1.02456e-07 -1.58502e-07 -2.33964e-09)
(-8.91401e-08 -1.41426e-07 -1.46014e-09)
(-8.28896e-08 -1.22749e-07 -1.26797e-09)
(-7.19155e-08 -1.11199e-07 -1.0638e-09)
(-6.41073e-08 -1.00338e-07 -1.17843e-09)
(-5.4281e-08 -9.38221e-08 -1.11075e-09)
(-4.63855e-08 -8.88241e-08 -1.05188e-09)
(-3.83725e-08 -8.63558e-08 -8.31102e-10)
(-3.23289e-08 -8.51527e-08 -5.84674e-10)
(-2.72061e-08 -8.52251e-08 -2.63885e-10)
(-2.37581e-08 -8.59498e-08 5.29049e-11)
(-2.11873e-08 -8.71405e-08 3.43999e-10)
(-1.94441e-08 -8.82301e-08 5.57523e-10)
(-1.78345e-08 -8.86839e-08 6.98448e-10)
(-1.61299e-08 -8.77817e-08 7.56739e-10)
(-1.39144e-08 -8.47667e-08 7.48983e-10)
(-1.11978e-08 -7.89278e-08 6.94829e-10)
(-7.99783e-09 -6.97165e-08 6.20744e-10)
(-4.75836e-09 -5.68437e-08 5.57459e-10)
(-1.932e-09 -3.98935e-08 4.70215e-10)
(-9.14661e-11 -1.75095e-08 3.26858e-10)
(-1.83079e-08 -1.43738e-07 -1.82227e-08)
(-3.10154e-08 -2.25812e-07 -2.19442e-08)
(-5.9027e-08 -2.99582e-07 -2.17727e-08)
(-7.75813e-08 -2.83458e-07 -1.60597e-08)
(-8.24146e-08 -2.93838e-07 -1.22935e-08)
(-9.30336e-08 -2.5579e-07 -8.51917e-09)
(-8.74923e-08 -2.41021e-07 -5.74999e-09)
(-9.13309e-08 -2.0512e-07 -3.96194e-09)
(-8.39342e-08 -1.84683e-07 -2.56088e-09)
(-8.35442e-08 -1.57199e-07 -2.00129e-09)
(-7.6265e-08 -1.39261e-07 -1.55361e-09)
(-7.24949e-08 -1.20334e-07 -1.60405e-09)
(-6.42973e-08 -1.07437e-07 -1.63529e-09)
(-5.74732e-08 -9.58791e-08 -1.84418e-09)
(-4.85694e-08 -8.87635e-08 -1.85496e-09)
(-4.07156e-08 -8.38203e-08 -1.81186e-09)
(-3.27405e-08 -8.18755e-08 -1.5737e-09)
(-2.65344e-08 -8.18537e-08 -1.26946e-09)
(-2.14282e-08 -8.35515e-08 -8.64605e-10)
(-1.80661e-08 -8.61652e-08 -4.67387e-10)
(-1.57652e-08 -8.92551e-08 -8.97446e-11)
(-1.44228e-08 -9.21189e-08 2.02244e-10)
(-1.33553e-08 -9.40868e-08 4.10659e-10)
(-1.22802e-08 -9.43368e-08 5.23797e-10)
(-1.07645e-08 -9.20326e-08 5.60139e-10)
(-8.77244e-09 -8.64152e-08 5.40704e-10)
(-6.29332e-09 -7.68874e-08 4.97123e-10)
(-3.72143e-09 -6.31124e-08 4.57198e-10)
(-1.46674e-09 -4.45863e-08 3.98901e-10)
(-4.00326e-11 -1.9715e-08 2.88615e-10)
(-9.74031e-09 -7.80385e-08 -9.71357e-09)
(-2.00129e-08 -1.5071e-07 -1.19654e-08)
(-4.13448e-08 -2.12654e-07 -1.18746e-08)
(-5.60265e-08 -2.2081e-07 -9.11043e-09)
(-6.34183e-08 -2.36812e-07 -6.99771e-09)
(-7.26032e-08 -2.18806e-07 -5.04754e-09)
(-7.19671e-08 -2.10763e-07 -3.44157e-09)
(-7.61595e-08 -1.85894e-07 -2.52374e-09)
(-7.28627e-08 -1.6903e-07 -1.76656e-09)
(-7.33779e-08 -1.45776e-07 -1.60489e-09)
(-6.86878e-08 -1.28479e-07 -1.4865e-09)
(-6.55535e-08 -1.10115e-07 -1.74513e-09)
(-5.86502e-08 -9.65476e-08 -1.96872e-09)
(-5.21809e-08 -8.47676e-08 -2.25707e-09)
(-4.3784e-08 -7.73857e-08 -2.34117e-09)
(-3.59597e-08 -7.28428e-08 -2.32094e-09)
(-2.81005e-08 -7.18179e-08 -2.07879e-09)
(-2.18493e-08 -7.33576e-08 -1.74842e-09)
(-1.68365e-08 -7.71362e-08 -1.29753e-09)
(-1.35838e-08 -8.21001e-08 -8.54831e-10)
(-1.14897e-08 -8.75534e-08 -4.23855e-10)
(-1.04166e-08 -9.26094e-08 -8.50795e-11)
(-9.70846e-09 -9.64651e-08 1.65263e-10)
(-9.06217e-09 -9.82e-08 3.16368e-10)
(-8.05929e-09 -9.69061e-08 3.83823e-10)
(-6.63642e-09 -9.17874e-08 3.88491e-10)
(-4.75696e-09 -8.22198e-08 3.61788e-10)
(-2.7655e-09 -6.78557e-08 3.36712e-10)
(-1.02732e-09 -4.81573e-08 3.06589e-10)
(1.02086e-11 -2.13877e-08 2.41725e-10)
(-5.14035e-09 -7.14e-08 -5.16e-09)
(-1.04871e-08 -1.3802e-07 -6.76112e-09)
(-2.43493e-08 -1.89085e-07 -6.83116e-09)
(-3.44661e-08 -2.02875e-07 -5.53277e-09)
(-4.22862e-08 -2.16498e-07 -4.35504e-09)
(-5.0518e-08 -2.05046e-07 -3.32347e-09)
(-5.33449e-08 -1.97055e-07 -2.38231e-09)
(-5.8424e-08 -1.75888e-07 -1.90934e-09)
(-5.85721e-08 -1.58707e-07 -1.4979e-09)
(-6.04199e-08 -1.36212e-07 -1.51518e-09)
(-5.81495e-08 -1.17547e-07 -1.56333e-09)
(-5.61269e-08 -9.82499e-08 -1.89251e-09)
(-5.0943e-08 -8.3262e-08 -2.16054e-09)
(-4.54734e-08 -7.06691e-08 -2.44544e-09)
(-3.82e-08 -6.27241e-08 -2.54052e-09)
(-3.11242e-08 -5.8431e-08 -2.51868e-09)
(-2.40103e-08 -5.83541e-08 -2.27414e-09)
(-1.82493e-08 -6.15653e-08 -1.93877e-09)
(-1.36431e-08 -6.75806e-08 -1.48758e-09)
(-1.06294e-08 -7.50562e-08 -1.05022e-09)
(-8.71425e-09 -8.30581e-08 -6.21697e-10)
(-7.75323e-09 -9.04899e-08 -2.8003e-10)
(-7.17538e-09 -9.64048e-08 -2.4495e-11)
(-6.69885e-09 -9.97842e-08 1.34651e-10)
(-5.95196e-09 -9.96667e-08 2.1543e-10)
(-4.8701e-09 -9.52372e-08 2.40806e-10)
(-3.42904e-09 -8.58585e-08 2.42727e-10)
(-1.92475e-09 -7.11943e-08 2.46616e-10)
(-6.49967e-10 -5.07014e-08 2.45271e-10)
(4.63428e-11 -2.2576e-08 2.11813e-10)
(-2.73884e-09 -5.02978e-08 -2.78609e-09)
(-7.37026e-09 -1.08717e-07 -3.76046e-09)
(-1.78649e-08 -1.53214e-07 -3.83023e-09)
(-2.60615e-08 -1.72363e-07 -3.21241e-09)
(-3.32591e-08 -1.86742e-07 -2.57586e-09)
(-4.01246e-08 -1.82161e-07 -2.05678e-09)
(-4.36738e-08 -1.7635e-07 -1.52525e-09)
(-4.81072e-08 -1.59549e-07 -1.30537e-09)
(-4.91883e-08 -1.43429e-07 -1.09392e-09)
(-5.08585e-08 -1.22349e-07 -1.22095e-09)
(-4.94479e-08 -1.03273e-07 -1.35246e-09)
(-4.78796e-08 -8.37918e-08 -1.65652e-09)
(-4.38377e-08 -6.79653e-08 -1.89935e-09)
(-3.92705e-08 -5.48659e-08 -2.1526e-09)
(-3.32848e-08 -4.66508e-08 -2.23974e-09)
(-2.73453e-08 -4.27804e-08 -2.23292e-09)
(-2.13827e-08 -4.37791e-08 -2.03322e-09)
(-1.64801e-08 -4.87081e-08 -1.75457e-09)
(-1.24731e-08 -5.68921e-08 -1.37808e-09)
(-9.71725e-09 -6.67988e-08 -1.00564e-09)
(-7.85717e-09 -7.72981e-08 -6.34699e-10)
(-6.78637e-09 -8.70554e-08 -3.41763e-10)
(-6.04884e-09 -9.49525e-08 -1.21479e-10)
(-5.43937e-09 -9.99068e-08 1.66977e-11)
(-4.67483e-09 -1.00945e-07 9.44541e-11)
(-3.7068e-09 -9.72579e-08 1.30527e-10)
(-2.50821e-09 -8.82178e-08 1.48929e-10)
(-1.31271e-09 -7.34776e-08 1.69077e-10)
(-3.59454e-10 -5.24842e-08 1.88662e-10)
(7.51322e-11 -2.3411e-08 1.81948e-10)
(-1.63176e-09 -4.70255e-08 -1.65116e-09)
(-4.77288e-09 -1.00624e-07 -2.33314e-09)
(-1.2048e-08 -1.39795e-07 -2.45161e-09)
(-1.80794e-08 -1.59447e-07 -2.18978e-09)
(-2.40791e-08 -1.72237e-07 -1.84189e-09)
(-2.96338e-08 -1.69985e-07 -1.55367e-09)
(-3.32484e-08 -1.64129e-07 -1.21352e-09)
(-3.70217e-08 -1.4896e-07 -1.07005e-09)
(-3.85031e-08 -1.32617e-07 -9.01733e-10)
(-3.99734e-08 -1.11774e-07 -9.90355e-10)
(-3.92699e-08 -9.19569e-08 -1.05952e-09)
(-3.82715e-08 -7.19938e-08 -1.23644e-09)
(-3.55147e-08 -5.52709e-08 -1.364e-09)
(-3.2343e-08 -4.16405e-08 -1.51067e-09)
(-2.81711e-08 -3.3143e-08 -1.54912e-09)
(-2.39869e-08 -2.96102e-08 -1.54704e-09)
(-1.97242e-08 -3.14896e-08 -1.41667e-09)
(-1.61209e-08 -3.77955e-08 -1.24438e-09)
(-1.29891e-08 -4.76711e-08 -1.01259e-09)
(-1.0611e-08 -5.94644e-08 -7.85972e-10)
(-8.72901e-09 -7.18753e-08 -5.51564e-10)
(-7.31946e-09 -8.34338e-08 -3.54019e-10)
(-6.13302e-09 -9.2938e-08 -1.89045e-10)
(-5.09696e-09 -9.92551e-08 -7.15203e-11)
(-4.03316e-09 -1.01334e-07 6.49963e-12)
(-2.93882e-09 -9.8315e-08 4.90053e-11)
(-1.80649e-09 -8.95918e-08 8.17082e-11)
(-8.12809e-10 -7.48534e-08 1.16454e-10)
(-1.20296e-10 -5.3568e-08 1.52679e-10)
(9.73287e-11 -2.39122e-08 1.62943e-10)
(-9.22114e-10 -3.87676e-08 -9.25122e-10)
(-3.75724e-09 -8.70762e-08 -1.35644e-09)
(-9.44931e-09 -1.22553e-07 -1.45954e-09)
(-1.43991e-08 -1.42832e-07 -1.3649e-09)
(-1.93255e-08 -1.55316e-07 -1.18607e-09)
(-2.35983e-08 -1.55376e-07 -1.04331e-09)
(-2.64445e-08 -1.50333e-07 -8.46121e-10)
(-2.89726e-08 -1.37094e-07 -7.72427e-10)
(-2.9893e-08 -1.21532e-07 -6.31334e-10)
(-3.0665e-08 -1.01947e-07 -6.03962e-10)
(-3.00711e-08 -8.25355e-08 -5.38364e-10)
(-2.93567e-08 -6.295e-08 -5.62043e-10)
(-2.76535e-08 -4.61786e-08 -5.53186e-10)
(-2.58955e-08 -3.26896e-08 -5.57392e-10)
(-2.36889e-08 -2.43903e-08 -5.09899e-10)
(-2.15542e-08 -2.13663e-08 -5.0574e-10)
(-1.92261e-08 -2.39751e-08 -4.60597e-10)
(-1.70903e-08 -3.12283e-08 -4.24328e-10)
(-1.48984e-08 -4.21844e-08 -3.71473e-10)
(-1.28408e-08 -5.5116e-08 -3.20535e-10)
(-1.08176e-08 -6.86021e-08 -2.49952e-10)
(-8.94642e-09 -8.11501e-08 -1.95174e-10)
(-7.15966e-09 -9.155e-08 -1.41696e-10)
(-5.51598e-09 -9.86509e-08 -1.00793e-10)
(-3.96687e-09 -1.01351e-07 -6.15977e-11)
(-2.57379e-09 -9.87524e-08 -2.89116e-11)
(-1.36152e-09 -9.02532e-08 9.94528e-12)
(-4.55495e-10 -7.55571e-08 5.76915e-11)
(6.15145e-11 -5.41359e-08 1.15501e-10)
(1.15907e-10 -2.41789e-08 1.49095e-10)
(-6.29127e-10 -3.64141e-08 -6.04762e-10)
(-2.91024e-09 -8.11842e-08 -9.34412e-10)
(-7.21361e-09 -1.13639e-07 -1.04719e-09)
(-1.10759e-08 -1.33358e-07 -1.03127e-09)
(-1.49035e-08 -1.45048e-07 -9.45223e-10)
(-1.79965e-08 -1.4616e-07 -8.64523e-10)
(-2.00068e-08 -1.41595e-07 -7.08961e-10)
(-2.1491e-08 -1.29815e-07 -5.92742e-10)
(-2.17906e-08 -1.15094e-07 -4.13905e-10)
(-2.1864e-08 -9.67632e-08 -2.92058e-10)
(-2.11644e-08 -7.81593e-08 -1.02087e-10)
(-2.06943e-08 -5.95109e-08 6.65321e-11)
(-2.0047e-08 -4.33755e-08 2.73647e-10)
(-1.98311e-08 -3.05158e-08 4.31567e-10)
(-1.96324e-08 -2.2636e-08 5.65922e-10)
(-1.95853e-08 -1.99863e-08 5.8037e-10)
(-1.92176e-08 -2.28693e-08 5.43333e-10)
(-1.85717e-08 -3.03645e-08 4.34638e-10)
(-1.73354e-08 -4.15048e-08 2.94344e-10)
(-1.5605e-08 -5.46024e-08 1.50173e-10)
(-1.33851e-08 -6.82183e-08 3.64135e-11)
(-1.09233e-08 -8.087e-08 -5.38438e-11)
(-8.38056e-09 -9.13604e-08 -1.05117e-10)
(-6.01055e-09 -9.85403e-08 -1.3641e-10)
(-3.91725e-09 -1.01312e-07 -1.31454e-10)
(-2.20152e-09 -9.87808e-08 -1.06928e-10)
(-9.03728e-10 -9.03313e-08 -5.73549e-11)
(-8.74409e-11 -7.56656e-08 7.26448e-12)
(2.46864e-10 -5.42423e-08 8.72336e-11)
(1.3384e-10 -2.42369e-08 1.39949e-10)
(-4.11374e-10 -3.23256e-08 -3.55928e-10)
(-2.54538e-09 -7.35102e-08 -6.05724e-10)
(-6.12766e-09 -1.03539e-07 -7.31544e-10)
(-9.38732e-09 -1.22811e-07 -7.72081e-10)
(-1.24282e-08 -1.34293e-07 -7.52318e-10)
(-1.46097e-08 -1.36683e-07 -7.12795e-10)
(-1.57529e-08 -1.33313e-07 -5.94684e-10)
(-1.61633e-08 -1.23579e-07 -4.62646e-10)
(-1.56497e-08 -1.10622e-07 -2.41067e-10)
(-1.50012e-08 -9.43574e-08 1.59105e-11)
(-1.41085e-08 -7.75287e-08 3.54659e-10)
(-1.37997e-08 -6.07572e-08 6.82685e-10)
(-1.39426e-08 -4.61877e-08 1.03126e-09)
(-1.49183e-08 -3.46166e-08 1.31475e-09)
(-1.63522e-08 -2.7518e-08 1.52542e-09)
(-1.80545e-08 -2.52297e-08 1.54445e-09)
(-1.93234e-08 -2.80488e-08 1.43334e-09)
(-1.99234e-08 -3.51623e-08 1.19421e-09)
(-1.94469e-08 -4.56283e-08 8.83817e-10)
(-1.79264e-08 -5.7909e-08 5.72771e-10)
(-1.54964e-08 -7.06915e-08 2.96695e-10)
(-1.25457e-08 -8.25671e-08 6.73792e-11)
(-9.38222e-09 -9.23112e-08 -8.09424e-11)
(-6.3703e-09 -9.88363e-08 -1.70553e-10)
(-3.76103e-09 -1.01145e-07 -1.94232e-10)
(-1.72928e-09 -9.83585e-08 -1.7507e-10)
(-3.60386e-10 -8.98291e-08 -1.14532e-10)
(3.35896e-10 -7.52089e-08 -3.81294e-11)
(4.61237e-10 -5.39117e-08 5.62637e-11)
(1.56469e-10 -2.4082e-08 1.23956e-10)
(-3.39704e-10 -3.02548e-08 -2.61585e-10)
(-2.31782e-09 -6.85234e-08 -4.79743e-10)
(-5.3799e-09 -9.64039e-08 -6.1562e-10)
(-8.17512e-09 -1.14909e-07 -6.8296e-10)
(-1.06172e-08 -1.26072e-07 -7.02674e-10)
(-1.21238e-08 -1.2933e-07 -6.86193e-10)
(-1.26319e-08 -1.27083e-07 -5.88193e-10)
(-1.23335e-08 -1.19313e-07 -4.42114e-10)
(-1.12763e-08 -1.08443e-07 -1.91859e-10)
(-1.01157e-08 -9.47446e-08 1.41637e-10)
(-9.0471e-09 -8.03282e-08 5.83205e-10)
(-8.81208e-09 -6.59564e-08 1.04191e-09)
(-9.49279e-09 -5.34472e-08 1.4997e-09)
(-1.13177e-08 -4.35593e-08 1.85992e-09)
(-1.38644e-08 -3.75018e-08 2.09266e-09)
(-1.67301e-08 -3.55504e-08 2.10308e-09)
(-1.9074e-08 -3.80021e-08 1.93214e-09)
(-2.04776e-08 -4.41888e-08 1.60089e-09)
(-2.04612e-08 -5.32598e-08 1.17549e-09)
(-1.90237e-08 -6.39265e-08 7.44117e-10)
(-1.6384e-08 -7.50669e-08 3.41953e-10)
(-1.29813e-08 -8.5394e-08 1.50343e-11)
(-9.28906e-09 -9.37627e-08 -1.91451e-10)
(-5.82082e-09 -9.91498e-08 -2.99937e-10)
(-2.92841e-09 -1.00627e-07 -3.19015e-10)
(-8.26087e-10 -9.73335e-08 -2.84275e-10)
(4.28621e-10 -8.85811e-08 -1.97905e-10)
(9.00405e-10 -7.40052e-08 -9.72112e-11)
(7.401e-10 -5.2995e-08 2.22039e-11)
(1.86601e-10 -2.36397e-08 1.08849e-10)
(-2.87481e-10 -2.74249e-08 -1.86646e-10)
(-2.3034e-09 -6.2662e-08 -3.89953e-10)
(-5.17092e-09 -8.85339e-08 -5.45657e-10)
(-7.80395e-09 -1.06285e-07 -6.4455e-10)
(-9.97684e-09 -1.17327e-07 -7.01991e-10)
(-1.11633e-08 -1.21496e-07 -7.12507e-10)
(-1.13335e-08 -1.20579e-07 -6.38374e-10)
(-1.06236e-08 -1.14926e-07 -4.83952e-10)
(-9.24406e-09 -1.06464e-07 -2.11594e-10)
(-7.78085e-09 -9.56935e-08 1.55287e-10)
(-6.59378e-09 -8.4218e-08 6.22254e-10)
(-6.33762e-09 -7.26968e-08 1.12376e-09)
(-7.17565e-09 -6.26151e-08 1.61749e-09)
(-9.26461e-09 -5.4667e-08 1.99521e-09)
(-1.22029e-08 -4.97963e-08 2.21893e-09)
(-1.548e-08 -4.81785e-08 2.21842e-09)
(-1.81898e-08 -5.00776e-08 2.02152e-09)
(-1.98289e-08 -5.50045e-08 1.66529e-09)
(-1.98986e-08 -6.22501e-08 1.20096e-09)
(-1.83966e-08 -7.08088e-08 7.16548e-10)
(-1.55896e-08 -7.97184e-08 2.72209e-10)
(-1.19381e-08 -8.79308e-08 -7.86886e-11)
(-8.0154e-09 -9.45069e-08 -3.17703e-10)
(-4.38223e-09 -9.84997e-08 -4.50828e-10)
(-1.44421e-09 -9.90041e-08 -4.79906e-10)
(5.56289e-10 -9.51832e-08 -4.34323e-10)
(1.5439e-09 -8.63195e-08 -3.28166e-10)
(1.62298e-09 -7.19625e-08 -2.00453e-10)
(1.05755e-09 -5.14502e-08 -5.51658e-11)
(2.10677e-10 -2.28895e-08 7.14066e-11)
(-2.87146e-10 -2.51311e-08 -1.83352e-10)
(-2.39658e-09 -5.74212e-08 -4.05804e-10)
(-5.25981e-09 -8.12446e-08 -5.81456e-10)
(-7.93478e-09 -9.80039e-08 -7.06341e-10)
(-1.00979e-08 -1.08756e-07 -7.91477e-10)
(-1.1265e-08 -1.13583e-07 -8.22449e-10)
(-1.14277e-08 -1.13876e-07 -7.65166e-10)
(-1.06877e-08 -1.10183e-07 -6.2561e-10)
(-9.29879e-09 -1.04062e-07 -3.7909e-10)
(-7.76458e-09 -9.60988e-08 -3.99636e-11)
(-6.49985e-09 -8.75535e-08 3.90865e-10)
(-6.08736e-09 -7.8945e-08 8.6581e-10)
(-6.75096e-09 -7.13237e-08 1.3364e-09)
(-8.5782e-09 -6.52532e-08 1.6908e-09)
(-1.12186e-08 -6.15097e-08 1.88948e-09)
(-1.41671e-08 -6.01689e-08 1.88892e-09)
(-1.65463e-08 -6.14524e-08 1.69548e-09)
(-1.78703e-08 -6.50417e-08 1.34813e-09)
(-1.76779e-08 -7.03291e-08 9.0141e-10)
(-1.59325e-08 -7.66044e-08 4.3844e-10)
(-1.29545e-08 -8.31308e-08 1.94564e-11)
(-9.22796e-09 -8.91203e-08 -3.10705e-10)
(-5.3375e-09 -9.38026e-08 -5.27313e-10)
(-1.83463e-09 -9.6321e-08 -6.33277e-10)
(8.4725e-10 -9.58018e-08 -6.3514e-10)
(2.46545e-09 -9.14379e-08 -5.67738e-10)
(2.97564e-09 -8.25449e-08 -4.48254e-10)
(2.5423e-09 -6.86132e-08 -2.9958e-10)
(1.48175e-09 -4.89423e-08 -1.30525e-10)
(2.5451e-10 -2.17024e-08 2.9785e-11)
(-2.95423e-10 -2.22744e-08 -1.88771e-10)
(-2.60657e-09 -5.12758e-08 -4.38008e-10)
(-5.64481e-09 -7.29043e-08 -6.36306e-10)
(-8.55049e-09 -8.85028e-08 -7.77235e-10)
(-1.09546e-08 -9.88608e-08 -8.7812e-10)
(-1.24002e-08 -1.04165e-07 -9.27796e-10)
(-1.28572e-08 -1.05526e-07 -9.03589e-10)
(-1.2382e-08 -1.03574e-07 -8.0389e-10)
(-1.12222e-08 -9.95804e-08 -6.11121e-10)
(-9.78836e-09 -9.4145e-08 -3.36516e-10)
(-8.48249e-09 -8.82513e-08 1.6267e-11)
(-7.78156e-09 -8.23291e-08 4.06244e-10)
(-7.93124e-09 -7.70572e-08 7.9146e-10)
(-9.02678e-09 -7.27304e-08 1.09092e-09)
(-1.07944e-08 -6.99618e-08 1.25907e-09)
(-1.28006e-08 -6.88432e-08 1.27001e-09)
(-1.42807e-08 -6.95432e-08 1.10476e-09)
(-1.4809e-08 -7.18575e-08 8.00654e-10)
(-1.40254e-08 -7.52821e-08 4.20845e-10)
(-1.19303e-08 -7.94105e-08 2.52552e-11)
(-8.84418e-09 -8.37534e-08 -3.28201e-10)
(-5.21408e-09 -8.7725e-08 -6.02293e-10)
(-1.59081e-09 -9.06887e-08 -7.70964e-10)
(1.5176e-09 -9.18918e-08 -8.38934e-10)
(3.70115e-09 -9.05124e-08 -8.11788e-10)
(4.74299e-09 -8.5754e-08 -7.18333e-10)
(4.61036e-09 -7.69639e-08 -5.79563e-10)
(3.53829e-09 -6.36966e-08 -4.16397e-10)
(1.91402e-09 -4.52974e-08 -2.22804e-10)
(2.91252e-10 -2.0018e-08 -2.21925e-11)
(-3.22507e-10 -1.93367e-08 -2.13789e-10)
(-2.85646e-09 -4.47457e-08 -4.8827e-10)
(-6.16146e-09 -6.39738e-08 -7.05061e-10)
(-9.42579e-09 -7.81666e-08 -8.62946e-10)
(-1.22517e-08 -8.7891e-08 -9.85039e-10)
(-1.41886e-08 -9.33591e-08 -1.05992e-09)
(-1.51717e-08 -9.54648e-08 -1.075e-09)
(-1.51889e-08 -9.48539e-08 -1.0295e-09)
(-1.4427e-08 -9.25794e-08 -9.13945e-10)
(-1.31871e-08 -8.92018e-08 -7.32978e-10)
(-1.182e-08 -8.54752e-08 -4.87483e-10)
(-1.07201e-08 -8.17219e-08 -2.05896e-10)
(-1.01414e-08 -7.83729e-08 6.82576e-11)
(-1.01863e-08 -7.5537e-08 2.93137e-10)
(-1.06962e-08 -7.36106e-08 4.21849e-10)
(-1.13686e-08 -7.27075e-08 4.34905e-10)
(-1.15979e-08 -7.29473e-08 3.03638e-10)
(-1.10456e-08 -7.41781e-08 6.85872e-11)
(-9.47694e-09 -7.60498e-08 -2.13737e-10)
(-6.94008e-09 -7.8396e-08 -5.12212e-10)
(-3.7424e-09 -8.09223e-08 -7.67865e-10)
(-2.94861e-10 -8.32109e-08 -9.55439e-10)
(2.91171e-09 -8.47555e-08 -1.05339e-09)
(5.437e-09 -8.49076e-08 -1.06731e-09)
(6.92508e-09 -8.29161e-08 -9.99254e-10)
(7.22469e-09 -7.80303e-08 -8.74354e-10)
(6.34458e-09 -6.96243e-08 -7.11527e-10)
(4.58017e-09 -5.73137e-08 -5.33531e-10)
(2.36416e-09 -4.05586e-08 -3.19095e-10)
(3.32426e-10 -1.78225e-08 -7.70914e-11)
(-3.42665e-10 -1.5951e-08 -2.38026e-10)
(-3.08765e-09 -3.74008e-08 -5.36589e-10)
(-6.67624e-09 -5.3989e-08 -7.65854e-10)
(-1.0359e-08 -6.65241e-08 -9.31526e-10)
(-1.37165e-08 -7.53565e-08 -1.06867e-09)
(-1.62822e-08 -8.06755e-08 -1.16835e-09)
(-1.79251e-08 -8.31896e-08 -1.22629e-09)
(-1.85474e-08 -8.35052e-08 -1.24248e-09)
(-1.82532e-08 -8.24934e-08 -1.21201e-09)
(-1.72357e-08 -8.06589e-08 -1.1331e-09)
(-1.57784e-08 -7.85754e-08 -1.00373e-09)
(-1.42043e-08 -7.64601e-08 -8.42006e-10)
(-1.27816e-08 -7.45503e-08 -6.76758e-10)
(-1.1659e-08 -7.28844e-08 -5.25548e-10)
(-1.0777e-08 -7.16667e-08 -4.31442e-10)
(-9.95899e-09 -7.09547e-08 -4.23362e-10)
(-8.80419e-09 -7.08411e-08 -5.19204e-10)
(-7.06273e-09 -7.12496e-08 -6.76161e-10)
(-4.63466e-09 -7.19845e-08 -8.59364e-10)
(-1.63133e-09 -7.30006e-08 -1.05226e-09)
(1.65785e-09 -7.4169e-08 -1.20226e-09)
(4.86778e-09 -7.52093e-08 -1.29557e-09)
(7.5738e-09 -7.57318e-08 -1.31694e-09)
(9.41881e-09 -7.51829e-08 -1.27282e-09)
(1.01209e-08 -7.28946e-08 -1.16394e-09)
(9.61026e-09 -6.81814e-08 -1.01102e-09)
(7.95447e-09 -6.04769e-08 -8.24425e-10)
(5.51679e-09 -4.94552e-08 -6.3096e-10)
(2.76182e-09 -3.4729e-08 -3.99194e-10)
(3.70158e-10 -1.51088e-08 -1.24793e-10)
(-3.56924e-10 -1.23909e-08 -2.57573e-10)
(-3.22735e-09 -2.96517e-08 -5.67429e-10)
(-7.03101e-09 -4.33827e-08 -8.03357e-10)
(-1.10985e-08 -5.4017e-08 -9.71091e-10)
(-1.49924e-08 -6.16956e-08 -1.12118e-09)
(-1.82156e-08 -6.65421e-08 -1.24462e-09)
(-2.05516e-08 -6.91056e-08 -1.34747e-09)
(-2.17997e-08 -6.9922e-08 -1.42753e-09)
(-2.1968e-08 -6.97072e-08 -1.48217e-09)
(-2.115e-08 -6.89e-08 -1.50295e-09)
(-1.95665e-08 -6.7934e-08 -1.4833e-09)
(-1.75049e-08 -6.69344e-08 -1.43265e-09)
(-1.52609e-08 -6.60349e-08 -1.35922e-09)
(-1.30244e-08 -6.52268e-08 -1.27442e-09)
(-1.08229e-08 -6.456e-08 -1.21347e-09)
(-8.59483e-09 -6.39985e-08 -1.20996e-09)
(-6.13999e-09 -6.36427e-08 -1.26706e-09)
(-3.30103e-09 -6.34963e-08 -1.35506e-09)
(-8.83737e-11 -6.34895e-08 -1.44848e-09)
(3.35084e-09 -6.36343e-08 -1.53789e-09)
(6.71928e-09 -6.39007e-08 -1.58825e-09)
(9.67878e-09 -6.41224e-08 -1.58963e-09)
(1.18688e-08 -6.40079e-08 -1.5357e-09)
(1.3017e-08 -6.30977e-08 -1.43396e-09)
(1.29259e-08 -6.08152e-08 -1.28461e-09)
(1.16212e-08 -5.65612e-08 -1.10573e-09)
(9.2445e-09 -4.98488e-08 -9.01254e-10)
(6.22087e-09 -4.04241e-08 -6.9558e-10)
(3.03848e-09 -2.80626e-08 -4.53642e-10)
(3.91209e-10 -1.20043e-08 -1.61162e-10)
(-3.45425e-10 -8.67925e-09 -2.54368e-10)
(-3.19382e-09 -2.16361e-08 -5.54186e-10)
(-7.06615e-09 -3.23674e-08 -7.79778e-10)
(-1.13859e-08 -4.09007e-08 -9.38693e-10)