/*--------------------------------*- C++ -*----------------------------------*\
| =========                 |                                                 |
| \\      /  F ield         | OpenFOAM: The Open Source CFD Toolbox           |
|  \\    /   O peration     | Version:  v1912                                 |
|   \\  /    A nd           | Website:  www.openfoam.com                      |
|    \\/     M anipulation  |                                                 |
\*---------------------------------------------------------------------------*/
FoamFile
{
    version     2.0;
    format      ascii;
    class       surfaceScalarField;
    location    "38/oil";
    object      phi;
}
// * * * * * * * * * * * * * * * * * * * * * * * * * * * * * * * * * * * * * //

dimensions      [1 0 -1 0 0 0 0];
oriented        oriented;


internalField   nonuniform List<scalar> 
104676
(
-5.04558e-12
1.58866e-11
-6.89308e-12
1.6314e-10
-1.34322e-10
-3.38288e-11
5.06492e-10
-2.50476e-10
-9.28353e-11
9.71583e-10
-3.05124e-10
-1.59921e-10
1.48995e-09
-3.11903e-10
-2.06416e-10
1.99356e-09
-2.83975e-10
-2.19581e-10
2.42108e-09
-2.31528e-10
-1.95945e-10
2.72129e-09
-1.62092e-10
-1.38066e-10
2.85419e-09
-8.14518e-11
-5.14027e-11
2.79828e-09
3.17235e-12
5.27898e-11
2.54278e-09
9.03986e-11
1.65164e-10
2.10537e-09
1.61721e-10
2.7575e-10
1.50888e-09
2.26585e-10
3.69977e-10
7.96067e-10
2.73612e-10
4.39272e-10
2.14305e-11
2.98523e-10
4.76194e-10
-7.55824e-10
2.99964e-10
4.77377e-10
-1.47118e-09
2.74183e-10
4.41267e-10
-2.07102e-09
2.26894e-10
3.73031e-10
-2.51389e-09
1.63371e-10
2.79595e-10
-2.77395e-09
8.91074e-11
1.71044e-10
-2.83822e-09
4.59038e-12
5.97625e-11
-2.70978e-09
-8.22946e-11
-4.60536e-11
-2.41344e-09
-1.62642e-10
-1.33608e-10
-1.9891e-09
-2.32059e-10
-1.92206e-10
-1.48821e-09
-2.84381e-10
-2.16435e-10
-9.71951e-10
-3.13004e-10
-2.03183e-10
-5.07997e-10
-3.07252e-10
-1.56635e-10
-1.64692e-10
-2.53456e-10
-8.97849e-11
4.5853e-12
-1.37731e-10
-3.14883e-11
1.09213e-11
-6.30015e-12
1.66118e-10
-3.16178e-10
1.65981e-10
6.37071e-10
-9.44564e-10
3.39332e-10
1.38391e-09
-1.41687e-09
4.19611e-10
2.32331e-09
-1.70399e-09
4.59523e-10
3.3424e-09
-1.84121e-09
5.10269e-10
4.3199e-09
-1.86288e-09
6.01457e-10
5.14135e-09
-1.79812e-09
7.452e-10
5.70774e-09
-1.66981e-09
9.41387e-10
5.94193e-09
-1.49706e-09
1.18148e-09
5.79449e-09
-1.29704e-09
1.44772e-09
5.24225e-09
-1.08664e-09
1.72935e-09
4.31573e-09
-9.02351e-10
1.99068e-09
3.08411e-09
-7.40158e-10
2.19845e-09
1.62531e-09
-6.22724e-10
2.35523e-09
4.33752e-11
-5.61173e-10
2.44173e-09
-1.54509e-09
-5.61324e-10
2.44985e-09
-3.00903e-09
-6.24857e-10
2.36308e-09
-4.2436e-09
-7.43941e-10
2.20552e-09
-5.16477e-09
-9.0617e-10
1.99081e-09
-5.72127e-09
-1.09387e-09
1.73958e-09
-5.88032e-09
-1.30133e-09
1.46507e-09
-5.65684e-09
-1.49996e-09
1.19428e-09
-5.10273e-09
-1.67116e-09
9.54516e-10
-4.29407e-09
-1.79916e-09
7.58534e-10
-3.32725e-09
-1.86481e-09
6.13695e-10
-2.31754e-09
-1.84448e-09
5.21844e-10
-1.38429e-09
-1.71027e-09
4.69844e-10
-6.38839e-10
-1.4259e-09
4.27069e-10
-1.66477e-10
-9.5281e-10
3.42784e-10
-3.21505e-10
1.65991e-10
3.46924e-10
-1.0131e-09
3.50038e-10
1.10058e-09
-2.44544e-09
7.47276e-10
2.15636e-09
-3.46619e-09
9.93602e-10
3.41027e-09
-4.1309e-09
1.17307e-09
4.73272e-09
-4.51211e-09
1.34851e-09
5.98117e-09
-4.66952e-09
1.55826e-09
7.01644e-09
-4.65416e-09
1.82084e-09
7.71525e-09
-4.50796e-09
2.1394e-09
7.98139e-09
-4.26892e-09
2.50579e-09
7.75328e-09
-3.96889e-09
2.90005e-09
7.00064e-09
-3.64249e-09
3.30857e-09
5.75524e-09
-3.33387e-09
3.67701e-09
4.10717e-09
-3.0631e-09
3.97111e-09
2.16259e-09
-2.86528e-09
4.18724e-09
5.62616e-11
-2.76312e-09
4.30838e-09
-2.06065e-09
-2.76766e-09
4.32335e-09
-4.0128e-09
-2.87101e-09
4.19842e-09
-5.66349e-09
-3.06936e-09
3.97621e-09
-6.90469e-09
-3.33774e-09
3.67288e-09
-7.67064e-09
-3.64892e-09
3.3211e-09
-7.91518e-09
-3.97459e-09
2.91791e-09
-7.66214e-09
-4.27257e-09
2.51966e-09
-6.97672e-09
-4.51072e-09
2.15424e-09
-5.95498e-09
-4.65629e-09
1.83548e-09
-4.71885e-09
-4.67298e-09
1.57213e-09
-3.40527e-09
-4.51888e-09
1.3609e-09
-2.15746e-09
-4.14108e-09
1.18308e-09
-1.10379e-09
-3.47913e-09
9.99652e-10
-3.48652e-10
-2.45632e-09
7.48446e-10
-1.01949e-09
3.49378e-10
4.96175e-10
-2.01122e-09
5.02007e-10
1.4871e-09
-4.51762e-09
1.08132e-09
2.79297e-09
-6.23276e-09
1.46076e-09
4.28615e-09
-7.37694e-09
1.75293e-09
5.82417e-09
-8.08302e-09
2.03296e-09
7.25365e-09
-8.44219e-09
2.34325e-09
8.42402e-09
-8.52982e-09
2.70536e-09
9.20049e-09
-8.40801e-09
3.12365e-09
9.47367e-09
-8.13296e-09
3.59093e-09
9.1726e-09
-7.75615e-09
4.08843e-09
8.26174e-09
-7.32952e-09
4.59799e-09
6.78391e-09
-6.90393e-09
5.048e-09
4.83719e-09
-6.53315e-09
5.41687e-09
2.54504e-09
-6.24719e-09
5.67416e-09
6.41817e-11
-6.10128e-09
5.81914e-09
-2.43063e-09
-6.11121e-09
5.83847e-09
-4.73253e-09
-6.25326e-09
5.68427e-09
-6.68343e-09
-6.53102e-09
5.41267e-09
-8.15839e-09
-6.90341e-09
5.04074e-09
-9.08143e-09
-7.33059e-09
4.60481e-09
-9.39848e-09
-7.75751e-09
4.10009e-09
-9.14008e-09
-8.13379e-09
3.60291e-09
-8.3791e-09
-8.40903e-09
3.13742e-09
-7.22283e-09
-8.53124e-09
2.71878e-09
-5.80668e-09
-8.44581e-09
2.35676e-09
-4.27995e-09
-8.0907e-09
2.04518e-09
-2.79308e-09
-7.38965e-09
1.7618e-09
-1.49013e-09
-6.24568e-09
1.46367e-09
-4.99627e-10
-4.52343e-09
1.07669e-09
-2.01935e-09
5.00279e-10
6.08656e-10
-3.23391e-09
6.14089e-10
1.78243e-09
-7.01653e-09
1.3252e-09
3.28408e-09
-9.53833e-09
1.80399e-09
4.96183e-09
-1.12341e-08
2.17944e-09
6.66139e-09
-1.23205e-08
2.53796e-09
8.22191e-09
-1.29298e-08
2.92712e-09
9.48666e-09
-1.31642e-08
3.36966e-09
1.03135e-08
-1.31066e-08
3.87177e-09
1.05882e-08
-1.28315e-08
4.42404e-09
1.02323e-08
-1.24088e-08
5.00855e-09
9.20803e-09
-1.19098e-08
5.60471e-09
7.55954e-09
-1.13971e-08
6.14179e-09
5.38587e-09
-1.09366e-08
6.57724e-09
2.83183e-09
-1.05623e-08
6.86921e-09
6.94678e-11
-1.03727e-08
7.03392e-09
-2.70922e-09
-1.03864e-08
7.05399e-09
-5.27096e-09
-1.05702e-08
6.8788e-09
-7.44514e-09
-1.09214e-08
6.56471e-09
-9.09693e-09
-1.13916e-08
6.14006e-09
-1.0135e-08
-1.19074e-08
5.61497e-09
-1.05075e-08
-1.24074e-08
5.02255e-09
-1.02492e-08
-1.28308e-08
4.43872e-09
-9.43769e-09
-1.31072e-08
3.88676e-09
-8.187e-09
-1.31662e-08
3.38432e-09
-6.63976e-09
-1.29339e-08
2.94091e-09
-4.95221e-09
-1.2328e-08
2.54982e-09
-3.28304e-09
-1.1246e-08
2.18727e-09
-1.78438e-09
-9.54929e-09
1.80505e-09
-6.11717e-10
-7.01413e-09
1.3181e-09
-3.24367e-09
6.12649e-10
6.84133e-10
-4.60859e-09
6.90609e-10
1.98767e-09
-9.80788e-09
1.48788e-09
3.63158e-09
-1.32172e-08
2.03502e-09
5.44326e-09
-1.55157e-08
2.46999e-09
7.25936e-09
-1.70222e-08
2.88573e-09
8.91411e-09
-1.79199e-08
3.33551e-09
1.02473e-08
-1.83406e-08
3.84339e-09
1.11127e-08
-1.83888e-08
4.41693e-09
1.13917e-08
-1.81562e-08
5.04566e-09
1.10033e-08
-1.77286e-08
5.70839e-09
9.90742e-09
-1.71935e-08
6.37967e-09
8.13417e-09
-1.66368e-08
7.01303e-09
5.79259e-09
-1.61123e-08
7.51743e-09
3.04374e-09
-1.56562e-08
7.84286e-09
7.08389e-11
-1.54177e-08
8.018e-09
-2.91982e-09
-1.54326e-08
8.03703e-09
-5.67105e-09
-1.56762e-08
7.8574e-09
-8.00869e-09
-1.60851e-08
7.50138e-09
-9.7891e-09
-1.66275e-08
7.01642e-09
-1.09009e-08
-1.71901e-08
6.39464e-09
-1.13079e-08
-1.77263e-08
5.72598e-09
-1.10462e-08
-1.81557e-08
5.0634e-09
-1.01967e-08
-1.83908e-08
4.43418e-09
-8.87793e-09
-1.83444e-08
3.85961e-09
-7.23565e-09
-1.79257e-08
3.34968e-09
-5.43094e-09
-1.70303e-08
2.89769e-09
-3.62848e-09
-1.55256e-08
2.47727e-09
-1.98999e-09
-1.32223e-08
2.03465e-09
-6.87684e-10
-9.79704e-09
1.48069e-09
-4.62133e-09
6.90027e-10
7.22054e-10
-6.06824e-09
7.37659e-10
2.10543e-09
-1.27847e-08
1.5935e-09
3.83911e-09
-1.71273e-08
2.17654e-09
5.73393e-09
-2.00548e-08
2.64441e-09
7.62172e-09
-2.20089e-08
3.09896e-09
9.33498e-09
-2.32271e-08
3.59401e-09
1.07128e-08
-2.38731e-08
4.15471e-09
1.16062e-08
-2.40723e-08
4.79013e-09
1.18948e-08
-2.39327e-08
5.48808e-09
1.14927e-08
-2.35517e-08
6.2253e-09
1.03591e-08
-2.30321e-08
6.97231e-09
8.50375e-09
-2.24737e-08
7.69228e-09
6.05845e-09
-2.19363e-08
8.26937e-09
3.18283e-09
-2.14061e-08
8.62565e-09
7.55552e-11
-2.11231e-08
8.81281e-09
-3.04687e-09
-2.11463e-08
8.83619e-09
-5.93462e-09
-2.14453e-08
8.65691e-09
-8.37526e-09
-2.19047e-08
8.26039e-09
-1.02379e-08
-2.24659e-08
7.70122e-09
-1.13887e-08
-2.30324e-08
6.99313e-09
-1.18095e-08
-2.35535e-08
6.24814e-09
-1.15391e-08
-2.3936e-08
5.50987e-09
-1.06618e-08
-2.40782e-08
4.81015e-09
-9.29854e-09
-2.38812e-08
4.17357e-09
-7.59725e-09
-2.32365e-08
3.60951e-09
-5.72042e-09
-2.20184e-08
3.11143e-09
-3.83527e-09
-2.00615e-08
2.65083e-09
-2.11016e-09
-1.71193e-08
2.17192e-09
-7.31e-10
-1.27546e-08
1.5785e-09
-6.08836e-09
7.36076e-10
7.36264e-10
-7.55767e-09
7.53212e-10
2.14292e-09
-1.58252e-08
1.63396e-09
3.90637e-09
-2.11249e-08
2.23419e-09
5.82981e-09
-2.46943e-08
2.71613e-09
7.73942e-09
-2.71082e-08
3.18975e-09
9.4703e-09
-2.86732e-08
3.71527e-09
1.08641e-08
-2.95831e-08
4.31635e-09
1.17727e-08
-2.99826e-08
5.00176e-09
1.2073e-08
-2.99925e-08
5.75967e-09
1.16776e-08
-2.97209e-08
6.56464e-09
1.05384e-08
-2.92764e-08
7.3837e-09
8.65449e-09
-2.87723e-08
8.18263e-09
6.16251e-09
-2.82856e-08
8.84135e-09
3.23276e-09
-2.76947e-08
9.2185e-09
7.54911e-11
-2.73928e-08
9.42708e-09
-3.10141e-09
-2.74215e-08
9.45225e-09
-6.05479e-09
-2.77361e-08
9.24425e-09
-8.53162e-09
-2.82536e-08
8.82581e-09
-1.04184e-08
-2.87685e-08
8.18943e-09
-1.15742e-08
-2.92818e-08
7.40526e-09
-1.1989e-08
-2.97274e-08
6.58881e-09
-1.17067e-08
-3.00011e-08
5.78292e-09
-1.08138e-08
-2.99945e-08
5.02352e-09
-9.43399e-09
-2.95977e-08
4.33682e-09
-7.71475e-09
-2.86883e-08
3.73271e-09
-5.81622e-09
-2.71198e-08
3.20294e-09
-3.90507e-09
-2.46909e-08
2.71826e-09
-2.15124e-09
-2.1094e-08
2.22096e-09
-7.44548e-10
-1.57749e-08
1.61363e-09
-7.58599e-09
7.53119e-10
7.23565e-10
-9.02082e-09
7.39638e-10
2.09693e-09
-1.88108e-08
1.61221e-09
3.82472e-09
-2.50709e-08
2.21826e-09
5.71535e-09
-2.92859e-08
2.70104e-09
7.59362e-09
-3.21569e-08
3.17045e-09
9.29403e-09
-3.40751e-08
3.70155e-09
1.06671e-08
-3.52793e-08
4.3232e-09
1.15704e-08
-3.59255e-08
5.03966e-09
1.18807e-08
-3.61407e-08
5.83793e-09
1.15089e-08
-3.60411e-08
6.69205e-09
1.04091e-08
-3.57372e-08
7.56069e-09
8.5724e-09
-3.53383e-08
8.40284e-09
6.09404e-09
-3.49362e-08
9.12908e-09
3.1928e-09
-3.43281e-08
9.53476e-09
7.27037e-11
-3.40531e-08
9.78044e-09
-3.071e-09
-3.4079e-08
9.80124e-09
-6.00411e-09
-3.43454e-08
9.5426e-09
-8.46423e-09
-3.4889e-08
9.09566e-09
-1.0294e-08
-3.53378e-08
8.39916e-09
-1.14083e-08
-3.57481e-08
7.58063e-09
-1.17984e-08
-3.60545e-08
6.71733e-09
-1.15058e-08
-3.61563e-08
5.86262e-09
-1.06182e-08
-3.59446e-08
5.06263e-09
-9.25859e-09
-3.53018e-08
4.34457e-09
-7.57043e-09
-3.40945e-08
3.71805e-09
-5.70843e-09
-3.21552e-08
3.17348e-09
-3.8334e-09
-2.92477e-08
2.68185e-09
-2.11167e-09
-2.50012e-08
2.18552e-09
-7.28894e-10
-1.87464e-08
1.58877e-09
-9.05551e-09
7.40654e-10
6.86674e-10
-1.04012e-08
6.93766e-10
1.98347e-09
-2.16217e-08
1.51417e-09
3.59841e-09
-2.87903e-08
2.10454e-09
5.37824e-09
-3.36509e-08
2.5852e-09
7.16112e-09
-3.69812e-08
3.04153e-09
8.77664e-09
-3.92398e-08
3.54927e-09
1.00844e-08
-4.07488e-08
4.16177e-09
1.0953e-08
-4.16747e-08
4.88061e-09
1.12669e-08
-4.21432e-08
5.68869e-09
1.09348e-08
-4.22687e-08
6.55975e-09
9.91309e-09
-4.21611e-08
7.44577e-09
8.19274e-09
-4.19187e-08
8.30082e-09
5.8062e-09
-4.16123e-08
9.06273e-09
3.04048e-09
-4.10658e-08
9.50349e-09
6.86868e-11
-4.08452e-08
9.764e-09
-2.9216e-09
-4.08703e-08
9.78167e-09
-5.70948e-09
-4.10548e-08
9.49729e-09
-8.08763e-09
-4.15168e-08
9.00603e-09
-9.80465e-09
-4.19137e-08
8.29303e-09
-1.08381e-08
-4.21794e-08
7.46485e-09
-1.1188e-08
-4.22897e-08
6.58518e-09
-1.08919e-08
-4.2166e-08
5.7137e-09
-1.00376e-08
-4.17026e-08
4.90372e-09
-8.74148e-09
-4.07798e-08
4.18186e-09
-7.14251e-09
-3.92504e-08
3.55698e-09
-5.38228e-09
-3.69344e-08
3.01899e-09
-3.60953e-09
-3.35591e-08
2.5387e-09
-1.98544e-09
-2.86866e-08
2.06135e-09
-6.84705e-10
-2.15425e-08
1.49544e-09
-1.04382e-08
6.97965e-10
6.20002e-10
-1.16373e-08
6.16086e-10
1.79499e-09
-2.41237e-08
1.32706e-09
3.24314e-09
-3.20949e-08
1.85648e-09
4.82538e-09
-3.75602e-08
2.32706e-09
6.43012e-09
-4.13541e-08
2.76821e-09
7.89382e-09
-4.39416e-08
3.23811e-09
9.0852e-09
-4.575e-08
3.80993e-09
9.88611e-09
-4.69716e-08
4.49606e-09
1.01896e-08
-4.77187e-08
5.27209e-09
9.91253e-09
-4.80979e-08
6.10633e-09
9.02255e-09
-4.82059e-08
6.93488e-09
7.49597e-09
-4.81134e-08
7.7213e-09
5.29585e-09
-4.78791e-08
8.46705e-09
2.76868e-09
-4.75242e-08
8.98558e-09
6.34735e-11
-4.73976e-08
9.25771e-09
-2.65349e-09
-4.74235e-08
9.27026e-09
-5.17052e-09
-4.7518e-08
8.98032e-09
-7.33511e-09
-4.78382e-08
8.48609e-09
-8.88873e-09
-4.81872e-08
7.82721e-09
-9.81583e-09
-4.82494e-08
6.9972e-09
-1.01136e-08
-4.81279e-08
6.13602e-09
-9.82857e-09
-4.77453e-08
5.2942e-09
-9.04022e-09
-4.70063e-08
4.51545e-09
-7.85742e-09
-4.57869e-08
3.82442e-09
-6.41089e-09
-4.39271e-08
3.23022e-09
-4.82252e-09
-4.12433e-08
2.72061e-09
-3.22184e-09
-3.74274e-08
2.26765e-09
-1.76348e-09
-3.19752e-08
1.83034e-09
-6.02346e-10
-2.40284e-08
1.32474e-09
-1.16616e-08
6.21149e-10
5.22891e-10
-1.26691e-08
5.0893e-10
1.52497e-09
-2.61934e-08
1.06764e-09
2.74985e-09
-3.47873e-08
1.46751e-09
4.07833e-09
-4.07579e-08
1.86926e-09
5.40187e-09
-4.49717e-08
2.29406e-09
6.63155e-09
-4.79034e-08
2.73221e-09
7.64883e-09
-5.00045e-08
3.23718e-09
8.3494e-09
-5.15215e-08
3.84939e-09
8.63621e-09
-5.255e-08
4.5445e-09
8.43323e-09
-5.31644e-08
5.26952e-09
7.68954e-09
-5.34429e-08
5.98073e-09
6.35803e-09
-5.35163e-08
6.73455e-09
4.49894e-09
-5.34661e-08
7.44616e-09
2.36014e-09
-5.33117e-08
7.92645e-09
5.53804e-11
-5.32646e-08
8.17181e-09
-2.26696e-09
-5.32534e-08
8.15233e-09
-4.41251e-09
-5.32351e-08
7.86271e-09
-6.24927e-09
-5.34034e-08
7.40194e-09
-7.56179e-09
-5.3685e-08
6.8104e-09
-8.32779e-09
-5.35175e-08
6.03418e-09
-8.55555e-09
-5.31801e-08
5.27996e-09
-8.29256e-09
-5.25561e-08
4.54787e-09
-7.60544e-09
-5.15512e-08
3.85783e-09
-6.58577e-09
-5.00464e-08
3.23982e-09
-5.35962e-09
-4.78692e-08
2.71605e-09
-4.02888e-09
-4.48546e-08
2.28059e-09
-2.70603e-09
-4.06628e-08
1.91263e-09
-1.4909e-09
-3.4746e-08
1.55565e-09
-5.14787e-10
-2.61324e-08
1.12793e-09
-1.27029e-08
5.26531e-10
4.01808e-10
-1.34552e-08
3.84306e-10
1.15718e-09
-2.77665e-08
8.1775e-10
2.10453e-09
-3.68379e-08
1.10332e-09
3.11934e-09
-4.31224e-08
1.34979e-09
4.10346e-09
-4.76112e-08
1.65547e-09
5.0199e-09
-5.08458e-08
2.02594e-09
5.79345e-09
-5.32222e-08
2.44425e-09
6.35382e-09
-5.50017e-08
2.91987e-09
6.62893e-09
-5.62785e-08
3.45342e-09
6.48634e-09
-5.70536e-08
4.03193e-09
5.84837e-09
-5.74801e-08
4.67526e-09
4.77661e-09
-5.77808e-08
5.3363e-09
3.4272e-09
-5.80111e-08
5.89444e-09
1.82066e-09
-5.79839e-08
6.27876e-09
4.91632e-11
-5.79574e-08
6.46438e-09
-1.75277e-09
-5.7875e-08
6.42359e-09
-3.39485e-09
-5.77816e-08
6.18872e-09
-4.77758e-09
-5.78125e-08
5.79197e-09
-5.82161e-09
-5.78713e-08
5.23037e-09
-6.40139e-09
-5.74793e-08
4.54155e-09
-6.54382e-09
-5.69839e-08
3.9463e-09
-6.3213e-09
-5.6174e-08
3.39547e-09
-5.79479e-09
-5.49672e-08
2.88946e-09
-5.02875e-09
-5.32758e-08
2.46338e-09
-4.0951e-09
-5.08991e-08
2.09621e-09
-3.08039e-09
-4.7632e-08
1.76262e-09
-2.0688e-09
-4.31421e-08
1.46771e-09
-1.13953e-09
-3.68595e-08
1.18428e-09
-3.94056e-10
-2.7734e-08
8.56147e-10
-1.34959e-08
3.98882e-10
2.72262e-10
-1.3962e-08
2.34597e-10
7.3455e-10
-2.87213e-08
4.92518e-10
1.32809e-09
-3.81429e-08
7.11455e-10
1.97253e-09
-4.46547e-08
8.87887e-10
2.60526e-09
-4.93351e-08
1.09112e-09
3.19782e-09
-5.27638e-08
1.32543e-09
3.69603e-09
-5.52954e-08
1.57496e-09
4.03535e-09
-5.71669e-08
1.82591e-09
4.2191e-09
-5.8562e-08
2.09981e-09
4.11549e-09
-5.94516e-08
2.50159e-09
3.69607e-09
-6.0056e-08
2.99533e-09
3.04494e-09
-6.05797e-08
3.45005e-09
2.19148e-09
-6.09643e-08
3.8067e-09
1.17059e-09
-6.10181e-08
4.05505e-09
5.23594e-11
-6.10327e-08
4.19356e-09
-1.08353e-09
-6.09221e-08
4.183e-09
-2.1252e-09
-6.07844e-08
4.04453e-09
-2.98537e-09
-6.07436e-08
3.79123e-09
-3.65733e-09
-6.06446e-08
3.44525e-09
-4.07093e-09
-6.00545e-08
2.98891e-09
-4.22566e-09
-5.93364e-08
2.50718e-09
-4.10697e-09
-5.83509e-08
2.05818e-09
-3.74513e-09
-5.7042e-08
1.71299e-09
-3.20994e-09
-5.52869e-08
1.47594e-09
-2.59176e-09
-5.28052e-08
1.28797e-09
-1.94207e-09
-4.93868e-08
1.10522e-09
-1.30077e-09
-4.47077e-08
9.24307e-10
-7.14453e-10
-3.8191e-08
7.45214e-10
-2.47343e-10
-2.87386e-08
5.37455e-10
-1.39934e-08
2.50139e-10
1.00901e-10
-1.41441e-08
8.11504e-11
2.59701e-10
-2.90533e-08
1.73278e-10
4.725e-10
-3.86136e-08
2.57912e-10
7.0645e-10
-4.52107e-08
3.22004e-10
9.42995e-10
-4.99581e-08
3.86482e-10
1.18242e-09
-5.34442e-08
4.41055e-10
1.40492e-09
-5.60075e-08
4.89607e-10
1.53912e-09
-5.78685e-08
5.67373e-10
1.56061e-09
-5.92714e-08
6.87928e-10
1.48023e-09
-6.02296e-08
8.58413e-10
1.34916e-09
-6.09622e-08
1.03728e-09
1.15476e-09
-6.1575e-08
1.18964e-09
7.89789e-10
-6.18937e-08
1.29433e-09
4.00851e-10
-6.19979e-08
1.36884e-09
3.5164e-11
-6.21092e-08
1.44223e-09
-3.71095e-10
-6.20188e-08
1.50302e-09
-7.51174e-10
-6.19032e-08
1.4988e-09
-1.05243e-09
-6.18432e-08
1.40087e-09
-1.2896e-09
-6.1678e-08
1.2706e-09
-1.43652e-09
-6.10184e-08
1.1108e-09
-1.49653e-09
-6.02185e-08
9.42135e-10
-1.46039e-09
-5.91664e-08
7.79326e-10
-1.33308e-09
-5.78154e-08
6.46046e-10
-1.14157e-09
-5.60227e-08
5.44259e-10
-9.18551e-10
-5.34878e-08
4.59569e-10
-6.8494e-10
-5.00041e-08
3.83678e-10
-4.5523e-10
-4.52547e-08
3.17239e-10
-2.47416e-10
-3.8654e-08
2.5516e-10
-8.52747e-11
-2.90828e-08
1.821e-10
-1.41661e-08
8.74599e-11
-6.74917e-11
-1.40021e-08
-7.44595e-11
-2.09825e-10
-2.87608e-08
-1.50167e-10
-3.84451e-10
-3.82343e-08
-2.0467e-10
-5.75213e-10
-4.47651e-08
-2.54796e-10
-7.71845e-10
-4.94604e-08
-3.00995e-10
-9.69753e-10
-5.29134e-08
-3.32877e-10
-1.15482e-09
-5.54668e-08
-3.55624e-10
-1.27148e-09
-5.73492e-08
-4.02627e-10
-1.27126e-09
-5.87558e-08
-5.15865e-10
-1.18224e-09
-5.96314e-08
-6.87239e-10
-1.0697e-09
-6.0225e-08
-8.49753e-10
-9.75485e-10
-6.07122e-08
-9.56978e-10
-8.25855e-10
-6.10179e-08
-1.02537e-09
-5.06916e-10
-6.12185e-08
-1.09836e-09
-3.83956e-11
-6.1365e-08
-1.21275e-09
3.444e-10
-6.11437e-08
-1.25789e-09
6.73188e-10
-6.10252e-08
-1.2068e-09
9.69052e-10
-6.10124e-08
-1.1266e-09
1.13006e-09
-6.08151e-08
-1.02386e-09
1.23342e-09
-6.02184e-08
-9.03364e-10
1.28495e-09
-5.95016e-08
-7.68405e-10
1.25599e-09
-5.85077e-08
-6.29749e-10
1.15726e-09
-5.7195e-08
-5.21663e-10
9.91605e-10
-5.54126e-08
-4.44408e-10
8.00058e-10
-5.29107e-08
-3.85542e-10
6.0171e-10
-4.94764e-08
-3.29461e-10
4.0369e-10
-4.47835e-08
-2.73217e-10
2.24322e-10
-3.8258e-08
-2.16663e-10
8.08486e-11
-2.87888e-08
-1.50603e-10
-1.40149e-08
-7.03608e-11
-2.34311e-10
-1.35313e-08
-2.36544e-10
-6.80194e-10
-2.78089e-08
-5.06014e-10
-1.23635e-09
-3.69758e-08
-7.02332e-10
-1.84503e-09
-4.32847e-08
-8.71799e-10
-2.45635e-09
-4.78006e-08
-1.04851e-09
-3.02281e-09
-5.11011e-08
-1.24586e-09
-3.49325e-09
-5.35296e-08
-1.46672e-09
-3.82621e-09
-5.53008e-08
-1.71548e-09
-3.98008e-09
-5.66073e-08
-1.99462e-09
-3.86017e-09
-5.73942e-08
-2.35713e-09
-3.46206e-09
-5.78111e-08
-2.81204e-09
-2.88991e-09
-5.80626e-08
-3.2217e-09
-2.11177e-09
-5.82598e-08
-3.53631e-09
-1.1326e-09
-5.84139e-08
-3.78378e-09
-1.13807e-11
-5.85414e-08
-3.94491e-09
1.07155e-09
-5.82961e-08
-3.9306e-09
2.08999e-09
-5.82489e-08
-3.79477e-09
2.98124e-09
-5.83546e-08
-3.54908e-09
3.51436e-09
-5.8138e-08
-3.21025e-09
3.86089e-09
-5.77406e-08
-2.82437e-09
4.01429e-09
-5.7275e-08
-2.38006e-09
3.89832e-09
-5.64754e-08
-1.91631e-09
3.56441e-09
-5.52489e-08
-1.6122e-09
3.05392e-09
-5.34915e-08
-1.41071e-09
2.46811e-09
-5.10954e-08
-1.22957e-09
1.86184e-09
-4.78221e-08
-1.04807e-09
1.25344e-09
-4.33116e-08
-8.63549e-10
7.00789e-10
-3.70224e-08
-6.83046e-10
2.54743e-10
-2.78674e-08
-4.75371e-10
-1.35331e-08
-2.27047e-10
-3.85023e-10
-1.27603e-08
-3.85942e-10
-1.1091e-09
-2.62562e-08
-8.28689e-10
-2.01295e-09
-3.49222e-08
-1.14985e-09
-2.99762e-09
-4.0873e-08
-1.42701e-09
-3.9819e-09
-4.51002e-08
-1.71622e-09
-4.88059e-09
-4.81512e-08
-2.05125e-09
-5.61314e-09
-5.03597e-08
-2.43738e-09
-6.13192e-09
-5.18974e-08
-2.88459e-09
-6.39171e-09
-5.29587e-08
-3.38891e-09
-6.26421e-09
-5.36067e-08
-3.91507e-09
-5.6572e-09
-5.38971e-08
-4.52109e-09
-4.64915e-09
-5.39215e-08
-5.1492e-09
-3.33008e-09
-5.38979e-08
-5.68098e-09
-1.75747e-09
-5.39179e-08
-6.0687e-09
-1.60862e-11
-5.40048e-08
-6.27801e-09
1.71685e-09
-5.37977e-08
-6.23138e-09
3.33106e-09
-5.38306e-08
-6.03257e-09
4.72886e-09
-5.40961e-08
-5.65635e-09
5.67851e-09
-5.3977e-08
-5.11075e-09
6.25217e-09
-5.38047e-08
-4.50958e-09
6.42505e-09
-5.35431e-08
-3.9048e-09
6.20387e-09
-5.29557e-08
-3.29864e-09
5.659e-09
-5.19283e-08
-2.77584e-09
4.8872e-09
-5.03785e-08
-2.34126e-09
3.97365e-09
-4.82124e-08
-1.96948e-09
3.00595e-09
-4.52161e-08
-1.6383e-09
2.03891e-09
-4.0996e-08
-1.34853e-09
1.14529e-09
-3.50564e-08
-1.07235e-09
4.09384e-10
-2.63769e-08
-7.54603e-10
-1.27592e-08
-3.64617e-10
-5.1502e-10
-1.17339e-08
-5.11405e-10
-1.47006e-09
-2.42011e-08
-1.10007e-09
-2.66462e-09
-3.21936e-08
-1.53404e-09
-3.96808e-09
-3.76762e-08
-1.89338e-09
-5.27718e-09
-4.15311e-08
-2.25996e-09
-6.48991e-09
-4.42505e-08
-2.68805e-09
-7.49957e-09
-4.61469e-08
-3.20321e-09
-8.18181e-09
-4.74051e-08
-3.8101e-09
-8.46057e-09
-4.81918e-08
-4.48821e-09
-8.26283e-09
-4.86138e-08
-5.19064e-09
-7.5195e-09
-4.87514e-08
-5.88913e-09
-6.18853e-09
-4.8648e-08
-6.60453e-09
-4.39477e-09
-4.84096e-08
-7.28211e-09
-2.3007e-09
-4.82334e-08
-7.77863e-09
-1.39702e-11
-4.82494e-08
-8.0422e-09
2.26788e-09
-4.81028e-08
-7.97683e-09
4.38386e-09
-4.82176e-08
-7.72897e-09
6.20695e-09
-4.86284e-08
-7.29085e-09
7.51568e-09
-4.87133e-08
-6.57251e-09
8.26837e-09
-4.87494e-08
-5.80811e-09
8.48621e-09
-4.86301e-08
-5.13094e-09
8.22022e-09
-4.82324e-08
-4.45737e-09
7.53615e-09
-4.74561e-08
-3.78816e-09
6.53632e-09
-4.61949e-08
-3.18376e-09
5.32475e-09
-4.43246e-08
-2.6763e-09
4.02184e-09
-4.16776e-08
-2.23566e-09
2.7314e-09
-3.79027e-08
-1.80296e-09
1.52783e-09
-3.24578e-08
-1.39515e-09
5.40159e-10
-2.44038e-08
-9.85496e-10
-1.17355e-08
-4.83498e-10
-6.16232e-10
-1.05078e-08
-6.09947e-10
-1.75388e-09
-2.17583e-08
-1.30522e-09
-3.19247e-09
-2.89318e-08
-1.82329e-09
-4.77944e-09
-3.38311e-08
-2.25821e-09
-6.36284e-09
-3.72465e-08
-2.70126e-09
-7.80731e-09
-3.96037e-08
-3.20238e-09
-8.9895e-09
-4.11732e-08
-3.79151e-09
-9.78047e-09
-4.21392e-08
-4.47508e-09
-1.00765e-08
-4.26485e-08
-5.24727e-09
-9.79907e-09
-4.28162e-08
-6.07519e-09
-8.90882e-09
-4.2743e-08
-6.89871e-09
-7.37887e-09
-4.25181e-08
-7.66001e-09
-5.23235e-09
-4.21937e-08
-8.36255e-09
-2.71514e-09
-4.18263e-08
-8.92442e-09
-1.07649e-11
-4.17078e-08
-9.24603e-09
2.6846e-09
-4.16033e-08
-9.195e-09
5.19547e-09
-4.18083e-08
-8.92033e-09
7.34115e-09
-4.2326e-08
-8.44823e-09
8.89278e-09
-4.2564e-08
-7.701e-09
9.80629e-09
-4.27707e-08
-6.89229e-09
1.0094e-08
-4.28486e-08
-6.0693e-09
9.80254e-09
-4.26902e-08
-5.25089e-09
9.01378e-09
-4.21874e-08
-4.48011e-09
7.83681e-09
-4.12242e-08
-3.79389e-09
6.38745e-09
-3.96619e-08
-3.21342e-09
4.79141e-09
-3.73396e-08
-2.74204e-09
3.20491e-09
-3.39934e-08
-2.32281e-09
1.77318e-09
-2.91427e-08
-1.88345e-09
6.21334e-10
-2.19157e-08
-1.33634e-09
-1.0505e-08
-6.09245e-10
-6.84878e-10
-9.12833e-09
-6.94682e-10
-1.97983e-09
-1.89663e-08
-1.4972e-09
-3.60077e-09
-2.52511e-08
-2.05986e-09
-5.37144e-09
-2.95294e-08
-2.53105e-09
-7.13373e-09
-3.24783e-08
-3.00599e-09
-8.73821e-09
-3.44576e-08
-3.54163e-09
-1.00402e-08
-3.57057e-08
-4.16563e-09
-1.09035e-08
-3.63901e-08
-4.88586e-09
-1.12113e-08
-3.66439e-08
-5.69684e-09
-1.08767e-08
-3.65814e-08
-6.56952e-09
-9.85328e-09
-3.63119e-08
-7.45448e-09
-8.14243e-09
-3.59442e-08
-8.28481e-09
-5.78302e-09
-3.55522e-08
-9.00098e-09
-2.98058e-09
-3.5109e-08
-9.51983e-09
-7.64652e-12
-3.48495e-08
-9.83135e-09
2.97221e-09
-3.47832e-08
-9.80008e-09
5.76733e-09
-3.50668e-08
-9.53665e-09
8.1166e-09
-3.55977e-08
-9.07759e-09
9.84099e-09
-3.59679e-08
-8.3206e-09
1.08764e-08
-3.63376e-08
-7.46859e-09
1.12202e-08
-3.66114e-08
-6.58116e-09
1.0918e-08
-3.66798e-08
-5.70821e-09
1.00582e-08
-3.64315e-08
-4.89624e-09
8.75887e-09
-3.57517e-08
-4.17319e-09
7.154e-09
-3.45074e-08
-3.54971e-09
5.37908e-09
-3.25366e-08
-3.02815e-09
3.58827e-09
-2.9617e-08
-2.58571e-09
1.96218e-09
-2.53776e-08
-2.13906e-09
6.80941e-10
-1.90852e-08
-1.54938e-09
-9.12635e-09
-6.9776e-10
-7.16687e-10
-7.66407e-09
-7.47644e-10
-2.11006e-09
-1.59621e-08
-1.61091e-09
-3.84316e-09
-2.13265e-08
-2.1916e-09
-5.72576e-09
-2.49648e-08
-2.68208e-09
-7.59767e-09
-2.7433e-08
-3.17352e-09
-9.29708e-09
-2.90386e-08
-3.71971e-09
-1.06699e-08
-2.9984e-08
-4.34897e-09
-1.15718e-08
-3.04174e-08
-5.07089e-09
-1.18791e-08
-3.04601e-08
-5.87665e-09
-1.15015e-08
-3.02215e-08
-6.73754e-09
-1.03942e-08
-2.98066e-08
-7.61277e-09
-8.55876e-09
-2.93265e-08
-8.45316e-09
-6.08744e-09
-2.88455e-08
-9.17819e-09
-3.13383e-09
-2.83933e-08
-9.66951e-09
-4.50386e-12
-2.80739e-08
-9.90512e-09
3.13513e-09
-2.80471e-08
-9.87582e-09
6.07747e-09
-2.83675e-08
-9.6418e-09
8.54082e-09
-2.88734e-08
-9.18783e-09
1.03802e-08
-2.93444e-08
-8.46288e-09
1.14963e-08
-2.98267e-08
-7.62709e-09
1.18821e-08
-3.02453e-08
-6.752e-09
1.15814e-08
-3.04895e-08
-5.88973e-09
1.06842e-08
-3.04516e-08
-5.08275e-09
9.31296e-09
-3.00224e-08
-4.35829e-09
7.61368e-09
-2.90804e-08
-3.72781e-09
5.73846e-09
-2.74781e-08
-3.18334e-09
3.84311e-09
-2.50182e-08
-2.70357e-09
2.10359e-09
-2.1407e-08
-2.23112e-09
7.23283e-10
-1.6068e-08
-1.63694e-09
-7.65831e-09
-7.44807e-10
-7.40079e-10
-6.16296e-09
-7.61112e-10
-2.16119e-09
-1.2912e-08
-1.62905e-09
-3.92975e-09
-1.73283e-08
-2.22965e-09
-5.8562e-09
-2.03112e-08
-2.72725e-09
-7.77196e-09
-2.23029e-08
-3.21432e-09
-9.50926e-09
-2.35532e-08
-3.74813e-09
-1.09076e-08
-2.4228e-08
-4.3578e-09
-1.18184e-08
-2.44548e-08
-5.05183e-09
-1.21163e-08
-2.43424e-08
-5.81999e-09
-1.17134e-08
-2.39879e-08
-6.63666e-09
-1.05604e-08
-2.3493e-08
-7.46674e-09
-8.67155e-09
-2.29492e-08
-8.26622e-09
-6.18672e-09
-2.24072e-08
-8.92318e-09
-3.22809e-09
-2.19799e-08
-9.37214e-09
-2.61929e-11
-2.17016e-08
-9.57432e-09
3.16101e-09
-2.16721e-08
-9.56236e-09
6.10881e-09
-2.19467e-08
-9.36871e-09
8.63416e-09
-2.24401e-08
-8.9587e-09
1.05441e-08
-2.29648e-08
-8.28967e-09
1.17044e-08
-2.35052e-08
-7.48195e-09
1.21155e-08
-2.40051e-08
-6.65143e-09
1.18236e-08
-2.43642e-08
-5.83344e-09
1.09172e-08
-2.44817e-08
-5.06366e-09
9.5211e-09
-2.4258e-08
-4.36834e-09
7.78419e-09
-2.35858e-08
-3.75775e-09
5.86714e-09
-2.2338e-08
-3.22313e-09
3.93611e-09
-2.03487e-08
-2.73855e-09
2.1578e-09
-1.73747e-08
-2.25415e-09
7.33412e-10
-1.29793e-08
-1.66437e-09
-6.16123e-09
-7.63721e-10
-7.34317e-10
-4.68388e-09
-7.44831e-10
-2.1272e-09
-9.92711e-09
-1.59208e-09
-3.87061e-09
-1.33991e-08
-2.18594e-09
-5.7771e-09
-1.57372e-08
-2.66761e-09
-7.677e-09
-1.72708e-08
-3.13231e-09
-9.40197e-09
-1.81921e-08
-3.63626e-09
-1.07879e-08
-1.86349e-08
-4.2072e-09
-1.16863e-08
-1.8704e-08
-4.85259e-09
-1.1974e-08
-1.84906e-08
-5.56415e-09
-1.15623e-08
-1.80826e-08
-6.31718e-09
-1.04095e-08
-1.75654e-08
-7.08041e-09
-8.55074e-09
-1.70122e-08
-7.79597e-09
-6.10413e-09
-1.64871e-08
-8.36681e-09
-3.20102e-09
-1.60961e-08
-8.78705e-09
-3.02954e-11
-1.58788e-08
-8.99367e-09
3.12165e-09
-1.5846e-08
-8.9782e-09
6.02938e-09
-1.60701e-08
-8.7845e-09
8.51022e-09
-1.65147e-08
-8.4064e-09
1.03914e-08
-1.70269e-08
-7.81926e-09
1.15504e-08
-1.75726e-08
-7.09162e-09
1.19683e-08
-1.80934e-08
-6.32969e-09
1.16881e-08
-1.85067e-08
-5.57749e-09
1.07941e-08
-1.87229e-08
-4.86496e-09
9.41043e-09
-1.86569e-08
-4.21749e-09
7.68667e-09
-1.82167e-08
-3.64547e-09
5.78677e-09
-1.72972e-08
-3.14099e-09
3.87754e-09
-1.57636e-08
-2.67594e-09
2.12852e-09
-1.34283e-08
-2.19744e-09
7.26407e-10
-9.9643e-09
-1.613e-09
-4.688e-09
-7.46877e-10
-6.94099e-10
-3.2918e-09
-6.98059e-10
-2.01197e-09
-7.11529e-09
-1.49403e-09
-3.67164e-09
-9.68792e-09
-2.05157e-09
-5.49883e-09
-1.14119e-08
-2.49819e-09
-7.33009e-09
-1.25156e-08
-2.92398e-09
-8.99952e-09
-1.31406e-08
-3.38211e-09
-1.03434e-08
-1.33903e-08
-3.9008e-09
-1.12157e-08
-1.33468e-08
-4.48502e-09
-1.14946e-08
-1.3085e-08
-5.12682e-09
-1.1095e-08
-1.26752e-08
-5.80704e-09
-9.9768e-09
-1.21845e-08
-6.49921e-09
-8.19707e-09
-1.16729e-08
-7.11906e-09
-5.84668e-09
-1.12153e-08
-7.6223e-09
-3.06276e-09
-1.08777e-08
-8.00243e-09
-2.7026e-11
-1.07043e-08
-8.21033e-09
2.99237e-09
-1.06775e-08
-8.18797e-09
5.78232e-09
-1.08609e-08
-7.99923e-09
8.15873e-09
-1.12319e-08
-7.65925e-09
9.95791e-09
-1.1684e-08
-7.14219e-09
1.10809e-08
-1.2191e-08
-6.50483e-09
1.14868e-08
-1.26819e-08
-5.81751e-09
1.12144e-08
-1.30949e-08
-5.13938e-09
1.03473e-08
-1.33594e-08
-4.49659e-09
9.00602e-09
-1.3405e-08
-3.91071e-09
7.33789e-09
-1.31576e-08
-3.39102e-09
5.50536e-09
-1.25333e-08
-2.93146e-09
3.67678e-09
-1.14299e-08
-2.5052e-09
2.01532e-09
-9.70807e-09
-2.05887e-09
6.92894e-10
-7.13812e-09
-1.50385e-09
-3.29581e-09
-6.99354e-10
-6.19427e-10
-2.05225e-09
-6.20193e-10
-1.80842e-09
-4.59484e-09
-1.33154e-09
-3.32991e-09
-6.34409e-09
-1.82243e-09
-5.02465e-09
-7.50792e-09
-2.20931e-09
-6.74009e-09
-8.22296e-09
-2.57733e-09
-8.31659e-09
-8.58986e-09
-2.97435e-09
-9.59325e-09
-8.68655e-09
-3.42715e-09
-1.04275e-08
-8.57342e-09
-3.93922e-09
-1.07025e-08
-8.3062e-09
-4.50394e-09
-1.03364e-08
-7.93703e-09
-5.10442e-09
-9.297e-09
-7.51418e-09
-5.70987e-09
-7.63983e-09
-7.09208e-09
-6.23812e-09
-5.44544e-09
-6.72285e-09
-6.68694e-09
-2.84807e-09
-6.45105e-09
-7.02412e-09
-2.35203e-11
-6.31181e-09
-7.2172e-09
2.78764e-09
-6.29595e-09
-7.19288e-09
5.38619e-09
-6.44114e-09
-7.01844e-09
7.5966e-09
-6.72826e-09
-6.71418e-09
9.27223e-09
-7.09662e-09
-6.26313e-09
1.0321e-08
-7.51814e-09
-5.72172e-09
1.06933e-08
-7.9408e-09
-5.11348e-09
1.04246e-08
-8.31164e-09
-4.51473e-09
9.59501e-09
-8.58058e-09
-3.94933e-09
8.32073e-09
-8.69536e-09
-3.43544e-09
6.74527e-09
-8.59984e-09
-2.98241e-09
5.02931e-09
-8.23379e-09
-2.58366e-09
3.3346e-09
-7.52045e-09
-2.21482e-09
1.81367e-09
-6.36082e-09
-1.82641e-09
6.21168e-10
-4.61142e-09
-1.3343e-09
-2.0548e-09
-6.19903e-10
-5.07285e-10
-1.03859e-09
-5.06451e-10
-1.51374e-09
-2.50011e-09
-1.08836e-09
-2.83958e-09