/*--------------------------------*- C++ -*----------------------------------*\
| =========                 |                                                 |
| \\      /  F ield         | OpenFOAM: The Open Source CFD Toolbox           |
|  \\    /   O peration     | Version:  v1912                                 |
|   \\  /    A nd           | Website:  www.openfoam.com                      |
|    \\/     M anipulation  |                                                 |
\*---------------------------------------------------------------------------*/
FoamFile
{
    version     2.0;
    format      ascii;
    class       volScalarField;
    location    "26/oil";
    object      heatTransferCoeff(T);
}
// * * * * * * * * * * * * * * * * * * * * * * * * * * * * * * * * * * * * * //

dimensions      [1 0 -3 -1 0 0 0];


internalField   uniform 0;

boundaryField
{
    maxY
    {
        type            calculated;
        value           uniform 0;
    }
    minX
    {
        type            calculated;
        value           uniform 0;
    }
    maxX
    {
        type            calculated;
        value           uniform 0;
    }
    minY
    {
        type            calculated;
        value           uniform 0;
    }
    minZ
    {
        type            calculated;
        value           uniform 0;
    }
    maxZ
    {
        type            calculated;
        value           uniform 0;
    }
    oil_to_sphere
    {
        type            calculated;
        value           nonuniform List<scalar> 
1536
(
-130.057
-129.21
-129.379
-127.396
-126.992
-128.989
-128.42
-128.437
-128.326
-127.353
-126.871
-127.393
-128.261
-127.634
-126.309
-128.183
-129.06
-129.426
-128.101
-128.251
-128.74
-128.271
-128.441
-128.182
-128.319
-128.231
-128.186
-128.046
-129.14
-128.479
-129.397
-129.161
-129.264
-128.067
-128.169
-127.957
-127.951
-127.648
-127.93
-128.106
-127.848
-128.052
-128.308
-128.636
-128.902
-128.097
-129.292
-128.941
-126.174
-128.315
-128.669
-128.384
-128.882
-128.062
-129.092
-129.811
-128.347
-128.268
-128.813
-128.553
-128.363
-128.223
-128.407
-128.068
-128.248
-128.29
-128.231
-128.755
-128.616
-128.964
-128.066
-127.611
-127.685
-128.246
-128.165
-129.825
-129.225
-128.021
-128.194
-129.485
-128.747
-128.763
-127.112
-127.03
-129.125
-130.011
-127.279
-128.152
-128.626
-128.58
-128.593
-127.968
-128.023
-128.03
-128.217
-128.585
-129.02
-129.002
-129.229
-128.554
-128.795
-128.027
-130.211
-128.759
-127.678
-128.197
-128.184
-127.526
-127.644
-130.373
-129.185
-128.561
-128.236
-128.564
-127.059
-127.43
-127.002
-129.642
-130.099
-129.355
-128.396
-128.543
-127.923
-128.954
-129.302
-129.014
-128.261
-127.832
-129.004
-128.616
-128.334
-128.599
-129.043
-128.074
-128.233
-128.927
-128.537
-129.534
-127.883
-129.055
-128.28
-128.655
-128.643
-128.304
-128.149
-128.298
-128.295
-131.034
-129.859
-130.235
-128.821
-130.599
-128.316
-128.423
-127.855
-129.661
-128.738
-130.063
-130.73
-131.009
-129.172
-131.323
-127.16
-127.355
-127.989
-127.863
-128.744
-130.238
-128.936
-130.631
-128.23
-128.316
-128.151
-129.186
-129.146
-128.964
-129.931
-129.529
-130.345
-129.9
-127.573
-127.257
-127.338
-127.369
-130.045
-130.079
-131.065
-128.154
-128.029
-129.433
-128.167
-129.258
-129.057
-129.497
-127.416
-126.497
-129.557
-129.581
-129.178
-128
-128.482
-128.309
-129.577
-129.589
-128.954
-128.815
-128.67
-129.92
-129.403
-130
-127.75
-128.214
-128.184
-129.004
-129.29
-130.115
-129.622
-127.586
-127.543
-126.565
-129.309
-129.089
-128.713
-128.595
-128.72
-130.161
-129.333
-128.983
-129.379
-127.57
-128.043
-126.727
-128.13
-129.917
-129.564
-129.657
-129.128
-128.881
-129.228
-127.489
-127.571
-129.661
-129.493
-127.922
-127.197
-126.883
-128.954
-130.08
-130.482
-131.877
-128.637
-127.235
-126.442
-128.558
-130.632
-128.005
-128.037
-126.796
-127.964
-130.104
-130.317
-128.958
-128.166
-129.516
-131.408
-128.131
-126.975
-129.061
-130.138
-129.847
-128.892
-129.115
-129.483
-127.511
-128.03
-129.606
-129.117
-130.354
-128.435
-129.499
-130.135
-129.182
-129.067
-129.631
-128.315
-128.17
-128.547
-127.684
-127.961
-129.561
-130.004
-129.932
-128.277
-128.255
-128.475
-128.178
-128.914
-128.597
-127.825
-126.948
-127.887
-127.382
-127.786
-130.15
-129.683
-129.769
-132.207
-127.236
-127.314
-129.703
-130.138
-131.586
-128.238
-128.578
-128.133
-129.094
-128.226
-128.989
-129.076
-129.633
-128.998
-128.539
-129.233
-127.794
-129.548
-129.699
-129.199
-129.22
-127.532
-130.195
-130.619
-129.894
-127.311
-128.336
-128.711
-129.111
-128.989
-128.879
-127.529
-129.544
-130.898
-129.396
-129.742
-128.685
-128.758
-128.542
-127.68
-129.038
-129.299
-127.586
-127.423
-127.62
-130.356
-129.748
-129.888
-128.794
-128.844
-130.08
-127.465
-130.194
-129.476
-128.644
-128.773
-127.522
-129.952
-129.678
-127.735
-128.598
-128.386
-128.259
-129.212
-129.522
-128.324
-128.362
-127.473
-130.07
-129.498
-127.528
-130.151
-130.251
-129.384
-129.988
-128.605
-129.234
-127.819
-127.218
-129.161
-131.666
-129.484
-130.916
-129.095
-128.352
-129.239
-127.96
-128.612
-129.448
-129.505
-129.247
-128.697
-128.1
-127.477
-129.684
-130.851
-129.524
-128.839
-128.276
-128.955
-129.164
-129.297
-128.835
-128.509
-128.183
-128.68
-128.038
-127.562
-128.024
-128.073
-128.58
-127.167
-128.271
-130.844
-128.266
-128.257
-129.605
-129.465
-129.004
-128.424
-127.391
-129.449
-129.715
-129.064
-129.028
-129.192
-128.744
-128.629
-128.816
-127.158
-129.942
-130.785
-129.978
-129.419
-129.352
-128.956
-128.784
-128.607
-127.926
-128.634
-127.856
-127.492
-127.864
-127.314
-130.19
-130.104
-129.574
-131.757
-129.405
-130.059
-127.413
-127.538
-129.023
-129.738
-127.443
-128.27
-127.926
-130.163
-129.917
-128.787
-128.974
-130.071
-129.742
-128.724
-129.233
-127.632
-129.449
-127.168
-130.004
-127.12
-129.747
-129.668
-129.548
-128.513
-127.45
-128.303
-129.53
-128.348
-127.193
-129.791
-129.607
-130.898
-130.295
-130.071
-129.607
-127.218
-127.371
-126.378
-126.522
-128.412
-128.028
-128.068
-127.942
-130.039
-129.578
-127.115
-126.896
-129.213
-128.713
-130.828
-128.136
-128.147
-128.834
-126.816
-126.624
-128.011
-127.996
-128.151
-128.275
-129.58
-129.429
-128.971
-128.701
-127.216
-128.199
-129.841
-127.851
-127.652
-129.249
-129.902
-127.866
-127.015
-127.577
-126.974
-128.471
-128.368
-128.112
-127.521
-126.245
-129.507
-129.435
-128.827
-128.803
-130.221
-129.442
-128.886
-128.93
-127.521
-128.002
-129.642
-129.151
-128.232
-126.764
-128.683
-130.671
-130.229
-128.728
-129.468
-129.772
-129.978
-129.562
-127.512
-127.82
-127.375
-128.183
-128.439
-129.6
-131.417
-127.513
-127.464
-129.686
-130.425
-128.559
-128.108
-127.121
-129.375
-128.457
-129.864
-129.93
-129.054
-127.181
-130.15
-130.724
-126.89
-130.739
-130.075
-129.528
-130.505
-129.216
-129.047
-128.78
-130.212
-128.863
-128.968
-128.768
-129.32
-128.936
-128.681
-128.685
-127.388
-129.308
-129.444
-129.401
-129.446
-129.601
-129.164
-128.95
-127.351
-129.858
-130.001
-129.226
-128.67
-128.933
-130.321
-129.186
-127.453
-127.229
-129.873
-129.607
-130.223
-128.44
-128.59
-129.106
-126.75
-126.318
-128.053
-127.998
-128.362
-127.307
-127.53
-130.197
-129.221
-129.836
-129.456
-130.035
-130.22
-129.898
-128.441
-126.402
-126.23
-128.26
-129.452
-128.339
-128.152
-126.773
-128.374
-130.138
-128.337
-131.955
-127.733
-129.538
-130.47
-129.193
-129.982
-130.299
-129.637
-128.966
-128.679
-128.684
-129.363
-128.521
-128.798
-129.088
-128.919
-129.514
-129.207
-129.433
-127.841
-127.84
-126.546
-126.63
-127.434
-125.958
-128.366
-128.3
-128.476
-128.736
-127.407
-127.418
-128.244
-129.89
-130.327
-128.246
-127.201
-128.376
-129.726
-130.063
-128.486
-127.389
-127.719
-129.191
-129.373
-128.485
-128.451
-129.249
-129.491
-130.087
-129.303
-128.746
-128.282
-127.481
-127.18
-129.61
-129.779
-130.3
-128.375
-130.467
-129.692
-130.638
-128.177
-128.435
-127.771
-128.044
-128.218
-127.802
-128.494
-127.168
-128.074
-129.96
-128.3
-127.633
-130.29
-129.42
-128.821
-128.805
-131.098
-131.459
-126.927
-129.191
-129.604
-129.02
-127.941
-128.649
-128.185
-129.152
-130.099
-129.475
-127.735
-129.3
-129.008
-129.119
-129.166
-128.769
-128.615
-128.696
-128.326
-127.351
-127.257
-127.666
-129.808
-128.127
-127.33
-128.124
-129.769
-128.369
-129.989
-129.695
-129.122
-128.764
-129.232
-130.095
-127.641
-129.062
-130.056
-129.719
-128.929
-128.009
-128.652
-129.325
-129.779
-127.737
-128.695
-129.036
-129.67
-128.847
-129.548
-129.999
-127.666
-128.136
-128.013
-130.229
-129.564
-128.594
-129.706
-128.036
-128.253
-129.697
-129.796
-129.911
-127.584
-129.395
-129.657
-128.688
-129.125
-129.418
-127.981
-127.078
-128.58
-129.663
-130.967
-128.549
-128.325
-128.57
-129.018
-129.471
-128.545
-128.148
-128.491
-129.503
-128.69
-127.683
-128.363
-128.051
-128.864
-128.733
-129.707
-129.188
-129.274
-128.245
-128.748
-128.842
-128.49
-128.313
-128.34
-128.19
-127.78
-129.243
-128.841
-128.66
-129.209
-127.135
-128.21
-130.299
-130.156
-127.995
-129.705
-129.032
-129
-128.401
-129.878
-129.574
-127.463
-128.289
-128.24
-128.267
-127.607
-127.35
-128.21
-129.815
-131.402
-128.117
-129.48
-129.231
-128.895
-128.512
-128.848
-129.825
-129.73
-127.54
-128.222
-128.18
-128.636
-129.086
-129.688
-129.302
-129.251
-129.544
-128.236
-129.198
-128.324
-129.51
-126.352
-129.251
-129.652
-128.315
-126.964
-129.269
-128.905
-130.041
-128.073
-129.214
-128.782
-127.106
-130.374
-127.699
-128.518
-128.462
-127.334
-129.78
-128.625
-128.67
-129.447
-128.637
-128.269
-129.982
-127.906
-128.264
-126.609
-129.786
-128.137
-128.491
-129.772
-131.165
-127.687
-128.431
-130.643
-127.79
-129.267
-128.121
-129.015
-127.416
-128.259
-130.606
-127.045
-131.276
-127.147
-130.166
-127.54
-128.043
-127.21
-128.293
-130.435
-126.849
-129.343
-127.16
-130.673
-130.422
-126.964
-129.514
-127.664
-127.489
-127.335
-128.019
-128.487
-128.564
-128.881
-128.427
-130.141
-130.649
-127.048
-129.838
-128.681
-128.437
-128.57
-128.492
-128.729
-128.441
-129.362
-128.654
-129.234
-128.351
-128.973
-129.787
-128.231
-128.83
-129.504
-128.232
-128.98
-128.663
-128.932
-128.431
-128.912
-128.348
-129.414
-128.248
-128.729
-127.295
-130.533
-126.886
-130.021
-129.725
-129.737
-127.999
-128.645
-128.335
-128.456
-129.157
-128.738
-129.414
-127.839
-126.36
-130.609
-127.036
-130.049
-128.104
-128.586
-130.459
-126.259
-131.541
-128.656
-126.85
-129.058
-129.116
-128.973
-128.87
-126.623
-129.143
-129.244
-128.114
-128.001
-129.995
-129.92
-128.4
-128.417
-129.984
-126.793
-130.056
-128.036
-128.998
-126.91
-131.851
-130.168
-129.387
-128.94
-128.98
-129.639
-128.79
-126.611
-127.741
-129.174
-128.064
-130.007
-126.865
-130.118
-129.672
-125.578
-129.202
-128.939
-126.369
-131.247
-127.193
-129.93
-130.445
-129.648
-126.184
-128.839
-128.525
-129.126
-128.996
-129.498
-126.658
-128.679
-127.913
-127.981
-130.169
-128.813
-129.834
-128.956
-129.07
-128.512
-128.664
-128.575
-128.724
-129.622
-128.195
-128.493
-128.06
-129.264
-129.756
-128.25
-128.28
-128.198
-128.778
-128.02
-127.973
-128.363
-128.445
-128.678
-128.884
-129.868
-129.785
-126.78
-127.441
-130.603
-125.794
-129.107
-129.278
-128.239
-128.565
-131.119
-126.485
-129.455
-129.596
-126.341
-128.391
-128.444
-129.458
-126.345
-129.653
-130.145
-126.07
-129.506
-130.134
-126.598
-129.699
-129.946
-126.644
-128.284
-128.137
-126.583
-128.602
-128.765
-128.46
-127.985
-129.144
-126.387
-127.793
-127.801
-126.447
-129.638
-127.668
-130.312
-128.774
-126.6
-129.434
-129.623
-126.443
-128.312
-128.369
-126.427
-127.197
-131.508
-125.538
-127.804
-129.416
-126.315
-129.721
-129.418
-128.614
-128.254
-128.532
-127.652
-126.149
-128.629
-128.135
-128.303
-128.628
-126.396
-129.881
-128.103
-128.511
-127.914
-128.439
-128.675
-127.818
-126.543
-128.46
-129.858
-128.029
-128.365
-128.757
-127.964
-128.478
-126.587
-128.561
-130.123
-127.925
-128.563
-127.997
-126.679
-130.528
-130.74
-129.555
-130.452
-126.543
-126.25
-128.836
-130.474
-128.745
-129.243
-129.417
-127.781
-127.425
-127.205
-127.591
-127.773
-128.513
-128.434
-128.386
-127.803
-129.41
-129.214
-126.647
-127.391
-127.788
-129.374
-127.882
-126.339
-130.358
-128.486
-129.502
-126.376
-128.811
-129.66
-128.22
-128.378
-129.293
-128.556
-127.629
-130.077
-125.837
-128.888
-129.389
-128.04
-128.234
-130.081
-129.395
-128.987
-127.581
-129.872
-128.41
-128.732
-129.371
-129.582
-129.435
-129.566
-130.145
-130.246
-129.89
-129.891
-130.003
-129.562
-128.158
-128.499
-128.059
-127.261
-126.092
-130.1
-129.992
-129.629
-128.309
-128.693
-128.65
-128.007
-128.883
-129.457
-127.829
-128.498
-129.215
-128.387
-128.204
-128.072
-128.311
-127.807
-128.243
-128.188
-126.857
-129.628
-127.997
-128.442
-126.265
-130.694
-128.546
-128.001
-127.863
-126.916
-128.762
-128.061
-126.443
-127.912
-128.444
-127.545
-127.352
-130.143
-130.345
-128.278
-128.243
-129.402
-129.925
-126.364
-128.994
-127.909
-128.199
-128.24
-128.308
-128.481
-127.664
-126.399
-130.338
-128.26
-127.44
-127.622
-128.107
-128.618
-127.047
-129.298
-128.326
-128.138
-129.926
-127.543
-126.713
-128.466
-128.122
-128.009
-126.457
-129.94
-128.34
-128.024
-128.176
-126.412
-128.614
-128.23
-126.784
-128.536
-127.857
-128.964
-129.546
-128.233
-129.28
-128.728
-128.036
-127.964
-128.268
-126.573
-129.48
-129.694
-128.13
-126.52
-127.803
-128.436
-128.474
-128.107
-126.54
-128.187
-129.472
-129.113
-128.429
-130.156
-127.264
-130.113
-126.341
-127.384
-130.338
-126.679
-129.591
-128.77
-128.614
-128.18
-130.598
-127.551
-128.531
-129.71
-130.212
-126.666
-129.694
-130.026
-125.937
-130.194
-127.97
-126.358
-130.449
-127.941
-128.077
-128.095
-128.467
-128.338
-128.085
-128.116
-126.219
-129.993
-128.873
-128.54
-128.636
-128.269
-127.959
-127.799
-130.301
-126.172
-127.856
-129.378
-126.636
-129.618
-129.895
-129.848
-129.745
-130.241
-127.487
-130.102
-129.033
-129.747
-127.959
-129.259
-127.642
-126.826
-130.031
-127.342
-129.46
-130.516
-129.86
-126.407
-130.064
-129.359
-127.934
-128.085
-128.319
-128.036
-126.418
-130.676
-126.384
-130.652
-128.26
-127.674
-128.484
-129.217
-129.083
-130.397
-128.474
-130.042
-129.921
-129.436
-127.393
-129.598
-129.204
-129.675
-128.072
-127.842
-126.534
-128.363
-130.031
-130.077
-126.216
-127.671
-127.329
-128.037
-128.42
-127.516
-131.266
-128.161
-127.565
-126.398
-129.17
-127.97
-125.868
-128.967
-128.141
-127.983
-128.111
-128.13
-126.444
-127.348
-126.356
-128.492
-130.327
-129.007
-129.964
-129.79
-127.867
-127.606
-126.579
-127.563
-130.006
-129.662
-129.879
-129.363
-127.374
-126.713
-127.569
-126.417
-129.444
-129.666
-127.73
-129.337
-129.823
-129.572
-129.767
-128.642
-128.568
-127.86
-125.984
-127.786
-126.726
-128.258
-128.108
-128.076
-126.699
-126.44
-129.157
-129.904
-130.576
-129.911
-128.553
-128.899
-128.918
-128.759
-128.213
-128.529
-127.76
-128.33
-128.332
-126.344
-130.204
-128.392
-127.729
-126.76
-128.491
-128.477
-128.458
-128.144
-126.786
-129.946
-128.873
-128.087
-130.082
-127.696
-126.316
-129.942
-128.524
-128.356
-128.283
-128.007
-125.901
-129.513
-128.302
-126.41
-130.761
-128.289
-125.955
-128.092
-128.388
-128.471
-127.957
-126.472
-128.025
-128.091
-127.072
-128.263
-126.355
-128.443
-128.396
-126.86
-130.763
-128.261
-126.828
-131.471
-128.433
-128.485
-126.695
-128.337
-126.473
)
;
    }
}


// ************************************************************************* //
