/*--------------------------------*- C++ -*----------------------------------*\
| =========                 |                                                 |
| \\      /  F ield         | OpenFOAM: The Open Source CFD Toolbox           |
|  \\    /   O peration     | Version:  v1912                                 |
|   \\  /    A nd           | Website:  www.openfoam.com                      |
|    \\/     M anipulation  |                                                 |
\*---------------------------------------------------------------------------*/
FoamFile
{
    version     2.0;
    format      ascii;
    class       volScalarField;
    location    "172/oil";
    object      heatTransferCoeff(T);
}
// * * * * * * * * * * * * * * * * * * * * * * * * * * * * * * * * * * * * * //

dimensions      [1 0 -3 -1 0 0 0];


internalField   uniform 0;

boundaryField
{
    maxY
    {
        type            calculated;
        value           uniform 0;
    }
    minX
    {
        type            calculated;
        value           uniform 0;
    }
    maxX
    {
        type            calculated;
        value           uniform 0;
    }
    minY
    {
        type            calculated;
        value           uniform 0;
    }
    minZ
    {
        type            calculated;
        value           uniform 0;
    }
    maxZ
    {
        type            calculated;
        value           uniform 0;
    }
    oil_to_sphere
    {
        type            calculated;
        value           nonuniform List<scalar> 
1536
(
-73.76
-70.5664
-70.5843
-64.5535
-64.2305
-70.3261
-67.8024
-68.7389
-68.3512
-64.974
-62.6962
-65.3742
-68.2698
-65.5994
-61.7679
-67.3839
-70.366
-70.7406
-67.1945
-68.1196
-69.5359
-68.3681
-68.6469
-67.3529
-67.6909
-67.5111
-67.6155
-66.9461
-70.2373
-68.5616
-71.1963
-70.5626
-70.709
-67.3548
-67.5686
-66.9263
-67.1798
-66.2136
-66.8655
-67.5613
-66.7123
-67.2166
-68.2476
-68.9778
-69.7904
-67.523
-69.751
-68.8537
-61.9162
-67.5381
-69.2418
-68.4194
-68.7705
-67.2907
-70.1236
-72.3783
-68.5704
-68.1344
-69.5269
-69.1407
-68.2053
-68.2211
-68.1724
-67.2202
-67.58
-68.0468
-68.1016
-69.3474
-69.2563
-70.0479
-67.2044
-64.5344
-65.4662
-67.5265
-67.4716
-72.5686
-70.7255
-66.4245
-67.3954
-70.6735
-69.5756
-69.1741
-64.4342
-64.3202
-70.216
-73.2008
-63.8034
-67.829
-69.1808
-69.144
-68.4812
-67.0238
-67.0055
-67.1344
-67.4948
-68.9284
-69.6499
-69.8326
-70.929
-69.0678
-69.6194
-67.1455
-73.8812
-69.3098
-65.342
-67.4361
-67.6554
-64.8148
-64.8469
-74.0317
-70.6774
-68.7865
-68.207
-68.7148
-64.0117
-64.4648
-63.4382
-71.7848
-73.5235
-70.9154
-68.507
-68.7048
-66.8301
-69.5851
-71.1172
-69.1589
-68.4207
-66.6026
-69.7799
-69.4191
-68.08
-69.2995
-70.0632
-67.6317
-67.8831
-70.169
-68.7167
-70.7199
-66.6803
-70.3927
-68.3544
-69.4073
-69.4293
-68.2835
-67.8873
-68.2193
-68.8336
-72.3658
-68.7134
-74.0083
-69.8639
-71.1605
-68.5536
-68.7599
-67.3294
-69.4865
-70.057
-70.0858
-74.7094
-71.8146
-70.6621
-72.6414
-65.5695
-66.1069
-67.0719
-66.9627
-69.9123
-71.8426
-70.7806
-72.7992
-67.0268
-67.2423
-66.5152
-69.7415
-68.8666
-69.032
-72.9209
-66.9068
-66.6696
-73.1448
-66.7588
-66.0988
-66.0326
-66.309
-69.8774
-73.2393
-71.8623
-66.8588
-65.9152
-70.6996
-66.1631
-70.1345
-70.0391
-71.4908
-65.3545
-61.2633
-71.4153
-71.8097
-68.1172
-67.3726
-68.4799
-67.78
-70.8138
-71.3985
-69.8624
-69.2078
-67.4375
-71.785
-71.0363
-69.5136
-66.5595
-67.562
-67.4348
-68.1638
-69.8411
-72.6192
-66.7045
-65.5285
-65.5927
-60.9209
-70.4802
-69.7084
-69.1285
-68.5116
-68.6923
-71.9109
-70.1516
-67.8994
-70.5295
-65.1039
-66.9789
-61.5014
-68.1866
-70.6102
-71.4319
-71.1917
-70.4031
-69.6998
-70.8427
-65.3671
-65.8062
-67.1941
-71.8296
-66.5041
-61.6862
-63.4809
-69.6633
-69.057
-73.2431
-75.1896
-68.7998
-64.416
-60.934
-69.1344
-71.5753
-67.1296
-67.2302
-63.7561
-67.0063
-71.8746
-73.4629
-68.4482
-67.2879
-72.0894
-72.0502
-67.4956
-65.0165
-68.2985
-72.7199
-71.915
-69.7114
-70.0762
-71.2755
-66.1187
-67.3376
-71.4826
-70.0727
-71.0818
-68.3108
-70.5943
-72.5526
-69.9484
-69.6647
-71.9986
-67.3055
-67.199
-67.628
-66.7413
-67.043
-71.56
-72.7397
-66.6139
-67.8256
-67.6676
-67.8833
-66.8649
-68.7926
-68.3641
-66.3941
-63.8697
-66.936
-65.4003
-66.6491
-73.2826
-72.0911
-72.0802
-75.0869
-65.805
-66.0446
-69.0757
-73.971
-74.0756
-67.0798
-68.4035
-66.8831
-70.0087
-67.3722
-69.6076
-69.8811
-70.9404
-70.094
-67.7554
-70.3088
-66.859
-71.3239
-71.7566
-70.5348
-70.3197
-66.3229
-72.9098
-72.9946
-70.3406
-65.2384
-67.2865
-67.9625
-69.9101
-69.5765
-69.9325
-66.232
-71.2767
-72.0054
-70.849
-72.0516
-69.3343
-69.0253
-68.2689
-65.8551
-69.1801
-70.0582
-65.7843
-65.5046
-66.094
-73.7785
-71.3192
-72.1249
-69.4535
-69.0192
-71.7551
-65.592
-73.0985
-70.86
-68.9769
-68.9829
-65.4409
-71.0651
-71.222
-66.528
-68.9613
-68.1288
-67.3442
-70.0751
-71.22
-68.2537
-67.595
-65.9451
-72.6032
-71.3191
-65.5306
-71.8166
-71.4782
-70.518
-72.5543
-68.9214
-70.2302
-65.1428
-65.279
-69.9112
-74.7045
-70.6903
-73.4367
-69.5654
-67.7524
-70.9183
-66.2465
-67.1114
-69.8146
-71.161
-70.1337
-69.4351
-66.4317
-66.1359
-71.5334
-71.9392
-71.3392
-68.9745
-67.1744
-69.6416
-70.2973
-71.0242
-69.1334
-68.0136
-66.6588
-68.8132
-66.1525
-64.8404
-67.1166
-66.6322
-68.8072
-64.9023
-67.7454
-73.2339
-67.6798
-67.6412
-71.1787
-71.0765
-69.9173
-68.1577
-65.6555
-70.6451
-72.0727
-69.8097
-69.2602
-70.6245
-68.4968
-68.7308
-69.4166
-64.4289
-70.2039
-71.9542
-72.1422
-70.979
-70.323
-70.0085
-69.1342
-68.1263
-66.2341
-68.6108
-66.4994
-65.4353
-66.7546
-64.7014
-73.3873
-72.9646
-71.7121
-74.5714
-66.8779
-73.3565
-66.1514
-66.7561
-70.3323
-66.8448
-66.0811
-67.7775
-67.515
-73.0889
-72.1864
-69.4103
-69.699
-72.554
-71.5796
-69.0746
-70.3099
-66.5429
-71.1391
-65.1639
-72.1232
-64.3851
-70.4406
-70.7417
-71.0419
-67.7261
-65.9677
-68.0442
-71.1195
-68.1963
-64.9791
-71.2878
-71.4156
-72.38
-74.2245
-69.7166
-72.2326
-65.7705
-66.1958
-62.1393
-63.3056
-68.9059
-67.6475
-67.3094
-66.7961
-73.5414
-67.1641
-65.4228
-64.9278
-68.2403
-65.6411
-74.7209
-66.7698
-66.9805
-68.7276
-62.7366
-63.6198
-67.1303
-67.0504
-68.1706
-67.5408
-71.383
-70.9699
-70.0291
-69.0343
-64.7303
-67.3628
-71.0746
-66.1886
-66.4962
-70.5483
-72.5498
-66.6466
-62.4311
-65.8041
-62.738
-68.4848
-67.6588
-66.9706
-65.3223
-62.4369
-70.2287
-70.5814
-69.5124
-68.6022
-72.7834
-70.2848
-69.8066
-69.068
-66.2979
-67.3609
-71.4027
-70.1258
-67.8348
-63.3287
-69.1284
-71.3696
-72.945
-69.2444
-67.8343
-72.738
-69.3008
-72.2475
-66.4547
-67.3874
-66.0258
-67.6357
-69.0527
-72.4039
-67.869
-66.6433
-66.253
-68.4787
-74.6039
-65.8419
-67.3763
-65.3884
-69.0039
-69.0486
-71.5394
-72.6425
-65.6376
-65.1877
-72.7106
-73.3302
-64.0268
-72.8256
-71.7891
-70.7043
-71.9104
-69.9706
-69.0003
-69.0179
-72.6489
-69.1294
-69.8978
-68.8494
-71.0475
-69.3613
-68.5984
-68.4102
-65.7075
-70.5861
-68.9019
-71.0416
-70.3543
-70.491
-70.1211
-69.1951
-65.3443
-71.594
-71.644
-70.0652
-68.5633
-69.4199
-73.9139
-65.8231
-66.3761
-65.7291
-69.7059
-67.5531
-73.8945
-67.7748
-68.1322
-68.9241
-62.386
-62.624
-67.2369
-67.1532
-68.7979
-65.9909
-66.6049
-69.9462
-67.5268
-72.6178
-66.7175
-73.6304
-68.6093
-69.6468
-62.3019
-62.5607
-62.0247
-67.0493
-70.672
-67.4802
-67.0011
-62.6735
-68.6996
-71.1519
-68.7334
-76.0405
-66.572
-71.3537
-70.6103
-70.6401
-71.8167
-71.8607
-70.8336
-68.7984
-68.0965
-68.6256
-70.7266
-68.2084
-69.5333
-69.3894
-69.5401
-71.0398
-70.1572
-70.6346
-65.8773
-66.5044
-61.2127
-63.7071
-64.7048
-59.3014
-67.303
-67.5603
-68.1932
-68.6164
-64.7559
-65.7728
-67.8323
-71.9526
-71.8561
-67.7812
-65.0515
-68.3185
-71.0638
-70.445
-68.6331
-64.9491
-66.5647
-70.0872
-69.6399
-68.582
-67.4356
-70.3737
-70.5375
-72.6059
-70.4836
-69.1334
-67.5495
-66.5377
-65.5543
-67.85
-68.8879
-74.0856
-68.8897
-73.4302
-67.549
-74.476
-67.2137
-68.2677
-66.0498
-66.4575
-67.5426
-65.8
-68.1449
-64.8826
-67.283
-71.5157
-67.754
-65.5545
-72.8907
-70.3752
-69.5965
-68.5614
-72.994
-76.1783
-63.9066
-70.1836
-69.8171
-69.916
-65.8556
-68.5297
-66.8939
-69.6259
-70.8885
-71.463
-66.3789
-70.1251
-69.0837
-70.3447
-70.1972
-69.7285
-67.9777
-68.3444
-67.4436
-65.0884
-64.7425
-66.142
-72.2331
-67.3207
-65.5154
-67.3966
-71.4926
-68.0498
-72.297
-71.0887
-69.8248
-69.1351
-69.8234
-72.941
-66.1338
-70.074
-71.7802
-71.9048
-69.1657
-66.7823
-68.1236
-69.8786
-72.0142
-65.9895
-68.3755
-69.134
-71.3754
-69.6515
-69.9449
-72.4037
-66.0049
-66.9624
-66.5483
-73.0211
-71.4737
-68.9416
-71.3684
-66.9432
-67.3686
-71.3535
-70.0458
-72.5369
-66.2308
-70.7735
-71.2355
-69.1793
-69.6329
-70.6269
-66.4772
-64.4982
-68.7298
-69.9963
-73.4742
-68.3691
-67.2299
-68.566
-69.7513
-70.7675
-69.0283
-66.9119
-68.3627
-71.1394
-66.5027
-66.6886
-68.3029
-67.2336
-69.4205
-69.108
-71.8404
-69.9833
-70.8934
-67.4431
-68.6766
-69.4039
-68.4559
-67.9459
-67.5717
-67.4614
-66.1212
-70.3335
-69.3328
-69.2464
-69.8816
-65.1635
-67.6621
-72.9519
-72.947
-66.8395
-71.427
-69.7453
-70.1937
-67.5247
-72.0177
-71.678
-66.1137
-68.0064
-67.6348
-67.5328
-65.3025
-65.7504
-67.6201
-71.7327
-74.4623
-67.1326
-70.6344
-70.3164
-69.621
-68.2092
-69.4274
-71.8788
-69.7616
-66.2363
-67.6881
-67.4252
-67.7691
-69.952
-70.5185
-70.377
-70.4896
-70.6139
-66.9751
-70.6052
-67.8061
-70.317
-62.4904
-69.9129
-72.0782
-67.9364
-63.9222
-69.015
-68.445
-73.214
-66.6244
-70.6173
-68.6498
-64.4688
-72.8821
-65.5793
-68.2883
-68.7096
-65.2332
-71.4662
-69.3435
-68.2859
-69.3549
-69.3307
-68.159
-73.3415
-65.7494
-67.5945
-61.8965
-68.5456
-67.8643
-68.8147
-71.4383
-76.1952
-65.1729
-67.7053
-75.0291
-65.6441
-70.4348
-66.8395
-70.1951
-63.9191
-66.7267
-74.9174
-64.2586
-74.6277
-64.7603
-73.1311
-64.7198
-66.5753
-62.4886
-65.9461
-74.4427
-63.0421
-68.8826
-64.3023
-72.7417
-74.4731
-63.2474
-68.559
-66.9617
-66.2178
-66.0515
-67.5421
-68.7519
-68.7774
-70.056
-68.4958
-72.5593
-75.2579
-63.2281
-69.4011
-69.6203
-68.7242
-69.1148
-68.3887
-68.1503
-68.3526
-70.854
-68.5262
-70.8435
-67.6012
-69.3917
-72.1472
-67.8752
-69.9267
-71.3735
-67.5299
-69.3949
-68.596
-70.0481
-68.256
-69.135
-68.0051
-71.1907
-67.719
-69.5228
-64.8024
-72.8762
-63.3382
-70.1483
-71.2302
-72.5993
-66.6505
-69.1033
-68.4589
-69.007
-69.1484
-68.562
-70.8366
-66.2492
-61.1052
-69.0932
-63.9913
-71.7356
-66.754
-68.7266
-70.9693
-61.4017
-72.861
-66.5473
-62.5886
-67.0445
-70.378
-70.1313
-68.982
-62.9795
-69.0728
-69.5223
-67.1046
-66.7211
-71.7933
-71.3769
-67.4704
-68.8204
-71.803
-63.13
-71.1463
-66.6797
-70.0193
-63.4467
-74.6604
-73.5974
-71.0989
-68.9622
-68.2775
-70.5492
-68.0697
-62.9334
-65.9989
-70.4951
-66.8185
-70.3325
-63.8512
-71.7008
-70.3479
-59.7236
-69.1186
-69.5113
-61.6405
-72.7937
-64.6816
-71.7188
-72.8689
-70.8977
-62.3419
-69.0791
-68.1545
-69.1112
-69.2172
-70.0984
-63.1058
-67.7115
-66.8102
-66.8576
-71.6481
-68.8006
-69.9947
-70.1313
-70.051
-68.1092
-69.0815
-68.2736
-69.4988
-71.6767
-67.3603
-67.9835
-67.1498
-69.3191
-71.2178
-67.3543
-67.8073
-67.5498
-68.8207
-66.8473
-67.0192
-67.8265
-68.0549
-69.0413
-68.0087
-72.5147
-71.0258
-64.0291
-64.4294
-72.4734
-59.2334
-70.523
-69.5206
-66.948
-68.1226
-72.8381
-61.5091
-71.4307
-69.877
-62.6266
-67.6799
-67.2602
-69.1454
-61.1797
-71.9829
-70.2292
-61.3872
-71.7055
-72.0623
-63.4133
-72.6046
-71.3785
-63.5038
-67.2447
-66.916
-61.618
-68.7951
-69.1592
-66.3935
-66.6551
-67.018
-60.3083
-66.4994
-61.9868
-60.0103
-71.3304
-66.9443
-74.3882
-67.6445
-63.0446
-71.9192
-68.8053
-62.0623
-67.4123
-67.3162
-61.9949
-64.3112
-72.7724
-58.2978
-66.0505
-66.3914
-59.4764
-71.5566
-70.9276
-68.7817
-67.7409
-67.3519
-65.9953
-60.6942
-68.8704
-67.7257
-67.9226
-68.7976
-62.3643
-70.7854
-67.3233
-68.442
-66.997
-68.3197
-69.0245
-65.9215
-62.6629
-67.7605
-69.7146
-67.233
-67.7886
-68.6456
-66.6343
-67.9596
-62.3401
-67.5504
-70.1173
-67.0422
-68.1418
-66.7247
-62.8141
-72.5102
-72.5195
-71.7089
-72.9842
-63.3576
-61.6171
-67.7351
-71.2107
-69.1378
-70.3953
-70.8743
-66.0475
-65.3343
-62.18
-63.5564
-66.5229
-68.4781
-68.2801
-68.1427
-65.5368
-71.2528
-69.7051
-63.5585
-66.2287
-65.9441
-70.8008
-66.6434
-60.7632
-69.3919
-68.6076
-71.4302
-62.1412
-67.4862
-69.5418
-67.5276
-68.0358
-70.328
-68.4388
-66.0393
-73.0641
-59.6446
-65.657
-68.5998
-66.6958
-67.6619
-72.7613
-69.8839
-68.8832
-65.1044
-72.2181
-67.5683
-69.0474
-70.8456
-71.4712
-71.1943
-71.4451
-72.6046
-73.2217
-72.3766
-72.385
-69.4238
-71.0624
-67.3343
-68.0865
-65.5866
-64.5306
-60.2315
-72.8762
-72.6576
-71.7358
-67.8777
-69.049
-68.8596
-66.7612
-69.2818
-70.9723
-66.2239
-68.2281
-70.168
-67.2819
-67.4151
-67.222
-67.8438
-66.537
-67.7303
-67.4905
-63.4343
-69.5026
-66.349
-68.1803
-61.9151
-73.1551
-68.3459
-66.9284
-66.4712
-63.7519
-68.7332
-67.0281
-61.5852
-65.1871
-68.2344
-64.5799
-65.1166
-73.2875
-73.6671
-67.5598
-67.5659
-70.5931
-72.6426
-61.4804
-67.2164
-66.5857
-67.6598
-67.6613
-67.9087
-68.3729
-65.4057
-62.7547
-72.3116
-67.6123
-64.7854
-65.3369
-67.4726
-68.7371
-63.8647
-68.4528
-66.9077
-67.3239
-72.6888
-64.9134
-63.0042
-67.7707
-67.1267
-66.6288
-62.849
-71.6699
-67.5495
-67.2849
-67.4866
-61.604
-67.7223
-67.6508
-63.14
-67.6175
-65.145
-69.5903
-71.8417
-66.8643
-70.9188
-69.3605
-66.8588
-66.9146
-67.7527
-62.9142
-69.6847
-70.1442
-67.2218
-62.208
-65.8908
-68.1073
-68.3068
-66.8442
-62.6297
-66.9859
-71.424
-69.5575
-67.1626
-73.2168
-64.7898
-71.1846
-61.6682
-64.7099
-71.5106
-61.7402
-71.3095
-67.2884
-68.7235
-67.3532
-73.7109
-65.5177
-68.7429
-72.5913
-72.3673
-63.921
-71.9286
-72.7457
-59.4447
-68.903
-67.0287
-61.828
-70.4953
-66.9576
-67.3191
-67.3372
-68.4044
-67.9472
-67.2032
-66.9991
-61.5973
-70.2608
-68.8467
-68.536
-68.9863
-67.8573
-66.8092
-65.9224
-70.9784
-60.8171
-66.492
-67.1214
-61.2783
-71.1942
-72.9276
-68.9393
-71.7881
-72.3885
-66.4637
-67.8546
-69.7359
-71.7614
-66.6109
-70.1633
-65.3307
-62.0736
-70.9189
-66.002
-71.4099
-73.379
-72.5777
-62.1559
-71.2227
-69.1668
-66.1772
-67.1762
-67.7116
-67.031
-62.2643
-72.1928
-62.4207
-72.087
-67.814
-65.3487
-65.2708
-68.3312
-70.1795
-72.6529
-68.5554
-73.9453
-70.9288
-71.259
-61.9818
-71.055
-70.3599
-71.5307
-66.7493
-66.1958
-60.9665
-68.2116
-73.7303
-71.9771
-62.6018
-65.5279
-62.8417
-66.7284
-68.3505
-65.2038
-75.8071
-67.3728
-65.4904
-62.8259
-69.5509
-66.3157
-61.0066
-68.3216
-67.029
-67.0357
-67.1881
-67.2369
-62.8995
-65.1756
-61.8623
-67.2326
-71.1059
-69.6318
-72.0622
-71.5787
-66.5034
-65.8349
-61.7505
-66.6447
-70.6567
-72.1779
-70.8964
-70.8056
-64.7696
-61.2578
-65.5717
-60.7219
-70.5921
-70.9081
-65.9027
-71.1399
-70.7242
-71.8805
-69.7015
-68.7444
-68.6306
-66.4998
-61.3502
-65.7877
-62.2876
-65.472
-67.1901
-66.8252
-63.3689
-62.1366
-70.0731
-73.6931
-73.4322
-72.6066
-68.5565
-69.8566
-69.7638
-68.4071
-67.2272
-68.2941
-66.0799
-67.8355
-67.8607
-62.1171
-70.9005
-67.6692
-65.572
-63.3042
-67.1626
-68.4572
-68.4183
-66.8698
-63.3434
-72.4553
-69.3683
-67.0655
-73.1166
-66.1442
-61.8783
-70.1049
-67.9449
-67.8904
-67.8547
-66.8713
-60.65
-68.4509
-67.7901
-62.4756
-72.6873
-67.5208
-58.5265
-67.1696
-68.2975
-68.5204
-66.83
-62.2788
-66.4816
-66.6542
-64.4344
-67.9676
-61.6665
-68.1818
-68.0006
-64.0961
-73.3826
-67.7535
-63.1578
-74.3038
-68.2624
-68.2865
-63.2268
-67.9714
-62.4455
)
;
    }
}


// ************************************************************************* //
