/*--------------------------------*- C++ -*----------------------------------*\
| =========                 |                                                 |
| \\      /  F ield         | OpenFOAM: The Open Source CFD Toolbox           |
|  \\    /   O peration     | Version:  v1912                                 |
|   \\  /    A nd           | Website:  www.openfoam.com                      |
|    \\/     M anipulation  |                                                 |
\*---------------------------------------------------------------------------*/
FoamFile
{
    version     2.0;
    format      ascii;
    class       surfaceScalarField;
    location    "136/oil";
    object      phi;
}
// * * * * * * * * * * * * * * * * * * * * * * * * * * * * * * * * * * * * * //

dimensions      [1 0 -1 0 0 0 0];
oriented        oriented;


internalField   nonuniform List<scalar> 
104676
(
-8.25777e-12
2.1952e-11
-1.09259e-11
2.29056e-10
-1.88364e-10
-4.88628e-11
7.13647e-10
-3.51939e-10
-1.32601e-10
1.37047e-09
-4.28945e-10
-2.2785e-10
2.10296e-09
-4.3848e-10
-2.93984e-10
2.81485e-09
-3.98947e-10
-3.12928e-10
3.4193e-09
-3.24718e-10
-2.79737e-10
3.84375e-09
-2.26444e-10
-1.98025e-10
4.03161e-09
-1.12343e-10
-7.55507e-11
3.95227e-09
7.33529e-12
7.19581e-11
3.59059e-09
1.30886e-10
2.30729e-10
2.97163e-09
2.31787e-10
3.87109e-10
2.12771e-09
3.23503e-10
5.20351e-10
1.11938e-09
3.89959e-10
6.183e-10
2.37772e-11
4.25105e-10
6.70431e-10
-1.07534e-09
4.27046e-10
6.71995e-10
-2.08667e-09
3.90455e-10
6.20813e-10
-2.93439e-09
3.23448e-10
5.24198e-10
-3.55988e-09
2.3348e-10
3.91948e-10
-3.92663e-09
1.28342e-10
2.38356e-10
-4.01634e-09
8.59108e-12
8.10655e-11
-3.83333e-09
-1.1427e-10
-6.87858e-11
-3.41295e-09
-2.27939e-10
-1.92467e-10
-2.81168e-09
-3.26123e-10
-2.75167e-10
-2.10245e-09
-4.00077e-10
-3.09164e-10
-1.37193e-09
-4.40447e-10
-2.90073e-10
-7.15924e-10
-4.32139e-10
-2.23849e-10
-2.31114e-10
-3.55888e-10
-1.28893e-10
7.27387e-12
-1.92286e-10
-4.60595e-11
1.70926e-11
-9.79368e-12
2.33406e-10
-4.44616e-10
2.33263e-10
8.98139e-10
-1.33124e-09
4.7823e-10
1.95305e-09
-1.99869e-09
5.91906e-10
3.28067e-09
-2.40486e-09
6.48345e-10
4.72145e-09
-2.59928e-09
7.20049e-10
6.10375e-09
-2.63017e-09
8.48942e-10
7.26547e-09
-2.53864e-09
1.05221e-09
8.06637e-09
-2.35706e-09
1.32969e-09
8.39717e-09
-2.11248e-09
1.66931e-09
8.18785e-09
-1.8293e-09
2.04589e-09
7.40577e-09
-1.5314e-09
2.44431e-09
6.09411e-09
-1.2705e-09
2.81389e-09
4.35087e-09
-1.04099e-09
3.10768e-09
2.28639e-09
-8.74902e-10
3.32927e-09
4.80512e-11
-7.87978e-10
3.45136e-09
-2.19913e-09
-7.88412e-10
3.46257e-09
-4.26967e-09
-8.78615e-10
3.33954e-09
-6.01525e-09
-1.04743e-09
3.11639e-09
-7.31697e-09
-1.27729e-09
2.81242e-09
-8.10237e-09
-1.54313e-09
2.45682e-09
-8.3252e-09
-1.83694e-09
2.06831e-09
-8.00663e-09
-2.1181e-09
1.68522e-09
-7.22033e-09
-2.36034e-09
1.34607e-09
-6.07414e-09
-2.54127e-09
1.06893e-09
-4.70469e-09
-2.63376e-09
8.64221e-10
-3.27528e-09
-2.60439e-09
7.34541e-10
-1.95493e-09
-2.41375e-09
6.61274e-10
-9.01161e-10
-2.01075e-09
6.01128e-10
-2.34275e-10
-1.34149e-09
4.8237e-10
-4.50557e-10
2.33402e-10
4.89324e-10
-1.42768e-09
4.93826e-10
1.55383e-09
-3.45118e-09
1.05551e-09
3.04595e-09
-4.89521e-09
1.40448e-09
4.81884e-09
-5.83652e-09
1.65882e-09
6.68912e-09
-6.37693e-09
1.90741e-09
8.45497e-09
-6.60047e-09
2.20446e-09
9.9193e-09
-6.57917e-09
2.5762e-09
1.09075e-08
-6.37236e-09
3.02712e-09
1.12832e-08
-6.03389e-09
3.54567e-09
1.09592e-08
-5.60895e-09
4.10355e-09
9.89286e-09
-5.14662e-09
4.68153e-09
8.12918e-09
-4.70954e-09
5.20266e-09
5.7958e-09
-4.32619e-09
5.61852e-09
3.04312e-09
-4.04625e-09
5.92397e-09
6.20037e-11
-3.90187e-09
6.09494e-09
-2.93355e-09
-3.90862e-09
6.11568e-09
-5.69538e-09
-4.05536e-09
5.93849e-09
-8.03001e-09
-4.3366e-09
5.62372e-09
-9.78461e-09
-4.71695e-09
5.19418e-09
-1.08662e-08
-5.15779e-09
4.69619e-09
-1.12096e-08
-5.61907e-09
4.12546e-09
-1.08486e-08
-6.04093e-09
3.56181e-09
-9.87581e-09
-6.37782e-09
3.04464e-09
-8.42735e-09
-6.58331e-09
2.59356e-09
-6.67603e-09
-6.60601e-09
2.22092e-09
-4.81587e-09
-6.3866e-09
1.92207e-09
-3.04973e-09
-5.8504e-09
1.67054e-09
-1.55932e-09
-4.91233e-09
1.41121e-09
-4.92022e-10
-3.46491e-09
1.05617e-09
-1.43537e-09
4.92823e-10
7.00781e-10
-2.83751e-09
7.09128e-10
2.10131e-09
-6.38041e-09
1.52877e-09
3.94765e-09
-8.80803e-09
2.06655e-09
6.05946e-09
-1.04291e-08
2.48081e-09
8.23505e-09
-1.14303e-08
2.87784e-09
1.02573e-08
-1.19402e-08
3.31755e-09
1.19128e-08
-1.20652e-08
3.83046e-09
1.30107e-08
-1.1893e-08
4.42277e-09
1.3396e-08
-1.15035e-08
5.08427e-09
1.29683e-08
-1.09697e-08
5.78836e-09
1.16774e-08
-1.03652e-08
6.50937e-09
9.58411e-09
-9.76218e-09
7.14592e-09
6.82736e-09
-9.23697e-09
7.66748e-09
3.58211e-09
-8.83211e-09
8.03104e-09
7.03369e-11
-8.62576e-09
8.23559e-09
-3.46054e-09
-8.6402e-09
8.26238e-09
-6.71773e-09
-8.84189e-09
8.04363e-09
-9.47748e-09
-9.23576e-09
7.65885e-09
-1.1563e-08
-9.76359e-09
7.13212e-09
-1.28669e-08
-1.03689e-08
6.51496e-09
-1.33128e-08
-1.09737e-08
5.80043e-09
-1.2944e-08
-1.15064e-08
5.09664e-09
-1.18639e-08
-1.18957e-08
4.43771e-09
-1.02246e-08
-1.20677e-08
3.84508e-09
-8.21793e-09
-1.19453e-08
3.3326e-09
-6.05552e-09
-1.14405e-08
2.89148e-09
-3.95045e-09
-1.04457e-08
2.49031e-09
-2.10668e-09
-8.82449e-09
2.06843e-09
-7.05849e-10
-6.38671e-09
1.52101e-09
-2.84774e-09
7.06546e-10
8.60224e-10
-4.56567e-09
8.67998e-10
2.51993e-09
-9.91456e-09
1.87451e-09
4.64366e-09
-1.3485e-08
2.55326e-09
7.01697e-09
-1.58881e-08
3.0857e-09
9.42139e-09
-1.74289e-08
3.59413e-09
1.16291e-08
-1.82937e-08
4.14575e-09
1.34181e-08
-1.86269e-08
4.77275e-09
1.45871e-08
-1.85459e-08
5.48387e-09
1.49742e-08
-1.81564e-08
6.2658e-09
1.44686e-08
-1.75572e-08
7.09312e-09
1.30166e-08
-1.685e-08
7.93671e-09
1.06812e-08
-1.61232e-08
8.69642e-09
7.60276e-09
-1.54706e-08
9.3121e-09
3.98642e-09
-1.49404e-08
9.72459e-09
7.58698e-11
-1.46722e-08
9.95692e-09
-3.85706e-09
-1.4692e-08
9.9846e-09
-7.4822e-09
-1.49528e-08
9.73603e-09
-1.05581e-08
-1.54509e-08
9.29102e-09
-1.2894e-08
-1.61174e-08
8.68962e-09
-1.43607e-08
-1.68485e-08
7.94619e-09
-1.48851e-08
-1.75568e-08
7.10749e-09
-1.45163e-08
-1.81563e-08
6.28099e-09
-1.33645e-08
-1.85471e-08
5.49959e-09
-1.15913e-08
-1.86292e-08
4.78824e-09
-9.39885e-09
-1.82982e-08
4.1604e-09
-7.00844e-09
-1.74375e-08
3.60659e-09
-4.64489e-09
-1.59025e-08
3.09319e-09
-2.5237e-09
-1.34978e-08
2.55211e-09
-8.64657e-10
-9.90874e-09
1.86304e-09
-4.57813e-09
8.6576e-10
9.6728e-10
-6.5094e-09
9.76511e-10
2.81095e-09
-1.38634e-08
2.10523e-09
5.13628e-09
-1.86912e-08
2.88095e-09
7.6993e-09
-2.19489e-08
3.49785e-09
1.02687e-08
-2.40857e-08
4.08746e-09
1.26098e-08
-2.53598e-08
4.72509e-09
1.44955e-08
-2.59573e-08
5.44473e-09
1.57188e-08
-2.60263e-08
6.25708e-09
1.61118e-08
-2.56967e-08
7.14731e-09
1.55597e-08
-2.50905e-08
8.08537e-09
1.4006e-08
-2.43316e-08
9.03525e-09
1.14937e-08
-2.35421e-08
9.93116e-09
8.17734e-09
-2.27986e-08
1.06443e-08
4.28512e-09
-2.21522e-08
1.11039e-08
7.65361e-11
-2.18145e-08
1.13508e-08
-4.15637e-09
-2.1836e-08
1.13769e-08
-8.04964e-09
-2.21816e-08
1.1122e-08
-1.13568e-08
-2.27613e-08
1.06175e-08
-1.38747e-08
-2.35303e-08
9.93072e-09
-1.54459e-08
-2.43279e-08
9.0504e-09
-1.6019e-08
-2.50876e-08
8.10381e-09
-1.56454e-08
-2.56957e-08
7.16585e-09
-1.44398e-08
-2.60278e-08
6.27507e-09
-1.25703e-08
-2.59604e-08
5.4616e-09
-1.02432e-08
-2.53648e-08
4.73956e-09
-7.68679e-09
-2.40933e-08
4.09948e-09
-5.13439e-09
-2.19589e-08
3.50407e-09
-2.81504e-09
-1.86945e-08
2.87743e-09
-9.72282e-10
-1.38448e-08
2.09338e-09
-6.52579e-09
9.75396e-10
1.0211e-09
-8.57366e-09
1.04322e-09
2.97793e-09
-1.80751e-08
2.25495e-09
5.43039e-09
-2.42252e-08
3.08162e-09
8.11108e-09
-2.83747e-08
3.74518e-09
1.07819e-08
-3.11463e-08
4.38983e-09
1.32056e-08
-3.28751e-08
5.0916e-09
1.51542e-08
-3.37921e-08
5.88608e-09
1.64169e-08
-3.40751e-08
6.78607e-09
1.68231e-08
-3.38771e-08
7.77428e-09
1.62514e-08
-3.33366e-08
8.81775e-09
1.46441e-08
-3.25991e-08
9.87472e-09
1.20155e-08
-3.18067e-08
1.08931e-08
8.55241e-09
-3.10444e-08
1.17089e-08
4.48095e-09
-3.02927e-08
1.2212e-08
8.25152e-11
-2.98918e-08
1.24757e-08
-4.3365e-09
-2.99248e-08
1.25078e-08
-8.42263e-09
-3.03487e-08
1.22532e-08
-1.18753e-08
-3.10001e-08
1.16914e-08
-1.45094e-08
-3.17958e-08
1.08996e-08
-1.61354e-08
-3.2599e-08
9.89713e-09
-1.67282e-08
-3.33375e-08
8.84259e-09
-1.63423e-08
-3.38792e-08
7.79758e-09
-1.50976e-08
-3.40797e-08
6.8071e-09
-1.31652e-08
-3.37987e-08
5.90592e-09
-1.07548e-08
-3.28826e-08
5.1073e-09
-8.09648e-09
-3.11536e-08
4.40202e-09
-5.42709e-09
-2.8378e-08
3.74974e-09
-2.98516e-09
-2.42081e-08
3.07173e-09
-1.0336e-09
-1.80282e-08
2.23181e-09
-8.59995e-09
1.04059e-09
1.04123e-09
-1.06801e-08
1.06524e-09
3.03099e-09
-2.2377e-08
2.3122e-09
5.52548e-09
-2.98829e-08
3.16321e-09
8.24646e-09
-3.49424e-08
3.84666e-09
1.09479e-08
-3.8366e-08
4.51828e-09
1.33962e-08
-4.05865e-08
5.26316e-09
1.53671e-08
-4.18777e-08
6.11475e-09
1.66509e-08
-4.24445e-08
7.08547e-09
1.70734e-08
-4.24581e-08
8.15848e-09
1.65111e-08
-4.2072e-08
9.29775e-09
1.48958e-08
-4.14404e-08
1.04566e-08
1.2227e-08
-4.07244e-08
1.15865e-08
8.69817e-09
-4.00331e-08
1.25175e-08
4.5507e-09
-3.91952e-08
1.30499e-08
8.22149e-11
-3.8767e-08
1.33437e-08
-4.41315e-09
-3.88075e-08
1.33781e-08
-8.59147e-09
-3.92533e-08
1.30828e-08
-1.20948e-08
-3.99868e-08
1.249e-08
-1.47625e-08
-4.0717e-08
1.15889e-08
-1.63955e-08
-4.1445e-08
1.0479e-08
-1.69796e-08
-4.20769e-08
9.32344e-09
-1.65771e-08
-4.24645e-08
8.1829e-09
-1.53107e-08
-4.24543e-08
7.10812e-09
-1.33553e-08
-4.18903e-08
6.13618e-09
-1.09198e-08
-4.05991e-08
5.28103e-09
-8.23118e-09
-3.83733e-08
4.53101e-09
-5.52534e-09
-3.49286e-08
3.84477e-09
-3.04303e-09
-2.98312e-08
3.14083e-09
-1.05269e-09
-2.22998e-08
2.28133e-09
-1.07172e-08
1.06462e-09
1.02317e-09
-1.27492e-08
1.04594e-09
2.96561e-09
-2.66006e-08
2.28118e-09
5.40928e-09
-3.54668e-08
3.14026e-09
8.0834e-09
-4.14412e-08
3.82478e-09
1.07399e-08
-4.55128e-08
4.4903e-09
1.31446e-08
-4.82341e-08
5.24293e-09
1.50858e-08
-4.99423e-08
6.1235e-09
1.63617e-08
-5.08584e-08
7.13801e-09
1.67982e-08
-5.11626e-08
8.26797e-09
1.62691e-08
-5.10195e-08
9.47661e-09
1.47098e-08
-5.05865e-08
1.07053e-08
1.21082e-08
-5.00189e-08
1.18961e-08
8.59943e-09
-4.94468e-08
1.29224e-08
4.49323e-09
-4.85839e-08
1.34949e-08
7.84556e-11
-4.81931e-08
1.38409e-08
-4.36878e-09
-4.82292e-08
1.38689e-08
-8.51732e-09
-4.86066e-08
1.35019e-08
-1.19961e-08
-4.93769e-08
1.28688e-08
-1.45826e-08
-5.00134e-08
1.18829e-08
-1.61564e-08
-5.05956e-08
1.07245e-08
-1.67057e-08
-5.10306e-08
9.50295e-09
-1.62888e-08
-5.1175e-08
8.2936e-09
-1.50303e-08
-5.08745e-08
7.16168e-09
-1.3104e-08
-4.99622e-08
6.14561e-09
-1.07132e-08
-4.82488e-08
5.25901e-09
-8.07694e-09
-4.54978e-08
4.48828e-09
-5.42284e-09
-4.13751e-08
3.79241e-09
-2.98647e-09
-3.53576e-08
3.09003e-09
-1.03036e-09
-2.65016e-08
2.24571e-09
-1.27944e-08
1.0468e-09
9.70774e-10
-1.47008e-08
9.8085e-10
2.80444e-09
-3.05762e-08
2.14196e-09
5.08785e-09
-4.07288e-08
2.97857e-09
7.60449e-09
-4.76177e-08
3.65984e-09
1.01253e-08
-5.23402e-08
4.30661e-09
1.24092e-08
-5.55438e-08
5.02591e-09
1.42572e-08
-5.76836e-08
5.89323e-09
1.54837e-08
-5.89957e-08
6.9108e-09
1.5925e-08
-5.96581e-08
8.0543e-09
1.54522e-08
-5.98333e-08
9.28656e-09
1.40039e-08
-5.96776e-08
1.05395e-08
1.15676e-08
-5.93307e-08
1.17481e-08
8.18991e-09
-5.88934e-08
1.28244e-08
4.27679e-09
-5.8117e-08
1.34463e-08
7.33546e-11
-5.78026e-08
1.3813e-08
-4.15522e-09
-5.7837e-08
1.38364e-08
-8.09682e-09
-5.80979e-08
1.3433e-08
-1.14584e-08
-5.87526e-08
1.27373e-08
-1.38846e-08
-5.93155e-08
1.17283e-08
-1.53437e-08
-5.96932e-08
1.05567e-08
-1.5836e-08
-5.98507e-08
9.31244e-09
-1.54145e-08
-5.96763e-08
8.0798e-09
-1.42037e-08
-5.90195e-08
6.93417e-09
-1.2368e-08
-5.7711e-08
5.91314e-09
-1.01043e-08
-5.55417e-08
5.02924e-09
-7.61298e-09
-5.22573e-08
4.26816e-09
-5.1045e-09
-4.74722e-08
3.58866e-09
-2.80705e-09
-4.05684e-08
2.91343e-09
-9.67581e-10
-3.04541e-08
2.11306e-09
-1.47481e-08
9.86149e-10
8.76162e-10
-1.64476e-08
8.70678e-10
2.53687e-09
-3.41135e-08
1.87654e-09
4.58351e-09
-4.54019e-08
2.62648e-09
6.81966e-09
-5.31469e-08
3.29311e-09
9.08747e-09
-5.8526e-08
3.918e-09
1.11556e-08
-6.21952e-08
4.58334e-09
1.28383e-08
-6.47589e-08
5.39264e-09
1.39684e-08
-6.64892e-08
6.36341e-09
1.43949e-08
-6.75455e-08
7.46103e-09
1.40001e-08
-6.80791e-08
8.64061e-09
1.27388e-08
-6.82278e-08
9.81158e-09
1.05778e-08
-6.80922e-08
1.09224e-08
7.46528e-09
-6.77562e-08
1.19754e-08
3.89138e-09
-6.725e-08
1.2707e-08
6.70018e-11
-6.7068e-08
1.30898e-08
-3.77297e-09
-6.71029e-08
1.31059e-08
-7.32964e-09
-6.7236e-08
1.26948e-08
-1.03877e-08
-6.76897e-08
1.19952e-08
-1.25817e-08
-6.81848e-08
1.10633e-08
-1.38899e-08
-6.82747e-08
9.88974e-09
-1.43085e-08
-6.81044e-08
8.67229e-09
-1.39031e-08
-6.75639e-08
7.48224e-09
-1.27862e-08
-6.65178e-08
6.38142e-09
-1.11119e-08
-6.47898e-08
5.40456e-09
-9.06507e-09
-6.21531e-08
4.56457e-09
-6.81803e-09
-5.83483e-08
3.84406e-09
-4.55408e-09
-5.29396e-08
3.2036e-09
-2.49202e-09
-4.52158e-08
2.5854e-09
-8.50751e-10
-3.39661e-08
1.87078e-09
-1.64759e-08
8.77149e-10
7.38432e-10
-1.79048e-08
7.1876e-10
2.15377e-09
-3.70375e-08
1.5087e-09
3.88361e-09
-4.92065e-08
2.07482e-09
5.75965e-09
-5.76664e-08
2.64354e-09
7.6285e-09
-6.36396e-08
3.24478e-09
9.36447e-09
-6.77958e-08
3.86467e-09
1.08e-08
-7.07732e-08
4.57875e-09
1.17876e-08
-7.2921e-08
5.44424e-09
1.21903e-08
-7.43747e-08
6.42657e-09
1.19007e-08
-7.52402e-08
7.45076e-09
1.08472e-08
-7.56292e-08
8.45482e-09
8.96359e-09
-7.57274e-08
9.51888e-09
6.33519e-09
-7.56508e-08
1.0523e-08
3.3127e-09
-7.54274e-08
1.11999e-08
5.6998e-11
-7.53568e-08
1.15446e-08
-3.22257e-09
-7.53386e-08
1.15153e-08
-6.25181e-09
-7.53117e-08
1.1105e-08
-8.84455e-09
-7.55502e-08
1.04534e-08
-1.06965e-08
-7.59503e-08
9.61746e-09
-1.17763e-08
-7.57156e-08
8.52079e-09
-1.20959e-08
-7.52404e-08
7.45555e-09
-1.17222e-08
-7.43591e-08
6.42158e-09
-1.07494e-08
-7.29375e-08
5.44702e-09
-9.30701e-09
-7.08063e-08
4.57416e-09
-7.57317e-09
-6.77213e-08
3.83442e-09
-5.69189e-09
-6.34489e-08
3.2194e-09
-3.82221e-09
-5.7509e-08
2.69972e-09
-2.1053e-09
-4.91283e-08
2.19561e-09
-7.26546e-10
-3.69364e-08
1.5916e-09
-1.79454e-08
7.42984e-10
5.66786e-10
-1.90136e-08
5.42086e-10
1.63235e-09
-3.92572e-08
1.15422e-09
2.96852e-09
-5.21007e-08
1.55807e-09
4.39965e-09
-6.1004e-08
1.90653e-09
5.78711e-09
-6.73656e-08
2.33857e-09
7.07882e-09
-7.19494e-08
2.86199e-09
8.16866e-09
-7.53156e-08
3.45269e-09
8.95743e-09
-7.78338e-08
4.12408e-09
9.34353e-09
-7.96376e-08
4.87685e-09
9.13981e-09
-8.07292e-08
5.69279e-09
8.23688e-09
-8.13261e-08
6.59996e-09
6.72211e-09
-8.17445e-08
7.53194e-09
4.81661e-09
-8.20634e-08
8.31814e-09
2.54924e-09
-8.20187e-08
8.85874e-09
5.01167e-11
-8.19764e-08
9.11871e-09
-2.49115e-09
-8.18566e-08
9.05939e-09
-4.80636e-09
-8.17234e-08
8.72701e-09
-6.75538e-09
-8.17677e-08
8.1666e-09
-8.22648e-09
-8.1853e-08
7.37389e-09
-9.04246e-09
-8.13015e-08
6.40197e-09
-9.24139e-09
-8.06041e-08
5.56269e-09
-8.92555e-09
-7.94611e-08
4.7862e-09
-8.18098e-09
-7.7755e-08
4.07295e-09
-7.09859e-09
-7.53611e-08
3.47245e-09
-5.77985e-09
-7.1995e-08
2.95495e-09
-4.34696e-09
-6.73664e-08
2.48461e-09
-2.91879e-09
-6.10058e-08
2.06873e-09
-1.60723e-09
-5.21089e-08
1.66908e-09
-5.55457e-10
-3.91945e-08
1.20642e-09
-1.9063e-08
5.62126e-10
3.83229e-10
-1.97268e-08
3.30022e-10
1.03355e-09
-4.06008e-08
6.93334e-10
1.86834e-09
-5.39378e-08
1.00232e-09
2.7745e-09
-6.31614e-08
1.25119e-09
3.66379e-09
-6.97925e-08
1.53774e-09
4.49633e-09
-7.46498e-08
1.86785e-09
5.19581e-09
-7.8234e-08
2.21895e-09
5.67129e-09
-8.08807e-08
2.57149e-09
5.9281e-09
-8.28501e-08
2.95578e-09
5.78009e-09
-8.41018e-08
3.52067e-09
5.18734e-09
-8.49486e-08
4.2153e-09
4.26905e-09
-8.56806e-08
4.85445e-09
3.06692e-09
-8.6216e-08
5.35482e-09
1.63002e-09
-8.62845e-08
5.70266e-09
5.69838e-11
-8.62993e-08
5.89602e-09
-1.54031e-09
-8.61392e-08
5.87988e-09
-3.00472e-09
-8.59434e-08
5.68454e-09
-4.21343e-09
-8.58868e-08
5.32785e-09
-5.15757e-09
-8.57499e-08
4.84115e-09
-5.73825e-09
-8.49199e-08
4.19914e-09
-5.95475e-09
-8.3909e-08
3.52142e-09
-5.78633e-09
-8.25194e-08
2.88991e-09
-5.27551e-09
-8.06707e-08
2.405e-09
-4.52071e-09
-7.81885e-08
2.07266e-09
-3.64937e-09
-7.46756e-08
1.80931e-09
-2.73398e-09
-6.98346e-08
1.55288e-09
-1.83068e-09
-6.32078e-08
1.29873e-09
-1.00511e-09
-5.39815e-08
1.04708e-09
-3.47714e-10
-4.06069e-08
7.55116e-10
-1.97622e-08
3.51542e-10
1.40626e-10
-1.99802e-08
1.12726e-10
3.61103e-10
-4.10624e-08
2.41076e-10
6.56615e-10
-5.45928e-08
3.59544e-10
9.81289e-10
-6.3935e-08
4.48989e-10
1.30934e-09
-7.06592e-08
5.38702e-10
1.64164e-09
-7.55959e-08
6.13901e-10
1.95064e-09
-7.92228e-08
6.79966e-10
2.1358e-09
-8.18524e-08
7.86714e-10
2.16311e-09
-8.38305e-08
9.53265e-10
2.04836e-09
-8.5177e-08
1.19008e-09
1.86433e-09
-8.62028e-08
1.43833e-09
1.5934e-09
-8.70585e-08
1.64888e-09
1.08389e-09
-8.74988e-08
1.79231e-09
5.42551e-10
-8.76372e-08
1.89418e-09
3.54209e-11
-8.77879e-08
1.99575e-09
-5.28697e-10
-8.76563e-08
2.08123e-09
-1.05646e-09
-8.74921e-08
2.07649e-09
-1.47396e-09
-8.74095e-08
1.9403e-09
-1.80274e-09
-8.71806e-08
1.75956e-09
-2.00615e-09
-8.62543e-08
1.53793e-09
-2.08895e-09
-8.513e-08
1.30386e-09
-2.03783e-09
-8.36483e-08
1.07787e-09
-1.85943e-09
-8.17423e-08
8.93247e-10
-1.59155e-09
-7.9209e-08
7.52683e-10
-1.28001e-09
-7.56229e-08
6.35848e-10
-9.54002e-10
-7.06915e-08
5.30995e-10
-6.33645e-10
-6.39672e-08
4.39136e-10
-3.44036e-10
-5.46243e-08
3.53325e-10
-1.18389e-10
-4.10848e-08
2.52227e-10
-2.00019e-08
1.21374e-10
-9.75797e-11
-1.97751e-08
-1.07452e-10
-3.03294e-10
-4.06398e-08
-2.16783e-10
-5.56116e-10
-5.40444e-08
-2.95536e-10
-8.32609e-10
-6.32904e-08
-3.68031e-10
-1.11771e-09
-6.99388e-08
-4.35276e-10
-1.40437e-09
-7.48263e-08
-4.8278e-10
-1.6721e-09
-7.8437e-08
-5.17982e-10
-1.84178e-09
-8.10944e-08
-5.88155e-10
-1.84423e-09
-8.30752e-08
-7.52807e-10
-1.71875e-09
-8.43024e-08
-1.00008e-09
-1.55732e-09
-8.51291e-08
-1.23509e-09
-1.41895e-09
-8.58049e-08
-1.39187e-09
-1.19958e-09
-8.6225e-08
-1.4931e-09
-7.38951e-10
-8.64983e-08
-1.59954e-09
-6.5806e-11
-8.66981e-08
-1.76297e-09
4.86243e-10
-8.63818e-08
-1.82657e-09
9.61181e-10
-8.62143e-08
-1.75276e-09
1.38822e-09
-8.61997e-08
-1.63674e-09
1.62258e-09
-8.59272e-08
-1.48766e-09
1.77301e-09
-8.5092e-08
-1.3126e-09
1.84776e-09
-8.40876e-08
-1.11702e-09
1.80653e-09
-8.26907e-08
-9.16376e-10
1.66482e-09
-8.08412e-08
-7.59364e-10
1.42708e-09
-7.83248e-08
-6.46428e-10
1.15177e-09
-7.47875e-08
-5.60007e-10
8.66361e-10
-6.9928e-08
-4.78017e-10
5.81383e-10
-6.3286e-08
-3.96175e-10
3.23159e-10
-5.4052e-08
-3.14031e-10
1.16463e-10
-4.06598e-08
-2.18201e-10
-1.97837e-08
-1.01724e-10
-3.33388e-10
-1.91051e-08
-3.36573e-10
-9.68336e-10
-3.92848e-08
-7.20017e-10
-1.76068e-09
-5.22524e-08
-9.99616e-10
-2.62821e-09
-6.11817e-08
-1.24113e-09
-3.49975e-09
-6.7574e-08
-1.49318e-09
-4.30754e-09
-7.22435e-08
-1.77486e-09
-4.97865e-09
-7.56753e-08
-2.09038e-09
-5.45384e-09
-7.81731e-08
-2.44599e-09
-5.67367e-09
-8.001e-08
-2.84526e-09
-5.50383e-09
-8.11094e-08
-3.36273e-09
-4.93791e-09
-8.16843e-08
-4.01079e-09
-4.12321e-09
-8.2025e-08
-4.59456e-09
-3.01487e-09
-8.22901e-08
-5.04323e-09
-1.62067e-09
-8.24968e-08
-5.39574e-09
-2.4892e-11
-8.26692e-08
-5.6247e-09
1.51656e-09
-8.23195e-08
-5.60381e-09
2.96605e-09
-8.22536e-08
-5.41016e-09
4.23438e-09
-8.24077e-08
-5.0603e-09
4.99459e-09
-8.21097e-08
-4.57758e-09
5.48861e-09
-8.15583e-08
-4.02766e-09
5.70726e-09
-8.0911e-08
-3.39515e-09
5.54281e-09
-7.97911e-08
-2.73509e-09
5.06835e-09
-7.80657e-08
-2.301e-09
4.34288e-09
-7.55869e-08
-2.01244e-09
3.51e-09
-7.22014e-08
-1.75318e-09
2.64775e-09
-6.75718e-08
-1.49387e-09
1.78248e-09
-6.119e-08
-1.2306e-09
9.96506e-10
-5.22927e-08
-9.73167e-10
3.62113e-10
-3.93482e-08
-6.77068e-10
-1.90984e-08
-3.23056e-10
-5.46193e-10
-1.80113e-08
-5.47534e-10
-1.57412e-09
-3.7081e-08
-1.17587e-09
-2.85764e-09
-4.93368e-08
-1.63209e-09
-4.25635e-09
-5.7757e-08
-2.02594e-09
-5.65474e-09
-6.37384e-08
-2.43706e-09
-6.93177e-09
-6.8053e-08
-2.91333e-09
-7.97293e-09
-7.11717e-08
-3.46231e-09
-8.71024e-09
-7.33375e-08
-4.09815e-09
-9.07914e-09
-7.48258e-08
-4.8152e-09
-8.89794e-09
-7.57272e-08
-5.56337e-09
-8.03623e-09
-7.61217e-08
-6.42421e-09
-6.60529e-09
-7.61405e-08
-7.31551e-09
-4.73277e-09
-7.60927e-08
-8.06986e-09
-2.50057e-09
-7.61094e-08
-8.61961e-09
-2.92724e-11
-7.62245e-08
-8.91612e-09
2.42978e-09
-7.59292e-08
-8.8494e-09
4.72027e-09
-7.59772e-08
-8.56691e-09
6.70362e-09
-7.63579e-08
-8.03304e-09
8.05188e-09
-7.61991e-08
-7.25878e-09
8.86658e-09
-7.59673e-08
-6.40552e-09
9.11264e-09
-7.561e-08
-5.54705e-09
8.79955e-09
-7.47915e-08
-4.68639e-09
8.02711e-09
-7.33495e-08
-3.94381e-09
6.93247e-09
-7.11659e-08
-3.32625e-09
5.63651e-09
-6.81075e-08
-2.79785e-09
4.26359e-09
-6.38716e-08
-2.3272e-09
2.89164e-09
-5.79027e-08
-1.91529e-09
1.62407e-09
-4.95024e-08
-1.52274e-09
5.80347e-10
-3.72333e-08
-1.07111e-09
-1.80009e-08
-5.17138e-10
-7.29537e-10
-1.65572e-08
-7.2447e-10
-2.08331e-09
-3.41683e-08
-1.5588e-09
-3.77697e-09
-4.54686e-08
-2.17443e-09
-5.62545e-09
-5.32241e-08
-2.68438e-09
-7.48211e-09
-5.8677e-08
-3.20469e-09
-9.20211e-09
-6.25207e-08
-3.81216e-09
-1.0634e-08
-6.51967e-08
-4.54299e-09
-1.16015e-08
-6.69662e-08
-5.40373e-09
-1.19965e-08
-6.80653e-08
-6.36534e-09
-1.17156e-08
-6.86466e-08
-7.36139e-09
-1.06612e-08
-6.88244e-08
-8.3517e-09
-8.77427e-09
-6.86623e-08
-9.36507e-09
-6.23194e-09
-6.83112e-08
-1.03239e-08
-3.26435e-09
-6.80509e-08
-1.10261e-08
-2.42225e-11
-6.80661e-08
-1.13986e-08
3.20864e-09
-6.78568e-08
-1.13054e-08
6.20645e-09
-6.80211e-08
-1.09539e-08
8.78934e-09
-6.86074e-08
-1.03334e-08
1.06439e-08
-6.87374e-08
-9.31616e-09
1.1711e-08
-6.88008e-08
-8.23352e-09
1.20204e-08
-6.86454e-08
-7.27383e-09
1.16441e-08
-6.80961e-08
-6.31907e-09
1.06753e-08
-6.701e-08
-5.37065e-09
9.25896e-09
-6.52356e-08
-4.51401e-09
7.54256e-09
-6.25966e-08
-3.79455e-09
5.69669e-09
-5.8856e-08
-3.16972e-09
3.86845e-09
-5.35183e-08
-2.55615e-09
2.16355e-09
-4.58195e-08
-1.97784e-09
7.64677e-10
-3.44379e-08
-1.39655e-09
-1.65515e-08
-6.84668e-10
-8.72033e-10
-1.48219e-08
-8.63208e-10
-2.48299e-09
-3.07095e-08
-1.84779e-09
-4.52041e-09
-4.0849e-08
-2.58207e-09
-6.76834e-09
-4.77775e-08
-3.19857e-09
-9.01137e-09
-5.26072e-08
-3.82661e-09
-1.10576e-08
-5.59376e-08
-4.53677e-09
-1.27322e-08
-5.81507e-08
-5.37138e-09
-1.38523e-08
-5.95065e-08
-6.33948e-09
-1.42711e-08
-6.02136e-08
-7.43279e-09
-1.38774e-08
-6.04355e-08
-8.60463e-09
-1.26157e-08
-6.0316e-08
-9.76993e-09
-1.04484e-08
-5.99827e-08
-1.08467e-08
-7.40919e-09
-5.95109e-08
-1.18396e-08
-3.8458e-09
-5.89816e-08
-1.26328e-08
-1.79442e-11
-5.88077e-08
-1.30864e-08
3.79674e-09
-5.86582e-08
-1.30133e-08
7.35024e-09
-5.89501e-08
-1.26245e-08
1.03871e-08
-5.96872e-08
-1.19569e-08
1.25836e-08
-6.00336e-08
-1.09002e-08
1.38772e-08
-6.0338e-08
-9.75629e-09
1.42849e-08
-6.0461e-08
-8.59209e-09
1.38729e-08
-6.02499e-08
-7.4342e-09
1.27567e-08
-5.95503e-08
-6.34355e-09
1.10909e-08
-5.81974e-08
-5.3723e-09
9.0395e-09
-5.59946e-08
-4.55045e-09
6.78052e-09
-5.27141e-08
-3.88277e-09
4.53509e-09
-4.79841e-08
-3.28866e-09
2.50886e-09
-4.11272e-08
-2.66604e-09
8.78864e-10
-3.09169e-08
-1.89088e-09
-1.48109e-08
-8.61686e-10
-9.68421e-10
-1.28711e-08
-9.82291e-10
-2.80052e-09
-2.67595e-08
-2.11784e-09
-5.09423e-09
-3.56404e-08
-2.91483e-09
-7.60024e-09
-4.16891e-08
-3.58227e-09
-1.00946e-08
-4.58579e-08
-4.25493e-09
-1.23655e-08
-4.86534e-08
-5.01324e-09
-1.42081e-08
-5.04118e-08
-5.89627e-09
-1.54294e-08
-5.137e-08
-6.91512e-09
-1.58642e-08
-5.17167e-08
-8.06191e-09
-1.53896e-08
-5.16144e-08
-9.29549e-09
-1.39404e-08
-5.12191e-08
-1.05459e-08
-1.15189e-08
-5.06855e-08
-1.17187e-08
-8.18075e-09
-5.01194e-08
-1.27297e-08
-4.21676e-09
-4.94845e-08
-1.34613e-08
-1.21021e-11
-4.91126e-08
-1.38999e-08
4.20184e-09
-4.90175e-08
-1.38547e-08
8.15443e-09
-4.94204e-08
-1.34823e-08
1.1477e-08
-5.01758e-08
-1.28339e-08
1.3916e-08
-5.0708e-08
-1.17646e-08
1.53808e-08
-5.12417e-08
-1.0561e-08
1.58676e-08
-5.16405e-08
-9.30726e-09
1.54405e-08
-5.17489e-08
-8.07377e-09
1.42246e-08
-5.14083e-08
-6.92617e-09
1.2387e-08
-5.04557e-08
-5.90397e-09
1.0117e-08
-4.87024e-08
-5.0222e-09
7.60655e-09
-4.59194e-08
-4.28421e-09
5.07377e-09
-4.17935e-08
-3.65779e-09
2.77421e-09
-3.58023e-08
-3.02526e-09
9.62462e-10
-2.69147e-08
-2.1904e-09
-1.28624e-08
-9.8604e-10
-1.01271e-09
-1.08019e-08
-1.05643e-09
-2.98261e-09
-2.25123e-08
-2.27714e-09
-5.4333e-09
-3.00904e-08
-3.09921e-09
-8.09585e-09
-3.52329e-08
-3.79353e-09
-1.07434e-08
-3.87212e-08
-4.48904e-09
-1.3147e-08
-4.09882e-08
-5.26161e-09
-1.50884e-08
-4.23191e-08
-6.15126e-09
-1.63634e-08
-4.29234e-08
-7.17147e-09
-1.6797e-08
-4.29733e-08
-8.30971e-09
-1.62618e-08
-4.26241e-08
-9.52532e-09
-1.46948e-08
-4.20253e-08
-1.07607e-08
-1.20989e-08
-4.1335e-08
-1.19463e-08
-8.60455e-09
-4.06451e-08
-1.29687e-08
-4.42946e-09
-3.99989e-08
-1.36608e-08
-6.52809e-12
-3.95436e-08
-1.3992e-08
4.43049e-09
-3.95048e-08
-1.39498e-08
8.58865e-09
-3.99592e-08
-1.36193e-08
1.20703e-08
-4.06786e-08
-1.29787e-08
1.46702e-08
-4.13522e-08
-1.19556e-08
1.6248e-08
-4.20433e-08
-1.07761e-08
1.67937e-08
-4.26451e-08
-9.54105e-09
1.63689e-08
-4.30003e-08
-8.32385e-09
1.51008e-08
-4.29557e-08
-7.18441e-09
1.31626e-08
-4.23563e-08
-6.16116e-09
1.07604e-08
-4.10299e-08
-5.27028e-09
8.10966e-09
-3.8768e-08
-4.50056e-09
5.43059e-09
-3.52925e-08
-3.8219e-09
2.97216e-09
-3.01905e-08
-3.15338e-09
1.02162e-09
-2.26515e-08
-2.31264e-09
-1.0789e-08
-1.05181e-09
-1.04506e-09
-8.6819e-09
-1.07481e-09
-3.05292e-09
-1.82029e-08
-2.30144e-09
-5.55218e-09
-2.44399e-08
-3.15116e-09
-8.27506e-09
-2.86549e-08
-3.85512e-09
-1.0983e-08
-3.14693e-08
-4.54397e-09
-1.34386e-08
-3.32341e-08
-5.29847e-09
-1.54149e-08
-3.41831e-08
-6.15972e-09
-1.67017e-08
-3.44969e-08
-7.13967e-09
-1.71218e-08
-3.43293e-08
-8.22383e-09
-1.65511e-08
-3.38186e-08
-9.37597e-09
-1.49205e-08
-3.31091e-08
-1.05465e-08
-1.22506e-08
-3.23313e-08
-1.16735e-08
-8.7391e-09
-3.15576e-08
-1.2599e-08
-4.55909e-09
-3.09481e-08
-1.32309e-08
-3.61941e-11
-3.05518e-08
-1.35149e-08
4.46561e-09
-3.05095e-08
-1.34972e-08
8.62937e-09
-3.0899e-08
-1.32239e-08
1.21965e-08
-3.15999e-08
-1.26458e-08
1.48946e-08
-3.23475e-08
-1.17025e-08
1.65338e-08
-3.31188e-08
-1.05636e-08
1.71148e-08
-3.38336e-08
-9.39239e-09
1.67025e-08
-3.43493e-08
-8.23865e-09
1.5422e-08
-3.45226e-08
-7.1526e-09
1.34495e-08
-3.42124e-08
-6.1713e-09
1.09954e-08
-3.32666e-08
-5.30919e-09
8.28686e-09
-3.15055e-08
-4.55393e-09
5.55879e-09
-2.86954e-08
-3.86895e-09
3.04692e-09
-2.44946e-08
-3.18401e-09
1.03531e-09
-1.82899e-08
-2.34997e-09
-8.67577e-09
-1.07787e-09
-1.03625e-09
-6.59436e-09
-1.05121e-09
-3.00305e-09
-1.39881e-08
-2.24794e-09
-5.46537e-09
-1.88899e-08
-3.08764e-09
-8.15851e-09
-2.21931e-08
-3.76866e-09
-1.08425e-08
-2.43598e-08
-4.42547e-09
-1.32794e-08
-2.56599e-08
-5.1373e-09
-1.52372e-08
-2.62821e-08
-5.94327e-09
-1.65057e-08
-2.63744e-08
-6.85386e-09
-1.69113e-08
-2.60662e-08
-7.85739e-09
-1.63287e-08
-2.54821e-08
-8.91896e-09
-1.46995e-08
-2.47437e-08
-9.99447e-09
-1.20733e-08
-2.39549e-08
-1.10024e-08
-8.61758e-09
-2.32073e-08
-1.18059e-08
-4.51798e-09
-2.26506e-08
-1.2397e-08
-4.12748e-11
-2.23413e-08
-1.26872e-08
4.4086e-09
-2.22946e-08
-1.26648e-08
8.51376e-09
-2.26126e-08
-1.23916e-08
1.20163e-08
-2.32435e-08
-1.18588e-08
1.46725e-08
-2.39719e-08
-1.10316e-08
1.63089e-08
-2.47489e-08
-1.00063e-08
1.6899e-08
-2.5491e-08
-8.93259e-09
1.65032e-08
-2.60812e-08
-7.87237e-09
1.52408e-08
-2.63923e-08
-6.86779e-09
1.32865e-08
-2.63036e-08
-5.95461e-09
1.08521e-08
-2.56846e-08
-5.1475e-09
8.16906e-09
-2.43871e-08
-4.43527e-09
5.47311e-09
-2.22211e-08
-3.77829e-09
3.00386e-09
-1.89232e-08
-3.10211e-09
1.02479e-09
-1.40347e-08
-2.27614e-09
-6.59749e-09
-1.05349e-09
-9.78853e-10
-4.63085e-09
-9.84604e-10
-2.83863e-09
-1.002e-08
-2.10827e-09
-5.18136e-09
-1.3651e-08
-2.89618e-09
-7.76113e-09
-1.60861e-08
-3.52728e-09
-1.03469e-08
-1.76452e-08
-4.12876e-09
-1.27042e-08
-1.85271e-08
-4.77545e-09
-1.46017e-08
-1.88773e-08
-5.50719e-09
-1.5833e-08
-1.88121e-08
-6.33096e-09
-1.62262e-08
-1.84375e-08
-7.23553e-09
-1.56613e-08
-1.78532e-08
-8.19386e-09
-1.40817e-08
-1.71545e-08
-9.16868e-09
-1.15684e-08
-1.64269e-08
-1.00412e-08
-8.25012e-09
-1.57764e-08
-1.07491e-08
-4.32052e-09
-1.52966e-08
-1.12836e-08
-3.61898e-11
-1.505e-08
-1.15756e-08
4.22481e-09
-1.50121e-08
-1.15436e-08
8.16197e-09
-1.52721e-08
-1.12775e-08
1.15156e-08
-1.57983e-08
-1.07988e-08
1.40548e-08
-1.64402e-08
-1.00707e-08
1.56397e-08
-1.71605e-08
-9.1732e-09
1.62124e-08
-1.78585e-08
-8.20513e-09
1.58275e-08
-1.84464e-08
-7.24986e-09
1.46033e-08
-1.88239e-08
-6.34412e-09
1.27096e-08
-1.88915e-08
-5.5183e-09
1.03546e-08
-1.85441e-08
-4.78544e-09
7.7678e-09
-1.76633e-08
-4.137e-09
5.18694e-09
-1.6105e-08
-3.53518e-09
2.84249e-09
-1.36739e-08
-2.90481e-09
9.76904e-10
-1.00482e-08
-2.12089e-09
-4.63473e-09
-9.85871e-10
-8.7291e-10
-2.88377e-09
-8.74175e-10
-2.54976e-09
-6.46552e-09
-1.87774e-09
-4.6962e-09
-8.93358e-09
-2.57108e-09
-7.08772e-09
-1.05771e-08
-3.11745e-09
-9.50881e-09
-1.15871e-08
-3.63699e-09
-1.1734e-08
-1.21048e-08
-4.19708e-09
-1.35359e-08
-1.22398e-08
-4.8355e-09
-1.47132e-08
-1.20776e-08
-5.55714e-09
-1.51011e-08
-1.1697e-08
-6.35265e-09
-1.45839e-08
-1.11721e-08
-7.19822e-09
-1.31164e-08
-1.05714e-08
-8.05049e-09
-1.07773e-08
-9.97219e-09
-8.79364e-09
-7.68057e-09
-9.44821e-09
-9.4248e-09
-4.01576e-09
-9.06256e-09
-9.89872e-09
-3.0955e-11
-8.86487e-09
-1.01699e-08
3.93468e-09
-8.8425e-09
-1.01352e-08
7.60034e-09
-9.04826e-09
-9.88947e-09
1.07185e-08
-9.45511e-09
-9.46122e-09
1.30822e-08
-9.97747e-09
-8.82641e-09
1.45616e-08
-1.05754e-08
-8.06437e-09
1.50863e-08
-1.11752e-08
-7.20806e-09
1.47067e-08
-1.17018e-08
-6.36499e-09
1.35356e-08
-1.20842e-08
-5.56869e-09
1.1737e-08
-1.22482e-08
-4.8447e-09
9.5136e-09
-1.21145e-08
-4.2062e-09
7.09233e-09
-1.15981e-08
-3.64389e-09
4.70151e-09
-1.05907e-08
-3.12342e-09
2.55648e-09
-8.95371e-09
-2.57518e-09
8.75172e-10
-6.4864e-09
-1.88052e-09
-2.88632e-09
-8.73262e-10
-7.14208e-10
-1.4564e-09
-7.13211e-10
-2.13256e-09
-3.51373e-09
-1.53354e-09
-4.00184e-09