/*--------------------------------*- C++ -*----------------------------------*\
| =========                 |                                                 |
| \\      /  F ield         | OpenFOAM: The Open Source CFD Toolbox           |
|  \\    /   O peration     | Version:  v1912                                 |
|   \\  /    A nd           | Website:  www.openfoam.com                      |
|    \\/     M anipulation  |                                                 |
\*---------------------------------------------------------------------------*/
FoamFile
{
    version     2.0;
    format      ascii;
    class       volScalarField;
    location    "46/oil";
    object      heatTransferCoeff(T);
}
// * * * * * * * * * * * * * * * * * * * * * * * * * * * * * * * * * * * * * //

dimensions      [1 0 -3 -1 0 0 0];


internalField   uniform 0;

boundaryField
{
    maxY
    {
        type            calculated;
        value           uniform 0;
    }
    minX
    {
        type            calculated;
        value           uniform 0;
    }
    maxX
    {
        type            calculated;
        value           uniform 0;
    }
    minY
    {
        type            calculated;
        value           uniform 0;
    }
    minZ
    {
        type            calculated;
        value           uniform 0;
    }
    maxZ
    {
        type            calculated;
        value           uniform 0;
    }
    oil_to_sphere
    {
        type            calculated;
        value           nonuniform List<scalar> 
1536
(
-372.849
-387.86
-367.425
-362.506
-313.091
-319.473
-314.645
-244.307
-235.252
-410.718
-311.607
-414.906
-418.608
-412.68
-359.112
-309.016
-247.283
-237.542
-84.9367
-418.469
-409.501
-322.71
-317.614
-311.099
-328.461
-328.001
-327.499
-312.303
-389.709
-386.52
-365.188
-294.055
-270.458
-329.236
-310.192
-307.986
-295.453
-341.901
-323.875
-341.688
-323.527
-308.376
-385.985
-414.918
-390.591
-411.239
-320.158
-319.951
-355.366
-325.452
-322.854
-322.143
-315.567
-318.954
-280.107
-265.035
-319.043
-317.608
-238.577
-174.855
-188.488
-172.554
-185.483
-418.504
-420.523
-413.21
-392.574
-411.318
-375.935
-389.408
-329.955
-321.989
-365.774
-324.909
-310.542
-267.24
-261.187
-255.158
-309.4
-238.194
-172.463
-185.874
-156.702
-155.224
-195.427
-187.898
-158.87
-245.347
-235.972
-174.003
-186.638
-84.7573
-84.9964
-420.429
-420.987
-414.894
-395.869
-404.635
-411.362
-374.077
-393.578
-329.171
-370.523
-365.027
-324.105
-324.836
-312.474
-256.143
-307.247
-268.891
-261
-269.186
-174.586
-188.591
-158.097
-159.878
-157.115
-194.321
-188.072
-197.266
-236.891
-187.055
-85.3026
-412.851
-374.411
-390.303
-376.293
-388.155
-323.112
-324.485
-325.562
-322.564
-321.921
-320.818
-324.496
-325.414
-318.257
-266.003
-314.894
-313.766
-175.272
-188.497
-246.727
-238.422
-185.614
-234.838
-353.919
-351.306
-316.328
-328.622
-362.578
-351.631
-319.809
-323.805
-321.228
-296.262
-278.947
-284.765
-353.325
-347.047
-353.068
-379.011
-338.449
-326.533
-308.884
-296.165
-320.397
-302.164
-280.151
-286.114
-383.877
-344.376
-389.725
-338.85
-294.61
-263.119
-352.896
-357.899
-370.556
-347.336
-338.75
-326.146
-295.924
-323.898
-295.658
-282.075
-289.926
-397.358
-349.601
-363.703
-381.632
-354.913
-374.574
-362.607
-290.202
-302.64
-296.926
-299.355
-289.072
-295.286
-300.588
-310.58
-236.673
-230.822
-226.219
-241.593
-248.255
-246.363
-255.195
-257.406
-233.464
-222.589
-215.262
-400.949
-424.146
-417.13
-405.168
-402.133
-404.892
-404.683
-398.636
-411.92
-391.867
-400.756
-402.69
-353.668
-355.425
-389.366
-371.336
-336.705
-298.748
-299.915
-319.57
-293.138
-233.296
-239.271
-228.943
-243.241
-247.29
-229.256
-221.397
-145.652
-134.091
-412.921
-406.319
-411.428
-402.745
-411.975
-427.47
-413.906
-401.885
-353.265
-328.725
-350.65
-353.271
-293.169
-310.452
-235.788
-224.1
-251.296
-264.449
-256.291
-217.136
-133.109
-144.065
-110.429
-110.425
-145.165
-406.056
-399.188
-396.733
-391.36
-399.96
-406.455
-397.67
-409.951
-429.886
-417.405
-400.935
-375.054
-353.529
-357.056
-368.892
-391.538
-372.642
-355.519
-354.641
-297.159
-298.998
-307.852
-310.284
-300.996
-309.384
-227.713
-223.129
-232.06
-243.857
-239.444
-247.364
-249.804
-248.285
-227.56
-220.337
-241.342
-232.373
-329.36
-317.578
-320.061
-295.274
-291.688
-282.32
-277.033
-385.202
-372.971
-390.609
-381.651
-370.869
-386.112
-388.496
-395.676
-406.93
-388.403
-390.174
-386.205
-421.475
-406.912
-400.837
-392.028
-408.715
-415.969
-398.964
-378.544
-381.571
-390.824
-369.982
-388.776
-394.997
-403.715
-405.325
-412.175
-408.861
-403.744
-395.101
-394.646
-393.03
-399.057
-386.454
-387.585
-372.126
-385.543
-368.887
-374.037
-393.402
-351.377
-380.633
-356.996
-360.662
-347.099
-334.749
-378.953
-353.525
-355.765
-366.891
-336.18
-342.837
-353.273
-331.571
-340.881
-323.597
-359.26
-381.095
-355.414
-359.64
-362.812
-338.83
-344.613
-342.893
-297.009
-303.083
-296.067
-280.087
-273.134
-281.491
-268.351
-261.04
-298.67
-303.189
-297.995
-282.786
-275.491
-287.018
-266.773
-261.153
-253.818
-299.028
-260.971
-281.355
-275.901
-283.54
-266.53
-298.267
-305.581
-298.615
-305.646
-263.296
-255.082
-282.675
-276.424
-285.568
-264.917
-258.84
-243.116
-238.308
-242.416
-237.96
-227.017
-227.237
-220.208
-236.411
-224.163
-251.403
-218.014
-221.996
-213.854
-206.219
-217.328
-213.038
-201.163
-195.322
-183.066
-240.347
-233.007
-227.919
-241.969
-222.511
-228.461
-201.141
-194.169
-190.869
-183.294
-214.363
-207.726
-218.393
-213.377
-211.399
-243.354
-238.265
-246.98
-246.995
-228.167
-220.286
-238.142
-230.804
-459.607
-444.59
-430.156
-455.468
-426.751
-431.286
-442.339
-416.707
-420.492
-426.894
-425.153
-399.238
-413.45
-395.553
-393.147
-391.673
-388.971
-397.928
-394.558
-407.69
-414.475
-381.276
-403.585
-386.946
-397.102
-387.145
-407.22
-391.399
-409.469
-400.421
-411.382
-401.697
-383.153
-392.137
-372.948
-388.813
-347.597
-363.963
-355.071
-324.451
-339.792
-340.571
-359.938
-323.391
-352.956
-322.629
-339.553
-325.14
-314.311
-320.333
-297.172
-294.588
-277.226
-283.426
-278.608
-275.666
-264.105
-297.23
-261.098
-308.604
-294.951
-278.978
-223.003
-213.73
-207.836
-219.847
-214.472
-234.665
-223.034
-251.196
-216.521
-200.462
-196.996
-184.741
-166.801
-154.391
-168.622
-154.815
-177.955
-188.942
-177.483
-164.5
-167.255
-231.159
-238.479
-226.78
-241.13
-220.073
-209.424
-219.322
-212.557
-232.067
-221.249
-244.288
-252.981
-216.237
-200.589
-212.082
-195.343
-183.426
-206.415
-144.292
-133.846
-148.036
-135.938
-111.943
-111.665
-111.261
-110.745
-131.645
-449.509
-423.578
-432.097
-428.422
-423.762
-450.74
-434.119
-426.494
-419.715
-403.918
-424.794
-427.355
-437.521
-406.256
-409.26
-415.19
-415.673
-381.557
-398.421
-379.702
-408.607
-395.419
-394.234
-390.644
-399.717
-388.844
-398.544
-408.416
-391.409
-378.799
-374.172
-400.993
-409.068
-382.274
-402.968
-383.355
-371.879
-409.885
-394.635
-392.95
-398.097
-388.161
-386.31
-396.03
-407.113
-388.422
-373.824
-355.623
-356.499
-341.279
-326.618
-339.249
-376.308
-356.079
-360.021
-346.659
-343.809
-333.652
-340.175
-339.74
-324.46
-322.938
-296.309
-318.981
-291.926
-309.027
-282.941
-278.502
-323.66
-311.849
-265.501
-296.539
-260.135
-291.349
-273.638
-261.797
-279.324
-288.598
-291.651
-279.487
-281.615
-321.218
-295.266
-201.024
-198.203
-199.34
-187.015
-240.363
-231.987
-228.263
-243.078
-224.454
-230.483
-210.401
-224.067
-219.391
-214.383
-210.552
-180.343
-178.865
-189.411
-166.083
-167.2
-154.031
-167.999
-168.101
-154.009
-187.921
-176.513
-177.715
-189.673
-164.792
-232.434
-221.822
-246.761
-253.294
-216.673
-200.857
-212.474
-194.052
-197.013
-207.159
-229.395
-220.764
-237.112
-232.232
-226.943
-241.594
-246.301
-207.806
-214.216
-218.702
-212.691
-211.039
-111.7
-111.684
-146.324
-144.959
-134.514
-131.645
-158.148
-145.091
-132.23
-373.496
-391.457
-389.12
-368.642
-387.901
-372.755
-371.27
-410.374
-401.327
-415.283
-402.041
-382.561
-394.273
-388.172
-403.999
-391.248
-396.643
-380.939
-383.943
-407.882
-395.125
-389.079
-393.521
-387.328
-387.061
-392.946
-373.587
-372.487
-384.372
-391.648
-382.417
-396.103
-387.733
-413.043
-386.204
-375.192
-381.28
-386.358
-374.168
-370.918
-394.332
-355.123
-341.078
-341.303
-349.049
-326.083
-376.95
-352.47
-352.294
-363.755
-345.292
-345.838
-338.507
-370.222
-350.595
-355.936
-364.585
-335.697
-338.894
-349.892
-348.187
-326.318
-362.976
-379.058
-358.861
-362.96
-346.193
-345.909
-341.004
-340.31
-325.313
-282.093
-276.178
-284.753
-267.938
-263.879
-257.386
-300.304
-292.926
-302.676
-299.217
-275.911
-283.098
-282.447
-263.617
-258.325
-259.334
-298.51
-298.19
-304.701
-297.039
-307.565
-259.877
-264.787
-281.306
-274.207
-282.337
-262.028
-257.97
-306.952
-296.504
-296.277
-301.891
-309.779
-262.139
-257.609
-275.77
-282.907
-283.871
-239.301
-244.483
-228.444
-226.393
-219.78
-243.811
-238.216
-245.34
-214.761
-207.559
-218.233
-212.415
-203.824
-216.834
-197.152
-184.323
-209.242
-233.143
-237.331
-226.422
-244.766
-258.969
-274.774
-241.375
-227.9
-219.134
-225.606
-238.229
-200.938
-211.827
-194.871
-192.96
-205.552
-216.742
-208.746
-217.205
-216.452
-211.197
-246.792
-261.722
-234.311
-222.798
-215.733
-242.346
-247.518
-232.369
-238.868
-228.004
-365.731
-358.306
-261.394
-249.577
-410.775
-401.244
-408.248
-409.581
-406.803
-353.944
-376.128
-365.376
-372.566
-307.774
-321.197
-252.461
-154.823
-149.303
-367.281
-363.851
-244.892
-155.574
-147.545
-174.622
-408.492
-355.641
-318.359
-172.516
-372.683
-364.152
-371.184
-308.236
-323.173
-322.925
-243.896
-367.707
-372.339
-325.698
-324.115
-369.217
-322.106
-324.187
-302.008
-308.746
-255.119
-268.671
-274.822
-358.649
-368.023
-321.479
-338.917
-305.996
-315.037
-255.377
-268.377
-268.923
-356.674
-374.456
-323.931
-344.485
-272.762
-257.709
-273.343
-297.318
-339.272
-336.711
-373.912
-377.954
-323.273
-321.018
-317.834
-325.809
-267.645
-259.654
-270.368
-247.718
-425.668
-417.359
-370.369
-403.185
-369.255
-412.185
-407.911
-321.701
-359.154
-357.239
-364.709
-357.499
-319.701
-275.298
-270.634
-270.897
-273.071
-269.853
-267.185
-203.073
-250.109
-197.419
-204.599
-419.41
-412.811
-430.414
-414.932
-426.81
-418.87
-419.047
-418.078
-425.008
-415.102
-373.159
-405.285
-373.643
-386.654
-372.743
-323.426
-341.977
-355.192
-379.74
-325.793
-368.234
-323.288
-260.829
-271.483
-277.856
-264.52
-273.826
-267.301
-248.402
-203.967
-193.488
-191.57
-202.18
-248.987
-202.93
-150.206
-157.586
-147.529
-425.772
-424.681
-418.629
-437.362
-416.994
-423.837
-418.04
-432.036
-419.638
-373.55
-403.759
-368.404
-410.491
-406.481
-399.738
-406.197
-391.4
-369.12
-376.388
-321.876
-349.799
-377.078
-357.87
-373.087
-323.29
-257.941
-272.222
-307.439
-318.605
-265.815
-280.476
-261.46
-268.77
-315.998
-251.34
-203.709
-186.138
-193.901
-187.242
-248.618
-202.826
-150.544
-147.821
-148.75
-418.992
-384.112
-373.434
-410.895
-368.872
-323.675
-365.913
-360.008
-360.897
-359.427
-269.071
-280.628
-269.517
-267.978
-268.219
-202.883
-259.218
-205.713
-253.172
-371.81
-353.132
-339.335
-347.959
-373.137
-357.584
-286.61
-303.043
-294.88
-358.297
-374.193
-360.935
-343.66
-376.006
-330.954
-347.298
-346.926
-337.089
-360.93
-345.686
-373.058
-337.051
-343.389
-344.72
-340.972
-305.554
-305.298
-290.118
-283.488
-274.526
-263.95
-283.323
-273.325
-285.371
-373.655
-351.028
-342.431
-355.186
-369.696
-332.956
-337.469
-337.533
-314.75
-347.679
-296.601
-312.67
-308.09
-289.988
-285.144
-275.482
-263.591
-279.341
-272.248
-286.099
-356.364
-370.077
-333.773
-335.58
-340.186
-313.528
-345.783
-304.373
-284.412
-270.56
-291.622
-288.375
-303.38
-396.228
-397.818
-395.044
-400.106
-339.064
-372.786
-360.652
-298.797
-300.219
-311.051
-310.326
-305.791
-245.841
-258.718
-255.069
-230.438
-225.385
-261.815
-248.086
-248.064
-401.024
-403.481
-412.586
-395.151
-344.164
-360.683
-333.629
-379.455
-355.14
-303.691
-301.51
-289.668
-248.952
-267.729
-255.658
-232.167
-179.612
-183.925
-166.581
-167.041
-153.671
-146.02
-400.184
-397.514
-398.947
-393.41
-407.776
-350.618
-366.416
-363.346
-294.677
-226.631
-255.3
-167.955
-154.004
-146.934
-130.3
-184.52
-402.179
-398.966
-410.716
-400.18
-407.526
-404.226
-400.487
-397.973
-403.854
-332.53
-342.032
-393.257
-356.593
-307.783
-307.178
-249.013
-260.7
-249.607
-240.263
-254.615
-229.57
-184.345
-304.621
-254.591
-380.692
-375.037
-347.149
-350.86
-304.378
-299.921
-300.01
-278.08
-269.721
-288.872
-278.344
-281.828
-268.12
-424.053
-418.439
-364.005
-364.353
-384.946
-396.842
-392.888
-391.396
-367.019
-383.914
-377.53
-390.961
-370.976
-384.197
-402.052
-395.198
-396.525
-395.562
-368.946
-375.623
-382.452
-389.118
-402.023
-408.692
-404.189
-408.543
-386.468
-370.127
-380.649
-408.406
-400.848
-407.08
-401.327
-370.801
-398.409
-401.61
-390.957
-376.086
-382.124
-375.325
-346.433
-343.566
-380.279
-351.409
-339.824
-341.748
-321.097
-324.554
-322.229
-341.657
-373.602
-359.2
-326.478
-325.085
-341.428
-327.132
-343.005
-369.987
-346.634
-323.855
-308.169
-309.19
-287.914
-292.38
-259.246
-309.186
-287.454
-294.57
-263.036
-301.25
-309.929
-291.411
-260.681
-308.122
-279.734
-287.365
-247.226
-247.004
-226.481
-227.687
-210.415
-211.628
-228.603
-213.587
-208.614
-194.748
-189.789
-189.34
-197.423
-247.963
-230.54
-212.581
-205.936
-195.243
-196.795
-188.733
-239.325
-247.173
-211.735
-428.075
-410.171
-424.868
-407.136
-408.572
-429.607
-400.9
-449.763
-413.103
-414.854
-414.832
-431.609
-416.023
-428.54
-447.016
-433.768
-414.456
-423.55
-383.04
-402.048
-416.424
-404.602
-374.003
-391.299
-382.084
-401.042
-393.584
-399.978
-394.854
-409.312
-383.834
-368.138
-373.433
-388.279
-407.314
-397.041
-395.56
-387.09
-335.894
-339.025
-322.189
-357.225
-369.883
-338.129
-342.562
-348.281
-351.956
-353.283
-367.585
-338.027
-302.574
-283.709
-278.337
-296.394
-304.86
-273.848
-281.861
-289.129
-297.955
-283.717
-273.616
-262.609
-196.943
-192.557
-190.242
-226.445
-212.724
-206.574
-195.266
-246.75
-252.463
-196.35
-191.392
-225.641
-195.476
-147.53
-147.679
-133.511
-158.253
-130.994
-147.55
-160.674
-431.621
-414.873
-442.382
-420.071
-419.184
-404.725
-409.454
-400.493
-427.287
-439.629
-429.628
-414.521
-405.773
-404.724
-416.134
-414.29
-415.673
-382.92
-410.901
-381.639
-407.621
-408.028
-398.354
-364.72
-402.835
-388.082
-398.7
-395.132
-386.132
-396.599
-395.043
-377.28
-381.818
-372.112
-344.656
-371.893
-350.366
-340.164
-332.596
-313.261
-340.646
-373.823
-346.214
-347.06
-299.248
-276.555
-286.41
-295.812
-305.195
-278.375
-286.174
-293.647
-282.195
-272.657
-302.701
-304.158
-213.175
-206.976
-195.933
-251.136
-232.643
-197.152
-194.692
-226.46
-196.206
-245.802
-195.436
-132.469
-147.326
-161.036
-426.986
-398.428
-370.808
-391.839
-371.919
-370.047
-383.425
-408.364
-399.182
-396.816
-375.361
-379.672
-388.791
-387.221
-402.739
-396.464
-398.214
-394.836
-386.752
-371.717
-393.64
-380.577
-377.006
-352.834
-325.623
-345.648
-381.957
-349.308
-338.075
-321.865
-321.532
-341.587
-374.468
-323.154
-342.222
-373.789
-325.861
-285.094
-267.139
-301.025
-308.766
-301.555
-286.482
-295.696
-305.982
-279.556
-307.756
-280.616
-210.245
-246.997
-195.327
-190.7
-198.562
-246.654
-260.4
-228.554
-194.693
-198.582
-224.891
-247.866
)
;
    }
}


// ************************************************************************* //
