/*--------------------------------*- C++ -*----------------------------------*\
| =========                 |                                                 |
| \\      /  F ield         | OpenFOAM: The Open Source CFD Toolbox           |
|  \\    /   O peration     | Version:  v1906                                 |
|   \\  /    A nd           | Web:      www.OpenFOAM.com                      |
|    \\/     M anipulation  |                                                 |
\*---------------------------------------------------------------------------*/
FoamFile
{
    version     2.0;
    format      ascii;
    class       volScalarField;
    location    "28.6/sphere";
    object      T;
}
// * * * * * * * * * * * * * * * * * * * * * * * * * * * * * * * * * * * * * //

dimensions      [0 0 0 1 0 0 0];


internalField   nonuniform List<scalar> 
304
(
483.407
483.437
483.435
483.451
483.408
483.406
483.406
483.437
483.405
483.562
483.562
483.451
483.435
483.561
483.562
483.483
483.45
483.483
483.408
483.435
483.452
483.406
483.437
483.563
483.562
483.483
483.452
483.562
483.562
483.51
483.404
483.482
483.511
483.443
483.407
483.453
483.483
483.411
483.411
483.483
483.51
483.442
483.408
483.443
483.394
483.394
483.408
483.408
483.41
483.445
483.408
483.408
483.445
483.41
483.394
483.408
483.412
483.409
483.445
483.437
483.437
483.452
483.452
483.484
483.484
483.511
483.406
483.452
483.437
483.484
483.452
483.511
483.484
483.408
483.411
483.445
483.408
483.405
483.405
483.442
483.406
483.451
483.401
483.434
483.482
483.51
483.448
483.481
483.436
483.435
483.404
483.51
483.483
483.483
483.45
483.444
483.407
483.407
483.392
483.405
483.407
483.442
483.406
483.443
483.408
483.406
483.392
483.409
483.406
483.407
483.443
483.437
483.451
483.484
483.436
483.452
483.483
483.511
483.407
483.484
483.452
483.452
483.436
483.511
483.483
483.409
483.407
483.443
483.407
483.452
483.436
483.484
483.436
483.484
483.452
483.511
483.404
483.483
483.437
483.483
483.437
483.511
483.452
483.482
483.402
483.449
483.452
483.51
483.434
483.482
483.436
483.45
483.403
483.51
483.451
483.483
483.435
483.409
483.405
483.443
483.406
483.482
483.406
483.436
483.483
483.51
483.436
483.452
483.45
483.436
483.405
483.51
483.482
483.452
483.436
483.442
483.404
483.405
483.406
483.407
483.444
483.412
483.452
483.483
483.511
483.405
483.436
483.452
483.483
483.435
483.511
483.483
483.436
483.403
483.483
483.449
483.443
483.406
483.407
483.485
483.452
483.511
483.409
483.454
483.438
483.485
483.436
483.51
483.452
483.451
483.406
483.483
483.436
483.511
483.435
483.482
483.438
483.484
483.405
483.451
483.452
483.483
483.435
483.482
483.435
483.45
483.403
483.442
483.406
483.409
483.51
483.436
483.452
483.451
483.483
483.406
483.437
483.483
483.452
483.437
483.483
483.452
483.437
483.408
483.406
483.406
483.41
483.397
483.406
483.41
483.443
483.406
483.443
483.408
483.406
483.392
483.414
483.409
483.446
483.41
483.484
483.485
483.511
483.409
483.437
483.438
483.452
483.451
483.511
483.483
483.435
483.404
483.452
483.436
483.444
483.408
483.406
483.445
483.41
483.407
483.51
483.45
483.482
483.436
483.451
483.402
483.435
483.482
483.482
483.45
483.451
483.435
483.435
483.403
483.405
483.407
483.404
483.394
483.443
483.407
483.405
483.409
483.407
483.405
)
;

boundaryField
{
    sphere_to_oil
    {
        type            compressible::turbulentTemperatureCoupledBaffleMixed;
        refValue        nonuniform List<scalar> 
360
(
340
340
314.733
361.753
369.989
317.26
371.154
371.154
371.154
341.612
341.612
317.93
320.009
312.715
338.819
364.775
359.591
359.591
359.591
314.067
357.384
335.382
333.44
365.675
312.97
366.553
316.5
366.108
366.108
366.108
372.057
364.166
314.766
314.533
317.728
317.894
360.188
360.188
360.188
359.519
368.61
315.926
317.809
339.967
339.967
316.394
320.036
310.859
337.789
366.973
317.409
317.292
319.663
319.975
313.814
335.585
360.649
314.063
317.815
319.796
311.55
367.358
367.358
367.358
310.861
365.985
337.605
325.117
370.256
370.256
370.256
370.297
368.739
312.332
358.065
338.105
313.033
331.84
368.42
360.474
334.569
322.742
333.697
311.423
314.728
317.133
318.11
319.868
312.795
314.2
314.754
319.791
317.809
314.932
319.643
317.748
318.077
317.973
315.25
311.763
311.847
312.92
317.251
317.838
319.807
312.807
312.829
320.022
315.24
318.115
318.153
318.011
315.279
313.925
311.223
311.17
327.06
324.791
328.292
339.947
339.947
361.753
361.753
365.675
365.675
363.05
363.05
363.05
365.331
365.331
365.331
327.66
324.8
327.058
313.473
369.989
369.989
338.721
338.721
372.057
372.057
336.518
336.518
371.299
371.299
371.299
313.456
313.399
365.218
365.218
365.218
365.582
365.582
365.582
364.775
357.384
338.819
364.775
362.928
313.041
362.928
362.928
333.522
334.18
323.272
334.919
334.919
370.269
370.269
370.269
311.289
357.384
335.382
369.266
369.266
311.34
369.266
334.301
323.126
310.956
316.437
316.671
320.332
312.875
320.034
316.66
310.933
311.748
366.553
366.553
364.166
364.166
339.975
339.975
361.95
361.95
361.95
338.186
338.186
311.694
317.453
317.44
319.964
317.654
317.152
319.964
315.136
320.028
318.026
315.128
359.519
320.069
318.231
314.073
369.297
369.297
369.297
336.348
336.348
311.16
317.951
317.948
319.741
368.61
315.76
319.636
317.957
359.519
368.61
336.443
313.968
336.443
311.638
311.211
319.972
312.949
316.606
316.521
316.726
312.798
311.395
367.481
360.269
367.481
367.481
360.269
360.269
366.973
365.985
337.789
363.568
311.77
366.973
363.568
363.568
319.453
314.513
317.88
319.755
314.908
370.297
317.554
318.014
318.183
315.237
360.649
358.065
318.073
317.98
315.225
359.742
363.386
335.585
368.971
311.665
360.649
368.971
368.971
320.08
315.779
368.42
317.918
317.763
317.79
368.55
315.691
368.178
336.786
359.742
336.786
368.55
359.742
368.55
310.845
324.613
326.165
326.583
338.647
362.022
338.647
362.022
362.022
311.637
365.985
363.241
337.605
363.241
311.724
363.241
327.594
327.245
312.584
368.357
337.151
368.357
368.357
337.151
312.799
317.109
317.672
319.864
368.739
370.297
337.177
313.219
368.739
337.177
312.853
358.065
364.492
338.105
364.492
312.482
364.492
320.082
360.474
315.34
318.116
363.217
359.972
363.386
338.665
363.386
363.217
338.665
363.217
322.503
333.627
368.42
335.836
311.373
360.474
335.836
314.226
368.178
359.972
368.178
336.815
359.972
336.815
)
;
        refGradient     uniform 0;
        valueFraction   nonuniform List<scalar> 
360
(
0.000131887
0.000126527
8.10041e-05
0.000289382
0.000296787
0.000170181
0.000298632
0.000256335
0.000398998
0.000127037
0.000123858
0.00016616
0.000253236
7.24051e-05
0.000129522
0.00025178
0.000288533
0.000269592
0.000378298
6.62545e-05
0.000248385
0.000122107
0.000112541
0.000298649
8.67085e-05
0.000306976
0.000173036
0.000303012
0.000396551
0.000265265
0.000303063
0.000305673
8.2079e-05
8.1162e-05
0.000170322
0.000167613
0.000283623
0.000384506
0.000264034
0.000396999
0.000392151
8.37347e-05
0.000166089
0.000121219
0.000121074
0.000170976
0.000255799
6.82455e-05
0.000122113
0.000258939
0.000168666
0.000169762
0.000253048
0.000250588
7.07965e-05
0.000129513
0.000264113
6.78212e-05
0.000168015
0.000250549
6.63848e-05
0.000294959
0.000260378
0.000407521
6.84406e-05
0.000266226
0.000124182
0.00012011
0.000301774
0.000393677
0.000264814
0.00037963
0.000384944
7.35189e-05
0.000256666
0.000130207
6.77824e-05
0.000121544
0.000384127
0.000399041
0.000119211
0.000116963
0.000114882
6.82757e-05
8.23339e-05
0.000166922
0.000167857
0.000254203
7.67332e-05
6.47897e-05
8.1484e-05
0.000253788
0.000167539
8.32366e-05
0.000253369
0.000169452
0.000168449
0.000168709
8.22698e-05
6.59439e-05
6.68689e-05
6.5979e-05
0.00016962
0.000166713
0.000253597
7.46618e-05
6.48514e-05
0.000253413
8.05039e-05
0.000166975
0.000167007
0.000170413
8.333e-05
6.67266e-05
6.50759e-05
6.63331e-05
0.000115463
0.000115602
0.000120093
0.000130223
0.000122391
0.000252892
0.000398387
0.000266439
0.000402051
0.000257714
0.000396218
0.000295007
0.000257922
0.000387593
0.000290534
0.000118504
0.000112068
0.000114787
6.3366e-05
0.0002628
0.000395679
0.000122421
0.00012298
0.000399869
0.000265864
0.000128333
0.000135256
0.000394948
0.000271312
0.000312632
6.97382e-05
6.48987e-05
0.000273927
0.000379592
0.000300885
0.000282042
0.000392735
0.000300853
0.000310622
0.000286122
0.000133839
0.000398933
0.000257688
7.18435e-05
0.000387737
0.000290155
0.000110729
0.000116658
0.000115409
0.00012175
0.000127268
0.000396937
0.00026136
0.000306782
7.35569e-05
0.000381838
0.000130929
0.000401511
0.000257033
7.18491e-05
0.000304765
0.000111712
0.000112749
6.58749e-05
0.000172667
0.000172598
0.000255216
8.51061e-05
0.000255601
0.000168181
6.51985e-05
6.33099e-05
0.000399407
0.000253779
0.000394719
0.000263162
0.000125527
0.000117392
0.00039656
0.000247845
0.000286486
0.000116037
0.000134639
6.77357e-05
0.000169632
0.000169478
0.000253215
0.000165797
0.00016665
0.000252218
8.64475e-05
0.000253082
0.000171598
8.40678e-05
0.00028486
0.000252802
0.000170571
6.79768e-05
0.000387893
0.000251464
0.000294214
0.000122573
0.000113907
6.5796e-05
0.000168312
0.000171143
0.000253754
0.000288503
8.06886e-05
0.000251346
0.000164154
0.000249683
0.000264325
0.000119986
6.7394e-05
0.000133143
6.82272e-05
6.42231e-05
0.000256587
8.56279e-05
0.000172498
0.000170504
0.000168472
8.45515e-05
6.45856e-05
0.000262347
0.000245825
0.000412687
0.000307183
0.000385014
0.000276632
0.0002965
0.000303575
0.000134937
0.000260429
7.0165e-05
0.000396309
0.000385352
0.000292785
0.000255367
8.13689e-05
0.000166161
0.000252431
8.20977e-05
0.00030079
0.000166881
0.000168073
0.000166525
8.16003e-05
0.000298546
0.000279763
0.000169897
0.000165505
8.31715e-05
0.000280314
0.000308551
0.000122366
0.000276978
6.57812e-05
0.000394611
0.000382575
0.000289078
0.000250558
8.23093e-05
0.000289532
0.000166716
0.000166973
0.000167923
0.000291109
8.30806e-05
0.000297427
0.000125151
0.000256439
0.000126195
0.000261318
0.000398231
0.000390948
6.57504e-05
0.000131758
0.000130202
0.000127349
0.000115974
0.000388011
0.000126667
0.000257953
0.000303753
6.47923e-05
0.000391798
0.000391326
0.000128105
0.000278241
6.78997e-05
0.000298296
0.000113573
0.000111573
6.78437e-05
0.000383747
0.000114686
0.000251665
0.000296396
0.000122955
6.70273e-05
0.000166781
0.000166724
0.000251583
0.000287873
0.000249689
0.00012072
6.49812e-05
0.000253872
0.000134079
7.50488e-05
0.000367897
0.000395047
0.000116754
0.000250946
6.95741e-05
0.000315602
0.000253511
0.000303738
8.30902e-05
0.000167498
0.000292841
0.000283904
0.000267092
0.000119382
0.000391247
0.000390405
0.000141716
0.000260964
0.000114817
0.000116578
0.000262719
0.000130051
7.0315e-05
0.000265707
0.000125228
6.49352e-05
0.000386718
0.000391362
0.000257502
0.000124966
0.00025294
0.000129087
)
;
        value           nonuniform List<scalar> 
360
(
483.409
483.41
483.413
483.392
483.393
483.429
483.393
483.4
483.387
483.408
483.408
483.428
483.43
483.416
483.41
483.399
483.386
483.392
483.38
483.416
483.396
483.409
483.395
483.391
483.411
483.39
483.428
483.392
483.383
483.396
483.392
483.389
483.412
483.411
483.427
483.428
483.388
483.382
483.393
483.379
483.384
483.412
483.429
483.409
483.411
483.427
483.43
483.415
483.409
483.396
483.43
483.429
483.431
483.431
483.413
483.406
483.392
483.415
483.428
483.432
483.415
483.391
483.396
483.383
483.416
483.396
483.409
483.394
483.395
483.39
483.4
483.389
483.388
483.419
483.399
483.413
483.414
483.397
483.385
483.38
483.397
483.396
483.397
483.416
483.415
483.428
483.428
483.43
483.412
483.415
483.413
483.431
483.43
483.411
483.431
483.428
483.427
483.427
483.41
483.417
483.417
483.418
483.429
483.43
483.431
483.416
483.415
483.43
483.408
483.427
483.429
483.427
483.41
483.414
483.418
483.417
483.396
483.396
483.396
483.41
483.411
483.397
483.382
483.397
483.383
483.397
483.383
483.391
483.398
483.385
483.393
483.396
483.397
483.396
483.418
483.399
483.387
483.411
483.411
483.388
483.4
483.409
483.409
483.387
483.398
483.39
483.417
483.415
483.394
483.382
483.386
483.393
483.381
483.387
483.387
483.388
483.408
483.38
483.396
483.415
483.381
483.389
483.396
483.395
483.394
483.407
483.407
483.382
483.397
483.391
483.414
483.38
483.407
483.382
483.397
483.414
483.39
483.395
483.394
483.415
483.428
483.427
483.431
483.413
483.431
483.429
483.416
483.416
483.383
483.397
483.382
483.396
483.409
483.41
483.381
483.398
483.39
483.411
483.408
483.416
483.429
483.429
483.431
483.43
483.429
483.431
483.408
483.431
483.427
483.41
483.388
483.431
483.427
483.414
483.385
483.398
483.392
483.407
483.41
483.415
483.429
483.428
483.431
483.392
483.412
483.431
483.429
483.394
483.395
483.407
483.413
483.406
483.414
483.415
483.43
483.411
483.427
483.427
483.428
483.409
483.417
483.396
483.398
483.384
483.39
483.385
483.395
483.389
483.388
483.407
483.396
483.415
483.381
483.381
483.392
483.431
483.415
483.431
483.431
483.413
483.393
483.429
483.428
483.431
483.412
483.389
483.39
483.427
483.429
483.41
483.389
483.387
483.408
483.395
483.415
483.381
483.386
483.393
483.432
483.412
483.393
483.43
483.43
483.43
483.395
483.415
483.394
483.408
483.395
483.408
483.397
483.381
483.385
483.415
483.397
483.397
483.398
483.409
483.384
483.408
483.395
483.392
483.415
483.382
483.381
483.407
483.393
483.414
483.389
483.395
483.396
483.418
483.39
483.413
483.401
483.395
483.412
483.419
483.43
483.431
483.431
483.392
483.4
483.411
483.417
483.398
483.407
483.414
483.384
483.383
483.41
483.398
483.416
483.386
483.43
483.386
483.409
483.428
483.388
483.389
483.394
483.409
483.381
483.381
483.404
483.394
483.396
483.397
483.397
483.408
483.415
483.393
483.407
483.415
483.385
483.382
483.398
483.409
483.394
483.407
)
;
        Tnbr            T;
        thicknessLayers 0();
        kappaLayers     0();
        kappaMethod     solidThermo;
        kappa           none;
        alphaAni        none;
    }
}


// ************************************************************************* //
