/*--------------------------------*- C++ -*----------------------------------*\
| =========                 |                                                 |
| \\      /  F ield         | OpenFOAM: The Open Source CFD Toolbox           |
|  \\    /   O peration     | Version:  v1906                                 |
|   \\  /    A nd           | Web:      www.OpenFOAM.com                      |
|    \\/     M anipulation  |                                                 |
\*---------------------------------------------------------------------------*/
FoamFile
{
    version     2.0;
    format      ascii;
    class       volScalarField;
    location    "6.6/sphere";
    object      T;
}
// * * * * * * * * * * * * * * * * * * * * * * * * * * * * * * * * * * * * * //

dimensions      [0 0 0 1 0 0 0];


internalField   nonuniform List<scalar> 
304
(
495.592
495.633
495.631
495.654
495.597
495.596
495.591
495.634
495.589
495.784
495.784
495.643
495.631
495.783
495.783
495.687
495.643
495.687
495.589
495.632
495.655
495.594
495.635
495.784
495.783
495.687
495.656
495.784
495.784
495.723
495.593
495.686
495.723
495.638
495.596
495.647
495.687
495.59
495.602
495.689
495.723
495.636
495.591
495.638
495.576
495.574
495.596
495.597
495.591
495.639
495.596
495.597
495.639
495.591
495.574
495.595
495.59
495.595
495.637
495.634
495.633
495.654
495.645
495.688
495.687
495.722
495.591
495.655
495.633
495.688
495.645
495.723
495.688
495.595
495.589
495.637
495.596
495.593
495.593
495.635
495.588
495.653
495.587
495.631
495.685
495.722
495.641
495.686
495.633
495.632
495.591
495.722
495.687
495.687
495.644
495.638
495.595
495.588
495.573
495.594
495.587
495.636
495.593
495.637
495.589
495.593
495.572
495.589
495.594
495.595
495.637
495.634
495.645
495.689
495.632
495.655
495.687
495.723
495.593
495.689
495.646
495.655
495.634
495.723
495.688
495.59
495.596
495.638
495.596
495.644
495.632
495.687
495.633
495.688
495.655
495.723
495.589
495.687
495.633
495.687
495.634
495.722
495.655
495.686
495.588
495.643
495.655
495.722
495.632
495.687
495.633
495.644
495.59
495.722
495.655
495.687
495.632
495.59
495.594
495.637
495.594
495.686
495.589
495.632
495.687
495.722
495.632
495.654
495.643
495.632
495.589
495.722
495.686
495.654
495.632
495.636
495.593
495.593
495.593
495.596
495.638
495.594
495.655
495.688
495.723
495.591
495.632
495.646
495.688
495.632
495.723
495.687
495.633
495.588
495.687
495.642
495.637
495.595
495.588
495.689
495.656
495.723
495.595
495.648
495.636
495.69
495.633
495.722
495.655
495.644
495.592
495.687
495.633
495.723
495.633
495.687
495.637
495.69
495.593
495.646
495.655
495.688
495.633
495.687
495.633
495.644
495.59
495.636
495.594
495.591
495.722
495.632
495.655
495.645
495.687
495.591
495.633
495.688
495.655
495.634
495.688
495.646
495.634
495.594
495.595
495.594
495.592
495.579
495.594
495.592
495.637
495.595
495.637
495.588
495.594
495.572
495.594
495.598
495.64
495.598
495.688
495.689
495.723
495.595
495.634
495.635
495.656
495.644
495.723
495.687
495.632
495.589
495.655
495.632
495.637
495.595
495.594
495.641
495.593
495.596
495.723
495.645
495.688
495.633
495.655
495.59
495.633
495.687
495.688
495.645
495.655
495.632
495.633
495.591
495.594
495.589
495.592
495.577
495.638
495.595
495.595
495.592
495.596
495.595
)
;

boundaryField
{
    sphere_to_oil
    {
        type            compressible::turbulentTemperatureCoupledBaffleMixed;
        refValue        nonuniform List<scalar> 
360
(
314.209
314.209
303.966
330.509
332.671
304.79
333.572
333.572
333.572
314.247
314.247
304.785
305.292
303.537
312.983
333.586
331.277
331.277
331.277
303.572
328.654
313.12
309.486
332.064
304.006
333.283
304.784
332.967
332.967
332.967
334.028
332.655
303.958
303.931
304.734
304.79
330.999
330.999
330.999
330.42
332.707
304.108
304.807
314.115
314.115
304.752
305.226
303.407
313.437
333.536
304.881
304.797
305.194
305.276
303.447
312.947
331.838
303.518
304.767
305.081
303.553
333.25
333.25
333.25
303.403
332.554
313.248
308.491
333.438
333.438
333.438
332.533
332.006
303.462
328.126
312.475
303.531
308.906
332.503
331.821
309.668
308.235
309.388
303.565
303.967
304.764
304.875
305.25
303.463
303.612
303.982
305.247
304.855
303.966
305.203
304.821
304.85
304.768
304.042
303.545
303.58
303.451
304.796
304.866
305.254
303.43
303.628
305.302
304.067
304.832
304.87
304.798
304.053
303.505
303.58
303.557
308.858
308.48
308.924
314.3
314.3
330.509
330.509
332.064
332.064
331.571
331.571
331.571
331.884
331.884
331.884
308.924
308.38
308.78
303.615
332.671
332.671
314.025
314.025
334.028
334.028
312.759
312.759
333.761
333.761
333.761
303.597
303.63
333.989
333.989
333.989
334.951
334.951
334.951
333.586
328.654
312.983
333.586
332.553
303.493
332.553
332.553
309.451
309.285
308.645
312.848
312.848
333.909
333.909
333.909
303.423
328.654
313.12
333.638
333.638
303.449
333.638
309.656
308.573
303.453
304.753
304.815
305.314
303.973
305.226
304.836
303.432
303.586
333.283
333.283
332.655
332.655
314.069
314.069
330.759
330.759
330.759
313.654
313.654
303.554
304.723
304.836
305.308
304.799
304.78
305.312
304.029
305.286
304.774
304.014
330.42
305.305
304.847
303.554
332.638
332.638
332.638
313.41
313.41
303.427
304.852
304.854
305.055
332.707
303.997
305.026
304.81
330.42
332.707
313.294
303.468
313.294
303.516
303.575
305.21
303.998
304.823
304.803
304.862
303.97
303.452
333.735
329.152
333.735
333.735
329.152
329.152
333.536
332.554
313.437
332.042
303.59
333.536
332.042
332.042
305.117
303.978
304.899
305.236
304.005
332.533
304.749
304.801
304.872
304.025
331.838
328.126
304.789
304.821
304.03
330.218
332.834
312.947
332.887
303.579
331.838
332.887
332.887
305.158
304.04
332.503
304.816
304.745
304.769
332.747
304.037
332.147
313.43
330.218
313.43
332.747
330.218
332.747
303.412
308.202
308.192
308.377
313.861
331.023
313.861
331.023
331.023
303.515
332.554
332.248
313.248
332.248
303.569
332.248
308.797
308.76
303.391
331.021
312.995
331.021
331.021
312.995
303.503
304.766
304.823
305.287
332.006
332.533
313.291
303.558
332.006
313.291
303.482
328.126
333.415
312.475
333.415
303.343
333.415
305.304
331.821
304.07
304.803
332.435
330.919
332.834
313.098
332.834
332.435
313.098
332.435
308.194
309.448
332.503
313.458
303.468
331.821
313.458
303.611
332.147
330.919
332.147
313.795
330.919
313.795
)
;
        refGradient     uniform 0;
        valueFraction   nonuniform List<scalar> 
360
(
0.000128341
0.000123125
7.8826e-05
0.000281609
0.000288817
0.000165601
0.000290612
0.000249449
0.000388294
0.000123621
0.000120528
0.000161689
0.00024642
7.04576e-05
0.000126039
0.000245014
0.000280782
0.000262347
0.000368143
6.44722e-05
0.000241709
0.000118824
0.000109516
0.000290628
8.43769e-05
0.000298732
0.00016838
0.000294873
0.000385909
0.000258137
0.000294925
0.000297464
7.98721e-05
7.89798e-05
0.000165739
0.000163103
0.000276003
0.000374185
0.000256939
0.000386344
0.000381627
8.14834e-05
0.00016162
0.000117959
0.000117818
0.000166375
0.000248913
6.64099e-05
0.00011883
0.000251981
0.000164127
0.000165193
0.000246236
0.000243843
6.88922e-05
0.000126031
0.000257015
6.59968e-05
0.000163494
0.000243805
6.45992e-05
0.000287037
0.000253381
0.000396585
6.65997e-05
0.000259073
0.000120843
0.000116882
0.000293669
0.000383113
0.000257699
0.000369444
0.000374616
7.1541e-05
0.000249767
0.000126705
6.59592e-05
0.000118278
0.000373817
0.000388329
0.000116008
0.000113819
0.000111794
6.64392e-05
8.01197e-05
0.00016243
0.00016334
0.00024736
7.46694e-05
6.30468e-05
7.9293e-05
0.000246957
0.000163031
8.09985e-05
0.000246549
0.000164893
0.000163916
0.000164168
8.00572e-05
6.41701e-05
6.50703e-05
6.42045e-05
0.000165055
0.000162227
0.000246771
7.26539e-05
6.31072e-05
0.000246592
7.8339e-05
0.000162482
0.000162513
0.000165827
8.10891e-05
6.49317e-05
6.33254e-05
6.45489e-05
0.00011236
0.000112495
0.000116866
0.000126721
0.0001191
0.000246096
0.000387695
0.000259279
0.000391262
0.000250789
0.000385584
0.000287084
0.000250992
0.000377191
0.00028273
0.00011532
0.000109057
0.000111702
6.16618e-05
0.000255741
0.000385064
0.00011913
0.000119674
0.000389142
0.000258722
0.000124882
0.00013162
0.000384352
0.000264023
0.000304238
6.78626e-05
6.31533e-05
0.000266567
0.000369404
0.000292802
0.000274464
0.000382194
0.000292771
0.000302278
0.000278435
0.000130241
0.000388226
0.000250763
6.99111e-05
0.00037733
0.00028236
0.000107753
0.000113523
0.000112307
0.000118476
0.000123846
0.000386285
0.000254338
0.000298544
7.15785e-05
0.000371588
0.000127409
0.000390736
0.000250127
6.99167e-05
0.000296581
0.00010871
0.000109719
6.4103e-05
0.00016802
0.000167954
0.000248346
8.28174e-05
0.000248721
0.000163655
6.34447e-05
6.1607e-05
0.000388689
0.00024696
0.000384126
0.000256091
0.000122152
0.000114235
0.000385917
0.000241184
0.000278791
0.000112916
0.000131019
6.59136e-05
0.000165067
0.000164917
0.000246399
0.000161335
0.000162166
0.000245429
8.41228e-05
0.00024627
0.000166981
8.1807e-05
0.000277207
0.000245998
0.00016598
6.61483e-05
0.000377483
0.000244707
0.000286314
0.000119277
0.000110844
6.40263e-05
0.000163783
0.000166538
0.000246924
0.000280755
7.85191e-05
0.00024458
0.000159736
0.000242973
0.000257224
0.000116759
6.55812e-05
0.000129563
6.63922e-05
6.24956e-05
0.000249681
8.33254e-05
0.000167857
0.000165916
0.000163938
8.22781e-05
6.28483e-05
0.000255298
0.000239219
0.000401612
0.000298933
0.00037468
0.0002692
0.000288537
0.000295422
0.000131309
0.000253431
6.82777e-05
0.000385673
0.000375009
0.000284921
0.000248493
7.91807e-05
0.000161689
0.000245637
7.98901e-05
0.000292712
0.00016239
0.00016355
0.000162043
7.94055e-05
0.000290524
0.000272246
0.000165325
0.000161051
8.09347e-05
0.000272783
0.000300263
0.000119075
0.000269537
6.40119e-05
0.000384018
0.000372307
0.000281314
0.000243814
8.00961e-05
0.000281756
0.00016223
0.00016248
0.000163405
0.00028329
8.08465e-05
0.000289439
0.000121785
0.000249547
0.000122801
0.000254297
0.000387542
0.000380456
6.39819e-05
0.000128217
0.000126703
0.000123927
0.000112856
0.000377596
0.000123261
0.000251021
0.000295594
6.30494e-05
0.000381284
0.000380823
0.00012466
0.000270765
6.60734e-05
0.000290284
0.000110521
0.000108575
6.60188e-05
0.000373449
0.000111602
0.000244903
0.000288435
0.000119648
6.52243e-05
0.000162293
0.000162237
0.000244811
0.000280142
0.000242981
0.000117474
6.32335e-05
0.000247051
0.000130474
7.30303e-05
0.000358019
0.000384442
0.000113615
0.000244202
6.77026e-05
0.000307124
0.000246687
0.000295578
8.08556e-05
0.00016299
0.000284974
0.000276276
0.000259915
0.000116172
0.000380745
0.000379926
0.000137906
0.000253952
0.000111731
0.000113445
0.00025566
0.000126554
6.84237e-05
0.000258566
0.00012186
6.31883e-05
0.000376339
0.000380856
0.000250583
0.000121605
0.000246142
0.000125616
)
;
        value           nonuniform List<scalar> 
360
(
495.597
495.599
495.601
495.57
495.569
495.626
495.568
495.579
495.551
495.595
495.595
495.625
495.632
495.608
495.598
495.582
495.566
495.575
495.552
495.608
495.58
495.599
495.576
495.568
495.6
495.567
495.627
495.57
495.552
495.578
495.566
495.565
495.598
495.598
495.624
495.626
495.568
495.553
495.576
495.55
495.552
495.599
495.626
495.597
495.599
495.625
495.632
495.606
495.597
495.578
495.628
495.626
495.634
495.633
495.605
495.595
495.576
495.607
495.626
495.633
495.607
495.569
495.577
495.552
495.608
495.578
495.598
495.575
495.572
495.557
495.581
495.555
495.554
495.613
495.584
495.603
495.606
495.579
495.554
495.552
495.579
495.579
495.579
495.608
495.605
495.626
495.627
495.632
495.603
495.607
495.6
495.632
495.627
495.598
495.633
495.626
495.626
495.626
495.6
495.608
495.608
495.607
495.627
495.627
495.632
495.605
495.605
495.631
495.597
495.625
495.627
495.625
495.6
495.606
495.61
495.609
495.578
495.578
495.577
495.598
495.6
495.58
495.551
495.579
495.551
495.58
495.553
495.568
495.58
495.554
495.572
495.577
495.578
495.578
495.608
495.578
495.552
495.598
495.598
495.551
495.578
495.597
495.596
495.552
495.578
495.564
495.607
495.605
495.574
495.553
495.564
495.573
495.551
495.566
495.566
495.569
495.596
495.55
495.579
495.606
495.552
495.569
495.577
495.576
495.576
495.597
495.595
495.55
495.577
495.566
495.604
495.552
495.594
495.551
495.577
495.604
495.566
495.577
495.576
495.606
495.627
495.625
495.632
495.602
495.633
495.627
495.608
495.607
495.551
495.578
495.551
495.578
495.596
495.599
495.551
495.581
495.567
495.6
495.597
495.609
495.625
495.626
495.633
495.627
495.627
495.633
495.597
495.633
495.625
495.599
495.569
495.633
495.625
495.606
495.553
495.579
495.568
495.597
495.598
495.606
495.625
495.625
495.632
495.568
495.599
495.633
495.626
495.578
495.576
495.597
495.605
495.594
495.605
495.606
495.632
495.599
495.625
495.625
495.626
495.597
495.609
495.577
495.581
495.553
495.567
495.556
495.575
495.566
495.564
495.595
495.578
495.606
495.55
495.551
495.57
495.633
495.605
495.63
495.633
495.601
495.569
495.627
495.627
495.63
495.603
495.57
495.572
495.626
495.627
495.6
495.57
495.566
495.597
495.575
495.606
495.553
495.555
495.57
495.633
495.6
495.569
495.627
495.627
495.628
495.573
495.603
495.571
495.598
495.579
495.597
495.578
495.552
495.554
495.606
495.579
495.58
495.58
495.598
495.554
495.597
495.578
495.571
495.607
495.551
495.551
495.596
495.575
495.606
495.566
495.576
495.577
495.61
495.557
495.602
495.583
495.573
495.601
495.611
495.628
495.629
495.634
495.568
495.581
495.599
495.608
495.578
495.595
495.604
495.558
495.556
495.6
495.581
495.608
495.565
495.633
495.566
495.599
495.627
495.569
495.57
495.576
495.597
495.552
495.552
495.592
495.575
495.58
495.58
495.578
495.597
495.607
495.578
495.598
495.608
495.555
495.554
495.579
495.598
495.579
495.597
)
;
        Tnbr            T;
        thicknessLayers 0();
        kappaLayers     0();
        kappaMethod     solidThermo;
        kappa           none;
        alphaAni        none;
    }
}


// ************************************************************************* //
