/*--------------------------------*- C++ -*----------------------------------*\
| =========                 |                                                 |
| \\      /  F ield         | OpenFOAM: The Open Source CFD Toolbox           |
|  \\    /   O peration     | Version:  v1912                                 |
|   \\  /    A nd           | Website:  www.openfoam.com                      |
|    \\/     M anipulation  |                                                 |
\*---------------------------------------------------------------------------*/
FoamFile
{
    version     2.0;
    format      ascii;
    class       surfaceScalarField;
    location    "94/oil";
    object      phi;
}
// * * * * * * * * * * * * * * * * * * * * * * * * * * * * * * * * * * * * * //

dimensions      [1 0 -1 0 0 0 0];
oriented        oriented;


internalField   nonuniform List<scalar> 
104676
(
-6.49892e-12
1.95727e-11
-8.70792e-12
2.03056e-10
-1.67013e-10
-4.24206e-11
6.31039e-10
-3.11635e-10
-1.16253e-10
1.21101e-09
-3.79683e-10
-2.00187e-10
1.85762e-09
-3.88107e-10
-2.5841e-10
2.48593e-09
-3.53224e-10
-2.75001e-10
3.01936e-09
-2.87732e-10
-2.45614e-10
3.39392e-09
-2.01027e-10
-1.73444e-10
3.55967e-09
-1.00351e-10
-6.5315e-11
3.48969e-09
5.2697e-12
6.47894e-11
3.17056e-09
1.14233e-10
2.04968e-10
2.62439e-09
2.03266e-10
3.42974e-10
1.87969e-09
2.84208e-10
4.60561e-10
9.89874e-10
3.42869e-10
5.47013e-10
2.29884e-11
3.73909e-10
5.93045e-10
-9.47052e-10
3.75648e-10
5.94459e-10
-1.83971e-09
3.43397e-10
5.49327e-10
-2.58804e-09
2.843e-10
4.64102e-10
-3.14034e-09
2.04943e-10
3.47429e-10
-3.46436e-09
1.12192e-10
2.11912e-10
-3.54393e-09
6.59111e-12
7.30661e-11
-3.38291e-09
-1.01842e-10
-5.90924e-11
-3.01238e-09
-2.0214e-10
-1.68305e-10
-2.48215e-09
-2.88781e-10
-2.41357e-10
-1.85653e-09
-3.54057e-10
-2.71469e-10
-1.21195e-09
-3.89724e-10
-2.54764e-10
-6.32917e-10
-3.82457e-10
-1.96484e-10
-2.04742e-10
-3.15229e-10
-1.12853e-10
6.08242e-12
-1.70818e-10
-3.99084e-11
1.43284e-11
-8.17986e-12
2.06679e-10
-3.93635e-10
2.06658e-10
7.93866e-10
-1.17705e-09
4.22979e-10
1.72535e-09
-1.76624e-09
5.23256e-10
2.89729e-09
-2.12458e-09
5.73071e-10
4.16889e-09
-2.29597e-09
6.36381e-10
5.38872e-09
-2.3231e-09
7.50163e-10
6.41382e-09
-2.24229e-09
9.29564e-10
7.12052e-09
-2.08207e-09
1.17445e-09
7.41247e-09
-1.86634e-09
1.47414e-09
7.22791e-09
-1.61654e-09
1.80647e-09
6.53801e-09
-1.35379e-09
2.15803e-09
5.38085e-09
-1.12366e-09
2.48419e-09
3.84287e-09
-9.21187e-10
2.74347e-09
2.02141e-09
-7.74638e-10
2.93907e-09
4.64346e-11
-6.97903e-10
3.04688e-09
-1.93646e-09
-6.98225e-10
3.05686e-09
-3.76363e-09
-7.77714e-10
2.94839e-09
-5.30423e-09
-9.26554e-10
2.75155e-09
-6.45332e-09
-1.12925e-09
2.48339e-09
-7.14698e-09
-1.36371e-09
2.16967e-09
-7.34434e-09
-1.62283e-09
1.8269e-09
-7.06406e-09
-1.87086e-09
1.48885e-09
-6.37108e-09
-2.08458e-09
1.18957e-09
-5.36045e-09
-2.24427e-09
9.44973e-10
-4.15263e-09
-2.32602e-09
7.64261e-10
-2.89164e-09
-2.30034e-09
6.49731e-10
-1.72653e-09
-2.13242e-09
5.84967e-10
-7.96298e-10
-1.7771e-09
5.31759e-10
-2.07239e-10
-1.18655e-09
4.2679e-10
-3.99477e-10
2.06638e-10
4.32395e-10
-1.26237e-09
4.36453e-10
1.37237e-09
-3.04914e-09
9.32248e-10
2.68954e-09
-4.32329e-09
1.24e-09
4.25424e-09
-5.15342e-09
1.46427e-09
5.90466e-09
-5.62976e-09
1.68349e-09
7.46281e-09
-5.82662e-09
1.94549e-09
8.75485e-09
-5.80763e-09
2.27342e-09
9.62679e-09
-5.62513e-09
2.67123e-09
9.95844e-09
-5.3266e-09
3.12873e-09
9.6729e-09
-4.95186e-09
3.62096e-09
8.73242e-09
-4.54417e-09
4.13097e-09
7.17673e-09
-4.15872e-09
4.59085e-09
5.11839e-09
-3.82062e-09
4.95788e-09
2.69004e-09
-3.57368e-09
5.22751e-09
6.00199e-11
-3.44627e-09
5.3785e-09
-2.5829e-09
-3.45213e-09
5.39694e-09
-5.0198e-09
-3.58142e-09
5.24072e-09
-7.07997e-09
-3.82934e-09
4.96308e-09
-8.62858e-09
-4.16469e-09
4.58417e-09
-9.58359e-09
-4.55342e-09
4.14484e-09
-9.88742e-09
-4.96019e-09
3.64132e-09
-9.56991e-09
-5.33227e-09
3.14403e-09
-8.7126e-09
-5.6295e-09
2.68774e-09
-7.43554e-09
-5.81095e-09
2.28975e-09
-5.89109e-09
-5.83132e-09
1.96097e-09
-4.25032e-09
-5.63826e-09
1.69728e-09
-2.69216e-09
-5.16582e-09
1.47535e-09
-1.37687e-09
-4.33875e-09
1.24648e-09
-4.34651e-10
-3.06176e-09
9.33097e-10
-1.2696e-09
4.3554e-10
6.18823e-10
-2.50734e-09
6.26269e-10
1.85512e-09
-5.63484e-09
1.34954e-09
3.48466e-09
-7.7764e-09
1.82371e-09
5.34821e-09
-9.20574e-09
2.1889e-09
7.26788e-09
-1.00882e-08
2.53891e-09
9.05212e-09
-1.05374e-08
2.92663e-09
1.05128e-08
-1.06472e-08
3.37901e-09
1.14816e-08
-1.04953e-08
3.90148e-09
1.18219e-08
-1.01518e-08
4.48505e-09
1.1445e-08
-9.68111e-09
5.10625e-09
1.03067e-08
-9.14817e-09
5.74245e-09
8.46041e-09
-8.61654e-09
6.30419e-09
6.02883e-09
-8.15345e-09
6.76453e-09
3.16618e-09
-7.7964e-09
7.08549e-09
6.82278e-11
-7.61436e-09
7.26616e-09
-3.04677e-09
-7.62699e-09
7.28997e-09
-5.92051e-09
-7.80468e-09
7.09711e-09
-8.35561e-09
-8.15185e-09
6.75772e-09
-1.01961e-08
-8.61715e-09
6.29309e-09
-1.13472e-08
-9.15082e-09
5.74862e-09
-1.17415e-08
-9.68406e-09
5.11825e-09
-1.14171e-08
-1.01539e-08
4.49735e-09
-1.04652e-08
-1.04973e-08
3.91604e-09
-9.01994e-09
-1.06493e-08
3.39324e-09
-7.25043e-09
-1.05419e-08
2.94115e-09
-5.34324e-09
-1.00974e-08
2.55206e-09
-3.4863e-09
-9.22083e-09
2.1982e-09
-1.85951e-09
-7.79146e-09
1.82604e-09
-6.23218e-10
-5.64097e-09
1.34303e-09
-2.51676e-09
6.24014e-10
7.5937e-10
-4.03292e-09
7.66304e-10
2.22414e-09
-8.75379e-09
1.65429e-09
4.09824e-09
-1.19031e-08
2.25268e-09
6.19237e-09
-1.40218e-08
2.72202e-09
8.31381e-09
-1.53797e-08
3.17019e-09
1.02617e-08
-1.61417e-08
3.65654e-09
1.18402e-08
-1.64351e-08
4.20948e-09
1.28718e-08
-1.63635e-08
4.83671e-09
1.32137e-08
-1.60201e-08
5.5265e-09
1.27682e-08
-1.54919e-08
6.25642e-09
1.1488e-08
-1.48686e-08
7.00079e-09
9.42839e-09
-1.42281e-08
7.67123e-09
6.71317e-09
-1.36528e-08
8.21466e-09
3.5233e-09
-1.31853e-08
8.57886e-09
7.36884e-11
-1.29487e-08
8.78409e-09
-3.39588e-09
-1.2966e-08
8.80873e-09
-6.59415e-09
-1.31959e-08
8.58959e-09
-9.30809e-09
-1.36349e-08
8.19708e-09
-1.13694e-08
-1.42223e-08
7.66656e-09
-1.2664e-08
-1.48667e-08
7.01068e-09
-1.31276e-08
-1.54911e-08
6.27076e-09
-1.28032e-08
-1.60197e-08
5.5416e-09
-1.17881e-08
-1.63644e-08
4.85225e-09
-1.02248e-08
-1.64373e-08
4.22474e-09
-8.29144e-09
-1.6146e-08
3.67095e-09
-6.18327e-09
-1.53879e-08
3.18249e-09
-4.09848e-09
-1.40352e-08
2.72971e-09
-2.22714e-09
-1.19152e-08
2.25247e-09
-7.63238e-10
-8.74937e-09
1.64459e-09
-4.04432e-09
7.64385e-10
8.53715e-10
-5.74848e-09
8.61929e-10
2.48064e-09
-1.22382e-08
1.85761e-09
4.53247e-09
-1.64963e-08
2.54146e-09
6.79387e-09
-1.93683e-08
3.08522e-09
9.06084e-09
-2.12515e-08
3.60494e-09
1.11263e-08
-2.23741e-08
4.1671e-09
1.27902e-08
-2.29005e-08
4.80172e-09
1.38698e-08
-2.29613e-08
5.51823e-09
1.42171e-08
-2.26708e-08
6.30357e-09
1.37307e-08
-2.21367e-08
7.13121e-09
1.23609e-08
-2.14681e-08
7.96939e-09
1.01454e-08
-2.07724e-08
8.76005e-09
7.22037e-09
-2.01172e-08
9.38952e-09
3.78718e-09
-1.95474e-08
9.79542e-09
7.46561e-11
-1.92496e-08
1.00136e-08
-3.65957e-09
-1.92685e-08
1.00368e-08
-7.09438e-09
-1.9573e-08
9.81209e-09
-1.00124e-08
-2.00839e-08
9.36713e-09
-1.22342e-08
-2.07616e-08
8.76125e-09
-1.3621e-08
-2.14644e-08
7.98458e-09
-1.41274e-08
-2.2134e-08
7.14943e-09
-1.37988e-08
-2.26701e-08
6.32191e-09
-1.27363e-08
-2.2963e-08
5.53606e-09
-1.10879e-08
-2.2904e-08
4.81845e-09
-9.03583e-09
-2.23796e-08
4.18157e-09
-6.78131e-09
-2.12594e-08
3.61703e-09
-4.53002e-09
-1.93783e-08
3.09195e-09
-2.48398e-09
-1.65004e-08
2.53927e-09
-8.58126e-10
-1.22228e-08
1.84766e-09
-5.76343e-09
8.61038e-10
9.01128e-10
-7.57025e-09
9.20711e-10
2.6278e-09
-1.59544e-08
1.98957e-09
4.79173e-09
-2.13784e-08
2.71831e-09
7.1569e-09
-2.50366e-08
3.3032e-09
9.51332e-09
-2.74793e-08
3.87143e-09
1.16518e-08
-2.90027e-08
4.49016e-09
1.33712e-08
-2.98107e-08
5.19079e-09
1.44857e-08
-3.00603e-08
5.98463e-09
1.48447e-08
-2.98861e-08
6.85643e-09
1.43412e-08
-2.94102e-08
7.77711e-09
1.29242e-08
-2.87608e-08
8.70985e-09
1.06061e-08
-2.80629e-08
9.60863e-09
7.55165e-09
-2.73914e-08
1.03288e-08
3.96027e-09
-2.6729e-08
1.07731e-08
8.0139e-11
-2.63756e-08
1.10062e-08
-3.81841e-09
-2.64046e-08
1.10348e-08
-7.42349e-09
-2.67782e-08
1.08104e-08
-1.04699e-08
-2.73522e-08
1.03148e-08
-1.27943e-08
-2.80532e-08
9.6162e-09
-1.42295e-08
-2.87608e-08
8.73174e-09
-1.47533e-08
-2.94115e-08
7.80129e-09
-1.44138e-08
-2.98887e-08
6.87926e-09
-1.33165e-08
-3.00655e-08
6.00539e-09
-1.16128e-08
-2.9818e-08
5.21038e-09
-9.48711e-09
-2.9011e-08
4.5059e-09
-7.14262e-09
-2.74876e-08
3.88384e-09
-4.78814e-09
-2.50413e-08
3.30859e-09
-2.634e-09
-2.1365e-08
2.7106e-09
-9.12195e-10
-1.59143e-08
1.96974e-09
-7.5941e-09
9.18518e-10
9.1887e-10
-9.42918e-09
9.40109e-10
2.67458e-09
-1.97501e-08
2.04004e-09
4.87559e-09
-2.63696e-08
2.79024e-09
7.27637e-09
-3.08299e-08
3.39268e-09
9.65986e-09
-3.38474e-08
3.98472e-09
1.18201e-08
-3.58043e-08
4.6415e-09
1.35594e-08
-3.69424e-08
5.39255e-09
1.46927e-08
-3.74423e-08
6.24881e-09
1.50662e-08
-3.7455e-08
7.19548e-09
1.4571e-08
-3.71156e-08
8.20075e-09
1.31469e-08
-3.656e-08
9.22342e-09
1.07933e-08
-3.59299e-08
1.02207e-08
7.68077e-09
-3.53214e-08
1.10427e-08
4.02211e-09
-3.45831e-08
1.1513e-08
7.99381e-11
-3.42059e-08
1.17726e-08
-3.88623e-09
-3.42417e-08
1.18034e-08
-7.57288e-09
-3.46345e-08
1.15431e-08
-1.06641e-08
-3.52809e-08
1.10201e-08
-1.30184e-08
-3.59239e-08
1.02251e-08
-1.44598e-08
-3.65649e-08
9.24563e-09
-1.49758e-08
-3.71213e-08
8.22598e-09
-1.46216e-08
-3.74624e-08
7.21958e-09
-1.35051e-08
-3.74531e-08
6.27126e-09
-1.17808e-08
-3.69559e-08
5.41373e-09
-9.63301e-09
-3.58181e-08
4.65933e-09
-7.26165e-09
-3.38566e-08
3.99775e-09
-4.87492e-09
-3.08205e-08
3.3925e-09
-2.6851e-09
-2.63264e-08
2.77161e-09
-9.29046e-10
-1.96837e-08
2.01345e-09
-9.46283e-09
9.39728e-10
9.02954e-10
-1.12552e-08
9.2309e-10
2.61696e-09
-2.34767e-08
2.01271e-09
4.77324e-09
-3.12959e-08
2.77009e-09
7.1328e-09
-3.65629e-08
3.37351e-09
9.47687e-09
-4.01517e-08
3.96023e-09
1.15988e-08
-4.25501e-08
4.6239e-09
1.3312e-08
-4.4056e-08
5.40057e-09
1.44384e-08
-4.48642e-08
6.29554e-09
1.48244e-08
-4.51334e-08
7.29253e-09
1.43586e-08
-4.50088e-08
8.3591e-09
1.29839e-08
-4.46287e-08
9.44357e-09
1.06894e-08
-4.413e-08
1.04947e-08
7.59428e-09
-4.3627e-08
1.14008e-08
3.97173e-09
-4.2867e-08
1.19066e-08
7.65688e-11
-4.25231e-08
1.22125e-08
-3.84753e-09
-4.25551e-08
1.22376e-08
-7.50828e-09
-4.28876e-08
1.1914e-08
-1.05782e-08
-4.35663e-08
1.13555e-08
-1.28609e-08
-4.41265e-08
1.04854e-08
-1.42502e-08
-4.46387e-08
9.46319e-09
-1.47355e-08
-4.5021e-08
8.38517e-09
-1.43685e-08
-4.51473e-08
7.31794e-09
-1.32589e-08
-4.48817e-08
6.31908e-09
-1.15601e-08
-4.40772e-08
5.42253e-09
-9.45141e-09
-4.25669e-08
4.64028e-09
-7.12604e-09
-4.01422e-08
3.96034e-09
-4.78477e-09
-3.65082e-08
3.34652e-09
-2.63534e-09
-3.12027e-08
2.72695e-09
-9.09386e-10
-2.33917e-08
1.98213e-09
-1.12962e-08
9.24039e-10
8.56775e-10
-1.29776e-08
8.65692e-10
2.47494e-09
-2.69849e-08
1.89e-09
4.48998e-09
-3.59386e-08
2.62765e-09
6.71081e-09
-4.2012e-08
3.22828e-09
8.93539e-09
-4.61747e-08
3.79854e-09
1.0951e-08
-4.89985e-08
4.4329e-09
1.25822e-08
-5.08852e-08
5.198e-09
1.36652e-08
-5.20428e-08
6.09577e-09
1.40554e-08
-5.26284e-08
7.10484e-09
1.36393e-08
-5.2785e-08
8.19238e-09
1.23623e-08
-5.265e-08
9.29835e-09
1.02136e-08
-5.23464e-08
1.03654e-08
7.2337e-09
-5.19628e-08
1.13158e-08
3.78107e-09
-5.12795e-08
1.18652e-08
7.1899e-11
-5.10032e-08
1.21895e-08
-3.65978e-09
-5.10339e-08
1.22106e-08
-7.13842e-09
-5.12637e-08
1.18549e-08
-1.01053e-08
-5.18403e-08
1.1241e-08
-1.22468e-08
-5.23355e-08
1.03506e-08
-1.35351e-08
-5.26669e-08
9.31647e-09
-1.39701e-08
-5.28041e-08
8.21824e-09
-1.35988e-08
-5.26488e-08
7.1303e-09
-1.25311e-08
-5.20686e-08
6.1192e-09
-1.0912e-08
-5.09143e-08
5.21812e-09
-8.91521e-09
-4.90018e-08
4.43812e-09
-6.71742e-09
-4.61066e-08
3.76659e-09
-4.50436e-09
-4.18883e-08
3.16711e-09
-2.47726e-09
-3.58011e-08
2.5714e-09
-8.54065e-10
-2.68801e-08
1.86525e-09
-1.30208e-08
8.70582e-10
7.73374e-10
-1.45195e-08
7.68545e-10
2.23911e-09
-3.01066e-08
1.656e-09
4.04548e-09
-4.00622e-08
2.31732e-09
6.01911e-09
-4.68907e-08
2.90516e-09
8.02074e-09
-5.16325e-08
3.45624e-09
9.84627e-09
-5.48671e-08
4.04313e-09
1.13318e-08
-5.71278e-08
4.75717e-09
1.23299e-08
-5.86547e-08
5.61383e-09
1.27072e-08
-5.95882e-08
6.58258e-09
1.23598e-08
-6.00613e-08
7.62382e-09
1.12477e-08
-6.01954e-08
8.65768e-09
9.34146e-09
-6.00787e-08
9.63866e-09
6.59513e-09
-5.9785e-08
1.05687e-08
3.44129e-09
-5.93405e-08
1.1215e-08
6.59969e-11
-5.91813e-08
1.15535e-08
-3.3234e-09
-5.92126e-08
1.15682e-08
-6.46293e-09
-5.93297e-08
1.12056e-08
-9.16244e-09
-5.97289e-08
1.05883e-08
-1.10994e-08
-6.0164e-08
9.76566e-09
-1.22546e-08
-6.02412e-08
8.72962e-09
-1.26246e-08
-6.00889e-08
7.65485e-09
-1.22674e-08
-5.96102e-08
6.6043e-09
-1.12823e-08
-5.86861e-08
5.63255e-09
-9.80534e-09
-5.71615e-08
4.77027e-09
-7.99947e-09
-5.48365e-08
4.02887e-09
-6.01689e-09
-5.14821e-08
3.393e-09
-4.01926e-09
-4.67137e-08
2.82784e-09
-2.19959e-09
-3.99031e-08
2.28233e-09
-7.51066e-10
-2.99803e-08
1.65169e-09
-1.45464e-08
7.74487e-10
6.5194e-10
-1.5806e-08
6.3458e-10
1.90139e-09
-3.26877e-08
1.33167e-09
3.42851e-09
-4.34203e-08
1.83097e-09
5.08473e-09
-5.08795e-08
2.3326e-09
6.73469e-09
-5.61454e-08
2.86297e-09
8.26748e-09
-5.98097e-08
3.40992e-09
9.5352e-09
-6.24356e-08
4.04013e-09
1.04077e-08
-6.43312e-08
4.80409e-09
1.0764e-08
-6.56157e-08
5.67134e-09
1.05093e-08
-6.63823e-08
6.57571e-09
9.58035e-09
-6.67289e-08
7.46253e-09
7.91838e-09
-6.68191e-08
8.4024e-09
5.59875e-09
-6.67547e-08
9.28943e-09
2.93089e-09
-6.65602e-08
9.88767e-09
5.67466e-11
-6.64997e-08
1.01927e-08
-2.83879e-09
-6.64843e-08
1.01673e-08
-5.5135e-09
-6.64602e-08
9.80535e-09
-7.80292e-09
-6.66695e-08
9.2301e-09
-9.43835e-09
-6.70205e-08
8.49198e-09
-1.03922e-08
-6.68109e-08
7.5236e-09
-1.06748e-08
-6.63891e-08
6.58291e-09
-1.03454e-08
-6.56093e-08
5.66985e-09
-9.48726e-09
-6.43535e-08
4.80929e-09
-8.21451e-09
-6.24728e-08
4.03859e-09
-6.68448e-09
-5.97519e-08
3.38546e-09
-5.02424e-09
-5.59848e-08
2.84249e-09
-3.37412e-09
-5.07475e-08
2.38374e-09
-1.85868e-09
-4.33572e-08
1.93874e-09
-6.41565e-10
-3.26029e-08
1.40556e-09
-1.58441e-08
6.56178e-10
5.00578e-10
-1.67854e-08
4.78788e-10
1.44162e-09
-3.46479e-08
1.01917e-09
2.6217e-09
-4.59758e-08
1.37547e-09
3.88571e-09
-5.38264e-08
1.68294e-09
5.11128e-09
-5.94351e-08
2.06424e-09
6.25239e-09
-6.3477e-08
2.52627e-09
7.21535e-09
-6.64464e-08
3.04784e-09
7.91254e-09
-6.86691e-08
3.64076e-09
8.25421e-09
-7.0263e-08
4.3057e-09
8.07514e-09
-7.12297e-08
5.02655e-09
7.27864e-09
-7.17604e-08
5.82807e-09
5.94173e-09
-7.21337e-08
6.65157e-09
4.25944e-09
-7.24188e-08
7.34649e-09
2.25727e-09
-7.23825e-08
7.82457e-09
5.01129e-11
-7.23472e-08
8.05482e-09
-2.19454e-09
-7.22425e-08
8.00298e-09
-4.23971e-09
-7.21246e-08
7.70965e-09
-5.96154e-09
-7.21623e-08
7.21475e-09
-7.26126e-09
-7.22352e-08
6.51455e-09
-7.98239e-09
-7.17457e-08
5.65599e-09
-8.15856e-09
-7.11273e-08
4.91441e-09
-7.88009e-09
-7.0116e-08
4.22829e-09
-7.22299e-09
-6.86086e-08
3.59807e-09
-6.26757e-09
-6.64956e-08
3.06746e-09
-5.10342e-09
-6.35263e-08
2.61024e-09
-3.83843e-09
-5.94445e-08
2.19477e-09
-2.57754e-09
-5.38359e-08
1.82745e-09
-1.41948e-09
-4.59898e-08
1.4745e-09
-4.90682e-10
-3.45976e-08
1.06589e-09
-1.68314e-08
4.96659e-10
3.38685e-10
-1.74158e-08
2.91737e-10
9.13512e-10
-3.58354e-08
6.12728e-10
1.65146e-09
-4.75992e-08
8.85526e-10
2.45256e-09
-5.57328e-08
1.10528e-09
3.23888e-09
-6.15798e-08
1.35836e-09
3.97511e-09
-6.58633e-08
1.65002e-09
4.59384e-09
-6.90254e-08
1.9604e-09
5.01473e-09
-7.13622e-08
2.27223e-09
5.2423e-09
-7.31029e-08
2.61232e-09
5.11219e-09
-7.42114e-08
3.11187e-09
4.58907e-09
-7.49633e-08
3.72602e-09
3.77805e-09
-7.56139e-08
4.29133e-09
2.71589e-09
-7.60908e-08
4.73417e-09
1.44597e-09
-7.61547e-08
5.04221e-09
5.54681e-11
-7.61703e-08
5.21364e-09
-1.35668e-09
-7.603e-08
5.19979e-09
-2.65149e-09
-7.5857e-08
5.02722e-09
-3.72037e-09
-7.58053e-08
4.71192e-09
-4.55531e-09
-7.56818e-08
4.28156e-09
-5.06893e-09
-7.49459e-08
3.71389e-09
-5.26059e-09
-7.40502e-08
3.11467e-09
-5.11207e-09
-7.28207e-08
2.55628e-09
-4.66101e-09
-7.1187e-08
2.12735e-09
-3.99435e-09
-6.89955e-08
1.83318e-09
-3.22465e-09
-6.5896e-08
1.60004e-09
-2.41596e-09
-6.16263e-08
1.37317e-09
-1.61789e-09
-5.57823e-08
1.14843e-09
-8.88406e-10
-4.76452e-08
9.25925e-10
-3.07424e-10
-3.58463e-08
6.67785e-10
-1.74497e-08
3.10872e-10
1.24661e-10
-1.76405e-08
1.00058e-10
3.20363e-10
-3.6245e-08
2.13858e-10
5.82675e-10
-4.81803e-08
3.18723e-10
8.7094e-10
-5.6419e-08
3.9797e-10
1.16226e-09
-6.23486e-08
4.7754e-10
1.45727e-09
-6.67027e-08
5.44457e-10
1.73154e-09
-6.99032e-08
6.03503e-10
1.89625e-09
-7.22255e-08
6.98636e-10
1.92126e-09
-7.39746e-08
8.46752e-10
1.82036e-09
-7.51675e-08
1.05698e-09
1.65765e-09
-7.60779e-08
1.27743e-09
1.41747e-09
-7.68384e-08
1.46468e-09
9.65985e-10
-7.72318e-08
1.59261e-09
4.85859e-10
-7.7358e-08
1.68353e-09
3.55904e-11
-7.74937e-08
1.77381e-09
-4.65094e-10
-7.73787e-08
1.84941e-09
-9.33549e-10
-7.72333e-08
1.84488e-09
-1.30442e-09
-7.71584e-08
1.72403e-09
-1.59648e-09
-7.69532e-08
1.56351e-09
-1.77726e-09
-7.61317e-08
1.36664e-09
-1.85091e-09
-7.51353e-08
1.15877e-09
-1.80578e-09
-7.38239e-08
9.58089e-10
-1.64787e-09
-7.21389e-08
7.94045e-10
-1.41065e-09
-6.99017e-08
6.69027e-10
-1.13468e-09
-6.6737e-08
5.65087e-10
-8.45816e-10
-6.2387e-08
4.71859e-10
-5.61908e-10
-5.64565e-08
3.9021e-10
-3.05192e-10
-4.82158e-08
3.13931e-10
-1.05081e-10
-3.62706e-08
2.24091e-10
-1.76626e-08
1.07768e-10
-8.55402e-11
-1.74608e-08
-9.42193e-11
-2.65834e-10
-3.58746e-08
-1.90061e-10
-4.87261e-10
-4.76997e-08
-2.5908e-10
-7.29332e-10
-5.58543e-08
-3.226e-10
-9.78934e-10
-6.17176e-08
-3.81405e-10
-1.23002e-09
-6.6029e-08
-4.22658e-10
-1.46463e-09
-6.92157e-08
-4.52895e-10
-1.61306e-09
-7.15633e-08
-5.13815e-10
-1.61444e-09
-7.33154e-08
-6.57883e-10
-1.50356e-09
-7.44036e-08
-8.74741e-10
-1.36172e-09
-7.51391e-08
-1.08069e-09
-1.24106e-09
-7.57414e-08
-1.21762e-09
-1.04968e-09
-7.61175e-08
-1.30571e-09
-6.45823e-10
-7.63631e-08
-1.39878e-09
-5.46023e-11
-7.65423e-08
-1.5426e-09
4.29715e-10
-7.62641e-08
-1.59882e-09
8.46129e-10
-7.61156e-08
-1.5341e-09
1.22055e-09
-7.61005e-08
-1.43238e-09
1.42541e-09
-7.58563e-08
-1.30182e-09
1.55688e-09
-7.51146e-08
-1.14858e-09
1.62226e-09
-7.42234e-08
-9.77259e-10
1.58593e-09
-7.29861e-08
-8.01445e-10
1.46145e-09
-7.13504e-08
-6.64026e-10
1.25262e-09
-6.91275e-08
-5.65376e-10
1.01088e-09
-6.60053e-08
-4.89988e-10
7.60352e-10
-6.17181e-08
-4.18381e-10
5.10213e-10
-5.58595e-08
-3.4681e-10
2.83573e-10
-4.77142e-08
-2.74945e-10
1.022e-10
-3.58981e-08
-1.9108e-10
-1.74712e-08
-8.91558e-11
-2.93667e-10
-1.68707e-08
-2.96455e-10
-8.52744e-10
-3.46814e-08
-6.34152e-10
-1.55027e-09
-4.61219e-08
-8.80297e-10
-2.31389e-09
-5.39978e-08
-1.09288e-09
-3.081e-09
-5.96358e-08
-1.31468e-09
-3.792e-09
-6.37555e-08
-1.56254e-09
-4.38265e-09
-6.6785e-08
-1.84013e-09
-4.80084e-09
-6.89922e-08
-2.15294e-09
-4.99424e-09
-7.06178e-08
-2.50414e-09
-4.84445e-09
-7.15938e-08
-2.95955e-09
-4.34587e-09
-7.21075e-08
-3.53022e-09
-3.62852e-09
-7.24145e-08
-4.04426e-09
-2.65266e-09
-7.26542e-08
-4.43928e-09
-1.42488e-09
-7.28411e-08
-4.74978e-09
-1.92985e-11
-7.29962e-08
-4.95165e-09
1.33842e-09
-7.26884e-08
-4.93344e-09
2.61511e-09
-7.26294e-08
-4.76293e-09
3.73217e-09
-7.27628e-08
-4.45473e-09
4.40117e-09
-7.24958e-08
-4.02956e-09
4.83588e-09
-7.20041e-08
-3.54527e-09
5.02826e-09
-7.14277e-08
-2.98813e-09
4.88321e-09
-7.04343e-08
-2.40672e-09
4.46511e-09
-6.89076e-08
-2.02468e-09
3.82588e-09
-6.67173e-08
-1.77098e-09
3.09211e-09
-6.37285e-08
-1.54301e-09
2.33254e-09
-5.96437e-08
-1.3149e-09
1.57031e-09
-5.40141e-08
-1.08324e-09
8.77915e-10
-4.61652e-08
-8.56711e-10
3.19063e-10
-3.47431e-08
-5.9614e-10
-1.68676e-08
-2.84562e-10
-4.81555e-10
-1.59064e-08
-4.82732e-10
-1.38754e-09
-3.27388e-08
-1.03657e-09
-2.51864e-09
-4.35523e-08
-1.43853e-09
-3.75115e-09
-5.09798e-08
-1.7855e-09
-4.98335e-09
-5.6256e-08
-2.14767e-09
-6.10859e-09
-6.0063e-08
-2.56727e-09
-7.02597e-09
-6.28166e-08
-3.05097e-09
-7.67567e-09
-6.47313e-08
-3.61124e-09
-8.00086e-09
-6.60496e-08
-4.24308e-09
-7.8413e-09
-6.68511e-08
-4.90236e-09
-7.08186e-09
-6.72058e-08
-5.66116e-09
-5.82064e-09
-6.72287e-08
-6.44708e-09
-4.17015e-09
-6.71923e-08
-7.11235e-09
-2.20246e-09
-6.72116e-08
-7.59729e-09
-2.37905e-11
-6.7316e-08
-7.85896e-09
2.14417e-09
-6.7056e-08
-7.80031e-09
4.16346e-09
-6.70974e-08
-7.55131e-09
5.91187e-09
-6.74308e-08
-7.0805e-09
7.10007e-09
-6.72863e-08
-6.39773e-09
7.8179e-09
-6.70767e-08
-5.64536e-09
8.03447e-09
-6.67558e-08
-4.88844e-09
7.75818e-09
-6.60284e-08
-4.12971e-09
7.07701e-09
-6.47513e-08
-3.47518e-09
6.11189e-09
-6.28212e-08
-2.93095e-09
4.96936e-09
-6.01207e-08
-2.46534e-09
3.75903e-09
-5.63828e-08
-2.05064e-09
2.54954e-09
-5.11169e-08
-1.68776e-09
1.43201e-09
-4.37057e-08
-1.34195e-09
5.11783e-10
-3.28788e-08
-9.44115e-10
-1.58999e-08
-4.55982e-10
-6.43486e-10
-1.46239e-08
-6.39035e-10
-1.83722e-09
-3.01704e-08
-1.37475e-09
-3.33054e-09
-4.01416e-08
-1.91738e-09
-4.96024e-09
-4.69833e-08
-2.36681e-09
-6.59713e-09
-5.17938e-08
-2.82538e-09
-8.11356e-09
-5.51857e-08
-3.36087e-09
-9.37605e-09
-5.7549e-08
-4.00522e-09
-1.02291e-08
-5.9114e-08
-4.76422e-09
-1.05776e-08
-6.00889e-08
-5.61225e-09
-1.03303e-08
-6.06078e-08
-6.49071e-09
-9.40082e-09
-6.07711e-08
-7.36421e-09
-7.73703e-09
-6.06343e-08
-8.25831e-09
-5.495e-09
-6.03298e-08
-9.1046e-09
-2.87773e-09
-6.01043e-08
-9.72451e-09
-1.98816e-11
-6.01204e-08
-1.00534e-08
2.83163e-09
-5.99362e-08
-9.97135e-09
5.47572e-09
-6.00802e-08
-9.66135e-09
7.75371e-09
-6.05951e-08
-9.11378e-09
9.38913e-09
-6.07057e-08
-8.21619e-09
1.03299e-08
-6.07566e-08
-7.26094e-09
1.06024e-08
-6.06141e-08
-6.41433e-09
1.02702e-08
-6.01241e-08
-5.57217e-09
9.41567e-09
-5.91612e-08
-4.73561e-09
8.16644e-09
-5.7592e-08
-3.98007e-09
6.65262e-09
-5.52613e-08
-3.34562e-09
5.02463e-09
-5.19601e-08
-2.7947e-09
3.41222e-09
-4.72508e-08
-2.25375e-09
1.90851e-09
-4.04581e-08
-1.74393e-09
6.74623e-10
-3.04134e-08
-1.23161e-09
-1.46213e-08
-6.03999e-10
-7.6941e-10
-1.30929e-08
-7.61663e-10
-2.19039e-09
-2.71194e-08
-1.6301e-09
-3.98743e-09
-3.60672e-08
-2.27749e-09
-5.97004e-09
-4.21798e-08
-2.82102e-09
-7.9483e-09
-4.64408e-08
-3.37475e-09
-9.75302e-09
-4.93801e-08
-4.00101e-09
-1.123e-08
-5.13349e-08
-4.73717e-09
-1.22181e-08
-5.25348e-08
-5.59121e-09
-1.25878e-08
-5.31634e-08
-6.55583e-09
-1.22409e-08
-5.33648e-08
-7.58992e-09
-1.11284e-08
-5.32653e-08
-8.61838e-09
-9.21701e-09
-5.29769e-08
-9.56891e-09
-6.53592e-09
-5.25654e-08
-1.04456e-08
-3.39212e-09
-5.2102e-08
-1.11462e-08
-1.48098e-11
-5.19508e-08
-1.1547e-08
3.35094e-09
-5.18193e-08
-1.14827e-08
6.48614e-09
-5.20759e-08
-1.11396e-08
9.16534e-09
-5.27242e-08
-1.05502e-08
1.11029e-08
-5.3026e-08
-9.61735e-09
1.22438e-08
-5.32899e-08
-8.60764e-09
1.26032e-08
-5.33935e-08
-7.58007e-09
1.22395e-08
-5.32023e-08
-6.55816e-09
1.12547e-08
-5.25807e-08
-5.59567e-09
9.78501e-09
-5.13837e-08
-4.73868e-09
7.9752e-09
-4.94379e-08
-4.01364e-09
5.98228e-09
-4.65426e-08
-3.42474e-09
4.00131e-09
-4.2369e-08
-2.90087e-09
2.21368e-09
-3.63186e-08
-2.35189e-09
7.75557e-10
-2.7307e-08
-1.66836e-09
-1.30853e-08
-7.60454e-10
-8.54659e-10
-1.13713e-08
-8.66978e-10
-2.47116e-09
-2.36341e-08
-1.86882e-09
-4.49481e-09
-3.14719e-08
-2.57162e-09
-6.70563e-09
-3.68089e-08
-3.16018e-09
-8.90609e-09
-4.0487e-08
-3.7534e-09
-1.09095e-08
-4.29544e-08
-4.42233e-09
-1.25351e-08
-4.45079e-08
-5.20145e-09
-1.36127e-08
-4.53566e-08
-6.10057e-09
-1.39967e-08
-4.56668e-08
-7.11277e-09
-1.35785e-08
-4.55814e-08
-8.20176e-09
-1.23004e-08
-4.52377e-08
-9.30582e-09
-1.01642e-08
-4.47717e-08
-1.03415e-08
-7.21876e-09
-4.42764e-08
-1.12345e-08
-3.7207e-09
-4.37191e-08
-1.18809e-08
-1.00641e-11
-4.33927e-08
-1.22687e-08
3.70884e-09
-4.33092e-08
-1.22291e-08
7.19698e-09
-4.36639e-08
-1.19002e-08
1.01288e-08
-4.43286e-08
-1.13276e-08
1.22809e-08
-4.47949e-08
-1.03833e-08
1.35732e-08
-4.52618e-08
-9.32052e-09
1.40025e-08
-4.56094e-08
-8.21351e-09
1.36254e-08
-4.57008e-08
-7.12446e-09
1.25524e-08
-4.53964e-08
-6.11138e-09
1.09308e-08
-4.4553e-08
-5.20911e-09
8.9278e-09
-4.3004e-08
-4.43096e-09
6.71258e-09
-4.05476e-08
-3.77984e-09
4.47762e-09
-3.69068e-08
-3.22733e-09
2.44837e-09
-3.162e-08
-2.66951e-09
8.49523e-10
-2.3775e-08
-1.93318e-09
-1.13654e-08
-8.70433e-10
-8.93942e-10
-9.54471e-09
-9.32628e-10
-2.63244e-09
-1.98858e-08
-2.00982e-09
-4.79507e-09
-2.65745e-08
-2.73486e-09
-7.14451e-09
-3.11123e-08
-3.34723e-09
-9.4807e-09
-3.41902e-08
-3.96074e-09
-1.16016e-08
-3.61912e-08
-4.64242e-09
-1.33146e-08
-3.73673e-08
-5.4276e-09
-1.44399e-08
-3.79032e-08
-6.32819e-09
-1.48229e-08
-3.79508e-08
-7.33314e-09
-1.43512e-08
-3.76467e-08
-8.40661e-09
-1.29689e-08
-3.71225e-08
-9.49769e-09
-1.06783e-08
-3.65173e-08
-1.05451e-08
-7.59455e-09
-3.59119e-08
-1.14484e-08
-3.9095e-09
-3.53441e-08
-1.20601e-08
-5.49534e-12
-3.49437e-08
-1.23531e-08
3.91103e-09
-3.49098e-08
-1.2316e-08
7.58126e-09
-3.53102e-08
-1.20241e-08
1.06541e-08
-3.59434e-08
-1.14582e-08
1.29486e-08
-3.6535e-08
-1.05545e-08
1.43409e-08
-3.71415e-08
-9.51271e-09
1.48223e-08
-3.7669e-08
-8.42186e-09
1.44473e-08
-3.79789e-08
-7.34689e-09
1.33281e-08
-3.79365e-08
-6.34072e-09
1.16174e-08
-3.74052e-08
-5.43729e-09
9.49741e-09
-3.62333e-08
-4.65089e-09
7.15795e-09
-3.42366e-08
-3.9716e-09
4.79348e-09
-3.11696e-08
-3.37285e-09
2.62362e-09
-2.6667e-08
-2.78314e-09
9.01934e-10
-2.00119e-08
-2.0415e-09
-9.53477e-09
-9.28695e-10
-9.22706e-10
-7.673e-09
-9.49031e-10
-2.69506e-09
-1.60818e-08
-2.03165e-09
-4.901e-09
-2.15874e-08
-2.78122e-09
-7.30414e-09
-2.5307e-08
-3.40222e-09
-9.69404e-09
-2.77904e-08
-4.00998e-09
-1.18613e-08
-2.93482e-08
-4.67586e-09
-1.36055e-08
-3.0187e-08
-5.43616e-09
-1.47413e-08
-3.0466e-08
-6.30142e-09
-1.51124e-08
-3.03209e-08
-7.25887e-09
-1.46092e-08
-2.98735e-08
-8.27654e-09
-1.31705e-08
-2.92506e-08
-9.31067e-09
-1.08143e-08
-2.85673e-08
-1.03064e-08
-7.71485e-09
-2.78871e-08
-1.11244e-08
-4.02492e-09
-2.73511e-08
-1.16831e-08
-3.2005e-11
-2.70024e-08
-1.19343e-08
3.94233e-09
-2.69653e-08
-1.19189e-08
7.61806e-09
-2.73085e-08
-1.16775e-08
1.07669e-08
-2.79258e-08
-1.11666e-08
1.31485e-08
-2.85835e-08
-1.03332e-08
1.45953e-08
-2.92615e-08
-9.327e-09
1.5108e-08
-2.98895e-08
-8.29233e-09
1.4744e-08
-3.03418e-08
-7.27318e-09
1.36137e-08
-3.04924e-08
-6.31393e-09
1.18727e-08
-3.02168e-08
-5.44734e-09
9.70647e-09
-2.9381e-08
-4.68617e-09
7.31567e-09
-2.78264e-08
-4.01951e-09
4.90755e-09
-2.53465e-08
-3.41506e-09
2.69014e-09
-2.16389e-08
-2.81072e-09
9.14193e-10
-1.61611e-08
-2.07486e-09
-7.66872e-09
-9.5189e-10
-9.1514e-10
-5.82952e-09
-9.28361e-10
-2.65161e-09
-1.23606e-08
-1.98478e-09
-4.82533e-09
-1.66881e-08
-2.72567e-09
-7.20267e-09
-1.96032e-08
-3.32654e-09
-9.57188e-09
-2.15151e-08
-3.90615e-09
-1.17229e-08
-2.26628e-08
-4.5345e-09
-1.34511e-08
-2.32128e-08
-5.24614e-09
-1.45709e-08
-2.32959e-08
-6.05032e-09
-1.49292e-08
-2.3026e-08
-6.93674e-09
-1.44153e-08
-2.25129e-08
-7.8746e-09
-1.29774e-08
-2.18637e-08
-8.82493e-09
-1.06595e-08
-2.11698e-08
-9.71568e-09
-7.60885e-09
-2.05118e-08
-1.0426e-08
-3.98942e-09
-2.00219e-08
-1.09487e-08
-3.67437e-11
-1.97496e-08
-1.12054e-08
3.89231e-09
-1.97086e-08
-1.11858e-08
7.51684e-09
-1.99887e-08
-1.09444e-08
1.06092e-08
-2.05447e-08
-1.04736e-08
1.29541e-08
-2.1186e-08
-9.74256e-09
1.43987e-08
-2.18698e-08
-8.83656e-09
1.49196e-08
-2.25227e-08
-7.88782e-09
1.45703e-08
-2.30415e-08
-6.9511e-09
1.34558e-08
-2.33143e-08
-6.06365e-09
1.17307e-08
-2.32347e-08
-5.25707e-09
9.58159e-09
-2.26877e-08
-4.54433e-09
7.21294e-09
-2.15423e-08
-3.91553e-09
4.8328e-09
-1.96307e-08
-3.33569e-09
2.65263e-09
-1.67199e-08
-2.73897e-09
9.051e-10
-1.24036e-08
-2.01007e-09
-5.83311e-09
-9.30544e-10
-8.64665e-10
-4.09517e-09
-8.69715e-10
-2.50698e-09
-8.85653e-09
-1.86184e-09
-4.57554e-09
-1.20624e-08
-2.55717e-09
-6.85318e-09
-1.42115e-08
-3.11412e-09
-9.13602e-09
-1.55874e-08
-3.645e-09
-1.12171e-08
-1.63658e-08
-4.21597e-09
-1.28923e-08
-1.66755e-08
-4.86217e-09
-1.39794e-08
-1.6619e-08
-5.58981e-09
-1.43267e-08
-1.62898e-08
-6.38894e-09
-1.38281e-08
-1.57758e-08
-7.23572e-09
-1.24338e-08
-1.51609e-08
-8.09721e-09
-1.02152e-08
-1.45202e-08
-8.86843e-09
-7.28549e-09
-1.39473e-08
-9.49438e-09
-3.81572e-09
-1.35247e-08
-9.96704e-09
-3.24342e-11
-1.33076e-08
-1.02254e-08
3.73032e-09
-1.32742e-08
-1.01972e-08
7.207e-09
-1.35034e-08
-9.96212e-09
1.01683e-08
-1.39672e-08
-9.53895e-09
1.24103e-08
-1.45327e-08
-8.89545e-09
1.38096e-08
-1.51671e-08
-8.1022e-09
1.43153e-08
-1.57818e-08
-7.24671e-09
1.39757e-08
-1.62993e-08
-6.40259e-09
1.2895e-08
-1.66313e-08
-5.60235e-09
1.12231e-08
-1.66901e-08
-4.87282e-09
9.14389e-09
-1.6383e-08
-4.22554e-09
6.85989e-09
-1.56055e-08
-3.65297e-09
4.581e-09
-1.42303e-08
-3.1217e-09
2.51065e-09
-1.20843e-08
-2.5653e-09
8.63001e-10
-8.88263e-09
-1.87336e-09
-4.09914e-09
-8.71007e-10
-7.71304e-10
-2.55152e-09
-7.72366e-10
-2.25243e-09
-5.71677e-09
-1.65867e-09
-4.14807e-09
-7.89618e-09
-2.27068e-09
-6.25991e-09
-9.34684e-09
-2.75297e-09
-8.39773e-09
-1.02381e-08
-3.21163e-09
-1.03625e-08
-1.0695e-08
-3.70623e-09
-1.19534e-08
-1.08145e-08
-4.27013e-09
-1.29929e-08
-1.0672e-08
-4.90764e-09
-1.33353e-08
-1.0337e-08
-5.61052e-09
-1.28787e-08
-9.87472e-09
-6.35776e-09
-1.15832e-08
-9.34551e-09
-7.11103e-09
-9.51794e-09
-8.8175e-09
-7.76804e-09
-6.7835e-09
-8.35574e-09
-8.32614e-09
-3.54714e-09
-8.01587e-09
-8.74529e-09
-2.79373e-11
-7.8417e-09
-8.98517e-09
3.47442e-09
-7.82196e-09
-8.95462e-09
6.71178e-09
-8.00339e-09
-8.73745e-09
9.46547e-09
-8.36212e-09
-8.35887e-09
1.15529e-08
-8.82255e-09
-7.7977e-09
1.28593e-08
-9.34953e-09
-7.12412e-09
1.33228e-08
-9.87812e-09
-6.3673e-09
1.29879e-08
-1.03421e-08
-5.62225e-09
1.1954e-08
-1.06789e-08
-4.91862e-09
1.0366e-08
-1.08232e-08
-4.27896e-09
8.4028e-09
-1.0705e-08
-3.71493e-09
6.26465e-09
-1.02491e-08
-3.21832e-09
4.1532e-09
-9.36012e-09
-2.75878e-09
2.25858e-09
-7.91503e-09
-2.27477e-09
7.73342e-10
-5.73599e-09
-1.66148e-09
-2.5541e-09
-7.71734e-10
-6.31319e-10
-1.28984e-09
-6.30386e-10
-1.8845e-09
-3.10853e-09
-1.3551e-09
-3.53576e-09