/*--------------------------------*- C++ -*----------------------------------*\
| =========                 |                                                 |
| \\      /  F ield         | OpenFOAM: The Open Source CFD Toolbox           |
|  \\    /   O peration     | Version:  v1906                                 |
|   \\  /    A nd           | Web:      www.OpenFOAM.com                      |
|    \\/     M anipulation  |                                                 |
\*---------------------------------------------------------------------------*/
FoamFile
{
    version     2.0;
    format      ascii;
    class       volScalarField;
    location    "0.42/sphere";
    object      T;
}
// * * * * * * * * * * * * * * * * * * * * * * * * * * * * * * * * * * * * * //

dimensions      [0 0 0 1 0 0 0];


internalField   nonuniform List<scalar> 
7664
(
483.433
484.086
483.694
485.029
483.36
483.929
485.876
487.197
488.698
486.455
483.678
488.105
489.456
487.381
486.615
488.124
485.873
485.81
487.378
485.279
483.983
488.63
490.164
487.91
484.848
489.405
490.967
488.809
483.726
483.851
488.068
489.581
487.32
486.395
485.257
486.365
487.876
485.41
483.284
487.283
488.748
486.575
485.598
487.28
484.885
483.657
483.615
483.65
483.554
483.628
483.49
485.024
483.779
487.805
486.417
488.575
487.35
486.444
488.75
487.456
484.122
483.524
485.114
483.808
487.456
487.871
486.495
485.119
483.834
484.153
483.548
483.588
483.594
483.575
483.599
483.449
483.525
483.537
483.387
483.578
483.566
483.428
483.567
484.641
483.851
485.213
485.599
487.213
483.854
485.243
487.238
485.712
484.815
483.289
485.274
483.275
486.392
484.043
483.687
484.939
486.301
487.782
487.278
488.569
483.921
484.408
484.228
485.699
485.483
485.178
485.887
483.341
485.396
486.482
483.371
483.311
483.29
486.387
485.28
484.945
483.513
484.102
487.268
488.558
486.304
487.751
483.788
484.136
483.55
488.565
487.345
487.774
486.388
486.476
483.38
485.389
484.666
483.92
485.598
487.172
485.211
487.188
485.691
485.231
484.838
486.477
486.512
485.609
485.188
483.785
487.173
485.852
486.649
488.169
485.819
487.332
488.125
489.604
485.027
488.188
486.787
487.377
485.901
489.624
488.251
485.874
485.285
487.316
483.921
483.5
486.294
483.664
487.243
483.981
487.709
484.849
488.487
483.517
487.384
483.798
487.917
484.157
488.798
485.2
483.714
483.509
487.237
486.283
484.85
488.481
484.036
487.699
483.809
486.434
483.565
488.796
485.207
487.912
484.213
483.726
485.585
483.851
487.136
485.191
488.108
485.794
488.063
489.528
485.768
487.224
486.748
485.815
485.007
489.558
488.225
487.264
485.84
487.306
483.966
485.255
486.365
486.392
486.48
486.513
485.173
483.778
487.154
485.611
487.335
488.124
489.603
485.846
486.642
488.2
485.899
489.628
488.25
485.858
485.039
488.22
486.778
487.305
483.917
485.888
483.499
487.711
484.846
488.498
486.301
483.659
487.249
484.161
488.807
485.202
486.492
483.51
487.473
483.81
483.715
483.508
488.489
484.029
487.693
483.665
487.24
486.292
485.21
487.923
484.202
487.481
483.822
486.506
483.579
487.15
485.169
485.596
489.541
485.775
487.227
486.621
488.164
485.795
488.244
487.272
485.839
488.199
486.814
485.806
485.013
483.965
485.261
485.923
486.366
484.672
485.239
485.63
487.258
483.88
487.274
485.721
483.886
484.836
485.311
483.276
486.38
483.3
487.856
487.286
488.734
483.45
484.092
483.701
485.023
486.568
483.367
483.37
486.379
485.281
483.293
488.73
486.324
487.84
483.708
485.031
483.493
484.117
483.382
485.466
483.383
484.651
487.246
485.228
483.924
485.755
485.238
483.938
483.377
483.272
483.07
483.339
483.246
483.272
483.191
483.282
483.199
483.297
483.212
483.42
483.307
483.24
483.108
483.406
483.335
483.187
483.549
483.576
483.428
483.287
483.19
483.413
483.303
483.706
483.552
483.946
485.286
484.164
484.764
484.54
483.655
484.275
484.136
485.574
485.118
484.84
485.723
483.945
484.47
484.276
485.784
485.552
485.218
485.983
483.717
483.569
483.971
485.361
484.193
484.811
484.598
483.67
484.333
484.165
485.668
485.197
484.911
485.832
484.357
483.716
484.199
485.687
485.213
485.847
484.928
484.493
483.988
484.295
485.799
485.568
485.995
485.239
483.617
483.76
484.001
485.385
484.248
484.64
484.831
483.262
483.118
483.444
483.366
483.215
483.474
483.361
483.214
483.298
483.632
483.466
483.828
485.159
484.098
484.709
484.433
483.654
483.832
483.371
484.095
485.443
483.579
485.019
483.963
485.595
484.753
483.327
484.276
483.502
483.498
484.144
484.115
483.906
484.29
483.81
484.324
484.91
484.695
484.416
486.512
485.259
485.167
485.27
485.828
485.75
485.811
487.23
485.658
486.74
486.485
486.409
486.239
487.462
484.553
484.73
485.145
484.941
483.994
483.362
483.519
484.34
484.527
483.693
485.373
484.986
483.556
484.065
484.721
485.553
483.922
483.302
483.225
484.085
483.886
484.237
484.857
484.811
485.158
486.603
484.404
485.479
485.817
485.775
487.126
486.422
486.676
485.571
487.398
486.162
486.313
487.72
487.134
488.206
487.009
487.968
486.743
487.949
484.774
485.831
485.113
484.883
485.598
485.503
485.367
484.218
483.802
485.743
485.024
484.022
483.441
483.313
485.786
486.164
484.56
484.487
486.013
485.932
484.253
483.677
483.607
483.492
484.289
484.85
483.72
484.369
484.623
485.757
486.227
486.153
485.978
484.515
484.651
485.069
484.773
485.093
485.801
485.579
484.864
483.324
483.557
483.745
486.084
484.394
484.941
484.008
484.452
484.983
483.738
483.428
484.182
483.21
484.028
483.428
484.778
486.493
484.983
484.652
485.717
485.399
484.295
484.075
484.169
484.481
484.135
483.089
483.335
483.448
483.199
483.298
483.962
484.323
483.974
484.071
483.86
484.267
483.73
484.873
484.274
484.376
484.652
484.466
484.666
485.056
484.743
485.061
485.78
484.858
485.522
484.758
484.613
484.978
486.494
484.256
485.378
485.735
483.74
484.889
484.683
484.28
484.379
483.907
484.297
484.094
484.755
485.097
485.79
484.858
485.558
484.541
484.703
485.111
484.673
486.572
485.402
484.796
485.09
484.305
485.818
484.027
484.44
484.096
484.091
483.318
483.593
483.772
483.166
483.408
484.224
484.044
483.453
483.309
483.57
483.726
483.898
484.324
484.284
485.921
483.646
484.852
484.778
483.407
483.174
484.19
483.441
484.013
484.282
483.866
485.442
484.078
485.83
485.59
485.123
483.541
484.11
483.948
485.43
485.018
484.714
485.602
483.264
484.272
484.115
483.457
483.493
484.379
486.027
484.883
483.966
484.423
483.703
484.941
483.397
483.665
483.863
483.468
483.282
484.293
483.492
484.115
483.432
483.242
484.224
483.459
484.069
483.393
483.649
483.822
483.425
484.189
483.217
483.446
484.032
483.374
483.633
483.783
483.936
484.358
485.921
484.314
484.865
483.711
484.806
484.536
484.664
486.269
485.864
484.302
486.006
486.118
485.18
483.521
483.703
484.137
483.868
484.489
484.711
484.329
485.594
483.916
485.461
484.112
485.845
485.112
484.286
483.684
485.125
484.14
485.729
485.583
484.877
484.441
483.967
484.25
485.696
485.493
485.892
485.178
483.592
483.748
483.96
485.297
484.198
484.597
484.773
483.443
483.699
483.89
483.493
484.294
483.305
483.501
484.132
483.998
484.394
486.021
484.453
484.904
483.764
484.952
483.441
483.73
483.892
484.008
484.003
484.352
484.316
483.774
484.904
484.669
484.416
484.756
484.612
486.464
485
485.333
484.301
485.727
484.525
484.681
485.051
484.752
485.744
485.047
484.862
485.499
484.128
483.943
484.316
484.793
484.673
486.526
485.091
485.374
484.35
485.791
484.757
485.749
485.076
484.858
485.524
484.548
484.722
485.105
484.073
484.134
484.469
484.123
485.826
485.825
486.219
486.195
485.97
485.88
486.249
486.333
486.059
485.947
485.75
484.471
484.653
485.037
484.041
483.83
484.172
484.743
484.998
484.589
486.476
484.245
485.734
485.293
484.706
485.024
485.733
485.491
484.814
484.218
483.632
484.819
484.571
484.33
487.14
485.599
486.717
486.443
486.343
486.173
487.425
487.131
485.596
486.423
486.681
486.175
486.325
487.402
487.643
486.957
486.942
488.17
486.636
487.908
487.898
486.753
485.342
485.325
485.389
485.951
485.873
485.988
487.719
487.003
487.134
488.204
486.74
487.949
487.968
487.238
485.67
486.54
486.8
486.278
486.449
487.503
484.841
485.162
484.775
486.633
484.376
485.842
485.481
484.126
483.915
484.338
484.78
485.119
485.833
485.595
484.882
484.327
483.796
484.97
484.733
484.42
483.038
483.166
483.31
483.338
483.143
485.366
483.513
484.981
484.06
484.695
483.887
485.55
485.499
483.793
485.365
484.208
485.011
484.007
485.739
485.781
484.482
484.537
486.169
484.213
485.944
486.008
485.363
484.19
483.568
483.722
484.613
484.812
483.969
485.658
483.665
485.169
484.329
484.88
484.17
485.82
485.807
483.965
485.597
484.528
485.247
484.29
486.049
486.115
484.95
485.019
486.547
484.664
486.279
486.364
483.291
483.192
483.426
483.285
483.594
483.64
483.446
483.086
483.315
483.367
483.162
483.228
484.957
483.426
484.043
483.591
484.37
483.73
484.575
485.776
484.486
486.167
484.545
485.942
484.237
486.005
485.497
483.856
484.234
485.384
484.029
485.045
485.742
485.661
485.171
483.679
484.347
484.886
485.824
484.188
485.367
483.596
484.224
483.763
484.595
484.005
484.832
486.117
484.956
486.55
485.039
486.279
484.687
486.37
485.818
484.012
484.57
485.618
484.345
485.264
486.062
483.606
483.674
483.482
483.495
483.353
484.748
484.611
484.975
486.441
484.289
485.329
485.691
484.517
484.664
485.036
484.282
483.72
484.85
484.624
484.37
484.737
485.017
485.719
485.48
484.833
486.466
485.166
485.26
485.238
485.801
485.777
485.705
487.062
486.649
485.563
486.357
486.294
487.334
486.101
487.046
485.545
486.618
486.328
486.26
486.096
487.303
487.548
486.857
488.069
486.835
487.814
486.539
487.788
487.145
486.667
485.61
486.389
486.348
487.363
486.163
486.69
485.309
485.318
485.347
485.912
485.945
485.829
487.624
486.889
488.104
487.03
487.843
486.651
487.875
487.159
485.624
486.742
486.452
486.387
486.204
487.423
484.181
483.968
484.368
484.567
484.748
485.135
484.37
483.837
484.985
484.746
484.451
484.792
485.083
485.804
485.563
484.893
485.757
485.711
486.116
486.101
485.892
486.14
486.222
485.964
485.854
485.666
485.823
486.198
486.229
485.981
485.833
486.334
486.253
486.065
485.945
485.765
485.881
484.707
485.738
485.011
484.815
485.493
484.214
484.823
483.653
484.335
484.57
484.482
484.653
485.037
484.013
483.831
484.184
484.72
486.466
484.995
484.571
485.739
485.28
484.253
487.649
486.948
488.172
486.969
487.899
486.641
487.912
486.523
485.247
485.276
485.169
485.751
485.807
485.838
487.155
486.442
485.612
486.719
486.189
487.424
486.36
487.242
486.537
486.8
485.668
487.503
486.28
486.454
487.219
486.468
485.64
486.736
486.223
487.451
486.396
486.753
485.396
485.346
485.314
485.869
486.004
485.946
484.329
484.966
483.775
484.421
484.723
484.558
484.739
485.165
484.839
486.64
485.171
484.777
485.875
485.45
484.38
484.129
483.933
484.329
483.183
483.347
483.295
483.156
483.032
485.795
484.556
486.166
484.482
486.017
484.251
485.937
484.931
483.523
483.99
483.37
484.543
483.689
484.355
485.379
484.054
483.539
484.975
483.908
485.544
484.73
485.816
485.599
484.531
483.968
486.05
485.237
484.308
486.129
485.022
486.551
484.96
486.367
484.681
486.296
485.373
483.728
484.203
483.567
484.813
483.981
484.596
485.679
484.343
483.667
485.201
484.184
485.848
484.899
483.646
483.597
483.462
483.297
483.211
483.375
483.306
483.186
483.243
483.051
485.507
484.249
485.38
483.849
485.747
484.053
485.044
485.367
484.06
484.976
483.558
485.541
483.924
484.711
484.943
483.593
483.416
484.046
483.737
484.558
484.378
486.141
486.555
485.043
484.966
486.377
486.3
484.702
485.833
484.566
485.615
484.002
486.066
484.341
485.246
485.697
484.356
485.211
483.692
485.857
484.209
484.908
485.394
483.775
483.598
484.237
484.02
484.834
484.613
483.485
483.361
483.309
483.239
484.743
485.723
485.02
484.831
485.497
484.089
483.891
484.233
484.776
486.455
484.608
484.997
485.303
485.733
484.285
484.503
484.675
485.043
487.052
486.624
486.345
485.556
487.315
486.282
486.097
487.551
488.073
486.85
486.865
487.799
487.821
486.533
486.446
485.244
485.162
485.242
485.782
485.67
485.791
487.06
486.358
486.667
485.571
487.345
486.098
486.3
487.658
488.115
487.038
486.922
487.888
487.877
486.663
487.185
486.75
486.449
485.624
487.432
486.414
486.21
487.176
486.389
486.692
485.604
487.389
486.176
486.361
486.717
485.364
485.323
485.32
485.976
485.831
485.927
484.368
484.982
483.806
484.453
484.731
484.801
485.813
485.102
484.896
485.585
484.863
486.647
484.832
485.202
485.504
485.858
484.43
484.171
483.975
484.368
484.575
484.752
485.159
486.104
486.123
485.879
485.76
485.85
485.666
485.79
484.336
483.975
483.982
484.736
485.065
485.783
485.537
484.855
484.767
485.003
486.535
484.632
485.779
484.26
485.369
484.075
483.866
484.267
484.924
483.741
484.288
484.395
484.67
484.556
484.713
485.127
486.597
484.667
485.411
484.804
485.103
485.842
484.33
483.77
484.93
484.692
484.303
484.397
483.908
484.314
484.089
484.031
484.439
484.1
484.099
483.892
484.295
485.931
484.352
484.792
483.657
484.858
483.388
483.198
484.172
484.015
483.415
483.324
483.606
483.785
483.204
483.403
484.203
484.038
483.426
483.656
483.489
483.867
485.221
484.114
484.729
484.469
484.351
485.523
483.899
485.93
484.125
485.67
485.162
483.575
484.145
483.999
485.503
485.043
484.762
485.666
483.419
483.681
483.873
483.492
483.278
484.322
484.153
483.515
483.662
483.868
483.4
483.284
484.306
484.137
483.474
483.504
483.381
483.645
483.784
483.942
485.925
484.345
484.33
484.839
484.841
483.702
483.236
483.443
484.226
483.447
484.085
483.382
483.669
483.829
484.116
483.615
484.005
485.514
485.055
485.66
484.805
483.54
483.716
483.909
485.24
484.167
484.531
484.731
484.385
485.528
483.928
485.947
484.147
485.679
485.154
483.52
484.329
483.291
484.155
483.527
486.1
484.452
484.961
484.031
484.499
484.992
483.782
483.452
483.73
483.9
483.297
484.322
484.169
483.514
483.518
483.734
483.91
483.443
484.013
484.357
484.004
484.526
484.678
485.056
484.756
485.759
485.053
485.507
484.867
484.134
483.917
484.311
484.944
483.77
484.336
484.696
484.423
486.619
484.775
485.499
484.867
485.095
485.832
484.375
484.789
485.78
485.079
485.556
484.875
484.581
484.725
485.122
483.813
484.966
484.73
484.345
484.433
483.988
484.361
484.161
484.843
484.863
486.328
484.573
486.127
485.974
486.165
488.683
488.114
489.46
488.631
490.144
489.408
490.945
487.331
489.464
488.208
490.162
488.787
490.96
489.65
486.948
486.582
485.302
487.209
485.908
486.144
487.638
489.452
487.178
488.633
489.398
490.936
488.584
490.085
488.199
488.649
487.288
490.952
489.649
490.11
488.776
486.872
486.367
487.237
488.069
486.214
487.025
487.917
487.383
487.379
485.87
487.347
486.697
488.074
486.667
487.937
487.915
487.459
488.829
487.248
488.616
488.149
490.142
489.416
490.951
487.221
488.738
488.115
489.616
488.785
490.968
489.66
488.757
487.358
489.625
488.308
487.06
486.849
488.361
487.678
487.287
486.614
488.131
490.945
488.583
490.097
488.105
489.614
487.188
488.715
489.665
490.133
488.793
489.628
488.312
488.748
487.385
487.372
487.77
488.656
488.583
487.602
487.529
488.431
487.866
488.788
487.415
487.843
488.105
488.558
487.183
488.462
489.357
488.903
489.363
488.682
489.135
488.683
485.269
486.266
486.649
487.091
485.43
486.033
486.413
486.469
487.115
486.857
485.239
487.556
486.047
485.805
487.033
487.656
488.321
486.806
488.113
486.591
487.233
486.764
487.974
487.126
486.267
487.827
486.905
486.123
487.333
488.552
488.602
487.684
488.399
487.488
487.532
486.413
485.568
485.399
484.304
485.573
485.402
484.394
487.067
486.251
486.029
485.262
486.618
486.385
485.413
484.842
484.839
484.568
485.978
486.329
486.164
486.126
486.926
486.733
487.59
488.207
486.529
487.121
488.001
486.491
485.271
487.135
486.89
486.065
485.838
487.559
487.194
487.53
488.462
488.379
487.395
487.331
488.252
486.776
486.314
487.189
487.974
486.159
486.919
487.827
486.586
487.181
486.964
485.286
487.653
486.117
485.914
487.327
488.611
488.544
487.691
488.397
487.534
487.483
486.903
487.295
488.115
486.417
487.963
486.262
487.054
484.927
484.92
484.628
486.085
486.461
486.281
486.252
486.909
488.116
487.291
486.423
487.959
487.063
486.267
487.04
488.314
487.673
486.815
488.118
487.233
486.611
486.6
486.981
487.224
485.354
487.667
485.937
486.158
484.929
484.947
484.645
486.096
486.461
486.257
486.292
486.153
485.181
486.588
486.972
485.363
485.922
486.321
486.177
487.024
485.953
485.2
486.607
485.374
486.371
484.166
485.43
486.236
485.399
485.254
484.283
485.214
484.643
484.554
486.27
484.309
486.115
485.873
486.02
486.391
485.189
487.059
486.805
486.009
485.756
487.468
486.7
488.187
487.086
486.852
487.55
486.481
487.952
486.666
486.244
487.126
487.906
486.072
486.829
487.755
487.501
488.448
487.366
487.124
488.349
487.275
488.209
485.482
486.326
485.314
484.236
485.501
484.331
485.333
484.188
485.428
485.396
486.231
484.287
485.262
485.221
486.678
486.239
487.9
487.12
486.823
486.09
487.754
487.493
487.107
488.33
488.426
487.255
487.354
488.183
486.401
485.201
486.817
487.03
485.782
485.987
487.474
486.831
486.689
488.157
487.495
487.073
486.446
487.912
487.523
488.379
487.329
487.181
488.434
487.376
488.244
486.315
487.977
486.921
486.788
487.198
486.179
487.844
486.905
486.712
488.176
487.56
487.101
486.507
487.978
486.492
485.262
486.88
487.101
485.853
486.052
487.549
485.481
484.251
485.503
486.328
484.34
485.325
485.341
485.172
486.135
486.928
486.54
485.887
485.351
486.287
485.189
486.145
486.976
486.55
485.921
485.352
486.324
485.176
486.952
486.55
486.105
486.308
485.866
485.333
487.441
485.895
487.4
487.409
486.726
486.725
488.128
487.951
487.514
487.908
488.889
487.248
488.215
488.631
487.925
487.884
487.476
488.856
487.225
488.601
488.185
488.438
489.369
488.943
489.361
488.7
489.108
488.692
487.978
488.025
487.535
488.912
487.316
488.244
488.697
487.517
487.552
486.024
487.536
486.838
486.86
488.234
488.506
489.396
488.969
489.398
488.733
489.169
488.74
488.034
488.014
487.594
488.946
487.351
488.709
488.279
485.258
487.095
486.662
486.262
486.421
486.039
485.418
486.335
485.142
486.775
487.014
485.698
485.908
487.447
486.629
487.085
486.195
487.874
486.034
487.733
486.784
486.769
487.47
486.623
488.108
486.385
487.886
486.994
487.049
488.293
488.37
487.398
488.157
487.2
487.267
487.243
486.877
486.367
488.072
486.216
487.929
487.026
487.059
487.695
486.853
488.367
486.628
488.133
487.289
487.345
488.541
488.655
487.761
488.403
487.497
487.599
486.626
486.194
487.073
487.868
486.038
486.784
487.712
486.337
486.764
485.164
487.018
485.711
487.43
485.938
487.037
488.287
487.396
488.352
487.197
488.134
487.257
486.757
487.471
488.09
486.622
487.862
486.395
486.986
486.566
486.924
485.308
487.174
485.89
487.609
486.128
487.335
488.535
487.761
488.646
487.494
488.383
487.593
487.045
487.66
488.359
486.852
488.105
486.611
487.287
485.154
486.903
486.098
486.515
485.869
486.261
485.318
487.871
487.864
487.444
488.811
487.195
488.564
488.126
487.847
487.817
488.773
487.409
488.536
487.156
488.093
488.349
489.294
489.266
488.851
489.033
488.614
488.587
487.478
487.459
485.991
487.477
486.786
488.159
486.803
488.413
489.314
489.335
488.885
489.082
488.639
488.662
487.95
487.95
488.893
487.544
488.623
487.282
488.211
485.257
487.053
486.26
486.638
486.016
486.38
485.426
485.125
486.539
486.092
486.924
485.307
486.292
485.842
487.925
487.474
488.852
487.886
488.182
487.224
488.603
488.444
488.943
489.36
489.367
488.693
488.7
489.115
487.445
487.398
485.885
487.445
486.718
488.128
486.754
487.968
488.901
487.53
487.964
488.217
488.66
487.283
488.507
488.972
489.401
489.399
488.742
488.733
489.176
488.049
487.593
488.95
488.035
488.282
487.366
488.731
488.002
488.015
488.921
487.547
488.238
488.699
487.32
487.529
487.555
487.549
485.995
486.874
488.24
486.837
485.24
486.654
486.25
487.087
485.41
486.421
486.01
486.77
486.623
488.112
487.474
486.995
486.39
487.89
487.054
488.38
487.406
488.291
487.276
488.163
487.195
486.341
487.015
485.14
486.788
485.92
487.455
485.711
486.643
487.879
487.106
486.2
487.749
486.782
486.057
487.36
488.657
487.768
488.574
487.6
488.419
487.522
487.007
486.607
487.219
485.335
486.144
487.685
485.94
487.322
486.917
488.138
486.433
487.985
487.073
486.27
487.035
487.401
488.356
488.281
487.262
487.188
488.13
486.757
488.087
486.618
487.447
486.985
487.855
486.384
486.611
487.865
486.195
487.093
486.772
487.712
486.038
486.323
486.99
486.794
485.17
487.427
485.909
485.721
487.071
488.367
486.857
487.698
487.294
488.144
486.627
487.329
486.929
488.145
486.438
487.08
487.994
486.273
487.008
486.615
487.233
485.349
487.679
486.168
485.94
485.208
486.105
486.524
486.931
485.341
485.877
486.297
488.354
489.28
488.858
489.309
488.597
489.037
488.625
487.383
487.369
487.383
485.879
488.081
486.689
486.691
487.871
488.844
487.879
487.481
488.562
488.149
487.201
487.999
488.913
487.561
488.003
488.229
488.675
487.331
487.977
487.981
488.892
487.512
488.675
488.194
487.288
487.521
487.526
487.534
486.025
488.217
486.854
486.824
486.204
485.194
486.61
487.019
486.355
485.379
485.95
487.057
486.214
485.981
485.217
486.623
486.391
485.385
484.155
486.234
485.392
485.409
485.217
485.249
484.255
488.298
486.785
487.201
486.952
487.604
488.044
486.54
486.753
487.15
487.982
486.26
487.835
486.111
486.908
488.591
487.654
487.499
487.239
488.478
488.328
487.394
484.711
486.394
484.607
486.222
484.371
485.96
486.113
486.411
485.556
485.38
484.281
485.568
485.398
484.383
484.18
485.396
486.23
485.418
485.232
484.265
485.257
488.589
487.653
487.512
487.235
488.461
488.312
487.382
486.471
486.817
487.099
485.229
487.537
485.804
486.05
488.286
486.781
487.198
486.934
487.582
488.02
486.522
484.758
486.398
484.594
486.25
484.368
485.969
486.107
486.218
485.204
486.976
486.589
486.308
485.952
485.394
487.95
487.679
487.945
488.369
488.67
488.358
489.072
488.503
489.102
488.896
489.433
489.224
489.606
489.817
488.782
487.967
488.765
488.643
488.619
489.328
489.467
489.262
489.328
489.133
489.827
490.164
489.963
490.034
489.378
489.037
488.412
489.146
488.816
489.546
489.771
489.94
489.933
489.714
490.11
490.568
490.345
490.331
489.27
489.192
489.055
489.773
490.124
489.995
489.906
490.378
490.762
490.827
490.73
490.617
490.524
490.587
489.09
488.451
489.415
488.857
489.164
489.561
489.803
487.987
488.787
488.774
488.656
488.641
489.349
489.477
489.345
489.232
489.111
489.814
490.162
490.05
489.933
488.411
489.381
489.035
489.141
488.812
489.538
489.77
489.905
489.892
489.646
490.044
490.548
490.304
490.287
489.203
489.292
489.079
489.795
490.126
489.914
490.014
490.302
490.668
490.811
490.648
490.558
490.426
490.536
488.049
487.797
488.448
488.085
488.764
488.504
489.152
489.354
489.263
489.146
489.849
490.174
490.063
489.968
488.08
488.852
488.712
488.921
488.784
489.415
489.551
489.927
489.936
489.704
490.1
490.566
490.324
490.341
488.57
489.482
489.232
489.245
489
489.649
489.89
490.353
490.687
490.831
490.735
490.577
490.475
490.603
489.404
489.514
489.27
489.914
490.303
490.052
490.163
489.225
489.321
489.088
489.792
490.152
489.926
490.024
487.665
487.925
487.91
488.357
488.337
488.627
489.043
489.051
488.4
489.351
488.81
489.112
489.516
489.754
489.193
489.261
489.051
489.768
490.116
489.903
489.981
490.273
490.652
490.642
490.783
490.417
490.52
490.505
488.369
488.997
489.315
488.78
489.086
489.497
489.716
489.842
489.817
489.586
489.995
490.502
490.249
490.229
488.848
488.072
488.911
488.713
488.77
489.408
489.546
489.064
488.451
489.365
488.858
489.155
489.554
489.766
487.767
488
488.034
488.423
488.467
488.704
489.116
490.32
490.669
490.739
490.805
490.468
490.535
490.59
489.394
489.514
489.251
489.898
490.307
490.045
490.167
489.857
489.883
489.627
490.039
490.527
490.263
490.306
488.521
489.228
489.448
488.963
489.178
489.608
489.878
489.891
489.908
489.657
490.06
490.549
490.291
490.315
489.298
489.205
489.084
489.799
490.134
490.019
489.922
490.316
490.818
490.656
490.72
490.544
490.584
490.441
487.946
488.003
487.705
488.682
488.367
488.431
489.088
489.181
489.443
488.51
489.204
488.931
489.607
489.856
488.776
487.997
488.839
488.646
488.708
489.355
489.486
489.473
489.35
489.213
489.87
490.277
490.135
490.003
489.485
489.23
488.579
489.267
489.007
489.669
489.893
490.377
490.836
490.753
490.734
490.614
490.598
490.518
489.521
489.437
489.295
489.947
490.318
490.174
490.089
488.553
489.197
488.98
489.46
489.244
489.646
489.866
488.086
487.864
488.525
488.107
488.788
488.555
489.205
489.486
489.415
489.27
489.925
490.289
490.146
490.073
488.173
488.976
488.825
488.992
488.849
489.493
489.638
490.276
490.647
490.799
490.709
490.515
490.421
490.559
488.998
489.326
488.37
488.778
489.1
489.503
489.727
489.829
489.858
489.585
489.998
490.518
490.241
490.276
488.763
488.827
487.973
488.623
488.681
489.333
489.47
489.47
489.334
489.188
489.838
490.269
489.984
490.123
487.908
487.681
487.96
488.34
488.635
488.396
489.049
489.168
489.402
488.457
489.122
488.898
489.549
489.831
489.53
489.445
489.304
489.955
490.327
490.189
490.096
489.904
489.906
489.68
490.095
490.551
490.331
490.315
489.243
489.464
488.571
489.017
489.227
489.664
489.898
489.424
489.486
489.279
489.936
490.288
490.081
490.146
488.981
488.176
488.831
489
488.859
489.504
489.646
489.197
488.558
488.996
489.445
489.23
489.65
489.864
487.871
488.104
488.542
488.103
488.552
488.774
489.205
481.932
479.817
478.112
482.086
479.991
478.314
482.016
479.903
478.223
482.099
479.98
478.274
481.775
479.676
477.996
481.769
479.691
478.043
481.782
479.703
478.065
482.379
480.383
478.791
482.576
480.607
479.049
484.487
482.781
481.323
481.791
479.694
478.015
484.415
482.706
481.245
484.07
482.256
480.715
483.794
481.905
480.34
482.025
479.907
478.192
481.738
479.607
477.891
482.276
480.28
478.686
482.492
480.526
478.969
485.22
483.95
482.993
484.055
482.247
480.709
483.789
481.897
480.326
481.709
479.622
477.959
481.744
479.652
478.01
481.689
479.558
477.84
481.677
479.527
477.789
481.674
479.525
477.788
481.655
479.51
477.775
481.7
479.57
477.852
482.156
480.062
478.391
482.188
480.087
478.399
482.08
479.968
478.294
482.131
480.118
478.535
482.216
480.22
478.639
481.651
479.507
477.771
481.664
479.538
477.824
481.702
479.582
477.878
481.754
479.658
477.976
481.661
479.517
477.781
481.688
479.552
477.831
481.714
479.568
477.832
481.687
479.55
477.829
481.679
479.553
477.839
482.45
480.361
478.672
483.739
481.849
480.275
482.444
480.36
478.675
483.774
481.882
480.308
481.722
479.623
477.967
481.728
479.623
477.963
482.09
479.983
478.264
481.745
479.654
477.999
481.768
479.668
477.994
481.787
479.686
478.031
481.763
479.675
478.035
481.745
479.655
478.015
482.149
480.133
478.548
482.252
480.257
478.693
481.783
479.697
478.046
481.811
479.724
478.081
482.571
480.602
479.05
484.046
482.339
480.919
483.803
482.027
480.591
484.078
482.37
480.95
483.826
482.048
480.608
485.322
484.045
483.09
485.34
484.06
483.1
483.73
481.832
480.256
482.365
480.28
478.594
483.797
481.907
480.345
482.287
480.184
478.476
482.484
480.402
478.719
481.63
479.487
477.748
481.794
479.679
477.998
482.129
480.005
478.289
481.717
479.569
477.837
481.652
479.528
477.814
482.107
480.089
478.503
482.28
480.288
478.737
482.239
480.21
478.595
481.74
479.609
477.894
482.494
480.53
478.979
484.021
482.314
480.892
483.784
482.003
480.564
484.439
482.816
481.459
484.417
482.797
481.445
483.732
481.944
480.516
483.906
482.164
480.732
484.418
482.781
481.423
482.387
480.392
478.803
482.577
480.61
479.05
484.082
482.372
480.954
483.831
482.056
480.622
485.21
483.948
483.006
485.219
483.952
483
485.322
484.043
483.084
485.34
484.059
483.096
483.694
481.796
480.22
482.352
480.27
478.584
483.725
481.832
480.288
483.708
481.814
480.254
482.279
480.177
478.473
482.468
480.385
478.699
481.631
479.487
477.749
481.985
479.876
478.185
482.057
479.948
478.265
481.784
479.671
477.997
481.717
479.569
477.836
481.648
479.524
477.809
482.228
480.197
478.575
481.81
479.71
478.048
482.112
480.09
478.506
482.31
480.311
478.746
482.176
480.152
478.557
483.981
482.274
480.85
483.737
481.961
480.525
484.433
482.813
481.461
484.408
482.772
481.414
484.417
482.799
481.453
483.743
481.959
480.532
483.927
482.192
480.769
483.714
481.93
480.498
482.584
480.617
479.068
483.84
482.067
480.633
485.21
483.946
482.998
483.762
481.867
480.295
482.235
480.135
478.431
482.46
480.374
478.684
482.263
480.164
478.459
482.473
480.39
478.712
481.733
479.623
477.959
481.71
479.607
477.927
481.728
479.62
477.962
481.748
479.648
477.972
481.769
479.67
478.013
481.769
479.67
477.996
481.772
479.67
478.01
481.677
479.594
477.93
481.715
479.629
477.986
482.213
480.221
478.657
481.801
479.716
478.077
481.792
479.707
478.061
484.078
482.373
480.96
483.82
482.043
480.604
482.351
480.355
478.762
482.563
480.595
479.046
483.814
482.038
480.603
482.572
480.604
479.05
481.75
479.63
477.933
481.854
479.746
478.119
481.678
479.601
477.995
481.559
479.473
477.802
481.731
479.61
477.901
481.85
479.743
478.118
481.689
479.575
477.889
481.671
479.558
477.875
481.671
479.576
477.911
481.843
479.786
478.206
481.845
479.791
478.168
481.903
479.855
478.285
481.735
479.623
477.936
481.838
479.734
478.12
481.567
479.471
477.799
481.703
479.61
478
481.664
479.535
477.807
481.608
479.493
477.778
481.719
479.6
477.896
481.768
479.675
477.997
481.717
479.618
477.951
481.81
479.761
478.191
481.856
479.807
478.192
481.902
479.86
478.293
482.28
480.183
478.508
481.974
479.862
478.198
482.248
480.152
478.482
481.994
479.881
478.223
482.065
480.024
478.436
482.325
480.329
478.779
481.71
479.599
477.915
481.835
479.731
478.106
481.729
479.632
478.015
481.561
479.466
477.795
481.68
479.55
477.819
481.618
479.502
477.787
481.714
479.637
477.968
481.628
479.528
477.834
481.882
479.842
478.272
481.788
479.752
478.154
481.912
479.88
478.325
482.196
480.104
478.427
481.908
479.786
478.116
482.137
480.038
478.363
482.3
480.212
478.527
481.902
479.783
478.079
481.998
479.89
478.225
481.873
479.757
478.06
481.836
479.753
478.062
481.879
479.8
478.14
481.862
479.801
478.189
481.824
479.762
478.131
482
479.95
478.368
481.931
479.875
478.243
481.915
479.854
478.227
481.848
479.769
478.123
482.708
480.756
479.199
482.774
480.834
479.31
482.92
481.004
479.476
482.64
480.681
479.132
482.471
480.495
478.941
482.533
480.565
479.011
482.338
480.348
478.782
482.452
480.472
478.944
482.763
480.822
479.259
483.009
481.1
479.566
483.048
481.142
479.606
483.856
482.008