/*--------------------------------*- C++ -*----------------------------------*\
| =========                 |                                                 |
| \\      /  F ield         | OpenFOAM: The Open Source CFD Toolbox           |
|  \\    /   O peration     | Version:  v1906                                 |
|   \\  /    A nd           | Web:      www.OpenFOAM.com                      |
|    \\/     M anipulation  |                                                 |
\*---------------------------------------------------------------------------*/
FoamFile
{
    version     2.0;
    format      ascii;
    class       surfaceScalarField;
    location    "76.8/oil";
    object      phi;
}
// * * * * * * * * * * * * * * * * * * * * * * * * * * * * * * * * * * * * * //

dimensions      [1 0 -1 0 0 0 0];
oriented        oriented;


internalField   nonuniform List<scalar> 
80688
(
-2.12255e-06
-2.15838e-06
-2.12255e-06
-9.57475e-07
-6.02599e-07
-5.62481e-07
-2.56857e-07
-3.52978e-07
-3.47639e-07
-1.20498e-07
-6.8851e-08
-6.75086e-08
-3.9338e-08
-4.10246e-08
-4.01349e-08
1.42032e-09
-2.05709e-08
-2.01873e-08
2.42218e-08
-1.13175e-08
-1.14839e-08
3.70188e-08
-6.11343e-09
-6.68352e-09
4.32377e-08
-2.7253e-09
-3.49359e-09
4.43519e-08
-1.87734e-10
-9.26322e-10
4.11449e-08
1.91202e-09
1.29499e-09
3.42648e-08
3.64257e-09
3.23754e-09
2.44241e-08
5.00441e-09
4.83638e-09
1.24773e-08
5.95981e-09
5.98698e-09
-5.88739e-10
6.46471e-09
6.60135e-09
-1.37199e-08
6.4967e-09
6.63446e-09
-2.58767e-08
6.06319e-09
6.09364e-09
-3.6123e-08
5.20456e-09
5.04179e-09
-4.37117e-08
3.99354e-09
3.59515e-09
-4.81428e-08
2.52245e-09
1.90867e-09
-4.92103e-08
8.95743e-10
1.71783e-10
-4.69891e-08
-7.52211e-10
-1.46897e-09
-4.18744e-08
-2.3094e-09
-2.80525e-09
-3.45156e-08
-3.67963e-09
-3.67921e-09
-2.57978e-08
-4.73392e-09
-3.98385e-09
-1.67967e-08
-5.32693e-09
-3.67419e-09
-8.71224e-09
-5.26977e-09
-2.81462e-09
-2.74615e-09
-4.33005e-09
-1.63602e-09
1.68233e-10
-2.2912e-09
-6.23149e-10
3.31578e-10
-1.63327e-10
-5.7029e-07
-1.01781e-06
-5.70283e-07
-3.37218e-07
-3.79571e-07
-4.56099e-07
-2.33016e-07
-2.63515e-07
-1.93665e-07
-9.97643e-08
-1.25904e-07
-7.6198e-08
-1.96279e-08
-8.41596e-08
-3.70012e-08
3.05814e-08
-5.78486e-08
-1.29316e-08
6.31533e-08
-4.39944e-08
1.05159e-10
8.31316e-08
-3.46267e-08
8.53503e-09
9.28981e-08
-2.74334e-08
1.49416e-08
9.35983e-08
-2.12883e-08
2.04004e-08
8.60953e-08
-1.5859e-08
2.52742e-08
7.13631e-08
-1.11676e-08
2.95423e-08
5.0714e-08
-7.37221e-09
3.30257e-08
2.58292e-08
-4.67674e-09
3.55215e-08
-1.31647e-09
-3.24207e-09
3.68525e-08
-2.85916e-08
-3.15402e-09
3.69258e-08
-5.38888e-08
-4.39529e-09
3.57557e-08
-7.53124e-08
-6.84e-09
3.34682e-08
-9.13454e-08
-1.02649e-08
3.02915e-08
-1.00976e-07
-1.43671e-08
2.65197e-08
-1.03782e-07
-1.87975e-08
2.24997e-08
-9.99436e-08
-2.31706e-08
1.858e-08
-9.02272e-08
-2.71005e-08
1.50747e-08
-7.59352e-08
-3.0194e-08
1.22225e-08
-5.8802e-08
-3.20357e-08
1.01686e-08
-4.0869e-08
-3.21618e-08
8.90188e-09
-2.43037e-08
-3.00336e-08
8.19844e-09
-1.11325e-08
-2.50495e-08
7.54835e-09
-2.84617e-09
-1.66502e-08
6.07267e-09
-5.36807e-09
2.8535e-09
-3.52871e-07
-3.12074e-07
-3.52863e-07
-2.28182e-07
-3.09264e-07
-1.94997e-07
-1.39264e-07
-2.36724e-07
-1.15708e-07
-4.95407e-08
-1.64477e-07
-5.11509e-08
1.52171e-08
-1.32069e-07
-1.68489e-08
6.29232e-08
-1.1021e-07
4.6551e-09
9.66565e-08
-9.59114e-08
1.81837e-08
1.18254e-07
-8.42981e-08
2.80742e-08
1.28481e-07
-7.38847e-08
3.62238e-08
1.27768e-07
-6.40579e-08
4.34834e-08
1.16716e-07
-5.48671e-08
5.00599e-08
9.63609e-08
-4.66604e-08
5.58478e-08
6.83205e-08
-3.99044e-08
6.05727e-08
3.47437e-08
-3.50555e-08
6.39555e-08
-1.7883e-09
-3.24659e-08
6.57559e-08
-3.84784e-08
-3.23165e-08
6.58526e-08
-7.25542e-08
-3.45814e-08
6.4262e-08
-1.01516e-07
-3.90223e-08
6.11436e-08
-1.2337e-07
-4.5203e-08
5.67921e-08
-1.36782e-07
-5.2538e-08
5.15835e-08
-1.41203e-07
-6.03356e-08
4.59586e-08
-1.36861e-07
-6.78453e-08
4.03331e-08
-1.24757e-07
-7.42974e-08
3.50928e-08
-1.06542e-07
-7.89086e-08
3.05003e-08
-8.43935e-08
-8.08703e-08
2.66856e-08
-6.08179e-08
-7.93146e-08
2.35773e-08
-3.84013e-08
-7.32875e-08
2.08373e-08
-1.95197e-08
-6.17205e-08
1.77895e-08
-6.08307e-09
-4.34265e-08
1.33397e-08
-1.75424e-08
6.09128e-09
-6.36015e-08
-1.8488e-07
-6.35923e-08
-7.63751e-08
-2.27005e-07
-6.94856e-08
-4.3832e-08
-2.22594e-07
-4.66738e-08
7.6489e-09
-2.01301e-07
-1.4656e-08
5.57999e-08
-1.87642e-07
7.42224e-09
9.68025e-08
-1.74918e-07
2.37059e-08
1.28236e-07
-1.63279e-07
3.59345e-08
1.48975e-07
-1.51137e-07
4.60993e-08
1.58194e-07
-1.38318e-07
5.52144e-08
1.55511e-07
-1.25079e-07
6.37041e-08
1.41166e-07
-1.12072e-07
7.155e-08
1.16135e-07
-1.0014e-07
7.85109e-08
8.21829e-08
-9.01673e-08
8.42146e-08
4.17809e-08
-8.29556e-08
8.83023e-08
-2.06735e-09
-7.90935e-08
9.04758e-08
-4.60762e-08
-7.88901e-08
9.05825e-08
-8.69822e-08
-8.23143e-08
8.8639e-08
-1.21846e-07
-8.89944e-08
8.48353e-08
-1.48314e-07
-9.8248e-08
7.95137e-08
-1.64832e-07
-1.09142e-07
7.31215e-08
-1.70744e-07
-1.20581e-07
6.61576e-08
-1.66325e-07
-1.31376e-07
5.91114e-08
-1.52707e-07
-1.40313e-07
5.23983e-08
-1.31769e-07
-1.46149e-07
4.63028e-08
-1.05943e-07
-1.47638e-07
4.09407e-08
-7.79936e-08
-1.4346e-07
3.61964e-08
-5.07667e-08
-1.32175e-07
3.16609e-08
-2.69186e-08
-1.12114e-07
2.65451e-08
-8.89493e-09
-8.10301e-08
1.958e-08
-3.5341e-08
8.90373e-09
-2.83412e-08
-1.28208e-07
-2.8331e-08
-2.26946e-08
-2.08982e-07
-2.36695e-08
6.33309e-09
-2.43785e-07
-7.8363e-09
4.75215e-08
-2.53833e-07
1.13435e-08
8.93234e-08
-2.5639e-07
2.69469e-08
1.26987e-07
-2.52588e-07
4.00059e-08
1.56908e-07
-2.44455e-07
5.12549e-08
1.76718e-07
-2.32556e-07
6.16096e-08
1.84742e-07
-2.17868e-07
7.15267e-08
1.80074e-07
-2.01515e-07
8.11034e-08
1.62675e-07
-1.84799e-07
9.01258e-08
1.33472e-07
-1.69134e-07
9.81981e-08
9.43357e-08
-1.55886e-07
1.04855e-07
4.79917e-08
-1.46241e-07
1.09629e-07
-2.19712e-09
-1.41071e-07
1.12167e-07
-5.25355e-08
-1.40828e-07
1.12276e-07
-9.93393e-08
-1.4548e-07
1.09969e-07
-1.39294e-07
-1.5451e-07
1.0547e-07
-1.69753e-07
-1.66964e-07
9.91746e-08
-1.88972e-07
-1.81528e-07
9.16052e-08
-1.96221e-07
-1.96671e-07
8.33391e-08
-1.91798e-07
-2.10726e-07
7.49271e-08
-1.76953e-07
-2.21979e-07
6.68211e-08
-1.53724e-07
-2.2872e-07
5.93423e-08
-1.24736e-07
-2.29227e-07
5.26009e-08
-9.29583e-08
-2.21691e-07
4.64541e-08
-6.1456e-08
-2.04116e-07
4.04382e-08
-3.32021e-08
-1.74028e-07
3.36607e-08
-1.12097e-08
-1.27704e-07
2.46818e-08
-5.77699e-08
1.12192e-08
-4.4672e-09
-1.19285e-07
-4.45579e-09
1.0748e-08
-2.28696e-07
4.49896e-09
3.99168e-08
-2.89672e-07
1.6718e-08
7.78625e-08
-3.21818e-07
3.00391e-08
1.17393e-07
-3.38079e-07
4.21579e-08
1.53798e-07
-3.42431e-07
5.34379e-08
1.83126e-07
-3.38045e-07
6.4263e-08
2.02391e-07
-3.26852e-07
7.50312e-08
2.09419e-07
-3.10762e-07
8.58664e-08
2.02942e-07
-2.91668e-07
9.66302e-08
1.8273e-07
-2.71523e-07
1.06936e-07
1.49665e-07
-2.52309e-07
1.1624e-07
1.05718e-07
-2.35892e-07
1.23953e-07
5.38597e-08
-2.23879e-07
1.29496e-07
-2.21277e-09
-2.17434e-07
1.32436e-07
-5.84131e-08
-2.17167e-07
1.3254e-07
-1.10664e-07
-2.23049e-07
1.2982e-07
-1.55291e-07
-2.34412e-07
1.2453e-07
-1.89379e-07
-2.50014e-07
1.17138e-07
-2.11016e-07
-2.68152e-07
1.08261e-07
-2.19414e-07
-2.86842e-07
9.8569e-08
-2.14904e-07
-3.03916e-07
8.86799e-08
-1.98848e-07
-3.17176e-07
7.9141e-08
-1.73436e-07
-3.24419e-07
7.02861e-08
-1.41475e-07
-3.23428e-07
6.22403e-08
-1.06133e-07
-3.11875e-07
5.48414e-08
-7.07167e-08
-2.87111e-07
4.75792e-08
-3.85233e-08
-2.45683e-07
3.94614e-08
-1.31122e-08
-1.81977e-07
2.88612e-08
-8.40047e-08
1.31226e-08
6.32593e-09
-1.3195e-07
6.33857e-09
2.83197e-08
-2.70273e-07
1.95835e-08
6.091e-08
-3.53817e-07
3.15555e-08
9.99428e-08
-4.03792e-07
4.29414e-08
1.40123e-07
-4.31975e-07
5.37153e-08
1.77081e-07
-4.4381e-07
6.44212e-08
2.06846e-07
-4.43247e-07
7.54367e-08
2.26168e-07
-4.33147e-07
8.69731e-08
2.32594e-07
-4.16165e-07
9.89766e-08
2.24612e-07
-3.94831e-07
1.11145e-07
2.01852e-07
-3.71708e-07
1.22945e-07
1.65178e-07
-3.49318e-07
1.33683e-07
1.1668e-07
-3.30013e-07
1.42619e-07
5.95568e-08
-3.15816e-07
1.4906e-07
-2.14792e-09
-3.082e-07
1.52471e-07
-6.39563e-08
-3.07924e-07
1.52565e-07
-1.21395e-07
-3.14964e-07
1.49354e-07
-1.70437e-07
-3.28509e-07
1.43138e-07
-2.07899e-07
-3.47027e-07
1.34476e-07
-2.31714e-07
-3.68424e-07
1.24087e-07
-2.41053e-07
-3.90262e-07
1.12759e-07
-2.36303e-07
-4.09902e-07
1.01235e-07
-2.18952e-07
-4.24653e-07
9.01269e-08
-1.91353e-07
-4.31841e-07
7.98236e-08
-1.56509e-07
-4.28745e-07
7.04725e-08
-1.17799e-07
-4.12478e-07
6.18927e-08
-7.87795e-08
-3.79655e-07
5.35242e-08
-4.30717e-08
-3.25671e-07
4.42803e-08
-1.47049e-08
-2.42692e-07
3.23485e-08
-1.13426e-07
1.47165e-08
1.19128e-08
-1.55789e-07
1.19265e-08
3.89393e-08
-3.25725e-07
2.84254e-08
7.52217e-08
-4.31179e-07
4.10792e-08
1.16674e-07
-4.97358e-07
5.21132e-08
1.58737e-07
-5.36689e-07
6.26521e-08
1.97193e-07
-5.55796e-07
7.35308e-08
2.28056e-07
-5.59322e-07
8.5212e-08
2.47933e-07
-5.50877e-07
9.78541e-08
2.54134e-07
-5.33668e-07
1.11302e-07
2.44985e-07
-5.10803e-07
1.25121e-07
2.19984e-07
-4.85354e-07
1.38648e-07
1.79987e-07
-4.60368e-07
1.51047e-07
1.27195e-07
-4.38637e-07
1.61415e-07
6.50627e-08
-4.22581e-07
1.68897e-07
-2.03149e-09
-4.13954e-07
1.72848e-07
-6.9207e-08
-4.13682e-07
1.72933e-07
-1.31586e-07
-4.21743e-07
1.69158e-07
-1.84784e-07
-4.3718e-07
1.61869e-07
-2.25359e-07
-4.58178e-07
1.51726e-07
-2.51099e-07
-4.82289e-07
1.39604e-07
-2.6116e-07
-5.06634e-07
1.26433e-07
-2.56013e-07
-5.28127e-07
1.13078e-07
-2.37278e-07
-5.43624e-07
1.00236e-07
-2.07503e-07
-5.4999e-07
8.83734e-08
-1.69895e-07
-5.44022e-07
7.76694e-08
-1.28052e-07
-5.22254e-07
6.79327e-08
-8.57682e-08
-4.80486e-07
5.85472e-08
-4.69614e-08
-4.12803e-07
4.8325e-08
-1.60537e-08
-3.08877e-07
3.52773e-08
-1.45546e-07
1.60664e-08
1.50283e-08
-1.8586e-07
1.50428e-08
4.56541e-08
-3.90236e-07
3.38852e-08
8.52128e-08
-5.18164e-07
4.74263e-08
1.29338e-07
-6.00237e-07
5.87539e-08
1.73687e-07
-6.5066e-07
6.9621e-08
2.1404e-07
-6.77265e-07
8.11168e-08
2.46367e-07
-6.8544e-07
9.37898e-08
2.67122e-07
-6.79418e-07
1.07785e-07
2.73449e-07
-6.62908e-07
1.22913e-07
2.63476e-07
-6.39457e-07
1.38627e-07
2.36621e-07
-6.12616e-07
1.54116e-07
1.93686e-07
-5.85821e-07
1.68389e-07
1.36986e-07
-5.62286e-07
1.80349e-07
7.0217e-08
-5.44797e-07
1.88985e-07
-1.8885e-09
-5.35396e-07
1.93548e-07
-7.40536e-08
-5.35138e-07
1.93621e-07
-1.40996e-07
-5.44008e-07
1.89207e-07
-1.97987e-07
-5.60909e-07
1.80721e-07
-2.41327e-07
-5.83786e-07
1.68949e-07
-2.68687e-07
-6.0983e-07
1.54902e-07
-2.79228e-07
-6.35756e-07
1.39663e-07
-2.73526e-07
-6.5811e-07
1.24282e-07
-2.53366e-07
-6.73349e-07
1.09565e-07
-2.21511e-07
-6.77904e-07
9.60603e-08
-1.81366e-07
-6.68121e-07
8.39541e-08
-1.36735e-07
-6.3994e-07
7.3055e-08
-9.16266e-08
-5.88323e-07
6.27286e-08
-5.01964e-08
-5.05895e-07
5.16625e-08
-1.71707e-08
-3.79589e-07
3.76861e-08
-1.79901e-07
1.71844e-08
1.68684e-08
-2.19612e-07
1.68834e-08
4.99941e-08
-4.60681e-07
3.7319e-08
9.21059e-08
-6.11891e-07
5.16155e-08
1.3856e-07
-7.10117e-07
6.34258e-08
1.85001e-07
-7.71972e-07
7.48716e-08
2.27186e-07
-8.06654e-07
8.72034e-08
2.61038e-07
-8.20353e-07
1.01062e-07
2.82821e-07
-8.17806e-07
1.16605e-07
2.89542e-07
-8.03198e-07
1.33569e-07
2.79152e-07
-7.80418e-07
1.51351e-07
2.50892e-07
-7.53343e-07
1.68987e-07
2.05552e-07
-7.25775e-07
1.85294e-07
1.45534e-07
-7.01271e-07
1.99003e-07
7.47499e-08
-6.82941e-07
2.08927e-07
-1.73831e-09
-6.73052e-07
2.14144e-07
-7.8268e-08
-6.72813e-07
2.14205e-07
-1.49175e-07
-6.82214e-07
2.09113e-07
-2.09389e-07
-7.00019e-07
1.99324e-07
-2.54984e-07
-7.23941e-07
1.8575e-07
-2.83556e-07
-7.50863e-07
1.69604e-07
-2.94289e-07
-7.77198e-07
1.52175e-07
-2.87901e-07
-7.9913e-07
1.34632e-07
-2.66376e-07
-8.12801e-07
1.17927e-07
-2.32659e-07
-8.14312e-07
1.0269e-07
-1.90357e-07
-7.99584e-07
8.9161e-08
-1.43448e-07
-7.64004e-07
7.71554e-08
-9.61203e-08
-7.01601e-07
6.59504e-08
-5.26715e-08
-6.0351e-07
5.41661e-08
-1.80298e-08
-4.53735e-07
3.95049e-08
-2.15975e-07
1.80444e-08
1.79037e-08
-2.55433e-07
1.7918e-08
5.25357e-08
-5.34597e-07
3.92847e-08
9.62548e-08
-7.09711e-07
5.41008e-08
1.44263e-07
-8.24475e-07
6.63495e-08
1.92206e-07
-8.98295e-07
7.83805e-08
2.35821e-07
-9.41872e-07
9.16035e-08
2.70943e-07
-9.6219e-07
1.06716e-07
2.93755e-07
-9.64488e-07
1.2387e-07
3.01073e-07
-9.53285e-07
1.42769e-07
2.90662e-07
-9.3272e-07
1.62713e-07
2.61612e-07
-9.06884e-07
1.82592e-07
2.14636e-07
-8.79855e-07
2.01056e-07
1.52168e-07
-8.55421e-07
2.16619e-07
7.83076e-08
-8.36976e-07
2.27895e-07
-1.5964e-09
-8.26962e-07
2.33814e-07
-8.15254e-08
-8.26745e-07
2.33861e-07
-1.55465e-07
-8.36303e-07
2.28028e-07
-2.18038e-07
-8.54304e-07
2.16858e-07
-2.65165e-07
-8.78234e-07
2.0142e-07
-2.94394e-07
-9.04725e-07
1.8309e-07
-3.04959e-07
-9.29973e-07
1.6334e-07
-2.97779e-07
-9.49868e-07
1.43558e-07
-2.75037e-07
-9.60386e-07
1.24843e-07
-2.39856e-07
-9.57373e-07
1.07881e-07
-1.96003e-07
-9.364e-07
9.29631e-08
-1.47586e-07
-8.92328e-07
7.99065e-08
-9.88443e-08
-8.18315e-07
6.79728e-08
-5.41666e-08
-7.03872e-07
5.56836e-08
-1.85634e-08
-5.29928e-07
4.05897e-08
-2.53117e-07
1.85785e-08
1.82676e-08
-2.91983e-07
1.82816e-08
5.33568e-08
-6.09575e-07
3.98892e-08
9.7537e-08
-8.0874e-07
5.48487e-08
1.46e-07
-9.40295e-07
6.7357e-08
1.94484e-07
-1.02668e-06
7.98993e-08
2.38742e-07
-1.08007e-06
9.39443e-08
2.74625e-07
-1.1083e-06
1.10222e-07
2.98273e-07
-1.11707e-06
1.28932e-07
3.06312e-07
-1.11105e-06
1.49728e-07
2.96363e-07
-1.0946e-06
1.7183e-07
2.67333e-07
-1.07186e-06
1.94003e-07
2.19747e-07
-1.04697e-06
2.14706e-07
1.56069e-07
-1.02396e-06
2.32218e-07
8.04609e-08
-1.0063e-06
2.44935e-07
-1.47029e-09
-9.96648e-07
2.51618e-07
-8.34142e-08
-9.96457e-07
2.51656e-07
-1.59051e-07
-1.00572e-06
2.45056e-07
-2.22803e-07
-1.02297e-06
2.3242e-07
-2.70445e-07
-1.04557e-06
2.14976e-07
-2.99541e-07
-1.06999e-06
1.9436e-07
-3.09543e-07
-1.09225e-06
1.72276e-07
-3.015e-07
-1.10821e-06
1.50299e-07
-2.77803e-07
-1.11372e-06
1.29636e-07
-2.4176e-07
-1.10447e-06
1.11052e-07
-1.9722e-07
-1.07583e-06
9.48885e-08
-1.48301e-07
-1.02218e-06
8.09325e-08
-9.92561e-08
-9.35782e-07
6.84231e-08
-5.44045e-08
-8.04579e-07
5.58555e-08
-1.86602e-08
-6.06368e-07
4.06957e-08
-2.90453e-07
1.86752e-08
1.79625e-08
-3.27923e-07
1.79775e-08
5.2326e-08
-6.8303e-07
3.90913e-08
9.55361e-08
-9.05689e-07
5.37389e-08
1.43024e-07
-1.05396e-06
6.61816e-08
1.90675e-07
-1.15329e-06
7.89636e-08
2.34459e-07
-1.21745e-06
9.35962e-08
2.70329e-07
-1.25498e-06
1.10812e-07
2.94408e-07
-1.272e-06
1.30852e-07
3.03272e-07
-1.27328e-06
1.53362e-07
2.94336e-07
-1.26316e-06
1.77496e-07
2.66286e-07
-1.24573e-06
2.01919e-07
2.1948e-07
-1.22502e-06
2.24851e-07
1.56227e-07
-1.20506e-06
2.4435e-07
8.0695e-08
-1.18934e-06
2.58572e-07
-1.36729e-09
-1.18065e-06
2.66067e-07
-8.34327e-08
-1.18048e-06
2.66091e-07
-1.58978e-07
-1.18882e-06
2.58646e-07
-2.22237e-07
-1.20419e-06
2.44477e-07
-2.69023e-07
-1.2238e-06
2.25021e-07
-2.97061e-07
-1.24411e-06
2.02158e-07
-3.05969e-07
-1.26117e-06
1.77835e-07
-2.97039e-07
-1.27093e-06
1.53794e-07
-2.72836e-07
-1.26927e-06
1.3135e-07
-2.36776e-07
-1.25192e-06
1.11394e-07
-1.92686e-07
-1.21415e-06
9.42326e-08
-1.44649e-07
-1.14987e-06
7.96541e-08
-9.67166e-08
-1.05061e-06
6.68903e-08
-5.29937e-08
-9.02695e-07
5.4394e-08
-1.82084e-08
-6.80759e-07
3.96052e-08
-3.26884e-07
1.82232e-08
1.69073e-08
-3.61743e-07
1.69133e-08
4.91382e-08
-7.51921e-07
3.66595e-08
8.96977e-08
-9.9666e-07
5.04119e-08
1.34396e-07
-1.16104e-06
6.23757e-08
1.79539e-07
-1.27345e-06
7.5013e-08
2.2138e-07
-1.34911e-06
8.98177e-08
2.5612e-07
-1.39731e-06
1.07594e-07
2.80012e-07
-1.42444e-06
1.2855e-07
2.89656e-07
-1.4353e-06
1.5238e-07
2.82326e-07
-1.43402e-06
1.78186e-07
2.56476e-07
-1.42442e-06
2.04542e-07
2.12187e-07
-1.41031e-06
2.29579e-07
1.51477e-07
-1.39545e-06
2.51097e-07
7.84139e-08
-1.38319e-06
2.6691e-07
-1.28651e-09
-1.37624e-06
2.75287e-07
-8.09802e-08
-1.37609e-06
2.753e-07
-1.54014e-07
-1.38274e-06
2.66953e-07
-2.1469e-07
-1.39469e-06
2.51171e-07
-2.58938e-07
-1.40926e-06
2.29709e-07
-2.84727e-07
-1.42304e-06
2.04723e-07
-2.91956e-07
-1.43233e-06
1.78383e-07
-2.82189e-07
-1.43335e-06
1.52647e-07
-2.58123e-07
-1.42223e-06
1.28893e-07
-2.23167e-07
-1.39487e-06
1.07993e-07
-1.81061e-07
-1.34653e-06
9.02775e-08
-1.35603e-07
-1.27083e-06
7.55052e-08
-9.05237e-08
-1.15853e-06
6.28502e-08
-4.9597e-08
-9.94468e-07
5.08464e-08
-1.70587e-08
-7.50292e-07
3.6995e-08
-3.61016e-07
1.70726e-08
1.49935e-08
-3.91737e-07
1.50003e-08
4.3483e-08
-8.12791e-07
3.23811e-08
7.94352e-08
-1.07721e-06
4.45958e-08
1.19249e-07
-1.25638e-06
5.55226e-08
1.5979e-07
-1.38146e-06
6.74742e-08
1.97827e-07
-1.46903e-06
8.1875e-08
2.29982e-07
-1.52897e-06
9.95034e-08
2.52803e-07
-1.56786e-06
1.206e-07
2.63042e-07
-1.59046e-06
1.44922e-07
2.57894e-07
-1.60054e-06
1.71668e-07
2.3558e-07
-1.60149e-06
1.99381e-07
1.95878e-07
-1.59664e-06
2.26037e-07
1.404e-07
-1.58917e-06
2.49199e-07
7.28617e-08
-1.5821e-06
2.66452e-07
-1.22802e-09
-1.57782e-06
2.75672e-07
-7.53028e-08
-1.57769e-06
2.75675e-07
-1.42805e-07
-1.58171e-06
2.66466e-07
-1.98217e-07
-1.5885e-06
2.49227e-07
-2.37838e-07
-1.59571e-06
2.26069e-07
-2.60018e-07
-1.60031e-06
1.9945e-07
-2.65011e-07
-1.59915e-06
1.71811e-07
-2.54629e-07
-1.58885e-06
1.45118e-07
-2.31631e-07
-1.56605e-06
1.20819e-07
-1.99233e-07
-1.52703e-06
9.97656e-08
-1.60951e-07
-1.46699e-06
8.21707e-08
-1.20118e-07
-1.37946e-06
6.77899e-08
-8.00296e-08
-1.25446e-06
5.58354e-08
-4.38144e-08
-1.07557e-06
4.48822e-08
-1.50948e-08
-8.11615e-07
3.26038e-08
-3.91218e-07
1.51079e-08
1.21381e-08
-4.16017e-07
1.21419e-08
3.51633e-08
-8.61894e-07
2.6078e-08
6.42703e-08
-1.14231e-06
3.59928e-08
9.68075e-08
-1.33414e-06
4.52241e-08
1.30365e-07
-1.4708e-06
5.57822e-08
1.62411e-07
-1.57001e-06
6.89373e-08
1.90185e-07
-1.64217e-06
8.54246e-08
2.10733e-07
-1.69398e-06
1.05567e-07
2.21084e-07
-1.72999e-06
1.29176e-07
2.18564e-07
-1.75354e-06
1.55518e-07
2.01273e-07
-1.76741e-06
1.83221e-07
1.68526e-07
-1.77424e-06
2.10347e-07
1.21457e-07
-1.77643e-06
2.34332e-07
6.32198e-08
-1.7763e-06
2.52438e-07
-1.18551e-09
-1.77564e-06
2.62226e-07
-6.55684e-08
-1.77553e-06
2.62222e-07
-1.23744e-07
-1.77596e-06
2.52434e-07
-1.70711e-07
-1.77586e-06
2.3433e-07
-2.03354e-07
-1.77344e-06
2.10374e-07
-2.20507e-07
-1.76644e-06
1.83275e-07
-2.22888e-07
-1.75234e-06
1.55577e-07
-2.12353e-07
-1.72865e-06
1.29269e-07
-1.91578e-07
-1.69252e-06
1.05693e-07
-1.63606e-07
-1.64059e-06
8.55823e-08
-1.31309e-07
-1.5684e-06
6.91207e-08
-9.75131e-08
-1.46924e-06
5.59828e-08
-6.47123e-08
-1.33269e-06
4.54267e-08
-3.53753e-08
-1.14108e-06
3.61806e-08
-1.22051e-08
-8.61013e-07
2.62277e-08
-4.1564e-07
1.22171e-08
8.30068e-09
-4.32624e-07
8.30641e-09
2.39941e-08
-8.95263e-07
1.76757e-08
4.40295e-08
-1.18685e-06
2.45118e-08
6.67671e-08
-1.38819e-06
3.13144e-08
9.08021e-08
-1.53447e-06
3.96363e-08
1.14427e-07
-1.64415e-06
5.05195e-08
1.35727e-07
-1.72803e-06
6.45601e-08
1.52456e-07
-1.7928e-06
8.20952e-08
1.62181e-07
-1.84278e-06
1.03068e-07
1.62513e-07
-1.88082e-06
1.26949e-07
1.51526e-07
-1.909e-06
1.52575e-07
1.28244e-07
-1.92904e-06
1.78075e-07
9.31773e-08
-1.94236e-06
2.00992e-07
4.86657e-08
-1.95035e-06
2.18557e-07
-1.15606e-09
-1.95396e-06
2.28137e-07
-5.09553e-08
-1.95388e-06
2.28151e-07
-9.54119e-08
-1.95006e-06
2.18557e-07
-1.30356e-07
-1.94188e-06
2.0096e-07
-1.53495e-07
-1.92835e-06
1.78043e-07
-1.64318e-07
-1.90817e-06
1.52556e-07
-1.63802e-07
-1.87981e-06
1.26947e-07
-1.5388e-07
-1.84166e-06
1.0309e-07
-1.36939e-07
-1.7916e-06
8.21451e-08
-1.15419e-07
-1.72674e-06
6.46362e-08
-9.15577e-08
-1.64288e-06
5.0618e-08
-6.73123e-08
-1.53323e-06
3.97509e-08
-4.43668e-08
-1.38707e-06
3.14362e-08
-2.41575e-08
-1.18592e-06
2.46288e-08
-8.34971e-09
-8.94595e-07
1.77743e-08
-4.32351e-07
8.36083e-09
3.53015e-09
-4.39679e-07
3.52488e-09
1.01642e-08
-9.09177e-07
7.27996e-09
1.89374e-08
-1.20587e-06
1.02453e-08
2.94887e-08
-1.41262e-06
1.3883e-08
4.14372e-08
-1.56549e-06
1.90683e-08
5.42084e-08
-1.6834e-06
2.64707e-08
6.6838e-08
-1.77725e-06
3.65987e-08
7.80418e-08
-1.85368e-06
4.96784e-08
8.61441e-08
-1.91665e-06
6.57668e-08
8.92638e-08
-1.96846e-06
8.45271e-08
8.57253e-08
-2.01054e-06
1.05075e-07
7.42946e-08
-2.0436e-06
1.25996e-07
5.4916e-08
-2.06812e-06
1.45148e-07
2.883e-08
-2.08435e-06
1.60084e-07
-1.1351e-09
-2.09238e-06
1.68384e-07
-3.1073e-08
-2.09231e-06
1.6837e-07
-5.70857e-08
-2.08409e-06
1.60044e-07
-7.63406e-08
-2.06771e-06
1.4509e-07
-8.76031e-08
-2.04304e-06
1.25957e-07
-9.09761e-08
-2.00983e-06
1.05035e-07
-8.76414e-08
-1.96762e-06
8.44762e-08
-7.93298e-08
-1.91571e-06
6.57342e-08
-6.79228e-08
-1.85268e-06
4.96695e-08
-5.5061e-08
-1.77622e-06
3.66123e-08
-4.21001e-08
-1.68235e-06
2.65041e-08
-2.99364e-08
-1.56452e-06
1.912e-08
-1.92044e-08
-1.41175e-06
1.39467e-08
-1.03024e-08
-1.20514e-06
1.03158e-08
-3.55499e-09
-9.08688e-07
7.34526e-09
-4.39471e-07
3.56551e-09
-2.03103e-09
-4.35613e-07
-2.03451e-09
-5.87813e-09
-9.00575e-07
-4.75551e-09
-1.01883e-08
-1.19528e-06
-6.28138e-09
-1.38875e-08
-1.40242e-06
-6.50175e-09
-1.61703e-08
-1.55792e-06
-5.28825e-09
-1.64412e-08
-1.68066e-06
-2.46636e-09
-1.44913e-08
-1.78141e-06
2.20248e-09
-1.04911e-08
-1.8666e-06
8.9204e-09
-5.13323e-09
-1.93975e-06
1.77427e-08
5.7585e-10
-2.00277e-06
2.85949e-08
5.2974e-09
-2.0563e-06
4.10407e-08
7.81715e-09
-2.10029e-06
5.41649e-08
7.37554e-09
-2.13419e-06
6.65076e-08
4.02727e-09
-2.15736e-06
7.63585e-08
-1.11758e-09
-2.16911e-06
8.18808e-08
-6.22861e-09
-2.16903e-06
8.18325e-08
-9.4746e-09
-2.15713e-06
7.62766e-08
-9.80248e-09
-2.13381e-06
6.64255e-08
-7.13065e-09
-2.09975e-06
5.40418e-08
-2.21451e-09
-2.05566e-06
4.09146e-08
3.70207e-09
-2.00204e-06
2.85019e-08
9.29101e-09
-1.93896e-06
1.76656e-08
1.34967e-08
-1.86574e-06
8.86112e-09
1.56764e-08
-1.78056e-06
2.16548e-09
1.56121e-08
-1.6798e-06
-2.48185e-09
1.35057e-08
-1.55712e-06
-5.28626e-09
9.96888e-09
-1.40173e-06
-6.48172e-09
5.80081e-09
-1.19472e-06
-6.24709e-09
2.01281e-09
-9.00185e-07
-4.71441e-09
-4.35456e-07
-2.00252e-09
-8.12305e-09
-4.19364e-07
-8.1259e-09
-2.34045e-08
-8.67376e-07
-1.79178e-08
-4.19478e-08
-1.15237e-06
-2.43702e-08
-6.12673e-08
-1.35421e-06
-2.88911e-08
-7.92573e-08
-1.50769e-06
-3.22369e-08
-9.41236e-08
-1.63096e-06
-3.48273e-08
-1.0432e-07
-1.73444e-06
-3.67725e-08
-1.08822e-07
-1.82411e-06
-3.79949e-08
-1.07068e-07
-1.9032e-06
-3.83109e-08
-9.9136e-08
-1.97313e-06
-3.75664e-08
-8.57001e-08
-2.03398e-06
-3.57556e-08
-6.78738e-08
-2.08505e-06
-3.30623e-08
-4.70066e-08
-2.12511e-06
-2.99449e-08
-2.44066e-08
-2.15286e-06
-2.70931e-08
-1.09421e-09
-2.16708e-06
-2.53483e-08
2.22456e-08
-2.167e-06
-2.5373e-08
4.49172e-08
-2.15264e-06
-2.71575e-08
6.59385e-08
-2.12479e-06
-3.00419e-08
8.39327e-08
-2.08457e-06
-3.31793e-08
9.75655e-08
-2.03342e-06
-3.58783e-08
1.05709e-07
-1.97249e-06
-3.76867e-08
1.07671e-07
-1.9025e-06
-3.84197e-08
1.03402e-07
-1.82339e-06
-3.80872e-08
9.34053e-08
-1.73372e-06
-3.68453e-08
7.87413e-08
-1.63026e-06
-3.48787e-08
6.09415e-08
-1.50706e-06
-3.22676e-08
4.17726e-08
-1.35366e-06
-2.89012e-08
2.33229e-08
-1.15191e-06
-2.43617e-08
8.11116e-09
-8.6708e-07
-1.78939e-08
-4.19244e-07
-8.10066e-09
-1.43529e-08
-3.90654e-07
-1.43571e-08
-4.13031e-08
-8.09097e-07
-3.13279e-08
-7.443e-08
-1.07645e-06
-4.27887e-08
-1.09764e-07
-1.26708e-06
-5.1799e-08
-1.44e-07
-1.4134e-06
-6.00575e-08
-1.74073e-07
-1.53238e-06
-6.85119e-08
-1.9714e-07
-1.63373e-06
-7.76373e-08
-2.10807e-07
-1.72292e-06
-8.75249e-08
-2.13218e-07
-1.80283e-06
-9.79547e-08
-2.03362e-07
-1.87442e-06
-1.08565e-07
-1.81135e-07
-1.93746e-06
-1.18747e-07
-1.475e-07
-1.99086e-06
-1.2782e-07
-1.04353e-07
-2.03305e-06
-1.35206e-07
-5.44572e-08
-2.0624e-06
-1.40356e-07
-1.06463e-09
-2.07747e-06
-1.43001e-07
5.23616e-08
-2.0774e-06
-1.43025e-07
1.02351e-07
-2.06223e-06
-1.40396e-07
1.4561e-07
-2.03277e-06
-1.35281e-07
1.79418e-07
-1.99044e-06
-1.27942e-07
2.01842e-07
-1.93696e-06
-1.18881e-07
2.11909e-07
-1.87386e-06
-1.087e-07
2.09703e-07
-1.80222e-06
-9.80821e-08
1.96269e-07
-1.72232e-06
-8.76376e-08
1.73398e-07
-1.63312e-06
-7.77339e-08
1.4353e-07
-1.53181e-06
-6.85872e-08
1.09459e-07
-1.41287e-06
-6.01107e-08
7.4267e-08
-1.26663e-06
-5.18302e-08
4.12494e-08
-1.0761e-06
-4.27966e-08
1.43462e-08
-8.08862e-07
-3.13142e-08
-3.90563e-07
-1.43349e-08
-2.02851e-08
-3.50081e-07
-2.0288e-08
-5.83125e-08
-7.27019e-07
-4.4051e-08
-1.05273e-07
-9.692e-07
-6.02919e-08
-1.55927e-07
-1.14284e-06
-7.35887e-08
-2.05807e-07
-1.27696e-06
-8.65575e-08
-2.50621e-07
-1.38681e-06
-1.00759e-07
-2.86294e-07
-1.48108e-06
-1.16982e-07
-3.09044e-07
-1.56472e-06
-1.35445e-07
-3.15761e-07
-1.64016e-06
-1.55955e-07
-3.04271e-07
-1.70812e-06
-1.77793e-07
-2.73723e-07
-1.76821e-06
-1.99802e-07
-2.24866e-07
-1.81917e-06
-2.20555e-07
-1.60131e-07
-1.85949e-06
-2.38303e-07
-8.36872e-08
-1.88752e-06
-2.5133e-07
-1.02564e-09
-1.90189e-06
-2.58234e-07
8.16598e-08
-1.90183e-06
-2.58254e-07
1.58184e-07
-1.88734e-06
-2.51418e-07
2.23031e-07
-1.8592e-06
-2.38419e-07
2.72079e-07
-1.81881e-06
-2.20671e-07
3.02802e-07
-1.76775e-06
-1.99931e-07
3.14486e-07
-1.70762e-06
-1.77925e-07
3.07993e-07
-1.63964e-06
-1.56086e-07
2.85435e-07
-1.56419e-06
-1.35567e-07
2.49978e-07
-1.48057e-06
-1.17089e-07
2.05344e-07
-1.38632e-06
-1.00848e-07
1.55633e-07
-1.27654e-06
-8.66272e-08
1.05124e-07
-1.14251e-06
-7.36209e-08
5.82512e-08
-9.68928e-07
-6.02976e-08
2.02804e-08
-7.26846e-07
-4.40459e-08
-3.50014e-07
-2.0269e-08
-2.54066e-08
-2.99265e-07
-2.54093e-08
-7.29725e-08
-6.24464e-07
-5.49892e-08
-1.31955e-07
-8.3495e-07
-7.52678e-08
-1.96029e-07
-9.86515e-07
-9.2246e-08
-2.59783e-07
-1.10386e-06
-1.09346e-07
-3.17844e-07
-1.20014e-06
-1.28609e-07
-3.64897e-07
-1.2829e-06
-1.51126e-07
-3.95949e-07
-1.3564e-06
-1.77265e-07
-4.06685e-07
-1.42273e-06
-2.0669e-07
-3.93896e-07
-1.48249e-06
-2.38422e-07
-3.56054e-07
-1.53518e-06
-2.70871e-07
-2.93636e-07
-1.57979e-06
-3.01799e-07
-2.09706e-07
-1.61491e-06
-3.28511e-07
-1.09669e-07
-1.63923e-06
-3.48323e-07
-9.73306e-10
-1.65165e-06
-3.58938e-07
1.07746e-07
-1.6516e-06
-3.58954e-07
2.0785e-07
-1.63907e-06
-3.48373e-07
2.9191e-07
-1.61467e-06
-3.2859e-07
3.54439e-07
-1.57944e-06
-3.019e-07
3.92484e-07
-1.53481e-06
-2.7099e-07
4.05467e-07
-1.48206e-06
-2.38545e-07
3.94944e-07
-1.4223e-06
-2.06817e-07
3.64094e-07
-1.35595e-06
-1.77387e-07
3.17228e-07
-1.28247e-06
-1.51235e-07
2.59362e-07
-1.19975e-06
-1.28704e-07
1.95775e-07
-1.10353e-06
-1.09422e-07
1.31817e-07
-9.86233e-07
-9.23145e-08
7.29256e-08
-8.34731e-07
-7.53044e-08
2.54041e-08
-6.24335e-07
-5.4989e-08
-2.99217e-07
-2.5392e-08
-2.91748e-08
-2.40917e-07
-2.91734e-08
-8.38277e-08
-5.06805e-07
-6.30057e-08
-1.51937e-07
-6.80622e-07
-8.62178e-08
-2.26469e-07
-8.06116e-07
-1.05868e-07
-3.01247e-07
-9.0305e-07
-1.26035e-07
-3.70002e-07
-9.82217e-07
-1.49164e-07
-4.26407e-07
-1.04995e-06
-1.76546e-07
-4.64402e-07
-1.1098e-06
-2.08613e-07
-4.78613e-07
-1.16356e-06
-2.44956e-07
-4.64978e-07
-1.21174e-06
-2.84383e-07
-4.21388e-07
-1.25395e-06
-3.24815e-07
-3.48284e-07
-1.28942e-06
-3.63466e-07
-2.49087e-07
-1.31715e-06
-3.96957e-07
-1.30278e-07
-1.33621e-06
-4.21828e-07
-9.1077e-10
-1.34591e-06
-4.35107e-07
1.28475e-07
-1.34587e-06
-4.35117e-07
2.47346e-07
-1.33608e-06
-4.21865e-07
3.46635e-07
-1.31694e-06
-3.97019e-07
4.19885e-07
-1.28915e-06
-3.63545e-07
4.63639e-07
-1.25364e-06
-3.24916e-07
4.77456e-07
-1.21139e-06
-2.84489e-07
4.63425e-07
-1.1632e-06
-2.45068e-07
4.25647e-07
-1.10945e-06
-2.08724e-07
3.69415e-07
-1.04959e-06
-1.76649e-07
3.00837e-07
-9.81916e-07
-1.49258e-07
2.26205e-07
-9.02782e-07
-1.26113e-07
1.518e-07
-8.05904e-07
-1.05924e-07
8.37878e-08
-6.80472e-07
-8.62474e-08
2.91697e-08
-5.06709e-07
-6.30081e-08
-2.40889e-07
-2.91584e-08
-3.10414e-08
-1.78831e-07
-3.10449e-08
-8.94508e-08
-3.81484e-07
-6.6912e-08
-1.62788e-07
-5.15807e-07
-9.14779e-08
-2.43829e-07
-6.1269e-07
-1.12384e-07
-3.25897e-07
-6.86857e-07
-1.34125e-07
-4.02036e-07
-7.4665e-07
-1.59428e-07
-4.65132e-07
-7.97123e-07
-1.89728e-07
-5.08222e-07
-8.41247e-07
-2.25459e-07
-5.25223e-07
-8.80429e-07
-2.66134e-07
-5.11412e-07
-9.15183e-07
-3.10369e-07
-4.64284e-07
-9.45291e-07
-3.5579e-07
-3.84224e-07
-9.70295e-07
-3.9919e-07
-2.75006e-07
-9.89632e-07
-4.36731e-07
-1.43835e-07
-1.00279e-06
-4.6459e-07
-8.3566e-10
-1.00943e-06
-4.79479e-07
1.42181e-07
-1.0094e-06
-4.79485e-07
2.73405e-07
-1.00269e-06
-4.64614e-07
3.8272e-07
-9.89487e-07
-4.36765e-07
4.62897e-07
-9.70102e-07
-3.99221e-07
5.10153e-07
-9.45051e-07
-3.55848e-07
5.2413e-07
-9.14907e-07
-3.10457e-07
5.07324e-07
-8.8016e-07
-2.66232e-07
4.64395e-07
-8.40964e-07
-2.2556e-07
4.01498e-07
-7.96868e-07
-1.89824e-07
3.25519e-07
-7.46418e-07
-1.59518e-07
2.43589e-07
-6.86654e-07
-1.34199e-07
1.6267e-07
-6.12543e-07
-1.12441e-07
8.94054e-08
-5.15698e-07
-9.15094e-08
3.1042e-08
-3.81428e-07
-6.69172e-08
-1.78815e-07
-3.10318e-08
-3.0482e-08
-1.17866e-07
-3.04825e-08
-8.84875e-08
-2.57919e-07
-6.55594e-08
-1.62405e-07
-3.52499e-07
-8.93906e-08
-2.45252e-07
-4.20158e-07
-1.09685e-07
-3.30156e-07
-4.70872e-07
-1.3108e-07
-4.09715e-07
-5.10672e-07
-1.5642e-07
-4.76243e-07
-5.43388e-07
-1.87206e-07
-5.22321e-07
-5.71304e-07
-2.23865e-07
-5.41322e-07
-5.95597e-07
-2.65831e-07
-5.2821e-07
-6.16708e-07
-3.11587e-07
-4.80267e-07
-6.34635e-07
-3.58599e-07
-3.97873e-07
-6.49207e-07
-4.03481e-07
-2.84942e-07
-6.60254e-07
-4.42309e-07
-1.49031e-07
-6.67623e-07
-4.7108e-07
-7.4893e-10
-6.71295e-07
-4.8642e-07
1.47547e-07
-6.7127e-07
-4.86424e-07
2.83502e-07
-6.6755e-07
-4.71093e-07
3.96505e-07
-6.60136e-07
-4.42354e-07
4.79009e-07
-6.49057e-07
-4.03548e-07
5.27069e-07
-6.3445e-07
-3.58661e-07
5.40332e-07
-6.16514e-07
-3.11657e-07
5.21477e-07
-5.95393e-07
-2.65912e-07
4.75576e-07
-5.71112e-07
-2.23951e-07
4.09206e-07
-5.43205e-07
-1.87292e-07
3.298e-07
-5.10512e-07
-1.56501e-07
2.45034e-07
-4.70739e-07
-1.3115e-07
1.62294e-07
-4.20062e-07
-1.09741e-07
8.84532e-08
-3.52435e-07
-8.94226e-08
3.04805e-08
-2.57888e-07
-6.55672e-08
-1.17863e-07
-3.04723e-08
-2.70007e-08
-6.38642e-08
-2.70012e-08
-7.99014e-08
-1.47161e-07
-5.7857e-08
-1.49193e-07
-2.04822e-07
-7.83862e-08
-2.28584e-07
-2.45052e-07
-9.57152e-08
-3.11252e-07