/*--------------------------------*- C++ -*----------------------------------*\
| =========                 |                                                 |
| \\      /  F ield         | OpenFOAM: The Open Source CFD Toolbox           |
|  \\    /   O peration     | Version:  v1906                                 |
|   \\  /    A nd           | Web:      www.OpenFOAM.com                      |
|    \\/     M anipulation  |                                                 |
\*---------------------------------------------------------------------------*/
FoamFile
{
    version     2.0;
    format      ascii;
    class       volVectorField;
    location    "76.8/oil";
    object      U;
}
// * * * * * * * * * * * * * * * * * * * * * * * * * * * * * * * * * * * * * //

dimensions      [0 1 -1 0 0 0 0];


internalField   nonuniform List<vector> 
27760
(
(-2.42971e-05 -2.47561e-05 -2.42971e-05)
(-4.79565e-05 -1.85693e-05 -1.7507e-05)
(-3.48605e-06 -4.8104e-06 -4.79776e-06)
(-5.66832e-06 -7.77671e-07 -8.88944e-07)
(-1.10916e-06 -2.41006e-07 -3.72212e-07)
(-3.44393e-07 -9.12624e-08 -2.35343e-07)
(3.43362e-07 -1.30555e-10 -1.55851e-07)
(6.94927e-07 4.07011e-08 -1.23909e-07)
(8.9206e-07 6.48723e-08 -1.05724e-07)
(9.66315e-07 8.07166e-08 -9.32899e-08)
(9.40766e-07 9.22256e-08 -8.29514e-08)
(8.2891e-07 1.01127e-07 -7.39289e-08)
(6.44945e-07 1.07828e-07 -6.65126e-08)
(4.05632e-07 1.124e-07 -6.11542e-08)
(1.31038e-07 1.14783e-07 -5.82836e-08)
(-1.56467e-07 1.14935e-07 -5.81344e-08)
(-4.33881e-07 1.12898e-07 -6.06626e-08)
(-6.79479e-07 1.08826e-07 -6.55216e-08)
(-8.7476e-07 1.02973e-07 -7.2086e-08)
(-1.00602e-06 9.56416e-08 -7.95046e-08)
(-1.06559e-06 8.71944e-08 -8.6754e-08)
(-1.05198e-06 7.79591e-08 -9.24762e-08)
(-9.70352e-07 6.79939e-08 -9.58629e-08)
(-8.32161e-07 5.77175e-08 -9.57369e-08)
(-6.54096e-07 4.73824e-08 -9.11643e-08)
(-4.5757e-07 3.74561e-08 -8.15507e-08)
(-2.67485e-07 2.89e-08 -6.70079e-08)
(-1.10755e-07 2.34345e-08 -4.88353e-08)
(-1.12795e-08 2.31905e-08 -3.05126e-08)
(1.23932e-08 2.42782e-08 -1.23549e-08)
(-1.76242e-05 -4.92741e-05 -1.76241e-05)
(-5.75098e-06 -6.41567e-06 -7.89345e-06)
(-7.71245e-06 -7.78425e-06 -2.76326e-06)
(-3.37389e-06 -2.29727e-06 -7.99188e-07)
(-1.00348e-06 -1.41845e-06 -4.06309e-07)
(2.02208e-07 -7.86902e-07 -2.09207e-07)
(1.08655e-06 -4.99088e-07 -1.12035e-07)
(1.6309e-06 -3.253e-07 -6.23045e-08)
(1.94532e-06 -2.0662e-07 -3.03752e-08)
(2.05357e-06 -1.13315e-07 -6.40889e-09)
(1.97604e-06 -3.52255e-08 1.40515e-08)
(1.73074e-06 3.03864e-08 3.16607e-08)
(1.34183e-06 8.25616e-08 4.60158e-08)
(8.41696e-07 1.19321e-07 5.63062e-08)
(2.70336e-07 1.38806e-07 6.17968e-08)
(-3.27135e-07 1.40038e-07 6.20839e-08)
(-9.04087e-07 1.23288e-07 5.72412e-08)
(-1.41644e-06 9.0185e-08 4.78556e-08)
(-1.82664e-06 4.35949e-08 3.49747e-08)
(-2.10687e-06 -1.26646e-08 2.00115e-08)
(-2.24149e-06 -7.41624e-08 4.56933e-09)
(-2.22791e-06 -1.36122e-07 -9.50378e-09)
(-2.07646e-06 -1.93973e-07 -2.0614e-08)
(-1.8099e-06 -2.42778e-07 -2.74731e-08)
(-1.4615e-06 -2.77407e-07 -2.90512e-08)
(-1.0727e-06 -2.91922e-07 -2.49786e-08)
(-6.8995e-07 -2.78958e-07 -1.59804e-08)
(-3.60042e-07 -2.30022e-07 -4.45194e-09)
(-1.2283e-07 -1.3808e-07 4.45161e-09)
(-5.54204e-09 -2.12984e-08 5.60087e-09)
(-4.86966e-06 -4.67179e-06 -4.8696e-06)
(-7.60094e-06 -8.82816e-06 -2.80636e-06)
(-3.80147e-06 -5.13495e-06 -1.22626e-06)
(-1.97231e-06 -3.11711e-06 -5.68586e-07)
(-2.44971e-07 -2.28158e-06 -2.56471e-07)
(9.08943e-07 -1.73641e-06 -1.02529e-07)
(1.78679e-06 -1.417e-06 -2.01462e-08)
(2.3748e-06 -1.1826e-06 2.78733e-08)
(2.71639e-06 -9.89549e-07 6.20366e-08)
(2.81665e-06 -8.17104e-07 8.97475e-08)
(2.68597e-06 -6.60856e-07 1.14074e-07)
(2.34076e-06 -5.23878e-07 1.35276e-07)
(1.80944e-06 -4.12278e-07 1.52634e-07)
(1.133e-06 -3.32631e-07 1.65077e-07)
(3.63322e-07 -2.90175e-07 1.71709e-07)
(-4.40455e-07 -2.87608e-07 1.7204e-07)
(-1.21696e-06 -3.24453e-07 1.66143e-07)
(-1.90812e-06 -3.96904e-07 1.54689e-07)
(-2.46445e-06 -4.98133e-07 1.38868e-07)
(-2.84942e-06 -6.18906e-07 1.20292e-07)
(-3.04239e-06 -7.48433e-07 1.00758e-07)
(-3.03996e-06 -8.74957e-07 8.21456e-08)
(-2.85573e-06 -9.86442e-07 6.61162e-08)
(-2.51893e-06 -1.0707e-06 5.39939e-08)
(-2.07166e-06 -1.11487e-06 4.65798e-08)
(-1.56547e-06 -1.10502e-06 4.38985e-08)
(-1.05673e-06 -1.02529e-06 4.48038e-08)
(-5.99977e-07 -8.58486e-07 4.62812e-08)
(-2.43755e-07 -5.87959e-07 4.25516e-08)
(-2.36055e-08 -2.17366e-07 2.3676e-08)
(-8.66635e-07 -6.84106e-06 -8.6657e-07)
(-1.89884e-06 -5.50858e-06 -7.68667e-07)
(-1.38978e-06 -4.82827e-06 -5.40931e-07)
(-4.28459e-07 -3.90473e-06 -2.60472e-07)
(7.24324e-07 -3.39463e-06 -9.5217e-08)
(1.68578e-06 -3.00934e-06 6.96178e-10)
(2.4789e-06 -2.71916e-06 6.07662e-08)
(3.04498e-06 -2.45626e-06 1.01961e-07)
(3.37164e-06 -2.20211e-06 1.35063e-07)
(3.44261e-06 -1.9519e-06 1.64158e-07)
(3.25612e-06 -1.71245e-06 1.90653e-07)
(2.82468e-06 -1.49594e-06 2.14138e-07)
(2.17792e-06 -1.31646e-06 2.33492e-07)
(1.36216e-06 -1.18718e-06 2.47404e-07)
(4.37527e-07 -1.11805e-06 2.54812e-07)
(-5.2668e-07 -1.11418e-06 2.55145e-07)
(-1.45826e-06 -1.17497e-06 2.48469e-07)
(-2.28882e-06 -1.29388e-06 2.35506e-07)
(-2.96007e-06 -1.45904e-06 2.17559e-07)
(-3.42913e-06 -1.65432e-06 1.96363e-07)
(-3.67178e-06 -1.86072e-06 1.7384e-07)
(-3.68408e-06 -2.05767e-06 1.51917e-07)
(-3.48165e-06 -2.22394e-06 1.32269e-07)
(-3.09783e-06 -2.33806e-06 1.16186e-07)
(-2.58006e-06 -2.37797e-06 1.04326e-07)
(-1.98563e-06 -2.32046e-06 9.65285e-08)
(-1.37657e-06 -2.14004e-06 9.1465e-08)
(-8.12242e-07 -1.80824e-06 8.57151e-08)
(-3.50166e-07 -1.29047e-06 7.29285e-08)
(-3.85524e-08 -5.44933e-07 3.86366e-08)
(-2.71085e-07 -2.72238e-06 -2.71007e-07)
(-7.95392e-07 -4.3663e-06 -3.12215e-07)
(-2.48591e-07 -4.852e-06 -1.9598e-07)
(5.44515e-07 -4.80956e-06 -6.95695e-08)
(1.48941e-06 -4.71151e-06 1.90544e-08)
(2.36165e-06 -4.53929e-06 7.88541e-08)
(3.10698e-06 -4.32515e-06 1.22758e-07)
(3.65295e-06 -4.06358e-06 1.58143e-07)
(3.96006e-06 -3.76494e-06 1.90129e-07)
(3.99884e-06 -3.44441e-06 2.20368e-07)
(3.75886e-06 -3.12324e-06 2.48917e-07)
(3.24936e-06 -2.82547e-06 2.74688e-07)
(2.50071e-06 -2.57512e-06 2.96108e-07)
(1.56331e-06 -2.39347e-06 3.11571e-07)
(5.04166e-07 -2.29615e-06 3.198e-07)
(-5.98903e-07 -2.29125e-06 3.20111e-07)
(-1.66447e-06 -2.3781e-06 3.12559e-07)
(-2.61533e-06 -2.54716e-06 2.97937e-07)
(-3.38578e-06 -2.78082e-06 2.7771e-07)
(-3.92764e-06 -3.05507e-06 2.5377e-07)
(-4.21387e-06 -3.34167e-06 2.28224e-07)
(-4.24013e-06 -3.61006e-06 2.03127e-07)
(-4.02368e-06 -3.8287e-06 1.80227e-07)
(-3.60092e-06 -3.96602e-06 1.60819e-07)
(-3.02331e-06 -3.99e-06 1.45517e-07)
(-2.35237e-06 -3.86733e-06 1.34062e-07)
(-1.65466e-06 -3.56136e-06 1.25015e-07)
(-9.94391e-07 -3.02858e-06 1.14595e-07)
(-4.3886e-07 -2.20684e-06 9.57854e-08)
(-5.0152e-08 -9.82841e-07 5.02536e-08)
(-9.76104e-08 -2.5779e-06 -9.75154e-08)
(-4.73742e-08 -4.60136e-06 -7.96395e-08)
(4.91605e-07 -5.64992e-06 -1.91068e-08)
(1.24053e-06 -6.12838e-06 4.35051e-08)
(2.11061e-06 -6.34072e-06 9.4153e-08)
(2.94944e-06 -6.34995e-06 1.34096e-07)
(3.67671e-06 -6.21439e-06 1.68781e-07)
(4.21375e-06 -5.96356e-06 2.01281e-07)
(4.50641e-06 -5.62961e-06 2.33658e-07)
(4.51645e-06 -5.24537e-06 2.66032e-07)
(4.22728e-06 -4.8464e-06 2.97495e-07)
(3.6456e-06 -4.46917e-06 3.26336e-07)
(2.80252e-06 -4.14854e-06 3.5051e-07)
(1.75225e-06 -3.91446e-06 3.68025e-07)
(5.68234e-07 -3.78895e-06 3.77339e-07)
(-6.63636e-07 -3.78336e-06 3.77621e-07)
(-1.85318e-06 -3.89703e-06 3.68909e-07)
(-2.91485e-06 -4.11724e-06 3.52114e-07)
(-3.77602e-06 -4.42026e-06 3.28915e-07)
(-4.38362e-06 -4.7737e-06 3.0149e-07)
(-4.70833e-06 -5.13958e-06 2.72229e-07)
(-4.74556e-06 -5.47669e-06 2.4341e-07)
(-4.51431e-06 -5.74283e-06 2.16928e-07)
(-4.05403e-06 -5.89591e-06 1.94178e-07)
(-3.4198e-06 -5.89345e-06 1.75796e-07)
(-2.67722e-06 -5.69123e-06 1.61474e-07)
(-1.8975e-06 -5.23962e-06 1.49661e-07)
(-1.15023e-06 -4.47582e-06 1.36202e-07)
(-5.12476e-07 -3.30113e-06 1.13308e-07)
(-5.9261e-08 -1.51063e-06 5.93846e-08)
(1.57313e-09 -2.6309e-06 1.68813e-09)
(2.95965e-07 -5.28669e-06 3.71374e-08)
(9.1824e-07 -6.85289e-06 7.57889e-08)
(1.71242e-06 -7.75131e-06 1.11842e-07)
(2.59342e-06 -8.23691e-06 1.44254e-07)
(3.44606e-06 -8.41393e-06 1.74318e-07)
(4.18454e-06 -8.35999e-06 2.04839e-07)
(4.72865e-06 -8.12854e-06 2.3707e-07)
(5.01684e-06 -7.76939e-06 2.71489e-07)
(5.00521e-06 -7.33076e-06 3.0728e-07)
(4.67284e-06 -6.86173e-06 3.42791e-07)
(4.02462e-06 -6.41106e-06 3.75738e-07)
(3.09256e-06 -6.02432e-06 4.03545e-07)
(1.93483e-06 -5.74056e-06 4.23748e-07)
(6.31322e-07 -5.58833e-06 4.34474e-07)
(-7.23911e-07 -5.58239e-06 4.34723e-07)
(-2.03192e-06 -5.72219e-06 4.24522e-07)
(-3.1988e-06 -5.9917e-06 4.04921e-07)
(-4.14505e-06 -6.36103e-06 3.77887e-07)
(-4.81301e-06 -6.78928e-06 3.46009e-07)
(-5.17127e-06 -7.22851e-06 3.12058e-07)
(-5.21551e-06 -7.62698e-06 2.78637e-07)
(-4.9669e-06 -7.93192e-06 2.4792e-07)
(-4.46809e-06 -8.09066e-06 2.21429e-07)
(-3.77815e-06 -8.05001e-06 1.99877e-07)
(-2.96697e-06 -7.75402e-06 1.82922e-07)
(-2.11068e-06 -7.13812e-06 1.68897e-07)
(-1.28449e-06 -6.11632e-06 1.53251e-07)
(-5.74447e-07 -4.54538e-06 1.27347e-07)
(-6.66733e-08 -2.11296e-06 6.68242e-08)
(4.26473e-08 -3.06386e-06 4.27833e-08)
(4.85258e-07 -6.36757e-06 9.45989e-08)
(1.19227e-06 -8.4017e-06 1.27346e-07)
(2.05223e-06 -9.65639e-06 1.53526e-07)
(2.97614e-06 -1.03856e-05 1.78362e-07)
(3.86541e-06 -1.07188e-05 2.04743e-07)
(4.63232e-06 -1.07488e-05 2.3471e-07)
(5.19543e-06 -1.05458e-05 2.68888e-07)
(5.48829e-06 -1.01736e-05 3.06943e-07)
(5.46262e-06 -9.69329e-06 3.47488e-07)
(5.09395e-06 -9.16611e-06 3.88277e-07)
(4.38552e-06 -8.65206e-06 4.26414e-07)
(3.3704e-06 -8.20715e-06 4.58752e-07)
(2.11071e-06 -7.87921e-06 4.82305e-07)
(6.92941e-07 -7.70316e-06 4.94788e-07)
(-7.80497e-07 -7.69719e-06 4.95e-07)
(-2.20175e-06 -7.86083e-06 4.82956e-07)
(-3.46845e-06 -8.17491e-06 4.59898e-07)
(-4.49415e-06 -8.60338e-06 4.28164e-07)
(-5.21683e-06 -9.09709e-06 3.90827e-07)
(-5.60345e-06 -9.59858e-06 3.51133e-07)
(-5.65048e-06 -1.00459e-05 3.1215e-07)
(-5.38171e-06 -1.03762e-05 2.76404e-07)
(-4.84341e-06 -1.05265e-05 2.45592e-07)
(-4.09908e-06 -1.0433e-05 2.20536e-07)
(-3.22309e-06 -1.00274e-05 2.00856e-07)
(-2.29648e-06 -9.22835e-06 1.84777e-07)
(-1.39987e-06 -7.92317e-06 1.67326e-07)
(-6.26976e-07 -5.91752e-06 1.39028e-07)
(-7.28931e-08 -2.77835e-06 7.30747e-08)
(6.38622e-08 -3.65882e-06 6.40217e-08)
(5.9496e-07 -7.67765e-06 1.26502e-07)
(1.37432e-06 -1.01878e-05 1.57996e-07)
(2.29948e-06 -1.17847e-05 1.8073e-07)
(3.27571e-06 -1.2751e-05 2.0303e-07)
(4.21033e-06 -1.32416e-05 2.29062e-07)
(5.01393e-06 -1.33645e-05 2.60727e-07)
(5.60334e-06 -1.32041e-05 2.9844e-07)
(5.9081e-06 -1.28358e-05 3.41438e-07)
(5.87582e-06 -1.23315e-05 3.87876e-07)
(5.47869e-06 -1.17629e-05 4.34996e-07)
(4.71822e-06 -1.12003e-05 4.79291e-07)
(3.62832e-06 -1.0709e-05 5.1699e-07)
(2.27491e-06 -1.03449e-05 5.4448e-07)
(7.51088e-07 -1.01493e-05 5.59004e-07)
(-8.32456e-07 -1.01436e-05 5.59181e-07)
(-2.35886e-06 -1.03273e-05 5.45023e-07)
(-3.71732e-06 -1.06782e-05 5.17937e-07)
(-4.81473e-06 -1.11546e-05 4.80692e-07)
(-5.58502e-06 -1.16995e-05 4.36978e-07)
(-5.99389e-06 -1.22465e-05 3.9063e-07)
(-6.03928e-06 -1.27244e-05 3.45225e-07)
(-5.74818e-06 -1.30611e-05 3.03662e-07)
(-5.17099e-06 -1.31841e-05 2.67912e-07)
(-4.3757e-06 -1.30194e-05 2.38912e-07)
(-3.44113e-06 -1.24859e-05 2.16289e-07)
(-2.45285e-06 -1.14842e-05 1.98112e-07)
(-1.49607e-06 -9.87188e-06 1.79008e-07)
(-6.70576e-07 -7.39783e-06 1.4875e-07)
(-7.81161e-08 -3.49699e-06 7.83312e-08)
(7.51738e-08 -4.35586e-06 7.5359e-08)
(6.61827e-07 -9.14552e-06 1.44747e-07)
(1.49581e-06 -1.21491e-05 1.76735e-07)
(2.47449e-06 -1.409e-05 1.9888e-07)
(3.49817e-06 -1.52976e-05 2.21191e-07)
(4.47569e-06 -1.59547e-05 2.48747e-07)
(5.31607e-06 -1.61859e-05 2.8354e-07)
(5.93385e-06 -1.60881e-05 3.25879e-07)
(6.25504e-06 -1.57463e-05 3.74813e-07)
(6.22328e-06 -1.52416e-05 4.28094e-07)
(5.80699e-06 -1.46542e-05 4.82448e-07)
(5.00552e-06 -1.40626e-05 5.33741e-07)
(3.85313e-06 -1.35404e-05 5.77477e-07)
(2.41906e-06 -1.31513e-05 6.09377e-07)
(8.02588e-07 -1.29417e-05 6.26208e-07)
(-8.77448e-07 -1.29364e-05 6.26349e-07)
(-2.49571e-06 -1.31348e-05 6.09807e-07)
(-3.93325e-06 -1.35121e-05 5.7821e-07)
(-5.09059e-06 -1.40208e-05 5.34825e-07)
(-5.8983e-06 -1.45973e-05 4.8398e-07)
(-6.32172e-06 -1.5167e-05 4.3015e-07)
(-6.36089e-06 -1.56511e-05 3.77555e-07)
(-6.04649e-06 -1.59693e-05 3.29531e-07)
(-5.43339e-06 -1.60411e-05 2.88341e-07)
(-4.59381e-06 -1.57828e-05 2.55021e-07)
(-3.61069e-06 -1.51006e-05 2.29199e-07)
(-2.57314e-06 -1.38762e-05 2.08847e-07)
(-1.56956e-06 -1.19352e-05 1.88216e-07)
(-7.03943e-07 -8.96505e-06 1.56376e-07)
(-8.22528e-08 -4.25878e-06 8.25053e-08)
(8.13372e-08 -5.11224e-06 8.15394e-08)
(6.99857e-07 -1.07131e-05 1.54991e-07)
(1.56777e-06 -1.42272e-05 1.87718e-07)
(2.58119e-06 -1.65207e-05 2.10336e-07)
(3.63776e-06 -1.79804e-05 2.33854e-07)
(4.64701e-06 -1.88197e-05 2.63897e-07)
(5.51695e-06 -1.91807e-05 3.02591e-07)
(6.16029e-06 -1.91715e-05 3.5026e-07)
(6.49991e-06 -1.88854e-05 4.05751e-07)
(6.47543e-06 -1.84103e-05 4.66513e-07)
(6.05119e-06 -1.78324e-05 5.28746e-07)
(5.22374e-06 -1.72369e-05 5.87634e-07)
(4.02673e-06 -1.67041e-05 6.37965e-07)
(2.53174e-06 -1.63037e-05 6.74691e-07)
(8.434e-07 -1.60873e-05 6.94018e-07)
(-9.12114e-07 -1.60824e-05 6.94131e-07)
(-2.60156e-06 -1.62886e-05 6.75032e-07)
(-4.09865e-06 -1.66785e-05 6.3854e-07)
(-5.29859e-06 -1.71997e-05 5.88458e-07)
(-6.12962e-06 -1.77825e-05 5.29848e-07)
(-6.55763e-06 -1.83461e-05 4.67994e-07)
(-6.58554e-06 -1.88053e-05 4.07712e-07)
(-6.24833e-06 -1.90739e-05 3.52789e-07)
(-5.6053e-06 -1.9065e-05 3.05807e-07)
(-4.73248e-06 -1.86867e-05 2.67943e-07)
(-3.71571e-06 -1.78333e-05 2.38814e-07)
(-2.64626e-06 -1.63669e-05 2.1624e-07)
(-1.61397e-06 -1.40794e-05 1.94223e-07)
(-7.2439e-07 -1.05932e-05 1.61324e-07)
(-8.49916e-08 -5.05146e-06 8.52867e-08)
(8.38626e-08 -5.89846e-06 8.40968e-08)
(7.1301e-07 -1.23303e-05 1.59084e-07)
(1.59058e-06 -1.63643e-05 1.92161e-07)
(2.6137e-06 -1.90186e-05 2.15498e-07)
(3.68046e-06 -2.07431e-05 2.4061e-07)
(4.70221e-06 -2.17841e-05 2.73531e-07)
(5.58759e-06 -2.23012e-05 3.16465e-07)
(6.24877e-06 -2.24128e-05 3.69772e-07)
(6.60615e-06 -2.22185e-05 4.32175e-07)
(6.59573e-06 -2.181e-05 5.00846e-07)
(6.17748e-06 -2.12772e-05 5.71494e-07)
(5.34413e-06 -2.07092e-05 6.38593e-07)
(4.1273e-06 -2.01911e-05 6.96102e-07)
(2.59936e-06 -1.9797e-05 7.38161e-07)
(8.688e-07 -1.95826e-05 7.60273e-07)
(-9.32043e-07 -1.95782e-05 7.60355e-07)
(-2.66315e-06 -1.97835e-05 7.38391e-07)
(-4.19216e-06 -2.01683e-05 6.96486e-07)
(-5.41036e-06 -2.06767e-05 6.39166e-07)
(-6.24516e-06 -2.12339e-05 5.72264e-07)
(-6.6647e-06 -2.17551e-05 5.01893e-07)
(-6.67585e-06 -2.21514e-05 4.33545e-07)
(-6.31819e-06 -2.23332e-05 3.71511e-07)
(-5.65491e-06 -2.22091e-05 3.18634e-07)
(-4.765e-06 -2.16811e-05 2.76178e-07)
(-3.73554e-06 -2.06326e-05 2.43755e-07)
(-2.65775e-06 -1.89065e-05 2.19087e-07)
(-1.62047e-06 -1.62601e-05 1.95986e-07)
(-7.27928e-07 -1.22485e-05 1.62694e-07)
(-8.58396e-08 -5.85886e-06 8.61776e-08)
(8.31153e-08 -6.68651e-06 8.33575e-08)
(7.00338e-07 -1.39442e-05 1.57161e-07)
(1.55855e-06 -1.84949e-05 1.89747e-07)
(2.55961e-06 -2.15128e-05 2.1359e-07)
(3.60595e-06 -2.35137e-05 2.40256e-07)
(4.61311e-06 -2.47771e-05 2.7591e-07)
(5.49278e-06 -2.54799e-05 3.22888e-07)
(6.15863e-06 -2.57495e-05 3.81608e-07)
(6.53016e-06 -2.56891e-05 4.50744e-07)
(6.54048e-06 -2.53917e-05 5.27263e-07)
(6.14507e-06 -2.49477e-05 6.0647e-07)
(5.33167e-06 -2.44465e-05 6.82197e-07)
(4.12809e-06 -2.39746e-05 7.47391e-07)
(2.6052e-06 -2.36089e-05 7.95269e-07)
(8.73033e-07 -2.3408e-05 8.20489e-07)
(-9.31817e-07 -2.3404e-05 8.2053e-07)
(-2.66407e-06 -2.3597e-05 7.95402e-07)
(-4.18714e-06 -2.39546e-05 7.47618e-07)
(-5.39079e-06 -2.4418e-05 6.82535e-07)
(-6.20404e-06 -2.49104e-05 6.06964e-07)
(-6.599e-06 -2.53453e-05 5.27943e-07)
(-6.58765e-06 -2.56333e-05 4.51621e-07)
(-6.21416e-06 -2.56846e-05 3.82762e-07)
(-5.54492e-06 -2.54066e-05 3.24328e-07)
(-4.66009e-06 -2.4697e-05 2.77659e-07)
(-3.64568e-06 -2.34298e-05 2.42283e-07)
(-2.59021e-06 -2.143e-05 2.15841e-07)
(-1.57847e-06 -1.84201e-05 1.92089e-07)
(-7.09731e-07 -1.38871e-05 1.59315e-07)
(-8.42092e-08 -6.65989e-06 8.45985e-08)
(7.87831e-08 -7.44617e-06 7.90583e-08)
(6.58458e-07 -1.54946e-05 1.48637e-07)
(1.46301e-06 -2.0542e-05 1.79607e-07)
(2.40345e-06 -2.39168e-05 2.03321e-07)
(3.39078e-06 -2.62006e-05 2.3102e-07)
(4.34818e-06 -2.77055e-05 2.6878e-07)
(5.19358e-06 -2.86246e-05 3.18962e-07)
(5.84492e-06 -2.90927e-05 3.82187e-07)
(6.22333e-06 -2.92142e-05 4.57264e-07)
(6.2603e-06 -2.90798e-05 5.41116e-07)
(5.90739e-06 -2.87764e-05 6.28726e-07)
(5.14624e-06 -2.83899e-05 7.13296e-07)
(3.99839e-06 -2.80043e-05 7.86772e-07)
(2.53004e-06 -2.76955e-05 8.41258e-07)
(8.49585e-07 -2.75228e-05 8.7017e-07)
(-9.04878e-07 -2.75194e-05 8.70181e-07)
(-2.58505e-06 -2.7685e-05 8.41302e-07)
(-4.05282e-06 -2.79868e-05 7.86855e-07)
(-5.19976e-06 -2.83652e-05 7.13428e-07)
(-5.95971e-06 -2.87444e-05 6.28961e-07)
(-6.31093e-06 -2.90406e-05 5.41539e-07)
(-6.27158e-06 -2.91679e-05 4.57846e-07)
(-5.89013e-06 -2.90399e-05 3.82955e-07)
(-5.23473e-06 -2.85662e-05 3.19904e-07)
(-4.38406e-06 -2.76429e-05 2.69898e-07)
(-3.42018e-06 -2.61365e-05 2.32314e-07)
(-2.42529e-06 -2.3855e-05 2.04762e-07)
(-1.4767e-06 -2.04875e-05 1.81101e-07)
(-6.64585e-07 -1.54539e-05 1.49982e-07)
(-7.94106e-08 -7.42777e-06 7.98446e-08)
(7.04134e-08 -8.14267e-06 7.0697e-08)
(5.83404e-07 -1.69116e-05 1.3252e-07)
(1.29472e-06 -2.24149e-05 1.60401e-07)
(2.12927e-06 -2.6127e-05 1.83004e-07)
(3.01145e-06 -2.86916e-05 2.10671e-07)
(3.87575e-06 -3.04516e-05 2.49131e-07)
(4.65032e-06 -3.16148e-05 3.00865e-07)
(5.26104e-06 -3.2321e-05 3.66667e-07)
(5.63392e-06 -3.26736e-05 4.45545e-07)
(5.70137e-06 -3.27581e-05 5.34652e-07)
(5.41186e-06 -3.26537e-05 6.28896e-07)
(4.74048e-06 -3.24377e-05 7.21122e-07)
(3.70047e-06 -3.21865e-05 8.02372e-07)
(2.3497e-06 -3.19701e-05 8.63462e-07)
(7.90102e-07 -3.18445e-05 8.96233e-07)
(-8.429e-07 -3.18415e-05 8.96207e-07)
(-2.40189e-06 -3.19609e-05 8.6341e-07)
(-3.75153e-06 -3.21711e-05 8.02319e-07)
(-4.78982e-06 -3.24162e-05 7.21115e-07)
(-5.45899e-06 -3.26262e-05 6.28951e-07)
(-5.74588e-06 -3.27249e-05 5.34799e-07)
(-5.67535e-06 -3.26351e-05 4.45813e-07)
(-5.29879e-06 -3.22779e-05 3.67085e-07)
(-4.68366e-06 -3.1568e-05 3.01435e-07)
(-3.90392e-06 -3.04026e-05 2.49844e-07)
(-3.03377e-06 -2.86425e-05 2.11496e-07)
(-2.14523e-06 -2.60804e-05 1.83907e-07)
(-1.30435e-06 -2.23746e-05 1.61352e-07)
(-5.87483e-07 -1.68821e-05 1.334e-07)
(-7.07597e-08 -8.12964e-06 7.12397e-08)
(5.75598e-08 -8.73701e-06 5.78507e-08)
(4.71774e-07 -1.81166e-05 1.07996e-07)
(1.04617e-06 -2.4011e-05 1.31072e-07)
(1.72439e-06 -2.80239e-05 1.51175e-07)
(2.44915e-06 -3.08543e-05 1.77211e-07)
(3.17005e-06 -3.28721e-05 2.14248e-07)
(3.82984e-06 -3.42978e-05 2.64687e-07)
(4.36651e-06 -3.52744e-05 3.29565e-07)
(4.71489e-06 -3.59021e-05 4.08347e-07)
(4.81206e-06 -3.62585e-05 4.98681e-07)
(4.60594e-06 -3.64109e-05 5.95772e-07)
(4.06582e-06 -3.64234e-05 6.92366e-07)
(3.19464e-06 -3.63584e-05 7.78859e-07)
(2.0379e-06 -3.62741e-05 8.45e-07)
(6.85463e-07 -3.6217e-05 8.81011e-07)
(-7.36487e-07 -3.62143e-05 8.80978e-07)
(-2.08805e-06 -3.62659e-05 8.44931e-07)
(-3.24319e-06 -3.6345e-05 7.78738e-07)
(-4.11209e-06 -3.64047e-05 6.92233e-07)
(-4.64946e-06 -3.63874e-05 5.95684e-07)
(-4.85228e-06 -3.62306e-05 4.98692e-07)
(-4.75136e-06 -3.58703e-05 4.0845e-07)
(-4.39882e-06 -3.52392e-05 3.29755e-07)
(-3.85758e-06 -3.42601e-05 2.64987e-07)
(-3.1928e-06 -3.28333e-05 2.14657e-07)
(-2.46661e-06 -3.08161e-05 1.7772e-07)
(-1.73646e-06 -2.79883e-05 1.51764e-07)
(-1.05316e-06 -2.39808e-05 1.31691e-07)
(-4.74558e-07 -1.80949e-05 1.08601e-07)
(-5.77302e-08 -8.72762e-06 5.82522e-08)
(3.99519e-08 -9.18709e-06 4.0239e-08)
(3.22144e-07 -1.90251e-05 7.45648e-08)
(7.14374e-07 -2.52192e-05 9.08822e-08)
(1.18356e-06 -2.94763e-05 1.06788e-07)
(1.69523e-06 -3.25399e-05 1.28973e-07)
(2.21793e-06 -3.48017e-05 1.61456e-07)
(2.71303e-06 -3.64912e-05 2.06454e-07)
(3.13532e-06 -3.77534e-05 2.65168e-07)
(3.43345e-06 -3.86833e-05 3.37521e-07)
(3.55369e-06 -3.93485e-05 4.21746e-07)
(3.44715e-06 -3.98019e-05 5.13796e-07)
(3.07955e-06 -4.00896e-05 6.07067e-07)
(2.44361e-06 -4.0255e-05 6.92055e-07)
(1.56889e-06 -4.03372e-05 7.58095e-07)
(5.26454e-07 -4.03677e-05 7.94561e-07)
(-5.76336e-07 -4.03655e-05 7.94491e-07)
(-1.61776e-06 -4.03302e-05 7.57966e-07)
(-2.49052e-06 -4.02434e-05 6.91851e-07)
(-3.12369e-06 -4.00735e-05 6.06864e-07)
(-3.48798e-06 -3.97819e-05 5.13595e-07)
(-3.5907e-06 -3.9325e-05 4.21605e-07)
(-3.46635e-06 -3.86568e-05 3.37423e-07)
(-3.16379e-06 -3.77245e-05 2.65165e-07)
(-2.73683e-06 -3.64607e-05 2.06553e-07)
(-2.23689e-06 -3.47708e-05 1.61635e-07)
(-1.70933e-06 -3.251e-05 1.2924e-07)
(-1.19295e-06 -2.94489e-05 1.07131e-07)
(-7.19538e-07 -2.51962e-05 9.12685e-08)
(-3.24042e-07 -1.90089e-05 7.49873e-08)
(-4.0006e-08 -9.18024e-06 4.05652e-08)
(1.77258e-08 -9.45055e-06 1.80338e-08)
(1.36234e-07 -1.95525e-05 3.25306e-08)
(3.03345e-07 -2.59278e-05 4.01412e-08)
(5.13211e-07 -3.0351e-05 4.99618e-08)
(7.57771e-07 -3.35943e-05 6.57365e-08)
(1.02788e-06 -3.60637e-05 9.0012e-08)
(1.30726e-06 -3.7994e-05 1.24446e-07)
(1.57173e-06 -3.95292e-05 1.70305e-07)
(1.78886e-06 -4.07586e-05 2.27949e-07)
(1.91948e-06 -4.17385e-05 2.96427e-07)
(1.92322e-06 -4.25058e-05 3.72769e-07)
(1.7661e-06 -4.30864e-05 4.51622e-07)
(1.4316e-06 -4.35012e-05 5.24713e-07)
(9.30946e-07 -4.37664e-05 5.8242e-07)
(3.08805e-07 -4.38943e-05 6.14676e-07)
(-3.579e-07 -4.38926e-05 6.14605e-07)
(-9.78849e-07 -4.37605e-05 5.82271e-07)
(-1.47728e-06 -4.34911e-05 5.24454e-07)
(-1.8087e-06 -4.30727e-05 4.51313e-07)
(-1.96221e-06 -4.24887e-05 3.72427e-07)
(-1.9543e-06 -4.17185e-05 2.96161e-07)
(-1.81924e-06 -4.07362e-05 2.27723e-07)
(-1.59748e-06 -3.95052e-05 1.70173e-07)
(-1.32827e-06 -3.79691e-05 1.24395e-07)
(-1.04418e-06 -3.60388e-05 9.00189e-08)
(-7.69528e-07 -3.35706e-05 6.58334e-08)
(-5.20766e-07 -3.03296e-05 5.01354e-08)
(-3.07307e-07 -2.59102e-05 4.04133e-08)
(-1.37566e-07 -1.95402e-05 3.28439e-08)
(-1.77194e-08 -9.44546e-06 1.83086e-08)
(-8.4207e-09 -9.48923e-06 -8.14068e-09)
(-7.99905e-08 -1.96231e-05 -1.69101e-08)
(-1.73689e-07 -2.60365e-05 -1.97611e-08)
(-2.65398e-07 -3.05262e-05 -1.78796e-08)
(-3.3385e-07 -3.38735e-05 -1.11048e-08)
(-3.63901e-07 -3.64888e-05 1.11966e-09)
(-3.46277e-07 -3.86074e-05 1.9778e-08)
(-2.80296e-07 -4.03699e-05 4.58121e-08)
(-1.7502e-07 -4.18579e-05 7.98454e-08)
(-4.95157e-08 -4.31165e-05 1.21832e-07)
(6.9581e-08 -4.41668e-05 1.70099e-07)
(1.53128e-07 -4.50156e-05 2.2152e-07)
(1.778e-07 -4.56608e-05 2.70343e-07)
(1.34755e-07 -4.60963e-05 3.09721e-07)
(3.58928e-08 -4.63155e-05 3.32093e-07)
(-8.4346e-08 -4.63138e-05 3.3201e-07)
(-1.81873e-07 -4.60909e-05 3.09514e-07)
(-2.22575e-07 -4.56518e-05 2.70004e-07)
(-1.94636e-07 -4.50036e-05 2.21131e-07)
(-1.07105e-07 -4.4152e-05 1.69689e-07)
(1.63674e-08 -4.30994e-05 1.21429e-07)
(1.4647e-07 -4.1839e-05 7.95024e-08)
(2.56489e-07 -4.03499e-05 4.55143e-08)
(3.27208e-07 -3.8587e-05 1.95795e-08)
(3.4944e-07 -3.64685e-05 1.00408e-09)
(3.23703e-07 -3.38546e-05 -1.1167e-08)
(2.59078e-07 -3.05093e-05 -1.78356e-08)
(1.70553e-07 -2.60228e-05 -1.96148e-08)
(7.90826e-08 -1.96136e-05 -1.66802e-08)
(8.49719e-09 -9.48537e-06 -7.88738e-09)
(-3.73485e-08 -9.27364e-06 -3.70628e-08)
(-3.16292e-07 -1.91791e-05 -7.14075e-08)
(-6.93721e-07 -2.54687e-05 -8.59478e-08)
(-1.11458e-06 -2.99079e-05 -9.34865e-08)
(-1.527e-06 -3.32647e-05 -9.78336e-08)
(-1.89028e-06 -3.59414e-05 -1.00678e-07)
(-2.16775e-06 -3.81681e-05 -1.02051e-07)
(-2.33103e-06 -4.00786e-05 -1.01485e-07)
(-2.36214e-06 -4.17465e-05 -9.81841e-08)
(-2.25606e-06 -4.32067e-05 -9.13403e-08)
(-2.02094e-06 -4.44663e-05 -8.07836e-08)
(-1.67707e-06 -4.55154e-05 -6.69581e-08)
(-1.25243e-06 -4.63338e-05 -5.19997e-08)
(-7.77138e-07 -4.6898e-05 -3.86736e-08)
(-2.7727e-07 -4.7186e-05 -3.06119e-08)
(2.29712e-07 -4.71843e-05 -3.07183e-08)
(7.30891e-07 -4.6893e-05 -3.89239e-08)
(1.20864e-06 -4.63258e-05 -5.23665e-08)
(1.63663e-06 -4.55045e-05 -6.74088e-08)
(1.98453e-06 -4.44529e-05 -8.12441e-08)
(2.22412e-06 -4.31916e-05 -9.18065e-08)
(2.33492e-06 -4.17302e-05 -9.86013e-08)
(2.3086e-06 -4.00616e-05 -1.01857e-07)
(2.15002e-06 -3.8151e-05 -1.02339e-07)
(1.87705e-06 -3.59248e-05 -1.00877e-07)
(1.51794e-06 -3.32492e-05 -9.79525e-08)
(1.10915e-06 -2.98945e-05 -9.35082e-08)
(6.91171e-07 -2.54579e-05 -8.58726e-08)
(3.15642e-07 -1.91718e-05 -7.12225e-08)
(3.74527e-08 -9.27071e-06 -3.68324e-08)
(-6.72027e-08 -8.78839e-06 -6.69489e-08)
(-5.58109e-07 -1.81913e-05 -1.27697e-07)
(-1.22505e-06 -2.41854e-05 -1.54448e-07)
(-1.9828e-06 -2.84469e-05 -1.72118e-07)
(-2.74925e-06 -3.17053e-05 -1.88744e-07)
(-3.45821e-06 -3.4343e-05 -2.08443e-07)
(-4.04514e-06 -3.65774e-05 -2.32427e-07)
(-4.45277e-06 -3.85332e-05 -2.60685e-07)
(-4.63419e-06 -4.0276e-05 -2.92229e-07)
(-4.55752e-06 -4.18308e-05 -3.25402e-07)
(-4.20978e-06 -4.31949e-05 -3.58037e-07)
(-3.60013e-06 -4.43475e-05 -3.87597e-07)
(-2.75983e-06 -4.52569e-05 -4.11836e-07)
(-1.74038e-06 -4.58887e-05 -4.28767e-07)
(-6.08425e-07 -4.62129e-05 -4.37344e-07)
(5.62128e-07 -4.62113e-05 -4.37434e-07)
(1.69535e-06 -4.58842e-05 -4.29018e-07)
(2.71715e-06 -4.52497e-05 -4.12227e-07)
(3.56075e-06 -4.43378e-05 -3.88043e-07)
(4.17445e-06 -4.31831e-05 -3.58506e-07)
(4.52667e-06 -4.18176e-05 -3.25905e-07)
(4.60801e-06 -4.02619e-05 -2.92697e-07)
(4.43136e-06 -3.85187e-05 -2.61076e-07)
(4.0284e-06 -3.6563e-05 -2.32784e-07)
(3.44586e-06 -3.43292e-05 -2.0871e-07)
(2.74093e-06 -3.16928e-05 -1.88901e-07)
(1.97795e-06 -2.84361e-05 -1.72193e-07)
(1.22286e-06 -2.41769e-05 -1.54418e-07)
(5.57643e-07 -1.81856e-05 -1.2753e-07)
(6.73397e-08 -8.78615e-06 -6.67177e-08)
(-9.58375e-08 -8.03631e-06 -9.5595e-08)
(-7.87925e-07 -1.6667e-05 -1.81628e-07)
(-1.72935e-06 -2.2196e-05 -2.20135e-07)
(-2.80785e-06 -2.61511e-05 -2.47811e-07)
(-3.91375e-06 -2.91991e-05 -2.76764e-07)
(-4.95687e-06 -3.16905e-05 -3.13439e-07)
(-5.84548e-06 -3.38244e-05 -3.60118e-07)
(-6.49383e-06 -3.57136e-05 -4.17316e-07)
(-6.82605e-06 -3.7415e-05 -4.83829e-07)
(-6.78314e-06 -3.89463e-05 -5.57038e-07)
(-6.33093e-06 -4.02994e-05 -6.32808e-07)
(-5.46675e-06 -4.14484e-05 -7.05445e-07)
(-4.22456e-06 -4.23575e-05 -7.68507e-07)
(-2.6769e-06 -4.29904e-05 -8.15299e-07)
(-9.30294e-07 -4.33154e-05 -8.4027e-07)
(8.85669e-07 -4.3314e-05 -8.40332e-07)
(2.63346e-06 -4.29864e-05 -8.15477e-07)
(4.18345e-06 -4.23511e-05 -7.688e-07)
(5.42875e-06 -4.14396e-05 -7.05831e-07)
(6.29681e-06 -4.02889e-05 -6.3323e-07)
(6.75332e-06 -3.89346e-05 -5.57474e-07)
(6.8008e-06 -3.74026e-05 -4.84272e-07)
(6.47329e-06 -3.57012e-05 -4.17706e-07)
(5.82949e-06 -3.38122e-05 -3.60477e-07)
(4.94516e-06 -3.16791e-05 -3.13735e-07)
(3.90596e-06 -2.91889e-05 -2.76987e-07)
(2.80338e-06 -2.61425e-05 -2.47935e-07)
(1.72737e-06 -2.21894e-05 -2.2014e-07)
(7.8754e-07 -1.66626e-05 -1.81482e-07)
(9.59784e-08 -8.03462e-06 -9.53728e-08)
(-1.20725e-07 -7.04098e-06 -1.20507e-07)
(-9.85963e-07 -1.46552e-05 -2.28487e-07)
(-2.16448e-06 -1.95642e-05 -2.77282e-07)
(-3.52281e-06 -2.30935e-05 -3.13822e-07)
(-4.92815e-06 -2.58254e-05 -3.53836e-07)
(-6.26917e-06 -2.80682e-05 -4.05873e-07)
(-7.42938e-06 -2.99976e-05 -4.73092e-07)
(-8.29636e-06 -3.1713e-05 -5.56357e-07)
(-8.76723e-06 -3.32628e-05 -6.543e-07)
(-8.75833e-06 -3.46608e-05 -7.6326e-07)
(-8.2157e-06 -3.58965e-05 -8.7718e-07)
(-7.12619e-06 -3.69446e-05 -9.87624e-07)
(-5.52686e-06 -3.77723e-05 -1.0845e-06)
(-3.50942e-06 -3.83469e-05 -1.15705e-06)
(-1.21616e-06 -3.86412e-05 -1.19602e-06)
(1.17387e-06 -3.86399e-05 -1.19607e-06)
(3.46814e-06 -3.83431e-05 -1.15723e-06)
(5.48762e-06 -3.77664e-05 -1.08476e-06)
(7.08984e-06 -3.69368e-05 -9.87946e-07)
(8.18298e-06 -3.58874e-05 -8.77567e-07)
(8.72968e-06 -3.46507e-05 -7.63663e-07)
(8.74301e-06 -3.32524e-05 -6.54707e-07)
(8.27663e-06 -3.17025e-05 -5.5676e-07)
(7.41402e-06 -2.99874e-05 -4.73454e-07)
(6.25799e-06 -2.80588e-05 -4.06181e-07)
(4.92073e-06 -2.58172e-05 -3.54079e-07)
(3.51856e-06 -2.30867e-05 -3.13934e-07)
(2.16271e-06 -1.9559e-05 -2.77292e-07)
(9.85672e-07 -1.46518e-05 -2.28363e-07)
(1.20876e-07 -7.03974e-06 -1.20292e-07)
(-1.39141e-07 -5.84884e-06 -1.38949e-07)
(-1.13181e-06 -1.22493e-05 -2.63103e-07)
(-2.48774e-06 -1.64117e-05 -3.19391e-07)
(-4.06075e-06 -1.94149e-05 -3.62494e-07)
(-5.70173e-06 -2.17403e-05 -4.11006e-07)
(-7.28196e-06 -2.36466e-05 -4.75069e-07)
(-8.66378e-06 -2.52836e-05 -5.58619e-07)
(-9.71169e-06 -2.6736e-05 -6.62732e-07)
(-1.02996e-05 -2.80451e-05 -7.85645e-07)
(-1.03229e-05 -2.92219e-05 -9.22726e-07)
(-9.71134e-06 -3.02575e-05 -1.06635e-06)
(-8.44397e-06 -3.11309e-05 -1.20583e-06)
(-6.56092e-06 -3.18165e-05 -1.32825e-06)
(-4.16993e-06 -3.22898e-05 -1.42001e-06)
(-1.4425e-06 -3.25311e-05 -1.46938e-06)
(1.40298e-06 -3.253e-05 -1.4694e-06)
(4.13128e-06 -3.22866e-05 -1.42013e-06)
(6.52409e-06 -3.18115e-05 -1.32844e-06)
(8.40973e-06 -3.11242e-05 -1.20608e-06)
(9.68036e-06 -3.02497e-05 -1.06665e-06)
(1.02957e-05 -2.92134e-05 -9.2306e-07)
(1.02765e-05 -2.80363e-05 -7.86008e-07)
(9.69283e-06 -2.67273e-05 -6.63092e-07)
(8.64913e-06 -2.52753e-05 -5.58947e-07)
(7.27132e-06 -2.3639e-05 -4.75352e-07)
(5.69469e-06 -2.17338e-05 -4.11257e-07)
(4.05674e-06 -1.94096e-05 -3.62635e-07)
(2.48606e-06 -1.64078e-05 -3.19419e-07)
(1.13154e-06 -1.22469e-05 -2.62993e-07)
(1.39285e-07 -5.84802e-06 -1.38747e-07)
(-1.48124e-07 -4.53003e-06 -1.47955e-07)
(-1.20465e-06 -9.58814e-06 -2.79769e-07)
(-2.65772e-06 -1.2917e-05 -3.39233e-07)
(-4.35915e-06 -1.53217e-05 -3.85162e-07)
(-6.15181e-06 -1.71739e-05 -4.38079e-07)
(-7.89405e-06 -1.86794e-05 -5.09217e-07)
(-9.43157e-06 -1.99608e-05 -6.03086e-07)
(-1.06106e-05 -2.10881e-05 -7.20775e-07)
(-1.12873e-05 -2.20964e-05 -8.60138e-07)
(-1.13413e-05 -2.29953e-05 -1.01572e-06)
(-1.06909e-05 -2.37793e-05 -1.17867e-06)
(-9.30994e-06 -2.44343e-05 -1.33674e-06)
(-7.24136e-06 -2.49437e-05 -1.47527e-06)
(-4.60455e-06 -2.52922e-05 -1.57892e-06)
(-1.59101e-06 -2.54689e-05 -1.6346e-06)
(1.55481e-06 -2.5468e-05 -1.63461e-06)
(4.56909e-06 -2.52896e-05 -1.57899e-06)