/*--------------------------------*- C++ -*----------------------------------*\
| =========                 |                                                 |
| \\      /  F ield         | OpenFOAM: The Open Source CFD Toolbox           |
|  \\    /   O peration     | Version:  v1906                                 |
|   \\  /    A nd           | Web:      www.OpenFOAM.com                      |
|    \\/     M anipulation  |                                                 |
\*---------------------------------------------------------------------------*/
FoamFile
{
    version     2.0;
    format      ascii;
    class       volScalarField;
    location    "24";
    object      alphat;
}
// * * * * * * * * * * * * * * * * * * * * * * * * * * * * * * * * * * * * * //

dimensions      [1 -1 -1 0 0 0 0];


internalField   nonuniform List<scalar> 
78750
(
3.6636e-07
1.00903e-05
1.06706e-05
1.0652e-05
1.04031e-05
1.00431e-05
9.65964e-06
9.29607e-06
8.96476e-06
8.66476e-06
8.39243e-06
8.14577e-06
7.92291e-06
7.72151e-06
7.53869e-06
7.37143e-06
7.21662e-06
7.07102e-06
6.93136e-06
6.79431e-06
6.65652e-06
6.5116e-06
6.35388e-06
6.17648e-06
5.97131e-06
5.72876e-06
5.4372e-06
5.08263e-06
4.6485e-06
4.12003e-06
3.49048e-06
2.76728e-06
1.97329e-06
1.17139e-06
1.66173e-08
6.31898e-08
6.47868e-06
1.36654e-05
2.38833e-05
3.03564e-05
3.23963e-05
3.4175e-05
3.59925e-05
3.71188e-05
3.76484e-05
3.79636e-05
3.81957e-05
3.8335e-05
3.83891e-05
3.83797e-05
3.83285e-05
3.82664e-05
3.8224e-05
3.82311e-05
3.83146e-05
3.84605e-05
3.86263e-05
3.87753e-05
3.88266e-05
3.86199e-05
3.78678e-05
3.61053e-05
3.27161e-05
2.74416e-05
2.11003e-05
1.5327e-05
1.15348e-05
1.02571e-05
5.90094e-06
4.15873e-08
8.1988e-08
6.95853e-06
1.27499e-05
1.35684e-05
1.37632e-05
1.48268e-05
1.72676e-05
2.17903e-05
2.83221e-05
2.81322e-05
2.80812e-05
2.81363e-05
2.82746e-05
2.84815e-05
2.87477e-05
2.90662e-05
2.94315e-05
2.98382e-05
3.02796e-05
3.0747e-05
3.12281e-05
3.17055e-05
3.21567e-05
3.25527e-05
3.2857e-05
3.30235e-05
3.25357e-05
2.80537e-05
2.359e-05
1.97005e-05
1.68661e-05
1.59598e-05
1.71361e-05
4.95966e-06
4.89826e-08
6.17256e-08
8.21784e-06
1.95978e-05
1.73443e-05
1.58261e-05
1.59548e-05
1.85943e-05
2.5508e-05
2.77768e-05
2.71932e-05
2.66159e-05
2.60742e-05
2.55856e-05
2.51611e-05
2.48077e-05
2.45305e-05
2.43344e-05
2.42243e-05
2.42045e-05
2.42788e-05
2.44506e-05
2.47225e-05
2.50939e-05
2.55559e-05
2.60833e-05
2.66243e-05
2.70961e-05
2.37597e-05
1.8912e-05
1.52754e-05
1.33504e-05
1.3934e-05
1.86699e-05
5.19572e-06
5.04701e-08
5.68396e-08
5.04194e-06
2.09352e-05
2.09311e-05
1.83589e-05
1.69692e-05
1.66111e-05
1.69466e-05
1.79917e-05
1.99781e-05
2.06877e-05
1.9669e-05
1.88387e-05
1.81992e-05
1.77277e-05
1.73945e-05
1.71709e-05
1.70315e-05
1.69577e-05
1.69408e-05
1.69837e-05
1.7102e-05
1.73255e-05
1.76945e-05
1.74256e-05
1.57112e-05
1.45945e-05
1.3843e-05
1.33458e-05
1.32148e-05
1.38994e-05
1.62876e-05
1.77839e-05
3.89321e-06
5.38045e-08
4.73875e-08
4.4272e-06
1.97752e-05
2.1633e-05
1.67555e-05
1.41404e-05
1.32153e-05
1.32886e-05
1.40778e-05
1.56839e-05
1.81008e-05
1.76693e-05
1.70553e-05
1.66598e-05
1.646e-05
1.64114e-05
1.64567e-05
1.65342e-05
1.65862e-05
1.65642e-05
1.64331e-05
1.6175e-05
1.57952e-05
1.31536e-05
1.0599e-05
8.77294e-06
7.58082e-06
6.93214e-06
6.74647e-06
6.99862e-06
7.90872e-06
1.03129e-05
1.43055e-05
3.53916e-06
5.34094e-08
4.4955e-08
3.45405e-06
1.62743e-05
2.06583e-05
1.82607e-05
1.51686e-05
1.36305e-05
1.30859e-05
1.31033e-05
1.34564e-05
1.40084e-05
1.4591e-05
1.49863e-05
1.51348e-05
1.53538e-05
1.61481e-05
1.68753e-05
1.73876e-05
1.78175e-05
1.80978e-05
1.81767e-05
1.80151e-05
1.7587e-05
1.57353e-05
1.12181e-05
7.93575e-06
5.79121e-06
4.51901e-06
4.00719e-06
4.23023e-06
5.32292e-06
7.90541e-06
1.07005e-05
2.77451e-06
5.81031e-08
4.15697e-08
3.05041e-06
1.40482e-05
1.94202e-05
1.6881e-05
1.3184e-05
1.13148e-05
1.05358e-05
1.03368e-05
1.04362e-05
1.06358e-05
1.07951e-05
1.09321e-05
1.12748e-05
1.21183e-05
1.37255e-05
1.6354e-05
1.97374e-05
2.04568e-05
2.09839e-05
2.12824e-05
2.13179e-05
2.10563e-05
2.04672e-05
1.51554e-05
1.04154e-05
6.98947e-06
4.69978e-06
3.37868e-06
2.90518e-06
3.28554e-06
5.03315e-06
9.3942e-06
2.54496e-06
6.04244e-08
3.94387e-08
2.64222e-06
1.1151e-05
1.83932e-05
1.67878e-05
1.27844e-05
1.05718e-05
9.47252e-06
8.91076e-06
8.58308e-06
8.37204e-06
8.34385e-06
8.6943e-06
9.63297e-06
1.13468e-05
1.41008e-05
1.81506e-05
2.11646e-05
2.19518e-05
2.25377e-05
2.29e-05
2.30121e-05
2.28408e-05
2.23489e-05
1.81345e-05
1.24387e-05
8.16623e-06
5.2414e-06
3.45124e-06
2.61179e-06
2.66812e-06
4.07483e-06
8.55152e-06
2.29127e-06
6.56274e-08
3.64397e-08
2.40301e-06
9.69416e-06
1.73957e-05
1.59943e-05
1.15431e-05
9.09104e-06
7.78146e-06
7.00118e-06
6.54206e-06
6.43713e-06
6.82106e-06
7.83696e-06
9.61102e-06
1.22984e-05
1.61497e-05
2.11024e-05
2.30692e-05
2.38434e-05
2.44262e-05
2.48086e-05
2.4971e-05
2.48813e-05
2.44964e-05
2.07442e-05
1.4689e-05
9.74483e-06
6.16856e-06
3.87544e-06
2.6633e-06
2.37202e-06
3.29122e-06
7.94277e-06
2.24769e-06
7.0142e-08
3.33112e-08
2.1984e-06
8.29522e-06
1.64324e-05
1.5809e-05
1.10065e-05
8.15479e-06
6.5335e-06
5.59473e-06
5.20955e-06
5.42209e-06
6.3141e-06
7.98598e-06
1.05501e-05
1.42201e-05
1.91417e-05
2.30754e-05
2.39452e-05
2.46415e-05
2.51739e-05
2.55388e-05
2.5717e-05
2.56732e-05
2.5359e-05
2.10374e-05
1.51013e-05
1.02004e-05
6.52622e-06
4.09583e-06
2.76133e-06
2.36374e-06
3.1797e-06
7.91533e-06
2.15377e-06
7.51478e-08
3.06787e-08
2.07946e-06
7.59101e-06
1.54285e-05
1.41631e-05
9.22789e-06
6.47248e-06
5.04306e-06
4.43406e-06
4.52023e-06
5.3148e-06
6.8929e-06
9.31952e-06
1.26833e-05
1.71195e-05
2.23584e-05
2.4273e-05
2.50052e-05
2.5602e-05
2.60774e-05
2.64286e-05
2.66353e-05
2.6659e-05
2.64461e-05
2.10136e-05
1.56151e-05
1.09503e-05
7.17454e-06
4.5264e-06
2.99585e-06
2.44479e-06
3.11724e-06
7.93506e-06
2.13265e-06
7.74003e-08
2.87003e-08
1.95288e-06
6.86523e-06
1.43537e-05
1.21319e-05
7.39976e-06
5.03521e-06
4.05291e-06
3.94807e-06
4.57866e-06
5.95592e-06
8.12435e-06
1.10728e-05
1.48239e-05
1.9409e-05
2.37768e-05
2.44967e-05
2.51035e-05
2.56218e-05
2.60619e-05
2.64169e-05
2.66629e-05
2.67602e-05
2.38712e-05
1.90179e-05
1.47023e-05
1.08911e-05
7.58734e-06
5.05839e-06
3.45525e-06
2.80732e-06
3.47011e-06
8.62236e-06
2.15111e-06
7.86502e-08
2.75263e-08
1.80861e-06
6.27345e-06
1.30207e-05
9.04834e-06
5.37659e-06
3.95963e-06
3.69758e-06
4.20475e-06
5.39853e-06
7.29334e-06
9.80355e-06
1.28255e-05
1.63664e-05
2.04695e-05
2.40803e-05
2.46587e-05
2.51787e-05
2.56543e-05
2.60865e-05
2.64613e-05
2.67513e-05
2.60561e-05
2.15386e-05
1.74174e-05
1.39264e-05
1.08139e-05
8.0062e-06
5.67185e-06
4.04234e-06
3.30689e-06
3.97062e-06
9.59446e-06
2.26259e-06
7.93178e-08
2.7351e-08
1.68228e-06
6.03019e-06
1.20224e-05
7.11657e-06
4.58473e-06
3.91312e-06
4.16086e-06
5.04512e-06
6.47842e-06
8.38737e-06
1.06307e-05
1.32015e-05
1.62489e-05
1.99127e-05
2.33618e-05
2.38846e-05
2.43867e-05
2.48713e-05
2.5331e-05
2.57452e-05
2.60813e-05
2.28153e-05
1.85162e-05
1.50032e-05
1.22012e-05
9.85127e-06
7.79294e-06
5.99784e-06
4.62773e-06
4.00676e-06
4.92983e-06
1.11607e-05
2.37045e-06
8.03315e-08
2.62123e-08
1.5893e-06
5.90493e-06
1.16545e-05
6.7528e-06
4.62911e-06
4.21955e-06
4.58654e-06
5.43601e-06
6.67134e-06
8.24186e-06
1.01207e-05
1.24117e-05
1.53017e-05
1.88895e-05
2.23512e-05
2.28765e-05
2.3396e-05
2.39122e-05
2.44167e-05
2.48849e-05
2.41594e-05
1.99242e-05
1.60444e-05
1.29706e-05
1.05837e-05
8.70871e-06
7.19974e-06
5.92546e-06
4.94764e-06
4.61019e-06
5.95307e-06
1.20675e-05
2.42026e-06
8.07381e-08
2.2574e-08
1.49774e-06
5.3286e-06
1.13941e-05
8.01832e-06
5.35842e-06
4.64658e-06
4.70845e-06
5.16046e-06
5.92302e-06
7.06054e-06
8.59855e-06
1.06456e-05
1.33821e-05
1.6953e-05
2.07572e-05
2.12634e-05
2.17723e-05
2.22986e-05
2.28404e-05
2.33719e-05
2.1231e-05
1.72811e-05
1.38724e-05
1.11937e-05
9.14251e-06
7.62316e-06
6.5356e-06
5.71617e-06
5.16439e-06
5.22107e-06
7.12449e-06
1.21362e-05
2.44191e-06
8.22169e-08
1.85594e-08
1.47485e-06
5.07309e-06
1.09722e-05
9.44017e-06
6.13215e-06
4.98643e-06
4.70273e-06
4.83732e-06
5.31519e-06
6.21602e-06
7.54737e-06
9.36128e-06
1.17704e-05
1.49319e-05
1.86894e-05
1.97356e-05
2.01536e-05
2.06218e-05
2.11499e-05
2.17143e-05
1.86944e-05
1.52008e-05
1.23051e-05
9.98684e-06
8.16421e-06
6.82361e-06
5.93717e-06
5.37429e-06
5.1225e-06
5.5035e-06
7.81749e-06
1.16439e-05
2.41936e-06
8.52869e-08
1.61833e-08
1.5031e-06
5.19105e-06
1.05401e-05
1.04198e-05
6.67663e-06
5.20006e-06
4.68876e-06
4.66073e-06
5.01976e-06
5.80658e-06
6.97537e-06
8.50118e-06
1.04151e-05
1.28462e-05
1.58807e-05
1.79838e-05
1.82683e-05
1.86333e-05
1.9099e-05
1.91876e-05
1.58427e-05
1.29438e-05
1.07007e-05
8.8859e-06
7.38597e-06
6.24147e-06
5.49337e-06
5.08363e-06
5.03622e-06
5.67748e-06
8.32858e-06
1.12047e-05
2.40926e-06
9.05245e-08
1.52969e-08
1.54207e-06
5.506e-06
1.0213e-05
1.03184e-05
6.60617e-06
5.10935e-06
4.58754e-06
4.57525e-06
4.96578e-06
5.7351e-06
6.78045e-06
8.02126e-06
9.44654e-06
1.11746e-05
1.34332e-05
1.62111e-05
1.68907e-05
1.71438e-05
1.74872e-05
1.60827e-05
1.30602e-05
1.075e-05
9.11359e-06
7.82383e-06
6.69919e-06
5.76911e-06
5.1153e-06
4.75601e-06
4.77408e-06
5.5168e-06
8.3049e-06
1.0715e-05
2.36383e-06
9.69082e-08
1.52198e-08
1.55587e-06
5.74032e-06
1.00328e-05
9.7969e-06
6.37214e-06
5.01943e-06
4.58278e-06
4.62832e-06
5.0385e-06
5.73323e-06
6.57573e-06
7.48554e-06
8.49173e-06
9.75385e-06
1.15163e-05
1.3926e-05
1.64964e-05
1.6712e-05
1.69212e-05
1.40495e-05
1.10325e-05
8.93316e-06
7.62297e-06
6.7312e-06
5.99327e-06
5.35354e-06
4.8564e-06
4.56643e-06
4.62723e-06
5.42651e-06
8.31897e-06
1.03735e-05
2.33309e-06
1.03505e-07
1.5396e-08
1.54884e-06
5.86971e-06
9.94009e-06
9.31328e-06
6.1912e-06
5.00417e-06
4.65779e-06
4.74361e-06
5.13558e-06
5.72835e-06
6.40002e-06
7.1203e-06
7.97744e-06
9.16231e-06
1.09172e-05
1.33945e-05
1.62497e-05
1.81328e-05
1.74748e-05
1.42709e-05
1.07325e-05
8.24059e-06
6.76393e-06
5.91164e-06
5.35598e-06
4.93067e-06
4.57659e-06
4.34168e-06
4.41236e-06
5.22717e-06
8.21517e-06
9.95213e-06
2.28284e-06
1.09308e-07
1.55602e-08
1.52068e-06
5.78834e-06
9.94911e-06
9.53463e-06
6.39631e-06
5.22995e-06
4.89259e-06
4.94985e-06
5.25709e-06
5.73079e-06
6.28479e-06
6.93406e-06
7.79659e-06
9.07275e-06
1.1021e-05
1.3849e-05
1.7291e-05
1.99874e-05
1.98437e-05
1.62968e-05
1.18359e-05
8.56094e-06
6.58786e-06
5.48212e-06
4.89001e-06
4.58743e-06
4.39599e-06
4.26949e-06
4.38281e-06
5.21926e-06
8.30092e-06
9.57255e-06
2.23782e-06
1.12247e-07
1.49568e-08
1.46671e-06
5.42425e-06
9.87723e-06
1.07282e-05
7.09879e-06
5.7121e-06
5.25442e-06
5.1954e-06
5.3591e-06
5.70032e-06
6.16003e-06
6.75591e-06
7.59509e-06
8.87608e-06
1.09042e-05
1.40262e-05
1.81486e-05
2.14493e-05
2.18938e-05
1.86919e-05
1.34923e-05
9.5082e-06
6.98551e-06
5.46245e-06
4.60887e-06
4.22267e-06
4.09283e-06
4.06812e-06
4.26187e-06
5.18217e-06
8.47405e-06
9.22282e-06
2.21399e-06
1.13455e-07
1.34895e-08
1.40604e-06
4.89075e-06
9.66078e-06
1.09529e-05
8.34152e-06
6.51549e-06
5.76008e-06
5.47172e-06
5.41968e-06
5.56095e-06
5.87231e-06
6.35235e-06
7.07596e-06
8.22496e-06
1.01501e-05
1.3383e-05
1.80815e-05
2.13993e-05
2.208e-05
1.92892e-05
1.41319e-05
1.02771e-05
7.69352e-06
5.9026e-06
4.70683e-06
4.06226e-06
3.86392e-06
3.91774e-06
4.21418e-06
5.19305e-06
8.51119e-06
9.08009e-06
2.20511e-06
1.14099e-07
1.16957e-08
1.36698e-06
4.54243e-06
9.20181e-06
1.05358e-05
9.49202e-06
7.27067e-06
6.18643e-06
5.64912e-06
5.39409e-06
5.36777e-06
5.56595e-06
5.96881e-06
6.61615e-06
7.65782e-06
9.44688e-06
1.26297e-05
1.76473e-05
2.14069e-05
2.21278e-05
1.84937e-05
1.34929e-05
1.02425e-05
8.26348e-06
6.7919e-06
5.48805e-06
4.44657e-06
3.84958e-06
3.68294e-06
3.94884e-06
4.96784e-06
8.2461e-06
9.582e-06
2.29389e-06
1.23163e-07
1.06706e-08
1.3674e-06
4.49516e-06
8.81444e-06
1.0143e-05
1.00921e-05
7.57141e-06
6.23432e-06
5.53388e-06
5.19281e-06
5.1398e-06
5.33645e-06
5.73315e-06
6.35176e-06
7.34406e-06
9.08583e-06
1.2291e-05
1.75755e-05
2.19725e-05
2.26522e-05
1.76761e-05
1.23123e-05
9.23318e-06
7.73315e-06
6.95387e-06
6.28392e-06
5.46544e-06
4.6304e-06
4.05397e-06
3.96167e-06
4.70056e-06
7.62577e-06
1.00267e-05
2.35009e-06
1.37287e-07
1.02593e-08
1.38194e-06
4.62124e-06
8.55902e-06
9.86732e-06
9.77242e-06
7.3409e-06
6.07795e-06
5.45811e-06
5.20735e-06
5.22828e-06
5.42982e-06
5.75655e-06
6.27048e-06
7.19472e-06
8.97815e-06
1.24143e-05
1.81468e-05
2.24076e-05
2.30261e-05
1.63391e-05
1.07331e-05
7.89623e-06
6.7697e-06
6.50896e-06
6.50665e-06
6.27453e-06
5.64814e-06
4.93833e-06
4.58538e-06
5.1017e-06
7.93072e-06
1.03957e-05
2.40804e-06
1.51755e-07
9.3026e-09
1.39619e-06
4.62614e-06
8.39134e-06
9.72573e-06
9.70825e-06
7.46138e-06
6.28677e-06
5.70545e-06
5.43765e-06
5.35236e-06
5.35933e-06
5.47251e-06
5.85536e-06
6.79788e-06
8.77285e-06
1.25994e-05
1.88468e-05
2.28517e-05
2.30098e-05
1.54111e-05
9.53685e-06
6.68635e-06
5.66398e-06
5.69996e-06
6.2815e-06
6.72234e-06
6.47448e-06
5.76375e-06
5.2638e-06
5.73485e-06
8.90967e-06
9.9206e-06
2.37533e-06
1.58437e-07
7.6005e-09
1.45604e-06
4.69074e-06
8.12966e-06
9.49893e-06
1.00983e-05
7.87458e-06
6.5939e-06
5.85016e-06
5.35433e-06
4.99803e-06
4.79073e-06
4.859e-06
5.41336e-06
6.74828e-06
9.34907e-06
1.39779e-05
2.06755e-05
2.40206e-05
2.37604e-05
1.58378e-05
9.42205e-06
6.17771e-06
4.91817e-06
4.84205e-06
5.52824e-06
6.42678e-06
6.90143e-06
6.72927e-06
6.43999e-06
7.10255e-06
1.08646e-05
9.25542e-06
2.33678e-06
1.61003e-07
6.36534e-09
1.59981e-06
5.18959e-06
7.95046e-06
9.30595e-06
1.03067e-05
7.96282e-06
6.37738e-06
5.35265e-06
4.64453e-06
4.23529e-06
4.19518e-06
4.67081e-06
5.89145e-06
8.21946e-06
1.21453e-05
1.78435e-05
2.39143e-05
2.56541e-05
2.36853e-05
1.54029e-05
8.97377e-06
5.74754e-06
4.53943e-06
4.59404e-06
5.42339e-06
6.33348e-06
6.82135e-06
6.93444e-06
7.17855e-06
8.61398e-06
1.33834e-05
8.18926e-06
2.26604e-06
1.5759e-07
5.55588e-09
1.71635e-06
5.58249e-06
7.72751e-06
9.00324e-06
9.87663e-06
7.69147e-06
5.89057e-06
4.74807e-06
4.09291e-06
3.94909e-06
4.38259e-06
5.55338e-06
7.7264e-06
1.11961e-05
1.59264e-05
2.10734e-05
2.52207e-05
2.68849e-05
2.41463e-05
1.66946e-05
9.54271e-06
5.5113e-06
3.83241e-06
3.67992e-06
4.64716e-06
6.17597e-06
7.36818e-06
7.88241e-06
8.48727e-06
1.05605e-05
1.50265e-05
7.22994e-06
2.17707e-06
1.45476e-07
5.19424e-09
1.83743e-06
5.87615e-06
7.55628e-06
8.72842e-06
9.42327e-06
6.6001e-06
4.71738e-06
3.77308e-06
3.59647e-06
4.12002e-06
5.42185e-06
7.76837e-06
1.1578e-05
1.69553e-05
2.26946e-05
2.68288e-05
2.79927e-05
2.88116e-05
2.70734e-05
2.26933e-05
1.56619e-05
8.89685e-06
4.88769e-06
3.26079e-06
3.19538e-06
4.17603e-06
5.75621e-06
7.32953e-06
8.88467e-06
1.15657e-05
1.52253e-05
7.04375e-06
2.17287e-06
1.43375e-07
6.16774e-09
1.80695e-06
5.8125e-06
7.49726e-06
8.2584e-06
5.68492e-06
3.78536e-06
3.16968e-06
3.39074e-06
4.35491e-06
6.17336e-06
9.12815e-06
1.3475e-05
1.88401e-05
2.39932e-05
2.73289e-05
2.84251e-05
2.93433e-05
3.00172e-05
2.92323e-05
2.43218e-05
1.80046e-05
1.18752e-05
7.11605e-06
4.22859e-06
3.04512e-06
3.13505e-06
4.20308e-06
6.00907e-06
8.35849e-06
1.16503e-05
1.49735e-05
7.16571e-06
2.22729e-06
1.50007e-07
8.22575e-09
1.55962e-06
5.60479e-06
7.25355e-06
5.21152e-06
3.5861e-06
3.23561e-06
3.70491e-06
4.96433e-06
7.14433e-06
1.04131e-05
1.46567e-05
1.92458e-05
2.3487e-05
2.56762e-05
2.68832e-05
2.81034e-05
2.92681e-05
3.02784e-05
3.10239e-05
2.94346e-05
2.32493e-05
1.62542e-05
1.02428e-05
6.02471e-06
3.63911e-06
2.71292e-06
2.88885e-06
4.0366e-06
6.26088e-06
1.00272e-05
1.42595e-05
7.29366e-06
2.28405e-06
1.60554e-07
9.75067e-09
1.43972e-06
6.04682e-06
7.33927e-06
4.1989e-06
3.34719e-06
3.50701e-06
4.40385e-06
6.05277e-06
8.46409e-06
1.15727e-05
1.52451e-05
1.9309e-05
2.33933e-05
2.49625e-05
2.6361e-05
2.77913e-05
2.91952e-05
3.0494e-05
3.15983e-05
2.91348e-05
2.4745e-05
1.95783e-05
1.42057e-05
9.34778e-06
5.71672e-06
3.59312e-06
2.7444e-06
2.95283e-06
4.23762e-06
7.19435e-06
1.25881e-05
7.5187e-06
2.32247e-06
1.72628e-07
9.95234e-09
1.40214e-06
6.10126e-06
7.48618e-06
4.17843e-06
3.43668e-06
3.66885e-06
4.58641e-06
6.18032e-06
8.46752e-06
1.14662e-05
1.51147e-05
1.91256e-05
2.23744e-05
2.36958e-05
2.51193e-05
2.66213e-05
2.81451e-05
2.96163e-05
3.09461e-05
2.89907e-05
2.50941e-05
2.05777e-05
1.59505e-05
1.15588e-05
7.79772e-06
5.05502e-06
3.4241e-06
2.85992e-06
3.34578e-06
5.33567e-06
1.05541e-05
7.74501e-06
2.33325e-06
1.82631e-07
8.51144e-09
1.3658e-06
5.84348e-06
7.24501e-06
4.84215e-06
3.74345e-06
3.72419e-06
4.33903e-06
5.5397e-06
7.31548e-06
9.71331e-06
1.27974e-05
1.65277e-05
2.04084e-05
2.18044e-05
2.33354e-05
2.49812e-05
2.66857e-05
2.83772e-05
2.99656e-05
2.81106e-05
2.46642e-05
2.06913e-05
1.66462e-05
1.27719e-05
9.281e-06
6.43148e-06
4.39215e-06
3.28256e-06
3.1699e-06
4.41348e-06
8.86735e-06
8.10113e-06
2.33583e-06
1.88338e-07
6.49762e-09
1.34848e-06
5.24044e-06
6.58993e-06
5.78293e-06
4.20489e-06
3.87456e-06
4.18231e-06
5.03124e-06
6.38933e-06
8.30518e-06
1.08809e-05
1.4195e-05
1.80462e-05
2.01232e-05
2.16435e-05
2.33089e-05
2.50731e-05
2.6872e-05
2.86167e-05
2.74582e-05
2.40815e-05
2.02516e-05
1.65266e-05
1.30842e-05
1.00051e-05
7.37468e-06
5.29759e-06
3.94338e-06
3.48112e-06
4.31006e-06
8.27972e-06
8.35837e-06
2.33066e-06
1.89589e-07
5.11901e-09
1.39028e-06
4.65467e-06
5.95397e-06
6.24707e-06
4.54472e-06
4.12245e-06
4.36308e-06
5.12601e-06
6.34148e-06
8.00955e-06
1.01807e-05
1.29491e-05
1.63197e-05
1.87121e-05
2.01739e-05
2.18126e-05
2.35876e-05
2.54404e-05
2.72851e-05
2.72531e-05
2.35372e-05
1.9542e-05
1.59585e-05
1.28344e-05
1.01298e-05
7.80792e-06
5.89348e-06
4.53177e-06
3.94302e-06
4.61069e-06
8.4978e-06
8.4967e-06
2.3293e-06
1.88396e-07
4.17757e-09
1.45012e-06
4.21346e-06
5.48572e-06
6.50519e-06
5.07258e-06
4.57038e-06
4.73851e-06
5.38634e-06
6.41753e-06
7.80418e-06
9.58254e-06
1.18691e-05
1.4781e-05
1.71269e-05
1.84824e-05
2.00361e-05
2.17662e-05
2.363e-05
2.55505e-05
2.6184e-05
2.21185e-05
1.81466e-05
1.48587e-05
1.2121e-05
9.82047e-06
7.86649e-06
6.24587e-06
5.05732e-06
4.53312e-06
5.27745e-06
9.48023e-06
8.31272e-06
2.31523e-06
1.83925e-07
3.33359e-09
1.51471e-06
3.80701e-06
5.02861e-06
6.04026e-06
5.50899e-06
5.00165e-06
5.12462e-06
5.68903e-06
6.59068e-06
7.77779e-06
9.24822e-06
1.10841e-05
1.34386e-05
1.55276e-05
1.66429e-05
1.79718e-05
1.9528e-05
2.12973e-05
2.32198e-05
2.43327e-05
2.01647e-05
1.65362e-05
1.37356e-05
1.14307e-05
9.46267e-06
7.76924e-06
6.38554e-06
5.41093e-06
5.06832e-06
6.03757e-06
1.06486e-05
8.18105e-06
2.32237e-06
1.81688e-07
2.66457e-09
1.56157e-06
3.44538e-06
4.6228e-06
5.6511e-06
5.83771e-06
5.5174e-06
5.7214e-06
6.27818e-06
7.05956e-06
7.97753e-06
8.99786e-06
1.01836e-05
1.17403e-05
1.37726e-05
1.45666e-05
1.55977e-05
1.69273e-05
1.857e-05
2.04814e-05
2.13941e-05
1.74565e-05
1.45135e-05
1.24271e-05
1.07225e-05
9.17424e-06
7.74673e-06
6.54459e-06
5.72266e-06
5.54261e-06
6.75683e-06
1.16626e-05
8.02679e-06
2.33079e-06
1.79341e-07
2.13218e-09
1.573e-06
3.168e-06
4.3343e-06
5.41376e-06
6.3599e-06
6.33752e-06
6.60605e-06
7.0208e-06
7.4651e-06
7.88084e-06
8.26692e-06
8.68452e-06
9.30067e-06
1.0396e-05
1.15104e-05
1.21265e-05
1.31579e-05
1.46677e-05
1.66213e-05
1.68342e-05
1.39586e-05
1.2084e-05
1.08339e-05
9.78368e-06
8.69914e-06
7.59e-06
6.6171e-06
5.98367e-06
5.99629e-06
7.47675e-06
1.2558e-05
8.00495e-06
2.36123e-06
1.79499e-07
1.5549e-09
1.66661e-06
2.94213e-06
4.09257e-06
5.16398e-06
6.1449e-06
6.99041e-06
7.3779e-06
7.43752e-06
7.41158e-06
7.30444e-06
7.12329e-06
6.89929e-06
6.72038e-06
6.7716e-06
7.32656e-06
7.61708e-06
8.20046e-06
9.49059e-06
1.14954e-05
1.13638e-05
1.01855e-05
9.60936e-06
9.28994e-06
8.92057e-06
8.29932e-06
7.45687e-06
6.6201e-06
6.07285e-06
6.17829e-06
7.7895e-06
1.29006e-05
8.07339e-06
2.39604e-06
1.7909e-07
9.33515e-10
1.44249e-06
2.59892e-06
3.63083e-06
4.55593e-06
5.35592e-06
5.99897e-06
6.4633e-06
6.74664e-06
6.7472e-06
6.3158e-06
5.76341e-06
5.10215e-06
4.3617e-06
3.60666e-06
2.97717e-06
2.58797e-06
2.61076e-06
3.49499e-06
5.32625e-06
5.69522e-06
6.18465e-06
6.77039e-06
7.32347e-06
7.69576e-06
7.69671e-06
7.30311e-06
6.72832e-06
6.31143e-06
6.50483e-06
8.23527e-06
1.33944e-05
8.2536e-06
2.45161e-06
1.80664e-07
9.49192e-10
1.15415e-06
2.08565e-06
2.9095e-06
3.62767e-06
4.2264e-06
4.68123e-06
4.97319e-06
5.05617e-06
4.83345e-06
4.52627e-06
4.12147e-06
3.55741e-06
2.76046e-06
1.66944e-06
4.10245e-07
8.13083e-08
9.24916e-07
6.79126e-08
2.41937e-06
1.23448e-06
2.73839e-06
4.11429e-06
5.31654e-06
6.28684e-06
6.84468e-06
6.89619e-06
6.60052e-06
6.31036e-06
6.52774e-06
8.22091e-06
1.33908e-05
8.69833e-06
2.53272e-06
1.84562e-07
1.38144e-09
9.73936e-07
1.72158e-06
2.39011e-06
2.94245e-06
2.81077e-06
2.67594e-06
2.57456e-06
2.5172e-06
2.50699e-06
2.53702e-06
2.58008e-06
2.58085e-06
2.4483e-06
2.05592e-06
1.26783e-06
1.75763e-07
7.04894e-07
1.13816e-07
1.07114e-06
1.72279e-07
3.3996e-07
1.59657e-06
3.15277e-06
4.63539e-06
5.82693e-06
6.49232e-06
6.61788e-06
6.53633e-06
6.83344e-06
8.56443e-06
1.37565e-05
9.25892e-06
2.63991e-06
1.94533e-07
1.89901e-09
6.39749e-07
1.24164e-06
1.61391e-06
1.8045e-06
1.98821e-06
2.25861e-06
2.64514e-06
3.1376e-06
3.69887e-06
4.26919e-06
4.76628e-06
5.09343e-06
5.15861e-06
4.90833e-06
4.35401e-06
3.54204e-06
2.46822e-06
1.19223e-06
9.32655e-08
6.98852e-07
5.51158e-07
1.10726e-06
1.05168e-06
2.61425e-06
4.25805e-06
5.55384e-06
6.28049e-06
6.54413e-06
6.92948e-06
8.58595e-06
1.36238e-05
9.90575e-06
2.75077e-06
2.12977e-07
3.39979e-09
7.40368e-07
1.22249e-06
1.63857e-06
2.14166e-06
2.84258e-06
3.82491e-06
5.12872e-06
6.69957e-06
8.33623e-06
9.73072e-06
1.05833e-05
1.07114e-05
1.01027e-05
8.93818e-06
7.53736e-06
6.18403e-06
5.00959e-06
3.99985e-06
3.02488e-06
2.00047e-06
1.01755e-06
3.17572e-07
3.98384e-07
1.45647e-06
3.02448e-06
4.57969e-06
5.79662e-06
6.57458e-06
7.30347e-06
9.12307e-06
1.40729e-05
1.04132e-05
2.85324e-06
2.41484e-07
5.01922e-09
1.06756e-06
1.55274e-06
2.14176e-06
3.01482e-06
4.30886e-06
6.13448e-06
8.49658e-06
1.11605e-05
1.35832e-05
1.51637e-05
1.55354e-05
1.4578e-05
1.24998e-05
9.95541e-06
7.64769e-06
5.89043e-06
4.68663e-06
3.939e-06
3.52492e-06
3.28906e-06
3.06815e-06
2.79556e-06
2.60728e-06
2.79488e-06
3.49409e-06
4.53705e-06
5.60024e-06
6.46003e-06
7.37581e-06
9.44375e-06
1.46927e-05
1.03809e-05
2.8823e-06
2.61927e-07
6.43385e-09
1.48244e-06
1.85471e-06
2.48415e-06
3.45128e-06
4.7925e-06
6.54041e-06
8.78639e-06
1.15241e-05
1.43153e-05
1.63615e-05
1.70339e-05
1.61e-05
1.37827e-05
1.0841e-05
8.10146e-06
5.93843e-06
4.36922e-06
3.31836e-06
2.72749e-06
2.55306e-06
2.71347e-06
3.03591e-06
3.30477e-06
3.54092e-06
3.98887e-06
4.76621e-06
5.73867e-06
6.73656e-06
7.97515e-06
1.05502e-05
1.60574e-05
9.81522e-06
2.85514e-06
2.65216e-07
5.26769e-09
1.71458e-06
1.67004e-06
2.05563e-06
2.76326e-06
3.81203e-06
5.32332e-06
7.53563e-06
1.06518e-05
1.44103e-05
1.78217e-05
1.98996e-05
2.02876e-05
1.89095e-05
1.59304e-05
1.22079e-05
8.81738e-06
6.19631e-06
4.28398e-06
2.94368e-06
2.11486e-06
1.78594e-06
1.90779e-06
2.32736e-06
2.82015e-06
3.39695e-06
4.22346e-06
5.29579e-06
6.4875e-06
8.03076e-06
1.10206e-05
1.66133e-05
9.47693e-06
2.83949e-06
2.72395e-07
3.71595e-09
1.72589e-06
1.72624e-06
2.16883e-06
2.89909e-06
3.92661e-06
5.36159e-06
7.38357e-06
1.01732e-05
1.38233e-05
1.8011e-05
2.15546e-05
2.30571e-05
2.21606e-05
1.95666e-05
1.61973e-05
1.25928e-05
9.16221e-06
6.33113e-06
4.22579e-06
2.7495e-06
1.84808e-06
1.54833e-06
1.81974e-06
2.42085e-06
3.10321e-06
3.92032e-06
5.04077e-06
6.49538e-06
8.49429e-06
1.20188e-05
1.72538e-05
9.06956e-06
2.83179e-06
2.80863e-07
3.94232e-09
2.06134e-06
1.99298e-06
2.35996e-06
2.96029e-06
3.78964e-06
4.9169e-06
6.44327e-06
8.57516e-06
1.16553e-05
1.56442e-05
1.92642e-05
2.06875e-05
1.9314e-05
1.60926e-05
1.27887e-05
1.04257e-05
8.93028e-06
7.63282e-06
5.94223e-06
4.10826e-06
2.61048e-06
1.64764e-06
1.33484e-06
1.63177e-06
2.29356e-06
3.15506e-06
4.27092e-06
5.80016e-06
8.08502e-06
1.19922e-05
1.71865e-05
9.00422e-06
2.85685e-06
2.99906e-07
2.09107e-09
1.44394e-06
1.70875e-06
1.96675e-06
2.3201e-06
2.83691e-06
3.63584e-06
4.89491e-06
6.88324e-06
9.94529e-06
1.4009e-05
1.75903e-05
1.88802e-05
1.78952e-05
1.55208e-05
1.26055e-05
9.93861e-06
8.04839e-06
7.02902e-06
6.49199e-06
5.65778e-06
4.28623e-06
2.9467e-06
2.06653e-06
1.79421e-06
2.05388e-06
2.70094e-06
3.71048e-06
5.21774e-06
7.58487e-06
1.1667e-05
1.6985e-05
8.96298e-06
2.89749e-06
3.22481e-07
3.35307e-09
6.86345e-07
1.1296e-06
1.57249e-06
2.15243e-06
2.98214e-06
4.18654e-06
5.94032e-06
8.46943e-06
1.1879e-05
1.56457e-05
1.84052e-05
1.91218e-05
1.78686e-05
1.5288e-05
1.23037e-05
9.7562e-06
8.00468e-06
7.08169e-06
6.86746e-06
6.86093e-06
6.14458e-06
4.69205e-06
3.35439e-06
2.55815e-06
2.33343e-06
2.59518e-06
3.31992e-06
4.65613e-06
7.02848e-06
1.13478e-05
1.67637e-05
8.72083e-06
2.88414e-06
3.49409e-07
6.29065e-09
8.15841e-07
1.50915e-06
2.32715e-06
3.38085e-06
4.83674e-06
6.93277e-06
9.89879e-06
1.35924e-05
1.7131e-05
1.95932e-05
2.06871e-05
2.0154e-05
1.75168e-05
1.32727e-05
9.43571e-06
7.09365e-06
6.07042e-06
6.02513e-06
6.72602e-06
7.68469e-06
7.81211e-06
6.61598e-06
5.05127e-06
3.87842e-06
3.23221e-06
3.08364e-06
3.45592e-06
4.52575e-06
6.74177e-06
1.11502e-05
1.70138e-05
8.52888e-06
2.86809e-06
3.73228e-07
9.23363e-09
9.85959e-07
1.86153e-06
2.92952e-06
4.34204e-06
6.26038e-06
8.6433e-06
1.11265e-05
1.34596e-05
1.57356e-05
1.79441e-05
1.95201e-05
1.92401e-05
1.59625e-05
1.11545e-05
7.54124e-06
5.65237e-06
5.06335e-06
5.41403e-06
6.37874e-06
7.45663e-06
8.02344e-06
7.73514e-06
6.79739e-06
5.69137e-06
4.77779e-06
4.25429e-06
4.29483e-06
5.17568e-06
7.4532e-06
1.243e-05
1.74393e-05
7.59243e-06
2.72935e-06
3.45729e-07
1.09071e-08
8.70011e-07
1.71626e-06
2.80986e-06
4.245e-06
6.10414e-06
8.4344e-06
1.12409e-05
1.4347e-05
1.72302e-05
1.92913e-05
2.02665e-05
2.00495e-05
1.8278e-05
1.46007e-05
1.01878e-05
6.98206e-06
5.42155e-06
5.15451e-06
5.80609e-06
6.8851e-06
7.73756e-06
7.93281e-06
7.49467e-06
6.69892e-06
5.85872e-06
5.25738e-06
5.17409e-06
5.9981e-06
8.47685e-06
1.41731e-05
1.72617e-05
6.8568e-06
2.5739e-06
3.01376e-07
1.36966e-08
9.35297e-07
1.99594e-06
3.49074e-06
5.51015e-06
8.03526e-06
1.07313e-05
1.32323e-05
1.55664e-05
1.78151e-05
1.96471e-05
2.0472e-05
1.98678e-05
1.76988e-05
1.42326e-05
1.03873e-05
7.29251e-06
5.48494e-06
4.94647e-06
5.50608e-06
6.81476e-06
8.13695e-06
8.69375e-06
8.39195e-06
7.62648e-06
6.79172e-06
6.19477e-06
6.14207e-06
7.09843e-06
1.00582e-05
1.65601e-05
1.6296e-05
6.24221e-06
2.42811e-06
2.68075e-07
1.3951e-08
1.15864e-06
2.53958e-06
4.40399e-06
6.47574e-06
8.17292e-06
9.45432e-06
1.08042e-05
1.26388e-05
1.50851e-05
1.77585e-05
1.96905e-05
1.98803e-05
1.79825e-05
1.4559e-05
1.07441e-05
7.53861e-06
5.43897e-06
4.53164e-06
4.76177e-06
5.98869e-06
7.67074e-06
8.76452e-06
8.80549e-06
8.19473e-06
7.48524e-06
7.05619e-06
7.2344e-06
8.54193e-06
1.2131e-05
1.86761e-05
1.50625e-05
5.81469e-06
2.31553e-06
2.42526e-07
1.19534e-08
1.32294e-06
2.77785e-06
4.48115e-06
6.13596e-06
7.48658e-06
8.54947e-06
9.54714e-06
1.0825e-05
1.26835e-05
1.50244e-05
1.70637e-05
1.77851e-05
1.67712e-05
1.43467e-05
1.11894e-05
8.06522e-06
5.63633e-06
4.2553e-06
4.00763e-06
4.87208e-06
6.59806e-06
8.22237e-06
8.85599e-06
8.57397e-06
7.98081e-06
7.61659e-06
7.92356e-06
9.49321e-06
1.34265e-05
1.92303e-05
1.41596e-05
5.60378e-06
2.2587e-06
2.26932e-07
9.19086e-09
1.19308e-06
2.51577e-06
3.93333e-06
5.1178e-06
5.86477e-06
6.32222e-06
6.87512e-06
7.93151e-06
9.75641e-06
1.21647e-05
1.42312e-05
1.50398e-05
1.46894e-05
1.36426e-05
1.18278e-05
9.15238e-06
6.32023e-06
4.22573e-06
3.27002e-06
3.54647e-06
5.03324e-06
7.13384e-06
8.60336e-06
8.89475e-06
8.60581e-06
8.41986e-06
8.8714e-06
1.05936e-05
1.4473e-05
1.90434e-05
1.35289e-05
5.51319e-06
2.23771e-06
2.13619e-07
7.15501e-09
1.10166e-06
2.38437e-06
3.64725e-06
4.54707e-06
5.1057e-06
5.63833e-06
6.51169e-06
8.02445e-06
1.02845e-05
1.28127e-05
1.44115e-05
1.44153e-05
1.36684e-05
1.33557e-05
1.35589e-05
1.29246e-05
1.01478e-05
6.47807e-06
3.81692e-06
2.70268e-06
3.10601e-06
4.86109e-06
7.20973e-06
8.81283e-06
9.2099e-06
9.16181e-06
9.57058e-06
1.12229e-05
1.48873e-05
1.90604e-05
1.41516e-05
5.85412e-06
2.32894e-06
2.14606e-07
6.02497e-09
1.26656e-06
2.45231e-06
3.33973e-06
3.91286e-06
4.42264e-06
5.19275e-06
6.53603e-06
8.72466e-06
1.16737e-05
1.42985e-05
1.51222e-05
1.40817e-05
1.24724e-05
1.16076e-05
1.19911e-05
1.31503e-05
1.33678e-05
1.08827e-05
6.91234e-06
3.90532e-06
2.6494e-06
3.13453e-06
5.04889e-06
7.53714e-06
9.36435e-06
1.02591e-05
1.10291e-05
1.27014e-05
1.60993e-05
1.99102e-05
1.54139e-05
6.34384e-06
2.42861e-06
2.15694e-07
4.16499e-09
1.10104e-06
1.94651e-06
2.48538e-06
2.96781e-06
3.64217e-06
4.72134e-06
6.46079e-06
9.15738e-06
1.26492e-05
1.54214e-05
1.58459e-05
1.43365e-05
1.24682e-05
1.14629e-05
1.18045e-05
1.33583e-05
1.50002e-05
1.46615e-05
1.14071e-05
7.17208e-06
4.11542e-06
2.88047e-06
3.46296e-06
5.54695e-06
8.14832e-06
1.01374e-05
1.16132e-05
1.3646e-05
1.72158e-05
2.12443e-05
1.74259e-05
7.11582e-06
2.59158e-06
2.25023e-07
3.38851e-09
1.01422e-06
1.76672e-06
2.42356e-06
3.21609e-06
4.33054e-06
5.98618e-06
8.59165e-06
1.2729e-05
1.79563e-05
2.09525e-05
1.94934e-05
1.57619e-05
1.26085e-05
1.10463e-05
1.11644e-05
1.29952e-05
1.60411e-05
1.8237e-05
1.69185e-05
1.23588e-05
7.62252e-06
4.53175e-06
3.3659e-06
4.06702e-06
6.4047e-06
9.41391e-06
1.20801e-05
1.4641e-05
1.81248e-05
2.22332e-05
1.93304e-05
7.75266e-06
2.69458e-06
2.29366e-07
2.18494e-09
1.54403e-06
2.22516e-06
2.9605e-06
3.9115e-06
5.16076e-06
6.94735e-06
9.84557e-06
1.45517e-05
2.0186e-05
2.29431e-05
2.10202e-05
1.70322e-05
1.38578e-05
1.21482e-05
1.16756e-05
1.23803e-05
1.43683e-05
1.71475e-05
1.87032e-05
1.67489e-05
1.21454e-05
7.77698e-06
5.02028e-06
4.05233e-06
4.91005e-06
7.3337e-06
1.05539e-05
1.42686e-05
1.88649e-05
2.3426e-05
2.07476e-05
8.42199e-06
2.84915e-06
2.42362e-07
2.70964e-09
2.38996e-06
2.55443e-06
2.96139e-06
3.54421e-06
4.37876e-06
5.75296e-06
8.27518e-06
1.28704e-05
1.89965e-05
2.18262e-05
1.96424e-05
1.5958e-05
1.30168e-05
1.1129e-05
1.00921e-05
9.79102e-06
1.02887e-05
1.17876e-05
1.42453e-05
1.6352e-05
1.5482e-05
1.16082e-05
7.72744e-06
5.36239e-06
4.74129e-06
6.04291e-06
9.05282e-06
1.28843e-05
1.73456e-05
2.26397e-05
2.22904e-05
8.99917e-06
2.92452e-06
2.57927e-07