/*--------------------------------*- C++ -*----------------------------------*\
| =========                 |                                                 |
| \\      /  F ield         | OpenFOAM: The Open Source CFD Toolbox           |
|  \\    /   O peration     | Version:  v1906                                 |
|   \\  /    A nd           | Web:      www.OpenFOAM.com                      |
|    \\/     M anipulation  |                                                 |
\*---------------------------------------------------------------------------*/
FoamFile
{
    version     2.0;
    format      ascii;
    class       volScalarField;
    location    "48";
    object      k;
}
// * * * * * * * * * * * * * * * * * * * * * * * * * * * * * * * * * * * * * //

dimensions      [0 2 -2 0 0 0 0];


internalField   nonuniform List<scalar> 
78750
(
0.000310715
0.000329953
0.000564588
0.000786763
0.00097544
0.00116459
0.00134549
0.00152747
0.00168171
0.00182604
0.001938
0.002054
0.00214423
0.00224637
0.00232674
0.0024192
0.00249724
0.00258793
0.00267069
0.00277767
0.00287837
0.0030347
0.0031727
0.00342151
0.0036153
0.0039966
0.00424775
0.00476959
0.00501984
0.00558114
0.00566119
0.005813
0.00559935
0.00312908
0.000188454
0.0101701
0.0026691
0.0053038
0.00413974
0.00405002
0.00422028
0.00439144
0.0044574
0.00437615
0.00428896
0.00421548
0.0041502
0.00407368
0.00399128
0.00391402
0.0038552
0.00381852
0.00380879
0.00381454
0.00383494
0.00389933
0.00394878
0.00409179
0.00416223
0.00440313
0.00450128
0.00484493
0.00498568
0.00538831
0.00555506
0.00590327
0.00585405
0.00641911
0.00416409
0.00659999
0.0110791
0.00382898
0.00230689
0.00197038
0.00201987
0.00203011
0.00204259
0.00210196
0.00222839
0.00243134
0.00261634
0.00270678
0.00265875
0.0024973
0.0023031
0.00213686
0.00204294
0.00199872
0.00200068
0.00208018
0.00223786
0.00246101
0.00273142
0.00300427
0.00332616
0.00357369
0.00395188
0.00411149
0.00456377
0.00453245
0.00498846
0.00458966
0.00516375
0.0047606
0.00452625
0.00659031
0.00473246
0.00404602
0.0046093
0.00457048
0.00466668
0.00466843
0.00456725
0.0043805
0.00413114
0.00385168
0.00351354
0.00306241
0.0025973
0.0022785
0.00208861
0.00194731
0.00182762
0.00174863
0.00173319
0.00178768
0.00190354
0.00206578
0.00226328
0.00249422
0.00274491
0.00304743
0.00329647
0.00371501
0.00383455
0.00439687
0.00416517
0.00485492
0.00321222
0.0063175
0.00745114
0.00678639
0.00392278
0.00286351
0.00315847
0.00368194
0.00407544
0.00428461
0.00432738
0.00425494
0.00410143
0.00384281
0.003412
0.00280114
0.00222182
0.00191364
0.00183042
0.0018158
0.00178719
0.00172926
0.00166158
0.00161439
0.00160399
0.00163156
0.00169388
0.00179107
0.00193718
0.00210078
0.00237821
0.00247785
0.00295236
0.00255774
0.00254127
0.00133365
0.0123912
0.00699312
0.00496153
0.0034684
0.00392385
0.00438202
0.00467682
0.00468027
0.0044288
0.00403373
0.0035831
0.00309861
0.00251369
0.00185465
0.00135373
0.00120478
0.00124924
0.00132078
0.00137442
0.00141579
0.00145469
0.00149981
0.00155902
0.00163507
0.0017272
0.0018375
0.00197372
0.00214732
0.00237104
0.00268651
0.00309585
0.00378534
0.0044553
0.0058782
0.00798316
0.0177375
0.00209861
0.00200827
0.00326342
0.00477298
0.00547432
0.00561395
0.00551885
0.00530485
0.00498946
0.00459564
0.00417274
0.00371787
0.00316633
0.00250451
0.00187755
0.00147283
0.00130239
0.00125908
0.00125616
0.0012667
0.00129195
0.00133742
0.0014083
0.00150881
0.00163877
0.00179058
0.0019587
0.0021632
0.00248318
0.00308426
0.00422875
0.00595687
0.00793892
0.0101982
0.0149782
0.00360872
0.00543471
0.00600759
0.00602657
0.0059178
0.00587024
0.0058719
0.00587562
0.0058455
0.00574661
0.00555055
0.00522245
0.00470439
0.00397908
0.00310133
0.00219778
0.00151539
0.00121126
0.00116047
0.0011874
0.00119982
0.00121409
0.00126571
0.00136916
0.00152496
0.0017198
0.00192209
0.00209817
0.00227044
0.00260621
0.00346197
0.00508953
0.0067948
0.00830546
0.00979181
0.00180152
0.00372404
0.0046396
0.00516677
0.00546148
0.00560445
0.00564028
0.00558187
0.00542227
0.00515642
0.00482036
0.00449455
0.00421995
0.00395773
0.00363228
0.00317106
0.00257672
0.00192973
0.0013683
0.00108387
0.00107193
0.00115228
0.00121697
0.00125357
0.00130268
0.00140863
0.00159097
0.00183064
0.00206154
0.00222436
0.00245409
0.00316677
0.00431629
0.00535042
0.00643193
0.004315
0.00610078
0.00645703
0.00651176
0.00647781
0.00641815
0.00636635
0.00633615
0.0063086
0.00623848
0.00608036
0.00580013
0.00537266
0.0048206
0.00425212
0.00376977
0.00336944
0.00297016
0.00247654
0.00189072
0.0013554
0.00104285
0.000968909
0.00101173
0.00107553
0.00114411
0.001252
0.00145169
0.00177587
0.0021549
0.00244051
0.00276556
0.00343237
0.00427165
0.0056888
0.00427734
0.00539651
0.00572263
0.0057997
0.00579471
0.00576973
0.00576771
0.00580998
0.00587615
0.00591888
0.00589892
0.00580267
0.0056289
0.00536336
0.00497277
0.0044489
0.00388951
0.00341472
0.00303213
0.00266012
0.00222151
0.00173223
0.00135271
0.00117158
0.00112527
0.00114417
0.00119285
0.00129414
0.00153718
0.00201842
0.00266223
0.00320655
0.00360737
0.00409933
0.00512364
0.00656024
0.00687152
0.00666305
0.00640303
0.0061408
0.00592697
0.00580633
0.00577027
0.00576508
0.0057304
0.00563197
0.00547657
0.0052799
0.00505197
0.00479186
0.0044822
0.00410118
0.00367313
0.00327432
0.00293357
0.00259942
0.00220528
0.00175505
0.00137986
0.00116948
0.00107999
0.00105836
0.00108119
0.00116764
0.00140447
0.00190264
0.00262598
0.00330828
0.00387684
0.00504601
0.00534681
0.00570749
0.00576897
0.00573481
0.00566939
0.00559658
0.00552712
0.00546636
0.00544658
0.00550569
0.00553108
0.00545286
0.00528516
0.00504947
0.00475489
0.0044078
0.00403001
0.00365551
0.00331705
0.00302897
0.0027663
0.00247618
0.00210807
0.00169512
0.00138581
0.00122259
0.00114761
0.0011216
0.00112892
0.00117932
0.00134448
0.00172036
0.00243069
0.00335687
0.0052013
0.00411475
0.0059398
0.00640428
0.00649983
0.00642616
0.00621582
0.00588632
0.00544898
0.00493489
0.00476706
0.00496501
0.00512046
0.00510753
0.00497126
0.00475673
0.00447979
0.00413766
0.00374413
0.00336245
0.0030461
0.00278636
0.00253282
0.00222367
0.00182552
0.00142904
0.00117051
0.00103562
0.000971847
0.00096457
0.00107269
0.00156526
0.00260254
0.0034241
0.00427326
0.0058621
0.00471253
0.00636047
0.00674426
0.00678418
0.00669531
0.0065405
0.00637694
0.00606781
0.00524141
0.00440987
0.00446004
0.0048083
0.00497708
0.00494757
0.00479627
0.00456707
0.00427587
0.00393374
0.00356617
0.00321987
0.00292544
0.00266691
0.0023979
0.00207041
0.00169759
0.00139433
0.00122322
0.00114134
0.00111077
0.00114767
0.00141647
0.00230955
0.00356367
0.00424997
0.00514334
0.00682968
0.00681335
0.00650163
0.00616341
0.00575076
0.00536619
0.00536984
0.00549798
0.0051265
0.00449986
0.004538
0.0047821
0.0048361
0.00477031
0.0046421
0.00445864
0.00422608
0.00395993
0.00366065
0.00333896
0.00303529
0.00276217
0.00249537
0.00219486
0.00183567
0.00146934
0.00119086
0.00101502
0.000906811
0.000838335
0.000818616
0.00107372
0.00232236
0.00339165
0.00495541
0.00853306
0.0070444
0.00624851
0.00549133
0.00450315
0.00373752
0.00395312
0.00450308
0.00477089
0.00495593
0.00502865
0.00499076
0.00490224
0.00477378
0.00461071
0.00441745
0.00419811
0.0039564
0.00369631
0.00342548
0.00315456
0.00288919
0.00262045
0.00232353
0.00197438
0.00159557
0.0012788
0.00108018
0.000981565
0.000968485
0.00109471
0.00134089
0.00220403
0.00341355
0.00534459
0.00740691
0.00624123
0.00565128
0.00484281
0.00371547
0.00316296
0.00382402
0.00457667
0.00481481
0.00489468
0.00490387
0.00486265
0.00477642
0.00465253
0.00449774
0.00431685
0.00411442
0.00389484
0.0036619
0.00342083
0.00317546
0.0029252
0.00266039
0.00236085
0.00200465
0.00160115
0.00122954
0.000970433
0.00085942
0.0010062
0.00165527
0.0026891
0.00340545
0.0041853
0.00528624
0.00630855
0.00595757
0.00559245
0.00498078
0.0041113
0.00348831
0.00359508
0.00396539
0.00415961
0.00430104
0.00440131
0.00444734
0.00443982
0.004384
0.00428718
0.0041565
0.00399882
0.00382012
0.00362537
0.0034189
0.00320357
0.00297957
0.00274253
0.0024826
0.0021876
0.00185454
0.00151137
0.00120797
0.000977375
0.000855218
0.00103176
0.00197241
0.00328129
0.00395162
0.00453511
0.00543668
0.00614287
0.00612465
0.00590637
0.00543663
0.00462094
0.00376024
0.00337916
0.00333495
0.00340812
0.00354282
0.00368633
0.00379648
0.00385146
0.00384623
0.00378578
0.0036788
0.00353416
0.00336004
0.00316201
0.00294381
0.00270766
0.00245536
0.00218974
0.00191531
0.00164134
0.00138239
0.00115578
0.000974092
0.00084143
0.000756645
0.000970367
0.00233886
0.00336849
0.00455074
0.00496639
0.00645914
0.00678631
0.00690971
0.00692947
0.00676087
0.00619339
0.00524084
0.00432623
0.00361155
0.00315585
0.00296994
0.00299166
0.00311563
0.0032461
0.00332656
0.00333788
0.00328212
0.00316901
0.00300908
0.0028105
0.00257838
0.0023166
0.00203104
0.00173302
0.0014389
0.00116906
0.000941339
0.000771204
0.000748255
0.00106033
0.00150462
0.00241039
0.00338302
0.00468678
0.00430705
0.00615526
0.00673013
0.00702032
0.00725595
0.00749794
0.00773321
0.00780616
0.00741939
0.0065281
0.00537242
0.00421275
0.003276
0.00272009
0.00255093
0.00262492
0.00276739
0.00287287
0.00290488
0.00286097
0.00275076
0.00258519
0.00237446
0.00212794
0.00185648
0.00157363
0.00129558
0.00104014
0.000820718
0.000728099
0.00110635
0.00211186
0.00291762
0.00362611
0.00453613
0.00495298
0.00649442
0.00695107
0.0070943
0.00713087
0.0071322
0.00717916
0.00739393
0.00777443
0.00803564
0.00787779
0.00716557
0.00598775
0.00462186
0.00338646
0.00257139
0.00228199
0.00232403
0.00245326
0.0025475
0.00257054
0.00251894
0.00240124
0.00222948
0.00201637
0.00177453
0.00151568
0.00125548
0.00101023
0.000815141
0.000877819
0.00170805
0.00289587
0.00363151
0.00449204
0.00593005
0.00705271
0.00738401
0.0074964
0.00752068
0.00748055
0.00737253
0.00721698
0.00716452
0.00734081
0.00758106
0.00766911
0.00748446
0.00686581
0.00570504
0.00426524
0.00299952
0.00228022
0.00210521
0.00216752
0.00225698
0.00230489
0.00229449
0.00222481
0.00210136
0.00193201
0.00172529
0.00149008
0.00124129
0.000974074
0.000797188
0.00117119
0.00249656
0.00346551
0.00476797
0.00689479
0.00758413
0.00775472
0.00781491
0.00783791
0.00784505
0.0078585
0.00788651
0.0078507
0.00772771
0.007615
0.00752764
0.00741836
0.00723743
0.00687557
0.00606983
0.00471131
0.00329392
0.00234406
0.0020031
0.00198139
0.00202828
0.00205766
0.00204619
0.00198639
0.00187736
0.00172205
0.00152661
0.00130417
0.00103929
0.000854499
0.00134664
0.00252905
0.0035774
0.00508784
0.00693681
0.00749518
0.00765151
0.00768586
0.00765616
0.00757826
0.00750445
0.00758551
0.00786359
0.00809277
0.00811938
0.00798877
0.00778206
0.00754218
0.00726774
0.0068984
0.00624344
0.00502598
0.00354639
0.00243438
0.00194971
0.00184702
0.00185224
0.00185896
0.00183584
0.00177129
0.00166238
0.00151258
0.00133334
0.00112724
0.0010402
0.0017307
0.00281718
0.00372751
0.00498704
0.00694627
0.00785737
0.00809444
0.00813476
0.00807044
0.00789939
0.00762088
0.00736972
0.00745367
0.0078356
0.00816983
0.00829946
0.0082474
0.00807417
0.00782733
0.00752708
0.00714656
0.00655724
0.00547788
0.00396555
0.00267279
0.00198
0.00173981
0.0016702
0.00163139
0.00157616
0.00148706
0.00136125
0.0012126
0.0010547
0.00099177
0.00155455
0.00280179
0.00369715
0.00488076
0.00720521
0.0081056
0.00831908
0.00835573
0.00830299
0.00815372
0.00788689
0.00753833
0.00735618
0.00758497
0.00799462
0.00829015
0.00840171
0.0083671
0.0082303
0.00801929
0.00773922
0.00737445
0.00684046
0.00589348
0.00443277
0.00303575
0.0021701
0.0017806
0.00161411
0.001513
0.00141213
0.00129014
0.00114842
0.000980975
0.000802271
0.00110829
0.00253821
0.00361699
0.00508469
0.00793236
0.00835138
0.0084027
0.00836461
0.00826628
0.00810152
0.00788938
0.00767893
0.00756744
0.00772949
0.00809261
0.00840936
0.00857297
0.00860003
0.00853196
0.00838865
0.00816652
0.00786147
0.00747736
0.00694962
0.00605063
0.00462941
0.00321109
0.00228435
0.00181693
0.00157687
0.00141633
0.00127407
0.00113164
0.000958859
0.00074977
0.00103119
0.00252175
0.00381916
0.00560725
0.00893494
0.0086188
0.00845601
0.00831016
0.00811737
0.00787491
0.00769225
0.00768445
0.00783355
0.00810425
0.00842724
0.00868917
0.00883528
0.00887198
0.00882263
0.00870386
0.00851485
0.00824659
0.00789744
0.00746963
0.00688238
0.00590428
0.0044829
0.00314254
0.00227041
0.00179455
0.00150648
0.00129321
0.00110845
0.000919282
0.000903063
0.00158068
0.00289676
0.00412333
0.00575294
0.0088745
0.0084622
0.00832632
0.00818824
0.00796924
0.00767432
0.0074694
0.00754132
0.00783846
0.00821073
0.0085616
0.00883593
0.00900887
0.00908085
0.00906393
0.00897126
0.0088114
0.00858408
0.00828192
0.00790045
0.00739975
0.00665569
0.00551674
0.00413496
0.00295928
0.00218957
0.00171454
0.00138164
0.00111033
0.000890699
0.00102301
0.00213965
0.0033327
0.00431377
0.00543052
0.0081943
0.0083321
0.0084076
0.00839324
0.00825727
0.00795582
0.0075366
0.00723638
0.00727123
0.00759974
0.00805158
0.00847786
0.00880261
0.00900627
0.00909627
0.00908742
0.0089937
0.00882518
0.00858507
0.00826343
0.00782765
0.00721086
0.00631922
0.00513891
0.00392277
0.00295627
0.0022828
0.00181002
0.00144583
0.00114496
0.00108853
0.00203066
0.00343689
0.00430737
0.0050737
0.00759031
0.00828059
0.00855824
0.00870221
0.00874648
0.00862548
0.00824271
0.00761131
0.00704001
0.00685927
0.00709975
0.00756624
0.00805395
0.00844651
0.00870898
0.00884518
0.00886978
0.00879663
0.00863289
0.00837474
0.00800219
0.00747616
0.00674924
0.00581214
0.00476816
0.00381105
0.00305561
0.00248278
0.00203518
0.00165332
0.00135111
0.0016645
0.0031811
0.00411895
0.00497174
0.00751024
0.0083128
0.00864514
0.00886561
0.00904823
0.00915658
0.00909328
0.00871868
0.0079957
0.00719623
0.00672149
0.00673584
0.00709713
0.00756117
0.00796671
0.00825118
0.00840701
0.00844388
0.00837009
0.00818584
0.00788014
0.00743443
0.00683687
0.00610692
0.00531217
0.00454514
0.00386639
0.00328432
0.00278205
0.00233227
0.00187046
0.00162635
0.00289211
0.00393704
0.00508361
0.0072622
0.00816009
0.00852261
0.00877831
0.00904268
0.00932225
0.00955113
0.00960573
0.00933839
0.00865114
0.00769445
0.00688534
0.0065576
0.00669317
0.00705032
0.00741304
0.00768115
0.00782616
0.00784627
0.00774425
0.00752195
0.00718432
0.00674568
0.00623258
0.00567994
0.00512164
0.00458135
0.0040698
0.00358324
0.0030956
0.00252335
0.00201801
0.00297055
0.00406207
0.00541775
0.00749114
0.00826164
0.00850136
0.0086788
0.0089158
0.00926302
0.00966988
0.00999882
0.010128
0.00995199
0.00935182
0.00834906
0.00729415
0.00662951
0.00648766
0.0066835
0.00697207
0.00720494
0.00733008
0.00733828
0.0072337
0.00702602
0.00673026
0.00636623
0.00595482
0.00551366
0.00505493
0.00458485
0.00409542
0.00353899
0.00286681
0.00249323
0.00331735
0.00433766
0.00562027
0.00823089
0.00832115
0.00826716
0.00829087
0.00845977
0.00885231
0.0094027
0.00991947
0.0102665
0.0103933
0.0102527
0.00974853
0.00885118
0.00779758
0.00697293
0.00659476
0.00659628
0.00676557
0.00693726
0.00703874
0.00704989
0.00697016
0.00680655
0.00656906
0.00626815
0.00591315
0.00551175
0.00506728
0.00456203
0.00392781
0.00316705
0.00293962
0.00365721
0.00452446
0.00558753
0.00940312
0.00838136
0.00797371
0.00784184
0.00796747
0.00840759
0.00903631
0.00963709
0.0100734
0.0103046
0.0103235
0.0101103
0.0096368
0.0089345
0.00813628
0.00743261
0.00698937
0.00683367
0.00685014
0.00690882
0.00693716
0.00690941
0.00681747
0.00665774
0.00643353
0.00614698
0.00579634
0.0053797
0.00487008
0.00419143
0.00340071
0.00330149
0.003945
0.00463111
0.00543718
0.00949677
0.00779882
0.00731516
0.00717475
0.00730611
0.00772076
0.00831341
0.0089446
0.00949162
0.00987377
0.0100541
0.0100198
0.00977781
0.00937294
0.00887377
0.00834105
0.00784245
0.00746342
0.00724576
0.00714513
0.00708593
0.00701973
0.00692188
0.00677931
0.00658619
0.006337
0.00602502
0.00564229
0.00515948
0.00450031
0.00369297
0.00350854
0.00408072
0.00465869
0.0053519
0.00864022
0.00738082
0.00712226
0.00698601
0.00689002
0.0068913
0.00710432
0.00757701
0.00821478
0.00885401
0.00935571
0.00964729
0.00971411
0.00958331
0.00931193
0.00896068
0.00857854
0.00821056
0.0079029
0.00767692
0.00751021
0.0073669
0.00721911
0.00704793
0.00684041
0.00658733
0.00628106
0.00591177
0.00545193
0.00483281
0.00404116
0.00368272
0.00417164
0.00470896
0.00536406
0.00759935
0.00783157
0.0079121
0.00775512
0.00738834
0.0068743
0.00639422
0.00620187
0.00643916
0.00705141
0.00784951
0.00860731
0.00914707
0.00941458
0.00944579
0.00930466
0.00906006
0.00877373
0.00849564
0.00825283
0.00804242
0.00784829
0.00765267
0.00744062
0.0072009
0.00692516
0.00660604
0.00623347
0.00578143
0.00518579
0.00440684
0.00389609
0.0042471
0.00474601
0.00535377
0.00737663
0.0089082
0.00932118
0.00937056
0.00917369
0.0086819
0.00786518
0.00685485
0.00596273
0.00550671
0.00567995
0.00652411
0.00766815
0.00856343
0.00908878
0.00931437
0.00932668
0.00919835
0.00899663
0.00877263
0.00854897
0.00832785
0.00810137
0.00785916
0.00759244
0.00729424
0.00695921
0.00658016
0.00613644
0.00557105
0.00482433
0.00419859
0.00436363
0.00478954
0.00533766
0.0073832
0.00910567
0.00971289
0.0100494
0.0102742
0.0103386
0.010118
0.00945325
0.00825397
0.00665734
0.00498931
0.00403249
0.00500958
0.00662104
0.00787443
0.00864658
0.00905919
0.00922755
0.00924014
0.00915466
0.00900772
0.00881957
0.00859853
0.00834622
0.00806102
0.00774081
0.00738342
0.00698372
0.00652348
0.00595402
0.00521704
0.0045327
0.0045215
0.00484407
0.00533761
0.00800375
0.00896603
0.00931032
0.00954026
0.00977712
0.0100475
0.0103098
0.0104415
0.0102506
0.00947303
0.00763249
0.00412104
0.00290542
0.00449529
0.00635059
0.00767126
0.00847883
0.00893627
0.00916167
0.00923155
0.00919741
0.00909049
0.00892659
0.00871196
0.00844908
0.00813983
0.00778543
0.00738358
0.00692015
0.00635355
0.00562948
0.00490997
0.00475155
0.0049687
0.00542581
0.00909386
0.00925477
0.00931546
0.00934261
0.00934298
0.00931924
0.00928969
0.00926697
0.00920133
0.00897604
0.00826618
0.00551044
0.00277655
0.00388383
0.00580958
0.00727817
0.00821842
0.00878352
0.00910644
0.00927066
0.00932442
0.00929043
0.00918234
0.00901167
0.00878171
0.00849209
0.00814566
0.00774194
0.00726846
0.00668659
0.00595641
0.00524309
0.0050075
0.0051337
0.0055363
0.010059
0.00986558
0.00999313
0.0101032
0.0101284
0.00998956
0.00962532
0.00903776
0.00828325
0.00737202
0.00618256
0.00451373
0.00367905
0.00519709
0.00666587
0.00773451
0.0084625
0.00894012
0.00923334
0.00939377
0.00945666
0.00944179
0.00935903
0.00921298
0.00900528
0.00873599
0.00840594
0.0080133
0.00754426
0.00696138
0.00623682
0.00554496
0.00527677
0.00533502
0.00565517
0.00975885
0.00964856
0.0099311
0.0102026
0.0104305
0.0105168
0.0103329
0.00977528
0.00880982
0.007428
0.00572572
0.00437714
0.00470003
0.00632282
0.00749409
0.00830269
0.00885573
0.00922992
0.00946894
0.00960316
0.00965364
0.00963336
0.00954931
0.00940394
0.00919747
0.0089304
0.0086022
0.00820814
0.00773106
0.00713621
0.00641854
0.00576993
0.00550357
0.00550545
0.00569438
0.00908431
0.00918098
0.00941129
0.00964492
0.00992284
0.0102215
0.010441
0.0104305
0.0100806
0.00934577
0.00813235
0.00636796
0.00476153
0.00545577
0.00684579
0.00792218
0.0086528
0.00914026
0.00945443
0.00963909
0.00972456
0.00972949
0.00966382
0.00953194
0.00933596
0.00907739
0.00875601
0.00836629
0.00788975
0.00729413
0.00658965
0.00597704
0.00571376
0.00566609
0.00571214
0.0089813
0.00905536
0.00918907
0.00932785
0.00950254
0.00972828
0.00998704
0.0101962
0.0102458
0.010058
0.00955804
0.00849245
0.00641143
0.00451816
0.00531198
0.00679663
0.00790989
0.00864942
0.00913528
0.00944464
0.0096224
0.00969572
0.00968003
0.00958399
0.00941278
0.00916963
0.0088553
0.00846429
0.0079787
0.00737514
0.00668992
0.00612518
0.00587024
0.00577116
0.00567026
0.00929792
0.00929163
0.00945858
0.00962795
0.0097959
0.00993344
0.0100069
0.0100001
0.00990804
0.00971981
0.00942605
0.00898621
0.00810866
0.00581112
0.00422734
0.00544669
0.00691423
0.00796068
0.00864199
0.00908553
0.0093662
0.00952303
0.0095764
0.00953669
0.00940976
0.00919947
0.00890715
0.00852751
0.00804339
0.00743949
0.00677618
0.00625473
0.00600436
0.00586023
0.00564115
0.00941019
0.00924379
0.00943362
0.00966543
0.00992875
0.0101718
0.0102978
0.010231
0.00998683
0.00962138
0.00916599
0.00862455
0.00794274
0.00686717
0.00463947
0.00502198
0.00649717
0.00762253
0.0083538
0.00883633
0.00915809
0.00935955
0.00945796
0.00945997
0.00936874
0.00918614
0.00891172
0.00853842
0.00804897
0.00743733
0.00678972
0.0063075
0.00606407
0.00588555
0.00556152
0.00922866
0.00896549
0.00912314
0.00934672
0.00963632
0.00996985
0.0102518
0.0103434
0.0101865
0.00981147
0.009255
0.00851771
0.00751945
0.00614271
0.00458024
0.00488245
0.00638171
0.00749645
0.00821279
0.00868793
0.00901408
0.00923027
0.0093505
0.00937826
0.00931388
0.00915657
0.00890315
0.00854377
0.00805973
0.00744911
0.00681026
0.00634503
0.00609865
0.00589057
0.00545969
0.0090271
0.00878578
0.00892631
0.00911742
0.00935925
0.00964703
0.00992475
0.0100724
0.0100034
0.0097134
0.00921741
0.00849225
0.00742649
0.00592155
0.00456316
0.00499389
0.00651968
0.00752935
0.00817968
0.00862735
0.00894443
0.00915971
0.00928399
0.00931964
0.00926597
0.0091207
0.00887859
0.00852766
0.00804861
0.00744212
0.0068093
0.00634829
0.00609336
0.00585746
0.00530263
0.0088584
0.00878428
0.00900682
0.00923785
0.00949331
0.00975835
0.00998818
0.0101028
0.0100328
0.00976198
0.00929372
0.00860129
0.00757529
0.00607679
0.00446682
0.00456013
0.00623172
0.0072888
0.00797695
0.00845934
0.00880745
0.00904939
0.00919792
0.00925692
0.00922625
0.00910323
0.00888161
0.00854848
0.00808495
0.00749265
0.00686764
0.00639889
0.00612234
0.0058465
0.00513407
0.00858728
0.0086849
0.00895845
0.0092236
0.0095118
0.00980725
0.0100638
0.0102207
0.0102301
0.0100746
0.00975775
0.00927412
0.00858265
0.00751923
0.0058391
0.00418028
0.00498487
0.0063134
0.0072546
0.00790645
0.0083789
0.00871764
0.00894433
0.00906917
0.00909591
0.00902408
0.00884862
0.00855754
0.00813264
0.00757374
0.00696677
0.00648895
0.00618475
0.00586188
0.00499986
0.00846245
0.00864186
0.00894071
0.00923181
0.00955937
0.00990819
0.010219
0.0104227
0.0104878
0.0104128
0.0102074
0.00987948
0.00942873
0.00881804
0.00786643
0.00617466
0.00419947
0.00475886
0.00606376
0.00704456
0.0077216
0.0082086
0.00855555
0.00878202
0.00889778
0.00890535
0.0088017
0.00857644
0.00821227
0.00770593
0.00713051
0.00664793
0.00631257
0.00593885
0.00495662
0.00838387
0.00856207
0.00886733
0.00917882
0.00954811
0.00996176
0.0103457
0.0106139
0.0107345
0.0107167
0.0105788
0.0103336
0.00998916
0.00954436
0.00897217
0.00811524
0.006511
0.0042418
0.00431329
0.00557445
0.00662615
0.00737376
0.007911
0.00829247
0.0085397
0.00866097
0.00865858
0.00852557
0.00824661
0.007816
0.00729419
0.00682507
0.0064699
0.00605567
0.00499959
0.00843394
0.00857231
0.00889102
0.00923812
0.00966923
0.0101587
0.0106047
0.0109119
0.0110573
0.0110628
0.0109554
0.0107544
0.010473
0.0101182
0.00969097
0.0091678
0.00841676
0.00700812
0.00467
0.00434112
0.0054643
0.00646842
0.00719364
0.00772049
0.00809682
0.00833804
0.00844657
0.00841718
0.00823502
0.00789192
0.00743711
0.00699585
0.00663206
0.00618795
0.00509118
0.00835021
0.00846715
0.0087964
0.00917948
0.00968513
0.0102739
0.0108063
0.0111772
0.0113709
0.0114143
0.0113386
0.0111681
0.0109183
0.0105981
0.0102122
0.00975742
0.00919859
0.00839052
0.00693483
0.00468761
0.00443666
0.00546475
0.00639184
0.00707409
0.00757576
0.00793142
0.00815
0.00822758
0.00814972
0.00790497
0.00753104
0.00713478
0.00677931
0.006323
0.0052122
0.00839847
0.00842021
0.00873431
0.00915134
0.00975191
0.0104618
0.0110829
0.0115058
0.0117376
0.0118169
0.0117749
0.0116351
0.0114135
0.0111214
0.0107672
0.0103544
0.00987234
0.00926218
0.00833211
0.00668131
0.00469294
0.00481235
0.00573965
0.00653108
0.00712072
0.00755574
0.00785501
0.00801736
0.00802741
0.00787067
0.00757405
0.00722703
0.00688937
0.00643354
0.00533042
0.00821854
0.00820119
0.00851092
0.00896443
0.00966686
0.0105048
0.0112297
0.0117295
0.0120215
0.0121522
0.0121566
0.0120595
0.0118774
0.0116223
0.0113027
0.0109193
0.010465
0.00992823
0.00921278
0.00802055
0.00600496
0.00468911
0.00521128
0.00604476
0.00671269
0.00721328
0.00757499
0.00780391
0.00788601
0.00780466
0.00757837
0.00728281
0.00697314
0.0065335
0.00545408
0.00819178
0.0081213
0.00841761
0.00891104
0.00971963
0.0106538
0.0114288
0.0119637
0.0122948
0.0124679
0.012513
0.012452
0.0123007
0.0120717
0.0117736
0.0114051
0.0109601
0.0104425
0.00980864
0.00887526
0.00731056
0.00529854
0.00499019
0.00571342
0.00641984
0.00696402
0.00736618
0.00763692
0.00776413
0.00773303
0.00755834
0.00730488
0.0070215
0.00659885
0.00553069
0.00797621
0.00787208
0.00815914
0.00870192
0.00964559
0.0107075
0.0115613
0.0121524
0.0125355
0.0127603
0.0128564
0.0128437
0.0127369
0.0125485
0.0122852
0.0119418
0.0115142
0.0110105
0.0104402
0.00970802
0.00852206
0.00660521
0.00516134
0.00545275
0.0061527
0.00674099
0.00718579
0.00749699
0.00766386
0.00767255
0.00753853
0.00732186
0.00706524
0.00666202
0.00559005
0.00789112
0.00769558
0.00793614
0.00850241
0.00956312
0.0107344
0.0116509
0.0122897
0.0127223
0.0129988
0.0131462
0.0131813
0.0131174
0.012966
0.0127334
0.0124159
0.0120115
0.0115276
0.0109762
0.0103241
0.00940404
0.00788755
0.00590985
0.00535006
0.0059045
0.00653147
0.00702734
0.00738225
0.007585
0.00762449
0.00751918
0.0073274
0.00708707
0.00669056
0.00559486
0.0076172
0.00737992
0.00757695
0.0081482
0.00930233
0.0105931
0.0116064
0.0123252
0.0128307
0.0131758
0.0133884
0.0134839
0.0134739
0.0133694
0.0131743
0.0128865
0.0125073
0.0120434
0.0115054
0.0109041
0.0101431
0.00894931
0.00709917
0.00560112
0.00573215
0.0063453
0.00688831
0.00729081
0.00753554
0.00760937
0.00753323
0.00736529
0.00714034
0.00675064
0.00563267
0.00748852
0.00719644
0.00732846
0.00784696
0.009008
0.0103594
0.0114452
0.0122397
0.0128231
0.0132469
0.0135367
0.0137052
0.0137618
0.0137163
0.0135732
0.0133315
0.0129932
0.0125645
0.0120555
0.0114808
0.0108056
0.00986397
0.00834544
0.00637899
0.00563822
0.00608804
0.00668985
0.00716449
0.00746757
0.00758482
0.00753924
0.00739068
0.00717416
0.00678176
0.00563781
0.00729167
0.00694474
0.00701135
0.00746129
0.00862019
0.0100467
0.0112169
0.0120878
0.0127444
0.0132426
0.0136075
0.0138493
0.0139751
0.0139932
0.0139084
0.0137204
0.0134312
0.0130462
0.0125739
0.0120268
0.0114113
0.0106309
0.00943383
0.00762192
0.00605093
0.00598389
0.00652473
0.00704629
0.0074091
0.00757988
0.00757594
0.00745554
0.00725495
0.00687038
0.00572224
0.00724136
0.0068166
0.00679497
0.00714358
0.0082465
0.0097022
0.0109337
0.0118709
0.0125958
0.0131656
0.013604
0.0139187
0.0141145
0.014199
0.0141778
0.0140509
0.0138192
0.0134868
0.0130609
0.012553
0.0119798
0.0112939
0.0103219
0.00878985
0.00684176
0.00597669
0.00631978
0.0068844
0.00731514
0.00754234
0.00757995
0.00748682
0.0073022
0.00692835
0.00580019
0.00722325
0.00668677
0.00657202
0.00684212
0.00793414
0.00942104
0.0106871
0.011662
0.0124317
0.0130546
0.0135524
0.0139298
0.0141892
0.0143379
0.0143816
0.0143195
0.0141512
0.0138789
0.0135084
0.01305
0.0125182
0.0119023
0.0110973
0.00987305
0.00806499
0.00648252
0.00627043
0.0067434
0.0072254
0.00751838
0.00760928
0.00755338
0.00739417
0.00704393
0.00595381
0.0072953
0.00661041
0.00637905
0.00655341
0.00765402
0.00916903
0.0104431
0.0114317
0.012228
0.0128894
0.0134344
0.0138646
0.0141801
0.014388
0.0144941
0.0144967
0.0143932
0.0141842
0.013874
0.0134711
0.0129883
0.012431
0.0117295
0.0107042
0.00914062
0.00730319
0.00646955
0.00667946
0.00713845
0.00747144
0.00760656
0.00758559
0.007453
0.00713229
0.00611094
0.00732886
0.00649353
0.00612968
0.00615906
0.00725628
0.00885832
0.01017
0.0111755
0.0119911
0.0126805
0.0132613
0.0137335
0.0140956
0.0143548
0.0145172
0.0145801
0.0145393
0.014394
0.0141469
0.0138048
0.0133784
0.0128799
0.0122616
0.0113837
0.0100436
0.00823051
0.00691395
0.00676328
0.00713043
0.00747623
0.00764501
0.00765648
0.00755351
0.00727289
0.00634259
0.00739347
0.00648574
0.00600798
0.00582021
0.00672701
0.00839585
0.00977605
0.0108168
0.0116571
0.0123727
0.0129845
0.0134924
0.0138947
0.0142003
0.0144156
0.0145361
0.014557
0.0144766
0.0142965
0.0140215
0.0136602
0.0132231
0.0126742
0.0119056
0.0107505
0.00910068
0.00754076
0.00701018
0.00720516
0.00751428
0.00769016
0.00771885
0.00763573
0.00738486
0.00652675
0.00752242
0.00659682
0.00605255
0.00566544
0.00622326
0.00790838
0.00936976
0.0104523
0.011312
0.0120416
0.0126681
0.0131936
0.0136176
0.0139529
0.0142053
0.0143678
0.0144361
0.0144082
0.014285
0.0140703
0.0137708
0.0133903
0.0128968
0.012207
0.0111914
0.00973742
0.00817561
0.00739656
0.0074121
0.00765146
0.00780851
0.00783788
0.00776418
0.00753418
0.00672381
0.00774671
0.00678765
0.00621961
0.00572574
0.00595002
0.00757097
0.00906954
0.0101659
0.0110239
0.0117487
0.0123716
0.0128962
0.0133282
0.0136802
0.0139543
0.0141434
0.0142434
0.0142526
0.0141717
0.0140039
0.0137548
0.0134213
0.0129722
0.0123441
0.0114401
0.0101663
0.00872025
0.00782642
0.00768581
0.00783623
0.0079522
0.00796415
0.00788363
0.00765128
0.0068364
0.00797689
0.00692192
0.00634805
0.00583746
0.00592332
0.00745678
0.00892438
0.00998981
0.0108197
0.0115204
0.0121235
0.0126344
0.0130626
0.0134186
0.0137017
0.0139051
0.0140249
0.0140597
0.0140099
0.0138783
0.01367
0.0133752
0.0129635
0.0123893
0.0115788
0.0104598
0.00916957
0.00827439
0.00803435
0.00809754
0.0081594
0.00814089
0.00804183
0.00779463
0.0069684
0.00805053
0.00692996
0.00637823
0.00590651
0.00603471
0.00752412
0.00890716
0.00990133
0.0106819
0.0113464
0.0119222
0.0124148
0.012831
0.0131801
0.0134618
0.0136693
0.0137989
0.0138493
0.0138213
0.0137176
0.0135387
0.0132733
0.0128974
0.0123733
0.0116444
0.0106596
0.00952544
0.00867703
0.00837667
0.00836625
0.00837417
0.00832089
0.00819822
0.00793164
0.00709623
0.00781638
0.00680448
0.0063482
0.00595622
0.00609397
0.00751531
0.00882411
0.009766
0.010513
0.0111542
0.0117138
0.012196
0.0126029
0.012943
0.0132193
0.0134257
0.0135587
0.0136172
0.0136023
0.0135165
0.0133572
0.0131124
0.0127628
0.0122751
0.0116067
0.0107331
0.00976768
0.00904392
0.00875054
0.00869053
0.00864828
0.00855711
0.00840277
0.00809767
0.00719412
0.00732759
0.00665278
0.00636327
0.00605537
0.005993
0.00721249
0.00855343
0.00952336
0.0102794
0.0109227
0.011483
0.0119651
0.0123712
0.0127089