/*--------------------------------*- C++ -*----------------------------------*\
| =========                 |                                                 |
| \\      /  F ield         | OpenFOAM: The Open Source CFD Toolbox           |
|  \\    /   O peration     | Version:  v1906                                 |
|   \\  /    A nd           | Web:      www.OpenFOAM.com                      |
|    \\/     M anipulation  |                                                 |
\*---------------------------------------------------------------------------*/
FoamFile
{
    version     2.0;
    format      ascii;
    class       volScalarField;
    location    "48";
    object      nut;
}
// * * * * * * * * * * * * * * * * * * * * * * * * * * * * * * * * * * * * * //

dimensions      [0 2 -1 0 0 0 0];


internalField   nonuniform List<scalar> 
78750
(
3.47152e-07
5.89297e-07
5.20763e-06
6.13511e-06
8.07195e-06
9.37103e-06
1.0597e-05
1.24744e-05
1.43587e-05
1.60764e-05
1.72495e-05
1.82452e-05
1.86988e-05
1.92211e-05
1.95753e-05
2.00553e-05
2.03777e-05
2.06202e-05
2.08461e-05
2.11281e-05
2.14874e-05
2.20957e-05
2.26122e-05
2.37578e-05
2.46093e-05
2.67254e-05
2.80895e-05
3.1167e-05
3.25111e-05
3.51477e-05
3.47733e-05
3.39794e-05
2.47166e-05
1.22114e-05
2.70219e-07
1.01257e-05
7.00524e-06
2.67836e-05
3.4142e-05
2.27962e-05
3.66658e-05
2.69308e-05
2.25677e-05
2.35295e-05
2.74812e-05
3.08555e-05
3.31104e-05
3.45053e-05
3.56483e-05
3.65958e-05
3.75842e-05
3.88696e-05
4.07894e-05
4.20935e-05
4.28919e-05
4.32124e-05
4.29143e-05
4.27879e-05
4.1567e-05
4.16715e-05
4.06827e-05
4.15871e-05
4.1137e-05
4.16288e-05
4.12455e-05
4.04536e-05
3.76245e-05
3.56387e-05
1.98163e-05
5.84716e-06
2.36913e-05
5.3357e-06
7.6011e-06
1.42911e-05
7.79369e-06
1.01572e-05
1.48432e-05
1.63197e-05
1.88197e-05
3.15334e-05
5.66472e-05
6.53761e-05
4.98047e-05
3.61039e-05
2.8631e-05
2.41579e-05
2.22438e-05
2.21173e-05
2.22344e-05
2.30618e-05
2.50763e-05
2.83828e-05
3.24647e-05
3.6356e-05
4.02289e-05
4.18707e-05
4.44194e-05
4.29968e-05
4.41959e-05
4.17036e-05
4.16168e-05
3.60086e-05
3.64073e-05
3.44204e-05
4.7936e-06
1.34265e-05
9.64022e-06
1.89581e-05
3.9775e-05
3.59798e-05
7.20058e-05
4.41457e-05
3.75769e-05
4.26209e-05
6.14758e-05
9.28824e-05
8.51492e-05
5.83274e-05
4.96225e-05
5.5773e-05
5.87832e-05
4.90682e-05
4.21969e-05
3.97835e-05
3.94973e-05
3.9765e-05
3.90838e-05
3.69389e-05
3.40173e-05
3.1086e-05
2.88365e-05
2.81719e-05
2.78314e-05
3.10024e-05
3.21776e-05
3.80236e-05
3.41249e-05
2.59943e-05
2.11519e-05
6.9735e-06
1.31431e-05
1.76312e-05
6.72928e-06
8.15143e-06
2.99671e-05
6.47437e-05
8.35355e-05
7.86275e-05
6.25172e-05
5.21953e-05
4.57514e-05
3.92074e-05
3.42442e-05
2.89488e-05
2.21203e-05
2.08395e-05
2.51205e-05
3.10027e-05
3.47003e-05
3.56274e-05
3.52575e-05
3.46639e-05
3.37571e-05
3.20747e-05
2.92147e-05
2.53897e-05
2.18405e-05
1.90389e-05
1.87005e-05
1.78786e-05
2.19918e-05
1.64673e-05
1.31252e-05
1.28153e-05
1.14099e-05
1.56688e-05
1.20024e-05
1.2129e-05
8.89332e-05
0.000157089
9.9105e-05
8.31029e-05
7.09376e-05
5.43363e-05
4.19379e-05
3.40109e-05
2.67873e-05
2.22454e-05
2.63048e-05
3.74128e-05
4.15827e-05
5.92056e-05
9.2564e-05
0.000122093
0.000120606
9.6894e-05
7.77234e-05
6.74897e-05
6.02679e-05
5.05987e-05
3.88449e-05
2.90132e-05
2.2596e-05
1.92684e-05
1.81152e-05
2.01508e-05
2.44436e-05
4.49859e-05
7.25003e-05
1.39102e-05
5.03412e-06
6.16636e-06
1.3527e-05
3.0326e-05
6.19009e-05
9.14206e-05
9.46558e-05
8.56738e-05
6.97603e-05
5.29024e-05
4.06452e-05
3.22863e-05
2.59473e-05
2.1356e-05
2.01827e-05
2.51292e-05
3.60145e-05
4.24199e-05
4.40626e-05
4.5805e-05
4.73745e-05
4.63396e-05
4.31717e-05
4.06321e-05
4.00853e-05
3.88696e-05
3.21114e-05
2.30023e-05
1.70133e-05
1.511e-05
1.84943e-05
3.42195e-05
8.86071e-05
8.45537e-05
1.33283e-05
7.13942e-06
5.84646e-05
0.000106939
9.60272e-05
0.000105198
0.00013305
0.000160665
0.000173715
0.000168444
0.000151743
0.000126928
9.06297e-05
5.91616e-05
4.14773e-05
3.15163e-05
2.71104e-05
3.07135e-05
4.30836e-05
4.05478e-05
3.82777e-05
4.05616e-05
4.39637e-05
4.45755e-05
4.054e-05
3.60039e-05
3.43877e-05
3.52576e-05
3.31014e-05
2.47997e-05
1.81374e-05
1.84162e-05
3.40432e-05
9.76347e-05
6.27289e-05
1.07311e-05
4.15572e-06
1.72292e-05
4.36985e-05
8.27308e-05
0.000117704
0.000126516
0.000114676
9.3834e-05
7.40087e-05
6.0447e-05
5.38501e-05
5.2029e-05
5.0574e-05
4.6775e-05
4.14341e-05
3.55571e-05
2.96909e-05
2.48881e-05
2.40325e-05
3.24202e-05
4.61444e-05
5.03713e-05
4.91497e-05
4.33021e-05
3.45872e-05
2.7335e-05
2.36267e-05
2.35418e-05
2.62055e-05
2.60484e-05
2.15305e-05
2.72674e-05
6.89881e-05
6.45648e-05
8.45927e-06
7.45571e-06
5.44667e-05
0.00014668
0.000144303
0.000127835
0.000109315
9.50122e-05
9.14349e-05
0.000100459
0.000117809
0.000129993
0.000122778
9.74043e-05
7.10077e-05
5.51839e-05
4.96515e-05
4.9431e-05
4.69993e-05
3.90451e-05
3.16866e-05
3.13982e-05
3.97115e-05
4.24132e-05
4.50878e-05
4.83124e-05
4.23196e-05
2.95204e-05
2.10319e-05
1.88047e-05
2.14222e-05
2.52654e-05
3.19365e-05
6.45155e-05
6.22204e-05
7.79293e-06
6.68034e-06
3.09633e-05
8.85889e-05
0.000131207
0.000127229
0.000101548
7.8735e-05
6.77243e-05
6.58803e-05
7.04704e-05
8.08048e-05
9.6234e-05
0.000110321
0.000108075
8.50598e-05
6.03692e-05
4.71385e-05
4.42514e-05
4.61191e-05
4.50052e-05
3.9464e-05
3.77662e-05
4.73166e-05
5.46406e-05
4.99053e-05
5.09944e-05
4.71513e-05
2.93307e-05
1.81225e-05
1.61256e-05
2.162e-05
3.95705e-05
7.73067e-05
4.9383e-05
7.36466e-06
8.79286e-06
7.01707e-05
0.000134267
0.000117803
8.94257e-05
6.64665e-05
5.66106e-05
5.7783e-05
6.90972e-05
9.14322e-05
0.000121063
0.000146766
0.000159629
0.000157326
0.000138335
0.000106285
7.59164e-05
5.81163e-05
5.1797e-05
5.02749e-05
4.5769e-05
3.81629e-05
3.44493e-05
3.94323e-05
4.90777e-05
5.00462e-05
4.8977e-05
4.2364e-05
2.53319e-05
1.55132e-05
1.46501e-05
2.29754e-05
5.20733e-05
5.16729e-05
7.25531e-06
7.69199e-06
4.31276e-05
0.000104824
0.00011686
0.000102284
7.91963e-05
6.10256e-05
5.02557e-05
4.84027e-05
5.80189e-05
7.9563e-05
0.000106639
0.000126786
0.00012972
0.000114739
9.20603e-05
7.2667e-05
6.07747e-05
5.61035e-05
5.57535e-05
5.36603e-05
4.55898e-05
3.69513e-05
3.54513e-05
4.53508e-05
5.9402e-05
6.23723e-05
5.9964e-05
4.80854e-05
2.52307e-05
1.34243e-05
1.21354e-05
2.27587e-05
6.58711e-05
7.43067e-06
6.6726e-06
3.33825e-05
9.14468e-05
0.000122504
0.000122066
0.00010316
7.34259e-05
4.64033e-05
3.09714e-05
2.92984e-05
4.1032e-05
6.82033e-05
0.000108906
0.000147568
0.000167457
0.000160143
0.000126509
9.23149e-05
7.46881e-05
6.96636e-05
6.71446e-05
5.77169e-05
4.34918e-05
3.45521e-05
3.6132e-05
4.95823e-05
5.42564e-05
5.02201e-05
3.63772e-05
1.35451e-05
9.13396e-06
1.55316e-05
4.39289e-05
4.9105e-05
7.83235e-06
6.77113e-06
2.96266e-05
8.66858e-05
0.000132201
0.000124972
9.98368e-05
8.28119e-05
6.4367e-05
3.59424e-05
2.3705e-05
2.79602e-05
4.71983e-05
8.4507e-05
0.000136281
0.00018194
0.000198964
0.000185238
0.000154132
0.000123313
0.000103996
9.3431e-05
8.04993e-05
6.08411e-05
4.3921e-05
3.74132e-05
4.32396e-05
5.52205e-05
5.4606e-05
4.69288e-05
2.34362e-05
1.09602e-05
1.25803e-05
3.29069e-05
4.51155e-05
7.34131e-06
8.13991e-06
4.10001e-05
0.000123281
0.00013144
7.81812e-05
4.52584e-05
3.88847e-05
4.35368e-05
3.80681e-05
3.09483e-05
3.98959e-05
7.48219e-05
0.000144366
0.000229444
0.000259269
0.00025385
0.000246844
0.000229445
0.000179961
0.00014175
0.000117933
9.82716e-05
7.53557e-05
5.26976e-05
3.79312e-05
3.27707e-05
3.5178e-05
3.9061e-05
3.75479e-05
2.86e-05
1.23984e-05
6.73307e-06
1.59646e-05
6.05615e-05
7.24799e-06
8.89256e-06
6.03259e-05
0.000125947
7.40466e-05
3.29636e-05
1.89587e-05
2.05141e-05
3.29231e-05
5.47464e-05
8.97922e-05
0.000127388
0.000147026
0.000158047
0.000167392
0.00017458
0.000177557
0.000175197
0.000167007
0.000153714
0.000138149
0.000122617
0.000106261
8.64951e-05
6.43892e-05
4.65478e-05
3.76173e-05
3.67043e-05
3.83164e-05
3.52057e-05
2.16192e-05
1.10489e-05
8.04621e-06
1.67077e-05
6.95483e-05
7.68476e-06
8.35589e-06
6.39511e-05
8.49956e-05
4.06405e-05
1.95909e-05
1.55834e-05
2.83858e-05
7.78071e-05
0.000143807
0.000142947
0.00013264
0.000129787
0.000133938
0.000140265
0.000145351
0.000147867
0.000147588
0.000144797
0.000139806
0.00013284
0.00012396
0.000111769
9.39925e-05
7.18554e-05
5.19385e-05
3.96322e-05
3.48851e-05
3.17124e-05
2.02818e-05
1.06191e-05
9.87987e-06
1.68044e-05
4.39674e-05
4.62977e-05
7.69349e-06
8.00411e-06
6.47067e-05
8.78571e-05
5.03142e-05
2.95478e-05
2.38757e-05
3.26515e-05
5.6974e-05
7.90184e-05
8.99112e-05
9.87404e-05
0.000108091
0.000117379
0.000125609
0.000132035
0.000136151
0.000137631
0.000136381
0.000132564
0.000126528
0.0001183
0.000107253
9.26788e-05
7.54154e-05
5.88568e-05
4.66667e-05
4.01371e-05
3.71641e-05
3.03749e-05
1.55811e-05
7.84869e-06
1.04764e-05
2.85314e-05
4.49655e-05
7.13098e-06
7.97345e-06
6.20311e-05
0.000129661
0.000123843
7.98316e-05
4.22235e-05
2.82561e-05
2.91667e-05
3.89147e-05
5.1902e-05
6.58264e-05
7.94678e-05
9.21399e-05
0.000103455
0.000113074
0.000120562
0.000125342
0.000126851
0.000124758
0.000118875
0.000109345
9.68835e-05
8.27111e-05
6.8454e-05
5.56636e-05
4.5313e-05
3.75333e-05
3.14614e-05
2.5314e-05
1.73782e-05
8.34886e-06
5.59674e-06
1.62554e-05
5.76992e-05
7.09234e-06
7.77591e-06
4.94636e-05
0.000124442
0.000147438
0.00014365
0.000110858
6.56193e-05
4.11385e-05
3.24123e-05
3.03881e-05
3.22898e-05
3.88554e-05
5.11516e-05
6.80327e-05
8.52631e-05
9.94964e-05
0.000110543
0.000118685
0.000123332
0.000123675
0.000119241
0.000110231
9.7824e-05
8.38988e-05
7.01872e-05
5.74002e-05
4.5001e-05
3.15637e-05
1.69549e-05
8.45712e-06
7.78246e-06
9.34278e-06
2.15923e-05
6.00307e-05
7.20018e-06
6.94709e-06
3.77812e-05
0.000112677
0.000155553
0.000162446
0.000158234
0.000144784
0.000112465
7.643e-05
5.42523e-05
4.18583e-05
3.40867e-05
3.01732e-05
3.15901e-05
4.0982e-05
5.96187e-05
8.15549e-05
9.88202e-05
0.000110682
0.000118318
0.000121458
0.000119583
0.000113003
0.000102797
9.04153e-05
7.68077e-05
6.12637e-05
4.13374e-05
1.86946e-05
7.08474e-06
6.09748e-06
1.22367e-05
3.4427e-05
4.52663e-05
6.96437e-06
7.12483e-06
3.56763e-05
0.000108946
0.00015753
0.000154467
0.000124779
9.39665e-05
8.32122e-05
9.27617e-05
0.000108884
0.000105156
8.12778e-05
5.74947e-05
4.08812e-05
3.14601e-05
2.97343e-05
3.88372e-05
6.17325e-05
8.96685e-05
0.00010923
0.000120268
0.000124992
0.000123742
0.000117207
0.000106474
9.25018e-05
7.58736e-05
5.59659e-05
3.11998e-05
1.14114e-05
5.50237e-06
8.49794e-06
2.42603e-05
4.82993e-05
6.84379e-06
7.75067e-06
4.035e-05
0.000117588
0.000161337
0.000163115
0.000139391
9.63664e-05
6.48576e-05
5.64547e-05
6.99361e-05
0.000109373
0.00016118
0.000164398
0.000109855
6.40125e-05
4.01349e-05
2.99803e-05
3.09546e-05
4.6492e-05
7.73111e-05
0.000108607
0.000127801
0.000135927
0.000135476
0.000127828
0.000114521
9.70848e-05
7.60193e-05
4.90547e-05
1.78194e-05
6.0404e-06
5.68447e-06
1.65913e-05
5.7245e-05
7.02046e-06
8.29879e-06
4.57448e-05
0.000130601
0.000160748
0.000153151
0.000123572
9.10482e-05
7.20806e-05
6.44971e-05
6.66618e-05
8.39636e-05
0.000124976
0.000187408
0.000227247
0.000177621
9.36168e-05
4.97985e-05
3.28186e-05
3.01493e-05
4.22276e-05
7.20488e-05
0.000107168
0.000129076
0.000136685
0.000134158
0.000123871
0.000107717
8.65156e-05
5.61449e-05
1.68235e-05
5.45751e-06
6.25391e-06
1.81003e-05
5.75394e-05
7.27978e-06
8.23264e-06
4.45591e-05
0.00012776
0.000154192
0.00014164
0.000105274
7.20291e-05
5.98136e-05
6.50515e-05
8.06296e-05
9.99352e-05
0.000124939
0.000162466
0.000210803
0.000246193
0.000216971
0.000123002
6.12273e-05
3.69499e-05
3.12501e-05
4.06081e-05
6.7184e-05
9.80929e-05
0.000114455
0.00011718
0.000111492
9.98944e-05
8.2509e-05
5.22964e-05
1.62787e-05
5.76145e-06
7.84034e-06
2.38118e-05
4.81368e-05
7.24348e-06
8.15792e-06
4.31888e-05
0.000126989
0.00015512
0.000143194
0.000110581
7.4553e-05
5.35729e-05
5.07044e-05
6.41117e-05
9.25777e-05
0.000130803
0.000171916
0.000214252
0.00025609
0.000283765
0.000259307
0.000161849
7.95975e-05
4.46553e-05
3.44105e-05
3.96678e-05
6.01037e-05
8.34214e-05
9.25341e-05
9.01787e-05
8.19369e-05
6.9293e-05
4.92939e-05
1.97952e-05
6.37025e-06
6.72567e-06
1.95888e-05
4.93182e-05
7.18988e-06
8.28897e-06
4.35422e-05
0.000128745
0.000155329
0.000137358
0.000105235
7.75794e-05
5.86472e-05
5.02434e-05
5.53851e-05
7.66496e-05
0.000116554
0.000172884
0.000236483
0.000296749
0.0003411
0.000337484
0.000318941
0.000210139
0.000105181
5.68159e-05
4.12204e-05
4.34883e-05
5.96601e-05
7.8084e-05
8.35622e-05
7.80508e-05
6.71782e-05
5.20671e-05
2.6354e-05
6.75686e-06
4.77561e-06
1.41344e-05
6.13019e-05
7.38279e-06
8.63975e-06
4.69623e-05
0.00013766
0.00015499
0.000124149
8.74833e-05
6.72227e-05
5.94128e-05
5.73065e-05
6.23245e-05
7.9898e-05
0.000114886
0.000170071
0.000243451
0.000319814
0.000351667
0.000346868
0.000340175
0.000331565
0.000239729
0.000124011
6.78199e-05
4.96469e-05
5.25322e-05
6.94856e-05
8.33809e-05
8.11607e-05
6.96695e-05
5.41639e-05
2.31247e-05
5.70438e-06
4.26834e-06
1.36944e-05
6.80666e-05
7.76966e-06
9.23944e-06
5.9327e-05
0.000149221
0.000142275
0.0001032
7.06893e-05
5.80394e-05
5.95463e-05
6.86373e-05
8.23291e-05
0.00010341
0.000136055
0.000181444
0.000236986
0.000296278
0.000345522
0.000354372
0.000348603
0.000340963
0.000331381
0.00022527
0.000124038
7.43987e-05
5.99473e-05
6.79313e-05
8.61075e-05
8.80397e-05
7.28425e-05
4.84663e-05
1.32226e-05
4.94359e-06
6.51075e-06
1.97103e-05
6.01436e-05
7.89621e-06
9.34568e-06
6.80745e-05
0.000146374
0.000132367
9.74689e-05
6.99299e-05
5.95177e-05
6.3361e-05
7.69818e-05
9.57711e-05
0.000118134
0.000145391
0.000178511
0.000217025
0.00025934
0.00030195
0.0003376
0.000355844
0.000349376
0.000341039
0.000275673
0.000181357
0.000111743
7.8786e-05
7.27934e-05
8.41312e-05
8.97703e-05
7.27912e-05
3.91701e-05
9.8012e-06
4.63897e-06
8.99825e-06
3.05997e-05
4.48685e-05
7.67641e-06
9.12547e-06
6.48055e-05
0.000147484
0.000146918
0.00012292
9.11954e-05
6.80228e-05
5.93061e-05
6.31614e-05
7.68129e-05
9.82402e-05
0.000126038
0.000158822
0.000194983
0.000232906
0.000271028
0.000307247
0.000337319
0.000352294
0.00033826
0.000288215
0.000216542
0.000150663
0.000107876
8.94954e-05
8.9217e-05
9.21948e-05
7.94915e-05
4.97944e-05
1.563e-05
5.42633e-06
8.25416e-06
2.87135e-05
4.12588e-05
7.41694e-06
8.89443e-06
6.10847e-05
0.000152259
0.000164987
0.000152738
0.000125367
9.17261e-05
6.73895e-05
5.72756e-05
5.92867e-05
7.1774e-05
9.41838e-05
0.000125562
0.000163498
0.000204579
0.000245388
0.000282444
0.000310902
0.000323347
0.000311966
0.000275606
0.00022437
0.0001741
0.000136469
0.000115124
0.000107513
0.000105006
9.47582e-05
7.11006e-05
3.37265e-05
9.46285e-06
6.94682e-06
2.04968e-05
4.77571e-05
7.37263e-06
8.85745e-06
5.94231e-05
0.000155693
0.000172359
0.000161849
0.000143773
0.000122108
9.62497e-05
7.34021e-05
6.06064e-05
5.88541e-05
6.7987e-05
8.83082e-05
0.000119247
0.000158215
0.000200613
0.000240648
0.000271592
0.000286319
0.000280486
0.000256531
0.000223262
0.000190665
0.000165332
0.000149376
0.000140848
0.00013391
0.000121304
9.87018e-05
6.12466e-05
1.81498e-05
7.31612e-06
1.62755e-05
6.3042e-05
7.52056e-06
8.68142e-06
5.62744e-05
0.000158317
0.00017675
0.000161284
0.000143067
0.000133182
0.000125558
0.00010877
8.55281e-05
6.79902e-05
6.12439e-05
6.61133e-05
8.31373e-05
0.0001119
0.000149078
0.000187994
0.000220607
0.00024074
0.000246653
0.000241356
0.00023014
0.0002175
0.00020569
0.000194704
0.000182804
0.000167496
0.000146702
0.000117767
7.43599e-05
2.46236e-05
9.40606e-06
1.68757e-05
7.51076e-05
7.82355e-06
8.71481e-06
5.23858e-05
0.000155157
0.000172501
0.000147609
0.000124861
0.000119103
0.000125443
0.000130929
0.000121427
9.80767e-05
7.65719e-05
6.54943e-05
6.62271e-05
7.94185e-05
0.000105451
0.000141774
0.00018127
0.000215606
0.000239932
0.000253709
0.000258939
0.000258037
0.000252166
0.000240891
0.000223099
0.000198112
0.000165071
0.000119414
5.94599e-05
2.13147e-05
1.177e-05
2.21653e-05
7.34362e-05
7.96736e-06
9.02483e-06
5.22264e-05
0.000149972
0.000152492
0.000118015
9.72418e-05
9.76979e-05
0.000113305
0.000134715
0.000147701
0.000139705
0.000115166
9.15855e-05
7.78506e-05
7.50561e-05
8.42958e-05
0.000107749
0.000145426
0.000191466
0.000235872
0.000271139
0.000294479
0.000305232
0.00030318
0.000288802
0.000263354
0.00022818
0.000182438
0.000119931
5.07698e-05
1.92729e-05
1.41572e-05
2.98074e-05
6.04006e-05
7.8599e-06
9.45796e-06
5.66057e-05
0.000142618
0.000124024
9.23055e-05
8.03976e-05
8.64227e-05
0.00010437
0.000127475
0.000145948
0.00015035
0.000139686
0.000122997
0.000108602
9.8633e-05
9.44074e-05
0.000100157
0.00012087
0.000158931
0.000210589
0.000264824
0.000305991
0.000316075
0.000312261
0.000306008
0.00027621
0.000235103
0.00018218
0.000111772
4.52743e-05
1.85043e-05
1.66343e-05
3.98198e-05
4.90429e-05
7.66396e-06
9.29021e-06
5.58303e-05
0.00012354
0.000101353
7.97091e-05
7.4384e-05
8.14473e-05
9.62247e-05
0.000115019
0.000132584
0.000142361
0.000141582
0.000134925
0.000128904
0.000124587
0.000119715
0.000116596
0.000123008
0.000146811
0.00019204
0.000251513
0.000301139
0.000318557
0.000315148
0.000301516
0.000271228
0.000230774
0.000178955
0.00011103
4.72554e-05
1.97045e-05
1.78787e-05
4.39199e-05
4.36153e-05
7.52245e-06
8.66916e-06
4.71512e-05
0.000112402
0.00010493
8.69199e-05
7.28389e-05
6.7327e-05
7.04694e-05
8.09328e-05
9.66812e-05
0.000114329
0.00012903
0.000137049
0.00013902
0.000138395
0.000137071
0.000136028
0.000138982
0.000152115
0.000180327
0.000222183
0.000265392
0.000292711
0.00029695
0.00028253
0.000255883
0.000220233
0.000174158
0.000113682
5.33161e-05
2.29601e-05
1.91344e-05
4.34312e-05
4.38594e-05
7.54968e-06
8.1195e-06
4.2141e-05
0.000110967
0.000118111
0.000102728
7.8204e-05
5.89555e-05
5.04834e-05
5.09507e-05
5.85913e-05
7.31092e-05
9.39656e-05
0.000116444
0.000132607
0.000139606
0.000141761
0.000145201
0.000154581
0.000173099
0.000201885
0.000237199
0.000268952
0.000286177
0.000285285
0.00026983
0.000244483
0.00021147
0.000169439
0.000115182
5.90778e-05
2.70695e-05
2.12649e-05
4.38151e-05
4.54604e-05
7.56892e-06
8.19202e-06
4.40581e-05
0.00012452
0.000147992
0.000139793
0.000116774
8.68553e-05
6.13661e-05
4.51067e-05
3.72356e-05
3.71578e-05
4.74958e-05
7.06189e-05
0.000101152
0.000128076
0.000145432
0.000155801
0.000165715
0.000181237
0.000205379
0.000235938
0.000264635
0.000281299
0.000281393
0.000267338
0.000243595
0.000212867
0.0001745
0.000124843
6.9254e-05
3.30073e-05
2.42812e-05
4.4201e-05
5.0848e-05
7.62496e-06
8.37851e-06
4.67525e-05
0.000147758
0.000191645
0.00019305
0.000183504
0.000164273
0.000130384
8.81821e-05
5.19436e-05
2.78227e-05
1.93963e-05
2.83106e-05
5.31508e-05
8.8954e-05
0.000126874
0.00016169
0.000193439
0.000223984
0.000253925
0.000281005
0.000299945
0.000305728
0.000297315
0.000277529
0.000250059
0.000217142
0.000178202
0.000129998
7.63612e-05
3.90445e-05
2.88111e-05
4.83059e-05
5.55133e-05
7.66431e-06
8.67032e-06
4.54499e-05
0.000139901
0.000183386
0.000181131
0.00017153
0.000170041
0.000179782
0.000185655
0.000149849
6.24821e-05
1.83471e-05
1.18412e-05
2.57451e-05
5.74008e-05
0.000101794
0.000148131
0.000191968
0.000236097
0.000281728
0.000321969
0.00034571
0.000347795
0.000331845
0.000304471
0.000270793
0.000233321
0.000191293
0.000141036
8.5279e-05
4.52891e-05
3.35619e-05
5.28252e-05
6.15848e-05
7.78718e-06
9.07961e-06
4.70825e-05
0.000129148
0.00015872
0.000152719
0.000136329
0.000122389
0.000121068
0.00013425
0.000146618
0.00010449
3.01699e-05
1.10174e-05
2.00472e-05
4.96944e-05
0.000102112
0.000172502
0.000251332
0.000327481
0.000369902
0.000371032
0.000370365
0.000368169
0.000361439
0.000324671
0.000283566
0.000241216
0.000195298
0.000142376
8.70855e-05
4.91595e-05
3.88786e-05
6.11362e-05
6.34204e-05
7.92264e-06
9.49193e-06
5.74072e-05
0.000147224
0.000166565
0.000160511
0.00014571
0.000128215
0.000113137
9.98382e-05
7.95488e-05
4.89131e-05
2.35514e-05
1.79721e-05
3.60718e-05
7.24378e-05
0.000117797
0.000167561
0.000221627
0.000277352
0.000324952
0.000353518
0.000361446
0.000353787
0.000334507
0.000306527
0.000272708
0.000234409
0.000190392
0.000138559
8.56309e-05
5.08689e-05
4.31473e-05
6.96543e-05
6.39876e-05
8.09698e-06
9.45669e-06
6.65118e-05
0.000171058
0.00018481
0.000174917
0.000158854
0.00014339
0.000127433
0.000103821
6.90181e-05
3.6848e-05
2.18055e-05
2.63712e-05
5.47594e-05
9.60317e-05
0.000136754
0.000175656
0.000213946
0.000250437
0.000281232
0.000301932
0.000310438
0.000307483
0.000294924
0.000274544
0.00024765
0.000214538
0.000173998
0.000125901
7.94066e-05
5.09253e-05
4.76222e-05
8.04288e-05
6.14235e-05
8.19595e-06
9.21632e-06
6.15159e-05
0.000174638
0.000189527
0.000169674
0.000146931
0.000135957
0.000135912
0.000136176
0.000120627
8.00594e-05
3.97647e-05
2.38358e-05
3.32621e-05
6.43807e-05
0.000105275
0.000145933
0.000185476
0.000223663
0.000257051
0.000280794
0.00029208
0.000291297
0.000280512
0.00026181
0.000236486
0.000204517
0.000164693
0.000118069
7.51789e-05
5.08173e-05
5.12636e-05
8.96269e-05
5.93411e-05
8.22558e-06
9.21807e-06
5.71183e-05
0.000158645
0.000171073
0.000149775
0.000124829
0.000112932
0.000117915
0.000137115
0.000159601
0.000157006
9.72998e-05
3.81957e-05
2.10869e-05
3.29011e-05
7.13281e-05
0.000127338
0.000183714
0.000232243
0.000270491
0.000295601
0.000305802
0.000302249
0.000287849
0.000265374
0.000236348
0.00020073
0.000157842
0.00011078
7.13341e-05
5.14161e-05
5.62881e-05
0.000100163
5.58739e-05
8.13036e-06
9.39198e-06
5.92915e-05
0.000157411
0.000169527
0.000150974
0.000127355
0.000112523
0.000110766
0.000121497
0.000142638
0.000167521
0.00017009
9.65318e-05
3.20317e-05
1.94924e-05
3.77583e-05
8.47476e-05
0.00015328
0.000224402
0.00028119
0.000315084
0.000326071
0.000319291
0.000300533
0.000273786
0.000240781
0.00020136
0.000155126
0.000106687
6.89698e-05
5.22092e-05
6.1005e-05
0.000108571
5.29265e-05
8.01536e-06
9.46328e-06
6.46371e-05
0.000169584
0.00017647
0.000154007
0.0001304
0.000118883
0.000119996
0.000129421
0.000141927
0.000151948
0.000150977
0.000120368
5.29422e-05
2.27441e-05
2.88269e-05
6.80841e-05
0.000140774
0.000226232
0.000293842
0.000328795
0.000335587
0.000324272
0.000302131
0.000272874
0.000237723
0.000196331
0.000148914
0.000101502
6.6888e-05
5.35385e-05
6.64287e-05
0.000115525
4.94685e-05
7.88666e-06
9.30785e-06
6.35097e-05
0.000170566
0.00017613
0.000150656
0.000126405
0.000118989
0.000128307
0.000147387
0.000165146
0.000169694
0.0001489
9.83062e-05
4.77718e-05
2.32925e-05
2.70597e-05
6.34885e-05
0.000136123
0.000223249
0.000290377
0.000322514
0.000326804
0.000314517
0.000292576
0.000263979
0.00022947
0.000188677
0.000142478
9.76632e-05
6.6202e-05
5.5617e-05
7.17471e-05
0.0001196
4.6941e-05
7.79184e-06
9.17512e-06
6.20242e-05
0.000162519
0.000165763
0.000138693
0.000112645
0.000104456
0.000115217
0.000140089
0.000167356
0.000179803
0.000159632
0.000102181
4.73647e-05
2.46076e-05
3.03314e-05
7.10783e-05
0.000142818
0.000215562
0.000266205
0.000290883
0.000295668
0.000287242
0.000269889
0.000245626
0.000214936
0.000177668
0.000135318
9.47701e-05
6.68287e-05
5.87919e-05
7.75874e-05
0.000122079
4.53697e-05
7.71122e-06
9.11504e-06
6.21141e-05
0.000159722
0.000163326
0.000137911
0.000111473
0.000101061
0.000109222
0.000132653
0.000161096
0.000177465
0.000163657
0.000110382
5.25349e-05
2.56e-05
2.82595e-05
6.60261e-05
0.000130801
0.000190395
0.000231323
0.000253874
0.000261464
0.000257632
0.00024514
0.000225536
0.000199291
0.000166573
0.000129275
9.37669e-05
6.95188e-05
6.3987e-05
8.49848e-05
0.00012519
4.54483e-05
7.65728e-06
9.08411e-06
6.34897e-05
0.000163229
0.000166197
0.000138703
0.000109859
9.63468e-05
0.000100491
0.000120785
0.000152212
0.000183033
0.000199118
0.000182791
0.000115955
4.82507e-05
2.46353e-05
3.63325e-05
8.15501e-05
0.000139622
0.000185187
0.000213154
0.000226964
0.000229608
0.000223127
0.000208915
0.000187619
0.000159653
0.00012696
9.5408e-05
7.39042e-05
7.03838e-05
9.29295e-05
0.000129672
4.71962e-05
7.63215e-06
9.075e-06
6.34177e-05
0.000166006
0.000169308
0.000141938
0.000113594
9.92894e-05
0.000100499
0.000115955
0.00014359
0.000177468
0.000208092
0.000225458
0.000210177
0.00013266
5.1344e-05
2.50571e-05
3.56372e-05
7.81662e-05
0.000137532
0.000182765
0.000205733
0.00021299
0.000209797
0.000198603
0.000180443
0.000155985
0.000127116
9.90721e-05
8.01577e-05
7.86652e-05
0.000102456
0.000135769
5.01558e-05
7.6595e-06
9.09498e-06
6.44523e-05
0.000165712
0.000165397
0.000135614
0.000109297
9.87477e-05
0.000102801
0.000119347
0.000147097
0.000183009
0.000220936
0.000253973
0.000275486
0.000265273
0.000174473
6.17267e-05
2.60997e-05
3.11543e-05
6.73627e-05
0.000122522
0.000166091
0.000187258
0.000192235
0.000186574
0.000172714
0.000152029
0.000126734
0.000101954
8.57331e-05
8.64641e-05
0.000111295
0.000141542
5.32382e-05
7.72705e-06
9.14382e-06
6.64865e-05
0.000166218
0.000160611
0.000129621
0.000107042
0.000101484
0.000109922
0.000128925
0.000155721
0.000187413
0.000220859
0.000253193
0.000281673
0.000300652
0.00028783
0.000195613
7.22043e-05
2.95274e-05
3.06872e-05
6.42604e-05
0.000116949
0.000157017
0.000173545
0.0001737
0.000163547
0.000146064
0.000124184
0.000103067
9.02431e-05
9.37291e-05
0.000119472
0.000146053
5.53749e-05
7.80917e-06
9.16385e-06
6.93585e-05
0.00016716
0.000154219
0.00012103
0.000102507
0.000102467
0.000116762
0.000142092
0.000175203
0.000212104
0.000249035
0.000283432
0.00031342
0.000335691
0.000339787
0.000296332
0.000179786
6.70791e-05
2.94627e-05
3.22698e-05
6.53651e-05
0.000112306
0.000144685
0.000155545
0.000151491
0.000137941
0.000119218
0.000101302
9.17996e-05
9.82522e-05
0.000125135
0.0001486
5.61749e-05
7.88919e-06
9.22856e-06
7.31768e-05
0.00016758
0.000145046
0.000112468
0.000100866
0.000108293
0.00012856
0.000156622
0.00018881
0.000222782
0.000257221
0.000291338
0.000324173
0.000353345
0.000371767
0.000359277
0.000280579
0.00014811
5.65216e-05
2.95928e-05
3.87324e-05
7.42989e-05
0.000114742
0.000136689
0.00013919
0.000129486
0.000113828
9.89131e-05
9.23593e-05
0.000101357
0.00012895
0.000149198
5.57087e-05
7.94638e-06
9.17988e-06
7.52027e-05
0.0001624
0.000130884
0.000101072
9.66943e-05
0.000112399
0.000141862
0.000178654
0.00021725
0.000254765
0.000290769
0.000325831
0.000360038
0.000390327
0.000402268
0.000393653
0.000364537
0.000237518
0.000103684
4.27228e-05
3.06319e-05
4.90336e-05
8.53127e-05
0.000115362
0.000125953
0.000120863
0.000107825
9.50289e-05
9.07106e-05
0.000101941
0.000130621
0.000148622
5.44729e-05
7.99494e-06
9.19852e-06
7.79399e-05
0.000156455
0.000118441
9.40128e-05
9.69493e-05
0.000119681
0.000154255
0.000192831
0.000230788
0.000267189
0.000302888
0.000338804
0.0003746
0.000405435
0.000411283
0.000403029
0.000393222
0.0003079
0.000163914
6.73755e-05
3.46803e-05
3.78418e-05
6.53023e-05
9.66095e-05
0.000112426
0.000112007
0.000102597
9.25007e-05
9.02086e-05
0.000103028
0.00013202
0.000147183
5.26815e-05
8.00705e-06
9.12923e-06
7.99064e-05
0.000148121
0.000105166
8.67797e-05
9.70843e-05
0.000127879
0.000170008
0.000213982
0.000254954
0.000292829
0.000329567
0.000366976
0.00040392
0.000427116
0.000420996
0.000413255
0.000403949
0.0003889
0.000252178
0.000113675
4.88603e-05
3.39052e-05
4.86323e-05
7.81693e-05
9.92099e-05
0.000103071
9.63209e-05
8.84669e-05
8.83536e-05
0.000103233
0.000133173
0.000145818
5.09076e-05
8.00432e-06
9.09279e-06
8.08672e-05
0.000138557
9.35101e-05
8.09219e-05
9.77848e-05
0.000135171
0.00018121
0.000225723
0.000265815
0.000303064
0.000339987
0.000378252
0.000415649
0.000434941
0.000429391
0.000422218
0.000413474
0.000403285
0.000326787
0.000178244
7.63146e-05
3.93807e-05
3.8766e-05
6.04142e-05
8.41956e-05
9.43802e-05
9.25964e-05
8.78694e-05
8.97982e-05
0.000106122
0.000135723
0.00014442
4.92157e-05
7.96483e-06
8.93039e-06
7.8405e-05
0.000127422
8.26293e-05
7.43793e-05
9.62029e-05
0.00014006
0.000192118
0.000240488
0.000282692
0.000321353
0.000359705
0.000399509
0.000436296
0.000442492
0.000437553
0.000430959
0.000422752
0.000413033
0.000395216
0.000255706
0.000120245
5.40152e-05
3.6774e-05
4.79064e-05
7.06871e-05
8.44608e-05
8.62401e-05
8.49911e-05
9.0178e-05
0.000109035
0.000138696
0.000143755
4.81391e-05
7.95704e-06
8.83714e-06
7.56437e-05
0.000120553
7.54404e-05
6.86765e-05
9.20805e-05
0.000138124
0.000192267
0.000242252
0.000285992
0.000326473
0.000367028
0.000409237
0.000447356
0.000449202
0.000445124
0.00043935
0.000431921
0.00042293
0.000412544
0.000332498
0.000183823
8.14869e-05
4.21809e-05
3.85383e-05
5.54796e-05
7.42346e-05
8.24183e-05
8.51659e-05
9.29485e-05
0.000113369
0.000141905
0.000142798
4.72122e-05
7.93373e-06
8.69075e-06
7.16371e-05
0.000113951
6.80272e-05
6.2132e-05
8.65556e-05
0.000135262
0.000193193
0.000246509
0.000292956
0.000335948
0.000379099
0.000423172
0.000456158
0.00045476
0.000451632
0.000446774
0.00044022
0.000432042
0.000422373
0.000395383
0.00025696
0.000125771
5.85799e-05
3.86284e-05
4.499e-05
6.18773e-05
7.43328e-05
8.21559e-05
9.39885e-05
0.000116742
0.000144466
0.000142526
4.69582e-05
7.9697e-06
8.61652e-06
6.82351e-05
0.000108942
6.17388e-05
5.59727e-05
8.00432e-05
0.00012905
0.000188492
0.000243865
0.000292655
0.00033833
0.000384347
0.000430253
0.000459526
0.000459184
0.000457096
0.000453255
0.000447684
0.000440441
0.000431645
0.000421497
0.000323143
0.000179991
8.35801e-05
4.45015e-05
3.87936e-05
5.15989e-05
6.75462e-05
7.97565e-05
9.46171e-05
0.000118874
0.000145768
0.000141661
4.66045e-05
8.00082e-06
8.55218e-06
6.56206e-05
0.000101557
5.44374e-05
5.02924e-05
7.54338e-05
0.000126279
0.000187967
0.000245207
0.000295792
0.000343491
0.000391518
0.000437973
0.00046179
0.000462507
0.000461494
0.000458732
0.000454226
0.000448023
0.000440224
0.000431002
0.000377432
0.000242155
0.000122486
5.98714e-05
3.95945e-05
4.31541e-05
5.79619e-05
7.44885e-05
9.36061e-05
0.000120074
0.000146681
0.000141494
4.66643e-05
8.08393e-06
8.52658e-06
6.33176e-05
9.37329e-05
4.74101e-05
4.51678e-05
7.17365e-05
0.000124091
0.000186409
0.000243731
0.00029481
0.000343576
0.000392833
0.000439867
0.000462608
0.000464337
0.00046438
0.000462692
0.000459266
0.000454134
0.00044738
0.000439151
0.000410933
0.000289955
0.00016206
8.03796e-05
4.62712e-05
4.05858e-05
5.07997e-05
6.80685e-05
9.02137e-05
0.000119097
0.000146349
0.000141002
4.65642e-05
8.16154e-06
8.45161e-06