/*--------------------------------*- C++ -*----------------------------------*\
| =========                 |                                                 |
| \\      /  F ield         | OpenFOAM: The Open Source CFD Toolbox           |
|  \\    /   O peration     | Version:  v1906                                 |
|   \\  /    A nd           | Web:      www.OpenFOAM.com                      |
|    \\/     M anipulation  |                                                 |
\*---------------------------------------------------------------------------*/
FoamFile
{
    version     2.0;
    format      ascii;
    class       volScalarField;
    location    "48";
    object      omega;
}
// * * * * * * * * * * * * * * * * * * * * * * * * * * * * * * * * * * * * * //

dimensions      [0 0 -1 0 0 0 0];


internalField   nonuniform List<scalar> 
78750
(
273.345
8.69921
11.0826
12.9609
14.3608
15.6157
16.712
17.73
18.5536
19.2927
19.8596
20.4318
20.8733
21.3566
21.728
22.1453
22.4913
22.8852
23.2498
23.7012
24.1458
24.7797
25.3681
26.3134
27.0725
28.3987
29.265
30.9015
31.6252
33.2233
33.3046
33.7106
33.0479
24.6778
400.785
463.979
13.7296
19.0095
16.9104
16.6017
16.8951
17.2297
17.3842
17.2707
17.1349
17.0099
16.8907
16.7397
16.5738
16.4183
16.2986
16.2222
16.1992
16.2054
16.2458
16.3707
16.4713
16.7531
16.8917
17.3613
17.5355
18.1836
18.3992
19.1198
19.3338
19.9048
19.7657
20.6289
16.6165
623.722
467.643
16.0519
12.7898
11.9191
12.0378
12.0551
12.1089
12.3184
12.7115
13.2558
13.6965
13.8796
13.7263
13.3124
12.8244
12.4059
12.1678
12.0509
12.0593
12.2764
12.6868
13.2411
13.8743
14.4844
15.1675
15.6679
16.4138
16.6901
17.5463
17.4183
18.2893
17.4597
18.5832
17.8308
614.774
443.137
18.019
16.6546
17.7795
17.7118
17.8905
17.8863
17.6902
17.3308
16.8501
16.2971
15.5933
14.6019
13.5218
12.7403
12.2504
11.8678
11.5329
11.3077
11.264
11.42
11.7422
12.176
12.6816
13.2453
13.8299
14.5008
15.0216
15.8768
16.0705
17.1816
16.6474
17.9683
14.3409
624.167
449.152
21.4283
16.3433
14.1177
14.8614
16.0113
16.8116
17.2195
17.3035
17.1693
16.8746
16.357
15.4453
14.0514
12.6043
11.7771
11.5503
11.5111
11.4261
11.2522
11.0474
10.9032
10.8702
10.9511
11.1332
11.4135
11.8223
12.2694
12.9759
13.2298
14.3414
13.3907
13.4336
10.5209
649.991
446.308
18.2051
15.4023
16.4089
17.322
17.8956
17.9032
17.4362
16.6806
15.7785
14.7427
13.3735
11.6297
10.0971
9.58844
9.73389
9.96957
10.1443
10.2779
10.4027
10.5464
10.7327
10.9679
11.2463
11.5709
11.9598
12.4378
13.0302
13.8212
14.8024
16.3058
17.7025
20.2525
23.5215
669.11
416.878
11.8783
15.1121
18.1316
19.3293
19.5369
19.3596
18.9797
18.4139
17.6935
16.8956
15.9931
14.8213
13.2796
11.6396
10.4568
9.92102
9.778
9.76381
9.79468
9.87622
10.0253
10.2556
10.5752
10.9759
11.4263
11.9029
12.452
13.2576
14.6492
16.9869
20.0357
23.058
26.0751
656.999
426.596
19.3072
20.2495
20.2729
20.1008
20.0294
20.0348
20.0407
19.9881
19.8185
19.482
18.9073
17.9658
16.5687
14.7129
12.5299
10.5954
9.61207
9.43525
9.52033
9.55522
9.59844
9.76881
10.1065
10.5976
11.1851
11.7676
12.2496
12.6817
13.4522
15.2692
18.3198
21.1352
23.3594
636.562
414.936
16.0081
17.8121
18.7751
19.2949
19.5454
19.6118
19.517
19.2465
18.7853
18.1871
17.5917
17.0759
16.5668
15.9074
14.9171
13.5316
11.8409
10.1477
9.17095
9.12094
9.39764
9.61284
9.72907
9.88535
10.2232
10.7873
11.4949
12.1433
12.5646
13.076
14.6233
16.9559
18.8663
623.286
430.497
20.3524
20.9384
21.0344
20.9893
20.9021
20.8248
20.7784
20.7326
20.6162
20.3556
19.8881
19.1558
18.175
17.119
16.1776
15.353
14.4758
13.299
11.7426
10.1089
9.01633
8.73218
8.88431
9.11022
9.34738
9.71232
10.3617
11.3502
12.4232
13.1774
13.9379
15.3951
17.103
620.457
430.164
19.1643
19.7514
19.8986
19.9036
19.873
19.8784
19.954
20.0652
20.1342
20.0987
19.9362
19.6409
19.1808
18.4845
17.5145
16.4268
15.4514
14.6194
13.7578
12.6578
11.2959
10.1063
9.48053
9.30702
9.36469
9.52551
9.85865
10.6268
12.024
13.6992
14.9882
15.8582
16.8626
618.11
443.578
21.5972
21.285
20.8829
20.4685
20.1259
19.9333
19.8794
19.8742
19.8163
19.6502
19.3861
19.047
18.6462
18.1777
17.6028
16.8686
16.0064
15.1623
14.4036
13.6175
12.6224
11.3711
10.2035
9.48019
9.14993
9.06108
9.133
9.42248
10.1876
11.6609
13.5553
15.1684
16.4096
617.851
437.089
19.7757
19.8542
19.7841
19.6692
19.5519
19.4495
19.3657
19.3512
19.4543
19.4868
19.3441
19.0494
18.6321
18.099
17.4517
16.7208
15.9651
15.2511
14.6162
14.0114
13.3089
12.3553
11.183
10.2131
9.65989
9.39206
9.29397
9.31462
9.48565
10.0461
11.2377
13.1835
15.3813
618.618
429.553
20.0758
20.8188
20.9711
20.8578
20.5246
19.9901
19.2666
18.4074
18.1592
18.5236
18.7831
18.747
18.4973
18.1047
17.5873
16.9275
16.1396
15.3426
14.6512
14.057
13.4491
12.6642
11.5704
10.3623
9.48899
8.9989
8.757
8.72971
9.14177
10.8134
13.6951
15.6048
17.3223
621.394
432.683
20.7664
21.4064
21.4892
21.3659
21.1285
20.8517
20.3191
18.8955
17.4271
17.5694
18.2195
18.5198
18.464
18.188
17.7623
17.2071
16.5331
15.7803
15.04
14.3824
13.779
13.1204
12.2675
11.2112
10.2635
9.68168
9.38647
9.26759
9.38172
10.2487
12.785
15.7838
17.2099
618.225
444.568
21.4633
21.0453
20.5532
19.9265
19.3111
19.2967
19.4735
18.776
17.5864
17.6624
18.1362
18.2506
18.1371
17.9046
17.5641
17.1205
16.5968
15.9871
15.306
14.6363
14.0078
13.3652
12.6005
11.6154
10.5086
9.57654
8.93567
8.51658
8.23821
8.1393
9.05457
12.8415
15.4339
617.528
454.399
21.8851
20.6806
19.4745
17.7758
16.2704
16.6087
17.6252
18.0971
18.4258
18.5766
18.5204
18.3682
18.1401
17.8438
17.4844
17.0658
16.5914
16.0644
15.4962
14.9062
14.3053
13.6702
12.9312
12.0005
10.896
9.87461
9.17683
8.81368
8.78012
9.29858
10.2038
12.6887
15.5585
619.254
448.678
20.6832
19.7301
18.3554
16.2003
14.9111
16.2201
17.734
18.2096
18.361
18.3777
18.3035
18.1475
17.9209
17.6335
17.2914
16.9003
16.4652
15.9906
15.4841
14.9513
14.3879
13.7669
13.0286
12.0906
10.9271
9.7278
8.79114
8.35409
8.91575
11.094
13.9212
15.5837
17.1712
618.936
442.456
20.1664
19.5633
18.5037
16.8652
15.5872
15.847
16.6441
17.0297
17.2958
17.4784
17.5579
17.5377
17.4273
17.2389
16.9837
16.6719
16.3123
15.9117
15.476
15.0086
14.5067
13.9562
13.3267
12.5745
11.6672
10.6497
9.65781
8.82419
8.3319
8.95155
11.9062
15.2126
16.6635
615.67
437.39
20.4307
20.3905
20.0194
19.2087
17.7464
16.1044
15.3725
15.3293
15.5114
15.8023
16.0945
16.3083
16.4075
16.3863
16.2553
16.0294
15.7235
15.3495
14.9139
14.4194
13.8649
13.247
12.564
11.8178
11.0232
10.2167
9.45588
8.79996
8.29164
7.95161
8.76105
12.9676
15.442
615.789
434.647
20.9473
21.4441
21.6225
21.6368
21.3485
20.4093
18.7913
17.1468
15.7797
14.8726
14.5152
14.5967
14.8804
15.1582
15.3187
15.3296
15.1979
14.9414
14.5767
14.1141
13.5553
12.8974
12.1401
11.2969
10.3989
9.50234
8.67616
8.00956
7.94134
9.20489
10.7366
13.2348
15.5051
616.353
430.624
20.4614
21.3738
21.8249
22.1867
22.5483
22.8822
22.953
22.3297
20.9267
19.0136
16.9207
15.0617
13.8819
13.5378
13.7396
14.0741
14.3064
14.3663
14.2532
13.9865
13.5831
13.0555
12.4125
11.6655
10.8342
9.95057
9.0644
8.23102
7.86317
9.34409
12.4664
14.4864
16.0458
615.668
434.231
20.9678
21.6913
21.9204
21.9889
22.0098
22.1073
22.4533
23.0106
23.3553
23.0795
21.9773
20.0941
17.7141
15.291
13.5056
12.849
12.9809
13.3043
13.5273
13.573
13.4374
13.1373
12.6926
12.1218
11.4423
10.6693
9.83217
8.9734
8.22688
8.46416
11.2498
14.4007
16.0496
615.499
439.81
21.8171
22.3292
22.502
22.5418
22.4865
22.3332
22.1192
22.0748
22.3674
22.7295
22.8499
22.5553
21.579
19.677
17.088
14.4807
12.8065
12.3894
12.5639
12.7943
12.9115
12.878
12.6913
12.3599
11.894
11.302
10.5905
9.78336
8.83587
8.1563
9.55941
13.4348
15.6932
616.729
445.392
22.6392
22.8989
22.9926
23.0322
23.0495
23.075
23.1155
23.0599
22.8878
22.7388
22.6249
22.4727
22.2049
21.6435
20.3329
17.9603
15.1477
12.9631
12.1036
12.0562
12.1838
12.2598
12.224
12.0558
11.7477
11.2972
10.7061
9.99329
9.07725
8.41017
10.224
13.5451
15.9316
618.089
445.754
22.5104
22.7412
22.7955
22.76
22.6595
22.573
22.7164
23.1261
23.4425
23.4693
23.2802
22.9858
22.6413
22.2392
21.6791
20.6337
18.5473
15.6951
13.1888
11.9526
11.6794
11.6953
11.7119
11.6428
11.4539
11.1311
10.6735
10.1013
9.40644
9.11448
11.3919
14.2422
16.244
617.637
445.754
23.0186
23.3605
23.421
23.3338
23.0957
22.7054
22.3648
22.5236
23.0912
23.5611
23.7348
23.6561
23.4089
23.0558
22.62
22.0532
21.1373
19.3454
16.5541
13.765
12.0281
11.3691
11.169
11.0523
10.8829
10.6055
10.2027
9.70651
9.15204
8.91828
10.8078
14.1829
16.1803
617.225
447.09
23.3829
23.6987
23.7574
23.6882
23.4807
23.1002
22.5951
22.3436
22.7032
23.3034
23.7212
23.8757
23.8265
23.634
23.3343
22.9321
22.3968
21.583
20.0538
17.4627
14.6006
12.5264
11.4784
10.998
10.6912
10.3728
9.9734
9.48888
8.88269
8.1826
9.3409
13.5501
16.0268
618.183
450.97
23.7256
23.8235
23.7844
23.658
23.4346
23.1324
22.8152
22.6396
22.8814
23.4155
23.8703
24.1025
24.143
24.0512
23.854
23.5436
23.1101
22.5517
21.7565
20.3191
17.8324
14.9854
12.8128
11.5704
10.8756
10.3797
9.91525
9.42577
8.79467
7.98723
9.1396
13.5426
16.4528
620.428
456.563
24.1163
23.9114
23.7206
23.4621
23.1288
22.867
22.8404
23.0353
23.415
23.8756
24.2466
24.4528
24.5072
24.444
24.2853
24.028
23.6561
23.1622
22.541
21.6547
20.0836
17.5678
14.8414
12.7795
11.5034
10.6532
9.97265
9.34026
8.6501
8.63483
11.0122
14.4553
17.0523
620.973
456.545
23.9261
23.7371
23.5451
23.239
22.822
22.5336
22.6474
23.0777
23.6024
24.0877
24.4615
24.6946
24.7913
24.7696
24.6466
24.4324
24.1232
23.7049
23.1659
22.4367
21.3013
19.4353
16.915
14.448
12.5849
11.2824
10.2685
9.36108
8.56289
9.08432
12.562
15.4276
17.4236
619.574
452.94
23.7403
23.8374
23.8122
23.6173
23.1891
22.596
22.186
22.2708
22.7689
23.4161
24.0043
24.4403
24.7082
24.8238
24.809
24.6819
24.4539
24.1261
23.6798
23.0605
22.1526
20.769
18.7877
16.5133
14.4633
12.8471
11.5785
10.498
9.51438
9.31334
12.2047
15.6292
17.4101
618.075
449.508
23.6603
24.0447
24.2391
24.2926
24.1156
23.5723
22.6748
21.8644
21.6384
22.0345
22.7329
23.4278
23.9673
24.3186
24.4964
24.5243
24.4214
24.1953
23.8365
23.3099
22.5457
21.4455
19.9416
18.1289
16.301
14.7036
13.3667
12.2205
11.1512
10.2189
11.1583
15.0516
17.0379
617.669
449.014
23.7135
24.179
24.4805
24.7227
24.8568
24.7529
24.2204
23.1989
22.0564
21.3885
21.4598
22.0329
22.7217
23.2988
23.6914
23.9007
23.9453
23.8375
23.5749
23.136
22.4828
21.5786
20.4242
19.0944
17.7232
16.4193
15.2139
14.0902
13.0012
11.7763
11.0698
14.4061
16.6856
618.188
447.589
23.4982
24.0174
24.3756
24.7357
25.1029
25.3896
25.4382
25.056
24.1026
22.7575
21.599
21.1518
21.4008
21.9578
22.4954
22.8796
23.0807
23.102
22.9479
22.6175
22.1108
21.4384
20.628
19.7218
18.7654
17.7934
16.8227
15.8448
14.7981
13.4637
12.1951
14.6073
16.9449
619.639
448.717
23.6346
23.9964
24.2574
24.5905
25.0563
25.58
25.9863
26.1289
25.8744
25.0582
23.6803
22.1869
21.2298
21.0544
21.3816
21.8275
22.1741
22.354
22.3593
22.197
21.8785
21.4207
20.8466
20.1809
19.4441
18.6488
17.7982
16.8669
15.7404
14.2714
13.4411
15.3892
17.4781
620.467
452.634
23.7169
23.6814
23.7375
23.9879
24.5306
25.2587
25.9162
26.342
26.4847
26.2853
25.6098
24.3971
22.9294
21.7415
21.1971
21.2246
21.4972
21.7618
21.9139
21.9274
21.8025
21.5483
21.1762
20.6972
20.1191
19.4462
18.6741
17.7561
16.5336
14.9555
14.5127
16.1107
17.8263
620.282
459.081
23.8262
23.2841
23.1135
23.3066
23.933
24.7896
25.5736
26.1214
26.3998
26.4088
26.1216
25.4922
24.5462
23.4427
22.4399
21.7967
21.5769
21.613
21.7079
21.753
21.7108
21.5692
21.3211
20.9681
20.5086
19.9328
19.2274
18.3293
17.0646
15.4785
15.3198
16.6929
18.025
619.634
459.913
23.0229
22.319
22.1187
22.3381
22.9766
23.8371
24.7009
25.4111
25.885
26.0938
26.0296
25.7002
25.158
24.4845
23.7528
23.0527
22.5113
22.1991
22.0564
21.9724
21.8756
21.7288
21.5115
21.2128
20.8206
20.3186
19.6857
18.8587
17.6717
16.1091
15.7602
16.96
18.0818
619.291
455.429
22.3396
21.9336
21.7396
21.6372
21.7065
22.0945
22.8311
23.7442
24.6012
25.2377
25.5864
25.6454
25.4551
25.0867
24.6136
24.0943
23.5868
23.1566
22.8375
22.5998
22.393
22.1765
21.922
21.6085
21.2192
20.7377
20.1419
19.3756
18.2967
16.8225
16.1253
17.1371
18.1781
619.36
449.534
22.8999
22.9939
22.7663
22.2414
21.5045
20.8338
20.6312
21.0982
22.0841
23.2488
24.2712
24.9567
25.2755
25.2922
25.0916
24.7593
24.3717
23.993
23.6591
23.3667
23.0935
22.8145
22.5076
22.1549
21.7418
21.2534
20.6685
19.9368
18.9322
17.5367
16.5674
17.2853
18.2466
619.314
448.13
24.432
24.9677
25.0108
24.7197
24.023
22.8603
21.3916
20.0776
19.4685
19.9049
21.3276
23.0029
24.2031
24.8687
25.1389
25.1366
24.9565
24.6829
24.38
24.0757
23.7719
23.4568
23.115
22.7325
22.297
21.7973
21.2179
20.5196
19.5963
18.3096
17.1652
17.5074
18.3224
619.237
448.097
24.7812
25.5933
26.0218
26.2886
26.3329
25.9957
25.0609
23.3683
21.0054
18.3448
16.8786
18.8546
21.4642
23.2552
24.2847
24.8117
25.0174
25.0232
24.9039
24.705
24.4506
24.1498
23.8027
23.4046
22.9498
22.4316
21.8379
21.1344
20.232
19.0052
17.7995
17.8049
18.4198
619.235
451.39
24.5905
25.0882
25.4149
25.7425
26.1012
26.428
26.5617
26.2568
25.1447
22.4422
16.5597
14.4585
17.847
20.9788
22.9275
24.036
24.6394
24.9282
25.013
24.963
24.8181
24.5973
24.3066
23.9468
23.5172
23.0157
22.434
21.7447
20.8727
19.7062
18.4847
18.2267
18.6414
619.619
457.219
24.9161
25.0117
25.059
25.0777
25.0781
25.0849
25.1044
25.0528
24.7584
23.732
19.2229
13.8722
16.4602
19.9861
22.2864
23.639
24.415
24.847
25.0625
25.131
25.0845
24.9406
24.7125
24.4026
24.0075
23.5271
22.9552
22.2667
21.3919
20.2452
19.0701
18.6856
18.9325
620.105
462.579
25.7372
25.8963
26.0282
26.0529
25.8756
25.4206
24.682
23.7092
22.4753
20.7099
17.7205
15.88
18.7954
21.2687
22.8991
23.945
24.6052
25.001
25.2146
25.2982
25.2795
25.1715
24.9795
24.7037
24.3416
23.8904
23.3428
22.6721
21.8117
20.6969
19.5853
19.1555
19.2814
620.633
461.275
25.5246
25.8976
26.2443
26.5248
26.6188
26.3703
25.6445
24.3627
22.4201
19.7605
17.3246
17.9035
20.7274
22.546
23.7193
24.4875
24.9932
25.3107
25.4875
25.5543
25.529
25.4208
25.2318
24.9605
24.6051
24.1613
23.6178
22.9434
22.0756
20.9861
19.9629
19.5441
19.5739
620.819
457.651
24.9122
25.2366
25.556
25.9237
26.3031
26.5652
26.5261
26.0501
25.0585
23.3666
20.7218
18.0504
19.3872
21.6392
23.2216
24.2362
24.8902
25.3025
25.5414
25.651
25.6568
25.5718
25.4006
25.1444
24.8024
24.3709
23.8377
23.17
22.3097
21.2536
20.3037
19.8971
19.8449
620.899
456.948
24.7033
24.8929
25.0866
25.3295
25.6409
25.9906
26.2649
26.3241
26.0726
25.4003
23.9147
20.7712
17.6299
19.1809
21.5921
23.2235
24.2457
24.8943
25.298
25.5263
25.619
25.5971
25.4716
25.2475
24.9266
24.5062
23.9736
23.2965
22.4294
21.4101
20.5457
20.1567
20.0193
620.707
458.623
25.0102
25.235
25.4577
25.6777
25.8619
25.9715
25.9848
25.8872
25.6568
25.2763
24.6803
23.4271
19.8068
17.1037
19.3926
21.7542
23.2863
24.2314
24.827
25.1961
25.3993
25.467
25.4139
25.2471
24.9693
24.5788
24.063
23.3902
22.526
21.545
20.7546
20.3754
20.1644
620.564
459.308
24.977
25.2383
25.5455
25.8861
26.1936
26.35
26.2671
25.9637
25.5032
24.916
24.1963
23.2475
21.6294
17.8291
18.6003
21.0804
22.7836
23.8248
24.4877
24.9196
25.1858
25.3145
25.3166
25.1967
24.9555
24.5892
24.0826
23.4031
22.5282
21.5705
20.841
20.4724
20.2049
620.211
458.371
24.6121
24.8378
25.1441
25.532
25.9681
26.3272
26.4396
26.2386
25.7582
25.032
24.0395
22.6307
20.5264
17.7634
18.3196
20.871
22.5824
23.6178
24.2799
24.7238
25.0137
25.1738
25.2113
25.1275
24.9203
24.5827
24.096
23.4255
22.5536
21.6093
20.9046
20.5299
20.2138
619.774
457.259
24.3522
24.5502
24.8137
25.1442
25.5341
25.9062
26.1042
26.021
25.6502
25.0006
24.0189
22.4984
20.1546
17.7499
18.5013
21.0754
22.6229
23.5662
24.1935
24.628
24.9192
25.0865
25.1359
25.0673
24.8769
24.5552
24.0809
23.4185
22.5535
21.6176
20.9165
20.5255
20.1624
619.107
456.35
24.3449
24.6502
24.9622
25.3044
25.6587
25.9678
26.1277
26.0489
25.7079
25.0994
24.1675
22.7129
20.3986
17.5633
17.7136
20.6282
22.2742
23.2833
23.9646
24.4447
24.7737
24.9744
25.0555
25.0179
24.8578
24.5645
24.1162
23.4782
22.6377
21.7174
21.0052
20.5787
20.1493
618.393
454.887
24.2154
24.5937
24.9526
25.3364
25.725
26.0613
26.2698
26.2901
26.0988
25.6957
25.0636
24.1271
22.6071
19.9712
16.9907
18.5403
20.7891
22.2422
23.1954
23.8627
24.3305
24.6394
24.8091
24.8477
24.7552
24.5236
24.1331
23.5509
22.7627
21.8757
21.1537
20.6845
20.1784
617.821
454.188
24.1572
24.5723
24.9667
25.4015
25.8562
26.2566
26.5193
26.6081
26.5204
26.2661
25.8504
25.2647
24.4457
23.1066
20.5099
17.0317
18.152
20.4048
21.9402
22.94
23.6335
24.1158
24.4263
24.5849
24.598
24.4622
24.1611
23.6651
22.9573
22.126
21.4051
20.8917
20.3067
617.638
453.741
24.046
24.4713
24.8938
25.3838
25.9216
26.4129
26.7539
26.9099
26.8943
26.7287
26.4265
25.9929
25.4194
24.6585
23.4647
21.0376
17.094
17.3155
19.5976
21.3034
22.4371
23.2176
23.7564
24.0998
24.2682
24.2684
24.0916
23.713
23.1154
22.3696
21.6777
21.1398
20.496
617.825
454.019
24.0609
24.5038
24.9724
25.5401
26.1701
26.7336
27.118
27.3014
27.3138
27.1877
26.9452
26.5993
26.1551
25.6086
24.9209
23.8926
21.819
17.8998
17.3618
19.4102
21.0582
22.1719
22.9469
23.485
23.8245
23.9778
23.9419
23.6961
23.2227
22.5789
21.9359
21.3913
20.7075
618.221
453.569
23.9205
24.3812
24.9001
25.5652
26.3181
26.9834
27.4401
27.678
27.7343
27.6472
27.4449
27.1439
26.7519
26.2707
25.6908
24.958
23.8535
21.7101
17.9423
17.5442
19.4112
20.9393
21.995
22.7398
23.2537
23.5654
23.6782
23.5758
23.2399
22.7144
22.1427
21.6163
20.921
618.745
453.855
23.8622
24.304
24.87
25.6584
26.5596
27.3255
27.8367
28.1144
28.2106
28.1636
28.0007
27.7389
27.3892
26.9582
26.4464
25.8349
25.0378
23.7666
21.3154
17.9725
18.2469
19.8771
21.1611
22.0681
22.7139
23.1485
23.3832
23.4035
23.1903
22.7756
22.2785
21.7827
21.0943
619.257
452.886
23.559
23.9998
24.622
25.551
26.6174
27.5082
28.1066
28.4508
28.6041
28.6104
28.4988
28.2874
27.9879
27.6078
27.1444
26.5843
25.9058
24.9701
23.3226
20.2339
17.9892
18.9649
20.3822
21.4465
22.21
22.7461
23.0806
23.2037
23.0963
22.7815
22.3604
21.909
21.2505
619.789
452.748
23.4488
23.8729
24.5518
25.6207
26.8038
27.749
28.3833
28.769
28.9688
29.0211
28.952
28.779
28.5147
28.1669
27.7307
27.1942
26.5563
25.7518
24.5148
22.2857
19.059
18.5595
19.831
20.9876
21.8354
22.4415
22.8419
23.0312
22.9949
22.7533
22.3935
21.9824
21.3527
620.118
451.577
23.1009
23.5197
24.2771
25.5337
26.8776
27.9123
28.607
29.0482
29.3039
29.4125
29.3984
29.2781
29.0644
28.7632
28.3656
27.8622
27.2571
26.5544
25.622
24.0309
21.2092
18.841
19.3804
20.5579
21.4935
22.1745
22.64
22.8891
22.9101
22.7263
22.4199
22.0491
21.4512
620.37
451.121
22.8514
23.2095
24.0114
25.4366
26.9204
28.0262
28.7714
29.2649
29.5757
29.7398
29.7786
29.7072
29.538
29.2762
28.9152
28.4485
27.8798
27.217
26.4105
25.2259
23.1391
20.1055
19.1904
20.1479
21.1663
21.9371
22.4737
22.7778
22.844
22.7014
22.4308
22.0842
21.4971
620.39
449.613
22.3915
22.6935
23.5234
25.1039
26.7558
27.9821
28.8193
29.3931
29.7782
30.0125
30.1167
30.105
29.9894
29.773
29.4513
29.022
28.488
27.8558
27.1312
26.1837
24.6214
21.9828
19.6066
19.8533
20.8683
21.7244
22.3387
22.7076
22.8248
22.7248
22.4893
22.1661
21.5911
620.554
448.89
22.1162
22.3285
23.0986
24.719
26.4718
27.7965
28.7259
29.3891
29.8612
30.1795
30.3626
30.4234
30.3731
30.2163
29.95
29.5737
29.0899
28.5047
27.8292
27.0133
25.8304
23.7975
20.8784
19.6864
20.4503
21.4175
22.1506
22.6097
22.7916
22.7364
22.5295
22.2192
21.6412
620.58
447.782
21.7351
21.8537
22.5412
24.1975
26.0813
27.5264
28.5531
29.303
29.8591
30.2597
30.5221
30.6574
30.6762
30.584
30.3795
30.0626
29.6356
29.1033
28.4744
27.7493
26.8006
25.2747
22.7718
20.3649
20.2746
21.1566
21.9715
22.5239
22.7854
22.7912
22.6262
22.3409
21.778
620.948
447.472
21.5345
21.5207
22.0672
23.6782
25.6386
27.1827
28.3002
29.1348
29.7742
30.2569
30.5986
30.8092
30.8993
30.8761
30.7395
30.4888
30.1258
29.6542
29.0818
28.422
27.6112
26.4182
24.4182
21.6131
20.2574
20.829
21.724
22.3848
22.7312
22.7979
22.6729
22.412
21.8675
621.288
447.348
21.3325
21.1758
21.6113
23.2352
25.2696
26.8782
28.0531
28.9466
29.6499
30.2002
30.6109
30.8899
31.0486
31.0949
31.0286
30.8485
30.555
30.1512
29.6439
29.0443
28.3338
27.3763
25.8512
23.4182
21.0687
20.7483
21.5061
22.2509
22.6965
22.8411
22.7709
22.5486
22.0434
621.952
447.738
21.2145
20.876
21.1729
22.84
24.9403
26.5769
27.7801
28.7125
29.4646
30.0703
30.5399
30.88
31.102
31.2145
31.2173
31.1075
30.8845
30.5505
30.1111
29.5759
28.9454
28.1311
26.8955
24.8929
22.3183
21.0617
21.4064
22.1207
22.628
22.8375
22.8181
22.6354
22.1767
622.628
447.922
21.0278
20.4742
20.5519
22.2704
24.5355
26.2412
27.4772
28.4408
29.2308
29.8803
30.3983
30.7898
31.0669
31.2391
31.3057
31.2626
31.1086
30.8448
30.4758
30.0093
29.4544
28.7507
27.7198
26.0669
23.651
21.7456
21.5352
22.1093
22.6359
22.8942
22.9217
22.783
22.3869
623.617
448.261
21.0016
20.2586
19.9838
21.4747
23.9124
25.7457
27.0458
28.0522
28.8822
29.5735
30.1357
30.5738
30.9022
31.1314
31.2589
31.281
31.1959
31.0043
30.7096
30.3181
29.8371
29.2211
28.3355
26.9491
24.8373
22.6755
21.9105
22.2222
22.6932
22.9609
23.0129
22.9032
22.5526
624.395
448.946
21.162
20.311
19.6974
20.6663
23.222
25.2151
26.594
27.6408
28.4993
29.2167
29.8053
30.272
30.6356
30.9063
31.0794
31.1517
31.1219
30.9906
30.7607
30.437
30.0203
29.4702
28.6834
27.484
25.6713
23.5814
22.4857
22.53
22.8947
23.1331
23.1853
23.0895
22.7716
625.222
450.166
21.4555
20.575
19.7804
20.1925
22.7161
24.8064
26.2281
27.2889
28.1539
28.8769
29.472
29.9528
30.3384
30.6353
30.8384
30.9452
30.9548
30.868
30.6875
30.4179
30.0526
29.553
28.8398
27.7813
26.2192
24.3338
23.1093
22.9299
23.1624
23.3397
23.3664
23.2612
22.9417
625.694
451.458
21.6725
20.7911
19.9693
20.1242
22.5264
24.5985
25.9971
27.0351
27.881
28.5887
29.1746
29.6563
30.0505
30.3603
30.5808
30.7098
30.7469
30.693
30.5507
30.324
30.0001
29.5417
28.8905
27.9458
26.5879
24.9382
23.7422
23.4285
23.5346
23.6335
23.617
23.4867
23.149
626.253
451.951
21.7032
20.855
20.0948
20.3023
22.6177
24.5723
25.8834
26.866
27.674
28.3549
28.9243
29.3967
29.787
30.098
30.3248
30.4654
30.5196
30.4887
30.3755
30.1794
29.8863
29.4662
28.8707
28.0219
26.8342
25.405
24.2959
23.9074
23.9109
23.9343
23.8699
23.7079
23.3457
626.789
450.772
21.5263
20.8163
20.1832
20.4132
22.6208
24.4717
25.718
26.6634
27.4482
28.1148
28.6764
29.1416
29.5248
29.8324
30.0598
30.2051
30.2682
30.2509
30.156
29.9797
29.7071
29.3137
28.7565
27.9754
26.9229
25.7179
24.7909
24.4204
24.3568
24.3114
24.196
23.9923
23.5799
627.188
448.108
21.2952
20.8406
20.3455
20.2625
22.1987
24.1209
25.4159
26.381
27.1752
27.8483
28.4145
28.8825
29.2658
29.5725
29.8006
29.9481
30.0154
30.0045
29.9174
29.7496
29.4881
29.111
28.5807
27.8546
26.9192
25.9144
25.1762
24.8598
24.7521
24.6446
24.476
24.2228
23.7438
627.26
445.628
21.1811
20.9757
20.6233
20.1273
21.3068
23.4537
24.9474
26.0026
26.8397
27.5381
28.12
28.5994
28.994
29.311
29.5468
29.7003
29.7724
29.7653
29.6809
29.5143
29.2525
28.8752
28.3521
27.6618
26.8367
26.0439
25.5258
25.3075
25.1912
25.0422
24.8276
24.5197
23.9465
627.157
444.027
21.0542
20.9976
20.8148
20.3264
20.5005
22.7264
24.5009
25.6873
26.5722
27.284
27.8667
28.3534
28.7623
29.0901
29.3342
29.494
29.5703
29.5657
29.4823
29.3145
29.0487
28.6657
28.1434
27.4789
26.744
26.122
25.7663
25.6162
25.4957
25.3177
25.0659
24.7085
24.0475
626.875
443.444
20.8064
20.732
20.643
20.4226
20.383
22.3344
24.2884
25.5627
26.461
27.1574
27.7298
28.2189
28.633
28.9653
29.2125
29.3738
29.4501
29.444
29.3575
29.1835
28.9066
28.5075
27.9705
27.3087
26.6365
26.1784
25.999
25.926
25.8136
25.6207
25.3447
24.9495
24.2081
626.681
443.088
20.435
20.2
20.0742
20.1281
20.6169
22.3265
24.2936
25.5662
26.4405
27.1133
27.6758
28.1663
28.5843
28.9219
29.1751
29.3423
29.4238
29.4219
29.3378
29.1634
28.8814
28.4721
27.9221
27.2416
26.5516
26.134
26.0742
26.0759
25.9796
25.7771
25.4789
25.0475
24.2348
626.314
442.617
19.9648
19.4703
19.1725
19.4598
20.5906
22.4553
24.3409
25.5646
26.4164
27.0827
27.6432
28.1335
28.5571
28.9046
29.1709
29.3538
29.4529
29.4698
29.4038
29.246
28.9787
28.5836
28.0449
27.3601
26.6172
26.1079
26.064
26.1648
26.1342
25.9648
25.6808
25.2529
24.4311
626.706
441.597
19.4276
18.6901
18.141
18.4973
20.0818
22.3188
24.1887
25.4035
26.2672
26.9545
27.5334
28.0339
28.4684
28.8334
29.1221
29.3314
29.4605
29.511
29.4826
29.3664
29.1456
28.8031
28.3217
27.6849
26.9226
26.2367
25.9718
26.039
26.058
25.936
25.6871
25.2876
24.5054
627.346
440.074
18.9108
18.0419
17.2468
17.3751
18.9916
21.4276
23.4885
24.8566
25.8225
26.583
27.221
27.7688
28.239
28.6348
28.9552
29.1993
29.3686
29.4653
29.4893
29.4334
29.2832
29.0226
28.6362
28.1057
27.4267
26.6904
26.1809
26.0613
26.0525
25.9589
25.7556
25.4221
24.7693
629.146
438.692
18.7636
17.9949
17.0636
16.3211
16.8856
19.0839
21.6953
23.6177
24.9023
25.8422
26.5966
27.2302
27.7693
28.224
28.5976
28.892
29.111
29.2588
29.3383
29.3454
29.2689
29.0933
28.8046
28.3846
27.8158
27.1252
26.4884
26.1507
26.0285
25.9073
25.7142
25.4144
24.8344
629.923
438.265
19.2012
18.7572
18.0452
16.8104
15.6591
16.0942
18.5608
21.3595
23.3781
24.7218
25.6975
26.4686
27.1037
27.6333
28.0725
28.4248
28.6952
28.8925
29.0218
29.083
29.0696
28.9687
28.7703
28.4598
28.0189
27.4482
26.8451
26.4176
26.1984
26.0309
25.828
25.5375
24.9692
630.076
439.394
20.0593
19.9736
19.6278
18.7115
17.0449
15.4586
15.5964
18.2015
21.1533
23.2402
24.5962
25.5417
26.2854
26.9138
27.4388
27.8626
28.1891
28.4274
28.5921
28.6911
28.7185
28.6643
28.5216
28.283
27.9357
27.4765
26.9662
26.5523
26.2882
26.0754
25.8362
25.4941
24.7905
628.362
442.198
20.8678
20.9244
20.7948
20.2172
18.8456
17.2645
15.8933
16.1693
18.8001
21.607
23.5012
24.6743
25.5287
26.242
26.8371
27.3184
27.6918
27.9637
28.152
28.2741
28.329
28.3082
28.2106
28.0414
27.7927
27.4545
27.0615
26.7077
26.4355
26.1912
25.9151
25.516
24.6751
627.024
446.452
21.4404
21.3163
21.2154
20.8193
19.71
18.4982
17.66
17.1947
18.1697
20.6888
22.8587
24.1576
25.0416
25.7684
26.3857
26.891
27.2856
27.5741
27.7722
27.899
27.9573
27.9397
27.8515
27.7172
27.5428
27.3069
27.0145
26.7184
26.449
26.1798
25.8656
25.4037
24.4289
625.576
450.003
21.4581
20.8897
20.6937
20.5947
20.0482
19.2993
18.7644
18.4246
18.5574
19.9923
22.2536
23.8254
24.7678
25.4706
26.0786
26.5868
26.9898
27.2878
27.496
27.6325
27.6984
27.6862
27.6034
27.4875
27.3692
27.2227
27.0165
26.769
26.5057
26.2209
25.8835
25.3952
24.3886
625.301
449.31
20.6604
19.7349
19.5876
20.0034
20.1385
20.0912
19.9882
19.9133
20.0512
20.8116
22.405
23.8868
24.8192
25.4611
25.9888
26.4498
26.8262
27.1118
27.318
27.4556
27.5199
27.5028
27.4087
27.2768
27.1665
27.073
26.9352
26.7342
26.4859
26.1949
25.8419
25.3364
24.3165
624.987
444.326
19.3311
18.5612
18.9833
19.9241
20.3851
20.5809
20.6347
20.6311
20.6873
21.0615
22.1043
23.5685
24.6679
25.3837
25.9046
26.3253
26.6771
26.9656
27.19
27.347
27.4297
27.4286
27.3415
27.1959
27.0628
26.9815
26.8936
26.7403
26.5202
26.2405
25.8912
25.3957
24.4126
625.326
438.912
18.5284
17.9788
18.1965
19.1191
19.8878
20.396
20.7079
20.8753
20.9577
21.0731
21.4953
22.5424
23.8704
24.8663
25.5373
26.0302
26.4258
26.7536
27.0189
27.2171
27.3389
27.3729
27.3094
27.1587
26.9776
26.8438
26.755
26.6358
26.4513
26.1988
25.8704
25.4
24.4676
625.653
437.085
18.8111
18.2716
17.5441
17.5035
18.4772
19.462
20.1584
20.6168
20.9021
21.0766
21.2486
21.6855
22.6966
23.927
24.8687
25.5279
26.028
26.4382
26.7806
27.0551
27.2529
27.3615
27.3676
27.2673
27.0842
26.8877
26.7374
26.6036
26.4335
26.2063
25.9086
25.4819
24.6356
626.623
439.524
19.6105
18.9668
17.9852
16.6354
16.9728
18.3231
19.4389
20.1817
20.6696
20.9847
21.1912
21.3929
21.8587
22.8663
24.0461
24.9365
25.5663
26.0551
26.4642
26.8075
27.0779
27.2618
27.3472
27.3238
27.1913
26.9836
26.7696
26.5811
26.3895
26.1651
25.8865
25.4978
24.7348
627.524
445.151
20.1229
19.0486
18.0797
17.2025
17.3132
18.5804
19.6536
20.3636
20.8457
21.1789
21.4057
21.5671
21.7545
22.2123
23.1487
24.2151
25.04
25.6494
26.1383
26.5534
26.9
27.167
27.3407
27.4072
27.3554
27.1918
26.9624
26.7269
26.4999
26.2635
25.993
25.6294
24.9155
628.282
447.462
19.6342
17.836
16.6992
17.611
18.6471
19.6395
20.3375
20.8562
21.252
21.5449
21.7527
21.8969
22.0142
22.2085
22.698
23.5706
24.4823
25.2036
25.7678
26.2379
26.6395
26.9717
27.2201
27.3665
27.3933
27.2908
27.0805
26.8206
26.5576
26.296
26.0122
25.6378
24.8948
627.887
443.323
18.6298
16.9257
16.0669
17.6178
18.7233
19.554
20.2501
20.8215
21.2718
21.6116
21.8549
22.0192
22.128
22.2308
22.4603
23.0165
23.8707
24.7009
25.3745
25.9258
26.3966
26.7997
27.124
27.3485
27.4509
27.4148
27.2483
27.0002
26.7281
26.4527
26.1549
25.7555
24.9323
627.098
439.403
19.3107
18.353
16.5958
15.6732
16.4246
17.7022
18.8421
19.7751
20.5152
21.0823
21.4988
21.7907
21.9848
22.1122
22.241
22.5281
23.1614
24.0228
24.816
25.4735
26.0325
26.5186
26.9242
27.2234
27.3882
27.4006
27.2677
27.0342
26.7584
26.4662
26.1403
25.6878
24.7315
625.539
441.752
21.2183
20.61
19.092
15.2997
13.0446
14.5179
16.4797
18.0124
19.1729
20.0617
20.7338
21.227
21.5779
21.8223
21.9992
22.1838
22.5554
23.2707
24.1435
24.9369
25.6148
26.2075
26.7177
27.1153
27.3625
27.4376
27.3505
27.1465
26.8827
26.5869
26.2456
25.7627
24.7301
624.906
447.876
22.18
21.3745
20.0566
16.4698
10.7687
12.0151
14.9796
17.0659
18.4582
19.4663
20.2352
20.8235
21.2662
21.5941
21.8331
22.0134
22.2238
22.6636
23.418
24.2744
25.0576
25.7509
26.3585
26.8519
27.1837
27.3244
27.2847
27.1121
26.8629
26.5659
26.21
25.6985
24.6074
624.256
454.423
22.234
20.8429
18.9874
15.1401
8.30436
11.403
15.0484
17.1094
18.4155
19.3678
20.1158
20.7225
21.2086
21.5896
21.8815
22.0923
22.2511
22.4707
22.9422
23.6905
24.5161
25.2913
25.9917
26.5887
27.0231
27.2507
27.2753
27.1451
26.918
26.6272
26.2709
25.7649
24.7114
624.847
456.347
22.2012
20.7369
18.7096
14.2975
6.71677
11.2883
15.0148
16.9658
18.2497
19.2195
19.9997
20.643
21.174
21.6079
21.9538
22.216
22.403
22.5544
22.7928
23.2727
23.9797
24.7539
25.4973
26.1657
26.6994
27.034
27.1511
27.09
26.9068
26.6409
26.2986
25.8077
24.7885
625.17
454.503
22.1307
20.9661
19.3569
15.7197
7.17117
9.27457
13.9895
16.3827
17.8584
18.9429
19.8019
20.5134
21.1094
21.6087
22.0213
22.3521
22.6035
22.7861
22.9505
23.2115
23.6896
24.3578
25.0914
25.7972
26.402
26.8297
27.038
27.0472
26.9114
26.6761
26.3575
25.9007
24.9644
626.209
454.303
22.1363
21.0425
19.6916
16.9485
10.2811
8.15989
10.9624
14.7136
16.7948
18.1795
19.2235
20.071
20.7893
21.4064
21.9338
22.3764