/*--------------------------------*- C++ -*----------------------------------*\
| =========                 |                                                 |
| \\      /  F ield         | OpenFOAM: The Open Source CFD Toolbox           |
|  \\    /   O peration     | Version:  v1906                                 |
|   \\  /    A nd           | Web:      www.OpenFOAM.com                      |
|    \\/     M anipulation  |                                                 |
\*---------------------------------------------------------------------------*/
FoamFile
{
    version     2.0;
    format      ascii;
    class       volVectorField;
    location    "48";
    object      U;
}
// * * * * * * * * * * * * * * * * * * * * * * * * * * * * * * * * * * * * * //

dimensions      [0 1 -1 0 0 0 0];


internalField   nonuniform List<vector> 
78750
(
(-0.0503361 -0.217998 -0.503514)
(0.407971 -0.195192 -0.478774)
(0.475098 -0.203157 -0.478841)
(0.42091 -0.19279 -0.467707)
(0.399498 -0.187954 -0.464427)
(0.402917 -0.183231 -0.459858)
(0.421292 -0.176979 -0.456744)
(0.443225 -0.166791 -0.451619)
(0.463758 -0.153783 -0.447031)
(0.482281 -0.140436 -0.441112)
(0.497433 -0.12751 -0.437253)
(0.510342 -0.114732 -0.432635)
(0.520405 -0.102535 -0.430358)
(0.531753 -0.0901519 -0.427189)
(0.541438 -0.079186 -0.427569)
(0.550266 -0.0682773 -0.426883)
(0.553232 -0.0581785 -0.429437)
(0.553886 -0.0482933 -0.430563)
(0.547396 -0.0383497 -0.434669)
(0.540592 -0.0291384 -0.437031)
(0.527868 -0.0192593 -0.442117)
(0.516704 -0.0112111 -0.445177)
(0.497633 -0.00242556 -0.450638)
(0.479425 0.00346714 -0.45338)
(0.451447 0.00954906 -0.458127)
(0.425996 0.0117766 -0.459059)
(0.39071 0.0123016 -0.46154)
(0.359583 0.00736614 -0.459452)
(0.317918 -0.00174416 -0.458379)
(0.280918 -0.0201609 -0.454025)
(0.233416 -0.0357722 -0.446707)
(0.188631 -0.0811211 -0.44487)
(0.134047 -0.049947 -0.453199)
(0.0512001 -0.179737 -0.58608)
(0.0142929 -0.165333 -0.266365)
(-0.0369206 0.869298 -0.172632)
(-0.079266 0.448185 0.249461)
(-0.0610293 0.462866 0.0354323)
(-0.0708189 0.367038 0.0498028)
(-0.0265999 0.567261 -0.0613567)
(-0.0265734 0.55174 -0.112668)
(-0.0142699 0.501148 -0.0920714)
(-0.0089954 0.418744 -0.035763)
(0.00825842 0.324141 0.0108406)
(0.0340205 0.257681 0.040068)
(0.0655239 0.21862 0.0594077)
(0.100267 0.202037 0.0749693)
(0.135166 0.199337 0.0863991)
(0.16888 0.204045 0.0953562)
(0.200249 0.213791 0.101492)
(0.228477 0.224437 0.107485)
(0.254355 0.240571 0.110411)
(0.277035 0.259647 0.111241)
(0.294179 0.281626 0.106639)
(0.309167 0.306108 0.0996482)
(0.319653 0.333759 0.0849957)
(0.328218 0.362017 0.0683303)
(0.329851 0.392534 0.0439099)
(0.329608 0.421357 0.0184845)
(0.321704 0.453479 -0.011967)
(0.313557 0.481481 -0.0435737)
(0.297506 0.515156 -0.0734803)
(0.281422 0.542295 -0.104981)
(0.257183 0.577823 -0.12635)
(0.231316 0.605599 -0.15955)
(0.200014 0.640019 -0.178653)
(0.162677 0.672715 -0.216871)
(0.125244 0.686535 -0.251413)
(0.0804672 0.766484 -0.326655)
(0.0173518 0.654459 -0.158745)
(-0.014728 0.657473 -0.187766)
(0.0156339 -0.233717 -0.15245)
(-0.0168055 -0.309568 -0.0674549)
(0.0342944 -0.618513 -0.0969054)
(0.0235558 -0.443204 -0.0476012)
(0.0834865 -0.335671 -0.0269852)
(0.12062 -0.301625 -0.00830304)
(0.147815 -0.331086 0.0113158)
(0.168095 -0.405765 0.0222002)
(0.174202 -0.465172 0.0206386)
(0.170885 -0.490727 0.0129159)
(0.165015 -0.490536 0.00616012)
(0.158903 -0.470741 0.00712877)
(0.153212 -0.436299 0.0208572)
(0.146807 -0.394621 0.0467911)
(0.140087 -0.350635 0.0812982)
(0.136109 -0.299082 0.119938)
(0.133934 -0.245201 0.157943)
(0.133259 -0.187121 0.192272)
(0.133763 -0.121944 0.221795)
(0.13432 -0.050598 0.243036)
(0.13511 0.0238871 0.255871)
(0.13496 0.0990152 0.257668)
(0.134716 0.171939 0.251694)
(0.132048 0.242892 0.235227)
(0.128907 0.308725 0.213023)
(0.121322 0.373347 0.181841)
(0.112795 0.428089 0.143627)
(0.0982409 0.484424 0.0986947)
(0.0834292 0.52234 0.0409865)
(0.0631161 0.567723 -0.0114289)
(0.0455911 0.603843 -0.0853444)
(0.0203208 0.664705 -0.136531)
(0.00870299 0.70433 -0.233932)
(-0.00342621 0.509322 -0.129856)
(0.0316011 0.453924 -0.0619443)
(0.00697491 0.175071 0.225454)
(-0.0317199 -0.117123 0.229395)
(-0.034324 -0.1063 0.20746)
(-0.0195916 -0.234813 0.141622)
(-0.00351357 -0.247083 0.130914)
(0.0216576 -0.203273 0.132343)
(0.0448183 -0.124965 0.135392)
(0.060216 -0.0395104 0.136456)
(0.0673685 0.0278034 0.13268)
(0.0679951 0.0711524 0.123554)
(0.0647256 0.0994961 0.107368)
(0.0597365 0.123431 0.0805283)
(0.0545027 0.146867 0.0476361)
(0.049075 0.161758 0.0214015)
(0.0427788 0.164518 0.00677424)
(0.0350821 0.156331 0.00472863)
(0.0273618 0.144558 0.0155832)
(0.0206745 0.137779 0.0353996)
(0.0150473 0.138784 0.059897)
(0.0107212 0.149089 0.085871)
(0.00792884 0.168899 0.11115)
(0.00688429 0.198253 0.134186)
(0.00775671 0.237124 0.154443)
(0.0102107 0.286078 0.17092)
(0.014332 0.345247 0.18421)
(0.0184486 0.414793 0.19087)
(0.0229191 0.48978 0.190555)
(0.0240391 0.569779 0.176456)
(0.0244717 0.636398 0.14675)
(0.0186354 0.698249 0.104957)
(0.0164383 0.720949 0.0384727)
(0.00474935 0.718647 -0.0381692)
(0.00875219 0.659152 -0.195492)
(0.000972177 0.528718 -0.0776443)
(0.0237882 0.431391 -0.0773891)
(0.00601772 0.333474 0.0793376)
(0.0216032 -0.0802556 0.0241399)
(0.0217158 -0.454901 -0.0457121)
(0.026766 -0.562498 -0.0240981)
(0.0195215 -0.588006 0.00136683)
(0.0138447 -0.59235 0.0154344)
(0.0128667 -0.583066 0.0235771)
(0.0172382 -0.558275 0.030556)
(0.0252467 -0.521109 0.0422611)
(0.033306 -0.479645 0.0646151)
(0.0385166 -0.437684 0.10105)
(0.0396237 -0.390682 0.145351)
(0.0374802 -0.331496 0.173517)
(0.0342797 -0.261846 0.164938)
(0.032922 -0.198694 0.133053)
(0.0342426 -0.149864 0.10248)
(0.0368289 -0.110195 0.0811562)
(0.039632 -0.0744144 0.067828)
(0.0422594 -0.040413 0.0601548)
(0.0446313 -0.00765865 0.0566189)
(0.0471907 0.0234568 0.0566009)
(0.0503773 0.0530305 0.0595781)
(0.0544776 0.0820742 0.06493)
(0.0596139 0.112692 0.0721031)
(0.0659893 0.148331 0.0811937)
(0.073315 0.194173 0.0918026)
(0.0813168 0.253662 0.104353)
(0.0875552 0.330304 0.113936)
(0.0920573 0.414319 0.117883)
(0.0884294 0.508135 0.108767)
(0.0834341 0.579822 0.0738969)
(0.0609272 0.679463 0.0108882)
(0.0352147 0.74227 -0.103611)
(0.014029 0.711624 0.0409479)
(0.00959632 0.364929 0.00864231)
(0.0370482 0.153694 0.0734406)
(0.0717095 -0.177038 0.0914646)
(0.0764555 -0.228528 0.122684)
(0.0694937 -0.226916 0.127915)
(0.059283 -0.214049 0.112959)
(0.0493542 -0.197423 0.085345)
(0.0416801 -0.17935 0.0545716)
(0.034752 -0.152907 0.0212355)
(0.0294908 -0.111293 -0.0120551)
(0.0261877 -0.0569556 -0.0362114)
(0.0229325 0.00488889 -0.0428933)
(0.0178224 0.0660958 -0.0314608)
(0.0100685 0.107405 -0.0159729)
(0.00115575 0.114483 -0.0060038)
(-0.00682682 0.103609 0.000697379)
(-0.013094 0.0932426 0.00492287)
(-0.0168365 0.0894524 0.00704625)
(-0.0183093 0.0904369 0.00748214)
(-0.0179199 0.0943282 0.00653035)
(-0.0157269 0.101082 0.00440294)
(-0.0116036 0.111324 0.00192194)
(-0.00593746 0.125161 0.000713659)
(0.000600139 0.142145 0.00240571)
(0.00758836 0.162769 0.00841587)
(0.0147733 0.18963 0.0206504)
(0.0220739 0.227713 0.040984)
(0.0293083 0.283825 0.0691029)
(0.0354726 0.365055 0.100091)
(0.0392973 0.472649 0.126041)
(0.0371271 0.602085 0.13495)
(0.0268615 0.730712 0.122066)
(0.00913496 0.839456 0.0979772)
(-0.00220345 0.871772 0.0811676)
(-0.000402736 0.819802 0.174871)
(0.014833 0.0857561 0.0904868)
(0.0624977 -0.142156 0.0911924)
(0.0832838 -0.323548 0.0936876)
(0.0840749 -0.45269 0.0946171)
(0.0801941 -0.518117 0.0969364)
(0.0757111 -0.540671 0.104201)
(0.0696098 -0.541692 0.114857)
(0.0619971 -0.528729 0.125466)
(0.0538307 -0.501665 0.13195)
(0.0467141 -0.45852 0.130019)
(0.0427336 -0.40138 0.119277)
(0.0426745 -0.333798 0.10444)
(0.0459057 -0.258674 0.0921728)
(0.0506392 -0.180854 0.0856173)
(0.054798 -0.111295 0.079526)
(0.0561951 -0.0649784 0.0711068)
(0.0528525 -0.0411238 0.0626196)
(0.0463608 -0.0271879 0.0567687)
(0.0390768 -0.014745 0.0534658)
(0.0326172 -0.00115063 0.0514085)
(0.027316 0.0132912 0.0491753)
(0.0227939 0.0289773 0.0456705)
(0.0188276 0.0473654 0.0402277)
(0.0154118 0.069673 0.0330571)
(0.0123792 0.0962801 0.0262285)
(0.00935676 0.126987 0.0237446)
(0.0061206 0.163378 0.0305528)
(0.00280084 0.212022 0.0510652)
(-5.26541e-05 0.286503 0.0868591)
(-0.00192855 0.401303 0.132913)
(-0.00457387 0.556123 0.176017)
(-0.0111607 0.707024 0.200167)
(-0.0175829 0.782198 0.203837)
(-0.018807 0.780128 0.205952)
(-0.00497409 0.665707 0.227087)
(0.0151677 -0.291992 0.030351)
(0.0296152 -0.377354 0.0215592)
(0.0428405 -0.375678 0.00617671)
(0.0525635 -0.342633 -0.0122169)
(0.0571357 -0.304304 -0.0295456)
(0.0582503 -0.274946 -0.0422354)
(0.0581824 -0.253511 -0.0503562)
(0.0571012 -0.236653 -0.0541309)
(0.054856 -0.222256 -0.0530036)
(0.0516407 -0.20876 -0.0466005)
(0.0478828 -0.193412 -0.035816)
(0.0439629 -0.170153 -0.021804)
(0.0405922 -0.129254 -0.00516708)
(0.0385951 -0.0711037 0.014719)
(0.0372564 -0.00622783 0.0376565)
(0.034483 0.0570126 0.0565567)
(0.0292783 0.102409 0.0619459)
(0.0226743 0.122352 0.0575803)
(0.0146335 0.124536 0.0529294)
(0.00505129 0.120524 0.0533892)
(-0.00466362 0.120048 0.0580541)
(-0.0131826 0.125401 0.0622652)
(-0.0201282 0.135366 0.0629843)
(-0.0257022 0.149981 0.059399)
(-0.0300222 0.170865 0.0519926)
(-0.0331824 0.198999 0.0431018)
(-0.0357012 0.232761 0.0377536)
(-0.0382662 0.269746 0.0424435)
(-0.0407211 0.313765 0.0625034)
(-0.041144 0.380556 0.100213)
(-0.0371382 0.487458 0.151698)
(-0.0294355 0.611024 0.199858)
(-0.022576 0.664383 0.217496)
(-0.0159987 0.649709 0.216788)
(-0.00184415 0.510604 0.183571)
(-0.0014671 -0.189167 0.0394646)
(0.00592947 -0.385891 0.0446779)
(0.0107986 -0.472337 0.0509379)
(0.0166706 -0.512144 0.055786)
(0.0225799 -0.526219 0.0571056)
(0.0282023 -0.52455 0.0550794)
(0.0330097 -0.510649 0.0498726)
(0.0362226 -0.484758 0.0416912)
(0.0372897 -0.446177 0.0313473)
(0.036165 -0.395393 0.020627)
(0.0334943 -0.336925 0.0117197)
(0.0304584 -0.27831 0.00581256)
(0.0280455 -0.222778 0.00303016)
(0.0269696 -0.167457 0.00386653)
(0.0275821 -0.110616 0.0102884)
(0.0297234 -0.0532965 0.0239231)
(0.0322332 0.00192875 0.0419608)
(0.033481 0.0540552 0.0590685)
(0.0321534 0.0988414 0.0673763)
(0.0270795 0.12495 0.0643589)
(0.0199298 0.131909 0.0593271)
(0.0121667 0.131624 0.0588908)
(0.00423829 0.132973 0.0631913)
(-0.00281762 0.140256 0.0691441)
(-0.00836261 0.155285 0.0730041)
(-0.0121575 0.179482 0.0723014)
(-0.0140643 0.214371 0.066799)
(-0.0144494 0.259306 0.0592256)
(-0.0145163 0.308239 0.0557261)
(-0.0151678 0.354557 0.0641651)
(-0.0147845 0.408126 0.0897364)
(-0.0103397 0.484532 0.128821)
(-0.00436458 0.538794 0.153384)
(-0.0015227 0.539851 0.154302)
(0.00186434 0.44595 0.119646)
(0.00625693 -0.327517 -0.00138761)
(0.018573 -0.45014 -0.00454019)
(0.0262408 -0.465368 -0.0082958)
(0.0325134 -0.45877 -0.0133724)
(0.0383918 -0.441985 -0.0197093)
(0.0427883 -0.416063 -0.027709)
(0.045319 -0.380809 -0.0376115)
(0.04573 -0.339011 -0.0477963)
(0.0441904 -0.297959 -0.0548209)
(0.0414496 -0.263862 -0.0565087)
(0.0382706 -0.236654 -0.0533192)
(0.0351343 -0.211685 -0.046546)
(0.0324516 -0.182882 -0.0372804)
(0.0307757 -0.144446 -0.0271235)
(0.0306541 -0.0954672 -0.0181793)
(0.0317626 -0.0428996 -0.0103055)
(0.0330006 0.00482059 -0.00102137)
(0.0337905 0.0455517 0.0121967)
(0.0341581 0.0831396 0.0300439)
(0.0336626 0.120649 0.0498713)
(0.0311467 0.153322 0.0638849)
(0.0258901 0.170526 0.0668486)
(0.0190662 0.17371 0.0652656)
(0.0117338 0.172066 0.0662695)
(0.00532278 0.173123 0.0710205)
(0.000770911 0.180692 0.0764937)
(-0.00161343 0.197853 0.0797638)
(-0.00133985 0.23062 0.0787959)
(0.00137804 0.28417 0.0730906)
(0.00434906 0.350779 0.0667437)
(0.00422078 0.412614 0.069323)
(0.00232115 0.471249 0.0859032)
(0.00174539 0.515526 0.100589)
(0.000616312 0.522792 0.100985)
(0.000284104 0.44261 0.0764116)
(0.00402066 -0.341629 0.0233375)
(0.0138369 -0.516322 0.041258)
(0.0210046 -0.564329 0.0454475)
(0.026483 -0.573421 0.0438471)
(0.0313598 -0.565893 0.0381127)
(0.0355433 -0.544095 0.0271764)
(0.0382409 -0.507056 0.00961668)
(0.0389714 -0.457499 -0.0135999)
(0.0380135 -0.401435 -0.0380257)
(0.0359954 -0.344577 -0.0581124)
(0.0333254 -0.291785 -0.0702062)
(0.0302572 -0.24699 -0.0738032)
(0.0271997 -0.210968 -0.0706785)
(0.0245904 -0.180077 -0.0628066)
(0.0229008 -0.147137 -0.0513264)
(0.0228469 -0.10382 -0.037945)
(0.0244584 -0.048679 -0.0256311)
(0.0265165 0.00779968 -0.0152137)
(0.0280609 0.0557722 -0.00432547)
(0.0289218 0.095177 0.00937009)
(0.0292785 0.130686 0.026513)
(0.0285314 0.163215 0.0436661)
(0.0252939 0.184615 0.0536134)
(0.0199733 0.191805 0.056748)
(0.0133428 0.191071 0.0585524)
(0.00625462 0.189472 0.0624874)
(0.000398027 0.193307 0.0686078)
(-0.0038163 0.208674 0.075143)
(-0.00560236 0.247409 0.079702)
(-0.00362557 0.320792 0.0796463)
(3.04665e-05 0.413364 0.0767429)
(0.000847225 0.481177 0.0772817)
(0.000843974 0.509592 0.0792163)
(8.7853e-05 0.50903 0.0766021)
(0.000243036 0.417305 0.0568366)
(0.00498712 -0.447997 0.0333378)
(0.00508963 -0.551316 0.0306606)
(0.00366475 -0.558234 0.0256013)
(0.0021736 -0.544993 0.0204073)
(0.00127707 -0.515642 0.0126217)
(0.00153386 -0.466945 0.000152401)
(0.00289705 -0.402036 -0.0178148)
(0.00470925 -0.332941 -0.0391187)
(0.00585772 -0.271653 -0.059595)
(0.00593479 -0.224829 -0.0751481)
(0.00548635 -0.190883 -0.0843572)
(0.00503263 -0.164504 -0.0883103)
(0.00464968 -0.141835 -0.088284)
(0.00425805 -0.120877 -0.0849691)
(0.00388349 -0.100121 -0.0785491)
(0.0037925 -0.07698 -0.0688044)
(0.004439 -0.0471135 -0.0559604)
(0.00597083 -0.00792449 -0.0419866)
(0.00795993 0.035163 -0.0290417)
(0.00991232 0.074717 -0.0166639)
(0.0116998 0.110143 -0.00259291)
(0.0133139 0.144811 0.014955)
(0.0141122 0.178698 0.0337327)
(0.0126698 0.203922 0.046683)
(0.00895757 0.216207 0.05252)
(0.00394073 0.220321 0.0555833)
(-0.00151974 0.221885 0.0589547)
(-0.00629047 0.226262 0.0637458)
(-0.00953121 0.240697 0.0698355)
(-0.00936001 0.279171 0.0765044)
(-0.00363933 0.354309 0.0822598)
(0.00374144 0.443789 0.0863846)
(0.00698199 0.495019 0.0868326)
(0.00635428 0.504098 0.0831094)
(0.00416582 0.419747 0.0618595)
(-0.00923439 -0.397351 0.0321477)
(-0.0192935 -0.532859 0.0200478)
(-0.024158 -0.558528 0.0164328)
(-0.0265556 -0.560135 0.0153668)
(-0.0266914 -0.547222 0.0151131)
(-0.0229953 -0.519091 0.0144886)
(-0.0150608 -0.475229 0.0116791)
(-0.00404218 -0.416033 0.00430526)
(0.00751864 -0.345582 -0.00916343)
(0.0158491 -0.279423 -0.0274576)
(0.019348 -0.230557 -0.0443451)
(0.0196678 -0.196364 -0.0562416)
(0.0185382 -0.17018 -0.0635912)
(0.016882 -0.146964 -0.0674785)
(0.0151238 -0.122995 -0.0683491)
(0.0135069 -0.0952986 -0.0660489)
(0.0122997 -0.0621539 -0.0604644)
(0.0118437 -0.0241036 -0.052359)
(0.0121479 0.0154717 -0.043254)
(0.0128625 0.0521192 -0.0339116)
(0.0138236 0.0846364 -0.0235658)
(0.0151296 0.115825 -0.0103721)
(0.0168614 0.149044 0.00707905)
(0.0183297 0.181414 0.0249977)
(0.0183178 0.202606 0.0357305)
(0.0171679 0.211736 0.0400942)
(0.0156006 0.214578 0.0421203)
(0.0142377 0.215719 0.0441447)
(0.0136801 0.219278 0.0471502)
(0.0142834 0.231593 0.0517494)
(0.0159702 0.271913 0.0593892)
(0.0164048 0.359682 0.0689923)
(0.011078 0.456675 0.0774466)
(0.00597304 0.492907 0.0751481)
(0.00258492 0.438094 0.0551743)
(-0.00620754 -0.323681 -0.00293692)
(-0.0041494 -0.50691 -0.0130122)
(-0.000945524 -0.560418 -0.010274)
(0.00386474 -0.580201 -0.005692)
(0.00946357 -0.58584 -2.252e-05)
(0.0152079 -0.57851 0.00620012)
(0.0210621 -0.553588 0.0124417)
(0.0276922 -0.503169 0.0189112)
(0.0353261 -0.415507 0.0246477)
(0.0424566 -0.298931 0.0169935)
(0.0447062 -0.202177 -0.00574261)
(0.0420054 -0.142713 -0.0278154)
(0.0371906 -0.108783 -0.0427365)
(0.0318545 -0.0875782 -0.0516907)
(0.0265659 -0.0717467 -0.056659)
(0.0216469 -0.0569597 -0.0586781)
(0.0173425 -0.0393709 -0.0579007)
(0.0140897 -0.0154485 -0.0540418)
(0.012228 0.0142722 -0.0477277)
(0.0113643 0.04463 -0.0403951)
(0.0110362 0.0722797 -0.0322519)
(0.0111155 0.0984065 -0.0220472)
(0.0116786 0.126767 -0.00760837)
(0.0126972 0.159169 0.0115135)
(0.0131739 0.187995 0.0287412)
(0.0124017 0.203306 0.0377708)
(0.0109041 0.208056 0.0416438)
(0.00915778 0.208734 0.0441738)
(0.00770604 0.212563 0.0476939)
(0.00656561 0.234952 0.0542294)
(0.00561261 0.31856 0.0640968)
(0.00534709 0.467389 0.0673098)
(0.000481981 0.541872 0.0612657)
(-0.00301584 0.551931 0.0528332)
(-0.00197431 0.45033 0.0337023)
(0.00397206 -0.359392 -0.0117635)
(0.0198497 -0.577766 -0.0108123)
(0.0304572 -0.642567 -0.00982034)
(0.0385932 -0.658426 -0.0102018)
(0.0448064 -0.653599 -0.0123505)
(0.0479904 -0.63127 -0.0177887)
(0.0465054 -0.594739 -0.0259736)
(0.0407685 -0.551504 -0.0278841)
(0.0326027 -0.486721 -0.00905583)
(0.0278612 -0.364064 0.0175205)
(0.0249786 -0.230906 0.0131539)
(0.0205886 -0.141134 -0.00875125)
(0.0165163 -0.0902132 -0.0280289)
(0.0132805 -0.0599161 -0.0406193)
(0.010378 -0.0389368 -0.0482995)
(0.00753103 -0.0217462 -0.0528009)
(0.00472017 -0.00540182 -0.0548709)
(0.00210025 0.0120952 -0.0546127)
(2.46608e-05 0.0320916 -0.0519465)
(-0.00118966 0.0541116 -0.0471279)
(-0.00183164 0.0759509 -0.040756)
(-0.00221391 0.096838 -0.0327771)
(-0.0024095 0.11881 -0.0219234)
(-0.00231681 0.144979 -0.00649979)
(-0.00220452 0.174214 0.0117197)
(-0.00322089 0.197252 0.0254245)
(-0.00571187 0.208866 0.0321003)
(-0.00930656 0.213077 0.0353025)
(-0.0134578 0.215886 0.0382437)
(-0.0174207 0.227419 0.0434316)
(-0.0188967 0.275042 0.0532083)
(-0.0111099 0.397407 0.0647084)
(-0.00365403 0.515163 0.0628732)
(-0.00123591 0.526013 0.0546018)
(0.000891534 0.412039 0.0367555)
(0.0113114 -0.475188 -0.0108796)
(0.0267376 -0.651449 -0.00120713)
(0.0351561 -0.683448 0.00266007)
(0.0390962 -0.678167 0.00365453)
(0.0404277 -0.649587 0.000678706)
(0.0371142 -0.58655 -0.0134467)
(0.0267356 -0.495579 -0.0436577)
(0.0103651 -0.411808 -0.067474)
(-0.00948512 -0.337945 -0.0615205)
(-0.0258847 -0.242034 -0.0346879)
(-0.0341287 -0.140634 -0.0301681)
(-0.0367724 -0.0787687 -0.0413964)
(-0.036124 -0.0460058 -0.0497046)
(-0.0343403 -0.025762 -0.0540367)
(-0.0322567 -0.0103701 -0.0564619)
(-0.0301156 0.00334623 -0.0578712)
(-0.0280756 0.0166176 -0.0582909)
(-0.0261447 0.0298888 -0.057613)
(-0.0241175 0.0441018 -0.0557547)
(-0.0217849 0.0600372 -0.0524513)
(-0.0192118 0.0768308 -0.0476793)
(-0.016531 0.0936838 -0.0414692)
(-0.0137786 0.111399 -0.0332276)
(-0.0108347 0.132301 -0.0215233)
(-0.00764141 0.158184 -0.00541329)
(-0.00466356 0.185338 0.0117504)
(-0.00262766 0.205739 0.0239099)
(-0.00165117 0.21764 0.0302968)
(-0.00142907 0.22442 0.0332604)
(-0.00159351 0.230674 0.0350465)
(-0.0019478 0.246138 0.0383261)
(-0.000162494 0.307595 0.048985)
(0.00270544 0.452353 0.0654546)
(0.00436642 0.493674 0.0638759)
(0.00359362 0.418386 0.0462722)
(0.00581092 -0.579083 0.017691)
(0.00372084 -0.708161 0.0360494)
(0.000664435 -0.713417 0.0440878)
(-0.00456093 -0.689655 0.0492857)
(-0.0143371 -0.625826 0.0493368)
(-0.0292983 -0.506548 0.0285655)
(-0.0467016 -0.366092 -0.0175164)
(-0.0637221 -0.257543 -0.0489866)
(-0.0767527 -0.186012 -0.0539009)
(-0.082102 -0.140706 -0.0551046)
(-0.0811246 -0.110328 -0.0575712)
(-0.0769057 -0.0862314 -0.0589722)
(-0.070996 -0.0655997 -0.0599334)
(-0.0644962 -0.0474629 -0.0605709)
(-0.0580465 -0.0311561 -0.0608673)
(-0.0519151 -0.0160717 -0.0607605)
(-0.0461934 -0.00171159 -0.0601764)
(-0.0409033 0.0123023 -0.0590081)
(-0.0359036 0.0262816 -0.0571064)
(-0.0310597 0.0404345 -0.0543306)
(-0.0263054 0.0547399 -0.0505195)
(-0.0216362 0.0691655 -0.045444)
(-0.017039 0.0842064 -0.0386024)
(-0.0123947 0.101216 -0.0289626)
(-0.00754126 0.121725 -0.0153178)
(-0.00254891 0.14443 0.00118696)
(0.00234601 0.163315 0.0150918)
(0.00687747 0.175593 0.0231088)
(0.0108331 0.184744 0.0266077)
(0.0139052 0.198279 0.0274436)
(0.014472 0.237974 0.0266921)
(0.00711869 0.327074 0.0290626)
(-9.25912e-05 0.456127 0.0425573)
(-0.00116429 0.49694 0.0422538)
(-0.000972607 0.434409 0.0282789)
(-0.00455199 -0.542498 0.0337333)
(-0.0172581 -0.644856 0.0385137)
(-0.0288471 -0.642698 0.0412431)
(-0.0425722 -0.600732 0.0445067)
(-0.0597185 -0.498197 0.0436351)
(-0.0733033 -0.351704 0.022118)
(-0.0822006 -0.234954 -0.0179462)
(-0.0859848 -0.186141 -0.0403401)
(-0.0844981 -0.167638 -0.045065)
(-0.0814405 -0.1511 -0.0471199)
(-0.077346 -0.132262 -0.0484329)
(-0.0724197 -0.111881 -0.0496943)
(-0.0671316 -0.0919721 -0.0508463)
(-0.0617608 -0.0734374 -0.0517432)
(-0.056422 -0.0562396 -0.052327)
(-0.0511831 -0.0400805 -0.05257)
(-0.0460953 -0.0246747 -0.0524247)
(-0.0412003 -0.00980393 -0.0518132)
(-0.0365936 0.00469638 -0.0506296)
(-0.0322662 0.0189235 -0.0487299)
(-0.0281601 0.0329418 -0.0459373)
(-0.0243384 0.0469315 -0.0419613)
(-0.0208517 0.0614766 -0.0362755)
(-0.0176864 0.0777473 -0.0279312)
(-0.014815 0.0970206 -0.0157181)
(-0.0123091 0.118691 0.000260998)
(-0.0103858 0.138542 0.0162902)
(-0.00917733 0.153718 0.0279574)
(-0.00858177 0.17021 0.035032)
(-0.00842104 0.207046 0.0383174)
(-0.00682548 0.298194 0.0361964)
(-0.00600757 0.43287 0.0274139)
(-0.00810797 0.508208 0.0224765)
(-0.00746864 0.515829 0.0183052)
(-0.00334796 0.407461 0.0106187)
(-0.00846547 -0.478765 0.0322369)
(-0.0238006 -0.577157 0.0330956)
(-0.0375555 -0.573597 0.0334248)
(-0.0510426 -0.5364 0.035415)
(-0.0618121 -0.459574 0.038142)
(-0.0621394 -0.358959 0.0338328)
(-0.0558268 -0.274469 0.0172565)
(-0.0496228 -0.228959 0.00233816)
(-0.045715 -0.200178 -0.00539777)
(-0.0432055 -0.17478 -0.0116589)
(-0.041275 -0.150918 -0.0172411)
(-0.0395162 -0.128741 -0.021973)
(-0.0376743 -0.108286 -0.0258144)
(-0.0356661 -0.0893733 -0.0288706)
(-0.0334906 -0.0717471 -0.0312665)
(-0.0311843 -0.0551514 -0.0330962)
(-0.0287855 -0.0393499 -0.0344134)
(-0.02632 -0.0241253 -0.0352328)
(-0.0238027 -0.0092832 -0.0355296)
(-0.021332 0.00535992 -0.0352264)
(-0.0190428 0.0199861 -0.0341913)
(-0.0169997 0.034846 -0.0321897)
(-0.0152763 0.0504156 -0.0288332)
(-0.0139197 0.0674703 -0.0235006)
(-0.0129182 0.086796 -0.015388)
(-0.0123088 0.108127 -0.00412484)
(-0.0122526 0.128968 0.00898447)
(-0.0129879 0.145813 0.0210922)
(-0.0145185 0.158576 0.0306216)
(-0.0162556 0.175352 0.0382494)
(-0.0158306 0.222828 0.0449219)
(-0.00819656 0.34484 0.047443)
(-0.00188849 0.466761 0.0406992)
(0.000162159 0.480923 0.0351015)
(0.00151734 0.372317 0.0268137)
(-0.00880826 -0.404677 0.0388427)
(-0.0218535 -0.507197 0.0432476)
(-0.0317191 -0.520568 0.0435351)
(-0.038624 -0.517077 0.0446657)
(-0.0422898 -0.498566 0.0475622)
(-0.039188 -0.451312 0.0521687)
(-0.029232 -0.371913 0.0535938)
(-0.0178201 -0.291823 0.0474094)
(-0.00911408 -0.234956 0.0394287)
(-0.00361109 -0.194055 0.0315115)
(-0.000827067 -0.162211 0.023423)
(-2.63779e-06 -0.135924 0.0155847)
(-0.000333382 -0.113369 0.00853239)
(-0.00115746 -0.0934388 0.00256404)
(-0.00203943 -0.0754113 -0.00228331)
(-0.00274244 -0.0588027 -0.00610792)
(-0.00316191 -0.0432622 -0.00903606)
(-0.00330229 -0.0284978 -0.0111713)
(-0.0032045 -0.014239 -0.0125719)
(-0.00287462 -0.00021403 -0.0132496)
(-0.00233626 0.0138911 -0.0131606)
(-0.00162101 0.0284313 -0.0121894)
(-0.000734968 0.0437874 -0.010142)
(0.000343085 0.0603028 -0.00677181)
(0.001654 0.0781016 -0.0018827)
(0.00330564 0.0968748 0.00447803)
(0.00536277 0.11581 0.0117466)
(0.00759461 0.134045 0.018817)
(0.00946587 0.151858 0.0246699)
(0.010322 0.172222 0.0290922)
(0.00892941 0.20432 0.0334212)
(0.00513003 0.28324 0.044132)
(0.00466055 0.429881 0.0561894)
(0.00483621 0.466453 0.0545326)
(0.00325301 0.390181 0.0417457)
(-0.00813016 -0.360523 0.0316163)
(-0.0143212 -0.496331 0.0264719)
(-0.0180509 -0.528024 0.023448)
(-0.020001 -0.539155 0.0223459)
(-0.0209419 -0.540901 0.02298)
(-0.0202067 -0.531464 0.0261839)
(-0.0159172 -0.499429 0.0335214)
(-0.0061917 -0.434066 0.0433649)
(0.00636531 -0.352575 0.0509086)
(0.0182985 -0.275889 0.0556475)
(0.0277046 -0.210832 0.0565654)
(0.0336941 -0.159075 0.053263)
(0.0361755 -0.119994 0.0466958)
(0.0357687 -0.0911921 0.0386412)
(0.0334146 -0.0693933 0.0306973)
(0.0300488 -0.0517334 0.0237776)
(0.0264224 -0.0364387 0.0181972)
(0.023002 -0.0226246 0.0139488)
(0.0199798 -0.00980156 0.010917)
(0.0173969 0.0023861 0.00899352)
(0.0152683 0.0142491 0.00812072)
(0.0136057 0.0260756 0.00830052)
(0.0124169 0.0380979 0.00959451)
(0.0117351 0.0504012 0.0120795)
(0.011614 0.0628349 0.015745)
(0.0121181 0.0750643 0.020372)
(0.0132803 0.0869566 0.0255053)
(0.0150284 0.0995062 0.0305912)
(0.017228 0.117099 0.0351325)
(0.0190796 0.154249 0.0377516)
(0.0193662 0.232943 0.0341915)
(0.0107315 0.333277 0.0305855)
(0.00337095 0.441924 0.0398886)
(0.00100387 0.471604 0.0400516)
(-5.13933e-05 0.400213 0.0289165)
(-0.00288656 -0.332316 0.00858061)
(0.000462556 -0.502777 0.000411431)
(0.0034868 -0.547228 -0.00308401)
(0.00688448 -0.560856 -0.00608151)
(0.00995422 -0.562504 -0.00942524)
(0.0125263 -0.556259 -0.0132402)
(0.0146413 -0.54362 -0.0167034)
(0.0167082 -0.521342 -0.0172567)
(0.020108 -0.478689 -0.0107438)
(0.0259138 -0.41297 0.00346353)
(0.0335722 -0.335915 0.022035)
(0.041991 -0.257069 0.0405382)
(0.0496316 -0.183025 0.0544985)
(0.0548394 -0.120031 0.0608063)
(0.0565972 -0.0725701 0.0593488)
(0.055017 -0.0404863 0.0529913)
(0.0511093 -0.0192786 0.0451987)
(0.0460134 -0.00400457 0.0380353)
(0.0405501 0.00832269 0.0322299)
(0.0352416 0.0190843 0.0279146)
(0.0303319 0.0289574 0.0249982)
(0.0258802 0.0383632 0.0233482)
(0.021897 0.0475968 0.0228674)
(0.0183878 0.0568293 0.0234981)
(0.0153446 0.066075 0.02518)
(0.0127401 0.0752011 0.0277845)
(0.0105311 0.084203 0.0310891)
(0.00865497 0.0941419 0.0348883)
(0.007014 0.10998 0.0391692)
(0.00578711 0.149214 0.0434992)
(0.00696037 0.247612 0.0439318)
(0.00724909 0.392486 0.0334805)
(0.00339811 0.4735 0.027153)
(0.000957899 0.486239 0.0233188)
(2.44839e-05 0.388772 0.0164436)
(0.00245372 -0.373241 0.00151534)
(0.0116117 -0.562354 0.00701854)
(0.0180687 -0.611525 0.00901037)
(0.0232666 -0.623406 0.00836473)
(0.028132 -0.620215 0.00559503)
(0.0326199 -0.603636 -9.78586e-05)
(0.0361662 -0.569832 -0.010573)
(0.0376814 -0.519133 -0.0269598)
(0.036434 -0.465554 -0.0444192)
(0.033491 -0.419974 -0.0545802)
(0.0309576 -0.377883 -0.0530029)
(0.0308085 -0.330303 -0.0389388)
(0.0341244 -0.272596 -0.0148716)
(0.040276 -0.205351 0.0135286)
(0.0473167 -0.133841 0.0390201)
(0.0526115 -0.0683737 0.0548298)
(0.0542563 -0.0193695 0.0588446)
(0.052459 0.0112838 0.0552099)
(0.0485674 0.0297164 0.049168)
(0.0436406 0.0420423 0.0433875)
(0.038404 0.0514672 0.0387387)
(0.0332915 0.0593708 0.0354317)
(0.0284499 0.0664087 0.033424)
(0.0239035 0.0729362 0.0325858)
(0.0196516 0.0791545 0.0327654)
(0.0156654 0.0852115 0.0338016)
(0.0118928 0.0913413 0.0355217)
(0.00831284 0.0982431 0.0377567)
(0.00495133 0.108591 0.0404034)
(0.00224506 0.132415 0.0434473)
(0.00200953 0.199274 0.046815)
(0.00624527 0.342849 0.0472473)
(0.00794302 0.463445 0.0391068)
(0.00603791 0.487939 0.0337506)
(0.00335423 0.392381 0.0264569)
(0.00430536 -0.42369 0.00385956)
(0.0123104 -0.604784 0.0153572)
(0.017889 -0.648531 0.018564)
(0.0219569 -0.658359 0.0186868)
(0.025479 -0.654634 0.0168649)
(0.0283821 -0.639519 0.012981)
(0.0306804 -0.60824 0.00586302)
(0.0324405 -0.550035 -0.00728496)
(0.0330918 -0.466261 -0.0277551)
(0.0315265 -0.385484 -0.0496024)
(0.027928 -0.330865 -0.0645778)
(0.0239891 -0.298216 -0.0705523)
(0.0209282 -0.27357 -0.0682973)
(0.0199151 -0.244737 -0.0558001)
(0.0227027 -0.201461 -0.030394)
(0.0290458 -0.141364 0.00270192)
(0.0361576 -0.0733351 0.0321928)
(0.0406296 -0.0140225 0.0486427)
(0.0413523 0.0256897 0.0521547)
(0.0396731 0.0487676 0.0494577)
(0.0369212 0.0628245 0.0453729)
(0.0337442 0.072557 0.0415793)
(0.0305006 0.080048 0.0385564)
(0.0273885 0.0862398 0.0364463)
(0.0244701 0.0916498 0.0352488)
(0.0217544 0.096627 0.0348956)
(0.0192371 0.101493 0.0352847)
(0.0169328 0.106733 0.0362938)
(0.0149082 0.113721 0.0378165)
(0.0131969 0.128377 0.0399653)
(0.0121495 0.179667 0.0425335)
(0.0106091 0.300623 0.0472259)
(0.00874984 0.452262 0.0504647)
(0.00616059 0.4934 0.0477526)
(0.00341072 0.414822 0.037056)
(0.0024066 -0.47037 0.0121603)
(0.00695871 -0.645878 0.0199734)
(0.0107759 -0.681356 0.0201743)
(0.0138459 -0.686364 0.0185303)
(0.0165738 -0.677644 0.0152396)
(0.0185725 -0.655163 0.00950033)
(0.0194118 -0.613973 -0.000276259)
(0.0188025 -0.551782 -0.0147592)
(0.0174628 -0.475204 -0.0314838)
(0.0167886 -0.393532 -0.047528)
(0.0164342 -0.322584 -0.0603265)
(0.0152652 -0.273781 -0.0680389)
(0.0133398 -0.243895 -0.0711526)
(0.0113432 -0.224033 -0.0706199)
(0.00980425 -0.205802 -0.0653587)
(0.00999184 -0.178965 -0.0499602)
(0.0140859 -0.132054 -0.0199868)
(0.0207621 -0.0690654 0.013896)
(0.0262084 -0.00931071 0.0369001)
(0.0283759 0.0317438 0.0453702)
(0.028143 0.055116 0.0457312)
(0.0268587 0.0687218 0.0436529)
(0.0251384 0.0776901 0.0412197)
(0.023295 0.0842285 0.0390415)
(0.0215332 0.0892954 0.0373747)
(0.0199433 0.0934556 0.0363451)
(0.0185598 0.0971996 0.0359965)
(0.0174246 0.101179 0.0363136)
(0.0165449 0.106966 0.0372699)
(0.0154566 0.121655 0.0391492)
(0.014317 0.18643 0.0413151)
(0.0105067 0.330633 0.0407802)
(0.0042474 0.472486 0.0460803)
(0.00119316 0.508589 0.0443628)
(0.000284542 0.427206 0.0320763)
(-0.000232896 -0.476532 0.013019)
(0.0012703 -0.655851 0.0172981)
(0.00327177 -0.691363 0.0175254)
(0.00542153 -0.695859 0.0166842)
(0.00770556 -0.68567 0.0147688)
(0.00993958 -0.659225 0.0108134)
(0.0120643 -0.608061 0.00240306)
(0.0136909 -0.529794 -0.0132539)
(0.0139776 -0.445814 -0.0331537)
(0.013163 -0.375112 -0.0501814)
(0.0124142 -0.317511 -0.0616075)
(0.0120052 -0.270741 -0.068114)
(0.0113724 -0.235311 -0.0709248)
(0.0101673 -0.209964 -0.0711882)
(0.0086391 -0.191349 -0.0694983)
(0.00719935 -0.175119 -0.0652428)
(0.0064223 -0.154574 -0.0549992)
(0.00827928 -0.117528 -0.0313052)
(0.0134955 -0.0610087 0.00204822)
(0.0185073 -0.00377951 0.0282176)
(0.0205989 0.0364044 0.0399618)
(0.0202563 0.0590849 0.0425396)
(0.0187698 0.0719616 0.0419278)
(0.0167493 0.080243 0.0405355)
(0.0144974 0.0861445 0.0391041)
(0.0122248 0.0906456 0.0379609)
(0.010025 0.0944551 0.0372963)
(0.00798343 0.0984896 0.0372185)
(0.00612601 0.105022 0.0378205)