/*--------------------------------*- C++ -*----------------------------------*\
| =========                 |                                                 |
| \\      /  F ield         | OpenFOAM: The Open Source CFD Toolbox           |
|  \\    /   O peration     | Version:  v1912                                 |
|   \\  /    A nd           | Website:  www.openfoam.com                      |
|    \\/     M anipulation  |                                                 |
\*---------------------------------------------------------------------------*/
FoamFile
{
    version     2.0;
    format      ascii;
    class       surfaceScalarField;
    location    "8/oil";
    object      phi;
}
// * * * * * * * * * * * * * * * * * * * * * * * * * * * * * * * * * * * * * //

dimensions      [1 0 -1 0 0 0 0];
oriented        oriented;


internalField   nonuniform List<scalar> 
104676
(
-1.79076e-06
-1.79321e-06
-1.8112e-06
-1.00096e-06
-3.91978e-07
-3.97815e-07
-3.66575e-07
-3.14893e-07
-3.19496e-07
-1.93657e-07
-8.58496e-08
-8.70684e-08
-7.9747e-08
-5.66213e-08
-5.72885e-08
-4.22719e-08
-1.86394e-08
-1.88356e-08
-1.95563e-08
-1.13188e-08
-1.13967e-08
-1.07861e-08
-4.3874e-09
-4.38278e-09
-5.60127e-09
-2.61298e-09
-2.57189e-09
-3.29103e-09
-1.18658e-09
-1.12366e-09
-1.92363e-09
-7.22761e-10
-6.44638e-10
-1.24546e-09
-3.81938e-10
-2.96226e-10
-8.50279e-10
-2.45869e-10
-1.49314e-10
-6.45462e-10
-1.55218e-10
-4.95993e-11
-5.34432e-10
-1.10565e-10
-4.64645e-13
-4.8153e-10
-8.18719e-11
2.89701e-11
-4.58459e-10
-6.55477e-11
4.24762e-11
-4.48698e-10
-5.5948e-11
4.61872e-11
-4.4164e-10
-5.03549e-11
4.32966e-11
-4.29428e-10
-4.76663e-11
3.54543e-11
-4.07152e-10
-4.73146e-11
2.50385e-11
-3.71259e-10
-4.90381e-11
1.3145e-11
-3.21967e-10
-5.12514e-11
1.95928e-12
-2.61272e-10
-5.34887e-11
-7.20638e-12
-1.93547e-10
-5.48093e-11
-1.2916e-11
-1.25447e-10
-5.41855e-11
-1.39146e-11
-6.46659e-11
-5.02092e-11
-1.05713e-11
-2.052e-11
-4.09176e-11
-3.22831e-12
1.33213e-12
-2.47486e-11
2.89642e-12
-3.70518e-12
5.03744e-12
-3.9128e-07
-1.00284e-06
-3.99096e-07
-2.93394e-07
-2.93871e-07
-1.95993e-07
-1.74742e-07
-2.56609e-07
-1.76936e-07
-1.07306e-07
-8.26736e-08
-7.06126e-08
-5.84114e-08
-5.76595e-08
-4.78562e-08
-3.55419e-08
-2.14726e-08
-2.00363e-08
-2.01038e-08
-1.43468e-08
-1.24101e-08
-1.26026e-08
-6.25568e-09
-5.6329e-09
-7.63086e-09
-4.23309e-09
-3.35163e-09
-5.01803e-09
-2.19132e-09
-1.60808e-09
-3.29251e-09
-1.55452e-09
-8.93763e-10
-2.33264e-09
-9.51425e-10
-3.90386e-10
-1.72217e-09
-7.17955e-10
-1.38381e-10
-1.38237e-09
-5.22109e-10
2.70936e-11
-1.17841e-09
-4.32154e-10
1.17623e-10
-1.07283e-09
-3.60944e-10
1.73491e-10
-1.01524e-09
-3.24133e-10
2.00998e-10
-9.84174e-10
-2.97957e-10
2.10944e-10
-9.57459e-10
-2.85515e-10
2.08445e-10
-9.23292e-10
-2.78452e-10
1.96619e-10
-8.69975e-10
-2.78408e-10
1.77777e-10
-7.9313e-10
-2.80335e-10
1.54451e-10
-6.92225e-10
-2.82824e-10
1.30668e-10
-5.70934e-10
-2.83141e-10
1.0836e-10
-4.36573e-10
-2.78654e-10
8.94834e-11
-3.01046e-10
-2.65717e-10
7.60043e-11
-1.77597e-10
-2.40957e-10
6.72984e-11
-8.09033e-11
-1.99523e-10
6.19121e-11
-2.00219e-11
-1.37032e-10
5.14026e-11
-5.27283e-11
2.90012e-11
-3.15013e-07
-3.67682e-07
-3.20142e-07
-2.56628e-07
-1.75296e-07
-1.7696e-07
-1.7552e-07
-1.76077e-07
-1.6164e-07
-1.14422e-07
-7.2364e-08
-7.14069e-08
-6.79605e-08
-5.60672e-08
-4.80539e-08
-4.26481e-08
-2.48878e-08
-2.18971e-08
-2.55635e-08
-1.7996e-08
-1.34355e-08
-1.63266e-08
-9.00076e-09
-6.49178e-09
-1.02781e-08
-6.46303e-09
-3.81855e-09
-6.85847e-09
-3.71424e-09
-1.89673e-09
-4.62667e-09
-2.76106e-09
-1.02526e-09
-3.31709e-09
-1.83032e-09
-4.30683e-10
-2.48156e-09
-1.43969e-09
-1.13798e-10
-1.99254e-09
-1.10184e-09
9.07119e-11
-1.69216e-09
-9.40879e-10
2.08352e-10
-1.52324e-09
-8.12121e-10
2.82251e-10
-1.42318e-09
-7.44983e-10
3.20793e-10
-1.36177e-09
-6.97257e-10
3.37894e-10
-1.31116e-09
-6.75259e-10
3.39127e-10
-1.25521e-09
-6.63616e-10
3.2922e-10
-1.17842e-09
-6.62779e-10
3.07573e-10
-1.07469e-09
-6.64208e-10
2.80143e-10
-9.42568e-10
-6.6514e-10
2.50199e-10
-7.85703e-10
-6.59771e-10
2.19766e-10
-6.12514e-10
-6.43086e-10
1.91244e-10
-4.36096e-10
-6.08759e-10
1.66623e-10
-2.71766e-10
-5.50416e-10
1.45131e-10
-1.36385e-10
-4.60444e-10
1.25539e-10
-4.10075e-11
-3.29754e-10
9.73441e-11
-1.44668e-10
5.09326e-11
-8.59967e-08
-1.94451e-07
-8.72342e-08
-8.24804e-08
-1.08245e-07
-7.05669e-08
-7.16017e-08
-1.15552e-07
-7.1404e-08
-5.22934e-08
-5.36359e-08
-3.80365e-08
-3.67278e-08
-4.4165e-08
-2.74678e-08
-2.54899e-08
-2.18748e-08
-1.42509e-08
-1.73666e-08
-1.68518e-08
-9.26748e-09
-1.21115e-08
-9.34443e-09
-4.91148e-09
-8.41921e-09
-7.1465e-09
-3.00877e-09
-6.05075e-09
-4.51151e-09
-1.57119e-09
-4.41336e-09
-3.55108e-09
-8.47375e-10
-3.36131e-09
-2.5473e-09
-3.35077e-10
-2.65676e-09
-2.10173e-09
-4.25033e-11
-2.21687e-09
-1.6929e-09
1.51169e-10
-1.93586e-09
-1.49098e-09
2.69095e-10
-1.76742e-09
-1.32633e-09
3.45765e-10
-1.66151e-09
-1.23945e-09
3.88561e-10
-1.59042e-09
-1.17872e-09
4.10372e-10
-1.529e-09
-1.15277e-09
4.16098e-10
-1.46134e-09
-1.14133e-09
4.1005e-10
-1.3716e-09
-1.14273e-09
3.9022e-10
-1.25343e-09
-1.14633e-09
3.63953e-10
-1.10483e-09
-1.14688e-09
3.33148e-10
-9.28952e-10
-1.13534e-09
2.99685e-10
-7.34164e-10
-1.104e-09
2.66127e-10
-5.33625e-10
-1.04374e-09
2.34438e-10
-3.42559e-10
-9.45465e-10
2.03982e-10
-1.79446e-10
-7.97606e-10
1.74048e-10
-5.76649e-11
-5.83984e-10
1.3245e-10
-2.70755e-10
6.84219e-11
-5.66235e-08
-8.05062e-08
-5.73215e-08
-5.73464e-08
-5.96946e-08
-4.78277e-08
-5.52183e-08
-6.96291e-08
-4.80508e-08
-4.2711e-08
-3.86634e-08
-2.74798e-08
-3.22527e-08
-3.43371e-08
-2.02861e-08
-2.32934e-08
-1.95979e-08
-1.12362e-08
-1.66756e-08
-1.60056e-08
-7.46401e-09
-1.1946e-08
-9.91879e-09
-4.15524e-09
-8.59139e-09
-7.92521e-09
-2.57591e-09
-6.29995e-09
-5.42122e-09
-1.38173e-09
-4.70903e-09
-4.40358e-09
-7.3842e-10
-3.63607e-09
-3.33557e-09
-2.847e-10
-2.91261e-09
-2.81284e-09
-1.23506e-11
-2.44412e-09
-2.32995e-09
1.68554e-10
-2.13914e-09
-2.07862e-09
2.82665e-10
-1.94699e-09
-1.87698e-09
3.58496e-10
-1.82102e-09
-1.77072e-09
4.05296e-10
-1.73242e-09
-1.69853e-09
4.31214e-10
-1.65702e-09
-1.67141e-09
4.43227e-10
-1.5773e-09
-1.66212e-09
4.41066e-10
-1.47781e-09
-1.66834e-09
4.26123e-10
-1.35125e-09
-1.67674e-09
4.03846e-10
-1.19469e-09
-1.6789e-09
3.7545e-10
-1.01012e-09
-1.66241e-09
3.42499e-10
-8.05036e-10
-1.61665e-09
3.0757e-10
-5.91893e-10
-1.52971e-09
2.72827e-10
-3.85797e-10
-1.38954e-09
2.37977e-10
-2.05671e-10
-1.18038e-09
2.02649e-10
-6.74998e-11
-8.75743e-10
1.53588e-10
-4.17585e-10
7.93304e-11
-1.85609e-08
-4.31237e-08
-1.88217e-08
-2.10645e-08
-3.71895e-08
-2.00014e-08
-2.39727e-08
-4.48214e-08
-2.18995e-08
-2.03572e-08
-2.79919e-08
-1.4287e-08
-1.7445e-08
-2.59803e-08
-1.12691e-08
-1.36952e-08
-1.6461e-08
-6.88666e-09
-1.08149e-08
-1.40599e-08
-4.82595e-09
-8.3281e-09
-9.52394e-09
-2.88163e-09
-6.47214e-09
-7.9316e-09
-1.84957e-09
-5.0474e-09
-5.81559e-09
-1.03036e-09
-4.01335e-09
-4.88638e-09
-5.51244e-10
-3.25882e-09
-3.88539e-09
-2.04709e-10
-2.73042e-09
-3.35906e-09
1.78246e-11
-2.3672e-09
-2.85873e-09
1.65559e-10
-2.12198e-09
-2.58842e-09
2.64582e-10
-1.95843e-09
-2.37462e-09
3.34089e-10
-1.84448e-09
-2.26851e-09
3.83846e-10
-1.75883e-09
-2.19618e-09
4.11997e-10
-1.68275e-09
-2.17613e-09
4.28652e-10
-1.60018e-09
-2.17503e-09
4.3034e-10
-1.49903e-09
-2.19214e-09
4.22663e-10
-1.37222e-09
-2.21028e-09
4.06725e-10
-1.21645e-09
-2.21808e-09
3.8342e-10
-1.03289e-09
-2.20007e-09
3.54101e-10
-8.27865e-10
-2.14278e-09
3.21103e-10
-6.12939e-10
-2.03155e-09
2.86916e-10
-4.02767e-10
-1.85108e-09
2.5137e-10
-2.16646e-10
-1.58092e-09
2.1442e-10
-7.16244e-11
-1.18359e-09
1.62825e-10
-5.74016e-10
8.4806e-11
-1.12351e-08
-2.05485e-08
-1.134e-08
-1.39331e-08
-2.21186e-08
-1.2373e-08
-1.70773e-08
-2.82083e-08
-1.34689e-08
-1.53361e-08
-2.03856e-08
-9.34737e-09
-1.38617e-08
-1.99093e-08
-7.54543e-09
-1.13107e-08
-1.41338e-08
-4.87818e-09
-9.28785e-09
-1.25834e-08
-3.49938e-09
-7.35791e-09
-9.27445e-09
-2.17943e-09
-5.89122e-09
-7.97576e-09
-1.42253e-09
-4.69904e-09
-6.19295e-09
-8.14825e-10
-3.82242e-09
-5.3231e-09
-4.39904e-10
-3.1588e-09
-4.38075e-09
-1.68257e-10
-2.68151e-09
-3.84768e-09
1.13325e-11
-2.3402e-09
-3.32971e-09
1.29674e-10
-2.10442e-09
-3.0414e-09
2.17196e-10
-1.93974e-09
-2.82116e-09
2.81863e-10
-1.82441e-09
-2.71615e-09
3.32305e-10
-1.73175e-09
-2.6498e-09
3.60961e-10
-1.64962e-09
-2.63874e-09
3.80481e-10
-1.56199e-09
-2.65047e-09
3.87808e-10
-1.45948e-09
-2.68251e-09
3.87859e-10
-1.33476e-09
-2.71439e-09
3.79385e-10
-1.18413e-09
-2.73162e-09
3.62904e-10
-1.00752e-09
-2.71603e-09
3.39345e-10
-8.10004e-10
-2.65107e-09
3.10768e-10
-6.01839e-10
-2.5196e-09
2.7989e-10
-3.96777e-10
-2.30288e-09
2.46737e-10
-2.13842e-10
-1.97561e-09
2.11751e-10
-7.06337e-11
-1.48863e-09
1.61829e-10
-7.29709e-10
8.50593e-11
-4.30144e-09
-1.1931e-08
-4.31611e-09
-5.85908e-09
-1.49294e-08
-5.6316e-09
-8.1134e-09
-1.93743e-08
-6.57964e-09
-7.87346e-09
-1.55712e-08
-5.05437e-09
-7.83705e-09
-1.56371e-08
-4.30866e-09
-6.85659e-09
-1.21076e-08
-3.00661e-09
-6.08128e-09
-1.1107e-08
-2.25176e-09
-5.12237e-09
-8.75111e-09
-1.48226e-09
-4.36859e-09
-7.73039e-09
-9.99143e-10
-3.67436e-09
-6.29055e-09
-5.96622e-10
-3.14618e-09
-5.519e-09
-3.32288e-10
-2.71293e-09
-4.67589e-09
-1.38105e-10
-2.38042e-09
-4.17146e-09
-8.72854e-12
-2.12564e-09
-3.66785e-09
8.33549e-11
-1.9446e-09
-3.37985e-09
1.57414e-10
-1.8117e-09
-3.16613e-09
2.12061e-10
-1.71411e-09
-3.06927e-09
2.55535e-10
-1.62698e-09
-3.0233e-09
2.86366e-10
-1.54725e-09
-3.027e-09
3.0853e-10
-1.46137e-09
-3.05824e-09
3.21889e-10
-1.36273e-09
-3.11079e-09
3.29646e-10
-1.24499e-09
-3.16141e-09
3.29283e-10
-1.10453e-09
-3.19285e-09
3.20776e-10
-9.40674e-10
-3.18435e-09
3.04459e-10
-7.57418e-10
-3.11658e-09
2.82257e-10
-5.63569e-10
-2.97015e-09
2.56701e-10
-3.71811e-10
-2.72288e-09
2.28238e-10
-2.00219e-10
-2.34478e-09
1.97581e-10
-6.57514e-11
-1.77575e-09
1.5266e-10
-8.76803e-10
8.13427e-11
-2.52948e-09
-6.87452e-09
-2.52697e-09
-3.86112e-09
-1.02003e-08
-3.39743e-09
-5.6313e-09
-1.36369e-08
-3.96721e-09
-5.7557e-09
-1.22285e-08
-3.21833e-09
-5.94855e-09
-1.26407e-08
-2.80348e-09
-5.39685e-09
-1.06069e-08
-2.05247e-09
-4.94286e-09
-9.98726e-09
-1.57373e-09
-4.28592e-09
-8.32955e-09
-1.0785e-09
-3.75641e-09
-7.51325e-09
-7.46644e-10
-3.23532e-09
-6.34399e-09
-4.67651e-10
-2.82879e-09
-5.64784e-09
-2.77687e-10
-2.47717e-09
-4.8867e-09
-1.40813e-10
-2.20034e-09
-4.39855e-09
-4.97393e-11
-1.97953e-09
-3.91599e-09
2.73297e-11
-1.81584e-09
-3.63068e-09
8.71404e-11
-1.6889e-09
-3.42355e-09
1.30488e-10
-1.5921e-09
-3.33148e-09
1.65398e-10
-1.50362e-09
-3.309e-09
1.97231e-10
-1.41911e-09
-3.33325e-09
2.21744e-10
-1.33109e-09
-3.38813e-09
2.41855e-10
-1.23487e-09
-3.46411e-09
2.57105e-10
-1.12405e-09
-3.5367e-09
2.64477e-10
-9.9511e-10
-3.58589e-09
2.64089e-10
-8.46571e-10
-3.58843e-09
2.5554e-10
-6.81289e-10
-3.52249e-09
2.40628e-10
-5.06548e-10
-3.36649e-09
2.21599e-10
-3.33544e-10
-3.09519e-09
1.99313e-10
-1.78865e-10
-2.67417e-09
1.74712e-10
-5.80405e-11
-2.03371e-09
1.37128e-10
-1.00911e-09
7.42637e-11
-1.10904e-09
-4.65745e-09
-1.10803e-09
-1.84251e-09
-7.75844e-09
-1.70838e-09
-2.94544e-09
-1.04273e-08
-2.10671e-09
-3.22041e-09
-1.01037e-08
-1.84981e-09
-3.57432e-09
-1.0603e-08
-1.68379e-09
-3.44122e-09
-9.42759e-09
-1.31237e-09
-3.35153e-09
-9.03084e-09
-1.04612e-09
-3.06516e-09
-7.85917e-09
-7.56746e-10
-2.82841e-09
-7.20171e-09
-5.48295e-10
-2.54671e-09
-6.25599e-09
-3.69701e-10
-2.315e-09
-5.63485e-09
-2.44699e-10
-2.0877e-09
-4.95727e-09
-1.5673e-10
-1.90219e-09
-4.49209e-09
-9.1974e-11
-1.74479e-09
-4.04419e-09
-2.92016e-11
-1.61847e-09
-3.77187e-09
1.4868e-11
-1.51017e-09
-3.5807e-09
4.88384e-11
-1.42168e-09
-3.49846e-09
7.85e-11
-1.34192e-09
-3.49582e-09
1.07058e-10
-1.25966e-09
-3.54937e-09
1.33861e-10
-1.17363e-09
-3.632e-09
1.57839e-10
-1.08241e-09
-3.73422e-09
1.78895e-10
-9.80379e-10
-3.83158e-09
1.92845e-10
-8.64647e-10
-3.90153e-09
1.99907e-10
-7.33198e-10
-3.91873e-09
1.98851e-10
-5.88396e-10
-3.85869e-09
1.91395e-10
-4.35864e-10
-3.69841e-09
1.79384e-10
-2.85205e-10
-3.40981e-09
1.63964e-10
-1.51564e-10
-2.95401e-09
1.462e-10
-4.85081e-11
-2.25371e-09
1.1695e-10
-1.12263e-09
6.50095e-11
-6.55318e-10
-3.34521e-09
-6.56915e-10
-1.22932e-09
-6.1311e-09
-1.05333e-09
-2.04413e-09
-8.30568e-09
-1.30678e-09
-2.35372e-09
-8.59484e-09
-1.19928e-09
-2.68769e-09
-9.15169e-09
-1.11737e-09
-2.67628e-09
-8.52835e-09
-9.10648e-10
-2.6777e-09
-8.2823e-09
-7.47123e-10
-2.51841e-09
-7.45135e-09
-5.67123e-10
-2.38019e-09
-6.90896e-09
-4.30962e-10
-2.18951e-09
-6.13014e-09
-3.16528e-10
-2.02062e-09
-5.56382e-09
-2.39926e-10
-1.84131e-09
-4.95013e-09
-1.86453e-10
-1.6989e-09
-4.50307e-09
-1.31435e-10
-1.56911e-09
-4.09398e-09
-8.00008e-11
-1.45674e-09
-3.83669e-09
-4.75494e-11
-1.35398e-09
-3.66184e-09
-2.16111e-11
-1.26416e-09
-3.59159e-09
3.30644e-12
-1.18318e-09
-3.60528e-09
2.84797e-11
-1.10084e-09
-3.68928e-09
5.75701e-11
-1.01568e-09
-3.79726e-09
8.00895e-11
-9.27563e-10
-3.92582e-09
1.03484e-10
-8.32833e-10
-4.04807e-09
1.21758e-10
-7.2884e-10
-4.13983e-09
1.34311e-10
-6.13581e-10
-4.17323e-09
1.39248e-10
-4.89188e-10
-4.12139e-09
1.38312e-10
-3.59444e-10
-3.96069e-09
1.32542e-10
-2.31983e-10
-3.66053e-09
1.23253e-10
-1.20755e-10
-3.17775e-09
1.12505e-10
-3.71169e-11
-2.4301e-09
9.27542e-11
-1.21361e-09
5.38687e-11
-3.3063e-10
-2.67972e-09
-3.34866e-10
-6.63803e-10
-5.19071e-09
-6.07214e-10
-1.17447e-09
-7.00362e-09
-7.91399e-10
-1.44134e-09
-7.55532e-09
-7.72641e-10
-1.74761e-09
-8.10337e-09
-7.42055e-10
-1.83459e-09
-7.80583e-09
-6.35539e-10
-1.92336e-09
-7.64993e-09
-5.4359e-10
-1.88721e-09
-7.05004e-09
-4.37461e-10
-1.85116e-09
-6.59159e-09
-3.53428e-10
-1.75658e-09
-5.93604e-09
-2.88678e-10
-1.66125e-09
-5.41319e-09
-2.4595e-10
-1.5501e-09
-4.86085e-09
-2.00435e-10
-1.45757e-09
-4.44349e-09
-1.52114e-10
-1.36164e-09
-4.0712e-09
-1.18705e-10
-1.2714e-09
-3.831e-09
-9.59228e-11
-1.18335e-09
-3.67144e-09
-7.84534e-11
-1.10094e-09
-3.61551e-09
-5.84873e-11
-1.02254e-09
-3.64636e-09
-3.7317e-11
-9.42608e-10
-3.7578e-09
-1.14078e-11
-8.59301e-10
-3.8884e-09
7.83154e-12
-7.74425e-10
-4.04349e-09
3.27938e-11
-6.86021e-10
-4.19093e-09
5.44533e-11
-5.92309e-10
-4.30424e-09
7.06993e-11
-4.91303e-10
-4.35388e-09
7.96449e-11
-3.86087e-10
-4.31074e-09
8.41329e-11
-2.79748e-10
-4.15237e-09
8.53412e-11
-1.78989e-10
-3.8464e-09
8.51087e-11
-9.20912e-11
-3.34763e-09
8.29878e-11
-2.78125e-11
-2.56623e-09
7.18512e-11
-1.2849e-09
4.34766e-11
-2.04085e-10
-2.26704e-09
-2.08593e-10
-4.65649e-10
-4.53754e-09
-3.91614e-10
-8.43215e-10
-6.1046e-09
-5.21455e-10
-1.0847e-09
-6.77084e-09
-5.43006e-10
-1.35082e-09
-7.29607e-09
-5.41175e-10
-1.46627e-09
-7.20653e-09
-4.83851e-10
-1.56906e-09
-7.11837e-09
-4.28771e-10
-1.57103e-09
-6.68232e-09
-3.65742e-10
-1.55923e-09
-6.28887e-09
-3.14523e-10
-1.49875e-09
-5.72063e-09
-2.75878e-10
-1.43919e-09
-5.23604e-09
-2.36713e-10
-1.36321e-09
-4.7413e-09
-1.95536e-10
-1.2846e-09
-4.3588e-09
-1.63294e-10
-1.20023e-09
-4.01444e-09
-1.41136e-10
-1.11946e-09
-3.78674e-09
-1.25031e-10
-1.03868e-09
-3.63866e-09
-1.13561e-10
-9.59015e-10
-3.59842e-09
-9.67559e-11
-8.79092e-10
-3.64401e-09
-8.22765e-11
-8.01609e-10
-3.76788e-09
-6.74094e-11
-7.18983e-10
-3.91614e-09
-5.48821e-11
-6.3504e-10
-4.09482e-09
-3.26052e-11
-5.51049e-10
-4.2643e-09
-1.06185e-11
-4.67248e-10
-4.39731e-09
9.27036e-12
-3.81743e-10
-4.46525e-09
2.58584e-11
-2.94735e-10
-4.43598e-09
3.82361e-11
-2.09109e-10
-4.28283e-09
4.48355e-11
-1.29961e-10
-3.97458e-09
4.90366e-11
-6.40525e-11
-3.46556e-09
5.20118e-11
-1.79418e-11
-2.66136e-09
4.90183e-11
-1.33509e-09
3.22488e-11
-1.19915e-10
-2.0194e-09
-1.27728e-10
-2.97365e-10
-4.10037e-09
-2.59713e-10
-5.54746e-10
-5.49696e-09
-3.5026e-10
-7.46956e-10
-6.19939e-09
-3.79241e-10
-9.61029e-10
-6.6933e-09
-3.88702e-10
-1.08339e-09
-6.71783e-09
-3.6634e-10
-1.19661e-09
-6.663e-09
-3.42147e-10
-1.24142e-09
-6.32197e-09
-3.15551e-10
-1.26318e-09
-5.97514e-09
-2.91972e-10
-1.24022e-09
-5.48206e-09
-2.61527e-10
-1.2114e-09
-5.04095e-09
-2.2391e-10
-1.16e-09
-4.59866e-09
-1.94033e-10
-1.10314e-09
-4.2443e-09
-1.7136e-10
-1.03661e-09
-3.92775e-09
-1.53221e-10
-9.66963e-10
-3.71813e-09
-1.38249e-10
-8.92029e-10
-3.58674e-09
-1.26855e-10
-8.178e-10
-3.561e-09
-1.11648e-10
-7.39979e-10
-3.62048e-09
-1.01347e-10
-6.64558e-10
-3.75433e-09
-8.8966e-11
-5.88149e-10
-3.91263e-09
-7.99198e-11
-5.12961e-10
-4.1002e-09
-6.9807e-11
-4.36103e-10
-4.28186e-09
-5.92989e-11
-3.5797e-10
-4.4317e-09
-4.37436e-11
-2.79727e-10
-4.51789e-09
-2.56031e-11
-2.05853e-10
-4.50141e-09
-8.45276e-12
-1.3835e-10
-4.3544e-09
4.064e-12
-8.00082e-11
-4.0466e-09
1.36818e-11
-3.51839e-11
-3.53269e-09
2.23125e-11
-7.74263e-12
-2.71581e-09
2.701e-11
-1.36418e-09
2.13486e-11
-8.65668e-11
-1.84234e-09
-9.04875e-11
-2.358e-10
-3.76147e-09
-1.89675e-10
-4.41365e-10
-5.02957e-09
-2.61826e-10
-6.10962e-10
-5.73529e-09
-2.94499e-10
-7.89915e-10
-6.20194e-09
-3.12404e-10
-9.03422e-10
-6.29284e-09
-3.11486e-10
-1.00142e-09
-6.26025e-09
-3.04749e-10
-1.04936e-09
-5.98535e-09
-2.88685e-10
-1.084e-09
-5.6731e-09
-2.67407e-10
-1.08087e-09
-5.24492e-09
-2.40271e-10
-1.0602e-09
-4.84775e-09
-2.13865e-10
-1.01586e-09
-4.44937e-09
-1.93628e-10
-9.70548e-10
-4.11341e-09
-1.76207e-10
-9.12414e-10
-3.82621e-09
-1.5967e-10
-8.45715e-10
-3.64099e-09
-1.43838e-10
-7.73739e-10
-3.5283e-09
-1.30416e-10
-7.0129e-10
-3.51513e-09
-1.18319e-10
-6.23795e-10
-3.58484e-09
-1.13139e-10
-5.46062e-10
-3.72583e-09
-1.06238e-10
-4.67082e-10
-3.89125e-09
-1.00363e-10
-3.90807e-10
-4.08449e-09
-9.19862e-11
-3.16994e-10
-4.27265e-09
-8.30245e-11
-2.46763e-10
-4.43062e-09
-7.13121e-11
-1.80837e-10
-4.52471e-09
-5.91057e-11
-1.21839e-10
-4.51398e-09
-4.64203e-11
-7.16431e-11
-4.37047e-09
-3.41221e-11
-3.26912e-11
-4.06456e-09
-2.09973e-11
-7.62852e-12
-3.55059e-09
-7.1679e-12
2.20724e-12
-2.73063e-09
4.98395e-12
-1.37258e-09
1.06079e-11
-6.71985e-11
-1.70639e-09
-6.87591e-11
-1.86544e-10
-3.49309e-09
-1.49029e-10
-3.48533e-10
-4.65609e-09
-2.11485e-10
-4.95217e-10
-5.34257e-09
-2.46033e-10
-6.4852e-10
-5.78192e-09
-2.66721e-10
-7.61123e-10
-5.91162e-09
-2.68617e-10
-8.60992e-10
-5.90113e-09
-2.59254e-10
-9.1485e-10
-5.68814e-09
-2.43343e-10
-9.43667e-10
-5.41539e-09
-2.2889e-10
-9.38021e-10
-5.03525e-09
-2.15322e-10
-9.22406e-10
-4.66509e-09
-1.98277e-10
-8.94079e-10
-4.29959e-09
-1.78099e-10
-8.58074e-10
-3.99298e-09
-1.56432e-10
-8.04369e-10
-3.74051e-09
-1.39412e-10
-7.37002e-10
-3.57645e-09
-1.31913e-10
-6.67607e-10
-3.4702e-09
-1.27493e-10
-5.95387e-10
-3.46362e-09
-1.23732e-10
-5.16434e-10
-3.54035e-09
-1.2344e-10
-4.38835e-10
-3.68099e-09
-1.2244e-10
-3.58391e-10
-3.84961e-09
-1.22079e-10
-2.78908e-10
-4.04638e-09
-1.176e-10
-2.0421e-10
-4.23679e-09
-1.10557e-10
-1.3813e-10
-4.39517e-09
-1.01532e-10
-8.32676e-11
-4.48712e-09
-9.24546e-11
-3.91586e-11
-4.4766e-09
-8.14969e-11
-6.32937e-12
-4.33528e-09
-6.80262e-11
1.30831e-11
-4.03267e-09
-5.13005e-11
1.87916e-11
-3.52362e-09
-3.26728e-11
1.19295e-11
-2.71049e-09
-1.32859e-11
-1.36175e-09
1.09987e-12
-6.01595e-11
-1.5861e-09
-6.01244e-11
-1.72754e-10
-3.24702e-09
-1.33476e-10
-3.1836e-10
-4.31888e-09
-1.91603e-10
-4.56766e-10
-4.97616e-09
-2.28012e-10
-5.95194e-10
-5.39061e-09
-2.52884e-10
-7.00706e-10
-5.54278e-09
-2.63324e-10
-7.88356e-10
-5.55066e-09
-2.62814e-10
-8.391e-10
-5.38503e-09
-2.52372e-10
-8.68924e-10
-5.1501e-09
-2.35461e-10
-8.6454e-10
-4.8208e-09
-2.18829e-10
-8.42469e-10
-4.48278e-09
-2.04387e-10
-8.07979e-10
-4.14667e-09
-1.87416e-10
-7.64908e-10
-3.8678e-09
-1.68254e-10
-7.09236e-10
-3.64276e-09
-1.53424e-10
-6.44167e-10
-3.49698e-09
-1.44534e-10
-5.74291e-10
-3.40169e-09
-1.38393e-10
-4.97183e-10
-3.40269e-09
-1.3804e-10
-4.12277e-10
-3.48486e-09
-1.40402e-10
-3.32731e-10
-3.61722e-09
-1.43312e-10
-2.49248e-10
-3.78618e-09
-1.4691e-10
-1.67368e-10
-3.98516e-09
-1.43101e-10
-9.40383e-11
-4.17496e-09
-1.35154e-10
-3.32259e-11
-4.32479e-09
-1.31189e-10
1.1245e-11
-4.40329e-09
-1.28298e-10
4.20211e-11
-4.38744e-09
-1.19934e-10
5.92785e-11
-4.24752e-09
-1.05011e-10
6.004e-11
-3.94977e-09
-8.36649e-11
4.67775e-11
-3.45098e-09
-5.9379e-11
2.2803e-11
-2.65439e-09
-3.21198e-11
-1.33002e-09
-8.92604e-12
-5.87758e-11
-1.46892e-09
-5.84084e-11
-1.67247e-10
-3.00822e-09
-1.3033e-10
-3.02876e-10
-3.99568e-09
-1.87567e-10
-4.35974e-10
-4.61651e-09
-2.2655e-10
-5.65153e-10
-5.00583e-09
-2.55599e-10
-6.66242e-10
-5.16879e-09
-2.729e-10
-7.46485e-10
-5.1909e-09
-2.79519e-10
-7.95163e-10
-5.06029e-09
-2.76061e-10
-8.24353e-10
-4.85645e-09
-2.64459e-10
-8.22305e-10
-4.57731e-09
-2.45538e-10
-7.95655e-10
-4.28188e-09
-2.27548e-10
-7.5121e-10
-3.97968e-09
-2.11432e-10
-6.99504e-10
-3.72455e-09
-1.94953e-10
-6.38116e-10
-3.52317e-09
-1.80976e-10
-5.68562e-10
-3.39551e-09
-1.7103e-10
-4.91178e-10
-3.31461e-09
-1.64464e-10
-4.06057e-10
-3.32167e-09
-1.66141e-10
-3.13646e-10
-3.40705e-09
-1.70223e-10
-2.25363e-10
-3.53e-09
-1.75509e-10
-1.36493e-10
-3.69321e-09
-1.81842e-10
-5.47667e-11
-3.88178e-09
-1.85099e-10
1.56756e-11
-4.05953e-09
-1.85874e-10
6.9879e-11
-4.19677e-09
-1.82226e-10
1.0681e-10
-4.26632e-09
-1.739e-10
1.25223e-10
-4.24656e-09
-1.59289e-10
1.26209e-10
-4.11032e-09
-1.38185e-10
1.08836e-10
-3.82021e-09
-1.12187e-10
7.60984e-11
-3.33522e-09
-8.30278e-11
3.33734e-11
-2.56242e-09
-4.92453e-11
-1.27834e-09
-1.83077e-11
-6.13494e-11
-1.34759e-09
-5.99746e-11
-1.73819e-10
-2.76191e-09
-1.33842e-10
-3.10313e-10
-3.66545e-09
-1.93746e-10
-4.46441e-10
-4.24496e-09
-2.35421e-10
-5.75826e-10
-4.60884e-09
-2.67608e-10
-6.80536e-10
-4.77433e-09
-2.89754e-10
-7.62153e-10
-4.80581e-09
-3.03469e-10
-8.08987e-10
-4.70578e-09
-3.07676e-10
-8.29802e-10
-4.53343e-09
-3.02208e-10
-8.22204e-10
-4.29796e-09
-2.86952e-10
-7.91859e-10
-4.04643e-09
-2.65797e-10
-7.36329e-10
-3.78765e-09
-2.47564e-10
-6.67819e-10
-3.5586e-09
-2.34466e-10
-5.91296e-10
-3.37672e-09
-2.22966e-10
-5.07775e-10
-3.26526e-09
-2.1377e-10
-4.16135e-10
-3.19905e-09
-2.07193e-10
-3.17215e-10
-3.21048e-09
-2.10103e-10
-2.12439e-10
-3.29544e-09
-2.16384e-10
-1.11249e-10
-3.40995e-09
-2.21234e-10
-1.55878e-11
-3.56018e-09
-2.28694e-10
6.90674e-11
-3.72675e-09
-2.39684e-10
1.39369e-10
-3.88281e-09
-2.47027e-10
1.89172e-10
-4.00374e-09
-2.42835e-10
2.1637e-10
-4.06358e-09
-2.29938e-10
2.19091e-10
-4.03899e-09
-2.10289e-10
1.99687e-10
-3.90731e-09
-1.83609e-10
1.60804e-10
-3.63427e-09
-1.47054e-10
1.05756e-10
-3.1726e-09
-1.07565e-10
4.37344e-11
-2.4335e-09
-6.68969e-11
-1.20636e-09
-2.82449e-11
-6.60262e-11
-1.21712e-09
-6.44447e-11
-1.84499e-10
-2.50145e-09
-1.41981e-10
-3.27603e-10
-3.31672e-09
-2.05623e-10
-4.74008e-10
-3.8462e-09
-2.52351e-10
-6.10355e-10
-4.18161e-09
-2.90883e-10
-7.20403e-10
-4.34481e-09
-3.19467e-10
-8.0276e-10
-4.38422e-09
-3.39238e-10
-8.4916e-10
-4.31023e-09
-3.49145e-10
-8.64411e-10
-4.16806e-09
-3.50116e-10
-8.48292e-10
-3.97151e-09
-3.42571e-10
-8.08192e-10
-3.75908e-09
-3.27448e-10
-7.43422e-10
-3.54398e-09
-3.08439e-10
-6.56552e-10
-3.3511e-09
-2.94365e-10
-5.58573e-10
-3.18839e-09
-2.86311e-10
-4.54625e-10
-3.08819e-09
-2.81009e-10
-3.43429e-10
-3.03368e-09
-2.7657e-10
-2.26195e-10
-3.04823e-09
-2.79488e-10
-1.07019e-10
-3.12867e-09
-2.85941e-10
7.03405e-12
-3.22986e-09
-2.94147e-10
1.12306e-10
-3.36065e-09
-3.04797e-10
2.02346e-10
-3.50479e-09
-3.12e-10
2.72113e-10
-3.63978e-09
-3.12791e-10
3.15919e-10
-3.74357e-09
-3.03975e-10
3.3095e-10
-3.79183e-09
-2.86778e-10
3.15225e-10
-3.76116e-09
-2.62111e-10
2.70977e-10
-3.62986e-09
-2.33203e-10
2.05601e-10
-3.37113e-09
-1.97767e-10
1.29661e-10
-2.94127e-09
-1.55388e-10
5.17989e-11
-2.25422e-09
-1.01425e-10
-1.11341e-09
-4.11523e-11
-7.10967e-11
-1.07478e-09
-7.1242e-11
-2.01823e-10
-2.21345e-09
-1.57279e-10
-3.56542e-10
-2.93808e-09
-2.23922e-10
-5.1419e-10
-3.41429e-09
-2.7427e-10
-6.59793e-10
-3.71873e-09
-3.17274e-10
-7.7848e-10
-3.87436e-09
-3.51766e-10
-8.65259e-10
-3.91922e-09
-3.78221e-10
-9.13429e-10
-3.86681e-09
-3.95253e-10
-9.25455e-10
-3.75249e-09
-4.03553e-10
-9.01714e-10
-3.59159e-09
-4.03653e-10
-8.48043e-10
-3.41561e-09
-3.9714e-10
-7.66967e-10
-3.23909e-09
-3.8596e-10
-6.61543e-10
-3.08226e-09
-3.74271e-10
-5.39313e-10
-2.94522e-09
-3.65399e-10
-4.11955e-10
-2.85372e-09
-3.61838e-10
-2.7684e-10
-2.8094e-09
-3.59399e-10
-1.36287e-10
-2.82617e-09
-3.6261e-10
5.62579e-13
-2.89495e-09
-3.70577e-10
1.29743e-10
-2.9807e-09
-3.78337e-10
2.45197e-10
-3.09136e-09
-3.84744e-10
3.39643e-10
-3.21356e-09
-3.85682e-10
4.07437e-10
-3.32773e-09
-3.79849e-10
4.4318e-10
-3.41411e-09
-3.65205e-10
4.44474e-10
-3.45091e-09
-3.42219e-10
4.10834e-10
-3.41656e-09
-3.10954e-10
3.45291e-10
-3.28959e-09
-2.74727e-10
2.55009e-10
-3.04635e-09
-2.34498e-10
1.54895e-10
-2.65201e-09
-1.8915e-10
5.98901e-11
-2.03092e-09
-1.28293e-10
-1.00067e-09
-5.28514e-11
-7.53208e-11
-9.21235e-10
-7.82296e-11
-2.1752e-10
-1.89966e-09
-1.71588e-10
-3.84287e-10
-2.53047e-09
-2.40845e-10
-5.54232e-10
-2.94917e-09
-2.95174e-10
-7.11209e-10
-3.21831e-09
-3.4344e-10
-8.4039e-10
-3.36108e-09
-3.84099e-10
-9.34427e-10
-3.40748e-09
-4.17704e-10
-9.86547e-10
-3.37181e-09
-4.42879e-10
-9.9703e-10
-3.28228e-09
-4.5972e-10
-9.66347e-10
-3.15396e-09
-4.68312e-10
-8.9958e-10
-3.01195e-09
-4.7043e-10
-7.99962e-10
-2.87001e-09
-4.68698e-10
-6.74678e-10
-2.74275e-09
-4.64793e-10
-5.27967e-10
-2.63326e-09
-4.58675e-10
-3.7489e-10
-2.55427e-09
-4.5252e-10
-2.14312e-10
-2.52001e-09
-4.49959e-10
-5.05405e-11
-2.5369e-09
-4.53043e-10
1.05965e-10
-2.59158e-09
-4.59867e-10
2.51813e-10
-2.66256e-09
-4.63993e-10
3.77556e-10
-2.75271e-09
-4.64402e-10
4.75719e-10
-2.853e-09
-4.58722e-10
5.40444e-10
-2.94654e-09
-4.45913e-10
5.66737e-10
-3.01629e-09
-4.24111e-10
5.52943e-10
-3.04319e-09
-3.93919e-10
5.00273e-10
-3.0082e-09
-3.55696e-10
4.14186e-10
-2.89155e-09
-3.11953e-10
3.02766e-10
-2.67132e-09
-2.63611e-10
1.81351e-10
-2.31863e-09
-2.11966e-10
6.82254e-11
-1.77122e-09
-1.46573e-10
-8.70266e-10
-6.21801e-11
-8.0647e-11
-7.58134e-10
-8.24538e-11
-2.30897e-10
-1.57033e-09
-1.79082e-10
-4.0725e-10
-2.10112e-09
-2.52989e-10
-5.88841e-10
-2.45636e-09
-3.11218e-10
-7.57458e-10
-2.68603e-09
-3.6367e-10
-8.9779e-10
-2.8111e-09
-4.09645e-10
-1.00022e-09
-2.85511e-09
-4.49932e-10
-1.0573e-09
-2.83176e-09
-4.82972e-10
-1.06759e-09
-2.76357e-09
-5.08433e-10
-1.03148e-09
-2.664e-09
-5.26078e-10
-9.52602e-10
-2.55338e-09
-5.37443e-10
-8.35749e-10
-2.44215e-09
-5.44713e-10
-6.92523e-10
-2.33979e-09
-5.46178e-10
-5.25852e-10
-2.2563e-09
-5.43626e-10
-3.45331e-10
-2.19625e-09
-5.38544e-10
-1.59764e-10
-2.1681e-09
-5.37487e-10
2.39222e-11
-2.17907e-09
-5.41515e-10
2.01908e-10
-2.22247e-09
-5.47101e-10
3.64766e-10
-2.28018e-09
-5.45232e-10
4.99666e-10
-2.35073e-09
-5.3688e-10
5.99936e-10
-2.4299e-09
-5.23369e-10
6.60254e-10
-2.50411e-09
-5.02744e-10
6.76285e-10
-2.55895e-09
-4.7337e-10
6.47473e-10
-2.57824e-09
-4.36145e-10
5.76477e-10
-2.54559e-09
-3.91611e-10
4.70766e-10
-2.44371e-09
-3.42129e-10
3.40757e-10
-2.25339e-09
-2.87913e-10
2.02148e-10
-1.94927e-09
-2.30754e-10
7.41916e-11
-1.48194e-09
-1.61327e-10
-7.26154e-10
-6.99203e-11
-8.36631e-11
-5.89953e-10
-8.45175e-11
-2.376e-10
-1.23385e-09
-1.82547e-10
-4.19875e-10
-1.66017e-09
-2.58679e-10
-6.09736e-10
-1.94788e-09
-3.18622e-10
-7.87622e-10
-2.13453e-09
-3.73609e-10
-9.3769e-10
-2.23759e-09
-4.23446e-10
-1.04817e-09
-2.27545e-09
-4.69185e-10
-1.11064e-09
-2.26017e-09
-5.09123e-10
-1.12214e-09
-2.20922e-09
-5.42838e-10
-1.08216e-09
-2.13447e-09
-5.69503e-10
-9.94272e-10
-2.05119e-09
-5.90079e-10
-8.65351e-10
-1.96662e-09
-6.04448e-10
-7.05223e-10
-1.88926e-09
-6.10657e-10
-5.19676e-10
-1.82793e-09
-6.1392e-10
-3.15947e-10
-1.78653e-09
-6.13447e-10
-1.07738e-10
-1.76382e-09
-6.12485e-10
9.63364e-11
-1.76947e-09
-6.13677e-10
2.89632e-10
-1.80122e-09
-6.14546e-10
4.62209e-10
-1.84523e-09
-6.07528e-10
6.02718e-10
-1.89876e-09
-5.92474e-10
7.02928e-10
-1.95898e-09
-5.71127e-10
7.5756e-10
-2.01605e-09
-5.4269e-10
7.6303e-10
-2.05831e-09
-5.06113e-10
7.19985e-10
-2.07264e-09
-4.62555e-10
6.32733e-10
-2.04543e-09
-4.12911e-10
5.10649e-10
-1.96212e-09
-3.59502e-10
3.65714e-10
-1.80653e-09
-3.01924e-10
2.15362e-10
-1.55786e-09
-2.41048e-10
7.8644e-11
-1.1774e-09
-1.67821e-10
-5.73474e-10
-7.40366e-11
-8.26091e-11
-4.24594e-10
-8.27495e-11
-2.35194e-10
-9.02865e-10
-1.78398e-10
-4.17605e-10
-1.22485e-09
-2.52912e-10
-6.1019e-10
-1.44343e-09
-3.1186e-10
-7.9298e-10
-1.58483e-09
-3.66915e-10
-9.49528e-10
-1.66284e-09
-4.18197e-10
-1.0663e-09
-1.69137e-09
-4.67308e-10
-1.13384e-09
-1.68042e-09
-5.12203e-10
-1.14756e-09
-1.64319e-09
-5.52315e-10
-1.1062e-09
-1.58916e-09
-5.86673e-10
-1.01262e-09
-1.52888e-09
-6.1589e-10
-8.75881e-10
-1.46733e-09
-6.36033e-10
-7.03753e-10
-1.41306e-09
-6.48336e-10
-5.04212e-10
-1.37037e-09
-6.57098e-10
-2.85896e-10
-1.34298e-09
-6.61869e-10
-6.31695e-11
-1.32609e-09
-6.60459e-10
1.54307e-10
-1.32878e-09
-6.58165e-10
3.57229e-10
-1.35009e-09
-6.54047e-10
5.34531e-10
-1.38102e-09
-6.41509e-10
6.76894e-10
-1.42068e-09
-6.20447e-10
7.74248e-10
-1.46459e-09
-5.91748e-10
8.21607e-10
-1.50686e-09
-5.56549e-10
8.16652e-10
-1.53903e-09
-5.14325e-10
7.61249e-10
-1.55081e-09
-4.66423e-10
6.61203e-10
-1.53157e-09
-4.13816e-10
5.27439e-10
-1.46944e-09
-3.5892e-10
3.73714e-10
-1.35182e-09
-3.00993e-10
2.18319e-10
-1.16224e-09
-2.40233e-10
7.98152e-11
-8.72183e-10
-1.66711e-10
-4.19222e-10
-7.44367e-11
-7.65537e-11
-2.7162e-10
-7.64214e-11
-2.19964e-10
-5.94703e-10
-1.64752e-10
-3.94991e-10
-8.1699e-10
-2.32829e-10
-5.83158e-10
-9.68471e-10
-2.86793e-10
-7.64849e-10
-1.06474e-09
-3.38396e-10
-9.23264e-10
-1.11636e-09
-3.8806e-10
-1.04343e-09
-1.13363e-09
-4.37582e-10
-1.11478e-09
-1.12422e-09
-4.84844e-10
-1.13151e-09
-1.09734e-09
-5.29124e-10
-1.09152e-09
-1.06003e-09
-5.6912e-10
-9.97636e-10
-1.0187e-09
-6.04058e-10
-8.58446e-10
-9.77811e-10
-6.28711e-10
-6.81757e-10
-9.42502e-10
-6.47244e-10
-4.76572e-10
-9.14995e-10
-6.60564e-10
-2.5312e-10
-8.97527e-10
-6.68902e-10
-2.55612e-11
-8.86474e-10
-6.67172e-10
1.9547e-10
-8.87833e-10
-6.61977e-10
3.9943e-10
-9.00882e-10
-6.53172e-10
5.75632e-10
-9.21334e-10
-6.35892e-10
7.1446e-10
-9.48687e-10
-6.1082e-10