/*--------------------------------*- C++ -*----------------------------------*\
| =========                 |                                                 |
| \\      /  F ield         | OpenFOAM: The Open Source CFD Toolbox           |
|  \\    /   O peration     | Version:  v1906                                 |
|   \\  /    A nd           | Web:      www.OpenFOAM.com                      |
|    \\/     M anipulation  |                                                 |
\*---------------------------------------------------------------------------*/
FoamFile
{
    version     2.0;
    format      ascii;
    class       volScalarField;
    location    "88";
    object      nut;
}
// * * * * * * * * * * * * * * * * * * * * * * * * * * * * * * * * * * * * * //

dimensions      [0 2 -1 0 0 0 0];


internalField   nonuniform List<scalar> 
78750
(
5.44433e-07
1.18294e-06
4.22249e-06
7.0832e-06
8.56245e-06
9.52578e-06
1.04337e-05
1.09212e-05
1.18549e-05
1.26916e-05
1.33094e-05
1.38687e-05
1.4134e-05
1.48884e-05
1.52302e-05
1.63772e-05
1.69043e-05
1.824e-05
1.84772e-05
1.93262e-05
1.92516e-05
1.98131e-05
2.00205e-05
2.04235e-05
2.10108e-05
2.12222e-05
2.23404e-05
2.27685e-05
2.43095e-05
2.47875e-05
2.4909e-05
2.52064e-05
2.14745e-05
3.28535e-05
3.66125e-06
8.45709e-07
2.20715e-06
9.97474e-06
4.50077e-06
1.73147e-05
2.11487e-05
1.7485e-05
2.65848e-05
2.55432e-05
2.23636e-05
2.19717e-05
2.50096e-05
2.97215e-05
3.4484e-05
3.51236e-05
3.30647e-05
3.09914e-05
3.11421e-05
3.19658e-05
3.12254e-05
2.85017e-05
2.65337e-05
2.62028e-05
2.67121e-05
2.74309e-05
2.83099e-05
2.93858e-05
3.08741e-05
3.4814e-05
3.57871e-05
3.54277e-05
3.20158e-05
2.94303e-05
3.19929e-05
9.94281e-06
6.60087e-06
6.52098e-06
7.61878e-06
2.17978e-05
1.82548e-05
1.24093e-05
1.6765e-05
1.251e-05
6.14427e-06
7.36929e-06
7.71847e-06
1.30228e-05
1.77436e-05
2.52832e-05
3.08785e-05
3.56774e-05
3.59119e-05
3.45488e-05
3.42458e-05
3.60202e-05
3.88679e-05
4.28255e-05
4.7008e-05
5.11598e-05
5.49865e-05
5.99025e-05
6.66679e-05
7.22079e-05
7.85187e-05
7.90141e-05
6.32369e-05
5.17019e-05
6.49769e-05
0.000107834
1.03751e-05
9.76914e-06
7.43994e-06
1.09809e-05
0.000135074
0.000151311
6.49798e-05
7.29786e-05
8.34188e-05
5.8095e-05
5.07413e-05
4.92806e-05
3.15516e-05
2.65111e-05
2.68197e-05
3.26642e-05
4.49907e-05
8.01088e-05
5.94656e-05
3.76182e-05
2.86777e-05
2.5101e-05
2.30869e-05
2.13325e-05
2.0797e-05
2.14135e-05
2.33056e-05
2.5772e-05
2.87922e-05
3.93543e-05
7.061e-05
9.0906e-05
8.22668e-05
0.000100279
0.000107252
9.35508e-06
1.08562e-05
2.50089e-06
4.02631e-06
1.79252e-05
4.68221e-05
9.66413e-05
6.28103e-05
4.48653e-05
4.04725e-05
3.80764e-05
3.49173e-05
2.99631e-05
2.2965e-05
1.70382e-05
1.44248e-05
1.52777e-05
1.89927e-05
2.42623e-05
3.04185e-05
3.67491e-05
4.02191e-05
3.67973e-05
2.89771e-05
2.16904e-05
1.64282e-05
1.33372e-05
1.16458e-05
1.04636e-05
1.13455e-05
1.43461e-05
2.36843e-05
2.42348e-05
1.89369e-05
5.16494e-05
9.67545e-06
1.23973e-05
4.0741e-05
3.25981e-05
2.68628e-05
2.86753e-05
6.35626e-05
3.74794e-05
4.19902e-05
8.73525e-05
0.000114826
8.72927e-05
5.30506e-05
3.96047e-05
3.44185e-05
2.85815e-05
2.31809e-05
2.05373e-05
2.15908e-05
2.65626e-05
3.4346e-05
4.18353e-05
4.81283e-05
5.09652e-05
4.48341e-05
3.71546e-05
2.86544e-05
1.25421e-05
6.66443e-06
6.27219e-06
8.43741e-06
1.29488e-05
1.63766e-05
3.78294e-05
0.000113316
1.21495e-05
1.38538e-05
4.01237e-05
1.59429e-05
7.87302e-06
1.16553e-05
6.98823e-05
8.57123e-05
6.33898e-05
5.21488e-05
5.07853e-05
5.44011e-05
5.55846e-05
5.36023e-05
5.16487e-05
4.7886e-05
4.03445e-05
3.22694e-05
2.61786e-05
2.2314e-05
2.11555e-05
2.52838e-05
4.2794e-05
7.35554e-05
5.77317e-05
3.82435e-05
3.15236e-05
2.01479e-05
9.33409e-06
7.74138e-06
1.08995e-05
2.17926e-05
4.72352e-05
9.30588e-05
7.85572e-05
1.3508e-05
1.4437e-05
0.000115166
7.64894e-05
5.9165e-05
4.36419e-05
3.39099e-05
4.04315e-05
7.39489e-05
0.000155868
0.000218341
0.000181797
0.000140861
0.000113733
9.14534e-05
7.38502e-05
6.63857e-05
7.10197e-05
7.82185e-05
5.94926e-05
3.45306e-05
2.48575e-05
2.55537e-05
3.02311e-05
3.36042e-05
3.28849e-05
2.92094e-05
2.63396e-05
1.9084e-05
1.2844e-05
1.41439e-05
2.53266e-05
6.08191e-05
0.00010077
7.42123e-05
1.32077e-05
6.29065e-06
2.78361e-05
2.5181e-05
2.22211e-05
1.9983e-05
1.96425e-05
2.44731e-05
3.94251e-05
6.52507e-05
6.61315e-05
5.16744e-05
4.35164e-05
3.99549e-05
3.77241e-05
3.57289e-05
3.31808e-05
3.08811e-05
3.28385e-05
4.18899e-05
4.56478e-05
2.99915e-05
2.148e-05
2.23488e-05
2.87013e-05
3.75906e-05
4.27784e-05
4.21751e-05
3.87097e-05
2.65158e-05
1.86465e-05
2.08785e-05
3.7773e-05
9.21051e-05
8.56362e-05
1.10803e-05
4.90442e-06
1.98708e-05
3.75738e-05
6.22242e-05
7.6187e-05
6.51406e-05
6.3954e-05
7.53434e-05
8.89629e-05
9.44017e-05
9.38568e-05
9.2999e-05
9.21809e-05
9.09476e-05
9.42505e-05
0.000105751
0.000108474
8.29788e-05
6.1424e-05
4.4501e-05
2.9892e-05
2.32226e-05
2.57585e-05
3.81271e-05
5.38613e-05
7.00291e-05
7.65185e-05
7.13602e-05
5.45643e-05
3.29787e-05
2.132e-05
2.25138e-05
5.1378e-05
9.50987e-05
8.7459e-06
7.00026e-06
4.09834e-05
9.21188e-05
0.000118094
0.00012923
0.000135698
0.00013806
0.000131458
0.000122765
0.000115053
0.000103366
8.5214e-05
6.69953e-05
5.56938e-05
5.25878e-05
5.59938e-05
6.23113e-05
6.66013e-05
6.58397e-05
5.82896e-05
4.41783e-05
3.17169e-05
2.65704e-05
2.96335e-05
4.13755e-05
5.58204e-05
6.58699e-05
6.95924e-05
6.42381e-05
4.52958e-05
2.43081e-05
1.80932e-05
3.45718e-05
9.41698e-05
7.42034e-06
7.33331e-06
5.45637e-05
0.000117225
8.75018e-05
5.93719e-05
5.02558e-05
5.35667e-05
6.55141e-05
8.49512e-05
0.000109295
0.000131436
0.000145957
0.000157282
0.000166646
0.000155203
0.000123593
0.000100415
8.95826e-05
8.22247e-05
7.07395e-05
5.42432e-05
3.91951e-05
3.14047e-05
3.20314e-05
4.14089e-05
5.50242e-05
6.50662e-05
6.89899e-05
6.5028e-05
4.71067e-05
2.30399e-05
1.52078e-05
2.67835e-05
7.71796e-05
6.88682e-06
7.71692e-06
5.73466e-05
0.000109253
6.59811e-05
4.58083e-05
4.85036e-05
6.40972e-05
8.1603e-05
9.1727e-05
9.42203e-05
9.36763e-05
9.3793e-05
9.63231e-05
0.000101584
0.00010871
0.000115878
0.000120685
0.000120777
0.000113422
9.51058e-05
6.80202e-05
4.37376e-05
3.04508e-05
2.79276e-05
3.485e-05
4.55005e-05
5.15917e-05
5.60174e-05
5.82477e-05
4.72262e-05
2.25628e-05
1.30151e-05
2.17897e-05
6.89139e-05
6.77201e-06
7.50413e-06
6.70047e-05
8.52635e-05
4.2902e-05
3.21748e-05
4.03411e-05
6.24763e-05
9.04221e-05
0.000114922
0.000131927
0.000140145
0.000139734
0.000133205
0.000124578
0.000117205
0.000112846
0.000112183
0.000114807
0.00011735
0.000110882
8.66268e-05
5.42255e-05
3.24709e-05
2.4485e-05
2.87018e-05
4.26635e-05
4.2759e-05
3.94638e-05
3.81677e-05
3.42294e-05
2.09915e-05
1.31191e-05
2.15771e-05
6.52814e-05
6.73457e-06
7.24581e-06
4.94473e-05
0.0001025
6.73321e-05
3.93308e-05
3.06605e-05
3.37536e-05
4.48648e-05
5.95074e-05
7.29115e-05
8.4207e-05
9.49779e-05
0.000106438
0.00011808
0.000127926
0.000133871
0.000135198
0.00013322
0.000129841
0.00012467
0.000112758
8.76755e-05
5.58318e-05
3.40999e-05
2.60105e-05
3.0008e-05
4.51406e-05
4.10658e-05
2.86718e-05
1.96993e-05
1.49835e-05
1.34697e-05
2.37807e-05
6.28294e-05
6.71792e-06
6.66297e-06
4.0933e-05
0.000101872
0.00010206
6.30982e-05
3.18639e-05
2.1879e-05
2.49422e-05
3.96538e-05
6.2344e-05
8.28238e-05
9.53943e-05
0.000102457
0.000108224
0.000114943
0.000122555
0.000129612
0.000134488
0.000136441
0.000135727
0.000132161
0.000122616
0.000100528
6.71184e-05
4.07157e-05
2.83135e-05
2.50892e-05
2.71551e-05
2.77077e-05
1.25841e-05
7.46156e-06
9.54553e-06
2.09577e-05
6.06723e-05
6.71595e-06
6.88448e-06
3.9241e-05
0.000107235
0.0001239
0.00010479
5.68753e-05
2.58526e-05
1.57716e-05
1.6633e-05
2.64509e-05
4.45181e-05
6.67993e-05
8.7925e-05
0.000105188
0.000118587
0.000128793
0.000135861
0.000138875
0.00013688
0.000129569
0.000116752
9.81647e-05
7.52346e-05
5.31449e-05
3.71229e-05
2.80405e-05
2.33937e-05
1.80393e-05
1.04459e-05
3.17669e-06
1.63089e-06
5.94766e-06
1.76799e-05
5.81739e-05
6.784e-06
6.86401e-06
4.02882e-05
0.000116358
0.000137791
0.000127725
0.00010214
5.90366e-05
3.01675e-05
1.97623e-05
1.91331e-05
2.49012e-05
3.57525e-05
4.95804e-05
6.43779e-05
7.95026e-05
9.46507e-05
0.000108175
0.000117088
0.000118388
0.000110966
9.64199e-05
7.84049e-05
6.10491e-05
4.7199e-05
3.77425e-05
3.20877e-05
2.7381e-05
1.74317e-05
6.79278e-06
7.24256e-06
6.56382e-07
3.21594e-06
1.32689e-05
5.87081e-05
6.82029e-06
6.78708e-06
3.31867e-05
9.07456e-05
0.000115182
0.000107813
8.8046e-05
6.86172e-05
5.00852e-05
3.44324e-05
2.5651e-05
2.25801e-05
2.39546e-05
2.99098e-05
4.01188e-05
5.28586e-05
6.64663e-05
8.00901e-05
9.20485e-05
9.92455e-05
9.907e-05
9.13602e-05
7.90201e-05
6.65406e-05
5.73272e-05
5.22582e-05
4.95312e-05
4.36479e-05
3.12039e-05
2.18059e-05
1.95894e-05
2.29132e-06
2.83275e-06
1.15136e-05
5.91145e-05
6.84779e-06
6.39256e-06
2.73745e-05
7.62744e-05
0.000111368
0.000112956
9.65998e-05
7.28338e-05
5.60517e-05
4.85387e-05
4.40462e-05
3.85747e-05
3.2968e-05
2.92151e-05
2.88953e-05
3.33574e-05
4.31226e-05
5.71423e-05
7.31585e-05
8.78529e-05
9.75216e-05
9.97452e-05
9.48081e-05
8.5754e-05
7.68563e-05
7.0509e-05
6.44417e-05
5.39644e-05
4.0553e-05
3.12037e-05
2.23901e-05
3.61874e-06
3.38384e-06
1.1568e-05
5.84575e-05
6.78942e-06
6.43108e-06
2.74732e-05
8.44365e-05
0.000136716
0.000141429
0.000122637
8.75247e-05
5.56439e-05
4.24165e-05
4.50775e-05
5.65941e-05
6.42069e-05
5.91822e-05
4.85712e-05
4.04413e-05
3.76314e-05
4.12375e-05
5.17442e-05
6.81948e-05
8.69413e-05
0.000101609
0.000107514
0.000105087
9.74666e-05
8.72832e-05
7.56495e-05
6.299e-05
5.03879e-05
3.98658e-05
2.84918e-05
5.66503e-06
3.01516e-06
1.11324e-05
5.99751e-05
6.82924e-06
7.65121e-06
3.92144e-05
0.000129237
0.000170335
0.000161234
0.000134822
0.000100872
6.85029e-05
4.79372e-05
4.35676e-05
5.45964e-05
7.80956e-05
9.87062e-05
9.52068e-05
7.46224e-05
5.5881e-05
4.50957e-05
4.20471e-05
4.65404e-05
5.86465e-05
7.61986e-05
9.23126e-05
9.94725e-05
9.63948e-05
8.64212e-05
7.38512e-05
6.21559e-05
5.29693e-05
4.61128e-05
3.78339e-05
1.1835e-05
3.46835e-06
8.57063e-06
5.4185e-05
6.81907e-06
8.54837e-06
5.4978e-05
0.000151201
0.000167559
0.000157247
0.000131448
0.000102576
8.1775e-05
6.79761e-05
6.01432e-05
6.22313e-05
7.65883e-05
0.000100672
0.000122581
0.000123055
9.94052e-05
7.18556e-05
5.31427e-05
4.38476e-05
4.26113e-05
4.93629e-05
6.3421e-05
7.87685e-05
8.41844e-05
7.47987e-05
5.45025e-05
3.22713e-05
1.48584e-05
2.68722e-06
3.60941e-06
1.95435e-06
3.87655e-06
9.52384e-06
5.47675e-05
7.03602e-06
8.54417e-06
5.36303e-05
0.000141734
0.000167446
0.000167997
0.0001537
0.000127266
9.87664e-05
7.77937e-05
6.51091e-05
5.95273e-05
6.18185e-05
7.321e-05
9.43136e-05
0.000121947
0.000141906
0.000133512
0.000100994
7.04183e-05
5.21038e-05
4.43588e-05
4.51427e-05
5.3824e-05
6.60755e-05
6.80888e-05
5.21292e-05
2.27943e-05
2.4416e-07
1.57876e-06
5.92296e-07
7.71594e-07
3.89342e-06
1.34869e-05
6.11363e-05
7.09959e-06
7.4473e-06
4.01086e-05
0.000126518
0.000175417
0.00018581
0.00018029
0.000164641
0.000140689
0.000112566
8.8475e-05
7.20393e-05
6.28804e-05
6.08491e-05
6.64994e-05
8.09349e-05
0.000104962
0.000134475
0.000152573
0.000138077
0.000101147
7.05789e-05
5.43188e-05
4.93573e-05
5.30238e-05
6.17391e-05
6.47003e-05
5.16787e-05
2.61531e-05
5.89603e-06
3.36253e-06
9.29441e-07
2.22329e-06
1.13124e-05
5.92633e-05
7.0405e-06
7.11762e-06
3.54806e-05
0.000122817
0.000182948
0.000184294
0.000165234
0.000147732
0.000141391
0.000140773
0.000133151
0.000114097
9.23953e-05
7.5944e-05
6.71911e-05
6.65499e-05
7.43836e-05
9.10727e-05
0.000114711
0.000135722
0.000136713
0.000112555
8.29739e-05
6.40034e-05
5.69329e-05
5.89089e-05
6.57693e-05
6.91347e-05
6.05462e-05
3.7966e-05
1.33914e-05
6.37441e-06
8.54451e-07
9.25247e-06
5.64353e-05
6.87753e-06
7.03306e-06
3.44354e-05
0.00011702
0.000183064
0.000179071
0.00014834
0.000125035
0.00012165
0.000136221
0.00016054
0.000175601
0.000162593
0.00012957
9.88064e-05
7.91714e-05
7.03107e-05
7.06756e-05
7.8697e-05
9.12828e-05
0.000101881
0.000102266
9.09819e-05
7.63501e-05
6.66559e-05
6.40845e-05
6.64079e-05
6.92414e-05
6.9327e-05
6.59932e-05
5.35496e-05
1.88454e-05
8.48792e-07
2.96223e-06
2.23681e-05
7.21491e-06
7.6349e-06
3.86001e-05
0.000126488
0.000186819
0.00016834
0.000128734
0.000106147
0.000102232
0.000112766
0.000138155
0.000177128
0.000215027
0.000222849
0.000186493
0.000135534
9.93053e-05
8.02915e-05
7.34082e-05
7.43467e-05
7.89468e-05
8.27533e-05
8.29613e-05
8.09813e-05
8.04067e-05
8.12506e-05
7.90178e-05
7.12237e-05
6.08965e-05
5.38014e-05
4.28803e-05
7.23875e-06
2.03262e-06
3.30489e-06
3.19789e-05
8.25931e-06
8.81086e-06
5.08733e-05
0.000157081
0.000177545
0.000129979
9.72509e-05
9.46775e-05
0.000110952
0.000135179
0.000162252
0.000195199
0.000234794
0.000269916
0.000277577
0.0002372
0.000168506
0.000114709
8.49272e-05
7.14102e-05
6.80847e-05
7.1389e-05
7.88396e-05
8.98643e-05
0.000105928
0.000121494
0.000115364
8.83126e-05
5.93618e-05
1.81293e-05
5.68001e-06
6.33294e-06
1.3795e-05
4.08323e-05
3.99634e-05
7.67179e-06
9.62008e-06
6.30259e-05
0.000158993
0.000134412
8.72753e-05
7.01177e-05
8.01065e-05
0.000112879
0.000160623
0.000204962
0.000237554
0.000264858
0.000293732
0.000322126
0.000336321
0.000311108
0.000234024
0.000149601
9.63243e-05
6.92215e-05
5.73058e-05
5.57756e-05
6.18936e-05
7.0263e-05
7.46728e-05
7.06623e-05
5.68563e-05
3.71855e-05
1.82978e-05
9.24011e-06
8.98206e-06
1.7824e-05
5.09597e-05
2.52484e-05
5.46095e-06
9.23304e-06
5.51832e-05
0.00013562
0.000121372
8.36549e-05
6.4334e-05
6.5984e-05
8.94955e-05
0.000138284
0.000200983
0.000252796
0.000283305
0.000299222
0.000311471
0.00032724
0.000346877
0.000360043
0.000339448
0.000259154
0.000159199
9.42567e-05
6.2488e-05
4.93753e-05
4.64505e-05
4.81814e-05
4.92535e-05
4.68806e-05
4.15358e-05
3.57842e-05
3.06667e-05
2.38751e-05
2.15657e-05
2.29477e-05
4.60718e-05
4.11724e-06
8.04072e-06
3.77321e-05
0.000107723
0.000128868
0.000110433
6.66936e-05
4.15533e-05
4.34005e-05
6.81526e-05
0.000120083
0.000198
0.00028277
0.000352828
0.000398759
0.000420516
0.00041591
0.000409766
0.000402401
0.000394028
0.000372567
0.000254589
0.000138153
8.02078e-05
5.88614e-05
5.41349e-05
5.57013e-05
5.59089e-05
5.33318e-05
5.75374e-05
7.84232e-05
6.92191e-05
1.71972e-05
4.11637e-06
1.04212e-05
7.59166e-06
8.12805e-06
3.61088e-05
0.00010007
0.000134279
0.000125579
8.4339e-05
3.9562e-05
2.92746e-05
4.27046e-05
7.99484e-05
0.000151174
0.000263371
0.000395061
0.000423368
0.000422845
0.000419872
0.000414552
0.000407004
0.000397324
0.00038555
0.000371733
0.000237186
0.000117713
7.41653e-05
6.759e-05
7.83089e-05
8.16433e-05
6.2858e-05
2.91389e-05
1.64471e-05
1.6048e-05
1.5379e-05
1.68894e-05
6.59015e-05
8.22249e-06
8.81265e-06
4.30954e-05
0.000128473
0.000148055
0.000115159
7.66523e-05
4.73972e-05
3.72152e-05
5.01421e-05
8.99742e-05
0.000163922
0.000270281
0.000383856
0.00042647
0.000426484
0.000424125
0.000419323
0.000412016
0.000402105
0.000389362
0.000373186
0.000208712
0.000110932
7.16524e-05
6.11589e-05
6.01027e-05
4.47657e-05
2.22715e-05
1.26781e-05
1.27674e-05
2.12826e-05
4.89387e-05
7.26369e-05
3.25949e-05
6.56142e-06
9.38311e-06
5.42169e-05
0.000143071
0.000136168
9.60662e-05
6.2363e-05
4.8239e-05
4.7893e-05
6.41077e-05
0.000102167
0.000160151
0.000228452
0.00029733
0.000360059
0.000408999
0.000429675
0.000426043
0.000420304
0.000412448
0.000402479
0.000331496
0.00023131
0.000148343
9.71935e-05
7.13453e-05
5.79776e-05
4.76162e-05
3.7463e-05
2.76507e-05
2.03372e-05
1.92692e-05
2.2713e-05
3.72041e-05
4.06853e-05
4.48634e-06
9.24003e-06
5.06471e-05
0.000126082
0.000130837
0.000103351
6.6722e-05
4.36179e-05
3.65037e-05
4.55507e-05
7.53565e-05
0.000128816
0.000198339
0.000269946
0.000333082
0.000381378
0.000411192
0.000423673
0.00042411
0.000415734
0.000394997
0.000355109
0.000295408
0.000226255
0.000164982
0.000121639
9.42692e-05
7.75639e-05
7.1519e-05
7.49957e-05
6.4288e-05
3.57125e-05
1.02871e-05
7.61114e-06
2.8153e-05
7.09229e-06
9.18056e-06
4.96424e-05
0.000127457
0.00013905
0.000121784
8.85616e-05
5.32849e-05
3.2692e-05
3.02139e-05
4.72372e-05
8.85896e-05
0.000157658
0.000248907
0.000349433
0.000430279
0.00043243
0.000432135
0.000429356
0.000424058
0.000416208
0.000405776
0.00039276
0.00036778
0.000280637
0.000202693
0.000150969
0.000112492
6.22823e-05
3.05461e-05
2.3423e-05
2.13796e-05
1.48169e-05
1.9908e-05
8.49785e-05
8.34827e-06
9.11956e-06
5.25266e-05
0.000140782
0.000156849
0.000142858
0.000112576
7.33657e-05
4.1854e-05
2.77745e-05
3.39966e-05
6.41469e-05
0.000125371
0.000217513
0.000330317
0.000425945
0.00043009
0.000431556
0.000430251
0.00042606
0.000418818
0.000408287
0.000394162
0.000376134
0.000295665
0.000171947
8.88482e-05
3.32285e-05
1.59754e-05
2.10771e-05
3.66742e-05
4.95442e-05
5.05874e-05
6.99043e-05
3.50926e-05
7.12075e-06
9.12928e-06
5.22882e-05
0.00014286
0.000163758
0.000155721
0.000135723
0.000101728
5.96103e-05
3.05375e-05
2.26251e-05
3.70394e-05
7.98507e-05
0.000156324
0.000253646
0.000352026
0.000425357
0.000429428
0.000430814
0.000429418
0.000425101
0.000417637
0.00040673
0.000328471
0.000228794
0.000141884
7.62854e-05
3.34591e-05
1.40645e-05
1.47188e-05
2.82702e-05
4.71157e-05
5.87174e-05
5.64631e-05
2.27253e-05
4.27074e-06
8.92388e-06
4.76868e-05
0.000134397
0.000155929
0.000146921
0.000131421
0.000114705
8.77142e-05
4.87393e-05
2.27104e-05
2.06808e-05
4.34319e-05
9.92188e-05
0.000187755
0.000284358
0.000361787
0.000409242
0.000425528
0.000426743
0.000408369
0.000377034
0.000335995
0.000289617
0.000240753
0.000190104
0.000139735
9.44565e-05
6.02385e-05
4.19189e-05
3.92492e-05
4.74467e-05
5.92451e-05
6.14165e-05
3.00309e-05
3.53469e-06
8.93455e-06
4.80044e-05
0.000139238
0.000163944
0.000152006
0.000129522
0.000108163
8.93035e-05
6.3614e-05
3.25062e-05
1.72331e-05
2.61521e-05
6.42255e-05
0.0001424
0.000249353
0.000346957
0.000402845
0.000411839
0.000410159
0.000390889
0.000363691
0.000332002
0.000298046
0.000264583
0.00023451
0.000208988
0.00018572
0.000160832
0.000135649
0.000117129
0.000105759
8.72384e-05
6.43564e-05
6.15699e-05
5.41922e-06
9.14472e-06
5.22433e-05
0.000147712
0.000170295
0.000155482
0.00013126
0.000109608
9.08253e-05
6.80381e-05
4.05864e-05
2.08984e-05
2.11445e-05
4.83696e-05
0.000117903
0.000230572
0.000339751
0.00038733
0.000395285
0.000401394
0.000403055
0.000385294
0.000356163
0.00032154
0.000288139
0.000260975
0.000238804
0.000212692
0.000180334
0.000151226
0.000125829
9.38263e-05
6.00029e-05
5.04406e-05
8.25104e-05
8.24618e-06
9.26682e-06
5.36657e-05
0.000146373
0.000161614
0.000143983
0.000118954
0.000101091
9.09423e-05
7.68282e-05
5.03063e-05
2.67387e-05
2.02916e-05
3.82813e-05
9.50376e-05
0.000203614
0.000330888
0.000372781
0.000380707
0.000386754
0.000390872
0.000393144
0.000386837
0.00033534
0.000267046
0.00019466
0.000142761
0.000125388
0.000132255
0.000139798
0.00012661
9.67162e-05
7.49086e-05
8.25593e-05
8.51302e-05
8.31877e-06
9.16735e-06
5.32696e-05
0.000146919
0.000163693
0.000146073
0.000118728
9.83638e-05
8.93685e-05
8.27654e-05
6.18469e-05
3.27912e-05
2.03419e-05
3.18529e-05
7.89005e-05
0.000178139
0.000310214
0.000364029
0.000371474
0.000376915
0.000380243
0.000381468
0.000376891
0.00029029
0.000194182
0.00012143
8.54445e-05
8.37278e-05
0.000111179
0.000144433
0.000146324
0.000128049
0.000115212
0.000114218
4.58383e-05
6.71559e-06
9.20458e-06
5.52091e-05
0.00015368
0.00016732
0.00014347
0.000113742
9.46171e-05
8.719e-05
8.44109e-05
7.16918e-05
4.13579e-05
2.05035e-05
2.40213e-05
6.07036e-05
0.000144096
0.00025644
0.000348238
0.00036375
0.000369919
0.000373983
0.000360942
0.000310533
0.000247652
0.000180815
0.000121801
8.32467e-05
6.882e-05
7.59834e-05
9.8905e-05
0.000119729
0.000124854
0.000120101
9.96976e-05
3.34699e-05
5.49877e-06
9.31679e-06
5.82702e-05
0.000153456
0.000157131
0.000128675
9.98976e-05
8.55261e-05
8.27884e-05
8.26319e-05
7.50509e-05
5.40077e-05
2.90599e-05
2.18935e-05
4.34919e-05
0.000104092
0.000189935
0.000266409
0.000308802
0.000318238
0.000308223
0.000289049
0.000264415
0.000233993
0.000196735
0.000154656
0.000115197
8.74855e-05
7.49114e-05
7.52896e-05
8.48551e-05
9.78139e-05
0.000104565
9.28053e-05
3.33451e-05
5.75897e-06
9.31576e-06
5.84097e-05
0.00015133
0.000154907
0.000127591
9.78512e-05
8.22895e-05
8.12093e-05
8.6636e-05
8.4176e-05
6.53043e-05
4.05964e-05
2.59146e-05
3.29163e-05
7.16438e-05
0.000139342
0.000208577
0.000253154
0.000267881
0.000262994
0.000250198
0.000235994
0.000221632
0.000205136
0.000183922
0.000157601
0.000129726
0.000105955
8.99604e-05
8.26676e-05
8.43187e-05
9.32151e-05
9.74401e-05
4.05917e-05
6.85507e-06
9.24364e-06
5.79053e-05
0.000154434
0.000159178
0.000131041
0.000100147
8.2352e-05
7.93783e-05
8.86348e-05
0.000101852
9.77053e-05
6.40872e-05
3.25734e-05
2.38711e-05
4.11882e-05
9.17613e-05
0.000164984
0.000226296
0.000253012
0.000250106
0.000233598
0.000215767
0.00020248
0.000194313
0.000187823
0.00017809
0.000162088
0.000140198
0.000115899
9.48132e-05
8.34914e-05
8.76767e-05
0.00010357
4.91754e-05
7.48678e-06
9.20252e-06
5.76624e-05
0.000154425
0.000156005
0.000125496
9.5367e-05
7.97273e-05
7.68997e-05
8.31489e-05
9.6113e-05
0.000109004
0.000100888
5.91281e-05
2.79703e-05
2.63112e-05
5.64159e-05
0.000123901
0.000201073
0.000243736
0.000243851
0.000221132
0.000193954
0.000173126
0.000163926
0.000165963
0.000172213
0.000171904
0.000158523
0.000134341
0.000108852
9.41026e-05
9.91767e-05
0.000119602
5.37292e-05
7.69191e-06
9.22054e-06
5.89793e-05
0.000152766
0.000154102
0.000124791
9.46551e-05
7.93463e-05
7.84583e-05
8.67212e-05
9.77016e-05
0.000105554
0.000102551
7.76359e-05
4.07043e-05
2.3957e-05
3.56848e-05
8.56197e-05
0.000162441
0.000216312
0.000223918
0.000202172
0.000171658
0.000145052
0.000129941
0.000130122
0.000144195
0.000161468
0.000165678
0.000152931
0.000134025
0.000123571
0.000131003
0.000143109
5.53148e-05
7.60419e-06
9.17538e-06
5.98525e-05
0.000153549
0.000154199
0.000125684
9.5546e-05
7.85754e-05
7.56602e-05
8.35456e-05
9.69821e-05
0.00010799
0.000108292
9.09273e-05
5.84062e-05
3.18031e-05
2.79887e-05
5.44959e-05
0.000114195
0.00017026
0.000189826
0.000179149
0.000155014
0.000129096
0.000109343
0.00010118
0.000107557
0.000127801
0.000151539
0.000162312
0.000160222
0.000158215
0.00016302
0.000155722
5.44269e-05
7.21374e-06
9.1895e-06
6.15004e-05
0.000154078
0.00015457
0.000127869
9.90385e-05
8.18545e-05
7.75449e-05
8.33611e-05
9.57784e-05
0.000109497
0.000117666
0.000112488
8.77405e-05
5.28726e-05
3.11569e-05
3.25335e-05
6.12057e-05
0.000112135
0.000150624
0.000158871
0.000147478
0.0001276
0.000106617
9.08556e-05
8.47493e-05
9.06466e-05
0.000109263
0.000135368
0.000155931
0.000165968
0.000168062
0.00014837
5.13341e-05
6.99579e-06
9.21726e-06
6.30424e-05
0.000153106
0.00015657
0.000134751
0.00010656
8.5932e-05
7.77977e-05
8.07267e-05
9.16342e-05
0.000106646
0.000121572
0.000131674
0.00012866
0.00010143
5.96525e-05
3.42023e-05
3.24229e-05
5.33793e-05
9.32765e-05
0.000126429
0.00013598
0.00012914
0.000114439
9.75018e-05
8.34823e-05
7.64516e-05
7.89199e-05
9.27335e-05
0.000116787
0.000140656
0.000150996
0.000135697
4.93876e-05
7.19371e-06
9.11823e-06
6.24182e-05
0.000154223
0.000163455
0.000149063
0.000124332
9.87484e-05
8.21381e-05
7.7618e-05
8.34772e-05
9.61073e-05
0.000111093
0.000124965
0.000135431
0.000136903
0.000116028
7.26353e-05
4.1012e-05
3.38847e-05
4.8054e-05
8.05314e-05
0.000112477
0.000125129
0.000121539
0.000109979
9.55404e-05
8.21322e-05
7.34833e-05
7.27913e-05
8.30027e-05
0.000104659
0.000127127
0.000127931
5.03675e-05
7.53766e-06
8.98384e-06
6.05767e-05
0.000155189
0.000170421
0.000161132
0.000142024
0.000117875
9.56245e-05
8.25927e-05
8.09692e-05
8.91305e-05
0.000103546
0.000119624
0.000133387
0.000142014
0.000140594
0.000119234
7.82489e-05
4.59344e-05
3.65865e-05
4.73974e-05
7.47674e-05
0.000103909
0.000117675
0.000116238
0.000106859
9.41523e-05
8.1036e-05
7.1068e-05
6.86994e-05
7.85474e-05
0.000102376
0.000121887
5.19522e-05
7.78039e-06
9.00227e-06
6.17088e-05
0.000158928
0.000175302
0.000167018
0.000150756
0.000131382
0.000111181
9.43012e-05
8.57751e-05
8.74499e-05
9.80719e-05
0.000114367
0.000131962
0.000146522
0.000153074
0.000144006
0.000113597
7.31711e-05
4.66591e-05
4.10216e-05
5.33418e-05
7.80037e-05
0.000100823
0.00011013
0.000107414
9.81847e-05
8.57684e-05
7.30582e-05
6.5101e-05
6.86259e-05
9.03293e-05
0.000120163
5.20455e-05
7.91331e-06
8.93062e-06
6.1487e-05
0.000161446
0.000179852
0.000173196
0.000159498
0.000144181
0.000127628
0.00011008
9.58953e-05
9.01397e-05
9.4471e-05
0.0001076
0.00012626
0.000145955
0.000161051
0.000162568
0.000139545
9.63817e-05
5.90861e-05
4.29819e-05
4.60696e-05
6.37788e-05
8.5299e-05
9.7506e-05
9.82679e-05
9.23534e-05
8.27922e-05
7.1551e-05
6.3722e-05
6.7322e-05
9.11347e-05
0.000125038
5.0691e-05
7.91207e-06
8.88677e-06
6.05817e-05
0.000162584
0.000181294
0.000172029
0.000156672
0.000144433
0.000135996
0.000126566
0.000113588
0.000101771
9.73849e-05
0.000102581
0.000116086
0.000134859
0.000154946
0.000170242
0.000168353
0.000135311
8.45169e-05
5.03897e-05
4.09863e-05
5.04214e-05
7.03757e-05
8.4337e-05
8.51213e-05
7.94726e-05
7.36585e-05
6.89861e-05
6.7297e-05
7.58411e-05
0.000103673
0.000132064
4.82699e-05
7.75688e-06
8.87816e-06
5.96196e-05
0.000160769
0.000177871
0.000165165
0.000146945
0.000135607
0.000133307
0.000134749
0.000132347
0.00012341
0.00011386
0.000110992
0.000117263
0.000131026
0.000148688
0.000166137
0.000177466
0.000170484
0.000132039
7.88285e-05
4.63706e-05
3.93977e-05
5.04113e-05
6.75995e-05
7.36416e-05
6.85328e-05
6.27059e-05
6.18298e-05
6.77325e-05
8.4589e-05
0.00011642
0.000135514
4.70591e-05
7.63578e-06
8.84684e-06
5.7467e-05
0.000156661
0.000172331
0.000156306
0.000135283
0.000124025
0.000124893
0.000132898
0.00014023
0.000140149
0.000132476
0.000124442
0.000123224
0.00013114
0.000146579
0.000165685
0.00018312
0.000190795
0.000175741
0.000129531
7.46288e-05
4.35949e-05
3.77409e-05
4.85564e-05
6.20099e-05
6.32961e-05
5.78382e-05
5.63462e-05
6.41489e-05
8.55184e-05
0.000119856
0.00013402
4.66059e-05
7.60685e-06
8.83292e-06
5.51457e-05
0.000150832
0.000164156
0.00014398
0.000120762
0.000110927
0.000115837
0.000130411
0.000147163
0.000158202
0.00015881
0.000151205
0.000143423
0.00014233
0.000149895
0.000164444
0.000182446
0.000198697
0.00020399
0.000183423
0.000130531
7.29108e-05
4.20361e-05
3.61419e-05
4.51026e-05
5.38809e-05
5.28154e-05
5.07292e-05
5.74019e-05
7.92623e-05
0.000115439
0.000131039
4.66906e-05
7.68143e-06
8.90302e-06
5.43883e-05
0.00014561
0.000153668
0.000129977
0.000106116
9.79903e-05
0.000105768
0.000124583
0.000147404
0.000166471
0.000176265
0.000175875
0.000169771
0.000165209
0.000167465
0.000177831
0.000194423
0.000213108
0.000226894
0.000223852
0.000189741
0.000126948
6.8711e-05
4.01848e-05
3.56583e-05
4.38364e-05
4.94722e-05
4.81898e-05
5.09061e-05
6.7406e-05
0.000102952
0.000127796
4.72448e-05
7.81902e-06
8.94761e-06
5.45003e-05
0.000142025
0.000146115
0.000120864
9.72906e-05
9.03023e-05
9.98013e-05
0.000121613
0.000149291
0.000175074
0.000192769
0.000199776
0.00019781
0.00019244
0.000190108
0.000194832
0.000207375
0.000225782
0.000245049
0.000255133
0.000240447
0.00018957
0.000117085
6.10898e-05
3.70137e-05
3.43207e-05
4.04794e-05
4.41439e-05
4.7563e-05
6.15784e-05
9.54053e-05
0.000124931
4.63805e-05
7.88616e-06
9.01536e-06
5.66414e-05
0.000142782
0.000143014
0.000116597
9.2269e-05
8.42555e-05
9.28911e-05
0.000114789
0.000144232
0.000174044
0.0001985
0.000214789
0.000222759
0.000224757
0.00022507
0.000228261
0.000237369
0.000252985
0.000272354
0.00028749
0.00028407
0.000246975
0.00017608
9.96563e-05
5.18028e-05
3.46036e-05
3.45565e-05
3.90867e-05
4.38203e-05
5.70939e-05
9.02755e-05
0.000123948
4.57089e-05
7.9288e-06
9.03619e-06
5.93866e-05
0.000146506
0.00014646
0.000120707
9.40674e-05
8.19487e-05
8.68277e-05
0.00010651
0.000136174
0.000168818
0.000198319
0.00022145
0.000237567
0.000247905
0.000254998
0.000262022
0.000271974
0.000286685
0.000305287
0.000321937
0.000324264
0.000297088
0.000233591
0.000148476
7.74216e-05
4.1601e-05
3.16762e-05
3.447e-05
4.12549e-05
5.5523e-05
8.92136e-05
0.000124736
4.55273e-05
8.00087e-06
9.07713e-06
6.30902e-05
0.000153321
0.000154018
0.000128748
9.89475e-05
8.07978e-05
7.95342e-05
9.43379e-05
0.000121859
0.000156392
0.000192108
0.00022503
0.000253105
0.00027564
0.000293108
0.000307144
0.000320249
0.000334794
0.000351146
0.000365247
0.000367147
0.000343966
0.000287819
0.000203898
0.000116942
5.88664e-05
3.45278e-05
3.05643e-05
3.73589e-05
5.41116e-05
8.99816e-05
0.000124819
4.48398e-05
8.01066e-06
9.07708e-06
6.60963e-05
0.000160054
0.000159401
0.00013402
0.000104614
8.3197e-05
7.6258e-05
8.54523e-05
0.000109206
0.000143087
0.000182006
0.000222208
0.00026108
0.000296493
0.000326846
0.000351516
0.000371168
0.000387263
0.000400438
0.000408186
0.000403526
0.000377279
0.000323689
0.000245151
0.000156277
8.37632e-05
4.42658e-05
3.08758e-05
3.36974e-05
5.10029e-05
8.98566e-05
0.00012501
4.45296e-05
8.04134e-06
9.13559e-06
6.95858e-05
0.000164804
0.000156928
0.000129646
0.000106116
8.79007e-05
7.71755e-05
7.97087e-05
9.79644e-05
0.000130108
0.000172236
0.000220361
0.000270482
0.000318484
0.0003607
0.000394673
0.000419622
0.000436199
0.000445408
0.000445064
0.000435419
0.000406569
0.000355502
0.00028227
0.000195167
0.000114454
6.12649e-05
3.72212e-05
3.32016e-05
4.60212e-05
8.33587e-05
0.00012635
4.60781e-05
8.20746e-06
9.19332e-06
7.20331e-05
0.000163474
0.000141547
0.000113076
0.000100379
9.36573e-05
8.45753e-05
8.02768e-05
9.01096e-05
0.000116697
0.000158391
0.000211974
0.000272785
0.000335152
0.000393726
0.000442215
0.000466606
0.000465588
0.000462633
0.000457849
0.000451395
0.000436988
0.000385902
0.000310395
0.000220182
0.000134357
7.46375e-05
4.44867e-05
3.57122e-05
4.50598e-05
8.12856e-05
0.000130011
4.74996e-05
8.45804e-06
9.26826e-06
7.24341e-05
0.000154057
0.000119021
9.31279e-05
9.04299e-05
9.63492e-05
9.48267e-05
8.67188e-05
8.67192e-05
0.000103504
0.000138612
0.000191266
0.000259428
0.000338458
0.000417419
0.000464531
0.000467541
0.000468525
0.000467483
0.000464467
0.000459588
0.000453016
0.000405309
0.00031959
0.000220031
0.000131375
7.43851e-05
4.70612e-05
3.96399e-05
5.06955e-05
9.08563e-05
0.000133162
4.47722e-05
8.39875e-06
9.28343e-06
7.26353e-05