/*--------------------------------*- C++ -*----------------------------------*\
| =========                 |                                                 |
| \\      /  F ield         | OpenFOAM: The Open Source CFD Toolbox           |
|  \\    /   O peration     | Version:  v1912                                 |
|   \\  /    A nd           | Website:  www.openfoam.com                      |
|    \\/     M anipulation  |                                                 |
\*---------------------------------------------------------------------------*/
FoamFile
{
    version     2.0;
    format      ascii;
    class       volVectorField;
    location    "524/oil";
    object      U;
}
// * * * * * * * * * * * * * * * * * * * * * * * * * * * * * * * * * * * * * //

dimensions      [0 1 -1 0 0 0 0];


internalField   nonuniform List<vector> 
35580
(
(-1.24229e-09 2.47033e-09 -1.26687e-09)
(1.26142e-09 2.24685e-09 -3.04036e-09)
(1.16524e-08 2.21651e-09 -4.88967e-09)
(2.80186e-08 2.76754e-09 -6.76226e-09)
(4.79178e-08 3.6472e-09 -8.2704e-09)
(6.85639e-08 4.68309e-09 -9.28577e-09)
(8.73792e-08 5.77651e-09 -9.79849e-09)
(1.02126e-07 6.88097e-09 -9.86612e-09)
(1.10975e-07 7.96799e-09 -9.57583e-09)
(1.1271e-07 9.00869e-09 -9.00973e-09)
(1.06664e-07 9.94883e-09 -8.24189e-09)
(9.289e-08 1.07444e-08 -7.47541e-09)
(7.22223e-08 1.13678e-08 -6.7634e-09)
(4.59577e-08 1.18415e-08 -6.25575e-09)
(1.61191e-08 1.21022e-08 -5.99018e-09)
(-1.50234e-08 1.21336e-08 -5.99551e-09)
(-4.49522e-08 1.18609e-08 -6.25546e-09)
(-7.1272e-08 1.13791e-08 -6.74807e-09)
(-9.20679e-08 1.07164e-08 -7.42918e-09)
(-1.05971e-07 9.93592e-09 -8.20626e-09)
(-1.12234e-07 9.01136e-09 -8.966e-09)
(-1.1067e-07 7.95807e-09 -9.55754e-09)
(-1.01925e-07 6.87035e-09 -9.84708e-09)
(-8.72752e-08 5.76883e-09 -9.78881e-09)
(-6.85306e-08 4.67512e-09 -9.27814e-09)
(-4.79414e-08 3.64246e-09 -8.26329e-09)
(-2.80767e-08 2.76326e-09 -6.75129e-09)
(-1.17185e-08 2.20597e-09 -4.8682e-09)
(-1.3188e-09 2.22456e-09 -3.0135e-09)
(1.216e-09 2.42532e-09 -1.24657e-09)
(6.36493e-10 -2.31206e-09 6.21668e-10)
(1.27933e-08 -1.41542e-08 5.35988e-10)
(3.72798e-08 -2.36095e-08 -3.21519e-10)
(7.13986e-08 -2.8741e-08 -1.44267e-09)
(1.11101e-07 -3.03685e-08 -2.26995e-09)
(1.51621e-07 -2.93675e-08 -2.55541e-09)
(1.88179e-07 -2.64613e-08 -2.24135e-09)
(2.16466e-07 -2.21922e-08 -1.37059e-09)
(2.32913e-07 -1.702e-08 -4.66629e-11)
(2.35009e-07 -1.13768e-08 1.57795e-09)
(2.21375e-07 -5.71331e-09 3.4795e-09)
(1.9204e-07 -5.19516e-10 5.26267e-09)
(1.48823e-07 3.76572e-09 6.82964e-09)
(9.45657e-08 6.89549e-09 7.95468e-09)
(3.31433e-08 8.55597e-09 8.54856e-09)
(-3.09325e-08 8.59117e-09 8.56784e-09)
(-9.25594e-08 6.86244e-09 7.98223e-09)
(-1.46912e-07 3.67052e-09 6.89173e-09)
(-1.90143e-07 -7.08448e-10 5.36449e-09)
(-2.19569e-07 -5.84396e-09 3.58284e-09)
(-2.33574e-07 -1.14994e-08 1.7131e-09)
(-2.31791e-07 -1.71335e-08 4.7341e-11)
(-2.156e-07 -2.22695e-08 -1.2819e-09)
(-1.87596e-07 -2.65099e-08 -2.17135e-09)
(-1.51284e-07 -2.94155e-08 -2.49684e-09)
(-1.10963e-07 -3.04334e-08 -2.21732e-09)
(-7.1403e-08 -2.88405e-08 -1.39993e-09)
(-3.73362e-08 -2.37461e-08 -2.84763e-10)
(-1.28278e-08 -1.42947e-08 5.56533e-10)
(-6.43292e-10 -2.42918e-09 6.11949e-10)
(2.49941e-09 -2.28268e-08 2.49641e-09)
(2.51141e-08 -6.04534e-08 4.42231e-09)
(6.14817e-08 -8.83289e-08 4.82884e-09)
(1.08252e-07 -1.0606e-07 4.76835e-09)
(1.60505e-07 -1.15501e-07 4.86349e-09)
(2.12781e-07 -1.18439e-07 5.40135e-09)
(2.59337e-07 -1.16417e-07 6.48437e-09)
(2.94844e-07 -1.10694e-07 8.10327e-09)
(3.14817e-07 -1.02361e-07 1.01569e-08)
(3.1607e-07 -9.2431e-08 1.24643e-08)
(2.96766e-07 -8.19201e-08 1.50104e-08)
(2.5685e-07 -7.19235e-08 1.73687e-08)
(1.98708e-07 -6.35369e-08 1.9363e-08)
(1.26122e-07 -5.74627e-08 2.0805e-08)
(4.41716e-08 -5.425e-08 2.15708e-08)
(-4.13249e-08 -5.42634e-08 2.16214e-08)
(-1.23605e-07 -5.76227e-08 2.0844e-08)
(-1.96313e-07 -6.38828e-08 1.94212e-08)
(-2.54401e-07 -7.23958e-08 1.74269e-08)
(-2.94519e-07 -8.23249e-08 1.51108e-08)
(-3.14301e-07 -9.27971e-08 1.25905e-08)
(-3.13423e-07 -1.02634e-07 1.02396e-08)
(-2.93778e-07 -1.10882e-07 8.18225e-09)
(-2.58607e-07 -1.16548e-07 6.55653e-09)
(-2.12355e-07 -1.18554e-07 5.46631e-09)
(-1.60325e-07 -1.15643e-07 4.92745e-09)
(-1.08236e-07 -1.06263e-07 4.82269e-09)
(-6.15333e-08 -8.85946e-08 4.86609e-09)
(-2.51661e-08 -6.07054e-08 4.42745e-09)
(-2.52091e-09 -2.29836e-08 2.47186e-09)
(3.99649e-09 -5.66074e-08 3.98614e-09)
(3.54452e-08 -1.31971e-07 7.38842e-09)
(8.17549e-08 -1.8505e-07 8.66074e-09)
(1.38487e-07 -2.203e-07 9.31114e-09)
(1.99961e-07 -2.41445e-07 1.00693e-08)
(2.60321e-07 -2.51392e-07 1.12169e-08)
(3.13369e-07 -2.52587e-07 1.28655e-08)
(3.53286e-07 -2.47075e-07 1.50165e-08)
(3.75084e-07 -2.36688e-07 1.75771e-08)
(3.75145e-07 -2.23134e-07 2.03606e-08)
(3.51311e-07 -2.08138e-07 2.33029e-08)
(3.03538e-07 -1.93351e-07 2.60332e-08)
(2.34595e-07 -1.80644e-07 2.83602e-08)
(1.4873e-07 -1.71302e-07 3.00029e-08)
(5.20435e-08 -1.66381e-07 3.08627e-08)
(-4.88272e-08 -1.66455e-07 3.09272e-08)
(-1.45943e-07 -1.71511e-07 3.00205e-08)
(-2.31868e-07 -1.80992e-07 2.83724e-08)
(-3.00763e-07 -1.9373e-07 2.60602e-08)
(-3.48761e-07 -2.08459e-07 2.33698e-08)
(-3.73047e-07 -2.23423e-07 2.04208e-08)
(-3.73387e-07 -2.36898e-07 1.76106e-08)
(-3.51975e-07 -2.47221e-07 1.50538e-08)
(-3.12433e-07 -2.52686e-07 1.29041e-08)
(-2.59728e-07 -2.51493e-07 1.12606e-08)
(-1.99675e-07 -2.41603e-07 1.01212e-08)
(-1.38422e-07 -2.20549e-07 9.35042e-09)
(-8.17883e-08 -1.85361e-07 8.67112e-09)
(-3.55112e-08 -1.32235e-07 7.3639e-09)
(-4.03268e-09 -5.68119e-08 3.94595e-09)
(5.05689e-09 -1.0082e-07 5.04474e-09)
(4.32452e-08 -2.23362e-07 9.43937e-09)
(9.73843e-08 -3.06778e-07 1.12594e-08)
(1.61913e-07 -3.62939e-07 1.23541e-08)
(2.30412e-07 -3.9846e-07 1.35242e-08)
(2.9673e-07 -4.17685e-07 1.50904e-08)
(3.54401e-07 -4.24062e-07 1.71478e-08)
(3.97349e-07 -4.20442e-07 1.9712e-08)
(4.20305e-07 -4.094e-07 2.26871e-08)
(4.19389e-07 -3.93357e-07 2.58904e-08)
(3.9224e-07 -3.74745e-07 2.91714e-08)
(3.38706e-07 -3.55777e-07 3.22453e-08)
(2.61627e-07 -3.39053e-07 3.48918e-08)
(1.65752e-07 -3.26493e-07 3.67202e-08)
(5.79747e-08 -3.19898e-07 3.76763e-08)
(-5.44705e-08 -3.20005e-07 3.77546e-08)
(-1.62741e-07 -3.26662e-07 3.67437e-08)
(-2.58554e-07 -3.39178e-07 3.48955e-08)
(-3.3563e-07 -3.55878e-07 3.23022e-08)
(-3.8945e-07 -3.74808e-07 2.92384e-08)
(-4.17073e-07 -3.93416e-07 2.59393e-08)
(-4.1844e-07 -4.09444e-07 2.27234e-08)
(-3.95903e-07 -4.2049e-07 1.97526e-08)
(-3.53348e-07 -4.24114e-07 1.71885e-08)
(-2.96028e-07 -4.17774e-07 1.51265e-08)
(-2.30029e-07 -3.98612e-07 1.35602e-08)
(-1.61789e-07 -3.63189e-07 1.2366e-08)
(-9.74025e-08 -3.07062e-07 1.12302e-08)
(-4.33329e-08 -2.23517e-07 9.36358e-09)
(-5.11458e-09 -1.0106e-07 4.98077e-09)
(5.73472e-09 -1.52451e-07 5.74889e-09)
(4.8588e-08 -3.2906e-07 1.07575e-08)
(1.08397e-07 -4.46644e-07 1.28861e-08)
(1.78629e-07 -5.26157e-07 1.42401e-08)
(2.52236e-07 -5.77929e-07 1.56644e-08)
(3.22864e-07 -6.08142e-07 1.75113e-08)
(3.83884e-07 -6.21361e-07 1.98801e-08)
(4.29071e-07 -6.21259e-07 2.27983e-08)
(4.52973e-07 -6.11124e-07 2.61597e-08)
(4.51505e-07 -5.9404e-07 2.97869e-08)
(4.22228e-07 -5.73108e-07 3.34477e-08)
(3.64771e-07 -5.51152e-07 3.69299e-08)
(2.81723e-07 -5.3122e-07 3.99236e-08)
(1.78433e-07 -5.15898e-07 4.19834e-08)
(6.23695e-08 -5.07823e-07 4.30439e-08)
(-5.86692e-08 -5.07915e-07 4.31174e-08)
(-1.7528e-07 -5.16043e-07 4.19912e-08)
(-2.78407e-07 -5.31129e-07 3.99226e-08)
(-3.6147e-07 -5.51099e-07 3.7021e-08)
(-4.19268e-07 -5.7304e-07 3.35343e-08)
(-4.49056e-07 -5.93975e-07 2.98545e-08)
(-4.5101e-07 -6.11076e-07 2.62178e-08)
(-4.27548e-07 -6.21254e-07 2.28548e-08)
(-3.8277e-07 -6.21392e-07 1.99418e-08)
(-3.22102e-07 -6.08224e-07 1.75581e-08)
(-2.51786e-07 -5.7806e-07 1.57013e-08)
(-1.78447e-07 -5.26353e-07 1.42363e-08)
(-1.08399e-07 -4.46829e-07 1.28225e-08)
(-4.87096e-08 -3.29058e-07 1.06351e-08)
(-5.81976e-09 -1.52715e-07 5.66288e-09)
(6.12216e-09 -2.08794e-07 6.14319e-09)
(5.17462e-08 -4.44127e-07 1.14843e-08)
(1.15021e-07 -5.98481e-07 1.37972e-08)
(1.88755e-07 -7.03013e-07 1.52949e-08)
(2.65511e-07 -7.72428e-07 1.68783e-08)
(3.38807e-07 -8.15052e-07 1.89391e-08)
(4.0196e-07 -8.36693e-07 2.15695e-08)
(4.48681e-07 -8.41862e-07 2.48131e-08)
(4.73406e-07 -8.34506e-07 2.855e-08)
(4.71889e-07 -8.1828e-07 3.26031e-08)
(4.41597e-07 -7.96834e-07 3.66848e-08)
(3.81926e-07 -7.73586e-07 4.05849e-08)
(2.95121e-07 -7.51842e-07 4.39664e-08)
(1.8692e-07 -7.34524e-07 4.62786e-08)
(6.52909e-08 -7.25271e-07 4.74207e-08)
(-6.1452e-08 -7.25314e-07 4.74964e-08)
(-1.83691e-07 -7.3472e-07 4.62638e-08)
(-2.91701e-07 -7.51662e-07 4.39819e-08)
(-3.78514e-07 -7.73525e-07 4.07155e-08)
(-4.38553e-07 -7.96768e-07 3.6807e-08)
(-4.69381e-07 -8.1821e-07 3.27019e-08)
(-4.71406e-07 -8.34464e-07 2.86347e-08)
(-4.4713e-07 -8.41872e-07 2.48882e-08)
(-4.00824e-07 -8.36739e-07 2.16458e-08)
(-3.3802e-07 -8.1513e-07 1.89909e-08)
(-2.65023e-07 -7.72523e-07 1.69178e-08)
(-1.8853e-07 -7.03107e-07 1.52737e-08)
(-1.14998e-07 -5.98457e-07 1.36931e-08)
(-5.18785e-08 -4.43875e-07 1.13312e-08)
(-6.21557e-09 -2.09127e-07 6.05165e-09)
(6.23965e-09 -2.67427e-07 6.28613e-09)
(5.28425e-08 -5.63934e-07 1.1744e-08)
(1.17342e-07 -7.56428e-07 1.41343e-08)
(1.92239e-07 -8.86937e-07 1.57095e-08)
(2.69977e-07 -9.75002e-07 1.73865e-08)
(3.44083e-07 -1.03131e-06 1.95981e-08)
(4.07945e-07 -1.06299e-06 2.24551e-08)
(4.55335e-07 -1.07539e-06 2.59938e-08)
(4.8066e-07 -1.07303e-06 3.00889e-08)
(4.79558e-07 -1.06002e-06 3.45668e-08)
(4.49373e-07 -1.04045e-06 3.91034e-08)
(3.89275e-07 -1.01814e-06 4.34025e-08)
(3.01008e-07 -9.96418e-07 4.7194e-08)
(1.90534e-07 -9.78039e-07 4.97813e-08)
(6.64918e-08 -9.68207e-07 5.10395e-08)
(-6.27217e-08 -9.68418e-07 5.11645e-08)
(-1.87406e-07 -9.78564e-07 4.97874e-08)
(-2.97652e-07 -9.96377e-07 4.72538e-08)
(-3.85859e-07 -1.01819e-06 4.35391e-08)
(-4.46332e-07 -1.04049e-06 3.92175e-08)
(-4.77036e-07 -1.06003e-06 3.46628e-08)
(-4.78645e-07 -1.07305e-06 3.01727e-08)
(-4.53764e-07 -1.07547e-06 2.60664e-08)
(-4.06778e-07 -1.06311e-06 2.25322e-08)
(-3.43253e-07 -1.03144e-06 1.96522e-08)
(-2.69442e-07 -9.75111e-07 1.7407e-08)
(-1.91967e-07 -8.86947e-07 1.56496e-08)
(-1.17289e-07 -7.56166e-07 1.39999e-08)
(-5.29676e-08 -5.63417e-07 1.15894e-08)
(-6.3411e-09 -2.67921e-07 6.20575e-09)
(6.13877e-09 -3.26184e-07 6.18449e-09)
(5.19683e-08 -6.8399e-07 1.15457e-08)
(1.15321e-07 -9.14829e-07 1.39219e-08)
(1.88804e-07 -1.07158e-06 1.55522e-08)
(2.6504e-07 -1.17876e-06 1.72903e-08)
(3.37765e-07 -1.24973e-06 1.95645e-08)
(4.00574e-07 -1.29297e-06 2.25609e-08)
(4.47443e-07 -1.3146e-06 2.63114e-08)
(4.72889e-07 -1.31961e-06 3.06827e-08)
(4.72495e-07 -1.31244e-06 3.55104e-08)
(4.43482e-07 -1.29738e-06 4.04431e-08)
(3.8489e-07 -1.27836e-06 4.50876e-08)
(2.97917e-07 -1.25874e-06 4.91837e-08)
(1.88428e-07 -1.24097e-06 5.20737e-08)
(6.57762e-08 -1.23171e-06 5.35403e-08)
(-6.2111e-08 -1.23194e-06 5.36614e-08)
(-1.85395e-07 -1.24139e-06 5.202e-08)
(-2.94645e-07 -1.25863e-06 4.92286e-08)
(-3.81499e-07 -1.27846e-06 4.52101e-08)
(-4.40507e-07 -1.29753e-06 4.05468e-08)
(-4.7001e-07 -1.31254e-06 3.56094e-08)
(-4.70914e-07 -1.31972e-06 3.07702e-08)
(-4.45905e-07 -1.31478e-06 2.63835e-08)
(-3.99408e-07 -1.29321e-06 2.26318e-08)
(-3.36916e-07 -1.24995e-06 1.95942e-08)
(-2.64488e-07 -1.17884e-06 1.72378e-08)
(-1.88496e-07 -1.07131e-06 1.54272e-08)
(-1.15219e-07 -9.14114e-07 1.37688e-08)
(-5.2042e-08 -6.8314e-07 1.13968e-08)
(-6.2208e-09 -3.26767e-07 6.10228e-09)
(5.81567e-09 -3.8283e-07 5.8083e-09)
(4.90825e-08 -7.99746e-07 1.08463e-08)
(1.0885e-07 -1.06783e-06 1.30882e-08)
(1.78146e-07 -1.25038e-06 1.47179e-08)
(2.501e-07 -1.37658e-06 1.65103e-08)
(3.18873e-07 -1.46257e-06 1.87966e-08)
(3.78495e-07 -1.51849e-06 2.18081e-08)
(4.23311e-07 -1.55107e-06 2.56287e-08)
(4.48125e-07 -1.56563e-06 3.01053e-08)
(4.48587e-07 -1.56676e-06 3.51001e-08)
(4.2181e-07 -1.5588e-06 4.0257e-08)
(3.66697e-07 -1.54543e-06 4.51398e-08)
(2.84086e-07 -1.52975e-06 4.93111e-08)
(1.79522e-07 -1.51433e-06 5.23976e-08)
(6.26943e-08 -1.50684e-06 5.40981e-08)
(-5.93545e-08 -1.50706e-06 5.4222e-08)
(-1.76741e-07 -1.5144e-06 5.23393e-08)
(-2.80862e-07 -1.52889e-06 4.93325e-08)
(-3.63311e-07 -1.54497e-06 4.52623e-08)
(-4.18923e-07 -1.55884e-06 4.03516e-08)
(-4.46134e-07 -1.56693e-06 3.52026e-08)
(-4.46203e-07 -1.56583e-06 3.01912e-08)
(-4.21835e-07 -1.55139e-06 2.56944e-08)
(-3.77349e-07 -1.5189e-06 2.18851e-08)
(-3.18004e-07 -1.46286e-06 1.88187e-08)
(-2.49496e-07 -1.3764e-06 1.64593e-08)
(-1.77741e-07 -1.24958e-06 1.46884e-08)
(-1.0861e-07 -1.06659e-06 1.30985e-08)
(-4.90472e-08 -7.98663e-07 1.08582e-08)
(-5.85458e-09 -3.83521e-07 5.80166e-09)
(5.26516e-09 -4.35016e-07 5.18235e-09)
(4.41274e-08 -9.06263e-07 9.71998e-09)
(9.78265e-08 -1.20892e-06 1.17169e-08)
(1.60022e-07 -1.41603e-06 1.32163e-08)
(2.24678e-07 -1.56064e-06 1.49892e-08)
(2.86649e-07 -1.66134e-06 1.72286e-08)
(3.40676e-07 -1.73035e-06 2.01226e-08)
(3.81613e-07 -1.77497e-06 2.37983e-08)
(4.04755e-07 -1.80061e-06 2.80997e-08)
(4.05964e-07 -1.81184e-06 3.29822e-08)
(3.8225e-07 -1.81276e-06 3.80939e-08)
(3.32627e-07 -1.80648e-06 4.29661e-08)
(2.5797e-07 -1.7965e-06 4.69934e-08)
(1.63225e-07 -1.78588e-06 5.01012e-08)
(5.70701e-08 -1.78092e-06 5.18704e-08)
(-5.40792e-08 -1.78119e-06 5.2028e-08)
(-1.60697e-07 -1.78582e-06 5.01144e-08)
(-2.54901e-07 -1.79548e-06 4.69171e-08)
(-3.29625e-07 -1.80621e-06 4.29734e-08)
(-3.79732e-07 -1.81293e-06 3.8097e-08)
(-4.03652e-07 -1.81212e-06 3.3072e-08)
(-4.02944e-07 -1.80085e-06 2.81924e-08)
(-3.80266e-07 -1.77538e-06 2.38545e-08)
(-3.39641e-07 -1.73093e-06 2.02133e-08)
(-2.85903e-07 -1.66154e-06 1.72537e-08)
(-2.24146e-07 -1.55971e-06 1.49343e-08)
(-1.59573e-07 -1.41421e-06 1.31538e-08)
(-9.7439e-08 -1.20691e-06 1.16054e-08)
(-4.39609e-08 -9.04746e-07 9.59575e-09)
(-5.2172e-09 -4.35608e-07 5.15593e-09)
(4.45941e-09 -4.8043e-07 4.31253e-09)
(3.70372e-08 -9.98489e-07 8.11677e-09)
(8.20585e-08 -1.33085e-06 9.83001e-09)
(1.34432e-07 -1.55994e-06 1.11785e-08)
(1.88896e-07 -1.72182e-06 1.28086e-08)
(2.41125e-07 -1.83662e-06 1.49155e-08)
(2.86943e-07 -1.91831e-06 1.75609e-08)
(3.21969e-07 -1.97515e-06 2.0831e-08)
(3.42207e-07 -2.0124e-06 2.45957e-08)
(3.43853e-07 -2.03411e-06 2.8931e-08)
(3.24073e-07 -2.04383e-06 3.34566e-08)
(2.82066e-07 -2.04531e-06 3.77768e-08)
(2.18856e-07 -2.04277e-06 4.15404e-08)
(1.38874e-07 -2.03879e-06 4.45595e-08)
(4.8625e-08 -2.03696e-06 4.62484e-08)
(-4.60708e-08 -2.0371e-06 4.64152e-08)
(-1.36782e-07 -2.03852e-06 4.4767e-08)
(-2.16377e-07 -2.0426e-06 4.18055e-08)
(-2.79725e-07 -2.04734e-06 3.82768e-08)
(-3.21901e-07 -2.04547e-06 3.37639e-08)
(-3.41704e-07 -2.03476e-06 2.91334e-08)
(-3.40561e-07 -2.01255e-06 2.46392e-08)
(-3.20838e-07 -1.97548e-06 2.06233e-08)
(-2.86046e-07 -1.91885e-06 1.72574e-08)
(-2.40407e-07 -1.83638e-06 1.45533e-08)
(-1.88211e-07 -1.72011e-06 1.24939e-08)
(-1.33834e-07 -1.55754e-06 1.09785e-08)
(-8.17061e-08 -1.32869e-06 9.72251e-09)
(-3.69174e-08 -9.96705e-07 8.0798e-09)
(-4.40057e-09 -4.80819e-07 4.37455e-09)
(3.48893e-09 -5.16635e-07 3.144e-09)
(2.83077e-08 -1.0717e-06 5.88044e-09)
(6.22411e-08 -1.42748e-06 7.19529e-09)
(1.01983e-07 -1.67421e-06 8.23843e-09)
(1.43451e-07 -1.85069e-06 9.43059e-09)
(1.83303e-07 -1.97831e-06 1.10656e-08)
(2.18313e-07 -2.07151e-06 1.32443e-08)
(2.45213e-07 -2.13937e-06 1.60517e-08)
(2.61271e-07 -2.18716e-06 1.92786e-08)
(2.63139e-07 -2.21813e-06 2.28184e-08)
(2.48019e-07 -2.2363e-06 2.62721e-08)
(2.1566e-07 -2.24689e-06 2.9731e-08)
(1.67699e-07 -2.25299e-06 3.30737e-08)
(1.06926e-07 -2.25485e-06 3.55834e-08)
(3.76977e-08 -2.25546e-06 3.6873e-08)
(-3.49513e-08 -2.25483e-06 3.67669e-08)
(-1.04796e-07 -2.25306e-06 3.53672e-08)
(-1.65828e-07 -2.25169e-06 3.28645e-08)
(-2.14262e-07 -2.24924e-06 2.9853e-08)
(-2.46212e-07 -2.23819e-06 2.62662e-08)
(-2.61007e-07 -2.2186e-06 2.26372e-08)
(-2.59779e-07 -2.18686e-06 1.91209e-08)
(-2.44348e-07 -2.13931e-06 1.595e-08)
(-2.17526e-07 -2.07157e-06 1.32576e-08)
(-1.82688e-07 -1.97763e-06 1.11044e-08)
(-1.43015e-07 -1.84925e-06 9.49223e-09)
(-1.01734e-07 -1.67308e-06 8.33513e-09)
(-6.21031e-08 -1.42723e-06 7.38782e-09)
(-2.803e-08 -1.07128e-06 6.13549e-09)
(-3.35106e-09 -5.17522e-07 3.29861e-09)
(2.21125e-09 -5.42479e-07 2.04228e-09)
(1.78922e-08 -1.12343e-06 3.78267e-09)
(3.92924e-08 -1.49581e-06 4.52174e-09)
(6.44258e-08 -1.75402e-06 5.06355e-09)
(9.04331e-08 -1.94023e-06 5.76312e-09)
(1.15393e-07 -2.07723e-06 6.83406e-09)
(1.37357e-07 -2.17927e-06 8.29665e-09)
(1.5417e-07 -2.25564e-06 1.02014e-08)
(1.64485e-07 -2.3117e-06 1.24444e-08)
(1.66114e-07 -2.35011e-06 1.48217e-08)
(1.56764e-07 -2.37638e-06 1.71735e-08)
(1.36565e-07 -2.39534e-06 1.96375e-08)
(1.06536e-07 -2.40838e-06 2.19232e-08)
(6.81542e-08 -2.41475e-06 2.36255e-08)
(2.43458e-08 -2.41705e-06 2.44025e-08)
(-2.15363e-08 -2.41474e-06 2.40019e-08)
(-6.59377e-08 -2.40974e-06 2.29131e-08)
(-1.0444e-07 -2.40352e-06 2.10538e-08)
(-1.34911e-07 -2.39382e-06 1.87206e-08)
(-1.5537e-07 -2.37469e-06 1.6182e-08)
(-1.64941e-07 -2.34738e-06 1.37954e-08)
(-1.64111e-07 -2.30801e-06 1.17123e-08)
(-1.54216e-07 -2.25325e-06 9.88728e-09)
(-1.37141e-07 -2.17885e-06 8.37134e-09)
(-1.1498e-07 -2.07782e-06 7.13663e-09)
(-8.98325e-08 -1.94099e-06 6.13938e-09)
(-6.38094e-08 -1.75477e-06 5.40489e-09)
(-3.89078e-08 -1.4965e-06 4.78096e-09)
(-1.7552e-08 -1.1235e-06 3.94534e-09)
(-2.11604e-09 -5.43155e-07 2.0746e-09)
(8.15453e-10 -5.55986e-07 6.44643e-10)
(6.26429e-09 -1.15003e-06 1.28532e-09)
(1.36824e-08 -1.53163e-06 1.6155e-09)
(2.2601e-08 -1.79641e-06 1.83306e-09)
(3.17721e-08 -1.98799e-06 2.11928e-09)
(4.06264e-08 -2.12951e-06 2.56667e-09)
(4.86469e-08 -2.23504e-06 3.09703e-09)
(5.48651e-08 -2.31415e-06 3.63309e-09)
(5.8599e-08 -2.37391e-06 4.32551e-09)
(5.91529e-08 -2.41796e-06 5.27493e-09)
(5.58095e-08 -2.45051e-06 6.26308e-09)
(4.88018e-08 -2.47441e-06 7.17636e-09)
(3.81024e-08 -2.49048e-06 7.87943e-09)
(2.44896e-08 -2.49957e-06 8.62269e-09)
(9.18657e-09 -2.50395e-06 8.97955e-09)
(-6.99718e-09 -2.50162e-06 8.69311e-09)
(-2.32373e-08 -2.49536e-06 8.33657e-09)
(-3.67799e-08 -2.48674e-06 7.65956e-09)
(-4.7299e-08 -2.47341e-06 6.69761e-09)
(-5.44746e-08 -2.44957e-06 5.75356e-09)
(-5.78298e-08 -2.41649e-06 4.88733e-09)
(-5.76696e-08 -2.37146e-06 4.12707e-09)
(-5.43557e-08 -2.31225e-06 3.42209e-09)
(-4.84693e-08 -2.23452e-06 2.85661e-09)
(-4.06654e-08 -2.13011e-06 2.44363e-09)
(-3.16937e-08 -1.98904e-06 2.10299e-09)
(-2.24364e-08 -1.79756e-06 1.84397e-09)
(-1.36246e-08 -1.53276e-06 1.62841e-09)
(-6.10079e-09 -1.15076e-06 1.38191e-09)
(-6.98696e-10 -5.5653e-07 7.40747e-10)
(-5.86935e-10 -5.56537e-07 -6.91919e-10)
(-5.45e-09 -1.15101e-06 -1.254e-09)
(-1.22531e-08 -1.53317e-06 -1.47243e-09)
(-1.9995e-08 -1.79819e-06 -1.65693e-09)
(-2.81047e-08 -1.98998e-06 -1.89337e-09)
(-3.59148e-08 -2.13182e-06 -2.22863e-09)
(-4.28097e-08 -2.23774e-06 -2.66517e-09)
(-4.82477e-08 -2.31716e-06 -3.20701e-09)
(-5.14226e-08 -2.37692e-06 -3.88989e-09)
(-5.15896e-08 -2.42058e-06 -4.64751e-09)
(-4.83716e-08 -2.45298e-06 -5.59364e-09)
(-4.20211e-08 -2.47685e-06 -6.63887e-09)
(-3.30877e-08 -2.4926e-06 -7.50968e-09)
(-2.15807e-08 -2.50198e-06 -7.85081e-09)
(-7.69208e-09 -2.50626e-06 -7.88146e-09)
(7.20269e-09 -2.50367e-06 -7.77304e-09)
(2.08504e-08 -2.49827e-06 -7.25421e-09)
(3.34792e-08 -2.48991e-06 -6.62152e-09)
(4.31384e-08 -2.47593e-06 -6.06874e-09)
(4.90452e-08 -2.45194e-06 -5.1964e-09)
(5.21324e-08 -2.4189e-06 -4.27711e-09)
(5.20883e-08 -2.37372e-06 -3.41528e-09)
(4.91585e-08 -2.31434e-06 -2.8735e-09)
(4.37833e-08 -2.23624e-06 -2.53269e-09)
(3.66079e-08 -2.13143e-06 -2.18508e-09)
(2.86257e-08 -1.99007e-06 -1.91098e-09)
(2.03578e-08 -1.79834e-06 -1.68046e-09)
(1.24428e-08 -1.53341e-06 -1.45718e-09)
(5.67403e-09 -1.15128e-06 -1.12675e-09)
(7.33316e-10 -5.56823e-07 -5.66791e-10)
(-2.03699e-09 -5.43912e-07 -2.01572e-09)
(-1.69976e-08 -1.12522e-06 -3.8181e-09)
(-3.76767e-08 -1.49902e-06 -4.64061e-09)
(-6.17063e-08 -1.75791e-06 -5.25768e-09)
(-8.68376e-08 -1.94483e-06 -5.97871e-09)
(-1.11089e-07 -2.08276e-06 -6.94673e-09)
(-1.32348e-07 -2.18544e-06 -8.2243e-09)
(-1.48619e-07 -2.26179e-06 -9.89036e-09)
(-1.5813e-07 -2.31798e-06 -1.19616e-08)
(-1.59199e-07 -2.35674e-06 -1.41333e-08)
(-1.50049e-07 -2.38353e-06 -1.65353e-08)
(-1.3061e-07 -2.40279e-06 -1.90745e-08)
(-1.02158e-07 -2.4159e-06 -2.12653e-08)
(-6.56398e-08 -2.42363e-06 -2.26628e-08)
(-2.29699e-08 -2.42662e-06 -2.32023e-08)
(2.19017e-08 -2.42334e-06 -2.2889e-08)
(6.42571e-08 -2.41936e-06 -2.18619e-08)
(1.02052e-07 -2.41376e-06 -2.02013e-08)
(1.31174e-07 -2.40213e-06 -1.83318e-08)
(1.50076e-07 -2.38212e-06 -1.59145e-08)
(1.59622e-07 -2.35442e-06 -1.36153e-08)
(1.58794e-07 -2.31468e-06 -1.1391e-08)
(1.48905e-07 -2.25892e-06 -9.47516e-09)
(1.32467e-07 -2.18334e-06 -7.87839e-09)
(1.11221e-07 -2.08179e-06 -6.57462e-09)
(8.72238e-08 -1.94466e-06 -5.60226e-09)
(6.21475e-08 -1.75808e-06 -4.86403e-09)
(3.80326e-08 -1.49953e-06 -4.28935e-09)
(1.73451e-08 -1.12592e-06 -3.52853e-09)
(2.18756e-09 -5.44099e-07 -1.90835e-09)
(-3.33034e-09 -5.18884e-07 -3.20791e-09)
(-2.75826e-08 -1.0743e-06 -5.99272e-09)
(-6.09992e-08 -1.43149e-06 -7.26284e-09)
(-9.99069e-08 -1.67824e-06 -8.20185e-09)
(-1.40459e-07 -1.85526e-06 -9.32983e-09)
(-1.79485e-07 -1.98455e-06 -1.08789e-08)
(-2.13777e-07 -2.07948e-06 -1.29427e-08)
(-2.40154e-07 -2.14833e-06 -1.5616e-08)
(-2.5552e-07 -2.19716e-06 -1.887e-08)
(-2.57075e-07 -2.22894e-06 -2.23031e-08)
(-2.42339e-07 -2.24771e-06 -2.58332e-08)
(-2.10693e-07 -2.25858e-06 -2.92307e-08)
(-1.64109e-07 -2.26528e-06 -3.23646e-08)
(-1.05055e-07 -2.2688e-06 -3.47209e-08)
(-3.67974e-08 -2.27023e-06 -3.59165e-08)
(3.49395e-08 -2.26766e-06 -3.56293e-08)
(1.03337e-07 -2.26622e-06 -3.42706e-08)
(1.64055e-07 -2.2654e-06 -3.19421e-08)
(2.11107e-07 -2.25906e-06 -2.90782e-08)
(2.42188e-07 -2.24662e-06 -2.558e-08)
(2.57415e-07 -2.22718e-06 -2.21179e-08)
(2.56347e-07 -2.19607e-06 -1.87153e-08)
(2.40825e-07 -2.14836e-06 -1.56814e-08)
(2.14364e-07 -2.08005e-06 -1.30097e-08)
(1.79911e-07 -1.98581e-06 -1.08656e-08)
(1.4071e-07 -1.85684e-06 -9.24614e-09)
(9.99895e-08 -1.67949e-06 -7.93666e-09)
(6.11815e-08 -1.43266e-06 -6.92582e-09)
(2.79144e-08 -1.07549e-06 -5.66754e-09)
(3.49135e-09 -5.18777e-07 -3.05385e-09)
(-4.43604e-09 -4.82774e-07 -4.23487e-09)
(-3.66567e-08 -1.001e-06 -7.90264e-09)
(-8.09198e-08 -1.33437e-06 -9.60817e-09)
(-1.32535e-07 -1.56417e-06 -1.08982e-08)
(-1.86359e-07 -1.72767e-06 -1.24041e-08)
(-2.38111e-07 -1.84493e-06 -1.44433e-08)
(-2.83439e-07 -1.92839e-06 -1.71208e-08)
(-3.18026e-07 -1.98611e-06 -2.04334e-08)
(-3.37843e-07 -2.0244e-06 -2.4358e-08)
(-3.39387e-07 -2.04734e-06 -2.86334e-08)
(-3.19865e-07 -2.05809e-06 -3.31522e-08)
(-2.78227e-07 -2.06022e-06 -3.73801e-08)
(-2.16089e-07 -2.05855e-06 -4.1068e-08)
(-1.37525e-07 -2.05654e-06 -4.40327e-08)
(-4.77018e-08 -2.05596e-06 -4.58096e-08)
(4.62078e-08 -2.05438e-06 -4.56668e-08)
(1.35971e-07 -2.05584e-06 -4.40002e-08)
(2.15884e-07 -2.06035e-06 -4.10251e-08)
(2.78305e-07 -2.06118e-06 -3.73417e-08)
(3.19552e-07 -2.05765e-06 -3.32035e-08)
(3.39232e-07 -2.04666e-06 -2.87197e-08)
(3.3825e-07 -2.02449e-06 -2.43104e-08)
(3.1856e-07 -1.98668e-06 -2.05378e-08)
(2.83981e-07 -1.92893e-06 -1.7334e-08)
(2.38603e-07 -1.84587e-06 -1.47544e-08)
(1.8683e-07 -1.7296e-06 -1.27372e-08)
(1.32927e-07 -1.56718e-06 -1.10765e-08)
(8.11401e-08 -1.33814e-06 -9.70845e-09)
(3.67063e-08 -1.00416e-06 -7.97306e-09)
(4.43459e-09 -4.82869e-07 -4.24007e-09)
(-5.22934e-09 -4.377e-07 -5.14047e-09)
(-4.37547e-08 -9.09767e-07 -9.60299e-09)
(-9.68433e-08 -1.21327e-06 -1.16165e-08)
(-1.58707e-07 -1.42162e-06 -1.31284e-08)
(-2.2304e-07 -1.56824e-06 -1.4859e-08)
(-2.84699e-07 -1.67117e-06 -1.71572e-08)
(-3.38408e-07 -1.74169e-06 -2.01007e-08)
(-3.79073e-07 -1.78736e-06 -2.37329e-08)
(-4.01961e-07 -1.81413e-06 -2.80699e-08)
(-4.0309e-07 -1.82653e-06 -3.28938e-08)
(-3.79519e-07 -1.82845e-06 -3.79954e-08)
(-3.30136e-07 -1.82308e-06 -4.28121e-08)
(-2.5624e-07 -1.81398e-06 -4.68361e-08)
(-1.62483e-07 -1.80539e-06 -4.99542e-08)
(-5.60055e-08 -1.80133e-06 -5.1981e-08)
(5.46986e-08 -1.80017e-06 -5.19518e-08)
(1.60806e-07 -1.80487e-06 -5.02483e-08)
(2.55303e-07 -1.81527e-06 -4.70992e-08)
(3.29518e-07 -1.82381e-06 -4.28389e-08)
(3.79062e-07 -1.8288e-06 -3.8048e-08)
(4.029e-07 -1.82676e-06 -3.29388e-08)
(4.02176e-07 -1.81454e-06 -2.80254e-08)
(3.79407e-07 -1.78797e-06 -2.37144e-08)
(3.38821e-07 -1.74238e-06 -2.00435e-08)
(2.85123e-07 -1.67212e-06 -1.71158e-08)
(2.23481e-07 -1.57001e-06 -1.49187e-08)
(1.59221e-07 -1.42483e-06 -1.31937e-08)
(9.73304e-08 -1.21752e-06 -1.16427e-08)
(4.40588e-08 -9.13185e-07 -9.60951e-09)
(5.29736e-09 -4.37718e-07 -5.12574e-09)
(-5.82274e-09 -3.85561e-07 -5.8197e-09)
(-4.8927e-08 -8.03953e-07 -1.08666e-08)
(-1.08416e-07 -1.07318e-06 -1.31014e-08)
(-1.77523e-07 -1.25732e-06 -1.46898e-08)
(-2.49284e-07 -1.38539e-06 -1.64447e-08)
(-3.17924e-07 -1.47302e-06 -1.87894e-08)
(-3.77441e-07 -1.5302e-06 -2.1859e-08)
(-4.22161e-07 -1.56385e-06 -2.56709e-08)
(-4.4685e-07 -1.57948e-06 -3.01752e-08)
(-4.47225e-07 -1.58169e-06 -3.51598e-08)
(-4.20396e-07 -1.57472e-06 -4.03503e-08)
(-3.65352e-07 -1.56255e-06 -4.52908e-08)
(-2.83441e-07 -1.54827e-06 -4.95229e-08)
(-1.79529e-07 -1.53475e-06 -5.26e-08)
(-6.18329e-08 -1.52714e-06 -5.44163e-08)
(6.02001e-08 -1.52613e-06 -5.42478e-08)
(1.77642e-07 -1.53351e-06 -5.26122e-08)
(2.82077e-07 -1.548e-06 -4.95383e-08)
(3.6441e-07 -1.56246e-06 -4.52037e-08)
(4.1975e-07 -1.57488e-06 -4.03362e-08)
(4.46878e-07 -1.58191e-06 -3.51686e-08)
(4.46831e-07 -1.57989e-06 -3.01673e-08)
(4.22334e-07 -1.56442e-06 -2.56706e-08)
(3.7778e-07 -1.53089e-06 -2.18341e-08)
(3.18383e-07 -1.47386e-06 -1.87711e-08)
(2.49795e-07 -1.38652e-06 -1.6477e-08)
(1.77974e-07 -1.2592e-06 -1.47636e-08)
(1.08685e-07 -1.07592e-06 -1.31752e-08)
(4.90391e-08 -8.06477e-07 -1.09096e-08)
(5.79772e-09 -3.85608e-07 -5.82392e-09)
(-6.1738e-09 -3.28915e-07 -6.17806e-09)
(-5.20207e-08 -6.8831e-07 -1.14751e-08)
(-1.15419e-07 -9.20673e-07 -1.38006e-08)
(-1.88898e-07 -1.07907e-06 -1.54547e-08)
(-2.65116e-07 -1.18776e-06 -1.72654e-08)
(-3.37869e-07 -1.25997e-06 -1.96259e-08)
(-4.00722e-07 -1.30428e-06 -2.26793e-08)
(-4.47615e-07 -1.32691e-06 -2.64468e-08)
(-4.73025e-07 -1.33289e-06 -3.08605e-08)
(-4.72539e-07 -1.32669e-06 -3.57099e-08)
(-4.43337e-07 -1.31253e-06 -4.06908e-08)
(-3.84633e-07 -1.29455e-06 -4.54161e-08)
(-2.9812e-07 -1.27604e-06 -4.95443e-08)
(-1.88804e-07 -1.25982e-06 -5.24621e-08)
(-6.50166e-08 -1.25032e-06 -5.40673e-08)
(6.32237e-08 -1.24979e-06 -5.39486e-08)
(1.86877e-07 -1.25911e-06 -5.2515e-08)
(2.96571e-07 -1.27597e-06 -4.95753e-08)
(3.83541e-07 -1.29466e-06 -4.54114e-08)
(4.42575e-07 -1.31277e-06 -4.07323e-08)
(4.72087e-07 -1.32697e-06 -3.57527e-08)
(4.72863e-07 -1.33331e-06 -3.08906e-08)
(4.47661e-07 -1.32746e-06 -2.64756e-08)
(4.0093e-07 -1.30496e-06 -2.2697e-08)
(3.38185e-07 -1.2608e-06 -1.96479e-08)
(2.65486e-07 -1.18878e-06 -1.7319e-08)
(1.89186e-07 -1.0804e-06 -1.56056e-08)
(1.15515e-07 -9.22521e-07 -1.40568e-08)
(5.20212e-08 -6.903e-07 -1.17075e-08)
(6.10742e-09 -3.28905e-07 -6.24386e-09)
(-6.28458e-09 -2.70029e-07 -6.31194e-09)
(-5.30386e-08 -5.68059e-07 -1.17224e-08)
(-1.17754e-07 -7.62271e-07 -1.40685e-08)
(-1.92835e-07 -8.94212e-07 -1.57048e-08)
(-2.70758e-07 -9.83413e-07 -1.74683e-08)
(-3.4508e-07 -1.0407e-06 -1.97342e-08)
(-4.09124e-07 -1.07328e-06 -2.26343e-08)
(-4.56635e-07 -1.08653e-06 -2.61956e-08)
(-4.81999e-07 -1.085e-06 -3.03417e-08)
(-4.80802e-07 -1.07282e-06 -3.48586e-08)
(-4.5031e-07 -1.05401e-06 -3.94581e-08)
(-3.89919e-07 -1.03242e-06 -4.38572e-08)
(-3.01808e-07 -1.01135e-06 -4.76663e-08)
(-1.91274e-07 -9.9421e-07 -5.03408e-08)
(-6.60068e-08 -9.8438e-07 -5.17478e-08)
(6.40064e-08 -9.84107e-07 -5.16951e-08)
(1.89153e-07 -9.93782e-07 -5.03965e-08)
(3.00199e-07 -1.01143e-06 -4.76462e-08)
(3.88872e-07 -1.03253e-06 -4.38254e-08)
(4.4954e-07 -1.05414e-06 -3.95006e-08)
(4.80273e-07 -1.07302e-06 -3.4913e-08)
(4.81735e-07 -1.08533e-06 -3.03867e-08)
(4.56585e-07 -1.08698e-06 -2.6237e-08)
(4.09226e-07 -1.07384e-06 -2.2665e-08)
(3.45273e-07 -1.04138e-06 -1.9764e-08)
(2.71007e-07 -9.84206e-07 -1.75103e-08)
(1.93052e-07 -8.95141e-07 -1.58012e-08)
(1.1787e-07 -7.63436e-07 -1.4258e-08)
(5.3066e-08 -5.69474e-07 -1.19018e-08)
(6.25441e-09 -2.69968e-07 -6.35497e-09)
(-6.19101e-09 -2.10966e-07 -6.1541e-09)
(-5.20732e-08 -4.47811e-07 -1.14592e-08)
(-1.15659e-07 -6.03759e-07 -1.3783e-08)
(-1.89745e-07 -7.09448e-07 -1.53604e-08)
(-2.66854e-07 -7.79753e-07 -1.70172e-08)
(-3.40505e-07 -8.23152e-07 -1.91161e-08)
(-4.03953e-07 -8.45503e-07 -2.17946e-08)
(-4.50882e-07 -8.51339e-07 -2.507e-08)
(-4.75714e-07 -8.4462e-07 -2.88639e-08)
(-4.74102e-07 -8.29021e-07 -3.29719e-08)
(-4.43412e-07 -8.08154e-07 -3.71534e-08)
(-3.83292e-07 -7.85402e-07 -4.11624e-08)
(-2.9642e-07 -7.64126e-07 -4.45667e-08)
(-1.87973e-07 -7.47719e-07 -4.69559e-08)
(-6.49596e-08 -7.38596e-07 -4.82089e-08)
(6.29703e-08 -7.38236e-07 -4.81719e-08)
(1.85755e-07 -7.47157e-07 -4.6948e-08)
(2.9477e-07 -7.64051e-07 -4.44934e-08)
(3.82212e-07 -7.85378e-07 -4.10806e-08)
(4.42582e-07 -8.08184e-07 -3.71609e-08)
(4.73487e-07 -8.29153e-07 -3.30204e-08)
(4.75362e-07 -8.44869e-07 -2.89078e-08)
(4.5076e-07 -8.51692e-07 -2.51102e-08)
(4.03983e-07 -8.45937e-07 -2.18237e-08)
(3.40628e-07 -8.23666e-07 -1.91427e-08)
(2.67042e-07 -7.80346e-07 -1.70446e-08)
(1.89942e-07 -7.10118e-07 -1.5403e-08)
(1.15813e-07 -6.04525e-07 -1.38717e-08)
(5.20882e-08 -4.48731e-07 -1.15873e-08)
(6.15244e-09 -2.1103e-07 -6.19702e-09)
(-5.82915e-09 -1.54172e-07 -5.73151e-09)
(-4.90162e-08 -3.32182e-07 -1.07247e-08)
(-1.09219e-07 -4.51102e-07 -1.29074e-08)
(-1.79905e-07 -5.31487e-07 -1.43302e-08)
(-2.53945e-07 -5.83895e-07 -1.58137e-08)
(-3.25006e-07 -6.14666e-07 -1.76913e-08)
(-3.86401e-07 -6.28396e-07 -2.01067e-08)
(-4.31849e-07 -6.2877e-07 -2.30513e-08)
(-4.55898e-07 -6.19072e-07 -2.64592e-08)
(-4.54348e-07 -6.02421e-07 -3.01349e-08)
(-4.24643e-07 -5.81834e-07 -3.39128e-08)
(-3.66688e-07 -5.60222e-07 -3.74921e-08)
(-2.83475e-07 -5.4069e-07 -4.05188e-08)
(-1.79735e-07 -5.25889e-07 -4.26601e-08)
(-6.2161e-08 -5.17866e-07 -4.38221e-08)
(6.02239e-08 -5.17522e-07 -4.37829e-08)