/*--------------------------------*- C++ -*----------------------------------*\
| =========                 |                                                 |
| \\      /  F ield         | OpenFOAM: The Open Source CFD Toolbox           |
|  \\    /   O peration     | Version:  v1906                                 |
|   \\  /    A nd           | Web:      www.OpenFOAM.com                      |
|    \\/     M anipulation  |                                                 |
\*---------------------------------------------------------------------------*/
FoamFile
{
    version     2.0;
    format      ascii;
    class       surfaceScalarField;
    location    "53";
    object      phi;
}
// * * * * * * * * * * * * * * * * * * * * * * * * * * * * * * * * * * * * * //

dimensions      [1 0 -1 0 0 0 0];
oriented        oriented;


internalField   nonuniform List<scalar> 
228225
(
-5.26714e-08
-4.83808e-08
8.3227e-08
4.77342e-08
-2.67976e-07
1.66798e-07
3.60827e-07
-5.08728e-07
1.95035e-07
8.71962e-07
-7.10168e-07
1.98664e-07
1.53302e-06
-8.53482e-07
1.92209e-07
2.2922e-06
-9.41044e-07
1.81744e-07
3.10328e-06
-9.80532e-07
1.69392e-07
3.92691e-06
-9.7945e-07
1.55827e-07
4.73023e-06
-9.44521e-07
1.4126e-07
5.48605e-06
-8.81393e-07
1.25694e-07
6.1719e-06
-7.94761e-07
1.09088e-07
6.76937e-06
-6.8865e-07
9.14154e-08
7.26372e-06
-5.66737e-07
7.26713e-08
7.64385e-06
-4.32651e-07
5.28529e-08
7.9026e-06
-2.90296e-07
3.19243e-08
8.03777e-06
-1.4448e-07
9.73659e-09
8.05571e-06
-5.91234e-09
-1.15684e-08
7.93751e-06
1.5143e-07
-3.27343e-08
7.70605e-06
2.86967e-07
-5.49886e-08
7.38237e-06
4.02181e-07
-7.79775e-08
6.99181e-06
4.92421e-07
-1.01353e-07
6.5634e-06
5.53507e-07
-1.24615e-07
6.12768e-06
5.83223e-07
-1.47073e-07
5.71373e-06
5.82252e-07
-1.67954e-07
5.34647e-06
5.54171e-07
-1.86625e-07
5.04396e-06
5.05541e-07
-2.02812e-07
4.81453e-06
4.46245e-07
-2.16676e-07
4.65226e-06
3.91037e-07
-2.28675e-07
4.52927e-06
3.62211e-07
-2.39182e-07
4.38308e-06
3.93998e-07
-2.47804e-07
4.10075e-06
5.34441e-07
-2.52148e-07
3.51892e-06
8.2758e-07
-2.45858e-07
2.4886e-06
1.24714e-06
-2.17126e-07
1.08451e-06
1.55634e-06
-1.5306e-07
1.1384e-06
-5.55549e-08
3.39044e-08
-1.4277e-07
6.03985e-08
8.72341e-08
-4.58742e-07
1.37371e-07
1.75232e-07
-7.75068e-07
1.78138e-07
3.18379e-07
-1.05181e-06
1.9825e-07
5.28538e-07
-1.27116e-06
2.07314e-07
8.08953e-07
-1.4322e-06
2.10572e-07
1.15481e-06
-1.53705e-06
2.10507e-07
1.55645e-06
-1.58953e-06
2.08313e-07
2.00135e-06
-1.59407e-06
2.04541e-07
2.47554e-06
-1.55506e-06
1.99419e-07
2.96445e-06
-1.47672e-06
1.93033e-07
3.45362e-06
-1.36317e-06
1.85405e-07
3.92897e-06
-1.21851e-06
1.76527e-07
4.37695e-06
-1.04683e-06
1.66363e-07
4.78446e-06
-8.5243e-07
1.54844e-07
5.13731e-06
-6.38982e-07
1.41926e-07
5.41549e-06
-4.11278e-07
1.27502e-07
5.63277e-06
-1.76972e-07
1.1149e-07
5.77208e-06
5.43564e-08
9.36926e-08
5.83426e-06
2.6651e-07
7.39036e-08
5.81695e-06
4.58242e-07
5.19064e-08
5.72175e-06
6.21689e-07
2.74361e-08
5.5552e-06
7.50807e-07
-6.35893e-10
5.32294e-06
8.41125e-07
-2.62547e-08
5.0418e-06
8.90892e-07
-5.52675e-08
4.73125e-06
9.0291e-07
-8.65659e-08
4.41004e-06
8.8763e-07
-1.19988e-07
4.08902e-06
8.67767e-07
-1.5558e-07
3.76066e-06
8.83831e-07
-1.93189e-07
3.38832e-06
9.97415e-07
-2.31053e-07
2.90268e-06
1.2828e-06
-2.6276e-07
2.22833e-06
1.77594e-06
-2.74176e-07
1.36369e-06
2.35804e-06
-2.46694e-07
4.853e-07
2.60511e-06
-1.71334e-07
1.68265e-06
-6.07431e-08
7.79305e-08
-2.70631e-07
4.9758e-08
2.10549e-07
-7.059e-07
1.14515e-07
3.61729e-07
-1.08066e-06
1.5427e-07
5.33204e-07
-1.4033e-06
1.79789e-07
7.33997e-07
-1.66898e-06
1.96769e-07
9.66501e-07
-1.87337e-06
2.08435e-07
1.23152e-06
-2.01897e-06
2.167e-07
1.52847e-06
-2.10927e-06
2.22621e-07
1.85387e-06
-2.14642e-06
2.26795e-07
2.20253e-06
-2.13342e-06
2.29554e-07
2.56847e-06
-2.07387e-06
2.31076e-07
2.94541e-06
-1.97166e-06
2.31446e-07
3.32702e-06
-1.83089e-06
2.30696e-07
3.70706e-06
-1.65573e-06
2.2882e-07
4.07837e-06
-1.44954e-06
2.25791e-07
4.43118e-06
-1.21337e-06
2.216e-07
4.75348e-06
-9.49651e-07
2.1614e-07
5.03352e-06
-6.66095e-07
2.09179e-07
5.26044e-06
-3.72872e-07
2.00454e-07
5.41918e-06
-8.17642e-08
1.89694e-07
5.50237e-06
1.98451e-07
1.7679e-07
5.50472e-06
4.5782e-07
1.61718e-07
5.42488e-06
6.86515e-07
1.44346e-07
5.26319e-06
8.78619e-07
1.24399e-07
5.02125e-06
1.03159e-06
1.01431e-07
4.70413e-06
1.14554e-06
7.46486e-08
4.321e-06
1.22831e-06
4.25709e-08
3.88616e-06
1.30173e-06
9.56793e-10
3.40273e-06
1.40986e-06
-4.25831e-08
2.87221e-06
1.62592e-06
-9.80384e-08
2.27793e-06
2.03388e-06
-1.56954e-07
1.60967e-06
2.64352e-06
-1.99627e-07
9.11112e-07
3.25551e-06
-1.99542e-07
3.0154e-07
3.35764e-06
-1.44119e-07
2.03182e-06
-4.95995e-08
7.82977e-08
-3.99035e-07
4.9961e-08
2.89523e-07
-1.03392e-06
1.16728e-07
6.01815e-07
-1.55244e-06
1.59475e-07
9.85193e-07
-1.97379e-06
1.87107e-07
1.41132e-06
-2.2998e-06
2.04664e-07
1.85475e-06
-2.53246e-06
2.15611e-07
2.29934e-06
-2.68618e-06
2.2258e-07
2.73634e-06
-2.77341e-06
2.27104e-07
3.1604e-06
-2.80049e-06
2.30004e-07
3.56787e-06
-2.77269e-06
2.3182e-07
3.95626e-06
-2.69513e-06
2.32887e-07
4.3239e-06
-2.57268e-06
2.33408e-07
4.66956e-06
-2.41003e-06
2.335e-07
4.99239e-06
-2.21176e-06
2.3322e-07
5.28998e-06
-1.97975e-06
2.32652e-07
5.55791e-06
-1.71311e-06
2.31837e-07
5.79147e-06
-1.41383e-06
2.30661e-07
5.98436e-06
-1.08781e-06
2.28868e-07
6.12814e-06
-7.42756e-07
2.26167e-07
6.21205e-06
-3.87851e-07
2.22234e-07
6.22926e-06
-3.54411e-08
2.16756e-07
6.1674e-06
3.1035e-07
2.09407e-07
6.02354e-06
6.30562e-07
1.99885e-07
5.79589e-06
9.18336e-07
1.88001e-07
5.48475e-06
1.16935e-06
1.73448e-07
5.09251e-06
1.38239e-06
1.55437e-07
4.62375e-06
1.56461e-06
1.32499e-07
4.08597e-06
1.7373e-06
1.02203e-07
3.49007e-06
1.94493e-06
6.07822e-08
2.85132e-06
2.26235e-06
2.19528e-09
2.17465e-06
2.7693e-06
-5.89966e-08
1.48141e-06
3.45155e-06
-1.15232e-07
8.20573e-07
4.05102e-06
-1.35461e-07
2.70052e-07
4.01012e-06
-1.03286e-07
2.33378e-06
-3.40253e-08
7.94487e-08
-5.25254e-07
4.66617e-08
2.91975e-07
-1.35398e-06
1.07448e-07
6.03351e-07
-2.00973e-06
1.45849e-07
9.8029e-07
-2.52121e-06
1.70448e-07
1.39285e-06
-2.89853e-06
1.86158e-07
1.81965e-06
-3.15544e-06
1.96149e-07
2.24637e-06
-3.31548e-06
2.02531e-07
2.66617e-06
-3.39997e-06
2.0671e-07
3.07576e-06
-3.41945e-06
2.09326e-07
3.47232e-06
-3.38005e-06
2.10774e-07
3.85326e-06
-3.28742e-06
2.11335e-07
4.21623e-06
-3.14687e-06
2.11222e-07
4.55911e-06
-2.9635e-06
2.10605e-07
4.87811e-06
-2.74038e-06
2.0964e-07
5.16708e-06
-2.47724e-06
2.08546e-07
5.42063e-06
-2.1742e-06
2.0757e-07
5.63483e-06
-1.83478e-06
2.06799e-07
5.80569e-06
-1.46482e-06
2.06204e-07
5.92867e-06
-1.07134e-06
2.05667e-07
5.99808e-06
-6.62173e-07
2.04971e-07
6.00485e-06
-2.4596e-07
2.0381e-07
5.94597e-06
1.67487e-07
2.018e-07
5.81106e-06
5.67059e-07
1.98475e-07
5.59458e-06
9.41523e-07
1.93335e-07
5.2963e-06
1.28188e-06
1.85781e-07
4.9186e-06
1.58509e-06
1.75014e-07
4.46459e-06
1.85877e-06
1.59829e-07
3.93739e-06
2.12627e-06
1.382e-07
3.34222e-06
2.43373e-06
1.0628e-07
2.69175e-06
2.8535e-06
5.9156e-08
2.01172e-06
3.45256e-06
-3.53774e-09
1.33251e-06
4.18847e-06
-5.82454e-08
7.16582e-07
4.75251e-06
-8.64509e-08
2.26641e-07
4.56868e-06
-7.00443e-08
2.58008e-06
-2.18741e-08
8.3054e-08
-6.54014e-07
4.56434e-08
3.12447e-07
-1.68802e-06
1.04555e-07
6.51152e-07
-2.49022e-06
1.41711e-07
1.05856e-06
-3.09418e-06
1.65495e-07
1.49864e-06
-3.51935e-06
1.80695e-07
1.9464e-06
-3.79358e-06
1.90344e-07
2.38681e-06
-3.95229e-06
1.96375e-07
2.81326e-06
-4.02662e-06
2.00194e-07
3.22238e-06
-4.03101e-06
2.0243e-07
3.61165e-06
-3.97278e-06
2.03448e-07
3.97916e-06
-3.85851e-06
2.03555e-07
4.32356e-06
-3.69426e-06
2.02975e-07
4.64286e-06
-3.48468e-06
2.01888e-07
4.93207e-06
-3.23012e-06
2.00544e-07
5.18501e-06
-2.9293e-06
1.99151e-07
5.39785e-06
-2.58484e-06
1.97839e-07
5.56819e-06
-2.2018e-06
1.96709e-07
5.69423e-06
-1.78665e-06
1.95825e-07
5.77431e-06
-1.3466e-06
1.95211e-07
5.80647e-06
-8.89125e-07
1.94825e-07
5.78801e-06
-4.21997e-07
1.94541e-07
5.71648e-06
4.49259e-08
1.94123e-07
5.58273e-06
5.07634e-07
1.93204e-07
5.38246e-06
9.50524e-07
1.913e-07
5.11042e-06
1.36614e-06
1.87794e-07
4.76297e-06
1.75062e-06
1.81909e-07
4.33825e-06
2.11089e-06
1.72567e-07
3.83581e-06
2.47086e-06
1.57789e-07
3.2583e-06
2.87739e-06
1.33723e-07
2.61722e-06
3.39881e-06
9.55562e-08
1.93987e-06
4.08686e-06
4.26842e-08
1.27324e-06
4.86717e-06
-1.26646e-08
6.79886e-07
5.38887e-06
-4.39722e-08
2.13065e-07
5.0741e-06
-4.00941e-08
2.802e-06
-1.11325e-08
9.60457e-08
-7.90849e-07
4.07342e-08
3.4012e-07
-2.02417e-06
9.19814e-08
6.8371e-07
-2.95727e-06
1.23419e-07
1.08247e-06
-3.63595e-06
1.42964e-07
1.50038e-06
-4.09233e-06
1.55026e-07
1.91593e-06
-4.3714e-06
1.62236e-07
2.31997e-06
-4.52252e-06
1.66162e-07
2.70922e-06
-4.58377e-06
1.67886e-07
3.08165e-06
-4.57147e-06
1.68036e-07
3.43568e-06
-4.49388e-06
1.67081e-07
3.77002e-06
-4.3583e-06
1.65463e-07
4.083e-06
-4.17075e-06
1.63526e-07
4.37003e-06
-3.93325e-06
1.61573e-07
4.62456e-06
-3.64447e-06
1.59834e-07
4.84203e-06
-3.30528e-06
1.58539e-07
5.01937e-06
-2.91996e-06
1.57828e-07
5.1547e-06
-2.49488e-06
1.57794e-07
5.24722e-06
-2.0376e-06
1.58478e-07
5.29682e-06
-1.55602e-06
1.59872e-07
5.30357e-06
-1.05774e-06
1.61914e-07
5.26701e-06
-5.49859e-07
1.6447e-07
5.18385e-06
-3.9176e-08
1.673e-07
5.05525e-06
4.66222e-07
1.70042e-07
4.8748e-06
9.58795e-07
1.72199e-07
4.6365e-06
1.43128e-06
1.73158e-07
4.33371e-06
1.88122e-06
1.72175e-07
3.95994e-06
2.31644e-06
1.6818e-07
3.50987e-06
2.7617e-06
1.59157e-07
2.98184e-06
3.26369e-06
1.41593e-07
2.38461e-06
3.88459e-06
1.1122e-07
1.74714e-06
4.6568e-06
6.71439e-08
1.12519e-06
5.47056e-06
1.79318e-08
5.85089e-07
5.94268e-06
-1.46975e-08
1.74669e-07
5.50193e-06
-1.89082e-08
2.97871e-06
-4.30973e-09
8.80263e-08
-9.15007e-07
3.60432e-08
3.13564e-07
-2.33138e-06
8.16105e-08
6.29293e-07
-3.3832e-06
1.10134e-07
9.92427e-07
-4.12751e-06
1.28403e-07
1.3706e-06
-4.61045e-06
1.3992e-07
1.7463e-06
-4.89381e-06
1.46667e-07
2.11311e-06
-5.03921e-06
1.49843e-07
2.46857e-06
-5.08965e-06
1.50386e-07
2.8111e-06
-5.06305e-06
1.49021e-07
3.13945e-06
-4.96856e-06
1.46336e-07
3.45242e-06
-4.81412e-06
1.42862e-07
3.74654e-06
-4.60391e-06
1.39056e-07
4.015e-06
-4.33692e-06
1.3523e-07
4.25165e-06
-4.01278e-06
1.3169e-07
4.45228e-06
-3.63458e-06
1.28695e-07
4.614e-06
-3.20812e-06
1.26465e-07
4.73521e-06
-2.74123e-06
1.25173e-07
4.81546e-06
-2.24278e-06
1.24955e-07
4.85519e-06
-1.72163e-06
1.25913e-07
4.85529e-06
-1.1859e-06
1.28095e-07
4.8166e-06
-6.42612e-07
1.31485e-07
4.73945e-06
-9.79344e-08
1.35937e-07
4.62221e-06
4.42331e-07
1.41148e-07
4.46195e-06
9.72424e-07
1.46637e-07
4.25325e-06
1.48825e-06
1.51733e-07
3.98844e-06
1.99046e-06
1.55538e-07
3.65841e-06
2.48965e-06
1.56763e-07
3.25421e-06
3.01248e-06
1.53336e-07
2.77079e-06
3.60502e-06
1.41948e-07
2.21509e-06
4.32138e-06
1.18668e-07
1.61693e-06
5.17219e-06
8.23707e-08
1.03535e-06
6.01152e-06
3.99875e-08
5.3375e-07
6.43597e-06
7.32814e-09
1.57387e-07
5.88023e-06
-3.43143e-09
3.13361e-06
2.32965e-10
8.67475e-08
-1.03276e-06
3.08937e-08
2.99388e-07
-2.61481e-06
7.07375e-08
5.90585e-07
-3.77082e-06
9.63736e-08
9.21506e-07
-4.57164e-06
1.13162e-07
1.26397e-06
-5.07669e-06
1.23751e-07
1.60376e-06
-5.36331e-06
1.29682e-07
1.93647e-06
-5.50393e-06
1.31981e-07
2.26014e-06
-5.54486e-06
1.31519e-07
2.57367e-06
-5.50573e-06
1.29142e-07
2.87613e-06
-5.39651e-06
1.2548e-07
3.16528e-06
-5.22432e-06
1.21062e-07
3.43578e-06
-4.99066e-06
1.16266e-07
3.68166e-06
-4.6942e-06
1.11427e-07
3.89837e-06
-4.33633e-06
1.06867e-07
4.0821e-06
-3.92117e-06
1.02884e-07
4.23004e-06
-3.45573e-06
9.97157e-08
4.34046e-06
-2.94916e-06
9.75456e-08
4.41271e-06
-2.41151e-06
9.65272e-08
4.44705e-06
-1.85272e-06
9.6799e-08
4.44437e-06
-1.28166e-06
9.84711e-08
4.4058e-06
-7.05627e-07
1.01616e-07
4.33207e-06
-1.30409e-07
1.06226e-07
4.22327e-06
4.38988e-07
1.12163e-07
4.07741e-06
9.99182e-07
1.19107e-07
3.88993e-06
1.54921e-06
1.26501e-07
3.65324e-06
2.09365e-06
1.33475e-07
3.35709e-06
2.64704e-06
1.38696e-07
2.99062e-06
3.23881e-06
1.40048e-07
2.54697e-06
3.91423e-06
1.34292e-07
2.03233e-06
4.71815e-06
1.17637e-07
1.47714e-06
5.63835e-06
8.86449e-08
9.40742e-07
6.49465e-06
5.26336e-08
4.79457e-07
6.87363e-06
2.26589e-08
1.39202e-07
6.2112e-06
7.84249e-09
3.26664e-06
3.96869e-09
7.66503e-08
-1.13686e-06
2.73329e-08
2.67844e-07
-2.86977e-06
6.36888e-08
5.31824e-07
-4.12278e-06
8.79231e-08
8.33263e-07
-4.9774e-06
1.0428e-07
1.14679e-06
-5.50509e-06
1.14827e-07
1.45966e-06
-5.79706e-06
1.20833e-07
1.7676e-06
-5.9351e-06
1.23205e-07
2.06836e-06
-5.96838e-06
1.22731e-07
2.36116e-06
-5.91882e-06
1.20279e-07
2.6449e-06
-5.79672e-06
1.16462e-07
2.91598e-06
-5.60714e-06
1.11738e-07
3.16925e-06
-5.35036e-06
1.06432e-07
3.40053e-06
-5.02639e-06
1.00912e-07
3.60592e-06
-4.63718e-06
9.54839e-08
3.78198e-06
-4.18763e-06
9.04279e-08
3.9259e-06
-3.68567e-06
8.60414e-08
4.03561e-06
-3.14141e-06
8.25792e-08
4.10981e-06
-2.56592e-06
8.02388e-08
4.14807e-06
-1.97011e-06
7.91664e-08
4.15061e-06
-1.36367e-06
7.95166e-08
4.11815e-06
-7.54572e-07
8.14322e-08
4.05159e-06
-1.48856e-07
8.50247e-08
3.9511e-06
4.49179e-07
9.03085e-08
3.81566e-06
1.03748e-06
9.71418e-08
3.64173e-06
1.61797e-06
1.05152e-07
3.42244e-06
2.19928e-06
1.13626e-07
3.14771e-06
2.80039e-06
1.21326e-07
2.80623e-06
3.45403e-06
1.26184e-07
2.39063e-06
4.20467e-06
1.25011e-07
1.90689e-06
5.08763e-06
1.14022e-07
1.38522e-06
6.06827e-06
9.13639e-08
8.83015e-07
6.93535e-06
6.0893e-08
4.49868e-07
7.27269e-06
3.31483e-08
1.31187e-07
6.51249e-06
1.59894e-08
3.38938e-06
6.30037e-09
7.46474e-08
-1.23574e-06
2.41499e-08
2.56666e-07
-3.10911e-06
5.72233e-08
5.05935e-07
-4.45194e-06
7.98403e-08
7.8964e-07
-5.35652e-06
9.53704e-08
1.08429e-06
-5.90528e-06
1.05499e-07
1.37831e-06
-6.20248e-06
1.11354e-07
1.66771e-06
-6.33835e-06
1.1381e-07
1.95046e-06
-6.36477e-06
1.13622e-07
2.22545e-06
-6.30539e-06
1.11562e-07
2.49078e-06
-6.17028e-06
1.08227e-07
2.74288e-06
-5.96321e-06
1.03979e-07
2.97807e-06
-5.6847e-06
9.91658e-08
3.1928e-06
-5.33517e-06
9.40634e-08
3.38375e-06
-4.91701e-06
8.89044e-08
3.54805e-06
-4.4358e-06
8.39044e-08
3.68334e-06
-3.90023e-06
7.93023e-08
3.78773e-06
-3.32109e-06
7.53357e-08
3.85977e-06
-2.71015e-06
7.2226e-08
3.89859e-06
-2.07901e-06
7.01229e-08
3.90384e-06
-1.43807e-06
6.91836e-08
3.87562e-06
-7.95939e-07
6.9608e-08
3.81427e-06
-1.59079e-07
7.15958e-08
3.71994e-06
4.68217e-07
7.53084e-08
3.59179e-06
1.08482e-06
8.08062e-08
3.4269e-06
1.69488e-06
8.79661e-08
3.2192e-06
2.31061e-06
9.63457e-08
2.95934e-06
2.95524e-06
1.04958e-07
2.63651e-06
3.66484e-06
1.11931e-07
2.2437e-06
4.48313e-06
1.14208e-07
1.78708e-06
5.43605e-06
1.07983e-07
1.2962e-06
6.46788e-06
9.09153e-08
8.25379e-07
7.34008e-06
6.5493e-08
4.18855e-07
7.63827e-06
4.00547e-08
1.21677e-07
6.78686e-06
2.14683e-08
3.50116e-06
7.82257e-09
6.98103e-08
-1.32773e-06
2.21025e-08
2.42144e-07
-3.33464e-06
5.31148e-08
4.79202e-07
-4.76382e-06
7.47413e-08
7.49223e-07
-5.71639e-06
8.97893e-08
1.02965e-06
-6.28546e-06
9.97117e-08
1.30954e-06
-6.58796e-06
1.05539e-07
1.58512e-06
-6.72207e-06
1.08108e-07
1.85451e-06
-6.74237e-06
1.08179e-07
2.11586e-06
-6.67321e-06
1.06444e-07
2.36683e-06
-6.52472e-06
1.03461e-07
2.60441e-06
-6.30042e-06
9.96321e-08
2.8254e-06
-6.00095e-06
9.52758e-08
3.02671e-06
-5.62706e-06
9.0604e-08
3.20561e-06
-5.18168e-06
8.57964e-08
3.35984e-06
-4.67105e-06
8.10382e-08
3.48756e-06
-4.10445e-06
7.65239e-08
3.58721e-06
-3.49317e-06
7.24539e-08
3.65746e-06
-2.84938e-06
6.90245e-08
3.69719e-06
-2.18509e-06
6.63779e-08
3.70562e-06
-1.51113e-06
6.46548e-08
3.68221e-06
-8.36556e-07
6.40492e-08
3.62665e-06
-1.68272e-07
6.47724e-08
3.53855e-06
4.89293e-07
6.70343e-08
3.41693e-06
1.13544e-06
7.10086e-08
3.25913e-06
1.77591e-06
7.67631e-08
3.05976e-06
2.42582e-06
8.41248e-08
2.81041e-06
3.11211e-06
9.24308e-08
2.50126e-06
3.87376e-06
1.00146e-07
2.1262e-06
4.75357e-06
1.04504e-07
1.6917e-06
5.76854e-06
1.01796e-07
1.22639e-06
6.84357e-06
8.92683e-08
7.81178e-07
7.71657e-06
6.8179e-08
3.95988e-07
7.97769e-06
4.49318e-08
1.15087e-07
7.04098e-06
2.54994e-08
3.60527e-06
8.9743e-09
6.98652e-08
-1.41794e-06
2.02588e-08
2.39389e-07
-3.55344e-06
4.92058e-08
4.7028e-07
-5.06441e-06
6.96433e-08
7.31232e-07
-6.06135e-06
8.39628e-08
1.00055e-06
-6.64828e-06
9.34636e-08
1.2682e-06
-6.95478e-06
9.91296e-08
1.53084e-06
-7.08653e-06
1.01785e-07
1.78671e-06
-7.10045e-06
1.02174e-07
2.03389e-06
-7.02134e-06
1.00945e-07
2.26997e-06
-6.85939e-06
9.85914e-08
2.49219e-06
-6.6181e-06
9.54698e-08
2.69767e-06
-6.29828e-06
9.18491e-08
2.88384e-06
-5.9011e-06
8.78997e-08
3.04859e-06
-5.43016e-06
8.37513e-08
3.19035e-06
-4.89233e-06
7.95528e-08
3.3079e-06
-4.29742e-06
7.54572e-08
3.40017e-06
-3.65703e-06
7.16216e-08
3.46609e-06
-2.98348e-06
6.82028e-08
3.50458e-06
-2.28886e-06
6.53226e-08
3.51452e-06
-1.58415e-06
6.31072e-08
3.49487e-06
-8.78612e-07
6.17366e-08
3.44458e-06
-1.79386e-07
6.14211e-08
3.36262e-06
5.08869e-07
6.23909e-08
3.24755e-06
1.18562e-06
6.48813e-08
3.09666e-06
1.8577e-06
6.90882e-08
2.90498e-06
2.54243e-06
7.50505e-08
2.66499e-06
3.26966e-06
8.24096e-08
2.36805e-06
4.08062e-06
9.00077e-08
2.0092e-06
5.01685e-06
9.54605e-08
1.59546e-06
6.08683e-06
9.52732e-08
1.15455e-06
7.19777e-06
8.64068e-08
7.34021e-07
8.06754e-06
6.90589e-08
3.70327e-07
8.29267e-06
4.79295e-08
1.06846e-07
7.27511e-06
2.81451e-08
3.70052e-06
9.66114e-09
6.79416e-08
-1.50515e-06
1.91561e-08
2.33186e-07
-3.76558e-06
4.68204e-08
4.57611e-07
-5.35538e-06
6.64924e-08
7.09867e-07
-6.39397e-06
8.03203e-08
9.6886e-07
-6.99683e-06
8.95169e-08
1.22532e-06
-7.30631e-06
9.50325e-08
1.47625e-06
-7.43516e-06
9.76775e-08
1.71994e-06
-7.44235e-06
9.81935e-08
1.95444e-06
-7.35307e-06
9.72189e-08
2.17739e-06
-7.17757e-06
9.52284e-08
2.38612e-06
-6.91938e-06
9.25565e-08
2.57802e-06
-6.57962e-06
8.94484e-08
2.75092e-06
-6.16004e-06
8.60557e-08
2.90323e-06
-5.66494e-06
8.24846e-08
3.03395e-06
-5.10188e-06
7.88558e-08
3.14239e-06
-4.48111e-06
7.52879e-08
3.22793e-06
-3.81443e-06
7.18958e-08
3.28982e-06
-3.11413e-06
6.87903e-08
3.32708e-06
-2.39215e-06
6.60559e-08
3.33847e-06
-1.6593e-06
6.37814e-08
3.32255e-06
-9.2477e-07
6.21033e-08
3.2777e-06
-1.95719e-07
6.11951e-08
3.20222e-06
5.23094e-07
6.12657e-08
3.09408e-06
1.2312e-06
6.25587e-08
2.95031e-06
1.93613e-06
6.5332e-08
2.76614e-06
2.6568e-06
6.97697e-08
2.53478e-06
3.42522e-06
7.57666e-08
2.24875e-06
4.28404e-06
8.25379e-08
1.90435e-06
5.27302e-06
8.81457e-08
1.50926e-06
6.39233e-06
8.94366e-08
1.09038e-06
7.53313e-06
8.32623e-08
6.92078e-07
8.39642e-06
6.89635e-08
3.47849e-07
8.58643e-06
4.97506e-08
9.98104e-08
7.49209e-06
2.99126e-08
3.78837e-06
1.00933e-08
6.80572e-08
-1.59148e-06
1.81766e-08
2.31169e-07
-3.97332e-06
4.45506e-08
4.50412e-07
-5.63801e-06
6.33405e-08
6.94608e-07
-6.71474e-06
7.65353e-08
9.43512e-07
-7.33109e-06
8.53152e-08
1.18878e-06
-7.64225e-06
9.06368e-08
1.42783e-06
-7.76754e-06
9.33041e-08
1.65908e-06
-7.76765e-06
9.40299e-08
1.88063e-06
-7.66803e-06
9.34085e-08
2.09015e-06
-7.47897e-06
9.18723e-08
2.28518e-06
-7.20412e-06
8.97245e-08
2.46338e-06
-6.84499e-06
8.71852e-08
2.62297e-06
-6.404e-06
8.43898e-08
2.76286e-06
-5.88624e-06
8.14282e-08
2.88253e-06
-5.29992e-06
7.83972e-08
2.98176e-06
-4.6557e-06
7.53866e-08
3.06035e-06
-3.96547e-06
7.24787e-08
3.11785e-06
-3.24134e-06
6.975e-08
3.15341e-06
-2.49494e-06
6.72579e-08
3.16575e-06
-1.73667e-06
6.5064e-08
3.15312e-06
-9.7539e-07
6.32699e-08
3.11342e-06
-2.18027e-07
6.20138e-08
3.04433e-06
5.30714e-07
6.14742e-08
2.94323e-06
1.27042e-06
6.1878e-08
2.80675e-06
2.0091e-06
6.34977e-08
2.63019e-06
2.76676e-06
6.65911e-08
2.40732e-06
3.57683e-06
7.12234e-08
2.13181e-06
4.4826e-06
7.69122e-08
1.80121e-06
5.52141e-06
8.21442e-08
1.42397e-06
6.68528e-06
8.417e-08
1.02629e-06
7.8507e-06
7.98905e-08
6.49617e-07
8.70468e-06
6.80189e-08
3.24759e-07
8.8601e-06
5.05195e-08
9.24022e-08
7.69246e-06
3.08982e-08
3.86865e-06
1.03086e-08
6.65642e-08
-1.67582e-06
1.76916e-08
2.25738e-07
-4.17587e-06
4.33005e-08
4.3858e-07
-5.91239e-06
6.14777e-08
6.74109e-07
-7.02447e-06
7.41634e-08
9.1286e-07
-7.65243e-06
8.25564e-08
1.14726e-06
-7.96432e-06
8.76371e-08
1.37506e-06
-8.08558e-06
9.02164e-08
1.59473e-06
-8.07834e-06
9.10026e-08
1.80435e-06
-7.96824e-06
9.05715e-08
2.00168e-06
-7.76563e-06
8.93327e-08
2.18438e-06
-7.47438e-06
8.75701e-08
2.35038e-06
-7.09646e-06
8.54872e-08
2.49827e-06
-6.63507e-06
8.32087e-08
2.62735e-06
-6.0961e-06
8.08136e-08
2.7375e-06
-5.48843e-06
7.83776e-08
2.8289e-06
-4.82303e-06
7.59641e-08
2.90167e-06
-4.11183e-06
7.36233e-08
2.95561e-06
-3.36665e-06
7.13959e-08
2.99003e-06
-2.59863e-06
6.93067e-08
3.00361e-06
-1.81761e-06
6.7383e-08
2.99443e-06
-1.03188e-06
6.56843e-08
2.96001e-06
-2.47899e-07
6.43062e-08
2.89746e-06
5.29879e-07
6.33882e-08
2.80358e-06
1.30117e-06
6.31279e-08
2.67458e-06
2.0743e-06
6.37896e-08
2.50568e-06
2.86998e-06
6.56649e-08
2.2911e-06
3.72245e-06
6.89312e-08
2.02549e-06
4.67484e-06
7.33423e-08
1.70765e-06
5.76144e-06
7.77652e-08
1.34681e-06
6.96616e-06
7.98761e-08
9.68617e-07
8.15196e-06
7.675e-08
6.11767e-07
8.99449e-06
6.66851e-08
3.04621e-07
9.116e-06
5.06359e-08
8.61981e-08
7.87846e-06
3.13869e-08
3.94266e-06
1.04232e-08
6.57994e-08
-1.759e-06
1.72984e-08
2.21531e-07
-4.37381e-06
4.2128e-08
4.28042e-07
-6.17854e-06
5.9587e-08
6.54836e-07
-7.32295e-06
7.16474e-08
8.83392e-07
-7.9606e-06
7.95783e-08
1.10693e-06
-8.27229e-06
8.44037e-08
1.32349e-06
-8.3891e-06
8.6929e-08
1.53162e-06
-8.37431e-06
8.78298e-08
1.72945e-06
-8.25371e-06
8.76421e-08
1.91481e-06
-8.03774e-06
8.67427e-08
2.08557e-06
-7.73051e-06
8.53936e-08
2.23994e-06
-7.33459e-06
8.37829e-08
2.37684e-06
-6.85398e-06
8.20259e-08
2.49594e-06
-6.29537e-06
8.0192e-08
2.59747e-06
-5.66827e-06
7.83389e-08
2.68189e-06
-4.98393e-06
7.65078e-08
2.74957e-06
-4.2542e-06
7.47244e-08
2.80052e-06
-3.49058e-06
7.30035e-08
2.83414e-06
-2.70357e-06
7.13458e-08
2.84909e-06
-1.9023e-06
6.9753e-08
2.8433e-06
-1.09432e-06
6.82508e-08
2.81393e-06
-2.85425e-07
6.68981e-08
2.75765e-06
5.20373e-07
6.57961e-08
2.6707e-06
1.323e-06
6.5107e-08
2.54891e-06
2.13102e-06
6.50691e-08
2.3874e-06
2.96551e-06
6.59734e-08
2.18078e-06
3.861e-06
6.80528e-08
1.9246e-06
4.85979e-06
7.12216e-08
1.6188e-06
5.99255e-06
7.46538e-08
1.27343e-06
7.23504e-06
7.64289e-08
9.13645e-07
8.43773e-06
7.3881e-08
5.75589e-07
9.26714e-06
6.50907e-08
2.85368e-07
9.35541e-06
5.02396e-08
8.02636e-08
8.05111e-06
3.14717e-08
4.01075e-06
1.04549e-08
6.40552e-08
-1.84035e-06
1.72001e-08
2.15286e-07
-4.56664e-06
4.15359e-08
4.14916e-07
-6.4366e-06
5.8386e-08
6.32961e-07
-7.61087e-06
6.98422e-08
8.51739e-07
-8.25669e-06
7.72875e-08
1.0651e-06
-8.56749e-06
8.18033e-08
1.2713e-06
-8.67951e-06
8.41993e-08
1.46888e-06
-8.65704e-06
8.51322e-08
1.65601e-06
-8.52595e-06
8.51093e-08
1.83061e-06
-8.29681e-06
8.44825e-08
1.99068e-06
-7.97407e-06
8.3496e-08
2.13473e-06
-7.56094e-06
8.23255e-08
2.26197e-06
-7.06227e-06
8.10775e-08
2.37238e-06
-6.48557e-06
7.98118e-08
2.46648e-06
-5.8409e-06
7.85677e-08
2.54496e-06
-5.13975e-06
7.73642e-08
2.60842e-06
-4.39384e-06
7.62015e-08
2.65704e-06
-3.61423e-06
7.50659e-08
2.6903e-06
-2.81074e-06
7.39309e-08
2.7069e-06
-1.99165e-06
7.27685e-08
2.70462e-06
-1.16358e-06
7.15688e-08
2.68035e-06
-3.315e-07
7.03515e-08
2.63029e-06
5.01251e-07
6.91794e-08
2.5502e-06
1.33491e-06
6.818e-08
2.43547e-06
2.17817e-06
6.75654e-08
2.28109e-06
3.05227e-06
6.76177e-08
2.08201e-06
3.99148e-06
6.85997e-08
1.83455e-06
5.03671e-06
7.05373e-08
1.53978e-06
6.21447e-06
7.28461e-08
1.20848e-06
7.49235e-06
7.39638e-08
8.65366e-07
8.70921e-06
7.15229e-08
5.44228e-07
9.52447e-06
6.35379e-08
2.69104e-07
9.58039e-06
4.96268e-08
7.54811e-08
8.2124e-06
3.1377e-08
4.07405e-06
1.04935e-08
6.27099e-08
-1.92027e-06
1.71159e-08
2.0976e-07
-4.75462e-06
4.0862e-08
4.02728e-07
-6.68659e-06
5.69685e-08
6.12309e-07
-7.8882e-06
6.77094e-08
8.21696e-07
-8.54072e-06
7.46082e-08
1.02533e-06
-8.84995e-06
7.87998e-08
1.22164e-06
-8.95692e-06
8.10784e-08
1.40921e-06
-8.92668e-06
8.20616e-08
1.58623e-06
-8.78519e-06
8.2218e-08
1.75073e-06
-8.54317e-06
8.18714e-08
1.90092e-06
-8.20549e-06
8.12481e-08
2.03551e-06
-7.77603e-06
8.05127e-08
2.15402e-06
-7.26052e-06
7.97648e-08
2.25666e-06
-6.66725e-06
7.90556e-08
2.34417e-06
-6.00679e-06
7.84093e-08
2.41745e-06
-5.29082e-06
7.78271e-08
2.47725e-06
-4.5309e-06
7.72896e-08
2.52387e-06
-3.73758e-06
7.67619e-08
2.5569e-06
-2.91994e-06
7.61959e-08
2.57503e-06
-2.0853e-06
7.5539e-08
2.57596e-06
-1.23925e-06
7.47495e-08
2.55636e-06
-3.85702e-07
7.38088e-08
2.51205e-06
4.72826e-07
7.27373e-08
2.43832e-06
1.33702e-06
7.16198e-08
2.33019e-06
2.21566e-06
7.06319e-08
2.18252e-06
3.12989e-06
7.00328e-08
1.99053e-06
4.11339e-06
7.0092e-08
1.75126e-06
5.20508e-06
7.09065e-08
1.46675e-06
6.42692e-06
7.20766e-08
1.14848e-06
7.73827e-06
7.23511e-08
8.20788e-07
8.96715e-06
6.96767e-08
5.15274e-07
9.76763e-06
6.21207e-08
2.54116e-07
9.79213e-06
4.89215e-08
7.10737e-08
8.36333e-06
3.11984e-08
4.1329e-06
1.05661e-08
6.08906e-08
-1.99842e-06
1.71738e-08
2.03399e-07
-4.93765e-06
4.04497e-08
3.89764e-07
-6.92884e-06
5.58447e-08
5.91331e-07
-8.15566e-06
6.58675e-08
7.92053e-07
-8.81367e-06
7.22015e-08
9.86843e-07
-9.12081e-06
7.60368e-08
1.17424e-06
-9.22249e-06
7.81547e-08
1.35282e-06
-9.18441e-06
7.91402e-08
1.52082e-06
-9.03262e-06
7.94287e-08
1.67635e-06
-8.77801e-06
7.93201e-08
1.81777e-06
-8.42592e-06
7.90257e-08
1.94402e-06
-7.98096e-06
7.87003e-08
2.05483e-06
-7.44974e-06
7.84372e-08
2.15065e-06
-6.84132e-06
7.828e-08
2.23239e-06
-6.16674e-06
7.82385e-08
2.30112e-06
-5.43782e-06
7.82966e-08
2.35774e-06
-4.66591e-06
7.84153e-08
2.40268e-06
-3.86104e-06
7.85377e-08
2.43563e-06
-3.03146e-06
7.8593e-08
2.45533e-06
-2.18348e-06
7.85032e-08
2.45941e-06
-1.32151e-06
7.81953e-08
2.44434e-06
-4.48239e-07
7.76131e-08
2.40557e-06
4.34858e-07
7.67344e-08
2.33795e-06
1.32904e-06
7.56008e-08
2.23612e-06
2.24315e-06
7.43499e-08
2.09478e-06
3.19802e-06
7.32153e-08
1.90939e-06
4.22633e-06
7.24638e-08
1.67765e-06
5.36461e-06
7.22405e-08
1.40247e-06
6.62985e-06
7.22862e-08
1.09595e-06
7.97321e-06
7.16068e-08
7.82096e-07
9.2125e-06
6.84528e-08
4.90486e-07
9.99801e-06
6.1024e-08
2.41628e-07
9.9922e-06
4.83272e-08
6.75794e-08
8.50539e-06
3.10965e-08
4.18811e-06
1.07372e-08
5.93948e-08
-2.07508e-06
1.71701e-08
1.97848e-07
-5.11599e-06
3.98126e-08
3.78171e-07
-7.16356e-06
5.43533e-08
5.72388e-07
-8.41348e-06
6.35657e-08
7.65193e-07
-9.0758e-06
6.9294e-08
9.51924e-07
-9.38033e-06
7.2766e-08
1.13121e-06
-9.47652e-06
7.4729e-08
1.30165e-06
-9.43058e-06
7.57209e-08
1.46149e-06
-9.2686e-06
7.61383e-08
1.60896e-06
-9.00172e-06
7.62564e-08
1.74254e-06
-8.63575e-06
7.62714e-08
1.86135e-06
-8.17608e-06
7.63297e-08
1.96531e-06
-7.6302e-06
7.65211e-08
2.05503e-06
-7.00788e-06
7.68843e-08
2.13154e-06
-6.32064e-06
7.74193e-08
2.19607e-06
-5.58041e-06
7.80979e-08
2.24963e-06
-4.79831e-06
7.88676e-08
2.29278e-06
-3.98382e-06
7.96559e-08
2.32535e-06
-3.14438e-06
8.03745e-08
2.34613e-06
-2.28517e-06
8.09237e-08
2.35276e-06
-1.40932e-06
8.12016e-08
2.34158e-06
-5.18167e-07
8.11136e-08
2.30775e-06
3.88099e-07
8.05899e-08
2.24571e-06
1.31146e-06
7.96191e-08
2.14972e-06
2.26085e-06
7.82892e-08
2.01433e-06
3.25661e-06
7.67963e-08
1.83517e-06
4.33013e-06
7.53939e-08
1.61048e-06
5.51508e-06
7.42587e-08
1.34395e-06
6.82318e-06
7.32436e-08
1.04824e-06
8.19738e-06
7.15769e-08
7.47003e-07
9.44593e-06
6.77979e-08
4.68001e-07
1.02166e-05
6.02803e-08
2.3029e-07
1.01816e-05
4.79126e-08
6.43816e-08
8.63931e-06
3.11172e-08
4.2399e-06
1.09855e-08
5.76915e-08
-2.15008e-06
1.72173e-08
1.92074e-07
-5.28971e-06
3.92721e-08
3.6668e-07
-7.3912e-06
5.29823e-08
5.54154e-07
-8.66239e-06
6.13994e-08
7.3983e-07
-9.32803e-06
6.65268e-08
9.19389e-07
-9.62954e-06
6.96248e-08
1.09152e-06
-9.72008e-06
7.14079e-08
1.2548e-06
-9.66624e-06
7.23714e-08
1.40752e-06
-9.49419e-06
7.2878e-08
1.54795e-06
-9.21532e-06
7.31808e-08
1.67472e-06
-8.83596e-06
7.34634e-08
1.78706e-06
-8.36227e-06
7.38647e-08
1.88504e-06
-7.80262e-06
7.44719e-08
1.96939e-06
-7.16751e-06
7.53202e-08
2.04126e-06
-6.46889e-06
7.64012e-08
2.102e-06
-5.71879e-06
7.76766e-08
2.15274e-06
-4.9281e-06
7.90814e-08
2.19419e-06
-4.10577e-06
8.05291e-08
2.22629e-06
-3.25836e-06
8.19157e-08
2.24793e-06
-2.38992e-06
8.31222e-08
2.25678e-06
-1.50218e-06
8.40215e-08
2.2491e-06
-5.94958e-07
8.44845e-08
2.21979e-06
3.33017e-07
8.43964e-08
2.16291e-06
1.28465e-06
8.36924e-08
2.07238e-06
2.26898e-06
8.24061e-08
1.94256e-06
3.30575e-06
8.06888e-08
1.76919e-06
4.42475e-06
7.8771e-08
1.55102e-06
5.65645e-06
7.68455e-08
1.29241e-06
7.00702e-06
7.48516e-08
1.00646e-06
8.41119e-06
7.22052e-08
7.16496e-07
9.66818e-06
6.77129e-08
4.48669e-07
1.04243e-05
5.99477e-08
2.20767e-07
1.03613e-05
4.77483e-08
6.18107e-08
8.76614e-06
3.12789e-08
4.28882e-06
1.12927e-08
5.62914e-08
-2.22362e-06
1.71644e-08
1.87155e-07
-5.45909e-06
3.84504e-08
3.56753e-07
-7.61204e-06
5.12006e-08
5.38322e-07
-8.90274e-06
5.87515e-08
7.17779e-07
-9.57078e-06
6.32549e-08
8.91102e-07
-9.86887e-06
6.59823e-08
1.05702e-06
-9.9536e-06
6.75947e-08
1.2141e-06
-9.89186e-06
6.85334e-08
1.36065e-06
-9.70987e-06
6.91224e-08
1.49501e-06
-9.41927e-06
6.95924e-08
1.61588e-06
-9.02693e-06
7.01141e-08
1.72261e-06
-8.53979e-06
7.08204e-08
1.81533e-06
-7.96711e-06
7.17983e-08
1.89484e-06
-7.32008e-06
7.30833e-08
1.96242e-06
-6.6111e-06
7.46636e-08
2.01947e-06
-5.8523e-06
7.64962e-08
2.06728e-06
-5.05438e-06
7.85098e-08
2.10667e-06
-4.22575e-06
8.06094e-08
2.13776e-06
-3.3721e-06
8.26799e-08
2.15957e-06
-2.4963e-06
8.45867e-08
2.16986e-06
-1.59863e-06
8.61793e-08
2.16487e-06
-6.77256e-07
8.72955e-08
2.13935e-06
2.70769e-07
8.77737e-08
2.08704e-06
1.24948e-06
8.74897e-08
2.0015e-06
2.26812e-06
8.64132e-08
1.87689e-06
3.34574e-06
8.46404e-08
1.709e-06
4.51031e-06
8.23691e-08
1.49696e-06
5.78876e-06
7.97981e-08
1.24568e-06
7.18144e-06
7.69369e-08
9.68681e-07
8.61491e-06
7.33637e-08
6.88943e-07
9.87981e-06
6.81287e-08
4.31231e-07
1.06218e-05
6.00093e-08
2.12155e-07
1.05321e-05
4.78429e-08
5.94606e-08
8.88641e-06
3.15896e-08
4.33505e-06
1.16561e-08
5.47958e-08
-2.29562e-06
1.71145e-08
1.82238e-07
-5.62425e-06
3.76511e-08
3.47209e-07
-7.82653e-06
4.94751e-08
5.23482e-07