/*--------------------------------*- C++ -*----------------------------------*\
| =========                 |                                                 |
| \\      /  F ield         | OpenFOAM: The Open Source CFD Toolbox           |
|  \\    /   O peration     | Version:  v1906                                 |
|   \\  /    A nd           | Web:      www.OpenFOAM.com                      |
|    \\/     M anipulation  |                                                 |
\*---------------------------------------------------------------------------*/
FoamFile
{
    version     2.0;
    format      ascii;
    class       surfaceScalarField;
    location    "14";
    object      phi;
}
// * * * * * * * * * * * * * * * * * * * * * * * * * * * * * * * * * * * * * //

dimensions      [1 0 -1 0 0 0 0];
oriented        oriented;


internalField   nonuniform List<scalar> 
228225
(
0.000219599
-3.93017e-05
0.000848537
5.21665e-05
-3.80105e-05
0.000100637
3.0606e-05
-1.98149e-05
2.27949e-05
4.20919e-05
-2.32909e-05
6.44621e-06
5.37691e-05
-1.68484e-05
2.11182e-06
6.52387e-05
-1.29641e-05
4.6798e-07
7.49471e-05
-9.74942e-06
-2.83631e-07
8.23483e-05
-7.56176e-06
-1.72119e-07
8.75877e-05
-5.70091e-06
-6.74065e-08
9.12418e-05
-3.81879e-06
-4.2325e-07
9.38082e-05
-1.57622e-06
-1.53328e-06
9.46823e-05
1.0662e-06
-2.35839e-06
9.43145e-05
2.97618e-06
-2.91027e-06
9.30222e-05
4.31159e-06
-3.25537e-06
9.09916e-05
5.24309e-06
-3.42591e-06
8.83515e-05
5.91701e-06
-3.4966e-06
8.51336e-05
6.45162e-06
-3.48098e-06
8.12628e-05
6.95507e-06
-3.36747e-06
7.65969e-05
7.50238e-06
-3.14841e-06
7.09886e-05
8.09681e-06
-2.81474e-06
6.43581e-05
8.67221e-06
-2.36681e-06
5.6743e-05
9.13352e-06
-1.82929e-06
4.83245e-05
9.3842e-06
-1.24997e-06
3.93903e-05
9.34096e-06
-6.47437e-07
3.01908e-05
8.9474e-06
8.46959e-08
2.09082e-05
8.17355e-06
1.03174e-06
1.19135e-05
6.97423e-06
2.03157e-06
3.65113e-06
5.20577e-06
3.16248e-06
-3.17417e-06
2.69698e-06
4.3406e-06
-7.94456e-06
-3.65351e-07
5.45694e-06
-9.5904e-06
-4.49481e-06
6.49443e-06
-8.77793e-06
-7.92547e-06
7.39571e-06
-6.51445e-06
-9.89427e-06
7.85791e-06
-3.4866e-06
-1.03674e-05
7.54791e-06
-8.61265e-06
5.29857e-06
-3.75443e-05
-1.23666e-05
3.82276e-05
-4.54203e-06
-3.5858e-05
-3.36238e-05
4.12451e-05
-3.24308e-05
-3.34424e-05
7.48437e-05
-2.50105e-05
-3.24876e-05
0.00010882
-2.35195e-05
-2.78609e-05
0.000136225
-1.98721e-05
-2.13036e-05
0.000154834
-1.6291e-05
-1.33706e-05
0.000164733
-1.33732e-05
-6.07475e-06
0.000169981
-1.01172e-05
-3.5829e-06
0.000174187
-6.32772e-06
-4.92811e-06
0.000178089
-1.9194e-06
-6.75792e-06
0.000183017
1.58037e-06
-8.34027e-06
0.000188074
4.94401e-06
-9.59257e-06
0.000192771
7.84998e-06
-1.05256e-05
0.000196837
1.03036e-05
-1.11715e-05
0.000200084
1.24517e-05
-1.15449e-05
0.000202423
1.44192e-05
-1.16855e-05
0.000203797
1.62935e-05
-1.15921e-05
0.000204069
1.8108e-05
-1.12216e-05
0.000203087
1.98091e-05
-1.06124e-05
0.000200787
2.126e-05
-9.85014e-06
0.000197228
2.23042e-05
-9.0038e-06
0.000192623
2.28246e-05
-8.17975e-06
0.000187196
2.2777e-05
-7.38996e-06
0.000181039
2.22092e-05
-6.57209e-06
0.00017398
2.12798e-05
-5.63012e-06
0.000165433
2.02471e-05
-4.43027e-06
0.000154709
1.92911e-05
-3.17296e-06
0.000141119
1.83969e-05
-2.01439e-06
0.00012423
1.75164e-05
-9.72837e-07
0.000103087
1.66965e-05
-7.76025e-08
7.80496e-05
1.60335e-05
1.0396e-06
5.07377e-05
1.56419e-05
1.76123e-06
2.3046e-05
1.54767e-05
1.87776e-06
1.41466e-05
2.57019e-07
-5.60704e-06
-2.24759e-05
1.7161e-05
-2.88498e-05
-3.90403e-05
2.62067e-05
-4.20854e-05
-3.96966e-05
2.12582e-05
-4.55672e-05
-3.70014e-05
1.65856e-05
-4.68056e-05
-3.48567e-05
1.37703e-05
-4.32964e-05
-3.1562e-05
9.51603e-06
-3.63072e-05
-2.75766e-05
5.27043e-06
-2.73745e-05
-2.41321e-05
2.47069e-06
-1.65066e-05
-2.036e-05
-3.13648e-07
-4.36815e-06
-1.63812e-05
-1.9374e-06
9.30905e-06
-1.23373e-05
-3.20309e-06
2.33011e-05
-8.28857e-06
-4.11361e-06
3.70283e-05
-4.15525e-06
-4.64227e-06
4.97552e-05
-9.20557e-08
-4.80169e-06
6.12384e-05
3.41774e-06
-4.58077e-06
7.08929e-05
6.91795e-06
-4.03955e-06
7.84756e-05
1.04217e-05
-3.40817e-06
8.41401e-05
1.3864e-05
-2.93467e-06
8.82888e-05
1.70954e-05
-2.7072e-06
9.13436e-05
1.99498e-05
-2.66021e-06
9.3587e-05
2.23582e-05
-2.73715e-06
9.51854e-05
2.43383e-05
-2.99667e-06
9.6328e-05
2.59323e-05
-3.61337e-06
9.73408e-05
2.7148e-05
-4.7689e-06
9.84907e-05
2.79797e-05
-6.35312e-06
9.9563e-05
2.84879e-05
-7.80094e-06
9.94748e-05
2.88693e-05
-8.18542e-06
9.66416e-05
2.93359e-05
-6.98569e-06
9.02954e-05
2.99486e-05
-5.05638e-06
8.02793e-05
3.06752e-05
-3.02336e-06
6.67678e-05
3.1422e-05
-1.08366e-06
5.02446e-05
3.20403e-05
6.84698e-07
3.17717e-05
3.21716e-05
2.12246e-06
1.34239e-05
3.10748e-05
2.88759e-06
2.53607e-05
2.25665e-06
1.17189e-05
-2.46138e-05
-9.40842e-06
2.66037e-05
-3.58501e-05
-1.73701e-05
4.02521e-05
-3.62966e-05
-1.6404e-05
5.22092e-05
-3.41955e-05
-1.42125e-05
6.11817e-05
-3.10058e-05
-1.23027e-05
6.79997e-05
-2.74277e-05
-1.04898e-05
7.33e-05
-2.37208e-05
-8.65701e-06
7.66235e-05
-1.98556e-05
-7.03688e-06
7.85341e-05
-1.60023e-05
-5.6694e-06
7.96581e-05
-1.22738e-05
-4.66869e-06
8.06185e-05
-8.68047e-06
-4.14639e-06
8.19406e-05
-5.20949e-06
-4.05308e-06
8.40048e-05
-1.85351e-06
-4.14508e-06
8.57065e-05
2.67073e-06
-4.36592e-06
8.69754e-05
6.83568e-06
-4.65987e-06
8.81616e-05
1.06851e-05
-4.95258e-06
8.94216e-05
1.44427e-05
-5.27142e-06
9.08557e-05
1.81653e-05
-5.68396e-06
9.25288e-05
2.18118e-05
-6.2701e-06
9.4356e-05
2.52339e-05
-6.91536e-06
9.60846e-05
2.8167e-05
-7.27343e-06
9.75164e-05
3.04243e-05
-7.21133e-06
9.84378e-05
3.20497e-05
-6.7152e-06
9.85623e-05
3.32281e-05
-5.88597e-06
9.7609e-05
3.41833e-05
-4.95107e-06
9.53974e-05
3.51177e-05
-4.15662e-06
9.18787e-05
3.61572e-05
-3.55735e-06
8.70711e-05
3.73607e-05
-3.05679e-06
8.08754e-05
3.87485e-05
-2.48504e-06
7.30069e-05
4.031e-05
-1.66641e-06
6.30267e-05
4.19758e-05
-4.60819e-07
5.00712e-05
4.35714e-05
1.58785e-06
3.43016e-05
4.46771e-05
3.49068e-06
1.64925e-05
4.46501e-05
4.50871e-06
3.87324e-05
3.34697e-06
1.28524e-05
-4.03209e-05
3.19188e-06
1.55137e-05
-4.7551e-05
9.32727e-06
1.443e-05
-4.46362e-05
9.59178e-06
1.18658e-05
-4.01545e-05
8.60593e-06
8.74067e-06
-3.54052e-05
7.52427e-06
5.72161e-06
-3.08799e-05
6.40527e-06
3.29127e-06
-2.65873e-05
5.21105e-06
1.75174e-06
-2.24467e-05
4.06556e-06
1.10502e-06
-1.84658e-05
3.08248e-06
1.22742e-06
-1.46992e-05
2.30838e-06
1.96814e-06
-1.11234e-05
1.7268e-06
3.07917e-06
-7.59564e-06
1.30565e-06
3.99199e-06
-3.77605e-06
1.0359e-06
5.5639e-06
2.11488e-07
8.96618e-07
8.40805e-06
3.17911e-06
8.09359e-07
1.18772e-05
6.42009e-06
7.85786e-07
1.56164e-05
9.90768e-06
7.89302e-07
1.93725e-05
1.36684e-05
7.50949e-07
2.28676e-05
1.77642e-05
5.89526e-07
2.57028e-05
2.22623e-05
2.01847e-07
2.73982e-05
2.69616e-05
-3.99317e-07
2.76156e-05
3.13473e-05
-1.0222e-06
2.65343e-05
3.4961e-05
-1.68001e-06
2.45695e-05
3.76635e-05
-2.28703e-06
2.21829e-05
3.95839e-05
-2.79859e-06
1.97528e-05
4.09857e-05
-3.19423e-06
1.75246e-05
4.21194e-05
-3.46535e-06
1.56248e-05
4.31608e-05
-3.60667e-06
1.40787e-05
4.42168e-05
-3.5989e-06
1.27815e-05
4.53406e-05
-3.37103e-06
1.13695e-05
4.65435e-05
-2.74482e-06
9.23343e-06
4.77357e-05
-1.56886e-06
5.97017e-06
4.84186e-05
9.46179e-09
1.75536e-06
4.73184e-05
2.02844e-06
3.90676e-05
1.78107e-06
-2.96444e-06
-3.48371e-05
-2.26869e-06
-4.81324e-06
-3.9222e-05
-6.14943e-06
-5.21367e-06
-3.6227e-05
-7.72844e-06
-4.8877e-06
-3.17621e-05
-8.53317e-06
-3.82218e-06
-2.74315e-05
-8.95054e-06
-2.13458e-06
-2.37359e-05
-8.80229e-06
-2.92879e-07
-2.02326e-05
-8.21325e-06
1.36857e-06
-1.67659e-05
-7.40192e-06
2.72451e-06
-1.33715e-05
-6.54081e-06
3.80613e-06
-1.01621e-05
-5.72357e-06
4.70904e-06
-7.15369e-06
-4.97743e-06
5.58124e-06
-4.26511e-06
-4.2982e-06
6.96019e-06
-1.56637e-06
-3.66849e-06
8.80223e-06
1.38691e-06
-3.07814e-06
1.02212e-05
4.26422e-06
-2.54464e-06
1.15384e-05
7.11819e-06
-2.03511e-06
1.29187e-05
1.0062e-05
-1.53199e-06
1.45419e-05
1.31194e-05
-1.04477e-06
1.65883e-05
1.63824e-05
-6.0006e-07
1.91331e-05
2.00601e-05
-2.31001e-07
2.1924e-05
2.43062e-05
3.75259e-08
2.43993e-05
2.8926e-05
1.93574e-07
2.62365e-05
3.34022e-05
4.61834e-08
2.73208e-05
3.72204e-05
-2.46547e-07
2.78063e-05
4.01714e-05
-6.21606e-07
2.79644e-05
4.2377e-05
-1.05473e-06
2.79744e-05
4.40923e-05
-1.45443e-06
2.78659e-05
4.55607e-05
-1.73471e-06
2.75201e-05
4.6992e-05
-1.8488e-06
2.66351e-05
4.85734e-05
-1.75214e-06
2.47371e-05
5.042e-05
-1.38912e-06
2.13707e-05
5.23586e-05
-7.12236e-07
1.61288e-05
5.37152e-05
4.02836e-07
8.59106e-06
5.34825e-05
1.73329e-06
4.6279e-05
1.62361e-06
-9.69205e-06
-3.10618e-05
5.61482e-06
-2.18832e-05
-3.7586e-05
1.01092e-05
-3.2127e-05
-3.68723e-05
1.04266e-05
-3.84788e-05
-3.51514e-05
9.37765e-06
-4.0554e-05
-3.30309e-05
7.48569e-06
-3.95241e-05
-3.02223e-05
5.4016e-06
-3.66448e-05
-2.65747e-05
3.46842e-06
-3.26156e-05
-2.25099e-05
1.72752e-06
-2.7795e-05
-1.83517e-05
1.59032e-07
-2.27672e-05
-1.42907e-05
-9.08246e-07
-1.78757e-05
-1.03074e-05
-1.75612e-06
-1.35798e-05
-6.15433e-06
-2.43995e-06
-1.05276e-05
-1.69542e-06
-2.97327e-06
-7.88114e-06
2.01951e-06
-3.34197e-06
-5.31494e-06
5.19018e-06
-3.56435e-06
-2.82639e-06
8.22061e-06
-3.6691e-06
-4.16607e-07
1.12393e-05
-3.66923e-06
1.8909e-06
1.43022e-05
-3.57521e-06
4.17448e-06
1.74117e-05
-3.39843e-06
6.67679e-06
2.0627e-05
-3.15071e-06
9.63959e-06
2.41332e-05
-2.8567e-06
1.29986e-05
2.81095e-05
-2.57472e-06
1.63552e-05
3.24541e-05
-2.37826e-06
1.9265e-05
3.67196e-05
-2.29318e-06
2.14565e-05
4.04716e-05
-2.2874e-06
2.2811e-05
4.36154e-05
-2.31801e-06
2.32601e-05
4.63199e-05
-2.3588e-06
2.27384e-05
4.88085e-05
-2.39587e-06
2.11939e-05
5.12573e-05
-2.40925e-06
1.86277e-05
5.37549e-05
-2.34632e-06
1.51469e-05
5.62226e-05
-2.09815e-06
1.09662e-05
5.82628e-05
-1.51847e-06
6.32352e-06
5.91502e-05
-5.77665e-07
1.50928e-06
5.77348e-05
7.35414e-07
4.65927e-05
1.14629e-06
-4.21404e-06
-2.62213e-05
-9.07843e-07
-2.5242e-06
-3.66873e-05
-2.98048e-06
1.4728e-06
-3.85896e-05
-2.6658e-06
6.13159e-06
-3.84507e-05
-1.744e-06
1.05593e-05
-3.69144e-05
-9.27855e-07
1.42627e-05
-3.38163e-05
-4.50806e-07
1.73838e-05
-2.97387e-05
-1.84131e-07
1.98923e-05
-2.51225e-05
7.29799e-09
2.13535e-05
-2.01001e-05
2.93358e-07
2.15805e-05
-1.50372e-05
5.82876e-07
2.1078e-05
-1.0484e-05
7.56894e-07
2.09704e-05
-6.66861e-06
6.90646e-07
2.22303e-05
-3.27446e-06
3.68572e-07
2.44767e-05
-1.08781e-07
-9.32286e-08
2.63469e-05
3.74454e-06
-4.22527e-07
2.79306e-05
7.37364e-06
-7.54917e-07
2.9306e-05
1.08754e-05
-1.04918e-06
3.05121e-05
1.43092e-05
-1.27273e-06
3.14363e-05
1.78013e-05
-1.40179e-06
3.18696e-05
2.14947e-05
-1.42695e-06
3.16063e-05
2.55732e-05
-1.35338e-06
3.04852e-05
3.02011e-05
-1.20783e-06
2.84189e-05
3.52801e-05
-1.05298e-06
2.54792e-05
4.03057e-05
-9.64261e-07
2.19225e-05
4.47001e-05
-9.65048e-07
1.80198e-05
4.83103e-05
-1.02312e-06
1.39433e-05
5.13414e-05
-1.10166e-06
9.82407e-06
5.40207e-05
-1.17871e-06
5.86695e-06
5.64412e-05
-1.24282e-06
2.41415e-06
5.85509e-05
-1.27558e-06
-1.32727e-07
6.0176e-05
-1.22748e-06
-1.59998e-06
6.10474e-05
-1.00664e-06
-2.2752e-06
6.07659e-05
-5.19189e-07
-2.31662e-06
5.8021e-05
2.38902e-07
4.39843e-05
6.06667e-07
8.41829e-07
-3.13795e-05
4.26449e-06
-1.3816e-06
-4.14086e-05
6.99016e-06
-4.55017e-06
-4.22867e-05
6.95744e-06
-7.53966e-06
-4.18274e-05
6.45834e-06
-9.47212e-06
-4.06722e-05
5.74152e-06
-9.64325e-06
-3.85935e-05
4.93358e-06
-7.82184e-06
-3.58731e-05
4.26895e-06
-4.25926e-06
-3.24281e-05
3.70926e-06
2.26247e-07
-2.77026e-05
3.13118e-06
4.20288e-06
-2.14581e-05
2.51631e-06
6.28228e-06
-1.4395e-05
1.92729e-06
6.2218e-06
-7.96991e-06
1.44121e-06
4.90165e-06
-2.97237e-06
1.06955e-06
3.19515e-06
8.51378e-07
7.71231e-07
2.34693e-06
4.09346e-06
5.00969e-07
1.62585e-06
7.8831e-06
1.9975e-07
5.96048e-07
1.20337e-05
-1.35671e-07
-6.39549e-07
1.59513e-05
-3.88025e-07
-1.68347e-06
1.94646e-05
-5.66553e-07
-2.37275e-06
2.28898e-05
-6.22582e-07
-2.79959e-06
2.66411e-05
-5.39979e-07
-3.18647e-06
3.10257e-05
-3.45757e-07
-3.79498e-06
3.60587e-05
-1.32599e-07
-4.91071e-06
4.13281e-05
3.49534e-08
-6.57693e-06
4.61827e-05
2.76853e-08
-8.54735e-06
5.01983e-05
-1.21485e-07
-1.04347e-05
5.33132e-05
-2.63515e-07
-1.17617e-05
5.56591e-05
-3.99689e-07
-1.21465e-05
5.73955e-05
-5.15805e-07
-1.1392e-05
5.86459e-05
-6.23028e-07
-9.55745e-06
5.94785e-05
-7.31842e-07
-6.94709e-06
5.98098e-05
-8.09236e-07
-4.0016e-06
5.92522e-05
-7.45759e-07
-1.2782e-06
5.65021e-05
-4.21889e-07
4.34843e-05
-4.66888e-08
1.92733e-06
-3.16605e-05
-1.55082e-06
4.85808e-06
-4.19554e-05
-2.26516e-06
7.54198e-06
-4.3208e-05
-1.62921e-06
9.84081e-06
-4.28799e-05
-1.09383e-06
1.16497e-05
-4.15851e-05
-7.30639e-07
1.26295e-05
-3.89443e-05
-4.82372e-07
1.27584e-05
-3.56917e-05
-2.32788e-07
1.25738e-05
-3.25223e-05
2.70461e-07
1.28322e-05
-2.90854e-05
1.08166e-06
1.39726e-05
-2.45554e-05
1.94587e-06
1.54858e-05
-1.84088e-05
2.5692e-06
1.60461e-05
-1.11958e-05
2.79628e-06
1.5017e-05
-4.50211e-06
2.69513e-06
1.31045e-05
4.20705e-07
2.4513e-06
1.06679e-05
4.40603e-06
2.19897e-06
8.36969e-06
8.27791e-06
1.94794e-06
5.84027e-06
1.29312e-05
1.65134e-06
2.68119e-06
1.78252e-05
1.296e-06
-7.76648e-07
2.20028e-05
9.55791e-07
-3.90651e-06
2.54202e-05
7.00284e-07
-6.2346e-06
2.8605e-05
5.6205e-07
-7.47525e-06
3.20272e-05
5.53851e-07
-7.56671e-06
3.59202e-05
6.55289e-07
-6.74607e-06
4.02057e-05
7.9392e-07
-5.47985e-06
4.45367e-05
8.76527e-07
-4.18454e-06
4.85129e-05
8.4679e-07
-3.02161e-06
5.18592e-05
7.00136e-07
-1.94747e-06
5.45054e-05
4.64025e-07
-9.18163e-07
5.6594e-05
1.71722e-07
-4.45382e-08
5.83527e-05
-1.26961e-07
4.72442e-07
5.98146e-05
-3.35486e-07
6.74302e-07
6.06496e-05
-5.00697e-07
6.49291e-07
6.03538e-05
-5.75196e-07
3.43457e-07
5.76015e-05
-4.08927e-07
4.36832e-05
2.56227e-07
2.45469e-06
-3.69165e-05
2.94711e-06
1.35794e-06
-4.57473e-05
4.95731e-06
-5.23116e-07
-4.64166e-05
5.14908e-06
-2.50191e-06
-4.59004e-05
5.0602e-06
-4.18394e-06
-4.45904e-05
4.75178e-06
-5.13536e-06
-4.19542e-05
4.06866e-06
-5.45845e-06
-3.84384e-05
3.23966e-06
-5.65622e-06
-3.46611e-05
2.53188e-06
-5.96992e-06
-3.06164e-05
2.02628e-06
-5.93273e-06
-2.62369e-05
1.78439e-06
-4.74002e-06
-2.13602e-05
1.85366e-06
-2.70707e-06
-1.52872e-05
2.13496e-06
-1.54552e-06
-7.95192e-06
2.35615e-06
-2.6087e-06
-8.53819e-07
2.39039e-06
-5.12224e-06
4.61528e-06
2.34393e-06
-7.82593e-06
8.71648e-06
2.29711e-06
-9.75106e-06
1.2663e-05
2.21928e-06
-1.09209e-05
1.70002e-05
2.01408e-06
-1.17516e-05
2.11685e-05
1.68734e-06
-1.23381e-05
2.46978e-05
1.35795e-06
-1.24266e-05
2.76962e-05
1.0989e-06
-1.16464e-05
3.05023e-05
9.24333e-07
-9.70813e-06
3.34319e-05
8.30884e-07
-6.5894e-06
3.66735e-05
8.07042e-07
-2.64469e-06
4.02595e-05
8.29462e-07
1.46322e-06
4.41125e-05
8.68476e-07
4.93139e-06
4.81211e-05
8.96529e-07
7.00874e-06
5.21896e-05
8.87547e-07
7.20865e-06
5.62064e-05
8.2384e-07
5.58227e-06
5.98339e-05
7.22316e-07
2.80539e-06
6.24349e-05
6.34071e-07
-2.48345e-07
6.3493e-05
5.71092e-07
-2.82651e-06
6.26569e-05
4.95753e-07
-3.68556e-06
5.7921e-05
4.95687e-07
3.87675e-05
6.95993e-07
2.19541e-06
-3.75552e-05
-1.44458e-06
3.28427e-06
-4.46055e-05
-2.22947e-06
3.48331e-06
-4.49046e-05
-1.76723e-06
3.07069e-06
-4.43465e-05
-1.22499e-06
2.28026e-06
-4.32446e-05
-6.52012e-07
1.67977e-06
-4.14259e-05
-2.63735e-08
1.32456e-06
-3.88235e-05
6.52779e-07
9.76141e-07
-3.55425e-05
1.16153e-06
3.68352e-07
-3.15458e-05
1.50593e-06
-5.75915e-07
-2.69521e-05
1.68609e-06
-1.47994e-06
-2.21953e-05
1.80281e-06
-1.67348e-06
-1.70368e-05
2.0111e-06
-1.28629e-06
-1.06466e-05
2.36823e-06
-1.49392e-06
-3.27616e-06
2.68884e-06
-2.94509e-06
3.3228e-06
2.80502e-06
-5.03918e-06
8.06903e-06
2.80008e-06
-6.79412e-06
1.16961e-05
2.77058e-06
-7.59768e-06
1.51364e-05
2.70376e-06
-7.58877e-06
1.86454e-05
2.54411e-06
-7.13147e-06
2.19885e-05
2.29041e-06
-6.35424e-06
2.49777e-05
2.00105e-06
-5.18562e-06
2.76841e-05
1.73299e-06
-3.49321e-06
3.03283e-05
1.51328e-06
-1.22299e-06
3.31676e-05
1.34796e-06
1.44833e-06
3.64608e-05
1.23698e-06
4.01004e-06
4.04523e-05
1.1852e-06
5.65517e-06
4.53083e-05
1.21073e-06
5.57127e-06
5.0926e-05
1.34039e-06
3.52663e-06
5.66433e-05
1.56505e-06
2.63514e-07
6.12344e-05
1.79619e-06
-3.07779e-06
6.37522e-05
1.93731e-06
-5.81863e-06
6.4177e-05
1.95396e-06
-7.40771e-06
6.22474e-05
1.81988e-06
-6.15857e-06
5.4776e-05
1.46858e-06
3.14033e-05
6.97429e-07
-5.25529e-06
-3.48428e-05
2.39208e-06
-1.05829e-05
-4.30063e-05
3.6045e-06
-1.53238e-05
-4.38141e-05
3.54635e-06
-1.94495e-05
-4.36672e-05
3.35465e-06
-2.28562e-05
-4.29884e-05
3.06842e-06
-2.54173e-05
-4.16357e-05
2.68855e-06
-2.70199e-05
-3.96495e-05
2.32835e-06
-2.76031e-05
-3.71712e-05
2.0933e-06
-2.72127e-05
-3.40381e-05
1.98578e-06
-2.63963e-05
-2.98097e-05
1.95675e-06
-2.59062e-05
-2.47028e-05
1.97196e-06
-2.57734e-05
-1.92482e-05
2.04606e-06
-2.54637e-05
-1.3212e-05
2.20916e-06
-2.49365e-05
-6.28169e-06
2.41632e-06
-2.48281e-05
6.11214e-07
2.54568e-06
-2.47612e-05
5.33545e-06
2.62084e-06
-2.48096e-05
9.00037e-06
2.69724e-06
-2.45694e-05
1.20721e-05
2.76509e-06
-2.37593e-05
1.4978e-05
2.78644e-06
-2.24224e-05
1.78615e-05
2.72435e-06
-2.07513e-05
2.06963e-05
2.57621e-06
-1.88981e-05
2.34701e-05
2.37726e-06
-1.69389e-05
2.62586e-05
2.17482e-06
-1.49194e-05
2.92286e-05
2.00643e-06
-1.29303e-05
3.26402e-05
1.89476e-06
-1.11851e-05
3.6823e-05
1.8552e-06
-1.00195e-05
4.20263e-05
1.90542e-06
-9.69789e-06
4.80672e-05
2.06355e-06
-1.00691e-05
5.39646e-05
2.31151e-06
-1.052e-05
5.82345e-05
2.55436e-06
-1.05721e-05
6.01794e-05
2.69255e-06
-1.00645e-05
6.00608e-05
2.69963e-06
-8.60746e-06
5.74089e-05
2.52512e-06
-5.12184e-06
4.86683e-05
1.93923e-06
2.53529e-05
7.65778e-07
-2.77858e-06
-3.1461e-05
-7.02322e-07
-4.25252e-06
-4.05588e-05
-1.05018e-06
-5.74757e-06
-4.17847e-05
-6.10845e-07
-7.41053e-06
-4.18985e-05
-1.95963e-07
-9.25208e-06
-4.15554e-05
3.00853e-07
-1.11314e-05
-4.07104e-05
8.30817e-07
-1.29416e-05
-3.9307e-05
1.33182e-06
-1.46421e-05
-3.74028e-05
1.78091e-06
-1.60716e-05
-3.49618e-05
2.18375e-06
-1.69116e-05
-3.16525e-05
2.51964e-06
-1.70719e-05
-2.73924e-05
2.74619e-06
-1.67943e-05
-2.24325e-05
2.87691e-06
-1.6055e-05
-1.68836e-05
2.95338e-06
-1.45948e-05
-1.0731e-05
3.0222e-06
-1.28744e-05
-4.16915e-06
3.07961e-06
-1.25904e-05
1.96273e-06
3.09467e-06
-1.36432e-05
6.9332e-06
3.11444e-06
-1.55e-05
1.07331e-05
3.17201e-06
-1.75803e-05
1.37545e-05
3.2491e-06
-1.95393e-05
1.64182e-05
3.31003e-06
-2.12553e-05
1.89714e-05
3.32091e-06
-2.26963e-05
2.15329e-05
3.26178e-06
-2.38294e-05
2.41909e-05
3.13484e-06
-2.45983e-05
2.70646e-05
2.96609e-06
-2.49197e-05
3.03277e-05
2.80061e-06
-2.46775e-05
3.4191e-05
2.69247e-06
-2.37328e-05
3.87827e-05
2.68919e-06
-2.19797e-05
4.38762e-05
2.80548e-06
-1.9427e-05
4.8636e-05
2.99208e-06
-1.62656e-05
5.19328e-05
3.15251e-06
-1.27236e-05
5.32627e-05
3.23439e-06
-8.83498e-06
5.27388e-05
3.24131e-06
-4.65195e-06
5.00079e-05
3.12511e-06
-9.88707e-07
4.2624e-05
2.62781e-06
2.33325e-05
1.44695e-06
-5.50703e-07
-3.18549e-05
9.85113e-07
-3.36268e-07
-4.21835e-05
1.49684e-06
-1.2837e-07
-4.34491e-05
1.55801e-06
-1.58942e-07
-4.32932e-05
1.53792e-06
-5.64513e-07
-4.2479e-05
1.4586e-06
-1.45553e-06
-4.10054e-05
1.33261e-06
-2.92539e-06
-3.88959e-05
1.20983e-06
-5.05969e-06
-3.62917e-05
1.15726e-06
-7.7534e-06
-3.33932e-05
1.21833e-06
-1.04359e-05
-3.03534e-05
1.413e-06
-1.24682e-05
-2.71409e-05
1.73884e-06
-1.35849e-05
-2.35447e-05
2.14706e-06
-1.36562e-05
-1.94281e-05
2.54674e-06
-1.25579e-05
-1.47279e-05
2.87033e-06
-1.04512e-05
-9.36082e-06
3.09281e-06
-8.17057e-06
-3.49307e-06
3.19679e-06
-6.77234e-06
2.35437e-06
3.19593e-06
-6.84611e-06
7.63567e-06
3.17313e-06
-8.21111e-06
1.19057e-05
3.20175e-06
-1.03619e-05
1.52457e-05
3.29097e-06
-1.28667e-05
1.79995e-05
3.41273e-06
-1.54614e-05
2.04915e-05
3.53392e-06
-1.79567e-05
2.2929e-05
3.62675e-06
-2.01464e-05
2.54584e-05
3.67105e-06
-2.17444e-05
2.82129e-05
3.65725e-06
-2.23611e-05
3.13193e-05
3.593e-06
-2.15673e-05
3.48423e-05
3.50986e-06
-1.90808e-05
3.86181e-05
3.45695e-06
-1.49749e-05
4.2051e-05
3.46977e-06
-9.7264e-06
4.43537e-05
3.53444e-06
-4.07028e-06
4.53012e-05
3.61508e-06
1.12376e-06
4.52164e-05
3.68889e-06
4.79692e-06
4.40583e-05
3.71907e-06
5.10526e-06
4.03251e-05
3.49738e-06
2.71273e-05
2.24068e-06
1.77292e-06
-3.31465e-05
-4.59841e-07
4.45839e-06
-4.42151e-05
-6.07874e-07
6.95568e-06
-4.56688e-05
-2.16884e-07
9.12351e-06
-4.54971e-05
1.06545e-07
1.0975e-05
-4.46201e-05
3.7049e-07
1.25462e-05
-4.30411e-05
5.58958e-07
1.37306e-05
-4.06584e-05
6.90591e-07
1.42974e-05
-3.74969e-05
7.71674e-07
1.40157e-05
-3.37789e-05
8.17337e-07
1.28027e-05
-2.98494e-05
8.60795e-07
1.0911e-05
-2.60677e-05
9.47324e-07
8.9296e-06
-2.26028e-05
1.11873e-06
7.43362e-06
-1.93166e-05
1.39913e-06
6.78708e-06
-1.58983e-05
1.78083e-06
7.22033e-06
-1.20588e-05
2.21769e-06
8.67154e-06
-7.60183e-06
2.63874e-06
1.06619e-05
-2.56885e-06
2.95808e-06
1.21661e-05
3.08432e-06
3.10222e-06
1.23872e-05
8.66054e-06
3.07876e-06
1.14504e-05
1.32192e-05
3.0013e-06
9.86253e-06
1.66334e-05
2.97557e-06
8.10525e-06
1.92276e-05
3.0248e-06
6.46881e-06
2.14144e-05
3.13114e-06
5.1421e-06
2.34674e-05
3.27074e-06
4.31017e-06
2.55562e-05
3.42094e-06
4.20535e-06
2.78015e-05
3.55853e-06
5.10733e-06
3.0271e-05
3.66006e-06
7.24636e-06
3.28976e-05
3.71011e-06
1.05406e-05
3.54102e-05
3.72227e-06
1.42851e-05
3.75921e-05
3.7495e-06
1.71759e-05
3.97598e-05
3.8135e-06
1.76273e-05
4.23812e-05
3.8983e-06
1.48972e-05
4.42099e-05
3.982e-06
8.65058e-06
4.35557e-05
3.84207e-06
3.35086e-05
2.45593e-06
4.17556e-06
-3.67947e-05
-3.62225e-07
7.96997e-06
-4.7543e-05
-2.94294e-07
1.11392e-05
-4.86194e-05
-6.79957e-08
1.378e-05
-4.81203e-05
1.21598e-07
1.58532e-05
-4.6791e-05
2.37841e-07
1.71544e-05
-4.44573e-05
2.68758e-07
1.74724e-05
-4.10274e-05
2.22639e-07
1.69197e-05
-3.68999e-05
1.34272e-07
1.58828e-05
-3.26249e-05
5.36292e-08
1.46825e-05
-2.85101e-05
1.71385e-08
1.33856e-05
-2.46751e-05
4.57697e-08
1.19827e-05
-2.12103e-05
1.3627e-07
1.06416e-05
-1.81575e-05
2.8686e-07
9.70663e-06
-1.54e-05
5.08789e-07
9.50507e-06
-1.26513e-05
8.21572e-07
1.02049e-05
-9.54534e-06
1.22998e-06
1.16852e-05
-5.77163e-06
1.69673e-06
1.38635e-05
-1.23515e-06
2.14051e-06
1.63261e-05
3.79201e-06
2.45014e-06
1.83667e-05
8.70715e-06
2.54974e-06
1.97478e-05
1.28483e-05
2.49022e-06
2.07492e-05
1.59011e-05
2.40274e-06
2.17924e-05
1.80702e-05
2.36478e-06
2.31628e-05
1.97532e-05
2.39089e-06
2.50063e-05
2.12643e-05
2.47409e-06
2.73534e-05
2.28497e-05
2.60171e-06
2.99987e-05
2.4824e-05
2.75658e-06
3.21373e-05
2.77212e-05
2.92187e-06
3.2117e-05
3.21076e-05
3.08696e-06
2.86198e-05
3.75725e-05
3.16428e-06
2.22673e-05
4.25815e-05
3.08865e-06
1.45696e-05
4.64062e-05
3.02797e-06
6.90906e-06
4.805e-05
3.00431e-06
9.54972e-07
4.57848e-05
2.73131e-06
3.19885e-05
1.46432e-06
4.62251e-06
-4.07886e-05
-4.51893e-07
8.24868e-06
-5.0476e-05
-5.99991e-07
1.11705e-05
-5.10933e-05
-3.90881e-07
1.35225e-05
-5.02162e-05
-2.04143e-07
1.51423e-05
-4.82428e-05
-9.95125e-08
1.56122e-05
-4.47314e-05
-9.5134e-08
1.48233e-05
-3.99311e-05
-1.77503e-07
1.33031e-05
-3.49588e-05
-2.83567e-07
1.16925e-05
-3.05207e-05
-3.64827e-07
1.03849e-05
-2.66753e-05
-4.11073e-07
9.49582e-06
-2.32567e-05
-4.23421e-07
8.93464e-06
-2.01501e-05
-3.9908e-07
8.54008e-06
-1.73325e-05
-3.3446e-07
8.23881e-06
-1.47803e-05
-2.27611e-07
8.11071e-06
-1.23732e-05
-7.03328e-08
8.31429e-06
-9.86643e-06
1.73781e-07
8.98381e-06
-6.9475e-06
5.27237e-07
1.0163e-05
-3.39512e-06
9.72725e-07
1.16768e-05
8.28656e-07
1.43627e-06
1.31709e-05
5.39818e-06
1.81896e-06
1.4134e-05
9.8821e-06
2.03525e-06
1.44759e-05
1.35251e-05
2.08926e-06
1.44294e-05
1.60994e-05
2.08278e-06
1.41885e-05
1.79575e-05
2.10234e-06
1.38165e-05
1.95068e-05
2.1865e-06
1.32598e-05
2.10864e-05
2.35204e-06
1.2309e-05
2.31421e-05
2.60335e-06
1.0558e-05
2.64369e-05
2.87241e-06
7.5724e-06
3.17652e-05
2.90496e-06
3.23893e-06
3.85333e-05
2.51402e-06
-1.66701e-06
4.40878e-05
2.05913e-06
-5.32306e-06
4.66652e-05
1.81161e-06
-6.82453e-06
4.64504e-05
1.53835e-06
-5.50956e-06
4.205e-05
1.11425e-06
2.53917e-05
5.46306e-07
2.71365e-06
-4.31634e-05
-1.81879e-07
4.20617e-06
-5.14773e-05
-4.04016e-07
5.1076e-06
-5.15219e-05
-4.22286e-07
5.6128e-06
-5.02795e-05
-4.00234e-07
5.51367e-06
-4.76394e-05
-4.49942e-07
4.4469e-06
-4.29541e-05
-6.32442e-07
2.57319e-06
-3.70849e-05
-8.8782e-07
4.43174e-07
-3.16919e-05
-1.06911e-06
-1.51872e-06
-2.7393e-05
-1.12404e-06
-3.07343e-06
-2.40155e-05
-1.08633e-06
-4.10783e-06
-2.1218e-05
-1.00051e-06
-4.64038e-06
-1.87264e-05
-8.93393e-07
-4.82301e-06
-1.63753e-05
-7.75158e-07
-4.86619e-06
-1.4086e-05
-6.45365e-07
-4.92034e-06
-1.18092e-05
-4.95767e-07
-4.99539e-06
-9.46058e-06
-3.09013e-07
-4.97233e-06
-6.8877e-06
-5.79529e-08
-4.73779e-06
-3.8992e-06
2.88299e-07
-4.31714e-06
-2.99239e-07
7.1198e-07
-3.72588e-06
3.64568e-06
1.14908e-06
-3.31855e-06
7.94116e-06
1.50718e-06
-3.44604e-06
1.19094e-05
1.71577e-06
-4.10699e-06
1.49426e-05
1.80583e-06
-4.99021e-06
1.69812e-05
1.87058e-06
-5.87167e-06
1.84517e-05
1.97448e-06
-6.65929e-06
1.97947e-05
2.15325e-06
-7.27533e-06
2.14552e-05
2.43382e-06
-7.52386e-06
2.4088e-05
2.81775e-06
-7.07673e-06
2.84445e-05
3.19483e-06
-5.64323e-06
3.40906e-05
3.33936e-06
-3.56183e-06
3.89895e-05
3.21041e-06
-1.50701e-06
4.16726e-05
2.99719e-06
1.96207e-07
4.21239e-05
2.68509e-06
9.91941e-07
3.93663e-05
2.13567e-06
2.53078e-05
1.46381e-06
-1.9917e-06
-4.17077e-05
4.85881e-07
-3.06183e-06
-5.08713e-05
3.6553e-07
-3.71349e-06
-5.11652e-05
1.848e-07
-4.18584e-06
-4.99923e-05
6.79587e-08
-4.48017e-06
-4.74066e-05
-7.1904e-08
-4.31137e-06
-4.29449e-05
-3.20754e-07
-3.56302e-06
-3.7329e-05
-6.16001e-07
-2.62323e-06
-3.18525e-05
-8.37334e-07
-1.90584e-06
-2.71697e-05
-9.5354e-07
-1.52553e-06
-2.33953e-05
-9.87284e-07
-1.38133e-06
-2.03705e-05
-9.67615e-07
-1.33161e-06
-1.78348e-05
-9.15442e-07
-1.29076e-06
-1.55505e-05
-8.42641e-07
-1.25547e-06
-1.33493e-05
-7.53491e-07
-1.27711e-06
-1.11276e-05
-6.45506e-07
-1.39164e-06
-8.82363e-06
-5.10884e-07
-1.54617e-06
-6.38678e-06
-3.36921e-07
-1.57954e-06
-3.74895e-06
-1.09623e-07
-1.27158e-06
-8.01966e-07
1.98513e-07
-6.65669e-07
2.45919e-06
5.78224e-07
2.09918e-07
6.07863e-06
9.75812e-07
9.57673e-07
9.83342e-06
1.31063e-06
1.24317e-06
1.31415e-05
1.50742e-06
1.11635e-06
1.55369e-05
1.58925e-06
7.89749e-07
1.71766e-05
1.65141e-06
4.1284e-07
1.84917e-05
1.76472e-06
1.28016e-07
1.99049e-05
1.96263e-06
8.15374e-08
2.20919e-05
2.23815e-06
3.58531e-07
2.59674e-05
2.52109e-06
9.76973e-07
3.1208e-05
2.76593e-06
1.55598e-06
3.60078e-05
3.06249e-06
1.44011e-06
3.9054e-05
3.43799e-06
6.88731e-07
3.97286e-05
3.75469e-06
1.98496e-07
3.67088e-05
3.60073e-06
2.35937e-05
2.17625e-06
-4.06493e-06
-3.87888e-05
9.24654e-07
-6.3469e-06
-4.97321e-05
8.81893e-07
-7.56224e-06
-5.08052e-05
5.83513e-07
-7.98525e-06
-5.02542e-05
3.79238e-07
-7.31428e-06
-4.86826e-05
2.2406e-07
-4.93297e-06
-4.58453e-05
6.87089e-08
-1.08012e-06
-4.15389e-05
-7.12973e-08
2.97451e-06
-3.59978e-05
-2.37432e-07
5.9767e-06
-2.99683e-05
-4.14455e-07
7.37386e-06
-2.43504e-05
-5.60272e-07
7.34994e-06
-1.97536e-05
-6.53115e-07
6.40577e-06
-1.62264e-05
-6.92619e-07
4.99394e-06
-1.34616e-05
-6.88679e-07
3.41065e-06
-1.1118e-05
-6.50831e-07
1.8116e-06
-8.94195e-06
-5.84834e-07
2.5576e-07
-6.77136e-06
-4.92046e-07
-1.24489e-06
-4.51127e-06
-3.68887e-07
-2.69389e-06
-2.08561e-06
-2.07716e-07
-3.99894e-06
5.19862e-07
-1.11738e-08
-4.91011e-06
3.06107e-06
3.11484e-07
-5.50258e-06
5.9627e-06
7.00786e-07
-6.05131e-06
9.20413e-06
1.15104e-06
-7.17537e-06
1.26142e-05
1.59707e-06
-9.55962e-06
1.5888e-05
1.95228e-06
-1.3434e-05
1.87955e-05
2.15904e-06
-1.84109e-05
2.1173e-05
2.21017e-06
-2.36797e-05
2.29549e-05
2.18529e-06
-2.82542e-05
2.45233e-05
2.20563e-06
-3.10169e-05
2.66093e-05
2.32413e-06
-3.12868e-05
2.93218e-05
2.53057e-06
-2.91451e-05
3.16066e-05
2.79866e-06
-2.45028e-05
3.19111e-05
3.11248e-06
-1.63962e-05
2.88224e-05
3.39657e-06
-6.90283e-06
2.45006e-05
3.23427e-06
1.52812e-05
1.70062e-06
-4.04362e-06
-3.59022e-05
9.32917e-07
-5.21504e-06
-4.96897e-05
9.27136e-07
-4.83728e-06
-5.20241e-05
6.70531e-07
-3.58208e-06
-5.21854e-05
5.0228e-07
-1.45573e-06
-5.14423e-05
4.2299e-07
1.85415e-06
-4.98459e-05
4.10584e-07
6.54753e-06
-4.70103e-05
4.24183e-07
1.22203e-05
-4.24303e-05
3.94733e-07
1.76713e-05
-3.59885e-05
2.71309e-07
2.15183e-05
-2.84356e-05
4.54325e-08
2.31114e-05
-2.13012e-05
-1.44764e-07
2.28434e-05
-1.56784e-05
-3.20994e-07
2.14042e-05
-1.15928e-05
-4.41902e-07
1.93661e-05
-8.57393e-06
-5.06341e-07
1.71209e-05
-6.16875e-06
-5.24777e-07
1.49353e-05
-4.07514e-06
-5.07447e-07
1.30119e-05
-2.12295e-06
-4.62914e-07
1.16243e-05
-2.99322e-07
-3.97577e-07
1.06625e-05
1.79666e-06
-3.14368e-07
9.94595e-06
3.98959e-06
-2.10953e-07
9.59059e-06
6.40016e-06
-8.18172e-08
9.59208e-06
9.09759e-06
1.01218e-07
9.95658e-06
1.18582e-05
3.78156e-07
1.06067e-05
1.45386e-05
6.69297e-07
1.12291e-05
1.71738e-05
9.51968e-07
1.12215e-05
1.98805e-05
1.23647e-06
9.91187e-06
2.26051e-05
1.58182e-06
7.23963e-06
2.50272e-05
2.07939e-06
4.20051e-06
2.68271e-05
2.73122e-06
2.27017e-06
2.78726e-05
3.3455e-06
2.05742e-06
2.81038e-05
3.72815e-06
4.81852e-06
2.5568e-05
3.77012e-06
9.00769e-06
2.19225e-05
3.5405e-06
7.78345e-06
2.38677e-05
3.33318e-06
2.15808e-05
2.23977e-06
2.25194e-07
-3.68368e-05
5.06896e-07
2.17613e-06
-5.21556e-05
4.06255e-07
4.74206e-06
-5.47814e-05
1.79194e-07
7.54144e-06
-5.4952e-05
5.41582e-09
1.04544e-05
-5.41868e-05
-1.02635e-07
1.35248e-05
-5.27021e-05
-1.48707e-07
1.71224e-05
-5.04647e-05
-1.33519e-07
2.17184e-05
-4.70922e-05
-3.90826e-08
2.71796e-05
-4.1782e-05
1.21496e-07
3.22899e-05
-3.39722e-05
1.84765e-07
3.5652e-05
-2.49177e-05
5.76151e-08
3.71075e-05
-1.70859e-05
-1.69587e-07
3.73566e-05
-1.14931e-05
-4.07685e-07
3.71333e-05
-7.77833e-06
-5.92857e-07
3.69732e-05
-5.29e-06
-7.19294e-07
3.71684e-05
-3.45955e-06
-8.01295e-07
3.78527e-05
-1.93823e-06
-8.54028e-07
3.90643e-05
-6.05203e-07
-8.88234e-07
4.10249e-05
7.65471e-07
-9.12119e-07
4.36378e-05
2.32531e-06
-9.33552e-07
4.68765e-05
4.13197e-06
-9.59546e-07
5.01149e-05
6.86045e-06
-9.91952e-07
5.22018e-05
1.07776e-05
-9.95651e-07
5.3404e-05
1.4274e-05
-9.24681e-07
5.46147e-05
1.67179e-05
-7.54702e-07
5.60011e-05