/*--------------------------------*- C++ -*----------------------------------*\
| =========                 |                                                 |
| \\      /  F ield         | OpenFOAM: The Open Source CFD Toolbox           |
|  \\    /   O peration     | Version:  v1912                                 |
|   \\  /    A nd           | Website:  www.openfoam.com                      |
|    \\/     M anipulation  |                                                 |
\*---------------------------------------------------------------------------*/
FoamFile
{
    version     2.0;
    format      ascii;
    class       surfaceScalarField;
    location    "6/oil";
    object      phi;
}
// * * * * * * * * * * * * * * * * * * * * * * * * * * * * * * * * * * * * * //

dimensions      [1 0 -1 0 0 0 0];
oriented        oriented;


internalField   nonuniform List<scalar> 
104676
(
-1.85009e-06
-1.85261e-06
-1.87121e-06
-1.03414e-06
-4.04944e-07
-4.11005e-07
-3.78746e-07
-3.25303e-07
-3.30092e-07
-2.00114e-07
-8.86701e-08
-8.99622e-08
-8.24473e-08
-5.84723e-08
-5.91942e-08
-4.37499e-08
-1.92314e-08
-1.9466e-08
-2.03014e-08
-1.16686e-08
-1.17799e-08
-1.12581e-08
-4.5094e-09
-4.53387e-09
-5.91443e-09
-2.67948e-09
-2.6642e-09
-3.53417e-09
-1.21027e-09
-1.16999e-09
-2.12046e-09
-7.36156e-10
-6.77556e-10
-1.41141e-09
-3.88922e-10
-3.20125e-10
-9.87953e-10
-2.52994e-10
-1.70462e-10
-7.55923e-10
-1.6295e-10
-6.90804e-11
-6.1774e-10
-1.1888e-10
-1.93034e-11
-5.39027e-10
-8.97831e-11
1.10698e-11
-4.92884e-10
-7.1804e-11
2.56616e-11
-4.63952e-10
-5.95172e-11
3.05854e-11
-4.42206e-10
-5.05369e-11
2.87903e-11
-4.19606e-10
-4.42483e-11
2.1648e-11
-3.90431e-10
-4.05585e-11
1.13833e-11
-3.50069e-10
-3.95083e-11
-8.53437e-13
-2.97695e-10
-3.95632e-11
-1.2811e-11
-2.34812e-10
-4.01613e-11
-2.27217e-11
-1.65944e-10
-4.00556e-11
-2.88124e-11
-9.85767e-11
-3.78426e-11
-2.95246e-11
-4.13953e-11
-3.20777e-11
-2.51037e-11
-4.28071e-12
-2.10741e-11
-1.60406e-11
8.43489e-12
-5.25791e-12
-7.45787e-12
9.78761e-12
-1.35278e-12
-4.04252e-07
-1.03603e-06
-4.12328e-07
-3.03138e-07
-3.03558e-07
-2.02499e-07
-1.80574e-07
-2.6506e-07
-1.82807e-07
-1.10928e-07
-8.53622e-08
-7.29534e-08
-6.04466e-08
-5.95193e-08
-4.94348e-08
-3.6858e-08
-2.21338e-08
-2.06862e-08
-2.09491e-08
-1.47743e-08
-1.28033e-08
-1.32371e-08
-6.42073e-09
-5.80071e-09
-8.13017e-09
-4.34027e-09
-3.44611e-09
-5.44804e-09
-2.2431e-09
-1.64931e-09
-3.6677e-09
-1.59929e-09
-9.17206e-10
-2.66326e-09
-9.90027e-10
-4.03341e-10
-2.00687e-09
-7.61523e-10
-1.47858e-10
-1.61987e-09
-5.69276e-10
1.93284e-11
-1.36699e-09
-4.82433e-10
1.10674e-10
-1.21413e-09
-4.10674e-10
1.68029e-10
-1.11379e-09
-3.69842e-10
1.97696e-10
-1.04706e-09
-3.36444e-10
2.10198e-10
-9.92736e-10
-3.14833e-10
2.09971e-10
-9.38756e-10
-2.97745e-10
1.99516e-10
-8.71782e-10
-2.88135e-10
1.80602e-10
-7.85344e-10
-2.81591e-10
1.55644e-10
-6.76924e-10
-2.76877e-10
1.28893e-10
-5.49119e-10
-2.70733e-10
1.02767e-10
-4.09419e-10
-2.59677e-10
7.99214e-11
-2.71109e-10
-2.3918e-10
6.30271e-11
-1.49271e-10
-2.05926e-10
5.201e-11
-5.97713e-11
-1.56388e-10
4.58142e-11
-1.04343e-11
-9.14194e-11
3.68243e-11
-2.0874e-11
2.02272e-11
-3.25457e-07
-3.79815e-07
-3.30756e-07
-2.6515e-07
-1.81036e-07
-1.82829e-07
-1.81373e-07
-1.81845e-07
-1.66991e-07
-1.1828e-07
-7.47016e-08
-7.3754e-08
-7.03188e-08
-5.78685e-08
-4.9612e-08
-4.42173e-08
-2.5659e-08
-2.25762e-08
-2.66206e-08
-1.85439e-08
-1.38271e-08
-1.71292e-08
-9.26008e-09
-6.65207e-09
-1.09223e-08
-6.65303e-09
-3.89412e-09
-7.41624e-09
-3.83294e-09
-1.91626e-09
-5.11865e-09
-2.87119e-09
-1.02568e-09
-3.75402e-09
-1.93289e-09
-4.21765e-10
-2.86165e-09
-1.55056e-09
-1.03331e-10
-2.31347e-09
-1.21854e-09
1.0108e-10
-1.95164e-09
-1.0628e-09
2.18541e-10
-1.72301e-09
-9.33191e-10
2.93892e-10
-1.56891e-09
-8.59321e-10
3.3538e-10
-1.46246e-09
-7.99441e-10
3.56543e-10
-1.37715e-09
-7.619e-10
3.61759e-10
-1.29655e-09
-7.33125e-10
3.54778e-10
-1.20298e-09
-7.15498e-10
3.33794e-10
-1.08759e-09
-7.01589e-10
3.04611e-10
-9.46253e-10
-6.88781e-10
2.70564e-10
-7.80934e-10
-6.70196e-10
2.34145e-10
-5.99872e-10
-6.39305e-10
1.98565e-10
-4.17473e-10
-5.88375e-10
1.66797e-10
-2.51081e-10
-5.11319e-10
1.39001e-10
-1.19177e-10
-4.03284e-10
1.14992e-10
-3.25003e-11
-2.63684e-10
8.5588e-11
-9.66767e-11
4.33024e-11
-8.88499e-08
-2.00837e-07
-9.01283e-08
-8.52249e-08
-1.1176e-07
-7.2901e-08
-7.40007e-08
-1.19321e-07
-7.3749e-08
-5.408e-08
-5.53674e-08
-3.92549e-08
-3.80412e-08
-4.5592e-08
-2.83153e-08
-2.64867e-08
-2.25693e-08
-1.46443e-08
-1.81569e-08
-1.73866e-08
-9.48704e-09
-1.2789e-08
-9.64183e-09
-4.98618e-09
-9.02594e-09
-7.38899e-09
-3.0271e-09
-6.61373e-09
-4.69117e-09
-1.55398e-09
-4.93553e-09
-3.72801e-09
-8.21376e-10
-3.839e-09
-2.72139e-09
-3.08033e-10
-3.0804e-09
-2.28897e-09
-2.01863e-11
-2.57845e-09
-1.88909e-09
1.68596e-10
-2.23011e-09
-1.69467e-09
2.83528e-10
-1.99454e-09
-1.52937e-09
3.6061e-10
-1.82733e-09
-1.43368e-09
4.07144e-10
-1.7051e-09
-1.35683e-09
4.35155e-10
-1.6047e-09
-1.31007e-09
4.47771e-10
-1.51017e-09
-1.27541e-09
4.47753e-10
-1.40325e-09
-1.25373e-09
4.31305e-10
-1.2743e-09
-1.23583e-09
4.053e-10
-1.118e-09
-1.21642e-09
3.71338e-10
-9.35073e-10
-1.18476e-09
3.31637e-10
-7.33031e-10
-1.13096e-09
2.89614e-10
-5.25824e-10
-1.04397e-09
2.48386e-10
-3.30566e-10
-9.15206e-10
2.08629e-10
-1.67691e-10
-7.37376e-10
1.71218e-10
-5.1096e-11
-5.0577e-10
1.2549e-10
-2.10655e-10
6.28825e-11
-5.85006e-08
-8.31146e-08
-5.92215e-08
-5.92505e-08
-6.16103e-08
-4.93998e-08
-5.70628e-08
-7.18999e-08
-4.96085e-08
-4.41664e-08
-3.99332e-08
-2.83305e-08
-3.34047e-08
-3.54795e-08
-2.08742e-08
-2.42075e-08
-2.02603e-08
-1.15062e-08
-1.74385e-08
-1.65554e-08
-7.60014e-09
-1.26202e-08
-1.02768e-08
-4.18327e-09
-9.21286e-09
-8.23391e-09
-2.56246e-09
-6.88608e-09
-5.67124e-09
-1.34671e-09
-5.2597e-09
-4.65003e-09
-7.04359e-10
-4.14219e-09
-3.5797e-09
-2.59195e-10
-3.36155e-09
-3.0702e-09
5.84718e-13
-2.82478e-09
-2.59606e-09
1.702e-10
-2.4445e-09
-2.35233e-09
2.77379e-10
-2.17647e-09
-2.14947e-09
3.52076e-10
-1.98117e-09
-2.03312e-09
4.04137e-10
-1.8352e-09
-1.94251e-09
4.39715e-10
-1.717e-09
-1.89181e-09
4.63533e-10
-1.60941e-09
-1.85574e-09
4.72745e-10
-1.49418e-09
-1.83542e-09
4.66462e-10
-1.36017e-09
-1.81872e-09
4.48889e-10
-1.20033e-09
-1.79683e-09
4.20569e-10
-1.01332e-09
-1.75498e-09
3.83199e-10
-8.04855e-10
-1.67968e-09
3.40256e-10
-5.87464e-10
-1.55663e-09
2.95276e-10
-3.7779e-10
-1.37454e-09
2.49663e-10
-1.96933e-10
-1.12328e-09
2.05043e-10
-6.21404e-11
-7.90532e-10
1.4997e-10
-3.47994e-10
7.51977e-11
-1.91754e-08
-4.44946e-08
-1.94445e-08
-2.17626e-08
-3.83753e-08
-2.06477e-08
-2.47761e-08
-4.63019e-08
-2.25846e-08
-2.1065e-08
-2.89517e-08
-1.46926e-08
-1.80995e-08
-2.68958e-08
-1.15492e-08
-1.42861e-08
-1.70705e-08
-7.00325e-09
-1.13816e-08
-1.45931e-08
-4.86674e-09
-8.88458e-09
-9.91109e-09
-2.86273e-09
-7.02988e-09
-8.27608e-09
-1.81254e-09
-5.60198e-09
-6.10782e-09
-9.91317e-10
-4.55241e-09
-5.17241e-09
-5.27201e-10
-3.76257e-09
-4.16725e-09
-2.02289e-10
-3.17879e-09
-3.651e-09
-2.96879e-12
-2.7432e-09
-3.15648e-09
1.24824e-10
-2.41522e-09
-2.89205e-09
2.11745e-10
-2.16675e-09
-2.67635e-09
2.78408e-10
-1.97487e-09
-2.56096e-09
3.35959e-10
-1.82538e-09
-2.47097e-09
3.78966e-10
-1.70295e-09
-2.42861e-09
4.14383e-10
-1.59224e-09
-2.40197e-09
4.35515e-10
-1.47822e-09
-2.39406e-09
4.44615e-10
-1.34931e-09
-2.38817e-09
4.40537e-10
-1.19712e-09
-2.37198e-09
4.22963e-10
-1.01847e-09
-2.32689e-09
3.93258e-10
-8.16829e-10
-2.23592e-09
3.54605e-10
-6.03031e-10
-2.08165e-09
3.11218e-10
-3.92786e-10
-1.84975e-09
2.64962e-10
-2.07605e-10
-1.52672e-09
2.18268e-10
-6.63419e-11
-1.09185e-09
1.60054e-10
-4.95297e-10
8.09617e-11
-1.16076e-08
-2.11712e-08
-1.17158e-08
-1.43965e-08
-2.2818e-08
-1.27685e-08
-1.76547e-08
-2.91662e-08
-1.38776e-08
-1.58808e-08
-2.11324e-08
-9.59317e-09
-1.44016e-08
-2.06677e-08
-7.70726e-09
-1.1828e-08
-1.47091e-08
-4.93497e-09
-9.81119e-09
-1.31043e-08
-3.50566e-09
-7.89185e-09
-9.67956e-09
-2.15087e-09
-6.44166e-09
-8.33517e-09
-1.3911e-09
-5.25536e-09
-6.49747e-09
-7.96648e-10
-4.36771e-09
-5.60984e-09
-4.5022e-10
-3.66811e-09
-4.65291e-09
-2.1394e-10
-3.12949e-09
-4.11973e-09
-6.98944e-11
-2.70597e-09
-3.59911e-09
1.90951e-11
-2.37558e-09
-3.31186e-09
8.94192e-11
-2.11365e-09
-3.08852e-09
1.50242e-10
-1.90988e-09
-2.97646e-09
2.1174e-10
-1.74536e-09
-2.8976e-09
2.62102e-10
-1.61293e-09
-2.87087e-09
3.09836e-10
-1.4973e-09
-2.86533e-09
3.47727e-10
-1.38574e-09
-2.88094e-09
3.75325e-10
-1.26561e-09
-2.89663e-09
3.88325e-10
-1.127e-09
-2.896e-09
3.85416e-10
-9.64364e-10
-2.85691e-09
3.67391e-10
-7.78883e-10
-2.75861e-09
3.37202e-10
-5.79236e-10
-2.58095e-09
2.99654e-10
-3.79744e-10
-2.30647e-09
2.57224e-10
-2.0157e-10
-1.91819e-09
2.13291e-10
-6.43931e-11
-1.38642e-09
1.57396e-10
-6.4009e-10
8.03993e-11
-4.44661e-09
-1.22628e-08
-4.46183e-09
-6.06124e-09
-1.53929e-08
-5.81048e-09
-8.40369e-09
-2.00532e-08
-6.77053e-09
-8.18364e-09
-1.61805e-08
-5.17186e-09
-8.19204e-09
-1.62789e-08
-4.38043e-09
-7.24217e-09
-1.26372e-08
-3.02186e-09
-6.51526e-09
-1.15902e-08
-2.24095e-09
-5.60007e-09
-9.13493e-09
-1.45983e-09
-4.88707e-09
-8.05851e-09
-9.89663e-10
-4.21488e-09
-6.55356e-09
-6.16105e-10
-3.68486e-09
-5.74513e-09
-3.94732e-10
-3.2178e-09
-4.86922e-09
-2.50739e-10
-2.81903e-09
-4.34764e-09
-1.70856e-10
-2.47238e-09
-3.82868e-09
-1.17072e-10
-2.18521e-09
-3.5339e-09
-6.51349e-11
-1.94291e-09
-3.31526e-09
-1.55648e-11
-1.74594e-09
-3.21563e-09
4.22056e-11
-1.57871e-09
-3.16762e-09
1.02789e-10
-1.44506e-09
-3.16981e-09
1.65286e-10
-1.33197e-09
-3.20094e-09
2.22515e-10
-1.22879e-09
-3.25472e-09
2.70604e-10
-1.12298e-09
-3.30562e-09
3.03173e-10
-1.00359e-09
-3.33308e-09
3.17692e-10
-8.63381e-10
-3.31135e-09
3.1423e-10
-7.01472e-10
-3.21626e-09
2.95742e-10
-5.24365e-10
-3.02527e-09
2.67212e-10
-3.44853e-10
-2.71797e-09
2.31988e-10
-1.82999e-10
-2.27422e-09
1.94178e-10
-5.79401e-11
-1.6564e-09
1.44914e-10
-7.73215e-10
7.51852e-11
-2.61937e-09
-7.0264e-09
-2.61704e-09
-4.00605e-09
-1.04944e-08
-3.51185e-09
-5.8537e-09
-1.41189e-08
-4.0866e-09
-6.01411e-09
-1.27251e-08
-3.29506e-09
-6.26172e-09
-1.31811e-08
-2.85018e-09
-5.75573e-09
-1.10778e-08
-2.06538e-09
-5.36084e-09
-1.04108e-08
-1.57428e-09
-4.75721e-09
-8.65666e-09
-1.0819e-09
-4.27508e-09
-7.76577e-09
-7.74868e-10
-3.77995e-09
-6.51093e-09
-5.37765e-10
-3.37199e-09
-5.74924e-09
-4.03849e-10
-2.98278e-09
-4.9274e-09
-3.31026e-10
-2.63185e-09
-4.39574e-09
-3.02839e-10
-2.30868e-09
-3.88026e-09
-2.71588e-10
-2.02689e-09
-3.57696e-09
-2.3873e-10
-1.77849e-09
-3.36256e-09
-2.01097e-10
-1.57196e-09
-3.27472e-09
-1.47448e-10
-1.39624e-09
-3.26567e-09
-7.7663e-11
-1.25487e-09
-3.31141e-09
2.40634e-13
-1.1409e-09
-3.393e-09
7.80909e-11
-1.04476e-09
-3.4978e-09
1.4693e-10
-9.52856e-10
-3.59656e-09
1.99048e-10
-8.5329e-10
-3.66414e-09
2.31496e-10
-7.37129e-10
-3.67106e-09
2.4355e-10
-6.01588e-10
-3.58999e-09
2.38194e-10
-4.5111e-10
-3.39625e-09
2.20497e-10
-2.96639e-10
-3.06705e-09
1.94614e-10
-1.56573e-10
-2.57955e-09
1.65263e-10
-4.86104e-11
-1.88984e-09
1.25486e-10
-8.88285e-10
6.64594e-11
-1.15525e-09
-4.71659e-09
-1.15456e-09
-1.92955e-09
-7.9436e-09
-1.77648e-09
-3.09325e-09
-1.07751e-08
-2.18017e-09
-3.41311e-09
-1.05027e-08
-1.90251e-09
-3.82879e-09
-1.10455e-08
-1.71998e-09
-3.755e-09
-9.81935e-09
-1.33221e-09
-3.73491e-09
-9.36569e-09
-1.06522e-09
-3.5119e-09
-8.08922e-09
-7.90451e-10
-3.32971e-09
-7.33121e-09
-6.16746e-10
-3.07893e-09
-6.27109e-09
-4.90623e-10
-2.84765e-09
-5.54802e-09
-4.32495e-10
-2.58114e-09
-4.77417e-09
-4.19741e-10
-2.31689e-09
-4.23237e-09
-4.27627e-10
-2.0514e-09
-3.72894e-09
-4.16809e-10
-1.79987e-09
-3.42465e-09
-4.03845e-10
-1.56277e-09
-3.22423e-09
-3.75431e-10
-1.35865e-09
-3.15693e-09
-3.2191e-10
-1.18787e-09
-3.18846e-09
-2.47996e-10
-1.04782e-09
-3.29385e-09
-1.57608e-10
-9.37784e-10
-3.43891e-09
-6.41297e-11
-8.50737e-10
-3.6068e-09
2.19572e-11
-7.7312e-10
-3.76503e-09
9.08521e-11
-6.92942e-10
-3.88363e-09
1.39305e-10
-6.00171e-10
-3.9296e-09
1.65764e-10
-4.91124e-10
-3.87233e-09
1.73294e-10
-3.68285e-10
-3.68592e-09
1.6683e-10
-2.4081e-10
-3.34563e-09
1.51103e-10
-1.25478e-10
-2.82606e-09
1.31181e-10
-3.78862e-11
-2.07943e-09
1.01997e-10
-9.82144e-10
5.59725e-11
-6.89029e-10
-3.33661e-09
-6.90945e-10
-1.30282e-09
-6.22258e-09
-1.10723e-09
-2.17265e-09
-8.53841e-09
-1.36681e-09
-2.53042e-09
-8.89602e-09
-1.24889e-09
-2.9251e-09
-9.49246e-09
-1.15831e-09
-2.97424e-09
-8.82518e-09
-9.45028e-10
-3.04392e-09
-8.50822e-09
-7.87797e-10
-2.94715e-09
-7.55678e-09
-6.29208e-10
-2.86192e-09
-6.88312e-09
-5.33311e-10
-2.70086e-09
-5.955e-09
-4.77146e-10
-2.53076e-09
-5.24494e-09
-4.73183e-10
-2.31065e-09
-4.49436e-09
-4.99917e-10
-2.08829e-09
-3.9345e-09
-5.20225e-10
-1.84979e-09
-3.44261e-09
-5.24831e-10
-1.61194e-09
-3.13729e-09
-5.25208e-10
-1.38062e-09
-2.95164e-09
-5.03911e-10
-1.17616e-09
-2.90997e-09
-4.5142e-10
-1.00572e-09
-2.9832e-09
-3.75698e-10
-8.6767e-10
-3.15352e-09
-2.78377e-10
-7.61163e-10
-3.36586e-09
-1.7956e-10
-6.80113e-10
-3.60316e-09
-8.46966e-11
-6.12532e-10
-3.82689e-09
-5.72556e-12
-5.46518e-10
-4.00283e-09
5.3192e-11
-4.72126e-10
-4.094e-09
9.0006e-11
-3.85565e-10
-4.06676e-09
1.07861e-10
-2.87474e-10
-3.89494e-09
1.10928e-10
-1.84963e-10
-3.55227e-09
1.04134e-10
-9.34677e-11
-3.01117e-09
9.36093e-11
-2.62486e-11
-2.22259e-09
7.59384e-11
-1.0528e-09
4.44071e-11
-3.54627e-10
-2.62299e-09
-3.58997e-10
-7.21494e-10
-5.20558e-09
-6.50131e-10
-1.27813e-09
-7.13942e-09
-8.42348e-10
-1.59084e-09
-7.76267e-09
-8.20652e-10
-1.95338e-09
-8.34278e-09
-7.87141e-10
-2.09793e-09
-8.00025e-09
-6.80371e-10
-2.24966e-09
-7.75775e-09
-5.98732e-10
-2.27128e-09
-7.01857e-09
-5.16595e-10
-2.2837e-09
-6.39741e-09
-4.73287e-10
-2.21604e-09
-5.55647e-09
-4.6619e-10
-2.11854e-09
-4.84859e-09
-4.93843e-10
-1.96878e-09
-4.11948e-09
-5.24645e-10
-1.80314e-09
-3.55248e-09
-5.47662e-10
-1.60773e-09
-3.06903e-09
-5.68988e-10
-1.40263e-09
-2.76499e-09
-5.77403e-10
-1.19707e-09
-2.5942e-09
-5.63003e-10
-1.01045e-09
-2.58189e-09
-5.14697e-10
-8.51404e-10
-2.6992e-09
-4.43047e-10
-7.21782e-10
-2.9317e-09
-3.51444e-10
-6.20418e-10
-3.21002e-09
-2.57199e-10
-5.4336e-10
-3.51778e-09
-1.62432e-10
-4.80928e-10
-3.80836e-09
-8.09629e-11
-4.22833e-10
-4.04243e-09
-1.84967e-11
-3.59855e-10
-4.17982e-09
2.28484e-11
-2.89677e-10
-4.18421e-09
4.72755e-11
-2.12682e-10
-4.03098e-09
5.90493e-11
-1.35108e-10
-3.69316e-09
6.33134e-11
-6.65783e-11
-3.14289e-09
6.31915e-11
-1.76102e-11
-2.3269e-09
5.5338e-11
-1.10508e-09
3.4668e-11
-2.23243e-10
-2.17211e-09
-2.27642e-10
-5.15056e-10
-4.48637e-09
-4.27399e-10
-9.32059e-10
-6.15662e-09
-5.65795e-10
-1.21402e-09
-6.89185e-09
-5.8886e-10
-1.52744e-09
-7.44153e-09
-5.8783e-10
-1.69077e-09
-7.30383e-09
-5.33097e-10
-1.8442e-09
-7.11597e-09
-4.88348e-10
-1.89207e-09
-6.52416e-09
-4.46534e-10
-1.91825e-09
-5.94152e-09
-4.29716e-10
-1.87764e-09
-5.15725e-09
-4.39821e-10
-1.81372e-09
-4.45332e-09
-4.59193e-10
-1.70483e-09
-3.74689e-09
-4.81481e-10
-1.56783e-09
-3.18077e-09
-5.08709e-10
-1.40353e-09
-2.70128e-09
-5.32052e-10
-1.23031e-09
-2.39735e-09
-5.40844e-10
-1.05483e-09
-2.23943e-09
-5.30248e-10
-8.91925e-10
-2.25602e-09
-4.8878e-10
-7.48224e-10
-2.41223e-09
-4.3067e-10
-6.30673e-10
-2.68992e-09
-3.5933e-10
-5.33895e-10
-3.02381e-09
-2.82988e-10
-4.56489e-10
-3.39273e-09
-2.02456e-10
-3.93047e-10
-3.74124e-09
-1.30561e-10
-3.37046e-10
-4.02662e-09
-7.18188e-11
-2.80983e-10
-4.20842e-09
-2.74664e-11
-2.20851e-10
-4.24704e-09
2.69557e-12
-1.5751e-10
-4.11372e-09
1.93979e-11
-9.58348e-11
-3.78341e-09
2.85741e-11
-4.38517e-11
-3.22925e-09
3.4381e-11
-9.66843e-12
-2.39619e-09
3.51122e-11
-1.14004e-09
2.52915e-11
-1.34231e-10
-1.89646e-09
-1.41417e-10
-3.35169e-10
-3.99807e-09
-2.87361e-10
-6.22398e-10
-5.48319e-09
-3.86202e-10
-8.4522e-10
-6.25067e-09
-4.18356e-10
-1.09345e-09
-6.7635e-09
-4.29793e-10
-1.2494e-09
-6.73752e-09
-4.10357e-10
-1.39706e-09
-6.57465e-09
-3.93675e-10
-1.47239e-09
-6.06736e-09
-3.81465e-10
-1.51878e-09
-5.51531e-09
-3.79827e-10
-1.50768e-09
-4.78777e-09
-3.80579e-10
-1.47507e-09
-4.10467e-09
-3.81259e-10
-1.40215e-09
-3.4263e-09
-3.93513e-10
-1.30728e-09
-2.86615e-09
-4.09497e-10
-1.18898e-09
-2.39885e-09
-4.20721e-10
-1.06025e-09
-2.1046e-09
-4.21483e-10
-9.2511e-10
-1.96514e-09
-4.09429e-10
-7.98294e-10
-2.00587e-09
-3.76965e-10
-6.80619e-10
-2.19283e-09
-3.37074e-10
-5.79193e-10
-2.50371e-09
-2.87636e-10
-4.91892e-10
-2.87453e-09
-2.36582e-10
-4.18114e-10
-3.27913e-09
-1.87383e-10
-3.51674e-10
-3.66432e-09
-1.43352e-10
-2.88628e-10
-3.98766e-09
-1.01999e-10
-2.26362e-10
-4.20538e-09
-6.53089e-11
-1.66643e-10
-4.27087e-09
-3.5885e-11
-1.10458e-10
-4.15403e-09
-1.58758e-11
-6.07539e-11
-3.8311e-09
-2.01209e-12
-2.3028e-11
-3.27651e-09
9.53225e-12
-2.35295e-12
-2.43455e-09
1.7682e-11
-1.15962e-09
1.72271e-11
-9.63546e-11
-1.70073e-09
-9.93687e-11
-2.62349e-10
-3.62297e-09
-2.09109e-10
-4.88066e-10
-4.96879e-09
-2.8869e-10
-6.76634e-10
-5.73704e-09
-3.25059e-10
-8.74363e-10
-6.22108e-09
-3.44695e-10
-1.00386e-09
-6.26348e-09
-3.44542e-10
-1.11659e-09
-6.12273e-09
-3.39194e-10
-1.17584e-09
-5.68167e-09
-3.26432e-10
-1.21849e-09
-5.16177e-09
-3.10886e-10
-1.2179e-09
-4.49587e-09
-2.92502e-10
-1.1954e-09
-3.85033e-09
-2.76843e-10
-1.14376e-09
-3.20897e-09
-2.68968e-10
-1.08412e-09
-2.66351e-09
-2.62278e-10
-1.00862e-09
-2.221e-09
-2.53359e-10
-9.24837e-10
-1.94718e-09
-2.41197e-10
-8.34344e-10
-1.82737e-09
-2.28266e-10
-7.45736e-10
-1.88376e-09
-2.10711e-10
-6.55932e-10
-2.08744e-09
-1.95202e-10
-5.68713e-10
-2.41463e-09
-1.76304e-10
-4.83541e-10
-2.80277e-09
-1.5693e-10
-4.03444e-10
-3.2231e-09
-1.36126e-10
-3.2751e-10
-3.62388e-09
-1.16381e-10
-2.5581e-10
-3.96303e-09
-9.63333e-11
-1.88238e-10
-4.19507e-09
-7.78825e-11
-1.26935e-10
-4.27144e-09
-6.07327e-11
-7.39699e-11
-4.16187e-09
-4.51275e-11
-3.23341e-11
-3.84328e-09
-2.94564e-11
-5.6438e-12
-3.29002e-09
-1.31794e-11
3.95027e-12
-2.44584e-09
1.6932e-12
-1.16575e-09
1.00864e-11
-7.23556e-11
-1.5556e-09
-7.27751e-11
-2.00645e-10
-3.33462e-09
-1.60063e-10
-3.72147e-10
-4.56856e-09
-2.28726e-10
-5.24995e-10
-5.3173e-09
-2.66892e-10
-6.80952e-10
-5.77681e-09
-2.88319e-10
-7.91165e-10
-5.86565e-09
-2.87618e-10
-8.8544e-10
-5.75598e-09
-2.72469e-10
-9.31115e-10
-5.38807e-09
-2.4792e-10
-9.527e-10
-4.91865e-09
-2.21534e-10
-9.42262e-10
-4.31312e-09
-1.93184e-10
-9.26275e-10
-3.7076e-09
-1.58715e-10
-9.01848e-10
-3.11241e-09
-1.20987e-10
-8.76516e-10
-2.60607e-09
-8.2768e-11
-8.42615e-10
-2.20265e-09
-5.22509e-11
-8.03285e-10
-1.95275e-09
-3.37676e-11
-7.60016e-10
-1.84363e-09
-2.70145e-11
-7.10365e-10
-1.90484e-09
-2.85728e-11
-6.48252e-10
-2.11053e-09
-3.90223e-11
-5.77159e-10
-2.43231e-09
-5.34101e-11
-4.94579e-10
-2.815e-09
-7.03558e-11
-4.05311e-10
-3.22964e-09
-8.27233e-11
-3.14679e-10
-3.6246e-09
-8.99096e-11
-2.29138e-10
-3.95713e-09
-9.14435e-11
-1.53759e-10
-4.18119e-09
-8.92537e-11
-8.99434e-11
-4.25317e-09
-8.20843e-11
-3.95893e-11
-4.14246e-09
-6.97568e-11
-5.73226e-12
-3.82484e-09
-5.23037e-11
1.05502e-11
-3.27453e-09
-3.1774e-11
1.00084e-11
-2.43474e-09
-1.05579e-11
-1.1599e-09
4.1502e-12
-6.10782e-11
-1.43478e-09
-5.97406e-11
-1.75373e-10
-3.08338e-09
-1.36943e-10
-3.20716e-10
-4.22295e-09
-2.00265e-10
-4.53274e-10
-4.94461e-09
-2.40135e-10
-5.79483e-10
-5.38589e-09
-2.64702e-10
-6.65694e-10
-5.51013e-09
-2.69308e-10
-7.29501e-10
-5.43605e-09
-2.56129e-10
-7.54588e-10
-5.13765e-09
-2.2534e-10
-7.62426e-10
-4.73122e-09
-1.79594e-10
-7.45491e-10
-4.20383e-09
-1.26234e-10
-7.26117e-10
-3.65913e-09
-6.7846e-11
-7.10732e-10
-3.12285e-09
-4.94486e-12
-7.05038e-10
-2.66869e-09
5.69202e-11
-7.03419e-10
-2.3104e-09
1.06129e-10
-7.04157e-10
-2.08878e-09
1.36777e-10
-6.99382e-10
-1.99196e-09
1.43556e-10
-6.80038e-10
-2.05254e-09
1.28351e-10
-6.38497e-10
-2.24799e-09
9.59207e-11
-5.79126e-10
-2.54336e-09
5.16705e-11
-4.96835e-10
-2.90027e-09
2.98401e-12
-3.99841e-10
-3.29055e-09
-3.60856e-11
-2.97739e-10
-3.6613e-09
-6.5407e-11
-2.00596e-10
-3.9651e-09
-8.91723e-11
-1.18003e-10
-4.15855e-09
-1.05231e-10
-5.12733e-11
-4.2116e-09
-1.08301e-10
-2.73751e-12
-4.09244e-09
-9.85612e-11
2.33863e-11
-3.7729e-09
-7.80603e-11
2.89139e-11
-3.22781e-09
-5.22506e-11
1.73224e-11
-2.39927e-09
-2.38737e-11
-1.14007e-09
-2.49904e-12
-5.61588e-11
-1.32415e-09
-5.44724e-11
-1.60061e-10
-2.85156e-09
-1.27919e-10
-2.87226e-10
-3.90599e-09
-1.89797e-10
-4.04612e-10
-4.59485e-09
-2.32379e-10
-5.09752e-10
-5.0201e-09
-2.60655e-10
-5.7841e-10
-5.17144e-09
-2.70035e-10
-6.21022e-10
-5.13423e-09
-2.59202e-10
-6.31308e-10
-4.9003e-09
-2.27059e-10
-6.28329e-10
-4.55997e-09
-1.74227e-10
-6.08268e-10
-4.12137e-09
-1.02518e-10
-5.86627e-10
-3.65869e-09
-2.20744e-11
-5.7369e-10
-3.19569e-09
5.9907e-11
-5.80048e-10
-2.80067e-09
1.38335e-10
-5.99222e-10
-2.49264e-09
2.01416e-10
-6.2517e-10
-2.30374e-09
2.40899e-10
-6.43359e-10
-2.22103e-09
2.47261e-10
-6.42377e-10
-2.2756e-09
2.22082e-10
-6.13028e-10
-2.45107e-09
1.73735e-10
-5.57044e-10
-2.70635e-09
1.07012e-10
-4.71633e-10
-3.02071e-09
3.50236e-11
-3.68597e-10
-3.36369e-09
-2.98961e-11
-2.58403e-10
-3.68703e-09
-8.44606e-11
-1.54799e-10
-3.94737e-09
-1.21326e-10
-6.63197e-11
-4.10673e-09
-1.40303e-10
4.19547e-13
-4.13659e-09
-1.41748e-10
4.30429e-11
-4.00724e-09
-1.27822e-10
5.91118e-11
-3.68587e-09
-1.03099e-10
5.11603e-11
-3.14781e-09
-7.2045e-11
2.5329e-11
-2.33628e-09
-3.71652e-11
-1.10538e-09
-9.36301e-12
-5.62047e-11
-1.21423e-09
-5.37144e-11
-1.59723e-10
-2.62012e-09
-1.27918e-10
-2.82058e-10
-3.59105e-09
-1.92605e-10
-3.95792e-10
-4.24252e-09
-2.38596e-10
-4.93446e-10
-4.65201e-09
-2.70433e-10
-5.57526e-10
-4.82306e-09
-2.84293e-10
-5.93147e-10
-4.81983e-09
-2.78776e-10
-5.94095e-10
-4.64891e-09
-2.50446e-10
-5.77407e-10
-4.37903e-09
-1.97634e-10
-5.49549e-10
-4.02811e-09
-1.21114e-10
-5.25712e-10
-3.65472e-09
-2.78052e-11
-5.09416e-10
-3.27822e-09
6.62337e-11
-5.12422e-10
-2.94813e-09
1.50467e-10
-5.33217e-10
-2.68996e-09
2.18113e-10
-5.63683e-10
-2.53437e-09
2.61105e-10
-5.85949e-10
-2.46594e-09
2.67179e-10
-5.86766e-10
-2.51112e-09
2.36337e-10
-5.56449e-10
-2.66039e-09
1.78999e-10
-4.9445e-10
-2.86967e-09
1.01317e-10
-4.02841e-10
-3.12948e-09
1.71682e-11
-2.92916e-10
-3.40857e-09
-6.50515e-11
-1.76453e-10
-3.66956e-09
-1.33929e-10
-6.9356e-11
-3.87782e-09
-1.76647e-10
1.76685e-11
-3.99854e-09
-1.95216e-10
7.61973e-11
-4.00168e-09
-1.93441e-10
1.04459e-10
-3.86158e-09
-1.73917e-10
1.03479e-10
-3.5472e-09
-1.37687e-10
7.65644e-11
-3.02566e-09
-9.52347e-11
3.40402e-11
-2.24086e-09
-5.2887e-11
-1.05356e-09
-1.77847e-11
-5.9458e-11
-1.09761e-09
-5.71625e-11
-1.66617e-10
-2.37799e-09
-1.34976e-10
-2.92728e-10
-3.26077e-09
-2.04172e-10
-4.13875e-10
-3.86484e-09
-2.56528e-10
-5.15627e-10
-4.25404e-09
-2.96223e-10
-5.82385e-10
-4.43838e-09
-3.17928e-10
-6.16502e-10
-4.46616e-09
-3.19554e-10
-6.15486e-10
-4.35211e-09
-2.9782e-10
-5.92577e-10
-4.14976e-09
-2.5218e-10
-5.56685e-10
-3.88026e-09
-1.83748e-10
-5.24413e-10
-3.5907e-09
-9.62964e-11
-5.01272e-10
-3.30083e-09
-5.34106e-13
-4.90798e-10
-3.04369e-09
8.5094e-11
-4.96089e-10
-2.83313e-09
1.48463e-10
-5.11479e-10
-2.70555e-09
1.86566e-10
-5.19123e-10
-2.6484e-09
1.90104e-10
-5.05905e-10
-2.68285e-09
1.58513e-10
-4.64278e-10
-2.80296e-09
1.00942e-10
-3.90545e-10
-2.96259e-09
1.91862e-11
-2.88876e-10
-3.16168e-09
-6.94767e-11
-1.71906e-10
-3.37616e-09
-1.49376e-10
-5.35938e-11
-3.57633e-09
-2.11549e-10
5.02496e-11
-3.73282e-09
-2.48841e-10
1.27693e-10
-3.8141e-09
-2.61886e-10
1.69764e-10
-3.79041e-09
-2.53336e-10
1.74445e-10
-3.63678e-09
-2.29484e-10
1.47735e-10
-3.32845e-09
-1.92043e-10
1.00311e-10
-2.83387e-09
-1.44364e-10
4.20583e-11
-2.09567e-09
-8.69429e-11
-9.81395e-10
-3.0103e-11
-6.42756e-11
-9.69393e-10
-6.39454e-11
-1.83251e-10
-2.10781e-09
-1.51205e-10
-3.20934e-10
-2.89814e-09
-2.24942e-10
-4.53974e-10
-3.44912e-09
-2.82678e-10
-5.66374e-10
-3.81265e-09
-3.28984e-10
-6.43992e-10
-4.00144e-09
-3.59321e-10
-6.85361e-10
-4.05363e-09
-3.71163e-10
-6.89388e-10
-3.98699e-09
-3.61085e-10
-6.66437e-10
-3.84418e-09
-3.28533e-10
-6.25398e-10
-3.64653e-09
-2.74763e-10
-5.80425e-10
-3.43165e-09
-2.04028e-10
-5.39623e-10
-3.21785e-09
-1.23775e-10
-5.07274e-10
-3.02933e-09
-4.67124e-11
-4.84116e-10
-2.86782e-09
1.15352e-11
-4.70244e-10
-2.76247e-09
4.30455e-11
-4.47958e-10
-2.71527e-09
4.45832e-11
-4.05975e-10
-2.74026e-09
1.54303e-11
-3.41651e-10
-2.8278e-09
-3.94865e-11
-2.49613e-10
-2.94042e-09
-1.14209e-10
-1.36599e-10
-3.08347e-09
-1.91223e-10
-1.56424e-11
-3.23954e-09
-2.57579e-10
9.91793e-11
-3.38485e-09
-3.06294e-10
1.92837e-10
-3.49452e-09
-3.31961e-10
2.54072e-10
-3.54094e-09
-3.34396e-10
2.75567e-10
-3.4967e-09
-3.15213e-10
2.56169e-10
-3.33675e-09
-2.80636e-10
2.01821e-10
-3.03861e-09
-2.3549e-10
1.27968e-10
-2.57769e-09
-1.82333e-10
5.08931e-11
-1.90287e-09
-1.15725e-10
-8.88208e-10
-4.22943e-11
-6.91172e-11
-8.28552e-10
-7.17239e-11
-2.00715e-10
-1.80835e-09
-1.6786e-10
-3.52667e-10
-2.50034e-09
-2.45847e-10
-5.0156e-10
-2.99085e-09
-3.09382e-10
-6.30245e-10
-3.32054e-09
-3.63424e-10
-7.24513e-10
-3.50374e-09
-4.03432e-10
-7.7999e-10
-3.57067e-09
-4.27487e-10
-7.94744e-10
-3.53966e-09
-4.32579e-10
-7.75827e-10
-3.44525e-09
-4.17841e-10
-7.31126e-10
-3.30735e-09
-3.83885e-10
-6.72885e-10
-3.15516e-09
-3.34724e-10
-6.09119e-10
-3.00423e-09
-2.77388e-10
-5.48031e-10
-2.86989e-09
-2.20528e-10
-4.88247e-10
-2.75398e-09
-1.73621e-10
-4.34801e-10
-2.67063e-09
-1.45289e-10
-3.73205e-10
-2.63376e-09
-1.43108e-10
-2.95443e-10
-2.65044e-09
-1.67581e-10
-2.01088e-10
-2.70753e-09
-2.14618e-10
-8.61356e-11
-2.78154e-09
-2.73833e-10
3.9289e-11
-2.87674e-09
-3.32149e-10
1.6272e-10
-2.98333e-09
-3.79634e-10
2.70712e-10
-3.08239e-09
-4.10453e-10
3.49547e-10
-3.15353e-09
-4.19824e-10
3.89508e-10
-3.17308e-09
-4.0782e-10
3.85611e-10
-3.1167e-09
-3.76098e-10
3.39631e-10
-2.96099e-09
-3.29772e-10
2.58686e-10
-2.68445e-09
-2.73214e-10
1.59037e-10
-2.2668e-09
-2.11238e-10
6.06948e-11
-1.66678e-09
-1.37742e-10
-7.74435e-10
-5.30782e-11
-7.53595e-11
-6.75905e-10
-7.72879e-11
-2.17292e-10
-1.48806e-09
-1.78357e-10
-3.82512e-10
-2.07278e-09
-2.6234e-10
-5.48496e-10
-2.49353e-09
-3.31333e-10
-6.95991e-10
-2.78113e-09
-3.9192e-10
-8.09913e-10
-2.94885e-09
-4.40971e-10
-8.8279e-10
-3.02043e-09
-4.77355e-10
-9.10926e-10
-3.01322e-09
-4.98303e-10
-8.98309e-10
-2.95513e-09
-5.02733e-10
-8.51416e-10
-2.86353e-09
-4.90711e-10
-7.79752e-10
-2.76148e-09
-4.6535e-10
-6.9217e-10
-2.65962e-09
-4.32189e-10
-6.01342e-10
-2.5656e-09
-3.95115e-10
-5.05664e-10
-2.488e-09
-3.6166e-10
-4.0656e-10
-2.43012e-09
-3.39606e-10
-3.01826e-10
-2.39967e-09
-3.38821e-10
-1.87723e-10
-2.40475e-09
-3.59802e-10
-5.88647e-11
-2.43953e-09
-3.96863e-10
8.09621e-11
-2.48535e-09
-4.36008e-10
2.18207e-10
-2.54308e-09
-4.70911e-10
3.41976e-10
-2.61054e-09
-4.96562e-10
4.40418e-10
-2.67371e-09
-5.07124e-10
5.01689e-10
-2.71612e-09
-4.98678e-10
5.18267e-10
-2.71795e-09
-4.71705e-10
4.87549e-10
-2.65816e-09
-4.27821e-10
4.14038e-10
-2.51593e-09
-3.71557e-10
3.0765e-10
-2.272e-09
-3.06068e-10
1.85361e-10
-1.90818e-09
-2.3633e-10
6.8455e-11
-1.39319e-09
-1.56684e-10
-6.43389e-10
-6.2591e-11
-7.92881e-11
-5.15985e-10
-8.0632e-11
-2.27381e-10
-1.15572e-09
-1.84245e-10
-4.02678e-10
-1.62623e-09
-2.71254e-10
-5.83119e-10
-1.97011e-09
-3.42983e-10
-7.47952e-10
-2.20826e-09
-4.08034e-10
-8.80981e-10
-2.35149e-09
-4.64325e-10
-9.71544e-10
-2.41832e-09
-5.11554e-10
-1.01374e-09
-2.42392e-09
-5.47102e-10
-1.00865e-09
-2.39025e-09
-5.69973e-10
-9.60534e-10
-2.33232e-09
-5.79334e-10
-8.77794e-10
-2.26717e-09
-5.77046e-10
-7.70926e-10
-2.20114e-09
-5.65354e-10
-6.50388e-10
-2.14013e-09
-5.46012e-10
-5.19126e-10
-2.0913e-09
-5.27967e-10
-3.77813e-10
-2.05614e-09
-5.15292e-10
-2.31395e-10
-2.03133e-09
-5.14758e-10
-7.96158e-11
-2.02798e-09
-5.28547e-10
7.79188e-11
-2.04523e-09
-5.51832e-10
2.35276e-10
-2.06984e-09
-5.72876e-10
3.8087e-10
-2.10159e-09
-5.87084e-10
5.02768e-10
-2.14094e-09
-5.91495e-10
5.90092e-10
-2.17872e-09
-5.82319e-10
6.32954e-10
-2.20208e-09
-5.56903e-10
6.26239e-10
-2.1951e-09
-5.16136e-10
5.70062e-10
-2.14019e-09
-4.61799e-10
4.71725e-10
-2.01958e-09
-3.9801e-10
3.43297e-10
-1.81682e-09
-3.2675e-10
2.0381e-10
-1.51705e-09
-2.51643e-10
7.44688e-11
-1.09708e-09
-1.66773e-10
-5.00503e-10
-6.84172e-11
-7.87172e-11
-3.57764e-10
-7.95038e-11
-2.27204e-10
-8.26371e-10
-1.80863e-10
-4.06158e-10
-1.18113e-09
-2.66149e-10
-5.94948e-10
-1.4442e-09
-3.37114e-10
-7.72206e-10
-1.6276e-09
-4.03407e-10
-9.20449e-10
-1.73955e-09
-4.63695e-10
-1.02614e-09
-1.79393e-09
-5.18702e-10
-1.08117e-09
-1.80329e-09
-5.65604e-10
-1.08369e-09
-1.78442e-09
-6.03313e-10
-1.03613e-09
-1.74929e-09
-6.30589e-10
-9.45344e-10
-1.70952e-09
-6.48436e-10
-8.23779e-10
-1.6685e-09
-6.54205e-10
-6.79761e-10
-1.63287e-09
-6.51279e-10
-5.19508e-10
-1.60458e-09
-6.4697e-10
-3.46761e-10
-1.58487e-09
-6.44021e-10
-1.68952e-10
-1.56623e-09
-6.42917e-10
1.13077e-11
-1.55933e-09
-6.48908e-10
1.90003e-10
-1.56464e-09
-6.59285e-10
3.58864e-10
-1.5744e-09
-6.64298e-10
5.08601e-10
-1.59058e-09
-6.60742e-10
6.25697e-10
-1.61148e-09
-6.46557e-10
7.00446e-10
-1.63275e-09
-6.20714e-10
7.25336e-10
-1.64535e-09
-5.8162e-10
6.97632e-10
-1.63686e-09
-5.30533e-10
6.20034e-10
-1.59343e-09
-4.69163e-10
5.02317e-10
-1.50042e-09
-4.01443e-10
3.58969e-10
-1.34492e-09
-3.28547e-10
2.10158e-10
-1.11522e-09
-2.53023e-10
7.64648e-11
-7.95898e-10
-1.67489e-10
-3.54162e-10
-6.98764e-11
-7.22603e-11
-2.12744e-10
-7.27597e-11
-2.11798e-10
-5.21311e-10
-1.65523e-10
-3.85228e-10
-7.64616e-10
-2.43082e-10
-5.7354e-10
-9.47669e-10
-3.0822e-10
-7.55514e-10
-1.07451e-09
-3.7111e-10
-9.12614e-10
-1.15136e-09
-4.31096e-10
-1.02884e-09
-1.18834e-09
-4.89367e-10
-1.09388e-09
-1.19514e-09
-5.43101e-10
-1.10367e-09
-1.18363e-09
-5.90998e-10
-1.059e-09
-1.16271e-09
-6.31253e-10
-9.66136e-10
-1.13936e-09
-6.63021e-10
-8.36578e-10
-1.1166e-09
-6.81455e-10
-6.79141e-10
-1.09806e-09
-6.9225e-10
-5.01707e-10
-1.08353e-09
-6.98482e-10
-3.10905e-10
-1.07313e-09
-7.02545e-10
-1.15424e-10
-1.06085e-09
-7.00857e-10
7.96023e-11
-1.05386e-09
-7.00492e-10
2.67747e-10
-1.0526e-09
-7.00183e-10
4.40451e-10