/*--------------------------------*- C++ -*----------------------------------*\
| =========                 |                                                 |
| \\      /  F ield         | OpenFOAM: The Open Source CFD Toolbox           |
|  \\    /   O peration     | Version:  v1912                                 |
|   \\  /    A nd           | Website:  www.openfoam.com                      |
|    \\/     M anipulation  |                                                 |
\*---------------------------------------------------------------------------*/
FoamFile
{
    version     2.0;
    format      ascii;
    class       volScalarField;
    location    "6/oil";
    object      wallHeatFlux;
}
// * * * * * * * * * * * * * * * * * * * * * * * * * * * * * * * * * * * * * //

dimensions      [1 0 -3 0 0 0 0];


internalField   uniform 0;

boundaryField
{
    maxY
    {
        type            calculated;
        value           uniform 0;
    }
    minX
    {
        type            calculated;
        value           uniform 0;
    }
    maxX
    {
        type            calculated;
        value           uniform 0;
    }
    minY
    {
        type            calculated;
        value           uniform 0;
    }
    minZ
    {
        type            calculated;
        value           uniform 0;
    }
    maxZ
    {
        type            calculated;
        value           uniform 0;
    }
    oil_to_sphere
    {
        type            calculated;
        value           nonuniform List<scalar> 
1536
(
87594.6
89539
87078
86790
76552.5
76965.3
75973.4
60380.1
58255.3
96006
76515.4
96899.4
96511.3
95668.6
85834.1
75742.7
60853.2
58810.3
24776.3
96858.6
95496.9
77498.9
76597.9
76263.3
79934.7
79786.9
79305
76522.6
89913.1
89624.6
86525.4
70461.3
65949.7
79722.6
76036.2
75247.4
72788.7
82655.2
78786.8
82563.8
78486.6
75602.6
90808
96421.7
91234.2
95521.3
77707.5
77510.3
85285.3
78629.6
78348.9
78050.9
76073.7
76495.8
67832.2
64813
77037.7
76519.4
58999.8
45117.5
47871.4
44613.3
47264
96968
97041.3
96117.5
91596.5
95389.7
89158.9
91107
79892.5
78574.5
87132.8
79126.1
76201.2
65258.9
64018.6
62947.3
75792
59041.1
44712.7
47436.4
41543.1
41305.6
49304.1
47604.8
41783.1
60416.9
58278.9
44824.6
47391
24769.1
24795.4
97377.5
97174.8
96417
91928.8
93939.9
94779.9
89004.5
91712.7
79863
87314.4
86600.2
78896.7
79107.2
76507.1
63095.1
75485.4
65659.1
64094
65779.8
45071.1
47803.7
41886
41966.4
41512.9
49113.1
47732.9
49623.8
58417.3
47472
24920.2
96075.2
89091.6
91482.8
89254.1
91033.7
78414.8
78910.5
78808.4
78559.3
78113.2
78234.8
78584
78123.8
76804.3
65169.3
76112.8
75907.7
45331.1
48052.4
60956.4
59090.8
47271.8
58191.3
84811.5
83307.3
77004.1
78969.4
86001
83325.5
77771.5
78236.1
76944.2
72472.2
68736.9
69549.9
84153.6
82822.9
82758.7
86040.2
81634
79062.6
75605.1
72953.9
76943.6
73736.7
69058.4
69998.1
89723.4
82640
90395.9
81982
71302.8
64834
84168.8
84572.7
84799.7
81639.9
81879
79047
72630.8
77959.7
73590.1
69198.5
70957.7
91459.9
83609.4
86154.7
89373.9
84230.3
87384.6
85853.5
71586.8
74070.5
72504.7
73318
71296.4
72218.9
73450.7
75886.3
58591.6
57083.7
56273.1
59700.5
61095.5
60757.6
62573.5
63153.8
57878.9
55525.9
53750
93303.5
96533.4
95345.8
94056.9
93694.1
93791.9
94609.5
92864.2
94913.3
91641.3
93130.1
93505.9
83655.7
84348.8
90409.6
87591.6
82340.2
73168.1
73472.8
76968.7
72213.9
57753.4
59239.9
57054.7
60261.3
60932.8
56773.9
55123.6
38780.3
36254.9
95333.1
95318.4
95519.7
94040.4
95492
97719
96119.4
93877.4
85487.9
80737.6
84322.2
84009.3
72194.1
75831.5
58876.8
56228.8
62312.1
64990.3
63095.9
54185.5
36159.6
38604.9
31368
31179
38890.7
93841.1
92702.4
92110.6
91356.9
92648.4
94640.1
93046.7
94919.9
97269
96167.2
93774.4
87345.5
83893.3
85009.5
87091.5
90364
88047.8
85014.4
84771.1
72797.6
73168.4
74507.8
75016
73502.6
75623.1
56365.3
55519.9
57385
60092.3
59097
60691.3
60759.8
60723.2
56323.9
54891.7
58986.4
57223
79399.1
77551.5
77321.5
72299.4
72058.3
69106.5
68411.1
90295.7
88558
90950.1
89679.1
87737.3
90503.4
91126
92229.3
93880
90976.1
91223.4
90980.5
96147.4
94310.6
93038.5
91859.9
95231
95797.4
92084.9
89220.1
89924.3
91166.2
87761.3
90722
91710.6
93012.6
94317.8
94907.2
94757.5
93482.1
91806.6
91701.2
91949.8
93163.5
90780.3
91052.7
87896.2
91019.1
87953.7
88748.3
91564.5
83418.6
87887.6
84799.2
85422.8
82739.4
80986
87782.2
84077.3
84985.1
86467.8
81468.5
81789.3
83588.4
80692.5
82327
78942.5
85680.5
88464.4
84599.9
85727
86297.3
81902.9
82206.2
82128.1
72544.1
73562
72541
68525.2
67141.5
68998.8
65660.5
64265.4
72932
73613.7
72816.8
69150.2
67725
70242.2
65267.9
64238.2
62445.2
71666.8
64544.4
68668.1
67723.4
69545.6
65493.8
72884.8
74129.1
73213.6
74507.3
64363.1
62795.9
69158.7
68018.5
70099.7
65260.7
63914.1
59803.1
59023.2
59666.7
58963.5
56257.3
56253.2
54796.8
58886.9
56143.2
62190.5
54393.8
55323.9
53241
51765.5
54260.9
53146.8
50982.1
49451.2
46814.7
59136.5
57512.9
56629.2
59848.5
55405.6
56585.2
50749.1
49122.1
48186.8
46778.2
53324.9
52032.2
54436
53180.4
52643.7
60055.2
59180.8
60366.4
60764.9
56502.9
54889.5
58502.4
56921.8
103605
102048
99965.2
102897
98663.8
99335.1
100726
97184.2
97299.1
98048.5
97858.1
92708.5
95052.9
92152.3
91708.5
91404.1
90879.7
92475.1
91556.3
94908.1
95584.7
89952.4
92834.2
91073.2
92215.4
90773.6
93687.3
91419.9
95190.7
93582.9
95325.5
93735.7
90464.5
91389.5
88345.8
87248.6
82069.6
85819.9
84421.8
78683.8
81997.8
82129.9
85891.1
78508.7
84638.8
78512.4
82114.2
78559.6
76983.3
77201.1
72903.8
72547.2
68515.8
69530.1
68198.2
67636.1
65306
71637.1
64377.8
75437.2
72502.9
68650.2
55630.5
53362.6
52183.6
54931.9
53524
58592.4
55925.4
62237.3
54146.6
50862.5
49645.6
47051.5
43474.9
41106.1
43974.7
41136.2
45625
47933.8
45540.7
43030.9
43571.7
57203.9
59011.9
56453.7
59639.9
54036.9
52318.5
54579.4
53069.5
57626.9
55180.5
60386.1
62140
53840.2
50654.2
53071
49298.8
46812.2
51638.3
38575.4
36287.5
39165.2
36622.9
31691.9
31659.7
31414.3
31445.8
36043.7
102001
98617.9
99611.6
99059.2
98364.4
102217
100228
97987.6
97206.2
94612
97774.1
97465.1
99827.6
95386.5
95309.7
95884.3
95888
90142
92126.6
88703.4
94576.2
92226.2
91875.7
91522
92780.4
90978.2
92381.3
93812.5
91072.7
89121.7
88531.6
94046.9
94817.4
90419
93122.4
89849.9
88568.9
94537.6
92065.3
91665.5
92624.3
91182.1
90616.6
92056.1
93679.4
90987.6
88302.3
84558.7
84750.6
82297.4
79063.1
80714.3
85991.7
82920.9
86158.5
83289.6
82595.8
81306
82042.8
82102
78845
78310.3
72863
77124
71928.6
74839.3
69481.4
68861.8
78070.5
76287
65419.9
71606
64227.9
71947.6
66849.8
64399.6
68361.3
70044.4
70577
68781.3
69141.2
77160.7
72587.5
51079.5
49768.6
49483.2
47492.7
59375.1
57483.9
56852.9
60164.6
55856.3
56695.8
52644
54911.1
54697.6
53533.3
52689.4
45949.3
45741.4
47970.2
43211.3
43751.1
41109.9
43619
43776
41188.7
47726.8
45327
45708.4
48138.1
43063.4
57600.7
55265
60670.2
62031.1
53925.8
50636.4
53118.5
49002.1
48708.8
51776
56888.1
55030.1
58560.7
57288.4
56379.8
59718.4
60820.4
51978.1
53161.4
54405.7
53080.5
52679
31594.1
31702.6
39040.7
38733.5
36568.7
36079.4
41382.8
38766.1
35981.1
89042.4
91658
90774.7
87234.6
90889.3
88681.7
88341.7
95291.1
93787.6
95677.8
94099.6
89972.2
91638.9
90799.7
93218
91071
92158.9
89585.7
90692.2
94432.7
92198.3
91066.9
92405.3
90876.7
90785
91615
88224.4
88307.8
90625.7
91202.2
89830.3
91782.8
90774.8
94305.3
90897.6
88489.3
89768.9
91184
88869.8
88424.5
91695.2
84809.8
82034.7
82237.9
82846.6
79188.9
87650.2
83698
84071.4
86338.5
82543.5
82776.5
81456.7
86832.1
83653.5
84822.3
86635.6
81197.8
81965.3
83084.4
83083.8
79266.6
86600.8
88128.8
84994.3
85919.4
82561.7
82737
82234.9
82289.9
79213.7
69052.2
67941.8
69778.7
65558.3
64138.9
62943.7
73444.2
71985.9
73558
72757.5
67643.2
69029.6
68963.4
64814
63783.9
64009.5
72809.8
72970.9
73827.9
72706.2
75448.2
64084
64423.7
68769.5
67413.3
69258.8
64732.6
63742.5
74270.7
72798.7
72572.4
73627.7
75786.3
64405
63516.4
67748.3
69146.9
69596
59251.7
59939.8
56663.8
56195.3
54893.8
59882.7
58914.2
60751.9
53375.2
52038.6
54419.1
53080.3
51745.6
54700.2
50070.4
47241.8
52506.5
57566.4
58878.2
56424.1
60202.8
64452.2
67899.1
60509.8
57337
54688.5
56063.9
58584.6
50794.5
53160.4
49237.3
48625.6
51552.4
53913.8
52291.5
54262.9
53951.1
52623.7
60850.5
64027.3
58072.4
55606.5
53836.8
59972.2
60654.3
57486.8
59062.5
56696.9
86592.2
85735.7
64034.1
61273.2
94802.2
93754.6
94541.1
94530.3
94157.2
85192
87775.2
86426.7
87688.5
75544.3
77075.3
62360.7
41106.4
39538.8
87428.7
86477.1
60310.2
41383.3
39407.9
44938.9
94203.6
85117
76913.1
44610.5
87596.3
86982.3
87543.2
75887
77833.4
77594.5
60237.3
87118.6
87466.6
79149.9
78298.7
87082.1
78531.4
78418.3
74659.8
75199.7
63017.5
66319.1
66543.3
85938.4
86803.9
78650
80792.5
75361.9
76109.8
63133.6
66277.4
65480.5
85794.3
87838.7
79134.4
81362.7
66121.2
63766.8
67277.9
72578.1
81939.2
81298.6
88946.3
89455
78295.6
78271.6
76641.9
78681.9
65314
64025.6
66612.3
61095.8
97614.8
96293.1
87363.8
93426.1
87223.8
94869.5
94237.8
77812.4
85536.6
85202.9
86542.1
85668.5
76716
66806.8
66242.5
66151.4
66749
65936.9
65561.7
50978.8
61548.5
49569.9
51287.4
96902.1
96838.7
100176
97099.6
99572.8
97688.6
95906.7
96743.5
97732
96034.5
88816
93961
88541.7
89747.9
88078.1
78997.2
81656
85261.7
88244.7
78689.6
87040
78588.8
64167
67109
68142.9
65299.7
66756.9
65903.6
61164.9
51190.1
49167.2
47438.4
49649.3
61219.8
51136.2
39784.8
40487.2
39372.9
97673.4
98768.9
97700.1
100460
96528.8
97488
97237.4
99071.3
95786.6
88778.9
93634
87687.3
94835.6
94002.9
93446.3
94035.6
90370.5
87521.3
87714.5
78437.5
82315.3
87935.4
85689.4
87147.8
78208.3
63649.8
67250.7
75445.6
76853.8
65283.9
68479.4
64669.3
66150.5
76174.9
61958.7
51230
47258.7
49283.8
47442
61202
51139.7
39999.7
39438.3
39601.2
97079.4
89215.6
87893.2
94818.7
87392
78529.3
86729.8
85911.1
86255.7
86133.9
66002
67981.9
66148
65660.7
65813.9
51056.5
62669.6
51579.6
62369.3
88003.6
84313.4
82916.7
83216.5
87324.9
85553.9
70984.2
74502.7
72641.8
84783.3
87550.1
86223.6
82906.4
86518.9
80929.7
82460.3
82466.7
81680.5
86332.7
83106
86196.1
81934.6
81941.1
82107.9
82065.5
74148.9
73994.1
71662.3
69239.2
67421.4
64670.3
68906.9
66865.7
69592.2
88380.4
84095.7
83260.6
85788.7
85740.9
81404.1
81516.6
80456.2
77598.1
82415.3
72677.8
75425.6
74589.3
71707.8
69705.5
67670.8
64775.1
68281.4
66856.8
69882.9
86016.9
86139.5
81861.4
81336.3
80802
77620.2
82218.1
74669.9
68974.4
66351.3
70904.3
70180.2
73182.5
92525.9
93012.3
92640.5
93614.8
82152.8
86465.2
85824.4
73030.8
73405.9
75813.8
75993.4
74805.5
60847.6
63890.6
62702
57065.9
55998.3
64490.5
61249.8
61284.8
93779.8
94217.7
95930.1
92325.7
83026.2
86235.3
81145.7
87000.6
83823.8
74113.9
73433.2
71621.9
61742.1
65934.5
63000.1
57599.7
45558.8
46719
43310.2
43499.9
40929
38919.3
93633.4
92926.1
93770.9
92626.2
94959.9
83765.4
86543.4
86631.1
72344.6
56350.4
62493.8
43859.2
41142.7
39096.4
35641.7
46833.4
93672.5
92879.7
95213.4
92675.5
94977.3
93494.5
93388.4
92739.4
93087.9
80909.1
82056.4
88928.8
84944.9
75358.2
74691.6
61239.1
64278
61693.6
58659.8
62654.5
56533
47043.9
74330.2
62341.2
89474.5
88693.7
82608.3
83361.4
73989.9
73894.8
73339
68056
66381.9
70693.7
67840
69423.8
65610.2
96655.4
95663.2
86816.6
86630.4
89378.2
92083.2
91848.2
91283
87034.9
89341.3
88960.3
91406.6
87756.5
90595.4
93572.3
93043.9
92931.2
93273.6
88418.2
88670.1
90258.5
91406.2
93743.4
94916.7
93591
95407.8
91003.2
88392.8
89835.6
95009.1
93382.3
94382.3
92705.6
88225.4
92928.4
92808.6
91179.5
88277.3
89381.2
88464.8
82088.5
82464.4
87403.6
84334.8
81945.9
82548.7
78351.8
79240.7
78216.5
82335
86279.3
85478
79110.4
78667.1
82634.7
79624.1
82728.8
86184.6
83223.3
78773.1
74410.8
75337.8
69971.9
70523.6
63829
75576.5
69723.4
70982.5
64247.9
73686.5
75930.6
70595.4
64175.5
75388.1
68943.1
69835.6
61132.4
61088
56213.9
56389.6
52430.9
52678.9
56712.9
53741.5
52270.9
49459.1
48007.2
47836.5
49907.7
61107.7
57167.1
53249.9
51620.8
49326.4
49832.2
47866.6
58522.9
60998.1
52815.6
97257.1
95069.8
98546.3
95809.5
94792.3
98852.8
94869.5
102044
96073.8
95323.1
95930.4
98657.6
96283.6
98064.2
100606
99359.2
96572.3
97169.6
89837.8
93979
95976.7
93160.8
88876.5
90779.3
89952.4
93605.9
92312.5
93771.1
92754.7
95351.9
90707.5
88153.2
88340.9
90225.6
94795
92832.2
92645.1
91122.2
81168.5
80272.8
78416.1
86194.5
86318.5
82600.4
81822.3
82844.4
83136.5
84155.7
86566.8
81657.6
74156.7
69525.4
68001.7
71752.1
74287.2
67108.5
69468
70465.9
72784.2
69453.6
67256.5
64449.1
49845.9
48431.6
48044.7
56443.9
53562.6
51897.1
49518.4
61225.3
62480.7
49768.5
48322.4
55971.8
49308
39077.7
39191.9
36242.5
41411.4
35825.8
39254.2
41981.9
97833.9
97063.4
100929
95698
95668.3
93790.1
94830.3
94528.6
97894.7
99535.6
98430.7
96417.3
93766.5
94238.3
96002
95103.9
95777.3
89743.5
95719
90398.2
94771.3
94418.4
92423.4
87448.1
92031.9
90545
93246
92703.4
91031.6
93247.5
92092.6
89528.2
89520.2
86273.2
81932.5
87800.4
83446.3
82794.5
80614.8
77676
82053.1
86466.6
82463.8
82359.5
73261.8
67753.1
70327.2
72362.6
73869.1
67903.6
69534.4
71197.5
69233.2
67051.6
73959.1
73710.3
53712.6
51907.5
49630
61872.3
57619.3
50103.1
48523.5
56088.7
49431.8
60794.5
49657.5
36082.3
39258
41990.1
97048.2
92379.2
87515
91258.6
87864.7
87768.1
89647.7
95274.1
93239.9
93063.9
89171.6
89153.7
90214.8
91324.4
93994.5
92458
92856.9
92657.6
91133.6
88638.9
91658.6
89222.9
88970.4
83345.8
78977.8
82874.2
87611.1
83247.2
81463.8
78200.8
78085.4
82646.8
86761.9
78484.9
82867.3
86780.3
79106.9
69637.3
64977.7
73174
75156.9
74117
69836.8
71175.5
74910.5
68819.5
75428.2
69052.5
52589.2
60819.7
49601
48260.7
50184.7
61142
64010.4
56809.1
49228
50185.4
55901.8
61376.5
)
;
    }
}


// ************************************************************************* //
