/*--------------------------------*- C++ -*----------------------------------*\
| =========                 |                                                 |
| \\      /  F ield         | OpenFOAM: The Open Source CFD Toolbox           |
|  \\    /   O peration     | Version:  v1906                                 |
|   \\  /    A nd           | Web:      www.OpenFOAM.com                      |
|    \\/     M anipulation  |                                                 |
\*---------------------------------------------------------------------------*/
FoamFile
{
    version     2.0;
    format      ascii;
    class       volScalarField;
    location    "77.2/sphere";
    object      T;
}
// * * * * * * * * * * * * * * * * * * * * * * * * * * * * * * * * * * * * * //

dimensions      [0 0 0 1 0 0 0];


internalField   nonuniform List<scalar> 
304
(
459.778
459.806
459.8
459.817
459.776
459.767
459.777
459.806
459.776
459.916
459.916
459.817
459.8
459.91
459.911
459.842
459.803
459.835
459.763
459.805
459.821
459.777
459.806
459.916
459.916
459.846
459.818
459.911
459.911
459.868
459.764
459.834
459.862
459.798
459.778
459.819
459.846
459.782
459.779
459.843
459.868
459.805
459.764
459.798
459.753
459.765
459.778
459.779
459.78
459.811
459.778
459.779
459.812
459.78
459.766
459.778
459.781
459.778
459.811
459.806
459.805
459.82
459.818
459.847
459.846
459.87
459.778
459.82
459.806
459.847
459.818
459.87
459.846
459.778
459.781
459.811
459.779
459.772
459.772
459.804
459.765
459.817
459.764
459.796
459.84
459.867
459.804
459.837
459.802
459.797
459.767
459.867
459.842
459.838
459.807
459.806
459.775
459.767
459.75
459.765
459.762
459.797
459.762
459.797
459.763
459.762
459.75
459.779
459.777
459.777
459.81
459.806
459.818
459.848
459.805
459.822
459.847
459.872
459.778
459.848
459.818
459.822
459.806
459.872
459.847
459.78
459.778
459.811
459.778
459.818
459.805
459.846
459.805
459.847
459.82
459.87
459.776
459.846
459.806
459.847
459.806
459.87
459.82
459.841
459.765
459.806
459.817
459.867
459.797
459.837
459.802
459.807
459.767
459.868
459.818
459.838
459.798
459.764
459.765
459.797
459.763
459.834
459.761
459.792
459.835
459.862
459.792
459.81
459.803
459.792
459.761
459.862
459.835
459.81
459.793
459.797
459.765
459.762
459.776
459.778
459.811
459.782
459.821
459.847
459.872
459.777
459.805
459.819
459.847
459.805
459.872
459.846
459.805
459.775
459.846
459.816
459.81
459.777
459.778
459.848
459.821
459.871
459.78
459.82
459.807
459.847
459.806
459.87
459.821
459.818
459.778
459.846
459.806
459.868
459.798
459.838
459.804
459.843
459.768
459.808
459.818
459.838
459.798
459.842
459.802
459.807
459.767
459.797
459.763
459.764
459.862
459.792
459.811
459.804
459.835
459.762
459.793
459.836
459.811
459.794
459.836
459.805
459.794
459.764
459.766
459.763
459.765
459.769
459.777
459.781
459.81
459.777
459.81
459.778
459.777
459.765
459.784
459.78
459.812
459.78
459.847
459.847
459.871
459.78
459.806
459.807
459.82
459.818
459.87
459.846
459.805
459.776
459.82
459.805
459.811
459.779
459.777
459.808
459.769
459.775
459.868
459.807
459.838
459.802
459.818
459.766
459.798
459.842
459.838
459.807
459.817
459.801
459.798
459.767
459.774
459.767
459.773
459.753
459.798
459.764
459.766
459.765
459.764
459.766
)
;

boundaryField
{
    sphere_to_oil
    {
        type            compressible::turbulentTemperatureCoupledBaffleMixed;
        refValue        nonuniform List<scalar> 
360
(
332.82
332.82
322.483
356.305
363.723
325.209
364.746
364.746
364.746
343.443
343.443
329.155
333.636
321.249
342.788
351.568
347.532
347.532
347.532
322.606
346.428
325.302
329.108
358.945
317.446
359.18
323.003
359.163
359.163
359.163
365.296
357.946
322.399
322.057
328.924
329.007
348.449
348.449
348.449
347.775
349.777
324.792
326.43
333.278
333.278
322.82
331.093
314.797
332.336
359.51
325.134
325.245
332.963
333.497
322.388
325.077
347.987
322.719
326.513
335.047
318.48
360.313
360.313
360.313
314.845
358.864
332.241
323.756
363.249
363.249
363.249
364.199
362.914
320.378
347.263
342.144
322.351
328.345
349.766
348.524
329.879
321.397
329.557
318.338
322.382
324.786
329.133
333.363
321.853
322.857
322.609
332.433
328.736
322.731
332.077
328.741
329.349
329.433
325.448
317.177
317.295
322.512
325.157
328.73
332.357
322.431
321.146
333.557
325.083
329.392
329.356
329.25
325.381
322.607
315.014
314.974
328.582
323.948
329.661
332.693
332.693
356.305
356.305
358.945
358.945
356.79
356.79
356.79
358.301
358.301
358.301
329.008
324.19
328.524
323.506
363.723
363.723
339.954
339.954
365.296
365.296
339.306
339.306
364.646
364.646
364.646
323.153
322.932
352.087
352.087
352.087
351.912
351.912
351.912
351.568
346.428
342.788
351.568
351.657
322.746
351.657
351.657
329.14
329.964
321.511
325.4
325.4
351.064
351.064
351.064
318.437
346.428
325.302
350.207
350.207
318.308
350.207
329.947
321.424
314.872
323.015
323.343
331.688
317.333
331.151
323.278
314.923
317.371
359.18
359.18
357.946
357.946
333.667
333.667
356.331
356.331
356.331
332.065
332.065
317.029
328.249
325.515
332.551
328.456
324.882
332.386
325.145
333.631
329.464
324.959
347.775
333.441
329.57
322.754
350.489
350.489
350.489
325.83
325.83
318.332
326.641
326.445
334.88
349.777
324.699
334.798
326.776
347.775
349.777
325.627
322.718
325.627
318.702
314.931
331.02
317.376
323.171
323.058
323.313
317.199
316.965
360.246
355.298
360.246
360.246
355.298
355.298
359.51
358.864
332.336
357.572
317.185
359.51
357.572
357.572
331.797
322.154
328.496
332.299
322.752
364.199
328.563
329.129
329.146
325.233
347.987
347.263
329.426
329.227
325.353
347.551
351.495
325.077
350.112
318.491
347.987
350.112
350.112
335.326
324.679
349.766
326.56
326.713
326.405
350.137
324.663
349.879
325.468
347.551
325.468
350.137
347.551
350.137
314.752
324.022
328.104
328.269
332.618
356.42
332.618
356.42
356.42
317.024
358.864
357.497
332.241
357.497
317.041
357.497
329.136
328.842
321.927
362.277
340.012
362.277
362.277
340.012
322.487
324.827
328.316
332.212
362.914
364.199
339.525
323.171
362.914
339.525
322.425
347.263
352.012
342.144
352.012
321.633
352.012
333.645
348.524
325.293
329.667
351.268
348.163
351.495
341.719
351.495
351.268
341.719
351.268
321.308
329.417
349.766
325.375
318.395
348.524
325.375
322.979
349.879
348.163
349.879
325.47
348.163
325.47
)
;
        refGradient     uniform 0;
        valueFraction   nonuniform List<scalar> 
360
(
0.000138731
0.000133093
8.52078e-05
0.000304394
0.000312183
0.000179012
0.000314123
0.000269635
0.000419693
0.00013363
0.000130287
0.000174784
0.000266376
7.61632e-05
0.000136244
0.000264845
0.000303507
0.000283585
0.000397935
6.96944e-05
0.000261278
0.000128447
0.000118384
0.000314142
9.12081e-05
0.000322901
0.000182016
0.000318731
0.00041712
0.000279027
0.000318784
0.00032153
8.63383e-05
8.53738e-05
0.000179162
0.000176312
0.000298343
0.000404466
0.00027774
0.000417607
0.000412509
8.80829e-05
0.000174712
0.000127509
0.000127357
0.000179848
0.000269069
7.17873e-05
0.00012845
0.000272373
0.000177418
0.000178571
0.000266177
0.00026359
7.44723e-05
0.000136237
0.000277823
7.13425e-05
0.000176739
0.000263553
6.9832e-05
0.000310261
0.000273886
0.000428659
7.19925e-05
0.000280038
0.000130627
0.000126342
0.000317429
0.000414098
0.000278554
0.000399322
0.000404911
7.73348e-05
0.000269984
0.000136964
7.13004e-05
0.000127855
0.000404069
0.000419753
0.000125401
0.000123035
0.000120846
7.18211e-05
8.66065e-05
0.000175584
0.000176568
0.000267392
8.07158e-05
6.81535e-05
8.57124e-05
0.000266955
0.000176233
8.75559e-05
0.000266514
0.000178245
0.000177191
0.000177465
8.65404e-05
6.93663e-05
7.03393e-05
6.94032e-05
0.000178421
0.000175364
0.000266754
7.85365e-05
6.82176e-05
0.000266561
8.46829e-05
0.000175642
0.000175674
0.000179259
8.76557e-05
7.01911e-05
6.84533e-05
6.97758e-05
0.000121454
0.0001216
0.000126324
0.000136981
0.000128743
0.000266012
0.000419051
0.000280262
0.000422905
0.000271085
0.00041677
0.000310311
0.000271304
0.000407698
0.000305606
0.000124653
0.000117884
0.000120743
6.66547e-05
0.000276435
0.000416204
0.000128774
0.000129362
0.000420611
0.000279658
0.000134992
0.000142275
0.000415433
0.000285388
0.00032885
7.33574e-05
6.82673e-05
0.000288141
0.000399294
0.0003165
0.000296678
0.000413118
0.000316467
0.000326742
0.00030097
0.000140785
0.000419637
0.000271059
7.55724e-05
0.00040786
0.000305213
0.000116478
0.000122715
0.000121401
0.000128071
0.000133876
0.000417543
0.00027493
0.00032271
7.73765e-05
0.000401659
0.000137728
0.000422355
0.000270378
7.55801e-05
0.000320588
0.000117512
0.000118603
6.92936e-05
0.000181627
0.000181554
0.000268456
8.95226e-05
0.000268861
0.000176908
6.85821e-05
6.65956e-05
0.000420125
0.000266945
0.000415193
0.000276815
0.000132041
0.000123484
0.000417129
0.000260703
0.000301347
0.000122058
0.000141626
7.1251e-05
0.000178434
0.000178272
0.000266352
0.0001744
0.000175298
0.000265303
9.09351e-05
0.000266214
0.000180505
8.84317e-05
0.000299643
0.000265919
0.000179424
7.15062e-05
0.00040803
0.00026452
0.00030949
0.000128937
0.000119822
6.92126e-05
0.000177051
0.000180028
0.000266924
0.000303482
8.48785e-05
0.000264391
0.000172676
0.000262643
0.000278048
0.000126215
7.08931e-05
0.000140056
7.17701e-05
6.75561e-05
0.000269898
9.00714e-05
0.000181449
0.000179351
0.000177214
8.89392e-05
6.79375e-05
0.000275958
0.000258579
0.000434093
0.000323119
0.000404985
0.000290983
0.000311881
0.000319323
0.000141939
0.00027394
7.38063e-05
0.000416865
0.00040534
0.000307973
0.000268616
8.55915e-05
0.000174784
0.000265528
8.6358e-05
0.000316393
0.00017554
0.000176797
0.000175167
8.58362e-05
0.000314039
0.000294282
0.000178715
0.000174094
8.74889e-05
0.000294861
0.000324563
0.00012872
0.000291358
6.91971e-05
0.000415094
0.000402436
0.000304086
0.000263562
8.65834e-05
0.000304564
0.000175372
0.000175642
0.000176642
0.000306222
8.73947e-05
0.000312869
0.000131648
0.00026975
0.000132747
0.000274885
0.000418902
0.000411244
6.91627e-05
0.000138595
0.000136958
0.000133957
0.000121993
0.000408137
0.00013324
0.000271335
0.000319511
6.81548e-05
0.000412121
0.000411623
0.000134752
0.000292676
7.14235e-05
0.00031377
0.000119466
0.000117362
7.13646e-05
0.000403652
0.000120638
0.000264722
0.000311772
0.000129335
7.05059e-05
0.000175435
0.000175375
0.000264636
0.000302806
0.000262644
0.000126985
6.83536e-05
0.000267043
0.000141036
7.89435e-05
0.000386991
0.00041555
0.000122814
0.000263968
7.31852e-05
0.00033198
0.000266664
0.0003195
8.74034e-05
0.000176192
0.000308038
0.000298637
0.000280951
0.000125578
0.000411551
0.000410666
0.000149071
0.000274505
0.000120778
0.000122631
0.000276359
0.000136804
7.39663e-05
0.000279499
0.000131729
6.83066e-05
0.000406794
0.000411676
0.000270871
0.000131455
0.000266069
0.000135789
)
;
        value           nonuniform List<scalar> 
360
(
459.779
459.78
459.785
459.765
459.767
459.8
459.767
459.771
459.76
459.776
459.776
459.796
459.802
459.784
459.779
459.766
459.749
459.752
459.736
459.776
459.756
459.768
459.753
459.764
459.783
459.763
459.8
459.765
459.756
459.768
459.765
459.762
459.783
459.783
459.795
459.798
459.751
459.738
459.753
459.735
459.737
459.768
459.788
459.779
459.781
459.799
459.806
459.785
459.779
459.768
459.801
459.801
459.803
459.803
459.773
459.765
459.752
459.775
459.788
459.797
459.772
459.765
459.768
459.757
459.786
459.768
459.78
459.766
459.768
459.763
459.772
459.762
459.761
459.787
459.767
459.781
459.783
459.755
459.738
459.736
459.755
459.755
459.756
459.773
459.787
459.8
459.798
459.802
459.78
459.775
459.785
459.805
459.801
459.783
459.805
459.8
459.797
459.793
459.774
459.787
459.787
459.787
459.801
459.801
459.805
459.786
459.782
459.802
459.772
459.792
459.798
459.793
459.774
459.774
459.788
459.787
459.768
459.768
459.768
459.78
459.781
459.77
459.755
459.769
459.756
459.769
459.756
459.764
459.77
459.757
459.766
459.768
459.768
459.769
459.788
459.77
459.76
459.782
459.782
459.76
459.771
459.781
459.781
459.761
459.771
459.764
459.788
459.782
459.76
459.741
459.749
459.759
459.74
459.75
459.751
459.752
459.777
459.74
459.764
459.783
459.741
459.753
459.754
459.753
459.752
459.766
459.763
459.735
459.751
459.745
459.77
459.736
459.762
459.736
459.751
459.77
459.744
459.754
459.753
459.785
459.8
459.799
459.806
459.784
459.806
459.801
459.787
459.787
459.755
459.769
459.755
459.768
459.779
459.78
459.755
459.77
459.764
459.781
459.779
459.787
459.8
459.8
459.805
459.802
459.801
459.805
459.772
459.803
459.792
459.774
459.752
459.803
459.793
459.774
459.738
459.753
459.746
459.767
459.765
459.772
459.788
459.787
459.796
459.746
459.768
459.796
459.788
459.754
459.75
459.767
459.774
459.762
459.771
459.785
459.805
459.783
459.799
459.799
459.8
459.781
459.787
459.768
459.77
459.757
459.763
459.758
459.768
459.762
459.761
459.778
459.768
459.786
459.755
459.755
459.766
459.805
459.787
459.803
459.805
459.785
459.767
459.801
459.793
459.8
459.776
459.752
459.754
459.793
459.798
459.774
459.753
459.751
459.764
459.75
459.772
459.737
459.739
459.747
459.797
459.769
459.747
459.789
459.789
459.789
459.75
459.771
459.749
459.767
459.755
459.764
459.752
459.737
459.739
459.785
459.769
459.769
459.77
459.78
459.757
459.779
459.768
459.766
459.786
459.756
459.755
459.778
459.766
459.785
459.763
459.768
459.768
459.789
459.763
459.784
459.773
459.769
459.783
459.789
459.801
459.802
459.806
459.766
459.772
459.782
459.788
459.77
459.779
459.785
459.744
459.743
459.779
459.765
459.783
459.749
459.803
459.75
459.773
459.794
459.753
459.753
459.762
459.778
459.742
459.742
459.774
459.762
459.755
459.756
459.752
459.764
459.772
459.754
459.767
459.776
459.739
459.738
459.753
459.765
459.755
459.766
)
;
        Tnbr            T;
        thicknessLayers 0();
        kappaLayers     0();
        kappaMethod     solidThermo;
        kappa           none;
        alphaAni        none;
    }
}


// ************************************************************************* //
