/*--------------------------------*- C++ -*----------------------------------*\
| =========                 |                                                 |
| \\      /  F ield         | OpenFOAM: The Open Source CFD Toolbox           |
|  \\    /   O peration     | Version:  v1912                                 |
|   \\  /    A nd           | Website:  www.openfoam.com                      |
|    \\/     M anipulation  |                                                 |
\*---------------------------------------------------------------------------*/
FoamFile
{
    version     2.0;
    format      ascii;
    class       volScalarField;
    location    "270/sphere";
    object      T;
}
// * * * * * * * * * * * * * * * * * * * * * * * * * * * * * * * * * * * * * //

dimensions      [0 0 0 1 0 0 0];


internalField   nonuniform List<scalar> 
304
(
344.234
344.252
344.251
344.261
344.237
344.237
344.234
344.252
344.233
344.309
344.309
344.254
344.25
344.308
344.309
344.272
344.254
344.272
344.232
344.252
344.262
344.236
344.253
344.309
344.309
344.272
344.261
344.309
344.309
344.286
344.236
344.272
344.286
344.253
344.237
344.255
344.272
344.232
344.239
344.272
344.286
344.252
344.233
344.253
344.228
344.227
344.237
344.238
344.233
344.253
344.237
344.238
344.253
344.233
344.227
344.236
344.232
344.236
344.252
344.252
344.251
344.261
344.254
344.272
344.271
344.286
344.234
344.261
344.251
344.272
344.254
344.286
344.272
344.236
344.231
344.252
344.236
344.235
344.235
344.251
344.231
344.26
344.232
344.251
344.271
344.285
344.253
344.271
344.252
344.251
344.234
344.286
344.272
344.272
344.254
344.252
344.236
344.231
344.226
344.236
344.231
344.252
344.236
344.252
344.232
344.236
344.226
344.232
344.237
344.237
344.252
344.252
344.254
344.273
344.252
344.261
344.272
344.286
344.235
344.273
344.255
344.262
344.252
344.286
344.272
344.232
344.237
344.253
344.237
344.254
344.251
344.271
344.252
344.272
344.261
344.286
344.233
344.271
344.252
344.272
344.252
344.286
344.261
344.271
344.233
344.253
344.261
344.286
344.251
344.271
344.251
344.254
344.234
344.286
344.261
344.272
344.251
344.232
344.236
344.252
344.236
344.272
344.234
344.252
344.272
344.286
344.252
344.261
344.254
344.252
344.234
344.286
344.272
344.261
344.252
344.252
344.236
344.236
344.237
344.237
344.253
344.234
344.261
344.272
344.286
344.234
344.252
344.255
344.272
344.252
344.286
344.272
344.252
344.233
344.272
344.253
344.252
344.237
344.231
344.273
344.261
344.286
344.236
344.256
344.253
344.273
344.252
344.286
344.261
344.254
344.235
344.272
344.252
344.286
344.252
344.272
344.253
344.273
344.235
344.255
344.261
344.272
344.252
344.272
344.252
344.254
344.234
344.252
344.236
344.233
344.286
344.252
344.262
344.255
344.272
344.235
344.252
344.272
344.262
344.253
344.273
344.255
344.253
344.236
344.237
344.237
344.233
344.229
344.236
344.233
344.253
344.237
344.252
344.232
344.236
344.226
344.234
344.238
344.254
344.238
344.272
344.273
344.286
344.236
344.252
344.253
344.261
344.254
344.286
344.272
344.252
344.233
344.261
344.251
344.252
344.237
344.236
344.254
344.234
344.237
344.286
344.255
344.272
344.252
344.261
344.234
344.252
344.272
344.272
344.255
344.261
344.251
344.252
344.234
344.236
344.232
344.235
344.228
344.253
344.237
344.237
344.233
344.237
344.237
)
;

boundaryField
{
    sphere_to_oil
    {
        type            compressible::turbulentTemperatureCoupledBaffleMixed;
        refValue        nonuniform List<scalar> 
360
(
303.621
303.621
300.865
301.416
301.496
300.986
301.534
301.534
301.534
301.609
301.609
301.072
301.139
300.764
301.503
301.376
301.496
301.496
301.496
301.092
301.476
301.367
301.107
301.527
300.688
301.556
301.027
301.54
301.54
301.54
301.569
301.464
300.881
300.883
301.088
301.093
301.554
301.554
301.554
301.518
301.76
301.37
301.447
303.253
303.253
301.008
302.257
300.732
302.142
301.676
300.854
300.94
301.027
301.095
301.01
301.296
301.518
301.068
301.467
302.029
301.195
301.668
301.668
301.668
300.752
301.68
302.468
300.826
301.575
301.575
301.575
301.569
301.537
300.767
301.331
301.59
300.881
301.092
301.744
301.529
301.162
300.997
301.139
301.183
300.895
300.957
301.097
301.104
300.846
301.073
300.904
301.094
301.05
300.942
301.063
301.081
301.138
301.11
301.147
300.74
300.863
300.781
300.886
301.02
301.008
300.772
300.77
301.069
301.077
301.082
301.098
301.137
301.097
301.041
300.378
300.383
300.743
300.743
300.797
303.314
303.314
301.416
301.416
301.527
301.527
301.492
301.492
301.492
301.57
301.57
301.57
300.777
300.768
300.771
300.851
301.496
301.496
301.291
301.291
301.569
301.569
301.217
301.217
301.52
301.52
301.52
300.814
300.885
301.4
301.4
301.4
301.464
301.464
301.464
301.376
301.476
301.503
301.376
301.385
300.852
301.385
301.385
301.121
301.192
301.011
301.317
301.317
301.785
301.785
301.785
301.158
301.476
301.367
301.752
301.752
301.171
301.752
301.149
300.989
300.356
301.024
301.011
301.352
300.778
301.638
301.798
300.643
300.821
301.556
301.556
301.464
301.464
303.506
303.506
301.429
301.429
301.429
302.475
302.475
300.822
301.026
300.951
301.062
301.033
300.945
301.059
301.095
301.108
301.117
301.103
301.518
301.101
301.112
301.077
301.804
301.804
301.804
301.392
301.392
301.193
301.451
301.484
302.028
301.76
301.351
302.035
301.487
301.518
301.76
301.385
301.069
301.385
301.208
300.378
301.599
300.896
301.771
301.793
301.846
301.026
300.694
301.617
301.441
301.617
301.617
301.441
301.441
301.676
301.68
302.142
301.522
300.809
301.676
301.522
301.522
300.967
300.883
301.036
301.048
300.945
301.569
301.079
301.049
301.086
301.087
301.518
301.331
301.108
301.136
301.144
301.544
301.389
301.296
301.775
301.161
301.518
301.775
301.775
302.367
301.346
301.744
301.465
301.462
301.463
301.774
301.358
301.764
301.353
301.544
301.353
301.774
301.544
301.774
300.625
300.738
300.798
300.822
302.334
301.446
302.334
301.446
301.446
300.769
301.68
301.511
302.468
301.511
300.844
301.511
300.84
300.862
300.802
301.581
301.296
301.581
301.581
301.296
300.864
300.901
301.035
301.025
301.537
301.569
301.192
300.87
301.537
301.192
300.824
301.331
301.43
301.59
301.43
300.856
301.43
301.08
301.529
301.114
301.098
301.379
301.537
301.389
301.449
301.389
301.379
301.449
301.379
300.981
301.152
301.744
301.327
301.174
301.529
301.327
301.068
301.764
301.537
301.764
301.35
301.537
301.35
)
;
        refGradient     uniform 0;
        valueFraction   nonuniform List<scalar> 
360
(
0.000193344
0.000185487
0.000118755
0.000424188
0.000435043
0.000249486
0.000437746
0.000375757
0.000584836
0.000186234
0.000181575
0.000243592
0.000371231
0.000106149
0.000189878
0.000369079
0.000422939
0.000395181
0.000554492
9.7132e-05
0.000364101
0.000179008
0.000164981
0.000437769
0.000127117
0.000449973
0.000253671
0.000444164
0.000581245
0.000388842
0.000444239
0.000448062
0.00012033
0.000118986
0.000249693
0.000245722
0.000415743
0.000563592
0.000387036
0.000581898
0.000574797
0.000122757
0.000243488
0.000177706
0.000177493
0.000250651
0.000374986
0.000100051
0.000179016
0.00037957
0.000247265
0.000248871
0.000370954
0.00036735
0.00010379
0.000189863
0.000387151
9.94287e-05
0.000246311
0.000367292
9.7323e-05
0.000432362
0.000381679
0.000597321
0.000100337
0.000390251
0.00018205
0.000176076
0.000442353
0.00057704
0.000388185
0.000556454
0.000564241
0.000107782
0.00037624
0.000190882
9.93717e-05
0.000178179
0.000563039
0.000584889
0.00017476
0.000171463
0.000168413
0.000100095
0.000120704
0.000244709
0.000246079
0.000372647
0.000112493
9.49844e-05
0.000119458
0.00037204
0.000245614
0.000122027
0.000371426
0.000248418
0.000246947
0.000247327
0.000120609
9.66769e-05
9.8033e-05
9.67286e-05
0.000248663
0.000244402
0.000371759
0.000109457
9.50751e-05
0.000371489
0.00011802
0.000244785
0.000244833
0.000249826
0.000122164
9.78239e-05
9.54045e-05
9.72475e-05
0.000169265
0.000169468
0.000176052
0.000190905
0.000179425
0.000370708
0.000583935
0.000390563
0.000589305
0.000377776
0.000580756
0.000432432
0.000378081
0.000568119
0.000425877
0.000173723
0.000164289
0.000168274
9.28981e-05
0.000385233
0.000579973
0.000179469
0.000180289
0.000586114
0.000389724
0.000188134
0.000198283
0.000578901
0.000397708
0.000458263
0.00010224
9.51445e-05
0.000401536
0.000556391
0.000441042
0.00041343
0.00057565
0.000440996
0.000455314
0.000419406
0.000196206
0.000584733
0.000377737
0.000105325
0.000568326
0.000425318
0.000162326
0.000171017
0.000169185
0.000178483
0.000186572
0.00058181
0.00038312
0.00044969
0.000107837
0.00055968
0.00019194
0.000588513
0.000376778
0.000105333
0.000446733
0.000163766
0.000165286
9.65754e-05
0.000253129
0.000253028
0.000374132
0.000124768
0.000374697
0.000246553
9.5584e-05
9.28153e-05
0.000585431
0.000372007
0.00057856
0.00038576
0.000184021
0.000172096
0.000581257
0.00036331
0.000419942
0.00017011
0.000197378
9.93035e-05
0.000248681
0.000248455
0.0003712
0.00024306
0.000244311
0.000369738
0.000126733
0.000371005
0.000251563
0.000123245
0.000417557
0.000370595
0.000250056
9.96567e-05
0.000568559
0.000368615
0.000431271
0.000179691
0.000166988
9.64598e-05
0.000246747
0.000250895
0.000371989
0.0004229
0.000118292
0.00036846
0.00024065
0.000366002
0.000387464
0.000175898
9.88022e-05
0.000195184
0.000100024
9.41538e-05
0.000376142
0.000125532
0.000252882
0.000249958
0.00024698
0.000123954
9.46856e-05
0.000384565
0.00036035
0.000604893
0.000450277
0.000564339
0.000405502
0.000434618
0.000444986
0.000197815
0.000381753
0.000102865
0.000580888
0.000564831
0.000429175
0.000374354
0.00011929
0.000243594
0.000370051
0.000120358
0.000440908
0.000244648
0.000246395
0.000244127
0.000119628
0.000437615
0.000410088
0.000249069
0.000242631
0.000121931
0.000410894
0.000452278
0.000179387
0.000406009
9.64381e-05
0.000578399
0.000560765
0.000423742
0.000367305
0.000120668
0.000424408
0.000244407
0.000244783
0.000246177
0.00042672
0.000121799
0.000435981
0.000183469
0.000375904
0.000184999
0.000383057
0.000583704
0.000573036
9.63929e-05
0.000193152
0.00019087
0.000186689
0.000170017
0.00056873
0.000185691
0.000378124
0.000445251
9.49883e-05
0.000574279
0.000573585
0.000187799
0.000407859
9.95437e-05
0.00043725
0.000166494
0.000163562
9.94622e-05
0.000562488
0.000168131
0.000368912
0.000434471
0.000180251
9.82654e-05
0.000244502
0.000244419
0.000368808
0.000421976
0.000366016
0.000176976
9.52658e-05
0.000372145
0.000196557
0.000110024
0.000539252
0.000579041
0.000171162
0.000367856
0.000101999
0.000462611
0.000371633
0.000445223
0.000121812
0.000245552
0.000429254
0.000416156
0.000391519
0.000175014
0.000573469
0.000572236
0.000207751
0.000382536
0.000168318
0.0001709
0.000385111
0.000190652
0.000103085
0.000389487
0.000183582
9.51977e-05
0.000566837
0.000573638
0.000377465
0.000183198
0.000370776
0.000189239
)
;
        value           nonuniform List<scalar> 
360
(
344.238
344.239
344.238
344.225
344.225
344.25
344.224
344.229
344.215
344.236
344.236
344.249
344.253
344.241
344.238
344.23
344.223
344.228
344.216
344.242
344.23
344.238
344.228
344.224
344.238
344.224
344.25
344.225
344.216
344.23
344.223
344.223
344.237
344.237
344.248
344.25
344.224
344.217
344.229
344.216
344.217
344.237
344.25
344.238
344.239
344.25
344.255
344.241
344.238
344.229
344.251
344.25
344.254
344.254
344.24
344.237
344.228
344.242
344.25
344.255
344.242
344.225
344.229
344.217
344.242
344.23
344.239
344.228
344.226
344.218
344.23
344.217
344.217
344.244
344.232
344.24
344.24
344.23
344.218
344.217
344.229
344.229
344.229
344.242
344.24
344.25
344.25
344.254
344.239
344.242
344.238
344.254
344.25
344.237
344.254
344.25
344.25
344.25
344.238
344.242
344.242
344.241
344.25
344.25
344.253
344.24
344.24
344.253
344.236
344.249
344.25
344.25
344.238
344.241
344.243
344.242
344.228
344.228
344.228
344.238
344.24
344.23
344.216
344.23
344.216
344.23
344.217
344.224
344.23
344.217
344.226
344.228
344.229
344.228
344.241
344.229
344.216
344.237
344.237
344.216
344.228
344.237
344.237
344.216
344.228
344.222
344.241
344.24
344.227
344.216
344.222
344.226
344.215
344.223
344.223
344.225
344.237
344.215
344.229
344.24
344.216
344.224
344.228
344.228
344.228
344.237
344.237
344.215
344.229
344.224
344.24
344.217
344.237
344.216
344.229
344.24
344.224
344.228
344.228
344.241
344.25
344.25
344.254
344.239
344.255
344.251
344.242
344.242
344.216
344.23
344.216
344.229
344.238
344.239
344.216
344.231
344.224
344.239
344.238
344.242
344.249
344.25
344.254
344.25
344.25
344.254
344.236
344.254
344.249
344.237
344.225
344.254
344.25
344.241
344.217
344.23
344.224
344.238
344.238
344.241
344.25
344.25
344.255
344.225
344.238
344.255
344.251
344.229
344.229
344.237
344.241
344.237
344.241
344.241
344.254
344.238
344.25
344.25
344.251
344.237
344.242
344.229
344.231
344.217
344.224
344.219
344.228
344.223
344.223
344.237
344.229
344.241
344.216
344.216
344.225
344.254
344.24
344.251
344.254
344.238
344.225
344.25
344.25
344.252
344.239
344.226
344.227
344.25
344.25
344.238
344.225
344.224
344.238
344.228
344.241
344.217
344.218
344.226
344.255
344.238
344.225
344.251
344.251
344.251
344.227
344.24
344.226
344.238
344.23
344.238
344.23
344.217
344.218
344.241
344.23
344.23
344.23
344.238
344.218
344.238
344.23
344.226
344.242
344.216
344.216
344.238
344.228
344.241
344.224
344.228
344.228
344.242
344.219
344.24
344.231
344.227
344.239
344.243
344.251
344.251
344.254
344.224
344.23
344.238
344.241
344.229
344.236
344.24
344.22
344.218
344.239
344.23
344.241
344.223
344.254
344.224
344.237
344.25
344.225
344.225
344.228
344.237
344.216
344.216
344.235
344.228
344.23
344.23
344.23
344.238
344.241
344.229
344.238
344.242
344.218
344.218
344.23
344.238
344.23
344.238
)
;
        Tnbr            T;
        thicknessLayers 0();
        kappaLayers     0();
        kappaMethod     solidThermo;
        kappa           none;
        alphaAni        none;
        alpha           none;
    }
}


// ************************************************************************* //
