/*--------------------------------*- C++ -*----------------------------------*\
| =========                 |                                                 |
| \\      /  F ield         | OpenFOAM: The Open Source CFD Toolbox           |
|  \\    /   O peration     | Version:  v1912                                 |
|   \\  /    A nd           | Website:  www.openfoam.com                      |
|    \\/     M anipulation  |                                                 |
\*---------------------------------------------------------------------------*/
FoamFile
{
    version     2.0;
    format      ascii;
    class       volScalarField;
    location    "10.5/sphere";
    object      T;
}
// * * * * * * * * * * * * * * * * * * * * * * * * * * * * * * * * * * * * * //

dimensions      [0 0 0 1 0 0 0];


internalField   nonuniform List<scalar> 
1992
(
483.951
483.999
483.996
484.087
483.968
483.967
483.997
484.274
484.333
484.165
483.994
484.331
484.388
484.227
484.141
484.225
484.095
483.994
484.083
483.968
483.994
484.331
484.387
484.227
484.077
484.386
484.442
484.284
483.995
483.962
484.222
484.28
484.18
483.989
483.966
484.161
484.225
484.081
483.964
484.223
484.281
484.18
484.075
484.179
484.027
483.991
483.991
483.991
483.987
483.991
483.955
484.087
484.001
484.226
484.165
484.281
484.227
484.164
484.281
484.226
483.999
483.953
484.087
484.001
484.226
484.225
484.164
484.087
484
484
483.954
483.987
483.987
483.986
483.984
483.974
483.983
483.986
483.974
483.983
483.986
483.974
483.988
484.016
483.966
483.965
484.077
484.178
483.966
483.966
484.179
484.081
484.027
483.965
484.076
483.963
484.177
483.997
483.996
484.082
484.161
484.224
484.223
484.279
483.988
484.033
484.021
484.119
484.092
484.068
484.131
483.968
484.081
484.18
483.968
483.965
483.964
484.177
484.077
484.082
483.952
483.998
484.223
484.279
484.161
484.224
484.001
484
483.954
484.281
484.227
484.226
484.165
484.18
483.968
484.081
484.016
483.966
484.075
484.178
483.966
484.179
484.08
483.966
484.027
483.987
483.989
484.076
483.964
483.963
484.177
483.996
484.141
484.223
483.995
484.08
484.222
484.277
483.954
484.225
484.165
484.083
484
484.28
484.226
484.095
483.967
484.18
483.967
483.984
484.141
483.994
484.222
483.994
484.222
484.077
484.276
483.955
484.227
484.001
484.227
484.001
484.284
484.092
483.995
483.984
484.222
484.141
484.077
484.276
483.994
484.222
484.001
484.166
483.955
484.284
484.092
484.228
484.001
483.995
484.076
483.962
484.177
483.964
484.223
483.996
484.222
484.277
483.994
484.08
484.165
483.997
483.954
484.28
484.226
484.083
484.001
484.18
483.968
483.967
483.988
483.989
483.987
483.989
483.964
483.962
484.176
484.075
484.08
484.222
484.277
483.996
484.14
484.223
484
484.28
484.226
483.997
483.953
484.225
484.164
484.18
483.968
484.094
483.984
484.222
484.077
484.276
484.141
483.994
484.222
484.002
484.284
484.092
484.165
483.955
484.227
484.001
483.995
483.984
484.276
483.994
484.222
483.994
484.222
484.141
484.092
484.228
484.001
484.227
484.002
484.166
483.954
484.177
483.964
484.075
484.277
483.994
484.08
484.14
484.223
483.996
484.226
484.083
484
484.225
484.164
483.997
483.953
483.968
483.967
484.095
483.987
484.015
483.965
484.075
484.178
483.965
484.178
484.08
483.967
484.027
484.076
483.963
484.177
483.965
484.224
484.223
484.279
483.951
483.998
483.996
484.082
484.18
483.967
483.968
484.177
484.076
483.965
484.278
484.161
484.224
483.996
484.081
483.952
483.997
483.968
484.081
483.967
484.015
484.178
483.965
483.966
484.08
483.966
483.967
483.962
483.952
483.951
483.961
483.953
483.965
483.954
483.965
483.953
483.965
483.953
483.963
483.953
483.951
483.952
483.975
483.974
483.956
483.985
483.983
483.973
483.965
483.953
483.962
483.952
483.972
483.972
484.001
484.093
484.004
484.042
484.042
483.988
484.037
484.022
484.12
484.094
484.069
484.134
483.988
484.033
484.02
484.118
484.091
484.068
484.131
483.972
483.972
484.001
484.092
484.004
484.041
484.041
483.989
484.036
484.022
484.119
484.093
484.068
484.133
484.035
483.989
484.021
484.119
484.093
484.133
484.069
484.034
483.988
484.021
484.119
484.091
484.131
484.068
483.972
483.972
484
484.092
484.004
484.043
484.042
483.954
483.951
483.975
483.973
483.955
483.976
483.973
483.955
483.954
483.968
483.968
483.995
484.087
484.001
484.039
484.039
483.964
483.992
483.956
484.022
484.112
483.984
484.088
484.01
484.126
484.064
483.957
484.033
483.972
483.977
484.018
483.954
483.962
483.99
483.956
483.971
484.031
484.017
483.976
484.068
483.958
483.991
483.958
484.027
483.986
484.027
484.114
483.986
484.089
484.024
484.067
484.013
484.127
483.957
483.963
483.992
484.067
483.99
483.957
483.956
484.025
484.027
483.986
484.107
484.086
483.98
484.021
484.06
484.123
484.006
483.966
483.954
483.953
483.957
483.986
484.004
484.023
484.022
484.136
483.975
484.065
484.065
483.953
484.107
484.022
484.086
483.981
484.124
484.007
484.06
484.142
484.072
484.171
484.057
484.159
484.043
484.155
483.972
484.032
483.956
483.977
484.018
484.107
484.086
484.021
483.981
484.123
484.06
484.007
483.966
483.955
484.134
484.165
484.051
484.051
484.149
484.149
484.029
483.988
483.987
483.976
483.969
484.028
483.951
483.974
484.013
483.951
483.983
483.976
483.966
483.954
483.958
483.986
483.971
483.956
484.03
484.016
483.976
483.953
483.958
483.987
484.134
484.015
484.064
484.003
484.017
484.064
483.965
483.969
484.028
483.954
484.014
483.974
484
484.132
484.01
484.012
484.059
484.062
483.961
483.968
483.979
483.98
483.954
483.951
483.973
483.975
483.955
483.953
483.965
483.964
483.964
483.956
483.962
483.99
483.955
484.03
483.97
483.976
484.016
483.953
483.959
483.987
483.97
483.953
484.029
483.976
484.014
484
484.012
484.01
484.132
483.962
484.062
484.059
483.955
484.031
484.017
483.971
483.976
483.964
483.992
483.957
483.972
483.956
484.031
483.976
484.017
483.957
483.964
483.992
484.015
484.134
484.064
484.003
484.017
483.965
484.064
483.968
483.978
483.979
483.954
483.955
483.962
483.99
483.954
483.97
484.03
484.016
483.975
483.954
483.958
483.986
484
484.012
484.01
484.132
483.961
484.061
484.059
483.969
483.952
484.029
483.975
484.014
484.024
483.985
484.09
484.011
484.128
484.112
484.065
483.984
484.022
484.01
484.112
484.089
484.065
484.126
483.956
484.033
484.018
483.972
483.977
484.015
484.134
484.063
484.003
484.016
483.964
484.064
483.957
483.965
483.993
483.972
483.957
484.032
483.977
484.018
483.969
483.954
484.03
483.975
484.015
483.954
483.962
483.99
483.969
484.028
483.953
483.975
484.013
483.954
483.957
483.986
483.999
484.013
484.132
484.011
484.061
483.961
484.059
484.054
484.056
484.17
484.138
484.033
484.153
484.155
484.086
483.969
483.969
484.001
483.995
484.038
484.039
484.025
484.112
483.985
484.09
484.011
484.128
484.065
484.036
483.989
484.094
484.021
484.134
484.12
484.07
484.034
483.988
484.021
484.119
484.092
484.131
484.069
483.972
483.972
484
484.092
484.004
484.043
484.042
483.957
483.965
483.993
483.972
484.032
483.957
483.977
484.018
484.003
484.016
484.134
484.017
484.064
483.965
484.064
483.957
483.965
483.993
483.966
483.965
483.964
483.97
483.954
484.031
484.016
483.976
483.999
484.012
484.131
484.01
484.06
483.96
484.059
483.954
483.958
483.987
483.97
484.03
483.954
483.976
484.014
483.957
483.965
483.992
484.003
484.016
484.134
484.017
484.064
483.964
484.063
483.972
484.031
483.956
483.976
484.017
483.957
483.964
483.991
483.968
483.979
483.98
483.954
483.952
483.951
483.974
483.973
483.953
483.954
483.976
483.983
483.966
483.964
483.952
483.953
483.958
483.986
483.953
483.958
483.986
483.999
484.01
484.01
484.131
483.961
484.059
484.059
483.969
483.954
484.028
484.014
483.974
483.969
483.953
484.028
484.013
483.974
484.108
483.982
484.088
484.023
484.061
484.008
484.125
484.108
483.982
484.021
484.087
484.007
484.062
484.124
484.135
484.054
484.053
484.168
484.03
484.152
484.151
484.09
483.971
484.003
483.972
484.041
483.998
484.041
484.142
484.057
484.071
484.171
484.042
484.155
484.159
484.117
483.987
484.033
484.092
484.017
484.068
484.132
484.004
484.022
484.023
484.136
483.974
484.065
484.066
483.958
483.964
483.993
483.972
483.956
484.031
484.017
483.976
483.972
483.957
484.032
484.018
483.977
483.949
483.95
483.972
483.972
483.953
484.107
483.981
484.086
484.02
484.06
484.007
484.123
484.107
483.981
484.086
484.021
484.061
484.007
484.123
484.134
484.051
484.052
484.165
484.029
484.149
484.15
484.093
484.005
483.972
483.973
484.043
484.043
484.001
484.121
483.99
484.094
484.037
484.07
484.023
484.135
484.12
483.989
484.094
484.037
484.069
484.021
484.135
484.149
484.078
484.078
484.179
484.054
484.164
484.164
483.966
483.954
483.966
483.953
483.987
483.988
483.976
483.95
483.972
483.972
483.954
483.947
484.069
483.957
483.99
483.957
484.026
483.985
484.027
484.134
484.052
484.165
484.051
484.15
484.03
484.149
484.107
483.981
484.021
484.086
484.006
484.061
484.123
484.121
484.094
483.989
484.036
484.069
484.135
484.022
484.093
483.973
484.005
483.973
484.043
484.001
484.043
484.149
484.078
484.179
484.078
484.164
484.054
484.164
484.12
483.989
484.037
484.094
484.022
484.069
484.135
483.988
483.988
483.976
483.966
483.954
483.999
484.01
484.011
484.132
483.961
484.059
484.059
483.954
483.958
483.987
483.969
483.953
484.029
484.014
483.975
483.969
483.953
484.028
484.013
483.975
484.068
483.99
483.958
483.957
484.027
484.027
483.986
484.108
484.088
483.983
484.024
484.062
484.125
484.008
484.107
483.982
484.087
484.021
484.061
484.007
484.124
484.135
484.055
484.168
484.053
484.152
484.032
484.151
484.114
484.089
483.986
484.025
484.066
484.127
484.013
484.089
484.003
483.971
483.971
484.04
484.041
483.998
484.142
484.057
484.171
484.072
484.155
484.042
484.159
484.117
483.988
484.093
484.035
484.067
484.018
484.132
483.958
483.964
483.993
483.957
483.964
483.992
483.972
483.957
484.032
484.017
483.977
483.972
483.956
484.032
484.017
483.977
483.953
483.951
483.976
483.974
483.956
483.977
483.984
483.967
483.964
483.952
483.951
483.973
483.975
483.956
483.952
483.983
483.977
483.966
483.963
483.952
483.952
483.969
484.028
483.952
483.974
484.013
483.968
484.028
483.95
483.974
484.013
483.954
483.959
483.986
483.953
483.958
483.986
483.998
484.131
484.009
484.01
484.058
484.058
483.96
484.135
484.053
484.168
484.055
484.151
484.032
484.152
484.068
483.957
483.958
483.99
483.986
484.026
484.027
484.108
484.023
483.983
484.088
484.008
484.125
484.062
484.117
484.034
484.092
483.987
484.132
484.017
484.067
484.114
484.024
483.986
484.089
484.013
484.127
484.066
484.09
483.97
483.97
484.003
483.997
484.041
484.04
483.972
484.032
483.957
483.977
484.018
483.957
483.963
483.992
484.004
484.136
484.022
484.022
484.065
484.064
483.975
483.957
483.963
483.992
483.95
483.972
483.972
483.953
483.949
484.134
484.052
484.165
484.051
484.15
484.03
484.149
484.067
483.956
483.99
483.958
484.026
483.985
484.027
484.107
484.02
483.982
484.086
484.007
484.123
484.062
484.12
484.094
484.037
483.989
484.135
484.069
484.023
484.149
484.078
484.179
484.078
484.164
484.055
484.164
484.093
483.973
484.004
483.972
484.043
484.001
484.042
484.12
484.037
483.989
484.094
484.022
484.135
484.069
483.988
483.987
483.976
483.966
483.954
483.972
483.971
483.953
483.948
483.95
484.107
484.02
484.086
483.981
484.123
484.006
484.06
484.107
484.02
484.086
483.981
484.123
484.007
484.062
484.067
483.956
483.958
483.99
483.984
484.026
484.027
484.149
484.179
484.078
484.078
484.164
484.164
484.054
484.121
484.037
484.094
483.989
484.135
484.022
484.069
484.121
484.037
484.094
483.989
484.135
484.023
484.069
484.093
483.972
483.973
484.005
484.001
484.043
484.042
483.966
483.955
483.966
483.955
483.969
484.028
483.954
483.974
484.014
483.953
483.958
483.985
483.999
484.131
484.01
484.01
484.058
484.059
483.96
483.953
483.959
483.987
484.108
484.087
484.021
483.982
484.124
484.062
484.008
484.135
484.168
484.053
484.054
484.151
484.152
484.031
484.069
483.958
483.99
483.957
484.028
483.987
484.026
484.108
484.023
484.088
483.982
484.125
484.008
484.061
484.142
484.17
484.071
484.056
484.158
484.154
484.042
484.117
484.092
484.034
483.987
484.132
484.068
484.018
484.114
484.024
484.089
483.986
484.127
484.013
484.066
484.09
483.971
484.003
483.971
484.041
483.998
484.04
483.972
484.032
483.957
483.977
484.017
483.972
484.032
483.956
483.977
484.017
484.004
484.136
484.023
484.022
484.066
484.064
483.975
483.958
483.964
483.993
483.957
483.963
483.992
483.973
483.975
483.955
483.952
483.963
483.952
483.953
483.962
483.964
483.965
483.97
483.954
484.03
484.014
483.976
483.999
484.01
484.132
484.012
484.058
483.961
484.061
483.955
483.962
483.99
484.03
483.953
483.97
483.976
484.015
483.958
483.964
483.992
484.133
484.015
484.063
484.002
484.017
484.064
483.964
483.956
484.031
484.017
483.971
483.976
483.963
483.991
483.956
483.968
483.978
483.979
483.953
483.999
484.011
484.132
484.012
484.059
483.962
484.061
483.969
483.953
484.028
484.014
483.974
483.954
483.961
483.989
483.955
483.969
484.029
484.015
483.975
483.969
483.968
483.994
484.086
484.001
484.038
484.038
484.025
484.09
483.985
484.128
484.011
484.112
484.064
483.984
484.023
484.01
484.111
484.088
484.064
484.125
483.956
483.964
483.992
483.971
483.957
484.032
484.018
483.977
483.964
483.992
483.957
483.957
484.032
484.017
483.972
483.977
483.953
483.958
483.987
483.999
484.132
484.01
484.012
484.059
484.061
483.961
483.954
483.969
484.029
483.975
484.015
483.954
483.961
483.989
484.022
483.984
484.01
484.111
484.088
484.125
484.064
483.968
483.969
483.995
484.086
484.001
484.038
484.038
484.025
484.089
483.984
484.127
484.01
484.112
484.064
483.972
484.033
483.957
484.018
483.977
484.134
484.015
484.063
484.003
484.017
484.064
483.965
483.957
483.965
483.992
483.957
484.031
484.017
483.972
483.977
483.964
483.992
483.957
483.963
483.962
483.965
483.955
483.958
483.987
483.97
484.029
483.953
484.014
483.976
483.955
483.963
483.99
484.03
483.955
483.971
484.015
483.976
484.133
484.015
484.064
484.003
484.017
484.064
483.965
483.972
484.03
483.956
484.016
483.976
483.957
483.964
483.992
483.956
484.031
484.017
483.971
483.976
483.964
483.992
483.957
484.076
484.072
484.174
484.052
484.162
484.147
484.159
484.332
484.331
484.387
484.331
484.386
484.386
484.441
484.277
484.388
484.334
484.387
484.334
484.442
484.389
484.387
484.274
484.332
484.386
484.441
484.331
484.387
484.334
484.333
484.277
484.442
484.389
484.388
484.334
484.158
484.185
484.065
484.185
484.118
484.224
484.118
484.386
484.386
484.441
484.274
484.331
484.331
484.387
484.334
484.442
484.389
484.333
484.276
484.388
484.334
484.441
484.331
484.387
484.331
484.387
484.274
484.332
484.389
484.388
484.334
484.388
484.334
484.333
484.277
484.031
484.116
484.115
484.166
484.039
484.102
484.102
484.165
484.115
484.101
484.031
484.116
484.102
484.04
484.164
484.114
484.101
484.03
484.114
484.101
484.039
484.072
484.076
484.053
484.148
484.174
484.16
484.162
484.072
484.075
484.052
484.147
484.174
484.159
484.161
484.075
484.072
484.052
484.147
484.174
484.161
484.159
484.114
484.029
484.113
484.163
484.038
484.1
484.098
484.114
484.164
484.101
484.03
484.114
484.039
484.101
484.029
484.113
484.163
484.113
484.099
484.037
484.098
484.057
484.054
484.17
484.033
484.155
484.139
484.153
484.116
484.165
484.102
484.031
484.116
484.04
484.102
484.028
484.113
484.112
484.163
484.037
484.099
484.098
484.116
484.031
484.116
484.166
484.04
484.102
484.102
484.029
484.114
484.163
484.114
484.099
484.039
484.099
484.031
484.115
484.164
484.114
484.101
484.039
484.101
484.028
484.162
484.112
484.112
484.098
484.098
484.037
484.158
484.066
484.185
484.185
484.118
484.118
484.223
484.031
484.166
484.115
484.116
484.102
484.102
484.04
484.158
484.066
484.185
484.185
484.118
484.118
484.223
484.159
484.185
484.066
484.185
484.118
484.224
484.118
484.028
484.162
484.113
484.112
484.098
484.098
484.038
484.031
484.166
484.116
484.115
484.102
484.102
484.039
484.027
484.112
484.112
484.161
484.036
484.097
484.097
484.158
484.184
484.065
484.185
484.117
484.223
484.117
484.031
484.116
484.116
484.166
484.04
484.102
484.102
484.158
484.184
484.065
484.185
484.117
484.223
484.118
484.158
484.184
484.185
484.066
484.223
484.117
484.118
484.027
484.112
484.112
484.162
484.037
484.097
484.098
484.159
484.185
484.185
484.065
484.224
484.118
484.118
484.113
484.029
484.113
484.163
484.098
484.038
484.099
484.164
484.114
484.1
484.03
484.114
484.101
484.038
484.028
484.162
484.112
484.113
484.098
484.099
484.037
484.057
484.17
484.054
484.155
484.033
484.138
484.153
484.165
484.115
484.102
484.031
484.116
484.102
484.04
484.028
484.112
484.162
484.112
484.098
484.037
484.099
484.057
484.17
484.053
484.154
484.032
484.137
484.152
484.114
484.029
484.163
484.114
484.099
484.1
484.039
)
;

boundaryField
{
    sphere_to_oil
    {
        type            compressible::turbulentTemperatureCoupledBaffleMixed;
        refValue        nonuniform List<scalar> 
1536
(
319.922
320.561
320.569
321.626
321.669
320.555
321.059
320.789
320.938
321.565
321.961
321.497
320.926
321.44
322.151
321.08
320.54
320.542
321.092
320.955
320.714
320.921
320.884
321.088
321.017
321.06
321.018
321.161
320.603
319.463
320.654
321.485
321.397
319.646
320.955
320.43
321.392
321.186
321.731
319.659
320.566
320.574
321.074
321.036
321.153
321.116
321.188
321.298
321.167
321.327
321.052
321.191
321.377
321.097
321.057
320.945
320.862
320.822
320.86
320.654
320.767
321.095
320.9
320.726
320.479
320.887
321.688
321.583
322.123
320.62
321.114
320.76
320.944
320.912
320.888
320.621
321.137
320.608
319.601
320.402
321.872
321.573
322.003
319.774
320.659
320.234
320.881
320.971
320.654
320.731
320.758
320.951
320.932
320.948
321.118
321.059
320.691
321.005
320.793
320.982
321.6
321.871
320.246
320.512
320.156
321.239
320.919
320.746
320.774
320.614
321.096
322.26
321.734
320.043
320.257
320.495
321.608
321.457
321.052
321.047
322.221
321.225
320.632
320.109
320.513
321.283
321.078
320.578
320.56
320.696
320.787
321.639
321.66
321.624
320.419
320.601
320.034
321.739
321.006
320.762
320.77
320.898
321.125
321.132
321.132
321.07
320.839
320.835
320.446
320.735
321.906
321.236
321.853
319.942
320.702
320.499
320.801
320.693
321.108
321.745
321.436
320.517
319.885
320.812
321.456
321.071
321.02
322.185
321.582
321.578
321.559
319.826
320.535
320.881
320.941
320.847
321.484
321.713
321.63
321.811
320.279
319.981
320.489
320.815
320.903
320.725
320.861
321.153
320.599
320.738
320.439
320.843
320.889
321.25
320.741
320.691
320.739
320.988
320.008
320.674
320.325
321.929
321.676
320.773
320.618
321.062
321.018
320.573
320.87
322.114
319.787
320.451
320.603
321.866
320.726
321.264
321.019
320.532
320.915
320.723
320.666
320.962
320.924
321.017
320.792
320.963
321.063
320.849
320.197
320.456
320.262
321.106
321.085
319.905
320.382
320.727
320.548
320.695
320.478
321.046
320.899
320.107
320.396
320.699
320.536
320.886
320.854
320.258
320.661
320.564
321.127
320.3
320.226
320.855
321.291
320.61
320.133
320.404
320.737
319.853
319.843
320.416
320.025
320.581
320.069
321.478
321.345
321.308
322.438
320.291
321.14
321.156
321.207
321.26
320.63
319.787
321.155
320.354
321.481
320.471
320.27
321.002
320.121
321.149
321.174
320.981
321.166
322.286
321.99
321.745
321.01
321.282
321.15
320.682
322.333
322.22
321.844
321.833
321.092
320.812
321.145
320.77
322.25
320.874
320.047
321.379
320.121
321.744
320.037
321.256
321.357
320.037
321.501
320.362
321.357
321.3
320.085
320.465
320.8
321.074
320.007
320.409
320.834
321.217
320.797
321.419
321.253
321.21
320.449
321.403
322.083
320.579
320.656
320.367
321.412
322.351
320.349
320.269
321.125
321.129
320.89
321.362
321.011
320.402
320.38
320.716
321.041
320.756
321.113
322.045
320.315
320.383
320.877
321.305
321.062
321.018
321.084
320.562
321.065
320.671
322.072
320.653
320.11
321.502
321.394
321.385
322.322
320.547
320.633
320.862
321.024
320.911
320.851
322.102
321.785
320.88
320.275
320.618
320.938
321.085
320.498
321.487
321.126
322.242
320.474
320.975
320.326
320.078
320.635
320.405
320.324
320.614
320.795
320.726
320.486
322.234
321.547
321.456
320.055
321.373
320.293
321.239
322.225
321.877
320.623
321.043
320.084
319.738
321.449
320.802
321.667
322.316
320.927
320.777
320.416
320.664
320.391
321.122
321.104
321.314
321.817
321.122
320.328
319.955
321.013
321.382
321.082
320.382
320.275
320.366
321.067
321.516
320.889
320.906
320.048
320.332
320.76
320.892
320.644
320.374
322.172
321.371
321.095
320.355
320.641
320.519
320.989
320.927
320.586
320.103
320.734
320.72
320.759
320.266
322.643
321.121
321.174
321.105
321.25
321.153
320.314
320.084
321.581
321.029
321.013
321.04
321.052
321.264
320.803
320.892
321.337
321.789
321.209
321.505
321.252
320.137
319.969
320.258
320.221
320.328
319.754
321.381
321.356
320.927
320.426
320.93
320.95
319.881
319.889
321.019
321.189
320.897
321.309
321.217
320.584
321.379
321.125
320.684
320.636
320.463
320.672
320.916
320.789
321.122
321.905
320.364
320.796
320.58
321.007
321.219
321.03
320.943
320.337
320.354
320.592
320.922
320.782
320.586
322.206
321.246
321.352
320.183
320.079
320.146
321.063
321.187
321.142
321.357
321.002
320.179
320.143
320.678
320.813
321.55
321
321.279
320.908
321.201
320.991
321.842
320.608
320.734
320.662
321.026
321.35
320.327
320.418
320.325
320.821
321.167
320.394
320.252
320.811
320.911
320.836
320.95
322.275
320.86
321.013
321.414
321.721
320.718
320.548
321.574
321.412
321.514
321.404
319.991
319.931
319.913
320.347
320.2
320.796
321.088
320.843
320.838
322.257
320.031
321.295
320.338
321.04
321.493
320.981
321.475
319.98
320.457
320.898
320.682
320.972
320.859
322.042
321.103
321.305
321.108
321.039
321.516
320.188
320.228
320.532
320.887
321.588
321.216
322.497
321.234
322.52
320.495
320.183
320.449
321.298
320.82
321.473
320.951
321.155
321.072
321.14
320.602
320.332
321.014
321.014
321.085
321.089
321.825
321.077
321.42
321.048
320.103
320.347
320.834
321.103
320.885
321.484
320.21
320.355
320.438
320.906
321.565
320.492
320.104
320.887
321.06
320.573
321.619
321.993
321.16
321.482
320.168
320.694
319.792
320.777
321.214
320.487
320.03
320.791
320.651
321.142
320.428
322.047
321.236
321.14
321.321
321.106
321.055
321.047
320.973
321.348
321.542
322.489
321.883
322.082
321.048
321.183
321.085
320.662
322.212
320.342
320.625
320.777
320.833
320.853
321.367
322.255
321.111
321.348
320.36
320.391
320.384
321.077
321.032
321.108
320.854
321.165
320.655
320.616
320.436
320.91
320.817
321.023
321.962
321.554
321.223
320.792
320.713
321.33
321.609
321.187
321.229
320.828
321.63
320.991
320.833
320.102
320.116
321.203
321.021
321.21
320.168
321.137
320.429
320.404
320.698
320.738
320.432
321.012
322.003
321.171
321.432
320.74
320.509
320.248
321.012
321.113
320.587
320.795
320.529
321.007
321.269
320.883
322.137
321.466
320.873
320.684
320.948
321.683
320.689
320.334
320.274
320.906
321.199
320.464
320.538
320.681
321.047
320.802
320.948
322.046
320.995
321.332
320.853
321.258
321.51
321.232
321.657
320.349
319.921
320.057
320.171
320.417
319.876
320.736
321.5
320.043
321.346
321.244
320.492
320.369
320.448
320.393
320.587
321.453
321.335
321.035
321.179
320.866
320.788
321.108
319.944
320.207
320.239
320.066
320.145
320.817
320.707
320.431
320.726
322.675
320.159
320.301
320.884
320.86
320.595
320.597
322.216
321.153
321.249
321.237
321.098
321.299
320.011
321.02
320.439
320.897
321.137
321.083
321.538
320.163
320.695
320.253
320.991
321.16
321.542
322.218
321.592
322.197
321.597
320.843
321.094
321.093
321.463
321.765
321.213
321.722
320.615
320.491
320.516
321.332
320.443
321.054
322.242
321.405
320.965
320.736
320.26
320.453
320.89
320.954
320.791
321.588
320.649
320.416
320.384
321.004
321.21
321.089
320.233
319.885
320.3
320.782
320.251
321.416
321.338
320.449
321.399
320.399
321.345
322.365
321.264
322.279
320.95
321.26
321.205
320.769
322.03
322.079
321.868
321.237
320.838
320.202
320.106
320.983
320.815
321.064
320.262
320.37
320.151
321.09
321.186
321.3
320.537
319.988
321.483
321.446
321.545
321.218
320.558
320.988
320.288
321.745
319.762
321.403
320.31
320.658
322.032
321.298
321.129
320.245
321.176
321.441
322.127
321.856
321.084
321.166
321.132
320.841
322.042
321.825
321.121
321.134
321.354
320.532
320.964
320.548
320.375
319.979
320.807
321.195
321.129
320.376
320.423
320.676
320.761
320.759
320.825
322.137
321.641
321.063
320.486
320.142
320.521
321.342
321.295
321.13
321.275
320.401
320.543
320.163
321.009
321.158
321.962
320.813
320.551
320.614
320.709
320.452
320.808
321.311
321.216
322.029
321.379
321.985
321.436
322.068
321.195
320.884
321.031
321.158
321.479
322.003
320.626
320.445
320.764
321.186
320.673
320.889
322.121
320.064
320.562
320.721
321.232
321.15
320.777
322.072
321.341
321.086
320.249
320.388
320.588
321.019
321.01
321.899
320.735
320.299
320.5
320.123
321.489
320.724
320.304
321.178
320.119
320.387
320.904
320.229
321.265
321.099
321.628
320.953
320.546
321.326
321.042
321.894
320.865
321.084
320.804
320.118
319.908
320.493
320.333
320.216
321.472
321.257
321.34
322.277
320.411
320.948
320.507
319.784
321.605
321.112
321.462
320.979
320.82
320.636
320.836
319.967
320.308
320.398
319.861
320.214
321.774
321.236
321.549
320.457
320.144
320.025
320.922
321.108
320.858
321.785
319.617
320.241
320.349
320.942
321.456
320.487
320.381
320.723
320.76
320.871
320.854
322.036
320.071
320.845
320.722
320.9
320.875
320.444
322.382
321.427
321.207
320.674
320.532
320.57
320.768
321.043
321.183
320.322
321.972
321.167
321.295
322.348
321.998
321.394
321.982
321.216
320.887
320.92
320.939
321.51
321.175
321.424
320.495
320.896
320.416
321.141
321.121
320.53
320.586
320.687
321.412
320.513
320.754
322.015
321.594
321.516
320.322
320.37
320.745
321.225
320.895
320.709
322.214
320.63
319.882
321.688
321.315
321.414
320.339
320.716
320.714
320.357
321.393
319.888
320.538
321.015
320.24
322.563
320.735
321.604
320.32
321.241
321.388
322.174
321.822
321.149
321.004
320.975
320.81
322.124
321.991
321.117
321.118
321.262
320.713
320.873
320.571
320.236
320.489
321.351
321.247
320.447
320.672
321.188
320.199
320.154
321.534
320.367
319.983
321.224
321.526
322.293
321.403
322.378
320.099
320.528
320.843
320.373
320.424
322.337
322.1
321.292
321.997
322.09
321.143
320.462
321.022
321.222
322.114
320.794
320.857
320.413
320.533
320.52
320.968
320.857
320.321
320.791
319.382
320.834
321.287
320.346
320.59
320.525
320.84
321.268
320.233
320.376
320.588
320.722
320.663
320.919
322.281
321.496
321.004
320.866
320.443
321.015
320.765
320.726
320.775
320.711
322.13
321.211
322.353
320.566
321.571
320.399
321.932
321.09
320.59
320.485
321.337
321.242
322.265
321.785
321.538
322.572
321.112
321.053
320.957
320.894
321.579
321.443
320.983
320.449
320.279
320.348
321.129
321.011
321.56
320.905
320.365
320.437
320.582
321.198
320.847
321.615
321.287
320.53
320.716
320.941
321.235
321.125
320.503
321.925
320.534
320.139
320.6
321.21
320.757
321.073
322.124
321.249
321.426
320.831
320.599
321.136
320.374
320.974
319.887
320.838
320.844
319.984
319.983
319.974
320.729
321.268
319.806
320.941
321.155
320.948
320.638
321.396
321.295
321.091
321.425
320.939
321.621
321.086
320.826
320.169
320.406
321.361
321.007
321.166
320.602
321.538
320.047
320.536
320.768
320.964
321.164
320.934
322.146
320.613
320.263
319.553
320.994
321.793
320.995
321.45
320.549
320.742
320.687
320.776
320.91
321.473
321.937
321.238
320.92
321.199
320.734
320.499
320.339
320.894
321.318
320.902
321.193
320.966
320.672
320.838
321.934
320.592
320.561
320.72
320.983
320.904
321.122
321.403
321.545
321.644
321.385
319.988
320.152
320.215
321.305
320.891
321.165
321.51
321.096
320.924
320.035
320.361
321.323
320.95
320.195
320.422
320.768
321.129
320.945
320.792
322.184
320.689
320.713
320.081
321.01
321.373
321.001
321.176
320.983
321.025
320.83
321.035
320.937
321.666
322.818
321.32
322.64
320.646
320.28
320.329
321.009
320.737
320.815
322.432
321.294
321.017
321.04
320.713
320.221
321.007
321.357
321.14
321.193
320.929
322.077
320.863
320.316
320.748
320.154
320.753
320.18
321.413
321.195
321.053
321.237
319.969
320.386
320.865
320.653
320.901
320.402
322.871
321.227
321.242
321.106
320.405
320.733
320.167
320.913
321.348
320.869
321.197
320.498
320.334
320.815
321.132
320.737
320.469
322.124
321.594
322.689
320.818
321.308
321.036
321.317
321.011
321.274
322.415
321.655
320.827
320.121
320.719
320.022
321.234
320.889
321.063
321.196
320.939
320.606
320.459
320.854
320.99
321.246
320.911
321.726
320.31
320.421
321.471
321.259
320.925
320.988
321.115
321.046
320.776
320.779
322.208
320.295
320.602
320.488
321.609
321.095
320.831
320.712
320.897
321.038
321.062
321.068
321.381
320.574
320.72
320.799
320.803
320.988
320.67
321.773
321.529
321.02
320.071
320.112
320.158
321.011
321.187
320.35
320.611
320.622
321.219
320.992
321.107
321.946
319.824
320.305
320.343
321.381
320.959
320.924
321.042
320.725
321.093
321.57
321.424
321.034
320.522
320.304
319.775
320.907
321.136
320.534
320.539
320.763
321.183
320.977
320.68
321.942
320.359
320.281
320.77
321.358
321.022
320.978
321.08
321.052
321.101
320.602
322.081
320.573
320.494
320.588
)
;
        refGradient     uniform 0;
        valueFraction   nonuniform List<scalar> 
1536
(
0.000133562
0.000151655
0.000160977
0.000399297
0.000381677
0.000216715
0.000236123
0.000207382
0.000222055
0.00038408
0.000379026
0.000381559
0.00021386
0.000226607
0.000381297
0.000360326
0.000221535
0.000244703
0.000335831
0.000201884
0.00021602
0.000201515
0.00021311
0.000350564
0.000351279
0.000350712
0.000332903
0.000351116
0.000178516
0.000153325
0.000163185
0.000411931
0.000404404
0.000140509
0.000153956
0.000157387
0.000403935
0.000402879
0.000402111
0.000141515
0.000153051
0.000157285
0.000333691
0.000333378
0.000316798
0.00031267
0.000254094
0.000306968
0.000318818
0.000250075
0.000310378
0.000317336
0.000249614
0.000334395
0.000199319
0.000208917
0.000205683
0.000221
0.000211268
0.000230519
0.000206408
0.000217145
0.000219858
0.000249727
0.000214367
0.000240311
0.000386275
0.000384812
0.000319973
0.000216474
0.000233926
0.000208268
0.000221002
0.000216125
0.000245004
0.000207032
0.000218176
0.000153145
0.000137876
0.000160818
0.000389134