/*--------------------------------*- C++ -*----------------------------------*\
| =========                 |                                                 |
| \\      /  F ield         | OpenFOAM: The Open Source CFD Toolbox           |
|  \\    /   O peration     | Version:  v1906                                 |
|   \\  /    A nd           | Web:      www.OpenFOAM.com                      |
|    \\/     M anipulation  |                                                 |
\*---------------------------------------------------------------------------*/
FoamFile
{
    version     2.0;
    format      ascii;
    class       volScalarField;
    location    "96";
    object      alphat;
}
// * * * * * * * * * * * * * * * * * * * * * * * * * * * * * * * * * * * * * //

dimensions      [1 -1 -1 0 0 0 0];


internalField   nonuniform List<scalar> 
78750
(
0.00161345
0.00354278
0.0024393
0.00100004
0.000106799
1.8713e-05
9.15947e-05
4.49201e-05
8.11842e-05
6.91173e-05
8.02362e-05
8.30163e-05
9.10449e-05
9.62718e-05
0.000102387
0.000108945
0.000115663
0.000122336
0.000128696
0.000134947
0.000141105
0.000146845
0.000151767
0.000155414
0.000157486
0.000158738
0.000159696
0.000160113
0.000158842
0.000150234
0.000133298
0.000118055
0.000110829
5.21539e-05
8.45072e-07
0.000242352
0.000171994
0.000388636
8.26356e-05
9.03558e-05
9.737e-05
0.000104378
0.000147191
0.000173028
0.000203755
0.000230797
0.000255556
0.000273613
0.000286527
0.000294451
0.000297986
0.000298742
0.000298374
0.000298143
0.000298542
0.000299542
0.000300844
0.000301191
0.000296491
0.000281249
0.000252927
0.000213914
0.000170104
0.00013124
0.000103707
9.87479e-05
0.000115869
2.46049e-05
1.63968e-05
4.0059e-06
1.14745e-05
4.58103e-05
7.08435e-05
7.39127e-05
6.7158e-05
0.000123575
0.000224522
0.000298819
0.000298356
0.00029375
0.00030589
0.000321031
0.00033348
0.000341907
0.000345593
0.000344808
0.000339539
0.000329084
0.0003126
0.000289749
0.000260942
0.00022702
0.000189217
0.000150193
0.000113524
8.33204e-05
6.72467e-05
8.19609e-05
0.00015562
0.000110305
5.95748e-05
8.88723e-05
4.43561e-05
1.1894e-05
3.53229e-06
3.65433e-06
4.59763e-05
7.26089e-05
9.9869e-05
0.000135518
0.00017906
0.000258993
0.000346311
0.000344882
0.000292106
0.000263931
0.000270829
0.000294997
0.000317971
0.000334423
0.000346616
0.000356196
0.000363206
0.000366979
0.000366418
0.000360118
0.000346656
0.000325221
0.000293852
0.000248956
0.000191168
0.000131767
8.66578e-05
6.2997e-05
6.13479e-05
7.20244e-05
3.72492e-05
3.31471e-05
1.94837e-05
4.16148e-06
3.45224e-06
7.13513e-05
8.85526e-05
0.000120676
0.000164821
0.000181638
0.000190919
0.000207635
0.000238584
0.000284217
0.00033524
0.000367828
0.000370434
0.000359446
0.000350204
0.000345027
0.000340909
0.000335553
0.000327618
0.000316511
0.000302406
0.000286838
0.000272088
0.000258416
0.000242529
0.000218734
0.000182478
0.000136567
9.55538e-05
7.47153e-05
7.74335e-05
3.69891e-05
4.03627e-06
8.15874e-06
5.14834e-06
5.37117e-06
0.000133408
0.000156275
0.000151509
0.000132739
0.000126529
0.00016356
0.000284685
0.000375927
0.000375984
0.000376625
0.000377785
0.000367871
0.000338979
0.000335327
0.000341649
0.000346649
0.000347877
0.000345319
0.000338741
0.00032745
0.000311793
0.000293121
0.000273185
0.000252835
0.000230805
0.000204606
0.000172822
0.000137629
0.000104641
7.62438e-05
4.95921e-05
2.79334e-05
2.22867e-05
5.21003e-06
4.5519e-06
0.000127738
0.000129414
8.53727e-05
7.54416e-05
9.67677e-05
0.000167867
0.000316449
0.000363072
0.00036697
0.00037066
0.000373996
0.00037692
0.000379463
0.000381721
0.000383819
0.000377668
0.000357139
0.000337546
0.000320377
0.00030501
0.000290814
0.000277072
0.000263011
0.000248011
0.000231416
0.000212417
0.000190838
0.000168046
0.000145495
0.000118165
7.19483e-05
2.60959e-05
2.06356e-05
6.82947e-06
3.31537e-06
6.54654e-05
5.67212e-05
8.47258e-05
0.000163974
0.000248211
0.000275804
0.000302184
0.000353055
0.000366245
0.000367859
0.000369301
0.000370673
0.00037208
0.000373624
0.00037539
0.000377442
0.000379818
0.00038252
0.000374968
0.000350496
0.000325173
0.00030092
0.000277519
0.00025498
0.00023348
0.000212959
0.000193481
0.000175884
0.000162824
0.000155831
0.000124511
3.90553e-05
1.35392e-05
6.98418e-06
4.33922e-06
0.000163528
0.00017566
0.000166891
0.000166561
0.000199659
0.00027703
0.0003396
0.000341312
0.000343059
0.000344823
0.000346628
0.000348525
0.000350573
0.000352832
0.000355349
0.000358157
0.000361263
0.000364649
0.000368262
0.000372003
0.000375697
0.000356068
0.000314993
0.000274485
0.000237849
0.000202382
0.000164725
0.000122934
7.88934e-05
4.12225e-05
2.17356e-05
2.57744e-05
8.09375e-05
9.90401e-06
4.78061e-06
0.000134102
8.04887e-05
8.20135e-05
0.000136352
0.000268125
0.000336638
0.000338395
0.000339838
0.000340963
0.00034183
0.000342534
0.000343186
0.000343892
0.000344747
0.000345829
0.000347196
0.000348886
0.00035091
0.000353232
0.000321196
0.000287991
0.000260752
0.000238731
0.000220416
0.000204563
0.00019195
0.000185441
0.00018463
0.00017721
0.000137742
5.05952e-05
1.55724e-05
2.13303e-05
8.77141e-06
5.12065e-06
0.000169952
7.1518e-05
6.87469e-05
0.00011064
0.000203032
0.000325412
0.000325245
0.000325076
0.000325092
0.000325429
0.000326174
0.000327364
0.000329001
0.000331056
0.000333484
0.000336228
0.000339222
0.000342392
0.000345652
0.000340437
0.000307359
0.000267373
0.000227984
0.000193939
0.000165907
0.000141888
0.000119609
9.72671e-05
7.45173e-05
5.54342e-05
3.85454e-05
2.58334e-05
4.63604e-05
1.02942e-05
4.92208e-06
0.000178128
7.42677e-05
5.94594e-05
7.69481e-05
0.00012279
0.000209247
0.000309807
0.000310613
0.000311565
0.000312624
0.00031375
0.000314917
0.000316112
0.00031734
0.000318611
0.000319941
0.000321341
0.000322839
0.000311977
0.000288043
0.00026947
0.000251713
0.000232394
0.000210397
0.000184585
0.000156227
0.000127572
9.48191e-05
5.80944e-05
3.44652e-05
2.52578e-05
2.574e-05
6.74651e-05
9.79802e-06
4.15094e-06
0.00014238
5.42913e-05
4.64368e-05
6.75972e-05
0.000119251
0.000214663
0.000312782
0.000316366
0.000319641
0.000322588
0.00032524
0.000327648
0.000329865
0.000331932
0.000333883
0.000335737
0.000300951
0.000263358
0.000235985
0.000215253
0.000197963
0.000182394
0.000167216
0.000150543
0.000129852
0.000104731
8.07435e-05
6.29914e-05
4.79452e-05
3.45298e-05
2.92411e-05
4.35963e-05
7.30473e-05
9.13503e-06
3.66213e-06
0.000101661
6.62465e-05
8.5487e-05
0.000139831
0.000212703
0.000284872
0.000310931
0.000312466
0.000313921
0.000315483
0.000317247
0.000319235
0.000321396
0.000323621
0.000282149
0.000242523
0.000211822
0.000188316
0.000169573
0.000154121
0.000141164
0.000130257
0.000120977
0.00011215
0.000101857
9.31718e-05
9.92986e-05
0.000131718
0.000158978
0.000112161
5.64758e-05
2.69008e-05
3.32969e-05
7.27038e-06
3.04404e-06
0.000118314
8.94959e-05
9.37941e-05
0.000110413
0.000129908
0.00015434
0.000193202
0.000256354
0.000304246
0.000308005
0.000311842
0.000315676
0.000319376
0.000290936
0.000254123
0.000222533
0.000196358
0.000174428
0.000155975
0.000140312
0.000126896
0.000115403
0.000105649
9.71985e-05
8.89673e-05
8.37958e-05
9.14424e-05
0.00010419
8.32035e-05
5.86521e-05
5.83682e-05
4.06509e-05
1.98626e-05
8.87501e-06
2.95367e-06
0.000132143
0.000119872
0.000121
0.000133273
0.000149222
0.000168618
0.000195092
0.000231643
0.000277095
0.000320764
0.000340853
0.000344843
0.000348615
0.000340508
0.000317368
0.000290269
0.000262468
0.000235545
0.000210652
0.000188423
0.00016935
0.000154432
0.000145868
0.000147066
0.000157698
0.000144923
7.93396e-05
3.81536e-05
3.01199e-05
3.72906e-05
4.71706e-05
3.5803e-05
3.74236e-05
1.2111e-05
3.64458e-06
0.00013173
0.000115837
0.000107781
0.000111607
0.000123445
0.000143088
0.000171399
0.000207768
0.000249528
0.000292223
0.000328148
0.000340559
0.000344421
0.000347761
0.000350325
0.000351929
0.000336463
0.000301049
0.000260109
0.000217237
0.000173085
0.000128217
8.86375e-05
6.04116e-05
4.36966e-05
3.73224e-05
4.12922e-05
5.69147e-05
8.24746e-05
9.92677e-05
8.71671e-05
7.27438e-05
0.000114053
1.31518e-05
4.13264e-06
0.00010485
0.000105861
9.51465e-05
9.52392e-05
0.000102202
0.000113184
0.000129919
0.000156535
0.000196467
0.000250161
0.000310904
0.000338919
0.000344819
0.000349797
0.000353363
0.0003551
0.000354628
0.00035159
0.000345732
0.000313456
0.000223228
0.000125431
5.84141e-05
2.98444e-05
2.09896e-05
2.18898e-05
3.26743e-05
6.14562e-05
0.000100134
0.000109216
9.92163e-05
0.000100654
8.97712e-05
1.14542e-05
4.23943e-06
0.000112815
0.000123077
0.000106705
0.000102229
0.000108688
0.000123514
0.000147174
0.000181757
0.000227213
0.00027909
0.000330073
0.000365208
0.000372361
0.00037897
0.000384557
0.000388765
0.000391318
0.000352399
0.000302304
0.000250501
0.000198963
0.000146948
9.56306e-05
5.49884e-05
3.2448e-05
2.44852e-05
2.63833e-05
3.69738e-05
5.47289e-05
7.56652e-05
9.13644e-05
9.36667e-05
5.71209e-05
9.3773e-06
5.00301e-06
0.000118768
0.000109321
9.67993e-05
0.000105081
0.000125781
0.000150457
0.0001758
0.000202461
0.000231094
0.000260817
0.000289586
0.000314791
0.000334145
0.00034616
0.000349582
0.000343243
0.000326756
0.000302009
0.000272439
0.000240242
0.000206396
0.000171095
0.000134135
9.67521e-05
6.44009e-05
4.30971e-05
3.31765e-05
3.09429e-05
3.17718e-05
3.2992e-05
4.21337e-05
7.0076e-05
5.0052e-05
8.75406e-06
5.56709e-06
0.000130314
0.000128265
0.000116282
0.000129407
0.000156225
0.000182479
0.000203277
0.000221822
0.000241528
0.000262964
0.00028502
0.000305928
0.000323919
0.000337342
0.000344665
0.000344591
0.000336478
0.000320829
0.000298893
0.000272254
0.000242664
0.00021167
0.000180199
0.000148551
0.000117121
8.79419e-05
6.44823e-05
4.87159e-05
3.93736e-05
3.31113e-05
2.77888e-05
3.63276e-05
8.11336e-05
9.40389e-06
5.61489e-06
0.000111427
0.000118706
0.000121696
0.000142041
0.000168292
0.000190697
0.000208311
0.000224521
0.000241622
0.000259983
0.000278983
0.000297757
0.000315429
0.000330995
0.00034326
0.000350886
0.000352605
0.000347545
0.000335451
0.000316748
0.000292655
0.000264767
0.000234523
0.000202886
0.000170744
0.000138723
0.000107816
7.86399e-05
5.13584e-05
3.04401e-05
1.97355e-05
2.34797e-05
7.40285e-05
1.04573e-05
6.25724e-06
9.73903e-05
0.000102277
0.000101484
0.000119407
0.000144
0.000166313
0.000185339
0.000202704
0.000219556
0.000236299
0.000252951
0.000269362
0.000285245
0.000300129
0.000313342
0.000324022
0.000331183
0.00033385
0.000331277
0.000323117
0.00030955
0.000291234
0.000268958
0.000243396
0.000215174
0.000185192
0.000154808
0.000125011
9.27756e-05
4.76387e-05
2.03907e-05
1.5173e-05
3.96681e-05
1.13793e-05
6.10011e-06
9.94449e-05
0.000123171
0.000119106
0.000130663
0.000153112
0.000174048
0.000188727
0.000199828
0.000210125
0.000220729
0.000231907
0.000243659
0.000255842
0.000268163
0.00028017
0.000291241
0.000300587
0.000307273
0.000310311
0.000308757
0.000301971
0.000289892
0.000272931
0.000251487
0.000226062
0.000197678
0.00016812
0.000140416
0.00011593
5.3319e-05
1.84796e-05
1.2073e-05
3.16262e-05
1.2273e-05
7.90183e-06
0.000116001
0.000102593
9.92349e-05
0.00012918
0.000172305
0.000201537
0.000214796
0.000220914
0.000225733
0.000231378
0.000238287
0.000246405
0.000255529
0.000265341
0.000275409
0.00028519
0.000294022
0.000301116
0.000305558
0.000306296
0.000302286
0.000292747
0.000277463
0.000256851
0.000231164
0.00020083
0.000168384
0.000138337
0.000102371
3.19271e-05
1.1418e-05
1.29211e-05
4.7055e-05
1.34656e-05
6.99365e-06
0.000115079
0.000115178
0.000101521
0.000123213
0.000166023
0.000204696
0.000228167
0.000241836
0.000252171
0.000261825
0.000271374
0.000280896
0.00029039
0.000299768
0.000308838
0.000317283
0.000324658
0.000330379
0.0003337
0.000333699
0.000329272
0.000319233
0.000302621
0.000279045
0.000248488
0.000210963
0.000166875
0.000115067
4.24559e-05
1.28133e-05
1.19237e-05
2.50339e-05
0.000108177
1.36893e-05
7.12968e-06
0.00014433
0.000147157
0.00012926
0.000152219
0.000195023
0.000229591
0.000248655
0.000258897
0.000265647
0.000271398
0.000277315
0.000283943
0.000291449
0.000299749
0.000308604
0.000317648
0.000326391
0.000334196
0.000340193
0.000343212
0.000341681
0.000333726
0.000317555
0.00029219
0.000257171
0.000210872
0.000149068
6.40235e-05
1.32545e-05
6.82888e-06
1.82716e-05
6.02758e-05
9.03016e-05
1.2474e-05
7.61934e-06
0.00013676
0.000186028
0.000194771
0.000207815
0.000217035
0.000221177
0.000223788
0.000227127
0.000232016
0.00023856
0.000246654
0.000256191
0.000267075
0.000279182
0.000292308
0.000306107
0.000320011
0.00033315
0.000344222
0.000351399
0.000352306
0.000344278
0.000325243
0.000294665
0.000252886
0.00019969
0.00013273
5.39063e-05
9.55069e-06
3.89872e-06
1.39857e-05
6.84412e-05
5.20086e-05
1.12012e-05
9.35436e-06
0.000106262
0.000136827
0.000138366
0.00015082
0.000167825
0.000184407
0.000200082
0.000215161
0.000229822
0.000244256
0.000258719
0.000273471
0.000288689
0.000304398
0.000320399
0.000336197
0.000350916
0.00036328
0.000371655
0.000374158
0.000368872
0.00035429
0.000330058
0.000297217
0.000257244
0.000210766
0.000157144
9.53865e-05
3.54154e-05
8.15569e-06
7.22612e-06
2.72028e-05
7.22469e-05
1.07553e-05
8.34534e-06
7.719e-05
0.000119602
0.000121181
0.000132693
0.000155389
0.000186863
0.000221258
0.000253327
0.000280943
0.000303977
0.000322942
0.000338388
0.000350749
0.000360312
0.000367201
0.000371421
0.000372886
0.000371413
0.000366762
0.000358682
0.000346932
0.000331301
0.000311714
0.000288302
0.00026115
0.000230086
0.000194675
0.000154158
0.000107077
5.36273e-05
1.71627e-05
9.9204e-06
5.19294e-05
1.12157e-05
8.59393e-06
7.75532e-05
0.000125221
0.000107898
0.00011576
0.000149265
0.000199241
0.000252243
0.000298419
0.000333694
0.000357879
0.000372466
0.000379421
0.000380696
0.000378013
0.000372747
0.00036592
0.000358198
0.000349926
0.000341194
0.000331901
0.000321804
0.000310565
0.000297747
0.000282874
0.000265455
0.000244954
0.000221082
0.000194528
0.000166004
0.000130395
6.64032e-05
1.27572e-05
2.1199e-05
1.23033e-05
8.48522e-06
8.21825e-05
0.000145059
0.000116123
0.000122971
0.000160887
0.000215424
0.000270393
0.000316467
0.000350474
0.000372429
0.000383956
0.000387368
0.000385042
0.000379057
0.000371039
0.000362119
0.000352974
0.000343922
0.000335019
0.000326141
0.000317059
0.000307466
0.000296955
0.000285088
0.000271341
0.00025508
0.000235835
0.000214678
0.000195853
0.000177586
0.000104259
1.9405e-05
1.55514e-05
1.34588e-05
1.00533e-05
0.000129144
0.000183102
0.000160957
0.00017529
0.00021627
0.00026288
0.000303245
0.00033527
0.000359347
0.000375939
0.000385681
0.000389563
0.000388826
0.00038477
0.000378573
0.000371177
0.000363219
0.000355044
0.000346738
0.000338197
0.000329191
0.00031942
0.000308537
0.000296145
0.000281759
0.000264816
0.000244919
0.000222762
0.000201833
0.000183844
7.58764e-05
1.77285e-05
2.1622e-05
1.41737e-05
1.06482e-05
0.000124086
0.000176659
0.000157291
0.00016548
0.000196135
0.000234377
0.000271358
0.000304437
0.000332954
0.00035638
0.000374212
0.000386343
0.000393196
0.000395595
0.000394542
0.000391015
0.000385816
0.000379491
0.00037231
0.000364282
0.000355203
0.000344719
0.000332391
0.000317742
0.000300271
0.000279371
0.000254542
0.00022585
0.000191155
0.000133941
4.15334e-05
1.79367e-05
4.4865e-05
1.42367e-05
9.88309e-06
8.96416e-05
0.000168238
0.00014231
0.000139997
0.000162025
0.000197692
0.000238454
0.000279468
0.000317739
0.00035104
0.00037789
0.000397618
0.000410477
0.000417397
0.000419601
0.000418296
0.000414494
0.00040893
0.000402029
0.00039391
0.000384398
0.000373069
0.000359304
0.000342357
0.000321415
0.000295591
0.000263666
0.000222709
0.000164133
7.9394e-05
2.70709e-05
2.34546e-05
9.77559e-05
1.36788e-05
9.72656e-06
7.82947e-05
0.00015733
0.000134314
0.000136082
0.000162008
0.000199987
0.00024027
0.000278414
0.000312877
0.000342905
0.000368103
0.000388297
0.000403422
0.000413704
0.000419646
0.000421884
0.000421047
0.000417659
0.00041208
0.000404463
0.00039473
0.000382551
0.000367346
0.000348318
0.000324544
0.000294928
0.00025735
0.000206155
0.000133456
5.81414e-05
2.53267e-05
3.30408e-05
0.000137261
1.30322e-05
9.97261e-06
7.42948e-05
0.00014842
0.000127776
0.000131677
0.000158445
0.000196406
0.000237141
0.00027651
0.000311781
0.000340991
0.000363647
0.000380431
0.000392356
0.000400377
0.000405232
0.000407402
0.000407152
0.000404579
0.000399654
0.000392236
0.000382069
0.000368754
0.000351742
0.000330396
0.000304072
0.000271903
0.000231466
0.000177299
0.000108658
5.12456e-05
2.97702e-05
4.75812e-05
0.00012199
1.25671e-05
9.89302e-06
6.47819e-05
0.000154036
0.000131175
0.000130658
0.000153416
0.00018556
0.000216719
0.00024518
0.000272372
0.000299086
0.00032467
0.000347651
0.000366508
0.000380286
0.000388893
0.000392874
0.000393008
0.00038999
0.000384263
0.000375995
0.000365118
0.000351388
0.000334435
0.000313873
0.000289447
0.000260597
0.00022514
0.000177236
0.000113092
5.59376e-05
3.48376e-05
5.70826e-05
0.000121091
1.23049e-05
9.41885e-06
5.16187e-05
0.000147772
0.000130165
0.000122514
0.000138915
0.000173251
0.000215765
0.000255589
0.000285829
0.000306016
0.000319638
0.000330465
0.000340678
0.000350627
0.00035943
0.000365778
0.000368626
0.000367507
0.000362514
0.00035406
0.000342601
0.000328411
0.000311489
0.000291633
0.000268661
0.000242144
0.000210481
0.000169436
0.000115443
6.40217e-05
4.3646e-05
7.01317e-05
0.000133643
1.24381e-05
8.12826e-06
3.75094e-05
0.000123123
0.000125342
0.000121242
0.000131699
0.000151721
0.000175777
0.0002037
0.000237556
0.000276101
0.000312682
0.000339788
0.00035443
0.000358759
0.000357223
0.000353541
0.00034955
0.000345531
0.000340877
0.000334639
0.000325903
0.000313999
0.000298559
0.000279451
0.000256785
0.000230487
0.000199385
0.000160349
0.000111883
6.77274e-05
5.20556e-05
8.45732e-05
0.000144129
1.2633e-05
5.69245e-06
2.41197e-05
0.000111026
0.000128314
0.000117801
0.00012805
0.000155649
0.000184586
0.000203678
0.000215983
0.000226917
0.000240238
0.00025907
0.000285132
0.000315971
0.000343565
0.000359353
0.000361043
0.000352516
0.000339267
0.000325112
0.000311529
0.000298408
0.000284914
0.000269981
0.000252498
0.000231275
0.000204206
0.000166845
0.000116215
6.92273e-05
5.38905e-05
8.63561e-05
0.000146378
1.26472e-05
3.87593e-06
1.3594e-05
4.24292e-05
0.000108547
0.000112227
0.000101884
0.000105482
0.000124858
0.000165528
0.000228634
0.000279051
0.000287062
0.000275174
0.000265752
0.00026563
0.000273916
0.000287395
0.000301365
0.000310625
0.000311882
0.000305246
0.000293354
0.000279186
0.000264593
0.000250121
0.000235434
0.0002197
0.000201148
0.000174637
0.000130144
7.63683e-05
5.53533e-05
8.64166e-05
0.000152706
1.30298e-05
2.8401e-06
1.17337e-05
2.1236e-05
3.56536e-05
5.58808e-05
7.86844e-05
9.50665e-05
0.000103161
0.000109141
0.000118524
0.000135843
0.000165911
0.000209273
0.000249466
0.000266644
0.000267891
0.000266164
0.000265375
0.000266201
0.000269026
0.0002728
0.000274392
0.000269634
0.00025616
0.000235304
0.0002105
0.000184243
0.000156263
0.000124373
9.02716e-05
6.53409e-05
6.50036e-05
0.000114607
0.000134172
1.29025e-05
2.23899e-06
1.79432e-05
2.2715e-05
2.44038e-05
2.73723e-05
3.24372e-05
4.00882e-05
5.08209e-05
6.44505e-05
7.93889e-05
9.26488e-05
0.000102255
0.000109865
0.000120261
0.000140813
0.000182029
0.000240162
0.000274987
0.000273282
0.000256553
0.000240551
0.000230023
0.000223993
0.000219508
0.000213638
0.000203997
0.000188758
0.000166107
0.000133515
9.35744e-05
6.50372e-05
6.65704e-05
0.000115532
0.000126575
1.25087e-05
2.35544e-06
3.81192e-05
4.98343e-05
3.36025e-05
2.50291e-05
2.12699e-05
2.00154e-05
2.05633e-05
2.28127e-05
2.70562e-05
3.38274e-05
4.40745e-05
5.8904e-05
7.63029e-05
8.76111e-05
9.07306e-05
9.6415e-05
0.000116549
0.000158852
0.000201021
0.000203752
0.000194214
0.000193929
0.000198982
0.000201323
0.000197194
0.00018578
0.00016681
0.000138863
0.000100208
6.41312e-05
5.86121e-05
0.000100594
0.000132032
1.27449e-05
2.37897e-06
1.96152e-05
2.2027e-05
3.10129e-05
3.2343e-05
2.93166e-05
2.62495e-05
2.38241e-05
2.2473e-05
2.18458e-05
2.1532e-05
2.15008e-05
2.2413e-05
2.56877e-05
3.34143e-05
4.78394e-05
6.55113e-05
7.78215e-05
8.84642e-05
0.000102961
0.000125421
0.000159124
0.000197831
0.000223708
0.000228096
0.000217001
0.000197765
0.000172205
0.000137438
9.55782e-05
6.42875e-05
6.28437e-05
0.000114043
0.000141334
1.30788e-05
1.20107e-06
1.2691e-05
2.61933e-05
5.14615e-05
6.07363e-05
5.5446e-05
4.43619e-05
3.53361e-05
3.02853e-05
2.8635e-05
2.91385e-05
3.00365e-05
2.96661e-05
2.81349e-05
2.7307e-05
2.94277e-05
3.89637e-05
6.50283e-05
0.000102792
0.000115984
0.000115779
0.000119104
0.000128092
0.000138405
0.000143794
0.000141648
0.000134239
0.000123321
0.00010598
8.08781e-05
6.36077e-05
7.16737e-05
0.000121465
0.000109145
1.25337e-05
8.65676e-06
5.07857e-05
4.50169e-05
1.74579e-05
1.66476e-05
2.86018e-05
5.71283e-05
8.21236e-05
8.28124e-05
7.3491e-05
6.63351e-05
6.27356e-05
6.07357e-05
5.8891e-05
5.68414e-05
5.53131e-05
5.74731e-05
6.89573e-05
9.4778e-05
0.000130337
0.00015224
0.000151326
0.000143437
0.000138452
0.000137919
0.00014008
0.00014091
0.000135048
0.000113864
6.94055e-05
3.93543e-05
4.41775e-05
9.5955e-05
0.000131071
1.29282e-05
8.48014e-06
5.22264e-05
1.60044e-05
2.12323e-05
4.39331e-05
5.78774e-05
7.32187e-05
8.6966e-05
9.34191e-05
9.34655e-05
8.97433e-05
8.4089e-05
7.77211e-05
7.16251e-05
6.67319e-05
6.41278e-05
6.55049e-05
7.29171e-05
8.75066e-05
0.000107948
0.000129241
0.000145711
0.000156461
0.000163583
0.000167785
0.000167333
0.000159474
0.000143458
0.000122401
0.000101384
8.51978e-05
9.06009e-05
0.000137305
0.000104754
1.23721e-05
8.22866e-06
3.40429e-05
1.27742e-05
2.02143e-05
4.09609e-05
5.55595e-05
6.69995e-05
7.11966e-05
7.09878e-05
7.05934e-05
7.07892e-05
7.05274e-05
6.89291e-05
6.60086e-05
6.2401e-05
5.89986e-05
5.68293e-05
5.68368e-05
5.95925e-05
6.53588e-05
7.4395e-05
8.69794e-05
0.000102557
0.000118783
0.000133176
0.00014577
0.000156319
0.000159053
0.000138236
8.28862e-05
4.52606e-05
4.5658e-05
9.08662e-05
9.96728e-05
1.29647e-05
7.73367e-06
2.23638e-05
1.16999e-05
2.1834e-05
4.1267e-05
6.49651e-05
0.000100987
0.000121863
0.000124125
0.00012213
0.000121882
0.000123899
0.000127195
0.000132015
0.00014008
0.000151874
0.000164815
0.00017484
0.000178114
0.000170246
0.00014872
0.000118367
9.13482e-05
7.57597e-05
7.26033e-05
8.0619e-05
9.40823e-05
9.99334e-05
9.70698e-05
7.13815e-05
4.41727e-05
5.45776e-05
0.000123463
0.000134776
1.37412e-05
6.5819e-06
9.07222e-06
1.08067e-05
2.55246e-05
4.15455e-05
6.04311e-05
8.98472e-05
0.000102321
0.000102915
0.000102636
0.000104533
0.000109786
0.000118178
0.000128441
0.000138444
0.000146634
0.000154046
0.000163857
0.000176614
0.000189977
0.000202958
0.000211846
0.000209263
0.000194736
0.000166002
0.000126307
9.25694e-05
7.57567e-05
7.56522e-05
9.30528e-05
0.000120215
0.00014196
0.000140579
5.71036e-05
1.10087e-05
5.66862e-06
3.67492e-06
7.77238e-06
2.21004e-05
4.01296e-05
5.75489e-05
7.66601e-05
8.39873e-05
8.03154e-05
7.23011e-05
6.24256e-05
5.35073e-05
4.64492e-05
4.04992e-05
3.49584e-05
3.01736e-05
2.6911e-05
2.5735e-05
2.78316e-05
3.68353e-05
5.77223e-05
8.01856e-05
9.3141e-05
9.73222e-05
9.89565e-05
9.92553e-05
9.72258e-05
8.38362e-05
7.34932e-05
3.48629e-05
2.27883e-05
3.92099e-05
8.62939e-05
0.00014763
1.42966e-05
4.18094e-06
2.38058e-06
7.12399e-06
1.5008e-05
2.24296e-05
4.16279e-05
5.78875e-05
6.18074e-05
5.9711e-05
4.86531e-05
3.49095e-05
2.29562e-05
1.45162e-05
9.0058e-06
5.53054e-06
3.91417e-06
5.28078e-06
1.40247e-05
9.32621e-06
5.7422e-06
7.44056e-06
1.696e-05
3.795e-05
4.84026e-05
4.47709e-05
4.23201e-05
4.09328e-05
3.49581e-05
3.04609e-05
3.59079e-05
5.87618e-05
0.000118374
0.000102931
3.84148e-05
9.99362e-06
4.85836e-06
1.39218e-05
1.97864e-06
1.85882e-06
4.66166e-06
5.27069e-06
4.71305e-06
1.98569e-06
4.18032e-06
3.67084e-06
1.30165e-06
1.85393e-06
4.34814e-06
1.46934e-06
2.28281e-06
4.95077e-06
1.38848e-05
3.13422e-05
5.64224e-05
7.05782e-05
8.31794e-05
9.41922e-05
0.000103041
0.000109295
0.000113516
0.000112642
0.000108451
0.000102825
9.89332e-05
8.84921e-05
6.1779e-05
3.78596e-05
2.44565e-05
2.20235e-05
5.54975e-06
7.90394e-06
3.0175e-05
2.47881e-05
4.30047e-05
7.25744e-05
8.79455e-05
0.000101435
0.000104942
0.000100294
9.06542e-05
8.0279e-05
7.20077e-05
6.45672e-05
5.57289e-05
4.71427e-05
3.44565e-05
2.00265e-05
1.35941e-05
1.18144e-05
1.17506e-05
1.27884e-05
1.43493e-05
1.67478e-05
1.95044e-05
2.28705e-05
2.57989e-05
2.91215e-05
3.16054e-05
3.32928e-05
3.08969e-05
2.28165e-05
1.33228e-05
7.05356e-06
2.22714e-05
5.19721e-06
4.07136e-06
3.70732e-05
7.65173e-05
6.33307e-05
6.56648e-05
7.79264e-05
9.81951e-05
0.000122716
0.000138722
0.000138749
0.00013233
0.000125633
0.00011819
0.00010963
0.000101867
9.91028e-05
0.00010201
0.000103962
9.62082e-05
8.2398e-05
7.01682e-05
6.08263e-05
5.34932e-05
4.74868e-05
4.25372e-05
3.84839e-05
3.59299e-05
3.52411e-05
3.72324e-05
4.18405e-05
4.65526e-05
4.79758e-05
8.87645e-05
2.03541e-05
5.52319e-06
5.35468e-07
1.52447e-05
2.68319e-05
3.4494e-05
4.2548e-05
5.22214e-05
6.36827e-05
7.65429e-05
9.01963e-05
0.000104296
0.000118583
0.000131465
0.00014045
0.000146044
0.000149357
0.000150981
0.000151776
0.000152598
0.000154732
0.000158766
0.000164735
0.000172592
0.000181763
0.000190991
0.000197885
0.000198979
0.000191548
0.000175101
0.000152971
0.000135066
0.000129391
0.000114192
5.66903e-05
2.13012e-05
3.24472e-06
8.085e-07
2.91728e-05
4.1989e-05
5.31782e-05
6.59961e-05
8.0354e-05
9.42998e-05
0.00010643
0.000115335
0.000120425
0.00012336
0.00012715
0.000133632
0.000142522
0.000151792
0.000160043
0.000168048
0.000176454
0.000184817
0.000191697
0.000195033
0.000192956
0.00018516
0.00017386
0.000162384
0.000152656
0.000144844
0.000139529
0.000137396
0.00013435
0.000123318
0.000104509
6.60901e-05
2.53632e-05
2.13087e-06
3.53545e-06
4.60404e-05
9.02716e-05
0.00012263
0.000152282
0.000185788
0.000227191
0.000281548
0.00035183
0.000425409
0.000469292
0.000468196
0.000465964
0.000462532
0.000457622
0.000451794
0.000445624
0.000439428
0.00043338
0.000427595
0.000422124
0.000416955
0.000412033
0.000407368
0.00036308
0.000293595
0.000232981
0.000187097
0.000151532
0.000120121
8.88317e-05
6.50488e-05
4.63733e-05
2.4498e-05
4.24581e-06
1.19658e-05
9.58526e-05
0.000177952
0.00022574
0.000264025
0.000301527
0.000342457
0.000393572
0.00046362
0.000524462
0.000514667
0.000503867
0.000493042
0.000483067
0.000474481
0.000467004
0.000459974
0.000452999
0.000446089
0.000439376
0.000432951
0.000426891
0.000421239
0.000376017
0.000283767
0.000224087
0.000185842
0.000153659
0.000122215
9.69109e-05
8.11371e-05
6.88316e-05
5.10583e-05
3.44042e-05
5.32909e-06
1.40928e-05
0.000132563
0.000200852
0.000223795
0.000246198
0.000277652
0.000319959
0.000367736
0.000416306
0.000468076
0.000465339
0.000461992
0.000460107
0.000458801
0.000457074
0.000454292
0.000450297
0.000445209
0.000439244
0.000432624
0.000351063
0.000276126
0.000221796
0.000186329
0.000164643
0.00015008
0.000136476
0.000120004
9.9569e-05
7.90093e-05
6.45847e-05
5.62436e-05
4.98034e-05
4.60555e-05
4.74694e-06
1.3381e-05
0.000147852
0.000281009
0.000350624
0.000420541
0.000489798
0.000516944
0.000517162
0.000516661
0.000515792
0.000514661
0.000513184
0.000511176
0.000508369
0.000504414
0.00049899
0.000491887
0.000483009
0.000472338
0.000455339
0.000371024
0.000284061
0.000206541
0.000146721
0.000109578
9.18318e-05
8.66446e-05
8.82096e-05
9.15444e-05
9.04863e-05
7.96219e-05
5.87205e-05
4.02152e-05
3.66108e-05
4.22052e-06
9.42105e-06
0.000100175
0.000208402
0.000260255
0.000302133
0.000348624
0.000417868
0.00047864
0.00049382
0.000500034
0.000517666
0.000539054
0.000555282
0.00056052
0.000552755
0.000534074
0.000508609
0.000480518
0.0004523
0.000425367
0.000400728
0.00037708
0.000350607
0.000315898
0.000266139
0.000201105
0.00013732
9.19603e-05
6.50184e-05
4.81493e-05
3.70365e-05
3.37371e-05
3.34752e-05
4.0384e-05
4.05295e-06
1.45618e-06
1.1445e-05
3.35984e-05
0.000103253
0.00020168
0.000122344
8.00422e-05
9.5566e-05
0.000188747
0.000340761
0.000362798
0.0003888
0.00041558
0.000427371
0.000435847
0.000440305
0.000439828
0.00043584
0.000429036
0.000419845
0.000408297
0.000393353
0.0003733
0.000346306
0.000311353
0.000268997
0.000221388
0.00017177
0.000123766
7.81235e-05
3.69243e-05
1.572e-05
1.52733e-05
3.03871e-05
3.47477e-06
3.72336e-06
1.65337e-05
3.08921e-05
7.68892e-05
0.000128191
0.00017251
0.000269545
0.000291562
0.000317464
0.000345004
0.00037239
0.000398466
0.000422491
0.000444022
0.000462833
0.000478863
0.00049217
0.00048502
0.000453671
0.000424984
0.000398673
0.000373319
0.000347532
0.000320251
0.00029086
0.000259318
0.000226157
0.000192029
0.000156926
0.000119061
7.38525e-05
3.35306e-05
2.14485e-05
3.20983e-05
4.26381e-06
2.7791e-06
0.00011234
0.000139031
0.000195747
0.0002809
0.000300967
0.00032065
0.000340016
0.000359095
0.000377967
0.000396672
0.000415141
0.000433153
0.000450359
0.000466324
0.00048063
0.00049293
0.000502973
0.000510609
0.000494908
0.00045041
0.000408873
0.000367451
0.000324378
0.000280245
0.000236395
0.000194042
0.00015381
0.000115566
7.95495e-05
4.63991e-05
2.23479e-05
1.69916e-05
2.59549e-05
4.69165e-06
2.47552e-06
4.68711e-05
5.43006e-05
8.15206e-05
0.000132905
0.000181875
0.000215776
0.000245642
0.000280534
0.000313264
0.000326579
0.000341787
0.000359307
0.000379422
0.000401548
0.00042439
0.000430481
0.000409964
0.000402291
0.000398113
0.000386318
0.000366298
0.000342747
0.000319212
0.00029595
0.00027105
0.00024228
0.000208277
0.000169865
0.00012843
8.37205e-05
4.58385e-05
3.11204e-05
3.15736e-05
5.35394e-06
2.87811e-07
3.01562e-06
2.75622e-06
1.58676e-05
3.69006e-05
5.08096e-05
5.41387e-05
5.34415e-05
5.28168e-05
5.19853e-05
5.19169e-05
5.36401e-05
5.9549e-05
7.45683e-05
0.000100928
0.00012251
0.00013493
0.000159475
0.000200406
0.00024903
0.000296548
0.000333222
0.000355681
0.000359154
0.000334988
0.00027951
0.000210999
0.000152449
0.000109547
7.72373e-05
5.23697e-05
3.78785e-05
3.97055e-05
3.32747e-05
5.97517e-06
2.75944e-06
3.42197e-05
3.64351e-05
6.76906e-05
9.7894e-05
0.000113086
0.000119075
0.000116801
0.000108426
9.60616e-05
8.12947e-05
6.50376e-05
4.8578e-05
3.28341e-05
1.78543e-05
3.75931e-06
4.32757e-06
1.2588e-05
4.82107e-05
8.31376e-05
0.000147583
0.00018847
0.000177513
0.00018792
0.000216625
0.00024438
0.00026428
0.00026251
0.000225963
0.000167315
0.000113751
8.20092e-05
7.41683e-05
3.82599e-05
5.80175e-06
8.74882e-06
3.46904e-05
4.72833e-05