/*--------------------------------*- C++ -*----------------------------------*\
| =========                 |                                                 |
| \\      /  F ield         | OpenFOAM: The Open Source CFD Toolbox           |
|  \\    /   O peration     | Version:  v1906                                 |
|   \\  /    A nd           | Web:      www.OpenFOAM.com                      |
|    \\/     M anipulation  |                                                 |
\*---------------------------------------------------------------------------*/
FoamFile
{
    version     2.0;
    format      ascii;
    class       volVectorField;
    location    "96";
    object      U;
}
// * * * * * * * * * * * * * * * * * * * * * * * * * * * * * * * * * * * * * //

dimensions      [0 1 -1 0 0 0 0];


internalField   nonuniform List<vector> 
78750
(
(-0.847346 -0.475549 -0.232625)
(-0.74289 -0.439962 -0.214212)
(-0.715423 -0.390125 -0.186322)
(-0.609989 -0.350705 -0.155694)
(-0.487727 -0.313144 -0.122376)
(-0.414536 -0.28413 -0.106173)
(-0.388014 -0.260939 -0.0963977)
(-0.321293 -0.241949 -0.087267)
(-0.277721 -0.225197 -0.0805811)
(-0.228847 -0.209861 -0.0743661)
(-0.188518 -0.1958 -0.0688146)
(-0.149524 -0.183082 -0.0640798)
(-0.115104 -0.171184 -0.0599165)
(-0.0836499 -0.160095 -0.0562413)
(-0.0546359 -0.149698 -0.0529738)
(-0.0282347 -0.139891 -0.0501087)
(-0.00421617 -0.130561 -0.0475955)
(0.0175181 -0.121564 -0.0453851)
(0.0372161 -0.112758 -0.0434364)
(0.0549836 -0.104028 -0.0417255)
(0.0707635 -0.0952701 -0.0402287)
(0.0844971 -0.0863834 -0.0389108)
(0.0961045 -0.0772839 -0.0377218)
(0.105481 -0.0679297 -0.0365869)
(0.112516 -0.0583617 -0.0354014)
(0.117085 -0.0487599 -0.0340711)
(0.118955 -0.0397626 -0.03241)
(0.117751 -0.0320794 -0.0303222)
(0.113401 -0.0267291 -0.0278851)
(0.106029 -0.0247359 -0.0255371)
(0.0955734 -0.0255341 -0.0240311)
(0.0818428 -0.0264386 -0.023276)
(0.0660498 -0.0278962 -0.0233592)
(0.0498796 -0.0349008 -0.0279182)
(0.0161301 0.0320571 -0.00608049)
(0.113877 -0.606385 -0.155883)
(-0.117584 -0.436118 -0.176)
(-0.011792 -0.440937 -0.177959)
(-0.0617276 -0.48449 -0.166618)
(-0.0671083 -0.457709 -0.149854)
(-0.0787325 -0.38482 -0.134775)
(-0.0800966 -0.317634 -0.123562)
(-0.080968 -0.273809 -0.117155)
(-0.0779694 -0.241311 -0.112657)
(-0.074174 -0.214803 -0.109219)
(-0.0689737 -0.192969 -0.106385)
(-0.0628639 -0.174398 -0.103797)
(-0.0557539 -0.157986 -0.101256)
(-0.0477671 -0.143098 -0.0987096)
(-0.0390455 -0.1293 -0.0961663)
(-0.0296692 -0.116237 -0.0936637)
(-0.0197525 -0.103622 -0.0912662)
(-0.00945845 -0.0911614 -0.089056)
(0.00100169 -0.0785172 -0.0871199)
(0.0114058 -0.0653264 -0.0855514)
(0.021531 -0.0512262 -0.0844557)
(0.031117 -0.0358911 -0.0839485)
(0.0398033 -0.0190547 -0.084121)
(0.0471229 -0.000513555 -0.0849803)
(0.0526241 0.0198665 -0.0863519)
(0.055775 0.0420825 -0.087774)
(0.0562251 0.0657445 -0.0882111)
(0.0537327 0.0907829 -0.0855239)
(0.0483112 0.119111 -0.0760849)
(0.0405169 0.149972 -0.0560454)
(0.0326677 0.172651 -0.0303814)
(0.0284719 0.183659 -0.0181649)
(0.0275865 0.204288 -0.0205723)
(0.0250636 0.313456 -0.028943)
(0.00768452 0.387481 -0.0207601)
(-0.0499241 0.212997 -0.105122)
(-0.0577394 0.0494287 -0.124742)
(-0.0917345 -0.010175 -0.0801374)
(-0.104018 -0.043851 -0.0617442)
(-0.123777 -0.0984938 -0.0568822)
(-0.130087 -0.138028 -0.0580073)
(-0.131798 -0.156989 -0.0575332)
(-0.129726 -0.163553 -0.0560048)
(-0.125346 -0.162419 -0.0541224)
(-0.119442 -0.157343 -0.0527983)
(-0.113235 -0.151735 -0.0522523)
(-0.107147 -0.146651 -0.0519991)
(-0.10116 -0.142 -0.0515904)
(-0.0952059 -0.137522 -0.0507703)
(-0.0891904 -0.132897 -0.0494085)
(-0.0830564 -0.127774 -0.0474404)
(-0.0767919 -0.121763 -0.0448298)
(-0.0704039 -0.114411 -0.0415656)
(-0.063906 -0.105216 -0.0376822)
(-0.057317 -0.0936389 -0.0332949)
(-0.0506655 -0.0791132 -0.0286479)
(-0.0439794 -0.0610237 -0.0241754)
(-0.0372396 -0.0386438 -0.0205652)
(-0.0303386 -0.011029 -0.018818)
(-0.0232768 0.0230338 -0.020293)
(-0.0163228 0.0650106 -0.0267549)
(-0.00974377 0.114984 -0.0404022)
(-0.00430869 0.162398 -0.0597687)
(-0.00177135 0.181624 -0.0717415)
(-0.00087994 0.176201 -0.0742696)
(-0.0012781 0.139372 -0.0715306)
(-0.000391373 0.0846272 -0.0722764)
(0.0014292 0.0873132 -0.0647039)
(0.00471788 0.180653 -0.0403994)
(0.0060297 0.375996 -0.0011182)
(0.00369576 0.118584 -0.0381556)
(0.019666 0.0610509 -0.0660524)
(0.0179322 0.00357873 -0.0773027)
(0.0182428 -0.0507089 -0.0781877)
(0.016476 -0.0960228 -0.0695531)
(0.0104756 -0.131719 -0.057199)
(0.00220935 -0.15512 -0.0489035)
(-0.00506098 -0.165706 -0.0459813)
(-0.0105546 -0.166233 -0.0459124)
(-0.0145514 -0.158148 -0.0477888)
(-0.0168835 -0.143696 -0.0517742)
(-0.0174875 -0.127838 -0.057311)
(-0.0167817 -0.114074 -0.0630968)
(-0.0151561 -0.102656 -0.0682243)
(-0.0128665 -0.0927872 -0.0723194)
(-0.0101332 -0.0838815 -0.0751993)
(-0.0071541 -0.0755863 -0.076731)
(-0.00409562 -0.0676174 -0.0768105)
(-0.00110035 -0.0597025 -0.0753514)
(0.00170583 -0.051567 -0.0722737)
(0.0042256 -0.0429161 -0.0675054)
(0.00643099 -0.0333993 -0.0610014)
(0.00840105 -0.022537 -0.0527791)
(0.0101749 -0.00961936 -0.0429547)
(0.0119252 0.00661943 -0.0317255)
(0.014135 0.0284075 -0.0194091)
(0.0173062 0.0594717 -0.00696236)
(0.0216049 0.104294 0.00271238)
(0.0258574 0.161163 0.00513204)
(0.027843 0.212402 0.000501127)
(0.0250484 0.233095 -0.00468325)
(0.0185822 0.214985 -0.0115496)
(0.0103396 0.204109 -0.0424442)
(0.00675867 0.275703 -0.0737477)
(0.00204147 0.4202 -0.0308133)
(-0.00111118 0.116538 -0.024085)
(-0.00560986 0.0744242 -0.0402185)
(-0.0138704 0.031165 -0.0273497)
(-0.0256128 0.000568257 -0.00753819)
(-0.0376292 -0.0138607 0.000149858)
(-0.0485671 -0.0222298 -0.00232026)
(-0.0580744 -0.0317826 -0.00982937)
(-0.0654613 -0.0437784 -0.0190085)
(-0.070402 -0.0557115 -0.0276585)
(-0.0729151 -0.0656208 -0.0348045)
(-0.0732063 -0.0725114 -0.0403991)
(-0.0716651 -0.0760491 -0.0449888)
(-0.068675 -0.0764961 -0.0492154)
(-0.0645727 -0.0744025 -0.0534031)
(-0.0596861 -0.0703648 -0.0574426)
(-0.0542785 -0.0647915 -0.0610577)
(-0.0484866 -0.0577506 -0.0640372)
(-0.0424247 -0.0490792 -0.0662588)
(-0.0362343 -0.0385189 -0.0676359)
(-0.0300838 -0.0257873 -0.068077)
(-0.0241845 -0.0106513 -0.0674592)
(-0.0187346 0.00696627 -0.0656104)
(-0.0139348 0.0268192 -0.0623331)
(-0.00986657 0.0482816 -0.0575335)
(-0.0065866 0.0708142 -0.0512648)
(-0.0040994 0.0944903 -0.0436732)
(-0.00210518 0.120423 -0.0348396)
(-9.81139e-06 0.150998 -0.0249008)
(0.00305089 0.188904 -0.0148044)
(0.00765052 0.230634 -0.00684586)
(0.0117002 0.2567 -0.00189575)
(0.0126602 0.253516 0.00232036)
(0.00779749 0.240767 -0.000670169)
(0.000888774 0.341357 -0.0334584)
(-0.000963284 0.481221 -0.0219105)
(0.000283337 0.16697 -0.0548931)
(-0.00297538 0.155511 -0.0825955)
(-0.00762895 0.13175 -0.0890569)
(-0.013278 0.104674 -0.0849522)
(-0.0182636 0.0727429 -0.0697864)
(-0.0211607 0.0347104 -0.0452567)
(-0.0219079 -0.00215483 -0.0224497)
(-0.0219326 -0.0271643 -0.00976591)
(-0.0218745 -0.0421942 -0.00287875)
(-0.0219074 -0.0509183 0.00173361)
(-0.0220887 -0.0546191 0.00477158)
(-0.0223615 -0.0542584 0.00632063)
(-0.0225748 -0.0507345 0.00654221)
(-0.0226125 -0.0450173 0.00544268)
(-0.0223802 -0.0385945 0.00315434)
(-0.0218092 -0.0324686 0.000271763)
(-0.0208828 -0.0264445 -0.00267919)
(-0.0196211 -0.0200606 -0.00536466)
(-0.0180213 -0.0129115 -0.007574)
(-0.0161088 -0.0046531 -0.00915908)
(-0.0138761 0.00506265 -0.0100098)
(-0.0113292 0.0165919 -0.0100291)
(-0.00855949 0.0302358 -0.00908382)
(-0.00568511 0.0461598 -0.00706004)
(-0.00285929 0.0643502 -0.00394775)
(-0.000287943 0.0847524 0.000109756)
(0.00186152 0.107548 0.00478857)
(0.00361179 0.133449 0.00949187)
(0.00527297 0.163781 0.0131322)
(0.00732739 0.199699 0.0138582)
(0.00982469 0.24015 0.0091323)
(0.0119837 0.284276 -0.00414)
(0.0112769 0.340916 -0.0285306)
(0.00613804 0.424603 -0.0517748)
(-0.000648839 0.488575 -0.035635)
(0.000221288 0.154196 -0.0719458)
(-0.000734183 0.159217 -0.099853)
(-0.000181657 0.14778 -0.100434)
(0.00254878 0.125062 -0.0813007)
(0.00679418 0.0880702 -0.0447553)
(0.00998795 0.0473643 -0.0121241)
(0.0107725 0.0158713 0.00289514)
(0.0102075 -0.00178851 0.00594735)
(0.00923384 -0.0116063 0.00478055)
(0.00807874 -0.0170269 0.00137199)
(0.00705689 -0.019353 -0.00344395)
(0.0064309 -0.0193602 -0.00882945)
(0.00638168 -0.0176008 -0.0141135)
(0.00700862 -0.0144687 -0.0188316)
(0.00829903 -0.0102258 -0.022717)
(0.01012 -0.00497804 -0.0256802)
(0.012275 0.00131152 -0.0277323)
(0.0146724 0.00884563 -0.0289446)
(0.0172219 0.0177587 -0.0293636)
(0.0198424 0.0279994 -0.0290017)
(0.0224863 0.0395556 -0.0278637)
(0.0250753 0.0524545 -0.0259229)
(0.0275216 0.0667453 -0.0231066)
(0.0297188 0.0825014 -0.0192788)
(0.0315138 0.0998007 -0.0142712)
(0.032692 0.118692 -0.00790515)
(0.0329786 0.139193 1.52923e-05)
(0.0320743 0.161306 0.00966056)
(0.0297111 0.184924 0.0210011)
(0.0258276 0.209568 0.0333775)
(0.0209222 0.23472 0.0451409)
(0.0156673 0.263786 0.0535228)
(0.0120303 0.318746 0.0492687)
(0.0124864 0.463403 0.0163531)
(0.00585924 0.555157 0.00349813)
(2.83548e-05 0.151022 -0.0429089)
(-0.001414 0.150628 -0.0290161)
(-0.00228429 0.111633 0.00807734)
(-0.00354833 0.0626083 0.0384054)
(-0.00519421 0.0332636 0.0437977)
(-0.00719403 0.0183779 0.037831)
(-0.00958584 0.0101495 0.027313)
(-0.012026 0.00532363 0.0152658)
(-0.0139418 0.0030396 0.0047197)
(-0.015084 0.00271648 -0.00377909)
(-0.0155352 0.00379204 -0.0107308)
(-0.0152863 0.00587417 -0.0162612)
(-0.0143861 0.00872797 -0.0204744)
(-0.0129094 0.0122336 -0.0235253)
(-0.0109395 0.0163406 -0.0255782)
(-0.00851249 0.0210492 -0.0267878)
(-0.00564232 0.0264124 -0.0272974)
(-0.00234633 0.0325183 -0.0272344)
(0.00137322 0.0394581 -0.0267181)
(0.00547193 0.0473725 -0.0258563)
(0.0099766 0.056545 -0.0247064)
(0.0149465 0.0672718 -0.0232975)
(0.0203415 0.0797286 -0.0216716)
(0.0261068 0.0941208 -0.019855)
(0.0321586 0.110693 -0.0178457)
(0.0383552 0.129706 -0.0156346)
(0.0444962 0.151413 -0.0132194)
(0.0502951 0.176016 -0.0106268)
(0.0552737 0.203536 -0.00795363)
(0.0584638 0.233322 -0.00540424)
(0.0579057 0.262459 -0.00306262)
(0.0527194 0.283874 0.000682064)
(0.0362015 0.294392 0.0120012)
(0.011749 0.424876 0.0201013)
(-0.000571532 0.569177 0.018735)
(-0.00436841 0.138951 0.0153791)
(-0.00886396 0.141928 0.0179098)
(-0.0131776 0.131215 0.0182866)
(-0.0173394 0.114747 0.0145286)
(-0.0198924 0.0939059 0.00848858)
(-0.0210448 0.0734661 0.00362033)
(-0.0213224 0.0584107 0.000564998)
(-0.0211394 0.0484141 -0.0013738)
(-0.0205346 0.0415005 -0.00282914)
(-0.0194836 0.0367249 -0.00409258)
(-0.0180575 0.0337617 -0.00521969)
(-0.016324 0.0323302 -0.00621932)
(-0.0143426 0.032196 -0.00706325)
(-0.0121667 0.033177 -0.00770095)
(-0.0098445 0.0351387 -0.00807356)
(-0.00741723 0.0379908 -0.00812192)
(-0.00491977 0.041676 -0.00779113)
(-0.00238127 0.0461711 -0.0070313)
(0.00017574 0.0514826 -0.00579722)
(0.00273753 0.0576431 -0.00404572)
(0.00527721 0.0647052 -0.00173791)
(0.00773293 0.0727332 0.00115769)
(0.0100273 0.0819893 0.00475774)
(0.0121516 0.093131 0.00938566)
(0.0140658 0.106817 0.0154061)
(0.0156585 0.123349 0.0229785)
(0.0168835 0.14321 0.0321209)
(0.0177679 0.167597 0.0427076)
(0.0184487 0.1993 0.0543565)
(0.0191563 0.244685 0.0660085)
(0.0201603 0.318984 0.0741015)
(0.0233608 0.457605 0.0652393)
(0.0230396 0.670812 0.0114935)
(0.01019 0.745878 -0.022539)
(3.01082e-05 0.721644 -0.0222664)
(-0.00492719 0.175389 0.0177269)
(-0.0107512 0.176797 0.0163035)
(-0.0168293 0.148061 0.0138304)
(-0.0219122 0.0977311 0.011466)
(-0.0226566 0.0600825 0.00833212)
(-0.0225556 0.0426081 0.00509905)
(-0.0222555 0.0331393 0.00227832)
(-0.0217027 0.0271337 -0.000563867)
(-0.0208788 0.0235015 -0.00345717)
(-0.0197054 0.021828 -0.00620406)
(-0.0181771 0.0217649 -0.00863932)
(-0.0163068 0.0230295 -0.0106536)
(-0.0141165 0.0254163 -0.0121953)
(-0.0116345 0.0287896 -0.0132598)
(-0.00889318 0.0330691 -0.013876)
(-0.00592859 0.0382146 -0.0140906)
(-0.00277589 0.0442117 -0.0139584)
(0.000538187 0.0510615 -0.0135358)
(0.00399636 0.0587719 -0.0128797)
(0.00749379 0.0673721 -0.0120439)
(0.0110401 0.0772352 -0.0110056)
(0.0146778 0.0888579 -0.0097085)
(0.0182661 0.102385 -0.0081494)
(0.0216609 0.117823 -0.00629415)
(0.0246769 0.135131 -0.00402889)
(0.0271036 0.154267 -0.00111533)
(0.0286794 0.175067 0.00286403)
(0.0290165 0.196669 0.00853041)
(0.0276139 0.216752 0.0165515)
(0.0243577 0.232637 0.0273594)
(0.0199951 0.245151 0.0413221)
(0.0146761 0.267904 0.0591717)
(0.0130609 0.379805 0.0663866)
(0.0130307 0.618137 0.0327106)
(0.00465227 0.64937 0.00848017)
(-0.00270863 0.209516 -0.0046979)
(-0.00588396 0.219989 -0.00861824)
(-0.0107835 0.197828 -0.01134)
(-0.0179835 0.140073 -0.0132869)
(-0.0225735 0.096785 -0.0159576)
(-0.0252086 0.0727378 -0.0180525)
(-0.0264316 0.0587153 -0.0193357)
(-0.0268285 0.0489059 -0.0203051)
(-0.0264945 0.041336 -0.0210946)
(-0.0255082 0.0357356 -0.0215722)
(-0.0239709 0.0318864 -0.0216753)
(-0.0219709 0.029606 -0.0213947)
(-0.0195922 0.0287479 -0.0207495)
(-0.0169145 0.0291921 -0.019768)
(-0.0140075 0.0308371 -0.0184748)
(-0.0109297 0.0335963 -0.0168839)
(-0.00772889 0.0374001 -0.0149989)
(-0.00444391 0.0421991 -0.0128169)
(-0.00110422 0.0479638 -0.0103369)
(0.00225921 0.0546744 -0.00757612)
(0.00561919 0.0623453 -0.00458774)
(0.00902171 0.0713502 -0.00137026)
(0.0126419 0.0824263 0.00219238)
(0.0166375 0.0963742 0.00620121)
(0.0211324 0.113934 0.0106261)
(0.0261733 0.135669 0.0151864)
(0.031703 0.162169 0.0193612)
(0.0374824 0.194519 0.0225132)
(0.042919 0.234862 0.0239878)
(0.0467897 0.287632 0.0231467)
(0.0471397 0.360642 0.0198676)
(0.039684 0.458028 0.0196934)
(0.0189542 0.591519 0.0354123)
(0.00748835 0.763546 0.0372347)
(0.00231096 0.769292 0.0217192)
(0.000969969 0.207849 -0.0196842)
(0.000773365 0.221421 -0.0243685)
(-0.000206597 0.204615 -0.0248743)
(-0.00139555 0.149905 -0.0217489)
(-0.00158671 0.096997 -0.0212897)
(-0.00067357 0.0611491 -0.0239622)
(0.00105352 0.0395777 -0.0273935)
(0.00296747 0.0266381 -0.030517)
(0.00515156 0.0179179 -0.0335153)
(0.00757779 0.0119307 -0.0365017)
(0.0100328 0.00838912 -0.0392876)
(0.0124823 0.00701681 -0.0417199)
(0.0149029 0.00754055 -0.0436874)
(0.0172698 0.00971047 -0.0451132)
(0.0195569 0.0133127 -0.045946)
(0.0217377 0.0181811 -0.0461502)
(0.0237845 0.0241955 -0.0456947)
(0.025629 0.0312626 -0.0445454)
(0.0271733 0.0393372 -0.0426495)
(0.0283258 0.0484644 -0.0398622)
(0.0289673 0.0585882 -0.0360091)
(0.0290163 0.0693391 -0.0310381)
(0.0284747 0.0804827 -0.0248296)
(0.0274063 0.092025 -0.0171018)
(0.025944 0.104125 -0.00746976)
(0.0242557 0.117261 0.00457318)
(0.0224333 0.132542 0.0195725)
(0.020462 0.152172 0.0373994)
(0.0181175 0.180743 0.0559452)
(0.0147818 0.229473 0.0700494)
(0.0102725 0.319506 0.0699039)
(0.00559406 0.461634 0.0497417)
(-0.00519952 0.625374 0.0311181)
(-0.0111189 0.743148 0.0296705)
(-0.00630818 0.721146 0.0183307)
(0.000160472 0.202105 -0.0163315)
(4.94116e-05 0.222177 -0.018909)
(0.000842452 0.203726 -0.0178729)
(0.00289238 0.14268 -0.0189995)
(0.00310361 0.0883147 -0.0271956)
(0.00202065 0.0547628 -0.0374992)
(0.000616666 0.0369708 -0.0457199)
(-0.000669455 0.0275845 -0.0518106)
(-0.00188889 0.0222864 -0.0569658)
(-0.00292389 0.0197387 -0.0615633)
(-0.00366056 0.0195163 -0.065367)
(-0.00410409 0.0212368 -0.0682637)
(-0.00427816 0.024582 -0.0702491)
(-0.00421519 0.0293118 -0.0714013)
(-0.00394633 0.0352625 -0.0718561)
(-0.00353321 0.042336 -0.0717864)
(-0.00306553 0.0505197 -0.0713106)
(-0.00264831 0.0602924 -0.0703961)
(-0.00237237 0.0722072 -0.068871)
(-0.00237714 0.0860997 -0.0666922)
(-0.00277983 0.101692 -0.063825)
(-0.00372498 0.118831 -0.0601519)
(-0.00540547 0.137451 -0.0554339)
(-0.00805285 0.157528 -0.0492792)
(-0.0118935 0.179165 -0.0410609)
(-0.0171415 0.20293 -0.0297125)
(-0.0242004 0.230541 -0.0134642)
(-0.0336598 0.265691 0.00948062)
(-0.0449543 0.313716 0.0375147)
(-0.05532 0.379993 0.0639154)
(-0.0595561 0.478081 0.0817326)
(-0.0518332 0.622599 0.0838051)
(-0.0330558 0.778445 0.0636853)
(-0.0192194 0.817795 0.0321107)
(-0.00468688 0.688906 0.0157183)
(0.000268457 0.193584 -0.0144601)
(0.00205707 0.197487 -0.0209031)
(0.00443249 0.164499 -0.0266186)
(0.00631808 0.123766 -0.0350438)
(0.00580443 0.0971424 -0.0425761)
(0.00442395 0.0809417 -0.0479528)
(0.00320308 0.0701145 -0.05163)
(0.00253027 0.061869 -0.054296)
(0.00257236 0.0551177 -0.0562393)
(0.00331524 0.04973 -0.0575252)
(0.00455451 0.0458379 -0.0582123)
(0.00613816 0.0435401 -0.058374)
(0.00797759 0.0429014 -0.0581232)
(0.00999682 0.0439387 -0.0575969)
(0.0120199 0.0465879 -0.0569524)
(0.0139801 0.0510809 -0.0561849)
(0.0158714 0.0578955 -0.0551973)
(0.01758 0.0671321 -0.053979)
(0.0190083 0.0787331 -0.0526268)
(0.020141 0.0926571 -0.0512248)
(0.0209743 0.108921 -0.0498053)
(0.0214735 0.127579 -0.0483525)
(0.0215654 0.148695 -0.0468004)
(0.0211199 0.172311 -0.0450197)
(0.0199385 0.198484 -0.0427834)
(0.0177943 0.227812 -0.039665)
(0.0143182 0.261998 -0.0347982)
(0.00895073 0.298807 -0.0270615)
(0.0027034 0.323181 -0.016679)
(-0.00186441 0.327501 -0.0034346)
(-0.00361543 0.31798 0.0180696)
(-0.00400887 0.32035 0.054979)
(0.000656466 0.382825 0.0952928)
(0.00926252 0.531033 0.121845)
(0.0101566 0.573153 0.0901108)
(0.00233824 0.177881 -0.0181935)
(0.00551495 0.185662 -0.0237805)
(0.00851648 0.169016 -0.0272816)
(0.0111328 0.144127 -0.0309652)
(0.0125177 0.120168 -0.0342193)
(0.0139261 0.0984848 -0.037167)
(0.0159273 0.0791184 -0.0399989)
(0.0186838 0.0626991 -0.0426802)
(0.0220034 0.0503419 -0.0450428)
(0.0254945 0.0420935 -0.0470167)
(0.0292465 0.0369824 -0.0487131)
(0.0332585 0.0345426 -0.0501897)
(0.0373344 0.0345858 -0.05142)
(0.0414009 0.0368657 -0.0524029)
(0.0454137 0.0411764 -0.0531479)
(0.0494626 0.0475802 -0.0536057)
(0.0535617 0.0562086 -0.0537488)
(0.0576784 0.0670672 -0.0536019)
(0.0618384 0.0801817 -0.0532061)
(0.0660675 0.0955898 -0.0526115)
(0.0703849 0.113345 -0.0518728)
(0.0748151 0.133539 -0.0510397)
(0.0793938 0.156316 -0.0501514)
(0.0841666 0.181862 -0.0492375)
(0.0892085 0.210409 -0.0483231)
(0.0946798 0.242495 -0.0473748)
(0.101122 0.279541 -0.0466462)
(0.108293 0.318807 -0.047635)
(0.115469 0.347296 -0.0469153)
(0.121132 0.372361 -0.0381051)
(0.112883 0.425826 -0.0279582)
(0.0898677 0.492565 -0.020687)
(0.0620233 0.529756 -0.00745909)
(0.035752 0.619416 0.0720559)
(0.0127893 0.694808 0.105239)
(0.000467372 0.153918 -0.00958107)
(0.00180314 0.162034 -0.0125554)
(0.00354017 0.151403 -0.014611)
(0.00558955 0.133417 -0.0176306)
(0.00770912 0.114065 -0.0217127)
(0.010278 0.0957151 -0.0266151)
(0.0133579 0.0790803 -0.0318718)
(0.016859 0.0647095 -0.036884)
(0.0207231 0.0531427 -0.0411381)
(0.0248784 0.0446533 -0.0444154)
(0.0292262 0.0391036 -0.0468255)
(0.0338257 0.0359462 -0.0486454)
(0.0387925 0.0347042 -0.0500564)
(0.0441226 0.035194 -0.0511174)
(0.0497796 0.0373717 -0.0518907)
(0.0558272 0.0412266 -0.052454)
(0.0623527 0.0468052 -0.0528765)
(0.0693797 0.0541924 -0.0532416)
(0.0769271 0.0635272 -0.053674)
(0.0849887 0.0749784 -0.054316)
(0.0935159 0.0887455 -0.055333)
(0.102385 0.105064 -0.0569159)
(0.111318 0.124133 -0.0592135)
(0.119761 0.145816 -0.0622377)
(0.126681 0.168998 -0.0656809)
(0.130638 0.190823 -0.0685723)
(0.131136 0.207832 -0.0686205)
(0.127648 0.227262 -0.0587182)
(0.117855 0.293035 -0.041505)
(0.100602 0.413944 -0.0421982)
(0.0808643 0.53936 -0.0557268)
(0.0637222 0.640124 -0.0610419)
(0.0443052 0.72528 -0.0351555)
(0.0244489 0.841237 0.0424885)
(0.00702774 0.895327 0.0765335)
(-0.00236125 0.161828 0.0127931)
(-0.00477701 0.171514 0.0127343)
(-0.0077559 0.160022 0.010311)
(-0.0108635 0.138472 0.00568745)
(-0.0126772 0.113627 0.000126433)
(-0.0132939 0.0898071 -0.00511912)
(-0.0129349 0.0690525 -0.00934936)
(-0.0118245 0.0521805 -0.0123897)
(-0.0101527 0.0391458 -0.0144034)
(-0.00804505 0.0294478 -0.0156258)
(-0.00558913 0.0224653 -0.0162375)
(-0.00287961 0.0176127 -0.0163631)
(0.000113232 0.0142578 -0.0161102)
(0.00342704 0.012164 -0.0155272)
(0.00705149 0.0114567 -0.0146134)
(0.01104 0.0122554 -0.0133876)
(0.0154651 0.0147181 -0.0119172)
(0.0203574 0.0191159 -0.0103252)
(0.0257804 0.0257921 -0.00876136)
(0.0318625 0.0352525 -0.00743066)
(0.0386981 0.0482953 -0.0065962)
(0.0462954 0.0664083 -0.00656272)
(0.0545198 0.0926063 -0.00786445)
(0.0628151 0.132224 -0.0119286)
(0.0696825 0.191969 -0.0217766)
(0.0726401 0.278263 -0.0420105)
(0.0672985 0.393445 -0.0775808)
(0.0489868 0.520739 -0.124241)
(0.0222933 0.624284 -0.159623)
(0.00136997 0.693113 -0.170969)
(-0.0100126 0.743239 -0.164407)
(-0.0155499 0.789114 -0.141122)
(-0.0170305 0.847829 -0.0951226)
(-0.0158455 0.915833 -0.0443353)
(-0.0109374 0.913836 -0.0214496)
(-0.00226769 0.189297 0.0395037)
(-0.00518397 0.208479 0.0481775)
(-0.00921004 0.198993 0.0491025)
(-0.0139019 0.177874 0.0463962)
(-0.0180718 0.151999 0.0404306)
(-0.0213703 0.126902 0.0319165)
(-0.0239059 0.104473 0.0218174)
(-0.0257845 0.0850807 0.0114056)
(-0.0271384 0.0689217 0.00206852)
(-0.0281014 0.0560537 -0.00518973)
(-0.0288015 0.0462393 -0.0100589)
(-0.0293379 0.0390233 -0.0127766)
(-0.029841 0.0336376 -0.01386)
(-0.0304232 0.0294726 -0.0136317)
(-0.0311474 0.0263917 -0.0121126)
(-0.0320471 0.0243911 -0.00927601)
(-0.0331531 0.0234538 -0.00513375)
(-0.034469 0.0236323 0.000294021)
(-0.0359782 0.025144 0.00699309)
(-0.037602 0.0285799 0.0149232)
(-0.0393528 0.0348817 0.0241532)
(-0.0413618 0.0459406 0.034947)
(-0.0436535 0.0664108 0.0470932)
(-0.0461583 0.107032 0.0585117)
(-0.0481179 0.186132 0.062406)
(-0.0478864 0.318715 0.0459089)
(-0.0453595 0.496145 -0.0038007)
(-0.0442946 0.668578 -0.0821186)
(-0.0473527 0.772181 -0.152758)
(-0.0503876 0.812775 -0.187262)
(-0.050514 0.838555 -0.193478)
(-0.0468973 0.871636 -0.178775)
(-0.0394064 0.909301 -0.148101)
(-0.02999 0.923118 -0.113266)
(-0.0134511 0.806629 -0.0731434)
(-0.00333856 0.18282 0.0586278)
(-0.00789505 0.202099 0.068794)
(-0.0134427 0.195307 0.0675022)
(-0.0195917 0.178205 0.05972)
(-0.0248993 0.155887 0.045204)
(-0.0289116 0.133994 0.0267219)
(-0.0319416 0.11494 0.00769703)
(-0.034214 0.0990944 -0.00942208)
(-0.0358763 0.0863342 -0.0231555)
(-0.0371372 0.0764041 -0.0330482)
(-0.0381898 0.06894 -0.0394737)
(-0.0391823 0.0635551 -0.0431519)
(-0.0402536 0.0598813 -0.0447883)
(-0.0415569 0.0576297 -0.0448198)
(-0.0432418 0.0567006 -0.0433791)
(-0.0454403 0.0570599 -0.0405548)
(-0.0482848 0.0586748 -0.0364888)
(-0.0517832 0.0616088 -0.0313154)
(-0.0560753 0.0661869 -0.0249756)
(-0.0613771 0.0730228 -0.0171819)
(-0.0677028 0.0827861 -0.00770063)
(-0.075053 0.0964751 0.00373883)
(-0.0832411 0.116138 0.0174622)
(-0.0917435 0.1465 0.0336851)
(-0.0990606 0.197682 0.0513428)
(-0.101913 0.284887 0.0651907)
(-0.0964589 0.417153 0.0640309)
(-0.0824394 0.575563 0.0383758)
(-0.0648649 0.711908 -0.00349796)
(-0.0484391 0.799825 -0.0414672)
(-0.0355398 0.851135 -0.0693288)
(-0.0275472 0.86979 -0.0845064)
(-0.0206298 0.870874 -0.0821536)
(-0.0135939 0.854549 -0.0636559)
(-0.00300613 0.684083 -0.0197441)
(-0.00481868 0.209835 0.0630266)
(-0.0109788 0.232502 0.0662896)
(-0.0182955 0.226237 0.0563399)
(-0.0262119 0.208002 0.0372147)
(-0.0320466 0.18613 0.0153832)
(-0.0363419 0.167085 -0.00364597)
(-0.0397764 0.151734 -0.0191063)
(-0.0425018 0.139346 -0.0315062)
(-0.0445701 0.129335 -0.0411446)
(-0.0460867 0.121359 -0.048145)
(-0.0472336 0.115198 -0.0526683)
(-0.0481915 0.110704 -0.0549674)
(-0.0491371 0.107767 -0.0553491)
(-0.0502264 0.106292 -0.0541055)
(-0.0515953 0.106197 -0.0514877)
(-0.0533656 0.107469 -0.0477026)
(-0.0556414 0.110157 -0.0429156)
(-0.0585096 0.114403 -0.0372366)
(-0.0620321 0.120455 -0.0307062)
(-0.0662568 0.128517 -0.0233606)
(-0.0711713 0.138852 -0.0152408)
(-0.0767125 0.151877 -0.00633692)
(-0.0826939 0.16835 0.00345986)
(-0.0887626 0.189744 0.0143812)
(-0.0941188 0.219076 0.0267077)
(-0.0969923 0.261996 0.0403125)
(-0.0945856 0.325915 0.0535848)
(-0.0843509 0.413914 0.0629244)
(-0.066704 0.516791 0.0659373)
(-0.0451766 0.621308 0.0653132)
(-0.0226986 0.729245 0.0638149)
(-0.00205373 0.842568 0.0590195)
(0.00703838 0.90659 0.0519439)
(0.00848085 0.89507 0.0544991)
(0.00733262 0.718816 0.0660537)
(-0.00411474 0.234403 0.0364518)
(-0.00993391 0.258038 0.0343572)
(-0.0165044 0.251318 0.0266792)
(-0.0234963 0.232679 0.0149499)
(-0.0287772 0.211448 0.00261435)
(-0.0326363 0.194173 -0.00819667)
(-0.035501 0.181042 -0.0178308)
(-0.0373877 0.170849 -0.0267646)
(-0.038314 0.162801 -0.0348873)
(-0.0384337 0.15649 -0.0417468)
(-0.0380137 0.151675 -0.0469659)
(-0.0372864 0.148193 -0.0503849)
(-0.0364426 0.145937 -0.0520372)
(-0.0356403 0.144852 -0.0520689)
(-0.0350106 0.14492 -0.0506682)
(-0.0346605 0.14616 -0.0480234)
(-0.0346725 0.148619 -0.0443011)
(-0.0351071 0.15238 -0.0396359)
(-0.0360139 0.157558 -0.0341365)
(-0.0374159 0.164287 -0.0279234)
(-0.03932 0.172736 -0.021106)
(-0.0416947 0.18312 -0.0137751)
(-0.044447 0.195732 -0.00600562)
(-0.0473799 0.21101 0.00214408)
(-0.0502207 0.229679 0.0106366)
(-0.0524334 0.253083 0.01945)
(-0.0529793 0.283644 0.0284862)
(-0.0504702 0.324609 0.0373992)
(-0.0436806 0.378768 0.0456868)
(-0.03241 0.447579 0.053601)
(-0.017801 0.533364 0.0637578)
(-0.000466738 0.646251 0.083214)
(0.0122888 0.798363 0.106378)
(0.0156786 0.867212 0.116644)
(0.0105567 0.770329 0.109517)
(-0.00434249 0.245325 0.0254962)
(-0.0113416 0.270243 0.0209585)
(-0.0188434 0.261856 0.0140187)
(-0.0258023 0.244298 0.00426544)
(-0.0302487 0.226976 -0.00651342)
(-0.0329402 0.213549 -0.0172801)
(-0.0343312 0.203489 -0.0279574)
(-0.0344885 0.195807 -0.0383472)
(-0.0335467 0.189857 -0.0479246)
(-0.0317585 0.18527 -0.0561271)
(-0.0294025 0.181817 -0.0625997)
(-0.0267044 0.179354 -0.067225)
(-0.0238563 0.177801 -0.0700666)
(-0.0210161 0.177122 -0.0712796)
(-0.0183107 0.17732 -0.0710498)
(-0.0158405 0.178421 -0.0695619)
(-0.0136833 0.180474 -0.0669836)
(-0.011895 0.183543 -0.0634577)
(-0.0105208 0.187712 -0.0590943)
(-0.00959219 0.193082 -0.053985)
(-0.00912659 0.199778 -0.0482042)
(-0.00912252 0.207941 -0.0418076)
(-0.00955099 0.217731 -0.0348386)
(-0.0103471 0.229349 -0.0273329)
(-0.0113699 0.243082 -0.0193133)
(-0.012416 0.259406 -0.0107848)
(-0.0132549 0.279055 -0.00175061)
(-0.0134628 0.30334 0.00777072)
(-0.012396 0.334466 0.0176717)
(-0.00928367 0.37738 0.0278993)
(-0.0029965 0.446088 0.0384153)
(0.00688338 0.563731 0.0533354)
(0.0141323 0.751308 0.0916629)
(0.0162724 0.878271 0.119169)
(0.00982093 0.828223 0.113707)
(-0.00279908 0.280202 0.0251421)
(-0.00757848 0.313531 0.0268473)
(-0.0131714 0.30308 0.0241889)
(-0.0183656 0.279595 0.0156593)
(-0.021635 0.256668 0.0019715)
(-0.0231133 0.239909 -0.0137744)
(-0.02309 0.228321 -0.0294518)
(-0.0217252 0.22015 -0.0439151)
(-0.0192548 0.214204 -0.0564916)
(-0.0159673 0.209778 -0.0668511)
(-0.0121265 0.20647 -0.0749327)
(-0.00796017 0.204063 -0.0808572)
(-0.00365438 0.202446 -0.0848347)
(0.000642347 0.201574 -0.0871002)
(0.00481163 0.201441 -0.0878815)
(0.00875802 0.202067 -0.0873871)
(0.0124029 0.203491 -0.0858039)
(0.0156815 0.205769 -0.0832968)
(0.0185405 0.208965 -0.0800091)
(0.0209383 0.213153 -0.0760617)
(0.0228437 0.218414 -0.0715521)
(0.0242389 0.224835 -0.0665581)
(0.0251215 0.232507 -0.0611412)
(0.0255035 0.241522 -0.0553446)
(0.0254223 0.252002 -0.0491781)
(0.0249517 0.26414 -0.0425923)
(0.0242122 0.278271 -0.0354553)
(0.0232878 0.294891 -0.0275769)
(0.0223309 0.314613 -0.0187844)
(0.0217365 0.338562 -0.00889313)
(0.0225319 0.373214 0.00398171)
(0.0265857 0.465376 0.0174233)
(0.0267244 0.673816 0.055172)
(0.0214753 0.88455 0.101009)
(0.0101016 0.878822 0.10599)
(-0.00460824 0.260327 0.047795)
(-0.0101432 0.296489 0.0504862)
(-0.0157992 0.291836 0.0426449)
(-0.0203873 0.277086 0.0269033)
(-0.0225862 0.260696 0.00637732)
(-0.0226458 0.248109 -0.0131712)
(-0.0212287 0.239477 -0.0300707)
(-0.0185538 0.233455 -0.0446256)
(-0.0147659 0.229045 -0.0570537)
(-0.010099 0.225677 -0.0673386)
(-0.00481818 0.22305 -0.0754839)
(0.000839929 0.221023 -0.0815967)
(0.00668121 0.219545 -0.085854)
(0.0125492 0.218611 -0.0884592)
(0.0183193 0.218246 -0.0896177)
(0.023892 0.218492 -0.0895263)
(0.0291878 0.21941 -0.0883707)
(0.0341415 0.221075 -0.0863258)
(0.0386988 0.223579 -0.0835564)
(0.0428127 0.227021 -0.0802179)
(0.0464447 0.231513 -0.0764566)
(0.0495674 0.237171 -0.0724064)
(0.0521711 0.244116 -0.0681835)
(0.0542592 0.252476 -0.0638788)
(0.0558428 0.262395 -0.0595458)
(0.0569493 0.274084 -0.0551734)
(0.0576135 0.287864 -0.0506615)
(0.0578649 0.304203 -0.0458197)
(0.0576186 0.32354 -0.0404614)
(0.0569931 0.345343 -0.0347566)
(0.0559025 0.367428 -0.0228692)
(0.0540816 0.467785 -0.00941009)
(0.0405109 0.697051 0.0255316)
(0.0248904 0.946426 0.0798596)
(0.0096289 0.951221 0.091262)
(-0.00460982 0.297721 0.0549667)
(-0.00977474 0.333071 0.0527593)
(-0.0160812 0.321194 0.0393256)
(-0.0215004 0.291741 0.017023)
(-0.0234469 0.265793 -0.00345047)
(-0.0233451 0.249569 -0.0185629)
(-0.0219433 0.239365 -0.0306496)
(-0.0193062 0.232474 -0.041353)
(-0.0154841 0.227617 -0.0510998)
(-0.0106708 0.224128 -0.0597291)
(-0.00512141 0.221604 -0.0669774)
(0.000920561 0.219789 -0.0726917)
(0.00724624 0.218527 -0.0768546)
(0.0136836 0.217734 -0.0795414)
(0.0200961 0.217371 -0.0808781)
(0.0263792 0.217442 -0.0810133)
(0.0324543 0.217982 -0.0801018)
(0.0382621 0.219053 -0.0782979)
(0.043758 0.220743 -0.0757529)
(0.0489072 0.223162 -0.0726147)
(0.0536837 0.226439 -0.0690289)
(0.0580728 0.230723 -0.0651362)
(0.0620733 0.236176 -0.0610644)
(0.0657025 0.242979 -0.0569221)
(0.0689954 0.251331 -0.0528015)
(0.0719862 0.261473 -0.0487807)
(0.0747308 0.273801 -0.0448886)
(0.0772602 0.289005 -0.0411067)
(0.0792974 0.307714 -0.0375716)
(0.0809873 0.329035 -0.0343679)
(0.0788983 0.365049 -0.0243129)
(0.0684451 0.538311 -0.0181304)
(0.0394486 0.824622 0.000277562)
(0.0187827 1.05334 0.0386731)
(0.00687896 1.04863 0.0441844)
(-0.00259894 0.272609 0.0611274)
(-0.00517408 0.309391 0.063029)
(-0.00898369 0.302381 0.0523567)
(-0.0123331 0.279109 0.0302173)
(-0.0140151 0.255761 0.00494277)
(-0.0141862 0.240775 -0.0155397)
(-0.0131595 0.23178 -0.0316173)
(-0.0110091 0.226079 -0.0449823)
(-0.00779924 0.222267 -0.0563697)
(-0.00371873 0.21962 -0.0658476)