/*--------------------------------*- C++ -*----------------------------------*\
| =========                 |                                                 |
| \\      /  F ield         | OpenFOAM: The Open Source CFD Toolbox           |
|  \\    /   O peration     | Version:  v1906                                 |
|   \\  /    A nd           | Web:      www.OpenFOAM.com                      |
|    \\/     M anipulation  |                                                 |
\*---------------------------------------------------------------------------*/
FoamFile
{
    version     2.0;
    format      ascii;
    class       volScalarField;
    location    "0.26/oil";
    object      alphat;
}
// * * * * * * * * * * * * * * * * * * * * * * * * * * * * * * * * * * * * * //

dimensions      [1 -1 -1 0 0 0 0];


internalField   nonuniform List<scalar> 
168664
(
0.00427863
0.000457424
0.00044181
0.000142757
0.000106654
6.09774e-05
3.93029e-05
3.13789e-05
2.15105e-05
2.03284e-05
1.73478e-05
1.82796e-05
1.66417e-05
1.57251e-05
1.37716e-05
1.30034e-05
1.16777e-05
1.03591e-05
9.08904e-06
7.97837e-06
7.36327e-06
7.36008e-06
7.18753e-06
6.57794e-06
5.53016e-06
4.361e-06
3.05187e-06
2.30319e-06
1.44883e-06
2.48224e-07
0.000456227
0.000518655
0.000126286
0.000106642
4.76693e-05
3.8219e-05
2.43843e-05
2.04895e-05
1.50951e-05
1.42344e-05
1.31283e-05
1.38381e-05
1.3178e-05
1.28118e-05
1.16288e-05
1.12362e-05
1.02662e-05
9.32932e-06
8.28413e-06
7.50663e-06
7.12716e-06
7.06506e-06
6.80205e-06
6.24626e-06
5.6084e-06
4.84904e-06
4.04724e-06
3.21994e-06
3.24059e-06
1.78212e-06
0.000439398
0.000126015
9.86805e-05
7.20151e-05
4.79565e-05
3.80122e-05
2.63122e-05
2.15424e-05
1.6567e-05
1.49244e-05
1.36468e-05
1.36385e-05
1.28249e-05
1.25457e-05
1.15078e-05
1.10665e-05
1.01338e-05
9.25964e-06
8.27191e-06
7.5871e-06
7.40119e-06
7.37493e-06
7.22258e-06
6.79225e-06
6.19968e-06
5.56509e-06
4.94573e-06
4.55696e-06
5.45021e-06
4.2416e-06
0.000145085
0.000108406
7.37202e-05
5.72941e-05
3.8211e-05
3.12126e-05
2.35769e-05
1.99477e-05
1.6686e-05
1.49135e-05
1.36437e-05
1.31024e-05
1.2583e-05
1.23168e-05
1.13194e-05
1.06844e-05
9.67481e-06
8.82734e-06
7.96026e-06
7.40318e-06
7.17153e-06
7.15322e-06
7.19426e-06
6.90899e-06
6.29615e-06
5.61191e-06
5.14982e-06
5.45739e-06
6.64888e-06
5.74041e-06
0.000108409
5.06828e-05
4.97337e-05
3.87373e-05
3.25801e-05
2.81998e-05
2.33204e-05
2.06423e-05
1.77665e-05
1.6156e-05
1.45325e-05
1.35896e-05
1.29769e-05
1.25992e-05
1.15239e-05
1.06842e-05
9.67393e-06
8.90253e-06
8.34489e-06
8.15421e-06
7.88853e-06
7.82829e-06
7.81709e-06
7.62483e-06
7.16044e-06
6.5828e-06
6.3169e-06
6.89248e-06
8.25132e-06
7.86948e-06
6.91234e-05
4.53127e-05
4.34896e-05
3.42909e-05
2.98878e-05
2.47332e-05
2.16369e-05
1.88186e-05
1.69665e-05
1.55002e-05
1.43322e-05
1.32093e-05
1.24766e-05
1.2195e-05
1.11403e-05
1.00388e-05
8.98339e-06
8.17654e-06
7.96708e-06
8.07775e-06
7.77551e-06
7.57037e-06
7.43722e-06
7.31926e-06
7.00222e-06
6.80764e-06
6.81404e-06
7.6497e-06
9.04589e-06
8.99348e-06
4.77235e-05
3.22782e-05
3.18106e-05
2.68955e-05
2.50084e-05
2.20343e-05
1.99388e-05
1.80408e-05
1.64268e-05
1.53847e-05
1.44251e-05
1.34435e-05
1.28637e-05
1.28483e-05
1.16922e-05
1.0189e-05
8.89183e-06
7.98702e-06
7.82326e-06
7.93906e-06
7.65133e-06
7.49112e-06
7.47564e-06
7.4949e-06
7.48792e-06
7.64317e-06
8.00666e-06
8.99302e-06
1.04109e-05
1.08249e-05
4.31861e-05
3.11087e-05
3.01468e-05
2.55148e-05
2.37836e-05
2.03551e-05
1.86595e-05
1.63963e-05
1.5084e-05
1.39678e-05
1.34513e-05
1.29087e-05
1.29542e-05
1.32458e-05
1.21399e-05
1.03049e-05
8.87999e-06
7.77172e-06
7.37558e-06
7.13784e-06
6.77115e-06
6.6665e-06
6.80726e-06
7.09759e-06
7.51477e-06
8.11277e-06
8.79738e-06
9.86678e-06
1.12169e-05
1.18816e-05
3.38566e-05
2.58421e-05
2.48999e-05
2.21227e-05
2.06956e-05
1.8323e-05
1.67383e-05
1.4943e-05
1.36725e-05
1.27924e-05
1.26685e-05
1.29623e-05
1.36109e-05
1.39598e-05
1.28989e-05
1.10704e-05
9.37554e-06
7.89021e-06
7.12526e-06
6.59513e-06
6.23279e-06
6.32084e-06
6.73446e-06
7.35042e-06
8.16093e-06
9.01587e-06
9.97387e-06
1.10262e-05
1.21987e-05
1.3113e-05
3.29258e-05
2.55428e-05
2.46092e-05
2.19461e-05
2.02914e-05
1.75561e-05
1.57841e-05
1.36566e-05
1.2263e-05
1.13468e-05
1.16224e-05
1.2459e-05
1.32615e-05
1.31231e-05
1.23259e-05
1.10011e-05
9.23629e-06
7.61881e-06
6.55762e-06
5.82977e-06
5.49312e-06
5.77825e-06
6.44796e-06
7.26967e-06
8.19984e-06
9.29447e-06
1.05217e-05
1.15288e-05
1.26125e-05
1.36595e-05
2.88685e-05
2.30224e-05
2.2005e-05
2.00594e-05
1.84465e-05
1.63475e-05
1.47017e-05
1.2759e-05
1.14035e-05
1.08247e-05
1.14317e-05
1.23513e-05
1.25305e-05
1.14941e-05
1.06567e-05
9.82497e-06
8.47617e-06
7.22523e-06
6.22189e-06
5.51593e-06
5.42365e-06
6.01556e-06
6.94908e-06
7.93284e-06
8.92471e-06
1.01541e-05
1.14656e-05
1.22855e-05
1.32574e-05
1.4394e-05
2.87785e-05
2.31183e-05
2.19697e-05
2.01076e-05
1.86868e-05
1.68613e-05
1.52591e-05
1.29891e-05
1.12233e-05
1.03034e-05
1.05326e-05
1.08817e-05
1.00982e-05
8.52881e-06
7.76638e-06
7.17624e-06
6.16741e-06
5.76172e-06
5.38392e-06
4.93604e-06
5.23404e-06
6.23191e-06
7.46309e-06
8.74053e-06
9.88135e-06
1.10729e-05
1.21933e-05
1.27952e-05
1.3682e-05
1.48985e-05
2.62486e-05
2.17613e-05
2.08621e-05
1.96854e-05
1.85219e-05
1.71065e-05
1.56472e-05
1.34242e-05
1.15002e-05
9.86549e-06
9.3106e-06
8.75371e-06
7.53379e-06
6.57365e-06
6.05404e-06
5.62802e-06
4.84964e-06
4.28922e-06
4.50469e-06
4.3228e-06
4.9566e-06
6.69365e-06
8.25175e-06
9.57615e-06
1.07408e-05
1.18679e-05
1.28148e-05
1.34143e-05
1.43922e-05
1.59513e-05
2.49148e-05
2.08139e-05
2.00862e-05
1.92062e-05
1.81304e-05
1.67589e-05
1.53667e-05
1.35889e-05
1.19805e-05
9.50332e-06
7.42119e-06
5.48533e-06
4.35137e-06
3.91758e-06
3.85251e-06
3.85363e-06
3.10788e-06
2.36131e-06
2.45114e-06
3.19934e-06
4.70639e-06
7.01779e-06
8.86366e-06
1.02145e-05
1.12674e-05
1.23433e-05
1.33279e-05
1.40332e-05
1.51214e-05
1.70796e-05
2.33029e-05
1.96379e-05
1.88916e-05
1.81038e-05
1.71374e-05
1.59407e-05
1.46493e-05
1.31529e-05
1.17688e-05
9.23634e-06
6.53168e-06
4.21455e-06
2.87845e-06
2.9409e-06
3.50233e-06
3.24898e-06
2.46579e-06
1.81537e-06
2.19988e-06
3.39749e-06
5.2156e-06
7.55398e-06
9.52058e-06
1.09886e-05
1.20485e-05
1.30862e-05
1.40757e-05
1.48136e-05
1.58495e-05
1.81054e-05
2.25972e-05
1.90787e-05
1.82616e-05
1.74916e-05
1.66011e-05
1.5477e-05
1.41822e-05
1.24965e-05
1.07181e-05
8.30818e-06
5.97628e-06
3.96313e-06
2.63811e-06
2.67091e-06
3.79114e-06
3.31637e-06
2.36633e-06
2.15626e-06
2.93652e-06
4.25086e-06
5.83161e-06
7.9242e-06
9.60111e-06
1.10193e-05
1.20637e-05
1.31406e-05
1.41407e-05
1.49172e-05
1.58074e-05
1.7926e-05
2.07762e-05
1.78055e-05
1.69634e-05
1.62634e-05
1.54244e-05
1.43467e-05
1.31969e-05
1.17346e-05
9.8063e-06
7.24128e-06
4.74192e-06
3.22493e-06
2.66528e-06
3.14809e-06
4.18392e-06
3.8644e-06
3.17749e-06
3.2784e-06
4.40259e-06
5.6951e-06
6.84289e-06
8.49568e-06
9.84106e-06
1.10337e-05
1.20962e-05
1.32581e-05
1.43067e-05
1.5003e-05
1.57528e-05
1.77309e-05
1.94429e-05
1.69162e-05
1.60556e-05
1.5341e-05
1.44675e-05
1.32977e-05
1.21161e-05
1.06494e-05
8.96935e-06
6.64954e-06
4.81148e-06
4.17531e-06
3.56377e-06
3.86403e-06
4.71232e-06
4.4147e-06
4.27851e-06
4.84333e-06
6.1092e-06
7.01315e-06
7.18976e-06
8.48343e-06
9.55567e-06
1.08466e-05
1.20293e-05
1.32206e-05
1.43221e-05
1.51901e-05
1.61076e-05
1.81583e-05
1.82025e-05
1.61328e-05
1.522e-05
1.44038e-05
1.34328e-05
1.22201e-05
1.10099e-05
9.55468e-06
8.10453e-06
6.73083e-06
5.86042e-06
5.71367e-06
5.3794e-06
5.34503e-06
5.87228e-06
5.44217e-06
5.56205e-06
6.33506e-06
7.03004e-06
7.16653e-06
7.0296e-06
7.55507e-06
8.4009e-06
9.72724e-06
1.08449e-05
1.18567e-05
1.29517e-05
1.42353e-05
1.55705e-05
1.77692e-05
1.70616e-05
1.5124e-05
1.41001e-05
1.30511e-05
1.19306e-05
1.06833e-05
9.62954e-06
8.45479e-06
7.36151e-06
6.46594e-06
6.23679e-06
6.42942e-06
6.77931e-06
7.29658e-06
7.99292e-06
7.77611e-06
7.93525e-06
8.21003e-06
7.75398e-06
7.12991e-06
6.56742e-06
6.75837e-06
7.38086e-06
8.51581e-06
9.5285e-06
1.05385e-05
1.16599e-05
1.30373e-05
1.44104e-05
1.63938e-05
1.56436e-05
1.39586e-05
1.30758e-05
1.19237e-05
1.07822e-05
9.73224e-06
8.83379e-06
7.85423e-06
6.93715e-06
6.37398e-06
6.32626e-06
6.49367e-06
6.97494e-06
8.02813e-06
9.36928e-06
9.87196e-06
1.00456e-05
9.34964e-06
8.2715e-06
7.24093e-06
6.39648e-06
6.39593e-06
6.92003e-06
7.94655e-06
8.81565e-06
9.82436e-06
1.08513e-05
1.20914e-05
1.32875e-05
1.46099e-05
1.45531e-05
1.32712e-05
1.25092e-05
1.13172e-05
1.02314e-05
9.34229e-06
8.60718e-06
7.86358e-06
7.18464e-06
6.82989e-06
6.50771e-06
6.18115e-06
6.51206e-06
7.70082e-06
9.25585e-06
1.03999e-05
1.05199e-05
9.16655e-06
7.89889e-06
7.25152e-06
6.74364e-06
6.8026e-06
7.11283e-06
7.80258e-06
8.37221e-06
9.17705e-06
9.98866e-06
1.11759e-05
1.23926e-05
1.33451e-05
1.31135e-05
1.22126e-05
1.12551e-05
1.0112e-05
9.3461e-06
8.67983e-06
8.18964e-06
7.75787e-06
7.40305e-06
7.30391e-06
6.87827e-06
6.19737e-06
6.15476e-06
7.18759e-06
8.52707e-06
9.6461e-06
9.65828e-06
8.48514e-06
7.64643e-06
7.57058e-06
7.34391e-06
7.24475e-06
7.21825e-06
7.53057e-06
7.75952e-06
8.31224e-06
8.93351e-06
1.00817e-05
1.13053e-05
1.1843e-05
1.1814e-05
1.11346e-05
9.95411e-06
9.01476e-06
8.55658e-06
8.20411e-06
8.04641e-06
7.95673e-06
7.83445e-06
7.74874e-06
7.16429e-06
6.47171e-06
6.18734e-06
6.79483e-06
7.77043e-06
8.57834e-06
8.67796e-06
8.04805e-06
7.60189e-06
7.80218e-06
7.81368e-06
7.79087e-06
7.61967e-06
7.65389e-06
7.58901e-06
7.77776e-06
8.0839e-06
9.15738e-06
1.04018e-05
1.07085e-05
9.72886e-06
9.55318e-06
8.38373e-06
7.7397e-06
7.521e-06
7.39198e-06
7.52037e-06
7.72202e-06
7.89281e-06
7.80749e-06
7.11155e-06
6.56347e-06
6.61382e-06
6.97492e-06
7.49728e-06
7.8463e-06
8.20136e-06
8.05077e-06
7.57674e-06
7.44579e-06
7.62288e-06
7.78468e-06
7.61902e-06
7.55719e-06
7.27724e-06
7.13092e-06
7.03373e-06
7.99922e-06
9.2545e-06
9.1579e-06
8.25657e-06
8.35071e-06
7.14114e-06
6.73198e-06
6.9014e-06
7.12559e-06
7.38175e-06
7.74969e-06
8.06441e-06
8.13311e-06
7.48697e-06
7.04525e-06
7.30838e-06
7.61747e-06
7.70329e-06
7.64233e-06
8.12638e-06
8.30009e-06
7.74415e-06
7.29798e-06
7.30563e-06
7.60385e-06
7.60979e-06
7.57108e-06
7.18826e-06
6.66292e-06
6.31393e-06
7.10112e-06
8.39446e-06
8.05256e-06
6.17314e-06
6.75771e-06
5.43262e-06
5.24046e-06
5.77673e-06
6.16347e-06
6.58596e-06
7.07917e-06
7.48553e-06
7.77186e-06
7.36148e-06
7.27509e-06
7.65763e-06
7.8642e-06
7.61046e-06
7.27507e-06
7.75205e-06
7.98065e-06
7.68221e-06
7.13311e-06
6.76448e-06
6.72885e-06
6.66919e-06
6.63166e-06
6.25261e-06
5.7634e-06
5.29222e-06
5.8097e-06
6.97816e-06
6.16793e-06
4.53443e-06
5.55539e-06
4.35134e-06
4.76138e-06
5.31173e-06
5.83273e-06
6.42262e-06
7.00587e-06
7.49519e-06
7.8363e-06
7.63655e-06
7.80528e-06
8.17226e-06
8.22984e-06
7.91932e-06
7.51079e-06
7.72158e-06
7.93765e-06
7.91099e-06
7.56977e-06
6.95629e-06
6.62264e-06
6.34468e-06
6.29737e-06
6.04575e-06
5.69706e-06
5.08955e-06
4.75989e-06
5.70806e-06
4.62469e-06
2.10781e-06
3.59875e-06
3.3231e-06
4.05103e-06
4.67029e-06
5.42039e-06
6.12692e-06
6.88751e-06
7.55888e-06
8.13804e-06
8.24558e-06
8.39493e-06
8.57369e-06
8.65875e-06
8.64098e-06
8.2702e-06
8.29836e-06
8.40569e-06
8.3711e-06
7.90489e-06
7.11536e-06
6.58795e-06
6.1651e-06
5.95815e-06
5.53027e-06
4.90754e-06
4.11373e-06
3.20346e-06
3.40759e-06
2.07946e-06
9.70286e-07
2.10497e-06
3.09338e-06
3.84145e-06
4.84614e-06
5.74276e-06
6.63105e-06
7.57211e-06
8.49487e-06
9.14009e-06
9.40899e-06
9.54328e-06
9.55364e-06
9.79409e-06
9.70414e-06
9.23833e-06
9.34622e-06
9.63992e-06
9.61984e-06
8.84066e-06
7.76899e-06
7.06866e-06
6.42915e-06
6.02039e-06
5.19258e-06
4.17426e-06
2.8271e-06
1.8826e-06
1.16493e-06
3.18527e-07
0.000454997
0.000529635
0.000128094
0.000108715
4.76885e-05
3.85752e-05
2.44e-05
2.07846e-05
1.46882e-05
1.38251e-05
1.17125e-05
1.26662e-05
1.19395e-05
1.22774e-05
1.11864e-05
1.09524e-05
9.99128e-06
8.85751e-06
8.20429e-06
7.25229e-06
6.71682e-06
6.38326e-06
6.27398e-06
5.92841e-06
5.48014e-06
4.68965e-06
3.85397e-06
2.99448e-06
2.37818e-06
1.34388e-06
0.000526297
0.000122358
8.73633e-05
4.63051e-05
2.23635e-05
1.79983e-05
1.12344e-05
8.59294e-06
6.52596e-06
5.6546e-06
5.171e-06
4.09394e-06
3.00145e-06
3.32853e-06
3.44928e-06
3.41642e-06
3.33689e-06
3.24945e-06
2.92472e-06
2.44037e-06
2.55009e-06
3.03555e-06
3.62138e-06
3.95639e-06
3.93223e-06
3.50587e-06
3.11865e-06
2.6906e-06
3.92265e-06
3.30472e-06
0.000125822
8.82122e-05
4.42392e-05
4.07942e-05
2.05842e-05
1.86792e-05
1.20434e-05
9.43579e-06
7.13947e-06
6.52722e-06
6.37883e-06
6.05793e-06
4.34003e-06
3.46719e-06
3.07738e-06
2.83317e-06
2.54331e-06
2.07406e-06
1.86946e-06
2.14496e-06
2.69339e-06
3.90329e-06
4.82755e-06
4.90041e-06
4.96858e-06
4.73106e-06
3.93744e-06
3.57983e-06
4.44576e-06
5.53884e-06
0.000108617
4.43586e-05
3.91051e-05
2.66385e-05
1.48214e-05
1.34237e-05
8.11973e-06
7.47001e-06
6.01683e-06
5.93117e-06
5.68923e-06
5.85571e-06
4.20825e-06
3.38907e-06
2.87358e-06
2.78918e-06
3.02488e-06
2.26884e-06
2.34159e-06
3.11946e-06
4.10534e-06
4.71502e-06
4.52766e-06
4.32334e-06
4.86423e-06
4.89924e-06
4.26441e-06
4.13593e-06
4.11591e-06
6.75584e-06
5.01443e-05
2.06812e-05
1.82129e-05
1.51008e-05
9.6372e-06
9.60306e-06
6.42113e-06
6.07249e-06
4.79812e-06
4.55233e-06
3.98433e-06
4.12228e-06
2.81034e-06
3.14803e-06
3.02257e-06
3.05832e-06
3.25595e-06
2.35268e-06
2.58966e-06
3.59005e-06
4.20908e-06
3.48422e-06
2.52545e-06
2.45584e-06
3.21936e-06
3.71781e-06
4.01045e-06
4.34755e-06
3.91846e-06
8.41768e-06
4.47033e-05
1.55823e-05
1.65638e-05
1.34337e-05
9.28964e-06
8.43372e-06
5.43491e-06
4.99892e-06
3.49305e-06
3.51172e-06
3.25311e-06
3.38712e-06
2.64591e-06
3.1671e-06
3.21364e-06
3.29002e-06
3.41155e-06
2.73316e-06
3.14322e-06
3.46129e-06
3.25336e-06
2.08492e-06
1.35163e-06
1.38024e-06
1.87619e-06
2.62217e-06
3.52036e-06
4.17057e-06
3.60771e-06
9.208e-06
3.2188e-05
9.07225e-06
1.00039e-05
7.99332e-06
6.38898e-06
5.97323e-06
4.44977e-06
4.27122e-06
3.22521e-06
3.33691e-06
3.15063e-06
3.47131e-06
2.79284e-06
3.45391e-06
3.74035e-06
3.58663e-06
3.5978e-06
3.28539e-06
3.84187e-06
3.24502e-06
2.66585e-06
1.83125e-06
1.53529e-06
1.27862e-06
1.57354e-06
2.56969e-06
3.54849e-06
4.0947e-06
3.64363e-06
1.05256e-05
3.10368e-05
6.04721e-06
8.04545e-06
7.53478e-06
6.2724e-06
5.88226e-06
4.64236e-06
4.42062e-06
3.42794e-06
3.39704e-06
3.11191e-06
3.14926e-06
2.21523e-06
3.0713e-06
3.6323e-06
3.25391e-06
3.08064e-06
3.15744e-06
3.62289e-06
2.90236e-06
2.23636e-06
1.70795e-06
1.50153e-06
1.28522e-06
1.74268e-06
2.75868e-06
3.50656e-06
3.90332e-06
3.53592e-06
1.12808e-05
2.59622e-05
4.66875e-06
5.51311e-06
5.08242e-06
4.8086e-06
4.68685e-06
4.08089e-06
4.06938e-06
3.52486e-06
3.53887e-06
3.13907e-06
2.52038e-06
1.52712e-06
3.81262e-06
4.71036e-06
4.0335e-06
3.06895e-06
2.46971e-06
3.14805e-06
2.69448e-06
2.28043e-06
1.83536e-06
1.70471e-06
1.71949e-06
2.24625e-06
2.96175e-06
3.33374e-06
3.4785e-06
3.30098e-06
1.23052e-05
2.54583e-05
3.15692e-06
4.12834e-06
4.1541e-06
4.25549e-06
4.4481e-06
4.04592e-06
4.11216e-06
3.78537e-06
3.57704e-06
3.00896e-06
2.06275e-06
2.72949e-06
5.2469e-06
6.07066e-06
5.26765e-06
3.90252e-06
1.96019e-06
2.22603e-06
2.35926e-06
2.07582e-06
1.91869e-06
1.90224e-06
2.06868e-06
2.34585e-06
2.68243e-06
2.7313e-06
2.65275e-06
2.78576e-06
1.28507e-05
2.31132e-05
2.87934e-06
3.01595e-06
2.70747e-06
2.71963e-06
3.08361e-06
3.2695e-06
3.78771e-06
3.86552e-06
3.66345e-06
3.23664e-06
3.22708e-06
4.8211e-06
6.7671e-06
7.44211e-06
7.06333e-06
6.06856e-06
3.31155e-06
2.29356e-06
2.2211e-06
2.41336e-06
2.497e-06
2.56625e-06
2.63449e-06
2.69626e-06
2.69653e-06
2.44634e-06
2.21777e-06
2.43561e-06
1.33536e-05
2.31245e-05
2.39069e-06
2.0294e-06
1.82748e-06
1.85107e-06
2.36494e-06
2.87338e-06
3.59665e-06
4.16278e-06
4.1739e-06
3.73007e-06
4.33184e-06
5.45669e-06
6.08052e-06
6.33276e-06
6.27259e-06
5.49813e-06
3.91915e-06
2.66133e-06
2.29724e-06
2.73878e-06
2.96809e-06
2.94358e-06
2.85918e-06
2.80575e-06
2.71984e-06
2.32223e-06
2.20648e-06
2.22503e-06
1.36844e-05
2.14954e-05
2.53022e-06
1.9253e-06
1.63579e-06
1.50384e-06
1.61394e-06
2.03726e-06
2.76305e-06
3.6322e-06
3.84904e-06
3.70929e-06
5.46247e-06
5.89182e-06
5.87996e-06
5.76976e-06
5.46218e-06
5.07086e-06
4.13579e-06
3.61465e-06
2.24068e-06
2.77216e-06
2.96342e-06
2.73262e-06
2.40208e-06
2.22562e-06
2.20398e-06
1.97439e-06
2.12769e-06
2.28327e-06
1.45086e-05
2.07181e-05
2.33978e-06
2.12279e-06
2.06049e-06
2.04161e-06
1.92131e-06
2.09548e-06
2.54262e-06
3.42595e-06
3.70875e-06
4.32597e-06
5.00828e-06
4.753e-06
4.55386e-06
4.08084e-06
3.73264e-06
2.99988e-06
2.83253e-06
2.76545e-06
2.30686e-06
2.28103e-06
2.767e-06
2.40196e-06
1.96319e-06
1.77323e-06
1.8709e-06
1.7832e-06
2.00146e-06
2.35861e-06
1.53011e-05
1.95693e-05
2.44281e-06
2.1502e-06
2.08998e-06
2.08357e-06
2.12165e-06
2.32833e-06
2.76312e-06
3.55929e-06
4.28972e-06
4.61074e-06
4.1801e-06
3.63487e-06
3.20097e-06
3.52469e-06
3.09411e-06
2.45021e-06
2.53947e-06
2.72568e-06
3.1457e-06
3.42118e-06
3.32668e-06
2.5096e-06
1.82514e-06
1.59003e-06
1.68361e-06
1.62461e-06
1.82336e-06
2.36015e-06
1.59428e-05
1.91158e-05
2.68847e-06
2.30869e-06
2.18004e-06
2.26629e-06
2.42059e-06
2.65535e-06
3.01171e-06
3.84305e-06
4.26554e-06
3.94689e-06
2.96684e-06
2.59508e-06
2.54048e-06
3.19824e-06
3.20385e-06
2.56117e-06
2.8038e-06
3.11399e-06
3.77601e-06
3.77933e-06
3.47331e-06
2.40823e-06
1.57354e-06
1.255e-06
1.46499e-06
1.48766e-06
1.6077e-06
1.99796e-06
1.5781e-05
1.79763e-05
2.70626e-06
2.472e-06
2.30813e-06
2.45513e-06
2.59648e-06
2.7473e-06
3.12452e-06
3.77857e-06
3.58219e-06
3.46946e-06
3.31893e-06
3.15336e-06
3.18214e-06
3.83074e-06
3.79317e-06
3.3464e-06
3.44181e-06
3.53357e-06
3.3474e-06
3.03847e-06
3.57808e-06
2.5334e-06
1.58183e-06
1.27048e-06
1.63209e-06
1.8164e-06
1.80598e-06
1.96628e-06
1.57102e-05
1.70896e-05
2.69547e-06
2.70755e-06
2.46363e-06
2.64748e-06
2.76949e-06
2.99863e-06
3.23075e-06
3.61916e-06
3.1976e-06
2.96926e-06
3.28165e-06
3.71037e-06
4.02308e-06
4.60326e-06
4.63277e-06
4.67261e-06
4.38477e-06
3.51372e-06
2.25643e-06
3.24033e-06
4.09899e-06
3.11374e-06
2.46456e-06
2.06721e-06
2.13918e-06
2.40021e-06
2.39633e-06
2.48397e-06
1.58581e-05
1.60633e-05
2.9543e-06
3.08816e-06
3.02566e-06
3.36362e-06
3.44747e-06
3.54016e-06
3.53893e-06
3.75681e-06
3.42372e-06
3.38718e-06
2.70899e-06
3.41896e-06
4.29075e-06
5.20607e-06
5.15562e-06
5.00476e-06
4.24296e-06
2.64376e-06
2.0083e-06
3.42339e-06
4.27439e-06
3.58907e-06
3.09296e-06
2.65885e-06
2.66323e-06
2.92405e-06
3.0027e-06
3.00603e-06
1.55223e-05
1.52153e-05
3.10796e-06
2.98952e-06
3.2326e-06
3.5203e-06
3.1903e-06
2.98657e-06
2.752e-06
2.98034e-06
2.652e-06
2.82679e-06
1.63069e-06
2.27837e-06
4.17075e-06
5.5822e-06
5.82628e-06
5.53561e-06
3.66851e-06
1.708e-06
2.1753e-06
2.77957e-06
3.4464e-06
3.00177e-06
2.82798e-06
2.64462e-06
2.95003e-06
3.11159e-06
2.93671e-06
3.04061e-06
1.46352e-05
1.43382e-05
3.44531e-06
3.11227e-06
3.6216e-06
3.7923e-06
2.93692e-06
2.47515e-06
2.19619e-06
2.4477e-06
2.31783e-06
2.72295e-06
1.767e-06
1.0335e-06
2.19991e-06
3.98131e-06
4.88306e-06
4.59115e-06
2.09704e-06
1.53712e-06
2.7668e-06
2.64852e-06
2.88333e-06
2.47235e-06
2.57018e-06
2.78708e-06
3.51085e-06
3.5518e-06
3.26378e-06
3.08917e-06
1.32391e-05
1.3391e-05
3.60523e-06
3.70169e-06
4.1609e-06
3.79137e-06
2.69019e-06
2.12404e-06
1.67321e-06
1.92383e-06
2.00512e-06
2.65913e-06
2.56066e-06
2.06928e-06
1.54824e-06
2.47362e-06
3.14144e-06
2.69964e-06
1.46104e-06
1.98075e-06
2.65872e-06
2.18568e-06
2.24851e-06
1.83888e-06
2.05242e-06
2.42407e-06
3.44617e-06
3.85509e-06
3.76903e-06
3.18257e-06
1.22416e-05
1.22862e-05
3.61698e-06
4.30466e-06
4.23541e-06
3.40261e-06
2.29685e-06
1.7856e-06
1.30556e-06
1.71701e-06
1.90352e-06
2.70096e-06
3.05396e-06
3.0078e-06
3.00099e-06
3.18119e-06
3.03202e-06
1.86698e-06
2.20345e-06
2.84502e-06
2.92125e-06
1.99308e-06
1.90619e-06
1.49134e-06
1.70632e-06
1.95062e-06
3.13031e-06
3.91753e-06
4.08303e-06
3.384e-06
1.12253e-05
1.13525e-05
3.61514e-06
4.35507e-06
3.58011e-06
2.71349e-06
1.82535e-06
1.46069e-06
9.60644e-07
1.46996e-06
1.85975e-06
2.80565e-06
2.90929e-06
3.01993e-06
3.72571e-06
3.80404e-06
3.00009e-06
1.93608e-06
2.92707e-06
3.39706e-06
3.58308e-06
2.38448e-06
1.69498e-06
1.19167e-06
1.42043e-06
1.57064e-06
2.66958e-06
3.75467e-06
4.24469e-06
3.47855e-06
1.03902e-05
9.77054e-06
3.70216e-06
4.25683e-06
3.05433e-06
2.21994e-06
1.58765e-06
1.76118e-06
1.49462e-06
1.78365e-06
2.16012e-06
3.06359e-06
2.74326e-06
2.88189e-06
3.88939e-06
3.89192e-06
2.87848e-06
2.4244e-06
3.15056e-06
3.57486e-06
4.36756e-06
3.5348e-06
2.39483e-06
1.47516e-06
1.78029e-06
2.04256e-06
3.0415e-06
3.9094e-06
4.62846e-06
3.77513e-06
9.29114e-06
8.63616e-06
3.65842e-06
3.96482e-06
2.73714e-06
2.189e-06
1.98059e-06
2.39283e-06
2.4102e-06
2.8142e-06
2.87261e-06
3.13452e-06
2.32033e-06
2.70943e-06
3.62285e-06
3.56259e-06
2.75298e-06
2.51698e-06
2.89501e-06
3.30822e-06
4.40493e-06
4.28634e-06
3.84228e-06
2.89037e-06
3.04692e-06
3.47366e-06
4.18794e-06
4.19064e-06
4.75051e-06
4.11067e-06
8.42761e-06
7.16928e-06
3.87764e-06
3.90345e-06
2.9976e-06
3.21445e-06
3.32014e-06
3.68175e-06
3.80843e-06
4.48303e-06
4.50678e-06
4.05224e-06
2.10218e-06
2.34539e-06
3.22746e-06
3.75044e-06
3.20549e-06
3.11099e-06
3.63333e-06
3.87943e-06
4.78648e-06
4.79248e-06
5.24897e-06
5.12206e-06
5.42657e-06
5.58884e-06
5.5644e-06
4.51306e-06
4.5868e-06
4.47974e-06
6.97846e-06
6.07039e-06
4.36462e-06
3.79483e-06
3.56563e-06
3.84151e-06
3.67429e-06
3.82442e-06
3.80755e-06
4.49751e-06
4.67731e-06
4.35558e-06
2.09461e-06
1.79362e-06
2.79427e-06
3.38178e-06
2.82184e-06
2.59585e-06
3.35432e-06
3.44367e-06
3.77176e-06
3.45088e-06
4.18388e-06
4.68688e-06
5.56963e-06
5.5122e-06
5.12364e-06
3.87743e-06
3.5965e-06
4.53903e-06
5.73893e-06
4.05946e-06
4.41203e-06
3.25691e-06
3.62256e-06
3.54275e-06
3.40612e-06
3.61663e-06
3.72462e-06
4.3299e-06
4.65198e-06
4.62829e-06
3.49605e-06
3.36955e-06
3.03176e-06
2.72572e-06
2.02935e-06
2.05141e-06
2.63535e-06
2.61706e-06
2.82264e-06
2.53573e-06
3.17976e-06
3.3821e-06
4.08036e-06
4.02369e-06
3.66916e-06
3.06811e-06
2.61388e-06
3.8561e-06
3.44463e-06
2.37706e-06
3.30949e-06
3.71715e-06
4.35413e-06
4.96533e-06
5.59255e-06
6.42037e-06
7.28452e-06
8.34e-06
9.10947e-06
9.31862e-06
8.97367e-06
8.58087e-06
8.43215e-06
8.32367e-06
7.9606e-06
8.04103e-06
8.11335e-06
8.16535e-06
7.92178e-06
7.09602e-06
6.71757e-06
6.05458e-06
5.88319e-06
5.29567e-06
4.55948e-06
3.55981e-06
2.5862e-06
2.08128e-06
1.37581e-06
0.000442909
0.000128374
9.82304e-05
7.09235e-05
4.5279e-05
3.74009e-05
2.47843e-05
2.0617e-05
1.38481e-05
1.25267e-05
1.02003e-05
1.06044e-05
1.02103e-05
8.75308e-06
8.33439e-06
7.86727e-06
7.22085e-06
7.51413e-06
6.45615e-06
6.85018e-06
5.3579e-06
5.82962e-06
5.80182e-06
6.52609e-06
6.27516e-06
5.61404e-06
4.66118e-06
3.50572e-06
2.57579e-06
2.06287e-06
0.000126237
8.90984e-05
4.61725e-05
4.19063e-05
1.95338e-05
1.69554e-05
1.08123e-05
8.87149e-06
7.50996e-06
6.33566e-06
4.78751e-06
2.98503e-06
2.78997e-06
3.10043e-06
3.58557e-06
2.99147e-06
2.84779e-06
2.99352e-06
2.7848e-06
2.22077e-06
1.2853e-06
1.72008e-06
2.65714e-06
3.20724e-06
3.00654e-06
2.5366e-06
2.32078e-06
2.3591e-06
2.88016e-06
2.99796e-06
9.70152e-05
4.62429e-05
3.37838e-05
3.52198e-05
2.00235e-05
1.76733e-05
1.12512e-05
9.34196e-06
8.23136e-06
8.0355e-06
6.83601e-06
5.08393e-06
4.01785e-06
3.6778e-06
3.77415e-06
3.45992e-06
3.76454e-06
3.5484e-06
3.28352e-06
3.10717e-06
2.71797e-06
3.19123e-06
4.6104e-06
5.19851e-06
4.00006e-06
2.9025e-06
3.17745e-06
4.13088e-06
3.71474e-06
4.73728e-06
7.29651e-05
4.03488e-05
3.4071e-05
2.72727e-05
1.62811e-05
1.42308e-05
8.99389e-06
7.60254e-06
6.23803e-06
6.78694e-06
6.94541e-06
6.48639e-06
5.49253e-06
4.55893e-06
3.91218e-06
3.60382e-06
3.57984e-06
3.22571e-06
3.18676e-06
2.92038e-06
2.16995e-06
4.14753e-06
6.24635e-06
6.33562e-06
5.11042e-06
3.56202e-06
3.52292e-06
4.29902e-06
3.99779e-06
5.89417e-06
4.85108e-05
1.9377e-05
1.83398e-05
1.5375e-05
1.08052e-05
1.02972e-05
7.41564e-06
6.45497e-06
5.25622e-06
6.0063e-06
7.3509e-06
7.15266e-06
5.18062e-06
4.10384e-06
3.50755e-06
3.24263e-06
3.0309e-06
2.98872e-06
3.00683e-06
3.09391e-06
4.3445e-06
5.82e-06
6.22757e-06
6.10706e-06
5.62697e-06
4.33458e-06
4.19485e-06
3.73268e-06
4.19239e-06
7.44385e-06
4.30731e-05
1.66112e-05
1.69806e-05
1.34974e-05
9.94623e-06
8.46978e-06
5.94716e-06
4.71965e-06
3.64156e-06
4.1464e-06
5.18302e-06
4.60462e-06
2.83489e-06
2.37475e-06
2.2095e-06
2.34055e-06
2.49919e-06
2.78369e-06
2.13263e-06
3.06988e-06
3.76789e-06
3.62393e-06
2.85868e-06
3.25543e-06
4.01026e-06
4.18491e-06
4.41379e-06
3.01045e-06
4.10941e-06
8.21035e-06
3.20211e-05
9.63191e-06
1.02159e-05
8.10083e-06
6.67797e-06
5.90033e-06
4.35163e-06
3.77118e-06
3.30668e-06
3.4831e-06
4.13311e-06
3.73925e-06
2.43343e-06
2.37259e-06
2.64505e-06
2.61717e-06
2.4284e-06
2.39209e-06
2.36758e-06
3.11084e-06
2.45495e-06
1.8017e-06
9.60122e-07
1.50703e-06
3.05905e-06
4.06505e-06
4.10481e-06
2.53419e-06
4.10905e-06
9.42415e-06
3.03105e-05
7.11637e-06
8.10101e-06
7.65367e-06
6.70925e-06
5.93186e-06
4.60876e-06
4.10625e-06
3.50352e-06
3.2188e-06
3.59941e-06
3.25552e-06
2.21918e-06
2.5334e-06
2.38507e-06
1.89678e-06
1.40737e-06
1.96012e-06
2.63405e-06
2.86739e-06
1.62171e-06
1.38237e-06
8.75892e-07
1.29049e-06
2.74823e-06
3.56397e-06
3.45524e-06
2.32989e-06
3.88848e-06
1.01601e-05
2.5104e-05
5.29648e-06
5.18353e-06
4.4645e-06
4.47619e-06
4.59293e-06
4.04903e-06
3.78448e-06
3.44252e-06
3.12856e-06
3.32688e-06
2.55254e-06
2.35479e-06
3.18829e-06
2.57443e-06
1.50186e-06
1.33856e-06
1.34075e-06
2.14357e-06
2.62869e-06
1.73163e-06
1.67078e-06
1.33046e-06
1.78693e-06
2.64475e-06
3.01856e-06
3.04894e-06
2.31982e-06
3.5693e-06
1.12673e-05
2.40326e-05
4.28328e-06
4.24995e-06
3.53737e-06
3.43662e-06
3.92064e-06
3.97266e-06
3.79867e-06
3.46608e-06
2.97339e-06
2.88647e-06
2.36438e-06
3.14799e-06
3.81953e-06
4.04536e-06
3.00661e-06
2.8172e-06
2.46941e-06
1.57725e-06
1.94728e-06
1.46532e-06
1.55044e-06
1.58157e-06
2.07937e-06
2.26367e-06
2.27004e-06
2.20643e-06
1.65078e-06
2.99914e-06
1.2047e-05
2.15206e-05
3.57146e-06
3.25036e-06
2.85434e-06
2.36057e-06
2.3191e-06
2.99315e-06
3.58868e-06
3.64837e-06
3.15172e-06
3.69865e-06
4.40172e-06
5.52747e-06
6.23729e-06
6.80719e-06
6.18624e-06
5.61288e-06
4.5471e-06
3.3055e-06
2.66961e-06
2.02499e-06
2.07256e-06
2.15567e-06
2.2809e-06
1.97547e-06
1.81888e-06
1.68689e-06
1.29093e-06
2.51475e-06
1.26734e-05
2.15593e-05
2.9502e-06
2.34439e-06
2.22711e-06
1.85244e-06
1.63494e-06
2.54791e-06
3.4073e-06
3.54924e-06
3.72085e-06
4.97357e-06
5.1807e-06
6.52942e-06
7.1641e-06
7.71607e-06
7.68681e-06
6.5913e-06
5.18111e-06
3.97835e-06
3.5138e-06
2.5742e-06
2.16326e-06
1.9616e-06
1.9424e-06
1.72135e-06
1.68905e-06
1.64899e-06
1.32288e-06
1.95603e-06
1.30078e-05
2.0217e-05
2.42756e-06
1.72234e-06
1.58887e-06
1.41757e-06
1.24801e-06
1.9777e-06
3.05569e-06
2.87312e-06
3.97379e-06
5.58656e-06
6.33843e-06
7.97274e-06
8.51442e-06
8.7202e-06
8.44432e-06
7.7554e-06
6.45104e-06
5.14228e-06
4.15414e-06
3.13772e-06
1.81033e-06
1.6018e-06
1.56978e-06
1.35814e-06
1.34744e-06
1.376e-06
1.06721e-06
1.93165e-06
1.37766e-05
1.972e-05
2.36656e-06
1.683e-06
1.58279e-06
1.62909e-06
1.65919e-06
2.17728e-06
3.07135e-06
2.99719e-06
3.68098e-06
5.02488e-06
6.59679e-06
7.51644e-06
8.2391e-06
8.24453e-06
7.98962e-06
7.21864e-06
6.26752e-06
5.63993e-06
3.74391e-06
2.99136e-06
2.00369e-06
1.33845e-06
1.20785e-06
1.22827e-06
1.19472e-06
9.88238e-07
5.57784e-07
1.98644e-06
1.43936e-05
1.84633e-05
2.66158e-06
1.69131e-06
1.64359e-06
1.66268e-06
1.8326e-06
2.08676e-06
2.37813e-06
3.06938e-06
4.45656e-06
5.43676e-06
6.13421e-06
5.80492e-06
6.59526e-06
7.46006e-06
7.5101e-06
6.54493e-06
5.77885e-06
5.86499e-06
4.96053e-06
4.25441e-06
2.85159e-06
1.82394e-06
1.26624e-06
1.25607e-06
1.08621e-06
7.99404e-07
5.37089e-07
2.01467e-06
1.49113e-05
1.79335e-05
2.88499e-06
1.49032e-06
1.51812e-06
1.67828e-06
1.99027e-06
2.13837e-06
2.45675e-06
3.42958e-06
4.76731e-06
5.22965e-06
5.5658e-06
4.99331e-06
5.92121e-06
7.09717e-06
7.23932e-06
6.37089e-06
5.65248e-06
6.10182e-06
5.32085e-06
4.39835e-06
3.06342e-06
1.80838e-06
1.24729e-06
1.26381e-06
1.09938e-06
9.71903e-07
6.79469e-07
1.78431e-06
1.47901e-05
1.69688e-05
2.94281e-06
1.46707e-06
1.70137e-06
1.74716e-06
2.10338e-06
2.11369e-06
2.33363e-06
2.91202e-06
3.92151e-06
4.44578e-06
5.90709e-06
5.98198e-06
6.91579e-06
7.66962e-06
7.8111e-06
7.50121e-06
6.29653e-06
6.08472e-06
4.09394e-06
3.91745e-06
2.79023e-06
1.68691e-06
1.29443e-06
1.20563e-06
1.0375e-06
1.42774e-06
1.24859e-06
1.75737e-06
1.48119e-05
1.6284e-05
2.93427e-06
1.886e-06
2.02971e-06
1.7277e-06
1.96818e-06
2.19323e-06
2.39488e-06
2.55317e-06
3.87444e-06
4.67561e-06
5.32572e-06
6.08625e-06
7.10962e-06
7.95384e-06
8.18455e-06
7.60469e-06
6.20808e-06
5.2473e-06
3.8929e-06
3.9442e-06
2.42255e-06
2.12515e-06
1.73388e-06
1.16582e-06
1.1153e-06
2.12255e-06
2.07738e-06
2.40053e-06
1.47088e-05
1.50946e-05
3.09571e-06
2.16108e-06
2.15986e-06
2.21826e-06
2.68268e-06
2.88664e-06
2.97133e-06
2.92923e-06
3.53482e-06
4.06894e-06
4.40153e-06
4.79166e-06
6.06543e-06
7.47501e-06
7.93213e-06
6.77983e-06
5.42644e-06
4.51159e-06
3.91805e-06
3.64138e-06
3.10136e-06
2.6331e-06
2.10326e-06
1.62851e-06
1.53578e-06
2.27791e-06
2.15592e-06
3.005e-06
1.41496e-05
1.40483e-05
3.26928e-06
2.11288e-06
1.92765e-06
2.65477e-06
3.14535e-06
2.78005e-06
2.58985e-06
2.36408e-06
2.5423e-06
2.64063e-06
3.30867e-06
3.5219e-06
4.63186e-06
6.08621e-06
7.18523e-06
6.34079e-06
5.02371e-06
3.84053e-06
3.0499e-06
2.94363e-06
2.79002e-06
2.6267e-06
2.40664e-06
2.50952e-06
2.19938e-06
2.03737e-06
1.73817e-06
3.24488e-06
1.31544e-05
1.3136e-05
3.70673e-06
2.4376e-06
2.14849e-06
3.44889e-06
3.8103e-06
2.73011e-06
2.1254e-06
1.88404e-06
1.9651e-06
1.88773e-06
1.98786e-06
2.06165e-06
3.13117e-06
3.39088e-06
4.48055e-06
4.22604e-06
3.72348e-06
2.63389e-06
2.27492e-06
2.56563e-06
2.32778e-06
2.31684e-06
2.69965e-06
3.55032e-06
3.24313e-06
2.18856e-06
1.52328e-06
3.17113e-06
1.17381e-05
1.21389e-05
3.71913e-06
2.37544e-06
3.13925e-06
4.2403e-06
3.75325e-06
2.4551e-06
1.89606e-06
1.68223e-06
1.71398e-06
2.08866e-06
2.57475e-06
1.58713e-06
2.05379e-06
2.88882e-06
2.99176e-06
2.86886e-06
2.83884e-06
2.36108e-06
2.01577e-06