/*--------------------------------*- C++ -*----------------------------------*\
| =========                 |                                                 |
| \\      /  F ield         | OpenFOAM: The Open Source CFD Toolbox           |
|  \\    /   O peration     | Version:  v1906                                 |
|   \\  /    A nd           | Web:      www.OpenFOAM.com                      |
|    \\/     M anipulation  |                                                 |
\*---------------------------------------------------------------------------*/
FoamFile
{
    version     2.0;
    format      ascii;
    class       volScalarField;
    location    "0.26/oil";
    object      heatTransferCoeff(T);
}
// * * * * * * * * * * * * * * * * * * * * * * * * * * * * * * * * * * * * * //

dimensions      [1 0 -3 -1 0 0 0];


internalField   uniform 0;

boundaryField
{
    maxY
    {
        type            calculated;
        value           uniform 0;
    }
    minX
    {
        type            calculated;
        value           uniform 0;
    }
    maxX
    {
        type            calculated;
        value           uniform 0;
    }
    minY
    {
        type            calculated;
        value           uniform 0;
    }
    minZ
    {
        type            calculated;
        value           uniform 0;
    }
    maxZ
    {
        type            calculated;
        value           uniform 0;
    }
    oil_to_sphere
    {
        type            calculated;
        value           nonuniform List<scalar> 
1536
(
-4750.38
-4342.99
-4394.31
-4832.51
-5004.62
-4852.43
-4740.46
-4721.18
-4474.03
-3480.63
-5016.96
-3506.17
-3711.55
-3714.84
-4947.78
-5089.29
-4728.3
-4476.57
-1558.18
-3697.47
-3844.46
-4918.4
-4682.02
-5096.24
-5120.02
-5125.83
-5101.94
-5105.24
-4279.96
-4495.18
-4303.62
-4416.17
-4550.54
-5107.34
-5095.32
-5065.76
-5013.68
-5102.64
-5058.53
-5083.06
-5083.66
-5086.25
-4583.37
-3855.95
-4499.46
-3829.02
-4701.41
-4745.48
-5032.87
-4768.78
-4940.85
-4717.12
-4668.67
-4662.78
-4404.46
-4345.33
-4833.07
-4743.68
-4433.89
-3742.96
-3785.54
-3792.14
-3806.14
-1466.82
-1461.73
-3837.47
-4515.51
-3686.2
-4824.09
-4499.91
-5121.98
-4953.15
-4887.12
-5106.72
-5092.41
-4570.53
-4212.29
-4791.93
-5085.93
-4411.04
-3788.84
-3807.11
-3562.07
-3621.04
-3572.68
-3660.78
-3400.96
-4700.16
-4495.44
-3769.5
-3747.16
-1522.35
-1533.45
-1511.67
-1472.12
-3836.99
-4503.44
-3581.51
-3707.71
-4786.76
-4511.07
-5112.31
-4637.34
-4456.78
-4896.82
-5111.74
-5092.37
-4843.75
-4903.22
-4516.12
-4356.82
-4477.28
-3746.44
-3865.46
-3510.44
-3399.59
-3462.12
-3618.79
-3510.04
-3646.35
-4365.18
-3747.11
-1568.95
-3810.23
-4776.85
-4564.1
-4820.37
-4453.31
-4774.95
-4956.77
-4686.53
-4965.56
-4730.37
-4946.73
-4737.21
-4945.51
-4687.24
-4385.89
-4661.58
-4782.41
-3754.73
-3808.87
-4727.08
-4390.26
-3735.69
-4423.68
-4918.8
-4052.54
-4019.91
-4813.9
-5016.75
-4022.64
-4938.93
-4900.51
-4884.7
-4006.35
-4857.69
-3916
-4964.85
-3905.56
-4760.57
-3967.18
-5113.08
-5110.65
-5069.56
-5004.48
-4874.4
-3880.33
-4807.22
-3977.58
-4450.53
-4395.96
-4367.2
-4275.38
-4357.91
-4169.11
-4875.63
-4043.78
-4200
-4824.39
-5126.36
-5092.63
-5018.83
-5023.43
-4058.42
-4718.32
-3980.52
-4441.08
-4436.65
-4458.43
-4579.56
-4910.16
-4237.02
-4729.46
-5131.18
-4952.68
-4526.81
-4741.41
-4236.59
-4878.1
-4817.96
-4902.71
-4512.07
-4094.5
-4237.45
-4295.94
-4273.66
-4393.97
-4521.54
-4006.24
-4625.59
-4337.1
-4404.42
-3357.13
-3610.69
-3523.55
-3346.8
-3562.62
-3684.66
-2941.95
-3857.58
-4129.56
-4192.85
-3849.03
-3795.29
-4184.92
-5049.38
-4137.87
-4996.03
-5183.01
-5059.46
-4909.15
-4936.22
-4175.02
-4039.55
-4610.08
-4168.53
-4187.52
-4072.61
-4446.78
-4302.77
-2201.84
-2582.62
-3668.44
-3105.82
-4230.83
-4293.38
-3643.14
-3617.29
-3226.38
-4288.05
-5152.49
-4702.96
-4988.16
-4063.9
-5023.21
-5050.11
-4651.56
-4374.92
-4417.17
-4565.33
-3937.82
-4337.14
-2595.55
-2182.68
-2120.54
-2277.34
-2447.89
-4090.99
-3889.19
-4228.97
-3988.5
-3908.09
-4247.32
-4253.51
-3760.66
-3480.5
-3176.44
-4286.5
-4182.44
-4887.97
-4777.65
-4361.38
-4195.8
-4591.89
-4624.54
-4553.15
-4928.52
-4734.11
-4486.28
-4791.53
-4036.91
-4818.39
-4151.48
-4208.29
-4320.7
-4329.91
-4182.19
-4394.18
-4428.91
-4729.15
-4623.86
-4347.54
-4263.05
-4164.81
-4722.8
-3978.87
-5035.87
-5011.57
-3924.82
-4659.28
-3907.78
-4442.01
-4416.63
-4276.6
-4231.08
-4530.19
-4526.56
-4630.68
-3965.36
-4285.08
-4317.81
-4279.41
-4689.74
-4095.24
-3986.2
-4209.29
-3884.97
-4247.92
-3656.72
-4113.33
-3995.17
-4618.21
-4351.34
-4213.87
-4595.82
-4002.59
-4267.86
-4291.43
-3557.21
-3163.54
-4070.93
-3935.27
-4114.78
-3997.88
-4025.25
-4191.26
-4266.46
-4211.78
-4448.93
-4628.72
-4743.12
-4321.73
-4838.98
-4313.75
-4634.43
-4472.24
-4483.51
-4903.13
-4344.03
-4865.94
-4682.65
-4296.38
-4904.46
-4615.13
-4600.86
-4862.75
-4798.07
-4894.26
-4514.19
-4289.25
-4947.52
-4687.2
-4438.87
-4924.19
-4553.56
-4828.33
-4888.89
-4562.66
-3994.22
-4792.72
-4259.58
-4629.05
-4306.84
-4426.8
-4903.57
-4591.54
-4041.72
-4748.03
-4469.1
-4543.2
-4321.51
-4198.36
-4442.01
-4343.06
-4217.9
-4713.26
-4098.24
-4629
-4357.4
-4907.26
-4591.65
-3884.62
-4758.57
-4651.84
-4376.43
-4746.15
-4263.45
-4555.8
-4397.99
-4342.03
-4276.94
-4336.02
-4411.87
-4332.88
-4183.73
-4333.95
-4263.78
-4615.71
-4403.68
-4469.47
-4423.2
-4123.59
-3901.92
-4356.35
-4118.83
-4007.52
-4222.73
-3640.45
-3721.12
-4490.58
-4138.45
-4281.59
-4251.62
-4221.63
-4163.72
-4202.86
-3568.02
-3312.68
-3618.87
-3888.02
-4197.85
-4136.04
-3931.29
-4007.65
-4487.05
-4340.23
-4524.71
-4645.69
-4360.2
-4472.7
-4404.47
-4180.37
-2354.22
-2414.15
-2350.38
-2430.28
-2220.67
-2227.37
-2402.04
-2157.35
-2232.14
-1989.7
-2514.76
-3804.32
-4093.64
-4194.53
-3923.44
-4139.01
-4592.89
-4297.3
-4317.38
-4284.67
-3559.46
-4607.35
-4305.53
-4483.02
-4003.43
-4687.55
-4183.62
-4107.3
-4220.13
-4339.26
-3638.53
-4326.96
-4621.51
-4313.44
-4677.53
-3814.28
-4821.24
-3848.27
-4932.62
-5095.85
-5140.32
-5096.18
-5083.38
-4962.36
-4980.26
-5053.71
-5091.11
-4756.83
-3999.79
-5038.27
-4992.41
-3999.53
-3994.6
-4713.27
-5017.73
-5031.14
-4073.95
-4853.94
-5031.62
-5044.84
-5019.94
-4834.13
-4203.12
-3932.48
-4238.48
-4129.38
-3918.33
-4678.46
-4401.93
-4205.41
-4381.57
-4278.73
-3554.28
-3721.76
-3745.27
-3105.23
-3744.56
-3212.87
-3848.16
-3422.6
-3967.75
-3621.9
-3751.8
-4153.48
-4480.8
-4300.91
-4191.6
-3792.92
-4276.78
-4176.15
-3856.78
-4618.98
-4420.84
-4311.74
-4552.9
-4358.93
-4208.67
-4228.68
-3554.48
-3745.76
-4291.95
-2344.7
-2592.33
-2395.73
-2558.41
-2275.6
-2255.52
-2277.16
-2113.28
-2560.16
-2497.75
-2222.96
-2258.22
-2248.8
-2274.78
-2531.22
-2235.54
-2024.46
-2211.35
-2449.84
-2496.25
-2525.65
-2392.95
-2148.73
-4323.43
-3597.25
-3239.62
-4642.21
-4223.36
-3919.63
-4271.53
-3834.22
-4087.36
-4004.3
-3841.91
-4642.42
-4044.54
-4306.09
-4345.1
-4167.13
-4186.87
-3494.65
-3515.92
-4589.34
-4422.82
-3897.11
-4689.28
-4184.62
-3868.06
-4139.51
-3771.72
-4479.13
-4670.95
-3976.14
-4330.64
-4152.26
-4249.05
-4953.82
-3843.08
-5115.98
-5118.99
-3959.99
-4049.38
-4830.46
-5096.3
-5131.82
-4456.81
-4820.93
-5077.99
-5086.95
-5070.46
-4955.45
-4992.99
-5038.38
-4112.87
-4158.83
-4719.18
-4037.72
-4821.45
-3963.27
-4051.28
-4217.32
-5018.51
-5075.84
-4948.48
-4206.08
-5014.97
-4256.01
-4921.4
-4801.35
-4016.28
-4902.27
-3967.89
-4249.43
-3693.1
-3150.38
-3761.16
-4529.43
-4152.93
-4211.24
-4141.63
-4132.84
-4140.79
-4237.5
-3841.94
-4249.5
-3997.92
-3932.39
-3708.86
-3770.08
-3321.41
-3692.82
-3738.98
-3179.99
-3727.65
-3689.74
-3035.18
-3529.8
-3989.56
-3866.38
-3474.97
-3542.78
-4681.94
-4343.7
-4246.75
-3930.41
-4385.35
-4209.26
-4222.73
-3615.85
-3235.18
-4295.43
-4528.09
-4439.82
-4562.61
-4024.86
-4244.66
-4047.86
-4280.1
-4199.93
-3820.42
-4168.15
-3776.03
-3864.37
-2303.42
-2282.74
-2384.27
-2293.96
-2469.35
-2536.44
-2444.79
-2210.82
-2580.65
-4255.04
-4289.52
-4433.36
-4419.63
-4425.36
-4404.82
-4456.2
-4234.1
-4246.09
-3633.63
-4248.38
-4256.69
-4062.25
-4585.95
-4330.62
-4396.06
-4437.05
-4718.81
-4593.65
-4262.92
-3864.24
-4085.86
-3921.72
-4281.99
-4139.51
-4267.69
-4002.94
-4725.7
-4627.09
-4241.91
-4346.56
-4101.64
-4612.23
-4313.75
-4432.36
-4358.19
-4583.42
-4359.46
-4460.17
-4629.57
-4306.73
-4508.69
-4951.08
-4779.33
-4561.11
-4846.35
-4445.26
-4718.45
-4750.04
-4365.58
-4626.53
-4877.19
-4907.89
-4326.75
-4843.59
-4632.27
-4338.62
-4906.79
-4816.12
-4620.32
-4901.08
-4846.49
-4304.72
-4268.26
-4905.08
-4753.89
-4410.08
-4941.69
-4926.93
-4801.42
-4806.64
-4789.57
-4164.28
-4615.32
-4298.74
-4521.07
-4419.5
-4501.66
-4038.53
-4792.26
-4888.86
-4064.07
-4727.83
-4643.93
-4525.24
-4474.62
-4294.07
-4841.33
-4837.54
-4477.5
-4079.05
-4871.77
-4500.84
-4593.65
-4718.28
-4227.73
-4696.48
-4352.21
-4402.19
-4440.16
-4089.81
-4899.36
-4722.41
-4780.94
-4364.57
-4466.88
-4251.92
-4705.04
-4669.72
-4350.84
-4427.39
-4285.98
-4293.32
-4266.35
-4490.51
-4334.83
-4512.44
-3874.32
-4226.2
-4184.55
-4059.87
-4201.83
-4228.25
-3632.13
-3661.52
-4284.49
-4074.95
-4480.86
-4372.71
-4248.2
-4315.3
-4550.87
-4684.88
-4403.34
-4361.26
-4325.42
-4294.79
-4184.81
-4275.95
-3626.09
-3274.26
-4339.91
-3729.81
-4142.82
-4241.55
-3940.56
-3955.33
-4402.13
-3993.49
-4596.97
-4385.67
-4342.81
-4312.64
-4301.31
-4018.27
-4508.66
-4239.18
-4476.33
-4854.81
-4551.82
-4650.6
-3290.12
-4117.06
-3263.71
-3494.3
-4167.75
-4825.91
-4196.57
-3984.32
-4620.54
-4899.97
-4487.49
-4771.29
-3606.7
-2616.06
-4876.85
-4501.01
-4754.26
-3513.47
-2538
-3745.44
-4196.86
-5001.79
-4923.44
-3787.6
-4691.9
-4810.09
-4585.12
-5003.23
-4346.22
-4861.1
-4710.04
-4363.69
-4690.12
-4892.85
-4643.41
-4644.44
-4870.95
-4712.76
-4875.88
-4679.04
-4901.36
-4387.14
-4535.6
-4985.51
-4148.08
-4980.22
-4363.8
-4933.16
-4572.34
-4847.25
-4556.13
-4617.28
-4908.91
-4408.79
-4971.93
-4322.65
-4592.31
-5024.64
-4346.14
-5009.08
-5129.4
-5106.37
-4788.45
-4836.1
-4964.75
-4935.94
-4932.54
-4354.68
-4554.84
-4989.54
-4402.15
-4727.65
-3647.45
-3692.65
-4670.45
-4217.71
-4714.3
-3625.09
-4146.16
-4944.5
-4828.31
-5009.39
-4507.34
-4887.3
-4931.6
-4380.89
-4765
-4820.06
-4757.31
-4449.3
-4770.74
-4265.03
-4711.22
-3554.58
-4173.24
-3685.25
-3527.1
-2656.12
-3512.48
-2678.09
-2586.77
-3555.3
-3398.71
-2602.4
-3755.58
-4875.74
-4336.89
-4940.85
-4418.46
-4713.53
-5009.35
-4267.63
-4952.51
-4138.47
-4614.37
-4478.64
-4274.19
-4987.97
-4220.34
-4335.2
-4862.63
-4062.2
-4590.91
-4768.29
-4310.17
-3969.88
-3325.23
-3182.55
-4697.54
-4245.68
-2616.72
-2635.17
-2757.96
-3722.94
-2581.92
-3519.24
-2431.8
-3404.68
-2605.31
-3475.21
-2476.71
-3481.3
-4853.56
-4246.27
-4905.81
-3333.79
-3263.85
-4162.09
-4131.98
-4377.88
-4734.28
-4097.11
-5014.7
-4289.26
-4207.29
-4803.33
-4227.76
-4627.21
-5040.24
-4233.91
-5049.83
-4270.37
-4373.59
-4171.75
-4811.29
-4570.08
-4612.55
-4810.9
-4312.67
-3399.35
-3992.48
-3321.29
-4663.94
-4157.74
-2575.69
-2780.63
-2492
-3719.11
-4256
-4730.14
-4122.14
-4701.14
-4916.16
-4434.99
-4847.37
-4897.85
-4879.23
-4864.08
-4494.94
-4743.05
-4817.05
-4743.48
-4239.57
-4586.04
-4210.58
-4680.01
-5074.91
-5089.3
-5155.33
-4782.72
-4387.75
-5002.28
-5109.41
-4016.79
-4939.14
-4971.17
-4150.65
-5053.28
-5146.27
-4019.6
-4698.13
-4843.73
-4306.83
-5058.01
-5086.5
-5130.68
-4043.18
-4714.26
-4947.21
-4332.29
-5086.74
-4786.11
-4288.6
-5050.74
-4750.65
-4337.36
-5061.2
-4989.8
-4943.48
-4964.24
-5075.42
-5060.9
-5078.97
-5171.85
-3832.7
-4723.61
-5144.25
-4131.99
-4691.43
-5030.92
-4993.51
-4655.41
-4458.49
-5072.07
-4701.76
-4429.03
-5018.4
-5008.97
-5007.1
-4940.55
-5125.73
-4080.05
-4699.37
-5136.16
-4092.97
-4559.77
-5048.36
-4854.47
-4905.3
-4934.87
-5031.83
-5062.12
-4903.93
-4404.81
-4264.35
-4432.8
-4255.94
-4751.28
-4029
-4606.49
-4753.6
-4833.86
-4813.19
-4851.38
-4835.16
-4599.43
-4297.61
-4127.96
-4319.81
-4510.59
-4396.12
-4347.7
-4438.66
-4039.77
-3419.56
-3229.09
-4408.23
-5131.07
-5092.35
-4799.52
-3838.9
-3769.69
-4764.84
-4375.63
-5095.8
-4812.53
-4139.96
-4050.68
-4318.67
-3764.38
-3682.15
-3713.95
-3754.82
-3065.54
-2315
-4268.61
-4424.23
-4276.76
-4470.56
-4173.33
-4840.36
-4175.33
-5022.6
-5026.18
-4519.91
-4606.06
-3729.4
-3103.47
-2374.79
-2626.74
-3720.54
-4091.74
-3297.37
-3318.96
-4255.23
-4116.91
-3950.28
-4031.86
-4355.64
-4165.26
-4810.18
-4147.84
-3897.65
-4624.53
-4865.23
-4765.99
-4228.4
-4232.48
-4517.21
-4368.2
-4475.4
-4119.54
-3684.81
-4831.17
-4556.47
-4754.65
-4806.37
-4948
-4892.49
-4774.12
-4114.58
-4870.82
-4947.15
-4897.01
-5087.45
-5068.46
-4971.26
-4434.43
-3605.99
-3722.24
-4476.42
-4344.63
-4385.13
-4265.53
-4014.39
-3780.43
-4386.58
-4354.62
-4239.99
-4181.71
-4413.7
-4266.59
-4358.8
-4285.19
-4442.28
-4262.82
-4581.77
-3921.23
-4296.1
-4558.7
-4067.43
-3287.09
-4249.44
-4165.39
-4554.94
-4593.01
-4315.07
-4143.84
-4048.69
-3432.77
-4143.55
-4461.63
-4494.83
-4293.74
-4299.54
-4225.41
-4351.02
-4282.26
-4810.16
-4733.37
-4105.54
-4493.52
-4832.98
-4830.97
-4870.88
-4808.17
-4828.06
-4844.29
-4138.32
-4607.49
-4857.5
-4793.11
-4802.96
-4804.3
-4694.32
-4256.39
-4349.36
-4821.93
-4693.75
-4840.85
-4785.92
-4452.74
-4569.86
-4873.32
-4970.54
-4261.27
-4573.65
-4703.01
-4723.66
-4767.02
-4616.34
-4839.62
-4842.68
-4471.17
-4476.94
-4617.91
-4274.92
-4296.59
-3955.8
-3941.33
-4510.24
-4211.29
-4223.03
-4084.11
-3224.36
-3284.02
-4120.68
-4622.18
-4260.85
-4252.79
-4263.36
-4121.77
-3992.9
-3558.54
-4244.57
-4185.65
-3863.62
-3657.41
-3701.45
-2359.7
-3238.3
-3669.49
-2353.57
-3128.22
-2468.96
-2385.15
-3749.23
-3934
-2619.38
-3464.18
-2529.23
-2361.52
-2714.13
-3719.2
-3559.93
-4770.7
-4190.09
-3331.28
-4192.35
-4732.33
-3942.71
-4270.82
-4292.8
-4440.22
-4257.52
-4486.24
-4185.4
-4537.49
-4551.83
-4011.5
-4354.26
-4175.33
-4328.44
-4388.98
-4539.9
-5159.84
-3833.31
-4796.11
-5130.81
-4015.34
-4767.15
-5058.34
-4856.98
-4340.79
-4957.2
-4039.9
-5131.79
-4107.56
-4784.6
-4769.83
-5111.63
-4872.22
-5027
-5016.11
-3956.54
-4991.75
-4656.89
-4529.5
-4577.16
-4100.08
-3318.98
-3431.91
-4538.21
-4286.9
-4304.36
-4129.19
-4672.29
-3981.19
-4070.81
-3326.83
-4510.87
-4137.09
-2286.52
-2244.02
-2570.15
-2445.91
-2649.34
-2629.76
-2644.54
-3667.21
-2273.23
-2572.27
-3632.27
-3633.64
-3634.56
-3697.08
-3238.18
-2502.4
-2460.73
-2653.67
-3683.97
-3614.64
-2846.13
-3897.27
-3752.85
-3424.1
-4818.79
-4182.7
-4525.47
-4152.36
-3370.15
-4236.79
-4704.25
-4104.48
-4367.78
-4415.21
-4419.95
-4543.3
-4018.81
-4408.67
-4623.5
-4394.59
-4117.07
-5050.72
-5044.72
-5074.79
-5160.39
-5118.2
-4693.39
-5123.63
-4001.5
-4827.83
-4344.41
-4858.81
-5075.9
-4828.6
-5054.71
-4944.61
-4743.86
-4765.54
-5061.66
-4637.56
-4417.28
-4744.08
-4364.99
-4324.27
-4330.94
-4109.42
-4791.55
-4268.12
-4015.81
-3415.97
-4555.09
-4144.77
-4702.74
-4002.24
-2569.67
-2673.42
-2635.21
-3657.69
-4290.89
-4514.8
-4103.84
-4521.51
-4366.8
-4469.98
-4120.47
-4409.76
-4471.98
-4656.34
-3923.31
-4335.5
-4523.47
-4022.57
-4221.71
-4374.73
-4439.36
-4560.45
-4599.6
-4416.48
-4440.09
-4477.45
-4945.58
-4851.11
-4800.92
-3751.77
-4538.99
-4803.48
-4842.04
-4851.75
-4730.56
-3993.32
-4829.96
-4827.9
-4130.61
-4833.61
-4972.65
-4499.43
-4798.51
-4862.3
-4850.76
-4858.69
-4421.05
-4844.99
-4887.39
-4829.12
-4803.14
-3852.96
-4311.47
-4109.87
-3284.04
-4119.52
-4637.01
-3900.51
-4576.12
-4130.43
-3988.46
-4510.83
-4687.53
)
;
    }
}


// ************************************************************************* //
