/*--------------------------------*- C++ -*----------------------------------*\
| =========                 |                                                 |
| \\      /  F ield         | OpenFOAM: The Open Source CFD Toolbox           |
|  \\    /   O peration     | Version:  v1906                                 |
|   \\  /    A nd           | Web:      www.OpenFOAM.com                      |
|    \\/     M anipulation  |                                                 |
\*---------------------------------------------------------------------------*/
FoamFile
{
    version     2.0;
    format      ascii;
    class       surfaceScalarField;
    location    "19.2/oil";
    object      phi;
}
// * * * * * * * * * * * * * * * * * * * * * * * * * * * * * * * * * * * * * //

dimensions      [1 0 -1 0 0 0 0];
oriented        oriented;


internalField   nonuniform List<scalar> 
80688
(
-2.63538e-06
-2.68083e-06
-2.63538e-06
-1.19162e-06
-7.46191e-07
-6.97568e-07
-3.27639e-07
-4.34163e-07
-4.29821e-07
-1.66868e-07
-8.02116e-08
-8.05593e-08
-7.57032e-08
-4.55757e-08
-4.55894e-08
-3.43672e-08
-2.08643e-08
-2.04716e-08
-1.39749e-08
-1.04969e-08
-9.89537e-09
-3.58228e-09
-5.55528e-09
-4.8373e-09
1.74055e-09
-3.07122e-09
-2.25158e-09
4.22762e-09
-1.71212e-09
-7.74927e-10
4.94931e-09
-8.97153e-10
1.75481e-10
4.48038e-09
-3.65901e-10
8.34853e-10
3.1772e-09
-9.70192e-12
1.31289e-09
1.31354e-09
2.26554e-10
1.63712e-09
-8.61798e-10
3.58807e-10
1.81654e-09
-3.11436e-09
3.96939e-10
1.85563e-09
-5.2286e-09
3.50858e-10
1.7634e-09
-7.01821e-09
2.31636e-10
1.55799e-09
-8.34026e-09
5.5022e-11
1.26703e-09
-9.10403e-09
-1.59597e-10
9.23378e-10
-9.27563e-09
-3.92913e-10
5.64521e-10
-8.87274e-09
-6.31479e-10
2.28602e-10
-7.96287e-09
-8.56574e-10
-5.32875e-11
-6.65403e-09
-1.05136e-09
-2.57471e-10
-5.09274e-09
-1.20143e-09
-3.59853e-10
-3.45419e-09
-1.28555e-09
-3.52984e-10
-1.93693e-09
-1.27158e-09
-2.45672e-10
-7.50787e-10
-1.11209e-09
-7.40415e-11
-8.08584e-11
-7.39772e-10
6.98562e-11
-1.70031e-10
8.91817e-11
-7.11007e-07
-1.25882e-06
-7.11007e-07
-4.3015e-07
-4.54304e-07
-5.72744e-07
-3.14641e-07
-3.01352e-07
-2.4832e-07
-1.66757e-07
-1.25052e-07
-1.03043e-07
-8.63626e-08
-7.09528e-08
-5.50177e-08
-4.23523e-08
-3.8514e-08
-2.63606e-08
-1.7197e-08
-2.34167e-08
-1.22355e-08
-2.81192e-09
-1.53277e-08
-4.61268e-09
5.18503e-09
-1.0863e-08
-2.05191e-10
9.05788e-09
-8.18383e-09
2.59889e-09
1.00472e-08
-6.45344e-09
4.56701e-09
8.91444e-09
-5.2649e-09
6.03175e-09
6.21598e-09
-4.43241e-09
7.12119e-09
2.44066e-09
-3.87325e-09
7.87514e-09
-1.9436e-09
-3.55149e-09
8.29457e-09
-6.48121e-09
-3.44629e-09
8.38085e-09
-1.07458e-08
-3.53615e-09
8.15162e-09
-1.43686e-08
-3.79197e-09
7.64637e-09
-1.70653e-08
-4.17521e-09
6.92695e-09
-1.86531e-08
-4.64e-09
6.06822e-09
-1.90607e-08
-5.13812e-09
5.15289e-09
-1.83275e-08
-5.62149e-09
4.2568e-09
-1.65893e-08
-6.04329e-09
3.4485e-09
-1.40634e-08
-6.35666e-09
2.77943e-09
-1.10339e-08
-6.51028e-09
2.27937e-09
-7.83217e-09
-6.43729e-09
1.95001e-09
-4.81421e-09
-6.04424e-09
1.75471e-09
-2.32753e-09
-5.20018e-09
1.60142e-09
-6.59328e-10
-3.72467e-09
1.31671e-09
-1.49733e-09
6.67975e-10
-4.44671e-07
-3.69474e-07
-4.4467e-07
-3.03913e-07
-3.3877e-07
-2.56292e-07
-2.13561e-07
-2.29122e-07
-1.62581e-07
-1.26049e-07
-1.2696e-07
-8.5605e-08
-7.08609e-08
-8.03152e-08
-4.58254e-08
-3.53682e-08
-5.1721e-08
-2.22856e-08
-1.30144e-08
-3.64356e-08
-9.33485e-09
8.2797e-10
-2.74733e-08
-1.69666e-09
8.89849e-09
-2.20636e-08
3.1301e-09
1.28023e-08
-1.85581e-08
6.47048e-09
1.35271e-08
-1.61453e-08
8.96705e-09
1.17655e-08
-1.44084e-08
1.09052e-08
8.10169e-09
-1.31515e-08
1.23829e-08
3.09884e-09
-1.22872e-08
1.34168e-08
-2.66701e-09
-1.17783e-08
1.39927e-08
-8.61967e-09
-1.15995e-08
1.41059e-08
-1.42136e-08
-1.17189e-08
1.37766e-08
-1.89726e-08
-1.209e-08
1.3057e-08
-2.25309e-08
-1.26476e-08
1.20307e-08
-2.46539e-08
-1.33159e-08
1.07989e-08
-2.52541e-08
-1.40115e-08
9.47369e-09
-2.43816e-08
-1.46509e-08
8.15695e-09
-2.2213e-08
-1.51513e-08
6.93937e-09
-1.90252e-08
-1.54275e-08
5.88303e-09
-1.51727e-08
-1.53835e-08
5.02077e-09
-1.10594e-08
-1.48969e-08
4.34625e-09
-7.1036e-09
-1.38023e-08
3.80228e-09
-3.70183e-09
-1.1865e-08
3.26309e-09
-1.19861e-09
-8.73599e-09
2.50811e-09
-3.90301e-09
1.20709e-09
-8.83662e-08
-1.92742e-07
-8.83656e-08
-1.2351e-07
-1.96418e-07
-1.07208e-07
-1.08668e-07
-1.5755e-07
-8.64145e-08
-7.39912e-08
-1.09505e-07
-5.21313e-08
-4.42712e-08
-8.05471e-08
-2.94882e-08
-2.11646e-08
-6.0651e-08
-1.41765e-08
-4.66068e-09
-4.8456e-08
-4.48353e-09
6.47504e-09
-4.05435e-08
1.93445e-09
1.32412e-08
-3.52808e-08
6.45105e-09
1.63875e-08
-3.15759e-08
9.87151e-09
1.64844e-08
-2.8844e-08
1.26019e-08
1.40366e-08
-2.67735e-08
1.4813e-08
9.56379e-09
-2.52198e-08
1.65411e-08
3.63592e-09
-2.41249e-08
1.77656e-08
-3.12464e-09
-2.34662e-08
1.84485e-08
-1.00745e-08
-2.32231e-08
1.85735e-08
-1.65954e-08
-2.33585e-08
1.81605e-08
-2.2145e-08
-2.3811e-08
1.72706e-08
-2.63045e-08
-2.44919e-08
1.60039e-08
-2.881e-08
-2.52936e-08
1.44831e-08
-2.95637e-08
-2.60983e-08
1.28405e-08
-2.86282e-08
-2.67865e-08
1.12e-08
-2.62045e-08
-2.72395e-08
9.6645e-09
-2.26059e-08
-2.73307e-08
8.3046e-09
-1.8224e-08
-2.69195e-08
7.15415e-09
-1.34961e-08
-2.58255e-08
6.20075e-09
-8.87053e-09
-2.3803e-08
5.37518e-09
-4.77278e-09
-2.04941e-08
4.53132e-09
-1.61393e-09
-1.53123e-08
3.41751e-09
-7.14092e-09
1.62399e-09
-4.72318e-08
-9.82797e-08
-4.72311e-08
-6.39108e-08
-1.23724e-07
-5.60143e-08
-5.83989e-08
-1.16936e-07
-4.61264e-08
-4.13492e-08
-9.69218e-08
-2.96326e-08
-2.3858e-08
-8.13753e-08
-1.6663e-08
-8.47672e-09
-6.91404e-08
-6.89179e-09
3.56083e-09
-6.05924e-08
9.88894e-11
1.2174e-08
-5.44304e-08
5.27374e-09
1.74821e-08
-4.99117e-08
9.32284e-09
1.9697e-08
-4.64538e-08
1.26629e-08
1.90785e-08
-4.3723e-08
1.54975e-08
1.59658e-08
-4.15448e-08
1.7884e-08
1.08026e-08
-3.98509e-08
1.97943e-08
4.14125e-09
-3.86264e-08
2.11629e-08
-3.37576e-09
-3.78745e-08
2.19253e-08
-1.10662e-08
-3.75846e-08
2.20519e-08
-1.8265e-08
-3.77189e-08
2.15591e-08
-2.43855e-08
-3.82057e-08
2.05153e-08
-2.8976e-08
-3.89372e-08
1.90359e-08
-3.17543e-08
-3.97788e-08
1.72634e-08
-3.26201e-08
-4.0584e-08
1.53516e-08
-3.16458e-08
-4.12012e-08
1.34404e-08
-2.9053e-08
-4.14755e-08
1.16432e-08
-2.51763e-08
-4.12466e-08
1.00393e-08
-2.04289e-08
-4.03296e-08
8.66274e-09
-1.52663e-08
-3.84855e-08
7.49745e-09
-1.01527e-08
-3.53828e-08
6.46613e-09
-5.5408e-09
-3.05139e-08
5.4079e-09
-1.9037e-09
-2.29974e-08
4.04796e-09
-1.09609e-08
1.91628e-09
-1.97419e-08
-5.87966e-08
-1.97412e-08
-2.84846e-08
-8.91684e-08
-2.58131e-08
-2.73641e-08
-9.57968e-08
-2.22596e-08
-1.88942e-08
-9.082e-08
-1.45717e-08
-8.38128e-09
-8.45472e-08
-7.34096e-09
1.97381e-09
-7.83164e-08
-1.17906e-09
1.07359e-08
-7.31903e-08
3.83587e-09
1.72714e-08
-6.89851e-08
8.01912e-09
2.12549e-08
-6.55384e-08
1.16432e-08
2.2574e-08
-6.26486e-08
1.48758e-08
2.12775e-08
-6.01969e-08
1.77704e-08
1.75761e-08
-5.81355e-08
2.02922e-08
1.18452e-08
-5.64718e-08
2.23517e-08
4.61476e-09
-5.52369e-08
2.3841e-08
-3.46687e-09
-5.44604e-08
2.46675e-08
-1.16956e-08
-5.41439e-08
2.47881e-08
-1.9378e-08
-5.42528e-08
2.42163e-08
-2.58971e-08
-5.47111e-08
2.30244e-08
-3.07812e-08
-5.53975e-08
2.13443e-08
-3.37386e-08
-5.61603e-08
1.93389e-08
-3.46717e-08
-5.6833e-08
1.71822e-08
-3.3664e-08
-5.72376e-08
1.50286e-08
-3.09524e-08
-5.71957e-08
1.30087e-08
-2.6887e-08
-5.65155e-08
1.12035e-08
-2.18937e-08
-5.49716e-08
9.64878e-09
-1.64372e-08
-5.22676e-08
8.3255e-09
-1.09935e-08
-4.79774e-08
7.151e-09
-6.03525e-09
-4.14263e-08
5.95409e-09
-2.0846e-09
-3.13888e-08
4.44078e-09
-1.51453e-08
2.09979e-09
-8.22323e-09
-4.23508e-08
-8.22258e-09
-1.20637e-08
-7.41244e-08
-1.12035e-08
-1.08881e-08
-8.74423e-08
-9.53011e-09
-5.38673e-09
-9.07592e-08
-5.56219e-09
1.89757e-09
-9.05481e-08
-1.28331e-09
9.47393e-09
-8.87014e-08
2.80866e-09
1.61574e-08
-8.6444e-08
6.57029e-09
2.12179e-08
-8.4114e-08
1.00684e-08
2.4177e-08
-8.18758e-08
1.33783e-08
2.47682e-08
-7.97653e-08
1.65255e-08
2.29212e-08
-7.78171e-08
1.94673e-08
1.87642e-08
-7.6079e-08
2.21005e-08
1.26244e-08
-7.46154e-08
2.42835e-08
5.00619e-09
-7.34935e-08
2.58748e-08
-3.44147e-09
-7.27663e-08
2.67536e-08
-1.20067e-08
-7.24426e-08
2.68639e-08
-1.99823e-08
-7.24932e-08
2.6216e-08
-2.67341e-08
-7.28453e-08
2.4886e-08
-3.17809e-08
-7.33735e-08
2.30229e-08
-3.48273e-08
-7.39197e-08
2.08058e-08
-3.57831e-08
-7.43064e-08
1.84293e-08
-3.47428e-08
-7.43458e-08
1.60679e-08
-3.19566e-08
-7.38416e-08
1.38597e-08
-2.77839e-08
-7.25803e-08
1.18921e-08
-2.26574e-08
-7.03002e-08
1.02021e-08
-1.70446e-08
-6.66473e-08
8.767e-09
-1.14258e-08
-6.10961e-08
7.49985e-09
-6.2855e-09
-5.27905e-08
6.22392e-09
-2.17337e-09
-4.01343e-08
4.63339e-09
-1.95093e-08
2.19066e-09
-2.95181e-09
-3.64477e-08
-2.95131e-09
-3.68517e-09
-6.95535e-08
-3.83756e-09
-1.7597e-09
-8.66832e-08
-2.68454e-09
2.69648e-09
-9.48771e-08
-3.38256e-10
8.41908e-09
-9.8703e-08
2.43227e-09
1.44158e-08
-1.00063e-07
5.36441e-09
1.97715e-08
-1.00159e-07
8.35954e-09
2.38075e-08
-9.95558e-08
1.14058e-08
2.60121e-08
-9.85713e-08
1.4491e-08
2.6064e-08
-9.73834e-08
1.75663e-08
2.38305e-08
-9.61157e-08
2.05321e-08
1.93899e-08
-9.48804e-08
2.3242e-08
1.30331e-08
-9.37741e-08
2.55155e-08
5.24495e-09
-9.28852e-08
2.71799e-08
-3.3374e-09
-9.22751e-08
2.80912e-08
-1.20087e-08
-9.19606e-08
2.81893e-08
-2.00645e-08
-9.19175e-08
2.74801e-08
-2.68671e-08
-9.20806e-08
2.6038e-08
-3.19364e-08
-9.23294e-08
2.40251e-08
-3.49797e-08
-9.25158e-08
2.16395e-08
-3.59168e-08
-9.24631e-08
1.90937e-08
-3.48532e-08
-9.19839e-08
1.65745e-08
-3.20454e-08
-9.08767e-08
1.42273e-08
-2.78578e-08
-8.89133e-08
1.21454e-08
-2.27222e-08
-8.58024e-08
1.03667e-08
-1.71012e-08
-8.11349e-08
8.86662e-09
-1.14689e-08
-7.42828e-08
7.55433e-09
-6.31003e-09
-6.42001e-08
6.25075e-09
-2.1806e-09
-4.89112e-08
4.64749e-09
-2.3889e-08
2.19915e-09
-5.39995e-10
-3.53679e-08
-5.39794e-10
4.38159e-10
-7.03378e-08
-1.9383e-10
3.02366e-09
-9.01369e-08
8.68161e-10
7.13298e-09
-1.01492e-07
2.50526e-09
1.20609e-08
-1.08136e-07
4.5052e-09
1.71161e-08
-1.11901e-07
6.78335e-09
2.1597e-08
-1.13938e-07
9.29808e-09
2.49114e-08
-1.14894e-07
1.20234e-08
2.65795e-08
-1.1516e-07
1.49202e-08
2.6268e-08
-1.14977e-07
1.7905e-08
2.38274e-08
-1.1452e-07
2.08451e-08
1.93018e-08
-1.13922e-07
2.35673e-08
1.29581e-08
-1.13294e-07
2.58635e-08
5.25607e-09
-1.1273e-07
2.75465e-08
-3.18696e-09
-1.12294e-07
2.84619e-08
-1.16929e-08
-1.12001e-07
2.85461e-08
-1.95809e-08
-1.11832e-07
2.78025e-08
-2.62284e-08
-1.11734e-07
2.63007e-08
-3.1165e-08
-1.11604e-07
2.42112e-08
-3.41097e-08
-1.11307e-07
2.17356e-08
-3.49914e-08
-1.10679e-07
1.90972e-08
-3.39226e-08
-1.0955e-07
1.64974e-08
-3.1161e-08
-1.07725e-07
1.4087e-08
-2.70696e-08
-1.04966e-07
1.19612e-08
-2.20669e-08
-1.00959e-07
1.01535e-08
-1.66005e-08
-9.52407e-08
8.63934e-09
-1.11274e-08
-8.70881e-08
7.33215e-09
-6.11697e-09
-7.52624e-08
6.05195e-09
-2.11063e-09
-5.74125e-08
4.49491e-09
-2.81291e-08
2.12946e-09
5.33909e-10
-3.64355e-08
5.33685e-10
2.3539e-09
-7.3661e-08
1.50327e-09
5.27513e-09
-9.5608e-08
2.54996e-09
9.1576e-09
-1.09218e-07
3.8437e-09
1.35392e-08
-1.17936e-07
5.41796e-09
1.79133e-08
-1.23564e-07
7.28937e-09
2.17356e-08
-1.27222e-07
9.46151e-09
2.44969e-08
-1.29572e-07
1.19167e-08
2.57729e-08
-1.3104e-07
1.46041e-08
2.52505e-08
-1.31888e-07
1.74339e-08
2.27726e-08
-1.32301e-07
2.02588e-08
1.83744e-08
-1.32416e-07
2.2892e-08
1.22998e-08
-1.32339e-07
2.51198e-08
4.97643e-09
-1.32159e-07
2.67528e-08
-3.01586e-09
-1.31929e-07
2.76276e-08
-1.10489e-08
-1.31665e-07
2.76976e-08
-1.84912e-08
-1.31354e-07
2.69642e-08
-2.47519e-08
-1.30951e-07
2.54777e-08
-2.93866e-08
-1.30374e-07
2.3405e-08
-3.21322e-08
-1.29511e-07
2.09494e-08
-3.29253e-08
-1.28226e-07
1.83401e-08
-3.1881e-08
-1.26365e-07
1.5771e-08
-2.92523e-08
-1.23751e-07
1.33967e-08
-2.53827e-08
-1.20147e-07
1.13112e-08
-2.06699e-08
-1.1522e-07
9.54891e-09
-1.55327e-08
-1.08465e-07
8.08697e-09
-1.04011e-08
-9.90554e-08
6.83581e-09
-5.71019e-09
-8.55812e-08
5.62785e-09
-1.96627e-09
-6.53364e-08
4.18004e-09
-3.20798e-08
1.98441e-09
9.40798e-10
-3.83161e-08
9.3984e-10
3.02943e-09
-7.78848e-08
2.13517e-09
5.94023e-09
-1.0165e-07
3.13084e-09
9.48726e-09
-1.1697e-07
4.205e-09
1.33318e-08
-1.27268e-07
5.48811e-09
1.7084e-08
-1.34368e-07
7.05123e-09
2.031e-08
-1.3937e-07
8.92154e-09
2.25932e-08
-1.42943e-07
1.10879e-08
2.35645e-08
-1.45515e-07
1.35037e-08
2.29459e-08
-1.47347e-07
1.60773e-08
2.05954e-08
-1.48613e-07
1.86621e-08
1.65417e-08
-1.49441e-07
2.1079e-08
1.10034e-08
-1.4992e-07
2.3119e-08
4.3677e-09
-1.50129e-07
2.46058e-08
-2.84359e-09
-1.50108e-07
2.53897e-08
-1.00772e-08
-1.49877e-07
2.5445e-08
-1.67763e-08
-1.49424e-07
2.47692e-08
-2.2403e-08
-1.48716e-07
2.33923e-08
-2.65586e-08
-1.47687e-07
2.14684e-08
-2.90021e-08
-1.46244e-07
1.91765e-08
-2.9675e-08
-1.44286e-07
1.67338e-08
-2.86927e-08
-1.41679e-07
1.43315e-08
-2.629e-08
-1.38271e-07
1.21176e-08
-2.27808e-08
-1.33834e-07
1.01784e-08
-1.85253e-08
-1.28023e-07
8.54737e-09
-1.39032e-08
-1.20291e-07
7.20444e-09
-9.29491e-09
-1.09735e-07
6.07085e-09
-5.09294e-09
-9.47748e-08
4.99169e-09
-1.74975e-09
-7.23882e-08
3.70865e-09
-3.55959e-08
1.76638e-09
9.88391e-10
-4.02911e-08
9.86655e-10
2.96027e-09
-8.19985e-08
2.14178e-09
5.55989e-09
-1.07263e-07
3.01408e-09
8.59149e-09
-1.23894e-07
3.8923e-09
1.17978e-08
-1.35403e-07
4.92865e-09
1.48742e-08
-1.43649e-07
6.20518e-09
1.74857e-08
-1.49737e-07
7.75566e-09
1.93017e-08
-1.54339e-07
9.57998e-09
2.00133e-08
-1.57862e-07
1.16354e-08
1.93941e-08
-1.60565e-07
1.38376e-08
1.73242e-08
-1.62599e-07
1.6056e-08
1.38205e-08
-1.64067e-07
1.81293e-08
9.08151e-09
-1.65049e-07
1.98681e-08
3.43071e-09
-1.65603e-07
2.11244e-08
-2.68325e-09
-1.65769e-07
2.17748e-08
-8.80391e-09
-1.65571e-07
2.18149e-08
-1.44699e-08
-1.65003e-07
2.12448e-08
-1.92258e-08
-1.64024e-07
2.00637e-08
-2.27243e-08
-1.62586e-07
1.83973e-08
-2.47555e-08
-1.60616e-07
1.64039e-08
-2.5283e-08
-1.58035e-07
1.4276e-08
-2.44005e-08
-1.54746e-07
1.21845e-08
-2.23156e-08
-1.50615e-07
1.02588e-08
-1.93025e-08
-1.45423e-07
8.57536e-09
-1.56693e-08
-1.38824e-07
7.16728e-09
-1.17357e-08
-1.30239e-07
6.01418e-09
-7.8294e-09
-1.18691e-07
5.0506e-09
-4.27988e-09
-1.02472e-07
4.14801e-09
-1.46411e-09
-7.82911e-08
3.0871e-09
-3.85386e-08
1.47859e-09
8.29731e-10
-4.19481e-08
8.27308e-10
2.41962e-09
-8.53551e-08
1.76672e-09
4.45978e-09
-1.1175e-07
2.44644e-09
6.79066e-09
-1.29333e-07
3.10857e-09
9.21734e-09
-1.41719e-07
3.88867e-09
1.15246e-08
-1.50816e-07
4.8595e-09
1.34672e-08
-1.57729e-07
6.0494e-09
1.47941e-08
-1.63129e-07
7.46387e-09
1.52753e-08
-1.6741e-07
9.067e-09
1.47313e-08
-1.70811e-07
1.07897e-08
1.30685e-08
-1.73462e-07
1.25259e-08
1.03056e-08
-1.75442e-07
1.41379e-08
6.59712e-09
-1.76816e-07
1.54751e-08
2.19662e-09
-1.77632e-07
1.64295e-08
-2.5428e-09
-1.7794e-07
1.6911e-08
-7.27597e-09
-1.77772e-07
1.69345e-08
-1.16553e-08
-1.77122e-07
1.64988e-08
-1.53154e-08
-1.7595e-07
1.55857e-08
-1.79893e-08
-1.74199e-07
1.42869e-08
-1.95162e-08
-1.7181e-07
1.27202e-08
-1.98648e-08
-1.6873e-07
1.10431e-08
-1.91147e-08
-1.64886e-07
9.38954e-09
-1.74331e-08
-1.60162e-07
7.86586e-09
-1.50394e-08
-1.54358e-07
6.54159e-09
-1.21736e-08
-1.47129e-07
5.43919e-09
-9.09214e-09
-1.37865e-07
4.54416e-09
-6.04551e-09
-1.25546e-07
3.80827e-09
-3.28878e-09
-1.08359e-07
3.1302e-09
-1.11881e-09
-8.28002e-08
2.33916e-09
-4.07883e-08
1.13088e-09
5.45858e-10
-4.30354e-08
5.41454e-10
1.56803e-09
-8.75214e-08
1.14418e-09
2.86468e-09
-1.14618e-07
1.57156e-09
4.33192e-09
-1.32793e-07
1.99227e-09
5.85612e-09
-1.45739e-07
2.49648e-09
7.30128e-09
-1.55395e-07
3.13371e-09
8.51213e-09
-1.62869e-07
3.92984e-09
9.32567e-09
-1.68826e-07
4.88303e-09
9.59182e-09
-1.73646e-07
5.97027e-09
9.18789e-09
-1.77548e-07
7.14056e-09
8.0482e-09
-1.80641e-07
8.31836e-09
6.18255e-09
-1.82991e-07
9.4155e-09
3.68796e-09
-1.84648e-07
1.03268e-08
7.40128e-10
-1.85657e-07
1.09731e-08
-2.42453e-09
-1.86068e-07
1.12925e-08
-5.57131e-09
-1.85924e-07
1.12988e-08
-8.46259e-09
-1.85222e-07
1.09916e-08
-1.08569e-08
-1.8391e-07
1.03545e-08
-1.25727e-08
-1.8194e-07
9.45689e-09
-1.35047e-08
-1.79255e-07
8.37778e-09
-1.3639e-08
-1.7582e-07
7.22454e-09
-1.30396e-08
-1.71582e-07
6.09696e-09
-1.18247e-08
-1.66443e-07
5.06575e-09
-1.01457e-08
-1.60211e-07
4.17401e-09
-8.16996e-09
-1.52546e-07
3.44173e-09
-6.06704e-09
-1.42826e-07
2.85822e-09
-4.00501e-09
-1.29995e-07
2.3867e-09
-2.1601e-09
-1.12171e-07
1.96729e-09
-7.24155e-10
-8.57227e-08
1.48649e-09
-4.22462e-08
7.3373e-10
1.85609e-10
-4.34015e-08
1.80517e-10
5.18839e-10
-8.82227e-08
3.68074e-10
9.44571e-10
-1.15548e-07
5.0448e-10
1.43444e-09
-1.33941e-07
6.58548e-10
1.95661e-09
-1.47129e-07
8.67507e-10
2.46336e-09
-1.57053e-07
1.15164e-09
2.89246e-09
-1.64818e-07
1.51937e-09
3.17243e-09
-1.71073e-07
1.96691e-09
3.23595e-09
-1.76194e-07
2.48448e-09
3.01806e-09
-1.80381e-07
3.0516e-09
2.47857e-09
-1.83733e-07
3.63226e-09
1.61913e-09
-1.86309e-07
4.17711e-09
4.73571e-10
-1.88135e-07
4.63246e-09
-8.79915e-10
-1.89265e-07
4.96121e-09
-2.32705e-09
-1.89742e-07
5.12142e-09
-3.7461e-09
-1.89615e-07
5.10987e-09
-5.01669e-09
-1.88881e-07
4.92889e-09
-6.01914e-09
-1.87487e-07
4.57975e-09
-6.67671e-09
-1.85392e-07
4.10937e-09
-6.95077e-09
-1.82544e-07
3.5623e-09
-6.84721e-09
-1.78922e-07
2.99821e-09
-6.41272e-09
-1.74474e-07
2.45768e-09
-5.71207e-09
-1.6912e-07
1.97659e-09
-4.81485e-09
-1.62684e-07
1.57586e-09
-3.80999e-09
-1.54808e-07
1.25734e-09
-2.77266e-09
-1.44882e-07
1.01878e-09
-1.78853e-09
-1.31825e-07
8.45648e-10
-9.33235e-10
-1.13737e-07
7.10616e-10
-2.96926e-10
-8.69226e-08
5.63658e-10
-4.28474e-08
3.04336e-10
-2.14686e-10
-4.2966e-08
-2.2082e-10
-6.32235e-10
-8.7315e-08
-4.90144e-10
-1.15472e-09
-1.14357e-07
-6.68987e-10
-1.70828e-09
-1.32593e-07
-7.94491e-10
-2.24152e-09
-1.45706e-07
-8.89475e-10
-2.71205e-09
-1.55614e-07
-9.68408e-10
-3.08801e-09
-1.63402e-07
-1.03944e-09
-3.3477e-09
-1.6971e-07
-1.10325e-09
-3.47992e-09
-1.74902e-07
-1.16012e-09
-3.48413e-09
-1.7917e-07
-1.20675e-09
-3.37042e-09
-1.82611e-07
-1.23578e-09
-3.16451e-09
-1.85277e-07
-1.23758e-09
-2.8948e-09
-1.87191e-07
-1.21351e-09
-2.58334e-09
-1.88395e-07
-1.18169e-09
-2.24451e-09
-1.88916e-07
-1.16461e-09
-1.86912e-09
-1.88799e-07
-1.19132e-09
-1.45116e-09
-1.88042e-07
-1.25675e-09
-1.00305e-09
-1.86601e-07
-1.33385e-09
-5.56601e-10
-1.84451e-07
-1.38739e-09
-1.41381e-10
-1.81556e-07
-1.40266e-09
2.04688e-10
-1.77893e-07
-1.37508e-09
4.68231e-10
-1.73426e-07
-1.31139e-09
6.40939e-10
-1.68068e-07
-1.22414e-09
7.17246e-10
-1.61639e-07
-1.121e-09
7.14501e-10
-1.53799e-07
-1.00637e-09
6.39539e-10
-1.43923e-07
-8.83679e-10
5.11285e-10
-1.30949e-07
-7.47971e-10
3.38592e-10
-1.12976e-07
-5.88359e-10
1.45989e-10
-8.63405e-08
-3.8953e-10
-4.25612e-08
-1.40241e-10
-6.27217e-10
-4.17051e-08
-6.33745e-10
-1.81872e-09
-8.47508e-08
-1.37268e-09
-3.30217e-09
-1.11002e-07
-1.87091e-09
-4.91311e-09
-1.28706e-07
-2.27646e-09
-6.50666e-09
-1.41439e-07
-2.67315e-09
-7.95675e-09
-1.51054e-07
-3.11042e-09
-9.13778e-09
-1.58603e-07
-3.61801e-09
-9.9378e-09
-1.64709e-07
-4.20068e-09
-1.02643e-08
-1.69729e-07
-4.84624e-09
-1.00561e-08
-1.73858e-07
-5.52073e-09
-9.29668e-09
-1.77196e-07
-6.175e-09
-8.02189e-09
-1.79794e-07
-6.75793e-09
-6.32415e-09
-1.81676e-07
-7.21263e-09
-4.32609e-09
-1.82874e-07
-7.51814e-09
-2.17133e-09
-1.83401e-07
-7.67017e-09
2.57764e-11
-1.8329e-07
-7.70639e-09
2.14546e-09
-1.82537e-07
-7.62415e-09
4.04631e-09
-1.81118e-07
-7.38453e-09
5.59119e-09
-1.7902e-07
-6.97504e-09
6.67876e-09
-1.76224e-07
-6.41923e-09
7.26037e-09
-1.72703e-07
-5.77121e-09
7.34102e-09
-1.68422e-07
-5.0854e-09
6.97047e-09
-1.63284e-07
-4.41412e-09
6.22949e-09
-1.57103e-07
-3.79584e-09
5.21727e-09
-1.4954e-07
-3.24713e-09
4.0379e-09
-1.39978e-07
-2.76582e-09
2.79558e-09
-1.27383e-07
-2.32368e-09
1.60181e-09
-1.0991e-07
-1.87259e-09
5.85335e-10
-8.39906e-08
-1.33338e-09
-4.13953e-08
-5.80583e-10
-1.02703e-09
-3.9643e-08
-1.03497e-09
-2.96696e-09
-8.05831e-08
-2.22777e-09
-5.38028e-09
-1.05553e-07
-3.03591e-09
-8.00496e-09
-1.22375e-07
-3.70619e-09
-1.06189e-08
-1.34439e-07
-4.38657e-09
-1.30044e-08
-1.43505e-07
-5.16299e-09
-1.49548e-08
-1.50576e-07
-6.0765e-09
-1.62719e-08
-1.56247e-07
-7.14477e-09
-1.67884e-08
-1.60867e-07
-8.34573e-09
-1.63874e-08
-1.64632e-07
-9.62677e-09
-1.50181e-08
-1.67659e-07
-1.09056e-08
-1.27282e-08
-1.70008e-07
-1.20758e-08
-9.65714e-09
-1.71717e-07
-1.30298e-08
-6.02466e-09
-1.72808e-07
-1.36985e-08
-2.10112e-09
-1.73293e-07
-1.40316e-08
1.86863e-09
-1.73184e-07
-1.40761e-08
5.634e-09
-1.72478e-07
-1.38243e-08
8.92165e-09
-1.71176e-07
-1.32291e-08
1.14993e-08
-1.69271e-07
-1.23267e-08
1.32095e-08
-1.66745e-07
-1.11899e-08
1.39956e-08
-1.63564e-07
-9.92491e-09
1.38895e-08
-1.59678e-07
-8.63714e-09
1.29953e-08
-1.54975e-07
-7.41446e-09
1.14707e-08
-1.49264e-07
-6.31402e-09
9.49433e-09
-1.42202e-07
-5.36148e-09
7.26231e-09
-1.33205e-07
-4.54099e-09
4.96593e-09
-1.21274e-07
-3.81204e-09
2.79986e-09
-1.04655e-07
-3.08851e-09
1.00317e-09
-7.99676e-08
-2.22628e-09
-3.93933e-08
-9.98746e-10
-1.39423e-09
-3.68467e-08
-1.40211e-09
-4.01809e-09
-7.49495e-08
-3.00968e-09
-7.28216e-09
-9.81915e-08
-4.09768e-09
-1.0833e-08
-1.13816e-07
-5.00755e-09
-1.4373e-08
-1.2496e-07
-5.93891e-09
-1.76094e-08
-1.33257e-07
-7.01164e-09
-2.02586e-08
-1.3964e-07
-8.28691e-09
-2.2048e-08
-1.44674e-07
-9.78408e-09
-2.27455e-08
-1.48687e-07
-1.1482e-08
-2.2174e-08
-1.51892e-07
-1.33112e-08
-2.02608e-08
-1.54415e-07
-1.51578e-08
-1.70511e-08
-1.56336e-07
-1.68821e-08
-1.27308e-08
-1.5771e-07
-1.83272e-08
-7.59605e-09
-1.58575e-07
-1.93684e-08
-2.03044e-09
-1.5895e-07
-1.99087e-08
3.58315e-09
-1.5884e-07
-1.99567e-08
8.85756e-09
-1.58251e-07
-1.95015e-08
1.3399e-08
-1.57183e-07
-1.85343e-08
1.69004e-08
-1.55624e-07
-1.71485e-08
1.91606e-08
-1.53544e-07
-1.54606e-08
2.01172e-08
-1.50893e-07
-1.36278e-08
1.98279e-08
-1.47593e-07
-1.17957e-08
1.84522e-08
-1.43519e-07
-1.00802e-08
1.62137e-08
-1.38471e-07
-8.55456e-09
1.33673e-08
-1.32113e-07
-7.24273e-09
1.01807e-08
-1.23891e-07
-6.12735e-09
6.92866e-09
-1.12876e-07
-5.14622e-09
3.88642e-09
-9.74339e-08
-4.17924e-09
1.38027e-09
-7.44318e-08
-3.02971e-09
-3.66374e-08
-1.37562e-09
-1.71193e-09
-3.34151e-08
-1.71967e-09
-4.92631e-09
-6.80481e-08
-3.68706e-09
-8.91929e-09
-8.91841e-08
-5.01437e-09
-1.32648e-08
-1.03349e-07
-6.12162e-09
-1.75949e-08
-1.13376e-07
-7.25375e-09
-2.15559e-08
-1.20735e-07
-8.56121e-09
-2.47948e-08
-1.26279e-07
-1.01223e-08
-2.69824e-08
-1.30524e-07
-1.19617e-08
-2.7826e-08
-1.33794e-07
-1.40494e-08
-2.71098e-08
-1.36301e-07
-1.63074e-08
-2.47342e-08
-1.38185e-07
-1.86055e-08
-2.07437e-08
-1.39552e-07
-2.07747e-08
-1.53563e-08
-1.40482e-07
-2.26154e-08
-8.93219e-09
-1.41038e-07
-2.39606e-08
-1.95646e-09
-1.41257e-07
-2.4668e-08
5.06645e-09
-1.41152e-07
-2.47115e-08
1.16274e-08
-1.40726e-07
-2.40861e-08
1.72378e-08
-1.3998e-07
-2.28142e-08
2.15181e-08
-1.38875e-07
-2.10296e-08
2.42368e-08
-1.37365e-07
-1.88977e-08
2.53321e-08
-1.3537e-07
-1.66179e-08
2.48864e-08
-1.32786e-07
-1.4361e-08
2.31033e-08
-1.29476e-07
-1.22601e-08
2.02578e-08
-1.25229e-07
-1.03967e-08
1.66688e-08
-1.19721e-07
-8.80276e-09
1.26732e-08
-1.12441e-07
-7.45484e-09
8.60557e-09
-1.02534e-07
-6.27395e-09
4.81224e-09
-8.85317e-08
-5.10884e-09
1.70338e-09
-6.76057e-08
-3.71714e-09
-3.32359e-08
-1.69818e-09
-1.96552e-09
-2.94765e-08
-1.97304e-09
-5.65098e-09
-6.01367e-08
-4.22585e-09
-1.02268e-08
-7.88695e-08
-5.73876e-09
-1.52014e-08
-9.13782e-08
-6.9963e-09
-2.01567e-08
-1.00142e-07
-8.27871e-09
-2.46858e-08
-1.06454e-07
-9.75217e-09
-2.83854e-08
-1.11072e-07
-1.15073e-08
-3.08764e-08
-1.14461e-07
-1.35729e-08
-3.18241e-08
-1.16928e-07
-1.59186e-08
-3.09826e-08
-1.18679e-07
-1.84635e-08
-2.82335e-08
-1.19874e-07
-2.10603e-08
-2.36253e-08
-1.2064e-07
-2.35204e-08
-1.73972e-08
-1.21086e-07
-2.56239e-08
-9.96256e-09
-1.21301e-07
-2.71717e-08
-1.87829e-09
-1.21346e-07
-2.79953e-08
6.25203e-09
-1.21248e-07
-2.80344e-08
1.38214e-08
-1.21011e-07
-2.72841e-08
2.02625e-08
-1.20618e-07
-2.58027e-08
2.51529e-08
-1.20012e-07
-2.37532e-08
2.82352e-08
-1.19118e-07
-2.13299e-08
2.94444e-08
-1.17827e-07
-1.87528e-08
2.88818e-08
-1.16012e-07
-1.62121e-08
2.67815e-08
-1.13518e-07
-1.38575e-08
2.34603e-08
-1.10135e-07
-1.17725e-08
1.92875e-08
-1.05559e-07
-9.98864e-09
1.46489e-08
-9.9324e-08
-8.47812e-09
9.93628e-09
-9.06722e-08
-7.14941e-09
5.5488e-09
-7.83089e-08
-5.83528e-09
1.95925e-09
-5.97578e-08
-4.2584e-09
-2.93232e-08
-1.95342e-09
-2.1475e-09
-2.51746e-08
-2.1544e-09
-6.16911e-09
-5.1505e-08
-4.61012e-09
-1.1157e-08
-6.76283e-08
-6.2534e-09
-1.65783e-08
-7.83496e-08
-7.6072e-09
-2.19759e-08
-8.57691e-08
-8.97541e-09
-2.69018e-08
-9.09876e-08
-1.05403e-08
-3.09192e-08
-9.46578e-08
-1.23969e-08
-3.36112e-08
-9.71947e-08
-1.45738e-08
-3.46181e-08
-9.88762e-08
-1.70449e-08
-3.36723e-08
-9.99059e-08
-1.97191e-08
-3.06491e-08
-1.00452e-07
-2.24449e-08
-2.56006e-08
-1.00656e-07
-2.5032e-08
-1.87839e-08
-1.00655e-07
-2.7248e-08
-1.06463e-08
-1.00556e-07
-2.88825e-08
-1.79503e-09
-1.00443e-07
-2.97546e-08
7.09954e-09
-1.00354e-07
-2.97886e-08
1.53649e-08
-1.00293e-07
-2.89835e-08
2.23851e-08
-1.00231e-07
-2.74072e-08
2.77041e-08
-1.00094e-07
-2.52373e-08
3.10451e-08
-9.97743e-08
-2.26844e-08
3.23423e-08
-9.91455e-08
-1.99784e-08
3.17063e-08
-9.80646e-08
-1.73111e-08
2.93868e-08
-9.63635e-08
-1.48351e-08
2.57338e-08
-9.38391e-08
-1.26429e-08
2.11475e-08
-9.02109e-08
-1.07622e-08
1.60528e-08
-8.50651e-08
-9.16427e-09
1.08814e-08
-7.77485e-08
-7.75218e-09
6.07098e-09
-6.7154e-08
-6.34453e-09
2.14132e-09
-5.11871e-08
-4.64097e-09
-2.50467e-08
-2.13521e-09
-2.25138e-09
-2.06657e-08
-2.25754e-09
-6.46195e-09
-4.24684e-08
-4.82599e-09
-1.16845e-08
-5.58722e-08
-6.53351e-09
-1.73613e-08
-6.47449e-08
-7.92789e-09
-2.3014e-08
-7.07919e-08
-9.32444e-09
-2.81703e-08
-7.49215e-08
-1.09098e-08
-3.23651e-08
-7.76813e-08
-1.27816e-08
-3.51625e-08
-7.94271e-08
-1.49702e-08
-3.61877e-08
-8.04082e-08
-1.74428e-08
-3.51658e-08
-8.08193e-08
-2.01085e-08
-3.19726e-08
-8.08232e-08
-2.28218e-08
-2.66623e-08
-8.05758e-08
-2.53907e-08
-1.95104e-08
-8.02181e-08
-2.75888e-08
-1.09813e-08
-7.9875e-08
-2.92103e-08
-1.70526e-09
-7.96404e-08
-3.00787e-08
7.61147e-09
-7.9563e-08
-3.01075e-08
1.62601e-08
-7.96469e-08
-2.92949e-08
2.36048e-08
-7.98518e-08
-2.7724e-08
2.91661e-08
-8.00877e-08
-2.55674e-08
3.26617e-08
-8.024e-08
-2.30298e-08
3.40172e-08
-8.01653e-08
-2.03358e-08
3.33446e-08
-7.97133e-08
-1.76787e-08
3.0903e-08
-7.87177e-08
-1.52042e-08
2.70543e-08
-7.69862e-08
-1.30042e-08
2.22232e-08
-7.42674e-08
-1.11124e-08
1.68595e-08
-7.02034e-08
-9.49805e-09
1.14194e-08
-6.4245e-08
-8.06343e-09
6.36686e-09
-5.54827e-08
-6.61879e-09
2.24424e-09
-4.22113e-08
-4.85325e-09
-2.05641e-08
-2.23833e-09
-2.27123e-09
-1.61182e-08
-2.27626e-09
-6.51817e-09
-3.33592e-08
-4.86225e-09
-1.17939e-08
-4.40266e-08
-6.56976e-09
-1.75392e-08
-5.10513e-08
-7.94842e-09
-2.32669e-08
-5.57482e-08
-9.31599e-09
-2.84926e-08
-5.88367e-08
-1.0859e-08
-3.27391e-08
-6.07625e-08
-1.26724e-08
-3.55609e-08
-6.1821e-08
-1.47843e-08
-3.65772e-08
-6.22309e-08
-1.7161e-08
-3.55153e-08
-6.21656e-08
-1.97156e-08
-3.22555e-08
-6.17785e-08
-2.23045e-08
-2.68642e-08
-6.12194e-08
-2.47477e-08
-1.96177e-08
-6.06295e-08
-2.68351e-08
-1.09875e-08
-6.01337e-08
-2.83715e-08
-1.60701e-09
-5.9829e-08
-2.91918e-08
7.81113e-09
-5.97651e-08
-2.9216e-08
1.65524e-08
-5.99454e-08
-2.84428e-08
2.3977e-08
-6.03268e-08
-2.69495e-08
2.96047e-08
-6.08175e-08
-2.4898e-08
3.31459e-08
-6.12981e-08
-2.24831e-08
3.4521e-08
-6.1628e-08
-1.99124e-08
3.38354e-08
-6.16605e-08
-1.73672e-08
3.13509e-08
-6.12424e-08
-1.49909e-08
2.74315e-08
-6.0196e-08
-1.28708e-08
2.2513e-08
-5.83077e-08
-1.10412e-08
1.70582e-08
-5.52755e-08
-9.47302e-09
1.15383e-08
-5.06547e-08
-8.07038e-09
6.42511e-09
-4.37232e-08
-6.64622e-09
2.2625e-09
-3.31627e-08
-4.88595e-09
-1.6044e-08
-2.2576e-09
-2.19937e-09
-1.1715e-08
-2.20377e-09
-6.32324e-09
-2.45343e-08
-4.70106e-09
-1.14672e-08
-3.25459e-08
-6.33676e-09
-1.70979e-08
-3.77796e-08
-7.64099e-09
-2.27327e-08
-4.11901e-08
-8.92331e-09
-2.78851e-08
-4.33185e-08
-1.03658e-08
-3.20754e-08
-4.45123e-08
-1.20598e-08
-3.4854e-08
-4.50133e-08
-1.4029e-08
-3.58487e-08
-4.49965e-08
-1.62397e-08
-3.47934e-08
-4.46122e-08
-1.86086e-08
-3.15769e-08
-4.39935e-08
-2.10015e-08
-2.62725e-08
-4.32732e-08
-2.32507e-08
-1.91563e-08
-4.25803e-08
-2.51653e-08
-1.06918e-08
-4.20271e-08
-2.65712e-08
-1.49657e-09
-4.17021e-08
-2.73222e-08
7.73335e-09
-4.16524e-08
-2.73426e-08
1.62999e-08
-4.18807e-08
-2.66313e-08
2.35806e-08
-4.23458e-08
-2.52617e-08
2.91024e-08
-4.29621e-08
-2.33773e-08
3.25783e-08
-4.36207e-08
-2.11533e-08
3.39242e-08
-4.41953e-08
-1.87786e-08
3.32388e-08
-4.45555e-08
-1.64195e-08
3.07726e-08
-4.45654e-08
-1.42108e-08
2.689e-08
-4.40775e-08
-1.22358e-08
2.20246e-08
-4.29137e-08
-1.05286e-08
1.66451e-08
-4.08317e-08
-9.06427e-09
1.12255e-08
-3.74839e-08
-7.75116e-09
6.23276e-09
-3.23244e-08
-6.40602e-09
2.18991e-09
-2.43973e-08
-4.72257e-09
-1.16673e-08
-2.18677e-09
-2.02426e-09
-7.66328e-09
-2.02748e-09
-5.85177e-09
-1.63908e-08
-4.31592e-09
-1.06791e-08
-2.19242e-08
-5.79435e-09
-1.60166e-08
-2.54862e-08
-6.95577e-09
-2.13988e-08
-2.77156e-08
-8.09235e-09
-2.6345e-08
-2.89957e-08
-9.37662e-09
-3.03785e-08
-2.95845e-08
-1.08942e-08
-3.30623e-08
-2.96639e-08
-1.26656e-08
-3.40315e-08
-2.93706e-08
-1.46567e-08
-3.3036e-08
-2.88199e-08
-1.67878e-08
-2.99748e-08
-2.81189e-08
-1.89357e-08
-2.49257e-08
-2.73743e-08
-2.0948e-08
-1.81554e-08
-2.66914e-08
-2.26591e-08
-1.01075e-08
-2.61622e-08
-2.39127e-08
-1.36821e-09
-2.58605e-08
-2.45809e-08
7.40243e-09
-2.58248e-08
-2.45982e-08
1.55427e-08
-2.60573e-08
-2.39637e-08
2.24618e-08
-2.65226e-08
-2.27423e-08
2.77089e-08
-2.71505e-08
-2.10586e-08
3.10065e-08
-2.78509e-08
-1.90673e-08
3.22676e-08
-2.85213e-08
-1.69351e-08
3.15799e-08
-2.90542e-08
-1.48136e-08
2.91841e-08
-2.93443e-08
-1.28253e-08
2.54316e-08
-2.92749e-08
-1.105e-08
2.0749e-08
-2.87095e-08
-9.52159e-09
1.56013e-08
-2.74653e-08
-8.21877e-09
1.04564e-08
-2.52837e-08
-7.05535e-09
5.76799e-09
-2.17782e-08
-5.85782e-09
2.01441e-09
-1.63067e-08
-4.33695e-09