/*--------------------------------*- C++ -*----------------------------------*\
| =========                 |                                                 |
| \\      /  F ield         | OpenFOAM: The Open Source CFD Toolbox           |
|  \\    /   O peration     | Version:  v1906                                 |
|   \\  /    A nd           | Web:      www.OpenFOAM.com                      |
|    \\/     M anipulation  |                                                 |
\*---------------------------------------------------------------------------*/
FoamFile
{
    version     2.0;
    format      ascii;
    class       volScalarField;
    location    "45.8/sphere";
    object      T;
}
// * * * * * * * * * * * * * * * * * * * * * * * * * * * * * * * * * * * * * //

dimensions      [0 0 0 1 0 0 0];


internalField   nonuniform List<scalar> 
304
(
474.814
474.842
474.84
474.856
474.814
474.81
474.812
474.842
474.812
474.961
474.961
474.856
474.839
474.959
474.959
474.885
474.851
474.883
474.811
474.84
474.857
474.812
474.843
474.961
474.96
474.886
474.857
474.959
474.959
474.911
474.808
474.883
474.91
474.845
474.813
474.858
474.886
474.819
474.817
474.885
474.911
474.846
474.811
474.845
474.798
474.801
474.814
474.814
474.816
474.849
474.814
474.814
474.849
474.816
474.801
474.815
474.819
474.816
474.85
474.843
474.843
474.857
474.857
474.887
474.886
474.912
474.813
474.857
474.843
474.887
474.857
474.912
474.887
474.815
474.818
474.85
474.816
474.811
474.811
474.845
474.809
474.855
474.805
474.838
474.883
474.91
474.85
474.882
474.841
474.839
474.808
474.911
474.885
474.883
474.852
474.847
474.813
474.81
474.796
474.809
474.809
474.844
474.809
474.844
474.811
474.809
474.795
474.815
474.812
474.813
474.848
474.842
474.855
474.887
474.841
474.857
474.886
474.912
474.813
474.887
474.856
474.857
474.842
474.912
474.886
474.816
474.813
474.848
474.814
474.856
474.842
474.886
474.842
474.887
474.857
474.912
474.812
474.886
474.843
474.886
474.842
474.912
474.857
474.884
474.807
474.851
474.856
474.911
474.838
474.883
474.841
474.852
474.808
474.911
474.856
474.884
474.839
474.812
474.809
474.845
474.81
474.883
474.81
474.839
474.883
474.91
474.839
474.856
474.852
474.839
474.809
474.91
474.883
474.856
474.839
474.844
474.808
474.809
474.812
474.814
474.849
474.818
474.857
474.886
474.912
474.812
474.841
474.856
474.886
474.84
474.912
474.885
474.841
474.809
474.885
474.853
474.847
474.813
474.814
474.887
474.858
474.912
474.816
474.859
474.844
474.888
474.842
474.912
474.858
474.856
474.814
474.886
474.843
474.911
474.839
474.883
474.843
474.886
474.81
474.853
474.857
474.884
474.839
474.884
474.841
474.852
474.808
474.844
474.809
474.812
474.91
474.839
474.856
474.852
474.883
474.81
474.84
474.884
474.856
474.84
474.884
474.854
474.84
474.812
474.81
474.81
474.813
474.804
474.812
474.817
474.848
474.813
474.847
474.814
474.812
474.8
474.821
474.817
474.851
474.817
474.887
474.888
474.912
474.816
474.843
474.844
474.858
474.856
474.912
474.886
474.841
474.812
474.857
474.842
474.85
474.815
474.814
474.849
474.813
474.813
474.911
474.852
474.883
474.841
474.856
474.807
474.839
474.884
474.884
474.852
474.856
474.84
474.839
474.808
474.812
474.811
474.811
474.798
474.845
474.81
474.809
474.813
474.811
474.809
)
;

boundaryField
{
    sphere_to_oil
    {
        type            compressible::turbulentTemperatureCoupledBaffleMixed;
        refValue        nonuniform List<scalar> 
360
(
339.732
339.732
320.438
362.184
370.839
322.532
371.951
371.951
371.951
346.714
346.714
324.708
328.01
317.485
344.774
361.063
357.249
357.249
357.249
319.773
355.801
332.998
334.784
365.041
316.045
365.45
320.83
365.243
365.243
365.243
372.73
364.199
320.448
320.114
324.473
324.631
358.23
358.23
358.23
357.483
365.617
325.102
324.59
339.999
339.999
320.683
327.035
313.494
338.178
365.843
322.539
322.565
327.541
327.957
319.567
332.919
358.092
319.867
324.673
328.956
317.552
366.55
366.55
366.55
313.521
365.066
338.104
326.236
370.562
370.562
370.562
371.338
369.772
316.782
355.718
344.085
318.307
333.631
365.567
358.324
335.738
325.753
335.194
317.443
320.408
322.276
324.837
327.833
317.951
319.957
320.492
327.371
324.509
320.75
327.154
324.536
324.88
324.901
321.268
315.424
315.504
318.913
322.508
324.538
327.367
318.748
317.467
327.998
321.147
324.977
324.931
324.835
321.283
319.688
313.796
313.748
330.259
326.208
331.651
339.452
339.452
362.184
362.184
365.041
365.041
363.039
363.039
363.039
364.515
364.515
364.515
330.88
326.389
330.245
319.766
370.839
370.839
343.085
343.085
372.73
372.73
341.626
341.626
371.908
371.908
371.908
319.606
318.851
361.539
361.539
361.539
361.44
361.44
361.44
361.063
355.801
344.774
361.063
360.1
318.643
360.1
360.1
334.832
335.551
325.919
332.874
332.874
367.129
367.129
367.129
317.634
355.801
332.998
366.086
366.086
317.525
366.086
335.445
325.83
313.574
320.792
321.083
327.493
315.939
327.061
321.057
313.598
315.353
365.45
365.45
364.199
364.199
340.158
340.158
362.269
362.269
362.269
338.168
338.168
315.299
324.141
322.737
327.555
324.307
322.314
327.501
321.05
328.059
324.969
321.04
357.483
328.033
325.171
319.842
366.52
366.52
366.52
333.865
333.865
317.462
324.758
324.683
328.848
365.617
325.006
328.711
324.852
357.483
365.617
333.783
319.816
333.783
317.857
313.757
326.967
316.011
320.981
320.865
321.119
315.823
315.027
366.509
361.023
366.509
366.509
361.023
361.023
365.843
365.066
338.178
363.734
315.363
365.843
363.734
363.734
326.953
320.038
324.425
327.312
320.705
371.338
324.313
324.829
324.922
321.258
358.092
355.718
324.999
324.744
321.202
357.584
360.315
332.919
366.032
317.729
358.092
366.032
366.032
329.325
325.003
365.567
324.741
324.629
324.544
365.884
324.719
365.598
333.755
357.584
333.755
365.884
357.584
365.884
313.465
326.226
329.64
329.924
338.772
362.32
338.772
362.32
362.32
315.304
365.066
363.412
338.104
363.412
315.293
363.412
330.993
330.563
318.337
369.414
342.288
369.414
369.414
342.288
318.711
322.274
324.292
327.349
369.772
371.338
341.937
319.437
369.772
341.937
318.795
355.718
361.186
344.085
361.186
317.608
361.186
328.113
358.324
321.34
325.111
360.156
357.929
360.315
343.938
360.315
360.156
343.938
360.156
325.314
335.028
365.567
333.017
317.541
358.324
333.017
320.035
365.598
357.929
365.598
333.677
357.929
333.677
)
;
        refGradient     uniform 0;
        valueFraction   nonuniform List<scalar> 
360
(
0.000134381
0.00012892
8.2536e-05
0.000294852
0.000302397
0.000173399
0.000304277
0.000261181
0.000406538
0.000129439
0.000126201
0.000169303
0.000258025
7.37746e-05
0.000131971
0.000256541
0.00029399
0.000274691
0.000385452
6.7508e-05
0.000253083
0.000124418
0.00011467
0.000304295
8.83484e-05
0.00031278
0.000176309
0.000308741
0.000404047
0.00027028
0.000308791
0.000311451
8.36311e-05
8.26968e-05
0.000173544
0.000170783
0.000288986
0.000391778
0.000269028
0.000404507
0.000399567
8.53188e-05
0.000169231
0.000123511
0.000123364
0.00017421
0.000260635
6.95363e-05
0.000124423
0.000263835
0.000171856
0.000172972
0.000257832
0.000255327
7.21359e-05
0.000131963
0.000269108
6.91043e-05
0.000171194
0.000255287
6.76408e-05
0.000300536
0.000265301
0.000415224
6.97351e-05
0.00027126
0.000126531
0.000122381
0.000307479
0.000401117
0.000269821
0.000386805
0.00039222
7.49094e-05
0.000261519
0.000132669
6.90644e-05
0.000123844
0.000391392
0.000406587
0.000121466
0.000119175
0.000117055
6.95675e-05
8.38909e-05
0.000170079
0.000171031
0.000259009
7.81845e-05
6.60154e-05
8.30249e-05
0.000258587
0.000170707
8.48106e-05
0.00025816
0.000172657
0.000171635
0.0001719
8.3826e-05
6.71912e-05
6.81337e-05
6.72268e-05
0.000172827
0.000169865
0.000258391
7.60738e-05
6.60781e-05
0.000258204
8.20267e-05
0.000170133
0.000170165
0.000173637
8.49063e-05
6.7989e-05
6.63068e-05
6.75878e-05
0.000117646
0.000117788
0.000122364
0.000132686
0.000124706
0.000257673
0.000405918
0.000271477
0.000409651
0.000262587
0.000403707
0.000300584
0.000262799
0.00039492
0.000296027
0.000120745
0.000114188
0.000116957
6.45644e-05
0.000267769
0.000403158
0.000124736
0.000125306
0.000407427
0.00027089
0.000130759
0.000137814
0.000402412
0.000276441
0.000318542
7.10571e-05
6.61263e-05
0.000279106
0.000386771
0.000306575
0.000287375
0.000400162
0.000306543
0.000316496
0.000291532
0.00013637
0.000406478
0.00026256
7.32023e-05
0.00039507
0.000295642
0.000112824
0.000118865
0.000117592
0.000124053
0.000129675
0.000404444
0.000266304
0.000312584
7.49486e-05
0.000389059
0.000133407
0.000409104
0.000261895
7.32085e-05
0.000310529
0.000113825
0.000114882
6.71209e-05
0.000175932
0.000175863
0.000260041
8.67158e-05
0.000260434
0.000171361
6.64317e-05
6.45073e-05
0.000406957
0.000258577
0.00040218
0.000268138
0.000127901
0.000119612
0.000404056
0.000252531
0.000291901
0.000118231
0.000137185
6.90168e-05
0.000172839
0.000172683
0.000258002
0.000168932
0.000169802
0.000256986
8.80828e-05
0.000257868
0.000174844
8.5658e-05
0.000290247
0.000257582
0.000173797
6.92629e-05
0.000395229
0.00025622
0.000299779
0.000124892
0.000116062
6.70408e-05
0.000171496
0.00017438
0.000258552
0.00029396
8.2215e-05
0.000256099
0.000167259
0.000254405
0.000269325
0.000122256
6.8669e-05
0.000135662
6.9518e-05
6.54378e-05
0.000261438
8.72474e-05
0.000175761
0.000173729
0.000171658
8.61507e-05
6.58072e-05
0.000267307
0.000250473
0.000420488
0.000312991
0.000392292
0.000281861
0.000302106
0.000309314
0.000137489
0.000265352
7.14921e-05
0.0004038
0.000392636
0.00029832
0.000260195
8.29077e-05
0.000169303
0.000257204
8.36502e-05
0.000306475
0.000170036
0.000171252
0.000169674
8.31439e-05
0.000304191
0.000285054
0.00017311
0.000168635
8.47448e-05
0.000285615
0.000314386
0.000124681
0.000282217
6.70258e-05
0.000402074
0.00038981
0.000294545
0.000255296
8.38664e-05
0.000295008
0.00016987
0.000170131
0.0001711
0.000296614
8.46522e-05
0.000303052
0.000127518
0.000261289
0.000128582
0.000266261
0.000405762
0.000398342
6.69941e-05
0.00013425
0.000132664
0.000129757
0.000118168
0.000395345
0.000129062
0.00026283
0.000309495
6.60177e-05
0.000399204
0.000398722
0.000130527
0.000283502
6.91839e-05
0.000303934
0.00011572
0.000113682
6.91267e-05
0.000391
0.000116855
0.000256423
0.000301999
0.000125279
6.82949e-05
0.000169935
0.000169877
0.00025634
0.000293314
0.000254409
0.000123003
6.62101e-05
0.000258671
0.000136614
7.6468e-05
0.000374855
0.000402518
0.000118962
0.000255691
7.089e-05
0.00032157
0.000258304
0.000309482
8.46619e-05
0.000170666
0.000298379
0.000289273
0.000272142
0.00012164
0.000398646
0.000397788
0.000144396
0.000265898
0.000116989
0.000118784
0.000267688
0.000132511
7.16453e-05
0.000270732
0.000127597
6.61637e-05
0.000394032
0.000398763
0.000262372
0.00012733
0.000257724
0.000131529
)
;
        value           nonuniform List<scalar> 
360
(
474.816
474.816
474.821
474.8
474.802
474.835
474.802
474.808
474.796
474.814
474.815
474.834
474.838
474.822
474.817
474.805
474.79
474.796
474.784
474.819
474.8
474.812
474.799
474.798
474.817
474.797
474.834
474.799
474.791
474.803
474.8
474.797
474.819
474.819
474.833
474.835
474.793
474.786
474.797
474.783
474.787
474.816
474.833
474.815
474.817
474.833
474.838
474.82
474.815
474.803
474.837
474.835
474.839
474.839
474.816
474.809
474.796
474.819
474.833
474.838
474.819
474.799
474.803
474.791
474.821
474.803
474.815
474.801
474.803
474.799
474.808
474.798
474.797
474.825
474.806
474.82
474.821
474.8
474.788
474.784
474.801
474.8
474.801
474.819
474.823
474.835
474.835
474.838
474.818
474.819
474.82
474.839
474.837
474.818
474.839
474.835
474.834
474.833
474.815
474.823
474.823
474.824
474.836
474.837
474.839
474.823
474.82
474.837
474.812
474.832
474.835
474.832
474.815
474.818
474.823
474.823
474.804
474.803
474.803
474.816
474.817
474.805
474.79
474.804
474.791
474.804
474.791
474.799
474.805
474.792
474.8
474.803
474.804
474.804
474.825
474.807
474.796
474.818
474.819
474.797
474.808
474.817
474.817
474.796
474.807
474.799
474.824
474.82
474.799
474.785
474.79
474.798
474.784
474.792
474.792
474.793
474.815
474.784
474.802
474.821
474.784
474.794
474.8
474.799
474.798
474.811
474.811
474.786
474.8
474.796
474.817
474.784
474.81
474.786
474.8
474.817
474.795
474.799
474.798
474.821
474.834
474.833
474.838
474.819
474.838
474.835
474.822
474.822
474.79
474.803
474.79
474.803
474.814
474.817
474.79
474.805
474.799
474.816
474.815
474.823
474.836
474.835
474.839
474.837
474.836
474.839
474.813
474.838
474.832
474.815
474.794
474.838
474.832
474.818
474.789
474.801
474.797
474.811
474.813
474.819
474.833
474.832
474.837
474.796
474.816
474.838
474.834
474.798
474.799
474.811
474.817
474.809
474.817
474.821
474.838
474.817
474.833
474.833
474.834
474.815
474.823
474.802
474.805
474.792
474.797
474.793
474.803
474.796
474.795
474.814
474.803
474.821
474.789
474.79
474.8
474.839
474.823
474.838
474.839
474.821
474.802
474.837
474.833
474.837
474.816
474.794
474.795
474.833
474.835
474.815
474.794
474.792
474.811
474.798
474.818
474.784
474.789
474.797
474.838
474.817
474.797
474.834
474.834
474.834
474.8
474.819
474.799
474.811
474.799
474.811
474.801
474.785
474.789
474.821
474.804
474.805
474.805
474.815
474.792
474.815
474.803
474.801
474.822
474.79
474.789
474.814
474.8
474.821
474.798
474.803
474.803
474.825
474.799
474.821
474.809
474.804
474.82
474.826
474.836
474.838
474.839
474.801
474.809
474.819
474.825
474.806
474.815
474.822
474.788
474.787
474.817
474.804
474.822
474.79
474.838
474.791
474.814
474.833
474.793
474.794
474.8
474.815
474.785
474.785
474.811
474.8
474.8
474.801
474.801
474.811
474.819
474.797
474.811
474.819
474.789
474.786
474.802
474.812
474.799
474.81
)
;
        Tnbr            T;
        thicknessLayers 0();
        kappaLayers     0();
        kappaMethod     solidThermo;
        kappa           none;
        alphaAni        none;
    }
}


// ************************************************************************* //
