/*--------------------------------*- C++ -*----------------------------------*\
| =========                 |                                                 |
| \\      /  F ield         | OpenFOAM: The Open Source CFD Toolbox           |
|  \\    /   O peration     | Version:  v1906                                 |
|   \\  /    A nd           | Web:      www.OpenFOAM.com                      |
|    \\/     M anipulation  |                                                 |
\*---------------------------------------------------------------------------*/
FoamFile
{
    version     2.0;
    format      ascii;
    class       volScalarField;
    location    "0.65/oil";
    object      alphat;
}
// * * * * * * * * * * * * * * * * * * * * * * * * * * * * * * * * * * * * * //

dimensions      [1 -1 -1 0 0 0 0];


internalField   nonuniform List<scalar> 
168664
(
0.00263236
0.000287134
0.000294229
8.16455e-05
7.09224e-05
3.47673e-05
2.38519e-05
1.82796e-05
1.22061e-05
1.30987e-05
1.16436e-05
1.39234e-05
1.28438e-05
1.32269e-05
1.18667e-05
1.18522e-05
1.07829e-05
9.94007e-06
8.93353e-06
8.05408e-06
7.44664e-06
7.52054e-06
7.30686e-06
6.75206e-06
5.78392e-06
4.60173e-06
3.43054e-06
2.53042e-06
1.75684e-06
5.18965e-07
0.000286227
0.000336672
7.50031e-05
6.49852e-05
2.81824e-05
2.15089e-05
1.43042e-05
1.20872e-05
9.66917e-06
1.0132e-05
1.02457e-05
1.14609e-05
1.10649e-05
1.14282e-05
1.06703e-05
1.07157e-05
9.85654e-06
9.26363e-06
8.39459e-06
7.83825e-06
7.43117e-06
7.43274e-06
7.15857e-06
6.64387e-06
6.06461e-06
5.27128e-06
4.52127e-06
3.60148e-06
3.64553e-06
2.14776e-06
0.000291645
7.50162e-05
6.86832e-05
4.42657e-05
3.34096e-05
2.4046e-05
1.81896e-05
1.42844e-05
1.21019e-05
1.12177e-05
1.10999e-05
1.12627e-05
1.06963e-05
1.10281e-05
1.03535e-05
1.03124e-05
9.5289e-06
9.02385e-06
8.20782e-06
7.76992e-06
7.57797e-06
7.64485e-06
7.51421e-06
7.13538e-06
6.62987e-06
6.00477e-06
5.44527e-06
5.03643e-06
5.87798e-06
4.74346e-06
8.53462e-05
6.71037e-05
4.64871e-05
3.50913e-05
2.49574e-05
1.91669e-05
1.60447e-05
1.3205e-05
1.23435e-05
1.12791e-05
1.12159e-05
1.08233e-05
1.06831e-05
1.09807e-05
1.04001e-05
1.01662e-05
9.44724e-06
8.95454e-06
8.27501e-06
7.91109e-06
7.69248e-06
7.7701e-06
7.85785e-06
7.64014e-06
7.10014e-06
6.46231e-06
6.037e-06
6.31569e-06
7.4144e-06
6.74407e-06
7.28487e-05
3.19893e-05
3.52668e-05
2.52483e-05
2.36533e-05
1.94473e-05
1.73798e-05
1.5126e-05
1.39411e-05
1.28361e-05
1.2217e-05
1.15166e-05
1.12134e-05
1.13296e-05
1.06158e-05
1.01659e-05
9.43555e-06
8.99264e-06
8.5727e-06
8.56858e-06
8.33169e-06
8.4027e-06
8.44861e-06
8.36638e-06
7.93127e-06
7.45633e-06
7.22322e-06
7.81551e-06
9.06868e-06
8.9418e-06
4.52662e-05
3.02214e-05
3.09209e-05
2.31588e-05
2.2187e-05
1.73411e-05
1.66232e-05
1.39987e-05
1.36702e-05
1.25037e-05
1.23026e-05
1.13737e-05
1.10258e-05
1.11994e-05
1.06415e-05
9.91142e-06
9.23149e-06
8.68844e-06
8.62342e-06
8.86416e-06
8.65678e-06
8.57259e-06
8.51354e-06
8.4894e-06
8.18644e-06
8.07374e-06
8.09449e-06
8.93679e-06
1.02177e-05
1.05433e-05
3.36144e-05
2.34218e-05
2.40844e-05
1.96242e-05
1.955e-05
1.66963e-05
1.6095e-05
1.43182e-05
1.37338e-05
1.29096e-05
1.25732e-05
1.1819e-05
1.15147e-05
1.19831e-05
1.12858e-05
1.02095e-05
9.27543e-06
8.64231e-06
8.55269e-06
8.82642e-06
8.61816e-06
8.63321e-06
8.65605e-06
8.81331e-06
8.80346e-06
9.06438e-06
9.41958e-06
1.04184e-05
1.17222e-05
1.25408e-05
3.29954e-05
2.46661e-05
2.46503e-05
2.02541e-05
1.99322e-05
1.64374e-05
1.59887e-05
1.35815e-05
1.31789e-05
1.20124e-05
1.20662e-05
1.15763e-05
1.19505e-05
1.26611e-05
1.21281e-05
1.07063e-05
9.78967e-06
8.90543e-06
8.65682e-06
8.51191e-06
8.23859e-06
8.27044e-06
8.42826e-06
8.82643e-06
9.20918e-06
9.88279e-06
1.05257e-05
1.16009e-05
1.28336e-05
1.39959e-05
2.69161e-05
2.1534e-05
2.11153e-05
1.85377e-05
1.798e-05
1.56276e-05
1.49139e-05
1.30457e-05
1.24077e-05
1.14756e-05
1.16728e-05
1.19782e-05
1.26818e-05
1.34094e-05
1.27603e-05
1.13352e-05
1.01521e-05
9.10168e-06
8.59799e-06
8.27492e-06
7.95431e-06
8.23435e-06
8.60287e-06
9.34594e-06
1.00795e-05
1.10113e-05
1.19066e-05
1.29747e-05
1.40409e-05
1.55128e-05
2.86048e-05
2.29511e-05
2.25094e-05
1.98562e-05
1.89746e-05
1.61457e-05
1.51589e-05
1.28257e-05
1.20155e-05
1.08085e-05
1.12842e-05
1.17822e-05
1.25189e-05
1.26498e-05
1.22559e-05
1.12182e-05
1.00084e-05
8.93443e-06
8.45134e-06
8.01605e-06
7.76122e-06
8.18729e-06
8.75127e-06
9.64933e-06
1.04554e-05
1.15922e-05
1.271e-05
1.37287e-05
1.46939e-05
1.63789e-05
2.5839e-05
2.13358e-05
2.06423e-05
1.87969e-05
1.77899e-05
1.5762e-05
1.47421e-05
1.27377e-05
1.18157e-05
1.09057e-05
1.13692e-05
1.18137e-05
1.16691e-05
1.09243e-05
1.02346e-05
9.622e-06
8.74607e-06
8.19635e-06
7.97391e-06
7.94237e-06
7.98768e-06
8.75282e-06
9.51639e-06
1.05964e-05
1.14405e-05
1.27074e-05
1.38856e-05
1.47324e-05
1.55835e-05
1.74395e-05
2.74837e-05
2.25721e-05
2.17518e-05
1.9891e-05
1.90533e-05
1.72181e-05
1.62832e-05
1.3963e-05
1.25918e-05
1.10032e-05
1.0739e-05
1.0348e-05
9.34666e-06
7.98027e-06
7.27727e-06
6.76554e-06
6.30638e-06
6.61837e-06
7.03252e-06
7.54851e-06
8.14716e-06
9.30071e-06
1.03021e-05
1.1656e-05
1.25983e-05
1.38249e-05
1.47809e-05
1.54133e-05
1.61655e-05
1.81616e-05
2.55622e-05
2.16114e-05
2.09811e-05
1.9854e-05
1.913e-05
1.77513e-05
1.68574e-05
1.4703e-05
1.31142e-05
1.08008e-05
9.56178e-06
8.26813e-06
6.6736e-06
5.62438e-06
4.75285e-06
4.28725e-06
4.0687e-06
4.61898e-06
5.53371e-06
6.6821e-06
7.98279e-06
9.99677e-06
1.13201e-05
1.27359e-05
1.36818e-05
1.48433e-05
1.56274e-05
1.62536e-05
1.70896e-05
1.94653e-05
2.54983e-05
2.15087e-05
2.10294e-05
2.01117e-05
1.94368e-05
1.80158e-05
1.71607e-05
1.53429e-05
1.39692e-05
1.08531e-05
8.34549e-06
5.68319e-06
3.7773e-06
2.45144e-06
1.93072e-06
1.51209e-06
1.7445e-06
3.02873e-06
4.02869e-06
5.96523e-06
7.86184e-06
1.05269e-05
1.21143e-05
1.35581e-05
1.43283e-05
1.54385e-05
1.62205e-05
1.695e-05
1.78794e-05
2.06686e-05
2.41418e-05
2.05366e-05
2.00017e-05
1.92366e-05
1.86105e-05
1.74393e-05
1.66055e-05
1.51155e-05
1.3986e-05
1.11508e-05
8.57556e-06
6.12745e-06
4.48009e-06
2.79089e-06
1.49178e-06
1.35299e-06
2.47962e-06
3.80925e-06
4.675e-06
6.5259e-06
8.33997e-06
1.1067e-05
1.28621e-05
1.44294e-05
1.52182e-05
1.62824e-05
1.70777e-05
1.78385e-05
1.87247e-05
2.1819e-05
2.42251e-05
2.05025e-05
1.98867e-05
1.91042e-05
1.85223e-05
1.73827e-05
1.653e-05
1.48661e-05
1.34499e-05
1.08234e-05
8.6478e-06
6.47697e-06
5.01193e-06
3.0537e-06
1.08486e-06
1.44252e-06
2.81185e-06
4.40201e-06
5.15684e-06
6.97858e-06
8.64384e-06
1.13496e-05
1.29366e-05
1.45084e-05
1.52466e-05
1.63626e-05
1.71391e-05
1.79425e-05
1.86785e-05
2.16613e-05
2.24435e-05
1.92532e-05
1.85925e-05
1.79237e-05
1.73492e-05
1.63206e-05
1.55473e-05
1.41445e-05
1.25966e-05
9.89575e-06
7.30241e-06
5.11492e-06
3.81457e-06
2.29611e-06
1.38178e-06
1.69205e-06
2.72165e-06
4.73005e-06
5.82654e-06
7.65212e-06
9.33267e-06
1.17886e-05
1.3169e-05
1.4512e-05
1.52876e-05
1.64576e-05
1.73063e-05
1.80319e-05
1.86474e-05
2.14921e-05
2.16032e-05
1.86817e-05
1.79912e-05
1.72821e-05
1.66429e-05
1.54839e-05
1.46128e-05
1.31361e-05
1.18224e-05
9.50795e-06
7.62509e-06
6.12412e-06
4.84085e-06
4.09347e-06
3.9337e-06
3.76282e-06
3.84294e-06
5.74533e-06
7.3552e-06
9.07124e-06
9.79542e-06
1.17173e-05
1.27434e-05
1.42107e-05
1.50949e-05
1.63042e-05
1.7192e-05
1.80948e-05
1.88691e-05
2.17564e-05
2.02254e-05
1.77857e-05
1.70219e-05
1.62443e-05
1.54653e-05
1.43085e-05
1.33534e-05
1.19458e-05
1.08134e-05
9.48267e-06
8.657e-06
7.83303e-06
6.81638e-06
6.15735e-06
6.18918e-06
5.87168e-06
5.81984e-06
7.07226e-06
8.38202e-06
9.42293e-06
9.66656e-06
1.06395e-05
1.14494e-05
1.29096e-05
1.38113e-05
1.48351e-05
1.57491e-05
1.70218e-05
1.8218e-05
2.11997e-05
1.92629e-05
1.68827e-05
1.59955e-05
1.49801e-05
1.4034e-05
1.28212e-05
1.19961e-05
1.08351e-05
1.00206e-05
9.12058e-06
8.95523e-06
8.69384e-06
8.33507e-06
8.31511e-06
8.63075e-06
8.45515e-06
8.45376e-06
8.95561e-06
9.06138e-06
9.20794e-06
8.95351e-06
9.60804e-06
1.019e-05
1.14702e-05
1.22824e-05
1.33391e-05
1.42925e-05
1.5651e-05
1.68896e-05
1.96213e-05
1.7634e-05
1.55662e-05
1.4789e-05
1.37091e-05
1.27125e-05
1.17102e-05
1.09815e-05
1.00317e-05
9.32253e-06
8.75461e-06
8.78335e-06
8.73808e-06
8.84782e-06
9.46997e-06
1.04342e-05
1.0821e-05
1.08101e-05
1.0304e-05
9.67294e-06
9.16683e-06
8.5948e-06
8.95623e-06
9.46247e-06
1.06026e-05
1.13393e-05
1.23933e-05
1.32937e-05
1.4508e-05
1.55891e-05
1.76367e-05
1.65024e-05
1.48183e-05
1.41358e-05
1.30134e-05
1.20446e-05
1.11733e-05
1.05684e-05
9.80373e-06
9.26406e-06
8.84866e-06
8.62471e-06
8.21661e-06
8.45925e-06
9.43351e-06
1.06299e-05
1.15346e-05
1.14876e-05
1.02222e-05
9.23278e-06
8.91824e-06
8.55814e-06
8.91923e-06
9.23181e-06
1.0086e-05
1.05707e-05
1.14539e-05
1.21734e-05
1.33377e-05
1.44385e-05
1.60703e-05
1.48348e-05
1.35705e-05
1.26966e-05
1.16269e-05
1.09395e-05
1.02874e-05
9.88373e-06
9.42455e-06
9.1493e-06
8.98539e-06
8.63632e-06
7.92128e-06
7.92484e-06
8.87488e-06
1.0022e-05
1.09094e-05
1.07872e-05
9.57408e-06
8.89145e-06
8.9889e-06
8.84967e-06
8.99742e-06
9.01402e-06
9.48468e-06
9.67651e-06
1.03173e-05
1.08857e-05
1.20126e-05
1.31277e-05
1.43036e-05
1.33292e-05
1.23262e-05
1.12364e-05
1.03509e-05
9.93876e-06
9.57744e-06
9.46538e-06
9.31849e-06
9.23558e-06
9.0799e-06
8.56663e-06
7.83083e-06
7.56321e-06
8.12994e-06
9.02013e-06
9.69367e-06
9.67644e-06
9.01105e-06
8.68876e-06
9.00866e-06
9.01932e-06
9.16777e-06
9.0285e-06
9.2168e-06
9.14251e-06
9.4359e-06
9.72559e-06
1.07862e-05
1.19298e-05
1.27826e-05
1.10895e-05
1.05978e-05
9.52353e-06
8.91458e-06
8.72477e-06
8.59232e-06
8.74372e-06
8.89007e-06
9.065e-06
8.92364e-06
8.28937e-06
7.70104e-06
7.7151e-06
8.00715e-06
8.51725e-06
8.80973e-06
9.10465e-06
8.91151e-06
8.602e-06
8.63985e-06
8.76172e-06
8.98806e-06
8.82778e-06
8.87946e-06
8.60346e-06
8.55812e-06
8.47142e-06
9.42398e-06
1.05836e-05
1.09977e-05
9.28559e-06
9.15046e-06
8.03332e-06
7.64306e-06
7.80997e-06
8.02193e-06
8.28522e-06
8.60016e-06
8.90315e-06
8.90661e-06
8.29679e-06
7.80152e-06
8.00476e-06
8.23211e-06
8.34183e-06
8.2924e-06
8.76331e-06
8.88356e-06
8.45219e-06
8.23937e-06
8.24e-06
8.55186e-06
8.49773e-06
8.52564e-06
8.1627e-06
7.74448e-06
7.41763e-06
8.18131e-06
9.38391e-06
9.41308e-06
7.11011e-06
7.46293e-06
6.25538e-06
6.10315e-06
6.61551e-06
7.01792e-06
7.42897e-06
7.89363e-06
8.2874e-06
8.52265e-06
8.13609e-06
7.9366e-06
8.27456e-06
8.39234e-06
8.22451e-06
7.92162e-06
8.39352e-06
8.53798e-06
8.30933e-06
7.9793e-06
7.72581e-06
7.74095e-06
7.61406e-06
7.57287e-06
7.22444e-06
6.77745e-06
6.30238e-06
6.74218e-06
7.82574e-06
7.35391e-06
5.06531e-06
5.97401e-06
4.87958e-06
5.3141e-06
5.84263e-06
6.40101e-06
6.96638e-06
7.53429e-06
8.02522e-06
8.31888e-06
8.13099e-06
8.14401e-06
8.47819e-06
8.46618e-06
8.27784e-06
7.9019e-06
8.08209e-06
8.25773e-06
8.22857e-06
8.05145e-06
7.55317e-06
7.35257e-06
7.0737e-06
7.00079e-06
6.75523e-06
6.35789e-06
5.76479e-06
5.34992e-06
6.23082e-06
5.27322e-06
2.58881e-06
3.98899e-06
3.79478e-06
4.59334e-06
5.18101e-06
5.96993e-06
6.65202e-06
7.39368e-06
8.07238e-06
8.56128e-06
8.68749e-06
8.73736e-06
8.94128e-06
8.95652e-06
9.03148e-06
8.67381e-06
8.67838e-06
8.74885e-06
8.67304e-06
8.2827e-06
7.53207e-06
7.16143e-06
6.78086e-06
6.61072e-06
6.18701e-06
5.49569e-06
4.73302e-06
3.69716e-06
3.85057e-06
2.48354e-06
1.18733e-06
2.38618e-06
3.34902e-06
4.23587e-06
5.16277e-06
6.09524e-06
6.9247e-06
7.8151e-06
8.69055e-06
9.20724e-06
9.44651e-06
9.59139e-06
9.63095e-06
9.85292e-06
9.77798e-06
9.3144e-06
9.37772e-06
9.52871e-06
9.4324e-06
8.67203e-06
7.64959e-06
7.16982e-06
6.62719e-06
6.34232e-06
5.57737e-06
4.55844e-06
3.36926e-06
2.33097e-06
1.63277e-06
6.01698e-07
0.000285737
0.000344611
7.70657e-05
6.69536e-05
2.83618e-05
2.18814e-05
1.41246e-05
1.24076e-05
9.09716e-06
1.00905e-05
9.21134e-06
1.10683e-05
1.02728e-05
1.14564e-05
1.0695e-05
1.09391e-05
1.01287e-05
9.19649e-06
8.757e-06
7.76859e-06
7.41012e-06
6.84714e-06
6.89618e-06
6.35089e-06
6.03605e-06
5.0624e-06
4.31115e-06
3.25965e-06
2.77087e-06
1.74194e-06
0.00034197
6.75932e-05
5.53099e-05
2.59336e-05
1.32413e-05
1.01053e-05
7.0274e-06
5.26222e-06
4.59258e-06
4.47382e-06
4.86961e-06
4.26522e-06
3.55234e-06
3.56145e-06
3.76577e-06
3.87511e-06
3.65997e-06
3.59706e-06
3.24877e-06
3.05936e-06
2.919e-06
3.50527e-06
3.98638e-06
4.43086e-06
4.30541e-06
3.91725e-06
3.39207e-06
2.99548e-06
4.16258e-06
3.6838e-06
7.48441e-05
5.62796e-05
2.85211e-05
2.58213e-05
1.39294e-05
1.23258e-05
8.72779e-06
6.66966e-06
5.61763e-06
5.68181e-06
6.36102e-06
6.32513e-06
4.81224e-06
3.70926e-06
3.38679e-06
3.23111e-06
2.66472e-06
2.20134e-06
2.1262e-06
2.74248e-06
3.12009e-06
4.30186e-06
5.08744e-06
5.27101e-06
5.22354e-06
5.02152e-06
4.17384e-06
3.92625e-06
4.70193e-06
5.9379e-06
6.72069e-05
2.36031e-05
2.38004e-05
1.49987e-05
8.38311e-06
8.01686e-06
5.08307e-06
5.22202e-06
4.8976e-06
5.30005e-06
5.77434e-06
6.0757e-06
4.54454e-06
3.37245e-06
2.90575e-06
2.81404e-06
2.80556e-06
2.16902e-06
2.45955e-06
3.5705e-06
4.36544e-06
5.02765e-06
4.77263e-06
4.71575e-06
5.08549e-06
5.19169e-06
4.54378e-06
4.52507e-06
4.43491e-06
7.48288e-06
3.16491e-05
1.14059e-05
1.13534e-05
8.94224e-06
5.70281e-06
6.10472e-06
4.21151e-06
4.3159e-06
3.83185e-06
3.78368e-06
3.74182e-06
4.12254e-06
2.84999e-06
2.62997e-06
2.54891e-06
2.6141e-06
2.76764e-06
2.11701e-06
2.66624e-06
3.88842e-06
4.33315e-06
3.69801e-06
2.69587e-06
2.78552e-06
3.40313e-06
4.02299e-06
4.28379e-06
4.66509e-06
4.16664e-06
9.18937e-06
2.97853e-05
7.14327e-06
1.0082e-05
8.06555e-06
5.5097e-06
5.32849e-06
3.10324e-06
3.22119e-06
2.24598e-06
2.46009e-06
2.66423e-06
3.14872e-06
2.55908e-06
2.59405e-06
2.68503e-06
2.81275e-06
2.97909e-06
2.62727e-06
3.2463e-06
3.65691e-06
3.28067e-06
2.20664e-06
1.38107e-06
1.64247e-06
2.10329e-06
3.04606e-06
3.8772e-06
4.52004e-06
3.89531e-06
1.03338e-05
2.34265e-05
4.5323e-06
6.55315e-06
4.87769e-06
4.00028e-06
3.85719e-06
2.7741e-06
2.81278e-06
2.06472e-06
2.24151e-06
2.42433e-06
3.02145e-06
2.56923e-06
2.75819e-06
3.04759e-06
2.98424e-06
3.12594e-06
3.18213e-06
3.71438e-06
3.13272e-06
2.38176e-06
1.70243e-06
1.36079e-06
1.45292e-06
1.84311e-06
2.98999e-06
3.87452e-06
4.41248e-06
3.89239e-06
1.17982e-05
2.46024e-05
2.44163e-06
5.49533e-06
5.38194e-06
4.5626e-06
4.33179e-06
3.31327e-06
3.20549e-06
2.4099e-06
2.431e-06
2.48908e-06
2.7711e-06
2.21558e-06
2.41905e-06
2.95607e-06
2.74434e-06
2.76212e-06
3.21026e-06
3.49672e-06
2.72117e-06
1.89736e-06
1.62687e-06
1.39548e-06
1.57099e-06
2.10504e-06
3.21258e-06
3.87094e-06
4.26429e-06
3.83461e-06
1.28641e-05
2.15902e-05
2.77685e-06
3.89534e-06
3.83582e-06
3.80707e-06
3.64155e-06
3.137e-06
3.07787e-06
2.73e-06
2.74298e-06
2.63807e-06
2.11726e-06
1.11218e-06
2.6509e-06
3.57823e-06
3.06702e-06
2.1661e-06
2.3796e-06
2.8912e-06
2.56872e-06
2.03338e-06
1.92364e-06
1.75816e-06
2.06808e-06
2.57205e-06
3.36238e-06
3.68224e-06
3.82864e-06
3.61056e-06
1.41104e-05
2.28184e-05
2.11181e-06
3.05293e-06
3.41597e-06
3.65491e-06
3.80695e-06
3.46866e-06
3.45276e-06
3.29633e-06
3.16161e-06
2.88303e-06
1.74798e-06
1.76331e-06
3.90369e-06
4.7865e-06
4.0353e-06
2.62425e-06
1.16587e-06
1.97013e-06
2.48125e-06
2.17394e-06
2.24219e-06
2.14194e-06
2.46935e-06
2.67056e-06
3.08377e-06
3.09714e-06
3.01929e-06
3.12827e-06
1.48942e-05
2.13904e-05
2.5542e-06
2.35026e-06
2.32783e-06
2.43795e-06
2.90242e-06
3.07697e-06
3.41031e-06
3.56434e-06
3.38313e-06
3.05266e-06
2.34997e-06
3.53618e-06
5.3096e-06
6.02828e-06
5.66998e-06
4.65906e-06
2.13283e-06
1.53238e-06
2.44249e-06
2.6261e-06
2.89179e-06
2.83564e-06
3.03385e-06
3.02878e-06
3.07888e-06
2.81314e-06
2.58745e-06
2.80476e-06
1.56599e-05
2.25818e-05
2.58026e-06
1.97421e-06
1.97063e-06
2.05056e-06
2.65702e-06
3.03638e-06
3.57429e-06
4.13075e-06
4.09642e-06
3.36445e-06
3.27301e-06
4.24106e-06
4.79297e-06
5.07567e-06
5.02038e-06
4.28463e-06
2.89319e-06
1.88229e-06
2.44091e-06
3.07678e-06
3.40519e-06
3.2718e-06
3.23477e-06
3.10938e-06
3.02748e-06
2.60951e-06
2.50088e-06
2.58249e-06
1.61461e-05
2.1385e-05
2.69174e-06
1.85868e-06
1.72691e-06
1.64412e-06
1.96967e-06
2.22143e-06
2.9012e-06
3.73442e-06
3.73492e-06
2.91774e-06
4.25779e-06
4.69342e-06
4.63869e-06
4.49929e-06
4.25088e-06
3.89117e-06
3.17476e-06
2.67064e-06
2.0027e-06
3.03155e-06
3.41257e-06
3.09964e-06
2.78098e-06
2.55413e-06
2.50536e-06
2.26404e-06
2.41306e-06
2.66504e-06
1.71702e-05
2.14368e-05
2.39616e-06
1.84477e-06
1.83066e-06
1.85295e-06
1.81858e-06
1.93663e-06
2.59215e-06
3.46523e-06
3.57871e-06
3.67147e-06
4.19292e-06
3.9106e-06
3.67937e-06
3.18631e-06
2.84018e-06
2.17048e-06
2.17952e-06
2.12327e-06
2.00579e-06
2.45126e-06
3.07194e-06
2.74357e-06
2.2792e-06
2.0474e-06
2.0907e-06
2.01899e-06
2.2392e-06
2.70122e-06
1.80207e-05
2.04806e-05
2.65262e-06
2.02084e-06
1.94457e-06
1.9346e-06
1.99106e-06
2.10711e-06
2.65227e-06
3.23404e-06
3.80581e-06
3.93275e-06
3.5629e-06
2.97595e-06
2.5163e-06
2.73411e-06
2.43625e-06
1.96484e-06
2.20318e-06
2.29051e-06
2.81184e-06
3.23777e-06
3.31266e-06
2.68836e-06
2.03351e-06
1.86684e-06
1.90535e-06
1.89845e-06
2.0847e-06
2.74126e-06
1.87947e-05
2.05492e-05
2.86997e-06
2.22953e-06
2.08331e-06
2.16476e-06
2.32778e-06
2.50227e-06
2.91204e-06
3.49977e-06
3.83504e-06
3.31325e-06
2.36344e-06
1.99186e-06
1.99342e-06
2.61671e-06
2.67384e-06
2.27788e-06
2.48465e-06
2.76863e-06
3.38014e-06
3.53096e-06
3.35187e-06
2.51484e-06
1.69467e-06
1.47558e-06
1.61875e-06
1.68144e-06
1.79839e-06
2.35481e-06
1.86434e-05
1.94138e-05
2.95258e-06
2.52078e-06
2.33633e-06
2.45367e-06
2.58632e-06
2.72861e-06
3.15949e-06
3.65785e-06
3.37894e-06
2.88814e-06
2.65391e-06
2.47035e-06
2.53148e-06
3.1439e-06
3.12164e-06
2.8292e-06
2.97083e-06
3.01212e-06
2.8373e-06
2.92174e-06
3.58994e-06
2.76595e-06
1.83329e-06
1.59436e-06
1.83354e-06
2.04393e-06
2.02264e-06
2.3616e-06
1.85997e-05
1.88336e-05
2.905e-06
2.77403e-06
2.53161e-06
2.73198e-06
2.83801e-06
3.08691e-06
3.34369e-06
3.72687e-06
3.3125e-06
2.69335e-06
2.72531e-06
3.00398e-06
3.34404e-06
3.87458e-06
3.90091e-06
4.03603e-06
3.78631e-06
2.9333e-06
1.7815e-06
3.3491e-06
4.2759e-06
3.38962e-06
2.77366e-06
2.41961e-06
2.42999e-06
2.65071e-06
2.62526e-06
2.82262e-06
1.86337e-05
1.77076e-05
3.20014e-06
3.24511e-06
3.18818e-06
3.53019e-06
3.56583e-06
3.65301e-06
3.61965e-06
3.83452e-06
3.56076e-06
3.33659e-06
2.32708e-06
2.59525e-06
3.46871e-06
4.33131e-06
4.31007e-06
4.18621e-06
3.46358e-06
1.98911e-06
2.00933e-06
3.65753e-06
4.47863e-06
3.81944e-06
3.41171e-06
3.03668e-06
3.04558e-06
3.24386e-06
3.30866e-06
3.37806e-06
1.81906e-05
1.69568e-05
3.31411e-06
3.19876e-06
3.42315e-06
3.74581e-06
3.3573e-06
3.18886e-06
2.90422e-06
3.17184e-06
2.902e-06
3.04606e-06
1.66305e-06
1.42491e-06
3.31482e-06
4.68095e-06
4.91232e-06
4.63491e-06
2.79355e-06
1.15755e-06
2.40233e-06
3.07016e-06
3.71106e-06
3.2372e-06
3.16144e-06
2.97477e-06
3.28998e-06
3.35993e-06
3.23501e-06
3.37224e-06
1.71064e-05
1.58802e-05
3.66093e-06
3.35855e-06
3.80748e-06
4.04251e-06
3.15956e-06
2.74634e-06
2.35893e-06
2.61968e-06
2.4905e-06
2.90893e-06
2.13576e-06
1.07383e-06
1.34515e-06
3.11099e-06
3.9448e-06
3.64777e-06
1.23749e-06
1.58287e-06
2.92007e-06
2.83843e-06
3.10474e-06
2.70051e-06
2.92545e-06
3.10305e-06
3.83358e-06
3.79111e-06
3.58206e-06
3.43873e-06
1.55429e-05
1.48811e-05
3.7942e-06
3.92108e-06
4.29785e-06
4.04953e-06
2.92698e-06
2.46183e-06
1.88211e-06
2.10201e-06
2.09974e-06
2.77935e-06
2.85798e-06
2.40662e-06
1.55822e-06
2.13439e-06
2.62444e-06
2.13516e-06
1.66022e-06
2.29543e-06
2.78216e-06
2.26566e-06
2.41773e-06
2.04757e-06
2.44104e-06
2.74005e-06
3.78927e-06
4.07599e-06
4.04887e-06
3.4779e-06
1.43076e-05
1.35942e-05
3.8403e-06
4.53036e-06
4.40524e-06
3.71696e-06
2.57448e-06
2.15879e-06
1.50623e-06
1.82518e-06
1.91532e-06
2.72652e-06
3.17985e-06
3.01882e-06
2.92941e-06
3.04754e-06
3.05261e-06
2.00721e-06
2.59309e-06
3.18605e-06
3.02011e-06
2.01285e-06
1.98577e-06
1.62161e-06
2.05734e-06
2.25495e-06
3.505e-06
4.1635e-06
4.37646e-06
3.67682e-06
1.30707e-05
1.25011e-05
3.83741e-06
4.58236e-06
3.80292e-06
3.09363e-06
2.15268e-06
1.92722e-06
1.2715e-06
1.64671e-06
1.92087e-06
2.87281e-06
3.02321e-06
2.87406e-06
3.52891e-06
3.61755e-06
3.15154e-06
2.27613e-06
3.24768e-06
3.81906e-06
3.84437e-06
2.59137e-06
1.86883e-06
1.33828e-06
1.74722e-06
1.83861e-06
3.06113e-06
4.00781e-06
4.527e-06
3.74162e-06
1.19463e-05
1.0791e-05
3.93205e-06
4.50676e-06
3.33982e-06
2.64491e-06
1.9293e-06
2.1942e-06
1.8056e-06
2.05143e-06
2.27796e-06
3.11996e-06
2.78499e-06
2.56784e-06
3.60234e-06
3.69361e-06
3.05428e-06
2.66127e-06
3.3325e-06
3.95061e-06
4.65315e-06
3.81649e-06
2.7016e-06
1.77003e-06
2.13533e-06
2.27726e-06
3.41788e-06
4.17533e-06
4.91849e-06
4.04701e-06
1.06516e-05
9.43595e-06
3.90265e-06
4.25589e-06
3.05975e-06
2.62892e-06
2.32067e-06
2.81811e-06
2.73439e-06
3.17133e-06
3.16719e-06
3.36169e-06
2.37133e-06
2.37009e-06
3.42284e-06
3.59333e-06
3.07464e-06
2.79278e-06
3.10467e-06
3.68688e-06
4.76666e-06
4.67591e-06
4.23486e-06
3.29154e-06
3.50216e-06
3.73816e-06
4.52208e-06
4.45685e-06
5.07091e-06
4.39313e-06
9.45411e-06
7.88645e-06
4.15163e-06
4.23035e-06
3.30872e-06
3.59861e-06
3.60158e-06
4.05137e-06
4.09226e-06
4.79495e-06
4.84315e-06
4.40032e-06
2.38864e-06
2.20482e-06
3.3061e-06
4.00796e-06
3.5968e-06
3.44632e-06
3.86324e-06
4.23475e-06
5.09363e-06
5.14572e-06
5.60533e-06
5.45071e-06
5.80837e-06
5.7912e-06
5.83722e-06
4.75554e-06
4.9578e-06
4.79428e-06
7.87204e-06
6.51475e-06
4.63615e-06
4.14566e-06
3.85601e-06
4.21509e-06
3.99305e-06
4.23387e-06
4.19909e-06
4.91202e-06
5.177e-06
4.8769e-06
2.76152e-06
2.20539e-06
3.23469e-06
3.89692e-06
3.38792e-06
3.22205e-06
3.82282e-06
3.98346e-06
4.22501e-06
3.94396e-06
4.66628e-06
5.09673e-06
5.97457e-06
5.77537e-06
5.45285e-06
4.1558e-06
4.0257e-06
4.86384e-06
6.30291e-06
4.4667e-06
4.64506e-06
3.63455e-06
3.90966e-06
3.96128e-06
3.77519e-06
4.07287e-06
4.15908e-06
4.80994e-06
5.146e-06
5.16325e-06
4.08212e-06
3.87431e-06
3.59265e-06
3.37597e-06
2.71903e-06
2.8567e-06
3.33966e-06
3.30362e-06
3.41861e-06
3.04486e-06
3.66047e-06
3.77968e-06
4.52174e-06
4.33757e-06
4.0441e-06
3.31405e-06
2.97781e-06
4.14373e-06
3.92035e-06
2.74084e-06
3.6748e-06
4.07171e-06
4.7958e-06
5.38402e-06
6.15715e-06
6.86388e-06
7.95944e-06
8.76919e-06
9.85506e-06
9.7353e-06
9.78338e-06
9.18329e-06
9.29338e-06
9.11348e-06
8.78683e-06
8.90844e-06
8.72758e-06
8.99687e-06
8.3521e-06
7.81481e-06
7.12375e-06
6.73745e-06
6.36677e-06
5.94721e-06
5.06943e-06
4.16365e-06
3.06792e-06
2.61673e-06
1.84396e-06
0.000294878
7.71497e-05
6.86626e-05
4.31524e-05
3.03319e-05
2.33908e-05
1.5767e-05
1.33533e-05
8.83265e-06
8.91033e-06
7.98312e-06
8.49025e-06
8.49756e-06
7.66189e-06
7.77999e-06
7.91067e-06
7.37546e-06
8.09092e-06
6.92559e-06
7.6726e-06
5.78582e-06
6.65971e-06
6.06455e-06
7.19479e-06
6.5226e-06
6.13093e-06
5.00077e-06
3.91279e-06
2.98435e-06
2.47419e-06
7.46978e-05
5.65364e-05
2.92698e-05
2.65237e-05
1.24468e-05
1.06648e-05
7.46699e-06
6.2921e-06
5.93103e-06
5.31183e-06
4.28228e-06
3.27196e-06
2.60675e-06
2.89996e-06
3.3355e-06
2.88344e-06
3.14065e-06
3.20212e-06
3.22547e-06
2.46395e-06
1.68276e-06
2.10136e-06
3.0615e-06
3.52904e-06
3.29478e-06
2.71629e-06
2.57671e-06
2.66159e-06
3.20578e-06
3.4887e-06
6.71811e-05
3.00195e-05
2.61462e-05
2.47844e-05
1.55696e-05
1.29257e-05
8.75262e-06
7.21237e-06
6.92892e-06
7.19275e-06
6.49102e-06
5.5797e-06
4.33827e-06
3.95721e-06
3.81459e-06
3.55481e-06
3.93859e-06
3.47598e-06
3.48213e-06
2.98968e-06
2.75955e-06
3.36948e-06
4.90797e-06
5.45947e-06
4.26993e-06
3.12425e-06
3.32676e-06
4.33797e-06
4.03242e-06
5.21392e-06
4.58617e-05
2.46811e-05
2.31883e-05
1.81417e-05
1.14042e-05
9.99947e-06
6.39994e-06
5.60856e-06
4.92508e-06
6.12587e-06
6.92667e-06
7.16754e-06
6.13145e-06
5.22341e-06
4.43401e-06
4.13137e-06
3.95808e-06
3.18879e-06
3.48151e-06
3.12139e-06
2.698e-06
4.59186e-06
6.59783e-06
6.65837e-06
5.41326e-06
3.88997e-06
3.88544e-06
4.62406e-06
4.33126e-06
6.68037e-06
3.42154e-05
1.20998e-05
1.34482e-05
1.07882e-05
8.24115e-06
8.00101e-06
5.97245e-06
5.37592e-06
4.64687e-06
5.78856e-06
7.45806e-06
7.7516e-06
5.82811e-06
4.78814e-06
4.06463e-06
3.78663e-06
3.32381e-06
2.78735e-06
3.33543e-06
3.52712e-06
4.78771e-06
6.13928e-06
6.61376e-06
6.39015e-06
5.87414e-06
4.64137e-06
4.54905e-06
4.08429e-06
4.44058e-06
8.26826e-06
3.07241e-05
9.78691e-06
1.18789e-05
9.32124e-06
7.21978e-06
6.08283e-06
4.23319e-06
3.4901e-06
2.78315e-06
3.73867e-06
5.13624e-06
5.20954e-06
3.52501e-06
2.96074e-06
2.38102e-06
2.47968e-06
2.44227e-06
2.46631e-06
2.7074e-06
3.59134e-06
4.24965e-06
4.0399e-06
3.43879e-06
3.69565e-06
4.39803e-06
4.59005e-06
4.75666e-06
3.43463e-06
4.38431e-06
9.39275e-06
2.43602e-05
5.81306e-06
7.15848e-06
5.43378e-06
4.71553e-06
4.16765e-06
2.97262e-06
2.7082e-06
2.33438e-06
2.88555e-06
3.70969e-06
4.02197e-06
2.70966e-06
2.5194e-06
2.19223e-06
2.28717e-06
2.28563e-06
2.26231e-06
2.97945e-06
3.39894e-06
2.80036e-06
1.94569e-06
1.34333e-06
1.92644e-06
3.47292e-06
4.43665e-06
4.40438e-06
2.91044e-06
4.35787e-06
1.07578e-05
2.47312e-05
4.18183e-06
5.68728e-06
5.75625e-06
5.34159e-06
4.73494e-06
3.50633e-06
3.18476e-06
2.48736e-06
2.5472e-06
2.96131e-06
3.51277e-06
2.54951e-06
2.73767e-06
1.91967e-06
1.59164e-06
1.44538e-06
2.15402e-06
3.12205e-06
2.80674e-06
1.68013e-06
1.17567e-06
1.02002e-06
1.7534e-06
3.23336e-06
4.00022e-06
3.81442e-06
2.74438e-06
4.2029e-06
1.18224e-05
2.11766e-05
3.59751e-06
3.28213e-06
2.99044e-06
3.43014e-06
3.7224e-06
3.12003e-06
2.9323e-06
2.46079e-06
2.49756e-06
2.58772e-06
2.79284e-06
2.50477e-06
3.1339e-06
2.05342e-06
1.36681e-06
1.42198e-06
1.4673e-06
2.40222e-06
2.23302e-06
1.615e-06
1.39167e-06
1.51257e-06
2.17644e-06
3.08362e-06
3.42334e-06
3.3796e-06
2.70185e-06
3.89355e-06
1.31546e-05
2.18196e-05
3.2807e-06
2.82379e-06
2.31534e-06
2.62469e-06
3.40477e-06
3.40848e-06
3.28164e-06
2.7165e-06
2.5999e-06
2.32209e-06
2.54448e-06
2.64524e-06
3.17472e-06
3.09827e-06
2.26107e-06
2.53103e-06
1.95121e-06
1.56616e-06
1.499e-06
1.52692e-06
1.51541e-06
1.88498e-06
2.43271e-06
2.64145e-06
2.68334e-06
2.59081e-06
2.08947e-06
3.32753e-06
1.4189e-05
2.01226e-05
3.07349e-06
2.08367e-06
1.71021e-06
1.43997e-06
1.82276e-06
2.48078e-06
3.06577e-06
2.81806e-06
2.69239e-06
3.00953e-06
3.98641e-06
4.2865e-06
5.14009e-06
5.48486e-06
4.87474e-06
4.63614e-06
3.60015e-06
2.98703e-06
2.27294e-06
2.12105e-06
2.11755e-06
2.39176e-06
2.52405e-06
2.28057e-06
2.20547e-06
2.07001e-06
1.67222e-06
2.81628e-06
1.50857e-05
2.13729e-05
2.81491e-06
1.62186e-06
1.51344e-06
1.12068e-06
1.22477e-06
2.12303e-06
2.99191e-06
2.85944e-06
3.41689e-06
4.44223e-06
4.53671e-06
5.20263e-06
6.06092e-06
6.45951e-06
6.43049e-06
5.57912e-06
4.13766e-06
3.61468e-06
3.29452e-06
2.73484e-06
2.29065e-06
2.21805e-06
2.1166e-06
1.91699e-06
1.94857e-06
1.86929e-06
1.54482e-06
2.25984e-06
1.55993e-05
2.03788e-05
2.33137e-06
1.13898e-06
1.20244e-06
8.97982e-07
6.17764e-07
1.4418e-06
2.72471e-06
2.35307e-06
3.58855e-06
4.85981e-06
5.2573e-06
6.59093e-06
7.30298e-06
7.39684e-06
7.15289e-06
6.61253e-06
5.28888e-06
4.31932e-06
3.72196e-06
3.16743e-06
1.98745e-06
1.81366e-06
1.66115e-06
1.42892e-06
1.44614e-06
1.46343e-06
1.20574e-06
2.21824e-06
1.65678e-05
2.06773e-05
2.15645e-06
9.21115e-07
9.36413e-07
9.96559e-07
9.12469e-07
1.52584e-06
2.75432e-06
2.70936e-06
3.30752e-06
4.12321e-06
5.60881e-06
6.36658e-06
7.2222e-06
7.1979e-06
6.95922e-06
6.33334e-06
5.33346e-06
4.8928e-06
3.09536e-06
2.85331e-06
2.04331e-06
1.34957e-06
1.07327e-06
1.08711e-06
1.02943e-06
9.12199e-07
6.32753e-07
2.20374e-06
1.7263e-05
1.95866e-05
2.55293e-06
1.14924e-06
1.0356e-06
1.05151e-06
1.16368e-06
1.44989e-06
1.86553e-06
2.59534e-06
3.74551e-06
4.44409e-06
5.23096e-06
4.77967e-06
5.601e-06
6.38862e-06
6.4986e-06
5.61426e-06
4.93896e-06
5.07009e-06
4.25175e-06
3.80775e-06
2.70286e-06
1.66504e-06
1.07171e-06
1.09386e-06
9.31207e-07
7.33291e-07
6.41274e-07
2.23492e-06
1.79054e-05
1.95894e-05
2.81669e-06
1.07633e-06
1.00445e-06
1.17447e-06
1.50235e-06
1.61067e-06
1.95885e-06
2.95442e-06
4.09557e-06
4.35901e-06
4.74128e-06
4.14324e-06
5.12853e-06
6.22156e-06
6.4073e-06
5.59926e-06
4.94612e-06
5.41162e-06
4.64339e-06
3.93165e-06
2.91651e-06
1.60089e-06
9.82083e-07
9.933e-07
8.18867e-07
7.93438e-07
5.97609e-07
1.95865e-06
1.77959e-05
1.86046e-05
2.99789e-06
1.24846e-06
1.41386e-06
1.40802e-06
1.76124e-06
1.70125e-06
1.94739e-06
2.57456e-06
3.3907e-06
3.62835e-06
4.95597e-06
4.99441e-06
5.95225e-06
6.62297e-06
6.80733e-06
6.50045e-06
5.45835e-06
5.22697e-06
3.39278e-06
3.58401e-06
2.81517e-06
1.68158e-06
1.19351e-06
9.82392e-07
8.05827e-07
1.34217e-06
1.2234e-06
1.97911e-06
1.78296e-05
1.82044e-05
3.00598e-06
1.73049e-06
1.88858e-06
1.62762e-06
1.82398e-06
2.03439e-06
2.20075e-06
2.35403e-06
3.54827e-06
4.22545e-06
4.51466e-06
5.10003e-06
6.12369e-06
6.88271e-06
7.1338e-06
6.59233e-06
5.3105e-06
4.36304e-06
3.33691e-06
3.74471e-06
2.54726e-06
2.26548e-06
1.88347e-06
1.32103e-06
1.33448e-06
2.20657e-06
2.1369e-06
2.61573e-06
1.7629e-05
1.68976e-05
3.23653e-06
2.15938e-06
2.25706e-06
2.34884e-06
2.69936e-06
2.81178e-06
2.79199e-06
2.70099e-06
3.21984e-06
3.77908e-06
3.85549e-06
3.84669e-06
5.04335e-06
6.24906e-06
6.74154e-06
5.66746e-06
4.39181e-06
3.64821e-06
3.44891e-06
3.39909e-06
3.04162e-06
2.62458e-06
2.26312e-06
1.90818e-06
1.85196e-06
2.47492e-06
2.35527e-06
3.30574e-06
1.6958e-05
1.59621e-05
3.40702e-06
2.18549e-06
2.15258e-06
2.83553e-06
3.24565e-06
2.8391e-06
2.50758e-06
2.2521e-06
2.34202e-06
2.42393e-06
3.05011e-06
2.88545e-06
3.81688e-06
4.92998e-06
5.9736e-06
5.25417e-06
4.03349e-06
3.27133e-06
2.71791e-06
2.77966e-06
2.78186e-06
2.68733e-06
2.63804e-06
2.75136e-06
2.42822e-06
2.24127e-06
1.97748e-06
3.5371e-06
1.57685e-05
1.48424e-05
3.8909e-06
2.59719e-06
2.43832e-06
3.59201e-06
3.91955e-06
2.87745e-06
2.12229e-06
1.78518e-06
1.77364e-06
1.69984e-06
2.11921e-06
2.12552e-06
2.89387e-06
2.61012e-06
3.50321e-06
3.26649e-06
3.12215e-06
2.50243e-06
2.16711e-06
2.47209e-06
2.35521e-06
2.43804e-06
2.9737e-06
3.76629e-06
3.47921e-06
2.49893e-06
1.90528e-06
3.52786e-06
1.41874e-05
1.37877e-05
3.93698e-06
2.61006e-06
3.32545e-06
4.34364e-06
3.89128e-06
2.65229e-06
1.91385e-06
1.55473e-06
1.56069e-06
2.06714e-06
2.79008e-06
1.97292e-06
2.27405e-06
2.92844e-06
3.04723e-06
2.91077e-06
3.13879e-06
2.85053e-06