/*--------------------------------*- C++ -*----------------------------------*\
| =========                 |                                                 |
| \\      /  F ield         | OpenFOAM: The Open Source CFD Toolbox           |
|  \\    /   O peration     | Version:  v1906                                 |
|   \\  /    A nd           | Web:      www.OpenFOAM.com                      |
|    \\/     M anipulation  |                                                 |
\*---------------------------------------------------------------------------*/
FoamFile
{
    version     2.0;
    format      ascii;
    class       volScalarField;
    location    "0.65/oil";
    object      wallHeatFlux;
}
// * * * * * * * * * * * * * * * * * * * * * * * * * * * * * * * * * * * * * //

dimensions      [1 0 -3 0 0 0 0];


internalField   uniform 0;

boundaryField
{
    maxY
    {
        type            calculated;
        value           uniform 0;
    }
    minX
    {
        type            calculated;
        value           uniform 0;
    }
    maxX
    {
        type            calculated;
        value           uniform 0;
    }
    minY
    {
        type            calculated;
        value           uniform 0;
    }
    minZ
    {
        type            calculated;
        value           uniform 0;
    }
    maxZ
    {
        type            calculated;
        value           uniform 0;
    }
    oil_to_sphere
    {
        type            calculated;
        value           nonuniform List<scalar> 
1536
(
502176
460802
451414
530238
525467
510542
488597
461588
413664
415946
527177
418085
445016
415679
560778
540931
465061
409661
213434
440964
428967
521651
483316
543629
558533
557673
557605
545869
451773
486979
445000
424824
428487
558814
541950
536667
520669
551633
545568
551536
548979
539844
485819
436099
474582
429990
475529
485235
572520
488831
519689
476376
477986
477903
421810
393997
507081
490813
406658
353591
340046
356141
340806
240285
245128
428967
476051
408889
517648
471452
561230
525890
542802
552142
544126
435318
378452
463755
541234
399199
356879
339590
339481
341512
319337
342017
328494
457238
416091
354969
333831
205334
209929
240807
245485
431394
477689
387775
415545
509604
478048
560515
473500
463647
516134
553546
546164
471455
498767
425280
397302
431411
355533
350011
338845
329340
336798
326177
325225
333834
394455
334317
207175
426035
505701
486939
518288
463843
491068
525895
476784
522930
482546
522273
479566
529302
480429
400755
476002
498384
351743
341935
466375
397837
331810
403386
516256
402475
358899
527967
538961
393794
517682
513418
515336
351413
486440
334645
511993
372003
497767
390848
557149
553724
537747
520949
520850
336006
472922
338944
454755
445878
438643
415573
396794
368230
497225
397257
413934
504886
557094
549926
528524
550773
351731
468939
338303
455830
453180
471863
477008
525336
416385
497569
545179
495070
445654
489339
382130
501084
490517
509383
432238
364668
387451
396314
397320
396175
431689
347619
446310
401108
410248
368767
450011
432702
369791
414937
436688
363316
402414
462681
452140
407105
399434
417316
535178
412144
532107
575881
539276
484781
527279
372674
360499
451939
375165
378474
365761
418567
409244
226466
293299
437664
373804
471861
468875
405107
446761
356507
465999
573329
510348
526914
395589
523918
534012
446279
403100
398963
437437
331315
397812
294118
221965
265482
270183
239526
456021
412129
457204
425004
420233
471578
460684
422427
434614
363977
463408
409110
518628
502789
458340
424911
476730
491341
476900
510337
473889
448822
511175
355427
491275
378044
392552
405013
402570
373496
411260
417239
465635
448351
413139
394361
378552
509769
354856
547605
530168
333950
457285
327447
465613
464250
460896
439529
486897
480269
500097
407002
466821
444072
446270
520142
465880
429142
458235
408192
473981
406756
425581
398497
511132
452275
431106
493118
415305
462949
478002
391940
349788
451152
420065
440675
429421
429859
444480
444913
438097
485062
498463
516522
447983
511154
433245
479425
472911
453103
529287
435792
515114
481421
446487
527817
467833
474391
519577
500710
513066
471526
425250
529594
487126
462471
534810
459676
497746
500111
464786
349210
486415
385885
459240
393746
413663
504963
469755
355534
475235
416889
440234
405150
375255
414326
403672
373624
475598
361079
463819
399851
505680
470914
336977
507735
448077
398611
476793
384673
449209
411132
396340
393607
400814
414568
399823
383835
400761
399344
441978
411248
403288
413128
379042
337308
418840
371069
361447
396445
323741
351249
428238
375400
392246
388245
393079
382330
398414
317031
290193
338353
343870
398358
375752
355098
361298
421285
400190
431973
449594
404302
433038
420062
384026
376542
348439
337403
387622
320753
326273
379813
309176
328952
323567
376080
402174
461127
451967
417027
433660
487400
461767
447397
476848
390995
505073
454335
494177
423446
508104
445074
412573
469575
478272
403484
472377
508643
453786
473735
380676
508146
369970
505748
550117
560065
570724
584438
522854
525061
542518
551680
516274
356107
550368
524069
345998
342383
468706
524777
537172
357061
474299
517386
534258
522874
479265
389020
347405
398614
368699
345253
446774
409806
363435
405824
402664
310180
352287
360582
292535
356755
302958
372194
296104
385735
349711
363764
376129
423847
394009
377126
329836
406786
383715
341099
440778
415815
383679
440179
403294
397100
388991
311193
352613
397771
236589
293151
243740
288085
257469
257314
262597
264368
289637
388023
309865
328432
325890
307557
392219
309763
325694
330572
326607
373479
343338
372909
302535
480091
394309
364066
511017
441199
392323
484400
396698
434375
424788
406889
492434
426002
467740
449885
429882
430825
376772
390799
501961
477545
384991
480200
471252
403170
439326
394489
493641
504279
417176
467444
417153
436979
511508
367616
556810
555884
368696
405773
509658
559753
560386
457968
527547
567047
552617
547258
520302
522198
548109
362166
379686
472604
347908
517550
350283
345632
387925
514900
534084
516466
373682
525765
381871
483723
476067
347024
521743
345416
396306
327475
272909
360147
433214
369528
379474
374156
378136
385713
401514
332293
396389
356978
348403
357689
366551
289529
356455
360003
301239
363771
357444
290170
309363
389103
375298
307538
344918
453145
401917
374609
346020
406467
398675
385335
320881
276042
397483
423632
429894
442602
359952
385789
356946
396260
396139
334419
379611
330642
339379
266189
263022
233738
233781
284746
286032
221391
225993
296753
444342
463085
463554
466516
465595
462558
466606
470532
458713
405780
456652
450220
421939
489508
470256
457042
475672
489238
500930
482606
401340
432156
417799
458585
434612
447097
399758
485872
511883
431011
460749
435057
491978
469600
463444
458897
493425
466149
465098
495095
451646
471639
539949
505121
461923
506326
451833
493274
499452
453174
470224
509529
530358
431430
509913
475215
449781
526423
504710
471093
511833
506724
441450
421429
526965
502095
438786
519337
533918
506356
500777
490225
371485
462311
390057
423717
405584
448288
353881
500583
505841
356597
475904
468323
423065
417760
384995
495524
492741
450310
360321
498010
420364
434336
470662
379204
472860
399690
403646
438299
363591
504404
471619
486335
401616
415858
383485
469399
471394
407703
419770
395333
397571
400615
428020
401182
427864
343695
400109
385110
370797
394358
386333
325092
342043
395497
357399
422038
406908
386168
380135
440720
449759
410489
402006
412059
396155
392431
395379
323484
289001
404606
320153
388631
393200
355898
351617
398788
346765
442048
407657
399806
395095
398352
353579
431818
387868
470238
520603
425735
455058
367147
449651
366599
383132
473678
537871
411623
393158
474464
498278
450365
477382
344306
240844
540797
456447
469613
332596
237223
352353
476814
536863
523897
357897
488721
522602
482339
518451
428429
513389
459312
442505
484318
516176
463997
479667
505468
475484
493373
478505
481396
387850
433122
563116
413356
535426
437870
503259
459501
472700
415892
447416
543106
459176
534765
435687
440068
507161
379135
528235
558080
550151
507309
522254
526180
518089
525140
431298
425875
501284
386264
466123
442163
439474
507721
477637
515301
402803
466228
518037
511801
544932
476261
524282
526743
409377
480013
486496
479499
425965
481592
412628
459428
316705
401271
438114
417446
361340
419880
360026
348477
419025
423386
359361
446911
519547
498356
538889
470914
511305
546041
430041
559992
432348
462562
457705
417882
497379
357603
387467
477728
361308
426097
474153
418472
372286
293513
275624
459421
404813
245253
244407
274085
451723
347560
430268
342225
423972
360012
432000
351880
412887
514843
481100
529763
371216
358813
455066
464263
463523
515307
421547
542279
435094
439764
535821
415370
460673
506696
359637
528642
418532
408837
363949
466457
419647
471002
488917
416482
302695
375291
291737
459764
392665
249694
278517
243448
441462
443740
522606
466255
508956
515909
457077
516045
526156
523263
494880
439142
474408
489186
475681
406114
437784
405605
455081
555564
555151
577398
479615
459538
562576
545488
361699
487990
517317
421016
558680
561772
395628
507577
503698
425231
565210
562198
558492
395054
511770
519109
423347
567968
511115
418090
529818
482111
379207
518517
526022
517777
491188
560711
553962
562468
576170
366165
519465
575362
400884
494735
530144
526559
493637
455164
536130
472178
393969
511866
523904
529892
479746
566203
396491
509186
571141
394394
472100
532300
521811
511696
508699
526216
533446
484575
469485
461733
473240
458616
515649
396813
486938
475947
496253
495729
496070
489006
433076
385739
367400
402841
422596
406836
405747
416001
438182
367445
358736
470305
557611
560374
531756
375122
357241
500359
426156
537413
464699
357501
358899
406072
362981
356373
356936
363136
290228
229094
461195
470012
458489
477092
459066
484904
416605
574479
531675
424538
454780
357520
292341
231874
300024
349781
448219
357770
368062
456253
448636
428719
435617
475524
455430
529209
402879
389511
494508
493244
504978
397006
378488
427839
414836
416522
372971
347699
514501
437393
490384
496209
526650
516353
505178
375624
525813
511075
503559
537786
536745
483426
412683
439041
451356
469381
450042
447723
454562
431541
390344
461399
442248
442545
445784
453616
451052
462455
462714
477009
455707
494358
386188
458732
491069
446191
364072
456783
456529
492825
492948
460136
455894
442825
381487
437718
464838
490611
474703
447118
420055
440504
445839
497765
520442
413735
465929
510911
512815
509848
497266
504031
538701
408036
489304
510203
501337
508665
502553
505101
427404
432150
502689
491182
492992
462245
408302
433349
496416
500361
391320
437491
470178
474994
468859
435585
490143
469189
414077
427822
441198
401616
399613
357743
351123
422282
382674
386377
387566
275375
282976
379889
437565
390395
391086
392623
381289
373238
318377
392732
381246
336108
450488
438215
321971
388631
432277
326399
371162
380160
322836
453463
473840
363087
426198
375697
367054
373775
445089
431926
498676
461787
371181
444536
526309
399591
451109
466974
472477
456262
481661
461513
487291
489589
400086
438274
458004
457958
466846
490009
574973
355132
532622
570284
391200
529050
530050
505882
430815
508938
399295
557925
376915
483344
484858
549223
526065
526416
496275
333022
525942
452253
407556
441725
389070
290524
307669
426574
393339
398554
380151
446553
348083
382003
289222
424521
384275
224476
224082
300907
224566
303187
287971
247126
457266
300676
383729
446855
448509
428822
433808
381251
374460
374870
366712
443058
434504
359964
472311
454339
429713
507163
460451
485379
456532
371593
449516
519839
410120
470964
472201
470850
491123
429303
472548
505230
439491
401583
530736
546783
537730
578740
562299
500912
554999
393647
496735
428339
518149
536796
462918
537968
495831
483583
490914
537600
458534
391419
499300
426368
400054
404692
374945
464399
392757
378233
301227
428781
385214
451541
371687
293804
290985
247341
447208
458752
487330
431360
470480
453891
464000
450912
471454
480991
511328
392220
432822
485581
437309
447749
465994
474349
494669
497678
471412
455941
461177
525331
508132
533866
367588
475981
509480
503105
505732
511043
393496
503526
530661
412280
506550
498591
414873
486309
499423
492369
480201
409116
491999
478583
488331
465731
336867
401659
391035
284552
380948
438552
335817
434776
383106
375160
424407
448521
)
;
    }
}


// ************************************************************************* //
