/*--------------------------------*- C++ -*----------------------------------*\
| =========                 |                                                 |
| \\      /  F ield         | OpenFOAM: The Open Source CFD Toolbox           |
|  \\    /   O peration     | Version:  v1906                                 |
|   \\  /    A nd           | Web:      www.OpenFOAM.com                      |
|    \\/     M anipulation  |                                                 |
\*---------------------------------------------------------------------------*/
FoamFile
{
    version     2.0;
    format      ascii;
    class       surfaceScalarField;
    location    "77.8/oil";
    object      phi;
}
// * * * * * * * * * * * * * * * * * * * * * * * * * * * * * * * * * * * * * //

dimensions      [1 0 -1 0 0 0 0];
oriented        oriented;


internalField   nonuniform List<scalar> 
80688
(
-2.1177e-06
-2.1534e-06
-2.11769e-06
-9.55276e-07
-6.01208e-07
-5.61214e-07
-2.56218e-07
-3.5218e-07
-3.46879e-07
-1.20096e-07
-6.87144e-08
-6.74067e-08
-3.90334e-08
-4.09528e-08
-4.011e-08
1.72538e-09
-2.05398e-08
-2.02189e-08
2.45468e-08
-1.12881e-08
-1.15332e-08
3.73689e-08
-6.07904e-09
-6.74296e-09
4.35991e-08
-2.67718e-09
-3.55293e-09
4.47036e-08
-1.22697e-10
-9.81776e-10
4.14622e-08
1.99377e-09
1.24772e-09
3.45254e-08
3.73967e-09
3.19716e-09
2.46089e-08
5.11409e-09
4.80242e-09
1.25728e-08
6.07836e-09
5.95775e-09
-5.89479e-10
6.58777e-09
6.57455e-09
-1.38166e-08
6.61965e-09
6.60754e-09
-2.6062e-08
6.18139e-09
6.06402e-09
-3.63828e-08
5.31362e-09
5.00716e-09
-4.40261e-08
4.08961e-09
3.55367e-09
-4.84879e-08
2.60249e-09
1.85938e-09
-4.95606e-08
9.58531e-10
1.14115e-10
-4.73174e-08
-7.09692e-10
-1.53341e-09
-4.2159e-08
-2.28423e-09
-2.87417e-09
-3.47395e-08
-3.67036e-09
-3.74911e-09
-2.59524e-08
-4.7368e-09
-4.05032e-09
-1.68832e-08
-5.33655e-09
-3.73262e-09
-8.74273e-09
-5.27917e-09
-2.86127e-09
-2.74215e-09
-4.33124e-09
-1.66932e-09
1.805e-10
-2.27753e-09
-6.45088e-10
3.56245e-10
-1.75728e-10
-5.68969e-07
-1.01547e-06
-5.68961e-07
-3.36368e-07
-3.78792e-07
-4.55017e-07
-2.32286e-07
-2.63086e-07
-1.93175e-07
-9.91792e-08
-1.25844e-07
-7.59775e-08
-1.90443e-08
-8.42129e-08
-3.68747e-08
3.1228e-08
-5.79486e-08
-1.28634e-08
6.38781e-08
-4.4084e-08
1.45892e-10
8.39155e-08
-3.46783e-08
8.56187e-09
9.3703e-08
-2.74286e-08
1.49639e-08
9.4376e-08
-2.12188e-08
2.04233e-08
8.67942e-08
-1.57243e-08
2.52999e-08
7.19351e-08
-1.0973e-08
2.95718e-08
5.11189e-08
-7.1283e-09
3.30586e-08
2.60384e-08
-4.39791e-09
3.55568e-08
-1.31752e-09
-2.94528e-09
3.6889e-08
-2.88024e-08
-2.85752e-09
3.69621e-08
-5.42938e-08
-4.11733e-09
3.57902e-08
-7.58821e-08
-6.59766e-09
3.34995e-08
-9.20382e-08
-1.00728e-08
3.03186e-08
-1.01741e-07
-1.42362e-08
2.65418e-08
-1.04566e-07
-1.87342e-08
2.2517e-08
-1.00692e-07
-2.3176e-08
1.85928e-08
-9.08921e-08
-2.71697e-08
1.50856e-08
-7.64803e-08
-3.03161e-08
1.2234e-08
-5.92068e-08
-3.21939e-08
1.01837e-08
-4.11322e-08
-3.23338e-08
8.92264e-09
-2.44433e-08
-3.01929e-08
8.22488e-09
-1.11836e-08
-2.51676e-08
7.57667e-09
-2.85264e-09
-1.67028e-08
6.09427e-09
-5.35621e-09
2.85984e-09
-3.52013e-07
-3.11455e-07
-3.52005e-07
-2.27487e-07
-3.08886e-07
-1.94433e-07
-1.38585e-07
-2.36705e-07
-1.15282e-07
-4.8835e-08
-1.64747e-07
-5.08475e-08
1.6026e-08
-1.32464e-07
-1.66096e-08
6.38626e-08
-1.1064e-07
4.85457e-09
9.77178e-08
-9.6301e-08
1.83618e-08
1.19398e-07
-8.45982e-08
2.824e-08
1.29649e-07
-7.40628e-08
3.63828e-08
1.2889e-07
-6.40977e-08
4.36386e-08
1.1772e-07
-5.47672e-08
5.02127e-08
9.71801e-08
-4.64319e-08
5.59988e-08
6.88992e-08
-3.95695e-08
6.07221e-08
3.50427e-08
-3.46449e-08
6.41036e-08
-1.78933e-09
-3.20163e-08
6.5903e-08
-3.87789e-08
-3.18673e-08
6.59993e-08
-7.31327e-08
-3.41723e-08
6.44088e-08
-1.02331e-07
-3.86899e-08
6.12909e-08
-1.24366e-07
-4.49784e-08
5.69399e-08
-1.3789e-07
-5.24439e-08
5.17316e-08
-1.42346e-07
-6.03844e-08
4.61069e-08
-1.37966e-07
-6.80376e-08
4.04813e-08
-1.25756e-07
-7.46205e-08
3.52412e-08
-1.07384e-07
-7.93372e-08
3.06489e-08
-8.5045e-08
-8.13667e-08
2.68339e-08
-6.12714e-08
-7.98304e-08
2.37229e-08
-3.86729e-08
-7.37662e-08
2.09749e-08
-1.96469e-08
-6.21024e-08
1.79089e-08
-6.11731e-09
-4.36577e-08
1.34253e-08
-1.75989e-08
6.12537e-09
-6.33704e-08
-1.84724e-07
-6.33612e-08
-7.59257e-08
-2.27205e-07
-6.91255e-08
-4.31957e-08
-2.23147e-07
-4.62879e-08
8.47393e-09
-2.02124e-07
-1.42925e-08
5.68338e-08
-1.88593e-07
7.76914e-09
9.80389e-08
-1.75885e-07
2.40398e-08
1.2964e-07
-1.64162e-07
3.62599e-08
1.50485e-07
-1.51862e-07
4.64187e-08
1.59729e-07
-1.38836e-07
5.5529e-08
1.5698e-07
-1.25363e-07
6.40143e-08
1.42476e-07
-1.12119e-07
7.18554e-08
1.172e-07
-9.99675e-08
7.88113e-08
8.29346e-08
-8.9814e-08
8.45103e-08
4.21689e-08
-8.24732e-08
8.8594e-08
-2.06835e-09
-7.85441e-08
9.07651e-08
-4.64655e-08
-7.83414e-08
9.08713e-08
-8.77334e-08
-8.18337e-08
8.89292e-08
-1.22907e-07
-8.86443e-08
8.51285e-08
-1.49615e-07
-9.80808e-08
7.98104e-08
-1.66286e-07
-1.09195e-07
7.34217e-08
-1.72256e-07
-1.20875e-07
6.64604e-08
-1.67799e-07
-1.31909e-07
5.94154e-08
-1.54058e-07
-1.41063e-07
5.27017e-08
-1.32927e-07
-1.47071e-07
4.66029e-08
-1.06863e-07
-1.48665e-07
4.12337e-08
-7.86577e-08
-1.44511e-07
3.64761e-08
-5.11863e-08
-1.33155e-07
3.19172e-08
-2.71312e-08
-1.1292e-07
2.67622e-08
-8.95996e-09
-8.15641e-08
1.97352e-08
-3.55274e-08
8.9686e-09
-2.81522e-08
-1.2843e-07
-2.81419e-08
-2.22593e-08
-2.09769e-07
-2.33281e-08
7.04537e-09
-2.45033e-07
-7.4191e-09
4.85297e-08
-2.554e-07
1.17924e-08
9.06319e-08
-2.58109e-07
2.7414e-08
1.2857e-07
-2.54306e-07
4.04832e-08
1.58708e-07
-2.46038e-07
5.17388e-08
1.78648e-07
-2.339e-07
6.20974e-08
1.86698e-07
-2.18901e-07
7.20162e-08
1.8194e-07
-2.02197e-07
8.15923e-08
1.64335e-07
-1.85126e-07
9.06119e-08
1.3482e-07
-1.69132e-07
9.86796e-08
9.52853e-08
-1.55611e-07
1.05331e-07
4.84817e-08
-1.4577e-07
1.10101e-07
-2.19816e-09
-1.405e-07
1.12636e-07
-5.3027e-08
-1.40257e-07
1.12745e-07
-1.00288e-07
-1.45012e-07
1.10439e-07
-1.40638e-07
-1.54238e-07
1.05944e-07
-1.71405e-07
-1.66967e-07
9.96522e-08
-1.90824e-07
-1.81862e-07
9.20859e-08
-1.98156e-07
-1.97364e-07
8.38208e-08
-1.93697e-07
-2.11775e-07
7.54068e-08
-1.78708e-07
-2.23347e-07
6.72951e-08
-1.55247e-07
-2.30338e-07
5.98059e-08
-1.25964e-07
-2.30996e-07
5.30478e-08
-9.38626e-08
-2.23487e-07
4.6875e-08
-6.20423e-08
-2.05794e-07
4.08193e-08
-3.35091e-08
-1.75434e-07
3.39811e-08
-1.13078e-08
-1.28677e-07
2.49114e-08
-5.81524e-08
1.13171e-08
-4.29167e-09
-1.19858e-07
-4.28022e-09
1.1226e-08
-2.30154e-07
4.86744e-09
4.07661e-08
-2.91778e-07
1.72054e-08
7.91126e-08
-3.24346e-07
3.05987e-08
1.1904e-07
-3.40802e-07
4.2765e-08
1.558e-07
-3.45143e-07
5.40779e-08
1.85401e-07
-3.40568e-07
6.49274e-08
2.04829e-07
-3.29042e-07
7.57141e-08
2.11884e-07
-3.12519e-07
8.65631e-08
2.05289e-07
-2.92938e-07
9.7336e-08
1.84816e-07
-2.72298e-07
1.07646e-07
1.51357e-07
-2.52625e-07
1.16952e-07
1.06909e-07
-2.35826e-07
1.24664e-07
5.44741e-08
-2.2354e-07
1.30204e-07
-2.21394e-09
-2.16953e-07
1.33141e-07
-5.90293e-08
-2.16687e-07
1.33245e-07
-1.11855e-07
-2.22712e-07
1.30526e-07
-1.5698e-07
-2.3435e-07
1.25237e-07
-1.91457e-07
-2.50336e-07
1.17846e-07
-2.13352e-07
-2.68934e-07
1.08966e-07
-2.21861e-07
-2.88122e-07
9.9268e-08
-2.17316e-07
-3.05687e-07
8.93677e-08
-2.0109e-07
-3.19385e-07
7.98122e-08
-1.75393e-07
-3.26969e-07
7.09346e-08
-1.43068e-07
-3.2618e-07
6.28582e-08
-1.07318e-07
-3.14654e-07
5.54177e-08
-7.14953e-08
-2.89714e-07
4.80972e-08
-3.89373e-08
-2.47887e-07
3.98954e-08
-1.32472e-08
-1.8354e-07
2.91731e-08
-8.46569e-08
1.32573e-08
6.52262e-09
-1.32916e-07
6.53528e-09
2.88921e-08
-2.72544e-07
2.00199e-08
6.19553e-08
-3.56991e-07
3.21496e-08
1.01502e-07
-4.07533e-07
4.36413e-08
1.42188e-07
-4.35978e-07
5.44907e-08
1.79593e-07
-4.47802e-07
6.52543e-08
2.09702e-07
-4.46994e-07
7.6317e-08
2.29226e-07
-4.36459e-07
8.78934e-08
2.35684e-07
-4.18909e-07
9.99307e-08
2.27553e-07
-3.96933e-07
1.12127e-07
2.04463e-07
-3.73155e-07
1.23947e-07
1.67296e-07
-3.50157e-07
1.347e-07
1.18171e-07
-3.30345e-07
1.43644e-07
6.0326e-08
-3.15784e-07
1.50088e-07
-2.14927e-09
-3.07978e-07
1.535e-07
-6.47276e-08
-3.07702e-07
1.53594e-07
-1.22887e-07
-3.14934e-07
1.50381e-07
-1.72552e-07
-3.28844e-07
1.4416e-07
-2.10504e-07
-3.47872e-07
1.35488e-07
-2.34644e-07
-3.69878e-07
1.25084e-07
-2.44127e-07
-3.92372e-07
1.13734e-07
-2.39339e-07
-4.12657e-07
1.02181e-07
-2.21781e-07
-4.27981e-07
9.10373e-08
-1.93833e-07
-4.35608e-07
8.06914e-08
-1.58536e-07
-4.32767e-07
7.12896e-08
-1.19317e-07
-4.16521e-07
6.26474e-08
-7.97834e-08
-3.83446e-07
5.41982e-08
-4.361e-08
-3.28904e-07
4.48439e-08
-1.48823e-08
-2.45022e-07
3.27547e-08
-1.14433e-07
1.48936e-08
1.21495e-08
-1.57228e-07
1.21632e-08
3.96417e-08
-3.28994e-07
2.89577e-08
7.65148e-08
-4.35675e-07
4.18107e-08
1.18611e-07
-5.02615e-07
5.29851e-08
1.61306e-07
-5.42304e-07
6.36304e-08
2.00321e-07
-5.61414e-07
7.45971e-08
2.31613e-07
-5.64642e-07
8.63563e-08
2.51741e-07
-5.55657e-07
9.90702e-08
2.57984e-07
-5.37736e-07
1.12584e-07
2.4865e-07
-5.1406e-07
1.26461e-07
2.2324e-07
-4.87781e-07
1.40036e-07
1.82629e-07
-4.6202e-07
1.52473e-07
1.29056e-07
-4.3964e-07
1.62868e-07
6.60232e-08
-4.23117e-07
1.70366e-07
-2.03298e-09
-4.14247e-07
1.74325e-07
-7.01699e-08
-4.13975e-07
1.7441e-07
-1.33447e-07
-4.22281e-07
1.70625e-07
-1.87425e-07
-4.38186e-07
1.63319e-07
-2.2861e-07
-4.59834e-07
1.53147e-07
-2.54755e-07
-4.8472e-07
1.40987e-07
-2.64996e-07
-5.09897e-07
1.27766e-07
-2.59804e-07
-5.32202e-07
1.14353e-07
-2.40813e-07
-5.48414e-07
1.01443e-07
-2.10606e-07
-5.55324e-07
8.95079e-08
-1.72437e-07
-5.49659e-07
7.87239e-08
-1.29961e-07
-5.27894e-07
6.8897e-08
-8.70363e-08
-4.85774e-07
5.94027e-08
-4.76449e-08
-4.17334e-07
4.90386e-08
-1.62806e-08
-3.1218e-07
3.57929e-08
-1.47007e-07
1.62931e-08
1.53179e-08
-1.87878e-07
1.53324e-08
4.65165e-08
-3.94729e-07
3.45365e-08
8.68024e-08
-5.24285e-07
4.83237e-08
1.3172e-07
-6.07363e-07
5.98304e-08
1.76849e-07
-6.58273e-07
7.08408e-08
2.17892e-07
-6.8492e-07
8.24636e-08
2.50751e-07
-6.92758e-07
9.52571e-08
2.71821e-07
-6.86097e-07
1.0937e-07
2.78205e-07
-6.68731e-07
1.24611e-07
2.6801e-07
-6.44296e-07
1.40431e-07
2.40654e-07
-6.1644e-07
1.56015e-07
1.96962e-07
-5.88693e-07
1.70365e-07
1.39296e-07
-5.64357e-07
1.82384e-07
7.141e-08
-5.4629e-07
1.91058e-07
-1.89004e-09
-5.36587e-07
1.9564e-07
-7.52491e-08
-5.36328e-07
1.95712e-07
-1.43307e-07
-5.45502e-07
1.91278e-07
-2.01262e-07
-5.62982e-07
1.82752e-07
-2.45355e-07
-5.86661e-07
1.7092e-07
-2.73212e-07
-6.13657e-07
1.56795e-07
-2.83972e-07
-6.40599e-07
1.41461e-07
-2.7821e-07
-6.63938e-07
1.25973e-07
-2.57732e-07
-6.80035e-07
1.11142e-07
-2.25345e-07
-6.85231e-07
9.75195e-08
-1.84509e-07
-6.75787e-07
8.52919e-08
-1.39099e-07
-6.47568e-07
7.42647e-08
-9.32003e-08
-5.95467e-07
6.37941e-08
-5.10478e-08
-5.12036e-07
5.25487e-08
-1.74551e-08
-3.841e-07
3.83276e-08
-1.8193e-07
1.74687e-08
1.72207e-08
-2.22335e-07
1.72358e-08
5.10411e-08
-4.66657e-07
3.81079e-08
9.40339e-08
-6.1998e-07
5.27027e-08
1.4145e-07
-7.19515e-07
6.47365e-08
1.88837e-07
-7.82032e-07
7.63708e-08
2.31864e-07
-8.16827e-07
8.888e-08
2.66369e-07
-8.3018e-07
1.02916e-07
2.88546e-07
-8.26916e-07
1.18642e-07
2.95348e-07
-8.11323e-07
1.35789e-07
2.84698e-07
-7.87396e-07
1.5375e-07
2.55836e-07
-7.59126e-07
1.71549e-07
2.09576e-07
-7.30429e-07
1.87995e-07
1.48374e-07
-7.04969e-07
2.01814e-07
7.62188e-08
-6.85946e-07
2.11812e-07
-1.73973e-09
-6.75694e-07
2.17066e-07
-7.97392e-08
-6.75455e-07
2.17126e-07
-1.52016e-07
-6.8522e-07
2.11995e-07
-2.13412e-07
-7.03717e-07
2.02131e-07
-2.59923e-07
-7.28595e-07
1.88446e-07
-2.89094e-07
-7.56646e-07
1.7216e-07
-3.00084e-07
-7.84176e-07
1.54567e-07
-2.93613e-07
-8.07255e-07
1.36846e-07
-2.71693e-07
-8.21912e-07
1.19958e-07
-2.37322e-07
-8.2414e-07
1.04538e-07
-1.94178e-07
-8.09761e-07
9.08306e-08
-1.46324e-07
-7.7407e-07
7.86474e-08
-9.80376e-08
-7.11007e-07
6.72537e-08
-5.37116e-08
-6.11608e-07
5.5246e-08
-1.83792e-08
-4.5972e-07
4.02877e-08
-2.18703e-07
1.83936e-08
1.83255e-08
-2.59e-07
1.83399e-08
5.37845e-08
-5.4234e-07
4.0224e-08
9.85506e-08
-7.20141e-07
5.53953e-08
1.47703e-07
-8.36585e-07
6.79177e-08
1.96777e-07
-9.11297e-07
8.01911e-08
2.41403e-07
-9.55109e-07
9.36553e-08
2.77318e-07
-9.75115e-07
1.09021e-07
3.00617e-07
-9.76662e-07
1.26446e-07
3.08053e-07
-9.64383e-07
1.45625e-07
2.97348e-07
-9.4254e-07
1.65849e-07
2.67587e-07
-9.15355e-07
1.8599e-07
2.19512e-07
-8.87039e-07
2.04686e-07
1.55617e-07
-8.61508e-07
2.20434e-07
8.00933e-08
-8.42263e-07
2.3184e-07
-1.59742e-09
-8.31827e-07
2.37824e-07
-8.33126e-08
-8.3161e-07
2.3787e-07
-1.58913e-07
-8.41589e-07
2.3197e-07
-2.22912e-07
-8.60389e-07
2.2067e-07
-2.71136e-07
-8.85416e-07
2.05045e-07
-3.01072e-07
-9.13193e-07
1.86483e-07
-3.11929e-07
-9.39789e-07
1.6647e-07
-3.04629e-07
-9.60963e-07
1.46408e-07
-2.81399e-07
-9.72556e-07
1.27413e-07
-2.45425e-07
-9.70295e-07
1.10181e-07
-2.00561e-07
-9.49634e-07
9.50094e-08
-1.51015e-07
-9.05327e-07
8.17118e-08
-1.01133e-07
-8.30425e-07
6.95357e-08
-5.54107e-08
-7.14303e-07
5.69732e-08
-1.89834e-08
-5.37672e-07
4.1525e-08
-2.56685e-07
1.89984e-08
1.87611e-08
-2.96537e-07
1.87752e-08
5.48119e-08
-6.19373e-07
4.0982e-08
1.00209e-07
-8.21893e-07
5.63549e-08
1.50003e-07
-9.55572e-07
6.91918e-08
1.99809e-07
-1.04314e-06
8.20396e-08
2.45258e-07
-1.09696e-06
9.64032e-08
2.82088e-07
-1.12497e-06
1.1303e-07
3.06332e-07
-1.13303e-06
1.32123e-07
3.14537e-07
-1.12591e-06
1.53326e-07
3.04271e-07
-1.10812e-06
1.75844e-07
2.74425e-07
-1.08393e-06
1.98418e-07
2.25551e-07
-1.05765e-06
2.19481e-07
1.60185e-07
-1.03343e-06
2.37287e-07
8.25951e-08
-1.01489e-06
2.50212e-07
-1.47057e-09
-1.00476e-06
2.57002e-07
-8.55485e-08
-1.00457e-06
2.57039e-07
-1.63165e-07
-1.0143e-06
2.5033e-07
-2.28603e-07
-1.03243e-06
2.37485e-07
-2.77531e-07
-1.05623e-06
2.19746e-07
-3.07441e-07
-1.08205e-06
1.98769e-07
-3.17758e-07
-1.10576e-06
1.76285e-07
-3.09548e-07
-1.12307e-06
1.53892e-07
-2.85254e-07
-1.12967e-06
1.32822e-07
-2.48266e-07
-1.12114e-06
1.13855e-07
-2.02535e-07
-1.09271e-06
9.73432e-08
-1.52296e-07
-1.03864e-06
8.30689e-08
-1.01922e-07
-9.51053e-07
7.02542e-08
-5.58565e-08
-8.17726e-07
5.73583e-08
-1.91525e-08
-6.16162e-07
4.17857e-08
-2.95005e-07
1.91674e-08
1.85236e-08
-3.33599e-07
1.85388e-08
5.39746e-08
-6.95152e-07
4.03278e-08
9.8559e-08
-9.21921e-07
5.54442e-08
1.47556e-07
-1.07284e-06
6.82713e-08
1.96714e-07
-1.17373e-06
8.14272e-08
2.41867e-07
-1.23858e-06
9.64672e-08
2.78841e-07
-1.27609e-06
1.14144e-07
3.03637e-07
-1.29253e-06
1.34703e-07
3.12732e-07
-1.29279e-06
1.57779e-07
3.0347e-07
-1.28136e-06
1.82502e-07
2.7451e-07
-1.26247e-06
2.07503e-07
2.26235e-07
-1.24034e-06
2.30965e-07
1.6103e-07
-1.21913e-06
2.50904e-07
8.31908e-08
-1.20249e-06
2.65441e-07
-1.36644e-09
-1.19331e-06
2.731e-07
-8.59263e-08
-1.19314e-06
2.73124e-07
-1.63777e-07
-1.20197e-06
2.65513e-07
-2.28986e-07
-1.21825e-06
2.51027e-07
-2.77239e-07
-1.23911e-06
2.3113e-07
-3.06185e-07
-1.26084e-06
2.07737e-07
-3.15418e-07
-1.27936e-06
1.82836e-07
-3.06257e-07
-1.29043e-06
1.58206e-07
-2.81338e-07
-1.28979e-06
1.35197e-07
-2.44175e-07
-1.27302e-06
1.14723e-07
-1.98716e-07
-1.23527e-06
9.71002e-08
-1.49174e-07
-1.17029e-06
8.21148e-08
-9.97349e-08
-1.06947e-06
6.89774e-08
-5.46396e-08
-9.18918e-07
5.6097e-08
-1.87687e-08
-6.92872e-07
4.08398e-08
-3.32557e-07
1.87835e-08
1.75236e-08
-3.68652e-07
1.75297e-08
5.09428e-08
-7.66582e-07
3.80113e-08
9.30043e-08
-1.01626e-06
5.2278e-08
1.39358e-07
-1.18387e-06
6.46778e-08
1.86164e-07
-1.29829e-06
7.77581e-08
2.29535e-07
-1.37502e-06
9.30638e-08
2.65528e-07
-1.42351e-06
1.11425e-07
2.90259e-07
-1.45031e-06
1.33053e-07
3.00209e-07
-1.46037e-06
1.57631e-07
2.92566e-07
-1.45794e-06
1.8423e-07
2.6574e-07
-1.44702e-06
2.11378e-07
2.19828e-07
-1.43158e-06
2.37152e-07
1.56928e-07
-1.41552e-06
2.59293e-07
8.12531e-08
-1.40237e-06
2.75558e-07
-1.2841e-09
-1.39494e-06
2.84172e-07
-8.38142e-08
-1.39479e-06
2.84185e-07
-1.59459e-07
-1.40192e-06
2.75599e-07
-2.22323e-07
-1.41475e-06
2.59364e-07
-2.68193e-07
-1.43052e-06
2.37279e-07
-2.94957e-07
-1.44564e-06
2.11556e-07
-3.02498e-07
-1.45624e-06
1.84423e-07
-2.92424e-07
-1.4584e-06
1.57895e-07
-2.67519e-07
-1.44809e-06
1.33394e-07
-2.31312e-07
-1.42105e-06
1.11822e-07
-1.87679e-07
-1.37242e-06
9.3522e-08
-1.40558e-07
-1.29566e-06
7.82491e-08
-9.38265e-08
-1.18135e-06
6.51508e-08
-5.13996e-08
-1.01406e-06
5.27112e-08
-1.76744e-08
-7.64943e-07
3.83456e-08
-3.6792e-07
1.76883e-08
1.56422e-08
-3.99944e-07
1.56493e-08
4.5377e-08
-8.30115e-07
3.3798e-08
8.29054e-08
-1.10034e-06
4.65553e-08
1.24463e-07
-1.28339e-06
5.79576e-08
1.66772e-07
-1.41101e-06
7.04131e-08
2.06455e-07
-1.5001e-06
8.54039e-08
2.39981e-07
-1.56077e-06
1.03738e-07
2.63752e-07
-1.59975e-06
1.25663e-07
2.74382e-07
-1.62192e-06
1.50923e-07
2.6896e-07
-1.6312e-06
1.7868e-07
2.45645e-07
-1.63113e-06
2.07421e-07
2.04218e-07
-1.6252e-06
2.35048e-07
1.46372e-07
-1.61672e-06
2.59041e-07
7.59805e-08
-1.60888e-06
2.76903e-07
-1.22369e-09
-1.60418e-06
2.86447e-07
-7.84128e-08
-1.60405e-06
2.8645e-07
-1.48768e-07
-1.60848e-06
2.76916e-07
-2.06547e-07
-1.61604e-06
2.59068e-07
-2.47892e-07
-1.62425e-06
2.35078e-07
-2.71072e-07
-1.62994e-06
2.07488e-07
-2.76338e-07
-1.6298e-06
1.78821e-07
-2.65566e-07
-1.62029e-06
1.51118e-07
-2.41619e-07
-1.59791e-06
1.25881e-07
-2.07851e-07
-1.55882e-06
1.04e-07
-1.67926e-07
-1.49805e-06
8.5699e-08
-1.25327e-07
-1.40899e-06
7.07283e-08
-8.34965e-08
-1.28145e-06
5.82699e-08
-4.57072e-08
-1.09869e-06
4.68412e-08
-1.57432e-08
-8.28927e-07
3.402e-08
-3.99419e-07
1.57563e-08
1.27855e-08
-4.25519e-07
1.27895e-08
3.70495e-08
-8.81865e-07
2.74863e-08
6.7726e-08
-1.16897e-06
3.79446e-08
1.02011e-07
-1.36534e-06
4.76697e-08
1.37358e-07
-1.50513e-06
5.87727e-08
1.71092e-07
-1.60642e-06
7.25866e-08
2.003e-07
-1.67986e-06
8.98805e-08
2.21877e-07
-1.73231e-06
1.10988e-07
2.32701e-07
-1.76845e-06
1.35707e-07
2.29973e-07
-1.79174e-06
1.63264e-07
2.11714e-07
-1.80509e-06
1.9222e-07
1.77223e-07
-1.81125e-06
2.20548e-07
1.27711e-07
-1.81278e-06
2.45576e-07
6.64959e-08
-1.81212e-06
2.64455e-07
-1.17897e-09
-1.81116e-06
2.74655e-07
-6.88313e-08
-1.81105e-06
2.74651e-07
-1.29985e-07
-1.81178e-06
2.6445e-07
-1.79395e-07
-1.8122e-06
2.45573e-07
-2.13781e-07
-1.81044e-06
2.20575e-07
-2.31902e-07
-1.8041e-06
1.92275e-07
-2.34493e-07
-1.79053e-06
1.63323e-07
-2.23485e-07
-1.7671e-06
1.358e-07
-2.01683e-07
-1.73083e-06
1.11114e-07
-1.72278e-07
-1.67826e-06
9.00387e-08
-1.38295e-07
-1.6048e-06
7.27706e-08
-1.02713e-07
-1.50355e-06
5.8974e-08
-6.81654e-08
-1.36387e-06
4.78728e-08
-3.72601e-08
-1.16772e-06
3.81327e-08
-1.28523e-08
-8.80971e-07
2.76358e-08
-4.25136e-07
1.28644e-08
8.90228e-09
-4.43329e-07
8.90832e-09
2.57435e-08
-9.17685e-07
1.89791e-08
4.72388e-08
-1.21678e-06
2.63241e-08
7.16145e-08
-1.42332e-06
3.36073e-08
9.73471e-08
-1.57335e-06
4.24822e-08
1.22599e-07
-1.68573e-06
5.40558e-08
1.45314e-07
-1.77154e-06
6.89598e-08
1.63095e-07
-1.83764e-06
8.75455e-08
1.73356e-07
-1.88846e-06
1.09746e-07
1.7357e-07
-1.92694e-06
1.3499e-07
1.61715e-07
-1.95528e-06
1.62044e-07
1.36784e-07
-1.97525e-06
1.88931e-07
9.93487e-08
-1.98841e-06
2.13064e-07
5.19093e-08
-1.99622e-06
2.31541e-07
-1.14714e-09
-1.99972e-06
2.4161e-07
-5.41813e-08
-1.99964e-06
2.41625e-07
-1.01566e-07
-1.99593e-06
2.31542e-07
-1.38879e-07
-1.98792e-06
2.13033e-07
-1.63668e-07
-1.97455e-06
1.889e-07
-1.7536e-07
-1.95443e-06
1.62026e-07
-1.74962e-07
-1.92592e-06
1.3499e-07
-1.64506e-07
-1.88732e-06
1.0977e-07
-1.46515e-07
-1.83642e-06
8.75972e-08
-1.23583e-07
-1.77023e-06
6.90377e-08
-9.8096e-08
-1.68444e-06
5.41562e-08
-7.21555e-08
-1.57208e-06
4.25985e-08
-4.75738e-08
-1.42218e-06
3.37304e-08
-2.5906e-08
-1.21583e-06
2.64419e-08
-8.95135e-09
-9.17003e-07
1.90779e-08
-4.4305e-07
8.96256e-09
4.03341e-09
-4.51391e-07
4.0282e-09
1.16259e-08
-9.33643e-07
8.36517e-09
2.16262e-08
-1.23855e-06
1.17607e-08
3.3571e-08
-1.4511e-06
1.58259e-08
4.69863e-08
-1.60829e-06
2.15271e-08
6.11943e-08
-1.72953e-06
2.95946e-08
7.51088e-08
-1.82603e-06
4.05754e-08
8.73096e-08
-1.90455e-06
5.47104e-08
9.59743e-08
-1.96918e-06
7.20503e-08
9.90823e-08
-2.02227e-06
9.22209e-08
9.48522e-08
-2.06531e-06
1.14264e-07
8.20019e-08
-2.09906e-06
1.36657e-07
6.0519e-08
-2.12404e-06
1.57115e-07
3.17874e-08
-2.14053e-06
1.7304e-07
-1.12379e-09
-2.14868e-06
1.81876e-07
-3.40081e-08
-2.14862e-06
1.81862e-07
-6.2667e-08
-2.14028e-06
1.73001e-07
-8.40272e-08
-2.12362e-06
1.57059e-07
-9.67104e-08
-2.09849e-06
1.36621e-07
-1.00777e-07
-2.06459e-06
1.14228e-07
-9.74554e-08
-2.02141e-06
9.21728e-08
-8.85836e-08
-1.96822e-06
7.20206e-08
-7.61825e-08
-1.90353e-06
5.47045e-08
-6.20378e-08
-1.82497e-06
4.05919e-08
-4.76433e-08
-1.72847e-06
2.96307e-08
-3.40147e-08
-1.60729e-06
2.15812e-08
-2.18911e-08
-1.4502e-06
1.58917e-08
-1.17638e-08
-1.23779e-06
1.18325e-08
-4.05817e-09
-9.3314e-07
8.43111e-09
-4.51177e-07
4.06878e-09
-1.68236e-09
-4.48023e-07
-1.68573e-09
-4.86422e-09
-9.26453e-07
-4.00809e-09
-8.31143e-09
-1.22987e-06
-5.22872e-09
-1.10081e-08
-1.44328e-06
-5.1211e-09
-1.22057e-08
-1.60361e-06
-3.48363e-09
-1.13765e-08
-1.73027e-06
-9.15645e-11
-8.40094e-09
-1.83433e-06
5.32932e-09
-3.55779e-09
-1.92239e-06
1.29985e-08
2.33459e-09
-1.99803e-06
2.29671e-08
8.14495e-09
-2.06321e-06
3.51312e-08
1.24253e-08
-2.11858e-06
4.89892e-08
1.39038e-08
-2.16406e-06
6.35202e-08
1.18384e-08
-2.1991e-06
7.7125e-08
6.39708e-09
-2.22303e-06
8.79394e-08
-1.10399e-09
-2.23517e-06
9.3986e-08
-8.57143e-09
-2.23509e-06
9.39375e-08
-1.39108e-08
-2.22279e-06
8.7858e-08
-1.58644e-08
-2.19872e-06
7.7045e-08
-1.42362e-08
-2.16352e-06
6.33992e-08
-9.76323e-09
-2.11793e-06
4.88654e-08
-3.74828e-09
-2.06247e-06
3.50418e-08
2.37286e-09
-1.99723e-06
2.28937e-08
7.41823e-09
-1.92151e-06
1.29429e-08
1.0621e-08
-1.83347e-06
5.29594e-09
1.16541e-08
-1.7294e-06
-1.03663e-10
1.06302e-08
-1.60279e-06
-3.47864e-09
8.09383e-09
-1.44256e-06
-5.09858e-09
4.78785e-09
-1.2293e-06
-5.19263e-09
1.66406e-09
-9.2605e-07
-3.96608e-09
-4.47859e-07
-1.65368e-09
-7.98233e-09
-4.32055e-07
-7.98504e-09
-2.29902e-08
-8.93823e-07
-1.76224e-08
-4.11573e-08
-1.18776e-06
-2.39395e-08
-6.00054e-08
-1.39615e-06
-2.82775e-08
-7.74388e-08
-1.55483e-06
-3.13476e-08
-9.16886e-08
-1.68248e-06
-3.35368e-08
-1.01252e-07
-1.78984e-06
-3.49294e-08
-1.05172e-07
-1.88304e-06
-3.54304e-08
-1.02974e-07
-1.96538e-06
-3.48538e-08
-9.4836e-08
-2.03829e-06
-3.30656e-08
-8.15262e-08
-2.10178e-06
-3.01114e-08
-6.42213e-08
-2.1551e-06
-2.62619e-08
-4.42783e-08
-2.19695e-06
-2.20933e-08
-2.2938e-08
-2.22594e-06
-1.84306e-08
-1.0783e-09
-2.24079e-06
-1.62407e-08
2.08084e-08
-2.24071e-06
-1.6265e-08
4.22186e-08
-2.22571e-06
-1.84937e-08
6.23145e-08
-2.19662e-06
-2.21881e-08
7.97849e-08
-2.15461e-06
-2.63761e-08
9.32887e-08
-2.1012e-06
-3.02308e-08
1.01635e-07
-2.03763e-06
-3.3182e-08
1.04036e-07
-1.96467e-06
-3.49585e-08
1.00347e-07
-1.88231e-06
-3.55186e-08
9.09796e-08
-1.7891e-06
-3.49981e-08
7.69291e-08
-1.68176e-06
-3.35843e-08
5.96837e-08
-1.55417e-06
-3.13748e-08
4.09842e-08
-1.39558e-06
-2.82846e-08
2.29088e-08
-1.18729e-06
-2.39289e-08
7.97028e-09
-8.93514e-07
-1.75974e-08
-4.31929e-07
-7.9597e-09
-1.44618e-08
-4.03128e-07
-1.44659e-08
-4.1607e-08
-8.35105e-07
-3.15723e-08
-7.49436e-08
-1.11132e-06
-4.31024e-08
-1.1045e-07
-1.30853e-06
-5.21146e-08
-1.44781e-07
-1.4602e-06
-6.02994e-08
-1.74846e-07
-1.58383e-06
-6.85922e-08
-1.97792e-07
-1.68944e-06
-7.74553e-08
-2.11237e-07
-1.78263e-06
-8.69675e-08
-2.13361e-07
-1.86635e-06
-9.6902e-08
-2.0321e-07
-1.94153e-06
-1.06906e-07
-1.80747e-07
-2.00784e-06
-1.16398e-07
-1.46995e-07
-2.0641e-06
-1.2475e-07
-1.03884e-07
-2.10859e-06
-1.31466e-07
-5.41694e-08
-2.13956e-06
-1.36089e-07
-1.04649e-09
-2.15547e-06
-1.38443e-07
5.21097e-08
-2.1554e-06
-1.38467e-07
1.01917e-07
-2.13939e-06
-1.36128e-07
1.45137e-07
-2.10831e-06
-1.31538e-07
1.79059e-07
-2.06367e-06
-1.24869e-07
2.01716e-07
-2.00733e-06
-1.16528e-07
2.12074e-07
-1.94095e-06
-1.07037e-07
2.1015e-07
-1.86572e-06
-9.70248e-08
1.96935e-07
-1.78201e-06
-8.70756e-08
1.74181e-07
-1.6888e-06
-7.75474e-08
1.44318e-07
-1.58324e-06
-6.86632e-08
1.10149e-07
-1.45965e-06
-6.03486e-08
7.47824e-08
-1.30807e-06
-5.21426e-08
4.15538e-08
-1.11095e-06
-4.3108e-08
1.44549e-08
-8.34858e-07
-3.15572e-08
-4.0303e-07
-1.44435e-08
-2.06663e-08
-3.61792e-07
-2.06691e-08
-5.93988e-08
-7.51491e-07
-4.48821e-08
-1.07208e-07
-1.0021e-06
-6.14182e-08
-1.58744e-07
-1.18207e-06
-7.49259e-08
-2.09449e-07
-1.32144e-06
-8.80562e-08
-2.54946e-07
-1.43594e-06
-1.02386e-07
-2.91094e-07
-1.53458e-06
-1.18707e-07
-3.14057e-07
-1.62243e-06
-1.3723e-07
-3.20699e-07
-1.70195e-06
-1.57757e-07
-3.08848e-07
-1.77383e-06
-1.79556e-07
-2.77682e-07
-1.83754e-06
-2.01473e-07
-2.27997e-07
-1.8917e-06
-2.22092e-07
-1.62285e-07
-1.93462e-06
-2.39689e-07
-8.47742e-08
-1.96449e-06
-2.52582e-07
-1.0053e-09
-1.97983e-06
-2.59405e-07
8.27868e-08
-1.97977e-06
-2.59425e-07
1.60377e-07
-1.96431e-06
-2.52669e-07
2.26197e-07
-1.93432e-06
-2.39804e-07
2.7607e-07
-1.89133e-06
-2.22205e-07
3.07407e-07
-1.83707e-06
-2.01598e-07
3.19447e-07
-1.77331e-06
-1.79684e-07
3.13025e-07
-1.70142e-06
-1.57882e-07
2.90248e-07
-1.62189e-06
-1.37347e-07
2.54314e-07
-1.53406e-06
-1.18809e-07
2.08992e-07
-1.43544e-06
-1.02471e-07
1.58454e-07
-1.32099e-06
-8.81217e-08
1.07061e-07
-1.18172e-06
-7.49541e-08
5.93374e-08
-1.00181e-06
-6.14209e-08
2.06614e-08
-7.51306e-07
-4.48755e-08
-3.61719e-07
-2.06499e-08
-2.6056e-08
-3.09678e-07
-2.60586e-08
-7.48284e-08
-6.46322e-07
-5.6396e-08
-1.35294e-07
-8.6444e-07
-7.71908e-08
-2.00963e-07
-1.02181e-06
-9.45911e-08
-2.66284e-07
-1.14402e-06
-1.12099e-07
-3.25744e-07
-1.24468e-06
-1.318e-07
-3.739e-07
-1.33162e-06
-1.54804e-07
-4.05636e-07
-1.40921e-06
-1.81484e-07
-4.16544e-07
-1.47956e-06
-2.11489e-07
-4.03353e-07
-1.5432e-06
-2.43817e-07
-3.6452e-07
-1.59952e-06
-2.76847e-07
-3.00552e-07
-1.64736e-06
-3.08304e-07
-2.14598e-07
-1.68512e-06
-3.35454e-07
-1.12195e-07
-1.71132e-06
-3.55579e-07
-9.50759e-10
-1.72471e-06
-3.66359e-07
1.10317e-07
-1.72466e-06
-3.66375e-07
2.12785e-07
-1.71115e-06
-3.55627e-07
2.98865e-07
-1.68487e-06
-3.35529e-07
3.62938e-07
-1.647e-06
-3.08401e-07
4.0197e-07
-1.59914e-06
-2.76961e-07
4.1535e-07
-1.54276e-06
-2.43934e-07
4.0465e-07
-1.47911e-06
-2.1161e-07
3.73111e-07
-1.40875e-06
-1.816e-07
3.25139e-07
-1.33118e-06
-1.54908e-07
2.65869e-07
-1.24428e-06
-1.3189e-07
2.00713e-07
-1.14367e-06
-1.12171e-07
1.35158e-07
-1.02151e-06
-9.46563e-08
7.47816e-08
-8.64209e-07
-7.72249e-08
2.60532e-08
-6.46184e-07
-5.63941e-08
-3.09625e-07
-2.60409e-08
-3.00553e-08
-2.49569e-07
-3.00537e-08
-8.63503e-08
-5.2512e-07
-6.49075e-08
-1.56504e-07
-7.05459e-07
-8.88271e-08
-2.33272e-07
-8.35955e-07
-1.09085e-07
-3.10297e-07
-9.37109e-07
-1.29884e-07
-3.81121e-07
-1.02012e-06
-1.53741e-07
-4.39226e-07
-1.09154e-06
-1.8198e-07
-4.78365e-07
-1.15503e-06
-2.15047e-07
-4.93003e-07
-1.2124e-06
-2.52516e-07
-4.78953e-07
-1.26409e-06
-2.93156e-07
-4.34043e-07
-1.30961e-06
-3.34825e-07
-3.5873e-07
-1.34802e-06
-3.74651e-07
-2.56541e-07
-1.37815e-06
-4.09157e-07
-1.34151e-07
-1.39893e-06
-4.34779e-07
-8.86347e-10
-1.40952e-06
-4.48457e-07
1.32396e-07
-1.40947e-06
-4.48467e-07
2.54845e-07
-1.39879e-06
-4.34812e-07
3.57122e-07
-1.37793e-06
-4.09215e-07
4.32576e-07
-1.34773e-06
-3.74724e-07
4.77643e-07
-1.30929e-06
-3.3492e-07
4.9187e-07
-1.26373e-06
-2.93255e-07
4.77407e-07
-1.21202e-06
-2.52622e-07
4.3848e-07
-1.15467e-06
-2.15152e-07
3.80544e-07
-1.09117e-06
-1.82077e-07
3.09893e-07
-1.0198e-06
-1.53829e-07
2.33011e-07
-9.36828e-07
-1.29958e-07
1.56367e-07
-8.35731e-07
-1.09138e-07
8.63106e-08
-7.05299e-07
-8.88537e-08
3.00498e-08
-5.25015e-07
-6.49081e-08
-2.49537e-07
-3.00382e-08
-3.20804e-08
-1.85405e-07
-3.20838e-08
-9.24414e-08
-3.95607e-07
-6.91518e-08
-1.68236e-07
-5.35109e-07
-9.45556e-08
-2.52011e-07
-6.35978e-07
-1.16202e-07
-3.36871e-07
-7.13508e-07
-1.38741e-07
-4.15629e-07
-7.76365e-07
-1.64994e-07
-4.80929e-07
-8.29787e-07
-1.9645e-07
-5.25562e-07
-8.76839e-07
-2.33556e-07
-5.43224e-07
-9.18934e-07
-2.75807e-07
-5.29013e-07
-9.56537e-07
-3.21767e-07
-4.80321e-07
-9.8933e-07
-3.68971e-07
-3.9753e-07
-1.01673e-06
-4.14086e-07
-2.8454e-07
-1.03802e-06
-4.53118e-07
-1.48803e-07
-1.05258e-06
-4.82088e-07
-8.09892e-10
-1.05994e-06
-4.97573e-07
1.472e-07
-1.05991e-06
-4.97578e-07
2.82986e-07
-1.05247e-06
-4.82108e-07
3.9607e-07
-1.03787e-06
-4.53145e-07
4.7897e-07
-1.01653e-06
-4.14108e-07
5.27783e-07
-9.89081e-07
-3.6902e-07
5.42154e-07
-9.56252e-07
-3.21847e-07
5.24683e-07
-9.18655e-07
-2.75897e-07
4.80205e-07
-8.76545e-07
-2.3365e-07
4.15101e-07
-8.29522e-07
-1.96539e-07
3.36498e-07
-7.76122e-07
-1.65078e-07
2.51774e-07
-7.13295e-07
-1.38809e-07
1.68119e-07
-6.35822e-07
-1.16255e-07
9.23957e-08
-5.34991e-07
-9.45838e-08
3.20807e-08
-3.95545e-07
-6.9155e-08
-1.85386e-07
-3.20701e-08
-3.15726e-08
-1.22259e-07
-3.15727e-08
-9.16552e-08
-2.67619e-07
-6.79056e-08
-1.68237e-07
-3.65916e-07
-9.26115e-08
-2.541e-07
-4.36424e-07
-1.1369e-07
-3.42138e-07
-4.89514e-07
-1.35955e-07
-4.24682e-07
-5.31459e-07
-1.62362e-07
-4.93764e-07
-5.66232e-07
-1.94473e-07
-5.41678e-07
-5.9619e-07
-2.32736e-07
-5.61528e-07
-6.22521e-07
-2.76562e-07
-5.48062e-07
-6.45628e-07
-3.24373e-07
-4.98429e-07
-6.6544e-07
-3.73523e-07
-4.12994e-07
-6.81691e-07
-4.2047e-07
-2.95802e-07
-6.94113e-07
-4.61102e-07
-1.547e-07
-7.02456e-07
-4.91221e-07
-7.22788e-10
-7.06635e-07
-5.07285e-07
1.53267e-07
-7.06609e-07
-5.07287e-07
2.94409e-07
-7.02381e-07
-4.9123e-07
4.11668e-07
-6.93991e-07
-4.61141e-07
4.97207e-07
-6.81536e-07
-4.20529e-07
5.4695e-07
-6.65249e-07
-3.73576e-07
5.60561e-07
-6.45429e-07
-3.24434e-07
5.4085e-07
-6.2231e-07
-2.76635e-07
4.93109e-07
-5.95991e-07
-2.32813e-07
4.24181e-07
-5.66042e-07
-1.94551e-07
3.41787e-07
-5.31291e-07
-1.62437e-07
2.53885e-07
-4.89374e-07
-1.36019e-07
1.68126e-07
-4.36321e-07
-1.13742e-07
9.16208e-08
-3.65846e-07
-9.26402e-08
3.15706e-08
-2.67583e-07
-6.79113e-08
-1.22253e-07
-3.1562e-08
-2.80064e-08
-6.6246e-08
-2.80067e-08
-8.28858e-08
-1.52726e-07
-6.00137e-08
-1.54794e-07
-2.12676e-07
-8.13322e-08
-2.37222e-07
-2.54624e-07
-9.93713e-08
-3.23103e-07