/*--------------------------------*- C++ -*----------------------------------*\
| =========                 |                                                 |
| \\      /  F ield         | OpenFOAM: The Open Source CFD Toolbox           |
|  \\    /   O peration     | Version:  v1906                                 |
|   \\  /    A nd           | Web:      www.OpenFOAM.com                      |
|    \\/     M anipulation  |                                                 |
\*---------------------------------------------------------------------------*/
FoamFile
{
    version     2.0;
    format      ascii;
    class       surfaceScalarField;
    location    "25.8/oil";
    object      phi;
}
// * * * * * * * * * * * * * * * * * * * * * * * * * * * * * * * * * * * * * //

dimensions      [1 0 -1 0 0 0 0];
oriented        oriented;


internalField   nonuniform List<scalar> 
80688
(
-2.50107e-06
-2.54421e-06
-2.50107e-06
-1.13056e-06
-7.08451e-07
-6.6206e-07
-3.10074e-07
-4.12489e-07
-4.07999e-07
-1.56675e-07
-7.67127e-08
-7.66865e-08
-6.92575e-08
-4.38497e-08
-4.3568e-08
-2.91616e-08
-2.03495e-08
-1.97465e-08
-9.07543e-09
-1.04229e-08
-9.66326e-09
1.3001e-09
-5.61726e-09
-4.75826e-09
6.57981e-09
-3.12758e-09
-2.15211e-09
8.83998e-09
-1.69568e-09
-5.64475e-10
9.08821e-09
-7.80536e-10
5.32318e-10
7.88567e-09
-1.50491e-10
1.35304e-09
5.61402e-09
3.00587e-10
1.97108e-09
2.60906e-09
6.04667e-10
2.4003e-09
-7.97566e-10
7.70934e-10
2.63571e-09
-4.27858e-09
8.07468e-10
2.67356e-09
-7.52414e-09
7.23161e-10
2.52241e-09
-1.02631e-08
5.324e-10
2.20658e-09
-1.22845e-08
2.55046e-10
1.76634e-09
-1.34548e-08
-7.93424e-11
1.24962e-09
-1.37258e-08
-4.40526e-10
7.11607e-10
-1.31285e-08
-8.08781e-10
2.11441e-10
-1.17635e-08
-1.15478e-09
-2.1013e-10
-9.79932e-09
-1.45441e-09
-5.09806e-10
-7.46126e-09
-1.68468e-09
-6.53367e-10
-5.0177e-09
-1.81258e-09
-6.30972e-10
-2.77095e-09
-1.78979e-09
-4.56947e-10
-1.03571e-09
-1.547e-09
-1.88227e-10
-8.39247e-11
-9.93157e-10
4.13812e-11
-1.75538e-10
9.16208e-11
-6.7447e-07
-1.19527e-06
-6.7447e-07
-4.07098e-07
-4.32966e-07
-5.42857e-07
-2.96156e-07
-2.88595e-07
-2.34837e-07
-1.5418e-07
-1.21788e-07
-9.69e-08
-7.61228e-08
-7.06815e-08
-5.12253e-08
-3.26706e-08
-3.99421e-08
-2.38596e-08
-7.38542e-09
-2.55183e-08
-1.01897e-08
7.23577e-09
-1.76424e-08
-2.59605e-09
1.5223e-08
-1.31355e-08
2.02076e-09
1.86387e-08
-1.02826e-08
5.17114e-09
1.86358e-08
-8.3165e-09
7.53892e-09
1.59677e-08
-6.88243e-09
9.39997e-09
1.12619e-08
-5.83006e-09
1.08365e-08
5.12924e-09
-5.10824e-09
1.18456e-08
-1.79688e-09
-4.7017e-09
1.23988e-08
-8.87085e-09
-4.6009e-09
1.24824e-08
-1.54751e-08
-4.78558e-09
1.2113e-08
-2.10685e-08
-5.21771e-09
1.13436e-08
-2.52329e-08
-5.84192e-09
1.02614e-08
-2.76989e-08
-6.58895e-09
8.97562e-09
-2.83631e-08
-7.38464e-09
7.60828e-09
-2.72889e-08
-8.15427e-09
6.27138e-09
-2.4687e-08
-8.82387e-09
5.06716e-09
-2.08928e-08
-9.32028e-09
4.07172e-09
-1.63439e-08
-9.56311e-09
3.32949e-09
-1.15488e-08
-9.44979e-09
2.84212e-09
-7.05071e-09
-8.84095e-09
2.55312e-09
-3.3735e-09
-7.54791e-09
2.32371e-09
-9.38681e-10
-5.32531e-09
1.89735e-09
-2.0611e-09
9.46885e-10
-4.21345e-07
-3.52577e-07
-4.21345e-07
-2.86462e-07
-3.25985e-07
-2.41864e-07
-1.98881e-07
-2.23683e-07
-1.52493e-07
-1.13665e-07
-1.27869e-07
-7.91351e-08
-5.90111e-08
-8.42568e-08
-4.10786e-08
-2.31783e-08
-5.74073e-08
-1.83676e-08
-1.84329e-10
-4.29069e-08
-5.60536e-09
1.41526e-08
-3.41985e-08
2.2193e-09
2.22645e-08
-2.87101e-08
7.4626e-09
2.55678e-08
-2.49344e-08
1.13486e-08
2.49651e-08
-2.21537e-08
1.44399e-08
2.11558e-08
-2.00266e-08
1.69535e-08
1.48183e-08
-1.8418e-08
1.89254e-08
6.68033e-09
-1.7291e-08
2.03208e-08
-2.46263e-09
-1.66448e-08
2.10861e-08
-1.17857e-08
-1.64737e-08
2.11959e-08
-2.0493e-08
-1.67477e-08
2.06694e-08
-2.78831e-08
-1.74043e-08
1.95767e-08
-3.34143e-08
-1.83473e-08
1.80366e-08
-3.67395e-08
-1.94594e-08
1.61956e-08
-3.77318e-08
-2.06098e-08
1.42175e-08
-3.64721e-08
-2.16657e-08
1.22517e-08
-3.32336e-08
-2.24949e-08
1.04325e-08
-2.84435e-08
-2.29616e-08
8.85124e-09
-2.2648e-08
-2.29148e-08
7.55615e-09
-1.64671e-08
-2.21671e-08
6.53643e-09
-1.05402e-08
-2.04728e-08
5.70504e-09
-5.46707e-09
-1.74948e-08
4.87373e-09
-1.75877e-09
-1.27516e-08
3.71799e-09
-5.58675e-09
1.7669e-09
-8.30002e-08
-1.86577e-07
-8.29997e-08
-1.14619e-07
-1.9452e-07
-9.98469e-08
-9.82679e-08
-1.60589e-07
-7.94449e-08
-6.27858e-08
-1.16946e-07
-4.64053e-08
-3.19355e-08
-9.0673e-08
-2.4434e-08
-7.54984e-09
-7.24316e-08
-9.36147e-09
1.01222e-08
-6.10609e-08
4.81965e-10
2.20224e-08
-5.34178e-08
7.31904e-09
2.89108e-08
-4.80445e-08
1.24461e-08
3.13763e-08
-4.39869e-08
1.65869e-08
2.99195e-08
-4.07695e-08
2.00726e-08
2.50673e-08
-3.81768e-08
2.30025e-08
1.74542e-08
-3.6148e-08
2.53431e-08
7.84524e-09
-3.46961e-08
2.7014e-08
-2.88056e-09
-3.38499e-08
2.79309e-08
-1.37892e-08
-3.36175e-08
2.80524e-08
-2.39702e-08
-3.39639e-08
2.73972e-08
-3.26201e-08
-3.48035e-08
2.60491e-08
-3.91155e-08
-3.60021e-08
2.41502e-08
-4.30639e-08
-3.73895e-08
2.18785e-08
-4.43225e-08
-3.87774e-08
1.94262e-08
-4.29907e-08
-3.99724e-08
1.69749e-08
-3.93793e-08
-4.07819e-08
1.46757e-08
-3.39708e-08
-4.10023e-08
1.26322e-08
-2.73678e-08
-4.04113e-08
1.08936e-08
-2.02423e-08
-3.87325e-08
9.43983e-09
-1.32802e-08
-3.56008e-08
8.1659e-09
-7.12803e-09
-3.05006e-08
6.85363e-09
-2.4023e-09
-2.26098e-08
5.13255e-09
-1.04009e-08
2.41189e-09
-4.37698e-08
-9.90383e-08
-4.37691e-08
-5.7571e-08
-1.29851e-07
-5.08673e-08
-4.9753e-08
-1.27749e-07
-4.06585e-08
-3.06933e-08
-1.11646e-07
-2.43598e-08
-1.11811e-08
-9.87491e-08
-1.14361e-08
6.0903e-09
-8.82144e-08
-1.4886e-09
1.96847e-08
-8.05741e-08
5.91887e-09
2.92771e-08
-7.47343e-08
1.17241e-08
3.47848e-08
-7.01064e-08
1.65542e-08
3.62766e-08
-6.62478e-08
2.07691e-08
3.39516e-08
-6.29465e-08
2.45021e-08
2.81831e-08
-6.01433e-08
2.7735e-08
1.95445e-08
-5.78745e-08
3.03652e-08
8.80538e-09
-5.62145e-08
3.22575e-08
-3.1063e-09
-5.52332e-08
3.3295e-08
-1.51861e-08
-5.49563e-08
3.34185e-08
-2.64451e-08
-5.53481e-08
3.26433e-08
-3.60082e-08
-5.63053e-08
3.10648e-08
-4.31994e-08
-5.76591e-08
2.88482e-08
-4.75971e-08
-5.91924e-08
2.62006e-08
-4.90535e-08
-6.06661e-08
2.33452e-08
-4.76825e-08
-6.18303e-08
2.04869e-08
-4.38249e-08
-6.24309e-08
1.77914e-08
-3.79957e-08
-6.22067e-08
1.53751e-08
-3.08299e-08
-6.08642e-08
1.32871e-08
-2.30278e-08
-5.80361e-08
1.15014e-08
-1.53008e-08
-5.3229e-08
9.90124e-09
-8.33939e-09
-4.5708e-08
8.24609e-09
-2.85946e-09
-3.42203e-08
6.13048e-09
-1.61318e-08
2.87137e-09
-1.75651e-08
-6.3909e-08
-1.75642e-08
-2.36251e-08
-1.01844e-07
-2.19478e-08
-1.97442e-08
-1.13984e-07
-1.76455e-08
-8.60902e-09
-1.13173e-07
-9.60837e-09
4.47049e-09
-1.09793e-07
-2.03587e-09
1.71259e-08
-1.05455e-07
4.5855e-09
2.77223e-08
-1.014e-07
1.02297e-08
3.54067e-08
-9.76269e-08
1.52081e-08
3.96643e-08
-9.41267e-08
1.97627e-08
4.0248e-08
-9.08421e-08
2.40105e-08
3.71522e-08
-8.77877e-08
2.79371e-08
3.06273e-08
-8.50464e-08
3.1428e-08
2.11883e-08
-8.27468e-08
3.43114e-08
9.59951e-09
-8.10262e-08
3.64005e-08
-3.18376e-09
-7.99923e-08
3.75423e-08
-1.61102e-08
-7.96903e-08
3.76605e-08
-2.81384e-08
-8.00875e-08
3.67675e-08
-3.83417e-08
-8.10689e-08
3.49669e-08
-4.60102e-08
-8.24393e-08
3.24488e-08
-5.07066e-08
-8.39471e-08
2.94512e-08
-5.22859e-08
-8.53139e-08
2.62272e-08
-5.08777e-08
-8.62415e-08
2.3003e-08
-4.68458e-08
-8.64319e-08
1.99691e-08
-4.07273e-08
-8.55694e-08
1.72443e-08
-3.31772e-08
-8.32943e-08
1.488e-08
-2.49094e-08
-7.91495e-08
1.28456e-08
-1.66551e-08
-7.24995e-08
1.10162e-08
-9.13749e-09
-6.2361e-08
9.13543e-09
-3.15222e-09
-4.69735e-08
6.76797e-09
-2.24505e-08
3.16654e-09
-6.56559e-09
-5.07789e-08
-6.56447e-09
-7.8533e-09
-9.26186e-08
-7.93721e-09
-3.78544e-09
-1.12691e-07
-5.36099e-09
4.66073e-09
-1.20823e-07
-7.95915e-10
1.47876e-08
-1.23957e-07
4.03767e-09
2.48978e-08
-1.24332e-07
8.76678e-09
3.35906e-08
-1.23398e-07
1.33053e-08
3.99184e-08
-1.21685e-07
1.77305e-08
4.32164e-08
-1.19522e-07
2.2097e-08
4.3084e-08
-1.17094e-07
2.63842e-08
3.93965e-08
-1.14581e-07
3.04812e-08
3.23238e-08
-1.12174e-07
3.41997e-08
2.23383e-08
-1.10067e-07
3.73061e-08
1.01883e-08
-1.08448e-07
3.95717e-08
-3.15416e-09
-1.07456e-07
4.08062e-08
-1.66119e-08
-1.07147e-07
4.09149e-08
-2.91117e-08
-1.07495e-07
3.99074e-08
-3.96952e-08
-1.08382e-07
3.78968e-08
-4.76342e-08
-1.096e-07
3.50994e-08
-5.24845e-08
-1.10876e-07
3.17795e-08
-5.41113e-08
-1.11908e-07
2.82209e-08
-5.26605e-08
-1.12372e-07
2.46796e-08
-4.85156e-08
-1.11934e-07
2.13573e-08
-4.22273e-08
-1.10239e-07
1.83818e-08
-3.44606e-08
-1.06867e-07
1.5806e-08
-2.59345e-08
-1.0127e-07
1.35941e-08
-1.73874e-08
-9.26607e-08
1.16141e-08
-9.56359e-09
-7.97856e-08
9.60078e-09
-3.3047e-09
-6.0332e-08
7.0996e-09
-2.90762e-08
3.32097e-09
-1.54192e-09
-4.76962e-08
-1.54082e-09
1.53997e-10
-9.34118e-08
-9.02731e-10
4.9738e-09
-1.18709e-07
1.19845e-09
1.24636e-08
-1.32562e-07
4.24934e-09
2.11368e-08
-1.40317e-07
7.68662e-09
2.97713e-08
-1.44327e-07
1.13603e-08
3.72236e-08
-1.4608e-07
1.52293e-08
4.25979e-08
-1.46358e-07
1.92981e-08
4.5193e-08
-1.45654e-07
2.35376e-08
4.45539e-08
-1.44309e-07
2.78539e-08
4.04896e-08
-1.42595e-07
3.2078e-08
3.31181e-08
-1.40776e-07
3.5974e-08
2.28755e-08
-1.39085e-07
3.92605e-08
1.04957e-08
-1.37734e-07
4.16662e-08
-3.05338e-09
-1.36876e-07
4.29691e-08
-1.66906e-08
-1.36577e-07
4.30667e-08
-2.93355e-08
-1.36814e-07
4.19641e-08
-4.00182e-08
-1.37476e-07
3.97769e-08
-4.80083e-08
-1.38353e-07
3.67434e-08
-5.28654e-08
-1.39178e-07
3.31593e-08
-5.44696e-08
-1.3964e-07
2.93358e-08
-5.29836e-08
-1.39405e-07
2.55476e-08
-4.88002e-08
-1.38125e-07
2.20073e-08
-4.24781e-08
-1.35413e-07
1.88511e-08
-3.46805e-08
-1.30798e-07
1.61335e-08
-2.61195e-08
-1.23646e-07
1.38152e-08
-1.75254e-08
-1.13013e-07
1.17581e-08
-9.64473e-09
-9.73587e-08
9.69246e-09
-3.33263e-09
-7.3802e-08
7.15795e-09
-3.57589e-08
3.35012e-09
7.23016e-10
-4.91431e-08
7.23904e-10
4.00064e-09
-9.919e-08
2.50057e-09
9.38749e-09
-1.28597e-07
4.50129e-09
1.64822e-08
-1.46532e-07
6.87486e-09
2.43368e-08
-1.57757e-07
9.58588e-09
3.20217e-08
-1.64667e-07
1.26548e-08
3.86049e-08
-1.68757e-07
1.60941e-08
4.32774e-08
-1.70925e-07
1.9895e-08
4.53723e-08
-1.71755e-07
2.40056e-08
4.44193e-08
-1.71653e-07
2.82973e-08
4.02099e-08
-1.70952e-07
3.25661e-08
3.28203e-08
-1.69931e-07
3.65446e-08
2.26588e-08
-1.6884e-07
3.99163e-08
1.0432e-08
-1.67895e-07
4.23876e-08
-2.91212e-09
-1.67253e-07
4.37213e-08
-1.63195e-08
-1.66975e-07
4.38059e-08
-2.87329e-08
-1.67045e-07
4.2644e-08
-3.91995e-08
-1.67361e-07
4.03514e-08
-4.70005e-08
-1.67735e-07
3.71826e-08
-5.17133e-08
-1.67909e-07
3.34432e-08
-5.32325e-08
-1.67582e-07
2.94619e-08
-5.17328e-08
-1.66441e-07
2.55362e-08
-4.76088e-08
-1.64136e-07
2.18868e-08
-4.14175e-08
-1.60257e-07
1.86528e-08
-3.38024e-08
-1.54294e-07
1.58813e-08
-2.54531e-08
-1.45528e-07
1.35332e-08
-1.7075e-08
-1.32867e-07
1.14759e-08
-9.39295e-09
-1.14478e-07
9.4371e-09
-3.24261e-09
-8.69134e-08
6.96108e-09
-4.22619e-08
3.2604e-09
1.67555e-09
-5.24946e-08
1.67605e-09
5.62482e-09
-1.07104e-07
3.96431e-09
1.11732e-08
-1.40043e-07
5.89692e-09
1.78831e-08
-1.61151e-07
7.9089e-09
2.50521e-08
-1.75118e-07
1.01915e-08
3.19439e-08
-1.84415e-07
1.2856e-08
3.77935e-08
-1.90564e-07
1.59574e-08
4.18791e-08
-1.94506e-07
1.94953e-08
4.35973e-08
-1.96878e-07
2.34052e-08
4.25004e-08
-1.98112e-07
2.75564e-08
3.83662e-08
-1.98547e-07
3.17291e-08
3.12588e-08
-1.98463e-07
3.56398e-08
2.15541e-08
-1.981e-07
3.8965e-08
9.91659e-09
-1.97663e-07
4.14052e-08
-2.75478e-09
-1.97289e-07
4.27072e-08
-1.54682e-08
-1.9704e-07
4.27782e-08
-2.72285e-08
-1.96904e-07
4.16194e-08
-3.71253e-08
-1.96791e-07
3.93268e-08
-4.44769e-08
-1.96537e-07
3.61541e-08
-4.88882e-08
-1.95913e-07
3.24159e-08
-5.02673e-08
-1.94655e-07
2.84516e-08
-4.8794e-08
-1.92464e-07
2.45489e-08
-4.48573e-08
-1.89007e-07
2.09342e-08
-3.89851e-08
-1.83874e-07
1.77451e-08
-3.17899e-08
-1.76519e-07
1.50298e-08
-2.39181e-08
-1.66151e-07
1.27512e-08
-1.60349e-08
-1.51521e-07
1.07713e-08
-8.81354e-09
-1.30534e-07
8.83495e-09
-3.03872e-09
-9.92035e-08
6.51533e-09
-4.83565e-08
3.05591e-09
1.95282e-09
-5.64e-08
1.95253e-09
5.9493e-09
-1.15425e-07
4.3246e-09
1.12292e-08
-1.51444e-07
6.12194e-09
1.73417e-08
-1.75122e-07
7.85859e-09
2.37281e-08
-1.9131e-07
9.80533e-09
2.97884e-08
-2.02595e-07
1.21202e-08
3.48828e-08
-2.10535e-07
1.48766e-08
3.84015e-08
-2.16103e-07
1.80784e-08
3.98062e-08
-2.1995e-07
2.1667e-08
3.8691e-08
-2.22508e-07
2.55113e-08
3.48504e-08
-2.24101e-07
2.93948e-08
2.83352e-08
-2.24994e-07
3.3046e-08
1.94826e-08
-2.25396e-07
3.61481e-08
8.89848e-09
-2.25495e-07
3.84162e-08
-2.59987e-09
-2.25404e-07
3.96131e-08
-1.41222e-08
-2.25187e-07
3.96697e-08
-2.47753e-08
-2.24833e-07
3.85824e-08
-3.37244e-08
-2.24269e-07
3.64267e-08
-4.03541e-08
-2.2335e-07
3.34424e-08
-4.43048e-08
-2.21878e-07
2.99148e-08
-4.54928e-08
-2.19634e-07
2.61675e-08
-4.41007e-08
-2.16342e-07
2.24867e-08
-4.04912e-08
-2.11705e-07
1.90892e-08
-3.51484e-08
-2.05318e-07
1.61011e-08
-2.86285e-08
-1.96608e-07
1.35693e-08
-2.1519e-08
-1.84721e-07
1.14602e-08
-1.44099e-08
-1.68282e-07
9.65146e-09
-7.91018e-09
-1.44939e-07
7.90505e-09
-2.72395e-09
-1.10218e-07
5.82847e-09
-5.38203e-08
2.73977e-09
1.84759e-09
-6.00941e-08
1.84652e-09
5.44744e-09
-1.23026e-07
4.00119e-09
1.00767e-08
-1.61633e-07
5.55946e-09
1.53149e-08
-1.87373e-07
7.01351e-09
2.07172e-08
-2.05348e-07
8.63615e-09
2.57953e-08
-2.18256e-07
1.05828e-08
3.00366e-08
-2.27703e-07
1.29264e-08
3.29429e-08
-2.34691e-07
1.56821e-08
3.40521e-08
-2.39854e-07
1.87953e-08
3.30261e-08
-2.43628e-07
2.21454e-08
2.96858e-08
-2.46301e-07
2.554e-08
2.40601e-08
-2.48102e-07
2.87331e-08
1.64535e-08
-2.49224e-07
3.14353e-08
7.37692e-09
-2.49818e-07
3.33997e-08
-2.45935e-09
-2.49992e-07
3.44242e-08
-1.23042e-08
-2.49809e-07
3.44659e-08
-2.14011e-08
-2.49262e-07
3.35253e-08
-2.90363e-08
-2.48273e-07
3.16391e-08
-3.46711e-08
-2.46725e-07
2.90099e-08
-3.79925e-08
-2.44453e-07
2.58966e-08
-3.89514e-08
-2.41265e-07
2.25896e-08
-3.7699e-08
-2.36941e-07
1.93462e-08
-3.45581e-08
-2.31203e-07
1.63569e-08
-2.99538e-08
-2.23656e-07
1.37338e-08
-2.43639e-08
-2.13722e-07
1.15233e-08
-1.82851e-08
-2.00491e-07
9.69104e-09
-1.22271e-08
-1.82474e-07
8.13374e-09
-6.70288e-09
-1.57115e-07
6.65171e-09
-2.30206e-09
-1.19527e-07
4.90825e-09
-5.84382e-08
2.31587e-09
1.50945e-09
-6.31113e-08
1.50779e-09
4.39046e-09
-1.29143e-07
3.2364e-09
8.04265e-09
-1.69745e-07
4.4594e-09
1.21334e-08
-1.97046e-07
5.58229e-09
1.63159e-08
-2.16369e-07
6.8385e-09
2.02319e-08
-2.30531e-07
8.35961e-09
2.34935e-08
-2.41168e-07
1.02038e-08
2.57118e-08
-2.493e-07
1.23907e-08
2.65334e-08
-2.5555e-07
1.48742e-08
2.56833e-08
-2.60332e-07
1.75547e-08
2.30162e-08
-2.63908e-07
2.02749e-08
1.85598e-08
-2.66467e-07
2.28221e-08
1.25513e-08
-2.68178e-07
2.49619e-08
5.39529e-09
-2.69168e-07
2.65056e-08
-2.34049e-09
-2.69553e-07
2.72972e-08
-1.00718e-08
-2.69399e-07
2.73219e-08
-1.72127e-08
-2.68699e-07
2.65783e-08
-2.3183e-08
-2.67381e-07
2.50787e-08
-2.75642e-08
-2.65322e-07
2.29786e-08
-3.01161e-08
-2.62379e-07
2.04786e-08
-3.07972e-08
-2.58403e-07
1.78196e-08
-2.97377e-08
-2.53207e-07
1.52068e-08
-2.71999e-08
-2.46539e-07
1.2798e-08
-2.35274e-08
-2.38025e-07
1.06963e-08
-1.90948e-08
-2.27087e-07
8.93273e-09
-1.43031e-08
-2.12764e-07
7.4817e-09
-9.54379e-09
-1.93498e-07
6.26519e-09
-5.21587e-09
-1.66566e-07
5.12286e-09
-1.78646e-09
-1.26745e-07
3.78852e-09
-6.20227e-08
1.79802e-09
1.02073e-09
-6.51486e-08
1.01658e-09
2.94509e-09
-1.33234e-07
2.167e-09
5.37097e-09
-1.75141e-07
2.97067e-09
8.07424e-09
-2.03465e-07
3.71555e-09
1.08388e-08
-2.23694e-07
4.55999e-09
1.34273e-08
-2.38715e-07
5.59503e-09
1.55834e-08
-2.50196e-07
6.87129e-09
1.70454e-08
-2.59157e-07
8.39418e-09
1.75746e-08
-2.66214e-07
1.01344e-08
1.69761e-08
-2.71751e-07
1.20169e-08
1.51435e-08
-2.76002e-07
1.39266e-08
1.20896e-08
-2.79137e-07
1.57235e-08
7.96528e-09
-2.81292e-07
1.7238e-08
3.05696e-09
-2.82587e-07
1.83278e-08
-2.24449e-09
-2.83131e-07
1.88795e-08
-7.52949e-09
-2.83e-07
1.88863e-08
-1.23851e-08
-2.82191e-07
1.83479e-08
-1.64181e-08
-2.80618e-07
1.72698e-08
-1.93372e-08
-2.78176e-07
1.57728e-08
-2.09822e-08
-2.74731e-07
1.39967e-08
-2.13358e-08
-2.7016e-07
1.21108e-08
-2.05035e-08
-2.64311e-07
1.02716e-08
-1.86741e-08
-2.56955e-07
8.58721e-09
-1.60876e-08
-2.47734e-07
7.12306e-09
-1.30096e-08
-2.36073e-07
5.90805e-09
-9.70799e-09
-2.20988e-07
4.92274e-09
-6.44807e-09
-2.00864e-07
4.10585e-09
-3.50737e-09
-1.72865e-07
3.35871e-09
-1.1915e-09
-1.3156e-07
2.49929e-09
-6.44148e-08
1.20068e-09
4.34932e-10
-6.60138e-08
4.30238e-10
1.24122e-09
-1.3494e-07
8.99586e-10
2.26333e-09
-1.77393e-07
1.22927e-09
3.40957e-09
-2.06165e-07
1.55344e-09
4.59661e-09
-2.26828e-07
1.94742e-09
5.72464e-09
-2.42298e-07
2.45504e-09
6.67811e-09
-2.54247e-07
3.09812e-09
7.3313e-09
-2.63687e-07
3.87693e-09
7.56765e-09
-2.7123e-07
4.77971e-09
7.2765e-09
-2.77235e-07
5.77501e-09
6.38861e-09
-2.81918e-07
6.80355e-09
4.90408e-09
-2.85434e-07
7.78131e-09
2.88053e-09
-2.87881e-07
8.61297e-09
4.54944e-10
-2.89386e-07
9.22428e-09
-2.16913e-09
-2.90041e-07
9.53395e-09
-4.76612e-09
-2.89926e-07
9.52219e-09
-7.11255e-09
-2.89037e-07
9.19177e-09
-9.00036e-09
-2.87292e-07
8.5617e-09
-1.02958e-08
-2.84597e-07
7.71631e-09
-1.09344e-08
-2.80832e-07
6.73948e-09
-1.0926e-08
-2.75901e-07
5.73251e-09
-1.03477e-08
-2.69655e-07
4.76557e-09
-9.30667e-09
-2.61895e-07
3.89838e-09
-7.91893e-09
-2.52288e-07
3.16554e-09
-6.33014e-09
-2.40232e-07
2.56973e-09
-4.6638e-09
-2.2476e-07
2.10493e-09
-3.05806e-09
-2.04213e-07
1.74337e-09
-1.63463e-09
-1.75723e-07
1.43461e-09
-5.41743e-10
-1.33744e-07
1.09094e-09
-6.55054e-08
5.48859e-10
-2.03822e-10
-6.56003e-08
-2.0964e-10
-5.99804e-10
-1.34067e-07
-4.77499e-10
-1.09304e-09
-1.76242e-07
-6.57396e-10
-1.60582e-09
-2.04875e-07
-7.77282e-10
-2.08645e-09
-2.25493e-07
-8.54707e-10
-2.49272e-09
-2.40991e-07
-9.00444e-10
-2.79524e-09
-2.53025e-07
-9.19655e-10
-2.97817e-09
-2.62595e-07
-9.09211e-10
-3.03972e-09
-2.70299e-07
-8.69023e-10
-2.99179e-09
-2.76485e-07
-7.9741e-10
-2.85727e-09
-2.81361e-07
-6.91641e-10
-2.67641e-09
-2.85066e-07
-5.48002e-10
-2.48304e-09
-2.8769e-07
-3.84418e-10
-2.29454e-09
-2.89335e-07
-2.39045e-10
-2.10766e-09
-2.90069e-07
-1.5831e-10
-1.88474e-09
-2.89963e-07
-1.85707e-10
-1.59186e-09
-2.89014e-07
-3.1557e-10
-1.22485e-09
-2.87153e-07
-5.05504e-10
-8.14235e-10
-2.84312e-07
-6.95234e-10
-3.93378e-10
-2.804e-07
-8.52902e-10
-1.68765e-11
-2.7532e-07
-9.58331e-10
2.92218e-10
-2.68954e-07
-1.01042e-09
5.1398e-10
-2.61098e-07
-1.01886e-09
6.30636e-10
-2.51415e-07
-9.89713e-10
6.59916e-10
-2.39333e-07
-9.27673e-10
6.0481e-10
-2.23865e-07
-8.39928e-10
4.89408e-10
-2.03373e-07
-7.24438e-10
3.23737e-10
-1.74983e-07
-5.73974e-10
1.38093e-10
-1.33181e-07
-3.7799e-10
-6.52348e-08
-1.32591e-10
-8.5883e-10
-6.38766e-08
-8.6487e-10
-2.4897e-09
-1.30549e-07
-1.88687e-09
-4.51726e-09
-1.71632e-07
-2.58264e-09
-6.71441e-09
-1.99527e-07
-3.15029e-09
-8.87864e-09
-2.19627e-07
-3.70163e-09
-1.08346e-08
-2.34733e-07
-4.30191e-09
-1.24065e-08
-2.46462e-07
-4.99065e-09
-1.34388e-08
-2.5579e-07
-5.77225e-09
-1.38047e-08
-2.63304e-07
-6.62919e-09
-1.3423e-08
-2.69352e-07
-7.5149e-09
-1.22745e-08
-2.74144e-07
-8.36546e-09
-1.04134e-08
-2.77812e-07
-9.11537e-09
-7.9694e-09
-2.80439e-07
-9.69508e-09
-5.11637e-09
-2.82111e-07
-1.00774e-08
-2.05389e-09
-2.82867e-07
-1.0265e-08
1.0505e-09
-2.82766e-07
-1.0301e-08
4.02293e-09
-2.81802e-07
-1.01845e-08
6.66696e-09
-2.79928e-07
-9.86937e-09
8.79054e-09
-2.77102e-07
-9.33329e-09
1.0255e-08
-2.73256e-07
-8.60803e-09
1.09929e-08
-2.68297e-07
-7.76071e-09
1.10122e-08
-2.62112e-07
-6.86104e-09
1.03837e-08
-2.54493e-07
-5.97634e-09
9.22376e-09
-2.45097e-07
-5.15801e-09
7.67701e-09
-2.33358e-07
-4.42814e-09
5.89796e-09
-2.18301e-07
-3.78484e-09
4.04413e-09
-1.98329e-07
-3.19017e-09
2.2865e-09
-1.70645e-07
-2.58021e-09
8.18856e-10
-1.29866e-07
-1.84731e-09
-6.36016e-08
-8.14332e-10
-1.49493e-09
-6.08787e-08
-1.5029e-09
-4.32282e-09
-1.24466e-07
-3.2551e-09
-7.83996e-09
-1.63661e-07
-4.45337e-09
-1.16605e-08
-1.90258e-07
-5.44856e-09
-1.54563e-08
-2.09379e-07
-6.45228e-09
-1.89057e-08
-2.23697e-07
-7.58713e-09
-2.17044e-08
-2.34753e-07
-8.91103e-09
-2.35615e-08
-2.43483e-07
-1.04497e-08
-2.42331e-08
-2.50461e-07
-1.21718e-08
-2.355e-08
-2.56031e-07
-1.40036e-08
-2.14384e-08
-2.60424e-07
-1.58317e-08
-1.79691e-08
-2.63776e-07
-1.75053e-08
-1.33428e-08
-2.66189e-07
-1.88766e-08
-7.88653e-09
-2.67729e-07
-1.98383e-08
-2.00123e-09
-2.68434e-07
-2.03182e-08
3.93019e-09
-2.68334e-07
-2.0364e-08
9.51836e-09
-2.67423e-07
-1.99671e-08
1.43588e-08
-2.65689e-07
-1.90795e-08
1.81111e-08
-2.63097e-07
-1.77579e-08
2.05532e-08
-2.59583e-07
-1.61156e-08
2.1608e-08
-2.55052e-07
-1.42998e-08
2.13282e-08
-2.49374e-07
-1.24586e-08
1.98714e-08
-2.42324e-07
-1.07124e-08
1.74744e-08
-2.3356e-07
-9.14004e-09
1.44072e-08
-2.22514e-07
-7.77658e-09
1.09689e-08
-2.08264e-07
-6.59808e-09
7.45448e-09
-1.89267e-07
-5.54738e-09
4.16658e-09
-1.62856e-07
-4.50162e-09
1.47304e-09
-1.23919e-07
-3.25292e-09
-6.06597e-08
-1.46886e-09
-2.08244e-09
-5.67061e-08
-2.09022e-09
-6.01048e-09
-1.16025e-07
-4.51346e-09
-1.08991e-08
-1.52604e-07
-6.16888e-09
-1.62136e-08
-1.77388e-07
-7.55541e-09
-2.1503e-08
-1.95124e-07
-8.9658e-09
-2.63244e-08
-2.08299e-07
-1.05765e-08
-3.02501e-08
-2.18349e-07
-1.24776e-08
-3.28703e-08
-2.26165e-07
-1.46983e-08
-3.38372e-08
-2.32284e-07
-1.72097e-08
-3.28862e-08
-2.3707e-07
-1.9912e-08
-2.99071e-08
-2.4076e-07
-2.2643e-08
-2.49658e-08
-2.43519e-07
-2.51987e-08
-1.83364e-08
-2.45465e-07
-2.73527e-08
-1.04685e-08
-2.46688e-07
-2.89085e-08
-1.94598e-09
-2.47238e-07
-2.97182e-08
6.62477e-09
-2.47136e-07
-2.97686e-08
1.4633e-08
-2.46385e-07
-2.90461e-08
2.14814e-08
-2.44973e-07
-2.75644e-08
2.67102e-08
-2.42855e-07
-2.54708e-08
3.0029e-08
-2.39952e-07
-2.29495e-08
3.13538e-08
-2.36147e-07
-2.02293e-08
3.07802e-08
-2.31278e-07
-1.75214e-08
2.85543e-08
-2.25108e-07
-1.49901e-08
2.50187e-08
-2.17285e-07
-1.27392e-08
2.05648e-08
-2.0726e-07
-1.08005e-08
1.56064e-08
-1.94159e-07
-9.14732e-09
1.0571e-08
-1.76544e-07
-7.68821e-09
5.88989e-09
-1.51928e-07
-6.24679e-09
2.07007e-09
-1.15566e-07
-4.53297e-09
-5.65239e-08
-2.06568e-09
-2.59503e-09
-5.15084e-08
-2.60265e-09
-7.48092e-09
-1.05526e-07
-5.6128e-09
-1.35552e-08
-1.38866e-07
-7.66323e-09
-2.01642e-08
-1.61402e-07
-9.37741e-09
-2.67421e-08
-1.77426e-07
-1.11203e-08
-3.27465e-08
-1.89177e-07
-1.31173e-08
-3.76366e-08
-1.97973e-07
-1.54865e-08
-4.091e-08
-2.04625e-07
-1.82659e-08
-4.21211e-08
-2.0966e-07
-2.14132e-08
-4.0941e-08
-2.13436e-07
-2.48149e-08
-3.72157e-08
-2.16204e-07
-2.82813e-08
-3.10102e-08
-2.18163e-07
-3.15608e-08
-2.26509e-08
-2.19468e-07
-3.43564e-08
-1.26927e-08
-2.20243e-07
-3.64036e-08
-1.88518e-09
-2.20564e-07
-3.74816e-08
8.96958e-09
-2.20464e-07
-3.75264e-08
1.90644e-08
-2.19947e-07
-3.65327e-08
2.7647e-08
-2.18995e-07
-3.45603e-08
3.41397e-08
-2.17527e-07
-3.18209e-08
3.82026e-08
-2.15437e-07
-2.85776e-08
3.9753e-08
-2.1257e-07
-2.51278e-08
3.89268e-08
-2.08727e-07
-2.1725e-08
3.60425e-08
-2.03661e-07
-1.85623e-08
3.1527e-08
-1.97012e-07
-1.57571e-08
2.58754e-08
-1.88255e-07
-1.33539e-08
1.9613e-08
-1.7658e-07
-1.13162e-08
1.32647e-08
-1.6067e-07
-9.52526e-09
7.37587e-09
-1.38284e-07
-7.75506e-09
2.58798e-09
-1.05136e-07
-5.64282e-09
-5.13528e-08
-2.58308e-09
-3.00878e-09
-4.54833e-08
-3.01629e-09
-8.66742e-09
-9.33697e-08
-6.49747e-09
-1.57009e-08
-1.22974e-07
-8.85878e-09
-2.33481e-08
-1.42927e-07
-1.08275e-08
-3.09603e-08
-1.56987e-07
-1.28259e-08
-3.79067e-08
-1.67125e-07
-1.51055e-08
-4.35634e-08
-1.74512e-07
-1.78045e-08
-4.73449e-08
-1.79876e-07
-2.09682e-08
-4.87354e-08
-1.83716e-07
-2.45531e-08
-4.73551e-08
-1.86376e-07
-2.84399e-08
-4.30191e-08
-1.8813e-07
-3.24097e-08
-3.57993e-08
-1.89206e-07
-3.61771e-08
-2.60593e-08
-1.89799e-07
-3.9409e-08
-1.44424e-08
-1.90069e-07
-4.17902e-08
-1.81812e-09
-1.90131e-07
-4.3057e-08
1.08525e-08
-1.90037e-07
-4.30974e-08
2.26052e-08
-1.89794e-07
-4.19054e-08
3.25573e-08
-1.89355e-07
-3.95921e-08
4.00583e-08
-1.88612e-07
-3.64155e-08
4.47236e-08
-1.87418e-07
-3.26845e-08
4.64646e-08
-1.85578e-07
-2.8733e-08
4.54485e-08
-1.82863e-07
-2.48485e-08
4.2045e-08
-1.79005e-07
-2.12527e-08
3.67507e-08
-1.7365e-07
-1.80679e-08
3.01442e-08
-1.66309e-07
-1.5339e-08
2.28315e-08
-1.56246e-07
-1.30219e-08
1.5431e-08
-1.42292e-07
-1.09776e-08
8.57417e-09
-1.22474e-07
-8.95365e-09
3.00402e-09
-9.3035e-08
-6.53042e-09
-4.53503e-08
-2.99854e-09
-3.31025e-09
-3.88559e-08
-3.31718e-09
-9.52918e-09
-8.0012e-08
-7.13879e-09
-1.72529e-08
-1.05527e-07
-9.72283e-09
-2.56515e-08
-1.22668e-07
-1.18604e-08
-3.40106e-08
-1.34615e-07
-1.40131e-08
-4.1631e-08
-1.43046e-07
-1.64592e-08
-4.78308e-08
-1.48967e-07
-1.93448e-08
-5.19606e-08
-1.5303e-07
-2.27153e-08
-5.34603e-08
-1.55683e-07
-2.65331e-08
-5.19129e-08
-1.57262e-07
-3.06613e-08
-4.71217e-08
-1.5805e-07
-3.48712e-08
-3.91652e-08
-1.58291e-07
-3.88714e-08
-2.84402e-08
-1.58219e-07
-4.23055e-08
-1.5648e-08
-1.58022e-07
-4.48398e-08
-1.74408e-09
-1.57845e-07
-4.61901e-08
1.22034e-08
-1.57759e-07
-4.62252e-08
2.5124e-08
-1.5777e-07
-4.49452e-08
3.60527e-08
-1.57813e-07
-4.24704e-08
4.42797e-08
-1.57757e-07
-3.90825e-08
4.93855e-08
-1.57408e-07
-3.51162e-08
5.12786e-08
-1.56546e-07
-3.0925e-08
5.01419e-08
-1.54924e-07
-2.68022e-08
4.63726e-08
-1.52258e-07
-2.29779e-08
4.05243e-08
-1.48211e-07
-1.95905e-08
3.32286e-08
-1.42334e-07
-1.66796e-08
2.51578e-08
-1.33975e-07
-1.42001e-08
1.6996e-08
-1.22127e-07
-1.20032e-08
9.43872e-09
-1.05104e-07
-9.81272e-09
3.30557e-09
-7.97313e-08
-7.17056e-09
-3.87449e-08
-3.29985e-09
-3.48727e-09
-3.1875e-08
-3.49357e-09
-1.00313e-08
-6.59573e-08
-7.51065e-09
-1.81617e-08
-8.71867e-08
-1.02104e-08
-2.70059e-08
-1.01397e-07
-1.24265e-08
-3.58137e-08
-1.11167e-07
-1.46408e-08
-4.38428e-08
-1.17877e-07
-1.71399e-08
-5.03628e-08
-1.22372e-07
-2.0075e-08
-5.46892e-08
-1.2521e-07
-2.34941e-08
-5.62337e-08
-1.2679e-07
-2.73485e-08
-5.45645e-08
-1.27432e-07
-3.14998e-08
-4.94845e-08
-1.27405e-07
-3.57254e-08
-4.10767e-08
-1.2697e-07
-3.97285e-08
-2.9771e-08
-1.26366e-07
-4.31583e-08
-1.63003e-08
-1.25804e-07
-4.56882e-08
-1.66176e-09
-1.25443e-07
-4.70402e-08
1.30177e-08
-1.25369e-07
-4.70701e-08
2.66086e-08
-1.25585e-07
-4.57761e-08
3.81084e-08
-1.26015e-07
-4.32982e-08
4.67656e-08
-1.26503e-07
-3.99108e-08
5.21468e-08
-1.2685e-07
-3.59392e-08
5.41453e-08
-1.26812e-07
-3.17319e-08
5.29468e-08
-1.26137e-07
-2.75882e-08
4.89667e-08
-1.24547e-07
-2.37305e-08
4.27811e-08
-1.21727e-07
-2.02985e-08
3.50649e-08
-1.17275e-07
-1.73424e-08
2.65335e-08
-1.1063e-07
-1.48137e-08
1.79135e-08
-1.00945e-07
-1.25621e-08
9.94367e-09
-8.68376e-08
-1.02962e-08
3.48165e-09
-6.57301e-08
-7.53919e-09
-3.1787e-08
-3.47616e-09
-3.5286e-09
-2.48127e-08
-3.53376e-09
-1.01507e-08
-5.17439e-08
-7.59127e-09
-1.83936e-08
-6.86429e-08
-1.0301e-08
-2.73807e-08
-7.99076e-08
-1.25026e-08
-3.63454e-08
-8.75179e-08
-1.4684e-08
-4.45233e-08
-9.25658e-08
-1.71331e-08
-5.11605e-08
-9.57374e-08
-1.99973e-08
-5.55533e-08
-9.74957e-08
-2.33214e-08
-5.70997e-08
-9.81898e-08
-2.70541e-08
-5.53682e-08
-9.81013e-08
-3.10617e-08
-5.0168e-08
-9.74829e-08
-3.5122e-08
-4.16022e-08
-9.6582e-08
-3.89542e-08
-3.01055e-08
-9.56325e-08
-4.22304e-08
-1.64257e-08
-9.48433e-08
-4.46407e-08
-1.56958e-09
-9.43756e-08
-4.59239e-08
1.33244e-08
-9.43137e-08
-4.59491e-08
2.7116e-08
-9.46613e-08
-4.47148e-08
3.87912e-08
-9.53409e-08
-4.23492e-08
4.75937e-08
-9.61959e-08
-3.91095e-08
5.30738e-08
-9.70241e-08
-3.53059e-08
5.51151e-08
-9.75903e-08
-3.12633e-08
5.38932e-08
-9.76509e-08
-2.72642e-08
4.98307e-08
-9.69536e-08
-2.35308e-08
4.35102e-08
-9.52094e-08
-2.01973e-08
3.56286e-08
-9.20775e-08
-1.73159e-08
2.69253e-08
-8.7085e-08
-1.48413e-08
1.81531e-08
-7.95481e-08
-1.26248e-08
1.00647e-08
-6.83711e-08
-1.03781e-08
3.52127e-09
-5.15702e-08
-7.61645e-09
-2.47489e-08
-3.51684e-09
-3.42065e-09
-1.79665e-08
-3.4255e-09
-9.86043e-09
-3.79548e-08
-7.34933e-09
-1.79134e-08
-5.06398e-08
-9.95005e-09
-2.67437e-08
-5.90381e-08
-1.20392e-08
-3.55902e-08
-6.45781e-08
-1.40933e-08
-4.36827e-08
-6.80787e-08
-1.63946e-08
-5.02604e-08
-7.00743e-08
-1.90855e-08
-5.4609e-08
-7.09436e-08
-2.22034e-08
-5.61368e-08
-7.09654e-08
-2.56966e-08
-5.44203e-08
-7.03824e-08
-2.94354e-08
-4.92809e-08
-6.94119e-08
-3.32103e-08
-4.08336e-08
-6.82715e-08
-3.67578e-08
-2.95154e-08
-6.71727e-08
-3.9778e-08
-1.6064e-08
-6.63007e-08
-4.1994e-08
-1.46412e-09
-6.58014e-08
-4.3174e-08
1.31707e-08
-6.57533e-08
-4.31952e-08
2.67248e-08
-6.61588e-08
-4.20566e-08
3.82085e-08
-6.69465e-08
-3.98781e-08
4.68732e-08
-6.79724e-08
-3.68882e-08
5.22702e-08
-6.90547e-08
-3.33664e-08
5.42745e-08
-6.99847e-08
-2.96099e-08
5.30517e-08
-7.05478e-08
-2.58803e-08
4.90081e-08
-7.05218e-08
-2.23882e-08
4.27304e-08
-6.96683e-08
-1.92634e-08
3.49151e-08
-6.77036e-08
-1.65586e-08
2.63139e-08
-6.42489e-08
-1.42349e-08
1.76856e-08
-5.87699e-08
-1.215e-08
9.77607e-09
-5.04413e-08
-1.00203e-08
3.41273e-09
-3.78345e-08
-7.37238e-09
-1.79261e-08
-3.41008e-09
-3.1445e-09
-1.16738e-08
-3.14821e-09
-9.1187e-09
-2.52391e-08
-6.74156e-09
-1.66782e-08
-3.39881e-08
-9.09224e-09
-2.50575e-08
-3.97041e-08
-1.09547e-08
-3.3522e-08
-4.33339e-08
-1.27796e-08
-4.13092e-08
-4.54565e-08
-1.4835e-08
-4.76605e-08
-4.64681e-08
-1.72548e-08
-5.18789e-08
-4.66536e-08
-2.00717e-08
-5.33816e-08
-4.62305e-08
-2.32321e-08
-5.17681e-08
-4.53845e-08
-2.66114e-08
-4.68758e-08
-4.42889e-08
-3.00154e-08
-3.88264e-08
-4.31173e-08
-3.32036e-08
-2.8044e-08
-4.20411e-08
-3.5914e-08
-1.52363e-08
-4.12107e-08
-3.78977e-08
-1.34005e-09
-4.07463e-08
-3.89514e-08
1.25877e-08
-4.07116e-08
-3.89695e-08
2.54883e-08
-4.11086e-08
-3.79508e-08
3.64202e-08
-4.18773e-08
-3.6001e-08
4.46678e-08
-4.29011e-08
-3.33189e-08
4.97953e-08
-4.40309e-08
-3.01513e-08
5.16721e-08
-4.50987e-08
-2.67627e-08
5.04463e-08
-4.59295e-08
-2.33925e-08
4.65105e-08
-4.63519e-08
-2.02341e-08
4.04327e-08
-4.61779e-08
-1.74126e-08
3.29008e-08
-4.51905e-08
-1.49812e-08
2.46623e-08
-4.31036e-08
-1.29069e-08
1.64677e-08
-3.95201e-08
-1.10551e-08
9.0406e-09
-3.38575e-08
-9.15672e-09
3.13598e-09
-2.51658e-08
-6.76403e-09