/*--------------------------------*- C++ -*----------------------------------*\
| =========                 |                                                 |
| \\      /  F ield         | OpenFOAM: The Open Source CFD Toolbox           |
|  \\    /   O peration     | Version:  v1912                                 |
|   \\  /    A nd           | Website:  www.openfoam.com                      |
|    \\/     M anipulation  |                                                 |
\*---------------------------------------------------------------------------*/
FoamFile
{
    version     2.0;
    format      ascii;
    class       volScalarField;
    location    "62/oil";
    object      wallHeatFlux;
}
// * * * * * * * * * * * * * * * * * * * * * * * * * * * * * * * * * * * * * //

dimensions      [1 0 -3 0 0 0 0];


internalField   uniform 0;

boundaryField
{
    maxY
    {
        type            calculated;
        value           uniform 0;
    }
    minX
    {
        type            calculated;
        value           uniform 0;
    }
    maxX
    {
        type            calculated;
        value           uniform 0;
    }
    minY
    {
        type            calculated;
        value           uniform 0;
    }
    minZ
    {
        type            calculated;
        value           uniform 0;
    }
    maxZ
    {
        type            calculated;
        value           uniform 0;
    }
    oil_to_sphere
    {
        type            calculated;
        value           nonuniform List<scalar> 
1536
(
18420.1
19215.2
18100.1
17849
15501.6
15863.5
15632.3
12191.4
11740.6
20154.9
15410.4
20353.6
20587
20283.7
17705.1
15323.7
12334.7
11839.3
4140.32
20567.4
20113.6
16011.8
15762.8
15423.6
16241.9
16224.9
16211.4
15480
19304.8
19120.1
18017.5
14615.4
13461.5
16292.9
15371.2
15275.2
14679.1
16889.7
16026.7
16874.3
16019.5
15284
19007.1
20374.1
19261.2
20208.2
15855.1
15853.9
17502.3
16131.3
15983.3
15961.9
15666.3
15846.2
13938.1
13209.1
15829.9
15768.3
11894.1
8690.49
9391.84
8576.03
9237.02
20550.9
20657
20294.4
19359.3
20221.9
18509.5
19197.5
16326.3
15926.3
18026.2
16078.4
15383.5
13355.8
13027.3
12724.1
15343.9
11863.8
8564.28
9254.96
7754.57
7675.8
9742.85
9364.63
7876.16
12253
11781.6
8651.36
9299.96
4128.98
4142.42
20642.5
20678.4
20374.8
19543.1
19897.8
20244.4
18410.3
19413.9
16279.5
18311.4
18010.5
16030.8
16075.9
15479.1
12779.3
15225.2
13434.8
13007.1
13403.5
8672.13
9406.93
7825.03
7926.74
7785.76
9685.7
9368.72
9832.71
11830.4
9320.33
4155.95
20280.7
18430.2
19229.1
18528.1
19127.6
15980.7
16046
16118.8
15959.5
15948.6
15872.2
16073
16156
15808.4
13242.3
15640
15582.6
8705.59
9380.15
12301.8
11883.8
9247.47
11716.5
17471.6
17394.9
15661.1
16285
17920.7
17409.7
15830.2
16046.8
15966.2
14717.6
13887.1
14148.9
17475.6
17181.9
17509.6
18910.2
16724.5
16148.6
15312
14713.2
15904.4
15001.6
13944.8
14210.5
18942.4
17006.3
19263.3
16729.6
14596.6
13076.9
17459.3
17717.3
18462.3
17240.6
16726.2
16124.3
14711.3
16056.5
14618.8
14057.3
14371.3
19668.2
17265.1
17956.1
18842.2
17554
18552
17913
14422.6
14932.6
14783
14894.1
14360.8
14670.9
14934
15398.8
11809.4
11521.6
11282.2
12037.3
12370.2
12267
12726.7
12788
11627.3
11084
10738.5
19719
20919.2
20567.7
19914.6
19791
19932.9
19875.5
19625.4
20303.4
19291.4
19727.6
19814.6
17513.8
17578.9
19247.7
18329.1
16572.1
14831.8
14796
15862.2
14552.2
11635.8
11919.6
11397.9
12106.1
12320.7
11433.9
11028.2
7227.56
6631.66
20327.8
19934.2
20214.9
19800
20246.9
21049.6
20331.4
19760.7
17371.9
16211.8
17304
17469.9
14571
15395.2
11726.1
11151.1
12491.3
13155.2
12738.4
10829.3
6578.51
7138.61
5419.12
5424.36
7189.63
20008.8
19656.9
19545.6
19274.6
19706
19961.1
19554.4
20148.3
21211.1
20520.6
19713.6
18575.3
17480
17619.9
18200.4
19380.2
18389.2
17541.2
17500.8
14753.6
14850.4
15305
15426.6
14942.2
15344.3
11360.2
11111.5
11552
12156.8
11932.7
12331.8
12430.6
12365.4
11337.2
10964.3
12048.2
11578.6
16303.8
15701.1
15867.7
14684.5
14459.6
14073.4
13760.8
18980.3
18354.9
19255.8
18792.4
18278.1
19018.1
19120.6
19472.7
20041.5
19136.4
19245.7
19011.5
20807.8
20034.7
19740.9
19283.8
20061.8
20459.1
19727.9
18649.2
18791.6
19265.5
18231.6
19158.9
19461.4
19915.7
19913.5
20285.8
20105.3
19893.9
19468.2
19449.1
19340.6
19616.1
19010.5
19085.4
18355.8
18957
18148.1
18407
19395.4
17386.3
18894.1
17635.9
17816.3
17199.1
16521.9
18790.5
17474.5
17541.3
18122.2
16581.8
16983
17506.5
16363.6
16833.3
16002.2
17714.2
18877.6
17558.8
17739.4
17892.7
16724.6
17072.8
16971.5
14761.9
15069.8
14700.9
13951.3
13600.2
14012.7
13331.9
12971.5
14842.9
15072.5
14798.8
14087.4
13715.5
14298.1
13264
12979.5
12645.1
14843
12963.7
14025.2
13744.2
14118.3
13240.9
14821
15190.9
14818.5
15175.1
13102.3
12703.7
14080.4
13761.8
14218.8
13158.5
12870.4
12131.2
11873.2
12095.2
11853.5
11326.4
11341
10980.1
11764
11159.9
12502.5
10869.3
11062.3
10680.5
10283.7
10842.9
10631
10012.5
9743.21
9113.05
11980.6
11631.2
11350.9
12057.6
11084.7
11368.8
10015.3
9676.94
9524.48
9123.25
10703.4
10357.2
10886.9
10646.8
10545
12128.4
11859.6
12301.2
12300.5
11373.6
10967
11885.1
11509.9
22602.4
21800.3
21060.6
22390.6
20949.5
21176.8
21738.4
20440.7
20649.3
20974.4
20886.3
19669.9
20383.4
19477.1
19364.1
19283.8
19166.2
19600.1
19464
20020.9
20383.2
18774.6
19958.8
19038.1
19562.1
19064.4
20093.2
19293.9
20118.8
19690.4
20224
19757.8
18855.8
19355.9
18385.1
19488
17243.5
17997.7
17569.8
16049.1
16782.1
16813.4
17742.2
16001
17426.3
15969
16775.3
16097.5
15534.7
15888.8
14771.1
14607.8
13786.4
14121.4
13909.4
13690.1
13115.7
14729.1
12983.6
15305.1
14662
13892.6
11107.5
10661.5
10358.4
10956.3
10700.7
11673.7
11102.5
12495
10795.2
9972.64
9833.92
9197.51
8268.55
7625.65
8347.65
7649.84
8850.51
9409.38
8824.8
8153.67
8295.43
11535.1
11887.1
11298.4
12019.7
10949.6
10423.9
10945.4
10592.1
11561.4
11024.7
12170.4
12622.6
10792.1
9981.3
10571.9
9741.31
9126.08
10300
7151.61
6615.45
7330.01
6680.85
5488.85
5463.57
5461.51
5434.73
6494.81
22088.1
20763
21210.9
21027.3
20786.6
22148.5
21299.2
20953.5
20609.1
19825.4
20869.8
21029.6
21503.7
19929
20087.2
20411.7
20443.1
18783.2
19692.9
18755.3
20113.4
19474.2
19419.6
19218.5
19687.1
19152
19638.8
20158.3
19302.2
18674.1
18424.8
19681.6
20106.5
18807.9
19903.1
18912.5
18314.2
20208.1
19434.8
19355.4
19603.2
19099.3
19021.4
19507.1
20083.1
19137.3
18428
17587.5
17606.4
16851.1
16153.5
16825.4
18759.1
17710.8
17745.8
17108.2
16973.1
16468.9
16793.1
16787.6
16059.1
15990
14722.1
15816
14473.8
15280.5
14097.7
13818.8
16060.1
15426.3
13200.5
14712.4
12939.2
14456.2
13610
13024.1
13937.8
14338.1
14456.6
13931.1
13981.8
15950.9
14655.5
9992.45
9896.64
9856.59
9280.02
11961.1
11562.1
11359.4
12093.1
11155.7
11450
10466.1
11130.9
10939.1
10670.3
10494.8
8951.19
8904.67
9449.81
8234.07
8287.36
7611.39
8328.58
8339.45
7606.75
9355.48
8776.15
8830.2
9443.63
8171.75
11585.9
11056.5
12316
12637.5
10811.9
10004.4
10595.3
9677.26
9769.37
10337.7
11432.6
10990.8
11833.2
11601.1
11316.7
12045.6
12274.5
10365.2
10702
10917.6
10606.4
10520.5
5480.43
5476.74
7259.97
7190.3
6645.15
6493.25
7861.36
7197.61
6534.64
18342.5
19254.9
19190.3
18174
19100.1
18334
18264.4
20155.3
19728.3
20426.9
19762.2
18832.9
19429.3
19119.5
19919.6
19298.4
19577.3
18792
18890.1
20082.7
19457.7
19163.9
19343.1
19070.5
19055.9
19386.1
18427.4
18358.8
18914.2
19315.1
18844.9
19536.3
19095.5
20412.6
19011.7
18498.9
18787.9
18988.3
18409.1
18240.6
19437.7
17526.8
16840.6
16853.5
17272.1
16135.4
18683.1
17439.2
17407.8
17951.3
17080.4
17100.8
16722.1
18323.1
17333.1
17572.9
17982.3
16580.4
16730.2
17337.1
17228.6
16147.5
17887.4
18776.4
17742.3
17929.3
17142.6
17114.4
16833.8
16797.1
16088.9
14045.7
13744.1
14177
13306.6
13128.4
12802.7
14943.1
14542.6
15045.3
14868.8
13736.9
14099.7
14067.6
13091.9
12834.2
12896.7
14835.5
14811.8
15163.1
14753.5
15248.8
12948.4
13192.8
14012.9
13654.7
14060
13012.8
12824.8
15279.2
14721.5
14718
15000.5
15358.2
13071.4
12826
13737.6
14100
14140.7
11895.2
12186.3
11374.8
11287.6
10939.9
12147.6
11869.3
12209.9
10723.3
10349.9
10890.8
10587.2
10139
10791.4
9824.07
9170
10428.5
11619.7
11828.4
11278.5
12163
12851
13636.3
11988.7
11332.8
10925.4
11212.4
11832.6
10001.9
10549.9
9719.97
9629.47
10255.1
10801.1
10405.5
10829
10777.6
10532
12277.8
12985.8
11667.9
11093.8
10764.5
12059.5
12333.8
11590.8
11910.8
11364.6
18048.8
17661.9
13029.4
12451.9
20211
19696.7
20067.6
20157.7
20025.5
17431
18629.2
18040.7
18406.4
15254.5
15965.1
12557.5
7662.81
7417.64
18098.4
17968.4
12226.5
7691.04
7309.85
8680.07
20137.7
17539.8
15796.2
8575.18
18413.8
17940.6
18339.3
15253.6
16030.7
16035.5
12173.6
18153.2
18404.7
16107.5
16058.2
18240.8
15938.3
16053.5
14958
15323.3
12719.1
13383.3
13744.3
17678.1
18211
15886.5
16774.9
15159.2
15643.8
12729.9
13367.6
13444.9
17567.6
18534.8
16001
17085.3
13636.9
12832.3
13604.2
14781.1
16753.8
16630.7
18406.5
18613.6
16011.5
15889.7
15773.2
16121.7
13380.6
12915
13466.1
12345.1
20961.3
20535
18281.8
19862.8
18218.9
20290.2
20083
15942
17717.6
17627.8
17991.7
17620.3
15873
13706.1
13449.1
13468.3
13561.8
13433.9
13301.3
10124
12465.2
9849.64
10196.9
20628.1
20235.3
21068.6
20346.2
20889.9
20526.9
20640.9
20536.8
20887.4
20407.2
18369.5
19957.6
18399.7
19128.1
18374.9
15973.9
16926.9
17506.6
18832.1
16138.4
18194.5
15970.9
12965.9
13512.2
13804.1
13117.4
13583.1
13319.1
12377.9
10168.2
9620.02
9515.11
10007.6
12423.5
10098
7458.71
7769.21
7305.27
20959.1
20807.4
20520
21458.1
20484.5
20831.9
20505.4
21217.5
20684.3
18397.4
19882.5
18135.3
20181.2
19998.9
19627.9
20002.6
19383
18191.1
18662.5
15910.1
17367.1
18647.6
17635.4
18486.3
16020.1
12828.7
13548.5
15215.6
15801.2
13228.8
13954.7
12972.5
13405.5
15695.6
12518
10143.9
9271.71
9640.4
9339.55
12399.2
10092.6
7467.03
7318.71
7377.56
20592
19000.6
18426.6
20229.7
18180.8
16010.3
18040.5
17750.3
17782.5
17705.2
13377.7
13977.7
13386.4
13341
13345.5
10106.4
12873.2
10244.3
12599.6
18332.5
17438.2
16710.6
17214.6
18482.9
17624.5
14226
14973.3
14539.3
17733
18531.1
17792.6
16949.7
18710.6
16330.4
17206.7
17178.3
16623.9
17781.2
17063.2
18552.3
16631
17003.2
17073.6
16841.4
15197.3
15184.5
14384.5
14126.6
13663
13118.2
14131
13593
14141.8
18420.6
17319.8
16871.4
17471.5
18394.9
16421.7
16668.4
16716.2
15545.3
17228.1
14736.4
15549.6
15319.5
14388
14238.4
13729
13102.2
13942.1
13527.3
14168.6
17526.5
18378.6
16441.8
16566.5
16854.2
15469.3
17135.4
15124.5
14200.7
13455.4
14476.8
14269.3
14961.3
19506.8
19562.8
19431.1
19670.4
16719.1
18516.3
17791.5
14846.8
14907.9
15427.2
15374
15173.4
12246.5
12877.3
12719
11494.5
11247.3
13008
12354
12350.8
19703.1
19826.4
20262.3
19439.8
16978.3
17775.2
16468.8
18890.5
17583.7
15094
15018.3
14377.7
12367.1
13288.2
12732.1
11571.7
8924.51
9115.28
8242.98
8287.31
7598.65
7239.44
19674.3
19565.7
19596.1
19338.9
20037.5
17333.7
18131.4
17905.3
14646
11298.1
12758.5
8304.93
7601.52
7293.96
6430.5
9162.97
19759.4
19621.3
20185.3
19716.4
20029.4
19910
19697.1
19580.1
19931.4
16406.5
16925.1
19617.2
17600.2
15259
15264.4
12382.3
12950.7
12376.5
11978.3
12677.6
11461.7
9174.16
15138.3
12690.8
18782.8
18481.7
17204.7
17378.4
15133.8
14816.6
14912.7
13886.4
13415.6
14334.6
13809.4
13920
13332
20903.4
20615.6
17923.4
17963.2
19049.1
19559.1
19330.3
19293.6
18093.8
18978.6
18598.6
19254
18292.1
18886.7
19803.7
19411.9
19510.3
19427.3
18125.5
18519.1
18810.1
19161.7
19746.4
20078.7
19900.2
20058.1
19022.1
18186.1
18724
20074.6
19705.7
20020.7
19791.6
18250.2
19600.6
19815.2
19271.6
18580.6
18877.5
18508.6
17182
16960
18928
17334.6
16780.6
16855
15884.1
16041.7
15953.6
16862.2
18575.5
17725.4
16159.8
16095.1
16840.7
16181
16922.9
18363.4
17117.8
16030.1
15332.9
15339.7
14274.3
14511
12918.5
15333.9
14252.5
14615.9
13094
14959.1
15368.3
14444.2
12991.5
15281.6
13863.3
14271.8
12303.6
12291.2
11293
11360.5
10502.5
10567.5
11401.3
10636.7
10402.4
9688.28
9473.04
9439.08
9832.83
12321.9
11497.3
10590.4
10274.8
9732.2
9790.25
9401.8
11944
12318.7
10559.6
21106.5
20184.6
20834.2
19946.7
20108
21104.2
19637.2
22106.8
20280.6
20428
20396
21212
20440.2
21067.2
22017.8
21296.8
20333.3
20853.2
18895.3
19736.6
20486.3
19963.2
18397.1
19331.8
18805.1
19726
19364.2
19657.8
19416.5
20113.4
18885.5
18087.6
18410.4
19186.3
20021.7
19540.2
19461
19050.3
16588.4
16847.6
15947.2
17562.9
18353.7
16654.9
16971.4
17240.3
17439.9
17470.3
18192.2
16699.9
14967.8
14123.7
13834.2
14703.9
15159.7
13593.8
13928.2
14351.9
14814.5
14132.4
13616.9
13073.4
9802.45
9619.44
9492.02
11280.8
10591.6
10300.6
9724.17
12261.5
12537.7
9756.14
9545.65
11260.8
9743.96
7296.35
7325.2
6585.64
7866.23
6462.87
7308.33
7984.44
21281.5
20339.4
21733.1
20714.3
20665
19931.5
20151.6
19631.2
21002.8
21635.2
21105.3
20347.8
19981.2
19900.4
20464.4
20402
20442.1
18897.1
20182
18776.3
20019.6
20059.9
19635.2
17924.8
19977.1
19131.9
19612.5
19433
19000.7
19473.3
19444.7
18542.6
18838.8
18491.5
17079.2
18349.1
17334.1
16749.1
16426.7
15474.8
16828.5
18581.3
17145
17203
14882.1
13721.4
14146.6
14689.7
15062.6
13845.2
14285.7
14559.1
14062
13582.9
15041.1
15129.9
10611.1
10322.2
9756.33
12463.8
11585.8
9787.34
9654.73
11303.9
9781.85
12235.8
9713.74
6541.83
7291.34
7999.15
21056.3
19632.4
18284.6
19310.9
18344.7
18230.1
18930
20061.5
19642.2
19516.5
18454.7
18738.9
19219.1
19050.8
19778.1
19516.2
19605.6
19419
19032.4
18255.4
19395.3
18792.9
18589.7
17472.6
16114.4
17067.6
19019
17265.1
16706.1
15939
15923.1
16848.6
18603.8
16000.3
16869
18562.6
16126.8
14130.5
13283
14968.8
15326.1
14952.6
14196
14684.8
15177.2
13859.7
15258.1
13902.7
10482.4
12298.2
9715.34
9516.82
9890.06
12264.7
12950.2
11394.7
9704.47
9882.42
11221.3
12322
)
;
    }
}


// ************************************************************************* //
