/*--------------------------------*- C++ -*----------------------------------*\
| =========                 |                                                 |
| \\      /  F ield         | OpenFOAM: The Open Source CFD Toolbox           |
|  \\    /   O peration     | Version:  v1906                                 |
|   \\  /    A nd           | Web:      www.OpenFOAM.com                      |
|    \\/     M anipulation  |                                                 |
\*---------------------------------------------------------------------------*/
FoamFile
{
    version     2.0;
    format      ascii;
    class       surfaceScalarField;
    location    "1.4/oil";
    object      phi;
}
// * * * * * * * * * * * * * * * * * * * * * * * * * * * * * * * * * * * * * //

dimensions      [1 0 -1 0 0 0 0];
oriented        oriented;


internalField   nonuniform List<scalar> 
80688
(
-3.34269e-06
-3.39993e-06
-3.34268e-06
-1.51308e-06
-9.44546e-07
-8.85067e-07
-4.19151e-07
-5.48117e-07
-5.45807e-07
-2.17705e-07
-9.88201e-08
-1.02626e-07
-1.043e-07
-5.50773e-08
-5.83278e-08
-5.37517e-08
-2.3983e-08
-2.65654e-08
-2.93398e-08
-1.10815e-08
-1.33304e-08
-1.70848e-08
-5.06955e-09
-7.18546e-09
-1.06265e-08
-2.19792e-09
-4.26037e-09
-7.04671e-09
-7.73105e-10
-2.80667e-09
-4.95117e-09
-4.06311e-11
-2.0549e-09
-3.64453e-09
3.41962e-10
-1.6486e-09
-2.77721e-09
5.53325e-10
-1.42064e-09
-2.16468e-09
6.75005e-10
-1.28753e-09
-1.70843e-09
7.50161e-10
-1.20641e-09
-1.35434e-09
8.01079e-10
-1.15517e-09
-1.07056e-09
8.38882e-10
-1.12265e-09
-8.34334e-10
8.67942e-10
-1.10417e-09
-6.24393e-10
8.88524e-10
-1.09846e-09
-4.15716e-10
8.97579e-10
-1.10625e-09
-1.78214e-10
8.90392e-10
-1.12789e-09
1.19316e-10
8.63722e-10
-1.16125e-09
4.94465e-10
8.22676e-10
-1.19782e-09
9.22851e-10
7.90919e-10
-1.2193e-09
1.30473e-09
8.14913e-10
-1.19679e-09
1.46196e-09
9.40423e-10
-1.09764e-09
1.22548e-09
1.14012e-09
-9.03634e-10
6.2596e-10
1.22846e-09
-6.28934e-10
5.32758e-11
8.89329e-10
-3.16641e-10
9.2654e-11
-3.93759e-11
-9.0331e-07
-1.59331e-06
-9.03304e-07
-5.50682e-07
-5.66907e-07
-7.30267e-07
-4.08941e-07
-3.69917e-07
-3.19941e-07
-2.26164e-07
-1.45196e-07
-1.364e-07
-1.28554e-07
-7.65998e-08
-7.6088e-08
-7.64031e-08
-3.57833e-08
-4.03505e-08
-4.72796e-08
-1.70241e-08
-2.31809e-08
-3.07205e-08
-7.19577e-09
-1.44329e-08
-2.09531e-08
-2.03962e-09
-9.9257e-09
-1.49498e-08
7.71746e-10
-7.5481e-09
-1.1071e-08
2.3395e-09
-6.25894e-09
-8.42406e-09
3.23617e-09
-5.54116e-09
-6.50817e-09
3.76348e-09
-5.12605e-09
-5.04299e-09
4.0854e-09
-4.87557e-09
-3.86941e-09
4.29124e-09
-4.71466e-09
-2.89647e-09
4.43067e-09
-4.60252e-09
-2.06864e-09
4.52927e-09
-4.51822e-09
-1.34519e-09
4.59734e-09
-4.45285e-09
-6.87528e-10
4.6354e-09
-4.40453e-09
-5.11335e-11
4.63673e-09
-4.37554e-09
6.1533e-10
4.59275e-09
-4.36882e-09
1.36099e-09
4.50252e-09
-4.38446e-09
2.20571e-09
4.39192e-09
-4.41396e-09
3.09128e-09
4.33692e-09
-4.43157e-09
3.82712e-09
4.46472e-09
-4.38564e-09
4.08799e-09
4.87547e-09
-4.19591e-09
3.55726e-09
5.44037e-09
-3.76952e-09
2.23945e-09
5.58306e-09
-3.03679e-09
7.34734e-10
4.39296e-09
-1.99891e-09
1.55473e-09
-7.27342e-10
-5.66831e-07
-4.59655e-07
-5.66825e-07
-3.93354e-07
-4.0917e-07
-3.31215e-07
-2.84961e-07
-2.63763e-07
-2.14546e-07
-1.80191e-07
-1.31657e-07
-1.18309e-07
-1.15887e-07
-7.19583e-08
-6.89459e-08
-7.56706e-08
-3.58264e-08
-4.01731e-08
-5.09379e-08
-1.67546e-08
-2.50022e-08
-3.55248e-08
-5.81425e-09
-1.67946e-08
-2.56813e-08
4.65231e-10
-1.23483e-08
-1.91694e-08
4.16723e-09
-9.90742e-09
-1.46684e-08
6.37961e-09
-8.54103e-09
-1.13963e-08
7.72417e-09
-7.76015e-09
-8.89079e-09
8.55675e-09
-7.29876e-09
-6.8778e-09
9.08553e-09
-7.01312e-09
-5.19759e-09
9.43235e-09
-6.8213e-09
-3.7569e-09
9.6679e-09
-6.67792e-09
-2.49848e-09
9.82993e-09
-6.55907e-09
-1.37976e-09
9.93388e-09
-6.45526e-09
-3.59869e-10
9.98052e-09
-6.365e-09
6.07551e-10
9.962e-09
-6.29269e-09
1.57364e-09
9.87043e-09
-6.24377e-09
2.58243e-09
9.71563e-09
-6.2219e-09
3.64108e-09
9.55578e-09
-6.22252e-09
4.67021e-09
9.5301e-09
-6.22231e-09
5.45232e-09
9.84756e-09
-6.16494e-09
5.63632e-09
1.06402e-08
-5.94873e-09
4.88422e-09
1.16262e-08
-5.43373e-09
3.18657e-09
1.17623e-08
-4.4816e-09
1.16212e-09
9.45832e-09
-3.04091e-09
3.87882e-09
-1.16196e-09
-1.15204e-07
-2.29253e-07
-1.15198e-07
-1.65792e-07
-2.15397e-07
-1.43185e-07
-1.54065e-07
-1.56023e-07
-1.19468e-07
-1.17257e-07
-9.07022e-08
-7.77627e-08
-8.6197e-08
-5.255e-08
-5.04686e-08
-6.25437e-08
-2.69948e-08
-3.24848e-08
-4.58975e-08
-1.15606e-08
-2.18403e-08
-3.43217e-08
-1.76954e-09
-1.56205e-08
-2.6221e-08
4.40383e-09
-1.20393e-08
-2.04149e-08
8.34152e-09
-9.9804e-09
-1.61065e-08
1.08587e-08
-8.78742e-09
-1.27721e-08
1.24779e-08
-8.08816e-09
-1.00778e-08
1.35293e-08
-7.6669e-09
-7.81599e-09
1.42231e-08
-7.39939e-09
-5.86179e-09
1.46897e-08
-7.21154e-09
-4.14369e-09
1.50099e-08
-7.06008e-09
-2.61873e-09
1.52277e-08
-6.92272e-09
-1.25377e-09
1.53613e-08
-6.79242e-09
-1.70651e-11
1.54134e-08
-6.66963e-09
1.12938e-09
1.53768e-08
-6.56128e-09
2.22559e-09
1.52493e-08
-6.47505e-09
3.30141e-09
1.50582e-08
-6.41838e-09
4.34996e-09
1.4898e-08
-6.39076e-09
5.2871e-09
1.49668e-08
-6.37379e-09
5.91308e-09
1.55371e-08
-6.31552e-09
5.92387e-09
1.67423e-08
-6.11289e-09
5.04229e-09
1.81224e-08
-5.61458e-09
3.28244e-09
1.81829e-08
-4.66078e-09
1.21876e-09
1.4703e-08
-3.18097e-09
6.31873e-09
-1.22115e-09
-6.32363e-08
-1.02787e-07
-6.32302e-08
-9.06205e-08
-1.09487e-07
-7.85258e-08
-9.10938e-08
-8.68262e-08
-6.87231e-08
-7.71684e-08
-5.4914e-08
-4.97136e-08
-6.22442e-08
-3.26123e-08
-3.48618e-08
-4.9021e-08
-1.60846e-08
-2.41334e-08
-3.85785e-08
-4.79799e-09
-1.72052e-08
-3.0576e-08
3.11931e-09
-1.28913e-08
-2.44833e-08
8.58646e-09
-1.02754e-08
-1.97746e-08
1.23444e-08
-8.71159e-09
-1.60359e-08
1.49014e-08
-7.78144e-09
-1.29656e-08
1.66345e-08
-7.22687e-09
-1.03556e-08
1.78096e-08
-6.89019e-09
-8.07332e-09
1.8612e-08
-6.67113e-09
-6.04021e-09
1.91654e-08
-6.50879e-09
-4.21551e-09
1.95499e-08
-6.36472e-09
-2.57871e-09
1.98112e-08
-6.22027e-09
-1.11356e-09
1.99683e-08
-6.0721e-09
1.98538e-10
2.00255e-08
-5.92416e-09
1.38278e-09
1.9979e-08
-5.78639e-09
2.46446e-09
1.98374e-08
-5.66979e-09
3.45993e-09
1.96465e-08
-5.58378e-09
4.35417e-09
1.95343e-08
-5.53058e-09
5.07238e-09
1.97466e-08
-5.49802e-09
5.45826e-09
2.05935e-08
-5.44223e-09
5.2911e-09
2.21814e-08
-5.27197e-09
4.38878e-09
2.38734e-08
-4.84874e-09
2.80568e-09
2.37895e-08
-4.0235e-09
1.03028e-09
1.92103e-08
-2.73189e-09
8.38139e-09
-1.03238e-09
-2.8312e-08
-4.61683e-08
-2.83062e-08
-4.56063e-08
-5.21293e-08
-4.00631e-08
-5.17361e-08
-4.24571e-08
-3.82393e-08
-4.89313e-08
-2.73016e-08
-3.04171e-08
-4.32219e-08
-1.5392e-08
-2.29297e-08
-3.6788e-08
-5.59343e-09
-1.69251e-08
-3.08949e-08
2.00702e-09
-1.2698e-08
-2.58376e-08
7.95828e-09
-9.89634e-09
-2.16085e-08
1.24721e-08
-8.11476e-09
-1.80628e-08
1.58146e-08
-7.01578e-09
-1.50395e-08
1.82307e-08
-6.35263e-09
-1.23983e-08
1.99512e-08
-5.95798e-09
-1.00331e-08
2.11658e-08
-5.72138e-09
-7.87865e-09
2.20225e-08
-5.56492e-09
-5.90124e-09
2.26268e-08
-5.43889e-09
-4.09378e-09
2.30525e-08
-5.31003e-09
-2.46102e-09
2.33422e-08
-5.16382e-09
-1.00462e-09
2.3514e-08
-5.00208e-09
2.78985e-10
2.35741e-08
-4.83224e-09
1.40257e-09
2.35243e-08
-4.66889e-09
2.38016e-09
2.33849e-08
-4.52513e-09
3.21892e-09
2.322e-08
-4.41227e-09
3.90282e-09
2.31865e-08
-4.33611e-09
4.37694e-09
2.35603e-08
-4.28781e-09
4.53574e-09
2.4667e-08
-4.23234e-09
4.24381e-09
2.65678e-08
-4.09441e-09
3.41054e-09
2.84654e-08
-3.75873e-09
2.11971e-09
2.81829e-08
-3.10251e-09
7.56996e-10
2.26501e-08
-2.07712e-09
9.89652e-09
-7.58133e-10
-1.35977e-08
-1.89784e-08
-1.35922e-08
-2.45109e-08
-1.99672e-08
-2.12488e-08
-3.04694e-08
-1.4796e-08
-2.17025e-08
-3.14464e-08
-7.75049e-09
-1.85741e-08
-2.99555e-08
-2.01034e-09
-1.48726e-08
-2.7245e-08
3.28092e-09
-1.15849e-08
-2.4214e-08
8.05985e-09
-9.08385e-09
-2.12386e-08
1.23168e-08
-7.33393e-09
-1.8474e-08
1.58878e-08
-6.18028e-09
-1.59406e-08
1.87388e-08
-5.45762e-09
-1.36086e-08
2.09252e-08
-5.02655e-09
-1.1434e-08
2.25578e-08
-4.78109e-09
-9.37939e-09
2.37548e-08
-4.64366e-09
-7.42764e-09
2.46241e-08
-4.55336e-09
-5.58226e-09
2.52498e-08
-4.46837e-09
-3.86648e-09
2.56942e-08
-4.35752e-09
-2.30925e-09
2.5995e-08
-4.20998e-09
-9.28859e-10
2.61684e-08
-4.03476e-09
2.65576e-10
2.62235e-08
-3.8438e-09
1.27709e-09
2.61686e-08
-3.65577e-09
2.11308e-09
2.60351e-08
-3.4862e-09
2.77732e-09
2.59049e-08
-3.34912e-09
3.25964e-09
2.59549e-08
-3.25068e-09
3.52611e-09
2.64791e-08
-3.18536e-09
3.5187e-09
2.78001e-08
-3.12575e-09
3.17033e-09
2.99273e-08
-3.01114e-09
2.45684e-09
3.19283e-08
-2.7494e-09
1.47352e-09
3.14121e-08
-2.2459e-09
5.05068e-10
2.5088e-08
-1.46948e-09
1.09075e-08
-5.05874e-10
-6.77407e-09
-5.4354e-09
-6.76894e-09
-1.35051e-08
-1.66825e-09
-1.15679e-08
-1.82759e-08
2.53946e-09
-1.25648e-08
-2.04054e-08
5.83227e-09
-1.14533e-08
-2.08038e-08
8.06469e-09
-9.67656e-09
-2.00822e-08
1.04668e-08
-7.90749e-09
-1.87806e-08
1.3217e-08
-6.45873e-09
-1.7199e-08
1.61339e-08
-5.39856e-09
-1.55073e-08
1.88819e-08
-4.68584e-09
-1.37814e-08
2.12574e-08
-4.24441e-09
-1.20476e-08
2.31896e-08
-3.99812e-09
-1.03118e-08
2.47014e-08
-3.87942e-09
-8.57538e-09
2.58512e-08
-3.83276e-09
-6.85421e-09
2.67086e-08
-3.80565e-09
-5.17723e-09
2.7334e-08
-3.76113e-09
-3.59291e-09
2.77779e-08
-3.66801e-09
-2.15056e-09
2.80715e-08
-3.51886e-09
-8.82138e-10
2.82294e-08
-3.32952e-09
1.94229e-10
2.82639e-08
-3.1167e-09
1.07631e-09
2.8192e-08
-2.9055e-09
1.76875e-09
2.8056e-08
-2.71329e-09
2.2765e-09
2.79519e-08
-2.55476e-09
2.59723e-09
2.80704e-08
-2.43618e-09
2.71706e-09
2.87132e-08
-2.35393e-09
2.61303e-09
3.01907e-08
-2.28655e-09
2.26515e-09
3.24607e-08
-2.1855e-09
1.6875e-09
3.44835e-08
-1.9775e-09
9.71242e-10
3.37189e-08
-1.59053e-09
3.15963e-10
2.67508e-08
-1.00743e-09
1.1541e-08
-3.17528e-10
-3.54048e-09
1.64092e-09
-3.53583e-09
-7.7751e-09
9.11055e-09
-6.54419e-09
-1.13304e-08
1.36142e-08
-7.5194e-09
-1.35363e-08
1.52783e-08
-7.24015e-09
-1.46366e-08
1.5581e-08
-6.41594e-09
-1.48797e-08
1.61841e-08
-5.47429e-09
-1.45505e-08
1.75352e-08
-4.6474e-09
-1.38434e-08
1.94494e-08
-4.02264e-09
-1.28903e-08
2.15338e-08
-3.60505e-09
-1.17672e-08
2.34977e-08
-3.36338e-09
-1.05171e-08
2.5195e-08
-3.25557e-09
-9.16336e-09
2.65845e-08
-3.2368e-09
-7.72566e-09
2.76781e-08
-3.26462e-09
-6.23758e-09
2.85122e-08
-3.29167e-09
-4.74444e-09
2.91252e-08
-3.28439e-09
-3.31261e-09
2.95536e-08
-3.20754e-09
-2.00766e-09
2.98224e-08
-3.05589e-09
-8.68535e-10
2.99455e-08
-2.8552e-09
7.9539e-11
2.99415e-08
-2.62568e-09
8.34072e-10
2.98345e-08
-2.39709e-09
1.39913e-09
2.96779e-08
-2.18701e-09
1.78301e-09
2.95803e-08
-2.01229e-09
1.99039e-09
2.9742e-08
-1.87901e-09
2.02348e-09
3.04643e-08
-1.78413e-09
1.88158e-09
3.20416e-08
-1.70898e-09
1.57202e-09
3.43847e-08
-1.6145e-09
1.12586e-09
3.63732e-08
-1.44362e-09
6.20421e-10
3.53644e-08
-1.1401e-09
1.8996e-10
2.78753e-08
-6.94028e-10
1.19242e-08
-1.93312e-10
-1.94882e-09
5.53447e-09
-1.94472e-09
-4.67218e-09
1.57067e-08
-3.87279e-09
-7.26291e-09
2.08901e-08
-4.68515e-09
-9.19594e-09
2.19425e-08
-4.73119e-09
-1.04577e-08
2.12153e-08
-4.37253e-09
-1.11142e-08
2.07177e-08
-3.87709e-09
-1.1295e-08
2.11272e-08
-3.41116e-09
-1.11079e-08
2.2316e-08
-3.05371e-09
-1.06401e-08
2.38906e-08
-2.82468e-09
-9.95002e-09
2.55226e-08
-2.71501e-09
-9.0748e-09
2.70211e-08
-2.70124e-09
-8.04196e-09
2.83032e-08
-2.75148e-09
-6.87599e-09
2.93454e-08
-2.83329e-09
-5.6172e-09
3.01555e-08
-2.90209e-09
-4.31743e-09
3.075e-08
-2.92449e-09
-3.05382e-09
3.11521e-08
-2.86207e-09
-1.9017e-09
3.13816e-08
-2.71124e-09
-9.0285e-10
3.1453e-08
-2.50632e-09
-8.36609e-11
3.13915e-08
-2.26924e-09
5.53809e-10
3.12316e-08
-2.03453e-09
1.01461e-09
3.10374e-08
-1.82024e-09
1.30976e-09
3.09256e-08
-1.64041e-09
1.45007e-09
3.11026e-08
-1.50089e-09
1.44559e-09
3.1868e-08
-1.39922e-09
1.30902e-09
3.34981e-08
-1.31988e-09
1.05933e-09
3.5866e-08
-1.2316e-09
7.32924e-10
3.77862e-08
-1.08657e-09
3.88199e-10
3.65506e-08
-8.41413e-10
1.11913e-10
2.86443e-08
-4.92724e-10
1.2154e-08
-1.17837e-10
-1.13326e-09
7.79748e-09
-1.12975e-09
-2.93579e-09
1.99137e-08
-2.40444e-09
-4.81618e-09
2.58152e-08
-3.04466e-09
-6.39732e-09
2.6724e-08
-3.20034e-09
-7.58473e-09
2.54665e-08
-3.06379e-09
-8.36319e-09
2.43026e-08
-2.80651e-09
-8.7762e-09
2.40864e-08
-2.54624e-09
-8.87515e-09
2.47616e-08
-2.34667e-09
-8.70968e-09
2.59558e-08
-2.23066e-09
-8.31797e-09
2.73292e-08
-2.19828e-09
-7.72746e-09
2.86672e-08
-2.23662e-09
-6.96169e-09
2.98605e-08
-2.32305e-09
-6.0426e-09
3.08586e-08
-2.43229e-09
-5.01007e-09
3.1646e-08
-2.52302e-09
-3.91438e-09
3.22192e-08
-2.56487e-09
-2.83581e-09
3.25886e-08
-2.51503e-09
-1.85151e-09
3.27682e-08
-2.37099e-09
-1.00119e-09
3.27779e-08
-2.17524e-09
-3.08897e-10
3.26493e-08
-1.95005e-09
2.2515e-10
3.24261e-08
-1.7285e-09
6.05311e-10
3.21829e-08
-1.52569e-09
8.44742e-10
3.20419e-08
-1.35576e-09
9.55828e-10
3.22141e-08
-1.22256e-09
9.52522e-10
3.2995e-08
-1.12373e-09
8.51425e-10
3.46452e-08
-1.04606e-09
6.75803e-10
3.70063e-08
-9.64617e-10
4.55893e-10
3.88483e-08
-8.42152e-10
2.34581e-10
3.7415e-08
-6.43076e-10
6.50538e-11
2.9178e-08
-3.64215e-10
1.22931e-08
-7.40247e-11
-6.95246e-10
9.18513e-09
-6.92405e-10
-1.91935e-09
2.26978e-08
-1.56e-09
-3.28596e-09
2.9233e-08
-2.05121e-09
-4.53227e-09
3.0196e-08
-2.22571e-09
-5.55369e-09
2.86786e-08
-2.19061e-09
-6.30504e-09
2.71113e-08
-2.05727e-09
-6.78834e-09
2.64788e-08
-1.90902e-09
-7.02237e-09
2.6791e-08
-1.79533e-09
-7.03077e-09
2.77008e-08
-1.73654e-09
-6.83741e-09
2.88718e-08
-1.73601e-09
-6.46084e-09
3.0078e-08
-1.7874e-09
-5.91759e-09
3.11922e-08
-1.87501e-09
-5.22687e-09
3.21485e-08
-1.98062e-09
-4.42127e-09
3.29098e-08
-2.06938e-09
-3.54484e-09
3.34591e-08
-2.11642e-09
-2.67098e-09
3.37926e-08
-2.07785e-09
-1.87092e-09
3.39209e-08
-1.95274e-09
-1.17577e-09
3.38688e-08
-1.78598e-09
-6.06676e-10
3.36748e-08
-1.59467e-09
-1.633e-10
3.33924e-08
-1.40969e-09
1.59963e-10
3.31005e-08
-1.24084e-09
3.72207e-10
3.2929e-08
-1.09928e-09
4.84737e-10
3.30885e-08
-9.86965e-10
5.11157e-10
3.38704e-08
-9.01747e-10
4.67288e-10
3.55231e-08
-8.34005e-10
3.72266e-10
3.78646e-08
-7.63352e-10
2.50765e-10
3.96307e-08
-6.60929e-10
1.29424e-10
3.80358e-08
-4.99514e-10
3.60386e-11
2.95479e-08
-2.76497e-10
1.23773e-08
-4.82191e-11
-4.47178e-10
1.00774e-08
-4.45075e-10
-1.29421e-09
2.45929e-08
-1.04805e-09
-2.28427e-09
3.16397e-08
-1.41662e-09
-3.23877e-09
3.27219e-08
-1.57135e-09
-4.06576e-09
3.1081e-08
-1.57545e-09
-4.71776e-09
2.92661e-08
-1.50283e-09
-5.17997e-09
2.83523e-08
-1.41131e-09
-5.45416e-09
2.84031e-08
-1.33793e-09
-5.55109e-09
2.90968e-08
-1.29906e-09
-5.48442e-09
3.01037e-08
-1.29855e-09
-5.26688e-09
3.11947e-08
-1.33419e-09
-4.91203e-09
3.22326e-08
-1.39518e-09
-4.43358e-09
3.31409e-08
-1.47081e-09
-3.85614e-09
3.38687e-08
-1.53633e-09
-3.21263e-09
3.43895e-08
-1.5739e-09
-2.56091e-09
3.46866e-08
-1.54574e-09
-1.95677e-09
3.47679e-08
-1.45107e-09
-1.4225e-09
3.46656e-08
-1.33113e-09
-9.72616e-10
3.44208e-08
-1.19582e-09
-6.06113e-10
3.40928e-08
-1.06687e-09
-3.21867e-10
3.37653e-08
-9.49024e-10
-1.14768e-10
3.35704e-08
-8.48523e-10
2.21069e-11
3.37182e-08
-7.66546e-10
9.84076e-11
3.44971e-08
-7.02998e-10
1.24986e-10
3.61471e-08
-6.50569e-10
1.16732e-10
3.84674e-08
-5.94483e-10
8.76118e-11
4.01739e-08
-5.14045e-10
5.03943e-11
3.8461e-08
-3.87935e-10
1.74841e-11
2.97936e-08
-2.12757e-10
1.24276e-08
-3.27846e-11
-2.98252e-10
1.06721e-08
-2.96487e-10
-8.87025e-10
2.58984e-08
-7.16782e-10
-1.59441e-09
3.33303e-08
-9.83259e-10
-2.29923e-09
3.45301e-08
-1.10346e-09
-2.93255e-09
3.28295e-08
-1.1152e-09
-3.45329e-09
3.08541e-08
-1.06726e-09
-3.84382e-09
2.97429e-08
-1.00006e-09
-4.10032e-09
2.95977e-08
-9.38018e-10
-4.22854e-09
3.01181e-08
-8.93113e-10
-4.2381e-09
3.09813e-08
-8.68064e-10
-4.1399e-09
3.19588e-08
-8.62321e-10
-3.9459e-09
3.29106e-08
-8.7209e-10
-3.66601e-09
3.37548e-08
-8.93793e-10
-3.31712e-09
3.44345e-08
-9.14758e-10
-2.91793e-09
3.49173e-08
-9.26947e-10
-2.5025e-09
3.51797e-08
-9.08586e-10
-2.10415e-09
3.52285e-08
-8.58984e-10
-1.7313e-09
3.50971e-08
-8.04309e-10
-1.39402e-09
3.48285e-08
-7.44943e-10
-1.09389e-09
3.44824e-08
-6.89727e-10
-8.34461e-10
3.41423e-08
-6.36415e-10
-6.16464e-10
3.39412e-08
-5.8879e-10
-4.39404e-10
3.40882e-08
-5.47089e-10
-3.00134e-10
3.48691e-08
-5.11278e-10
-1.93006e-10
3.65188e-08
-4.78868e-10
-1.11906e-10
3.88271e-08
-4.40865e-10
-5.26527e-11
4.04967e-08
-3.82075e-10
-1.28383e-11
3.87105e-08
-2.89302e-10
3.93299e-12
2.9936e-08
-1.59183e-10
1.24535e-08
-2.20042e-11
-2.03331e-10
1.10776e-08
-2.02146e-10
-6.06296e-10
2.67899e-08
-4.8848e-10
-1.09448e-09
3.4488e-08
-6.6952e-10
-1.58737e-09
3.57729e-08
-7.49813e-10
-2.03816e-09
3.40343e-08
-7.53961e-10
-2.41815e-09
3.19474e-08
-7.13317e-10
-2.71407e-09
3.06919e-08
-6.53143e-10
-2.92316e-09
3.03955e-08
-5.88734e-10
-3.05111e-09
3.0774e-08
-5.27926e-10
-3.10682e-09
3.15109e-08
-4.73886e-10
-3.10121e-09
3.23807e-08
-4.27569e-10
-3.04641e-09
3.32446e-08
-3.88767e-10
-2.95e-09
3.40173e-08
-3.58899e-10
-2.81921e-09
3.46422e-08
-3.38467e-10
-2.65898e-09
3.50835e-08
-3.2646e-10
-2.47623e-09
3.53154e-08
-3.1843e-10
-2.27802e-09
3.53427e-08
-3.12429e-10
-2.06196e-09
3.51986e-08
-3.17589e-10
-1.83216e-09
3.49244e-08
-3.25775e-10
-1.59264e-09
3.45784e-08
-3.3553e-10
-1.35198e-09
3.42428e-08
-3.41193e-10
-1.11666e-09
3.40472e-08
-3.41316e-10
-8.9288e-10
3.42007e-08
-3.36304e-10
-6.85843e-10
3.49898e-08
-3.27771e-10
-4.95725e-10
3.66432e-08
-3.14518e-10
-3.25827e-10
3.89508e-08
-2.93568e-10
-1.79472e-10
4.0608e-08
-2.57641e-10
-6.834e-11
3.87972e-08
-1.9786e-10
-6.38067e-12
2.99844e-08
-1.1037e-10
1.2461e-08
-1.38769e-11
-1.39055e-10
1.13548e-08
-1.38165e-10
-4.02529e-10
2.73737e-08
-3.20387e-10
-7.12192e-10
3.52243e-08
-4.26638e-10
-1.02218e-09
3.65486e-08
-4.65803e-10
-1.30523e-09
3.47717e-08
-4.54407e-10
-1.5461e-09
3.25986e-08
-4.10328e-10
-1.73911e-09
3.12316e-08
-3.46621e-10
-1.88596e-09
3.08135e-08
-2.71117e-10
-1.99436e-09
3.1069e-08
-1.86654e-10
-2.07601e-09
3.16872e-08
-9.46272e-11
-2.14461e-09
3.24462e-08
3.14864e-12
-2.21113e-09
3.32101e-08
1.01073e-10
-2.28317e-09
3.3897e-08
1.92357e-10
-2.35968e-09
3.44535e-08
2.6526e-10
-2.43087e-09
3.4846e-08
3.08718e-10
-2.47491e-09
3.50518e-08
3.07681e-10
-2.4716e-09
3.50739e-08
2.65527e-10
-2.40625e-09
3.49404e-08
1.92919e-10
-2.27773e-09
3.46864e-08
1.09462e-10
-2.09398e-09
3.43659e-08
2.87195e-11
-1.86665e-09
3.40545e-08
-3.90642e-11
-1.611e-09
3.38815e-08
-9.00024e-11
-1.33993e-09
3.40531e-08
-1.23432e-10
-1.06248e-09
3.48544e-08
-1.42062e-10
-7.89696e-10
3.65196e-08
-1.49156e-10
-5.30517e-10
3.88379e-08
-1.46252e-10
-3.00947e-10
4.05115e-08
-1.33089e-10
-1.20549e-10
3.87233e-08
-1.06478e-10
-1.57054e-11
2.99417e-08
-6.21021e-11
1.24513e-08
-5.99975e-12
-9.26362e-11
1.15394e-08
-9.19631e-11
-2.43416e-10
2.77128e-08
-1.88264e-10
-4.04733e-10
3.56136e-08
-2.27957e-10
-5.54719e-10
3.69256e-08
-2.26979e-10
-6.86947e-10
3.51014e-08
-1.97435e-10
-7.98267e-10
3.28569e-08
-1.46987e-10
-8.92337e-10
3.14032e-08
-7.75416e-11
-9.76406e-10
3.08875e-08
9.98367e-12
-1.06191e-09
3.10387e-08
1.15788e-10
-1.16295e-09
3.15499e-08
2.38329e-10
-1.29484e-09
3.22036e-08
3.74513e-10
-1.46919e-09
3.2868e-08
5.16449e-10
-1.69166e-09
3.34664e-08
6.53052e-10
-1.95249e-09
3.39518e-08
7.62506e-10
-2.22951e-09
3.42949e-08
8.28097e-10
-2.47602e-09
3.44798e-08
8.18497e-10
-2.64788e-09
3.45065e-08
7.39306e-10
-2.72155e-09
3.43952e-08
6.18808e-10
-2.6902e-09
3.4174e-08
4.81116e-10
-2.56244e-09
3.38895e-08
3.48628e-10
-2.35413e-09
3.36118e-08
2.34442e-10
-2.08422e-09
3.34669e-08
1.44704e-10
-1.77073e-09
3.36594e-08
8.01663e-11
-1.43021e-09
3.44752e-08
3.86781e-11
-1.07885e-09
3.61535e-08
1.47653e-11
-7.34819e-10
3.84917e-08
2.18841e-12
-4.21658e-10
4.02047e-08
-6.29152e-12
-1.72876e-10
3.84872e-08
-1.2656e-11
-2.50019e-11
2.98053e-08
-1.15595e-11
1.24237e-08
2.63894e-12
-5.58281e-11
1.165e-08
-5.47625e-11
-1.09921e-10
2.78423e-08
-7.53805e-11
-1.39739e-10
3.56954e-08
-5.19893e-11
-1.47372e-10
3.69453e-08
-1.20817e-11
-1.42865e-10
3.50603e-08
3.65613e-11
-1.37843e-10
3.27563e-08
9.55846e-11
-1.43035e-10
3.12375e-08
1.70903e-10
-1.71333e-10
3.06461e-08
2.69713e-10
-2.37057e-10
3.07093e-08
3.95189e-10
-3.55855e-10
3.11219e-08
5.46804e-10
-5.45159e-10
3.1672e-08
7.20886e-10
-8.15275e-10
3.22337e-08
9.04381e-10
-1.17082e-09
3.27391e-08
1.08285e-09
-1.59307e-09
3.31487e-08
1.22535e-09
-2.0489e-09
3.34415e-08
1.30924e-09
-2.47277e-09
3.36079e-08
1.2958e-09
-2.80201e-09
3.36462e-08
1.1895e-09
-3.004e-09
3.35686e-08
1.02863e-09
-3.06572e-09
3.33933e-08
8.42391e-10
-2.99585e-09
3.31572e-08
6.62497e-10
-2.81221e-09
3.29235e-08
5.04605e-10
-2.53684e-09
3.28127e-08
3.78894e-10
-2.19096e-09
3.30266e-08
2.86953e-10
-1.79586e-09
3.38544e-08
2.25759e-10
-1.37206e-09
3.55419e-08
1.87805e-10
-9.45982e-10
3.79054e-08
1.60165e-10
-5.50751e-10
3.9679e-08
1.30429e-10
-2.30249e-10
3.8076e-08
9.07116e-11
-3.66866e-11
2.95664e-08
4.54198e-11
1.23725e-08
1.44745e-11
-2.18507e-11
1.16925e-08
-2.05702e-11
1.49508e-11
2.7774e-08
3.14416e-11
1.09101e-10
3.54849e-08
1.16412e-10
2.33056e-10
3.66255e-08
1.95878e-10
3.59e-10
3.46715e-08
2.62892e-10
4.6377e-10
3.23234e-08
3.28122e-10
5.30017e-10
3.07646e-08
4.06693e-10
5.41825e-10
3.01236e-08
5.10687e-10
4.84107e-10
3.01198e-08
6.47178e-10
3.39693e-10
3.04507e-08
8.15618e-10
9.33422e-11
3.09079e-08
1.01043e-09
-2.64257e-10
3.13744e-08
1.2169e-09
-7.32814e-10
3.17902e-08
1.41747e-09
-1.28739e-09
3.21269e-08
1.57633e-09
-1.88654e-09
3.23716e-08
1.66907e-09
-2.45366e-09
3.25208e-08
1.65422e-09
-2.915e-09
3.25728e-08
1.53472e-09
-3.23053e-09
3.25302e-08
1.35394e-09
-3.38232e-09
3.24024e-08
1.14272e-09
-3.37667e-09
3.22155e-08
9.36002e-10
-3.23001e-09
3.2025e-08
7.51895e-10
-2.96435e-09
3.19433e-08
6.03721e-10
-2.60254e-09
3.21705e-08
4.94323e-10
-2.16745e-09
3.29982e-08
4.21084e-10
-1.68296e-09
3.46842e-08
3.73262e-10
-1.17915e-09
3.70672e-08
3.34401e-10
-6.99544e-10
3.89148e-08
2.84563e-10
-3.01764e-10
3.74689e-08
2.09288e-10
-5.28994e-11
2.92034e-08
1.14135e-10
1.22882e-08
3.14587e-11
1.69314e-11
1.16569e-08
1.86594e-11
1.52088e-10
2.74881e-08
1.50813e-10
3.7249e-10
3.49623e-08
3.02142e-10
6.23447e-10
3.59521e-08
4.22459e-10
8.57138e-10
3.39311e-08
5.06673e-10
1.04196e-09
3.15634e-08
5.75156e-10
1.15638e-09
2.99978e-08
6.52289e-10
1.18631e-09
2.93381e-08
7.55642e-10
1.11757e-09
2.92949e-08
8.93711e-10
9.36494e-10
2.95652e-08
1.06658e-09
6.30208e-10
2.9946e-08
1.26821e-09
1.92811e-10
3.03296e-08
1.4822e-09
-3.711e-10
3.0666e-08
1.68811e-09
-1.03143e-09
3.09376e-08
1.8497e-09
-1.74029e-09
3.11388e-08
1.94163e-09
-2.41793e-09
3.12716e-08
1.92683e-09
-2.98709e-09
3.13338e-08
1.80821e-09
-3.40359e-09
3.13216e-08
1.62507e-09
-3.64307e-09
3.12352e-08
1.4067e-09
-3.70836e-09
3.10908e-08
1.18997e-09
-3.61308e-09
3.09342e-08
9.95493e-10
-3.37699e-09
3.08692e-08
8.37959e-10
-3.02112e-09
3.10934e-08
7.21257e-10
-2.56566e-09
3.19002e-08
6.42539e-10
-2.03383e-09
3.35619e-08
5.90403e-10
-1.45883e-09
3.59483e-08
5.43905e-10
-8.89355e-10
3.78701e-08
4.75261e-10
-3.98958e-10
3.66168e-08
3.61735e-10
-7.94694e-11
2.86757e-08
2.08168e-10
1.21494e-08
5.92699e-11
6.99417e-11
1.15146e-08
7.22832e-11
3.26082e-10
2.69288e-08
3.03134e-10
6.90135e-10
3.40657e-08
5.32579e-10
1.06911e-09
3.48722e-08
7.00929e-10
1.39691e-09
3.27981e-08
8.05285e-10
1.63653e-09
3.04491e-08
8.74701e-10
1.76977e-09
2.89205e-08
9.44085e-10
1.78812e-09
2.82822e-08
1.03754e-09
1.68377e-09
2.82332e-08
1.16601e-09
1.44908e-09
2.84694e-08
1.33053e-09
1.0758e-09
2.8796e-08
1.52333e-09
5.63057e-10
2.91154e-08
1.72695e-09
-8.03609e-11
2.9388e-08
1.92138e-09
-8.21221e-10
2.96058e-08
2.0726e-09
-1.60958e-09
2.977e-08
2.15715e-09
-2.36855e-09
2.98866e-08
2.14399e-09
-3.02306e-09
2.99534e-08
2.03486e-09
-3.52613e-09
2.99608e-08
1.86385e-09
-3.85163e-09
2.99032e-08
1.65749e-09
-3.99741e-09
2.97868e-08
1.44978e-09
-3.97206e-09
2.96477e-08
1.2612e-09
-3.79076e-09
2.95801e-08
1.10783e-09
-3.46868e-09
2.97755e-08
9.95795e-10
-3.0195e-09
3.05292e-08
9.21789e-10
-2.46069e-09
3.21306e-08
8.72478e-10
-1.82035e-09
3.44868e-08
8.21189e-10
-1.15201e-09
3.64712e-08
7.30618e-10
-5.45186e-10
3.54395e-08
5.70449e-10
-1.24136e-10
2.79107e-08
3.43966e-10
1.19199e-08
1.05415e-10
1.51963e-10
1.12078e-08
1.54931e-10
5.72992e-10
2.59853e-08
5.22453e-10
1.11162e-09
3.26712e-08
8.55837e-10
1.6262e-09
3.32722e-08
1.08545e-09
2.03132e-09
3.11792e-08
1.21374e-09
2.29261e-09
2.89043e-08
1.28358e-09
2.40578e-09
2.74659e-08
1.34144e-09
2.37534e-09
2.68941e-08
1.4185e-09
2.20577e-09
2.6873e-08
1.52973e-09
1.89735e-09
2.71024e-08
1.6754e-09
1.44845e-09
2.73976e-08
1.84729e-09
8.6271e-10
2.76718e-08
2.02941e-09
1.52065e-10
2.78971e-08
2.20152e-09
-6.49865e-10
2.80734e-08
2.33437e-09
-1.49414e-09
2.82074e-08
2.40689e-09
-2.31087e-09
2.83074e-08
2.39586e-09
-3.03181e-09
2.83713e-08
2.30313e-09
-3.6112e-09
2.83869e-08
2.15333e-09
-4.02202e-09
2.83442e-08
1.96973e-09
-4.25769e-09
2.82396e-08
1.78296e-09
-4.32252e-09
2.80993e-08
1.6132e-09
-4.22539e-09
2.80076e-08
1.47534e-09
-3.97178e-09
2.81455e-08
1.37634e-09
-3.56507e-09
2.88082e-08
1.3143e-09
-3.00736e-09
3.03006e-08
1.2723e-09
-2.31365e-09
3.25758e-08
1.21725e-09
-1.53298e-09
3.45898e-08
1.10065e-09
-7.71359e-10
3.37981e-08
8.79761e-10
-2.00536e-10
2.6787e-08
5.52935e-10
1.1536e-08
1.83311e-10
2.8076e-10
1.06426e-08
2.84389e-10
9.33859e-10
2.44826e-08
8.49648e-10
1.6942e-09
3.05854e-08
1.32554e-09
2.35243e-09
3.09739e-08
1.64008e-09
2.80955e-09
2.89179e-08
1.80416e-09
3.04806e-09
2.67883e-08
1.87745e-09
3.09037e-09
2.55014e-08
1.92221e-09
2.96614e-09
2.50385e-08
1.97983e-09
2.69682e-09
2.50744e-08
2.06799e-09
2.29304e-09
2.53179e-08
2.18826e-09
1.75956e-09
2.55977e-08
2.33334e-09
1.10166e-09
2.58423e-08
2.48736e-09
3.3418e-10
2.60329e-08
2.63174e-09
-5.12131e-10
2.6177e-08
2.74269e-09
-1.39336e-09
2.62858e-08
2.80285e-09
-2.24913e-09
2.63692e-08
2.79399e-09
-3.02018e-09
2.64252e-08
2.7171e-09
-3.66607e-09
2.64406e-08
2.59221e-09
-4.16011e-09
2.64e-08
2.43825e-09
-4.4953e-09
2.62951e-08
2.27964e-09
-4.67165e-09
2.61405e-08
2.13517e-09
-4.69145e-09
2.60072e-08
2.0202e-09
-4.55024e-09
2.60634e-08
1.94094e-09
-4.23301e-09
2.65964e-08
1.89459e-09
-3.71801e-09
2.79235e-08
1.86217e-09
-2.99192e-09
3.00489e-08
1.80086e-09
-2.08527e-09
3.20355e-08
1.64767e-09
-1.11795e-09
3.14889e-08
1.34192e-09
-3.25662e-10
2.5121e-08
8.7365e-10
1.09007e-08
3.09662e-10
4.72361e-10
9.69375e-09
4.76502e-10
1.44401e-09
2.21883e-08
1.3226e-09
2.47972e-09
2.7553e-08
1.99662e-09
3.28356e-09
2.77404e-08
2.42959e-09
3.75131e-09
2.58033e-08
2.64686e-09
3.90501e-09
2.39033e-08
2.73133e-09
3.81474e-09
2.28269e-08
2.76476e-09
3.5467e-09
2.25055e-08
2.80107e-09
3.14345e-09
2.26137e-08
2.86391e-09
2.626e-09
2.28783e-08
2.95704e-09
2.00244e-09
2.31484e-08
3.07289e-09
1.27918e-09
2.33681e-08
3.19741e-09
4.67778e-10
2.35299e-08
3.31441e-09
-4.06064e-10
2.3647e-08
3.4039e-09
-1.30528e-09
2.37339e-08
3.4511e-09
-2.18094e-09
2.38008e-08
3.44411e-09
-2.98516e-09
2.38458e-08
3.38361e-09
-3.68348e-09
2.3856e-08
3.28287e-09
-4.25519e-09
2.3814e-08
3.15779e-09
-4.69358e-09
2.37045e-08
3.02902e-09
-4.99845e-09
2.35325e-08
2.91282e-09
-5.16756e-09
2.33534e-08
2.82298e-09
-5.18685e-09
2.33162e-08
2.76646e-09
-5.01859e-09
2.36896e-08
2.7385e-09
-4.6048e-09
2.47951e-08
2.71459e-09
-3.88382e-09
2.66882e-08
2.63973e-09
-2.84704e-09
2.85673e-08
2.4315e-09
-1.61741e-09
2.82521e-08
2.00719e-09
-5.1468e-10
2.26761e-08
1.34219e-09
9.88658e-09
4.99454e-10
7.26573e-10
8.23562e-09
7.3156e-10
2.09739e-09
1.88776e-08
1.93989e-09
3.44481e-09
2.33376e-08
2.86797e-09
4.37421e-09
2.33549e-08
3.45615e-09
4.79201e-09
2.16378e-08
3.74778e-09
4.78721e-09
2.00538e-08
3.85432e-09
4.49995e-09
1.92327e-08
3.8815e-09
4.0427e-09
1.90646e-08
3.89815e-09
3.48236e-09
1.92383e-08
3.9358e-09
2.8466e-09
1.95127e-08
4.00145e-09
2.14238e-09
1.97638e-08
4.08886e-09
1.37133e-09
1.99539e-08
4.18527e-09
5.39578e-10
2.00858e-08
4.27581e-09
-3.35257e-10
2.01766e-08
4.34521e-09
-1.22543e-09
2.02423e-08
4.38177e-09
-2.09383e-09
2.0293e-08
4.37617e-09
-2.90428e-09
2.03273e-08
4.32897e-09
-3.63154e-09
2.03331e-08
4.25017e-09
-4.26152e-09
2.02915e-08
4.15248e-09
-4.79277e-09
2.01835e-08
4.0522e-09
-5.22968e-09
2.00054e-08
3.96401e-09
-5.57089e-09
1.97944e-08
3.90015e-09
-5.79336e-09
1.9672e-08
3.86674e-09
-5.83784e-09
1.9878e-08
3.85611e-09
-5.5972e-09
2.07182e-08
3.83622e-09
-4.94064e-09
2.22942e-08
3.73736e-09
-3.79188e-09
2.39648e-08
3.4537e-09
-2.26101e-09
2.38473e-08
2.87384e-09
-7.67141e-10
1.92268e-08
1.95542e-09
8.36738e-09
7.52069e-10
1.00299e-09
6.22422e-09
1.00841e-09
2.78873e-09
1.44862e-08
2.60571e-09
4.43019e-09
1.78893e-08
3.8069e-09
5.42881e-09
1.77881e-08
4.56819e-09
5.72241e-09
1.63951e-08
4.94908e-09
5.49158e-09
1.51965e-08
5.08806e-09
4.96182e-09
1.46475e-08
5.11488e-09
4.29881e-09
1.46127e-08
5.11488e-09
3.58789e-09
1.48208e-08
5.12841e-09
2.85821e-09
1.50755e-08
5.16684e-09
2.10861e-09
1.52873e-08
5.22603e-09
1.3317e-09
1.54356e-08
5.29524e-09
5.23434e-10
1.55316e-08
5.36243e-09
-3.07962e-10
1.55937e-08
5.41428e-09
-1.14467e-09
1.56379e-08
5.44111e-09
-1.96133e-09
1.56733e-08
5.43639e-09
-2.73331e-09
1.56988e-08
5.40052e-09
-3.44475e-09
1.57036e-08
5.34095e-09
-4.09117e-09
1.56702e-08
5.26769e-09
-4.68023e-09
1.55785e-08
5.19404e-09
-5.22471e-09
1.54171e-08
5.13282e-09
-5.73012e-09
1.5205e-08
5.09484e-09
-6.17382e-09
1.50318e-08
5.08383e-09
-6.47518e-09
1.50914e-08
5.08803e-09
-6.47567e-09
1.56521e-08
5.06663e-09
-5.95834e-09
1.6843e-08
4.93387e-09
-4.75407e-09
1.82005e-08
4.56008e-09
-2.94179e-09
1.82282e-08
3.8069e-09
-1.04093e-09
1.471e-08
2.61598e-09
6.30094e-09
1.02551e-09
1.19516e-09
3.82809e-09
1.20098e-09
3.26972e-09
9.34021e-09
3.0714e-09
5.08375e-09
1.16036e-08
4.47161e-09
6.05452e-09
1.14486e-08
5.36866e-09
6.16135e-09
1.04597e-08
5.82861e-09
5.68117e-09
9.67468e-09
6.00205e-09
4.92266e-09
9.37341e-09
6.03264e-09
4.09483e-09
9.4227e-09
6.01787e-09
3.29325e-09
9.6148e-09
6.00755e-09
2.53801e-09
9.81264e-09
6.01811e-09
1.81536e-09
9.96163e-09
6.04838e-09
1.10387e-09
1.00566e-08
6.09052e-09
3.89363e-10
1.01118e-08
6.13437e-09
-3.30468e-10
1.01446e-08
6.16892e-09
-1.04718e-09
1.01682e-08