/*--------------------------------*- C++ -*----------------------------------*\
| =========                 |                                                 |
| \\      /  F ield         | OpenFOAM: The Open Source CFD Toolbox           |
|  \\    /   O peration     | Version:  v1912                                 |
|   \\  /    A nd           | Website:  www.openfoam.com                      |
|    \\/     M anipulation  |                                                 |
\*---------------------------------------------------------------------------*/
FoamFile
{
    version     2.0;
    format      ascii;
    class       volScalarField;
    location    "3.5/sphere";
    object      T;
}
// * * * * * * * * * * * * * * * * * * * * * * * * * * * * * * * * * * * * * //

dimensions      [0 0 0 1 0 0 0];


internalField   nonuniform List<scalar> 
1992
(
494.238
494.291
494.287
494.389
494.257
494.255
494.289
494.597
494.662
494.476
494.285
494.66
494.723
494.545
494.448
494.542
494.397
494.286
494.385
494.256
494.286
494.659
494.723
494.545
494.377
494.721
494.783
494.607
494.286
494.25
494.539
494.603
494.492
494.28
494.254
494.471
494.542
494.382
494.252
494.54
494.604
494.492
494.376
494.49
494.323
494.282
494.282
494.282
494.278
494.282
494.242
494.389
494.293
494.543
494.475
494.605
494.544
494.474
494.604
494.544
494.291
494.241
494.389
494.293
494.544
494.543
494.474
494.389
494.292
494.292
494.241
494.278
494.278
494.276
494.274
494.263
494.273
494.276
494.263
494.273
494.276
494.263
494.278
494.31
494.254
494.254
494.377
494.49
494.255
494.255
494.49
494.382
494.323
494.253
494.377
494.252
494.489
494.289
494.287
494.383
494.471
494.541
494.54
494.602
494.279
494.329
494.316
494.425
494.394
494.368
494.438
494.257
494.382
494.492
494.257
494.253
494.252
494.489
494.377
494.383
494.239
494.289
494.54
494.602
494.471
494.541
494.293
494.292
494.241
494.605
494.544
494.543
494.475
494.492
494.257
494.382
494.309
494.254
494.376
494.49
494.254
494.491
494.382
494.255
494.322
494.278
494.28
494.376
494.252
494.251
494.488
494.288
494.449
494.54
494.286
494.381
494.539
494.6
494.242
494.542
494.475
494.384
494.292
494.603
494.543
494.397
494.256
494.492
494.256
494.274
494.449
494.285
494.539
494.285
494.539
494.377
494.599
494.242
494.545
494.294
494.545
494.293
494.607
494.395
494.286
494.274
494.539
494.449
494.377
494.599
494.285
494.539
494.293
494.476
494.242
494.607
494.395
494.545
494.293
494.286
494.377
494.25
494.488
494.252
494.54
494.288
494.539
494.6
494.286
494.381
494.475
494.289
494.241
494.603
494.543
494.385
494.293
494.492
494.257
494.256
494.278
494.28
494.278
494.28
494.252
494.25
494.488
494.375
494.381
494.539
494.6
494.288
494.448
494.54
494.292
494.603
494.543
494.289
494.24
494.542
494.475
494.492
494.257
494.397
494.275
494.538
494.377
494.599
494.448
494.285
494.539
494.294
494.607
494.395
494.475
494.242
494.545
494.293
494.286
494.274
494.598
494.285
494.538
494.285
494.539
494.448
494.395
494.545
494.294
494.545
494.294
494.476
494.241
494.488
494.252
494.375
494.6
494.286
494.38
494.448
494.54
494.288
494.543
494.384
494.292
494.542
494.475
494.289
494.241
494.257
494.256
494.398
494.277
494.308
494.253
494.376
494.49
494.253
494.49
494.382
494.255
494.322
494.377
494.251
494.489
494.253
494.541
494.54
494.602
494.238
494.289
494.287
494.383
494.492
494.256
494.257
494.488
494.376
494.253
494.601
494.471
494.541
494.288
494.382
494.239
494.289
494.257
494.382
494.256
494.308
494.49
494.253
494.254
494.381
494.255
494.255
494.25
494.239
494.238
494.249
494.24
494.254
494.241
494.253
494.24
494.253
494.24
494.251
494.24
494.238
494.239
494.264
494.263
494.243
494.276
494.273
494.263
494.253
494.24
494.25
494.239
494.261
494.261
494.293
494.395
494.297
494.339
494.339
494.279
494.333
494.316
494.426
494.396
494.368
494.441
494.278
494.329
494.315
494.424
494.393
494.367
494.437
494.261
494.261
494.293
494.394
494.296
494.338
494.338
494.279
494.332
494.316
494.425
494.395
494.368
494.44
494.331
494.279
494.316
494.425
494.395
494.44
494.369
494.33
494.279
494.315
494.424
494.394
494.438
494.368
494.261
494.261
494.292
494.394
494.297
494.339
494.339
494.241
494.238
494.265
494.262
494.242
494.265
494.262
494.242
494.241
494.257
494.257
494.286
494.388
494.293
494.335
494.335
494.252
494.283
494.244
494.317
494.416
494.274
494.39
494.303
494.432
494.363
494.244
494.329
494.261
494.267
494.312
494.242
494.251
494.281
494.244
494.26
494.327
494.311
494.266
494.367
494.245
494.282
494.245
494.322
494.276
494.322
494.419
494.276
494.391
494.319
494.366
494.307
494.433
494.244
494.251
494.283
494.367
494.281
494.244
494.244
494.32
494.322
494.276
494.411
494.388
494.27
494.315
494.359
494.428
494.299
494.254
494.241
494.24
494.244
494.277
494.297
494.318
494.317
494.443
494.264
494.365
494.364
494.241
494.411
494.316
494.388
494.271
494.429
494.3
494.359
494.45
494.372
494.482
494.355
494.468
494.34
494.464
494.261
494.328
494.243
494.267
494.312
494.411
494.388
494.315
494.271
494.429
494.359
494.299
494.255
494.243
494.44
494.475
494.349
494.349
494.458
494.458
494.324
494.278
494.278
494.265
494.257
494.323
494.238
494.263
494.306
494.238
494.273
494.265
494.254
494.241
494.245
494.277
494.26
494.244
494.325
494.31
494.265
494.241
494.245
494.277
494.441
494.309
494.363
494.295
494.311
494.363
494.253
494.257
494.323
494.241
494.308
494.263
494.292
494.439
494.303
494.305
494.358
494.361
494.249
494.257
494.269
494.269
494.241
494.238
494.262
494.264
494.242
494.24
494.253
494.252
494.252
494.243
494.25
494.281
494.242
494.325
494.259
494.265
494.31
494.241
494.247
494.277
494.259
494.24
494.325
494.265
494.307
494.292
494.306
494.304
494.439
494.25
494.361
494.358
494.242
494.326
494.311
494.26
494.265
494.253
494.283
494.244
494.261
494.244
494.326
494.265
494.311
494.244
494.252
494.283
494.309
494.441
494.363
494.295
494.311
494.253
494.363
494.256
494.268
494.269
494.241
494.242
494.25
494.281
494.241
494.259
494.325
494.309
494.264
494.241
494.245
494.277
494.292
494.305
494.303
494.439
494.249
494.36
494.358
494.258
494.239
494.324
494.264
494.307
494.319
494.275
494.392
494.304
494.434
494.417
494.364
494.274
494.317
494.303
494.417
494.39
494.364
494.432
494.243
494.329
494.312
494.261
494.267
494.309
494.441
494.362
494.295
494.31
494.253
494.364
494.245
494.253
494.284
494.261
494.245
494.328
494.267
494.312
494.258
494.241
494.325
494.264
494.309
494.242
494.25
494.281
494.258
494.324
494.24
494.264
494.307
494.241
494.244
494.276
494.291
494.306
494.439
494.304
494.36
494.249
494.358
494.352
494.355
494.481
494.445
494.328
494.462
494.464
494.388
494.258
494.257
494.293
494.287
494.334
494.335
494.32
494.417
494.276
494.392
494.304
494.434
494.364
494.332
494.28
494.397
494.316
494.441
494.425
494.37
494.33
494.279
494.315
494.424
494.394
494.438
494.368
494.261
494.261
494.292
494.395
494.297
494.339
494.339
494.245
494.253
494.284
494.261
494.328
494.245
494.267
494.312
494.296
494.31
494.441
494.312
494.364
494.253
494.364
494.245
494.253
494.284
494.254
494.253
494.252
494.259
494.241
494.326
494.309
494.265
494.291
494.306
494.438
494.303
494.359
494.248
494.357
494.242
494.246
494.277
494.259
494.325
494.242
494.265
494.308
494.245
494.253
494.284
494.295
494.309
494.441
494.311
494.363
494.252
494.362
494.261
494.326
494.243
494.266
494.311
494.244
494.252
494.283
494.257
494.269
494.27
494.241
494.239
494.237
494.263
494.262
494.24
494.241
494.266
494.274
494.255
494.252
494.239
494.24
494.245
494.277
494.24
494.245
494.277
494.291
494.303
494.303
494.438
494.249
494.357
494.357
494.258
494.241
494.323
494.307
494.263
494.257
494.24
494.323
494.307
494.263
494.412
494.272
494.389
494.317
494.36
494.301
494.431
494.411
494.272
494.316
494.388
494.3
494.361
494.429
494.442
494.352
494.35
494.479
494.326
494.461
494.46
494.392
494.26
494.296
494.261
494.337
494.29
494.338
494.45
494.355
494.372
494.482
494.339
494.464
494.468
494.422
494.278
494.329
494.395
494.312
494.368
494.438
494.297
494.317
494.318
494.444
494.264
494.364
494.365
494.245
494.252
494.284
494.261
494.244
494.327
494.311
494.266
494.261
494.244
494.328
494.312
494.266
494.235
494.237
494.26
494.261
494.24
494.41
494.271
494.388
494.315
494.359
494.299
494.428
494.411
494.27
494.388
494.315
494.36
494.299
494.429
494.441
494.348
494.349
494.475
494.324
494.458
494.458
494.396
494.298
494.262
494.262
494.34
494.34
494.293
494.426
494.28
494.396
494.334
494.37
494.317
494.442
494.426
494.28
494.396
494.333
494.369
494.316
494.442
494.458
494.379
494.379
494.491
494.352
494.475
494.475
494.254
494.241
494.255
494.241
494.278
494.278
494.265
494.236
494.261
494.26
494.241
494.234
494.368
494.245
494.28
494.245
494.321
494.275
494.322
494.441
494.35
494.475
494.349
494.458
494.325
494.458
494.411
494.27
494.315
494.388
494.299
494.36
494.429
494.426
494.396
494.279
494.332
494.369
494.442
494.317
494.396
494.262
494.298
494.262
494.339
494.294
494.339
494.458
494.379
494.491
494.379
494.475
494.352
494.475
494.426
494.28
494.333
494.396
494.316
494.369
494.442
494.278
494.278
494.266
494.254
494.241
494.291
494.303
494.304
494.438
494.249
494.357
494.358
494.241
494.246
494.277
494.258
494.24
494.324
494.308
494.264
494.258
494.24
494.324
494.307
494.264
494.368
494.281
494.245
494.245
494.322
494.322
494.276
494.412
494.39
494.273
494.318
494.361
494.431
494.301
494.411
494.272
494.388
494.316
494.36
494.3
494.429
494.442
494.353
494.479
494.351
494.461
494.327
494.46
494.419
494.391
494.276
494.32
494.365
494.433
494.307
494.391
494.296
494.259
494.26
494.336
494.338
494.289
494.45
494.356
494.482
494.372
494.464
494.339
494.468
494.422
494.278
494.395
494.331
494.367
494.312
494.439
494.245
494.253
494.284
494.244
494.252
494.283
494.261
494.245
494.328
494.311
494.266
494.261
494.243
494.328
494.311
494.266
494.24
494.238
494.265
494.263
494.243
494.266
494.274
494.255
494.252
494.239
494.238
494.262
494.264
494.243
494.239
494.273
494.266
494.255
494.251
494.239
494.239
494.257
494.323
494.239
494.263
494.307
494.257
494.323
494.237
494.263
494.306
494.241
494.246
494.277
494.24
494.246
494.277
494.29
494.437
494.302
494.303
494.357
494.357
494.248
494.442
494.351
494.479
494.353
494.46
494.327
494.461
494.367
494.244
494.245
494.281
494.276
494.321
494.322
494.412
494.318
494.273
494.39
494.301
494.431
494.361
494.422
494.329
494.395
494.277
494.438
494.311
494.366
494.419
494.319
494.276
494.391
494.306
494.433
494.366
494.392
494.259
494.259
494.296
494.289
494.338
494.337
494.261
494.328
494.245
494.266
494.312
494.245
494.251
494.283
494.297
494.443
494.317
494.317
494.364
494.364
494.264
494.244
494.252
494.283
494.237
494.261
494.261
494.24
494.236
494.441
494.349
494.475
494.349
494.458
494.325
494.458
494.367
494.243
494.281
494.245
494.321
494.275
494.322
494.411
494.314
494.272
494.388
494.3
494.428
494.361
494.426
494.396
494.334
494.28
494.442
494.369
494.317
494.458
494.379
494.491
494.379
494.475
494.353
494.475
494.395
494.262
494.297
494.261
494.34
494.294
494.339
494.426
494.333
494.279
494.396
494.317
494.442
494.369
494.279
494.278
494.266
494.254
494.242
494.26
494.26
494.24
494.235
494.236
494.41
494.314
494.388
494.271
494.428
494.299
494.359
494.411
494.315
494.388
494.271
494.428
494.299
494.361
494.366
494.244
494.246
494.281
494.275
494.321
494.322
494.458
494.491
494.379
494.379
494.475
494.475
494.352
494.426
494.334
494.396
494.28
494.442
494.317
494.369
494.426
494.334
494.396
494.28
494.442
494.317
494.369
494.396
494.262
494.262
494.298
494.294
494.34
494.339
494.255
494.242
494.254
494.242
494.257
494.324
494.241
494.264
494.308
494.24
494.245
494.276
494.29
494.437
494.303
494.303
494.357
494.357
494.248
494.24
494.246
494.277
494.412
494.388
494.315
494.272
494.43
494.361
494.3
494.442
494.478
494.351
494.352
494.46
494.461
494.326
494.368
494.246
494.281
494.245
494.323
494.277
494.321
494.412
494.317
494.39
494.272
494.431
494.3
494.36
494.45
494.481
494.371
494.354
494.468
494.463
494.338
494.422
494.395
494.33
494.278
494.438
494.368
494.312
494.419
494.319
494.391
494.276
494.433
494.306
494.365
494.392
494.26
494.296
494.26
494.338
494.29
494.337
494.261
494.328
494.244
494.266
494.311
494.261
494.327
494.244
494.266
494.311
494.297
494.444
494.318
494.317
494.365
494.364
494.264
494.245
494.253
494.284
494.244
494.251
494.283
494.262
494.264
494.242
494.239
494.251
494.239
494.24
494.25
494.252
494.254
494.259
494.241
494.325
494.308
494.265
494.291
494.303
494.438
494.305
494.357
494.249
494.36
494.243
494.25
494.281
494.326
494.24
494.259
494.265
494.309
494.245
494.252
494.283
494.44
494.309
494.362
494.295
494.311
494.363
494.252
494.244
494.326
494.311
494.26
494.265
494.252
494.282
494.244
494.256
494.268
494.269
494.241
494.292
494.304
494.438
494.306
494.358
494.25
494.359
494.258
494.24
494.323
494.307
494.263
494.242
494.249
494.28
494.242
494.258
494.325
494.309
494.264
494.257
494.257
494.286
494.387
494.293
494.334
494.334
494.32
494.392
494.275
494.434
494.304
494.416
494.363
494.274
494.317
494.303
494.416
494.39
494.363
494.431
494.243
494.252
494.284
494.26
494.244
494.328
494.312
494.267
494.252
494.283
494.244
494.244
494.328
494.311
494.261
494.267
494.24
494.246
494.277
494.291
494.438
494.303
494.305
494.357
494.359
494.249
494.241
494.258
494.324
494.264
494.308
494.241
494.249
494.28
494.317
494.275
494.303
494.415
494.389
494.431
494.363
494.257
494.258
494.286
494.387
494.293
494.334
494.334
494.32
494.391
494.274
494.433
494.303
494.416
494.363
494.261
494.328
494.245
494.312
494.267
494.441
494.308
494.362
494.296
494.311
494.364
494.254
494.245
494.253
494.284
494.244
494.327
494.311
494.261
494.266
494.252
494.283
494.244
494.251
494.25
494.253
494.242
494.246
494.277
494.259
494.325
494.24
494.307
494.265
494.242
494.251
494.281
494.325
494.242
494.259
494.309
494.265
494.44
494.309
494.363
494.295
494.311
494.363
494.253
494.261
494.326
494.244
494.31
494.266
494.245
494.253
494.283
494.244
494.326
494.311
494.26
494.266
494.253
494.283
494.245
494.376
494.372
494.485
494.349
494.472
494.455
494.469
494.661
494.66
494.722
494.659
494.721
494.721
494.782
494.599
494.723
494.663
494.723
494.663
494.783
494.724
494.722
494.597
494.66
494.721
494.782
494.659
494.721
494.663
494.662
494.599
494.783
494.724
494.723
494.663
494.468
494.498
494.365
494.497
494.423
494.54
494.423
494.721
494.721
494.782
494.596
494.66
494.66
494.722
494.663
494.783
494.724
494.662
494.599
494.723
494.663
494.782
494.659
494.721
494.66
494.722
494.597
494.661
494.724
494.723
494.663
494.723
494.663
494.662
494.6
494.327
494.421
494.42
494.477
494.336
494.406
494.405
494.476
494.42
494.405
494.326
494.421
494.405
494.336
494.475
494.419
494.404
494.326
494.419
494.404
494.336
494.372
494.376
494.351
494.456
494.485
494.469
494.472
494.372
494.376
494.35
494.455
494.485
494.469
494.471
494.376
494.373
494.35
494.455
494.485
494.471
494.469
494.419
494.324
494.418
494.473
494.335
494.403
494.401
494.419
494.475
494.404
494.326
494.419
494.335
494.404
494.324
494.418
494.473
494.417
494.402
494.334
494.401
494.355
494.352
494.481
494.329
494.464
494.446
494.462
494.421
494.476
494.405
494.326
494.421
494.337
494.405
494.323
494.418
494.417
494.473
494.333
494.402
494.401
494.421
494.327
494.421
494.476
494.337
494.406
494.406
494.324
494.419
494.473
494.418
494.403
494.335
494.402
494.326
494.419
494.475
494.419
494.405
494.336
494.404
494.323
494.472
494.417
494.416
494.401
494.4
494.333
494.468
494.365
494.498
494.497
494.423
494.423
494.54
494.327
494.477
494.42
494.421
494.406
494.406
494.336
494.467
494.365
494.498
494.497
494.423
494.423
494.54
494.468
494.498
494.365
494.498
494.423
494.54
494.423
494.324
494.472
494.417
494.417
494.401
494.401
494.334
494.326
494.477
494.421
494.42
494.406
494.405
494.336
494.322
494.416
494.416
494.471
494.332
494.4
494.4
494.468
494.497
494.364
494.497
494.422
494.54
494.422
494.327
494.421
494.421
494.476
494.337
494.406
494.405
494.467
494.497
494.364
494.497
494.422
494.54
494.423
494.467
494.497
494.497
494.365
494.54
494.422
494.423
494.322
494.417
494.417
494.472
494.333
494.4
494.401
494.468
494.497
494.498
494.365
494.54
494.423
494.423
494.418
494.324
494.418
494.473
494.401
494.335
494.402
494.474
494.419
494.404
494.326
494.419
494.404
494.335
494.323
494.472
494.417
494.417
494.401
494.402
494.333
494.355
494.481
494.352
494.464
494.329
494.445
494.462
494.476
494.42
494.405
494.327
494.421
494.405
494.337
494.323
494.417
494.472
494.417
494.401
494.333
494.402
494.355
494.481
494.351
494.464
494.327
494.445
494.461
494.419
494.324
494.473
494.418
494.402
494.403
494.335
)
;

boundaryField
{
    sphere_to_oil
    {
        type            compressible::turbulentTemperatureCoupledBaffleMixed;
        refValue        nonuniform List<scalar> 
1536
(
307.209
307.465
307.465
307.877
307.899
307.458
307.659
307.547
307.614
307.86
308.012
307.835
307.605
307.807
308.09
307.662
307.454
307.457
307.664
307.617
307.522
307.605
307.591
307.665
307.636
307.654
307.636
307.693
307.483
307.02
307.506
307.818
307.782
307.091
307.626
307.411
307.782
307.702
307.914
307.097
307.47
307.474
307.659
307.644
307.69
307.678
307.716
307.749
307.696
307.768
307.652
307.706
307.792
307.668
307.656
307.613
307.582
307.564
307.581
307.496
307.541
307.675
307.601
307.525
307.428
307.589
307.909
307.867
308.082
307.485
307.68
307.539
307.616
307.602
307.588
307.483
307.691
307.491
307.076
307.401
307.974
307.854
308.019
307.147
307.508
307.336
307.589
307.625
307.498
307.531
307.538
307.616
307.608
307.612
307.68
307.655
307.51
307.639
307.554
307.631
307.874
307.981
307.333
307.444
307.303
307.725
307.606
307.533
307.548
307.482
307.667
308.129
307.924
307.257
307.341
307.435
307.866
307.81
307.65
307.647
308.117
307.718
307.493
307.277
307.442
307.741
307.661
307.468
307.463
307.515
307.551
307.888
307.897
307.882
307.405
307.478
307.252
307.918
307.638
307.54
307.545
307.592
307.679
307.681
307.685
307.659
307.573
307.571
307.417
307.533
307.995
307.724
307.975
307.211
307.519
307.442
307.558
307.514
307.672
307.93
307.802
307.44
307.19
307.569
307.808
307.658
307.638
308.104
307.863
307.858
307.848
307.162
307.454
307.593
307.613
307.572
307.826
307.916
307.878
307.951
307.344
307.233
307.436
307.557
307.598
307.526
307.58
307.689
307.476
307.532
307.416
307.574
307.591
307.734
307.535
307.512
307.533
307.63
307.243
307.513
307.364
308.002
307.903
307.549
307.482
307.66
307.642
307.464
307.585
308.071
307.154
307.417
307.484
307.974
307.524
307.742
307.645
307.447
307.602
307.526
307.498
307.624
307.6
307.645
307.549
307.623
307.657
307.582
307.32
307.412
307.323
307.681
307.67
307.202
307.387
307.539
307.459
307.501
307.41
307.647
307.598
307.249
307.4
307.508
307.445
307.595
307.568
307.34
307.488
307.457
307.69
307.357
307.31
307.575
307.75
307.486
307.293
307.389
307.525
307.175
307.183
307.387
307.24
307.481
307.216
307.834
307.777
307.747
308.24
307.335
307.687
307.694
307.726
307.734
307.49
307.151
307.7
307.371
307.826
307.431
307.35
307.633
307.266
307.683
307.698
307.621
307.698
308.156
308.032
307.936
307.629
307.741
307.687
307.501
308.172
308.121
307.975
307.969
307.663
307.544
307.684
307.531
308.135
307.574
307.251
307.786
307.269
307.95
307.255
307.746
307.785
307.198
307.833
307.381
307.783
307.761
307.234
307.423
307.553
307.668
307.239
307.384
307.568
307.717
307.554
307.796
307.716
307.716
307.402
307.793
308.073
307.458
307.502
307.384
307.789
308.179
307.371
307.34
307.685
307.692
307.588
307.773
307.634
307.381
307.386
307.531
307.648
307.533
307.67
308.06
307.357
307.384
307.585
307.763
307.657
307.637
307.666
307.448
307.661
307.498
308.072
307.489
307.27
307.839
307.783
307.78
308.153
307.45
307.477
307.59
307.644
307.597
307.567
308.079
307.952
307.584
307.334
307.481
307.604
307.662
307.427
307.816
307.677
308.124
307.42
307.632
307.37
307.256
307.489
307.402
307.351
307.49
307.538
307.533
307.433
308.134
307.86
307.825
307.243
307.789
307.356
307.724
308.112
307.988
307.474
307.658
307.268
307.113
307.807
307.549
307.896
308.152
307.602
307.547
307.406
307.493
307.374
307.679
307.672
307.765
307.966
307.676
307.363
307.215
307.643
307.783
307.661
307.388
307.356
307.362
307.66
307.843
307.593
307.579
307.239
307.371
307.55
307.579
307.495
307.38
308.114
307.788
307.67
307.374
307.493
307.432
307.628
307.603
307.472
307.263
307.538
307.503
307.543
307.344
308.298
307.675
307.705
307.675
307.742
307.693
307.356
307.263
307.867
307.642
307.637
307.646
307.657
307.744
307.541
307.583
307.775
307.954
307.722
307.842
307.737
307.279
307.217
307.342
307.327
307.379
307.111
307.79
307.784
307.607
307.402
307.604
307.622
307.196
307.161
307.641
307.707
307.586
307.765
307.718
307.459
307.79
307.682
307.502
307.483
307.412
307.512
307.598
307.547
307.686
308.001
307.381
307.547
307.465
307.633
307.726
307.644
307.607
307.361
307.381
307.48
307.588
307.548
307.469
308.127
307.73
307.784
307.314
307.254
307.296
307.655
307.706
307.685
307.779
307.64
307.306
307.288
307.506
307.555
307.862
307.632
307.744
307.593
307.718
307.618
307.977
307.467
307.529
307.504
307.643
307.781
307.369
307.402
307.344
307.558
307.697
307.379
307.334
307.569
307.595
307.571
307.611
308.151
307.572
307.644
307.8
307.929
307.505
307.435
307.868
307.8
307.846
307.802
307.23
307.203
307.197
307.361
307.307
307.563
307.667
307.571
307.57
308.139
307.247
307.754
307.367
307.646
307.838
307.622
307.819
307.211
307.411
307.605
307.494
307.623
307.583
308.064
307.671
307.762
307.682
307.645
307.844
307.319
307.317
307.45
307.583
307.865
307.712
308.232
307.722
308.233
307.421
307.307
307.417
307.758
307.562
307.817
307.611
307.701
307.658
307.69
307.47
307.354
307.651
307.639
307.667
307.668
307.97
307.662
307.811
307.655
307.266
307.369
307.564
307.672
307.583
307.833
307.324
307.376
307.402
307.593
307.855
307.423
307.267
307.6
307.655
307.457
307.884
308.038
307.696
307.828
307.31
307.517
307.132
307.542
307.713
307.424
307.238
307.56
307.48
307.703
307.405
308.068
307.737
307.693
307.756
307.676
307.652
307.647
307.623
307.751
307.837
308.23
307.984
308.062
307.644
307.697
307.66
307.489
308.13
307.359
307.482
307.556
307.559
307.568
307.786
308.141
307.677
307.778
307.379
307.382
307.389
307.663
307.642
307.677
307.577
307.696
307.49
307.486
307.411
307.594
307.562
307.643
308.025
307.851
307.714
307.544
307.519
307.759
307.875
307.714
307.718
307.564
307.895
307.623
307.571
307.28
307.278
307.712
307.638
307.73
307.282
307.699
307.405
307.391
307.522
307.517
307.405
307.646
308.045
307.699
307.811
307.528
307.436
307.336
307.635
307.674
307.459
307.551
307.45
307.636
307.743
307.578
308.095
307.829
307.585
307.499
307.608
307.911
307.51
307.355
307.348
307.592
307.709
307.422
307.439
307.517
307.652
307.556
307.605
308.06
307.627
307.764
307.57
307.734
307.844
307.728
307.901
307.376
307.194
307.252
307.301
307.416
307.169
307.527
307.851
307.256
307.78
307.742
307.428
307.363
307.419
307.382
307.472
307.817
307.772
307.647
307.698
307.582
307.549
307.684
307.204
307.328
307.327
307.258
307.28
307.573
307.498
307.401
307.53
308.308
307.294
307.345
307.598
307.568
307.467
307.474
308.127
307.696
307.741
307.736
307.67
307.761
307.236
307.635
307.411
307.59
307.686
307.661
307.855
307.306
307.509
307.333
307.628
307.692
307.845
308.125
307.867
308.109
307.873
307.567
307.665
307.667
307.819
307.948
307.724
307.93
307.477
307.422
307.447
307.766
307.395
307.65
308.136
307.803
307.618
307.523
307.336
307.417
307.587
307.616
307.547
307.875
307.485
307.397
307.388
307.633
307.716
307.677
307.308
307.199
307.346
307.537
307.345
307.807
307.775
307.395
307.798
307.391
307.762
308.182
307.735
308.139
307.605
307.737
307.709
307.526
308.055
308.064
307.984
307.726
307.573
307.304
307.283
307.626
307.555
307.664
307.337
307.391
307.284
307.667
307.703
307.761
307.438
307.235
307.841
307.816
307.857
307.713
307.45
307.615
307.345
307.957
307.141
307.796
307.346
307.495
308.045
307.75
307.684
307.325
307.695
307.802
308.078
307.98
307.662
307.69
307.678
307.563
308.054
307.969
307.678
307.683
307.78
307.445
307.626
307.451
307.39
307.215
307.558
307.704
307.691
307.384
307.398
307.514
307.526
307.542
307.567
308.096
307.895
307.651
307.416
307.296
307.446
307.766
307.746
307.683
307.748
307.381
307.455
307.303
307.631
307.695
308.025
307.554
307.455
307.469
307.51
307.413
307.551
307.75
307.717
308.036
307.782
308.023
307.801
308.045
307.711
307.586
307.64
307.691
307.824
308.035
307.482
307.4
307.548
307.709
307.491
307.584
308.091
307.247
307.449
307.534
307.724
307.687
307.538
308.07
307.778
307.667
307.317
307.39
307.469
307.64
307.638
307.999
307.522
307.345
307.432
307.288
307.825
307.519
307.351
307.706
307.287
307.384
307.595
307.334
307.744
307.679
307.886
307.602
307.447
307.766
307.65
307.99
307.578
307.663
307.562
307.269
307.209
307.428
307.363
307.328
307.829
307.747
307.78
308.151
307.389
307.59
307.436
307.15
307.89
307.679
307.824
307.629
307.545
307.49
307.577
307.23
307.354
307.394
307.163
307.328
307.969
307.725
307.861
307.427
307.289
307.229
307.6
307.675
307.569
307.957
307.088
307.333
307.371
307.606
307.812
307.421
307.383
307.532
307.524
307.583
307.581
308.063
307.246
307.577
307.532
307.575
307.585
307.416
308.199
307.814
307.718
307.487
307.436
307.463
307.543
307.649
307.705
307.358
308.027
307.69
307.746
308.169
308.039
307.781
308.015
307.716
307.586
307.602
307.606
307.834
307.703
307.808
307.428
307.585
307.397
307.688
307.678
307.434
307.466
307.519
307.801
307.427
307.527
308.052
307.88
307.846
307.354
307.38
307.544
307.722
307.588
307.511
308.126
307.477
307.187
307.926
307.766
307.805
307.334
307.522
307.503
307.374
307.806
307.192
307.435
307.64
307.327
308.263
307.511
307.875
307.358
307.724
307.786
308.098
307.965
307.686
307.627
307.618
307.544
308.09
308.033
307.678
307.678
307.745
307.516
307.591
307.455
307.334
307.422
307.779
307.739
307.41
307.478
307.701
307.299
307.303
307.863
307.382
307.236
307.734
307.834
308.144
307.789
308.178
307.264
307.447
307.57
307.365
307.395
308.173
308.086
307.738
308.032
308.069
307.684
307.41
307.632
307.724
308.093
307.549
307.581
307.403
307.44
307.44
307.618
307.581
307.374
307.55
306.944
307.564
307.756
307.368
307.454
307.45
307.565
307.74
307.316
307.386
307.48
307.506
307.492
307.605
308.155
307.841
307.633
307.575
307.402
307.647
307.548
307.512
307.544
307.517
308.091
307.713
308.172
307.445
307.866
307.389
308.012
307.669
307.468
307.421
307.758
307.726
308.134
307.952
307.836
308.249
307.673
307.65
307.615
307.591
307.861
307.818
307.622
307.413
307.344
307.368
307.682
307.636
307.864
307.593
307.382
307.405
307.454
307.708
307.571
307.886
307.755
307.433
307.513
307.62
307.729
307.68
307.424
308.014
307.442
307.286
307.482
307.717
307.532
307.661
308.087
307.739
307.808
307.549
307.471
307.68
307.381
307.623
307.196
307.565
307.58
307.244
307.22
307.217
307.527
307.743
307.158
307.614
307.694
307.612
307.489
307.794
307.749
307.67
307.802
307.601
307.89
307.663
307.563
307.306
307.394
307.776
307.631
307.708
307.462
307.86
307.237
307.439
307.552
307.614
307.7
307.605
308.099
307.484
307.342
307.062
307.625
307.956
307.627
307.809
307.445
307.529
307.515
307.54
307.594
307.827
308.017
307.728
307.602
307.708
307.527
307.422
307.369
307.589
307.765
307.593
307.705
307.619
307.505
307.568
308.016
307.474
307.451
307.53
307.617
307.585
307.682
307.801
307.853
307.895
307.793
307.221
307.291
307.32
307.762
307.577
307.706
307.847
307.669
307.59
307.25
307.376
307.761
307.609
307.306
307.395
307.553
307.685
307.609
307.55
308.114
307.501
307.522
307.268
307.635
307.788
307.632
307.699
307.627
307.635
307.57
307.645
307.59
307.892
308.358
307.753
308.281
307.498
307.334
307.374
307.634
307.525
307.56
308.216
307.76
307.64
307.644
307.522
307.318
307.633
307.773
307.687
307.711
307.6
308.074
307.583
307.348
307.543
307.282
307.541
307.303
307.804
307.708
307.649
307.722
307.205
307.393
307.589
307.475
307.597
307.394
308.385
307.733
307.735
307.672
307.396
307.524
307.304
307.596
307.78
307.578
307.71
307.433
307.354
307.568
307.689
307.53
307.412
308.091
307.858
308.311
307.56
307.756
307.649
307.762
307.619
307.733
308.203
307.899
307.56
307.283
307.524
307.232
307.721
307.583
307.651
307.715
307.614
307.466
307.409
307.587
307.624
307.735
307.596
307.934
307.351
307.401
307.831
307.745
307.604
307.629
307.678
307.649
307.549
307.544
308.118
307.352
307.468
307.435
307.884
307.67
307.556
307.515
307.591
307.653
307.654
307.656
307.79
307.464
307.516
307.56
307.545
307.633
307.501
307.954
307.852
307.637
307.262
307.281
307.308
307.635
307.705
307.368
307.47
307.49
307.719
307.628
307.675
308.018
307.138
307.36
307.381
307.795
307.614
307.6
307.648
307.51
307.671
307.869
307.81
307.642
307.452
307.353
307.12
307.592
307.685
307.447
307.443
307.549
307.708
307.626
307.497
308.02
307.375
307.344
307.54
307.785
307.639
307.622
307.663
307.654
307.675
307.466
308.073
307.459
307.422
307.476
)
;
        refGradient     uniform 0;
        valueFraction   nonuniform List<scalar> 
1536
(
0.000130528
0.00014821
0.000157321
0.00039023
0.000373009
0.000211792
0.00023076
0.000202671
0.000217011
0.000375358
0.000370419
0.000372894
0.000209002
0.00022146
0.000372638
0.000352142
0.000216503
0.000239145
0.000328204
0.000197299
0.000211113
0.000196938
0.00020827
0.000342602
0.000343302
0.000342747
0.000325343
0.000343142
0.000174461
0.000149842
0.000159478
0.000402576
0.000395221
0.000137317
0.000150459
0.000153812
0.000394762
0.00039373
0.000392979
0.000138301
0.000149575
0.000153712
0.000326113
0.000325806
0.000309603
0.000305569
0.000248323
0.000299996
0.000311577
0.000244395
0.000303329
0.000310129
0.000243944
0.000326801
0.000194791
0.000204171
0.000201011
0.000215981
0.00020647
0.000225283
0.00020172
0.000212213
0.000214864
0.000244056
0.000209498
0.000234854
0.000377502
0.000376073
0.000312706
0.000211557
0.000228612
0.000203537
0.000215982
0.000211216
0.00023944
0.00020233
0.000213221
0.000149667
0.000134744
0.000157166
0.000380297
0.000399035
0.000392506
0.000137619