/*--------------------------------*- C++ -*----------------------------------*\
| =========                 |                                                 |
| \\      /  F ield         | OpenFOAM: The Open Source CFD Toolbox           |
|  \\    /   O peration     | Version:  v1906                                 |
|   \\  /    A nd           | Web:      www.OpenFOAM.com                      |
|    \\/     M anipulation  |                                                 |
\*---------------------------------------------------------------------------*/
FoamFile
{
    version     2.0;
    format      ascii;
    class       volVectorField;
    location    "67";
    object      U;
}
// * * * * * * * * * * * * * * * * * * * * * * * * * * * * * * * * * * * * * //

dimensions      [0 1 -1 0 0 0 0];


internalField   nonuniform List<vector> 
78750
(
(-1.77232e-06 -7.25578e-05 0.000124997)
(-5.03033e-06 -0.00010014 0.000218178)
(-1.43178e-05 -0.000101648 0.000266075)
(-2.81854e-05 -9.28014e-05 0.000299277)
(-4.64792e-05 -7.82524e-05 0.000321036)
(-6.84743e-05 -6.0748e-05 0.00033396)
(-9.33012e-05 -4.23175e-05 0.000339909)
(-0.000120006 -2.42384e-05 0.00034035)
(-0.000147729 -7.49503e-06 0.000336318)
(-0.000175661 7.43479e-06 0.000328675)
(-0.000203077 2.01412e-05 0.000318016)
(-0.000229327 3.05531e-05 0.000304869)
(-0.000253822 3.85612e-05 0.000289616)
(-0.000276072 4.42867e-05 0.000272625)
(-0.000295673 4.77505e-05 0.000254211)
(-0.000312134 4.91366e-05 0.000234859)
(-0.000325349 4.85406e-05 0.000214562)
(-0.000334968 4.6169e-05 0.000193813)
(-0.000340818 4.21224e-05 0.000172971)
(-0.000342816 3.663e-05 0.000152409)
(-0.000340875 2.98139e-05 0.000132519)
(-0.000335005 2.18862e-05 0.000113709)
(-0.000325246 1.29747e-05 9.63725e-05)
(-0.000311694 3.29508e-06 8.09128e-05)
(-0.000294495 -6.98957e-06 6.76733e-05)
(-0.000273842 -1.76123e-05 5.69725e-05)
(-0.000249969 -2.83133e-05 4.90223e-05)
(-0.000223153 -3.86985e-05 4.39403e-05)
(-0.000193736 -4.83248e-05 4.17031e-05)
(-0.000162118 -5.65522e-05 4.20653e-05)
(-0.000128639 -6.25797e-05 4.44648e-05)
(-9.35408e-05 -6.52746e-05 4.78752e-05)
(-5.79821e-05 -6.31074e-05 5.06776e-05)
(-2.89289e-05 -5.40851e-05 5.01851e-05)
(-8.10842e-06 -3.06352e-05 3.80519e-05)
(-4.67141e-06 0.000132752 -0.000220619)
(-2.42992e-05 0.000271482 -0.000322805)
(-4.68978e-05 0.000344394 -0.000358893)
(-7.95526e-05 0.000401943 -0.000390098)
(-0.000114074 0.000445207 -0.000415741)
(-0.000148295 0.00047552 -0.00043559)
(-0.000181271 0.000495052 -0.000450802)
(-0.000212327 0.000504886 -0.000462969)
(-0.000240814 0.000506851 -0.000472526)
(-0.000266352 0.000501625 -0.000480258)
(-0.000288527 0.000490745 -0.000486177)
(-0.000307313 0.000474554 -0.000490872)
(-0.000322496 0.00045437 -0.000494238)
(-0.000334098 0.000430478 -0.000496687)
(-0.000342099 0.000403964 -0.000498084)
(-0.000346612 0.000375008 -0.000498766)
(-0.000347684 0.000344571 -0.000498568)
(-0.000345447 0.000312762 -0.000497767)
(-0.000340082 0.000280238 -0.000496272)
(-0.000331762 0.000247105 -0.000494273)
(-0.000320651 0.000214075 -0.000491576)
(-0.000306996 0.000181234 -0.000488299)
(-0.000291004 0.000149124 -0.000484266)
(-0.000272929 0.000117815 -0.000479566)
(-0.000252999 8.77419e-05 -0.000473928)
(-0.000231471 5.8966e-05 -0.000467203)
(-0.000208581 3.186e-05 -0.000458947)
(-0.000184605 6.49739e-06 -0.000448694)
(-0.000159811 -1.67725e-05 -0.000435536)
(-0.000134469 -3.78134e-05 -0.000418289)
(-0.000108689 -5.61737e-05 -0.000395082)
(-8.22262e-05 -7.13171e-05 -0.000362509)
(-5.51983e-05 -8.17153e-05 -0.000312395)
(-3.34323e-05 -8.36542e-05 -0.000234763)
(-1.77765e-05 -5.54494e-05 -7.88438e-05)
(-2.26321e-06 0.000320409 -0.000152644)
(-1.35096e-05 0.000550061 -0.000245209)
(-2.35446e-05 0.000649953 -0.000282859)
(-3.86229e-05 0.000719722 -0.000308147)
(-5.42207e-05 0.000765669 -0.000326124)
(-6.93045e-05 0.000793602 -0.000339283)
(-8.3593e-05 0.000806742 -0.000349591)
(-9.68037e-05 0.000808606 -0.000357742)
(-0.00010877 0.000800881 -0.000364686)
(-0.000119277 0.000785882 -0.000370481)
(-0.000128265 0.000764499 -0.000375637)
(-0.000135651 0.000738396 -0.000379985)
(-0.000141458 0.000708055 -0.000383857)
(-0.00014566 0.000674779 -0.000387009)
(-0.00014833 0.00063885 -0.000389694)
(-0.000149464 0.000601351 -0.000391657)
(-0.000149152 0.00056245 -0.000393106)
(-0.000147497 0.000522881 -0.000393954)
(-0.000144534 0.00048285 -0.000394347)
(-0.000140394 0.000443209 -0.000393981)
(-0.000135223 0.000403991 -0.000393025)
(-0.000129097 0.000365783 -0.000391301)
(-0.000122163 0.000328613 -0.000388926)
(-0.000114504 0.000292945 -0.000385717)
(-0.000106256 0.000258785 -0.000381712)
(-9.74893e-05 0.000226489 -0.000376653)
(-8.83183e-05 0.000196038 -0.000370402)
(-7.88034e-05 0.000167695 -0.000362475)
(-6.90465e-05 0.00014142 -0.000352331)
(-5.9095e-05 0.000117409 -0.000338924)
(-4.89858e-05 9.55936e-05 -0.000320745)
(-3.84944e-05 7.61163e-05 -0.000294891)
(-2.73783e-05 5.88077e-05 -0.000256315)
(-1.73138e-05 4.38565e-05 -0.000199152)
(-1.0976e-05 2.39104e-05 -7.33708e-05)
(-2.79407e-06 0.000412531 1.68388e-05)
(-8.50684e-06 0.000679882 -3.52936e-05)
(-1.08826e-05 0.0007978 -7.00379e-05)
(-1.5121e-05 0.000880418 -9.52677e-05)
(-1.93088e-05 0.00093596 -0.000112265)
(-2.33767e-05 0.000970039 -0.00012557)
(-2.72675e-05 0.000987608 -0.000137125)
(-3.09711e-05 0.000991684 -0.000148078)
(-3.43707e-05 0.000985437 -0.000158596)
(-3.74319e-05 0.000970501 -0.000169186)
(-4.00722e-05 0.000949029 -0.000179692)
(-4.22881e-05 0.000921918 -0.000190391)
(-4.40334e-05 0.000890738 -0.000200982)
(-4.53303e-05 0.000855993 -0.00021163)
(-4.61573e-05 0.000818888 -0.000222007)
(-4.65543e-05 0.000779718 -0.00023223)
(-4.65456e-05 0.000739421 -0.000242012)
(-4.6146e-05 0.000698353 -0.000251303)
(-4.54055e-05 0.000657386 -0.000259785)
(-4.44031e-05 0.000616626 -0.000267545)
(-4.31558e-05 0.000576682 -0.00027435)
(-4.17339e-05 0.000537578 -0.000280272)
(-4.01581e-05 0.000499809 -0.000285082)
(-3.85112e-05 0.000463352 -0.000288813)
(-3.67762e-05 0.000428413 -0.000291318)
(-3.50146e-05 0.000394889 -0.000292583)
(-3.32043e-05 0.000362959 -0.000292329)
(-3.13528e-05 0.000332385 -0.000290423)
(-2.93908e-05 0.000303122 -0.000286407)
(-2.72704e-05 0.000274728 -0.000279804)
(-2.48186e-05 0.000246819 -0.000269725)
(-2.16861e-05 0.0002186 -0.000255398)
(-1.7197e-05 0.000189115 -0.000235537)
(-1.18219e-05 0.00015702 -0.000205003)
(-8.51952e-06 9.70717e-05 -0.000111409)
(-4.635e-06 0.000430517 0.00011121)
(-8.47046e-06 0.000688657 9.09698e-05)
(-7.70342e-06 0.000804238 6.27809e-05)
(-6.56214e-06 0.000887336 4.09244e-05)
(-4.41282e-06 0.000944864 2.62353e-05)
(-1.75751e-06 0.00098278 1.45916e-05)
(1.1261e-06 0.00100488 3.62742e-06)
(4.04495e-06 0.00101486 -7.13306e-06)
(6.90561e-06 0.0010148 -1.8194e-05)
(9.62969e-06 0.00100713 -2.95009e-05)
(1.21577e-05 0.000992997 -4.13289e-05)
(1.44574e-05 0.000974075 -5.34505e-05)
(1.64802e-05 0.000950999 -6.59998e-05)
(1.82259e-05 0.000925028 -7.85562e-05)
(1.96438e-05 0.000896527 -9.11889e-05)
(2.07257e-05 0.000866469 -0.00010359)
(2.14296e-05 0.000835052 -0.000115791)
(2.17552e-05 0.000803071 -0.000127489)
(2.16704e-05 0.000770664 -0.000138694)
(2.11977e-05 0.000738458 -0.00014914)
(2.03128e-05 0.000706464 -0.000158851)
(1.90385e-05 0.000675141 -0.000167604)
(1.73572e-05 0.000644414 -0.00017543)
(1.53054e-05 0.000614578 -0.000182136)
(1.28806e-05 0.000585441 -0.000187753)
(1.01352e-05 0.000557102 -0.000192111)
(7.10417e-06 0.000529188 -0.000195222)
(3.88724e-06 0.000501518 -0.000196907)
(5.89174e-07 0.000473406 -0.000197094)
(-2.62119e-06 0.000444224 -0.00019545)
(-5.55144e-06 0.000412727 -0.000191784)
(-7.78292e-06 0.000377412 -0.000186479)
(-8.51891e-06 0.000335974 -0.000180673)
(-7.02501e-06 0.000285687 -0.000169804)
(-6.15981e-06 0.000181858 -0.000106473)
(-4.13603e-06 0.000422484 0.000142919)
(-6.18068e-06 0.000658142 0.000137006)
(-4.51814e-06 0.000765512 0.000114275)
(-1.74871e-06 0.000844262 9.56842e-05)
(2.19559e-06 0.000901183 8.32465e-05)
(6.72911e-06 0.00094071 7.30078e-05)
(1.15093e-05 0.000966905 6.32398e-05)
(1.63064e-05 0.000982224 5.3282e-05)
(2.09627e-05 0.000989221 4.31058e-05)
(2.53487e-05 0.000989247 3.24802e-05)
(2.93818e-05 0.000984009 2.15107e-05)
(3.297e-05 0.00097426 1.0127e-05)
(3.60819e-05 0.000961224 -1.43269e-06)
(3.86433e-05 0.00094532 -1.33126e-05)
(4.06522e-05 0.000927446 -2.5226e-05)
(4.2068e-05 0.000907811 -3.71377e-05)
(4.28921e-05 0.000887131 -4.88052e-05)
(4.30918e-05 0.000865493 -6.02054e-05)
(4.26862e-05 0.000843459 -7.11104e-05)
(4.16616e-05 0.000821019 -8.15163e-05)
(4.00466e-05 0.000798607 -9.12184e-05)
(3.78389e-05 0.000776138 -0.000100222)
(3.50827e-05 0.000753891 -0.000108354)
(3.17963e-05 0.000731637 -0.000115643)
(2.80455e-05 0.000709445 -0.000121948)
(2.38717e-05 0.000686899 -0.000127313)
(1.93806e-05 0.000663783 -0.000131625)
(1.46629e-05 0.000639359 -0.000134946)
(9.88198e-06 0.000612945 -0.000137149)
(5.19926e-06 0.000583236 -0.000138218)
(8.53772e-07 0.000548741 -0.000138072)
(-2.80088e-06 0.000507145 -0.000137616)
(-4.99474e-06 0.000455507 -0.000138622)
(-4.8741e-06 0.000389708 -0.000137349)
(-4.68285e-06 0.000249244 -9.34459e-05)
(-2.66808e-06 0.000396974 0.000130679)
(-3.19244e-06 0.000612906 0.000127149)
(-1.37907e-06 0.000712394 0.000108433)
(1.59166e-06 0.000787153 9.31119e-05)
(5.45611e-06 0.000842752 8.28311e-05)
(9.75048e-06 0.000883673 7.45278e-05)
(1.42202e-05 0.000912937 6.65802e-05)
(1.86886e-05 0.000933277 5.86588e-05)
(2.30167e-05 0.000946321 5.05296e-05)
(2.70919e-05 0.000953812 4.22025e-05)
(3.08193e-05 0.000956616 3.35459e-05)
(3.41327e-05 0.000955911 2.46716e-05)
(3.69696e-05 0.000952149 1.55433e-05)
(3.9294e-05 0.000946158 6.36342e-06)
(4.10699e-05 0.00093817 -2.88888e-06)
(4.22792e-05 0.000928826 -1.20408e-05)
(4.28985e-05 0.000918195 -2.10785e-05)
(4.2933e-05 0.00090677 -2.98292e-05)
(4.23667e-05 0.000894522 -3.82909e-05)
(4.12191e-05 0.000881816 -4.63011e-05)
(3.94908e-05 0.000868528 -5.38707e-05)
(3.72153e-05 0.000854892 -6.08577e-05)
(3.44142e-05 0.000840666 -6.72879e-05)
(3.11415e-05 0.000825912 -7.30421e-05)
(2.74373e-05 0.000810205 -7.81642e-05)
(2.33811e-05 0.000793356 -8.25599e-05)
(1.90465e-05 0.000774639 -8.62947e-05)
(1.45537e-05 0.000753446 -8.93038e-05)
(1.00264e-05 0.000728527 -9.1652e-05)
(5.63839e-06 0.000698559 -9.32342e-05)
(1.57652e-06 0.000661349 -9.41817e-05)
(-1.84068e-06 0.00061431 -9.52506e-05)
(-3.98076e-06 0.000553538 -9.82544e-05)
(-4.10757e-06 0.000474194 -0.000100133)
(-3.83349e-06 0.000301891 -6.93987e-05)
(-1.42457e-06 0.000371855 0.000102033)
(-1.251e-06 0.00057829 9.81909e-05)
(-3.28096e-08 0.000674252 8.41282e-05)
(1.95131e-06 0.000747181 7.25715e-05)
(4.43007e-06 0.000802762 6.48046e-05)
(7.15883e-06 0.000844818 5.84947e-05)
(9.98833e-06 0.000876655 5.26079e-05)
(1.28303e-05 0.000900343 4.6763e-05)
(1.55915e-05 0.000917868 4.09268e-05)
(1.82058e-05 0.000930326 3.49586e-05)
(2.06091e-05 0.00093897 2.88963e-05)
(2.27466e-05 0.000944357 2.26726e-05)
(2.45775e-05 0.000947329 1.63996e-05)
(2.60637e-05 0.000948143 1.00554e-05)
(2.71828e-05 0.000947397 3.77192e-06)
(2.79109e-05 0.000945167 -2.47219e-06)
(2.82369e-05 0.000941896 -8.54206e-06)
(2.81486e-05 0.000937545 -1.44558e-05)
(2.76514e-05 0.000932437 -2.00873e-05)
(2.67365e-05 0.000926437 -2.54642e-05)
(2.54293e-05 0.000919753 -3.04711e-05)
(2.37374e-05 0.000912139 -3.51492e-05)
(2.16955e-05 0.000903663 -3.93963e-05)
(1.93268e-05 0.00089392 -4.3268e-05)
(1.66857e-05 0.000882765 -4.66757e-05)
(1.38213e-05 0.00086954 -4.96901e-05)
(1.08041e-05 0.000853749 -5.22402e-05)
(7.71376e-06 0.000834294 -5.44137e-05)
(4.66264e-06 0.000810072 -5.61411e-05)
(1.766e-06 0.000779212 -5.74769e-05)
(-8.2676e-07 0.000739534 -5.84018e-05)
(-2.88447e-06 0.000687788 -5.95793e-05)
(-3.9589e-06 0.00061986 -6.21955e-05)
(-3.68092e-06 0.000530016 -6.41297e-05)
(-3.03254e-06 0.000333958 -4.29728e-05)
(-1.02003e-06 0.00035133 7.62073e-05)
(-9.59056e-07 0.000555521 7.53123e-05)
(-5.76095e-07 0.0006506 6.71424e-05)
(1.25639e-07 0.000723472 6.02164e-05)
(1.09325e-06 0.000779402 5.53665e-05)
(2.21027e-06 0.000822611 5.13497e-05)
(3.41375e-06 0.000855951 4.7494e-05)
(4.66105e-06 0.000881877 4.3702e-05)
(5.90966e-06 0.000901901 3.98702e-05)
(7.12013e-06 0.000917496 3.60363e-05)
(8.25624e-06 0.000929433 3.21283e-05)
(9.2913e-06 0.000938641 2.82225e-05)
(1.0195e-05 0.000945478 2.42738e-05)
(1.09384e-05 0.000950561 2.03856e-05)
(1.15049e-05 0.000954023 1.64967e-05)
(1.18799e-05 0.000956292 1.27137e-05)
(1.20563e-05 0.000957345 8.99477e-06)
(1.20177e-05 0.000957487 5.47933e-06)
(1.1758e-05 0.000956586 2.11676e-06)
(1.12866e-05 0.000954843 -1.00254e-06)
(1.05973e-05 0.000952022 -3.93657e-06)
(9.70753e-06 0.000948203 -6.59956e-06)
(8.62976e-06 0.000943016 -9.06017e-06)
(7.38819e-06 0.000936371 -1.12418e-05)
(6.00789e-06 0.000927689 -1.32233e-05)
(4.52931e-06 0.000916604 -1.49387e-05)
(2.99231e-06 0.000902182 -1.64794e-05)
(1.45258e-06 0.000883585 -1.77931e-05)
(-2.48885e-08 0.000859255 -1.89747e-05)
(-1.3686e-06 0.000827518 -1.99593e-05)
(-2.48939e-06 0.0007857 -2.08794e-05)
(-3.2491e-06 0.000730643 -2.20746e-05)
(-3.39556e-06 0.00065766 -2.44498e-05)
(-2.80016e-06 0.00056092 -2.66472e-05)
(-2.03948e-06 0.000349453 -1.56433e-05)
(-1.26983e-06 0.00033607 5.91943e-05)
(-1.71324e-06 0.000539702 6.45581e-05)
(-2.15605e-06 0.000634606 6.27441e-05)
(-2.59419e-06 0.000707339 6.05209e-05)
(-2.84123e-06 0.000763473 5.87319e-05)
(-2.93006e-06 0.000806954 5.69179e-05)
(-2.90869e-06 0.00084097 5.49771e-05)
(-2.79051e-06 0.000867633 5.28626e-05)
(-2.60231e-06 0.000888799 5.06757e-05)
(-2.35274e-06 0.000905568 4.83836e-05)
(-2.06621e-06 0.000919058 4.60751e-05)
(-1.75365e-06 0.000929805 4.37131e-05)
(-1.43734e-06 0.000938512 4.13886e-05)
(-1.12728e-06 0.000945396 3.90606e-05)
(-8.47796e-07 0.000950908 3.68566e-05)
(-6.05961e-07 0.00095508 3.47372e-05)
(-4.23702e-07 0.000958239 3.27882e-05)
(-2.92527e-07 0.000960307 3.09006e-05)
(-2.28702e-07 0.000961484 2.91678e-05)
(-2.32788e-07 0.000961567 2.75335e-05)
(-3.01849e-07 0.000960652 2.60744e-05)
(-4.36417e-07 0.00095842 2.472e-05)
(-6.30286e-07 0.000954832 2.35351e-05)
(-8.7154e-07 0.000949402 2.24362e-05)
(-1.14732e-06 0.000941879 2.14759e-05)
(-1.44688e-06 0.000931506 2.05598e-05)
(-1.74628e-06 0.00091767 1.97283e-05)
(-2.02324e-06 0.000899148 1.88697e-05)
(-2.25056e-06 0.000874688 1.8005e-05)
(-2.40091e-06 0.000842238 1.70077e-05)
(-2.44619e-06 0.00079941 1.58373e-05)
(-2.33933e-06 0.000742671 1.40852e-05)
(-1.98694e-06 0.000667577 1.11643e-05)
(-1.37755e-06 0.000567941 7.47073e-06)
(-8.38896e-07 0.000350669 7.79515e-06)
(-1.68024e-06 0.000323751 4.9104e-05)
(-2.62022e-06 0.000525055 6.1259e-05)
(-3.6262e-06 0.00061872 6.47246e-05)
(-4.80543e-06 0.000690589 6.63987e-05)
(-5.7597e-06 0.000745947 6.70929e-05)
(-6.52084e-06 0.000788991 6.7119e-05)
(-7.12643e-06 0.000822593 6.66195e-05)
(-7.59927e-06 0.000849154 6.58016e-05)
(-7.93998e-06 0.000870201 6.47298e-05)
(-8.16441e-06 0.000887141 6.35393e-05)
(-8.27299e-06 0.000900753 6.22354e-05)
(-8.28624e-06 0.000911891 6.09203e-05)
(-8.20648e-06 0.000920914 5.95747e-05)
(-8.05203e-06 0.000928363 5.82857e-05)
(-7.82573e-06 0.000934354 5.70169e-05)
(-7.54791e-06 0.00093924 5.58434e-05)
(-7.2214e-06 0.000942974 5.4729e-05)
(-6.86253e-06 0.000945768 5.37615e-05)
(-6.47552e-06 0.000947478 5.28792e-05)
(-6.07038e-06 0.000948232 5.21403e-05)
(-5.65129e-06 0.000947775 5.14769e-05)
(-5.22175e-06 0.000946118 5.09385e-05)
(-4.78625e-06 0.00094287 5.04474e-05)
(-4.34483e-06 0.000937879 5.00429e-05)
(-3.89745e-06 0.000930544 4.96356e-05)
(-3.44395e-06 0.000920447 4.92505e-05)
(-2.98327e-06 0.000906641 4.87799e-05)
(-2.51487e-06 0.000888245 4.82224e-05)
(-2.03873e-06 0.000863701 4.74367e-05)
(-1.55897e-06 0.000831309 4.63727e-05)
(-1.09202e-06 0.000788421 4.47978e-05)
(-6.55363e-07 0.000731874 4.2405e-05)
(-2.72235e-07 0.000657054 3.84959e-05)
(9.2393e-08 0.000558166 3.28963e-05)
(2.29663e-07 0.000342891 2.39819e-05)
(-1.86898e-06 0.000312952 4.05979e-05)
(-3.05154e-06 0.000509318 5.66058e-05)
(-4.31175e-06 0.000600676 6.30928e-05)
(-5.79167e-06 0.00067063 6.69642e-05)
(-7.03186e-06 0.000724576 6.91274e-05)
(-8.04381e-06 0.000766359 7.01813e-05)
(-8.88863e-06 0.000799047 7.05471e-05)
(-9.56664e-06 0.00082472 7.0421e-05)
(-1.00976e-05 0.000845146 7.00053e-05)
(-1.04701e-05 0.000861427 6.93701e-05)
(-1.07045e-05 0.000874607 6.86405e-05)
(-1.07971e-05 0.000885236 6.78336e-05)
(-1.07632e-05 0.000893956 6.70405e-05)
(-1.06038e-05 0.000901001 6.62525e-05)
(-1.03359e-05 0.000906778 6.55433e-05)
(-9.95984e-06 0.000911331 6.48883e-05)
(-9.49705e-06 0.00091492 6.43486e-05)
(-8.95081e-06 0.000917463 6.38871e-05)
(-8.33789e-06 0.000919108 6.35527e-05)
(-7.66997e-06 0.000919671 6.32958e-05)
(-6.95726e-06 0.000919197 6.31532e-05)
(-6.20995e-06 0.000917385 6.30633e-05)
(-5.43693e-06 0.000914152 6.3051e-05)
(-4.65002e-06 0.00090904 6.30415e-05)
(-3.85636e-06 0.000901767 6.30462e-05)
(-3.06376e-06 0.00089162 6.29733e-05)
(-2.28154e-06 0.000877983 6.28107e-05)
(-1.52326e-06 0.000859709 6.24362e-05)
(-8.01978e-07 0.000835597 6.17905e-05)
(-1.41954e-07 0.000803727 6.06867e-05)
(4.25355e-07 0.000761851 5.89489e-05)
(8.44353e-07 0.00070667 5.6149e-05)
(1.04442e-06 0.00063405 5.16591e-05)
(1.1037e-06 0.000538216 4.48395e-05)
(9.00323e-07 0.000330233 3.05968e-05)
(-1.62848e-06 0.000303957 3.01362e-05)
(-2.7545e-06 0.000494634 4.53536e-05)
(-3.94677e-06 0.000583232 5.21117e-05)
(-5.37828e-06 0.000651095 5.63102e-05)
(-6.592e-06 0.000703276 5.86665e-05)
(-7.61069e-06 0.000743701 5.99117e-05)
(-8.45582e-06 0.000775135 6.04278e-05)
(-9.15322e-06 0.000799825 6.04851e-05)
(-9.68747e-06 0.000819265 6.02133e-05)
(-1.00702e-05 0.000834764 5.97583e-05)
(-1.02947e-05 0.000847108 5.91747e-05)
(-1.03754e-05 0.000857082 5.85578e-05)
(-1.03086e-05 0.00086507 5.79261e-05)
(-1.01103e-05 0.000871556 5.73501e-05)
(-9.78341e-06 0.000876689 5.68287e-05)
(-9.34748e-06 0.000880772 5.64165e-05)
(-8.80578e-06 0.000883804 5.60976e-05)
(-8.18119e-06 0.000885964 5.59126e-05)
(-7.48255e-06 0.000887143 5.5832e-05)
(-6.72788e-06 0.000887417 5.58828e-05)
(-5.93236e-06 0.000886571 5.60221e-05)
(-5.10978e-06 0.000884572 5.62639e-05)
(-4.27258e-06 0.000881076 5.65518e-05)
(-3.43433e-06 0.000875898 5.68862e-05)
(-2.61084e-06 0.000868505 5.71965e-05)
(-1.81229e-06 0.000858466 5.74659e-05)
(-1.05128e-06 0.000844936 5.76024e-05)
(-3.42172e-07 0.000827066 5.75584e-05)
(2.93869e-07 0.000803461 5.7199e-05)
(8.43823e-07 0.000772533 5.64116e-05)
(1.26518e-06 0.000731909 5.49548e-05)
(1.50982e-06 0.000678679 5.2505e-05)
(1.50623e-06 0.000608713 4.84359e-05)
(1.37135e-06 0.000516716 4.21093e-05)
(1.01579e-06 0.000317303 2.77865e-05)
(-1.03666e-06 0.000298053 1.67705e-05)
(-1.88679e-06 0.000484516 2.67789e-05)
(-2.81733e-06 0.000571148 3.15181e-05)
(-3.9778e-06 0.000637364 3.44222e-05)
(-5.02915e-06 0.000688259 3.5946e-05)
(-5.93662e-06 0.000727497 3.66121e-05)
(-6.72372e-06 0.000757965 3.67476e-05)
(-7.37466e-06 0.000781681 3.65142e-05)
(-7.89274e-06 0.000800305 3.60508e-05)
(-8.25988e-06 0.000814933 3.54317e-05)
(-8.48202e-06 0.000826545 3.47483e-05)
(-8.55468e-06 0.000835718 3.40391e-05)
(-8.48962e-06 0.000843042 3.33708e-05)
(-8.28572e-06 0.000848798 3.27625e-05)
(-7.96068e-06 0.000853347 3.22648e-05)
(-7.52089e-06 0.000856787 3.18822e-05)
(-6.99056e-06 0.000859332 3.1651e-05)
(-6.37792e-06 0.000860954 3.15616e-05)
(-5.70578e-06 0.000861759 3.16356e-05)
(-4.99062e-06 0.000861613 3.18489e-05)
(-4.25198e-06 0.000860519 3.22085e-05)
(-3.50898e-06 0.00085823 3.26765e-05)
(-2.77391e-06 0.000854623 3.3246e-05)
(-2.06317e-06 0.000849303 3.3866e-05)
(-1.39203e-06 0.000841958 3.4516e-05)
(-7.73324e-07 0.000831961 3.51321e-05)
(-2.13257e-07 0.000818694 3.56774e-05)
(2.73476e-07 0.00080113 3.60677e-05)
(6.80282e-07 0.000778122 3.62367e-05)
(9.91721e-07 0.000747942 3.6061e-05)
(1.19857e-06 0.000708498 3.54034e-05)
(1.26174e-06 0.000656802 3.40077e-05)
(1.15707e-06 0.000589071 3.14813e-05)
(9.86016e-07 0.000500051 2.73633e-05)
(6.82062e-07 0.000307411 1.7739e-05)
(-2.98211e-07 0.000296847 2.36578e-06)
(-8.11299e-07 0.000482515 4.70148e-06)
(-1.38121e-06 0.000568681 6.12916e-06)
(-2.20647e-06 0.00063449 6.86058e-06)
(-3.03521e-06 0.000684891 6.93623e-06)
(-3.81771e-06 0.000723672 6.61412e-06)
(-4.52108e-06 0.000753573 6.02695e-06)
(-5.13641e-06 0.000776759 5.26667e-06)
(-5.63227e-06 0.000794748 4.38418e-06)
(-6.00609e-06 0.000808797 3.44496e-06)
(-6.24036e-06 0.00081974 2.48905e-06)
(-6.33996e-06 0.000828322 1.57147e-06)
(-6.30171e-06 0.000834988 7.23465e-07)
(-6.13672e-06 0.000840189 -9.2298e-09)
(-5.85442e-06 0.000844135 -6.05915e-07)
(-5.47353e-06 0.000847095 -1.03254e-06)
(-5.00403e-06 0.00084913 -1.28109e-06)
(-4.47044e-06 0.000850381 -1.33197e-06)
(-3.89347e-06 0.000850792 -1.19187e-06)
(-3.29102e-06 0.0008504 -8.56126e-07)
(-2.68559e-06 0.000849041 -3.46635e-07)
(-2.09624e-06 0.000846635 3.26477e-07)
(-1.54215e-06 0.000842892 1.1284e-06)
(-1.03351e-06 0.00083758 2.03635e-06)
(-5.87107e-07 0.000830223 3.00505e-06)
(-2.13498e-07 0.000820356 4.00358e-06)
(8.20869e-08 0.000807202 4.98038e-06)
(3.03622e-07 0.0007899 5.89827e-06)
(4.44589e-07 0.000767157 6.69973e-06)
(5.13686e-07 0.000737416 7.3419e-06)
(5.10765e-07 0.000698465 7.75438e-06)
(4.49433e-07 0.000647503 7.86181e-06)
(3.37501e-07 0.000580669 7.52303e-06)
(2.64456e-07 0.00049292 6.65591e-06)
(1.08043e-07 0.000303022 4.42804e-06)
(3.69197e-07 0.000300868 -1.04333e-05)
(1.47103e-07 0.000489458 -1.569e-05)
(-9.31541e-08 0.000576917 -1.75913e-05)
(-6.03813e-07 0.000643541 -1.90653e-05)
(-1.24159e-06 0.000694455 -2.04405e-05)
(-1.90191e-06 0.000733427 -2.17705e-05)
(-2.54629e-06 0.000763361 -2.30826e-05)
(-3.12766e-06 0.000786363 -2.43948e-05)
(-3.62227e-06 0.000804102 -2.57033e-05)
(-4.00679e-06 0.000817757 -2.69924e-05)
(-4.27462e-06 0.000828305 -2.82307e-05)
(-4.41024e-06 0.0008364 -2.9389e-05)
(-4.42038e-06 0.000842626 -3.04296e-05)
(-4.31073e-06 0.000847334 -3.13232e-05)
(-4.09264e-06 0.00085087 -3.20371e-05)
(-3.77908e-06 0.000853394 -3.25501e-05)
(-3.39372e-06 0.000855098 -3.28409e-05)
(-2.95478e-06 0.000856009 -3.29017e-05)
(-2.48468e-06 0.000856198 -3.2726e-05)
(-2.00615e-06 0.00085558 -3.23217e-05)
(-1.54009e-06 0.000854112 -3.16982e-05)
(-1.10858e-06 0.000851591 -3.08781e-05)
(-7.29341e-07 0.00084784 -2.98839e-05)
(-4.16929e-07 0.000842498 -2.87487e-05)
(-1.81403e-07 0.000835199 -2.75034e-05)
(-3.20717e-08 0.000825344 -2.61837e-05)
(3.60958e-08 0.00081226 -2.48193e-05)
(2.35852e-08 0.000794951 -2.34371e-05)
(-5.27753e-08 0.000772218 -2.20498e-05)
(-1.83063e-07 0.000742368 -2.06539e-05)
(-3.34083e-07 0.000703268 -1.92195e-05)
(-4.71022e-07 0.000651977 -1.76737e-05)
(-5.25687e-07 0.000584687 -1.5878e-05)
(-4.56767e-07 0.00049622 -1.35478e-05)
(-4.59959e-07 0.000304758 -8.31296e-06)
(8.09547e-07 0.000309609 -1.94168e-05)
(7.47083e-07 0.000504189 -3.02965e-05)
(7.49053e-07 0.000594324 -3.47242e-05)
(4.54737e-07 0.000662875 -3.78938e-05)
(-3.21142e-08 0.000715073 -4.04028e-05)
(-6.03926e-07 0.000754905 -4.25267e-05)
(-1.18492e-06 0.000785303 -4.44237e-05)
(-1.73474e-06 0.00080854 -4.61823e-05)
(-2.21453e-06 0.000826271 -4.78454e-05)
(-2.60111e-06 0.000839811 -4.94223e-05)
(-2.87458e-06 0.000850101 -5.09024e-05)
(-3.03403e-06 0.000857916 -5.22626e-05)
(-3.07129e-06 0.000863784 -5.3474e-05)
(-2.99586e-06 0.000868167 -5.45066e-05)
(-2.81916e-06 0.000871346 -5.53315e-05)
(-2.55782e-06 0.000873582 -5.59247e-05)
(-2.23027e-06 0.000874993 -5.62674e-05)
(-1.85925e-06 0.0008757 -5.63488e-05)
(-1.46723e-06 0.000875693 -5.61648e-05)
(-1.07822e-06 0.000874973 -5.57206e-05)
(-7.16728e-07 0.000873409 -5.5028e-05)
(-4.00899e-07 0.000870873 -5.41068e-05)
(-1.49956e-07 0.000867096 -5.29815e-05)
(2.28551e-08 0.000861784 -5.16822e-05)
(1.06283e-07 0.00085447 -5.02384e-05)
(1.00248e-07 0.000844612 -4.86796e-05)
(5.96775e-09 0.000831426 -4.70269e-05)
(-1.63114e-07 0.000813959 -4.52905e-05)
(-3.94237e-07 0.000790886 -4.34574e-05)
(-6.50037e-07 0.000760535 -4.14819e-05)
(-9.01514e-07 0.000720621 -3.92661e-05)
(-1.08245e-06 0.00066819 -3.66225e-05)
(-1.09861e-06 0.000599233 -3.32141e-05)
(-9.12273e-07 0.000508491 -2.8484e-05)
(-8.45636e-07 0.000311945 -1.76553e-05)
(9.54263e-07 0.000321468 -2.3657e-05)
(9.21004e-07 0.000523511 -3.70575e-05)
(1.03024e-06 0.000617039 -4.26537e-05)
(8.42149e-07 0.000688027 -4.66169e-05)
(4.38668e-07 0.000741958 -4.96606e-05)
(-6.20268e-08 0.00078295 -5.21634e-05)
(-5.8702e-07 0.000814114 -5.43462e-05)
(-1.08454e-06 0.000837774 -5.63274e-05)
(-1.52709e-06 0.000855717 -5.81721e-05)
(-1.87783e-06 0.00086927 -5.98996e-05)
(-2.12688e-06 0.000879478 -6.15091e-05)
(-2.26383e-06 0.000887104 -6.29794e-05)
(-2.28881e-06 0.000892765 -6.42865e-05)
(-2.207e-06 0.000896894 -6.53986e-05)
(-2.03202e-06 0.000899849 -6.62899e-05)
(-1.7792e-06 0.000901854 -6.69336e-05)
(-1.46633e-06 0.000903092 -6.73132e-05)
(-1.11836e-06 0.000903638 -6.74149e-05)
(-7.57714e-07 0.00090354 -6.7237e-05)
(-4.06546e-07 0.000902743 -6.67819e-05)
(-8.91584e-08 0.000901167 -6.6064e-05)
(1.71186e-07 0.000898623 -6.51001e-05)
(3.6185e-07 0.000894879 -6.39177e-05)
(4.66197e-07 0.000889572 -6.25427e-05)
(4.79278e-07 0.000882263 -6.10071e-05)
(3.96157e-07 0.000872329 -5.93349e-05)
(2.21548e-07 0.000858999 -5.75467e-05)
(-2.95755e-08 0.000841223 -5.56421e-05)
(-3.32627e-07 0.000817667 -5.36004e-05)
(-6.63808e-07 0.000786535 -5.13539e-05)
(-9.73231e-07 0.000745494 -4.87795e-05)
(-1.19443e-06 0.000691426 -4.56358e-05)
(-1.22018e-06 0.000620196 -4.1504e-05)
(-1.00796e-06 0.000526309 -3.57008e-05)
(-9.69031e-07 0.000322841 -2.23399e-05)
(8.60367e-07 0.000334506 -2.34216e-05)
(7.45839e-07 0.000543971 -3.62304e-05)
(8.41899e-07 0.000640867 -4.16216e-05)
(6.52654e-07 0.000714317 -4.54675e-05)
(2.75453e-07 0.000769986 -4.84372e-05)
(-1.8421e-07 0.000812194 -5.08993e-05)
(-6.55723e-07 0.000844146 -5.30596e-05)
(-1.09842e-06 0.000868298 -5.50337e-05)
(-1.478e-06 0.000886485 -5.68778e-05)
(-1.77198e-06 0.000900129 -5.86127e-05)
(-1.96289e-06 0.000910291 -6.0231e-05)
(-2.04726e-06 0.000917809 -6.17149e-05)
(-2.02263e-06 0.0009233 -6.30346e-05)
(-1.89859e-06 0.000927255 -6.41625e-05)
(-1.68252e-06 0.000930021 -6.50676e-05)
(-1.39416e-06 0.00093187 -6.57275e-05)
(-1.05276e-06 0.000932965 -6.61208e-05)
(-6.8032e-07 0.000933419 -6.62378e-05)
(-2.98911e-07 0.000933252 -6.60722e-05)
(6.59852e-08 0.00093244 -6.56309e-05)
(3.92114e-07 0.000930866 -6.49233e-05)
(6.62534e-07 0.000928363 -6.39712e-05)
(8.56353e-07 0.000924655 -6.27972e-05)
(9.62503e-07 0.000919391 -6.14324e-05)
(9.71757e-07 0.000912076 -5.99045e-05)
(8.82138e-07 0.000902089 -5.82432e-05)
(6.97544e-07 0.000888589 -5.64653e-05)
(4.35459e-07 0.000870511 -5.45781e-05)
(1.11621e-07 0.000846428 -5.25592e-05)
(-2.40842e-07 0.000814502 -5.03514e-05)
(-5.84648e-07 0.000772271 -4.78355e-05)
(-8.52124e-07 0.000716526 -4.47925e-05)
(-9.47126e-07 0.00064294 -4.08264e-05)
(-7.90454e-07 0.000545841 -3.52898e-05)
(-8.62377e-07 0.000335276 -2.24941e-05)
(5.89968e-07 0.000346752 -1.99826e-05)
(3.43338e-07 0.000562304 -2.98145e-05)
(3.3569e-07 0.000661979 -3.39482e-05)
(7.27094e-08 0.000737448 -3.69687e-05)
(-3.20706e-07 0.00079456 -3.93944e-05)
(-7.55716e-07 0.000837755 -4.14821e-05)
(-1.17968e-06 0.000870359 -4.33784e-05)
(-1.5588e-06 0.000894895 -4.5158e-05)
(-1.86615e-06 0.00091328 -4.68574e-05)
(-2.08189e-06 0.000926971 -4.84789e-05)
(-2.19507e-06 0.000937091 -5.00096e-05)
(-2.20143e-06 0.000944493 -5.14222e-05)
(-2.10041e-06 0.000949842 -5.26879e-05)
(-1.90155e-06 0.000953633 -5.37733e-05)
(-1.6188e-06 0.00095625 -5.46502e-05)
(-1.26409e-06 0.000957959 -5.52917e-05)
(-8.61246e-07 0.000958955 -5.56801e-05)
(-4.30272e-07 0.000959336 -5.58017e-05)
(5.31666e-09 0.000959144 -5.56541e-05)
(4.23462e-07 0.000958335 -5.52396e-05)
(8.02172e-07 0.000956806 -5.45722e-05)
(1.12187e-06 0.000954363 -5.36694e-05)
(1.36467e-06 0.000950735 -5.25583e-05)
(1.51535e-06 0.000945536 -5.12667e-05)
(1.57034e-06 0.000938269 -4.9828e-05)
(1.52357e-06 0.000928266 -4.82711e-05)
(1.3782e-06 0.000914672 -4.66227e-05)
(1.14466e-06 0.000896363 -4.48949e-05)
(8.41104e-07 0.000871877 -4.30845e-05)
(4.91613e-07 0.000839297 -4.11542e-05)
(1.30842e-07 0.000796097 -3.90268e-05)
(-1.94092e-07 0.000738948 -3.65459e-05)
(-3.98274e-07 0.000663407 -3.34361e-05)
(-3.67289e-07 0.000563623 -2.91932e-05)
(-5.89821e-07 0.00034716 -1.93493e-05)
(2.47753e-07 0.000356803 -1.48802e-05)
(-1.38281e-07 0.000576403 -2.04202e-05)
(-2.93726e-07 0.000677922 -2.27061e-05)
(-6.67117e-07 0.000754729 -2.45033e-05)
(-1.09747e-06 0.000812773 -2.61124e-05)
(-1.52197e-06 0.000856594 -2.76332e-05)
(-1.90485e-06 0.000889576 -2.91183e-05)
(-2.22297e-06 0.000914312 -3.05912e-05)
(-2.45614e-06 0.000932754 -3.20524e-05)
(-2.58984e-06 0.000946406 -3.34854e-05)
(-2.6179e-06 0.000956415 -3.48621e-05)
(-2.53783e-06 0.000963671 -3.615e-05)
(-2.35305e-06 0.000968849 -3.73132e-05)
(-2.07295e-06 0.000972475 -3.83185e-05)
(-1.70879e-06 0.000974936 -3.91343e-05)
(-1.27781e-06 0.000976522 -3.97355e-05)
(-8.00396e-07 0.000977423 -4.01019e-05)
(-2.96969e-07 0.000977755 -4.0222e-05)
(2.10093e-07 0.00097755 -4.00913e-05)
(6.98703e-07 0.000976775 -3.97142e-05)
(1.14557e-06 0.00097531 -3.91023e-05)
(1.53281e-06 0.000972966 -3.82752e-05)
(1.84532e-06 0.00096945 -3.72583e-05)
(2.06617e-06 0.000964374 -3.60828e-05)
(2.18766e-06 0.00095721 -3.4782e-05)
(2.20478e-06 0.000947282 -3.33913e-05)
(2.11854e-06 0.000933697 -3.19428e-05)
(1.93646e-06 0.00091531 -3.0464e-05)
(1.669e-06 0.000890614 -2.89708e-05)
(1.33895e-06 0.000857654 -2.74615e-05)
(9.64687e-07 0.000813839 -2.59108e-05)
(5.82047e-07 0.000755783 -2.42587e-05)
(2.5015e-07 0.000678946 -2.23912e-05)
(1.21387e-07 0.000577376 -2.00169e-05)
(-2.4885e-07 0.000356982 -1.44503e-05)
(-8.6972e-08 0.000363899 -9.57097e-06)
(-5.88802e-07 0.000585318 -1.05702e-05)
(-8.97912e-07 0.000687667 -1.08884e-05)
(-1.38163e-06 0.000765048 -1.1373e-05)
(-1.85199e-06 0.000823466 -1.20994e-05)
(-2.27163e-06 0.000867491 -1.29996e-05)
(-2.62183e-06 0.000900551 -1.40292e-05)
(-2.88574e-06 0.000925257 -1.51554e-05)
(-3.05429e-06 0.000943596 -1.63437e-05)
(-3.11515e-06 0.000957088 -1.75554e-05)
(-3.06624e-06 0.000966908 -1.87494e-05)
(-2.90786e-06 0.000973954 -1.98854e-05)