/*--------------------------------*- C++ -*----------------------------------*\
| =========                 |                                                 |
| \\      /  F ield         | OpenFOAM: The Open Source CFD Toolbox           |
|  \\    /   O peration     | Version:  v1912                                 |
|   \\  /    A nd           | Website:  www.openfoam.com                      |
|    \\/     M anipulation  |                                                 |
\*---------------------------------------------------------------------------*/
FoamFile
{
    version     2.0;
    format      ascii;
    class       surfaceScalarField;
    location    "10/oil";
    object      phi;
}
// * * * * * * * * * * * * * * * * * * * * * * * * * * * * * * * * * * * * * //

dimensions      [1 0 -1 0 0 0 0];
oriented        oriented;


internalField   nonuniform List<scalar> 
80688
(
-2.44273e-06
-3.10289e-06
-2.44118e-06
-1.40681e-06
-9.10391e-07
-1.25523e-07
1.18412e-06
-1.55594e-06
-1.03499e-06
3.89207e-07
1.46707e-07
6.48208e-07
7.72304e-07
-4.47082e-07
6.39847e-08
7.177e-07
-2.29975e-07
2.84579e-07
8.1692e-07
-3.08633e-07
2.09413e-07
8.09102e-07
-2.55853e-07
2.63671e-07
7.93899e-07
-2.53093e-07
2.68296e-07
7.23989e-07
-2.25949e-07
2.95859e-07
6.23802e-07
-2.11573e-07
3.1176e-07
4.86964e-07
-1.9302e-07
3.29858e-07
3.24068e-07
-1.80687e-07
3.43582e-07
1.44092e-07
-1.71559e-07
3.51534e-07
-4.892e-08
-1.65658e-07
3.5867e-07
-2.35646e-07
-1.67962e-07
3.54688e-07
-4.19562e-07
-1.69863e-07
3.53779e-07
-5.74993e-07
-1.83121e-07
3.38552e-07
-7.13163e-07
-1.92089e-07
3.30259e-07
-8.07383e-07
-2.12992e-07
3.07213e-07
-8.74758e-07
-2.26574e-07
2.93949e-07
-8.92323e-07
-2.50362e-07
2.67926e-07
-8.79776e-07
-2.65398e-07
2.52851e-07
-8.20755e-07
-2.87596e-07
2.28575e-07
-7.34509e-07
-3.01058e-07
2.14812e-07
-6.11991e-07
-3.18566e-07
1.96048e-07
-4.70057e-07
-3.27967e-07
1.86033e-07
-3.06923e-07
-3.38805e-07
1.75671e-07
-1.39486e-07
-3.34852e-07
1.67414e-07
-2.72485e-07
1.32999e-07
-2.04189e-07
-2.69628e-06
-2.02426e-07
7.80336e-07
-4.38357e-07
-1.45656e-06
-5.07668e-08
-1.13201e-06
4.07165e-07
6.49998e-07
-7.11418e-07
1.5736e-07
7.43445e-07
-8.12659e-07
2.72129e-07
9.44547e-07
-7.15087e-07
2.84009e-07
1.02113e-06
-6.96212e-07
3.11e-07
1.05766e-06
-6.39816e-07
3.47431e-07
1.03178e-06
-6.02576e-07
3.75364e-07
9.50111e-07
-5.54131e-07
4.09849e-07
8.18583e-07
-5.17551e-07
4.37506e-07
6.40914e-07
-4.79234e-07
4.63884e-07
4.26746e-07
-4.51741e-07
4.85222e-07
1.89355e-07
-4.31818e-07
4.97651e-07
-6.49454e-08
-4.19392e-07
5.08034e-07
-3.12281e-07
-4.23625e-07
5.02998e-07
-5.54059e-07
-4.28586e-07
5.00501e-07
-7.59844e-07
-4.5618e-07
4.78844e-07
-9.40161e-07
-4.76523e-07
4.6475e-07
-1.06443e-06
-5.20225e-07
4.31506e-07
-1.15058e-06
-5.50257e-07
4.09831e-07
-1.17343e-06
-5.99751e-07
3.72239e-07
-1.15461e-06
-6.32407e-07
3.4819e-07
-1.07718e-06
-6.78236e-07
3.13204e-07
-9.62631e-07
-7.07187e-07
2.91582e-07
-8.02801e-07
-7.42959e-07
2.64562e-07
-6.16234e-07
-7.63485e-07
2.48952e-07
-4.03646e-07
-7.85116e-07
2.33724e-07
-1.81648e-07
-7.78329e-07
2.2148e-07
-6.27441e-07
1.73308e-07
-1.12495e-06
-4.48478e-07
-1.12285e-06
-4.43497e-08
-1.88319e-06
3.64237e-07
3.74536e-07
-1.42348e-06
-1.27413e-07
5.97526e-07
-1.27754e-06
3.43131e-07
8.46118e-07
-1.24606e-06
1.84807e-07
9.49144e-07
-1.13169e-06
3.13579e-07
1.0487e-06
-1.09297e-06
2.97198e-07
1.06273e-06
-1.00593e-06
3.52084e-07
1.04028e-06
-9.51331e-07
3.71203e-07
9.52118e-07
-8.7501e-07
4.09042e-07
8.21083e-07
-8.20231e-07
4.33714e-07
6.40823e-07
-7.59948e-07
4.60974e-07
4.26569e-07
-7.18383e-07
4.80895e-07
1.87928e-07
-6.86732e-07
4.93555e-07
-6.68272e-08
-6.68213e-07
5.03576e-07
-3.14583e-07
-6.74065e-07
4.98196e-07
-5.57112e-07
-6.82436e-07
4.96379e-07
-7.62687e-07
-7.24536e-07
4.73932e-07
-9.4383e-07
-7.56728e-07
4.61348e-07
-1.06757e-06
-8.23762e-07
4.27282e-07
-1.15444e-06
-8.70952e-07
4.07563e-07
-1.17667e-06
-9.46882e-07
3.69362e-07
-1.15818e-06
-9.98073e-07
3.47177e-07
-1.08002e-06
-1.06828e-06
3.11887e-07
-9.65304e-07
-1.11365e-06
2.91748e-07
-8.04679e-07
-1.16824e-06
2.64653e-07
-6.17582e-07
-1.20065e-06
2.50073e-07
-4.04561e-07
-1.233e-06
2.34867e-07
-1.81707e-07
-1.22413e-06
2.22945e-07
-9.82143e-07
1.72995e-07
6.10891e-07
-1.67229e-06
6.1292e-07
4.39596e-07
-1.86277e-06
1.50877e-07
5.67465e-07
-1.90989e-06
3.5854e-07
7.94725e-07
-1.76314e-06
2.58338e-07
9.50241e-07
-1.72394e-06
3.22361e-07
1.1027e-06
-1.62409e-06
3.39938e-07
1.18659e-06
-1.5576e-06
3.80735e-07
1.21898e-06
-1.46184e-06
4.23529e-07
1.18974e-06
-1.38606e-06
4.63963e-07
1.09661e-06
-1.29183e-06
5.09955e-07
9.48021e-07
-1.22007e-06
5.48432e-07
7.44522e-07
-1.14225e-06
5.85797e-07
4.99303e-07
-1.0885e-06
6.15338e-07
2.25492e-07
-1.0467e-06
6.33775e-07
-6.77154e-08
-1.02294e-06
6.47933e-07
-3.52864e-07
-1.0302e-06
6.41282e-07
-6.31366e-07
-1.04124e-06
6.37304e-07
-8.66502e-07
-1.0961e-06
6.067e-07
-1.07212e-06
-1.13767e-06
5.86553e-07
-1.21096e-06
-1.22469e-06
5.39772e-07
-1.3066e-06
-1.28488e-06
5.09564e-07
-1.3285e-06
-1.38244e-06
4.57455e-07
-1.30425e-06
-1.44703e-06
4.24704e-07
-1.21348e-06
-1.53614e-06
3.77092e-07
-1.08257e-06
-1.59274e-06
3.48171e-07
-9.01609e-07
-1.66113e-06
3.11939e-07
-6.9234e-07
-1.70123e-06
2.91304e-07
-4.55435e-07
-1.74069e-06
2.7078e-07
-2.08287e-07
-1.72677e-06
2.55493e-07
-1.38997e-06
1.9954e-07
3.53382e-08
-1.74519e-06
3.75651e-08
3.27058e-07
-2.39506e-06
2.40565e-07
5.49584e-07
-2.30514e-06
1.72724e-07
7.66235e-07
-2.26448e-06
2.84696e-07
9.51459e-07
-2.17907e-06
2.69913e-07
1.07767e-06
-2.08398e-06
3.33692e-07
1.1669e-06
-1.99909e-06
3.52264e-07
1.18704e-06
-1.88581e-06
4.03821e-07
1.16044e-06
-1.7945e-06
4.35035e-07
1.06443e-06
-1.67825e-06
4.82425e-07
9.21162e-07
-1.5916e-06
5.14797e-07
7.20706e-07
-1.49422e-06
5.52431e-07
4.83458e-07
-1.42918e-06
5.77924e-07
2.16486e-07
-1.37615e-06
5.96431e-07
-6.79783e-08
-1.34767e-06
6.09192e-07
-3.44356e-07
-1.35594e-06
6.02123e-07
-6.15287e-07
-1.37003e-06
5.99723e-07
-8.41891e-07
-1.43784e-06
5.68341e-07
-1.0425e-06
-1.48931e-06
5.52251e-07
-1.17529e-06
-1.59694e-06
5.05038e-07
-1.26922e-06
-1.6711e-06
4.80156e-07
-1.28863e-06
-1.79131e-06
4.28275e-07
-1.26586e-06
-1.87052e-06
4.00715e-07
-1.17626e-06
-1.97959e-06
3.53857e-07
-1.04938e-06
-2.04887e-06
3.29245e-07
-8.72459e-07
-2.13205e-06
2.93998e-07
-6.68903e-07
-2.18121e-06
2.76422e-07
-4.37663e-07
-2.22864e-06
2.56714e-07
-1.97226e-07
-2.2103e-06
2.43093e-07
-1.77549e-06
1.88295e-07
2.90108e-07
-2.32754e-06
2.9224e-07
4.83978e-07
-2.87275e-06
2.83825e-07
7.37105e-07
-2.89341e-06
3.3514e-07
9.58209e-07
-2.82081e-06
3.35228e-07
1.15637e-06
-2.7563e-06
3.79064e-07
1.3082e-06
-2.65791e-06
4.22086e-07
1.40986e-06
-2.5728e-06
4.72055e-07
1.44231e-06
-2.45395e-06
5.35688e-07
1.41374e-06
-2.35793e-06
5.92012e-07
1.30532e-06
-2.23138e-06
6.61547e-07
1.13568e-06
-2.13905e-06
7.17092e-07
8.95555e-07
-2.03005e-06
7.75953e-07
6.07086e-07
-1.96013e-06
8.19424e-07
2.80487e-07
-1.89941e-06
8.49853e-07
-6.88406e-08
-1.86883e-06
8.7049e-07
-4.08506e-07
-1.87733e-06
8.61055e-07
-7.40035e-07
-1.89293e-06
8.5443e-07
-1.01585e-06
-1.96889e-06
8.06863e-07
-1.2568e-06
-2.02457e-06
7.76211e-07
-1.41367e-06
-2.14429e-06
7.04222e-07
-1.52102e-06
-2.22334e-06
6.59592e-07
-1.53856e-06
-2.35504e-06
5.81281e-07
-1.50514e-06
-2.43802e-06
5.34073e-07
-1.39386e-06
-2.55529e-06
4.64432e-07
-1.23978e-06
-2.62666e-06
4.2371e-07
-1.02934e-06
-2.71437e-06
3.71881e-07
-7.89632e-07
-2.76427e-06
3.43359e-07
-5.19556e-07
-2.81281e-06
3.14093e-07
-2.39296e-07
-2.7851e-06
2.94541e-07
-2.24508e-06
2.30292e-07
1.83896e-07
-2.69775e-06
1.86318e-07
4.43248e-07
-3.39717e-06
2.6507e-07
6.84038e-07
-3.40507e-06
2.70873e-07
9.07347e-07
-3.35987e-06
3.15744e-07
1.10025e-06
-3.28533e-06
3.36131e-07
1.2411e-06
-3.18992e-06
3.9117e-07
1.33997e-06
-3.09918e-06
4.27506e-07
1.36565e-06
-2.97257e-06
4.92945e-07
1.34051e-06
-2.87083e-06
5.38025e-07
1.23328e-06
-2.73153e-06
6.07372e-07
1.07462e-06
-2.63295e-06
6.52566e-07
8.43718e-07
-2.51059e-06
7.11448e-07
5.7223e-07
-2.43563e-06
7.46986e-07
2.61174e-07
-2.36604e-06
7.77692e-07
-6.92786e-08
-2.33352e-06
7.95142e-07
-3.90275e-07
-2.34189e-06
7.85552e-07
-7.05383e-07
-2.35937e-06
7.81545e-07
-9.63834e-07
-2.44389e-06
7.33456e-07
-1.19388e-06
-2.50469e-06
7.10169e-07
-1.33888e-06
-2.63751e-06
6.38211e-07
-1.44228e-06
-2.72309e-06
6.03154e-07
-1.45562e-06
-2.86759e-06
5.25881e-07
-1.42509e-06
-2.95667e-06
4.88121e-07
-1.31709e-06
-3.08365e-06
4.20356e-07
-1.17145e-06
-3.1597e-06
3.87396e-07
-9.70053e-07
-3.25345e-06
3.37682e-07
-7.4244e-07
-3.3064e-06
3.1451e-07
-4.84738e-07
-3.3574e-06
2.86881e-07
-2.18572e-07
-3.32168e-06
2.70415e-07
-2.67296e-06
2.09308e-07
2.74551e-07
-3.24908e-06
2.76779e-07
5.67372e-07
-4.02911e-06
3.39117e-07
8.65797e-07
-4.07491e-06
3.71412e-07
1.12711e-06
-4.0269e-06
4.05712e-07
1.36297e-06
-3.97357e-06
4.52377e-07
1.53865e-06
-3.88703e-06
5.21438e-07
1.66588e-06
-3.81326e-06
5.86846e-07
1.70778e-06
-3.69669e-06
6.82224e-07
1.68563e-06
-3.60968e-06
7.61002e-07
1.56256e-06
-3.47648e-06
8.68027e-07
1.37085e-06
-3.38956e-06
9.48309e-07
1.08613e-06
-3.26842e-06
1.04256e-06
7.44948e-07
-3.20116e-06
1.10671e-06
3.5096e-07
-3.12986e-06
1.15781e-06
-6.98687e-08
-3.10074e-06
1.18805e-06
-4.79206e-07
-3.10743e-06
1.17488e-06
-8.7845e-07
-3.12388e-06
1.16376e-06
-1.20434e-06
-3.20711e-06
1.0891e-06
-1.48875e-06
-3.26238e-06
1.0421e-06
-1.66483e-06
-3.39176e-06
9.30326e-07
-1.7843e-06
-3.4677e-06
8.64075e-07
-1.7928e-06
-3.60477e-06
7.45678e-07
-1.74572e-06
-3.68139e-06
6.77641e-07
-1.60689e-06
-3.79783e-06
5.7535e-07
-1.42365e-06
-3.86116e-06
5.18232e-07
-1.17703e-06
-3.94413e-06
4.44062e-07
-9.01266e-07
-3.98693e-06
4.04769e-07
-5.92543e-07
-4.02931e-06
3.63192e-07
-2.74214e-07
-3.97829e-06
3.38276e-07
-3.2121e-06
2.64933e-07
2.27684e-07
-3.70699e-06
2.30225e-07
5.08889e-07
-4.6096e-06
2.99287e-07
7.80202e-07
-4.66568e-06
3.19455e-07
1.02442e-06
-4.6313e-06
3.60186e-07
1.24151e-06
-4.58443e-06
3.93773e-07
1.40129e-06
-4.50917e-06
4.62359e-07
1.52003e-06
-4.44483e-06
5.12831e-07
1.5549e-06
-4.33685e-06
6.05289e-07
1.53815e-06
-4.25966e-06
6.66731e-07
1.42114e-06
-4.13103e-06
7.71554e-07
1.25009e-06
-4.05222e-06
8.33716e-07
9.85364e-07
-3.93139e-06
9.277e-07
6.76709e-07
-3.86937e-06
9.7686e-07
3.13763e-07
-3.79591e-06
1.029e-06
-7.0297e-08
-3.76922e-06
1.05255e-06
-4.43552e-07
-3.77428e-06
1.04011e-06
-8.1059e-07
-3.79018e-06
1.03334e-06
-1.10407e-06
-3.87245e-06
9.58833e-07
-1.36695e-06
-3.92441e-06
9.24907e-07
-1.52193e-06
-4.05117e-06
8.14406e-07
-1.63348e-06
-4.12093e-06
7.64779e-07
-1.63582e-06
-4.25198e-06
6.49552e-07
-1.59411e-06
-4.32072e-06
5.97633e-07
-1.46324e-06
-4.42862e-06
4.99919e-07
-1.29626e-06
-4.48389e-06
4.55745e-07
-1.0681e-06
-4.55829e-06
3.86007e-07
-8.15672e-07
-4.59494e-06
3.55572e-07
-5.31381e-07
-4.63078e-06
3.17177e-07
-2.4004e-07
-4.56684e-06
2.97209e-07
-3.68256e-06
2.30413e-07
2.98073e-07
-4.30541e-06
3.00349e-07
6.35226e-07
-5.32597e-06
3.7921e-07
9.67037e-07
-5.41047e-06
4.12982e-07
1.26359e-06
-5.39383e-06
4.65969e-07
1.53339e-06
-5.3769e-06
5.22669e-07
1.73679e-06
-5.33173e-06
6.19173e-07
1.89312e-06
-5.30454e-06
7.03375e-07
1.95007e-06
-5.23229e-06
8.38493e-07
1.94156e-06
-5.1947e-06
9.43546e-07
1.80945e-06
-5.09967e-06
1.10075e-06
1.60289e-06
-5.05677e-06
1.2111e-06
1.27619e-06
-4.95997e-06
1.35528e-06
8.8562e-07
-4.92384e-06
1.44504e-06
4.23112e-07
-4.86083e-06
1.52742e-06
-6.98713e-08
-4.84531e-06
1.56907e-06
-5.49843e-07
-4.84651e-06
1.5522e-06
-1.01793e-06
-4.85687e-06
1.53477e-06
-1.39129e-06
-4.92176e-06
1.42266e-06
-1.717e-06
-4.953e-06
1.3543e-06
-1.90617e-06
-5.05048e-06
1.18849e-06
-2.03346e-06
-5.0889e-06
1.09526e-06
-2.02688e-06
-5.18298e-06
9.24419e-07
-1.96305e-06
-5.21625e-06
8.31693e-07
-1.7943e-06
-5.28613e-06
6.88761e-07
-1.58252e-06
-5.30865e-06
6.12986e-07
-1.30197e-06
-5.35099e-06
5.12147e-07
-9.94834e-07
-5.36312e-06
4.61044e-07
-6.53398e-07
-5.37732e-06
4.05101e-07
-3.03797e-07
-5.29113e-06
3.74693e-07
-4.28067e-06
2.94317e-07
2.44506e-07
-4.79697e-06
2.47053e-07
5.3937e-07
-5.93758e-06
3.16747e-07
8.27734e-07
-6.04041e-06
3.41579e-07
1.08635e-06
-6.04338e-06
3.90932e-07
1.32267e-06
-6.04609e-06
4.32875e-07
1.49824e-06
-6.02933e-06
5.22026e-07
1.63806e-06
-6.02939e-06
5.85029e-07
1.6846e-06
-5.99052e-06
7.11686e-07
1.68337e-06
-5.98317e-06
7.89696e-07
1.56372e-06
-5.92034e-06
9.40331e-07
1.39108e-06
-5.9051e-06
1.02097e-06
1.10095e-06
-5.83264e-06
1.1628e-06
7.66113e-07
-5.8164e-06
1.2274e-06
3.58971e-07
-5.76494e-06
1.31125e-06
-6.99187e-08
-5.7577e-06
1.34129e-06
-4.87236e-07
-5.75577e-06
1.32658e-06
-8.98656e-07
-5.76137e-06
1.31593e-06
-1.21702e-06
-5.80926e-06
1.20586e-06
-1.50469e-06
-5.82412e-06
1.15878e-06
-1.66e-06
-5.89304e-06
9.97871e-07
-1.77318e-06
-5.90714e-06
9.31414e-07
-1.75888e-06
-5.96619e-06
7.68911e-07
-1.70453e-06
-5.97215e-06
7.01555e-07
-1.5518e-06
-6.00742e-06
5.68563e-07
-1.36816e-06
-6.0051e-06
5.12799e-07
-1.12088e-06
-6.01917e-06
4.20904e-07
-8.539e-07
-6.01337e-06
3.83281e-07
-5.5516e-07
-6.00937e-06
3.33315e-07
-2.51706e-07
-5.90507e-06
3.10482e-07
-4.77416e-06
2.41779e-07
3.08889e-07
-5.41699e-06
3.11125e-07
6.58041e-07
-6.67937e-06
3.92642e-07
1.00135e-06
-6.81305e-06
4.29339e-07
1.3117e-06
-6.84965e-06
4.95924e-07
1.59955e-06
-6.89527e-06
5.61323e-07
1.81984e-06
-6.93223e-06
6.82616e-07
1.99905e-06
-6.99065e-06
7.82049e-07
2.07101e-06
-7.01912e-06
9.56643e-07
2.08194e-06
-7.07797e-06
1.08387e-06
1.95123e-06
-7.08436e-06
1.29472e-06
1.74687e-06
-7.1324e-06
1.43166e-06
1.3969e-06
-7.11619e-06
1.63353e-06
9.80711e-07
-7.14714e-06
1.74693e-06
4.7241e-07
-7.12522e-06
1.86859e-06
-6.75061e-08
-7.13777e-06
1.91999e-06
-5.94094e-07
-7.13052e-06
1.90134e-06
-1.10829e-06
-7.1243e-06
1.87713e-06
-1.50705e-06
-7.13311e-06
1.72261e-06
-1.85616e-06
-7.10808e-06
1.63307e-06
-2.04287e-06
-7.11363e-06
1.4073e-06
-2.16847e-06
-7.07047e-06
1.28892e-06
-2.14213e-06
-7.05573e-06
1.0632e-06
-2.06297e-06
-7.00036e-06
9.49049e-07
-1.87117e-06
-6.96536e-06
7.66137e-07
-1.6427e-06
-6.90868e-06
6.75111e-07
-1.34443e-06
-6.86701e-06
5.49565e-07
-1.02521e-06
-6.82176e-06
4.89163e-07
-6.72895e-07
-6.7822e-06
4.20519e-07
-3.14809e-07
-6.64958e-06
3.86429e-07
-5.39427e-06
3.05306e-07
2.35161e-07
-5.88976e-06
2.37615e-07
5.15144e-07
-7.26124e-06
3.01884e-07
7.91925e-07
-7.4173e-06
3.27468e-07
1.04098e-06
-7.48347e-06
3.84766e-07
1.27568e-06
-7.56044e-06
4.30474e-07
1.45182e-06
-7.64492e-06
5.36545e-07
1.6029e-06
-7.74783e-06
6.06099e-07
1.65858e-06
-7.83721e-06
7.62412e-07
1.6773e-06
-7.94753e-06
8.50834e-07
1.56706e-06
-8.01903e-06
1.04491e-06
1.41228e-06
-8.11647e-06
1.13886e-06
1.12173e-06
-8.15591e-06
1.33026e-06
7.91293e-07
-8.22337e-06
1.40667e-06
3.72102e-07
-8.23239e-06
1.52636e-06
-6.70016e-08
-8.2598e-06
1.56113e-06
-4.94851e-07
-8.2488e-06
1.54613e-06
-9.18647e-07
-8.23207e-06
1.53157e-06
-1.23309e-06
-8.2033e-06
1.38463e-06
-1.52121e-06
-8.14605e-06
1.32609e-06
-1.65891e-06
-8.09073e-06
1.11481e-06
-1.76252e-06
-8.00212e-06
1.03526e-06
-1.72843e-06
-7.91896e-06
8.29138e-07
-1.6645e-06
-7.81536e-06
7.51081e-07
-1.50076e-06
-7.71755e-06
5.88445e-07
-1.31619e-06
-7.61905e-06
5.25807e-07
-1.07104e-06
-7.52908e-06
4.16917e-07
-8.1407e-07
-7.45418e-06
3.75456e-07
-5.28155e-07
-7.38526e-06
3.17141e-07
-2.408e-07
-7.23067e-06
2.93734e-07
-5.86582e-06
2.30746e-07
2.86805e-07
-6.46542e-06
2.88856e-07
6.05612e-07
-7.94156e-06
3.6151e-07
9.21098e-07
-8.12975e-06
3.96956e-07
1.20801e-06
-8.2398e-06
4.69416e-07
1.48105e-06
-8.36893e-06
5.35459e-07
1.69189e-06
-8.52461e-06
6.68847e-07
1.87437e-06
-8.70088e-06
7.70572e-07
1.95183e-06
-8.88261e-06
9.67942e-07
1.98268e-06
-9.07868e-06
1.1003e-06
1.8672e-06
-9.25052e-06
1.34696e-06
1.69038e-06
-9.43159e-06
1.49194e-06
1.35575e-06
-9.55864e-06
1.73736e-06
9.62563e-07
-9.68933e-06
1.85915e-06
4.64371e-07
-9.74865e-06
2.01445e-06
-6.19801e-08
-9.80184e-06
2.06839e-06
-5.7645e-07
-9.78595e-06
2.05162e-06
-1.08095e-06
-9.75154e-06
2.02397e-06
-1.45853e-06
-9.66352e-06
1.83779e-06
-1.79331e-06
-9.55046e-06
1.7392e-06
-1.95412e-06
-9.40049e-06
1.47057e-06
-2.0649e-06
-9.23434e-06
1.34301e-06
-2.01968e-06
-9.04587e-06
1.08169e-06
-1.93499e-06
-8.86139e-06
9.61332e-07
-1.74047e-06
-8.6679e-06
7.55826e-07
-1.52159e-06
-8.49951e-06
6.61585e-07
-1.23855e-06
-8.33634e-06
5.24219e-07
-9.43296e-07
-8.21175e-06
4.62309e-07
-6.19068e-07
-8.09762e-06
3.88131e-07
-2.92434e-07
-7.91213e-06
3.54828e-07
-6.44141e-06
2.83159e-07
1.89898e-07
-6.84737e-06
1.9205e-07
4.11804e-07
-8.40368e-06
2.40221e-07
6.34885e-07
-8.61447e-06
2.61639e-07
8.35449e-07
-8.75908e-06
3.18711e-07
1.03285e-06
-8.92575e-06
3.59415e-07
1.18101e-06
-9.13953e-06
4.66764e-07
1.32043e-06
-9.37018e-06
5.29874e-07
1.37428e-06
-9.6298e-06
6.93342e-07
1.41094e-06
-9.8909e-06
7.75561e-07
1.32464e-06
-1.01507e-05
9.86464e-07
1.21271e-06
-1.03962e-05
1.07654e-06
9.64377e-07
-1.06031e-05
1.29277e-06
6.89869e-07
-1.07826e-05
1.36781e-06
3.21625e-07
-1.08893e-05
1.50891e-06
-6.11942e-08
-1.09621e-05
1.54311e-06
-4.34351e-07
-1.0943e-05
1.53023e-06
-8.07604e-07
-1.08933e-05
1.51505e-06
-1.06842e-06
-1.07519e-05
1.34925e-06
-1.31535e-06
-1.05939e-05
1.29042e-06
-1.412e-06
-1.03596e-05
1.05579e-06
-1.49188e-06
-1.01327e-05
9.78231e-07
-1.44118e-06
-9.85289e-06
7.56317e-07
-1.37913e-06
-9.60605e-06
6.82616e-07
-1.2276e-06
-9.33306e-06
5.13621e-07
-1.07109e-06
-9.11212e-06
4.56108e-07
-8.6375e-07
-8.89013e-06
3.46452e-07
-6.5542e-07
-8.72913e-06
3.09054e-07
-4.24099e-07
-8.58017e-06
2.51229e-07
-1.94957e-07
-8.37291e-06
2.31632e-07
-6.82143e-06
1.85062e-07
2.19943e-07
-7.28918e-06
2.21865e-07
4.55749e-07
-8.912e-06
2.72507e-07
6.917e-07
-9.15057e-06
3.0015e-07
9.05964e-07
-9.33891e-06
3.65573e-07
1.11782e-06
-9.55659e-06
4.18991e-07
1.2801e-06
-9.84244e-06
5.40622e-07
1.4327e-06
-1.01456e-05
6.22815e-07
1.49687e-06
-1.0501e-05
8.0701e-07
1.53942e-06
-1.0848e-05
9.14551e-07
1.4528e-06
-1.12151e-05
1.15107e-06
1.33255e-06
-1.15458e-05
1.26983e-06
1.06737e-06
-1.18498e-05
1.51189e-06
7.66418e-07
-1.20945e-05
1.61279e-06
3.65559e-07
-1.22596e-05
1.77115e-06
-5.41427e-08
-1.23589e-05
1.81651e-06
-4.64893e-07
-1.23366e-05
1.80434e-06
-8.72165e-07
-1.22675e-05
1.78141e-06
-1.16125e-06
-1.20613e-05
1.59841e-06
-1.42778e-06
-1.18443e-05
1.51684e-06
-1.53506e-06
-1.15075e-05
1.25516e-06
-1.61789e-06
-1.12001e-05
1.15024e-06
-1.56286e-06
-1.0809e-05
9.01055e-07
-1.49157e-06
-1.04798e-05
8.02458e-07
-1.32799e-06
-1.0108e-05
6.11357e-07
-1.15754e-06
-9.81701e-06
5.34446e-07
-9.36064e-07
-9.52118e-06
4.09563e-07
-7.135e-07
-9.31073e-06
3.59033e-07
-4.68867e-07
-9.11711e-06
2.92306e-07
-2.25576e-07
-8.88242e-06
2.66224e-07
-7.26383e-06
2.16832e-07
1.02451e-07
-7.49605e-06
1.0442e-07
2.17449e-07
-9.15212e-06
1.25129e-07
3.37522e-07
-9.40677e-06
1.36133e-07
4.43137e-07
-9.62436e-06
1.79826e-07
5.5849e-07
-9.87485e-06
2.029e-07
6.40864e-07
-1.02114e-05
2.86548e-07
7.35347e-07
-1.05628e-05
3.22725e-07
7.68359e-07
-1.09886e-05
4.54633e-07
8.12641e-07
-1.13956e-05
5.03353e-07
7.62883e-07
-1.18456e-05
6.80273e-07
7.19767e-07
-1.22392e-05
7.36542e-07
5.66706e-07
-1.2622e-05
9.25248e-07
4.13901e-07
-1.29173e-05
9.75628e-07
1.82198e-07
-1.31319e-05
1.10403e-06
-5.3625e-08
-1.32526e-05
1.12947e-06
-2.82412e-07
-1.32282e-05
1.12032e-06
-5.19084e-07
-1.31418e-05
1.11103e-06
-6.61827e-07
-1.28823e-05
9.63769e-07
-8.14474e-07
-1.26173e-05
9.25686e-07
-8.45581e-07
-1.21991e-05
7.22689e-07
-8.89702e-07
-1.18306e-05
6.74592e-07
-8.33357e-07
-1.13546e-05
4.8927e-07
-7.92256e-07
-1.09666e-05
4.45717e-07
-6.86868e-07
-1.05233e-05
3.09961e-07
-5.9595e-07
-1.01849e-05
2.76929e-07
-4.71297e-07
-9.83784e-06
1.92007e-07
-3.57712e-07
-9.59511e-06
1.70797e-07
-2.29532e-07
-9.37214e-06
1.26855e-07
-1.07473e-07
-9.12152e-06
1.17035e-07
-7.46945e-06
9.81451e-08
1.0729e-07
-7.71238e-06
1.09042e-07
2.08014e-07
-9.37931e-06
1.26461e-07
3.13022e-07
-9.65077e-06
1.38989e-07
4.05087e-07
-9.89884e-06
1.82425e-07
5.07307e-07
-1.01853e-05
2.08281e-07
5.79413e-07
-1.05726e-05
2.89174e-07
6.64278e-07
-1.0975e-05
3.2735e-07
6.9207e-07
-1.14688e-05
4.52418e-07
7.32126e-07
-1.19363e-05
5.0058e-07
6.84999e-07
-1.24638e-05
6.65266e-07
6.46345e-07
-1.29181e-05
7.17576e-07
5.07201e-07
-1.33729e-05
8.90104e-07
3.7068e-07
-1.37163e-05
9.35472e-07
1.63498e-07
-1.39759e-05
1.05118e-06
-4.61403e-08
-1.41169e-05
1.07395e-06
-2.50652e-07
-1.40916e-05
1.06792e-06
-4.62933e-07
-1.39894e-05
1.05981e-06
-5.925e-07
-1.36829e-05
9.30154e-07
-7.33058e-07
-1.33729e-05
8.96153e-07
-7.62648e-07
-1.28809e-05
7.11424e-07
-8.06133e-07
-1.24532e-05
6.66134e-07
-7.55986e-07
-1.18983e-05
4.93546e-07
-7.21465e-07
-1.14506e-05
4.49482e-07
-6.26611e-07
-1.09383e-05
3.20121e-07
-5.46573e-07
-1.0549e-05
2.84138e-07
-4.35086e-07
-1.01508e-05
2.01454e-07
-3.3479e-07
-9.87216e-06
1.76752e-07
-2.21505e-07
-9.61813e-06
1.32707e-07
-1.12892e-07
-9.35109e-06
1.20958e-07
-7.68735e-06
1.05009e-07
-2.23197e-08
-7.66958e-06
-2.04858e-08
-5.59482e-08
-9.31071e-06
-3.49678e-08
-8.10829e-08
-9.58511e-06
-4.05204e-08
-1.10683e-07
-9.84581e-06
-2.34309e-08
-1.18634e-07
-1.01464e-05
-3.09471e-08
-1.37137e-07
-1.05561e-05
1.96017e-09
-1.2179e-07
-1.09798e-05
-1.05776e-08
-1.31207e-07
-1.15066e-05
4.7151e-08
-9.57196e-08
-1.20004e-05
2.86017e-08
-1.02904e-07
-1.25686e-05
1.11971e-07
-6.05327e-08
-1.3051e-05
9.04661e-08
-7.15411e-08
-1.35463e-05
1.84396e-07
-4.18152e-08
-1.3913e-05
1.66989e-07
-5.17532e-08
-1.4199e-05
2.33039e-07
-4.61654e-08
-1.43503e-05
2.27826e-07
-3.78789e-08
-1.43245e-05
2.24656e-07
-4.99749e-08
-1.42145e-05
2.37237e-07
-1.65871e-08
-1.38797e-05
1.63419e-07
-2.42677e-08
-1.355e-05
1.84797e-07
2.43573e-08
-1.3014e-05
8.44666e-08
2.41154e-08
-1.25602e-05
1.07199e-07
6.85054e-08
-1.19632e-05
2.05756e-08
6.72253e-08
-1.14891e-05
3.97736e-08
9.1949e-08
-1.0944e-05
-1.9006e-08
8.17584e-08
-1.0533e-05
-5.81927e-09
8.24786e-08
-1.01124e-05
-3.91364e-08
6.0989e-08
-9.81924e-06
-3.14284e-08
4.38824e-08
-9.55296e-06
-4.80621e-08
1.73406e-08
-9.28245e-06
-4.20952e-08
-7.64438e-06
-2.56283e-08
-3.87605e-08
-7.59396e-06
-3.68543e-08
-1.07817e-07
-9.18308e-06
-5.85744e-08
-1.69145e-07
-9.45771e-06
-6.60777e-08
-2.33059e-07
-9.72582e-06
-5.60757e-08
-2.74344e-07
-1.00369e-05
-6.82878e-08
-3.21722e-07
-1.04584e-05
-5.02945e-08
-3.32645e-07
-1.08945e-05
-7.43855e-08
-3.58851e-07
-1.14354e-05
-4.50054e-08
-3.35022e-07
-1.19413e-05
-8.28957e-08
-3.36956e-07
-1.25248e-05
-4.18691e-08
-2.80452e-07
-1.30172e-05
-9.02649e-08
-2.54204e-07
-1.35261e-05
-4.64644e-08
-1.7625e-07
-1.38992e-05
-9.17609e-08
-1.1895e-07
-1.41944e-05
-6.18878e-08
-3.9837e-08
-1.43476e-05
-8.17926e-08
3.9548e-08
-1.43241e-05
-7.97651e-08
9.55643e-08
-1.42108e-05
-5.97118e-08
1.75534e-07
-1.38712e-05
-8.85184e-08
2.02325e-07
-1.35326e-05
-4.42326e-08
2.63922e-07
-1.29865e-05
-8.90678e-08
2.66322e-07
-1.25202e-05
-4.24073e-08
2.97464e-07
-1.191e-05
-8.43564e-08
2.78325e-07
-1.14219e-05
-4.80638e-08
2.75678e-07
-1.08635e-05
-7.78366e-08
2.3637e-07
-1.04388e-05
-5.48805e-08
2.03568e-07
-1.00069e-05
-7.26926e-08
1.47863e-07
-9.70244e-06
-6.10922e-08
9.44887e-08
-9.42878e-06
-7.0813e-08
3.31596e-08
-9.15782e-06
-6.32991e-08
-7.57133e-06
-3.9895e-08
-1.66905e-07
-7.26221e-06
-1.64849e-07
-3.6873e-07
-8.76486e-06
-2.16397e-07
-5.58617e-07
-9.02682e-06
-2.40998e-07
-7.42218e-07
-9.28485e-06
-2.5737e-07
-8.92274e-07
-9.58506e-06
-3.01755e-07
-1.02909e-06
-9.99029e-06
-3.31317e-07
-1.10944e-06
-1.04096e-05
-4.04488e-07
-1.17259e-06
-1.09281e-05
-4.4408e-07
-1.15489e-06
-1.14123e-05
-5.46652e-07
-1.11818e-06
-1.19696e-05
-5.91897e-07
-9.84127e-07
-1.24376e-05
-7.13659e-07
-8.31544e-07
-1.29219e-05
-7.56844e-07
-5.90006e-07
-1.32736e-05
-8.67145e-07
-3.35387e-07
-1.35542e-05
-8.94856e-07
-4.06765e-08
-1.36968e-05
-9.45584e-07
2.52071e-07
-1.36769e-05
-9.39925e-07
5.08699e-07
-1.35686e-05
-8.9879e-07
7.50781e-07
-1.32505e-05
-8.62764e-07
9.0696e-07
-1.29274e-05
-7.6138e-07
1.04533e-06
-1.24118e-05
-7.13076e-07
1.08849e-06
-1.19651e-05
-5.98239e-07
1.1129e-06
-1.13849e-05
-5.49525e-07
1.0579e-06
-1.09153e-05
-4.51605e-07
9.8529e-07
-1.03816e-05
-4.09378e-07
8.56903e-07
-9.97149e-06
-3.38962e-07
7.14618e-07
-9.55715e-06
-3.07427e-07
5.3899e-07
-9.26239e-06
-2.64422e-07
3.56689e-07
-8.99964e-06
-2.46833e-07
1.61977e-07
-8.74061e-06
-2.22499e-07
-7.2405e-06
-1.68848e-07
-1.94123e-07
-6.87622e-06
-1.91864e-07
-4.39531e-07
-8.26839e-06
-2.51059e-07
-6.73489e-07
-8.51395e-06
-2.78913e-07
-8.98033e-07
-8.75605e-06
-3.04259e-07
-1.08798e-06
-9.03952e-06
-3.55592e-07
-1.25723e-06
-9.4173e-06
-4.03742e-07
-1.36766e-06
-9.8088e-06
-4.90408e-07
-1.44726e-06
-1.02874e-05
-5.61131e-07
-1.44069e-06
-1.07334e-05
-6.85507e-07
-1.39371e-06
-1.12415e-05
-7.75067e-07
-1.24023e-06
-1.16657e-05
-9.25332e-07
-1.04201e-06
-1.21018e-05
-1.01828e-06
-7.43983e-07
-1.2415e-05
-1.1566e-06
-4.13277e-07
-1.26661e-05
-1.21883e-06
-3.60422e-08
-1.27903e-05
-1.28374e-06
3.36305e-07
-1.27755e-05
-1.27375e-06
6.71317e-07
-1.26776e-05
-1.22609e-06
9.66955e-07
-1.23983e-05
-1.14785e-06
1.1699e-06
-1.21071e-05
-1.02321e-06
1.32493e-06
-1.16468e-05
-9.20073e-07
1.37796e-06
-1.12386e-05
-7.79551e-07
1.38944e-06
-1.07124e-05
-6.83975e-07
1.31717e-06
-1.02772e-05
-5.65872e-07
1.21348e-06
-9.78629e-06
-4.9158e-07
1.05221e-06
-9.4016e-06
-4.08621e-07
8.69657e-07
-9.01623e-06
-3.58368e-07
6.53191e-07
-8.73701e-06
-3.08917e-07
4.2669e-07
-8.49073e-06
-2.82412e-07
1.88786e-07
-8.2475e-06
-2.55207e-07
-6.85757e-06
-1.94147e-07
-3.06266e-07
-6.26623e-06
-3.03719e-07
-6.66336e-07
-7.52161e-06
-3.86716e-07
-1.01078e-06
-7.74138e-06
-4.28129e-07
-1.33685e-06
-7.95548e-06
-4.74489e-07
-1.61846e-06
-8.207e-06
-5.5092e-07
-1.86089e-06
-8.53862e-06
-6.36247e-07
-2.0269e-06
-8.88266e-06
-7.60135e-07
-2.1325e-06
-9.29813e-06
-8.83663e-07
-2.12691e-06
-9.68416e-06
-1.05484e-06
-2.04179e-06
-1.0119e-05
-1.2076e-06
-1.82064e-06
-1.04791e-05
-1.40779e-06
-1.51381e-06
-1.08465e-05
-1.56213e-06
-1.08079e-06
-1.11064e-05
-1.74161e-06
-5.88636e-07
-1.13155e-05
-1.84275e-06
-3.71941e-08
-1.14154e-05
-1.92627e-06
5.07347e-07
-1.14058e-05
-1.91426e-06
1.00693e-06
-1.13226e-05
-1.85454e-06
1.43675e-06
-1.10949e-05
-1.73321e-06
1.75091e-06
-1.08488e-05
-1.57251e-06
1.97326e-06
-1.0465e-05
-1.4042e-06
2.06655e-06
-1.0115e-05
-1.21688e-06
2.07647e-06
-9.66718e-06
-1.05516e-06
1.97935e-06
-9.28805e-06
-8.92005e-07
1.81936e-06
-8.86343e-06
-7.62869e-07
1.58528e-06
-8.52395e-06
-6.43559e-07
1.31053e-06
-8.18659e-06
-5.54896e-07
9.92118e-07
-7.93772e-06
-4.80878e-07
6.54614e-07
-7.72052e-06
-4.32704e-07
3.01538e-07
-7.50249e-06
-3.91935e-07
-6.24925e-06
-3.06788e-07
-3.33067e-07
-5.60297e-06
-3.302e-07
-7.32069e-07
-6.7038e-06
-4.18809e-07
-1.11534e-06
-6.89582e-06
-4.62291e-07
-1.47605e-06
-7.07992e-06
-5.14847e-07
-1.79021e-06
-7.29738e-06
-5.95468e-07
-2.05691e-06
-7.57903e-06
-6.92884e-07
-2.24401e-06
-7.87184e-06
-8.2372e-07
-2.35753e-06
-8.21885e-06
-9.65762e-07
-2.35512e-06
-8.54036e-06
-1.14621e-06
-2.25523e-06
-8.89612e-06
-1.32276e-06
-2.01366e-06
-9.18792e-06
-1.53274e-06
-1.66797e-06
-9.48174e-06
-1.71045e-06
-1.19128e-06
-9.6858e-06
-1.89728e-06
-6.43595e-07
-9.85055e-06
-2.01262e-06
-3.41703e-08
-9.92596e-06
-2.0989e-06
5.66436e-07
-9.92112e-06
-2.0853e-06
1.12332e-06
-9.85398e-06
-2.02551e-06
1.59475e-06
-9.67934e-06
-1.88696e-06
1.949e-06
-9.48228e-06
-1.72071e-06
2.18984e-06
-9.17898e-06
-1.52681e-06
2.29795e-06
-8.89235e-06
-1.33073e-06
2.30316e-06
-8.52834e-06
-1.14405e-06
2.19797e-06
-8.21068e-06
-9.72187e-07
2.0159e-06
-7.85719e-06
-8.24176e-07
1.75726e-06
-7.56703e-06
-6.98276e-07
1.44938e-06
-7.28119e-06
-5.97526e-07
1.09642e-06
-7.06526e-06
-5.19485e-07
7.20084e-07
-6.87896e-06
-4.65232e-07
3.28077e-07
-6.68789e-06
-4.22594e-07
-5.58913e-06
-3.32039e-07
-4.18356e-07
-4.76938e-06
-4.15228e-07
-9.03651e-07
-5.69848e-06
-5.20022e-07
-1.3688e-06
-5.8582e-06
-5.72473e-07
-1.80353e-06
-6.00697e-06
-6.38224e-07
-2.18273e-06
-6.18406e-06
-7.34112e-07
-2.49861e-06
-6.40961e-06
-8.53536e-07
-2.72092e-06
-6.6443e-06
-1.00524e-06
-2.84598e-06
-6.91802e-06
-1.17576e-06
-2.83707e-06
-7.17038e-06
-1.37888e-06
-2.7027e-06
-7.44481e-06
-1.58568e-06
-2.40791e-06
-7.66745e-06
-1.81527e-06
-1.98325e-06
-7.88852e-06
-2.01788e-06
-1.41358e-06
-8.03896e-06
-2.21651e-06
-7.58176e-07
-8.16099e-06
-2.34497e-06
-3.51922e-08
-8.21377e-06
-2.43517e-06
6.77946e-07
-8.21255e-06
-2.42171e-06
1.34446e-06
-8.16101e-06
-2.35949e-06
1.90859e-06
-8.03596e-06
-2.20751e-06
2.34379e-06
-7.8868e-06
-2.03069e-06
2.63746e-06
-7.66157e-06
-1.81109e-06
2.78157e-06
-7.44005e-06
-1.59641e-06
2.79317e-06
-7.16147e-06
-1.37846e-06
2.6769e-06
-6.90998e-06
-1.18443e-06
2.45949e-06
-6.63273e-06
-1.00705e-06
2.1518e-06
-6.39881e-06
-8.60521e-07
1.77839e-06
-6.17064e-06
-7.3714e-07
1.3513e-06
-5.99424e-06
-6.43926e-07
8.92402e-07
-5.84393e-06
-5.76134e-07
4.13945e-07
-5.68489e-06
-5.24542e-07
-4.75753e-06
-4.17656e-07
-4.37684e-07
-3.89746e-06
-4.34241e-07
-9.50331e-07
-4.64416e-06
-5.41668e-07
-1.44199e-06
-4.77203e-06
-5.94515e-07
-1.89904e-06
-4.88717e-06
-6.62753e-07
-2.29812e-06
-5.026e-06
-7.58968e-07
-2.6265e-06
-5.19898e-06
-8.82255e-07
-2.85802e-06
-5.37949e-06
-1.03329e-06
-2.9824e-06
-5.5854e-06
-1.20825e-06
-2.9698e-06
-5.77475e-06
-1.40823e-06
-2.82049e-06
-5.97604e-06
-1.61808e-06
-2.50976e-06
-6.13747e-06
-1.84071e-06
-2.06009e-06
-6.29503e-06
-2.04316e-06
-1.46662e-06
-6.39962e-06
-2.23281e-06
-7.83261e-07
-6.48503e-06
-2.35932e-06
-3.33885e-08
-6.51937e-06
-2.44427e-06
7.05931e-07
-6.52057e-06
-2.4313e-06
1.40105e-06
-6.48313e-06
-2.373e-06
1.98802e-06
-6.39916e-06
-2.22376e-06
2.44869e-06
-6.29231e-06
-2.05516e-06
2.75743e-06
-6.13445e-06
-1.83585e-06
2.91655e-06
-5.97171e-06
-1.62746e-06
2.93073e-06
-5.76898e-06
-1.40667e-06
2.81526e-06
-5.57901e-06
-1.2155e-06
2.58782e-06
-5.37138e-06
-1.03391e-06
2.26754e-06
-5.1906e-06
-8.87933e-07
1.87399e-06
-5.0162e-06
-7.609e-07
1.42447e-06
-4.87737e-06
-6.67348e-07
9.39063e-07
-4.76131e-06
-5.9721e-07
4.33135e-07
-4.63371e-06
-5.45252e-07
-3.8885e-06
-4.35897e-07
-4.91933e-07
-2.91734e-06
-4.88185e-07
-1.0597e-06
-3.47173e-06
-6.04661e-07
-1.6031e-06
-3.56661e-06
-6.62019e-07
-2.10559e-06
-3.6481e-06
-7.3658e-07
-2.54344e-06
-3.74821e-06
-8.39938e-07