/*--------------------------------*- C++ -*----------------------------------*\
| =========                 |                                                 |
| \\      /  F ield         | OpenFOAM: The Open Source CFD Toolbox           |
|  \\    /   O peration     | Version:  v1912                                 |
|   \\  /    A nd           | Website:  www.openfoam.com                      |
|    \\/     M anipulation  |                                                 |
\*---------------------------------------------------------------------------*/
FoamFile
{
    version     2.0;
    format      ascii;
    class       volScalarField;
    location    "110/oil";
    object      wallHeatFlux;
}
// * * * * * * * * * * * * * * * * * * * * * * * * * * * * * * * * * * * * * //

dimensions      [1 0 -3 0 0 0 0];


internalField   uniform 0;

boundaryField
{
    maxY
    {
        type            calculated;
        value           uniform 0;
    }
    minX
    {
        type            calculated;
        value           uniform 0;
    }
    maxX
    {
        type            calculated;
        value           uniform 0;
    }
    minY
    {
        type            calculated;
        value           uniform 0;
    }
    minZ
    {
        type            calculated;
        value           uniform 0;
    }
    maxZ
    {
        type            calculated;
        value           uniform 0;
    }
    oil_to_sphere
    {
        type            calculated;
        value           nonuniform List<scalar> 
1536
(
7271.34
7598.65
7097.27
7006.78
6128.11
6304.47
6226.52
4871.46
4689.92
7859.77
6079.52
7932.13
8050.51
7929.07
6964.58
6081.33
4925.86
4718.01
1557.78
8037.36
7857.03
6356.59
6263.35
6122.55
6417.78
6415.12
6415.86
6141.43
7626.84
7537.49
7091.61
5793.88
5362.02
6444.18
6096.87
6063.86
5841.08
6675.07
6341.51
6656.28
6343.08
6063.3
7452.2
7948.76
7565.68
7894.84
6290.14
6296.39
6874.13
6411.24
6332.85
6336.19
6222.4
6302.31
5550.09
5270.07
6282.86
6263.53
4741.06
3433.34
3729.37
3388.4
3664.31
8024.5
8066.48
7921.18
7601.14
7908.33
7263.75
7539.27
6458.5
6294.74
7081.99
6361.09
6099.45
5355.92
5204.85
5079.29
6089.95
4722.58
3378.28
3670.67
3037.97
3003.9
3878.44
3722.76
3097.71
4902.65
4709.06
3421.53
3694.62
1552.21
1558.46
8056.82
8073.7
7952.61
7682.86
7789.03
7927.46
7225.4
7626.55
6435.03
7235.48
7094.68
6333.44
6360.43
6134.38
5105.23
6036.31
5386.03
5186.27
5342.27
3425.09
3744.48
3066.67
3117.93
3058.85
3854.86
3722.59
3911.02
4730.27
3700.47
1561.16
7919.2
7233.44
7540.6
7271.12
7506.8
6325.27
6348.31
6389.78
6322.1
6333.64
6286.78
6375.83
6418.5
6294.84
5274.27
6223.41
6202.27
3435.49
3715.8
4908.48
4736.29
3672.5
4677.91
6892.14
6890.69
6219.2
6471.62
7074.48
6890.37
6278.04
6372.14
6356.74
5856.26
5539.85
5620.04
6910.77
6809.02
6935.37
7484.83
6602.36
6385.57
6072.51
5854.17
6312.54
5964.49
5562.08
5638.19
7433.26
6717.93
7576.37
6621.7
5734.86
5189.04
6917.72
7005.07
7306.29
6850.79
6592.73
6370.12
5860.49
6362.25
5758.27
5624.83
5671.72
7743.09
6820.68
7081.41
7402.84
6940.68
7328.33
7060.58
5740.39
5839.61
5906.96
5950.16
5705.6
5826.69
5937.28
6106.25
4716.78
4606.33
4499.19
4795.45
4937.86
4882.73
5088.01
5059.32
4623.69
4404.41
4280.43
7734.91
8206.18
8071.46
7789.25
7766.64
7819.7
7767.15
7703.33
7964.34
7572.5
7733.86
7757.56
6944.83
6948.4
7579.6
7218.48
6506.39
5889.82
5781.13
6299.96
5779.61
4646.92
4758.3
4536.44
4813.06
4914.08
4556.77
4381.82
2842.67
2591.14
7970.23
7773.09
7885.45
7743.29
7912.9
8235.49
7940.5
7732.1
6809.37
6401.47
6818.25
6899.65
5800.31
6108.73
4657.06
4429.3
4967.53
5239.97
5083.2
4315.81
2569.38
2803.78
2082.78
2086.5
2814
7854.19
7709.27
7672.82
7573.93
7734.31
7783.95
7654.32
7878.68
8321.07
8020.49
7714.06
7333.2
6906.29
6934.56
7167.7
7639.68
7242.08
6914.86
6903.39
5858.92
5901.33
6103.89
6156.05
5942.2
6094.24
4533.41
4417.27
4593.83
4848.63
4754.6
4917.14
4920.12
4909.55
4508.76
4350.59
4817.95
4611.29
6469.2
6218.16
6292.81
5850.8
5733.9
5632.64
5494.94
7452.25
7197.73
7565.64
7379.13
7187.25
7448.76
7496.93
7623.69
7833.71
7505.07
7564.72
7461.14
8178.49
7859.08
7746.24
7557.7
7817.16
8001.13
7775.94
7319.96
7381.3
7555.84
7176.92
7525.63
7631.54
7814.59
7773.45
7944.91
7870.28
7809.27
7644.86
7640.09
7588.11
7668.69
7443.58
7476.22
7228.64
7422.32
7120.82
7220.6
7618.44
6885.38
7478.57
6957.87
7035.65
6830.52
6509.11
7432.48
6908.66
6896.09
7151.38
6526.12
6738.24
6932.68
6454.7
6643.99
6325.32
6971.2
7444.78
6928.7
6978.17
7044.76
6590.08
6771.41
6722.25
5873.4
6009.27
5843.96
5572.77
5425.95
5591.08
5281.24
5149.56
5905.65
6013.64
5888.25
5632.29
5470.08
5714.34
5265.18
5153.33
5040.98
5838.96
5137.75
5612.49
5489.16
5634.71
5249.45
5892.4
6055.8
5884.63
6032.62
5197.28
5057.66
5625.33
5488.26
5677.42
5213.56
5108.46
4848.3
4729.85
4834.1
4719.58
4518.99
4528.08
4371.22
4676.04
4436.56
4970.4
4326.99
4400.75
4271.16
4096.01
4326.32
4241.02
3970.39
3882.78
3612.82
4773.16
4651.54
4512.29
4808.75
4411.96
4525.96
3973.89
3847.61
3795.42
3615.16
4279.17
4124.58
4335.61
4247.56
4199.39
4832.19
4714.12
4882.62
4884.79
4528.29
4351.73
4746.21
4588.06
8804.29
8470.54
8169.26
8719.13
8171.14
8257.99
8470.23
7972.22
8061.19
8188.65
8153.88
7728.71
7998.24
7644.63
7605.09
7553.96
7524.83
7678.06
7636.69
7808.49
7974.65
7372.87
7858.73
7458.96
7666.74
7483.13
7883.07
7574.23
7851.14
7705.83
7907.11
7734.79
7395.36
7612.13
7234.43
7792.78
6846.96
7096.42
6966.02
6345.2
6623.43
6614.84
6970.76
6337.41
6875.69
6320.33
6621.34
6384.18
6143.18
6300.88
5882.89
5795.51
5498.84
5648.85
5572.49
5427.6
5197.51
5776.19
5154.21
6072.97
5837.74
5543.51
4415.2
4252.27
4124.56
4368.55
4268.32
4635.84
4413.13
4968.74
4300.95
3951.1
3922.6
3645.9
3249.73
2977.19
3272.76
2989.09
3499.1
3736.78
3489.14
3201.47
3263.33
4608.49
4745.56
4498.58
4791.47
4342.99
4140.52
4372.39
4213.53
4603.74
4389.04
4855.35
5047.65
4306.17
3957.16
4208.92
3881.95
3615.58
4105.81
2810.53
2584.34
2882.89
2590.51
2105.39
2092.7
2098.15
2089.88
2529.6
8599.49
8083.77
8268.26
8197.67
8101.43
8615.56
8298.8
8179.64
8044.03
7748.98
8148.4
8225.85
8383.73
7781.96
7822.85
7985.94
8002.18
7374.19
7754.36
7395.74
7874.83
7651.83
7627.77
7533.55
7721.82
7519.76
7703.75
7914.5
7580.14
7348.97
7245.79
7685.78
7859.66
7376.08
7820.95
7445.2
7207.44
7932.35
7635.12
7602.99
7695.6
7481.87
7466.2
7646.61
7875.2
7510.5
7251.21
6960.87
6924.38
6645.44
6387.05
6683.59
7413.26
7053.63
6981.28
6743.19
6699.14
6511.44
6607.91
6625.37
6355.31
6340.31
5861.23
6274.43
5737.87
6007.17
5639.86
5507.12
6408.54
6113.07
5257.58
5809.54
5141.89
5734.33
5408.68
5177.12
5577.78
5677.13
5676.03
5569.31
5537.74
6337.86
5822.16
3952.35
3945.81
3849.43
3660.76
4753.96
4612.12
4512.42
4808.12
4423.51
4538.86
4154.9
4403.82
4362.19
4241
4178.22
3531.64
3527.67
3765.24
3236.35
3254.63
2972.69
3275.53
3280.83
2966.44
3709.83
3468.85
3485.36
3745.28
3212.26
4610.1
4399.04
4920.81
5060.9
4310.81
3969.81
4217.7
3851.05
3837.76
4119.84
4550.39
4364.08
4726.54
4643.9
4509.07
4806.72
4899.2
4128.24
4282.01
4358.53
4227.34
4190.56
2103.42
2100.71
2858.11
2829.81
2593.53
2527.87
3108.23
2828.81
2550.6
7177.35
7531.91
7519.14
7150.9
7483.71
7183.63
7161.68
7857.79
7716.92
7992.42
7728.39
7394.15
7627.85
7505.64
7811.68
7579.65
7692.78
7401.92
7408.16
7865.97
7642.84
7533.74
7576.63
7479.79
7473.68
7616.3
7260.74
7222.48
7415.3
7586.18
7402.08
7683.61
7498.59
8024.82
7448.46
7276.31
7374.76
7425.62
7224.54
7155.01
7632.33
6915.55
6636.04
6645.38
6826.46
6384.5
7385.24
6903.95
6880.48
7078.22
6757.26
6763.2
6595.75
7229.62
6850.81
6921.73
7079.49
6540.06
6594.3
6872.99
6814.09
6386.85
7033.37
7402.05
7003.96
7065.25
6789.7
6771.32
6633.63
6623.66
6359.47
5610.74
5478.57
5656.62
5265.18
5203.53
5082.26
5975.16
5783.5
6011.63
5901.5
5480.25
5630.2
5618.19
5189.37
5094.6
5127.51
5896.75
5884.78
6055.02
5868.42
6052.31
5166.73
5248.88
5598.98
5448.87
5613.7
5176.59
5094.99
6106.36
5852.6
5849.36
5962.15
6091.16
5228.28
5108.07
5484.88
5641.67
5646.99
4720.97
4862.51
4526.52
4499.95
4344.13
4840.41
4730.57
4857.54
4286.3
4123.26
4351.17
4213.9
4016.35
4283.09
3906.24
3631.82
4147.48
4636
4719.35
4490.02
4821.14
5090.55
5406.13
4749.45
4496.08
4352.11
4436.29
4671.47
3966.33
4190.69
3872.56
3837.72
4086.42
4302.3
4142.71
4313.58
4283.01
4196.89
4875.53
5119.26
4639.49
4408.57
4294.23
4795.94
4914.62
4630.17
4754.55
4529.33
7109.23
6948.45
5197.3
4974.91
7917.86
7679.45
7844.41
7895.64
7842.29
6854.18
7352.44
7118.52
7264.69
6048.9
6363.07
4991.04
3002.3
2930.14
7105.4
7086.24
4886.79
3009.73
2873.91
3430.63
7907.06
6916.89
6269.11
3389.25
7268.8
7048.51
7225.48
6032.28
6384.36
6369.29
4868
7144.13
7271.3
6356.26
6373.33
7202.97
6307.27
6362.97
5927.47
6096.02
5078.6
5341.63
5538
6952.69
7191.62
6269.72
6622.8
6009.61
6225.74
5080.23
5333.13
5396.26
6903.03
7311.25
6306.69
6767.79
5476.59
5109.65
5426.8
5884.18
6609.56
6555.06
7221.56
7307.3
6355.52
6307.23
6263.94
6377.41
5370.41
5126.94
5380.83
4919.55
8209.1
8036.92
7209.35
7794.83
7182.08
7946.94
7867.36
6336.69
6976.56
6951.04
7081.63
6934.15
6307
5466.42
5341.1
5353.22
5375.7
5352.81
5294.22
4026.19
4970.65
3922.94
4051.54
8069.67
7877.54
8178.53
7923.5
8109.32
7987.04
8083.7
8019.36
8158.47
7978.67
7213.31
7821.88
7224.57
7546.23
7226.84
6295.36
6690.26
6886.7
7447.94
6406.25
7174.14
6297.16
5135.18
5390.88
5483.96
5180.29
5367.89
5314.91
4933.02
4044.02
3801.8
3746.22
3900.08
4964.1
4001.85
2944.38
3027.74
2867.16
8204.85
8090.62
7983.56
8348.78
8000.29
8139.52
7986.89
8266.75
8113.45
7232.92
7796.42
7120.05
7890.79
7836.22
7659.94
7838.01
7652.61
7155.73
7390.2
6274.96
6889.92
7360.11
6934.11
7317.6
6363.22
5091.51
5411.57
6012.51
6292.29
5273.86
5556.27
5149.41
5360.14
6245.13
4992.32
4029.98
3681.63
3812.7
3718.29
4948.56
4000.87
2940.59
2871.65
2906.57
8045.57
7498.68
7261.69
7923.41
7155.64
6343.86
7089.85
6984.66
6985.88
6955.94
5318.66
5585.89
5310.57
5309.44
5309.98
4014.96
5075.02
4067.56
5016.46
7206.51
6879.51
6570.17
6825.45
7305.97
6929.1
5649.95
5896.45
5682.04
7020.66
7317.68
6998.8
6678.03
7409.59
6456.97
6820.61
6794.46
6527.81
6987.69
6730.7
7349.29
6570.76
6736.19
6765.6
6632.84
6067.3
6049.58
5689.78
5649.52
5447.19
5191.37
5641.6
5400.96
5562.78
7237.2
6824.71
6636.98
6847.74
7291.52
6474.01
6573.36
6611.53
6150.36
6823.48
5861.48
6201.18
6108.92
5706.33
5715.15
5484.82
5186.15
5579.81
5367.9
5568.51
6869.03
7262
6471.98
6528.85
6666.54
6111.42
6795.17
6027.79
5679.65
5352.82
5737.21
5611.31
5793.39
7645.1
7657.41
7606.42
7696.43
6580.17
7320.81
7006.12
5905.28
5919.48
6120.38
6088.33
6032.96
4876.42
5127.4
5086.29
4586.19
4489.04
5163.23
4924.25
4920.78
7696.99
7756.62
7906.9
7608.09
6691.89
6988.1
6507.58
7481.72
6954.83
6020.77
6012.06
5706.96
4909.47
5268.05
5081.93
4610.28
3525.4
3581.07
3229.42
3260.11
2969.58
2842.35
7699.32
7665.86
7658.94
7562.79
7826.99
6851.25
7172.22
7029.38
5830.61
4500.31
5110.96
3252.76
2965.73
2876.49
2499.44
3617.47
7711.25
7695.51
7892.12
7720.89
7825.32
7806.78
7711.59
7659.65
7837.91
6475.73
6721.71
7773.71
6938.22
6059.94
6078.89
4922.55
5136.25
4888.65
4774.83
5043.47
4582.5
3633.88
6035.85
5062.76
7395.45
7267.23
6835.63
6886.9
6037.22
5835.54
5948.83
5565.17
5339.93
5683.66
5451.2
5437.32
5302.35
8193.85
8072.98
7045.61
7080.59
7505.4
7668.06
7572.13
7598.22
7124.2
7471.45
7304.64
7555.87
7185.58
7390.74
7761.98
7589.46
7636.88
7594.42
7096.92
7284.14
7373.78
7519.01
7702.12
7844.36
7777.56
7820.52
7459.82
7119.64
7339.91
7843.45
7704.91
7838.88
7762.04
7159.46
7668.34
7789.68
7570.02
7320.21
7434.62
7286.69
6831.93
6683.73
7521.49
6837.47
6618.58
6627.83
6284.54
6336.97
6315.59
6648.95
7366.78
6982.97
6393.08
6364.01
6627.84
6398.16
6664.81
7260.78
6766.78
6347.03
6127
6092.06
5617.26
5719.18
5157.69
6091.9
5610.46
5766.51
5205.63
5939.9
6102.41
5670.18
5186.04
6067.53
5464.4
5641.01
4895.51
4888.58
4499.76
4533.66
4188.39
4220
4545.41
4226.54
4140.1
3835.92
3778.51
3750.21
3901.36
4868.52
4587.26
4209.05
4094.6
3869.01
3875.33
3730.84
4770.75
4912.31
4207.16
8269.88
7911.36
8115.26
7762.75
7883.82
8248.7
7646.84
8610.81
7922.12
8004.98
7971.88
8278.19
7984.2
8225.81
8608.37
8296.92
7925.8
8162.58
7442.37
7695.88
8023.9
7833.96
7210.79
7622.37
7381.36
7724.27
7585.97
7689.03
7596.86
7855.7
7404.29
7079.82
7244.05
7538.13
7825.58
7654.78
7621.98
7467.96
6541.82
6718.68
6317.51
6879.79
7246.41
6550.29
6733.02
6823.03
6904.91
6909.86
7190.93
6590.92
5907.55
5642.09
5503.05
5813.73
6050.69
5377.16
5448.05
5678.11
5897.32
5648.39
5428.81
5208.23
3885.99
3843.46
3782.91
4488.53
4207.52
4101.09
3858.8
4858.72
4984.95
3856.45
3804.81
4493.78
3873.93
2874.35
2884.82
2560.45
3108.52
2510.89
2866.67
3156.44
8337.84
7932.25
8463.77
8127.09
8102.75
7825.78
7900.39
7650.88
8201.25
8449.63
8232.95
7939.27
7842.09
7788.53
8000.83
7997.02
7996.12
7446.15
7872.83
7362.42
7807.23
7847.93
7699.34
7022.67
7881.99
7518.22
7674.44
7606.68
7447.92
7605.74
7613.82
7246.89
7404.77
7303.22
6769.51
7223.22
6863.24
6579
6476.85
6125.16
6634.18
7346.53
6790.24
6823.04
5942.13
5429.58
5530.55
5833.44
5882.57
5525.52
5727.17
5760.27
5624.89
5426.59
5997.46
6038.76
4211.6
4109.19
3869.31
4917.82
4615.3
3863.53
3797.84
4511.81
3888.67
4862.4
3837.26
2544.8
2856
3161.31
8255.73
7698.76
7193.55
7586.22
7208.31
7173.29
7435.08
7831.82
7690.07
7638.05
7223.59
7388.55
7566.05
7465.36
7721.37
7637.9
7682.35
7601.17
7460.59
7129.47
7607.9
7395.27
7310.18
6913.78
6379.08
6724.58
7555.54
6823.25
6597.46
6317.59
6313.42
6637.63
7357.96
6335.32
6632.25
7336.37
6382.59
5567.89
5259.52
5961.35
6091.5
5938.98
5584.86
5800.59
6028.08
5469.13
6057.83
5475.58
4176.2
4903.48
3845.5
3795.51
3926.25
4869.42
5157.66
4540.6
3857.94
3916.61
4477.85
4886.02
)
;
    }
}


// ************************************************************************* //
