/*--------------------------------*- C++ -*----------------------------------*\
| =========                 |                                                 |
| \\      /  F ield         | OpenFOAM: The Open Source CFD Toolbox           |
|  \\    /   O peration     | Version:  v1906                                 |
|   \\  /    A nd           | Web:      www.OpenFOAM.com                      |
|    \\/     M anipulation  |                                                 |
\*---------------------------------------------------------------------------*/
FoamFile
{
    version     2.0;
    format      ascii;
    class       surfaceScalarField;
    location    "64.8/oil";
    object      phi;
}
// * * * * * * * * * * * * * * * * * * * * * * * * * * * * * * * * * * * * * //

dimensions      [1 0 -1 0 0 0 0];
oriented        oriented;


internalField   nonuniform List<scalar> 
80688
(
-2.18165e-06
-2.21885e-06
-2.18164e-06
-9.84381e-07
-6.19342e-07
-5.77923e-07
-2.65036e-07
-3.62448e-07
-3.56897e-07
-1.26057e-07
-7.02458e-08
-6.87329e-08
-4.4012e-08
-4.16355e-08
-4.04093e-08
-3.4557e-09
-2.07415e-08
-1.98148e-08
1.88032e-08
-1.14211e-08
-1.08378e-08
3.11414e-08
-6.34901e-09
-5.9891e-09
3.71715e-08
-3.17389e-09
-2.85616e-09
3.84564e-08
-8.78807e-10
-4.06075e-10
3.58294e-08
9.61678e-10
1.66537e-09
2.98988e-08
2.4676e-09
3.46305e-09
2.13215e-08
3.64301e-09
4.93425e-09
1.08635e-08
4.46645e-09
5.99162e-09
-5.97698e-10
4.90362e-09
6.55755e-09
-1.21264e-08
4.93675e-09
6.59197e-09
-2.28022e-08
4.57343e-09
6.10236e-09
-3.1799e-08
3.8498e-09
5.14705e-09
-3.84616e-08
2.82984e-09
3.83272e-09
-4.23544e-08
1.59302e-09
2.29984e-09
-4.33012e-08
2.25593e-10
7.21241e-10
-4.13891e-08
-1.14175e-09
-7.70337e-10
-3.69458e-08
-2.44025e-09
-2.00306e-09
-3.05414e-08
-3.57874e-09
-2.82567e-09
-2.29383e-08
-4.45417e-09
-3.14886e-09
-1.50606e-08
-4.94509e-09
-2.93266e-09
-7.94191e-09
-4.8882e-09
-2.23042e-09
-2.62737e-09
-4.07416e-09
-1.24037e-09
4.75755e-11
-2.28712e-09
-3.87802e-10
8.91817e-11
-4.15937e-11
-5.86499e-07
-1.04586e-06
-5.86494e-07
-3.48037e-07
-3.8826e-07
-4.69544e-07
-2.42847e-07
-2.67663e-07
-1.99975e-07
-1.08403e-07
-1.25422e-07
-7.92674e-08
-2.88283e-08
-8.2235e-08
-3.89754e-08
2.0069e-08
-5.53604e-08
-1.42784e-08
5.12873e-08
-4.16359e-08
-1.00345e-09
7.02753e-08
-3.28006e-08
7.46361e-09
7.97009e-08
-2.63674e-08
1.3768e-08
8.08602e-08
-2.10912e-08
1.90532e-08
7.46449e-08
-1.6543e-08
2.372e-08
6.19851e-08
-1.26601e-08
2.77876e-08
4.40619e-08
-9.53392e-09
3.11002e-08
2.23697e-08
-7.31405e-09
3.34727e-08
-1.34217e-09
-6.12509e-09
3.47406e-08
-2.51884e-08
-6.03414e-09
3.48171e-08
-4.73079e-08
-7.02359e-09
3.37165e-08
-6.60324e-08
-8.98528e-09
3.15596e-08
-8.00351e-08
-1.1731e-08
2.85635e-08
-8.84399e-08
-1.50087e-08
2.50065e-08
-9.08956e-08
-1.85324e-08
2.12138e-08
-8.75623e-08
-2.19883e-08
1.75133e-08
-7.91222e-08
-2.50695e-08
1.41891e-08
-6.6702e-08
-2.74627e-08
1.14638e-08
-5.17956e-08
-2.88328e-08
9.47223e-09
-3.61567e-08
-2.87945e-08
8.21046e-09
-2.16501e-08
-2.68818e-08
7.48699e-09
-1.00326e-08
-2.25458e-08
6.85421e-09
-2.62571e-09
-1.52198e-08
5.52577e-09
-5.17053e-09
2.63402e-09
-3.63549e-07
-3.18764e-07
-3.63543e-07
-2.3737e-07
-3.12072e-07
-2.02368e-07
-1.48897e-07
-2.34579e-07
-1.21557e-07
-6.02247e-08
-1.58475e-07
-5.56196e-08
2.55105e-09
-1.24356e-07
-2.06548e-08
4.79978e-08
-1.02005e-07
1.19808e-09
7.97317e-08
-8.81717e-08
1.48018e-08
9.99917e-08
-7.76862e-08
2.46257e-08
1.09834e-07
-6.88259e-08
3.26159e-08
1.09848e-07
-6.07704e-08
3.96656e-08
1.00669e-07
-5.33821e-08
4.60186e-08
8.32518e-08
-4.68402e-08
5.15968e-08
5.90365e-08
-4.14675e-08
5.61489e-08
2.99185e-08
-3.76059e-08
5.94099e-08
-1.82783e-09
-3.55281e-08
6.11494e-08
-3.37382e-08
-3.53741e-08
6.12504e-08
-6.33738e-08
-3.71176e-08
5.97295e-08
-8.85422e-08
-4.05597e-08
5.67429e-08
-1.07508e-07
-4.5342e-08
5.25764e-08
-1.19121e-07
-5.09897e-08
4.75943e-08
-1.22923e-07
-5.69491e-08
4.2219e-08
-1.19134e-07
-6.26259e-08
3.68486e-08
-1.08634e-07
-6.74179e-08
3.18479e-08
-9.28539e-08
-7.07105e-08
2.74681e-08
-7.3666e-08
-7.18592e-08
2.38386e-08
-5.3219e-08
-7.01486e-08
2.09072e-08
-3.37283e-08
-6.47559e-08
1.83834e-08
-1.72394e-08
-5.47052e-08
1.56707e-08
-5.42056e-09
-3.88247e-08
1.17861e-08
-1.60207e-08
5.42962e-09
-6.67315e-08
-1.85308e-07
-6.67242e-08
-8.27582e-08
-2.21508e-07
-7.45365e-08
-5.3236e-08
-2.11851e-07
-5.22508e-08
-4.86638e-09
-1.86713e-07
-2.01319e-08
3.99289e-08
-1.71137e-07
1.98584e-09
7.77353e-08
-1.5803e-07
1.82189e-08
1.06554e-07
-1.47301e-07
3.03111e-08
1.25644e-07
-1.37042e-07
4.02659e-08
1.34463e-07
-1.2677e-07
4.91258e-08
1.32786e-07
-1.16435e-07
5.7341e-08
1.20874e-07
-1.06391e-07
6.49213e-08
9.95922e-08
-9.72054e-08
7.16468e-08
7.04842e-08
-8.9523e-08
7.71635e-08
3.57053e-08
-8.39497e-08
8.11228e-08
-2.11712e-09
-8.09392e-08
8.32335e-08
-4.01067e-08
-8.07299e-08
8.33454e-08
-7.54089e-08
-8.32904e-08
8.14751e-08
-1.05462e-07
-8.83179e-08
7.78109e-08
-1.2823e-07
-9.52636e-08
7.26895e-08
-1.42384e-07
-1.03385e-07
6.65495e-08
-1.47387e-07
-1.11822e-07
5.98762e-08
-1.43505e-07
-1.19651e-07
5.31433e-08
-1.31736e-07
-1.25938e-07
4.67514e-08
-1.13704e-07
-1.2972e-07
4.09778e-08
-9.14914e-08
-1.30016e-07
3.59445e-08
-6.7454e-08
-1.2575e-07
3.15641e-08
-4.40093e-08
-1.15687e-07
2.74861e-08
-2.34191e-08
-9.83116e-08
2.30162e-08
-7.78393e-09
-7.14799e-08
1.702e-08
-3.15985e-08
7.7939e-09
-3.10044e-08
-1.23308e-07
-3.09959e-08
-2.90084e-08
-1.94923e-07
-2.85812e-08
-4.15218e-09
-2.22793e-07
-1.39137e-08
3.258e-08
-2.28122e-07
4.67728e-09
6.98876e-08
-2.28295e-07
1.98502e-08
1.03464e-07
-2.24147e-07
3.25398e-08
1.30156e-07
-2.17409e-07
4.34161e-08
1.47998e-07
-2.08265e-07
5.33816e-08
1.5561e-07
-1.97284e-07
6.29018e-08
1.52247e-07
-1.85162e-07
7.20905e-08
1.37877e-07
-1.72779e-07
8.07573e-08
1.13287e-07
-1.61142e-07
8.8527e-08
8.00763e-08
-1.51261e-07
9.4948e-08
4.05922e-08
-1.4403e-07
9.95642e-08
-2.25386e-09
-1.40118e-07
1.02025e-07
-4.52559e-08
-1.39868e-07
1.0214e-07
-8.5219e-08
-1.43249e-07
9.99217e-08
-1.1928e-07
-1.4985e-07
9.55926e-08
-1.45171e-07
-1.58918e-07
8.95456e-08
-1.61421e-07
-1.69429e-07
8.22949e-08
-1.67445e-07
-1.80203e-07
7.44051e-08
-1.63538e-07
-1.8997e-07
6.64113e-08
-1.50799e-07
-1.97429e-07
5.8752e-08
-1.30983e-07
-2.01278e-07
5.17406e-08
-1.06316e-07
-2.0018e-07
4.54967e-08
-7.93037e-08
-1.92674e-07
3.99114e-08
-5.25181e-08
-1.77062e-07
3.45899e-08
-2.84534e-08
-1.5113e-07
2.87536e-08
-9.65334e-09
-1.11409e-07
2.11295e-08
-5.09163e-08
9.66449e-09
-6.97624e-09
-1.09365e-07
-6.96632e-09
3.89117e-09
-2.05041e-07
-7.49218e-10
2.77505e-08
-2.56411e-07
9.75819e-09
5.99808e-08
-2.82341e-07
2.19881e-08
9.38636e-08
-2.95478e-07
3.33001e-08
1.2523e-07
-2.99415e-07
4.3902e-08
1.50642e-07
-2.96916e-07
5.40941e-08
1.67565e-07
-2.89432e-07
6.42437e-08
1.74148e-07
-2.78343e-07
7.44751e-08
1.69298e-07
-2.64977e-07
8.46657e-08
1.52782e-07
-2.50717e-07
9.44546e-08
1.25308e-07
-2.36993e-07
1.03325e-07
8.85219e-08
-2.25177e-07
1.10702e-07
4.49423e-08
-2.1647e-07
1.16019e-07
-2.27388e-09
-2.1175e-07
1.18848e-07
-4.96241e-08
-2.11476e-07
1.18958e-07
-9.36146e-08
-2.1562e-07
1.16361e-07
-1.3111e-07
-2.23663e-07
1.1131e-07
-1.59647e-07
-2.34648e-07
1.04266e-07
-1.77639e-07
-2.47274e-07
9.58378e-08
-1.84472e-07
-2.60049e-07
8.66777e-08
-1.80479e-07
-2.71348e-07
7.73854e-08
-1.66854e-07
-2.79538e-07
6.84842e-08
-1.45461e-07
-2.8297e-07
6.0299e-08
-1.18654e-07
-2.79948e-07
5.29616e-08
-8.90656e-08
-2.6861e-07
4.63481e-08
-5.94266e-08
-2.46729e-07
4.00279e-08
-3.24534e-08
-2.1125e-07
3.31467e-08
-1.10956e-08
-1.57056e-07
2.42886e-08
-7.31201e-08
1.11081e-08
3.57741e-09
-1.16531e-07
3.5886e-09
2.03863e-08
-2.35398e-07
1.35478e-08
4.6502e-08
-3.05897e-07
2.33709e-08
7.8528e-08
-3.4763e-07
3.32635e-08
1.11825e-07
-3.71657e-07
4.28822e-08
1.42679e-07
-3.82857e-07
5.25884e-08
1.67732e-07
-3.8463e-07
6.2661e-08
1.84253e-07
-3.79226e-07
7.32727e-08
1.90165e-07
-3.68627e-07
8.43718e-08
1.84155e-07
-3.54647e-07
9.56806e-08
1.65847e-07
-3.39111e-07
1.06702e-07
1.359e-07
-3.23826e-07
1.16781e-07
9.60129e-08
-3.10495e-07
1.25205e-07
4.88437e-08
-3.00599e-07
1.31299e-07
-2.21171e-09
-2.95232e-07
1.34538e-07
-5.33767e-08
-2.94951e-07
1.3464e-07
-1.00879e-07
-2.99732e-07
1.31614e-07
-1.41336e-07
-3.08963e-07
1.25757e-07
-1.72106e-07
-3.21496e-07
1.17618e-07
-1.9151e-07
-3.35771e-07
1.07901e-07
-1.98924e-07
-3.49998e-07
9.73629e-08
-1.94737e-07
-3.6225e-07
8.67153e-08
-1.80239e-07
-3.70568e-07
7.65331e-08
-1.57406e-07
-3.72989e-07
6.71858e-08
-1.28713e-07
-3.67462e-07
5.8821e-08
-9.6915e-08
-3.51707e-07
5.12985e-08
-6.48895e-08
-3.22906e-07
4.41516e-08
-3.55586e-08
-2.77041e-07
3.64609e-08
-1.21913e-08
-2.07103e-07
2.66798e-08
-9.75166e-08
1.22052e-08
8.73134e-09
-1.34006e-07
8.74352e-09
2.95921e-08
-2.77611e-07
2.13517e-08
5.8115e-08
-3.65818e-07
3.13981e-08
9.11463e-08
-4.21208e-07
4.05471e-08
1.24943e-07
-4.55019e-07
4.95651e-08
1.56077e-07
-4.73063e-07
5.90719e-08
1.81289e-07
-4.79258e-07
6.94166e-08
1.97795e-07
-4.76449e-07
8.07165e-08
2.03359e-07
-4.67018e-07
9.28278e-08
1.96543e-07
-4.5319e-07
1.05359e-07
1.76849e-07
-4.37122e-07
1.17704e-07
1.44894e-07
-4.2096e-07
1.2909e-07
1.02415e-07
-4.06676e-07
1.38659e-07
5.22183e-08
-3.95999e-07
1.45596e-07
-2.09733e-09
-3.9019e-07
1.49274e-07
-5.64997e-08
-3.89915e-07
1.49367e-07
-1.06959e-07
-3.95152e-07
1.45879e-07
-1.49868e-07
-4.05202e-07
1.39148e-07
-1.82432e-07
-4.18746e-07
1.29814e-07
-2.02899e-07
-4.34022e-07
1.18717e-07
-2.10661e-07
-4.48972e-07
1.06736e-07
-2.06183e-07
-4.61406e-07
9.46787e-08
-1.90845e-07
-4.69092e-07
8.31854e-08
-1.66743e-07
-4.69775e-07
7.26831e-08
-1.36467e-07
-4.61077e-07
6.33391e-08
-1.0288e-07
-4.40298e-07
5.50037e-08
-6.89789e-08
-4.03978e-07
4.71705e-08
-3.78484e-08
-3.47028e-07
3.88561e-08
-1.29901e-08
-2.60366e-07
2.84048e-08
-1.23512e-07
1.30052e-08
1.12952e-08
-1.56609e-07
1.13079e-08
3.46388e-08
-3.2653e-07
2.55763e-08
6.50162e-08
-4.32215e-07
3.60195e-08
9.91609e-08
-5.00397e-07
4.50439e-08
1.337e-07
-5.43532e-07
5.39749e-08
1.65344e-07
-5.6835e-07
6.36437e-08
1.90921e-07
-5.79305e-07
7.44694e-08
2.07611e-07
-5.79696e-07
8.65576e-08
2.13102e-07
-5.7225e-07
9.97407e-08
2.05825e-07
-5.59459e-07
1.13546e-07
1.85218e-07
-5.43772e-07
1.27259e-07
1.51816e-07
-5.27539e-07
1.39981e-07
1.07397e-07
-5.12962e-07
1.50706e-07
5.48756e-08
-5.01967e-07
1.5849e-07
-1.95687e-09
-4.95977e-07
1.62619e-07
-5.8854e-08
-4.95718e-07
1.627e-07
-1.11564e-07
-5.01177e-07
1.58735e-07
-1.56298e-07
-5.11585e-07
1.51116e-07
-1.90129e-07
-5.25504e-07
1.40589e-07
-2.11268e-07
-5.40982e-07
1.28099e-07
-2.19139e-07
-5.55747e-07
1.14646e-07
-2.14291e-07
-5.6743e-07
1.01177e-07
-1.98208e-07
-5.73585e-07
8.84095e-08
-1.73105e-07
-5.71697e-07
7.68202e-08
-1.41656e-07
-5.59099e-07
6.65731e-08
-1.06808e-07
-5.32662e-07
5.75165e-08
-7.16354e-08
-4.8829e-07
4.91392e-08
-3.93201e-08
-4.19726e-07
4.03828e-08
-1.35e-08
-3.15679e-07
2.94925e-08
-1.50528e-07
1.35159e-08
1.25073e-08
-1.81636e-07
1.25202e-08
3.71361e-08
-3.788e-07
2.76409e-08
6.8533e-08
-5.01932e-07
3.83202e-08
1.03321e-07
-5.82555e-07
4.73696e-08
1.38268e-07
-6.34872e-07
5.63934e-08
1.70205e-07
-6.66625e-07
6.63377e-08
1.9605e-07
-6.8284e-07
7.76902e-08
2.12937e-07
-6.87155e-07
9.05711e-08
2.18526e-07
-6.82604e-07
1.04765e-07
2.1116e-07
-6.71867e-07
1.19774e-07
1.90146e-07
-6.5754e-07
1.34782e-07
1.55988e-07
-6.42144e-07
1.48763e-07
1.1046e-07
-6.28028e-07
1.60594e-07
5.65527e-08
-6.17265e-07
1.69205e-07
-1.8108e-09
-6.11363e-07
1.7375e-07
-6.02205e-08
-6.11128e-07
1.73819e-07
-1.14264e-07
-6.16549e-07
1.69415e-07
-1.60008e-07
-6.26794e-07
1.60953e-07
-1.94445e-07
-6.40335e-07
1.49268e-07
-2.15792e-07
-6.55089e-07
1.35454e-07
-2.23517e-07
-6.68677e-07
1.20655e-07
-2.18268e-07
-6.78563e-07
1.05884e-07
-2.01641e-07
-6.82165e-07
9.19522e-08
-1.75918e-07
-6.768e-07
7.93802e-08
-1.43844e-07
-6.59534e-07
6.83609e-08
-1.08397e-07
-6.26857e-07
5.87471e-08
-7.26885e-08
-5.73967e-07
4.99688e-08
-3.99002e-08
-4.93464e-07
4.09492e-08
-1.37038e-08
-3.71771e-07
2.9896e-08
-1.77952e-07
1.37201e-08
1.28796e-08
-2.07407e-07
1.28914e-08
3.77604e-08
-4.31863e-07
2.81819e-08
6.91896e-08
-5.72203e-07
3.88419e-08
1.03792e-07
-6.64993e-07
4.78356e-08
1.38476e-07
-7.26449e-07
5.6892e-08
1.70193e-07
-7.65394e-07
6.70517e-08
1.95926e-07
-7.87407e-07
7.88345e-08
2.12873e-07
-7.9646e-07
9.23583e-08
2.18647e-07
-7.95778e-07
1.07399e-07
2.11518e-07
-7.8815e-07
1.23412e-07
1.9071e-07
-7.76236e-07
1.39504e-07
1.56648e-07
-7.62645e-07
1.54563e-07
1.11059e-07
-7.49779e-07
1.67341e-07
5.69559e-08
-7.39808e-07
1.76647e-07
-1.67545e-09
-7.3428e-07
1.81548e-07
-6.03363e-08
-7.34071e-07
1.81604e-07
-1.1453e-07
-7.39162e-07
1.76806e-07
-1.60243e-07
-7.487e-07
1.6762e-07
-1.94475e-07
-7.61078e-07
1.54975e-07
-2.15476e-07
-7.74139e-07
1.40051e-07
-2.22771e-07
-7.85472e-07
1.2409e-07
-2.17135e-07
-7.92437e-07
1.08238e-07
-2.00248e-07
-7.92429e-07
9.33777e-08
-1.74438e-07
-7.82655e-07
8.00448e-08
-1.42454e-07
-7.59974e-07
6.84558e-08
-1.07259e-07
-7.20515e-07
5.84639e-08
-7.18819e-08
-6.58851e-07
4.95065e-08
-3.94506e-08
-5.66368e-07
4.04727e-08
-1.35603e-08
-4.27191e-07
2.95296e-08
-2.05088e-07
1.35764e-08
1.26011e-08
-2.32621e-07
1.26121e-08
3.674e-08
-4.83425e-07
2.74233e-08
6.71228e-08
-6.40294e-07
3.77082e-08
1.005e-07
-7.4482e-07
4.64497e-08
1.33987e-07
-8.15335e-07
5.54002e-08
1.64684e-07
-8.61689e-07
6.55984e-08
1.89732e-07
-8.90023e-07
7.75679e-08
2.06437e-07
-9.04627e-07
9.14626e-08
2.12391e-07
-9.08775e-07
1.07042e-07
2.05857e-07
-9.05351e-07
1.23734e-07
1.85972e-07
-8.9696e-07
1.4061e-07
1.53008e-07
-8.8616e-07
1.56479e-07
1.08645e-07
-8.75398e-07
1.69982e-07
5.57939e-08
-8.66788e-07
1.79831e-07
-1.55945e-09
-8.61947e-07
1.8502e-07
-5.89289e-08
-8.61767e-07
1.85066e-07
-1.11819e-07
-8.66244e-07
1.79973e-07
-1.56267e-07
-8.74467e-07
1.70215e-07
-1.89303e-07
-8.84832e-07
1.5679e-07
-2.09264e-07
-8.95191e-07
1.41013e-07
-2.15853e-07
-9.03109e-07
1.24227e-07
-2.09891e-07
-9.06052e-07
1.07653e-07
-1.93122e-07
-9.01399e-07
9.22002e-08
-1.67891e-07
-8.86313e-07
7.84267e-08
-1.36879e-07
-8.57555e-07
6.65697e-08
-1.02919e-07
-8.10934e-07
5.64595e-08
-6.89208e-08
-7.40392e-07
4.75429e-08
-3.78269e-08
-6.36205e-07
3.87431e-08
-1.30067e-08
-4.80267e-07
2.82557e-08
-2.31117e-07
1.30219e-08
1.17429e-08
-2.56118e-07
1.17541e-08
3.41392e-08
-5.31286e-07
2.54654e-08
6.22751e-08
-7.03418e-07
3.49883e-08
9.32247e-08
-8.1895e-07
4.31802e-08
1.24341e-07
-8.98191e-07
5.17392e-08
1.5303e-07
-9.52053e-07
6.16757e-08
1.76659e-07
-9.87138e-07
7.34861e-08
1.92673e-07
-1.00799e-06
8.73524e-08
1.98779e-07
-1.01793e-06
1.03046e-07
1.93205e-07
-1.01977e-06
1.19991e-07
1.75002e-07
-1.01601e-06
1.37257e-07
1.44329e-07
-1.00905e-06
1.53564e-07
1.02675e-07
-1.00124e-06
1.67495e-07
5.27891e-08
-9.94594e-07
1.77691e-07
-1.47021e-09
-9.90759e-07
1.83072e-07
-5.57348e-08
-9.90606e-07
1.83103e-07
-1.05638e-07
-9.94125e-07
1.77784e-07
-1.47308e-07
-1.00045e-06
1.67649e-07
-1.77972e-07
-1.00794e-06
1.53769e-07
-1.96166e-07
-1.01453e-06
1.3753e-07
-2.01708e-07
-1.01793e-06
1.20358e-07
-1.95523e-07
-1.01573e-06
1.03497e-07
-1.79364e-07
-1.00543e-06
8.78686e-08
-1.55515e-07
-9.84244e-07
7.40817e-08
-1.2649e-07
-9.48906e-07
6.23264e-08
-9.49509e-08
-8.94914e-07
5.2441e-08
-6.3517e-08
-8.15726e-07
4.38995e-08
-3.48397e-08
-7.00538e-07
3.56564e-08
-1.19962e-08
-5.29104e-07
2.59936e-08
-2.55124e-07
1.20105e-08
1.03125e-08
-2.76746e-07
1.0316e-08
2.99092e-08
-5.73155e-07
2.22726e-08
5.45436e-08
-7.58646e-07
3.0593e-08
8.1704e-08
-8.84015e-07
3.79045e-08
1.0918e-07
-9.71401e-07
4.57334e-08
1.34721e-07
-1.0326e-06
5.50088e-08
1.56023e-07
-1.07469e-06
6.62464e-08
1.70791e-07
-1.10235e-06
7.95906e-08
1.76912e-07
-1.11891e-06
9.4865e-08
1.72659e-07
-1.12702e-06
1.11508e-07
1.57011e-07
-1.12897e-06
1.28604e-07
1.29953e-07
-1.12693e-06
1.44934e-07
9.26818e-08
-1.123e-06
1.59029e-07
4.77066e-08
-1.11904e-06
1.69419e-07
-1.40716e-09
-1.11657e-06
1.74926e-07
-5.0515e-08
-1.11644e-06
1.74943e-07
-9.54649e-08
-1.11865e-06
1.69472e-07
-1.32703e-07
-1.12233e-06
1.59118e-07
-1.5972e-07
-1.126e-06
1.45077e-07
-1.753e-07
-1.12774e-06
1.28796e-07
-1.79444e-07
-1.1255e-06
1.11721e-07
-1.7318e-07
-1.11714e-06
9.51389e-08
-1.58215e-07
-1.10032e-06
7.9933e-08
-1.36665e-07
-1.07244e-06
6.66414e-08
-1.10823e-07
-1.03021e-06
5.54595e-08
-8.29913e-08
-9.6896e-07
4.62148e-08
-5.54198e-08
-8.81672e-07
3.83749e-08
-3.03904e-08
-7.56595e-07
3.10274e-08
-1.04695e-08
-5.71638e-07
2.26133e-08
-2.76075e-07
1.04822e-08
8.30317e-09
-2.93356e-07
8.30672e-09
2.40263e-08
-6.06723e-07
1.78439e-08
4.38571e-08
-8.03009e-07
2.4533e-08
6.58314e-08
-9.36563e-07
3.05735e-08
8.82546e-08
-1.03109e-06
3.7271e-08
1.09368e-07
-1.09915e-06
4.54343e-08
1.27315e-07
-1.14815e-06
5.55162e-08
1.40171e-07
-1.18287e-06
6.76675e-08
1.46104e-07
-1.20662e-06
8.17731e-08
1.43488e-07
-1.2218e-06
9.73917e-08
1.3125e-07
-1.23042e-06
1.13683e-07
1.09202e-07
-1.23432e-06
1.29447e-07
7.81878e-08
-1.23519e-06
1.43212e-07
4.02832e-08
-1.23465e-06
1.53515e-07
-1.36929e-09
-1.23395e-06
1.5903e-07
-4.3006e-08
-1.23384e-06
1.59033e-07
-8.08707e-08
-1.23431e-06
1.53528e-07
-1.11814e-07
-1.23462e-06
1.43239e-07
-1.33771e-07
-1.23352e-06
1.29481e-07
-1.45866e-07
-1.2294e-06
1.13749e-07
-1.48314e-07
-1.22058e-06
9.75204e-08
-1.42208e-07
-1.20519e-06
8.19467e-08
-1.29142e-07
-1.18126e-06
6.78666e-08
-1.10924e-07
-1.14641e-06
5.57558e-08
-8.9527e-08
-1.09731e-06
4.57072e-08
-6.67783e-08
-1.02927e-06
3.75654e-08
-4.44928e-08
-9.34828e-07
3.08701e-08
-2.43708e-08
-8.01526e-07
2.48092e-08
-8.40674e-09
-6.05666e-07
1.80643e-08
-2.929e-07
8.418e-09
5.73283e-09
-3.04822e-07
5.7336e-09
1.65683e-08
-6.29773e-07
1.22153e-08
3.0263e-08
-8.33523e-07
1.68185e-08
4.56296e-08
-9.73114e-07
2.11851e-08
6.15739e-08
-1.07334e-06
2.63014e-08
7.69332e-08
-1.14731e-06
3.2798e-08
9.04097e-08
-1.20268e-06
4.10526e-08
1.00578e-07
-1.2443e-06
5.1255e-08
1.05962e-07
-1.27534e-06
6.33349e-08
1.05186e-07
-1.29797e-06
7.69444e-08
9.72196e-08
-1.31385e-06
9.13963e-08
8.15981e-08
-1.3244e-06
1.05699e-07
5.87852e-08
-1.33085e-06
1.18468e-07
3.02975e-08
-1.33435e-06
1.28194e-07
-1.3492e-09
-1.33578e-06
1.33481e-07
-3.29711e-08
-1.33569e-06
1.33473e-07
-6.1391e-08
-1.33407e-06
1.28177e-07
-8.40914e-08
-1.33037e-06
1.18446e-07
-9.95879e-08
-1.32372e-06
1.05697e-07
-1.07392e-07
-1.313e-06
9.14132e-08
-1.07996e-07
-1.29694e-06
7.69682e-08
-1.02397e-07
-1.27418e-06
6.33892e-08
-9.19738e-08
-1.24302e-06
5.13411e-08
-7.82563e-08
-1.2013e-06
4.11707e-08
-6.26129e-08
-1.1459e-06
3.2944e-08
-4.63932e-08
-1.07196e-06
2.64681e-08
-3.07386e-08
-9.71842e-07
2.13603e-08
-1.67954e-08
-8.32457e-07
1.69873e-08
-5.80019e-09
-6.29018e-07
1.23564e-08
-3.0451e-07
5.81001e-09
2.6486e-09
-3.10121e-07
2.65029e-09
7.61584e-09
-6.40235e-07
5.495e-09
1.40279e-08
-8.47544e-07
7.60996e-09
2.14667e-08
-9.90465e-07
9.9113e-09
2.95975e-08
-1.09445e-06
1.29825e-08
3.79013e-08
-1.17285e-06
1.72338e-08
4.57599e-08
-1.23344e-06
2.29045e-08
5.23566e-08
-1.28106e-06
3.01691e-08
5.67247e-08
-1.31875e-06
3.90469e-08
5.7828e-08
-1.34844e-06
4.93709e-08
5.47395e-08
-1.37144e-06
6.06782e-08
4.68582e-08
-1.38867e-06
7.21526e-08
3.41931e-08
-1.40084e-06
8.26587e-08
1.75644e-08
-1.40858e-06
9.08544e-08
-1.34206e-09
-1.41225e-06
9.53743e-08
-2.02206e-08
-1.41218e-06
9.53733e-08
-3.67781e-08
-1.40833e-06
9.0825e-08
-4.9304e-08
-1.40043e-06
8.25906e-08
-5.70176e-08
-1.38808e-06
7.20769e-08
-5.99102e-08
-1.37072e-06
6.06073e-08
-5.8588e-08
-1.34758e-06
4.93149e-08
-5.39845e-08
-1.31779e-06
3.9013e-08
-4.71376e-08
-1.28003e-06
3.01632e-08
-3.90203e-08
-1.23234e-06
2.29273e-08
-3.04461e-08
-1.17176e-06
1.72828e-08
-2.20677e-08
-1.09339e-06
1.30533e-08
-1.43932e-08
-9.89514e-07
9.99722e-09
-7.78749e-09
-8.46764e-07
7.70163e-09
-2.69522e-09
-6.39691e-07
5.58064e-09
-3.09909e-07
2.70396e-09
-8.48805e-10
-3.08417e-07
-8.55276e-10
-2.50831e-09
-6.36473e-07
-2.10272e-09
-4.35083e-09
-8.4287e-07
-2.83207e-09
-5.88939e-09
-9.86e-07
-2.92611e-09
-6.73692e-09
-1.09128e-06
-2.32264e-09
-6.60192e-09
-1.17207e-06
-9.10136e-10
-5.40123e-09
-1.2361e-06
1.45777e-09
-3.22311e-09
-1.28809e-06
4.8516e-09
-4.21595e-10
-1.33092e-06
9.36068e-09
2.41854e-09
-1.36624e-06
1.4964e-08
4.64304e-09
-1.3951e-06
2.14419e-08
5.54263e-09
-1.41797e-06
2.83951e-08
4.7458e-09
-1.43509e-06
3.50485e-08
2.24258e-09
-1.44653e-06
4.04516e-08
-1.34138e-09
-1.45222e-06
4.35528e-08
-4.89173e-09
-1.45216e-06
4.3527e-08
-7.3045e-09
-1.4463e-06
4.03834e-08
-7.95213e-09
-1.43473e-06
3.49454e-08
-6.85354e-09
-1.41747e-06
2.82913e-08
-4.42123e-09
-1.39448e-06
2.13319e-08
-1.32929e-09
-1.36551e-06
1.48459e-08
1.72461e-09
-1.33011e-06
9.26004e-09
4.15284e-09
-1.28724e-06
4.77573e-09
5.62239e-09
-1.23522e-06
1.40828e-09
5.99248e-09
-1.17119e-06
-9.34152e-10
5.39018e-09
-1.09047e-06
-2.32181e-09
4.05977e-09
-9.8528e-07
-2.90414e-09
2.36927e-09
-8.42281e-07
-2.79226e-09
8.24872e-10
-6.36092e-07
-2.05397e-09
-3.08268e-07
-8.16738e-10
-4.61448e-09
-2.99183e-07
-4.61975e-09
-1.33635e-08
-6.17488e-07
-1.02357e-08
-2.4066e-08
-8.18163e-07
-1.40041e-08
-3.52826e-08
-9.58039e-07
-1.67443e-08
-4.58392e-08
-1.06181e-06
-1.89161e-08
-5.46648e-08
-1.14249e-06
-2.07588e-08
-6.08829e-08
-1.20755e-06
-2.23314e-08
-6.38124e-08
-1.26156e-06
-2.35996e-08
-6.31109e-08
-1.30713e-06
-2.44905e-08
-5.87216e-08
-1.34578e-06
-2.48529e-08
-5.10117e-08
-1.37823e-06
-2.45843e-08
-4.06214e-08
-1.40466e-06
-2.36981e-08
-2.83672e-08
-1.42493e-06
-2.24208e-08
-1.50726e-08
-1.43874e-06
-2.10843e-08
-1.34113e-09
-1.44573e-06
-2.02209e-08
1.24296e-08
-1.44566e-06
-2.02709e-08
2.58395e-08
-1.43853e-06
-2.11869e-08
3.82427e-08
-1.42458e-06
-2.25495e-08
4.88289e-08
-1.40419e-06
-2.38726e-08
5.67761e-08
-1.37766e-06
-2.47689e-08
6.14208e-08
-1.34514e-06
-2.50182e-08
6.23961e-08
-1.30644e-06
-2.4641e-08
5.97225e-08
-1.26083e-06
-2.37298e-08
5.37737e-08
-1.20684e-06
-2.24358e-08
4.5194e-08
-1.14178e-06
-2.08358e-08
3.48524e-08
-1.06116e-06
-1.8968e-08
2.38248e-08
-9.57483e-07
-1.6769e-08
1.32769e-08
-8.1773e-07
-1.40029e-08
4.59875e-09
-6.17201e-07
-1.0213e-08
-2.99078e-07
-4.59076e-09
-8.45291e-09
-2.82272e-07
-8.45776e-09
-2.44032e-08
-5.8302e-07
-1.85184e-08
-4.40711e-08
-7.73118e-07
-2.53775e-08
-6.51367e-08
-9.06157e-07
-3.08161e-08
-8.56087e-08
-1.00548e-06
-3.58574e-08
-1.03669e-07
-1.0833e-06
-4.11247e-08
-1.17599e-07
-1.14671e-06
-4.69081e-08
-1.25966e-07
-1.19993e-06
-5.32656e-08
-1.27628e-07
-1.24541e-06
-6.00525e-08
-1.21928e-07
-1.28449e-06
-6.69869e-08
-1.08789e-07
-1.31768e-06
-7.36902e-08
-8.87575e-08
-1.34499e-06
-7.97017e-08
-6.3004e-08
-1.36611e-06
-8.45725e-08
-3.32035e-08
-1.3806e-06
-8.79386e-08
-1.33356e-09
-1.38797e-06
-8.96277e-08
3.05717e-08
-1.3879e-06
-8.96608e-08
6.04692e-08
-1.3804e-06
-8.80301e-08
8.6404e-08
-1.36581e-06
-8.47139e-08
1.06646e-07
-1.34455e-06
-7.98754e-08
1.2003e-07
-1.31717e-06
-7.38791e-08
1.25995e-07
-1.28393e-06
-6.71785e-08
1.24596e-07
-1.24481e-06
-6.02345e-08
1.16507e-07
-1.19931e-06
-5.34296e-08
1.02827e-07
-1.14611e-06
-4.70491e-08
8.50096e-08
-1.08272e-06
-4.12386e-08
6.47586e-08
-1.00497e-06
-3.59432e-08
4.38709e-08
-9.05723e-07
-3.0872e-08
2.43201e-08
-7.72777e-07
-2.54027e-08
8.44388e-09
-5.82812e-07
-1.85133e-08
-2.82199e-07
-8.43562e-09
-1.21168e-08
-2.58033e-07
-1.21225e-08
-3.4929e-08
-5.3381e-07
-2.6397e-08
-6.31689e-08
-7.08704e-07
-3.61738e-08
-9.36344e-08
-8.31492e-07
-4.41998e-08
-1.23627e-07
-9.2344e-07
-5.20486e-08
-1.50579e-07
-9.95703e-07
-6.06457e-08
-1.72015e-07
-1.05478e-06
-7.04978e-08
-1.85703e-07
-1.10448e-06
-8.17641e-08
-1.89755e-07
-1.14707e-06
-9.42887e-08
-1.8289e-07
-1.18368e-06
-1.07684e-07
-1.64584e-07
-1.21475e-06
-1.21228e-07
-1.353e-07
-1.2403e-06
-1.33972e-07
-9.65211e-08
-1.26001e-06
-1.44874e-07
-5.07694e-08
-1.2735e-06
-1.52852e-07
-1.31752e-09
-1.28034e-06
-1.57081e-07
4.81737e-08
-1.28028e-06
-1.57113e-07
9.40387e-08
-1.27333e-06
-1.52928e-07
1.32971e-07
-1.25974e-06
-1.44999e-07
1.62474e-07
-1.23991e-06
-1.34148e-07
1.81029e-07
-1.2143e-06
-1.21425e-07
1.88161e-07
-1.18317e-06
-1.07888e-07
1.84373e-07
-1.14653e-06
-9.44868e-08
1.70965e-07
-1.10396e-06
-8.1947e-08
1.49778e-07
-1.05426e-06
-7.06608e-08
1.2307e-07
-9.9523e-07
-6.07824e-08
9.32797e-08
-9.23019e-07
-5.21565e-08
6.29838e-08
-8.31151e-07
-4.42764e-08
3.48686e-08
-7.08446e-07
-3.62152e-08
1.21127e-08
-5.33653e-07
-2.64024e-08
-2.57982e-07
-1.21037e-08
-1.53704e-08
-2.27287e-07
-1.53752e-08
-4.4256e-08
-4.71558e-07
-3.33669e-08
-8.00651e-08
-6.27167e-07
-4.57278e-08
-1.18891e-07
-7.36653e-07
-5.60129e-08
-1.57385e-07
-8.1866e-07
-6.62858e-08
-1.92295e-07
-8.82993e-07
-7.78007e-08
-2.20477e-07
-9.35374e-07
-9.12225e-08
-2.38952e-07
-9.79234e-07
-1.06769e-07
-2.45176e-07
-1.01654e-06
-1.2431e-07
-2.3727e-07
-1.04832e-06
-1.4326e-07
-2.14349e-07
-1.07505e-06
-1.62628e-07
-1.76789e-07
-1.09675e-06
-1.81113e-07
-1.26382e-07
-1.11333e-06
-1.97093e-07
-6.63986e-08
-1.12456e-06
-2.08928e-07
-1.29038e-09
-1.13021e-06
-2.15239e-07
6.38512e-08
-1.13016e-06
-2.15268e-07
1.2394e-07
-1.12439e-06
-2.0903e-07
1.74502e-07
-1.11306e-06
-1.97239e-07
2.1229e-07
-1.09641e-06
-1.81282e-07
2.35448e-07
-1.07464e-06
-1.62819e-07
2.43612e-07
-1.04787e-06
-1.4346e-07
2.37665e-07
-1.01608e-06
-1.2451e-07
2.19444e-07
-9.78777e-07
-1.0696e-07
1.91524e-07
-9.34944e-07
-9.13943e-08
1.5684e-07
-8.82597e-07
-7.79494e-08
1.1855e-07
-8.18322e-07
-6.64078e-08
7.98941e-08
-7.36401e-07
-5.60937e-08
4.41928e-08
-6.26974e-07
-4.57706e-08
1.53684e-08
-4.71449e-07
-3.33801e-08
-2.27254e-07
-1.53594e-08
-1.79617e-08
-1.91359e-07
-1.79663e-08
-5.16659e-08
-3.98964e-07
-3.88892e-08
-9.35398e-08
-5.32057e-07
-5.32362e-08
-1.39111e-07
-6.25818e-07
-6.52642e-08
-1.84542e-07
-6.95804e-07
-7.74252e-08
-2.26017e-07
-7.50321e-07
-9.1196e-08
-2.59756e-07
-7.94259e-07
-1.07376e-07
-2.82182e-07
-8.30559e-07
-1.26249e-07
-2.90181e-07
-8.60948e-07
-1.47591e-07
-2.81404e-07
-8.86397e-07
-1.70702e-07
-2.54692e-07
-9.07347e-07
-1.94412e-07
-2.10333e-07
-9.24032e-07
-2.17074e-07
-1.50477e-07
-9.36496e-07
-2.36687e-07
-7.89924e-08
-9.44786e-07
-2.51254e-07
-1.24881e-09
-9.48898e-07
-2.59059e-07
7.65279e-08
-9.48848e-07
-2.59084e-07
1.48109e-07
-9.44641e-07
-2.51331e-07
2.08131e-07
-9.36274e-07
-2.36809e-07
2.52669e-07
-9.23723e-07
-2.1723e-07
2.79633e-07
-9.07005e-07
-1.94594e-07
2.88666e-07
-8.86014e-07
-1.70893e-07
2.80937e-07
-8.60563e-07
-1.47787e-07
2.5877e-07
-8.30172e-07
-1.26437e-07
2.25273e-07
-7.93898e-07
-1.07549e-07
1.84031e-07
-7.50006e-07
-9.13486e-08
1.38801e-07
-6.95539e-07
-7.75525e-08
9.33785e-08
-6.25609e-07
-6.53696e-08
5.16135e-08
-5.31909e-07
-5.33004e-08
1.79612e-08
-3.9889e-07
-3.89067e-08
-1.91341e-07
-1.79523e-08
-1.9643e-08
-1.52071e-07
-1.9645e-08
-5.65104e-08
-3.19648e-07
-4.24494e-08
-1.02477e-07
-4.28049e-07
-5.80412e-08
-1.52752e-07
-5.04413e-07
-7.11293e-08
-2.03131e-07
-5.60975e-07
-8.44495e-08
-2.4937e-07
-6.04441e-07
-9.96419e-08
-2.87206e-07
-6.38849e-07
-1.17574e-07
-3.12581e-07
-6.66648e-07
-1.38536e-07
-3.21922e-07
-6.89346e-07
-1.62261e-07
-3.1255e-07
-7.07807e-07
-1.87963e-07
-2.83107e-07
-7.22512e-07
-2.14278e-07
-2.33943e-07
-7.33809e-07
-2.39387e-07
-1.67392e-07
-7.41949e-07
-2.61098e-07
-8.77986e-08
-7.47186e-07
-2.77193e-07
-1.19328e-09
-7.49726e-07
-2.85776e-07
8.54421e-08
-7.49685e-07
-2.85798e-07
1.65127e-07
-7.47065e-07
-2.7726e-07
2.31819e-07
-7.4176e-07
-2.61207e-07
2.81181e-07
-7.33559e-07
-2.39526e-07
3.1085e-07
-7.2223e-07
-2.14444e-07
3.20468e-07
-7.07493e-07
-1.8814e-07
3.11374e-07
-6.89025e-07
-1.62443e-07
2.86263e-07
-6.66347e-07
-1.38715e-07
2.48657e-07
-6.38552e-07
-1.1774e-07
2.02637e-07
-6.04194e-07
-9.97922e-08
1.52442e-07
-5.60767e-07
-8.45768e-08
1.02319e-07
-5.04259e-07
-7.12263e-08
5.64634e-08
-4.27952e-07
-5.81014e-08
1.96408e-08
-3.19598e-07
-4.24693e-08
-1.52067e-07
-1.96332e-08
-2.01715e-08
-1.11723e-07
-2.01767e-08
-5.81795e-08
-2.38122e-07
-4.35175e-08
-1.05866e-07
-3.2096e-07
-5.94026e-08
-1.58444e-07
-3.79126e-07
-7.27098e-08
-2.11505e-07
-4.21602e-07
-8.63126e-08
-2.605e-07
-4.53502e-07
-1.01944e-07
-3.0083e-07
-4.78012e-07
-1.20507e-07
-3.28052e-07
-4.9716e-07
-1.42266e-07
-3.38346e-07
-5.12145e-07
-1.66908e-07
-3.28813e-07
-5.23762e-07
-1.93578e-07
-2.98002e-07
-5.32492e-07
-2.20831e-07
-2.46304e-07
-5.38758e-07
-2.4675e-07
-1.76225e-07
-5.42959e-07
-2.69069e-07
-9.23723e-08
-5.45466e-07
-2.85573e-07
-1.12035e-09
-5.46606e-07
-2.94372e-07
9.01603e-08
-5.46575e-07
-2.94391e-07
1.74098e-07
-5.45371e-07
-2.85631e-07
2.44318e-07
-5.4282e-07
-2.69159e-07
2.96192e-07
-5.38576e-07
-2.46857e-07
3.27203e-07
-5.32272e-07
-2.20967e-07
3.36967e-07
-5.23517e-07
-1.93739e-07
3.26923e-07
-5.11904e-07
-1.67077e-07
2.99926e-07
-4.96917e-07
-1.42434e-07
2.59835e-07
-4.77796e-07
-1.20665e-07
2.11043e-07
-4.53313e-07
-1.02089e-07
1.58157e-07
-4.21447e-07
-8.64346e-08
1.05725e-07
-3.79021e-07
-7.28061e-08
5.81302e-08
-3.20894e-07
-5.94636e-08
2.01729e-08
-2.38101e-07
-4.35399e-08
-1.11727e-07
-2.01672e-08
-1.93107e-08
-7.30982e-08
-1.93142e-08
-5.60827e-08
-1.5978e-07
-4.15701e-08
-1.02857e-07
-2.17625e-07
-5.65603e-08
-1.55095e-07
-2.57836e-07
-6.90509e-08
-2.08364e-07
-2.86427e-07
-8.19062e-08
-2.57946e-07
-3.07055e-07
-9.68646e-08
-2.99019e-07
-3.22114e-07
-1.14826e-07
-3.27005e-07
-3.33146e-07
-1.36028e-07
-3.37906e-07
-3.41127e-07
-1.60116e-07
-3.28786e-07
-3.4669e-07
-1.86193e-07
-2.98182e-07
-3.50297e-07
-2.12798e-07
-2.46533e-07
-3.52379e-07
-2.38028e-07
-1.76389e-07
-3.53381e-07
-2.59721e-07
-9.24157e-08
-3.5372e-07
-2.75719e-07
-1.02772e-09
-3.53772e-07
-2.84222e-07
9.03859e-08
-3.53749e-07
-2.84239e-07
1.74435e-07
-3.53652e-07
-2.75769e-07
2.44702e-07
-3.53273e-07
-2.59814e-07
2.96517e-07
-3.5224e-07
-2.38151e-07
3.27307e-07
-3.50131e-07
-2.12931e-07
3.36641e-07
-3.46515e-07
-1.86337e-07
3.25952e-07
-3.40946e-07
-1.60269e-07
2.98192e-07
-3.32977e-07
-1.3618e-07
2.57326e-07
-3.21957e-07
-1.14972e-07
2.07935e-07
-3.06923e-07
-9.69993e-08
1.54834e-07
-2.86324e-07
-8.20218e-08
1.02726e-07
-2.57769e-07
-6.91436e-08
5.60422e-08
-2.1759e-07
-5.66205e-08
1.93106e-08
-1.59775e-07
-4.15945e-08
-7.31084e-08
-1.93077e-08
-1.68153e-08
-3.94639e-08
-1.6819e-08
-4.97541e-08
-9.07765e-08
-3.60648e-08
-9.278e-08
-1.25865e-07
-4.87341e-08
-1.41858e-07