/*--------------------------------*- C++ -*----------------------------------*\
| =========                 |                                                 |
| \\      /  F ield         | OpenFOAM: The Open Source CFD Toolbox           |
|  \\    /   O peration     | Version:  v1906                                 |
|   \\  /    A nd           | Web:      www.OpenFOAM.com                      |
|    \\/     M anipulation  |                                                 |
\*---------------------------------------------------------------------------*/
FoamFile
{
    version     2.0;
    format      ascii;
    class       volScalarField;
    location    "56";
    object      nut;
}
// * * * * * * * * * * * * * * * * * * * * * * * * * * * * * * * * * * * * * //

dimensions      [0 2 -1 0 0 0 0];


internalField   nonuniform List<scalar> 
78750
(
1.09309e-08
4.59314e-07
6.04795e-07
7.32167e-07
8.41508e-07
9.30684e-07
1.00068e-06
1.05328e-06
1.09031e-06
1.11329e-06
1.12344e-06
1.12182e-06
1.10941e-06
1.08725e-06
1.05619e-06
1.01706e-06
9.70936e-07
9.18475e-07
8.59071e-07
7.94546e-07
7.26173e-07
6.55509e-07
5.84536e-07
5.15691e-07
4.51659e-07
3.94906e-07
3.47077e-07
3.08551e-07
2.78345e-07
2.54347e-07
2.33425e-07
2.10861e-07
1.79955e-07
1.39471e-07
4.50011e-09
1.96782e-09
9.71372e-07
2.65748e-06
5.59271e-06
7.69974e-06
8.9148e-06
9.86343e-06
1.05617e-05
1.1033e-05
1.13023e-05
1.13939e-05
1.13309e-05
1.11345e-05
1.08246e-05
1.04197e-05
9.93791e-06
9.39617e-06
8.809e-06
8.18696e-06
7.54275e-06
6.8851e-06
6.22097e-06
5.55867e-06
4.90557e-06
4.27105e-06
3.66619e-06
3.10194e-06
2.5873e-06
2.12906e-06
1.73608e-06
1.08581e-06
6.19028e-07
5.82574e-07
8.65799e-07
1.7833e-08
2.54559e-09
1.64858e-06
3.71648e-06
6.55589e-06
1.07417e-05
1.23451e-05
1.36252e-05
1.46088e-05
1.53233e-05
1.57947e-05
1.60463e-05
1.60993e-05
1.5972e-05
1.56829e-05
1.48211e-05
1.38587e-05
1.30537e-05
1.23925e-05
1.18647e-05
1.14428e-05
1.0667e-05
9.76115e-06
8.84464e-06
7.92181e-06
6.99631e-06
6.07509e-06
5.16817e-06
4.28946e-06
3.46259e-06
2.33913e-06
1.18828e-06
7.80182e-07
1.00161e-06
1.04105e-06
2.82926e-08
4.51403e-09
1.6885e-06
3.83577e-06
6.73722e-06
1.06667e-05
1.54389e-05
1.68568e-05
1.79664e-05
1.87996e-05
1.93844e-05
1.97454e-05
1.99046e-05
1.88288e-05
1.74217e-05
1.61756e-05
1.50707e-05
1.40772e-05
1.3192e-05
1.24263e-05
1.18067e-05
1.13684e-05
1.11415e-05
1.11269e-05
1.11842e-05
1.03276e-05
9.21012e-06
8.05843e-06
6.8843e-06
5.18295e-06
2.98635e-06
1.64916e-06
1.15966e-06
1.64808e-06
1.08752e-06
3.73052e-08
6.30484e-09
1.76744e-06
4.02083e-06
7.11921e-06
1.12924e-05
1.63394e-05
1.93574e-05
2.04887e-05
2.13273e-05
2.19066e-05
2.22561e-05
2.24015e-05
2.14164e-05
1.96649e-05
1.80315e-05
1.65694e-05
1.52552e-05
1.40747e-05
1.3026e-05
1.21242e-05
1.14018e-05
1.08971e-05
1.06303e-05
1.05693e-05
1.058e-05
1.0374e-05
9.56427e-06
7.93528e-06
5.72155e-06
3.59919e-06
2.20873e-06
1.70641e-06
2.59734e-06
1.13864e-06
4.60585e-08
8.80356e-09
1.74616e-06
4.02713e-06
7.31002e-06
1.17942e-05
1.70883e-05
2.17348e-05
2.28485e-05
2.36562e-05
2.41945e-05
2.44953e-05
2.41448e-05
2.23828e-05
2.05536e-05
1.88314e-05
1.72414e-05
1.57852e-05
1.44534e-05
1.32401e-05
1.21527e-05
1.12183e-05
1.04805e-05
9.97703e-06
9.70899e-06
9.60596e-06
9.46599e-06
8.9409e-06
7.71957e-06
5.87827e-06
3.99314e-06
2.69403e-06
2.2953e-06
3.60593e-06
1.2094e-06
5.40377e-08
1.1323e-08
1.76597e-06
4.12946e-06
7.68413e-06
1.27018e-05
1.86091e-05
2.376e-05
2.48914e-05
2.56623e-05
2.61527e-05
2.6396e-05
2.52407e-05
2.31779e-05
2.11122e-05
1.91965e-05
1.74603e-05
1.58933e-05
1.44702e-05
1.31693e-05
1.19835e-05
1.093e-05
1.00508e-05
9.39201e-06
8.96591e-06
8.72681e-06
8.53159e-06
8.11013e-06
7.17307e-06
5.71234e-06
4.16435e-06
3.08569e-06
2.91401e-06
4.49571e-06
1.27276e-06
6.11681e-08
1.41199e-08
1.78225e-06
4.21338e-06
8.00743e-06
1.35109e-05
1.99222e-05
2.52436e-05
2.68145e-05
2.75518e-05
2.80004e-05
2.74687e-05
2.53778e-05
2.30941e-05
2.09099e-05
1.89239e-05
1.71555e-05
1.5582e-05
1.41667e-05
1.28756e-05
1.16882e-05
1.06088e-05
9.67322e-06
8.92874e-06
8.39078e-06
8.02364e-06
7.71975e-06
7.28092e-06
6.49162e-06
5.3357e-06
4.13109e-06
3.3345e-06
3.46275e-06
5.07172e-06
1.32923e-06
6.72501e-08
1.68332e-08
1.81059e-06
4.31405e-06
8.33312e-06
1.42894e-05
2.11501e-05
2.65796e-05
2.85463e-05
2.92536e-05
2.94578e-05
2.75736e-05
2.5178e-05
2.27276e-05
2.04423e-05
1.84099e-05
1.66348e-05
1.5082e-05
1.37041e-05
1.24575e-05
1.13127e-05
1.02656e-05
9.34466e-06
8.59139e-06
8.01028e-06
7.56241e-06
7.15991e-06
6.66008e-06
5.92579e-06
4.97145e-06
4.04271e-06
3.51436e-06
3.95858e-06
5.3562e-06
1.37379e-06
7.27341e-08
1.96039e-08
1.83617e-06
4.39302e-06
8.58385e-06
1.48929e-05
2.20725e-05
2.75105e-05
3.01855e-05
3.07207e-05
2.95461e-05
2.73852e-05
2.48206e-05
2.22617e-05
1.99272e-05
1.78876e-05
1.61298e-05
1.46071e-05
1.32675e-05
1.20637e-05
1.09624e-05
9.9557e-06
9.06648e-06
8.32902e-06
7.73427e-06
7.23506e-06
6.75433e-06
6.19176e-06
5.47532e-06
4.65356e-06
3.93128e-06
3.62995e-06
4.36435e-06
5.4689e-06
1.41097e-06
7.79193e-08
2.22661e-08
1.86291e-06
4.46638e-06
8.80189e-06
1.54092e-05
2.28474e-05
2.82553e-05
3.07788e-05
3.09669e-05
2.95233e-05
2.71418e-05
2.44284e-05
2.17939e-05
1.94365e-05
1.74045e-05
1.56693e-05
1.41763e-05
1.28697e-05
1.17011e-05
1.06375e-05
9.67026e-06
8.82082e-06
8.11701e-06
7.53363e-06
7.01247e-06
6.48147e-06
5.87152e-06
5.16039e-06
4.42554e-06
3.85092e-06
3.73066e-06
4.71827e-06
5.4829e-06
1.44153e-06
8.30915e-08
2.49916e-08
1.88733e-06
4.52718e-06
8.97827e-06
1.58214e-05
2.34357e-05
2.87735e-05
3.10925e-05
3.10497e-05
2.93997e-05
2.68663e-05
2.40658e-05
2.13965e-05
1.90371e-05
1.70193e-05
1.53043e-05
1.38326e-05
1.25467e-05
1.1399e-05
1.03576e-05
9.41518e-06
8.59405e-06
7.91898e-06
7.35208e-06
6.82492e-06
6.26666e-06
5.62952e-06
4.92633e-06
4.25539e-06
3.79039e-06
3.81495e-06
5.01883e-06
5.46014e-06
1.46808e-06
8.82893e-08
2.76629e-08
1.90992e-06
4.58125e-06
9.13279e-06
1.61802e-05
2.3938e-05
2.92019e-05
3.13356e-05
3.10874e-05
2.92589e-05
2.66031e-05
2.37407e-05
2.10546e-05
1.87033e-05
1.67031e-05
1.50066e-05
1.35508e-05
1.22777e-05
1.11405e-05
1.01098e-05
9.18042e-06
8.37788e-06
7.72597e-06
7.17688e-06
6.65442e-06
6.08784e-06
5.44334e-06
4.75667e-06
4.1394e-06
3.7608e-06
3.90572e-06
5.29929e-06
5.4139e-06
1.49105e-06
9.3511e-08
3.04424e-08
1.93159e-06
4.63169e-06
9.2757e-06
1.65041e-05
2.43634e-05
2.95296e-05
3.14879e-05
3.10676e-05
2.9106e-05
2.6372e-05
2.34805e-05
2.07959e-05
1.84588e-05
1.64745e-05
1.47905e-05
1.33423e-05
1.20724e-05
1.09355e-05
9.90433e-06
8.97595e-06
8.17899e-06
7.53859e-06
7.00076e-06
6.48441e-06
5.91936e-06
5.28114e-06
4.6193e-06
4.05221e-06
3.74706e-06
3.99656e-06
5.55961e-06
5.36441e-06
1.51204e-06
9.87054e-08
3.32006e-08
1.95108e-06
4.67764e-06
9.40803e-06
1.68032e-05
2.47481e-05
2.98181e-05
3.16151e-05
3.10409e-05
2.89667e-05
2.61744e-05
2.32696e-05
2.05965e-05
1.82783e-05
1.63099e-05
1.46351e-05
1.3189e-05
1.19151e-05
1.07698e-05
9.72856e-06
8.79128e-06
7.99036e-06
7.3536e-06
6.82287e-06
6.31435e-06
5.75889e-06
5.13813e-06
4.50896e-06
3.99195e-06
3.75361e-06
4.09934e-06
5.81927e-06
5.31147e-06
1.53144e-06
1.03846e-07
3.60841e-08
1.97064e-06
4.72479e-06
9.54429e-06
1.71025e-05
2.51093e-05
3.00654e-05
3.17058e-05
3.09996e-05
2.8843e-05
2.60215e-05
2.31244e-05
2.04739e-05
1.81776e-05
1.62234e-05
1.45531e-05
1.31028e-05
1.18177e-05
1.06561e-05
9.59593e-06
8.63972e-06
7.82316e-06
7.17874e-06
6.64682e-06
6.14278e-06
5.59932e-06
5.00205e-06
4.41062e-06
3.94425e-06
3.76919e-06
4.20599e-06
6.07258e-06
5.26394e-06
1.5501e-06
1.08909e-07
3.89596e-08
1.98865e-06
4.77e-06
9.67779e-06
1.73935e-05
2.54517e-05
3.02947e-05
3.17886e-05
3.09643e-05
2.87411e-05
2.5905e-05
2.30269e-05
2.0406e-05
1.8135e-05
1.61952e-05
1.45273e-05
1.30686e-05
1.17664e-05
1.05812e-05
9.49393e-06
8.51027e-06
7.66964e-06
7.01031e-06
6.47261e-06
5.97222e-06
5.44378e-06
4.87519e-06
4.32563e-06
3.91094e-06
3.79773e-06
4.32388e-06
6.32985e-06
5.2193e-06
1.56813e-06
1.13882e-07
4.19565e-08
2.00733e-06
4.81854e-06
9.82108e-06
1.76972e-05
2.57901e-05
3.05067e-05
3.18581e-05
3.09315e-05
2.86628e-05
2.58316e-05
2.29859e-05
2.04023e-05
1.81598e-05
1.62348e-05
1.45679e-05
1.30976e-05
1.17735e-05
1.05585e-05
9.43637e-06
8.41595e-06
7.54014e-06
6.85506e-06
6.30343e-06
5.80239e-06
5.28872e-06
4.75108e-06
4.24568e-06
3.88332e-06
3.83122e-06
4.44564e-06
6.58408e-06
5.1828e-06
1.58607e-06
1.18762e-07
4.4952e-08
2.02526e-06
4.86706e-06
9.96585e-06
1.79994e-05
2.61175e-05
3.07086e-05
3.19261e-05
3.09083e-05
2.86053e-05
2.57883e-05
2.29823e-05
2.04411e-05
1.82308e-05
1.63229e-05
1.46574e-05
1.31743e-05
1.18248e-05
1.05753e-05
9.41203e-06
8.34754e-06
7.4288e-06
6.71071e-06
6.14009e-06
5.63618e-06
5.13779e-06
4.63305e-06
4.17345e-06
3.86392e-06
3.87281e-06
4.57588e-06
6.84027e-06
5.15058e-06
1.60366e-06
1.23541e-07
4.80566e-08
2.04413e-06
4.91942e-06
1.01213e-05
1.8316e-05
2.64463e-05
3.09039e-05
3.19921e-05
3.0895e-05
2.85714e-05
2.57801e-05
2.30213e-05
2.05275e-05
1.8353e-05
1.64651e-05
1.48029e-05
1.33072e-05
1.1931e-05
1.0643e-05
9.43276e-06
8.31607e-06
7.34436e-06
6.58267e-06
5.98486e-06
5.47312e-06
4.98815e-06
4.51645e-06
4.10332e-06
3.84696e-06
3.91707e-06
4.70934e-06
7.09359e-06
5.12669e-06
1.62142e-06
1.2822e-07
5.11615e-08
2.06267e-06
4.97247e-06
1.02794e-05
1.8633e-05
2.67668e-05
3.10927e-05
3.20593e-05
3.08913e-05
2.85539e-05
2.57927e-05
2.30843e-05
2.06411e-05
1.85062e-05
1.66423e-05
1.49873e-05
1.34816e-05
1.20794e-05
1.07512e-05
9.48998e-06
8.31537e-06
7.28388e-06
6.47107e-06
5.84019e-06
5.31691e-06
4.84369e-06
4.4046e-06
4.0378e-06
3.83444e-06
3.96592e-06
4.84838e-06
7.3456e-06
5.10667e-06
1.63885e-06
1.3279e-07
5.43604e-08
2.08206e-06
5.02884e-06
1.04469e-05
1.89624e-05
2.70897e-05
3.12799e-05
3.21302e-05
3.08998e-05
2.85565e-05
2.58306e-05
2.31755e-05
2.07856e-05
1.86938e-05
1.68584e-05
1.52149e-05
1.37033e-05
1.22771e-05
1.0908e-05
9.59195e-06
8.35334e-06
7.25388e-06
6.37997e-06
5.70788e-06
5.16738e-06
4.70253e-06
4.29434e-06
3.97309e-06
3.82251e-06
4.01574e-06
4.98941e-06
7.59342e-06
5.09338e-06
1.65635e-06
1.37253e-07
5.7558e-08
2.10111e-06
5.08565e-06
1.06168e-05
1.92924e-05
2.74065e-05
3.14644e-05
3.22051e-05
3.09179e-05
2.85712e-05
2.58808e-05
2.3279e-05
2.09438e-05
1.88984e-05
1.70964e-05
1.54705e-05
1.39584e-05
1.25125e-05
1.11041e-05
9.73204e-06
8.4257e-06
7.25287e-06
6.31073e-06
5.59123e-06
5.02871e-06
4.56873e-06
4.18894e-06
3.91158e-06
3.81294e-06
4.06812e-06
5.13428e-06
7.83802e-06
5.08356e-06
1.6736e-06
1.41595e-07
6.08336e-08
2.1206e-06
5.14462e-06
1.0794e-05
1.96334e-05
2.7728e-05
3.16533e-05
3.22891e-05
3.09498e-05
2.86023e-05
2.59476e-05
2.33992e-05
2.11196e-05
1.91236e-05
1.73595e-05
1.5757e-05
1.42505e-05
1.27895e-05
1.13443e-05
9.91543e-06
8.53724e-06
7.28489e-06
6.26599e-06
5.4916e-06
4.90113e-06
4.44143e-06
4.08661e-06
3.85076e-06
3.80275e-06
4.11968e-06
5.27908e-06
8.07589e-06
5.07798e-06
1.69057e-06
1.45814e-07
6.41058e-08
2.13948e-06
5.20321e-06
1.09729e-05
1.99766e-05
2.80501e-05
3.18484e-05
3.23834e-05
3.09921e-05
2.86413e-05
2.60194e-05
2.35226e-05
2.12993e-05
1.93554e-05
1.76341e-05
1.60612e-05
1.45672e-05
1.30976e-05
1.16202e-05
1.01361e-05
8.68459e-06
7.3489e-06
6.24733e-06
5.41226e-06
4.78859e-06
4.3245e-06
3.99066e-06
3.79339e-06
3.79449e-06
4.17321e-06
5.42706e-06
8.30933e-06
5.07563e-06
1.70739e-06
1.49898e-07
6.74423e-08
2.15832e-06
5.26256e-06
1.11564e-05
2.03297e-05
2.83835e-05
3.20559e-05
3.24932e-05
3.10473e-05
2.86902e-05
2.60995e-05
2.36538e-05
2.14874e-05
1.95979e-05
1.79233e-05
1.63854e-05
1.49102e-05
1.34383e-05
1.19332e-05
1.0396e-05
8.86992e-06
7.44665e-06
6.25621e-06
5.35427e-06
4.69172e-06
4.21796e-06
3.90032e-06
3.73777e-06
3.7854e-06
4.22464e-06
5.57292e-06
8.53496e-06
5.07501e-06
1.7236e-06
1.53836e-07
7.0773e-08
2.1764e-06
5.32075e-06
1.13385e-05
2.06752e-05
2.8693e-05
3.22405e-05
3.25883e-05
3.10985e-05
2.87376e-05
2.61777e-05
2.37827e-05
2.16738e-05
1.98406e-05
1.82165e-05
1.6719e-05
1.52693e-05
1.38022e-05
1.22758e-05
1.06893e-05
9.08957e-06
7.57686e-06
6.29369e-06
5.32013e-06
4.61369e-06
4.12506e-06
3.81858e-06
3.68666e-06
3.77839e-06
4.27803e-06
5.7235e-06
8.76188e-06
5.07923e-06
1.73954e-06
1.57621e-07
7.41566e-08
2.19437e-06
5.37935e-06
1.15233e-05
2.10227e-05
2.89945e-05
3.24177e-05
3.26789e-05
3.1152e-05
2.8789e-05
2.62594e-05
2.39143e-05
2.18628e-05
2.00871e-05
1.85162e-05
1.70635e-05
1.5645e-05
1.4189e-05
1.26473e-05
1.10158e-05
9.34363e-06
7.73997e-06
6.36043e-06
5.31064e-06
4.55531e-06
4.04641e-06
3.74565e-06
3.6396e-06
3.77201e-06
4.33027e-06
5.87328e-06
8.98513e-06
5.08983e-06
1.75578e-06
1.61249e-07
7.7533e-08
2.21165e-06
5.43681e-06
1.1705e-05
2.13562e-05
2.92739e-05
3.25747e-05
3.27526e-05
3.11914e-05
2.88334e-05
2.63351e-05
2.40391e-05
2.20452e-05
2.03286e-05
1.8814e-05
1.74107e-05
1.60293e-05
1.45914e-05
1.30413e-05
1.13701e-05
9.62853e-06
7.93417e-06
6.45657e-06
5.32718e-06
4.51866e-06
3.98439e-06
3.68387e-06
3.5987e-06
3.7684e-06
4.38476e-06
6.0292e-06
9.20576e-06
5.10418e-06
1.77212e-06
1.64708e-07
8.09523e-08
2.22888e-06
5.49539e-06
1.18916e-05
2.16879e-05
2.95437e-05
3.27219e-05
3.28183e-05
3.12252e-05
2.88775e-05
2.64094e-05
2.4161e-05
2.22245e-05
2.05679e-05
1.91115e-05
1.77609e-05
1.64214e-05
1.50074e-05
1.34552e-05
1.17501e-05
9.94268e-06
8.15883e-06
6.58234e-06
5.37028e-06
4.50441e-06
3.93974e-06
3.63395e-06
3.56462e-06
3.76816e-06
4.442e-06
6.19064e-06
9.42456e-06
5.12289e-06
1.78864e-06
1.67991e-07
8.43556e-08
2.24516e-06
5.55243e-06
1.20769e-05
2.20056e-05
2.97924e-05
3.28495e-05
3.28663e-05
3.12424e-05
2.89055e-05
2.64698e-05
2.42712e-05
2.23936e-05
2.07985e-05
1.94027e-05
1.81081e-05
1.68152e-05
1.54312e-05
1.38836e-05
1.21507e-05
1.02821e-05
8.41138e-06
6.73691e-06
5.44026e-06
4.51371e-06
3.91409e-06
3.59775e-06
3.53916e-06
3.77277e-06
4.50269e-06
6.35656e-06
9.6403e-06
5.14435e-06
1.80513e-06
1.71092e-07
8.77828e-08
2.26104e-06
5.60864e-06
1.22608e-05
2.2318e-05
3.00293e-05
3.29656e-05
3.29048e-05
3.12519e-05
2.89273e-05
2.65257e-05
2.43764e-05
2.25565e-05
2.10226e-05
1.96882e-05
1.84519e-05
1.72092e-05
1.58601e-05
1.4323e-05
1.25684e-05
1.06438e-05
8.68959e-06
6.91888e-06
5.53625e-06
4.5463e-06
3.90773e-06
3.57592e-06
3.52318e-06
3.78304e-06
4.56707e-06
6.526e-06
9.85298e-06
5.16907e-06
1.82165e-06
1.74009e-07
9.11905e-08
2.2763e-06
5.6636e-06
1.24416e-05
2.26184e-05
3.02474e-05
3.30637e-05
3.29263e-05
3.12446e-05
2.89328e-05
2.65696e-05
2.44693e-05
2.27064e-05
2.12345e-05
1.99634e-05
1.87882e-05
1.75994e-05
1.629e-05
1.47691e-05
1.29987e-05
1.10234e-05
8.98983e-06
7.12574e-06
5.65701e-06
4.60188e-06
3.92106e-06
3.56938e-06
3.51769e-06
3.79965e-06
4.63527e-06
6.69843e-06
1.0061e-05
5.19563e-06
1.83798e-06
1.76741e-07
9.46093e-08
2.29126e-06
5.71807e-06
1.26214e-05
2.29123e-05
3.04535e-05
3.315e-05
3.29369e-05
3.12266e-05
2.89274e-05
2.66037e-05
2.45517e-05
2.28456e-05
2.14361e-05
2.02294e-05
1.91169e-05
1.79846e-05
1.67184e-05
1.52185e-05
1.34379e-05
1.14174e-05
9.30921e-06
7.35517e-06
5.80103e-06
4.67961e-06
3.95385e-06
3.57842e-06
3.5235e-06
3.82385e-06
4.70857e-06
6.87411e-06
1.02653e-05
5.22464e-06
1.8542e-06
1.79293e-07
9.79937e-08
2.30577e-06
5.77151e-06
1.27981e-05
2.31948e-05
3.06428e-05
3.32202e-05
3.29322e-05
3.11939e-05
2.89069e-05
2.66222e-05
2.46194e-05
2.29711e-05
2.16251e-05
2.0484e-05
1.94359e-05
1.83623e-05
1.71425e-05
1.56677e-05
1.38819e-05
1.18214e-05
9.64334e-06
7.60337e-06
5.96575e-06
4.77806e-06
4.00563e-06
3.60331e-06
3.54115e-06
3.85567e-06
4.78601e-06
7.05258e-06
1.04651e-05
5.25518e-06
1.8702e-06
1.81666e-07
1.01355e-07
2.32001e-06
5.82421e-06
1.2972e-05
2.34677e-05
3.08193e-05
3.32779e-05
3.29142e-05
3.11471e-05
2.88725e-05
2.66278e-05
2.46757e-05
2.30858e-05
2.18033e-05
2.07281e-05
1.9745e-05
1.87315e-05
1.75605e-05
1.61143e-05
1.43279e-05
1.22326e-05
9.98965e-06
7.86808e-06
6.14942e-06
4.89586e-06
4.07543e-06
3.64355e-06
3.57078e-06
3.89655e-06
4.87138e-06
7.23423e-06
1.06611e-05
5.28751e-06
1.886e-06
1.83868e-07
1.04675e-07
2.33393e-06
5.87609e-06
1.31439e-05
2.37338e-05
3.09828e-05
3.33219e-05
3.28839e-05
3.10892e-05
2.88265e-05
2.66192e-05
2.47147e-05
2.31831e-05
2.19665e-05
2.0959e-05
2.0042e-05
1.90897e-05
1.79693e-05
1.65545e-05
1.47713e-05
1.2646e-05
1.03434e-05
8.14523e-06
6.34919e-06
5.03125e-06
4.16251e-06
3.69929e-06
3.61329e-06
3.94771e-06
4.96511e-06
7.42099e-06
1.08544e-05
5.32145e-06
1.90159e-06
1.85898e-07
1.07982e-07
2.34789e-06
5.92885e-06
1.33162e-05
2.39928e-05
3.11342e-05
3.3354e-05
3.28414e-05
3.10184e-05
2.87679e-05
2.65998e-05
2.47456e-05
2.32715e-05
2.2117e-05
2.11765e-05
2.03266e-05
1.94365e-05
1.83682e-05
1.69874e-05
1.52112e-05
1.30606e-05
1.07036e-05
8.43357e-06
6.56374e-06
5.18284e-06
4.26548e-06
3.76943e-06
3.66796e-06
4.0086e-06
5.06628e-06
7.61221e-06
1.10456e-05
5.35717e-06
1.91698e-06
1.87763e-07
1.11245e-07
2.3618e-06
5.98253e-06
1.34858e-05
2.42416e-05
3.12711e-05
3.3372e-05
3.27855e-05
3.09346e-05
2.86957e-05
2.65655e-05
2.47615e-05
2.33464e-05
2.2256e-05
2.138e-05
2.05961e-05
1.97695e-05
1.87548e-05
1.741e-05
1.56438e-05
1.34723e-05
1.10664e-05
8.73024e-06
6.79141e-06
5.34987e-06
4.38416e-06
3.85413e-06
3.73528e-06
4.07996e-06
5.17585e-06
7.80927e-06
1.1236e-05
5.39473e-06
1.93222e-06
1.89469e-07
1.14467e-07
2.37514e-06
6.03533e-06
1.3654e-05
2.44831e-05
3.13957e-05
3.33775e-05
3.27172e-05
3.08386e-05
2.86113e-05
2.65196e-05
2.47663e-05
2.34103e-05
2.23841e-05
2.15742e-05
2.08549e-05
2.009e-05
1.91294e-05
1.78219e-05
1.60684e-05
1.38802e-05
1.14304e-05
9.03374e-06
7.03073e-06
5.53108e-06
4.51761e-06
3.9528e-06
3.81482e-06
4.16133e-06
5.29305e-06
8.01091e-06
1.14252e-05
5.43427e-06
1.94735e-06
1.91031e-07
1.17615e-07
2.38791e-06
6.08666e-06
1.38182e-05
2.47135e-05
3.15064e-05
3.33695e-05
3.26352e-05
3.07282e-05
2.85122e-05
2.64588e-05
2.47568e-05
2.34604e-05
2.24985e-05
2.17548e-05
2.11007e-05
2.03966e-05
1.94891e-05
1.82203e-05
1.64821e-05
1.42811e-05
1.1793e-05
9.34183e-06
7.28019e-06
5.7255e-06
4.6653e-06
4.06527e-06
3.9068e-06
4.25326e-06
5.4188e-06
8.21825e-06
1.16141e-05
5.47579e-06
1.96242e-06
1.92465e-07
1.20707e-07
2.40024e-06
6.13701e-06
1.39803e-05
2.49355e-05
3.16049e-05
3.33488e-05
3.254e-05
3.06043e-05
2.83996e-05
2.63849e-05
2.47353e-05
2.34991e-05
2.26017e-05
2.1924e-05
2.13349e-05
2.06916e-05
1.98359e-05
1.86051e-05
1.68841e-05
1.46739e-05
1.21527e-05
9.65302e-06
7.53833e-06
5.93186e-06
4.82619e-06
4.1908e-06
4.01072e-06
4.35544e-06
5.55281e-06
8.43086e-06
1.18031e-05
5.51955e-06
1.97749e-06
1.93787e-07
1.23708e-07
2.41196e-06
6.18565e-06
1.41376e-05
2.51459e-05
3.16899e-05
3.33147e-05
3.24304e-05
3.04652e-05
2.82713e-05
2.62953e-05
2.46994e-05
2.35239e-05
2.26911e-05
2.20792e-05
2.15549e-05
2.0972e-05
2.0168e-05
1.89743e-05
1.72718e-05
1.50565e-05
1.25074e-05
9.9655e-06
7.80372e-06
6.149e-06
4.99945e-06
4.32895e-06
4.1266e-06
4.46839e-06
5.69611e-06
8.65006e-06
1.19932e-05
5.56558e-06
1.99264e-06
1.95015e-07
1.26627e-07
2.42312e-06
6.23279e-06
1.42915e-05
2.53469e-05
3.17626e-05
3.32672e-05
3.23065e-05
3.03113e-05
2.81282e-05
2.61912e-05
2.46496e-05
2.35355e-05
2.27679e-05
2.2222e-05
2.17619e-05
2.12387e-05
2.04856e-05
1.93287e-05
1.76437e-05
1.54267e-05
1.28558e-05
1.02783e-05
8.07553e-06
6.37616e-06
5.18431e-06
4.47896e-06
4.2538e-06
4.59159e-06
5.84824e-06
8.87526e-06
1.21849e-05
5.61417e-06
2.00795e-06
1.96165e-07
1.29446e-07
2.43366e-06
6.2781e-06
1.44405e-05
2.55363e-05
3.18213e-05
3.32054e-05
3.21673e-05
3.01416e-05
2.79695e-05
2.60715e-05
2.45846e-05
2.3533e-05
2.2831e-05
2.23508e-05
2.19543e-05
2.14898e-05
2.07868e-05
1.96666e-05
1.80002e-05
1.57818e-05
1.31942e-05
1.05887e-05
8.35195e-06
6.61223e-06
5.38013e-06
4.64057e-06
4.39239e-06
4.72556e-06
6.01022e-06
9.1079e-06
1.23794e-05
5.66539e-06
2.02347e-06
1.97253e-07
1.32177e-07
2.44367e-06
6.32189e-06
1.45856e-05
2.57155e-05
3.18669e-05
3.31296e-05
3.20133e-05
2.99569e-05
2.77962e-05
2.59379e-05
2.45062e-05
2.35176e-05
2.28814e-05
2.24666e-05
2.21325e-05
2.17251e-05
2.10705e-05
1.99859e-05
1.83391e-05
1.61231e-05
1.35236e-05
1.08963e-05
8.63203e-06
6.85617e-06
5.58606e-06
4.81308e-06
4.54182e-06
4.86985e-06
6.1817e-06
9.34761e-06
1.25769e-05
5.71928e-06
2.03924e-06
1.9829e-07
1.34804e-07
2.45302e-06
6.36376e-06
1.47257e-05
2.58826e-05
3.18978e-05
3.30384e-05
3.18433e-05
2.97562e-05
2.76073e-05
2.57894e-05
2.44136e-05
2.34888e-05
2.29184e-05
2.25684e-05
2.22956e-05
2.19438e-05
2.13357e-05
2.02854e-05
1.86581e-05
1.64472e-05
1.3841e-05
1.12003e-05
8.91518e-06
7.10746e-06
5.80174e-06
4.99642e-06
4.70235e-06
5.02511e-06
6.3638e-06
9.59594e-06
1.27789e-05
5.77616e-06
2.05537e-06
1.99294e-07
1.37341e-07
2.46184e-06
6.404e-06
1.48614e-05
2.60388e-05
3.19149e-05
3.29324e-05
3.16578e-05
2.95404e-05
2.74044e-05
2.56279e-05
2.43088e-05
2.34484e-05
2.29439e-05
2.26577e-05
2.24447e-05
2.21463e-05
2.15825e-05
2.05648e-05
1.8957e-05
1.67535e-05
1.41453e-05
1.14962e-05
9.19775e-06
7.36387e-06
6.02581e-06
5.18974e-06
4.87341e-06
5.19103e-06
6.55645e-06
9.85296e-06
1.29854e-05
5.83593e-06
2.07187e-06
2.00278e-07
1.39772e-07
2.47e-06
6.44223e-06
1.49917e-05
2.61825e-05
3.19171e-05
3.28106e-05
3.14561e-05
2.93087e-05
2.71868e-05
2.54528e-05
2.41916e-05
2.33963e-05
2.29575e-05
2.27344e-05
2.25797e-05
2.23324e-05
2.18103e-05
2.08229e-05
1.9234e-05
1.70402e-05
1.44359e-05
1.17871e-05
9.48107e-06
7.62533e-06
6.25793e-06
5.39288e-06
5.05524e-06
5.36826e-06
6.76082e-06
1.01203e-05
1.31974e-05
5.89887e-06
2.08887e-06
2.01255e-07
1.42107e-07
2.47762e-06
6.47873e-06
1.51171e-05
2.63149e-05
3.19054e-05
3.26738e-05
3.12387e-05
2.90621e-05
2.69554e-05
2.52656e-05
2.40641e-05
2.33342e-05
2.29606e-05
2.27993e-05
2.27009e-05
2.25023e-05
2.20189e-05
2.10591e-05
1.94882e-05
1.73062e-05
1.47117e-05
1.20715e-05
9.76307e-06
7.89015e-06
6.49688e-06
5.60506e-06
5.24742e-06
5.55678e-06
6.97734e-06
1.03987e-05
1.34154e-05
5.96492e-06
2.10638e-06
2.02241e-07
1.44336e-07
2.48454e-06
6.51301e-06
1.52365e-05
2.64344e-05
3.18786e-05
3.25208e-05
3.10048e-05
2.87999e-05
2.671e-05
2.50657e-05
2.39255e-05
2.32615e-05
2.29528e-05
2.28525e-05
2.28089e-05
2.26565e-05
2.22087e-05
2.12736e-05
1.97192e-05
1.75511e-05
1.49722e-05
1.2349e-05
1.00436e-05
8.15767e-06
6.74181e-06
5.82563e-06
5.44973e-06
5.75688e-06
7.20687e-06
1.06893e-05
1.36396e-05
6.03422e-06
2.12448e-06
2.03249e-07
1.4647e-07
2.49092e-06
6.54556e-06
1.53511e-05
2.65429e-05
3.1838e-05
3.23525e-05
3.07552e-05
2.85231e-05
2.64518e-05
2.48545e-05
2.37766e-05
2.3179e-05
2.2935e-05
2.28949e-05
2.29042e-05
2.27952e-05
2.23797e-05
2.1466e-05
1.99265e-05
1.77736e-05
1.52156e-05
1.26176e-05
1.03208e-05
8.42631e-06
6.99139e-06
6.05346e-06
5.6613e-06
5.96813e-06
7.44966e-06
1.0993e-05
1.38699e-05
6.10657e-06
2.14321e-06
2.04289e-07
1.48506e-07
2.49664e-06
6.576e-06
1.546e-05
2.66392e-05
3.17825e-05
3.21681e-05
3.04894e-05
2.82317e-05
2.6181e-05
2.46324e-05
2.36182e-05
2.30876e-05
2.29082e-05
2.29271e-05
2.29877e-05
2.29194e-05
2.25326e-05
2.16369e-05
2.011e-05
1.79729e-05
1.54402e-05
1.28746e-05
1.05927e-05
8.69502e-06
7.24516e-06
6.2885e-06
5.88246e-06
6.19126e-06
7.70688e-06
1.13112e-05
1.41072e-05
6.18207e-06
2.1626e-06
2.0537e-07
1.50461e-07
2.50189e-06
6.60496e-06
1.55649e-05
2.67249e-05
3.1713e-05
3.19679e-05
3.02081e-05
2.79267e-05
2.58989e-05
2.44007e-05
2.34513e-05
2.29882e-05
2.2873e-05
2.29501e-05
2.306e-05
2.30299e-05
2.26683e-05
2.17869e-05
2.02702e-05
1.8149e-05
1.56449e-05
1.31178e-05
1.08569e-05
8.96163e-06
7.50146e-06
6.52953e-06
6.11223e-06
6.42562e-06
7.97842e-06
1.16439e-05
1.43504e-05
6.26054e-06
2.1827e-06
2.06502e-07
1.52334e-07
2.50653e-06
6.63206e-06
1.56649e-05
2.67992e-05
3.16284e-05
3.17511e-05
2.99107e-05
2.76079e-05
2.56055e-05
2.41598e-05
2.32767e-05
2.28816e-05
2.28306e-05
2.2965e-05
2.31227e-05
2.3128e-05
2.27884e-05
2.19176e-05
2.04084e-05
1.83025e-05
1.58296e-05
1.3346e-05
1.11116e-05
9.2244e-06
7.75886e-06
6.77557e-06
6.35018e-06
6.67111e-06
8.26468e-06
1.19915e-05
1.45989e-05
6.34177e-06
2.20351e-06
2.07693e-07
1.54143e-07
2.51077e-06
6.65798e-06
1.57618e-05
2.68639e-05
3.15299e-05
3.15183e-05
2.9598e-05
2.72765e-05
2.53024e-05
2.39111e-05
2.30955e-05
2.27691e-05
2.27821e-05
2.2973e-05
2.31768e-05
2.32152e-05
2.28943e-05
2.20308e-05
2.05262e-05
1.84348e-05
1.59946e-05
1.35582e-05
1.13551e-05
9.48129e-06
8.01549e-06
7.0252e-06
6.59512e-06
6.92717e-06
8.56556e-06
1.23542e-05
1.48519e-05
6.42537e-06
2.22498e-06
2.08943e-07
1.55884e-07
2.51447e-06
6.68233e-06
1.58547e-05
2.69177e-05
3.14162e-05
3.12686e-05
2.92693e-05
2.69321e-05
2.49895e-05
2.36549e-05
2.29084e-05
2.26512e-05
2.27282e-05
2.29749e-05
2.32236e-05
2.32928e-05
2.29876e-05
2.21282e-05
2.06259e-05
1.8548e-05
1.61416e-05
1.37551e-05
1.1587e-05
9.73116e-06
8.2699e-06
7.27706e-06
6.84662e-06
7.195e-06
8.88163e-06
1.2732e-05
1.51087e-05
6.51107e-06
2.2471e-06
2.10256e-07
1.5757e-07
2.51779e-06
6.70565e-06
1.5945e-05
2.69625e-05
3.12888e-05
3.10031e-05
2.89261e-05
2.65765e-05
2.46685e-05
2.33929e-05
2.27167e-05
2.25293e-05
2.26701e-05
2.2972e-05
2.32642e-05
2.33621e-05
2.30699e-05
2.22117e-05
2.07093e-05
1.86441e-05
1.62723e-05
1.3937e-05
1.18067e-05
9.97284e-06
8.52086e-06
7.53039e-06
7.10465e-06
7.47409e-06
9.21323e-06
1.31251e-05
1.53686e-05
6.59847e-06
2.26982e-06
2.11631e-07
1.59204e-07
2.52069e-06
6.72787e-06
1.60325e-05
2.69977e-05
3.11468e-05
3.0721e-05
2.85678e-05
2.62097e-05
2.43398e-05
2.31253e-05
2.25208e-05
2.24037e-05
2.26083e-05
2.29648e-05
2.32992e-05
2.34241e-05
2.31426e-05
2.22835e-05
2.07797e-05
1.8727e-05
1.63909e-05
1.41066e-05
1.20151e-05
1.02061e-05
8.76738e-06
7.78384e-06
7.36752e-06
7.76317e-06
9.55989e-06
1.35328e-05
1.56307e-05
6.68714e-06
2.29306e-06
2.1307e-07
1.60791e-07
2.52322e-06
6.74915e-06
1.61176e-05
2.70241e-05
3.09915e-05
3.0424e-05
2.81967e-05
2.58339e-05
2.40054e-05
2.28541e-05
2.23223e-05
2.22757e-05
2.25436e-05
2.29537e-05
2.33288e-05
2.34786e-05
2.32056e-05
2.23437e-05
2.08381e-05
1.87993e-05
1.65013e-05
1.42662e-05
1.22135e-05
1.04312e-05
9.00922e-06
8.03696e-06
7.6351e-06
8.06273e-06
9.92172e-06
1.39549e-05
1.58944e-05
6.77678e-06
2.31679e-06
2.1457e-07
1.62335e-07
2.52542e-06
6.76968e-06
1.6201e-05
2.70415e-05
3.08219e-05
3.01112e-05
2.78124e-05
2.54493e-05
2.36659e-05
2.258e-05
2.2122e-05
2.2146e-05
2.24769e-05
2.29396e-05
2.3354e-05
2.35267e-05
2.32601e-05
2.2394e-05
2.08866e-05
1.8864e-05
1.66072e-05
1.44186e-05
1.24033e-05
1.06485e-05
9.24586e-06
8.2887e-06
7.90595e-06
8.37101e-06
1.02975e-05
1.43895e-05
1.61579e-05
6.86685e-06
2.34088e-06
2.16129e-07
1.63838e-07
2.52725e-06
6.7894e-06
1.62824e-05
2.70503e-05
3.0639e-05
2.97842e-05
2.74168e-05
2.50581e-05
2.33233e-05
2.23047e-05
2.19211e-05
2.20155e-05
2.24085e-05
2.29225e-05
2.33744e-05
2.35679e-05
2.33056e-05
2.24341e-05
2.09256e-05
1.89217e-05
1.67094e-05
1.45654e-05
1.2586e-05
1.0859e-05
9.47771e-06
8.53907e-06
8.18005e-06
8.68825e-06
1.06875e-05
1.48358e-05
1.64202e-05
6.95677e-06
2.36541e-06
2.17742e-07
1.65302e-07
2.52875e-06
6.80842e-06
1.63621e-05
2.70497e-05
3.04418e-05
2.94421e-05
2.70098e-05
2.46606e-05
2.29784e-05
2.20292e-05
2.1721e-05
2.18856e-05
2.23397e-05
2.29036e-05
2.33911e-05
2.36031e-05
2.33429e-05
2.24646e-05
2.09552e-05
1.89719e-05
1.68064e-05
1.47061e-05
1.27621e-05
1.10632e-05
9.70472e-06
8.78738e-06
8.45618e-06
9.01295e-06
1.10902e-05
1.52923e-05
1.66802e-05
7.04634e-06
2.39029e-06
2.19409e-07
1.66725e-07
2.5299e-06
6.82661e-06
1.64396e-05
2.70396e-05
3.02305e-05
2.90856e-05
2.65926e-05
2.42581e-05
2.26325e-05
2.1755e-05
2.15229e-05
2.17573e-05
2.22713e-05
2.28834e-05
2.34044e-05
2.36327e-05
2.33726e-05
2.24864e-05
2.09762e-05
1.90149e-05
1.68976e-05
1.48408e-05
1.29321e-05
1.1262e-05
9.92787e-06
9.0344e-06
8.7348e-06
9.3452e-06
1.1505e-05
1.57577e-05
1.69373e-05
7.1353e-06
2.41543e-06
2.21119e-07
1.68101e-07
2.53065e-06
6.84385e-06
1.65147e-05
2.70196e-05
3.00046e-05
2.87143e-05
2.61648e-05
2.38508e-05
2.22862e-05
2.14834e-05
2.13282e-05
2.16318e-05
2.22044e-05
2.28626e-05
2.34149e-05
2.36571e-05
2.3395e-05
2.24997e-05
2.0989e-05
1.90509e-05
1.69823e-05
1.49688e-05
1.30954e-05
1.14548e-05
1.01466e-05
9.27958e-06
9.01537e-06
9.68446e-06
1.19311e-05
1.62304e-05
1.71894e-05
7.22284e-06
2.44067e-06
2.22874e-07
1.69438e-07
2.53101e-06
6.86014e-06
1.65872e-05
2.69893e-05
2.97639e-05
2.8328e-05
2.57266e-05
2.34388e-05
2.194e-05
2.12161e-05
2.11383e-05
2.15101e-05
2.21398e-05
2.28423e-05
2.34234e-05
2.3677e-05
2.34108e-05
2.25055e-05
2.0995e-05
1.90816e-05
1.70619e-05
1.50914e-05
1.32533e-05
1.16427e-05
1.03616e-05
9.52325e-06
9.29782e-06
1.00303e-05
1.23674e-05
1.67081e-05
1.74359e-05
7.30863e-06
2.46586e-06
2.24671e-07
1.70724e-07
2.53096e-06
6.87531e-06
1.66567e-05
2.6948e-05
2.95069e-05
2.79255e-05
2.52773e-05
2.30215e-05
2.15932e-05
2.09532e-05
2.09533e-05
2.13927e-05
2.20784e-05
2.28237e-05
2.34313e-05
2.36936e-05
2.34212e-05
2.25051e-05
2.09956e-05
1.91088e-05
1.71372e-05
1.52089e-05
1.34062e-05
1.18263e-05
1.05736e-05
9.76589e-06
9.58238e-06
1.03826e-05
1.2813e-05
1.71889e-05
1.76765e-05
7.39283e-06
2.491e-06
2.26505e-07
1.7197e-07
2.53051e-06
6.88949e-06
1.67239e-05
2.68962e-05
2.92335e-05
2.75061e-05
2.48162e-05
2.25982e-05
2.12441e-05
2.06899e-05
2.077e-05
2.12784e-05
2.20207e-05
2.2808e-05
2.34403e-05
2.37088e-05
2.34282e-05
2.2501e-05
2.09943e-05
1.91367e-05
1.72107e-05
1.53228e-05
1.35548e-05
1.20058e-05
1.07825e-05
1.0007e-05
9.86826e-06
1.07406e-05
1.3267e-05
1.76711e-05
1.79101e-05
7.475e-06
2.51602e-06
2.28373e-07
1.7317e-07
2.52964e-06
6.90241e-06
1.67876e-05
2.68325e-05
2.89424e-05
2.70691e-05
2.43432e-05
2.21695e-05
2.08943e-05
2.04292e-05
2.05914e-05
2.11699e-05
2.19688e-05
2.27968e-05
2.34515e-05
2.37236e-05
2.34327e-05
2.24943e-05
2.09927e-05
1.91675e-05
1.72839e-05
1.54337e-05
1.36996e-05
1.21819e-05
1.09893e-05
1.02483e-05
1.01573e-05
1.11051e-05
1.37286e-05
1.81532e-05
1.81368e-05
7.55495e-06
2.54079e-06
2.30269e-07
1.74343e-07
2.52851e-06
6.91481e-06
1.685e-05
2.67579e-05
2.86326e-05
2.6613e-05
2.38571e-05
2.17337e-05
2.05416e-05
2.01687e-05
2.04153e-05
2.1066e-05
2.19229e-05
2.27918e-05
2.34674e-05
2.37406e-05
2.34373e-05
2.24873e-05
2.09928e-05
1.92026e-05
1.7358e-05
1.55427e-05
1.3841e-05
1.23545e-05
1.11935e-05
1.04884e-05
1.04479e-05
1.14758e-05
1.4198e-05
1.86349e-05
1.83567e-05
7.63286e-06
2.56536e-06
2.32186e-07
1.75479e-07