/*--------------------------------*- C++ -*----------------------------------*\
| =========                 |                                                 |
| \\      /  F ield         | OpenFOAM: The Open Source CFD Toolbox           |
|  \\    /   O peration     | Version:  v1912                                 |
|   \\  /    A nd           | Website:  www.openfoam.com                      |
|    \\/     M anipulation  |                                                 |
\*---------------------------------------------------------------------------*/
FoamFile
{
    version     2.0;
    format      ascii;
    class       volScalarField;
    location    "292/oil";
    object      wallHeatFlux;
}
// * * * * * * * * * * * * * * * * * * * * * * * * * * * * * * * * * * * * * //

dimensions      [1 0 -3 0 0 0 0];


internalField   uniform 0;

boundaryField
{
    maxY
    {
        type            calculated;
        value           uniform 0;
    }
    minX
    {
        type            calculated;
        value           uniform 0;
    }
    maxX
    {
        type            calculated;
        value           uniform 0;
    }
    minY
    {
        type            calculated;
        value           uniform 0;
    }
    minZ
    {
        type            calculated;
        value           uniform 0;
    }
    maxZ
    {
        type            calculated;
        value           uniform 0;
    }
    oil_to_sphere
    {
        type            calculated;
        value           nonuniform List<scalar> 
1536
(
593.747
654.416
549.2
533.167
330.215
371.328
359.394
24.3631
-25.6577
718.897
317.564
735.192
760.584
733.911
526.244
324.257
36.0679
-19.6694
-849.175
757.159
718.855
382.199
363.519
335.289
400.662
399.54
399.731
338.631
655.127
637.859
550.475
226.672
141.595
404.75
329.322
320.905
268.588
464.121
383.641
454.979
383.014
321.737
627.891
735.585
651.573
725.639
378.862
381.48
505.504
406.461
385.79
388.296
352.656
371.438
186.275
119.173
365.551
362.032
-13.9989
-368.518
-291.579
-378.099
-305.285
757.101
765.612
731.08
657.341
729.787
590.176
646.527
409.536
372.359
548.889
387.892
330.407
149.49
106.412
79.0787
326.384
-19.9787
-380.56
-304.997
-464.996
-472.779
-253.316
-296.93
-452.702
31.1437
-21.1903
-369.54
-298.488
-850.247
-848.191
763.474
766.99
737.929
674.222
704.157
733.86
583.96
663.402
404.372
585.509
554.184
379.592
387.235
336.455
86.3244
315
155.939
100.723
140.192
-371.41
-291.75
-458.848
-448.757
-461.671
-257.738
-297.344
-245.611
-15.8674
-297.146
-849.457
730.864
583.4
644.829
590.975
638.511
385.04
389.007
398.749
384.806
389.278
378.178
395.132
394.355
371.635
120.835
356.632
353.315
-366.611
-292.743
33.882
-14.1918
-303.842
-28.4624
510.759
507.763
353.039
418.418
547.444
504.396
378.316
397.715
383.986
265.138
197.021
205.319
511.915
486.85
509.801
572.758
443.876
397.125
321.636
271.924
371.284
286.59
202.531
213.815
612.674
474.983
640.003
459.925
217.583
97.8702
517.219
523.101
547.434
495.473
440.438
392.743
274.003
382.898
235.261
217.439
202.105
674.065
498.178
551.56
604.467
516.569
586.909
540.352
247.622
249.835
287.819
296.71
232.334
261.36
286.081
327.374
-22.6417
-52.1667
-81.1764
-1.35406
35.7848
19.4247
78.7552
53.3433
-44.8458
-104.481
-136.031
698.771
791.26
764.69
704.123
708.385
717.46
703.226
688.088
737.185
661.862
692.842
693.704
523.665
518.997
646.694
576.305
422.475
276.079
238.246
370.452
249.333
-44.0171
-12.8723
-73.041
0.876716
29.1215
-62.7612
-110.376
-539.956
-598.826
749.773
701.556
718.329
692.076
728.841
793.931
731.413
691.143
490.342
409.586
491.854
504.426
259.278
330.124
-36.1536
-98.3243
38.8548
106.391
70.4667
-128.088
-603.03
-546.139
-714.52
-716.283
-537.574
716.526
686.119
680.338
663.351
691.447
696.821
674.202
722.475
812.353
749.018
687.176
584.599
508.148
513.676
568.875
651.325
582.067
517.311
515.552
270.064
278.689
328.281
342.688
284.967
327.604
-71.363
-104.031
-55.275
16.8521
-11.8513
34.0255
20.7057
24.4283
-74.0948
-117.933
-4.40218
-58.9879
418.232
350.76
369.8
270.756
235.56
218.851
179.352
627.787
572.067
655.619
616.404
572.463
619.004
640.208
660.668
700.847
633.732
651.332
637.521
781.072
716.284
694.808
654.891
704.961
745.793
690.472
598.141
620.377
642.669
575.505
646.096
664.034
700.575
696.452
734.841
719.897
707.547
673.836
673.131
664.846
674.504
625.579
626.66
583.577
624.151
562.781
582.52
663.489
509.269
612.605
521.087
544.452
493.678
422.643
607.325
512.757
504.876
566.791
425.041
476.273
508.925
414.291
452.261
378.599
527.282
604.021
514.376
522.637
543.615
439.923
481.551
471.358
273.379
306.211
260.437
203.888
163.538
208.386
119.398
89.5653
281.519
311.608
273.056
218.29
175.418
236.57
119.347
88.6387
66.6741
233.606
84.9128
216.22
179.432
221.79
119.326
277.444
317.603
267.001
309.747
108.127
70.1364
216.399
178.177
229.986
108.47
78.4719
17.0441
-17.9827
12.7067
-20.4061
-74.9609
-72.7498
-115.997
-31.5259
-96.3878
39.803
-125.382
-107.653
-147.465
-190.061
-127.292
-152.63
-220.771
-256.17
-325.266
-13.3799
-42.0852
-79.2251
3.80319
-103.017
-71.5667
-220.647
-261.734
-283.035
-324.309
-143.672
-183.473
-125.046
-150.579
-164.293
13.7337
-20.8892
15.7214
22.2406
-72.3257
-118.579
-18.2254
-62.7474
908.337
835.808
774.502
891.061
788.222
805.887
839.642
741.68
764.519
791.104
784.481
693.74
743.34
675.211
667.666
647.331
644.913
673.522
657.671
704.379
742.217
619.17
706.82
632.753
671.111
638.414
712.745
650.731
712.424
685.782
727.954
692.424
621.782
658.865
584.371
639.262
497.97
541.317
531.323
388.908
451.023
439.826
524.712
388.436
506.78
379
447.463
398.913
332.579
370.896
278.611
249.013
181.069
223.001
204.341
157.56
97.2791
222.451
96.5993
321.855
267.236
197.624
-104.48
-149.266
-183.529
-117.171
-146.894
-41.3094
-102.381
35.024
-132.416
-225.101
-250.511
-318.751
-414.111
-482.996
-407.258
-479.724
-353.235
-292.158
-355.691
-426.556
-408.829
-51.8938
-17.8247
-81.6027
-1.85144
-138.263
-181.976
-118.344
-158.603
-48.7622
-107.919
13.8045
69.033
-129.973
-223.785
-158.921
-256.328
-324.345
-185.239
-544.214
-599.807
-538.079
-598.742
-710.097
-710.381
-711.99
-712.926
-602.515
866.755
761.904
807.165
792.574
765.23
868.327
804.92
788.898
760.27
700.246
782.925
794.668
823.212
704.802
704.757
744.804
751.267
619.448
687.302
619.167
717.464
677.521
673.387
650.302
688.043
645.951
682.026
722.256
652.667
611.391
592.213
682.802
719.718
618.935
697.825
628.494
584.97
731.104
675.749
667.654
687.431
636.727
635.549
667.966
711.233
638.751
588.514
526.357
500.938
453.85
397.828
459.631
561.053
538.332
529.064
475.973
470.326
436.784
439.205
446.482
386.435
390.35
274.34
366.641
236.114
284.925
222.47
183.006
411.236
330.14
116.925
240.718
95.294
243.475
153.781
95.2462
205.025
213.043
203.883
206.879
187.02
378.397
256.3
-224.141
-247.642
-278.098
-317.005
-14.3309
-50.4823
-77.9347
0.0807097
-103.515
-71.8482
-178.113
-125.887
-120.394
-151.782
-169.014
-350.357
-349.731
-288.091
-422.118
-411.478
-483.857
-407.631
-406.585
-486.157
-297.514
-360.245
-354.607
-287.864
-425.47
-46.6869
-104.923
27.1589
60.0694
-128.574
-221.157
-156.192
-261.42
-283.914
-181.919
-63.6106
-113.61
-21.5211
-45.5118
-79.646
0.119149
26.4521
-185.024
-146.877
-120.731
-157.029
-164.766
-713.485
-710.115
-538.015
-543.513
-596.627
-602.622
-472.513
-545.68
-602.869
571.937
641.703
627.059
566.628
629.969
568.923
565.713
712.772
687.85
745.316
690.071
622.235
666.216
642.831
701.078
650.661
675.08
621.906
625.67
715.264
674.332
655.49
662.067
636.826
634.539
657.758
591.467
581.91
624.515
653.833
618.452
682.529
641.783
742.772
624.085
592.803
609.649
623.77
585.128
570.827
665.574
517.805
447.919
449.925
490.093
391.791
597.833
511.548
509.139
551.774
477.883
479.803
440.767
566.828
498.819
510.638
549.205
429.683
439.236
500.814
487.561
390.708
537.916
593.508
527.89
540.932
482.92
481.018
449.337
447.924
386.193
214.15
175.142
223.669
118.547
105.119
73.1356
302.169
249.469
310.672
274.303
174.676
216.414
215.256
106.893
77.6315
86.5365
277.205
273.727
316.682
267.295
318.022
103.02
119.673
209.492
169.374
216.912
102.154
75.6104
328.614
263.061
269.306
290.301
325.126
118.053
83.5173
180.123
224.508
223.892
-21.6813
16.7125
-73.9279
-78.9334
-122.274
13.7572
-18.9418
18.6563
-144.41
-184.821
-122.646
-157.724
-210.049
-141.269
-249.334
-320.249
-175.37
-46.9607
-21.7868
-82.2764
1.84693
64.3845
143.958
-15.4686
-83.4516
-119.515
-100.013
-42.7667
-221.989
-162.48
-257.957
-272.584
-189.966
-139.416
-179.082
-128.912
-143
-164.171
15.6776
62.0567
-42.7446
-104.112
-133.082
1.61938
33.7425
-45.2043
-15.0043
-74.3883
556.404
520.691
105.853
49.9933
731.781
676.952
714.287
726.717
713.673
505.76
589.847
560.401
589.143
317.72
387.254
50.2265
-473.749
-517.376
551.957
548.044
28.8024
-469.973
-520.915
-367.686
727.372
517.87
362.906
-376.982
592.213
542.054
573.495
312.396
398.557
382.98
23.5029
555.164
591.644
380.821
395.499
577.58
376.469
390.352
291.903
330.622
79.3041
144.643
193.349
522.201
561.349
368.361
439.558
309.415
357.819
79.587
143.593
157.658
512.31
582.855
373.362
469.726
175.53
88.0672
163.104
276.955
446.343
430.633
579.453
599.214
395.54
386.144
363.494
388.187
154.247
88.7102
154.199
34.6686
793.93
757.245
582.351
703.703
577.567
736.837
718.332
391.989
526.455
523.665
549.557
520.407
372.56
168.973
142.927
142.334
151.153
146.73
129.242
-211.8
49.454
-244.019
-204.181
765.14
722.663
777.804
731.967
764.546
740.377
764.442
755.169
783.447
746.243
581.417
707.663
579.758
641.618
584.415
371.193
454.128
510.372
609.145
404.56
564.283
369.813
87.544
155.087
176.92
101.293
138.785
139.127
35.9555
-206.394
-265.169
-300.374
-284.663
47.6426
-213.603
-512.608
-510.942
-516.956
793.734
762.284
743.866
815.021
751.426
779.928
744.984
797.393
773.008
587.964
704.016
558.926
724.22
716.165
675.386
712.874
659.992
571.125
602.803
365.926
497.023
609.34
521.086
592.598
395.339
82.1584
160.675
305.093
380.668
128.584
192.341
97.681
150.776
361.002
52.4649
-210.315
-308.622
-263.516
-303.001
43.3358
-214.129
-509.105
-516.106
-514.331
759.22
633.631
593.803
730.155
572.252
392.841
549.315
528.112
526.628
520.489
135.312
195.028
132.219
131.601
137.092
-213.75
62.6897
-199.625
62.5391
575.09
505.935
437.921
499.48
585.518
517.692
223.914
273.634
221.203
536.539
582.827
531.1
462.584
581.75
426.246
492.474
480.112
419.613
529.36
475.297
573.923
448.839
476.071
477.621
445.294
323.374
308.649
228.807
225.009
168.773
101.837
212.988
151.481
187.51
581.584
494.592
453.447
496.286
555.492
420.876
435.508
440.738
355.681
488.144
272.727
348.35
326.339
236.989
240.705
179.475
102.189
203.995
143.745
189.62
501.837
554.908
421.166
425.209
449.365
344.359
484.646
314.307
221.657
143.015
225.547
184.696
211.591
670.113
674.448
662.721
683.222
441.539
564.511
535.099
278.158
280.006
328.904
321.279
316.443
22.5589
85.8863
67.5364
-56.4641
-79.6549
95.2442
36.6465
34.4527
684.262
699.432
723.429
662.942
466.34
529.491
434.672
591.617
514.749
313.551
311.219
238.377
32.0568
115.444
67.7761
-52.1215
-351.3
-340.306
-422.365
-412.591
-485.273
-534.914
684.917
675.669
675.354
652.571
710.22
498.994
564.126
536.785
266.679
-76.665
79.8863
-412.548
-485.815
-540.135
-617.14
-325.144
683.57
690.779
723.606
679.837
708.961
706.801
687.686
672.046
710.098
425.892
482.435
637.952
519.916
321.731
321.185
30.6686
85.0843
25.504
-17.1436
66.6953
-61.6263
-319.363
313.851
68.8425
617.426
590.672
500.893
503.339
315.513
262.938
298.064
204.903
140.069
217.546
148.875
151.852
121.694
789.229
760.922
546.801
557.397
622.173
670.239
656.137
670.16
563.151
619.284
597.691
653.159
563.696
614.982
693.749
662.291
667.793
662.222
557.715
594.283
615.215
646.039
681.571
714.752
688.66
706.19
633.688
560.862
608.446
712.718
686.286
717.084
687.193
565.639
673.513
701.038
652.254
592.284
616.001
597.582
498.907
465.146
612.995
502.71
444.086
441.858
369.858
379.246
375.704
459.937
583.811
528.5
391.667
384.171
445.125
393.683
460.338
560.693
486.491
385.064
337.119
325.728
195.966
217.15
100.363
328.331
197.846
229.147
111.182
285.372
329.001
203.258
108.986
322.54
170.939
204.628
28.0976
26.734
-78.2217
-70.3807
-166.827
-160.38
-66.8941
-153.769
-178.036
-255.389
-288.497
-291.366
-241.244
17.2456
-54.3851
-158.315
-188.587
-249.591
-245.43
-291.547
-16.7543
29.7104
-162.509
802.258
736.727
770.07
699.661
730.983
801.38
677.552
870.78
735.017
752.608
742.655
803.914
747.876
796.87
874.795
806.166
734.405
780.811
632.184
681.364
753.471
703.087
581.483
664.413
618.761
690.258
659.665
682.343
660.226
715.762
621.916
552.357
585.922
630.673
710.611
672.946
667.163
634.809
429.221
475.537
386.747
504.312
553.59
434.874
475.675
491.943
504.927
513.222
563.521
441.205
272.177
225.77
176.623
240.573
319.466
137.118
155.675
212.186
279.056
222.254
165.115
97.2754
-242.869
-273.628
-282.619
-79.9679
-158.797
-188.27
-252.38
18.044
43.7425
-249.783
-282.124
-77.9957
-247.547
-536.741
-534.533
-609.227
-472.373
-613.897
-526.195
-454.064
817.808
732.999
839.529
776.577
769.565
720.688
734.064
677.652
790.92
840.657
795.626
738.305
723.236
706.655
748.921
752.177
751.132
632.058
717.719
613.754
703.504
717.042
675.784
543.419
696.036
645.713
675.675
663.375
630.869
666.217
663.758
582.657
613.3
557.333
480
579.016
504.101
438.678
413.698
349.33
447.328
569.849
485.715
490.611
297.795
150.768
170.458
262.974
255.015
189.983
241.224
232.006
218.527
165.438
308.941
313.875
-157.626
-185.62
-248.802
31.3016
-49.6485
-248.015
-285.346
-73.7275
-244.318
19.7755
-254.066
-613.285
-527.221
-453.533
800.738
679.275
575.301
659.417
568.186
575.097
609.812
710.414
679.819
669.773
581.852
620.012
643.868
634.134
689.232
663.791
677.568
661.912
632.747
559.05
659.494
607.27
595.464
511.211
391.389
471.816
611.281
496.956
441.976
379.264
379.055
455.443
571.792
381.607
450.536
568.293
392.236
192.748
117.661
291.885
325.899
296.376
190.567
232.827
314.095
173.96
320.922
174.363
-170.633
27.8713
-252.022
-283.641
-235.672
21.6368
80.15
-67.1369
-251.658
-236.367
-82.0766
24.2145
)
;
    }
}


// ************************************************************************* //
