/*--------------------------------*- C++ -*----------------------------------*\
| =========                 |                                                 |
| \\      /  F ield         | OpenFOAM: The Open Source CFD Toolbox           |
|  \\    /   O peration     | Version:  v1906                                 |
|   \\  /    A nd           | Web:      www.OpenFOAM.com                      |
|    \\/     M anipulation  |                                                 |
\*---------------------------------------------------------------------------*/
FoamFile
{
    version     2.0;
    format      ascii;
    class       volScalarField;
    location    "43";
    object      alphat;
}
// * * * * * * * * * * * * * * * * * * * * * * * * * * * * * * * * * * * * * //

dimensions      [1 -1 -1 0 0 0 0];


internalField   nonuniform List<scalar> 
78750
(
1.3366e-08
7.04789e-07
7.99267e-07
8.14718e-07
7.98792e-07
7.65118e-07
7.22336e-07
6.76883e-07
6.33015e-07
5.93192e-07
5.58545e-07
5.29343e-07
5.05341e-07
4.8602e-07
4.70745e-07
4.58848e-07
4.49667e-07
4.42541e-07
4.36895e-07
4.32321e-07
4.28496e-07
4.25056e-07
4.21677e-07
4.18039e-07
4.13772e-07
4.08381e-07
4.01102e-07
3.90675e-07
3.74998e-07
3.50721e-07
3.13219e-07
2.59538e-07
1.94267e-07
1.35611e-07
4.47133e-09
1.54029e-09
1.34469e-06
3.05901e-06
4.37655e-06
5.01353e-06
5.38113e-06
5.57257e-06
5.65707e-06
5.68045e-06
5.67144e-06
5.64723e-06
5.61713e-06
5.58552e-06
5.55391e-06
5.5223e-06
5.48991e-06
5.45555e-06
5.41773e-06
5.37494e-06
5.32582e-06
5.26867e-06
5.20118e-06
5.12071e-06
5.02415e-06
4.90772e-06
4.76663e-06
4.5943e-06
4.38119e-06
4.11376e-06
3.74535e-06
2.16237e-06
1.29197e-06
1.05823e-06
1.29194e-06
1.99602e-08
1.75568e-09
1.38553e-06
2.35837e-06
3.10825e-06
3.63551e-06
3.98267e-06
4.20838e-06
4.36332e-06
4.48168e-06
4.5829e-06
4.67818e-06
4.77142e-06
4.86178e-06
4.9459e-06
5.01931e-06
5.07798e-06
5.11929e-06
5.14261e-06
5.14893e-06
5.14057e-06
5.12089e-06
5.0919e-06
5.05488e-06
5.01056e-06
4.95749e-06
4.89279e-06
4.81108e-06
4.70348e-06
4.00906e-06
2.74157e-06
1.88872e-06
1.50798e-06
1.88504e-06
1.54846e-06
3.26116e-08
7.97408e-10
7.62731e-07
1.35288e-06
1.85121e-06
2.25471e-06
2.58336e-06
2.8728e-06
3.16214e-06
3.48245e-06
3.84948e-06
4.26353e-06
4.70995e-06
5.16518e-06
5.603e-06
5.99918e-06
6.33424e-06
6.59467e-06
6.77298e-06
6.86711e-06
6.87966e-06
6.81703e-06
6.68877e-06
6.50718e-06
6.28699e-06
6.0434e-06
5.79208e-06
5.40854e-06
4.18111e-06
3.05994e-06
2.20907e-06
1.68168e-06
1.54539e-06
2.39324e-06
1.60187e-06
4.26901e-08
6.28753e-10
6.309e-07
1.19193e-06
1.77669e-06
2.3981e-06
3.06872e-06
3.79459e-06
4.57027e-06
5.37867e-06
6.19486e-06
6.98997e-06
7.73478e-06
8.40301e-06
8.97349e-06
9.43096e-06
9.76624e-06
9.97575e-06
1.00607e-05
1.00263e-05
9.88076e-06
9.63452e-06
9.29995e-06
8.89139e-06
8.42627e-06
7.92686e-06
6.6883e-06
5.20994e-06
3.89443e-06
2.84368e-06
2.10938e-06
1.70482e-06
1.72593e-06
3.07266e-06
1.59615e-06
5.50254e-08
1.16809e-09
1.10363e-06
2.36476e-06
3.58024e-06
4.72563e-06
5.92493e-06
7.3047e-06
8.93857e-06
1.02615e-05
1.13431e-05
1.22727e-05
1.30345e-05
1.36204e-05
1.40288e-05
1.42634e-05
1.43326e-05
1.42479e-05
1.40231e-05
1.36736e-05
1.32153e-05
1.26647e-05
1.20382e-05
1.13528e-05
1.06293e-05
9.11438e-06
7.24666e-06
5.49687e-06
4.00352e-06
2.86357e-06
2.11177e-06
1.73932e-06
1.85978e-06
3.67457e-06
1.65198e-06
6.69047e-08
2.13302e-09
1.34786e-06
2.89505e-06
4.64895e-06
6.63056e-06
8.98754e-06
1.17605e-05
1.32532e-05
1.45296e-05
1.55782e-05
1.63954e-05
1.69847e-05
1.73549e-05
1.75187e-05
1.74918e-05
1.72916e-05
1.69372e-05
1.64479e-05
1.58437e-05
1.51441e-05
1.43684e-05
1.35356e-05
1.26675e-05
1.09655e-05
8.93145e-06
6.9838e-06
5.24573e-06
3.81595e-06
2.76266e-06
2.09803e-06
1.81465e-06
2.09106e-06
4.56198e-06
1.68492e-06
7.74219e-08
3.56771e-09
1.49144e-06
3.2905e-06
5.53647e-06
8.29175e-06
1.16899e-05
1.54534e-05
1.70387e-05
1.83393e-05
1.93594e-05
2.01083e-05
2.05988e-05
2.08465e-05
2.08685e-05
2.06835e-05
2.03109e-05
1.97711e-05
1.90852e-05
1.82744e-05
1.73614e-05
1.63302e-05
1.45244e-05
1.26255e-05
1.06615e-05
8.66568e-06
6.73773e-06
5.01759e-06
3.62944e-06
2.63946e-06
2.04602e-06
1.84106e-06
2.25499e-06
5.25013e-06
1.72572e-06
8.62595e-08
5.0542e-09
1.67268e-06
3.72411e-06
6.36752e-06
9.684e-06
1.37857e-05
1.84679e-05
2.06523e-05
2.19885e-05
2.30064e-05
2.37236e-05
2.4159e-05
2.43315e-05
2.42607e-05
2.39659e-05
2.34667e-05
2.27826e-05
2.19364e-05
1.99238e-05
1.79758e-05
1.61328e-05
1.43276e-05
1.24823e-05
1.05528e-05
8.56574e-06
6.63415e-06
4.91753e-06
3.55057e-06
2.59772e-06
2.05123e-06
1.90917e-06
2.46022e-06
5.87598e-06
1.75478e-06
9.46293e-08
6.69153e-09
1.80098e-06
3.99751e-06
6.8442e-06
1.04433e-05
1.49023e-05
2.0029e-05
2.38774e-05
2.52106e-05
2.62074e-05
2.68915e-05
2.72854e-05
2.74108e-05
2.72877e-05
2.69358e-05
2.63744e-05
2.40367e-05
2.16894e-05
1.95662e-05
1.76434e-05
1.58517e-05
1.41023e-05
1.23079e-05
1.04164e-05
8.45054e-06
6.53065e-06
4.83039e-06
3.49064e-06
2.57302e-06
2.06659e-06
1.97903e-06
2.6559e-06
6.33666e-06
1.78082e-06
1.02516e-07
8.32544e-09
1.87519e-06
4.13512e-06
7.07776e-06
1.0858e-05
1.56222e-05
2.11934e-05
2.65391e-05
2.78613e-05
2.88384e-05
2.94986e-05
2.98673e-05
2.99675e-05
2.98205e-05
2.92597e-05
2.6612e-05
2.39642e-05
2.15513e-05
1.93894e-05
1.74407e-05
1.56369e-05
1.38915e-05
1.21175e-05
1.02558e-05
8.32073e-06
6.43127e-06
4.76281e-06
3.45651e-06
2.5731e-06
2.10271e-06
2.06631e-06
2.8694e-06
6.67386e-06
1.80229e-06
1.10122e-07
1.01399e-08
1.90405e-06
4.18593e-06
7.20343e-06
1.11837e-05
1.63142e-05
2.23192e-05
2.80997e-05
3.00912e-05
3.10379e-05
3.16659e-05
3.20023e-05
3.20712e-05
3.18942e-05
2.94348e-05
2.66123e-05
2.3923e-05
2.1467e-05
1.92566e-05
1.72558e-05
1.54014e-05
1.36181e-05
1.18304e-05
9.98475e-06
8.09301e-06
6.26587e-06
4.6635e-06
3.4141e-06
2.57563e-06
2.14412e-06
2.15909e-06
3.08896e-06
6.89809e-06
1.82139e-06
1.17321e-07
1.20263e-08
1.90864e-06
4.20193e-06
7.30807e-06
1.15345e-05
1.71032e-05
2.35853e-05
2.96227e-05
3.20592e-05
3.29844e-05
3.35883e-05
3.38992e-05
3.39415e-05
3.23518e-05
2.95588e-05
2.67078e-05
2.40157e-05
2.1551e-05
1.931e-05
1.72498e-05
1.53135e-05
1.34428e-05
1.15825e-05
9.69919e-06
7.81792e-06
6.0483e-06
4.52715e-06
3.3543e-06
2.57486e-06
2.18947e-06
2.25959e-06
3.32123e-06
7.03026e-06
1.83881e-06
1.24046e-07
1.41547e-08
1.91501e-06
4.23809e-06
7.4752e-06
1.20098e-05
1.80537e-05
2.49278e-05
3.10157e-05
3.39261e-05
3.48229e-05
3.53977e-05
3.56794e-05
3.48361e-05
3.22981e-05
2.94884e-05
2.67045e-05
2.40827e-05
2.16662e-05
1.94359e-05
1.73449e-05
1.53433e-05
1.33851e-05
1.14346e-05
9.48241e-06
7.57656e-06
5.83677e-06
4.38274e-06
3.28426e-06
2.56764e-06
2.23316e-06
2.36277e-06
3.56128e-06
7.09135e-06
1.85535e-06
1.30339e-07
1.6439e-08
1.92948e-06
4.29646e-06
7.6815e-06
1.25324e-05
1.90125e-05
2.61511e-05
3.21452e-05
3.56355e-05
3.65083e-05
3.70598e-05
3.67486e-05
3.4689e-05
3.21217e-05
2.93889e-05
2.67019e-05
2.4169e-05
2.18134e-05
1.96053e-05
1.74963e-05
1.54401e-05
1.34001e-05
1.13571e-05
9.32593e-06
7.37963e-06
5.65239e-06
4.25111e-06
3.21805e-06
2.56062e-06
2.27692e-06
2.46808e-06
3.80765e-06
7.10434e-06
1.87181e-06
1.36242e-07
1.88911e-08
1.9492e-06
4.36668e-06
7.90568e-06
1.30722e-05
1.9954e-05
2.72694e-05
3.30813e-05
3.66224e-05
3.81046e-05
3.79487e-05
3.65949e-05
3.44666e-05
3.19339e-05
2.92842e-05
2.67016e-05
2.4268e-05
2.19853e-05
1.98127e-05
1.76995e-05
1.56003e-05
1.34848e-05
1.13487e-05
9.23047e-06
7.23005e-06
5.49908e-06
4.13575e-06
3.15806e-06
2.5551e-06
2.32139e-06
2.57583e-06
4.06051e-06
7.08531e-06
1.88806e-06
1.41829e-07
2.14304e-08
1.97352e-06
4.44523e-06
8.13838e-06
1.36121e-05
2.08605e-05
2.8297e-05
3.39091e-05
3.71359e-05
3.83271e-05
3.79557e-05
3.64738e-05
3.43001e-05
3.17928e-05
2.92187e-05
2.67345e-05
2.43956e-05
2.21857e-05
2.00547e-05
1.79467e-05
1.58148e-05
1.36326e-05
1.14085e-05
9.20283e-06
7.14078e-06
5.39202e-06
4.04972e-06
3.1127e-06
2.55463e-06
2.36646e-06
2.68344e-06
4.31442e-06
7.05249e-06
1.90482e-06
1.47178e-07
2.40731e-08
2.0016e-06
4.52909e-06
8.37346e-06
1.41408e-05
2.17093e-05
2.91943e-05
3.45733e-05
3.74958e-05
3.84174e-05
3.78496e-05
3.62584e-05
3.40606e-05
3.15991e-05
2.91147e-05
2.67368e-05
2.44969e-05
2.23639e-05
2.02806e-05
1.81862e-05
1.60313e-05
1.37925e-05
1.14896e-05
9.20339e-06
7.08298e-06
5.31448e-06
3.98632e-06
3.08156e-06
2.56168e-06
2.41536e-06
2.79432e-06
4.57391e-06
7.01034e-06
1.92159e-06
1.52307e-07
2.67383e-08
2.02853e-06
4.60642e-06
8.58782e-06
1.46214e-05
2.24671e-05
2.99707e-05
3.51323e-05
3.77873e-05
3.84756e-05
3.77402e-05
3.60608e-05
3.38521e-05
3.14409e-05
2.90439e-05
2.67654e-05
2.46179e-05
2.25597e-05
2.05255e-05
1.84487e-05
1.62764e-05
1.39866e-05
1.16093e-05
9.24468e-06
7.06459e-06
5.27054e-06
3.94727e-06
3.06499e-06
2.57556e-06
2.46636e-06
2.90544e-06
4.83311e-06
6.96994e-06
1.9389e-06
1.57285e-07
2.9487e-08
2.05572e-06
4.68285e-06
8.79829e-06
1.5091e-05
2.3191e-05
3.06857e-05
3.56304e-05
3.80353e-05
3.85106e-05
3.76252e-05
3.58695e-05
3.36545e-05
3.12916e-05
2.89756e-05
2.67877e-05
2.47246e-05
2.27363e-05
2.07504e-05
1.86945e-05
1.65115e-05
1.41796e-05
1.17374e-05
9.30275e-06
7.06865e-06
5.25052e-06
3.92884e-06
3.06335e-06
2.59876e-06
2.52276e-06
3.02046e-06
5.09685e-06
6.93097e-06
1.95638e-06
1.62122e-07
3.22574e-08
2.08155e-06
4.75407e-06
8.99375e-06
1.55261e-05
2.38503e-05
3.13224e-05
3.60683e-05
3.8252e-05
3.85416e-05
3.75286e-05
3.5712e-05
3.34987e-05
3.11846e-05
2.89447e-05
2.68403e-05
2.48545e-05
2.29301e-05
2.0988e-05
1.89502e-05
1.67555e-05
1.43826e-05
1.18787e-05
9.37821e-06
7.09308e-06
5.25074e-06
3.92717e-06
3.07343e-06
2.62889e-06
2.58264e-06
3.13732e-06
5.36164e-06
6.89763e-06
1.97422e-06
1.66858e-07
3.50916e-08
2.10642e-06
4.82191e-06
9.18076e-06
1.59418e-05
2.44648e-05
3.18897e-05
3.6436e-05
3.8411e-05
3.85316e-05
3.74077e-05
3.55434e-05
3.33391e-05
3.1076e-05
2.8909e-05
2.6883e-05
2.49718e-05
2.31105e-05
2.12145e-05
1.91988e-05
1.69968e-05
1.45873e-05
1.20259e-05
9.46385e-06
7.13153e-06
5.26699e-06
3.94046e-06
3.09542e-06
2.6674e-06
2.64809e-06
3.25865e-06
5.63114e-06
6.86904e-06
1.99234e-06
1.71483e-07
3.79633e-08
2.13006e-06
4.88601e-06
9.35819e-06
1.63354e-05
2.5036e-05
3.24048e-05
3.67651e-05
3.85523e-05
3.85244e-05
3.73061e-05
3.54051e-05
3.32145e-05
3.10009e-05
2.89009e-05
2.69456e-05
2.51014e-05
2.32978e-05
2.14444e-05
1.94502e-05
1.72425e-05
1.4799e-05
1.2183e-05
9.56192e-06
7.18375e-06
5.29668e-06
3.96515e-06
3.12605e-06
2.71185e-06
2.71742e-06
3.38308e-06
5.90349e-06
6.84599e-06
2.01066e-06
1.7603e-07
4.09014e-08
2.15301e-06
4.94815e-06
9.53124e-06
1.67182e-05
2.55786e-05
3.28774e-05
3.70558e-05
3.86676e-05
3.85049e-05
3.72042e-05
3.52742e-05
3.31002e-05
3.09349e-05
2.88981e-05
2.70091e-05
2.52281e-05
2.348e-05
2.16685e-05
1.9696e-05
1.74846e-05
1.50102e-05
1.23436e-05
9.66778e-06
7.24719e-06
5.33913e-06
4.00166e-06
3.16621e-06
2.76336e-06
2.79196e-06
3.51226e-06
6.18102e-06
6.82809e-06
2.02912e-06
1.80474e-07
4.38808e-08
2.17491e-06
5.00762e-06
9.69835e-06
1.70874e-05
2.6092e-05
3.33138e-05
3.73199e-05
3.87711e-05
3.84886e-05
3.7118e-05
3.51673e-05
3.30129e-05
3.08942e-05
2.89161e-05
2.70882e-05
2.53663e-05
2.36708e-05
2.18995e-05
1.99482e-05
1.7733e-05
1.52286e-05
1.25123e-05
9.78253e-06
7.32023e-06
5.39119e-06
4.04665e-06
3.21323e-06
2.82014e-06
2.87069e-06
3.64584e-06
6.46355e-06
6.81505e-06
2.04768e-06
1.84834e-07
4.69352e-08
2.19655e-06
5.0669e-06
9.86612e-06
1.74558e-05
2.659e-05
3.37211e-05
3.75559e-05
3.88551e-05
3.84634e-05
3.70326e-05
3.5068e-05
3.29362e-05
3.08624e-05
2.89391e-05
2.71688e-05
2.55031e-05
2.38586e-05
2.21274e-05
2.01989e-05
1.79827e-05
1.54517e-05
1.26894e-05
9.90846e-06
7.40585e-06
5.45561e-06
4.10219e-06
3.26843e-06
2.88297e-06
2.95403e-06
3.78393e-06
6.75097e-06
6.80699e-06
2.06638e-06
1.89087e-07
5.00432e-08
2.21769e-06
5.12551e-06
1.00336e-05
1.78224e-05
2.70758e-05
3.41103e-05
3.77804e-05
3.8938e-05
3.84476e-05
3.69651e-05
3.49916e-05
3.28836e-05
3.08522e-05
2.89793e-05
2.72623e-05
2.56494e-05
2.40531e-05
2.23603e-05
2.04535e-05
1.82363e-05
1.56793e-05
1.28723e-05
1.00419e-05
7.50033e-06
5.52923e-06
4.16591e-06
3.33029e-06
2.95109e-06
3.04204e-06
3.92756e-06
7.04426e-06
6.80216e-06
2.08501e-06
1.93244e-07
5.32274e-08
2.23877e-06
5.18489e-06
1.02051e-05
1.81955e-05
2.75563e-05
3.44824e-05
3.79882e-05
3.90106e-05
3.84295e-05
3.69024e-05
3.49244e-05
3.28415e-05
3.08514e-05
2.90265e-05
2.73603e-05
2.57982e-05
2.42493e-05
2.25951e-05
2.07118e-05
1.84958e-05
1.59156e-05
1.30666e-05
1.01888e-05
7.6088e-06
5.61597e-06
4.24047e-06
3.4003e-06
3.02504e-06
3.13429e-06
4.07516e-06
7.34237e-06
6.8053e-06
2.10393e-06
1.97298e-07
5.64757e-08
2.25975e-06
5.24513e-06
1.03811e-05
1.85768e-05
2.8036e-05
3.4846e-05
3.81908e-05
3.90849e-05
3.84202e-05
3.68536e-05
3.48739e-05
3.28163e-05
3.08659e-05
2.90864e-05
2.74679e-05
2.59534e-05
2.44489e-05
2.28313e-05
2.09701e-05
1.87555e-05
1.6153e-05
1.32641e-05
1.03416e-05
7.72571e-06
5.71234e-06
4.32409e-06
3.47792e-06
3.10512e-06
3.23205e-06
4.2303e-06
7.65397e-06
6.8169e-06
2.1235e-06
2.01264e-07
5.97943e-08
2.2806e-06
5.30628e-06
1.05623e-05
1.89678e-05
2.85153e-05
3.52002e-05
3.83854e-05
3.91561e-05
3.84127e-05
3.68104e-05
3.48309e-05
3.27991e-05
3.0888e-05
2.9153e-05
2.75811e-05
2.6113e-05
2.46521e-05
2.30707e-05
2.12321e-05
1.90201e-05
1.63974e-05
1.34707e-05
1.05055e-05
7.85502e-06
5.82108e-06
4.41858e-06
3.56421e-06
3.19175e-06
3.33516e-06
4.39201e-06
7.97458e-06
6.83579e-06
2.14368e-06
2.05134e-07
6.31726e-08
2.30124e-06
5.36836e-06
1.07493e-05
1.93705e-05
2.89992e-05
3.55537e-05
3.85819e-05
3.92322e-05
3.84117e-05
3.67744e-05
3.47956e-05
3.27899e-05
3.09177e-05
2.92266e-05
2.77e-05
2.62766e-05
2.48572e-05
2.33098e-05
2.14922e-05
1.92822e-05
1.664e-05
1.36773e-05
1.06722e-05
7.99035e-06
5.93819e-06
4.52214e-06
3.65913e-06
3.28618e-06
3.44595e-06
4.56375e-06
8.30816e-06
6.86122e-06
2.16458e-06
2.08907e-07
6.66106e-08
2.32163e-06
5.43106e-06
1.09409e-05
1.97816e-05
2.94844e-05
3.59075e-05
3.87812e-05
3.93111e-05
3.84102e-05
3.6737e-05
3.47601e-05
3.27823e-05
3.09507e-05
2.93044e-05
2.78236e-05
2.64447e-05
2.5066e-05
2.35519e-05
2.17549e-05
1.95471e-05
1.68863e-05
1.38892e-05
1.08459e-05
8.13446e-06
6.0648e-06
4.63502e-06
3.76257e-06
3.38805e-06
3.5636e-06
4.7439e-06
8.65124e-06
6.89122e-06
2.18587e-06
2.12565e-07
7.009e-08
2.34163e-06
5.49402e-06
1.11358e-05
2.01964e-05
2.9958e-05
3.62284e-05
3.8947e-05
3.93672e-05
3.83958e-05
3.66924e-05
3.47216e-05
3.27746e-05
3.09855e-05
2.9385e-05
2.79499e-05
2.66147e-05
2.52751e-05
2.37923e-05
2.2014e-05
1.98074e-05
1.71284e-05
1.40987e-05
1.102e-05
8.28215e-06
6.19718e-06
4.75511e-06
3.87416e-06
3.49876e-06
3.69129e-06
4.93766e-06
9.01036e-06
6.92542e-06
2.2076e-06
2.16096e-07
7.36099e-08
2.3614e-06
5.55745e-06
1.13333e-05
2.06089e-05
3.04045e-05
3.65147e-05
3.9081e-05
3.93969e-05
3.8369e-05
3.66405e-05
3.46789e-05
3.27651e-05
3.10201e-05
2.9467e-05
2.80787e-05
2.67874e-05
2.54867e-05
2.40343e-05
2.2274e-05
2.00685e-05
1.73725e-05
1.43122e-05
1.12002e-05
8.4373e-06
6.33675e-06
4.88202e-06
3.99265e-06
3.61674e-06
3.82722e-06
5.14311e-06
9.382e-06
6.9623e-06
2.22954e-06
2.19481e-07
7.71396e-08
2.38069e-06
5.62072e-06
1.15341e-05
2.10258e-05
3.08279e-05
3.6769e-05
3.91824e-05
3.93967e-05
3.83166e-05
3.65715e-05
3.46264e-05
3.27505e-05
3.1052e-05
2.95474e-05
2.82064e-05
2.69587e-05
2.56957e-05
2.42719e-05
2.25277e-05
2.03227e-05
1.7611e-05
1.45237e-05
1.13825e-05
8.59806e-06
6.48244e-06
5.01491e-06
4.1176e-06
3.74261e-06
3.97413e-06
5.367e-06
9.77062e-06
7.00121e-06
2.25162e-06
2.22714e-07
8.06635e-08
2.39917e-06
5.68198e-06
1.17292e-05
2.14233e-05
3.12142e-05
3.69832e-05
3.92476e-05
3.93644e-05
3.8238e-05
3.64883e-05
3.4562e-05
3.27239e-05
3.10739e-05
2.96206e-05
2.83291e-05
2.71275e-05
2.59031e-05
2.45072e-05
2.27783e-05
2.0574e-05
1.78492e-05
1.47396e-05
1.15745e-05
8.77162e-06
6.639e-06
5.15561e-06
4.24854e-06
3.87478e-06
4.13013e-06
5.6061e-06
1.01726e-05
7.04378e-06
2.27404e-06
2.25815e-07
8.41643e-08
2.41714e-06
5.74237e-06
1.19231e-05
2.1814e-05
3.15787e-05
3.71687e-05
3.9283e-05
3.93043e-05
3.81345e-05
3.63842e-05
3.44815e-05
3.26854e-05
3.10862e-05
2.96849e-05
2.84418e-05
2.72816e-05
2.60926e-05
2.47249e-05
2.30125e-05
2.08101e-05
1.80755e-05
1.49508e-05
1.17712e-05
8.95787e-06
6.80942e-06
5.3077e-06
4.38791e-06
4.01428e-06
4.29526e-06
5.85967e-06
1.05854e-05
7.09055e-06
2.29695e-06
2.28833e-07
8.76578e-08
2.43462e-06
5.80248e-06
1.2118e-05
2.21949e-05
3.19111e-05
3.73166e-05
3.9283e-05
3.92122e-05
3.80029e-05
3.62558e-05
3.43808e-05
3.26301e-05
3.10845e-05
2.97379e-05
2.85464e-05
2.7432e-05
2.62798e-05
2.49364e-05
2.32353e-05
2.1034e-05
1.82932e-05
1.51602e-05
1.19753e-05
9.15983e-06
6.99759e-06
5.47499e-06
4.53817e-06
4.16143e-06
4.46761e-06
6.12308e-06
1.10014e-05
7.14432e-06
2.32075e-06
2.31849e-07
9.11179e-08
2.45124e-06
5.86159e-06
1.23126e-05
2.25593e-05
3.22109e-05
3.74305e-05
3.9251e-05
3.90901e-05
3.78437e-05
3.61025e-05
3.42584e-05
3.25556e-05
3.10648e-05
2.97731e-05
2.86325e-05
2.7563e-05
2.64476e-05
2.51303e-05
2.34412e-05
2.12384e-05
1.84908e-05
1.53563e-05
1.21775e-05
9.3723e-06
7.20337e-06
5.66096e-06
4.70381e-06
4.31973e-06
4.64882e-06
6.3959e-06
1.14185e-05
7.20553e-06
2.34552e-06
2.34934e-07
9.45663e-08
2.46701e-06
5.91901e-06
1.25044e-05
2.29078e-05
3.24772e-05
3.7508e-05
3.91852e-05
3.89381e-05
3.76581e-05
3.59257e-05
3.41157e-05
3.24626e-05
3.10278e-05
2.97924e-05
2.87045e-05
2.76812e-05
2.6603e-05
2.53106e-05
2.36322e-05
2.14264e-05
1.86694e-05
1.55322e-05
1.23678e-05
9.58594e-06
7.42109e-06
5.86453e-06
4.88688e-06
4.49195e-06
4.84068e-06
6.67829e-06
1.18366e-05
7.27396e-06
2.37116e-06
2.38117e-07
9.79785e-08
2.48129e-06
5.97279e-06
1.26872e-05
2.32327e-05
3.27061e-05
3.75494e-05
3.90873e-05
3.87569e-05
3.74453e-05
3.57234e-05
3.39504e-05
3.23474e-05
3.09684e-05
2.97895e-05
2.87547e-05
2.77781e-05
2.67371e-05
2.54696e-05
2.38007e-05
2.15893e-05
1.88201e-05
1.56791e-05
1.25312e-05
9.78546e-06
7.63956e-06
6.08071e-06
5.08818e-06
4.68258e-06
5.04945e-06
6.978e-06
1.22643e-05
7.34676e-06
2.39727e-06
2.41354e-07
1.01397e-07
2.49518e-06
6.02587e-06
1.28668e-05
2.35409e-05
3.29034e-05
3.75591e-05
3.89607e-05
3.85501e-05
3.72088e-05
3.54981e-05
3.37641e-05
3.22114e-05
3.08885e-05
2.97672e-05
2.87867e-05
2.78574e-05
2.6854e-05
2.56109e-05
2.395e-05
2.17299e-05
1.89429e-05
1.57924e-05
1.26602e-05
9.95595e-06
7.84325e-06
6.29823e-06
5.30273e-06
4.89227e-06
5.27993e-06
7.30412e-06
1.27113e-05
7.42043e-06
2.42338e-06
2.44546e-07
1.04775e-07
2.50766e-06
6.07529e-06
1.30363e-05
2.38229e-05
3.30635e-05
3.75349e-05
3.88053e-05
3.83178e-05
3.69485e-05
3.52495e-05
3.35542e-05
3.20519e-05
3.07855e-05
2.97222e-05
2.87962e-05
2.79143e-05
2.69484e-05
2.57298e-05
2.4077e-05
2.18469e-05
1.90377e-05
1.58705e-05
1.27484e-05
1.00873e-05
8.01764e-06
6.50361e-06
5.52293e-06
5.12074e-06
5.53906e-06
7.67063e-06
1.31893e-05
7.48969e-06
2.44873e-06
2.47529e-07
1.08126e-07
2.51976e-06
6.12372e-06
1.3201e-05
2.40861e-05
3.31944e-05
3.74839e-05
3.86264e-05
3.80642e-05
3.66675e-05
3.49797e-05
3.33222e-05
3.18699e-05
3.06598e-05
2.96546e-05
2.87835e-05
2.79494e-05
2.70215e-05
2.58285e-05
2.41859e-05
2.19477e-05
1.91154e-05
1.59249e-05
1.28029e-05
1.01776e-05
8.1532e-06
6.68324e-06
5.73566e-06
5.36043e-06
5.82606e-06
8.08666e-06
1.37032e-05
7.55117e-06
2.47301e-06
2.50151e-07
1.11391e-07
2.53082e-06
6.16897e-06
1.33555e-05
2.43239e-05
3.32922e-05
3.74035e-05
3.84219e-05
3.7787e-05
3.63636e-05
3.46865e-05
3.30657e-05
3.16624e-05
3.05078e-05
2.95598e-05
2.87429e-05
2.79562e-05
2.70665e-05
2.59013e-05
2.42741e-05
2.20359e-05
1.91874e-05
1.59738e-05
1.28429e-05
1.02393e-05
8.25169e-06
6.8301e-06
5.93172e-06
5.60411e-06
6.14256e-06
8.55679e-06
1.42443e-05
7.60192e-06
2.49565e-06
2.52309e-07
1.1455e-07
2.54126e-06
6.21212e-06
1.35027e-05
2.45422e-05
3.33646e-05
3.73003e-05
3.81962e-05
3.74891e-05
3.60386e-05
3.43709e-05
3.27848e-05
3.14288e-05
3.0328e-05
2.94359e-05
2.86721e-05
2.7932e-05
2.70808e-05
2.59461e-05
2.43423e-05
2.21183e-05
1.927e-05
1.60433e-05
1.28995e-05
1.02989e-05
8.32866e-06
6.94685e-06
6.10445e-06
5.84318e-06
6.47938e-06
9.07294e-06
1.47919e-05
7.6457e-06
2.51782e-06
2.54082e-07
1.17549e-07
2.55072e-06
6.25189e-06
1.36396e-05
2.4738e-05
3.34101e-05
3.71727e-05
3.79475e-05
3.71687e-05
3.56911e-05
3.40324e-05
3.24786e-05
3.11678e-05
3.01192e-05
2.9281e-05
2.85679e-05
2.78724e-05
2.70591e-05
2.5958e-05
2.43872e-05
2.21965e-05
1.93751e-05
1.61588e-05
1.30094e-05
1.03936e-05
8.41257e-06
7.04768e-06
6.25338e-06
6.06668e-06
6.8194e-06
9.61114e-06
1.53161e-05
7.68932e-06
2.54041e-06
2.55705e-07
1.20395e-07
2.55943e-06
6.28922e-06
1.37697e-05
2.49182e-05
3.34359e-05
3.70262e-05
3.76801e-05
3.68298e-05
3.53255e-05
3.36753e-05
3.21519e-05
3.08842e-05
2.98855e-05
2.90981e-05
2.84325e-05
2.77787e-05
2.70019e-05
2.59362e-05
2.4407e-05
2.22691e-05
1.95053e-05
1.63329e-05
1.31984e-05
1.05566e-05
8.53643e-06
7.1563e-06
6.3876e-06
6.26887e-06
7.14448e-06
1.01397e-05
1.57948e-05
7.74051e-06
2.56429e-06
2.57462e-07
1.23082e-07
2.56741e-06
6.32414e-06
1.38927e-05
2.50824e-05
3.34422e-05
3.68614e-05
3.73952e-05
3.64743e-05
3.49441e-05
3.33028e-05
3.18092e-05
3.05829e-05
2.96307e-05
2.88895e-05
2.82665e-05
2.76504e-05
2.69076e-05
2.58777e-05
2.43959e-05
2.23265e-05
1.96492e-05
1.65587e-05
1.34708e-05
1.08072e-05
8.72769e-06
7.2984e-06
6.52215e-06
6.44939e-06
7.43751e-06
1.06258e-05
1.62177e-05
7.8027e-06
2.58969e-06
2.59562e-07
1.2566e-07
2.57501e-06
6.35804e-06
1.40124e-05
2.52364e-05
3.34341e-05
3.66823e-05
3.7097e-05
3.61072e-05
3.45529e-05
3.29213e-05
3.14568e-05
3.02702e-05
2.93612e-05
2.86616e-05
2.80757e-05
2.74918e-05
2.67783e-05
2.57809e-05
2.43467e-05
2.23532e-05
1.97828e-05
1.68091e-05
1.38069e-05
1.11436e-05
9.00171e-06
7.49803e-06
6.67901e-06
6.61946e-06
7.69421e-06
1.10508e-05
1.65903e-05
7.87518e-06
2.61622e-06
2.62059e-07
1.28159e-07
2.58242e-06
6.39215e-06
1.41299e-05
2.53814e-05
3.34125e-05
3.64903e-05
3.67874e-05
3.57309e-05
3.41546e-05
3.25338e-05
3.10986e-05
2.99505e-05
2.90814e-05
2.84181e-05
2.78628e-05
2.73041e-05
2.66132e-05
2.56425e-05
2.4251e-05
2.2332e-05
1.98773e-05
1.70459e-05
1.41687e-05
1.15418e-05
9.35421e-06
7.76735e-06
6.87811e-06
6.79737e-06
7.92471e-06
1.14177e-05
1.69269e-05
7.95343e-06
2.64285e-06
2.64818e-07
1.30632e-07
2.58972e-06
6.42693e-06
1.42473e-05
2.55205e-05
3.33805e-05
3.62887e-05
3.64702e-05
3.53497e-05
3.37538e-05
3.21455e-05
3.07399e-05
2.96292e-05
2.87967e-05
2.81639e-05
2.76315e-05
2.70893e-05
2.64124e-05
2.54594e-05
2.41012e-05
2.2248e-05
1.99059e-05
1.72291e-05
1.45093e-05
1.19616e-05
9.76297e-06
8.10519e-06
7.13476e-06
7.00708e-06
8.15587e-06
1.17552e-05
1.72484e-05
8.03122e-06
2.66822e-06
2.67577e-07
1.3308e-07
2.5965e-06
6.46124e-06
1.43653e-05
2.56549e-05
3.33391e-05
3.60788e-05
3.61469e-05
3.49647e-05
3.33514e-05
3.17572e-05
3.0382e-05
2.93082e-05
2.85094e-05
2.79014e-05
2.73838e-05
2.68489e-05
2.61762e-05
2.52312e-05
2.38953e-05
2.20949e-05
1.98538e-05
1.73307e-05
1.47859e-05
1.2356e-05
1.0191e-05
8.49369e-06
7.45136e-06
7.26761e-06
8.41965e-06
1.21067e-05
1.75763e-05
8.10368e-06
2.69149e-06
2.70044e-07
1.35521e-07
2.60355e-06
6.49702e-06
1.44858e-05
2.57864e-05
3.32917e-05
3.58644e-05
3.58208e-05
3.45786e-05
3.29497e-05
3.13711e-05
3.00272e-05
2.89903e-05
2.82223e-05
2.76331e-05
2.71219e-05
2.65844e-05
2.59061e-05
2.49597e-05
2.36361e-05
2.18759e-05
1.97213e-05
1.73415e-05
1.49722e-05
1.26858e-05
1.05989e-05
8.906e-06
7.82e-06
7.59045e-06
8.746e-06
1.25184e-05
1.79274e-05
8.1681e-06
2.71237e-06
2.71977e-07
1.37903e-07
2.61041e-06
6.5327e-06
1.46054e-05
2.59115e-05
3.32366e-05
3.56447e-05
3.5491e-05
3.41904e-05
3.25477e-05
3.09865e-05
2.96757e-05
2.8676e-05
2.79368e-05
2.73613e-05
2.68487e-05
2.62996e-05
2.5607e-05
2.4652e-05
2.33343e-05
2.16056e-05
1.95241e-05
1.7272e-05
1.50617e-05
1.29256e-05
1.09503e-05
9.30884e-06
8.22139e-06
7.97549e-06
9.15573e-06
1.30281e-05
1.83082e-05
8.22228e-06
2.73089e-06
2.73166e-07
1.40188e-07
2.61726e-06
6.56859e-06
1.47249e-05
2.60329e-05
3.31778e-05
3.54226e-05
3.51589e-05
3.38002e-05
3.21446e-05
3.06027e-05
2.93267e-05
2.83651e-05
2.76526e-05
2.70858e-05
2.65645e-05
2.59957e-05
2.52821e-05
2.43148e-05
2.30019e-05
2.13031e-05
1.92875e-05
1.71476e-05
1.50702e-05
1.30732e-05
1.12256e-05
9.67465e-06
8.63261e-06
8.41341e-06
9.65869e-06
1.3661e-05
1.8713e-05
8.26886e-06
2.74803e-06
2.73618e-07
1.42293e-07
2.62359e-06
6.60255e-06
1.48385e-05
2.61446e-05
3.31123e-05
3.5196e-05
3.48223e-05
3.34055e-05
3.17385e-05
3.02181e-05
2.89795e-05
2.8057e-05
2.73697e-05
2.68073e-05
2.62711e-05
2.56759e-05
2.49366e-05
2.39569e-05
2.26537e-05
2.09909e-05
1.90416e-05
1.70021e-05
1.50302e-05
1.3149e-05
1.14259e-05
9.98818e-06
9.03217e-06
8.88716e-06
1.02449e-05
1.44088e-05
1.91237e-05
8.31481e-06
2.76556e-06
2.73595e-07
1.44197e-07
2.62948e-06
6.6348e-06
1.49481e-05
2.62508e-05
3.30435e-05
3.49669e-05
3.44826e-05
3.30077e-05
3.13304e-05
2.98338e-05
2.86369e-05
2.7754e-05
2.709e-05
2.65286e-05
2.59724e-05
2.53454e-05
2.45774e-05
2.35879e-05
2.2304e-05
2.06912e-05
1.88185e-05
1.68755e-05
1.49867e-05
1.31925e-05
1.15749e-05
1.02531e-05
9.40926e-06
9.37936e-06
1.08901e-05
1.52342e-05
1.9524e-05
8.37042e-06
2.78561e-06
2.73524e-07
1.45869e-07
2.63458e-06
6.66397e-06
1.50501e-05
2.63476e-05
3.297e-05
3.47349e-05
3.41398e-05
3.26074e-05
3.09213e-05
2.94503e-05
2.8298e-05
2.74561e-05
2.68154e-05
2.62532e-05
2.56734e-05
2.50102e-05
2.42111e-05
2.32149e-05
2.19616e-05
2.04171e-05
1.86387e-05
1.67977e-05
1.49789e-05
1.32452e-05
1.17051e-05
1.0485e-05
9.75968e-06
9.86877e-06
1.15605e-05
1.60859e-05
1.99061e-05
8.4434e-06
2.80964e-06
2.73809e-07
1.47337e-07
2.63895e-06
6.69038e-06
1.51459e-05
2.64379e-05
3.28933e-05
3.45011e-05
3.37957e-05
3.22072e-05
3.05143e-05
2.90712e-05
2.79657e-05
2.71669e-05
2.65508e-05
2.59871e-05
2.53808e-05
2.4677e-05
2.38432e-05
2.28415e-05
2.16286e-05
2.01712e-05
1.85102e-05
1.67844e-05
1.50335e-05
1.33409e-05
1.18485e-05
1.07035e-05
1.00851e-05
1.03376e-05
1.22208e-05
1.69161e-05
2.02725e-05
8.53561e-06
2.83792e-06
2.747e-07
1.48623e-07
2.64249e-06
6.71374e-06
1.52352e-05
2.65209e-05
3.28127e-05
3.42653e-05
3.34507e-05
3.18081e-05
3.01113e-05
2.86989e-05
2.76432e-05
2.689e-05
2.63001e-05
2.5735e-05
2.50995e-05
2.43499e-05
2.34756e-05
2.24657e-05
2.12981e-05
1.99437e-05
1.84242e-05
1.68312e-05
1.51567e-05
1.34974e-05
1.20293e-05
1.09298e-05
1.03947e-05
1.07785e-05
1.28456e-05
1.76914e-05
2.0628e-05
8.64279e-06
2.86939e-06
2.76216e-07
1.49779e-07
2.6453e-06
6.73466e-06
1.53196e-05
2.65981e-05
3.27287e-05
3.40276e-05
3.31054e-05
3.14113e-05
2.97133e-05
2.83341e-05
2.73307e-05
2.66258e-05
2.60643e-05
2.54986e-05
2.4832e-05
2.40311e-05
2.31086e-05
2.20836e-05
2.096e-05
1.97182e-05
1.83617e-05
1.69199e-05
1.53382e-05
1.37164e-05
1.22594e-05
1.11802e-05
1.07011e-05
1.11942e-05
1.34269e-05
1.84042e-05
2.09795e-05
8.75972e-06
2.90293e-06
2.78267e-07
1.50845e-07
2.64739e-06
6.75338e-06
1.53999e-05
2.66695e-05
3.26394e-05
3.3786e-05
3.27587e-05
3.10165e-05
2.93209e-05
2.7978e-05
2.70297e-05
2.63758e-05
2.58453e-05
2.52802e-05
2.45806e-05
2.37221e-05
2.27412e-05
2.16897e-05
2.06018e-05
1.94733e-05
1.82934e-05
1.70205e-05
1.5555e-05
1.39868e-05
1.2541e-05
1.14663e-05
1.10186e-05
1.15955e-05
1.39701e-05
1.90604e-05
2.13249e-05
8.87818e-06
2.93671e-06
2.80638e-07
1.51873e-07
2.64902e-06
6.77099e-06
1.54786e-05
2.67369e-05
3.2545e-05
3.35403e-05
3.24105e-05
3.06241e-05
2.89345e-05
2.76308e-05
2.67403e-05
2.61404e-05
2.5644e-05
2.50815e-05
2.43476e-05
2.34255e-05
2.2375e-05
2.12825e-05
2.02163e-05
1.91926e-05
1.81921e-05
1.71014e-05
1.57763e-05
1.42858e-05
1.28639e-05
1.17908e-05
1.13601e-05
1.20013e-05
1.44977e-05
1.96868e-05
2.167e-05
8.99479e-06
2.9701e-06
2.83183e-07
1.52886e-07
2.65023e-06
6.78769e-06
1.55561e-05
2.67995e-05
3.24434e-05
3.32885e-05
3.20594e-05
3.02332e-05
2.85537e-05
2.72923e-05
2.64623e-05
2.59195e-05
2.54607e-05
2.49038e-05
2.41358e-05
2.31446e-05
2.20129e-05
2.08631e-05
1.98005e-05
1.88664e-05
1.80389e-05
1.71376e-05
1.5975e-05
1.45899e-05
1.32135e-05
1.21509e-05
1.17333e-05
1.24273e-05
1.50304e-05
2.03031e-05
2.20082e-05
9.10406e-06
3.00187e-06
2.85707e-07
1.53906e-07
2.6512e-06
6.80414e-06
1.56339e-05
2.68585e-05
3.23348e-05
3.30301e-05
3.17048e-05
2.98434e-05
2.81783e-05
2.69626e-05
2.61959e-05
2.57132e-05
2.52963e-05
2.47495e-05
2.39494e-05
2.28857e-05
2.16621e-05
2.0438e-05
1.93583e-05
1.84932e-05
1.78229e-05
1.7109e-05
1.61241e-05
1.48716e-05
1.35688e-05
1.25366e-05
1.21417e-05
1.28904e-05
1.55973e-05
2.09418e-05
2.23462e-05
9.20836e-06
3.03279e-06
2.88179e-07
1.54921e-07
2.65176e-06
6.81977e-06
1.571e-05
2.69106e-05
3.22163e-05
3.27627e-05
3.13451e-05
2.94537e-05
2.78077e-05
2.66411e-05
2.59404e-05
2.55213e-05
2.51513e-05
2.46207e-05
2.37932e-05
2.26563e-05
2.13323e-05
2.00179e-05
1.88998e-05
1.80803e-05
1.75456e-05
1.70093e-05
1.62103e-05
1.51133e-05
1.39127e-05
1.29358e-05
1.25806e-05
1.33943e-05
1.62073e-05
2.16071e-05
2.2671e-05
9.30321e-06
3.06178e-06
2.90468e-07
1.55939e-07
2.65211e-06
6.83522e-06
1.57861e-05
2.69572e-05
3.20879e-05
3.24859e-05
3.09796e-05
2.90636e-05
2.74417e-05
2.63281e-05
2.56962e-05
2.53439e-05
2.50262e-05
2.45198e-05
2.36727e-05
2.24657e-05
2.10359e-05
1.96168e-05
1.84388e-05
1.76393e-05
1.72114e-05
1.68346e-05
1.62204e-05
1.52955e-05
1.42251e-05
1.33345e-05
1.3047e-05
1.39464e-05
1.68797e-05
2.23211e-05
2.29922e-05
9.39542e-06
3.0907e-06
2.92675e-07
1.56949e-07
2.65207e-06
6.84972e-06
1.58597e-05
2.69946e-05
3.19472e-05
3.21979e-05
3.06071e-05
2.8672e-05
2.70796e-05
2.60235e-05
2.5463e-05
2.51804e-05
2.49209e-05
2.44484e-05
2.35928e-05
2.23232e-05
2.07864e-05
1.92511e-05
1.79936e-05
1.7189e-05
1.68364e-05
1.65961e-05
1.61593e-05
1.5416e-05
1.44981e-05
1.37223e-05
1.35308e-05
1.45349e-05
1.75998e-05
2.30605e-05
2.32912e-05
9.48021e-06
3.11826e-06
2.94736e-07
1.57944e-07
2.65175e-06
6.86349e-06
1.59309e-05
2.70226e-05
3.17933e-05
3.18976e-05
3.02262e-05
2.82772e-05
2.67195e-05
2.57278e-05
2.52398e-05
2.50289e-05
2.4834e-05
2.44065e-05
2.35566e-05
2.22361e-05
2.05952e-05
1.89346e-05
1.75782e-05
1.67418e-05
1.64295e-05
1.62979e-05
1.60252e-05
1.54682e-05
1.47229e-05
1.4091e-05
1.40272e-05
1.51636e-05
1.83771e-05
2.38367e-05
2.3583e-05
9.56592e-06