/*--------------------------------*- C++ -*----------------------------------*\
| =========                 |                                                 |
| \\      /  F ield         | OpenFOAM: The Open Source CFD Toolbox           |
|  \\    /   O peration     | Version:  v1906                                 |
|   \\  /    A nd           | Web:      www.OpenFOAM.com                      |
|    \\/     M anipulation  |                                                 |
\*---------------------------------------------------------------------------*/
FoamFile
{
    version     2.0;
    format      ascii;
    class       volScalarField;
    location    "43";
    object      k;
}
// * * * * * * * * * * * * * * * * * * * * * * * * * * * * * * * * * * * * * //

dimensions      [0 2 -2 0 0 0 0];


internalField   nonuniform List<scalar> 
78750
(
3.9365e-06
8.00662e-06
9.0878e-06
9.26542e-06
9.08372e-06
8.6989e-06
8.21005e-06
7.69092e-06
7.19017e-06
6.73583e-06
6.34073e-06
6.00785e-06
5.73432e-06
5.51418e-06
5.34016e-06
5.20461e-06
5.09998e-06
5.01875e-06
4.95436e-06
4.90216e-06
4.85847e-06
4.81917e-06
4.78056e-06
4.739e-06
4.6903e-06
4.62885e-06
4.546e-06
4.42751e-06
4.24968e-06
3.97479e-06
3.55095e-06
2.94526e-06
2.20961e-06
1.54899e-06
1.34038e-06
6.65561e-07
6.68151e-06
1.16606e-05
1.52462e-05
1.75434e-05
1.88781e-05
1.95755e-05
1.98838e-05
1.99689e-05
1.99358e-05
1.98471e-05
1.9737e-05
1.96215e-05
1.95059e-05
1.93903e-05
1.92718e-05
1.91461e-05
1.90078e-05
1.88515e-05
1.8672e-05
1.84635e-05
1.82177e-05
1.79249e-05
1.75743e-05
1.71524e-05
1.66425e-05
1.60217e-05
1.52568e-05
1.43014e-05
1.31014e-05
1.15858e-05
9.79919e-06
8.19213e-06
7.59976e-06
8.79348e-06
7.58656e-07
4.72741e-06
8.10415e-06
1.07399e-05
1.26105e-05
1.38501e-05
1.46594e-05
1.52164e-05
1.56427e-05
1.60077e-05
1.63517e-05
1.66887e-05
1.70157e-05
1.73206e-05
1.75869e-05
1.77999e-05
1.795e-05
1.80347e-05
1.80576e-05
1.8027e-05
1.79552e-05
1.78494e-05
1.77144e-05
1.75529e-05
1.73598e-05
1.71249e-05
1.68293e-05
1.64418e-05
1.59095e-05
1.51516e-05
1.41179e-05
1.29535e-05
1.21584e-05
1.24471e-05
1.4404e-05
3.44554e-07
2.59071e-06
4.61533e-06
6.33869e-06
7.74338e-06
8.89359e-06
9.91099e-06
1.0932e-05
1.20668e-05
1.33731e-05
1.48545e-05
1.64611e-05
1.81097e-05
1.9705e-05
2.11571e-05
2.23918e-05
2.33558e-05
2.40185e-05
2.437e-05
2.44186e-05
2.41877e-05
2.37135e-05
2.30425e-05
2.22306e-05
2.13347e-05
2.04135e-05
1.95254e-05
1.87024e-05
1.7945e-05
1.72115e-05
1.64354e-05
1.57034e-05
1.54596e-05
1.63353e-05
1.88908e-05
2.71674e-07
2.14069e-06
4.06083e-06
6.07855e-06
8.24089e-06
1.05954e-05
1.31683e-05
1.59462e-05
1.88726e-05
2.18602e-05
2.48027e-05
2.75883e-05
3.01119e-05
3.22851e-05
3.40408e-05
3.53356e-05
3.61492e-05
3.64821e-05
3.63527e-05
3.57931e-05
3.48461e-05
3.35627e-05
3.20021e-05
3.02348e-05
2.8349e-05
2.6427e-05
2.45547e-05
2.28511e-05
2.14374e-05
2.03771e-05
1.96383e-05
1.92236e-05
1.94509e-05
2.09292e-05
2.439e-05
5.04726e-07
4.22621e-06
8.23323e-06
1.26323e-05
1.74075e-05
2.24493e-05
2.75724e-05
3.25571e-05
3.72285e-05
4.14624e-05
4.51514e-05
4.82102e-05
5.05852e-05
5.22536e-05
5.32192e-05
5.35092e-05
5.31686e-05
5.22555e-05
5.08373e-05
4.89855e-05
4.67734e-05
4.42739e-05
4.15624e-05
3.87253e-05
3.58331e-05
3.29435e-05
3.01576e-05
2.76193e-05
2.55011e-05
2.39649e-05
2.30866e-05
2.28887e-05
2.3564e-05
2.55989e-05
2.96912e-05
9.21693e-07
7.45779e-06
1.43514e-05
2.16422e-05
2.91091e-05
3.63928e-05
4.30978e-05
4.90721e-05
5.42762e-05
5.86183e-05
6.2046e-05
6.45434e-05
6.61257e-05
6.68336e-05
6.67277e-05
6.58833e-05
6.43858e-05
6.23262e-05
5.97976e-05
5.68922e-05
5.36999e-05
5.03068e-05
4.68073e-05
4.32689e-05
3.97433e-05
3.63395e-05
3.32094e-05
3.05062e-05
2.83936e-05
2.70309e-05
2.64975e-05
2.67861e-05
2.7937e-05
3.02855e-05
3.43979e-05
1.54168e-06
1.11947e-05
2.11456e-05
3.12839e-05
4.11577e-05
5.02274e-05
5.80762e-05
6.47381e-05
7.03092e-05
7.47469e-05
7.8045e-05
8.02267e-05
8.13393e-05
8.1449e-05
8.06369e-05
7.89954e-05
7.6625e-05
7.36329e-05
7.01271e-05
6.62198e-05
6.20336e-05
5.76586e-05
5.31551e-05
4.86046e-05
4.41169e-05
3.98668e-05
3.60784e-05
3.29583e-05
3.07077e-05
2.9509e-05
2.94226e-05
3.03246e-05
3.19693e-05
3.44877e-05
3.83614e-05
2.1841e-06
1.50798e-05
2.81128e-05
4.10309e-05
5.3204e-05
6.40037e-05
7.30286e-05
8.04243e-05
8.64204e-05
9.10599e-05
9.43696e-05
9.63987e-05
9.72146e-05
9.68988e-05
9.55442e-05
9.32517e-05
9.01273e-05
8.62955e-05
8.18601e-05
7.69077e-05
7.15648e-05
6.59665e-05
6.02403e-05
5.45122e-05
4.89397e-05
4.37587e-05
3.92473e-05
3.56381e-05
3.31628e-05
3.20387e-05
3.2322e-05
3.37641e-05
3.58169e-05
3.84398e-05
4.21214e-05
2.89175e-06
1.9019e-05
3.50121e-05
5.04937e-05
6.47197e-05
7.70365e-05
8.70995e-05
9.50453e-05
0.000101277
0.000106009
0.000109296
0.000111209
0.000111831
0.000111253
0.000109573
0.000106899
0.000103297
9.87977e-05
9.34985e-05
8.75403e-05
8.1089e-05
7.43178e-05
6.73955e-05
6.04938e-05
5.38249e-05
4.76983e-05
4.24571e-05
3.83578e-05
3.56487e-05
3.45657e-05
3.51551e-05
3.70537e-05
3.944e-05
4.21388e-05
4.56692e-05
3.59794e-06
2.26152e-05
4.12017e-05
5.88775e-05
7.48192e-05
8.83638e-05
9.9231e-05
0.00010757
0.00011396
0.000118756
0.000122035
0.000123887
0.000124407
0.000123693
0.000121847
0.000118917
0.000114897
0.000109848
0.000103879
9.71371e-05
8.9799e-05
8.20565e-05
7.41093e-05
6.61729e-05
5.85216e-05
5.15493e-05
4.56586e-05
4.11229e-05
3.82093e-05
3.71669e-05
3.80196e-05
4.02903e-05
4.29341e-05
4.56852e-05
4.90945e-05
4.38219e-06
2.60593e-05
4.69887e-05
6.65854e-05
8.39544e-05
9.84338e-05
0.000109842
0.000118467
0.000124954
0.00012973
0.000132937
0.000134677
0.000135052
0.00013417
0.000132099
0.000128835
0.000124404
0.00011887
0.000112343
0.000104968
9.6922e-05
8.8404e-05
7.96348e-05
7.08679e-05
6.2441e-05
5.48404e-05
4.85149e-05
4.37255e-05
4.0734e-05
3.97902e-05
4.08965e-05
4.34796e-05
4.6324e-05
4.90958e-05
5.23413e-05
5.19758e-06
2.91953e-05
5.22188e-05
7.35718e-05
9.22546e-05
0.000107577
0.000119451
0.00012832
0.000134905
0.000139688
0.000142848
0.000144498
0.000144746
0.000143691
0.000141363
0.000137765
0.000132932
0.000126933
0.00011988
0.000111915
0.00010321
9.3968e-05
8.44232e-05
7.48671e-05
6.57121e-05
5.75637e-05
5.09279e-05
4.60406e-05
4.3127e-05
4.23943e-05
4.37917e-05
4.66525e-05
4.96428e-05
5.23809e-05
5.53783e-05
6.11761e-06
3.24527e-05
5.76093e-05
8.07243e-05
0.000100649
0.000116686
0.000128905
0.000137939
0.000144566
0.00014931
0.000152388
0.000153921
0.000154024
0.000152768
0.000150158
0.000146209
0.000140965
0.000134504
0.000126938
0.000118408
0.000109081
9.91565e-05
8.88739e-05
7.85522e-05
6.86749e-05
5.99822e-05
5.30576e-05
4.8124e-05
4.53682e-05
4.49295e-05
4.66651e-05
4.97934e-05
5.28916e-05
5.55458e-05
5.82244e-05
7.1051e-06
3.57554e-05
6.29794e-05
8.77262e-05
0.00010872
0.000125313
0.000137779
0.000146941
0.000153605
0.000158319
0.000161336
0.000162788
0.000162778
0.000161337
0.000158475
0.000154214
0.000148601
0.000141721
0.000133684
0.000124628
0.000114718
0.000104146
9.31563e-05
8.20895e-05
7.14969e-05
6.22601e-05
5.50506e-05
5.00864e-05
4.75206e-05
4.74165e-05
4.95161e-05
5.29032e-05
5.6079e-05
5.86029e-05
6.08977e-05
8.16515e-06
3.91251e-05
6.83707e-05
9.46638e-05
0.000116625
0.000133691
0.000146358
0.000155625
0.000162346
0.000167045
0.000170011
0.000171396
0.000171262
0.000169633
0.000166524
0.000161964
0.000156008
0.000148742
0.000140274
0.000130737
0.000120287
0.000109107
9.74357e-05
8.56334e-05
7.43147e-05
6.45085e-05
5.69877e-05
5.19791e-05
4.96108e-05
4.98633e-05
5.23427e-05
5.59781e-05
5.92039e-05
6.1559e-05
6.34305e-05
9.26302e-06
4.25002e-05
7.37205e-05
0.0001015
0.000124369
0.000141872
0.000154725
0.000164087
0.000170863
0.000175584
0.000178528
0.000179834
0.000179562
0.000177738
0.000174381
0.000169527
0.000163238
0.000155604
0.000146734
0.000136756
0.000125816
0.000114083
0.000101786
8.92932e-05
7.72704e-05
6.68862e-05
5.90188e-05
5.39188e-05
5.17075e-05
5.22947e-05
5.51452e-05
5.9017e-05
6.22756e-05
6.44367e-05
6.58582e-05
1.04056e-05
4.59283e-05
7.90905e-05
0.000108291
0.000131998
0.000149892
0.000162922
0.000172387
0.000179231
0.000183981
0.00018691
0.000188148
0.000187752
0.000185745
0.00018215
0.000177011
0.000170395
0.000162398
0.000153129
0.000142715
0.000131293
0.000119022
0.000106122
9.29661e-05
8.02691e-05
6.93321e-05
6.1125e-05
5.59227e-05
5.38472e-05
5.47463e-05
5.79459e-05
6.20293e-05
6.52972e-05
6.72393e-05
6.81884e-05
1.1558e-05
4.92673e-05
8.42737e-05
0.000114816
0.000139313
0.000157594
0.000170821
0.000180417
0.000187356
0.000192164
0.000195106
0.000196305
0.000195812
0.000193653
0.000189853
0.000184461
0.000177553
0.000169229
0.000159596
0.000148777
0.000136904
0.000124123
0.000110642
9.68378e-05
8.34707e-05
7.19694e-05
6.3394e-05
5.80476e-05
5.60612e-05
5.72303e-05
6.0748e-05
6.50202e-05
6.82811e-05
6.99878e-05
7.04519e-05
1.27466e-05
5.2619e-05
8.94349e-05
0.000121275
0.000146525
0.000165171
0.000178591
0.00018832
0.00019536
0.000200231
0.00020319
0.000204353
0.000203768
0.00020146
0.000197458
0.000191817
0.000184623
0.00017598
0.000165992
0.000154783
0.000142477
0.000129211
0.000115181
0.000100767
8.67682e-05
7.47382e-05
6.58079e-05
6.03077e-05
5.83814e-05
5.97803e-05
6.35745e-05
6.80002e-05
7.12307e-05
7.26849e-05
7.26529e-05
1.39446e-05
5.58943e-05
9.44401e-05
0.00012752
0.000153496
0.000172512
0.000186149
0.00019604
0.000203208
0.000208169
0.000211171
0.000212324
0.000211671
0.000209237
0.000205057
0.000199191
0.000191732
0.000182788
0.000172463
0.000160877
0.000148151
0.00013441
0.000119844
0.000104833
9.02202e-05
7.76745e-05
6.83873e-05
6.27142e-05
6.0814e-05
6.24012e-05
6.64316e-05
7.09789e-05
7.416e-05
7.53483e-05
7.48099e-05
1.51703e-05
5.91509e-05
9.93838e-05
0.000133667
0.000160345
0.000179726
0.000193587
0.000203654
0.000210963
0.000216025
0.00021908
0.000220231
0.000219518
0.000216966
0.000212614
0.000206531
0.000198817
0.000189581
0.000178932
0.000166987
0.000153856
0.000139656
0.000124569
0.000108979
9.37738e-05
8.07414e-05
7.11151e-05
6.52699e-05
6.33761e-05
6.51149e-05
6.93379e-05
7.39689e-05
7.70746e-05
7.79817e-05
7.69182e-05
1.64123e-05
6.23537e-05
0.000104212
0.000139653
0.00016701
0.00018676
0.000200862
0.000211125
0.000218595
0.000223779
0.000226906
0.000228073
0.000227318
0.000224665
0.000220158
0.000213873
0.000205917
0.000196405
0.000185447
0.000173159
0.000159642
0.000145001
0.000129408
0.000113255
9.747e-05
8.39615e-05
7.39962e-05
6.7968e-05
6.6058e-05
6.79151e-05
7.22923e-05
7.69742e-05
7.99846e-05
8.05951e-05
7.89926e-05
1.7683e-05
6.55418e-05
0.000108985
0.000145549
0.000173567
0.000193684
0.000208039
0.000218512
0.000226158
0.000231475
0.000234685
0.000235878
0.000235089
0.000232344
0.000227689
0.000221211
0.000213021
0.000203242
0.000191982
0.000179359
0.000165467
0.000150397
0.000134313
0.000117613
0.000101273
8.73177e-05
7.70299e-05
7.08192e-05
6.88758e-05
7.08183e-05
7.53082e-05
8.00038e-05
8.28938e-05
8.31853e-05
8.10217e-05
1.89718e-05
6.86829e-05
0.000113658
0.000151313
0.00017998
0.000200473
0.000215098
0.0002258
0.000233639
0.000239105
0.000242411
0.000243643
0.000242831
0.000240005
0.000235216
0.000228558
0.00022015
0.000210121
0.000198577
0.000185634
0.000171379
0.000155896
0.000139332
0.000122095
0.000105208
9.08161e-05
8.02082e-05
7.38085e-05
7.18152e-05
7.38163e-05
7.8386e-05
8.3064e-05
8.58091e-05
8.57602e-05
8.30139e-05
2.0293e-05
7.18238e-05
0.000118301
0.000157019
0.000186318
0.000207184
0.000222087
0.000233029
0.000241071
0.000246694
0.000250102
0.000251376
0.000250547
0.000247644
0.000242725
0.000235894
0.000227279
0.00021701
0.000205195
0.000191946
0.000177345
0.000161465
0.000144443
0.00012669
0.000109278
9.44721e-05
8.35515e-05
7.69551e-05
7.48898e-05
7.69149e-05
8.15229e-05
8.61502e-05
8.873e-05
8.83164e-05
8.49595e-05
2.16375e-05
7.49343e-05
0.000122868
0.00016262
0.00019254
0.000213786
0.000228982
0.000240179
0.000248437
0.000254226
0.000257744
0.000259067
0.000258226
0.000255254
0.000250218
0.000243229
0.000234421
0.000223929
0.000211859
0.00019832
0.000183389
0.000167126
0.000149661
0.000131406
0.000113484
9.82808e-05
8.70509e-05
8.0249e-05
7.8093e-05
8.01167e-05
8.47332e-05
8.92735e-05
9.16477e-05
9.08526e-05
8.68628e-05
2.3015e-05
7.80455e-05
0.000127408
0.000168172
0.000198701
0.00022033
0.000235828
0.00024729
0.000255768
0.000261724
0.00026535
0.00026672
0.000265866
0.000262828
0.000257679
0.000250541
0.000241554
0.000230856
0.000218549
0.000204741
0.000189501
0.000172878
0.000154995
0.000136265
0.000117859
0.00010228
9.07432e-05
8.37183e-05
8.14384e-05
8.34161e-05
8.7993e-05
9.24266e-05
9.46146e-05
9.33763e-05
8.87206e-05
2.44204e-05
8.11389e-05
0.000131889
0.000173637
0.000204767
0.000226785
0.0002426
0.000254336
0.000263039
0.00026916
0.000272889
0.000274302
0.000273437
0.000270336
0.000265085
0.000257811
0.000248661
0.000237774
0.000225248
0.00021119
0.00019566
0.000178698
0.000160417
0.000141237
0.000122376
0.000106451
9.46171e-05
8.73605e-05
8.49316e-05
8.68315e-05
9.13485e-05
9.57003e-05
9.76515e-05
9.5909e-05
9.05397e-05
2.58562e-05
8.42191e-05
0.00013632
0.00017903
0.000210757
0.00023318
0.00024933
0.00026135
0.000270272
0.000276545
0.000280363
0.000281809
0.000280929
0.00027777
0.000272426
0.000265032
0.000255738
0.000244682
0.000231961
0.000217676
0.00020188
0.000184604
0.000165952
0.000146354
0.000127071
0.000110829
9.87071e-05
9.12031e-05
8.85887e-05
9.03668e-05
9.47926e-05
9.9055e-05
0.000100738
9.84458e-05
9.2316e-05
2.7318e-05
8.72709e-05
0.000140676
0.000184319
0.000216643
0.000239497
0.000256016
0.00026833
0.000277451
0.000283842
0.000287723
0.00028919
0.000288293
0.000285082
0.000279659
0.000272164
0.000262747
0.000251545
0.000238649
0.000224157
0.000208116
0.000190546
0.000171547
0.000151557
0.000131894
0.000115379
0.000102996
9.52488e-05
9.24311e-05
9.40564e-05
9.83609e-05
0.000102511
0.000103891
0.000100998
9.405e-05
2.88057e-05
9.02921e-05
0.00014495
0.000189493
0.000222415
0.000245749
0.000262715
0.000275332
0.000284597
0.00029104
0.000294951
0.000296427
0.000295516
0.000292266
0.000286784
0.00027921
0.000269695
0.000258371
0.000245326
0.000230651
0.000214388
0.000196549
0.000177228
0.000156878
0.000136873
0.000120121
0.000107497
9.95056e-05
9.6458e-05
9.78852e-05
0.000102023
0.000106031
0.000107081
0.000103548
9.57325e-05
3.03114e-05
9.32624e-05
0.000149111
0.000194508
0.000228008
0.000251842
0.000269156
0.000282049
0.000291512
0.000298028
0.000301967
0.000303457
0.000302546
0.000299274
0.000293754
0.000286126
0.000276538
0.000265119
0.000251948
0.000237115
0.000220651
0.000202564
0.000182944
0.000162263
0.000141962
0.000125015
0.000112184
0.00010397
0.000100694
0.000101901
0.000105834
0.000109657
0.00011033
0.000106102
9.73588e-05
3.18348e-05
9.61864e-05
0.000153167
0.000199369
0.000233414
0.000257686
0.000275334
0.000288506
0.000298184
0.000304832
0.000308781
0.000310286
0.000309383
0.00030611
0.000300576
0.00029292
0.000283288
0.000271803
0.000258536
0.00024357
0.000226934
0.000208624
0.000188733
0.000167752
0.000147194
0.000130079
0.000117056
0.000108625
0.000105111
0.000106067
0.000109755
0.000113351
0.000113615
0.000108647
9.89201e-05
3.33625e-05
9.90377e-05
0.000157084
0.00020406
0.000238677
0.00026329
0.000281226
0.000294654
0.000304537
0.000311319
0.000315306
0.000316845
0.000315968
0.000312714
0.000307191
0.000299538
0.000289893
0.000278373
0.000265039
0.000249972
0.000233191
0.000214689
0.000194559
0.000173317
0.000152554
0.000135296
0.000122095
0.000113459
0.000109714
0.000110418
0.000113874
0.000117151
0.000116944
0.000111179
0.000100413
3.48878e-05
0.000101803
0.000160831
0.000208497
0.00024362
0.000268561
0.000286783
0.000300469
0.000310569
0.000317513
0.000321592
0.000323147
0.000322299
0.000319083
0.0003136
0.000305981
0.00029636
0.000284837
0.000271472
0.000256339
0.00023945
0.000220796
0.000200472
0.000179021
0.000158113
0.000140723
0.000127329
0.000118464
0.000114477
0.00011493
0.000118146
0.000121049
0.000120317
0.000113702
0.000101849
3.64032e-05
0.000104488
0.000164439
0.000212751
0.000248333
0.000273557
0.000292033
0.000305957
0.00031626
0.000323361
0.00032754
0.000329128
0.000328336
0.000325182
0.000319763
0.0003122
0.00030262
0.000291129
0.000277772
0.000262611
0.000245655
0.000226893
0.000206431
0.000184842
0.00016388
0.000146395
0.0001328
0.000123672
0.000119408
0.000119589
0.000122548
0.000125037
0.000123735
0.000116221
0.000103247
3.79155e-05
0.000107106
0.000167922
0.000216813
0.000252771
0.000278232
0.000296939
0.000311089
0.000321593
0.000328856
0.000333149
0.000334793
0.00033408
0.000331018
0.000325696
0.000318226
0.000308726
0.000297291
0.000283959
0.000268797
0.000251816
0.000232998
0.000212459
0.000190814
0.000169899
0.000152368
0.00013857
0.000129127
0.00012452
0.00012438
0.000127052
0.0001291
0.000127197
0.000118755
0.000104645
3.94136e-05
0.000109627
0.000171241
0.000220694
0.00025693
0.000282584
0.000301498
0.000315858
0.000326554
0.000333976
0.000338386
0.000340099
0.000339477
0.000336523
0.000331316
0.000323963
0.00031457
0.000303224
0.000289954
0.000274821
0.000257838
0.000239008
0.000218467
0.00019686
0.000176123
0.000158643
0.000144686
0.000134899
0.000129869
0.000129329
0.00013166
0.000133236
0.000130711
0.000121322
0.000106075
4.09066e-05
0.000112061
0.000174392
0.000224354
0.000260804
0.000286622
0.000305722
0.000320277
0.000331153
0.00033873
0.000343262
0.000345057
0.000344541
0.000341711
0.00033664
0.000329426
0.000320165
0.00030893
0.000295741
0.000280661
0.000263701
0.000244879
0.000224368
0.000202897
0.00018247
0.00016517
0.000151149
0.000141036
0.000135515
0.000134473
0.000136386
0.000137451
0.000134285
0.000123934
0.000107549
4.23841e-05
0.000114363
0.000177314
0.000227716
0.000264352
0.000290315
0.000309587
0.000324321
0.000335363
0.000343086
0.000347742
0.000349636
0.000349223
0.000346522
0.000341602
0.000334545
0.000325433
0.000314327
0.000301235
0.000286217
0.000269292
0.000250495
0.000230042
0.000208747
0.000188776
0.000171813
0.000157889
0.000147548
0.000141529
0.000139896
0.000141288
0.000141775
0.000137929
0.000126589
0.000109048
4.38644e-05
0.00011659
0.000180093
0.000230876
0.000267653
0.00029373
0.000313145
0.000328032
0.000339219
0.00034707
0.000351842
0.000353843
0.000353529
0.000350967
0.000346212
0.000339331
0.000330386
0.000319421
0.000306433
0.000291475
0.000274575
0.00025579
0.000235392
0.000214304
0.000194854
0.000178381
0.000164746
0.000154349
0.000147905
0.000145636
0.000146413
0.00014624
0.000141656
0.000129275
0.000110528
4.53274e-05
0.000118676
0.000182642
0.000233747
0.000270634
0.000296806
0.000316349
0.000331372
0.000342687
0.000350653
0.000355531
0.000357636
0.000357428
0.000355017
0.000350442
0.000343753
0.000334992
0.000324183
0.000311304
0.000296402
0.000279509
0.000260705
0.000240328
0.000219432
0.000200544
0.000184652
0.000171497
0.000161286
0.000154595
0.000151736
0.000151822
0.000150882
0.000145466
0.000131956
0.000111915
4.67787e-05
0.000120669
0.000185042
0.000236421
0.000273384
0.000299622
0.000319265
0.000334396
0.000345813
0.000353872
0.000358839
0.00036104
0.000360941
0.000358688
0.000354309
0.000347833
0.000339279
0.000328648
0.000315895
0.000301055
0.000284157
0.000265301
0.000244889
0.000224121
0.000205751
0.000190459
0.000177909
0.000168093
0.000161396
0.00015806
0.000157476
0.0001557
0.000149357
0.0001346
0.000113141
4.81928e-05
0.000122522
0.000187227
0.000238826
0.000275833
0.000302118
0.000321841
0.000337063
0.000348564
0.0003567
0.000361745
0.000364036
0.00036405
0.000361966
0.000357799
0.00035156
0.000343244
0.000332826
0.000320235
0.000305487
0.0002886
0.000269686
0.0002492
0.000228489
0.000210526
0.000195738
0.000183812
0.000174573
0.000168111
0.000164574
0.000163326
0.000160652
0.000153278
0.000137144
0.00011416
4.95611e-05
0.000124259
0.000189247
0.000241026
0.00027805
0.000304359
0.000324138
0.000339426
0.000350987
0.000359179
0.000364284
0.000366655
0.000366784
0.000364877
0.00036094
0.000354965
0.000346926
0.000336771
0.000324401
0.000309806
0.00029299
0.000274063
0.000253517
0.000232827
0.00021511
0.000200622
0.000189185
0.000180568
0.000174569
0.000171082
0.000169261
0.000165682
0.00015721
0.000139613
0.000115006
5.08603e-05
0.000125854
0.000191067
0.000242977
0.00027999
0.000306302
0.000326119
0.000341453
0.000353056
0.000361286
0.000366435
0.000368876
0.000369124
0.000367404
0.000363713
0.000358031
0.000350313
0.000340482
0.000328411
0.000314069
0.000297437
0.000278617
0.000258122
0.000237514
0.000219889
0.000205415
0.000194166
0.00018602
0.00018056
0.000177329
0.000175091
0.00017068
0.00016111
0.000142025
0.000115786
5.2093e-05
0.000127337
0.000192735
0.000244738
0.000281714
0.000308006
0.000327841
0.000343199
0.000354822
0.000363068
0.000368243
0.000370736
0.000371101
0.00036957
0.000366135
0.000360766
0.000353405
0.000343956
0.000332271
0.000318297
0.000301998
0.000283468
0.000263226
0.000242889
0.000225283
0.000210558
0.000199107
0.00019109
0.000186046
0.000183168
0.000180674
0.000175559
0.000164963
0.000144434
0.000116625
5.32574e-05
0.000128709
0.000194244
0.000246292
0.000283199
0.00030945
0.00032928
0.000344644
0.000356267
0.000364511
0.000369692
0.000372223
0.000372694
0.000371343
0.00036816
0.000363113
0.000356133
0.000347113
0.000335891
0.000322399
0.000306593
0.000288562
0.000268833
0.000249047
0.000231543
0.000216434
0.000204408
0.000196054
0.000191101
0.000188509
0.000185889
0.000180233
0.000168746
0.000146888
0.000117618
5.43741e-05
0.000130006
0.000195643
0.000247688
0.000284492
0.000310677
0.000330481
0.000345829
0.000357431
0.00036565
0.000370817
0.000373363
0.000373922
0.000372731
0.000369784
0.000365046
0.000358446
0.000349874
0.000339158
0.000326232
0.000311053
0.000293722
0.000274781
0.000255879
0.000238725
0.000223309
0.000210497
0.000201347
0.000196017
0.00019346
0.00019073
0.000184672
0.000172452
0.000149413
0.00011879
5.54573e-05
0.000131238
0.00019695
0.00024892
0.000285581
0.000311673
0.000331429
0.000346739
0.000358299
0.000366471
0.000371601
0.00037414
0.000374765
0.000373706
0.000370964
0.000366507
0.000360264
0.000352126
0.000341923
0.000329601
0.000315135
0.000298656
0.000280747
0.000263066
0.000246614
0.000231168
0.000217596
0.000207338
0.000201136
0.000198226
0.000195272
0.000188884
0.000176069
0.000151983
0.000120078
5.65291e-05
0.000132415
0.000198171
0.000250008
0.000286494
0.000312472
0.00033216
0.000347412
0.000358908
0.000367012
0.00037208
0.000374586
0.000375249
0.000374288
0.00037171
0.000367488
0.000361556
0.000353808
0.000344086
0.000332353
0.000318624
0.000303083
0.000286387
0.000270216
0.000254847
0.000239785
0.000225729
0.00021431
0.000206857
0.00020315
0.000199714
0.000192944
0.000179585
0.000154528
0.000121364
5.759e-05
0.000133508
0.000199255
0.00025093
0.00028722
0.000313064
0.000332666
0.00034784
0.000359252
0.000367265
0.00037225
0.000374701
0.000375375
0.000374476
0.000372017
0.000367977
0.000362297
0.000354878
0.000345573
0.000334375
0.000321348
0.000306759
0.000291375
0.000276898
0.000262928
0.000248695
0.000234603
0.000222247
0.000213403
0.000208527
0.000204284
0.000196968
0.000183012
0.000156969
0.000122517
5.86479e-05
0.000134555
0.000200259
0.000251736
0.000287801
0.000313488
0.000332982
0.000348059
0.00035937
0.000367276
0.000372159
0.000374533
0.000375194
0.000374321
0.000371936
0.000368027
0.000362539
0.000355381
0.000346418
0.000335676
0.00032328
0.000309601
0.000295558
0.000282827
0.00027045
0.000257416
0.000243788
0.000230925
0.000220812
0.000214555
0.000209177
0.000201078
0.000186375
0.000159252
0.000123428
5.96802e-05
0.000135515
0.000201133
0.000252384
0.000288205
0.000313719
0.000333091
0.000348059
0.000359256
0.000367043
0.000371812
0.000374095
0.000374725
0.000373849
0.000371501
0.000367677
0.000362331
0.000355376
0.000346688
0.000336325
0.000324476
0.000311635
0.000298913
0.000287832
0.000277078
0.000265469
0.00025274
0.000239891
0.000228866
0.000221247
0.000214501
0.000205362
0.000189703
0.00016133
0.000124002
6.06707e-05
0.000136396
0.000201906
0.000252912
0.000288472
0.0003138
0.000333037
0.000347886
0.000358961
0.000366622
0.000371271
0.000373456
0.000374042
0.00037314
0.000370798
0.000367026
0.000361788
0.000354998
0.000346542
0.000336501
0.000325129
0.000313047
0.00030158
0.000291956
0.000282703
0.000272565
0.000261016
0.000248659
0.00023719
0.000228439
0.000220252
0.000209867
0.000193017
0.000163188
0.000124242
6.15831e-05
0.000137162
0.000202535
0.000253278
0.000288568
0.000313702
0.000332799
0.000347525
0.000358477
0.000366015
0.000370548
0.000372638
0.000373172
0.000372226
0.000369871
0.000366135
0.000360992
0.000354364
0.000346135
0.000336405
0.000325478
0.000314096
0.000303788
0.000295383
0.000287402
0.000278615
0.000268336
0.000256807
0.000245376
0.000235819
0.000226281
0.000214554
0.000196328
0.000164883
0.000124267
6.24087e-05
0.00013783
0.000203054
0.000253525
0.00028854
0.000313476
0.000332429
0.000347029
0.00035786
0.000365277
0.000369704
0.000371721
0.000372182
0.000371171
0.000368785
0.000365075
0.000360032
0.000353585
0.000345619
0.000336243
0.000325794
0.000315108
0.000305883
0.00029847
0.000291479
0.000283797
0.0002747
0.000264165
0.000253182
0.000243115
0.000232411
0.000219364
0.000199681
0.000166549
0.00012427
6.3134e-05
0.000138388
0.000203445
0.000253634
0.000288373
0.00031311
0.000331919
0.000346396
0.000357108
0.00036441
0.000368738
0.000370691
0.000371072
0.000369986
0.000367556
0.000363866
0.000358931
0.000352698
0.000345059
0.000336123
0.000326247
0.000316332
0.000308169
0.000301589
0.000295325
0.000288444
0.000280303
0.000270734
0.000260396
0.000250097
0.000238472
0.000224229
0.000203122
0.000168326
0.000124433
6.37706e-05
0.00013886
0.000203739
0.000253643
0.000288106
0.000312645
0.000331312
0.00034567
0.000356267
0.000363459
0.000367691
0.000369582
0.000369879
0.000368705
0.000366213
0.000362525
0.000357697
0.000351704
0.000344456
0.000336071
0.000326913
0.00031792
0.000310869
0.000305055
0.000299329
0.000292959
0.00028547
0.000276678
0.000266998
0.000256657
0.000244361
0.000229111
0.000206702
0.00017033
0.00012487
6.43285e-05
0.000139251
0.000203936
0.000253549
0.000287738
0.000312081
0.000330611
0.000344854
0.000355346
0.000362436
0.000366581
0.000368418
0.000368624
0.000367343
0.000364761
0.000361044
0.000356297
0.000350546
0.000343736
0.000336007
0.000327736
0.000319881
0.000314034
0.000309016
0.000303753
0.000297688
0.000290552
0.000282262
0.000273109
0.000262793
0.000250016
0.000233955
0.000210409
0.000172579
0.000125589
6.483e-05
0.000139583
0.000204062
0.000253379
0.000287295
0.000311447
0.000329843
0.000343977
0.000354369
0.000361364
0.000365428
0.000367213
0.000367321
0.000365912
0.000363206
0.000359415
0.000354705
0.000349167
0.000342809
0.000335815
0.000328592
0.000322122
0.000317593
0.000313477
0.000308714
0.000302865
0.000295861
0.000287792
0.000278955
0.000268637
0.000255496
0.000238786
0.000214262
0.000175072
0.000126549
6.52925e-05
0.000139861
0.000204118
0.000253133
0.000286778
0.000310744
0.000329012
0.000343046
0.000353346
0.000360257
0.000364249
0.000365987
0.00036599
0.000364432
0.000361559
0.000357635
0.00035289
0.0003475
0.000341558
0.000335322
0.00032926
0.000324385
0.000321316
0.000318274
0.000314154
0.000308559
0.000301573
0.000293491
0.000284729
0.000274294
0.000260817
0.000243559
0.000218178
0.000177711
0.000127654
6.57389e-05
0.00014011
0.000204129
0.000252835
0.00028621
0.000309993
0.000328141
0.000342082
0.000352302
0.000359139
0.00036307
0.000364771
0.000364668
0.000362942
0.000359864
0.000355742
0.000350878
0.00034554
0.000339931
0.000334418
0.000329556
0.000326408
0.000324937
0.000323166
0.000319897
0.000314706
0.000307764
0.000299551
0.000290677
0.000279987
0.000266135
0.000248361
0.000222183
0.000180463
0.000128837
6.61784e-05
0.000140327
0.000204089
0.000252476
0.000285581
0.000309187
0.000327221
0.00034108
0.000351232
0.00035801
0.000361897
0.000363574
0.00036337
0.000361464
0.000358149
0.000353768
0.000348692
0.00034329
0.000337898
0.000333022
0.000329339
0.000327976
0.000328211
0.00032789
0.000325691
0.00032111
0.000314329
0.000305971
0.000296859
0.000285768
0.000271454
0.000253137
0.000226168
0.000183207
0.000130011
6.66212e-05
0.000140525
0.000204013
0.000252072
0.000284906
0.00030834
0.000326269
0.000340058
0.000350157
0.000356896
0.00036076
0.000362436
0.000362144
0.00036006
0.000356485
0.000351792
0.000346414
0.000340824
0.000335503
0.00033113
0.000328547
0.000328949
0.000330944
0.00033221
0.000331286
0.000327553
0.00032114
0.000312745
0.000303386
0.000291811
0.000276951
0.000258033
0.000230227
0.000185977
0.000131162
6.70617e-05
0.000140687
0.000203878
0.000251599
0.000284162
0.000307429
0.000325262
0.000338994
0.00034906
0.000355785
0.000359655
0.000361359
0.000361005
0.000358759
0.000354921
0.000349885
0.000344131
0.000338232
0.000332827
0.000328797
0.000327189
0.000329266
0.00033301
0.000335943
0.000336451
0.000333772
0.000327936
0.000319649
0.000310103
0.000298
0.000282519
0.000262927
0.000234221
0.000188653
0.00013223
6.7504e-05
0.000140826
0.000203701
0.000251072
0.000283362
0.000306465
0.000324211
0.000337901
0.000347953
0.000354693
0.000358605
0.000360373
0.000359991
0.000357612
0.000353529
0.000348139
0.000341959
0.000335648
0.000330007
0.000326139
0.000325345
0.000328931
0.000334343
0.000338959
0.000341007
0.000339571
0.000334554
0.00032664
0.00031703
0.000304447
0.000288329
0.000268009
0.00023832
0.00019135
0.000133262
6.79422e-05
0.000140925
0.00020346
0.000250469
0.000282483
0.000305425
0.000323091
0.000336751
0.000346814
0.000353604
0.000357602
0.000359473
0.000359107
0.000356641
0.000352351
0.000346626
0.000340001
0.000333204
0.00032719
0.000323308
0.000323156
0.00032802
0.000334959
0.000341208
0.000344835
0.000344762
0.000340763
0.000333472
0.000323888
0.000310879
0.000294134
0.000273054
0.000242334
0.000193946
0.000134229
6.83742e-05
0.000140989
0.000203164
0.000249798
0.000281532
0.000304313
0.000321902
0.000335541
0.000345634
0.000352512
0.000356668
0.00035866
0.000358356
0.000355863
0.000351426
0.000345411
0.00033835
0.00033102
0.000324516
0.000320441
0.000320735
0.000326607
0.000334897
0.000342707
0.000347935
0.00034934
0.000346553
0.00034013
0.000330754
0.000317442
0.000300129
0.000278292
0.000246493
0.00019662
0.000135211
6.87938e-05
0.00014101
0.0002028