/*--------------------------------*- C++ -*----------------------------------*\
| =========                 |                                                 |
| \\      /  F ield         | OpenFOAM: The Open Source CFD Toolbox           |
|  \\    /   O peration     | Version:  v1906                                 |
|   \\  /    A nd           | Web:      www.OpenFOAM.com                      |
|    \\/     M anipulation  |                                                 |
\*---------------------------------------------------------------------------*/
FoamFile
{
    version     2.0;
    format      ascii;
    class       surfaceScalarField;
    location    "25/oil";
    object      phi;
}
// * * * * * * * * * * * * * * * * * * * * * * * * * * * * * * * * * * * * * //

dimensions      [1 0 -1 0 0 0 0];
oriented        oriented;


internalField   nonuniform List<scalar> 
80688
(
-2.5149e-06
-2.55828e-06
-2.51491e-06
-1.13686e-06
-7.12332e-07
-6.65716e-07
-3.11903e-07
-4.14711e-07
-4.10244e-07
-1.57763e-07
-7.70607e-08
-7.70799e-08
-6.9979e-08
-4.40148e-08
-4.37689e-08
-2.97744e-08
-2.03911e-08
-1.98135e-08
-9.6728e-09
-1.04212e-08
-9.68037e-09
6.92863e-10
-5.6042e-09
-4.76145e-09
5.97274e-09
-3.11883e-09
-2.16103e-09
8.25878e-09
-1.69749e-09
-5.88533e-10
8.56558e-09
-7.95927e-10
4.89144e-10
7.45546e-09
-1.79437e-10
1.28957e-09
5.30647e-09
2.59124e-10
1.88988e-09
2.44598e-09
5.54836e-10
2.30566e-09
-8.04563e-10
7.16571e-10
2.53399e-09
-4.12976e-09
7.5325e-10
2.57196e-09
-7.23176e-09
6.73839e-10
2.42818e-09
-9.85024e-09
4.92308e-10
2.12618e-09
-1.17825e-08
2.27527e-10
1.70479e-09
-1.29011e-08
-9.11317e-11
1.2097e-09
-1.31595e-08
-4.35767e-10
6.94153e-10
-1.25867e-08
-7.87282e-10
2.14514e-10
-1.12798e-08
-1.11779e-09
-1.89066e-10
-9.39899e-09
-1.40375e-09
-4.7707e-10
-7.15986e-09
-1.62362e-09
-6.15495e-10
-4.81887e-09
-1.74581e-09
-5.95171e-10
-2.66505e-09
-1.72408e-09
-4.29721e-10
-9.99668e-10
-1.49191e-09
-1.73461e-10
-8.36719e-11
-9.61242e-10
4.52602e-11
-1.75111e-10
9.14479e-11
-6.78239e-07
-1.2018e-06
-6.78239e-07
-4.09497e-07
-4.35125e-07
-5.45948e-07
-2.98114e-07
-2.89852e-07
-2.36243e-07
-1.55566e-07
-1.22057e-07
-9.75515e-08
-7.73073e-08
-7.06368e-08
-5.16367e-08
-3.38349e-08
-3.9722e-08
-2.41415e-08
-8.59422e-09
-2.52316e-08
-1.04303e-08
5.98165e-09
-1.73396e-08
-2.84043e-09
1.39615e-08
-1.28446e-08
1.74591e-09
1.74306e-08
-1.00178e-08
4.85128e-09
1.75511e-08
-8.0845e-09
7.16806e-09
1.50765e-08
-6.68374e-09
8.97894e-09
1.06245e-08
-5.66078e-09
1.03719e-08
4.7908e-09
-4.96056e-09
1.13492e-08
-1.81288e-09
-4.56533e-09
1.18856e-08
-8.56498e-09
-4.46409e-09
1.19694e-08
-1.48721e-08
-4.63643e-09
1.16174e-08
-2.02151e-08
-5.04553e-09
1.08809e-08
-2.4193e-08
-5.63823e-09
9.84369e-09
-2.65472e-08
-6.3482e-09
8.61123e-09
-2.71785e-08
-7.10474e-09
7.30029e-09
-2.61475e-08
-7.83661e-09
6.01841e-09
-2.36555e-08
-8.47342e-09
4.86358e-09
-2.00228e-08
-8.94534e-09
3.90893e-09
-1.56674e-08
-9.17587e-09
3.19692e-09
-1.10754e-08
-9.06703e-09
2.72922e-09
-6.76604e-09
-8.48532e-09
2.45186e-09
-3.24051e-09
-7.24941e-09
2.232e-09
-9.03259e-10
-5.12209e-09
1.82361e-09
-1.98989e-09
9.11524e-10
-4.23761e-07
-3.54277e-07
-4.23761e-07
-2.88303e-07
-3.27204e-07
-2.43379e-07
-2.00477e-07
-2.24106e-07
-1.53571e-07
-1.15073e-07
-1.27613e-07
-7.98475e-08
-6.04156e-08
-8.36745e-08
-4.16202e-08
-2.46657e-08
-5.66404e-08
-1.88315e-08
-1.77682e-09
-4.20606e-08
-6.05986e-09
1.24825e-08
-3.33339e-08
1.7349e-09
2.05807e-08
-2.78647e-08
6.92188e-09
2.39555e-08
-2.41301e-08
1.07376e-08
2.35187e-08
-2.14013e-08
1.37536e-08
1.9968e-08
-1.93279e-08
1.61948e-08
1.39694e-08
-1.7767e-08
1.81049e-08
6.22923e-09
-1.66756e-08
1.94552e-08
-2.48493e-09
-1.60479e-08
2.01968e-08
-1.13799e-08
-1.58761e-08
2.03069e-08
-1.96915e-08
-1.61297e-08
1.98048e-08
-2.6747e-08
-1.67484e-08
1.87584e-08
-3.20271e-08
-1.76402e-08
1.72821e-08
-3.5199e-08
-1.86932e-08
1.55169e-08
-3.61411e-08
-1.97827e-08
1.36201e-08
-3.49304e-08
-2.07825e-08
1.17352e-08
-3.18281e-08
-2.15668e-08
9.99105e-09
-2.72422e-08
-2.20066e-08
8.47537e-09
-2.16944e-08
-2.1958e-08
7.23442e-09
-1.57773e-08
-2.12421e-08
6.25797e-09
-1.0102e-08
-1.96234e-08
5.46277e-09
-5.24209e-09
-1.67778e-08
4.66851e-09
-1.68746e-09
-1.22405e-08
3.56384e-09
-5.37297e-09
1.69564e-09
-8.35721e-08
-1.87133e-07
-8.35717e-08
-1.15593e-07
-1.94537e-07
-1.00647e-07
-9.94484e-08
-1.60031e-07
-8.02199e-08
-6.41075e-08
-1.15891e-07
-4.70636e-08
-3.34333e-08
-8.93152e-08
-2.50336e-08
-9.23403e-09
-7.08917e-08
-9.94804e-09
8.27105e-09
-5.9436e-08
-1.29593e-10
2.00638e-08
-5.1772e-08
6.64542e-09
2.693e-08
-4.64239e-08
1.1693e-08
2.94782e-08
-4.24202e-08
1.5742e-08
2.82168e-08
-3.92722e-08
1.91323e-08
2.36693e-08
-3.67522e-08
2.19719e-08
1.64551e-08
-3.47887e-08
2.42359e-08
7.31417e-09
-3.33857e-08
2.58511e-08
-2.90725e-09
-3.25652e-08
2.67387e-08
-1.33121e-08
-3.23317e-08
2.68605e-08
-2.30272e-08
-3.26499e-08
2.62354e-08
-3.12821e-08
-3.34377e-08
2.49442e-08
-3.74797e-08
-3.45665e-08
2.31239e-08
-4.12438e-08
-3.58747e-08
2.09456e-08
-4.24376e-08
-3.71831e-08
1.85942e-08
-4.11561e-08
-3.83082e-08
1.62442e-08
-3.7696e-08
-3.90673e-08
1.40404e-08
-3.25184e-08
-3.92667e-08
1.20825e-08
-2.61992e-08
-3.8695e-08
1.04177e-08
-1.938e-08
-3.70881e-08
9.02692e-09
-1.27167e-08
-3.40965e-08
7.8097e-09
-6.82716e-09
-2.92243e-08
6.55702e-09
-2.30167e-09
-2.16795e-08
4.9135e-09
-9.98596e-09
2.31133e-09
-4.41502e-08
-9.88332e-08
-4.41495e-08
-5.82942e-08
-1.28943e-07
-5.14495e-08
-5.07731e-08
-1.26259e-07
-4.12926e-08
-3.19864e-08
-1.09689e-07
-2.49884e-08
-1.27491e-08
-9.6479e-08
-1.20735e-08
4.2667e-09
-8.57486e-08
-2.15887e-09
1.76515e-08
-7.80098e-08
5.18897e-09
2.71114e-08
-7.21433e-08
1.09114e-08
3.25887e-08
-6.75421e-08
1.56409e-08
3.41698e-08
-6.37459e-08
1.97446e-08
3.20608e-08
-6.05274e-08
2.33642e-08
2.66302e-08
-5.78124e-08
2.64907e-08
1.84345e-08
-5.56237e-08
2.90306e-08
8.21532e-09
-5.40239e-08
3.08574e-08
-3.13584e-09
-5.30745e-08
3.18605e-08
-1.46556e-08
-5.27962e-08
3.19843e-08
-2.53964e-08
-5.31533e-08
3.12442e-08
-3.45198e-08
-5.40466e-08
2.97323e-08
-4.13785e-08
-5.53154e-08
2.76076e-08
-4.55689e-08
-5.67536e-08
2.50693e-08
-4.69494e-08
-5.81345e-08
2.23319e-08
-4.56287e-08
-5.92212e-08
1.95923e-08
-4.19326e-08
-5.97727e-08
1.70094e-08
-3.63532e-08
-5.95414e-08
1.46952e-08
-2.94971e-08
-5.82479e-08
1.26968e-08
-2.20331e-08
-5.55416e-08
1.09896e-08
-1.46411e-08
-5.095e-08
9.46157e-09
-7.9809e-09
-4.37671e-08
7.8826e-09
-2.73711e-09
-3.27871e-08
5.86376e-09
-1.54722e-08
2.74911e-09
-1.78164e-08
-6.32012e-08
-1.78155e-08
-2.42049e-08
-1.00149e-07
-2.24052e-08
-2.0674e-08
-1.11588e-07
-1.82016e-08
-9.88566e-09
-1.1026e-07
-1.02175e-08
2.85727e-09
-1.06526e-07
-2.69627e-09
1.52101e-08
-1.01962e-07
3.86092e-09
2.55649e-08
-9.77858e-08
9.42117e-09
3.30974e-08
-9.3972e-08
1.42963e-08
3.73166e-08
-9.04928e-08
1.87316e-08
3.79924e-08
-8.72721e-08
2.28503e-08
3.51259e-08
-8.43071e-08
2.66463e-08
2.8962e-08
-8.16634e-08
3.0015e-08
1.99974e-08
-7.94537e-08
3.27946e-08
8.9665e-09
-7.78013e-08
3.48084e-08
-3.21487e-09
-7.68037e-08
3.59105e-08
-1.55398e-08
-7.65002e-08
3.6029e-08
-2.70113e-08
-7.68579e-08
3.51761e-08
-3.67424e-08
-7.77672e-08
3.34517e-08
-4.40537e-08
-7.90427e-08
3.10387e-08
-4.85267e-08
-8.04462e-08
2.81656e-08
-5.00227e-08
-8.17142e-08
2.50758e-08
-4.86655e-08
-8.25647e-08
2.19863e-08
-4.48028e-08
-8.27157e-08
1.90803e-08
-3.89479e-08
-8.18679e-08
1.64716e-08
-3.17263e-08
-7.96792e-08
1.42098e-08
-2.38199e-08
-7.57137e-08
1.22657e-08
-1.59271e-08
-6.93627e-08
1.05198e-08
-8.73873e-09
-5.96821e-08
8.72662e-09
-3.01509e-09
-4.49796e-08
6.46891e-09
-2.15168e-08
3.02951e-09
-6.76571e-09
-4.96708e-08
-6.76467e-09
-8.37254e-09
-9.02047e-08
-8.3378e-09
-4.67306e-09
-1.0941e-07
-5.87802e-09
3.39298e-09
-1.16932e-07
-1.39357e-09
1.31504e-08
-1.19648e-07
3.3654e-09
2.29304e-08
-1.19752e-07
8.00969e-09
3.13608e-08
-1.18663e-07
1.24466e-08
3.75226e-08
-1.16886e-07
1.6752e-08
4.07749e-08
-1.14728e-07
2.0983e-08
4.07344e-08
-1.12356e-07
2.51248e-08
3.7283e-08
-1.09931e-07
2.90749e-08
3.05852e-08
-1.07621e-07
3.26557e-08
2.10942e-08
-1.05608e-07
3.56452e-08
9.52708e-09
-1.0406e-07
3.78255e-08
-3.18583e-09
-1.03106e-07
3.9015e-08
-1.60142e-08
-1.02796e-07
3.91238e-08
-2.79318e-08
-1.03102e-07
3.81617e-08
-3.8022e-08
-1.03914e-07
3.62369e-08
-4.55884e-08
-1.05034e-07
3.35575e-08
-5.02059e-08
-1.06205e-07
3.03769e-08
-5.17459e-08
-1.07142e-07
2.69679e-08
-5.03477e-08
-1.07539e-07
2.35761e-08
-4.63777e-08
-1.07081e-07
2.03952e-08
-4.03623e-08
-1.05431e-07
1.75478e-08
-3.29363e-08
-1.0219e-07
1.50848e-08
-2.47864e-08
-9.68357e-08
1.29721e-08
-1.66176e-08
-8.8615e-08
1.10835e-08
-9.14043e-09
-7.63243e-08
9.16504e-09
-3.15875e-09
-5.77426e-08
6.78134e-09
-2.78507e-08
3.17516e-09
-1.71787e-09
-4.6236e-08
-1.71686e-09
-3.297e-10
-9.03203e-08
-1.27257e-09
4.11774e-09
-1.14565e-07
7.07677e-10
1.12152e-08
-1.27695e-07
3.66534e-09
1.95052e-08
-1.34953e-07
7.01468e-09
2.77962e-08
-1.38634e-07
1.05911e-08
3.49751e-08
-1.40188e-07
1.43463e-08
4.01745e-08
-1.40368e-07
1.82828e-08
4.27179e-08
-1.39645e-07
2.23736e-08
4.21675e-08
-1.38337e-07
2.65306e-08
3.83397e-08
-1.36696e-07
3.05936e-08
3.13474e-08
-1.34967e-07
3.4338e-08
2.16075e-08
-1.33363e-07
3.74953e-08
9.82174e-09
-1.3208e-07
3.98065e-08
-3.08479e-09
-1.31259e-07
4.10594e-08
-1.60795e-08
-1.30958e-07
4.11571e-08
-2.81305e-08
-1.31155e-07
4.01045e-08
-3.83109e-08
-1.31746e-07
3.80121e-08
-4.59226e-08
-1.32531e-07
3.51085e-08
-5.05446e-08
-1.33261e-07
3.16772e-08
-5.2062e-08
-1.33641e-07
2.80167e-08
-5.06306e-08
-1.33361e-07
2.43907e-08
-4.66255e-08
-1.32089e-07
2.1003e-08
-4.05802e-08
-1.29461e-07
1.79844e-08
-3.31281e-08
-1.25029e-07
1.53873e-08
-2.49487e-08
-1.18189e-07
1.31742e-08
-1.67393e-08
-1.08038e-07
1.12132e-08
-9.21203e-09
-9.30976e-08
9.2461e-09
-3.18325e-09
-7.06037e-08
6.83233e-09
-3.42348e-08
3.20087e-09
5.61921e-10
-4.73606e-08
5.62702e-10
3.54337e-09
-9.5457e-08
2.15528e-09
8.56758e-09
-1.23624e-07
4.03439e-09
1.5274e-08
-1.40713e-07
6.31157e-09
2.2747e-08
-1.51355e-07
8.92924e-09
3.00882e-08
-1.5787e-07
1.18946e-08
3.63964e-08
-1.61709e-07
1.52132e-08
4.0891e-08
-1.63737e-07
1.88741e-08
4.29296e-08
-1.64511e-07
2.28272e-08
4.20598e-08
-1.64416e-07
2.69496e-08
3.80807e-08
-1.63764e-07
3.10467e-08
3.10642e-08
-1.62814e-07
3.48631e-08
2.14001e-08
-1.61795e-07
3.80962e-08
9.76287e-09
-1.60909e-07
4.0466e-08
-2.94262e-09
-1.60299e-07
4.17458e-08
-1.57113e-08
-1.6002e-07
4.18303e-08
-2.7535e-08
-1.60054e-07
4.07222e-08
-3.75038e-08
-1.60308e-07
3.85314e-08
-4.49314e-08
-1.60604e-07
3.55015e-08
-4.94136e-08
-1.60703e-07
3.19249e-08
-5.08496e-08
-1.60322e-07
2.81166e-08
-4.94061e-08
-1.59167e-07
2.4362e-08
-4.54601e-08
-1.56908e-07
2.08727e-08
-3.9543e-08
-1.5316e-07
1.77819e-08
-3.22692e-08
-1.47438e-07
1.51353e-08
-2.42967e-08
-1.39057e-07
1.28953e-08
-1.62982e-08
-1.26972e-07
1.09355e-08
-8.96523e-09
-1.09426e-07
8.99541e-09
-3.09491e-09
-8.31133e-08
6.63926e-09
-4.04425e-08
3.11282e-09
1.52746e-09
-5.04159e-08
1.52785e-09
5.19928e-09
-1.02773e-07
3.64449e-09
1.04044e-08
-1.3429e-07
5.4613e-09
1.67438e-08
-1.54431e-07
7.3789e-09
2.35468e-08
-1.67726e-07
9.5682e-09
3.01075e-08
-1.76559e-07
1.21282e-08
3.56902e-08
-1.82399e-07
1.51073e-08
3.96011e-08
-1.86151e-07
1.85031e-08
4.12608e-08
-1.88423e-07
2.22527e-08
4.0239e-08
-1.89625e-07
2.62309e-08
3.63223e-08
-1.90075e-07
3.02274e-08
2.95708e-08
-1.90033e-07
3.39712e-08
2.03431e-08
-1.89721e-07
3.71531e-08
9.27253e-09
-1.89327e-07
3.9488e-08
-2.78385e-09
-1.88977e-07
4.07342e-08
-1.48821e-08
-1.88726e-07
4.08051e-08
-2.60749e-08
-1.88563e-07
3.97018e-08
-3.54939e-08
-1.88403e-07
3.75144e-08
-4.24886e-08
-1.88095e-07
3.44851e-08
-4.66811e-08
-1.87425e-07
3.09142e-08
-4.79835e-08
-1.86146e-07
2.71267e-08
-4.6567e-08
-1.83981e-07
2.33982e-08
-4.28027e-08
-1.80618e-07
1.99456e-08
-3.71942e-08
-1.75669e-07
1.69008e-08
-3.03261e-08
-1.68617e-07
1.43102e-08
-2.28144e-08
-1.58707e-07
1.21385e-08
-1.52936e-08
-1.44747e-07
1.02542e-08
-8.40531e-09
-1.24728e-07
8.41344e-09
-2.89773e-09
-9.48292e-08
6.20835e-09
-4.62553e-08
2.91504e-09
1.81971e-09
-5.40549e-08
1.81932e-09
5.56469e-09
-1.10555e-07
4.0364e-09
1.05318e-08
-1.44985e-07
5.72791e-09
1.63048e-08
-1.67581e-07
7.37677e-09
2.23544e-08
-1.83011e-07
9.23531e-09
2.81084e-08
-1.93763e-07
1.14501e-08
3.29545e-08
-2.01334e-07
1.40887e-08
3.63088e-08
-2.06658e-07
1.71529e-08
3.76555e-08
-2.10355e-07
2.05856e-08
3.66057e-08
-2.12837e-07
2.42612e-08
3.29626e-08
-2.14404e-07
2.79723e-08
2.6774e-08
-2.15305e-07
3.14598e-08
1.83613e-08
-2.15729e-07
3.4421e-08
8.30169e-09
-2.15852e-07
3.65854e-08
-2.62711e-09
-2.15775e-07
3.77274e-08
-1.35797e-08
-2.15558e-07
3.77838e-08
-2.37077e-08
-2.15186e-07
3.67513e-08
-3.22158e-08
-2.14594e-07
3.46988e-08
-3.85174e-08
-2.13648e-07
3.18552e-08
-4.22685e-08
-2.12165e-07
2.84914e-08
-4.33888e-08
-2.09943e-07
2.49169e-08
-4.20518e-08
-2.06724e-07
2.14056e-08
-3.86033e-08
-2.02231e-07
1.8165e-08
-3.35046e-08
-1.96084e-07
1.53159e-08
-2.7286e-08
-1.87739e-07
1.29035e-08
-2.05073e-08
-1.76382e-07
1.0896e-08
-1.37306e-08
-1.607e-07
9.17671e-09
-7.53617e-09
-1.38441e-07
7.51873e-09
-2.59469e-09
-1.05318e-07
5.54732e-09
-5.14606e-08
2.61062e-09
1.73295e-09
-5.75197e-08
1.73178e-09
5.11537e-09
-1.1769e-07
3.75307e-09
9.47329e-09
-1.54562e-07
5.21966e-09
1.44159e-08
-1.7912e-07
6.59648e-09
1.95238e-08
-1.96259e-07
8.1402e-09
2.4333e-08
-2.08569e-07
9.99645e-09
2.83549e-08
-2.17589e-07
1.22329e-08
3.11142e-08
-2.2428e-07
1.48627e-08
3.21693e-08
-2.29243e-07
1.78329e-08
3.11972e-08
-2.32893e-07
2.10278e-08
2.80272e-08
-2.35497e-07
2.42633e-08
2.26866e-08
-2.37269e-07
2.73048e-08
1.54658e-08
-2.38385e-07
2.98765e-08
6.85039e-09
-2.38982e-07
3.17449e-08
-2.48447e-09
-2.39159e-07
3.27186e-08
-1.18277e-08
-2.38975e-07
3.27601e-08
-2.04628e-08
-2.38421e-07
3.18699e-08
-2.77108e-08
-2.37425e-07
3.00793e-08
-3.30589e-08
-2.35881e-07
2.75805e-08
-3.62076e-08
-2.33635e-07
2.46187e-08
-3.71096e-08
-2.30512e-07
2.14709e-08
-3.59081e-08
-2.26308e-07
1.83831e-08
-3.29102e-08
-2.20766e-07
1.55373e-08
-2.85208e-08
-2.13514e-07
1.3041e-08
-2.31946e-08
-2.04004e-07
1.09385e-08
-1.74046e-08
-1.91369e-07
9.19772e-09
-1.16361e-08
-1.74189e-07
7.72021e-09
-6.37742e-09
-1.50015e-07
6.31592e-09
-2.18956e-09
-1.1417e-07
4.66394e-09
-5.58536e-08
2.20348e-09
1.41714e-09
-6.03522e-08
1.41537e-09
4.12276e-09
-1.23433e-07
3.03689e-09
7.55578e-09
-1.62182e-07
4.18608e-09
1.14069e-08
-1.88217e-07
5.2461e-09
1.535e-08
-2.06639e-07
6.43701e-09
1.90461e-08
-2.20147e-07
7.88234e-09
2.2127e-08
-2.30306e-07
9.63618e-09
2.42228e-08
-2.38092e-07
1.17163e-08
2.49969e-08
-2.44095e-07
1.40779e-08
2.41878e-08
-2.48709e-07
1.66257e-08
2.16573e-08
-2.52176e-07
1.92093e-08
1.74325e-08
-2.5467e-07
2.16264e-08
1.17391e-08
-2.56346e-07
2.36544e-08
4.96107e-09
-2.5732e-07
2.51157e-08
-2.36327e-09
-2.57699e-07
2.58639e-08
-9.68297e-09
-2.57543e-07
2.58884e-08
-1.64451e-08
-2.56847e-07
2.51879e-08
-2.20991e-08
-2.55542e-07
2.37703e-08
-2.62473e-08
-2.53515e-07
2.17819e-08
-2.866e-08
-2.50634e-07
1.94116e-08
-2.9297e-08
-2.46764e-07
1.68889e-08
-2.82813e-08
-2.41733e-07
1.44089e-08
-2.58621e-08
-2.35308e-07
1.21225e-08
-2.23656e-08
-2.27139e-07
1.01281e-08
-1.81481e-08
-2.16677e-07
8.4556e-09
-1.35908e-08
-2.03008e-07
7.08097e-09
-9.06584e-09
-1.84644e-07
5.9303e-09
-4.95273e-09
-1.5898e-07
4.85135e-09
-1.69535e-09
-1.21018e-07
3.59098e-09
-5.92559e-08
1.707e-09
9.54437e-10
-6.22568e-08
9.50248e-10
2.75289e-09
-1.27255e-07
2.02433e-09
5.02103e-09
-1.67225e-07
2.77548e-09
7.55139e-09
-1.94223e-07
3.47484e-09
1.01421e-08
-2.13501e-07
4.27116e-09
1.25698e-08
-2.27824e-07
5.24959e-09
1.45926e-08
-2.38786e-07
6.45726e-09
1.59627e-08
-2.4736e-07
7.89854e-09
1.64539e-08
-2.54132e-07
9.54502e-09
1.58818e-08
-2.59462e-07
1.1325e-08
1.41461e-08
-2.63569e-07
1.31291e-08
1.12593e-08
-2.66608e-07
1.48247e-08
7.36505e-09
-2.68703e-07
1.62517e-08
2.73402e-09
-2.69965e-07
1.72769e-08
-2.26484e-09
-2.70494e-07
1.77946e-08
-7.24708e-09
-2.70362e-07
1.78013e-08
-1.1825e-08
-2.69566e-07
1.72968e-08
-1.56269e-08
-2.68023e-07
1.62829e-08
-1.83771e-08
-2.65637e-07
1.4873e-08
-1.99228e-08
-2.62286e-07
1.31977e-08
-2.02472e-08
-2.57857e-07
1.14175e-08
-1.94493e-08
-2.52212e-07
9.68067e-09
-1.7708e-08
-2.45139e-07
8.08998e-09
-1.52505e-08
-2.36304e-07
6.7077e-09
-1.23285e-08
-2.2516e-07
5.56152e-09
-9.19606e-09
-2.10773e-07
4.63329e-09
-6.10485e-09
-1.916e-07
3.86517e-09
-3.31825e-09
-1.6493e-07
3.16403e-09
-1.12595e-09
-1.25568e-07
2.35754e-09
-6.15171e-08
1.13521e-09
3.97755e-10
-6.30476e-08
3.9301e-10
1.13355e-09
-1.28812e-07
8.20401e-10
2.06676e-09
-1.6928e-07
1.12123e-09
3.11497e-09
-1.96691e-07
1.41979e-09
4.20245e-09
-2.16374e-07
1.78563e-09
5.23715e-09
-2.31118e-07
2.25903e-09
6.11155e-09
-2.4252e-07
2.85975e-09
6.70814e-09
-2.51544e-07
3.58741e-09
6.91796e-09
-2.58772e-07
4.43055e-09
6.63738e-09
-2.64541e-07
5.35945e-09
5.80172e-09
-2.69052e-07
6.31837e-09
4.41157e-09
-2.72447e-07
7.22866e-09
2.52103e-09
-2.74814e-07
8.00146e-09
2.5818e-10
-2.76271e-07
8.56851e-09
-2.18704e-09
-2.76904e-07
8.85465e-09
-4.60505e-09
-2.76787e-07
8.84288e-09
-6.7883e-09
-2.75918e-07
8.53594e-09
-8.54224e-09
-2.74219e-07
7.94989e-09
-9.74176e-09
-2.71601e-07
7.16319e-09
-1.03263e-08
-2.67955e-07
6.25342e-09
-1.03048e-08
-2.63194e-07
5.31541e-09
-9.74963e-09
-2.57181e-07
4.41462e-09
-8.76144e-09
-2.49735e-07
3.60716e-09
-7.44891e-09
-2.40542e-07
2.92553e-09
-5.94918e-09
-2.29032e-07
2.37229e-09
-4.37836e-09
-2.14286e-07
1.94205e-09
-2.86676e-09
-1.94721e-07
1.60906e-09
-1.52912e-09
-1.67595e-07
1.3264e-09
-5.04991e-10
-1.27604e-07
1.01208e-09
-6.25343e-08
5.12179e-10
-2.09796e-10
-6.26221e-08
-2.15649e-10
-6.17185e-10
-1.27915e-07
-4.8875e-10
-1.12509e-09
-1.681e-07
-6.72035e-10
-1.65534e-09
-1.95364e-07
-7.95974e-10
-2.15539e-09
-2.14995e-07
-8.79587e-10
-2.58206e-09
-2.29757e-07
-9.34625e-10
-2.90463e-09
-2.41231e-07
-9.66937e-10
-3.10537e-09
-2.50369e-07
-9.74027e-10
-3.18009e-09
-2.57741e-07
-9.55802e-10
-3.13804e-09
-2.63673e-07
-9.10099e-10
-2.99965e-09
-2.68357e-07
-8.33032e-10
-2.80298e-09
-2.71924e-07
-7.19314e-10
-2.58159e-09
-2.74452e-07
-5.83636e-10
-2.35467e-09
-2.76038e-07
-4.60429e-10
-2.12321e-09
-2.76743e-07
-3.91982e-10
-1.85565e-09
-2.76635e-07
-4.19329e-10
-1.5241e-09
-2.75713e-07
-5.36875e-10
-1.12852e-09
-2.73909e-07
-7.04777e-10
-7.00827e-10
-2.71162e-07
-8.67055e-10
-2.7433e-10
-2.67386e-07
-9.95191e-10
9.88364e-11
-2.62495e-07
-1.07214e-09
3.97655e-10
-2.56382e-07
-1.09862e-09
6.04784e-10
-2.48857e-07
-1.08528e-09
7.05209e-10
-2.39604e-07
-1.03864e-09
7.17745e-10
-2.28081e-07
-9.63409e-10
6.46943e-10
-2.13349e-07
-8.6614e-10
5.17185e-10
-1.93847e-07
-7.44113e-10
3.3927e-10
-1.66827e-07
-5.89124e-10
1.43797e-10
-1.27019e-07
-3.89224e-10
-6.22522e-08
-1.38223e-10
-8.32691e-10
-6.09506e-08
-8.38784e-10
-2.41394e-09
-1.24506e-07
-1.82833e-09
-4.38025e-09
-1.63632e-07
-2.50144e-09
-6.51183e-09
-1.90182e-07
-3.05087e-09
-8.61289e-09
-2.09308e-07
-3.58549e-09
-1.05137e-08
-2.23687e-07
-4.16894e-09
-1.2044e-08
-2.34861e-07
-4.83972e-09
-1.3053e-08
-2.43758e-07
-5.60242e-09
-1.34174e-08
-2.50937e-07
-6.44016e-09
-1.30575e-08
-2.56725e-07
-7.30778e-09
-1.19538e-08
-2.61318e-07
-8.14279e-09
-1.0158e-08
-2.64839e-07
-8.88082e-09
-7.79511e-09
-2.67362e-07
-9.45301e-09
-5.03351e-09
-2.68967e-07
-9.832e-09
-2.06724e-09
-2.69691e-07
-1.00185e-08
9.40996e-10
-2.69589e-07
-1.00546e-08
3.82226e-09
-2.68655e-07
-9.93906e-09
6.3855e-09
-2.66845e-07
-9.62715e-09
8.44473e-09
-2.64122e-07
-9.09882e-09
9.86575e-09
-2.60421e-07
-8.38575e-09
1.05838e-08
-2.55659e-07
-7.55435e-09
1.06072e-08
-2.49732e-07
-6.6731e-09
1.0005e-08
-2.42447e-07
-5.80785e-09
8.8898e-09
-2.3348e-07
-5.00855e-09
7.40149e-09
-2.22296e-07
-4.29663e-09
5.68892e-09
-2.07967e-07
-3.67002e-09
3.9035e-09
-1.8897e-07
-3.09179e-09
2.2093e-09
-1.62634e-07
-2.49962e-09
7.92557e-10
-1.23814e-07
-1.78888e-09
-6.06717e-08
-7.87961e-10
-1.43715e-09
-5.80684e-08
-1.4451e-09
-4.15538e-09
-1.1866e-07
-3.12786e-09
-7.53637e-09
-1.55973e-07
-4.27765e-09
-1.12097e-08
-1.81276e-07
-5.23275e-09
-1.48604e-08
-1.9946e-07
-6.19699e-09
-1.81797e-08
-2.13079e-07
-7.28858e-09
-2.08755e-08
-2.23602e-07
-8.56343e-09
-2.26678e-08
-2.31919e-07
-1.00463e-08
-2.3322e-08
-2.38576e-07
-1.17071e-08
-2.2675e-08
-2.43897e-07
-1.34746e-08
-2.06554e-08
-2.48099e-07
-1.52389e-08
-1.73309e-08
-2.51309e-07
-1.68547e-08
-1.28944e-08
-2.5362e-07
-1.81785e-08
-7.65981e-09
-2.55094e-07
-1.91072e-08
-2.01257e-09
-2.55767e-07
-1.95708e-08
3.68079e-09
-2.55666e-07
-1.96165e-08
9.04734e-09
-2.54786e-07
-1.92357e-08
1.36983e-08
-2.53115e-07
-1.83811e-08
1.73064e-08
-2.50623e-07
-1.71073e-08
1.96577e-08
-2.4725e-07
-1.5523e-08
2.06779e-08
-2.42908e-07
-1.37712e-08
2.04176e-08
-2.37477e-07
-1.19946e-08
1.90281e-08
-2.30747e-07
-1.031e-08
1.67369e-08
-2.22395e-07
-8.79363e-09
1.38029e-08
-2.11883e-07
-7.47927e-09
1.05125e-08
-1.98332e-07
-6.34396e-09
7.14775e-09
-1.80273e-07
-5.33252e-09
3.99802e-09
-1.55157e-07
-4.32651e-09
1.41508e-09
-1.18105e-07
-3.12581e-09
-5.78458e-08
-1.41082e-09
-1.99486e-09
-5.40709e-08
-2.00263e-09
-5.75695e-09
-1.10576e-07
-4.32177e-09
-1.0439e-08
-1.45386e-07
-5.90473e-09
-1.55295e-08
-1.68955e-07
-7.23053e-09
-2.05969e-08
-1.85813e-07
-8.58017e-09
-2.52176e-08
-1.98335e-07
-1.01229e-08
-2.8982e-08
-2.07892e-07
-1.19453e-08
-3.14977e-08
-2.15328e-07
-1.40753e-08
-3.24314e-08
-2.21157e-07
-1.64849e-08
-3.15293e-08
-2.25721e-07
-1.90782e-08
-2.86859e-08
-2.29243e-07
-2.16989e-08
-2.39641e-08
-2.31879e-07
-2.41512e-08
-1.76269e-08
-2.3374e-07
-2.62171e-08
-1.01045e-08
-2.34908e-07
-2.7709e-08
-1.95555e-09
-2.35431e-07
-2.84853e-08
6.24159e-09
-2.35328e-07
-2.85354e-08
1.39042e-08
-2.34602e-07
-2.78461e-08
2.04607e-08
-2.33244e-07
-2.64282e-08
2.54704e-08
-2.3121e-07
-2.44227e-08
2.86544e-08
-2.28428e-07
-2.20051e-08
2.99316e-08
-2.24789e-07
-1.93956e-08
2.93929e-08
-2.20141e-07
-1.6797e-08
2.72737e-08
-2.1426e-07
-1.43678e-08
2.39018e-08
-2.06815e-07
-1.22078e-08
1.96512e-08
-1.97285e-07
-1.03479e-08
1.49173e-08
-1.84836e-07
-8.76261e-09
1.01081e-08
-1.68099e-07
-7.3641e-09
5.63517e-09
-1.44701e-07
-5.98313e-09
1.98233e-09
-1.10111e-07
-4.34137e-09
-5.38856e-08
-1.97787e-09
-2.4808e-09
-4.91017e-08
-2.48842e-09
-7.15058e-09
-1.00543e-07
-5.36348e-09
-1.29559e-08
-1.32261e-07
-7.32016e-09
-1.92725e-08
-1.53682e-07
-8.95569e-09
-2.55603e-08
-1.68905e-07
-1.06196e-08
-3.13011e-08
-1.80067e-07
-1.25276e-08
-3.59783e-08
-1.88422e-07
-1.47925e-08
-3.9112e-08
-1.94744e-07
-1.74508e-08
-4.0276e-08
-1.99531e-07
-2.04617e-08
-3.91559e-08
-2.03125e-07
-2.37161e-08
-3.56049e-08
-2.05762e-07
-2.70321e-08
-2.96851e-08
-2.0763e-07
-3.01687e-08
-2.17092e-08
-2.08875e-07
-3.28412e-08
-1.22067e-08
-2.09612e-07
-3.4798e-08
-1.89321e-09
-2.09916e-07
-3.58282e-08
8.46745e-09
-2.09815e-07
-3.58728e-08
1.81066e-08
-2.09315e-07
-3.49267e-08
2.63058e-08
-2.08398e-07
-3.30445e-08
3.25131e-08
-2.06989e-07
-3.04282e-08
3.64024e-08
-2.0499e-07
-2.7328e-08
3.78936e-08
-2.02252e-07
-2.40289e-08
3.7116e-08
-1.9859e-07
-2.07736e-08
3.43732e-08
-1.9377e-07
-1.77476e-08
3.00728e-08
-1.87451e-07
-1.50637e-08
2.46869e-08
-1.79134e-07
-1.27648e-08
1.87169e-08
-1.6805e-07
-1.08161e-08
1.26629e-08
-1.52941e-07
-9.10413e-09
7.04458e-09
-1.31671e-07
-7.41232e-09
2.47361e-09
-1.00146e-07
-5.39351e-09
-4.89434e-08
-2.46863e-09
-2.87241e-09
-4.33493e-08
-2.8799e-09
-8.27326e-09
-8.89414e-08
-6.20037e-09
-1.49858e-08
-1.17098e-07
-8.4506e-09
-2.22841e-08
-1.36058e-07
-1.03262e-08
-2.95495e-08
-1.49409e-07
-1.22308e-08
-3.61804e-08
-1.59031e-07
-1.44048e-08
-4.15817e-08
-1.6604e-07
-1.69803e-08
-4.51947e-08
-1.71131e-07
-2.00002e-08
-4.65272e-08
-1.74776e-07
-2.34228e-08
-4.52171e-08
-1.77302e-07
-2.71337e-08
-4.1088e-08
-1.78968e-07
-3.09235e-08
-3.42089e-08
-1.7999e-07
-3.45193e-08
-2.49272e-08
-1.80553e-07
-3.76029e-08
-1.38563e-08
-1.80809e-07
-3.98745e-08
-1.82486e-09
-1.80865e-07
-4.1083e-08
1.02529e-08
-1.8077e-07
-4.11233e-08
2.14594e-08
-1.80532e-07
-3.99894e-08
3.09533e-08
-1.80107e-07
-3.77855e-08
3.81137e-08
-1.79392e-07
-3.4757e-08
4.25725e-08
-1.78251e-07
-3.11976e-08
4.42441e-08
-1.76497e-07
-2.74264e-08
4.32872e-08
-1.73915e-07
-2.3718e-08
4.00536e-08
-1.70251e-07
-2.02847e-08
3.50165e-08
-1.6517e-07
-1.72439e-08
2.87274e-08
-1.58206e-07
-1.46387e-08
2.17635e-08
-1.48658e-07
-1.24272e-08
1.47136e-08
-1.35415e-07
-1.04767e-08
8.17905e-09
-1.1659e-07
-8.54568e-09
2.8675e-09
-8.86015e-08
-6.23327e-09
-4.32139e-08
-2.86193e-09
-3.15711e-09
-3.70282e-08
-3.16402e-09
-9.08683e-09
-7.6206e-08
-6.80567e-09
-1.64506e-08
-1.00468e-07
-9.26567e-09
-2.44576e-08
-1.16751e-07
-1.12998e-08
-3.24271e-08
-1.28091e-07
-1.33488e-08
-3.96929e-08
-1.36087e-07
-1.56784e-08
-4.56054e-08
-1.417e-07
-1.84279e-08
-4.95457e-08
-1.4555e-07
-2.16404e-08
-5.09801e-08
-1.48062e-07
-2.52798e-08
-4.95114e-08
-1.49555e-07
-2.92152e-08
-4.49523e-08
-1.50299e-07
-3.32283e-08
-3.73783e-08
-1.50524e-07
-3.70407e-08
-2.71675e-08
-1.50451e-07
-4.03128e-08
-1.49882e-08
-1.50261e-07
-4.27274e-08
-1.74974e-09
-1.50089e-07
-4.4014e-08
1.15322e-08
-1.50003e-07
-4.40489e-08
2.38399e-08
-1.50007e-07
-4.28322e-08
3.42542e-08
-1.50044e-07
-4.0477e-08
4.20987e-08
-1.49986e-07
-3.72511e-08
4.69727e-08
-1.49652e-07
-3.34725e-08
4.87878e-08
-1.48833e-07
-2.94784e-08
4.77172e-08
-1.47296e-07
-2.55486e-08
4.41388e-08
-1.4477e-07
-2.19029e-08
3.85794e-08
-1.40937e-07
-1.86737e-08
3.16399e-08
-1.35367e-07
-1.58991e-08
2.39603e-08
-1.27443e-07
-1.35361e-08
1.61916e-08
-1.16203e-07
-1.14429e-08
8.99554e-09
-1.00039e-07
-9.35571e-09
3.15228e-09
-7.59209e-08
-6.83732e-09
-3.69152e-08
-3.14647e-09
-3.32357e-09
-3.03748e-08
-3.32984e-09
-9.55876e-09
-6.28157e-08
-7.15504e-09
-1.73044e-08
-8.29994e-08
-9.72328e-09
-2.57296e-08
-9.64957e-08
-1.18303e-08
-3.412e-08
-1.05765e-07
-1.39359e-08
-4.17688e-08
-1.12125e-07
-1.63134e-08
-4.79808e-08
-1.16381e-07
-1.91067e-08
-5.21043e-08
-1.19065e-07
-2.23617e-08
-5.35795e-08
-1.20555e-07
-2.60316e-08
-5.19952e-08
-1.21155e-07
-2.99843e-08
-4.71644e-08
-1.21122e-07
-3.40077e-08
-3.91663e-08
-1.20703e-07
-3.78187e-08
-2.84105e-08
-1.20124e-07
-4.10834e-08
-1.55945e-08
-1.19585e-07
-4.34914e-08
-1.66656e-09
-1.19239e-07
-4.47785e-08
1.23023e-08
-1.19164e-07
-4.48082e-08
2.52384e-08
-1.19365e-07
-4.35789e-08
3.6188e-08
-1.19771e-07
-4.12227e-08
4.44357e-08
-1.20233e-07
-3.80003e-08
4.95678e-08
-1.20564e-07
-3.42207e-08
5.14818e-08
-1.20532e-07
-3.02158e-08
5.03534e-08
-1.19897e-07
-2.62708e-08
4.65772e-08
-1.18396e-07
-2.25978e-08
4.07009e-08
-1.1573e-07
-1.93301e-08
3.33664e-08
-1.11517e-07
-1.65159e-08
2.52539e-08
-1.05221e-07
-1.41089e-08
1.70544e-08
-9.60377e-08
-1.19659e-08
9.47032e-09
-8.26455e-08
-9.80897e-09
3.31779e-09
-6.2585e-08
-7.18341e-09
-3.02852e-08
-3.31221e-09
-3.36133e-09
-2.3647e-08
-3.36647e-09
-9.66772e-09
-4.92811e-08
-7.22826e-09
-1.75163e-08
-6.53462e-08
-9.8046e-09
-2.60727e-08
-7.60427e-08
-1.18966e-08
-3.46072e-08
-8.32608e-08
-1.39693e-08
-4.23926e-08
-8.80424e-08
-1.6297e-08
-4.87117e-08
-9.10417e-08
-1.90205e-08
-5.28951e-08
-9.26992e-08
-2.2182e-08
-5.43702e-08
-9.33472e-08
-2.57326e-08
-5.2727e-08
-9.32533e-08
-2.95449e-08
-4.77841e-08
-9.26575e-08
-3.34072e-08
-3.96401e-08
-9.17947e-08
-3.70523e-08
-2.87087e-08
-9.0887e-08
-4.01682e-08
-1.57009e-08
-9.01326e-08
-4.24606e-08
-1.57367e-09
-8.96844e-08
-4.36814e-08
1.25914e-08
-8.96223e-08
-4.37064e-08
2.57109e-08
-8.99498e-08
-4.25344e-08
3.68207e-08
-9.05941e-08
-4.02865e-08
4.52013e-08
-9.14067e-08
-3.7207e-08
5.04242e-08
-9.21961e-08
-3.35904e-08
5.23776e-08
-9.27391e-08
-2.97458e-08
5.12276e-08
-9.28046e-08
-2.59422e-08
4.73752e-08
-9.21527e-08
-2.2391e-08
4.13741e-08
-9.05091e-08
-1.92202e-08
3.38863e-08
-8.75493e-08
-1.64798e-08
2.56144e-08
-8.28232e-08
-1.41265e-08
1.72742e-08
-7.56788e-08
-1.20187e-08
9.58092e-09
-6.50707e-08
-9.88161e-09
3.35385e-09
-4.91047e-08
-7.25324e-09
-2.3582e-08
-3.34933e-09
-3.25762e-09
-1.71269e-08
-3.2624e-09
-9.38852e-09
-3.61543e-08
-6.99589e-09
-1.70536e-08
-4.82132e-08
-9.4678e-09
-2.54574e-08
-5.61869e-08
-1.1452e-08
-3.38756e-08
-6.14399e-08
-1.34026e-08
-4.15759e-08
-6.47536e-08
-1.55886e-08
-4.78348e-08
-6.66375e-08
-1.81453e-08
-5.19734e-08
-6.74521e-08
-2.11085e-08
-5.34293e-08
-6.74625e-08
-2.44287e-08
-5.18003e-08
-6.68998e-08
-2.79826e-08
-4.69169e-08
-6.59701e-08
-3.15708e-08
-3.88886e-08
-6.48803e-08
-3.49427e-08
-2.81311e-08
-6.38311e-08
-3.78133e-08
-1.53456e-08
-6.29985e-08
-3.99196e-08
-1.46763e-09
-6.25209e-08
-4.10414e-08
1.24453e-08
-6.24725e-08
-4.10626e-08
2.53334e-08
-6.28561e-08
-3.99819e-08
3.62561e-08
-6.36039e-08
-3.79129e-08
4.45018e-08
-6.45797e-08
-3.50727e-08
4.9643e-08
-6.5611e-08
-3.17263e-08
5.15602e-08
-6.64997e-08
-2.81566e-08
5.04096e-08
-6.70421e-08
-2.46119e-08
4.65768e-08
-6.70271e-08
-2.12928e-08
4.06187e-08
-6.6228e-08
-1.83229e-08
3.31968e-08
-6.4375e-08
-1.57524e-08
2.5025e-08
-6.11072e-08
-1.35441e-08
1.68243e-08
-5.59155e-08
-1.15627e-08
9.30349e-09
-4.8012e-08
-9.53786e-09
3.24953e-09
-3.6032e-08
-7.01872e-09
-1.70857e-08
-3.24679e-09
-2.99454e-09
-1.11342e-08
-2.99818e-09
-8.68165e-09
-2.40502e-08
-6.41696e-09
-1.58759e-08
-3.23681e-08
-8.65092e-09
-2.38486e-08
-3.77948e-08
-1.04194e-08
-3.19011e-08
-4.12357e-08
-1.21518e-08
-3.93083e-08
-4.32431e-08
-1.41032e-08
-4.53494e-08
-4.41951e-08
-1.64013e-08
-4.9362e-08
-4.43626e-08
-1.90768e-08
-5.07927e-08
-4.39527e-08
-2.20791e-08
-4.92612e-08
-4.31419e-08
-2.52894e-08
-4.46132e-08
-4.20948e-08
-2.85233e-08
-3.69649e-08
-4.09766e-08
-3.1552e-08
-2.67193e-08
-3.995e-08
-3.41267e-08
-1.45488e-08
-3.91577e-08
-3.60113e-08
-1.34306e-09
-3.87139e-08
-3.70127e-08
1.18942e-08
-3.86791e-08
-3.70306e-08
2.41575e-08
-3.90553e-08
-3.60641e-08
3.45525e-08
-3.97856e-08
-3.42133e-08
4.2399e-08
-4.07595e-08
-3.16666e-08
4.72822e-08
-4.18356e-08
-2.86586e-08
4.90771e-08
-4.28545e-08
-2.54402e-08
4.79239e-08
-4.36498e-08
-2.22391e-08
4.41944e-08
-4.40587e-08
-1.92389e-08
3.84276e-08
-4.39025e-08
-1.65587e-08
3.12766e-08
-4.29747e-08
-1.42493e-08
2.34512e-08
-4.1003e-08
-1.22789e-08
1.56641e-08
-3.76086e-08
-1.05197e-08
8.60294e-09
-3.22356e-08
-8.71524e-09
2.98588e-09
-2.39757e-08