/*--------------------------------*- C++ -*----------------------------------*\
| =========                 |                                                 |
| \\      /  F ield         | OpenFOAM: The Open Source CFD Toolbox           |
|  \\    /   O peration     | Version:  v1906                                 |
|   \\  /    A nd           | Web:      www.OpenFOAM.com                      |
|    \\/     M anipulation  |                                                 |
\*---------------------------------------------------------------------------*/
FoamFile
{
    version     2.0;
    format      ascii;
    class       volScalarField;
    location    "98";
    object      k;
}
// * * * * * * * * * * * * * * * * * * * * * * * * * * * * * * * * * * * * * //

dimensions      [0 2 -2 0 0 0 0];


internalField   nonuniform List<scalar> 
78750
(
6.70991e-07
4.79782e-06
9.06287e-06
1.3395e-05
1.76917e-05
2.18512e-05
2.5784e-05
2.94218e-05
3.27199e-05
3.5653e-05
3.82099e-05
4.03881e-05
4.21904e-05
4.36229e-05
4.46856e-05
4.53847e-05
4.57284e-05
4.5724e-05
4.53788e-05
4.46999e-05
4.36947e-05
4.23767e-05
4.07448e-05
3.88006e-05
3.65597e-05
3.40367e-05
3.12485e-05
2.821e-05
2.49402e-05
2.1447e-05
1.77092e-05
1.36964e-05
9.51094e-06
5.55081e-06
2.31111e-06
1.72631e-06
1.53486e-05
2.78982e-05
3.96645e-05
5.0662e-05
6.07326e-05
6.97238e-05
7.75615e-05
8.42405e-05
8.97969e-05
9.42858e-05
9.777e-05
0.000100313
0.000101977
0.000102842
0.000102972
0.000102416
0.000101219
9.9424e-05
9.70707e-05
9.41952e-05
9.08282e-05
8.69829e-05
8.26709e-05
7.79083e-05
7.27161e-05
6.71333e-05
6.11651e-05
5.47853e-05
4.79591e-05
4.05445e-05
3.23907e-05
2.39666e-05
1.66239e-05
1.15032e-05
2.6938e-06
2.04477e-05
3.71055e-05
5.24883e-05
6.62063e-05
7.79843e-05
8.77764e-05
9.5711e-05
0.000101986
0.000106801
0.000110334
0.000112739
0.000114145
0.000114667
0.000114404
0.000113446
0.000111877
0.000109777
0.000107223
0.000104291
0.000101051
9.75689e-05
9.38847e-05
9.0004e-05
8.58876e-05
8.14585e-05
7.6623e-05
7.12856e-05
6.53363e-05
5.86032e-05
5.08199e-05
4.19098e-05
3.28086e-05
2.48149e-05
1.89987e-05
4.51502e-06
2.86964e-05
5.12389e-05
7.13133e-05
8.80753e-05
0.000101339
0.000111501
0.000119128
0.000124695
0.00012855
0.000130944
0.00013206
0.000132044
0.000131012
0.000129071
0.00012633
0.000122904
0.000118922
0.000114525
0.000109868
0.000105116
0.000100436
9.59713e-05
9.1795e-05
8.78697e-05
8.40482e-05
8.01079e-05
7.57945e-05
7.08325e-05
6.48875e-05
5.75882e-05
4.89292e-05
4.01142e-05
3.20517e-05
2.54623e-05
6.60874e-06
3.60623e-05
6.29439e-05
8.58122e-05
0.000103645
0.000116752
0.000126192
0.000132916
0.00013754
0.000140437
0.000141838
0.000141891
0.000140697
0.000138345
0.000134934
0.000130593
0.000125487
0.00011981
0.000113784
0.00010765
0.000101672
9.61282e-05
9.12542e-05
8.71626e-05
8.38081e-05
8.0999e-05
7.84206e-05
7.56733e-05
7.23048e-05
6.7811e-05
6.17176e-05
5.40438e-05
4.59876e-05
3.79929e-05
3.02788e-05
8.9813e-06
4.31792e-05
7.38441e-05
9.90758e-05
0.000117866
0.000131107
0.000140392
0.000146874
0.000151184
0.000153655
0.000154467
0.000153716
0.00015147
0.000147811
0.00014287
0.000136834
0.000129944
0.000122477
0.000114732
0.000107025
9.9698e-05
9.31099e-05
8.75416e-05
8.31e-05
7.9745e-05
7.73134e-05
7.55093e-05
7.39023e-05
7.19414e-05
6.89754e-05
6.43748e-05
5.80181e-05
5.08313e-05
4.2873e-05
3.40008e-05
1.11086e-05
4.90044e-05
8.25265e-05
0.000109444
0.000128852
0.000142155
0.000151306
0.000157558
0.000161538
0.000163547
0.000163723
0.000162124
0.000158797
0.00015384
0.000147435
0.000139848
0.000131402
0.000122457
0.000113386
0.000104579
9.64603e-05
8.9426e-05
8.36724e-05
7.92083e-05
7.59678e-05
7.38235e-05
7.25466e-05
7.17621e-05
7.09202e-05
6.92962e-05
6.61191e-05
6.10723e-05
5.47095e-05
4.68205e-05
3.717e-05
1.31998e-05
5.46072e-05
9.08646e-05
0.00011949
0.000139669
0.000153228
0.000162424
0.000168601
0.00017238
0.000174034
0.000173661
0.000171287
0.000166957
0.000160801
0.000153062
0.000144075
0.000134234
0.000123964
0.000113701
0.000103913
9.51059e-05
8.7673e-05
8.1682e-05
7.70566e-05
7.37093e-05
7.15456e-05
7.04167e-05
7.00453e-05
6.99487e-05
6.93853e-05
6.74511e-05
6.35808e-05
5.79613e-05
5.02042e-05
4.01619e-05
1.49354e-05
5.90905e-05
9.75271e-05
0.000127563
0.00014845
0.000162323
0.000171645
0.000177816
0.000181454
0.000182805
0.00018194
0.000178863
0.000173631
0.000166411
0.000157505
0.000147315
0.000136304
0.000124956
0.000113781
0.000103335
9.42079e-05
8.66947e-05
8.07001e-05
7.60668e-05
7.26792e-05
7.04608e-05
6.93294e-05
6.91152e-05
6.94408e-05
6.96065e-05
6.86279e-05
6.57187e-05
6.07552e-05
5.32395e-05
4.32248e-05
1.67924e-05
6.39029e-05
0.00010465
0.000136147
0.000157741
0.000171903
0.000181315
0.000187443
0.000190903
0.000191923
0.000190544
0.000186761
0.000180641
0.00017239
0.000162362
0.000151021
0.000138892
0.000126527
0.000114505
0.000103482
9.41283e-05
8.65953e-05
8.06516e-05
7.60642e-05
7.26759e-05
7.04047e-05
6.9207e-05
6.89984e-05
6.95133e-05
7.01293e-05
6.98365e-05
6.76786e-05
6.32887e-05
5.60955e-05
4.63487e-05
1.84273e-05
6.79536e-05
0.000110617
0.000143376
0.000165648
0.000180149
0.000189721
0.000195874
0.000199223
0.000199975
0.000198152
0.00019374
0.000186821
0.000177639
0.000166598
0.000154218
0.000141086
0.000127823
0.000115083
0.000103633
9.42075e-05
8.67844e-05
8.10136e-05
7.65902e-05
7.33105e-05
7.10732e-05
6.9849e-05
6.96092e-05
7.01799e-05
7.10342e-05
7.11857e-05
6.95796e-05
6.56746e-05
5.88419e-05
4.94865e-05
2.02506e-05
7.24015e-05
0.000117098
0.000151117
0.000173993
0.000188754
0.000198418
0.000204541
0.000207731
0.000208177
0.000205881
0.000200827
0.000193111
0.000183012
0.000170976
0.000157577
0.000143458
0.000129304
0.000115855
0.000103985
9.44906e-05
8.71915e-05
8.16332e-05
7.74361e-05
7.43435e-05
7.22234e-05
7.10402e-05
7.07912e-05
7.13659e-05
7.23229e-05
7.27348e-05
7.15119e-05
6.79992e-05
6.15159e-05
5.25646e-05
2.19712e-05
7.63975e-05
0.00012286
0.000157999
0.000181454
0.000196505
0.000206307
0.000212447
0.000215528
0.000215718
0.000213005
0.00020737
0.000198928
0.000187987
0.000175036
0.000160694
0.000145661
0.000130686
0.000116578
0.000104328
9.47876e-05
8.76382e-05
8.23324e-05
7.8417e-05
7.5583e-05
7.36622e-05
7.26004e-05
7.23976e-05
7.29768e-05
7.39639e-05
7.45064e-05
7.35298e-05
7.03167e-05
6.4135e-05
5.55344e-05
2.3831e-05
8.0617e-05
0.000128883
0.00016511
0.000189081
0.000204367
0.000214268
0.000220399
0.000223352
0.000223277
0.000220147
0.000213945
0.000204801
0.000193052
0.000179219
0.000163963
0.00014803
0.000132231
0.00011745
0.000104783
9.51505e-05
8.81227e-05
8.30643e-05
7.94513e-05
7.69203e-05
7.52619e-05
7.43937e-05
7.43012e-05
7.49154e-05
7.59061e-05
7.6494e-05
7.56569e-05
7.2654e-05
6.67029e-05
5.83646e-05
2.56501e-05
8.45851e-05
0.000134487
0.000171713
0.000196182
0.000211721
0.00022175
0.000227903
0.000230762
0.00023046
0.000226958
0.000220243
0.000210463
0.000197976
0.000183334
0.000167231
0.000150455
0.000133867
0.000118419
0.000105306
9.5537e-05
8.85944e-05
8.37687e-05
8.0468e-05
7.82722e-05
7.69278e-05
7.63181e-05
7.64022e-05
7.70989e-05
7.80994e-05
7.86875e-05
7.79121e-05
7.50381e-05
6.92338e-05
6.10493e-05
2.7542e-05
8.86173e-05
0.000140137
0.000178322
0.000203249
0.000219016
0.000229162
0.000235335
0.000238105
0.000237588
0.000233736
0.000226542
0.000216168
0.000202994
0.000187594
0.000170685
0.000153088
0.000135708
0.000119569
0.000105947
9.59651e-05
8.9053e-05
8.44265e-05
8.14321e-05
7.9589e-05
7.85963e-05
7.82987e-05
7.86197e-05
7.94513e-05
8.04848e-05
8.10529e-05
8.02842e-05
7.74673e-05
7.17235e-05
6.35823e-05
2.94211e-05
9.25148e-05
0.000145556
0.000184649
0.000210026
0.000226034
0.000236316
0.000242531
0.000245234
0.000244531
0.000240367
0.000232742
0.000221834
0.000208041
0.000191953
0.000174304
0.000155934
0.000137788
0.000120947
0.000106752
9.64702e-05
8.95154e-05
8.5043e-05
8.23322e-05
8.08446e-05
8.02294e-05
8.02873e-05
8.08999e-05
8.19198e-05
8.30217e-05
8.35704e-05
8.27727e-05
7.99521e-05
7.41858e-05
6.59784e-05
3.1326e-05
9.63837e-05
0.000150903
0.000190871
0.000216678
0.000232923
0.000243344
0.000249607
0.000252256
0.000251384
0.000246934
0.000238917
0.000227525
0.000213171
0.000196456
0.000178121
0.000159017
0.00014012
0.000122554
0.000107729
9.70569e-05
8.99788e-05
8.56023e-05
8.31457e-05
8.20102e-05
8.17907e-05
8.22404e-05
8.31931e-05
8.44537e-05
8.56653e-05
8.62083e-05
8.53601e-05
8.2486e-05
7.66182e-05
6.82395e-05
3.32309e-05
0.000100182
0.000156128
0.000196948
0.000223192
0.000239688
0.000250262
0.000256586
0.000259192
0.000258168
0.00025346
0.000245089
0.000233266
0.000218414
0.00020114
0.000182182
0.0001624
0.000142782
0.000124481
0.000108965
9.77915e-05
9.04885e-05
8.61291e-05
8.38783e-05
8.3077e-05
8.32627e-05
8.41328e-05
8.54668e-05
8.70162e-05
8.83808e-05
8.89407e-05
8.80339e-05
8.50668e-05
7.90283e-05
7.03847e-05
3.51353e-05
0.000103907
0.000161229
0.000202882
0.000229564
0.000246322
0.000257059
0.000263446
0.000266013
0.000264847
0.000259902
0.000251214
0.000239009
0.000223719
0.000205952
0.000186437
0.000166034
0.000145731
0.000126699
0.000110447
9.86787e-05
9.1054e-05
8.66307e-05
8.45307e-05
8.40377e-05
8.46287e-05
8.5943e-05
8.76972e-05
8.95786e-05
9.11388e-05
9.17433e-05
9.07785e-05
8.76874e-05
8.14153e-05
7.24188e-05
3.70458e-05
0.000107589
0.00016626
0.000208749
0.000235898
0.000252952
0.000263861
0.000270302
0.000272819
0.000271511
0.000266345
0.000257374
0.000244834
0.000229165
0.000210967
0.000190963
0.000169996
0.000149046
0.000129288
0.00011226
9.97864e-05
9.17266e-05
8.71411e-05
8.51206e-05
8.48963e-05
8.58828e-05
8.76547e-05
8.98625e-05
9.21207e-05
9.39157e-05
9.45923e-05
9.35745e-05
9.03384e-05
8.3782e-05
7.43583e-05
3.89427e-05
0.000111168
0.000171131
0.00021445
0.000242108
0.000259522
0.000270608
0.00027706
0.000279501
0.000278048
0.000272681
0.000263463
0.000250641
0.000234655
0.000216096
0.000195673
0.000174209
0.000152664
0.000132204
0.000114383
0.000101118
9.25229e-05
8.76796e-05
8.56631e-05
8.56602e-05
8.70239e-05
8.92596e-05
9.19449e-05
9.46189e-05
9.66948e-05
9.74779e-05
9.64221e-05
9.30215e-05
8.61301e-05
7.62077e-05
4.08487e-05
0.000114709
0.000175932
0.000220079
0.000248304
0.000266072
0.000277351
0.000283829
0.00028616
0.000284562
0.000279013
0.000269583
0.000256525
0.000240278
0.00022142
0.000200643
0.000178742
0.000156649
0.000135506
0.000116872
0.000102723
9.3486e-05
8.82799e-05
8.61812e-05
8.63421e-05
8.8056e-05
9.0755e-05
9.39364e-05
9.70559e-05
9.94475e-05
0.000100362
9.92664e-05
9.57037e-05
8.845e-05
7.79779e-05
4.27341e-05
0.000118133
0.000180544
0.000225476
0.000254248
0.000272335
0.000283821
0.000290389
0.000292642
0.000290924
0.000285224
0.000275621
0.000262377
0.000245926
0.000226838
0.00020578
0.000183515
0.000160939
0.000139158
0.000119714
0.00010462
9.46485e-05
8.89766e-05
8.67034e-05
8.69612e-05
8.89888e-05
9.21422e-05
9.58319e-05
9.94219e-05
0.000102161
0.000103251
0.000102189
9.84023e-05
9.07472e-05
7.96732e-05
4.46299e-05
0.000121532
0.000185113
0.000230824
0.00026011
0.000278507
0.000290205
0.000296888
0.000299133
0.00029727
0.000291422
0.000281674
0.000268283
0.000251679
0.000232417
0.00021114
0.000188575
0.000165574
0.000143197
0.00012295
0.000106857
9.60577e-05
8.98145e-05
8.72664e-05
8.75432e-05
8.98372e-05
9.34282e-05
9.76338e-05
0.00010172
0.000104843
0.000106147
0.000105158
0.000101149
9.30278e-05
8.12983e-05
4.65016e-05
0.000124808
0.000189506
0.000236026
0.000265724
0.0002844
0.000296309
0.000303123
0.000305394
0.00030342
0.000297471
0.000287624
0.000274139
0.00025744
0.000238069
0.000216643
0.000193854
0.000170503
0.000147591
0.000126576
0.000109462
9.77592e-05
9.08428e-05
8.79134e-05
8.81196e-05
9.06203e-05
9.46204e-05
9.93391e-05
0.000103935
0.000107469
0.000109037
0.000108142
0.000103939
9.52976e-05
8.28573e-05
4.83763e-05
0.000128023
0.00019378
0.000241069
0.000271189
0.00029016
0.000302297
0.000309262
0.000311583
0.000309529
0.000303493
0.000293567
0.000280015
0.000263261
0.000243831
0.000222316
0.000199368
0.000175736
0.000152354
0.000130615
0.000112485
9.98126e-05
9.21243e-05
8.87012e-05
8.87353e-05
9.13689e-05
9.57378e-05
0.000100959
0.000106079
0.000110062
0.000111963
0.000111153
0.000106753
9.75567e-05
8.43573e-05
5.02281e-05
0.000131133
0.000197888
0.000245903
0.000276416
0.000295667
0.000308031
0.000315159
0.000317565
0.000315492
0.000309374
0.000299392
0.000285816
0.000269059
0.00024963
0.000228094
0.000205064
0.000181232
0.000157463
0.000135073
0.000115967
0.000102276
9.3724e-05
8.96926e-05
8.94413e-05
9.21185e-05
9.68016e-05
0.000102506
0.00010816
0.000112625
0.000114902
0.000114185
0.000109584
9.9804e-05
8.58005e-05
5.20815e-05
0.000134192
0.000201901
0.000250613
0.000281504
0.000301032
0.000313624
0.000320921
0.000323421
0.000321362
0.000315165
0.00030515
0.00029158
0.00027486
0.000255479
0.000233977
0.000210929
0.000186974
0.000162904
0.000139951
0.000119944
0.000105204
9.57112e-05
9.09594e-05
9.0301e-05
9.29168e-05
9.78429e-05
0.000103997
0.000110185
0.000115153
0.000117834
0.000117221
0.000112417
0.000102032
8.71901e-05
5.39146e-05
0.000137158
0.000205762
0.000255123
0.000286367
0.000306161
0.000318978
0.000326447
0.000329054
0.000327025
0.000320782
0.00031077
0.000297248
0.000280609
0.000261327
0.000239918
0.00021692
0.000192922
0.000168644
0.000145229
0.000124421
0.000108633
9.81441e-05
9.25711e-05
9.13805e-05
9.38163e-05
9.88966e-05
0.00010545
0.000112157
0.000117639
0.000120741
0.000120246
0.000115241
0.000104237
8.85292e-05
5.57481e-05
0.000140086
0.000209545
0.000259516
0.000291088
0.000311135
0.000324174
0.000331818
0.000334537
0.000332552
0.000326279
0.000316291
0.00030284
0.000286311
0.000267165
0.000245893
0.000223002
0.000199032
0.000174633
0.000150861
0.000129359
0.000112558
0.000101054
9.45842e-05
9.27458e-05
9.48777e-05
0.00010001
0.000106898
0.000114099
0.000120097
0.000123627
0.000123255
0.000118049
0.000106415
8.9822e-05
5.75674e-05
0.000142942
0.000213206
0.000263728
0.000295595
0.000315882
0.000329138
0.000336961
0.000339804
0.000337879
0.000331602
0.000321666
0.000308317
0.000291933
0.000272962
0.000251874
0.000229145
0.00020527
0.000180835
0.000156804
0.000134718
0.000116967
0.000104459
9.70407e-05
9.44529e-05
9.61555e-05
0.000101223
0.000108362
0.000116006
0.0001225
0.000126465
0.00012623
0.00012083
0.000108563
9.10725e-05
5.93868e-05
0.000145763
0.000216823
0.000267815
0.000299942
0.000320454
0.000333921
0.000341922
0.000344894
0.000343041
0.000336778
0.000326909
0.00031368
0.000297462
0.000278692
0.000257823
0.000235301
0.000211581
0.000187185
0.000162993
0.000140434
0.000121823
0.000108355
9.99709e-05
9.65548e-05
9.77114e-05
0.000102594
0.00010989
0.000117929
0.000124931
0.000129284
0.000129175
0.000123582
0.00011068
9.22837e-05
6.11883e-05
0.000148496
0.000220323
0.000271714
0.000304076
0.000324804
0.00033848
0.000346662
0.000349771
0.000348007
0.000341784
0.000332
0.00031891
0.000302882
0.000284343
0.000263727
0.000241454
0.000217941
0.000193654
0.00016939
0.000146467
0.000127101
0.000112739
0.000103396
9.90938e-05
9.95958e-05
0.00010417
0.000111516
0.000119885
0.000127369
0.000132082
0.000132088
0.000126303
0.000112765
9.34601e-05
6.29672e-05
0.000151132
0.000223671
0.000275444
0.000308031
0.000328963
0.000342839
0.000351196
0.000354443
0.000352782
0.000346636
0.000336928
0.000323983
0.000308163
0.000289879
0.000269543
0.000247554
0.000224293
0.000200175
0.000175921
0.000152743
0.000132744
0.000117581
0.000107322
0.000102108
0.000101868
0.000106012
0.000113294
0.000121911
0.000129827
0.000134866
0.000134972
0.00012899
0.000114816
9.46016e-05
6.47373e-05
0.000153705
0.00022691
0.00027902
0.000311799
0.00033292
0.000346987
0.000355513
0.000358892
0.000357328
0.000351269
0.000341661
0.00032889
0.000313306
0.000295304
0.000275278
0.000253605
0.000230635
0.000206737
0.000182564
0.000159227
0.000138713
0.000122851
0.000111739
0.000105615
0.000104566
0.000108169
0.000115267
0.000124034
0.000132316
0.000137641
0.000137828
0.000131644
0.000116835
9.57123e-05
6.64939e-05
0.000156189
0.000230008
0.000282416
0.000315371
0.000336672
0.000350926
0.000359618
0.00036313
0.000361668
0.000355698
0.000346191
0.000333604
0.000318278
0.000300574
0.00028088
0.000259549
0.000236904
0.000213273
0.000189249
0.000165848
0.000144944
0.000128499
0.000116621
0.000109619
0.000107728
0.000110697
0.000117491
0.000126296
0.000134862
0.00014042
0.000140661
0.000134265
0.000118819
9.67906e-05
6.82458e-05
0.000158623
0.000233
0.000285663
0.000318767
0.000340231
0.000354659
0.000363509
0.000367147
0.000365787
0.000359914
0.000350528
0.000338136
0.000323069
0.000305696
0.000286357
0.000265393
0.000243103
0.000219778
0.000195956
0.000172574
0.000151395
0.000134478
0.000121929
0.000114104
0.000111364
0.000113629
0.00012001
0.000128738
0.000137491
0.000143218
0.000143479
0.000136855
0.000120771
9.78391e-05
6.99821e-05
0.000160959
0.000235837
0.000288721
0.000321958
0.000343575
0.00035817
0.000367169
0.000370929
0.000369666
0.000363894
0.00035464
0.000342459
0.000327668
0.000310619
0.000291658
0.000271082
0.000249171
0.000226188
0.000202622
0.000179337
0.000157999
0.000140729
0.000127615
0.000119042
0.000115472
0.000116989
0.000122863
0.000131402
0.000140239
0.000146058
0.000146294
0.000139421
0.000122689
9.88557e-05
7.17152e-05
0.00016324
0.000238574
0.000291641
0.000324984
0.000346737
0.000361484
0.000370622
0.000374493
0.000373324
0.000367654
0.000358542
0.000346583
0.000332081
0.000315375
0.000296789
0.000276621
0.000255112
0.000232498
0.00020923
0.00018611
0.000164716
0.000147204
0.000133634
0.000124396
0.000120032
0.000120777
0.000126067
0.000134313
0.000143129
0.000148958
0.000149118
0.000141967
0.000124577
9.98398e-05
7.34328e-05
0.000165429
0.000241159
0.000294372
0.000327802
0.000349678
0.000364566
0.000373833
0.000377808
0.000376727
0.000371159
0.000362198
0.000350469
0.000336266
0.000319912
0.000301716
0.000281957
0.000260871
0.000238651
0.000215722
0.000192831
0.000171484
0.000153843
0.000139933
0.00013013
0.000125033
0.000125006
0.000129651
0.000137502
0.000146187
0.000151939
0.000151963
0.000144499
0.000126433
0.000100787
7.5141e-05
0.000167556
0.00024364
0.000296963
0.000330458
0.00035244
0.000367456
0.00037684
0.000380909
0.000379909
0.000374442
0.000365639
0.000354147
0.000340248
0.000324252
0.000306453
0.000287112
0.000266448
0.000244647
0.000222084
0.000199471
0.000178257
0.000160589
0.000146447
0.000136188
0.000130437
0.000129663
0.000133624
0.000140989
0.000149435
0.000155015
0.000154841
0.000147023
0.000128261
0.0001017
7.68258e-05
0.000169586
0.000245968
0.000299365
0.000332902
0.000354977
0.000370111
0.000379602
0.000383755
0.00038283
0.000377464
0.000368827
0.000357577
0.000343988
0.000328356
0.000310959
0.000292045
0.000271814
0.000250435
0.000228277
0.000205988
0.000184986
0.000167383
0.000153114
0.000142504
0.00013619
0.000134718
0.000137983
0.000144793
0.000152898
0.00015821
0.000157766
0.000149548
0.000130065
0.000102581
7.84937e-05
0.000171547
0.000248184
0.000301622
0.000335182
0.000357336
0.000372574
0.000382162
0.00038639
0.000385533
0.000380267
0.000371801
0.000360796
0.000347518
0.00033225
0.000315256
0.00029677
0.000276976
0.000256028
0.000234272
0.000212356
0.00019164
0.000174184
0.000159877
0.000149013
0.000142227
0.000140118
0.000142695
0.000148902
0.000156581
0.000161533
0.00016075
0.000152083
0.000131851
0.000103436
8.01304e-05
0.000173407
0.000250243
0.000303686
0.000337249
0.000359468
0.000374802
0.000384477
0.000388773
0.000387981
0.000382815
0.000374527
0.000363773
0.000350808
0.000335904
0.000319315
0.000301258
0.000281907
0.000261399
0.00024007
0.000218548
0.000198179
0.000180944
0.000166682
0.000155653
0.000148484
0.000145808
0.000147725
0.000153304
0.000160486
0.000164995
0.000163804
0.000154636
0.000133624
0.000104268
8.17401e-05
0.000175188
0.000252179
0.000305598
0.000339147
0.000361421
0.00037684
0.000386595
0.000390952
0.000390221
0.000385155
0.00037705
0.000366547
0.000353892
0.000339348
0.000323158
0.000305526
0.000286616
0.000266554
0.000245664
0.000224566
0.000204599
0.000187644
0.000173494
0.000162378
0.000154904
0.000151727
0.000153019
0.000157959
0.000164596
0.000168593
0.000166932
0.000157215
0.000135393
0.000105081
8.33075e-05
0.000176857
0.000253951
0.000307313
0.000340832
0.000363149
0.000378647
0.000388476
0.000392891
0.00039222
0.00038726
0.000379347
0.000369098
0.000356754
0.000342568
0.000326772
0.000309563
0.000291092
0.000271478
0.000251039
0.000230392
0.000210878
0.000194261
0.000180283
0.000169146
0.000161439
0.000157825
0.000158534
0.000162838
0.000168891
0.000172317
0.000170132
0.00015982
0.000137156
0.000105877
8.48371e-05
0.000178437
0.000255593
0.000308873
0.000342347
0.000364699
0.000380269
0.000390166
0.000394635
0.000394024
0.000389173
0.00038146
0.000371468
0.00035943
0.000345594
0.000330183
0.000313386
0.000295347
0.000276178
0.000256196
0.000236022
0.000217005
0.000200768
0.000187018
0.000175923
0.000168049
0.00016406
0.000164225
0.000167901
0.000173349
0.000176161
0.000173406
0.000162457
0.000138923
0.000106662
8.63165e-05
0.000179903
0.000257073
0.000310242
0.000343656
0.000366034
0.000381668
0.00039163
0.000396152
0.000395605
0.000390872
0.000383372
0.000373643
0.000361913
0.000348423
0.000333391
0.000316998
0.000299384
0.000280657
0.000261135
0.000241451
0.000222973
0.000207156
0.000193675
0.000182674
0.00017469
0.00017038
0.000170043
0.000173113
0.000177935
0.0001801
0.000176741
0.000165121
0.00014069
0.000107437
8.77535e-05
0.000181282
0.000258427
0.00031146
0.0003448
0.000367193
0.000382886
0.000392907
0.00039748
0.000396999
0.000392392
0.000385116
0.000375655
0.000364232
0.000351082
0.000336419
0.000320419
0.000303219
0.000284927
0.000265867
0.000246687
0.000228781
0.000213416
0.000200239
0.000189371
0.000181329
0.000176754
0.000175967
0.000178478
0.000182644
0.000184129
0.000180135
0.000167815
0.000142464
0.000108207
8.91399e-05
0.000182553
0.000259629
0.000312499
0.000345749
0.000368148
0.000383891
0.000393968
0.000398592
0.000398183
0.000393713
0.000386678
0.000377496
0.000366384
0.000353573
0.000339274
0.000323659
0.000306863
0.000289
0.000270401
0.000251734
0.000234429
0.000219541
0.0002067
0.000196004
0.000187946
0.000183154
0.000181964
0.000183948
0.000187446
0.000188228
0.000183574
0.00017053
0.000144241
0.000108973
9.04854e-05
0.000183744
0.000260715
0.000313394
0.000346539
0.000368933
0.000384719
0.000394845
0.000399519
0.000399185
0.000394862
0.00038808
0.000379183
0.000368384
0.000355911
0.00034197
0.000326733
0.000310335
0.000292892
0.000274753
0.000256609
0.000239929
0.000225538
0.000213052
0.000202553
0.000194511
0.000189546
0.000187998
0.000189487
0.000192321
0.000192388
0.000187058
0.000173269
0.000146025
0.000109737
9.17828e-05
0.000184835
0.000261657
0.000314119
0.000347143
0.000369522
0.000385344
0.000395517
0.000400241
0.00039999
0.000395828
0.000389313
0.000380709
0.000370229
0.000358095
0.000344512
0.000329648
0.000313641
0.000296616
0.000278934
0.000261322
0.000245285
0.000231409
0.000219296
0.000209017
0.000201021
0.00019591
0.000194036
0.00019506
0.000197239
0.000196586
0.00019057
0.000176023
0.000147811
0.000110495
9.3039e-05
0.000185846
0.000262482
0.000314701
0.000347588
0.000369943
0.000385794
0.000396008
0.000400784
0.000400625
0.000396636
0.000390395
0.000382087
0.000371925
0.000360132
0.000346906
0.000332415
0.000316798
0.000300187
0.000282965
0.000265894
0.000250516
0.000237166
0.000225439
0.000215395
0.000207467
0.000202239
0.000200069
0.00020065
0.000202182
0.000200813
0.000194106
0.00017879
0.000149599
0.000111247
9.4245e-05
0.000186756
0.000263162
0.000315111
0.000347851
0.000370174
0.000386051
0.000396306
0.000401137
0.000401085
0.000397302
0.000391328
0.000383311
0.000373469
0.000362019
0.000349154
0.000335037
0.000319809
0.000303613
0.000286856
0.000270337
0.00025563
0.000242813
0.00023148
0.000221682
0.000213837
0.000208511
0.000206056
0.000206223
0.000207127
0.000205049
0.000197652
0.000181563
0.000151385
0.000111989
9.54024e-05
0.000187573
0.000263711
0.000315371
0.000347953
0.00037024
0.000386139
0.000396434
0.000401322
0.000401385
0.000397831
0.000392116
0.000384391
0.000374871
0.000363765
0.000351262
0.000337522
0.000322687
0.000306913
0.00029063
0.000274682
0.000260652
0.000248371
0.000237436
0.000227891
0.000220139
0.000214732
0.000212019
0.000211775
0.000212058
0.000209281
0.000201199
0.000184333
0.000153163
0.000112722
9.6502e-05
0.000188281
0.000264109
0.00031546
0.000347877
0.000370126
0.000386049
0.000396388
0.00040134
0.00040153
0.000398218
0.000392772
0.000385343
0.000376142
0.000365378
0.000353236
0.000339875
0.000325439
0.000310096
0.000294304
0.000278953
0.000265596
0.000253845
0.000243305
0.000234016
0.000226367
0.000220893
0.000217939
0.000217301
0.000216973
0.000213505
0.000204743
0.000187102
0.000154948
0.000113445
9.75451e-05
0.000188887
0.000264372
0.000315398
0.000347643
0.000369851
0.000385799
0.000396185
0.00040121
0.000401539
0.000398486
0.000393317
0.000386184
0.000377301
0.000366876
0.000355093
0.00034211
0.00032808
0.000313182
0.000297906
0.000283195
0.000270497
0.000259263
0.000249107
0.000240068
0.00023252
0.000226983
0.000223797
0.000222782
0.000221851
0.000217707
0.000208277
0.000189867
0.000156735
0.000114159
9.85283e-05
0.000189388
0.000264495
0.000315178
0.000347244
0.00036941
0.000385384
0.000395824
0.000400935
0.000401423
0.00039865
0.000393771
0.000386938
0.00037837
0.000368277
0.000356845
0.000344237
0.000330613
0.000316172
0.000301439
0.000287413
0.000275359
0.000264629
0.000254849
0.000246054
0.000238606
0.000233011
0.000229601
0.000228221
0.000226702
0.000221888
0.000211796
0.000192623
0.000158513
0.000114865
9.94576e-05
0.000189798
0.000264497
0.00031482
0.000346699
0.000368816
0.000384816
0.000395314
0.000400521
0.000401188
0.00039872
0.000394147
0.000387625
0.000379373
0.000369607
0.000358519
0.000346279
0.000333059
0.000319081
0.00030491
0.000291604
0.000280182
0.000269947
0.000260534
0.000251974
0.000244621
0.000238963
0.000235334
0.000233599
0.000231506
0.000226043
0.0002153
0.000195369
0.000160286
0.000115569
0.000100337
0.000190123
0.000264383
0.000314325
0.000346002
0.000368064
0.000384087
0.000394648
0.000399966
0.000400834
0.0003987
0.000394456
0.000388257
0.000380326
0.000370884
0.000360132
0.000348251
0.000335426
0.00032191
0.00030831
0.000295746
0.000284951
0.000275211
0.000266167
0.000257849
0.000250592
0.000244873
0.000241019
0.000238928
0.000236268
0.000230166
0.000218783
0.0001981
0.000162052
0.000116271
0.000101178
0.000190381
0.000264172
0.000313707
0.000345166
0.000367162
0.000383203
0.000393827
0.000399266
0.000400358
0.000398588
0.000394699
0.000388844
0.000381245
0.000372132
0.000361713
0.000350183
0.000337746
0.000324685
0.000311658
0.000299839
0.00028966
0.000280406
0.00027173
0.000263655
0.000256502
0.000250728
0.000246657
0.000244212
0.000240995
0.000234267
0.000222253
0.000200826
0.000163816
0.000116972
0.000101984
0.000190576
0.000263865
0.000312966
0.000344187
0.000366104
0.000382155
0.000392841
0.000398411
0.00039975
0.000398375
0.00039487
0.000389381
0.000382132
0.000373357
0.000363274
0.000352091
0.000340038
0.000327428
0.000314974
0.000303898
0.000294325
0.000285552
0.000277241
0.000269412
0.000262367
0.000256541
0.000252253
0.000249455
0.000245686
0.000238342
0.000225707
0.000203541
0.000165577
0.000117671
0.000102764
0.000190719
0.000263473
0.00031211
0.000343071
0.000364894
0.000380945
0.000391691
0.000397401
0.000399006
0.000398055
0.000394961
0.000389864
0.000382987
0.000374567
0.000364831
0.000354
0.000342328
0.000330168
0.000318286
0.000307932
0.000298941
0.000290629
0.000282674
0.000275091
0.000268164
0.000262301
0.000257809
0.000254671
0.000250359
0.000242409
0.000229159
0.00020626
0.000167344
0.000118372
0.000103516
0.000190806
0.000262991
0.000311134
0.000341816
0.000363528
0.000379569
0.000390372
0.000396231
0.000398124
0.000397621
0.00039496
0.000390278
0.000383797
0.000375754
0.000366383
0.00035592
0.000344643
0.000332943
0.000321647
0.000311992
0.000303555
0.000295681
0.000288064
0.000280715
0.000273899
0.000268
0.000263312
0.000259843
0.000255001
0.000246458
0.000232604
0.000208978
0.000169112
0.000119072
0.000104245
0.000190843
0.000262425
0.000310046
0.000340424
0.00036201
0.000378029
0.000388887
0.000394909
0.000397114
0.000397078
0.000394865
0.000390617
0.000384554
0.000376912
0.000367927
0.000357851
0.000346985
0.000335766
0.000325079
0.000316083
0.000308163
0.000300697
0.000293398
0.000286275
0.000279574
0.000273651
0.000268781
0.000264995
0.000259634
0.00025051
0.000236058
0.000211705
0.000170889
0.000119774
0.000104947
0.000190827
0.000261775
0.000308844
0.000338897
0.000360338
0.000376321
0.00038723
0.000393435
0.000395996
0.000396423
0.000394664
0.000390866
0.000385244
0.000378027
0.000369458
0.000359798
0.000349376
0.000338672
0.000328635
0.000320258
0.000312813
0.000305717
0.000298702
0.000291779
0.000285176
0.00027922
0.000274173
0.000270088
0.000264232
0.000254546
0.000239507
0.000214436
0.00017267
0.000120474
0.000105632
0.00019077
0.000261051
0.000307539
0.000337241
0.000358516
0.000374444
0.000385395
0.000391799
0.000394781
0.000395647
0.000394349
0.000391018
0.000385855
0.000379086
0.000370953
0.000361733
0.00035178
0.000341623
0.000332272
0.000324484
0.000317487
0.000310735
0.000303983
0.000297246
0.000290735
0.000284759
0.000279584
0.000275171
0.000268822
0.000258586
0.000242969
0.000217181
0.000174463
0.000121178
0.000106302
0.000190675
0.000260256
0.000306131
0.000335459
0.000356546
0.000372396
0.00038337
0.000389961
0.000393367
0.000394702
0.000393895
0.000391062
0.000386388
0.000380094
0.000372424
0.000363669
0.000354213
0.000344631
0.000335988
0.000328764
0.000322188
0.000315752
0.000309236
0.000302662
0.000296233
0.000290244
0.000284959
0.000280219
0.000273387
0.000262615
0.000246431
0.000219932
0.000176263
0.00012188
0.000106963
0.000190552
0.000259396
0.000304626
0.000333556
0.000354434
0.000370187
0.000381171
0.000387953
0.000391798
0.000393614
0.000393314
0.000390994
0.000386828
0.000381029
0.000373844
0.000365578
0.000356644
0.000347665
0.000339748
0.00033308
0.000326913
0.00032078
0.000314484
0.000308059
0.000301703
0.000295699
0.000290316
0.000285252
0.000277945
0.000266649
0.000249907
0.000222698
0.000178074