/*--------------------------------*- C++ -*----------------------------------*\
| =========                 |                                                 |
| \\      /  F ield         | OpenFOAM: The Open Source CFD Toolbox           |
|  \\    /   O peration     | Version:  v1906                                 |
|   \\  /    A nd           | Web:      www.OpenFOAM.com                      |
|    \\/     M anipulation  |                                                 |
\*---------------------------------------------------------------------------*/
FoamFile
{
    version     2.0;
    format      ascii;
    class       surfaceScalarField;
    location    "98";
    object      phi;
}
// * * * * * * * * * * * * * * * * * * * * * * * * * * * * * * * * * * * * * //

dimensions      [1 0 -1 0 0 0 0];
oriented        oriented;


internalField   nonuniform List<scalar> 
228225
(
1.49559e-07
-1.6435e-07
4.96233e-08
4.02698e-07
-3.78648e-07
1.25512e-07
7.74163e-07
-5.51131e-07
1.79626e-07
1.26917e-06
-7.10687e-07
2.15615e-07
1.89059e-06
-8.59487e-07
2.37999e-07
2.63096e-06
-9.91682e-07
2.51261e-07
3.47334e-06
-1.10121e-06
2.58803e-07
4.39488e-06
-1.18437e-06
2.62831e-07
5.3701e-06
-1.23982e-06
2.64636e-07
6.37302e-06
-1.26777e-06
2.64913e-07
7.37847e-06
-1.26936e-06
2.64005e-07
8.36272e-06
-1.24617e-06
2.62056e-07
9.30384e-06
-1.20007e-06
2.59107e-07
1.01821e-05
-1.13322e-06
2.55147e-07
1.09796e-05
-1.04745e-06
2.50167e-07
1.16801e-05
-9.44333e-07
2.44149e-07
1.22691e-05
-8.25789e-07
2.37091e-07
1.27343e-05
-6.93881e-07
2.29011e-07
1.30655e-05
-5.50775e-07
2.19971e-07
1.32547e-05
-3.98886e-07
2.1007e-07
1.32968e-05
-2.41099e-07
1.99447e-07
1.31909e-05
-8.18739e-08
1.88283e-07
1.29318e-05
8.27895e-08
1.76801e-07
1.25184e-05
2.48665e-07
1.65281e-07
1.1959e-05
4.05931e-07
1.54041e-07
1.12631e-05
5.53021e-07
1.4341e-07
1.0443e-05
6.87054e-07
1.33706e-07
9.51204e-06
8.06276e-07
1.25205e-07
8.48316e-06
9.11304e-07
1.1811e-07
7.36251e-06
1.00869e-06
1.12438e-07
6.13379e-06
1.12137e-06
1.07758e-07
4.73336e-06
1.29826e-06
1.02438e-07
3.07541e-06
1.56565e-06
9.22343e-08
1.25556e-06
1.74912e-06
6.99837e-08
1.22386e-06
2.99312e-08
1.10735e-07
-3.27361e-07
5.21261e-08
4.30225e-07
-8.25047e-07
1.26958e-07
9.32748e-07
-1.23071e-06
1.77061e-07
1.59014e-06
-1.57781e-06
2.0967e-07
2.3688e-06
-1.86842e-06
2.30143e-07
3.23284e-06
-2.09858e-06
2.4269e-07
4.14844e-06
-2.26737e-06
2.50344e-07
5.08625e-06
-2.37752e-06
2.55099e-07
6.02163e-06
-2.43362e-06
2.58174e-07
6.93399e-06
-2.44064e-06
2.60258e-07
7.80598e-06
-2.4033e-06
2.61715e-07
8.62279e-06
-2.32591e-06
2.62703e-07
9.37165e-06
-2.21237e-06
2.63237e-07
1.00417e-05
-2.06662e-06
2.63172e-07
1.06239e-05
-1.8922e-06
2.6242e-07
1.11102e-05
-1.69173e-06
2.6097e-07
1.14934e-05
-1.46781e-06
2.58734e-07
1.1767e-05
-1.22313e-06
2.5559e-07
1.19252e-05
-9.60494e-07
2.51435e-07
1.19632e-05
-6.82899e-07
2.46117e-07
1.18764e-05
-3.93726e-07
2.39503e-07
1.16603e-05
-9.70796e-08
2.31489e-07
1.13182e-05
2.03114e-07
2.22044e-07
1.08552e-05
5.00705e-07
2.1121e-07
1.02733e-05
7.89043e-07
1.99127e-07
9.57947e-06
1.06124e-06
1.86084e-07
8.78307e-06
1.31136e-06
1.72553e-07
7.8934e-06
1.53714e-06
1.59285e-07
6.91543e-06
1.74269e-06
1.47049e-07
5.84342e-06
1.94489e-06
1.36226e-07
4.65567e-06
2.18305e-06
1.26391e-07
3.33117e-06
2.5075e-06
1.15351e-07
1.92515e-06
2.87288e-06
9.84807e-08
6.55632e-07
2.94712e-06
7.04891e-08
1.8492e-06
2.83461e-08
1.29416e-07
-5.08831e-07
5.21567e-08
5.33535e-07
-1.3474e-06
1.18281e-07
1.17247e-06
-2.02675e-06
1.57147e-07
1.97927e-06
-2.56357e-06
1.79002e-07
2.88245e-06
-2.96234e-06
1.90779e-07
3.82244e-06
-3.2357e-06
1.97145e-07
4.75746e-06
-3.4033e-06
2.00916e-07
5.66067e-06
-3.48435e-06
2.03636e-07
6.51499e-06
-3.49401e-06
2.06075e-07
7.30919e-06
-3.44343e-06
2.08596e-07
8.03539e-06
-3.34087e-06
2.11357e-07
8.68765e-06
-3.19259e-06
2.14422e-07
9.26099e-06
-3.00353e-06
2.17806e-07
9.75073e-06
-2.77787e-06
2.21493e-07
1.01525e-05
-2.51939e-06
2.25437e-07
1.04628e-05
-2.23164e-06
2.29571e-07
1.06791e-05
-1.918e-06
2.33797e-07
1.07998e-05
-1.5818e-06
2.37957e-07
1.08237e-05
-1.22627e-06
2.41909e-07
1.07501e-05
-8.54615e-07
2.45307e-07
1.05788e-05
-4.70245e-07
2.47766e-07
1.03123e-05
-7.93584e-08
2.4883e-07
9.94363e-06
3.23883e-07
2.47977e-07
9.47481e-06
7.24945e-07
2.44694e-07
8.90786e-06
1.11763e-06
2.3854e-07
8.24667e-06
1.49338e-06
2.29268e-07
7.49749e-06
1.84382e-06
2.16984e-07
6.66733e-06
2.16536e-06
2.02239e-07
5.75932e-06
2.46508e-06
1.85912e-07
4.76795e-06
2.76773e-06
1.68794e-07
3.68291e-06
3.11742e-06
1.50812e-07
2.52016e-06
3.53974e-06
1.30429e-07
1.38022e-06
3.90693e-06
1.05367e-07
4.35775e-07
3.81742e-06
7.29849e-08
2.25326e-06
2.96661e-08
1.83553e-07
-7.40394e-07
4.82227e-08
6.66291e-07
-1.93109e-06
1.00977e-07
1.36001e-06
-2.84728e-06
1.26848e-07
2.17056e-06
-3.51283e-06
1.38769e-07
3.01701e-06
-3.95276e-06
1.44031e-07
3.84831e-06
-4.2133e-06
1.46381e-07
4.64017e-06
-4.34251e-06
1.47427e-07
5.38308e-06
-4.37493e-06
1.47753e-07
6.07326e-06
-4.33172e-06
1.47612e-07
6.70848e-06
-4.22578e-06
1.47231e-07
7.28613e-06
-4.06532e-06
1.46893e-07
7.80257e-06
-3.85586e-06
1.46922e-07
8.25308e-06
-3.60161e-06
1.47662e-07
8.63225e-06
-3.30639e-06
1.49441e-07
8.93466e-06
-2.97427e-06
1.52552e-07
9.15578e-06
-2.6099e-06
1.57226e-07
9.29268e-06
-2.21843e-06
1.63604e-07
9.34443e-06
-1.80519e-06
1.71712e-07
9.31198e-06
-1.3752e-06
1.81456e-07
9.19761e-06
-9.32751e-07
1.92573e-07
9.00403e-06
-4.81202e-07
2.04612e-07
8.73168e-06
-2.38407e-08
2.16918e-07
8.38768e-06
4.39331e-07
2.28635e-07
7.97153e-06
9.02516e-07
2.38681e-07
7.48245e-06
1.36099e-06
2.4584e-07
6.91997e-06
1.80708e-06
2.48931e-07
6.28413e-06
2.23273e-06
2.47092e-07
5.57468e-06
2.63492e-06
2.40065e-07
4.78839e-06
3.02334e-06
2.28197e-07
3.91825e-06
3.42612e-06
2.11881e-07
2.96411e-06
3.88087e-06
1.90721e-07
1.96675e-06
4.37324e-06
1.63663e-07
1.03421e-06
4.70802e-06
1.30841e-07
3.02831e-07
4.45657e-06
9.10291e-08
2.51619e-06
3.78487e-08
1.80484e-07
-9.5546e-07
3.4648e-08
6.29267e-07
-2.44791e-06
6.81397e-08
1.2382e-06
-3.53944e-06
8.33273e-08
1.91223e-06
-4.27738e-06
9.0612e-08
2.58622e-06
-4.72081e-06
9.4129e-08
3.23183e-06
-4.95384e-06
9.49909e-08
3.84337e-06
-5.04728e-06
9.3287e-08
4.42204e-06
-5.04272e-06
8.91667e-08
4.96875e-06
-4.96154e-06
8.31575e-08
5.4821e-06
-4.81507e-06
7.59819e-08
5.95802e-06
-4.60954e-06
6.83586e-08
6.38996e-06
-4.34875e-06
6.09924e-08
6.7697e-06
-4.03585e-06
5.45526e-08
7.08858e-06
-3.6749e-06
4.9685e-08
7.33908e-06
-3.27172e-06
4.69986e-08
7.5159e-06
-2.8337e-06
4.70324e-08
7.61666e-06
-2.36935e-06
5.02138e-08
7.64199e-06
-1.88726e-06
5.6801e-08
7.59495e-06
-1.39504e-06
6.69476e-08
7.48019e-06
-8.9854e-07
8.06122e-08
7.30297e-06
-4.01467e-07
9.7549e-08
7.06731e-06
9.45866e-08
1.17311e-07
6.77942e-06
5.88145e-07
1.39156e-07
6.44039e-06
1.07967e-06
1.61965e-07
6.05005e-06
1.56721e-06
1.8422e-07
5.60591e-06
2.04727e-06
2.04056e-07
5.10315e-06
2.5161e-06
2.19506e-07
4.53442e-06
2.97487e-06
2.28901e-07
3.88984e-06
3.43694e-06
2.31087e-07
3.16055e-06
3.93043e-06
2.25042e-07
2.35429e-06
4.47777e-06
2.09328e-07
1.52594e-06
5.01842e-06
1.82908e-07
7.74974e-07
5.31103e-06
1.47324e-07
2.12099e-07
4.91616e-06
1.02097e-07
2.68552e-06
4.07645e-08
1.64296e-07
-1.14487e-06
2.51061e-08
5.50266e-07
-2.88493e-06
5.11507e-08
1.05519e-06
-4.11005e-06
6.57759e-08
1.60073e-06
-4.89784e-06
7.5015e-08
2.14166e-06
-5.34185e-06
8.01981e-08
2.66385e-06
-5.55726e-06
8.13096e-08
3.16706e-06
-5.62887e-06
7.84413e-08
3.65256e-06
-5.60028e-06
7.21227e-08
4.11935e-06
-5.49137e-06
6.3109e-08
4.56356e-06
-5.31136e-06
5.21367e-08
4.97855e-06
-5.06435e-06
3.98767e-08
5.35544e-06
-4.75254e-06
2.69739e-08
5.68437e-06
-4.37879e-06
1.40731e-08
5.95704e-06
-3.94858e-06
1.05971e-09
6.16374e-06
-3.47087e-06
-7.47874e-09
6.30179e-06
-2.95714e-06
-1.45413e-08
6.37151e-06
-2.42012e-06
-1.88817e-08
6.37615e-06
-1.87211e-06
-1.97149e-08
6.32108e-06
-1.3234e-06
-1.65001e-08
6.21286e-06
-7.81338e-07
-8.91626e-09
6.05821e-06
-2.49972e-07
3.21874e-09
5.86254e-06
2.69585e-07
2.07393e-08
5.62966e-06
7.78564e-07
4.2525e-08
5.36181e-06
1.27943e-06
6.81602e-08
5.0579e-06
1.77476e-06
9.64318e-08
4.71309e-06
2.26661e-06
1.25536e-07
4.31821e-06
2.75781e-06
1.53231e-07
3.86002e-06
3.25605e-06
1.77078e-07
3.32343e-06
3.77903e-06
1.94543e-07
2.6991e-06
4.35197e-06
2.02805e-07
2.00151e-06
4.97665e-06
1.98606e-07
1.29204e-06
5.54818e-06
1.79375e-07
6.54534e-07
5.80163e-06
1.46235e-07
1.81117e-07
5.28858e-06
9.98358e-08
2.82765e-06
3.70193e-08
1.40283e-07
-1.30162e-06
1.65505e-08
4.61536e-07
-3.24163e-06
3.55293e-08
8.76277e-07
-4.5731e-06
4.83882e-08
1.32314e-06
-5.40235e-06
5.77272e-08
1.7688e-06
-5.85074e-06
6.33019e-08
2.20374e-06
-6.05683e-06
6.46948e-08
2.6276e-06
-6.11472e-06
6.20428e-08
3.04021e-06
-6.06877e-06
5.59441e-08
3.43932e-06
-5.93752e-06
4.70992e-08
3.82027e-06
-5.72833e-06
3.60904e-08
4.17603e-06
-5.44344e-06
2.33885e-08
4.49799e-06
-5.08375e-06
9.30879e-09
4.77667e-06
-4.65228e-06
-5.11713e-09
5.00353e-06
-4.15648e-06
-1.88879e-08
5.17327e-06
-3.60838e-06
-3.21719e-08
5.28364e-06
-3.02343e-06
-4.40029e-08
5.33547e-06
-2.41826e-06
-5.36279e-08
5.33221e-06
-1.8085e-06
-6.02815e-08
5.27913e-06
-1.20704e-06
-6.32145e-08
5.18255e-06
-6.22927e-07
-6.17626e-08
5.04824e-06
-6.02066e-08
-5.53889e-08
4.88434e-06
4.7722e-07
-4.36653e-08
4.69467e-06
9.94546e-07
-2.62488e-08
4.48097e-06
1.49618e-06
-2.98441e-09
4.242e-06
1.98896e-06
2.48326e-08
3.9713e-06
2.48093e-06
5.64417e-08
3.65732e-06
2.9822e-06
8.96506e-08
3.28378e-06
3.5078e-06
1.21839e-07
2.83337e-06
4.07969e-06
1.49778e-07
2.29764e-06
4.71834e-06
1.69336e-07
1.6951e-06
5.40349e-06
1.75571e-07
1.08634e-06
5.99236e-06
1.64235e-07
5.42712e-07
6.20924e-06
1.35357e-07
1.48042e-07
5.59148e-06
9.06413e-08
2.9426e-06
3.11741e-08
1.12097e-07
-1.42634e-06
1.27483e-08
3.72851e-07
-3.53406e-06
3.17186e-08
7.14925e-07
-4.96241e-06
4.72832e-08
1.08933e-06
-5.83618e-06
5.94585e-08
1.46865e-06
-6.29719e-06
6.7167e-08
1.84397e-06
-6.5021e-06
6.99932e-08
2.2136e-06
-6.55262e-06
6.83147e-08
2.57612e-06
-6.49418e-06
6.2932e-08
2.92848e-06
-6.34445e-06
5.46208e-08
3.2656e-06
-6.10936e-06
4.39584e-08
3.58065e-06
-5.78969e-06
3.12602e-08
3.86577e-06
-5.38563e-06
1.68239e-08
4.11338e-06
-4.90088e-06
1.04592e-09
4.31688e-06
-4.34485e-06
-1.50784e-08
4.47212e-06
-3.73229e-06
-3.12559e-08
4.57704e-06
-3.08167e-06
-4.66132e-08
4.63197e-06
-2.41259e-06
-6.05373e-08
4.63948e-06
-1.7435e-06
-7.2439e-08
4.60382e-06
-1.08975e-06
-8.15667e-08
4.53048e-06
-4.62459e-07
-8.70637e-08
4.4265e-06
1.31907e-07
-8.80786e-08
4.29599e-06
6.91638e-07
-8.38525e-08
4.14455e-06
1.21972e-06
-7.3677e-08
3.97414e-06
1.72353e-06
-5.68868e-08
3.78249e-06
2.21392e-06
-3.32723e-08
3.56167e-06
2.70465e-06
-2.85128e-09
3.30028e-06
3.21292e-06
3.07071e-08
2.98035e-06
3.76067e-06
6.70901e-08
2.58427e-06
4.37358e-06
1.02204e-07
2.10493e-06
5.06681e-06
1.30822e-07
1.56209e-06
5.79969e-06
1.46466e-07
1.01152e-06
6.39937e-06
1.43187e-07
5.14409e-07
6.58591e-06
1.19776e-07
1.47321e-07
5.87864e-06
7.8798e-08
3.06279e-06
2.52205e-08
1.03088e-07
-1.54001e-06
1.06548e-08
3.39145e-07
-3.79894e-06
2.88941e-08
6.47509e-07
-5.31528e-06
4.45764e-08
9.85266e-07
-6.23088e-06
5.70086e-08
1.32793e-06
-6.7051e-06
6.531e-08
1.66701e-06
-6.91044e-06
6.93068e-08
2.00021e-06
-6.95515e-06
6.93819e-08
2.3256e-06
-6.8857e-06
6.61819e-08
2.64004e-06
-6.71914e-06
6.03007e-08
2.93889e-06
-6.46031e-06
5.2156e-08
3.2163e-06
-6.10895e-06
4.1913e-08
3.46595e-06
-5.66494e-06
2.9724e-08
3.68194e-06
-5.13275e-06
1.59443e-08
3.85913e-06
-4.52336e-06
1.39622e-09
3.99524e-06
-3.8535e-06
-1.48343e-08
4.08819e-06
-3.14364e-06
-3.09143e-08
4.13772e-06
-2.41553e-06
-4.65069e-08
4.14537e-06
-1.68993e-06
-6.11489e-08
4.11447e-06
-9.84527e-07
-7.42542e-08
4.04973e-06
-3.12673e-07
-8.49681e-08
3.95693e-06
3.17088e-07
-9.23153e-08
3.84223e-06
9.01699e-07
-9.52886e-08
3.71068e-06
1.44428e-06
-9.29468e-08
3.56468e-06
1.95394e-06
-8.43464e-08
3.40216e-06
2.44502e-06
-6.85172e-08
3.21543e-06
2.93638e-06
-4.49469e-08
2.99061e-06
3.45153e-06
-1.37521e-08
2.71052e-06
4.01865e-06
2.21464e-08
2.35799e-06
4.66628e-06
5.98178e-08
1.92645e-06
5.40433e-06
9.39568e-08
1.43485e-06
6.17444e-06
1.1666e-07
9.33137e-07
6.78028e-06
1.20419e-07
4.76276e-07
6.93927e-06
1.0283e-07
1.37816e-07
6.14898e-06
6.69948e-08
3.17835e-06
2.0358e-08
8.82233e-08
-1.63883e-06
1.06419e-08
2.97185e-07
-4.03826e-06
3.04409e-08
5.75031e-07
-5.6409e-06
4.78341e-08
8.82422e-07
-6.59982e-06
6.16071e-08
1.19642e-06
-7.08989e-06
7.08385e-08
1.50847e-06
-7.29793e-06
7.54946e-08
1.81566e-06
-7.33852e-06
7.62151e-08
2.11556e-06
-7.25942e-06
7.38688e-08
2.40477e-06
-7.07745e-06
6.91489e-08
2.67873e-06
-6.7967e-06
6.2477e-08
2.93218e-06
-6.41634e-06
5.39923e-08
3.1598e-06
-5.93628e-06
4.37525e-08
3.357e-06
-5.36183e-06
3.19322e-08
3.52018e-06
-4.70528e-06
1.87836e-08
3.64673e-06
-3.98482e-06
4.82068e-09
3.73583e-06
-3.22218e-06
-1.05032e-08
3.787e-06
-2.44045e-06
-2.61877e-08
3.80076e-06
-1.66196e-06
-4.16574e-08
3.77925e-06
-9.06382e-07
-5.65739e-08
3.72614e-06
-1.89247e-07
-7.02526e-08
3.64635e-06
4.78702e-07
-8.17506e-08
3.54548e-06
1.09264e-06
-9.00078e-08
3.4285e-06
1.65527e-06
-9.39415e-08
3.29805e-06
2.17694e-06
-9.24942e-08
3.15276e-06
2.67483e-06
-8.4456e-08
2.98569e-06
3.1721e-06
-6.85913e-08
2.78384e-06
3.69758e-06
-4.41614e-08
2.52921e-06
4.28458e-06
-1.12939e-08
2.2061e-06
4.96389e-06
2.54877e-08
1.80853e-06
5.74023e-06
6.15817e-08
1.35374e-06
6.54023e-06
8.881e-08
8.86132e-07
7.1492e-06
9.82925e-08
4.55994e-07
7.28229e-06
8.64271e-08
1.34007e-07
6.4135e-06
5.63419e-08
3.2938e-06
1.6648e-08
8.75548e-08
-1.73709e-06
1.07747e-08
2.89462e-07
-4.27134e-06
3.12365e-08
5.5417e-07
-5.9545e-06
4.8949e-08
8.44271e-07
-6.95267e-06
6.28068e-08
1.13845e-06
-7.45633e-06
7.23126e-08
1.42908e-06
-7.66614e-06
7.76274e-08
1.71356e-06
-7.70231e-06
7.93557e-08
1.9896e-06
-7.61368e-06
7.82737e-08
2.25403e-06
-7.41686e-06
7.50218e-08
2.50276e-06
-7.11538e-06
7.00044e-08
2.7312e-06
-6.7081e-06
6.33739e-08
2.93504e-06
-6.19523e-06
5.51778e-08
3.11073e-06
-5.58297e-06
4.55151e-08
3.25573e-06
-4.88471e-06
3.44957e-08
3.36837e-06
-4.11966e-06
2.22734e-08
3.44758e-06
-3.31048e-06
9.15303e-09
3.49307e-06
-2.48105e-06
-4.8253e-09
3.50581e-06
-1.65466e-06
-1.99727e-08
3.4869e-06
-8.5236e-07
-3.50445e-08
3.43914e-06
-9.15939e-08
-4.98138e-08
3.36673e-06
6.1467e-07
-6.34881e-08
3.27463e-06
1.25988e-06
-7.50688e-08
3.16733e-06
1.8461e-06
-8.34518e-08
3.04739e-06
2.38448e-06
-8.75304e-08
2.91385e-06
2.8945e-06
-8.60703e-08
2.7607e-06
3.40286e-06
-7.75583e-08
2.57615e-06
3.94271e-06
-6.05366e-08
2.3437e-06
4.55138e-06
-3.43403e-08
2.04572e-06
5.26101e-06
8.24701e-10
1.67979e-06
6.07141e-06
3.46491e-08
1.26009e-06
6.89601e-06
6.37146e-08
8.26263e-07
7.50531e-06
7.73048e-08
4.24962e-07
7.61228e-06
7.0629e-08
1.24576e-07
6.66639e-06
4.63512e-08
3.40306e-06
1.34092e-08
8.10416e-08
-1.82992e-06
1.18765e-08
2.71287e-07
-4.49516e-06
3.36164e-08
5.21863e-07
-6.25695e-06
5.192e-08
7.96149e-07
-7.29292e-06
6.59996e-08
1.07375e-06
-7.80948e-06
7.55964e-08
1.34745e-06
-8.02086e-06
8.10536e-08
1.61463e-06
-8.05257e-06
8.31223e-08
1.87288e-06
-7.95454e-06
8.26513e-08
2.11906e-06
-7.74327e-06
8.02886e-08
2.34928e-06
-7.42198e-06
7.64233e-08
2.5595e-06
-6.98947e-06
7.12054e-08
2.74613e-06
-6.44648e-06
6.46694e-08
2.90648e-06
-5.80013e-06
5.6856e-08
3.0388e-06
-5.06476e-06
4.77867e-08
3.14204e-06
-4.26032e-06
3.74837e-08
3.21556e-06
-3.40995e-06
2.60139e-08
3.25903e-06
-2.538e-06
1.35587e-08
3.27187e-06
-1.66832e-06
8.84162e-10
3.25647e-06
-8.22801e-07
-1.40887e-08
3.21428e-06
-2.05504e-08
-2.87816e-08
3.14839e-06
7.23778e-07
-4.31428e-08
3.06308e-06
1.4016e-06
-5.63442e-08
2.96228e-06
2.01434e-06
-6.73736e-08
2.84835e-06
2.57365e-06
-7.51765e-08
2.72071e-06
3.1008e-06
-7.85933e-08
2.57438e-06
3.62536e-06
-7.61163e-08
2.39917e-06
4.18393e-06
-6.59768e-08
2.18051e-06
4.81683e-06
-4.67767e-08
1.90352e-06
5.55664e-06
-1.86643e-08
1.56272e-06
6.39823e-06
1.38692e-08
1.17299e-06
7.24323e-06
4.2286e-08
7.69569e-07
7.85005e-06
5.82625e-08
3.95345e-07
7.92988e-06
5.59312e-08
1.15609e-07
6.90783e-06
3.71482e-08
3.50621e-06
1.05532e-08
8.07564e-08
-1.92335e-06
1.2748e-08
2.65751e-07
-4.71529e-06
3.5206e-08
5.05735e-07
-6.5504e-06
5.35262e-08
7.65487e-07
-7.62001e-06
6.73906e-08
1.02624e-06
-8.14707e-06
7.6884e-08
1.28186e-06
-8.35891e-06
8.24821e-08
1.53019e-06
-8.38577e-06
8.4928e-08
1.76904e-06
-8.27837e-06
8.50373e-08
1.99547e-06
-8.05309e-06
8.344e-08
2.20595e-06
-7.71294e-06
8.05301e-08
2.39697e-06
-7.25691e-06
7.64806e-08
2.5656e-06
-6.6864e-06
7.13441e-08
2.70988e-06
-6.0095e-06
6.51464e-08
2.82873e-06
-5.24141e-06
5.78656e-08
2.92162e-06
-4.4026e-06
4.94468e-08
2.9883e-06
-3.51641e-06
3.98394e-08
3.02857e-06
-2.60726e-06
2.90469e-08
3.04236e-06
-1.69921e-06
1.71743e-08
3.02986e-06
-8.1477e-07
4.54631e-09
2.99271e-06
2.60377e-08
-9.37475e-09
2.93363e-06
8.06566e-07
-2.36303e-08
2.85572e-06
1.51696e-06
-3.73694e-08
2.76212e-06
2.15776e-06
-4.9751e-08
2.65475e-06
2.74093e-06
-5.98401e-08
2.53308e-06
3.28914e-06
-6.65993e-08
2.39288e-06
3.83426e-06
-6.86453e-08
2.22548e-06
4.41556e-06
-6.42006e-08
2.01837e-06
5.07545e-06
-5.14951e-08
1.75883e-06
5.84605e-06
-2.99068e-08
1.44078e-06
6.717e-06
-8.26348e-10
1.07997e-06
7.57918e-06
2.46431e-08
7.07278e-07
8.18091e-06
4.14149e-08
3.61752e-07
8.23227e-06
4.24469e-08
1.04978e-07
7.13483e-06
2.86355e-08
3.60135e-06
7.92872e-09
7.66701e-08
-2.01381e-06
1.38587e-08
2.53535e-07
-4.92911e-06
3.70208e-08
4.82751e-07
-6.83481e-06
5.52475e-08
7.29767e-07
-7.93574e-06
6.87786e-08
9.76722e-07
-8.47197e-06
7.79978e-08
1.21798e-06
-8.68366e-06
8.35332e-08
1.45147e-06
-8.70538e-06
8.61723e-08
1.67502e-06
-8.58858e-06
8.67151e-08
1.8858e-06
-8.34957e-06
8.57585e-08
2.08057e-06
-7.99134e-06
8.3679e-08
2.25627e-06
-7.51322e-06
8.06561e-08
2.41061e-06
-6.91743e-06
7.67445e-08
2.54226e-06
-6.21304e-06
7.19543e-08
2.6507e-06
-5.41603e-06
6.62363e-08
2.73585e-06
-4.54718e-06
5.94915e-08
2.79772e-06
-3.62982e-06
5.16018e-08
2.83618e-06
-2.68813e-06
4.24742e-08
2.85099e-06
-1.74604e-06
3.20841e-08
2.84208e-06
-8.26291e-07
2.04962e-08
2.80998e-06
5.0244e-08
7.95781e-09
2.75641e-06
8.65571e-07
-5.36192e-09
2.68416e-06
1.60838e-06
-1.90977e-08
2.5956e-06
2.27843e-06
-3.20318e-08
2.49225e-06
2.8878e-06
-4.34467e-08
2.37363e-06
3.46026e-06
-5.24273e-08
2.23617e-06
4.02953e-06
-5.77501e-08
2.07259e-06
4.63696e-06
-5.77786e-08
1.87248e-06
5.32622e-06
-5.06609e-08
1.62551e-06
6.12824e-06
-3.5249e-08
1.32812e-06
7.027e-06
-1.27211e-08
9.92766e-07
7.90341e-06
1.09003e-08
6.48586e-07
8.49757e-06
2.71143e-08
3.30399e-07
8.51926e-06
3.05098e-08
9.53672e-08
7.34771e-06
2.1021e-08
3.68922e-06
5.62058e-09
7.52996e-08
-2.10372e-06
1.46793e-08
2.45885e-07
-5.13788e-06
3.82492e-08
4.64371e-07
-7.10946e-06
5.62311e-08
6.97676e-07
-8.23834e-06
6.93449e-08
9.29423e-07
-8.78191e-06
7.82478e-08
1.15484e-06
-8.99269e-06
8.3669e-08
1.37217e-06
-9.00907e-06
8.64089e-08
1.5794e-06
-8.88301e-06
8.72536e-08
1.77388e-06
-8.63078e-06
8.67846e-08
1.95269e-06
-8.25545e-06
8.53724e-08
2.11318e-06
-7.75686e-06
8.32072e-08
2.25358e-06
-7.13813e-06
8.0357e-08
2.3731e-06
-6.40933e-06
7.6827e-08
2.47172e-06
-5.58713e-06
7.25497e-08
2.54976e-06
-4.69256e-06
6.73916e-08
2.6075e-06
-3.74868e-06
6.11786e-08
2.64489e-06
-2.7792e-06
5.37374e-08
2.66155e-06
-1.80759e-06
4.4944e-08
2.65704e-06
-8.56462e-07
3.47573e-08
2.63124e-06
5.28323e-08
2.32773e-08
2.58494e-06
9.01126e-07
1.08185e-08
2.51957e-06
1.67585e-06
-2.0229e-09
2.43736e-06
2.37592e-06
-1.52062e-08
2.3392e-06
3.01336e-06
-2.73263e-08
2.22452e-06
3.61273e-06
-3.77238e-08
2.09023e-06
4.20923e-06
-4.53473e-08
1.93026e-06
4.84574e-06
-4.87583e-08
1.73617e-06
5.56653e-06
-4.61975e-08
1.50006e-06
6.40059e-06
-3.62583e-08
1.22035e-06
7.32599e-06
-1.93718e-08
9.08379e-07
8.21413e-06
1.04392e-09
5.91408e-07
8.79868e-06
1.54727e-08
2.99816e-07
8.78987e-06
2.03152e-08
8.60032e-08
7.54598e-06
1.44307e-08
3.76972e-06
3.65243e-09
7.18686e-08
-2.19096e-06
1.54471e-08
2.35026e-07
-5.34019e-06
3.92054e-08
4.43523e-07
-7.37466e-06
5.67456e-08
6.65208e-07
-8.52927e-06
6.92894e-08
8.84585e-07
-9.07902e-06
7.77734e-08
1.09729e-06
-9.28838e-06
8.3032e-08
1.30165e-06
-9.29924e-06
8.58605e-08
1.49569e-06
-9.16401e-06
8.70035e-08
1.67692e-06
-8.89896e-06
8.70065e-08
1.84264e-06
-8.50735e-06
8.62246e-08
1.99062e-06
-7.98964e-06
8.48527e-08
2.11955e-06
-7.34996e-06
8.29626e-08
2.22908e-06
-6.59936e-06
8.05567e-08
2.31961e-06
-5.75518e-06
7.75625e-08
2.39184e-06
-4.83856e-06
7.38317e-08
2.44628e-06
-3.87221e-06
6.91596e-08
2.48296e-06
-2.87913e-06
6.332e-08
2.50138e-06
-1.88205e-06
5.61113e-08
2.50071e-06
-9.03123e-07
4.7401e-08
2.48024e-06
3.61789e-08
3.71896e-08
2.43993e-06
9.15829e-07
2.56761e-08
2.38057e-06
1.722e-06
1.32746e-08
2.30316e-06
2.45271e-06
7.07611e-10
2.20872e-06
3.11973e-06
-1.18591e-08
2.09652e-06
3.74817e-06
-2.31609e-08
1.96386e-06
4.37437e-06
-3.24137e-08
1.80574e-06
5.04229e-06
-3.8378e-08
1.61554e-06
5.79622e-06
-3.9464e-08
1.38764e-06
6.66267e-06
-3.41944e-08
1.12249e-06
7.6135e-06
-2.24324e-08
8.32199e-07
8.51109e-06
-6.85932e-09
5.39791e-07
9.08429e-06
6.42614e-09
2.72524e-07
9.04457e-06
1.19338e-08
7.78683e-08
7.73062e-06
8.94273e-09
3.84372e-06
2.05862e-09
6.97972e-08
-2.2767e-06
1.60212e-08
2.26465e-07
-5.53659e-06
3.97994e-08
4.25037e-07
-7.63002e-06
5.68545e-08
6.34715e-07
-8.80772e-06
6.88313e-08
8.41191e-07
-9.36233e-06
7.68835e-08
1.04071e-06
-9.56976e-06
8.19153e-08
1.2318e-06
-9.57501e-06
8.47286e-08
1.4126e-06
-9.4308e-06
8.60489e-08
1.58075e-06
-9.15345e-06
8.64e-08
1.73381e-06
-8.74648e-06
8.61276e-08
1.86987e-06
-8.21107e-06
8.54312e-08
1.98796e-06
-7.55238e-06
8.43899e-08
2.08814e-06
-6.78248e-06
8.30042e-08
2.17117e-06
-5.91934e-06
8.11948e-08
2.23808e-06
-4.98421e-06
7.88004e-08
2.28968e-06
-3.99934e-06
7.55922e-08
2.32616e-06
-2.98685e-06
7.1301e-08
2.34698e-06
-1.96847e-06
6.56602e-08
2.35098e-06
-9.65512e-07
5.84551e-08
2.3368e-06
8.33734e-10
4.95927e-08
2.30356e-06
9.09956e-07
3.91764e-08
2.25113e-06
1.74698e-06
2.75349e-08
2.17989e-06
2.50883e-06
1.51835e-08
2.09011e-06
3.20684e-06
2.74989e-09
1.98109e-06
3.86635e-06
-9.07688e-09
1.85055e-06
4.52445e-06
-1.94681e-08
1.69444e-06
5.22581e-06
-2.73476e-08
1.50777e-06
6.01424e-06
-3.13113e-08
1.28709e-06
6.91328e-06
-2.99217e-08
1.03476e-06
7.88844e-06
-2.26671e-08
7.63421e-07
8.79361e-06
-1.13374e-08
4.93113e-07
9.35424e-06
2.91246e-11
2.48022e-07
9.28365e-06
5.41174e-09
7.06437e-08
7.90234e-06
4.61958e-09
3.91174e-06
8.56069e-10
6.67574e-08
-2.35986e-06
1.64635e-08
2.16765e-07
-5.72654e-06
4.00061e-08
4.06479e-07
-7.87606e-06
5.63772e-08
6.06052e-07
-9.0749e-06
6.76541e-08
8.01938e-07
-9.63338e-06
7.52164e-08
9.90704e-07
-9.83849e-06
8.00225e-08
1.17096e-06
-9.83806e-06
8.28422e-08
1.34088e-06
-9.68502e-06
8.43517e-08
1.49824e-06
-9.39579e-06
8.50403e-08
1.64082e-06
-8.97423e-06
8.52393e-08
1.76696e-06
-8.42231e-06
8.51517e-08
1.87601e-06
-7.74623e-06
8.48634e-08
1.9683e-06
-6.95909e-06
8.43783e-08
2.04491e-06
-6.0795e-06
8.36205e-08
2.10715e-06
-5.12881e-06
8.24296e-08
2.15609e-06
-4.12878e-06
8.05675e-08
2.19211e-06
-3.10056e-06
7.77385e-08
2.2147e-06
-2.06462e-06
7.36251e-08
2.2225e-06
-1.04119e-06
6.79372e-08
2.21369e-06
-5.07764e-08
6.04861e-08
2.18655e-06
8.859e-07
5.12715e-08
2.14009e-06
1.75296e-06
4.05339e-08
2.07402e-06
2.54626e-06
2.87273e-08
1.98813e-06
3.27637e-06
1.64357e-08
1.88168e-06
3.96858e-06
4.29131e-09
1.75269e-06
4.6604e-06
-6.88702e-09
1.59796e-06
5.3968e-06
-1.6187e-08
1.41397e-06
6.22069e-06
-2.24015e-08
1.19916e-06
7.1523e-06
-2.41743e-08
9.57638e-07
8.15071e-06
-2.07693e-08
7.02533e-07
9.06183e-06
-1.32335e-08
4.52263e-07
9.60906e-06
-4.83416e-09
2.26745e-07
9.50798e-06
6.39434e-10
6.44719e-08
8.06221e-06
1.42214e-09
3.97447e-06
3.06758e-11
6.45756e-08
-2.44112e-06
1.67663e-08
2.08746e-07
-5.91061e-06
3.99624e-08
3.9011e-07
-8.113e-06
5.56314e-08
5.79902e-07
-9.33085e-06
6.62204e-08
7.65457e-07
-9.89217e-06
7.32848e-08
9.43757e-07
-1.00946e-05
7.78186e-08
1.11354e-06
-1.00884e-05
8.05742e-08
1.27307e-06
-9.92669e-06
8.21945e-08
1.42025e-06
-9.62605e-06
8.31409e-08
1.55301e-06
-9.19066e-06
8.37316e-08
1.66992e-06
-8.62333e-06
8.41702e-08
1.77054e-06
-7.93134e-06
8.45474e-08
1.85548e-06
-7.12883e-06
8.48685e-08
1.92606e-06
-6.23509e-06
8.50601e-08
1.98391e-06
-5.27157e-06
8.49636e-08
2.03039e-06
-4.25953e-06
8.43377e-08
2.06611e-06
-3.21909e-06
8.28714e-08
2.09067e-06
-2.16933e-06
8.02119e-08
2.10256e-06
-1.12903e-06
7.60082e-08
2.09951e-06
-1.1764e-07
6.99843e-08
2.07903e-06
8.44404e-07
6.20359e-08
2.03924e-06
1.74052e-06
5.23061e-08
1.97902e-06
2.56538e-06
4.11789e-08
1.89766e-06
3.32861e-06
2.91979e-08
1.79428e-06
4.05507e-06
1.69785e-08
1.66734e-06
4.78228e-06
5.15586e-09
1.51438e-06
5.55512e-06
-5.26865e-09
1.33308e-06
6.41525e-06
-1.31777e-08
1.12359e-06
7.37934e-06
-1.74932e-08
8.91557e-07
8.40006e-06
-1.73048e-08
6.50512e-07
9.31587e-06
-1.30726e-08
4.17161e-07
9.8493e-06
-7.13313e-09
2.08648e-07
9.71849e-06
-2.50063e-09
5.93096e-08
8.21136e-06
-7.45599e-10
4.03257e-06
-4.49486e-10
6.20486e-08
-2.52002e-06
1.69221e-08
2.00713e-07
-6.08875e-06
3.95331e-08
3.74843e-07
-8.3414e-06
5.43265e-08
5.56457e-07
-9.57654e-06
6.41211e-08
7.33481e-07
-1.01398e-05
7.06496e-08
9.03147e-07
-1.03391e-05
7.49185e-08
1.06427e-06
-1.03271e-05
7.76269e-08
1.2152e-06
-1.01569e-05
7.93635e-08
1.35391e-06
-9.84525e-06
8.05546e-08
1.47848e-06
-9.39668e-06
8.1503e-08
1.58762e-06
-8.81483e-06
8.24129e-08
1.68108e-06
-8.10811e-06
8.33808e-08
1.75962e-06
-7.29173e-06
8.44167e-08
1.82482e-06
-6.38567e-06
8.54548e-08
1.87851e-06
-5.41155e-06
8.63451e-08
1.92234e-06
-4.39015e-06
8.68517e-08
1.95719e-06
-3.34053e-06
8.66593e-08
1.98283e-06
-2.28029e-06
8.53918e-08
1.99776e-06
-1.22655e-06
8.2649e-08
1.9994e-06
-1.97293e-07
7.80744e-08
1.98465e-06
7.87752e-07
7.1458e-08
1.9508e-06
1.71161e-06
6.28356e-08
1.89592e-06
2.56782e-06
5.25098e-08
1.81877e-06
3.36485e-06
4.09786e-08
1.71831e-06
4.12678e-06
2.88364e-08
1.59317e-06
4.89078e-06
1.67254e-08
1.44182e-06
5.70123e-06
5.33446e-09
1.26312e-06
6.59818e-06
-4.1335e-09
1.05838e-06
7.59455e-06
-1.03846e-08
8.34644e-07
8.63669e-06
-1.28446e-08
6.05787e-07
9.55617e-06
-1.1483e-08
3.87055e-07
1.00757e-05
-7.86233e-09
1.93194e-07
9.9161e-06
-4.20595e-09
5.49168e-08
8.35069e-06
-1.94416e-09
4.0865e-06
-6.30585e-10
6.01084e-08
-2.59703e-06
1.69692e-08
1.94026e-07
-6.26151e-06
3.89087e-08
3.61641e-07
-8.56176e-06
5.28074e-08
5.3577e-07
-9.81242e-06
6.18114e-08
7.0492e-07
-1.03767e-05
6.77963e-08
8.66578e-07
-1.05725e-05
7.17704e-08
1.01971e-06
-1.05545e-05
7.43889e-08
1.16277e-06
-1.03761e-05
7.61947e-08
1.29378e-06
-1.00538e-05
7.75809e-08
1.41091e-06
-9.59258e-06
7.88344e-08
1.51298e-06
-8.99698e-06
8.01571e-08
1.59985e-06
-8.27657e-06
8.16484e-08
1.67248e-06
-7.44762e-06
8.33207e-08
1.73263e-06
-6.53088e-06
8.51137e-08
1.78241e-06
-5.54814e-06
8.68861e-08
1.8237e-06
-4.51979e-06
8.84116e-08
1.85769e-06
-3.46384e-06
8.93798e-08
1.88436e-06
-2.39631e-06
8.9406e-08
1.90227e-06
-1.33245e-06
8.80575e-08
1.90862e-06
-2.88494e-07
8.49122e-08
1.89974e-06
7.17039e-07
7.96604e-08
1.87205e-06
1.66713e-06
7.22242e-08
1.82285e-06
2.55428e-06
6.28108e-08
1.75031e-06
3.38562e-06
5.18595e-08
1.65312e-06
4.18413e-06
3.9939e-08
1.53012e-06
4.9862e-06
2.768e-08
1.38033e-06
5.83534e-06
1.57892e-08
1.20388e-06
6.76968e-06
5.06127e-09
1.00354e-06
7.79816e-06
-3.1667e-09
7.87005e-07
8.86098e-06
-7.66592e-09
5.68506e-07
9.7834e-06
-8.72287e-09
3.62092e-07
1.02892e-05
-7.21705e-09
1.80519e-07
1.01019e-05
-4.6675e-09
5.13702e-08
8.48133e-06
-2.32742e-09
4.13685e-06
-5.62363e-10
5.82103e-08
-2.67203e-06
1.68693e-08
1.87939e-07
-6.42909e-06
3.79179e-08
3.50056e-07
-8.77459e-06
5.07719e-08
5.18009e-07
-1.00392e-05
5.89013e-08
6.807e-07
-1.06036e-05
6.4317e-08
8.35836e-07
-1.07956e-05
6.80005e-08
9.82429e-07
-1.07716e-05
7.05349e-08
1.11898e-06
-1.0585e-05
7.24045e-08
1.2436e-06
-1.02523e-05
7.39675e-08
1.35446e-06
-9.77887e-06
7.54941e-08
1.45046e-06
-9.17011e-06
7.71848e-08
1.53159e-06
-8.43677e-06
7.91429e-08
1.5989e-06
-7.59626e-06
8.13847e-08
1.65433e-06
-6.67009e-06
8.38571e-08
1.70015e-06
-5.68033e-06
8.64302e-08
1.73853e-06
-4.647e-06
8.88908e-08
1.77095e-06
-3.58714e-06
9.09396e-08
1.79769e-06
-2.51518e-06
9.21921e-08
1.8175e-06
-1.4444e-06
9.21949e-08
1.82752e-06
-3.88926e-07
9.04715e-08
1.82364e-06
6.34357e-07
8.6619e-08
1.80156e-06
1.60883e-06
8.04424e-08
1.75777e-06
2.5261e-06
7.20423e-08
1.68979e-06
3.39189e-06
6.17877e-08
1.59603e-06
4.22776e-06
5.02171e-08
1.47541e-06
5.06897e-06
3.79531e-08
1.32746e-06
5.95773e-06
2.5694e-08
1.15308e-06
6.92993e-06
1.4259e-08
9.56408e-07
7.99043e-06
4.54164e-09
7.4637e-07
9.07333e-06
-2.20209e-09
5.36794e-07
9.99815e-06
-5.13516e-09
3.40804e-07
1.04905e-05
-5.4887e-09
1.69655e-07
1.02768e-05
-4.11404e-09
4.82873e-08
8.60394e-06
-2.04767e-09
4.1839e-06
-3.08337e-10
5.66242e-08
-2.74526e-06
1.66729e-08
1.8264e-07
-6.59179e-06
3.67476e-08
3.39814e-07
-8.98024e-06
4.85324e-08
5.0227e-07
-1.02574e-05
5.57876e-08
6.59346e-07
-1.08213e-05
6.06316e-08
8.08965e-07
-1.10091e-05
6.40075e-08
9.50024e-07
-1.0979e-05
6.64283e-08
1.08094e-06
-1.07842e-05
6.83244e-08
1.19993e-06
-1.04413e-05
7.00224e-08
1.30523e-06
-9.95589e-06
7.17767e-08
1.39581e-06
-9.33441e-06
7.37844e-08
1.47175e-06
-8.58879e-06
7.615e-08
1.53423e-06
-7.73757e-06
7.88909e-08
1.5853e-06
-6.80306e-06
8.19595e-08
1.62743e-06
-5.80763e-06
8.5236e-08
1.66299e-06
-4.77103e-06
8.85234e-08
1.69376e-06
-3.70939e-06
9.15398e-08
1.72034e-06
-2.63561e-06
9.39131e-08
1.74169e-06
-1.56089e-06
9.51842e-08
1.75502e-06
-4.97029e-07
9.48388e-08
1.75587e-06
5.4117e-07
9.23917e-08
1.73929e-06
1.53794e-06
8.75306e-08
1.70097e-06
2.48425e-06
8.02367e-08
1.63776e-06
3.38438e-06
7.07924e-08
1.54768e-06
4.25824e-06
5.96949e-08
1.4297e-06
5.1395e-06
4.75584e-08
1.28375e-06
6.06873e-06
3.508e-08
1.11148e-06
7.07928e-06
2.30711e-08
9.17813e-07
8.17179e-06
1.24636e-08
7.1272e-07
9.27441e-06
4.14817e-09
5.10746e-07
1.02013e-05
-1.14271e-09
3.23479e-07
1.06807e-05
-2.97597e-09
1.60928e-07
1.04418e-05
-2.77903e-09
4.59044e-08
8.71946e-06
-1.27187e-09
4.22812e-06
1.71936e-10
5.52335e-08
-2.81674e-06