/*--------------------------------*- C++ -*----------------------------------*\
| =========                 |                                                 |
| \\      /  F ield         | OpenFOAM: The Open Source CFD Toolbox           |
|  \\    /   O peration     | Version:  v1906                                 |
|   \\  /    A nd           | Web:      www.OpenFOAM.com                      |
|    \\/     M anipulation  |                                                 |
\*---------------------------------------------------------------------------*/
FoamFile
{
    version     2.0;
    format      ascii;
    class       volScalarField;
    location    "98";
    object      T;
}
// * * * * * * * * * * * * * * * * * * * * * * * * * * * * * * * * * * * * * //

dimensions      [0 0 0 1 0 0 0];


internalField   nonuniform List<scalar> 
78750
(
300.044
300.13
300.21
300.283
300.349
300.407
300.458
300.504
300.544
300.58
300.611
300.64
300.664
300.686
300.705
300.72
300.733
300.743
300.75
300.754
300.755
300.753
300.749
300.741
300.73
300.716
300.699
300.679
300.66
300.646
300.665
300.782
301.115
301.772
302.698
300.064
300.186
300.294
300.391
300.479
300.559
300.632
300.697
300.756
300.808
300.856
300.898
300.935
300.968
300.996
301.02
301.04
301.055
301.066
301.073
301.074
301.071
301.061
301.045
301.023
300.995
300.961
300.925
300.891
300.874
300.906
301.06
301.432
302.086
302.989
300.071
300.208
300.333
300.446
300.548
300.638
300.717
300.787
300.849
300.903
300.951
300.994
301.032
301.066
301.095
301.121
301.143
301.161
301.176
301.187
301.194
301.196
301.192
301.182
301.165
301.14
301.109
301.075
301.046
301.042
301.103
301.299
301.703
302.362
303.268
300.085
300.249
300.401
300.539
300.658
300.76
300.846
300.92
300.983
301.039
301.087
301.13
301.167
301.2
301.227
301.251
301.27
301.285
301.296
301.303
301.306
301.305
301.299
301.288
301.271
301.247
301.218
301.188
301.168
301.181
301.27
301.502
301.926
302.588
303.502
300.098
300.287
300.461
300.615
300.743
300.848
300.935
301.008
301.071
301.126
301.174
301.217
301.255
301.288
301.315
301.338
301.356
301.369
301.378
301.382
301.383
301.379
301.372
301.36
301.343
301.322
301.298
301.277
301.272
301.309
301.432
301.7
302.141
302.805
303.725
300.108
300.317
300.508
300.673
300.808
300.915
301.002
301.076
301.141
301.198
301.248
301.293
301.332
301.366
301.393
301.414
301.429
301.438
301.443
301.443
301.439
301.432
301.422
301.408
301.392
301.374
301.357
301.346
301.358
301.419
301.574
301.871
302.326
302.994
303.918
300.117
300.342
300.547
300.722
300.861
300.971
301.06
301.136
301.203
301.262
301.315
301.363
301.404
301.438
301.465
301.484
301.497
301.502
301.502
301.496
301.487
301.476
301.462
301.447
301.431
301.415
301.405
301.406
301.436
301.524
301.709
302.032
302.501
303.178
304.104
300.124
300.363
300.578
300.76
300.904
301.016
301.107
301.185
301.254
301.316
301.372
301.422
301.465
301.5
301.527
301.546
301.556
301.558
301.553
301.544
301.53
301.514
301.496
301.479
301.462
301.45
301.446
301.459
301.506
301.616
301.829
302.173
302.656
303.344
304.273
300.13
300.379
300.603
300.793
300.941
301.056
301.15
301.23
301.302
301.367
301.426
301.479
301.524
301.56
301.588
301.606
301.614
301.614
301.606
301.592
301.574
301.553
301.531
301.511
301.493
301.483
301.484
301.507
301.571
301.703
301.939
302.302
302.8
303.499
304.432
300.135
300.395
300.628
300.824
300.976
301.093
301.189
301.272
301.347
301.414
301.476
301.53
301.577
301.615
301.643
301.661
301.669
301.667
301.657
301.64
301.618
301.593
301.568
301.544
301.526
301.516
301.522
301.554
301.632
301.782
302.039
302.42
302.931
303.643
304.579
300.14
300.408
300.649
300.85
301.006
301.127
301.226
301.311
301.388
301.459
301.523
301.58
301.628
301.668
301.697
301.715
301.723
301.719
301.707
301.687
301.662
301.634
301.605
301.58
301.56
301.552
301.561
301.601
301.691
301.858
302.134
302.529
303.053
303.777
304.716
300.145
300.422
300.67
300.877
301.037
301.16
301.261
301.349
301.429
301.501
301.567
301.626
301.677
301.718
301.748
301.766
301.773
301.769
301.756
301.734
301.706
301.675
301.644
301.617
301.597
301.589
301.602
301.649
301.75
301.932
302.223
302.632
303.168
303.903
304.845
300.149
300.434
300.689
300.902
301.065
301.191
301.295
301.385
301.467
301.542
301.61
301.671
301.723
301.766
301.796
301.815
301.822
301.818
301.803
301.779
301.75
301.717
301.684
301.655
301.635
301.628
301.644
301.698
301.809
302.004
302.31
302.73
303.278
304.023
304.967
300.153
300.447
300.709
300.927
301.093
301.222
301.327
301.42
301.504
301.581
301.651
301.714
301.768
301.811
301.843
301.862
301.869
301.864
301.848
301.824
301.793
301.758
301.724
301.694
301.674
301.668
301.688
301.748
301.868
302.076
302.394
302.825
303.382
304.136
305.083
300.158
300.459
300.727
300.95
301.12
301.25
301.358
301.453
301.539
301.618
301.691
301.756
301.811
301.855
301.888
301.908
301.915
301.91
301.893
301.868
301.835
301.799
301.764
301.734
301.713
301.71
301.734
301.799
301.928
302.147
302.477
302.916
303.482
304.244
305.192
300.162
300.471
300.746
300.973
301.145
301.278
301.388
301.485
301.573
301.655
301.729
301.795
301.852
301.898
301.931
301.952
301.959
301.954
301.937
301.911
301.877
301.84
301.804
301.773
301.754
301.752
301.78
301.851
301.989
302.218
302.558
303.005
303.578
304.346
305.295
300.166
300.482
300.763
300.995
301.17
301.305
301.417
301.516
301.607
301.69
301.766
301.834
301.892
301.939
301.974
301.995
302.003
301.997
301.981
301.954
301.919
301.882
301.845
301.814
301.795
301.795
301.826
301.904
302.049
302.288
302.637
303.09
303.669
304.442
305.392
300.17
300.494
300.781
301.016
301.194
301.331
301.445
301.546
301.639
301.724
301.802
301.871
301.931
301.979
302.014
302.036
302.045
302.04
302.023
301.996
301.961
301.923
301.886
301.855
301.836
301.839
301.874
301.957
302.11
302.357
302.714
303.172
303.756
304.534
305.484
300.174
300.505
300.797
301.037
301.218
301.357
301.473
301.576
301.67
301.757
301.837
301.908
301.969
302.018
302.054
302.077
302.086
302.082
302.066
302.038
302.004
301.965
301.927
301.896
301.878
301.883
301.921
302.009
302.169
302.424
302.789
303.251
303.838
304.621
305.57
300.177
300.515
300.814
301.057
301.241
301.381
301.499
301.604
301.7
301.789
301.87
301.943
302.005
302.056
302.093
302.117
302.127
302.124
302.108
302.081
302.046
302.007
301.969
301.938
301.921
301.927
301.969
302.062
302.229
302.491
302.861
303.327
303.918
304.703
305.653
300.181
300.526
300.83
301.077
301.263
301.406
301.525
301.632
301.73
301.821
301.904
301.978
302.041
302.093
302.131
302.156
302.167
302.165
302.149
302.123
302.088
302.049
302.011
301.98
301.964
301.972
302.016
302.114
302.287
302.556
302.931
303.4
303.993
304.782
305.731
300.185
300.536
300.846
301.097
301.285
301.429
301.551
301.659
301.759
301.851
301.936
302.012
302.076
302.129
302.169
302.195
302.207
302.205
302.191
302.165
302.13
302.091
302.053
302.023
302.007
302.017
302.064
302.166
302.344
302.619
303
303.471
304.066
304.857
305.806
300.188
300.546
300.862
301.116
301.306
301.453
301.576
301.686
301.788
301.882
301.968
302.045
302.111
302.165
302.205
302.232
302.246
302.245
302.232
302.207
302.173
302.134
302.096
302.066
302.051
302.062
302.112
302.218
302.401
302.681
303.066
303.539
304.135
304.928
305.878
300.192
300.556
300.877
301.135
301.327
301.476
301.6
301.712
301.816
301.912
301.999
302.078
302.145
302.2
302.242
302.27
302.284
302.285
302.272
302.249
302.216
302.177
302.14
302.109
302.095
302.107
302.16
302.27
302.457
302.742
303.13
303.605
304.202
304.997
305.947
300.195
300.566
300.892
301.154
301.348
301.498
301.625
301.739
301.844
301.941
302.03
302.11
302.178
302.234
302.277
302.306
302.322
302.324
302.313
302.29
302.258
302.221
302.184
302.154
302.14
302.153
302.208
302.321
302.513
302.802
303.193
303.668
304.267
305.064
306.013
300.199
300.576
300.907
301.172
301.369
301.521
301.649
301.765
301.871
301.97
302.061
302.142
302.212
302.269
302.312
302.343
302.359
302.362
302.353
302.331
302.301
302.264
302.228
302.198
302.185
302.199
302.256
302.372
302.568
302.861
303.255
303.731
304.33
305.128
306.078
300.202
300.586
300.922
301.191
301.389
301.543
301.673
301.79
301.899
301.999
302.092
302.174
302.244
302.303
302.347
302.378
302.396
302.4
302.392
302.373
302.343
302.308
302.272
302.243
302.23
302.246
302.304
302.423
302.622
302.918
303.315
303.791
304.391
305.191
306.141
300.206
300.596
300.937
301.209
301.41
301.565
301.697
301.816
301.926
302.028
302.122
302.205
302.277
302.336
302.382
302.414
302.433
302.438
302.432
302.413
302.385
302.351
302.316
302.288
302.276
302.292
302.352
302.474
302.676
302.976
303.374
303.851
304.451
305.252
306.202
300.209
300.605
300.951
301.227
301.43
301.587
301.72
301.841
301.953
302.057
302.152
302.237
302.31
302.369
302.416
302.449
302.469
302.476
302.47
302.454
302.427
302.395
302.361
302.333
302.322
302.339
302.401
302.524
302.73
303.032
303.432
303.909
304.51
305.311
306.262
300.212
300.615
300.966
301.245
301.45
301.608
301.744
301.867
301.98
302.086
302.182
302.268
302.342
302.403
302.45
302.484
302.505
302.513
302.509
302.494
302.469
302.438
302.405
302.379
302.368
302.387
302.449
302.575
302.783
303.089
303.49
303.967
304.567
305.37
306.32
300.216
300.624
300.98
301.262
301.47
301.63
301.767
301.892
302.007
302.114
302.212
302.299
302.374
302.436
302.484
302.519
302.54
302.55
302.547
302.533
302.511
302.481
302.45
302.424
302.415
302.434
302.498
302.626
302.837
303.144
303.547
304.024
304.624
305.427
306.378
300.219
300.634
300.995
301.28
301.489
301.652
301.791
301.917
302.034
302.143
302.242
302.331
302.406
302.469
302.518
302.553
302.576
302.586
302.585
302.573
302.552
302.524
302.494
302.47
302.461
302.481
302.547
302.677
302.89
303.2
303.603
304.08
304.68
305.483
306.434
300.223
300.643
301.009
301.298
301.509
301.673
301.814
301.942
302.061
302.172
302.272
302.362
302.439
302.502
302.551
302.588
302.611
302.622
302.622
302.612
302.593
302.567
302.539
302.516
302.508
302.529
302.596
302.727
302.942
303.254
303.659
304.135
304.735
305.539
306.49
300.226
300.653
301.024
301.315
301.529
301.695
301.838
301.968
302.088
302.201
302.303
302.393
302.471
302.535
302.585
302.622
302.646
302.658
302.66
302.651
302.633
302.609
302.583
302.561
302.555
302.577
302.645
302.778
302.995
303.309
303.714
304.19
304.789
305.593
306.545
300.229
300.662
301.038
301.333
301.549
301.716
301.861
301.993
302.116
302.229
302.333
302.425
302.503
302.568
302.619
302.656
302.681
302.694
302.697
302.689
302.673
302.651
302.627
302.607
302.602
302.625
302.694
302.829
303.048
303.363
303.769
304.244
304.843
305.648
306.599
300.233
300.672
301.052
301.35
301.568
301.738
301.884
302.018
302.143
302.258
302.363
302.456
302.536
302.601
302.652
302.69
302.716
302.73
302.734
302.728
302.713
302.693
302.67
302.652
302.649
302.673
302.744
302.879
303.1
303.417
303.824
304.298
304.896
305.701
306.653
300.236
300.681
301.067
301.368
301.588
301.759
301.908
302.044
302.17
302.287
302.394
302.488
302.568
302.634
302.686
302.725
302.751
302.766
302.77
302.766
302.753
302.734
302.714
302.698
302.695
302.721
302.793
302.93
303.152
303.471
303.878
304.351
304.949
305.754
306.707
300.239
300.69
301.081
301.385
301.607
301.781
301.931
302.069
302.198
302.316
302.424
302.519
302.601
302.667
302.72
302.759
302.785
302.801
302.807
302.803
302.792
302.776
302.757
302.743
302.742
302.77
302.843
302.981
303.205
303.525
303.932
304.405
305.002
305.807
306.76
300.242
300.7
301.095
301.403
301.627
301.802
301.955
302.095
302.225
302.346
302.455
302.551
302.633
302.7
302.753
302.793
302.82
302.836
302.843
302.841
302.831
302.817
302.8
302.788
302.789
302.818
302.893
303.033
303.258
303.579
303.986
304.458
305.055
305.861
306.814
300.246
300.709
301.11
301.421
301.647
301.824
301.979
302.121
302.253
302.375
302.486
302.583
302.666
302.734
302.787
302.827
302.855
302.872
302.879
302.878
302.87
302.857
302.843
302.833
302.836
302.867
302.943
303.084
303.311
303.633
304.04
304.512
305.108
305.914
306.868
300.249
300.719
301.124
301.438
301.666
301.846
302.002
302.146
302.281
302.405
302.517
302.616
302.699
302.767
302.821
302.861
302.889
302.907
302.915
302.915
302.909
302.898
302.885
302.877
302.883
302.916
302.994
303.137
303.364
303.688
304.095
304.566
305.161
305.968
306.922
300.253
300.728
301.139
301.456
301.686
301.867
302.026
302.172
302.309
302.435
302.548
302.648
302.732
302.801
302.855
302.895
302.924
302.942
302.951
302.953
302.948
302.938
302.928
302.922
302.93
302.965
303.045
303.19
303.419
303.743
304.151
304.62
305.215
306.022
306.977
300.256
300.738
301.153
301.474
301.706
301.889
302.05
302.199
302.337
302.465
302.58
302.68
302.765
302.834
302.889
302.93
302.959
302.977
302.987
302.99
302.986
302.978
302.97
302.967
302.977
303.015
303.096
303.243
303.474
303.799
304.207
304.675
305.269
306.077
307.033
300.259
300.748
301.168
301.491
301.726
301.911
302.074
302.225
302.366
302.495
302.612
302.713
302.799
302.868
302.923
302.964
302.993
303.012
303.023
303.026
303.024
303.018
303.012
303.011
303.024
303.064
303.149
303.297
303.53
303.856
304.264
304.731
305.325
306.133
307.089
300.263
300.757
301.183
301.509
301.746
301.933
302.098
302.251
302.394
302.526
302.644
302.746
302.832
302.902
302.957
302.998
303.028
303.047
303.059
303.063
303.062
303.058
303.054
303.055
303.071
303.114
303.201
303.352
303.587
303.914
304.321
304.788
305.38
306.189
307.146
300.266
300.767
301.197
301.527
301.766
301.955
302.123
302.278
302.423
302.556
302.676
302.779
302.866
302.936
302.991
303.032
303.062
303.082
303.094
303.1
303.1
303.098
303.096
303.1
303.118
303.164
303.254
303.408
303.645
303.973
304.38
304.845
305.437
306.246
307.204
300.27
300.777
301.212
301.545
301.786
301.978
302.147
302.305
302.452
302.587
302.708
302.812
302.899
302.97
303.025
303.067
303.097
303.117
303.13
303.136
303.138
303.137
303.137
303.144
303.165
303.214
303.307
303.464
303.703
304.032
304.439
304.903
305.494
306.303
307.261
300.273
300.787
301.227
301.563
301.806
302
302.172
302.332
302.481
302.618
302.74
302.845
302.933
303.003
303.059
303.101
303.131
303.152
303.165
303.173
303.175
303.176
303.179
303.188
303.212
303.264
303.361
303.52
303.762
304.092
304.498
304.961
305.552
306.361
307.319
300.277
300.796
301.242
301.581
301.826
302.022
302.197
302.359
302.511
302.649
302.773
302.878
302.966
303.037
303.093
303.135
303.166
303.187
303.201
303.209
303.213
303.216
303.22
303.232
303.259
303.315
303.414
303.577
303.821
304.153
304.558
305.02
305.609
306.418
307.377
300.28
300.806
301.257
301.599
301.847
302.045
302.222
302.386
302.54
302.681
302.805
302.912
303
303.071
303.127
303.169
303.2
303.222
303.236
303.245
303.25
303.255
303.261
303.275
303.306
303.365
303.468
303.634
303.88
304.214
304.618
305.079
305.667
306.476
307.435
300.283
300.816
301.272
301.617
301.867
302.067
302.247
302.414
302.57
302.713
302.838
302.945
303.034
303.105
303.161
303.203
303.234
303.256
303.271
303.281
303.288
303.293
303.302
303.319
303.353
303.415
303.522
303.691
303.94
304.275
304.679
305.138
305.725
306.534
307.492
300.287
300.826
301.287
301.635
301.888
302.09
302.272
302.442
302.6
302.745
302.871
302.979
303.068
303.139
303.195
303.237
303.268
303.291
303.306
303.317
303.325
303.332
303.343
303.362
303.399
303.465
303.575
303.748
304
304.335
304.739
305.196
305.783
306.591
307.549
300.29
300.836
301.302
301.654
301.908
302.113
302.298
302.47
302.631
302.777
302.905
303.013
303.102
303.174
303.229
303.271
303.303
303.325
303.341
303.353
303.362
303.371
303.383
303.405
303.445
303.514
303.628
303.805
304.059
304.396
304.799
305.255
305.84
306.648
307.606
300.294
300.846
301.317
301.672
301.929
302.137
302.324
302.499
302.662
302.809
302.938
303.047
303.137
303.208
303.263
303.305
303.337
303.36
303.376
303.388
303.399
303.409
303.424
303.448
303.491
303.564
303.682
303.861
304.118
304.456
304.858
305.313
305.897
306.704
307.661
300.298
300.856
301.333
301.691
301.95
302.16
302.35
302.528
302.693
302.842
302.972
303.082
303.171
303.242
303.297
303.339
303.371
303.394
303.411
303.424
303.435
303.447
303.464
303.491
303.537
303.613
303.734
303.918
304.177
304.516
304.917
305.37
305.953
306.759
307.717
300.301
300.866
301.348
301.71
301.971
302.184
302.376
302.557
302.724
302.875
303.006
303.116
303.206
303.277
303.332
303.374
303.405
303.428
303.446
303.46
303.472
303.485
303.504
303.534
303.582
303.662
303.787
303.973
304.236
304.576
304.975
305.427
306.009
306.814
307.771
300.305
300.877
301.364
301.728
301.993
302.208
302.403
302.586
302.756
302.909
303.041
303.151
303.24
303.311
303.366
303.408
303.439
303.463
303.481
303.495
303.508
303.523
303.544
303.576
303.628
303.71
303.839
304.029
304.293
304.634
305.033
305.483
306.064
306.868
307.824
300.308
300.887
301.379
301.747
302.014
302.232
302.43
302.616
302.788
302.942
303.075
303.186
303.275
303.345
303.4
303.442
303.473
303.497
303.515
303.53
303.545
303.561
303.584
303.618
303.673
303.759
303.891
304.084
304.351
304.692
305.09
305.538
306.118
306.921
307.877
300.312
300.897
301.395
301.766
302.035
302.256
302.457
302.646
302.821
302.976
303.11
303.22
303.31
303.38
303.434
303.476
303.507
303.531
303.55
303.566
303.581
303.599
303.623
303.66
303.717
303.807
303.942
304.138
304.407
304.75
305.146
305.593
306.171
306.974
307.928
300.316
300.908
301.411
301.785
302.057
302.28
302.485
302.677
302.853
303.011
303.145
303.255
303.344
303.414
303.468
303.51
303.541
303.565
303.584
303.601
303.617
303.636
303.662
303.701
303.761
303.854
303.993
304.192
304.463
304.806
305.201
305.646
306.223
307.025
307.979
300.319
300.918
301.426
301.805
302.079
302.305
302.513
302.708
302.887
303.045
303.18
303.291
303.379
303.449
303.502
303.543
303.575
303.599
303.619
303.636
303.653
303.674
303.702
303.743
303.805
303.901
304.043
304.245
304.518
304.862
305.256
305.699
306.275
307.075
308.028
300.323
300.929
301.443
301.825
302.102
302.331
302.542
302.74
302.921
303.081
303.216
303.327
303.415
303.484
303.537
303.578
303.609
303.633
303.653
303.671
303.689
303.711
303.74
303.784
303.849
303.948
304.092
304.298
304.573
304.916
305.309
305.75
306.325
307.125
308.077
300.327
300.939
301.459
301.845
302.125
302.357
302.571
302.772
302.956
303.117
303.253
303.363
303.45
303.519
303.571
303.612
303.643
303.667
303.688
303.706
303.725
303.748
303.779
303.825
303.892
303.994
304.142
304.349
304.626
304.97
305.361
305.801
306.374
307.173
308.124
300.331
300.95
301.476
301.865
302.148
302.383
302.601
302.805
302.991
303.154
303.29
303.4
303.486
303.554
303.606
303.646
303.677
303.701
303.722
303.741
303.761
303.785
303.818
303.865
303.935
304.039
304.19
304.4
304.679
305.023
305.413
305.851
306.423
307.22
308.171
300.334
300.961
301.493
301.886
302.172
302.41
302.632
302.839
303.028
303.191
303.327
303.437
303.523
303.59
303.641
303.68
303.711
303.735
303.756
303.776
303.797
303.822
303.856
303.905
303.978
304.085
304.238
304.451
304.731
305.075
305.463
305.899
306.47
307.267
308.216
300.338
300.973
301.51
301.907
302.196
302.438
302.663
302.874
303.065
303.229
303.365
303.474
303.559
303.625
303.676
303.715
303.745
303.77
303.791
303.811
303.832
303.859
303.894
303.945
304.02
304.129
304.285
304.5
304.782
305.125
305.512
305.947
306.516
307.312
308.261
300.342
300.984
301.528
301.928
302.22
302.466
302.695
302.909
303.102
303.268
303.404
303.512
303.596
303.661
303.711
303.75
303.78
303.804
303.825
303.846
303.868
303.895
303.932
303.985
304.062
304.174
304.332
304.549
304.832
305.175
305.56
305.994
306.562
307.356
308.304
300.347
300.996
301.545
301.95
302.245
302.495
302.728
302.946
303.141
303.307
303.443
303.55
303.634
303.698
303.747
303.785
303.814
303.838
303.86
303.881
303.904
303.932
303.97
304.025
304.104
304.218
304.378
304.597
304.881
305.224
305.608
306.039
306.606
307.4
308.347
300.351
301.008
301.564
301.972
302.271
302.524
302.761
302.983
303.18
303.347
303.482
303.589
303.671
303.734
303.783
303.82
303.849
303.873
303.895
303.916
303.939
303.969
304.008
304.065
304.145
304.261
304.424
304.645
304.93
305.272
305.654
306.084
306.65
307.442
308.389
300.355
301.02
301.582
301.994
302.297
302.554
302.796
303.021
303.22
303.387
303.522
303.628
303.709
303.771
303.818
303.855
303.884
303.908
303.929
303.951
303.975
304.005
304.046
304.104
304.187
304.305
304.47
304.692
304.978
305.32
305.7
306.128
306.693
307.484
308.431
300.359
301.033
301.601
302.017
302.323
302.585
302.831
303.059
303.26
303.429
303.563
303.668
303.748
303.808
303.855
303.89
303.919
303.943
303.964
303.986
304.011
304.042
304.084
304.143
304.228
304.348
304.515
304.739
305.025
305.366
305.745
306.171
306.735
307.526
308.471
300.364
301.045
301.62
302.041
302.35
302.616
302.866
303.098
303.302
303.47
303.604
303.708
303.786
303.846
303.891
303.926
303.954
303.978
303.999
304.022
304.047
304.079
304.122
304.183
304.269
304.391
304.559
304.785
305.071
305.412
305.789
306.214
306.776
307.566
308.512
300.368
301.058
301.64
302.064
302.378
302.648
302.903
303.138
303.343
303.512
303.645
303.748
303.825
303.883
303.928
303.962
303.989
304.013
304.034
304.057
304.083
304.116
304.16
304.222
304.31
304.434
304.604
304.83
305.117
305.457
305.832
306.255
306.817
307.606
308.551
300.373
301.071
301.659
302.088
302.405
302.68
302.94
303.179
303.385
303.554
303.687
303.788
303.864
303.921
303.964
303.998
304.025
304.048
304.07
304.093
304.119
304.153
304.198
304.262
304.351
304.476
304.648
304.876
305.163
305.502
305.875
306.297
306.857
307.646
308.59
300.377
301.084
301.679
302.112
302.434
302.713
302.977
303.219
303.428
303.597
303.728
303.828
303.903
303.959
304.001
304.034
304.06
304.083
304.105
304.128
304.155
304.19
304.236
304.301
304.392
304.519
304.692
304.921
305.208
305.546
305.917
306.337
306.897
307.685
308.629
300.382
301.097
301.699
302.137
302.462
302.747
303.016
303.261
303.471
303.639
303.77
303.869
303.942
303.997
304.038
304.07
304.096
304.119
304.141
304.164
304.192
304.227
304.275
304.341
304.433
304.561
304.736
304.966
305.253
305.589
305.959
306.378
306.936
307.723
308.668
300.387
301.111
301.72
302.162
302.492
302.781
303.055
303.304
303.514
303.683
303.812
303.909
303.981
304.035
304.075
304.107
304.132
304.155
304.177
304.2
304.228
304.264
304.313
304.38
304.474
304.604
304.779
305.01
305.297
305.632
306
306.417
306.975
307.762
308.706
300.391
301.124
301.741
302.188
302.523
302.817
303.096
303.348
303.559
303.727
303.855
303.951
304.021
304.073
304.113
304.143
304.168
304.191
304.213
304.237
304.265
304.302
304.351
304.42
304.515
304.646
304.823
305.054
305.341
305.675
306.041
306.457
307.014
307.8
308.744
300.396
301.139
301.763
302.215
302.554
302.854
303.138
303.393
303.605
303.772
303.899
303.992
304.061
304.112
304.15
304.18
304.205
304.227
304.249
304.273
304.302
304.34
304.39
304.46
304.556
304.689
304.867
305.099
305.385
305.718
306.082
306.496
307.052
307.838
308.782
300.401
301.153
301.785
302.243
302.587
302.893
303.182
303.44
303.653
303.819
303.943
304.035
304.102
304.151
304.188
304.217
304.241
304.263
304.285
304.31
304.339
304.377
304.429
304.5
304.598
304.731
304.911
305.143
305.429
305.76
306.122
306.535
307.091
307.876
308.82
300.407
301.168
301.808
302.271
302.62
302.932
303.227
303.488
303.701
303.866
303.988
304.078
304.143
304.19
304.226
304.254
304.278
304.3
304.322
304.346
304.377
304.415
304.468
304.54
304.639
304.774
304.954
305.187
305.473
305.802
306.163
306.574
307.129
307.914
308.858
300.412
301.184
301.831
302.3
302.654
302.973
303.273
303.536
303.75
303.913
304.034
304.121
304.184
304.23
304.265
304.292
304.315
304.337
304.359
304.384
304.414
304.454
304.507
304.58
304.681
304.817
304.999
305.232
305.517
305.845
306.203
306.614
307.167
307.952
308.897
300.418
301.199
301.855
302.329
302.689
303.014
303.319
303.585
303.799
303.961
304.08
304.165
304.226
304.271
304.304
304.33
304.352
304.374
304.396
304.421
304.452
304.492
304.547
304.621
304.723
304.86
305.043
305.276
305.561
305.887
306.244
306.652
307.206
307.99
308.935
300.423
301.215
301.879
302.359
302.725
303.056
303.366
303.634
303.848
304.009
304.126
304.209
304.268
304.311
304.343
304.368
304.39
304.411
304.433
304.458
304.49
304.531
304.587
304.662
304.765
304.904
305.087
305.321
305.605
305.93
306.284
306.692
307.245
308.029
308.974
300.429
301.231
301.904
302.389
302.761
303.098
303.413
303.683
303.897
304.057
304.172
304.253
304.31
304.351
304.382
304.407
304.428
304.448
304.47
304.496
304.528
304.57
304.627
304.703
304.808
304.948
305.132
305.366
305.649
305.972
306.325
306.731
307.283
308.068
309.013
300.434
301.247
301.928
302.42
302.798
303.142
303.462
303.734
303.948
304.106
304.218
304.297
304.353
304.392
304.422
304.445
304.466
304.486
304.508
304.534
304.567
304.609
304.667
304.745
304.85
304.992
305.177
305.411
305.694
306.015
306.366
306.771
307.323
308.107
309.052
300.44
301.264
301.954
302.452
302.837
303.188
303.513
303.787
303.999
304.155
304.265
304.342
304.395
304.433
304.461
304.484
304.504
304.524
304.546
304.572
304.605
304.649
304.707
304.786
304.893
305.036
305.222
305.456
305.738
306.058
306.407
306.81
307.361
308.146
309.091
300.446
301.281
301.981
302.486
302.878
303.237
303.566
303.841
304.052
304.206
304.313
304.387
304.438
304.475
304.502
304.523
304.543
304.563
304.584
304.611
304.644
304.689
304.748
304.829
304.937
305.081
305.267
305.502
305.783
306.101
306.448
306.851
307.401
308.185
309.131
300.452
301.299
302.009
302.521
302.921
303.287
303.622
303.898
304.107
304.258
304.362
304.433
304.482
304.516
304.542
304.563
304.582
304.601
304.623
304.65
304.684
304.729
304.789
304.871
304.98
305.125
305.313
305.547
305.827
306.143
306.489
306.891
307.441
308.224
309.17
300.459
301.318
302.038
302.558
302.965
303.34
303.68
303.957
304.164
304.312
304.412
304.48
304.526
304.559
304.583
304.603
304.621
304.64
304.662
304.689
304.723
304.769
304.831
304.914
305.024
305.171
305.359
305.593
305.872
306.187
306.531
306.931
307.481
308.265
309.211
300.465
301.337
302.068
302.596
303.012
303.395
303.74
304.017
304.223
304.367
304.464
304.528
304.572
304.602
304.624
304.643
304.661
304.679
304.701
304.728
304.763
304.81
304.872
304.956
305.068
305.216
305.405
305.639
305.917
306.23
306.572
306.972
307.521
308.304
309.251
300.472
301.358
302.099
302.636
303.06
303.452
303.801
304.079
304.283
304.423
304.516
304.577
304.617
304.645
304.666
304.684
304.701
304.719
304.741
304.768
304.804
304.851
304.915
305
305.113
305.262
305.452
305.686
305.963
306.274
306.615
307.013
307.562
308.346
309.292
300.48
301.379
302.131
302.676
303.109
303.51
303.864
304.142
304.343
304.479
304.569
304.626
304.664
304.69
304.709
304.725
304.741
304.759
304.781
304.808
304.844
304.892
304.957
305.043
305.158
305.308
305.498
305.733
306.009
306.318
306.656
307.054
307.603
308.386
309.332
300.487
301.4
302.164
302.718
303.16
303.57
303.928
304.206
304.404
304.537
304.622
304.676
304.711
304.734
304.752
304.767
304.782
304.8
304.821
304.849
304.885
304.934
305
305.088
305.204
305.355
305.546
305.78
306.055
306.363
306.7
307.096
307.645
308.428
309.374
300.495
301.422
302.198
302.761
303.213
303.631
303.994
304.272
304.467
304.595
304.676
304.726
304.758
304.779
304.795
304.809
304.824
304.841
304.862
304.89
304.927
304.976
305.043
305.132
305.249
305.401
305.593
305.827
306.101
306.407
306.742
307.138
307.686
308.469
309.415
300.503
301.445
302.233
302.806
303.268
303.696
304.063
304.34
304.531
304.655
304.731
304.778
304.806
304.825
304.839
304.852
304.866
304.882
304.903
304.931
304.969
305.019
305.087
305.177
305.296
305.449
305.642
305.875
306.148
306.452
306.786
307.181
307.728
308.511
309.457
300.511
301.469
302.27
302.854
303.325
303.763
304.133
304.41
304.597
304.716
304.787
304.83
304.855
304.871
304.884
304.895
304.908
304.924
304.945
304.973
305.011
305.062
305.131
305.222
305.342
305.496
305.689
305.923
306.194
306.496
306.829
307.223
307.77
308.552
309.499
300.52
301.495
302.309
302.903
303.385
303.832
304.206
304.481
304.665
304.778
304.845
304.883
304.905
304.919
304.929
304.939
304.951
304.966
304.987
305.015
305.053
305.105
305.175
305.268
305.39
305.545
305.738
305.972
306.242
306.542
306.873
307.266
307.813
308.595
309.541
300.529
301.521
302.349
302.953
303.446
303.902
304.28
304.554
304.733
304.841
304.903
304.936
304.955
304.966
304.975
304.983
304.994
305.009
305.029
305.057
305.096
305.149
305.22
305.314
305.436
305.592
305.786
306.019
306.288
306.587
306.916
307.308
307.855
308.637
309.583
300.539
301.548
302.389
303.005
303.508
303.974
304.355
304.628
304.803
304.906
304.962
304.991
305.006
305.015
305.021
305.028
305.038
305.052
305.072
305.1
305.14
305.193
305.265
305.361
305.484
305.641
305.836
306.068
306.336
306.633
306.961
307.353
307.899
308.68
309.626
300.549
301.576
302.431
303.057
303.572
304.046
304.431
304.702
304.873
304.971
305.022
305.046
305.058
305.064
305.068
305.074
305.083
305.096
305.115
305.144
305.183
305.237
305.31
305.406
305.531
305.689
305.884
306.116
306.382
306.678
307.004
307.395
307.941
308.722
309.667
300.558
301.604
302.473
303.111
303.636
304.119
304.507
304.777
304.944
305.036
305.082
305.103
305.111
305.114
305.116
305.12
305.128
305.14
305.159
305.188
305.227
305.282
305.356
305.454
305.58
305.738
305.933
306.165
306.43
306.724
307.049
307.439
307.986
308.766
309.711
300.569
301.632
302.516
303.165
303.702
304.193
304.585
304.854
305.016
305.103
305.144
305.16
305.164
305.164
305.164
305.167
305.173
305.185
305.203
305.231
305.272
305.327
305.402
305.5
305.627
305.786
305.981
306.212
306.476
306.769
307.092
307.482
308.028
308.808
309.752
300.579
301.662
302.56
303.222
303.77
304.27
304.665
304.932
305.09
305.171
305.206
305.218
305.218
305.216
305.214
305.214
305.219
305.23
305.248
305.276
305.317
305.373
305.448
305.548
305.675
305.836
306.031
306.262
306.525
306.815
307.138
307.527
308.073
308.852
309.796
300.59
301.692
302.606
303.28
303.839
304.349
304.747
305.012
305.165
305.241
305.271
305.277
305.274
305.268
305.264
305.262
305.266
305.276
305.293
305.321
305.361
305.418
305.494
305.594
305.723
305.883
306.079
306.309
306.57
306.86
307.18
307.569
308.115
308.894
309.837
300.601
301.724
302.653
303.34
303.912
304.431
304.832
305.095
305.243
305.313
305.336
305.338
305.33
305.321
305.314
305.311
305.314