/*--------------------------------*- C++ -*----------------------------------*\
| =========                 |                                                 |
| \\      /  F ield         | OpenFOAM: The Open Source CFD Toolbox           |
|  \\    /   O peration     | Version:  v1912                                 |
|   \\  /    A nd           | Website:  www.openfoam.com                      |
|    \\/     M anipulation  |                                                 |
\*---------------------------------------------------------------------------*/
FoamFile
{
    version     2.0;
    format      ascii;
    class       surfaceScalarField;
    location    "195/oil";
    object      phi;
}
// * * * * * * * * * * * * * * * * * * * * * * * * * * * * * * * * * * * * * //

dimensions      [1 0 -1 0 0 0 0];
oriented        oriented;


internalField   nonuniform List<scalar> 
80688
(
-1.15993e-06
-1.43429e-06
-1.15839e-06
-6.21154e-07
-4.34813e-07
-1.03963e-07
5.68154e-07
-6.90512e-07
-4.98796e-07
2.20296e-07
9.31622e-08
2.54696e-07
3.96072e-07
-1.59936e-07
-1.58405e-08
3.77866e-07
-5.17026e-08
6.99088e-08
4.37196e-07
-7.82353e-08
1.89054e-08
4.42577e-07
-3.83118e-08
3.29308e-08
4.50896e-07
-2.67272e-08
1.84082e-08
4.26341e-07
1.80918e-09
2.27453e-08
3.93676e-07
1.74753e-08
1.519e-08
3.36755e-07
3.90671e-08
1.7854e-08
2.72856e-07
5.07605e-08
1.31392e-08
1.95098e-07
6.29641e-08
1.4794e-08
1.14104e-07
6.83957e-08
1.25975e-08
3.14911e-08
6.9511e-08
1.31023e-08
-5.0097e-08
6.80196e-08
1.35686e-08
-1.21374e-07
5.82187e-08
1.30583e-08
-1.87719e-07
5.02347e-08
1.61102e-08
-2.34235e-07
3.13978e-08
1.51187e-08
-2.72753e-07
1.82919e-08
2.02259e-08
-2.86237e-07
-5.96643e-09
1.94504e-08
-2.90794e-07
-2.15623e-08
2.61192e-08
-2.70929e-07
-4.63861e-08
2.6521e-08
-2.44091e-07
-6.10651e-08
3.42271e-08
-1.98855e-07
-8.16703e-08
3.64348e-08
-1.50733e-07
-9.18656e-08
4.37438e-08
-9.37006e-08
-1.0307e-07
4.60378e-08
-4.01226e-08
-9.8988e-08
4.541e-08
-7.02619e-08
3.01394e-08
-1.32898e-07
-1.16894e-06
-1.32449e-07
3.85206e-07
-2.12106e-07
-7.40812e-07
8.04318e-08
-5.3771e-07
1.51971e-07
4.40819e-07
-3.34916e-07
6.76909e-08
5.35156e-07
-3.64899e-07
1.10626e-07
6.68654e-07
-2.88973e-07
1.03772e-07
7.46806e-07
-2.50889e-07
9.4501e-08
7.91421e-07
-1.8067e-07
9.77434e-08
8.06009e-07
-1.29373e-07
8.80577e-08
7.77068e-07
-6.18234e-08
9.25738e-08
7.23936e-07
-1.43956e-08
8.50026e-08
6.33672e-07
3.98725e-08
8.94595e-08
5.26284e-07
7.40392e-08
8.41091e-08
3.96627e-07
1.05682e-07
8.69384e-08
2.59156e-07
1.21821e-07
8.40462e-08
1.18387e-07
1.25775e-07
8.45039e-08
-2.0374e-08
1.22288e-07
8.44929e-08
-1.43648e-07
9.87963e-08
8.26961e-08
-2.56191e-07
7.70824e-08
8.56958e-08
-3.3852e-07
3.10446e-08
8.26823e-08
-4.03971e-07
-4.47121e-09
8.82144e-08
-4.31438e-07
-6.40219e-08
8.55221e-08
-4.40529e-07
-1.05813e-07
9.33419e-08
-4.13611e-07
-1.65639e-07
9.23355e-08
-3.72714e-07
-2.03485e-07
1.01523e-07
-3.06017e-07
-2.51236e-07
1.02869e-07
-2.33193e-07
-2.75278e-07
1.10588e-07
-1.48448e-07
-2.96969e-07
1.09154e-07
-6.48652e-08
-2.80816e-07
9.82453e-08
-1.92233e-07
5.71056e-08
-5.11485e-07
-1.45766e-07
-5.1169e-07
4.62481e-08
-9.27539e-07
1.577e-07
3.19822e-07
-7.84559e-07
-2.67249e-08
5.042e-07
-7.13406e-07
1.94112e-07
6.9749e-07
-6.69999e-07
1.11811e-07
8.09884e-07
-5.60505e-07
1.59138e-07
9.15501e-07
-4.86878e-07
1.30372e-07
9.59655e-07
-3.67753e-07
1.42928e-07
9.79303e-07
-2.7816e-07
1.29139e-07
9.43855e-07
-1.62062e-07
1.35687e-07
8.81157e-07
-7.85107e-08
1.26813e-07
7.73976e-07
1.51167e-08
1.31937e-07
6.45851e-07
7.62937e-08
1.25871e-07
4.91077e-07
1.31642e-07
1.28814e-07
3.26361e-07
1.60648e-07
1.2589e-07
1.57661e-07
1.6842e-07
1.26056e-07
-8.61675e-09
1.62201e-07
1.26365e-07
-1.56881e-07
1.22872e-07
1.24189e-07
-2.91619e-07
8.39388e-08
1.27882e-07
-3.9072e-07
5.52724e-09
1.24618e-07
-4.68679e-07
-5.74399e-08
1.30928e-07
-5.02764e-07
-1.57412e-07
1.27475e-07
-5.1396e-07
-2.30702e-07
1.36084e-07
-4.8357e-07
-3.30551e-07
1.34523e-07
-4.35745e-07
-3.95539e-07
1.4423e-07
-3.58622e-07
-4.73171e-07
1.44812e-07
-2.73736e-07
-5.12071e-07
1.51907e-07
-1.75559e-07
-5.42536e-07
1.47389e-07
-7.71526e-08
-5.08185e-07
1.28963e-07
-3.40901e-07
7.15161e-08
2.90424e-07
-7.26072e-07
2.89881e-07
2.95178e-07
-1.05485e-06
1.22557e-07
4.51492e-07
-1.17356e-06
2.32684e-07
6.54689e-07
-1.1025e-06
1.85893e-07
8.24741e-07
-1.03929e-06
1.9924e-07
9.74173e-07
-9.04733e-07
1.94796e-07
1.08318e-06
-7.85279e-07
1.89398e-07
1.14011e-06
-6.19658e-07
1.9497e-07
1.15659e-06
-4.81453e-07
1.86816e-07
1.11301e-06
-3.13633e-07
1.95147e-07
1.03304e-06
-1.86323e-07
1.87787e-07
9.01161e-07
-4.87324e-08
1.95726e-07
7.43065e-07
4.41883e-08
1.90201e-07
5.53941e-07
1.25405e-07
1.95361e-07
3.52892e-07
1.6944e-07
1.92257e-07
1.47769e-07
1.8123e-07
1.92313e-07
-5.36689e-08
1.71825e-07
1.91814e-07
-2.32776e-07
1.14349e-07
1.8763e-07
-3.9458e-07
5.54369e-08
1.90306e-07
-5.13497e-07
-5.89871e-08
1.83432e-07
-6.05225e-07
-1.54719e-07
1.89007e-07
-6.43935e-07
-3.00741e-07
1.82039e-07
-6.53893e-07
-4.10396e-07
1.89653e-07
-6.14209e-07
-5.54854e-07
1.84619e-07
-5.52206e-07
-6.50762e-07
1.9322e-07
-4.55082e-07
-7.61127e-07
1.90832e-07
-3.47224e-07
-8.16421e-07
1.96492e-07
-2.23356e-07
-8.55134e-07
1.8873e-07
-9.85827e-08
-7.9733e-07
1.64372e-07
-5.3168e-07
9.21963e-08
6.55759e-08
-8.56568e-07
6.49201e-08
3.00832e-07
-1.50136e-06
2.11254e-07
5.29246e-07
-1.59653e-06
1.94556e-07
7.5383e-07
-1.56681e-06
2.39732e-07
9.60507e-07
-1.46079e-06
2.14818e-07
1.11507e-06
-1.28969e-06
2.30396e-07
1.23737e-06
-1.12114e-06
2.13565e-07
1.29188e-06
-8.9648e-07
2.22315e-07
1.30559e-06
-7.04115e-07
2.08948e-07
1.24958e-06
-4.74443e-07
2.16819e-07
1.15423e-06
-2.97206e-07
2.06237e-07
1.00101e-06
-1.08853e-07
2.13338e-07
8.19048e-07
1.99533e-08
2.06201e-07
6.02383e-07
1.32067e-07
2.10003e-07
3.72374e-07
1.93296e-07
2.06153e-07
1.38385e-07
2.09275e-07
2.05944e-07
-9.15347e-08
1.95147e-07
2.06598e-07
-2.95802e-07
1.15878e-07
2.02738e-07
-4.80226e-07
3.16722e-08
2.08189e-07
-6.1585e-07
-1.25114e-07
2.01751e-07
-7.20575e-07
-2.60201e-07
2.10206e-07
-7.65054e-07
-4.60176e-07
2.03913e-07
-7.75695e-07
-6.14434e-07
2.1468e-07
-7.29307e-07
-8.11636e-07
2.10394e-07
-6.55615e-07
-9.46009e-07
2.21554e-07
-5.40781e-07
-1.09566e-06
2.197e-07
-4.11653e-07
-1.17239e-06
2.26841e-07
-2.63553e-07
-1.2218e-06
2.18562e-07
-1.14633e-07
-1.137e-06
1.90752e-07
-7.53135e-07
1.06822e-07
1.9714e-07
-1.24984e-06
1.96129e-07
4.19883e-07
-1.9902e-06
2.66092e-07
6.93919e-07
-2.17536e-06
3.04797e-07
9.48986e-07
-2.11786e-06
2.95978e-07
1.18533e-06
-1.98906e-06
2.91936e-07
1.36746e-06
-1.76583e-06
2.94007e-07
1.50463e-06
-1.54243e-06
2.84117e-07
1.56484e-06
-1.25063e-06
2.93936e-07
1.57182e-06
-9.93967e-07
2.82866e-07
1.49627e-06
-6.95085e-07
2.96193e-07
1.37159e-06
-4.58803e-07
2.8628e-07
1.17687e-06
-2.13253e-07
2.99125e-07
9.46458e-07
-4.08705e-08
2.91231e-07
6.74887e-07
1.0438e-07
2.99259e-07
3.88207e-07
1.8513e-07
2.94845e-07
9.75716e-08
2.05413e-07
2.94498e-07
-1.86808e-07
1.85527e-07
2.93999e-07
-4.39316e-07
8.17243e-08
2.86662e-07
-6.66228e-07
-3.20535e-08
2.90638e-07
-8.32041e-07
-2.38319e-07
2.79018e-07
-9.58112e-07
-4.20508e-07
2.86379e-07
-1.00987e-06
-6.82315e-07
2.73901e-07
-1.01833e-06
-8.89732e-07
2.83751e-07
-9.56282e-07
-1.14768e-06
2.73995e-07
-8.58282e-07
-1.32852e-06
2.84507e-07
-7.08597e-07
-1.52416e-06
2.78812e-07
-5.38658e-07
-1.62798e-06
2.85652e-07
-3.44693e-07
-1.69063e-06
2.74868e-07
-1.49848e-07
-1.57395e-06
2.42107e-07
-1.04272e-06
1.3974e-07
1.89145e-07
-1.62671e-06
1.87728e-07
4.95733e-07
-2.615e-06
3.18219e-07
8.18789e-07
-2.83847e-06
3.40059e-07
1.12326e-06
-2.77302e-06
3.50684e-07
1.39641e-06
-2.5961e-06
3.33891e-07
1.60107e-06
-2.31031e-06
3.39819e-07
1.75228e-06
-2.01545e-06
3.21822e-07
1.81195e-06
-1.64069e-06
3.30385e-07
1.81057e-06
-1.30506e-06
3.12478e-07
1.71446e-06
-9.22023e-07
3.23042e-07
1.56277e-06
-6.14546e-07
3.07436e-07
1.33257e-06
-3.00767e-07
3.17711e-07
1.06313e-06
-7.82012e-08
3.0677e-07
7.47777e-07
1.07058e-07
3.12678e-07
4.14591e-07
2.10999e-07
3.07316e-07
7.78628e-08
2.36227e-07
3.05915e-07
-2.52319e-07
2.07769e-07
3.07941e-07
-5.45211e-07
7.31198e-08
3.01496e-07
-8.09255e-07
-7.85188e-08
3.1051e-07
-1.00393e-06
-3.43291e-07
2.99645e-07
-1.15277e-06
-5.84754e-07
3.13086e-07
-1.21568e-06
-9.21822e-07
3.02424e-07
-1.22681e-06
-1.19694e-06
3.1833e-07
-1.15515e-06
-1.52982e-06
3.10485e-07
-1.0384e-06
-1.77118e-06
3.25911e-07
-8.59121e-07
-2.02535e-06
3.2192e-07
-6.52392e-07
-2.16693e-06
3.32225e-07
-4.15871e-07
-2.24944e-06
3.22288e-07
-1.78363e-07
-2.09767e-06
2.86213e-07
-1.38737e-06
1.66279e-07
2.64743e-07
-2.15392e-06
2.62472e-07
6.45054e-07
-3.40615e-06
4.10835e-07
1.05361e-06
-3.69469e-06
4.47663e-07
1.42675e-06
-3.59643e-06
4.50276e-07
1.76011e-06
-3.368e-06
4.38545e-07
2.00644e-06
-3.00309e-06
4.46444e-07
2.1836e-06
-2.62463e-06
4.32019e-07
2.24821e-06
-2.15404e-06
4.48745e-07
2.23502e-06
-1.72542e-06
4.33545e-07
2.10557e-06
-1.24747e-06
4.54891e-07
1.90637e-06
-8.56387e-07
4.41047e-07
1.61041e-06
-4.663e-07
4.61486e-07
1.26528e-06
-1.83766e-07
4.50699e-07
8.63367e-07
4.66545e-08
4.62316e-07
4.41235e-07
1.76621e-07
4.56511e-07
1.61796e-08
2.06575e-07
4.54707e-07
-3.99788e-07
1.6843e-07
4.55306e-07
-7.69977e-07
1.10441e-09
4.42204e-07
-1.1011e-06
-1.9729e-07
4.49898e-07
-1.34408e-06
-5.2978e-07
4.29462e-07
-1.52795e-06
-8.41252e-07
4.4037e-07
-1.60447e-06
-1.26413e-06
4.1883e-07
-1.61391e-06
-1.6197e-06
4.32199e-07
-1.51966e-06
-2.03879e-06
4.14729e-07
-1.36578e-06
-2.35317e-06
4.28097e-07
-1.13215e-06
-2.67634e-06
4.17363e-07
-8.60042e-07
-2.86571e-06
4.26666e-07
-5.48915e-07
-2.97357e-06
4.13005e-07
-2.35866e-07
-2.78066e-06
3.69942e-07
-1.84429e-06
2.21062e-07
3.15509e-07
-2.78172e-06
3.12284e-07
7.87534e-07
-4.37661e-06
4.98439e-07
1.27863e-06
-4.72312e-06
5.37335e-07
1.72636e-06
-4.58728e-06
5.43115e-07
2.11556e-06
-4.28302e-06
5.25822e-07
2.39834e-06
-3.8197e-06
5.33833e-07
2.59354e-06
-3.33315e-06
5.1332e-07
2.6557e-06
-2.74388e-06
5.27683e-07
2.62459e-06
-2.19905e-06
5.04731e-07
2.45965e-06
-1.60452e-06
5.21999e-07
2.21421e-06
-1.11087e-06
4.99932e-07
1.85943e-06
-6.27689e-07
5.16169e-07
1.44976e-06
-2.7359e-07
4.99496e-07
9.78212e-07
8.89615e-09
5.09301e-07
4.81807e-07
1.71975e-07
5.01052e-07
-1.84443e-08
2.08986e-07
4.9784e-07
-5.08235e-07
1.55617e-07
5.02604e-07
-9.43154e-07
-5.61169e-08
4.92141e-07
-1.33634e-06
-3.10184e-07
5.06079e-07
-1.62894e-06
-7.24777e-07
4.87593e-07
-1.85173e-06
-1.12587e-06
5.07415e-07
-1.94958e-06
-1.6544e-06
4.88118e-07
-1.96584e-06
-2.11264e-06
5.09201e-07
-1.85894e-06
-2.63887e-06
4.93182e-07
-1.67621e-06
-3.04748e-06
5.11584e-07
-1.39527e-06
-3.45859e-06
5.0131e-07
-1.06166e-06
-3.71291e-06
5.13588e-07
-6.7734e-07
-3.85784e-06
4.9994e-07
-2.88836e-07
-3.61985e-06
4.5068e-07
-2.40487e-06
2.71742e-07
4.18063e-07
-3.61295e-06
4.13167e-07
1.0232e-06
-5.62877e-06
6.47022e-07
1.64662e-06
-6.0462e-06
6.99653e-07
2.20546e-06
-5.8571e-06
7.10986e-07
2.68473e-06
-5.4629e-06
7.00604e-07
3.02795e-06
-4.88419e-06
7.21264e-07
3.25827e-06
-4.27279e-06
7.09314e-07
3.32318e-06
-3.54998e-06
7.4119e-07
3.26956e-06
-2.872e-06
7.26566e-07
3.051e-06
-2.14909e-06
7.63132e-07
2.73102e-06
-1.53863e-06
7.47731e-07
2.27695e-06
-9.54337e-07
7.80719e-07
1.75385e-06
-5.17973e-07
7.67484e-07
1.15177e-06
-1.74024e-07
7.85e-07
5.21565e-07
2.43309e-08
7.77851e-07
-1.11184e-07
6.77692e-08
7.73966e-07
-7.31387e-07
-5.29285e-10
7.7635e-07
-1.28293e-06
-2.60873e-07
7.56304e-07
-1.77747e-06
-5.81969e-07
7.66324e-07
-2.14561e-06
-1.08748e-06
7.30843e-07
-2.42384e-06
-1.59094e-06
7.433e-07
-2.54617e-06
-2.23646e-06
7.04383e-07
-2.56321e-06
-2.81257e-06
7.16968e-07
-2.42633e-06
-3.45842e-06
6.82668e-07
-2.1902e-06
-3.97642e-06
6.92816e-07
-1.82911e-06
-4.48799e-06
6.68311e-07
-1.39548e-06
-4.82071e-06
6.7417e-07
-8.93523e-07
-5.01126e-06
6.51462e-07
-3.8266e-07
-4.71976e-06
5.89053e-07
-3.15022e-06
3.62688e-07
5.24145e-07
-4.65441e-06
5.17314e-07
1.27844e-06
-7.19215e-06
8.09081e-07
2.04057e-06
-7.6841e-06
8.75788e-07
2.7145e-06
-7.42489e-06
8.93852e-07
3.27844e-06
-6.91408e-06
8.87238e-07
3.6746e-06
-6.19512e-06
9.14779e-07
3.92707e-06
-5.43031e-06
9.05052e-07
3.98258e-06
-4.54682e-06
9.41336e-07
3.8934e-06
-3.70758e-06
9.24761e-07
3.6136e-06
-2.83078e-06
9.61486e-07
3.2153e-06
-2.08017e-06
9.3984e-07
2.66621e-06
-1.37508e-06
9.69829e-07
2.03883e-06
-8.40836e-07
9.50247e-07
1.32493e-06
-4.25833e-07
9.65706e-07
5.7658e-07
-1.8516e-07
9.57844e-07
-1.75301e-07
-1.32031e-07
9.51681e-07
-9.11762e-07
-2.25332e-07
9.61264e-07
-1.57146e-06
-5.41127e-07
9.39952e-07
-2.16647e-06
-9.45535e-07
9.58576e-07
-2.61582e-06
-1.56052e-06
9.22386e-07
-2.95831e-06
-2.19013e-06
9.41672e-07
-3.11854e-06
-2.97571e-06
8.99488e-07
-3.14914e-06
-3.6959e-06
9.13922e-07
-2.99555e-06
-4.4853e-06
8.73292e-07
-2.71557e-06
-5.13702e-06
8.80623e-07
-2.28117e-06
-5.77055e-06
8.4817e-07
-1.74826e-06
-6.20247e-06
8.48852e-07
-1.12386e-06
-6.45423e-06
8.18572e-07
-4.81425e-07
-6.10249e-06
7.40287e-07
-4.09113e-06
4.5949e-07
6.92135e-07
-6.02871e-06
6.82166e-07
1.6596e-06
-9.21849e-06
1.05887e-06
2.61962e-06
-9.79868e-06
1.15456e-06
3.45564e-06
-9.4563e-06
1.19539e-06
4.14516e-06
-8.81486e-06
1.21126e-06
4.6239e-06
-7.94434e-06
1.27047e-06
4.91892e-06
-7.01338e-06
1.28805e-06
4.97049e-06
-5.9613e-06
1.36291e-06
4.83863e-06
-4.95083e-06
1.37512e-06
4.47372e-06
-3.91678e-06
1.45091e-06
3.96132e-06
-3.02076e-06
1.45299e-06
3.26615e-06
-2.19449e-06
1.51458e-06
2.47423e-06
-1.55893e-06
1.51002e-06
1.57512e-06
-1.07031e-06
1.54358e-06
6.32448e-07
-7.82963e-07
1.54048e-06
-3.1496e-07
-7.19303e-07
1.53468e-06
-1.24199e-06
-8.37871e-07
1.53957e-06
-2.07141e-06
-1.21268e-06
1.50097e-06
-2.81552e-06
-1.70487e-06
1.50345e-06
-3.37954e-06
-2.4298e-06
1.43329e-06
-3.80684e-06
-3.18985e-06
1.42703e-06
-4.00899e-06
-4.11692e-06
1.34336e-06
-4.04495e-06
-4.98782e-06
1.32788e-06
-3.85262e-06
-5.92447e-06
1.24684e-06
-3.49789e-06
-6.7182e-06
1.22644e-06
-2.95027e-06
-7.47913e-06
1.16095e-06
-2.27194e-06
-8.01943e-06
1.13862e-06
-1.47106e-06
-8.33851e-06
1.08341e-06
-6.36081e-07
-7.91276e-06
9.75289e-07
-5.33982e-06
6.12603e-07
8.91305e-07
-7.79753e-06
8.77522e-07
2.10269e-06
-1.17915e-05
1.36164e-06
3.27686e-06
-1.24693e-05
1.49645e-06
4.28411e-06
-1.20298e-05
1.56626e-06
5.0984e-06
-1.12392e-05
1.61008e-06
5.65425e-06
-1.02018e-05
1.70159e-06
5.97652e-06
-9.08622e-06
1.75058e-06
6.00544e-06
-7.84979e-06
1.85958e-06
5.80794e-06
-6.65399e-06
1.90065e-06
5.34038e-06
-5.45194e-06
2.00272e-06
4.70072e-06
-4.40229e-06
2.0212e-06
3.85771e-06
-3.44851e-06
2.09702e-06
2.9049e-06
-2.70613e-06
2.10002e-06
1.8305e-06
-2.1379e-06
2.142e-06
7.00734e-07
-1.79942e-06
2.14622e-06
-4.37001e-07
-1.72356e-06
2.14199e-06
-1.55013e-06
-1.87419e-06
2.14945e-06
-2.54914e-06
-2.315e-06
2.10134e-06
-3.44721e-06
-2.90443e-06
2.09763e-06
-4.13866e-06
-3.74496e-06
2.00661e-06
-4.6666e-06
-4.6427e-06
1.98078e-06
-4.93091e-06
-5.71688e-06
1.86427e-06
-4.98836e-06
-6.74699e-06
1.81663e-06
-4.77027e-06
-7.83999e-06
1.69743e-06
-4.34526e-06
-8.78696e-06
1.64375e-06
-3.68518e-06
-9.68355e-06
1.54434e-06
-2.85558e-06
-1.03418e-05
1.49282e-06
-1.86615e-06
-1.0735e-05
1.4071e-06
-8.16341e-07
-1.02212e-05
1.25865e-06
-6.9499e-06
7.93739e-07
1.17308e-06
-1.01237e-05
1.15305e-06
2.69695e-06
-1.5102e-05
1.78664e-06
4.13827e-06
-1.58917e-05
1.98108e-06
5.36262e-06
-1.53591e-05
2.10496e-06
6.34274e-06
-1.44214e-05
2.20207e-06
7.00486e-06
-1.32254e-05
2.3615e-06
7.36985e-06
-1.19315e-05
2.48025e-06
7.37362e-06
-1.05266e-05
2.67303e-06
7.09591e-06
-9.16597e-06
2.78969e-06
6.49672e-06
-7.82387e-06
2.97112e-06
5.69209e-06
-6.64834e-06
3.05068e-06
4.65154e-06
-5.5952e-06
3.18724e-06
3.4794e-06
-4.76744e-06
3.23346e-06
2.15887e-06
-4.13195e-06
3.31458e-06
7.63667e-07
-3.7452e-06
3.34098e-06
-6.44745e-07
-3.65743e-06
3.34228e-06
-2.01751e-06
-3.84052e-06
3.33909e-06
-3.24653e-06
-4.34006e-06
3.25408e-06
-4.34568e-06
-5.01116e-06
3.20588e-06
-5.19714e-06
-5.93911e-06
3.04561e-06
-5.84741e-06
-6.94295e-06
2.95053e-06
-6.18086e-06
-8.12809e-06
2.74465e-06
-6.25526e-06
-9.28744e-06
2.61486e-06
-5.98988e-06
-1.05109e-05
2.40556e-06
-5.46103e-06
-1.15952e-05
2.27943e-06
-4.64488e-06
-1.26098e-05
2.11008e-06
-3.61775e-06
-1.33735e-05
2.00457e-06
-2.39259e-06
-1.38242e-05
1.86397e-06
-1.06772e-06
-1.32019e-05
1.65578e-06
-9.06668e-06
1.04906e-06
1.51716e-06
-1.31298e-05
1.48895e-06
3.38131e-06
-1.92646e-05
2.29838e-06
5.09495e-06
-2.01658e-05
2.56042e-06
6.54068e-06
-1.95503e-05
2.7455e-06
7.67948e-06
-1.84641e-05
2.90384e-06
8.42911e-06
-1.71094e-05
3.13441e-06
8.80109e-06
-1.5633e-05
3.32958e-06
8.73975e-06
-1.4066e-05
3.60072e-06
8.34244e-06
-1.25573e-05
3.78865e-06
7.58597e-06
-1.10964e-05
4.02902e-06
6.60409e-06
-9.8202e-06
4.15376e-06
5.37321e-06
-8.68987e-06
4.32555e-06
4.00037e-06
-7.79564e-06
4.40104e-06
2.45786e-06
-7.09924e-06
4.50979e-06
8.1603e-07
-6.66413e-06
4.56077e-06
-8.46433e-07
-6.56694e-06
4.57198e-06
-2.45972e-06
-6.79046e-06
4.56323e-06
-3.90189e-06
-7.35188e-06
4.45399e-06
-5.19217e-06
-8.09526e-06
4.37439e-06
-6.20905e-06
-9.0878e-06
4.16556e-06
-6.99864e-06
-1.01651e-05
4.01179e-06
-7.43131e-06
-1.14263e-05
3.73085e-06
-7.55362e-06
-1.26819e-05
3.51677e-06
-7.26751e-06
-1.40156e-05
3.21852e-06
-6.64513e-06
-1.5227e-05
3.00936e-06
-5.67226e-06
-1.63485e-05
2.76589e-06
-4.44115e-06
-1.72036e-05
2.59896e-06
-2.97947e-06
-1.76847e-05
2.39889e-06
-1.36499e-06
-1.69418e-05
2.12549e-06
-1.17873e-05
1.35565e-06
1.925e-06
-1.69391e-05
1.88433e-06
4.13311e-06
-2.43428e-05
2.87018e-06
6.09814e-06
-2.53234e-05
3.19262e-06
7.74622e-06
-2.46464e-05
3.44801e-06
9.01372e-06
-2.34041e-05
3.67249e-06
9.80648e-06
-2.18847e-05
3.98254e-06
1.01365e-05
-2.02148e-05
4.25176e-06
9.96532e-06
-1.84952e-05
4.6004e-06
9.42106e-06
-1.68597e-05
4.84668e-06
8.49545e-06
-1.53097e-05
5.13895e-06
7.34392e-06
-1.39652e-05
5.29654e-06
5.94208e-06
-1.27889e-05
5.50084e-06
4.39915e-06
-1.18551e-05
5.60238e-06
2.66831e-06
-1.11089e-05
5.74048e-06
8.16648e-07
-1.06278e-05
5.81533e-06
-1.05973e-06
-1.05269e-05
5.83635e-06
-2.87254e-06
-1.07998e-05
5.82221e-06
-4.48784e-06
-1.14212e-05
5.68464e-06
-5.93747e-06
-1.22207e-05
5.57511e-06
-7.09946e-06
-1.32424e-05
5.31663e-06
-8.02814e-06
-1.43485e-05
5.11205e-06
-8.57458e-06
-1.56372e-05
4.75734e-06
-8.77701e-06
-1.6947e-05
4.46751e-06
-8.50645e-06
-1.83618e-05
4.07568e-06
-7.82037e-06
-1.96951e-05
3.782e-06
-6.70541e-06
-2.0917e-05
3.45349e-06
-5.27556e-06
-2.18544e-05
3.22099e-06
-3.59405e-06
-2.23224e-05
2.95612e-06
-1.69941e-06
-2.14669e-05
2.6305e-06
-1.51927e-05
1.70594e-06
2.30634e-06
-2.14952e-05
2.24979e-06
4.76146e-06
-3.01182e-05
3.32028e-06
6.86041e-06
-3.10882e-05
3.66584e-06
8.58008e-06
-3.03391e-05
3.97303e-06
9.82367e-06
-2.88848e-05
4.2372e-06
1.05054e-05
-2.71416e-05
4.57518e-06
1.06641e-05
-2.52234e-05
4.85002e-06
1.03022e-05
-2.33153e-05
5.18206e-06
9.58389e-06
-2.15326e-05
5.39132e-06
8.5199e-06
-1.98793e-05
5.63358e-06
7.27774e-06
-1.84631e-05
5.74009e-06
5.83158e-06
-1.72408e-05
5.89821e-06
4.28162e-06
-1.62749e-05
5.96986e-06
2.55667e-06
-1.54785e-05
6.09462e-06
7.14432e-07
-1.49585e-05
6.17307e-06
-1.14382e-06
-1.48688e-05
6.20023e-06
-2.935e-06
-1.52015e-05
6.19292e-06
-4.53444e-06
-1.58844e-05
6.06274e-06
-5.99493e-06
-1.67349e-05
5.97469e-06
-7.20717e-06
-1.7773e-05
5.74285e-06
-8.23225e-06
-1.88919e-05
5.5685e-06
-8.90902e-06
-2.01992e-05
5.23885e-06
-9.25994e-06
-2.15591e-05
4.96312e-06
-9.11642e-06
-2.30715e-05
4.56624e-06
-8.4992e-06
-2.45621e-05
4.24987e-06
-7.36764e-06
-2.59316e-05
3.88309e-06
-5.84336e-06
-2.69889e-05
3.61015e-06
-4.04139e-06
-2.74281e-05
3.30377e-06
-1.97082e-06
-2.65099e-05
2.97239e-06
-1.91627e-05
1.99919e-06
2.43061e-06
-2.6281e-05
2.35525e-06
4.83969e-06
-3.5832e-05
3.30473e-06
6.78367e-06
-3.66485e-05
3.61644e-06
8.26245e-06
-3.57645e-05
3.94671e-06
9.17776e-06
-3.39952e-05
4.1952e-06
9.5007e-06
-3.19426e-05
4.47814e-06
9.34423e-06
-2.97135e-05
4.64663e-06
8.7574e-06
-2.75776e-05
4.84924e-06
7.93605e-06
-2.56174e-05
4.90622e-06
6.8853e-06
-2.3845e-05
5.0166e-06
5.76834e-06
-2.23489e-05
5.00298e-06
4.53546e-06
-2.10854e-05
5.07755e-06
3.27357e-06
-2.00989e-05
5.08602e-06
1.88985e-06
-1.92682e-05
5.1736e-06
4.44436e-07
-1.87478e-05
5.2348e-06
-9.82444e-07
-1.86969e-05
5.25513e-06
-2.36388e-06
-1.90804e-05
5.26049e-06
-3.60759e-06
-1.97872e-05
5.14659e-06
-4.79455e-06
-2.06598e-05
5.11206e-06
-5.82801e-06
-2.16833e-05
4.94391e-06
-6.79517e-06
-2.27983e-05
4.87374e-06
-7.52673e-06
-2.41185e-05
4.65098e-06
-8.05068e-06
-2.55397e-05
4.50462e-06
-8.1576e-06
-2.71744e-05
4.20993e-06
-7.82822e-06
-2.88681e-05
3.97676e-06
-6.94408e-06
-3.04603e-05
3.6447e-06
-5.59001e-06
-3.17228e-05
3.37995e-06
-3.90767e-06
-3.21705e-05
3.06016e-06
-1.93968e-06
-3.12656e-05
2.78784e-06
-2.3094e-05
1.9917e-06
1.97728e-06
-3.01474e-05
1.88919e-06
3.82767e-06
-4.01009e-05
2.41872e-06
5.1715e-06
-4.06508e-05
2.65876e-06
5.9656e-06
-3.95394e-05
2.98107e-06
6.19157e-06
-3.73784e-05
3.15745e-06
5.93087e-06
-3.49761e-05
3.29454e-06
5.41174e-06
-3.24553e-05
3.26118e-06
4.71169e-06
-3.01183e-05
3.24106e-06
4.0166e-06
-2.80117e-05
3.0897e-06
3.28957e-06
-2.61565e-05
3.03885e-06
2.63775e-06
-2.461e-05
2.91311e-06
1.96676e-06
-2.33326e-05
2.91844e-06
1.3312e-06
-2.23459e-05
2.88284e-06
6.3866e-07
-2.15117e-05
2.93623e-06
-2.03297e-08
-2.10613e-05
2.97278e-06
-6.04139e-07
-2.10808e-05
2.96795e-06
-1.17334e-06
-2.148e-05
2.96903e-06
-1.68719e-06
-2.21233e-05
2.85017e-06
-2.24539e-06
-2.29492e-05
2.84785e-06
-2.768e-06
-2.38986e-05
2.7382e-06
-3.38291e-06
-2.49605e-05
2.77737e-06
-3.94834e-06
-2.62546e-05
2.70183e-06
-4.52758e-06
-2.77057e-05
2.7455e-06
-4.9087e-06
-2.94387e-05
2.64564e-06
-5.04801e-06
-3.13146e-05
2.586e-06
-4.71642e-06
-3.31628e-05
2.37115e-06
-3.90651e-06
-3.46958e-05
2.16335e-06
-2.70708e-06
-3.52284e-05
1.85871e-06
-1.3102e-06
-3.43484e-05
1.68608e-06
-2.57774e-05
1.37331e-06
5.5414e-07
-3.11716e-05
4.70391e-07
1.02931e-06
-4.08587e-05
2.83079e-07
1.15572e-06
-4.1209e-05
4.32223e-07
7.69108e-07
-3.9862e-05
7.09674e-07
4.38184e-08
-3.7406e-05
7.53435e-07
-8.26384e-07
-3.47935e-05
6.88055e-07
-1.51332e-06
-3.2184e-05
4.16132e-07
-1.98056e-06
-2.98195e-05
1.68905e-07
-2.12126e-06
-2.77212e-05
-1.49435e-07
-2.0759e-06
-2.59151e-05
-2.86438e-07
-1.8428e-06
-2.44085e-05
-4.34234e-07
-1.58749e-06
-2.31737e-05
-4.13811e-07
-1.29797e-06
-2.22029e-05
-4.32211e-07
-1.03742e-06
-2.13828e-05
-3.89093e-07
-6.49588e-07
-2.10647e-05
-3.84134e-07
-1.2486e-07
-2.115e-05
-4.55235e-07
3.92628e-07
-2.15078e-05
-4.89405e-07
9.04212e-07
-2.19688e-05
-6.65749e-07
1.309e-06
-2.26588e-05
-6.94803e-07
1.68524e-06
-2.34583e-05
-8.16193e-07
1.83759e-06
-2.43861e-05
-7.26421e-07
1.84207e-06
-2.5559e-05
-6.99678e-07
1.54301e-06
-2.69271e-05
-4.79062e-07
1.09288e-06
-2.86233e-05
-3.64805e-07
4.98573e-07
-3.05155e-05
-2.04297e-07
7.97542e-08
-3.24981e-05
-2.45463e-07
-6.97933e-08
-3.4202e-05
-3.43775e-07
1.21049e-07
-3.48156e-05
-6.03236e-07
2.23436e-07
-3.37812e-05
-6.6922e-07
-2.53682e-05
-1.85473e-07
-1.81021e-06
-2.75084e-05
-1.85238e-06
-3.45864e-06
-3.62444e-05
-2.96506e-06
-4.983e-06
-3.68072e-05
-2.87663e-06
-6.6922e-06
-3.55152e-05
-2.63685e-06
-8.20277e-06
-3.32209e-05
-2.6739e-06
-9.32273e-06
-3.08149e-05
-2.85795e-06
-9.73528e-06
-2.8546e-05
-3.22486e-06
-9.50438e-06
-2.65108e-05
-3.53911e-06
-8.67195e-06
-2.47251e-05
-3.82798e-06
-7.50938e-06
-2.32e-05
-3.87712e-06
-6.15573e-06
-2.18842e-05
-3.87743e-06
-4.85226e-06
-2.07564e-05
-3.72037e-06
-3.65076e-06
-1.97723e-05
-3.63169e-06
-2.56669e-06
-1.89104e-05
-3.55609e-06
-1.36162e-06
-1.86783e-05
-3.59112e-06
-9.32055e-09
-1.87182e-05
-3.78372e-06
1.37815e-06
-1.89831e-05
-3.9118e-06
2.8152e-06
-1.92019e-05
-4.20353e-06
4.21809e-06
-1.97056e-05
-4.35575e-06
5.67233e-06
-2.0323e-05
-4.58916e-06
6.90759e-06
-2.10326e-05
-4.58826e-06
7.88903e-06
-2.19509e-05
-4.58914e-06
8.33536e-06
-2.30285e-05
-4.34442e-06
8.26246e-06
-2.44181e-05
-4.1318e-06
7.58693e-06
-2.59824e-05
-3.85704e-06
6.6056e-06
-2.77417e-05
-3.77447e-06
5.39641e-06
-2.9215e-05
-3.77716e-06
4.20321e-06
-2.96394e-05
-3.98238e-06
2.41652e-06
-2.80284e-05
-3.96552e-06
-2.0467e-05
-2.48421e-06
-4.51483e-06
-1.8531e-05
-4.46188e-06
-8.52785e-06
-2.58054e-05
-6.42512e-06
-1.17473e-05
-2.71839e-05
-6.40298e-06
-1.45786e-05
-2.64683e-05
-6.21467e-06
-1.64749e-05
-2.50744e-05
-6.2494e-06
-1.7384e-05
-2.34875e-05
-6.41761e-06
-1.71464e-05
-2.2068e-05
-6.71489e-06
-1.59595e-05
-2.07719e-05
-6.92513e-06
-1.40248e-05
-1.96145e-05
-7.04482e-06
-1.17241e-05
-1.86065e-05
-6.8937e-06
-9.30071e-06
-1.76232e-05
-6.68403e-06
-7.05166e-06
-1.66533e-05
-6.35173e-06
-5.11169e-06
-1.55657e-05
-6.14615e-06
-3.47806e-06
-1.45068e-05
-6.03681e-06
-1.93578e-06
-1.40788e-05
-6.14146e-06
-3.88178e-07
-1.37789e-05
-6.48658e-06
1.3042e-06
-1.39664e-05
-6.70869e-06
3.28765e-06
-1.41041e-05
-7.08089e-06
5.459e-06
-1.45262e-05
-7.35037e-06
7.88773e-06
-1.50314e-05
-7.71984e-06
1.02259e-05
-1.55178e-05
-7.85262e-06
1.23238e-05
-1.60841e-05
-7.96413e-06
1.3773e-05
-1.66849e-05
-7.79232e-06
1.44292e-05
-1.7478e-05
-7.5957e-06
1.40718e-05
-1.83251e-05
-7.29937e-06
1.28277e-05
-1.93611e-05
-7.13578e-06
1.06671e-05
-2.00166e-05
-7.03716e-06
8.00869e-06
-1.98844e-05
-7.0958e-06
4.33067e-06
-1.74186e-05
-6.93108e-06
-1.15522e-05
-4.58362e-06
-5.07689e-06
-8.56033e-06
-4.89334e-06
-1.03862e-05
-1.33046e-05
-7.19079e-06
-1.46542e-05
-1.55174e-05
-7.3977e-06
-1.79327e-05
-1.57181e-05
-7.471e-06
-1.97243e-05
-1.57527e-05
-7.52939e-06
-2.01187e-05
-1.54506e-05
-7.64187e-06
-1.92213e-05
-1.51884e-05
-7.77645e-06
-1.73373e-05
-1.48686e-05
-7.7868e-06
-1.47731e-05
-1.45211e-05
-7.65706e-06
-1.19322e-05
-1.41935e-05
-7.25336e-06
-9.07877e-06
-1.36833e-05
-6.79288e-06
-6.51133e-06
-1.29715e-05
-6.24882e-06
-4.43965e-06
-1.17556e-05
-5.88143e-06
-2.95009e-06
-1.03207e-05
-5.6753e-06
-2.15165e-06
-9.0577e-06
-5.8192e-06
-1.76482e-06
-7.94066e-06
-6.22475e-06
-9.942e-07
-8.2169e-06
-6.51983e-06
6.36451e-07
-8.84715e-06
-6.88727e-06
2.86555e-06
-9.50524e-06
-7.24969e-06
5.62909e-06
-1.00332e-05
-7.76139e-06
8.52822e-06
-1.03398e-05
-8.07668e-06
1.13048e-05
-1.05059e-05
-8.35433e-06
1.34962e-05
-1.05598e-05
-8.31611e-06
1.48189e-05
-1.06274e-05
-8.17281e-06
1.49369e-05
-1.05946e-05
-7.84808e-06
1.37093e-05
-1.06169e-05
-7.51614e-06
1.11005e-05
-1.02198e-05
-7.18745e-06
7.60532e-06
-9.61677e-06
-6.77204e-06
3.45444e-06
-7.04184e-06
-6.22552e-06
-4.26529e-06
-3.8323e-06
-1.49575e-06
-5.8319e-06
-1.23245e-06
-5.86622e-06
-6.19366e-06
-2.74014e-06
-1.02193e-05
-7.67741e-06
-3.48653e-06
-1.3234e-05
-8.30411e-06
-4.39894e-06
-1.48114e-05
-9.1007e-06
-5.07419e-06
-1.50242e-05
-9.58479e-06
-5.65249e-06
-1.41503e-05
-1.00023e-05
-6.05958e-06
-1.24955e-05
-1.03142e-05
-6.20875e-06
-1.03923e-05
-1.05382e-05
-6.08554e-06
-8.1866e-06
-1.07669e-05
-5.63189e-06
-6.07927e-06
-1.07511e-05
-5.03902e-06
-4.24665e-06
-1.0449e-05
-4.35461e-06
-2.80195e-06
-9.3976e-06
-3.80226e-06
-2.02049e-06
-7.70467e-06
-3.3972e-06
-2.52378e-06
-5.25931e-06
-3.29486e-06
-3.62708e-06
-3.56996e-06
-3.26723e-06
-4.16945e-06
-4.1071e-06
-3.56723e-06
-3.50394e-06
-5.55391e-06
-3.95851e-06
-1.99498e-06
-6.58267e-06
-4.43125e-06
7.96577e-08
-7.06653e-06
-5.04103e-06
2.39808e-06
-7.20009e-06
-5.45788e-06
4.71062e-06
-7.05604e-06
-5.76214e-06
6.64785e-06
-6.83976e-06
-5.65701e-06
7.89791e-06
-6.57118e-06
-5.30604e-06
8.14885e-06
-6.25452e-06
-4.59077e-06
7.12972e-06
-5.90576e-06
-3.69174e-06
4.89327e-06
-5.32042e-06
-2.66273e-06
1.65702e-06
-4.9545e-06
-1.42583e-06
-8.10634e-07
-4.10819e-06
-4.65825e-07
-5.5991e-06
5.23369e-07
3.58338e-06
-1.32516e-05
3.83661e-06
2.53848e-06
-9.54111e-06
4.39259e-06
-1.66537e-07
-8.44472e-06
3.47256e-06
-1.98148e-06
-8.31183e-06
1.82291e-06
-2.95104e-06
-8.42046e-06
2.89575e-07
-2.98084e-06
-8.55664e-06
-9.98085e-07
-2.33784e-06
-8.72145e-06
-1.92357e-06
-1.2749e-06
-8.98687e-06
-2.38992e-06
-1.99597e-07
-9.23897e-06
-2.37419e-06
4.88523e-07
-9.57274e-06
-1.88191e-06
5.63346e-07
-9.80112e-06
-1.02446e-06
4.78396e-10
-9.94711e-06
6.13105e-08
-9.77395e-07
-9.64542e-06
1.22604e-06
-2.44266e-06
-8.65177e-06
2.41269e-06
-4.34759e-06
-6.90273e-06
3.54863e-06
-5.31715e-06
-7.26644e-06
4.66629e-06
-6.12712e-06
-7.50548e-06
4.20861e-06
-6.96075e-06
-7.83152e-06
3.11151e-06
-7.29119e-06
-8.21413e-06
1.96218e-06
-7.1201e-06
-8.05911e-06
8.21765e-07
-6.49652e-06
-7.8333e-06
9.90945e-09
-5.53259e-06
-7.50619e-06
-5.13543e-07
-4.46404e-06
-7.39354e-06
-5.14529e-07
-3.58942e-06
-7.35495e-06
-9.06182e-08
-3.15826e-06
-7.5486e-06
8.63141e-07
-3.41643e-06
-7.78931e-06
2.14193e-06
-4.25832e-06
-8.16011e-06
3.68179e-06
-5.62303e-06
-8.79329e-06
5.20371e-06
-4.95391e-06
-1.07361e-05
5.959e-06
-1.53782e-05
4.82553e-06
5.21209e-06
-2.38895e-05
5.42611e-06
6.73701e-06
-1.84327e-05
7.36696e-06
6.01901e-06
-1.46536e-05
6.92717e-06
5.34891e-06
-1.3131e-05
5.48949e-06
5.01531e-06
-1.19594e-05
3.87283e-06
5.35178e-06
-1.12704e-05
2.37747e-06
6.24659e-06
-1.07819e-05
1.16589e-06
7.48611e-06
-1.06172e-05
3.91089e-07
8.50691e-06
-1.04976e-05
2.3813e-07
8.63397e-06
-1.0477e-05
7.77493e-07
7.31697e-06
-1.04959e-05
2.01207e-06
4.46886e-06
-1.07105e-05
3.61172e-06
5.72599e-07
-1.11934e-05
5.4445e-06
-3.51147e-06
-1.18684e-05
7.30094e-06
-5.76388e-06
-1.38842e-05
9.23416e-06
-4.47773e-06
-1.95016e-05
1.09493e-05
-3.80204e-06
-1.87024e-05
1.05215e-05
-5.70164e-06
-1.48596e-05
8.92794e-06
-8.05593e-06
-1.31336e-05
7.274e-06
-9.83544e-06
-1.19259e-05
5.64654e-06
-1.07157e-05
-1.13268e-05
4.37395e-06
-1.0725e-05
-1.09652e-05
3.4686e-06
-1.01815e-05
-1.10933e-05
3.15654e-06
-9.45007e-06
-1.14218e-05
3.3356e-06
-8.82173e-06
-1.22162e-05
4.03953e-06
-8.48638e-06
-1.31668e-05
5.04238e-06
-8.25394e-06
-1.46524e-05
6.26013e-06
-7.89436e-06
-1.64417e-05
7.28909e-06
-5.45776e-06
-2.0637e-05
7.46459e-06
-2.62426e-05
5.40692e-06
3.4512e-06
-3.101e-05
3.66958e-06
5.01214e-06
-2.54124e-05
5.41897e-06
5.00631e-06
-2.02735e-05
5.62596e-06
4.79471e-06
-1.80084e-05
5.08922e-06
4.93335e-06
-1.61782e-05
4.0803e-06
5.93144e-06
-1.50371e-05
2.76886e-06
7.84973e-06
-1.40834e-05
1.38337e-06
1.04407e-05
-1.35341e-05
3.26162e-07
1.29515e-05
-1.31596e-05
1.51274e-07
1.43687e-05
-1.29924e-05