/*--------------------------------*- C++ -*----------------------------------*\
| =========                 |                                                 |
| \\      /  F ield         | OpenFOAM: The Open Source CFD Toolbox           |
|  \\    /   O peration     | Version:  v1912                                 |
|   \\  /    A nd           | Website:  www.openfoam.com                      |
|    \\/     M anipulation  |                                                 |
\*---------------------------------------------------------------------------*/
FoamFile
{
    version     2.0;
    format      ascii;
    class       volVectorField;
    location    "428/oil";
    object      U;
}
// * * * * * * * * * * * * * * * * * * * * * * * * * * * * * * * * * * * * * //

dimensions      [0 1 -1 0 0 0 0];


internalField   nonuniform List<vector> 
35580
(
(-1.23492e-09 2.45801e-09 -1.25942e-09)
(1.25785e-09 2.23464e-09 -3.02426e-09)
(1.15974e-08 2.20416e-09 -4.86418e-09)
(2.7882e-08 2.75231e-09 -6.72716e-09)
(4.76815e-08 3.62746e-09 -8.22752e-09)
(6.82236e-08 4.65807e-09 -9.23762e-09)
(8.69439e-08 5.74592e-09 -9.74763e-09)
(1.01616e-07 6.84478e-09 -9.81485e-09)
(1.1042e-07 7.9263e-09 -9.52602e-09)
(1.12146e-07 8.96184e-09 -8.96263e-09)
(1.0613e-07 9.89729e-09 -8.19869e-09)
(9.24249e-08 1.06889e-08 -7.43609e-09)
(7.18611e-08 1.13092e-08 -6.72768e-09)
(4.57286e-08 1.17805e-08 -6.22258e-09)
(1.60401e-08 1.20399e-08 -5.95837e-09)
(-1.49457e-08 1.20712e-08 -5.96368e-09)
(-4.4724e-08 1.17999e-08 -6.22232e-09)
(-7.09116e-08 1.13205e-08 -6.71244e-09)
(-9.16033e-08 1.06611e-08 -7.39009e-09)
(-1.05437e-07 9.88451e-09 -8.16323e-09)
(-1.11669e-07 8.96459e-09 -8.91911e-09)
(-1.10114e-07 7.91652e-09 -9.50779e-09)
(-1.01414e-07 6.83432e-09 -9.79588e-09)
(-8.68388e-08 5.73838e-09 -9.73799e-09)
(-6.81893e-08 4.65023e-09 -9.23003e-09)
(-4.77042e-08 3.6228e-09 -8.22046e-09)
(-2.79393e-08 2.74808e-09 -6.71625e-09)
(-1.16627e-08 2.19362e-09 -4.84284e-09)
(-1.31401e-09 2.2122e-09 -2.99768e-09)
(1.20946e-09 2.41226e-09 -1.2399e-09)
(6.34014e-10 -2.30284e-09 6.19243e-10)
(1.27319e-08 -1.40879e-08 5.34204e-10)
(3.70967e-08 -2.3496e-08 -3.18884e-10)
(7.10447e-08 -2.86014e-08 -1.43426e-09)
(1.10547e-07 -3.02205e-08 -2.25726e-09)
(1.50863e-07 -2.92243e-08 -2.54116e-09)
(1.87235e-07 -2.63327e-08 -2.22858e-09)
(2.15379e-07 -2.20851e-08 -1.36213e-09)
(2.31742e-07 -1.69391e-08 -4.48374e-11)
(2.33827e-07 -1.13243e-08 1.57163e-09)
(2.20261e-07 -5.68946e-09 3.4636e-09)
(1.91074e-07 -5.21906e-10 5.23781e-09)
(1.48075e-07 3.74169e-09 6.79689e-09)
(9.40923e-08 6.85567e-09 7.91629e-09)
(3.29803e-08 8.5078e-09 8.50719e-09)
(-3.0772e-08 8.54286e-09 8.52636e-09)
(-9.20878e-08 6.82289e-09 7.94368e-09)
(-1.46166e-07 3.64715e-09 6.85869e-09)
(-1.8918e-07 -7.09629e-10 5.33916e-09)
(-2.18458e-07 -5.81911e-09 3.5665e-09)
(-2.32393e-07 -1.14459e-08 1.7062e-09)
(-2.30621e-07 -1.70515e-08 4.87984e-11)
(-2.14513e-07 -2.21615e-08 -1.27379e-09)
(-1.86653e-07 -2.63807e-08 -2.15885e-09)
(-1.50525e-07 -2.92718e-08 -2.4828e-09)
(-1.10409e-07 -3.02848e-08 -2.20482e-09)
(-7.10481e-08 -2.87003e-08 -1.3917e-09)
(-3.71523e-08 -2.3632e-08 -2.823e-10)
(-1.27657e-08 -1.42282e-08 5.54585e-10)
(-6.40572e-10 -2.42071e-09 6.09363e-10)
(2.48738e-09 -2.27181e-08 2.48439e-09)
(2.49902e-08 -6.01582e-08 4.40084e-09)
(6.11758e-08 -8.78929e-08 4.80533e-09)
(1.07711e-07 -1.05534e-07 4.74516e-09)
(1.597e-07 -1.14925e-07 4.83984e-09)
(2.11711e-07 -1.17847e-07 5.37502e-09)
(2.58032e-07 -1.15836e-07 6.45264e-09)
(2.93358e-07 -1.10141e-07 8.0634e-09)
(3.1323e-07 -1.01851e-07 1.01067e-08)
(3.14476e-07 -9.19711e-08 1.24025e-08)
(2.95269e-07 -8.15137e-08 1.49358e-08)
(2.55555e-07 -7.15679e-08 1.72823e-08)
(1.97708e-07 -6.3224e-08 1.92665e-08)
(1.25489e-07 -5.71806e-08 2.07014e-08)
(4.39538e-08 -5.39843e-08 2.14633e-08)
(-4.111e-08 -5.39975e-08 2.15137e-08)
(-1.22974e-07 -5.73396e-08 2.07401e-08)
(-1.95314e-07 -6.35678e-08 1.93245e-08)
(-2.53109e-07 -7.20374e-08 1.73403e-08)
(-2.93025e-07 -8.19159e-08 1.50358e-08)
(-3.12708e-07 -9.23347e-08 1.25283e-08)
(-3.11836e-07 -1.02122e-07 1.01891e-08)
(-2.92292e-07 -1.10328e-07 8.14215e-09)
(-2.57302e-07 -1.15965e-07 6.52459e-09)
(-2.11285e-07 -1.17962e-07 5.43981e-09)
(-1.59519e-07 -1.15067e-07 4.90362e-09)
(-1.07694e-07 -1.05735e-07 4.79933e-09)
(-6.12265e-08 -8.81575e-08 4.84246e-09)
(-2.50415e-08 -6.04094e-08 4.40593e-09)
(-2.50871e-09 -2.28747e-08 2.45987e-09)
(3.9768e-09 -5.63311e-08 3.96651e-09)
(3.52684e-08 -1.31318e-07 7.3518e-09)
(8.13452e-08 -1.84128e-07 8.61764e-09)
(1.37791e-07 -2.19197e-07 9.26467e-09)
(1.98954e-07 -2.40234e-07 1.0019e-08)
(2.59008e-07 -2.50128e-07 1.11607e-08)
(3.11788e-07 -2.51317e-07 1.2801e-08)
(3.51501e-07 -2.45832e-07 1.49412e-08)
(3.73188e-07 -2.35497e-07 1.74889e-08)
(3.73249e-07 -2.22012e-07 2.02584e-08)
(3.49536e-07 -2.07093e-07 2.31859e-08)
(3.02005e-07 -1.92383e-07 2.59026e-08)
(2.33412e-07 -1.7974e-07 2.82179e-08)
(1.47982e-07 -1.70446e-07 2.98524e-08)
(5.17864e-08 -1.6555e-07 3.07079e-08)
(-4.85731e-08 -1.65623e-07 3.07721e-08)
(-1.45197e-07 -1.70654e-07 2.98699e-08)
(-2.30687e-07 -1.80086e-07 2.82301e-08)
(-2.99233e-07 -1.92759e-07 2.59295e-08)
(-3.46989e-07 -2.07412e-07 2.32527e-08)
(-3.71153e-07 -2.223e-07 2.03185e-08)
(-3.71493e-07 -2.35706e-07 1.75225e-08)
(-3.50191e-07 -2.45976e-07 1.49786e-08)
(-3.10852e-07 -2.51415e-07 1.28397e-08)
(-2.58415e-07 -2.50229e-07 1.12044e-08)
(-1.98668e-07 -2.40391e-07 1.00707e-08)
(-1.37725e-07 -2.19445e-07 9.3039e-09)
(-8.13778e-08 -1.84438e-07 8.62805e-09)
(-3.53338e-08 -1.31581e-07 7.32741e-09)
(-4.01278e-09 -5.65349e-08 3.92646e-09)
(5.03174e-09 -1.00323e-07 5.01968e-09)
(4.30283e-08 -2.2225e-07 9.39223e-09)
(9.68943e-08 -3.05242e-07 1.12029e-08)
(1.61097e-07 -3.61115e-07 1.2292e-08)
(2.29248e-07 -3.96453e-07 1.34561e-08)
(2.95231e-07 -4.15577e-07 1.50143e-08)
(3.52609e-07 -4.21921e-07 1.70613e-08)
(3.95339e-07 -4.18319e-07 1.96125e-08)
(4.18178e-07 -4.07333e-07 2.25727e-08)
(4.17267e-07 -3.91373e-07 2.57599e-08)
(3.90257e-07 -3.72856e-07 2.90244e-08)
(3.36994e-07 -3.53986e-07 3.2083e-08)
(2.60307e-07 -3.37348e-07 3.47163e-08)
(1.64919e-07 -3.24853e-07 3.65356e-08)
(5.7688e-08 -3.18292e-07 3.74869e-08)
(-5.41871e-08 -3.18398e-07 3.75648e-08)
(-1.61909e-07 -3.2502e-07 3.65589e-08)
(-2.57236e-07 -3.37472e-07 3.472e-08)
(-3.33922e-07 -3.54086e-07 3.21398e-08)
(-3.8747e-07 -3.72919e-07 2.90914e-08)
(-4.14954e-07 -3.91431e-07 2.58088e-08)
(-4.16316e-07 -4.07376e-07 2.26091e-08)
(-3.93894e-07 -4.18366e-07 1.96533e-08)
(-3.51556e-07 -4.21972e-07 1.7102e-08)
(-2.94529e-07 -4.15666e-07 1.50505e-08)
(-2.28865e-07 -3.96604e-07 1.34921e-08)
(-1.60972e-07 -3.61364e-07 1.2304e-08)
(-9.69117e-08 -3.05525e-07 1.1174e-08)
(-4.31153e-08 -2.22404e-07 9.31685e-09)
(-5.08915e-09 -1.00562e-07 4.95598e-09)
(5.70606e-09 -1.51694e-07 5.72019e-09)
(4.83435e-08 -3.27414e-07 1.07035e-08)
(1.0785e-07 -4.44399e-07 1.28213e-08)
(1.77727e-07 -5.23505e-07 1.41682e-08)
(2.50961e-07 -5.75009e-07 1.55853e-08)
(3.2123e-07 -6.05066e-07 1.74227e-08)
(3.81941e-07 -6.18217e-07 1.97795e-08)
(4.26899e-07 -6.18115e-07 2.2683e-08)
(4.50681e-07 -6.08032e-07 2.60275e-08)
(4.4922e-07 -5.91038e-07 2.96365e-08)
(4.20092e-07 -5.70214e-07 3.3279e-08)
(3.62928e-07 -5.48371e-07 3.67439e-08)
(2.80301e-07 -5.28543e-07 3.97227e-08)
(1.77536e-07 -5.133e-07 4.17722e-08)
(6.20609e-08 -5.05267e-07 4.28275e-08)
(-5.83642e-08 -5.05358e-07 4.29007e-08)
(-1.74384e-07 -5.13444e-07 4.178e-08)
(-2.76988e-07 -5.28452e-07 3.97217e-08)
(-3.59631e-07 -5.48319e-07 3.68347e-08)
(-4.17136e-07 -5.70145e-07 3.33655e-08)
(-4.46774e-07 -5.90972e-07 2.97042e-08)
(-4.48719e-07 -6.07985e-07 2.60857e-08)
(-4.25377e-07 -6.1811e-07 2.27396e-08)
(-3.80828e-07 -6.18247e-07 1.98413e-08)
(-3.20469e-07 -6.05148e-07 1.74695e-08)
(-2.50511e-07 -5.75141e-07 1.56222e-08)
(-1.77544e-07 -5.23701e-07 1.41647e-08)
(-1.07852e-07 -4.44585e-07 1.27581e-08)
(-4.84645e-08 -3.27413e-07 1.05818e-08)
(-5.79071e-09 -1.51957e-07 5.63459e-09)
(6.0915e-09 -2.07754e-07 6.11246e-09)
(5.14854e-08 -4.41899e-07 1.14266e-08)
(1.14441e-07 -5.95467e-07 1.37277e-08)
(1.878e-07 -6.99463e-07 1.52176e-08)
(2.64168e-07 -7.6852e-07 1.67929e-08)
(3.37092e-07 -8.10923e-07 1.88431e-08)
(3.99925e-07 -8.32454e-07 2.14603e-08)
(4.4641e-07 -8.37597e-07 2.46876e-08)
(4.7101e-07 -8.30279e-07 2.84057e-08)
(4.69502e-07 -8.14139e-07 3.24386e-08)
(4.39364e-07 -7.92805e-07 3.65e-08)
(3.79997e-07 -7.69679e-07 4.03807e-08)
(2.93632e-07 -7.48049e-07 4.37454e-08)
(1.85981e-07 -7.30821e-07 4.6046e-08)
(6.4968e-08 -7.21616e-07 4.71825e-08)
(-6.11328e-08 -7.21658e-07 4.72579e-08)
(-1.82752e-07 -7.31016e-07 4.60313e-08)
(-2.90216e-07 -7.47869e-07 4.37608e-08)
(-3.76589e-07 -7.69618e-07 4.05107e-08)
(-4.36324e-07 -7.9274e-07 3.66218e-08)
(-4.66997e-07 -8.1407e-07 3.25372e-08)
(-4.69012e-07 -8.30238e-07 2.84904e-08)
(-4.4486e-07 -8.37607e-07 2.47626e-08)
(-3.9879e-07 -8.325e-07 2.15365e-08)
(-3.36305e-07 -8.11003e-07 1.88951e-08)
(-2.63679e-07 -7.68616e-07 1.68324e-08)
(-1.87575e-07 -6.99558e-07 1.51967e-08)
(-1.14417e-07 -5.95445e-07 1.36242e-08)
(-5.1617e-08 -4.4165e-07 1.12744e-08)
(-6.18449e-09 -2.08085e-07 6.02137e-09)
(6.20836e-09 -2.66091e-07 6.25464e-09)
(5.2576e-08 -5.61101e-07 1.16849e-08)
(1.16749e-07 -7.52614e-07 1.4063e-08)
(1.91267e-07 -8.82453e-07 1.56301e-08)
(2.68611e-07 -9.70064e-07 1.72985e-08)
(3.42341e-07 -1.02608e-06 1.94989e-08)
(4.0588e-07 -1.0576e-06 2.23414e-08)
(4.5303e-07 -1.06994e-06 2.58624e-08)
(4.78228e-07 -1.06759e-06 2.9937e-08)
(4.77133e-07 -1.05465e-06 3.43925e-08)
(4.47103e-07 -1.03519e-06 3.89066e-08)
(3.8731e-07 -1.013e-06 4.31843e-08)
(2.99491e-07 -9.91389e-07 4.69571e-08)
(1.89577e-07 -9.73107e-07 4.95316e-08)
(6.61631e-08 -9.63327e-07 5.07835e-08)
(-6.23964e-08 -9.63537e-07 5.09079e-08)
(-1.8645e-07 -9.73629e-07 4.95376e-08)
(-2.96138e-07 -9.91349e-07 4.70167e-08)
(-3.83899e-07 -1.01305e-06 4.33204e-08)
(-4.44065e-07 -1.03523e-06 3.90204e-08)
(-4.74614e-07 -1.05466e-06 3.44884e-08)
(-4.76215e-07 -1.06761e-06 3.00208e-08)
(-4.51461e-07 -1.07002e-06 2.5935e-08)
(-4.04715e-07 -1.05772e-06 2.24185e-08)
(-3.41513e-07 -1.02622e-06 1.9553e-08)
(-2.68076e-07 -9.70175e-07 1.73192e-08)
(-1.90995e-07 -8.82465e-07 1.55706e-08)
(-1.16696e-07 -7.52354e-07 1.39294e-08)
(-5.27005e-08 -5.60588e-07 1.15312e-08)
(-6.30937e-09 -2.66583e-07 6.17466e-09)
(6.10797e-09 -3.24552e-07 6.15351e-09)
(5.17062e-08 -6.80549e-07 1.14877e-08)
(1.14738e-07 -9.10211e-07 1.38517e-08)
(1.87849e-07 -1.06616e-06 1.54736e-08)
(2.63699e-07 -1.17279e-06 1.72028e-08)
(3.36056e-07 -1.24339e-06 1.94654e-08)
(3.98547e-07 -1.28641e-06 2.24468e-08)
(4.4518e-07 -1.30793e-06 2.61784e-08)
(4.70499e-07 -1.31292e-06 3.05279e-08)
(4.70108e-07 -1.30579e-06 3.53316e-08)
(4.41243e-07 -1.29082e-06 4.02398e-08)
(3.8295e-07 -1.2719e-06 4.48614e-08)
(2.96418e-07 -1.25239e-06 4.89373e-08)
(1.87483e-07 -1.23471e-06 5.18129e-08)
(6.54516e-08 -1.2255e-06 5.32723e-08)
(-6.17892e-08 -1.22574e-06 5.33928e-08)
(-1.8445e-07 -1.23513e-06 5.17595e-08)
(-2.93148e-07 -1.25228e-06 4.8982e-08)
(-3.79563e-07 -1.272e-06 4.49834e-08)
(-4.38272e-07 -1.29097e-06 4.03433e-08)
(-4.67626e-07 -1.30589e-06 3.54305e-08)
(-4.68526e-07 -1.31303e-06 3.06155e-08)
(-4.43644e-07 -1.30811e-06 2.62507e-08)
(-3.97383e-07 -1.28665e-06 2.25178e-08)
(-3.35208e-07 -1.24362e-06 1.94953e-08)
(-2.63148e-07 -1.17287e-06 1.71509e-08)
(-1.87542e-07 -1.0659e-06 1.53494e-08)
(-1.14636e-07 -9.09502e-07 1.36995e-08)
(-5.17796e-08 -6.79706e-07 1.13396e-08)
(-6.18967e-09 -3.25133e-07 6.0717e-09)
(5.78651e-09 -3.80912e-07 5.77922e-09)
(4.88351e-08 -7.9572e-07 1.07918e-08)
(1.08301e-07 -1.06244e-06 1.30222e-08)
(1.77245e-07 -1.24405e-06 1.46436e-08)
(2.48836e-07 -1.36961e-06 1.64268e-08)
(3.17261e-07 -1.45515e-06 1.87015e-08)
(3.76582e-07 -1.51079e-06 2.16979e-08)
(4.21172e-07 -1.54321e-06 2.54993e-08)
(4.45862e-07 -1.5577e-06 2.99536e-08)
(4.46324e-07 -1.55883e-06 3.49236e-08)
(4.19685e-07 -1.55092e-06 4.0055e-08)
(3.64852e-07 -1.53762e-06 4.49137e-08)
(2.82659e-07 -1.52204e-06 4.90645e-08)
(1.78623e-07 -1.5067e-06 5.21358e-08)
(6.23855e-08 -1.49925e-06 5.38279e-08)
(-5.90475e-08 -1.49947e-06 5.39511e-08)
(-1.75842e-07 -1.50677e-06 5.20777e-08)
(-2.79437e-07 -1.52118e-06 4.90858e-08)
(-3.6147e-07 -1.53717e-06 4.50358e-08)
(-4.16801e-07 -1.55096e-06 4.01495e-08)
(-4.43874e-07 -1.559e-06 3.5026e-08)
(-4.43943e-07 -1.5579e-06 3.00396e-08)
(-4.19699e-07 -1.54353e-06 2.55652e-08)
(-3.75438e-07 -1.5112e-06 2.17749e-08)
(-3.16394e-07 -1.45545e-06 1.87239e-08)
(-2.48233e-07 -1.36943e-06 1.63764e-08)
(-1.76843e-07 -1.24325e-06 1.46144e-08)
(-1.08062e-07 -1.06121e-06 1.30327e-08)
(-4.88e-08 -7.94645e-07 1.08037e-08)
(-5.82529e-09 -3.81601e-07 5.77259e-09)
(5.23877e-09 -4.32836e-07 5.15643e-09)
(4.39052e-08 -9.01699e-07 9.67118e-09)
(9.7333e-08 -1.20281e-06 1.16579e-08)
(1.59214e-07 -1.40886e-06 1.31496e-08)
(2.23543e-07 -1.55273e-06 1.49135e-08)
(2.85202e-07 -1.65292e-06 1.71415e-08)
(3.38957e-07 -1.72157e-06 2.00211e-08)
(3.79687e-07 -1.76598e-06 2.36784e-08)
(4.02714e-07 -1.7915e-06 2.79583e-08)
(4.0392e-07 -1.80267e-06 3.28166e-08)
(3.80327e-07 -1.8036e-06 3.79031e-08)
(3.30956e-07 -1.79737e-06 4.27514e-08)
(2.56676e-07 -1.78745e-06 4.67589e-08)
(1.6241e-07 -1.77688e-06 4.98515e-08)
(5.67899e-08 -1.77195e-06 5.16119e-08)
(-5.37996e-08 -1.77223e-06 5.17687e-08)
(-1.59881e-07 -1.77683e-06 4.98644e-08)
(-2.5361e-07 -1.78644e-06 4.66829e-08)
(-3.27958e-07 -1.7971e-06 4.27588e-08)
(-3.77811e-07 -1.80377e-06 3.79067e-08)
(-4.01611e-07 -1.80296e-06 3.29066e-08)
(-4.00906e-07 -1.79173e-06 2.80511e-08)
(-3.78343e-07 -1.76638e-06 2.37348e-08)
(-3.37924e-07 -1.72215e-06 2.01117e-08)
(-2.84457e-07 -1.65312e-06 1.71669e-08)
(-2.23013e-07 -1.55181e-06 1.48592e-08)
(-1.58767e-07 -1.40705e-06 1.30876e-08)
(-9.69473e-08 -1.20081e-06 1.15472e-08)
(-4.37396e-08 -9.00193e-07 9.54765e-09)
(-5.19114e-09 -4.33426e-07 5.13012e-09)
(4.43709e-09 -4.78022e-07 4.291e-09)
(3.68509e-08 -9.93459e-07 8.07604e-09)
(8.16452e-08 -1.32413e-06 9.78051e-09)
(1.33754e-07 -1.55205e-06 1.11222e-08)
(1.87944e-07 -1.71309e-06 1.2744e-08)
(2.3991e-07 -1.82731e-06 1.48403e-08)
(2.85497e-07 -1.90858e-06 1.74725e-08)
(3.20348e-07 -1.96515e-06 2.07262e-08)
(3.40486e-07 -2.00221e-06 2.44722e-08)
(3.42125e-07 -2.02383e-06 2.87859e-08)
(3.22447e-07 -2.03351e-06 3.32893e-08)
(2.80653e-07 -2.03499e-06 3.75884e-08)
(2.17762e-07 -2.03248e-06 4.13338e-08)
(1.38183e-07 -2.02853e-06 4.43382e-08)
(4.83874e-08 -2.02672e-06 4.60187e-08)
(-4.58326e-08 -2.02686e-06 4.61844e-08)
(-1.36088e-07 -2.02826e-06 4.45441e-08)
(-2.15283e-07 -2.03232e-06 4.15973e-08)
(-2.78312e-07 -2.03702e-06 3.80861e-08)
(-3.20276e-07 -2.03515e-06 3.35957e-08)
(-3.39979e-07 -2.02448e-06 2.8988e-08)
(-3.38841e-07 -2.00236e-06 2.45161e-08)
(-3.19218e-07 -1.96548e-06 2.05201e-08)
(-2.84602e-07 -1.90912e-06 1.71709e-08)
(-2.39193e-07 -1.82708e-06 1.44803e-08)
(-1.87261e-07 -1.7114e-06 1.24312e-08)
(-1.33159e-07 -1.54966e-06 1.09234e-08)
(-8.12945e-08 -1.32199e-06 9.67378e-09)
(-3.67319e-08 -9.91688e-07 8.03937e-09)
(-4.37862e-09 -4.7841e-07 4.35269e-09)
(3.47149e-09 -5.14044e-07 3.12833e-09)
(2.81657e-08 -1.0663e-06 5.85099e-09)
(6.19285e-08 -1.42027e-06 7.15913e-09)
(1.01471e-07 -1.66573e-06 8.19696e-09)
(1.4273e-07 -1.84131e-06 9.38315e-09)
(1.82382e-07 -1.96828e-06 1.101e-08)
(2.17217e-07 -2.06101e-06 1.31779e-08)
(2.43982e-07 -2.12853e-06 1.59713e-08)
(2.59961e-07 -2.1761e-06 1.9182e-08)
(2.61822e-07 -2.20692e-06 2.27041e-08)
(2.46779e-07 -2.22501e-06 2.6141e-08)
(2.14584e-07 -2.23557e-06 2.95833e-08)
(1.66865e-07 -2.24166e-06 3.29099e-08)
(1.06397e-07 -2.24352e-06 3.54075e-08)
(3.75151e-08 -2.24413e-06 3.66907e-08)
(-3.477e-08 -2.2435e-06 3.65848e-08)
(-1.04265e-07 -2.24174e-06 3.51917e-08)
(-1.64991e-07 -2.24037e-06 3.27014e-08)
(-2.13182e-07 -2.23791e-06 2.97047e-08)
(-2.44972e-07 -2.22691e-06 2.61358e-08)
(-2.59692e-07 -2.2074e-06 2.25247e-08)
(-2.58471e-07 -2.17581e-06 1.90257e-08)
(-2.43117e-07 -2.12848e-06 1.58704e-08)
(-2.1643e-07 -2.06108e-06 1.31913e-08)
(-1.81767e-07 -1.96761e-06 1.10488e-08)
(-1.42295e-07 -1.83989e-06 9.4447e-09)
(-1.01222e-07 -1.66462e-06 8.29343e-09)
(-6.1791e-08 -1.42003e-06 7.35091e-09)
(-2.78895e-08 -1.06589e-06 6.10488e-09)
(-3.3344e-09 -5.14929e-07 3.28217e-09)
(2.20022e-09 -5.39759e-07 2.03213e-09)
(1.78029e-08 -1.11777e-06 3.76379e-09)
(3.9096e-08 -1.48825e-06 4.49912e-09)
(6.41037e-08 -1.74514e-06 5.03818e-09)
(8.99811e-08 -1.9304e-06 5.73427e-09)
(1.14816e-07 -2.06671e-06 6.7999e-09)
(1.36671e-07 -2.16823e-06 8.25523e-09)
(1.53401e-07 -2.24422e-06 1.01505e-08)
(1.63667e-07 -2.30001e-06 1.23823e-08)
(1.65289e-07 -2.33825e-06 1.47478e-08)
(1.55986e-07 -2.3644e-06 1.70883e-08)
(1.35889e-07 -2.38328e-06 1.95405e-08)
(1.0601e-07 -2.39627e-06 2.18154e-08)
(6.78202e-08 -2.40262e-06 2.35095e-08)
(2.42301e-08 -2.40492e-06 2.42827e-08)
(-2.14236e-08 -2.40262e-06 2.3884e-08)
(-6.5604e-08 -2.39764e-06 2.28002e-08)
(-1.03914e-07 -2.39144e-06 2.095e-08)
(-1.34234e-07 -2.38178e-06 1.86282e-08)
(-1.5459e-07 -2.36272e-06 1.61023e-08)
(-1.64114e-07 -2.33554e-06 1.37274e-08)
(-1.63288e-07 -2.29635e-06 1.16546e-08)
(-1.53442e-07 -2.24185e-06 9.83835e-09)
(-1.36453e-07 -2.16782e-06 8.32978e-09)
(-1.14403e-07 -2.0673e-06 7.10111e-09)
(-8.93821e-08 -1.93117e-06 6.10878e-09)
(-6.34897e-08 -1.7459e-06 5.37797e-09)
(-3.87131e-08 -1.48895e-06 4.75719e-09)
(-1.74644e-08 -1.11785e-06 3.92576e-09)
(-2.10558e-09 -5.40434e-07 2.06431e-09)
(8.11427e-10 -5.53199e-07 6.41503e-10)
(6.23364e-09 -1.14424e-06 1.27904e-09)
(1.36156e-08 -1.5239e-06 1.60759e-09)
(2.24907e-08 -1.78732e-06 1.82407e-09)
(3.16174e-08 -1.97792e-06 2.10885e-09)
(4.04289e-08 -2.11872e-06 2.554e-09)
(4.84109e-08 -2.22372e-06 3.08173e-09)
(5.45996e-08 -2.30244e-06 3.61522e-09)
(5.83161e-08 -2.36192e-06 4.30436e-09)
(5.88682e-08 -2.40576e-06 5.24926e-09)
(5.55419e-08 -2.43816e-06 6.23278e-09)
(4.8569e-08 -2.46197e-06 7.14187e-09)
(3.79219e-08 -2.47797e-06 7.84184e-09)
(2.43753e-08 -2.48703e-06 8.58169e-09)
(9.14651e-09 -2.49139e-06 8.9369e-09)
(-6.95873e-09 -2.48907e-06 8.65187e-09)
(-2.312e-08 -2.48284e-06 8.29682e-09)
(-3.65968e-08 -2.47426e-06 7.62286e-09)
(-4.7065e-08 -2.46097e-06 6.66545e-09)
(-5.42057e-08 -2.43723e-06 5.72593e-09)
(-5.75446e-08 -2.40431e-06 4.86391e-09)
(-5.73853e-08 -2.35949e-06 4.10733e-09)
(-5.40878e-08 -2.30056e-06 3.40571e-09)
(-4.82305e-08 -2.22321e-06 2.84287e-09)
(-4.04651e-08 -2.11933e-06 2.4318e-09)
(-3.15377e-08 -1.97898e-06 2.09276e-09)
(-2.23261e-08 -1.78847e-06 1.83501e-09)
(-1.35577e-08 -1.52502e-06 1.62051e-09)
(-6.071e-09 -1.14497e-06 1.37521e-09)
(-6.95347e-10 -5.53743e-07 7.37151e-10)
(-5.83922e-10 -5.53748e-07 -6.8835e-10)
(-5.42158e-09 -1.14521e-06 -1.24749e-09)
(-1.21889e-08 -1.52543e-06 -1.46473e-09)
(-1.98898e-08 -1.7891e-06 -1.64828e-09)
(-2.79565e-08 -1.9799e-06 -1.88357e-09)
(-3.5725e-08 -2.12102e-06 -2.21723e-09)
(-4.25831e-08 -2.22641e-06 -2.65159e-09)
(-4.79919e-08 -2.30545e-06 -3.19056e-09)
(-5.11495e-08 -2.36491e-06 -3.8697e-09)
(-5.13151e-08 -2.40837e-06 -4.62319e-09)
(-4.81137e-08 -2.44063e-06 -5.56432e-09)
(-4.17963e-08 -2.46439e-06 -6.60418e-09)
(-3.29101e-08 -2.48008e-06 -7.47051e-09)
(-2.14638e-08 -2.48943e-06 -7.80977e-09)
(-7.64808e-09 -2.4937e-06 -7.84009e-09)
(7.16866e-09 -2.49112e-06 -7.73214e-09)
(2.07448e-08 -2.48575e-06 -7.21608e-09)
(3.33075e-08 -2.47741e-06 -6.58689e-09)
(4.29159e-08 -2.46349e-06 -6.03721e-09)
(4.87914e-08 -2.4396e-06 -5.16942e-09)
(5.18622e-08 -2.40671e-06 -4.25481e-09)
(5.1818e-08 -2.36175e-06 -3.3973e-09)
(4.89032e-08 -2.30264e-06 -2.85828e-09)
(4.35557e-08 -2.22493e-06 -2.5193e-09)
(3.64175e-08 -2.12065e-06 -2.17358e-09)
(2.84768e-08 -1.98e-06 -1.90098e-09)
(2.02519e-08 -1.78926e-06 -1.67169e-09)
(1.2378e-08 -1.52568e-06 -1.44958e-09)
(5.64451e-09 -1.14549e-06 -1.12087e-09)
(7.29508e-10 -5.54036e-07 -5.63858e-10)
(-2.02671e-09 -5.41188e-07 -2.00551e-09)
(-1.6911e-08 -1.11956e-06 -3.79869e-09)
(-3.74842e-08 -1.49145e-06 -4.61694e-09)
(-6.13905e-08 -1.74903e-06 -5.23087e-09)
(-8.63927e-08 -1.93498e-06 -5.94836e-09)
(-1.1052e-07 -2.07221e-06 -6.91166e-09)
(-1.3167e-07 -2.17439e-06 -8.18285e-09)
(-1.47857e-07 -2.25036e-06 -9.84037e-09)
(-1.57319e-07 -2.30628e-06 -1.19008e-08)
(-1.58382e-07 -2.34486e-06 -1.40614e-08)
(-1.49279e-07 -2.37154e-06 -1.64511e-08)
(-1.2994e-07 -2.39072e-06 -1.89777e-08)
(-1.01633e-07 -2.40378e-06 -2.11576e-08)
(-6.5302e-08 -2.41149e-06 -2.25481e-08)
(-2.28499e-08 -2.41447e-06 -2.30848e-08)
(2.17929e-08 -2.41121e-06 -2.27729e-08)
(6.39324e-08 -2.40724e-06 -2.17511e-08)
(1.01535e-07 -2.40166e-06 -2.00991e-08)
(1.30507e-07 -2.39007e-06 -1.82393e-08)
(1.49313e-07 -2.37014e-06 -1.58342e-08)
(1.5881e-07 -2.34256e-06 -1.35465e-08)
(1.57986e-07 -2.30301e-06 -1.13332e-08)
(1.48146e-07 -2.24752e-06 -9.4269e-09)
(1.31792e-07 -2.17231e-06 -7.83817e-09)
(1.10654e-07 -2.07126e-06 -6.54104e-09)
(8.67791e-08 -1.93483e-06 -5.57368e-09)
(6.18307e-08 -1.7492e-06 -4.83925e-09)
(3.78389e-08 -1.49197e-06 -4.26753e-09)
(1.72569e-08 -1.12026e-06 -3.51062e-09)
(2.17649e-09 -5.41377e-07 -1.89873e-09)
(-3.31358e-09 -5.16287e-07 -3.19175e-09)
(-2.74428e-08 -1.0689e-06 -5.9624e-09)
(-6.06892e-08 -1.42427e-06 -7.22599e-09)
(-9.93985e-08 -1.66976e-06 -8.16025e-09)
(-1.39743e-07 -1.84588e-06 -9.28265e-09)
(-1.78571e-07 -1.97451e-06 -1.0824e-08)
(-2.12688e-07 -2.06896e-06 -1.28776e-08)
(-2.3893e-07 -2.13748e-06 -1.55373e-08)
(-2.54218e-07 -2.18607e-06 -1.87748e-08)
(-2.55766e-07 -2.21771e-06 -2.21904e-08)
(-2.41105e-07 -2.2364e-06 -2.57027e-08)
(-2.09621e-07 -2.24724e-06 -2.90833e-08)
(-1.63274e-07 -2.25392e-06 -3.22016e-08)
(-1.0452e-07 -2.25744e-06 -3.45463e-08)
(-3.66086e-08 -2.25887e-06 -3.5736e-08)
(3.47646e-08 -2.25631e-06 -3.54502e-08)
(1.02816e-07 -2.25487e-06 -3.40984e-08)
(1.63225e-07 -2.25404e-06 -3.17817e-08)
(2.10038e-07 -2.24772e-06 -2.89323e-08)
(2.40961e-07 -2.23533e-06 -2.54516e-08)
(2.5611e-07 -2.21597e-06 -2.20066e-08)
(2.55047e-07 -2.185e-06 -1.86209e-08)
(2.39603e-07 -2.13752e-06 -1.56021e-08)
(2.13276e-07 -2.06954e-06 -1.29437e-08)
(1.78998e-07 -1.97578e-06 -1.08105e-08)
(1.39996e-07 -1.84746e-06 -9.19924e-09)
(9.9482e-08 -1.67101e-06 -7.89644e-09)
(6.08712e-08 -1.42544e-06 -6.89079e-09)
(2.77731e-08 -1.07009e-06 -5.63894e-09)
(3.47379e-09 -5.16183e-07 -3.03852e-09)
(-4.41377e-09 -4.80359e-07 -4.21357e-09)
(-3.64713e-08 -9.95969e-07 -7.86277e-09)
(-8.05097e-08 -1.32765e-06 -9.55958e-09)
(-1.31863e-07 -1.55627e-06 -1.08431e-08)
(-1.85412e-07 -1.71894e-06 -1.23415e-08)
(-2.36901e-07 -1.8356e-06 -1.43705e-08)
(-2.81999e-07 -1.91864e-06 -1.70347e-08)
(-3.1641e-07 -1.97608e-06 -2.03306e-08)
(-3.36127e-07 -2.01419e-06 -2.42355e-08)
(-3.37664e-07 -2.03703e-06 -2.84894e-08)
(-3.18242e-07 -2.04774e-06 -3.29854e-08)
(-2.76816e-07 -2.04988e-06 -3.71922e-08)
(-2.14993e-07 -2.04823e-06 -4.08618e-08)
(-1.36827e-07 -2.04624e-06 -4.38118e-08)
(-4.74587e-08 -2.04568e-06 -4.55801e-08)
(4.59757e-08 -2.04411e-06 -4.54381e-08)
(1.35285e-07 -2.04555e-06 -4.37799e-08)
(2.14794e-07 -2.05003e-06 -4.08198e-08)
(2.76899e-07 -2.05084e-06 -3.71548e-08)
(3.17936e-07 -2.04731e-06 -3.30372e-08)
(3.37516e-07 -2.03636e-06 -2.85755e-08)
(3.36537e-07 -2.01429e-06 -2.41881e-08)
(3.16947e-07 -1.97666e-06 -2.04342e-08)
(2.82542e-07 -1.91919e-06 -1.72464e-08)
(2.37394e-07 -1.83655e-06 -1.46798e-08)
(1.85883e-07 -1.72086e-06 -1.26728e-08)
(1.32254e-07 -1.55928e-06 -1.10205e-08)
(8.07294e-08 -1.3314e-06 -9.65946e-09)
(3.65209e-08 -9.9912e-07 -7.93293e-09)
(4.41234e-09 -4.80457e-07 -4.21881e-09)
(-5.20313e-09 -4.35513e-07 -5.11467e-09)
(-4.35338e-08 -9.052e-07 -9.55465e-09)
(-9.63532e-08 -1.20716e-06 -1.15578e-08)
(-1.57903e-07 -1.41445e-06 -1.30621e-08)
(-2.21909e-07 -1.56031e-06 -1.4784e-08)
(-2.83255e-07 -1.66272e-06 -1.70707e-08)
(-3.36692e-07 -1.73289e-06 -1.99995e-08)
(-3.77151e-07 -1.77833e-06 -2.36136e-08)
(-3.99922e-07 -1.80498e-06 -2.7929e-08)
(-4.01047e-07 -1.81734e-06 -3.27288e-08)
(-3.77597e-07 -1.81926e-06 -3.78048e-08)
(-3.28464e-07 -1.81394e-06 -4.25974e-08)
(-2.54943e-07 -1.80489e-06 -4.66013e-08)
(-1.6166e-07 -1.79635e-06 -4.9704e-08)
(-5.57212e-08 -1.79232e-06 -5.1721e-08)
(5.44235e-08 -1.79117e-06 -5.16921e-08)
(1.59995e-07 -1.79584e-06 -4.99973e-08)
(2.54015e-07 -1.80618e-06 -4.6864e-08)
(3.27854e-07 -1.81466e-06 -4.26249e-08)
(3.77147e-07 -1.81961e-06 -3.78576e-08)
(4.00863e-07 -1.81757e-06 -3.27737e-08)
(4.00142e-07 -1.8054e-06 -2.78846e-08)
(3.77488e-07 -1.77896e-06 -2.3595e-08)
(3.37106e-07 -1.73358e-06 -1.99424e-08)
(2.8368e-07 -1.66368e-06 -1.70294e-08)
(2.2235e-07 -1.56209e-06 -1.48433e-08)
(1.58416e-07 -1.41765e-06 -1.31272e-08)
(9.68386e-08 -1.21139e-06 -1.15841e-08)
(4.38366e-08 -9.08606e-07 -9.56123e-09)
(5.27081e-09 -4.35533e-07 -5.10009e-09)
(-5.79359e-09 -3.83637e-07 -5.79054e-09)
(-4.86803e-08 -7.99921e-07 -1.08119e-08)
(-1.07868e-07 -1.06778e-06 -1.30354e-08)
(-1.76625e-07 -1.25098e-06 -1.46157e-08)
(-2.48022e-07 -1.37839e-06 -1.63617e-08)
(-3.16313e-07 -1.46558e-06 -1.86947e-08)
(-3.75529e-07 -1.52247e-06 -2.17489e-08)
(-4.20022e-07 -1.55596e-06 -2.55419e-08)
(-4.44586e-07 -1.57152e-06 -3.00239e-08)
(-4.4496e-07 -1.57373e-06 -3.49837e-08)
(-4.18269e-07 -1.56681e-06 -4.01482e-08)
(-3.63504e-07 -1.55472e-06 -4.5064e-08)
(-2.82008e-07 -1.54052e-06 -4.92749e-08)
(-1.78621e-07 -1.52708e-06 -5.23368e-08)
(-6.15197e-08 -1.5195e-06 -5.41443e-08)
(5.9897e-08 -1.5185e-06 -5.3977e-08)
(1.76746e-07 -1.52584e-06 -5.23497e-08)
(2.80654e-07 -1.54025e-06 -4.92913e-08)
(3.6257e-07 -1.55463e-06 -4.49781e-08)
(4.1763e-07 -1.56697e-06 -4.01346e-08)
(4.4462e-07 -1.57395e-06 -3.49924e-08)
(4.44572e-07 -1.57194e-06 -3.00158e-08)
(4.20199e-07 -1.55654e-06 -2.55415e-08)
(3.7587e-07 -1.52316e-06 -2.17242e-08)
(3.16773e-07 -1.46643e-06 -1.86765e-08)
(2.48532e-07 -1.37953e-06 -1.63939e-08)
(1.77075e-07 -1.25286e-06 -1.46892e-08)
(1.08136e-07 -1.07052e-06 -1.3109e-08)
(4.87921e-08 -8.02436e-07 -1.08549e-08)
(5.7687e-09 -3.83686e-07 -5.79479e-09)
(-6.14293e-09 -3.27276e-07 -6.14715e-09)
(-5.17587e-08 -6.84862e-07 -1.14175e-08)
(-1.14836e-07 -9.16046e-07 -1.37311e-08)
(-1.87943e-07 -1.07363e-06 -1.53768e-08)
(-2.63775e-07 -1.18177e-06 -1.71784e-08)
(-3.36159e-07 -1.25361e-06 -1.9527e-08)
(-3.98694e-07 -1.29769e-06 -2.25651e-08)
(-4.45349e-07 -1.32022e-06 -2.63139e-08)
(-4.70631e-07 -1.32618e-06 -3.07058e-08)
(-4.70148e-07 -1.32001e-06 -3.55312e-08)
(-4.41095e-07 -1.30594e-06 -4.04873e-08)
(-3.82688e-07 -1.28806e-06 -4.51889e-08)
(-2.96613e-07 -1.26965e-06 -4.92964e-08)
(-1.8785e-07 -1.25352e-06 -5.21998e-08)
(-6.46878e-08 -1.24407e-06 -5.37972e-08)
(6.29052e-08 -1.24355e-06 -5.36793e-08)
(1.85935e-07 -1.25281e-06 -5.22531e-08)
(2.95074e-07 -1.26958e-06 -4.93281e-08)
(3.81605e-07 -1.28817e-06 -4.51848e-08)
(4.4034e-07 -1.30618e-06 -4.05288e-08)
(4.69703e-07 -1.3203e-06 -3.55737e-08)
(4.70474e-07 -1.3266e-06 -3.07356e-08)
(4.45399e-07 -1.32077e-06 -2.63426e-08)
(3.98904e-07 -1.29838e-06 -2.25828e-08)
(3.36476e-07 -1.25444e-06 -1.9549e-08)
(2.64144e-07 -1.18279e-06 -1.72318e-08)
(1.88231e-07 -1.07497e-06 -1.55271e-08)
(1.14932e-07 -9.1789e-07 -1.39862e-08)
(5.17594e-08 -6.86846e-07 -1.16489e-08)
(6.07689e-09 -3.27268e-07 -6.21266e-09)
(-6.2532e-09 -2.68687e-07 -6.28041e-09)
(-5.27718e-08 -5.65219e-07 -1.16636e-08)
(-1.1716e-07 -7.58446e-07 -1.39979e-08)
(-1.91861e-07 -8.89714e-07 -1.56258e-08)
(-2.6939e-07 -9.78458e-07 -1.73803e-08)
(-3.43335e-07 -1.03546e-06 -1.96348e-08)
(-4.07055e-07 -1.06787e-06 -2.25204e-08)
(-4.54326e-07 -1.08106e-06 -2.6064e-08)
(-4.79561e-07 -1.07954e-06 -3.01896e-08)
(-4.78371e-07 -1.06743e-06 -3.46842e-08)
(-4.48034e-07 -1.04872e-06 -3.92609e-08)
(-3.87949e-07 -1.02725e-06 -4.3638e-08)
(-3.00284e-07 -1.00629e-06 -4.7428e-08)
(-1.90308e-07 -9.89243e-07 -5.00892e-08)
(-6.56733e-08 -9.79465e-07 -5.14893e-08)
(6.36838e-08 -9.79193e-07 -5.14371e-08)
(1.88199e-07 -9.88818e-07 -5.01452e-08)
(2.98685e-07 -1.00637e-06 -4.74087e-08)
(3.86909e-07 -1.02736e-06 -4.36068e-08)
(4.47271e-07 -1.04886e-06 -3.93033e-08)
(4.77848e-07 -1.06763e-06 -3.47383e-08)
(4.79303e-07 -1.07987e-06 -3.02344e-08)
(4.54279e-07 -1.08151e-06 -2.61052e-08)
(4.07159e-07 -1.06843e-06 -2.2551e-08)
(3.4353e-07 -1.03613e-06 -1.96645e-08)
(2.69639e-07 -9.79253e-07 -1.74222e-08)
(1.92078e-07 -8.90643e-07 -1.57218e-08)
(1.17276e-07 -7.59609e-07 -1.41864e-08)
(5.27993e-08 -5.6663e-07 -1.18422e-08)
(6.22319e-09 -2.68628e-07 -6.32326e-09)
(-6.16016e-09 -2.0992e-07 -6.12341e-09)
(-5.18117e-08 -4.45578e-07 -1.14018e-08)
(-1.15076e-07 -6.00735e-07 -1.37139e-08)
(-1.88788e-07 -7.05885e-07 -1.52833e-08)
(-2.65508e-07 -7.7583e-07 -1.69317e-08)
(-3.38785e-07 -8.19007e-07 -1.902e-08)
(-4.01912e-07 -8.41245e-07 -2.1685e-08)
(-4.48604e-07 -8.47054e-07 -2.49442e-08)
(-4.7331e-07 -8.40373e-07 -2.87192e-08)
(-4.71706e-07 -8.24858e-07 -3.28069e-08)
(-4.41172e-07 -8.04102e-07 -3.69678e-08)
(-3.81356e-07 -7.81471e-07 -4.09569e-08)
(-2.94923e-07 -7.60308e-07 -4.43441e-08)
(-1.87024e-07 -7.43987e-07 -4.67213e-08)
(-6.46315e-08 -7.34912e-07 -4.79681e-08)
(6.26528e-08 -7.34554e-07 -4.79315e-08)
(1.84818e-07 -7.43428e-07 -4.67138e-08)
(2.93283e-07 -7.60234e-07 -4.42715e-08)
(3.80284e-07 -7.81449e-07 -4.08757e-08)
(4.40349e-07 -8.04134e-07 -3.69753e-08)
(4.71097e-07 -8.24992e-07 -3.28553e-08)
(4.72963e-07 -8.40624e-07 -2.87629e-08)
(4.48486e-07 -8.47408e-07 -2.49842e-08)
(4.01944e-07 -8.41681e-07 -2.1714e-08)
(3.3891e-07 -8.19523e-07 -1.90465e-08)
(2.65696e-07 -7.76424e-07 -1.6959e-08)
(1.88985e-07 -7.06555e-07 -1.53257e-08)
(1.15231e-07 -6.015e-07 -1.38023e-08)
(5.18268e-08 -4.46495e-07 -1.15294e-08)
(6.12179e-09 -2.09985e-07 -6.16616e-09)
(-5.80017e-09 -1.53412e-07 -5.703e-09)
(-4.87706e-08 -3.30531e-07 -1.06712e-08)
(-1.08671e-07 -4.48849e-07 -1.28428e-08)
(-1.78999e-07 -5.28824e-07 -1.42584e-08)
(-2.52665e-07 -5.80964e-07 -1.57344e-08)
(-3.23367e-07 -6.11577e-07 -1.76026e-08)
(-3.84452e-07 -6.25237e-07 -2.00058e-08)
(-4.29669e-07 -6.2561e-07 -2.29358e-08)
(-4.53597e-07 -6.15963e-07 -2.63268e-08)
(-4.52054e-07 -5.99401e-07 -2.99843e-08)
(-4.22499e-07 -5.78922e-07 -3.37435e-08)
(-3.64837e-07 -5.57423e-07 -3.7305e-08)
(-2.82044e-07 -5.37992e-07 -4.03166e-08)
(-1.78828e-07 -5.23269e-07 -4.24471e-08)
(-6.18473e-08 -5.15287e-07 -4.36033e-08)
(5.99202e-08 -5.14946e-07 -4.35644e-08)