/*--------------------------------*- C++ -*----------------------------------*\
| =========                 |                                                 |
| \\      /  F ield         | OpenFOAM: The Open Source CFD Toolbox           |
|  \\    /   O peration     | Version:  v1912                                 |
|   \\  /    A nd           | Website:  www.openfoam.com                      |
|    \\/     M anipulation  |                                                 |
\*---------------------------------------------------------------------------*/
FoamFile
{
    version     2.0;
    format      ascii;
    class       volScalarField;
    location    "215/oil";
    object      heatTransferCoeff(T);
}
// * * * * * * * * * * * * * * * * * * * * * * * * * * * * * * * * * * * * * //

dimensions      [1 0 -3 -1 0 0 0];


internalField   uniform 0;

boundaryField
{
    maxY
    {
        type            calculated;
        value           uniform 0;
    }
    minX
    {
        type            calculated;
        value           uniform 0;
    }
    maxX
    {
        type            calculated;
        value           uniform 0;
    }
    minY
    {
        type            calculated;
        value           uniform 0;
    }
    minZ
    {
        type            calculated;
        value           uniform 0;
    }
    maxZ
    {
        type            calculated;
        value           uniform 0;
    }
    oil_to_sphere
    {
        type            calculated;
        value           nonuniform List<scalar> 
360
(
-85.9691
-86.4516
-60.8168
-157.56
-167.985
-70.6957
-172.446
-155.625
-167.533
-87.7132
-88.1824
-70.3864
-78.0978
-54.8259
-85.9507
-149.157
-170.187
-157.697
-164.967
-54.5629
-137.206
-88.0911
-77.5436
-162.989
-61.1727
-169.057
-70.5425
-166.481
-165.236
-156.246
-177.435
-173.261
-60.9784
-60.3934
-69.6573
-70.0276
-163.211
-162.025
-157.653
-160.227
-164.131
-60.4751
-69.1478
-88.9695
-89.176
-70.4482
-76.4158
-54.2974
-86.2014
-154.4
-71.0869
-70.4267
-77.5605
-77.6075
-54.2297
-88.5704
-158.125
-54.495
-69.4179
-76.2
-54.4929
-165.939
-157.593
-164.482
-54.3066
-142.483
-86.1278
-75.3603
-172.648
-164.086
-158.108
-161.981
-161.505
-54.2565
-122.489
-85.4273
-54.8951
-74.3718
-162.199
-167.1
-76.1475
-74.8672
-75.0331
-54.4836
-60.5991
-69.9333
-70.1779
-77.7577
-54.5741
-54.9051
-60.7117
-77.8949
-70.1724
-60.6329
-77.359
-69.9594
-69.9614
-70.0793
-60.3077
-55.4608
-55.3762
-54.4969
-70.8386
-70.5959
-78.1695
-54.4963
-55.0571
-78.3127
-60.5492
-70.3822
-70.2741
-70.2553
-60.4295
-54.3535
-55.8788
-55.7969
-77.1659
-76.8018
-76.5349
-88.2985
-88.4448
-152.156
-162.098
-146.512
-163.354
-152.215
-163.46
-165.572
-154.002
-160.931
-158.213
-76.5585
-76.1661
-76.3354
-55.2659
-151.451
-164.911
-89.1657
-89.3782
-166.374
-153.722
-87.2049
-85.9078
-168.852
-154.884
-178.49
-55.2955
-55.1351
-163.044
-167.04
-178.211
-169.238
-169.295
-176.541
-178.077
-154.16
-85.2988
-168.366
-159.685
-54.7717
-166.491
-170.749
-74.5839
-73.4461
-76.4735
-87.2912
-88.3082
-168.461
-154.992
-175.257
-54.0008
-157.46
-88.6387
-166.464
-158.99
-54.0363
-171.593
-75.7171
-75.6103
-55.5671
-70.4271
-70.7159
-77.9428
-60.9433
-77.1749
-68.9977
-54.6615
-55.4194
-165.311
-155.003
-166.15
-159.805
-87.7084
-87.7704
-162.756
-148.874
-160.058
-86.6217
-87.1457
-55.1069
-69.9014
-71.1871
-78.226
-70.4071
-70.1263
-78.1818
-60.4883
-77.7483
-69.9419
-60.0673
-153.715
-78.0461
-69.8539
-54.7312
-161.434
-152.87
-161.417
-90.5445
-90.5466
-54.0054
-69.5068
-69.6071
-76.0273
-165.809
-59.9691
-75.7446
-69.3574
-156.322
-157.433
-89.8717
-54.35
-89.177
-54.324
-55.882
-77.1821
-60.8228
-68.6895
-68.5173
-68.7856
-60.2059
-55.0565
-157.761
-148.042
-166.106
-174.13
-155.893
-147.394
-168.285
-170.177
-87.2512
-159.76
-55.245
-167.996
-166.066
-166.878
-77.6151
-60.8256
-70.3647
-77.6071
-61.1099
-166.752
-69.8972
-69.883
-70.2751
-60.3517
-168.76
-155.391
-69.7675
-69.7796
-60.2989
-155.824
-176.299
-88.2715
-158.673
-54.549
-165.607
-162.549
-166.718
-75.6346
-60.1825
-164.28
-69.3125
-69.4589
-69.2051
-162.936
-60.4022
-160.358
-89.4874
-148.413
-89.929
-156.347
-159.398
-162.332
-54.6695
-74.4678
-73.1262
-73.8946
-89.3839
-163.409
-89.1414
-158.246
-162.953
-54.9996
-164.565
-167.337
-85.9619
-160.338
-55.0541
-176.326
-75.4942
-75.0578
-53.9545
-157.984
-89.2669
-140.456
-158.571
-89.1834
-54.4984
-70.0681
-70.1215
-77.967
-163.769
-151.861
-87.872
-55.1989
-152.939
-89.2482
-54.7675
-154.056
-166.724
-86.547
-160.906
-53.839
-173.797
-78.2701
-171.01
-60.4077
-70.2256
-171.648
-160.431
-157.563
-87.6766
-167.258
-165.706
-88.3725
-158.556
-74.0769
-75.905
-155.481
-88.8487
-54.1908
-155.46
-89.0554
-54.7957
-160.225
-161.363
-152.398
-89.451
-157.721
-89.6611
)
;
    }
}


// ************************************************************************* //
