/*--------------------------------*- C++ -*----------------------------------*\
| =========                 |                                                 |
| \\      /  F ield         | OpenFOAM: The Open Source CFD Toolbox           |
|  \\    /   O peration     | Version:  v1906                                 |
|   \\  /    A nd           | Web:      www.OpenFOAM.com                      |
|    \\/     M anipulation  |                                                 |
\*---------------------------------------------------------------------------*/
FoamFile
{
    version     2.0;
    format      ascii;
    class       surfaceScalarField;
    location    "79.4/oil";
    object      phi;
}
// * * * * * * * * * * * * * * * * * * * * * * * * * * * * * * * * * * * * * //

dimensions      [1 0 -1 0 0 0 0];
oriented        oriented;


internalField   nonuniform List<scalar> 
80688
(
-2.10991e-06
-2.14542e-06
-2.10991e-06
-9.51756e-07
-5.98973e-07
-5.59182e-07
-2.55204e-07
-3.50892e-07
-3.45659e-07
-1.19475e-07
-6.84875e-08
-6.7242e-08
-3.85767e-08
-4.08297e-08
-4.00681e-08
2.17161e-09
-2.04819e-08
-2.02664e-08
2.50202e-08
-1.12365e-08
-1.1612e-08
3.78781e-08
-6.01997e-09
-6.83795e-09
4.41249e-08
-2.59774e-09
-3.64901e-09
4.5216e-08
-1.78818e-11
-1.07311e-09
4.19245e-08
2.12363e-09
1.16786e-09
3.49052e-08
3.89265e-09
3.12669e-09
2.48783e-08
5.28599e-09
4.74095e-09
1.27119e-08
6.26356e-09
5.90291e-09
-5.90981e-10
6.77974e-09
6.52312e-09
-1.39583e-08
6.81143e-09
6.55591e-09
-2.63329e-08
6.36603e-09
6.00858e-09
-3.6762e-08
5.48451e-09
4.9446e-09
-4.44844e-08
4.24094e-09
3.48144e-09
-4.89903e-08
2.72966e-09
1.77625e-09
-5.00691e-08
1.05964e-09
1.91963e-11
-4.77922e-08
-6.39398e-10
-1.63749e-09
-4.25682e-08
-2.23978e-09
-2.98419e-09
-3.50586e-08
-3.64985e-09
-3.85971e-09
-2.61692e-08
-4.73448e-09
-4.15493e-09
-1.70006e-08
-5.3442e-09
-3.82443e-09
-8.77942e-09
-5.28629e-09
-2.93482e-09
-2.7309e-09
-4.32604e-09
-1.72246e-09
2.00708e-10
-2.25078e-09
-6.80804e-10
3.96861e-10
-1.96139e-10
-5.66855e-07
-1.01172e-06
-5.66848e-07
-3.3502e-07
-3.77518e-07
-4.53291e-07
-2.31147e-07
-2.62365e-07
-1.92399e-07
-9.82897e-08
-1.25709e-07
-7.56357e-08
-1.8176e-08
-8.42586e-08
-3.66847e-08
3.21803e-08
-5.80699e-08
-1.27682e-08
6.49414e-08
-4.41918e-08
1.94263e-10
8.50649e-08
-3.47285e-08
8.58503e-09
9.48836e-08
-2.73926e-08
1.49761e-08
9.55171e-08
-2.10836e-08
2.04324e-08
8.78201e-08
-1.5489e-08
2.53097e-08
7.27746e-08
-1.06458e-08
2.95839e-08
5.1713e-08
-6.72544e-09
3.30731e-08
2.6345e-08
-3.94151e-09
3.55731e-08
-1.31988e-09
-2.46142e-09
3.6906e-08
-2.9113e-08
-2.37412e-09
3.69787e-08
-5.48896e-08
-3.66237e-09
3.5805e-08
-7.67192e-08
-6.19737e-09
3.35115e-08
-9.30554e-08
-9.74967e-09
3.03268e-08
-1.02864e-07
-1.40071e-08
2.65456e-08
-1.05713e-07
-1.86089e-08
2.25171e-08
-1.01785e-07
-2.31565e-08
1.85897e-08
-9.18601e-08
-2.72481e-08
1.50831e-08
-7.72697e-08
-3.04758e-08
1.22356e-08
-5.97886e-08
-3.24091e-08
1.01935e-08
-4.15056e-08
-3.25704e-08
8.94321e-09
-2.4637e-08
-3.04105e-08
8.25559e-09
-1.12507e-08
-2.53237e-08
7.61139e-09
-2.85866e-09
-1.6763e-08
6.12021e-09
-5.32745e-09
2.86566e-09
-3.50646e-07
-3.10438e-07
-3.50638e-07
-2.26396e-07
-3.08222e-07
-1.93545e-07
-1.37542e-07
-2.36599e-07
-1.1462e-07
-4.77725e-08
-1.65093e-07
-5.03859e-08
1.72295e-08
-1.33007e-07
-1.62539e-08
6.52533e-08
-1.11237e-07
5.14303e-09
9.92865e-08
-9.68366e-08
1.86117e-08
1.21089e-07
-8.49955e-08
2.8465e-08
1.31376e-07
-7.4271e-08
3.65913e-08
1.30549e-07
-6.40916e-08
4.38352e-08
1.19204e-07
-5.45444e-08
5.03996e-08
9.83909e-08
-4.601e-08
5.61777e-08
6.97544e-08
-3.8983e-08
6.08941e-08
3.54838e-08
-3.39413e-08
6.42704e-08
-1.79196e-09
-3.12522e-08
6.60666e-08
-3.92243e-08
-3.1104e-08
6.61623e-08
-7.39893e-08
-3.3471e-08
6.45736e-08
-1.03539e-07
-3.81074e-08
6.14595e-08
-1.25839e-07
-4.45628e-08
5.71136e-08
-1.39526e-07
-5.22307e-08
5.19109e-08
-1.44035e-07
-6.03929e-08
4.62923e-08
-1.39595e-07
-6.82686e-08
4.06725e-08
-1.27227e-07
-7.50548e-08
3.54383e-08
-1.08618e-07
-7.99355e-08
3.08513e-08
-8.59967e-08
-8.20708e-08
2.704e-08
-6.19296e-08
-8.05658e-08
2.39284e-08
-3.90635e-08
-7.44469e-08
2.11704e-08
-1.98271e-08
-6.26389e-08
1.80787e-08
-6.16435e-09
-4.39718e-08
1.35461e-08
-1.7664e-08
6.1722e-09
-6.30106e-08
-1.84426e-07
-6.30012e-08
-7.52363e-08
-2.27426e-07
-6.85708e-08
-4.22325e-08
-2.23903e-07
-4.56994e-08
9.71148e-09
-2.03292e-07
-1.3745e-08
5.83781e-08
-1.89958e-07
8.28512e-09
9.98831e-08
-1.77271e-07
2.45298e-08
1.31733e-07
-1.65417e-07
3.67304e-08
1.52737e-07
-1.52872e-07
4.68729e-08
1.62018e-07
-1.3952e-07
5.59682e-08
1.59169e-07
-1.25682e-07
6.44388e-08
1.44428e-07
-1.12068e-07
7.22649e-08
1.18789e-07
-9.95764e-08
7.92062e-08
8.40542e-08
-8.91406e-08
8.48919e-08
4.27462e-08
-8.15987e-08
8.89654e-08
-2.07118e-09
-7.75655e-08
9.11306e-08
-4.70475e-08
-7.73638e-08
9.1236e-08
-8.88546e-08
-8.09622e-08
8.92983e-08
-1.24492e-07
-8.79762e-08
8.55061e-08
-1.51556e-07
-9.76978e-08
8.01994e-08
-1.68453e-07
-1.09157e-07
7.38229e-08
-1.74508e-07
-1.21211e-07
6.68731e-08
-1.69994e-07
-1.3262e-07
5.98375e-08
-1.56067e-07
-1.42112e-07
5.313e-08
-1.34647e-07
-1.48388e-07
4.70328e-08
-1.08225e-07
-1.50151e-07
4.16582e-08
-7.96378e-08
-1.46037e-07
3.68844e-08
-5.18024e-08
-1.34575e-07
3.22927e-08
-2.74411e-08
-1.1408e-07
2.70802e-08
-9.05355e-09
-8.23208e-08
1.99615e-08
-3.57794e-08
9.06193e-09
-2.7862e-08
-1.28712e-07
-2.78517e-08
-2.15981e-08
-2.10881e-07
-2.28082e-08
8.12156e-09
-2.46836e-07
-6.78651e-09
5.00487e-08
-2.57688e-07
1.24692e-08
9.26015e-08
-2.60625e-07
2.81138e-08
1.30951e-07
-2.56814e-07
4.11929e-08
1.61416e-07
-2.48333e-07
5.24516e-08
1.81554e-07
-2.35818e-07
6.28082e-08
1.89642e-07
-2.20329e-07
7.27205e-08
1.84747e-07
-2.03073e-07
8.22862e-08
1.66831e-07
-1.85444e-07
9.12923e-08
1.36847e-07
-1.68936e-07
9.93447e-08
9.67127e-08
-1.54987e-07
1.05981e-07
4.92173e-08
-1.44842e-07
1.10739e-07
-2.20127e-09
-1.39413e-07
1.13266e-07
-5.37678e-08
-1.39172e-07
1.13374e-07
-1.01718e-07
-1.44087e-07
1.11075e-07
-1.42662e-07
-1.53621e-07
1.06589e-07
-1.73891e-07
-1.6678e-07
1.00311e-07
-1.93611e-07
-1.82194e-07
9.27576e-08
-2.01067e-07
-1.98258e-07
8.45032e-08
-1.96554e-07
-2.13228e-07
7.60954e-08
-1.81348e-07
-2.25302e-07
6.79834e-08
-1.57534e-07
-2.32688e-07
6.04859e-08
-1.27805e-07
-2.33588e-07
5.37085e-08
-9.52158e-08
-2.26127e-07
4.75007e-08
-6.29167e-08
-2.08261e-07
4.13873e-08
-3.39648e-08
-1.77491e-07
3.44585e-08
-1.14524e-08
-1.30086e-07
2.52523e-08
-5.86932e-08
1.14614e-08
-4.02456e-09
-1.20674e-07
-4.01308e-09
1.19518e-08
-2.32286e-07
5.42794e-09
4.20556e-08
-2.94886e-07
1.79463e-08
8.10109e-08
-3.28091e-07
3.14477e-08
1.21542e-07
-3.44839e-07
4.36829e-08
1.5884e-07
-3.49153e-07
5.50409e-08
1.88859e-07
-3.44273e-07
6.59206e-08
2.08534e-07
-3.3222e-07
7.6727e-08
2.1563e-07
-3.15012e-07
8.75869e-08
2.08856e-07
-2.94662e-07
9.83633e-08
1.87982e-07
-2.73241e-07
1.0867e-07
1.53925e-07
-2.52847e-07
1.17967e-07
1.08716e-07
-2.35447e-07
1.25669e-07
5.54054e-08
-2.22731e-07
1.312e-07
-2.21742e-09
-2.15921e-07
1.34131e-07
-5.99665e-08
-2.15656e-07
1.34233e-07
-1.13665e-07
-2.21907e-07
1.31518e-07
-1.59547e-07
-2.33977e-07
1.26238e-07
-1.94615e-07
-2.50566e-07
1.18855e-07
-2.16901e-07
-2.6989e-07
1.09982e-07
-2.2558e-07
-2.89863e-07
1.00284e-07
-2.20981e-07
-3.08204e-07
9.03772e-08
-2.04494e-07
-3.22595e-07
8.08062e-08
-1.78364e-07
-3.3072e-07
7.19021e-08
-1.45482e-07
-3.30256e-07
6.37857e-08
-1.09113e-07
-3.18783e-07
5.62862e-08
-7.26716e-08
-2.93582e-07
4.88794e-08
-3.95607e-08
-2.51152e-07
4.05508e-08
-1.34492e-08
-1.8584e-07
2.96429e-08
-8.56014e-08
1.34591e-08
6.82268e-09
-1.34332e-07
6.83535e-09
2.97671e-08
-2.75918e-07
2.06876e-08
6.35553e-08
-3.61734e-07
3.30593e-08
1.03891e-07
-4.13139e-07
4.47124e-08
1.45353e-07
-4.41976e-07
5.56748e-08
1.83446e-07
-4.53768e-07
6.6522e-08
2.14083e-07
-4.52559e-07
7.76499e-08
2.33915e-07
-4.41331e-07
8.92784e-08
2.40423e-07
-4.22877e-07
1.01357e-07
2.32061e-07
-3.99883e-07
1.13584e-07
2.08465e-07
-3.75068e-07
1.25423e-07
1.7054e-07
-3.51109e-07
1.36186e-07
1.20454e-07
-3.30494e-07
1.45134e-07
6.15026e-08
-3.15357e-07
1.51577e-07
-2.15316e-09
-3.07253e-07
1.54987e-07
-6.5911e-08
-3.06978e-07
1.5508e-07
-1.25173e-07
-3.14511e-07
1.51867e-07
-1.75796e-07
-3.28999e-07
1.45644e-07
-2.14498e-07
-3.48831e-07
1.36967e-07
-2.39137e-07
-3.71802e-07
1.26552e-07
-2.48844e-07
-3.95337e-07
1.15179e-07
-2.43997e-07
-4.16645e-07
1.03594e-07
-2.2612e-07
-4.32879e-07
9.24064e-08
-1.97635e-07
-4.4121e-07
8.20041e-08
-1.61641e-07
-4.3878e-07
7.25315e-08
-1.2164e-07
-4.22583e-07
6.37984e-08
-8.13172e-08
-3.89132e-07
5.52278e-08
-4.44304e-08
-3.33744e-07
4.57047e-08
-1.51515e-08
-2.48493e-07
3.33738e-08
-1.15915e-07
1.51624e-08
1.25133e-08
-1.59373e-07
1.25271e-08
4.07245e-08
-3.33907e-07
2.97786e-08
7.85115e-08
-4.42462e-07
4.29407e-08
1.21605e-07
-5.10563e-07
5.43316e-08
1.65279e-07
-5.5079e-07
6.51388e-08
2.0516e-07
-5.69885e-07
7.62364e-08
2.37116e-07
-5.72624e-07
8.81088e-08
2.57633e-07
-5.62771e-07
1.00924e-07
2.63939e-07
-5.4371e-07
1.14527e-07
2.54318e-07
-5.18742e-07
1.28481e-07
2.28272e-07
-4.91141e-07
1.42118e-07
1.86712e-07
-4.64149e-07
1.54601e-07
1.3193e-07
-4.40738e-07
1.65026e-07
6.75052e-08
-4.23475e-07
1.72542e-07
-2.03724e-09
-4.14218e-07
1.76508e-07
-7.16594e-08
-4.13947e-07
1.76592e-07
-1.36326e-07
-4.22642e-07
1.72798e-07
-1.91508e-07
-4.39289e-07
1.65471e-07
-2.33637e-07
-4.61969e-07
1.55267e-07
-2.6041e-07
-4.88089e-07
1.4306e-07
-2.70932e-07
-5.1459e-07
1.29776e-07
-2.6567e-07
-5.38191e-07
1.16284e-07
-2.46284e-07
-5.55548e-07
1.03283e-07
-2.15407e-07
-5.63331e-07
9.12442e-08
-1.76369e-07
-5.58163e-07
8.03441e-08
-1.32912e-07
-5.36422e-07
7.03826e-08
-8.89934e-08
-4.93773e-07
6.07225e-08
-4.86976e-08
-4.24179e-07
5.01395e-08
-1.6629e-08
-3.17148e-07
3.6587e-08
-1.49185e-07
1.66411e-08
1.5767e-08
-1.90921e-07
1.57816e-08
4.78575e-08
-4.01547e-07
3.55495e-08
8.92777e-08
-5.33603e-07
4.97214e-08
1.35434e-07
-6.18227e-07
6.15069e-08
1.8178e-07
-6.69874e-07
7.27381e-08
2.23901e-07
-6.96559e-07
8.45535e-08
2.57589e-07
-7.03839e-07
9.75268e-08
2.7915e-07
-6.96144e-07
1.11812e-07
2.85621e-07
-6.77399e-07
1.27218e-07
2.75076e-07
-6.51386e-07
1.43189e-07
2.46937e-07
-6.21905e-07
1.58904e-07
2.02065e-07
-5.92637e-07
1.7336e-07
1.42891e-07
-5.67022e-07
1.85458e-07
7.32657e-08
-5.48033e-07
1.94183e-07
-1.89448e-09
-5.37847e-07
1.98789e-07
-7.71127e-08
-5.37589e-07
1.9886e-07
-1.46907e-07
-5.47246e-07
1.94399e-07
-2.06365e-07
-5.6565e-07
1.85819e-07
-2.51633e-07
-5.90609e-07
1.73908e-07
-2.80268e-07
-6.19128e-07
1.59674e-07
-2.91372e-07
-6.47695e-07
1.44208e-07
-2.85518e-07
-6.72614e-07
1.28569e-07
-2.64545e-07
-6.90093e-07
1.13572e-07
-2.31325e-07
-6.96327e-07
9.97759e-08
-1.8941e-07
-6.87445e-07
8.73672e-08
-1.42784e-07
-6.59193e-07
7.61457e-08
-9.56505e-08
-6.0636e-07
6.54529e-08
-5.2371e-08
-5.21387e-07
5.39284e-08
-1.7896e-08
-3.90948e-07
3.93248e-08
-1.84991e-07
1.79092e-08
1.77718e-08
-2.2648e-07
1.7787e-08
5.26823e-08
-4.75803e-07
3.93449e-08
9.706e-08
-6.3239e-07
5.44095e-08
1.45988e-07
-7.33949e-07
6.67941e-08
1.94866e-07
-7.97474e-07
7.87218e-08
2.39217e-07
-8.32414e-07
9.15039e-08
2.74749e-07
-8.45182e-07
1.05811e-07
2.97542e-07
-8.40749e-07
1.21812e-07
3.04469e-07
-8.23559e-07
1.39233e-07
2.93407e-07
-7.97781e-07
1.57456e-07
2.63594e-07
-7.67586e-07
1.75494e-07
2.15889e-07
-7.37075e-07
1.92143e-07
1.52829e-07
-7.10081e-07
2.06119e-07
7.85203e-08
-6.89947e-07
2.16223e-07
-1.74405e-09
-6.79112e-07
2.2153e-07
-8.20484e-08
-6.78873e-07
2.21589e-07
-1.56476e-07
-6.89222e-07
2.16403e-07
-2.19725e-07
-7.0883e-07
2.0643e-07
-2.67677e-07
-7.35242e-07
1.92586e-07
-2.97794e-07
-7.65108e-07
1.76096e-07
-3.0919e-07
-7.94562e-07
1.58264e-07
-3.0259e-07
-8.19493e-07
1.40279e-07
-2.80051e-07
-8.35749e-07
1.23117e-07
-2.44652e-07
-8.39148e-07
1.07422e-07
-2.00184e-07
-8.25355e-07
9.34429e-08
-1.50841e-07
-7.89523e-07
8.09865e-08
-1.01047e-07
-7.25454e-07
6.92992e-08
-5.5342e-08
-6.24033e-07
5.6941e-08
-1.89256e-08
-4.68879e-07
4.15149e-08
-2.22856e-07
1.89397e-08
1.89904e-08
-2.64475e-07
1.9005e-08
5.57566e-08
-5.54277e-07
4.17079e-08
1.0218e-07
-7.36257e-07
5.74424e-08
1.53145e-07
-8.55311e-07
7.03976e-08
2.0401e-07
-9.31391e-07
8.30517e-08
2.50238e-07
-9.75533e-07
9.68912e-08
2.87406e-07
-9.94999e-07
1.1265e-07
3.11474e-07
-9.95306e-07
1.30489e-07
3.19091e-07
-9.8127e-07
1.50095e-07
3.07917e-07
-9.57349e-07
1.70742e-07
2.77028e-07
-9.27977e-07
1.9128e-07
2.27212e-07
-8.9758e-07
2.10322e-07
1.61061e-07
-8.70276e-07
2.26347e-07
8.29102e-08
-8.49741e-07
2.37944e-07
-1.60121e-09
-8.38626e-07
2.44025e-07
-8.61362e-08
-8.38409e-07
2.4407e-07
-1.64361e-07
-8.49066e-07
2.3807e-07
-2.30612e-07
-8.69156e-07
2.26576e-07
-2.80573e-07
-8.95955e-07
2.10673e-07
-3.11632e-07
-9.25812e-07
1.91764e-07
-3.22953e-07
-9.54595e-07
1.71353e-07
-3.15469e-07
-9.77845e-07
1.50868e-07
-2.91468e-07
-9.91196e-07
1.31446e-07
-2.5424e-07
-9.90175e-07
1.138e-07
-2.07777e-07
-9.70055e-07
9.8236e-08
-1.56442e-07
-9.25421e-07
8.45633e-08
-1.0475e-07
-8.49152e-07
7.20068e-08
-5.73754e-08
-7.3042e-07
5.90121e-08
-1.96454e-08
-5.49611e-07
4.30024e-08
-2.62161e-07
1.96601e-08
1.95445e-08
-3.03579e-07
1.95589e-08
5.71262e-08
-6.34579e-07
4.27205e-08
1.04461e-07
-8.42345e-07
5.87534e-08
1.56379e-07
-9.79342e-07
7.21134e-08
2.08293e-07
-1.06875e-06
8.54448e-08
2.5564e-07
-1.12319e-06
1.00309e-07
2.93974e-07
-1.15081e-06
1.17481e-07
3.19165e-07
-1.15767e-06
1.37169e-07
3.27629e-07
-1.14874e-06
1.59004e-07
3.16852e-07
-1.12873e-06
1.82163e-07
2.85701e-07
-1.10218e-06
2.05352e-07
2.34774e-07
-1.07362e-06
2.26966e-07
1.66721e-07
-1.04744e-06
2.4522e-07
8.59833e-08
-1.02746e-06
2.58461e-07
-1.47326e-09
-1.01658e-06
2.65414e-07
-8.89413e-08
-1.01639e-06
2.6545e-07
-1.69703e-07
-1.02688e-06
2.58575e-07
-2.37826e-07
-1.04644e-06
2.45412e-07
-2.88802e-07
-1.0722e-06
2.27222e-07
-3.20011e-07
-1.1003e-06
2.05695e-07
-3.30837e-07
-1.12636e-06
1.82594e-07
-3.22365e-07
-1.14588e-06
1.59561e-07
-2.97123e-07
-1.1543e-06
1.3786e-07
-2.58631e-07
-1.14697e-06
1.18298e-07
-2.11004e-07
-1.11892e-06
1.01242e-07
-1.58659e-07
-1.06423e-06
8.64671e-08
-1.06165e-07
-9.74815e-07
7.31695e-08
-5.81657e-08
-8.38171e-07
5.9751e-08
-1.99341e-08
-6.31363e-07
4.35197e-08
-3.02044e-07
1.99488e-08
1.94206e-08
-3.42435e-07
1.94362e-08
5.66142e-08
-7.14081e-07
4.23084e-08
1.03403e-07
-9.47312e-07
5.81779e-08
1.54821e-07
-1.10238e-06
7.1621e-08
2.06396e-07
-1.2057e-06
8.53732e-08
2.53746e-07
-1.2716e-06
1.01059e-07
2.92485e-07
-1.30902e-06
1.19464e-07
3.18425e-07
-1.32445e-06
1.40839e-07
3.27881e-07
-1.323e-06
1.64802e-07
3.18089e-07
-1.30939e-06
1.90445e-07
2.87667e-07
-1.2881e-06
2.16348e-07
2.37035e-07
-1.26362e-06
2.40632e-07
1.68706e-07
-1.24037e-06
2.61252e-07
8.71775e-08
-1.22221e-06
2.76276e-07
-1.36742e-09
-1.21223e-06
2.84189e-07
-8.99143e-08
-1.21205e-06
2.84211e-07
-1.71452e-07
-1.22169e-06
2.76344e-07
-2.39783e-07
-1.23948e-06
2.61369e-07
-2.90388e-07
-1.26239e-06
2.40789e-07
-3.20793e-07
-1.28647e-06
2.16574e-07
-3.30553e-07
-1.30737e-06
1.90771e-07
-3.2103e-07
-1.32062e-06
1.65222e-07
-2.94966e-07
-1.32169e-06
1.41327e-07
-2.56038e-07
-1.30593e-06
1.20037e-07
-2.08384e-07
-1.26826e-06
1.01686e-07
-1.56428e-07
-1.20224e-06
8.60556e-08
-1.04572e-07
-1.09899e-06
7.23226e-08
-5.72749e-08
-9.44294e-07
5.88266e-08
-1.96645e-08
-7.1179e-07
4.28172e-08
-3.41388e-07
1.96792e-08
1.85157e-08
-3.79473e-07
1.85221e-08
5.38518e-08
-7.89608e-07
4.01912e-08
9.83382e-08
-1.04709e-06
5.52895e-08
1.47364e-07
-1.2198e-06
6.83928e-08
1.96857e-07
-1.33737e-06
8.21845e-08
2.42695e-07
-1.41573e-06
9.82917e-08
2.80704e-07
-1.46461e-06
1.17584e-07
3.06782e-07
-1.49081e-06
1.40281e-07
3.17218e-07
-1.49948e-06
1.66044e-07
3.09061e-07
-1.49513e-06
1.93895e-07
2.80654e-07
-1.48199e-06
2.22291e-07
2.32122e-07
-1.46431e-06
2.49224e-07
1.65693e-07
-1.44628e-06
2.72341e-07
8.58163e-08
-1.43165e-06
2.89312e-07
-1.28268e-09
-1.42343e-06
2.98298e-07
-8.83741e-08
-1.42327e-06
2.9831e-07
-1.68219e-07
-1.43119e-06
2.8935e-07
-2.34609e-07
-1.4455e-06
2.72407e-07
-2.83097e-07
-1.46324e-06
2.49345e-07
-3.11439e-07
-1.48059e-06
2.22463e-07
-3.19492e-07
-1.4934e-06
1.94081e-07
-3.08931e-07
-1.49748e-06
1.66301e-07
-2.8268e-07
-1.48856e-06
1.40617e-07
-2.44457e-07
-1.46213e-06
1.17977e-07
-1.98359e-07
-1.41311e-06
9.87466e-08
-1.48556e-07
-1.33472e-06
8.2673e-08
-9.91545e-08
-1.21726e-06
6.8863e-08
-5.43056e-08
-1.04486e-06
5.57202e-08
-1.86655e-08
-7.87954e-07
4.05233e-08
-3.78733e-07
1.86794e-08
1.66941e-08
-4.12869e-07
1.67015e-08
4.84518e-08
-8.57465e-07
3.60991e-08
8.85422e-08
-1.13692e-06
4.97398e-08
1.32936e-07
-1.32611e-06
6.19146e-08
1.78119e-07
-1.45774e-06
7.51856e-08
2.20472e-07
-1.54921e-06
9.11279e-08
2.56221e-07
-1.61096e-06
1.10597e-07
2.81526e-07
-1.64996e-06
1.33851e-07
2.92782e-07
-1.67134e-06
1.6061e-07
2.86903e-07
-1.67923e-06
1.8998e-07
2.61955e-07
-1.6774e-06
2.20357e-07
2.17725e-07
-1.66961e-06
2.49526e-07
1.56039e-07
-1.65943e-06
2.74836e-07
8.10261e-08
-1.6503e-06
2.93663e-07
-1.21926e-09
-1.6449e-06
3.03718e-07
-8.34491e-08
-1.64476e-06
3.0372e-07
-1.58424e-07
-1.64989e-06
2.93674e-07
-2.20042e-07
-1.65874e-06
2.74859e-07
-2.64188e-07
-1.66865e-06
2.49552e-07
-2.89e-07
-1.67619e-06
2.20419e-07
-2.94721e-07
-1.6778e-06
1.90118e-07
-2.83323e-07
-1.66968e-06
1.60802e-07
-2.57844e-07
-1.6481e-06
1.34065e-07
-2.21854e-07
-1.60898e-06
1.10856e-07
-1.79261e-07
-1.54712e-06
9.14213e-08
-1.33791e-07
-1.45569e-06
7.54995e-08
-8.91283e-08
-1.32415e-06
6.22256e-08
-4.878e-08
-1.13524e-06
5.00244e-08
-1.67945e-08
-8.56259e-07
3.63198e-08
-4.12335e-07
1.68077e-08
1.38436e-08
-4.40561e-07
1.3848e-08
4.01357e-08
-9.13548e-07
2.97913e-08
7.33834e-08
-1.21131e-06
4.11416e-08
1.10533e-07
-1.41493e-06
5.1675e-08
1.48809e-07
-1.55969e-06
6.36673e-08
1.85303e-07
-1.66426e-06
7.8553e-08
2.16856e-07
-1.73966e-06
9.71555e-08
2.40106e-07
-1.79304e-06
1.19825e-07
2.51693e-07
-1.82927e-06
1.46337e-07
2.48612e-07
-1.852e-06
1.75852e-07
2.28759e-07
-1.86437e-06
2.06822e-07
1.91414e-07
-1.86934e-06
2.37079e-07
1.37909e-07
-1.8697e-06
2.63775e-07
7.18347e-08
-1.86811e-06
2.83889e-07
-1.17103e-09
-1.86664e-06
2.94748e-07
-7.4154e-08
-1.86652e-06
2.94744e-07
-1.40167e-07
-1.86776e-06
2.83884e-07
-1.93568e-07
-1.86911e-06
2.63771e-07
-2.30807e-07
-1.86851e-06
2.37105e-07
-2.50523e-07
-1.86335e-06
2.06877e-07
-2.53467e-07
-1.85077e-06
1.7591e-07
-2.41698e-07
-1.82788e-06
1.46429e-07
-2.18223e-07
-1.79153e-06
1.19951e-07
-1.86477e-07
-1.73804e-06
9.73136e-08
-1.49736e-07
-1.6626e-06
7.87372e-08
-1.11227e-07
-1.55807e-06
6.38689e-08
-7.38185e-08
-1.41343e-06
5.18783e-08
-4.03439e-08
-1.21004e-06
4.13296e-08
-1.39101e-08
-9.12633e-07
2.99404e-08
-4.40167e-07
1.39223e-08
9.89503e-09
-4.60357e-07
9.90155e-09
2.86331e-08
-9.53419e-07
2.1133e-08
5.25428e-08
-1.26454e-06
2.93208e-08
7.96274e-08
-1.47942e-06
3.73985e-08
1.08165e-07
-1.63541e-06
4.71847e-08
1.36103e-07
-1.75209e-06
5.98926e-08
1.6115e-07
-1.84092e-06
7.62118e-08
1.8066e-07
-1.90906e-06
9.65159e-08
1.91792e-07
-1.96112e-06
1.20719e-07
1.91799e-07
-2.00019e-06
1.48185e-07
1.78501e-07
-2.02863e-06
1.7756e-07
1.50844e-07
-2.04838e-06
2.06695e-07
1.09502e-07
-2.06115e-06
2.32798e-07
5.72422e-08
-2.0686e-06
2.52747e-07
-1.13539e-09
-2.07187e-06
2.63606e-07
-5.94908e-08
-2.07179e-06
2.63622e-07
-1.11697e-07
-2.0683e-06
2.5275e-07
-1.52916e-07
-2.06066e-06
2.32768e-07
-1.80431e-07
-2.04766e-06
2.06665e-07
-1.93568e-07
-2.02776e-06
1.77543e-07
-1.93379e-07
-1.99914e-06
1.48186e-07
-1.82052e-07
-1.95995e-06
1.20745e-07
-1.62336e-07
-1.90781e-06
9.65694e-08
-1.37074e-07
-1.83959e-06
7.62916e-08
-1.08904e-07
-1.75077e-06
5.9995e-08
-8.01618e-08
-1.63411e-06
4.73028e-08
-5.28742e-08
-1.47824e-06
3.7523e-08
-2.87943e-08
-1.26356e-06
2.94394e-08
-9.94411e-09
-9.52715e-07
2.1232e-08
-4.60067e-07
9.95541e-09
4.87508e-09
-4.70102e-07
4.86997e-09
1.40729e-08
-9.728e-07
1.01829e-08
2.61295e-08
-1.29089e-06
1.43004e-08
4.04087e-08
-1.51278e-06
1.90816e-08
5.62792e-08
-1.67692e-06
2.56431e-08
7.28885e-08
-1.80351e-06
3.48169e-08
8.8946e-08
-1.90419e-06
4.72128e-08
1.02803e-07
-1.98601e-06
6.30959e-08
1.12395e-07
-2.05321e-06
8.25046e-08
1.15469e-07
-2.10827e-06
1.05002e-07
1.10072e-07
-2.15274e-06
1.29508e-07
9.48438e-08
-2.18747e-06
1.54318e-07
6.98477e-08
-2.21308e-06
1.76919e-07
3.67076e-08
-2.22992e-06
1.94461e-07
-1.10816e-09
-2.23823e-06
2.04173e-07
-3.88974e-08
-2.23816e-06
2.0416e-07
-7.19656e-08
-2.22966e-06
1.94424e-07
-9.684e-08
-2.21265e-06
1.76865e-07
-1.11902e-07
-2.18689e-06
1.54286e-07
-1.17139e-07
-2.152e-06
1.29475e-07
-1.13853e-07
-2.10738e-06
1.04957e-07
-1.04057e-07
-2.05223e-06
8.24783e-08
-9.00031e-08
-1.98496e-06
6.30936e-08
-7.37182e-08
-1.90311e-06
4.7233e-08
-5.6927e-08
-1.80241e-06
3.48564e-08
-4.08461e-08
-1.67589e-06
2.57004e-08
-2.63912e-08
-1.51185e-06
1.91499e-08
-1.42105e-08
-1.29011e-06
1.4374e-08
-4.89966e-09
-9.72276e-07
1.02496e-08
-4.69877e-07
4.91036e-09
-1.08473e-09
-4.67929e-07
-1.08792e-09
-3.12462e-09
-9.68036e-07
-2.72451e-09
-5.09075e-09
-1.28551e-06
-3.42037e-09
-6.0694e-09
-1.50905e-06
-2.75226e-09
-5.41056e-09
-1.67719e-06
-3.94557e-10
-2.70548e-09
-1.81018e-06
3.96345e-09
2.01317e-09
-1.91957e-06
1.06529e-08
8.28167e-09
-2.01221e-06
1.99244e-08
1.50691e-08
-2.09182e-06
3.18204e-08
2.10339e-08
-2.16042e-06
4.61858e-08
2.45473e-08
-2.21866e-06
6.24087e-08
2.42427e-08
-2.26646e-06
7.92913e-08
1.94111e-08
-2.30325e-06
9.50021e-08
1.0414e-08
-2.32834e-06
1.07422e-07
-1.08457e-09
-2.34107e-06
1.14341e-07
-1.25498e-08
-2.34099e-06
1.14292e-07
-2.14451e-08
-2.32811e-06
1.07341e-07
-2.61674e-08
-2.30285e-06
9.49248e-08
-2.63257e-08
-2.2659e-06
7.91727e-08
-2.26225e-08
-2.21799e-06
6.22876e-08
-1.64568e-08
-2.15965e-06
4.6101e-08
-9.44384e-09
-2.09099e-06
3.17519e-08
-2.97789e-09
-2.0113e-06
1.98737e-08
1.96433e-09
-1.91867e-06
1.06244e-08
4.86928e-09
-1.80927e-06
3.95594e-09
5.69738e-09
-1.67634e-06
-3.85431e-10
4.87609e-09
-1.5083e-06
-2.7263e-09
3.04983e-09
-1.28491e-06
-3.38183e-09
1.06633e-09
-9.67611e-07
-2.6813e-09
-4.67754e-07
-1.0559e-09
-7.71834e-09
-4.5249e-07
-7.72085e-09
-2.22132e-08
-9.36476e-07
-1.70649e-08
-3.96807e-08
-1.24491e-06
-2.31302e-08
-5.7662e-08
-1.46392e-06
-2.71393e-08
-7.4085e-08
-1.63104e-06
-2.97234e-08
-8.72295e-08
-1.76583e-06
-3.1212e-08
-9.5671e-08
-1.87948e-06
-3.16444e-08
-9.85741e-08
-1.97841e-06
-3.08963e-08
-9.56163e-08
-2.066e-06
-2.87782e-08
-8.7146e-08
-2.1437e-06
-2.51917e-08
-7.40926e-08
-2.21144e-06
-2.02719e-08
-5.77383e-08
-2.26837e-06
-1.44383e-08
-3.94489e-08
-2.31307e-06
-8.46914e-09
-2.03456e-08
-2.34403e-06
-3.41989e-09
-1.055e-09
-2.35989e-06
-4.73276e-10
1.82619e-08
-2.35981e-06
-4.97058e-10
3.74331e-08
-2.34379e-06
-3.48156e-09
5.58737e-08
-2.31273e-06
-8.56115e-09
7.239e-08
-2.26787e-06
-1.4549e-08
8.56335e-08
-2.21085e-06
-2.03868e-08
9.43075e-08
-2.14302e-06
-2.53029e-08
9.74631e-08
-2.06527e-06
-2.88772e-08
9.47858e-08
-1.97764e-06
-3.09786e-08
8.65349e-08
-1.87872e-06
-3.17072e-08
7.35852e-08
-1.76507e-06
-3.1254e-08
5.73468e-08
-1.63035e-06
-2.97457e-08
3.95109e-08
-1.46332e-06
-2.71423e-08
2.21321e-08
-1.24441e-06
-2.31166e-08
7.70606e-09
-9.36146e-07
-1.70384e-08
-4.52353e-07
-7.69544e-09
-1.4603e-08
-4.2328e-07
-1.4607e-08
-4.19967e-08
-8.7719e-07
-3.18921e-08
-7.55859e-08
-1.16782e-06
-4.35037e-08
-1.11271e-07
-1.37575e-06
-5.24867e-08
-1.45648e-07
-1.53615e-06
-6.05113e-08
-1.75594e-07
-1.66739e-06
-6.84885e-08
-1.98244e-07
-1.77997e-06
-7.68558e-08
-2.1125e-07
-1.87973e-06
-8.56696e-08
-2.12859e-07
-1.9697e-06
-9.46918e-08
-2.02224e-07
-2.05074e-06
-1.03587e-07
-1.79423e-07
-2.12242e-06
-1.11824e-07
-1.45586e-07
-2.18334e-06
-1.18871e-07
-1.02692e-07
-2.23158e-06
-1.24377e-07
-5.34759e-08
-2.26519e-06
-1.28052e-07
-1.01942e-09
-2.28246e-06
-1.29882e-07
5.147e-08
-2.28239e-06
-1.29905e-07
1.00778e-07
-2.26502e-06
-1.28087e-07
1.43776e-07
-2.23129e-06
-1.24444e-07
1.77779e-07
-2.18289e-06
-1.18986e-07
2.00769e-07
-2.12189e-06
-1.11949e-07
2.11605e-07
-2.05015e-06
-1.03712e-07
2.10189e-07
-1.96905e-06
-9.48082e-08
1.97408e-07
-1.87909e-06
-8.5771e-08
1.74943e-07
-1.77931e-06
-7.69413e-08
1.45197e-07
-1.66677e-06
-6.85532e-08
1.10975e-07
-1.53558e-06
-6.05549e-08
7.54274e-08
-1.37526e-06
-5.251e-08
4.19444e-08
-1.16742e-06
-4.35058e-08
1.45959e-08
-8.76923e-07
-3.18752e-08
-4.23173e-07
-1.45845e-08
-2.12543e-08
-3.80769e-07
-2.12569e-08
-6.10723e-08
-7.91207e-07
-4.61652e-08
-1.10183e-07
-1.05555e-06
-6.31541e-08
-1.63065e-07
-1.2459e-06
-7.69762e-08
-2.15012e-07
-1.39387e-06
-9.03329e-08
-2.61523e-07
-1.51606e-06
-1.04823e-07
-2.98351e-07
-1.62191e-06
-1.21237e-07
-3.21585e-07
-1.71673e-06
-1.39772e-07
-3.28057e-07
-1.80301e-06
-1.60217e-07
-3.15608e-07
-1.88136e-06
-1.81831e-07
-2.83472e-07
-1.95109e-06
-2.0346e-07
-2.32536e-07
-2.01056e-06
-2.2372e-07
-1.65382e-07
-2.0578e-06
-2.40942e-07
-8.63273e-08
-2.09073e-06
-2.53515e-07
-9.74442e-10
-2.10766e-06
-2.60154e-07
8.44007e-08
-2.10759e-06
-2.60173e-07
1.63532e-07
-2.09054e-06
-2.53602e-07
2.30789e-07
-2.05749e-06
-2.41054e-07
2.8191e-07
-2.01018e-06
-2.23828e-07
3.14209e-07
-1.95061e-06
-2.03579e-07
3.2684e-07
-1.88083e-06
-1.81952e-07
3.20582e-07
-1.80245e-06
-1.60336e-07
2.97526e-07
-1.71615e-06
-1.39881e-07
2.60906e-07
-1.62136e-06
-1.21331e-07
2.14565e-07
-1.51553e-06
-1.049e-07
1.6278e-07
-1.3934e-06
-9.03921e-08
1.10039e-07
-1.24553e-06
-7.69983e-08
6.10108e-08
-1.05524e-06
-6.3152e-08
2.1249e-08
-7.91004e-07
-4.61564e-08
-3.80686e-07
-2.12374e-08
-2.70877e-08
-3.26591e-07
-2.70901e-08
-7.77762e-08
-6.81886e-07
-5.86325e-08
-1.40595e-07
-9.12485e-07
-8.02474e-08
-2.0879e-07
-1.07939e-06
-9.8314e-08
-2.76585e-07
-1.20962e-06
-1.16458e-07
-3.38248e-07
-1.31756e-06
-1.36834e-07
-3.88125e-07
-1.41145e-06
-1.60581e-07
-4.20914e-07
-1.49587e-06
-1.88072e-07
-4.32061e-07
-1.57293e-06
-2.18936e-07
-4.18205e-07
-1.64309e-06
-2.52131e-07
-3.77787e-07
-1.70552e-06
-2.85992e-07
-3.11367e-07
-1.75879e-06
-3.1819e-07
-2.22237e-07
-1.80099e-06
-3.4594e-07
-1.16134e-07
-1.83035e-06
-3.66488e-07
-9.16043e-10
-1.84539e-06
-3.77488e-07
1.14324e-07
-1.84533e-06
-3.77503e-07
2.20488e-07
-1.83018e-06
-3.66533e-07
3.09741e-07
-1.80073e-06
-3.46011e-07
3.76256e-07
-1.75841e-06
-3.1828e-07
4.16868e-07
-1.70512e-06
-2.86098e-07
4.30904e-07
-1.64262e-06
-2.5224e-07
4.19957e-07
-1.57246e-06
-2.19049e-07
3.87358e-07
-1.49538e-06
-1.8818e-07
3.37658e-07
-1.41098e-06
-1.60677e-07
2.7618e-07
-1.31714e-06
-1.36916e-07
2.08546e-07
-1.20924e-06
-1.16523e-07
1.40461e-07
-1.07907e-06
-9.83743e-08
7.77296e-08
-9.12232e-07
-8.02777e-08
2.70845e-08
-6.81731e-07
-5.86282e-08
-3.2653e-07
-2.70719e-08
-3.14729e-08
-2.63647e-07
-3.14709e-08
-9.04122e-08
-5.54975e-07
-6.79717e-08
-1.63856e-07
-7.46009e-07
-9.30328e-08
-2.44225e-07
-8.84745e-07
-1.14272e-07
-3.24866e-07
-9.92891e-07
-1.36086e-07
-3.99016e-07
-1.0823e-06
-1.61107e-07
-4.59846e-07
-1.1599e-06
-1.90717e-07
-5.00814e-07
-1.22952e-06
-2.25375e-07
-5.16122e-07
-1.29299e-06
-2.64628e-07
-5.01389e-07
-1.35064e-06
-3.07184e-07
-4.54346e-07
-1.40177e-06
-3.50798e-07
-3.75479e-07
-1.44519e-06
-3.92466e-07
-2.68485e-07
-1.47942e-06
-4.28555e-07
-1.40355e-07
-1.50313e-06
-4.55346e-07
-8.48247e-10
-1.51525e-06
-4.69645e-07
1.38674e-07
-1.5152e-06
-4.69653e-07
2.6686e-07
-1.50299e-06
-4.55375e-07
3.73935e-07
-1.4792e-06
-4.28606e-07
4.52935e-07
-1.44488e-06
-3.9253e-07
5.00126e-07
-1.40143e-06
-3.50883e-07
5.15027e-07
-1.35025e-06
-3.07273e-07
4.99885e-07
-1.29259e-06
-2.64723e-07
4.59123e-07
-1.22914e-06
-2.25469e-07
3.98453e-07
-1.15951e-06
-1.90803e-07
3.2447e-07
-1.08197e-06
-1.61186e-07
2.43969e-07
-9.92589e-07
-1.36152e-07
1.6372e-07
-8.84501e-07
-1.14318e-07
9.03727e-08
-7.4583e-07
-9.30545e-08
3.14666e-08
-5.54855e-07
-6.79694e-08
-2.63608e-07
-3.14547e-08
-3.3766e-08
-1.96112e-07
-3.37692e-08
-9.72948e-08
-4.18658e-07
-7.27882e-08
-1.7708e-07
-5.66667e-07
-9.95559e-08
-2.65297e-07
-6.7412e-07
-1.22409e-07
-3.54696e-07
-7.57242e-07
-1.46249e-07
-4.37716e-07
-8.25229e-07
-1.74054e-07
-5.06601e-07
-8.83625e-07
-2.07393e-07
-5.53744e-07
-9.3564e-07
-2.46739e-07
-5.72481e-07
-9.82697e-07
-2.91557e-07
-5.57621e-07
-1.02517e-06
-3.40323e-07
-5.06385e-07
-1.06258e-06
-3.90423e-07
-4.19156e-07
-1.0941e-06
-4.3832e-07
-3.00033e-07
-1.11878e-06
-4.79769e-07
-1.56878e-07
-1.13575e-06
-5.10541e-07
-7.69242e-10
-1.14437e-06
-5.26991e-07
1.55354e-07
-1.14433e-06
-5.26994e-07
2.98554e-07
-1.13563e-06
-5.10555e-07
4.17763e-07
-1.11862e-06
-4.79786e-07
5.05092e-07
-1.09389e-06
-4.38328e-07
5.56437e-07
-1.06232e-06
-3.90458e-07
5.71449e-07
-1.02487e-06
-3.40389e-07
5.52894e-07
-9.82401e-07
-2.91634e-07
5.05897e-07
-9.35327e-07
-2.46821e-07
4.37202e-07
-8.83342e-07
-2.07471e-07
3.54332e-07
-8.24968e-07
-1.74128e-07
2.65063e-07
-7.57011e-07
-1.46309e-07
1.76966e-07
-6.73948e-07
-1.22455e-07
9.72486e-08
-5.66534e-07
-9.95789e-08
3.37659e-08
-4.18584e-07
-7.27883e-08
-1.96088e-07
-3.37548e-08
-3.33499e-08
-1.29412e-07
-3.33497e-08
-9.68207e-08
-2.83454e-07
-7.17323e-08
-1.77752e-07
-3.87866e-07
-9.78699e-08
-2.68547e-07
-4.63089e-07
-1.20237e-07
-3.61713e-07
-5.20142e-07
-1.43934e-07
-4.49149e-07
-5.65693e-07
-1.721e-07
-5.22422e-07
-6.03954e-07
-2.06398e-07
-5.73355e-07
-6.37399e-07
-2.47309e-07
-5.94611e-07
-6.6723e-07
-2.9421e-07
-5.80582e-07
-6.93786e-07
-3.45418e-07
-5.2819e-07
-7.16868e-07
-3.98102e-07
-4.37778e-07
-7.36044e-07
-4.48464e-07
-3.13607e-07
-7.50868e-07
-4.92082e-07
-1.63997e-07
-7.60922e-07
-5.24433e-07
-6.81194e-10
-7.6599e-07
-5.41693e-07
1.62645e-07
-7.65963e-07
-5.41692e-07
3.1229e-07
-7.60842e-07
-5.24434e-07
4.36519e-07
-7.50739e-07
-4.92112e-07
5.27025e-07
-7.35879e-07
-4.48512e-07
5.79515e-07
-7.16665e-07
-3.98141e-07
5.9368e-07
-6.93574e-07
-3.45464e-07
5.72552e-07
-6.67005e-07
-2.94269e-07
5.21785e-07
-6.37186e-07
-2.47373e-07
4.48659e-07
-6.03751e-07
-2.06465e-07
3.61368e-07
-5.65512e-07
-1.72165e-07
2.68335e-07
-5.19989e-07
-1.4399e-07
1.77642e-07
-4.62974e-07
-1.20281e-07
9.6786e-08
-3.87784e-07
-9.78933e-08
3.33472e-08
-2.83411e-07
-7.17348e-08
-1.29402e-07
-3.33379e-08
-2.9649e-08
-7.01146e-08
-2.96488e-08
-8.77644e-08
-1.61799e-07
-6.35394e-08
-1.63958e-07
-2.25518e-07
-8.61538e-08
-2.51369e-07
-2.70313e-07
-1.05364e-07