/*--------------------------------*- C++ -*----------------------------------*\
| =========                 |                                                 |
| \\      /  F ield         | OpenFOAM: The Open Source CFD Toolbox           |
|  \\    /   O peration     | Version:  v1906                                 |
|   \\  /    A nd           | Web:      www.OpenFOAM.com                      |
|    \\/     M anipulation  |                                                 |
\*---------------------------------------------------------------------------*/
FoamFile
{
    version     2.0;
    format      ascii;
    class       volVectorField;
    location    "79.4/oil";
    object      U;
}
// * * * * * * * * * * * * * * * * * * * * * * * * * * * * * * * * * * * * * //

dimensions      [0 1 -1 0 0 0 0];


internalField   nonuniform List<vector> 
27760
(
(-2.41525e-05 -2.46072e-05 -2.41525e-05)
(-4.76709e-05 -1.84571e-05 -1.74036e-05)
(-3.46431e-06 -4.78044e-06 -4.77078e-06)
(-5.63017e-06 -7.71657e-07 -8.85829e-07)
(-1.09364e-06 -2.38024e-07 -3.72639e-07)
(-3.2867e-07 -8.90071e-08 -2.36929e-07)
(3.5962e-07 1.97124e-09 -1.57874e-07)
(7.12941e-07 4.2703e-08 -1.26168e-07)
(9.11099e-07 6.69042e-08 -1.0797e-07)
(9.85478e-07 8.28147e-08 -9.53892e-08)
(9.58774e-07 9.43582e-08 -8.49067e-08)
(8.44468e-07 1.03313e-07 -7.56837e-08)
(6.56944e-07 1.10049e-07 -6.80955e-08)
(4.13182e-07 1.14642e-07 -6.26117e-08)
(1.33583e-07 1.17034e-07 -5.96754e-08)
(-1.59109e-07 1.17183e-07 -5.95274e-08)
(-4.41501e-07 1.15135e-07 -6.21239e-08)
(-6.91492e-07 1.11039e-07 -6.71118e-08)
(-8.90243e-07 1.05144e-07 -7.38526e-08)
(-1.02379e-06 9.77511e-08 -8.14783e-08)
(-1.08431e-06 8.92198e-08 -8.89263e-08)
(-1.0702e-06 7.99311e-08 -9.47889e-08)
(-9.86722e-07 6.98191e-08 -9.83008e-08)
(-8.4565e-07 5.93894e-08 -9.81977e-08)
(-6.63997e-07 4.88889e-08 -9.3528e-08)
(-4.63687e-07 3.87951e-08 -8.36885e-08)
(-2.70196e-07 3.00922e-08 -6.88029e-08)
(-1.11012e-07 2.45321e-08 -5.0211e-08)
(-1.04503e-08 2.42531e-08 -3.14655e-08)
(1.28592e-08 2.51931e-08 -1.28248e-08)
(-1.75191e-05 -4.89782e-05 -1.75191e-05)
(-5.71509e-06 -6.37767e-06 -7.84673e-06)
(-7.65992e-06 -7.74028e-06 -2.7475e-06)
(-3.33956e-06 -2.28739e-06 -7.95562e-07)
(-9.73743e-07 -1.4141e-06 -4.05413e-07)
(2.34769e-07 -7.8573e-07 -2.09775e-07)
(1.12307e-06 -4.9805e-07 -1.13298e-07)
(1.6714e-06 -3.23439e-07 -6.38966e-08)
(1.98812e-06 -2.03205e-07 -3.20788e-08)
(2.0963e-06 -1.08062e-07 -8.09629e-09)
(2.01596e-06 -2.81353e-08 1.24306e-08)
(1.76512e-06 3.91826e-08 3.01324e-08)
(1.36825e-06 9.2753e-08 4.45755e-08)
(8.583e-07 1.30496e-07 5.49326e-08)
(2.7595e-07 1.50486e-07 6.04582e-08)
(-3.32895e-07 1.51708e-07 6.07425e-08)
(-9.20785e-07 1.3443e-07 5.58588e-08)
(-1.44285e-06 1.00316e-07 4.63993e-08)
(-1.86082e-06 5.22932e-08 3.342e-08)
(-2.14634e-06 -5.72688e-09 1.83489e-08)
(-2.28335e-06 -6.91888e-08 2.81114e-09)
(-2.26923e-06 -1.33135e-07 -1.13522e-08)
(-2.11446e-06 -1.92918e-07 -2.24696e-08)
(-1.84225e-06 -2.43368e-07 -2.92619e-08)
(-1.48666e-06 -2.79189e-07 -3.06808e-08)
(-1.09008e-06 -2.94278e-07 -2.63546e-08)
(-7.00046e-07 -2.81125e-07 -1.70329e-08)
(-3.64378e-07 -2.31166e-07 -5.16402e-09)
(-1.23645e-07 -1.37549e-07 4.01084e-09)
(-5.34779e-09 -1.95552e-08 5.40035e-09)
(-4.84028e-06 -4.64536e-06 -4.84023e-06)
(-7.55066e-06 -8.78452e-06 -2.78903e-06)
(-3.76536e-06 -5.12028e-06 -1.21835e-06)
(-1.93552e-06 -3.1189e-06 -5.6477e-07)
(-2.05025e-07 -2.29004e-06 -2.54738e-07)
(9.55686e-07 -1.74724e-06 -1.0191e-07)
(1.84056e-06 -1.42667e-06 -2.01547e-08)
(2.43436e-06 -1.18901e-06 2.751e-08)
(2.77899e-06 -9.91363e-07 6.14665e-08)
(2.87876e-06 -8.13671e-07 8.90586e-08)
(2.74368e-06 -6.52121e-07 1.13312e-07)
(2.39027e-06 -5.10279e-07 1.3447e-07)
(1.8474e-06 -3.94663e-07 1.51798e-07)
(1.15682e-06 -3.12168e-07 1.6422e-07)
(3.71388e-07 -2.68242e-07 1.70839e-07)
(-4.48678e-07 -2.65696e-07 1.71166e-07)
(-1.24087e-06 -3.04055e-07 1.65275e-07)
(-1.94603e-06 -3.79407e-07 1.53832e-07)
(-2.5137e-06 -4.84717e-07 1.3803e-07)
(-2.90657e-06 -6.10451e-07 1.19483e-07)
(-3.10348e-06 -7.45434e-07 9.99917e-08)
(-3.10089e-06 -8.77486e-07 8.14406e-08)
(-2.9126e-06 -9.94045e-07 6.55112e-08)
(-2.56848e-06 -1.08245e-06 5.35295e-08)
(-2.11158e-06 -1.12939e-06 4.6299e-08)
(-1.59467e-06 -1.12047e-06 4.3833e-08)
(-1.07547e-06 -1.03956e-06 4.49526e-08)
(-6.09816e-07 -8.69341e-07 4.65862e-08)
(-2.47193e-07 -5.93527e-07 4.28685e-08)
(-2.37668e-08 -2.17513e-07 2.38292e-08)
(-8.60703e-07 -6.80872e-06 -8.60647e-07)
(-1.87901e-06 -5.50152e-06 -7.62563e-07)
(-1.36052e-06 -4.83916e-06 -5.35905e-07)
(-3.89183e-07 -3.93009e-06 -2.57094e-07)
(7.74139e-07 -3.42689e-06 -9.29078e-08)
(1.74705e-06 -3.04299e-06 2.29965e-09)
(2.55043e-06 -2.74954e-06 6.18927e-08)
(3.12418e-06 -2.48005e-06 1.02751e-07)
(3.45455e-06 -2.21707e-06 1.35599e-07)
(3.52447e-06 -1.95689e-06 1.64489e-07)
(3.33189e-06 -1.70735e-06 1.90811e-07)
(2.88947e-06 -1.48157e-06 2.14149e-07)
(2.22749e-06 -1.2944e-06 2.33383e-07)
(1.39323e-06 -1.15966e-06 2.47207e-07)
(4.48054e-07 -1.0877e-06 2.54568e-07)
(-5.37371e-07 -1.08386e-06 2.54897e-07)
(-1.48943e-06 -1.14754e-06 2.4826e-07)
(-2.33833e-06 -1.27199e-06 2.35375e-07)
(-3.02459e-06 -1.44493e-06 2.17537e-07)
(-3.50431e-06 -1.64961e-06 1.96473e-07)
(-3.75264e-06 -1.86628e-06 1.74099e-07)
(-3.76539e-06 -2.0735e-06 1.52337e-07)
(-3.55844e-06 -2.24911e-06 1.32864e-07)
(-3.16581e-06 -2.37071e-06 1.16968e-07)
(-2.63609e-06 -2.41535e-06 1.05299e-07)
(-2.02798e-06 -2.35908e-06 9.76774e-08)
(-1.4051e-06 -2.1759e-06 9.27385e-08)
(-8.28363e-07 -1.83713e-06 8.69973e-08)
(-3.56586e-07 -1.30857e-06 7.40043e-08)
(-3.90881e-08 -5.50177e-07 3.91621e-08)
(-2.68248e-07 -2.72581e-06 -2.68181e-07)
(-7.78327e-07 -4.39116e-06 -3.07943e-07)
(-2.17968e-07 -4.89723e-06 -1.91907e-07)
(5.90874e-07 -4.86992e-06 -6.60758e-08)
(1.55207e-06 -4.77916e-06 2.20206e-08)
(2.44025e-06 -4.60716e-06 8.13889e-08)
(3.19923e-06 -4.38704e-06 1.24937e-07)
(3.75493e-06 -4.11467e-06 1.60022e-07)
(4.06648e-06 -3.80188e-06 1.91739e-07)
(4.10358e-06 -3.46546e-06 2.21729e-07)
(3.85551e-06 -3.1282e-06 2.50047e-07)
(3.33182e-06 -2.81558e-06 2.75606e-07)
(2.56369e-06 -2.55293e-06 2.96846e-07)
(1.60276e-06 -2.3625e-06 3.12176e-07)
(5.17536e-07 -2.26063e-06 3.20333e-07)
(-6.12452e-07 -2.25577e-06 3.2064e-07)
(-1.70402e-06 -2.34724e-06 3.13151e-07)
(-2.67827e-06 -2.52517e-06 2.98653e-07)
(-3.46799e-06 -2.77124e-06 2.78595e-07)
(-4.02374e-06 -3.06046e-06 2.54854e-07)
(-4.31769e-06 -3.36335e-06 2.29521e-07)
(-4.34515e-06 -3.64791e-06 2.04642e-07)
(-4.12363e-06 -3.88115e-06 1.81957e-07)
(-3.69035e-06 -4.03e-06 1.62756e-07)
(-3.09805e-06 -4.06107e-06 1.4764e-07)
(-2.40992e-06 -3.93993e-06 1.36329e-07)
(-1.69442e-06 -3.62907e-06 1.27341e-07)
(-1.01759e-06 -3.08461e-06 1.16818e-07)
(-4.48549e-07 -2.24453e-06 9.76171e-08)
(-5.10724e-08 -9.96641e-07 5.11616e-08)
(-9.53489e-08 -2.59773e-06 -9.52676e-08)
(-3.06564e-08 -4.65881e-06 -7.58253e-08)
(5.26908e-07 -5.73644e-06 -1.49601e-08)
(1.29734e-06 -6.23435e-06 4.75564e-08)
(2.18954e-06 -6.45574e-06 9.79714e-08)
(3.04932e-06 -6.46438e-06 1.37657e-07)
(3.79414e-06 -6.31978e-06 1.72084e-07)
(4.3434e-06 -6.05321e-06 2.04334e-07)
(4.64145e-06 -5.6988e-06 2.36463e-07)
(4.6491e-06 -5.29157e-06 2.6859e-07)
(4.34949e-06 -4.8693e-06 2.99805e-07)
(3.74973e-06 -4.47054e-06 3.28411e-07)
(2.882e-06 -4.132e-06 3.52378e-07)
(1.802e-06 -3.88513e-06 3.69736e-07)
(5.85103e-07 -3.75298e-06 3.78963e-07)
(-6.80705e-07 -3.74743e-06 3.79241e-07)
(-1.90306e-06 -3.86784e-06 3.70606e-07)
(-2.99431e-06 -4.10092e-06 3.53958e-07)
(-3.87994e-06 -4.42195e-06 3.30957e-07)
(-4.50534e-06 -4.79705e-06 3.03756e-07)
(-4.84018e-06 -5.1864e-06 2.74729e-07)
(-4.87942e-06 -5.54674e-06 2.46137e-07)
(-4.64233e-06 -5.83371e-06 2.19868e-07)
(-4.16929e-06 -6.00309e-06 1.97311e-07)
(-3.51691e-06 -6.01047e-06 1.79091e-07)
(-2.75279e-06 -5.80998e-06 1.64876e-07)
(-1.95039e-06 -5.35074e-06 1.53066e-07)
(-1.18159e-06 -4.5692e-06 1.3941e-07)
(-5.25857e-07 -3.36625e-06 1.1595e-07)
(-6.06017e-08 -1.53678e-06 6.07108e-08)
(3.78876e-09 -2.67074e-06 3.88885e-09)
(3.15311e-07 -5.38402e-06 4.12564e-08)
(9.61372e-07 -6.99126e-06 8.05856e-08)
(1.78325e-06 -7.91587e-06 1.16813e-07)
(2.69276e-06 -8.41342e-06 1.49179e-07)
(3.57212e-06 -8.58941e-06 1.79121e-07)
(4.3328e-06 -8.52317e-06 2.0949e-07)
(4.89226e-06 -8.27038e-06 2.41558e-07)
(5.18711e-06 -7.88352e-06 2.75804e-07)
(5.17233e-06 -7.41369e-06 3.11406e-07)
(4.82673e-06 -6.91296e-06 3.46715e-07)
(4.1557e-06 -6.43292e-06 3.79454e-07)
(3.19259e-06 -6.0217e-06 4.0707e-07)
(1.99745e-06 -5.72041e-06 4.27122e-07)
(6.52564e-07 -5.55906e-06 4.37763e-07)
(-7.45379e-07 -5.55316e-06 4.38007e-07)
(-2.0947e-06 -5.70216e-06 4.2788e-07)
(-3.29885e-06 -5.98929e-06 4.08421e-07)
(-4.27597e-06 -6.38319e-06 3.8157e-07)
(-4.96649e-06 -6.84092e-06 3.4989e-07)
(-5.33771e-06 -7.312e-06 3.16131e-07)
(-5.3848e-06 -7.74186e-06 2.82885e-07)
(-5.1292e-06 -8.07479e-06 2.52321e-07)
(-4.61471e-06 -8.25525e-06 2.2596e-07)
(-3.90223e-06 -8.22744e-06 2.04509e-07)
(-3.06407e-06 -7.93318e-06 1.87601e-07)
(-2.17911e-06 -7.30611e-06 1.73514e-07)
(-1.32542e-06 -6.25888e-06 1.57572e-07)
(-5.92119e-07 -4.64698e-06 1.30917e-07)
(-6.84994e-08 -2.15581e-06 6.8634e-08)
(4.52319e-08 -3.12692e-06 4.53522e-08)
(5.0883e-07 -6.51378e-06 9.95373e-08)
(1.24572e-06 -8.60478e-06 1.33229e-07)
(2.14054e-06 -9.89493e-06 1.59773e-07)
(3.10035e-06 -1.06404e-05 1.84714e-07)
(4.02316e-06 -1.09728e-05 2.11114e-07)
(4.81791e-06 -1.09872e-05 2.41078e-07)
(5.40026e-06 -1.07569e-05 2.75249e-07)
(5.7015e-06 -1.03489e-05 3.13289e-07)
(5.67197e-06 -9.82827e-06 3.53798e-07)
(5.28681e-06 -9.25987e-06 3.94521e-07)
(4.54989e-06 -8.70751e-06 4.32561e-07)
(3.49588e-06 -8.23057e-06 4.64789e-07)
(2.1893e-06 -7.87964e-06 4.88243e-07)
(7.19622e-07 -7.69161e-06 5.00666e-07)
(-8.07425e-07 -7.68568e-06 5.00872e-07)
(-2.28052e-06 -7.86138e-06 4.88877e-07)
(-3.59398e-06 -8.19851e-06 4.65907e-07)
(-4.65839e-06 -8.65909e-06 4.34274e-07)
(-5.40934e-06 -9.19119e-06 3.97026e-07)
(-5.81222e-06 -9.73401e-06 3.57392e-07)
(-5.86288e-06 -1.02219e-05 3.18437e-07)
(-5.5855e-06 -1.05881e-05 2.82694e-07)
(-5.02775e-06 -1.0766e-05 2.51871e-07)
(-4.2554e-06 -1.06884e-05 2.26793e-07)
(-3.34578e-06 -1.0284e-05 2.07055e-07)
(-2.38329e-06 -9.46911e-06 1.9082e-07)
(-1.45205e-06 -8.12881e-06 1.72957e-07)
(-6.49686e-07 -6.06619e-06 1.43691e-07)
(-7.52949e-08 -2.84301e-06 7.54586e-08)
(6.70326e-08 -3.75047e-06 6.71763e-08)
(6.24005e-07 -7.88442e-06 1.32596e-07)
(1.44034e-06 -1.04714e-05 1.65307e-07)
(2.40863e-06 -1.21157e-05 1.88588e-07)
(3.42932e-06 -1.31042e-05 2.11164e-07)
(4.40552e-06 -1.35952e-05 2.37413e-07)
(5.24372e-06 -1.36997e-05 2.69307e-07)
(5.85717e-06 -1.3506e-05 3.07281e-07)
(6.17262e-06 -1.30936e-05 3.50553e-07)
(6.13588e-06 -1.2539e-05 3.9725e-07)
(5.71857e-06 -1.19189e-05 4.44579e-07)
(4.92294e-06 -1.1308e-05 4.89017e-07)
(3.78477e-06 -1.07763e-05 5.26795e-07)
(2.37299e-06 -1.03832e-05 5.54314e-07)
(7.84416e-07 -1.01724e-05 5.68843e-07)
(-8.66041e-07 -1.01667e-05 5.69014e-07)
(-2.45713e-06 -1.03656e-05 5.54838e-07)
(-3.87384e-06 -1.07457e-05 5.27711e-07)
(-5.01934e-06 -1.12626e-05 4.90379e-07)
(-5.8246e-06 -1.18557e-05 4.46514e-07)
(-6.25344e-06 -1.24543e-05 3.99952e-07)
(-6.3031e-06 -1.29826e-05 3.54286e-07)
(-6.00115e-06 -1.33635e-05 3.12442e-07)
(-5.39979e-06 -1.352e-05 2.76423e-07)
(-4.56983e-06 -1.33739e-05 2.47182e-07)
(-3.59367e-06 -1.28403e-05 2.24326e-07)
(-2.56102e-06 -1.18165e-05 2.0585e-07)
(-1.56131e-06 -1.01569e-05 1.86178e-07)
(-6.99148e-07 -7.60596e-06 1.547e-07)
(-8.11988e-08 -3.58947e-06 8.13949e-08)
(7.90882e-08 -4.48268e-06 7.92579e-08)
(6.97321e-07 -9.42666e-06 1.52261e-07)
(1.57631e-06 -1.25314e-05 1.85769e-07)
(2.60749e-06 -1.45348e-05 2.08674e-07)
(3.68535e-06 -1.57729e-05 2.31487e-07)
(4.7137e-06 -1.64332e-05 2.59544e-07)
(5.59659e-06 -1.66442e-05 2.94925e-07)
(6.24422e-06 -1.65076e-05 3.37953e-07)
(6.5791e-06 -1.61136e-05 3.8764e-07)
(6.54254e-06 -1.55488e-05 4.41677e-07)
(6.10211e-06 -1.48991e-05 4.96725e-07)
(5.25787e-06 -1.4249e-05 5.48597e-07)
(4.04632e-06 -1.36776e-05 5.92766e-07)
(2.54032e-06 -1.32528e-05 6.24942e-07)
(8.43845e-07 -1.30246e-05 6.41906e-07)
(-9.18952e-07 -1.30193e-05 6.4204e-07)
(-2.61716e-06 -1.32365e-05 6.25351e-07)
(-4.1265e-06 -1.36493e-05 5.93465e-07)
(-5.34284e-06 -1.42074e-05 5.49637e-07)
(-6.19314e-06 -1.48423e-05 4.98209e-07)
(-6.64052e-06 -1.54743e-05 4.43681e-07)
(-6.68433e-06 -1.60186e-05 3.90329e-07)
(-6.35612e-06 -1.63891e-05 3.41551e-07)
(-5.71309e-06 -1.64997e-05 2.9967e-07)
(-4.83098e-06 -1.62616e-05 2.65758e-07)
(-3.79707e-06 -1.55765e-05 2.39427e-07)
(-2.70546e-06 -1.43218e-05 2.18565e-07)
(-1.64956e-06 -1.23183e-05 1.97166e-07)
(-7.3916e-07 -9.24688e-06 1.63808e-07)
(-8.61223e-08 -4.38599e-06 8.63549e-08)
(8.61054e-08 -5.28183e-06 8.62926e-08)
(7.42489e-07 -1.10842e-05 1.64114e-07)
(1.66413e-06 -1.47289e-05 1.98699e-07)
(2.74021e-06 -1.71036e-05 2.22339e-07)
(3.8616e-06 -1.86048e-05 2.46663e-07)
(4.93193e-06 -1.94522e-05 2.77613e-07)
(5.85337e-06 -1.97932e-05 3.17422e-07)
(6.53338e-06 -1.97415e-05 3.66419e-07)
(6.89049e-06 -1.93965e-05 4.23391e-07)
(6.86135e-06 -1.88523e-05 4.85687e-07)
(6.40896e-06 -1.82022e-05 5.49389e-07)
(5.53046e-06 -1.75382e-05 6.09568e-07)
(4.26207e-06 -1.69474e-05 6.60926e-07)
(2.67971e-06 -1.65049e-05 6.98352e-07)
(8.9382e-07 -1.62663e-05 7.18034e-07)
(-9.62739e-07 -1.62614e-05 7.18139e-07)
(-2.74968e-06 -1.64898e-05 6.9867e-07)
(-4.33401e-06 -1.69217e-05 6.61464e-07)
(-5.60519e-06 -1.7501e-05 6.10346e-07)
(-6.48709e-06 -1.81522e-05 5.5044e-07)
(-6.94311e-06 -1.87881e-05 4.87116e-07)
(-6.97555e-06 -1.93163e-05 4.25302e-07)
(-6.62075e-06 -1.96439e-05 3.68899e-07)
(-5.94102e-06 -1.96775e-05 3.2059e-07)
(-5.01672e-06 -1.93192e-05 2.81612e-07)
(-3.93893e-06 -1.84578e-05 2.51574e-07)
(-2.80478e-06 -1.695e-05 2.28191e-07)
(-1.70998e-06 -1.45813e-05 2.05151e-07)
(-7.66846e-07 -1.09646e-05 1.70397e-07)
(-8.97355e-08 -5.22118e-06 9.00102e-08)
(8.95384e-08 -6.119e-06 8.97591e-08)
(7.63032e-07 -1.28079e-05 1.69909e-07)
(1.70325e-06 -1.70073e-05 2.05208e-07)
(2.79946e-06 -1.97654e-05 2.2988e-07)
(3.94208e-06 -2.15459e-05 2.56194e-07)
(5.03575e-06 -2.26032e-05 2.90571e-07)
(5.98236e-06 -2.31036e-05 3.35342e-07)
(6.68789e-06 -2.31721e-05 3.90869e-07)
(7.06745e-06 -2.29147e-05 4.55789e-07)
(7.05317e-06 -2.24308e-05 5.27122e-07)
(6.60308e-06 -2.18178e-05 6.00385e-07)
(5.71021e-06 -2.11731e-05 6.69852e-07)
(4.40896e-06 -2.05893e-05 7.29303e-07)
(2.77683e-06 -2.01472e-05 7.72728e-07)
(9.29375e-07 -1.99076e-05 7.95545e-07)
(-9.92743e-07 -1.99031e-05 7.95619e-07)
(-2.8407e-06 -2.01337e-05 7.72934e-07)
(-4.47379e-06 -2.05664e-05 7.29649e-07)
(-5.77627e-06 -2.11404e-05 6.70379e-07)
(-6.67043e-06 -2.17743e-05 6.01105e-07)
(-7.12169e-06 -2.23756e-05 5.28119e-07)
(-7.13659e-06 -2.28474e-05 4.57112e-07)
(-6.75669e-06 -2.30922e-05 3.92564e-07)
(-6.04905e-06 -2.30113e-05 3.37471e-07)
(-5.09795e-06 -2.24999e-05 2.93181e-07)
(-3.99667e-06 -2.14351e-05 2.59302e-07)
(-2.84313e-06 -1.96531e-05 2.33432e-07)
(-1.73288e-06 -1.69029e-05 2.08997e-07)
(-7.77833e-07 -1.27261e-05 1.73486e-07)
(-9.1502e-08 -6.07936e-06 9.18193e-08)
(8.96777e-08 -6.9662e-06 8.99073e-08)
(7.57373e-07 -1.45447e-05 1.69638e-07)
(1.68659e-06 -1.9301e-05 2.04811e-07)
(2.77063e-06 -2.24497e-05 2.30346e-07)
(3.90344e-06 -2.4525e-05 2.587e-07)
(4.99318e-06 -2.58173e-05 2.96501e-07)
(5.94397e-06 -2.65112e-05 3.46241e-07)
(6.66236e-06 -2.67415e-05 4.08342e-07)
(7.06152e-06 -2.66186e-05 4.81364e-07)
(7.06971e-06 -2.62438e-05 5.62063e-07)
(6.63957e-06 -2.57158e-05 6.45463e-07)
(5.75869e-06 -2.51329e-05 7.25073e-07)
(4.45773e-06 -2.45904e-05 7.93518e-07)
(2.81342e-06 -2.41726e-05 8.43728e-07)
(9.4424e-07 -2.39441e-05 8.70169e-07)
(-1.00302e-06 -2.39402e-05 8.70202e-07)
(-2.87224e-06 -2.41606e-05 8.43839e-07)
(-4.51664e-06 -2.45702e-05 7.9371e-07)
(-5.81755e-06 -2.51041e-05 7.25368e-07)
(-6.69815e-06 -2.5678e-05 6.4591e-07)
(-7.12774e-06 -2.61969e-05 5.62697e-07)
(-7.11845e-06 -2.65624e-05 4.82198e-07)
(-6.71729e-06 -2.6676e-05 4.09459e-07)
(-5.99553e-06 -2.64373e-05 3.47649e-07)
(-5.03963e-06 -2.57366e-05 2.98223e-07)
(-3.94274e-06 -2.44406e-05 2.60702e-07)
(-2.80091e-06 -2.23664e-05 2.32572e-07)
(-1.70632e-06 -1.92257e-05 2.07127e-07)
(-7.66682e-07 -1.44873e-05 1.71768e-07)
(-9.07639e-08 -6.93941e-06 9.11328e-08)
(8.61045e-08 -7.79239e-06 8.63697e-08)
(7.21278e-07 -1.62328e-05 1.6252e-07)
(1.60365e-06 -2.15305e-05 1.96408e-07)
(2.63523e-06 -2.50674e-05 2.2219e-07)
(3.71801e-06 -2.74488e-05 2.52129e-07)
(4.76738e-06 -2.90002e-05 2.9284e-07)
(5.69303e-06 -2.99239e-05 3.46873e-07)
(6.40497e-06 -3.03629e-05 4.14869e-07)
(6.81697e-06 -3.04294e-05 4.95504e-07)
(6.85454e-06 -3.02223e-05 5.8543e-07)
(6.4654e-06 -2.98373e-05 6.79241e-07)
(5.63031e-06 -2.93698e-05 7.69659e-07)
(4.3735e-06 -2.8913e-05 8.48115e-07)
(2.76767e-06 -2.85512e-05 9.06232e-07)
(9.31022e-07 -2.83504e-05 9.37062e-07)
(-9.86143e-07 -2.83468e-05 9.37066e-07)
(-2.82246e-06 -2.85406e-05 9.06257e-07)
(-4.42765e-06 -2.88952e-05 8.48169e-07)
(-5.68346e-06 -2.93446e-05 7.69754e-07)
(-6.51725e-06 -2.98048e-05 6.79436e-07)
(-6.90463e-06 -3.01824e-05 5.85818e-07)
(-6.86463e-06 -3.03824e-05 4.96054e-07)
(-6.44959e-06 -3.03094e-05 4.1561e-07)
(-5.73363e-06 -2.98647e-05 3.47793e-07)
(-4.80278e-06 -2.89367e-05 2.93939e-07)
(-3.74704e-06 -2.7384e-05 2.53406e-07)
(-2.6568e-06 -2.5005e-05 2.23616e-07)
(-1.61719e-06 -2.14754e-05 1.97886e-07)
(-7.27345e-07 -1.61916e-05 1.63848e-07)
(-8.67292e-08 -7.77374e-06 8.71429e-08)
(7.8238e-08 -8.56093e-06 7.8513e-08)
(6.49745e-07 -1.77981e-05 1.4732e-07)
(1.44291e-06 -2.36004e-05 1.78361e-07)
(2.3736e-06 -2.75097e-05 2.03384e-07)
(3.35714e-06 -3.01996e-05 2.33853e-07)
(4.32005e-06 -3.20294e-05 2.76106e-07)
(5.18197e-06 -3.32177e-05 3.32858e-07)
(5.86021e-06 -3.3913e-05 4.04948e-07)
(6.27257e-06 -3.42266e-05 4.9124e-07)
(6.34435e-06 -3.42521e-05 5.88566e-07)
(6.01905e-06 -3.40771e-05 6.91335e-07)
(5.26994e-06 -3.37886e-05 7.91731e-07)
(4.11255e-06 -3.34722e-05 8.8005e-07)
(2.61159e-06 -3.32067e-05 9.46362e-07)
(8.8007e-07 -3.30545e-05 9.81914e-07)
(-9.32484e-07 -3.30514e-05 9.81884e-07)
(-2.66338e-06 -3.31972e-05 9.46298e-07)
(-4.16316e-06 -3.34565e-05 8.79977e-07)
(-5.31878e-06 -3.37666e-05 7.917e-07)
(-6.06561e-06 -3.4049e-05 6.91364e-07)
(-6.38826e-06 -3.42181e-05 5.8869e-07)
(-6.31338e-06 -3.41872e-05 4.91487e-07)
(-5.89737e-06 -3.3869e-05 4.0535e-07)
(-5.21478e-06 -3.31699e-05 3.33417e-07)
(-4.34778e-06 -3.19793e-05 2.7681e-07)
(-3.37911e-06 -3.01495e-05 2.34671e-07)
(-2.38934e-06 -2.74621e-05 2.04279e-07)
(-1.45242e-06 -2.35593e-05 1.79303e-07)
(-6.5378e-07 -1.7768e-05 1.48188e-07)
(-7.85845e-08 -8.54758e-06 7.90446e-08)
(6.5486e-08 -9.22969e-06 6.57699e-08)
(5.38226e-07 -1.91558e-05 1.22951e-07)
(1.19437e-06 -2.53994e-05 1.49283e-07)
(1.969e-06 -2.96473e-05 1.72067e-07)
(2.79621e-06 -3.26348e-05 2.01393e-07)
(3.61796e-06 -3.47516e-05 2.42987e-07)
(4.36856e-06 -3.62302e-05 2.99529e-07)
(4.97724e-06 -3.72229e-05 3.72133e-07)
(5.37001e-06 -3.78375e-05 4.60137e-07)
(5.47597e-06 -3.81591e-05 5.60837e-07)
(5.2369e-06 -3.82628e-05 6.68836e-07)
(4.61923e-06 -3.82211e-05 7.76037e-07)
(3.62749e-06 -3.81052e-05 8.71832e-07)
(2.31401e-06 -3.79814e-05 9.44928e-07)
(7.80565e-07 -3.79027e-05 9.84673e-07)
(-8.30961e-07 -3.78999e-05 9.84639e-07)
(-2.36352e-06 -3.79729e-05 9.44855e-07)
(-3.67539e-06 -3.80914e-05 8.71704e-07)
(-4.66483e-06 -3.82019e-05 7.75894e-07)
(-5.27974e-06 -3.82386e-05 6.68737e-07)
(-5.5155e-06 -3.81304e-05 5.60841e-07)
(-5.40583e-06 -3.78048e-05 4.60235e-07)
(-5.00894e-06 -3.71867e-05 3.72321e-07)
(-4.39577e-06 -3.61915e-05 2.99828e-07)
(-3.64028e-06 -3.47117e-05 2.43397e-07)
(-2.81336e-06 -3.25955e-05 2.01904e-07)
(-1.98087e-06 -2.96107e-05 1.72657e-07)
(-1.20126e-06 -2.53683e-05 1.49898e-07)
(-5.40982e-07 -1.91333e-05 1.23549e-07)
(-6.56592e-08 -9.21995e-06 6.61616e-08)
(4.74331e-08 -9.75217e-06 4.77143e-08)
(3.84198e-07 -2.02122e-05 8.86417e-08)
(8.52649e-07 -2.68049e-05 1.08092e-07)
(1.41226e-06 -3.13356e-05 1.26776e-07)
(2.02097e-06 -3.45909e-05 1.52556e-07)
(2.64054e-06 -3.69854e-05 1.90121e-07)
(3.22458e-06 -3.87624e-05 2.42008e-07)
(3.71939e-06 -4.00763e-05 3.0954e-07)
(4.06474e-06 -4.10291e-05 3.92541e-07)
(4.19836e-06 -4.16947e-05 4.8888e-07)
(4.06437e-06 -4.21323e-05 5.93848e-07)
(3.62455e-06 -4.23948e-05 6.99853e-07)
(2.87229e-06 -4.25328e-05 7.96145e-07)
(1.84349e-06 -4.25919e-05 8.70728e-07)
(6.21324e-07 -4.26092e-05 9.11815e-07)
(-6.70318e-07 -4.26069e-05 9.11746e-07)
(-1.89149e-06 -4.25846e-05 8.70603e-07)
(-2.91833e-06 -4.25207e-05 7.95947e-07)
(-3.66784e-06 -4.23782e-05 6.99655e-07)
(-4.10438e-06 -4.21116e-05 5.93654e-07)
(-4.2346e-06 -4.16703e-05 4.88747e-07)
(-4.09693e-06 -4.10016e-05 3.92449e-07)
(-3.74723e-06 -4.00463e-05 3.09546e-07)
(-3.24785e-06 -3.87309e-05 2.42118e-07)
(-2.6591e-06 -3.69534e-05 1.9031e-07)
(-2.03479e-06 -3.45599e-05 1.52833e-07)
(-1.42147e-06 -3.13071e-05 1.27126e-07)
(-8.5773e-07 -2.67809e-05 1.08479e-07)
(-3.86078e-07 -2.01952e-05 8.90599e-08)
(-4.74921e-08 -9.74494e-06 4.80319e-08)
(2.40972e-08 -1.00804e-05 2.44021e-08)
(1.88517e-07 -2.08715e-05 4.44795e-08)
(4.1989e-07 -2.76901e-05 5.48225e-08)
(7.06706e-07 -3.24237e-05 6.72781e-08)
(1.03503e-06 -3.58939e-05 8.66496e-08)
(1.39033e-06 -3.85326e-05 1.16122e-07)
(1.74983e-06 -4.05897e-05 1.57687e-07)
(2.08185e-06 -4.22187e-05 2.12778e-07)
(2.34566e-06 -4.35151e-05 2.81703e-07)
(2.49363e-06 -4.45401e-05 3.63182e-07)
(2.47801e-06 -4.53346e-05 4.53564e-07)
(2.26005e-06 -4.59288e-05 5.46427e-07)
(1.82281e-06 -4.63481e-05 6.32095e-07)
(1.18284e-06 -4.66131e-05 6.99401e-07)
(3.96165e-07 -4.67398e-05 7.36884e-07)
(-4.4411e-07 -4.6738e-05 7.36817e-07)
(-1.22961e-06 -4.6607e-05 6.99262e-07)
(-1.86739e-06 -4.63376e-05 6.3185e-07)
(-2.30161e-06 -4.59146e-05 5.46132e-07)
(-2.51604e-06 -4.53168e-05 4.53236e-07)
(-2.52757e-06 -4.45192e-05 3.62935e-07)
(-2.37525e-06 -4.34918e-05 2.81497e-07)
(-2.10693e-06 -4.21937e-05 2.12667e-07)
(-1.7703e-06 -4.05637e-05 1.57657e-07)
(-1.40623e-06 -3.85065e-05 1.16147e-07)
(-1.04651e-06 -3.5869e-05 8.67631e-08)
(-7.14101e-07 -3.24012e-05 6.74642e-08)
(-4.23784e-07 -2.76715e-05 5.51026e-08)
(-1.89841e-07 -2.08585e-05 4.47917e-08)
(-2.40988e-08 -1.00749e-05 2.46685e-08)
(-3.88269e-09 -1.01699e-05 -3.60634e-09)
(-4.32445e-08 -2.10455e-05 -8.45649e-09)
(-9.1513e-08 -2.7938e-05 -9.29299e-09)
(-1.27814e-07 -3.27697e-05 -5.22595e-09)
(-1.34414e-07 -3.63765e-05 4.74422e-09)
(-9.95982e-08 -3.91971e-05 2.17083e-08)
(-1.8684e-08 -4.14833e-05 4.69815e-08)
(1.03234e-07 -4.33847e-05 8.16907e-08)
(2.50178e-07 -4.49885e-05 1.26464e-07)
(3.95551e-07 -4.63424e-05 1.80992e-07)
(5.05611e-07 -4.74693e-05 2.42978e-07)
(5.46047e-07 -4.8377e-05 3.08258e-07)
(4.92066e-07 -4.90648e-05 3.6966e-07)
(3.38578e-07 -4.95277e-05 4.18731e-07)
(1.06986e-07 -4.97601e-05 4.46422e-07)
(-1.54037e-07 -4.97583e-05 4.46343e-07)
(-3.84319e-07 -4.95221e-05 4.18535e-07)
(-5.35518e-07 -4.90555e-05 3.69334e-07)
(-5.86317e-07 -4.83645e-05 3.07886e-07)
(-5.42001e-07 -4.74538e-05 2.42588e-07)
(-4.2769e-07 -4.63245e-05 1.80614e-07)
(-2.77858e-07 -4.49686e-05 1.26146e-07)
(-1.26323e-07 -4.33637e-05 8.14171e-08)
(1.79349e-10 -4.14617e-05 4.68079e-08)
(8.55531e-08 -3.91757e-05 2.16167e-08)
(1.2454e-07 -3.63564e-05 4.70129e-09)
(1.21644e-07 -3.27517e-05 -5.16578e-09)
(8.84341e-08 -2.79234e-05 -9.13679e-09)
(4.23393e-08 -2.10353e-05 -8.22628e-09)
(3.95076e-09 -1.01657e-05 -3.36057e-09)
(-3.53527e-08 -9.98473e-06 -3.50687e-08)
(-3.00583e-07 -2.06632e-05 -6.77722e-08)
(-6.57922e-07 -2.74548e-05 -8.13347e-08)
(-1.05264e-06 -3.22589e-05 -8.74761e-08)
(-1.43351e-06 -3.59014e-05 -8.9495e-08)
(-1.76088e-06 -3.88151e-05 -8.87156e-08)
(-2.00012e-06 -4.12466e-05 -8.48945e-08)
(-2.12616e-06 -4.33392e-05 -7.73758e-08)
(-2.12572e-06 -4.51704e-05 -6.53095e-08)
(-1.99945e-06 -4.67762e-05 -4.80525e-08)
(-1.76146e-06 -4.81625e-05 -2.59223e-08)
(-1.43699e-06 -4.93173e-05 -2.27655e-10)
(-1.05638e-06 -5.02179e-05 2.56374e-08)
(-6.48067e-07 -5.08383e-05 4.74595e-08)
(-2.31682e-07 -5.11548e-05 6.0232e-08)
(1.8578e-07 -5.1153e-05 6.01255e-08)
(6.03441e-07 -5.08331e-05 4.7216e-08)
(1.01414e-06 -5.02095e-05 2.5283e-08)
(1.398e-06 -4.93059e-05 -6.6168e-10)
(1.72635e-06 -4.81485e-05 -2.636e-08)
(1.96864e-06 -4.67603e-05 -4.84926e-08)
(2.09945e-06 -4.51532e-05 -6.56983e-08)
(2.10451e-06 -4.33211e-05 -7.77186e-08)
(1.98298e-06 -4.12284e-05 -8.51533e-08)
(1.74808e-06 -3.87973e-05 -8.88861e-08)
(1.42473e-06 -3.58848e-05 -8.95885e-08)
(1.04735e-06 -3.22444e-05 -8.74769e-08)
(6.55424e-07 -2.74431e-05 -8.12469e-08)
(2.9993e-07 -2.06551e-05 -6.75848e-08)
(3.54465e-08 -9.98142e-06 -3.48461e-08)
(-6.83239e-08 -9.50371e-06 -6.80729e-08)
(-5.67833e-07 -1.9684e-05 -1.29966e-07)
(-1.24522e-06 -2.61864e-05 -1.57053e-07)
(-2.01238e-06 -3.08232e-05 -1.74424e-07)
(-2.78461e-06 -3.43835e-05 -1.90037e-07)
(-3.49397e-06 -3.72807e-05 -2.07886e-07)
(-4.075e-06 -3.9749e-05 -2.29009e-07)
(-4.47066e-06 -4.1922e-05 -2.53229e-07)
(-4.63564e-06 -4.38681e-05 -2.79454e-07)
(-4.54103e-06 -4.56118e-05 -3.06077e-07)
(-4.17776e-06 -4.71466e-05 -3.31203e-07)
(-3.55904e-06 -4.84464e-05 -3.5286e-07)
(-2.71908e-06 -4.94733e-05 -3.69684e-07)
(-1.71017e-06 -5.01874e-05 -3.80748e-07)
(-5.96708e-07 -5.0554e-05 -3.86052e-07)
(5.52321e-07 -5.05524e-05 -3.86142e-07)
(1.667e-06 -5.01828e-05 -3.80994e-07)
(2.67817e-06 -4.94658e-05 -3.70067e-07)
(3.52129e-06 -4.84361e-05 -3.53289e-07)
(4.14389e-06 -4.71342e-05 -3.31646e-07)
(4.51145e-06 -4.55978e-05 -3.06554e-07)
(4.61051e-06 -4.38531e-05 -2.79893e-07)
(4.45008e-06 -4.19064e-05 -2.53585e-07)
(4.05889e-06 -3.97336e-05 -2.29334e-07)
(3.48205e-06 -3.72658e-05 -2.08121e-07)
(2.77656e-06 -3.437e-05 -1.90165e-07)
(2.00767e-06 -3.08113e-05 -1.74475e-07)
(1.24308e-06 -2.61769e-05 -1.57008e-07)
(5.67359e-07 -1.96776e-05 -1.29794e-07)
(6.84503e-08 -9.5011e-06 -6.78483e-08)
(-1.00415e-07 -8.72564e-06 -1.00174e-07)
(-8.25525e-07 -1.81074e-05 -1.90433e-07)
(-1.81084e-06 -2.41312e-05 -2.30766e-07)
(-2.93797e-06 -2.8457e-05 -2.59475e-07)
(-4.09131e-06 -3.18097e-05 -2.89088e-07)
(-5.17608e-06 -3.45701e-05 -3.26217e-07)
(-6.09627e-06 -3.69538e-05 -3.73101e-07)
(-6.76281e-06 -3.90817e-05 -4.30153e-07)
(-7.09777e-06 -4.10128e-05 -4.96026e-07)
(-7.04164e-06 -4.27625e-05 -5.68009e-07)
(-6.5614e-06 -4.43171e-05 -6.41968e-07)
(-5.65689e-06 -4.56428e-05 -7.12354e-07)
(-4.36536e-06 -4.66952e-05 -7.73058e-07)
(-2.76277e-06 -4.74294e-05 -8.17838e-07)
(-9.58455e-07 -4.78069e-05 -8.41641e-07)
(9.15995e-07 -4.78054e-05 -8.41702e-07)
(2.72143e-06 -4.74252e-05 -8.18004e-07)
(4.32624e-06 -4.66885e-05 -7.73333e-07)
(5.62071e-06 -4.56335e-05 -7.12717e-07)
(6.52889e-06 -4.4306e-05 -6.42361e-07)
(7.01319e-06 -4.275e-05 -5.68409e-07)
(7.07363e-06 -4.09996e-05 -4.96431e-07)
(6.74314e-06 -3.90684e-05 -4.30503e-07)
(6.08092e-06 -3.69406e-05 -3.73422e-07)
(5.16481e-06 -3.45576e-05 -3.26477e-07)
(4.08379e-06 -3.17985e-05 -2.8928e-07)
(2.93363e-06 -2.84474e-05 -2.59573e-07)
(1.8089e-06 -2.41236e-05 -2.30753e-07)
(8.25127e-07 -1.81023e-05 -1.90281e-07)
(1.00543e-07 -8.72362e-06 -9.99583e-08)
(-1.28747e-07 -7.67271e-06 -1.28531e-07)
(-1.05112e-06 -1.59795e-05 -2.43801e-07)
(-2.30669e-06 -2.1349e-05 -2.95938e-07)
(-3.75296e-06 -2.52277e-05 -3.34929e-07)
(-5.24813e-06 -2.82516e-05 -3.77448e-07)
(-6.67338e-06 -3.07572e-05 -4.32522e-07)
(-7.90459e-06 -3.29357e-05 -5.03425e-07)
(-8.82222e-06 -3.48937e-05 -5.90987e-07)
(-9.31734e-06 -3.6681e-05 -6.93685e-07)
(-9.30191e-06 -3.83081e-05 -8.07608e-07)
(-8.71988e-06 -3.97577e-05 -9.26385e-07)
(-7.55864e-06 -4.09952e-05 -1.04124e-06)
(-5.85869e-06 -4.19777e-05 -1.14176e-06)
(-3.7178e-06 -4.26622e-05 -1.21689e-06)
(-1.28648e-06 -4.30137e-05 -1.2572e-06)
(1.24662e-06 -4.30123e-05 -1.25725e-06)
(3.67887e-06 -4.26582e-05 -1.21706e-06)
(5.82164e-06 -4.19714e-05 -1.14199e-06)
(7.52427e-06 -4.09869e-05 -1.04153e-06)
(8.68887e-06 -3.97479e-05 -9.26734e-07)
(9.2747e-06 -3.82973e-05 -8.07968e-07)
(9.29427e-06 -3.66697e-05 -6.94047e-07)
(8.80338e-06 -3.48823e-05 -5.91346e-07)
(7.88987e-06 -3.29246e-05 -5.03745e-07)
(6.66264e-06 -3.07468e-05 -4.32791e-07)
(5.24096e-06 -2.82424e-05 -3.77656e-07)
(3.74883e-06 -2.522e-05 -3.3501e-07)
(2.30496e-06 -2.13431e-05 -2.95928e-07)
(1.05081e-06 -1.59756e-05 -2.43669e-07)
(1.28885e-07 -7.67117e-06 -1.28321e-07)
(-1.50157e-07 -6.39344e-06 -1.49968e-07)
(-1.22087e-06 -1.33983e-05 -2.8407e-07)
(-2.683e-06 -1.7967e-05 -3.45029e-07)
(-4.37917e-06 -2.12817e-05 -3.91878e-07)
(-6.14874e-06 -2.38702e-05 -4.44648e-07)
(-7.85294e-06 -2.60163e-05 -5.14258e-07)
(-9.34323e-06 -2.78836e-05 -6.04922e-07)
(-1.04733e-05 -2.95632e-05 -7.17763e-07)
(-1.11071e-05 -3.10972e-05 -8.50834e-07)
(-1.11316e-05 -3.24928e-05 -9.99097e-07)
(-1.04714e-05 -3.37341e-05 -1.1543e-06)
(-9.10395e-06 -3.47906e-05 -1.30491e-06)
(-7.07269e-06 -3.56263e-05 -1.43702e-06)
(-4.49394e-06 -3.62064e-05 -1.53599e-06)
(-1.55265e-06 -3.65034e-05 -1.58923e-06)
(1.51579e-06 -3.65022e-05 -1.58925e-06)
(4.45784e-06 -3.6203e-05 -1.53608e-06)
(7.03822e-06 -3.56209e-05 -1.43717e-06)
(9.07183e-06 -3.47834e-05 -1.30511e-06)
(1.04423e-05 -3.37256e-05 -1.15455e-06)
(1.11059e-05 -3.24836e-05 -9.99373e-07)
(1.10852e-05 -3.10876e-05 -8.51141e-07)
(1.04553e-05 -2.95537e-05 -7.18068e-07)
(9.32919e-06 -2.78745e-05 -6.05198e-07)
(7.84271e-06 -2.60079e-05 -5.14493e-07)
(6.14193e-06 -2.38628e-05 -4.44861e-07)
(4.37527e-06 -2.12756e-05 -3.91985e-07)
(2.68134e-06 -1.79623e-05 -3.45033e-07)
(1.22058e-06 -1.33953e-05 -2.83948e-07)
(1.50289e-07 -6.39236e-06 -1.4977e-07)
(-1.61187e-07 -4.96409e-06 -1.61019e-07)
(-1.31031e-06 -1.05141e-05 -3.0457e-07)
(-2.89078e-06 -1.41786e-05 -3.69584e-07)
(-4.74221e-06 -1.68425e-05 -4.20162e-07)
(-6.69421e-06 -1.89145e-05 -4.78668e-07)
(-8.59292e-06 -2.06214e-05 -5.57367e-07)
(-1.02704e-05 -2.20977e-05 -6.61198e-07)
(-1.15587e-05 -2.34186e-05 -7.91365e-07)
(-1.23007e-05 -2.46197e-05 -9.45513e-07)
(-1.2364e-05 -2.57075e-05 -1.11764e-06)
(-1.16589e-05 -2.66698e-05 -1.29797e-06)
(-1.01556e-05 -2.74838e-05 -1.47296e-06)
(-7.90047e-06 -2.81237e-05 -1.62639e-06)
(-5.02344e-06 -2.85651e-05 -1.74122e-06)
(-1.73389e-06 -2.87902e-05 -1.80294e-06)
(1.70053e-06 -2.87892e-05 -1.80293e-06)
(4.9907e-06 -2.85623e-05 -1.74126e-06)