/*--------------------------------*- C++ -*----------------------------------*\
| =========                 |                                                 |
| \\      /  F ield         | OpenFOAM: The Open Source CFD Toolbox           |
|  \\    /   O peration     | Version:  v1906                                 |
|   \\  /    A nd           | Web:      www.OpenFOAM.com                      |
|    \\/     M anipulation  |                                                 |
\*---------------------------------------------------------------------------*/
FoamFile
{
    version     2.0;
    format      ascii;
    class       volVectorField;
    location    "88";
    object      U;
}
// * * * * * * * * * * * * * * * * * * * * * * * * * * * * * * * * * * * * * //

dimensions      [0 1 -1 0 0 0 0];


internalField   nonuniform List<vector> 
78750
(
(6.76948e-05 -0.000787197 0.00145772)
(0.00037202 -0.00178552 0.00375318)
(0.000837209 -0.00265467 0.00532147)
(0.001504 -0.00355387 0.00626694)
(0.00238464 -0.00447922 0.00676649)
(0.00347918 -0.00536987 0.00698739)
(0.00476906 -0.00616379 0.00705049)
(0.00622092 -0.00681747 0.00703026)
(0.00779354 -0.00730746 0.00696801)
(0.00944308 -0.00762555 0.00688495)
(0.0111261 -0.00777334 0.0067912)
(0.012801 -0.007758 0.00669119)
(0.0144291 -0.00758973 0.00658646)
(0.0159753 -0.00728007 0.00647711)
(0.0174065 -0.00683691 0.00636416)
(0.0186941 -0.00627299 0.00624755)
(0.0198117 -0.00560221 0.00612732)
(0.0207361 -0.00483877 0.00600388)
(0.0214477 -0.00399718 0.00587786)
(0.0219303 -0.00309261 0.00575026)
(0.0221719 -0.00214101 0.00562228)
(0.0221651 -0.00115931 0.00549519)
(0.0219072 -0.000165821 0.00537042)
(0.0213934 0.000818562 0.00524977)
(0.0206217 0.00177614 0.00513474)
(0.019604 0.00268965 0.0050271)
(0.0183586 0.00354112 0.00492817)
(0.0169054 0.00431131 0.00483838)
(0.015266 0.00498652 0.00475812)
(0.0134595 0.0055713 0.00468632)
(0.0114871 0.00615227 0.00461093)
(0.00927967 0.00703079 0.00446924)
(0.00665912 0.00858449 0.00406393)
(0.00364027 0.00998798 0.00305032)
(0.000882141 0.00718816 0.00123043)
(5.97066e-06 -0.00259601 0.00130448)
(0.000379664 -0.00625365 0.00314304)
(0.00105374 -0.00924497 0.00423912)
(0.0020072 -0.0119936 0.00484953)
(0.00319469 -0.0145342 0.00515691)
(0.00455596 -0.016768 0.00528166)
(0.00603019 -0.0185984 0.0053019)
(0.00756461 -0.0199727 0.00526572)
(0.00911504 -0.0208772 0.00520106)
(0.0106445 -0.0213225 0.0051234)
(0.0121217 -0.0213316 0.00504091)
(0.0135208 -0.0209335 0.00495755)
(0.0148208 -0.0201604 0.00487394)
(0.0159957 -0.0190526 0.00478478)
(0.017033 -0.0176441 0.00469072)
(0.0179241 -0.0159563 0.00459828)
(0.0186517 -0.0140174 0.00450917)
(0.0192038 -0.0118579 0.00442456)
(0.0195707 -0.00951052 0.00434556)
(0.0197436 -0.0070106 0.00427281)
(0.0197146 -0.00439714 0.00420658)
(0.0194759 -0.00171321 0.00414696)
(0.0190233 0.000993602 0.00409437)
(0.0183638 0.00366969 0.0040497)
(0.0175058 0.00625983 0.00401324)
(0.0164572 0.00870701 0.00398435)
(0.0152344 0.010964 0.00396378)
(0.0138479 0.0130156 0.00395896)
(0.0123073 0.0148884 0.00397611)
(0.010625 0.0167086 0.00401161)
(0.00877832 0.0188351 0.00404599)
(0.00669194 0.0218781 0.00399854)
(0.00437564 0.0257844 0.00365623)
(0.00207785 0.0274574 0.00273097)
(0.000245135 0.0180339 0.00108736)
(2.14073e-07 -0.00440284 0.00122971)
(0.000475272 -0.0114582 0.00284224)
(0.00137078 -0.0173216 0.00374999)
(0.00260597 -0.0222665 0.0042227)
(0.00405783 -0.026269 0.00444805)
(0.00561218 -0.029293 0.00454267)
(0.00718235 -0.0313758 0.00457324)
(0.00871242 -0.0326092 0.00457414)
(0.0101685 -0.0331 0.00456083)
(0.011529 -0.0329461 0.00453905)
(0.0127795 -0.0322299 0.00451006)
(0.0139094 -0.0310191 0.00447357)
(0.0149105 -0.0293693 0.00442924)
(0.0157754 -0.0273283 0.00437744)
(0.0164976 -0.0249393 0.00431885)
(0.0170708 -0.022238 0.00425621)
(0.0174905 -0.0192555 0.0041937)
(0.0177537 -0.0160212 0.00413641)
(0.0178585 -0.0125637 0.00408942)
(0.0178037 -0.00891384 0.00405635)
(0.0175895 -0.00510707 0.00403893)
(0.0172173 -0.0011874 0.00403581)
(0.0166853 0.00278982 0.00404209)
(0.0159889 0.0067551 0.00404963)
(0.01513 0.0106219 0.0040485)
(0.0141143 0.014296 0.00403015)
(0.0129514 0.0176986 0.00399171)
(0.0116544 0.0208003 0.00393848)
(0.0102355 0.0236682 0.00388192)
(0.00869616 0.0265439 0.00383364)
(0.00700523 0.0299102 0.00378599)
(0.00511302 0.0342101 0.00366308)
(0.00318467 0.0384262 0.00328683)
(0.00141704 0.0383523 0.0024271)
(0.00014878 0.0232753 0.0009632)
(3.77622e-05 -0.00694194 0.00113505)
(0.000633635 -0.0183207 0.00245547)
(0.00164131 -0.0273902 0.00307988)
(0.00292231 -0.0343272 0.00333194)
(0.00431696 -0.0392194 0.00340976)
(0.00571085 -0.0423396 0.00341504)
(0.00704617 -0.0440597 0.00339316)
(0.00830268 -0.0447042 0.00336078)
(0.0094733 -0.0445007 0.00332258)
(0.0105537 -0.0436001 0.00327844)
(0.0115401 -0.0421051 0.00322726)
(0.0124281 -0.0400878 0.00316872)
(0.0132114 -0.0376026 0.00310364)
(0.0138817 -0.0346941 0.00303457)
(0.01443 -0.0314031 0.0029661)
(0.0148479 -0.0277707 0.00290481)
(0.015129 -0.023839 0.00285905)
(0.0152702 -0.0196516 0.00283829)
(0.0152721 -0.0152507 0.00285216)
(0.0151381 -0.0106751 0.00291029)
(0.0148728 -0.00595909 0.0030199)
(0.0144799 -0.00113503 0.00318343)
(0.013966 0.00375845 0.00339585)
(0.0133371 0.00866765 0.00364049)
(0.012593 0.0135151 0.00388889)
(0.011732 0.0182001 0.00410489)
(0.0107537 0.022623 0.00425474)
(0.00966062 0.0267422 0.00431936)
(0.00845418 0.0306538 0.00430002)
(0.00712444 0.0346672 0.00421056)
(0.00564058 0.0392662 0.00405273)
(0.0039826 0.0445277 0.00377858)
(0.00239686 0.0485598 0.00328922)
(0.00101434 0.0466769 0.00240674)
(7.47983e-05 0.0269174 0.000968647)
(4.50371e-05 -0.00935957 0.000842917)
(0.000609531 -0.0241981 0.00171565)
(0.00150466 -0.0353281 0.00208852)
(0.00258322 -0.0431057 0.00224202)
(0.00369803 -0.0479685 0.00230589)
(0.00477006 -0.0506404 0.00232896)
(0.00578326 -0.0518043 0.00232846)
(0.00674272 -0.0519006 0.00230816)
(0.00765139 -0.0511722 0.00226723)
(0.00850815 -0.0497527 0.0022036)
(0.00930726 -0.0477226 0.00211499)
(0.0100405 -0.0451322 0.00200094)
(0.0106964 -0.0420168 0.00186348)
(0.0112604 -0.0384133 0.00170707)
(0.0117183 -0.0343695 0.00153925)
(0.0120592 -0.0299473 0.00137085)
(0.0122768 -0.0252198 0.00121589)
(0.0123701 -0.0202641 0.00109111)
(0.0123428 -0.0151518 0.00101594)
(0.0122022 -0.00994127 0.00101099)
(0.0119571 -0.00467331 0.00109652)
(0.0116162 0.000627814 0.00129015)
(0.011188 0.00594614 0.00160214)
(0.0106785 0.0112605 0.00202801)
(0.0100892 0.0165314 0.00254137)
(0.00941721 0.021696 0.00309106)
(0.00865663 0.0266885 0.00360907)
(0.00779935 0.0315014 0.00402979)
(0.00683358 0.0362706 0.0043079)
(0.00573921 0.0413204 0.00441789)
(0.00448873 0.0469886 0.00433516)
(0.00309528 0.0528281 0.00402325)
(0.00181608 0.0563362 0.00345832)
(0.000735364 0.0527006 0.00251331)
(3.72042e-05 0.0292376 0.00099522)
(4.81546e-05 -0.0116801 0.000610377)
(0.000537902 -0.0296845 0.00126091)
(0.00128142 -0.0425914 0.0015853)
(0.00215742 -0.0510774 0.00176119)
(0.00304898 -0.0559939 0.00185358)
(0.00390479 -0.0584655 0.00189079)
(0.00472671 -0.0593731 0.00188932)
(0.00552373 -0.0591932 0.0018559)
(0.0062939 -0.0581527 0.00179233)
(0.00703111 -0.0563619 0.00169896)
(0.00772678 -0.0538753 0.00157548)
(0.00836851 -0.0507228 0.00142155)
(0.00894071 -0.0469346 0.00123804)
(0.00942717 -0.0425605 0.00102757)
(0.00981346 -0.037682 0.000795337)
(0.0100895 -0.0324045 0.000549797)
(0.0102528 -0.0268471 0.000303407)
(0.010307 -0.0211278 7.30004e-05)
(0.0102601 -0.0153473 -0.000121263)
(0.0101223 -0.009579 -0.000255583)
(0.0099052 -0.00386585 -0.000303289)
(0.00961945 0.0017765 -0.000236678)
(0.00927287 0.00735253 -3.05482e-05)
(0.00887042 0.0128732 0.000331582)
(0.00841303 0.0183434 0.00084818)
(0.00789579 0.0237563 0.00149009)
(0.00730724 0.0291103 0.00219789)
(0.00663002 0.0344618 0.00289235)
(0.00584184 0.0399955 0.00349126)
(0.00491669 0.0460222 0.00391473)
(0.00383259 0.0526809 0.00407809)
(0.00263034 0.0590164 0.00390683)
(0.00154566 0.0621468 0.00339067)
(0.000631246 0.0571599 0.00245049)
(4.08065e-05 0.0309133 0.00092486)
(4.46153e-05 -0.0134675 0.000418664)
(0.000448482 -0.0337094 0.00089319)
(0.00105441 -0.0477502 0.00117232)
(0.00176854 -0.0566099 0.0013524)
(0.00249623 -0.0614861 0.00145855)
(0.00319955 -0.0637824 0.0015082)
(0.00388439 -0.0644827 0.00151662)
(0.00455683 -0.0640669 0.00149122)
(0.00521175 -0.062743 0.00143458)
(0.00584168 -0.0605994 0.00134706)
(0.00643737 -0.0576676 0.00122804)
(0.00698657 -0.0539609 0.00107652)
(0.00747462 -0.049508 0.000891631)
(0.00788618 -0.0443804 0.00067361)
(0.00820884 -0.0386953 0.00042485)
(0.00843661 -0.0326071 0.000150933)
(0.00856844 -0.0262834 -0.000138289)
(0.00860791 -0.0198825 -0.000427629)
(0.00856223 -0.0135349 -0.000696249)
(0.0084409 -0.00733112 -0.000918419)
(0.00825412 -0.00131836 -0.00106483)
(0.00801355 0.00449502 -0.00110461)
(0.00772975 0.0101314 -0.00100831)
(0.00740799 0.0156358 -0.000752048)
(0.00704852 0.0210636 -0.000323975)
(0.00664496 0.0264755 0.000267308)
(0.00618283 0.0319509 0.000986296)
(0.0056397 0.0376262 0.00177031)
(0.00498779 0.043733 0.00253354)
(0.00419898 0.0505302 0.0031662)
(0.00325659 0.0579034 0.0035345)
(0.00222392 0.0644388 0.00351906)
(0.00129926 0.06711 0.00309673)
(0.000522112 0.0608614 0.00222134)
(3.06769e-05 0.0323261 0.000797145)
(3.25334e-05 -0.0150387 0.000311726)
(0.000352852 -0.0373664 0.000744448)
(0.000845293 -0.0525997 0.00106058)
(0.00144029 -0.062007 0.0012875)
(0.00205615 -0.0670382 0.00142698)
(0.00265919 -0.0693232 0.00149766)
(0.00325472 -0.0699437 0.00152023)
(0.0038461 -0.0693936 0.00150564)
(0.00442613 -0.0678707 0.0014584)
(0.00498651 -0.0654456 0.00138014)
(0.00551803 -0.0621316 0.00127088)
(0.00600891 -0.0579312 0.00112942)
(0.006446 -0.0528785 0.000953678)
(0.00681734 -0.0470663 0.000741421)
(0.00711393 -0.0406451 0.000491076)
(0.00733049 -0.0338048 0.000203154)
(0.00746544 -0.0267487 -0.000117592)
(0.00752078 -0.0196672 -0.000460023)
(0.00750168 -0.0127179 -0.000805387)
(0.00741612 -0.00601359 -0.00112708)
(0.00727445 0.000381954 -0.00139206)
(0.00708608 0.00645357 -0.00156387)
(0.00685933 0.012231 -0.0016064)
(0.00660103 0.0177841 -0.00148838)
(0.00631188 0.0232132 -0.0011882)
(0.00598429 0.0286444 -0.000699897)
(0.00560213 0.0342373 -3.93873e-05)
(0.00514123 0.0402088 0.000749648)
(0.00457196 0.0468351 0.0015892)
(0.00386627 0.054321 0.00235679)
(0.00301052 0.0623205 0.00288545)
(0.00207786 0.0690516 0.00301581)
(0.00123576 0.0714055 0.00270629)
(0.0005123 0.0641312 0.00193368)
(4.16532e-05 0.0336567 0.000665543)
(3.23768e-05 -0.0162337 0.000255564)
(0.000320524 -0.0401423 0.00066565)
(0.000766235 -0.0562937 0.000987927)
(0.00130563 -0.0661387 0.00122004)
(0.00186293 -0.0713104 0.00136031)
(0.002408 -0.0736012 0.00143014)
(0.00294642 -0.07416 0.00145206)
(0.00348002 -0.0734908 0.00143847)
(0.00400098 -0.0717837 0.00139528)
(0.00450154 -0.0690959 0.00132545)
(0.0049737 -0.0654277 0.00123012)
(0.00540756 -0.0607762 0.00110868)
(0.00579265 -0.0551842 0.000958835)
(0.00611977 -0.0487635 0.000776892)
(0.00638219 -0.0416896 0.000558489)
(0.00657591 -0.0341791 0.000300071)
(0.00669913 -0.0264628 9.22436e-07)
(0.00675245 -0.0187597 -0.000334364)
(0.00673913 -0.0112539 -0.000693585)
(0.00666525 -0.00408153 -0.00105538)
(0.00653932 0.0026739 -0.0013893)
(0.00637134 0.00898509 -0.00165816)
(0.00617117 0.0148854 -0.00182225)
(0.0059458 0.0204671 -0.0018439)
(0.00569646 0.0258724 -0.00169163)
(0.00541598 0.0312876 -0.00134473)
(0.00508734 0.0369469 -0.000799479)
(0.00468504 0.0431391 -7.84834e-05)
(0.00417955 0.050175 0.000754512)
(0.00354368 0.0581986 0.00157628)
(0.00276464 0.0666539 0.00220201)
(0.00191951 0.0734712 0.00244401)
(0.00114884 0.0755091 0.00224538)
(0.000477273 0.0672764 0.00159909)
(3.7984e-05 0.0350046 0.000527689)
(2.346e-05 -0.0174359 0.00025073)
(0.000274673 -0.0430329 0.000687499)
(0.000673905 -0.0602191 0.00103971)
(0.00116526 -0.0705874 0.00129213)
(0.00167664 -0.0759511 0.00144414)
(0.00217907 -0.0782769 0.00152181)
(0.00267747 -0.0787927 0.00155075)
(0.00317236 -0.07802 0.00154487)
(0.00365525 -0.076146 0.00151098)
(0.00411836 -0.073219 0.00145279)
(0.00455412 -0.069231 0.001372)
(0.00495374 -0.0641768 0.0012683)
(0.00530856 -0.0581058 0.00113912)
(0.00561143 -0.0511433 0.000979806)
(0.00585722 -0.0434809 0.00078437)
(0.00604246 -0.0353512 0.000547035)
(0.00616562 -0.0270018 0.000264185)
(0.00622684 -0.0186727 -6.33647e-05)
(0.00622758 -0.010573 -0.000427783)
(0.0061717 -0.00286486 -0.000812202)
(0.0060659 0.00434138 -0.00118996)
(0.0059188 0.0109983 -0.00152618)
(0.0057397 0.0171343 -0.00178164)
(0.00553586 0.0228553 -0.00191718)
(0.00530936 0.0283369 -0.00189688)
(0.0050545 0.0338171 -0.0016907)
(0.00475578 0.0395943 -0.00127957)
(0.00438844 0.0460207 -0.000666638)
(0.00392343 0.0534366 0.000102348)
(0.00333481 0.0619316 0.000913541)
(0.00261003 0.0707751 0.00157862)
(0.00182605 0.0776699 0.00189456)
(0.00110238 0.0794392 0.00179363)
(0.000461405 0.0703251 0.00127898)
(3.86951e-05 0.036338 0.000408053)
(2.58344e-05 -0.018441 0.000250632)
(0.000271342 -0.0454422 0.000697842)
(0.000656911 -0.0634939 0.00105243)
(0.00112554 -0.0743117 0.00129883)
(0.00160797 -0.0798542 0.00144293)
(0.00207841 -0.0822239 0.00151447)
(0.00254274 -0.08271 0.00153975)
(0.00300144 -0.0818478 0.00153315)
(0.00344637 -0.0798233 0.00150227)
(0.00387041 -0.0766783 0.0014518)
(0.0042668 -0.0724001 0.00138449)
(0.00462799 -0.0669856 0.00130086)
(0.00494692 -0.0604935 0.0011986)
(0.00521818 -0.053062 0.00107251)
(0.00543816 -0.0448954 0.000915159)
(0.00560448 -0.0362386 0.000718275)
(0.00571548 -0.0273505 0.000474777)
(0.005771 -0.0184819 0.000181155)
(0.00577277 -0.00985965 -0.000159933)
(0.00572326 -0.00166702 -0.000537029)
(0.00562753 0.00596188 -0.000927998)
(0.00549288 0.0129599 -0.0013009)
(0.00532749 0.0193483 -0.00161766)
(0.00513811 0.0252424 -0.00183858)
(0.00492712 0.0308444 -0.00192538)
(0.00468996 0.0364335 -0.00184258)
(0.00441319 0.0423604 -0.00156086)
(0.00407421 0.0490268 -0.00106822)
(0.00364474 0.0567931 -0.000393125)
(0.00309993 0.0656937 0.00036537)
(0.00242821 0.0748457 0.00102606)
(0.00170457 0.08177 0.00138273)
(0.00103028 0.0832608 0.00136239)
(0.000427902 0.0732795 0.000975161)
(3.3819e-05 0.0376302 0.000298867)
(2.13211e-05 -0.0195227 0.000274781)
(0.000252904 -0.0480582 0.000753605)
(0.000618716 -0.0670455 0.00112163)
(0.00106419 -0.0783239 0.00137008)
(0.00152157 -0.0840288 0.0015123)
(0.00196646 -0.0864236 0.00158247)
(0.00240494 -0.0868648 0.00160823)
(0.00283696 -0.0859025 0.00160442)
(0.00325429 -0.0837219 0.00157901)
(0.00365005 -0.0803609 0.00153717)
(0.004018 -0.0758044 0.00148211)
(0.00435153 -0.0700522 0.00141466)
(0.00464488 -0.0631712 0.00133251)
(0.00489403 -0.0553089 0.0012302)
(0.00509653 -0.0466785 0.0010997)
(0.00525086 -0.0375317 0.000931812)
(0.00535594 -0.0281348 0.000718008)
(0.00541101 -0.0187486 0.000452588)
(0.00541637 -0.00961086 0.000135038)
(0.00537412 -0.000923868 -0.000227364)
(0.0052881 0.00715489 -0.000617215)
(0.00516403 0.0145376 -0.00100686)
(0.00500883 0.0212357 -0.00136134)
(0.00482853 0.0273697 -0.00164262)
(0.00462555 0.0331625 -0.00181247)
(0.0043964 0.0389277 -0.00183319)
(0.00412982 0.0450582 -0.00166951)
(0.00380644 0.0519948 -0.00129856)
(0.00340147 0.0601086 -0.000733558)
(0.002891 0.0693827 -5.63844e-05)
(0.00226325 0.0787987 0.000566676)
(0.00159177 0.0857276 0.000935896)
(0.00096213 0.0869355 0.000977416)
(0.00039649 0.0761026 0.000705704)
(3.04145e-05 0.0388505 0.000206155)
(2.31367e-05 -0.0205042 0.000288074)
(0.00025221 -0.0503987 0.000777079)
(0.000607269 -0.070199 0.0011399)
(0.00103335 -0.0818763 0.00137638)
(0.0014658 -0.0877272 0.00150761)
(0.00188339 -0.0901496 0.0015705)
(0.00229307 -0.0905537 0.00159245)
(0.00269489 -0.0895013 0.0015882)
(0.00308106 -0.0871774 0.0015661)
(0.00344525 -0.0836173 0.00153199)
(0.00378184 -0.0788066 0.00148989)
(0.00408514 -0.0727512 0.0014413)
(0.0043506 -0.0655282 0.0013842)
(0.00457538 -0.0572952 0.00131279)
(0.00475808 -0.048272 0.001218)
(0.00489792 -0.038714 0.00108887)
(0.00499429 -0.02889 0.000914539)
(0.00504661 -0.0190641 0.000686624)
(0.00505458 -0.00948128 0.000401646)
(0.00501874 -0.000356077 6.35757e-05)
(0.00494204 0.00813539 -0.000313681)
(0.00482927 0.0158873 -0.000705715)
(0.00468572 0.022902 -0.00108016)
(0.00451618 0.0293026 -0.00140094)
(0.00432261 0.0353275 -0.00163103)
(0.00410207 0.0413165 -0.00173276)
(0.00384503 0.0476948 -0.00166848)
(0.00353513 0.0549302 -0.00140883)
(0.00315123 0.0633943 -0.000955086)
(0.00267172 0.0730153 -0.000372022)
(0.00208617 0.0826513 0.000193225)
(0.00146641 0.0895482 0.000554503)
(0.000883697 0.0904536 0.000640947)
(0.000359465 0.0787727 0.000470086)
(2.58131e-05 0.0399856 0.000126696)
(2.05718e-05 -0.0215346 0.000311975)
(0.000241124 -0.0528514 0.000821562)
(0.000581957 -0.0734839 0.00118532)
(0.000989636 -0.0855441 0.00141391)
(0.00140111 -0.0915146 0.00153665)
(0.00179679 -0.0939436 0.00159383)
(0.00218386 -0.0942962 0.00161314)
(0.00256204 -0.0931442 0.00160922)
(0.00292367 -0.0906723 0.00159059)
(0.00326278 -0.0869148 0.00156349)
(0.00357429 -0.0818594 0.00153237)
(0.00385343 -0.0755189 0.00149913)
(0.00409672 -0.0679797 0.00146201)
(0.0043024 -0.0594073 0.00141525)
(0.00446992 -0.0500259 0.00134944)
(0.00459909 -0.0400922 0.00125278)
(0.00468955 -0.0298749 0.00111295)
(0.00474069 -0.0196391 0.000919474)
(0.0047519 -0.00963455 0.000666379)
(0.00472303 -8.65236e-05 0.000354755)
(0.00465506 0.00881267 -4.7684e-06)
(0.00455128 0.0169412 -0.000390973)
(0.00441646 0.024292 -0.000774419)
(0.00425436 0.0309898 -0.0011213)
(0.00406643 0.0372856 -0.00139622)
(0.00385013 0.0435414 -0.00156247)
(0.00359742 0.0502078 -0.00158204)
(0.0032947 0.0577708 -0.00142212)
(0.00292481 0.0665932 -0.00107518)
(0.00247009 0.0765437 -0.000590453)
(0.00192178 0.0863661 -9.45942e-05)
(0.00134879 0.0932024 0.000244241)
(0.000810162 0.0937907 0.000360743)
(0.000325801 0.0812744 0.000274423)
(2.24783e-05 0.0410306 6.30565e-05)
(2.12458e-05 -0.0225069 0.000325945)
(0.000237219 -0.0551321 0.000839853)
(0.000565631 -0.0765105 0.00119224)
(0.000953803 -0.0889063 0.00140505)
(0.00134187 -0.0949808 0.00151515)
(0.00171294 -0.0974151 0.00156447)
(0.00207466 -0.0977194 0.00157987)
(0.0024267 -0.0964736 0.00157559)
(0.00276179 -0.0938626 0.00156029)
(0.00307442 -0.0899209 0.00154069)
(0.00336005 -0.0846408 0.00152186)
(0.00361471 -0.0780445 0.00150627)
(0.00383586 -0.0702286 0.00149252)
(0.00402269 -0.0613665 0.00147481)
(0.00417542 -0.0516856 0.00144321)
(0.00429445 -0.0414407 0.00138473)
(0.00437976 -0.0308964 0.0012851)
(0.00443074 -0.0203144 0.00113135)
(0.00444634 -0.00994459 0.000914695)
(0.00442547 -1.8265e-05 0.000633558)
(0.0043683 0.009259 0.000296114)
(0.0042765 0.0177509 -7.88533e-05)
(0.00415295 0.0254416 -0.00046405)
(0.00400061 0.032455 -0.000827516)
(0.00382049 0.0390511 -0.00113545)
(0.00361018 0.0456085 -0.00135253)
(0.00336277 0.0525968 -0.00144155)
(0.00306711 0.0605116 -0.0013684)
(0.00270971 0.0696984 -0.00111947)
(0.00227695 0.0799627 -0.00073057)
(0.00176256 0.0899403 -0.000308087)
(0.00123331 0.0966882 -2.29308e-07)
(0.000737651 0.0969456 0.00013453)
(0.000292987 0.0836095 0.000116893)
(1.92121e-05 0.0419903 1.36032e-05)
(1.94442e-05 -0.023491 0.000343316)
(0.000227522 -0.05743 0.000864627)
(0.000542538 -0.0795425 0.00120778)
(0.000913362 -0.0922507 0.00140633)
(0.00128199 -0.0984076 0.00150453)
(0.00163313 -0.100833 0.00154619)
(0.00197451 -0.101081 0.00155758)
(0.00230552 -0.0997374 0.00155248)
(0.00261907 -0.0969873 0.00153962)
(0.00291002 -0.0928668 0.00152598)
(0.00317435 -0.0873737 0.00151705)
(0.0034088 -0.0805395 0.00151578)
(0.00361169 -0.072471 0.00152122)
(0.00378298 -0.0633486 0.00152797)
(0.00392357 -0.0534012 0.00152626)
(0.00403439 -0.0428811 0.00150275)
(0.00411572 -0.0320468 0.00144201)
(0.00416695 -0.0211543 0.00132888)
(0.00418669 -0.0104506 0.00115153)
(0.00417321 -0.000170659 0.000904869)
(0.00412539 0.00946962 0.000593792)
(0.00404352 0.0183203 0.000234498)
(0.00392919 0.0263565 -0.000147566)
(0.00378434 0.0337004 -0.00052167)
(0.00360968 0.0406192 -0.000855042)
(0.00340301 0.0475055 -0.00111356)
(0.00315842 0.0548427 -0.00126117)
(0.0028669 0.0631293 -0.00126363)
(0.00251832 0.0726861 -0.00110311)
(0.00210313 0.0832512 -0.0008042)
(0.00161891 0.0933562 -0.000454478)
(0.0011295 0.0999936 -0.000182311)
(0.000673043 0.0999126 -3.88451e-05)
(0.000264615 0.0857803 -3.02876e-06)
(1.68799e-05 0.0428694 -2.18437e-05)
(1.93347e-05 -0.0244355 0.000353665)
(0.000221481 -0.0596116 0.00087156)
(0.000524043 -0.082399 0.00119796)
(0.000877018 -0.0953855 0.00137804)
(0.00122521 -0.101612 0.00146258)
(0.00155541 -0.104026 0.00149594)
(0.00187559 -0.104219 0.00150309)
(0.00218495 -0.102781 0.00149721)
(0.00247676 -0.099898 0.00148701)
(0.00274623 -0.0956095 0.00147979)
(0.00298979 -0.0899203 0.00148147)
(0.00320479 -0.0828726 0.00149544)
(0.00339024 -0.0745838 0.00152118)
(0.00354677 -0.0652412 0.00155361)
(0.00367592 -0.0550745 0.00158303)
(0.00377914 -0.0443313 0.00159581)
(0.00385716 -0.0332613 0.00157552)
(0.0039095 -0.0221109 0.0015051)
(0.00393453 -0.01112 0.00136989)
(0.00392975 -0.000522323 0.00116128)
(0.00389286 0.00945903 0.000880583)
(0.00382268 0.0186614 0.000541149)
(0.00371938 0.0270488 0.000166669)
(0.00358384 0.034739 -0.000213037)
(0.00341621 0.042003 -0.000565807)
(0.00321442 0.049243 -0.000858354)
(0.00297351 0.0569518 -0.00105573)
(0.00268641 0.0656249 -0.00112396)
(0.00234598 0.0755531 -0.00104224)
(0.00194643 0.086405 -0.000825765)
(0.00148905 0.0966139 -0.000545266)
(0.00103513 0.103124 -0.000310364)
(0.000614329 0.102702 -0.000165397)
(0.000239217 0.0878014 -8.9776e-05)
(1.48579e-05 0.0436783 -4.54013e-05)
(1.79246e-05 -0.0253692 0.000363624)
(0.000212619 -0.0617571 0.000876945)
(0.000502969 -0.0851933 0.00118638)
(0.000840322 -0.0984335 0.00134824)
(0.00117134 -0.104713 0.00141919)
(0.00148423 -0.107106 0.00144404)
(0.00178696 -0.107238 0.00144645)
(0.00207848 -0.105705 0.00143896)
(0.00235228 -0.102693 0.0014302)
(0.00260391 -0.098243 0.00142764)
(0.00283016 -0.0923688 0.00143753)
(0.00302892 -0.0851233 0.0014637)
(0.00319974 -0.0766345 0.00150616)
(0.00334379 -0.0670962 0.00156044)
(0.0034631 -0.0567396 0.00161746)
(0.00355962 -0.045807 0.00166382)
(0.00363446 -0.0345387 0.00168271)
(0.00368736 -0.0231695 0.00165561)
(0.0037166 -0.0119289 0.00156513)
(0.00371917 -0.00104563 0.00139881)
(0.00369174 0.009254 0.00115369)
(0.00363175 0.0187968 0.000839444)
(0.00353806 0.0275352 0.000477559)
(0.0034105 0.0355811 9.699e-05)
(0.00324876 0.0432062 -0.000270291)
(0.00305094 0.0508192 -0.00059128)
(0.0028129 0.0589178 -0.00083168)
(0.00252922 0.0679897 -0.000957703)
(0.00219541 0.0782903 -0.000946213)
(0.00180897 0.0894168 -0.000804502)
(0.00137471 0.099709 -0.00058849)
(0.000952094 0.106079 -0.000390797)
(0.000563232 0.105318 -0.000249988)
(0.000217612 0.0896798 -0.00014669)
(1.33778e-05 0.0444221 -5.81779e-05)
(1.7441e-05 -0.0262732 0.000368791)
(0.000206045 -0.0638191 0.000870841)
(0.000485285 -0.0878628 0.00115923)
(0.000807546 -0.101332 0.00130096)
(0.00112172 -0.107654 0.0013578)
(0.00141763 -0.110023 0.00137408)
(0.0017033 -0.110096 0.00137187)
(0.00197752 -0.10847 0.00136293)
(0.00223406 -0.105333 0.00135577)
(0.00246873 -0.100731 0.00135801)
(0.00267868 -0.0946859 0.00137615)
(0.00286217 -0.0872619 0.00141437)
(0.00301924 -0.078598 0.00147311)
(0.00315153 -0.0688947 0.00154839)
(0.00326156 -0.0583836 0.00163166)
(0.00335176 -0.0473015 0.00170993)
(0.00342372 -0.0358776 0.00176638)
(0.00347749 -0.0243324 0.00178164)
(0.00351136 -0.0128819 0.00173621)
(0.00352192 -0.00174533 0.00161421)
(0.00350481 0.00885165 0.00140826)
(0.0034561 0.0187271 0.00112382)
(0.00337315 0.0278209 0.000779472)
(0.00325464 0.0362355 0.000402923)
(0.0030997 0.0442396 2.59955e-05)
(0.00290657 0.052244 -0.000318217)
(0.00267209 0.0607475 -0.000595608)
(0.00239234 0.0702261 -0.000772398)
(0.00206493 0.0808971 -0.000823311)
(0.00169031 0.092286 -0.000748837)
(0.00127637 0.102645 -0.000592004)
(0.000880696 0.108868 -0.000430453)
(0.000519395 0.107775 -0.000298137)
(0.000199418 0.0914333 -0.000177786)
(1.23042e-05 0.0451109 -6.18823e-05)
(1.63525e-05 -0.0271564 0.000371825)
(0.000198455 -0.0658228 0.000859443)
(0.000467425 -0.090443 0.00112535)
(0.000776653 -0.104117 0.00124652)
(0.0010766 -0.110468 0.00128902)
(0.00135829 -0.112806 0.00129639)
(0.0016297 -0.112816 0.00128896)
(0.00188946 -0.111098 0.00127773)
(0.00213154 -0.107839 0.00127099)
(0.002352 -0.103091 0.00127645)
(0.0025482 -0.0968835 0.00130081)
(0.00271875 -0.089293 0.00134862)
(0.00286401 -0.0804693 0.00142084)
(0.002986 -0.0706205 0.00151419)
(0.00308763 -0.0599793 0.00162088)
(0.00317178 -0.0487775 0.0017286)
(0.00324047 -0.0372329 0.00182088)
(0.00329414 -0.0255506 0.00187788)
(0.00333127 -0.0139303 0.00187841)
(0.00334825 -0.00257754 0.00180334)
(0.00333998 0.00828791 0.0016407)
(0.00330131 0.0184787 0.00139114)
(0.00322819 0.0279229 0.00106961)
(0.00311815 0.0367114 0.000702059)
(0.00296965 0.0451067 0.000320105)
(0.00278091 0.0535175 -4.27417e-05)
(0.00254954 0.062439 -0.000352013)
(0.00227339 0.0723309 -0.000573469)
(0.001952 0.0833704 -0.000679901)
(0.00158789 0.0950112 -0.00066577)
(0.00119175 0.105424 -0.000562913)
(0.000819355 0.111497 -0.000436009)
(0.000481838 0.110079 -0.000315623)
(0.000183996 0.093069 -0.000187349)
(1.14724e-05 0.0457492 -5.82049e-05)
(1.57804e-05 -0.0280167 0.000371487)
(0.000192449 -0.0677643 0.000840577)
(0.00045234 -0.0929312 0.00108201)
(0.000749639 -0.106792 0.00118207)
(0.00103643 -0.113161 0.00121034)
(0.00130491 -0.115465 0.001209)
(0.00156309 -0.115413 0.00119652)
(0.00180949 -0.113604 0.00118305)
(0.00203829 -0.110229 0.00117668)
(0.00224574 -0.105342 0.00118509)
(0.00242936 -0.0989827 0.00121516)
(0.00258798 -0.0912399 0.00127168)
(0.0027223 -0.0822746 0.00135605)
(0.00283465 -0.0723019 0.00146553)
(0.00292836 -0.0615562 0.00159307)
(0.00300675 -0.0502637 0.00172719)
(0.0030723 -0.0386307 0.00185208)
(0.0031259 -0.0268458 0.00194803)
(0.00316626 -0.0150897 0.00199289)
(0.00318968 -0.0035514 0.00196493)
(0.00319039 0.00755977 0.00184788)
(0.0031621 0.0180543 0.00163724)
(0.00309929 0.0278481 0.00134356)
(0.00299828 0.0370189 0.000990232)
(0.00285681 0.0458189 0.000608233)
(0.00267302 0.0546507 0.000231532)
(0.00244507 0.064002 -0.000104675)
(0.00217213 0.0743128 -0.000365218)
(0.00185611 0.0857169 -0.000520753)
(0.00150149 0.0975996 -0.000560557)
(0.00112078 0.108056 -0.000506678)
(0.000768164 0.113979 -0.000412706)
(0.000450707 0.112249 -0.000307006)
(0.000171425 0.0946033 -0.000178736)
(1.09448e-05 0.0463449 -4.84641e-05)
(1.50505e-05 -0.0288537 0.000368279)
(0.00018652 -0.0696424 0.000814885)
(0.000438388 -0.0953249 0.00102996)
(0.000725579 -0.10935 0.00110834)
(0.00100137 -0.115726 0.00112222)
(0.00125891 -0.117989 0.00111191)
(0.00150618 -0.117871 0.00109386)
(0.00174149 -0.115973 0.00107735)
(0.00195921 -0.112484 0.00107022)
(0.00215572 -0.107462 0.00108016)
(0.00232862 -0.100957 0.00111418)
(0.00247692 -0.0930699 0.00117743)
(0.00260153 -0.083974 0.00127176)
(0.00270507 -0.0738924 0.00139511)
(0.00279117 -0.0630618 0.0015412)
(0.00286354 -0.0517037 0.00169947)
(0.00292516 -0.0400135 0.00185493)
(0.0029774 -0.0281622 0.00198829)
(0.00301941 -0.0163101 0.00207681)
(0.00304761 -0.00462504 0.00209667)
(0.00305583 0.00669899 0.00202759)
(0.00303681 0.0174748 0.00185976)
(0.00298368 0.0276083 0.00159873)
(0.00289149 0.0371622 0.00126468)
(0.00275713 0.0463753 0.000887444)
(0.00257858 0.0556398 0.000501422)
(0.00235444 0.0654313 0.000142842)
(0.00208486 0.0761669 -0.000151794)
(0.00177333 0.0879353 -0.000350774)
(0.00142691 0.100052 -0.000438533)
(0.00105989 0.110544 -0.000428915)
(0.000724282 0.11632 -0.0003661)
(0.000423937 0.11429 -0.000277259)
(0.000160554 0.0960418 -0.000155678)
(1.0473e-05 0.0469008 -3.4132e-05)
(1.45545e-05 -0.0296727 0.000362541)
(0.000181405 -0.0714719 0.000784156)
(0.00042606 -0.0976466 0.000972233)
(0.000704192 -0.111821 0.00102932)
(0.000970295 -0.118195 0.00102942)
(0.00121846 -0.120415 0.00101059)
(0.00145651 -0.120232 0.000987119)
(0.00168237 -0.118245 0.000967424)
(0.00189043 -0.114645 0.000959134)
(0.00207726 -0.109493 0.000969917)
(0.00224058 -0.102849 0.00100691)
(0.00237958 -0.0948268 0.00107545)
(0.00249537 -0.0856119 0.00117778)
(0.00259081 -0.0754356 0.00131238)
(0.0026698 -0.0645367 0.00147379)
(0.00273641 -0.0531329 0.00165245)
(0.00279406 -0.0414088 0.0018345)
(0.00284464 -0.0295185 0.00200153)
(0.00288775 -0.0176004 0.00213092)
(0.00292009 -0.00579908 0.00219745)
(0.00293524 0.00571156 0.00217736)
(0.00292513 0.016751 0.00205549)
(0.0028816 0.0272164 0.00183182)
(0.00279838 0.0371555 0.00152234)
(0.00267144 0.0467903 0.00115509)
(0.00249847 0.0564983 0.000764552)
(0.00227845 0.0667391 0.000388134)
(0.00201244 0.0779036 6.4017e-05)
(0.00170507 0.0900344 -0.000173512)
(0.00136498 0.102379 -0.00030425)
(0.00100922 0.112902 -0.000334688)
(0.000688173 0.118532 -0.000301314)
(0.000402126 0.116216 -0.000231013)
(0.00015186 0.0973964 -0.000121518)
(1.03105e-05 0.0474224 -1.64484e-05)
(1.41002e-05 -0.0304684 0.000353745)
(0.000176828 -0.073238 0.000746477)
(0.00041536 -0.0998756 0.000905798)
(0.000685949 -0.114181 0.000941086)
(0.000944139 -0.120546 0.000927344)
(0.0011848 -0.122719 0.000899818)
(0.00141555 -0.122468 0.000870554)
(0.0016338 -0.120391 0.000847058)
(0.00183392 -0.116679 0.000836717)
(0.00201258 -0.111398 0.000847229)
(0.00216771 -0.104618 0.000885833)
(0.00229859 -0.0964655 0.000958109)
(0.00240645 -0.0871392 0.00106667)
(0.00249431 -0.0768787 0.00121057)
(0.00256629 -0.0659261 0.00138512)
(0.00262676 -0.0544962 0.00158177)
(0.00267956 -0.0427635 0.00178779)
(0.00272714 -0.0308656 0.00198586)
(0.00276969 -0.0189178 0.0021539)
(0.00280436 -0.00703857 0.00226595)
(0.00282481 0.00462305 0.00229543)
(0.00282239 0.0158984 0.00222213)
(0.00278778 0.0266797 0.00204004)
(0.0027134 0.0369991 0.00176031)
(0.00259413 0.0470598 0.00140831)
(0.00242719 0.0572202 0.00101822)
(0.00221179 0.0679192 0.000628631)
(0.00194982 0.0795179 0.00027964)
(0.00164696 0.0920113 8.29251e-06)
(0.0013129 0.104582 -0.000160809)