/*--------------------------------*- C++ -*----------------------------------*\
| =========                 |                                                 |
| \\      /  F ield         | OpenFOAM: The Open Source CFD Toolbox           |
|  \\    /   O peration     | Version:  v1906                                 |
|   \\  /    A nd           | Web:      www.OpenFOAM.com                      |
|    \\/     M anipulation  |                                                 |
\*---------------------------------------------------------------------------*/
FoamFile
{
    version     2.0;
    format      ascii;
    class       surfaceScalarField;
    location    "65.8/oil";
    object      phi;
}
// * * * * * * * * * * * * * * * * * * * * * * * * * * * * * * * * * * * * * //

dimensions      [1 0 -1 0 0 0 0];
oriented        oriented;


internalField   nonuniform List<scalar> 
80688
(
-2.17667e-06
-2.21376e-06
-2.17667e-06
-9.82106e-07
-6.17944e-07
-5.76621e-07
-2.64323e-07
-3.61666e-07
-3.56117e-07
-1.25547e-07
-7.0145e-08
-6.86306e-08
-4.35583e-08
-4.16009e-08
-4.03878e-08
-2.96879e-09
-2.07427e-08
-1.98468e-08
1.93502e-08
-1.14268e-08
-1.08921e-08
3.17361e-08
-6.34166e-09
-6.04425e-09
3.77854e-08
-3.14644e-09
-2.90286e-09
3.90527e-08
-8.29e-10
-4.38242e-10
3.63672e-08
1.03617e-09
1.64942e-09
3.03407e-08
2.56294e-09
3.46353e-09
2.16359e-08
3.75586e-09
4.94895e-09
1.10275e-08
4.59174e-09
6.0167e-09
-5.95834e-10
5.03533e-09
6.58804e-09
-1.22866e-08
5.06837e-09
6.62237e-09
-2.31121e-08
4.69846e-09
6.12713e-09
-3.22355e-08
3.96215e-09
5.1612e-09
-3.8992e-08
2.92432e-09
3.83227e-09
-4.29401e-08
1.66568e-09
2.28234e-09
-4.39006e-08
2.73273e-10
6.87247e-10
-4.19594e-08
-1.1189e-09
-8.22275e-10
-3.74507e-08
-2.44153e-09
-2.06708e-09
-3.09525e-08
-3.60142e-09
-2.89678e-09
-2.3239e-08
-4.49341e-09
-3.22011e-09
-1.52486e-08
-4.99385e-09
-2.99652e-09
-8.03134e-09
-4.9369e-09
-2.28034e-09
-2.64777e-09
-4.11063e-09
-1.27292e-09
5.59249e-11
-2.29811e-09
-4.05561e-10
1.05967e-10
-5.00285e-11
-5.85126e-07
-1.04352e-06
-5.8512e-07
-3.47097e-07
-3.87577e-07
-4.68395e-07
-2.41961e-07
-2.67379e-07
-1.99423e-07
-1.07583e-07
-1.25538e-07
-7.8985e-08
-2.79257e-08
-8.24766e-08
-3.87817e-08
2.11151e-08
-5.56516e-08
-1.41318e-08
5.24725e-08
-4.19164e-08
-8.67658e-10
7.15612e-08
-3.30345e-08
7.60418e-09
8.10213e-08
-2.65352e-08
1.39287e-08
8.21349e-08
-2.11833e-08
1.92407e-08
7.57914e-08
-1.65578e-08
2.39375e-08
6.29248e-08
-1.26037e-08
2.80333e-08
4.47293e-08
-9.41842e-09
3.13698e-08
2.27179e-08
-7.1564e-09
3.37596e-08
-1.33762e-09
-5.94559e-09
3.50365e-08
-2.55271e-08
-5.85486e-09
3.51127e-08
-4.79647e-08
-6.8666e-09
3.40027e-08
-6.69595e-08
-8.871e-09
3.1828e-08
-8.11657e-08
-1.16767e-08
2.88072e-08
-8.96939e-08
-1.50267e-08
2.52207e-08
-9.21869e-08
-1.863e-08
2.13963e-08
-8.88057e-08
-2.21655e-08
1.76654e-08
-8.02415e-08
-2.53203e-08
1.43146e-08
-6.76381e-08
-2.77736e-08
1.15688e-08
-5.25123e-08
-2.91834e-08
9.56423e-09
-3.66454e-08
-2.91572e-08
8.29651e-09
-2.19317e-08
-2.72217e-08
7.5711e-09
-1.01545e-08
-2.28219e-08
6.93409e-09
-2.65305e-09
-1.53887e-08
5.5892e-09
-5.20839e-09
2.66132e-09
-3.62636e-07
-3.18252e-07
-3.62629e-07
-2.36552e-07
-3.11944e-07
-2.01717e-07
-1.48003e-07
-2.34904e-07
-1.21024e-07
-5.91993e-08
-1.59146e-07
-5.51958e-08
3.78687e-09
-1.25184e-07
-2.02789e-08
4.94654e-08
-1.02883e-07
1.55235e-09
8.13995e-08
-8.90158e-08
1.51653e-08
1.01793e-07
-7.84383e-08
2.50105e-08
1.11675e-07
-6.94488e-08
3.30319e-08
1.11618e-07
-6.12443e-08
4.01181e-08
1.02255e-07
-5.37034e-08
4.65086e-08
8.45489e-08
-4.70197e-08
5.21217e-08
5.99564e-08
-4.15287e-08
5.67028e-08
3.03981e-08
-3.75824e-08
5.99844e-08
-1.82126e-09
-3.54606e-08
6.17344e-08
-3.42043e-08
-3.53069e-08
6.18351e-08
-6.42788e-08
-3.70951e-08
6.0303e-08
-8.98219e-08
-4.06229e-08
5.7295e-08
-1.09073e-07
-4.55246e-08
5.30986e-08
-1.20864e-07
-5.13159e-08
4.80803e-08
-1.24728e-07
-5.7431e-08
4.26654e-08
-1.20887e-07
-6.32618e-08
3.72547e-08
-1.10231e-07
-6.8192e-08
3.22161e-08
-9.42145e-08
-7.15926e-08
2.78026e-08
-7.47377e-08
-7.28046e-08
2.41444e-08
-5.3984e-08
-7.10987e-08
2.11877e-08
-3.4204e-08
-6.56393e-08
1.86375e-08
-1.74756e-08
-5.54394e-08
1.58892e-08
-5.49122e-09
-3.93207e-08
1.19476e-08
-1.61999e-08
5.50027e-09
-6.64493e-08
-1.85361e-07
-6.64418e-08
-8.21673e-08
-2.22154e-07
-7.40724e-08
-5.23468e-08
-2.12994e-07
-5.17301e-08
-3.6689e-09
-1.88217e-07
-1.96076e-08
4.14588e-08
-1.72827e-07
2.51568e-09
7.95779e-08
-1.59771e-07
1.87692e-08
1.08651e-07
-1.48979e-07
3.089e-08
1.27903e-07
-1.38573e-07
4.08831e-08
1.36762e-07
-1.28095e-07
4.97873e-08
1.3499e-07
-1.17522e-07
5.80497e-08
1.22845e-07
-1.07234e-07
6.56764e-08
1.01201e-07
-9.78198e-08
7.24436e-08
7.16239e-08
-8.9946e-08
7.79944e-08
3.62991e-08
-8.42353e-08
8.19778e-08
-2.10907e-09
-8.11531e-08
8.41007e-08
-4.06839e-08
-8.09443e-08
8.42122e-08
-7.65307e-08
-8.35773e-08
8.2329e-08
-1.0705e-07
-8.87432e-08
7.86399e-08
-1.30176e-07
-9.58817e-08
7.34833e-08
-1.44559e-07
-1.04234e-07
6.73002e-08
-1.4965e-07
-1.12918e-07
6.05786e-08
-1.45717e-07
-1.20991e-07
5.37953e-08
-1.3377e-07
-1.27492e-07
4.73535e-08
-1.15459e-07
-1.31436e-07
4.15323e-08
-9.28998e-08
-1.31818e-07
3.64538e-08
-6.84858e-08
-1.27541e-07
3.20286e-08
-4.46752e-08
-1.1735e-07
2.79005e-08
-2.37675e-08
-9.97127e-08
2.33655e-08
-7.89635e-09
-7.24666e-08
1.72748e-08
-3.20025e-08
7.90627e-09
-3.07596e-08
-1.2385e-07
-3.07508e-08
-2.84193e-08
-1.96368e-07
-2.81254e-08
-3.16618e-09
-2.24901e-07
-1.33457e-08
3.3989e-08
-2.3068e-07
5.30777e-09
7.17227e-08
-2.31091e-07
2.05304e-08
1.05687e-07
-2.27003e-07
3.3268e-08
1.32686e-07
-2.20174e-07
4.41963e-08
1.50715e-07
-2.10822e-07
5.42189e-08
1.5837e-07
-1.9955e-07
6.37997e-08
1.54886e-07
-1.87089e-07
7.30499e-08
1.40233e-07
-1.74356e-07
8.17752e-08
1.15207e-07
-1.62391e-07
8.95967e-08
8.14357e-08
-1.52234e-07
9.60595e-08
4.12999e-08
-1.44804e-07
1.00705e-07
-2.24476e-09
-1.40789e-07
1.0318e-07
-4.59449e-08
-1.40539e-07
1.03295e-07
-8.65584e-08
-1.44025e-07
1.01061e-07
-1.21178e-07
-1.50825e-07
9.6702e-08
-1.47501e-07
-1.60171e-07
9.06121e-08
-1.64031e-07
-1.71012e-07
8.33084e-08
-1.70169e-07
-1.82139e-07
7.53584e-08
-1.66212e-07
-1.92249e-07
6.73008e-08
-1.53274e-07
-2.00006e-07
5.95767e-08
-1.33137e-07
-2.04075e-07
5.25016e-08
-1.08063e-07
-2.03086e-07
4.61951e-08
-8.06029e-08
-1.95547e-07
4.05456e-08
-5.33724e-08
-1.79733e-07
3.51518e-08
-2.89106e-08
-1.53398e-07
2.92238e-08
-9.805e-09
-1.13044e-07
2.14714e-08
-5.16235e-08
9.81606e-09
-6.74472e-09
-1.10371e-07
-6.73461e-09
4.52249e-09
-2.07372e-07
-2.63303e-10
2.8871e-08
-2.59648e-07
1.03982e-08
6.1627e-08
-2.86168e-07
2.27328e-08
9.60288e-08
-2.9962e-07
3.41274e-08
1.27858e-07
-3.03637e-07
4.4805e-08
1.53633e-07
-3.01022e-07
5.50734e-08
1.70775e-07
-2.93266e-07
6.53025e-08
1.77403e-07
-2.81794e-07
7.56157e-08
1.72408e-07
-2.6798e-07
8.58874e-08
1.55555e-07
-2.53255e-07
9.57527e-08
1.27567e-07
-2.39093e-07
1.0469e-07
9.012e-08
-2.26908e-07
1.12121e-07
4.57737e-08
-2.17934e-07
1.17476e-07
-2.26406e-09
-2.13075e-07
1.20324e-07
-5.04354e-08
-2.12802e-07
1.20434e-07
-9.51914e-08
-2.17086e-07
1.17817e-07
-1.33346e-07
-2.25397e-07
1.12726e-07
-1.62394e-07
-2.36752e-07
1.05628e-07
-1.80719e-07
-2.49818e-07
9.71316e-08
-1.87693e-07
-2.6306e-07
8.7894e-08
-1.8365e-07
-2.7481e-07
7.85186e-08
-1.698e-07
-2.83389e-07
6.95329e-08
-1.48037e-07
-2.87102e-07
6.12639e-08
-1.20758e-07
-2.84209e-07
5.38438e-08
-9.06419e-08
-2.72808e-07
4.71455e-08
-6.0473e-08
-2.50633e-07
4.07312e-08
-3.30192e-08
-2.14585e-07
3.37332e-08
-1.12855e-08
-1.59492e-07
2.47148e-08
-7.42068e-08
1.12978e-08
3.82579e-09
-1.18034e-07
3.83718e-09
2.10997e-08
-2.38736e-07
1.40894e-08
4.77935e-08
-3.10447e-07
2.41049e-08
8.04441e-08
-3.52953e-07
3.41343e-08
1.14355e-07
-3.77396e-07
4.38646e-08
1.45754e-07
-3.88711e-07
5.36741e-08
1.71231e-07
-3.90349e-07
6.38505e-08
1.88006e-07
-3.84611e-07
7.45695e-08
1.9397e-07
-3.73536e-07
8.57785e-08
1.87789e-07
-3.58995e-07
9.71959e-08
1.69088e-07
-3.42873e-07
1.08319e-07
1.3854e-07
-3.27033e-07
1.18489e-07
9.78802e-08
-3.13233e-07
1.26985e-07
4.98147e-08
-3.02998e-07
1.33129e-07
-2.20139e-09
-2.97453e-07
1.36394e-07
-5.43267e-08
-2.97172e-07
1.36496e-07
-1.02724e-07
-3.02132e-07
1.33443e-07
-1.43952e-07
-3.11703e-07
1.27535e-07
-1.75321e-07
-3.24706e-07
1.19323e-07
-1.95116e-07
-3.39537e-07
1.09514e-07
-2.02697e-07
-3.54352e-07
9.88733e-08
-1.98455e-07
-3.67168e-07
8.81158e-08
-1.837e-07
-3.75967e-07
7.78219e-08
-1.6044e-07
-3.78727e-07
6.83646e-08
-1.31198e-07
-3.73342e-07
5.98923e-08
-9.87851e-08
-3.57483e-07
5.22616e-08
-6.61369e-08
-3.28278e-07
4.49974e-08
-3.62365e-08
-2.8165e-07
3.71646e-08
-1.242e-08
-2.105e-07
2.71913e-08
-9.90605e-08
1.24337e-08
9.0106e-09
-1.36067e-07
9.023e-09
3.04076e-08
-2.82101e-07
2.19682e-08
5.96025e-08
-3.71882e-07
3.22406e-08
9.33617e-08
-4.28269e-07
4.15564e-08
1.27873e-07
-4.62622e-07
5.0715e-08
1.59642e-07
-4.80835e-07
6.03555e-08
1.85347e-07
-4.8689e-07
7.08368e-08
2.02151e-07
-4.83695e-07
8.22798e-08
2.07777e-07
-4.73701e-07
9.45387e-08
2.00767e-07
-4.59201e-07
1.07216e-07
1.80617e-07
-4.42425e-07
1.19701e-07
1.47965e-07
-4.2559e-07
1.31209e-07
1.04588e-07
-4.10735e-07
1.40878e-07
5.33481e-08
-3.99643e-07
1.47885e-07
-2.08664e-09
-3.93616e-07
1.51598e-07
-5.76078e-08
-3.93341e-07
1.51691e-07
-1.09109e-07
-3.98796e-07
1.48166e-07
-1.52915e-07
-4.09262e-07
1.41365e-07
-1.86174e-07
-4.23377e-07
1.31931e-07
-2.07095e-07
-4.39327e-07
1.2071e-07
-2.1505e-07
-4.54986e-07
1.08589e-07
-2.10507e-07
-4.68094e-07
9.63844e-08
-1.94871e-07
-4.76346e-07
8.47425e-08
-1.70275e-07
-4.77418e-07
7.40956e-08
-1.39364e-07
-4.68866e-07
6.46129e-08
-1.05064e-07
-4.47924e-07
5.61413e-08
-7.04389e-08
-4.11068e-07
4.81647e-08
-3.8644e-08
-3.53127e-07
3.96813e-08
-1.32595e-08
-2.64889e-07
2.90049e-08
-1.25594e-07
1.32744e-08
1.16124e-08
-1.59305e-07
1.16254e-08
3.55696e-08
-3.32336e-07
2.6278e-08
6.67175e-08
-4.40011e-07
3.69813e-08
1.01699e-07
-5.09453e-07
4.62029e-08
1.3706e-07
-5.53289e-07
5.53055e-08
1.69436e-07
-5.78355e-07
6.51433e-08
1.95585e-07
-5.89185e-07
7.61462e-08
2.12624e-07
-5.89157e-07
8.8423e-08
2.18194e-07
-5.81075e-07
1.01804e-07
2.10699e-07
-5.67514e-07
1.15808e-07
1.89572e-07
-5.51007e-07
1.2971e-07
1.5537e-07
-5.33989e-07
1.42601e-07
1.09913e-07
-5.18741e-07
1.53464e-07
5.61839e-08
-5.07258e-07
1.61344e-07
-1.94583e-09
-5.0101e-07
1.65524e-07
-6.014e-08
-5.00751e-07
1.65604e-07
-1.14057e-07
-5.06468e-07
1.61588e-07
-1.59827e-07
-5.17363e-07
1.53871e-07
-1.94457e-07
-5.31953e-07
1.43206e-07
-2.16114e-07
-5.48216e-07
1.30547e-07
-2.24202e-07
-5.63801e-07
1.16903e-07
-2.19275e-07
-5.76256e-07
1.03235e-07
-2.02843e-07
-5.83048e-07
9.02701e-08
-1.7717e-07
-5.81582e-07
7.84915e-08
-1.44991e-07
-5.69112e-07
6.80661e-08
-1.09324e-07
-5.42431e-07
5.88392e-08
-7.33188e-08
-4.97362e-07
5.02889e-08
-4.02391e-08
-4.27541e-07
4.13345e-08
-1.3812e-08
-3.21501e-07
3.01849e-08
-1.53234e-07
1.38278e-08
1.28658e-08
-1.8505e-07
1.28789e-08
3.81879e-08
-3.8609e-07
2.84322e-08
7.04563e-08
-5.11686e-07
3.94059e-08
1.06193e-07
-5.93873e-07
4.86838e-08
1.42074e-07
-6.47085e-07
5.79141e-08
1.74847e-07
-6.79196e-07
6.80685e-08
2.01349e-07
-6.95334e-07
7.96477e-08
2.18643e-07
-6.99226e-07
9.2775e-08
2.24335e-07
-6.93998e-07
1.0723e-07
2.16733e-07
-6.82417e-07
1.22506e-07
1.95135e-07
-6.67181e-07
1.37772e-07
1.60066e-07
-6.50905e-07
1.51985e-07
1.13352e-07
-6.36033e-07
1.64006e-07
5.80568e-08
-6.24715e-07
1.72752e-07
-1.79933e-09
-6.1852e-07
1.77366e-07
-6.17014e-08
-6.18284e-07
1.77435e-07
-1.17132e-07
-6.23998e-07
1.7296e-07
-1.64061e-07
-6.34797e-07
1.64363e-07
-1.99407e-07
-6.49093e-07
1.52486e-07
-2.21337e-07
-6.64726e-07
1.38441e-07
-2.29299e-07
-6.79224e-07
1.23384e-07
-2.23948e-07
-6.89953e-07
1.08346e-07
-2.06914e-07
-6.94235e-07
9.41526e-08
-1.80537e-07
-6.89294e-07
8.1334e-08
-1.47629e-07
-6.72107e-07
7.00875e-08
-1.11251e-07
-6.39073e-07
6.0263e-08
-7.45994e-08
-5.85291e-07
5.12777e-08
-4.09447e-08
-5.03225e-07
4.2029e-08
-1.40594e-08
-3.79068e-07
3.06819e-08
-1.81369e-07
1.40756e-08
1.32792e-08
-2.1162e-07
1.32913e-08
3.89306e-08
-4.40802e-07
2.90609e-08
7.13286e-08
-5.84132e-07
4.00486e-08
1.06987e-07
-6.78834e-07
4.93027e-08
1.42717e-07
-7.41417e-07
5.86029e-08
1.75375e-07
-7.80874e-07
6.902e-08
2.01854e-07
-8.02902e-07
8.10884e-08
2.19274e-07
-8.11575e-07
9.49289e-08
2.25182e-07
-8.10217e-07
1.10312e-07
2.17805e-07
-8.01718e-07
1.26677e-07
1.96354e-07
-7.88843e-07
1.43114e-07
1.61273e-07
-7.74312e-07
1.58488e-07
1.14344e-07
-7.60629e-07
1.71526e-07
5.86662e-08
-7.50056e-07
1.81018e-07
-1.66342e-09
-7.44207e-07
1.86016e-07
-6.20223e-08
-7.43997e-07
1.86072e-07
-1.17789e-07
-7.49406e-07
1.81176e-07
-1.64842e-07
-7.59546e-07
1.71802e-07
-2.00092e-07
-7.7274e-07
1.58897e-07
-2.21737e-07
-7.8674e-07
1.43658e-07
-2.2928e-07
-7.99033e-07
1.27353e-07
-2.23511e-07
-8.06869e-07
1.11148e-07
-2.06154e-07
-8.07538e-07
9.5946e-08
-1.79599e-07
-7.98145e-07
8.22964e-08
-1.46677e-07
-7.7545e-07
7.04218e-08
-1.10441e-07
-7.35481e-07
6.01722e-08
-7.40118e-08
-6.72691e-07
5.09707e-08
-4.06158e-08
-5.78297e-07
4.16762e-08
-1.39581e-08
-4.36131e-07
3.04054e-08
-2.09301e-07
1.39742e-08
1.30372e-08
-2.37706e-07
1.30485e-08
3.80143e-08
-4.94158e-07
2.83787e-08
6.94508e-08
-6.54589e-07
3.90206e-08
1.0398e-07
-7.61417e-07
4.80535e-08
1.38613e-07
-8.33338e-07
5.72872e-08
1.7035e-07
-8.80405e-07
6.77947e-08
1.96234e-07
-9.08902e-07
8.01159e-08
2.1348e-07
-9.2323e-07
9.44088e-08
2.19607e-07
-9.26769e-07
1.10425e-07
2.12825e-07
-9.2251e-07
1.27574e-07
1.92248e-07
-9.1317e-07
1.44904e-07
1.58165e-07
-9.01421e-07
1.61191e-07
1.12317e-07
-8.89823e-07
1.75043e-07
5.77083e-08
-8.80592e-07
1.85144e-07
-1.54663e-09
-8.75418e-07
1.90466e-07
-6.08175e-08
-8.75238e-07
1.90511e-07
-1.15465e-07
-8.80044e-07
1.85285e-07
-1.61398e-07
-8.88887e-07
1.75275e-07
-1.95552e-07
-9.00086e-07
1.615e-07
-2.16205e-07
-9.11392e-07
1.45304e-07
-2.23044e-07
-9.20259e-07
1.28065e-07
-2.16911e-07
-9.24036e-07
1.11034e-07
-1.99602e-07
-9.19992e-07
9.51453e-08
-1.73538e-07
-9.05183e-07
8.09739e-08
-1.41491e-07
-8.76263e-07
6.87652e-08
-1.06388e-07
-8.28929e-07
5.83457e-08
-7.12419e-08
-7.56982e-07
4.91455e-08
-3.90979e-08
-6.50495e-07
4.00541e-08
-1.34417e-08
-4.90997e-07
2.92095e-08
-2.362e-07
1.3457e-08
1.22059e-08
-2.62129e-07
1.22174e-08
3.54889e-08
-5.43917e-07
2.6476e-08
6.47395e-08
-7.20218e-07
3.63777e-08
9.6912e-08
-8.38476e-07
4.4887e-08
1.29253e-07
-9.19445e-07
5.37665e-08
1.59063e-07
-9.7428e-07
6.40648e-08
1.83606e-07
-1.00974e-06
7.62964e-08
2.00229e-07
-1.0305e-06
9.06489e-08
2.06554e-07
-1.03998e-06
1.06884e-07
2.00745e-07
-1.04111e-06
1.24406e-07
1.81821e-07
-1.0365e-06
1.42251e-07
1.49954e-07
-1.02865e-06
1.591e-07
1.0669e-07
-1.02005e-06
1.73488e-07
5.48863e-08
-1.01281e-06
1.84018e-07
-1.45639e-09
-1.00865e-06
1.89575e-07
-5.78043e-08
-1.00849e-06
1.89605e-07
-1.09626e-07
-1.01233e-06
1.8411e-07
-1.52905e-07
-1.01925e-06
1.73641e-07
-1.84763e-07
-1.02753e-06
1.59302e-07
-2.03679e-07
-1.035e-06
1.42523e-07
-2.09458e-07
-1.03925e-06
1.24773e-07
-2.03056e-07
-1.03777e-06
1.07335e-07
-1.86291e-07
-1.02792e-06
9.11655e-08
-1.61531e-07
-1.00684e-06
7.68928e-08
-1.31388e-07
-9.71122e-07
6.47159e-08
-9.86291e-08
-9.16157e-07
5.44688e-08
-6.59761e-08
-8.35242e-07
4.56066e-08
-3.61867e-08
-7.1733e-07
3.70456e-08
-1.24587e-08
-5.41728e-07
2.70035e-08
-2.61132e-07
1.24731e-08
1.07867e-08
-2.83706e-07
1.07905e-08
3.1288e-08
-5.87722e-07
2.33035e-08
5.70609e-08
-7.78002e-07
3.20116e-08
8.54751e-08
-9.06548e-07
3.96582e-08
1.14216e-07
-9.96024e-07
4.78381e-08
1.40928e-07
-1.05851e-06
5.75218e-08
1.63201e-07
-1.10126e-06
6.92471e-08
1.78634e-07
-1.1291e-06
8.31637e-08
1.85023e-07
-1.14545e-06
9.90866e-08
1.80565e-07
-1.15308e-06
1.1643e-07
1.64196e-07
-1.15437e-06
1.34239e-07
1.35905e-07
-1.15161e-06
1.51244e-07
9.69455e-08
-1.14701e-06
1.65918e-07
4.99386e-08
-1.14253e-06
1.76735e-07
-1.39209e-09
-1.13979e-06
1.82468e-07
-5.27169e-08
-1.13966e-06
1.82485e-07
-9.96987e-08
-1.14214e-06
1.76788e-07
-1.38626e-07
-1.14633e-06
1.66008e-07
-1.66877e-07
-1.15067e-06
1.51388e-07
-1.83179e-07
-1.15313e-06
1.34432e-07
-1.87531e-07
-1.15154e-06
1.16644e-07
-1.81002e-07
-1.14366e-06
9.93619e-08
-1.65374e-07
-1.12706e-06
8.35081e-08
-1.42857e-07
-1.099e-06
6.96443e-08
-1.15848e-07
-1.05611e-06
5.7975e-08
-8.67551e-08
-9.93572e-07
4.83219e-08
-5.79328e-08
-9.04195e-07
4.01302e-08
-3.17675e-08
-7.75942e-07
3.2447e-08
-1.09433e-08
-5.86197e-07
2.36444e-08
-2.83032e-07
1.09562e-08
8.76629e-09
-3.01243e-07
8.77015e-09
2.53697e-08
-6.23172e-07
1.88468e-08
4.63107e-08
-8.24858e-07
2.59154e-08
6.95138e-08
-9.62046e-07
3.22943e-08
9.3187e-08
-1.05906e-06
3.93597e-08
1.15473e-07
-1.12876e-06
4.79644e-08
1.34408e-07
-1.17878e-06
5.85847e-08
1.47966e-07
-1.21404e-06
7.13789e-08
1.54213e-07
-1.23793e-06
8.6224e-08
1.51438e-07
-1.25296e-06
1.02654e-07
1.38517e-07
-1.26123e-06
1.19784e-07
1.15251e-07
-1.26469e-06
1.36353e-07
8.25389e-08
-1.26511e-06
1.50818e-07
4.25673e-08
-1.2642e-06
1.61641e-07
-1.35286e-09
-1.2633e-06
1.67435e-07
-4.52575e-08
-1.26319e-06
1.67438e-07
-8.519e-08
-1.26386e-06
1.61655e-07
-1.17833e-07
-1.26453e-06
1.50846e-07
-1.41009e-07
-1.26388e-06
1.36389e-07
-1.5379e-07
-1.2602e-06
1.19852e-07
-1.56398e-07
-1.25172e-06
1.02786e-07
-1.49982e-07
-1.23648e-06
8.64015e-08
-1.36218e-07
-1.2124e-06
7.15817e-08
-1.17014e-07
-1.17703e-06
5.88281e-08
-9.44493e-08
-1.12691e-06
4.82409e-08
-7.04539e-08
-1.05722e-06
3.96574e-08
-4.6943e-08
-9.60299e-07
3.25935e-08
-2.57132e-08
-8.23365e-07
2.61934e-08
-8.86981e-09
-6.22108e-07
1.90679e-08
-3.00783e-07
8.88128e-09
6.15671e-09
-3.13557e-07
6.15777e-09
1.77958e-08
-6.47941e-07
1.31294e-08
3.25054e-08
-8.57649e-07
1.80811e-08
4.90035e-08
-1.00131e-06
2.27693e-08
6.61111e-08
-1.10441e-06
2.82496e-08
8.25769e-08
-1.18042e-06
3.51957e-08
9.70075e-08
-1.23722e-06
4.40105e-08
1.07877e-07
-1.2798e-06
5.48942e-08
1.13607e-07
-1.31143e-06
6.77698e-08
1.12734e-07
-1.33435e-06
8.22641e-08
1.04165e-07
-1.3503e-06
9.76435e-08
8.74149e-08
-1.36079e-06
1.1285e-07
6.29888e-08
-1.3671e-06
1.26416e-07
3.25119e-08
-1.37047e-06
1.3674e-07
-1.33136e-09
-1.37181e-06
1.4235e-07
-3.51501e-08
-1.37171e-06
1.42342e-07
-6.55604e-08
-1.37018e-06
1.36725e-07
-8.98755e-08
-1.36661e-06
1.26397e-07
-1.06503e-07
-1.3601e-06
1.12852e-07
-1.14913e-07
-1.34945e-06
9.76653e-08
-1.15618e-07
-1.33331e-06
8.22929e-08
-1.09676e-07
-1.31025e-06
6.78293e-08
-9.85554e-08
-1.27851e-06
5.49856e-08
-8.3888e-08
-1.23583e-06
4.41338e-08
-6.71415e-08
-1.179e-06
3.53464e-08
-4.97621e-08
-1.10302e-06
2.84204e-08
-3.29783e-08
-1.00003e-06
2.2948e-08
-1.80219e-08
-8.56574e-07
1.82523e-08
-6.22418e-09
-6.47178e-07
1.32717e-08
-3.13241e-07
6.23424e-09
3.00061e-09
-3.19561e-07
3.00265e-09
8.63319e-09
-6.59823e-07
6.2502e-09
1.58898e-08
-8.73562e-07
8.65635e-09
2.42785e-08
-1.02094e-06
1.12382e-08
3.34005e-08
-1.12818e-06
1.46409e-08
4.26646e-08
-1.209e-06
1.93157e-08
5.13727e-08
-1.27146e-06
2.55254e-08
5.8619e-08
-1.3205e-06
3.34564e-08
6.33428e-08
-1.35927e-06
4.31244e-08
6.44194e-08
-1.38977e-06
5.43409e-08
6.0854e-08
-1.41334e-06
6.65979e-08
5.20163e-08
-1.43097e-06
7.90097e-08
3.79427e-08
-1.44338e-06
9.03513e-08
1.95482e-08
-1.45125e-06
9.91821e-08
-1.32297e-09
-1.45498e-06
1.04047e-07
-2.21669e-08
-1.45492e-06
1.04047e-07
-4.04919e-08
-1.45101e-06
9.91559e-08
-5.44283e-08
-1.44297e-06
9.02874e-08
-6.31013e-08
-1.43037e-06
7.89392e-08
-6.64744e-08
-1.41261e-06
6.6533e-08
-6.51827e-08
-1.38889e-06
5.42912e-08
-6.02276e-08
-1.3583e-06
4.30971e-08
-5.27352e-08
-1.31946e-06
3.34568e-08
-4.37721e-08
-1.27035e-06
2.55542e-08
-3.4241e-08
-1.20791e-06
1.93703e-08
-2.48748e-08
-1.12711e-06
1.47166e-08
-1.62529e-08
-1.01998e-06
1.13281e-08
-8.80434e-09
-8.72773e-07
8.7509e-09
-3.04753e-09
-6.59272e-07
6.33741e-09
-3.19345e-07
3.05653e-09
-6.02815e-10
-3.18349e-07
-6.09154e-10
-1.79872e-09
-6.57048e-07
-1.57937e-09
-3.047e-09
-8.7021e-07
-2.10359e-09
-3.90523e-09
-1.0181e-06
-1.98565e-09
-4.02672e-09
-1.12694e-06
-1.11577e-09
-3.16661e-09
-1.21052e-06
6.50905e-10
-1.30031e-09
-1.27681e-06
3.48309e-09
1.41515e-09
-1.33068e-06
7.4617e-09
4.54727e-09
-1.37508e-06
1.26758e-08
7.43175e-09
-1.41174e-06
1.90867e-08
9.34939e-09
-1.44169e-06
2.64355e-08
9.55347e-09
-1.46543e-06
3.42606e-08
7.68624e-09
-1.48321e-06
4.17005e-08
3.80863e-09
-1.49509e-06
4.77081e-08
-1.3213e-09
-1.501e-06
5.11412e-08
-6.41827e-09
-1.50094e-06
5.11165e-08
-1.02072e-08
-1.49486e-06
4.76429e-08
-1.1928e-08
-1.48285e-06
4.16021e-08
-1.15282e-08
-1.46493e-06
3.41634e-08
-9.4071e-09
-1.44107e-06
2.63327e-08
-6.27469e-09
-1.411e-06
1.89758e-08
-2.89448e-09
-1.37427e-06
1.25823e-08
6.66224e-11
-1.32981e-06
7.39284e-09
2.19822e-09
-1.27592e-06
3.44015e-09
3.28935e-09
-1.20963e-06
6.32808e-10
3.41032e-09
-1.12612e-06
-1.10973e-09
2.75784e-09
-1.01737e-06
-1.95939e-09
1.65964e-09
-8.69614e-07
-2.06061e-09
5.78698e-10
-6.56662e-07
-1.52884e-09
-3.18196e-07
-5.70316e-10
-4.50656e-09
-3.0933e-07
-4.51165e-09
-1.30522e-08
-6.38491e-07
-1.00116e-08
-2.34853e-08
-8.4609e-07
-1.36868e-08
-3.4375e-08
-9.90895e-07
-1.63112e-08
-4.45582e-08
-1.09844e-06
-1.83152e-08
-5.29813e-08
-1.18218e-06
-1.99171e-08
-5.87973e-08
-1.24983e-06
-2.11597e-08
-6.13664e-08
-1.30611e-06
-2.19987e-08
-6.04002e-08
-1.35369e-06
-2.2361e-08
-5.59003e-08
-1.39413e-06
-2.21062e-08
-4.82909e-08
-1.42814e-06
-2.116e-08
-3.82499e-08
-1.45588e-06
-1.95859e-08
-2.65978e-08
-1.47718e-06
-1.76809e-08
-1.4117e-08
-1.49171e-06
-1.58569e-08
-1.32041e-09
-1.49907e-06
-1.47253e-08
1.15148e-08
-1.499e-06
-1.47748e-08
2.41095e-08
-1.4915e-06
-1.59573e-08
3.59073e-08
-1.47684e-06
-1.78049e-08
4.614e-08
-1.45541e-06
-1.97551e-08
5.39825e-08
-1.42757e-06
-2.13386e-08
5.87333e-08
-1.39349e-06
-2.22642e-08
5.99691e-08
-1.353e-06
-2.25042e-08
5.76514e-08
-1.30537e-06
-2.21219e-08
5.2101e-08
-1.24911e-06
-2.12576e-08
4.39203e-08
-1.18146e-06
-1.99882e-08
3.39488e-08
-1.09778e-06
-1.83619e-08
2.32458e-08
-9.90334e-07
-1.63315e-08
1.29663e-08
-8.45652e-07
-1.36824e-08
4.49055e-09
-6.38199e-07
-9.98703e-09
-3.09223e-07
-4.48232e-09
-8.50862e-09
-2.92308e-07
-8.51329e-09
-2.45625e-08
-6.03789e-07
-1.86479e-08
-4.43433e-08
-8.00762e-07
-2.55471e-08
-6.55022e-08
-9.38749e-07
-3.09876e-08
-8.60245e-08
-1.04193e-06
-3.59877e-08
-1.04077e-07
-1.12296e-06
-4.11656e-08
-1.17936e-07
-1.18917e-06
-4.68048e-08
-1.26177e-07
-1.24491e-06
-5.29568e-08
-1.27676e-07
-1.29271e-06
-5.94736e-08
-1.2181e-07
-1.33392e-06
-6.60772e-08
-1.08539e-07
-1.369e-06
-7.24049e-08
-8.84438e-08
-1.39796e-06
-7.80244e-08
-6.27145e-08
-1.42038e-06
-8.25295e-08
-3.30222e-08
-1.43579e-06
-8.56065e-08
-1.3124e-09
-1.44364e-06
-8.71344e-08
3.04319e-08
-1.44357e-06
-8.71666e-08
6.0219e-08
-1.43559e-06
-8.56954e-08
8.6127e-08
-1.42008e-06
-8.26666e-08
1.06429e-07
-1.39752e-06
-7.81925e-08
1.1994e-07
-1.3685e-06
-7.25873e-08
1.26066e-07
-1.33335e-06
-6.62621e-08
1.24825e-07
-1.29211e-06
-5.96487e-08
1.16859e-07
-1.24429e-06
-5.31142e-08
1.03246e-07
-1.18856e-06
-4.69396e-08
8.54324e-08
-1.12237e-06
-4.12738e-08
6.51284e-08
-1.04141e-06
-3.60685e-08
4.41452e-08
-9.38311e-07
-3.10394e-08
2.44796e-08
-8.00418e-07
-2.55691e-08
8.49931e-09
-6.03578e-07
-1.86411e-08
-2.92233e-07
-8.49083e-09
-1.23503e-08
-2.67602e-07
-1.23558e-08
-3.55989e-08
-5.53631e-07
-2.69091e-08
-6.43677e-08
-7.35123e-07
-3.68701e-08
-9.53849e-08
-8.62702e-07
-4.50297e-08
-1.25895e-07
-9.58437e-07
-5.2984e-08
-1.53279e-07
-1.0339e-06
-6.16693e-08
-1.75019e-07
-1.09583e-06
-7.15968e-08
-1.88852e-07
-1.14816e-06
-8.29245e-08
-1.92871e-07
-1.1932e-06
-9.54925e-08
-1.85793e-07
-1.23209e-06
-1.08911e-07
-1.67108e-07
-1.26523e-06
-1.22454e-07
-1.37307e-07
-1.29258e-06
-1.35177e-07
-9.79064e-08
-1.31374e-06
-1.46045e-07
-5.1467e-08
-1.32825e-06
-1.53987e-07
-1.29614e-09
-1.33562e-06
-1.58194e-07
4.89136e-08
-1.33556e-06
-1.58225e-07
9.54645e-08
-1.32808e-06
-1.5406e-07
1.35015e-07
-1.31347e-06
-1.46165e-07
1.65031e-07
-1.29219e-06
-1.35347e-07
1.83961e-07
-1.26478e-06
-1.22646e-07
1.91301e-07
-1.23158e-06
-1.09109e-07
1.87541e-07
-1.19266e-06
-9.56844e-08
1.73984e-07
-1.14763e-06
-8.31014e-08
1.52489e-07
-1.09531e-06
-7.17541e-08
1.25345e-07
-1.03343e-06
-6.18008e-08
9.50343e-08
-9.58015e-07
-5.30872e-08
6.41845e-08
-8.62359e-07
-4.51025e-08
3.5539e-08
-7.34863e-07
-3.69087e-08
1.23459e-08
-5.53472e-07
-2.69128e-08
-2.6755e-07
-1.23368e-08
-1.57819e-08
-2.36034e-07
-1.57865e-08
-4.54359e-08
-4.89716e-07
-3.42606e-08
-8.21895e-08
-6.51419e-07
-4.69506e-08
-1.22028e-07
-7.65361e-07
-5.75021e-08
-1.61512e-07
-8.50923e-07
-6.80296e-08
-1.97303e-07
-9.18295e-07
-7.98174e-08
-2.26177e-07
-9.73411e-07
-9.3545e-08
-2.45081e-07
-1.01982e-06
-1.09434e-07
-2.51413e-07
-1.05952e-06
-1.2735e-07
-2.43255e-07
-1.09355e-06
-1.46696e-07
-2.19711e-07
-1.12232e-06
-1.6646e-07
-1.81174e-07
-1.1458e-06
-1.85316e-07
-1.29486e-07
-1.16382e-06
-2.01611e-07
-6.79987e-08
-1.17606e-06
-2.13678e-07
-1.26896e-09
-1.18224e-06
-2.20112e-07
6.54933e-08
-1.18218e-06
-2.20139e-07
1.27084e-07
-1.17589e-06
-2.13779e-07
1.78923e-07
-1.16355e-06
-2.01755e-07
2.17686e-07
-1.14547e-06
-1.8548e-07
2.41462e-07
-1.12191e-06
-1.66646e-07
2.49873e-07
-1.0931e-06
-1.46891e-07
2.43814e-07
-1.05906e-06
-1.27545e-07
2.25159e-07
-1.01936e-06
-1.09619e-07
1.96543e-07
-9.72982e-07
-9.37116e-08
1.60974e-07
-9.17898e-07
-7.99614e-08
1.21691e-07
-8.50584e-07
-6.81475e-08
8.20204e-08
-7.65109e-07
-5.75791e-08
4.5373e-08
-6.51225e-07
-4.69905e-08
1.57797e-08
-4.89606e-07
-3.42724e-08
-2.36e-07
-1.57705e-08
-1.85346e-08
-1.9896e-07
-1.8539e-08
-5.33079e-08
-4.14815e-07
-4.01277e-08
-9.65049e-08
-5.53289e-07
-5.49328e-08
-1.43512e-07
-6.51007e-07
-6.73474e-08
-1.90372e-07
-7.24163e-07
-7.99007e-08
-2.3315e-07
-7.81402e-07
-9.41153e-08
-2.67945e-07
-8.278e-07
-1.10815e-07
-2.91071e-07
-8.66398e-07
-1.30294e-07
-2.99314e-07
-8.98956e-07
-1.5232e-07
-2.90253e-07
-9.26439e-07
-1.76171e-07
-2.62692e-07
-9.49239e-07
-2.00642e-07
-2.16928e-07
-9.67532e-07
-2.24033e-07
-1.55178e-07
-9.81286e-07
-2.4428e-07
-8.14312e-08
-9.90483e-07
-2.59319e-07
-1.22745e-09
-9.95063e-07
-2.67378e-07
7.90087e-08
-9.95014e-07
-2.67403e-07
1.5285e-07
-9.90339e-07
-2.59394e-07
2.14763e-07
-9.81066e-07
-2.44398e-07
2.60701e-07
-9.67223e-07
-2.24185e-07
2.8851e-07
-9.489e-07
-2.00819e-07
2.97822e-07
-9.26057e-07
-1.76357e-07
2.89845e-07
-8.98574e-07
-1.52511e-07
2.66974e-07
-8.66012e-07
-1.30478e-07
2.32416e-07
-8.2744e-07
-1.10984e-07
1.89869e-07
-7.81086e-07
-9.42637e-08
1.43207e-07
-7.23898e-07
-8.00243e-08
9.63458e-08
-6.50797e-07
-6.74501e-08
5.3256e-08
-5.5314e-07
-5.4995e-08
1.8534e-08
-4.1474e-07
-4.0144e-08
-1.98941e-07
-1.85248e-08
-2.03427e-08
-1.58273e-07
-2.03445e-08
-5.85175e-08
-3.32682e-07
-4.39582e-08
-1.06113e-07
-4.45586e-07
-6.01086e-08
-1.58172e-07
-5.2527e-07
-7.3677e-08
-2.10347e-07
-5.8449e-07
-8.74984e-08
-2.58243e-07
-6.30232e-07
-1.03273e-07
-2.97448e-07
-6.66696e-07
-1.219e-07
-3.23756e-07
-6.96409e-07
-1.43681e-07
-3.33461e-07
-7.20911e-07
-1.6834e-07
-3.23781e-07
-7.41057e-07
-1.95062e-07
-2.93301e-07
-7.57289e-07
-2.2243e-07
-2.42377e-07
-7.69904e-07
-2.48552e-07
-1.7342e-07
-7.79097e-07
-2.71145e-07
-9.09341e-08
-7.8507e-07
-2.879e-07
-1.17221e-09
-7.87989e-07
-2.96836e-07
8.8619e-08
-7.87948e-07
-2.96857e-07
1.71195e-07
-7.8495e-07
-2.87965e-07
2.40289e-07
-7.78909e-07
-2.71251e-07
2.91408e-07
-7.69656e-07
-2.48686e-07
3.22109e-07
-7.57008e-07
-2.22592e-07
3.3203e-07
-7.40744e-07
-1.95234e-07
3.22567e-07
-7.20593e-07
-1.68518e-07
2.9652e-07
-6.9611e-07
-1.43856e-07
2.57541e-07
-6.66399e-07
-1.22062e-07
2.0986e-07
-6.29986e-07
-1.0342e-07
1.57867e-07
-5.84282e-07
-8.76225e-08
1.05957e-07
-5.25116e-07
-7.37714e-08
5.84713e-08
-4.45488e-07
-6.01669e-08
2.03405e-08
-3.32632e-07
-4.39771e-08
-1.58268e-07
-2.03326e-08
-2.0946e-08
-1.16376e-07
-2.0951e-08
-6.04079e-08
-2.48036e-07
-4.51839e-08
-1.09921e-07
-3.34388e-07
-6.16844e-08
-1.64522e-07
-3.95143e-07
-7.55254e-08
-2.1964e-07
-4.39677e-07
-8.9695e-08
-2.70554e-07
-4.73322e-07
-1.05996e-07
-3.12488e-07
-4.99392e-07
-1.2537e-07
-3.40821e-07
-5.19985e-07
-1.48091e-07
-3.51575e-07
-5.36322e-07
-1.73836e-07
-3.41725e-07
-5.49193e-07
-2.01713e-07
-3.09749e-07
-5.59051e-07
-2.30213e-07
-2.56039e-07
-5.66284e-07
-2.5733e-07
-1.83193e-07
-5.71251e-07
-2.80692e-07
-9.60006e-08
-5.74289e-07
-2.97972e-07
-1.09982e-09
-5.75702e-07
-3.07187e-07
9.3829e-08
-5.7567e-07
-3.07206e-07
1.81104e-07
-5.74196e-07
-2.98029e-07
2.54088e-07
-5.71115e-07
-2.80779e-07
3.07971e-07
-5.66105e-07
-2.57433e-07
3.40141e-07
-5.58834e-07
-2.30345e-07
3.50218e-07
-5.48951e-07
-2.0187e-07
3.3971e-07
-5.36083e-07
-1.74001e-07
3.11598e-07
-5.19743e-07
-1.48255e-07
2.699e-07
-4.99178e-07
-1.25524e-07
2.19186e-07
-4.73134e-07
-1.06138e-07
1.6424e-07
-4.39522e-07
-8.98141e-08
1.09782e-07
-3.95039e-07
-7.56193e-08
6.03593e-08
-3.34322e-07
-6.17437e-08
2.09474e-08
-2.48015e-07
-4.52053e-08
-1.16379e-07
-2.09414e-08
-2.00912e-08
-7.61904e-08
-2.00944e-08
-5.83456e-08
-1.66537e-07
-4.32454e-08
-1.07011e-07
-2.26874e-07
-5.88484e-08
-1.61375e-07
-2.68907e-07
-7.18722e-08
-2.16832e-07
-2.98918e-07
-8.53026e-08
-2.68477e-07
-3.20724e-07
-1.00953e-07
-3.1129e-07
-3.36816e-07
-1.19764e-07
-3.40498e-07
-3.48791e-07
-1.41985e-07
-3.51928e-07
-3.57645e-07
-1.67247e-07
-3.42503e-07
-3.64008e-07
-1.9461e-07
-3.10682e-07
-3.68328e-07
-2.22545e-07
-2.56904e-07
-3.71012e-07
-2.4905e-07
-1.83818e-07
-3.72487e-07
-2.71851e-07
-9.62869e-08
-3.73148e-07
-2.88672e-07
-1.00814e-09
-3.73365e-07
-2.97615e-07
9.42955e-08
-3.73343e-07
-2.97631e-07
1.81901e-07
-3.73082e-07
-2.8872e-07
2.55107e-07
-3.7238e-07
-2.71941e-07
3.09047e-07
-3.70875e-07
-2.4917e-07
3.41049e-07
-3.68163e-07
-2.22674e-07
3.50684e-07
-3.63835e-07
-1.94751e-07
3.39462e-07
-3.57465e-07
-1.67396e-07
3.10476e-07
-3.48623e-07
-1.42134e-07
2.67866e-07
-3.36661e-07
-1.19907e-07
2.1641e-07
-3.20592e-07
-1.01085e-07
1.61118e-07
-2.98815e-07
-8.54157e-08
1.06882e-07
-2.6884e-07
-7.19629e-08
5.8306e-08
-2.26839e-07
-5.89071e-08
2.0091e-08
-1.66531e-07
-4.3269e-08
-7.62005e-08
-2.00878e-08
-1.75184e-08
-4.11502e-08
-1.75218e-08
-5.18329e-08
-9.46537e-08
-3.75683e-08
-9.66632e-08
-1.31269e-07
-5.07747e-08
-1.47815e-07
-1.56111e-07