/*--------------------------------*- C++ -*----------------------------------*\
| =========                 |                                                 |
| \\      /  F ield         | OpenFOAM: The Open Source CFD Toolbox           |
|  \\    /   O peration     | Version:  v1906                                 |
|   \\  /    A nd           | Web:      www.OpenFOAM.com                      |
|    \\/     M anipulation  |                                                 |
\*---------------------------------------------------------------------------*/
FoamFile
{
    version     2.0;
    format      ascii;
    class       volScalarField;
    location    "79";
    object      k;
}
// * * * * * * * * * * * * * * * * * * * * * * * * * * * * * * * * * * * * * //

dimensions      [0 2 -2 0 0 0 0];


internalField   nonuniform List<scalar> 
78750
(
0.000482608
0.000294965
0.000438881
0.000629491
0.000656027
0.000697809
0.000757166
0.000719003
0.000858928
0.000851604
0.00098431
0.00111399
0.00113774
0.00138429
0.00135476
0.00155635
0.00158128
0.00157003
0.00171542
0.00139214
0.00160134
0.00111881
0.00112247
0.000744875
0.000297414
0.000227658
0.000495181
0.000830831
0.000432864
4.70766e-05
0.000680324
0.000268572
0.000718715
0.0082645
0.00655283
0.0106363
0.0164477
0.0186307
0.0184395
0.0178043
0.0170404
0.0163244
0.0157292
0.015329
0.0151636
0.0152274
0.0154657
0.0158131
0.0162063
0.0165873
0.0169099
0.0171322
0.0172185
0.0171261
0.0168262
0.0162959
0.0155238
0.0145447
0.013372
0.0121548
0.0111065
0.010554
0.0107991
0.0117584
0.0130896
0.0144533
0.015331
0.0157717
0.0161238
0.0147682
0.010668
0.016066
0.016751
0.0168206
0.0167805
0.0167075
0.0166107
0.0165188
0.0164687
0.0164773
0.0165383
0.0166342
0.016745
0.0168527
0.0169444
0.017019
0.0170906
0.0171795
0.0172998
0.0174468
0.0175963
0.0177164
0.0177865
0.0178135
0.0178376
0.0179166
0.0181036
0.0184126
0.0187871
0.019111
0.0192316
0.0189848
0.0182424
0.0168433
0.0126077
0.0117446
0.0144339
0.0153904
0.0158974
0.0160779
0.0161161
0.0161343
0.0161849
0.016302
0.0165049
0.0168019
0.0171913
0.0176579
0.0181586
0.0186029
0.0189042
0.0190259
0.0189753
0.018813
0.0186282
0.0184999
0.0184719
0.0185526
0.01873
0.0189834
0.0192871
0.0196169
0.0199432
0.0202066
0.020321
0.0201882
0.0196976
0.0187221
0.0171359
0.0130497
0.00970576
0.0136042
0.0150702
0.0160248
0.0167633
0.0173535
0.0178475
0.018282
0.0186795
0.0190525
0.0194057
0.0197344
0.0200279
0.0202746
0.0204663
0.0206033
0.0206929
0.0207503
0.0207951
0.0208479
0.0209256
0.021037
0.0211818
0.0213512
0.0215306
0.0217018
0.0218457
0.0219431
0.0219698
0.0218871
0.0216258
0.0210811
0.0201279
0.0186407
0.0146987
0.00968209
0.0134222
0.0149918
0.0161685
0.0170465
0.0176877
0.0181337
0.0184342
0.0186302
0.0187478
0.0188081
0.0188321
0.0188405
0.0188464
0.0188491
0.0188378
0.018804
0.0187481
0.0186787
0.0186091
0.0185558
0.0185353
0.0185625
0.0186528
0.018823
0.0190881
0.019445
0.0198493
0.020196
0.0203472
0.0202031
0.0196897
0.0187333
0.0172712
0.0136159
0.00779617
0.0128667
0.0145251
0.0155377
0.016266
0.0168167
0.0175052
0.0182745
0.0190395
0.0197633
0.0204187
0.0209985
0.0215
0.0219219
0.0222679
0.0225439
0.0227566
0.022911
0.0230094
0.0230517
0.0230391
0.0229784
0.022883
0.0227639
0.0226329
0.0225023
0.0223801
0.022263
0.0221284
0.0219333
0.0216135
0.0210753
0.0202059
0.0189054
0.0156954
0.00906101
0.0144497
0.0162355
0.0175123
0.0183104
0.0187309
0.0190041
0.0192083
0.0193725
0.0195381
0.0197256
0.0199386
0.020173
0.0204131
0.0206504
0.0208804
0.0211045
0.0213252
0.0215422
0.0217528
0.0219534
0.0221402
0.0223102
0.0224632
0.0226008
0.0227231
0.0228222
0.0228826
0.022876
0.0227423
0.0223922
0.0217325
0.02068
0.0192044
0.0157866
0.00973206
0.0150209
0.0170536
0.0183054
0.0188382
0.019006
0.0190876
0.0191066
0.0190856
0.0190626
0.0190602
0.0191009
0.0191871
0.0192957
0.0194118
0.01954
0.0196848
0.0198479
0.0200324
0.0202425
0.0204841
0.0207652
0.021098
0.0214932
0.021952
0.022471
0.0230479
0.0236347
0.0240957
0.024273
0.0241084
0.0236365
0.0228616
0.0216576
0.0185312
0.0142717
0.0170732
0.0179633
0.0183925
0.0183938
0.0180308
0.0175582
0.0173625
0.0176099
0.0181937
0.0189576
0.0195414
0.0199229
0.0202538
0.0205718
0.020852
0.0210746
0.0212519
0.0213969
0.0215201
0.0216304
0.0217372
0.0218619
0.0220301
0.0222717
0.0225944
0.0229349
0.023252
0.0235169
0.0236509
0.0235494
0.0231594
0.0224511
0.0212178
0.0174941
0.0143365
0.0163789
0.0170174
0.0173923
0.0176199
0.0177255
0.0177824
0.0178999
0.0181682
0.0185864
0.0191145
0.0196925
0.0202059
0.0205209
0.0206328
0.0206477
0.0206431
0.0206971
0.0208985
0.021194
0.0214344
0.0215738
0.0216112
0.0215724
0.0215286
0.0216471
0.0219885
0.022212
0.022209
0.0220857
0.0218668
0.0215398
0.0210945
0.0204897
0.0188321
0.0132604
0.0168696
0.0179234
0.0185163
0.0189698
0.0193196
0.0195938
0.0198237
0.0200257
0.0201948
0.0203244
0.0204059
0.0204137
0.0203282
0.0201788
0.0200418
0.0200299
0.020328
0.0211446
0.0223681
0.0233015
0.0235415
0.0232803
0.0230228
0.0226605
0.0223075
0.0224109
0.0226241
0.0227647
0.0228953
0.022985
0.0228971
0.0224533
0.0212959
0.0170847
0.0160115
0.0200299
0.0208475
0.0211826
0.0212768
0.0211408
0.0207992
0.020282
0.0197071
0.019147
0.0186337
0.0181888
0.0178255
0.0175553
0.0173941
0.0173584
0.0174662
0.0177478
0.0182598
0.0191018
0.0204266
0.0222972
0.0242233
0.0253988
0.0255626
0.0246827
0.0230845
0.0214753
0.0199807
0.0183999
0.0167706
0.0153017
0.013795
0.0111731
0.00432546
0.0147368
0.0160685
0.0163116
0.0162208
0.015865
0.0154142
0.0151726
0.0151621
0.0153311
0.0156244
0.015999
0.0164213
0.0168695
0.0173368
0.01783
0.0183674
0.0189721
0.0196612
0.0204468
0.0213337
0.0223509
0.0235334
0.0248469
0.0261837
0.0274162
0.0284489
0.0292432
0.0298481
0.0303184
0.0306904
0.0309384
0.0306507
0.0288632
0.0254891
0.0164075
0.0159301
0.0169744
0.0170459
0.0170826
0.0172521
0.0176712
0.0183098
0.0190523
0.0198324
0.0206165
0.0213723
0.0220706
0.0226955
0.0232494
0.0237513
0.0242263
0.0246953
0.0251704
0.0256547
0.0261439
0.0266322
0.027109
0.0275628
0.02798
0.0283486
0.028645
0.0288573
0.0289937
0.0290584
0.0290273
0.0288066
0.0283688
0.0275712
0.0256888
0.0142416
0.0133257
0.0211775
0.0235705
0.0247186
0.0254725
0.0260775
0.0266005
0.0270478
0.0274094
0.0276768
0.0278517
0.0279379
0.0279302
0.027814
0.0275826
0.0272367
0.0267719
0.0261812
0.0254706
0.0246529
0.0237536
0.0228116
0.0218614
0.0209315
0.0200581
0.0192857
0.0186446
0.0181227
0.0176741
0.0171966
0.0168592
0.0160987
0.0149921
0.0156585
0.0128375
0.00796819
0.0138702
0.016051
0.0171226
0.0176433
0.0178404
0.017839
0.0176834
0.0174306
0.0171365
0.0167462
0.0162131
0.0156883
0.0153638
0.015211
0.015092
0.0149078
0.0146405
0.014294
0.0138487
0.0133143
0.0127461
0.0121981
0.0117178
0.0113285
0.01101
0.010731
0.0103947
0.010051
0.00945422
0.0100219
0.00952635
0.0114891
0.0104683
0.0120521
0.00188757
0.00451433
0.00559543
0.00609885
0.00629619
0.00631144
0.00620073
0.00601055
0.00571315
0.00538647
0.00511489
0.00469555
0.00375471
0.0027724
0.0028727
0.00401478
0.00554775
0.00685535
0.00770954
0.00819106
0.00843298
0.00852993
0.0085428
0.00849883
0.00841351
0.00844018
0.00874214
0.0092026
0.00963977
0.0098964
0.010144
0.00966517
0.0115469
0.00614906
0.0194928
0.00201473
0.00497502
0.00596026
0.00643405
0.00664412
0.00664694
0.00643664
0.00593927
0.0050048
0.00355141
0.00272022
0.00325481
0.00494302
0.007282
0.00873802
0.00927259
0.0094722
0.0095355
0.00952755
0.00947047
0.00937616
0.00926142
0.00917203
0.00931859
0.00975711
0.0103302
0.0109209
0.0115066
0.0121264
0.0128511
0.0137856
0.0145913
0.0141508
0.0110066
0.0279064
0.00097828
0.00518953
0.00712102
0.00832181
0.0090839
0.00954361
0.00975414
0.00971608
0.00935008
0.00831023
0.00651958
0.004984
0.00393057
0.00305254
0.00355737
0.00584615
0.00706813
0.00740173
0.00752229
0.00757296
0.00762687
0.00771582
0.0078594
0.00806931
0.00835637
0.00873992
0.00922593
0.00980483
0.0104444
0.0112846
0.0129952
0.0161625
0.0172073
0.0176456
0.0242694
0.00135553
0.00552138
0.00783101
0.00930459
0.0102917
0.0109833
0.0114679
0.0117581
0.0118089
0.0115864
0.0110605
0.0101418
0.00867851
0.00662693
0.00379877
0.00237944
0.00496591
0.00831983
0.00922069
0.00938619
0.00896145
0.0082225
0.00755842
0.00718066
0.00707524
0.00714895
0.00728054
0.00724987
0.0070957
0.00719976
0.00929743
0.0137936
0.0175456
0.0185386
0.0192463
0.00209774
0.00762977
0.0103417
0.0119706
0.0130286
0.0137632
0.014287
0.0146423
0.0148319
0.0148279
0.014535
0.0137148
0.0121091
0.0098381
0.00720674
0.00153105
0.00223808
0.00600703
0.0131265
0.0136016
0.0128291
0.0117736
0.0108497
0.0100932
0.00934823
0.0084658
0.00815429
0.00821656
0.00841449
0.00925307
0.011607
0.0153691
0.0182911
0.0189118
0.0188437
0.00727203
0.0128342
0.014267
0.0147154
0.0148194
0.0148894
0.015013
0.0151914
0.0153674
0.0154892
0.0154954
0.0153065
0.0148413
0.014036
0.0129376
0.0110741
0.00824907
0.00721819
0.00858518
0.0104128
0.0121302
0.0132852
0.0136813
0.0135746
0.0130759
0.0119566
0.0100822
0.00976274
0.0111487
0.0132396
0.015736
0.0182219
0.0196865
0.0199538
0.0194819
0.00727358
0.0128128
0.0132965
0.0123938
0.0112785
0.0107166
0.0110654
0.0119587
0.0129899
0.0139207
0.0145914
0.0149138
0.0148685
0.0144846
0.0138383
0.0129292
0.0115936
0.0104475
0.0104672
0.0110831
0.0122021
0.0133232
0.0139238
0.0140337
0.0137624
0.0131447
0.0124074
0.0128805
0.0145039
0.0163364
0.0184192
0.0204707
0.021616
0.0218826
0.0213169
0.00614327
0.012159
0.0114726
0.0106286
0.010052
0.0096408
0.00948945
0.00975538
0.0105077
0.0117187
0.0130372
0.0140745
0.0146976
0.0149161
0.014768
0.0142878
0.0134308
0.0123619
0.0119107
0.012045
0.0125443
0.0131913
0.0135965
0.0137012
0.0136009
0.0133821
0.0131442
0.0130263
0.013586
0.0161371
0.0191326
0.0212427
0.0222367
0.0225217
0.0222009
0.0225166
0.0227087
0.0170435
0.0149803
0.0138335
0.0127198
0.0114309
0.0104728
0.01019
0.010491
0.0111286
0.0118246
0.0123591
0.0126137
0.0125582
0.0122013
0.0115275
0.0107044
0.0103234
0.0103779
0.0106174
0.0109986
0.0114063
0.0116784
0.0117673
0.0116311
0.0110842
0.00986952
0.0115886
0.0154766
0.0184115
0.020103
0.0209575
0.0213442
0.0215257
0.00764793
0.0122375
0.00932558
0.00857462
0.00907276
0.00947431
0.00957123
0.00942331
0.00923088
0.00914363
0.0091825
0.00929964
0.00941928
0.00947817
0.00944677
0.00932068
0.0091283
0.00899029
0.00902383
0.00920856
0.00950628
0.00984724
0.0101487
0.0103439
0.0104234
0.0104182
0.0105557
0.0117529
0.0145888
0.0172155
0.0190587
0.0203394
0.0212021
0.0218246
0.0226809
0.0154693
0.0210088
0.0168976
0.0140463
0.012062
0.0103252
0.00998015
0.010125
0.010149
0.010002
0.00973071
0.00942676
0.00917669
0.00903236
0.00901662
0.00912513
0.00932389
0.0095679
0.00985556
0.0102012
0.0105775
0.0109468
0.0113029
0.0117051
0.0122831
0.0131803
0.0145026
0.0161899
0.017823
0.01919
0.0203058
0.0211924
0.0217982
0.0219967
0.0223345
0.0151668
0.0164131
0.0214671
0.0153138
0.0127286
0.0115325
0.0111791
0.0112843
0.0114632
0.0115743
0.0115771
0.0114917
0.01137
0.0112736
0.0112556
0.0113476
0.011558
0.01188
0.0123034
0.0128111
0.0133865
0.0140176
0.0147052
0.0154734
0.0163615
0.0173738
0.0184248
0.0193896
0.0202575
0.0210238
0.0216291
0.0220442
0.0221049
0.0213816
0.0194833
0.0087928
0.0111688
0.0182766
0.0225935
0.01697
0.0152132
0.0146697
0.0143645
0.0142659
0.0142655
0.0142986
0.0143282
0.0143389
0.0143359
0.0143384
0.0143717
0.0144617
0.0146345
0.0149173
0.0153377
0.0159142
0.0166452
0.0175001
0.0184204
0.0193386
0.020198
0.0209599
0.0216084
0.0221505
0.0225837
0.0228824
0.0229875
0.0227236
0.0215998
0.0180742
0.00876259
0.00646756
0.00780396
0.0182993
0.0235026
0.0171884
0.0149359
0.0149181
0.0150144
0.015141
0.0153233
0.0155512
0.0158017
0.0160507
0.0162793
0.0164794
0.0166571
0.0168306
0.0170299
0.017295
0.0176727
0.0182052
0.0189095
0.0197515
0.0206394
0.021464
0.0221649
0.0227389
0.0232009
0.0235598
0.0238095
0.0239136
0.0237643
0.022994
0.0197538
0.00802274
0.00737586
0.00594631
0.00802869
0.0225997
0.0312415
0.0267216
0.0212906
0.0194297
0.0187574
0.0184233
0.0182395
0.0181789
0.018225
0.0183537
0.0185347
0.0187392
0.0189477
0.019155
0.0193727
0.0196277
0.0199579
0.0204022
0.0209813
0.0216749
0.0224127
0.0231032
0.0236865
0.0241644
0.0245494
0.0248444
0.0250444
0.0251014
0.0247985
0.0227417
0.00833977
0.00701713
0.00575471
0.00376707
0.00425877
0.0146911
0.027826
0.0322017
0.0291546
0.0262006
0.0246484
0.0236326
0.0228752
0.0222865
0.0218423
0.0215323
0.0213456
0.0212646
0.0212636
0.0213198
0.0214224
0.0215752
0.0217938
0.0220987
0.0225036
0.0230012
0.0235541
0.0241061
0.0246099
0.0250436
0.0254079
0.0257099
0.025945
0.0260682
0.0256112
0.0101164
0.00741846
0.0060591
0.00502911
0.00362694
0.00141052
0.0064558
0.0195458
0.0273874
0.0292607
0.0285283
0.0277709
0.0271932
0.0266696
0.0261812
0.0257499
0.0253722
0.0250444
0.0247733
0.0245596
0.0243993
0.0242886
0.0242294
0.0242306
0.0243052
0.0244642
0.0247057
0.025008
0.0253345
0.0256503
0.0259378
0.0261951
0.026432
0.0266782
0.0269226
0.0110958
0.00653094
0.0054953
0.00580959
0.00494482
0.00228631
0.00961762
0.0232476
0.026824
0.0270366
0.0273326
0.027522
0.0276781
0.0278116
0.02793
0.0280489
0.0281822
0.0283269
0.0284663
0.028584
0.0286729
0.0287338
0.0287723
0.0287975
0.0288225
0.0288621
0.0289268
0.0290158
0.0291147
0.0292029
0.0292636
0.0292814
0.0292279
0.0289763
0.0276918
0.00856127
0.00570665
0.00748286
0.016491
0.029866
0.0336421
0.0304244
0.0297911
0.0275205
0.0258506
0.0252304
0.0250336
0.0251777
0.0255494
0.0260485
0.0266406
0.0273362
0.028144
0.0290401
0.0299667
0.0308573
0.0316647
0.0323668
0.0329583
0.0334418
0.0338248
0.0341188
0.0343347
0.0344762
0.0345372
0.0345021
0.03434
0.0339643
0.0329408
0.0284926
0.00671551
0.00546433
0.00374935
0.00432895
0.0146302
0.031457
0.043165
0.048166
0.0485795
0.046651
0.0435747
0.039764
0.035823
0.0324599
0.0300001
0.0283244
0.0272649
0.0267391
0.0266991
0.0270935
0.0278461
0.0288566
0.0300173
0.0312287
0.032405
0.0334747
0.0343828
0.0350958
0.0356028
0.0359076
0.0360147
0.0359128
0.0355231
0.0342893
0.0280292
0.00551078
0.00600517
0.00569907
0.0044602
0.00238302
0.00423638
0.0134935
0.0239584
0.0318698
0.03833
0.0436892
0.047523
0.0495055
0.0495728
0.0479836
0.045286
0.0421008
0.0389333
0.0361144
0.0338016
0.0320363
0.0307942
0.0300306
0.0296973
0.0297343
0.0300615
0.0305777
0.0311671
0.0317152
0.0321327
0.0323718
0.0324141
0.0322118
0.0313814
0.0268995
0.00489479
0.00588472
0.00585666
0.00569997
0.00534217
0.00414549
0.0024991
0.00277173
0.00570238
0.0106225
0.0171541
0.0246771
0.0323342
0.0393669
0.0450944
0.0490826
0.0512755
0.0518538
0.0511976
0.049735
0.047821
0.045689
0.0434964
0.0413669
0.0394
0.0376725
0.0362395
0.035126
0.0343152
0.0337426
0.0333157
0.0329343
0.0324578
0.0314532
0.0272622
0.00467053
0.00578641
0.00586405
0.00575937
0.00558028
0.0053246
0.00474984
0.00354304
0.00222741
0.00178106
0.00263749
0.00495517
0.00889781
0.0143296
0.0207613
0.0275184
0.0340748
0.0399445
0.0446989
0.0482429
0.0507068
0.052259
0.0530403
0.053165
0.0527394
0.0518581
0.0506127
0.0490969
0.0474509
0.0458399
0.0443584
0.0430003
0.0416403
0.0395797
0.0320625
0.00493885
0.0059285
0.00602379
0.00597598
0.00586899
0.00568777
0.00537172
0.00478294
0.00378004
0.00265243
0.00195522
0.00174408
0.00193708
0.00269094
0.00426558
0.00687887
0.010658
0.0155921
0.0212733
0.0269602
0.0322318
0.0370081
0.0412886
0.0450748
0.0483397
0.0510731
0.0532756
0.0548801
0.05575
0.0558506
0.0553655
0.0544986
0.0532162
0.0507472
0.0409596
0.00559624
0.00605081
0.00604049
0.00596035
0.00585084
0.00572588
0.00556579
0.00528681
0.00477179
0.00397968
0.00318922
0.00270434
0.00242884
0.00221512
0.00203288
0.00194914
0.00214021
0.00290168
0.0045297
0.0070702
0.0103071
0.0140301
0.0181029
0.0224672
0.027089
0.0318609
0.0367233
0.0417426
0.0467966
0.0513215
0.0547712
0.0568779
0.05732
0.0554091
0.0456526
0.00620832
0.00609582
0.00595649
0.00582348
0.00567596
0.005515
0.00531375
0.00502507
0.00464018
0.00420167
0.0038087
0.00356342
0.00342751
0.00331048
0.00315101
0.00290571
0.00255109
0.00211164
0.00170027
0.00150055
0.0016871
0.00240079
0.00376201
0.00587226
0.00884202
0.0126774
0.0172028
0.022657
0.0297778
0.0381474
0.0448601
0.0485772
0.0497318
0.0477336
0.0342988
0.00588363
0.00577453
0.00568138
0.00558383
0.00547754
0.005389
0.00529924
0.00513696
0.00486778
0.00451877
0.0041778
0.00393545
0.00379304
0.00370099
0.00362038
0.00351844
0.00335772
0.00309837
0.00271186
0.00220191
0.00162226
0.0010758
0.000719619
0.000782939
0.00158981
0.00347016
0.00639888
0.0102516
0.0158857
0.0235058
0.0298165
0.0328694
0.0337455
0.0313116
0.0169616
0.00536391
0.00556751
0.00554379
0.00545883
0.00531717
0.00515732
0.00504641
0.00498767
0.0049286
0.00482934
0.00468183
0.00450931
0.00434476
0.00420376
0.004082
0.003968
0.00384584
0.00369172
0.00347177
0.00314836
0.00268997
0.00209415
0.0014083
0.000754618
0.000400077
0.00078977
0.00228171
0.00472761
0.0080137
0.0122119
0.0159038
0.017743
0.0182181
0.0161836
0.00790902
0.00466555
0.00545827
0.00560288
0.00561424
0.00554183
0.00536978
0.00513047
0.00492113
0.00479192
0.00471517
0.00465038
0.0045793
0.00449853
0.00441327
0.0043295
0.00425172
0.00418134
0.00411121
0.00401969
0.00387243
0.00363144
0.00326006
0.00273222
0.00206448
0.00135178
0.000832339
0.000914142
0.00189942
0.00370105
0.00592171
0.00779439
0.00880921
0.00908649
0.00807925
0.00533515
0.00458521
0.00555216
0.00578312
0.00586251
0.00587046
0.0057898
0.00557744
0.0052574
0.00497175
0.00481403
0.00474114
0.00468401
0.00461398
0.00453127
0.00444183
0.00435017
0.00426162
0.00418585
0.00413174
0.00409049
0.00402912
0.00390922
0.00369747
0.00336748
0.00291207
0.00236713
0.00185559
0.00160948
0.0018649
0.0026654
0.00369478
0.00447999
0.00493518
0.00495352
0.00496852
0.00477033
0.00560538
0.00584913
0.00596873
0.00603852
0.00604404
0.0059397
0.0056603
0.00523218
0.00486272
0.00469307
0.00465758
0.00465021
0.00462715
0.00458101
0.00451379
0.00442914
0.00433288
0.00423827
0.00416601
0.0041236
0.00408852
0.00403054
0.00393059
0.00378095
0.00357725
0.00330675
0.00297065
0.00263318
0.00244383
0.00258792
0.00303006
0.00352965
0.00399108
0.00451956
0.00515495
0.00572701
0.00590896
0.00600958
0.00608343
0.00612322
0.00609914
0.00596377
0.00565709
0.00522085
0.00486983
0.00470839
0.00466038
0.00464272
0.00462068
0.00458359
0.00452803
0.00445262
0.00435945
0.0042599
0.00417579
0.00411759
0.00406991
0.0040114
0.00393627
0.00385765
0.00378709
0.00369989
0.00354954
0.00334416
0.00323543
0.00336254
0.00360507
0.0038254
0.00371755
0.00537819
0.00573746
0.00587813
0.00596455
0.00602449
0.00603906
0.0059794
0.00583324
0.00560828
0.00531626
0.00502725
0.00484172
0.0047576
0.00472057
0.00469623
0.00466841
0.00462976
0.00457646
0.00450675
0.00442352
0.00433856
0.00426637
0.00420464
0.00413431
0.00403896
0.00391666
0.00378126
0.00364905
0.00352375
0.00341324
0.00336766
0.00341869
0.00349429
0.00348266
0.00327284
0.00527334
0.00567212
0.00585579
0.0059779
0.00607303
0.00611829
0.00607537
0.00592037
0.00566935
0.00537285
0.00509695
0.00490147
0.00479161
0.00472925
0.00468604
0.00464774
0.00460639
0.00455828
0.00450317
0.00444598
0.00439959
0.00437689
0.00437243
0.00437262
0.00435379
0.00429948
0.00419882
0.00404093
0.00382435
0.00357774
0.00337407
0.00327936
0.00327001
0.00330863
0.00365702
0.00522422
0.00561758
0.00580249
0.0059308
0.00604261
0.0061182
0.00611629
0.00600535
0.00578718
0.00549646
0.00519831
0.00496163
0.0048073
0.00470522
0.00462656
0.00455579
0.00448485
0.0044086
0.00432664
0.00425275
0.00424263
0.00437711
0.0045609
0.00467338
0.00472042
0.00472859
0.0047218
0.00469796
0.00460896
0.00440975
0.00413693
0.00391063
0.00380668
0.00382443
0.004094
0.00525302
0.00561998
0.00579826
0.00592716
0.00604809
0.00614691
0.00618502
0.006124
0.00595039
0.00567916
0.00535877
0.00506627
0.00485292
0.00470386
0.00458496
0.00447404
0.00435821
0.00422639
0.00406897
0.00389801
0.00383418
0.00417503
0.00479247
0.00509773
0.00515014
0.00507238
0.00491702
0.00476325
0.0046864
0.00462225
0.00449132
0.00433091
0.00418534
0.00400902
0.00357208
0.00526746
0.00557178
0.00573821
0.00586568
0.00599284
0.00610956
0.00618224
0.0061752
0.00607039
0.00586607
0.00557913
0.00526442
0.00499762
0.00480358
0.00465489
0.00451955
0.00437519
0.00420339
0.00398533
0.00371265
0.0034595
0.00353872
0.00426468
0.00510922
0.00548981
0.00550415
0.00526641
0.00486459
0.0044926
0.00427025
0.00412781
0.00399512
0.00382634
0.00350944
0.00273093
0.00527523
0.00553888
0.00569868
0.00582638
0.00595777
0.00608275
0.00617056
0.00619182
0.00613316
0.0059917
0.00577107
0.00549329
0.00521507
0.0049905
0.00482348
0.00468601
0.00454848
0.00438694
0.00418011
0.0039074
0.0035671
0.00326118
0.00328922
0.00385114
0.00465425
0.00526286
0.00548388
0.00535813
0.00502538
0.0046593
0.00434808
0.00408082
0.00377881
0.00327879
0.00228993
0.00520362
0.00547245
0.00562984
0.00575621
0.00589067
0.00602632
0.00613341
0.00618375
0.00616592
0.00607824
0.00592202
0.00570488
0.00545641
0.00522533
0.0050437
0.00490664
0.00478824
0.0046624
0.00450801
0.004305
0.0040336
0.00368918
0.00333592
0.00315379
0.00331515
0.00379963
0.00439791
0.00484541
0.00500581
0.00493551
0.00473916
0.00447424
0.00410561
0.00343664
0.00220698
0.00519476
0.00545169
0.00559412
0.00570938
0.00583739
0.00597557
0.00609523
0.00616711
0.00617989
0.00613243
0.00602607
0.0058649
0.00566297
0.00545093
0.0052649
0.00512271
0.00501363
0.00491542
0.00480934
0.00467916
0.00450844
0.00428033
0.00398452
0.00363996
0.00332701
0.00317145
0.00326155
0.00356529
0.003923
0.0041604
0.00422917
0.00415916
0.00393509
0.00339646
0.00247796
0.00521904
0.00543536
0.00555766
0.00565927
0.00577902
0.00591913
0.00605039
0.00614051
0.00617799
0.00616251
0.00609517
0.0059779
0.0058185
0.00563417
0.00545333
0.00530276
0.00518753
0.00509444
0.00500911
0.00491954
0.00481527
0.00468566
0.00451839
0.00430001
0.00402617
0.00371983
0.00344504
0.00329032
0.00330674
0.00343629
0.00354974
0.00357745
0.00350531
0.00329337
0.00311012
0.00532738
0.00546711
0.00556097
0.00564405
0.00575004
0.00588682
0.00602569
0.00612875
0.0061818
0.00618595
0.00614374
0.00605642
0.00592787
0.0057671
0.00559432
0.00543539
0.00530423
0.00519668
0.00510319
0.00501463
0.00492436
0.00482801
0.00472207
0.00459873
0.00444381
0.00424161
0.00398913
0.00371297
0.00347908
0.00335341
0.00331995
0.00331944
0.00332364
0.00333249
0.00341085
0.00545436
0.00551632
0.0055833
0.00564686
0.00573409
0.00585943
0.00600154
0.00611777
0.00618722
0.0062093
0.00618741
0.00612296
0.00601774
0.00587552
0.00571022
0.00554368
0.0053929
0.00525966
0.00513807
0.00502042
0.0049008
0.0047774
0.0046549
0.0045424
0.00444013
0.00432159
0.00414293
0.0038748
0.00353595
0.00323846
0.00310547
0.00310645
0.00314797
0.0031683
0.0029107
0.00563243
0.0056209
0.00566046
0.00570294
0.00576563
0.005867
0.00599815
0.0061178
0.00619858
0.0062362
0.00623327
0.00619105
0.00610984
0.00598942
0.00583849
0.00567376
0.00550982
0.00535171
0.00519609
0.00503601
0.00486442
0.00467783
0.00448248
0.00430278
0.00417688
0.00410884
0.00402538
0.00383227
0.00350462
0.00315498
0.00297034
0.00294491
0.00295407
0.00287348
0.00227082
0.00579509
0.00571966
0.00573503
0.00575981
0.00580165
0.00588075
0.00599875
0.00611884
0.00620924
0.00626207
0.00627886
0.00626085
0.00620766
0.00611642
0.00599174
0.00584501
0.00568615
0.00551953
0.00534366
0.00515244
0.00493807
0.00469411
0.00442031
0.00413295
0.00388244
0.00373849
0.00370456
0.00367208
0.00353228
0.00330777
0.00313198
0.00304219
0.00295685
0.00272018
0.00192222
0.00592848
0.00580595
0.00579706
0.00580409
0.00582852
0.00589187
0.0059994
0.00611857
0.00621662
0.00628317
0.00631888
0.00632539
0.00630189
0.00624485
0.00615582
0.00604122
0.00590597
0.00575277
0.00558104
0.0053863
0.00516133
0.00489848
0.00459143
0.00423912
0.00386194
0.0035228
0.00330886
0.00324362
0.00324084
0.0032051
0.0031332
0.00304667
0.00290974
0.00257621
0.00177435
0.00597808
0.00583995
0.00581079
0.00579837
0.00580556
0.00586339
0.00597137
0.00609563
0.00620469
0.0062869
0.00634231
0.00637319
0.00637897
0.00635696
0.00630714
0.00623211
0.00613258
0.00600959
0.00586255
0.00568883
0.00548307
0.00523863
0.00494777
0.00460225
0.0041982
0.00375129
0.00331851
0.00298881
0.00281387
0.00275368
0.00272537
0.00267733
0.00257271
0.0023065
0.00170947
0.00603146
0.00589073
0.00583801
0.00579802
0.00577457
0.00582322
0.00593641
0.00606511
0.00618147
0.00627546
0.00634685
0.00639825
0.00642934
0.00643872
0.006426
0.00639088
0.00633082
0.00624537
0.00613404
0.005995
0.00582501
0.00561939
0.0053717
0.00507425
0.00471791
0.00429548
0.00381459
0.00331903
0.00289084
0.00260097
0.0024472
0.00236677
0.00229463
0.00214622
0.00172073
0.0061232
0.0059797
0.00590549
0.00583197
0.0057557
0.00577851
0.00590839
0.00605107
0.0061733
0.00627218
0.00635086
0.00641337
0.00646008
0.00649137
0.00650737
0.00650568
0.00648124
0.00643196
0.00635701
0.00625493
0.00612424
0.00596164
0.00576264
0.00552163
0.00523153
0.00488292
0.00446696
0.00398693
0.00348017
0.00302722
0.00270739
0.0025252
0.00241462
0.00227424
0.00179481
0.00628676
0.0061546
0.00607239
0.00596729
0.00581163
0.00575769
0.00589406
0.00606211
0.00619624
0.00629793
0.006377
0.00644017
0.00649028
0.00653011
0.00656148
0.00658141
0.00658309
0.00656235
0.0065175
0.00644734
0.00635094
0.00622597
0.00606935
0.00587733
0.00564497
0.00536517
0.00502835
0.00462658
0.00416738
0.00369763
0.00330145
0.00302881
0.00283912
0.0026057
0.00189129
0.00649193
0.00637752
0.00630448
0.00618447
0.00595423
0.00578111
0.00589055
0.00608372
0.00623844
0.00634885
0.00642938
0.00648959
0.00653556
0.00657273
0.00660547
0.00663247
0.006647
0.0066432
0.00661791
0.00656952
0.00649694
0.0063985
0.00627173
0.00611363
0.00592028
0.00568607
0.00540311
0.00506265
0.00466348
0.00423094
0.00382709
0.00350455
0.00324296
0.00289975
0.00194619
0.00674201
0.00658629
0.00651624
0.00639738
0.00613399
0.00586585
0.00591983
0.0061167
0.00628625
0.00640712
0.00649246
0.00655228
0.00659432
0.00662549
0.00665213
0.00667589
0.00669216
0.00669473
0.006679
0.0066425
0.00658371
0.00650114
0.00639253
0.00625507
0.00608513
0.00587761
0.00562545
0.00532073
0.00496092
0.004563
0.00417141
0.00382749
0.00351856
0.00309481
0.00197967
0.00694005
0.00668012
0.00659972
0.00648989
0.00624193
0.00597159
0.00599697
0.00618107
0.00634842
0.00647082
0.0065576
0.00661683
0.00665569
0.00668082
0.00669901
0.00671424
0.00672495
0.00672616
0.00671263
0.00668087
0.00662876
0.00655463
0.00645613
0.00633037
0.00617362
0.00598073
0.00574484
0.00545869
0.00512033
0.00474391
0.00436365
0.00401042
0.0036713
0.00319186
0.00198134
0.00689246
0.00662465
0.00656422
0.00647987
0.00627432
0.00605395
0.00608431
0.00625457
0.00641161
0.00653004
0.00661562
0.00667405
0.00671094
0.00673179
0.00674266
0.00674854
0.0067503
0.00674509
0.00672818
0.00669554
0.00664458
0.00657326
0.00647905
0.0063589
0.00620897
0.0060241
0.00579766
0.0055232
0.00519987
0.00484085
0.00447387
0.00412156
0.00376831
0.00325696
0.00199038
0.00650485
0.00646879
0.00651011
0.00649575
0.00635104
0.00613804
0.00612866
0.00627805
0.0064313
0.0065517
0.00664075
0.00670243
0.00674128
0.00676199
0.00677
0.00677059
0.00676596
0.0067552
0.00673463
0.0067002
0.00664914
0.00657892
0.00648668
0.00636913
0.00622223
0.00604078
0.00581835
0.00554913
0.00523325
0.00488384
0.00452544
0.00417611
0.00381756
0.00329105
0.00200086
0.00598328
0.00634247
0.00654065
0.00663125
0.00657458
0.0063304
0.0061633
0.00623586
0.00638325
0.0065149
0.00661608
0.00668819
0.00673512
0.00676107
0.00677098
0.00677013
0.00676143
0.00674606
0.00672236
0.00668707
0.00663741
0.00657023
0.00648218
0.00636954
0.00622795
0.00605194
0.00583493
0.00557122
0.00526141
0.004919
0.00456776
0.00422366
0.00386599
0.00333378
0.00202418
0.00559928
0.00628479
0.00662552
0.00682735
0.0068972
0.00672264
0.00637548
0.00624707
0.00632918
0.00645773
0.00656841
0.00665129
0.0067082
0.00674249
0.00675822
0.00675959
0.00674882
0.0067284
0.00669938
0.00666072
0.0066104
0.00654485
0.00646018
0.00635216
0.00621596
0.0060457
0.00583446
0.00557624
0.00527158
0.00493425
0.00458794
0.00424754
0.00388949
0.00334955
0.00202488
0.00542438
0.0062308
0.00665918
0.00695998
0.00716392
0.00715997
0.00683775
0.00648075
0.00639733
0.00646899
0.00656452
0.00664287
0.00669897
0.00673432
0.00675178
0.00675327
0.00673979
0.00671359
0.00667746
0.0066329
0.00657944
0.00651344
0.0064305
0.00632587
0.00619422
0.00602932
0.00582399
0.0055721
0.00527419
0.00494402
0.00460483
0.00427039
0.00391491
0.00337238
0.00204276
0.00539302
0.00616917
0.00662129
0.00699147
0.00730931
0.00745708
0.00730986
0.00692544
0.00667286
0.00663453
0.00667671
0.00672506
0.00676094
0.00678171
0.00678797
0.0067792
0.00675511
0.00671703
0.00666821
0.00661229
0.00655111
0.00648114
0.00639717
0.00629356
0.00616426
0.00600241
0.0058005
0.00555231
0.00525862
0.00493362
0.00460041
0.0042717
0.00391885
0.0033737
0.00203978
0.00541231
0.00610378
0.00654772
0.00697234
0.00738037
0.00762062
0.00760095
0.0073477
0.00707382
0.00695014
0.00692298
0.0069225
0.00692175
0.00691335
0.00689466
0.00686325
0.00681741
0.00675729
0.00668601
0.0066097
0.00653314
0.00645366
0.00636512
0.00626047
0.00613239
0.00597316
0.00577474
0.00553098
0.0052432
0.004926
0.00460164
0.00428095
0.00393211
0.00338362
0.0020323
0.00541428
0.00602552
0.00646862
0.00697715
0.00745981
0.00773305
0.00777178
0.00764157
0.00746041
0.00733351
0.00726234
0.00721531
0.00717298
0.00712773
0.00707571
0.00701344
0.00693775
0.00684697
0.00674397
0.00663671
0.00653377
0.00643516
0.00633465
0.00622348
0.00609255
0.0059327
0.00573505
0.00549341
0.00520993
0.00489992
0.00458465
0.00427242
0.00392723
0.00337262
0.00199341
0.00527133
0.00585589
0.00632437
0.00696804
0.00749935
0.00777641
0.00786521
0.00784227
0.00776876
0.00768725
0.00761078
0.0075377
0.00746336
0.0073844
0.00729887
0.00720414
0.00709663
0.00697431
0.00683871
0.00669714
0.00656088
0.0064351
0.00631559
0.00619266
0.0060553
0.0058928
0.00569543
0.00545701
0.00518013
0.00487967
0.00457471
0.00427086
0.00392879
0.00336713
0.00195386
0.00486492
0.00547596
0.00596876
0.0067276
0.00729874
0.00762924
0.00781524
0.00790767
0.00793409
0.00791576
0.00786745
0.00779875
0.00771484
0.00761838
0.00751063
0.00739134
0.00725854
0.00711019
0.00694653
0.00677337
0.00660316