/*--------------------------------*- C++ -*----------------------------------*\
| =========                 |                                                 |
| \\      /  F ield         | OpenFOAM: The Open Source CFD Toolbox           |
|  \\    /   O peration     | Version:  v1912                                 |
|   \\  /    A nd           | Website:  www.openfoam.com                      |
|    \\/     M anipulation  |                                                 |
\*---------------------------------------------------------------------------*/
FoamFile
{
    version     2.0;
    format      ascii;
    class       volScalarField;
    location    "194/oil";
    object      heatTransferCoeff(T);
}
// * * * * * * * * * * * * * * * * * * * * * * * * * * * * * * * * * * * * * //

dimensions      [1 0 -3 -1 0 0 0];


internalField   uniform 0;

boundaryField
{
    maxY
    {
        type            calculated;
        value           uniform 0;
    }
    minX
    {
        type            calculated;
        value           uniform 0;
    }
    maxX
    {
        type            calculated;
        value           uniform 0;
    }
    minY
    {
        type            calculated;
        value           uniform 0;
    }
    minZ
    {
        type            calculated;
        value           uniform 0;
    }
    maxZ
    {
        type            calculated;
        value           uniform 0;
    }
    oil_to_sphere
    {
        type            calculated;
        value           nonuniform List<scalar> 
1536
(
-151.796
-160.5
-145.904
-143.651
-117.188
-122.705
-120.915
-78.2694
-72.1741
-168.395
-115.565
-170.519
-174.046
-170.511
-142.615
-116.305
-79.8625
-72.9292
30.0076
-173.615
-168.437
-124.166
-121.593
-117.684
-126.252
-126.162
-126.193
-118.158
-160.843
-158.333
-146.126
-105.238
-93.3745
-126.919
-116.881
-115.815
-109.094
-134.397
-124.038
-133.368
-124.018
-115.876
-156.421
-170.854
-159.692
-169.418
-123.115
-123.4
-139.859
-126.847
-124.126
-124.419
-120.227
-122.685
-99.2346
-90.5488
-121.965
-121.455
-73.6527
-30.297
-39.8889
-28.9767
-37.9744
-173.468
-174.65
-170.122
-160.547
-169.935
-151.234
-158.981
-127.459
-122.56
-145.791
-124.61
-116.979
-94.0583
-88.7601
-85.03
-116.578
-72.9552
-28.6152
-38.0593
-17.8854
-16.8275
-44.7144
-39.4547
-19.6532
-79.2247
-72.7765
-30.0541
-38.9164
30.1683
29.931
-174.347
-174.841
-171.092
-162.888
-166.553
-170.534
-150.312
-161.359
-126.75
-150.779
-146.494
-123.582
-124.556
-117.863
-85.9103
-115.001
-94.9331
-88.001
-93.0298
-29.9867
-40.132
-18.7144
-20.2162
-18.4569
-44.0667
-39.4211
-45.6808
-73.4451
-39.0781
29.9981
-170.118
-150.375
-158.813
-151.387
-157.941
-123.959
-124.531
-125.851
-123.943
-124.505
-122.969
-125.44
-125.908
-122.706
-90.6527
-120.608
-120.104
-30.4147
-39.5435
-79.4188
-73.5513
-38.2174
-71.7851
-140.62
-140.498
-120.359
-128.468
-145.687
-140.209
-122.903
-125.591
-124.382
-109.022
-99.871
-101.485
-140.991
-137.939
-141.119
-152.511
-131.84
-125.569
-115.962
-109.509
-122.739
-112.05
-100.57
-102.272
-154.931
-135.789
-158.909
-133.531
-103.39
-87.7255
-141.622
-143.062
-148.332
-139.082
-131.409
-125.007
-109.761
-124.216
-105.149
-102.631
-101.764
-163.573
-138.821
-146.151
-153.981
-141.749
-151.854
-144.947
-106.213
-107.011
-111.484
-112.731
-104.481
-108.237
-111.623
-116.83
-72.7409
-69.1448
-65.505
-75.2427
-79.9838
-77.9959
-85.3297
-82.6924
-69.7361
-62.4678
-58.5758
-165.641
-178.427
-174.725
-166.52
-166.621
-167.973
-166.113
-164.339
-171.261
-160.669
-164.99
-165.327
-142.431
-142.019
-159.514
-149.74
-128.932
-110.2
-105.362
-122.551
-106.717
-70.2732
-74.0384
-66.5711
-75.5971
-79.1502
-67.5552
-61.6721
-9.99648
-2.31701
-172.3
-165.991
-168.634
-164.99
-169.972
-178.948
-170.55
-164.775
-137.9
-126.796
-138.191
-140.253
-107.864
-117.078
-70.8028
-63.2494
-80.5379
-89.217
-84.5691
-59.6296
-1.69841
-8.99965
13.0333
13.1249
-9.62348
-168.358
-164.18
-163.301
-160.86
-164.954
-165.706
-162.532
-169.092
-181.478
-172.895
-164.253
-151.726
-140.64
-141.27
-148.536
-160.649
-150.412
-141.396
-141.152
-109.319
-110.58
-117.044
-118.815
-111.61
-116.765
-66.7032
-62.6378
-68.5793
-77.3489
-73.9449
-79.5657
-78.3093
-78.5591
-66.0245
-60.6856
-75.5692
-68.675
-128.418
-120.102
-122.384
-109.385
-105.138
-102.838
-98.0505
-156.493
-149.028
-160.075
-154.77
-149.022
-155.622
-158.026
-161.141
-166.639
-157.549
-159.694
-157.349
-177.388
-168.511
-165.419
-159.892
-166.724
-172.379
-165.418
-152.567
-155.051
-158.828
-149.188
-158.88
-161.515
-166.516
-165.598
-170.871
-168.837
-167.097
-162.486
-162.367
-161.084
-162.695
-156.175
-156.586
-150.422
-155.78
-147.355
-150.096
-161.348
-140.552
-155.732
-142.235
-145.059
-138.816
-128.963
-154.774
-141.07
-140.099
-148.209
-129.344
-136.218
-141.084
-127.727
-133.095
-123.446
-142.793
-154.524
-141.357
-142.511
-145.014
-131.332
-137.023
-135.591
-109.818
-114.162
-108.486
-100.857
-95.8639
-101.383
-90.5083
-86.6224
-110.834
-114.625
-110.013
-102.752
-97.3092
-105.198
-90.3576
-86.5941
-83.5882
-105.96
-86.0475
-102.401
-97.9534
-102.984
-90.1632
-110.335
-115.601
-109.501
-114.632
-88.6303
-84.0472
-102.482
-97.7684
-104.186
-88.8458
-85.2224
-77.4255
-73.1686
-76.9335
-72.8214
-66.2303
-66.5232
-61.1695
-71.43
-63.5299
-80.6303
-59.963
-62.1598
-57.7449
-52.1579
-59.8436
-56.8525
-48.1508
-44.614
-35.8651
-74.2109
-70.5184
-65.7844
-75.8727
-62.6579
-66.5268
-48.2278
-43.6679
-41.5078
-35.9515
-58.112
-53.0535
-60.1187
-57.0905
-55.4229
-76.8735
-72.6918
-77.5659
-78.1361
-66.4608
-60.6321
-73.5319
-68.0971
-194.727
-185.05
-176.476
-192.331
-177.603
-180.044
-185.297
-171.746
-174.459
-178.105
-177.135
-165.146
-172.184
-162.602
-161.532
-159.195
-158.727
-162.704
-160.984
-166.6
-171.805
-154.828
-167.602
-156.866
-162.46
-157.751
-168.28
-159.746
-167.767
-164.048
-169.822
-164.922
-155.29
-160.881
-150.553
-162.002
-139.226
-145.48
-143.31
-124.396
-132.641
-131.537
-142.516
-124.387
-140.112
-123.422
-132.373
-125.836
-117.708
-122.542
-110.389
-106.962
-98.2005
-103.346
-100.953
-95.3307
-87.7804
-104.162
-87.1765
-115.992
-108.953
-99.9684
-62.5832
-57.2607
-53.0324
-61.1557
-57.6548
-70.1279
-62.7566
-80.288
-59.1109
-47.5431
-45.6903
-36.7796
-24.4333
-15.7034
-25.1859
-16.0906
-32.2581
-39.9208
-31.9422
-22.8725
-24.9838
-69.1631
-73.5355
-65.4249
-75.1801
-59.2266
-53.3284
-61.1447
-56.0032
-69.2175
-62.0551
-77.2917
-84.0573
-59.408
-47.7475
-55.9369
-44.5974
-35.9479
-52.6858
-9.26121
-2.16931
-10.7994
-2.25155
12.4512
12.6607
12.6709
12.8144
-1.15133
-188.968
-174.626
-180.27
-178.268
-175.199
-189.236
-180.691
-177.82
-173.919
-165.767
-176.955
-178.974
-182.975
-166.546
-166.752
-172.204
-172.87
-154.882
-164.835
-155.286
-168.599
-162.96
-162.247
-159.244
-164.494
-158.813
-163.8
-169.446
-159.969
-154.059
-151.347
-163.563
-168.523
-154.837
-166.397
-156.603
-150.339
-170.425
-162.557
-161.526
-164.152
-157.445
-157.327
-161.988
-168.055
-158.035
-151.056
-142.791
-140.131
-133.111
-125.624
-134.323
-150.606
-144.985
-143.09
-136.08
-135.137
-130.277
-131.417
-132.34
-124.431
-124.592
-109.794
-121.919
-105.216
-112.07
-103.129
-98.4476
-127.295
-117.118
-90.1692
-106.325
-86.9085
-105.694
-94.8279
-87.4071
-101.034
-102.599
-101.518
-101.089
-98.8701
-123.646
-107.853
-47.5966
-46.1564
-42.168
-37.0532
-73.7387
-69.3123
-65.8107
-75.5376
-62.7396
-66.6891
-53.8264
-60.9741
-60.8305
-56.8491
-54.8055
-32.898
-32.9159
-40.7381
-23.689
-24.6565
-15.5886
-25.2458
-25.4167
-15.3371
-39.1263
-31.332
-31.9297
-40.3074
-23.1288
-69.413
-62.3927
-79.1292
-83.5412
-59.5378
-48.1269
-56.2494
-43.7587
-41.8213
-53.1031
-67.3749
-61.1859
-72.9831
-70.173
-65.7307
-75.5851
-78.7936
-52.9912
-57.9751
-60.7742
-56.3861
-55.2991
12.7124
12.5227
-10.4213
-9.61876
-2.50538
-1.12049
-18.6092
-9.40353
-1.43903
-148.757
-158.463
-157.081
-148.139
-156.974
-148.589
-148.108
-167.841
-164.336
-172.283
-164.629
-155.378
-161.682
-158.354
-166.508
-159.788
-163.067
-155.575
-155.753
-168.311
-162.583
-159.751
-160.682
-157.482
-157.267
-160.816
-151.488
-150.206
-155.741
-160.124
-155.161
-163.714
-158.265
-172.413
-156.042
-151.656
-154.1
-155.731
-150.394
-148.411
-161.681
-141.478
-132.51
-132.854
-138.231
-125.226
-153.416
-140.965
-140.429
-146.12
-136.479
-136.71
-131.483
-149.036
-139.236
-140.896
-145.879
-129.934
-131.377
-139.756
-137.921
-125.153
-144.416
-153.144
-143.348
-145.057
-137.324
-136.893
-132.617
-132.471
-124.454
-102.105
-97.4182
-103.411
-90.209
-88.3936
-84.5022
-113.498
-106.826
-114.63
-110.132
-97.4293
-102.549
-102.277
-88.5296
-85.0264
-86.0968
-110.35
-109.972
-115.581
-109.343
-115.488
-87.9315
-90.2104
-101.646
-96.6347
-102.404
-88.0347
-84.851
-117.169
-108.799
-109.156
-112.245
-116.491
-89.9526
-85.6512
-97.9092
-103.391
-103.344
-72.7207
-77.5814
-66.3722
-65.6896
-60.3104
-77.0034
-73.1373
-77.5428
-58.1465
-52.924
-60.5658
-56.0641
-49.5291
-58.1619
-45.3791
-36.4728
-53.8855
-69.8935
-72.8506
-65.2484
-75.7536
-83.9861
-94.1414
-73.5243
-65.2408
-60.7301
-63.0732
-70.3864
-48.0085
-55.376
-44.3403
-42.8202
-52.054
-58.671
-53.5902
-59.5024
-58.0525
-55.4289
-77.5152
-84.0164
-70.108
-62.5615
-58.999
-75.4582
-79.5054
-69.9437
-73.8532
-66.4104
-146.829
-142.041
-88.5187
-81.5036
-170.379
-162.857
-167.95
-169.611
-167.857
-139.67
-152.315
-147.313
-151.374
-115.356
-124.771
-81.6514
-16.7724
-12.9211
-146.281
-145.908
-78.7813
-17.132
-11.7809
-30.302
-169.834
-141.559
-121.581
-29.0643
-151.623
-144.871
-149.496
-114.655
-125.967
-124.392
-78.1852
-147.032
-151.678
-123.909
-125.452
-149.741
-123.09
-124.869
-111.854
-117.035
-85.0534
-93.3908
-99.9237
-142.181
-148.248
-121.875
-131.721
-114.247
-120.751
-85.0859
-93.1726
-95.2319
-140.782
-151.305
-122.673
-135.933
-97.6696
-86.0327
-95.913
-110.24
-132.117
-130.165
-149.881
-152.491
-125.231
-123.97
-121.586
-124.833
-94.6227
-86.2344
-94.6403
-79.6087
-178.656
-173.661
-150.115
-166.625
-149.397
-171.018
-168.567
-124.759
-142.854
-142.384
-145.913
-141.838
-122.806
-96.8712
-93.2022
-93.2739
-94.2339
-93.7366
-91.5369
-49.6302
-81.3736
-45.9914
-50.4708
-174.665
-168.855
-176.954
-170.156
-175.043
-171.714
-174.814
-173.222
-177.157
-172.051
-149.978
-167.196
-149.999
-158.78
-150.385
-122.356
-133.795
-140.439
-155.107
-126.569
-148.211
-122.325
-86.1807
-94.823
-97.5217
-87.7151
-93.0139
-92.6025
-79.9066
-50.255
-42.5599
-39.3344
-42.359
-81.192
-49.0593
-13.4528
-14.6028
-11.9245
-178.563
-174.662
-171.8
-181.963
-172.693
-176.661
-171.958
-179.567
-175.911
-150.78
-166.636
-147.093
-169.332
-168.118
-162.527
-167.733
-161.509
-148.478
-154
-121.694
-139.655
-154.041
-141.788
-152.278
-125.336
-85.2691
-95.5385
-113.813
-123.451
-91.2148
-99.6836
-87.1677
-94.118
-121.209
-81.9323
-49.7864
-38.0171
-42.8489
-38.9887
-80.6184
-49.0239
-13.5817
-12.0522
-12.7683
-173.876
-157.582
-151.624
-170.151
-148.609
-124.849
-145.921
-143.067
-142.891
-142.07
-92.3117
-100.436
-91.8822
-91.9159
-92.3091
-49.3117
-83.4019
-51.0073
-82.9254
-149.409
-140.121
-130.998
-139.129
-151.529
-141.499
-103.203
-109.772
-102.793
-144.302
-151.419
-143.469
-134.252
-152.399
-128.794
-138.439
-137.094
-128.839
-143.172
-135.895
-151.08
-131.913
-136.087
-136.635
-132.216
-116.226
-114.838
-103.914
-103.448
-96.54
-87.9326
-102.368
-94.5374
-98.9236
-150.289
-138.524
-133.03
-138.813
-149.025
-128.484
-130.819
-131.729
-119.531
-138.078
-109.61
-119.784
-116.966
-104.84
-105.591
-97.8692
-87.8885
-100.977
-93.519
-99.1385
-139.515
-148.469
-128.443
-129.475
-133.056
-118.108
-137.547
-114.989
-103.543
-93.2946
-104.351
-99.5011
-103.17
-162.086
-162.578
-161.012
-163.741
-131.305
-149.968
-143.835
-110.63
-110.882
-117.135
-116.109
-115.162
-78.0295
-86.0808
-84.38
-68.4673
-65.5098
-87.2556
-79.8352
-79.6223
-163.696
-165.787
-169.432
-160.98
-134.712
-143.188
-130.03
-154.05
-141.784
-114.868
-114.668
-104.975
-79.1141
-90.0616
-84.2968
-69.0803
-32.7709
-34.2
-23.5151
-24.7024
-15.4542
-10.2867
-163.912
-162.77
-162.653
-159.658
-167.356
-139.257
-148.327
-144.142
-108.799
-65.8142
-85.6
-24.5339
-15.3558
-10.5878
0.315696
-35.8839
-163.759
-164.481
-169.34
-163.671
-167.241
-166.972
-164.289
-162.323
-167.671
-128.883
-136.612
-161.21
-141.876
-115.873
-116.144
-79.3861
-86.0814
-78.3815
-73.9486
-83.5305
-68.1292
-36.5474
-115.101
-83.9906
-155.107
-151.431
-139.388
-140.128
-115.238
-108.27
-112.779
-100.898
-92.9298
-103.104
-94.7676
-94.4344
-91.1508
-178.101
-174.359
-145.259
-146.617
-156.676
-162.323
-160.125
-161.791
-147.546
-156.045
-152.373
-159.769
-148.197
-154.706
-165.334
-160.761
-161.75
-160.844
-146.597
-151.882
-154.579
-158.724
-163.464
-167.977
-164.979
-166.911
-157.002
-147.117
-153.598
-167.765
-163.983
-168.152
-164.826
-148.058
-162.553
-166.363
-159.918
-152.151
-155.382
-152.199
-139.19
-134.408
-156.438
-139.326
-132.093
-131.929
-122.3
-123.65
-123.114
-133.589
-152.132
-143.054
-125.283
-124.294
-132.211
-125.529
-133.798
-148.936
-137.306
-124.24
-118.057
-116.564
-100.269
-103.241
-87.6249
-116.788
-100.323
-104.834
-89.0488
-111.546
-116.979
-101.386
-88.6435
-116
-96.5224
-101.411
-78.7474
-78.5219
-65.6904
-66.7606
-55.1066
-56.0648
-67.176
-56.5176
-53.6387
-43.7679
-40.9107
-40.307
-45.7894
-77.371
-68.6373
-55.9391
-52.2691
-44.7869
-45.0113
-39.8461
-73.9894
-79.1533
-55.7048
-180.011
-170.568
-175.677
-165.658
-169.781
-179.926
-162.535
-189.425
-170.582
-172.938
-171.688
-180.269
-172.225
-179.011
-189.818
-180.618
-170.392
-177.057
-156.866
-163.389
-173.366
-166.961
-149.821
-161.632
-154.981
-164.635
-160.55
-163.572
-160.687
-168.143
-155.413
-145.956
-150.779
-157.637
-167.386
-162.423
-161.575
-157.179
-129.945
-136.043
-123.957
-139.83
-148.172
-130.46
-136.081
-138.377
-140.388
-141.093
-148.45
-131.488
-110.025
-103.382
-97.822
-106.39
-115.721
-93.0197
-94.9248
-102.582
-110.573
-103.247
-96.0251
-88.1149
-45.3517
-42.8832
-41.3381
-65.3927
-55.8671
-52.3558
-44.3918
-77.3923
-81.1655
-44.421
-41.7197
-65.6939
-45.0111
-10.7152
-11.0175
-1.03333
-18.5934
-0.0439881
-11.2899
-20.529
-182.054
-170.639
-185.196
-176.323
-175.455
-168.327
-170.221
-162.622
-178.268
-185.169
-179.023
-170.887
-168.69
-166.658
-172.54
-172.801
-172.652
-156.904
-168.463
-154.264
-166.487
-168.265
-163.168
-144.57
-167.074
-158.722
-162.844
-161.073
-156.62
-161.174
-161.101
-150.258
-154.741
-149.099
-136.811
-150.021
-139.889
-131.111
-127.928
-118.709
-132.445
-150.622
-137.498
-138.359
-112.701
-94.7349
-97.0773
-108.472
-107.869
-99.2987
-105.736
-105.092
-102.65
-96.0693
-114.215
-115.149
-55.9794
-52.6489
-44.7737
-78.9426
-69.3415
-44.6182
-41.1112
-66.2404
-45.4408
-77.5863
-43.8253
-0.579198
-11.0348
-20.6371
-179.767
-163.481
-149.301
-160.657
-148.825
-149.082
-154.767
-167.415
-163.358
-161.943
-149.965
-155.277
-159.095
-157.096
-164.373
-161.397
-163.109
-160.885
-156.931
-146.972
-160.859
-154.179
-152.269
-140.97
-125.131
-135.424
-156.763
-138.743
-131.671
-123.466
-123.41
-133.14
-151
-123.808
-132.613
-150.443
-125.238
-99.4528
-90.0527
-112.406
-116.592
-112.396
-99.4371
-105.538
-114.869
-96.8464
-115.781
-96.8771
-54.6916
-78.9246
-44.1113
-41.4863
-46.5335
-77.823
-86.2939
-67.0556
-44.485
-46.251
-65.1663
-78.2079
)
;
    }
}


// ************************************************************************* //
