/*--------------------------------*- C++ -*----------------------------------*\
| =========                 |                                                 |
| \\      /  F ield         | OpenFOAM: The Open Source CFD Toolbox           |
|  \\    /   O peration     | Version:  v1906                                 |
|   \\  /    A nd           | Web:      www.OpenFOAM.com                      |
|    \\/     M anipulation  |                                                 |
\*---------------------------------------------------------------------------*/
FoamFile
{
    version     2.0;
    format      ascii;
    class       surfaceScalarField;
    location    "8";
    object      phi;
}
// * * * * * * * * * * * * * * * * * * * * * * * * * * * * * * * * * * * * * //

dimensions      [1 0 -1 0 0 0 0];
oriented        oriented;


internalField   nonuniform List<scalar> 
228225
(
-2.49714e-05
-2.3066e-07
3.23062e-07
-2.30636e-05
-2.16757e-06
2.5624e-07
-2.00179e-05
-3.02402e-06
-2.12739e-08
-1.66871e-05
-3.13873e-06
-1.92226e-07
-1.35497e-05
-2.85787e-06
-2.79846e-07
-1.06332e-05
-2.5759e-06
-3.4085e-07
-7.88854e-06
-2.36432e-06
-3.80614e-07
-5.29226e-06
-2.18763e-06
-4.08952e-07
-2.83641e-06
-2.02145e-06
-4.34679e-07
-5.21206e-07
-1.8555e-06
-4.59984e-07
1.6511e-06
-1.68899e-06
-4.83614e-07
3.6789e-06
-1.52322e-06
-5.04879e-07
5.5638e-06
-1.36064e-06
-5.24564e-07
7.3092e-06
-1.20238e-06
-5.43326e-07
8.91836e-06
-1.04834e-06
-5.61118e-07
1.0394e-05
-8.98258e-07
-5.77706e-07
1.17383e-05
-7.51716e-07
-5.9286e-07
1.29521e-05
-6.07855e-07
-6.06322e-07
1.40342e-05
-4.64662e-07
-6.17739e-07
1.49806e-05
-3.20032e-07
-6.26632e-07
1.57856e-05
-1.72787e-07
-6.32536e-07
1.6448e-05
-2.7707e-08
-6.35005e-07
1.69319e-05
1.48956e-07
-6.33218e-07
1.72261e-05
3.32165e-07
-6.2674e-07
1.73137e-05
5.26613e-07
-6.14501e-07
1.71701e-05
7.37568e-07
-5.94353e-07
1.67633e-05
9.69677e-07
-5.63234e-07
1.60532e-05
1.22776e-06
-5.17951e-07
1.49918e-05
1.51677e-06
-4.55689e-07
1.35219e-05
1.8417e-06
-3.72197e-07
1.15766e-05
2.20595e-06
-2.61069e-07
9.07971e-06
2.60922e-06
-1.12687e-07
5.96706e-06
3.01848e-06
9.37136e-08
2.47768e-06
3.1911e-06
2.97469e-07
2.19158e-06
2.8444e-07
-3.71867e-06
3.62903e-06
-1.41781e-07
-7.14671e-06
2.52527e-06
-1.26506e-06
-9.77665e-06
1.5666e-06
-1.96081e-06
-1.17378e-05
1.06843e-06
-2.24623e-06
-1.306e-05
8.04088e-07
-2.33985e-06
-1.38419e-05
5.54298e-07
-2.34851e-06
-1.41145e-05
2.22367e-07
-2.31426e-06
-1.39608e-05
-9.29322e-08
-2.24861e-06
-1.35294e-05
-2.86926e-07
-2.16621e-06
-1.28422e-05
-4.58928e-07
-2.084e-06
-1.19539e-05
-5.68134e-07
-2.00941e-06
-1.0942e-05
-5.92064e-07
-1.94332e-06
-9.86965e-06
-5.46425e-07
-1.88682e-06
-8.76668e-06
-4.65244e-07
-1.84036e-06
-7.64342e-06
-3.68711e-07
-1.80316e-06
-6.50513e-06
-2.62484e-07
-1.77433e-06
-5.35385e-06
-1.49856e-07
-1.75341e-06
-4.18362e-06
-3.84565e-08
-1.73991e-06
-3.04274e-06
1.27377e-07
-1.7332e-06
-1.93182e-06
3.00633e-07
-1.73186e-06
-8.51658e-07
4.81188e-07
-1.73442e-06
1.82336e-07
6.77018e-07
-1.73901e-06
1.18019e-06
8.93981e-07
-1.74317e-06
2.11784e-06
1.13768e-06
-1.74346e-06
2.97076e-06
1.40816e-06
-1.73476e-06
3.71598e-06
1.70391e-06
-1.71188e-06
4.32654e-06
2.029e-06
-1.6702e-06
4.76805e-06
2.39008e-06
-1.60415e-06
4.99561e-06
2.79443e-06
-1.50554e-06
4.9506e-06
3.24861e-06
-1.36223e-06
4.56114e-06
3.753e-06
-1.15792e-06
3.76003e-06
4.28278e-06
-8.72813e-07
2.53043e-06
4.73265e-06
-4.85048e-07
1.04133e-06
4.7431e-06
-6.37088e-08
3.06805e-06
1.63311e-07
-1.01164e-06
4.66872e-06
-2.84908e-08
-3.89299e-06
5.95282e-06
-5.46542e-07
-6.95705e-06
5.48775e-06
-8.56749e-07
-9.44909e-06
4.52211e-06
-9.61439e-07
-1.11175e-05
3.45726e-06
-9.8485e-07
-1.20438e-05
2.46587e-06
-9.85555e-07
-1.24506e-05
1.60242e-06
-9.73484e-07
-1.24674e-05
8.73054e-07
-9.49407e-07
-1.21269e-05
2.93897e-07
-9.21619e-07
-1.15399e-05
-1.48827e-07
-8.97408e-07
-1.07787e-05
-4.53003e-07
-8.76632e-07
-9.94782e-06
-5.66321e-07
-8.56937e-07
-9.09281e-06
-5.62183e-07
-8.39561e-07
-8.23321e-06
-4.98724e-07
-8.26427e-07
-7.38046e-06
-4.05615e-07
-8.16161e-07
-6.54309e-06
-2.93065e-07
-8.07112e-07
-5.73126e-06
-1.63192e-07
-7.98815e-07
-4.97561e-06
-3.44459e-09
-7.90992e-07
-4.20078e-06
1.35708e-07
-7.83479e-07
-3.43306e-06
3.08992e-07
-7.76405e-07
-2.69106e-06
5.11289e-07
-7.72419e-07
-1.98348e-06
7.42882e-07
-7.73774e-07
-1.31484e-06
1.00664e-06
-7.81621e-07
-6.89314e-07
1.30812e-06
-7.96301e-07
-1.13406e-07
1.64919e-06
-8.17268e-07
4.03695e-07
2.02852e-06
-8.42033e-07
8.49729e-07
2.44829e-06
-8.65657e-07
1.20703e-06
2.91313e-06
-8.80693e-07
1.45113e-06
3.42796e-06
-8.77989e-07
1.55213e-06
3.99399e-06
-8.46749e-07
1.48008e-06
4.59649e-06
-7.71848e-07
1.22311e-06
5.17457e-06
-6.3534e-07
8.02913e-07
5.57172e-06
-4.19577e-07
2.89861e-07
5.39386e-06
-1.38818e-07
3.28495e-06
7.11122e-08
-8.5003e-07
5.48381e-06
3.43161e-08
-1.8767e-06
7.31354e-06
-3.34286e-07
-2.57974e-06
6.86123e-06
-6.70316e-07
-3.06366e-06
5.88216e-06
-8.76007e-07
-3.39905e-06
4.77981e-06
-9.87189e-07
-3.63394e-06
3.7486e-06
-1.04799e-06
-3.81506e-06
2.862e-06
-1.07867e-06
-3.98182e-06
2.12837e-06
-1.08881e-06
-4.14206e-06
1.53833e-06
-1.08447e-06
-4.30686e-06
1.08466e-06
-1.06899e-06
-4.46333e-06
7.49571e-07
-1.04641e-06
-4.51354e-06
5.06896e-07
-1.02332e-06
-4.42686e-06
3.56558e-07
-1.00574e-06
-4.22612e-06
2.9375e-07
-9.9353e-07
-3.93897e-06
2.8898e-07
-9.82072e-07
-3.58227e-06
3.19259e-07
-9.69349e-07
-3.16591e-06
3.76602e-07
-9.56485e-07
-2.68431e-06
4.59008e-07
-9.44385e-07
-2.18539e-06
5.6815e-07
-9.31699e-07
-1.66921e-06
7.09236e-07
-9.16754e-07
-1.14319e-06
8.87398e-07
-9.02469e-07
-6.15107e-07
1.10809e-06
-8.93628e-07
-9.6694e-08
1.37818e-06
-8.90295e-07
3.95085e-07
1.70765e-06
-8.91642e-07
8.4518e-07
2.09529e-06
-8.96536e-07
1.24554e-06
2.53043e-06
-9.02607e-07
1.58645e-06
3.01261e-06
-9.05557e-07
1.85064e-06
3.54745e-06
-8.98852e-07
2.01461e-06
4.13722e-06
-8.73565e-07
2.05136e-06
4.77504e-06
-8.18154e-07
1.93595e-06
5.42992e-06
-7.18396e-07
1.65041e-06
6.01895e-06
-5.59304e-07
1.16782e-06
6.38911e-06
-3.35479e-07
5.05081e-07
6.14584e-06
-9.03392e-08
3.70278e-06
8.53765e-08
4.55371e-07
5.02485e-06
2.82049e-09
4.95759e-07
7.53628e-06
-2.63544e-07
3.8018e-07
7.49824e-06
-5.21822e-07
1.43001e-07
6.78766e-06
-6.6849e-07
-1.92003e-07
5.83414e-06
-7.19439e-07
-6.18708e-07
4.88548e-06
-7.10339e-07
-1.13801e-06
4.04595e-06
-6.64859e-07
-1.74054e-06
3.32995e-06
-5.9929e-07
-2.39207e-06
2.71554e-06
-5.2592e-07
-3.02396e-06
2.17145e-06
-4.55144e-07
-3.55709e-06
1.67715e-06
-3.9472e-07
-3.94702e-06
1.244e-06
-3.47481e-07
-4.19851e-06
9.18231e-07
-3.10508e-07
-4.33413e-06
7.10007e-07
-2.80992e-07
-4.373e-06
5.87173e-07
-2.59687e-07
-4.32974e-06
5.22734e-07
-2.47109e-07
-4.21565e-06
5.04976e-07
-2.42836e-07
-4.04007e-06
5.29232e-07
-2.46191e-07
-3.8125e-06
5.96695e-07
-2.56489e-07
-3.54309e-06
7.1236e-07
-2.7291e-07
-3.24621e-06
8.85502e-07
-2.95351e-07
-2.94363e-06
1.12737e-06
-3.22227e-07
-2.65357e-06
1.43879e-06
-3.51016e-07
-2.3786e-06
1.81345e-06
-3.81132e-07
-2.11613e-06
2.24806e-06
-4.15598e-07
-1.86226e-06
2.73347e-06
-4.5727e-07
-1.6136e-06
3.26733e-06
-5.03758e-07
-1.37034e-06
3.85204e-06
-5.48235e-07
-1.13686e-06
4.48406e-06
-5.80724e-07
-9.18015e-07
5.14441e-06
-5.88672e-07
-7.14198e-07
5.78339e-06
-5.57832e-07
-5.23646e-07
6.3028e-06
-4.75105e-07
-3.58512e-07
6.55164e-06
-3.28605e-07
-1.97812e-07
6.11786e-06
-1.34064e-07
3.47756e-06
2.53086e-08
-1.07108e-07
5.10969e-06
2.15076e-08
-4.40956e-07
8.0483e-06
-1.78537e-07
-7.27126e-07
8.15862e-06
-3.74357e-07
-1.0174e-06
7.56753e-06
-4.89537e-07
-1.29986e-06
6.64839e-06
-5.31692e-07
-1.53557e-06
5.64487e-06
-5.2364e-07
-1.71452e-06
4.71003e-06
-4.85167e-07
-1.84261e-06
3.88942e-06
-4.31487e-07
-1.93147e-06
3.17812e-06
-3.73881e-07
-1.99383e-06
2.55454e-06
-3.20948e-07
-2.03769e-06
1.99982e-06
-2.79069e-07
-2.0576e-06
1.51482e-06
-2.51211e-07
-2.02737e-06
1.1219e-06
-2.3424e-07
-1.93308e-06
8.38126e-07
-2.22789e-07
-1.78273e-06
6.51882e-07
-2.15459e-07
-1.58602e-06
5.38325e-07
-2.12714e-07
-1.35231e-06
4.85048e-07
-2.14197e-07
-1.09433e-06
4.89863e-07
-2.19035e-07
-8.27632e-07
5.55803e-07
-2.26224e-07
-5.68668e-07
6.87633e-07
-2.34654e-07
-3.35825e-07
8.95103e-07
-2.4285e-07
-1.49999e-07
1.19162e-06
-2.50471e-07
-2.2293e-08
1.57011e-06
-2.59394e-07
6.22983e-08
2.00124e-06
-2.72728e-07
1.29219e-07
2.47421e-06
-2.93391e-07
1.88512e-07
2.99556e-06
-3.21666e-07
2.41897e-07
3.56926e-06
-3.55579e-07
2.89344e-07
4.19431e-06
-3.89959e-07
3.29677e-07
4.85946e-06
-4.15973e-07
3.61823e-07
5.534e-06
-4.21999e-07
3.85448e-07
6.15513e-06
-3.95702e-07
3.89496e-07
6.62631e-06
-3.28041e-07
3.26171e-07
6.8296e-06
-2.15358e-07
1.5968e-07
6.35733e-06
-7.41136e-08
3.58353e-06
5.17855e-08
3.86644e-07
4.70527e-06
1.68056e-08
6.11867e-07
7.95469e-06
-1.31895e-07
7.24366e-07
8.32594e-06
-2.79891e-07
7.37576e-07
7.91859e-06
-3.64252e-07
6.56123e-07
7.10945e-06
-3.79456e-07
5.1718e-07
6.1245e-06
-3.40484e-07
3.45977e-07
5.14664e-06
-2.65221e-07
1.55844e-07
4.25254e-06
-1.72883e-07
-4.2799e-08
3.45687e-06
-8.0119e-08
-2.4146e-07
2.75565e-06
-2.58706e-09
-4.76861e-07
2.15112e-06
8.38506e-08
-7.52277e-07
1.64511e-06
1.44787e-07
-1.05878e-06
1.23905e-06
1.88938e-07
-1.37693e-06
9.35253e-07
2.20574e-07
-1.68444e-06
7.16962e-07
2.41944e-07
-1.95937e-06
5.60367e-07
2.52381e-07
-2.17901e-06
4.52964e-07
2.51207e-07
-2.32497e-06
3.96071e-07
2.39226e-07
-2.38962e-06
4.01693e-07
2.18221e-07
-2.37648e-06
4.83242e-07
1.90721e-07
-2.29946e-06
6.57965e-07
1.59581e-07
-2.18078e-06
9.45878e-07
1.26534e-07
-2.05563e-06
1.35253e-06
9.19007e-08
-1.96254e-06
1.85292e-06
5.47221e-08
-1.90864e-06
2.41177e-06
8.04556e-09
-1.88978e-06
3.0094e-06
-3.31654e-08
-1.87143e-06
3.63716e-06
-8.66767e-08
-1.82007e-06
4.29204e-06
-1.49501e-07
-1.71281e-06
4.96374e-06
-2.11931e-07
-1.5368e-06
5.61751e-06
-2.59944e-07
-1.28924e-06
6.18475e-06
-2.77702e-07
-9.86531e-07
6.57729e-06
-2.54372e-07
-6.60606e-07
6.68517e-06
-1.82443e-07
-2.93501e-07
6.06191e-06
-7.30912e-08
3.25795e-06
2.98241e-08
2.29405e-07
4.44168e-06
3.32117e-08
4.27499e-07
7.83544e-06
-7.93374e-08
5.65864e-07
8.36865e-06
-1.81362e-07
6.18363e-07
8.092e-06
-2.2607e-07
5.47607e-07
7.39015e-06
-2.10004e-07
3.97396e-07
6.422e-06
-1.47319e-07
2.34548e-07
5.3697e-06
-6.03212e-08
9.50645e-08
4.35879e-06
3.29748e-08
-3.90224e-08
3.46304e-06
1.27472e-07
-1.92401e-07
2.70688e-06
2.01548e-07
-3.86003e-07
2.08016e-06
2.63868e-07
-6.19515e-07
1.5549e-06
3.2299e-07
-8.63461e-07
1.09686e-06
3.8541e-07
-1.06512e-06
6.8528e-07
4.50929e-07
-1.19731e-06
3.39937e-07
5.08554e-07
-1.27256e-06
9.07229e-08
5.44266e-07
-1.32759e-06
-4.33881e-08
5.50784e-07
-1.39504e-06
-6.36171e-08
5.26583e-07
-1.51367e-06
4.41332e-08
4.7566e-07
-1.69378e-06
2.58025e-07
4.0482e-07
-1.91623e-06
5.51902e-07
3.28028e-07
-2.10949e-06
8.78421e-07
2.6023e-07
-2.20411e-06
1.23767e-06
2.08989e-07
-2.18519e-06
1.65927e-06
1.7421e-07
-2.08894e-06
2.16582e-06
1.49167e-07
-1.96978e-06
2.76447e-06
1.25203e-07
-1.87191e-06
3.44535e-06
9.33561e-08
-1.79277e-06
4.16633e-06
4.5965e-08
-1.68513e-06
4.87006e-06
-1.4593e-08
-1.50733e-06
5.50357e-06
-6.45656e-08
-1.23065e-06
6.01183e-06
-1.04564e-07
-8.73944e-07
6.33613e-06
-1.16526e-07
-4.94384e-07
6.39082e-06
-8.64669e-08
-1.54767e-07
5.74082e-06
-2.02358e-08
3.04329e-06
5.73637e-08
2.21772e-07
4.16529e-06
5.35823e-08
5.07446e-07
7.57979e-06
-3.09558e-08
7.25421e-07
8.24191e-06
-9.18971e-08
8.54489e-07
8.05138e-06
-8.89971e-08
8.59198e-07
7.4176e-06
-3.27418e-08
7.46609e-07
6.47045e-06
6.34658e-08
5.3742e-07
5.40944e-06
1.68675e-07
2.51895e-07
4.38054e-06
2.62912e-07
-7.32991e-08
3.43294e-06
3.54438e-07
-3.7073e-07
2.54097e-06
4.62539e-07
-5.77325e-07
1.68106e-06
6.04961e-07
-6.74298e-07
8.72318e-07
7.7886e-07
-6.7742e-07
1.46843e-07
9.52425e-07
-5.14129e-07
-5.67014e-07
1.08823e-06
-2.04128e-07
-1.14383e-06
1.17294e-06
1.92431e-07
-1.52565e-06
1.21895e-06
6.01914e-07
-1.69453e-06
1.24078e-06
9.39944e-07
-1.64834e-06
1.24581e-06
1.14545e-06
-1.39259e-06
1.23035e-06
1.17128e-06
-9.47603e-07
1.17897e-06
1.01281e-06
-3.62766e-07
1.07237e-06
7.34895e-07
2.44505e-07
9.11168e-07
3.99072e-07
8.4599e-07
7.26937e-07
1.93759e-08
1.4757e-06
5.62792e-07
-3.62155e-07
2.10099e-06
4.45957e-07
-6.70078e-07
2.69908e-06
3.72952e-07
-8.57307e-07
3.30685e-06
3.25356e-07
-9.37601e-07
3.96278e-06
2.83442e-07
-9.42729e-07
4.64288e-06
2.31841e-07
-8.83361e-07
5.27878e-06
1.64857e-07
-7.45372e-07
5.78258e-06
9.05552e-08
-5.19936e-07
6.08563e-06
2.41641e-08
-2.50394e-07
6.12046e-06
-3.66455e-10
-4.10364e-08
5.48667e-06
4.31565e-08
2.91912e-06
8.0704e-08
-2.06278e-07
4.26674e-06
1.03769e-07
-4.14056e-07
7.70919e-06
7.74472e-08
-6.16636e-07
8.38462e-06
5.90411e-08
-8.9577e-07
8.21949e-06
1.10207e-07
-1.2983e-06
7.62539e-06
1.93898e-07
-1.81974e-06
6.70278e-06
2.88263e-07
-2.41338e-06
5.60903e-06
3.93251e-07
-2.9747e-06
4.41389e-06
5.27297e-07
-3.36831e-06
3.11965e-06
7.06309e-07
-3.49869e-06
1.771e-06
8.99793e-07
-3.30775e-06
4.53055e-07
1.03647e-06
-2.80727e-06
-7.09835e-07
1.08104e-06
-2.05395e-06
-1.66062e-06
1.05357e-06
-1.21207e-06
-2.39987e-06
9.90452e-07
-3.43997e-07
-2.9348e-06
9.22472e-07
5.34118e-07
-3.27361e-06
8.69499e-07
1.42651e-06
-3.42772e-06
8.40529e-07
2.34631e-06
-3.40663e-06
8.38247e-07
3.30095e-06
-3.21014e-06
8.62673e-07
4.27178e-06
-2.82931e-06
9.10579e-07
5.19184e-06
-2.25585e-06
9.72641e-07
5.89533e-06
-1.49249e-06
1.03299e-06
6.22494e-06
-5.51562e-07
1.06722e-06
6.09567e-06
5.63274e-07
1.04075e-06
5.55569e-06
1.71126e-06
9.28585e-07
4.76174e-06
2.73413e-06
7.57726e-07
3.8893e-06
3.5781e-06
6.00146e-07
3.09322e-06
4.26266e-06
4.95283e-07
2.44002e-06
4.86629e-06
4.28947e-07
1.90997e-06
5.43435e-06
3.73629e-07
1.46701e-06
5.91194e-06
3.12666e-07
1.08878e-06
6.21733e-06
2.45428e-07
7.41064e-07
6.27624e-06
1.90566e-07
3.4755e-07
5.70429e-06
1.74042e-07
3.12704e-06
1.36947e-07
-2.92481e-07
4.39993e-06
1.58324e-07
-7.54188e-07
7.96453e-06
2.05529e-07
-1.30386e-06
8.69625e-06
2.37229e-07
-1.93846e-06
8.53277e-06
3.20635e-07
-2.63471e-06
7.89627e-06
4.24876e-07
-3.31541e-06
6.83312e-06
5.50065e-07
-3.8266e-06
5.40478e-06
7.15321e-07
-4.0218e-06
3.69721e-06
9.11729e-07
-3.86993e-06
1.90158e-06
1.06602e-06
-3.44562e-06
2.39068e-07
1.10733e-06
-2.87337e-06
-1.16433e-06
1.04477e-06
-2.24476e-06
-2.2706e-06
9.31834e-07
-1.62099e-06
-3.10391e-06
8.19286e-07
-1.04404e-06
-3.71076e-06
7.33789e-07
-5.19151e-07
-4.13691e-06
6.77139e-07
-2.42699e-08
-4.41179e-06
6.43253e-07
4.72259e-07
-4.55168e-06
6.27407e-07
1.00149e-06
-4.5633e-06
6.27431e-07
1.59324e-06
-4.44529e-06
6.43398e-07
2.27432e-06
-4.18779e-06
6.77425e-07
3.05649e-06
-3.77083e-06
7.32834e-07
3.91503e-06
-3.16317e-06
8.12085e-07
4.77276e-06
-2.32283e-06
9.13378e-07
5.53618e-06
-1.21909e-06
1.01855e-06
6.02948e-06
1.30673e-07
1.08654e-06
6.09879e-06
1.5907e-06
1.07303e-06
5.69206e-06
3.0217e-06
9.61737e-07
4.9144e-06
4.23797e-06
8.00814e-07
3.96801e-06
5.14611e-06
6.65055e-07
3.04511e-06
5.78315e-06
5.72602e-07
2.21893e-06
6.23687e-06
4.99726e-07
1.48736e-06
6.52288e-06
4.24388e-07
8.50363e-07
6.56543e-06
3.45962e-07
3.181e-07
5.94905e-06
2.85251e-07
3.26298e-06
1.79143e-07
-3.93167e-07
4.59243e-06
1.9978e-07
-1.11287e-06
8.3619e-06
3.21746e-07
-1.97589e-06
9.16295e-06
3.9591e-07
-2.89568e-06
8.96404e-06
4.88368e-07
-3.72817e-06
8.13086e-06
5.98084e-07
-4.27375e-06
6.63544e-06
7.4365e-07
-4.40225e-06
4.62647e-06
9.07193e-07
-4.16634e-06
2.45436e-06
1.00704e-06
-3.72445e-06
4.74827e-07
9.84747e-07
-3.2133e-06
-1.14561e-06
8.73278e-07
-2.72677e-06
-2.39106e-06
7.39958e-07
-2.29724e-06
-3.32854e-06
6.2822e-07
-1.90939e-06
-4.03912e-06
5.47227e-07
-1.53326e-06
-4.57763e-06
4.90631e-07
-1.1495e-06
-4.97175e-06
4.50995e-07
-7.49388e-07
-5.2362e-06
4.24208e-07
-3.3048e-07
-5.37945e-06
4.08778e-07
1.07965e-07
-5.40614e-06
4.04323e-07
5.6856e-07
-5.31702e-06
4.11061e-07
1.05932e-06
-5.10849e-06
4.29869e-07
1.59759e-06
-4.77176e-06
4.62602e-07
2.2119e-06
-4.29015e-06
5.12628e-07
2.93746e-06
-3.63366e-06
5.85199e-07
3.78502e-06
-2.75308e-06
6.86308e-07
4.69411e-06
-1.58892e-06
8.10199e-07
5.48443e-06
-1.23462e-07
9.23284e-07
5.94115e-06
1.58709e-06
9.76981e-07
5.89451e-06
3.3472e-06
9.36208e-07
5.31457e-06
4.90566e-06
8.18979e-07
4.35927e-06
6.04082e-06
6.9612e-07
3.26301e-06
6.72534e-06
6.06206e-07
2.18894e-06
7.06038e-06
5.34882e-07
1.21611e-06
7.07858e-06
4.57795e-07
4.23631e-07
6.37214e-06
3.67121e-07
3.47949e-06
2.04162e-07
-3.74775e-07
4.7302e-06
2.36144e-07
-1.16044e-06
8.7222e-06
4.25081e-07
-2.12885e-06
9.59039e-06
5.40998e-07
-3.0838e-06
9.26603e-06
6.5331e-07
-3.76164e-06
8.02835e-06
7.81023e-07
-3.99213e-06
5.94009e-06
9.26558e-07
-3.837e-06
3.45555e-06
1.01616e-06
-3.49495e-06
1.13036e-06
9.82021e-07
-3.11735e-06
-7.5934e-07
8.56451e-07
-2.77113e-06
-2.20441e-06
7.12405e-07
-2.46403e-06
-3.29031e-06
5.92004e-07
-2.16355e-06
-4.12945e-06
5.00328e-07
-1.84539e-06
-4.78942e-06
4.32069e-07
-1.50415e-06
-5.30142e-06
3.8251e-07
-1.1419e-06
-5.68159e-06
3.47561e-07
-7.62381e-07
-5.9404e-06
3.24681e-07
-3.69439e-07
-6.08503e-06
3.12643e-07
3.32562e-08
-6.11967e-06
3.10837e-07
4.42457e-07
-6.0453e-06
3.19086e-07
8.56201e-07
-5.85987e-06
3.37625e-07
1.27589e-06
-5.55857e-06
3.67097e-07
1.71058e-06
-5.13355e-06
4.08684e-07
2.18286e-06
-4.57095e-06
4.64966e-07
2.73048e-06
-3.84283e-06
5.42062e-07
3.39053e-06
-2.89578e-06
6.46679e-07
4.13497e-06
-1.64458e-06
7.76406e-07
4.83977e-06
-2.45053e-08
9.06293e-07
5.29737e-06
1.90078e-06
9.88023e-07
5.29409e-06
3.92908e-06
9.78798e-07
4.7272e-06
5.71941e-06
8.87068e-07
3.7157e-06
6.96063e-06
7.7486e-07
2.51612e-06
7.58075e-06
6.77717e-07
1.36021e-06
7.65811e-06
5.74677e-07
4.40475e-07
6.84524e-06
4.44569e-07
3.68843e-06
2.28846e-07
-4.20143e-07
4.88804e-06
2.6152e-07
-1.29052e-06
9.08654e-06
5.05922e-07
-2.32144e-06
9.9749e-06
6.46767e-07
-3.25232e-06
9.4414e-06
7.56229e-07
-3.78793e-06
7.69675e-06
8.68062e-07
-3.8917e-06
5.0992e-06
9.45364e-07
-3.76587e-06
2.41857e-06
9.11515e-07
-3.57884e-06
1.66294e-07
7.77058e-07
-3.39579e-06
-1.56082e-06
6.1832e-07
-3.2217e-06
-2.86352e-06
4.84912e-07
-3.01279e-06
-3.88214e-06
3.82856e-07
-2.74713e-06
-4.7006e-06
3.05465e-07
-2.42628e-06
-5.35831e-06
2.48021e-07
-2.05823e-06
-5.87545e-06
2.06001e-07
-1.65056e-06
-6.26483e-06
1.75581e-07
-1.21036e-06
-6.5354e-06
1.54826e-07
-7.44913e-07
-6.6933e-06
1.4285e-07
-2.61877e-07
-6.74199e-06
1.39305e-07
2.30744e-07
-6.68217e-06
1.44253e-07
7.24612e-07
-6.51183e-06
1.58106e-07
1.21116e-06
-6.22669e-06
1.81575e-07
1.6825e-06
-5.82057e-06
2.1565e-07
2.13453e-06
-5.28482e-06
2.61822e-07
2.57255e-06
-4.60409e-06
3.23192e-07
3.01777e-06
-3.74647e-06
4.05397e-07
3.50624e-06
-2.6472e-06
5.14027e-07
4.03482e-06
-1.20185e-06
6.48483e-07
4.48213e-06
6.66816e-07
7.86144e-07
4.66029e-06
2.87182e-06
8.78338e-07
4.38847e-06
5.10593e-06
8.84269e-07
3.60221e-06
6.92775e-06
8.17908e-07
2.48222e-06
7.96627e-06
7.3313e-07
1.32656e-06
8.17658e-06
6.3571e-07
4.05179e-07
7.27792e-06
4.86902e-07
3.85883e-06
2.3243e-07
-4.4243e-07
5.05185e-06
2.77883e-07
-1.34917e-06
9.42992e-06
5.63313e-07
-2.39464e-06
1.0295e-05
7.25827e-07
-3.26913e-06
9.48342e-06
8.33248e-07
-3.73293e-06
7.24891e-06
9.12383e-07
-3.89481e-06
4.35596e-06
9.05484e-07
-3.9551e-06
1.69473e-06
7.84136e-07
-4.00975e-06
-3.94148e-07
6.14966e-07
-4.02826e-06
-2.00765e-06
4.65197e-07
-3.97566e-06
-3.2672e-06
3.50977e-07
-3.83021e-06
-4.29237e-06
2.6473e-07
-3.59709e-06
-5.13343e-06
1.99703e-07
-3.29093e-06
-5.81638e-06
1.51928e-07
-2.92589e-06
-6.35806e-06
1.17587e-07
-2.51353e-06
-6.77063e-06
9.34703e-08
-2.06394e-06
-7.06285e-06
7.78971e-08
-1.58655e-06
-7.24071e-06
7.00517e-08
-1.09047e-06
-7.30758e-06
6.95405e-08
-5.84755e-07
-7.26415e-06
7.6292e-08
-7.8546e-08
-7.10858e-06
9.05505e-08
4.18848e-07
-6.83697e-06
1.12898e-07
8.98148e-07
-6.44415e-06
1.44274e-07
1.3509e-06
-5.92373e-06
1.86132e-07
1.77066e-06
-5.26513e-06
2.41251e-07
2.15535e-06
-4.44508e-06
3.13849e-07
2.51274e-06
-3.41246e-06
4.07768e-07
2.85657e-06
-2.07134e-06
5.25471e-07
3.15704e-06
-2.96019e-07
6.62e-07
3.30821e-06
1.93216e-06
7.87889e-07
3.1679e-06
4.39031e-06
8.55053e-07
2.62903e-06
6.62634e-06
8.3922e-07
1.76472e-06
8.0588e-06
7.70593e-07
8.63892e-07
8.40766e-06
6.68395e-07
2.12377e-07
7.4277e-06
5.00135e-07
3.84531e-06
2.23825e-07
-5.43675e-07
5.31787e-06
2.76782e-07
-1.58858e-06
9.88858e-06
5.85969e-07
-2.7416e-06
1.06973e-05
7.50807e-07
-3.69703e-06
9.61014e-06
8.28841e-07
-4.3164e-06
7.02892e-06
8.39291e-07
-4.7515e-06
4.05125e-06
7.39504e-07
-5.11453e-06
1.49328e-06
5.64188e-07
-5.39042e-06
-5.1353e-07
3.95065e-07
-5.56005e-06
-2.10411e-06
2.65979e-07
-5.5796e-06
-3.41883e-06
1.71119e-07
-5.45886e-06
-4.51372e-06
1.00605e-07
-5.22194e-06
-5.41823e-06
4.78966e-08
-4.89058e-06
-6.15439e-06
6.6882e-09
-4.49219e-06
-6.74047e-06
-1.59366e-08
-4.04089e-06
-7.19031e-06
-3.15776e-08
-3.54802e-06
-7.51394e-06
-4.17358e-08
-3.02424e-06
-7.71808e-06
-4.63633e-08
-2.47992e-06
-7.80633e-06
-4.55205e-08
-1.92565e-06
-7.77928e-06
-3.90918e-08
-1.37262e-06
-7.63476e-06
-2.68011e-08
-8.32112e-07
-7.36876e-06
-8.6933e-09
-3.20251e-07
-6.97684e-06
2.0843e-08
1.51483e-07
-6.45506e-06
5.95974e-08
5.74995e-07
-5.79795e-06
1.09293e-07
9.45467e-07
-4.99023e-06
1.74649e-07
1.26434e-06
-3.99159e-06
2.60223e-07
1.54126e-06
-2.71696e-06
3.6864e-07
1.7793e-06
-1.0332e-06
4.99022e-07
1.91971e-06
1.1564e-06
6.35061e-07
1.86318e-06
3.70844e-06
7.37888e-07
1.53967e-06
6.17855e-06
7.70631e-07
9.78173e-07
7.88338e-06
7.36137e-07
4.03647e-07
8.33008e-06
6.51191e-07
5.16935e-08
7.29467e-06
4.83868e-07
3.69081e-06
2.04642e-07
-5.33238e-07
5.60537e-06
2.44396e-07
-1.6264e-06
1.04297e-05
5.50778e-07
-2.8839e-06
1.12463e-05
7.07146e-07
-4.03202e-06
1.00095e-05
7.46976e-07
-4.98114e-06
7.28497e-06
6.91288e-07
-5.7985e-06
4.32889e-06
5.3845e-07
-6.48613e-06
1.82202e-06
3.58154e-07
-6.97788e-06
-2.34953e-07
2.12786e-07
-7.26625e-06
-1.92587e-06
1.09902e-07
-7.34566e-06
-3.37612e-06
3.6576e-08
-7.2497e-06
-4.59529e-06
-1.44605e-08
-7.02088e-06
-5.6011e-06
-4.59834e-08
-6.69003e-06
-6.41651e-06
-6.87221e-08
-6.28245e-06
-7.06411e-06
-8.39286e-08
-5.8176e-06
-7.562e-06
-9.31403e-08
-5.31071e-06
-7.92354e-06
-9.72487e-08
-4.77426e-06
-8.15775e-06
-9.67281e-08
-4.21926e-06
-8.26951e-06
-9.17736e-08
-3.65644e-06
-8.25975e-06
-8.23019e-08
-3.09721e-06
-8.12601e-06
-6.79419e-08
-2.5542e-06
-7.86368e-06
-4.80463e-08
-2.04082e-06
-7.46829e-06
-2.18987e-08
-1.57121e-06
-6.93782e-06
1.31507e-08
-1.15847e-06
-6.27206e-06
6.13665e-08
-8.06623e-07
-5.46574e-06
1.23653e-07
-5.08748e-07
-4.49408e-06
2.04647e-07
-2.41781e-07
-3.29101e-06
3.07208e-07
2.48688e-08
-1.73172e-06
4.32159e-07
2.76215e-07
3.36173e-07
5.69313e-07
4.51379e-07
2.84763e-06
6.86152e-07
4.55956e-07
5.43175e-06
7.42676e-07
2.71193e-07
7.34187e-06
7.26549e-07
4.67893e-08
7.90879e-06
6.45833e-07
-4.55466e-08
6.91064e-06
4.76258e-07
3.44694e-06
1.9765e-07
-3.38221e-07
5.78062e-06
1.60884e-07
-1.27715e-06
1.09391e-05
4.26463e-07
-2.52743e-06
1.19358e-05
5.56466e-07
-3.89198e-06
1.08175e-05
5.51549e-07
-5.2415e-06
8.18321e-06
4.4723e-07
-6.46626e-06
5.27315e-06
2.78049e-07
-7.46373e-06
2.70006e-06
1.18178e-07
-8.18343e-06
4.76443e-07
7.63652e-09
-8.59125e-06
-1.45465e-06
-6.38258e-08
-8.73159e-06
-3.1287e-06
-1.07356e-07
-8.64995e-06
-4.54201e-06
-1.35084e-07
-8.40114e-06
-5.69694e-06
-1.5306e-07
-8.03176e-06
-6.62151e-06
-1.64406e-07
-7.5768e-06
-7.34812e-06
-1.70942e-07
-7.06206e-06
-7.90316e-06
-1.73561e-07
-6.50656e-06
-8.30624e-06
-1.72756e-07
-5.92464e-06
-8.57087e-06
-1.68744e-07
-5.32793e-06
-8.70462e-06
-1.6154e-07
-4.72715e-06
-8.70951e-06
-1.50943e-07
-4.13354e-06
-8.58304e-06
-1.36506e-07
-3.5598e-06
-8.31988e-06
-1.17477e-07
-3.02032e-06
-7.91495e-06
-9.27589e-08
-2.53046e-06
-7.36675e-06
-6.08732e-08
-2.10413e-06
-6.67857e-06
-1.98013e-08
-1.75221e-06
-5.85439e-06
3.67584e-08
-1.47043e-06
-4.88792e-06
1.12124e-07
-1.2276e-06
-3.74235e-06
2.0874e-07
-9.63135e-07
-2.3257e-06
3.30066e-07
-6.08226e-07
-4.90257e-07
4.72603e-07
-2.17479e-07
1.84636e-06
6.1215e-07
8.07576e-08
4.43097e-06
7.04471e-07
1.63469e-07
6.54127e-06
7.19731e-07
9.30737e-08
7.3255e-06
6.55104e-07
2.10967e-08
6.49381e-06
4.89641e-07
3.26289e-06
2.05122e-07
1.30333e-07
5.59381e-06
5.38392e-08
-1.96655e-07
1.10236e-05
2.37421e-07
-1.01961e-06
1.24202e-05
3.31973e-07
-2.23531e-06
1.17193e-05
3.06541e-07
-3.7544e-06
9.49413e-06
2.01646e-07
-5.27565e-06
6.72634e-06
6.37161e-08
-6.56984e-06
4.04892e-06
-5.72108e-08
-7.54503e-06
1.58447e-06
-1.34352e-07
-8.15243e-06
-6.78525e-07
-1.69693e-07
-8.41378e-06
-2.68289e-06
-1.85052e-07
-8.39315e-06
-4.36996e-06
-1.9302e-07
-8.16795e-06
-5.72443e-06
-1.97878e-07
-7.80271e-06
-6.78628e-06
-2.00548e-07
-7.34348e-06
-7.60622e-06
-2.01154e-07
-6.82256e-06
-8.22449e-06
-1.99582e-07
-6.26276e-06
-8.67016e-06
-1.95852e-07
-5.6802e-06
-8.96343e-06
-1.89969e-07
-5.08667e-06
-9.11624e-06
-1.8184e-07
-4.492e-06
-9.13288e-06
-1.71239e-07
-3.90584e-06
-9.01139e-06
-1.57734e-07
-3.3391e-06
-8.74591e-06
-1.40626e-07
-2.80474e-06
-8.33019e-06
-1.19042e-07
-2.31802e-06
-7.76181e-06
-9.16086e-08
-1.89579e-06
-7.04484e-06
-5.59141e-08
-1.552e-06
-6.18852e-06
-9.6489e-09
-1.29615e-06
-5.20093e-06
5.72001e-08
-1.10857e-06
-4.07329e-06
1.43491e-07
-9.32714e-07
-2.75504e-06
2.53926e-07
-6.80747e-07
-1.13206e-06
3.90919e-07
-3.06939e-07
9.31814e-07
5.42722e-07
8.58612e-08
3.37102e-06
6.6992e-07
2.8971e-07
5.61628e-06
7.24112e-07
2.41066e-07
6.6979e-06
6.78606e-07
1.0164e-07
6.11986e-06
5.14715e-07
3.14553e-06
2.19213e-07
5.14681e-07
5.12589e-06
-4.9228e-08
9.0212e-07
1.05854e-05
4.55579e-08
7.91013e-07
1.24253e-05
9.93021e-08
1.92583e-07
1.22292e-05
8.06002e-08
-9.7023e-07
1.06303e-05
1.85142e-08
-2.35048e-06
8.18886e-06
-8.84924e-08
-3.66182e-06
5.52521e-06
-1.691e-07
-4.74037e-06
2.86544e-06
-2.0502e-07
-5.49028e-06
2.78296e-07
-2.08451e-07
-5.87118e-06
-2.10107e-06
-2.01726e-07
-5.94439e-06
-4.09848e-06
-1.98587e-07
-5.79657e-06
-5.67228e-06
-2.00065e-07
-5.5004e-06
-6.87935e-06
-2.03103e-07
-5.10508e-06
-7.79589e-06
-2.05602e-07
-4.64403e-06
-8.47887e-06
-2.06616e-07
-4.14145e-06
-8.96679e-06
-2.05879e-07
-3.6151e-06
-9.28636e-06
-2.03346e-07
-3.0778e-06
-9.45453e-06
-1.9893e-07
-2.5396e-06
-9.47854e-06
-1.9245e-07
-2.00969e-06
-9.35764e-06
-1.83577e-07
-1.49811e-06
-9.08566e-06
-1.71755e-07
-1.01717e-06
-8.65492e-06
-1.56135e-07
-5.8192e-07
-8.06131e-06
-1.35697e-07
-2.10007e-07
-7.30841e-06
-1.08305e-07
7.98221e-08
-6.40775e-06
-7.0595e-08
2.74082e-07
-5.37507e-06
-2.01446e-08
3.68693e-07
-4.21983e-06
5.19371e-08
3.89692e-07
-2.92443e-06
1.48556e-07
4.03506e-07
-1.41824e-06
2.72949e-07
4.90054e-07
4.22532e-07
4.24105e-07
6.39059e-07
2.64687e-06
5.77463e-07
6.86746e-07
4.89171e-06
6.79705e-07
4.98194e-07
6.21554e-06
6.73293e-07
2.00429e-07
5.89503e-06
5.23851e-07
3.12058e-06
2.25273e-07
6.09849e-07
4.62705e-06
-1.1284e-07
1.4278e-06
9.87969e-06
-1.15889e-07
1.9419e-06
1.19867e-05
-8.04393e-08
2.07417e-06
1.21697e-05
-7.91773e-08
1.64386e-06
1.11586e-05
-1.04957e-07
8.08208e-07
9.16447e-06
-1.4603e-07
-1.60356e-07
6.66368e-06
-1.74363e-07
-1.01174e-06
3.88471e-06
-1.70718e-07
-1.59117e-06
1.00051e-06
-1.44164e-07
-1.87331e-06
-1.69653e-06
-1.22751e-07
-1.9246e-06
-3.92681e-06
-1.20231e-07
-1.82058e-06
-5.64558e-06
-1.30424e-07
-1.6116e-06
-6.94415e-06
-1.43913e-07
-1.32739e-06
-7.92385e-06
-1.56031e-07
-9.88336e-07
-8.65233e-06
-1.65427e-07
-6.12267e-07
-9.17072e-06
-1.72003e-07
-2.14717e-07
-9.50772e-06
-1.76084e-07
1.91794e-07
-9.68304e-06
-1.77906e-07
5.97343e-07
-9.70646e-06
-1.77555e-07
9.92857e-07
-9.57815e-06
-1.74939e-07
1.36828e-06
-9.29126e-06
-1.69767e-07
1.71108e-06
-8.83619e-06
-1.61506e-07
2.0061e-06
-8.20687e-06
-1.49462e-07
2.23609e-06
-7.40653e-06
-1.31898e-07
2.38279e-06
-6.44872e-06
-1.05805e-07
2.4298e-06
-5.35439e-06
-6.7787e-08
2.36868e-06
-4.14319e-06
-1.56276e-08
2.19716e-06
-2.81716e-06
6.4175e-08
1.94402e-06
-1.33701e-06
1.72041e-07
1.6673e-06
3.89861e-07
3.09978e-07
1.41099e-06
2.43807e-06
4.66346e-07
1.12126e-06
4.58581e-06
5.97357e-07
7.0852e-07
6.0013e-06
6.28434e-07
2.5839e-07
5.84331e-06
5.02308e-07
3.16143e-06
2.16576e-07
4.18946e-07
4.31611e-06
-1.09217e-07
1.15813e-06
9.301e-06
-1.62354e-07
1.83332e-06
1.14558e-05
-1.47053e-07
2.30247e-06
1.18203e-05
-1.2343e-07
2.39989e-06
1.11672e-05
-1.1035e-07
2.15212e-06
9.51658e-06
-1.08218e-07
1.81174e-06
7.09614e-06
-9.48075e-08
1.62473e-06
4.12429e-06
-5.36471e-08
1.64144e-06
9.92881e-07
-8.66708e-09
1.7665e-06
-1.82292e-06
2.53163e-09
1.91813e-06
-4.0619e-06
-1.53144e-08
2.08395e-06
-5.75925e-06
-5.1198e-08
2.26927e-06
-7.04647e-06
-8.23541e-08
2.48447e-06
-8.0311e-06
-1.07516e-07
2.73181e-06
-8.77222e-06
-1.27156e-07
3.00453e-06
-9.30102e-06
-1.42199e-07
3.29139e-06
-9.64074e-06
-1.53681e-07
3.5813e-06
-9.81047e-06
-1.62353e-07
3.86444e-06
-9.82085e-06
-1.68652e-07
4.13126e-06
-9.67214e-06
-1.72775e-07
4.37055e-06
-9.35583e-06
-1.74709e-07
4.56823e-06
-8.85965e-06
-1.74254e-07
4.70801e-06
-8.17583e-06
-1.70902e-07
4.77313e-06
-7.30849e-06
-1.63302e-07
4.74779e-06
-6.27463e-06
-1.48931e-07
4.61767e-06
-5.10034e-06
-1.2416e-07
4.37099e-06
-3.81216e-06
-8.46107e-08
4.00216e-06
-2.42242e-06
-2.61903e-08
3.51168e-06
-9.10433e-07
6.36718e-08
2.92109e-06
7.9257e-07
1.87798e-07
2.27553e-06
2.7458e-06
3.37972e-07
1.60367e-06
4.77612e-06
4.81826e-07
9.22148e-07
6.13938e-06
5.43468e-07
3.11297e-07
6.00513e-06
4.48195e-07
3.27818e-06
1.92348e-07
1.66934e-07
4.20806e-06
-5.97526e-08
5.6854e-07
9.00571e-06
-1.06969e-07
1.02785e-06
1.10905e-05
-9.50048e-08
1.41393e-06
1.14926e-05
-5.98034e-08
1.66279e-06
1.09454e-05
-2.85561e-08
1.87707e-06
9.30066e-06
7.2447e-10
2.29409e-06
6.63572e-06
4.38611e-08
2.9431e-06
3.3796e-06
9.77846e-08
3.61286e-06
2.06336e-07
1.19744e-07
4.14055e-06
-2.44667e-06
9.87717e-08
4.50144e-06
-4.47576e-06
5.49245e-08
4.75833e-06
-6.02494e-06
1.00218e-08
4.97982e-06
-7.23449e-06
-3.2726e-08
5.20029e-06
-8.18497e-06
-6.61401e-08
5.42988e-06
-8.90954e-06
-9.19535e-08
5.66555e-06
-9.42422e-06
-1.12247e-07
5.89946e-06
-9.74598e-06
-1.28506e-07
6.12308e-06
-9.89218e-06
-1.41775e-07
6.3278e-06
-9.87276e-06
-1.52735e-07
6.50368e-06
-9.68619e-06
-1.61815e-07
6.63759e-06
-9.32053e-06
-1.69274e-07
6.71295e-06
-8.75996e-06
-1.75172e-07