/*--------------------------------*- C++ -*----------------------------------*\
| =========                 |                                                 |
| \\      /  F ield         | OpenFOAM: The Open Source CFD Toolbox           |
|  \\    /   O peration     | Version:  v1906                                 |
|   \\  /    A nd           | Web:      www.OpenFOAM.com                      |
|    \\/     M anipulation  |                                                 |
\*---------------------------------------------------------------------------*/
FoamFile
{
    version     2.0;
    format      ascii;
    class       volVectorField;
    location    "41.2/oil";
    object      U;
}
// * * * * * * * * * * * * * * * * * * * * * * * * * * * * * * * * * * * * * //

dimensions      [0 1 -1 0 0 0 0];


internalField   nonuniform List<vector> 
27760
(
(-2.65659e-05 -2.7094e-05 -2.65659e-05)
(-5.24538e-05 -2.03286e-05 -1.9129e-05)
(-3.86606e-06 -5.27963e-06 -5.21658e-06)
(-6.34308e-06 -8.71356e-07 -9.30193e-07)
(-1.4662e-06 -2.89027e-07 -3.55861e-07)
(-7.45094e-07 -1.31378e-07 -2.00693e-07)
(-9.77715e-08 -3.7155e-08 -1.10449e-07)
(2.05827e-07 1.59603e-09 -7.58217e-08)
(3.73086e-07 2.24999e-08 -5.82209e-08)
(4.45916e-07 3.46955e-08 -4.83615e-08)
(4.52415e-07 4.30418e-08 -4.13867e-08)
(4.06388e-07 4.89582e-08 -3.61259e-08)
(3.18282e-07 5.32368e-08 -3.20752e-08)
(1.98609e-07 5.61391e-08 -2.92064e-08)
(5.8828e-08 5.76738e-08 -2.76517e-08)
(-8.87319e-08 5.78382e-08 -2.74885e-08)
(-2.31589e-07 5.66794e-08 -2.86695e-08)
(-3.58106e-07 5.43163e-08 -3.09975e-08)
(-4.58553e-07 5.09418e-08 -3.4131e-08)
(-5.25831e-07 4.67945e-08 -3.76201e-08)
(-5.56146e-07 4.19588e-08 -4.10382e-08)
(-5.49298e-07 3.66795e-08 -4.38416e-08)
(-5.08016e-07 3.13062e-08 -4.53023e-08)
(-4.37952e-07 2.5865e-08 -4.50963e-08)
(-3.47528e-07 2.04768e-08 -4.28092e-08)
(-2.47189e-07 1.53614e-08 -3.81385e-08)
(-1.49056e-07 1.09758e-08 -3.10979e-08)
(-6.63829e-08 8.18421e-09 -2.22697e-08)
(-1.14587e-08 8.2311e-09 -1.33949e-08)
(4.99544e-09 9.73298e-09 -4.89753e-09)
(-1.92789e-05 -5.3894e-05 -1.92788e-05)
(-6.35327e-06 -6.95261e-06 -8.63373e-06)
(-8.63304e-06 -8.3968e-06 -3.0165e-06)
(-4.07819e-06 -2.36625e-06 -8.60733e-07)
(-1.70941e-06 -1.39791e-06 -4.24826e-07)
(-6.19926e-07 -7.18324e-07 -2.05917e-07)
(1.41556e-07 -4.26797e-07 -9.91036e-08)
(5.79766e-07 -2.7025e-07 -4.78438e-08)
(8.34376e-07 -1.79592e-07 -1.82138e-08)
(9.45371e-07 -1.1929e-07 1.15119e-09)
(9.4042e-07 -7.47299e-08 1.57812e-08)
(8.37022e-07 -4.02777e-08 2.75594e-08)
(6.52202e-07 -1.40104e-08 3.68445e-08)
(4.05057e-07 4.25503e-09 4.34022e-08)
(1.17807e-07 1.41532e-08 4.69274e-08)
(-1.85014e-07 1.54887e-08 4.72432e-08)
(-4.78357e-07 8.55477e-09 4.44296e-08)
(-7.38811e-07 -5.74908e-09 3.8865e-08)
(-9.46749e-07 -2.59618e-08 3.11947e-08)
(-1.08809e-06 -5.02173e-08 2.22618e-08)
(-1.1552e-06 -7.65554e-08 1.30819e-08)
(-1.14724e-06 -1.02894e-07 4.59154e-09)
(-1.07e-06 -1.27068e-07 -2.35315e-09)
(-9.35139e-07 -1.47211e-07 -7.04212e-09)
(-7.59133e-07 -1.61175e-07 -8.94898e-09)
(-5.62213e-07 -1.66299e-07 -7.86863e-09)
(-3.6696e-07 -1.58938e-07 -4.12477e-09)
(-1.96283e-07 -1.34343e-07 1.09703e-09)
(-7.04876e-08 -8.72828e-08 5.10872e-09)
(-4.44121e-09 -2.26122e-08 4.58736e-09)
(-5.3388e-06 -5.00247e-06 -5.33875e-06)
(-8.45082e-06 -9.34045e-06 -3.0922e-06)
(-4.50205e-06 -5.14139e-06 -1.36556e-06)
(-2.77039e-06 -2.83559e-06 -6.4465e-07)
(-1.18297e-06 -1.87777e-06 -3.01574e-07)
(-2.2229e-07 -1.28347e-06 -1.33235e-07)
(4.71482e-07 -9.72135e-07 -4.55783e-08)
(9.14788e-07 -7.81382e-07 2.01731e-09)
(1.18025e-06 -6.53995e-07 3.24797e-08)
(1.29063e-06 -5.58689e-07 5.45777e-08)
(1.26458e-06 -4.82236e-07 7.24473e-08)
(1.11723e-06 -4.19673e-07 8.73191e-08)
(8.66901e-07 -3.70373e-07 9.9222e-08)
(5.36755e-07 -3.35457e-07 1.07692e-07)
(1.5497e-07 -3.16277e-07 1.12244e-07)
(-2.46809e-07 -3.13501e-07 1.12609e-07)
(-6.36023e-07 -3.26614e-07 1.08865e-07)
(-9.82171e-07 -3.5375e-07 1.01478e-07)
(-1.25968e-06 -3.9181e-07 9.12515e-08)
(-1.45019e-06 -4.36806e-07 7.92325e-08)
(-1.54387e-06 -4.84207e-07 6.65819e-08)
(-1.53982e-06 -5.29386e-07 5.44306e-08)
(-1.44557e-06 -5.67722e-07 4.37684e-08)
(-1.27609e-06 -5.94511e-07 3.53739e-08)
(-1.05222e-06 -6.04599e-07 2.97164e-08)
(-7.99008e-07 -5.91856e-07 2.68561e-08)
(-5.43649e-07 -5.48451e-07 2.62532e-08)
(-3.12486e-07 -4.64536e-07 2.63643e-08)
(-1.29713e-07 -3.28074e-07 2.41196e-08)
(-1.34368e-08 -1.31698e-07 1.36234e-08)
(-9.69303e-07 -7.18902e-06 -9.69243e-07)
(-2.28157e-06 -5.3e-06 -8.8215e-07)
(-2.00149e-06 -4.24692e-06 -6.40461e-07)
(-1.29016e-06 -3.03941e-06 -3.36507e-07)
(-3.97772e-07 -2.38102e-06 -1.57484e-07)
(2.93991e-07 -1.94128e-06 -5.53873e-08)
(8.48774e-07 -1.6721e-06 5.74872e-09)
(1.23776e-06 -1.484e-06 4.4248e-08)
(1.47597e-06 -1.34103e-06 7.22293e-08)
(1.56517e-06 -1.22232e-06 9.47786e-08)
(1.51181e-06 -1.11983e-06 1.14204e-07)
(1.32602e-06 -1.03202e-06 1.30918e-07)
(1.02496e-06 -9.60864e-07 1.44513e-07)
(6.33411e-07 -9.09635e-07 1.54262e-07)
(1.83005e-07 -8.81219e-07 1.59499e-07)
(-2.89988e-07 -8.77054e-07 1.59869e-07)
(-7.47959e-07 -8.96471e-07 1.55439e-07)
(-1.15557e-06 -9.36525e-07 1.4673e-07)
(-1.48322e-06 -9.92213e-07 1.34669e-07)
(-1.70976e-06 -1.05704e-06 1.20443e-07)
(-1.82398e-06 -1.12364e-06 1.05346e-07)
(-1.82502e-06 -1.18435e-06 9.06206e-08)
(-1.72165e-06 -1.23143e-06 7.73311e-08)
(-1.53084e-06 -1.25698e-06 6.62759e-08)
(-1.27592e-06 -1.25246e-06 5.7884e-08)
(-9.84356e-07 -1.20788e-06 5.21387e-08)
(-6.85578e-07 -1.11077e-06 4.84104e-08)
(-4.07593e-07 -9.44977e-07 4.49469e-08)
(-1.78146e-07 -6.87484e-07 3.84024e-08)
(-2.04339e-08 -3.03245e-07 2.06699e-08)
(-3.25996e-07 -2.4244e-06 -3.25921e-07)
(-1.13598e-06 -3.49889e-06 -3.98234e-07)
(-8.80109e-07 -3.53306e-06 -2.82334e-07)
(-4.21211e-07 -3.16702e-06 -1.49817e-07)
(1.79674e-07 -2.8879e-06 -5.70722e-08)
(7.18269e-07 -2.65209e-06 3.57532e-09)
(1.17753e-06 -2.47226e-06 4.52454e-08)
(1.5167e-06 -2.31995e-06 7.57926e-08)
(1.72408e-06 -2.18341e-06 1.01095e-07)
(1.78894e-06 -2.05577e-06 1.23566e-07)
(1.70913e-06 -1.93671e-06 1.44056e-07)
(1.49054e-06 -1.82982e-06 1.62253e-07)
(1.14882e-06 -1.74077e-06 1.77298e-07)
(7.09426e-07 -1.67564e-06 1.88177e-07)
(2.06271e-07 -1.63925e-06 1.9402e-07)
(-3.21052e-07 -1.634e-06 1.94369e-07)
(-8.31192e-07 -1.65916e-06 1.89278e-07)
(-1.28521e-06 -1.71077e-06 1.79328e-07)
(-1.65055e-06 -1.78187e-06 1.65583e-07)
(-1.90411e-06 -1.8634e-06 1.49375e-07)
(-2.03388e-06 -1.94503e-06 1.32154e-07)
(-2.03922e-06 -2.01599e-06 1.15281e-07)
(-1.9298e-06 -2.06536e-06 9.98897e-08)
(-1.72403e-06 -2.08201e-06 8.6799e-08)
(-1.44673e-06 -2.05395e-06 7.64263e-08)
(-1.12678e-06 -1.96722e-06 6.87098e-08)
(-7.94884e-07 -1.80423e-06 6.29717e-08)
(-4.80332e-07 -1.54085e-06 5.73115e-08)
(-2.14323e-07 -1.13872e-06 4.81279e-08)
(-2.53357e-08 -5.22952e-07 2.56249e-08)
(-1.42843e-07 -1.94289e-06 -1.42752e-07)
(-3.73077e-07 -3.07587e-06 -1.56769e-07)
(-1.89386e-07 -3.50143e-06 -1.04839e-07)
(1.52875e-07 -3.56112e-06 -4.4075e-08)
(6.06739e-07 -3.53682e-06 5.44905e-09)
(1.05141e-06 -3.46245e-06 4.26175e-08)
(1.44546e-06 -3.37086e-06 7.23929e-08)
(1.74497e-06 -3.26398e-06 9.78968e-08)
(1.92523e-06 -3.14579e-06 1.21668e-07)
(1.96806e-06 -3.02023e-06 1.44502e-07)
(1.86555e-06 -2.8939e-06 1.66279e-07)
(1.62029e-06 -2.77533e-06 1.86119e-07)
(1.24652e-06 -2.67398e-06 2.02756e-07)
(7.69899e-07 -2.59873e-06 2.14871e-07)
(2.26027e-07 -2.55643e-06 2.21374e-07)
(-3.42981e-07 -2.55047e-06 2.21695e-07)
(-8.92867e-07 -2.58017e-06 2.15871e-07)
(-1.38188e-06 -2.64062e-06 2.04558e-07)
(-1.77521e-06 -2.72312e-06 1.88987e-07)
(-2.0484e-06 -2.8162e-06 1.70683e-07)
(-2.18908e-06 -2.90683e-06 1.51291e-07)
(-2.19691e-06 -2.98131e-06 1.32311e-07)
(-2.08252e-06 -3.02578e-06 1.14959e-07)
(-1.8654e-06 -3.02607e-06 1.00102e-07)
(-1.5714e-06 -2.96686e-06 8.81569e-08)
(-1.2303e-06 -2.83012e-06 7.90321e-08)
(-8.73699e-07 -2.59252e-06 7.2008e-08)
(-5.3201e-07 -2.22035e-06 6.50625e-08)
(-2.39349e-07 -1.65612e-06 5.43548e-08)
(-2.8547e-08 -7.7674e-07 2.88891e-08)
(-4.06753e-08 -1.61756e-06 -4.05699e-08)
(-5.01769e-08 -3.025e-06 -4.09963e-08)
(1.62568e-07 -3.75731e-06 -1.53246e-08)
(4.85545e-07 -4.11071e-06 1.47725e-08)
(8.83754e-07 -4.28677e-06 4.28192e-08)
(1.28252e-06 -4.35005e-06 6.73806e-08)
(1.63925e-06 -4.34445e-06 9.04713e-08)
(1.91253e-06 -4.28933e-06 1.13216e-07)
(2.07312e-06 -4.19947e-06 1.36491e-07)
(2.09934e-06 -4.08675e-06 1.60183e-07)
(1.97996e-06 -3.96341e-06 1.83535e-07)
(1.71527e-06 -3.84219e-06 2.05232e-07)
(1.31834e-06 -3.73577e-06 2.23635e-07)
(8.14941e-07 -3.65555e-06 2.37112e-07)
(2.41827e-07 -3.61017e-06 2.44335e-07)
(-3.56954e-07 -3.60391e-06 2.44625e-07)
(-9.34974e-07 -3.63617e-06 2.38005e-07)
(-1.44832e-06 -3.70135e-06 2.25208e-07)
(-1.86057e-06 -3.7893e-06 2.07654e-07)
(-2.1464e-06 -3.88662e-06 1.87111e-07)
(-2.29336e-06 -3.97804e-06 1.65439e-07)
(-2.30171e-06 -4.04746e-06 1.44304e-07)
(-2.18297e-06 -4.07858e-06 1.25042e-07)
(-1.95752e-06 -4.05456e-06 1.08551e-07)
(-1.65198e-06 -3.95693e-06 9.5261e-08)
(-1.29665e-06 -3.7635e-06 8.50504e-08)
(-9.2371e-07 -3.44466e-06 7.71601e-08)
(-5.64336e-07 -2.95575e-06 6.94723e-08)
(-2.54651e-07 -2.21734e-06 5.79398e-08)
(-3.04259e-08 -1.05275e-06 3.08183e-08)
(-1.79809e-09 -1.6511e-06 -1.68065e-09)
(1.05927e-07 -3.29077e-06 1.06437e-08)
(3.50029e-07 -4.24027e-06 2.74859e-08)
(6.75548e-07 -4.7951e-06 4.51909e-08)
(1.05088e-06 -5.12347e-06 6.32932e-08)
(1.42512e-06 -5.30029e-06 8.16947e-08)
(1.75896e-06 -5.37431e-06 1.01476e-07)
(2.0144e-06 -5.37398e-06 1.23068e-07)
(2.16119e-06 -5.32043e-06 1.46583e-07)
(2.17624e-06 -5.2308e-06 1.71451e-07)
(2.04643e-06 -5.12117e-06 1.96521e-07)
(1.77045e-06 -5.00728e-06 2.20131e-07)
(1.3604e-06 -4.90421e-06 2.40318e-07)
(8.41874e-07 -4.8252e-06 2.55172e-07)
(2.5231e-07 -4.78012e-06 2.63117e-07)
(-3.63037e-07 -4.77393e-06 2.63374e-07)
(-9.56415e-07 -4.8061e-06 2.55954e-07)
(-1.48256e-06 -4.87066e-06 2.41671e-07)
(-1.90401e-06 -4.95652e-06 2.22151e-07)
(-2.19514e-06 -5.04898e-06 1.99396e-07)
(-2.34379e-06 -5.13129e-06 1.75491e-07)
(-2.35093e-06 -5.18566e-06 1.52292e-07)
(-2.2289e-06 -5.19393e-06 1.31256e-07)
(-1.99873e-06 -5.13708e-06 1.13309e-07)
(-1.68752e-06 -4.99384e-06 9.88824e-08)
(-1.3257e-06 -4.73783e-06 8.78216e-08)
(-9.45496e-07 -4.3327e-06 7.93426e-08)
(-5.78321e-07 -3.72194e-06 7.1255e-08)
(-2.6116e-07 -2.80239e-06 5.93868e-08)
(-3.11926e-08 -1.34073e-06 3.1631e-08)
(1.54629e-08 -1.80591e-06 1.5591e-08)
(1.76315e-07 -3.69375e-06 3.44344e-08)
(4.39672e-07 -4.8343e-06 4.76877e-08)
(7.67794e-07 -5.55121e-06 5.99609e-08)
(1.12985e-06 -6.00664e-06 7.33395e-08)
(1.48696e-06 -6.28307e-06 8.87063e-08)
(1.80353e-06 -6.43322e-06 1.06869e-07)
(2.04493e-06 -6.49097e-06 1.28036e-07)
(2.18152e-06 -6.48138e-06 1.51994e-07)
(2.18999e-06 -6.42474e-06 1.77929e-07)
(2.05631e-06 -6.33955e-06 2.04462e-07)
(1.77807e-06 -6.24336e-06 2.29687e-07)
(1.36642e-06 -6.15251e-06 2.51385e-07)
(8.46473e-07 -6.08119e-06 2.67397e-07)
(2.55639e-07 -6.03998e-06 2.75925e-07)
(-3.60614e-07 -6.03412e-06 2.7615e-07)
(-9.54278e-07 -6.06322e-06 2.68078e-07)
(-1.47975e-06 -6.12121e-06 2.52541e-07)
(-1.89943e-06 -6.1967e-06 2.31355e-07)
(-2.18793e-06 -6.27443e-06 2.06747e-07)
(-2.33363e-06 -6.33693e-06 1.81012e-07)
(-2.33828e-06 -6.36563e-06 1.56154e-07)
(-2.21489e-06 -6.34127e-06 1.33705e-07)
(-1.98483e-06 -6.24317e-06 1.14638e-07)
(-1.67514e-06 -6.04762e-06 9.93736e-08)
(-1.31582e-06 -5.72413e-06 8.77382e-08)
(-9.38529e-07 -5.22953e-06 7.8914e-08)
(-5.7413e-07 -4.49483e-06 7.06921e-08)
(-2.59249e-07 -3.39237e-06 5.89e-08)
(-3.09454e-08 -1.6312e-06 3.1425e-08)
(2.20751e-08 -2.01839e-06 2.22121e-08)
(2.02584e-07 -4.16038e-06 4.36923e-08)
(4.69376e-07 -5.47678e-06 5.53109e-08)
(7.90706e-07 -6.33285e-06 6.51201e-08)
(1.13642e-06 -6.89901e-06 7.61872e-08)
(1.47436e-06 -7.26567e-06 8.9951e-08)
(1.77247e-06 -7.48952e-06 1.07169e-07)
(1.99925e-06 -7.60811e-06 1.27983e-07)
(2.1266e-06 -7.649e-06 1.52088e-07)
(2.13184e-06 -7.63424e-06 1.78558e-07)
(2.00068e-06 -7.58331e-06 2.05887e-07)
(1.72991e-06 -7.51428e-06 2.32032e-07)
(1.32977e-06 -7.44381e-06 2.54589e-07)
(8.24266e-07 -7.38624e-06 2.71252e-07)
(2.49925e-07 -7.35217e-06 2.80091e-07)
(-3.48768e-07 -7.34686e-06 2.80283e-07)
(-9.25078e-07 -7.37004e-06 2.71827e-07)
(-1.43433e-06 -7.41577e-06 2.55545e-07)
(-1.83973e-06 -7.47288e-06 2.3338e-07)
(-2.11682e-06 -7.52642e-06 2.07684e-07)
(-2.25487e-06 -7.55903e-06 1.80881e-07)
(-2.25635e-06 -7.55217e-06 1.55097e-07)
(-2.13458e-06 -7.48622e-06 1.31912e-07)
(-1.91076e-06 -7.33956e-06 1.12305e-07)
(-1.61118e-06 -7.08627e-06 9.66697e-08)
(-1.26473e-06 -6.69214e-06 8.48143e-08)
(-9.01661e-07 -6.10714e-06 7.59343e-08)
(-5.51351e-07 -5.24989e-06 6.786e-08)
(-2.48861e-07 -3.96838e-06 5.65218e-08)
(-2.9698e-08 -1.91485e-06 3.02147e-08)
(2.35624e-08 -2.24578e-06 2.37019e-08)
(2.02861e-07 -4.63628e-06 4.52127e-08)
(4.577e-07 -6.11578e-06 5.56218e-08)
(7.59506e-07 -7.09556e-06 6.40018e-08)
(1.07987e-06 -7.76081e-06 7.36665e-08)
(1.39133e-06 -8.21051e-06 8.62473e-08)
(1.66538e-06 -8.50576e-06 1.02479e-07)
(1.8738e-06 -8.68681e-06 1.22513e-07)
(1.99076e-06 -8.78275e-06 1.46004e-07)
(1.99488e-06 -8.81633e-06 1.7202e-07)
(1.87224e-06 -8.80696e-06 1.99024e-07)
(1.61919e-06 -8.77234e-06 2.24939e-07)
(1.24484e-06 -8.72859e-06 2.47329e-07)
(7.7151e-07 -8.68942e-06 2.63856e-07)
(2.33654e-07 -8.66495e-06 2.72558e-07)
(-3.26743e-07 -8.6603e-06 2.72718e-07)
(-8.65813e-07 -8.67524e-06 2.6433e-07)
(-1.34138e-06 -8.70428e-06 2.48102e-07)
(-1.71871e-06 -8.73681e-06 2.25992e-07)
(-1.97504e-06 -8.75874e-06 2.00365e-07)
(-2.10076e-06 -8.7536e-06 1.73708e-07)
(-2.09889e-06 -8.70351e-06 1.48128e-07)
(-1.9826e-06 -8.58927e-06 1.25188e-07)
(-1.77225e-06 -8.38886e-06 1.0585e-07)
(-1.49258e-06 -8.07479e-06 9.0492e-08)
(-1.17044e-06 -7.60941e-06 7.89123e-08)
(-8.33754e-07 -6.93622e-06 7.03208e-08)
(-5.09511e-07 -5.96189e-06 6.2692e-08)
(-2.2987e-07 -4.51116e-06 5.22204e-08)
(-2.74311e-08 -2.18224e-06 2.79813e-08)
(2.21151e-08 -2.46392e-06 2.22609e-08)
(1.85827e-07 -5.08419e-06 4.19844e-08)
(4.14662e-07 -6.71067e-06 5.10804e-08)
(6.8346e-07 -7.79959e-06 5.82798e-08)
(9.6691e-07 -8.55292e-06 6.67181e-08)
(1.24182e-06 -9.07837e-06 7.80206e-08)
(1.48367e-06 -9.44121e-06 9.28579e-08)
(1.66802e-06 -9.68401e-06 1.11385e-07)
(1.77196e-06 -9.83664e-06 1.33266e-07)
(1.77622e-06 -9.92172e-06 1.57623e-07)
(1.66782e-06 -9.95789e-06 1.82989e-07)
(1.44292e-06 -9.96175e-06 2.07369e-07)
(1.10922e-06 -9.94829e-06 2.28424e-07)
(6.86603e-07 -9.93007e-06 2.43945e-07)
(2.06132e-07 -9.91651e-06 2.52047e-07)
(-2.94283e-07 -9.91258e-06 2.52168e-07)
(-7.7532e-07 -9.91808e-06 2.44293e-07)
(-1.19894e-06 -9.92782e-06 2.28977e-07)
(-1.53374e-06 -9.93208e-06 2.08115e-07)
(-1.75949e-06 -9.91792e-06 1.83918e-07)
(-1.86813e-06 -9.87032e-06 1.58771e-07)
(-1.86301e-06 -9.7728e-06 1.34681e-07)
(-1.75663e-06 -9.607e-06 1.13131e-07)
(-1.56759e-06 -9.35097e-06 9.50172e-08)
(-1.31823e-06 -8.97619e-06 8.06741e-08)
(-1.0324e-06 -8.44212e-06 6.99183e-08)
(-7.3463e-07 -7.68642e-06 6.20261e-08)
(-4.48556e-07 -6.60494e-06 5.51826e-08)
(-2.02254e-07 -5.00108e-06 4.59854e-08)
(-2.41332e-08 -2.42374e-06 2.47121e-08)
(1.87964e-08 -2.65581e-06 1.89364e-08)
(1.5601e-07 -5.47481e-06 3.54882e-08)
(3.46322e-07 -7.22692e-06 4.29544e-08)
(5.69096e-07 -8.40856e-06 4.88924e-08)
(8.03488e-07 -9.2376e-06 5.59744e-08)
(1.0309e-06 -9.82973e-06 6.56271e-08)
(1.23143e-06 -1.02539e-05 7.84419e-08)
(1.38507e-06 -1.05546e-05 9.4554e-08)
(1.47265e-06 -1.07619e-05 1.13666e-07)
(1.47773e-06 -1.08977e-05 1.35003e-07)
(1.38887e-06 -1.09796e-05 1.57268e-07)
(1.20221e-06 -1.10224e-05 1.78704e-07)
(9.23771e-07 -1.10395e-05 1.97177e-07)
(5.70078e-07 -1.10424e-05 2.10758e-07)
(1.67464e-07 -1.10398e-05 2.17778e-07)
(-2.51799e-07 -1.10365e-05 2.17847e-07)
(-6.54401e-07 -1.10324e-05 2.10961e-07)
(-1.00797e-06 -1.10226e-05 1.97496e-07)
(-1.28594e-06 -1.09979e-05 1.79122e-07)
(-1.47152e-06 -1.09469e-05 1.57796e-07)
(-1.55848e-06 -1.08562e-05 1.35653e-07)
(-1.55039e-06 -1.07111e-05 1.1447e-07)
(-1.45839e-06 -1.04943e-05 9.55744e-08)
(-1.29856e-06 -1.01847e-05 7.97207e-08)
(-1.0898e-06 -9.75297e-06 6.72127e-08)
(-8.52004e-07 -9.15635e-06 5.78798e-08)
(-6.05374e-07 -8.32771e-06 5.11089e-08)
(-3.69199e-07 -7.15353e-06 4.53776e-08)
(-1.66338e-07 -5.4188e-06 3.78613e-08)
(-1.98425e-08 -2.62988e-06 2.04485e-08)
(1.41255e-08 -2.8088e-06 1.42677e-08)
(1.16247e-07 -5.78462e-06 2.659e-08)
(2.57354e-07 -7.63538e-06 3.20936e-08)
(4.22504e-07 -8.89013e-06 3.65577e-08)
(5.96488e-07 -9.78008e-06 4.20306e-08)
(7.65963e-07 -1.04274e-05 4.96212e-08)
(9.16356e-07 -1.0904e-05 5.97744e-08)
(1.03277e-06 -1.12557e-05 7.26348e-08)
(1.10064e-06 -1.15124e-05 8.7997e-08)
(1.10703e-06 -1.1695e-05 1.05259e-07)
(1.04262e-06 -1.18194e-05 1.23372e-07)
(9.03608e-07 -1.18987e-05 1.40904e-07)
(6.93836e-07 -1.19446e-05 1.56073e-07)
(4.25515e-07 -1.19673e-05 1.67291e-07)
(1.18927e-07 -1.19749e-05 1.73094e-07)
(-2.00555e-07 -1.19722e-05 1.73106e-07)
(-5.06611e-07 -1.19591e-05 1.6733e-07)
(-7.73815e-07 -1.19307e-05 1.56131e-07)
(-9.81774e-07 -1.18787e-05 1.40979e-07)
(-1.1182e-06 -1.17928e-05 1.23491e-07)
(-1.17907e-06 -1.16616e-05 1.05466e-07)
(-1.16809e-06 -1.1472e-05 8.83112e-08)
(-1.09451e-06 -1.12085e-05 7.30898e-08)
(-9.71105e-07 -1.08508e-05 6.03983e-08)
(-8.12387e-07 -1.03696e-05 5.0443e-08)
(-6.33352e-07 -9.72028e-06 4.30711e-08)
(-4.48941e-07 -8.83203e-06 3.78187e-08)
(-2.73237e-07 -7.58395e-06 3.35225e-08)
(-1.22911e-07 -5.7464e-06 2.80386e-08)
(-1.46409e-08 -2.79179e-06 1.52673e-08)
(8.46608e-09 -2.91302e-06 8.59955e-09)
(6.88695e-08 -5.99458e-06 1.58705e-08)
(1.52179e-07 -7.91194e-06 1.90963e-08)
(2.50107e-07 -9.21706e-06 2.18625e-08)
(3.541e-07 -1.01505e-05 2.54347e-08)
(4.5661e-07 -1.08389e-05 3.05163e-08)
(5.4909e-07 -1.13565e-05 3.74308e-08)
(6.22474e-07 -1.17494e-05 4.62948e-08)
(6.67493e-07 -1.20472e-05 5.69865e-08)
(6.75415e-07 -1.22699e-05 6.91494e-08)
(6.39402e-07 -1.24315e-05 8.20776e-08)
(5.558e-07 -1.25434e-05 9.48037e-08)
(4.25996e-07 -1.26154e-05 1.06012e-07)
(2.57061e-07 -1.26563e-05 1.14478e-07)
(6.19663e-08 -1.26733e-05 1.18925e-07)
(-1.41881e-07 -1.2671e-05 1.18871e-07)
(-3.35975e-07 -1.26493e-05 1.14335e-07)
(-5.02938e-07 -1.26037e-05 1.05795e-07)
(-6.29771e-07 -1.25267e-05 9.4549e-08)
(-7.09456e-07 -1.24096e-05 8.18159e-08)
(-7.40669e-07 -1.22426e-05 6.89194e-08)
(-7.27087e-07 -1.20148e-05 5.68373e-08)
(-6.75525e-07 -1.17122e-05 4.62639e-08)
(-5.94752e-07 -1.13153e-05 3.75468e-08)
(-4.94098e-07 -1.07951e-05 3.07967e-08)
(-3.82821e-07 -1.01061e-05 2.58869e-08)
(-2.6987e-07 -9.1748e-06 2.24897e-08)
(-1.63467e-07 -7.87545e-06 1.98936e-08)
(-7.32218e-08 -5.96815e-06 1.67686e-08)
(-8.66613e-09 -2.90169e-06 9.30986e-09)
(2.12576e-09 -2.96122e-06 2.24954e-09)
(1.61404e-08 -6.09047e-06 3.89682e-09)
(3.54992e-08 -8.03834e-06 4.61892e-09)
(5.92618e-08 -9.36824e-06 5.49586e-09)
(8.62112e-08 -1.03254e-05 6.94208e-09)
(1.1501e-07 -1.10388e-05 9.20081e-09)
(1.43666e-07 -1.15833e-05 1.24183e-08)
(1.6944e-07 -1.20053e-05 1.66964e-08)
(1.88864e-07 -1.23338e-05 2.20672e-08)
(1.97996e-07 -1.25877e-05 2.84716e-08)
(1.92932e-07 -1.27797e-05 3.56287e-08)
(1.70416e-07 -1.29193e-05 4.30653e-08)
(1.29025e-07 -1.30144e-05 4.9979e-08)
(7.01026e-08 -1.3072e-05 5.55239e-08)
(-1.51053e-09 -1.30979e-05 5.85966e-08)
(-7.73293e-08 -1.30958e-05 5.84915e-08)
(-1.47541e-07 -1.30659e-05 5.52457e-08)
(-2.03764e-07 -1.30041e-05 4.95339e-08)
(-2.41259e-07 -1.29048e-05 4.25174e-08)
(-2.58886e-07 -1.2761e-05 3.5041e-08)
(-2.58158e-07 -1.25649e-05 2.7908e-08)
(-2.42526e-07 -1.23072e-05 2.15709e-08)
(-2.16006e-07 -1.19753e-05 1.62988e-08)
(-1.82659e-07 -1.15507e-05 1.21503e-08)
(-1.46073e-07 -1.10048e-05 9.08223e-09)
(-1.09223e-07 -1.02918e-05 6.98543e-09)
(-7.44707e-08 -9.33693e-06 5.71335e-09)
(-4.37255e-08 -8.01193e-06 5.01244e-09)
(-1.90011e-08 -6.07182e-06 4.4553e-09)
(-2.13079e-09 -2.95352e-06 2.78729e-09)
(-4.6066e-09 -2.94871e-06 -4.49625e-09)
(-3.95474e-08 -6.0631e-06 -8.79818e-09)
(-8.75153e-08 -8.0027e-06 -1.07299e-08)
(-1.41771e-07 -9.32983e-06 -1.18668e-08)
(-1.95904e-07 -1.02892e-05 -1.27363e-08)
(-2.44823e-07 -1.10093e-05 -1.35957e-08)
(-2.83785e-07 -1.15647e-05 -1.44787e-08)
(-3.08925e-07 -1.20013e-05 -1.5324e-08)
(-3.17495e-07 -1.23474e-05 -1.59863e-08)
(-3.08295e-07 -1.26212e-05 -1.62692e-08)
(-2.81914e-07 -1.28343e-05 -1.59847e-08)
(-2.40831e-07 -1.29946e-05 -1.50027e-08)
(-1.88935e-07 -1.31082e-05 -1.34855e-08)
(-1.30691e-07 -1.318e-05 -1.17894e-08)
(-6.99221e-08 -1.32136e-05 -1.0621e-08)
(-8.1893e-09 -1.32117e-05 -1.07772e-08)
(5.42711e-08 -1.31743e-05 -1.21928e-08)
(1.15771e-07 -1.30987e-05 -1.41168e-08)
(1.72301e-07 -1.29814e-05 -1.57682e-08)
(2.19072e-07 -1.28176e-05 -1.68243e-08)
(2.51967e-07 -1.26013e-05 -1.7102e-08)
(2.68228e-07 -1.23247e-05 -1.67664e-08)
(2.67101e-07 -1.19762e-05 -1.59994e-08)
(2.49614e-07 -1.15382e-05 -1.50239e-08)
(2.18331e-07 -1.09823e-05 -1.39986e-08)
(1.76891e-07 -1.0263e-05 -1.29804e-08)
(1.29703e-07 -9.30599e-06 -1.19336e-08)
(8.13677e-08 -7.98302e-06 -1.06021e-08)
(3.76791e-08 -6.04956e-06 -8.45665e-09)
(4.7256e-09 -2.94332e-06 -4.06072e-09)
(-1.14134e-08 -2.87354e-06 -1.1309e-08)
(-9.56247e-08 -5.90879e-06 -2.16106e-08)
(-2.11232e-07 -7.80026e-06 -2.62152e-08)
(-3.43821e-07 -9.09626e-06 -2.93973e-08)
(-4.79466e-07 -1.00353e-05 -3.26445e-08)
(-6.06695e-07 -1.07427e-05 -3.67273e-08)
(-7.1414e-07 -1.12911e-05 -4.1921e-08)
(-7.91392e-07 -1.17251e-05 -4.82114e-08)
(-8.29455e-07 -1.20727e-05 -5.5374e-08)
(-8.21822e-07 -1.23512e-05 -6.2968e-08)
(-7.65343e-07 -1.25716e-05 -7.03789e-08)
(-6.61216e-07 -1.27409e-05 -7.6905e-08)
(-5.15343e-07 -1.2864e-05 -8.19574e-08)
(-3.37561e-07 -1.29437e-05 -8.51831e-08)
(-1.40558e-07 -1.29821e-05 -8.66012e-08)
(6.31735e-08 -1.29803e-05 -8.67735e-08)
(2.62088e-07 -1.29382e-05 -8.56445e-08)
(4.435e-07 -1.28547e-05 -8.26809e-08)
(5.94497e-07 -1.27284e-05 -7.7802e-08)
(7.04815e-07 -1.2556e-05 -7.13764e-08)
(7.68283e-07 -1.2333e-05 -6.39592e-08)
(7.83367e-07 -1.20524e-05 -5.63195e-08)
(7.52965e-07 -1.17034e-05 -4.90545e-08)
(6.83381e-07 -1.12686e-05 -4.26407e-08)
(5.83402e-07 -1.07203e-05 -3.73137e-08)
(4.63215e-07 -1.00142e-05 -3.30719e-08)
(3.33878e-07 -9.07743e-06 -2.96449e-08)
(2.0646e-07 -7.78506e-06 -2.62419e-08)
(9.4394e-08 -5.89855e-06 -2.13998e-08)
(1.16046e-08 -2.86959e-06 -1.09365e-08)
(-1.79559e-08 -2.73679e-06 -1.78709e-08)
(-1.49383e-07 -5.62996e-06 -3.39424e-08)
(-3.29713e-07 -7.43427e-06 -4.11153e-08)
(-5.37249e-07 -8.67124e-06 -4.62699e-08)
(-7.50898e-07 -9.56751e-06 -5.18147e-08)
(-9.53254e-07 -1.02424e-05 -5.90465e-08)
(-1.12666e-06 -1.07651e-05 -6.84377e-08)
(-1.25448e-06 -1.11786e-05 -8.00957e-08)
(-1.3218e-06 -1.15094e-05 -9.3769e-08)
(-1.31686e-06 -1.17746e-05 -1.08813e-07)
(-1.23278e-06 -1.1985e-05 -1.24278e-07)
(-1.06918e-06 -1.21475e-05 -1.3886e-07)
(-8.33294e-07 -1.22664e-05 -1.5118e-07)
(-5.39793e-07 -1.23443e-05 -1.60033e-07)
(-2.0971e-07 -1.23821e-05 -1.6452e-07)
(1.33266e-07 -1.23802e-05 -1.64694e-07)
(4.6538e-07 -1.23386e-05 -1.60516e-07)
(7.62701e-07 -1.22573e-05 -1.51936e-07)
(1.00397e-06 -1.21353e-05 -1.398e-07)
(1.17409e-06 -1.19701e-05 -1.25324e-07)
(1.26542e-06 -1.17576e-05 -1.0988e-07)
(1.278e-06 -1.14908e-05 -9.4793e-08)
(1.21845e-06 -1.11591e-05 -8.104e-08)
(1.09825e-06 -1.07455e-05 -6.9259e-08)
(9.32134e-07 -1.02232e-05 -5.97331e-08)
(7.36492e-07 -9.54979e-06 -5.23568e-08)
(5.28699e-07 -8.65577e-06 -4.66253e-08)
(3.25831e-07 -7.42205e-06 -4.12449e-08)
(1.48564e-07 -5.62186e-06 -3.38101e-08)
(1.81974e-08 -2.73373e-06 -1.75318e-08)
(-2.39364e-08 -2.54246e-06 -2.38601e-08)
(-1.98217e-07 -5.23489e-06 -4.51775e-08)
(-4.3712e-07 -6.91589e-06 -5.46665e-08)
(-7.12452e-07 -8.06796e-06 -6.15939e-08)
(-9.96682e-07 -8.90083e-06 -6.91768e-08)
(-1.26704e-06 -9.5249e-06 -7.91649e-08)
(-1.50019e-06 -1.00047e-05 -9.22374e-08)
(-1.67388e-06 -1.03803e-05 -1.08604e-07)
(-1.76781e-06 -1.0677e-05 -1.27986e-07)
(-1.76559e-06 -1.09115e-05 -1.49595e-07)
(-1.65684e-06 -1.10947e-05 -1.72143e-07)
(-1.43962e-06 -1.12341e-05 -1.93834e-07)
(-1.12226e-06 -1.13348e-05 -2.12606e-07)
(-7.2371e-07 -1.14001e-05 -2.26482e-07)
(-2.72474e-07 -1.14315e-05 -2.33755e-07)
(1.97365e-07 -1.14296e-05 -2.33921e-07)
(6.50638e-07 -1.13945e-05 -2.26949e-07)
(1.05309e-06 -1.13258e-05 -2.13331e-07)
(1.37589e-06 -1.12222e-05 -1.94747e-07)
(1.5997e-06 -1.10803e-05 -1.73159e-07)
(1.71578e-06 -1.08953e-05 -1.50648e-07)
(1.7257e-06 -1.06597e-05 -1.29008e-07)
(1.63953e-06 -1.03625e-05 -1.09559e-07)
(1.47338e-06 -9.98711e-06 -9.3086e-08)
(1.24735e-06 -9.5081e-06 -7.98867e-08)
(9.83462e-07 -8.88553e-06 -6.97547e-08)
(7.04792e-07 -8.05487e-06 -6.1993e-08)
(4.33788e-07 -6.90571e-06 -5.48428e-08)
(1.97629e-07 -5.22823e-06 -4.50818e-08)
(2.41977e-08 -2.53997e-06 -2.35412e-08)
(-2.90386e-08 -2.2974e-06 -2.89797e-08)
(-2.39709e-07 -4.73772e-06 -5.47857e-08)
(-5.28224e-07 -6.26391e-06 -6.62318e-08)
(-8.6095e-07 -7.30879e-06 -7.4601e-08)
(-1.2049e-06 -8.0607e-06 -8.38003e-08)
(-1.53272e-06 -8.6189e-06 -9.59624e-08)
(-1.81624e-06 -9.04177e-06 -1.11937e-07)
(-2.02843e-06 -9.36596e-06 -1.31979e-07)
(-2.14447e-06 -9.61527e-06 -1.55764e-07)
(-2.14403e-06 -9.80582e-06 -1.82395e-07)
(-2.01397e-06 -9.949e-06 -2.10326e-07)
(-1.75119e-06 -1.00535e-05 -2.37415e-07)
(-1.36503e-06 -1.01257e-05 -2.61057e-07)
(-8.78023e-07 -1.01707e-05 -2.78709e-07)
(-3.2492e-07 -1.01916e-05 -2.88083e-07)
(2.51599e-07 -1.01898e-05 -2.88229e-07)
(8.06694e-07 -1.01653e-05 -2.79132e-07)
(1.29752e-06 -1.01171e-05 -2.61721e-07)
(1.68904e-06 -1.0042e-05 -2.38248e-07)
(1.95834e-06 -9.93537e-06 -2.11262e-07)
(2.09566e-06 -9.79067e-06 -1.83381e-07)
(2.1037e-06 -9.59926e-06 -1.56735e-07)
(1.99531e-06 -9.3497e-06 -1.32888e-07)
(1.79055e-06 -9.02592e-06 -1.12767e-07)
(1.51398e-06 -8.60401e-06 -9.66793e-08)
(1.19244e-06 -8.04738e-06 -8.43758e-08)
(8.53825e-07 -7.29753e-06 -7.50093e-08)
(5.25197e-07 -6.25525e-06 -6.64213e-08)
(2.39241e-07 -4.73212e-06 -5.47e-08)
(2.93076e-08 -2.29533e-06 -2.86672e-08)
(-3.30266e-08 -2.011e-06 -3.2978e-08)
(-2.71861e-07 -4.15752e-06 -6.22925e-08)
(-5.98653e-07 -5.50361e-06 -7.52296e-08)
(-9.75712e-07 -6.42374e-06 -8.4646e-08)
(-1.3659e-06 -7.08123e-06 -9.49652e-08)
(-1.73824e-06 -7.56263e-06 -1.0859e-07)
(-2.06063e-06 -7.9193e-06 -1.26463e-07)
(-2.30221e-06 -8.18397e-06 -1.48869e-07)
(-2.43464e-06 -8.3785e-06 -1.75426e-07)
(-2.43464e-06 -8.51829e-06 -2.05135e-07)
(-2.28723e-06 -8.61531e-06 -2.36289e-07)
(-1.98868e-06 -8.67934e-06 -2.66511e-07)
(-1.54935e-06 -8.71867e-06 -2.92925e-07)
(-9.94726e-07 -8.74027e-06 -3.12687e-07)
(-3.64224e-07 -8.74901e-06 -3.23239e-07)
(2.9316e-07 -8.74729e-06 -3.23362e-07)
(9.25574e-07 -8.73524e-06 -3.13046e-07)
(1.4839e-06 -8.71062e-06 -2.93493e-07)
(1.92838e-06 -8.66869e-06 -2.67238e-07)
(2.23324e-06 -8.60271e-06 -2.37119e-07)
(2.38769e-06 -8.50435e-06 -2.06012e-07)
(2.3951e-06 -8.36388e-06 -1.76308e-07)
(2.27014e-06 -8.16934e-06 -1.49707e-07)
(2.0358e-06 -7.90515e-06 -1.27237e-07)
(1.72018e-06 -7.54951e-06 -1.0927e-07)
(1.35393e-06 -7.06964e-06 -9.55249e-08)
(9.68902e-07 -6.41409e-06 -8.50446e-08)
(5.95776e-07 -5.49629e-06 -7.54151e-08)
(2.71425e-07 -4.15284e-06 -6.2208e-08)
(3.32862e-08 -2.00928e-06 -3.26722e-08)
(-3.56823e-08 -1.69456e-06 -3.56453e-08)
(-2.92964e-07 -3.51735e-06 -6.72976e-08)
(-6.44917e-07 -4.66533e-06 -8.12008e-08)
(-1.05151e-06 -5.4485e-06 -9.1223e-08)
(-1.47289e-06 -6.00292e-06 -1.02126e-07)
(-1.87549e-06 -6.40132e-06 -1.16487e-07)
(-2.22432e-06 -6.68754e-06 -1.35277e-07)
(-2.48564e-06 -6.8901e-06 -1.58764e-07)
(-2.62861e-06 -7.02865e-06 -1.86533e-07)
(-2.62815e-06 -7.11784e-06 -2.17493e-07)
(-2.46817e-06 -7.16967e-06 -2.49838e-07)
(-2.14492e-06 -7.19479e-06 -2.81121e-07)
(-1.66982e-06 -7.20292e-06 -3.08415e-07)
(-1.07045e-06 -7.20248e-06 -3.28791e-07)
(-3.89238e-07 -7.19982e-06 -3.39679e-07)
(3.20979e-07 -7.19827e-06 -3.39785e-07)
(1.00399e-06 -7.19791e-06 -3.29106e-07)
(1.60683e-06 -7.19565e-06 -3.08905e-07)
(2.08683e-06 -7.18525e-06 -2.8175e-07)
(2.41609e-06 -7.15842e-06 -2.50565e-07)
(2.5828e-06 -7.10547e-06 -2.18269e-07)
(2.59041e-06 -7.01576e-06 -1.8732e-07)
(2.45464e-06 -6.87725e-06 -1.59529e-07)
(2.2003e-06 -6.67522e-06 -1.35988e-07)
(1.85803e-06 -6.39001e-06 -1.17118e-07)
(1.4613e-06 -5.99303e-06 -1.0265e-07)
(1.0449e-06 -5.44038e-06 -9.159e-08)
(6.42128e-07 -4.65926e-06 -8.13699e-08)
(2.92529e-07 -3.51352e-06 -6.72126e-08)
(3.59269e-08 -1.69319e-06 -3.5348e-08)
(-3.67967e-08 -1.36116e-06 -3.67699e-08)
(-3.01569e-07 -2.84354e-06 -6.93979e-08)
(-6.64239e-07 -3.78346e-06 -8.36312e-08)
(-1.08444e-06 -4.42307e-06 -9.3762e-08)
(-1.52128e-06 -4.87025e-06 -1.04705e-07)
(-1.9396e-06 -5.18374e-06 -1.19097e-07)
(-2.3025e-06 -5.3998e-06 -1.37921e-07)
(-2.57435e-06 -5.54259e-06 -1.61408e-07)
(-2.7228e-06 -5.62934e-06 -1.89078e-07)
(-2.72178e-06 -5.67346e-06 -2.19782e-07)
(-2.55496e-06 -5.68656e-06 -2.51705e-07)
(-2.21895e-06 -5.67945e-06 -2.82433e-07)
(-1.72607e-06 -5.66242e-06 -3.09124e-07)
(-1.10511e-06 -5.64465e-06 -3.28975e-07)
(-3.99928e-07 -5.63319e-06 -3.3958e-07)
(3.35042e-07 -5.63186e-06 -3.39669e-07)
(1.04189e-06 -5.64075e-06 -3.2924e-07)
(1.6661e-06 -5.65622e-06 -3.09541e-07)
(2.16357e-06 -5.67129e-06 -2.82973e-07)
(2.50522e-06 -5.67694e-06 -2.52334e-07)
(2.6784e-06 -5.66292e-06 -2.20461e-07)
(2.68618e-06 -5.61838e-06 -1.89777e-07)
(2.54459e-06 -5.53171e-06 -1.62094e-07)
(2.27943e-06 -5.38946e-06 -1.38565e-07)
(1.92281e-06 -5.17431e-06 -1.19674e-07)
(1.51012e-06 -4.86209e-06 -1.05193e-07)
(1.07805e-06 -4.41645e-06 -9.41082e-08)
(6.61505e-07 -3.7786e-06 -8.3789e-08)
(3.01108e-07 -2.84058e-06 -6.93153e-08)
(3.70184e-08 -1.36017e-06 -3.64884e-08)
(-3.61042e-08 -1.02563e-06 -3.6085e-08)
(-2.96073e-07 -2.16542e-06 -6.80627e-08)
(-6.53972e-07 -2.89557e-06 -8.18388e-08)
(-1.0713e-06 -3.39055e-06 -9.14615e-08)
(-1.5078e-06 -3.73066e-06 -1.01834e-07)
(-1.92767e-06 -3.96115e-06 -1.15571e-07)
(-2.29295e-06 -4.11097e-06 -1.33648e-07)
(-2.567e-06 -4.19991e-06 -1.56238e-07)
(-2.71685e-06 -4.24257e-06 -1.82813e-07)
(-2.71629e-06 -4.25067e-06 -2.12196e-07)
(-2.54925e-06 -4.23476e-06 -2.42604e-07)
(-2.21294e-06 -4.20499e-06 -2.71726e-07)
(-1.72026e-06 -4.17127e-06 -2.96911e-07)
(-1.10032e-06 -4.14253e-06 -3.15562e-07)
(-3.96875e-07 -4.12572e-06 -3.25509e-07)