/*--------------------------------*- C++ -*----------------------------------*\
| =========                 |                                                 |
| \\      /  F ield         | OpenFOAM: The Open Source CFD Toolbox           |
|  \\    /   O peration     | Version:  v1912                                 |
|   \\  /    A nd           | Website:  www.openfoam.com                      |
|    \\/     M anipulation  |                                                 |
\*---------------------------------------------------------------------------*/
FoamFile
{
    version     2.0;
    format      ascii;
    class       volScalarField;
    location    "182/oil";
    object      heatTransferCoeff(T);
}
// * * * * * * * * * * * * * * * * * * * * * * * * * * * * * * * * * * * * * //

dimensions      [1 0 -3 -1 0 0 0];


internalField   uniform 0;

boundaryField
{
    maxY
    {
        type            calculated;
        value           uniform 0;
    }
    minX
    {
        type            calculated;
        value           uniform 0;
    }
    maxX
    {
        type            calculated;
        value           uniform 0;
    }
    minY
    {
        type            calculated;
        value           uniform 0;
    }
    minZ
    {
        type            calculated;
        value           uniform 0;
    }
    maxZ
    {
        type            calculated;
        value           uniform 0;
    }
    oil_to_sphere
    {
        type            calculated;
        value           nonuniform List<scalar> 
1536
(
-163.553
-172.46
-157.625
-155.294
-128.899
-134.484
-132.635
-90.3621
-84.3927
-180.095
-127.274
-182.214
-185.832
-182.276
-154.234
-127.992
-91.9556
-85.1223
16.5056
-185.399
-180.168
-135.964
-133.354
-129.355
-137.916
-137.844
-137.895
-129.834
-172.859
-170.271
-157.848
-117.412
-105.369
-138.637
-128.55
-127.501
-120.8
-146.032
-135.708
-145.04
-135.713
-127.541
-168.172
-182.624
-171.499
-181.18
-134.722
-135.01
-151.456
-138.493
-135.769
-136.058
-131.99
-134.47
-111.227
-102.566
-133.747
-133.231
-85.8615
-43.2595
-52.7522
-41.9302
-50.8109
-185.201
-186.393
-181.877
-172.383
-181.696
-162.922
-170.775
-139.161
-134.219
-157.467
-136.283
-128.635
-105.971
-100.763
-97.0047
-128.261
-85.1585
-41.5574
-50.912
-30.872
-29.8097
-57.5632
-52.4143
-32.6993
-91.349
-85.0109
-43.0104
-51.7752
16.6845
16.4435
-186.089
-186.587
-182.85
-174.762
-178.303
-182.323
-161.963
-173.2
-138.438
-162.538
-158.188
-135.261
-136.235
-129.543
-97.8685
-126.663
-106.849
-100.002
-105.006
-42.9674
-53.0708
-31.7126
-33.2732
-31.4942
-56.8922
-52.3799
-58.5294
-85.6731
-51.9269
16.4986
-181.873
-162.059
-170.61
-163.088
-169.733
-135.587
-136.171
-137.506
-135.563
-136.131
-134.563
-137.111
-137.741
-134.471
-102.639
-132.346
-131.83
-43.3507
-52.3601
-91.5076
-85.75
-51.0754
-84.0039
-152.292
-152.227
-132.113
-140.191
-157.447
-151.973
-134.485
-137.219
-136.18
-120.83
-111.642
-113.39
-152.735
-149.69
-153.043
-165.152
-143.505
-137.222
-127.65
-121.209
-134.533
-123.908
-112.334
-114.12
-166.805
-147.394
-170.893
-145.056
-115.384
-99.7198
-153.342
-154.921
-160.775
-150.962
-143.07
-136.652
-121.471
-135.997
-116.908
-114.431
-113.771
-175.616
-150.445
-157.854
-165.893
-153.525
-163.857
-156.748
-117.885
-118.813
-123.192
-124.463
-116.22
-119.987
-123.406
-128.549
-85.0122
-81.5022
-77.8903
-87.4315
-92.1452
-90.1729
-97.3859
-94.9282
-81.9846
-74.8506
-71.0299
-177.315
-190.318
-186.561
-178.272
-178.253
-179.662
-177.745
-176.09
-183.129
-172.345
-176.745
-177.119
-154.149
-153.766
-171.444
-161.504
-140.484
-121.949
-117.127
-134.321
-118.463
-82.6399
-86.3006
-78.9415
-87.7907
-91.322
-79.8673
-74.0689
-23.4514
-15.7689
-184.004
-177.634
-180.429
-176.736
-181.75
-190.86
-182.371
-176.509
-149.465
-138.231
-149.857
-152.022
-119.576
-128.775
-83.0132
-75.6109
-92.7071
-101.341
-96.7279
-72.0801
-15.1364
-22.4061
-0.311453
-0.269419
-22.9186
-180.173
-175.957
-175.046
-172.538
-176.732
-177.472
-174.254
-180.865
-193.457
-184.749
-175.989
-163.762
-152.422
-153.012
-160.264
-172.717
-162.16
-153.013
-152.771
-121.057
-122.34
-128.845
-130.596
-123.429
-128.461
-79.081
-75.0581
-80.8907
-89.4665
-86.1654
-91.6904
-90.5477
-90.7217
-78.3261
-73.0759
-87.9437
-81.1091
-140.127
-131.861
-134.132
-121.107
-116.918
-114.65
-109.936
-168.249
-160.734
-171.831
-166.457
-160.721
-167.438
-169.749
-172.968
-178.534
-169.366
-171.507
-169.005
-189.347
-180.333
-177.181
-171.598
-178.482
-184.22
-177.394
-164.311
-166.692
-170.687
-160.838
-170.648
-173.348
-178.424
-177.365
-182.71
-180.63
-178.891
-174.226
-174.114
-172.758
-174.455
-167.911
-168.393
-162.113
-167.453
-158.946
-161.739
-173.169
-152.271
-167.868
-153.983
-156.719
-150.597
-140.593
-166.848
-152.807
-151.831
-159.939
-140.99
-147.945
-152.952
-139.308
-144.778
-135.123
-154.45
-166.627
-153.102
-154.27
-156.682
-142.986
-148.774
-147.315
-121.574
-125.944
-120.301
-112.67
-107.747
-113.179
-102.521
-98.6344
-122.586
-126.372
-121.823
-114.574
-109.17
-117.019
-102.347
-98.6344
-95.6158
-118.065
-98.0409
-114.195
-109.829
-114.737
-102.104
-122.087
-127.381
-121.354
-126.411
-100.543
-96.0687
-114.295
-109.642
-115.971
-100.813
-97.2481
-89.5749
-85.3839
-89.0985
-85.0345
-78.6057
-78.9112
-73.6286
-83.6523
-75.892
-92.8018
-72.4063
-74.575
-70.3925
-64.8052
-72.3462
-69.4447
-60.768
-57.5097
-48.8287
-86.5365
-82.8867
-78.164
-88.0464
-75.0604
-78.8625
-60.8683
-56.511
-54.5176
-48.9142
-70.7285
-65.7004
-72.615
-69.6812
-68.042
-88.9846
-84.8764
-89.7841
-90.2422
-78.8173
-73.0458
-85.8599
-80.5305
-206.799
-197.01
-188.306
-204.372
-189.355
-191.823
-197.266
-183.47
-186.194
-189.891
-188.899
-176.896
-184.076
-174.323
-173.233
-170.99
-170.498
-174.517
-172.895
-178.344
-183.617
-166.459
-179.601
-168.55
-174.294
-169.476
-180.221
-171.575
-179.549
-175.776
-181.602
-176.657
-166.937
-172.742
-162.262
-174.845
-151.044
-157.349
-155.013
-136.013
-144.278
-143.239
-154.162
-136.007
-151.783
-135.094
-144.038
-137.513
-129.444
-134.291
-122.1
-118.766
-110.058
-115.142
-112.754
-107.259
-99.7925
-116.176
-99.0798
-127.686
-120.677
-111.751
-74.9967
-69.8482
-65.6796
-73.6513
-70.2568
-82.341
-75.1347
-92.4949
-71.571
-60.15
-58.6291
-49.7635
-37.4246
-28.7383
-38.1414
-29.1324
-45.2445
-52.8423
-44.931
-35.8725
-37.9513
-81.5131
-85.8244
-77.7954
-87.3722
-71.9759
-65.9988
-73.6871
-68.5754
-81.4587
-74.4464
-89.4772
-96.1078
-71.8708
-60.3708
-68.4821
-57.4979
-48.9117
-65.2812
-22.6762
-15.6113
-24.3836
-15.6824
-0.886722
-0.650053
-0.690513
-0.532305
-14.4307
-200.96
-186.405
-192.057
-190.039
-186.997
-201.231
-192.566
-189.605
-185.661
-177.384
-188.724
-190.85
-194.913
-178.181
-178.515
-184.016
-184.651
-166.507
-176.769
-167.045
-180.423
-174.69
-173.943
-170.934
-176.277
-170.558
-175.622
-181.367
-171.797
-165.771
-162.952
-175.236
-180.27
-166.461
-178.367
-168.373
-161.954
-182.281
-174.267
-173.233
-175.884
-169.148
-169.037
-173.805
-179.989
-169.824
-162.76
-154.521
-151.952
-144.773
-137.264
-146.118
-163.16
-156.957
-154.73
-147.719
-146.731
-141.728
-143.108
-144.026
-136.112
-136.204
-121.491
-133.648
-116.999
-123.986
-114.907
-110.307
-138.963
-128.798
-102.163
-118.311
-98.8096
-117.376
-106.781
-99.4254
-112.837
-114.55
-113.481
-112.841
-110.708
-135.435
-119.645
-60.1752
-59.1365
-55.1621
-50.0501
-85.9734
-81.6606
-78.1628
-87.7507
-75.1643
-79.0787
-66.4881
-73.7256
-73.3572
-69.4098
-67.4095
-45.9578
-45.9675
-53.7177
-36.7649
-37.6188
-28.6215
-38.2417
-38.4058
-28.3507
-52.0165
-44.3138
-44.8745
-53.1867
-36.1621
-81.6372
-74.7634
-91.3471
-95.7867
-71.9852
-60.7554
-68.7792
-56.6118
-54.9197
-65.6932
-79.6623
-73.5622
-85.262
-82.5723
-78.1145
-87.8087
-90.9618
-65.6624
-70.6524
-73.2962
-68.9831
-67.8895
-0.673848
-0.79844
-23.9142
-23.0941
-15.9211
-14.3927
-32.0298
-22.8716
-14.8127
-160.35
-170.243
-168.993
-159.808
-168.772
-160.275
-159.784
-179.626
-176.064
-184.107
-176.36
-167.035
-173.489
-170.091
-178.388
-171.636
-174.95
-167.315
-167.393
-180.141
-174.327
-171.406
-172.344
-169.197
-168.997
-172.691
-163.182
-161.904
-167.41
-171.957
-166.919
-175.501
-170
-184.417
-167.807
-163.363
-165.867
-167.41
-162.017
-160.01
-173.517
-153.116
-144.217
-144.557
-150.018
-136.925
-165.455
-152.709
-152.112
-157.806
-148.213
-148.443
-143.16
-160.977
-150.96
-152.65
-157.582
-141.583
-143.06
-151.567
-149.702
-136.872
-156.114
-165.243
-155.153
-156.863
-149.104
-148.63
-144.287
-144.135
-136.133
-113.909
-109.298
-115.209
-102.177
-100.333
-96.5285
-125.23
-118.595
-126.388
-121.936
-109.333
-114.376
-114.083
-100.473
-97.0379
-98.0776
-122.116
-121.747
-127.383
-121.164
-127.175
-99.8461
-102.125
-113.474
-108.515
-114.167
-100.011
-96.878
-128.979
-120.612
-120.875
-124.043
-128.191
-101.895
-97.6259
-109.762
-115.159
-115.121
-84.9443
-89.7734
-78.7441
-78.0546
-72.7441
-89.1409
-85.3836
-89.6492
-70.7986
-65.5879
-73.1022
-68.6174
-62.1336
-70.6552
-58.2289
-49.4218
-66.4541
-82.2622
-85.0962
-77.6038
-87.9498
-96.1416
-106.23
-85.7066
-77.5853
-73.1804
-75.4746
-82.7158
-60.6375
-67.8895
-57.2304
-55.8252
-64.6509
-71.2885
-66.2386
-71.9763
-70.631
-68.0413
-89.7024
-96.2677
-82.3806
-74.9475
-71.4653
-87.5902
-91.6132
-82.2725
-86.1306
-78.795
-158.542
-153.704
-100.485
-93.5754
-182.167
-174.562
-179.725
-181.401
-179.638
-151.214
-164.316
-159.011
-163.164
-127.022
-136.563
-93.7228
-29.7656
-26.3658
-157.976
-157.667
-90.8684
-30.0878
-25.0614
-43.2546
-181.66
-153.2
-133.352
-42.0132
-163.385
-156.537
-161.337
-126.307
-137.68
-136.213
-90.2941
-158.845
-163.47
-135.629
-137.118
-161.495
-134.748
-136.558
-123.471
-128.719
-97.0235
-105.269
-111.873
-153.817
-160.158
-133.492
-143.542
-125.898
-132.488
-97.044
-105.032
-107.174
-152.382
-163.279
-134.328
-147.832
-109.64
-97.9727
-107.817
-121.984
-143.764
-141.833
-161.575
-164.198
-136.832
-135.554
-133.336
-136.594
-106.521
-98.1547
-106.527
-91.6926
-190.497
-185.466
-161.78
-178.412
-161.044
-182.828
-180.37
-136.377
-154.542
-154.048
-157.617
-153.464
-134.59
-108.846
-105.088
-105.217
-106.106
-105.641
-103.454
-62.3407
-93.4124
-58.8587
-63.1505
-186.454
-180.524
-188.782
-181.847
-186.838
-183.492
-186.668
-184.968
-188.962
-183.803
-161.634
-178.995
-161.706
-170.714
-162.05
-134.007
-145.631
-152.024
-167.184
-138.222
-160.026
-134.034
-98.1081
-106.698
-109.39
-99.6294
-105.043
-104.476
-92.0094
-62.9548
-55.2434
-52.3736
-55.6018
-93.2625
-61.6911
-26.8768
-28.2502
-25.1294
-190.397
-186.457
-183.526
-193.869
-184.432
-188.461
-183.706
-191.492
-187.768
-162.43
-178.415
-158.742
-181.117
-179.867
-174.204
-179.514
-173.524
-160.096
-166.01
-133.358
-151.585
-165.84
-153.373
-164.189
-136.984
-97.1601
-107.419
-125.498
-135.107
-103.126
-111.585
-99.075
-105.988
-132.964
-94.029
-62.4842
-51.0019
-55.5549
-52.0304
-92.6877
-61.6451
-26.9294
-25.2573
-26.0886
-185.646
-169.484
-163.301
-181.964
-160.221
-136.448
-157.645
-154.75
-154.574
-153.738
-104.233
-112.466
-103.799
-103.843
-104.162
-62.0038
-95.5087
-63.6805
-94.917
-161.13
-151.796
-142.558
-150.8
-163.482
-153.116
-114.881
-121.525
-114.476
-156.083
-163.427
-155.138
-145.862
-164.701
-140.211
-150.2
-148.903
-140.514
-154.822
-147.514
-163.314
-143.387
-147.79
-148.419
-143.913
-127.974
-126.688
-115.618
-115.222
-108.412
-99.8489
-114.238
-106.49
-110.776
-162.008
-150.164
-144.596
-150.424
-161.32
-139.986
-142.476
-143.473
-130.945
-149.904
-121.327
-131.611
-128.799
-116.513
-117.378
-109.731
-99.7841
-112.799
-105.453
-110.98
-151.118
-160.649
-139.917
-141.122
-144.851
-129.526
-149.335
-126.706
-115.428
-105.219
-116.307
-111.588
-115.248
-173.854
-174.31
-172.747
-175.47
-142.865
-162.218
-155.5
-122.424
-122.678
-128.881
-127.842
-126.831
-90.1352
-98.0894
-96.5946
-80.7917
-77.8439
-99.2472
-91.9304
-91.7297
-175.375
-177.48
-181.238
-172.713
-146.32
-154.843
-141.492
-166.441
-153.615
-126.591
-126.43
-116.641
-91.161
-102.083
-96.4702
-81.4117
-45.8341
-47.2504
-36.5524
-37.7134
-28.4947
-23.67
-175.624
-174.525
-174.351
-171.371
-179.102
-150.974
-160.165
-155.792
-120.509
-78.1176
-97.7029
-37.4987
-28.3849
-24.1753
-13.0656
-48.8568
-175.475
-176.144
-181.122
-175.521
-179
-178.77
-176.027
-174.085
-179.553
-140.356
-148.171
-173.858
-153.539
-127.551
-127.93
-91.5621
-98.0969
-90.4618
-86.3395
-95.5264
-80.5626
-49.495
-126.869
-96.0878
-166.882
-163.154
-151.107
-151.952
-126.984
-119.979
-124.471
-112.664
-104.859
-115.01
-106.876
-106.309
-103.274
-189.975
-186.229
-156.844
-158.212
-168.69
-174.15
-171.845
-173.48
-159.183
-168
-164.096
-171.506
-159.985
-166.402
-177.144
-172.424
-173.5
-172.52
-158.142
-163.579
-166.24
-170.447
-175.17
-179.726
-176.85
-178.66
-168.696
-158.701
-165.249
-179.533
-175.679
-179.882
-176.72
-159.728
-174.32
-178.211
-171.737
-164.006
-167.279
-163.9
-150.947
-146.001
-168.743
-150.912
-143.795
-143.653
-133.975
-135.35
-134.812
-145.15
-164.329
-154.741
-137.012
-136.018
-143.903
-137.235
-145.382
-161.066
-148.922
-135.916
-129.837
-128.281
-112.187
-115.208
-99.5533
-128.481
-112.184
-116.832
-100.971
-123.336
-128.681
-113.338
-100.548
-127.679
-108.301
-113.323
-90.8337
-90.6058
-78.0294
-79.1231
-67.7332
-68.7187
-79.5114
-69.0149
-66.2267
-56.4404
-53.943
-53.2731
-58.4739
-89.4677
-80.9363
-68.4611
-64.8748
-57.5083
-57.6724
-52.7336
-86.3905
-91.3092
-68.3334
-191.935
-182.253
-187.432
-177.269
-181.459
-191.736
-174.092
-201.38
-182.269
-184.708
-183.443
-192.142
-183.945
-190.816
-201.79
-192.503
-182.085
-188.926
-168.598
-175.087
-185.197
-178.873
-161.432
-173.507
-166.637
-176.361
-172.272
-175.284
-172.413
-179.898
-167.084
-157.518
-162.469
-169.604
-179.133
-174.18
-173.307
-168.877
-141.597
-147.758
-135.491
-151.426
-160.315
-141.985
-147.794
-150.139
-152.236
-152.821
-160.349
-143.147
-121.854
-115.129
-109.781
-118.373
-127.449
-105.055
-106.787
-114.524
-122.33
-115.054
-107.906
-100.256
-58.0324
-55.9465
-54.3139
-77.6931
-68.3803
-64.9626
-57.0954
-89.4508
-93.3153
-57.0762
-54.7478
-78.0245
-57.7211
-24.2513
-24.5599
-14.499
-31.9973
-13.4122
-24.6319
-33.8313
-193.986
-182.326
-197.111
-188.174
-187.311
-179.997
-181.919
-174.205
-190.087
-197.094
-190.874
-182.588
-180.377
-178.327
-184.31
-184.56
-184.394
-168.651
-180.224
-165.91
-178.233
-180.018
-175.016
-156.08
-179.27
-170.459
-174.608
-172.798
-168.306
-172.809
-172.849
-161.923
-166.556
-161.354
-148.574
-161.756
-151.584
-142.677
-139.572
-130.121
-144.142
-162.869
-149.243
-150.16
-124.378
-106.76
-108.998
-120.218
-119.71
-111.202
-117.56
-117.019
-114.436
-107.953
-125.924
-126.935
-68.4773
-65.2449
-57.4541
-90.9718
-81.6767
-57.2613
-54.1081
-78.5688
-58.1491
-89.6569
-56.4548
-14.0503
-24.3528
-33.9521
-191.68
-175.292
-160.991
-172.431
-160.622
-160.717
-166.702
-179.165
-175.124
-173.677
-161.588
-166.993
-171.015
-168.791
-176.066
-173.195
-174.894
-172.614
-168.634
-158.572
-172.677
-166.058
-164.05
-152.765
-136.835
-147.044
-169.175
-150.387
-143.346
-135.142
-135.083
-144.709
-163.268
-135.498
-144.2
-162.683
-136.927
-111.261
-101.992
-124.21
-128.312
-124.023
-111.302
-117.572
-126.545
-108.609
-127.45
-108.644
-67.3215
-91.0798
-56.7674
-54.5086
-59.2304
-89.8817
-98.5158
-79.3737
-57.201
-58.9383
-77.5016
-90.2674
)
;
    }
}


// ************************************************************************* //
