/*--------------------------------*- C++ -*----------------------------------*\
| =========                 |                                                 |
| \\      /  F ield         | OpenFOAM: The Open Source CFD Toolbox           |
|  \\    /   O peration     | Version:  v1906                                 |
|   \\  /    A nd           | Web:      www.OpenFOAM.com                      |
|    \\/     M anipulation  |                                                 |
\*---------------------------------------------------------------------------*/
FoamFile
{
    version     2.0;
    format      ascii;
    class       volScalarField;
    location    "0.25/oil";
    object      nut;
}
// * * * * * * * * * * * * * * * * * * * * * * * * * * * * * * * * * * * * * //

dimensions      [0 2 -1 0 0 0 0];


internalField   nonuniform List<scalar> 
168664
(
3.49939e-06
3.76187e-07
3.58774e-07
1.17756e-07
8.6703e-08
4.9994e-08
3.22562e-08
2.56854e-08
1.77025e-08
1.66348e-08
1.41928e-08
1.48966e-08
1.35503e-08
1.27746e-08
1.11786e-08
1.05358e-08
9.45662e-09
8.37844e-09
7.34299e-09
6.43946e-09
5.94287e-09
5.94056e-09
5.80233e-09
5.30932e-09
4.46176e-09
3.51796e-09
2.46007e-09
1.85832e-09
1.16767e-09
2.01013e-10
3.75219e-07
4.25285e-07
1.03949e-07
8.76299e-08
3.93438e-08
3.14111e-08
2.01236e-08
1.68032e-08
1.2409e-08
1.16328e-08
1.07055e-08
1.12529e-08
1.07061e-08
1.03888e-08
9.42063e-09
9.09011e-09
8.30335e-09
7.53728e-09
6.68735e-09
6.0546e-09
5.74906e-09
5.69945e-09
5.48662e-09
5.0372e-09
4.52021e-09
3.90803e-09
3.26005e-09
2.59348e-09
2.60906e-09
1.43411e-09
3.56837e-07
1.03723e-07
7.99413e-08
5.89185e-08
3.91235e-08
3.10118e-08
2.15518e-08
1.7592e-08
1.35548e-08
1.2176e-08
1.11149e-08
1.10933e-08
1.0424e-08
1.01787e-08
9.32965e-09
8.96166e-09
8.20271e-09
7.48721e-09
6.68468e-09
6.12754e-09
5.977e-09
5.95463e-09
5.82877e-09
5.47949e-09
4.99889e-09
4.48652e-09
3.98532e-09
3.67071e-09
4.39172e-09
3.41712e-09
1.19605e-07
8.90445e-08
6.02747e-08
4.69412e-08
3.13242e-08
2.55389e-08
1.93343e-08
1.63054e-08
1.36389e-08
1.21634e-08
1.11069e-08
1.06577e-08
1.02235e-08
9.99016e-09
9.17345e-09
8.64797e-09
7.82534e-09
7.13161e-09
6.42763e-09
5.97458e-09
5.78584e-09
5.76825e-09
5.79756e-09
5.5655e-09
5.06935e-09
4.51684e-09
4.14261e-09
4.39029e-09
5.35259e-09
4.61819e-09
8.8175e-08
4.17933e-08
4.05896e-08
3.17826e-08
2.66891e-08
2.3043e-08
1.90782e-08
1.68441e-08
1.4491e-08
1.31592e-08
1.18198e-08
1.10459e-08
1.05384e-08
1.02171e-08
9.33922e-09
8.64934e-09
7.82602e-09
7.19494e-09
6.74043e-09
6.58332e-09
6.3654e-09
6.31243e-09
6.30006e-09
6.14278e-09
5.76723e-09
5.29991e-09
5.0842e-09
5.54776e-09
6.6453e-09
6.336e-09
5.65117e-08
3.70846e-08
3.53874e-08
2.79985e-08
2.4371e-08
2.01703e-08
1.76554e-08
1.53417e-08
1.3822e-08
1.2619e-08
1.16502e-08
1.0734e-08
1.01296e-08
9.88668e-09
9.02337e-09
8.12253e-09
7.26154e-09
6.60329e-09
6.42961e-09
6.5149e-09
6.26668e-09
6.09731e-09
5.98752e-09
5.89057e-09
5.63424e-09
5.47606e-09
5.48025e-09
6.15369e-09
7.28148e-09
7.23666e-09
3.90815e-08
2.64998e-08
2.60128e-08
2.20313e-08
2.04382e-08
1.79883e-08
1.62628e-08
1.46995e-08
1.33701e-08
1.25131e-08
1.1719e-08
1.09165e-08
1.04387e-08
1.04106e-08
9.46631e-09
8.24137e-09
7.18545e-09
6.4488e-09
6.31235e-09
6.40058e-09
6.16431e-09
6.03106e-09
6.01678e-09
6.03001e-09
6.0235e-09
6.14739e-09
6.43978e-09
7.23505e-09
8.38022e-09
8.71114e-09
3.51592e-08
2.53234e-08
2.44949e-08
2.07692e-08
1.93487e-08
1.65689e-08
1.51842e-08
1.3347e-08
1.22672e-08
1.136e-08
1.09254e-08
1.04803e-08
1.05061e-08
1.07263e-08
9.8203e-09
8.32771e-09
7.16607e-09
6.26642e-09
5.94252e-09
5.74747e-09
5.4487e-09
5.36137e-09
5.47385e-09
5.70592e-09
6.04201e-09
6.52305e-09
7.07493e-09
7.93707e-09
9.02746e-09
9.56016e-09
2.76369e-08
2.10674e-08
2.0275e-08
1.80212e-08
1.684e-08
1.49092e-08
1.36097e-08
1.21517e-08
1.111e-08
1.03947e-08
1.02827e-08
1.05133e-08
1.1031e-08
1.12986e-08
1.04316e-08
8.9448e-09
7.56415e-09
6.35695e-09
5.7347e-09
5.30328e-09
5.00969e-09
5.07729e-09
5.41048e-09
5.90514e-09
6.55865e-09
7.24718e-09
8.01955e-09
8.86807e-09
9.81485e-09
1.05476e-08
2.67583e-08
2.07351e-08
1.99683e-08
1.78188e-08
1.64693e-08
1.42574e-08
1.2812e-08
1.1094e-08
9.95546e-09
9.21613e-09
9.42902e-09
1.01028e-08
1.0746e-08
1.06216e-08
9.96779e-09
8.88874e-09
7.45194e-09
6.13599e-09
5.27034e-09
4.6796e-09
4.40792e-09
4.63515e-09
5.17606e-09
5.83733e-09
6.58797e-09
7.46998e-09
8.46007e-09
9.2721e-09
1.01472e-08
1.09867e-08
2.34541e-08
1.86777e-08
1.78464e-08
1.62713e-08
1.49561e-08
1.32564e-08
1.19156e-08
1.03462e-08
9.24234e-09
8.77724e-09
9.26538e-09
1.00085e-08
1.01525e-08
9.30497e-09
8.62433e-09
7.94456e-09
6.84501e-09
5.82287e-09
5.0001e-09
4.42028e-09
4.34579e-09
4.82047e-09
5.57522e-09
6.36685e-09
7.16708e-09
8.15799e-09
9.21629e-09
9.87718e-09
1.06623e-08
1.15724e-08
2.33331e-08
1.87228e-08
1.77894e-08
1.62849e-08
1.51269e-08
1.36505e-08
1.23438e-08
1.05111e-08
9.07813e-09
8.34657e-09
8.5373e-09
8.82208e-09
8.18725e-09
6.91358e-09
6.29588e-09
5.81259e-09
4.98982e-09
4.64984e-09
4.33209e-09
3.95463e-09
4.19031e-09
4.99255e-09
5.98841e-09
7.01691e-09
7.93807e-09
8.89828e-09
9.80288e-09
1.02878e-08
1.10043e-08
1.19786e-08
2.1266e-08
1.76102e-08
1.68794e-08
1.59275e-08
1.49805e-08
1.38357e-08
1.26474e-08
1.08513e-08
9.29214e-09
7.98499e-09
7.54546e-09
7.09741e-09
6.1157e-09
5.33813e-09
4.92126e-09
4.57467e-09
3.93873e-09
3.47717e-09
3.63755e-09
3.46828e-09
3.965e-09
5.36072e-09
6.6199e-09
7.68592e-09
8.62646e-09
9.53467e-09
1.02993e-08
1.07825e-08
1.15728e-08
1.28226e-08
2.01596e-08
1.68259e-08
1.62344e-08
1.55238e-08
1.46488e-08
1.35418e-08
1.2409e-08
1.09745e-08
9.67334e-09
7.68597e-09
6.01216e-09
4.45473e-09
3.54785e-09
3.20144e-09
3.15249e-09
3.15393e-09
2.54818e-09
1.93926e-09
1.99223e-09
2.56492e-09
3.76523e-09
5.62e-09
7.11181e-09
8.19885e-09
9.05082e-09
9.91779e-09
1.07134e-08
1.12818e-08
1.21611e-08
1.3733e-08
1.88461e-08
1.58675e-08
1.5262e-08
1.46251e-08
1.38397e-08
1.28728e-08
1.1823e-08
1.06149e-08
9.49443e-09
7.45682e-09
5.27466e-09
3.40789e-09
2.33969e-09
2.40592e-09
2.86975e-09
2.66733e-09
2.03054e-09
1.49117e-09
1.77724e-09
2.71844e-09
4.1771e-09
6.05268e-09
7.63934e-09
8.82073e-09
9.67801e-09
1.05144e-08
1.1314e-08
1.19086e-08
1.27458e-08
1.45576e-08
1.82558e-08
1.54025e-08
1.47403e-08
1.41188e-08
1.33957e-08
1.24885e-08
1.1437e-08
1.00763e-08
8.6363e-09
6.69726e-09
4.81634e-09
3.19909e-09
2.13942e-09
2.18647e-09
3.10124e-09
2.72102e-09
1.94627e-09
1.75438e-09
2.3715e-09
3.41443e-09
4.68145e-09
6.35429e-09
7.7058e-09
8.84538e-09
9.69088e-09
1.05583e-08
1.1367e-08
1.19927e-08
1.27124e-08
1.44129e-08
1.67807e-08
1.43713e-08
1.36892e-08
1.31235e-08
1.24427e-08
1.15717e-08
1.06383e-08
9.45679e-09
7.89525e-09
5.82824e-09
3.81673e-09
2.60939e-09
2.17719e-09
2.57835e-09
3.41845e-09
3.1626e-09
2.60355e-09
2.66337e-09
3.55976e-09
4.58978e-09
5.50229e-09
6.81747e-09
7.89838e-09
8.85613e-09
9.71607e-09
1.06527e-08
1.15003e-08
1.20612e-08
1.26675e-08
1.42547e-08
1.56909e-08
1.36447e-08
1.2948e-08
1.23712e-08
1.16636e-08
1.07195e-08
9.76248e-09
8.57922e-09
7.2184e-09
5.34551e-09
3.86138e-09
3.36075e-09
2.88072e-09
3.13354e-09
3.82601e-09
3.58852e-09
3.47702e-09
3.91802e-09
4.92969e-09
5.64537e-09
5.77811e-09
6.80723e-09
7.67015e-09
8.70679e-09
9.664e-09
1.06241e-08
1.15146e-08
1.22138e-08
1.29553e-08
1.46012e-08
1.4688e-08
1.30113e-08
1.22729e-08
1.16137e-08
1.0828e-08
9.84827e-09
8.86898e-09
7.69352e-09
6.51918e-09
5.40813e-09
4.70218e-09
4.59182e-09
4.3323e-09
4.31299e-09
4.74734e-09
4.40324e-09
4.50134e-09
5.11866e-09
5.66949e-09
5.76545e-09
5.64686e-09
6.06006e-09
6.73978e-09
7.80619e-09
8.7097e-09
9.52521e-09
1.04102e-08
1.14454e-08
1.25241e-08
1.42902e-08
1.37597e-08
1.21926e-08
1.13648e-08
1.05181e-08
9.61226e-09
8.60522e-09
7.75242e-09
6.80381e-09
5.91763e-09
5.1928e-09
5.00355e-09
5.16184e-09
5.45441e-09
5.87851e-09
6.44806e-09
6.27533e-09
6.40497e-09
6.62508e-09
6.25002e-09
5.73484e-09
5.27602e-09
5.41989e-09
5.92041e-09
6.83209e-09
7.6506e-09
8.46393e-09
9.36996e-09
1.04808e-08
1.15899e-08
1.31821e-08
1.26157e-08
1.12524e-08
1.05389e-08
9.60842e-09
8.68587e-09
7.83761e-09
7.1108e-09
6.31902e-09
5.57622e-09
5.1201e-09
5.07871e-09
5.21413e-09
5.60723e-09
6.46274e-09
7.55085e-09
7.95902e-09
8.10188e-09
7.54012e-09
6.66435e-09
5.82545e-09
5.13904e-09
5.13127e-09
5.55229e-09
6.37735e-09
7.07927e-09
7.89152e-09
8.72108e-09
9.72122e-09
1.06876e-08
1.17471e-08
1.17319e-08
1.06958e-08
1.008e-08
9.1176e-09
8.2404e-09
7.52228e-09
6.92762e-09
6.32673e-09
5.77683e-09
5.49019e-09
5.22789e-09
4.96414e-09
5.23202e-09
6.19259e-09
7.45311e-09
8.37988e-09
8.4792e-09
7.38814e-09
6.36168e-09
5.83417e-09
5.42176e-09
5.46346e-09
5.71249e-09
6.26523e-09
6.72501e-09
7.37229e-09
8.02766e-09
8.98511e-09
9.96816e-09
1.07288e-08
1.05719e-08
9.84335e-09
9.06949e-09
8.14659e-09
7.52764e-09
6.98941e-09
6.59259e-09
6.24342e-09
5.95586e-09
5.87547e-09
5.53088e-09
4.98101e-09
4.94603e-09
5.77915e-09
6.86291e-09
7.76961e-09
7.78128e-09
6.83732e-09
6.15752e-09
6.09408e-09
5.90922e-09
5.82481e-09
5.80236e-09
6.05092e-09
6.23579e-09
6.67943e-09
7.18105e-09
8.10679e-09
9.09551e-09
9.52249e-09
9.52244e-09
8.97346e-09
8.01966e-09
7.26138e-09
6.89108e-09
6.60619e-09
6.4781e-09
6.40519e-09
6.30594e-09
6.23666e-09
5.76478e-09
5.20608e-09
4.97671e-09
5.46686e-09
6.25504e-09
6.9095e-09
6.99061e-09
6.48398e-09
6.12138e-09
6.28101e-09
6.28956e-09
6.26823e-09
6.12949e-09
6.15391e-09
6.1015e-09
6.25158e-09
6.49851e-09
7.36395e-09
8.36934e-09
8.61039e-09
7.841e-09
7.69898e-09
6.75386e-09
6.23429e-09
6.05704e-09
5.95261e-09
6.05539e-09
6.21775e-09
6.35511e-09
6.28599e-09
5.72428e-09
5.28223e-09
5.32321e-09
5.61563e-09
6.03681e-09
6.32055e-09
6.60614e-09
6.48668e-09
6.10076e-09
5.99268e-09
6.13567e-09
6.26549e-09
6.13146e-09
6.07963e-09
5.85388e-09
5.73378e-09
5.65543e-09
6.43354e-09
7.4478e-09
7.36407e-09
6.65513e-09
6.73054e-09
5.75324e-09
5.42327e-09
5.55959e-09
5.74019e-09
5.94651e-09
6.24304e-09
6.49697e-09
6.55254e-09
6.03101e-09
5.67473e-09
5.88777e-09
6.13871e-09
6.20763e-09
6.15912e-09
6.5483e-09
6.68999e-09
6.23892e-09
5.87615e-09
5.88153e-09
6.12199e-09
6.12722e-09
6.09471e-09
5.78564e-09
5.35999e-09
5.0784e-09
5.71301e-09
6.75785e-09
6.47775e-09
4.97351e-09
5.44567e-09
4.37475e-09
4.21977e-09
4.6522e-09
4.96382e-09
5.30447e-09
5.70193e-09
6.0299e-09
6.26093e-09
5.92927e-09
5.86004e-09
6.16913e-09
6.33822e-09
6.13187e-09
5.86116e-09
6.24481e-09
6.4314e-09
6.18889e-09
5.74347e-09
5.4434e-09
5.41443e-09
5.36696e-09
5.33671e-09
5.03084e-09
4.63505e-09
4.25583e-09
4.67357e-09
5.61784e-09
4.95999e-09
3.65616e-09
4.47927e-09
3.50626e-09
3.83736e-09
4.28141e-09
4.70117e-09
5.17732e-09
5.64745e-09
6.04255e-09
6.31748e-09
6.15588e-09
6.29271e-09
6.58961e-09
6.63831e-09
6.38564e-09
6.05563e-09
6.22496e-09
6.40012e-09
6.37832e-09
6.10104e-09
5.6041e-09
5.33324e-09
5.10851e-09
5.07064e-09
4.86781e-09
4.58666e-09
4.0972e-09
3.83171e-09
4.59812e-09
3.723e-09
1.69668e-09
2.9001e-09
2.67619e-09
3.26325e-09
3.7628e-09
4.36751e-09
4.93771e-09
5.551e-09
6.09262e-09
6.55985e-09
6.64574e-09
6.76678e-09
6.91113e-09
6.98173e-09
6.96587e-09
6.66644e-09
6.68867e-09
6.77604e-09
6.7485e-09
6.37158e-09
5.73411e-09
5.3064e-09
4.96463e-09
4.79688e-09
4.45198e-09
3.9502e-09
3.31047e-09
2.57728e-09
2.74382e-09
1.67357e-09
7.8272e-10
1.69727e-09
2.49468e-09
3.09728e-09
3.90825e-09
4.63145e-09
5.34839e-09
6.10782e-09
6.85242e-09
7.37334e-09
7.58997e-09
7.69717e-09
7.70641e-09
7.90125e-09
7.8296e-09
7.45309e-09
7.54046e-09
7.78006e-09
7.76495e-09
7.13629e-09
6.2713e-09
5.70262e-09
5.18562e-09
4.85324e-09
4.18534e-09
3.36279e-09
2.2748e-09
1.51255e-09
9.34534e-10
2.57047e-10
3.74187e-07
4.34217e-07
1.05396e-07
8.92869e-08
3.93501e-08
3.1678e-08
2.01404e-08
1.70342e-08
1.20858e-08
1.12955e-08
9.55652e-09
1.02899e-08
9.69745e-09
9.9436e-09
9.05183e-09
8.84722e-09
8.06646e-09
7.14566e-09
6.60985e-09
5.84188e-09
5.40489e-09
5.14198e-09
5.05113e-09
4.77669e-09
4.41322e-09
3.77837e-09
3.10396e-09
2.41389e-09
1.91476e-09
1.07995e-09
4.3151e-07
1.02091e-07
7.17307e-08
3.84794e-08
1.85889e-08
1.48564e-08
9.29575e-09
7.05701e-09
5.36655e-09
4.60971e-09
4.19768e-09
3.30943e-09
2.41863e-09
2.68988e-09
2.78371e-09
2.75174e-09
2.69034e-09
2.61923e-09
2.35698e-09
1.95918e-09
2.05029e-09
2.44091e-09
2.9137e-09
3.18291e-09
3.16388e-09
2.8205e-09
2.50993e-09
2.16647e-09
3.16059e-09
2.6619e-09
1.0357e-07
7.23789e-08
3.62112e-08
3.33391e-08
1.69262e-08
1.52138e-08
9.86967e-09
7.68414e-09
5.83126e-09
5.2981e-09
5.15799e-09
4.88647e-09
3.49532e-09
2.79914e-09
2.48283e-09
2.28242e-09
2.05548e-09
1.67814e-09
1.50852e-09
1.72019e-09
2.165e-09
3.14226e-09
3.88964e-09
3.94667e-09
4.00264e-09
3.81145e-09
3.17185e-09
2.88296e-09
3.58263e-09
4.46461e-09
8.92085e-08
3.69221e-08
3.19961e-08
2.19452e-08
1.22512e-08
1.09712e-08
6.70981e-09
6.09202e-09
4.9121e-09
4.81016e-09
4.59559e-09
4.72372e-09
3.39233e-09
2.74144e-09
2.32395e-09
2.25541e-09
2.44775e-09
1.8375e-09
1.88891e-09
2.50841e-09
3.30699e-09
3.79805e-09
3.64722e-09
3.48009e-09
3.9177e-09
3.94632e-09
3.43346e-09
3.32926e-09
3.31403e-09
5.44061e-09
4.13499e-08
1.72041e-08
1.50253e-08
1.24506e-08
8.02779e-09
7.86038e-09
5.30727e-09
4.9594e-09
3.92047e-09
3.70457e-09
3.23284e-09
3.33555e-09
2.27453e-09
2.55549e-09
2.45175e-09
2.4796e-09
2.63754e-09
1.9061e-09
2.08976e-09
2.89238e-09
3.39423e-09
2.80895e-09
2.03508e-09
1.97638e-09
2.59283e-09
2.99403e-09
3.22933e-09
3.50152e-09
3.15664e-09
6.78128e-09
3.65908e-08
1.29167e-08
1.35103e-08
1.09588e-08
7.62268e-09
6.85614e-09
4.47374e-09
4.07889e-09
2.8652e-09
2.86811e-09
2.64776e-09
2.74713e-09
2.14325e-09
2.57006e-09
2.60668e-09
2.66647e-09
2.76165e-09
2.20932e-09
2.53452e-09
2.78999e-09
2.62495e-09
1.68264e-09
1.09111e-09
1.11071e-09
1.50899e-09
2.10794e-09
2.83171e-09
3.35739e-09
2.90446e-09
7.41395e-09
2.64195e-08
7.54566e-09
8.23757e-09
6.59985e-09
5.29595e-09
4.89774e-09
3.67269e-09
3.49663e-09
2.64488e-09
2.72566e-09
2.56524e-09
2.81835e-09
2.26434e-09
2.8042e-09
3.03486e-09
2.90859e-09
2.91288e-09
2.65508e-09
3.10171e-09
2.62152e-09
2.15519e-09
1.48162e-09
1.24059e-09
1.03057e-09
1.26432e-09
2.06581e-09
2.85525e-09
3.29726e-09
2.93453e-09
8.47415e-09
2.52663e-08
5.01827e-09
6.56162e-09
6.12649e-09
5.12397e-09
4.78283e-09
3.79642e-09
3.60374e-09
2.80003e-09
2.77002e-09
2.53062e-09
2.55629e-09
1.79624e-09
2.49525e-09
2.9481e-09
2.63945e-09
2.49444e-09
2.54909e-09
2.92596e-09
2.34617e-09
1.81015e-09
1.38113e-09
1.21329e-09
1.03394e-09
1.39909e-09
2.21739e-09
2.82083e-09
3.14211e-09
2.8466e-09
9.08023e-09
2.11649e-08
3.85397e-09
4.5218e-09
4.15714e-09
3.93559e-09
3.81919e-09
3.33205e-09
3.31491e-09
2.86975e-09
2.8782e-09
2.54839e-09
2.04873e-09
1.24921e-09
3.09742e-09
3.82184e-09
3.27406e-09
2.49428e-09
1.99833e-09
2.54507e-09
2.17697e-09
1.84304e-09
1.47982e-09
1.37337e-09
1.38143e-09
1.80471e-09
2.38174e-09
2.68169e-09
2.79985e-09
2.65694e-09
9.90182e-09
2.0668e-08
2.60372e-09
3.37426e-09
3.38061e-09
3.46558e-09
3.61357e-09
3.29131e-09
3.34299e-09
3.07388e-09
2.9015e-09
2.4354e-09
1.67662e-09
2.21943e-09
4.25431e-09
4.91819e-09
4.26951e-09
3.16951e-09
1.59669e-09
1.80245e-09
1.90222e-09
1.6753e-09
1.54213e-09
1.53058e-09
1.66214e-09
1.88603e-09
2.15702e-09
2.19655e-09
2.13413e-09
2.24116e-09
1.03403e-08
1.87518e-08
2.35164e-09
2.46625e-09
2.20807e-09
2.21596e-09
2.50115e-09
2.65124e-09
3.07165e-09
3.13153e-09
2.96677e-09
2.61789e-09
2.62063e-09
3.91064e-09
5.48181e-09
6.02462e-09
5.71901e-09
4.91627e-09
2.68971e-09
1.8629e-09
1.78792e-09
1.9427e-09
2.00571e-09
2.06391e-09
2.1175e-09
2.16792e-09
2.16839e-09
1.96646e-09
1.78246e-09
1.95761e-09
1.07405e-08
1.87276e-08
1.93811e-09
1.65444e-09
1.4862e-09
1.50379e-09
1.91135e-09
2.32262e-09
2.9099e-09
3.36391e-09
3.37322e-09
3.01875e-09
3.51414e-09
4.42222e-09
4.92556e-09
5.12814e-09
5.07868e-09
4.45383e-09
3.17673e-09
2.15916e-09
1.84972e-09
2.20263e-09
2.3849e-09
2.36855e-09
2.2998e-09
2.25818e-09
2.18909e-09
1.86834e-09
1.77492e-09
1.78857e-09
1.10068e-08
1.73947e-08
2.04729e-09
1.56528e-09
1.32818e-09
1.22021e-09
1.30274e-09
1.64579e-09
2.23182e-09
2.93115e-09
3.11076e-09
3.0092e-09
4.42777e-09
4.77247e-09
4.76332e-09
4.67466e-09
4.42453e-09
4.10851e-09
3.35136e-09
2.9289e-09
1.80945e-09
2.22961e-09
2.38039e-09
2.19685e-09
1.93052e-09
1.78895e-09
1.77197e-09
1.58677e-09
1.71058e-09
1.83462e-09
1.16674e-08
1.67478e-08
1.89488e-09
1.72682e-09
1.67545e-09
1.6582e-09
1.55988e-09
1.69975e-09
2.0553e-09
2.76509e-09
2.99755e-09
3.50296e-09
4.05647e-09
3.84946e-09
3.68921e-09
3.30736e-09
3.02545e-09
2.43391e-09
2.29251e-09
2.24174e-09
1.86355e-09
1.8357e-09
2.22455e-09
1.93097e-09
1.5775e-09
1.42568e-09
1.50501e-09
1.43419e-09
1.61001e-09
1.89658e-09
1.23068e-08
1.58116e-08
1.97195e-09
1.74357e-09
1.69569e-09
1.68923e-09
1.71974e-09
1.88684e-09
2.23462e-09
2.87857e-09
3.47014e-09
3.7309e-09
3.38319e-09
2.94364e-09
2.59596e-09
2.8567e-09
2.5063e-09
1.98432e-09
2.05206e-09
2.2048e-09
2.53904e-09
2.7596e-09
2.68009e-09
2.0191e-09
1.46689e-09
1.27674e-09
1.35294e-09
1.30521e-09
1.46537e-09
1.8967e-09
1.28214e-08
1.54317e-08
2.16913e-09
1.86886e-09
1.76644e-09
1.83455e-09
1.9594e-09
2.14817e-09
2.43527e-09
3.10804e-09
3.45006e-09
3.19471e-09
2.40482e-09
2.10132e-09
2.05849e-09
2.58824e-09
2.59075e-09
2.0682e-09
2.26349e-09
2.51476e-09
3.04777e-09
3.0501e-09
2.80095e-09
1.94061e-09
1.26647e-09
1.0089e-09
1.17841e-09
1.19706e-09
1.29332e-09
1.60552e-09
1.26911e-08
1.45086e-08
2.18144e-09
1.99676e-09
1.86597e-09
1.98389e-09
2.09913e-09
2.2193e-09
2.52357e-09
3.05191e-09
2.89555e-09
2.80809e-09
2.68885e-09
2.55535e-09
2.57527e-09
3.09743e-09
3.06739e-09
2.70432e-09
2.77913e-09
2.85503e-09
2.70406e-09
2.45101e-09
2.88474e-09
2.04024e-09
1.27089e-09
1.01917e-09
1.31181e-09
1.46125e-09
1.45232e-09
1.57892e-09
1.26332e-08
1.37841e-08
2.17299e-09
2.1857e-09
1.99029e-09
2.13724e-09
2.23784e-09
2.4203e-09
2.60925e-09
2.91946e-09
2.58097e-09
2.40017e-09
2.65392e-09
3.0026e-09
3.25118e-09
3.71813e-09
3.74256e-09
3.77247e-09
3.54131e-09
2.83838e-09
1.82455e-09
2.61397e-09
3.30345e-09
2.50981e-09
1.98267e-09
1.66305e-09
1.72077e-09
1.93319e-09
1.92929e-09
1.9981e-09
1.27538e-08
1.29549e-08
2.38103e-09
2.49074e-09
2.44131e-09
2.71254e-09
2.78279e-09
2.85535e-09
2.85708e-09
3.02937e-09
2.76161e-09
2.73275e-09
2.18917e-09
2.76602e-09
3.46699e-09
4.20675e-09
4.16537e-09
4.04238e-09
3.42945e-09
2.13734e-09
1.62062e-09
2.75948e-09
3.4435e-09
2.89301e-09
2.48814e-09
2.13957e-09
2.14132e-09
2.35419e-09
2.41676e-09
2.41845e-09
1.24847e-08
1.2266e-08
2.50575e-09
2.41018e-09
2.60755e-09
2.83793e-09
2.57507e-09
2.40776e-09
2.22215e-09
2.40161e-09
2.13873e-09
2.27716e-09
1.31668e-09
1.84605e-09
3.36972e-09
4.50864e-09
4.70575e-09
4.47059e-09
2.96687e-09
1.38317e-09
1.75275e-09
2.24092e-09
2.7748e-09
2.42056e-09
2.27509e-09
2.13023e-09
2.3742e-09
2.50735e-09
2.36434e-09
2.44755e-09
1.17713e-08
1.15592e-08
2.77701e-09
2.50752e-09
2.91979e-09
3.05526e-09
2.36823e-09
1.99257e-09
1.77234e-09
1.97108e-09
1.86899e-09
2.19333e-09
1.42283e-09
8.35682e-10
1.78106e-09
3.21725e-09
3.94595e-09
3.70969e-09
1.70072e-09
1.24228e-09
2.23003e-09
2.13581e-09
2.32084e-09
1.99317e-09
2.06619e-09
2.24483e-09
2.82598e-09
2.86183e-09
2.62726e-09
2.48619e-09
1.06483e-08
1.07927e-08
2.90634e-09
2.98368e-09
3.35592e-09
3.05482e-09
2.16958e-09
1.70868e-09
1.35039e-09
1.54824e-09
1.61751e-09
2.14195e-09
2.06295e-09
1.66661e-09
1.24833e-09
1.99685e-09
2.53682e-09
2.1814e-09
1.17992e-09
1.59639e-09
2.14312e-09
1.7645e-09
1.81024e-09
1.48308e-09
1.64898e-09
1.95291e-09
2.77419e-09
3.10727e-09
3.03592e-09
2.56288e-09
9.84572e-09
9.90293e-09
2.91527e-09
3.46971e-09
3.41524e-09
2.74003e-09
1.85134e-09
1.43447e-09
1.05345e-09
1.38184e-09
1.5362e-09
2.17722e-09
2.46125e-09
2.42685e-09
2.41973e-09
2.56774e-09
2.44454e-09
1.50659e-09
1.77486e-09
2.29167e-09
2.35483e-09
1.60939e-09
1.53532e-09
1.20401e-09
1.37022e-09
1.57125e-09
2.51864e-09
3.15696e-09
3.28869e-09
2.72522e-09
9.0303e-09
9.14945e-09
2.91423e-09
3.51066e-09
2.88647e-09
2.18399e-09
1.47109e-09
1.17113e-09
7.73918e-10
1.1815e-09
1.50011e-09
2.26111e-09
2.34468e-09
2.43761e-09
3.00484e-09
3.0704e-09
2.41719e-09
1.55868e-09
2.35809e-09
2.73611e-09
2.88552e-09
1.92146e-09
1.36397e-09
9.61346e-10
1.14042e-09
1.26562e-09
2.14739e-09
3.02588e-09
3.41955e-09
2.80215e-09
8.35921e-09
7.87454e-09
2.98424e-09
3.43086e-09
2.46144e-09
1.78509e-09
1.27875e-09
1.41329e-09
1.20409e-09
1.4332e-09
1.7423e-09
2.46939e-09
2.21199e-09
2.32864e-09
3.13844e-09
3.14235e-09
2.31984e-09
1.95284e-09
2.54002e-09
2.87989e-09
3.51802e-09
2.84948e-09
1.92573e-09
1.18853e-09
1.42987e-09
1.64647e-09
2.44739e-09
3.15042e-09
3.72888e-09
3.04114e-09
7.47655e-09
6.96075e-09
2.94877e-09
3.19487e-09
2.20541e-09
1.76005e-09
1.59541e-09
1.92298e-09
1.94197e-09
2.26307e-09
2.31477e-09
2.52368e-09
1.87026e-09
2.18885e-09
2.92227e-09
2.87344e-09
2.2176e-09
2.02563e-09
2.3329e-09
2.66401e-09
3.54645e-09
3.45354e-09
3.09116e-09
2.32782e-09
2.44904e-09
2.7996e-09
3.37246e-09
3.37727e-09
3.82694e-09
3.31166e-09
6.78372e-09
5.77764e-09
3.1251e-09
3.14481e-09
2.41539e-09
2.58754e-09
2.67643e-09
2.96338e-09
3.07047e-09
3.60973e-09
3.63258e-09
3.26204e-09
1.69265e-09
1.89447e-09
2.60103e-09
3.02312e-09
2.58185e-09
2.50454e-09
2.92803e-09
3.12557e-09
3.85517e-09
3.86274e-09
4.22628e-09
4.12888e-09
4.3694e-09
4.50647e-09
4.48332e-09
3.6376e-09
3.69414e-09
3.60884e-09
5.61712e-09
4.89455e-09
3.51819e-09
3.05696e-09
2.87386e-09
3.09362e-09
2.96188e-09
3.07835e-09
3.06862e-09
3.62034e-09
3.76781e-09
3.50436e-09
1.68187e-09
1.4421e-09
2.24743e-09
2.72074e-09
2.26892e-09
2.08438e-09
2.69878e-09
2.77121e-09
3.03422e-09
2.77891e-09
3.36493e-09
3.77676e-09
4.48455e-09
4.44387e-09
4.12702e-09
3.12424e-09
2.89453e-09
3.65666e-09
4.62216e-09
3.27186e-09
3.55727e-09
2.62268e-09
2.91964e-09
2.8518e-09
2.74464e-09
2.91009e-09
3.00074e-09
3.48435e-09
3.74709e-09
3.7243e-09
2.81266e-09
2.70998e-09
2.43736e-09
2.18855e-09
1.62764e-09
1.64185e-09
2.1142e-09
2.10165e-09
2.26687e-09
2.04026e-09
2.55627e-09
2.72449e-09
3.28313e-09
3.24252e-09
2.95334e-09
2.47208e-09
2.1033e-09
3.10677e-09
2.77297e-09
1.9157e-09
2.66734e-09
2.99515e-09
3.50946e-09
4.00021e-09
4.50706e-09
5.17247e-09
5.86835e-09
6.72053e-09
7.33631e-09
7.50803e-09
7.22267e-09
6.91051e-09
6.78456e-09
6.69835e-09
6.40487e-09
6.4686e-09
6.53324e-09
6.57085e-09
6.38173e-09
5.71331e-09
5.41078e-09
4.87613e-09
4.73699e-09
4.26472e-09
3.66956e-09
2.86461e-09
2.07916e-09
1.67261e-09
1.10501e-09
3.59651e-07
1.05623e-07
7.95547e-08
5.80252e-08
3.69723e-08
3.04974e-08
2.03387e-08
1.68209e-08
1.13712e-08
1.02394e-08
8.32912e-09
8.64274e-09
8.30521e-09
7.11597e-09
6.75569e-09
6.36385e-09
5.83688e-09
6.05908e-09
5.20792e-09
5.51162e-09
4.31739e-09
4.68505e-09
4.6783e-09
5.25374e-09
5.06072e-09
4.52294e-09
3.75712e-09
2.82438e-09
2.07283e-09
1.65887e-09
1.03918e-07
7.31622e-08
3.78421e-08
3.42797e-08
1.6118e-08
1.38402e-08
8.88168e-09
7.23797e-09
6.12545e-09
5.1501e-09
3.88469e-09
2.40827e-09
2.26137e-09
2.51306e-09
2.90171e-09
2.42076e-09
2.29415e-09
2.41423e-09
2.23965e-09
1.78919e-09
1.03276e-09
1.37854e-09
2.13519e-09
2.57982e-09
2.41994e-09
2.04288e-09
1.86888e-09
1.89952e-09
2.31882e-09
2.41167e-09
7.8592e-08
3.78525e-08
2.74661e-08
2.85656e-08
1.63643e-08
1.43139e-08
9.18851e-09
7.59126e-09
6.69604e-09
6.51479e-09
5.53084e-09
4.09181e-09
3.23402e-09
2.96269e-09
3.04789e-09
2.79266e-09
3.03451e-09
2.86598e-09
2.64486e-09
2.50752e-09
2.19217e-09
2.56962e-09
3.71358e-09
4.1878e-09
3.22227e-09
2.33827e-09
2.56258e-09
3.3301e-09
2.99267e-09
3.81641e-09
5.96535e-08
3.30265e-08
2.76535e-08
2.2158e-08
1.33099e-08
1.1548e-08
7.36597e-09
6.18816e-09
5.08677e-09
5.50548e-09
5.61126e-09
5.21857e-09
4.41577e-09
3.66283e-09
3.14887e-09
2.90021e-09
2.88149e-09
2.60432e-09
2.56405e-09
2.35082e-09
1.74111e-09
3.33736e-09
5.03198e-09
5.10414e-09
4.11661e-09
2.86836e-09
2.83618e-09
3.46288e-09
3.21996e-09
4.74465e-09
3.9601e-08
1.59792e-08
1.50201e-08
1.25728e-08
8.90204e-09
8.38166e-09
6.07222e-09
5.25492e-09
4.27799e-09
4.86785e-09
5.93624e-09
5.76156e-09
4.16762e-09
3.29859e-09
2.82263e-09
2.60843e-09
2.44193e-09
2.41656e-09
2.42023e-09
2.48925e-09
3.49814e-09
4.69012e-09
5.01726e-09
4.9211e-09
4.53481e-09
3.49145e-09
3.37804e-09
3.00599e-09
3.37903e-09
5.99514e-09
3.50427e-08
1.35692e-08
1.37563e-08
1.09346e-08
8.09983e-09
6.86803e-09
4.85939e-09
3.84648e-09
2.97155e-09
3.36787e-09
4.19195e-09
3.70749e-09
2.27775e-09
1.90706e-09
1.78308e-09
1.88767e-09
2.01836e-09
2.25147e-09
1.71062e-09
2.46878e-09
3.03369e-09
2.91756e-09
2.29746e-09
2.61839e-09
3.22819e-09
3.36792e-09
3.55369e-09
2.42132e-09
3.31094e-09
6.60863e-09
2.6177e-08
7.93855e-09
8.37455e-09
6.65613e-09
5.49922e-09
4.82755e-09
3.57485e-09
3.08689e-09
2.70086e-09
2.83701e-09
3.35201e-09
3.01911e-09
1.96403e-09
1.91353e-09
2.1444e-09
2.11812e-09
1.96165e-09
1.9338e-09
1.90081e-09
2.50673e-09
1.97846e-09
1.45291e-09
7.73079e-10
1.20897e-09
2.46095e-09
3.27203e-09
3.30561e-09
2.03859e-09
3.31147e-09
7.58516e-09
2.46303e-08
5.82444e-09
6.58812e-09
6.21311e-09
5.45964e-09
4.81674e-09
3.75774e-09
3.34703e-09
2.8558e-09
2.62212e-09
2.9241e-09
2.63133e-09
1.79161e-09
2.0427e-09
1.93695e-09
1.53851e-09
1.13747e-09
1.58229e-09
2.11902e-09
2.31597e-09
1.31188e-09
1.1192e-09
7.09688e-10
1.03321e-09
2.2089e-09
2.86663e-09
2.78077e-09
1.87291e-09
3.13215e-09
8.17538e-09
2.04416e-08
4.34657e-09
4.25132e-09
3.66102e-09
3.66032e-09
3.73892e-09
3.29945e-09
3.08378e-09
2.80306e-09
2.54588e-09
2.7037e-09
2.06244e-09
1.90251e-09
2.57292e-09
2.09036e-09
1.22379e-09
1.08318e-09
1.08901e-09
1.72776e-09
2.12797e-09
1.40071e-09
1.35131e-09
1.07311e-09
1.43414e-09
2.12604e-09
2.42726e-09
2.45363e-09
1.86539e-09
2.87437e-09
9.06388e-09
1.95063e-08
3.49624e-09
3.47425e-09
2.89601e-09
2.80781e-09
3.18803e-09
3.22881e-09
3.08822e-09
2.81872e-09
2.41657e-09
2.34563e-09
1.90542e-09
2.54809e-09
3.08952e-09
3.27862e-09
2.44102e-09
2.27763e-09
2.00407e-09
1.27451e-09
1.57939e-09
1.18211e-09
1.25258e-09
1.27321e-09
1.67136e-09
1.82068e-09
1.8241e-09
1.77402e-09
1.32518e-09
2.41444e-09
9.69098e-09
1.74569e-08
2.9089e-09
2.66057e-09
2.33992e-09
1.93545e-09
1.89404e-09
2.43313e-09
2.91412e-09
2.96404e-09
2.55661e-09
2.99867e-09
3.55574e-09
4.47727e-09
5.04453e-09
5.50854e-09
5.00832e-09
4.53892e-09
3.68322e-09
2.66901e-09
2.15942e-09
1.63145e-09
1.6714e-09
1.73515e-09
1.83508e-09
1.5892e-09
1.46096e-09
1.35483e-09
1.03512e-09
2.02345e-09
1.01906e-08
1.74575e-08
2.39545e-09
1.91987e-09
1.82507e-09
1.52183e-09
1.3425e-09
2.07271e-09
2.76564e-09
2.88235e-09
3.01112e-09
4.02264e-09
4.18799e-09
5.28695e-09
5.79237e-09
6.23939e-09
6.21571e-09
5.32684e-09
4.19397e-09
3.21109e-09
2.83707e-09
2.0726e-09
1.74379e-09
1.57898e-09
1.56487e-09
1.38712e-09
1.35902e-09
1.32739e-09
1.06409e-09
1.5734e-09
1.04596e-08
1.6358e-08
1.96943e-09
1.41099e-09
1.30019e-09
1.16304e-09
1.02871e-09
1.61282e-09
2.47769e-09
2.33377e-09
3.21479e-09
4.51978e-09
5.12843e-09
6.45139e-09
6.88233e-09
7.05071e-09
6.82741e-09
6.26781e-09
5.21902e-09
4.15582e-09
3.35629e-09
2.52864e-09
1.45788e-09
1.28926e-09
1.26547e-09
1.09477e-09
1.08482e-09
1.10807e-09
8.58389e-10
1.55344e-09
1.10754e-08
1.59385e-08
1.92125e-09
1.38011e-09
1.2975e-09
1.33302e-09
1.35863e-09
1.77405e-09
2.4876e-09
2.428e-09
2.97874e-09
4.07059e-09
5.33556e-09
6.07966e-09
6.65694e-09
6.66141e-09
6.45527e-09
5.82957e-09
5.06652e-09
4.55509e-09
3.02882e-09
2.41293e-09
1.61594e-09
1.07978e-09
9.77588e-10
9.92861e-10
9.66294e-10
7.98651e-10
4.49834e-10
1.59916e-09
1.15731e-08
1.49161e-08
2.15433e-09
1.38115e-09
1.34357e-09
1.35852e-09
1.49513e-09
1.70017e-09
1.93135e-09
2.48829e-09
3.60793e-09
4.40341e-09
4.96016e-09
4.69791e-09
5.33136e-09
6.03023e-09
6.06798e-09
5.28769e-09
4.67016e-09
4.73758e-09
4.00946e-09
3.4347e-09
2.3013e-09
1.47225e-09
1.02415e-09
1.01387e-09
8.77679e-10
6.45562e-10
4.32341e-10
1.62099e-09
1.19878e-08
1.44745e-08
2.33212e-09
1.21588e-09
1.23969e-09
1.36838e-09
1.61813e-09
1.73897e-09
1.99388e-09
2.77858e-09
3.85743e-09
4.23313e-09
4.49849e-09
4.03715e-09
4.78285e-09
5.73216e-09
5.84523e-09
5.1438e-09
4.56514e-09
4.92566e-09
4.29902e-09
3.5522e-09
2.47316e-09
1.46177e-09
1.01097e-09
1.02233e-09
8.90787e-10
7.87006e-10
5.50471e-10
1.43624e-09
1.18903e-08
1.36927e-08
2.37533e-09
1.19289e-09
1.38203e-09
1.42037e-09
1.70576e-09
1.71719e-09
1.89185e-09
2.35945e-09
3.17309e-09
3.59909e-09
4.77552e-09
4.83605e-09
5.58851e-09
6.19725e-09
6.31014e-09
6.06104e-09
5.08657e-09
4.91612e-09
3.31041e-09
3.16379e-09
2.25169e-09
1.36114e-09
1.0471e-09
9.73748e-10
8.40331e-10
1.15304e-09
1.00797e-09
1.41324e-09
1.1907e-08
1.31315e-08
2.36788e-09
1.52879e-09
1.64388e-09
1.40102e-09
1.59412e-09
1.77766e-09
1.93849e-09
2.06794e-09
3.13187e-09
3.77907e-09
4.30587e-09
4.921e-09
5.74399e-09
6.4244e-09
6.61031e-09
6.14258e-09
5.01449e-09
4.24044e-09
3.14568e-09
3.18475e-09
1.95505e-09
1.71235e-09
1.3984e-09
9.38039e-10
8.98432e-10
1.71191e-09
1.67599e-09
1.93295e-09
1.18251e-08
1.21711e-08
2.49701e-09
1.74779e-09
1.74417e-09
1.79164e-09
2.16626e-09
2.33442e-09
2.40161e-09
2.3707e-09
2.85733e-09
3.28751e-09
3.55859e-09
3.87517e-09
4.90332e-09
6.04187e-09
6.4096e-09
5.47936e-09
4.38598e-09
3.64838e-09
3.16596e-09
2.94038e-09
2.50449e-09
2.12287e-09
1.69555e-09
1.30902e-09
1.23545e-09
1.83473e-09
1.73636e-09
2.41838e-09
1.13757e-08
1.13221e-08
2.63708e-09
1.70748e-09
1.55423e-09
2.14207e-09
2.53761e-09
2.24625e-09
2.09249e-09
1.91276e-09
2.0556e-09
2.1351e-09
2.67334e-09
2.84856e-09
3.7451e-09
4.92105e-09
5.80846e-09
5.12651e-09
4.0627e-09
3.10516e-09
2.46538e-09
2.37696e-09
2.25287e-09
2.11725e-09
1.93999e-09
2.0211e-09
1.77259e-09
1.6415e-09
1.39954e-09
2.61253e-09
1.0575e-08
1.05867e-08
2.98857e-09
1.96683e-09
1.73016e-09
2.78205e-09
3.0724e-09
2.20346e-09
1.71617e-09
1.52462e-09
1.58955e-09
1.52866e-09
1.60321e-09
1.66562e-09
2.53062e-09
2.74545e-09
3.6252e-09
3.42053e-09
3.01161e-09
2.12794e-09
1.83903e-09
2.07112e-09
1.87908e-09
1.86655e-09
2.17531e-09
2.86018e-09
2.61336e-09
1.761e-09
1.22337e-09
2.55163e-09
9.4355e-09
9.77998e-09
2.99797e-09
1.91566e-09
2.53113e-09
3.42104e-09
3.02627e-09
1.98074e-09
1.53103e-09
1.36051e-09
1.38677e-09
1.68807e-09
2.07936e-09
1.27949e-09
1.65671e-09
2.33187e-09
2.41522e-09
2.31563e-09
2.29057e-09