/*--------------------------------*- C++ -*----------------------------------*\
| =========                 |                                                 |
| \\      /  F ield         | OpenFOAM: The Open Source CFD Toolbox           |
|  \\    /   O peration     | Version:  v1912                                 |
|   \\  /    A nd           | Website:  www.openfoam.com                      |
|    \\/     M anipulation  |                                                 |
\*---------------------------------------------------------------------------*/
FoamFile
{
    version     2.0;
    format      ascii;
    class       volScalarField;
    location    "414/oil";
    object      heatTransferCoeff(T);
}
// * * * * * * * * * * * * * * * * * * * * * * * * * * * * * * * * * * * * * //

dimensions      [1 0 -3 -1 0 0 0];


internalField   uniform 0;

boundaryField
{
    maxY
    {
        type            calculated;
        value           uniform 0;
    }
    minX
    {
        type            calculated;
        value           uniform 0;
    }
    maxX
    {
        type            calculated;
        value           uniform 0;
    }
    minY
    {
        type            calculated;
        value           uniform 0;
    }
    minZ
    {
        type            calculated;
        value           uniform 0;
    }
    maxZ
    {
        type            calculated;
        value           uniform 0;
    }
    oil_to_sphere
    {
        type            calculated;
        value           nonuniform List<scalar> 
1536
(
-14.3232
-9.17552
-9.04843
0.308312
0.527711
-8.93586
-4.77311
-6.50225
-5.88538
-0.514372
3.27054
-1.22345
-5.79491
-1.41329
4.46802
-4.21792
-8.94565
-9.29683
-3.94473
-5.5243
-7.69998
-5.97028
-6.32879
-4.16249
-4.66293
-4.41133
-4.64848
-3.53346
-8.62792
-6.13219
-10.1706
-9.2136
-9.3888
-4.27633
-4.57745
-3.58089
-4.05935
-2.54664
-3.4935
-4.62288
-3.28583
-4.03254
-5.70897
-6.75868
-8.02138
-4.55869
-7.57973
-6.2398
4.06517
-4.3806
-7.21849
-5.95606
-6.14083
-4.16048
-8.46126
-11.9807
-6.27312
-5.53522
-7.61482
-7.14165
-5.578
-5.7409
-5.47493
-4.02313
-4.5232
-5.35254
-5.51153
-7.33408
-7.29594
-8.44131
-3.99792
0.549616
-1.117
-4.424
-4.40222
-12.3216
-9.45571
-2.58369
-4.22947
-9.11579
-7.76897
-7.005
0.2625
0.395834
-8.60238
-13.3238
1.59596
-5.07609
-7.146
-7.12195
-5.87432
-3.75301
-3.66622
-3.9001
-4.39336
-6.71582
-7.64964
-8.00464
-9.83149
-7.0035
-7.80335
-3.92482
-14.4015
-7.26011
-0.89248
-4.30184
-4.72623
-0.0535487
-0.00220315
-14.5291
-9.40411
-6.47241
-5.70318
-6.33817
0.998662
0.506204
2.01405
-11.0348
-13.8416
-9.68715
-6.10814
-6.3382
-3.43492
-7.58899
-10.1148
-6.73965
-6.07643
-3.09566
-7.90573
-7.60095
-5.37321
-7.39274
-8.395
-4.78238
-5.10001
-8.7033
-6.36743
-9.15532
-3.19094
-8.99788
-5.9348
-7.54104
-7.59397
-5.78022
-5.18861
-5.66556
-6.81465
-10.8017
-5.11082
-14.6182
-8.23661
-8.96796
-6.27246
-6.55511
-4.42838
-6.73718
-8.67434
-7.47288
-15.4563
-9.79876
-9.39098
-11.0418
-1.80904
-2.62495
-3.82203
-3.73821
-8.39786
-10.5801
-9.83556
-11.9907
-3.50858
-3.82798
-2.63011
-7.66018
-6.06839
-6.54883
-12.8799
-2.05685
-0.844059
-13.3276
-3.63334
-2.70303
-2.50297
-2.98859
-7.10237
-13.3329
-9.83454
-3.26803
-1.62815
-9.21128
-1.95875
-8.32434
-8.33639
-10.6246
-1.16469
5.58722
-10.4277
-11.1393
-4.64202
-4.37004
-5.97604
-4.83559
-9.28877
-10.3665
-8.10601
-7.01838
-3.85722
-10.7733
-9.86768
-6.46605
-3.09266
-4.52079
-4.31228
-4.89415
-7.74838
-12.143
-1.59079
-1.32771
-1.48663
6.29025
-8.91995
-7.69074
-6.96634
-5.92775
-6.14672
-10.7801
-8.28691
-4.42227
-8.94704
-0.552572
-3.59758
5.35927
-5.76368
-8.58715
-10.4532
-9.91733
-8.94975
-7.87218
-9.6723
-1.11724
-1.85806
-2.46676
-11.2609
-2.82703
5.46148
1.82242
-7.7345
-5.54051
-12.9574
-15.2635
-6.42503
0.411533
6.1472
-7.12435
-9.70838
-3.91338
-4.0707
1.22578
-3.72332
-10.7672
-13.5248
-5.46923
-4.05607
-11.7243
-9.86035
-4.47728
-0.953607
-5.09135
-12.3086
-11.0841
-7.88402
-8.35213
-10.2377
-2.49733
-4.27619
-10.5069
-8.34349
-9.05254
-5.70665
-8.95415
-12.0008
-8.05152
-7.63104
-11.4443
-3.9468
-3.88524
-4.3275
-3.49524
-3.79464
-10.6954
-12.4733
-1.13034
-4.95293
-4.67848
-4.87195
-3.256
-6.14953
-5.65126
-2.7118
1.16064
-3.66295
-1.27994
-3.22378
-13.3443
-11.5667
-11.4682
-14.7608
-2.17577
-2.54845
-5.93296
-14.641
-13.4643
-3.59943
-5.743
-3.33189
-8.24531
-4.15511
-7.59785
-8.02549
-9.47079
-8.49561
-4.57308
-8.67336
-3.60925
-10.2663
-10.9297
-9.12655
-8.70526
-2.85857
-12.6081
-12.3651
-8.10745
-1.04741
-3.89098
-4.79552
-8.04531
-7.53931
-8.30673
-2.69174
-10.1819
-10.2577
-9.52502
-11.4372
-7.3762
-6.73062
-5.52663
-1.84519
-6.75348
-8.14235
-1.80213
-1.43513
-2.34669
-14.0727
-10.0685
-11.4363
-7.49603
-6.63902
-10.5673
-1.56024
-12.9607
-9.47047
-6.74989
-6.63895
-1.22576
-9.40302
-9.95273
-3.04774
-6.76327
-5.41278
-4.07092
-8.257
-10.0962
-5.70427
-4.44078
-2.20904
-12.1547
-10.3037
-1.38735
-10.6147
-9.88902
-8.92103
-12.1424
-6.68425
-8.52565
-0.387835
-1.2114
-8.00263
-14.5608
-9.14744
-12.9075
-7.4198
-4.74497
-9.8028
-2.31082
-3.30484
-7.54857
-10.0026
-8.33347
-7.55242
-2.52243
-2.56082
-10.5277
-10.1789
-10.3172
-6.55981
-3.73928
-7.69262
-8.71588
-9.94504
-6.85891
-5.08199
-2.86743
-6.41024
-2.06161
-0.0678845
-3.87081
-2.92198
-6.49384
-0.557506
-4.80833
-12.5988
-4.6909
-4.62792
-9.94184
-9.88424
-8.16155
-5.43199
-1.749
-9.09611
-11.5038
-7.90349
-6.91365
-9.29967
-5.75934
-6.30499
-7.40458
0.316494
-7.80715
-10.2694
-11.384
-9.74529
-8.58658
-8.37571
-6.90976
-5.1991
-2.31859
-6.07549
-2.87897
-1.24113
-3.34647
-0.0425098
-13.5009
-12.7956
-10.9656
-14.2263
-2.12046
-13.5711
-2.65267
-3.66174
-8.91677
-1.74271
-2.49266
-4.87021
-4.70602
-12.9722
-11.5236
-7.42234
-7.78263
-12.0627
-10.5592
-6.85616
-8.67506
-3.17373
-10.0159
-1.04497
-11.3248
0.362379
-8.43183
-9.06754
-9.74014
-4.54247
-2.27381
-5.33385
-9.90235
-5.57506
-0.674984
-9.96832
-10.3804
-10.9587
-14.9658
-6.77933
-11.9055
-2.12993
-2.77662
3.844
1.80698
-6.83694
-4.85645
-4.18892
-3.35135
-13.9351
-2.49112
-1.57929
-0.864843
-4.84174
-0.473336
-15.3859
-3.11803
-3.49989
-6.10453
3.1455
1.31867
-3.90891
-3.77379
-5.71445
-4.42403
-10.346
-9.71969
-8.40085
-6.8029
-0.191676
-4.1646
-9.52627
-2.30667
-3.06801
-9.10551
-12.2159
-3.14498
3.9022
-1.84997
3.29132
-5.99633
-4.55559
-3.51595
-1.00457
3.16227
-8.26433
-8.98952
-7.57369
-5.89999
-12.3473
-8.43035
-8.06618
-6.6476
-2.82111
-4.34628
-10.3231
-8.40926
-5.01112
1.99258
-6.99482
-9.28911
-12.6421
-7.16815
-3.84206
-12.6899
-6.0922
-11.9752
-3.12434
-4.57033
-2.45484
-4.68813
-7.08601
-12.2305
-2.06362
-3.47448
-2.79361
-4.8366
-15.5478
-0.991124
-4.27551
-1.50734
-6.10834
-7.06069
-10.3688
-12.3626
-0.14168
-1.07664
-12.2806
-12.8911
0.809897
-11.9385
-10.6357
-9.13134
-10.4538
-8.05981
-6.41212
-6.69715
-12.1066
-6.8272
-8.1595
-6.39459
-9.96727
-7.18961
-6.009
-5.65488
-1.8473
-9.11813
-5.85227
-9.87838
-8.55612
-8.66334
-8.38814
-6.86598
-1.20573
-10.4749
-10.4332
-8.22539
-5.95321
-7.30035
-14.3621
-0.364444
-3.03531
-2.04248
-6.94661
-3.18818
-14.4189
-4.7024
-5.22644
-6.2135
3.73661
2.88362
-4.06728
-3.96414
-6.68365
-2.45622
-3.38896
-7.08766
-3.5042
-12.4076
-1.77504
-14.1049
-4.57563
-6.81236
5.49144
3.08095
3.91661
-3.52108
-9.14173
-4.24964
-3.53401
3.22276
-6.48843
-9.38737
-6.5872
-16.7743
-3.13318
-10.3321
-8.06508
-9.32955
-10.7744
-10.556
-9.26965
-6.11343
-5.07689
-6.05726
-9.32891
-5.43533
-7.6414
-7.0979
-7.5381
-9.76922
-8.41557
-9.09165
-1.73548
-2.90532
5.72783
1.1611
0.0641412
8.73293
-3.89349
-4.43643
-5.44806
-5.99047
-0.0566096
-1.94069
-4.99553
-11.1131
-10.5197
-4.89804
-0.802317
-5.77608
-9.61338
-8.14161
-6.25767
-0.432905
-3.13045
-8.29935
-7.29424
-6.16356
-4.05951
-8.7772
-8.85473
-12.1437
-8.93227
-6.9435
-4.43168
-3.30841
-1.76168
-3.73739
-5.51098
-14.7005
-6.84305
-13.3201
-3.09828
-15.1074
-3.90676
-5.6261
-2.12269
-2.62354
-4.48004
-1.62858
-5.34134
-0.519681
-4.13406
-10.2334
-4.79715
-1.33136
-12.4826
-8.62045
-7.73683
-5.82334
-11.9115
-17.5018
1.07004
-8.47924
-7.4057
-8.14324
-1.6
-5.91092
-3.30264
-7.47789
-8.93364
-10.5943
-2.77047
-8.26712
-6.60359
-8.84715
-8.52878
-8.03125
-4.91393
-5.52049
-4.19289
-0.728963
-0.172981
-2.39254
-11.7131
-4.15364
-1.5467
-4.29886
-10.3729
-5.28345
-11.6618
-9.68959
-7.87739
-6.93087
-7.7705
-12.7613
-2.40355
-8.39745
-10.6353
-11.1861
-6.83083
-3.26182
-5.15178
-7.78506
-11.3337
-2.04171
-5.58002
-6.67119
-10.2461
-7.81369
-7.69656
-11.8504
-2.13816
-3.47765
-2.82192
-12.7843
-10.5302
-6.73232
-10.1996
-3.5369
-4.12388
-10.1813
-7.65078
-12.1832
-2.63861
-9.38605
-9.9991
-7.08604
-7.51647
-9.0907
-2.72065
0.112559
-6.3487
-7.68379
-12.9282
-5.70637
-3.7961
-6.05329
-7.83704
-9.30183
-6.93871
-3.37147
-5.74887
-9.96441
-2.09658
-3.39576
-5.75931
-4.0624
-7.36677
-6.9083
-11.0765
-8.10944
-9.72267
-4.26989
-6.09161
-7.35738
-5.92491
-5.14206
-4.41993
-4.35586
-2.24725
-8.7098
-7.22666
-7.23667
-7.90003
-1.0746
-4.71081
-12.589
-12.7154
-3.38205
-10.3097
-7.81364
-8.67968
-4.27425
-11.2466
-10.9021
-2.53428
-5.27775
-4.63143
-4.4152
-0.88561
-1.96382
-4.63281
-10.7745
-14.3578
-3.81184
-9.04547
-8.68858
-7.71158
-5.44365
-7.39446
-11.0381
-7.18365
-2.68908
-4.74819
-4.29813
-4.5069
-8.14681
-8.6327
-8.73489
-8.99244
-8.94701
-3.40594
-9.25881
-4.8719
-8.42641
3.16493
-7.91845
-11.5718
-5.12181
1.07639
-6.22975
-5.51244
-13.3196
-2.90753
-9.26577
-6.01009
0.192525
-12.3873
-1.31365
-5.58551
-6.4229
-1.01638
-10.3134
-7.45113
-5.43763
-6.69441
-7.41476
-5.58093
-13.6148
-1.43674
-4.53519
4.51281
-4.86755
-5.15693
-6.59206
-10.2684
-17.8104
-0.568476
-4.58272
-16.132
-1.34954
-8.87613
-3.26266
-8.66773
1.50987
-2.92297
-15.9588
0.526126
-14.7869
-0.313052
-13.0489
0.136244
-2.84446
3.97981
-1.43688
-15.2368
2.60641
-5.91321
0.552546
-11.8448
-15.306
2.3332
-5.14922
-3.92423
-2.70457
-2.54064
-4.66842
-6.47905
-6.45481
-8.53555
-6.06005
-12.0077
-16.5527
2.44805
-6.4115
-7.91387
-6.47472
-7.07685
-5.79764
-5.12944
-5.77812
-9.56589
-5.89938
-9.66994
-4.46431
-7.21108
-11.573
-5.08691
-8.34421
-10.4004
-4.44414
-7.21094
-6.02144
-8.47141
-5.60741
-6.7908
-5.21908
-10.145
-4.78029
-7.68721
-0.249897
-12.2265
2.08937
-7.62996
-9.92447
-12.4627
-3.02645
-6.98413
-6.07684
-6.98508
-6.58297
-5.88786
-9.48446
-2.42904
5.75053
-5.10888
1.01438
-10.5613
-3.11957
-6.33838
-8.74608
5.10221
-11.2461
-2.21317
3.45207
-2.75935
-8.91284
-8.59077
-6.5452
2.51025
-6.4561
-7.19818
-3.76272
-3.155
-10.7181
-10.0141
-4.17469
-6.67382
-10.7479
2.3903
-9.45582
-3.0456
-8.35626
1.91105
-14.3031
-13.9141
-10.0012
-6.44218
-5.12902
-8.73696
-4.92113
2.5846
-2.05592
-9.07526
-3.27696
-7.98749
1.11336
-10.431
-8.33135
7.58604
-6.48608
-7.46544
4.76181
-11.3993
-0.122989
-10.643
-12.2961
-9.37891
3.28157
-6.75473
-5.32956
-6.54487
-6.86408
-8.03067
2.30795
-4.35968
-3.40457
-3.42868
-10.2837
-6.26217
-7.52019
-8.60494
-8.3476
-5.25849
-6.92444
-5.50477
-7.64798
-10.8534
-4.16375
-5.04152
-3.89796
-6.80123
-9.87237
-4.10059
-4.91382
-4.51301
-6.33211
-3.37294
-3.73714
-4.87227
-5.22085
-6.83807
-4.71934
-12.183
-9.48769
0.702121
0.582429
-11.4104
8.70315
-9.19315
-7.16301
-3.35302
-5.23274
-11.6006
5.1182
-10.5537
-7.526
2.90014
-4.57318
-3.74106
-6.29325
5.59943
-11.3951
-7.66206
4.95296
-11.0173
-11.0874
1.67814
-12.5107
-9.99226
1.55249
-3.8637
-3.39047
5.00793
-6.4505
-6.97482
-2.11113
-3.04803
-2.62788
7.26206
-2.94009
5.4726
7.87389
-10.1949
-3.88873
-15.2525
-4.14499
2.36639
-11.4843
-5.50481
4.04753
-4.14892
-3.91623
4.15847
0.572181
-11.111
10.2036
-2.09417
-1.20468
8.74361
-10.5376
-9.65259
-6.41487
-4.81651
-3.82865
-2.13433
6.31806
-6.56515
-4.90033
-5.10827
-6.43017
3.44155
-8.94736
-4.18011
-5.88018
-3.75346
-5.7204
-6.8096
-1.83857
3.02356
-4.65792
-6.97587
-4.08373
-4.8
-6.0242
-3.02831
-5.0102
3.66812
-4.17001
-7.47406
-3.82559
-5.26972
-3.16598
2.87162
-11.5482
-11.365
-10.9765
-12.5029
1.72986
4.69359
-4.25557
-9.18057
-6.95352
-8.82509
-9.5533
-2.10994
-1.11777
4.54979
2.35054
-3.00379
-5.94548
-5.65075
-5.44076
-1.13679
-10.2644
-7.5663
1.45419
-2.81673
-1.91185
-9.45612
-3.12463
6.36888
-5.90162
-6.21259
-10.5079
3.83758
-3.81481
-6.84104
-4.45064
-5.24803
-8.65138
-5.82949
-2.23722
-13.0065
7.97796
-0.335308
-5.34355
-3.07211
-4.68891
-12.4394
-7.72877
-6.25089
-0.542581
-11.6241
-4.34609
-6.79621
-9.5421
-10.5078
-10.1317
-10.4753
-12.0875
-13.1422
-11.9031
-11.9198
-6.29765
-9.76726
-4.14985
-5.22836
-0.987634
0.224084
7.12555
-12.6365
-12.3308
-10.9567
-5.01856
-6.83752
-6.52511
-3.22462
-7.09132
-9.69661
-2.392
-5.4929
-8.42752
-3.83459
-4.25609
-4.02149
-4.95388
-2.99689
-4.80627
-4.41156
1.88375
-6.79788
-2.46651
-5.45687
4.15418
-12.5933
-5.66649
-3.54178
-2.82068
1.34903
-6.18285
-3.67101
4.9376
-0.381652
-5.5549
0.402733
-0.779945
-13.3593
-13.8758
-4.45431
-4.49907
-9.04192
-12.3676
5.05672
-3.14012
-2.99064
-4.71778
-4.68217
-5.07793
-5.77887
-1.02524
2.71588
-11.3594
-4.57056
-0.0814455
-0.935139
-4.45452
-6.32676
1.2635
-5.15353
-3.19485
-4.148
-12.4527
-0.222585
2.54817
-4.67157
-3.79715
-2.97767
2.59456
-10.541
-4.37825
-4.18374
-4.41562
4.87311
-4.44036
-4.67021
2.36398
-4.31835
-0.356133
-7.58962
-11.232
-3.2033
-9.76516
-7.38426
-3.3799
-3.55194
-4.82522
2.58345
-7.27715
-7.9304
-3.96665
3.84962
-1.79551
-5.32607
-5.66171
-3.28434
3.0834
-3.47313
-10.5238
-7.38661
-3.5724
-13.2175
-0.255728
-9.47252
4.68526
0.00547544
-9.86757
4.8704
-10.1999
-3.48518
-6.30505
-4.16387
-13.7189
-1.33976
-6.42127
-12.4743
-11.5817
0.796287
-11.2543
-12.464
8.44508
-5.14556
-3.7585
4.40363
-7.87116
-3.65392
-4.19877
-4.21571
-5.85088
-5.12192
-3.97519
-3.56549
4.70288
-7.86407
-6.28911
-6.02568
-6.77416
-5.01769
-3.35885
-1.86034
-8.91172
6.10921
-2.86766
-2.60093
5.69013
-9.96111
-12.9252
-5.54053
-10.9444
-11.5932
-3.16331
-3.28183
-7.79636
-10.8937
-2.99186
-8.38043
-0.90783
4.38787
-9.05461
-2.4409
-10.5102
-13.1782
-12.3089
3.83961
-9.59005
-6.4269
-2.20711
-3.92496
-4.70034
-3.70065
3.64885
-10.8165
3.32482
-10.6431
-4.94623
-0.908869
0.00193309
-5.00562
-8.57567
-11.9385
-6.12587
-14.6823
-9.17835
-10.2519
5.09583
-9.7192
-8.79602
-10.5309
-3.14134
-2.32765
6.17532
-5.59109
-14.292
-10.9826
2.82787
-1.2452
3.43471
-3.13527
-5.79489
-0.788031
-16.9933
-4.21952
-1.27735
2.58235
-7.32122
-2.43017
5.46911
-5.2247
-3.59712
-3.75868
-3.92107
-3.99361
2.48948
-0.89396
4.33937
-3.64298
-9.12466
-7.62831
-11.249
-10.513
-2.87831
-1.88048
4.75585
-3.42817
-8.58973
-11.7498
-9.15699
-9.47812
-0.116275
5.80066
-1.42532
6.51863
-9.00309
-9.38121
-1.88952
-10.1235
-8.88829
-11.2809
-7.03706
-6.31933
-6.17729
-2.87786
4.9385
-1.62144
3.89541
-0.586611
-3.92736
-3.27849
1.8573
3.90754
-8.30782
-14.3433
-13.221
-12.3122
-6.05194
-8.14656
-7.95558
-5.5789
-3.89814
-5.58618
-2.18918
-4.92063
-4.9656
3.85203
-8.85714
-4.55259
-1.27299
2.03507
-3.51402
-5.93945
-5.88443
-3.29786
1.98647
-11.9955
-7.26067
-3.71534
-13.1015
-2.37063
4.26971
-7.62298
-4.94108
-4.99884
-5.00155
-3.43083
6.1664
-4.94663
-4.8621
3.24767
-11.6572
-4.37229
10.1713
-3.90587
-5.7276
-6.06355
-3.40123
3.67195
-2.68758
-2.94503
0.225638
-5.22908
4.70273
-5.45828
-5.1658
0.653385
-12.9524
-4.83327
2.37158
-13.9975
-5.61847
-5.61391
2.11792
-5.16668
3.36283
)
;
    }
}


// ************************************************************************* //
