/*--------------------------------*- C++ -*----------------------------------*\
| =========                 |                                                 |
| \\      /  F ield         | OpenFOAM: The Open Source CFD Toolbox           |
|  \\    /   O peration     | Version:  v1906                                 |
|   \\  /    A nd           | Web:      www.OpenFOAM.com                      |
|    \\/     M anipulation  |                                                 |
\*---------------------------------------------------------------------------*/
FoamFile
{
    version     2.0;
    format      ascii;
    class       volVectorField;
    location    "97.8/oil";
    object      U;
}
// * * * * * * * * * * * * * * * * * * * * * * * * * * * * * * * * * * * * * //

dimensions      [0 1 -1 0 0 0 0];


internalField   nonuniform List<vector> 
27760
(
(-2.47863e-05 -2.51275e-05 -2.47863e-05)
(-4.45365e-05 -1.60428e-05 -1.52374e-05)
(-4.64278e-06 -4.26658e-06 -4.28653e-06)
(-5.40277e-06 -8.15592e-07 -9.3967e-07)
(-1.19884e-06 -2.61583e-07 -4.08087e-07)
(-3.26001e-07 -8.97232e-08 -2.51974e-07)
(3.71924e-07 5.55037e-09 -1.69927e-07)
(7.36842e-07 4.86208e-08 -1.36204e-07)
(9.41185e-07 7.35636e-08 -1.1696e-07)
(1.01853e-06 8.95569e-08 -1.03511e-07)
(9.91313e-07 1.0095e-07 -9.23427e-08)
(8.7332e-07 1.09738e-07 -8.22626e-08)
(6.79466e-07 1.16264e-07 -7.39727e-08)
(4.27247e-07 1.20667e-07 -6.79885e-08)
(1.37889e-07 1.22964e-07 -6.47995e-08)
(-1.64962e-07 1.23108e-07 -6.46579e-08)
(-4.56961e-07 1.21144e-07 -6.752e-08)
(-7.15099e-07 1.17222e-07 -7.30146e-08)
(-9.19696e-07 1.11538e-07 -8.04557e-08)
(-1.0563e-06 1.0433e-07 -8.89369e-08)
(-1.11657e-06 9.60626e-08 -9.69698e-08)
(-1.09873e-06 8.6981e-08 -1.03427e-07)
(-1.00868e-06 7.68845e-08 -1.07338e-07)
(-8.59105e-07 6.63468e-08 -1.07274e-07)
(-6.68314e-07 5.56559e-08 -1.02206e-07)
(-4.59856e-07 4.53241e-08 -9.15372e-08)
(-2.60879e-07 3.6392e-08 -7.54881e-08)
(-1.0026e-07 3.06585e-08 -5.55683e-08)
(-2.57304e-09 3.00632e-08 -3.55177e-08)
(1.51359e-08 2.96333e-08 -1.51142e-08)
(-1.53189e-05 -4.55462e-05 -1.53189e-05)
(-6.92397e-06 -7.47027e-06 -6.97415e-06)
(-7.03478e-06 -7.39253e-06 -2.56882e-06)
(-3.19929e-06 -2.38809e-06 -8.38738e-07)
(-9.0977e-07 -1.41191e-06 -4.25427e-07)
(3.05585e-07 -7.76752e-07 -2.24101e-07)
(1.19462e-06 -4.80056e-07 -1.25962e-07)
(1.75208e-06 -2.99113e-07 -7.58853e-08)
(2.07564e-06 -1.72409e-07 -4.41492e-08)
(2.18595e-06 -7.06896e-08 -2.03459e-08)
(2.10133e-06 1.55932e-08 -1.06705e-10)
(1.83946e-06 8.8721e-08 1.74219e-08)
(1.42559e-06 1.46993e-07 3.17503e-08)
(8.9401e-07 1.8803e-07 4.20395e-08)
(2.87146e-07 2.0966e-07 4.75005e-08)
(-3.47127e-07 2.10812e-07 4.77678e-08)
(-9.59204e-07 1.9175e-07 4.29125e-08)
(-1.50221e-06 1.54199e-07 3.34996e-08)
(-1.93608e-06 1.01307e-07 2.06119e-08)
(-2.23102e-06 3.72721e-08 5.69948e-09)
(-2.37004e-06 -3.27431e-08 -9.50998e-09)
(-2.35042e-06 -1.0342e-07 -2.32943e-08)
(-2.18359e-06 -1.69507e-07 -3.37946e-08)
(-1.89438e-06 -2.25132e-07 -3.9709e-08)
(-1.5195e-06 -2.64378e-07 -4.00027e-08)
(-1.10451e-06 -2.80669e-07 -3.43471e-08)
(-7.00128e-07 -2.66345e-07 -2.36189e-08)
(-3.56787e-07 -2.13374e-07 -1.04086e-08)
(-1.15684e-07 -1.17138e-07 -8.94804e-11)
(-3.114e-09 -3.38749e-09 3.14642e-09)
(-4.32177e-06 -5.60614e-06 -4.32178e-06)
(-7.16121e-06 -8.09042e-06 -2.5886e-06)
(-3.55976e-06 -4.93357e-06 -1.19374e-06)
(-1.81784e-06 -3.06431e-06 -5.72041e-07)
(-1.04883e-07 -2.2558e-06 -2.62575e-07)
(1.06606e-06 -1.72781e-06 -1.10359e-07)
(1.96492e-06 -1.40356e-06 -2.92736e-08)
(2.57408e-06 -1.15378e-06 1.73169e-08)
(2.92827e-06 -9.38412e-07 4.98934e-08)
(3.02897e-06 -7.40216e-07 7.60756e-08)
(2.88465e-06 -5.5786e-07 9.89661e-08)
(2.51183e-06 -3.9685e-07 1.18929e-07)
(1.94062e-06 -2.65418e-07 1.3528e-07)
(1.21477e-06 -1.71713e-07 1.46995e-07)
(3.89801e-07 -1.2207e-07 1.53262e-07)
(-4.71074e-07 -1.19672e-07 1.5357e-07)
(-1.30236e-06 -1.64057e-07 1.47996e-07)
(-2.04191e-06 -2.50945e-07 1.37212e-07)
(-2.63657e-06 -3.72476e-07 1.22345e-07)
(-3.04689e-06 -5.17916e-07 1.04954e-07)
(-3.25037e-06 -6.74485e-07 8.68065e-08)
(-3.24313e-06 -8.28251e-07 6.97046e-08)
(-3.03996e-06 -9.64548e-07 5.53208e-08)
(-2.67292e-06 -1.06874e-06 4.49381e-08)
(-2.18845e-06 -1.12576e-06 3.92984e-08)
(-1.6434e-06 -1.12e-06 3.83296e-08)
(-1.09968e-06 -1.03507e-06 4.07198e-08)
(-6.16677e-07 -8.55073e-07 4.33062e-08)
(-2.45353e-07 -5.685e-07 4.01468e-08)
(-2.21908e-08 -1.93373e-07 2.22276e-08)
(-8.9064e-07 -6.47149e-06 -8.90655e-07)
(-1.93762e-06 -5.31667e-06 -7.87226e-07)
(-1.2586e-06 -4.76146e-06 -5.36632e-07)
(-2.74651e-07 -3.91832e-06 -2.62214e-07)
(9.12768e-07 -3.44113e-06 -9.66479e-08)
(1.91376e-06 -3.06397e-06 -2.02506e-09)
(2.74453e-06 -2.75699e-06 5.62301e-08)
(3.34053e-06 -2.46014e-06 9.51883e-08)
(3.68282e-06 -2.16015e-06 1.25848e-07)
(3.75134e-06 -1.85791e-06 1.52471e-07)
(3.54268e-06 -1.56568e-06 1.76592e-07)
(3.06994e-06 -1.30058e-06 1.97942e-07)
(2.36525e-06 -1.08088e-06 2.15528e-07)
(1.47882e-06 -9.23042e-07 2.28162e-07)
(4.75632e-07 -8.39171e-07 2.34897e-07)
(-5.69631e-07 -8.35561e-07 2.35203e-07)
(-1.57922e-06 -9.11602e-07 2.29147e-07)
(-2.47933e-06 -1.05966e-06 2.17401e-07)
(-3.20679e-06 -1.26571e-06 2.01163e-07)
(-3.71475e-06 -1.51045e-06 1.82039e-07)
(-3.97636e-06 -1.77084e-06 1.61823e-07)
(-3.98679e-06 -2.02165e-06 1.42309e-07)
(-3.76285e-06 -2.23664e-06 1.2507e-07)
(-3.34113e-06 -2.38947e-06 1.11298e-07)
(-2.77424e-06 -2.45383e-06 1.01537e-07)
(-2.12591e-06 -2.40345e-06 9.54978e-08)
(-1.46502e-06 -2.21179e-06 9.16726e-08)
(-8.57294e-07 -1.85244e-06 8.64952e-08)
(-3.64556e-07 -1.29828e-06 7.34062e-08)
(-3.85664e-08 -5.27009e-07 3.86081e-08)
(-2.88644e-07 -2.77975e-06 -2.88665e-07)
(-7.46178e-07 -4.35338e-06 -3.12278e-07)
(-1.12464e-07 -4.9215e-06 -1.8939e-07)
(7.3467e-07 -4.94643e-06 -6.44247e-08)
(1.74557e-06 -4.88281e-06 2.38063e-08)
(2.68249e-06 -4.71094e-06 8.17376e-08)
(3.48492e-06 -4.46437e-06 1.23238e-07)
(4.07263e-06 -4.14431e-06 1.55797e-07)
(4.39962e-06 -3.76876e-06 1.84714e-07)
(4.43241e-06 -3.36152e-06 2.11796e-07)
(4.15927e-06 -2.95247e-06 2.37259e-07)
(3.59078e-06 -2.57369e-06 2.60202e-07)
(2.76087e-06 -2.2562e-06 2.79252e-07)
(1.72529e-06 -2.02675e-06 2.92993e-07)
(5.57455e-07 -1.90474e-06 3.00304e-07)
(-6.57673e-07 -1.90017e-06 3.00586e-07)
(-1.83135e-06 -2.01239e-06 2.93891e-07)
(-2.87927e-06 -2.22998e-06 2.80929e-07)
(-3.72926e-06 -2.53161e-06 2.63008e-07)
(-4.3278e-06 -2.88789e-06 2.41827e-07)
(-4.64421e-06 -3.26376e-06 2.19287e-07)
(-4.67268e-06 -3.62085e-06 1.97255e-07)
(-4.43157e-06 -3.9194e-06 1.77316e-07)
(-3.96107e-06 -4.11987e-06 1.60625e-07)
(-3.31876e-06 -4.18335e-06 1.47653e-07)
(-2.57408e-06 -4.07159e-06 1.37987e-07)
(-1.80226e-06 -3.74591e-06 1.29989e-07)
(-1.07597e-06 -3.16507e-06 1.19682e-07)
(-4.69526e-07 -2.27577e-06 9.97026e-08)
(-5.19096e-08 -9.86891e-07 5.19595e-08)
(-9.66315e-08 -2.60355e-06 -9.66512e-08)
(1.14325e-08 -4.71719e-06 -7.26402e-08)
(6.46187e-07 -5.88923e-06 -8.07483e-09)
(1.48875e-06 -6.45373e-06 5.46955e-08)
(2.45994e-06 -6.70703e-06 1.04755e-07)
(3.39415e-06 -6.70864e-06 1.42793e-07)
(4.2024e-06 -6.52031e-06 1.74912e-07)
(4.7964e-06 -6.17965e-06 2.04327e-07)
(5.11463e-06 -5.72946e-06 2.33283e-07)
(5.11436e-06 -5.21476e-06 2.62057e-07)
(4.77789e-06 -4.68368e-06 2.89931e-07)
(4.1141e-06 -4.18461e-06 3.15427e-07)
(3.15913e-06 -3.76283e-06 3.36759e-07)
(1.97432e-06 -3.45666e-06 3.5219e-07)
(6.41754e-07 -3.29382e-06 3.60389e-07)
(-7.43233e-07 -3.28862e-06 3.60639e-07)
(-2.08075e-06 -3.44042e-06 3.52977e-07)
(-3.27584e-06 -3.73355e-06 3.38202e-07)
(-4.24726e-06 -4.1386e-06 3.17781e-07)
(-4.93478e-06 -4.61494e-06 2.93635e-07)
(-5.30413e-06 -5.11427e-06 2.67889e-07)
(-5.34848e-06 -5.58365e-06 2.42586e-07)
(-5.08794e-06 -5.96863e-06 2.19424e-07)
(-4.56642e-06 -6.21529e-06 1.9964e-07)
(-3.84654e-06 -6.27096e-06 1.83719e-07)
(-3.00383e-06 -6.0839e-06 1.7118e-07)
(-2.1207e-06 -5.60086e-06 1.6024e-07)
(-1.27807e-06 -4.76066e-06 1.46449e-07)
(-5.63555e-07 -3.47348e-06 1.21439e-07)
(-6.31824e-08 -1.55646e-06 6.32449e-08)
(6.74342e-09 -2.73421e-06 6.73174e-09)
(3.78498e-07 -5.58529e-06 5.01551e-08)
(1.11919e-06 -7.32788e-06 9.30933e-08)
(2.04667e-06 -8.34454e-06 1.30052e-07)
(3.06827e-06 -8.88317e-06 1.61941e-07)
(4.05296e-06 -9.04569e-06 1.90239e-07)
(4.90193e-06 -8.9154e-06 2.18249e-07)
(5.52258e-06 -8.55657e-06 2.47394e-07)
(5.84409e-06 -8.03354e-06 2.78315e-07)
(5.8171e-06 -7.41119e-06 3.10338e-07)
(5.41957e-06 -6.756e-06 3.42009e-07)
(4.65951e-06 -6.1334e-06 3.71303e-07)
(3.5757e-06 -5.60374e-06 3.95956e-07)
(2.23591e-06 -5.21794e-06 4.13818e-07)
(7.31536e-07 -5.01277e-06 4.23285e-07)
(-8.30761e-07 -5.00725e-06 4.23498e-07)
(-2.33907e-06 -5.20084e-06 4.14486e-07)
(-3.68692e-06 -5.57327e-06 3.9716e-07)
(-4.78334e-06 -6.08642e-06 3.73216e-07)
(-5.56113e-06 -6.6876e-06 3.44929e-07)
(-5.9822e-06 -7.31418e-06 3.14753e-07)
(-6.03914e-06 -7.89791e-06 2.85029e-07)
(-5.75433e-06 -8.36879e-06 2.57729e-07)
(-5.17596e-06 -8.65771e-06 2.34224e-07)
(-4.37264e-06 -8.69715e-06 2.15086e-07)
(-3.42691e-06 -8.42034e-06 1.99792e-07)
(-2.42945e-06 -7.75663e-06 1.86393e-07)
(-1.47051e-06 -6.61998e-06 1.69897e-07)
(-6.51131e-07 -4.87427e-06 1.4076e-07)
(-7.33278e-08 -2.22543e-06 7.34091e-08)
(5.24621e-08 -3.26696e-06 5.24629e-08)
(5.97506e-07 -6.90092e-06 1.14831e-07)
(1.45902e-06 -9.19328e-06 1.52637e-07)
(2.4995e-06 -1.06156e-05 1.80379e-07)
(3.61219e-06 -1.14185e-05 2.05038e-07)
(4.67851e-06 -1.1733e-05 2.30053e-07)
(5.59277e-06 -1.16609e-05 2.57911e-07)
(6.25749e-06 -1.12875e-05 2.89411e-07)
(6.59422e-06 -1.06956e-05 3.24331e-07)
(6.54764e-06 -9.96859e-06 3.61392e-07)
(6.09184e-06 -9.1909e-06 3.98514e-07)
(5.23414e-06 -8.44498e-06 4.33055e-07)
(4.0165e-06 -7.8069e-06 4.6221e-07)
(2.51375e-06 -7.34078e-06 4.83355e-07)
(8.27712e-07 -7.09292e-06 4.94528e-07)
(-9.22397e-07 -7.08738e-06 4.947e-07)
(-2.61137e-06 -7.3237e-06 4.83888e-07)
(-4.12005e-06 -7.7768e-06 4.63166e-07)
(-5.34676e-06 -8.39927e-06 4.34551e-07)
(-6.21684e-06 -9.12573e-06 4.00754e-07)
(-6.68849e-06 -9.87872e-06 3.64676e-07)
(-6.75419e-06 -1.0574e-05 3.29124e-07)
(-6.4393e-06 -1.11254e-05 2.96455e-07)
(-5.79722e-06 -1.14481e-05 2.68255e-07)
(-4.90373e-06 -1.14592e-05 2.45243e-07)
(-3.84942e-06 -1.10751e-05 2.26857e-07)
(-2.73416e-06 -1.02052e-05 2.10984e-07)
(-1.65816e-06 -8.7336e-06 1.92007e-07)
(-7.35534e-07 -6.46921e-06 1.59099e-07)
(-8.30117e-08 -2.98868e-06 8.31158e-08)
(7.83112e-08 -4.0011e-06 7.8331e-08)
(7.44855e-07 -8.52277e-06 1.55109e-07)
(1.7256e-06 -1.14012e-05 1.9314e-07)
(2.88793e-06 -1.32329e-05 2.18369e-07)
(4.11127e-06 -1.4304e-05 2.41201e-07)
(5.27767e-06 -1.47762e-05 2.66684e-07)
(6.27413e-06 -1.47712e-05 2.97177e-07)
(6.99685e-06 -1.43934e-05 3.33262e-07)
(7.35972e-06 -1.37428e-05 3.7421e-07)
(7.30097e-06 -1.29201e-05 4.18194e-07)
(6.79057e-06 -1.20268e-05 4.62535e-07)
(5.83501e-06 -1.11627e-05 5.03929e-07)
(4.4795e-06 -1.04194e-05 5.38931e-07)
(2.80659e-06 -9.87473e-06 5.64304e-07)
(9.29575e-07 -9.58504e-06 5.77653e-07)
(-1.01846e-06 -9.57968e-06 5.77786e-07)
(-2.8975e-06 -9.85827e-06 5.64717e-07)
(-4.57442e-06 -1.03906e-05 5.39671e-07)
(-5.93596e-06 -1.11197e-05 5.05056e-07)
(-6.8996e-06 -1.19669e-05 4.6419e-07)
(-7.41981e-06 -1.28392e-05 4.2058e-07)
(-7.48974e-06 -1.36365e-05 3.77595e-07)
(-7.13871e-06 -1.42564e-05 3.38048e-07)
(-6.4266e-06 -1.45982e-05 3.0389e-07)
(-5.43727e-06 -1.45629e-05 2.76025e-07)
(-4.27027e-06 -1.40493e-05 2.53918e-07)
(-3.03519e-06 -1.29441e-05 2.35225e-07)
(-1.84229e-06 -1.10973e-05 2.13663e-07)
(-8.18091e-07 -8.25389e-06 1.77099e-07)
(-9.25616e-08 -3.84389e-06 9.26923e-08)
(9.49702e-08 -4.88342e-06 9.5015e-08)
(8.57182e-07 -1.03976e-05 1.83363e-07)
(1.94917e-06 -1.39119e-05 2.23866e-07)
(3.23177e-06 -1.61761e-05 2.49775e-07)
(4.57159e-06 -1.75336e-05 2.73785e-07)
(5.84612e-06 -1.81808e-05 3.02216e-07)
(6.93441e-06 -1.82618e-05 3.3758e-07)
(7.72482e-06 -1.78989e-05 3.80313e-07)
(8.12305e-06 -1.72087e-05 4.29391e-07)
(8.06012e-06 -1.63077e-05 4.82423e-07)
(7.50076e-06 -1.53138e-05 5.36053e-07)
(6.44985e-06 -1.43429e-05 5.86204e-07)
(4.95571e-06 -1.35026e-05 6.28605e-07)
(3.10884e-06 -1.28846e-05 6.593e-07)
(1.03496e-06 -1.25556e-05 6.75415e-07)
(-1.11756e-06 -1.25506e-05 6.75506e-07)
(-3.19269e-06 -1.28693e-05 6.59586e-07)
(-5.04198e-06 -1.3476e-05 6.29106e-07)
(-6.53964e-06 -1.43035e-05 5.86987e-07)
(-7.59513e-06 -1.52597e-05 5.37238e-07)
(-8.15985e-06 -1.62364e-05 4.841e-07)
(-8.22848e-06 -1.71172e-05 4.31733e-07)
(-7.83551e-06 -1.77845e-05 3.83553e-07)
(-7.04854e-06 -1.81221e-05 3.41957e-07)
(-5.96021e-06 -1.80149e-05 3.08056e-07)
(-4.67974e-06 -1.73434e-05 2.81349e-07)
(-3.32639e-06 -1.59699e-05 2.59315e-07)
(-2.01975e-06 -1.37054e-05 2.34959e-07)
(-8.97738e-07 -1.02235e-05 1.9474e-07)
(-1.01955e-07 -4.78914e-06 1.02117e-07)
(1.07296e-07 -5.87965e-06 1.07359e-07)
(9.47696e-07 -1.24846e-05 2.05243e-07)
(2.13846e-06 -1.66892e-05 2.4889e-07)
(3.53171e-06 -1.94201e-05 2.76958e-07)
(4.9834e-06 -2.10928e-05 3.03946e-07)
(6.36498e-06 -2.19436e-05 3.37128e-07)
(7.54758e-06 -2.21406e-05 3.79245e-07)
(8.41112e-06 -2.18241e-05 4.30703e-07)
(8.85246e-06 -2.11255e-05 4.90114e-07)
(8.79423e-06 -2.01756e-05 5.54554e-07)
(8.19463e-06 -1.91067e-05 6.19857e-07)
(7.05577e-06 -1.80499e-05 6.80984e-07)
(5.42819e-06 -1.71282e-05 7.32717e-07)
(3.41012e-06 -1.6447e-05 7.70143e-07)
(1.14023e-06 -1.60836e-05 7.89731e-07)
(-1.2167e-06 -1.60789e-05 7.8979e-07)
(-3.48715e-06 -1.64327e-05 7.70326e-07)
(-5.5063e-06 -1.71038e-05 7.33039e-07)
(-7.13543e-06 -1.80143e-05 6.81486e-07)
(-8.27626e-06 -1.90587e-05 6.20585e-07)
(-8.878e-06 -2.01136e-05 5.55638e-07)
(-8.9381e-06 -2.10478e-05 4.91677e-07)
(-8.49785e-06 -2.17293e-05 4.32833e-07)
(-7.63361e-06 -2.2028e-05 3.82069e-07)
(-6.44754e-06 -2.1814e-05 3.40792e-07)
(-5.05825e-06 -2.09495e-05 3.08535e-07)
(-3.59399e-06 -1.92705e-05 2.82516e-07)
(-2.18254e-06 -1.65454e-05 2.55087e-07)
(-9.71162e-07 -1.23681e-05 2.11362e-07)
(-1.10845e-07 -5.82032e-06 1.11045e-07)
(1.16665e-07 -6.96724e-06 1.16768e-07)
(1.01832e-06 -1.47476e-05 2.22271e-07)
(2.28914e-06 -1.96933e-05 2.69026e-07)
(3.7745e-06 -2.29287e-05 2.99958e-07)
(5.3228e-06 -2.49527e-05 3.3102e-07)
(6.80042e-06 -2.60459e-05 3.70394e-07)
(8.07172e-06 -2.64018e-05 4.21019e-07)
(9.00883e-06 -2.61777e-05 4.83284e-07)
(9.49921e-06 -2.55176e-05 5.55483e-07)
(9.45622e-06 -2.4564e-05 6.34081e-07)
(8.82997e-06 -2.34608e-05 7.14005e-07)
(7.61795e-06 -2.23524e-05 7.89032e-07)
(5.87117e-06 -2.13756e-05 8.52664e-07)
(3.69466e-06 -2.06487e-05 8.98792e-07)
(1.24001e-06 -2.02595e-05 9.22921e-07)
(-1.31074e-06 -2.02552e-05 9.22945e-07)
(-3.76542e-06 -2.06357e-05 8.98851e-07)
(-5.94201e-06 -2.13536e-05 8.52779e-07)
(-7.68884e-06 -2.23207e-05 7.89266e-07)
(-8.90078e-06 -2.34185e-05 7.1439e-07)
(-9.52676e-06 -2.45101e-05 6.34732e-07)
(-9.56907e-06 -2.54515e-05 5.56459e-07)
(-9.07728e-06 -2.60991e-05 4.84642e-07)
(-8.13724e-06 -2.63109e-05 4.22827e-07)
(-6.86097e-06 -2.59441e-05 3.72703e-07)
(-5.37555e-06 -2.48435e-05 3.33848e-07)
(-3.81651e-06 -2.2818e-05 3.03256e-07)
(-2.31753e-06 -1.95905e-05 2.726e-07)
(-1.03248e-06 -1.4667e-05 2.25702e-07)
(-1.18548e-07 -6.92808e-06 1.18788e-07)
(1.23087e-07 -8.12229e-06 1.23203e-07)
(1.06456e-06 -1.71409e-05 2.33845e-07)
(2.3875e-06 -2.28683e-05 2.83074e-07)
(3.93485e-06 -2.66445e-05 3.17107e-07)
(5.55186e-06 -2.90605e-05 3.52992e-07)
(7.10263e-06 -3.0444e-05 3.99589e-07)
(8.44716e-06 -3.10145e-05 4.60146e-07)
(9.45139e-06 -3.09449e-05 5.35082e-07)
(9.99406e-06 -3.0389e-05 6.22405e-07)
(9.97861e-06 -2.94969e-05 7.17957e-07)
(9.34547e-06 -2.84207e-05 8.1569e-07)
(8.08492e-06 -2.73135e-05 9.0803e-07)
(6.24604e-06 -2.63228e-05 9.86698e-07)
(3.93864e-06 -2.55783e-05 1.04398e-06)
(1.32619e-06 -2.51777e-05 1.07402e-06)
(-1.39189e-06 -2.51738e-05 1.07401e-06)
(-4.00395e-06 -2.55665e-05 1.04394e-06)
(-6.31058e-06 -2.6303e-05 9.86655e-07)
(-8.14828e-06 -2.7285e-05 9.08027e-07)
(-9.40723e-06 -2.83832e-05 8.15801e-07)
(-1.00385e-05 -2.94501e-05 7.18249e-07)
(-1.00517e-05 -3.03328e-05 6.22895e-07)
(-9.50606e-06 -3.08794e-05 5.35877e-07)
(-8.49776e-06 -3.09404e-05 4.61258e-07)
(-7.14774e-06 -3.0363e-05 4.01044e-07)
(-5.5897e-06 -2.89758e-05 3.54751e-07)
(-3.96384e-06 -2.6561e-05 3.19118e-07)
(-2.40628e-06 -2.27928e-05 2.85211e-07)
(-1.07337e-06 -1.70833e-05 2.35848e-07)
(-1.24101e-07 -8.09533e-06 1.2439e-07)
(1.25625e-07 -9.31383e-06 1.25789e-07)
(1.07763e-06 -1.96018e-05 2.38216e-07)
(2.41296e-06 -2.61343e-05 2.88785e-07)
(3.978e-06 -3.04802e-05 3.25619e-07)
(5.62046e-06 -3.33288e-05 3.66527e-07)
(7.20676e-06 -3.50569e-05 4.20875e-07)
(8.59644e-06 -3.59099e-05 4.92142e-07)
(9.65217e-06 -3.60741e-05 5.80983e-07)
(1.02459e-05 -3.57092e-05 6.85326e-07)
(1.02713e-05 -3.49675e-05 8.00478e-07)
(9.6579e-06 -3.40035e-05 9.19324e-07)
(8.38619e-06 -3.29737e-05 1.03266e-06)
(6.49949e-06 -3.20312e-05 1.13011e-06)
(4.10899e-06 -3.13124e-05 1.20173e-06)
(1.3876e-06 -3.09225e-05 1.23958e-06)
(-1.44889e-06 -3.0919e-05 1.23954e-06)
(-4.16956e-06 -3.13017e-05 1.20162e-06)
(-6.55864e-06 -3.20131e-05 1.12994e-06)
(-8.44328e-06 -3.29482e-05 1.03247e-06)
(-9.71251e-06 -3.39703e-05 9.19194e-07)
(-1.03229e-05 -3.49267e-05 8.00548e-07)
(-1.02941e-05 -3.5661e-05 6.8556e-07)
(-9.69646e-06 -3.60191e-05 5.81438e-07)
(-8.63615e-06 -3.5849e-05 4.928e-07)
(-7.24096e-06 -3.49916e-05 4.21737e-07)
(-5.64826e-06 -3.3262e-05 3.67593e-07)
(-3.99852e-06 -3.04159e-05 3.26863e-07)
(-2.42574e-06 -2.60774e-05 2.90114e-07)
(-1.0833e-06 -1.95592e-05 2.39434e-07)
(-1.26193e-07 -9.29445e-06 1.26525e-07)
(1.22973e-07 -1.04993e-05 1.23156e-07)
(1.04636e-06 -2.20432e-05 2.32746e-07)
(2.34039e-06 -2.93787e-05 2.8282e-07)
(3.86215e-06 -3.43098e-05 3.2158e-07)
(5.46916e-06 -3.76264e-05 3.66924e-07)
(7.03566e-06 -3.97555e-05 4.2847e-07)
(8.4265e-06 -4.09671e-05 5.10122e-07)
(9.50557e-06 -4.14577e-05 6.12776e-07)
(1.01416e-05 -4.13885e-05 7.34365e-07)
(1.022e-05 -4.09088e-05 8.69947e-07)
(9.65914e-06 -4.01676e-05 1.01145e-06)
(8.42709e-06 -3.9317e-05 1.14809e-06)
(6.5578e-06 -3.85074e-05 1.26705e-06)
(4.15903e-06 -3.78757e-05 1.35556e-06)
(1.40823e-06 -3.75285e-05 1.40276e-06)
(-1.4658e-06 -3.75252e-05 1.4027e-06)
(-4.21562e-06 -3.78658e-05 1.35537e-06)
(-6.61255e-06 -3.84909e-05 1.26678e-06)
(-8.47911e-06 -3.92938e-05 1.14781e-06)
(-9.70782e-06 -4.0138e-05 1.0112e-06)
(-1.0265e-05 -4.08729e-05 8.69784e-07)
(-1.01826e-05 -4.13468e-05 7.3433e-07)
(-9.54224e-06 -4.1411e-05 6.12923e-07)
(-8.45838e-06 -4.09163e-05 5.10456e-07)
(-7.06226e-06 -3.97022e-05 4.2898e-07)
(-5.49003e-06 -3.7573e-05 3.6757e-07)
(-3.87696e-06 -3.4259e-05 3.22321e-07)
(-2.34926e-06 -2.93347e-05 2.83637e-07)
(-1.05008e-06 -2.20108e-05 2.3352e-07)
(-1.23275e-07 -1.04848e-05 1.23652e-07)
(1.13613e-07 -1.1623e-05 1.13814e-07)
(9.58607e-07 -2.43514e-05 2.14604e-07)
(2.14308e-06 -3.2453e-05 2.61668e-07)
(3.54339e-06 -3.79632e-05 3.00669e-07)
(5.03523e-06 -4.17705e-05 3.48868e-07)
(6.50752e-06 -4.43506e-05 4.15753e-07)
(7.83735e-06 -4.59963e-05 5.05463e-07)
(8.89613e-06 -4.6911e-05 6.19312e-07)
(9.55431e-06 -4.72528e-05 7.5562e-07)
(9.69325e-06 -4.71612e-05 9.09506e-07)
(9.22156e-06 -4.6772e-05 1.07228e-06)
(8.09405e-06 -4.62226e-05 1.23159e-06)
(6.33106e-06 -4.56506e-05 1.37214e-06)
(4.03076e-06 -4.5183e-05 1.47811e-06)
(1.36811e-06 -4.49195e-05 1.53527e-06)
(-1.42238e-06 -4.49165e-05 1.53522e-06)
(-4.08385e-06 -4.51739e-05 1.47795e-06)
(-6.38196e-06 -4.56357e-05 1.37187e-06)
(-8.14187e-06 -4.62017e-05 1.23125e-06)
(-9.26575e-06 -4.67455e-05 1.07195e-06)
(-9.7333e-06 -4.71298e-05 9.09284e-07)
(-9.58991e-06 -4.72168e-05 7.555e-07)
(-8.92708e-06 -4.6871e-05 6.19296e-07)
(-7.86351e-06 -4.59534e-05 5.05586e-07)
(-6.5287e-06 -4.43062e-05 4.1601e-07)
(-5.05134e-06 -4.17267e-05 3.4925e-07)
(-3.55443e-06 -3.79222e-05 3.01147e-07)
(-2.14944e-06 -3.24181e-05 2.62183e-07)
(-9.61111e-07 -2.43259e-05 2.15125e-07)
(-1.13753e-07 -1.16117e-05 1.1417e-07)
(9.60679e-08 -1.26157e-05 9.62742e-08)
(8.03466e-07 -2.63858e-05 1.81019e-07)
(1.79737e-06 -3.51731e-05 2.21766e-07)
(2.98258e-06 -4.12258e-05 2.58502e-07)
(4.26207e-06 -4.5524e-05 3.06637e-07)
(5.54708e-06 -4.85878e-05 3.74987e-07)
(6.73472e-06 -5.07291e-05 4.67869e-07)
(7.71188e-06 -5.21556e-05 5.87029e-07)
(8.35842e-06 -5.30171e-05 7.31292e-07)
(8.55753e-06 -5.34372e-05 8.96028e-07)
(8.21198e-06 -5.35297e-05 1.07248e-06)
(7.26435e-06 -5.34076e-05 1.24751e-06)
(5.71914e-06 -5.3184e-05 1.40391e-06)
(3.65825e-06 -5.29627e-05 1.52313e-06)
(1.24417e-06 -5.28268e-05 1.58806e-06)
(-1.29559e-06 -5.28243e-05 1.58798e-06)
(-3.70845e-06 -5.29546e-05 1.52295e-06)
(-5.76692e-06 -5.31705e-05 1.40361e-06)
(-7.30873e-06 -5.3389e-05 1.24717e-06)
(-8.25241e-06 -5.35063e-05 1.07212e-06)
(-8.59352e-06 -5.34094e-05 8.9573e-07)
(-8.38986e-06 -5.29856e-05 7.31034e-07)
(-7.73861e-06 -5.21209e-05 5.86886e-07)
(-6.75673e-06 -5.06924e-05 4.67857e-07)
(-5.56442e-06 -4.85503e-05 3.75068e-07)
(-4.27486e-06 -4.54874e-05 3.06821e-07)
(-2.99102e-06 -4.1192e-05 2.58768e-07)
(-1.80198e-06 -3.51444e-05 2.22073e-07)
(-8.0514e-07 -2.63651e-05 1.81372e-07)
(-9.61059e-08 -1.26066e-05 9.65572e-08)
(6.93038e-08 -1.33971e-05 6.95517e-08)
(5.73694e-07 -2.79843e-05 1.30114e-07)
(1.28776e-06 -3.73253e-05 1.60689e-07)
(2.15413e-06 -4.3846e-05 1.91819e-07)
(3.11191e-06 -4.86025e-05 2.35729e-07)
(4.10263e-06 -5.21523e-05 2.99891e-07)
(5.05181e-06 -5.48215e-05 3.88335e-07)
(5.87062e-06 -5.68172e-05 5.03235e-07)
(6.45758e-06 -5.82779e-05 6.44101e-07)
(6.70629e-06 -5.93053e-05 8.07052e-07)
(6.52083e-06 -5.99846e-05 9.83801e-07)
(5.83528e-06 -6.0394e-05 1.16122e-06)
(4.637e-06 -6.06113e-05 1.32145e-06)
(2.98518e-06 -6.07069e-05 1.4447e-06)
(1.01674e-06 -6.07373e-05 1.51228e-06)
(-1.06553e-06 -6.07353e-05 1.51221e-06)
(-3.03263e-06 -6.07001e-05 1.44453e-06)
(-4.68186e-06 -6.05995e-05 1.32113e-06)
(-5.87668e-06 -6.03777e-05 1.16083e-06)
(-6.55822e-06 -5.99638e-05 9.83353e-07)
(-6.73915e-06 -5.92806e-05 8.06691e-07)
(-6.48578e-06 -5.82499e-05 6.43784e-07)
(-5.89416e-06 -5.67869e-05 5.03034e-07)
(-5.07076e-06 -5.47897e-05 3.88231e-07)
(-4.11716e-06 -5.212e-05 2.99849e-07)
(-3.12233e-06 -4.85714e-05 2.35789e-07)
(-2.16079e-06 -4.38175e-05 1.91952e-07)
(-1.29124e-06 -3.73013e-05 1.60924e-07)
(-5.74866e-07 -2.7967e-05 1.30374e-07)
(-6.93035e-08 -1.33895e-05 6.97806e-08)
(3.31256e-08 -1.38821e-05 3.33434e-08)
(2.68644e-07 -2.89759e-05 6.13538e-08)
(6.13088e-07 -3.86831e-05 7.75932e-08)
(1.05531e-06 -4.55528e-05 9.91435e-08)
(1.57904e-06 -5.06936e-05 1.33645e-07)
(2.1628e-06 -5.46883e-05 1.86273e-07)
(2.76936e-06 -5.7872e-05 2.60627e-07)
(3.34364e-06 -6.04469e-05 3.58882e-07)
(3.81291e-06 -6.25353e-05 4.8123e-07)
(4.09191e-06 -6.42135e-05 6.24952e-07)
(4.09477e-06 -6.55321e-05 7.82861e-07)
(3.75302e-06 -6.65298e-05 9.43415e-07)
(3.03771e-06 -6.72401e-05 1.08988e-06)
(1.9789e-06 -6.76926e-05 1.20348e-06)
(6.74036e-07 -6.79112e-05 1.26616e-06)
(-7.20304e-07 -6.79093e-05 1.26607e-06)
(-2.02369e-06 -6.76862e-05 1.20325e-06)
(-3.07992e-06 -6.72292e-05 1.08948e-06)
(-3.79175e-06 -6.65151e-05 9.4296e-07)
(-4.12929e-06 -6.55134e-05 7.82385e-07)
(-4.12197e-06 -6.41914e-05 6.24483e-07)
(-3.83844e-06 -6.25103e-05 4.80837e-07)
(-3.36468e-06 -6.042e-05 3.58543e-07)
(-2.78603e-06 -5.7844e-05 2.60409e-07)
(-2.17532e-06 -5.466e-05 1.86152e-07)
(-1.58779e-06 -5.06667e-05 1.33568e-07)
(-1.06077e-06 -4.55282e-05 9.9176e-08)
(-6.15803e-07 -3.86626e-05 7.77171e-08)
(-2.69428e-07 -2.89611e-05 6.15394e-08)
(-3.30608e-08 -1.38756e-05 3.35529e-08)
(-1.17826e-08 -1.39884e-05 -1.15439e-08)
(-1.03873e-07 -2.91963e-05 -2.36565e-08)
(-2.08601e-07 -3.90285e-05 -2.56836e-08)
(-2.85003e-07 -4.60824e-05 -1.78847e-08)
(-2.98217e-07 -5.14878e-05 1.55857e-09)
(-2.26862e-07 -5.58367e-05 3.47966e-08)
(-6.34942e-08 -5.94651e-05 8.43941e-08)
(1.79984e-07 -6.25661e-05 1.52368e-07)
(4.70211e-07 -6.52435e-05 2.39617e-07)
(7.53834e-07 -6.75469e-05 3.44888e-07)
(9.65478e-07 -6.94899e-05 4.63343e-07)
(1.04128e-06 -7.10678e-05 5.8626e-07)
(9.37718e-07 -7.2268e-05 7.00144e-07)
(6.49414e-07 -7.30773e-05 7.89497e-07)
(2.19686e-07 -7.34842e-05 8.39147e-07)
(-2.63066e-07 -7.34821e-05 8.39011e-07)
(-6.91382e-07 -7.30711e-05 7.89193e-07)
(-9.77099e-07 -7.2258e-05 6.99703e-07)
(-1.07722e-06 -7.10538e-05 5.85724e-07)
(-9.97433e-07 -6.94722e-05 4.6282e-07)
(-7.81521e-07 -6.75264e-05 3.44371e-07)
(-4.93549e-07 -6.52207e-05 2.39176e-07)
(-1.99029e-07 -6.25416e-05 1.51992e-07)
(4.85146e-08 -5.94399e-05 8.41242e-08)
(2.15737e-07 -5.58116e-05 3.4632e-08)
(2.90606e-07 -5.14638e-05 1.47664e-09)
(2.80424e-07 -4.60608e-05 -1.78781e-08)
(2.06431e-07 -3.90106e-05 -2.56074e-08)
(1.03292e-07 -2.91834e-05 -2.35005e-08)
(1.18573e-08 -1.39827e-05 -1.13616e-08)
(-6.31326e-08 -1.36483e-05 -6.29309e-08)
(-5.25229e-07 -2.85112e-05 -1.20938e-07)
(-1.13685e-06 -3.81818e-05 -1.4445e-07)
(-1.80208e-06 -4.52131e-05 -1.54023e-07)
(-2.43132e-06 -5.07178e-05 -1.5487e-07)
(-2.95646e-06 -5.52786e-05 -1.48623e-07)
(-3.31987e-06 -5.92223e-05 -1.34266e-07)
(-3.48264e-06 -6.27296e-05 -1.10002e-07)
(-3.42912e-06 -6.5886e-05 -7.40792e-08)
(-3.16994e-06 -6.87133e-05 -2.59602e-08)
(-2.73995e-06 -7.11906e-05 3.27574e-08)
(-2.1913e-06 -7.32726e-05 9.75287e-08)
(-1.57991e-06 -7.49027e-05 1.60434e-07)
(-9.51146e-07 -7.60264e-05 2.11449e-07)
(-3.28646e-07 -7.65997e-05 2.40398e-07)
(2.88627e-07 -7.65977e-05 2.40268e-07)
(9.12461e-07 -7.60206e-05 2.11111e-07)
(1.54355e-06 -7.48932e-05 1.5992e-07)
(2.15814e-06 -7.32592e-05 9.69828e-08)
(2.71055e-06 -7.11739e-05 3.22224e-08)
(3.14452e-06 -6.86941e-05 -2.65145e-08)
(3.40766e-06 -6.58649e-05 -7.45588e-08)
(3.46516e-06 -6.27071e-05 -1.10352e-07)
(3.30621e-06 -5.91995e-05 -1.34577e-07)
(2.94633e-06 -5.5256e-05 -1.48821e-07)
(2.42444e-06 -5.06965e-05 -1.54944e-07)
(1.79804e-06 -4.51938e-05 -1.54038e-07)
(1.13497e-06 -3.81658e-05 -1.44393e-07)
(5.24784e-07 -2.84997e-05 -1.20776e-07)
(6.32326e-08 -1.36432e-05 -6.27406e-08)
(-1.17403e-07 -1.28207e-05 -1.17204e-07)
(-9.66031e-07 -2.68399e-05 -2.23668e-07)
(-2.10751e-06 -3.6033e-05 -2.70394e-07)
(-3.3929e-06 -4.28033e-05 -2.99953e-07)
(-4.67872e-06 -4.82033e-05 -3.25221e-07)
(-5.84942e-06 -5.27866e-05 -3.52068e-07)
(-6.79356e-06 -5.6862e-05 -3.81239e-07)
(-7.41615e-06 -6.05943e-05 -4.11541e-07)
(-7.64524e-06 -6.4051e-05 -4.40365e-07)
(-7.44011e-06 -6.72299e-05 -4.64913e-07)
(-6.79711e-06 -7.00817e-05 -4.82866e-07)
(-5.74959e-06 -7.2527e-05 -4.93e-07)
(-4.36291e-06 -7.44723e-05 -4.96236e-07)
(-2.7256e-06 -7.58296e-05 -4.95133e-07)
(-9.37317e-07 -7.65272e-05 -4.93203e-07)
(9.01222e-07 -7.65252e-05 -4.93308e-07)
(2.69068e-06 -7.58239e-05 -4.95373e-07)
(4.33019e-06 -7.4463e-05 -4.96617e-07)
(5.71959e-06 -7.25137e-05 -4.93472e-07)
(6.77033e-06 -7.00656e-05 -4.83327e-07)
(7.41675e-06 -6.72113e-05 -4.65338e-07)
(7.6254e-06 -6.40309e-05 -4.40757e-07)
(7.39994e-06 -6.05736e-05 -4.11834e-07)
(6.78082e-06 -5.68409e-05 -3.81489e-07)
(5.83994e-06 -5.27661e-05 -3.52246e-07)
(4.67231e-06 -4.81843e-05 -3.25335e-07)
(3.38911e-06 -4.27864e-05 -2.99987e-07)
(2.10572e-06 -3.6019e-05 -2.70343e-07)
(9.65586e-07 -2.68299e-05 -2.23508e-07)
(1.17487e-07 -1.28162e-05 -1.1702e-07)
(-1.69491e-07 -1.15033e-05 -1.69317e-07)
(-1.3858e-06 -2.418e-05 -3.22274e-07)
(-3.03413e-06 -3.25733e-05 -3.91881e-07)
(-4.92039e-06 -3.88291e-05 -4.42146e-07)
(-6.85252e-06 -4.38966e-05 -4.93712e-07)
(-8.66979e-06 -4.82796e-05 -5.56952e-07)
(-1.02074e-05 -5.22606e-05 -6.34553e-07)
(-1.13118e-05 -5.59867e-05 -7.26015e-07)
(-1.1851e-05 -5.95097e-05 -8.28147e-07)
(-1.17285e-05 -6.28109e-05 -9.35591e-07)
(-1.08958e-05 -6.58205e-05 -1.04145e-06)
(-9.36223e-06 -6.84356e-05 -1.13801e-06)
(-7.19968e-06 -7.05385e-05 -1.21792e-06)
(-4.53939e-06 -7.20163e-05 -1.27476e-06)
(-1.56017e-06 -7.27792e-05 -1.30413e-06)
(1.52897e-06 -7.27771e-05 -1.30422e-06)
(4.509e-06 -7.201e-05 -1.27501e-06)
(7.17085e-06 -7.05286e-05 -1.21823e-06)
(9.3355e-06 -6.84225e-05 -1.13835e-06)
(1.08716e-05 -6.58049e-05 -1.04181e-06)
(1.17071e-05 -6.27933e-05 -9.35909e-07)
(1.18327e-05 -5.9491e-05 -8.28426e-07)
(1.12966e-05 -5.59675e-05 -7.26268e-07)
(1.01952e-05 -5.22414e-05 -6.34746e-07)
(8.66068e-06 -4.82612e-05 -5.57088e-07)
(6.84625e-06 -4.38796e-05 -4.93797e-07)
(4.91662e-06 -3.88143e-05 -4.42105e-07)
(3.03244e-06 -3.25611e-05 -3.91792e-07)
(1.38539e-06 -2.41712e-05 -3.22114e-07)
(1.69576e-07 -1.14994e-05 -1.6913e-07)
(-2.12977e-07 -9.7446e-06 -2.12827e-07)
(-1.73561e-06 -2.06287e-05 -4.04539e-07)
(-3.81339e-06 -2.79241e-05 -4.93542e-07)
(-6.22129e-06 -3.34193e-05 -5.62366e-07)
(-8.72956e-06 -3.79211e-05 -6.38791e-07)
(-1.11376e-05 -4.18674e-05 -7.37389e-07)
(-1.32309e-05 -4.55073e-05 -8.631e-07)
(-1.47998e-05 -4.89694e-05 -1.01633e-06)
(-1.56532e-05 -5.22939e-05 -1.19318e-06)
(-1.56377e-05 -5.54527e-05 -1.38578e-06)
(-1.46584e-05 -5.83671e-05 -1.5827e-06)
(-1.2698e-05 -6.09243e-05 -1.7693e-06)
(-9.83082e-06 -6.29963e-05 -1.92934e-06)
(-6.22647e-06 -6.44604e-05 -2.04692e-06)
(-2.13999e-06 -6.52186e-05 -2.10929e-06)
(2.11417e-06 -6.52165e-05 -2.10932e-06)
(6.20107e-06 -6.44543e-05 -2.04701e-06)
(9.80637e-06 -6.29867e-05 -1.92946e-06)
(1.26749e-05 -6.09116e-05 -1.76942e-06)
(1.46369e-05 -5.83521e-05 -1.58281e-06)
(1.56182e-05 -5.54362e-05 -1.38588e-06)
(1.56361e-05 -5.22766e-05 -1.19328e-06)
(1.47853e-05 -4.89519e-05 -1.01642e-06)
(1.32191e-05 -4.54903e-05 -8.63147e-07)
(1.11287e-05 -4.18513e-05 -7.37406e-07)
(8.72333e-06 -3.79064e-05 -6.38828e-07)
(6.2175e-06 -3.34065e-05 -5.62315e-07)
(3.81158e-06 -2.79137e-05 -4.93431e-07)
(1.73511e-06 -2.06213e-05 -4.04359e-07)
(2.13039e-07 -9.74133e-06 -2.1264e-07)
(-2.40278e-07 -7.65293e-06 -2.40144e-07)
(-1.96037e-06 -1.63991e-05 -4.5586e-07)
(-4.3323e-06 -2.23552e-05 -5.56749e-07)
(-7.12002e-06 -2.68773e-05 -6.37915e-07)
(-1.00711e-05 -3.06027e-05 -7.32949e-07)
(-1.2953e-05 -3.38908e-05 -8.60082e-07)
(-1.55088e-05 -3.69528e-05 -1.02653e-06)
(-1.74795e-05 -3.98983e-05 -1.23361e-06)
(-1.86216e-05 -4.27604e-05 -1.477e-06)
(-1.87302e-05 -4.55098e-05 -1.7467e-06)
(-1.76671e-05 -4.80705e-05 -2.027e-06)
(-1.5388e-05 -5.03351e-05 -2.29682e-06)
(-1.1966e-05 -5.21813e-05 -2.53156e-06)
(-7.60131e-06 -5.34914e-05 -2.70606e-06)
(-2.6132e-06 -5.41717e-05 -2.79937e-06)
(2.59318e-06 -5.41697e-05 -2.79932e-06)
(7.5813e-06 -5.34857e-05 -2.70596e-06)
(1.19461e-05 -5.21725e-05 -2.53144e-06)
(1.53685e-05 -5.03238e-05 -2.2967e-06)