/*--------------------------------*- C++ -*----------------------------------*\
| =========                 |                                                 |
| \\      /  F ield         | OpenFOAM: The Open Source CFD Toolbox           |
|  \\    /   O peration     | Version:  v1906                                 |
|   \\  /    A nd           | Web:      www.OpenFOAM.com                      |
|    \\/     M anipulation  |                                                 |
\*---------------------------------------------------------------------------*/
FoamFile
{
    version     2.0;
    format      ascii;
    class       volScalarField;
    location    "45";
    object      alphat;
}
// * * * * * * * * * * * * * * * * * * * * * * * * * * * * * * * * * * * * * //

dimensions      [1 -1 -1 0 0 0 0];


internalField   nonuniform List<scalar> 
78750
(
1.03825e-08
3.07598e-07
3.39565e-07
3.53695e-07
3.55337e-07
3.47738e-07
3.34709e-07
3.19424e-07
3.04096e-07
2.90083e-07
2.78114e-07
2.68493e-07
2.61265e-07
2.56294e-07
2.53308e-07
2.52253e-07
2.53002e-07
2.55337e-07
2.59063e-07
2.64017e-07
2.70032e-07
2.76909e-07
2.84396e-07
2.92134e-07
2.99601e-07
3.06014e-07
3.10194e-07
3.10398e-07
3.04136e-07
2.8816e-07
2.59218e-07
2.16565e-07
1.65405e-07
1.1976e-07
4.07524e-09
6.87032e-10
7.80261e-07
1.55145e-06
2.11677e-06
2.54769e-06
2.86054e-06
3.08435e-06
3.24721e-06
3.37011e-06
3.46608e-06
3.54353e-06
3.60819e-06
3.66422e-06
3.71472e-06
3.76184e-06
3.80767e-06
3.85329e-06
3.89864e-06
3.94293e-06
3.98471e-06
4.02177e-06
4.05116e-06
4.06907e-06
4.07078e-06
4.05032e-06
3.9999e-06
3.90922e-06
3.76466e-06
3.54967e-06
2.96159e-06
1.76467e-06
1.10753e-06
9.42516e-07
1.10347e-06
1.73941e-08
6.54073e-10
6.60024e-07
1.19435e-06
1.66239e-06
2.04766e-06
2.34736e-06
2.57192e-06
2.73942e-06
2.86863e-06
2.97381e-06
3.06408e-06
3.14377e-06
3.21396e-06
3.27416e-06
3.32358e-06
3.36201e-06
3.39031e-06
3.41119e-06
3.42937e-06
3.44764e-06
3.46939e-06
3.49674e-06
3.53431e-06
3.58447e-06
3.6466e-06
3.71567e-06
3.77992e-06
3.81841e-06
3.12481e-06
2.31492e-06
1.70686e-06
1.42467e-06
1.78627e-06
1.30182e-06
2.74068e-08
8.14207e-10
6.76529e-07
1.25062e-06
1.81701e-06
2.36739e-06
2.89951e-06
3.41472e-06
3.91408e-06
4.39557e-06
4.85315e-06
5.27733e-06
5.65666e-06
5.97923e-06
6.23417e-06
6.41265e-06
6.50868e-06
6.51965e-06
6.44696e-06
6.29658e-06
6.07554e-06
5.79481e-06
5.46859e-06
5.11243e-06
4.74668e-06
4.3943e-06
4.08129e-06
3.83593e-06
2.92089e-06
2.16622e-06
1.67813e-06
1.41601e-06
1.43645e-06
2.36723e-06
1.32807e-06
3.49634e-08
1.3964e-09
1.22622e-06
2.7265e-06
4.0569e-06
5.39083e-06
6.69007e-06
7.92472e-06
9.07052e-06
1.01068e-05
1.10162e-05
1.17852e-05
1.24037e-05
1.28654e-05
1.31674e-05
1.33097e-05
1.32957e-05
1.31313e-05
1.28249e-05
1.23876e-05
1.18328e-05
1.11766e-05
1.04378e-05
9.63612e-06
8.79432e-06
7.93791e-06
6.68824e-06
5.17245e-06
3.75074e-06
2.6028e-06
1.85519e-06
1.50161e-06
1.58217e-06
2.90536e-06
1.31559e-06
4.49608e-08
2.84171e-09
1.65508e-06
3.85852e-06
6.57361e-06
9.56082e-06
1.18555e-05
1.36047e-05
1.51207e-05
1.63956e-05
1.74286e-05
1.82231e-05
1.87859e-05
1.91256e-05
1.92527e-05
1.91783e-05
1.89146e-05
1.84746e-05
1.78722e-05
1.71231e-05
1.62451e-05
1.52589e-05
1.41897e-05
1.30695e-05
1.15825e-05
9.73932e-06
7.85946e-06
6.01968e-06
4.35679e-06
3.0379e-06
2.16083e-06
1.73319e-06
1.85533e-06
3.59381e-06
1.35829e-06
5.46445e-08
4.49181e-09
1.93805e-06
4.45495e-06
7.68009e-06
1.15617e-05
1.58132e-05
1.77053e-05
1.92762e-05
2.05431e-05
2.15244e-05
2.22378e-05
2.27006e-05
2.29285e-05
2.29361e-05
2.2737e-05
2.23434e-05
2.1767e-05
2.10185e-05
2.01105e-05
1.88794e-05
1.69405e-05
1.50371e-05
1.31973e-05
1.13779e-05
9.54595e-06
7.69938e-06
5.90475e-06
4.31048e-06
3.07756e-06
2.28031e-06
1.92636e-06
2.19684e-06
4.40712e-06
1.40934e-06
6.29939e-08
6.143e-09
2.04255e-06
4.61988e-06
7.94691e-06
1.20609e-05
1.68762e-05
2.08327e-05
2.24264e-05
2.36983e-05
2.46732e-05
2.53733e-05
2.58186e-05
2.60271e-05
2.60147e-05
2.57962e-05
2.53849e-05
2.47939e-05
2.3065e-05
2.08782e-05
1.88191e-05
1.69136e-05
1.51121e-05
1.33552e-05
1.15815e-05
9.74592e-06
7.85084e-06
5.98924e-06
4.34762e-06
3.10793e-06
2.33924e-06
2.04364e-06
2.45182e-06
5.01969e-06
1.47346e-06
7.05948e-08
7.62383e-09
2.02752e-06
4.54061e-06
7.85649e-06
1.21622e-05
1.75552e-05
2.32355e-05
2.48577e-05
2.61363e-05
2.71005e-05
2.7776e-05
2.81862e-05
2.83527e-05
2.8295e-05
2.80315e-05
2.75793e-05
2.57222e-05
2.32218e-05
2.08787e-05
1.87503e-05
1.68018e-05
1.49835e-05
1.32383e-05
1.15048e-05
9.7292e-06
7.89234e-06
6.06505e-06
4.43316e-06
3.19654e-06
2.44274e-06
2.19292e-06
2.74153e-06
5.52783e-06
1.52923e-06
7.8135e-08
9.50337e-09
2.00464e-06
4.50145e-06
7.93162e-06
1.26092e-05
1.86589e-05
2.52543e-05
2.73423e-05
2.85983e-05
2.95225e-05
3.01453e-05
3.04935e-05
3.05915e-05
3.04612e-05
3.01228e-05
2.84674e-05
2.57526e-05
2.31522e-05
2.07856e-05
1.86317e-05
1.66491e-05
1.47912e-05
1.30091e-05
1.12559e-05
9.496e-06
7.71713e-06
5.97135e-06
4.41536e-06
3.23335e-06
2.52005e-06
2.32296e-06
3.00724e-06
5.91613e-06
1.58217e-06
8.52848e-08
1.15057e-08
2.0154e-06
4.5495e-06
8.1473e-06
1.32198e-05
1.98531e-05
2.69316e-05
2.95863e-05
3.0806e-05
3.16841e-05
3.22543e-05
3.25459e-05
3.25845e-05
3.2393e-05
3.09978e-05
2.8157e-05
2.53732e-05
2.28278e-05
2.05162e-05
1.83991e-05
1.6429e-05
1.45584e-05
1.27445e-05
1.09566e-05
9.18629e-06
7.44589e-06
5.78416e-06
4.32908e-06
3.23362e-06
2.58556e-06
2.45728e-06
3.29259e-06
6.19521e-06
1.62705e-06
9.20549e-08
1.38278e-08
2.03576e-06
4.61835e-06
8.38798e-06
1.38303e-05
2.09312e-05
2.82649e-05
3.17402e-05
3.29144e-05
3.37414e-05
3.42575e-05
3.44937e-05
3.44765e-05
3.32419e-05
3.04141e-05
2.75625e-05
2.49085e-05
2.24798e-05
2.02548e-05
1.81904e-05
1.62389e-05
1.43551e-05
1.25026e-05
1.06662e-05
8.86428e-06
7.13962e-06
5.54725e-06
4.19241e-06
3.19377e-06
2.62383e-06
2.57423e-06
3.56504e-06
6.38351e-06
1.66766e-06
9.84848e-08
1.61733e-08
2.06162e-06
4.697e-06
8.62882e-06
1.44058e-05
2.19086e-05
2.94285e-05
3.37015e-05
3.48409e-05
3.56285e-05
3.6102e-05
3.62933e-05
3.54174e-05
3.26964e-05
2.98238e-05
2.70788e-05
2.45377e-05
2.22094e-05
2.00628e-05
1.80491e-05
1.61167e-05
1.42196e-05
1.2326e-05
1.04343e-05
8.58912e-06
6.86342e-06
5.32112e-06
4.05126e-06
3.14303e-06
2.65265e-06
2.68754e-06
3.84238e-06
6.48777e-06
1.70276e-06
1.04696e-07
1.87214e-08
2.08995e-06
4.77574e-06
8.85663e-06
1.49362e-05
2.27715e-05
3.03807e-05
3.56268e-05
3.67334e-05
3.74842e-05
3.79187e-05
3.72933e-05
3.4853e-05
3.20815e-05
2.93038e-05
2.66674e-05
2.42311e-05
2.19934e-05
1.99165e-05
1.79469e-05
1.603e-05
1.41185e-05
1.21845e-05
1.0239e-05
8.35034e-06
6.61892e-06
5.11656e-06
3.91849e-06
3.08973e-06
2.67326e-06
2.79121e-06
4.10882e-06
6.5412e-06
1.73475e-06
1.10793e-07
2.12532e-08
2.11576e-06
4.84427e-06
9.05198e-06
1.53928e-05
2.35137e-05
3.11629e-05
3.64075e-05
3.84654e-05
3.91888e-05
3.8814e-05
3.68728e-05
3.43417e-05
3.16008e-05
2.88907e-05
2.63403e-05
2.3992e-05
2.18328e-05
1.98174e-05
1.78875e-05
1.59841e-05
1.40576e-05
1.20829e-05
1.00831e-05
8.1498e-06
6.40891e-06
4.93844e-06
3.80141e-06
3.04261e-06
2.69452e-06
2.89441e-06
4.37696e-06
6.55202e-06
1.76327e-06
1.16811e-07
2.39375e-08
2.13971e-06
4.90655e-06
9.23285e-06
1.58203e-05
2.4197e-05
3.18503e-05
3.68783e-05
3.92941e-05
3.96669e-05
3.85637e-05
3.6506e-05
3.39437e-05
3.1224e-05
2.85704e-05
2.60908e-05
2.38133e-05
2.17159e-05
1.9748e-05
1.78473e-05
1.59515e-05
1.40088e-05
1.1997e-05
9.9496e-06
7.97789e-06
6.22959e-06
4.78672e-06
3.70163e-06
3.00307e-06
2.71638e-06
2.99461e-06
4.63982e-06
6.54241e-06
1.78968e-06
1.22779e-07
2.66275e-08
2.16059e-06
4.96121e-06
9.39496e-06
1.62057e-05
2.48023e-05
3.24429e-05
3.72718e-05
3.94438e-05
3.9602e-05
3.83436e-05
3.61993e-05
3.36164e-05
3.09274e-05
2.83318e-05
2.59189e-05
2.37047e-05
2.16598e-05
1.97291e-05
1.78472e-05
1.5949e-05
1.3982e-05
1.19276e-05
9.83147e-06
7.82405e-06
6.07125e-06
4.65528e-06
3.61737e-06
2.97287e-06
2.74277e-06
3.09745e-06
4.90658e-06
6.51474e-06
1.8138e-06
1.28667e-07
2.94638e-08
2.17998e-06
5.01298e-06
9.55348e-06
1.65843e-05
2.53783e-05
3.29721e-05
3.75919e-05
3.95344e-05
3.95018e-05
3.81172e-05
3.59179e-05
3.33421e-05
3.06999e-05
2.81668e-05
2.58166e-05
2.36567e-05
2.16532e-05
1.97481e-05
1.78746e-05
1.59662e-05
1.39702e-05
1.18719e-05
9.72865e-06
7.68841e-06
5.9328e-06
4.5422e-06
3.54691e-06
2.95097e-06
2.77308e-06
3.20211e-06
5.17484e-06
6.48068e-06
1.8365e-06
1.34455e-07
3.23348e-08
2.19711e-06
5.06094e-06
9.70553e-06
1.69486e-05
2.59213e-05
3.3457e-05
3.78791e-05
3.96153e-05
3.94182e-05
3.79322e-05
3.56982e-05
3.31425e-05
3.05525e-05
2.80819e-05
2.57911e-05
2.36795e-05
2.17093e-05
1.98197e-05
1.79431e-05
1.60126e-05
1.39772e-05
1.18286e-05
9.63654e-06
7.56566e-06
5.80985e-06
4.44457e-06
3.48896e-06
2.93755e-06
2.80869e-06
3.3112e-06
5.4494e-06
6.43956e-06
1.85757e-06
1.40097e-07
3.53461e-08
2.21405e-06
5.11036e-06
9.86419e-06
1.73239e-05
2.64564e-05
3.39017e-05
3.81137e-05
3.96513e-05
3.93095e-05
3.77472e-05
3.55024e-05
3.29846e-05
3.04574e-05
2.80543e-05
2.58238e-05
2.37589e-05
2.18184e-05
1.99394e-05
1.80532e-05
1.60931e-05
1.40104e-05
1.18048e-05
9.56018e-06
7.45779e-06
5.70189e-06
4.36086e-06
3.44224e-06
2.9321e-06
2.84977e-06
3.4253e-06
5.73037e-06
6.398e-06
1.87765e-06
1.45565e-07
3.84214e-08
2.23058e-06
5.16055e-06
1.00262e-05
1.77012e-05
2.69752e-05
3.43136e-05
3.83193e-05
3.96722e-05
3.92036e-05
3.7583e-05
3.53425e-05
3.28728e-05
3.0414e-05
2.80814e-05
2.59118e-05
2.38923e-05
2.1978e-05
2.01053e-05
1.82042e-05
1.6208e-05
1.40716e-05
1.18037e-05
9.50312e-06
7.36766e-06
5.61037e-06
4.29117e-06
3.40622e-06
2.93412e-06
2.8962e-06
3.54484e-06
6.01857e-06
6.35489e-06
1.89651e-06
1.50825e-07
4.16215e-08
2.24768e-06
5.21392e-06
1.0198e-05
1.80942e-05
2.74936e-05
3.47022e-05
3.84966e-05
3.96726e-05
3.90913e-05
3.74278e-05
3.52049e-05
3.27928e-05
3.04082e-05
2.81495e-05
2.60431e-05
2.40697e-05
2.21813e-05
2.03128e-05
1.83932e-05
1.63556e-05
1.41593e-05
1.18238e-05
9.46434e-06
7.29476e-06
5.53512e-06
4.23558e-06
3.38118e-06
2.94417e-06
2.94881e-06
3.67101e-06
6.31486e-06
6.3145e-06
1.9147e-06
1.5585e-07
4.48911e-08
2.26534e-06
5.27005e-06
1.03768e-05
1.8494e-05
2.79993e-05
3.50628e-05
3.86489e-05
3.9659e-05
3.89782e-05
3.72843e-05
3.50885e-05
3.274e-05
3.04335e-05
2.82516e-05
2.62106e-05
2.42854e-05
2.24249e-05
2.05614e-05
1.86224e-05
1.65412e-05
1.42808e-05
1.18728e-05
9.45015e-06
7.24309e-06
5.4779e-06
4.19428e-06
3.36663e-06
2.96155e-06
3.00699e-06
3.80323e-06
6.61775e-06
6.27626e-06
1.93206e-06
1.6063e-07
4.82684e-08
2.28403e-06
5.32986e-06
1.0565e-05
1.89062e-05
2.84986e-05
3.53992e-05
3.87768e-05
3.96288e-05
3.8859e-05
3.71447e-05
3.49834e-05
3.2703e-05
3.04774e-05
2.83743e-05
2.64008e-05
2.45262e-05
2.26956e-05
2.08382e-05
1.88797e-05
1.67533e-05
1.44271e-05
1.19448e-05
9.45787e-06
7.2123e-06
5.43948e-06
4.16836e-06
3.36357e-06
2.98716e-06
3.07154e-06
3.94228e-06
6.92702e-06
6.24194e-06
1.94886e-06
1.65148e-07
5.16976e-08
2.30319e-06
5.39164e-06
1.07579e-05
1.93209e-05
2.89833e-05
3.5714e-05
3.88901e-05
3.95943e-05
3.8745e-05
3.70169e-05
3.48936e-05
3.26827e-05
3.05386e-05
2.85157e-05
2.66122e-05
2.47916e-05
2.29946e-05
2.11462e-05
1.91692e-05
1.69969e-05
1.46029e-05
1.20436e-05
9.48965e-06
7.20318e-06
5.41969e-06
4.15724e-06
3.37143e-06
3.02058e-06
3.14229e-06
4.08833e-06
7.24231e-06
6.21257e-06
1.9653e-06
1.69407e-07
5.52078e-08
2.32322e-06
5.45625e-06
1.09579e-05
1.97424e-05
2.94565e-05
3.60062e-05
3.89843e-05
3.95484e-05
3.86273e-05
3.68909e-05
3.48083e-05
3.26674e-05
3.06048e-05
2.86627e-05
2.68312e-05
2.50678e-05
2.33082e-05
2.14724e-05
1.94798e-05
1.72631e-05
1.48016e-05
1.21657e-05
9.54472e-06
7.21646e-06
5.4198e-06
4.16214e-06
3.39113e-06
3.0624e-06
3.21934e-06
4.24053e-06
7.5598e-06
6.18673e-06
1.98106e-06
1.73397e-07
5.87521e-08
2.34347e-06
5.52188e-06
1.11602e-05
2.01624e-05
2.99126e-05
3.62796e-05
3.90685e-05
3.95017e-05
3.85155e-05
3.67739e-05
3.47319e-05
3.26592e-05
3.06766e-05
2.88153e-05
2.70574e-05
2.53545e-05
2.3636e-05
2.18166e-05
1.98112e-05
1.75516e-05
1.5023e-05
1.23104e-05
9.622e-06
7.25096e-06
5.4387e-06
4.18226e-06
3.42232e-06
3.1127e-06
3.3034e-06
4.40091e-06
7.88352e-06
6.16873e-06
1.99707e-06
1.77139e-07
6.23442e-08
2.36399e-06
5.58863e-06
1.13659e-05
2.05839e-05
3.0356e-05
3.65369e-05
3.91431e-05
3.94524e-05
3.84057e-05
3.66603e-05
3.46576e-05
3.26507e-05
3.07462e-05
2.89652e-05
2.72823e-05
2.56426e-05
2.39695e-05
2.21709e-05
2.01568e-05
1.78573e-05
1.52636e-05
1.24756e-05
9.72107e-06
7.30728e-06
5.47739e-06
4.21865e-06
3.46587e-06
3.17201e-06
3.39422e-06
4.5669e-06
8.2042e-06
6.15337e-06
2.01237e-06
1.80631e-07
6.59536e-08
2.38438e-06
5.65539e-06
1.15724e-05
2.10026e-05
3.07851e-05
3.67822e-05
3.92144e-05
3.94068e-05
3.83027e-05
3.6553e-05
3.45869e-05
3.26427e-05
3.0814e-05
2.91123e-05
2.75053e-05
2.59313e-05
2.43069e-05
2.25332e-05
2.0514e-05
1.81777e-05
1.55209e-05
1.26589e-05
9.83913e-06
7.38277e-06
5.53371e-06
4.2699e-06
3.52114e-06
3.24025e-06
3.49241e-06
4.74158e-06
8.53364e-06
6.14771e-06
2.02787e-06
1.83902e-07
6.95809e-08
2.40438e-06
5.72144e-06
1.17785e-05
2.14185e-05
3.12036e-05
3.70211e-05
3.92866e-05
3.93656e-05
3.82042e-05
3.6448e-05
3.45156e-05
3.26311e-05
3.08758e-05
2.92524e-05
2.77215e-05
2.62149e-05
2.46424e-05
2.28975e-05
2.08777e-05
1.85086e-05
1.57923e-05
1.28591e-05
9.97603e-06
7.47767e-06
5.60791e-06
4.33627e-06
3.58852e-06
3.31813e-06
3.59909e-06
4.92649e-06
8.87117e-06
6.15341e-06
2.04426e-06
1.86972e-07
7.32064e-08
2.42374e-06
5.78615e-06
1.19827e-05
2.18297e-05
3.16138e-05
3.72582e-05
3.93661e-05
3.93322e-05
3.81104e-05
3.6345e-05
3.44438e-05
3.26169e-05
3.09332e-05
2.93869e-05
2.79317e-05
2.64934e-05
2.49749e-05
2.3262e-05
2.12452e-05
1.88469e-05
1.60743e-05
1.30725e-05
1.01279e-05
7.58876e-06
5.69747e-06
4.41608e-06
3.66717e-06
3.40543e-06
3.71451e-06
5.12192e-06
9.2148e-06
6.1674e-06
2.06138e-06
1.89854e-07
7.68278e-08
2.44238e-06
5.84916e-06
1.2183e-05
2.22269e-05
3.19925e-05
3.74588e-05
3.94168e-05
3.92863e-05
3.80103e-05
3.62379e-05
3.43683e-05
3.2598e-05
3.09841e-05
2.95132e-05
2.81329e-05
2.6763e-05
2.53001e-05
2.36219e-05
2.16121e-05
1.91893e-05
1.63651e-05
1.32989e-05
1.02958e-05
7.71709e-06
5.80293e-06
4.50944e-06
3.75706e-06
3.50238e-06
3.83937e-06
5.32891e-06
9.56423e-06
6.18923e-06
2.07924e-06
1.92559e-07
8.04301e-08
2.46025e-06
5.91057e-06
1.23815e-05
2.26183e-05
3.2347e-05
3.76389e-05
3.94535e-05
3.92311e-05
3.79092e-05
3.61308e-05
3.42912e-05
3.25753e-05
3.10294e-05
2.96322e-05
2.83256e-05
2.7024e-05
2.56172e-05
2.39755e-05
2.19754e-05
1.95316e-05
1.66602e-05
1.35341e-05
1.04762e-05
7.8601e-06
5.92258e-06
4.61528e-06
3.85764e-06
3.60876e-06
3.97348e-06
5.54685e-06
9.91801e-06
6.21708e-06
2.09765e-06
1.951e-07
8.4001e-08
2.47719e-06
5.96925e-06
1.25727e-05
2.29904e-05
3.26681e-05
3.77875e-05
3.94646e-05
3.91572e-05
3.77988e-05
3.60168e-05
3.42078e-05
3.25473e-05
3.10691e-05
2.97442e-05
2.85101e-05
2.72761e-05
2.59257e-05
2.43221e-05
2.23343e-05
1.98736e-05
1.69599e-05
1.37792e-05
1.06707e-05
8.0194e-06
6.05757e-06
4.73415e-06
3.96893e-06
3.72436e-06
4.11703e-06
5.7775e-06
1.02752e-05
6.2514e-06
2.11668e-06
1.97501e-07
8.75222e-08
2.49334e-06
6.02588e-06
1.27581e-05
2.33442e-05
3.29612e-05
3.79131e-05
3.94578e-05
3.90679e-05
3.76753e-05
3.58939e-05
3.41174e-05
3.25096e-05
3.10961e-05
2.98429e-05
2.86827e-05
2.7517e-05
2.62231e-05
2.46577e-05
2.26838e-05
2.02092e-05
1.72578e-05
1.4028e-05
1.08743e-05
8.19175e-06
6.20634e-06
4.86561e-06
4.09109e-06
3.84971e-06
4.27102e-06
6.02236e-06
1.06367e-05
6.29148e-06
2.13622e-06
1.9978e-07
9.10097e-08
2.50884e-06
6.08095e-06
1.29395e-05
2.36844e-05
3.32316e-05
3.80154e-05
3.94318e-05
3.8965e-05
3.75435e-05
3.5767e-05
3.40241e-05
3.24697e-05
3.11204e-05
2.99357e-05
2.88425e-05
2.77411e-05
2.65055e-05
2.49814e-05
2.30238e-05
2.0539e-05
1.7555e-05
1.42819e-05
1.10882e-05
8.37783e-06
6.36923e-06
5.00989e-06
4.22433e-06
3.98497e-06
4.43538e-06
6.2802e-06
1.10022e-05
6.33848e-06
2.15652e-06
2.01967e-07
9.4442e-08
2.52341e-06
6.13423e-06
1.31185e-05
2.40076e-05
3.34739e-05
3.80928e-05
3.93848e-05
3.88438e-05
3.73954e-05
3.56305e-05
3.392e-05
3.24159e-05
3.11292e-05
3.00137e-05
2.89908e-05
2.79546e-05
2.67721e-05
2.52869e-05
2.33485e-05
2.08573e-05
1.78455e-05
1.4535e-05
1.13077e-05
8.57468e-06
6.54474e-06
5.16653e-06
4.36879e-06
4.13049e-06
4.61036e-06
6.55093e-06
1.13716e-05
6.391e-06
2.17741e-06
2.04077e-07
9.78242e-08
2.53696e-06
6.1854e-06
1.32941e-05
2.43158e-05
3.36922e-05
3.81472e-05
3.93182e-05
3.87064e-05
3.72336e-05
3.54812e-05
3.38052e-05
3.23532e-05
3.11295e-05
3.00819e-05
2.91271e-05
2.8155e-05
2.70273e-05
2.55804e-05
2.36593e-05
2.11641e-05
1.8129e-05
1.47866e-05
1.15313e-05
8.78067e-06
6.73169e-06
5.33499e-06
4.52443e-06
4.28659e-06
4.79646e-06
6.83509e-06
1.17453e-05
6.44956e-06
2.19906e-06
2.06131e-07
1.01144e-07
2.5494e-06
6.23331e-06
1.3461e-05
2.46045e-05
3.38832e-05
3.81771e-05
3.92309e-05
3.85512e-05
3.70561e-05
3.53174e-05
3.36763e-05
3.22759e-05
3.11144e-05
3.01342e-05
2.92473e-05
2.8339e-05
2.72659e-05
2.58582e-05
2.39551e-05
2.14553e-05
1.84005e-05
1.50318e-05
1.17544e-05
8.9919e-06
6.92742e-06
5.5139e-06
4.69086e-06
4.45344e-06
4.99422e-06
7.13351e-06
1.21238e-05
6.51262e-06
2.22126e-06
2.0813e-07
1.04412e-07
2.56144e-06
6.28011e-06
1.36244e-05
2.48797e-05
3.40522e-05
3.81858e-05
3.91248e-05
3.83795e-05
3.6864e-05
3.51404e-05
3.35356e-05
3.21873e-05
3.10877e-05
3.01738e-05
2.93532e-05
2.85071e-05
2.74872e-05
2.61185e-05
2.4235e-05
2.17331e-05
1.86598e-05
1.52689e-05
1.19749e-05
9.20551e-06
7.12921e-06
5.70149e-06
4.86759e-06
4.63155e-06
5.20476e-06
7.44807e-06
1.25081e-05
6.58001e-06
2.24404e-06
2.10071e-07
1.076e-07
2.5722e-06
6.32328e-06
1.37784e-05
2.51344e-05
3.41951e-05
3.81712e-05
3.89984e-05
3.81898e-05
3.66555e-05
3.49479e-05
3.33796e-05
3.20832e-05
3.10452e-05
3.0197e-05
2.94419e-05
2.8657e-05
2.76897e-05
2.63596e-05
2.44964e-05
2.19952e-05
1.89071e-05
1.54966e-05
1.21899e-05
9.4182e-06
7.33373e-06
5.89499e-06
5.05276e-06
4.8201e-06
5.42835e-06
7.78002e-06
1.28978e-05
6.65025e-06
2.26721e-06
2.11941e-07
1.10722e-07
2.58266e-06
6.36545e-06
1.39286e-05
2.53761e-05
3.43186e-05
3.81383e-05
3.88553e-05
3.79845e-05
3.64324e-05
3.47416e-05
3.32106e-05
3.19661e-05
3.09888e-05
3.02048e-05
2.95132e-05
2.87875e-05
2.78712e-05
2.65794e-05
2.47379e-05
2.2241e-05
1.91434e-05
1.57183e-05
1.2402e-05
9.63026e-06
7.53928e-06
6.09192e-06
5.24445e-06
5.01851e-06
5.66604e-06
8.13187e-06
1.32938e-05
6.72312e-06
2.29078e-06
2.13732e-07
1.13747e-07
2.59203e-06
6.40422e-06
1.40695e-05
2.55979e-05
3.44179e-05
3.80836e-05
3.8692e-05
3.77605e-05
3.61913e-05
3.45179e-05
3.30247e-05
3.1832e-05
3.09146e-05
3.01935e-05
2.9564e-05
2.8896e-05
2.80292e-05
2.67751e-05
2.49567e-05
2.24681e-05
1.93677e-05
1.59352e-05
1.26143e-05
9.84493e-06
7.74743e-06
6.29167e-06
5.44064e-06
5.22454e-06
5.91611e-06
8.50226e-06
1.3693e-05
6.79832e-06
2.31477e-06
2.15455e-07
1.16679e-07
2.60089e-06
6.44128e-06
1.4205e-05
2.5806e-05
3.44992e-05
3.80118e-05
3.85124e-05
3.75202e-05
3.59344e-05
3.42786e-05
3.28235e-05
3.16822e-05
3.08236e-05
3.01638e-05
2.95943e-05
2.89819e-05
2.81631e-05
2.69462e-05
2.51528e-05
2.26779e-05
1.95829e-05
1.61517e-05
1.28323e-05
1.00662e-05
7.96074e-06
6.49503e-06
5.64062e-06
5.43676e-06
6.17714e-06
8.88931e-06
1.40934e-05
6.87714e-06
2.33945e-06
2.17158e-07
1.19504e-07
2.6089e-06
6.47549e-06
1.43324e-05
2.59964e-05
3.45589e-05
3.79195e-05
3.83129e-05
3.72608e-05
3.56589e-05
3.40211e-05
3.26044e-05
3.15142e-05
3.07133e-05
3.01131e-05
2.96014e-05
2.90422e-05
2.82692e-05
2.70885e-05
2.53217e-05
2.28661e-05
1.97867e-05
1.63689e-05
1.30611e-05
1.03015e-05
8.18609e-06
6.70636e-06
5.8456e-06
5.65362e-06
6.44517e-06
9.28687e-06
1.44904e-05
6.96032e-06
2.36495e-06
2.18894e-07
1.22229e-07
2.61636e-06
6.50782e-06
1.44539e-05
2.6173e-05
3.46014e-05
3.78103e-05
3.80966e-05
3.69846e-05
3.53669e-05
3.37472e-05
3.23691e-05
3.13294e-05
3.05851e-05
3.00427e-05
2.95867e-05
2.90783e-05
2.83486e-05
2.72025e-05
2.54628e-05
2.30312e-05
1.99771e-05
1.65866e-05
1.33035e-05
1.05549e-05
8.42805e-06
6.92977e-06
6.05805e-06
5.8757e-06
6.71967e-06
9.69077e-06
1.48837e-05
7.04945e-06
2.39156e-06
2.20732e-07
1.24858e-07
2.62325e-06
6.5381e-06
1.45689e-05
2.63344e-05
3.46247e-05
3.76823e-05
3.78616e-05
3.66901e-05
3.5057e-05
3.34559e-05
3.21165e-05
3.11268e-05
3.04378e-05
2.99514e-05
2.95487e-05
2.90882e-05
2.83989e-05
2.7285e-05
2.55719e-05
2.31674e-05
2.01478e-05
1.67996e-05
1.35585e-05
1.08284e-05
8.69144e-06
7.17108e-06
6.28269e-06
6.1055e-06
7.00036e-06
1.00968e-05
1.52716e-05
7.14391e-06
2.41906e-06
2.22704e-07
1.27407e-07
2.62974e-06
6.56712e-06
1.46789e-05
2.6483e-05
3.46315e-05
3.75376e-05
3.76098e-05
3.63792e-05
3.47314e-05
3.31492e-05
3.18487e-05
3.09086e-05
3.02736e-05
2.98412e-05
2.94891e-05
2.90733e-05
2.84209e-05
2.73358e-05
2.56467e-05
2.32695e-05
2.02899e-05
1.69969e-05
1.3816e-05
1.11162e-05
8.97584e-06
7.43357e-06
6.52443e-06
6.34761e-06
7.29021e-06
1.05083e-05
1.56599e-05
7.24451e-06
2.44764e-06
2.24831e-07
1.29893e-07
2.63596e-06
6.59575e-06
1.47839e-05
2.66185e-05
3.46212e-05
3.73757e-05
3.73411e-05
3.6052e-05
3.43902e-05
3.28275e-05
3.15661e-05
3.0675e-05
3.00927e-05
2.97121e-05
2.94078e-05
2.90332e-05
2.84139e-05
2.73537e-05
2.56848e-05
2.33324e-05
2.03939e-05
1.71643e-05
1.40593e-05
1.14054e-05
9.27462e-06
7.71685e-06
6.78694e-06
6.60688e-06
7.59357e-06
1.09292e-05
1.605e-05
7.34835e-06
2.47669e-06
2.27064e-07
1.32331e-07
2.64164e-06
6.62338e-06
1.48848e-05
2.67424e-05
3.45947e-05
3.71973e-05
3.70564e-05
3.57097e-05
3.40348e-05
3.24923e-05
3.12704e-05
3.04277e-05
2.98967e-05
2.95656e-05
2.93058e-05
2.89686e-05
2.83783e-05
2.73385e-05
2.56854e-05
2.33533e-05
2.0453e-05
1.72891e-05
1.42704e-05
1.16782e-05
9.57489e-06
8.01546e-06
7.0715e-06
6.8898e-06
7.9211e-06
1.13748e-05
1.64504e-05
7.45463e-06
2.5062e-06
2.29339e-07
1.34723e-07
2.64673e-06
6.64946e-06
1.49818e-05
2.68547e-05
3.45524e-05
3.70031e-05
3.67564e-05
3.53527e-05
3.36655e-05
3.21437e-05
3.09615e-05
3.01669e-05
2.96856e-05
2.94016e-05
2.91831e-05
2.88794e-05
2.83138e-05
2.72907e-05
2.56497e-05
2.33336e-05
2.04669e-05
1.7366e-05
1.44375e-05
1.19186e-05
9.86082e-06
8.31834e-06
7.37393e-06
7.19854e-06
8.28053e-06
1.18568e-05
1.6861e-05
7.5589e-06
2.53535e-06
2.31541e-07
1.37071e-07
2.65159e-06
6.67481e-06
1.50754e-05
2.69561e-05
3.4495e-05
3.67936e-05
3.64412e-05
3.49812e-05
3.32826e-05
3.17821e-05
3.06401e-05
2.9893e-05
2.94601e-05
2.92208e-05
2.90401e-05
2.87658e-05
2.82212e-05
2.72118e-05
2.55809e-05
2.32785e-05
2.04411e-05
1.73977e-05
1.45565e-05
1.21159e-05
1.01185e-05
8.6133e-06
7.68781e-06
7.53412e-06
8.68162e-06
1.23935e-05
1.7287e-05
7.66182e-06
2.5646e-06
2.33609e-07
1.39348e-07
2.6559e-06
6.69852e-06
1.51641e-05
2.70453e-05
3.44226e-05
3.65689e-05
3.61108e-05
3.45948e-05
3.28853e-05
3.14067e-05
3.0305e-05
2.9605e-05
2.92192e-05
2.90222e-05
2.88761e-05
2.86275e-05
2.81005e-05
2.71035e-05
2.54838e-05
2.31972e-05
2.03886e-05
1.73978e-05
1.46359e-05
1.22698e-05
1.03394e-05
8.88783e-06
8.00174e-06
7.89003e-06
9.12361e-06
1.29861e-05
1.77175e-05
7.76019e-06
2.5934e-06
2.35491e-07
1.41536e-07
2.65988e-06
6.72084e-06
1.52478e-05
2.71226e-05
3.43357e-05
3.63293e-05
3.57647e-05
3.41928e-05
3.2473e-05
3.10169e-05
2.99559e-05
2.93026e-05
2.89624e-05
2.88052e-05
2.86903e-05
2.84638e-05
2.79518e-05
2.69674e-05
2.53635e-05
2.31001e-05
2.0326e-05
1.73866e-05
1.46931e-05
1.23904e-05
1.0524e-05
9.1354e-06
8.30747e-06
8.26113e-06
9.607e-06
1.3638e-05
1.81495e-05
7.85743e-06
2.62273e-06
2.3725e-07
1.43611e-07
2.66324e-06
6.74089e-06
1.53251e-05
2.71873e-05
3.42342e-05
3.6074e-05
3.5402e-05
3.37741e-05
3.20448e-05
3.06118e-05
2.95919e-05
2.89848e-05
2.86889e-05
2.85691e-05
2.84819e-05
2.82738e-05
2.77745e-05
2.68044e-05
2.5224e-05
2.29974e-05
2.02721e-05
1.73909e-05
1.47553e-05
1.24988e-05
1.06829e-05
9.35467e-06
8.59513e-06
8.63369e-06
1.01164e-05
1.43291e-05
1.85684e-05
7.95481e-06
2.65277e-06
2.39017e-07
1.4557e-07
2.6661e-06
6.75893e-06
1.53965e-05
2.72408e-05
3.41198e-05
3.58044e-05
3.50237e-05
3.33398e-05
3.16016e-05
3.01919e-05
2.92132e-05
2.86521e-05
2.83991e-05
2.8314e-05
2.82512e-05
2.80577e-05
2.75688e-05
2.66144e-05
2.5066e-05
2.2893e-05
2.02379e-05
1.74314e-05
1.48481e-05
1.26212e-05
1.08361e-05
9.5554e-06
8.86351e-06
8.99813e-06
1.06357e-05
1.50363e-05
1.89724e-05
8.05859e-06
2.68482e-06
2.41015e-07
1.47421e-07
2.66834e-06
6.77463e-06
1.54618e-05
2.72833e-05
3.39925e-05
3.55203e-05
3.46299e-05
3.28906e-05
3.11447e-05
2.97586e-05
2.88214e-05
2.83062e-05
2.80948e-05
2.80418e-05
2.79996e-05
2.7817e-05
2.73359e-05
2.63981e-05
2.4889e-05
2.27859e-05
2.02246e-05
1.7515e-05
1.49874e-05
1.27792e-05
1.1005e-05
9.7515e-06
9.11536e-06
9.34497e-06
1.1142e-05
1.57241e-05
1.93554e-05
8.16852e-06
2.71841e-06
2.43364e-07
1.49195e-07
2.67011e-06
6.78862e-06
1.55228e-05
2.73176e-05
3.38552e-05
3.52247e-05
3.42238e-05
3.24295e-05
3.0677e-05
2.93155e-05
2.84203e-05
2.79504e-05
2.77785e-05
2.77546e-05
2.77292e-05
2.75532e-05
2.7076e-05
2.6153e-05
2.46867e-05
2.26652e-05
2.02188e-05
1.76306e-05
1.51726e-05
1.29834e-05
1.12061e-05
9.95888e-06
9.35922e-06
9.67223e-06
1.16242e-05
1.63775e-05
1.97237e-05
8.28535e-06
2.75361e-06
2.46125e-07
1.50924e-07
2.67148e-06
6.80127e-06
1.55805e-05
2.73444e-05
3.3708e-05
3.49179e-05
3.38063e-05
3.19582e-05
3.02005e-05
2.88645e-05
2.80116e-05
2.75867e-05
2.74529e-05
2.74553e-05
2.74426e-05
2.72682e-05
2.67896e-05
2.58771e-05
2.44523e-05
2.2518e-05
2.02017e-05
1.77579e-05
1.53906e-05
1.32315e-05
1.14473e-05
1.01901e-05
9.60696e-06
9.98676e-06
1.20756e-05
1.69827e-05
2.00734e-05
8.40232e-06
2.78854e-06
2.49207e-07
1.52655e-07
2.67272e-06
6.81368e-06
1.56377e-05
2.73672e-05
3.35534e-05
3.46026e-05
3.33805e-05
3.14796e-05
2.97178e-05
2.84079e-05
2.75976e-05
2.72168e-05
2.71194e-05
2.71449e-05
2.71406e-05
2.69622e-05
2.64755e-05
2.55665e-05
2.41775e-05
2.23294e-05
2.01515e-05
1.78702e-05
1.56183e-05
1.35108e-05
1.17285e-05
1.04556e-05
9.87452e-06
1.03047e-05
1.25115e-05
1.75563e-05
2.04138e-05
8.51785e-06
2.82329e-06
2.52519e-07
1.5441e-07
2.67386e-06
6.82607e-06
1.56948e-05
2.73858e-05
3.33924e-05
3.42806e-05
3.29487e-05
3.09963e-05
2.92315e-05
2.79483e-05
2.71806e-05
2.68431e-05
2.678e-05
2.68256e-05
2.68248e-05
2.66361e-05
2.61339e-05
2.522e-05
2.38584e-05
2.20903e-05
2.00515e-05
1.79429e-05
1.58284e-05
1.37992e-05
1.20382e-05
1.07552e-05
1.01695e-05
1.06367e-05
1.29453e-05
1.81119e-05
2.07416e-05
8.62552e-06
2.85678e-06
2.55869e-07
1.56215e-07
2.6752e-06
6.83956e-06
1.57545e-05
2.74038e-05
3.32277e-05
3.39545e-05
3.25136e-05
3.05111e-05
2.87442e-05
2.74882e-05
2.67629e-05
2.64679e-05
2.64372e-05
2.64995e-05
2.64976e-05
2.62923e-05
2.57671e-05
2.48395e-05
2.34952e-05
2.17975e-05
1.98924e-05
1.79554e-05
1.59934e-05
1.40701e-05
1.2359e-05
1.10849e-05
1.05007e-05
1.10028e-05
1.3407e-05
1.86838e-05
2.10627e-05
8.72403e-06
2.88848e-06
2.59101e-07
1.58056e-07
2.6767e-06
6.85386e-06
1.58157e-05
2.74202e-05
3.30602e-05
3.36264e-05
3.20777e-05
3.00264e-05
2.82583e-05
2.70295e-05
2.63463e-05
2.60927e-05
2.60926e-05
2.61687e-05
2.61614e-05
2.59343e-05
2.53798e-05
2.44311e-05
2.30956e-05
2.14585e-05
1.96775e-05
1.79004e-05
1.60942e-05
1.42975e-05
1.2666e-05
1.14281e-05
1.08639e-05
1.14108e-05
1.3915e-05
1.92921e-05
2.13685e-05
8.80814e-06
2.91714e-06
2.62021e-07
1.59927e-07
2.67857e-06
6.86964e-06
1.58798e-05
2.74372e-05
3.28926e-05
3.3299e-05
3.16438e-05
2.95451e-05
2.77765e-05
2.65751e-05
2.59335e-05
2.572e-05
2.57487e-05
2.58359e-05
2.58197e-05
2.55665e-05
2.49779e-05
2.40031e-05
2.26696e-05
2.10837e-05
1.94147e-05
1.77792e-05
1.61224e-05
1.44644e-05
1.294e-05
1.17708e-05
1.12555e-05
1.18708e-05
1.44926e-05
1.99623e-05
2.16589e-05
8.87959e-06
2.94337e-06
2.64567e-07
1.61785e-07
2.68065e-06
6.88618e-06
1.59451e-05
2.74536e-05
3.27254e-05
3.29737e-05
3.12139e-05
2.90694e-05
2.73011e-05
2.61268e-05
2.5526e-05
2.53515e-05
2.54074e-05
2.55039e-05
2.54764e-05
2.51946e-05
2.45698e-05
2.3567e-05
2.22326e-05
2.0691e-05
1.91207e-05
1.76058e-05
1.60835e-05
1.45644e-05
1.31647e-05
1.20936e-05
1.16599e-05
1.23752e-05
1.51401e-05
2.06908e-05
2.19228e-05
8.93837e-06
2.96719e-06
2.66718e-07
1.63607e-07
2.68302e-06
6.90369e-06
1.60123e-05
2.74714e-05
3.25607e-05
3.26527e-05
3.079e-05
2.86016e-05
2.68343e-05
2.56868e-05
2.51258e-05
2.49889e-05
2.50706e-05
2.51751e-05
2.51353e-05
2.4824e-05
2.41633e-05
2.31339e-05
2.17992e-05
2.02983e-05
1.88151e-05
1.74004e-05
1.59936e-05
1.4605e-05
1.33383e-05
1.23889e-05
1.2069e-05
1.29194e-05
1.58557e-05
2.14705e-05
2.21616e-05
8.991e-06
2.99015e-06
2.6862e-07
1.65358e-07
2.68554e-06
6.92152e-06
1.60798e-05
2.74892e-05
3.23987e-05
3.2337e-05
3.03743e-05
2.81444e-05
2.63793e-05
2.52583e-05
2.47359e-05
2.46351e-05
2.47413e-05
2.48528e-05
2.48002e-05
2.44602e-05
2.3766e-05
2.27145e-05
2.13846e-05
1.9926e-05
1.85224e-05
1.71907e-05
1.58779e-05
1.4603e-05
1.34652e-05
1.26488e-05
1.2467e-05
1.34829e-05
1.66129e-05
2.22671e-05
2.23712e-05
9.04055e-06
3.01277e-06
2.70406e-07
1.67032e-07
2.68824e-06
6.93984e-06
1.61487e-05
2.75092e-05
3.22412e-05
3.20282e-05
2.99684e-05
2.76999e-05
2.59383e-05
2.48439e-05
2.43589e-05
2.4293e-05
2.44228e-05
2.45411e-05
2.4476e-05
2.41082e-05
2.33833e-05
2.23151e-05
2.09972e-05
1.95862e-05
1.82591e-05
1.69983e-05
1.5761e-05
1.45801e-05
1.35586e-05
1.28758e-05
1.28461e-05
1.40506e-05
1.73896e-05
2.30568e-05
2.25614e-05
9.09312e-06
3.03642e-06
2.72279e-07
1.6862e-07
2.69096e-06
6.9582e-06
1.6218e-05
2.75305e-05
3.2088e-05
3.17269e-05
2.95741e-05
2.72705e-05
2.55146e-05
2.44468e-05
2.39984e-05
2.39658e-05
2.41183e-05
2.42433e-05
2.41662e-05
2.37719e-05
2.30193e-05
2.19403e-05
2.06432e-05
1.92886e-05
1.80384e-05
1.68419e-05
1.56655e-05
1.45587e-05
1.36355e-05
1.30787e-05
1.32059e-05
1.46021e-05
1.81503e-05
2.38046e-05
2.2734e-05
9.14852e-06
3.06072e-06
2.74313e-07
1.70145e-07
2.69386e-06
6.9773e-06
1.629e-05
2.75552e-05
3.19391e-05
3.14327e-05
2.9191e-05
2.68568e-05
2.51096e-05
2.40699e-05
2.36575e-05
2.36572e-05
2.38319e-05
2.39636e-05
2.38745e-05
2.34538e-05
2.26742e-05
2.15879e-05
2.03191e-05
1.90311e-05
1.78603e-05
1.67272e-05
1.5604e-05
1.45564e-05
1.37136e-05
1.32687e-05
1.35465e-05
1.51316e-05
1.88814e-05
2.45041e-05
2.29017e-05
9.20913e-06
3.08617e-06