/*--------------------------------*- C++ -*----------------------------------*\
| =========                 |                                                 |
| \\      /  F ield         | OpenFOAM: The Open Source CFD Toolbox           |
|  \\    /   O peration     | Version:  v1906                                 |
|   \\  /    A nd           | Web:      www.OpenFOAM.com                      |
|    \\/     M anipulation  |                                                 |
\*---------------------------------------------------------------------------*/
FoamFile
{
    version     2.0;
    format      ascii;
    class       volScalarField;
    location    "45";
    object      k;
}
// * * * * * * * * * * * * * * * * * * * * * * * * * * * * * * * * * * * * * //

dimensions      [0 2 -2 0 0 0 0];


internalField   nonuniform List<scalar> 
78750
(
3.05572e-06
3.48209e-06
3.8457e-06
4.00663e-06
4.02557e-06
3.93944e-06
3.79155e-06
3.61802e-06
3.44399e-06
3.2849e-06
3.14902e-06
3.03978e-06
2.9577e-06
2.90122e-06
2.86724e-06
2.85517e-06
2.86354e-06
2.88991e-06
2.93204e-06
2.98809e-06
3.05616e-06
3.13403e-06
3.21881e-06
3.30645e-06
3.39105e-06
3.46372e-06
3.51115e-06
3.51362e-06
3.44305e-06
3.26284e-06
2.93652e-06
2.45603e-06
1.88014e-06
1.3669e-06
1.22112e-06
2.96669e-07
2.92805e-06
5.29563e-06
7.25465e-06
8.75848e-06
9.85589e-06
1.06437e-05
1.12184e-05
1.16527e-05
1.19922e-05
1.22663e-05
1.24953e-05
1.26938e-05
1.28728e-05
1.30398e-05
1.32023e-05
1.33641e-05
1.3525e-05
1.36822e-05
1.38304e-05
1.39619e-05
1.40661e-05
1.41294e-05
1.41349e-05
1.40615e-05
1.38816e-05
1.3559e-05
1.3046e-05
1.22857e-05
1.1221e-05
9.81926e-06
8.20606e-06
6.83167e-06
6.40497e-06
7.65787e-06
2.82446e-07
2.23905e-06
4.0681e-06
5.68234e-06
7.01963e-06
8.06518e-06
8.85163e-06
9.43988e-06
9.89457e-06
1.02652e-05
1.05837e-05
1.08652e-05
1.11133e-05
1.13262e-05
1.15011e-05
1.16371e-05
1.17372e-05
1.1811e-05
1.18751e-05
1.19394e-05
1.2016e-05
1.21123e-05
1.22449e-05
1.24222e-05
1.26422e-05
1.28874e-05
1.31165e-05
1.32552e-05
1.31949e-05
1.28045e-05
1.20172e-05
1.09975e-05
1.02318e-05
1.03688e-05
1.2092e-05
3.5159e-07
2.29493e-06
4.26027e-06
6.21524e-06
8.1301e-06
9.99559e-06
1.1815e-05
1.35909e-05
1.53149e-05
1.69639e-05
1.85021e-05
1.98853e-05
2.10677e-05
2.20062e-05
2.26658e-05
2.30222e-05
2.30645e-05
2.27976e-05
2.22444e-05
2.14323e-05
2.04037e-05
1.92129e-05
1.79184e-05
1.65953e-05
1.53267e-05
1.42049e-05
1.33295e-05
1.27694e-05
1.25342e-05
1.25079e-05
1.24744e-05
1.2343e-05
1.23766e-05
1.31371e-05
1.5451e-05
6.03e-07
4.88469e-06
9.38089e-06
1.40885e-05
1.88957e-05
2.36626e-05
2.82713e-05
3.26179e-05
3.66077e-05
4.0156e-05
4.31913e-05
4.56567e-05
4.7512e-05
4.87335e-05
4.93143e-05
4.92635e-05
4.8605e-05
4.73766e-05
4.56287e-05
4.34238e-05
4.08353e-05
3.79462e-05
3.48423e-05
3.16176e-05
2.83734e-05
2.5203e-05
2.21966e-05
1.94956e-05
1.7298e-05
1.57745e-05
1.49371e-05
1.46819e-05
1.50681e-05
1.65004e-05
1.98951e-05
1.22718e-06
9.87743e-06
1.86535e-05
2.73859e-05
3.57231e-05
4.34479e-05
5.04666e-05
5.66834e-05
6.20103e-05
6.63938e-05
6.98084e-05
7.22516e-05
7.37398e-05
7.43045e-05
7.39901e-05
7.28513e-05
7.0952e-05
6.83651e-05
6.51725e-05
6.14672e-05
5.73529e-05
5.295e-05
4.84007e-05
4.38439e-05
3.93774e-05
3.50671e-05
3.09729e-05
2.71722e-05
2.38086e-05
2.10977e-05
1.9246e-05
1.83846e-05
1.86581e-05
2.03547e-05
2.42043e-05
1.93985e-06
1.47746e-05
2.73447e-05
3.93209e-05
5.01777e-05
5.95492e-05
6.75528e-05
7.43502e-05
7.99367e-05
8.43295e-05
8.75623e-05
8.96798e-05
9.07342e-05
9.07828e-05
8.98858e-05
8.81061e-05
8.55086e-05
8.21593e-05
7.81345e-05
7.35345e-05
6.84474e-05
6.29719e-05
5.72755e-05
5.1557e-05
4.60145e-05
4.08073e-05
3.60472e-05
3.18264e-05
2.8249e-05
2.54346e-05
2.3496e-05
2.25497e-05
2.27645e-05
2.43675e-05
2.79291e-05
2.65304e-06
1.89657e-05
3.4537e-05
4.89733e-05
6.17285e-05
7.24483e-05
8.12014e-05
8.83804e-05
9.42186e-05
9.87619e-05
0.000102065
0.000104187
0.000105194
0.000105152
0.000104131
0.000102201
9.9437e-05
9.58862e-05
9.15525e-05
8.64609e-05
8.06911e-05
7.43676e-05
6.76639e-05
6.0805e-05
5.40486e-05
4.76331e-05
4.17545e-05
3.66057e-05
3.23962e-05
2.92971e-05
2.7358e-05
2.65289e-05
2.67817e-05
2.82097e-05
3.13235e-05
3.29265e-06
2.20603e-05
3.98786e-05
5.63062e-05
7.0703e-05
8.26274e-05
9.20559e-05
9.959e-05
0.000105642
0.000110276
0.000113563
0.000115582
0.000116417
0.000116156
0.00011489
0.000112712
0.00010968
0.000105794
0.000101066
9.55478e-05
8.93236e-05
8.25094e-05
7.52691e-05
6.78301e-05
6.04732e-05
5.34549e-05
4.69697e-05
4.12347e-05
3.65405e-05
3.31651e-05
3.11996e-05
3.04872e-05
3.07814e-05
3.20264e-05
3.46954e-05
4.10452e-06
2.55309e-05
4.58549e-05
6.44712e-05
8.05437e-05
9.35628e-05
0.000103591
0.000111401
0.000117534
0.000122115
0.000125241
0.000127011
0.000127529
0.000126899
0.000125228
0.000122599
0.000119029
0.000114526
0.000109147
0.000102973
9.61084e-05
8.8683e-05
8.08681e-05
7.29013e-05
6.50969e-05
5.77438e-05
5.10105e-05
4.50765e-05
4.02305e-05
3.67957e-05
3.49054e-05
3.43458e-05
3.46893e-05
3.57402e-05
3.78963e-05
4.96947e-06
2.90842e-05
5.18836e-05
7.25575e-05
9.0085e-05
0.000103958
0.000114418
0.000122386
0.00012851
0.000132984
0.000135925
0.000137453
0.000137681
0.000136724
0.00013468
0.000131581
0.000127427
0.000122268
0.000116184
0.000109277
0.000101677
9.35358e-05
8.50498e-05
7.64895e-05
6.82316e-05
6.0627e-05
5.3828e-05
4.79668e-05
4.32851e-05
4.00752e-05
3.84477e-05
3.81183e-05
3.85184e-05
3.935e-05
4.09321e-05
5.97262e-06
3.29577e-05
5.82906e-05
8.09466e-05
9.97744e-05
0.000114354
0.00012516
0.000133216
0.000139268
0.000143593
0.000146327
0.000147602
0.000147544
0.000146266
0.000143819
0.000140207
0.000135469
0.000129673
0.000122914
0.000115307
0.000106991
9.81288e-05
8.89304e-05
7.96938e-05
7.08641e-05
6.28957e-05
5.5969e-05
5.02012e-05
4.57925e-05
4.29687e-05
4.1754e-05
4.17445e-05
4.22297e-05
4.2835e-05
4.38194e-05
6.98594e-06
3.66746e-05
6.43573e-05
8.88197e-05
0.000108814
0.000124032
0.000135166
0.000143325
0.000149339
0.000153556
0.000156126
0.000157191
0.000156882
0.000155281
0.000152403
0.000148279
0.000142969
0.000136558
0.000129153
0.000120885
0.000111899
0.000102364
9.24951e-05
8.26082e-05
7.32078e-05
6.48518e-05
5.77597e-05
5.20628e-05
4.79476e-05
4.55784e-05
4.48621e-05
4.52311e-05
4.58237e-05
4.62066e-05
4.66127e-05
8.08685e-06
4.05479e-05
7.06001e-05
9.68431e-05
0.000117956
0.000133772
0.000145222
0.00015348
0.000159458
0.000163573
0.000165989
0.000166862
0.000166306
0.000164359
0.000161048
0.000156419
0.000150544
0.000143522
0.000135478
0.000126552
0.000116896
0.000106684
9.61345e-05
8.55778e-05
7.55704e-05
6.67783e-05
5.94667e-05
5.37902e-05
4.99358e-05
4.80164e-05
4.78177e-05
4.85876e-05
4.93053e-05
4.94867e-05
4.93576e-05
9.18076e-06
4.42137e-05
7.64408e-05
0.000104299
0.000126413
0.00014276
0.000154494
0.000162915
0.000168921
0.000172969
0.000175287
0.000176022
0.000175242
0.000172982
0.000169278
0.000164187
0.000157796
0.000150217
0.000141586
0.00013205
0.00012177
0.00011092
9.97207e-05
8.85148e-05
7.791e-05
6.86785e-05
6.11304e-05
5.54513e-05
5.18384e-05
5.03595e-05
5.0677e-05
5.18465e-05
5.26951e-05
5.26909e-05
5.20706e-05
1.03407e-05
4.79299e-05
8.23022e-05
0.000111734
0.00013481
0.00015166
0.000163657
0.000172234
0.000178299
0.000182334
0.00018459
0.000185187
0.000184183
0.000181613
0.000177522
0.000171977
0.000165077
0.000156949
0.000147738
0.000137601
0.000126704
0.000115224
0.000103383
9.15351e-05
8.03342e-05
7.06579e-05
6.2858e-05
5.71502e-05
5.37459e-05
5.26758e-05
5.3484e-05
5.50354e-05
5.60133e-05
5.58376e-05
5.47639e-05
1.15031e-05
5.14678e-05
8.78242e-05
0.000118705
0.000142665
0.00015999
0.000172255
0.000181002
0.000187174
0.000191254
0.000193483
0.000193975
0.000192785
0.000189948
0.000185514
0.000179559
0.000172192
0.000163552
0.00015379
0.000143075
0.000131578
0.000119479
0.000107004
9.45214e-05
8.27364e-05
7.26331e-05
6.45976e-05
5.88708e-05
5.56738e-05
5.49982e-05
5.62726e-05
5.81786e-05
5.92736e-05
5.89303e-05
5.74237e-05
1.27287e-05
5.50246e-05
9.33096e-05
0.000125576
0.000150364
0.000168132
0.000180657
0.00018958
0.000195869
0.000200006
0.000202225
0.000202633
0.000201279
0.000198201
0.00019345
0.000187112
0.000179305
0.000170178
0.000159887
0.000148609
0.000136523
0.000123812
0.000110706
9.75875e-05
8.52149e-05
7.4683e-05
6.641e-05
6.06594e-05
5.76588e-05
5.73583e-05
5.90706e-05
6.13003e-05
6.24944e-05
6.19774e-05
6.00417e-05
1.39695e-05
5.84358e-05
9.85116e-05
0.000132061
0.00015762
0.000175813
0.000188608
0.000197732
0.000204169
0.000208398
0.000210642
0.000211002
0.000209522
0.000206238
0.000201208
0.000194523
0.000186313
0.00017673
0.000165936
0.000154114
0.000141449
0.00012813
0.000114394
0.000100642
8.76908e-05
7.67499e-05
6.82609e-05
6.25029e-05
5.97033e-05
5.97657e-05
6.18874e-05
6.44051e-05
6.56745e-05
6.49704e-05
6.25971e-05
1.5271e-05
6.18605e-05
0.000103679
0.000138458
0.000164737
0.000183328
0.000196385
0.000205714
0.000212309
0.000216643
0.000218928
0.000219258
0.000217673
0.000214208
0.000208925
0.000201925
0.000193343
0.000183335
0.000172064
0.000159718
0.000146487
0.000132563
0.000118189
0.00010379
9.02458e-05
7.88891e-05
7.01854e-05
6.44248e-05
6.18271e-05
6.22411e-05
6.47452e-05
6.75146e-05
6.88297e-05
6.79128e-05
6.50767e-05
1.66002e-05
6.51984e-05
0.000108653
0.000144575
0.000171518
0.000190483
0.000203805
0.000213354
0.000220128
0.000224589
0.000226941
0.000227267
0.000225606
0.000221991
0.000216491
0.00020921
0.00020029
0.000189889
0.000178175
0.000165335
0.00015156
0.000137045
0.000122043
0.000107
9.28653e-05
8.10982e-05
7.21848e-05
6.64254e-05
6.40272e-05
6.47782e-05
6.76344e-05
7.0617e-05
7.19463e-05
7.079e-05
6.7465e-05
1.79834e-05
6.85426e-05
0.000113587
0.000150602
0.000178167
0.000197486
0.000211068
0.00022084
0.0002278
0.000232399
0.000234829
0.000235168
0.000233447
0.000229705
0.000224013
0.000216481
0.000207253
0.00019649
0.00018436
0.000171053
0.000156752
0.000141657
0.000126026
0.000110332
9.55972e-05
8.34152e-05
7.42902e-05
6.85301e-05
6.63253e-05
6.73966e-05
7.0574e-05
7.37301e-05
7.50376e-05
7.36048e-05
6.975e-05
1.93968e-05
7.18365e-05
0.000118394
0.000156437
0.000184577
0.000204231
0.000218072
0.000228075
0.000235233
0.000239982
0.000242506
0.000242874
0.000241115
0.00023727
0.000231415
0.000223665
0.000214164
0.000203077
0.000190569
0.000176829
0.000162038
0.000146387
0.000130141
0.000113802
9.84643e-05
8.58624e-05
7.65171e-05
7.07448e-05
6.87175e-05
7.0085e-05
7.35485e-05
7.6838e-05
7.80887e-05
7.6345e-05
7.19265e-05
2.08568e-05
7.51377e-05
0.000123162
0.000162182
0.00019086
0.000210829
0.000224925
0.000235161
0.000242521
0.000247428
0.000250053
0.000250461
0.00024868
0.00024475
0.000238755
0.000230814
0.000221071
0.000209692
0.000196838
0.000182694
0.000167439
0.000151255
0.000134409
0.000117431
0.000101495
8.84727e-05
7.88988e-05
7.30988e-05
7.12259e-05
7.28578e-05
7.65661e-05
7.99451e-05
8.11009e-05
7.90087e-05
7.39869e-05
2.23394e-05
7.83879e-05
0.000127814
0.000167759
0.000196944
0.000217221
0.000231575
0.000242051
0.00024962
0.000254691
0.000257428
0.000257887
0.000256098
0.000252105
0.000245997
0.000237894
0.000227945
0.000216312
0.000203151
0.000188642
0.000172955
0.000156268
0.000138843
0.000121239
0.000104708
9.12632e-05
8.14482e-05
7.55993e-05
7.38525e-05
7.57137e-05
7.96264e-05
8.30552e-05
8.40802e-05
8.15989e-05
7.59318e-05
2.38571e-05
8.16342e-05
0.00013242
0.000173253
0.000202917
0.000223491
0.000238103
0.000248819
0.000256597
0.000261832
0.00026468
0.000265195
0.000263407
0.000259365
0.000253162
0.000244923
0.000234799
0.000222947
0.000209514
0.000194674
0.000178588
0.000161426
0.000143451
0.00012524
0.000108129
9.42647e-05
8.41962e-05
7.82715e-05
7.66116e-05
7.86528e-05
8.27138e-05
8.61407e-05
8.69956e-05
8.40949e-05
7.77572e-05
2.53896e-05
8.48248e-05
0.00013691
0.000178589
0.000208717
0.000229591
0.000244467
0.000255429
0.000263418
0.000268818
0.000271778
0.000272354
0.000270576
0.000266501
0.000260226
0.000251881
0.000241614
0.000229579
0.000215913
0.000200781
0.000184334
0.000166731
0.000148234
0.00012944
0.000111766
9.74881e-05
8.71543e-05
8.1126e-05
7.95133e-05
8.16894e-05
8.58563e-05
8.92488e-05
8.98994e-05
8.65311e-05
7.94715e-05
2.6943e-05
8.79858e-05
0.00014133
0.000183829
0.000214412
0.000235592
0.000250738
0.000261945
0.000270138
0.000275693
0.000278758
0.000279392
0.000277629
0.000273531
0.000267203
0.000258776
0.000248397
0.000236212
0.00022235
0.000206963
0.000190191
0.000172181
0.000153194
0.000133848
0.000115638
0.000100958
9.03495e-05
8.41869e-05
8.25721e-05
8.48195e-05
8.90179e-05
9.23023e-05
9.27138e-05
8.8866e-05
8.10738e-05
2.85039e-05
9.10833e-05
0.00014563
0.00018892
0.000219959
0.000241462
0.000256895
0.000268348
0.000276733
0.000282428
0.000285588
0.000286275
0.000284532
0.000280426
0.000274066
0.000265584
0.000255123
0.000242824
0.000228801
0.000213198
0.000196138
0.000177759
0.000158315
0.000138452
0.000119735
0.000104669
9.37804e-05
8.74558e-05
8.57909e-05
8.80507e-05
9.22341e-05
9.54237e-05
9.55342e-05
9.11356e-05
8.25773e-05
3.00726e-05
9.41201e-05
0.000149819
0.000193878
0.000225387
0.00024725
0.000263003
0.000274693
0.00028324
0.000289045
0.000292279
0.000293015
0.000291297
0.000287197
0.000280825
0.000272312
0.000261799
0.000249417
0.000235269
0.000219485
0.000202176
0.000183464
0.000163602
0.000143256
0.000124071
0.000108637
9.74654e-05
9.09533e-05
8.9193e-05
9.14108e-05
9.55344e-05
9.8612e-05
9.83949e-05
9.337e-05
8.39907e-05
3.16407e-05
9.70743e-05
0.000153864
0.000198662
0.000230654
0.000252943
0.000269054
0.000280982
0.000289632
0.000295501
0.000298792
0.000299576
0.000297893
0.000293816
0.000287454
0.000278937
0.0002684
0.000255967
0.000241726
0.000225797
0.000208275
0.000189268
0.000169023
0.000148232
0.00012862
0.000112841
0.00010139
9.46717e-05
9.27762e-05
9.48983e-05
9.8912e-05
0.000101846
0.000101271
9.55702e-05
8.53197e-05
3.32072e-05
9.99463e-05
0.000157764
0.000203265
0.000235722
0.000258417
0.000274828
0.000287004
0.000295832
0.000301765
0.000305119
0.000305961
0.000304327
0.000300291
0.00029396
0.000285463
0.000274929
0.000262473
0.000248171
0.000232131
0.000214432
0.000195168
0.000174582
0.000153389
0.000133395
0.000117296
0.000105565
9.86204e-05
9.65525e-05
9.85316e-05
0.000102387
0.000105133
0.000104161
9.7739e-05
8.65693e-05
3.47655e-05
0.000102724
0.000161512
0.000207698
0.000240656
0.000263693
0.000280389
0.000292806
0.000301816
0.000307847
0.000311255
0.000312156
0.000310581
0.000306601
0.000300323
0.00029187
0.000281365
0.000268914
0.000254581
0.000238461
0.00022062
0.000201137
0.000180252
0.000158701
0.000138379
0.000121986
0.00010998
0.000102792
0.000100515
0.000102298
0.000105934
0.000108457
0.000107056
9.98746e-05
8.77451e-05
3.63102e-05
0.000105402
0.000165088
0.000211905
0.00024534
0.000268694
0.000285669
0.000298335
0.000307545
0.000313713
0.00031717
0.000318141
0.000316643
0.000312739
0.000306537
0.000298153
0.000287704
0.000275286
0.000260952
0.000244784
0.000226836
0.000207174
0.000186034
0.000164179
0.000143583
0.000126925
0.000114645
0.000107191
0.000104666
0.000106207
0.000109597
0.000111827
0.000109958
0.000101983
8.88577e-05
3.78336e-05
0.00010798
0.000168506
0.000215915
0.000249796
0.000273454
0.000290698
0.000303604
0.000313012
0.000319321
0.000322844
0.000323898
0.000322488
0.00031868
0.000312576
0.000304289
0.00029392
0.000281562
0.000267253
0.000251068
0.000233045
0.000213242
0.000191891
0.000169784
0.000148979
0.000132094
0.000119553
0.000111817
0.000109008
0.000110268
0.000113388
0.000115252
0.000112868
0.000104065
8.99157e-05
3.93426e-05
0.000110472
0.000171784
0.000219752
0.000254037
0.000277967
0.000295465
0.00030861
0.000318225
0.000324694
0.000328308
0.000329457
0.000328147
0.000324443
0.000318447
0.000310265
0.000300003
0.000287739
0.000273485
0.000257312
0.000239249
0.000219343
0.000197829
0.000175525
0.000154575
0.000137504
0.000124712
0.000116679
0.000113553
0.000114489
0.000117297
0.000118743
0.000115802
0.000106137
9.09321e-05
4.08277e-05
0.000112858
0.000174909
0.000223434
0.00025804
0.000282211
0.00029995
0.000313328
0.000323152
0.000329795
0.000333544
0.00033477
0.000333563
0.000329982
0.000324119
0.000316071
0.00030593
0.000293767
0.000279598
0.00026347
0.0002454
0.000225428
0.000203797
0.000181356
0.000160336
0.000143129
0.000130109
0.000121773
0.000118296
0.000118863
0.000121309
0.000122291
0.000118757
0.000108198
9.19142e-05
4.22913e-05
0.000115143
0.000177878
0.000226929
0.000261808
0.000286201
0.000304172
0.000317776
0.000327804
0.000334617
0.000338499
0.000339822
0.00033874
0.000335302
0.000329593
0.000321701
0.000311708
0.000299674
0.000285602
0.000269539
0.000251493
0.00023149
0.000209783
0.000187262
0.000166246
0.000148958
0.000135742
0.000127103
0.000123248
0.000123401
0.000125434
0.000125911
0.000121748
0.000110264
9.28704e-05
4.3728e-05
0.000117311
0.000180654
0.000230179
0.000265311
0.000289917
0.000308112
0.000321937
0.000332165
0.000339151
0.000343174
0.000344604
0.000343657
0.000340376
0.000334837
0.000327119
0.000317294
0.00030541
0.000291459
0.000275478
0.000257471
0.000237474
0.000215733
0.000193188
0.000172252
0.000154946
0.000141577
0.000132648
0.000128398
0.000128094
0.000129663
0.000129593
0.000124771
0.000112332
9.38023e-05
4.51424e-05
0.000119401
0.000183295
0.000233247
0.000268599
0.000293396
0.000311799
0.000325831
0.000336252
0.000343406
0.000347571
0.000349116
0.000348316
0.000345207
0.000339854
0.000332328
0.000322689
0.000310974
0.000297164
0.000281286
0.000263339
0.000243359
0.000221624
0.000199105
0.00017832
0.000161058
0.000147588
0.000138401
0.00013375
0.000132951
0.000134011
0.000133353
0.000127837
0.000114409
9.47081e-05
4.65223e-05
0.000121362
0.00018574
0.000236074
0.000271624
0.0002966
0.000315201
0.000329434
0.000340042
0.000347362
0.000351671
0.000353339
0.000352697
0.000349773
0.000344622
0.000337303
0.000327868
0.000316341
0.000302691
0.000286937
0.000269071
0.000249132
0.000227419
0.000204968
0.000184394
0.000167233
0.000153718
0.000144313
0.00013927
0.000137952
0.000138464
0.000137183
0.00013094
0.000116488
9.55818e-05
4.78737e-05
0.000123243
0.000188058
0.00023873
0.000274446
0.000299577
0.000318358
0.000332776
0.000343558
0.000351036
0.000355487
0.000357284
0.000356807
0.000354077
0.000349139
0.000342044
0.00033283
0.000321511
0.000308042
0.000292433
0.000274673
0.000254801
0.000233139
0.000210787
0.000190466
0.000173441
0.000159922
0.000150344
0.000144939
0.000143097
0.000143033
0.000141093
0.000134087
0.00011857
9.64201e-05
4.91832e-05
0.000125004
0.000190192
0.000241156
0.000277014
0.000302285
0.000321233
0.000335825
0.000346773
0.000354405
0.000358998
0.000360928
0.000360625
0.000358099
0.000353388
0.000346532
0.000337558
0.000326468
0.000313203
0.000297767
0.00028014
0.000260367
0.000238792
0.000216577
0.000196552
0.000179681
0.000166169
0.00015644
0.000150697
0.000148341
0.000147688
0.000145068
0.000137269
0.000120654
9.72282e-05
5.04523e-05
0.000126676
0.000192193
0.000243411
0.000279382
0.00030477
0.000323865
0.000338613
0.000349714
0.000357488
0.000362218
0.000364284
0.000364159
0.000361844
0.00035737
0.000350767
0.000342053
0.000331214
0.000318182
0.000302949
0.000285492
0.000265858
0.000244416
0.000222387
0.000202681
0.00018597
0.00017246
0.00016258
0.000156518
0.000153665
0.000152422
0.000149109
0.000140496
0.000122753
9.80267e-05
5.16754e-05
0.000128242
0.000194036
0.000245463
0.000281518
0.000307002
0.000326227
0.000341116
0.000352356
0.000360264
0.000365125
0.00036733
0.000367385
0.000365288
0.000361061
0.000354725
0.000346287
0.000335724
0.000322953
0.000307961
0.00029072
0.000271283
0.000250042
0.000228277
0.000208935
0.000192385
0.000178844
0.000168773
0.000162367
0.000159012
0.000157193
0.000153191
0.000143758
0.000124876
9.88406e-05
5.28551e-05
0.000129725
0.000195754
0.000247351
0.000283461
0.000309019
0.000328351
0.000343363
0.000354724
0.000362752
0.000367736
0.000370076
0.000370312
0.000368435
0.000364461
0.000358402
0.000350255
0.000339986
0.000327504
0.00031279
0.000295815
0.000276644
0.000255693
0.000234307
0.000215374
0.000198988
0.00018538
0.000175061
0.000168267
0.000164414
0.000162004
0.000157324
0.000147076
0.000127049
9.97003e-05
5.39935e-05
0.000131125
0.000197345
0.000249065
0.000285198
0.000310804
0.000330224
0.000345337
0.000356802
0.000364936
0.000370032
0.000372503
0.000372915
0.000371258
0.000367539
0.000361762
0.000353914
0.000343955
0.000331785
0.000317383
0.000300727
0.000281897
0.000261351
0.000240502
0.000222044
0.000205854
0.00019216
0.000181523
0.000174269
0.000169892
0.000166847
0.000161488
0.000150435
0.000129273
0.00010062
5.50973e-05
0.000132456
0.000198833
0.000250628
0.00028675
0.00031238
0.000331865
0.000347059
0.00035861
0.000366832
0.000372027
0.000374619
0.000375202
0.000373758
0.000370291
0.000364794
0.000357248
0.000347601
0.000335753
0.000321685
0.000305386
0.000286967
0.000266937
0.0002468
0.000228919
0.000213005
0.000199249
0.000188254
0.000180463
0.000175498
0.000171776
0.000165728
0.000153873
0.000131573
0.00010161
5.61741e-05
0.000133725
0.000200238
0.000252041
0.000288114
0.000313742
0.000333269
0.000348523
0.000360138
0.000368429
0.000373707
0.00037641
0.000377153
0.000375914
0.000372691
0.000367469
0.000360217
0.00035088
0.000339351
0.00032562
0.000309697
0.000291732
0.000272306
0.000253032
0.000235864
0.000220365
0.000206641
0.000195302
0.000186908
0.000181265
0.000176796
0.000170031
0.000157366
0.000133927
0.000102647
5.723e-05
0.000134921
0.000201538
0.000253299
0.000289298
0.000314903
0.00033445
0.000349742
0.0003614
0.00036974
0.000375086
0.000377887
0.000378777
0.000377733
0.000374743
0.000369784
0.000362815
0.000353773
0.000342549
0.000329143
0.000313589
0.000296088
0.000277315
0.000259015
0.000242696
0.000227786
0.000214266
0.000202685
0.000193689
0.000187299
0.000182004
0.00017447
0.000160958
0.000136342
0.000103704
5.82658e-05
0.00013604
0.000202715
0.000254407
0.000290307
0.000315866
0.00033541
0.000350716
0.000362394
0.000370763
0.000376158
0.000379045
0.000380071
0.00037921
0.000376443
0.000371737
0.000365039
0.000356277
0.000345339
0.000332233
0.000317023
0.000299969
0.000281859
0.000264589
0.000249217
0.000235058
0.000221941
0.00021029
0.000200768
0.000193605
0.000187403
0.000179027
0.000164612
0.00013877
0.000104729
5.92831e-05
0.000137096
0.000203792
0.000255379
0.000291154
0.000316642
0.000336161
0.000351457
0.000363133
0.000371509
0.000376935
0.000379895
0.000381045
0.000380357
0.000377806
0.000373345
0.00036691
0.000358417
0.000347748
0.000334919
0.000320021
0.00030338
0.000285908
0.000269671
0.00025529
0.000242003
0.000229491
0.000217991
0.0002081
0.000200219
0.000193074
0.000183785
0.000168385
0.000141228
0.000105693
6.02694e-05
0.000138071
0.000204752
0.000256208
0.000291835
0.000317233
0.000336704
0.000351969
0.000363619
0.000371982
0.000377421
0.000380441
0.000381704
0.000381182
0.000378841
0.000374625
0.000368455
0.000360232
0.00034983
0.000337267
0.000322658
0.000306396
0.00028952
0.000274266
0.00026084
0.00024846
0.000236685
0.000225545
0.000215484
0.000207008
0.000198925
0.000188677
0.000172219
0.000143668
0.000106575
6.12174e-05
0.000138976
0.000205613
0.00025691
0.000292367
0.000317652
0.000337052
0.000352263
0.000363866
0.000372195
0.00037763
0.000380698
0.000382064
0.000381701
0.000379569
0.000375602
0.000369708
0.000361773
0.000351656
0.000339376
0.000325065
0.000309173
0.000292869
0.000278509
0.000265938
0.000254413
0.000243429
0.00023282
0.000222817
0.000213929
0.000204976
0.000193749
0.000176164
0.000146131
0.000107402
6.21161e-05
0.000139799
0.000206363
0.000257479
0.000292747
0.000317901
0.000337211
0.000352346
0.00036388
0.000372154
0.000377568
0.000380673
0.000382133
0.000381922
0.000379999
0.000376288
0.000370688
0.000363071
0.000353283
0.000341336
0.000327375
0.0003119
0.000296196
0.000282621
0.000270742
0.000259913
0.000249647
0.000239633
0.000229868
0.000220768
0.000211075
0.000198904
0.000180165
0.000148611
0.000108234
6.2965e-05
0.000140556
0.000207025
0.000257939
0.000292999
0.000318002
0.000337201
0.000352238
0.000363681
0.000371877
0.00037725
0.000380378
0.000381919
0.000381852
0.000380133
0.000376686
0.0003714
0.000364139
0.000354738
0.000343204
0.000329695
0.000314752
0.000299766
0.000286893
0.000275547
0.00026521
0.000255488
0.000246015
0.000236578
0.000227444
0.000217174
0.00020415
0.000184279
0.000151198
0.000109171
6.37671e-05
0.00014125
0.0002076
0.000258293
0.000293129
0.000317965
0.000337034
0.000351952
0.00036328
0.000371375
0.000376682
0.000379819
0.000381427
0.000381488
0.000379962
0.000376774
0.000371815
0.000364944
0.000355989
0.000344958
0.000332021
0.000317764
0.000303664
0.000291487
0.000280573
0.000270533
0.000261129
0.000252039
0.000242916
0.00023385
0.000223149
0.000209387
0.000188461
0.000153903
0.000110268
6.45359e-05
0.000141901
0.000208116
0.000258571
0.000293167
0.000317819
0.000336739
0.000351517
0.000362707
0.000370677
0.000375895
0.000379019
0.000380669
0.000380832
0.000379476
0.000376534
0.0003719
0.000365436
0.000356973
0.000346526
0.000334285
0.000320878
0.000307856
0.000296466
0.000285991
0.000276133
0.000266829
0.000257892
0.000248953
0.000240005
0.000229007
0.000214638
0.000192757
0.000156778
0.000111551
6.52853e-05
0.000142519
0.000208581
0.000258781
0.000293123
0.000317574
0.000336326
0.000350943
0.000361972
0.000369791
0.000374894
0.00037798
0.000379643
0.000379879
0.000378663
0.000375937
0.000371606
0.000365543
0.00035759
0.000347782
0.000336337
0.000323935
0.000312181
0.000301738
0.000291804
0.00028212
0.000272772
0.000263777
0.000254884
0.000245939
0.000234687
0.000219808
0.000197072
0.000159744
0.000112981
6.60356e-05
0.000143126
0.000209022
0.000258954
0.000293028
0.000317264
0.00033583
0.000350264
0.000361107
0.00036875
0.00037371
0.00037673
0.000378373
0.000378643
0.000377526
0.000374974
0.000370908
0.000365219
0.000357768
0.000348621
0.000338044
0.00032678
0.000316471
0.000307168
0.000297964
0.000288566
0.000279153
0.000269959
0.000260958
0.000251856
0.000240316
0.00022497
0.000201448
0.00016282
0.000114514
6.67965e-05
0.000143724
0.000209439
0.000259091
0.000292888
0.000316896
0.000335261
0.000349492
0.000360128
0.000367569
0.000372358
0.000375283
0.000376871
0.000377133
0.000376067
0.000373637
0.000369782
0.000364414
0.000357427
0.000348931
0.000339255
0.000329229
0.000320493
0.000312514
0.000304259
0.00029534
0.000285948
0.000276497
0.000267231
0.000257807
0.000245896
0.000230078
0.000205806
0.000165933
0.000116067
6.75788e-05
0.000144327
0.000209854
0.000259219
0.00029273
0.000316501
0.000334652
0.000348664
0.000359071
0.000366286
0.000370881
0.000373682
0.000375181
0.000375396
0.000374331
0.000371967
0.00036826
0.000363148
0.000356564
0.000348676
0.000339897
0.000331177
0.000324072
0.000317555
0.000310467
0.00030228
0.000293112
0.000283474
0.000273875
0.000263979
0.00025158
0.000235227
0.000210174
0.000169035
0.000117567
6.83769e-05
0.000144925
0.000210258
0.000259333
0.000292555
0.000316083
0.00033401
0.00034779
0.00035795
0.000364921
0.000369298
0.000371951
0.000373331
0.000373461
0.000372354
0.000370003
0.000366383
0.00036146
0.000355209
0.000347868
0.000339957
0.000332571
0.000327062
0.000322058
0.000316286
0.000309061
0.000300365
0.000290707
0.000280807
0.000270348
0.000257348
0.00024037
0.000214465
0.00017201
0.000118927
6.9188e-05
0.000145522
0.000210663
0.00025945
0.000292383
0.000315667
0.000333365
0.000346904
0.000356805
0.000363515
0.000367658
0.000370145
0.00037138
0.000371393
0.000370206
0.000367823
0.000364236
0.000359438
0.000353451
0.000346589
0.000339493
0.000333432
0.000329429
0.000325919
0.000321543
0.00031547
0.000307509
0.000298081
0.000288017
0.000276981
0.000263292
0.000245584
0.000218714
0.000174855
0.000120119
6.99932e-05
0.000146103
0.000211055
0.00025956
0.000292211
0.000315252
0.00033272
0.000346014
0.00035565
0.000362088
0.000365985
0.000368291
0.000369364
0.000369238
0.000367944
0.000365497
0.000361905
0.000357185
0.000351403
0.000344949
0.000338595
0.000333791
0.00033116
0.000329048
0.000326055
0.00032123
0.000314205
0.000305256
0.000295238
0.000283702
0.000269303
0.00025079
0.000222851
0.000177519
0.000121133
7.0783e-05
0.000146671
0.000211444
0.000259677
0.000292053
0.000314859
0.000332101
0.000345151
0.000354518
0.00036068
0.000364324
0.00036644
0.000367336
0.000367055
0.000365638
0.00036311
0.000359493
0.000354828
0.000349217
0.000343124
0.000337449
0.000333815
0.000332401
0.000331546
0.000329853
0.000326296
0.000320345
0.000312102
0.000302356
0.000290454
0.000275384
0.00025603
0.00022694
0.000180073
0.000122035
7.15424e-05
0.000147214
0.000211815
0.000259789
0.000291902
0.000314484
0.000331509
0.000344321
0.000353423
0.000359309
0.000362696
0.000364617
0.000365326
0.000364878
0.000363326
0.000360708
0.000357062
0.000352448
0.000347003
0.000341257
0.000336223
0.000333669
0.000333313
0.000333536
0.000332986
0.000330615
0.000325774
0.000318384
0.000309119
0.000297022
0.000281377
0.000261204
0.000230939
0.000182535
0.000122885
7.22684e-05
0.000147738
0.000212178
0.000259904
0.00029177
0.000314139
0.00033096
0.000343545
0.00035239
0.000358006
0.00036114
0.000362864
0.000363379
0.000362755
0.000361061
0.000358352
0.00035468
0.00035013
0.000344871
0.00033949
0.000335102
0.000333562
0.000334132
0.000335256
0.000335663
0.000334331
0.000330539
0.00032406
0.000315446
0.000303344
0.000287268
0.000266351
0.000234938
0.000185018
0.000123774
7.29571e-05
0.000148235
0.00021252
0.000260008
0.000291641
0.000313815
0.000330448
0.00034282
0.000351422
0.000356778
0.000359665
0.000361192
0.000361506
0.000360696
0.000358851
0.000356046
0.000352356
0.000347891
0.000342855
0.000337891
0.000334202
0.000333634
0.000335032
0.000336907
0.000338088
0.000337622
0.00033479
0.000329297
0.000321296
0.000309292
0.000292918
0.000271363
0.000238886
0.000187524
0.000124736
7.36186e-05
0.000148718
0.000212852
0.00026011
0.000291522
0.000313517
0.000329978
0.000342157
0.000350535
0.000355651
0.000358306
0.000359637
0.000359742
0.000358735
0.000356727
0.000353817
0.000350107
0.000345741
0.00034097
0.000336493
0.000333603
0.000333986
0.000336162
0.000338696
0.000340508
0.000340747
0.000338744
0.000334182
0.000326782
0.000314951
0.000298392
0.000276311
0.00024287
0.000190132
0.000125805
7.42549e-05