/*--------------------------------*- C++ -*----------------------------------*\
| =========                 |                                                 |
| \\      /  F ield         | OpenFOAM: The Open Source CFD Toolbox           |
|  \\    /   O peration     | Version:  v1912                                 |
|   \\  /    A nd           | Website:  www.openfoam.com                      |
|    \\/     M anipulation  |                                                 |
\*---------------------------------------------------------------------------*/
FoamFile
{
    version     2.0;
    format      ascii;
    class       volVectorField;
    location    "72/oil";
    object      U;
}
// * * * * * * * * * * * * * * * * * * * * * * * * * * * * * * * * * * * * * //

dimensions      [0 1 -1 0 0 0 0];


internalField   nonuniform List<vector> 
35580
(
(-7.80892e-10 1.59085e-09 -7.96436e-10)
(8.70553e-10 1.42165e-09 -1.93429e-09)
(7.58427e-09 1.38949e-09 -3.12028e-09)
(1.81509e-08 1.73812e-09 -4.31889e-09)
(3.09747e-08 2.30099e-09 -5.28283e-09)
(4.42675e-08 2.96512e-09 -5.93038e-09)
(5.63733e-08 3.66678e-09 -6.2557e-09)
(6.5857e-08 4.37598e-09 -6.29595e-09)
(7.15434e-08 5.07409e-09 -6.1076e-09)
(7.2655e-08 5.74533e-09 -5.73899e-09)
(6.87649e-08 6.35115e-09 -5.24513e-09)
(5.99026e-08 6.86383e-09 -4.752e-09)
(4.66062e-08 7.26598e-09 -4.29392e-09)
(2.97082e-08 7.57184e-09 -3.96717e-09)
(1.05083e-08 7.74059e-09 -3.79607e-09)
(-9.5341e-09 7.76142e-09 -3.7992e-09)
(-2.88003e-08 7.58646e-09 -3.96626e-09)
(-4.575e-08 7.2765e-09 -4.28307e-09)
(-5.91514e-08 6.85004e-09 -4.72118e-09)
(-6.81232e-08 6.34772e-09 -5.22114e-09)
(-7.21822e-08 5.75226e-09 -5.71007e-09)
(-7.12113e-08 5.07319e-09 -6.09533e-09)
(-6.56217e-08 4.37482e-09 -6.28304e-09)
(-5.62283e-08 3.66736e-09 -6.24884e-09)
(-4.41938e-08 2.96508e-09 -5.92488e-09)
(-3.09605e-08 2.30216e-09 -5.27754e-09)
(-1.8177e-08 1.73797e-09 -4.31079e-09)
(-7.63009e-09 1.38086e-09 -3.1054e-09)
(-9.0164e-10 1.39604e-09 -1.91804e-09)
(7.69179e-10 1.5353e-09 -7.89638e-10)
(4.3196e-10 -1.55045e-09 4.23336e-10)
(8.31156e-09 -9.24502e-09 3.74238e-10)
(2.41177e-08 -1.53448e-08 -1.75366e-10)
(4.61076e-08 -1.86479e-08 -8.92568e-10)
(7.1668e-08 -1.96901e-08 -1.42004e-09)
(9.77369e-08 -1.90426e-08 -1.59878e-09)
(1.21245e-07 -1.71725e-08 -1.39224e-09)
(1.39429e-07 -1.44283e-08 -8.28024e-10)
(1.5e-07 -1.11054e-08 2.72123e-11)
(1.51348e-07 -7.47762e-09 1.07583e-09)
(1.42587e-07 -3.83838e-09 2.30055e-09)
(1.23733e-07 -4.99801e-10 3.44966e-09)
(9.59555e-08 2.25608e-09 4.45932e-09)
(6.1078e-08 4.2703e-09 5.1846e-09)
(2.15881e-08 5.34095e-09 5.56805e-09)
(-1.96152e-08 5.36698e-09 5.58148e-09)
(-5.92533e-08 4.25951e-09 5.20505e-09)
(-9.4225e-08 2.21113e-09 4.50321e-09)
(-1.22056e-07 -6.00401e-10 3.52005e-09)
(-1.41022e-07 -3.89892e-09 2.37265e-09)
(-1.5008e-07 -7.53194e-09 1.16869e-09)
(-1.48994e-07 -1.11541e-08 9.3652e-11)
(-1.38647e-07 -1.44551e-08 -7.64956e-10)
(-1.20701e-07 -1.71835e-08 -1.3413e-09)
(-9.74006e-08 -1.90569e-08 -1.55547e-09)
(-7.15035e-08 -1.97204e-08 -1.38097e-09)
(-4.60694e-08 -1.87078e-08 -8.60522e-10)
(-2.4137e-08 -1.5442e-08 -1.48754e-10)
(-8.32733e-09 -9.3583e-09 3.86675e-10)
(-4.30577e-10 -1.67151e-09 4.09491e-10)
(1.62545e-09 -1.48596e-08 1.62496e-09)
(1.62336e-08 -3.91506e-08 2.87411e-09)
(3.96724e-08 -5.70844e-08 3.13655e-09)
(6.97864e-08 -6.84648e-08 3.09921e-09)
(1.03403e-07 -7.4508e-08 3.1624e-09)
(1.37018e-07 -7.63765e-08 3.51118e-09)
(1.66947e-07 -7.5066e-08 4.21091e-09)
(1.89769e-07 -7.13853e-08 5.25548e-09)
(2.0261e-07 -6.60338e-08 6.57969e-09)
(2.03424e-07 -5.96594e-08 8.06739e-09)
(1.91033e-07 -5.29139e-08 9.70818e-09)
(1.65398e-07 -4.64967e-08 1.12283e-08)
(1.2805e-07 -4.11113e-08 1.2514e-08)
(8.14154e-08 -3.72082e-08 1.34441e-08)
(2.87546e-08 -3.51406e-08 1.39388e-08)
(-2.61954e-08 -3.51433e-08 1.39729e-08)
(-7.90903e-08 -3.72934e-08 1.34733e-08)
(-1.25846e-07 -4.13062e-08 1.25575e-08)
(-1.63219e-07 -4.67659e-08 1.12736e-08)
(-1.89054e-07 -5.31362e-08 9.78181e-09)
(-2.0183e-07 -5.98565e-08 8.15847e-09)
(-2.01336e-07 -6.61736e-08 6.64309e-09)
(-1.88784e-07 -7.14749e-08 5.31652e-09)
(-1.66249e-07 -7.51251e-08 4.26732e-09)
(-1.36581e-07 -7.64333e-08 3.5624e-09)
(-1.03179e-07 -7.45918e-08 3.21201e-09)
(-6.97125e-08 -6.85987e-08 3.14106e-09)
(-3.96755e-08 -5.72734e-08 3.16484e-09)
(-1.62565e-08 -3.93429e-08 2.87787e-09)
(-1.6385e-09 -1.4986e-08 1.60568e-09)
(2.58501e-09 -3.66662e-08 2.5804e-09)
(2.28591e-08 -8.52451e-08 4.77788e-09)
(5.26747e-08 -1.19356e-07 5.59519e-09)
(8.91764e-08 -1.41961e-07 6.01306e-09)
(1.28707e-07 -1.55494e-07 6.50055e-09)
(1.67508e-07 -1.61843e-07 7.2397e-09)
(2.01605e-07 -1.62587e-07 8.30201e-09)
(2.27262e-07 -1.59039e-07 9.68834e-09)
(2.41282e-07 -1.52372e-07 1.13386e-08)
(2.41342e-07 -1.4368e-07 1.3133e-08)
(2.26055e-07 -1.34065e-07 1.50296e-08)
(1.9539e-07 -1.24584e-07 1.67902e-08)
(1.51122e-07 -1.16433e-07 1.82911e-08)
(9.59747e-08 -1.10438e-07 1.93512e-08)
(3.38638e-08 -1.07276e-07 1.99073e-08)
(-3.09481e-08 -1.07315e-07 1.99507e-08)
(-9.33614e-08 -1.1055e-07 1.93679e-08)
(-1.48598e-07 -1.16622e-07 1.83068e-08)
(-1.92905e-07 -1.24785e-07 1.68179e-08)
(-2.23798e-07 -1.34226e-07 1.50846e-08)
(-2.39465e-07 -1.43823e-07 1.31847e-08)
(-2.39756e-07 -1.52469e-07 1.13735e-08)
(-2.26073e-07 -1.59103e-07 9.72568e-09)
(-2.00739e-07 -1.62632e-07 8.33985e-09)
(-1.66938e-07 -1.61901e-07 7.27994e-09)
(-1.28397e-07 -1.55601e-07 6.54463e-09)
(-8.90601e-08 -1.42138e-07 6.04701e-09)
(-5.2661e-08 -1.19585e-07 5.60741e-09)
(-2.28921e-08 -8.54501e-08 4.76338e-09)
(-2.60918e-09 -3.68239e-08 2.5516e-09)
(3.26431e-09 -6.51618e-08 3.25909e-09)
(2.78558e-08 -1.44073e-07 6.09305e-09)
(6.26873e-08 -1.97645e-07 7.26093e-09)
(1.04186e-07 -2.33644e-07 7.96331e-09)
(1.4822e-07 -2.56377e-07 8.71444e-09)
(1.90844e-07 -2.68659e-07 9.72183e-09)
(2.2791e-07 -2.72718e-07 1.10465e-08)
(2.55519e-07 -2.70383e-07 1.26982e-08)
(2.70291e-07 -2.63303e-07 1.46154e-08)
(2.69735e-07 -2.53027e-07 1.66804e-08)
(2.52333e-07 -2.41107e-07 1.8796e-08)
(2.17982e-07 -2.28958e-07 2.07789e-08)
(1.68501e-07 -2.18243e-07 2.24867e-08)
(1.06936e-07 -2.10191e-07 2.36674e-08)
(3.77104e-08 -2.05959e-07 2.42862e-08)
(-3.45291e-08 -2.06019e-07 2.43388e-08)
(-1.04101e-07 -2.10276e-07 2.36889e-08)
(-1.65684e-07 -2.18287e-07 2.24986e-08)
(-2.15241e-07 -2.2898e-07 2.08282e-08)
(-2.4987e-07 -2.41104e-07 1.88538e-08)
(-2.67677e-07 -2.53026e-07 1.67276e-08)
(-2.68625e-07 -2.63303e-07 1.46548e-08)
(-2.54219e-07 -2.70397e-07 1.27402e-08)
(-2.26951e-07 -2.7275e-07 1.10878e-08)
(-1.90191e-07 -2.6873e-07 9.75916e-09)
(-1.4784e-07 -2.56501e-07 8.75002e-09)
(-1.04029e-07 -2.33843e-07 7.98106e-09)
(-6.26645e-08 -1.97873e-07 7.24886e-09)
(-2.79051e-08 -1.44215e-07 6.04625e-09)
(-3.3034e-09 -6.53414e-08 3.21506e-09)
(3.69795e-09 -9.8406e-08 3.7101e-09)
(3.12753e-08 -2.12061e-07 6.93753e-09)
(6.9738e-08 -2.87547e-07 8.3029e-09)
(1.14891e-07 -3.38503e-07 9.17127e-09)
(1.62202e-07 -3.71635e-07 1.00854e-08)
(2.07593e-07 -3.9095e-07 1.12729e-08)
(2.46813e-07 -3.9939e-07 1.27977e-08)
(2.75868e-07 -3.99314e-07 1.46774e-08)
(2.91258e-07 -3.92829e-07 1.68436e-08)
(2.90359e-07 -3.81903e-07 1.91822e-08)
(2.716e-07 -3.68517e-07 2.15435e-08)
(2.3474e-07 -3.54472e-07 2.37906e-08)
(1.81432e-07 -3.41718e-07 2.57231e-08)
(1.15108e-07 -3.31907e-07 2.70538e-08)
(4.05606e-08 -3.26731e-07 2.77408e-08)
(-3.7201e-08 -3.26783e-07 2.77909e-08)
(-1.12133e-07 -3.31978e-07 2.70668e-08)
(-1.78416e-07 -3.41627e-07 2.5734e-08)
(-2.31819e-07 -3.54404e-07 2.38641e-08)
(-2.69e-07 -3.68442e-07 2.16165e-08)
(-2.88196e-07 -3.81841e-07 1.92442e-08)
(-2.89515e-07 -3.92792e-07 1.68997e-08)
(-2.74511e-07 -3.99322e-07 1.4732e-08)
(-2.45813e-07 -3.99438e-07 1.28546e-08)
(-2.06903e-07 -3.91048e-07 1.13189e-08)
(-1.61782e-07 -3.71779e-07 1.0123e-08)
(-1.14701e-07 -3.38696e-07 9.18027e-09)
(-6.97093e-08 -2.87734e-07 8.26974e-09)
(-3.13504e-08 -2.12116e-07 6.86156e-09)
(-3.7557e-09 -9.86056e-08 3.65213e-09)
(3.94564e-09 -1.34666e-07 3.96251e-09)
(3.32959e-08 -2.86044e-07 7.40295e-09)
(7.39788e-08 -3.85113e-07 8.88636e-09)
(1.21378e-07 -4.52093e-07 9.84692e-09)
(1.70711e-07 -4.9652e-07 1.08632e-08)
(2.17819e-07 -5.23781e-07 1.21884e-08)
(2.58416e-07 -5.37621e-07 1.38817e-08)
(2.88465e-07 -5.40936e-07 1.59712e-08)
(3.04395e-07 -5.36251e-07 1.83798e-08)
(3.03475e-07 -5.25901e-07 2.09936e-08)
(2.84073e-07 -5.12213e-07 2.36272e-08)
(2.45795e-07 -4.97368e-07 2.61449e-08)
(1.90074e-07 -4.83476e-07 2.83288e-08)
(1.20591e-07 -4.72402e-07 2.98232e-08)
(4.24582e-08 -4.66481e-07 3.05638e-08)
(-3.89799e-08 -4.66503e-07 3.06156e-08)
(-1.17539e-07 -4.72514e-07 2.9823e-08)
(-1.86968e-07 -4.83342e-07 2.83525e-08)
(-2.42787e-07 -4.97315e-07 2.62466e-08)
(-2.8141e-07 -5.12167e-07 2.37261e-08)
(-3.01271e-07 -5.25868e-07 2.10785e-08)
(-3.02631e-07 -5.36256e-07 1.84559e-08)
(-2.87097e-07 -5.40995e-07 1.60402e-08)
(-2.5741e-07 -5.37724e-07 1.39501e-08)
(-2.17121e-07 -5.23923e-07 1.22394e-08)
(-1.70275e-07 -4.96684e-07 1.09041e-08)
(-1.21168e-07 -4.5226e-07 9.84594e-09)
(-7.39405e-08 -3.85197e-07 8.82818e-09)
(-3.3382e-08 -2.85961e-07 7.30812e-09)
(-4.00969e-09 -1.34918e-07 3.90136e-09)
(4.02048e-09 -1.7239e-07 4.05388e-09)
(3.39969e-08 -3.63063e-07 7.56913e-09)
(7.54652e-08 -4.86592e-07 9.10228e-09)
(1.23613e-07 -5.70215e-07 1.01129e-08)
(1.73582e-07 -6.26587e-07 1.11895e-08)
(2.21219e-07 -6.62617e-07 1.2612e-08)
(2.62281e-07 -6.82896e-07 1.44515e-08)
(2.92771e-07 -6.90867e-07 1.67316e-08)
(3.09097e-07 -6.8941e-07 1.93716e-08)
(3.08452e-07 -6.81158e-07 2.22599e-08)
(2.89125e-07 -6.68712e-07 2.51877e-08)
(2.50571e-07 -6.54502e-07 2.7964e-08)
(1.93905e-07 -6.40654e-07 3.04138e-08)
(1.22947e-07 -6.28922e-07 3.20866e-08)
(4.32459e-08 -6.22644e-07 3.2903e-08)
(-3.98012e-08 -6.22779e-07 3.29871e-08)
(-1.19953e-07 -6.2926e-07 3.21016e-08)
(-1.90836e-07 -6.40634e-07 3.04685e-08)
(-2.47563e-07 -6.54554e-07 2.80728e-08)
(-2.86471e-07 -6.68774e-07 2.52848e-08)
(-3.06252e-07 -6.81224e-07 2.23463e-08)
(-3.07339e-07 -6.89512e-07 1.945e-08)
(-2.91407e-07 -6.91027e-07 1.68015e-08)
(-2.61273e-07 -6.8311e-07 1.45226e-08)
(-2.20509e-07 -6.62852e-07 1.26661e-08)
(-1.7313e-07 -6.26815e-07 1.12194e-08)
(-1.23384e-07 -5.70378e-07 1.00879e-08)
(-7.54155e-08 -4.86564e-07 9.02555e-09)
(-3.40824e-08 -3.62838e-07 7.47405e-09)
(-4.09037e-09 -1.7276e-07 4.00026e-09)
(3.95548e-09 -2.10193e-07 3.98835e-09)
(3.34366e-08 -4.40243e-07 7.44157e-09)
(7.41725e-08 -5.88368e-07 8.96595e-09)
(1.2142e-07 -6.88809e-07 1.00124e-08)
(1.70433e-07 -7.57428e-07 1.11288e-08)
(2.17196e-07 -8.0286e-07 1.25921e-08)
(2.57595e-07 -8.30567e-07 1.4522e-08)
(2.87763e-07 -8.44479e-07 1.69392e-08)
(3.04177e-07 -8.47786e-07 1.97581e-08)
(3.03994e-07 -8.43314e-07 2.28728e-08)
(2.85421e-07 -8.33808e-07 2.60572e-08)
(2.4783e-07 -8.21749e-07 2.90575e-08)
(1.9198e-07 -8.09288e-07 3.17056e-08)
(1.21634e-07 -7.97974e-07 3.3575e-08)
(4.27979e-08 -7.92085e-07 3.45266e-08)
(-3.94271e-08 -7.92243e-07 3.46087e-08)
(-1.18709e-07 -7.98269e-07 3.3553e-08)
(-1.88978e-07 -8.09264e-07 3.17534e-08)
(-2.44853e-07 -8.21884e-07 2.91605e-08)
(-2.82829e-07 -8.33998e-07 2.61507e-08)
(-3.01839e-07 -8.43508e-07 2.29642e-08)
(-3.02468e-07 -8.48014e-07 1.98415e-08)
(-2.86442e-07 -8.4478e-07 1.70111e-08)
(-2.56607e-07 -8.3093e-07 1.45909e-08)
(-2.16491e-07 -8.03228e-07 1.26319e-08)
(-1.69985e-07 -7.57708e-07 1.1113e-08)
(-1.21178e-07 -6.88854e-07 9.94667e-09)
(-7.40977e-08 -5.881e-07 8.87822e-09)
(-3.34924e-08 -4.39841e-07 7.35101e-09)
(-4.01339e-09 -2.10637e-07 3.93409e-09)
(3.74799e-09 -2.46643e-07 3.74655e-09)
(3.15874e-08 -5.14671e-07 6.99226e-09)
(7.00292e-08 -6.86694e-07 8.43081e-09)
(1.14598e-07 -8.03677e-07 9.47743e-09)
(1.60877e-07 -8.84494e-07 1.06295e-08)
(2.05117e-07 -9.39563e-07 1.21013e-08)
(2.43485e-07 -9.75421e-07 1.40418e-08)
(2.72348e-07 -9.96386e-07 1.6505e-08)
(2.88365e-07 -1.00586e-06 1.9393e-08)
(2.88736e-07 -1.00676e-06 2.26167e-08)
(2.71597e-07 -1.00185e-06 2.5947e-08)
(2.3623e-07 -9.93474e-07 2.91025e-08)
(1.83162e-07 -9.83587e-07 3.18012e-08)
(1.15951e-07 -9.73816e-07 3.37989e-08)
(4.08238e-08 -9.69087e-07 3.49024e-08)
(-3.76864e-08 -9.69246e-07 3.49867e-08)
(-1.13215e-07 -9.7392e-07 3.37751e-08)
(-1.80218e-07 -9.83127e-07 3.18359e-08)
(-2.33284e-07 -9.93316e-07 2.9208e-08)
(-2.69091e-07 -1.00205e-06 2.60374e-08)
(-2.86631e-07 -1.00708e-06 2.27127e-08)
(-2.86716e-07 -1.00623e-06 1.94775e-08)
(-2.71091e-07 -9.96867e-07 1.65746e-08)
(-2.4253e-07 -9.75979e-07 1.4116e-08)
(-2.04417e-07 -9.40059e-07 1.21373e-08)
(-1.60408e-07 -8.84681e-07 1.06154e-08)
(-1.14304e-07 -8.03446e-07 9.47372e-09)
(-6.98719e-08 -6.86148e-07 8.4487e-09)
(-3.15756e-08 -5.14162e-07 7.00547e-09)
(-3.77834e-09 -2.47177e-07 3.74117e-09)
(3.39448e-09 -2.80234e-07 3.3443e-09)
(2.84109e-08 -5.83183e-07 6.26865e-09)
(6.29664e-08 -7.774e-07 7.55049e-09)
(1.02991e-07 -9.10137e-07 8.51399e-09)
(1.44598e-07 -1.00277e-06 9.65441e-09)
(1.84487e-07 -1.06728e-06 1.10971e-08)
(2.19278e-07 -1.11156e-06 1.29632e-08)
(2.45662e-07 -1.14029e-06 1.53342e-08)
(2.60614e-07 -1.15692e-06 1.81108e-08)
(2.61468e-07 -1.16435e-06 2.12636e-08)
(2.4629e-07 -1.1652e-06 2.45665e-08)
(2.14434e-07 -1.16143e-06 2.77171e-08)
(1.6645e-07 -1.15524e-06 3.03251e-08)
(1.05516e-07 -1.14859e-06 3.2338e-08)
(3.72085e-08 -1.14551e-06 3.34868e-08)
(-3.4338e-08 -1.14572e-06 3.35932e-08)
(-1.02985e-07 -1.14865e-06 3.23608e-08)
(-1.63648e-07 -1.15474e-06 3.0298e-08)
(-2.11774e-07 -1.16146e-06 2.77498e-08)
(-2.44055e-07 -1.16557e-06 2.45996e-08)
(-2.59484e-07 -1.16484e-06 2.13527e-08)
(-2.59065e-07 -1.15742e-06 1.82004e-08)
(-2.44511e-07 -1.14093e-06 1.53981e-08)
(-2.18413e-07 -1.11233e-06 1.30462e-08)
(-1.83879e-07 -1.06782e-06 1.11351e-08)
(-1.44185e-07 -1.00256e-06 9.6382e-09)
(-1.02673e-07 -9.0933e-07 8.4898e-09)
(-6.27174e-08 -7.76418e-07 7.49095e-09)
(-2.83163e-08 -5.82443e-07 6.19516e-09)
(-3.36915e-09 -2.80729e-07 3.32669e-09)
(2.87683e-09 -3.09483e-07 2.78508e-09)
(2.38636e-08 -6.42536e-07 5.23815e-09)
(5.28579e-08 -8.55831e-07 6.33844e-09)
(8.65889e-08 -1.00268e-06 7.20556e-09)
(1.21669e-07 -1.1064e-06 8.25488e-09)
(1.55319e-07 -1.17999e-06 9.61327e-09)
(1.84853e-07 -1.23243e-06 1.13206e-08)
(2.07453e-07 -1.26904e-06 1.34321e-08)
(2.20546e-07 -1.29317e-06 1.5865e-08)
(2.21678e-07 -1.30739e-06 1.86672e-08)
(2.09017e-07 -1.31394e-06 2.15948e-08)
(1.82033e-07 -1.3152e-06 2.43918e-08)
(1.41377e-07 -1.31385e-06 2.68313e-08)
(8.98946e-08 -1.31151e-06 2.87883e-08)
(3.17708e-08 -1.31048e-06 2.98862e-08)
(-2.92419e-08 -1.31061e-06 2.99985e-08)
(-8.77032e-08 -1.31147e-06 2.89356e-08)
(-1.39009e-07 -1.31396e-06 2.70229e-08)
(-1.79847e-07 -1.31681e-06 2.474e-08)
(-2.07045e-07 -1.31536e-06 2.18223e-08)
(-2.19831e-07 -1.30822e-06 1.88278e-08)
(-2.19126e-07 -1.29372e-06 1.59223e-08)
(-2.06458e-07 -1.26974e-06 1.33261e-08)
(-1.84089e-07 -1.23328e-06 1.11503e-08)
(-1.54737e-07 -1.18033e-06 9.40272e-09)
(-1.21162e-07 -1.10578e-06 8.07193e-09)
(-8.61792e-08 -1.00158e-06 7.09278e-09)
(-5.26321e-08 -8.54826e-07 6.2809e-09)
(-2.37983e-08 -6.41674e-07 5.22029e-09)
(-2.84406e-09 -3.09871e-07 2.8243e-09)
(2.25301e-09 -3.32823e-07 2.03376e-09)
(1.8262e-08 -6.89698e-07 3.8005e-09)
(4.01466e-08 -9.18053e-07 4.64568e-09)
(6.57798e-08 -1.07624e-06 5.31753e-09)
(9.25291e-08 -1.18935e-06 6.08667e-09)
(1.18245e-07 -1.27119e-06 7.14289e-09)
(1.4085e-07 -1.33106e-06 8.55103e-09)
(1.58238e-07 -1.37478e-06 1.03657e-08)
(1.68648e-07 -1.40573e-06 1.24533e-08)
(1.69917e-07 -1.42595e-06 1.47444e-08)
(1.60236e-07 -1.43799e-06 1.69834e-08)
(1.39431e-07 -1.44517e-06 1.92272e-08)
(1.08546e-07 -1.44942e-06 2.13965e-08)
(6.93748e-08 -1.45087e-06 2.30266e-08)
(2.47259e-08 -1.45143e-06 2.38674e-08)
(-2.21522e-08 -1.45108e-06 2.3804e-08)
(-6.72337e-08 -1.4499e-06 2.28997e-08)
(-1.06634e-07 -1.44886e-06 2.1281e-08)
(-1.37906e-07 -1.44705e-06 1.933e-08)
(-1.58544e-07 -1.43966e-06 1.70069e-08)
(-1.68115e-07 -1.42677e-06 1.46553e-08)
(-1.6735e-07 -1.4061e-06 1.23774e-08)
(-1.57428e-07 -1.37533e-06 1.03236e-08)
(-1.40162e-07 -1.33169e-06 8.58022e-09)
(-1.17729e-07 -1.27134e-06 7.1862e-09)
(-9.21785e-08 -1.18899e-06 6.14259e-09)
(-6.55885e-08 -1.07603e-06 5.39354e-09)
(-4.00543e-08 -9.18331e-07 4.78004e-09)
(-1.80928e-08 -6.89757e-07 3.96988e-09)
(-2.16905e-09 -3.33553e-07 2.13244e-09)
(1.43111e-09 -3.49511e-07 1.32459e-09)
(1.15734e-08 -7.2308e-07 2.45072e-09)
(2.54153e-08 -9.62124e-07 2.92681e-09)
(4.16755e-08 -1.12771e-06 3.27681e-09)
(5.85069e-08 -1.24709e-06 3.72957e-09)
(7.46694e-08 -1.33499e-06 4.42338e-09)
(8.89038e-08 -1.40057e-06 5.37155e-09)
(9.98194e-08 -1.44981e-06 6.60645e-09)
(1.06538e-07 -1.48612e-06 8.06204e-09)
(1.07644e-07 -1.51118e-06 9.60637e-09)
(1.01653e-07 -1.52848e-06 1.11367e-08)
(8.86401e-08 -1.54108e-06 1.274e-08)
(6.92538e-08 -1.54985e-06 1.42289e-08)
(4.44453e-08 -1.55424e-06 1.5339e-08)
(1.61077e-08 -1.55592e-06 1.58491e-08)
(-1.35902e-08 -1.55451e-06 1.5595e-08)
(-4.23376e-08 -1.55124e-06 1.48894e-08)
(-6.72726e-08 -1.54706e-06 1.3684e-08)
(-8.70109e-08 -1.54056e-06 1.21691e-08)
(-1.00268e-07 -1.52793e-06 1.05207e-08)
(-1.06483e-07 -1.51002e-06 8.96907e-09)
(-1.0597e-07 -1.4844e-06 7.61318e-09)
(-9.95972e-08 -1.44894e-06 6.42492e-09)
(-8.85824e-08 -1.40098e-06 5.43783e-09)
(-7.42797e-08 -1.33603e-06 4.63416e-09)
(-5.80459e-08 -1.24821e-06 3.98568e-09)
(-4.12438e-08 -1.12877e-06 3.50804e-09)
(-2.51602e-08 -9.63062e-07 3.10228e-09)
(-1.13609e-08 -7.23492e-07 2.55971e-09)
(-1.37392e-09 -3.50124e-07 1.3445e-09)
(5.32896e-10 -3.58275e-07 4.24995e-10)
(4.10183e-09 -7.40327e-07 8.43581e-10)
(8.96622e-09 -9.85345e-07 1.05771e-09)
(1.4816e-08 -1.15518e-06 1.19976e-09)
(2.08389e-08 -1.27804e-06 1.38717e-09)
(2.66611e-08 -1.36888e-06 1.68028e-09)
(3.19407e-08 -1.43674e-06 2.02925e-09)
(3.60467e-08 -1.48779e-06 2.38442e-09)
(3.85298e-08 -1.52654e-06 2.84236e-09)
(3.89332e-08 -1.55527e-06 3.46707e-09)
(3.67873e-08 -1.57667e-06 4.11878e-09)
(3.22327e-08 -1.59251e-06 4.72336e-09)
(2.52483e-08 -1.60326e-06 5.1925e-09)
(1.63399e-08 -1.60945e-06 5.68349e-09)
(6.30964e-09 -1.61248e-06 5.92071e-09)
(-4.3062e-09 -1.61106e-06 5.73814e-09)
(-1.49546e-08 -1.60697e-06 5.50334e-09)
(-2.38477e-08 -1.60123e-06 5.05859e-09)
(-3.0763e-08 -1.59235e-06 4.42621e-09)
(-3.54837e-08 -1.57665e-06 3.80369e-09)
(-3.77019e-08 -1.55498e-06 3.23087e-09)
(-3.76159e-08 -1.52566e-06 2.72746e-09)
(-3.5466e-08 -1.4873e-06 2.26128e-09)
(-3.16338e-08 -1.43714e-06 1.88694e-09)
(-2.65485e-08 -1.36998e-06 1.61276e-09)
(-2.07001e-08 -1.2794e-06 1.38709e-09)
(-1.46628e-08 -1.15654e-06 1.21539e-09)
(-8.91234e-09 -9.86595e-07 1.07237e-09)
(-3.99797e-09 -7.41194e-07 9.08396e-10)
(-4.60853e-10 -3.58815e-07 4.85376e-10)
(-3.70733e-10 -3.58711e-07 -4.36466e-10)
(-3.43219e-09 -7.41122e-07 -7.92661e-10)
(-7.70661e-09 -9.86555e-07 -9.30771e-10)
(-1.25622e-08 -1.15659e-06 -1.04719e-09)
(-1.76426e-08 -1.27962e-06 -1.19594e-09)
(-2.25292e-08 -1.3707e-06 -1.40672e-09)
(-2.68366e-08 -1.43886e-06 -1.68081e-09)
(-3.02266e-08 -1.49016e-06 -2.02082e-09)
(-3.21932e-08 -1.52895e-06 -2.44904e-09)
(-3.22683e-08 -1.55749e-06 -2.9237e-09)
(-3.02154e-08 -1.57884e-06 -3.51894e-09)
(-2.62007e-08 -1.59469e-06 -4.17873e-09)
(-2.05774e-08 -1.60529e-06 -4.72748e-09)
(-1.33429e-08 -1.61169e-06 -4.93865e-09)
(-4.60423e-09 -1.61468e-06 -4.95389e-09)
(4.76967e-09 -1.61309e-06 -4.88356e-09)
(1.33488e-08 -1.60954e-06 -4.55406e-09)
(2.12924e-08 -1.60394e-06 -4.1542e-09)
(2.73581e-08 -1.59461e-06 -3.80906e-09)
(3.10534e-08 -1.57876e-06 -3.25929e-09)
(3.29791e-08 -1.55707e-06 -2.67942e-09)
(3.29334e-08 -1.52761e-06 -2.13633e-09)
(3.10694e-08 -1.48909e-06 -1.79816e-09)
(2.76638e-08 -1.43865e-06 -1.58774e-09)
(2.31237e-08 -1.37119e-06 -1.37122e-09)
(1.80781e-08 -1.28038e-06 -1.20035e-09)
(1.28536e-08 -1.15732e-06 -1.05658e-09)
(7.85342e-09 -9.8725e-07 -9.16893e-10)
(3.57981e-09 -7.41702e-07 -7.09695e-10)
(4.62792e-10 -3.59089e-07 -3.57868e-10)
(-1.30546e-09 -3.50668e-07 -1.29025e-09)
(-1.08647e-08 -7.24706e-07 -2.44579e-09)
(-2.40636e-08 -9.64821e-07 -2.97194e-09)
(-3.93941e-08 -1.13097e-06 -3.36661e-09)
(-5.54208e-08 -1.25092e-06 -3.82739e-09)
(-7.08824e-08 -1.33953e-06 -4.44612e-09)
(-8.44327e-08 -1.40565e-06 -5.26264e-09)
(-9.48e-08 -1.455e-06 -6.32783e-09)
(-1.00856e-07 -1.49154e-06 -7.65232e-09)
(-1.01527e-07 -1.51696e-06 -9.04121e-09)
(-9.56758e-08 -1.53473e-06 -1.05781e-08)
(-8.3257e-08 -1.54766e-06 -1.22046e-08)
(-6.50851e-08 -1.55658e-06 -1.36085e-08)
(-4.17609e-08 -1.56193e-06 -1.45046e-08)
(-1.44981e-08 -1.5641e-06 -1.48516e-08)
(1.41778e-08 -1.56206e-06 -1.46514e-08)
(4.1245e-08 -1.55941e-06 -1.39935e-08)
(6.53949e-08 -1.55557e-06 -1.29294e-08)
(8.39925e-08 -1.54772e-06 -1.17325e-08)
(9.6054e-08 -1.5344e-06 -1.01833e-08)
(1.02135e-07 -1.51612e-06 -8.71046e-09)
(1.01584e-07 -1.49012e-06 -7.28625e-09)
(9.5243e-08 -1.45389e-06 -6.05988e-09)
(8.47209e-08 -1.40504e-06 -5.03801e-09)
(7.11294e-08 -1.33963e-06 -4.20368e-09)
(5.57822e-08 -1.25151e-06 -3.5818e-09)
(3.97464e-08 -1.13171e-06 -3.11051e-09)
(2.43254e-08 -9.6569e-07 -2.74401e-09)
(1.10967e-08 -7.25555e-07 -2.25961e-09)
(1.40122e-09 -3.50981e-07 -1.22333e-09)
(-2.14032e-09 -3.34638e-07 -2.06016e-09)
(-1.76851e-08 -6.92115e-07 -3.84988e-09)
(-3.90845e-08 -9.21624e-07 -4.66414e-09)
(-6.3993e-08 -1.08002e-06 -5.26654e-09)
(-8.99469e-08 -1.19366e-06 -5.98997e-09)
(-1.14923e-07 -1.27674e-06 -6.9841e-09)
(-1.36869e-07 -1.33791e-06 -8.30896e-09)
(-1.53751e-07 -1.38247e-06 -1.00254e-08)
(-1.63591e-07 -1.41429e-06 -1.2115e-08)
(-1.64592e-07 -1.43525e-06 -1.43206e-08)
(-1.55161e-07 -1.44787e-06 -1.65896e-08)
(-1.34895e-07 -1.45541e-06 -1.87755e-08)
(-1.05053e-07 -1.46021e-06 -2.07935e-08)
(-6.72107e-08 -1.46286e-06 -2.23126e-08)
(-2.3458e-08 -1.46401e-06 -2.30855e-08)
(2.25348e-08 -1.46242e-06 -2.2903e-08)
(6.63899e-08 -1.46139e-06 -2.20298e-08)
(1.05316e-07 -1.46062e-06 -2.0532e-08)
(1.35471e-07 -1.45616e-06 -1.86888e-08)
(1.55379e-07 -1.44771e-06 -1.64374e-08)
(1.65118e-07 -1.43472e-06 -1.42095e-08)
(1.64409e-07 -1.41425e-06 -1.20209e-08)
(1.54437e-07 -1.38318e-06 -1.00704e-08)
(1.37459e-07 -1.33898e-06 -8.3536e-09)
(1.15364e-07 -1.27825e-06 -6.97624e-09)
(9.02293e-08 -1.19534e-06 -5.93607e-09)
(6.41227e-08 -1.08143e-06 -5.09582e-09)
(3.92409e-08 -9.22893e-07 -4.44748e-09)
(1.79108e-08 -6.93267e-07 -3.64237e-09)
(2.2436e-09 -3.34753e-07 -1.96374e-09)
(-2.85479e-09 -3.11462e-07 -2.72417e-09)
(-2.3539e-08 -6.45107e-07 -5.08444e-09)
(-5.19304e-08 -8.59375e-07 -6.17911e-09)
(-8.50298e-08 -1.00693e-06 -7.00807e-09)
(-1.19538e-07 -1.11192e-06 -7.97576e-09)
(-1.52718e-07 -1.1873e-06 -9.28706e-09)
(-1.81784e-07 -1.2411e-06 -1.10096e-08)
(-2.03969e-07 -1.27852e-06 -1.31413e-08)
(-2.1669e-07 -1.30356e-06 -1.56679e-08)
(-2.17698e-07 -1.31882e-06 -1.84218e-08)
(-2.05195e-07 -1.32627e-06 -2.13339e-08)
(-1.78497e-07 -1.32817e-06 -2.4061e-08)
(-1.38631e-07 -1.32757e-06 -2.64419e-08)
(-8.82062e-08 -1.32663e-06 -2.83581e-08)
(-3.05382e-08 -1.32648e-06 -2.95091e-08)
(2.97652e-08 -1.32552e-06 -2.94207e-08)
(8.74109e-08 -1.32636e-06 -2.83472e-08)
(1.38726e-07 -1.32902e-06 -2.6429e-08)
(1.78797e-07 -1.32918e-06 -2.40521e-08)
(2.05263e-07 -1.32646e-06 -2.13817e-08)
(2.17874e-07 -1.31892e-06 -1.84894e-08)
(2.17218e-07 -1.30421e-06 -1.56467e-08)
(2.04556e-07 -1.27951e-06 -1.32152e-08)
(1.82343e-07 -1.2421e-06 -1.11512e-08)
(1.53204e-07 -1.18854e-06 -9.49022e-09)
(1.19965e-07 -1.11376e-06 -8.19203e-09)
(8.5362e-08 -1.00943e-06 -7.12474e-09)
(5.21149e-08 -8.62278e-07 -6.24588e-09)
(2.35862e-08 -6.47501e-07 -5.1328e-09)
(2.8543e-09 -3.11693e-07 -2.73056e-09)
(-3.36869e-09 -2.82498e-07 -3.31053e-09)
(-2.81262e-08 -5.8653e-07 -6.18505e-09)
(-6.22153e-08 -7.81652e-07 -7.47853e-09)
(-1.01931e-07 -9.15474e-07 -8.45084e-09)
(-1.43224e-07 -1.00964e-06 -9.56401e-09)
(-1.82802e-07 -1.07583e-06 -1.10437e-08)
(-2.17284e-07 -1.12132e-06 -1.29403e-08)
(-2.43401e-07 -1.15097e-06 -1.52818e-08)
(-2.58115e-07 -1.16859e-06 -1.80788e-08)
(-2.58867e-07 -1.17704e-06 -2.11914e-08)
(-2.43759e-07 -1.17877e-06 -2.44849e-08)
(-2.12066e-07 -1.17581e-06 -2.75973e-08)
(-1.6461e-07 -1.17038e-06 -3.02e-08)
(-1.04373e-07 -1.16517e-06 -3.22189e-08)
(-3.5942e-08 -1.16276e-06 -3.35327e-08)
(3.52185e-08 -1.16206e-06 -3.35172e-08)
(1.0343e-07 -1.16499e-06 -3.24182e-08)
(1.64171e-07 -1.17145e-06 -3.03845e-08)
(2.11864e-07 -1.1766e-06 -2.76311e-08)
(2.43688e-07 -1.1794e-06 -2.45348e-08)
(2.58984e-07 -1.17765e-06 -2.12344e-08)
(2.58494e-07 -1.16937e-06 -1.80619e-08)
(2.43842e-07 -1.15192e-06 -1.52791e-08)
(2.17748e-07 -1.12234e-06 -1.29107e-08)
(1.83239e-07 -1.07701e-06 -1.10229e-08)
(1.43631e-07 -1.01133e-06 -9.60698e-09)
(1.02344e-07 -9.18043e-07 -8.49687e-09)
(6.25736e-08 -7.84822e-07 -7.49921e-09)
(2.83385e-08 -5.89054e-07 -6.19328e-09)
(3.41319e-09 -2.82662e-07 -3.30432e-09)
(-3.75385e-09 -2.48964e-07 -3.75132e-09)
(-3.14767e-08 -5.18529e-07 -7.00453e-09)
(-6.97082e-08 -6.91667e-07 -8.44095e-09)
(-1.14112e-07 -8.09969e-07 -9.46307e-09)
(-1.60213e-07 -8.92235e-07 -1.0593e-08)
(-2.0431e-07 -9.48605e-07 -1.21045e-08)
(-2.42554e-07 -9.85507e-07 -1.40848e-08)
(-2.71301e-07 -1.00741e-06 -1.65454e-08)
(-2.87189e-07 -1.01781e-06 -1.94543e-08)
(-2.8746e-07 -1.01965e-06 -2.26752e-08)
(-2.70251e-07 -1.01562e-06 -2.60308e-08)
(-2.34897e-07 -1.00822e-06 -2.92272e-08)
(-1.82255e-07 -9.994e-07 -3.19679e-08)
(-1.15444e-07 -9.90978e-07 -3.39631e-08)
(-3.97469e-08 -9.86241e-07 -3.51423e-08)
(3.87544e-08 -9.85624e-07 -3.50369e-08)
(1.14308e-07 -9.90287e-07 -3.39802e-08)
(1.81486e-07 -9.9941e-07 -3.19925e-08)
(2.34436e-07 -1.00842e-06 -2.91878e-08)
(2.70013e-07 -1.01604e-06 -2.60381e-08)
(2.87438e-07 -1.02017e-06 -2.26957e-08)
(2.87385e-07 -1.01851e-06 -1.94621e-08)
(2.71615e-07 -1.00824e-06 -1.65559e-08)
(2.42954e-07 -9.86434e-07 -1.40776e-08)
(2.04758e-07 -9.49632e-07 -1.21001e-08)
(1.60659e-07 -8.93437e-07 -1.06202e-08)
(1.14482e-07 -8.11616e-07 -9.51647e-09)
(6.99264e-08 -6.93812e-07 -8.49389e-09)
(3.15667e-08 -5.20434e-07 -7.03717e-09)
(3.73889e-09 -2.49126e-07 -3.75731e-09)
(-3.98314e-09 -2.12504e-07 -3.9856e-09)
(-3.34917e-08 -4.44154e-07 -7.40245e-09)
(-7.42651e-08 -5.93637e-07 -8.8979e-09)
(-1.21512e-07 -6.9542e-07 -9.96285e-09)
(-1.70511e-07 -7.65255e-07 -1.11295e-08)
(-2.17284e-07 -8.11705e-07 -1.26527e-08)
(-2.57699e-07 -8.40316e-07 -1.46244e-08)
(-2.87862e-07 -8.55089e-07 -1.7059e-08)
(-3.04225e-07 -8.59239e-07 -1.99127e-08)
(-3.03943e-07 -8.55601e-07 -2.30498e-08)
(-2.85195e-07 -8.46871e-07 -2.62738e-08)
(-2.47465e-07 -8.35656e-07 -2.93342e-08)
(-1.9183e-07 -8.24054e-07 -3.20098e-08)
(-1.21504e-07 -8.13844e-07 -3.39035e-08)
(-4.18422e-08 -8.07857e-07 -3.49468e-08)
(4.07003e-08 -8.07547e-07 -3.4873e-08)
(1.20295e-07 -8.13465e-07 -3.39459e-08)
(1.90896e-07 -8.24149e-07 -3.2043e-08)
(2.46862e-07 -8.35922e-07 -2.93463e-08)
(2.84841e-07 -8.47268e-07 -2.63158e-08)
(3.03815e-07 -8.56084e-07 -2.30918e-08)
(3.04296e-07 -8.5985e-07 -1.9945e-08)
(2.88067e-07 -8.55816e-07 -1.70888e-08)
(2.57993e-07 -8.41154e-07 -1.46455e-08)
(2.17625e-07 -8.12642e-07 -1.2675e-08)
(1.70856e-07 -7.66299e-07 -1.11713e-08)
(1.21772e-07 -6.96643e-07 -1.00667e-08)
(7.43699e-08 -5.95139e-07 -9.06896e-09)
(3.35094e-08 -4.45669e-07 -7.55734e-09)
(3.94163e-09 -2.12606e-07 -4.03104e-09)
(-4.05753e-09 -1.74575e-07 -4.07505e-09)
(-3.4171e-08 -3.66763e-07 -7.56727e-09)
(-7.58199e-08 -4.91747e-07 -9.07682e-09)
(-1.24129e-07 -5.76552e-07 -1.01309e-08)
(-1.74256e-07 -6.33869e-07 -1.12679e-08)
(-2.22065e-07 -6.70725e-07 -1.27312e-08)
(-2.63269e-07 -6.91768e-07 -1.46056e-08)
(-2.93845e-07 -7.00468e-07 -1.6909e-08)
(-3.10184e-07 -6.99723e-07 -1.95922e-08)
(-3.09441e-07 -6.9217e-07 -2.2517e-08)
(-2.8985e-07 -6.80365e-07 -2.54969e-08)
(-2.51011e-07 -6.66762e-07 -2.83484e-08)
(-1.94317e-07 -6.5344e-07 -3.0819e-08)
(-1.2317e-07 -6.42589e-07 -3.25558e-08)
(-4.25171e-08 -6.36362e-07 -3.34709e-08)
(4.12063e-08 -6.36203e-07 -3.34394e-08)
(1.21799e-07 -6.4237e-07 -3.25987e-08)
(1.93306e-07 -6.5359e-07 -3.08173e-08)
(2.50397e-07 -6.6697e-07 -2.83411e-08)
(2.89451e-07 -6.80636e-07 -2.5538e-08)
(3.09226e-07 -6.92524e-07 -2.25653e-08)
(3.10156e-07 -7.00195e-07 -1.96334e-08)
(2.93959e-07 -7.01049e-07 -1.69466e-08)
(2.63471e-07 -6.92444e-07 -1.4635e-08)
(2.22308e-07 -6.7148e-07 -1.27587e-08)
(1.7451e-07 -6.34693e-07 -1.13024e-08)
(1.24334e-07 -5.7744e-07 -1.01998e-08)
(7.59337e-08 -4.92747e-07 -9.20506e-09)
(3.42051e-08 -3.67861e-07 -7.68809e-09)
(4.03946e-09 -1.74621e-07 -4.10559e-09)
(-4.00022e-09 -1.36505e-07 -3.97636e-09)
(-3.35737e-08 -2.89323e-07 -7.40299e-09)
(-7.45235e-08 -3.8972e-07 -8.89909e-09)
(-1.22222e-07 -4.57667e-07 -9.91594e-09)
(-1.71855e-07 -5.02847e-07 -1.09848e-08)
(-2.19258e-07 -5.30766e-07 -1.23412e-08)
(-2.60096e-07 -5.45209e-07 -1.40736e-08)
(-2.9031e-07 -5.49092e-07 -1.61937e-08)
(-3.06309e-07 -5.44951e-07 -1.86507e-08)
(-3.05293e-07 -5.35129e-07 -2.13127e-08)
(-2.85558e-07 -5.21928e-07 -2.40236e-08)
(-2.4687e-07 -5.07501e-07 -2.66238e-08)
(-1.90944e-07 -4.93988e-07 -2.88328e-08)
(-1.21108e-07 -4.8356e-07 -3.03851e-08)
(-4.18728e-08 -4.7776e-07 -3.12005e-08)
(4.05424e-08 -4.77539e-07 -3.11786e-08)
(1.19646e-07 -4.83234e-07 -3.03858e-08)
(1.89876e-07 -4.94005e-07 -2.8795e-08)
(2.46203e-07 -5.0758e-07 -2.65823e-08)
(2.85086e-07 -5.22074e-07 -2.40403e-08)
(3.04987e-07 -5.35374e-07 -2.13558e-08)
(3.06192e-07 -5.45301e-07 -1.86901e-08)
(2.90348e-07 -5.49534e-07 -1.62297e-08)
(2.60228e-07 -5.45721e-07 -1.41015e-08)
(2.19436e-07 -5.31338e-07 -1.23663e-08)
(1.72055e-07 -5.03468e-07 -1.10097e-08)
(1.22405e-07 -4.58321e-07 -9.94999e-09)
(7.46571e-08 -3.90404e-07 -8.96229e-09)
(3.35981e-08 -2.90056e-07 -7.49051e-09)
(3.97678e-09 -1.3661e-07 -4.00657e-09)
(-3.76993e-09 -9.98689e-08 -3.70689e-09)
(-3.16291e-08 -2.14803e-07 -6.93484e-09)
(-7.0429e-08 -2.91395e-07 -8.34115e-09)
(-1.15968e-07 -3.43087e-07 -9.25907e-09)
(-1.63652e-07 -3.76768e-07 -1.02168e-08)
(-2.09411e-07 -3.96559e-07 -1.1431e-08)
(-2.48945e-07 -4.05434e-07 -1.29943e-08)
(-2.78213e-07 -4.05764e-07 -1.49015e-08)
(-2.93708e-07 -3.99652e-07 -1.71098e-08)
(-2.92722e-07 -3.89089e-07 -1.94929e-08)
(-2.73605e-07 -3.76e-07 -2.19431e-08)
(-2.36288e-07 -3.62241e-07 -2.42654e-08)
(-1.82691e-07 -3.49794e-07 -2.62298e-08)
(-1.15856e-07 -3.40358e-07 -2.76211e-08)
(-4.00941e-08 -3.35244e-07 -2.83771e-08)
(3.87787e-08 -3.35028e-07 -2.83532e-08)