/*--------------------------------*- C++ -*----------------------------------*\
| =========                 |                                                 |
| \\      /  F ield         | OpenFOAM: The Open Source CFD Toolbox           |
|  \\    /   O peration     | Version:  v1906                                 |
|   \\  /    A nd           | Web:      www.OpenFOAM.com                      |
|    \\/     M anipulation  |                                                 |
\*---------------------------------------------------------------------------*/
FoamFile
{
    version     2.0;
    format      ascii;
    class       volScalarField;
    location    "82";
    object      omega;
}
// * * * * * * * * * * * * * * * * * * * * * * * * * * * * * * * * * * * * * //

dimensions      [0 0 -1 0 0 0 0];


internalField   nonuniform List<scalar> 
78750
(
1324.08
205.772
151.302
99.0289
21.6904
24.4022
27.4188
24.8459
23.7725
22.4884
21.2372
20.2898
19.6565
19.2136
18.8928
18.6528
18.4634
18.3042
18.1643
18.0383
17.9214
17.8099
17.6998
17.5868
17.4662
17.3333
17.1833
17.0115
16.8136
16.5857
16.3248
16.0197
15.6903
15.3153
498.036
503.36
21.8174
16.386
12.9288
14.0345
16.7049
17.034
16.995
16.3546
15.4692
14.5255
13.6713
13.0139
12.5254
12.1435
11.8283
11.5629
11.3388
11.1485
10.985
10.8422
10.714
10.5942
10.4766
10.355
10.2234
10.0759
9.90622
9.7081
9.476
9.21003
8.91731
8.56316
7.91994
737.224
418.102
19.2433
20.105
19.9181
18.0849
16.3246
15.4239
14.8709
14.434
13.8956
13.2784
12.6584
12.1344
11.7869
11.5414
11.3262
11.121
10.929
10.7528
10.5958
10.461
10.3489
10.2584
10.1854
10.1234
10.0634
9.99543
9.9099
9.80051
9.66527
9.4985
9.2793
8.93069
8.76859
741.62
412.282
12.0184
12.5436
13.8023
15.2637
16.27
16.7924
16.8291
16.4428
15.7603
14.9132
14.0861
13.4052
12.86
12.3935
11.9909
11.6681
11.4118
11.1928
10.992
10.8057
10.6382
10.4918
10.3677
10.2643
10.1774
10.0996
10.0219
9.93594
9.83095
9.69127
9.48705
9.12044
9.06592
744.314
414.819
17.3788
18.0941
18.1197
17.8342
17.4014
16.9737
16.6347
16.3471
15.9942
15.4737
14.7626
13.953
13.1803
12.5467
12.0678
11.7285
11.4945
11.3024
11.1183
10.9396
10.7692
10.6109
10.469
10.346
10.2422
10.1547
10.0773
9.99803
9.90149
9.76776
9.55527
9.23892
10.1922
747.594
409.238
13.6004
15.1656
16.0299
16.6223
17.0833
17.4247
17.6258
17.6811
17.602
17.3825
16.9849
16.3668
15.5333
14.5816
13.6867
12.9865
12.493
12.1274
11.8223
11.5548
11.3163
11.1006
10.9052
10.7296
10.5737
10.4354
10.3094
10.185
10.0461
9.8682
9.58443
9.07232
10.2975
750.142
415.297
16.8372
17.6817
17.8896
17.8871
17.7402
17.4589
17.086
16.7086
16.4062
16.2036
16.0608
15.8915
15.5717
14.979
14.1423
13.2762
12.5587
12.0793
11.7876
11.5626
11.3491
11.1456
10.955
10.7815
10.6281
10.4931
10.372
10.2568
10.1362
9.98946
9.77732
9.73225
11.802
752.806
416.468
16.1733
17.0782
17.4516
17.6314
17.7136
17.7179
17.6468
17.4924
17.2466
16.9343
16.6138
16.3239
16.0412
15.6722
15.0834
14.2923
13.5151
12.8916
12.4272
12.113
11.8765
11.6602
11.4472
11.2392
11.0397
10.8522
10.6747
10.4976
10.3105
10.0909
9.73613
9.02756
11.1233
754.504
422.779
17.9315
18.2209
18.2041
18.0639
17.7913
17.3803
16.9153
16.5177
16.2175
15.9666
15.7208
15.4692
15.2065
14.895
14.4457
13.8038
13.1332
12.6334
12.3464
12.1416
11.9496
11.756
11.5597
11.3633
11.1715
10.9896
10.8157
10.6442
10.469
10.2786
10.122
10.7567
13.6633
757.817
425.314
17.5548
17.738
17.7125
17.5535
17.2383
16.7996
16.3844
16.1212
15.9959
15.9197
15.8214
15.667
15.4428
15.1215
14.6494
14.0061
13.3369
12.8308
12.5263
12.3375
12.1767
12.009
11.8316
11.6462
11.4559
11.2646
11.0675
10.8551
10.6197
10.3417
10.0014
10.3324
13.8369
757.646
428.634
18.1065
18.0902
17.9377
17.6
16.9986
16.1577
15.282
14.6148
14.253
14.1273
14.1101
14.094
14.015
13.8426
13.5793
13.2837
13.0354
12.85
12.6989
12.5595
12.4198
12.2745
12.1221
11.9633
11.8002
11.6343
11.4671
11.2971
11.1139
10.8676
10.3062
9.1393
13.1215
760.422
425.614
17.2758
17.5118
17.5306
17.3652
16.9555
16.2692
15.3945
14.5491
13.9567
13.7018
13.666
13.6387
13.5046
13.2908
13.0869
12.947
12.8496
12.7653
12.6782
12.5812
12.471
12.3462
12.2059
12.0497
11.877
11.6868
11.4826
11.2696
11.0569
10.9396
11.4331
13.0101
15.7356
761.252
423.253
17.3034
17.7104
17.8663
17.8436
17.5606
16.9096
15.8512
14.5001
13.1351
12.1353
11.7734
11.8996
12.1446
12.3284
12.4306
12.4782
12.4938
12.4888
12.4677
12.4319
12.3823
12.3186
12.2403
12.1455
12.0298
11.8843
11.7007
11.4676
11.1881
10.9561
11.4158
14.6083
18.268
760.606
420.221
16.7328
17.452
17.8898
18.2306
18.4685
18.5365
18.3159
17.6965
16.667
15.3139
13.8231
12.4892
11.5863
11.1782
11.1393
11.2843
11.4625
11.606
11.7065
11.7745
11.8186
11.8437
11.853
11.8486
11.8297
11.7981
11.7576
11.6915
11.4915
10.9515
9.51978
6.1745
13.0162
760.216
418.523
16.4255
17.1975
17.6561
18.0117
18.298
18.5163
18.656
18.6768
18.4991
18.0403
17.2536
16.1395
14.7667
13.2986
11.9446
10.9147
10.3742
10.2903
10.4339
10.6202
10.7789
10.8935
10.9681
11.0107
11.0268
11.0238
11.0162
11.0273
11.176
11.9145
12.6595
11.079
14.5967
765.424
418.815
16.5444
17.4324
17.9576
18.3699
18.7318
19.048
19.2916
19.4295
19.4416
19.3128
19.0211
18.5429
17.8523
16.929
15.7743
14.4145
12.9265
11.4558
10.2469
9.59255
9.46027
9.58215
9.7528
9.8729
9.92462
9.93404
9.98126
10.3901
11.8874
14.8172
18.0579
20.0681
21.3861
766.994
419.362
17.0652
17.8388
18.2198
18.4973
18.7569
19.0276
19.2906
19.4981
19.6073
19.6005
19.4684
19.1882
18.7285
18.0909
17.3221
16.4766
15.5572
14.5143
13.3117
11.9876
10.7813
9.97185
9.60255
9.51152
9.54605
9.63568
9.78731
9.9152
9.72254
8.78214
9.36768
13.3108
18.444
756.77
424.452
18.3555
18.8264
18.9787
19.0915
19.2819
19.5713
19.8911
20.17
20.3632
20.4489
20.4224
20.2817
20.0065
19.5422
18.8349
17.9273
16.9646
16.0534
15.1687
14.1877
13.0333
11.8091
10.7649
10.0536
9.64897
9.41696
9.0935
8.17727
4.32633
5.28267
5.07331
6.04596
7.85712
761.459
427.918
18.963
19.1172
19.0024
18.8652
18.9159
19.1983
19.5651
19.8959
20.1405
20.2848
20.3285
20.2746
20.1205
19.8415
19.368
18.6084
17.6046
16.5466
15.5355
14.4946
13.2489
11.6945
9.88966
8.04258
6.25996
5.30255
7.57461
11.4388
14.7057
15.9291
15.0884
14.1252
17.16
772.879
431.397
19.3575
19.3227
19.1175
18.8936
18.8284
18.9981
19.3288
19.7216
20.0985
20.397
20.5805
20.6368
20.5688
20.3781
20.0497
19.5401
18.8004
17.8711
16.8892
15.9259
14.922
13.7173
12.1626
10.2617
8.29381
7.43251
9.04823
12.2305
15.7134
18.8938
20.5961
21.2043
22.24
766.381
427.235
18.566
18.86
18.8868
18.7567
18.5046
18.2269
18.0793
18.175
18.5269
19.044
19.5779
19.9926
20.2342
20.3042
20.2119
19.9583
19.5396
18.9639
18.2719
17.5308
16.7866
16.0329
15.218
14.3016
13.3783
12.5368
11.0961
7.71928
5.81473
8.55609
13.4293
16.7092
18.4501
758.278
424.769
18.6052
19.4131
19.8184
19.9867
19.9279
19.62
19.0735
18.4073
17.8555
17.7078
18.1301
18.8722
19.5326
19.9478
20.1222
20.0879
19.8617
19.4549
18.8916
18.2132
17.4511
16.5961
15.576
14.2798
12.3973
10.041
10.4209
11.4943
10.6476
8.39302
6.82579
9.99723
15.9671
765.896
420.442
17.9635
19.2372
19.9294
20.3554
20.6065
20.6849
20.5333
20.0421
19.1172
17.8733
16.9924
17.2402
18.1888
19.0665
19.6312
19.9193
19.9881
19.865
19.5599
19.0773
18.4127
17.5283
16.2997
14.5193
11.8813
8.71997
9.27475
13.102
15.2187
14.9697
13.7347
14.1309
18.0526
766.55
423.024
18.6844
19.8604
20.3911
20.6694
20.8362
20.9673
21.1024
21.1781
20.9793
20.1455
18.5283
17.271
17.4344
18.3319
19.1595
19.7126
20.0356
20.1886
20.2005
20.0787
19.8213
19.4202
18.8554
18.0986
17.1171
15.79
14.1295
12.9474
13.5173
15.259
15.6653
16.0187
18.2083
762.747
424.586
19.6863
20.7068
20.9106
20.8145
20.5767
20.3313
20.2199
20.3209
20.4975
20.4422
19.7355
18.4918
18.0332
18.5439
19.218
19.7057
20.0149
20.1999
20.2818
20.2622
20.1433
19.9245
19.5931
19.1019
18.3243
17.401
16.3396
14.85
13.0721
13.1209
15.2764
17.1451
19.5369
767.23
430.775
21.4693
22.0091
21.8187
21.3365
20.7913
20.4371
20.279
20.289
20.4071
20.4389
20.1584
19.4462
18.9403
19.168
19.6741
20.0933
20.3703
20.5367
20.5988
20.5408
20.3502
19.9907
19.3782
18.3937
17.0097
16.0395
15.8646
15.2073
13.6438
12.5559
15.9705
18.9437
21.5348
772.111
437.244
22.1133
21.9463
21.2372
20.1446
19.457
19.5946
19.9821
20.2821
20.4668
20.5344
20.4473
20.1773
19.8832
19.9035
20.1827
20.5055
20.7842
21.0024
21.1494
21.2009
21.1246
20.8914
20.4675
19.7751
18.6658
17.1891
16.0691
15.4085
14.4747
13.2502
15.027
18.5162
21.455
771.497
450.657
23.1818
22.1082
20.6306
18.7672
18.4805
19.4078
20.2682
20.8059
21.0598
21.1005
21.0048
20.8635
20.7762
20.8083
20.9449
21.1319
21.3319
21.5232
21.6876
21.8032
21.8479
21.7994
21.6223
21.2489
20.5656
19.4559
18.0286
16.7195
15.6767
14.5045
14.5311
17.7358
21.1654
772.425
453.786
22.6279
21.2403
19.4181
17.8106
17.9412
18.689
19.4994
20.2425
20.779
21.0827
21.2139
21.2865
21.384
21.5074
21.6392
21.7754
21.9192
22.075
22.2474
22.4365
22.6247
22.7518
22.7267
22.4763
21.9356
21.0076
19.5997
17.8784
16.4044
15.4739
15.7075
18.4876
21.8373
774.087
443.305
21.7775
21.5424
20.9818
20.1114
18.9489
18.0096
18.0424
18.9339
19.8704
20.5626
21.0304
21.3575
21.6087
21.8117
21.9819
22.1388
22.3109
22.5424
22.8905
23.3583
23.7955
24.0264
24.0185
23.7857
23.296
22.4516
21.1066
19.2467
17.3949
16.4524
16.943
19.1027
21.9157
772.733
432.537
22.1908
22.7098
22.4722
21.6227
19.9677
17.7069
15.7488
16.2423
17.9932
19.4133
20.3721
21.0263
21.4779
21.7933
22.0195
22.1935
22.3543
22.5596
22.9007
23.4457
24.0886
24.5865
24.8249
24.817
24.5634
24.0075
23.031
21.5043
19.551
17.9144
17.6462
19.0749
21.4687
771.183
438.187
22.9053
22.6124
21.6166
20.1248
18.6506
17.4841
15.1473
14.4276
16.6738
18.6911
19.947
20.7697
21.3558
21.7829
22.0889
22.2992
22.4352
22.5228
22.6109
22.7805
23.0969
23.5251
23.9516
24.2792
24.445
24.3903
24.0311
23.2373
21.867
20.0471
18.8197
19.5779
21.7949
772.425
454.289
23.2805
21.5228
19.2519
15.4219
12.3521
13.5409
14.031
14.4711
17.2651
19.1222
20.1383
20.8424
21.4201
21.9148
22.3265
22.6491
22.8769
23.0069
23.0458
23.0128
22.946
22.8952
22.8985
22.9675
23.0871
23.2161
23.2767
23.1286
22.5395
21.3368
20.2954
20.9684
23.0246
775.177
464.189
23.252
20.8337
17.2327
10.9215
7.50883
12.2011
15.1015
16.7062
18.4291
19.3686
20.1228
20.8001
21.415
21.9763
22.4818
22.9201
23.276
23.5364
23.6926
23.7378
23.6681
23.4892
23.2221
22.9045
22.5861
22.3214
22.1608
22.1223
22.0811
21.729
21.4656
22.2761
24.0655
776.895
446.881
20.8831
19.8481
17.455
14.129
12.0423
12.7377
15.1815
16.3631
17.4269
18.3084
19.162
19.9772
20.7503
21.4934
22.2029
22.858
23.4321
23.9021
24.2527
24.4722
24.5479
24.469
24.2286
23.8285
23.2845
22.6335
21.9528
21.4176
21.3302
21.7083
22.2749
23.205
24.7282
777.631
436.415
22.2802
23.0699
23.1986
22.2649
19.4455
15.8664
13.6325
13.07
13.6167
14.7102
16.0057
17.2934
18.522
19.7208
20.9119
22.0581
23.0694
23.8878
24.4992
24.9192
25.1622
25.2333
25.1266
24.8292
24.327
23.6108
22.6907
21.6756
21.0129
21.3766
22.4269
23.4926
24.9302
777.688
434.552
21.9381
22.8616
23.5717
24.1984
24.3862
23.1209
20.0886
16.5386
13.0423
10.6337
10.5953
12.329
14.3439
16.2189
18.0771
19.997
21.83
23.3022
24.3241
24.9941
25.4085
25.6192
25.6418
25.4671
25.0726
24.4294
23.5144
22.3704
21.3524
21.3279
22.3422
23.4174
24.8456
777.552
434.517
20.6208
21.131
21.5597
22.1727
23.0891
24.1058
24.491
23.3491
20.3643
15.7114
9.78426
5.52143
7.94067
11.1346
13.7674
16.256
18.8869
21.4137
23.28
24.425
25.1216
25.5413
25.7444
25.7362
25.4951
24.9833
24.1536
22.9937
21.7515
21.3154
22.1462
23.2303
24.7395
777.792
434.035
20.7839
21.4593
21.8205
22.051
22.3011
22.8125
23.6584
24.4319
24.4592
22.7939
18.403
10.7234
5.80829
3.93898
8.48896
11.8741
14.8785
18.1075
21.2211
23.4327
24.6547
25.3288
25.7046
25.8558
25.7765
25.425
24.7364
23.6515
22.3002
21.4972
22.0985
23.1868
24.7474
777.589
437.247
22.0826
22.6967
23.0482
23.3491
23.6102
23.778
23.9628
24.3536
24.826
25.0673
24.4896
21.5745
15.4293
8.07735
5.6117
6.31663
10.1954
13.5351
17.0921
20.5665
23.1192
24.5221
25.2583
25.65
25.7794
25.641
25.179
24.3103
23.0491
21.9749
22.2047
23.1633
24.652
777.251
440.307
22.2609
22.408
22.5194
22.8582
23.5192
24.2529
24.7934
25.1226
25.3817
25.6254
25.7783
25.6385
24.3478
19.5032
10.9213
5.20187
4.34475
8.80845
12.3875
16.0948
19.8497
22.7421
24.3733
25.2166
25.6481
25.7737
25.5819
24.9935
23.9213
22.6356
22.3151
23.118
24.6526
777.902
446.875
22.8627
22.481
22.1683
22.1875
22.7746
23.6869
24.5605
25.2237
25.6399
25.8357
25.8628
25.7622
25.5224
24.7874
21.3154
12.9985
6.77683
4.64217
8.54004
11.9491
15.5655
19.4033
22.4609
24.2568
25.2158
25.7147
25.875
25.6724
24.9993
23.8641
23.0876
23.5196
24.935
778.957
447.593
22.693
22.3491
22.0637
22.0125
22.3294
22.96
23.7861
24.6443
25.3747
25.8782
26.1195
26.096
25.827
25.3328
24.4143
21.3212
12.8199
8.24745
5.73145
8.76708
11.8711
15.3617
19.1536
22.1942
24.0014
24.9837
25.5037
25.669
25.4328
24.7151
23.9844
24.2602
25.6162
781.202
441.317
21.8633
22.0053
21.9655
21.8034
21.5995
21.5387
21.8456
22.624
23.7078
24.7141
25.4155
25.7812
25.8218
25.5271
24.8352
23.4128
18.9441
11.1074
8.27533
9.94806
11.9268
14.0867
16.9722
20.2659
22.913
24.4872
25.3256
25.7172
25.716
25.2968
24.8638
25.2626
26.6185
783.748
435.538
21.8096
22.3701
22.4589
22.3017
21.9365
21.3384
20.6277
20.2702
20.9857
22.4055
23.6237
24.378
24.7117
24.6575
24.1527
22.939
20.1583
13.657
8.82967
9.68213
11.4054
13.0701
15.1844
18.0897
21.1434
23.3914
24.7475
25.5197
25.856
25.794
25.7038
26.1621
27.3604
784.941
437.335
22.3559
22.6906
22.6926
22.7394
22.9167
22.8824
22.2326
20.887
20.1847
21.1528
22.3391
23.0258
23.2312
22.956
21.9652
19.9015
17.0591
14.7828
13.9927
14.137
14.5101
15.0264
15.918
17.6223
20.1964
22.7225
24.3532
25.2812
25.8227
26.0917
26.33
26.8287
27.8577
785.039
446.132
22.8611
22.237
21.5662
21.4634
22.1686
22.903
23.0572
22.2616
21.3175
21.9198
22.8431
23.3292
23.4508
23.2402
22.5784
21.1799
19.045
17.3217
16.8185
16.7885
16.8218
16.867
17.0317
17.6117
19.1328
21.5517
23.7521
25.0324
25.7021
26.1141
26.5152
27.0389
27.9673
784.074
461.276
24.1758
22.4742
20.9588
20.8126
21.6605
22.4158
22.7823
22.7347
22.7402
23.3789
23.9254
24.1988
24.2587
24.0913
23.6234
22.7476
21.4943
20.308
19.6375
19.2947
19.0394
18.7733
18.4845
18.2918
18.6073
20.0464
22.4342
24.4783
25.613
26.243
26.7216
27.2133
27.9942
782.304
458.319
22.2215
20.7444
20.2247
21.0292
21.7058
22.2579
22.8604
23.5712
24.2739
24.7736
25.1057
25.312
25.3766
25.2707
24.9498
24.3595
23.5164
22.6346
21.987
21.5729
21.2475
20.9078
20.4967
20.0103
19.5854
19.6954
21.0433
23.3071
25.0726
26.0548
26.6649
27.1497
27.8081
780.648
436.875
19.2972
20.4041
21.1122
21.3443
21.5291
21.9643
22.6003
23.3027
24.0059
24.6876
25.3035
25.8031
26.1573
26.3504
26.3637
26.1679
25.7354
25.0952
24.3728
23.7161
23.1706
22.6903
22.21
21.6778
21.0857
20.5551
20.6067
21.9546
24.0044
25.382
26.1983
26.8111
27.6037
780.859
422.228
20.7179
21.7431
21.7672
21.5129
21.134
20.7299
20.447
20.4803
21.001
21.9704
23.1649
24.3287
25.304
26.0494
26.5817
26.9006
26.9925
26.8397
26.4533
25.9046
25.2915
24.6707
24.0441
23.3838
22.6602
21.8786
21.1952
21.2589
22.793
24.706
25.8927
26.6877
27.6111
781.413
420.817
21.7208
22.5917
22.6523
22.442
22.0048
21.2764
20.2131
18.9359
17.8134
17.3462
18.0046
19.8043
21.893
23.6402
24.9519
25.8933
26.5395
26.9274
27.0784
27.0165
26.7781
26.4027
25.9146
25.3177
24.5998
23.7445
22.7711
21.921
22.0355
23.5828
25.1343
26.2134
27.399
783.477
424.325
21.2688
22.4086
22.7049
22.6878
22.505
22.2027
21.8197
21.3053
20.408
18.9111
16.5466
15.0726
16.7658
19.7064
22.1768
23.9581
25.2198
26.1194
26.7385
27.1244
27.3113
27.3249
27.1803
26.8793
26.4131
25.7632
24.9021
23.8414
22.9462
23.2638
24.5829
25.8611
27.4387
787.321
438.236
23.189
23.2968
22.7994
22.0352
21.149
20.3033
19.9598
20.7542
21.9002
22.4689
21.3418
17.71
15.0513
16.5048
19.611
22.2065
24.0101
25.2468
26.1337
26.7802
27.2349
27.5179
27.6386
27.6007
27.3983
27.0155
26.4214
25.5663
24.5214
24.092
24.9768
26.2953
28.1533
792.098
464.472
25.8855
24.261
22.5635
20.496
18.402
16.8584
16.3972
17.9162
19.902
21.0165
20.6288
18.5436
18.7719
21.3296
23.0673
24.2402
25.2073
26.034
26.7054
27.2242
27.6145
27.9029
28.0817
28.1241
28.0123
27.7238
27.2145
26.4119
25.3714
24.882
25.7298
27.0183
28.9243
794.599
475.38
24.1798
21.5836
18.8132
15.0166
13.5218
15.625
18.237
19.4946
19.4631
19.6933
21.789
23.5841
24.2659
24.9924
25.7123
26.3403
26.8778
27.3333
27.7135
28.0252
28.275
28.4604
28.5641
28.5636
28.4404
28.174
27.7269
27.0539
26.28
26.0849
26.8775
27.899
29.4449
792.692
457.54
22.0411
20.3183
16.9527
13.1621
15.5051
20.0427
22.0601
23.2302
24.1327
24.5986
25.0622
25.705
26.3099
26.8358
27.3005
27.7095
28.0651
28.3683
28.6204
28.8215
28.9674
29.0472
29.043
28.9354
28.7085
28.3532
27.8769
27.3342
26.9227
27.0448
27.6772
28.3671
29.432
788.767
453.676
24.5267
23.5995
21.9668
19.0283
16.385
17.8403
20.6304
22.0665
23.0039
23.9109
24.7869
25.5761
26.2756
26.8934
27.4357
27.9072
28.3114
28.6523
28.9339
29.1575
29.3196
29.4096
29.41
29.2976
29.0466
28.6344
28.0715
27.4786
27.152
27.3455
27.8159
28.3115
29.1045
785.245
451.562
23.6831
23.2204
22.6639
21.3729
17.9243
12.8818
11.353
15.9079
19.6363
21.7833
23.2165
24.3669
25.3332
26.1584
26.872
27.4899
28.0214
28.4735
28.8506
29.1524
29.3739
29.5068
29.5411
29.4659
29.2672
28.9301
28.4601
27.9527
27.6538
27.7392
28.0061
28.3092
28.7956
781.663
449.036
23.8209
23.3189
22.591
21.5984
20.0321
17.2203
11.7819
8.9923
11.6661
17.8425
20.9514
22.6934
23.976
25.0602
25.9944
26.7935
27.4742
28.0533
28.5432
28.9468
29.2581
29.4666
29.5616
29.5347
29.38
29.095
28.6959
28.2573
27.9443
27.8753
27.9412
28.0543
28.3078
780.169
455.125
24.8163
23.9535
22.979
21.5376
19.2106
16.9411
15.7729
12.7137
7.96553
11.0714
17.5368
20.9515
22.9533
24.3792
25.5051
26.4318
27.2122
27.8818
28.4605
28.953
29.3525
29.6444
29.8136
29.8499
29.7482
29.5086
29.1469
28.7208
28.3528
28.147
28.0742
28.094
28.3204
781.358
459.726
24.72
23.5751
22.522
21.0282
18.4219
14.9037
12.2517
12.327
11.2887
7.92929
14.7972
19.997
22.5413
24.1036
25.2577
26.2158
27.0426
27.7515
28.3778
28.9403
29.4223
29.7989
30.0474
30.1522
30.1091
29.9262
29.6231
29.244
28.8723
28.5889
28.4066
28.3196
28.4353
781.749
465.324
25.042
23.6487
22.3574
20.3679
17.0599
13.238
10.4563
8.657
9.63932
8.38868
9.59619
18.2827
22.2054
23.9382
25.1428
26.1863
27.0733
27.8177
28.435
28.9541
29.4165
29.8288
30.1505
30.3461
30.3952
30.2927
30.051
29.7078
29.3305
28.9914
28.7308
28.5785
28.6724
783.091
471.761
24.8906
23.1633
21.3968
18.1181
12.3234
6.51899
6.32315
6.70738
7.53094
11.7046
18.3321
22.8691
24.2784
25.3857
26.4299
27.3499
28.1329
28.7797
29.2968
29.7015
30.0411
30.3427
30.5763
30.7178
30.7573
30.6851
30.4972
30.2101
29.8682
29.5286
29.2393
29.0447
29.074
783.328
467.626
23.8659
22.2793
20.0848
15.3521
7.11083
6.36575
9.10758
13.359
17.3736
21.3156
23.2725
24.5317
25.4647
26.3401
27.1883
27.9783
28.6848
29.304
29.8439
30.3017
30.6705
30.9419
31.1053
31.1594
31.1134
30.9809
30.7716
30.4935
30.1635
29.8098
29.4679
29.1836
29.0582
782.215
461.498
23.7649
22.5933
20.6134
16.3908
9.23662
8.07828
15.3122
19.6418
21.2708
22.7851
23.9187
24.9094
25.9116
26.8861
27.7223
28.3821
28.907
29.3595
29.789
30.2164
30.6322
31.0018
31.2827
31.4454
31.4763
31.3772
31.1642
30.8627
30.503
30.1197
29.7552
29.4669
29.3728
783.126
456.352
23.8419
23.091
22.1204
20.0485
14.995
4.6382
8.42477
16.3215
20.9963
22.4523
23.7383
24.9162
25.8062
26.5321
27.2658
28.119
29.04
29.8751
30.5208
30.9756
31.2803
31.474
31.5852
31.631
31.6169
31.5327
31.3629
31.1048
30.775
30.4063
30.0426
29.7335
29.5522
782.058
455.731
23.8123
23.0214
22.2535
21.3431
19.9393
15.839
4.1288
5.97259
10.2481
19.8744
21.5472
22.1865
23.1174
24.6032
26.0992
27.1387
27.8564
28.4681
29.1201
29.8556
30.6081
31.2414
31.6648
31.8712
31.8956
31.7844
31.5773
31.2993
30.9672
30.6
30.2252
29.8774
29.5814
781.295
455.96
23.9206
23.0795
22.1592
20.9267
19.6762
18.2706
14.6293
8.6796
7.75006
7.88052
16.4333
21.9114
23.2543
23.7241
24.246
25.1743
26.5557
27.919
28.8774
29.5055
29.9841
30.4401
30.9211
31.3671
31.6773
31.7956
31.728
31.5137
31.1998
30.831
30.4483
30.0914
29.7887
781.978
457.609
23.9047
22.8703
21.8939
20.7543
19.6642
18.614
17.0374
13.302
5.61429
5.42554
4.11286
9.08387
15.9086
22.0442
24.0892
24.7184
25.1357
25.8659
27.1341
28.7268
30.0635
30.8712
31.2784
31.467
31.5606
31.5961
31.5569
31.4227
31.1941
30.8907
30.5438
30.1872
29.8315
781.487
458.271
23.6108
22.4858
21.3949
20.0594
18.8414
17.9079
16.8549
15.1722
11.6189
7.39211
7.02797
5.01194
7.54407
8.69392
15.9059
22.3108
25.1578
25.9649
26.1399
26.3897
27.1975
28.6588
30.2015
31.2465
31.7619
31.9073
31.83
31.6289
31.3586
31.0438
30.6992
30.3383
29.9419
781.233
455.908
23.4758
22.6291
21.8166
20.7933
19.662
18.6789
17.7392
16.5817
14.9395
12.031
6.79114
6.79063
5.86048
5.95079
4.56511
8.71946
16.2101
22.9076
27.2098
28.7754
28.9698
28.7248
28.809
29.5396
30.4985
31.237
31.6226
31.6999
31.5582
31.2778
30.9138
30.4939
29.9748
780.223
451.846
23.2549
22.76
22.2175
21.3888
20.187
18.9149
17.9729
17.3768
16.8666
16.1588
14.9569
12.7532
9.393
4.39341
5.94549
6.92525
5.50929
8.57245
14.8219
21.9673
27.4797
30.3872
31.0598
30.8838
30.7174
30.7632
30.9268
31.055
31.0561
30.9038
30.6113
30.1872
29.5298
777.559
451.269
23.7161
23.6015
23.4742
23.2075
22.5759
21.3181
19.6513
18.1833
17.2231
16.6083
16.0574
15.414
14.5814
13.4759
11.9114
9.81782
6.7821
5.52234
5.81467
5.29514
12.8761
20.5963
26.887
30.044
31.046
31.2597
31.2428
31.1651
31.0428
30.8544
30.5738
30.1562
29.4239
776.684
449.205
23.3769
23.3685
23.3234
23.1786
22.8534
22.1781
20.8726
19.0634
17.491
16.6021
16.1282
15.6864
15.1042
14.3396
13.3958
12.2449
10.9669
10.0451
8.70147
4.35168
5.12948
7.0115
14.6357
23.3121
27.9763
30.19
31.1453
31.4721
31.487
31.3159
31.0037
30.5415
29.7734
779.455
451.133
23.7456
23.8173
23.9284
24.0174
24.0006
23.7311
22.9366
21.2861
19.0814
17.339
16.4509
15.9701
15.4792
14.8125
13.9191
12.7597
11.4922
11.4084
12.0742
11.3219
8.98123
7.4612
8.67718
12.2653
22.0057
26.3061
28.7699
30.0941
30.693
30.8544
30.7376
30.4325
29.9977
784.379
451.099
23.46
23.4167
23.4323
23.4383
23.4074
23.2926
22.9662
22.1009
20.344
18.2602
16.9166
16.2944
15.8568
15.3003
14.5146
13.4434
12.0331
11.1326
12.432
13.2239
12.2419
9.19822
7.50411
5.21028
12.7256
22.4698
26.0198
28.1237
29.3441
29.9666
30.1967
30.2046
30.25
788.296
453.413
23.8645
23.836
23.8992
23.947
23.9214
23.7745
23.4602
22.8577
21.6446
19.6999
17.9367
16.9988
16.5125
16.049
15.4163
14.5302
13.3029
11.7582
11.4832
13.2589
13.549
11.9016
7.78605
5.6371
5.92753
18.4763
25.284
27.8243
29.3141
30.1204
30.4765
30.6119
30.8094
789.193
453.425
23.656
23.6074
23.6862
23.7588
23.7573
23.624
23.3265
22.8374
22.0418
20.7104
19.0992
17.9694
17.3672
16.9302
16.4264
15.7474
14.8157
13.5141
11.9743
12.1081
13.8133
13.5429
11.2112
6.30234
8.57345
8.63705
22.179
26.9245
28.7975
29.8429
30.4294
30.7715
31.1159
789.625
453.349
23.6292
23.6112
23.739
23.8861
23.9781
23.9334
23.6921
23.2461
22.5879
21.6443
20.3759
19.1973
18.4378
17.9459
17.498
16.9651
16.2731
15.3377
14.0402
12.651
13.2357
14.686
14.193
11.8458
7.15498
5.93129
11.9673
22.5755
26.2546
28.1573
29.2928
30.0401
30.8666
791.92
452.602
23.3844
23.3338
23.4474
23.6177
23.8032
23.9302
23.8956
23.6339
23.139
22.4192
21.4791
20.4514
19.619
19.0423
18.5862
18.1215
17.5707
16.8762
15.9456
14.653
13.5004
14.7721
15.879
15.3099
13.1479
8.60398
7.91805
14.4896
23.5962
26.6224
28.2962
29.4988
30.8353
793.631
450.937
23.1963
23.133
23.2037
23.3412
23.5462
23.7818
23.9491
23.951
23.7368
23.2873
22.5991
21.7369
20.8923
20.209
19.6804
19.2118
18.716
18.1365
17.4168
16.4381
15.0949
14.474
16.4179
17.2535
16.5138
14.0518
8.49336
10.0572
18.6858
25.1993
28.0235
29.7521
31.2699
792.333
451.792
23.2797
23.0581
23.0177
23.0854
23.295
23.6225
23.946
24.1482
24.1711
23.9865
23.5735
22.9362
22.1711
21.4478
20.8501
20.345
19.8484
19.3087
18.6799
17.8905
16.7963
15.431
16.0851
18.0753
18.5749
17.5653
14.5169
8.95872
10.3485
22.3986
26.9424
29.3612
31.2034
790.971
451.533
23.0635
22.6534
22.4684
22.4372
22.6651
23.1312
23.6507
24.0809
24.3549
24.4416
24.3184
23.9696
23.4208
22.7739
22.1451
21.5776
21.0484
20.5119
19.9248
19.2427
18.359
17.0749
15.8477
17.7344
19.5563
19.9196
18.8909
16.0681
12.3149
18.008
24.5364
27.896
30.2727
792.694
454.205
23.2004
22.4486
22.011
21.7829
21.9918
22.5931
23.2965
23.9295
24.4246
24.7485
24.8769
24.7914
24.493
24.0288
23.4842
22.9275
22.38
21.8281
21.2434
20.591
19.8081
18.7183
16.929
17.0558
19.3892
20.9499
21.3037
20.5491
18.5581
17.4341
22.0937
26.1438
29.317
796.805
455.023
22.8853
21.8428
21.1459
20.671
20.8822
21.682
22.6333
23.5279
24.296
24.8955
25.2924
25.4663
25.4149
25.1637
24.7661
24.2819
23.7524
23.192
22.594
21.9354
21.1722
20.1893
18.5523
17.1113
18.867
21.0774
22.3064
22.5994
22.0315
20.1549
20.9988
25.0968
29.2304
801.991
457.456
22.9003
21.5719
20.5837
19.7773
19.9148
20.8267
21.975
23.1412
24.2197
25.1184
25.7767
26.1742
26.32
26.2426
25.9838
25.5905
25.1035
24.5492
23.9355
23.2508
22.4605
21.4805
19.96
17.6323
18.4256
20.7867
22.5405
23.4159
23.5321
22.09
21.4604
25.2211
29.9312
807.219
457.592
22.4819
20.9602
19.7019
18.5271
18.6304
19.7677
21.261
22.8557
24.3525
25.5744
26.4511
26.9974
27.2594
27.2851
27.1166
26.7906
26.3394
25.7876
25.1473
24.4097
23.5338
22.4076
20.6704
17.8071
18.3687
20.77
22.6719
23.7882
24.1189
23.2724
23.7183
27.0689
31.3551
810.392
457.971
22.3566
20.7192
19.2159
17.6059
17.5376
18.8759
20.789
22.9201
24.8561
26.3038
27.2612
27.8405
28.1378
28.2106
28.0923
27.807
27.3765
26.8191
26.1421
25.3263
24.2961
22.8477
20.5072
17.4388
18.8998
21.5549
23.3801
24.3527
24.7094
25.0377
26.7754
29.3394
32.4206
805.632
456.46
22.0193
20.302
18.5694
16.4979
16.2005
17.8389
20.2403
22.9179
25.2323
26.7989
27.7766
28.3806
28.7242
28.8549
28.7935
28.5541
28.1509
27.5956
26.8845
25.9659
24.6774
22.6829
19.5749
17.167
20.3676
23.095
24.635
25.5077
26.1033
27.1801
28.8046
30.4803
32.3008
793.848
456.165
22.0144
20.1761
18.2194
15.712
14.9339
16.4518
18.9122
21.8523
24.5648
26.45
27.6287
28.3857
28.8633
29.1168
29.1682
29.0278
28.6946
28.1654
27.4443
26.4514
24.9246
22.4576
18.8669
17.0897
22.0952
25.0898
25.9845
26.8402
27.7745
28.8253
29.8384
30.7355
31.3379
783.021
455.829
21.8146
19.8111
17.62
14.6951
13.3251
14.4857
16.5359
19.4306
22.6535
25.2177
26.8612
27.9024
28.5888
29.0203
29.2348
29.2442
29.0418
28.6195
27.9646
26.9885
25.4452
22.9475
19.204
16.4575
21.681
26.8883
27.5967
27.9628
28.8669
29.7364
30.3677
30.7794
30.5733
777.856
455.925
21.7052
19.6474
17.3117
13.9259
11.7854
12.6947
14.3974
16.9283
20.3692
23.6252
25.8522
27.2325
28.1368
28.7466
29.1271
29.3017
29.2666
29.0091
28.5063
27.6858
26.3862
24.2769
20.9263
16.911
18.1605
25.8053
28.9882
29.2248
29.5545
30.007
30.3289
30.435
29.8913
775.893
454.201
21.4871
19.6428
17.4512
13.8702
10.2749
10.709
12.8779
15.4341
18.7587
22.2773
24.9532
26.6378
27.7179
28.4648
28.9807
29.2996
29.4232
29.3355
29.0113
28.399
27.3994
25.7966
23.2079
19.3385
16.1287
20.5238
27.5898
30.1098
30.5172
30.6406
30.6522
30.4813
29.7289
775.426
451.856
21.6013
20.2485
18.641
15.7137
10.5442
6.93244
9.18759
12.3767
16.1826
20.2884
23.6457
25.8058
27.1572
28.08
28.7469
29.2178
29.5053
29.598
29.47
29.0812
28.3708
27.225
25.3859
22.4823
18.5487
16.7848
22.1165
28.0729
30.3965
30.9631
31.0224
30.757
29.857
775.681
449.991
21.7663
20.788
19.7225
17.8602
13.8109
6.10493
7.19913
7.40383
11.9509
17.2412
21.671
24.6197
26.4022
27.5534
28.3823
29.0049
29.457
29.7368
29.8222
29.6776
29.2583
28.5027
27.2915
25.3974
22.538
19.117
18.3167
22.6313
27.2226
29.4086
30.1554
30.2723
29.708
778.299
449.568
21.7949
20.8419
19.9367
18.6434
16.2562
10.7168
5.44106
6.03105
7.55476
13.8367
19.5673
23.3278
25.5983
27.0178
27.9973
28.7387
29.3172
29.7497
30.0224
30.1035
29.9534
29.5305
28.7835
27.6149
25.8553
23.3234
20.4808
19.5841
22.208
25.7089
27.5372
28.3907
28.7185
780.929
450.158
21.7071
20.5553
19.4774
18.0759
16.2385
13.1064
7.10235
5.34811
7.22499
10.8157
17.8986
22.3607
25.0069
26.6138
27.6837
28.4955
29.1593
29.7
30.1106
30.3658
30.4261
30.2541
29.8156
29.0699
27.9412
26.2849
23.9501
21.2806
20.0124
22.0279
24.8555
26.5348
27.8594
782.018
451.322
21.6967
20.3319
18.9874
17.1499
14.9867
12.5019
6.56771
4.87696
4.47049
8.06603
16.3529
21.5919
24.5476
26.2845
27.4149
28.2777
29.0067
29.6287
30.1418
30.5292
30.7503
30.7655
30.5424
30.0529
29.2605
28.0896
26.3727
23.9248
21.1414
20.2939
22.7253
24.872
26.781
779.616
452.299
21.6997
20.2156
18.689
16.4416
13.5947
10.9188
8.40305
6.30168
7.01398
7.8985
15.2188
21.1126
24.2133
25.9961
27.1601
28.0525
28.8171
29.4994
30.1015
30.6025
30.9635
31.1439
31.1094
30.833
30.2893
29.4381
28.1871
26.3461
23.8228
21.6395
22.3306
24.1509
26.0203
777.197
452.747
21.6361
20.1337
18.5623
16.0919
12.554
8.87615
6.59141
6.24108
6.99014
7.62242
13.4515
20.2655
23.7074
25.623
26.8563
27.7889
28.5867
29.3139
29.9828
30.5735
31.0494
31.3692
31.4959
31.4005
31.0602
30.4502
29.519
28.1509
26.1959
23.9482
23.1849
24.1116
25.4878
775.034
452.325
21.5027
20.1232
18.6747
16.2624
12.3513
7.32916
4.86267
4.76662
6.54075
5.17764
11.8232
19.0068
23.1257
25.2321
26.5189
27.4693
28.2863
29.0446
29.7619
30.4232
30.9961
31.441
31.7187
31.7959
31.6468
31.249
30.5687
29.5337
28.0331
26.1447
24.8672
24.9728
25.7293
774.374
450.918
21.4315
20.3443
19.2473
17.3703
14.0107
8.79942
5.57018
5.23645
6.11567
5.0107
9.18784
16.5548
21.9829
24.6105
26.0744
27.0824
27.9222
28.6979
29.4399
30.1415
30.7753
31.3031
31.6846
31.8836
31.8712
31.6231
31.1091
30.2727
29.0372
27.4511
26.138
25.7565
25.9658
773.164
449.539
21.4094
20.5581
19.8092
18.583
16.2754
12.2169
6.1401
5.58175
6.81069
6.81943
8.7797
16.6183
21.7854
24.4477
25.8779
26.8521
27.6822
28.4491
29.177
29.8808
30.5369
31.1092
31.5576
31.8424
31.9277
31.7831
31.3768
30.6637
29.6044
28.2826
27.1318
26.5604
26.3882
772.559
449.008
21.2942
20.4298
19.7706
18.906
17.4412
14.7727
9.89856
5.26611
6.08137
4.67266
9.66942
17.2388
22.1023
24.4883
25.7699
26.6775
27.4746
28.2194
28.935
29.6316
30.2843
30.8603
31.3253
31.6435
31.7765
31.6849
31.3284
30.6655
29.6858
28.5085
27.4634
26.7931
26.3543
771.127
449.014
21.0646
20.0167
19.2044
18.3177
17.2161
15.4511
12.2316
6.12586
5.52841
5.40404
9.93186
18.0172
22.41
24.4375
25.5877
26.4339
27.1881
27.9193
28.6433
29.3464
30.0035