/*--------------------------------*- C++ -*----------------------------------*\
| =========                 |                                                 |
| \\      /  F ield         | OpenFOAM: The Open Source CFD Toolbox           |
|  \\    /   O peration     | Version:  v1906                                 |
|   \\  /    A nd           | Web:      www.OpenFOAM.com                      |
|    \\/     M anipulation  |                                                 |
\*---------------------------------------------------------------------------*/
FoamFile
{
    version     2.0;
    format      ascii;
    class       volVectorField;
    location    "82";
    object      U;
}
// * * * * * * * * * * * * * * * * * * * * * * * * * * * * * * * * * * * * * //

dimensions      [0 1 -1 0 0 0 0];


internalField   nonuniform List<vector> 
78750
(
(-0.325441 -0.324324 -0.0248751)
(-0.278042 -0.323989 -0.0196917)
(-0.258205 -0.312274 -0.0100434)
(-0.198874 -0.3011 0.00298704)
(-0.117275 -0.275432 0.0210914)
(-0.0713431 -0.227439 0.0310886)
(-0.0408062 -0.191865 0.0345322)
(-0.00136173 -0.140454 0.0368767)
(0.0282406 -0.0913596 0.0343742)
(0.0463966 -0.0497326 0.0266408)
(0.0569992 -0.0217822 0.0153978)
(0.061422 -0.00812756 0.00425566)
(0.0634475 -0.00260932 -0.00481819)
(0.0651089 -0.000159378 -0.0118112)
(0.0665172 0.00131544 -0.0170162)
(0.0678373 0.00247095 -0.02069)
(0.0693223 0.00362308 -0.0229918)
(0.0709705 0.00498918 -0.0239998)
(0.0725884 0.00661203 -0.0238313)
(0.0740003 0.00833375 -0.022701)
(0.0751182 0.0100366 -0.0208034)
(0.0758433 0.0116565 -0.018301)
(0.0760861 0.0131765 -0.0153134)
(0.0757761 0.0146194 -0.0119088)
(0.0748552 0.0160309 -0.00811092)
(0.0732709 0.0174649 -0.00390396)
(0.0709691 0.0189759 0.000760173)
(0.0678877 0.0206126 0.00595141)
(0.063954 0.0224205 0.0117541)
(0.0590747 0.024441 0.0182651)
(0.0531621 0.0267029 0.025656)
(0.0458289 0.0290385 0.0341209)
(0.0369409 0.0304288 0.0426565)
(0.0294454 0.0319046 0.0517029)
(0.0141474 0.0801574 0.0380028)
(0.0434708 -0.241902 0.00990184)
(-0.025202 -0.288087 0.00416383)
(0.0188547 -0.340193 -0.00369311)
(0.00670995 -0.427895 -0.0119335)
(0.00908202 -0.460914 -0.0153072)
(0.00866456 -0.452741 -0.0096442)
(0.0123395 -0.407348 0.00590587)
(0.0165507 -0.335207 0.0264414)
(0.0231226 -0.247368 0.0435908)
(0.030261 -0.153217 0.0509409)
(0.0349674 -0.0717814 0.0457939)
(0.0354982 -0.0202948 0.0314652)
(0.0335936 0.00389011 0.0153118)
(0.0316531 0.0145358 0.00139563)
(0.0303108 0.0198488 -0.00991229)
(0.0294184 0.0228053 -0.0190196)
(0.0288241 0.0245675 -0.0261477)
(0.0284897 0.0257858 -0.0314521)
(0.0284164 0.0268577 -0.03509)
(0.0285822 0.0280132 -0.0372367)
(0.0289455 0.02937 -0.0380818)
(0.0294554 0.0309686 -0.0377982)
(0.030051 0.0328147 -0.0365351)
(0.0306647 0.0349042 -0.0344158)
(0.0312254 0.0372324 -0.0315361)
(0.03166 0.0397955 -0.0279692)
(0.0318949 0.0425873 -0.0237633)
(0.0318543 0.0455963 -0.0189441)
(0.0314533 0.0488047 -0.0135245)
(0.0305693 0.0521936 -0.00754797)
(0.02905 0.05579 -0.00118565)
(0.0269299 0.0598521 0.00534356)
(0.0241056 0.0658683 0.0127166)
(0.0189841 0.088398 0.0241463)
(0.00594397 0.204142 0.0263005)
(-0.0156742 -0.233797 -0.00963535)
(-0.00444363 -0.352541 -0.0307158)
(-0.0122038 -0.359353 -0.0357804)
(-0.0113295 -0.331013 -0.0367805)
(-0.0138062 -0.291099 -0.0344803)
(-0.0166973 -0.265545 -0.0306805)
(-0.0183371 -0.249658 -0.0251122)
(-0.0181965 -0.228628 -0.0152114)
(-0.0153524 -0.188247 -0.000247017)
(-0.00918898 -0.126246 0.0123321)
(-0.000902574 -0.0558765 0.0165213)
(0.00737618 0.00314801 0.0127201)
(0.0133005 0.0359238 0.0048656)
(0.0161362 0.0477888 -0.00236191)
(0.0174939 0.0526177 -0.0080776)
(0.0181629 0.055754 -0.0128697)
(0.0182817 0.0580007 -0.0170367)
(0.0182056 0.0593106 -0.0205872)
(0.0182241 0.0598097 -0.0235138)
(0.0183597 0.0596788 -0.0257996)
(0.018567 0.0591405 -0.0274164)
(0.0188164 0.0584225 -0.0283501)
(0.019098 0.0577345 -0.0286074)
(0.0194216 0.0572444 -0.0282003)
(0.0197849 0.0570803 -0.0271514)
(0.0201698 0.0573401 -0.0254947)
(0.0205441 0.0581069 -0.0232786)
(0.0208511 0.0594684 -0.0205721)
(0.0210051 0.0615388 -0.0175005)
(0.0209125 0.0645041 -0.0141925)
(0.0204935 0.0687903 -0.0105597)
(0.0197038 0.0755452 -0.00618151)
(0.0180809 0.0903034 0.000399494)
(0.0139068 0.160174 0.0136087)
(0.00381051 0.282294 0.0186068)
(0.00323841 -0.22114 0.0060888)
(-0.00377371 -0.342375 -0.00212581)
(-0.00588719 -0.403485 -0.00656216)
(-0.00848727 -0.436331 -0.00823888)
(-0.00784051 -0.446552 -0.00864221)
(-0.00592302 -0.439757 -0.00791602)
(-0.00324916 -0.415396 -0.00566548)
(-0.000789592 -0.375677 -0.0014607)
(0.00155233 -0.327856 0.00535193)
(0.00489604 -0.272949 0.0148641)
(0.0102382 -0.208365 0.0229408)
(0.0173584 -0.139018 0.0245519)
(0.0243868 -0.0757428 0.0194726)
(0.0292573 -0.0256018 0.0110575)
(0.0312144 0.00917024 0.00303378)
(0.0309646 0.0299437 -0.00290928)
(0.0298617 0.0413633 -0.00699221)
(0.028711 0.0482451 -0.00990377)
(0.0277157 0.0532333 -0.0121362)
(0.0268848 0.0573449 -0.0139118)
(0.0261684 0.0607055 -0.0153622)
(0.0255429 0.0632293 -0.0165426)
(0.0249872 0.0650027 -0.017438)
(0.0244698 0.0662152 -0.017999)
(0.0239704 0.0670995 -0.0181634)
(0.0234683 0.0678951 -0.0178804)
(0.0229328 0.0688303 -0.0171313)
(0.0223084 0.0701216 -0.0159499)
(0.0215443 0.0720319 -0.0144179)
(0.0205546 0.0749958 -0.0124934)
(0.0192492 0.0796865 -0.0100283)
(0.0176114 0.0876626 -0.00674106)
(0.0150521 0.107358 -0.00134613)
(0.00995334 0.198178 0.010138)
(0.00190561 0.324643 0.0154553)
(-0.00507775 -0.215813 -0.0151748)
(-0.00727649 -0.322453 -0.0260663)
(-0.00824569 -0.342349 -0.0279133)
(-0.00886748 -0.344405 -0.0287982)
(-0.00980337 -0.338557 -0.0294288)
(-0.01057 -0.326536 -0.0302004)
(-0.0104048 -0.309725 -0.0309246)
(-0.00884349 -0.287363 -0.0308581)
(-0.00578287 -0.257369 -0.0286186)
(-0.00150838 -0.22037 -0.0224116)
(0.00413239 -0.177372 -0.0114536)
(0.0113803 -0.12755 0.00171436)
(0.0196836 -0.0726913 0.0121226)
(0.0280303 -0.0192276 0.0161602)
(0.0350555 0.0250259 0.0136418)
(0.0395362 0.0542359 0.00746212)
(0.0411386 0.0683817 0.00132062)
(0.0410049 0.0740248 -0.00321746)
(0.0400833 0.0770942 -0.00654542)
(0.0386527 0.079612 -0.00903796)
(0.0370251 0.0818062 -0.0108803)
(0.0354394 0.0836645 -0.0122306)
(0.0339649 0.0851403 -0.0131977)
(0.0325858 0.0862428 -0.01383)
(0.0312605 0.0870644 -0.014132)
(0.0299381 0.0877807 -0.0140886)
(0.0285685 0.0886528 -0.0136945)
(0.0271248 0.0900486 -0.0129514)
(0.0255247 0.0924516 -0.0117849)
(0.0236613 0.0964544 -0.0100641)
(0.0215402 0.102934 -0.00768361)
(0.0190964 0.114806 -0.00424704)
(0.0156642 0.148341 0.00135199)
(0.0101603 0.26258 0.00879228)
(0.00182071 0.367729 0.0121612)
(0.000462016 -0.19156 -0.00549331)
(0.0053164 -0.361195 -0.00625672)
(0.00975045 -0.43072 -0.00720119)
(0.0138662 -0.45645 -0.00902091)
(0.0178329 -0.464697 -0.011089)
(0.0216287 -0.462458 -0.0137137)
(0.0249427 -0.450132 -0.0175581)
(0.0273197 -0.427254 -0.0231529)
(0.0285439 -0.395502 -0.0301177)
(0.0290777 -0.357977 -0.0366242)
(0.0297725 -0.316681 -0.0397045)
(0.0315375 -0.271273 -0.0363573)
(0.0351638 -0.219396 -0.0254609)
(0.040792 -0.159313 -0.00945921)
(0.0474106 -0.0935993 0.00586203)
(0.0529406 -0.0311205 0.0142557)
(0.0554132 0.0175718 0.0139303)
(0.0545547 0.0494372 0.00858131)
(0.0517718 0.0691068 0.00259406)
(0.0483838 0.0812555 -0.00221116)
(0.0451061 0.0885686 -0.00570736)
(0.0420879 0.0930598 -0.00812528)
(0.039268 0.095992 -0.00973043)
(0.0366437 0.0980592 -0.0107155)
(0.0342101 0.0996759 -0.0112107)
(0.0319251 0.101138 -0.0112969)
(0.0297246 0.102709 -0.0110161)
(0.0275373 0.104693 -0.0103675)
(0.0252851 0.107471 -0.00931252)
(0.0228969 0.11153 -0.00780481)
(0.0204139 0.117716 -0.00575077)
(0.01772 0.128979 -0.00265972)
(0.0137734 0.16386 0.00314397)
(0.00809143 0.300271 0.0110831)
(0.000950232 0.399419 0.0116097)
(0.00161859 -0.241275 -0.0160149)
(0.0086173 -0.376465 -0.0183188)
(0.0137237 -0.406646 -0.0176952)
(0.0175522 -0.411859 -0.0176187)
(0.020946 -0.406374 -0.0182206)
(0.0239175 -0.390832 -0.0198461)
(0.026145 -0.363594 -0.0231001)
(0.027507 -0.325198 -0.0284005)
(0.0281426 -0.280485 -0.0354196)
(0.0281797 -0.236524 -0.0431675)
(0.0276733 -0.198988 -0.0502183)
(0.026881 -0.169002 -0.0548622)
(0.0263063 -0.142575 -0.0552807)
(0.0267394 -0.112478 -0.0489178)
(0.0291732 -0.0705815 -0.0337442)
(0.0334362 -0.0148797 -0.0140259)
(0.0377306 0.0441196 0.000548969)
(0.0400413 0.0894738 0.00492576)
(0.0400089 0.112236 0.00298187)
(0.0390236 0.121283 -0.00012721)
(0.0376409 0.125851 -0.00296189)
(0.0358752 0.128451 -0.00534402)
(0.0340415 0.129655 -0.00716111)
(0.0321878 0.129982 -0.0084129)
(0.0302971 0.129901 -0.0091744)
(0.0283739 0.12986 -0.00953099)
(0.0263989 0.13027 -0.00953223)
(0.024338 0.131517 -0.00919879)
(0.0221542 0.134054 -0.00852501)
(0.019822 0.138513 -0.00745714)
(0.0173882 0.146241 -0.00586603)
(0.0147559 0.162533 -0.00327242)
(0.0113931 0.216694 0.00182498)
(0.007273 0.357385 0.00917803)
(0.00153679 0.430258 0.00996938)
(0.00287148 -0.261024 -0.00866516)
(0.0102374 -0.433167 0.00141101)
(0.0165245 -0.489177 0.00572256)
(0.0215043 -0.504404 0.00644739)
(0.0257659 -0.503904 0.00519876)
(0.0293975 -0.492455 0.00198199)
(0.031863 -0.469717 -0.00382118)
(0.0328068 -0.43596 -0.0123998)
(0.0325064 -0.393722 -0.0225998)
(0.0317682 -0.345535 -0.0328675)
(0.0311387 -0.294028 -0.0425267)
(0.0305173 -0.244059 -0.0512213)
(0.0296548 -0.20055 -0.0579502)
(0.0286351 -0.163618 -0.0612101)
(0.0278323 -0.127503 -0.0587503)
(0.0280724 -0.083174 -0.0472266)
(0.0297566 -0.0275312 -0.0287246)
(0.0313893 0.0279483 -0.0132653)
(0.0316855 0.0714762 -0.0061109)
(0.0311794 0.0990837 -0.00500581)
(0.0305653 0.113267 -0.00622771)
(0.0300166 0.121323 -0.00785785)
(0.029389 0.126887 -0.00932276)
(0.0286425 0.13095 -0.0104076)
(0.0278067 0.133968 -0.01104)
(0.0268848 0.136386 -0.0112361)
(0.02588 0.138636 -0.0110647)
(0.024788 0.141154 -0.0106009)
(0.023546 0.144389 -0.00985251)
(0.022084 0.148796 -0.00881852)
(0.0204074 0.155121 -0.0074713)
(0.0181912 0.166558 -0.00527653)
(0.0134901 0.211215 -0.000345748)
(0.00712893 0.371034 0.00657668)
(0.000632988 0.449057 0.00703376)
(0.00352608 -0.314657 -0.00482106)
(0.0104282 -0.455035 0.005577)
(0.0145893 -0.478336 0.00737961)
(0.0177903 -0.476854 0.00690496)
(0.0206722 -0.462162 0.00486113)
(0.0226348 -0.432076 0.000245962)
(0.0229649 -0.384075 -0.00863903)
(0.0215149 -0.324288 -0.0220488)
(0.0189483 -0.266232 -0.0367333)
(0.0163357 -0.218293 -0.0486869)
(0.0144647 -0.179016 -0.0566646)
(0.013545 -0.143851 -0.0615147)
(0.0132855 -0.110858 -0.0642291)
(0.0131901 -0.0798367 -0.0650322)
(0.0129291 -0.0486548 -0.0631029)
(0.0124832 -0.0121381 -0.0560964)
(0.0122918 0.0346246 -0.0422187)
(0.0122461 0.0827822 -0.0274775)
(0.0117285 0.114405 -0.0192764)
(0.0114852 0.128644 -0.0167284)
(0.0115689 0.136581 -0.0160986)
(0.0118074 0.142157 -0.0160328)
(0.0120704 0.146093 -0.0160766)
(0.0122771 0.148779 -0.0159983)
(0.0123952 0.150644 -0.0156837)
(0.0123996 0.152147 -0.015117)
(0.0122826 0.153807 -0.014349)
(0.0120297 0.156195 -0.0134155)
(0.0116309 0.159957 -0.0122638)
(0.0111086 0.166174 -0.0108321)
(0.010467 0.177893 -0.00891581)
(0.00953831 0.207678 -0.00591011)
(0.00695868 0.301138 -0.000880231)
(0.00265849 0.448464 0.00406592)
(-0.00070904 0.479287 0.00335114)
(0.00376467 -0.34977 0.01175)
(0.0070023 -0.508125 0.0220189)
(0.00824742 -0.542633 0.0233674)
(0.0083741 -0.543952 0.0227975)
(0.00796683 -0.528524 0.0208999)
(0.00680556 -0.495818 0.016774)
(0.00486862 -0.446406 0.00844173)
(0.00269275 -0.38866 -0.00536714)
(0.000716894 -0.332769 -0.0226375)
(-0.000840647 -0.283547 -0.0392805)
(-0.00193659 -0.240152 -0.0525662)
(-0.00264542 -0.199818 -0.0617708)
(-0.00318376 -0.160906 -0.0670625)
(-0.00393471 -0.123114 -0.0686764)
(-0.00521332 -0.0851046 -0.0664081)
(-0.00691383 -0.0430457 -0.0592936)
(-0.00824285 0.0065401 -0.0470357)
(-0.00818956 0.0585472 -0.0338218)
(-0.00661861 0.0976087 -0.0255053)
(-0.0044073 0.118076 -0.0222023)
(-0.00231901 0.128634 -0.0210085)
(-0.000311906 0.136001 -0.0203674)
(0.00167631 0.142042 -0.019787)
(0.00342229 0.147017 -0.0191244)
(0.00488314 0.151187 -0.018308)
(0.00603403 0.154866 -0.0173284)
(0.00682944 0.158414 -0.0162187)
(0.00725132 0.162297 -0.0149308)
(0.00725385 0.166967 -0.0133931)
(0.00679298 0.17293 -0.0116094)
(0.00598887 0.181794 -0.00947404)
(0.00502323 0.201804 -0.00643076)
(0.00565 0.280219 -0.0011955)
(0.00597656 0.445014 0.00246329)
(0.00172201 0.475348 0.00213169)
(0.00147969 -0.383852 0.0182932)
(-0.00106167 -0.491408 0.0172171)
(-0.00408015 -0.500378 0.0151558)
(-0.0074944 -0.488826 0.0142903)
(-0.0113774 -0.459935 0.0139924)
(-0.0147826 -0.411584 0.0132738)
(-0.0171094 -0.348014 0.00963073)
(-0.0182689 -0.281153 0.00073098)
(-0.0187529 -0.222186 -0.0126978)
(-0.0190662 -0.174611 -0.0274697)
(-0.0194604 -0.135795 -0.0406452)
(-0.0200216 -0.10124 -0.0506721)
(-0.0208262 -0.0670129 -0.0570247)
(-0.0221004 -0.030939 -0.0594691)
(-0.0242227 0.00660817 -0.0576742)
(-0.0271017 0.0425064 -0.0517834)
(-0.0289644 0.0716766 -0.0440661)
(-0.0281954 0.0918924 -0.0378254)
(-0.0255092 0.105685 -0.0338305)
(-0.021839 0.115925 -0.031293)
(-0.0176933 0.124174 -0.0295261)
(-0.0134664 0.131082 -0.0281173)
(-0.00935218 0.13701 -0.0268782)
(-0.00535105 0.142254 -0.0257083)
(-0.00146266 0.147091 -0.0245626)
(0.00228854 0.151827 -0.0234395)
(0.00587289 0.156819 -0.0223542)
(0.00927299 0.162478 -0.0213076)
(0.0124038 0.169269 -0.0203333)
(0.014989 0.177727 -0.019441)
(0.0165625 0.188724 -0.0184056)
(0.0165771 0.206802 -0.0160243)
(0.00937751 0.280645 -0.00720422)
(0.00380753 0.472676 0.00275179)
(5.70291e-05 0.502401 0.00301598)
(-0.00191568 -0.365973 0.0225234)
(-0.00882659 -0.49545 0.0197903)
(-0.0150545 -0.516506 0.0182623)
(-0.020831 -0.513662 0.019069)
(-0.026576 -0.496803 0.0222466)
(-0.0310573 -0.465896 0.0271975)
(-0.0336212 -0.421093 0.0313143)
(-0.0345202 -0.366137 0.0305059)
(-0.0347277 -0.30755 0.0221931)
(-0.0351578 -0.250637 0.00752605)
(-0.0363085 -0.197917 -0.0092508)
(-0.0381844 -0.149324 -0.0232241)
(-0.0402599 -0.102411 -0.0316796)
(-0.0417581 -0.0549083 -0.0348378)
(-0.0419257 -0.00872482 -0.0344537)
(-0.0403551 0.0296413 -0.032477)
(-0.0374348 0.0553562 -0.0304809)
(-0.0339079 0.0713143 -0.0289564)
(-0.0301159 0.0825303 -0.0277849)
(-0.0261422 0.0915123 -0.0267775)
(-0.0221325 0.0991624 -0.025822)
(-0.0182164 0.10581 -0.0248539)
(-0.0144513 0.111646 -0.0238312)
(-0.0108624 0.116838 -0.0227267)
(-0.00747264 0.121574 -0.0215282)
(-0.00430105 0.1261 -0.0202346)
(-0.00135624 0.130783 -0.0188481)
(0.00137945 0.136244 -0.0173664)
(0.00394348 0.143713 -0.0157691)
(0.00639093 0.156317 -0.0139616)
(0.00847189 0.184372 -0.0119738)
(0.0100147 0.257894 -0.0111153)
(0.00233541 0.395458 -0.010647)
(-0.00492215 0.514528 -0.00313635)
(-0.00270477 0.504265 -0.00224452)
(-0.00448637 -0.332778 0.0163295)
(-0.011755 -0.432261 0.00508289)
(-0.0177298 -0.446127 0.00132424)
(-0.0233088 -0.442292 0.00150608)
(-0.0289086 -0.42649 0.00518224)
(-0.0334837 -0.397542 0.0127506)
(-0.0364799 -0.354002 0.0235816)
(-0.037674 -0.29762 0.0347048)
(-0.0374145 -0.234201 0.0413863)
(-0.0363757 -0.17006 0.039862)
(-0.035168 -0.110058 0.0298328)
(-0.0343668 -0.0596152 0.0154479)
(-0.0342263 -0.0230748 0.00284417)
(-0.0341794 0.00121922 -0.00520542)
(-0.0336565 0.0192957 -0.00969122)
(-0.0325337 0.0355301 -0.0120092)
(-0.0309228 0.050745 -0.0132454)
(-0.0289904 0.0642435 -0.0139507)
(-0.0269536 0.0758311 -0.0143765)
(-0.0249129 0.0859242 -0.0146032)
(-0.0229188 0.0950362 -0.0146545)
(-0.0210229 0.103537 -0.0145336)
(-0.0192909 0.111664 -0.0142346)
(-0.0178009 0.119605 -0.0137464)
(-0.0166395 0.127555 -0.0130505)
(-0.0158985 0.135736 -0.0121112)
(-0.0156859 0.144353 -0.0108592)
(-0.0161294 0.15351 -0.00917337)
(-0.017294 0.163493 -0.00688691)
(-0.0188885 0.176515 -0.00382228)
(-0.0201506 0.202071 4.71184e-05)
(-0.0167975 0.271487 0.00368555)
(-0.00190498 0.44069 0.00174963)
(0.00376751 0.532437 -0.00605843)
(0.00209701 0.490262 -0.00452166)
(-0.00382171 -0.303526 0.00714278)
(-0.00879065 -0.436659 -0.00870876)
(-0.0126885 -0.4637 -0.0149422)
(-0.0160475 -0.469756 -0.0174587)
(-0.019475 -0.467102 -0.0177137)
(-0.0224791 -0.457213 -0.0153177)
(-0.0245741 -0.438744 -0.00913988)
(-0.025057 -0.408492 0.00199547)
(-0.0232003 -0.365003 0.0173757)
(-0.0189633 -0.311205 0.0335786)
(-0.0129049 -0.251133 0.0463053)
(-0.00578562 -0.188045 0.0521711)
(0.00142935 -0.126067 0.0502629)
(0.00766623 -0.0705289 0.0427642)
(0.0121975 -0.0256611 0.0331573)
(0.014845 0.00708511 0.0242183)
(0.0156017 0.0294587 0.01709)
(0.0150644 0.044859 0.0119179)
(0.014034 0.0566776 0.00825118)
(0.0131156 0.0669585 0.00553912)
(0.0126682 0.0764999 0.00337897)
(0.0128348 0.0856282 0.00156791)
(0.0135955 0.0946314 9.84072e-06)
(0.0148776 0.103798 -0.00136114)
(0.0165883 0.113399 -0.00259874)
(0.0186158 0.123728 -0.00374847)
(0.0208085 0.135142 -0.00485296)
(0.0229815 0.148054 -0.00595157)
(0.0247424 0.162193 -0.00699777)
(0.0247339 0.173012 -0.00746785)
(0.0230705 0.173266 -0.0063731)
(0.020798 0.161301 -0.00215109)
(0.0154522 0.233036 0.0138781)
(0.0160087 0.486182 0.0232136)
(0.00736016 0.507021 0.020816)
(-0.0015523 -0.278552 -0.00572428)
(-0.000880469 -0.388305 -0.0209072)
(0.000143929 -0.409944 -0.0269095)
(0.00101757 -0.411833 -0.0310326)
(0.00157837 -0.40399 -0.0349692)
(0.00163006 -0.388861 -0.038741)
(0.00119322 -0.369473 -0.0414796)
(0.000635695 -0.348549 -0.0416471)
(0.000615825 -0.325815 -0.0374423)
(0.00190789 -0.298486 -0.0274989)
(0.00504803 -0.264552 -0.0120256)
(0.0100425 -0.224175 0.00671734)
(0.0165701 -0.178297 0.0252964)
(0.0241141 -0.128215 0.040304)
(0.0319372 -0.0766135 0.0494824)
(0.0391051 -0.0276486 0.0524134)
(0.044853 0.0143594 0.0500707)
(0.0485674 0.0452844 0.0441372)
(0.0499037 0.0631834 0.0369375)
(0.0494802 0.0713109 0.0303759)
(0.0481257 0.0748823 0.0249584)
(0.0464653 0.0770557 0.0205235)
(0.0452029 0.0790598 0.0168365)
(0.0448171 0.0814361 0.0136685)
(0.0454508 0.0846238 0.0108065)
(0.0471494 0.0890891 0.00808698)
(0.0499028 0.0954642 0.005376)
(0.0534414 0.104783 0.0025136)
(0.0571248 0.119253 -0.000801909)
(0.0592319 0.147327 -0.005546)
(0.05729 0.210107 -0.0153057)
(0.0454305 0.292186 -0.0282476)
(0.0113469 0.384274 -0.0151815)
(-0.00301877 0.551794 0.0100784)
(-0.00250463 0.56492 0.0110809)
(-0.000636502 -0.289125 -0.00904365)
(0.0026302 -0.433575 -0.0154394)
(0.00609265 -0.46448 -0.0187579)
(0.00941792 -0.46976 -0.0222899)
(0.0126457 -0.464214 -0.027046)
(0.0152982 -0.450107 -0.0334542)
(0.0169238 -0.428992 -0.041075)
(0.0173568 -0.403719 -0.0485934)
(0.016812 -0.377383 -0.0543654)
(0.0158711 -0.351054 -0.0569056)
(0.0153081 -0.323288 -0.054902)
(0.0158541 -0.291846 -0.0473456)
(0.0178806 -0.255569 -0.0341706)
(0.0213048 -0.214714 -0.0167514)
(0.0257423 -0.170157 0.00245805)
(0.0306795 -0.122903 0.0207841)
(0.0356252 -0.0740123 0.0361524)
(0.040063 -0.0252049 0.0473392)
(0.0431257 0.0205872 0.0538181)
(0.0438283 0.0584977 0.0552678)
(0.0415771 0.083096 0.0524246)
(0.0368764 0.095026 0.0474949)
(0.0303046 0.0994818 0.0423419)
(0.0222186 0.10067 0.0379238)
(0.013397 0.101098 0.0345999)
(0.00445761 0.102403 0.0322474)
(-0.00449705 0.106359 0.0305732)
(-0.0137676 0.116643 0.0290497)
(-0.0236483 0.144743 0.0257039)
(-0.0326544 0.216864 0.0154951)
(-0.033384 0.356086 -0.00606783)
(-0.025232 0.529313 -0.0305304)
(-0.0229765 0.635328 -0.0370802)
(-0.0199507 0.646128 -0.0284767)
(-0.00791448 0.546604 -0.0189421)
(0.00234638 -0.289664 -0.00810937)
(0.00809556 -0.415918 -0.00718871)
(0.0117937 -0.441736 -0.00972431)
(0.0150536 -0.44247 -0.0141776)
(0.0182604 -0.429981 -0.0211528)
(0.0208101 -0.405635 -0.031037)
(0.0222007 -0.372713 -0.042617)
(0.0225318 -0.337302 -0.0536959)
(0.0221398 -0.30522 -0.062513)
(0.0213038 -0.279333 -0.068329)
(0.0203134 -0.258894 -0.0711504)
(0.0195054 -0.240898 -0.0709797)
(0.019269 -0.221439 -0.0672017)
(0.0200327 -0.196636 -0.0586915)
(0.0219655 -0.164609 -0.0452288)
(0.0247062 -0.126979 -0.0285896)
(0.0276912 -0.0870451 -0.011371)
(0.0306443 -0.0469155 0.00460486)
(0.0337018 -0.00640392 0.0187883)
(0.0367328 0.0353797 0.0310296)
(0.0388825 0.0781375 0.0409752)
(0.0388394 0.117224 0.0472635)
(0.0356078 0.147323 0.049383)
(0.0293739 0.167723 0.0485739)
(0.0208264 0.181639 0.0465468)
(0.0105064 0.192731 0.0444127)
(-0.00125748 0.203847 0.0426594)
(-0.0142393 0.21741 0.0413128)
(-0.026751 0.230184 0.0407071)
(-0.0340735 0.236896 0.0425607)
(-0.0341425 0.24207 0.0497737)
(-0.023327 0.266524 0.0557523)
(-0.00226726 0.357563 0.0454963)
(0.0122491 0.493855 0.0239963)
(0.00880453 0.446702 0.0191217)
(0.00345711 -0.337917 0.00467335)
(0.00784217 -0.473887 0.0121078)
(0.00994743 -0.499058 0.00913362)
(0.0116434 -0.497534 0.00239858)
(0.0136295 -0.48088 -0.00886331)
(0.0156029 -0.451318 -0.0243122)
(0.0172525 -0.415437 -0.0405278)
(0.0187557 -0.379657 -0.0543915)
(0.020368 -0.346637 -0.064974)
(0.0220649 -0.317212 -0.0724146)
(0.0236691 -0.29168 -0.0770737)
(0.0251004 -0.269669 -0.0793172)
(0.0264799 -0.24993 -0.0793305)
(0.0280985 -0.230248 -0.0768175)
(0.0303894 -0.207319 -0.0707287)
(0.0337558 -0.177577 -0.0598542)
(0.0380576 -0.140449 -0.0449688)
(0.0426032 -0.100019 -0.0292444)
(0.0469026 -0.060827 -0.0153255)
(0.0512031 -0.0237606 -0.00355508)
(0.0563695 0.0136419 0.00717301)
(0.0626857 0.0531024 0.0172902)
(0.069091 0.0919212 0.0256561)
(0.0748113 0.124756 0.0306474)
(0.0795936 0.149633 0.0321413)
(0.0836902 0.16819 0.031102)
(0.0874802 0.183289 0.0288864)
(0.0894973 0.193732 0.0275526)
(0.0882875 0.192432 0.0303128)
(0.084562 0.170649 0.0409313)
(0.0715044 0.165932 0.0542979)
(0.0551689 0.188912 0.0433973)
(0.0313081 0.243792 0.0377006)
(0.022869 0.478921 0.0661243)
(0.0106909 0.543701 0.0572684)
(0.00283416 -0.36304 0.0261312)
(0.00293779 -0.469474 0.0323251)
(0.00167421 -0.484697 0.0270995)
(0.000309832 -0.476722 0.0180548)
(-0.000502207 -0.450295 0.00314738)
(9.47713e-05 -0.408148 -0.0165963)
(0.00206822 -0.362409 -0.0358234)
(0.00488367 -0.322287 -0.0509789)
(0.00801331 -0.289732 -0.0618262)
(0.0110708 -0.263693 -0.0692086)
(0.0138109 -0.242597 -0.0739314)
(0.0161164 -0.224987 -0.0765615)
(0.0179785 -0.209572 -0.0774286)
(0.0195011 -0.195084 -0.0765932)
(0.0209111 -0.17991 -0.0736677)
(0.0225678 -0.161575 -0.0674741)
(0.024961 -0.137008 -0.0564088)
(0.0282583 -0.106187 -0.0412802)
(0.0318834 -0.074104 -0.0259001)
(0.0352576 -0.0447037 -0.0126623)
(0.0381411 -0.0175078 -0.00110997)
(0.0411643 0.0102285 0.0103224)
(0.0451476 0.0397648 0.0223156)
(0.0499589 0.0679424 0.0334673)
(0.0545775 0.0899053 0.0413718)
(0.058342 0.105096 0.0453674)
(0.0605108 0.122883 0.0425901)
(0.0617414 0.169663 0.0237463)
(0.0616994 0.256956 -0.0124483)
(0.0559846 0.36088 -0.0531041)
(0.0408646 0.427877 -0.0716628)
(0.0220423 0.461665 -0.0653698)
(-0.00140739 0.515279 -0.0301151)
(-0.00942293 0.629762 0.0112878)
(-0.00752946 0.634822 0.0137896)
(-0.00275444 -0.388659 0.0430218)
(-0.00786156 -0.50632 0.0436916)
(-0.0114645 -0.524548 0.0364607)
(-0.0139974 -0.519421 0.0276965)
(-0.0150647 -0.49815 0.0165502)
(-0.0131632 -0.464268 0.00400719)
(-0.00843019 -0.42486 -0.0085131)
(-0.00218937 -0.384619 -0.0206419)
(0.00412899 -0.345733 -0.0321829)
(0.00940677 -0.309816 -0.0425448)
(0.013084 -0.277982 -0.0510796)
(0.015151 -0.250398 -0.0574134)
(0.0159322 -0.226381 -0.0615309)
(0.0157818 -0.204826 -0.0636006)
(0.0149452 -0.184448 -0.0637173)
(0.0135945 -0.16369 -0.0616622)
(0.0118985 -0.140536 -0.0567155)
(0.0101252 -0.112997 -0.0479388)
(0.0085102 -0.0814142 -0.0357468)
(0.00695745 -0.0494081 -0.0225346)
(0.00531058 -0.019703 -0.0100677)
(0.0035601 0.00866261 0.00197866)
(0.00138029 0.0385808 0.0149656)
(-0.00153339 0.0721071 0.0298454)
(-0.00565082 0.108824 0.0457673)
(-0.0123543 0.147531 0.0595536)
(-0.0219258 0.188685 0.0644162)
(-0.0296468 0.236934 0.0528482)
(-0.0302561 0.305483 0.0246114)
(-0.0239983 0.400039 -0.014501)
(-0.0174548 0.498892 -0.0516151)
(-0.01559 0.563758 -0.0657296)
(-0.0164393 0.596885 -0.0506642)
(-0.0144403 0.610927 -0.0305801)
(-0.00524866 0.523268 -0.0157259)
(-0.00610777 -0.345892 0.0399739)
(-0.0107616 -0.475368 0.035888)
(-0.0124264 -0.506449 0.0310744)
(-0.0122984 -0.514647 0.0281509)
(-0.0104713 -0.510711 0.0265007)
(-0.00639262 -0.49455 0.0250034)
(0.000184305 -0.464537 0.0219891)
(0.00874498 -0.421581 0.0161747)
(0.0181831 -0.369759 0.00711945)
(0.0270797 -0.315093 -0.00471056)
(0.0339463 -0.264285 -0.0179313)
(0.0377919 -0.222526 -0.0304454)
(0.0388531 -0.190631 -0.0404837)
(0.0381638 -0.165721 -0.04751)
(0.0366157 -0.14437 -0.0517725)
(0.0347378 -0.124097 -0.0535803)
(0.0328417 -0.103356 -0.0530612)
(0.0311644 -0.0812401 -0.0502081)
(0.0299125 -0.0573511 -0.0450855)
(0.0291998 -0.0320249 -0.0381918)
(0.0290123 -0.00627248 -0.0304776)
(0.029167 0.0191967 -0.0227059)
(0.0294634 0.0449072 -0.0149818)
(0.0298791 0.0723661 -0.00690914)
(0.03042 0.103247 0.00192419)
(0.0305641 0.136716 0.0109521)
(0.0287388 0.16317 0.0198854)
(0.0251153 0.173947 0.0338234)
(0.0201583 0.181044 0.0575784)
(0.0138386 0.223915 0.0759912)
(0.0120757 0.315343 0.0715699)
(0.0145077 0.432012 0.04732)
(0.0160378 0.500249 0.0217323)
(0.0147592 0.539852 0.0135896)
(0.00863771 0.481631 0.0169312)
(-0.0066658 -0.327302 0.0219705)
(-0.00749981 -0.501248 0.00947155)
(-0.00545245 -0.553478 0.00523556)
(-0.00226962 -0.575332 0.00490599)
(0.00120808 -0.584307 0.00644705)
(0.00496567 -0.582902 0.00908419)
(0.00942977 -0.569736 0.0124374)
(0.0152333 -0.541434 0.0161042)
(0.0228954 -0.495307 0.0191486)
(0.0323315 -0.431725 0.0197801)
(0.0424243 -0.355507 0.0154372)
(0.0506689 -0.279225 0.00451858)
(0.0548302 -0.217692 -0.0101514)
(0.0552324 -0.174562 -0.023547)
(0.0536558 -0.144283 -0.0333622)
(0.0514846 -0.120722 -0.0396437)
(0.0494361 -0.100008 -0.0429147)
(0.0478691 -0.0800515 -0.0435317)
(0.0469602 -0.0599484 -0.0417587)
(0.0467384 -0.0397151 -0.0380256)
(0.0470568 -0.0198305 -0.0329972)
(0.0478463 -0.000453611 -0.0272676)
(0.049194 0.0190711 -0.0210271)
(0.0511732 0.0401618 -0.0139574)
(0.0536441 0.0653198 -0.00522503)
(0.0561793 0.0992144 0.00718143)
(0.0577198 0.156042 0.0182286)
(0.0550891 0.2355 0.00758114)
(0.0420147 0.291724 -0.0038795)
(0.025426 0.323304 0.00474264)
(0.012433 0.360471 0.0240997)
(0.00712633 0.428348 0.0430402)
(0.00590036 0.527586 0.0511873)
(0.00576827 0.625301 0.0485276)
(0.00166814 0.576674 0.0356336)
(-0.00197001 -0.296353 -0.00401914)
(0.00337112 -0.484985 -0.0247346)
(0.00935113 -0.547767 -0.0302248)
(0.015141 -0.570028 -0.0324356)
(0.0200235 -0.576114 -0.0340674)
(0.0236503 -0.572268 -0.0356174)
(0.0257673 -0.56065 -0.036627)
(0.0266312 -0.541989 -0.0356366)
(0.0270823 -0.514525 -0.030513)
(0.0285267 -0.47208 -0.0197225)
(0.0324035 -0.404932 -0.00491311)
(0.0385762 -0.311217 0.005553)
(0.0437105 -0.214703 0.00267613)
(0.0450106 -0.142842 -0.00946288)
(0.0432307 -0.0985732 -0.0217869)
(0.0400641 -0.0713244 -0.0306996)
(0.0364452 -0.0520816 -0.0362957)
(0.0327925 -0.036116 -0.0391889)
(0.0293215 -0.0212347 -0.0397365)
(0.0260895 -0.00640005 -0.0381328)
(0.0230997 0.00889713 -0.0345314)
(0.0202587 0.0250487 -0.0290272)
(0.0173388 0.0428681 -0.0214519)
(0.0141304 0.0641918 -0.0110994)
(0.0104449 0.0931447 0.00330689)
(0.00638087 0.138989 0.0219505)
(0.00310527 0.218741 0.0351775)
(0.00460904 0.334151 0.0191279)
(0.00738592 0.433779 -0.019351)
(0.00496098 0.47344 -0.0401827)
(0.000285211 0.484188 -0.0337582)
(-0.00372797 0.505759 -0.00976924)
(-0.00514523 0.566767 0.0240018)
(-0.00315315 0.625295 0.036062)
(-0.00117428 0.569676 0.0280389)
(0.00138277 -0.326943 -0.0216072)
(0.00981642 -0.529758 -0.0269372)
(0.0183182 -0.593131 -0.0223574)
(0.0257944 -0.610415 -0.0213056)
(0.0327259 -0.609481 -0.0236863)
(0.0387776 -0.595915 -0.0299276)
(0.0428881 -0.571064 -0.0402959)
(0.0441869 -0.538503 -0.0531188)
(0.0426019 -0.50498 -0.0639657)
(0.0391828 -0.473659 -0.0673512)
(0.0355869 -0.436359 -0.058025)
(0.0345175 -0.371476 -0.0346897)
(0.0367845 -0.27309 -0.0140036)
(0.0384919 -0.176214 -0.0110668)
(0.0380634 -0.106944 -0.0191343)
(0.0366621 -0.063598 -0.0283682)
(0.0351198 -0.0357768 -0.0353199)
(0.0336915 -0.0155674 -0.0399234)
(0.032391 0.00144856 -0.0426849)
(0.0311575 0.0175673 -0.0439044)
(0.0298601 0.0339492 -0.0436727)
(0.0283726 0.0511452 -0.0419875)
(0.0266317 0.0695395 -0.0387863)
(0.0245761 0.0894003 -0.0338775)
(0.0222004 0.110428 -0.0269647)
(0.0197803 0.131997 -0.0177645)
(0.0180392 0.156672 -0.00594385)
(0.0185107 0.196926 0.0062962)
(0.0219223 0.269306 0.010629)
(0.0264144 0.361784 -0.000566443)
(0.0267253 0.429613 -0.0197736)
(0.0225212 0.471139 -0.0205309)
(0.0155116 0.531152 0.00141978)
(0.0107097 0.580082 0.0184231)
(0.00714949 0.533129 0.021319)
(0.00275029 -0.337508 -0.0223473)
(0.0113966 -0.544581 0.00666492)
(0.0198921 -0.610942 0.0250562)
(0.0270722 -0.627237 0.0302209)
(0.0334412 -0.621769 0.0275308)
(0.0389672 -0.59809 0.0171959)
(0.0426163 -0.556099 -0.000332382)
(0.0439523 -0.499582 -0.0233286)
(0.0429494 -0.438789 -0.048224)
(0.0398544 -0.386541 -0.0682604)
(0.0354245 -0.344621 -0.077874)
(0.0305823 -0.300113 -0.0721292)
(0.0282427 -0.231 -0.0523496)
(0.0287787 -0.147668 -0.038548)
(0.0295264 -0.082705 -0.0375381)
(0.030339 -0.042996 -0.0412848)
(0.0314722 -0.0190167 -0.0450188)
(0.0328478 -0.00209232 -0.047918)
(0.0344573 0.0124653 -0.050067)
(0.0363863 0.0266487 -0.0515152)
(0.0386107 0.0409976 -0.0522716)
(0.0410977 0.0557598 -0.052396)
(0.0437756 0.0714065 -0.0519519)
(0.0464708 0.0887864 -0.0508995)
(0.0488245 0.109846 -0.0489219)
(0.0501119 0.139757 -0.0451473)
(0.0483352 0.186001 -0.0401369)
(0.0424596 0.237991 -0.0321047)
(0.0361958 0.292458 -0.0190962)
(0.0326566 0.361723 -0.00411491)
(0.0315794 0.452943 -0.00366238)
(0.025215 0.526211 -0.0172416)
(0.0137964 0.596918 -0.011935)
(0.00640394 0.637512 -0.00194434)
(0.00271317 0.591793 0.00317548)
(0.00361657 -0.384215 -0.00587286)
(0.0146344 -0.613195 0.0375013)
(0.0217195 -0.678979 0.0512226)
(0.0265382 -0.689804 0.0503835)
(0.0294966 -0.671935 0.0384266)
(0.0299297 -0.626574 0.0153727)
(0.0273458 -0.564527 -0.00901261)
(0.0237159 -0.496785 -0.0289915)
(0.0206088 -0.428193 -0.0470196)
(0.0179828 -0.366294 -0.0631551)