/*--------------------------------*- C++ -*----------------------------------*\
| =========                 |                                                 |
| \\      /  F ield         | OpenFOAM: The Open Source CFD Toolbox           |
|  \\    /   O peration     | Version:  v1912                                 |
|   \\  /    A nd           | Website:  www.openfoam.com                      |
|    \\/     M anipulation  |                                                 |
\*---------------------------------------------------------------------------*/
FoamFile
{
    version     2.0;
    format      ascii;
    class       surfaceScalarField;
    location    "28/oil";
    object      phi;
}
// * * * * * * * * * * * * * * * * * * * * * * * * * * * * * * * * * * * * * //

dimensions      [1 0 -1 0 0 0 0];
oriented        oriented;


internalField   nonuniform List<scalar> 
104676
(
-5.32761e-12
1.47191e-11
-7.09362e-12
1.55912e-10
-1.28808e-10
-3.25215e-11
4.84648e-10
-2.3989e-10
-8.88339e-11
9.29792e-10
-2.92181e-10
-1.52968e-10
1.42588e-09
-2.98662e-10
-1.97417e-10
1.90782e-09
-2.71937e-10
-2.09988e-10
2.31695e-09
-2.21754e-10
-1.87354e-10
2.60425e-09
-1.55316e-10
-1.31961e-10
2.73147e-09
-7.81557e-11
-4.90261e-11
2.67803e-09
2.81596e-12
5.06668e-11
2.4336e-09
8.62776e-11
1.58201e-10
2.01511e-09
1.54527e-10
2.64019e-10
1.44439e-09
2.16597e-10
3.54185e-10
7.62371e-10
2.61603e-10
4.20497e-10
2.1173e-11
2.85449e-10
4.55836e-10
-7.22554e-10
2.86836e-10
4.56978e-10
-1.40708e-09
2.62179e-10
4.22436e-10
-1.9811e-09
2.16939e-10
3.57153e-10
-2.40494e-09
1.56162e-10
2.67756e-10
-2.65387e-09
8.51055e-11
1.63893e-10
-2.71546e-09
4.2397e-12
5.74101e-11
-2.59268e-09
-7.88966e-11
-4.38318e-11
-2.30922e-09
-1.55776e-10
-1.27622e-10
-1.90328e-09
-2.22199e-10
-1.83705e-10
-1.42407e-09
-2.72269e-10
-2.06906e-10
-9.30131e-10
-2.99667e-10
-1.94249e-10
-4.86205e-10
-2.94175e-10
-1.49736e-10
-1.57686e-10
-2.42714e-10
-8.57973e-11
4.33588e-12
-1.31979e-10
-3.00449e-11
1.03185e-11
-5.98102e-12
1.58861e-10
-3.02943e-10
1.58723e-10
6.09618e-10
-9.04255e-10
3.24668e-10
1.32437e-09
-1.35617e-09
4.01528e-10
2.22335e-09
-1.63089e-09
4.39738e-10
3.19856e-09
-1.76216e-09
4.88308e-10
4.13396e-09
-1.78288e-09
5.7557e-10
4.92005e-09
-1.72091e-09
7.13118e-10
5.46208e-09
-1.59814e-09
9.00844e-10
5.68627e-09
-1.43286e-09
1.13058e-09
5.5453e-09
-1.24148e-09
1.38534e-09
5.01701e-09
-1.04018e-09
1.65483e-09
4.13058e-09
-8.63855e-10
1.9049e-09
2.95222e-09
-7.08663e-10
2.10372e-09
1.55646e-09
-5.96288e-10
2.25377e-09
4.28519e-11
-5.37378e-10
2.33656e-09
-1.47705e-09
-5.375e-10
2.34436e-09
-2.87785e-09
-5.98264e-10
2.26136e-09
-4.05924e-09
-7.12181e-10
2.11062e-09
-4.94078e-09
-8.67384e-10
1.90519e-09
-5.47343e-09
-1.04696e-09
1.66481e-09
-5.6258e-09
-1.24545e-09
1.40215e-09
-5.41216e-09
-1.4355e-09
1.14305e-09
-4.88217e-09
-1.59931e-09
9.13625e-10
-4.10859e-09
-1.7218e-09
7.26091e-10
-3.18365e-09
-1.78464e-09
5.87488e-10
-2.21762e-09
-1.76523e-09
4.99582e-10
-1.3247e-09
-1.63687e-09
4.498e-10
-6.11411e-10
-1.36482e-09
4.0884e-10
-1.59371e-10
-9.12156e-10
3.28146e-10
-3.07948e-10
1.58908e-10
3.3198e-10
-9.69855e-10
3.34947e-10
1.05321e-09
-2.34055e-09
7.15049e-10
2.06354e-09
-3.31722e-09
9.50729e-10
3.26343e-09
-3.95318e-09
1.12242e-09
4.52889e-09
-4.31787e-09
1.29027e-09
5.72353e-09
-4.46843e-09
1.49095e-09
6.71422e-09
-4.45372e-09
1.74218e-09
7.38299e-09
-4.31383e-09
2.04698e-09
7.63778e-09
-4.08513e-09
2.39756e-09
7.41967e-09
-3.7981e-09
2.77481e-09
6.69969e-09
-3.48582e-09
3.16572e-09
5.50822e-09
-3.19056e-09
3.51829e-09
3.93145e-09
-2.9315e-09
3.79974e-09
2.07093e-09
-2.74222e-09
4.00658e-09
5.56167e-11
-2.64446e-09
4.12254e-09
-1.96988e-09
-2.64876e-09
4.13691e-09
-3.83781e-09
-2.7476e-09
4.01741e-09
-5.41734e-09
-2.93734e-09
3.80482e-09
-6.60511e-09
-3.19409e-09
3.5146e-09
-7.33819e-09
-3.49178e-09
3.17802e-09
-7.57241e-09
-3.80335e-09
2.79223e-09
-7.33053e-09
-4.08845e-09
2.41118e-09
-6.67495e-09
-4.31633e-09
2.06152e-09
-5.69756e-09
-4.45564e-09
1.75652e-09
-4.515e-09
-4.47167e-09
1.50454e-09
-3.25828e-09
-4.32431e-09
1.30241e-09
-2.06443e-09
-3.96294e-09
1.13226e-09
-1.05627e-09
-3.32967e-09
9.56725e-10
-3.33682e-10
-2.35104e-09
7.16315e-10
-9.75998e-10
3.34383e-10
4.74806e-10
-1.92503e-09
4.80374e-10
1.42305e-09
-4.32345e-09
1.03467e-09
2.67266e-09
-5.96448e-09
1.39767e-09
4.10147e-09
-7.05912e-09
1.67716e-09
5.57317e-09
-7.73458e-09
1.94505e-09
6.94104e-09
-8.07814e-09
2.2419e-09
8.061e-09
-8.16195e-09
2.58835e-09
8.80409e-09
-8.0454e-09
2.98857e-09
9.06566e-09
-7.78227e-09
3.43567e-09
8.77778e-09
-7.4218e-09
3.9117e-09
7.90646e-09
-7.01367e-09
4.39929e-09
6.49264e-09
-6.60653e-09
4.82993e-09
4.63016e-09
-6.25181e-09
5.18293e-09
2.43713e-09
-5.97821e-09
5.42918e-09
6.34858e-11
-5.83859e-09
5.56796e-09
-2.32358e-09
-5.84805e-09
5.58652e-09
-4.52613e-09
-5.9839e-09
5.43902e-09
-6.39291e-09
-6.24959e-09
5.17918e-09
-7.80436e-09
-6.60582e-09
4.82333e-09
-8.68776e-09
-7.01448e-09
4.40624e-09
-8.99138e-09
-7.42291e-09
3.92331e-09
-8.7444e-09
-7.7829e-09
3.44759e-09
-8.01655e-09
-8.04626e-09
3.0022e-09
-6.91047e-09
-8.16325e-09
2.60163e-09
-5.55569e-09
-8.08161e-09
2.25524e-09
-4.09507e-09
-7.74198e-09
1.95711e-09
-2.67254e-09
-7.07138e-09
1.68596e-09
-1.42589e-09
-5.97697e-09
1.4007e-09
-4.78129e-10
-4.32914e-09
1.03037e-09
-1.93287e-09
4.78762e-10
5.82432e-10
-3.09505e-09
5.87621e-10
1.70563e-09
-6.7146e-09
1.268e-09
3.14253e-09
-9.12738e-09
1.72603e-09
4.74794e-09
-1.07497e-08
2.08519e-09
6.37421e-09
-1.1789e-08
2.42816e-09
7.86746e-09
-1.23718e-08
2.80045e-09
9.07774e-09
-1.2596e-08
3.22384e-09
9.86908e-09
-1.25409e-08
3.70424e-09
1.01321e-08
-1.22778e-08
4.23266e-09
9.79183e-09
-1.18734e-08
4.79195e-09
8.812e-09
-1.13961e-08
5.36242e-09
7.23492e-09
-1.09057e-08
5.87636e-09
5.15531e-09
-1.04651e-08
6.29308e-09
2.71173e-09
-1.0107e-08
6.57253e-09
6.8739e-11
-9.92562e-09
6.73021e-09
-2.58994e-09
-9.93867e-09
6.74949e-09
-5.04112e-09
-1.01145e-08
6.58192e-09
-7.12155e-09
-1.04504e-08
6.28144e-09
-8.70221e-09
-1.09001e-08
5.87515e-09
-9.69564e-09
-1.13936e-08
5.37274e-09
-1.00524e-08
-1.18719e-08
4.8059e-09
-9.80547e-09
-1.2277e-08
4.24727e-09
-9.0293e-09
-1.25414e-08
3.71914e-09
-7.83289e-09
-1.25979e-08
3.2384e-09
-6.35271e-09
-1.23758e-08
2.81414e-09
-4.73824e-09
-1.17963e-08
2.43993e-09
-3.14128e-09
-1.07613e-08
2.09305e-09
-1.70741e-09
-9.1381e-09
1.72732e-09
-5.85371e-10
-6.7125e-09
1.26136e-09
-3.10448e-09
5.86272e-10
6.54645e-10
-4.41048e-09
6.60835e-10
1.90199e-09
-9.38553e-09
1.42364e-09
3.47502e-09
-1.26474e-08
1.94706e-09
5.20857e-09
-1.48463e-08
2.36316e-09
6.94636e-09
-1.62875e-08
2.76085e-09
8.52979e-09
-1.71463e-08
3.19114e-09
9.80555e-09
-1.75487e-08
3.67704e-09
1.06338e-08
-1.75948e-08
4.22578e-09
1.0901e-08
-1.73723e-08
4.82736e-09
1.05296e-08
-1.69633e-08
5.46149e-09
9.48132e-09
-1.64515e-08
6.10383e-09
7.78488e-09
-1.5919e-08
6.70992e-09
5.54462e-09
-1.54173e-08
7.19262e-09
2.91463e-09
-1.49809e-08
7.5041e-09
7.01735e-11
-1.47527e-08
7.67178e-09
-2.79135e-09
-1.4767e-08
7.69007e-09
-5.42387e-09
-1.5e-08
7.51827e-09
-7.66073e-09
-1.53911e-08
7.17767e-09
-9.36447e-09
-1.59099e-08
6.71368e-09
-1.04286e-08
-1.64481e-08
6.11876e-09
-1.08182e-08
-1.6961e-08
5.47898e-09
-1.05681e-08
-1.73719e-08
4.845e-09
-9.75555e-09
-1.75968e-08
4.24293e-09
-8.49399e-09
-1.75525e-08
3.69317e-09
-6.92286e-09
-1.71521e-08
3.20526e-09
-5.19628e-09
-1.62956e-08
2.77279e-09
-3.47181e-09
-1.48563e-08
2.37053e-09
-1.90414e-09
-1.26527e-08
1.94701e-09
-6.58056e-10
-9.37545e-09
1.41693e-09
-4.42281e-09
6.6031e-10
6.90931e-10
-5.80722e-09
7.05859e-10
2.01467e-09
-1.22339e-08
1.5247e-09
3.6736e-09
-1.63887e-08
2.08247e-09
5.48672e-09
-1.91894e-08
2.53004e-09
7.29313e-09
-2.10587e-08
2.96488e-09
8.93257e-09
-2.22241e-08
3.43847e-09
1.02511e-08
-2.2842e-08
3.9749e-09
1.11062e-08
-2.30326e-08
4.58285e-09
1.13825e-08
-2.28991e-08
5.25066e-09
1.09981e-08
-2.25348e-08
5.95606e-09
9.91366e-09
-2.20378e-08
6.67088e-09
8.13869e-09
-2.15037e-08
7.35984e-09
5.79916e-09
-2.09897e-08
7.91212e-09
3.04782e-09
-2.04825e-08
8.25313e-09
7.47475e-11
-2.02118e-08
8.43233e-09
-2.91292e-09
-2.02339e-08
8.4548e-09
-5.67611e-09
-2.052e-08
8.28334e-09
-8.01157e-09
-2.09594e-08
7.90401e-09
-9.79407e-09
-2.14963e-08
7.36902e-09
-1.08954e-08
-2.20381e-08
6.69151e-09
-1.12984e-08
-2.25366e-08
5.97869e-09
-1.10399e-08
-2.29025e-08
5.27227e-09
-1.02007e-08
-2.30386e-08
4.60274e-09
-8.89657e-09
-2.28502e-08
3.99364e-09
-7.26895e-09
-2.22335e-08
3.45392e-09
-5.47334e-09
-2.10685e-08
2.97735e-09
-3.66971e-09
-1.91964e-08
2.53663e-09
-2.01915e-09
-1.63816e-08
2.07838e-09
-6.99509e-10
-1.22056e-08
1.51053e-09
-5.82667e-09
7.04381e-10
7.04538e-10
-7.23244e-09
7.20753e-10
2.05057e-09
-1.51433e-08
1.56344e-09
3.73802e-09
-2.02138e-08
2.13767e-09
5.57856e-09
-2.36286e-08
2.59871e-09
7.40589e-09
-2.59378e-08
3.05179e-09
9.06224e-09
-2.74348e-08
3.55454e-09
1.03961e-08
-2.83053e-08
4.12961e-09
1.12657e-08
-2.86875e-08
4.7854e-09
1.15533e-08
-2.86971e-08
5.51059e-09
1.11753e-08
-2.84374e-08
6.28082e-09
1.00855e-08
-2.80124e-08
7.06459e-09
8.28314e-09
-2.75303e-08
7.82911e-09
5.89889e-09
-2.70648e-08
8.45952e-09
3.09569e-09
-2.64996e-08
8.82053e-09
7.46963e-11
-2.62108e-08
9.02023e-09
-2.96517e-09
-2.62383e-08
9.04444e-09
-5.79125e-09
-2.65392e-08
8.84551e-09
-8.16142e-09
-2.70343e-08
8.44521e-09
-9.96704e-09
-2.75268e-08
7.83634e-09
-1.10733e-08
-2.80178e-08
7.08604e-09
-1.14704e-08
-2.84441e-08
6.30481e-09
-1.12006e-08
-2.87059e-08
5.53369e-09
-1.03465e-08
-2.86996e-08
4.80704e-09
-9.02643e-09
-2.832e-08
4.14996e-09
-7.38159e-09
-2.74502e-08
3.57191e-09
-5.56515e-09
-2.59498e-08
3.065e-09
-3.73659e-09
-2.36262e-08
2.60123e-09
-2.05851e-09
-2.0185e-08
2.12537e-09
-7.12489e-10
-1.50957e-08
1.54419e-09
-7.25983e-09
7.20708e-10
6.92406e-10
-8.63257e-09
7.07785e-10
2.00662e-09
-1.80001e-08
1.54268e-09
3.66e-09
-2.39896e-08
2.12249e-09
5.46921e-09
-2.8022e-08
2.58434e-09
7.26661e-09
-3.07685e-08
3.03341e-09
8.89386e-09
-3.26035e-08
3.54152e-09
1.02079e-08
-3.37555e-08
4.13628e-09
1.10725e-08
-3.43738e-08
4.8218e-09
1.13698e-08
-3.45798e-08
5.58562e-09
1.10143e-08
-3.44847e-08
6.40291e-09
9.96214e-09
-3.41942e-08
7.23412e-09
8.20487e-09
-3.38129e-08
8.04003e-09
5.83357e-09
-3.34284e-08
8.73507e-09
3.05754e-09
-3.28468e-08
9.12339e-09
7.20013e-11
-3.25837e-08
9.35862e-09
-2.93623e-09
-3.26085e-08
9.37866e-09
-5.74303e-09
-3.28635e-08
9.13129e-09
-8.09732e-09
-3.33836e-08
8.70372e-09
-9.84849e-09
-3.38128e-08
8.03732e-09
-1.0915e-08
-3.42053e-08
7.25411e-09
-1.12886e-08
-3.44984e-08
6.42805e-09
-1.10088e-08
-3.45957e-08
5.61018e-09
-1.01598e-08
-3.43932e-08
4.84467e-09
-8.85898e-09
-3.37783e-08
4.15755e-09
-7.24379e-09
-3.26233e-08
3.55804e-09
-5.46224e-09
-3.07682e-08
3.03694e-09
-3.66816e-09
-2.79867e-08
2.5665e-09
-2.02072e-09
-2.39239e-08
2.09154e-09
-6.97536e-10
-1.79393e-08
1.52047e-09
-8.66615e-09
7.08808e-10
6.57135e-10
-9.95356e-09
6.63918e-10
1.89814e-09
-2.069e-08
1.44892e-09
3.4436e-09
-2.75487e-08
2.01376e-09
5.14687e-09
-3.21988e-08
2.47361e-09
6.85308e-09
-3.53848e-08
2.9102e-09
8.39917e-09
-3.75455e-08
3.39597e-09
9.6508e-09
-3.89891e-08
3.98202e-09
1.04823e-08
-3.9875e-08
4.66983e-09
1.07829e-08
-4.03234e-08
5.44307e-09
1.04654e-08
-4.04437e-08
6.27661e-09
9.48795e-09
-4.03411e-08
7.12448e-09
7.84193e-09
-4.01095e-08
7.94277e-09
5.55837e-09
-3.98166e-08
8.67198e-09
2.91188e-09
-3.9294e-08
9.09389e-09
6.80912e-11
-3.90831e-08
9.34334e-09
-2.7935e-09
-3.91072e-08
9.36041e-09
-5.46149e-09
-3.92837e-08
9.08841e-09
-7.73747e-09
-3.97258e-08
8.61841e-09
-9.38083e-09
-4.01055e-08
7.93619e-09
-1.03701e-08
-4.03596e-08
7.14372e-09
-1.07052e-08
-4.04651e-08
6.30195e-09
-1.04221e-08
-4.03467e-08
5.468e-09
-9.60479e-09
-3.99032e-08
4.69289e-09
-8.36466e-09
-3.90204e-08
4.0021e-09
-6.83473e-09
-3.75573e-08
3.40411e-09
-5.15044e-09
-3.53417e-08
2.88928e-09
-3.45414e-09
-3.21126e-08
2.42966e-09
-1.90004e-09
-2.74508e-08
1.97284e-09
-6.55287e-10
-2.06153e-08
1.43124e-09
-9.98941e-09
6.67993e-10
5.93374e-10
-1.11365e-08
5.89622e-10
1.71789e-09
-2.30844e-08
1.26996e-09
3.10385e-09
-3.07112e-08
1.77652e-09
4.61814e-09
-3.59399e-08
2.22677e-09
6.15399e-09
-3.95694e-08
2.64885e-09
7.55491e-09
-4.20448e-08
3.09846e-09
8.69526e-09
-4.3775e-08
3.64562e-09
9.46197e-09
-4.49438e-08
4.30219e-09
9.75269e-09
-4.56588e-08
5.04482e-09
9.48779e-09
-4.60219e-08
5.84317e-09
8.63632e-09
-4.61256e-08
6.63612e-09
7.17561e-09
-4.60375e-08
7.3888e-09
5.07027e-09
-4.58138e-08
8.10258e-09
2.65188e-09
-4.54744e-08
8.59894e-09
6.29981e-11
-4.53535e-08
8.85953e-09
-2.53725e-09
-4.53785e-08
8.87171e-09
-4.94626e-09
-4.5469e-08
8.59439e-09
-7.01803e-09
-4.57755e-08
8.12151e-09
-8.50514e-09
-4.61093e-08
7.49104e-09
-9.39265e-09
-4.61687e-08
6.69675e-09
-9.67789e-09
-4.60524e-08
5.87262e-09
-9.40532e-09
-4.56861e-08
5.06699e-09
-8.65106e-09
-4.49791e-08
4.32171e-09
-7.5193e-09
-4.38124e-08
3.66036e-09
-6.13511e-09
-4.20331e-08
3.09169e-09
-4.61516e-09
-3.94656e-08
2.60397e-09
-3.08339e-09
-3.58148e-08
2.17045e-09
-1.68777e-09
-3.05983e-08
1.75192e-09
-5.76517e-10
-2.29945e-08
1.26798e-09
-1.11604e-08
5.94527e-10
5.00488e-10
-1.21241e-08
4.87125e-10
1.45963e-09
-2.50653e-08
1.02183e-09
2.63204e-09
-3.3288e-08
1.40447e-09
3.90362e-09
-3.90003e-08
1.78889e-09
5.17052e-09
-4.30317e-08
2.19537e-09
6.34761e-09
-4.58365e-08
2.61466e-09
7.32145e-09
-4.78466e-08
3.09792e-09
7.99219e-09
-4.92983e-08
3.68382e-09
8.26695e-09
-5.02826e-08
4.34909e-09
8.07291e-09
-5.08708e-08
5.04302e-09
7.36133e-09
-5.11378e-08
5.72377e-09
6.08714e-09
-5.12085e-08
6.44532e-09
4.30797e-09
-5.1161e-08
7.12648e-09
2.26101e-09
-5.10136e-08
7.58631e-09
5.51086e-11
-5.09688e-08
7.82132e-09
-2.16775e-09
-5.09583e-08
7.80286e-09
-4.22148e-09
-5.0941e-08
7.5258e-09
-5.97971e-09
-5.1102e-08
7.0849e-09
-7.23621e-09
-5.13715e-08
6.51879e-09
-7.96962e-09
-5.12111e-08
5.77588e-09
-8.18784e-09
-5.08881e-08
5.05401e-09
-7.93633e-09
-5.02909e-08
4.35329e-09
-7.27885e-09
-4.93293e-08
3.69282e-09
-6.30307e-09
-4.78894e-08
3.10128e-09
-5.12964e-09
-4.58064e-08
2.59994e-09
-3.85609e-09
-4.29222e-08
2.18312e-09
-2.59004e-09
-3.89117e-08
1.83091e-09
-1.42706e-09
-3.32505e-08
1.48919e-09
-4.92773e-10
-2.50085e-08
1.07974e-09
-1.21572e-08
5.04024e-10
3.84662e-10
-1.28766e-08
3.67912e-10
1.10781e-09
-2.65712e-08
7.82799e-10
2.01475e-09
-3.5251e-08
1.05611e-09
2.98631e-09
-4.12638e-08
1.292e-09
3.92853e-09
-4.55584e-08
1.58456e-09
4.80599e-09
-4.8653e-08
1.93915e-09
5.54669e-09
-5.09268e-08
2.33956e-09
6.08332e-09
-5.26297e-08
2.79485e-09
6.34688e-09
-5.38517e-08
3.30563e-09
6.21057e-09
-5.45939e-08
3.85946e-09
5.60007e-09
-5.50026e-08
4.47536e-09
4.5743e-09
-5.52909e-08
5.10821e-09
3.28266e-09
-5.55119e-08
5.6426e-09
1.74482e-09
-5.54863e-08
6.01065e-09
4.89703e-11
-5.54614e-08
6.18853e-09
-1.67611e-09
-5.53828e-08
6.14967e-09
-3.24826e-09
-5.52937e-08
5.92496e-09
-4.57218e-09
-5.53233e-08
5.54523e-09
-5.57186e-09
-5.53794e-08
5.00768e-09
-6.12712e-09
-5.50041e-08
4.34829e-09
-6.26366e-09
-5.45299e-08
3.77841e-09
-6.05081e-09
-5.37547e-08
3.25105e-09
-5.54693e-09
-5.25997e-08
2.76658e-09
-4.81374e-09
-5.09812e-08
2.35861e-09
-3.92008e-09
-4.87071e-08
2.00706e-09
-2.94881e-09
-4.55811e-08
1.68767e-09
-1.98049e-09
-4.12853e-08
1.40531e-09
-1.09094e-09
-3.52739e-08
1.13393e-09
-3.77282e-10
-2.65419e-08
8.19745e-10
-1.29164e-08
3.81909e-10
2.60732e-10
-1.3362e-08
2.24688e-10
7.0349e-10
-2.74856e-08
4.71667e-10
1.27196e-09
-3.65007e-08
6.81265e-10
1.88921e-09
-4.27312e-08
8.50179e-10
2.49528e-09
-4.72092e-08
1.04476e-09
3.06291e-09
-5.04898e-08
1.26912e-09
3.5402e-09
-5.29122e-08
1.50811e-09
3.86536e-09
-5.47033e-08
1.74851e-09
4.0415e-09
-5.60388e-08
2.01094e-09
3.94245e-09
-5.68907e-08
2.39577e-09
3.54099e-09
-5.74698e-08
2.86861e-09
2.91759e-09
-5.79717e-08
3.30415e-09
2.10034e-09
-5.83404e-08
3.64583e-09
1.12271e-09
-5.83925e-08
3.88382e-09
5.17888e-11
-5.8407e-08
4.01662e-09
-1.03612e-09
-5.83015e-08
4.00665e-09
-2.03387e-09
-5.817e-08
3.8741e-09
-2.85785e-09
-5.81308e-08
3.63157e-09
-3.50157e-09
-5.80359e-08
3.30023e-09
-3.89783e-09
-5.7471e-08
2.86319e-09
-4.04613e-09
-5.67834e-08
2.40184e-09
-3.93258e-09
-5.584e-08
1.9718e-09
-3.58618e-09
-5.45872e-08
1.64113e-09
-3.07379e-09
-5.29076e-08
1.41399e-09
-2.48189e-09
-5.05328e-08
1.23386e-09
-1.8598e-09
-4.7262e-08
1.05875e-09
-1.24573e-09
-4.27848e-08
8.8544e-10
-6.84265e-10
-3.65493e-08
7.13871e-10
-2.36917e-10
-2.75041e-08
5.14838e-10
-1.33929e-08
2.39597e-10
9.6777e-11
-1.35366e-08
7.78766e-11
2.49173e-10
-2.78042e-08
1.66243e-10
4.5338e-10
-3.69523e-08
2.47367e-10
6.77904e-10
-4.32645e-08
3.08825e-10
9.04933e-10
-4.78069e-08
3.70683e-10
1.13469e-09
-5.11427e-08
4.23112e-10
1.34818e-09
-5.35956e-08
4.6984e-10
1.47707e-09
-5.53769e-08
5.44593e-10
1.49793e-09
-5.67201e-08
6.60363e-10
1.4211e-09
-5.76378e-08
8.23957e-10
1.29551e-09
-5.83398e-08
9.95613e-10
1.10903e-09
-5.89271e-08
1.14192e-09
7.59075e-10
-5.92331e-08
1.24257e-09
3.86001e-10
-5.93336e-08
1.31423e-09
3.50616e-11
-5.94407e-08
1.38469e-09
-3.54749e-10
-5.93546e-08
1.44292e-09
-7.19478e-10
-5.9244e-08
1.43878e-09
-1.00868e-09
-5.91865e-08
1.34483e-09
-1.23638e-09
-5.90281e-08
1.21982e-09
-1.37745e-09
-5.83964e-08
1.06645e-09
-1.43508e-09
-5.76303e-08
9.04573e-10
-1.40047e-09
-5.66229e-08
7.48325e-10
-1.27843e-09
-5.53296e-08
6.20379e-10
-1.09484e-09
-5.36138e-08
5.22621e-10
-8.8101e-10
-5.11879e-08
4.41273e-10
-6.57e-10
-4.78544e-08
3.68391e-10
-4.36712e-10
-4.33097e-08
3.04591e-10
-2.37395e-10
-3.69936e-08
2.44971e-10
-8.18423e-11
-2.78344e-08
1.74815e-10
-1.35587e-08
8.39329e-11
-6.43529e-11
-1.34012e-08
-7.10228e-11
-2.00094e-10
-2.75252e-08
-1.43236e-10
-3.6659e-10
-3.65905e-08
-1.95227e-10
-5.48448e-10
-4.28397e-08
-2.43034e-10
-7.3591e-10
-4.73324e-08
-2.87051e-10
-9.24637e-10
-5.06367e-08
-3.17314e-10
-1.10116e-09
-5.30804e-08
-3.38777e-10
-1.21234e-09
-5.48824e-08
-3.83381e-10
-1.21185e-09
-5.62293e-08
-4.91288e-10
-1.12662e-09
-5.70683e-08
-6.54777e-10
-1.01915e-09
-5.76376e-08
-8.09753e-10
-9.29545e-10
-5.8105e-08
-9.11817e-10
-7.87168e-10
-5.83987e-08
-9.76789e-10
-4.82929e-10
-5.85916e-08
-1.04629e-09
-3.56164e-11
-5.87325e-08
-1.15558e-09
3.2965e-10
-5.8521e-08
-1.1988e-09
6.43271e-10
-5.84076e-08
-1.15006e-09
9.25479e-10
-5.83952e-08
-1.07357e-09
1.07882e-09
-5.82058e-08
-9.75649e-10
1.17727e-09
-5.76341e-08
-8.6083e-10
1.22639e-09
-5.69473e-08
-7.3218e-10
1.19874e-09
-5.59953e-08
-5.99974e-10
1.10451e-09
-5.47384e-08
-4.96979e-10
9.46365e-10
-5.30322e-08
-4.2343e-10
7.63517e-10
-5.06377e-08
-3.67424e-10
5.74202e-10
-4.73511e-08
-3.1403e-10
3.85205e-10
-4.28603e-08
-2.60441e-10
2.1403e-10
-3.66159e-08
-2.06544e-10
7.71337e-11
-2.7554e-08
-1.43575e-10
-1.34145e-08
-6.71013e-11
-2.23998e-10
-1.29511e-08
-2.26141e-10
-6.50229e-10
-2.66153e-08
-4.83771e-10
-1.18184e-09
-3.53875e-08
-6.71458e-10
-1.76364e-09
-4.14244e-08
-8.3345e-10
-2.34796e-09
-4.57458e-08
-1.00235e-09
-2.8894e-09
-4.89044e-08
-1.19095e-09
-3.33904e-09
-5.12288e-08
-1.40199e-09
-3.65725e-09
-5.29246e-08
-1.63966e-09
-3.80426e-09
-5.41761e-08
-1.90633e-09
-3.68952e-09
-5.49304e-08
-2.25274e-09
-3.30884e-09
-5.53308e-08
-2.68755e-09
-2.7619e-09
-5.55729e-08
-3.0791e-09
-2.01806e-09
-5.57628e-08
-3.37975e-09
-1.08198e-09
-5.59114e-08
-3.61628e-09
-1.00124e-11
-5.60341e-08
-3.77034e-09
1.02534e-09
-5.57997e-08
-3.75672e-09
1.99901e-09
-5.57544e-08
-3.62689e-09
2.85105e-09
-5.58553e-08
-3.39203e-09
3.36053e-09
-5.56473e-08
-3.06816e-09
3.6917e-09
-5.5266e-08
-2.69934e-09
3.83833e-09
-5.48194e-08
-2.27461e-09
3.72743e-09
-5.40532e-08
-1.83127e-09
3.40816e-09
-5.28785e-08
-1.54068e-09
2.92002e-09
-5.11959e-08
-1.34824e-09
2.35987e-09
-4.89024e-08
-1.17521e-09
1.78018e-09
-4.57697e-08
-1.00178e-09
1.19845e-09
-4.14532e-08
-8.25432e-10
6.70039e-10
-3.54346e-08
-6.52913e-10
2.43568e-10
-2.66731e-08
-4.54412e-10
-1.29538e-08
-2.17069e-10
-3.68249e-10
-1.22137e-08
-3.69141e-10
-1.06075e-09
-2.51302e-08
-7.9261e-10
-1.92514e-09
-3.34233e-08
-1.09977e-09
-2.86682e-09
-3.9118e-08
-1.36482e-09
-3.80812e-09
-4.31632e-08
-1.64138e-09
-4.66757e-09
-4.60833e-08
-1.96175e-09
-5.36811e-09
-4.81974e-08
-2.33099e-09
-5.8642e-09
-4.967e-08
-2.75863e-09
-6.11263e-09
-5.06869e-08
-3.24085e-09
-5.99071e-09
-5.13085e-08
-3.74393e-09
-5.41015e-09
-5.1588e-08
-4.32345e-09
-4.44605e-09
-5.16129e-08
-4.92418e-09
-3.18446e-09
-5.15917e-08
-5.4328e-09
-1.68034e-09
-5.1612e-08
-5.80364e-09
-1.47201e-11
-5.16959e-08
-6.00387e-09
1.64283e-09
-5.1498e-08
-5.95932e-09
3.1868e-09
-5.15293e-08
-5.76921e-09
4.52372e-09
-5.17829e-08
-5.40938e-09
5.4319e-09
-5.1668e-08
-4.88756e-09
5.98049e-09
-5.15021e-08
-4.31261e-09
6.14579e-09
-5.12505e-08
-3.73421e-09
5.9342e-09
-5.06871e-08
-3.15451e-09
5.413e-09
-4.97028e-08
-2.65456e-09
4.67475e-09
-4.82187e-08
-2.23899e-09
3.8009e-09
-4.61451e-08
-1.88347e-09
2.87528e-09
-4.32773e-08
-1.56677e-09
1.95028e-09
-3.92386e-08
-1.28967e-09
1.09551e-09
-3.35543e-08
-1.02558e-09
3.91596e-10
-2.52476e-08
-7.21709e-10
-1.22135e-08
-3.48763e-10
-4.92693e-10
-1.12318e-08
-4.89256e-10
-1.40629e-09
-2.31642e-08
-1.0524e-09
-2.54899e-09
-3.08132e-08
-1.46754e-09
-3.79585e-09
-3.60599e-08
-1.81125e-09
-5.04812e-09
-3.97492e-08
-2.16188e-09
-6.20821e-09
-4.23519e-08
-2.57136e-09
-7.17405e-09
-4.41676e-08
-3.06414e-09
-7.82665e-09
-4.53728e-08
-3.64467e-09
-8.09333e-09
-4.6127e-08
-4.29333e-09
-7.90422e-09
-4.65325e-08
-4.96524e-09
-7.19323e-09
-4.66658e-08
-5.63339e-09
-5.92003e-09
-4.65685e-08
-6.31779e-09
-4.20402e-09
-4.63417e-08
-6.96612e-09
-2.20063e-09
-4.61742e-08
-7.44123e-09
-1.28657e-11
-4.61903e-08
-7.69346e-09
2.17024e-09
-4.60502e-08
-7.63096e-09
4.1946e-09
-4.61599e-08
-7.39386e-09
5.9387e-09
-4.65525e-08
-6.97471e-09
7.19066e-09
-4.66327e-08
-6.28745e-09
7.91067e-09
-4.66661e-08
-5.55615e-09
8.11902e-09
-4.65506e-08
-4.90836e-09
7.86453e-09
-4.61687e-08
-4.26403e-09
7.21007e-09
-4.54246e-08
-3.62384e-09
6.2535e-09
-4.42165e-08
-3.04564e-09
5.09435e-09
-4.24259e-08
-2.56019e-09
3.84781e-09
-3.98922e-08
-2.13868e-09
2.61322e-09
-3.62794e-08
-1.72474e-09
1.46174e-09
-3.10683e-08
-1.33464e-09
5.16799e-10
-2.33599e-08
-9.42781e-10
-1.12342e-08
-4.62587e-10
-5.89603e-10
-1.00587e-08
-5.83621e-10
-1.67806e-09
-2.0827e-08
-1.24883e-09
-3.05442e-09
-2.76924e-08
-1.74449e-09
-4.57276e-09
-3.23811e-08
-2.16057e-09
-6.08769e-09
-3.56499e-08
-2.58442e-09
-7.4697e-09
-3.79062e-08
-3.06386e-09
-8.60075e-09
-3.94091e-08
-3.62751e-09
-9.35751e-09
-4.03347e-08
-4.28153e-09
-9.64082e-09
-4.08235e-08
-5.02035e-09
-9.37546e-09
-4.09855e-08
-5.81253e-09
-8.52384e-09
-4.09171e-08
-6.60053e-09
-7.06012e-09
-4.07034e-08
-7.32902e-09
-5.00633e-09
-4.03943e-08
-8.00139e-09
-2.59771e-09
-4.00437e-08
-8.53919e-09
-9.94451e-12
-3.9931e-08
-8.84706e-09
2.56921e-09
-3.98311e-08
-8.79829e-09
4.97175e-09
-4.00271e-08
-8.53546e-09
7.02476e-09
-4.0522e-08
-8.08368e-09
8.50932e-09
-4.07488e-08
-7.36864e-09
9.38333e-09
-4.09455e-08
-6.59479e-09
9.65855e-09
-4.10187e-08
-5.80728e-09
9.37971e-09
-4.08657e-08
-5.02416e-09
8.62498e-09
-4.03833e-08
-4.28662e-09
7.49878e-09
-3.94604e-08
-3.63e-09
6.11193e-09
-3.79646e-08
-3.07458e-09
4.58472e-09
-3.57415e-08
-2.62358e-09
3.06665e-09
-3.25389e-08
-2.2225e-09
1.69669e-09
-2.78962e-08
-1.80216e-09
5.9454e-10
-2.09791e-08
-1.2787e-09
-1.00567e-08
-5.83002e-10
-6.55354e-10
-8.73857e-09
-6.64783e-10
-1.89447e-09
-1.81553e-08
-1.43269e-09
-3.4455e-09
-2.41704e-08
-1.97105e-09
-5.13981e-09
-2.82651e-08
-2.42188e-09
-6.82612e-09
-3.10875e-08
-2.87631e-09
-8.36141e-09
-3.29822e-08
-3.38885e-09
-9.60724e-09
-3.41774e-08
-3.98596e-09
-1.04333e-08
-3.48335e-08
-4.67519e-09
-1.07279e-08
-3.50778e-08
-5.45127e-09
-1.04078e-08
-3.50193e-08
-6.28644e-09
-9.42877e-09
-3.4763e-08
-7.13342e-09
-7.7918e-09
-3.44124e-08
-7.92817e-09
-5.53406e-09
-3.40385e-08
-8.61371e-09
-2.85219e-09
-3.36152e-08
-9.11044e-09
-7.08946e-12
-3.33675e-08
-9.40873e-09
2.84465e-09
-3.33041e-08
-9.37887e-09
5.51951e-09
-3.35754e-08
-9.12674e-09
7.76758e-09
-3.4083e-08
-8.68734e-09
9.41764e-09
-3.44363e-08
-7.96283e-09
1.04084e-08
-3.4789e-08
-7.14738e-09
1.07374e-08
-3.50498e-08
-6.29804e-09
1.04481e-08
-3.5114e-08
-5.46256e-09
9.62537e-09
-3.48752e-08
-4.68545e-09
8.38198e-09
-3.42237e-08
-3.99347e-09
6.84615e-09
-3.30321e-08
-3.3968e-09
5.1476e-09
-3.11454e-08
-2.8977e-09
3.43385e-09
-2.83509e-08
-2.47436e-09
1.87774e-09
-2.42932e-08
-2.047e-09
6.51647e-10
-1.82704e-08
-1.48275e-09
-8.73727e-09
-6.67787e-10
-6.85852e-10
-7.33724e-09
-7.15541e-10
-2.01928e-09
-1.52803e-08
-1.54166e-09
-3.67781e-09
-2.04147e-08
-2.09731e-09
-5.47942e-09
-2.38969e-08
-2.56664e-09
-7.27081e-09
-2.62593e-08
-3.03691e-09
-8.89711e-09
-2.77964e-08
-3.55961e-09
-1.02108e-08
-2.87019e-08
-4.16185e-09
-1.1074e-08
-2.91177e-08
-4.85279e-09
-1.13681e-08
-2.91598e-08
-5.62401e-09
-1.10069e-08
-2.89327e-08
-6.44803e-09
-9.94743e-09
-2.85369e-08
-7.28585e-09
-8.19113e-09
-2.80786e-08
-8.09037e-09
-5.82609e-09
-2.76192e-08
-8.78452e-09
-2.99927e-09
-2.71872e-08
-9.25498e-09
-4.19609e-12
-2.6882e-08
-9.48064e-09
3.00076e-09
-2.68565e-08
-9.45264e-09
5.81679e-09
-2.7163e-08
-9.22862e-09
8.17427e-09
-2.76466e-08
-8.79403e-09
9.93452e-09
-2.80967e-08
-8.10007e-09
1.10026e-08
-2.85573e-08
-7.30001e-09
1.13718e-08
-2.89568e-08
-6.46234e-09
1.1084e-08
-2.91894e-08
-5.63696e-09
1.02253e-08
-2.91521e-08
-4.86452e-09
8.91303e-09
-2.87404e-08
-4.17107e-09
7.2867e-09
-2.78383e-08
-3.56761e-09
5.49202e-09
-2.63043e-08
-3.04652e-09
3.67807e-09
-2.39496e-08
-2.5874e-09
2.01326e-09
-2.04932e-08
-2.13529e-09
6.92232e-10
-1.53827e-08
-1.56669e-09
-7.33219e-09
-7.12883e-10
-7.08299e-10
-5.90049e-09
-7.28495e-10
-2.06839e-09
-1.23611e-08
-1.55915e-09
-3.761e-09
-1.65883e-08
-2.13389e-09
-5.60474e-09
-1.94433e-08
-2.61008e-09
-7.43827e-09
-2.13497e-08
-3.07621e-09
-9.10098e-09
-2.25467e-08
-3.58712e-09
-1.04393e-08
-2.31931e-08
-4.17069e-09
-1.1311e-08
-2.3411e-08
-4.83503e-09
-1.15961e-08
-2.33044e-08
-5.57036e-09
-1.12107e-08
-2.29662e-08
-6.35217e-09
-1.01074e-08
-2.24936e-08
-7.14687e-09
-8.29983e-09
-2.19741e-08
-7.91234e-09
-5.9217e-09
-2.14562e-08
-8.54142e-09
-3.08988e-09
-2.10478e-08
-8.97138e-09
-2.50668e-11
-2.07818e-08
-9.16506e-09
3.02568e-09
-2.07537e-08
-9.15367e-09
5.84718e-09
-2.10163e-08
-8.96827e-09
8.2642e-09
-2.14882e-08
-8.5757e-09
1.00922e-08
-2.19897e-08
-7.93516e-09
1.12026e-08
-2.25061e-08
-7.16186e-09
1.15961e-08
-2.29836e-08
-6.36676e-09
1.13167e-08
-2.33264e-08
-5.58366e-09
1.04492e-08
-2.3438e-08
-4.84672e-09
9.11294e-09
-2.32232e-08
-4.1811e-09
7.45048e-09
-2.25793e-08
-3.5966e-09
5.61561e-09
-2.13847e-08
-3.08488e-09
3.76737e-09
-1.94804e-08
-2.6211e-09
2.06531e-09
-1.66337e-08
-2.15752e-09
7.01984e-10
-1.24264e-08
-1.59308e-09
-5.89919e-09
-7.31048e-10
-7.02839e-10
-4.48473e-09
-7.12968e-10
-2.03601e-09
-9.50415e-09
-1.52388e-09
-3.70469e-09
-1.28275e-08
-2.09221e-09
-5.52947e-09
-1.50654e-08
-2.55318e-09
-7.34796e-09
-1.65334e-08
-2.99795e-09
-8.99901e-09
-1.74154e-08
-3.48033e-09
-1.03256e-08
-1.78397e-08
-4.0269e-09
-1.11854e-08
-1.79065e-08
-4.64475e-09
-1.14608e-08
-1.77031e-08
-5.32599e-09
-1.10669e-08
-1.73133e-08
-6.04696e-09
-9.96376e-09
-1.68192e-08
-6.77774e-09
-8.18483e-09
-1.62904e-08
-7.46293e-09
-5.84314e-09
-1.57885e-08
-8.00963e-09
-3.06428e-09
-1.54147e-08
-8.41212e-09
-2.90837e-11
-1.5207e-08
-8.61007e-09
2.98815e-09
-1.51756e-08
-8.59532e-09
5.77151e-09
-1.539e-08
-8.40984e-09
8.14611e-09
-1.58152e-08
-8.04778e-09
9.94668e-09
-1.6305e-08
-7.48556e-09
1.10559e-08
-1.68267e-08
-6.78885e-09
1.14559e-08
-1.73244e-08
-6.05934e-09
1.11877e-08
-1.77192e-08
-5.33914e-09
1.03321e-08
-1.79255e-08
-4.65695e-09
9.00763e-09
-1.78618e-08
-4.03706e-09
7.35766e-09
-1.74401e-08
-3.48943e-09
5.53908e-09
-1.65597e-08
-3.00651e-09
3.71158e-09
-1.50916e-08
-2.56138e-09
2.03744e-09
-1.28563e-08
-2.1034e-09
6.95333e-10
-9.54031e-09
-1.54402e-09
-4.4889e-09
-7.14979e-10
-6.64396e-10
-3.15212e-09
-6.68249e-10
-1.92586e-09
-6.8126e-09
-1.43013e-09
-3.5145e-09
-9.27521e-09
-1.96375e-09
-5.26351e-09
-1.09253e-08
-2.3912e-09
-7.01642e-09
-1.19819e-08
-2.79876e-09
-8.61443e-09
-1.25802e-08
-3.23733e-09
-9.90081e-09
-1.28195e-08
-3.73392e-09
-1.07357e-08
-1.27784e-08
-4.29328e-09
-1.10027e-08
-1.25284e-08
-4.90779e-09
-1.06203e-08
-1.21368e-08
-5.55911e-09
-9.55016e-09
-1.16677e-08
-6.22191e-09
-7.84681e-09
-1.11786e-08
-6.81551e-09
-5.59709e-09
-1.0741e-08
-7.29751e-09
-2.93216e-09
-1.04181e-08
-7.66163e-09
-2.60206e-11
-1.02524e-08
-7.86081e-09
2.86452e-09
-1.02268e-08
-7.83945e-09
5.5353e-09
-1.04022e-08
-7.65871e-09
7.81009e-09
-1.07571e-08
-7.33311e-09
9.53224e-09
-1.11894e-08
-6.83794e-09
1.06072e-08
-1.16742e-08
-6.2276e-09
1.09957e-08
-1.21436e-08
-5.56946e-09
1.07349e-08
-1.25384e-08
-4.92014e-09
9.905e-09
-1.27911e-08
-4.30467e-09
8.62107e-09
-1.28343e-08
-3.7437e-09
7.02427e-09
-1.25973e-08
-3.24613e-09
5.27007e-09
-1.19995e-08
-2.80617e-09
3.51966e-09
-1.09432e-08
-2.39813e-09
1.92922e-09
-9.29503e-09
-1.97091e-09
6.63304e-10
-6.83482e-09
-1.43965e-09
-3.1561e-09
-6.69534e-10
-5.92965e-10
-1.96542e-09
-5.93754e-10
-1.73115e-09
-4.39976e-09
-1.27468e-09
-3.18762e-09
-6.07427e-09
-1.74454e-09
-4.80995e-09
-7.18828e-09
-2.11484e-09
-6.45211e-09
-7.87273e-09
-2.46713e-09
-7.96124e-09
-8.22402e-09
-2.84723e-09
-9.18333e-09
-8.31678e-09
-3.28079e-09
-9.98187e-09
-8.2088e-09
-3.77112e-09
-1.02451e-08
-7.95339e-09
-4.31187e-09
-9.89472e-09
-7.60043e-09
-4.88687e-09
-8.89993e-09
-7.19608e-09
-5.46666e-09
-7.31379e-09
-6.79239e-09
-5.97258e-09
-5.21328e-09
-6.43924e-09
-6.40248e-09
-2.72682e-09
-6.17928e-09
-6.72549e-09
-2.27112e-11
-6.0461e-09
-6.91048e-09
2.66862e-09
-6.03093e-09
-6.88723e-09
5.15634e-09
-6.16984e-09
-6.72017e-09
7.27233e-09
-6.44451e-09
-6.42875e-09
8.87631e-09
-6.79686e-09
-5.99676e-09
9.88023e-09
-7.20003e-09
-5.47826e-09
1.02365e-08
-7.60425e-09
-4.89579e-09
9.97939e-09
-7.95889e-09
-4.32244e-09
9.18533e-09
-8.21602e-09
-3.78105e-09
7.96553e-09
-8.32563e-09
-3.28898e-09
6.45738e-09
-8.23403e-09
-2.8552e-09
4.81469e-09
-7.88353e-09
-2.47343e-09
3.19233e-09
-7.20067e-09
-2.12032e-09
1.73631e-09
-6.09061e-09
-1.74851e-09
5.94686e-10
-4.41585e-09
-1.27743e-09
-1.96793e-09
-5.93515e-10
-4.85658e-10
-9.94865e-10
-4.8491e-10
-1.44919e-09
-2.39428e-09
-1.04198e-09