/*--------------------------------*- C++ -*----------------------------------*\
| =========                 |                                                 |
| \\      /  F ield         | OpenFOAM: The Open Source CFD Toolbox           |
|  \\    /   O peration     | Version:  v1912                                 |
|   \\  /    A nd           | Website:  www.openfoam.com                      |
|    \\/     M anipulation  |                                                 |
\*---------------------------------------------------------------------------*/
FoamFile
{
    version     2.0;
    format      ascii;
    class       volVectorField;
    location    "404/oil";
    object      U;
}
// * * * * * * * * * * * * * * * * * * * * * * * * * * * * * * * * * * * * * //

dimensions      [0 1 -1 0 0 0 0];


internalField   nonuniform List<vector> 
35580
(
(-1.23066e-09 2.45236e-09 -1.25521e-09)
(1.25702e-09 2.2287e-09 -3.01607e-09)
(1.15704e-08 2.19803e-09 -4.8514e-09)
(2.78143e-08 2.74469e-09 -6.70961e-09)
(4.75638e-08 3.61758e-09 -8.20611e-09)
(6.8054e-08 4.64555e-09 -9.21359e-09)
(8.67269e-08 5.73064e-09 -9.72225e-09)
(1.01362e-07 6.82672e-09 -9.78927e-09)
(1.10143e-07 7.9055e-09 -9.50115e-09)
(1.11865e-07 8.93847e-09 -8.93911e-09)
(1.05864e-07 9.87156e-09 -8.17712e-09)
(9.21933e-08 1.06612e-08 -7.41644e-09)
(7.16812e-08 1.128e-08 -6.70982e-09)
(4.56143e-08 1.17502e-08 -6.20601e-09)
(1.60004e-08 1.20089e-08 -5.94247e-09)
(-1.49074e-08 1.204e-08 -5.94777e-09)
(-4.46106e-08 1.17694e-08 -6.20577e-09)
(-7.07322e-08 1.12912e-08 -6.69465e-09)
(-9.13718e-08 1.06335e-08 -7.37058e-09)
(-1.05171e-07 9.85886e-09 -8.14174e-09)
(-1.11387e-07 8.94125e-09 -8.89569e-09)
(-1.09837e-07 7.89579e-09 -9.48296e-09)
(-1.01159e-07 6.81634e-09 -9.77032e-09)
(-8.66212e-08 5.72318e-09 -9.71262e-09)
(-6.80191e-08 4.6378e-09 -9.206e-09)
(-4.75859e-08 3.613e-09 -8.19906e-09)
(-2.78708e-08 2.7405e-09 -6.69875e-09)
(-1.16349e-08 2.18747e-09 -4.83017e-09)
(-1.31167e-09 2.20606e-09 -2.98977e-09)
(1.20618e-09 2.40576e-09 -1.23657e-09)
(6.33019e-10 -2.29751e-09 6.18195e-10)
(1.27017e-08 -1.40545e-08 5.33399e-10)
(3.70058e-08 -2.34392e-08 -3.17526e-10)
(7.08684e-08 -2.85318e-08 -1.43005e-09)
(1.10271e-07 -3.01466e-08 -2.25089e-09)
(1.50485e-07 -2.91529e-08 -2.53403e-09)
(1.86765e-07 -2.62685e-08 -2.22219e-09)
(2.14837e-07 -2.20316e-08 -1.35791e-09)
(2.31158e-07 -1.68986e-08 -4.39158e-11)
(2.33238e-07 -1.1298e-08 1.56848e-09)
(2.19706e-07 -5.67751e-09 3.45568e-09)
(1.90592e-07 -5.2301e-10 5.22542e-09)
(1.47703e-07 3.72986e-09 6.78057e-09)
(9.38561e-08 6.83599e-09 7.89714e-09)
(3.28986e-08 8.48393e-09 8.48653e-09)
(-3.06924e-08 8.51885e-09 8.50567e-09)
(-9.18529e-08 6.80322e-09 7.92446e-09)
(-1.45795e-07 3.63552e-09 6.84221e-09)
(-1.887e-07 -7.10175e-10 5.32653e-09)
(-2.17904e-07 -5.80667e-09 3.55837e-09)
(-2.31804e-07 -1.14192e-08 1.70278e-09)
(-2.30037e-07 -1.70106e-08 4.95444e-11)
(-2.13971e-07 -2.21076e-08 -1.26972e-09)
(-1.86182e-07 -2.63161e-08 -2.15257e-09)
(-1.50147e-07 -2.92e-08 -2.47577e-09)
(-1.10132e-07 -3.02106e-08 -2.19857e-09)
(-7.0871e-08 -2.86303e-08 -1.38757e-09)
(-3.70605e-08 -2.3575e-08 -2.81056e-10)
(-1.27348e-08 -1.4195e-08 5.53619e-10)
(-6.39232e-10 -2.41639e-09 6.08081e-10)
(2.48148e-09 -2.26635e-08 2.47844e-09)
(2.49286e-08 -6.00106e-08 4.39015e-09)
(6.10234e-08 -8.76752e-08 4.79362e-09)
(1.07441e-07 -1.05271e-07 4.73361e-09)
(1.59299e-07 -1.14638e-07 4.82806e-09)
(2.11178e-07 -1.17552e-07 5.36191e-09)
(2.5738e-07 -1.15545e-07 6.43682e-09)
(2.92617e-07 -1.09866e-07 8.04352e-09)
(3.12438e-07 -1.01596e-07 1.00817e-08)
(3.13681e-07 -9.17415e-08 1.23717e-08)
(2.94523e-07 -8.13107e-08 1.48986e-08)
(2.5491e-07 -7.13902e-08 1.72391e-08)
(1.97209e-07 -6.30675e-08 1.92184e-08)
(1.25173e-07 -5.70394e-08 2.06497e-08)
(4.38447e-08 -5.38513e-08 2.14096e-08)
(-4.10033e-08 -5.38645e-08 2.14599e-08)
(-1.22659e-07 -5.71982e-08 2.06883e-08)
(-1.94816e-07 -6.34104e-08 1.92763e-08)
(-2.52465e-07 -7.18584e-08 1.72971e-08)
(-2.9228e-07 -8.17116e-08 1.49984e-08)
(-3.11913e-07 -9.21039e-08 1.24972e-08)
(-3.11044e-07 -1.01866e-07 1.0164e-08)
(-2.91551e-07 -1.10051e-07 8.12217e-09)
(-2.5665e-07 -1.15674e-07 6.50867e-09)
(-2.10751e-07 -1.17666e-07 5.42661e-09)
(-1.59117e-07 -1.14779e-07 4.89174e-09)
(-1.07423e-07 -1.05472e-07 4.78768e-09)
(-6.10733e-08 -8.79393e-08 4.83067e-09)
(-2.49793e-08 -6.02615e-08 4.3952e-09)
(-2.50261e-09 -2.28202e-08 2.4539e-09)
(3.96703e-09 -5.6193e-08 3.95673e-09)
(3.51803e-08 -1.30992e-07 7.33354e-09)
(8.11409e-08 -1.83668e-07 8.59613e-09)
(1.37444e-07 -2.18647e-07 9.24149e-09)
(1.98451e-07 -2.39629e-07 9.99388e-09)
(2.58353e-07 -2.49497e-07 1.11327e-08)
(3.10998e-07 -2.50682e-07 1.27688e-08)
(3.50611e-07 -2.45212e-07 1.49037e-08)
(3.72243e-07 -2.34903e-07 1.74449e-08)
(3.72303e-07 -2.21453e-07 2.02074e-08)
(3.48651e-07 -2.06572e-07 2.31276e-08)
(3.01241e-07 -1.91899e-07 2.58374e-08)
(2.32822e-07 -1.79289e-07 2.81469e-08)
(1.47609e-07 -1.70019e-07 2.97773e-08)
(5.16576e-08 -1.65135e-07 3.06306e-08)
(-4.8447e-08 -1.65208e-07 3.06947e-08)
(-1.44825e-07 -1.70226e-07 2.97948e-08)
(-2.30098e-07 -1.79633e-07 2.81591e-08)
(-2.9847e-07 -1.92274e-07 2.58644e-08)
(-3.46105e-07 -2.0689e-07 2.31942e-08)
(-3.70208e-07 -2.21739e-07 2.02675e-08)
(-3.70548e-07 -2.3511e-07 1.74785e-08)
(-3.49301e-07 -2.45355e-07 1.4941e-08)
(-3.10063e-07 -2.5078e-07 1.28075e-08)
(-2.5776e-07 -2.49598e-07 1.11764e-08)
(-1.98165e-07 -2.39786e-07 1.00456e-08)
(-1.37377e-07 -2.18894e-07 9.28071e-09)
(-8.11728e-08 -1.83977e-07 8.60657e-09)
(-3.52452e-08 -1.31255e-07 7.30922e-09)
(-4.00284e-09 -5.63965e-08 3.91675e-09)
(5.01922e-09 -1.00074e-07 5.00717e-09)
(4.29201e-08 -2.21694e-07 9.36869e-09)
(9.66498e-08 -3.04475e-07 1.11747e-08)
(1.60689e-07 -3.60204e-07 1.2261e-08)
(2.28668e-07 -3.9545e-07 1.34221e-08)
(2.94482e-07 -4.14525e-07 1.49763e-08)
(3.51715e-07 -4.20852e-07 1.70181e-08)
(3.94337e-07 -4.17259e-07 1.95629e-08)
(4.17118e-07 -4.06301e-07 2.25157e-08)
(4.16209e-07 -3.90382e-07 2.56948e-08)
(3.89268e-07 -3.71913e-07 2.89512e-08)
(3.36141e-07 -3.53092e-07 3.2002e-08)
(2.59649e-07 -3.36497e-07 3.46288e-08)
(1.64503e-07 -3.24033e-07 3.64435e-08)
(5.75444e-08 -3.17489e-07 3.73924e-08)
(-5.40464e-08 -3.17595e-07 3.747e-08)
(-1.61494e-07 -3.242e-07 3.64667e-08)
(-2.56579e-07 -3.3662e-07 3.46324e-08)
(-3.3307e-07 -3.53192e-07 3.20587e-08)
(-3.86482e-07 -3.71975e-07 2.9018e-08)
(-4.13897e-07 -3.9044e-07 2.57437e-08)
(-4.15255e-07 -4.06344e-07 2.25521e-08)
(-3.92892e-07 -4.17305e-07 1.96037e-08)
(-3.50662e-07 -4.20903e-07 1.70589e-08)
(-2.9378e-07 -4.14613e-07 1.50125e-08)
(-2.28284e-07 -3.95602e-07 1.34581e-08)
(-1.60564e-07 -3.60453e-07 1.2273e-08)
(-9.66667e-08 -3.04758e-07 1.11459e-08)
(-4.30067e-08 -2.21848e-07 9.29354e-09)
(-5.07643e-09 -1.00313e-07 4.94362e-09)
(5.69179e-09 -1.51316e-07 5.70587e-09)
(4.82216e-08 -3.26593e-07 1.06766e-08)
(1.07578e-07 -4.43279e-07 1.27889e-08)
(1.77276e-07 -5.22181e-07 1.41323e-08)
(2.50324e-07 -5.73552e-07 1.55457e-08)
(3.20415e-07 -6.03531e-07 1.73785e-08)
(3.80971e-07 -6.16647e-07 1.97294e-08)
(4.25815e-07 -6.16546e-07 2.26255e-08)
(4.49537e-07 -6.06489e-07 2.59616e-08)
(4.48081e-07 -5.89538e-07 2.95615e-08)
(4.19027e-07 -5.68769e-07 3.31949e-08)
(3.62009e-07 -5.46983e-07 3.66512e-08)
(2.79592e-07 -5.27206e-07 3.96225e-08)
(1.77088e-07 -5.12002e-07 4.16669e-08)
(6.19063e-08 -5.0399e-07 4.27195e-08)
(-5.82128e-08 -5.04081e-07 4.27925e-08)
(-1.73938e-07 -5.12146e-07 4.16747e-08)
(-2.76281e-07 -5.27115e-07 3.96215e-08)
(-3.58713e-07 -5.46931e-07 3.67417e-08)
(-4.16073e-07 -5.687e-07 3.32813e-08)
(-4.45636e-07 -5.89473e-07 2.96292e-08)
(-4.47576e-07 -6.06441e-07 2.60198e-08)
(-4.24294e-07 -6.1654e-07 2.26821e-08)
(-3.79859e-07 -6.16678e-07 1.97911e-08)
(-3.19654e-07 -6.03613e-07 1.74253e-08)
(-2.49874e-07 -5.73684e-07 1.55827e-08)
(-1.77094e-07 -5.22377e-07 1.41289e-08)
(-1.07578e-07 -4.43465e-07 1.2726e-08)
(-4.8342e-08 -3.26591e-07 1.05553e-08)
(-5.77618e-09 -1.51579e-07 5.62048e-09)
(6.07622e-09 -2.07235e-07 6.0971e-09)
(5.13553e-08 -4.40788e-07 1.13977e-08)
(1.14151e-07 -5.93963e-07 1.3693e-08)
(1.87324e-07 -6.97691e-07 1.5179e-08)
(2.63498e-07 -7.66569e-07 1.67502e-08)
(3.36236e-07 -8.08863e-07 1.87953e-08)
(3.98909e-07 -8.30338e-07 2.14058e-08)
(4.45276e-07 -8.35468e-07 2.46249e-08)
(4.69815e-07 -8.2817e-07 2.83337e-08)
(4.68311e-07 -8.12072e-07 3.23564e-08)
(4.38251e-07 -7.90794e-07 3.64077e-08)
(3.79035e-07 -7.67729e-07 4.02788e-08)
(2.9289e-07 -7.46155e-07 4.36351e-08)
(1.85512e-07 -7.28972e-07 4.593e-08)
(6.48061e-08 -7.19791e-07 4.70637e-08)
(-6.09745e-08 -7.19833e-07 4.71389e-08)
(-1.82285e-07 -7.29167e-07 4.59154e-08)
(-2.89475e-07 -7.45976e-07 4.36505e-08)
(-3.75629e-07 -7.67668e-07 4.04085e-08)
(-4.35212e-07 -7.90729e-07 3.65294e-08)
(-4.65807e-07 -8.12003e-07 3.2455e-08)
(-4.67817e-07 -8.28129e-07 2.84184e-08)
(-4.43727e-07 -8.35478e-07 2.47e-08)
(-3.97775e-07 -8.30384e-07 2.1482e-08)
(-3.3545e-07 -8.08943e-07 1.88472e-08)
(-2.63009e-07 -7.66666e-07 1.67898e-08)
(-1.87099e-07 -6.97786e-07 1.51583e-08)
(-1.14127e-07 -5.93941e-07 1.35898e-08)
(-5.14864e-08 -4.4054e-07 1.1246e-08)
(-6.16896e-09 -2.07565e-07 6.00625e-09)
(6.19279e-09 -2.65424e-07 6.23891e-09)
(5.24431e-08 -5.59686e-07 1.16554e-08)
(1.16453e-07 -7.5071e-07 1.40274e-08)
(1.90782e-07 -8.80215e-07 1.55904e-08)
(2.67929e-07 -9.67599e-07 1.72546e-08)
(3.41472e-07 -1.02348e-06 1.94493e-08)
(4.04849e-07 -1.05491e-06 2.22846e-08)
(4.51881e-07 -1.06722e-06 2.57967e-08)
(4.77016e-07 -1.06488e-06 2.98611e-08)
(4.75924e-07 -1.05197e-06 3.43055e-08)
(4.45971e-07 -1.03256e-06 3.88084e-08)
(3.8633e-07 -1.01043e-06 4.30756e-08)
(2.98735e-07 -9.88878e-07 4.68389e-08)
(1.89099e-07 -9.70644e-07 4.9407e-08)
(6.59983e-08 -9.6089e-07 5.06558e-08)
(-6.22352e-08 -9.611e-07 5.078e-08)
(-1.85974e-07 -9.71166e-07 4.9413e-08)
(-2.95383e-07 -9.88839e-07 4.68983e-08)
(-3.82921e-07 -1.01048e-06 4.32113e-08)
(-4.42935e-07 -1.0326e-06 3.8922e-08)
(-4.73405e-07 -1.05198e-06 3.44013e-08)
(-4.75003e-07 -1.0649e-06 2.9945e-08)
(-4.50312e-07 -1.0673e-06 2.58694e-08)
(-4.03685e-07 -1.05503e-06 2.23618e-08)
(-3.40644e-07 -1.02361e-06 1.95035e-08)
(-2.67395e-07 -9.67711e-07 1.72753e-08)
(-1.9051e-07 -8.80228e-07 1.55313e-08)
(-1.164e-07 -7.50452e-07 1.38943e-08)
(-5.25672e-08 -5.59176e-07 1.15022e-08)
(-6.29352e-09 -2.65915e-07 6.15914e-09)
(6.09266e-09 -3.23737e-07 6.13803e-09)
(5.15756e-08 -6.78831e-07 1.14587e-08)
(1.14448e-07 -9.07906e-07 1.38166e-08)
(1.87373e-07 -1.06345e-06 1.54344e-08)
(2.6303e-07 -1.1698e-06 1.71591e-08)
(3.35203e-07 -1.24023e-06 1.94159e-08)
(3.97536e-07 -1.28314e-06 2.23897e-08)
(4.44051e-07 -1.30461e-06 2.61119e-08)
(4.69307e-07 -1.30959e-06 3.04506e-08)
(4.68918e-07 -1.30247e-06 3.52424e-08)
(4.40128e-07 -1.28755e-06 4.01384e-08)
(3.81983e-07 -1.26868e-06 4.47486e-08)
(2.9567e-07 -1.24921e-06 4.88144e-08)
(1.87011e-07 -1.23158e-06 5.16829e-08)
(6.52885e-08 -1.2224e-06 5.31387e-08)
(-6.16301e-08 -1.22264e-06 5.32588e-08)
(-1.8398e-07 -1.23201e-06 5.16296e-08)
(-2.92402e-07 -1.24911e-06 4.88589e-08)
(-3.78598e-07 -1.26878e-06 4.48703e-08)
(-4.37158e-07 -1.28769e-06 4.02417e-08)
(-4.66437e-07 -1.30258e-06 3.53412e-08)
(-4.67334e-07 -1.3097e-06 3.05382e-08)
(-4.42516e-07 -1.30479e-06 2.61844e-08)
(-3.96373e-07 -1.28338e-06 2.24609e-08)
(-3.34356e-07 -1.24046e-06 1.9446e-08)
(-2.62479e-07 -1.16989e-06 1.71075e-08)
(-1.87066e-07 -1.06319e-06 1.53106e-08)
(-1.14346e-07 -9.072e-07 1.3665e-08)
(-5.16487e-08 -6.77991e-07 1.1311e-08)
(-6.17414e-09 -3.24317e-07 6.05643e-09)
(5.77199e-09 -3.79955e-07 5.7647e-09)
(4.87117e-08 -7.9371e-07 1.07646e-08)
(1.08026e-07 -1.05974e-06 1.29893e-08)
(1.76796e-07 -1.24089e-06 1.46064e-08)
(2.48205e-07 -1.36612e-06 1.63851e-08)
(3.16457e-07 -1.45145e-06 1.8654e-08)
(3.75628e-07 -1.50694e-06 2.16428e-08)
(4.20106e-07 -1.53928e-06 2.54347e-08)
(4.44734e-07 -1.55374e-06 2.98778e-08)
(4.45196e-07 -1.55487e-06 3.48355e-08)
(4.18626e-07 -1.54698e-06 3.99543e-08)
(3.63933e-07 -1.53373e-06 4.48011e-08)
(2.81948e-07 -1.51818e-06 4.89417e-08)
(1.78174e-07 -1.50289e-06 5.20053e-08)
(6.223e-08 -1.49546e-06 5.36932e-08)
(-5.8896e-08 -1.49568e-06 5.3816e-08)
(-1.75395e-07 -1.50297e-06 5.19472e-08)
(-2.78727e-07 -1.51733e-06 4.89627e-08)
(-3.60552e-07 -1.53328e-06 4.49228e-08)
(-4.15742e-07 -1.54703e-06 4.00487e-08)
(-4.42747e-07 -1.55504e-06 3.4938e-08)
(-4.42815e-07 -1.55394e-06 2.9964e-08)
(-4.18633e-07 -1.5396e-06 2.55007e-08)
(-3.74484e-07 -1.50735e-06 2.17199e-08)
(-3.15591e-07 -1.45175e-06 1.86765e-08)
(-2.47603e-07 -1.36595e-06 1.6335e-08)
(-1.76394e-07 -1.2401e-06 1.45775e-08)
(-1.07788e-07 -1.05852e-06 1.29998e-08)
(-4.86768e-08 -7.92639e-07 1.07765e-08)
(-5.8107e-09 -3.80642e-07 5.75806e-09)
(5.22563e-09 -4.31747e-07 5.14349e-09)
(4.37942e-08 -8.9942e-07 9.64677e-09)
(9.70867e-08 -1.19977e-06 1.16284e-08)
(1.58811e-07 -1.40528e-06 1.31162e-08)
(2.22977e-07 -1.54878e-06 1.48756e-08)
(2.8448e-07 -1.64871e-06 1.70981e-08)
(3.38099e-07 -1.71719e-06 1.99704e-08)
(3.78727e-07 -1.76148e-06 2.36185e-08)
(4.01697e-07 -1.78694e-06 2.78877e-08)
(4.02901e-07 -1.7981e-06 3.27339e-08)
(3.7937e-07 -1.79903e-06 3.78079e-08)
(3.30125e-07 -1.79282e-06 4.26444e-08)
(2.56033e-07 -1.78293e-06 4.66423e-08)
(1.62003e-07 -1.77239e-06 4.97273e-08)
(5.66481e-08 -1.76748e-06 5.14832e-08)
(-5.36626e-08 -1.76775e-06 5.16393e-08)
(-1.59475e-07 -1.77234e-06 4.97397e-08)
(-2.52966e-07 -1.78192e-06 4.65661e-08)
(-3.27126e-07 -1.79255e-06 4.26519e-08)
(-3.76853e-07 -1.7992e-06 3.78118e-08)
(-4.00593e-07 -1.79838e-06 3.28241e-08)
(-3.9989e-07 -1.78718e-06 2.79806e-08)
(-3.77384e-07 -1.76189e-06 2.3675e-08)
(-3.37067e-07 -1.71778e-06 2.0061e-08)
(-2.83736e-07 -1.64892e-06 1.71236e-08)
(-2.22447e-07 -1.54787e-06 1.48217e-08)
(-1.58365e-07 -1.40348e-06 1.30547e-08)
(-9.67021e-08 -1.19777e-06 1.15181e-08)
(-4.36293e-08 -8.9792e-07 9.52364e-09)
(-5.17817e-09 -4.32337e-07 5.11721e-09)
(4.42594e-09 -4.76819e-07 4.28022e-09)
(3.67579e-08 -9.90949e-07 8.05566e-09)
(8.1439e-08 -1.32077e-06 9.75576e-09)
(1.33416e-07 -1.5481e-06 1.1094e-08)
(1.8747e-07 -1.70874e-06 1.27117e-08)
(2.39304e-07 -1.82266e-06 1.48028e-08)
(2.84776e-07 -1.90373e-06 1.74284e-08)
(3.19539e-07 -1.96015e-06 2.06739e-08)
(3.39627e-07 -1.99713e-06 2.44104e-08)
(3.41265e-07 -2.01869e-06 2.87134e-08)
(3.21638e-07 -2.02836e-06 3.32058e-08)
(2.79952e-07 -2.02985e-06 3.74948e-08)
(2.17218e-07 -2.02734e-06 4.12314e-08)
(1.37837e-07 -2.02341e-06 4.42284e-08)
(4.82664e-08 -2.0216e-06 4.59045e-08)
(-4.5717e-08 -2.02174e-06 4.60694e-08)
(-1.35745e-07 -2.02314e-06 4.44329e-08)
(-2.14738e-07 -2.02718e-06 4.14934e-08)
(-2.77608e-07 -2.03187e-06 3.7991e-08)
(-3.19465e-07 -2.02999e-06 3.35119e-08)
(-3.39118e-07 -2.01935e-06 2.89156e-08)
(-3.37984e-07 -1.99728e-06 2.44547e-08)
(-3.18411e-07 -1.96049e-06 2.04685e-08)
(-2.83881e-07 -1.90427e-06 1.71276e-08)
(-2.38588e-07 -1.82243e-06 1.44438e-08)
(-1.86787e-07 -1.70705e-06 1.23999e-08)
(-1.32822e-07 -1.54572e-06 1.0896e-08)
(-8.10892e-08 -1.31864e-06 9.64949e-09)
(-3.66394e-08 -9.89184e-07 8.0192e-09)
(-4.3677e-09 -4.77208e-07 4.34177e-09)
(3.46276e-09 -5.12751e-07 3.12047e-09)
(2.80948e-08 -1.06361e-06 5.83623e-09)
(6.17724e-08 -1.41667e-06 7.141e-09)
(1.01215e-07 -1.6615e-06 8.1762e-09)
(1.42371e-07 -1.83663e-06 9.35946e-09)
(1.81922e-07 -1.96327e-06 1.09823e-08)
(2.1667e-07 -2.05577e-06 1.31447e-08)
(2.43368e-07 -2.12312e-06 1.5931e-08)
(2.59308e-07 -2.17057e-06 1.91335e-08)
(2.61166e-07 -2.20133e-06 2.26469e-08)
(2.46164e-07 -2.21938e-06 2.60757e-08)
(2.14051e-07 -2.22992e-06 2.95101e-08)
(1.66451e-07 -2.236e-06 3.28291e-08)
(1.06132e-07 -2.23786e-06 3.53206e-08)
(3.74212e-08 -2.23847e-06 3.66002e-08)
(-3.46835e-08 -2.23784e-06 3.64941e-08)
(-1.04004e-07 -2.23609e-06 3.51041e-08)
(-1.64575e-07 -2.23471e-06 3.26198e-08)
(-2.12644e-07 -2.23226e-06 2.96308e-08)
(-2.44354e-07 -2.22127e-06 2.60708e-08)
(-2.59037e-07 -2.20181e-06 2.24687e-08)
(-2.57819e-07 -2.17029e-06 1.89783e-08)
(-2.42504e-07 -2.12308e-06 1.58308e-08)
(-2.15884e-07 -2.05584e-06 1.31582e-08)
(-1.81308e-07 -1.96261e-06 1.1021e-08)
(-1.41935e-07 -1.83522e-06 9.42098e-09)
(-1.00966e-07 -1.66039e-06 8.27263e-09)
(-6.16352e-08 -1.41643e-06 7.3325e-09)
(-2.78193e-08 -1.0632e-06 6.08961e-09)
(-3.32609e-09 -5.13635e-07 3.27397e-09)
(2.19473e-09 -5.38401e-07 2.027e-09)
(1.77583e-08 -1.11495e-06 3.75428e-09)
(3.89981e-08 -1.48448e-06 4.48773e-09)
(6.39432e-08 -1.74071e-06 5.02544e-09)
(8.97559e-08 -1.9255e-06 5.71983e-09)
(1.14529e-07 -2.06145e-06 6.78284e-09)
(1.3633e-07 -2.16272e-06 8.23452e-09)
(1.53019e-07 -2.23852e-06 1.0125e-08)
(1.63259e-07 -2.29417e-06 1.23511e-08)
(1.64879e-07 -2.33232e-06 1.47109e-08)
(1.55601e-07 -2.35842e-06 1.70459e-08)
(1.35556e-07 -2.37726e-06 1.94926e-08)
(1.05751e-07 -2.39022e-06 2.17624e-08)
(6.76538e-08 -2.39656e-06 2.34526e-08)
(2.417e-08 -2.39886e-06 2.42236e-08)
(-2.13712e-08 -2.39656e-06 2.38253e-08)
(-6.54413e-08 -2.3916e-06 2.27438e-08)
(-1.03655e-07 -2.38541e-06 2.0898e-08)
(-1.33897e-07 -2.37577e-06 1.85821e-08)
(-1.54202e-07 -2.35675e-06 1.60625e-08)
(-1.63702e-07 -2.32963e-06 1.36936e-08)
(-1.62878e-07 -2.29053e-06 1.16258e-08)
(-1.53057e-07 -2.23617e-06 9.814e-09)
(-1.36111e-07 -2.16232e-06 8.30905e-09)
(-1.14116e-07 -2.06205e-06 7.08336e-09)
(-8.91575e-08 -1.92627e-06 6.09351e-09)
(-6.33302e-08 -1.74147e-06 5.36453e-09)
(-3.86159e-08 -1.48518e-06 4.74533e-09)
(-1.74206e-08 -1.11503e-06 3.916e-09)
(-2.10033e-09 -5.39076e-07 2.05919e-09)
(8.09484e-10 -5.51808e-07 6.39864e-10)
(6.21851e-09 -1.14134e-06 1.2758e-09)
(1.35824e-08 -1.52004e-06 1.60354e-09)
(2.24357e-08 -1.78278e-06 1.81947e-09)
(3.15402e-08 -1.97289e-06 2.10353e-09)
(4.03307e-08 -2.11333e-06 2.54758e-09)
(4.82941e-08 -2.21807e-06 3.07404e-09)
(5.44688e-08 -2.29659e-06 3.6063e-09)
(5.81775e-08 -2.35593e-06 4.29387e-09)
(5.87292e-08 -2.39967e-06 5.23661e-09)
(5.54117e-08 -2.432e-06 6.21791e-09)
(4.84559e-08 -2.45575e-06 7.12502e-09)
(3.7834e-08 -2.47172e-06 7.82353e-09)
(2.43189e-08 -2.48076e-06 8.56176e-09)
(9.12517e-09 -2.48512e-06 8.9161e-09)
(-6.94274e-09 -2.48281e-06 8.63162e-09)
(-2.30654e-08 -2.47659e-06 8.27706e-09)
(-3.6509e-08 -2.46802e-06 7.60447e-09)
(-4.69504e-08 -2.45477e-06 6.64932e-09)
(-5.40726e-08 -2.43108e-06 5.71212e-09)
(-5.74028e-08 -2.39823e-06 4.85226e-09)
(-5.7244e-08 -2.35351e-06 4.09755e-09)
(-5.39549e-08 -2.29472e-06 3.39761e-09)
(-4.81121e-08 -2.21757e-06 2.83606e-09)
(-4.03658e-08 -2.11394e-06 2.42591e-09)
(-3.14602e-08 -1.97396e-06 2.08764e-09)
(-2.22711e-08 -1.78394e-06 1.83051e-09)
(-1.35243e-08 -1.52117e-06 1.61655e-09)
(-6.05599e-09 -1.14208e-06 1.37187e-09)
(-6.93623e-10 -5.52352e-07 7.35366e-10)
(-5.82323e-10 -5.52356e-07 -6.86657e-10)
(-5.40716e-09 -1.14232e-06 -1.24432e-09)
(-1.21568e-08 -1.52157e-06 -1.46099e-09)
(-1.98377e-08 -1.78456e-06 -1.64411e-09)
(-2.7883e-08 -1.97487e-06 -1.87888e-09)
(-3.56302e-08 -2.11563e-06 -2.21172e-09)
(-4.24685e-08 -2.22075e-06 -2.64487e-09)
(-4.78613e-08 -2.2996e-06 -3.1822e-09)
(-5.10093e-08 -2.35892e-06 -3.85926e-09)
(-5.11744e-08 -2.40228e-06 -4.61055e-09)
(-4.7982e-08 -2.43446e-06 -5.54933e-09)
(-4.16821e-08 -2.45818e-06 -6.58674e-09)
(-3.28199e-08 -2.47384e-06 -7.45102e-09)
(-2.14045e-08 -2.48317e-06 -7.7893e-09)
(-7.62651e-09 -2.48743e-06 -7.81923e-09)
(7.14932e-09 -2.48486e-06 -7.71134e-09)
(2.06881e-08 -2.47949e-06 -7.19673e-09)
(3.32174e-08 -2.47118e-06 -6.56947e-09)
(4.28015e-08 -2.45728e-06 -6.02148e-09)
(4.8663e-08 -2.43344e-06 -5.15603e-09)
(5.17268e-08 -2.40062e-06 -4.2437e-09)
(5.16829e-08 -2.35577e-06 -3.3883e-09)
(4.87753e-08 -2.29681e-06 -2.85064e-09)
(4.34414e-08 -2.21929e-06 -2.51257e-09)
(3.63217e-08 -2.11527e-06 -2.1678e-09)
(2.8402e-08 -1.97498e-06 -1.89599e-09)
(2.01988e-08 -1.78472e-06 -1.66734e-09)
(1.23458e-08 -1.52182e-06 -1.44582e-09)
(5.62991e-09 -1.1426e-06 -1.11794e-09)
(7.27665e-10 -5.52644e-07 -5.62391e-10)
(-2.02147e-09 -5.39828e-07 -2.0005e-09)
(-1.68676e-08 -1.11673e-06 -3.78909e-09)
(-3.73883e-08 -1.48768e-06 -4.60522e-09)
(-6.12336e-08 -1.74459e-06 -5.21766e-09)
(-8.61714e-08 -1.93007e-06 -5.93344e-09)
(-1.10235e-07 -2.06695e-06 -6.89434e-09)
(-1.31329e-07 -2.16887e-06 -8.16217e-09)
(-1.47473e-07 -2.24465e-06 -9.81516e-09)
(-1.56909e-07 -2.30044e-06 -1.187e-08)
(-1.57969e-07 -2.33893e-06 -1.40248e-08)
(-1.48891e-07 -2.36555e-06 -1.64087e-08)
(-1.29604e-07 -2.38469e-06 -1.89293e-08)
(-1.0137e-07 -2.39772e-06 -2.11041e-08)
(-6.51326e-08 -2.40542e-06 -2.24912e-08)
(-2.27902e-08 -2.4084e-06 -2.30261e-08)
(2.17366e-08 -2.40515e-06 -2.27147e-08)
(6.37663e-08 -2.40119e-06 -2.16954e-08)
(1.01272e-07 -2.39561e-06 -2.00477e-08)
(1.30171e-07 -2.38404e-06 -1.8193e-08)
(1.4893e-07 -2.36416e-06 -1.57942e-08)
(1.58404e-07 -2.33664e-06 -1.35122e-08)
(1.57582e-07 -2.29718e-06 -1.13044e-08)
(1.47767e-07 -2.24182e-06 -9.40281e-09)
(1.31455e-07 -2.1668e-06 -7.81805e-09)
(1.1037e-07 -2.06601e-06 -6.52424e-09)
(8.65564e-08 -1.92993e-06 -5.55941e-09)
(6.16723e-08 -1.74477e-06 -4.8269e-09)
(3.77421e-08 -1.4882e-06 -4.25666e-09)
(1.72129e-08 -1.11743e-06 -3.5017e-09)
(2.17101e-09 -5.40018e-07 -1.89391e-09)
(-3.30513e-09 -5.1499e-07 -3.18375e-09)
(-2.73729e-08 -1.0662e-06 -5.94734e-09)
(-6.05347e-08 -1.42067e-06 -7.20771e-09)
(-9.91454e-08 -1.66553e-06 -8.13964e-09)
(-1.39387e-07 -1.84119e-06 -9.2593e-09)
(-1.78114e-07 -1.9695e-06 -1.07968e-08)
(-2.12142e-07 -2.06371e-06 -1.28451e-08)
(-2.38316e-07 -2.13206e-06 -1.54978e-08)
(-2.53564e-07 -2.18054e-06 -1.87267e-08)
(-2.55107e-07 -2.21211e-06 -2.21336e-08)
(-2.40485e-07 -2.23076e-06 -2.56371e-08)
(-2.09083e-07 -2.24158e-06 -2.90094e-08)
(-1.62856e-07 -2.24825e-06 -3.21203e-08)
(-1.04252e-07 -2.25176e-06 -3.44593e-08)
(-3.65151e-08 -2.25319e-06 -3.56458e-08)
(3.46747e-08 -2.25064e-06 -3.53604e-08)
(1.02551e-07 -2.24921e-06 -3.40119e-08)
(1.62806e-07 -2.24838e-06 -3.17013e-08)
(2.09501e-07 -2.24206e-06 -2.88593e-08)
(2.40346e-07 -2.22969e-06 -2.53875e-08)
(2.55458e-07 -2.21037e-06 -2.19512e-08)
(2.54397e-07 -2.17947e-06 -1.85739e-08)
(2.38993e-07 -2.1321e-06 -1.55625e-08)
(2.12732e-07 -2.06429e-06 -1.29108e-08)
(1.78541e-07 -1.97077e-06 -1.07829e-08)
(1.39638e-07 -1.84278e-06 -9.17582e-09)
(9.92282e-08 -1.66678e-06 -7.87637e-09)
(6.07162e-08 -1.42184e-06 -6.87331e-09)
(2.77025e-08 -1.06739e-06 -5.62468e-09)
(3.46503e-09 -5.14889e-07 -3.03087e-09)
(-4.40262e-09 -4.79154e-07 -4.20302e-09)
(-3.63788e-08 -9.93459e-07 -7.84295e-09)
(-8.03052e-08 -1.32429e-06 -9.53544e-09)
(-1.31527e-07 -1.55232e-06 -1.08158e-08)
(-1.8494e-07 -1.71458e-06 -1.23104e-08)
(-2.36297e-07 -1.83095e-06 -1.43342e-08)
(-2.81278e-07 -1.91377e-06 -1.69916e-08)
(-3.156e-07 -1.97108e-06 -2.02791e-08)
(-3.35265e-07 -2.0091e-06 -2.4174e-08)
(-3.36799e-07 -2.03188e-06 -2.84171e-08)
(-3.17427e-07 -2.04257e-06 -3.29016e-08)
(-2.76108e-07 -2.04471e-06 -3.70979e-08)
(-2.14444e-07 -2.04308e-06 -4.07584e-08)
(-1.36479e-07 -2.0411e-06 -4.37012e-08)
(-4.73393e-08 -2.04054e-06 -4.54652e-08)
(4.58565e-08 -2.03898e-06 -4.53237e-08)
(1.34938e-07 -2.04042e-06 -4.36697e-08)
(2.14245e-07 -2.04488e-06 -4.07171e-08)
(2.76193e-07 -2.04568e-06 -3.70614e-08)
(3.17127e-07 -2.04215e-06 -3.29541e-08)
(3.36658e-07 -2.03122e-06 -2.85037e-08)
(3.35682e-07 -2.0092e-06 -2.41271e-08)
(3.16141e-07 -1.97165e-06 -2.03825e-08)
(2.81824e-07 -1.91433e-06 -1.72027e-08)
(2.3679e-07 -1.83189e-06 -1.46425e-08)
(1.8541e-07 -1.71651e-06 -1.26406e-08)
(1.31917e-07 -1.55533e-06 -1.09925e-08)
(8.05243e-08 -1.32804e-06 -9.63501e-09)
(3.64282e-08 -9.96604e-07 -7.91292e-09)
(4.40122e-09 -4.79252e-07 -4.20822e-09)
(-5.19007e-09 -4.34421e-07 -5.10186e-09)
(-4.34237e-08 -9.0292e-07 -9.5306e-09)
(-9.61089e-08 -1.20411e-06 -1.15287e-08)
(-1.57502e-07 -1.41087e-06 -1.30292e-08)
(-2.21344e-07 -1.55636e-06 -1.47467e-08)
(-2.82534e-07 -1.6585e-06 -1.70275e-08)
(-3.35833e-07 -1.72849e-06 -1.99489e-08)
(-3.76188e-07 -1.77383e-06 -2.3554e-08)
(-3.98901e-07 -1.80041e-06 -2.78585e-08)
(-4.00022e-07 -1.81275e-06 -3.26462e-08)
(-3.76632e-07 -1.81467e-06 -3.77092e-08)
(-3.27626e-07 -1.80937e-06 -4.24895e-08)
(-2.54293e-07 -1.80035e-06 -4.64833e-08)
(-1.6125e-07 -1.79184e-06 -4.95784e-08)
(-5.55819e-08 -1.78783e-06 -5.15907e-08)
(5.4282e-08 -1.78668e-06 -5.15623e-08)
(1.59585e-07 -1.79134e-06 -4.98719e-08)
(2.53367e-07 -1.80164e-06 -4.67465e-08)
(3.27021e-07 -1.8101e-06 -4.2518e-08)
(3.76189e-07 -1.81503e-06 -3.77626e-08)
(3.99846e-07 -1.81298e-06 -3.26913e-08)
(3.99127e-07 -1.80084e-06 -2.78144e-08)
(3.76529e-07 -1.77445e-06 -2.35355e-08)
(3.36249e-07 -1.72919e-06 -1.98919e-08)
(2.82959e-07 -1.65947e-06 -1.69863e-08)
(2.21785e-07 -1.55813e-06 -1.48058e-08)
(1.58014e-07 -1.41406e-06 -1.3094e-08)
(9.65929e-08 -1.20834e-06 -1.15548e-08)
(4.37256e-08 -9.0632e-07 -9.53715e-09)
(5.25755e-09 -4.34443e-07 -5.08729e-09)
(-5.77912e-09 -3.82677e-07 -5.77605e-09)
(-4.85574e-08 -7.97909e-07 -1.07848e-08)
(-1.07594e-07 -1.06508e-06 -1.30026e-08)
(-1.76176e-07 -1.24782e-06 -1.45789e-08)
(-2.47391e-07 -1.3749e-06 -1.63204e-08)
(-3.15508e-07 -1.46187e-06 -1.86474e-08)
(-3.74573e-07 -1.51861e-06 -2.1694e-08)
(-4.18953e-07 -1.55202e-06 -2.54775e-08)
(-4.43454e-07 -1.56755e-06 -2.99483e-08)
(-4.43826e-07 -1.56976e-06 -3.48956e-08)
(-4.17202e-07 -1.56287e-06 -4.0047e-08)
(-3.62577e-07 -1.55081e-06 -4.49501e-08)
(-2.8129e-07 -1.53665e-06 -4.91503e-08)
(-1.78168e-07 -1.52325e-06 -5.22046e-08)
(-6.13662e-08 -1.51569e-06 -5.4008e-08)
(5.97413e-08 -1.51469e-06 -5.38416e-08)
(1.76294e-07 -1.52201e-06 -5.22187e-08)
(2.79939e-07 -1.53638e-06 -4.9168e-08)
(3.61649e-07 -1.55072e-06 -4.48655e-08)
(4.16571e-07 -1.56302e-06 -4.0034e-08)
(4.43492e-07 -1.56998e-06 -3.49045e-08)
(4.43444e-07 -1.56797e-06 -2.99403e-08)
(4.19132e-07 -1.5526e-06 -2.54771e-08)
(3.74916e-07 -1.51931e-06 -2.16693e-08)
(3.15968e-07 -1.46272e-06 -1.86293e-08)
(2.47901e-07 -1.37604e-06 -1.63525e-08)
(1.76626e-07 -1.2497e-06 -1.46521e-08)
(1.07862e-07 -1.06782e-06 -1.30759e-08)
(4.86688e-08 -8.0042e-07 -1.08276e-08)
(5.75423e-09 -3.82726e-07 -5.78025e-09)
(-6.12764e-09 -3.26458e-07 -6.13178e-09)
(-5.16283e-08 -6.83142e-07 -1.13888e-08)
(-1.14545e-07 -9.13737e-07 -1.36966e-08)
(-1.87466e-07 -1.07092e-06 -1.53381e-08)
(-2.63105e-07 -1.17878e-06 -1.7135e-08)
(-3.35305e-07 -1.25044e-06 -1.94777e-08)
(-3.97681e-07 -1.29441e-06 -2.25081e-08)
(-4.44217e-07 -1.31688e-06 -2.62476e-08)
(-4.69435e-07 -1.32283e-06 -3.06286e-08)
(-4.68952e-07 -1.31668e-06 -3.54419e-08)
(-4.39971e-07 -1.30266e-06 -4.03854e-08)
(-3.81713e-07 -1.28482e-06 -4.5075e-08)
(-2.95858e-07 -1.26646e-06 -4.91721e-08)
(-1.87374e-07 -1.25038e-06 -5.20683e-08)
(-6.4526e-08 -1.24095e-06 -5.36619e-08)
(6.27421e-08 -1.24043e-06 -5.35447e-08)
(1.85459e-07 -1.24967e-06 -5.21223e-08)
(2.94324e-07 -1.2664e-06 -4.92048e-08)
(3.80636e-07 -1.28493e-06 -4.50718e-08)
(4.39224e-07 -1.30289e-06 -4.04272e-08)
(4.68512e-07 -1.31698e-06 -3.54844e-08)
(4.69281e-07 -1.32325e-06 -3.06582e-08)
(4.44269e-07 -1.31743e-06 -2.62761e-08)
(3.97892e-07 -1.2951e-06 -2.25258e-08)
(3.35623e-07 -1.25127e-06 -1.94996e-08)
(2.63474e-07 -1.1798e-06 -1.71883e-08)
(1.87754e-07 -1.07225e-06 -1.54879e-08)
(1.14641e-07 -9.15578e-07 -1.3951e-08)
(5.16288e-08 -6.85122e-07 -1.16196e-08)
(6.06167e-09 -3.26451e-07 -6.19709e-09)
(-6.23768e-09 -2.68017e-07 -6.26472e-09)
(-5.26391e-08 -5.63801e-07 -1.16344e-08)
(-1.16864e-07 -7.56536e-07 -1.39627e-08)
(-1.91375e-07 -8.87469e-07 -1.55864e-08)
(-2.68706e-07 -9.75985e-07 -1.73365e-08)
(-3.42463e-07 -1.03284e-06 -1.95853e-08)
(-4.06022e-07 -1.06517e-06 -2.24636e-08)
(-4.53172e-07 -1.07832e-06 -2.59984e-08)
(-4.78343e-07 -1.07681e-06 -3.01137e-08)
(-4.77155e-07 -1.06474e-06 -3.4597e-08)
(-4.46894e-07 -1.04608e-06 -3.91622e-08)
(-3.86961e-07 -1.02467e-06 -4.35282e-08)
(-2.9952e-07 -1.00376e-06 -4.73086e-08)
(-1.89825e-07 -9.86765e-07 -4.99632e-08)
(-6.55084e-08 -9.77013e-07 -5.136e-08)
(6.35191e-08 -9.76741e-07 -5.13081e-08)
(1.87718e-07 -9.86339e-07 -5.00197e-08)
(2.97925e-07 -1.00384e-06 -4.72901e-08)
(3.85927e-07 -1.02478e-06 -4.34977e-08)
(4.46137e-07 -1.04622e-06 -3.92048e-08)
(4.76637e-07 -1.06494e-06 -3.4651e-08)
(4.78088e-07 -1.07715e-06 -3.01583e-08)
(4.53128e-07 -1.07878e-06 -2.60394e-08)
(4.06127e-07 -1.06573e-06 -2.24941e-08)
(3.42659e-07 -1.03352e-06 -1.96149e-08)
(2.68956e-07 -9.7678e-07 -1.73783e-08)
(1.91592e-07 -8.88397e-07 -1.56822e-08)
(1.16979e-07 -7.57699e-07 -1.41507e-08)
(5.26662e-08 -5.6521e-07 -1.18125e-08)
(6.20763e-09 -2.67959e-07 -6.30743e-09)
(-6.1449e-09 -2.09398e-07 -6.10815e-09)
(-5.16816e-08 -4.44463e-07 -1.13733e-08)
(-1.14786e-07 -5.99226e-07 -1.36795e-08)
(-1.8831e-07 -7.04106e-07 -1.52449e-08)
(-2.64835e-07 -7.73872e-07 -1.68891e-08)
(-3.37926e-07 -8.16938e-07 -1.89721e-08)
(-4.00892e-07 -8.39119e-07 -2.16304e-08)
(-4.47466e-07 -8.44915e-07 -2.48814e-08)
(-4.72109e-07 -8.38252e-07 -2.86471e-08)
(-4.70509e-07 -8.2278e-07 -3.27245e-08)
(-4.40051e-07 -8.02081e-07 -3.68749e-08)
(-3.80386e-07 -7.79511e-07 -4.08539e-08)
(-2.94173e-07 -7.58404e-07 -4.42326e-08)
(-1.86548e-07 -7.42126e-07 -4.66038e-08)
(-6.44687e-08 -7.33074e-07 -4.78476e-08)
(6.24914e-08 -7.32717e-07 -4.78113e-08)
(1.84346e-07 -7.41567e-07 -4.65969e-08)
(2.92537e-07 -7.58328e-07 -4.41608e-08)
(3.79319e-07 -7.79487e-07 -4.07735e-08)
(4.39233e-07 -8.02113e-07 -3.68827e-08)
(4.69904e-07 -8.22915e-07 -3.27728e-08)
(4.71765e-07 -8.38504e-07 -2.86906e-08)
(4.47349e-07 -8.4527e-07 -2.49213e-08)
(4.00926e-07 -8.39556e-07 -2.16593e-08)
(3.38051e-07 -8.17454e-07 -1.89985e-08)
(2.65024e-07 -7.74466e-07 -1.69163e-08)
(1.88507e-07 -7.04777e-07 -1.52872e-08)
(1.1494e-07 -5.9999e-07 -1.37676e-08)
(5.16964e-08 -4.45379e-07 -1.15005e-08)
(6.10652e-09 -2.09464e-07 -6.15075e-09)
(-5.78584e-09 -1.53032e-07 -5.68882e-09)
(-4.86484e-08 -3.29706e-07 -1.06445e-08)
(-1.08397e-07 -4.47724e-07 -1.28107e-08)
(-1.78548e-07 -5.27495e-07 -1.42227e-08)
(-2.52026e-07 -5.79501e-07 -1.56949e-08)
(-3.22548e-07 -6.10035e-07 -1.75584e-08)
(-3.83477e-07 -6.2366e-07 -1.99556e-08)
(-4.2858e-07 -6.24032e-07 -2.28782e-08)
(-4.52447e-07 -6.14412e-07 -2.62607e-08)
(-4.50907e-07 -5.97893e-07 -2.9909e-08)
(-4.21427e-07 -5.77469e-07 -3.36588e-08)
(-3.6391e-07 -5.56027e-07 -3.72113e-08)
(-2.81327e-07 -5.36647e-07 -4.02152e-08)
(-1.78374e-07 -5.21962e-07 -4.23404e-08)
(-6.16911e-08 -5.14001e-07 -4.34938e-08)
(5.97662e-08 -5.1366e-07 -4.34551e-08)