/*--------------------------------*- C++ -*----------------------------------*\
| =========                 |                                                 |
| \\      /  F ield         | OpenFOAM: The Open Source CFD Toolbox           |
|  \\    /   O peration     | Version:  v1912                                 |
|   \\  /    A nd           | Website:  www.openfoam.com                      |
|    \\/     M anipulation  |                                                 |
\*---------------------------------------------------------------------------*/
FoamFile
{
    version     2.0;
    format      ascii;
    class       volScalarField;
    location    "140/oil";
    object      heatTransferCoeff(T);
}
// * * * * * * * * * * * * * * * * * * * * * * * * * * * * * * * * * * * * * //

dimensions      [1 0 -3 -1 0 0 0];


internalField   uniform 0;

boundaryField
{
    maxY
    {
        type            calculated;
        value           uniform 0;
    }
    minX
    {
        type            calculated;
        value           uniform 0;
    }
    maxX
    {
        type            calculated;
        value           uniform 0;
    }
    minY
    {
        type            calculated;
        value           uniform 0;
    }
    minZ
    {
        type            calculated;
        value           uniform 0;
    }
    maxZ
    {
        type            calculated;
        value           uniform 0;
    }
    oil_to_sphere
    {
        type            calculated;
        value           nonuniform List<scalar> 
360
(
-83.5649
-84.0338
-57.0202
-148.125
-158.076
-66.3309
-162.294
-146.462
-157.673
-82.5106
-82.9519
-66.0522
-73.3117
-51.3917
-80.813
-140.219
-160.057
-148.309
-155.15
-51.1989
-129.034
-82.6886
-72.7921
-153.402
-57.2577
-159.03
-66.1223
-156.683
-155.514
-147.049
-167.089
-163.048
-57.2102
-56.6254
-65.4017
-65.7173
-153.57
-152.456
-148.339
-150.7
-154.542
-56.8245
-64.975
-85.9263
-86.1256
-65.9297
-72.0866
-50.8214
-80.8115
-145.233
-66.533
-65.9947
-72.6789
-72.795
-50.8164
-83.0458
-148.759
-51.1114
-65.1682
-71.6402
-51.1369
-156.317
-148.454
-154.948
-50.8266
-133.991
-80.6621
-70.5966
-162.562
-154.502
-148.87
-152.448
-151.941
-50.8632
-115.132
-80.3403
-51.4697
-69.8167
-152.727
-157.186
-71.4878
-70.2175
-70.4264
-51.1242
-56.8284
-65.5223
-65.8672
-72.9335
-51.1512
-51.497
-56.9266
-73.1091
-65.8429
-56.8309
-72.5321
-65.6176
-65.6323
-65.7413
-56.5718
-51.9463
-51.9463
-51.0905
-66.3864
-66.2382
-73.2946
-51.0907
-51.6054
-73.4531
-56.8145
-66.0201
-65.9531
-65.9469
-56.7103
-50.9702
-52.2119
-52.075
-72.3219
-71.8914
-71.7834
-85.1172
-85.258
-143.044
-152.395
-137.893
-153.748
-143.105
-153.68
-155.663
-144.929
-151.453
-148.893
-71.7643
-71.3031
-71.5674
-51.8428
-142.517
-155.186
-83.7773
-83.9769
-156.676
-144.757
-81.8955
-80.6773
-158.937
-145.786
-168.007
-51.845
-51.723
-153.291
-157.051
-167.553
-159.181
-159.238
-166.052
-167.408
-144.98
-80.2002
-158.282
-150.111
-51.3565
-156.513
-160.514
-70.0155
-68.983
-71.7425
-81.8981
-82.8524
-158.657
-145.967
-165.054
-50.6725
-148.086
-83.2029
-156.749
-149.707
-50.7165
-161.576
-71.0841
-70.9185
-51.7689
-66.0507
-66.1267
-73.1106
-57.1011
-72.6436
-65.4818
-51.1032
-51.8827
-155.509
-145.809
-156.358
-150.384
-85.4493
-85.5095
-153.042
-139.985
-150.503
-81.3995
-81.8921
-51.6663
-65.6279
-66.6725
-73.311
-66.061
-65.7842
-73.3805
-56.7845
-72.8816
-65.5708
-56.3646
-144.573
-73.2664
-65.5779
-51.2967
-152.066
-143.995
-152.048
-84.9197
-84.9216
-50.6725
-65.309
-65.4053
-71.2735
-156.12
-56.3404
-71.072
-65.1778
-147.024
-148.232
-84.38
-51.0065
-83.7279
-50.9937
-52.117
-72.5062
-57.0967
-65.1125
-64.6415
-64.1659
-56.3375
-51.4716
-148.531
-139.297
-156.391
-163.944
-146.687
-138.687
-158.295
-160.037
-81.7958
-150.212
-51.7267
-158.026
-156.146
-156.906
-72.6906
-57.0657
-66.0596
-72.7691
-57.2938
-156.936
-65.5752
-65.5006
-65.9833
-56.6565
-158.765
-146.059
-65.451
-65.4773
-56.5764
-146.548
-165.722
-82.7655
-149.457
-51.1835
-155.8
-153.111
-157.036
-70.5317
-56.546
-154.683
-65.1092
-65.2663
-65.0208
-153.411
-56.738
-150.948
-83.961
-139.577
-84.3753
-147.205
-149.912
-152.845
-51.0874
-69.7166
-68.5752
-69.2856
-84.0764
-153.697
-83.8484
-148.838
-153.266
-51.5624
-154.761
-157.292
-80.5068
-150.709
-51.5401
-165.739
-70.776
-70.3561
-50.5931
-148.729
-83.8607
-132.225
-149.28
-83.7823
-51.1069
-65.725
-65.8014
-73.1736
-154.069
-142.92
-82.5097
-51.7573
-143.879
-83.8021
-51.3319
-144.806
-156.766
-81.3934
-151.291
-50.4819
-163.414
-73.475
-160.862
-56.6934
-65.9244
-161.326
-150.853
-148.108
-82.4165
-157.225
-155.744
-83.071
-149.021
-69.4841
-71.2631
-146.397
-83.4195
-50.8656
-146.234
-83.6135
-51.4253
-150.826
-151.731
-143.454
-83.9633
-148.303
-84.1606
)
;
    }
}


// ************************************************************************* //
