/*--------------------------------*- C++ -*----------------------------------*\
| =========                 |                                                 |
| \\      /  F ield         | OpenFOAM: The Open Source CFD Toolbox           |
|  \\    /   O peration     | Version:  v1906                                 |
|   \\  /    A nd           | Web:      www.OpenFOAM.com                      |
|    \\/     M anipulation  |                                                 |
\*---------------------------------------------------------------------------*/
FoamFile
{
    version     2.0;
    format      ascii;
    class       volScalarField;
    location    "47.8/sphere";
    object      T;
}
// * * * * * * * * * * * * * * * * * * * * * * * * * * * * * * * * * * * * * //

dimensions      [0 0 0 1 0 0 0];


internalField   nonuniform List<scalar> 
304
(
473.837
473.865
473.862
473.879
473.837
473.833
473.835
473.864
473.835
473.983
473.983
473.878
473.862
473.98
473.981
473.907
473.874
473.905
473.833
473.863
473.879
473.835
473.866
473.983
473.982
473.908
473.88
473.981
473.981
473.933
473.83
473.905
473.932
473.867
473.836
473.88
473.908
473.841
473.84
473.908
473.933
473.868
473.834
473.867
473.82
473.824
473.837
473.837
473.839
473.872
473.837
473.837
473.872
473.839
473.824
473.838
473.841
473.838
473.872
473.865
473.865
473.88
473.88
473.91
473.909
473.934
473.836
473.88
473.865
473.909
473.879
473.935
473.909
473.838
473.841
473.872
473.839
473.834
473.834
473.868
473.832
473.878
473.828
473.86
473.906
473.933
473.872
473.904
473.864
473.861
473.831
473.933
473.907
473.906
473.874
473.87
473.836
473.832
473.818
473.831
473.832
473.866
473.832
473.867
473.833
473.831
473.818
473.838
473.835
473.836
473.87
473.864
473.878
473.909
473.863
473.88
473.908
473.935
473.835
473.909
473.879
473.88
473.864
473.935
473.908
473.838
473.836
473.871
473.837
473.879
473.865
473.909
473.865
473.909
473.88
473.935
473.835
473.909
473.866
473.909
473.865
473.934
473.88
473.906
473.829
473.873
473.879
473.933
473.861
473.905
473.863
473.874
473.831
473.933
473.879
473.906
473.861
473.834
473.831
473.867
473.832
473.905
473.832
473.862
473.905
473.932
473.861
473.878
473.874
473.862
473.831
473.932
473.905
473.878
473.861
473.866
473.831
473.831
473.834
473.837
473.871
473.841
473.879
473.908
473.935
473.834
473.863
473.879
473.909
473.863
473.934
473.908
473.864
473.832
473.908
473.876
473.87
473.836
473.836
473.91
473.881
473.935
473.839
473.881
473.867
473.91
473.865
473.934
473.88
473.879
473.837
473.909
473.865
473.934
473.862
473.905
473.865
473.909
473.832
473.875
473.879
473.906
473.862
473.907
473.863
473.874
473.831
473.866
473.832
473.834
473.932
473.861
473.878
473.874
473.906
473.832
473.862
473.906
473.878
473.863
473.906
473.876
473.863
473.835
473.832
473.832
473.835
473.827
473.834
473.839
473.87
473.835
473.87
473.837
473.835
473.823
473.844
473.839
473.874
473.84
473.909
473.91
473.935
473.839
473.865
473.866
473.88
473.878
473.934
473.909
473.864
473.835
473.88
473.865
473.872
473.838
473.837
473.871
473.835
473.836
473.934
473.874
473.905
473.863
473.879
473.83
473.861
473.907
473.906
473.874
473.879
473.863
473.861
473.831
473.834
473.833
473.833
473.821
473.867
473.833
473.832
473.835
473.833
473.832
)
;

boundaryField
{
    sphere_to_oil
    {
        type            compressible::turbulentTemperatureCoupledBaffleMixed;
        refValue        nonuniform List<scalar> 
360
(
339.269
339.269
320.866
361.884
370.495
322.931
371.602
371.602
371.602
346.801
346.801
325.287
328.71
317.942
344.985
360.384
356.663
356.663
356.663
320.226
355.262
332.383
334.463
364.663
316.254
365.044
321.137
364.859
364.859
364.859
372.364
363.859
320.872
320.532
325.053
325.207
357.649
357.649
357.649
356.903
364.704
325.93
325.231
339.566
339.566
320.986
327.572
313.68
337.827
365.431
322.924
322.963
328.228
328.654
320.026
332.28
357.48
320.328
325.318
329.83
318.198
366.159
366.159
366.159
313.709
364.671
337.751
326.11
370.186
370.186
370.186
371.004
369.454
317.208
355.144
344.29
318.815
333.356
364.664
357.747
335.39
325.779
334.879
318.089
320.832
322.659
325.408
328.529
318.444
320.417
320.928
328.009
325.09
321.18
327.783
325.126
325.464
325.488
321.787
315.754
315.837
319.452
322.907
325.117
328.002
319.288
317.913
328.694
321.653
325.552
325.508
325.408
321.797
320.15
313.973
313.926
330.32
326.113
331.698
338.991
338.991
361.884
361.884
364.663
364.663
362.697
362.697
362.697
364.121
364.121
364.121
330.929
326.305
330.302
320.336
370.495
370.495
343.136
343.136
372.364
372.364
341.76
341.76
371.547
371.547
371.547
320.151
319.372
360.862
360.862
360.862
360.742
360.742
360.742
360.384
355.262
344.985
360.384
359.52
319.183
359.52
359.52
334.507
335.223
325.925
332.296
332.296
366.205
366.205
366.205
318.297
355.262
332.383
365.171
365.171
318.173
365.171
335.117
325.829
313.757
321.102
321.397
328.044
316.147
327.601
321.369
313.785
315.696
365.044
365.044
363.859
363.859
339.756
339.756
361.96
361.96
361.96
337.774
337.774
315.624
324.721
323.137
328.19
324.882
322.702
328.129
321.56
328.759
325.555
321.542
356.903
328.723
325.754
320.304
365.608
365.608
365.608
333.221
333.221
318.133
325.403
325.319
329.719
364.704
325.837
329.581
325.502
356.903
364.704
333.115
320.283
333.115
318.517
313.931
327.504
316.218
321.291
321.173
321.43
316.028
315.37
366.111
360.743
366.111
366.111
360.743
360.743
365.431
364.671
337.827
363.404
315.69
365.431
363.404
363.404
327.578
320.462
324.986
327.946
321.142
371.004
324.903
325.399
325.487
321.771
357.48
355.144
325.58
325.325
321.715
356.978
359.701
332.28
365.118
318.37
357.48
365.118
365.118
330.204
325.833
364.664
325.384
325.276
325.178
365.003
325.546
364.717
333.058
356.978
333.058
365.003
356.978
365.003
313.648
326.142
329.722
329.991
338.381
362.012
338.381
362.012
362.012
315.633
364.671
363.1
337.751
363.1
315.616
363.1
331.052
330.627
318.86
369.076
342.428
369.076
369.076
342.428
319.26
322.663
324.862
327.972
369.454
371.004
342.049
320.004
369.454
342.049
319.339
355.144
360.545
344.29
360.545
318.103
360.545
328.813
357.747
321.852
325.703
359.538
357.35
359.701
344.09
359.701
359.538
344.09
359.538
325.348
334.713
364.664
332.384
318.19
357.747
332.384
320.502
364.717
357.35
364.717
332.986
357.35
332.986
)
;
        refGradient     uniform 0;
        valueFraction   nonuniform List<scalar> 
360
(
0.000134665
0.000129192
8.271e-05
0.000295474
0.000303035
0.000173765
0.000304918
0.000261732
0.000407395
0.000129712
0.000126467
0.00016966
0.000258568
7.39301e-05
0.00013225
0.000257082
0.000294609
0.00027527
0.000386265
6.76503e-05
0.000253617
0.00012468
0.000114912
0.000304937
8.85347e-05
0.000313439
0.000176681
0.000309392
0.000404898
0.00027085
0.000309442
0.000312107
8.38074e-05
8.28712e-05
0.00017391
0.000171143
0.000289596
0.000392604
0.000269595
0.00040536
0.00040041
8.54987e-05
0.000169588
0.000123772
0.000123624
0.000174577
0.000261185
6.96829e-05
0.000124685
0.000264391
0.000172218
0.000173336
0.000258376
0.000255865
7.22881e-05
0.000132242
0.000269676
6.92501e-05
0.000171555
0.000255825
6.77834e-05
0.000301169
0.00026586
0.000416099
6.98822e-05
0.000271832
0.000126798
0.000122639
0.000308127
0.000401963
0.000270389
0.00038762
0.000393046
7.50674e-05
0.00026207
0.000132949
6.921e-05
0.000124105
0.000392217
0.000407444
0.000121723
0.000119426
0.000117302
6.97142e-05
8.40677e-05
0.000170437
0.000171392
0.000259555
7.83493e-05
6.61547e-05
8.31999e-05
0.000259132
0.000171067
8.49893e-05
0.000258704
0.000173021
0.000171997
0.000172262
8.40028e-05
6.73328e-05
6.82773e-05
6.73685e-05
0.000173192
0.000170223
0.000258936
7.62341e-05
6.62174e-05
0.000258748
8.21997e-05
0.000170492
0.000170524
0.000174003
8.50854e-05
6.81324e-05
6.64466e-05
6.77303e-05
0.000117894
0.000118036
0.000122622
0.000132965
0.000124969
0.000258216
0.000406773
0.000272049
0.000410514
0.00026314
0.000404558
0.000301217
0.000263353
0.000395752
0.000296651
0.000121
0.000114428
0.000117204
6.47005e-05
0.000268333
0.000404007
0.000124999
0.00012557
0.000408285
0.000271461
0.000131035
0.000138104
0.00040326
0.000277024
0.000319213
7.12069e-05
6.62657e-05
0.000279695
0.000387587
0.000307221
0.000287981
0.000401006
0.000307189
0.000317164
0.000292147
0.000136658
0.000407335
0.000263114
7.33567e-05
0.000395903
0.000296266
0.000113062
0.000119116
0.00011784
0.000124315
0.000129949
0.000405297
0.000266865
0.000313244
7.51066e-05
0.00038988
0.000133688
0.000409967
0.000262447
7.33629e-05
0.000311184
0.000114065
0.000115124
6.72624e-05
0.000176303
0.000176233
0.000260589
8.68986e-05
0.000260983
0.000171723
6.65717e-05
6.46433e-05
0.000407815
0.000259122
0.000403028
0.000268703
0.000128171
0.000119864
0.000404907
0.000253063
0.000292516
0.000118481
0.000137475
6.91623e-05
0.000173204
0.000173047
0.000258546
0.000169288
0.00017016
0.000257528
8.82685e-05
0.000258411
0.000175213
8.58386e-05
0.000290859
0.000258125
0.000174163
6.9409e-05
0.000396062
0.00025676
0.000300411
0.000125156
0.000116307
6.71822e-05
0.000171858
0.000174748
0.000259097
0.00029458
8.23884e-05
0.000256638
0.000167611
0.000254942
0.000269893
0.000122514
6.88139e-05
0.000135948
6.96647e-05
6.55758e-05
0.000261989
8.74313e-05
0.000176131
0.000174095
0.00017202
8.63323e-05
6.59459e-05
0.000267871
0.000251001
0.000421374
0.000313651
0.000393119
0.000282456
0.000302743
0.000309966
0.000137779
0.000265912
7.16428e-05
0.000404651
0.000393463
0.000298948
0.000260744
8.30825e-05
0.00016966
0.000257746
8.38265e-05
0.000307121
0.000170395
0.000171613
0.000170032
8.33192e-05
0.000304833
0.000285655
0.000173475
0.00016899
8.49235e-05
0.000286217
0.000315049
0.000124944
0.000282812
6.71672e-05
0.000402922
0.000390633
0.000295166
0.000255834
8.40433e-05
0.00029563
0.000170228
0.00017049
0.000171461
0.00029724
8.48308e-05
0.000303691
0.000127787
0.00026184
0.000128853
0.000266822
0.000406618
0.000399182
6.71353e-05
0.000134533
0.000132943
0.000130031
0.000118417
0.000396178
0.000129334
0.000263384
0.000310147
6.61569e-05
0.000400046
0.000399563
0.000130802
0.000284099
6.93298e-05
0.000304575
0.000115964
0.000113922
6.92724e-05
0.000391824
0.000117101
0.000256963
0.000302636
0.000125544
6.84388e-05
0.000170293
0.000170235
0.00025688
0.000293933
0.000254946
0.000123262
6.63497e-05
0.000259216
0.000136902
7.66292e-05
0.000375645
0.000403367
0.000119213
0.00025623
7.10395e-05
0.000322248
0.000258849
0.000310134
8.48404e-05
0.000171026
0.000299008
0.000289882
0.000272716
0.000121896
0.000399486
0.000398627
0.0001447
0.000266459
0.000117236
0.000119034
0.000268253
0.000132791
7.17964e-05
0.000271303
0.000127866
6.63032e-05
0.000394863
0.000399604
0.000262926
0.000127599
0.000258267
0.000131806
)
;
        value           nonuniform List<scalar> 
360
(
473.838
473.839
473.844
473.823
473.825
473.858
473.825
473.831
473.819
473.837
473.837
473.856
473.861
473.845
473.839
473.827
473.813
473.818
473.806
473.842
473.822
473.834
473.821
473.821
473.84
473.82
473.857
473.821
473.814
473.826
473.823
473.82
473.842
473.842
473.855
473.857
473.815
473.808
473.819
473.805
473.809
473.839
473.856
473.837
473.84
473.856
473.861
473.843
473.837
473.825
473.859
473.858
473.861
473.862
473.839
473.831
473.818
473.841
473.855
473.861
473.841
473.821
473.825
473.814
473.844
473.826
473.838
473.824
473.826
473.821
473.831
473.821
473.82
473.848
473.828
473.842
473.843
473.823
473.81
473.806
473.823
473.822
473.824
473.842
473.846
473.858
473.858
473.86
473.841
473.841
473.843
473.862
473.86
473.841
473.862
473.858
473.857
473.855
473.837
473.846
473.846
473.847
473.859
473.859
473.862
473.846
473.843
473.86
473.835
473.854
473.858
473.855
473.837
473.84
473.846
473.845
473.827
473.826
473.826
473.838
473.839
473.827
473.813
473.827
473.813
473.827
473.813
473.822
473.827
473.815
473.822
473.826
473.827
473.827
473.848
473.83
473.819
473.841
473.841
473.819
473.83
473.84
473.84
473.819
473.83
473.822
473.847
473.843
473.822
473.807
473.813
473.821
473.806
473.814
473.814
473.816
473.838
473.806
473.825
473.844
473.807
473.816
473.822
473.821
473.82
473.833
473.833
473.807
473.822
473.818
473.839
473.806
473.832
473.808
473.822
473.839
473.817
473.821
473.82
473.844
473.857
473.856
473.861
473.841
473.861
473.858
473.845
473.845
473.813
473.826
473.813
473.826
473.837
473.839
473.812
473.828
473.822
473.839
473.838
473.845
473.859
473.858
473.862
473.86
473.859
473.862
473.835
473.861
473.854
473.837
473.816
473.861
473.855
473.84
473.811
473.824
473.819
473.833
473.835
473.841
473.856
473.855
473.86
473.818
473.838
473.86
473.856
473.82
473.821
473.833
473.84
473.831
473.84
473.843
473.861
473.84
473.856
473.856
473.857
473.838
473.846
473.825
473.828
473.815
473.82
473.816
473.826
473.819
473.818
473.836
473.826
473.844
473.812
473.812
473.823
473.862
473.845
473.861
473.862
473.843
473.825
473.859
473.856
473.86
473.839
473.816
473.818
473.855
473.858
473.837
473.817
473.814
473.833
473.82
473.841
473.807
473.811
473.82
473.861
473.839
473.819
473.857
473.857
473.857
473.822
473.841
473.821
473.834
473.821
473.834
473.823
473.807
473.811
473.843
473.827
473.827
473.828
473.838
473.815
473.837
473.825
473.824
473.844
473.813
473.812
473.837
473.823
473.844
473.82
473.826
473.826
473.848
473.822
473.844
473.832
473.827
473.843
473.849
473.859
473.861
473.862
473.823
473.832
473.841
473.848
473.829
473.838
473.844
473.81
473.809
473.84
473.826
473.844
473.813
473.861
473.813
473.837
473.856
473.816
473.816
473.823
473.838
473.807
473.807
473.834
473.822
473.823
473.824
473.823
473.833
473.841
473.82
473.833
473.841
473.811
473.808
473.824
473.834
473.821
473.832
)
;
        Tnbr            T;
        thicknessLayers 0();
        kappaLayers     0();
        kappaMethod     solidThermo;
        kappa           none;
        alphaAni        none;
    }
}


// ************************************************************************* //
