/*--------------------------------*- C++ -*----------------------------------*\
| =========                 |                                                 |
| \\      /  F ield         | OpenFOAM: The Open Source CFD Toolbox           |
|  \\    /   O peration     | Version:  v1906                                 |
|   \\  /    A nd           | Web:      www.OpenFOAM.com                      |
|    \\/     M anipulation  |                                                 |
\*---------------------------------------------------------------------------*/
FoamFile
{
    version     2.0;
    format      ascii;
    class       volScalarField;
    location    "71.2/sphere";
    object      T;
}
// * * * * * * * * * * * * * * * * * * * * * * * * * * * * * * * * * * * * * //

dimensions      [0 0 0 1 0 0 0];


internalField   nonuniform List<scalar> 
304
(
462.607
462.634
462.629
462.646
462.605
462.597
462.605
462.634
462.605
462.746
462.746
462.646
462.629
462.741
462.741
462.672
462.634
462.666
462.594
462.633
462.65
462.605
462.635
462.746
462.746
462.676
462.647
462.742
462.742
462.698
462.594
462.665
462.693
462.629
462.606
462.648
462.675
462.61
462.608
462.672
462.698
462.634
462.595
462.629
462.583
462.594
462.607
462.607
462.608
462.64
462.607
462.607
462.64
462.608
462.594
462.607
462.61
462.607
462.64
462.635
462.634
462.649
462.647
462.676
462.675
462.7
462.606
462.649
462.634
462.676
462.647
462.7
462.675
462.607
462.61
462.64
462.608
462.601
462.601
462.633
462.595
462.646
462.594
462.626
462.67
462.697
462.635
462.667
462.632
462.627
462.597
462.697
462.672
462.668
462.637
462.636
462.604
462.596
462.581
462.595
462.592
462.627
462.593
462.628
462.594
462.593
462.58
462.607
462.605
462.606
462.639
462.634
462.646
462.676
462.633
462.65
462.676
462.701
462.606
462.676
462.647
462.65
462.634
462.701
462.676
462.608
462.606
462.639
462.607
462.647
462.634
462.675
462.634
462.676
462.649
462.7
462.605
462.675
462.635
462.676
462.635
462.7
462.649
462.67
462.595
462.636
462.647
462.697
462.626
462.668
462.631
462.637
462.597
462.698
462.647
462.668
462.627
462.595
462.595
462.628
462.594
462.665
462.592
462.623
462.666
462.693
462.623
462.641
462.634
462.624
462.592
462.693
462.666
462.641
462.624
462.628
462.595
462.593
462.604
462.606
462.64
462.61
462.65
462.676
462.701
462.605
462.633
462.647
462.676
462.633
462.701
462.675
462.634
462.603
462.675
462.644
462.639
462.606
462.606
462.677
462.649
462.7
462.608
462.649
462.636
462.676
462.634
462.7
462.649
462.647
462.607
462.675
462.634
462.698
462.627
462.668
462.633
462.673
462.598
462.638
462.647
462.669
462.627
462.672
462.631
462.637
462.597
462.627
462.593
462.595
462.693
462.623
462.641
462.635
462.666
462.593
462.624
462.667
462.642
462.625
462.667
462.636
462.625
462.596
462.596
462.594
462.596
462.597
462.605
462.609
462.639
462.605
462.639
462.607
462.605
462.593
462.612
462.608
462.641
462.609
462.676
462.676
462.7
462.609
462.635
462.635
462.649
462.646
462.7
462.675
462.634
462.605
462.649
462.634
462.64
462.608
462.606
462.637
462.599
462.604
462.698
462.637
462.668
462.631
462.647
462.596
462.627
462.671
462.669
462.638
462.647
462.63
462.627
462.597
462.603
462.597
462.602
462.583
462.628
462.594
462.596
462.596
462.595
462.596
)
;

boundaryField
{
    sphere_to_oil
    {
        type            compressible::turbulentTemperatureCoupledBaffleMixed;
        refValue        nonuniform List<scalar> 
360
(
333.845
333.845
322.657
357.387
365.089
325.208
366.128
366.128
366.128
344.523
344.523
329.018
333.351
321.158
343.732
353.114
349.202
349.202
349.202
322.606
348.066
326.401
330.028
359.982
317.391
360.224
322.899
360.19
360.19
360.19
366.71
359.064
322.587
322.24
328.797
328.885
350.129
350.129
350.129
349.445
352.436
326.472
327.66
334.298
334.298
322.719
330.864
314.733
333.264
360.56
325.132
325.236
332.714
333.229
322.402
326.186
349.719
322.729
327.753
335.472
319.479
361.371
361.371
361.371
314.78
359.903
333.167
324.177
364.621
364.621
364.621
365.584
364.249
320.28
348.662
343.061
322.281
329.223
352.447
350.228
330.808
322.396
330.476
319.326
322.566
324.8
329.028
333.099
321.79
322.858
322.778
332.174
328.649
322.918
331.831
328.673
329.224
329.246
325.273
317.321
317.438
322.516
325.161
328.646
332.11
322.423
321.063
333.284
324.936
329.212
329.22
329.064
325.201
322.6
314.96
314.919
329.098
324.357
330.226
333.689
333.689
357.387
357.387
359.982
359.982
357.907
357.907
357.907
359.343
359.343
359.343
329.552
324.598
329.045
323.534
365.089
365.089
340.843
340.843
366.71
366.71
340.113
340.113
366.025
366.025
366.025
323.177
322.871
353.622
353.622
353.622
353.45
353.45
353.45
353.114
348.066
343.732
353.114
353.092
322.697
353.092
353.092
330.048
330.856
322.506
326.495
326.495
353.78
353.78
353.78
319.452
348.066
326.401
352.886
352.886
319.31
352.886
330.832
322.403
314.807
322.904
323.228
331.446
317.279
330.919
323.171
314.857
317.484
360.224
360.224
359.064
359.064
334.68
334.68
357.414
357.414
357.414
332.994
332.994
317.166
328.192
325.486
332.327
328.375
324.89
332.154
324.98
333.362
329.281
324.82
349.445
333.196
329.415
322.751
353.198
353.198
353.198
326.964
326.964
319.333
327.876
327.69
335.336
352.436
326.374
335.24
328.014
349.445
352.436
326.76
322.731
326.76
319.728
314.883
330.792
317.327
323.068
322.951
323.209
317.145
317.092
361.301
356.365
361.301
361.301
356.365
356.365
360.56
359.903
333.264
358.68
317.308
360.56
358.68
358.68
331.587
322.31
328.412
332.06
322.939
365.584
328.49
328.972
329.035
325.081
349.719
348.662
329.251
329.092
325.165
349.254
352.965
326.186
352.803
319.508
349.719
352.803
352.803
335.795
326.349
352.447
327.8
327.896
327.619
352.82
326.315
352.56
326.602
349.254
326.602
352.82
349.254
352.82
314.69
324.432
328.613
328.785
333.563
357.496
333.563
357.496
357.496
317.17
359.903
358.575
333.167
358.575
317.175
358.575
329.686
329.368
321.915
363.649
340.823
363.649
363.649
340.823
322.477
324.842
328.264
331.973
364.249
365.584
340.33
323.196
364.249
340.33
322.444
348.662
353.527
343.061
353.527
321.539
353.527
333.386
350.228
325.163
329.483
352.748
349.851
352.965
342.632
352.965
352.748
342.632
352.748
322.272
330.319
352.447
326.45
319.385
350.228
326.45
322.982
352.56
349.851
352.56
326.593
349.851
326.593
)
;
        refGradient     uniform 0;
        valueFraction   nonuniform List<scalar> 
360
(
0.000137914
0.00013231
8.47061e-05
0.000302602
0.000310346
0.000177958
0.000312274
0.000268047
0.000417223
0.000132843
0.00012952
0.000173755
0.000264807
7.57147e-05
0.000135442
0.000263286
0.00030172
0.000281915
0.000395591
6.92839e-05
0.000259739
0.00012769
0.000117686
0.000312293
9.06712e-05
0.000321001
0.000180944
0.000316856
0.000414665
0.000277385
0.000316908
0.000319637
8.583e-05
8.48711e-05
0.000178107
0.000175274
0.000296586
0.000402083
0.000276104
0.000415147
0.000410079
8.75638e-05
0.000173683
0.000126759
0.000126607
0.000178789
0.000267486
7.13646e-05
0.000127694
0.00027077
0.000176374
0.000177519
0.00026461
0.000262039
7.40336e-05
0.000135435
0.000276186
7.09222e-05
0.000175697
0.000262
6.94205e-05
0.000308435
0.000272274
0.000426136
7.15687e-05
0.00027839
0.000129858
0.000125598
0.000315561
0.00041166
0.000276914
0.000396971
0.000402528
7.68794e-05
0.000268395
0.000136158
7.08806e-05
0.000127102
0.000401688
0.000417281
0.000124662
0.00012231
0.000120134
7.13979e-05
8.60966e-05
0.00017455
0.000175528
0.000265818
8.02404e-05
6.7752e-05
8.52078e-05
0.000265384
0.000175195
8.70404e-05
0.000264945
0.000177196
0.000176148
0.00017642
8.60307e-05
6.89579e-05
6.99252e-05
6.89945e-05
0.000177371
0.000174331
0.000265183
7.80741e-05
6.78158e-05
0.000264992
8.41841e-05
0.000174607
0.00017464
0.000178203
8.71394e-05
6.97776e-05
6.80503e-05
6.9365e-05
0.000120739
0.000120884
0.000125581
0.000136174
0.000127985
0.000264447
0.000416585
0.000278613
0.000420417
0.000269489
0.000414317
0.000308485
0.000269707
0.000405299
0.000303808
0.00012392
0.00011719
0.000120032
6.62622e-05
0.000274808
0.000413754
0.000128016
0.000128601
0.000418135
0.000278012
0.000134197
0.000141437
0.000412988
0.000283708
0.000326914
7.29255e-05
6.78653e-05
0.000286445
0.000396943
0.000314636
0.000294931
0.000410685
0.000314603
0.000324818
0.000299198
0.000139956
0.000417166
0.000269463
7.51273e-05
0.000405458
0.000303416
0.000115792
0.000121992
0.000120686
0.000127316
0.000133087
0.000415084
0.00027331
0.000320809
7.69206e-05
0.000399293
0.000136917
0.000419867
0.000268785
7.51347e-05
0.000318699
0.00011682
0.000117904
6.88857e-05
0.000180557
0.000180486
0.000266876
8.89956e-05
0.000267279
0.000175866
6.81784e-05
6.62035e-05
0.000417652
0.000265374
0.00041275
0.000275186
0.000131264
0.000122757
0.000414675
0.000259169
0.000299574
0.00012134
0.000140792
7.08315e-05
0.000177384
0.000177223
0.000264784
0.000173373
0.000174266
0.000263741
9.03995e-05
0.000264646
0.000179442
8.79109e-05
0.000297879
0.000264353
0.000178367
7.1085e-05
0.000405627
0.000262961
0.000307666
0.000128178
0.000119116
6.88048e-05
0.000176008
0.000178967
0.000265351
0.000301694
8.43783e-05
0.000262833
0.000171659
0.000261096
0.00027641
0.000125472
7.04755e-05
0.000139231
7.13472e-05
6.71584e-05
0.00026831
8.95412e-05
0.000180381
0.000178296
0.000176171
8.84156e-05
6.75375e-05
0.000274334
0.000257057
0.000431539
0.000321217
0.000402602
0.00028927
0.000310046
0.000317443
0.000141104
0.000272327
7.33718e-05
0.000414412
0.000402954
0.000306161
0.000267035
8.50876e-05
0.000173754
0.000263965
8.58495e-05
0.000314531
0.000174507
0.000175756
0.000174136
8.53306e-05
0.00031219
0.000292549
0.000177663
0.000173069
8.69736e-05
0.000293125
0.000322652
0.000127961
0.000289642
6.87894e-05
0.00041265
0.000400066
0.000302294
0.000262009
8.60731e-05
0.000302769
0.000174338
0.000174607
0.000175601
0.000304418
8.68796e-05
0.000311025
0.000130873
0.000268161
0.000131965
0.000273265
0.000416435
0.000408821
6.87556e-05
0.000137779
0.000136152
0.000133169
0.000121274
0.000405735
0.000132455
0.000269738
0.00031763
6.77535e-05
0.000409696
0.000409201
0.000133959
0.000290953
7.1003e-05
0.000311923
0.000118762
0.000116671
7.09444e-05
0.000401277
0.000119927
0.000263163
0.000309937
0.000128573
7.00907e-05
0.000174403
0.000174343
0.000263078
0.000301024
0.000261097
0.000126237
6.79511e-05
0.000265471
0.000140206
7.84786e-05
0.000384712
0.000413103
0.000122091
0.000262414
7.27542e-05
0.000330026
0.000265094
0.000317619
8.68886e-05
0.000175154
0.000306225
0.000296879
0.000279297
0.000124839
0.000409128
0.000408248
0.000148193
0.000272889
0.000120067
0.000121909
0.000274731
0.000135998
7.35304e-05
0.000277853
0.000130953
6.79042e-05
0.000404397
0.000409251
0.000269275
0.00013068
0.000264502
0.000134989
)
;
        value           nonuniform List<scalar> 
360
(
462.608
462.609
462.614
462.594
462.595
462.629
462.595
462.6
462.589
462.605
462.605
462.625
462.631
462.613
462.608
462.595
462.578
462.582
462.566
462.606
462.586
462.598
462.584
462.592
462.611
462.591
462.628
462.592
462.584
462.596
462.593
462.591
462.612
462.612
462.624
462.627
462.58
462.568
462.583
462.566
462.568
462.599
462.619
462.607
462.609
462.627
462.633
462.613
462.607
462.596
462.63
462.629
462.632
462.632
462.603
462.595
462.582
462.605
462.619
462.628
462.603
462.592
462.596
462.585
462.614
462.596
462.608
462.594
462.596
462.591
462.6
462.591
462.59
462.616
462.596
462.61
462.612
462.585
462.569
462.567
462.586
462.585
462.586
462.604
462.616
462.628
462.627
462.631
462.609
462.605
462.613
462.633
462.63
462.611
462.633
462.629
462.626
462.623
462.604
462.616
462.615
462.616
462.629
462.63
462.633
462.615
462.611
462.63
462.601
462.621
462.627
462.622
462.604
462.604
462.616
462.615
462.597
462.596
462.596
462.608
462.609
462.598
462.583
462.597
462.584
462.597
462.584
462.593
462.598
462.585
462.594
462.596
462.597
462.597
462.617
462.599
462.589
462.61
462.611
462.589
462.6
462.61
462.609
462.589
462.599
462.592
462.617
462.611
462.589
462.571
462.578
462.588
462.569
462.579
462.58
462.581
462.606
462.57
462.593
462.612
462.571
462.582
462.584
462.583
462.583
462.596
462.594
462.566
462.582
462.576
462.601
462.567
462.593
462.567
462.582
462.601
462.576
462.584
462.583
462.614
462.628
462.627
462.634
462.612
462.634
462.629
462.615
462.615
462.583
462.597
462.583
462.596
462.607
462.609
462.583
462.598
462.592
462.609
462.607
462.615
462.629
462.629
462.633
462.63
462.63
462.634
462.601
462.631
462.621
462.603
462.582
462.632
462.622
462.604
462.569
462.584
462.578
462.597
462.596
462.603
462.619
462.618
462.626
462.578
462.599
462.627
462.619
462.584
462.581
462.597
462.604
462.593
462.602
462.613
462.633
462.611
462.627
462.627
462.628
462.609
462.616
462.596
462.598
462.585
462.591
462.586
462.597
462.59
462.589
462.606
462.596
462.614
462.583
462.583
462.594
462.633
462.615
462.631
462.634
462.614
462.595
462.63
462.623
462.629
462.605
462.582
462.583
462.623
462.627
462.604
462.582
462.58
462.595
462.581
462.603
462.567
462.57
462.579
462.627
462.6
462.579
462.62
462.62
462.62
462.581
462.603
462.58
462.597
462.585
462.595
462.583
462.567
462.57
462.613
462.597
462.598
462.598
462.608
462.585
462.607
462.596
462.594
462.614
462.583
462.583
462.607
462.594
462.614
462.591
462.596
462.596
462.617
462.592
462.613
462.602
462.597
462.612
462.618
462.63
462.631
462.634
462.594
462.601
462.611
462.617
462.599
462.608
462.614
462.574
462.573
462.608
462.594
462.612
462.579
462.631
462.579
462.603
462.623
462.582
462.582
462.591
462.607
462.571
462.571
462.603
462.59
462.585
462.586
462.583
462.595
462.603
462.584
462.597
462.605
462.57
462.569
462.584
462.596
462.585
462.596
)
;
        Tnbr            T;
        thicknessLayers 0();
        kappaLayers     0();
        kappaMethod     solidThermo;
        kappa           none;
        alphaAni        none;
    }
}


// ************************************************************************* //
