/*--------------------------------*- C++ -*----------------------------------*\
| =========                 |                                                 |
| \\      /  F ield         | OpenFOAM: The Open Source CFD Toolbox           |
|  \\    /   O peration     | Version:  v1906                                 |
|   \\  /    A nd           | Web:      www.OpenFOAM.com                      |
|    \\/     M anipulation  |                                                 |
\*---------------------------------------------------------------------------*/
FoamFile
{
    version     2.0;
    format      ascii;
    class       volScalarField;
    location    "8.5/oil";
    object      wallHeatFlux;
}
// * * * * * * * * * * * * * * * * * * * * * * * * * * * * * * * * * * * * * //

dimensions      [1 0 -3 0 0 0 0];


internalField   uniform 0;

boundaryField
{
    maxY
    {
        type            calculated;
        value           uniform 0;
    }
    minX
    {
        type            calculated;
        value           uniform 0;
    }
    maxX
    {
        type            calculated;
        value           uniform 0;
    }
    minY
    {
        type            calculated;
        value           uniform 0;
    }
    minZ
    {
        type            calculated;
        value           uniform 0;
    }
    maxZ
    {
        type            calculated;
        value           uniform 0;
    }
    oil_to_sphere
    {
        type            calculated;
        value           nonuniform List<scalar> 
360
(
12100
12168
8772.16
19161.8
20059.5
10129.9
20471.7
18476.1
19886.1
11962.5
12026.5
10133.7
11189.7
7911.58
11800.2
17682.7
20617.7
19105.6
19983.5
7903.7
16927.9
12049.7
10799.9
19565.4
8789.83
20128.9
10112.6
19862.8
19712
18642.7
21006.2
20794.7
8804.43
8708.11
10040
10077.9
19834.8
19688.8
19160.3
19522.9
19685.2
8789.89
10016.6
12416.3
12445.3
10090.9
11144.4
7848.72
11983.1
18423.9
10153.5
10118.3
11098.4
11141.7
7850.36
12116.7
19081.4
7909.33
10064.4
11146.8
7928.22
19791.2
18796.8
19615.3
7852.06
17123.7
12099.7
10539.2
20536.2
19515.8
18807.7
19381.1
19402.8
7834.22
15102.6
11789.9
7938.17
10398.7
19478.6
20169.4
10598
10518.5
10462
7925.02
8737.88
10053.3
10094.7
11166.6
7892.04
7964.24
8764.98
11152.4
10098.6
8759.34
11106.5
10074.2
10083.4
10095.8
8740.43
7974.34
7976.51
7869.79
10134.9
10149.8
11177
7870.63
7940.18
11210.1
8759.7
10111.2
10120
10101.9
8748.64
7871.96
8005.63
7996.3
10741.5
10731.9
10659.9
12317.2
12337.8
18505.8
19711.3
17588.7
19607
18401.4
19757.3
20014.7
18522.8
19352.8
19028.2
10658
10648.3
10629.6
7985.86
18086.2
19690.2
12116.7
12145.6
19694.8
18200.2
11931.8
11754.3
19998.5
18347.3
21141.8
7979.97
7970.92
19279.4
19749.1
21071.5
19902.5
19906.3
20760.4
21109.1
19018.3
11710.5
19955.9
19088.5
7914.49
19898.6
20409.8
10390.7
10256.4
10720.6
11954
12093.2
20036.5
18437.8
20847
7854.25
19423.4
12124.3
19837.2
18949.8
7858.78
20450.4
10534.2
10597.8
7964.5
10099.8
10131.8
11182.8
8768.14
11134.9
10091.5
7869.39
7961.83
19680.7
18456.9
19939.4
19181.2
12338.4
12347.2
19735.9
18056.1
19410.8
12133.9
12207.1
7962.02
10068
10176.1
11178.3
10120.5
10071.8
11210.3
8759.55
11123.9
10046
8690.97
18731.8
11198.6
10055.1
7920.54
19391.7
18366.1
19391.5
12360.5
12360.9
7858.06
10068
10088.7
11142.5
19888.7
8717.71
11093.7
10055.5
19050.5
18884.9
12295.5
7887.83
12200.3
7904.15
8004.48
11127.9
8768.73
10101
10077.9
10131.1
8745.52
7905.69
18735.3
18203.5
19723.2
20677.9
19165.8
18123.1
20079.3
20450.2
12129
19257.2
7983.15
20042.7
20014
20114.2
11094.2
8778.83
10120.8
11136.9
8825.7
19953.7
10068.6
10033
10117.4
8736.5
20364
19158
10049.7
10057.5
8738.36
19028.1
21031.1
12075.9
19018.8
7926.1
19981.2
19480.9
19982.5
11196.2
8745.15
19730.3
10044.2
10071.1
10034
19556.2
8782.27
19327.9
12226.7
18124.1
12287
18765.9
19462.4
19481.4
7869.76
10416.3
10234.8
10325.7
12438.9
19788.9
12405.1
19166.6
19735.8
7936.57
19774
20141.5
12076.2
19302
7962.57
21225.6
10528.8
10477.9
7799.22
19110.6
12215.2
16993.1
19183.5
12203.7
7877.19
10052.1
10078.5
11170.8
19676.7
18173.2
11977
7979.61
18376.6
12164.3
7916.42
18991.6
19806.4
11944.2
19118.4
7787.39
20648
11223.8
20643.3
8738.77
10107.1
20530.8
19501.2
18797.2
12015.5
19950.8
19817.9
12110.5
18965.6
10406.9
10578.1
18674.6
12127.5
7882.3
18767.6
12155.8
7944.15
19309.8
19612.4
18369.4
12191.2
19172.9
12219.8
)
;
    }
}


// ************************************************************************* //
