/*--------------------------------*- C++ -*----------------------------------*\
| =========                 |                                                 |
| \\      /  F ield         | OpenFOAM: The Open Source CFD Toolbox           |
|  \\    /   O peration     | Version:  v1906                                 |
|   \\  /    A nd           | Web:      www.OpenFOAM.com                      |
|    \\/     M anipulation  |                                                 |
\*---------------------------------------------------------------------------*/
FoamFile
{
    version     2.0;
    format      ascii;
    class       volScalarField;
    location    "0.03/sphere";
    object      T;
}
// * * * * * * * * * * * * * * * * * * * * * * * * * * * * * * * * * * * * * //

dimensions      [0 0 0 1 0 0 0];


internalField   nonuniform List<scalar> 
7664
(
499.187
499.431
499.35
499.683
499.199
499.227
499.648
499.922
499.976
499.863
499.349
499.967
499.991
499.939
499.841
499.945
499.74
499.642
499.879
499.506
499.403
499.975
499.996
499.952
499.657
499.991
499.999
499.981
499.326
499.205
499.943
499.986
499.9
499.606
499.503
499.858
499.952
499.738
499.18
499.936
499.981
499.89
499.702
499.897
499.54
499.31
499.302
499.32
499.28
499.296
499.213
499.688
499.379
499.949
499.862
499.978
499.939
499.864
499.981
499.943
499.442
499.226
499.706
499.392
499.942
499.944
499.851
499.702
499.392
499.386
499.158
499.298
499.288
499.279
499.262
499.202
499.266
499.272
499.211
499.292
499.287
499.232
499.274
499.554
499.293
499.494
499.745
499.91
499.297
499.501
499.911
499.759
499.589
499.193
499.722
499.194
499.881
499.417
499.355
499.675
499.852
499.948
499.937
499.978
499.378
499.553
499.507
499.79
499.742
499.696
499.813
499.202
499.737
499.885
499.217
499.192
499.189
499.878
499.687
499.671
499.144
499.366
499.935
499.977
499.833
499.938
499.373
499.378
499.156
499.977
499.938
499.939
499.84
499.883
499.209
499.703
499.49
499.221
499.701
499.889
499.364
499.89
499.714
499.371
499.53
499.74
499.745
499.746
499.499
499.28
499.909
499.644
499.869
499.957
499.645
499.876
499.956
499.99
499.45
499.957
499.878
499.879
499.652
499.99
499.959
499.777
499.508
499.915
499.309
499.268
499.852
499.352
499.935
499.404
499.946
499.662
499.977
499.217
499.94
499.388
499.953
499.443
499.982
499.715
499.331
499.261
499.934
499.831
499.657
499.976
499.353
499.937
499.383
499.843
499.163
499.981
499.712
499.945
499.399
499.326
499.699
499.205
499.887
499.362
499.944
499.523
499.943
499.985
499.519
499.805
499.852
499.528
499.313
499.985
499.949
499.81
499.539
499.898
499.237
499.377
499.598
499.606
499.74
499.745
499.494
499.277
499.908
499.746
499.876
499.956
499.99
499.64
499.867
499.958
499.651
499.99
499.959
499.642
499.451
499.959
499.877
499.915
499.307
499.779
499.269
499.946
499.661
499.977
499.852
499.347
499.935
499.444
499.982
499.716
499.867
499.216
499.944
499.39
499.332
499.262
499.976
499.351
499.936
499.341
499.934
499.831
499.712
499.946
499.396
499.943
499.384
499.85
499.167
499.888
499.353
499.7
499.985
499.52
499.805
499.841
499.947
499.524
499.95
499.812
499.54
499.949
499.858
499.528
499.314
499.236
499.379
499.746
499.598
499.558
499.5
499.749
499.913
499.305
499.914
499.759
499.308
499.59
499.726
499.186
499.879
499.197
499.951
499.937
499.981
499.196
499.433
499.362
499.693
499.891
499.211
499.215
499.877
499.687
499.185
499.98
499.835
499.943
499.356
499.689
499.132
499.372
499.206
499.715
499.209
499.485
499.895
499.37
499.225
499.726
499.373
499.231
499.189
499.139
499.051
499.17
499.126
499.157
499.114
499.164
499.119
499.159
499.09
499.142
499.088
499.121
499.077
499.218
499.193
499.113
499.265
499.252
499.191
499.151
499.074
499.14
499.088
499.299
499.273
499.42
499.731
499.461
499.616
499.591
499.333
499.536
499.494
499.782
499.713
499.665
499.803
499.386
499.57
499.52
499.801
499.753
499.704
499.825
499.3
499.28
499.428
499.742
499.468
499.626
499.605
499.34
499.554
499.505
499.794
499.728
499.68
499.817
499.552
499.328
499.49
499.786
499.726
499.815
499.668
499.538
499.332
499.486
499.785
499.724
499.81
499.672
499.245
499.245
499.394
499.725
499.426
499.583
499.588
499.133
499.085
499.239
499.21
499.131
499.212
499.195
499.093
499.08
499.26
499.235
499.376
499.708
499.446
499.603
499.568
499.283
499.384
499.202
499.484
499.753
499.279
499.696
499.423
499.785
499.634
499.154
499.531
499.24
499.261
499.473
499.223
499.234
499.366
499.177
499.291
499.547
499.492
499.313
499.802
499.489
499.555
499.499
499.697
499.618
499.695
499.877
499.598
499.827
499.764
499.787
499.719
499.897
499.386
499.432
499.548
499.677
499.41
499.191
499.217
499.547
499.566
499.335
499.744
499.691
499.275
499.476
499.629
499.78
499.412
499.158
499.095
499.216
499.226
499.353
499.46
499.527
499.541
499.836
499.319
499.674
499.683
499.418
499.869
499.757
499.823
499.583
499.893
499.706
499.777
499.916
499.852
499.946
499.839
499.933
499.804
499.931
499.446
499.695
499.456
499.47
499.649
499.765
499.725
499.51
499.335
499.797
499.669
499.451
499.201
499.148
499.802
499.852
499.586
499.585
499.828
499.828
499.515
499.284
499.284
499.213
499.286
499.538
499.144
499.308
499.477
499.416
499.565
499.54
499.488
499.385
499.418
499.535
499.453
499.45
499.693
499.648
499.473
499.194
499.249
499.363
499.839
499.526
499.674
499.443
499.541
499.683
499.311
499.227
499.515
499.112
499.448
499.253
499.443
499.826
499.5
499.489
499.667
499.662
499.28
499.284
499.313
499.338
499.232
499.058
499.182
499.2
499.084
499.082
499.35
499.393
499.351
499.32
499.316
499.446
499.242
499.6
499.38
499.403
499.55
499.369
499.425
499.531
499.449
499.45
499.69
499.473
499.639
499.524
499.549
499.58
499.853
499.377
499.706
499.727
499.251
499.604
499.557
499.383
499.405
499.325
499.45
499.325
499.449
499.456
499.691
499.471
499.644
499.392
499.431
499.545
499.557
499.859
499.707
499.533
499.604
499.388
499.741
499.364
499.427
499.386
499.328
499.196
499.271
499.373
499.121
499.254
499.534
499.477
499.277
499.192
499.26
499.359
499.421
499.518
499.507
499.825
499.295
499.664
499.649
499.256
499.135
499.528
499.275
499.472
499.523
499.352
499.735
499.464
499.806
499.775
499.685
499.292
499.495
499.442
499.762
499.7
499.642
499.789
499.159
499.537
499.489
499.256
499.271
499.524
499.834
499.663
499.429
499.535
499.301
499.674
499.21
499.28
499.39
499.259
499.168
499.544
499.272
499.49
499.232
499.126
499.528
499.27
499.462
499.173
499.214
499.343
499.23
499.521
499.121
499.265
499.453
499.166
499.206
499.331
499.388
499.468
499.81
499.454
499.638
499.24
499.625
499.594
499.605
499.86
499.81
499.525
499.834
499.838
499.688
499.206
499.214
499.395
499.345
499.548
499.555
499.495
499.755
499.298
499.704
499.432
499.79
499.643
499.531
499.312
499.709
499.471
499.8
499.771
499.654
499.522
499.321
499.471
499.77
499.71
499.796
499.657
499.229
499.238
499.376
499.708
499.408
499.569
499.571
499.177
499.224
499.355
499.236
499.537
499.142
499.264
499.472
499.396
499.473
499.819
499.491
499.639
499.25
499.651
499.175
499.233
499.357
499.271
499.268
499.294
499.288
499.156
499.545
499.484
499.311
499.437
499.476
499.822
499.504
499.646
499.284
499.67
499.261
499.301
499.422
499.333
499.605
499.304
499.36
499.546
499.226
499.244
499.374
499.445
499.489
499.828
499.528
499.654
499.299
499.682
499.335
499.607
499.318
499.359
499.553
499.272
499.319
499.442
499.287
499.306
499.335
499.23
499.578
499.585
499.682
499.679
499.614
499.592
499.689
499.706
499.639
499.615
499.561
499.378
499.421
499.531
499.319
499.302
499.421
499.529
499.586
499.54
499.852
499.374
499.732
499.692
499.445
499.447
499.687
499.637
499.47
499.376
499.214
499.596
499.537
499.404
499.869
499.585
499.825
499.757
499.779
499.706
499.894
499.869
499.591
499.757
499.824
499.71
499.779
499.894
499.911
499.834
499.833
499.944
499.79
499.929
499.929
499.828
499.522
499.594
499.533
499.719
499.645
499.725
499.916
499.839
499.852
499.946
499.804
499.931
499.933
499.878
499.601
499.774
499.833
499.728
499.793
499.9
499.539
499.615
499.581
499.863
499.41
499.741
499.719
499.324
499.318
499.455
499.448
499.46
499.696
499.649
499.469
499.386
499.261
499.616
499.563
499.408
499.043
499.096
499.187
499.201
499.105
499.755
499.288
499.695
499.482
499.641
499.429
499.783
499.765
499.336
499.726
499.508
499.668
499.449
499.797
499.811
499.591
499.601
499.855
499.527
499.832
499.836
499.74
499.463
499.274
499.295
499.605
499.622
499.423
499.791
499.336
499.722
499.55
499.672
499.503
499.814
499.801
499.384
499.755
499.577
499.704
499.519
499.829
499.843
499.675
499.683
499.883
499.619
499.862
499.867
499.163
499.109
499.193
499.132
499.289
499.301
499.227
499.062
499.179
499.176
499.072
499.062
499.652
499.162
499.36
499.162
499.518
499.295
499.525
499.8
499.585
499.852
499.582
499.829
499.51
499.827
499.743
499.282
499.474
499.694
499.409
499.633
499.779
499.782
499.718
499.311
499.548
499.658
499.812
499.486
499.721
499.234
499.417
499.242
499.571
499.391
499.586
499.836
499.671
499.881
499.672
499.859
499.606
499.86
499.787
499.334
499.553
499.731
499.495
499.675
499.816
499.284
499.284
499.211
499.167
499.106
499.435
499.475
499.497
499.82
499.279
499.648
499.662
499.266
499.297
499.421
499.285
499.143
499.537
499.477
499.309
499.333
499.296
499.602
499.543
499.356
499.736
499.45
499.357
499.35
499.611
499.609
499.489
499.817
499.764
499.456
499.653
499.708
499.848
499.592
499.815
499.454
499.761
499.648
499.704
499.592
499.845
499.869
499.749
499.913
499.746
499.893
499.691
499.891
499.827
499.766
499.473
499.661
499.719
499.851
499.609
499.77
499.497
499.394
499.397
499.64
499.645
499.53
499.877
499.755
499.915
499.778
499.895
499.714
499.899
499.83
499.478
499.779
499.681
499.726
499.624
499.859
499.239
499.247
499.39
499.268
499.322
499.444
499.3
499.185
499.564
499.505
499.319
499.338
499.315
499.617
499.558
499.363
499.412
499.398
499.528
499.524
499.449
499.536
499.563
499.482
499.46
499.395
499.585
499.68
499.684
499.618
499.577
499.706
499.688
499.64
499.615
499.564
499.592
499.449
499.689
499.442
499.473
499.639
499.375
499.596
499.222
499.407
499.536
499.384
499.422
499.532
499.307
499.302
499.423
499.522
499.85
499.586
499.537
499.732
499.689
499.38
499.912
499.833
499.945
499.835
499.929
499.789
499.929
499.803
499.489
499.493
499.556
499.615
499.694
499.698
499.87
499.755
499.586
499.824
499.707
499.894
499.781
499.878
499.774
499.833
499.6
499.9
499.728
499.793
499.875
499.761
499.592
499.826
499.715
499.896
499.785
499.827
499.532
499.521
499.591
499.643
499.726
499.717
499.387
499.616
499.251
499.409
499.561
499.385
499.434
499.552
499.539
499.864
499.618
499.58
499.747
499.713
499.41
499.325
499.325
499.453
499.105
499.205
499.185
499.109
499.049
499.812
499.604
499.854
499.591
499.837
499.536
499.831
499.673
499.211
499.406
499.188
499.566
499.328
499.547
499.756
499.481
499.294
499.692
499.432
499.782
499.645
499.803
499.756
499.578
499.384
499.829
499.704
499.524
499.845
499.684
499.884
499.677
499.867
499.623
499.863
499.743
499.299
499.468
499.277
499.623
499.429
499.603
499.795
499.554
499.336
499.727
499.508
499.817
499.676
499.304
499.291
499.237
499.166
499.121
499.182
499.179
499.089
499.071
499.048
499.746
499.479
499.693
499.282
499.78
499.417
499.633
499.743
499.475
499.688
499.274
499.779
499.413
499.626
499.649
499.166
499.152
499.357
499.296
499.521
499.52
499.838
499.882
499.672
499.672
499.861
499.861
499.609
499.789
499.552
499.73
499.33
499.816
499.495
499.672
499.787
499.549
499.724
499.314
499.815
499.491
499.662
499.725
499.246
499.232
499.42
499.396
499.585
499.575
499.163
499.109
499.158
499.097
499.333
499.603
499.298
499.356
499.547
499.215
499.224
499.351
499.445
499.822
499.473
499.503
499.642
499.672
499.277
499.257
499.305
499.423
499.816
499.761
499.652
499.457
499.846
499.707
499.593
499.869
499.913
499.748
499.751
499.892
499.894
499.689
499.733
499.353
499.451
499.347
499.609
499.479
499.61
499.817
499.655
499.767
499.458
499.85
499.591
499.71
499.881
499.916
499.78
499.761
499.9
499.899
499.718
499.835
499.781
499.682
499.481
499.861
499.732
499.628
499.832
499.664
499.772
499.473
499.855
499.614
499.723
499.775
499.404
499.501
499.393
499.654
499.532
499.645
499.3
499.564
499.166
499.32
499.502
499.343
499.62
499.324
499.364
499.566
499.462
499.84
499.53
499.551
499.68
499.692
499.324
499.233
499.248
499.389
499.271
499.321
499.453
499.525
499.53
499.445
499.414
499.46
499.396
499.426
499.399
499.352
499.353
499.446
499.449
499.691
499.642
499.472
499.529
499.587
499.857
499.551
499.736
499.377
499.703
499.321
499.314
499.444
499.612
499.247
499.385
499.409
499.555
499.392
499.428
499.545
499.861
499.554
499.708
499.533
499.605
499.743
499.391
499.261
499.614
499.56
499.387
499.41
499.32
499.454
499.319
499.356
499.422
499.38
499.326
499.416
499.506
499.825
499.522
499.649
499.293
499.664
499.242
499.137
499.519
499.468
499.258
499.196
499.272
499.378
499.139
499.25
499.529
499.476
499.264
499.271
499.247
499.392
499.72
499.449
499.608
499.578
499.542
499.748
499.366
499.818
499.479
499.786
499.693
499.308
499.507
499.458
499.774
499.705
499.654
499.798
499.221
499.286
499.396
499.269
499.162
499.55
499.5
499.279
499.283
499.396
499.214
499.169
499.548
499.497
499.263
499.276
499.163
499.209
499.327
499.389
499.81
499.464
499.461
499.632
499.631
499.238
499.126
499.234
499.527
499.261
499.466
499.166
499.222
499.345
499.492
499.296
499.439
499.764
499.702
499.794
499.646
499.212
499.218
499.361
499.7
499.403
499.559
499.561
499.511
499.716
499.302
499.803
499.445
499.769
499.653
499.246
499.545
499.133
499.476
499.272
499.827
499.488
499.652
499.406
499.5
499.658
499.253
499.176
499.228
499.356
499.14
499.545
499.483
499.246
499.27
499.24
499.365
499.178
499.27
499.296
499.266
499.26
499.304
499.424
499.332
499.609
499.307
499.547
499.361
499.231
499.239
499.377
499.557
499.155
499.296
499.494
499.316
499.839
499.517
499.679
499.464
499.528
499.688
499.3
499.343
499.614
499.316
499.56
499.363
499.28
499.317
499.445
499.178
499.562
499.504
499.296
499.319
499.258
499.39
499.235
499.649
499.641
499.864
499.581
499.845
499.821
499.842
499.976
499.968
499.991
499.975
499.995
499.991
499.999
499.928
499.991
499.97
499.996
499.978
499.999
499.993
499.911
499.883
499.72
499.919
499.818
499.831
499.947
499.991
499.909
499.97
499.99
499.999
499.97
499.994
499.969
499.971
499.914
499.999
499.992
499.994
499.974
499.905
499.871
499.928
499.965
499.85
499.919
499.958
499.882
499.905
499.696
499.903
499.815
499.943
499.811
499.921
499.935
499.888
499.97
499.871
499.963
499.933
499.995
499.991
499.999
499.923
499.977
499.968
499.992
499.978
499.999
499.993
499.978
499.929
499.992
499.972
499.916
499.893
499.97
499.943
499.929
499.875
499.964
499.999
499.969
499.994
499.967
499.992
499.91
499.973
499.993
499.994
499.974
499.992
499.972
499.973
499.92
499.933
499.953
499.977
499.977
499.944
499.944
499.972
499.916
499.969
499.885
499.932
499.931
499.962
499.865
499.949
499.982
499.965
499.982
499.957
499.977
499.957
499.567
499.795
499.809
499.882
499.602
499.764
499.779
499.876
499.915
499.907
499.713
499.944
499.823
499.809
499.916
499.943
499.97
499.892
499.964
499.874
499.927
499.898
499.963
499.924
499.864
499.955
499.913
499.843
499.932
499.977
499.976
499.951
499.972
499.943
499.941
499.871
499.782
499.747
499.522
499.782
499.747
499.564
499.881
499.793
499.763
499.566
499.805
499.774
499.6
499.654
499.654
499.6
499.831
499.867
499.85
499.848
499.909
499.886
499.94
499.967
499.869
499.921
499.961
499.877
499.716
499.916
499.908
499.824
499.811
499.944
499.929
499.946
499.975
499.974
499.939
499.937
499.97
499.904
499.868
499.93
499.963
499.852
499.914
499.957
499.885
499.918
499.913
499.719
499.948
499.829
499.82
499.935
499.978
499.977
499.952
499.974
499.945
499.944
499.912
499.935
499.967
499.878
499.962
499.862
499.922
499.673
499.673
499.616
499.842
499.879
499.862
499.861
499.908
499.966
499.931
499.876
499.959
499.921
499.856
499.908
499.966
499.935
499.877
499.96
499.92
499.86
499.875
499.906
499.91
499.696
499.944
499.807
499.813
499.669
499.659
499.6
499.835
499.876
499.859
499.855
499.813
499.622
499.838
499.893
499.657
499.784
499.808
499.815
499.896
499.787
499.625
499.84
499.658
499.813
499.518
499.772
499.865
499.768
499.742
499.555
499.736
499.619
499.603
499.862
499.547
499.845
499.82
499.838
499.869
499.706
499.912
499.904
499.819
499.803
499.941
499.883
499.966
499.919
499.904
499.938
499.865
499.959
499.897
499.864
499.928
499.961
499.845
499.91
499.955
499.945
499.975
499.937
499.925
499.973
499.935
499.969
499.774
499.87
499.745
499.525
499.777
499.554
499.749
499.501
499.768
499.764
499.857
499.549
499.731
499.724
499.892
499.862
499.961
499.924
499.908
499.84
499.953
499.943
499.92
499.972
499.973
499.932
499.933
499.967
499.858
499.672
499.896
499.897
499.79
499.792
499.935
499.893
499.865
499.961
499.926
499.91
499.843
499.953
499.944
499.973
499.935
499.924
499.973
499.934
499.968
499.866
499.962
499.913
499.899
499.926
499.846
499.955
499.898
499.867
499.962
499.929
499.911
499.849
499.955
499.865
499.679
499.899
499.901
499.796
499.799
499.938
499.77
499.506
499.773
499.863
499.549
499.735
499.738
499.546
499.778
499.869
499.796
499.742
499.586
499.762
499.551
499.779
499.872
499.797
499.747
499.587
499.767
499.631
499.893
499.838
499.811
499.811
499.781
499.66
499.911
499.754
499.922
499.923
499.853
499.854
499.956
499.94
499.915
499.947
499.978
499.897
499.952
499.972
499.939
499.947
499.914
499.977
499.897
499.971
499.951
499.961
499.987
499.976
499.986
499.969
499.982
499.969
499.949
499.943
499.916
499.978
499.901
499.953
499.973
499.928
499.918
499.772
499.929
499.863
499.865
499.959
499.963
499.987
499.977
499.987
499.97
499.983
499.97
499.944
499.951
499.919
499.979
499.904
499.973
499.954
499.632
499.9
499.844
499.823
499.817
499.796
499.663
499.864
499.696
499.902
499.909
499.796
499.807
499.94
499.895
499.926
499.86
499.961
499.842
499.955
499.907
499.899
499.935
499.878
499.964
499.858
499.957
499.914
499.922
499.972
499.973
499.941
499.968
499.931
499.933
499.932
499.91
499.873
499.966
499.857
499.961
499.92
499.916
499.944
499.893
499.971
499.876
499.964
499.929
499.936
499.977
499.979
499.954
499.973
499.944
499.947
499.889
499.858
499.921
499.96
499.835
499.906
499.952
499.852
499.892
499.664
499.896
499.78
499.933
499.786
499.917
499.972
499.94
499.971
499.93
499.966
499.929
499.888
499.925
499.96
499.861
499.952
499.839
499.905
499.872
499.902
499.688
499.906
499.801
499.941
499.809
499.931
499.976
499.953
499.977
499.943
499.971
499.943
499.908
499.934
499.967
499.88
499.96
499.859
499.922
499.544
499.867
499.775
499.794
499.741
499.757
499.583
499.917
499.933
499.887
499.969
499.866
499.962
499.932
499.915
499.931
499.968
499.885
499.961
499.863
499.93
499.943
499.981
499.98
499.963
499.975
499.954
499.953
499.89
499.909
499.718
499.91
499.826
499.947
499.827
499.946
499.981
499.981
499.964
499.976
499.955
499.957
499.922
499.937
499.971
499.895
499.964
499.874
499.937
499.563
499.879
499.794
499.807
499.761
499.773
499.601
499.619
499.837
499.809
499.891
499.654
499.809
499.776
499.939
499.914
499.977
499.947
499.951
499.897
499.971
499.961
499.976
499.986
499.986
499.969
499.969
499.982
499.911
499.922
499.753
499.925
499.853
499.956
499.856
499.941
499.978
499.916
499.949
499.952
499.972
499.9
499.963
499.977
499.987
499.987
499.97
499.97
499.983
499.944
499.919
499.979
499.951
499.954
499.905
499.974
499.951
499.943
499.978
499.917
499.953
499.973
499.902
499.928
499.917
499.929
499.768
499.866
499.959
499.863
499.629
499.844
499.822
499.9
499.662
499.818
499.793
499.899
499.878
499.964
499.935
499.914
499.857
499.957
499.922
499.974
499.941
499.972
499.934
499.968
499.931
499.864
499.909
499.695
499.903
499.807
499.94
499.797
499.895
499.961
499.927
499.86
499.955
499.907
499.844
499.936
499.979
499.954
499.978
499.947
499.974
499.945
499.915
499.886
499.92
499.726
499.831
499.949
499.822
499.936
499.912
499.967
499.878
499.962
499.923
499.862
499.917
499.94
499.971
499.972
499.93
499.93
499.966
499.889
499.96
499.861
499.924
499.905
499.952
499.838
499.888
499.96
499.858
499.922
499.905
499.952
499.835
499.851
499.895
499.894
499.663
499.933
499.782
499.781
499.909
499.967
499.88
499.936
499.923
499.961
499.861
499.933
499.908
499.967
499.877
499.922
499.96
499.855
499.907
499.876
499.91
499.695
499.943
499.813
499.807
499.561
499.777
499.795
499.869
499.591
499.743
499.764
499.943
499.98
499.964
499.981
499.954
499.975
499.955
499.882
499.904
499.905
499.698
499.943
499.814
499.814
499.917
499.97
499.934
499.89
499.962
499.933
499.867
499.926
499.972
499.897
499.94
499.938
499.965
499.879
499.939
499.924
499.972
499.893
499.965
499.936
499.875
499.914
499.894
499.914
499.724
499.949
499.833
499.831
499.819
499.626
499.842
499.897
499.814
499.662
499.788
499.899
499.82
499.791
499.629
499.842
499.816
499.662
499.512
499.864
499.765
499.768
499.735
499.74
499.545
499.969
499.89
499.925
499.911
499.941
499.962
499.87
499.903
499.929
499.964
499.866
499.958
499.85
499.915
499.978
499.951
499.943
499.932
499.976
499.972
499.94
499.636
499.874
499.618
499.856
499.565
499.83
499.848
499.877
499.784
499.756
499.537
499.786
499.759
499.568
499.498
499.762
499.857
499.765
499.725
499.541
499.729
499.976
499.95
499.941
499.927
499.975
499.97
499.938
499.864
499.896
499.902
499.676
499.938
499.792
499.8
499.965
499.874
499.918
499.901
499.93
499.957
499.851
499.626
499.872
499.609
499.851
499.544
499.822
499.845
499.79
499.554
499.874
499.802
499.764
499.753
499.597
499.956
499.951
499.956
499.972
499.976
499.972
499.986
499.972
499.986
499.983
499.989
499.986
499.992
499.994
499.982
499.961
499.982
499.978
499.978
499.989
499.991
499.989
499.989
499.986
499.994
499.996
499.995
499.995
499.988
499.985
499.97
499.985
499.981
499.991
499.993
499.994
499.994
499.992
499.996
499.998
499.997
499.997
499.988
499.988
499.985
499.993
499.996
499.995
499.995
499.997
499.998
499.998
499.998
499.998
499.998
499.998
499.986
499.971
499.989
499.982
499.985
499.991
499.994
499.964
499.983
499.983
499.98
499.98
499.99
499.992
499.99
499.989
499.987
499.994
499.996
499.996
499.995
499.97
499.988
499.985
499.985
499.981
499.991
499.993
499.994
499.994
499.991
499.995
499.998
499.997
499.997
499.989
499.989
499.987
499.994
499.996
499.995
499.995
499.997
499.998
499.999
499.998
499.998
499.998
499.998
499.959
499.954
499.974
499.96
499.978
499.975
499.987
499.99
499.989
499.987
499.994
499.996
499.996
499.995
499.966
499.983
499.981
499.984
499.982
499.991
499.992
499.994
499.994
499.992
499.996
499.998
499.997
499.997
499.973
499.989
499.987
499.986
499.984
499.992
499.994
499.997
499.998
499.999
499.998
499.998
499.998
499.998
499.99
499.991
499.989
499.995
499.997
499.996
499.996
499.989
499.989
499.986
499.993
499.996
499.995
499.995
499.945
499.948
499.947
499.969
499.968
499.971
499.983
499.983
499.964
499.985
499.979
499.981
499.99
499.992
499.988
499.988
499.985
499.993
499.996
499.995
499.995
499.996
499.998
499.998
499.998
499.997
499.998
499.997
499.963
499.982
499.985
499.978
499.981
499.99
499.992
499.991
499.991
499.988
499.994
499.997
499.996
499.996
499.983
499.964
499.984
499.979
499.98
499.99
499.992
499.983
499.965
499.985
499.98
499.982
499.99
499.992
499.948
499.95
499.951
499.97
499.971
499.972
499.984
499.997
499.998
499.998
499.998
499.998
499.998
499.998
499.99
499.991
499.988
499.994
499.997
499.995
499.996
499.991
499.992
499.989
499.994
499.997
499.996
499.996
499.967
499.986
499.986
499.981
499.982
499.99
499.993
499.994
499.994
499.991
499.995
499.998
499.997
499.997
499.989
499.989
499.987
499.994
499.996
499.995
499.995
499.997
499.999
499.998
499.998
499.998
499.998
499.998
499.956
499.958
499.951
499.977
499.972
499.974
499.986
499.987
499.989
499.972
499.986
499.983
499.992
499.994
499.983
499.964
499.983
499.98
499.981
499.99
499.992
499.991
499.99
499.988
499.994
499.997
499.996
499.995
499.989
499.987
499.974
499.986
499.984
499.992
499.994
499.997
499.999
499.998
499.998
499.998
499.998
499.998
499.991
499.991
499.989
499.995
499.997
499.996
499.996
499.973
499.987
499.984
499.989
499.986
499.992
499.994
499.96
499.956
499.975
499.96
499.978
499.976
499.987
499.991
499.991
499.989
499.995
499.997
499.996
499.996
499.968
499.985
499.982
499.985
499.983
499.991
499.993
499.996
499.998
499.998
499.998
499.998
499.997
499.998
499.982
499.985
499.963
499.978
499.981
499.99
499.992
499.991
499.991
499.988
499.994
499.997
499.996
499.996
499.982
499.983
499.961
499.978
499.979
499.989
499.991
499.99
499.99
499.987
499.994
499.997
499.995
499.996
499.947
499.946
499.949
499.968
499.971
499.97
499.983
499.985
499.986
499.966
499.981
499.98
499.99
499.993
499.991
499.991
499.988
499.994
499.997
499.996
499.996
499.992
499.992
499.99
499.995
499.997
499.996
499.996
499.986
499.987
499.969
499.982
499.983
499.991
499.993
499.99
499.99
499.988
499.994
499.997
499.996
499.996
499.985
499.966
499.981
499.985
499.982
499.991
499.993
499.985
499.969
499.982
499.986
499.983
499.991
499.993
499.952
499.954
499.973
499.954
499.973
499.974
499.985
498.48
496.351
493.658
498.559
496.573
494.125
498.559
496.536
494.035
498.587
496.59
494.089
498.446
496.273
493.586
498.427
496.268
493.638
498.438
496.296
493.702
498.503
496.475
494.002
498.535
496.563
494.184
499.177
497.947
496.285
498.468
496.311
493.625
499.169
497.941
496.296
499.047
497.65
495.81
498.981
497.496
495.595
498.557
496.552
494.112
498.319
495.948
493.036
498.447
496.366
493.807
498.503
496.509
494.121
499.154
498.222
497.266
499.04
497.629
495.76
498.985
497.495
495.563
498.413
496.232
493.571
498.446
496.307
493.73
498.31
495.933
493.01
498.322
495.947
493.037
498.329
495.966
493.05
498.316
495.945
493.027
498.31
495.92
492.968
498.605
496.666
494.283
498.625
496.694
494.299
498.596
496.623
494.173
498.486
496.456
493.991
498.479
496.459
493.999
498.324
495.971
493.071
498.305
495.939
493.039
498.34
496.021
493.174
498.331
496.018
493.175
498.332
496.001
493.116
498.349
496.026
493.169
498.388
496.12
493.311
498.357
496.045
493.184
498.307
495.93
493.003
498.663
496.759
494.377
498.965
497.468
495.545
498.663
496.769
494.408
498.98
497.491
495.573
498.456
496.341
493.813
498.47
496.358
493.803
498.592
496.619
494.171
498.437
496.298
493.71
498.456
496.307
493.649
498.473
496.359
493.808
498.464
496.353
493.827
498.46
496.347
493.812
498.489
496.447
493.951
498.498
496.49
494.084
498.443
496.291
493.654
498.465
496.341
493.764
498.53
496.556
494.203
498.804
497.252
495.366
498.762
497.137
495.201
498.824
497.285
495.42
498.775
497.155
495.221
499.431
498.692
497.788
499.43
498.68
497.758
498.987
497.514
495.627
498.638
496.722
494.33
498.984
497.499
495.603
498.609
496.634
494.129
498.663
496.767
494.391
498.324
495.962
493.043
498.464
496.301
493.606
498.578
496.558
494.018
498.331
495.969
493.064
498.313
495.946
493.033
498.456
496.361
493.784
498.511
496.522
494.163
498.494
496.436
493.92
498.323
495.956
493.053
498.503
496.513
494.145
498.8
497.244
495.345
498.76
497.133
495.209
498.922
497.519
495.803
498.92
497.524
495.828
498.767
497.165
495.297
498.779
497.202
495.313
498.916
497.494
495.734
498.498
496.475
494.022
498.527
496.552
494.153
498.824
497.285
495.42
498.769
497.145
495.205
499.153
498.225
497.265
499.154
498.224
497.269
499.43
498.688
497.784
499.429
498.676
497.754
498.969
497.481
495.578
498.629
496.707
494.31
498.985
497.524
495.706
498.975
497.494
495.61
498.604
496.628
494.128
498.654
496.75
494.356
498.325
495.962
493.041
498.524
496.472
493.894
498.572
496.569
494.045
498.456
496.292
493.625
498.33
495.965
493.053
498.311
495.941
493.025
498.487
496.419
493.888
498.45
496.283
493.61
498.464
496.379
493.815
498.529
496.544
494.174
498.499
496.45
493.93
498.77
497.184
495.235
498.729
497.079
495.122
498.918
497.507
495.761
498.911
497.489
495.731
498.908
497.486
495.718
498.767
497.16
495.274
498.778
497.198
495.305
498.753
497.13
495.204
498.527
496.553
494.188
498.774
497.154
495.212
499.153
498.226
497.274
498.98
497.491
495.572
498.601
496.631
494.14
498.671
496.777
494.393
498.619
496.662
494.183
498.677
496.798
494.459
498.458
496.314
493.709
498.437
496.277
493.646
498.457
496.33
493.773
498.434
496.261
493.577
498.452
496.311
493.707
498.453
496.287
493.589
498.458
496.324
493.747
498.389
496.202
493.534
498.425
496.28
493.699
498.476
496.459
494.065
498.451
496.311
493.719
498.449
496.315
493.731
498.823
497.287
495.436
498.77
497.146
495.202
498.479
496.427
493.916
498.529
496.553
494.198
498.765
497.139
495.202
498.535
496.569
494.213
498.417
496.257
493.587
498.496
496.465
494.118
498.357
496.198
493.695
498.275
496.002
493.185
498.392
496.189
493.442
498.49
496.451
494.137
498.375
496.146
493.456
498.368
496.133
493.43
498.341
496.097
493.389
498.405
496.293
493.861
498.358
496.151
493.451
498.411
496.326
494.004
498.4
496.237
493.572
498.478
496.437
494.152
498.294
496.019
493.165
498.41
496.277
493.799
498.346
496.058
493.218
498.311
496
493.156
498.344
496.015
493.129
498.339
496.035
493.21
498.37
496.139
493.444
498.369
496.233
493.786
498.367
496.176
493.516
498.407
496.321
494.005
498.673
496.777
494.442
498.578
496.599
494.275
498.647
496.733
494.379
498.591
496.628
494.329
498.531
496.546
494.288
498.533
496.544
494.175
498.393
496.251
493.641
498.485
496.469
494.202
498.437
496.335
493.892
498.295
496.033
493.213
498.372
496.127
493.347
498.327
496.039
493.222
498.313
496.029
493.227
498.31
496.006
493.17
498.441
496.384
494.04
498.326
496.15
493.542
498.415
496.371
494.158
498.604
496.634
494.207
498.535
496.497
494.122
498.64
496.735
494.379
498.7
496.861
494.569
498.535
496.472
493.834
498.577
496.603
494.216
498.51
496.432
493.803
498.438
496.247
493.481
498.469
496.39
493.982
498.455
496.334
493.738
498.42
496.253
493.546
498.521
496.488
494.097
498.503
496.421
493.854
498.491
496.396
493.832
498.488
496.366
493.724
498.588
496.69
494.362
498.611
496.78
494.66
498.615
496.789
494.61
498.614
496.758
494.513
498.586
496.688
494.399
498.529
496.578
494.261
498.491
496.48
494.053
498.547
496.61
494.377
498.59
496.703
494.415