/*--------------------------------*- C++ -*----------------------------------*\
| =========                 |                                                 |
| \\      /  F ield         | OpenFOAM: The Open Source CFD Toolbox           |
|  \\    /   O peration     | Version:  v1906                                 |
|   \\  /    A nd           | Web:      www.OpenFOAM.com                      |
|    \\/     M anipulation  |                                                 |
\*---------------------------------------------------------------------------*/
FoamFile
{
    version     2.0;
    format      ascii;
    class       volScalarField;
    location    "0.51/oil";
    object      alphat;
}
// * * * * * * * * * * * * * * * * * * * * * * * * * * * * * * * * * * * * * //

dimensions      [1 -1 -1 0 0 0 0];


internalField   nonuniform List<scalar> 
168664
(
0.00283691
0.000305785
0.000314378
8.80981e-05
7.64744e-05
3.81659e-05
2.59635e-05
2.03716e-05
1.33017e-05
1.43056e-05
1.23412e-05
1.46088e-05
1.33846e-05
1.35382e-05
1.20944e-05
1.19119e-05
1.08388e-05
9.88415e-06
8.87543e-06
7.94601e-06
7.33999e-06
7.35068e-06
7.14627e-06
6.57627e-06
5.5933e-06
4.43385e-06
3.20563e-06
2.37829e-06
1.57515e-06
3.60316e-07
0.000304766
0.000356775
8.07255e-05
6.90156e-05
3.02888e-05
2.32668e-05
1.53069e-05
1.31289e-05
1.01081e-05
1.064e-05
1.044e-05
1.17333e-05
1.12634e-05
1.15184e-05
1.06914e-05
1.06423e-05
9.78847e-06
9.11317e-06
8.23752e-06
7.61628e-06
7.22119e-06
7.17098e-06
6.91044e-06
6.3858e-06
5.804e-06
5.03335e-06
4.26877e-06
3.4017e-06
3.44427e-06
1.95551e-06
0.000311888
8.07155e-05
7.39282e-05
4.75718e-05
3.57705e-05
2.59728e-05
1.92047e-05
1.53104e-05
1.24529e-05
1.1655e-05
1.12106e-05
1.15046e-05
1.08706e-05
1.11293e-05
1.03982e-05
1.02724e-05
9.49526e-06
8.89772e-06
8.06822e-06
7.5347e-06
7.35538e-06
7.37606e-06
7.27186e-06
6.88826e-06
6.36721e-06
5.74988e-06
5.17652e-06
4.79448e-06
5.65787e-06
4.48304e-06
9.1256e-05
7.09795e-05
4.95747e-05
3.70832e-05
2.63764e-05
2.03336e-05
1.67231e-05
1.39099e-05
1.26294e-05
1.1612e-05
1.12824e-05
1.10003e-05
1.07773e-05
1.10112e-05
1.03465e-05
1.00372e-05
9.27176e-06
8.69112e-06
7.97289e-06
7.52998e-06
7.32531e-06
7.38135e-06
7.49011e-06
7.25466e-06
6.69586e-06
6.04342e-06
5.61499e-06
5.91674e-06
7.05047e-06
6.26055e-06
7.81216e-05
3.37619e-05
3.74275e-05
2.6604e-05
2.4654e-05
2.04652e-05
1.78399e-05
1.57562e-05
1.41299e-05
1.31232e-05
1.22418e-05
1.16209e-05
1.12608e-05
1.13201e-05
1.05403e-05
1.00161e-05
9.24829e-06
8.71652e-06
8.28105e-06
8.20337e-06
7.99869e-06
8.04229e-06
8.09901e-06
7.97857e-06
7.54049e-06
7.02564e-06
6.78886e-06
7.3803e-06
8.67264e-06
8.41342e-06
4.77289e-05
3.14377e-05
3.23625e-05
2.40299e-05
2.29562e-05
1.79589e-05
1.69439e-05
1.44129e-05
1.37567e-05
1.26906e-05
1.22449e-05
1.13937e-05
1.09537e-05
1.10808e-05
1.0403e-05
9.60908e-06
8.84832e-06
8.23702e-06
8.15118e-06
8.35764e-06
8.15507e-06
8.04256e-06
7.97079e-06
7.91327e-06
7.61081e-06
7.46669e-06
7.48976e-06
8.33363e-06
9.65819e-06
9.7901e-06
3.47567e-05
2.37295e-05
2.45563e-05
1.98633e-05
1.96838e-05
1.69298e-05
1.60644e-05
1.44739e-05
1.36431e-05
1.29441e-05
1.24543e-05
1.17582e-05
1.14053e-05
1.18053e-05
1.10098e-05
9.84489e-06
8.83785e-06
8.12524e-06
8.04958e-06
8.28723e-06
8.08815e-06
8.04568e-06
8.07135e-06
8.17439e-06
8.17794e-06
8.3944e-06
8.76237e-06
9.75605e-06
1.11049e-05
1.17188e-05
3.38554e-05
2.49881e-05
2.50232e-05
2.04271e-05
2.00059e-05
1.65055e-05
1.58218e-05
1.35594e-05
1.29139e-05
1.19069e-05
1.17997e-05
1.14165e-05
1.17136e-05
1.23836e-05
1.17068e-05
1.02076e-05
9.16058e-06
8.21312e-06
7.93567e-06
7.77012e-06
7.48299e-06
7.46698e-06
7.63126e-06
7.9892e-06
8.39674e-06
9.04037e-06
9.70847e-06
1.07825e-05
1.20629e-05
1.29704e-05
2.67139e-05
2.11935e-05
2.0775e-05
1.81677e-05
1.75448e-05
1.52854e-05
1.44248e-05
1.27198e-05
1.19339e-05
1.11581e-05
1.12888e-05
1.17043e-05
1.24381e-05
1.31356e-05
1.24073e-05
1.09086e-05
9.60977e-06
8.41802e-06
7.83314e-06
7.42883e-06
7.10182e-06
7.30981e-06
7.7113e-06
8.40375e-06
9.18377e-06
1.00817e-05
1.10145e-05
1.20746e-05
1.31873e-05
1.43831e-05
2.84189e-05
2.26589e-05
2.21561e-05
1.947e-05
1.84364e-05
1.56563e-05
1.44549e-05
1.22553e-05
1.12566e-05
1.02425e-05
1.06678e-05
1.1394e-05
1.22085e-05
1.2359e-05
1.18773e-05
1.08134e-05
9.45487e-06
8.20394e-06
7.51131e-06
6.94946e-06
6.65826e-06
7.02986e-06
7.64398e-06
8.514e-06
9.38477e-06
1.05054e-05
1.16793e-05
1.26928e-05
1.3711e-05
1.50758e-05
2.50903e-05
2.06624e-05
1.99194e-05
1.80842e-05
1.69672e-05
1.49874e-05
1.38157e-05
1.19137e-05
1.08684e-05
1.01548e-05
1.06905e-05
1.14102e-05
1.14627e-05
1.07059e-05
1.00135e-05
9.3893e-06
8.39719e-06
7.59545e-06
7.09375e-06
6.79715e-06
6.78165e-06
7.47033e-06
8.31012e-06
9.35276e-06
1.02776e-05
1.15286e-05
1.2775e-05
1.36096e-05
1.45148e-05
1.60209e-05
2.66067e-05
2.18313e-05
2.09189e-05
1.90709e-05
1.80627e-05
1.62736e-05
1.51263e-05
1.28805e-05
1.13663e-05
1.00422e-05
9.9455e-06
9.95637e-06
9.10456e-06
7.72493e-06
7.02939e-06
6.56351e-06
5.90831e-06
5.95692e-06
6.09559e-06
6.26284e-06
6.75807e-06
7.84806e-06
8.94831e-06
1.02769e-05
1.13194e-05
1.2534e-05
1.35707e-05
1.41909e-05
1.50039e-05
1.66169e-05
2.44837e-05
2.07325e-05
2.00281e-05
1.89183e-05
1.8072e-05
1.67263e-05
1.56596e-05
1.35338e-05
1.18356e-05
9.77722e-06
8.79989e-06
7.92044e-06
6.48808e-06
5.51274e-06
4.80169e-06
4.39502e-06
3.93345e-06
3.98194e-06
4.7195e-06
5.4236e-06
6.53827e-06
8.45358e-06
9.88142e-06
1.12671e-05
1.23238e-05
1.34733e-05
1.43389e-05
1.49541e-05
1.58531e-05
1.78325e-05
2.41727e-05
2.04714e-05
1.99052e-05
1.90196e-05
1.82035e-05
1.68286e-05
1.57827e-05
1.40153e-05
1.25443e-05
9.66826e-06
7.30442e-06
4.97358e-06
3.28651e-06
2.3379e-06
1.98288e-06
1.82335e-06
1.32359e-06
1.72902e-06
2.70385e-06
4.44341e-06
6.31149e-06
8.88282e-06
1.05834e-05
1.19999e-05
1.28994e-05
1.39986e-05
1.48776e-05
1.55974e-05
1.65974e-05
1.89776e-05
2.28122e-05
1.94872e-05
1.88774e-05
1.81244e-05
1.73786e-05
1.6225e-05
1.52273e-05
1.3762e-05
1.2531e-05
9.81658e-06
7.16162e-06
4.74734e-06
3.09213e-06
1.88865e-06
1.40349e-06
9.75538e-07
1.12753e-06
2.11691e-06
3.07942e-06
4.88114e-06
6.78592e-06
9.41361e-06
1.13006e-05
1.28394e-05
1.37549e-05
1.48105e-05
1.56993e-05
1.64511e-05
1.74037e-05
2.00864e-05
2.27057e-05
1.9329e-05
1.86338e-05
1.78702e-05
1.71679e-05
1.60543e-05
1.50348e-05
1.33867e-05
1.18304e-05
9.28465e-06
7.01684e-06
4.86451e-06
3.33859e-06
1.89437e-06
1.61481e-06
1.14315e-06
1.41095e-06
2.72421e-06
3.66581e-06
5.44284e-06
7.16643e-06
9.70419e-06
1.13582e-05
1.28899e-05
1.37672e-05
1.48718e-05
1.57532e-05
1.6546e-05
1.7351e-05
1.9913e-05
2.10054e-05
1.8137e-05
1.74049e-05
1.67372e-05
1.60582e-05
1.50295e-05
1.4111e-05
1.27071e-05
1.10175e-05
8.37793e-06
5.77188e-06
3.71293e-06
2.45441e-06
1.64588e-06
2.06155e-06
1.82775e-06
1.85354e-06
3.40975e-06
4.69052e-06
6.40958e-06
7.97533e-06
1.01909e-05
1.16042e-05
1.29073e-05
1.38144e-05
1.49833e-05
1.59261e-05
1.66413e-05
1.73167e-05
1.97396e-05
2.00509e-05
1.74939e-05
1.67343e-05
1.60327e-05
1.5296e-05
1.4146e-05
1.31455e-05
1.16858e-05
1.02356e-05
7.94648e-06
6.09304e-06
4.89742e-06
3.76498e-06
3.45665e-06
3.78859e-06
3.47972e-06
3.44823e-06
4.856e-06
6.43528e-06
7.87233e-06
8.42142e-06
1.01611e-05
1.12409e-05
1.26578e-05
1.36754e-05
1.48794e-05
1.58664e-05
1.67563e-05
1.75944e-05
2.00765e-05
1.88081e-05
1.66994e-05
1.58749e-05
1.50903e-05
1.42298e-05
1.30649e-05
1.20008e-05
1.05898e-05
9.33581e-06
8.01868e-06
7.20837e-06
6.66846e-06
5.89089e-06
5.47467e-06
5.68571e-06
5.26606e-06
5.29016e-06
6.36378e-06
7.46393e-06
8.16716e-06
8.30683e-06
9.1537e-06
1.00175e-05
1.14379e-05
1.24412e-05
1.34608e-05
1.44592e-05
1.57356e-05
1.69912e-05
1.95865e-05
1.78422e-05
1.58001e-05
1.48566e-05
1.38349e-05
1.28138e-05
1.16002e-05
1.06783e-05
9.52676e-06
8.60923e-06
7.7411e-06
7.58553e-06
7.54324e-06
7.46238e-06
7.66767e-06
8.11449e-06
7.88925e-06
7.9607e-06
8.35023e-06
8.22467e-06
8.07269e-06
7.72178e-06
8.23636e-06
8.86497e-06
1.01031e-05
1.10115e-05
1.20531e-05
1.30855e-05
1.44511e-05
1.57472e-05
1.81183e-05
1.63606e-05
1.45897e-05
1.37687e-05
1.26665e-05
1.16069e-05
1.05992e-05
9.7991e-06
8.85338e-06
8.06547e-06
7.52072e-06
7.53955e-06
7.61018e-06
7.87104e-06
8.67766e-06
9.78136e-06
1.0203e-05
1.02616e-05
9.64585e-06
8.83231e-06
8.11923e-06
7.46656e-06
7.7123e-06
8.25291e-06
9.35957e-06
1.01641e-05
1.12035e-05
1.21635e-05
1.33881e-05
1.45173e-05
1.6213e-05
1.53112e-05
1.39084e-05
1.31932e-05
1.20484e-05
1.10291e-05
1.01641e-05
9.50636e-06
8.76794e-06
8.17801e-06
7.8031e-06
7.55229e-06
7.19752e-06
7.47955e-06
8.55821e-06
9.88772e-06
1.08832e-05
1.08971e-05
9.5709e-06
8.47146e-06
8.03024e-06
7.62685e-06
7.88526e-06
8.21472e-06
9.01633e-06
9.54866e-06
1.04052e-05
1.1171e-05
1.23451e-05
1.34927e-05
1.4807e-05
1.37823e-05
1.27693e-05
1.18651e-05
1.07689e-05
1.00497e-05
9.40258e-06
8.96615e-06
8.53418e-06
8.23032e-06
8.10783e-06
7.73155e-06
7.04548e-06
7.03144e-06
8.02899e-06
9.24647e-06
1.02196e-05
1.01469e-05
8.93051e-06
8.19698e-06
8.22523e-06
8.06482e-06
8.12115e-06
8.13673e-06
8.55089e-06
8.76693e-06
9.37856e-06
9.974e-06
1.1112e-05
1.22689e-05
1.3143e-05
1.24214e-05
1.16339e-05
1.05121e-05
9.60737e-06
9.17644e-06
8.82953e-06
8.70141e-06
8.59363e-06
8.49746e-06
8.38431e-06
7.83857e-06
7.13063e-06
6.85635e-06
7.44778e-06
8.36862e-06
9.08935e-06
9.12314e-06
8.46227e-06
8.103e-06
8.3768e-06
8.40059e-06
8.48388e-06
8.34138e-06
8.47302e-06
8.40925e-06
8.66579e-06
8.96781e-06
1.00356e-05
1.12174e-05
1.18199e-05
1.02864e-05
9.99376e-06
8.88737e-06
8.26272e-06
8.06465e-06
7.93956e-06
8.08528e-06
8.26644e-06
8.4435e-06
8.33857e-06
7.67522e-06
7.11259e-06
7.14454e-06
7.46579e-06
7.9788e-06
8.28411e-06
8.61174e-06
8.42595e-06
8.06012e-06
8.03285e-06
8.18491e-06
8.38475e-06
8.2278e-06
8.23726e-06
7.96272e-06
7.88271e-06
7.79366e-06
8.7565e-06
9.95028e-06
1.01296e-05
8.66977e-06
8.68198e-06
7.53303e-06
7.13284e-06
7.30315e-06
7.52421e-06
7.78546e-06
8.13283e-06
8.44182e-06
8.48215e-06
7.85786e-06
7.40102e-06
7.62626e-06
7.886e-06
7.98026e-06
7.91759e-06
8.40693e-06
8.54106e-06
8.07022e-06
7.75793e-06
7.77403e-06
8.07729e-06
8.05738e-06
8.05675e-06
7.69144e-06
7.23399e-06
6.89963e-06
7.67753e-06
8.91177e-06
8.77374e-06
6.57472e-06
7.0604e-06
5.81151e-06
5.63629e-06
6.16083e-06
6.55649e-06
6.9737e-06
7.45667e-06
7.85552e-06
8.11858e-06
7.72799e-06
7.59075e-06
7.9474e-06
8.0959e-06
7.8889e-06
7.57186e-06
8.05577e-06
8.22674e-06
7.97622e-06
7.55255e-06
7.26569e-06
7.25588e-06
7.16085e-06
7.12118e-06
6.76061e-06
6.30412e-06
5.82597e-06
6.30465e-06
7.41493e-06
6.79454e-06
4.73504e-06
5.71246e-06
4.57799e-06
4.99068e-06
5.52876e-06
6.06812e-06
6.64047e-06
7.21904e-06
7.70323e-06
8.02562e-06
7.84035e-06
7.93342e-06
8.27933e-06
8.28882e-06
8.04737e-06
7.66114e-06
7.86554e-06
8.05606e-06
8.02876e-06
7.78306e-06
7.24411e-06
6.98896e-06
6.72204e-06
6.65782e-06
6.40857e-06
6.03996e-06
5.4358e-06
5.06642e-06
5.96652e-06
4.95484e-06
2.32003e-06
3.7625e-06
3.53827e-06
4.29264e-06
4.8942e-06
5.66113e-06
6.3508e-06
7.10365e-06
7.77428e-06
8.31243e-06
8.44221e-06
8.54172e-06
8.73069e-06
8.76355e-06
8.80082e-06
8.4449e-06
8.46479e-06
8.55019e-06
8.489e-06
8.07026e-06
7.30465e-06
6.87363e-06
6.48024e-06
6.29907e-06
5.87196e-06
5.21792e-06
4.43526e-06
3.46467e-06
3.62518e-06
2.26998e-06
1.0476e-06
2.20902e-06
3.18195e-06
3.98969e-06
4.95162e-06
5.85697e-06
6.71339e-06
7.62475e-06
8.52287e-06
9.10834e-06
9.37357e-06
9.52512e-06
9.53459e-06
9.75715e-06
9.66554e-06
9.21088e-06
9.29459e-06
9.49788e-06
9.43002e-06
8.66524e-06
7.6212e-06
7.0607e-06
6.47707e-06
6.15414e-06
5.35721e-06
4.35791e-06
3.09664e-06
2.12535e-06
1.40615e-06
4.29276e-07
0.000304234
0.000365138
8.27365e-05
7.10416e-05
3.0476e-05
2.37429e-05
1.51871e-05
1.35546e-05
9.55831e-06
1.05437e-05
9.31068e-06
1.11734e-05
1.03647e-05
1.14159e-05
1.06121e-05
1.07541e-05
9.93745e-06
8.95685e-06
8.4999e-06
7.54152e-06
7.13984e-06
6.6297e-06
6.61672e-06
6.13763e-06
5.76893e-06
4.87263e-06
4.0774e-06
3.10553e-06
2.56897e-06
1.55029e-06
0.000362376
7.25763e-05
5.85582e-05
2.74172e-05
1.3938e-05
1.06333e-05
7.29437e-06
5.4852e-06
4.63895e-06
4.54611e-06
4.71237e-06
4.1399e-06
3.26469e-06
3.37347e-06
3.55209e-06
3.64567e-06
3.46912e-06
3.40102e-06
3.07151e-06
2.80297e-06
2.76869e-06
3.30974e-06
3.84058e-06
4.23204e-06
4.16054e-06
3.74517e-06
3.28199e-06
2.84372e-06
4.04343e-06
3.48468e-06
8.05474e-05
5.95715e-05
3.08075e-05
2.73412e-05
1.47642e-05
1.30609e-05
9.06325e-06
6.99462e-06
5.66608e-06
5.7495e-06
6.18164e-06
6.21632e-06
4.5844e-06
3.5561e-06
3.19682e-06
3.03393e-06
2.53601e-06
2.06061e-06
1.96721e-06
2.51105e-06
2.94703e-06
4.12758e-06
4.96752e-06
5.10628e-06
5.1161e-06
4.88902e-06
4.06903e-06
3.76042e-06
4.57439e-06
5.71716e-06
7.11019e-05
2.5188e-05
2.53894e-05
1.58071e-05
8.9193e-06
8.47279e-06
5.17101e-06
5.40627e-06
4.85189e-06
5.32276e-06
5.60135e-06
5.98356e-06
4.36244e-06
3.30452e-06
2.81253e-06
2.7354e-06
2.81802e-06
2.13145e-06
2.37751e-06
3.3857e-06
4.24557e-06
4.88151e-06
4.65981e-06
4.54922e-06
4.99991e-06
5.06262e-06
4.43377e-06
4.35537e-06
4.29654e-06
7.12008e-06
3.33937e-05
1.23218e-05
1.2337e-05
9.53453e-06
6.06693e-06
6.54028e-06
4.31534e-06
4.55567e-06
3.81782e-06
3.8585e-06
3.61469e-06
4.03758e-06
2.73059e-06
2.73163e-06
2.63806e-06
2.70816e-06
2.89422e-06
2.14566e-06
2.60169e-06
3.74228e-06
4.25351e-06
3.57388e-06
2.59601e-06
2.63709e-06
3.32743e-06
3.88605e-06
4.17504e-06
4.52356e-06
4.0533e-06
8.79762e-06
3.097e-05
7.87893e-06
1.0913e-05
8.60804e-06
5.96313e-06
5.78042e-06
3.28916e-06
3.51212e-06
2.30308e-06
2.62065e-06
2.66637e-06
3.13999e-06
2.50621e-06
2.73043e-06
2.80271e-06
2.92649e-06
3.0929e-06
2.6218e-06
3.17701e-06
3.54396e-06
3.22947e-06
2.11275e-06
1.32984e-06
1.51195e-06
2.00644e-06
2.86882e-06
3.74383e-06
4.37273e-06
3.77339e-06
9.78017e-06
2.37351e-05
5.06024e-06
7.00425e-06
5.09533e-06
4.12425e-06
4.06736e-06
2.79272e-06
3.00784e-06
2.13587e-06
2.45056e-06
2.50153e-06
3.07186e-06
2.54687e-06
2.92054e-06
3.2094e-06
3.12627e-06
3.24358e-06
3.16721e-06
3.72461e-06
3.13161e-06
2.45634e-06
1.71263e-06
1.4099e-06
1.35401e-06
1.73106e-06
2.81556e-06
3.75161e-06
4.27466e-06
3.78262e-06
1.11859e-05
2.49196e-05
2.78291e-06
5.86263e-06
5.693e-06
4.78037e-06
4.62175e-06
3.44226e-06
3.45871e-06
2.53054e-06
2.65189e-06
2.57779e-06
2.80847e-06
2.10633e-06
2.55559e-06
3.10275e-06
2.83553e-06
2.80487e-06
3.13446e-06
3.49771e-06
2.74841e-06
1.99175e-06
1.62406e-06
1.40862e-06
1.43013e-06
1.95631e-06
3.02615e-06
3.72975e-06
4.10879e-06
3.70561e-06
1.20987e-05
2.12757e-05
3.00165e-06
4.05329e-06
3.87122e-06
3.75658e-06
3.7034e-06
3.10647e-06
3.19958e-06
2.77015e-06
2.88663e-06
2.6896e-06
2.14465e-06
1.12373e-06
3.03138e-06
3.93794e-06
3.35051e-06
2.42797e-06
2.33717e-06
2.94152e-06
2.58192e-06
2.10232e-06
1.86858e-06
1.72038e-06
1.9213e-06
2.44895e-06
3.19996e-06
3.54802e-06
3.67676e-06
3.47821e-06
1.32651e-05
2.25364e-05
2.12725e-06
3.17753e-06
3.51278e-06
3.68853e-06
3.92065e-06
3.48604e-06
3.55906e-06
3.31595e-06
3.20922e-06
2.84284e-06
1.77747e-06
2.11445e-06
4.40109e-06
5.25536e-06
4.48493e-06
3.09052e-06
1.42359e-06
2.00934e-06
2.40828e-06
2.10245e-06
2.10188e-06
2.02705e-06
2.30185e-06
2.53663e-06
2.91456e-06
2.94367e-06
2.85556e-06
2.97941e-06
1.39211e-05
2.07255e-05
2.50505e-06
2.36558e-06
2.26544e-06
2.31962e-06
2.81599e-06
2.95193e-06
3.39883e-06
3.52421e-06
3.38142e-06
3.04754e-06
2.62475e-06
4.00954e-06
5.8512e-06
6.56394e-06
6.20228e-06
5.19825e-06
2.59944e-06
1.79918e-06
2.34223e-06
2.52992e-06
2.73996e-06
2.72766e-06
2.87382e-06
2.8972e-06
2.91898e-06
2.66315e-06
2.43329e-06
2.6561e-06
1.45956e-05
2.1841e-05
2.44859e-06
1.89646e-06
1.8723e-06
1.90769e-06
2.52723e-06
2.90428e-06
3.50307e-06
4.0608e-06
4.05804e-06
3.43804e-06
3.62311e-06
4.67928e-06
5.26856e-06
5.5521e-06
5.50746e-06
4.75292e-06
3.30988e-06
2.18153e-06
2.38132e-06
2.93814e-06
3.24042e-06
3.13e-06
3.07626e-06
2.97257e-06
2.889e-06
2.48224e-06
2.37216e-06
2.43028e-06
1.49906e-05
2.04966e-05
2.55646e-06
1.76809e-06
1.5951e-06
1.493e-06
1.78469e-06
2.07734e-06
2.77999e-06
3.63481e-06
3.70864e-06
3.14551e-06
4.66903e-06
5.12805e-06
5.09491e-06
4.97992e-06
4.72104e-06
4.35312e-06
3.57187e-06
3.04969e-06
2.09966e-06
2.93643e-06
3.24829e-06
2.95273e-06
2.62683e-06
2.42003e-06
2.38362e-06
2.14982e-06
2.30045e-06
2.51115e-06
1.59458e-05
2.03973e-05
2.28735e-06
1.8383e-06
1.81389e-06
1.83185e-06
1.76894e-06
1.90878e-06
2.51049e-06
3.40525e-06
3.56538e-06
3.86543e-06
4.44784e-06
4.19844e-06
3.98409e-06
3.51512e-06
3.18217e-06
2.48862e-06
2.43998e-06
2.36062e-06
2.13819e-06
2.38773e-06
2.9637e-06
2.60524e-06
2.15163e-06
1.92803e-06
1.99789e-06
1.91642e-06
2.13895e-06
2.55324e-06
1.67524e-05
1.94308e-05
2.50976e-06
1.97493e-06
1.89945e-06
1.90433e-06
1.95612e-06
2.11184e-06
2.63147e-06
3.307e-06
3.94412e-06
4.16276e-06
3.76203e-06
3.20119e-06
2.74665e-06
3.03217e-06
2.69658e-06
2.14632e-06
2.34602e-06
2.46973e-06
2.97451e-06
3.33243e-06
3.3411e-06
2.62937e-06
1.9592e-06
1.7613e-06
1.82364e-06
1.78855e-06
1.98368e-06
2.58625e-06
1.74827e-05
1.93789e-05
2.74862e-06
2.18542e-06
2.03259e-06
2.13207e-06
2.28677e-06
2.49624e-06
2.8817e-06
3.57504e-06
3.95092e-06
3.52875e-06
2.56523e-06
2.20531e-06
2.19392e-06
2.85921e-06
2.90707e-06
2.41997e-06
2.64417e-06
2.93183e-06
3.57705e-06
3.64554e-06
3.41218e-06
2.46153e-06
1.6426e-06
1.37603e-06
1.55569e-06
1.58965e-06
1.71567e-06
2.20124e-06
1.732e-05
1.83089e-05
2.8107e-06
2.44231e-06
2.25302e-06
2.39308e-06
2.51746e-06
2.67686e-06
3.08139e-06
3.6498e-06
3.40444e-06
3.08907e-06
2.90413e-06
2.74706e-06
2.79765e-06
3.44434e-06
3.42013e-06
3.0686e-06
3.20027e-06
3.25772e-06
3.08132e-06
2.97514e-06
3.57525e-06
2.65391e-06
1.72977e-06
1.46121e-06
1.75837e-06
1.94451e-06
1.93661e-06
2.19991e-06
1.72722e-05
1.76628e-05
2.77922e-06
2.69671e-06
2.43609e-06
2.6423e-06
2.73194e-06
2.99294e-06
3.22185e-06
3.63181e-06
3.20836e-06
2.77155e-06
2.95584e-06
3.31168e-06
3.65506e-06
4.21886e-06
4.24865e-06
4.34942e-06
4.073e-06
3.21702e-06
1.99261e-06
3.26609e-06
4.17791e-06
3.23645e-06
2.63976e-06
2.25471e-06
2.30284e-06
2.52294e-06
2.51959e-06
2.67119e-06
1.73555e-05
1.66315e-05
3.05833e-06
3.13533e-06
3.06062e-06
3.41609e-06
3.44829e-06
3.55966e-06
3.52021e-06
3.76463e-06
3.4589e-06
3.32582e-06
2.47677e-06
2.96432e-06
3.86265e-06
4.75411e-06
4.71904e-06
4.58584e-06
3.83132e-06
2.30891e-06
1.97226e-06
3.52495e-06
4.37796e-06
3.6923e-06
3.2829e-06
2.86133e-06
2.88819e-06
3.09156e-06
3.17712e-06
3.2162e-06
1.69568e-05
1.58861e-05
3.1839e-06
3.07087e-06
3.28627e-06
3.6109e-06
3.21607e-06
3.06092e-06
2.76987e-06
3.05733e-06
2.74435e-06
2.91757e-06
1.5985e-06
1.82352e-06
3.7357e-06
5.12257e-06
5.35766e-06
5.08052e-06
3.21204e-06
1.39712e-06
2.25941e-06
2.89749e-06
3.58417e-06
3.09627e-06
3.01861e-06
2.80143e-06
3.13834e-06
3.22462e-06
3.09742e-06
3.21788e-06
1.5968e-05
1.49337e-05
3.53429e-06
3.22856e-06
3.68938e-06
3.91614e-06
3.01399e-06
2.60865e-06
2.23215e-06
2.52427e-06
2.37313e-06
2.79889e-06
1.92785e-06
9.6204e-07
1.76209e-06
3.53593e-06
4.39638e-06
4.1086e-06
1.62926e-06
1.4906e-06
2.81368e-06
2.71665e-06
2.99852e-06
2.56478e-06
2.77898e-06
2.93831e-06
3.69608e-06
3.66588e-06
3.44265e-06
3.28134e-06
1.44727e-05
1.40018e-05
3.67794e-06
3.79669e-06
4.19401e-06
3.91741e-06
2.7711e-06
2.29873e-06
1.73301e-06
2.0109e-06
2.02183e-06
2.69438e-06
2.69005e-06
2.20743e-06
1.51301e-06
2.28425e-06
2.86892e-06
2.39513e-06
1.49035e-06
2.10025e-06
2.69303e-06
2.18482e-06
2.33067e-06
1.91304e-06
2.27337e-06
2.56601e-06
3.63664e-06
3.95048e-06
3.91638e-06
3.33435e-06
1.33578e-05
1.28194e-05
3.70991e-06
4.40342e-06
4.28926e-06
3.5657e-06
2.40439e-06
1.98727e-06
1.36174e-06
1.76728e-06
1.87621e-06
2.68996e-06
3.097e-06
2.96848e-06
2.94732e-06
3.07436e-06
3.02128e-06
1.88221e-06
2.36068e-06
3.00144e-06
2.9462e-06
1.96384e-06
1.93622e-06
1.5164e-06
1.90475e-06
2.0843e-06
3.34341e-06
4.03015e-06
4.24117e-06
3.53643e-06
1.2207e-05
1.18309e-05
3.70185e-06
4.4514e-06
3.66055e-06
2.91033e-06
1.9558e-06
1.72066e-06
1.08046e-06
1.56432e-06
1.86161e-06
2.82093e-06
2.95014e-06
2.91e-06
3.61793e-06
3.67585e-06
3.06068e-06
2.08456e-06
3.06317e-06
3.59992e-06
3.70935e-06
2.46778e-06
1.781e-06
1.21898e-06
1.59976e-06
1.67851e-06
2.88697e-06
3.86681e-06
4.39133e-06
3.60921e-06
1.1227e-05
1.01982e-05
3.79446e-06
4.3697e-06
3.17258e-06
2.44613e-06
1.73053e-06
2.00842e-06
1.62332e-06
1.93302e-06
2.19112e-06
3.07607e-06
2.74762e-06
2.68043e-06
3.72991e-06
3.74697e-06
2.93993e-06
2.52426e-06
3.20699e-06
3.75604e-06
4.50536e-06
3.65548e-06
2.56268e-06
1.59968e-06
1.97954e-06
2.13338e-06
3.25221e-06
4.02942e-06
4.78062e-06
3.91229e-06
1.00095e-05
8.96662e-06
3.75811e-06
4.10028e-06
2.8736e-06
2.42298e-06
2.12597e-06
2.63403e-06
2.55051e-06
3.01683e-06
3.0046e-06
3.25058e-06
2.33423e-06
2.50773e-06
3.51758e-06
3.54998e-06
2.89809e-06
2.65261e-06
2.9766e-06
3.49581e-06
4.59308e-06
4.47311e-06
4.06837e-06
3.07967e-06
3.31572e-06
3.58565e-06
4.37269e-06
4.30875e-06
4.91821e-06
4.25138e-06
8.97044e-06
7.47527e-06
3.99531e-06
4.06099e-06
3.13051e-06
3.41807e-06
3.4314e-06
3.88735e-06
3.92158e-06
4.65518e-06
4.65691e-06
4.23577e-06
2.2276e-06
2.23082e-06
3.25807e-06
3.85722e-06
3.38856e-06
3.27982e-06
3.72879e-06
4.05025e-06
4.94364e-06
4.95351e-06
5.45197e-06
5.26599e-06
5.64801e-06
5.66149e-06
5.7135e-06
4.61857e-06
4.7859e-06
4.63946e-06
7.44594e-06
6.2369e-06
4.47503e-06
3.96447e-06
3.68394e-06
4.03493e-06
3.80147e-06
4.04801e-06
3.97594e-06
4.72449e-06
4.919e-06
4.64115e-06
2.44432e-06
1.99459e-06
3.02002e-06
3.64982e-06
3.11585e-06
2.94141e-06
3.59838e-06
3.72369e-06
4.02165e-06
3.69699e-06
4.46417e-06
4.87758e-06
5.80322e-06
5.61848e-06
5.30582e-06
4.0064e-06
3.83208e-06
4.70166e-06
6.02423e-06
4.22678e-06
4.4978e-06
3.4444e-06
3.74129e-06
3.76455e-06
3.56649e-06
3.86512e-06
3.92461e-06
4.59577e-06
4.8951e-06
4.92143e-06
3.80362e-06
3.64201e-06
3.33395e-06
3.08528e-06
2.40295e-06
2.51382e-06
3.0318e-06
2.99591e-06
3.15885e-06
2.79195e-06
3.45482e-06
3.56954e-06
4.33651e-06
4.16481e-06
3.88129e-06
3.18002e-06
2.81057e-06
3.99595e-06
3.68439e-06
2.5265e-06
3.45815e-06
3.87824e-06
4.53246e-06
5.16617e-06
5.83434e-06
6.63593e-06
7.60243e-06
8.54884e-06
9.50487e-06
9.53146e-06
9.43766e-06
8.90013e-06
8.92517e-06
8.76956e-06
8.4336e-06
8.54514e-06
8.44032e-06
8.64031e-06
8.13934e-06
7.47938e-06
6.92814e-06
6.39416e-06
6.1502e-06
5.61473e-06
4.84471e-06
3.86325e-06
2.85383e-06
2.35734e-06
1.6118e-06
0.000315077
8.28396e-05
7.37962e-05
4.6464e-05
3.27968e-05
2.54473e-05
1.69759e-05
1.45397e-05
9.26672e-06
9.44714e-06
8.03466e-06
8.72785e-06
8.60189e-06
7.64926e-06
7.69371e-06
7.68435e-06
7.14013e-06
7.76466e-06
6.65841e-06
7.33532e-06
5.59634e-06
6.35386e-06
5.9142e-06
6.89561e-06
6.35506e-06
5.86858e-06
4.80508e-06
3.69879e-06
2.78926e-06
2.2886e-06
8.04352e-05
5.98239e-05
3.16485e-05
2.80015e-05
1.32685e-05
1.12854e-05
7.77295e-06
6.49988e-06
6.00787e-06
5.38269e-06
4.2591e-06
3.17526e-06
2.55736e-06
2.85713e-06
3.31566e-06
2.82811e-06
2.9781e-06
3.06281e-06
3.03026e-06
2.32442e-06
1.4993e-06
1.96971e-06
2.91774e-06
3.41225e-06
3.17519e-06
2.63754e-06
2.44524e-06
2.50941e-06
3.04715e-06
3.26082e-06
7.23905e-05
3.23457e-05
2.82337e-05
2.63214e-05
1.64277e-05
1.37051e-05
9.08891e-06
7.53818e-06
7.02975e-06
7.28453e-06
6.4342e-06
5.44964e-06
4.20783e-06
3.82928e-06
3.72012e-06
3.46109e-06
3.84074e-06
3.45204e-06
3.39429e-06
3.01646e-06
2.73837e-06
3.30807e-06
4.78554e-06
5.35246e-06
4.1496e-06
3.01826e-06
3.22595e-06
4.22279e-06
3.87098e-06
4.97103e-06
4.89187e-05
2.62798e-05
2.48402e-05
1.90943e-05
1.20254e-05
1.04845e-05
6.61012e-06
5.8092e-06
4.9641e-06
6.12869e-06
6.75937e-06
6.96516e-06
5.90988e-06
5.00226e-06
4.2054e-06
3.90641e-06
3.79512e-06
3.15386e-06
3.3694e-06
3.03947e-06
2.49353e-06
4.40222e-06
6.44652e-06
6.51906e-06
5.28019e-06
3.73944e-06
3.71537e-06
4.46914e-06
4.16655e-06
6.29753e-06
3.63129e-05
1.31224e-05
1.44593e-05
1.13515e-05
8.49638e-06
8.31062e-06
6.01021e-06
5.4636e-06
4.57265e-06
5.69864e-06
7.24483e-06
7.50568e-06
5.556e-06
4.53165e-06
3.81124e-06
3.54174e-06
3.16449e-06
2.80263e-06
3.20114e-06
3.33699e-06
4.58308e-06
5.97742e-06
6.44468e-06
6.26053e-06
5.7544e-06
4.50392e-06
4.38892e-06
3.92107e-06
4.30448e-06
7.85647e-06
3.21201e-05
1.06368e-05
1.28253e-05
9.89221e-06
7.67268e-06
6.45806e-06
4.41882e-06
3.62493e-06
2.81657e-06
3.69201e-06
4.96662e-06
4.92872e-06
3.2263e-06
2.73248e-06
2.24459e-06
2.37723e-06
2.42202e-06
2.54516e-06
2.48161e-06
3.35548e-06
4.02675e-06
3.84065e-06
3.18742e-06
3.51194e-06
4.23079e-06
4.42657e-06
4.61086e-06
3.2522e-06
4.2429e-06
8.816e-06
2.48227e-05
6.35163e-06
7.64681e-06
5.61384e-06
4.80083e-06
4.29192e-06
2.9869e-06
2.7678e-06
2.41963e-06
2.89566e-06
3.65572e-06
3.80143e-06
2.50445e-06
2.41565e-06
2.2845e-06
2.36201e-06
2.30572e-06
2.25358e-06
2.72668e-06
3.23462e-06
2.61391e-06
1.83551e-06
1.13638e-06
1.74894e-06
3.2968e-06
4.28614e-06
4.27443e-06
2.74409e-06
4.22523e-06
1.01191e-05
2.51078e-05
4.59949e-06
6.18111e-06
6.09269e-06
5.58591e-06
4.97564e-06
3.66381e-06
3.34873e-06
2.68004e-06
2.64996e-06
3.03013e-06
3.31319e-06
2.31735e-06
2.60734e-06
1.98738e-06
1.62496e-06
1.36472e-06
1.99481e-06
2.88963e-06
2.76744e-06
1.59336e-06
1.20298e-06
8.92061e-07
1.56095e-06
3.03162e-06
3.82557e-06
3.66103e-06
2.56453e-06
4.04813e-06
1.10241e-05
2.08882e-05
3.79811e-06
3.56225e-06
3.05226e-06
3.409e-06
3.73011e-06
3.12989e-06
3.0083e-06
2.60694e-06
2.57263e-06
2.69978e-06
2.59788e-06
2.35135e-06
3.11514e-06
2.12989e-06
1.22291e-06
1.27807e-06
1.25215e-06
2.24555e-06
2.32762e-06
1.61826e-06
1.46436e-06
1.40388e-06
2.01611e-06
2.90241e-06
3.26221e-06
3.23778e-06
2.53516e-06
3.73919e-06
1.22735e-05
2.14833e-05
3.41333e-06
3.11106e-06
2.52022e-06
2.74009e-06
3.48008e-06
3.45786e-06
3.34428e-06
2.84119e-06
2.61721e-06
2.40685e-06
2.46233e-06
2.80702e-06
3.42078e-06
3.42467e-06
2.4626e-06
2.59261e-06
2.05696e-06
1.51782e-06
1.60701e-06
1.45964e-06
1.47707e-06
1.73553e-06
2.27853e-06
2.47391e-06
2.51186e-06
2.42116e-06
1.89843e-06
3.17295e-06
1.31739e-05
1.94075e-05
3.03892e-06
2.25403e-06
1.85911e-06
1.54834e-06
1.79441e-06
2.46755e-06
3.09803e-06
2.96675e-06
2.755e-06
3.18849e-06
4.15082e-06
4.75749e-06
5.58448e-06
6.00002e-06
5.38526e-06
5.02805e-06
3.93566e-06
3.11505e-06
2.39312e-06
2.07338e-06
2.07e-06
2.28792e-06
2.41775e-06
2.14102e-06
2.04006e-06
1.90378e-06
1.51356e-06
2.68328e-06
1.39757e-05
2.05351e-05
2.78052e-06
1.73541e-06
1.6062e-06
1.22927e-06
1.23751e-06
2.15901e-06
3.03733e-06
2.99185e-06
3.46764e-06
4.59534e-06
4.78062e-06
5.70347e-06
6.50697e-06
6.96253e-06
6.94195e-06
6.00877e-06
4.54624e-06
3.78111e-06
3.36286e-06
2.67571e-06
2.20982e-06
2.09852e-06
2.01933e-06
1.80842e-06
1.82427e-06
1.76147e-06
1.44102e-06
2.11965e-06
1.4388e-05
1.94161e-05
2.25865e-06
1.20015e-06
1.19345e-06
9.40648e-07
6.98085e-07
1.50924e-06
2.74734e-06
2.42554e-06
3.6856e-06
5.09214e-06
5.67086e-06
7.11225e-06
7.79392e-06
7.9293e-06
7.68161e-06
7.09769e-06
5.75938e-06
4.68187e-06
3.88732e-06
3.16333e-06
1.89108e-06
1.70862e-06
1.59641e-06
1.38473e-06
1.39984e-06
1.42489e-06
1.14586e-06
2.09252e-06
1.52876e-05
1.95539e-05
2.1401e-06
1.08583e-06
1.064e-06
1.13306e-06
1.10306e-06
1.67092e-06
2.80762e-06
2.73488e-06
3.39268e-06
4.41344e-06
5.97942e-06
6.80203e-06
7.63852e-06
7.6303e-06
7.39268e-06
6.72669e-06
5.7234e-06
5.23086e-06
3.36086e-06
2.92254e-06
2.00977e-06
1.32953e-06
1.09659e-06
1.13832e-06
1.08565e-06
9.31825e-07
5.81358e-07
2.09915e-06
1.59298e-05
1.84628e-05
2.51335e-06
1.23849e-06
1.15126e-06
1.17438e-06
1.33497e-06
1.59493e-06
1.99162e-06
2.70616e-06
3.97813e-06
4.78734e-06
5.57938e-06
5.17519e-06
6.01138e-06
6.83317e-06
6.92986e-06
6.01869e-06
5.29704e-06
5.42382e-06
4.56018e-06
4.01673e-06
2.76419e-06
1.7341e-06
1.13958e-06
1.17421e-06
9.94628e-07
7.56398e-07
5.83403e-07
2.14132e-06
1.65323e-05
1.83364e-05
2.78384e-06
1.13612e-06
1.10303e-06
1.27156e-06
1.62e-06
1.7291e-06
2.08348e-06
3.06734e-06
4.31659e-06
4.67142e-06
5.07932e-06
4.49251e-06
5.47506e-06
6.60882e-06
6.79e-06
5.95786e-06
5.27589e-06
5.74011e-06
4.94332e-06
4.13721e-06
2.9656e-06
1.6743e-06
1.07036e-06
1.11436e-06
9.29752e-07
8.55631e-07
6.08299e-07
1.87937e-06
1.64102e-05
1.74267e-05
2.93028e-06
1.24156e-06
1.44828e-06
1.45071e-06
1.83246e-06
1.77383e-06
2.03212e-06
2.62859e-06
3.5564e-06
3.93583e-06
5.35589e-06
5.41745e-06
6.3714e-06
7.07995e-06
7.25608e-06
6.93913e-06
5.83723e-06
5.60833e-06
3.7068e-06
3.70833e-06
2.77442e-06
1.65888e-06
1.20563e-06
1.09236e-06
8.90875e-07
1.36682e-06
1.21866e-06
1.88909e-06
1.64465e-05
1.69665e-05
2.93388e-06
1.71156e-06
1.87425e-06
1.57666e-06
1.80741e-06
2.00328e-06
2.2038e-06
2.34852e-06
3.62767e-06
4.37714e-06
4.84823e-06
5.53289e-06
6.56546e-06
7.37302e-06
7.62189e-06
7.05874e-06
5.73473e-06
4.76632e-06
3.57206e-06
3.79238e-06
2.45034e-06
2.18394e-06
1.79097e-06
1.24721e-06
1.21097e-06
2.14842e-06
2.08522e-06
2.51631e-06
1.62886e-05
1.57598e-05
3.13508e-06
2.08111e-06
2.15805e-06
2.22329e-06
2.63532e-06
2.75961e-06
2.80435e-06
2.7184e-06
3.29792e-06
3.86229e-06
4.05368e-06
4.26113e-06
5.49687e-06
6.80698e-06
7.28368e-06
6.16899e-06
4.87457e-06
4.02925e-06
3.63339e-06
3.47266e-06
3.02921e-06
2.61503e-06
2.16814e-06
1.78301e-06
1.69292e-06
2.37832e-06
2.25506e-06
3.18116e-06
1.56656e-05
1.4825e-05
3.30527e-06
2.08136e-06
2.01301e-06
2.70077e-06
3.1552e-06
2.73709e-06
2.48148e-06
2.22364e-06
2.36411e-06
2.45875e-06
3.10194e-06
3.13482e-06
4.16628e-06
5.45998e-06
6.52257e-06
5.7413e-06
4.47527e-06
3.49184e-06
2.82661e-06
2.81411e-06
2.74489e-06
2.64221e-06
2.50283e-06
2.62845e-06
2.29483e-06
2.13168e-06
1.85202e-06
3.40758e-06
1.45718e-05
1.38344e-05
3.77667e-06
2.47174e-06
2.28443e-06
3.48073e-06
3.83955e-06
2.75188e-06
2.06839e-06
1.75354e-06
1.79512e-06
1.70297e-06
1.98319e-06
2.00622e-06
2.94004e-06
2.93002e-06
3.93354e-06
3.67839e-06
3.34583e-06
2.4921e-06
2.1531e-06
2.46934e-06
2.2987e-06
2.36606e-06
2.82192e-06
3.6587e-06
3.34925e-06
2.35534e-06
1.72993e-06
3.37842e-06
1.30594e-05
1.28503e-05
3.81065e-06
2.45237e-06
3.20856e-06
4.24618e-06
3.79748e-06
2.50947e-06
1.85149e-06
1.55445e-06
1.55186e-06
2.00928e-06
2.62114e-06
1.71536e-06
2.0992e-06
2.85171e-06
2.96054e-06
2.82333e-06
2.91933e-06
2.56173e-06