/*--------------------------------*- C++ -*----------------------------------*\
| =========                 |                                                 |
| \\      /  F ield         | OpenFOAM: The Open Source CFD Toolbox           |
|  \\    /   O peration     | Version:  v1912                                 |
|   \\  /    A nd           | Website:  www.openfoam.com                      |
|    \\/     M anipulation  |                                                 |
\*---------------------------------------------------------------------------*/
FoamFile
{
    version     2.0;
    format      ascii;
    class       volScalarField;
    location    "508/oil";
    object      heatTransferCoeff(T);
}
// * * * * * * * * * * * * * * * * * * * * * * * * * * * * * * * * * * * * * //

dimensions      [1 0 -3 -1 0 0 0];


internalField   uniform 0;

boundaryField
{
    maxY
    {
        type            calculated;
        value           uniform 0;
    }
    minX
    {
        type            calculated;
        value           uniform 0;
    }
    maxX
    {
        type            calculated;
        value           uniform 0;
    }
    minY
    {
        type            calculated;
        value           uniform 0;
    }
    minZ
    {
        type            calculated;
        value           uniform 0;
    }
    maxZ
    {
        type            calculated;
        value           uniform 0;
    }
    oil_to_sphere
    {
        type            calculated;
        value           nonuniform List<scalar> 
1536
(
-11.0243
-5.77211
-5.63709
3.89718
4.11068
-5.53263
-1.28208
-3.05389
-2.42477
3.05283
6.91845
2.32713
-2.33385
2.13941
8.13
-0.719708
-5.54081
-5.89044
-0.442094
-2.05677
-4.27295
-2.5134
-2.87607
-0.662995
-1.17208
-0.916675
-1.16101
-0.0221114
-5.21279
-2.67342
-6.78665
-5.81246
-5.98913
-0.782958
-1.08871
-0.0732173
-0.5638
0.978093
0.0155862
-1.13701
0.226127
-0.533498
-2.24446
-3.31111
-4.59784
-1.07141
-4.13426
-2.77078
7.71338
-0.882745
-3.78141
-2.49552
-2.67101
-0.664329
-5.04332
-8.63026
-2.82154
-2.06745
-4.18366
-3.706
-2.10868
-2.2796
-2.00179
-0.52336
-1.03083
-1.87968
-2.04434
-3.89748
-3.8623
-5.02644
-0.497677
4.15063
2.44452
-0.929154
-0.909293
-8.97924
-6.05877
0.950724
-0.731249
-5.70322
-4.34354
-3.56005
3.84227
3.97656
-5.18703
-10.0013
5.21369
-1.60014
-3.70834
-3.68503
-2.40591
-0.249347
-0.158825
-0.398355
-0.898612
-3.26866
-4.2136
-4.57784
-6.44384
-3.56431
-4.37734
-0.423844
-11.1002
-3.82156
2.67443
-0.805329
-1.24083
3.53004
3.58596
-11.2264
-6.00701
-3.01977
-2.24062
-2.8822
4.59527
4.10099
5.63441
-7.66549
-10.5295
-6.29237
-2.65106
-2.88276
0.075402
-4.15319
-6.73226
-3.28104
-2.62241
0.42062
-4.47647
-4.175
-1.89964
-3.962
-4.97676
-1.3013
-1.62238
-5.29608
-2.91294
-5.74232
0.324446
-5.59435
-2.47672
-4.11246
-4.16706
-2.31761
-1.71559
-2.20024
-3.37813
-7.38759
-1.58788
-11.3218
-4.8208
-5.52034
-2.82181
-3.10848
-0.944707
-3.2603
-5.27174
-4.00304
-12.1669
-6.36036
-5.99407
-7.62554
1.72034
0.889595
-0.319478
-0.237137
-4.98815
-7.18279
-6.45638
-8.61761
0.00861117
-0.316313
0.906773
-4.2196
-2.58925
-3.08679
-9.54864
1.53299
2.7989
-10.0084
-0.137818
0.806786
1.01413
0.517262
-3.62383
-10.0088
-6.39544
0.252997
1.93026
-5.80242
1.59534
-4.8983
-4.91628
-7.24918
2.38802
9.28244
-7.04575
-7.77439
-1.12642
-0.880775
-2.51325
-1.3492
-5.87786
-6.98208
-4.68312
-3.57229
-0.33636
-7.38979
-6.47608
-2.97286
0.421396
-1.02929
-0.816425
-1.38976
-4.30712
-8.78817
2.01332
2.22573
2.0617
10.005
-5.50732
-4.25365
-3.52176
-2.46057
-2.6815
-7.38998
-4.85791
-0.906744
-5.53319
3.01971
-0.0879373
9.05519
-2.30552
-5.14915
-7.07171
-6.51986
-5.54305
-4.44551
-6.28074
2.43878
1.68178
1.11659
-7.90154
0.698457
9.17323
5.43468
-4.30231
-2.02201
-9.61254
-11.9369
-2.96906
3.99841
9.85479
-3.68809
-6.27824
-0.412601
-0.572957
4.82064
-0.219025
-7.37845
-10.1988
-1.98056
-0.554365
-8.37588
-6.41227
-0.987092
2.59193
-1.59028
-8.95723
-7.71033
-4.45735
-4.93085
-6.85311
1.02487
-0.783735
-7.12553
-4.92192
-5.61387
-2.2385
-5.53711
-8.64189
-4.62091
-4.19315
-8.08563
-0.438111
-0.379093
-0.821776
0.00685871
-0.292202
-7.3201
-9.12986
2.4939
-1.47047
-1.18975
-1.38186
0.266025
-2.67889
-2.17711
0.813932
4.75828
-0.159199
2.26904
0.288097
-10.0183
-8.20959
-8.10632
-11.4125
1.3466
0.966817
-2.43488
-11.3479
-10.101
-0.0842687
-2.27171
0.187003
-4.82191
-0.654125
-4.16128
-4.59715
-6.0628
-5.08118
-1.07374
-5.25676
-0.106846
-6.88062
-7.55622
-5.7222
-5.2898
0.655185
-9.26254
-9.00165
-4.65817
2.5053
-0.380299
-1.29686
-4.61644
-4.10125
-4.8909
0.826112
-6.79418
-6.83381
-6.12504
-8.07516
-3.94264
-3.27887
-2.05095
1.69807
-3.2944
-4.71057
1.73957
2.11115
1.18239
-10.7591
-6.67225
-8.0702
-4.06245
-3.18263
-7.17415
1.98398
-9.62401
-6.06693
-3.30191
-3.18457
2.32838
-5.98447
-6.55549
0.467034
-3.31685
-1.93863
-0.566874
-4.83056
-6.70692
-2.23915
-0.943059
1.31931
-8.80137
-6.92025
2.16292
-7.22081
-6.47415
-5.50641
-8.79108
-3.23576
-5.10533
3.19561
2.33456
-4.57141
-11.2227
-5.73566
-9.54921
-3.97587
-1.2552
-6.41419
1.22862
0.228161
-4.09786
-6.61147
-4.90797
-4.1229
1.01572
0.958869
-7.14466
-6.75432
-6.93343
-3.10154
-0.226508
-4.25933
-5.30222
-6.55831
-3.40819
-1.59614
0.664428
-2.95274
1.48625
3.51631
-0.36844
0.60542
-3.04125
3.00335
-1.32239
-9.23484
-1.20218
-1.1379
-6.54642
-6.49132
-4.73866
-1.95733
1.78844
-5.684
-8.14422
-4.47244
-3.45891
-5.89981
-2.28378
-2.84629
-3.968
3.89892
-4.34903
-6.84897
-8.01408
-6.35015
-5.16445
-4.95946
-3.46178
-1.71342
1.21978
-2.61088
0.643456
2.3119
0.164534
3.5354
-10.1777
-9.45723
-7.59662
-10.8772
1.46429
-10.2535
0.862826
-0.167915
-5.51217
1.86088
1.02771
-1.38587
-1.22724
-9.6366
-8.15885
-3.98712
-4.3511
-8.70711
-7.17531
-3.40859
-5.25849
0.334964
-6.6267
2.50372
-7.9527
3.94491
-4.99472
-5.64851
-6.34124
-1.04306
1.25226
-1.86007
-6.50802
-2.10604
2.88373
-6.56829
-6.99577
-7.55245
-11.6764
-3.29206
-8.55913
1.39302
0.734533
7.49249
5.4087
-3.39762
-1.37855
-0.693251
0.161683
-10.6272
1.08919
1.9545
2.68059
-1.3303
3.13294
-12.0919
0.406301
0.0152271
-2.63505
6.78887
4.9111
-0.407854
-0.269763
-2.25449
-0.928429
-6.96137
-6.32368
-4.98485
-3.35463
3.37963
-0.664679
-6.11393
1.22979
0.443872
-5.69929
-8.86883
0.371037
7.56998
1.69017
6.9427
-2.53439
-1.06063
-0.0022611
2.55511
6.78995
-4.82979
-5.57509
-4.14105
-2.42627
-8.99448
-5.00179
-4.64418
-3.18896
0.693325
-0.856368
-6.93604
-4.98834
-1.5313
5.60571
-3.55181
-5.84746
-9.29652
-3.72819
-0.298426
-9.35836
-2.59038
-8.63175
0.382177
-1.09123
1.06452
-1.2017
-3.6522
-8.89231
1.57908
0.0233294
0.719805
-1.31165
-12.2692
2.59802
-0.78089
2.02853
-2.6238
-3.62571
-6.97672
-9.01848
3.48257
2.47164
-8.92819
-9.53783
4.397
-8.56106
-7.24447
-5.71789
-7.04586
-4.62842
-2.94438
-3.244
-8.74817
-3.37501
-4.73758
-2.93424
-6.58049
-3.74437
-2.54146
-2.1784
1.68767
-5.71047
-2.35936
-6.48705
-5.13058
-5.23609
-4.96633
-3.41224
2.34419
-7.08561
-7.03883
-4.79779
-2.48455
-3.85789
-11.0569
3.25787
0.47168
1.48296
-3.46906
0.375577
-11.1179
-1.20903
-1.74193
-2.73911
7.39287
6.50645
-0.568975
-0.46483
-3.24194
1.06109
0.111369
-3.60453
0.0408475
-9.06728
1.81968
-10.8013
-1.02923
-3.33073
9.23887
6.71107
7.56272
-0.00331845
-5.7306
-0.747832
-0.0196151
6.86685
-3.04148
-5.96311
-3.14378
-13.4831
0.379328
-6.9483
-4.59858
-5.93048
-7.38922
-7.15647
-5.85662
-2.64056
-1.58622
-2.59087
-5.92503
-1.95806
-4.21135
-3.6461
-4.10201
-6.37205
-4.99328
-5.67989
1.81497
0.615917
9.42794
4.74973
3.64806
12.4915
-0.382041
-0.940408
-1.97229
-2.52093
3.52353
1.59279
-1.515
-7.73881
-7.11838
-1.415
2.75344
-2.31129
-6.20635
-4.6884
-2.80178
3.13738
0.381843
-4.87455
-3.83927
-2.70536
-0.549783
-5.36265
-5.43537
-8.7896
-5.52012
-3.49741
-0.935991
0.192625
1.76945
-0.187177
-2.00025
-11.4043
-3.40498
-9.98465
0.470203
-11.8118
-0.40099
-2.15594
1.41615
0.910497
-0.987385
1.92344
-1.86242
3.04216
-0.636874
-6.83528
-1.31013
2.22331
-9.13126
-5.19729
-4.30848
-2.34772
-8.52322
-14.2428
4.66473
-5.05895
-3.94703
-4.7194
1.95667
-2.44182
0.218462
-4.03376
-5.49919
-7.21877
0.7512
-4.83848
-3.14167
-5.43804
-5.11044
-4.61167
-1.42088
-2.04029
-0.690007
2.83286
3.40008
1.13669
-8.35607
-0.655442
1.99403
-0.804412
-6.98368
-1.80664
-8.29843
-6.28537
-4.44411
-3.48402
-4.33145
-9.42242
1.12457
-4.97875
-7.24451
-7.8185
-3.37679
0.255323
-1.66368
-4.34372
-7.96807
1.49825
-2.10136
-3.21019
-6.85635
-4.38648
-4.24671
-8.49146
1.39736
0.0376687
0.706331
-9.44228
-7.15062
-3.28535
-6.80782
-0.0258975
-0.621403
-6.78929
-4.19287
-8.8351
0.882046
-5.98268
-6.60367
-3.64524
-4.07407
-5.6793
0.809161
3.68769
-2.89243
-4.23039
-9.56887
-2.23497
-0.283359
-2.58995
-4.40557
-5.89415
-3.49818
0.146881
-2.28014
-6.57237
1.46877
0.10889
-2.29447
-0.564008
-3.92791
-3.46169
-7.70646
-4.68002
-6.33104
-0.77127
-2.62426
-3.91895
-2.46067
-1.66327
-0.922387
-0.860923
1.28874
-5.29382
-3.78502
-3.80036
-4.46481
2.47246
-1.22415
-9.24009
-9.37364
0.131693
-6.92065
-4.38125
-5.26979
-0.771349
-7.876
-7.53152
0.985611
-1.80302
-1.14194
-0.919531
2.6795
1.56715
-1.14421
-7.39386
-11.0219
-0.305353
-5.63117
-5.27238
-4.28047
-1.96674
-3.95673
-7.6638
-3.71593
0.829144
-1.26213
-0.802026
-1.00317
-4.72116
-5.20226
-5.31787
-5.58326
-5.52848
0.114008
-5.85781
-1.3861
-4.99585
6.79573
-4.4825
-8.21567
-1.64242
4.67229
-2.75124
-2.02628
-9.99607
0.620248
-5.86445
-2.53979
3.77039
-9.03123
2.24338
-2.11198
-2.97181
2.5377
-6.92239
-4.02115
-1.95617
-3.22248
-3.98349
-2.11432
-10.3003
2.12296
-1.0427
8.18437
-1.34061
-1.68345
-3.14441
-6.87646
-14.5673
3.00677
-1.08667
-12.8617
2.20911
-5.46363
0.257608
-5.2571
5.12929
0.609596
-12.6853
4.11057
-11.4654
3.2533
-9.71524
3.72493
0.684028
7.65502
2.13368
-11.95
6.2372
-2.42473
4.14084
-8.46691
-12.0214
5.96044
-1.63692
-0.433371
0.811769
0.975452
-1.18609
-3.02871
-3.00176
-5.1254
-2.60101
-8.64881
-13.2928
6.08049
-2.92157
-4.49387
-3.02567
-3.63908
-2.33017
-1.63864
-2.31156
-6.16787
-2.42984
-6.27823
-0.967565
-3.76534
-8.21306
-1.60899
-4.93079
-7.01923
-0.950249
-3.76502
-2.55471
-5.05818
-2.13686
-3.3363
-1.7412
-6.75997
-1.29427
-4.26023
3.32226
-8.86194
5.7083
-4.16526
-6.52524
-9.12642
0.49627
-3.54194
-2.62072
-3.5483
-3.11637
-2.41573
-6.08295
1.10412
9.44591
-1.56485
4.6107
-7.16899
0.403784
-2.88173
-5.29695
8.77855
-7.82896
1.34824
7.10397
0.799727
-5.50548
-5.17953
-3.08574
6.13233
-2.98675
-3.7445
-0.255096
0.364602
-7.3311
-6.61167
-0.669356
-3.23034
-7.36199
6.01416
-6.03565
0.477691
-4.93835
5.52626
-10.9533
-10.6019
-6.61345
-2.97819
-1.63118
-5.31053
-1.42342
6.2082
1.48377
-5.6703
0.241374
-4.53215
4.70732
-7.03341
-4.89391
11.3053
-3.01584
-4.02695
8.43277
-7.99419
3.44937
-7.25603
-8.93581
-5.9683
6.9105
-3.30132
-1.84945
-3.07827
-3.40903
-4.59061
5.92597
-0.851121
0.106339
0.0835208
-6.88104
-2.79729
-4.05798
-5.19443
-4.92748
-1.77703
-3.48018
-2.02765
-4.2202
-7.48022
-0.66392
-1.55514
-0.395226
-3.33712
-6.471
-0.597651
-1.4302
-1.02175
-2.86994
0.141717
-0.232844
-1.38532
-1.74034
-3.39134
-1.21397
-8.83609
-6.07591
4.28349
4.17941
-8.02362
12.4563
-5.79311
-3.70752
0.168309
-1.74911
-8.204
8.80142
-7.17775
-4.07061
6.52402
-1.07802
-0.223652
-2.81099
9.29071
-8.03459
-4.19462
8.62041
-7.65147
-7.70566
5.27878
-9.17677
-6.58854
5.15127
-0.353844
0.127043
8.69114
-2.99621
-3.52904
1.44737
0.473753
0.936909
10.996
0.57896
9.20158
11.6247
-6.80495
-0.396902
-11.9696
-0.628405
5.98423
-8.13215
-1.99829
7.70286
-0.645383
-0.405298
7.81612
4.16206
-7.69131
13.987
1.44626
2.40319
12.5124
-7.1538
-6.25528
-2.95937
-1.33128
-0.310958
1.40086
10.0217
-3.11294
-1.4205
-1.6289
-2.9746
7.08049
-5.51935
-0.683187
-2.41428
-0.251319
-2.25252
-3.36224
1.70873
6.65616
-1.16295
-3.49942
-0.586561
-1.31122
-2.55487
0.49342
-1.52342
7.3181
-0.65997
-4.00252
-0.324853
-1.78704
0.353228
6.50431
-8.16689
-7.97314
-7.60825
-9.14747
5.33025
8.35955
-0.740039
-5.74181
-3.50775
-5.412
-6.15349
1.42947
2.4364
8.23908
5.99581
0.513082
-2.48114
-2.18126
-1.96741
2.42755
-6.88247
-4.1226
5.05064
0.694103
1.63263
-6.05504
0.392309
10.0791
-2.38434
-2.75569
-7.12943
7.48579
-0.288945
-3.36678
-0.957224
-1.77005
-5.23249
-2.36096
1.2948
-9.67419
11.7142
3.27943
-1.83962
0.450585
-1.20109
-9.09289
-4.28408
-2.78084
3.03028
-8.26303
-0.844672
-3.34681
-6.14326
-7.12713
-6.74573
-7.09428
-8.73044
-9.80861
-8.5485
-8.56568
-2.80024
-6.36875
-0.650694
-1.74651
2.5876
3.80709
10.8477
-9.29442
-8.98409
-7.5859
-1.53678
-3.39032
-3.07132
0.293384
-3.6451
-6.2992
1.14177
-2.01767
-5.00528
-0.3211
-0.758262
-0.521526
-1.47045
0.52116
-1.32104
-0.918038
5.49677
-3.32342
1.0701
-1.98229
7.80719
-9.23337
-2.19421
-0.0318389
0.703358
4.95041
-2.71733
-0.162607
8.61517
3.2046
-2.08268
3.99825
2.78065
-10.0339
-10.5576
-0.959273
-1.00614
-5.6297
-9.02373
8.73498
0.407671
0.530434
-1.23165
-1.19401
-1.59769
-2.31124
2.53791
6.33674
-7.97874
-1.07901
3.49895
2.62917
-0.964323
-2.86888
4.86647
-1.64731
0.332904
-0.649283
-9.11096
3.35718
6.17367
-1.17677
-0.290217
0.546486
6.214
-7.15115
-0.879668
-0.689142
-0.922519
8.54819
-0.935577
-1.18194
5.98697
-0.812701
3.22917
-4.15356
-7.87038
0.321562
-6.37446
-3.94969
0.135021
-0.0433351
-1.33979
6.20592
-3.81881
-4.48232
-0.463703
7.5022
1.75243
-1.84839
-2.19132
0.234997
6.71745
0.0437359
-7.14653
-3.94124
-0.05117
-9.88827
3.31541
-6.05113
8.35362
3.58645
-6.44973
8.55285
-6.8114
0.0477672
-2.84675
-0.66441
-10.3897
2.21244
-2.96827
-9.13905
-8.21012
4.37684
-7.88911
-9.11966
12.1958
-1.61402
-0.254871
8.06544
-4.40044
-0.14851
-0.703129
-0.719989
-2.38545
-1.64196
-0.473739
-0.0529605
8.3683
-4.40589
-2.82312
-2.56249
-3.32695
-1.53698
0.1545
1.68577
-5.47113
9.80825
0.654924
0.971043
9.39179
-6.56591
-9.59603
-2.02853
-7.57002
-8.22101
0.341588
0.293493
-4.36356
-7.51803
0.530519
-4.95592
2.65756
8.06238
-5.62506
1.07793
-7.13303
-9.83787
-8.96541
7.48874
-6.17298
-2.95076
1.33415
-0.422268
-1.21039
-0.19374
7.29359
-7.41272
6.96049
-7.23578
-1.46402
2.65752
3.61374
-1.49807
-5.1609
-8.57062
-2.66711
-11.3928
-5.75504
-6.86895
8.80395
-6.31846
-5.38329
-7.14819
0.38055
1.20807
9.88626
-2.12214
-10.9931
-7.59981
6.44642
2.31272
7.09969
0.385806
-2.32936
2.77694
-13.7271
-0.722038
2.27671
6.19987
-3.87269
1.10658
9.14367
-1.72966
-0.0846599
-0.254646
-0.417471
-0.491274
6.10601
2.66366
7.99959
-0.121738
-5.68864
-4.19211
-7.87613
-7.12671
0.644335
1.65968
8.4326
0.0722833
-5.14931
-8.39782
-5.73428
-6.07805
3.46132
9.50721
2.12515
10.2348
-5.58886
-5.97014
1.6539
-6.7401
-5.46043
-7.91982
-3.56466
-2.8607
-2.71718
0.644607
8.60307
1.93027
7.55487
3.00417
-0.423994
0.240122
5.46528
7.55934
-4.8843
-11.0492
-9.88003
-8.96725
-2.58907
-4.7262
-4.52991
-2.09846
-0.391151
-2.11239
1.34771
-1.43585
-1.48187
7.49969
-5.41787
-1.05691
2.28585
5.64916
0.0103999
-2.47593
-2.42005
0.222155
5.60008
-8.64159
-3.8189
-0.207294
-9.77151
1.15988
7.92698
-4.16029
-1.45138
-1.51531
-1.52013
0.0819873
9.85936
-1.42921
-1.37661
6.88218
-8.27204
-0.874947
13.9655
-0.402506
-2.26136
-2.60332
0.110917
7.31872
0.844286
0.582352
3.80342
-1.75382
8.37196
-1.98371
-1.68528
4.23579
-9.59955
-1.34825
5.99594
-10.6507
-2.14818
-2.14204
5.73227
-1.68781
7.00196
)
;
    }
}


// ************************************************************************* //
