/*--------------------------------*- C++ -*----------------------------------*\
| =========                 |                                                 |
| \\      /  F ield         | OpenFOAM: The Open Source CFD Toolbox           |
|  \\    /   O peration     | Version:  v1906                                 |
|   \\  /    A nd           | Web:      www.OpenFOAM.com                      |
|    \\/     M anipulation  |                                                 |
\*---------------------------------------------------------------------------*/
FoamFile
{
    version     2.0;
    format      ascii;
    class       surfaceScalarField;
    location    "71/oil";
    object      phi;
}
// * * * * * * * * * * * * * * * * * * * * * * * * * * * * * * * * * * * * * //

dimensions      [1 0 -1 0 0 0 0];
oriented        oriented;


internalField   nonuniform List<scalar> 
80688
(
-2.15094e-06
-2.18745e-06
-2.15094e-06
-9.70367e-07
-6.10681e-07
-5.69894e-07
-2.60702e-07
-3.5758e-07
-3.52085e-07
-1.23024e-07
-6.95783e-08
-6.80996e-08
-4.13767e-08
-4.1375e-08
-4.02722e-08
-6.66121e-10
-2.07021e-08
-2.00084e-08
2.19306e-08
-1.14192e-08
-1.11775e-08
3.45392e-08
-6.26799e-09
-6.34055e-09
4.06787e-08
-2.97374e-09
-3.16567e-09
4.18641e-08
-5.48121e-10
-6.37176e-10
3.89019e-08
1.44028e-09
1.52197e-09
3.2423e-08
3.0701e-09
3.40882e-09
2.31164e-08
4.34891e-09
4.95772e-09
1.17989e-08
5.24572e-09
6.07179e-09
-5.88935e-10
5.72063e-09
6.66724e-09
-1.30431e-08
5.75321e-09
6.70102e-09
-2.45746e-08
5.35096e-09
6.18053e-09
-3.4294e-08
4.55249e-09
5.16691e-09
-4.14934e-08
3.42682e-09
3.77259e-09
-4.57007e-08
2.06076e-09
2.14655e-09
-4.67211e-08
5.46371e-10
4.74088e-10
-4.4639e-08
-9.70641e-10
-1.11148e-09
-3.98171e-08
-2.41257e-09
-2.40928e-09
-3.28707e-08
-3.67867e-09
-3.2677e-09
-2.46311e-08
-4.6528e-09
-3.58677e-09
-1.61073e-08
-5.20039e-09
-3.3234e-09
-8.42697e-09
-5.14349e-09
-2.53681e-09
-2.72492e-09
-4.25855e-09
-1.44347e-09
1.03929e-10
-2.32577e-09
-5.03049e-10
2.02452e-10
-9.85039e-11
-5.78048e-07
-1.03136e-06
-5.78041e-07
-3.42315e-07
-3.83914e-07
-4.625e-07
-2.37537e-07
-2.65735e-07
-1.96624e-07
-1.03593e-07
-1.25932e-07
-7.759e-08
-2.36047e-08
-8.35079e-08
-3.78557e-08
2.6089e-08
-5.69298e-08
-1.3466e-08
5.80969e-08
-4.31389e-08
-2.88179e-10
7.76583e-08
-3.40173e-08
8.18798e-09
8.72807e-08
-2.71786e-08
1.45825e-08
8.8175e-08
-2.1439e-08
1.99966e-08
8.12219e-08
-1.64188e-08
2.48122e-08
6.7374e-08
-1.21027e-08
2.90208e-08
4.78872e-08
-8.61722e-09
3.24529e-08
2.43629e-08
-6.1416e-09
3.49116e-08
-1.32015e-09
-4.82027e-09
3.6224e-08
-2.71352e-08
-4.7307e-09
3.6299e-08
-5.10795e-08
-5.85546e-09
3.51508e-08
-7.13545e-08
-8.07654e-09
3.29041e-08
-8.65247e-08
-1.11865e-08
2.97835e-08
-9.56366e-08
-1.49055e-08
2.60782e-08
-9.83026e-08
-1.89142e-08
2.21266e-08
-9.46889e-08
-2.28583e-08
1.8274e-08
-8.55294e-08
-2.63909e-08
1.48188e-08
-7.20485e-08
-2.91553e-08
1.19958e-08
-5.5875e-08
-3.07732e-08
9.94692e-09
-3.89238e-08
-3.08163e-08
8.66474e-09
-2.32303e-08
-2.87769e-08
7.93996e-09
-1.07052e-08
-2.40726e-08
7.28899e-09
-2.7704e-09
-1.61306e-08
5.87008e-09
-5.3463e-09
2.77837e-09
-3.5795e-07
-3.15466e-07
-3.57942e-07
-2.32442e-07
-3.10991e-07
-1.98432e-07
-1.43604e-07
-2.36194e-07
-1.18379e-07
-5.42342e-08
-1.62168e-07
-5.31334e-08
9.72327e-09
-1.28978e-07
-1.84868e-08
5.64859e-08
-1.06907e-07
3.21493e-09
8.93685e-08
-9.28465e-08
1.68251e-08
1.10394e-07
-8.1778e-08
2.67349e-08
1.20459e-07
-7.21082e-08
3.48653e-08
1.20061e-07
-6.31254e-08
4.20846e-08
1.09818e-07
-5.47902e-08
4.86142e-08
9.07301e-08
-4.73715e-08
5.43566e-08
6.43371e-08
-4.12688e-08
5.90446e-08
3.26787e-08
-3.68852e-08
6.2402e-08
-1.79565e-09
-3.45364e-08
6.41905e-08
-3.64312e-08
-3.43846e-08
6.42895e-08
-6.85982e-08
-3.64037e-08
6.27152e-08
-9.59287e-08
-4.03733e-08
5.96273e-08
-1.16541e-07
-4.58932e-08
5.53189e-08
-1.29181e-07
-5.2429e-08
5.01641e-08
-1.33341e-07
-5.93537e-08
4.4599e-08
-1.29245e-07
-6.59895e-08
3.90357e-08
-1.17843e-07
-7.16465e-08
3.38531e-08
-1.00689e-07
-7.56207e-08
2.93118e-08
-7.98261e-08
-7.718e-08
2.55435e-08
-5.76029e-08
-7.55258e-08
2.24863e-08
-3.64426e-08
-6.97604e-08
1.98232e-08
-1.85778e-08
-5.88486e-08
1.69113e-08
-5.81649e-09
-4.15924e-08
1.27005e-08
-1.69881e-08
5.82531e-09
-6.50392e-08
-1.85395e-07
-6.50308e-08
-7.92528e-08
-2.25003e-07
-7.17742e-08
-4.80077e-08
-2.18267e-07
-4.91712e-08
2.14127e-09
-1.95252e-07
-1.70651e-08
4.88546e-08
-1.80755e-07
5.0629e-09
8.84743e-08
-1.679e-07
2.13733e-08
1.18772e-07
-1.56737e-07
3.35926e-08
1.38796e-07
-1.45525e-07
4.37233e-08
1.47846e-07
-1.33948e-07
5.27899e-08
1.45608e-07
-1.22113e-07
6.12257e-08
1.3233e-07
-1.10533e-07
6.90211e-08
1.08938e-07
-9.9919e-08
7.59395e-08
7.70997e-08
-9.10427e-08
8.16123e-08
3.91475e-08
-8.46137e-08
8.56807e-08
-2.07747e-09
-8.11576e-08
8.78463e-08
-4.34665e-08
-8.09512e-08
8.79556e-08
-8.19327e-08
-8.39628e-08
8.60254e-08
-1.147e-07
-8.98528e-08
8.22467e-08
-1.39554e-07
-9.80013e-08
7.69627e-08
-1.55041e-07
-1.07564e-07
7.06213e-08
-1.60557e-07
-1.17557e-07
6.37203e-08
-1.56376e-07
-1.26918e-07
5.67469e-08
-1.43572e-07
-1.34564e-07
5.01141e-08
-1.23912e-07
-1.39387e-07
4.41067e-08
-9.96728e-08
-1.40265e-07
3.88457e-08
-7.34376e-08
-1.35991e-07
3.42296e-08
-4.78612e-08
-1.25212e-07
2.98751e-08
-2.5426e-08
-1.06317e-07
2.50331e-08
-8.42742e-09
-7.70794e-08
1.84885e-08
-3.38525e-08
8.43698e-09
-2.95468e-08
-1.26311e-07
-2.95372e-08
-2.55217e-08
-2.03151e-07
-2.58763e-08
1.66607e-09
-2.349e-07
-1.05552e-08
4.08835e-08
-2.42857e-07
8.38748e-09
8.06955e-08
-2.44395e-07
2.38286e-08
1.16549e-07
-2.4052e-07
3.67661e-08
1.45041e-07
-2.33133e-07
4.79037e-08
1.63983e-07
-2.22619e-07
5.8151e-08
1.71833e-07
-2.09763e-07
6.79659e-08
1.67754e-07
-1.95483e-07
7.74495e-08
1.51707e-07
-1.8088e-07
8.63934e-08
1.24553e-07
-1.67171e-07
9.44053e-08
8.80433e-08
-1.55553e-07
1.0102e-07
4.47343e-08
-1.47074e-07
1.05769e-07
-2.20897e-09
-1.42511e-07
1.08297e-07
-4.93052e-08
-1.42264e-07
1.08409e-07
-9.30842e-08
-1.46302e-07
1.06118e-07
-1.30429e-07
-1.54158e-07
1.0165e-07
-1.58862e-07
-1.64972e-07
9.54034e-08
-1.76761e-07
-1.77568e-07
8.79026e-08
-1.83463e-07
-1.90581e-07
7.97252e-08
-1.79267e-07
-2.02535e-07
7.14212e-08
-1.65359e-07
-2.11914e-07
6.34413e-08
-1.4365e-07
-2.17203e-07
5.61076e-08
-1.16588e-07
-2.16865e-07
4.95372e-08
-8.69323e-08
-2.0925e-07
4.3604e-08
-5.75257e-08
-1.92494e-07
3.78752e-08
-3.11254e-08
-1.64224e-07
3.15069e-08
-1.05354e-08
-1.20798e-07
2.31282e-08
-5.49338e-08
1.05459e-08
-5.59966e-09
-1.15123e-07
-5.58877e-09
7.65664e-09
-2.18533e-07
2.12523e-09
3.44267e-08
-2.75244e-07
1.35743e-08
6.97891e-08
-3.04635e-07
2.64154e-08
1.06765e-07
-3.19567e-07
3.81961e-08
1.40893e-07
-3.2386e-07
4.92124e-08
1.68455e-07
-3.20505e-07
5.98099e-08
1.86671e-07
-3.11206e-07
7.03713e-08
1.9351e-07
-2.97621e-07
8.10177e-08
1.87782e-07
-2.81368e-07
9.16136e-08
1.6925e-07
-2.64126e-07
1.01778e-07
1.38714e-07
-2.47607e-07
1.10973e-07
9.79962e-08
-2.33443e-07
1.18608e-07
4.98646e-08
-2.23045e-07
1.24103e-07
-2.22547e-09
-2.17442e-07
1.27021e-07
-5.44467e-08
-2.17171e-07
1.27128e-07
-1.02981e-07
-2.22204e-07
1.24436e-07
-1.44395e-07
-2.31945e-07
1.19201e-07
-1.75974e-07
-2.45286e-07
1.11893e-07
-1.95959e-07
-2.60716e-07
1.03133e-07
-2.03641e-07
-2.76489e-07
9.35899e-08
-1.99357e-07
-2.90698e-07
8.38803e-08
-1.84397e-07
-3.0142e-07
7.45467e-08
-1.60804e-07
-3.0672e-07
6.59232e-08
-1.31179e-07
-3.0463e-07
5.81411e-08
-9.8445e-08
-2.93041e-07
5.1057e-08
-6.56446e-08
-2.69491e-07
4.4197e-08
-3.58078e-08
-2.3069e-07
3.66288e-08
-1.22166e-08
-1.71204e-07
2.68155e-08
-7.93786e-08
1.22282e-08
5.07081e-09
-1.25277e-07
5.08298e-09
2.46844e-08
-2.54962e-07
1.68155e-08
5.4293e-08
-3.3265e-07
2.7797e-08
9.00948e-08
-3.78943e-07
3.8506e-08
1.271e-07
-4.05347e-07
4.87747e-08
1.61246e-07
-4.17071e-07
5.90653e-08
1.88847e-07
-4.17815e-07
6.97099e-08
2.06891e-07
-4.10151e-07
8.09006e-08
2.13098e-07
-3.96409e-07
9.25816e-08
2.06042e-07
-3.78769e-07
1.04457e-07
1.85344e-07
-3.59432e-07
1.16004e-07
1.5177e-07
-3.40572e-07
1.26539e-07
1.07227e-07
-3.24225e-07
1.35325e-07
5.46674e-08
-3.12153e-07
1.41668e-07
-2.16091e-09
-3.05647e-07
1.45034e-07
-5.9096e-08
-3.05367e-07
1.45132e-07
-1.11981e-07
-3.11292e-07
1.41974e-07
-1.57082e-07
-3.22705e-07
1.35861e-07
-1.91464e-07
-3.38258e-07
1.27355e-07
-2.13239e-07
-3.56117e-07
1.17176e-07
-2.21678e-07
-3.74156e-07
1.06107e-07
-2.17174e-07
-3.90086e-07
9.48841e-08
-2.01129e-07
-4.01574e-07
8.41088e-08
-1.75725e-07
-4.06291e-07
7.41663e-08
-1.43719e-07
-4.01843e-07
6.52067e-08
-1.082e-07
-3.85629e-07
5.70696e-08
-7.24085e-08
-3.54521e-07
4.92376e-08
-3.96372e-08
-3.0416e-07
4.06988e-08
-1.35626e-08
-2.27036e-07
2.97572e-08
-1.06517e-07
1.35755e-08
1.04334e-08
-1.46157e-07
1.04466e-08
3.45748e-08
-3.04224e-07
2.51208e-08
6.72154e-08
-4.0184e-07
3.65501e-08
1.0471e-07
-4.63148e-07
4.67103e-08
1.42889e-07
-5.00089e-07
5.65636e-08
1.77908e-07
-5.18937e-07
6.68466e-08
2.06128e-07
-5.24004e-07
7.79689e-08
2.2444e-07
-5.18532e-07
9.00688e-08
2.30364e-07
-5.05327e-07
1.02993e-07
2.22332e-07
-4.8706e-07
1.16323e-07
1.99837e-07
-4.6635e-07
1.29414e-07
1.63615e-07
-4.45801e-07
1.41451e-07
1.15649e-07
-4.27803e-07
1.51543e-07
5.90894e-08
-4.14436e-07
1.58842e-07
-2.04468e-09
-4.07216e-07
1.62703e-07
-6.3263e-08
-4.06941e-07
1.62792e-07
-1.20078e-07
-4.13592e-07
1.59114e-07
-1.68464e-07
-4.26334e-07
1.52016e-07
-2.05281e-07
-4.43596e-07
1.42154e-07
-2.28535e-07
-4.63263e-07
1.30401e-07
-2.37499e-07
-4.82862e-07
1.17669e-07
-2.32648e-07
-4.99746e-07
1.04809e-07
-2.15494e-07
-5.11223e-07
9.24959e-08
-1.88377e-07
-5.14593e-07
8.11846e-08
-1.54213e-07
-5.07057e-07
7.10505e-08
-1.16254e-07
-4.85512e-07
6.19233e-08
-7.79116e-08
-4.461e-07
5.32379e-08
-4.27085e-08
-3.83263e-07
4.38997e-08
-1.46308e-08
-2.87184e-07
3.20702e-08
-1.35792e-07
1.46449e-08
1.32581e-08
-1.72687e-07
1.3272e-08
4.04116e-08
-3.61307e-07
2.99292e-08
7.55809e-08
-4.78998e-07
4.19887e-08
1.14929e-07
-5.54724e-07
5.22268e-08
1.54585e-07
-6.01942e-07
6.21981e-08
1.90776e-07
-6.28001e-07
7.28716e-08
2.1989e-07
-6.37851e-07
8.47347e-08
2.38724e-07
-6.35279e-07
9.79129e-08
2.4468e-07
-6.23507e-07
1.12224e-07
2.36022e-07
-6.05555e-07
1.27153e-07
2.12171e-07
-5.84424e-07
1.41926e-07
1.73793e-07
-5.63009e-07
1.55585e-07
1.22944e-07
-5.4402e-07
1.67067e-07
6.29495e-08
-5.29819e-07
1.75378e-07
-1.9023e-09
-5.22142e-07
1.79778e-07
-6.68166e-08
-5.21883e-07
1.79855e-07
-1.26993e-07
-5.29027e-07
1.75612e-07
-1.78147e-07
-5.4264e-07
1.67459e-07
-2.16944e-07
-5.6097e-07
1.56171e-07
-2.41317e-07
-5.81631e-07
1.42741e-07
-2.50558e-07
-6.01843e-07
1.28223e-07
-2.45241e-07
-6.18693e-07
1.13629e-07
-2.27011e-07
-6.29185e-07
9.97314e-08
-1.98375e-07
-6.30277e-07
8.70479e-08
-1.62389e-07
-6.188e-07
7.57571e-08
-1.22442e-07
-5.91146e-07
6.56874e-08
-8.20908e-08
-5.42714e-07
5.62624e-08
-4.50199e-08
-4.66621e-07
4.62881e-08
-1.54305e-08
-3.5056e-07
3.37866e-08
-1.66668e-07
1.54455e-08
1.47605e-08
-2.02222e-07
1.47748e-08
4.37603e-08
-4.22932e-07
3.26253e-08
8.06579e-08
-5.61057e-07
4.5161e-08
1.21431e-07
-6.51136e-07
5.56398e-08
1.62276e-07
-7.08725e-07
6.59381e-08
1.9948e-07
-7.42366e-07
7.71613e-08
2.29453e-07
-7.57702e-07
8.98772e-08
2.48882e-07
-7.58934e-07
1.04226e-07
2.55086e-07
-7.49675e-07
1.19963e-07
2.462e-07
-7.33203e-07
1.36535e-07
2.21485e-07
-7.12748e-07
1.53039e-07
1.81585e-07
-6.91466e-07
1.68357e-07
1.28592e-07
-6.72305e-07
1.81278e-07
6.59742e-08
-6.57857e-07
1.90656e-07
-1.75366e-09
-6.50011e-07
1.95597e-07
-6.95258e-08
-6.49772e-07
1.95662e-07
-1.32275e-07
-6.57134e-07
1.90855e-07
-1.85475e-07
-6.71059e-07
1.81619e-07
-2.25645e-07
-6.8964e-07
1.68839e-07
-2.50685e-07
-7.10277e-07
1.53686e-07
-2.59926e-07
-7.29992e-07
1.3739e-07
-2.54063e-07
-7.45614e-07
1.21058e-07
-2.34897e-07
-7.53931e-07
1.05581e-07
-2.05057e-07
-7.51657e-07
9.15401e-08
-1.6773e-07
-7.35282e-07
7.91549e-08
-1.26404e-07
-7.00732e-07
6.82595e-08
-8.47378e-08
-6.42583e-07
5.82036e-08
-4.64788e-08
-5.52632e-07
4.77517e-08
-1.59389e-08
-4.15945e-07
3.48457e-08
-1.98562e-07
1.59545e-08
1.54309e-08
-2.33097e-07
1.54442e-08
4.52446e-08
-4.8655e-07
3.38041e-08
8.28806e-08
-6.45255e-07
4.65623e-08
1.2425e-07
-7.49717e-07
5.72118e-08
1.6563e-07
-8.17907e-07
6.78018e-08
2.03365e-07
-8.59664e-07
7.9563e-08
2.33862e-07
-8.81305e-07
9.31066e-08
2.53805e-07
-8.87446e-07
1.08569e-07
2.604e-07
-8.81957e-07
1.25688e-07
2.51651e-07
-8.68288e-07
1.43835e-07
2.26702e-07
-8.49798e-07
1.61999e-07
1.86115e-07
-8.29815e-07
1.78935e-07
1.3197e-07
-8.1142e-07
1.93259e-07
6.78322e-08
-7.97385e-07
2.03666e-07
-1.61467e-09
-7.89701e-07
2.09137e-07
-7.10892e-08
-7.89487e-07
2.09189e-07
-1.35313e-07
-7.96723e-07
2.03813e-07
-1.89575e-07
-8.10317e-07
1.93521e-07
-2.30325e-07
-8.28216e-07
1.79326e-07
-2.55463e-07
-8.47664e-07
1.62525e-07
-2.64377e-07
-8.6557e-07
1.44491e-07
-2.57925e-07
-8.78573e-07
1.26506e-07
-2.38051e-07
-8.83375e-07
1.0957e-07
-2.0749e-07
-8.76517e-07
9.42988e-08
-1.69506e-07
-8.54215e-07
8.0949e-08
-1.27638e-07
-8.11955e-07
6.93544e-08
-8.55175e-08
-7.43565e-07
5.88618e-08
-4.69036e-08
-6.39417e-07
4.81709e-08
-1.61008e-08
-4.81879e-07
3.51311e-08
-2.30779e-07
1.61166e-08
1.54296e-08
-2.63969e-07
1.54424e-08
4.50167e-08
-5.49767e-07
3.36301e-08
8.22544e-08
-7.28729e-07
4.62362e-08
1.23124e-07
-8.47448e-07
5.68607e-08
1.64064e-07
-9.26473e-07
6.76264e-08
2.01511e-07
-9.76901e-07
7.979e-08
2.3197e-07
-1.00574e-06
9.39801e-08
2.52165e-07
-1.01802e-06
1.10375e-07
2.59202e-07
-1.01768e-06
1.28681e-07
2.51014e-07
-1.00832e-06
1.48218e-07
2.2661e-07
-9.93292e-07
1.67897e-07
1.86378e-07
-9.75922e-07
1.8634e-07
1.32381e-07
-9.59412e-07
2.01989e-07
6.81564e-08
-9.46539e-07
2.1338e-07
-1.49339e-09
-9.39426e-07
2.19374e-07
-7.1158e-08
-9.39239e-07
2.19417e-07
-1.35418e-07
-9.45975e-07
2.13512e-07
-1.89497e-07
-9.58448e-07
2.02209e-07
-2.29797e-07
-9.7455e-07
1.86634e-07
-2.54274e-07
-9.91468e-07
1.68282e-07
-2.62522e-07
-1.00602e-06
1.48692e-07
-2.55483e-07
-1.01489e-06
1.29277e-07
-2.35236e-07
-1.01472e-06
1.11101e-07
-2.0461e-07
-1.00197e-06
9.48295e-08
-1.66868e-07
-9.72709e-07
8.07527e-08
-1.25478e-07
-9.22022e-07
6.86771e-08
-8.40098e-08
-8.42977e-07
5.79439e-08
-4.6083e-08
-7.24603e-07
4.72597e-08
-1.58287e-08
-5.46584e-07
3.44509e-08
-2.62452e-07
1.58441e-08
1.47944e-08
-2.93571e-07
1.48077e-08
4.30453e-08
-6.10153e-07
3.21353e-08
7.85467e-08
-8.08391e-07
4.41602e-08
1.17576e-07
-9.40916e-07
5.44393e-08
1.56776e-07
-1.03076e-06
6.50907e-08
1.92857e-07
-1.09036e-06
7.73742e-08
2.22499e-07
-1.12729e-06
9.19045e-08
2.42501e-07
-1.14691e-06
1.08896e-07
2.50008e-07
-1.15324e-06
1.28058e-07
2.4284e-07
-1.14983e-06
1.48681e-07
2.19853e-07
-1.13993e-06
1.69626e-07
1.81294e-07
-1.12672e-06
1.89356e-07
1.29042e-07
-1.11334e-06
2.06177e-07
6.65468e-08
-1.10251e-06
2.18469e-07
-1.39725e-09
-1.09644e-06
2.24954e-07
-6.93459e-08
-1.09627e-06
2.24982e-07
-1.31859e-07
-1.10202e-06
2.18555e-07
-1.84123e-07
-1.1125e-06
2.0632e-07
-2.22672e-07
-1.12555e-06
1.89547e-07
-2.45652e-07
-1.13837e-06
1.69887e-07
-2.52795e-07
-1.14791e-06
1.49039e-07
-2.4522e-07
-1.15097e-06
1.28506e-07
-2.25089e-07
-1.14426e-06
1.09409e-07
-1.95246e-07
-1.12432e-06
9.24998e-08
-1.58847e-07
-1.08713e-06
7.80234e-08
-1.19246e-07
-1.02741e-06
6.57919e-08
-7.97556e-08
-9.37625e-07
5.51575e-08
-4.37288e-08
-8.05455e-07
4.48249e-08
-1.50442e-08
-6.07927e-07
3.26581e-08
-2.92555e-07
1.50591e-08
1.34907e-08
-3.20557e-07
1.34957e-08
3.91603e-08
-6.65013e-07
2.9191e-08
7.14414e-08
-8.80788e-07
4.01164e-08
1.07022e-07
-1.02617e-06
4.96703e-08
1.42988e-07
-1.12656e-06
5.98345e-08
1.76375e-07
-1.19556e-06
7.1814e-08
2.04167e-07
-1.24135e-06
8.62676e-08
2.23368e-07
-1.26949e-06
1.03374e-07
2.31241e-07
-1.28401e-06
1.22896e-07
2.25566e-07
-1.28826e-06
1.44109e-07
2.05052e-07
-1.28526e-06
1.65844e-07
1.69716e-07
-1.27794e-06
1.86554e-07
1.21142e-07
-1.26916e-06
2.04399e-07
6.25897e-08
-1.2615e-06
2.17538e-07
-1.32555e-09
-1.25702e-06
2.24502e-07
-6.5235e-08
-1.25688e-06
2.24518e-07
-1.23762e-07
-1.26108e-06
2.17588e-07
-1.72305e-07
-1.26844e-06
2.04485e-07
-2.07604e-07
-1.27695e-06
1.86697e-07
-2.28057e-07
-1.28396e-06
1.66037e-07
-2.33633e-07
-1.28666e-06
1.44321e-07
-2.25632e-07
-1.28214e-06
1.23174e-07
-2.06249e-07
-1.26737e-06
1.03724e-07
-1.7823e-07
-1.23901e-06
8.66716e-08
-1.44563e-07
-1.19307e-06
7.22758e-08
-1.08265e-07
-1.12404e-06
6.0327e-08
-7.22908e-08
-1.02375e-06
5.01474e-08
-3.96301e-08
-8.7867e-07
4.05544e-08
-1.36452e-08
-6.63443e-07
2.95311e-08
-3.19859e-07
1.36588e-08
1.14652e-08
-3.43493e-07
1.14705e-08
3.32072e-08
-7.11455e-07
2.46998e-08
6.0632e-08
-9.422e-07
3.39874e-08
9.101e-08
-1.09888e-06
4.23361e-08
1.21976e-07
-1.20906e-06
5.1532e-08
1.51085e-07
-1.28735e-06
6.26792e-08
1.75766e-07
-1.34242e-06
7.63888e-08
1.93375e-07
-1.37996e-06
9.28586e-08
2.01404e-07
-1.40396e-06
1.11917e-07
1.97657e-07
-1.41747e-06
1.32952e-07
1.80711e-07
-1.42314e-06
1.54827e-07
1.50343e-07
-1.42351e-06
1.75937e-07
1.07751e-07
-1.4209e-06
1.94332e-07
5.57856e-08
-1.4176e-06
2.0807e-07
-1.27792e-09
-1.41538e-06
2.15421e-07
-5.83267e-08
-1.41526e-06
2.15425e-07
-1.10256e-07
-1.41724e-06
2.08087e-07
-1.52783e-07
-1.42028e-06
1.94365e-07
-1.83068e-07
-1.42264e-06
1.75977e-07
-1.99881e-07
-1.42205e-06
1.54902e-07
-2.03471e-07
-1.41616e-06
1.33096e-07
-1.95289e-07
-1.40243e-06
1.1211e-07
-1.77491e-07
-1.37824e-06
9.30756e-08
-1.52556e-07
-1.34059e-06
7.66472e-08
-1.23187e-07
-1.28541e-06
6.29702e-08
-9.19147e-08
-1.20715e-06
5.18429e-08
-6.12459e-08
-1.09706e-06
4.26457e-08
-3.35452e-08
-9.40643e-07
3.42724e-08
-1.1568e-08
-7.10344e-07
2.49235e-08
-3.43008e-07
1.15805e-08
8.69156e-09
-3.60879e-07
8.69398e-09
2.51446e-08
-7.46513e-07
1.86044e-08
4.5936e-08
-9.8864e-07
2.56481e-08
6.92112e-08
-1.15442e-06
3.22597e-08
9.32776e-08
-1.27303e-06
3.99032e-08
1.16349e-07
-1.35993e-06
4.95094e-08
1.36457e-07
-1.42415e-06
6.16261e-08
1.51472e-07
-1.47148e-06
7.65108e-08
1.59219e-07
-1.50575e-06
9.40433e-08
1.5771e-07
-1.52966e-06
1.13699e-07
1.45493e-07
-1.54539e-06
1.34468e-07
1.21983e-07
-1.55491e-06
1.5491e-07
8.79395e-08
-1.55993e-06
1.73071e-07
4.56359e-08
-1.56214e-06
1.86838e-07
-1.24754e-09
-1.5628e-06
1.94301e-07
-4.8108e-08
-1.56269e-06
1.94296e-07
-9.03493e-08
-1.56182e-06
1.8683e-07
-1.24289e-07
-1.55941e-06
1.73064e-07
-1.47688e-07
-1.55417e-06
1.5493e-07
-1.59759e-07
-1.54449e-06
1.34512e-07
-1.61118e-07
-1.52855e-06
1.13749e-07
-1.53176e-07
-1.5045e-06
9.41254e-08
-1.37925e-07
-1.47012e-06
7.66248e-08
-1.176e-07
-1.42268e-06
6.17716e-08
-9.42644e-08
-1.35843e-06
4.96808e-08
-6.99435e-08
-1.27157e-06
4.00927e-08
-4.63941e-08
-1.15306e-06
3.24535e-08
-2.53644e-08
-9.87503e-07
2.58302e-08
-8.75919e-09
-7.45701e-07
1.87521e-08
-3.60537e-07
8.77044e-09
5.18139e-09
-3.71245e-07
5.18519e-09
1.49434e-08
-7.67214e-07
1.09392e-08
2.74421e-08
-1.0163e-06
1.51575e-08
4.17207e-08
-1.18817e-06
1.94748e-08
5.69754e-08
-1.3132e-06
2.49148e-08
7.21621e-08
-1.40729e-06
3.21762e-08
8.60862e-08
-1.47974e-06
4.16635e-08
9.72902e-08
-1.53632e-06
5.36308e-08
1.04141e-07
-1.58067e-06
6.80691e-08
1.04981e-07
-1.61515e-06
8.46517e-08
9.84136e-08
-1.64142e-06
1.02597e-07
8.36463e-08
-1.66074e-06
1.20603e-07
6.08986e-08
-1.67409e-06
1.36911e-07
3.16714e-08
-1.68241e-06
1.49504e-07
-1.23066e-09
-1.6863e-06
1.56405e-07
-3.41081e-08
-1.68623e-06
1.56412e-07
-6.32744e-08
-1.68215e-06
1.49492e-07
-8.58944e-08
-1.67365e-06
1.36866e-07
-1.00511e-07
-1.66011e-06
1.20556e-07
-1.06903e-07
-1.64066e-06
1.02561e-07
-1.05866e-07
-1.61422e-06
8.46313e-08
-9.88026e-08
-1.57964e-06
6.80716e-08
-8.73715e-08
-1.53521e-06
5.36606e-08
-7.32112e-08
-1.47856e-06
4.17202e-08
-5.77737e-08
-1.40612e-06
3.22565e-08
-4.2292e-08
-1.31206e-06
2.50131e-08
-2.7793e-08
-1.18715e-06
1.95834e-08
-1.51113e-08
-1.01545e-06
1.52654e-08
-5.22963e-09
-7.66616e-07
1.10335e-08
-3.71007e-07
5.23989e-09
1.01842e-09
-3.73276e-07
1.01263e-09
2.88521e-09
-7.70964e-07
1.88328e-09
5.55781e-09
-1.02169e-06
2.71878e-09
9.17311e-09
-1.19601e-06
4.22233e-09
1.38013e-08
-1.32464e-06
6.80979e-09
1.9373e-08
-1.4237e-06
1.08376e-08
2.55266e-08
-1.50251e-06
1.66147e-08
3.16593e-08
-1.56673e-06
2.42838e-08
3.68389e-08
-1.61977e-06
3.39268e-08
3.9904e-08
-1.6636e-06
4.53898e-08
3.97369e-08
-1.69942e-06
5.8162e-08
3.53752e-08
-1.72777e-06
7.13929e-08
2.65664e-08
-1.74897e-06
8.36883e-08
1.38355e-08
-1.7631e-06
9.34129e-08
-1.22171e-09
-1.77012e-06
9.8879e-08
-1.62491e-08
-1.77006e-06
9.88599e-08
-2.89002e-08
-1.76286e-06
9.33623e-08
-3.75755e-08
-1.74859e-06
8.36128e-08
-4.17574e-08
-1.72725e-06
7.13279e-08
-4.1742e-08
-1.69877e-06
5.80943e-08
-3.84477e-08
-1.66283e-06
4.53131e-08
-3.30411e-08
-1.61891e-06
3.38678e-08
-2.66851e-08
-1.56582e-06
2.42485e-08
-2.02837e-08
-1.50157e-06
1.66033e-08
-1.45018e-08
-1.42275e-06
1.08481e-08
-9.64512e-09
-1.32376e-06
6.84103e-09
-5.83655e-09
-1.19522e-06
4.26935e-09
-3.02412e-09
-1.02104e-06
2.77711e-09
-1.04318e-09
-7.70539e-07
1.94233e-09
-3.73103e-07
1.05284e-09
-3.64519e-09
-3.65981e-07
-3.64948e-09
-1.05618e-08
-7.5585e-07
-8.19767e-09
-1.88607e-08
-1.00226e-06
-1.11283e-08
-2.72167e-08
-1.17476e-06
-1.28881e-08
-3.45777e-08
-1.30358e-06
-1.37001e-08
-4.00416e-08
-1.4046e-06
-1.36348e-08
-4.2987e-08
-1.48694e-06
-1.2626e-08
-4.30711e-08
-1.55608e-06
-1.05656e-08
-4.03774e-08
-1.61508e-06
-7.38357e-09
-3.52962e-08
-1.66567e-06
-3.01688e-09
-2.86176e-08
-1.70851e-06
2.41531e-09
-2.12455e-08
-1.74366e-06
8.51811e-09
-1.3999e-08
-1.77075e-06
1.45342e-08
-7.35727e-09
-1.78927e-06
1.95345e-08
-1.21511e-09
-1.79867e-06
2.2409e-08
4.96301e-09
-1.7986e-06
2.23608e-08
1.17117e-08
-1.78906e-06
1.94452e-08
1.90869e-08
-1.7704e-06
1.44333e-08
2.66297e-08
-1.74317e-06
8.37503e-09
3.35207e-08
-1.70792e-06
2.26645e-09
3.88298e-08
-1.665e-06
-3.13934e-09
4.17725e-08
-1.61436e-06
-7.49092e-09
4.19164e-08
-1.55531e-06
-1.06543e-08
3.92181e-08
-1.48618e-06
-1.26913e-08
3.39786e-08
-1.40384e-06
-1.36762e-08
2.68121e-08
-1.30287e-06
-1.37209e-08
1.86307e-08
-1.17416e-06
-1.2887e-08
1.04795e-08
-1.00178e-06
-1.11079e-08
3.62792e-09
-7.55524e-07
-8.16404e-09
-3.65856e-07
-3.61845e-09
-8.57571e-09
-3.48826e-07
-8.57948e-09
-2.4743e-08
-7.20841e-07
-1.88417e-08
-4.45591e-08
-9.56691e-07
-2.57521e-08
-6.5565e-08
-1.12276e-06
-3.09927e-08
-8.56606e-08
-1.24797e-06
-3.55092e-08
-1.02981e-07
-1.34742e-06
-3.98614e-08
-1.15824e-07
-1.42982e-06
-4.42754e-08
-1.22877e-07
-1.50027e-06
-4.87557e-08
-1.23198e-07
-1.56162e-06
-5.31368e-08
-1.16408e-07
-1.61528e-06
-5.71789e-08
-1.02733e-07
-1.66155e-06
-6.06421e-08
-8.29684e-08
-1.70012e-06
-6.33115e-08
-5.83934e-08
-1.73023e-06
-6.50928e-08
-3.05882e-08
-1.75104e-06
-6.60374e-08
-1.20227e-09
-1.76168e-06
-6.63829e-08
2.82145e-08
-1.76161e-06
-6.64109e-08
5.61025e-08
-1.75083e-06
-6.61129e-08
8.0843e-08
-1.72993e-06
-6.52083e-08
1.00794e-07
-1.69967e-06
-6.34521e-08
1.14687e-07
-1.66102e-06
-6.07926e-08
1.21712e-07
-1.61469e-06
-5.73295e-08
1.21624e-07
-1.561e-06
-5.32771e-08
1.14824e-07
-1.49963e-06
-4.88792e-08
1.02205e-07
-1.42918e-06
-4.43781e-08
8.51055e-08
-1.3468e-06
-3.99404e-08
6.52142e-08
-1.24742e-06
-3.55644e-08
4.43719e-08
-1.12229e-06
-3.10231e-08
2.46607e-08
-9.56311e-07
-2.57584e-08
8.56508e-09
-7.20602e-07
-1.8826e-08
-3.48736e-07
-8.55539e-09
-1.34517e-08
-3.21918e-07
-1.34565e-08
-3.87497e-08
-6.66212e-07
-2.93301e-08
-6.99754e-08
-8.85323e-07
-4.0143e-08
-1.03506e-07
-1.04036e-06
-4.88694e-08
-1.36302e-07
-1.15798e-06
-5.71925e-08
-1.65508e-07
-1.25213e-06
-6.60828e-08
-1.88409e-07
-1.33086e-06
-7.60562e-08
-2.02624e-07
-1.3988e-06
-8.72537e-08
-2.06204e-07
-1.45856e-06
-9.94904e-08
-1.97919e-07
-1.51119e-06
-1.12375e-07
-1.77384e-07
-1.55688e-06
-1.25201e-07
-1.45272e-07
-1.59515e-06
-1.37081e-07
-1.03277e-07
-1.62512e-06
-1.47108e-07
-5.41155e-08
-1.64585e-06
-1.54351e-07
-1.18236e-09
-1.65645e-06
-1.5816e-07
5.17868e-08
-1.65639e-06
-1.58187e-07
1.0105e-07
-1.64569e-06
-1.54408e-07
1.43176e-07
-1.62485e-06
-1.47205e-07
1.75483e-07
-1.59475e-06
-1.37226e-07
1.96238e-07
-1.55642e-06
-1.25362e-07
2.0476e-07
-1.51068e-06
-1.12541e-07
2.01414e-07
-1.458e-06
-9.96496e-08
1.87453e-07
-1.39827e-06
-8.73984e-08
1.64774e-07
-1.33032e-06
-7.61833e-08
1.35792e-07
-1.25163e-06
-6.61865e-08
1.03177e-07
-1.15753e-06
-5.72711e-08
6.98022e-08
-1.03999e-06
-4.89218e-08
3.86928e-08
-8.85035e-07
-4.01664e-08
1.34462e-08
-6.6603e-07
-2.93252e-08
-3.21854e-07
-1.34358e-08
-1.79422e-08
-2.8603e-07
-1.79459e-08
-5.16222e-08
-5.93579e-07
-3.89536e-08
-9.33058e-08
-7.90279e-07
-5.33597e-08
-1.38404e-07
-9.29992e-07
-6.52745e-08
-1.82995e-07
-1.03632e-06
-7.70685e-08
-2.23284e-07
-1.12167e-06
-9.01732e-08
-2.55633e-07
-1.19318e-06
-1.05335e-07
-2.76618e-07
-1.25503e-06
-1.22787e-07
-2.83358e-07
-1.30944e-06
-1.42372e-07
-2.73764e-07
-1.35735e-06
-1.63429e-07
-2.46913e-07
-1.39888e-06
-1.84855e-07
-2.03324e-07
-1.43351e-06
-2.0523e-07
-1.45109e-07
-1.46055e-06
-2.2279e-07
-7.60298e-08
-1.47917e-06
-2.35763e-07
-1.1524e-09
-1.48866e-06
-2.42669e-07
7.37533e-08
-1.4886e-06
-2.42693e-07
1.42925e-07
-1.479e-06
-2.35856e-07
2.01273e-07
-1.46028e-06
-2.22919e-07
2.45069e-07
-1.43318e-06
-2.05371e-07
2.72126e-07
-1.39846e-06
-1.85013e-07
2.81944e-07
-1.3569e-06
-1.63593e-07
2.75454e-07
-1.30898e-06
-1.42536e-07
2.54692e-07
-1.25456e-06
-1.22942e-07
2.22581e-07
-1.19273e-06
-1.05473e-07
1.82494e-07
-1.12125e-06
-9.02912e-08
1.38089e-07
-1.03596e-06
-7.71637e-08
9.31472e-08
-9.29721e-07
-6.53306e-08
5.15606e-08
-7.90065e-07
-5.33836e-08
1.79389e-08
-5.93451e-07
-3.89574e-08
-2.85986e-07
-1.79285e-08
-2.16764e-08
-2.42674e-07
-2.16799e-08
-6.23047e-08
-5.06031e-07
-4.69192e-08
-1.12739e-07
-6.75615e-07
-6.42305e-08
-1.67587e-07
-7.96392e-07
-7.87504e-08
-2.22234e-07
-8.88252e-07
-9.34251e-08
-2.72087e-07
-9.61791e-07
-1.10024e-07
-3.12598e-07
-1.02317e-06
-1.29501e-07
-3.39473e-07
-1.07596e-06
-1.52193e-07
-3.48977e-07
-1.12211e-06
-1.77826e-07
-3.38303e-07
-1.16247e-06
-2.0556e-07
-3.06074e-07
-1.1971e-06
-2.34003e-07
-2.52646e-07
-1.22575e-06
-2.61182e-07
-1.80611e-07
-1.24787e-06
-2.84707e-07
-9.46165e-08
-1.26298e-06
-3.02184e-07
-1.1087e-09
-1.27061e-06
-3.11553e-07
9.24274e-08
-1.27056e-06
-3.11573e-07
1.78504e-07
-1.26283e-06
-3.02247e-07
2.50686e-07
-1.24766e-06
-2.84807e-07
3.04259e-07
-1.22544e-06
-2.6131e-07
3.36716e-07
-1.19676e-06
-2.34153e-07
3.47614e-07
-1.16208e-06
-2.05718e-07
3.38352e-07
-1.12173e-06
-1.77988e-07
3.11707e-07
-1.07557e-06
-1.52349e-07
2.71411e-07
-1.0228e-06
-1.29643e-07
2.2177e-07
-9.61463e-07
-1.10148e-07
1.67308e-07
-8.87973e-07
-9.35276e-08
1.1259e-07
-7.96166e-07
-7.88377e-08
6.22558e-08
-6.75449e-07
-6.42811e-08
2.16751e-08
-5.05942e-07
-4.69281e-08
-2.42647e-07
-2.16644e-08
-2.42768e-08
-1.9412e-07
-2.42771e-08
-6.97948e-08
-4.08074e-07
-5.24393e-08
-1.26535e-07
-5.47145e-07
-7.17302e-08
-1.88614e-07
-6.46311e-07
-8.80027e-08
-2.50869e-07
-7.21347e-07
-1.04649e-07
-3.08075e-07
-7.8088e-07
-1.23705e-07
-3.54966e-07
-8.30028e-07
-1.46248e-07
-3.8651e-07
-8.71778e-07
-1.72643e-07
-3.98256e-07
-9.0781e-07
-2.02557e-07
-3.86843e-07
-9.38871e-07
-2.3501e-07
-3.50539e-07
-9.65117e-07
-2.68289e-07
-2.89726e-07
-9.86469e-07
-3.00094e-07
-2.07264e-07
-1.0027e-06
-3.27642e-07
-1.08535e-07
-1.01361e-06
-3.48094e-07
-1.05279e-09
-1.01908e-06
-3.5901e-07
1.06454e-07
-1.01904e-06
-3.59026e-07
2.0526e-07
-1.01349e-06
-3.48146e-07
2.87841e-07
-1.00251e-06
-3.27729e-07
3.48826e-07
-9.8622e-07
-3.00205e-07
3.85325e-07
-9.64838e-07
-2.68425e-07
3.96953e-07
-9.38555e-07
-2.35154e-07
3.85422e-07
-9.07487e-07
-2.02707e-07
3.54119e-07
-8.71476e-07
-1.7279e-07
3.07429e-07
-8.29721e-07
-1.46385e-07
2.50421e-07
-7.80626e-07
-1.23829e-07
1.8833e-07
-7.21128e-07
-1.04754e-07
1.26389e-07
-6.46144e-07
-8.80807e-08
6.97526e-08
-5.47036e-07
-7.17763e-08
2.42737e-08
-4.08012e-07
-5.24512e-08
-1.94109e-07
-2.4264e-08
-2.53699e-08
-1.43376e-07
-2.53742e-08
-7.3134e-08
-3.05608e-07
-5.47012e-08
-1.3308e-07
-4.12477e-07
-7.4723e-08
-1.99247e-07
-4.88509e-07
-9.16343e-08
-2.66139e-07
-5.45374e-07
-1.09081e-07
-3.28058e-07
-5.89692e-07
-1.29269e-07
-3.79207e-07
-6.25523e-07
-1.53356e-07
-4.13949e-07
-6.55351e-07
-1.81685e-07
-4.27391e-07
-6.80504e-07
-2.13864e-07
-4.15777e-07
-7.01695e-07
-2.4879e-07
-3.77161e-07
-7.19154e-07
-2.8458e-07
-3.11936e-07
-7.32983e-07
-3.18711e-07
-2.23219e-07
-7.43234e-07
-3.48179e-07
-1.16849e-07
-7.49967e-07
-3.70014e-07
-9.81515e-10
-7.53281e-07
-3.81671e-07
1.1491e-07
-7.53249e-07
-3.81685e-07
2.21349e-07
-7.49874e-07
-3.70057e-07
3.10188e-07
-7.43101e-07
-3.48244e-07
3.7556e-07
-7.32807e-07
-3.18785e-07
4.14343e-07
-7.18939e-07
-2.84682e-07
4.26158e-07
-7.01452e-07
-2.48919e-07
4.12939e-07
-6.80265e-07
-2.14002e-07
3.78392e-07
-6.55105e-07
-1.81824e-07
3.27461e-07
-6.25305e-07
-1.53486e-07
2.65723e-07
-5.89498e-07
-1.2939e-07
1.98987e-07
-5.45211e-07
-1.09182e-07
1.32953e-07
-4.88397e-07
-9.17132e-08
7.30882e-08
-4.12401e-07
-7.4771e-08
2.53714e-08
-3.05579e-07
-5.47162e-08
-1.43374e-07
-2.53634e-08
-2.45968e-08
-9.418e-08
-2.45987e-08
-7.141e-08
-2.05879e-07
-5.29159e-08
-1.31003e-07
-2.80816e-07
-7.20677e-08
-1.97669e-07
-3.33639e-07
-8.82029e-08
-2.65816e-07
-3.72211e-07
-1.05017e-07
-3.29455e-07
-4.0129e-07
-1.24763e-07
-3.82422e-07
-4.23938e-07
-1.48619e-07
-4.1881e-07
-4.42055e-07
-1.76908e-07
-4.33404e-07
-4.56733e-07
-2.09176e-07
-4.22302e-07
-4.68557e-07
-2.4424e-07
-3.83478e-07
-4.77833e-07
-2.80145e-07
-3.17363e-07
-4.84783e-07
-3.14315e-07
-2.27157e-07
-4.8965e-07
-3.43789e-07
-1.1888e-07
-4.92665e-07
-3.65579e-07
-8.93844e-10
-4.94087e-07
-3.7718e-07
1.17113e-07
-4.94065e-07
-3.77191e-07
2.25452e-07
-4.92599e-07
-3.65614e-07
3.15758e-07
-4.89545e-07
-3.43862e-07
3.82013e-07
-4.84648e-07
-3.14415e-07
4.20992e-07
-4.77669e-07
-2.80249e-07
4.32278e-07
-4.68385e-07
-2.44353e-07
4.17866e-07
-4.56553e-07
-2.09299e-07
3.8168e-07
-4.41887e-07
-1.77033e-07
3.28896e-07
-4.23781e-07
-1.4874e-07
2.65428e-07
-4.01155e-07
-1.24875e-07
1.97434e-07
-3.72104e-07
-1.05112e-07
1.30885e-07
-3.33568e-07
-8.82798e-08
7.13743e-08
-2.80774e-07
-7.2116e-08
2.45965e-08
-2.05868e-07
-5.29335e-08
-9.41866e-08
-2.4591e-08
-2.16049e-08
-5.09679e-08
-2.16071e-08
-6.39186e-08
-1.17259e-07
-4.63061e-08
-1.19255e-07
-1.62833e-07
-6.26467e-08
-1.82503e-07