/*--------------------------------*- C++ -*----------------------------------*\
| =========                 |                                                 |
| \\      /  F ield         | OpenFOAM: The Open Source CFD Toolbox           |
|  \\    /   O peration     | Version:  v1906                                 |
|   \\  /    A nd           | Web:      www.OpenFOAM.com                      |
|    \\/     M anipulation  |                                                 |
\*---------------------------------------------------------------------------*/
FoamFile
{
    version     2.0;
    format      ascii;
    class       volVectorField;
    location    "100";
    object      U;
}
// * * * * * * * * * * * * * * * * * * * * * * * * * * * * * * * * * * * * * //

dimensions      [0 1 -1 0 0 0 0];


internalField   nonuniform List<vector> 
78750
(
(-0.498945 -0.194588 -0.274101)
(-0.433457 -0.169663 -0.275951)
(-0.42206 -0.135077 -0.268378)
(-0.354623 -0.105442 -0.258462)
(-0.284195 -0.0849786 -0.247186)
(-0.280689 -0.0739096 -0.240968)
(-0.24223 -0.0620822 -0.23559)
(-0.231988 -0.0544743 -0.231283)
(-0.19948 -0.045733 -0.226717)
(-0.186824 -0.039657 -0.222889)
(-0.164185 -0.0328272 -0.218959)
(-0.150955 -0.0278033 -0.215477)
(-0.13515 -0.022413 -0.21209)
(-0.122967 -0.018071 -0.208964)
(-0.110871 -0.0137252 -0.205999)
(-0.100014 -0.00998927 -0.203197)
(-0.0898067 -0.00644865 -0.200561)
(-0.0802941 -0.00327287 -0.198064)
(-0.0714011 -0.000344946 -0.19571)
(-0.0630423 0.00231456 -0.193486)
(-0.0551749 0.00473146 -0.191393)
(-0.047741 0.00691001 -0.189431)
(-0.0406994 0.00885545 -0.187601)
(-0.034011 0.010569 -0.185907)
(-0.0276429 0.012049 -0.184356)
(-0.0215668 0.0132906 -0.182954)
(-0.0157595 0.0142857 -0.181713)
(-0.0102028 0.015024 -0.180651)
(-0.00488408 0.0154998 -0.179795)
(0.000198478 0.0157315 -0.179172)
(0.00501142 0.0158125 -0.178766)
(0.00944437 0.0160236 -0.178417)
(0.012958 0.0171007 -0.177561)
(0.0187521 0.0227046 -0.173771)
(0.0145438 0.0802524 -0.0855951)
(0.0725191 -0.350654 0.0672356)
(-0.0993798 -0.180974 -0.0743837)
(-0.0290544 -0.182758 -0.142451)
(-0.0687963 -0.173135 -0.170304)
(-0.0674007 -0.127114 -0.194132)
(-0.0729869 -0.0934732 -0.206487)
(-0.0759177 -0.0631069 -0.216676)
(-0.0762377 -0.041662 -0.222524)
(-0.0764088 -0.0238427 -0.226772)
(-0.0752081 -0.00962684 -0.229354)
(-0.073411 0.00199475 -0.230908)
(-0.0709877 0.0116531 -0.231661)
(-0.0679607 0.0196993 -0.231866)
(-0.0645467 0.0265103 -0.231687)
(-0.0609559 0.0322397 -0.231221)
(-0.0573026 0.0370681 -0.230539)
(-0.0535255 0.0411321 -0.229702)
(-0.0496152 0.0445585 -0.22876)
(-0.0455623 0.0474569 -0.227751)
(-0.0413638 0.0499246 -0.226704)
(-0.0370205 0.0520481 -0.225637)
(-0.0325362 0.0539038 -0.224561)
(-0.0279192 0.0555592 -0.223478)
(-0.0231831 0.0570738 -0.222388)
(-0.0183485 0.0585009 -0.221282)
(-0.0134453 0.0598911 -0.220142)
(-0.00851588 0.0613003 -0.218944)
(-0.00362028 0.0628068 -0.217643)
(0.00115678 0.0645494 -0.216168)
(0.00568464 0.0668076 -0.214384)
(0.00972386 0.0701625 -0.212031)
(0.0128443 0.075822 -0.20857)
(0.0146847 0.0869413 -0.202442)
(0.0155431 0.119417 -0.185167)
(0.00728587 0.254197 -0.0803804)
(-0.0248804 0.20652 -0.0938813)
(-0.0474654 0.13646 -0.155414)
(-0.0559163 0.124361 -0.160162)
(-0.0699865 0.11708 -0.167721)
(-0.0788475 0.109663 -0.173287)
(-0.0847794 0.108175 -0.17826)
(-0.0879629 0.108225 -0.182265)
(-0.089007 0.109897 -0.185417)
(-0.0886637 0.111915 -0.188017)
(-0.0871973 0.114119 -0.190084)
(-0.0849551 0.116278 -0.191771)
(-0.0821095 0.118303 -0.193137)
(-0.0788086 0.120127 -0.194252)
(-0.075165 0.121719 -0.195159)
(-0.0712598 0.123068 -0.195893)
(-0.0671627 0.124193 -0.196482)
(-0.0629249 0.125114 -0.196949)
(-0.0585856 0.125855 -0.197316)
(-0.0541716 0.126436 -0.1976)
(-0.0497001 0.126883 -0.197821)
(-0.0451809 0.127219 -0.197997)
(-0.0406186 0.127471 -0.198146)
(-0.0360143 0.127671 -0.198283)
(-0.0313679 0.127861 -0.198422)
(-0.0266811 0.128095 -0.198571)
(-0.0219604 0.128455 -0.198735)
(-0.0172211 0.129064 -0.198913)
(-0.0124912 0.130127 -0.199092)
(-0.00781645 0.131998 -0.199229)
(-0.00327906 0.135298 -0.199204)
(0.00094265 0.141132 -0.198722)
(0.00453505 0.151666 -0.197038)
(0.00726462 0.173174 -0.191706)
(0.00904339 0.230405 -0.170463)
(0.00281866 0.366895 -0.0699598)
(-0.00530808 0.211424 -0.0293991)
(-0.0126767 0.184639 -0.0850699)
(-0.0202158 0.161543 -0.103674)
(-0.0268188 0.149114 -0.114596)
(-0.0321652 0.142629 -0.123052)
(-0.0370577 0.140334 -0.130206)
(-0.0411522 0.140338 -0.136075)
(-0.0444536 0.141666 -0.140902)
(-0.0469804 0.143643 -0.144983)
(-0.0487738 0.145913 -0.148514)
(-0.0498928 0.148263 -0.151639)
(-0.0503939 0.150572 -0.154443)
(-0.050336 0.152769 -0.156984)
(-0.0497767 0.154811 -0.159297)
(-0.0487685 0.156673 -0.161405)
(-0.0473606 0.158345 -0.163322)
(-0.0455973 0.159824 -0.165057)
(-0.0435185 0.16112 -0.166616)
(-0.0411595 0.162248 -0.168006)
(-0.0385523 0.163229 -0.169239)
(-0.0357253 0.164091 -0.170329)
(-0.0327043 0.164866 -0.171296)
(-0.0295126 0.165594 -0.172168)
(-0.0261717 0.166331 -0.172976)
(-0.0227022 0.167153 -0.173758)
(-0.0191258 0.168178 -0.174557)
(-0.015467 0.169593 -0.17542)
(-0.0117548 0.171703 -0.176388)
(-0.00802647 0.175019 -0.177478)
(-0.00434236 0.180395 -0.17863)
(-0.000834885 0.189333 -0.179596)
(0.00222766 0.205077 -0.179652)
(0.00464193 0.237543 -0.176004)
(0.00648857 0.31667 -0.154571)
(0.000911104 0.442335 -0.0624384)
(-0.00259421 0.278956 -0.00175137)
(-0.00832382 0.282729 -0.0473853)
(-0.0137394 0.258419 -0.0703327)
(-0.01895 0.241135 -0.0843271)
(-0.0234849 0.230125 -0.0947212)
(-0.0276858 0.222663 -0.103319)
(-0.0313582 0.217313 -0.110333)
(-0.0344476 0.213428 -0.115934)
(-0.0369427 0.210629 -0.120419)
(-0.0388548 0.208665 -0.124079)
(-0.0402098 0.207335 -0.127151)
(-0.0410433 0.20648 -0.12981)
(-0.0413973 0.20597 -0.132178)
(-0.0413162 0.205701 -0.134341)
(-0.040843 0.205592 -0.136355)
(-0.0400178 0.205578 -0.138255)
(-0.0388762 0.205613 -0.140061)
(-0.0374492 0.205665 -0.14178)
(-0.0357632 0.205718 -0.143412)
(-0.0338402 0.20577 -0.144955)
(-0.0316993 0.205835 -0.146408)
(-0.0293573 0.205937 -0.147776)
(-0.0268299 0.206117 -0.149071)
(-0.0241327 0.206436 -0.15032)
(-0.0212823 0.20699 -0.151563)
(-0.0182973 0.207928 -0.152854)
(-0.0151996 0.209497 -0.154261)
(-0.0120149 0.212094 -0.155855)
(-0.00877733 0.216366 -0.157683)
(-0.00554636 0.223387 -0.15972)
(-0.00243531 0.235124 -0.161771)
(0.000397815 0.256246 -0.16314)
(0.00252625 0.300369 -0.160557)
(0.00433521 0.39571 -0.138763)
(-0.000301351 0.500302 -0.0561388)
(-0.00217088 0.305068 0.014768)
(-0.00579313 0.335326 -0.0178434)
(-0.00967835 0.316974 -0.039728)
(-0.0135967 0.298465 -0.0549922)
(-0.0171461 0.28563 -0.0662309)
(-0.0205649 0.276509 -0.0756814)
(-0.0238032 0.269431 -0.0839529)
(-0.0267746 0.263587 -0.0910895)
(-0.0294014 0.258631 -0.0971105)
(-0.0316264 0.254432 -0.102105)
(-0.0334161 0.250931 -0.10621)
(-0.0347599 0.248076 -0.10958)
(-0.0356647 0.245806 -0.112368)
(-0.0361488 0.244042 -0.114709)
(-0.0362378 0.242698 -0.116721)
(-0.0359609 0.241686 -0.118501)
(-0.0353492 0.240922 -0.120125)
(-0.0344332 0.240335 -0.121649)
(-0.0332408 0.23987 -0.123111)
(-0.0317961 0.239488 -0.124536)
(-0.0301187 0.239177 -0.125937)
(-0.0282242 0.238946 -0.127325)
(-0.0261249 0.238837 -0.128713)
(-0.0238318 0.238928 -0.130128)
(-0.0213563 0.239346 -0.131613)
(-0.0187119 0.240294 -0.133227)
(-0.0159162 0.242085 -0.135046)
(-0.0129925 0.245211 -0.13715)
(-0.00998038 0.250453 -0.1396)
(-0.00695661 0.259115 -0.142397)
(-0.00401638 0.27377 -0.145415)
(-0.00115052 0.300898 -0.148012)
(0.000581749 0.357811 -0.146325)
(0.0024119 0.464909 -0.124447)
(-0.000565143 0.544247 -0.0511543)
(-0.00152344 0.310148 0.0253857)
(-0.00278629 0.360133 0.00626995)
(-0.00466504 0.351529 -0.0101266)
(-0.00667893 0.33714 -0.0232388)
(-0.00888247 0.325376 -0.0337655)
(-0.01123 0.316483 -0.0429667)
(-0.0136685 0.309344 -0.0515456)
(-0.0161312 0.303208 -0.0596293)
(-0.0185414 0.297726 -0.0671347)
(-0.0208266 0.292783 -0.073954)
(-0.0229238 0.288354 -0.0800107)
(-0.0247824 0.28443 -0.0852686)
(-0.0263636 0.280995 -0.0897305)
(-0.0276406 0.278023 -0.0934364)
(-0.0285972 0.27549 -0.0964589)
(-0.0292262 0.273371 -0.0988968)
(-0.0295276 0.271636 -0.100865)
(-0.0295067 0.270242 -0.102482)
(-0.0291729 0.269139 -0.103866)
(-0.0285382 0.268272 -0.105119)
(-0.0276157 0.267597 -0.106329)
(-0.0264181 0.267094 -0.107565)
(-0.0249568 0.266777 -0.108884)
(-0.0232416 0.266719 -0.110335)
(-0.0212821 0.267066 -0.111973)
(-0.0190895 0.268071 -0.113865)
(-0.0166782 0.270132 -0.116086)
(-0.0140706 0.273865 -0.118722)
(-0.0113125 0.280231 -0.121843)
(-0.00850251 0.290872 -0.125493)
(-0.00577 0.30922 -0.129627)
(-0.00322835 0.343894 -0.133559)
(-0.00175657 0.414418 -0.13249)
(0.00054184 0.525608 -0.11103)
(-0.000611559 0.576444 -0.0471592)
(-0.000995245 0.303765 0.0289861)
(-0.00115654 0.367453 0.0187403)
(-0.00175348 0.365257 0.00727569)
(-0.00213239 0.354639 -0.00262114)
(-0.00262052 0.344764 -0.0110742)
(-0.00332276 0.337387 -0.0184348)
(-0.00426952 0.331961 -0.0252933)
(-0.00546066 0.327768 -0.0319349)
(-0.00687167 0.324271 -0.0384226)
(-0.00846546 0.321119 -0.0447197)
(-0.0101978 0.318119 -0.0507539)
(-0.0120187 0.31518 -0.0564456)
(-0.0138745 0.312273 -0.0617168)
(-0.0157076 0.309405 -0.0664944)
(-0.0174567 0.306606 -0.0707163)
(-0.0190597 0.303911 -0.0743407)
(-0.0204573 0.301358 -0.0773581)
(-0.0215973 0.298984 -0.0798009)
(-0.0224384 0.29682 -0.081747)
(-0.0229519 0.294892 -0.0833145)
(-0.0231232 0.293219 -0.0846493)
(-0.0229497 0.29182 -0.0859071)
(-0.0224379 0.290732 -0.0872366)
(-0.0215992 0.290041 -0.0887668)
(-0.0204462 0.289914 -0.0906045)
(-0.0189901 0.290647 -0.0928386)
(-0.0172398 0.292715 -0.0955492)
(-0.0152063 0.296857 -0.0988162)
(-0.0129215 0.304259 -0.102731)
(-0.0104675 0.317055 -0.107413)
(-0.00796794 0.33989 -0.112957)
(-0.00561619 0.383676 -0.118571)
(-0.00379527 0.467386 -0.118341)
(-0.0011742 0.574685 -0.0983797)
(-0.00110591 0.597505 -0.0442589)
(-0.000277316 0.295451 0.0292816)
(-0.000977752 0.371359 0.0207014)
(-0.0017265 0.373124 0.00976608)
(-0.00157187 0.36344 0.000477888)
(-0.000892146 0.353437 -0.00669603)
(-9.83889e-06 0.346246 -0.0119717)
(0.000811913 0.341573 -0.0162061)
(0.00142785 0.338685 -0.0199062)
(0.00173351 0.337017 -0.0233163)
(0.00163063 0.336139 -0.026582)
(0.00104918 0.335664 -0.0298186)
(-1.31122e-05 0.335266 -0.0331135)
(-0.00148995 0.334735 -0.0365189)
(-0.00327661 0.333915 -0.0400397)
(-0.00525951 0.332703 -0.0436283)
(-0.00733043 0.331054 -0.0471947)
(-0.0093885 0.328977 -0.0506286)
(-0.0113416 0.326537 -0.0538233)
(-0.0131086 0.323844 -0.0566979)
(-0.0146221 0.321045 -0.0592139)
(-0.015831 0.318309 -0.061388)
(-0.0167035 0.315808 -0.063297)
(-0.0172278 0.313707 -0.0650741)
(-0.0174085 0.312174 -0.0668918)
(-0.0172595 0.311413 -0.0689368)
(-0.016794 0.311729 -0.0713832)
(-0.0160144 0.313608 -0.0743785)
(-0.0149092 0.317843 -0.078048)
(-0.0134664 0.325782 -0.0825297)
(-0.0116972 0.340043 -0.0880502)
(-0.00963343 0.366571 -0.0949054)
(-0.00744073 0.418794 -0.102326)
(-0.00525997 0.51426 -0.103361)
(-0.00229231 0.612559 -0.0855283)
(-0.00120361 0.610386 -0.0407898)
(0.00233528 0.284429 0.0281428)
(0.00219847 0.372762 0.0204828)
(0.00130978 0.377532 0.00925722)
(0.000923104 0.367218 -0.000574802)
(0.00138218 0.354424 -0.00776694)
(0.00256093 0.345326 -0.0115354)
(0.00407624 0.340119 -0.0132476)
(0.00560976 0.337765 -0.0139305)
(0.00688606 0.337568 -0.014139)
(0.00768073 0.338998 -0.0142196)
(0.00787431 0.341404 -0.0144087)
(0.00744645 0.344132 -0.0148578)
(0.00647533 0.346545 -0.0156463)
(0.00509869 0.348328 -0.0168357)
(0.00345196 0.349332 -0.018473)
(0.00163601 0.349483 -0.0205808)
(-0.000272997 0.348766 -0.0231526)
(-0.002232 0.347249 -0.0261526)
(-0.0041882 0.345037 -0.0295009)
(-0.00606332 0.342293 -0.0330786)
(-0.00777826 0.339243 -0.0367365)
(-0.00925798 0.336171 -0.0403184)
(-0.01044 0.333405 -0.0436995)
(-0.0112832 0.331292 -0.0468331)
(-0.0117747 0.33016 -0.0497853)
(-0.0119281 0.330362 -0.052735)
(-0.0117694 0.332348 -0.0559339)
(-0.0113239 0.33683 -0.0596537)
(-0.0106203 0.345113 -0.064171)
(-0.00970237 0.360058 -0.0698576)
(-0.00859735 0.389038 -0.0772534)
(-0.00739918 0.44944 -0.0857225)
(-0.00577414 0.556135 -0.0871992)
(-0.00294418 0.640186 -0.0716375)
(-0.00095496 0.617887 -0.0363855)
(0.00505268 0.231045 0.0258555)
(0.0108434 0.364989 0.0209606)
(0.0105086 0.380616 0.0114897)
(0.00937617 0.37338 0.00319863)
(0.0082345 0.358846 -0.00366617)
(0.0074237 0.345467 -0.00710026)
(0.00706635 0.337089 -0.00768514)
(0.00705273 0.333411 -0.0067756)
(0.00715907 0.333283 -0.00522788)
(0.00717225 0.33553 -0.00347834)
(0.00698213 0.339058 -0.00173207)
(0.00659137 0.342959 -8.17615e-05)
(0.00604375 0.346664 0.00137991)
(0.00537216 0.349898 0.00251817)
(0.00457341 0.352522 0.00317818)
(0.00362726 0.35445 0.00321671)
(0.00251704 0.355614 0.00252363)
(0.00123816 0.355972 0.00103088)
(-0.000195544 0.355507 -0.00128503)
(-0.00174683 0.354242 -0.0044011)
(-0.00335017 0.35226 -0.00824124)
(-0.00490493 0.349737 -0.0126697)
(-0.00626921 0.346976 -0.0174949)
(-0.00735115 0.344469 -0.0224968)
(-0.00808309 0.342868 -0.0274614)
(-0.00839105 0.342896 -0.0322635)
(-0.00828401 0.345341 -0.0369596)
(-0.00784607 0.351156 -0.0418128)
(-0.00724858 0.361871 -0.0472551)
(-0.00678628 0.380909 -0.0538875)
(-0.00688688 0.41712 -0.0623466)
(-0.00766052 0.488912 -0.0712607)
(-0.00668676 0.598668 -0.0717429)
(-0.00406059 0.661467 -0.0589272)
(-0.00130242 0.624377 -0.032664)
(0.00336349 0.142504 0.0263482)
(0.0150976 0.321251 0.0207709)
(0.0182641 0.372703 0.0123665)
(0.0185194 0.378072 0.00640555)
(0.0176355 0.370643 0.00157443)
(0.0160863 0.358591 -0.00167242)
(0.0142301 0.347139 -0.00276009)
(0.0124561 0.338836 -0.00216068)
(0.0109227 0.333929 -0.000545949)
(0.00965135 0.331773 0.00164033)
(0.008622 0.331575 0.00414991)
(0.00780117 0.332674 0.00678969)
(0.00714568 0.334626 0.00934168)
(0.0066049 0.337138 0.011589)
(0.00612166 0.339977 0.013379)
(0.0056349 0.342933 0.0146489)
(0.00508044 0.345806 0.0154055)
(0.00439286 0.348406 0.0156843)
(0.00351094 0.350539 0.01551)
(0.00238677 0.352006 0.0148707)
(0.000997724 0.35263 0.0137071)
(-0.00063987 0.352302 0.0119161)
(-0.00245882 0.35107 0.00936694)
(-0.00433432 0.349247 0.00593244)
(-0.00608775 0.347545 0.0015418)
(-0.00750084 0.347124 -0.00375426)
(-0.00835395 0.349523 -0.0098058)
(-0.0086096 0.356691 -0.0165769)
(-0.00841169 0.371595 -0.0244355)
(-0.00810291 0.399932 -0.0342049)
(-0.00845199 0.451775 -0.0463148)
(-0.00966991 0.536719 -0.0574572)
(-0.00819823 0.635237 -0.058348)
(-0.00539127 0.676874 -0.0487979)
(-0.00209009 0.624668 -0.0285699)
(0.000679877 0.0751972 0.0342914)
(0.0104686 0.24824 0.0274655)
(0.0167928 0.328805 0.0105754)
(0.0204214 0.352797 0.00124976)
(0.0224695 0.356026 -0.00360642)
(0.0237904 0.351446 -0.00622025)
(0.0244573 0.343825 -0.00690441)
(0.0244816 0.336148 -0.00597432)
(0.0239907 0.329915 -0.0039733)
(0.0230828 0.325526 -0.00145818)
(0.0218421 0.322907 0.0010451)
(0.0203781 0.321832 0.00307816)
(0.0188307 0.322024 0.00436317)
(0.0173435 0.323207 0.00488493)
(0.0160248 0.325164 0.00485842)
(0.0149233 0.327754 0.00461217)
(0.0140252 0.330876 0.00447047)
(0.013264 0.334428 0.00468326)
(0.0125337 0.338263 0.00540104)
(0.0117013 0.342167 0.00667101)
(0.0106199 0.345852 0.00843796)
(0.00914761 0.348978 0.0105447)
(0.00717462 0.351231 0.0127304)
(0.00465624 0.352446 0.0146263)
(0.00164638 0.352816 0.0157555)
(-0.0016656 0.353136 0.0155688)
(-0.00492073 0.355054 0.0135683)
(-0.00764888 0.361236 0.00941918)
(-0.00943913 0.376071 0.00267326)
(-0.0100391 0.40808 -0.0077912)
(-0.00962444 0.470928 -0.0228317)
(-0.0089802 0.567279 -0.0383093)
(-0.00674126 0.656053 -0.0428068)
(-0.00416698 0.684892 -0.0367217)
(-0.00148665 0.616672 -0.0203813)
(-0.000436983 0.033537 0.0467013)
(0.00491911 0.180267 0.0591793)
(0.0108194 0.270601 0.0355656)
(0.0151415 0.304093 0.0159547)
(0.0185101 0.313056 0.00418636)
(0.0213282 0.313195 -0.00296827)
(0.0235772 0.310523 -0.00732844)
(0.0250962 0.308188 -0.0099285)
(0.0258289 0.307589 -0.0115819)
(0.0257281 0.30872 -0.0128311)
(0.0248074 0.310804 -0.0140095)
(0.0232347 0.313007 -0.015348)
(0.0213012 0.314846 -0.0169565)
(0.019315 0.316224 -0.0187507)
(0.0175244 0.317329 -0.0204862)
(0.0160899 0.318507 -0.0218806)
(0.0150871 0.320147 -0.0227121)
(0.0145185 0.322569 -0.0228482)
(0.014323 0.325984 -0.0222291)
(0.0143845 0.330468 -0.0208372)
(0.014538 0.335955 -0.0186703)
(0.0145754 0.342225 -0.0157254)
(0.0142559 0.348894 -0.0120015)
(0.0133262 0.355425 -0.00752914)
(0.0115636 0.361229 -0.00243641)
(0.00884133 0.365927 0.00294734)
(0.00523431 0.369837 0.00796542)
(0.00118018 0.374674 0.0115858)
(-0.00254374 0.384516 0.0125878)
(-0.00505296 0.408501 0.00940232)
(-0.00550226 0.466308 -0.000254231)
(-0.00427756 0.571889 -0.0148873)
(-0.0026204 0.667677 -0.0218757)
(-0.00130464 0.694202 -0.0184285)
(-9.60603e-05 0.616951 -0.00657571)
(-0.00115559 0.00552769 0.049002)
(0.00101844 0.11795 0.08756)
(0.00599389 0.208629 0.086294)
(0.0103955 0.253229 0.0734925)
(0.0134941 0.271138 0.0608185)
(0.0154321 0.277916 0.0495831)
(0.0163475 0.280964 0.0390255)
(0.0163724 0.284091 0.0283683)
(0.0157355 0.289143 0.0170344)
(0.0146287 0.296158 0.00501601)
(0.0131634 0.303626 -0.00682983)
(0.0114163 0.30963 -0.0171625)
(0.00948213 0.31319 -0.0250535)
(0.00747881 0.314441 -0.0303539)
(0.00553027 0.31404 -0.0333837)
(0.00376612 0.312757 -0.0346278)
(0.00231382 0.311355 -0.0346231)
(0.00128309 0.31055 -0.0338915)
(0.000760499 0.31096 -0.032852)
(0.000789268 0.313068 -0.0317662)
(0.00137509 0.317212 -0.0307408)
(0.00247705 0.323585 -0.029759)
(0.00398003 0.332232 -0.028702)
(0.0056878 0.343 -0.0273439)
(0.00730284 0.355459 -0.0253213)
(0.00840357 0.368777 -0.0221165)
(0.00845173 0.381715 -0.017177)
(0.00703071 0.393282 -0.010337)
(0.00424144 0.404781 -0.00236832)
(0.00065412 0.424225 0.00486545)
(-0.00270044 0.475322 0.00776272)
(-0.00404943 0.584119 0.00319598)
(-0.00318423 0.684092 -0.000640989)
(-0.00222422 0.708685 0.00123793)
(-0.000886211 0.626562 0.00747497)
(-0.00141888 -0.00863374 0.0375345)
(-0.000922107 0.0583729 0.0708401)
(0.00383747 0.124685 0.0875597)
(0.0102557 0.172057 0.0944218)
(0.0158233 0.202996 0.0964313)
(0.0198163 0.223787 0.09573)
(0.0220566 0.239083 0.0927169)
(0.0227229 0.25192 0.0871256)
(0.0221692 0.264169 0.0785043)
(0.0207933 0.276591 0.0666565)
(0.0189351 0.288714 0.0522174)
(0.0167938 0.299183 0.0368632)
(0.0144169 0.306753 0.0226797)
(0.0117775 0.311013 0.0112278)
(0.00885718 0.312321 0.00313521)
(0.00568235 0.311403 -0.00175017)
(0.00233023 0.309053 -0.00404095)
(-0.00107409 0.306037 -0.00455588)
(-0.00436327 0.303072 -0.00412329)
(-0.00734267 0.300814 -0.00343404)
(-0.00980509 0.299877 -0.00298664)
(-0.0115416 0.300876 -0.0031179)
(-0.0123549 0.304482 -0.00406158)
(-0.0120858 0.311447 -0.00597256)
(-0.0106618 0.3226 -0.0089022)
(-0.00815549 0.338826 -0.012715)
(-0.00490288 0.360886 -0.0167956)
(-0.00178035 0.388581 -0.0193864)
(-0.000257858 0.419947 -0.0174134)
(-0.00182912 0.455902 -0.00894081)
(-0.0062516 0.512441 0.00273949)
(-0.00923766 0.610236 0.00940903)
(-0.00810139 0.692572 0.0110402)
(-0.00585408 0.709804 0.0123794)
(-0.00262721 0.618158 0.0142607)
(-0.00126642 -0.0151575 0.0269003)
(-0.000405884 0.0137167 0.0424253)
(0.00429604 0.0464473 0.0513251)
(0.0116836 0.0790255 0.0588001)
(0.0197964 0.109688 0.0654955)
(0.0273665 0.137848 0.0718732)
(0.0335133 0.163481 0.0780595)
(0.0378809 0.187017 0.0835937)
(0.0405162 0.209014 0.0875555)
(0.0416628 0.229735 0.0889392)
(0.0416235 0.249008 0.0871002)
(0.0406657 0.266288 0.0821534)
(0.0389631 0.280894 0.0750205)
(0.0365969 0.292338 0.0670535)
(0.0335987 0.300501 0.059529)
(0.0299909 0.305616 0.0533143)
(0.0258109 0.30813 0.0487748)
(0.021123 0.308575 0.0458517)
(0.0160278 0.307481 0.0442167)
(0.0106654 0.30533 0.0434398)
(0.00521225 0.302539 0.0431117)
(-0.000119945 0.299498 0.0428917)
(-0.00507599 0.296672 0.0424632)
(-0.00933555 0.294807 0.0414193)
(-0.0124765 0.295211 0.0391869)
(-0.0140664 0.300067 0.0350064)
(-0.0138159 0.313058 0.0277817)
(-0.0116093 0.340568 0.016202)
(-0.00805111 0.390151 0.00148981)
(-0.00564034 0.460896 -0.00784468)
(-0.00738193 0.542056 -0.00360399)
(-0.00939394 0.627987 0.00617624)
(-0.00800498 0.686479 0.0113389)
(-0.00547511 0.695444 0.013748)
(-0.00189442 0.59166 0.0148307)
(-0.000194555 -0.0298662 0.023951)
(0.00182626 -0.0280939 0.034594)
(0.00601376 -0.0177484 0.0382243)
(0.0124913 -0.000322607 0.0404018)
(0.0205022 0.0238331 0.0418339)
(0.0290509 0.0535476 0.043005)
(0.0369773 0.0861031 0.0447715)
(0.0432737 0.118119 0.0482355)
(0.047614 0.14805 0.0537258)
(0.0502581 0.175911 0.060367)
(0.0516262 0.201691 0.0667613)
(0.0520628 0.224947 0.0717125)
(0.0517883 0.245169 0.0746333)
(0.0509261 0.262091 0.0756005)
(0.0495365 0.275736 0.0751204)
(0.0476412 0.286317 0.0738233)
(0.0452457 0.294138 0.0722482)
(0.042357 0.299531 0.0707479)
(0.0389953 0.302828 0.0694838)
(0.0351963 0.304329 0.0684769)
(0.0310085 0.304292 0.0676816)
(0.0264886 0.302893 0.0670593)
(0.021703 0.300216 0.0666295)
(0.0167417 0.296312 0.0664398)
(0.0117606 0.291555 0.0663467)
(0.00704393 0.28738 0.0657634)
(0.00295529 0.287225 0.0635634)
(-0.000337216 0.298641 0.0575361)
(-0.00201695 0.3382 0.0434029)
(-0.000881036 0.421683 0.0211048)
(-6.35831e-06 0.534529 0.00552643)
(-0.00157959 0.630813 0.00593163)
(-0.00174272 0.681026 0.00999399)
(-0.000908988 0.686754 0.012962)
(0.000368216 0.577569 0.0145243)
(-0.000277407 -0.0498694 0.023061)
(0.00231766 -0.0710137 0.0358074)
(0.00622813 -0.0740597 0.0399782)
(0.0113541 -0.0687334 0.0422485)
(0.0181137 -0.0535264 0.0435811)
(0.0260546 -0.0256443 0.0436802)
(0.0342606 0.0153109 0.0418533)
(0.0413124 0.0621756 0.0383303)
(0.0460429 0.105285 0.0355942)
(0.0484434 0.14075 0.0358799)
(0.0493047 0.169741 0.0390239)
(0.0494226 0.194106 0.0435996)
(0.0492815 0.214824 0.0482943)
(0.0490741 0.232341 0.0523342)
(0.0488207 0.246966 0.0554362)
(0.0484772 0.25899 0.0576211)
(0.0479881 0.268678 0.059041)
(0.0473025 0.276268 0.0598685)
(0.0463791 0.281975 0.0602429)
(0.0451851 0.286005 0.0602548)
(0.043692 0.288564 0.0599526)
(0.0418689 0.28985 0.0593628)
(0.0396667 0.290039 0.0585203)
(0.0369791 0.289287 0.0575582)
(0.03362 0.287919 0.0567926)
(0.0293708 0.28723 0.0562876)
(0.0240326 0.289973 0.0559584)
(0.0175772 0.301061 0.0564531)
(0.0106416 0.33124 0.0561514)
(0.00618587 0.400008 0.0456782)
(0.00578566 0.518551 0.0254109)
(0.00448516 0.634702 0.0135434)
(0.0029476 0.689189 0.0125495)
(0.00200376 0.695548 0.0139377)
(0.00126183 0.584285 0.0141582)
(-0.000571736 -0.0659859 0.0152406)
(0.00276411 -0.114603 0.0242985)
(0.00718234 -0.129025 0.026965)
(0.0120597 -0.131373 0.0286447)
(0.0177433 -0.124705 0.0307187)
(0.0244101 -0.105388 0.0338708)
(0.0317829 -0.0660794 0.0379713)
(0.0390501 -0.00676865 0.0401128)
(0.0447032 0.058057 0.0374131)
(0.0475198 0.112104 0.0322616)
(0.0479156 0.150541 0.02865)
(0.0470824 0.177033 0.0277001)
(0.0459282 0.196405 0.0285839)
(0.0449089 0.21171 0.0303372)
(0.0441725 0.224427 0.0323492)
(0.0436907 0.23521 0.0342871)
(0.0433679 0.244362 0.0359813)
(0.0431019 0.252051 0.0373516)
(0.0427985 0.258412 0.0383602)
(0.0423708 0.26359 0.0389802)
(0.0417358 0.267773 0.0391719)
(0.0408128 0.271228 0.0388574)
(0.0395317 0.274434 0.0378602)
(0.0377892 0.278474 0.0357037)
(0.0353031 0.285298 0.0317638)
(0.0316767 0.295953 0.0271853)
(0.0267652 0.309988 0.0249379)
(0.0205495 0.328554 0.0280856)
(0.0131762 0.356447 0.03726)
(0.00665751 0.406557 0.043282)
(0.00496025 0.505115 0.0360306)
(0.0054856 0.633419 0.0227868)
(0.00444679 0.699163 0.0170738)
(0.00304312 0.708158 0.0159819)
(0.00155618 0.595308 0.0136201)
(0.000404267 -0.0839394 0.00374955)
(0.00595986 -0.15764 0.0065235)
(0.0118072 -0.180375 0.00734112)
(0.017429 -0.185622 0.00774523)
(0.0230488 -0.181446 0.00835774)
(0.0287558 -0.166517 0.00986728)
(0.0340943 -0.133182 0.0140915)
(0.038639 -0.0742506 0.0223471)
(0.0425339 0.00293978 0.0293295)
(0.0447816 0.0770429 0.0299563)
(0.0445969 0.13261 0.0263681)
(0.0430326 0.168232 0.0226289)
(0.041313 0.189993 0.0203031)
(0.0399143 0.204225 0.0191907)
(0.0388808 0.214805 0.0188527)
(0.0381592 0.223556 0.0190083)
(0.0376705 0.231234 0.0194615)
(0.0373157 0.238164 0.0200577)
(0.0369878 0.244516 0.0206722)
(0.0365787 0.250425 0.0211989)
(0.0359804 0.256054 0.0215275)
(0.035094 0.261647 0.0215005)
(0.0338696 0.267678 0.0208166)
(0.0323171 0.275401 0.0186761)
(0.0304577 0.287623 0.0132351)
(0.0281196 0.30569 0.00501364)
(0.0249209 0.327265 -0.00099822)
(0.0206421 0.351114 -0.000291757)
(0.0153344 0.378268 0.00861053)
(0.00996608 0.413753 0.0208645)
(0.00748916 0.481403 0.0276118)
(0.0082873 0.605693 0.0252688)
(0.00746873 0.69514 0.0206895)
(0.00543511 0.71314 0.0187722)
(0.00284478 0.606804 0.0145628)
(0.00183066 -0.115566 -0.00245071)
(0.00916738 -0.208334 0.00115822)
(0.0154922 -0.233359 0.00267759)
(0.0209366 -0.237243 0.00317319)
(0.0260074 -0.230629 0.00332819)
(0.0307063 -0.210154 0.00331941)
(0.0336428 -0.166441 0.00384301)
(0.0338446 -0.0991227 0.0076463)
(0.0325157 -0.0161075 0.0147266)
(0.0308414 0.0653118 0.0190814)
(0.0291583 0.127244 0.0184762)
(0.0281618 0.164814 0.0158394)
(0.0279984 0.185363 0.0133973)
(0.0283665 0.197667 0.0115573)
(0.0290575 0.206498 0.0102366)
(0.029974 0.213814 0.00935364)
(0.0310401 0.220425 0.00883169)
(0.0321883 0.226745 0.0085863)
(0.0333484 0.23303 0.00853137)
(0.0344419 0.239472 0.00858197)
(0.0353892 0.246225 0.00864696)
(0.0361228 0.25335 0.00861726)
(0.0365988 0.260727 0.00840023)
(0.036822 0.268718 0.00780454)
(0.0366701 0.280843 0.00491257)
(0.0356394 0.302602 -0.00335449)
(0.0334801 0.331985 -0.0136414)
(0.0303597 0.363202 -0.0191081)
(0.0264414 0.393378 -0.016491)
(0.0219704 0.423692 -0.00722075)
(0.017559 0.472233 0.00515898)
(0.0142824 0.584812 0.0158957)
(0.0105146 0.695162 0.0194332)
(0.00688193 0.723578 0.0190609)
(0.00327972 0.628982 0.0144791)
(0.00232665 -0.154044 -0.00227961)
(0.0080488 -0.254504 0.00400061)
(0.0121328 -0.275588 0.00610331)
(0.015273 -0.276266 0.00679486)
(0.0181367 -0.265681 0.00706403)
(0.020511 -0.233596 0.00716059)
(0.0209031 -0.16792 0.00771723)
(0.0187281 -0.0805253 0.00905181)
(0.0147954 0.00812437 0.01138)
(0.0115457 0.0810306 0.0126141)
(0.0106817 0.128157 0.0116564)
(0.0117819 0.153657 0.00986863)
(0.0139098 0.167975 0.00810069)
(0.0165928 0.177573 0.00651684)
(0.0196069 0.185102 0.00514814)
(0.0227871 0.191633 0.00399794)
(0.0260583 0.197741 0.00304177)
(0.0293797 0.20382 0.00223369)
(0.0327 0.210166 0.00151797)
(0.0359452 0.216993 0.0008479)
(0.0390013 0.224366 0.00022862)
(0.0416992 0.232178 -0.000206322)
(0.0438412 0.240826 -0.000342113)
(0.0450261 0.252933 -0.00077343)
(0.0445016 0.274281 -0.004456)
(0.0424756 0.307184 -0.0143317)
(0.0398591 0.345455 -0.026691)
(0.0368289 0.382777 -0.0351986)
(0.0331508 0.417764 -0.0366172)
(0.0283178 0.453927 -0.0304565)
(0.0212618 0.508423 -0.0166913)
(0.0132311 0.616351 0.000831078)
(0.00712696 0.720356 0.0104082)
(0.00311537 0.747001 0.0114015)
(0.000488315 0.652184 0.00739301)
(0.00117549 -0.178849 0.00160564)
(0.00327507 -0.278952 0.0115399)
(0.00471039 -0.2962 0.0143212)
(0.00578684 -0.295042 0.0149957)
(0.00674651 -0.280834 0.0147532)
(0.00739497 -0.238434 0.0136554)
(0.00757174 -0.160002 0.0133993)
(0.0070673 -0.0634395 0.0147068)
(0.00538884 0.0224126 0.0152043)
(0.00414922 0.0804832 0.0142549)
(0.00468747 0.111955 0.0127014)
(0.00644848 0.128334 0.0111953)
(0.00888929 0.138447 0.00980055)
(0.0118166 0.146072 0.00848416)
(0.0150657 0.152575 0.0072316)
(0.0185102 0.158583 0.00601891)
(0.0220831 0.164549 0.00478773)
(0.0257214 0.170888 0.00344076)
(0.0293219 0.178016 0.00184967)
(0.0326949 0.186378 -0.000117653)
(0.0355486 0.196653 -0.00257244)
(0.0374441 0.210514 -0.00583073)
(0.0377299 0.230696 -0.0105693)
(0.0359222 0.258621 -0.0168986)
(0.0327289 0.293178 -0.0247369)
(0.0297144 0.331848 -0.0342781)
(0.0274441 0.372081 -0.0439304)
(0.025321 0.412674 -0.0507191)
(0.022492 0.454953 -0.0520044)
(0.0180777 0.504852 -0.0458638)
(0.0109269 0.575382 -0.031742)
(0.00298003 0.674511 -0.0145704)
(-0.0012896 0.749466 -0.0053471)
(-0.00273278 0.763075 -0.00410314)
(-0.00240212 0.649285 -0.00679273)
(-0.000166663 -0.186189 0.00845318)
(0.000604257 -0.29183 0.0241246)
(0.00157379 -0.31147 0.028212)
(0.00246484 -0.311299 0.0290554)
(0.00346619 -0.297438 0.0283086)
(0.00464046 -0.256669 0.0252237)
(0.00602694 -0.180787 0.0211754)
(0.00791592 -0.0831128 0.0209355)
(0.00937036 0.0078993 0.0223549)
(0.00965855 0.0666301 0.0218917)
(0.00968719 0.0947737 0.0204612)
(0.00996349 0.107721 0.0191326)
(0.0105321 0.115251 0.017982)
(0.0114212 0.121049 0.0169197)
(0.0126042 0.126336 0.0158952)
(0.0140129 0.131662 0.0148372)
(0.0155777 0.137512 0.01361)
(0.01721 0.144493 0.0119803)
(0.0187665 0.153534 0.00954919)
(0.0200039 0.166381 0.00552305)
(0.0204821 0.18634 -0.00182499)
(0.0195229 0.216597 -0.0145377)
(0.0165601 0.253817 -0.030159)
(0.0122419 0.289709 -0.0419419)
(0.00831697 0.322286 -0.0487856)
(0.0058042 0.35494 -0.0537294)
(0.00474048 0.391431 -0.0582807)
(0.00454066 0.43432 -0.0619476)
(0.00414158 0.484835 -0.0627138)
(0.00263949 0.546025 -0.0574036)
(-0.000354058 0.624148 -0.0447938)
(-0.00340877 0.709093 -0.0307245)
(-0.00432149 0.758937 -0.0236624)
(-0.00387089 0.76091 -0.0220049)
(-0.00232923 0.627157 -0.0220876)
(-0.000205788 -0.192791 0.0139466)
(0.00181845 -0.311258 0.029741)
(0.00360553 -0.336167 0.0337207)
(0.00524088 -0.337358 0.0349279)
(0.00698461 -0.32389 0.0351383)
(0.00871248 -0.284443 0.0336151)
(0.00986741 -0.210341 0.0285211)
(0.0109624 -0.115403 0.0245743)
(0.012625 -0.0192401 0.0260807)
(0.0133247 0.0506631 0.028067)
(0.0124929 0.0852085 0.0281942)
(0.0113121 0.0990508 0.0276046)
(0.0102486 0.105663 0.0269529)
(0.0092952 0.110251 0.0263634)
(0.00846686 0.114453 0.0258602)
(0.00778698 0.118971 0.0253726)
(0.00722964 0.124442 0.0247193)
(0.00674411 0.131758 0.0235473)
(0.00624479 0.142572 0.0211082)
(0.00559557 0.160236 0.0155956)
(0.0045985 0.189962 0.00332539)
(0.00310793 0.233834 -0.0187869)
(0.00102355 0.282811 -0.0455935)
(-0.00186194 0.32128 -0.0639851)