/*--------------------------------*- C++ -*----------------------------------*\
| =========                 |                                                 |
| \\      /  F ield         | OpenFOAM: The Open Source CFD Toolbox           |
|  \\    /   O peration     | Version:  v1906                                 |
|   \\  /    A nd           | Web:      www.OpenFOAM.com                      |
|    \\/     M anipulation  |                                                 |
\*---------------------------------------------------------------------------*/
FoamFile
{
    version     2.0;
    format      ascii;
    class       volScalarField;
    location    "100";
    object      nut;
}
// * * * * * * * * * * * * * * * * * * * * * * * * * * * * * * * * * * * * * //

dimensions      [0 2 -1 0 0 0 0];


internalField   nonuniform List<scalar> 
78750
(
1.17432e-09
2.19229e-07
4.15673e-07
6.12617e-07
8.05118e-07
9.90977e-07
1.16887e-06
1.33757e-06
1.49589e-06
1.64274e-06
1.77726e-06
1.89875e-06
2.00671e-06
2.10089e-06
2.18085e-06
2.24568e-06
2.29518e-06
2.3291e-06
2.34708e-06
2.34868e-06
2.33314e-06
2.2994e-06
2.24634e-06
2.1726e-06
2.07673e-06
1.95746e-06
1.81338e-06
1.64399e-06
1.45065e-06
1.23552e-06
1.00048e-06
7.49457e-07
4.98512e-07
2.79227e-07
4.2641e-09
3.52499e-09
2.04256e-06
4.49103e-06
6.76298e-06
8.43744e-06
9.67038e-06
1.0678e-05
1.15818e-05
1.2448e-05
1.3318e-05
1.42187e-05
1.51667e-05
1.61887e-05
1.73306e-05
1.82293e-05
1.82944e-05
1.82842e-05
1.82063e-05
1.80673e-05
1.78726e-05
1.76255e-05
1.73263e-05
1.69733e-05
1.65616e-05
1.60828e-05
1.55277e-05
1.4379e-05
1.25793e-05
1.07872e-05
8.93806e-06
6.92902e-06
4.95913e-06
3.65007e-06
2.16806e-06
1.79612e-08
6.21232e-09
2.03534e-06
4.5698e-06
7.71181e-06
1.09478e-05
1.36891e-05
1.57675e-05
1.73122e-05
1.84861e-05
1.94052e-05
2.01425e-05
2.07397e-05
2.12192e-05
2.16017e-05
2.1912e-05
2.21518e-05
2.22541e-05
2.19496e-05
2.154e-05
2.1089e-05
2.06102e-05
1.98292e-05
1.88885e-05
1.78567e-05
1.67772e-05
1.56674e-05
1.45128e-05
1.32586e-05
1.17958e-05
1.00085e-05
7.99402e-06
6.37779e-06
5.80997e-06
2.20953e-06
3.23483e-08
9.52062e-09
1.94022e-06
4.48016e-06
8.10141e-06
1.24615e-05
1.64256e-05
1.92986e-05
2.11982e-05
2.24027e-05
2.30977e-05
2.33996e-05
2.33904e-05
2.31332e-05
2.26797e-05
2.20753e-05
2.13609e-05
2.05682e-05
1.97144e-05
1.8811e-05
1.78756e-05
1.69311e-05
1.60082e-05
1.51396e-05
1.43529e-05
1.36663e-05
1.30724e-05
1.25128e-05
1.18515e-05
1.0894e-05
9.54012e-06
8.08378e-06
7.33629e-06
7.47721e-06
2.00634e-06
4.3008e-08
1.36735e-08
1.89301e-06
4.52257e-06
8.67672e-06
1.41439e-05
1.91992e-05
2.26716e-05
2.47344e-05
2.57429e-05
2.5936e-05
2.55121e-05
2.4654e-05
2.35247e-05
2.22587e-05
2.09555e-05
1.96786e-05
1.84597e-05
1.73073e-05
1.62168e-05
1.51811e-05
1.42004e-05
1.32884e-05
1.24695e-05
1.17704e-05
1.12125e-05
1.07946e-05
1.0461e-05
1.00723e-05
9.44782e-06
8.55744e-06
7.78781e-06
7.96172e-06
7.97144e-06
1.87077e-06
5.01932e-08
1.77066e-08
1.91453e-06
4.69768e-06
9.40411e-06
1.59702e-05
2.20187e-05
2.58314e-05
2.76922e-05
2.81333e-05
2.7541e-05
2.62464e-05
2.45477e-05
2.26965e-05
2.08779e-05
1.92032e-05
1.7719e-05
1.64268e-05
1.53014e-05
1.43061e-05
1.34061e-05
1.25797e-05
1.18227e-05
1.11378e-05
1.05307e-05
1.00145e-05
9.59383e-06
9.23235e-06
8.83456e-06
8.30284e-06
7.70632e-06
7.47642e-06
8.42874e-06
7.754e-06
1.77769e-06
5.50788e-08
2.19008e-08
1.93612e-06
4.82166e-06
9.90715e-06
1.72072e-05
2.37756e-05
2.76024e-05
2.91478e-05
2.90428e-05
2.77605e-05
2.57508e-05
2.34271e-05
2.11135e-05
1.90126e-05
1.72105e-05
1.57095e-05
1.44706e-05
1.34428e-05
1.2575e-05
1.18265e-05
1.11757e-05
1.06125e-05
1.01144e-05
9.6543e-06
9.21756e-06
8.79774e-06
8.37553e-06
7.91354e-06
7.408e-06
7.00547e-06
7.14828e-06
8.63432e-06
7.26443e-06
1.71344e-06
5.89329e-08
2.53904e-08
1.96775e-06
4.9334e-06
1.02881e-05
1.81567e-05
2.51744e-05
2.89996e-05
3.02009e-05
2.9535e-05
2.76121e-05
2.5022e-05
2.22761e-05
1.9725e-05
1.75354e-05
1.5737e-05
1.42919e-05
1.31399e-05
1.22186e-05
1.1473e-05
1.08657e-05
1.03795e-05
9.99148e-06
9.64592e-06
9.28406e-06
8.86933e-06
8.3921e-06
7.85873e-06
7.29143e-06
6.76192e-06
6.46128e-06
6.82532e-06
8.62684e-06
6.82769e-06
1.67142e-06
6.28491e-08
2.88381e-08
1.98841e-06
4.98961e-06
1.04908e-05
1.86768e-05
2.5866e-05
2.95577e-05
3.04469e-05
2.93759e-05
2.70474e-05
2.41367e-05
2.11973e-05
1.85657e-05
1.63651e-05
1.45868e-05
1.31722e-05
1.20562e-05
1.11811e-05
1.05016e-05
9.9951e-06
9.65834e-06
9.45356e-06
9.29322e-06
9.07819e-06
8.73055e-06
8.22249e-06
7.58707e-06
6.91106e-06
6.33271e-06
6.07198e-06
6.55229e-06
8.51159e-06
6.46101e-06
1.64158e-06
6.72821e-08
3.19621e-08
2.0107e-06
5.04006e-06
1.06445e-05
1.90695e-05
2.64224e-05
3.00347e-05
3.0673e-05
2.927e-05
2.66283e-05
2.34992e-05
2.04539e-05
1.77971e-05
1.56096e-05
1.38544e-05
1.24596e-05
1.13572e-05
1.04954e-05
9.83979e-06
9.3827e-06
9.13513e-06
9.05033e-06
9.02493e-06
8.93228e-06
8.65624e-06
8.14197e-06
7.43401e-06
6.67034e-06
6.04306e-06
5.79267e-06
6.33282e-06
8.37122e-06
6.16444e-06
1.62022e-06
7.21611e-08
3.51251e-08
2.02583e-06
5.06665e-06
1.07335e-05
1.93019e-05
2.6699e-05
3.01824e-05
3.06069e-05
2.89722e-05
2.61427e-05
2.29063e-05
1.98282e-05
1.71801e-05
1.50124e-05
1.32722e-05
1.18834e-05
1.07796e-05
9.91355e-06
9.26256e-06
8.83562e-06
8.65439e-06
8.66551e-06
8.75671e-06
8.77969e-06
8.58431e-06
8.08888e-06
7.3423e-06
6.51933e-06
5.85433e-06
5.60616e-06
6.18451e-06
8.27042e-06
5.9132e-06
1.60436e-06
7.72972e-08
3.8343e-08
2.04428e-06
5.10464e-06
1.08446e-05
1.95536e-05
2.6991e-05
3.0362e-05
3.05986e-05
2.87664e-05
2.57898e-05
2.24836e-05
1.93974e-05
1.67691e-05
1.46229e-05
1.28934e-05
1.15016e-05
1.03839e-05
9.49888e-06
8.83076e-06
8.40194e-06
8.246e-06
8.30792e-06
8.47364e-06
8.58294e-06
8.46079e-06
8.00133e-06
7.25029e-06
6.40379e-06
5.7235e-06
5.48343e-06
6.0973e-06
8.22435e-06
5.70247e-06
1.59357e-06
8.24947e-08
4.15863e-08
2.05888e-06
5.13341e-06
1.09331e-05
1.97465e-05
2.71775e-05
3.04209e-05
3.04905e-05
2.85062e-05
2.54342e-05
2.20995e-05
1.9029e-05
1.64305e-05
1.4308e-05
1.25886e-05
1.1193e-05
1.00605e-05
9.15446e-06
8.46635e-06
8.02871e-06
7.88286e-06
7.97403e-06
8.18911e-06
8.36149e-06
8.30022e-06
7.88232e-06
7.149e-06
6.30729e-06
5.63388e-06
5.41419e-06
6.0714e-06
8.23981e-06
5.52174e-06
1.58685e-06
8.76178e-08
4.50111e-08
2.07711e-06
5.17554e-06
1.10561e-05
1.99908e-05
2.74057e-05
3.05157e-05
3.0426e-05
2.83093e-05
2.5167e-05
2.18241e-05
1.87801e-05
1.62139e-05
1.41133e-05
1.23997e-05
1.09946e-05
9.84054e-06
8.90551e-06
8.18672e-06
7.72482e-06
7.56902e-06
7.66467e-06
7.90155e-06
8.11172e-06
8.0967e-06
7.72264e-06
7.02476e-06
6.21188e-06
5.56608e-06
5.38005e-06
6.09009e-06
8.30224e-06
5.37328e-06
1.58441e-06
9.26206e-08
4.84085e-08
2.09306e-06
5.21318e-06
1.11674e-05
2.02026e-05
2.75826e-05
3.05611e-05
3.03291e-05
2.81052e-05
2.49175e-05
2.15837e-05
1.85751e-05
1.60451e-05
1.3968e-05
1.22617e-05
1.08485e-05
9.67393e-06
8.71004e-06
7.95906e-06
7.46824e-06
7.29435e-06
7.38352e-06
7.62639e-06
7.85728e-06
7.87552e-06
7.54234e-06
6.88859e-06
6.12003e-06
5.51719e-06
5.3772e-06
6.15115e-06
8.40535e-06
5.24865e-06
1.5852e-06
9.74623e-08
5.19901e-08
2.11184e-06
5.2606e-06
1.1305e-05
2.04554e-05
2.77919e-05
3.06336e-05
3.02681e-05
2.79555e-05
2.47413e-05
2.14287e-05
1.84597e-05
1.5965e-05
1.39087e-05
1.22063e-05
1.07811e-05
9.58145e-06
8.58293e-06
7.7923e-06
7.26088e-06
7.05395e-06
7.12037e-06
7.35302e-06
7.5891e-06
7.63092e-06
7.33841e-06
6.73723e-06
6.02534e-06
5.47707e-06
5.39263e-06
6.23916e-06
8.53376e-06
5.15084e-06
1.58943e-06
1.02167e-07
5.55196e-08
2.12926e-06
5.3061e-06
1.1437e-05
2.06891e-05
2.79727e-05
3.06843e-05
3.0199e-05
2.78132e-05
2.4585e-05
2.13007e-05
1.83746e-05
1.59175e-05
1.38846e-05
1.2189e-05
1.07547e-05
9.53187e-06
8.49956e-06
7.66844e-06
7.09307e-06
6.84694e-06
6.88233e-06
7.09481e-06
7.32584e-06
7.38253e-06
7.12718e-06
6.58134e-06
5.93283e-06
5.44687e-06
5.42572e-06
6.35261e-06
8.68063e-06
5.07088e-06
1.59588e-06
1.06721e-07
5.92087e-08
2.14872e-06
5.35834e-06
1.15876e-05
2.09519e-05
2.8178e-05
3.07603e-05
3.01666e-05
2.77236e-05
2.44937e-05
2.1243e-05
1.83596e-05
1.59379e-05
1.3926e-05
1.22352e-05
1.07896e-05
9.54096e-06
8.47095e-06
7.59317e-06
6.9649e-06
6.66752e-06
6.65937e-06
6.83939e-06
7.05517e-06
7.12109e-06
6.90276e-06
6.41643e-06
5.83732e-06
5.4197e-06
5.4676e-06
6.48061e-06
8.83747e-06
5.0114e-06
1.60486e-06
1.11155e-07
6.28434e-08
2.16732e-06
5.41023e-06
1.17379e-05
2.12067e-05
2.83697e-05
3.08285e-05
3.01355e-05
2.76431e-05
2.44162e-05
2.12011e-05
1.83623e-05
1.59788e-05
1.39922e-05
1.23112e-05
1.0859e-05
9.58821e-06
8.48255e-06
7.55811e-06
6.87485e-06
6.52093e-06
6.46253e-06
6.60223e-06
6.79452e-06
6.86289e-06
6.67802e-06
6.25101e-06
5.74327e-06
5.39719e-06
5.5185e-06
6.62262e-06
8.99964e-06
4.96459e-06
1.61524e-06
1.15449e-07
6.66119e-08
2.18729e-06
5.46689e-06
1.19023e-05
2.14849e-05
2.85839e-05
3.09235e-05
3.01416e-05
2.76105e-05
2.43925e-05
2.12134e-05
1.8417e-05
1.60696e-05
1.41071e-05
1.24356e-05
1.09769e-05
9.68363e-06
8.54056e-06
7.56574e-06
6.82115e-06
6.40121e-06
6.28308e-06
6.37364e-06
6.53512e-06
6.60125e-06
6.4483e-06
6.0814e-06
5.64691e-06
5.37451e-06
5.57166e-06
6.76966e-06
9.16135e-06
4.93131e-06
1.6271e-06
1.19629e-07
7.03296e-08
2.20648e-06
5.5235e-06
1.20694e-05
2.17641e-05
2.87966e-05
3.10209e-05
3.01535e-05
2.75846e-05
2.43746e-05
2.12315e-05
1.84794e-05
1.61723e-05
1.42397e-05
1.25842e-05
1.11254e-05
9.81485e-06
8.63734e-06
7.61269e-06
6.80517e-06
6.31432e-06
6.13062e-06
6.1657e-06
6.28994e-06
6.34812e-06
6.22296e-06
5.91391e-06
5.55207e-06
5.35451e-06
5.63041e-06
6.92568e-06
9.32383e-06
4.90765e-06
1.63996e-06
1.23677e-07
7.41587e-08
2.22633e-06
5.58313e-06
1.2248e-05
2.20662e-05
2.90366e-05
3.11498e-05
3.02009e-05
2.75968e-05
2.43952e-05
2.12865e-05
1.85767e-05
1.63087e-05
1.44063e-05
1.27683e-05
1.13118e-05
9.98595e-06
8.77479e-06
7.69902e-06
6.82478e-06
6.25561e-06
5.99915e-06
5.9722e-06
6.05358e-06
6.09942e-06
5.99895e-06
5.7457e-06
5.4553e-06
5.33218e-06
5.68737e-06
7.08084e-06
9.4794e-06
4.89085e-06
1.6532e-06
1.27597e-07
7.79436e-08
2.24529e-06
5.64204e-06
1.2428e-05
2.23701e-05
2.9272e-05
3.12773e-05
3.02507e-05
2.76087e-05
2.44136e-05
2.13403e-05
1.8676e-05
1.64519e-05
1.45857e-05
1.29723e-05
1.15252e-05
1.01902e-05
8.94942e-06
7.82378e-06
6.88141e-06
6.22959e-06
5.89542e-06
5.80135e-06
5.83484e-06
5.86342e-06
5.7831e-06
5.58194e-06
5.36064e-06
5.31147e-06
5.74761e-06
7.24221e-06
9.63421e-06
4.88112e-06
1.66712e-06
1.31377e-07
8.18183e-08
2.2646e-06
5.70262e-06
1.26128e-05
2.26762e-05
2.95023e-05
3.14026e-05
3.031e-05
2.76392e-05
2.44548e-05
2.14169e-05
1.87968e-05
1.66159e-05
1.47867e-05
1.32005e-05
1.17668e-05
1.04269e-05
9.15985e-06
7.98545e-06
6.97316e-06
6.23374e-06
5.81634e-06
5.64999e-06
5.6309e-06
5.63787e-06
5.57356e-06
5.42076e-06
5.26572e-06
5.2889e-06
5.80558e-06
7.40119e-06
9.78025e-06
4.87469e-06
1.68083e-06
1.35005e-07
8.56559e-08
2.28335e-06
5.76349e-06
1.27997e-05
2.2974e-05
2.97189e-05
3.1515e-05
3.03577e-05
2.76687e-05
2.44942e-05
2.14906e-05
1.89168e-05
1.67835e-05
1.4997e-05
1.34445e-05
1.20311e-05
1.06932e-05
9.40524e-06
8.18479e-06
7.10226e-06
6.27224e-06
5.76709e-06
5.52402e-06
5.4479e-06
5.42852e-06
5.37511e-06
5.26578e-06
5.17327e-06
5.26696e-06
5.8644e-06
7.5621e-06
9.92078e-06
4.87123e-06
1.69453e-06
1.38468e-07
8.95535e-08
2.30199e-06
5.82556e-06
1.29936e-05
2.32701e-05
2.99294e-05
3.16222e-05
3.04033e-05
2.76995e-05
2.45389e-05
2.15727e-05
1.90466e-05
1.69616e-05
1.52194e-05
1.37039e-05
1.23156e-05
1.09854e-05
9.68218e-06
8.41951e-06
7.26762e-06
6.34486e-06
5.74748e-06
5.4231e-06
5.28545e-06
5.23504e-06
5.18747e-06
5.11664e-06
5.08271e-06
5.24461e-06
5.92256e-06
7.72467e-06
1.00629e-05
4.87234e-06
1.70818e-06
1.41761e-07
9.34048e-08
2.31973e-06
5.88555e-06
1.31823e-05
2.3555e-05
3.01251e-05
3.17158e-05
3.04369e-05
2.77207e-05
2.45785e-05
2.16519e-05
1.91751e-05
1.71414e-05
1.54479e-05
1.39749e-05
1.26182e-05
1.13026e-05
9.99041e-06
8.69017e-06
7.4711e-06
6.45539e-06
5.76208e-06
5.35217e-06
5.14845e-06
5.06184e-06
5.0142e-06
4.97585e-06
4.99549e-06
5.22256e-06
5.98058e-06
7.88909e-06
1.02003e-05
4.87523e-06
1.72146e-06
1.44871e-07
9.72893e-08
2.33754e-06
5.94634e-06
1.33735e-05
2.38384e-05
3.03147e-05
3.18031e-05
3.04648e-05
2.77377e-05
2.4622e-05
2.17334e-05
1.93044e-05
1.73229e-05
1.56809e-05
1.42543e-05
1.29344e-05
1.164e-05
1.03258e-05
8.99409e-06
7.7118e-06
6.60464e-06
5.81184e-06
5.31202e-06
5.03763e-06
4.9096e-06
4.85589e-06
4.84397e-06
4.91234e-06
5.20207e-06
6.04129e-06
8.06149e-06
1.03393e-05
4.8852e-06
1.73531e-06
1.47807e-07
1.01124e-07
2.35471e-06
6.00582e-06
1.35614e-05
2.41113e-05
3.04898e-05
3.18755e-05
3.04775e-05
2.7739e-05
2.46497e-05
2.18028e-05
1.94267e-05
1.75025e-05
1.59167e-05
1.45416e-05
1.32643e-05
1.19975e-05
1.06881e-05
9.33104e-06
7.99018e-06
6.7944e-06
5.89949e-06
5.30599e-06
4.95649e-06
4.78159e-06
4.71532e-06
4.72308e-06
4.83459e-06
5.18378e-06
6.10429e-06
8.23888e-06
1.04783e-05
4.89983e-06
1.74962e-06
1.50567e-07
1.04966e-07
2.37194e-06
6.06593e-06
1.37508e-05
2.43814e-05
3.06578e-05
3.19398e-05
3.04816e-05
2.77321e-05
2.46701e-05
2.18664e-05
1.95445e-05
1.76792e-05
1.61521e-05
1.48321e-05
1.36025e-05
1.23699e-05
1.10727e-05
9.69755e-06
8.30383e-06
7.02294e-06
6.02439e-06
5.33426e-06
4.90568e-06
4.6787e-06
4.59343e-06
4.61409e-06
4.76305e-06
5.16828e-06
6.16935e-06
8.41932e-06
1.06169e-05
4.91831e-06
1.76425e-06
1.53154e-07
1.08762e-07
2.3889e-06
6.12564e-06
1.39378e-05
2.46416e-05
3.08114e-05
3.19881e-05
3.04688e-05
2.7708e-05
2.46748e-05
2.19176e-05
1.96537e-05
1.7851e-05
1.63863e-05
1.51258e-05
1.3949e-05
1.27566e-05
1.14785e-05
1.00922e-05
8.6512e-06
7.28877e-06
6.18629e-06
5.3976e-06
4.88673e-06
4.60286e-06
4.49224e-06
4.51881e-06
4.69903e-06
5.15603e-06
6.23588e-06
8.60142e-06
1.0754e-05
4.9398e-06
1.77906e-06
1.55573e-07
1.12549e-07
2.40606e-06
6.18668e-06
1.41258e-05
2.48973e-05
3.09554e-05
3.20247e-05
3.04429e-05
2.76705e-05
2.46669e-05
2.19582e-05
1.97542e-05
1.80158e-05
1.66158e-05
1.54179e-05
1.42986e-05
1.31526e-05
1.19011e-05
1.05111e-05
9.02927e-06
7.58931e-06
6.38361e-06
5.49512e-06
4.89925e-06
4.55419e-06
4.41224e-06
4.43781e-06
4.64284e-06
5.14683e-06
6.30304e-06
8.78292e-06
1.08886e-05
4.96363e-06
1.7939e-06
1.57831e-07
1.16296e-07
2.42312e-06
6.24916e-06
1.43109e-05
2.51424e-05
3.10845e-05
3.20447e-05
3.03989e-05
2.76149e-05
2.46427e-05
2.19865e-05
1.98453e-05
1.81735e-05
1.68406e-05
1.57086e-05
1.46509e-05
1.35567e-05
1.23384e-05
1.09519e-05
9.43566e-06
7.92264e-06
6.61544e-06
5.62664e-06
4.94358e-06
4.53345e-06
4.35454e-06
4.37245e-06
4.59605e-06
5.14289e-06
6.37435e-06
8.96415e-06
1.10212e-05
4.98947e-06
1.80868e-06
1.59935e-07
1.19994e-07
2.43936e-06
6.30976e-06
1.44947e-05
2.53808e-05
3.12016e-05
3.20509e-05
3.03407e-05
2.75446e-05
2.46044e-05
2.20051e-05
1.99267e-05
1.83217e-05
1.70578e-05
1.59944e-05
1.5002e-05
1.39647e-05
1.27861e-05
1.14106e-05
9.86686e-06
8.28599e-06
6.88003e-06
5.7911e-06
5.01912e-06
4.54046e-06
4.31943e-06
4.32348e-06
4.55962e-06
5.14467e-06
6.44848e-06
9.14519e-06
1.11527e-05
5.01719e-06
1.82336e-06
1.61893e-07
1.23618e-07
2.45513e-06
6.36879e-06
1.46738e-05
2.56096e-05
3.13052e-05
3.20392e-05
3.02612e-05
2.74534e-05
2.45473e-05
2.20071e-05
1.99949e-05
1.84601e-05
1.72678e-05
1.62756e-05
1.53516e-05
1.43752e-05
1.32415e-05
1.18836e-05
1.03193e-05
8.6764e-06
7.17555e-06
5.98761e-06
5.12561e-06
4.5754e-06
4.3075e-06
4.29175e-06
4.5344e-06
5.15255e-06
6.52477e-06
9.32512e-06
1.12831e-05
5.04663e-06
1.83791e-06
1.63712e-07
1.27188e-07
2.47016e-06
6.42688e-06
1.48537e-05
2.5833e-05
3.13977e-05
3.20157e-05
3.01704e-05
2.735e-05
2.44752e-05
2.19923e-05
2.00484e-05
1.85866e-05
1.74681e-05
1.65492e-05
1.56962e-05
1.47843e-05
1.37006e-05
1.23665e-05
1.07886e-05
9.08997e-06
7.49904e-06
6.21406e-06
5.26173e-06
4.63762e-06
4.31875e-06
4.27786e-06
4.52133e-06
5.16742e-06
6.60379e-06
9.50431e-06
1.14129e-05
5.07768e-06
1.85233e-06
1.65401e-07
1.30705e-07
2.48493e-06
6.48436e-06
1.50311e-05
2.60464e-05
3.14761e-05
3.19759e-05
3.00617e-05
2.72298e-05
2.43904e-05
2.19681e-05
2.00918e-05
1.87021e-05
1.76594e-05
1.6816e-05
1.6036e-05
1.51912e-05
1.41615e-05
1.28567e-05
1.12715e-05
9.52356e-06
7.84795e-06
6.46862e-06
5.42626e-06
4.72651e-06
4.35309e-06
4.28213e-06
4.52093e-06
5.18969e-06
6.68561e-06
9.68243e-06
1.15423e-05
5.1102e-06
1.8666e-06
1.66971e-07
1.34143e-07
2.49889e-06
6.53992e-06
1.52047e-05
2.62491e-05
3.15403e-05
3.19207e-05
2.99368e-05
2.70928e-05
2.42883e-05
2.19278e-05
2.01231e-05
1.88082e-05
1.78405e-05
1.70741e-05
1.63693e-05
1.55938e-05
1.46212e-05
1.33505e-05
1.17642e-05
9.97353e-06
8.21919e-06
6.7488e-06
5.6173e-06
4.84083e-06
4.41006e-06
4.30481e-06
4.53397e-06
5.22044e-06
6.77135e-06
9.86045e-06
1.1672e-05
5.14418e-06
1.88074e-06
1.68433e-07
1.37513e-07
2.51239e-06
6.59432e-06
1.5375e-05
2.64416e-05
3.15909e-05
3.18503e-05
2.97964e-05
2.69416e-05
2.41738e-05
2.18764e-05
2.01445e-05
1.89057e-05
1.80146e-05
1.73233e-05
1.66947e-05
1.59909e-05
1.5078e-05
1.38453e-05
1.22634e-05
1.04366e-05
8.60992e-06
7.05232e-06
5.8331e-06
4.97925e-06
4.4888e-06
4.34558e-06
4.56059e-06
5.26005e-06
6.86138e-06
1.00385e-05
1.18024e-05
5.17962e-06
1.89478e-06
1.69802e-07
1.40804e-07
2.52516e-06
6.64679e-06
1.55408e-05
2.66223e-05
3.16261e-05
3.17626e-05
2.96375e-05
2.6772e-05
2.4042e-05
2.18095e-05
2.01526e-05
1.89923e-05
1.81798e-05
1.75659e-05
1.70118e-05
1.63806e-05
1.55302e-05
1.43388e-05
1.27664e-05
1.09096e-05
9.01726e-06
7.37683e-06
6.07181e-06
5.14047e-06
4.58858e-06
4.40431e-06
4.60121e-06
5.30935e-06
6.95671e-06
1.02174e-05
1.19343e-05
5.21653e-06
1.90873e-06
1.71088e-07
1.44011e-07
2.5373e-06
6.69754e-06
1.57023e-05
2.67922e-05
3.16475e-05
3.16595e-05
2.94629e-05
2.65879e-05
2.38974e-05
2.17311e-05
2.01508e-05
1.90698e-05
1.83365e-05
1.78008e-05
1.73226e-05
1.67622e-05
1.59747e-05
1.48277e-05
1.32692e-05
1.13889e-05
9.43808e-06
7.71986e-06
6.33148e-06
5.32297e-06
4.70831e-06
4.4804e-06
4.65575e-06
5.36866e-06
7.05794e-06
1.0398e-05
1.20682e-05
5.25507e-06
1.92265e-06
1.72307e-07
1.47131e-07
2.54872e-06
6.74635e-06
1.58592e-05
2.69503e-05
3.1653e-05
3.15379e-05
2.92688e-05
2.63853e-05
2.3736e-05
2.16379e-05
2.01361e-05
1.91362e-05
1.84837e-05
1.80272e-05
1.76259e-05
1.71375e-05
1.64124e-05
1.53109e-05
1.377e-05
1.18719e-05
9.86974e-06
8.07922e-06
6.61047e-06
5.52553e-06
4.84718e-06
4.57348e-06
4.72423e-06
5.43838e-06
7.16563e-06
1.05805e-05
1.22045e-05
5.29522e-06
1.93656e-06
1.73472e-07
1.50171e-07
2.55959e-06
6.79366e-06
1.60124e-05
2.70978e-05
3.16442e-05
3.14002e-05
2.90589e-05
2.61686e-05
2.35624e-05
2.15337e-05
2.01115e-05
1.91933e-05
1.86217e-05
1.82446e-05
1.79199e-05
1.75033e-05
1.68405e-05
1.5785e-05
1.42647e-05
1.23547e-05
1.03089e-05
8.45234e-06
6.9069e-06
5.7468e-06
5.00422e-06
4.68296e-06
4.80655e-06
5.51886e-06
7.28057e-06
1.07662e-05
1.23443e-05
5.33725e-06
1.95056e-06
1.74598e-07
1.53121e-07
2.56975e-06
6.83902e-06
1.61609e-05
2.72331e-05
3.1619e-05
3.12439e-05
2.88301e-05
2.5935e-05
2.33741e-05
2.14166e-05
2.00755e-05
1.92402e-05
1.87504e-05
1.84531e-05
1.82052e-05
1.78601e-05
1.72592e-05
1.62493e-05
1.47515e-05
1.28345e-05
1.07525e-05
8.83661e-06
7.21889e-06
5.98557e-06
5.17867e-06
4.8084e-06
4.90247e-06
5.61009e-06
7.40292e-06
1.09551e-05
1.24878e-05
5.38111e-06
1.96465e-06
1.75695e-07
1.55993e-07
2.57939e-06
6.88299e-06
1.63058e-05
2.73576e-05
3.15791e-05
3.10711e-05
2.85857e-05
2.56881e-05
2.31748e-05
2.12898e-05
2.00307e-05
1.92783e-05
1.88698e-05
1.86517e-05
1.848e-05
1.82054e-05
1.76653e-05
1.67006e-05
1.52261e-05
1.33073e-05
1.1197e-05
9.22909e-06
7.54425e-06
6.24041e-06
5.36976e-06
4.94952e-06
5.01222e-06
5.71277e-06
7.53383e-06
1.11486e-05
1.2636e-05
5.42705e-06
1.97892e-06
1.76776e-07
1.58773e-07
2.58829e-06
6.92479e-06
1.64451e-05
2.74688e-05
3.15223e-05
3.08799e-05
2.83239e-05
2.54268e-05
2.29639e-05
2.11532e-05
1.99772e-05
1.93082e-05
1.89811e-05
1.88418e-05
1.87453e-05
1.85401e-05
1.80593e-05
1.71385e-05
1.56876e-05
1.37693e-05
1.16382e-05
9.62591e-06
7.8801e-06
6.50947e-06
5.57641e-06
5.10574e-06
5.13548e-06
5.82679e-06
7.67347e-06
1.13472e-05
1.27888e-05
5.47501e-06
1.99339e-06
1.7785e-07
1.61473e-07
2.5966e-06
6.96492e-06
1.65801e-05
2.75685e-05
3.14502e-05
3.06719e-05
2.80466e-05
2.51532e-05
2.27433e-05
2.10087e-05
1.99166e-05
1.9331e-05
1.90845e-05
1.90227e-05
1.89999e-05
1.88622e-05
1.84387e-05
1.75604e-05
1.61334e-05
1.42194e-05
1.20737e-05
1.0024e-05
8.22346e-06
6.79055e-06
5.7975e-06
5.27691e-06
5.27287e-06
5.95336e-06
7.82352e-06
1.15525e-05
1.29469e-05
5.52506e-06
2.0081e-06
1.78925e-07
1.6408e-07
2.60413e-06
7.00273e-06
1.67092e-05
2.76546e-05
3.1361e-05
3.04453e-05
2.77526e-05
2.48666e-05
2.25132e-05
2.08568e-05
1.98501e-05
1.93484e-05
1.9182e-05
1.91966e-05
1.92457e-05
1.91729e-05
1.88039e-05
1.79656e-05
1.65618e-05
1.46545e-05
1.25005e-05
1.04204e-05
8.57153e-06
7.08122e-06
6.0311e-06
5.46175e-06
5.42378e-06
6.09256e-06
7.98469e-06
1.17658e-05
1.31103e-05
5.57728e-06
2.02311e-06
1.80008e-07
1.66609e-07
2.61101e-06
7.03869e-06
1.68336e-05
2.77287e-05
3.12557e-05
3.0201e-05
2.74427e-05
2.45679e-05
2.22744e-05
2.06985e-05
1.97786e-05
1.93611e-05
1.92745e-05
1.93642e-05
1.94829e-05
1.94723e-05
1.91545e-05
1.83533e-05
1.69713e-05
1.50726e-05
1.29157e-05
1.08114e-05
8.9209e-06
7.37894e-06
6.27573e-06
5.65971e-06
5.58836e-06
6.24506e-06
8.15852e-06
1.19886e-05
1.32793e-05
5.63156e-06
2.03842e-06
1.81103e-07
1.69059e-07
2.61719e-06
7.07261e-06
1.69529e-05
2.77899e-05
3.11328e-05
2.99373e-05
2.71157e-05
2.42566e-05
2.2027e-05
2.05344e-05
1.97033e-05
1.93711e-05
1.93643e-05
1.95279e-05
1.9714e-05
1.97623e-05
1.94918e-05
1.87238e-05
1.73615e-05
1.54725e-05
1.33174e-05
1.1195e-05
9.26903e-06
7.68101e-06
6.52901e-06
5.86912e-06
5.76606e-06
6.4119e-06
8.34621e-06
1.22227e-05
1.34538e-05
5.68807e-06
2.05411e-06
1.82213e-07
1.71442e-07
2.62278e-06
7.10493e-06
1.70683e-05
2.78394e-05
3.09927e-05
2.96542e-05
2.67718e-05
2.3933e-05
2.17711e-05
2.03646e-05
1.96243e-05
1.93787e-05
1.94519e-05
1.96888e-05
1.99403e-05
2.00441e-05
1.98166e-05
1.90775e-05
1.77322e-05
1.58533e-05
1.37042e-05
1.15692e-05
9.61393e-06
7.98568e-06
6.78959e-06
6.08917e-06
5.95666e-06
6.59325e-06
8.54886e-06
1.24692e-05
1.36337e-05
5.74669e-06
2.07021e-06
1.83341e-07
1.73763e-07
2.6278e-06
7.13575e-06
1.71799e-05
2.78765e-05
3.08341e-05
2.93504e-05
2.64103e-05
2.35969e-05
2.15072e-05
2.01899e-05
1.95427e-05
1.93852e-05
1.95392e-05
1.9849e-05
2.01641e-05
2.032e-05
2.01308e-05
1.94157e-05
1.80838e-05
1.62146e-05
1.40747e-05
1.19319e-05
9.95329e-06
8.29067e-06
7.05564e-06
6.31864e-06
6.15951e-06
6.78907e-06
8.76761e-06
1.27294e-05
1.38193e-05
5.80766e-06
2.08679e-06
1.84489e-07
1.76034e-07
2.63234e-06
7.16538e-06
1.72886e-05
2.79019e-05
3.06571e-05
2.9026e-05
2.60314e-05
2.32487e-05
2.12356e-05
2.00103e-05
1.94583e-05
1.93903e-05
1.9626e-05
2.00086e-05
2.03861e-05
2.05912e-05
2.04359e-05
1.97399e-05
1.84176e-05
1.65572e-05
1.44288e-05
1.22827e-05
1.02861e-05
8.59487e-06
7.3259e-06
6.55637e-06
6.37379e-06
6.99915e-06
9.00292e-06
1.30041e-05
1.40098e-05
5.87086e-06
2.10388e-06
1.85659e-07
1.78254e-07
2.63644e-06
7.19393e-06
1.73945e-05
2.79149e-05
3.04606e-05
2.86803e-05
2.56354e-05
2.28892e-05
2.0957e-05
1.98272e-05
1.93723e-05
1.9395e-05
1.9713e-05
2.01686e-05
2.06075e-05
2.08593e-05
2.07336e-05
2.00515e-05
1.87347e-05
1.68814e-05
1.47659e-05
1.26199e-05
1.06105e-05
8.89628e-06
7.5988e-06
6.8014e-06
6.59916e-06
7.2237e-06
9.25557e-06
1.32942e-05
1.42055e-05
5.93639e-06
2.12153e-06
1.86854e-07
1.80431e-07
2.64011e-06
7.22152e-06
1.74979e-05
2.79157e-05
3.02448e-05
2.83138e-05
2.52229e-05
2.25189e-05
2.0672e-05
1.96417e-05
1.92847e-05
1.93984e-05
1.97993e-05
2.03283e-05
2.08281e-05
2.11246e-05
2.10248e-05
2.03522e-05
1.9037e-05
1.71895e-05
1.50877e-05
1.29444e-05
1.09262e-05
9.19411e-06
7.87316e-06
7.05225e-06
6.83451e-06
7.46239e-06
9.52603e-06
1.36004e-05
1.44059e-05
6.00416e-06
2.13976e-06
1.88075e-07
1.82563e-07
2.64341e-06
7.24825e-06
1.75988e-05
2.7904e-05
3.00093e-05
2.79268e-05
2.47954e-05
2.21392e-05
2.03813e-05
1.94534e-05
1.91953e-05
1.94005e-05
1.98851e-05
2.0488e-05
2.10483e-05
2.13875e-05
2.13104e-05
2.0643e-05
1.9326e-05
1.74827e-05
1.53944e-05
1.32556e-05
1.12323e-05
9.48709e-06
8.14783e-06
7.30831e-06
7.07951e-06
7.71509e-06
9.81436e-06
1.39226e-05
1.4611e-05
6.07421e-06
2.15861e-06
1.89327e-07
1.84653e-07
2.64632e-06
7.27417e-06
1.76974e-05
2.78796e-05
2.97541e-05
2.75201e-05
2.43541e-05
2.17516e-05
2.00855e-05
1.92612e-05
1.91028e-05
1.94005e-05
1.99697e-05
2.06471e-05
2.12676e-05
2.16481e-05
2.15909e-05
2.09256e-05
1.96043e-05
1.77644e-05
1.56885e-05
1.35549e-05
1.15291e-05
9.77472e-06
8.42181e-06
7.56838e-06
7.33286e-06
7.98118e-06
1.01206e-05
1.42609e-05
1.482e-05
6.14625e-06
2.17804e-06
1.9061e-07
1.86701e-07
2.6489e-06
7.29944e-06
1.7794e-05
2.78425e-05
2.94795e-05
2.7095e-05
2.39012e-05
2.13583e-05
1.97871e-05
1.90677e-05
1.90094e-05
1.93998e-05
2.00538e-05
2.08056e-05
2.14856e-05
2.19056e-05
2.18656e-05
2.11998e-05
1.98729e-05
1.80369e-05
1.59716e-05
1.38427e-05
1.18162e-05
1.00561e-05
8.69393e-06
7.83143e-06
7.59433e-06
8.26054e-06
1.04448e-05
1.4615e-05
1.50325e-05
6.22029e-06
2.19808e-06
1.91927e-07
1.88707e-07
2.65114e-06
7.32405e-06
1.78884e-05
2.77921e-05
2.91855e-05
2.66526e-05
2.34385e-05
2.09605e-05
1.94862e-05
1.88718e-05
1.89136e-05
1.93969e-05
2.0136e-05
2.09624e-05
2.17015e-05
2.21597e-05
2.21348e-05
2.14665e-05
2.0134e-05
1.83032e-05
1.62463e-05
1.41213e-05
1.2095e-05
1.03318e-05
8.96401e-06
8.09664e-06
7.86244e-06
8.55132e-06
1.07855e-05
1.49831e-05
1.52473e-05
6.29579e-06
2.21863e-06
1.93281e-07
1.90669e-07
2.65309e-06
7.34809e-06
1.79805e-05
2.77285e-05
2.88732e-05
2.61956e-05
2.29692e-05
2.05614e-05
1.91855e-05
1.8676e-05
1.8817e-05
1.93924e-05
2.02163e-05
2.11169e-05
2.19141e-05
2.24088e-05
2.23968e-05
2.17243e-05
2.03861e-05
1.85622e-05
1.6512e-05
1.43903e-05
1.23652e-05
1.06013e-05
9.23137e-06
8.36342e-06
8.13723e-06
8.85456e-06
1.11424e-05
1.53648e-05
1.54644e-05
6.37287e-06
2.23974e-06
1.94674e-07
1.92583e-07
2.65467e-06
7.3713e-06
1.80696e-05
2.76509e-05
2.85429e-05
2.57254e-05
2.24953e-05
2.01625e-05
1.88857e-05
1.848e-05
1.87187e-05
1.93852e-05
2.02932e-05
2.12676e-05
2.21224e-05
2.26522e-05
2.26512e-05
2.19731e-05
2.06292e-05
1.88133e-05
1.67691e-05
1.46504e-05
1.26273e-05
1.08646e-05
9.49551e-06
8.63066e-06
8.41698e-06
9.16822e-06
1.15142e-05
1.57575e-05
1.56813e-05
6.45063e-06
2.26122e-06
1.96107e-07
1.94441e-07
2.65586e-06
7.39344e-06
1.81547e-05
2.75592e-05
2.81962e-05
2.52453e-05
2.20202e-05
1.97668e-05
1.85895e-05
1.82859e-05
1.86201e-05
1.93757e-05
2.03663e-05
2.14132e-05
2.23242e-05
2.28876e-05
2.28958e-05
2.22109e-05
2.08613e-05
1.90541e-05
1.70156e-05
1.49006e-05
1.28812e-05
1.11221e-05
9.75681e-06
8.89867e-06
8.70181e-06
9.49214e-06
1.19005e-05
1.61603e-05
1.58983e-05
6.52881e-06
2.28301e-06
1.97574e-07
1.96231e-07
2.65652e-06
7.41399e-06
1.82348e-05
2.74528e-05
2.78333e-05
2.47561e-05
2.1545e-05
1.93753e-05
1.82977e-05
1.80943e-05
1.85216e-05
1.93638e-05
2.0435e-05
2.1553e-05
2.25192e-05
2.31149e-05
2.31309e-05
2.24382e-05
2.10831e-05
1.92846e-05
1.72513e-05
1.51401e-05
1.31256e-05
1.13725e-05
1.0014e-05
9.16619e-06
8.99054e-06
9.82528e-06
1.23004e-05
1.65725e-05
1.61134e-05
6.60673e-06
2.30496e-06
1.9907e-07
1.97946e-07
2.65658e-06
7.4326e-06
1.8309e-05
2.73321e-05
2.74552e-05
2.42595e-05
2.10715e-05
1.89898e-05
1.80121e-05
1.79073e-05
1.84249e-05
1.93507e-05
2.04994e-05
2.16861e-05
2.27052e-05
2.33316e-05
2.33544e-05
2.26539e-05
2.12939e-05
1.95041e-05
1.74756e-05
1.53684e-05
1.336e-05
1.16152e-05
1.02667e-05
9.43306e-06
9.28322e-06
1.01677e-05
1.27133e-05
1.69929e-05
1.63252e-05
6.68388e-06
2.32698e-06
2.006e-07
1.99585e-07
2.65597e-06
7.44904e-06
1.83771e-05
2.71964e-05
2.70607e-05
2.37542e-05
2.05986e-05
1.86097e-05
1.77332e-05
1.7726e-05
1.8332e-05
1.93386e-05
2.05619e-05
2.18143e-05
2.28839e-05
2.3539e-05
2.35676e-05
2.28598e-05
2.14964e-05
1.97146e-05
1.769e-05
1.55865e-05
1.3585e-05
1.18499e-05
1.05139e-05
9.69795e-06
9.57834e-06
1.05178e-05
1.31373e-05
1.74185e-05
1.6533e-05
6.75985e-06
2.34893e-06
2.02158e-07
2.01151e-07
2.65472e-06
7.46337e-06
1.84395e-05
2.70458e-05
2.66495e-05
2.32402e-05
2.01262e-05
1.82351e-05
1.74618e-05
1.7552e-05
1.82446e-05
1.93295e-05
2.06243e-05
2.1939e-05
2.30559e-05
2.37373e-05
2.3771e-05
2.30571e-05
2.16928e-05
1.99178e-05
1.78957e-05
1.57956e-05
1.38013e-05
1.20774e-05
1.07563e-05
9.96102e-06
9.87558e-06
1.08749e-05
1.3571e-05
1.78477e-05
1.67363e-05
6.83457e-06
2.3708e-06
2.03744e-07
2.02662e-07
2.65293e-06
7.47603e-06
1.84971e-05
2.68795e-05
2.62193e-05
2.27153e-05
1.96523e-05
1.78644e-05
1.71979e-05
1.7386e-05
1.81645e-05
1.93265e-05
2.06907e-05
2.20646e-05
2.32253e-05
2.393e-05
2.39676e-05
2.32491e-05
2.18869e-05
2.01164e-05
1.80948e-05
1.5997e-05
1.40101e-05
1.22984e-05
1.0994e-05
1.02223e-05
1.01748e-05
1.12382e-05
1.40124e-05
1.82776e-05
1.69343e-05
6.90758e-06
2.39247e-06
2.05353e-07
2.04131e-07
2.65074e-06
7.48743e-06
1.85505e-05
2.66968e-05
2.57697e-05
2.218e-05
1.91766e-05
1.74963e-05
1.69413e-05
1.7227e-05
1.80912e-05
1.93302e-05
2.07629e-05
2.21937e-05
2.33948e-05
2.41194e-05
2.41592e-05
2.34373e-05
2.20799e-05
2.03116e-05
1.82883e-05
1.61918e-05
1.4212e-05
1.25131e-05
1.12266e-05
1.04803e-05
1.04738e-05
1.16061e-05
1.44603e-05
1.87071e-05
1.71268e-05
6.97889e-06
2.41394e-06
2.06984e-07
2.0557e-07
2.64832e-06
7.49803e-06
1.86003e-05
2.64966e-05
2.53001e-05
2.16349e-05
1.86996e-05
1.71294e-05
1.6686e-05
1.70707e-05
1.80231e-05
1.93413e-05
2.08434e-05
2.23299e-05
2.35682e-05
2.43092e-05
2.43488e-05
2.36236e-05
2.22723e-05
2.05041e-05
1.84773e-05
1.6381e-05
1.44081e-05
1.27224e-05
1.14552e-05
1.07373e-05
1.07763e-05
1.19781e-05
1.49121e-05
1.91334e-05
1.73126e-05
7.04798e-06
2.43506e-06
2.08625e-07
2.06984e-07
2.64581e-06
7.50782e-06
1.86456e-05
2.62779e-05
2.48123e-05
2.10831e-05
1.82237e-05
1.67654e-05
1.64335e-05
1.69174e-05
1.79589e-05
1.93581e-05
2.09309e-05
2.2473e-05
2.37469e-05
2.45012e-05
2.45381e-05
2.38089e-05
2.24635e-05
2.06935e-05
1.86619e-05
1.65651e-05
1.4599e-05
1.29271e-05
1.16807e-05
1.0994e-05
1.1082e-05
1.23549e-05
1.53677e-05
1.95561e-05
1.74921e-05
7.11485e-06
2.45581e-06
2.1027e-07