/*--------------------------------*- C++ -*----------------------------------*\
| =========                 |                                                 |
| \\      /  F ield         | OpenFOAM: The Open Source CFD Toolbox           |
|  \\    /   O peration     | Version:  v1906                                 |
|   \\  /    A nd           | Web:      www.OpenFOAM.com                      |
|    \\/     M anipulation  |                                                 |
\*---------------------------------------------------------------------------*/
FoamFile
{
    version     2.0;
    format      ascii;
    class       volScalarField;
    location    "0.93/oil";
    object      alphat;
}
// * * * * * * * * * * * * * * * * * * * * * * * * * * * * * * * * * * * * * //

dimensions      [1 -1 -1 0 0 0 0];


internalField   nonuniform List<scalar> 
168664
(
5.68801e-05
4.55249e-05
2.88963e-05
7.109e-06
1.01153e-05
6.69055e-06
8.38793e-06
7.05535e-06
8.48876e-06
7.97105e-06
9.24648e-06
9.82638e-06
1.01652e-05
1.07343e-05
1.07576e-05
1.07653e-05
1.02445e-05
9.55961e-06
8.95777e-06
8.19338e-06
7.54926e-06
7.56608e-06
7.26185e-06
6.7998e-06
5.87711e-06
4.75712e-06
3.64463e-06
2.695e-06
1.97606e-06
8.15555e-07
4.90753e-05
2.41874e-05
1.10226e-05
5.6399e-06
6.43506e-06
6.03526e-06
7.56968e-06
7.25176e-06
8.55791e-06
8.49769e-06
9.65689e-06
9.483e-06
9.57095e-06
9.90163e-06
1.0036e-05
1.00193e-05
9.50493e-06
9.02164e-06
8.47022e-06
8.02698e-06
7.59341e-06
7.59556e-06
7.27299e-06
6.8584e-06
6.31314e-06
5.56536e-06
4.83911e-06
3.91757e-06
3.9889e-06
2.5435e-06
2.34126e-05
1.27185e-05
8.00383e-06
5.73569e-06
8.25148e-06
6.49655e-06
9.04202e-06
7.84018e-06
9.61789e-06
8.9486e-06
1.00669e-05
8.89577e-06
8.87961e-06
9.17053e-06
9.37598e-06
9.29527e-06
8.94126e-06
8.6196e-06
8.09858e-06
7.78431e-06
7.56496e-06
7.72649e-06
7.60434e-06
7.36165e-06
6.90571e-06
6.35363e-06
5.83336e-06
5.45529e-06
6.26561e-06
5.2e-06
9.85262e-06
7.59461e-06
6.86465e-06
5.70456e-06
7.3975e-06
6.46041e-06
8.36246e-06
7.66971e-06
9.18247e-06
8.7981e-06
9.76255e-06
8.5731e-06
8.93014e-06
9.23982e-06
9.43378e-06
9.23667e-06
9.041e-06
8.7417e-06
8.32558e-06
8.04152e-06
7.8502e-06
8.07841e-06
8.23525e-06
8.1492e-06
7.66196e-06
7.10976e-06
6.72117e-06
7.02336e-06
8.06109e-06
7.57921e-06
7.84401e-06
9.92187e-06
9.11935e-06
7.94456e-06
9.35982e-06
7.97195e-06
9.41133e-06
8.3375e-06
9.67855e-06
9.13787e-06
1.00173e-05
8.98853e-06
9.32478e-06
9.52558e-06
9.5965e-06
9.26348e-06
9.0697e-06
8.80939e-06
8.58402e-06
8.6998e-06
8.5212e-06
8.78399e-06
8.88908e-06
8.94588e-06
8.52952e-06
8.16491e-06
7.96021e-06
8.59337e-06
9.77188e-06
9.83946e-06
1.0745e-05
1.07645e-05
1.06234e-05
8.9311e-06
9.92259e-06
8.486e-06
9.59875e-06
8.49624e-06
9.67454e-06
9.16874e-06
1.00395e-05
9.09293e-06
9.29984e-06
9.63904e-06
9.87533e-06
9.3309e-06
9.19027e-06
8.78848e-06
8.90426e-06
9.26793e-06
9.19157e-06
9.28798e-06
9.30931e-06
9.4057e-06
9.13098e-06
9.10963e-06
9.15578e-06
1.00274e-05
1.12308e-05
1.18602e-05
1.25864e-05
1.2809e-05
1.21482e-05
1.0797e-05
1.11968e-05
9.88662e-06
1.04959e-05
9.37264e-06
1.00333e-05
9.52395e-06
1.01246e-05
9.37324e-06
9.69916e-06
1.04371e-05
1.06015e-05
9.83514e-06
9.43802e-06
8.95274e-06
8.98962e-06
9.41202e-06
9.30271e-06
9.50112e-06
9.56087e-06
9.8573e-06
9.85424e-06
1.02179e-05
1.05718e-05
1.16051e-05
1.28283e-05
1.39624e-05
1.54105e-05
1.44639e-05
1.42008e-05
1.24196e-05
1.26058e-05
1.09777e-05
1.13301e-05
9.83304e-06
1.02327e-05
9.38038e-06
1.00344e-05
9.5244e-06
1.0429e-05
1.14404e-05
1.17474e-05
1.07207e-05
1.03756e-05
9.65404e-06
9.55824e-06
9.52288e-06
9.35527e-06
9.53578e-06
9.73103e-06
1.02451e-05
1.06305e-05
1.13809e-05
1.20097e-05
1.31086e-05
1.42631e-05
1.5846e-05
1.67361e-05
1.56328e-05
1.51059e-05
1.37876e-05
1.34009e-05
1.19525e-05
1.17729e-05
1.0343e-05
1.02762e-05
9.397e-06
1.00062e-05
1.01177e-05
1.11744e-05
1.22175e-05
1.2356e-05
1.13687e-05
1.08183e-05
1.01089e-05
9.80182e-06
9.6126e-06
9.33634e-06
9.75951e-06
1.01117e-05
1.09645e-05
1.16552e-05
1.26627e-05
1.3516e-05
1.46127e-05
1.56027e-05
1.75295e-05
1.93848e-05
1.74029e-05
1.71065e-05
1.55859e-05
1.5152e-05
1.33479e-05
1.29449e-05
1.12074e-05
1.09012e-05
9.74656e-06
1.03757e-05
1.04283e-05
1.13055e-05
1.17178e-05
1.2027e-05
1.13662e-05
1.08337e-05
1.02349e-05
1.01227e-05
9.84981e-06
9.65309e-06
1.017e-05
1.06914e-05
1.16604e-05
1.24074e-05
1.35915e-05
1.46457e-05
1.56848e-05
1.65718e-05
1.88146e-05
2.04023e-05
1.81273e-05
1.75455e-05
1.62955e-05
1.5664e-05
1.42838e-05
1.37236e-05
1.21084e-05
1.15569e-05
1.04479e-05
1.07624e-05
1.0599e-05
1.05259e-05
1.01149e-05
1.0001e-05
9.70393e-06
9.49013e-06
9.53928e-06
9.78903e-06
1.00846e-05
1.01807e-05
1.10287e-05
1.16925e-05
1.28379e-05
1.35884e-05
1.48879e-05
1.59725e-05
1.68422e-05
1.76092e-05
2.00723e-05
2.28952e-05
1.98415e-05
1.92222e-05
1.79023e-05
1.75311e-05
1.63073e-05
1.59519e-05
1.4121e-05
1.31393e-05
1.12339e-05
1.0594e-05
9.57916e-06
8.80367e-06
7.80665e-06
7.58097e-06
7.29669e-06
7.54276e-06
8.32199e-06
9.14982e-06
1.00742e-05
1.07672e-05
1.19632e-05
1.28364e-05
1.42205e-05
1.50497e-05
1.62945e-05
1.71466e-05
1.7799e-05
1.84601e-05
2.11511e-05
2.29562e-05
2.01262e-05
1.96715e-05
1.88576e-05
1.84591e-05
1.74397e-05
1.703e-05
1.52813e-05
1.40198e-05
1.1319e-05
9.72877e-06
8.02859e-06
6.7955e-06
5.91198e-06
5.41051e-06
5.17145e-06
5.68148e-06
6.76881e-06
7.7976e-06
9.39414e-06
1.08419e-05
1.292e-05
1.40861e-05
1.55188e-05
1.63146e-05
1.74796e-05
1.81477e-05
1.87843e-05
1.95185e-05
2.26175e-05
2.37743e-05
2.05981e-05
2.03064e-05
1.96215e-05
1.92831e-05
1.81486e-05
1.77805e-05
1.62663e-05
1.51847e-05
1.18967e-05
9.54612e-06
7.08142e-06
5.77465e-06
4.73104e-06
4.5407e-06
4.31732e-06
5.043e-06
6.37202e-06
7.23533e-06
9.2004e-06
1.10522e-05
1.37514e-05
1.51731e-05
1.66056e-05
1.72025e-05
1.82972e-05
1.89435e-05
1.96728e-05
2.04886e-05
2.40477e-05
2.35238e-05
2.03828e-05
2.00063e-05
1.93983e-05
1.90494e-05
1.8093e-05
1.76657e-05
1.64115e-05
1.55616e-05
1.27659e-05
1.06525e-05
8.62708e-06
7.56962e-06
6.03005e-06
5.04444e-06
5.18777e-06
6.26384e-06
7.5738e-06
8.2508e-06
1.0029e-05
1.16477e-05
1.44069e-05
1.60434e-05
1.75956e-05
1.81952e-05
1.92315e-05
1.98823e-05
2.06354e-05
2.14088e-05
2.52885e-05
2.42512e-05
2.07806e-05
2.03312e-05
1.96765e-05
1.93772e-05
1.84205e-05
1.79871e-05
1.65751e-05
1.55476e-05
1.30475e-05
1.1253e-05
9.37745e-06
8.34082e-06
6.56452e-06
4.89375e-06
5.44433e-06
6.73305e-06
8.28599e-06
8.77422e-06
1.04674e-05
1.19501e-05
1.47532e-05
1.62379e-05
1.78015e-05
1.83408e-05
1.94187e-05
2.00377e-05
2.08278e-05
2.14491e-05
2.52511e-05
2.30498e-05
1.99128e-05
1.94025e-05
1.88365e-05
1.8503e-05
1.76351e-05
1.72191e-05
1.60383e-05
1.48946e-05
1.23786e-05
1.01097e-05
8.10355e-06
7.16433e-06
5.88509e-06
4.97378e-06
5.43729e-06
6.48717e-06
8.38896e-06
9.11355e-06
1.08528e-05
1.25057e-05
1.51714e-05
1.64911e-05
1.78354e-05
1.84067e-05
1.9521e-05
2.02154e-05
2.09266e-05
2.14377e-05
2.51221e-05
2.26594e-05
1.9647e-05
1.91069e-05
1.84807e-05
1.80735e-05
1.70427e-05
1.64841e-05
1.51637e-05
1.42404e-05
1.21909e-05
1.06323e-05
9.12063e-06
8.03155e-06
7.22949e-06
6.71379e-06
6.78068e-06
6.87238e-06
8.84006e-06
1.01978e-05
1.2088e-05
1.29645e-05
1.50512e-05
1.60152e-05
1.74865e-05
1.81632e-05
1.93102e-05
2.004e-05
2.09288e-05
2.15943e-05
2.52971e-05
2.15142e-05
1.88897e-05
1.82577e-05
1.75522e-05
1.69674e-05
1.59283e-05
1.52418e-05
1.39888e-05
1.32085e-05
1.21165e-05
1.15728e-05
1.06879e-05
9.63205e-06
8.87094e-06
8.6904e-06
8.55672e-06
8.39318e-06
9.68146e-06
1.10527e-05
1.24526e-05
1.28014e-05
1.38999e-05
1.46259e-05
1.60766e-05
1.68064e-05
1.77775e-05
1.85462e-05
1.97756e-05
2.08634e-05
2.46483e-05
2.07423e-05
1.81138e-05
1.7352e-05
1.64057e-05
1.56473e-05
1.45403e-05
1.3965e-05
1.29322e-05
1.24203e-05
1.16924e-05
1.17409e-05
1.14284e-05
1.08869e-05
1.0614e-05
1.06919e-05
1.05946e-05
1.04186e-05
1.10387e-05
1.14043e-05
1.19613e-05
1.18549e-05
1.26621e-05
1.31822e-05
1.44525e-05
1.51075e-05
1.61259e-05
1.69435e-05
1.82501e-05
1.93815e-05
2.28636e-05
1.91506e-05
1.68094e-05
1.61332e-05
1.5131e-05
1.42977e-05
1.33895e-05
1.28639e-05
1.20259e-05
1.15596e-05
1.11203e-05
1.13266e-05
1.13045e-05
1.13429e-05
1.175e-05
1.24631e-05
1.27647e-05
1.25736e-05
1.22494e-05
1.18821e-05
1.17311e-05
1.13e-05
1.17994e-05
1.22463e-05
1.33738e-05
1.3992e-05
1.50149e-05
1.58064e-05
1.6968e-05
1.79555e-05
2.07579e-05
1.80066e-05
1.60344e-05
1.54357e-05
1.43877e-05
1.3561e-05
1.27563e-05
1.23207e-05
1.16261e-05
1.12684e-05
1.09204e-05
1.08493e-05
1.04991e-05
1.07776e-05
1.16509e-05
1.26354e-05
1.33531e-05
1.31239e-05
1.19922e-05
1.11867e-05
1.11151e-05
1.08495e-05
1.13375e-05
1.16289e-05
1.25051e-05
1.29114e-05
1.37845e-05
1.44221e-05
1.55341e-05
1.65437e-05
1.88537e-05
1.62681e-05
1.47088e-05
1.39154e-05
1.29214e-05
1.23372e-05
1.17418e-05
1.1462e-05
1.10513e-05
1.08993e-05
1.07693e-05
1.05339e-05
9.87931e-06
9.96351e-06
1.08947e-05
1.19348e-05
1.26681e-05
1.24062e-05
1.12527e-05
1.06706e-05
1.09151e-05
1.08272e-05
1.11001e-05
1.11326e-05
1.16426e-05
1.17969e-05
1.24363e-05
1.29577e-05
1.40299e-05
1.50628e-05
1.68991e-05
1.45996e-05
1.33369e-05
1.23316e-05
1.1505e-05
1.11688e-05
1.0839e-05
1.08142e-05
1.06776e-05
1.06769e-05
1.05295e-05
1.01101e-05
9.39903e-06
9.1872e-06
9.75617e-06
1.05823e-05
1.11893e-05
1.10347e-05
1.04208e-05
1.01771e-05
1.06072e-05
1.06083e-05
1.08463e-05
1.07267e-05
1.0971e-05
1.08868e-05
1.11968e-05
1.1468e-05
1.24799e-05
1.35493e-05
1.49516e-05
1.22688e-05
1.15154e-05
1.05205e-05
9.96039e-06
9.81963e-06
9.71966e-06
9.92448e-06
1.00707e-05
1.02843e-05
1.01395e-05
9.57674e-06
8.99627e-06
9.00635e-06
9.28175e-06
9.75885e-06
1.00645e-05
1.02711e-05
1.01246e-05
9.9268e-06
1.01288e-05
1.02168e-05
1.04718e-05
1.03146e-05
1.04072e-05
1.01425e-05
1.01154e-05
1.00407e-05
1.09367e-05
1.20304e-05
1.29648e-05
1.02085e-05
9.87778e-06
8.83567e-06
8.48208e-06
8.6739e-06
8.90244e-06
9.20514e-06
9.50479e-06
9.83097e-06
9.80517e-06
9.24767e-06
8.72729e-06
8.90057e-06
9.0863e-06
9.18345e-06
9.21064e-06
9.62664e-06
9.77095e-06
9.42611e-06
9.4417e-06
9.45857e-06
9.75736e-06
9.64999e-06
9.68434e-06
9.34368e-06
8.95565e-06
8.64722e-06
9.34467e-06
1.04845e-05
1.08968e-05
7.93e-06
8.09734e-06
6.97424e-06
6.87265e-06
7.3863e-06
7.81922e-06
8.24702e-06
8.70449e-06
9.10979e-06
9.32026e-06
8.95929e-06
8.69168e-06
8.9846e-06
9.06093e-06
8.92088e-06
8.71727e-06
9.15451e-06
9.29644e-06
9.10803e-06
9.00528e-06
8.86679e-06
8.91865e-06
8.74292e-06
8.66373e-06
8.34453e-06
7.88285e-06
7.41002e-06
7.74346e-06
8.76935e-06
8.63902e-06
5.58824e-06
6.3967e-06
5.3848e-06
5.86119e-06
6.39476e-06
6.99297e-06
7.56892e-06
8.13086e-06
8.64448e-06
8.9122e-06
8.73784e-06
8.64756e-06
8.9346e-06
8.8973e-06
8.76663e-06
8.49279e-06
8.63548e-06
8.81074e-06
8.77511e-06
8.76138e-06
8.39241e-06
8.29972e-06
8.02159e-06
7.90157e-06
7.64052e-06
7.16654e-06
6.57242e-06
6.04228e-06
6.86469e-06
6.06732e-06
3.03363e-06
4.3559e-06
4.21602e-06
5.08203e-06
5.66361e-06
6.49325e-06
7.17504e-06
7.91283e-06
8.60566e-06
9.0505e-06
9.17675e-06
9.17286e-06
9.368e-06
9.37139e-06
9.48442e-06
9.19873e-06
9.17491e-06
9.2312e-06
9.12878e-06
8.81043e-06
8.14029e-06
7.88212e-06
7.57168e-06
7.38854e-06
6.97312e-06
6.18666e-06
5.44729e-06
4.28292e-06
4.38365e-06
3.07841e-06
1.4246e-06
2.67338e-06
3.62169e-06
4.63176e-06
5.51693e-06
6.49792e-06
7.29382e-06
8.15992e-06
9.00187e-06
9.43561e-06
9.65181e-06
9.7823e-06
9.85232e-06
1.00493e-05
9.98644e-06
9.5751e-06
9.58398e-06
9.65994e-06
9.49059e-06
8.78732e-06
7.86247e-06
7.56642e-06
7.17259e-06
6.91857e-06
6.23372e-06
5.13248e-06
4.07248e-06
2.872e-06
2.17323e-06
1.01171e-06
4.46725e-05
2.63593e-05
1.08248e-05
7.14169e-06
6.7976e-06
5.9799e-06
7.03725e-06
7.26072e-06
8.4161e-06
9.10854e-06
9.8071e-06
1.03337e-05
9.80016e-06
1.07348e-05
1.07722e-05
1.0921e-05
1.04288e-05
9.51147e-06
9.28623e-06
8.29606e-06
7.95773e-06
7.28897e-06
7.3033e-06
6.70635e-06
6.41181e-06
5.37122e-06
4.62626e-06
3.49546e-06
3.0792e-06
2.14132e-06
2.53995e-05
1.1e-05
6.11574e-06
3.72413e-06
3.92813e-06
3.03929e-06
3.33743e-06
2.76897e-06
3.54455e-06
4.04723e-06
5.36988e-06
4.93512e-06
4.4521e-06
3.98926e-06
4.2169e-06
4.37233e-06
4.0466e-06
3.96361e-06
3.63626e-06
3.65174e-06
3.39308e-06
3.99293e-06
4.35263e-06
4.84816e-06
4.64382e-06
4.28252e-06
3.63889e-06
3.27121e-06
4.35741e-06
4.02928e-06
1.30254e-05
8.81292e-06
7.34429e-06
5.05214e-06
5.38762e-06
4.03176e-06
4.57349e-06
3.42742e-06
4.27958e-06
5.07192e-06
6.8937e-06
6.90464e-06
5.66421e-06
4.22475e-06
3.9523e-06
3.784e-06
2.99204e-06
2.53667e-06
2.59932e-06
3.36619e-06
3.61372e-06
4.6974e-06
5.3612e-06
5.61125e-06
5.49063e-06
5.30802e-06
4.40499e-06
4.24408e-06
4.93076e-06
6.3077e-06
8.06976e-06
4.77825e-06
4.19052e-06
3.29596e-06
3.28695e-06
3.25619e-06
3.95062e-06
3.90489e-06
4.81616e-06
5.22154e-06
6.43154e-06
6.62567e-06
5.29058e-06
3.74604e-06
3.33439e-06
3.16799e-06
2.86362e-06
2.3683e-06
2.83166e-06
4.05511e-06
4.67739e-06
5.31647e-06
5.01424e-06
5.04569e-06
5.30808e-06
5.46266e-06
4.7999e-06
4.87339e-06
4.69969e-06
8.09874e-06
1.06536e-05
5.64739e-06
5.56603e-06
3.8403e-06
3.20608e-06
2.63045e-06
3.00255e-06
2.91225e-06
3.6128e-06
3.51078e-06
4.15877e-06
4.56788e-06
3.56993e-06
2.70007e-06
2.62033e-06
2.65189e-06
2.65354e-06
2.31087e-06
3.04054e-06
4.28414e-06
4.53659e-06
3.95159e-06
2.93086e-06
3.11635e-06
3.63095e-06
4.33797e-06
4.57714e-06
4.99871e-06
4.41581e-06
9.85534e-06
1.10748e-05
4.18798e-06
4.20493e-06
3.41984e-06
2.45015e-06
2.0433e-06
1.97281e-06
1.80972e-06
2.2311e-06
2.11318e-06
2.82747e-06
3.42148e-06
3.16521e-06
2.58121e-06
2.6116e-06
2.74914e-06
2.90716e-06
2.87753e-06
3.57926e-06
3.9543e-06
3.41548e-06
2.43642e-06
1.61357e-06
1.978e-06
2.39877e-06
3.45068e-06
4.23333e-06
4.87304e-06
4.16838e-06
1.13093e-05
1.2993e-05
4.57163e-06
4.96446e-06
4.00692e-06
3.34104e-06
2.59583e-06
2.31807e-06
1.77175e-06
1.78708e-06
1.69614e-06
2.42382e-06
3.16797e-06
3.11291e-06
2.62485e-06
2.78162e-06
2.83613e-06
3.1138e-06
3.47111e-06
3.89045e-06
3.2592e-06
2.35776e-06
1.84227e-06
1.47523e-06
1.77621e-06
2.20453e-06
3.41892e-06
4.22649e-06
4.75643e-06
4.15481e-06
1.28741e-05
1.44497e-05
3.94521e-06
4.37968e-06
4.13897e-06
3.61091e-06
2.89487e-06
2.50645e-06
2.00438e-06
1.95485e-06
1.90781e-06
2.53119e-06
3.01048e-06
2.95032e-06
2.34907e-06
2.64499e-06
2.63388e-06
2.91568e-06
3.60746e-06
3.69313e-06
2.82254e-06
1.94149e-06
1.85984e-06
1.6349e-06
1.99748e-06
2.55249e-06
3.67648e-06
4.26176e-06
4.64053e-06
4.1413e-06
1.42689e-05
1.55647e-05
4.01286e-06
4.08573e-06
4.27868e-06
4.11622e-06
3.44705e-06
3.00016e-06
2.53229e-06
2.56206e-06
2.54836e-06
2.91181e-06
2.66638e-06
2.03511e-06
1.86093e-06
2.64374e-06
2.37913e-06
1.87652e-06
2.84498e-06
3.13601e-06
2.82887e-06
2.24708e-06
2.29635e-06
2.10341e-06
2.52175e-06
2.9835e-06
3.79186e-06
4.05198e-06
4.19046e-06
3.91827e-06
1.56486e-05
1.72081e-05
3.65656e-06
3.43428e-06
3.72875e-06
3.81271e-06
3.59853e-06
3.37124e-06
3.0596e-06
3.22875e-06
3.22183e-06
3.37524e-06
2.43943e-06
1.47292e-06
2.59554e-06
3.48021e-06
2.75238e-06
1.37645e-06
1.21008e-06
2.39196e-06
2.98352e-06
2.68667e-06
2.79227e-06
2.64107e-06
2.97509e-06
3.11434e-06
3.53361e-06
3.50019e-06
3.40864e-06
3.48288e-06
1.67488e-05
1.81601e-05
3.76951e-06
3.10718e-06
3.2882e-06
3.2902e-06
3.55955e-06
3.64435e-06
3.57389e-06
3.81862e-06
3.69728e-06
3.53388e-06
2.21201e-06
2.25999e-06
3.82519e-06
4.58942e-06
4.23391e-06
3.29935e-06
1.0527e-06
1.67639e-06
3.07703e-06
3.22414e-06
3.47517e-06
3.3152e-06
3.51239e-06
3.43538e-06
3.48907e-06
3.18446e-06
2.96292e-06
3.16095e-06
1.76724e-05
1.9864e-05
3.70487e-06
3.01637e-06
3.06082e-06
3.10618e-06
3.51656e-06
3.73166e-06
3.932e-06
4.47311e-06
4.37495e-06
3.40204e-06
2.2648e-06
2.83613e-06
3.35516e-06
3.69525e-06
3.65113e-06
3.08493e-06
1.94268e-06
1.65261e-06
2.99741e-06
3.72184e-06
4.02317e-06
3.81009e-06
3.71713e-06
3.52191e-06
3.41001e-06
2.96484e-06
2.85596e-06
2.97024e-06
1.84273e-05
1.99468e-05
3.36322e-06
2.56011e-06
2.65315e-06
2.60512e-06
2.92189e-06
3.03729e-06
3.54278e-06
4.32289e-06
4.05064e-06
2.41712e-06
2.98536e-06
3.42337e-06
3.31766e-06
3.16569e-06
2.98208e-06
2.77161e-06
2.32732e-06
1.98755e-06
2.27335e-06
3.59182e-06
4.02761e-06
3.62408e-06
3.2433e-06
2.94643e-06
2.84989e-06
2.57688e-06
2.71692e-06
3.02159e-06
1.95752e-05
2.05594e-05
2.85552e-06
2.02128e-06
2.1056e-06
2.11632e-06
2.18446e-06
2.23756e-06
3.00115e-06
3.85221e-06
3.68416e-06
3.13703e-06
3.44048e-06
3.13684e-06
2.8574e-06
2.36945e-06
2.05329e-06
1.67443e-06
1.88641e-06
1.91316e-06
2.10623e-06
2.90888e-06
3.58108e-06
3.254e-06
2.73066e-06
2.44957e-06
2.40864e-06
2.33432e-06
2.53888e-06
3.06445e-06
2.06041e-05
2.03506e-05
2.96833e-06
2.00812e-06
1.98571e-06
1.97192e-06
2.08949e-06
2.1055e-06
2.72496e-06
3.13729e-06
3.47449e-06
3.40042e-06
3.14302e-06
2.58636e-06
2.10925e-06
2.2078e-06
2.16564e-06
2.04405e-06
2.34555e-06
2.29478e-06
2.74545e-06
3.28753e-06
3.48901e-06
2.98632e-06
2.36184e-06
2.20869e-06
2.17822e-06
2.17566e-06
2.33944e-06
3.06633e-06
2.14599e-05
2.08477e-05
3.12382e-06
2.2021e-06
2.08191e-06
2.10627e-06
2.30451e-06
2.37297e-06
2.79574e-06
3.09178e-06
3.28779e-06
2.5429e-06
1.66634e-06
1.4046e-06
1.61108e-06
2.30937e-06
2.46221e-06
2.33311e-06
2.52987e-06
2.72005e-06
3.14228e-06
3.41664e-06
3.32386e-06
2.69042e-06
1.9175e-06
1.78376e-06
1.84523e-06
1.92673e-06
2.02064e-06
2.69982e-06
2.14066e-05
2.00856e-05
3.14134e-06
2.47747e-06
2.30776e-06
2.36346e-06
2.5233e-06
2.62867e-06
3.10576e-06
3.4425e-06
3.03557e-06
2.17565e-06
1.93087e-06
1.76859e-06
2.03625e-06
2.73187e-06
2.70265e-06
2.5501e-06
2.74023e-06
2.73096e-06
2.47676e-06
2.82757e-06
3.57147e-06
2.92126e-06
2.05569e-06
1.88937e-06
2.02083e-06
2.23783e-06
2.1938e-06
2.68502e-06
2.13834e-05
1.97986e-05
3.08966e-06
2.75471e-06
2.54585e-06
2.69587e-06
2.83269e-06
3.03455e-06
3.34822e-06
3.69692e-06
3.31054e-06
2.42488e-06
2.19313e-06
2.37959e-06
2.82163e-06
3.3877e-06
3.39449e-06
3.59716e-06
3.38644e-06
2.53461e-06
1.44493e-06
3.43714e-06
4.37113e-06
3.61391e-06
3.02851e-06
2.75962e-06
2.68572e-06
2.89179e-06
2.8263e-06
3.14974e-06
2.13669e-05
1.88187e-05
3.3547e-06
3.25971e-06
3.23658e-06
3.53247e-06
3.57502e-06
3.60937e-06
3.60502e-06
3.81299e-06
3.6341e-06
3.34358e-06
2.06818e-06
1.89294e-06
2.82015e-06
3.67713e-06
3.66031e-06
3.54182e-06
2.88464e-06
1.53397e-06
2.11822e-06
3.8309e-06
4.59487e-06
4.0009e-06
3.63178e-06
3.35754e-06
3.31907e-06
3.50507e-06
3.5279e-06
3.69392e-06
2.08501e-05
1.81835e-05
3.47157e-06
3.29566e-06
3.55426e-06
3.82705e-06
3.45754e-06
3.24419e-06
3.00276e-06
3.28199e-06
3.13425e-06
3.3133e-06
1.93805e-06
7.39517e-07
2.5741e-06
3.90033e-06
4.10129e-06
3.81646e-06
2.0409e-06
9.64197e-07
2.70573e-06
3.37588e-06
3.92587e-06
3.49633e-06
3.4238e-06
3.3192e-06
3.56742e-06
3.63249e-06
3.50097e-06
3.7222e-06
1.95946e-05
1.70919e-05
3.82068e-06
3.49805e-06
3.95123e-06
4.16356e-06
3.34102e-06
2.90036e-06
2.53365e-06
2.78545e-06
2.74628e-06
3.20318e-06
2.63814e-06
1.66016e-06
8.74886e-07
2.3936e-06
3.11827e-06
2.78618e-06
6.63422e-07
1.93527e-06
3.19647e-06
3.10657e-06
3.33158e-06
2.98485e-06
3.21117e-06
3.43163e-06
4.07583e-06
4.04002e-06
3.84343e-06
3.78479e-06
1.79138e-05
1.60696e-05
3.96904e-06
4.05993e-06
4.42951e-06
4.19731e-06
3.16013e-06
2.69186e-06
2.14467e-06
2.31057e-06
2.33476e-06
3.03166e-06
3.25436e-06
2.95392e-06
2.01288e-06
2.14278e-06
2.34554e-06
1.85313e-06
2.18552e-06
2.78135e-06
3.0576e-06
2.51816e-06
2.65143e-06
2.38127e-06
2.78367e-06
3.11865e-06
4.07886e-06
4.35325e-06
4.31811e-06
3.82968e-06
1.64285e-05
1.47114e-05
4.03682e-06
4.66989e-06
4.56098e-06
3.91133e-06
2.85644e-06
2.43823e-06
1.82531e-06
2.03813e-06
2.11952e-06
2.92657e-06
3.42574e-06
3.29394e-06
3.09057e-06
3.21694e-06
3.30376e-06
2.49056e-06
3.16801e-06
3.63143e-06
3.29965e-06
2.25439e-06
2.2097e-06
1.94963e-06
2.39312e-06
2.64464e-06
3.81113e-06
4.45225e-06
4.63946e-06
4.00895e-06
1.50236e-05
1.3489e-05
4.05461e-06
4.74699e-06
4.02759e-06
3.35909e-06
2.50891e-06
2.28547e-06
1.69778e-06
1.91024e-06
2.12981e-06
3.06627e-06
3.23008e-06
2.96087e-06
3.45882e-06
3.65387e-06
3.47808e-06
2.808e-06
3.7287e-06
4.29448e-06
4.20966e-06
2.92659e-06
2.1704e-06
1.71087e-06
2.08853e-06
2.24177e-06
3.40509e-06
4.33209e-06
4.80672e-06
4.07981e-06
1.35863e-05
1.16978e-05
4.15431e-06
4.69325e-06
3.61973e-06
2.9498e-06
2.31127e-06
2.53894e-06
2.22245e-06
2.36472e-06
2.5292e-06
3.3058e-06
2.94621e-06
2.50718e-06
3.42726e-06
3.72327e-06
3.40854e-06
3.05964e-06
3.70732e-06
4.39749e-06
5.02469e-06
4.19659e-06
3.06591e-06
2.22531e-06
2.48539e-06
2.6507e-06
3.74651e-06
4.50897e-06
5.19627e-06
4.37996e-06
1.21201e-05
1.01644e-05
4.15135e-06
4.49008e-06
3.3918e-06
2.96561e-06
2.71072e-06
3.15881e-06
3.1334e-06
3.5086e-06
3.53104e-06
3.65718e-06
2.54806e-06
2.23595e-06
3.29481e-06
3.78607e-06
3.52837e-06
3.17086e-06
3.48068e-06
4.12101e-06
5.16324e-06
5.11514e-06
4.62331e-06
3.78058e-06
3.89576e-06
4.11039e-06
4.82631e-06
4.81228e-06
5.39022e-06
4.7508e-06
1.05813e-05
8.52946e-06
4.42009e-06
4.49267e-06
3.6355e-06
3.89434e-06
3.9398e-06
4.34631e-06
4.44824e-06
5.08717e-06
5.23004e-06
4.78369e-06
2.79583e-06
2.32389e-06
3.47457e-06
4.39256e-06
4.10239e-06
3.85264e-06
4.24171e-06
4.65134e-06
5.44864e-06
5.56604e-06
5.9561e-06
5.87376e-06
6.1416e-06
6.10868e-06
6.08876e-06
5.09378e-06
5.31622e-06
5.17144e-06
8.84692e-06
6.95362e-06
4.91217e-06
4.43391e-06
4.17515e-06
4.50682e-06
4.35647e-06
4.56264e-06
4.62295e-06
5.27665e-06
5.6723e-06
5.36483e-06
3.39645e-06
2.70594e-06
3.70127e-06
4.43326e-06
3.99728e-06
3.80863e-06
4.34922e-06
4.52707e-06
4.68259e-06
4.46566e-06
5.09803e-06
5.57409e-06
6.32838e-06
6.14706e-06
5.75356e-06
4.53271e-06
4.445e-06
5.26323e-06
6.96307e-06
4.84529e-06
4.89484e-06
3.94259e-06
4.22345e-06
4.28489e-06
4.17024e-06
4.44303e-06
4.61197e-06
5.22573e-06
5.65014e-06
5.66402e-06
4.65917e-06
4.38361e-06
4.15379e-06
3.99954e-06
3.42876e-06
3.56639e-06
4.00998e-06
3.96333e-06
3.99476e-06
3.61084e-06
4.11542e-06
4.25441e-06
4.9077e-06
4.74854e-06
4.38469e-06
3.66948e-06
3.36771e-06
4.51592e-06
4.46693e-06
3.06815e-06
4.02843e-06
4.38259e-06
5.24536e-06
5.75004e-06
6.70012e-06
7.28113e-06
8.54829e-06
9.20917e-06
1.04252e-05
1.01956e-05
1.03884e-05
9.76189e-06
9.94764e-06
9.74918e-06
9.49104e-06
9.5716e-06
9.35758e-06
9.63037e-06
8.87647e-06
8.43625e-06
7.63076e-06
7.43457e-06
6.9329e-06
6.68306e-06
5.61991e-06
4.84977e-06
3.5862e-06
3.18203e-06
2.33198e-06
2.88798e-05
1.12394e-05
1.076e-05
5.80026e-06
7.04629e-06
5.88787e-06
7.9781e-06
7.7346e-06
9.26249e-06
8.4906e-06
9.63318e-06
8.04814e-06
8.30474e-06
7.52636e-06
8.13192e-06
8.54083e-06
8.0095e-06
8.82931e-06
7.72201e-06
8.48264e-06
6.57786e-06
7.42967e-06
6.55938e-06
7.68265e-06
6.82275e-06
6.4914e-06
5.2752e-06
4.25357e-06
3.34029e-06
2.90589e-06
1.06802e-05
5.81721e-06
1.18728e-06
3.41742e-06
3.64635e-06
3.05171e-06
3.73809e-06
3.58177e-06
4.40328e-06
4.44961e-06
4.48806e-06
4.1065e-06
2.89985e-06
2.83018e-06
3.01468e-06
2.85674e-06
3.37069e-06
3.46998e-06
3.57461e-06
2.7631e-06
2.0759e-06
2.56881e-06
3.51212e-06
3.90121e-06
3.62069e-06
2.95118e-06
2.81512e-06
2.89675e-06
3.48132e-06
3.93138e-06
7.50248e-06
6.95755e-06
6.65774e-06
5.47949e-06
6.05119e-06
3.93358e-06
4.01652e-06
3.39428e-06
4.7326e-06
5.75924e-06
6.44565e-06
6.3492e-06
5.20048e-06
4.39688e-06
3.9337e-06
3.80237e-06
4.15798e-06
3.60153e-06
3.68983e-06
3.1085e-06
2.91727e-06
3.68399e-06
5.2672e-06
5.77488e-06
4.58832e-06
3.37451e-06
3.49026e-06
4.52297e-06
4.30381e-06
5.6534e-06
8.26583e-06
3.78657e-06
4.40435e-06
5.12328e-06
5.33569e-06
4.41171e-06
3.64389e-06
2.94061e-06
3.50484e-06
5.17472e-06
7.19868e-06
7.98072e-06
7.12359e-06
5.96243e-06
5.056e-06
4.74245e-06
4.33119e-06
3.31913e-06
3.76465e-06
3.50312e-06
3.22382e-06
5.05501e-06
6.97037e-06
7.00638e-06
5.72799e-06
4.20841e-06
4.20751e-06
4.90177e-06
4.5897e-06
7.34239e-06
9.89843e-06
4.94544e-06
4.82358e-06
5.69139e-06
5.65281e-06
4.79404e-06
4.32473e-06
3.80752e-06
4.01846e-06
5.3264e-06
7.74622e-06
8.44023e-06
6.79719e-06
5.57567e-06
4.77736e-06
4.44982e-06
3.68111e-06
2.86473e-06
3.73997e-06
4.08925e-06
5.23454e-06
6.51198e-06
7.00704e-06
6.73553e-06
6.16496e-06
4.97835e-06
4.92409e-06
4.42548e-06
4.65779e-06
8.97441e-06
1.15689e-05
3.56583e-06
3.69973e-06
4.55277e-06
3.88993e-06
2.80889e-06
2.49943e-06
2.17873e-06
2.37476e-06
3.28876e-06
5.22856e-06
5.81804e-06
4.51546e-06
3.72433e-06
2.94247e-06
2.94939e-06
2.59863e-06
2.53229e-06
3.35353e-06
4.17972e-06
4.69567e-06
4.46451e-06
3.97176e-06
4.15264e-06
4.79678e-06
4.99761e-06
5.13661e-06
3.82957e-06
4.61255e-06
1.0408e-05
1.27336e-05
4.05351e-06
3.66184e-06
4.3146e-06
3.71586e-06
2.65243e-06
2.16253e-06
1.68378e-06
1.60956e-06
2.20948e-06
3.46936e-06
4.41444e-06
3.56365e-06
3.06026e-06
2.25123e-06
2.47019e-06
2.49391e-06
2.66286e-06
3.68853e-06
3.87647e-06
3.20286e-06
2.31918e-06
1.86448e-06
2.44665e-06
3.93682e-06
4.85244e-06
4.77224e-06
3.29958e-06
4.58683e-06
1.18823e-05
1.41515e-05
3.49529e-06
2.90292e-06
4.03734e-06
4.00976e-06
3.2094e-06
2.45933e-06
1.86691e-06
1.51471e-06
1.76961e-06
2.59286e-06
3.89285e-06
3.43091e-06
3.26103e-06
2.04427e-06
2.07076e-06
2.14448e-06
2.85237e-06
3.76828e-06
3.08842e-06
2.01517e-06
1.47823e-06
1.51606e-06
2.33099e-06
3.76872e-06
4.46685e-06
4.22827e-06
3.16251e-06
4.4888e-06
1.32848e-05
1.47481e-05
3.75697e-06
2.26166e-06
3.30003e-06
3.72123e-06
3.59504e-06
2.88166e-06
2.26832e-06
1.87245e-06
2.08851e-06
2.41895e-06
3.42533e-06
3.44563e-06
3.49381e-06
2.19415e-06
2.19359e-06
2.26958e-06
2.41556e-06
3.01336e-06
2.41606e-06
1.90917e-06
1.67514e-06
1.98559e-06
2.7145e-06
3.59883e-06
3.8721e-06
3.77212e-06
3.10168e-06
4.19783e-06
1.47594e-05
1.61969e-05
3.57378e-06
2.03422e-06
2.23399e-06
2.73925e-06
3.26726e-06
3.22787e-06
2.80538e-06
2.30342e-06
2.48671e-06
2.48764e-06
3.25001e-06
3.01145e-06
2.86094e-06
2.38695e-06
2.0642e-06
2.65631e-06
2.2441e-06
2.18962e-06
1.91695e-06
2.06683e-06
2.02851e-06
2.4375e-06
2.9637e-06
3.14792e-06
3.14964e-06
3.03283e-06
2.53728e-06
3.66135e-06
1.61155e-05
1.695e-05
3.74035e-06
1.86992e-06
1.93406e-06
1.93179e-06
2.50874e-06
2.88095e-06
2.95345e-06
2.53803e-06
2.72039e-06
3.07922e-06
4.01491e-06
3.47324e-06
4.07924e-06
4.20671e-06
3.59084e-06
3.71674e-06
3.1116e-06
3.09858e-06
2.61615e-06
2.65662e-06
2.64068e-06
2.87218e-06
2.96195e-06
2.71586e-06
2.63931e-06
2.49473e-06
2.08663e-06
3.12579e-06
1.71824e-05
1.88991e-05
3.45362e-06
2.02796e-06
1.96112e-06
1.71361e-06
1.97199e-06
2.45884e-06
2.83321e-06
2.63576e-06
3.43057e-06
4.33089e-06
4.02176e-06
3.90255e-06
4.85716e-06
5.15038e-06
5.12259e-06
4.52327e-06
3.33557e-06
3.52743e-06
3.57419e-06
3.26159e-06
2.8731e-06
2.74628e-06
2.53601e-06
2.30048e-06
2.34005e-06
2.22581e-06
1.89248e-06
2.60174e-06
1.79748e-05
1.91422e-05
2.85737e-06
1.66036e-06
1.94984e-06
1.71445e-06
1.57906e-06
1.89204e-06
2.86799e-06
2.62027e-06
3.63543e-06
4.49463e-06
4.09664e-06
5.24415e-06
6.01844e-06
6.0861e-06
5.88411e-06
5.49473e-06
4.29763e-06
3.66053e-06
3.73597e-06
3.55569e-06
2.5798e-06
2.29893e-06
2.01544e-06
1.71929e-06
1.72274e-06
1.69208e-06
1.46084e-06
2.50001e-06
1.90711e-05
1.99942e-05
2.34727e-06
7.84567e-07
1.10223e-06
1.13893e-06
8.87102e-07
1.40575e-06
2.77777e-06
2.99749e-06
3.21184e-06
3.2965e-06
4.47298e-06
5.17999e-06
6.13045e-06
6.12864e-06
5.92515e-06
5.45872e-06
4.51832e-06
4.20941e-06
2.80101e-06
3.03383e-06
2.46069e-06
1.73864e-06
1.37087e-06
1.23156e-06
1.14927e-06
1.05602e-06
8.98988e-07
2.45882e-06
1.99569e-05
1.96288e-05
2.53111e-06
5.59712e-07
4.30979e-07
5.66463e-07
5.99414e-07
1.05343e-06
1.67467e-06
2.56116e-06
3.16507e-06
3.52904e-06
4.31073e-06
3.8285e-06
4.65298e-06
5.40969e-06
5.59084e-06
4.85078e-06
4.32324e-06
4.43368e-06
3.78597e-06
3.60446e-06
2.83016e-06
1.79584e-06
1.21606e-06
1.13517e-06
1.00263e-06
8.16404e-07
8.29473e-07
2.43666e-06
2.06813e-05
2.00889e-05
2.7868e-06
6.7069e-07
3.70638e-07
6.26951e-07
9.83134e-07
1.11135e-06
1.49347e-06
2.56692e-06
3.40128e-06
3.51286e-06
3.89172e-06
3.39516e-06
4.42905e-06
5.48585e-06
5.6521e-06
4.90347e-06
4.40904e-06
4.81869e-06
4.11143e-06
3.62204e-06
2.93231e-06
1.60249e-06
9.77842e-07
8.81845e-07
7.44115e-07
7.3042e-07
6.37509e-07
2.15599e-06
2.06715e-05
1.94632e-05
2.98512e-06
8.88869e-07
9.8204e-07
9.89016e-07
1.29526e-06
1.25962e-06
1.49466e-06
2.28284e-06
2.87976e-06
2.87699e-06
4.02629e-06
4.12265e-06
5.11199e-06
5.76046e-06
5.90579e-06
5.60148e-06
4.72577e-06
4.4619e-06
2.8073e-06
3.39861e-06
2.87812e-06
1.71136e-06
1.21787e-06
8.17547e-07
6.47107e-07
1.24434e-06
1.19005e-06
2.15268e-06
2.07196e-05
1.93383e-05
3.00734e-06
1.45394e-06
1.63263e-06
1.45688e-06
1.56372e-06
1.80863e-06
1.91113e-06
2.1319e-06
3.25717e-06
3.89369e-06
3.76533e-06
4.19516e-06
5.21227e-06
5.9261e-06
6.19355e-06
5.67027e-06
4.49491e-06
3.54567e-06
2.96903e-06
3.69426e-06
2.67889e-06
2.38857e-06
2.10429e-06
1.5483e-06
1.55141e-06
2.27379e-06
2.20918e-06
2.81086e-06
2.04781e-05
1.81595e-05
3.23963e-06
2.00601e-06
2.19901e-06
2.40016e-06
2.61438e-06
2.68544e-06
2.54018e-06
2.48138e-06
2.96258e-06
3.65337e-06
3.52183e-06
3.05775e-06
4.13751e-06
5.16401e-06
5.67672e-06
4.67832e-06
3.48357e-06
2.95295e-06
3.16974e-06
3.28255e-06
3.02551e-06
2.64553e-06
2.47636e-06
2.19091e-06
2.13155e-06
2.61564e-06
2.5246e-06
3.52888e-06
1.9733e-05
1.73435e-05
3.43395e-06
2.1543e-06
2.26246e-06
2.98218e-06
3.28069e-06
2.85192e-06
2.38378e-06
2.17321e-06
2.23537e-06
2.43459e-06
3.0799e-06
2.62826e-06
3.21061e-06
3.87368e-06
4.84769e-06
4.26519e-06
3.26947e-06
2.97584e-06
2.61117e-06
2.76074e-06
2.85444e-06
2.79741e-06
2.90968e-06
3.01918e-06
2.69297e-06
2.44746e-06
2.24221e-06
3.80602e-06
1.83729e-05
1.62019e-05
3.95831e-06
2.67823e-06
2.60177e-06
3.72193e-06
3.9865e-06
3.0116e-06
2.15039e-06
1.82802e-06
1.80322e-06
1.86004e-06
2.54283e-06
2.67859e-06
3.12074e-06
2.29203e-06
2.75528e-06
2.60055e-06
2.96765e-06
2.74856e-06
2.35869e-06
2.5873e-06
2.52915e-06
2.64565e-06
3.28086e-06
3.99725e-06
3.73233e-06
2.77855e-06
2.27188e-06
3.83041e-06
1.66758e-05
1.51126e-05
4.0729e-06
2.79105e-06
3.43962e-06
4.4428e-06
3.99564e-06
2.84534e-06
2.00843e-06
1.60596e-06
1.65972e-06
2.28561e-06
3.21699e-06
2.66517e-06
2.88402e-06
3.3711e-06
3.49579e-06
3.36024e-06
3.76886e-06
3.54264e-06
2.73463e-06
2.46334e-06