/*--------------------------------*- C++ -*----------------------------------*\
| =========                 |                                                 |
| \\      /  F ield         | OpenFOAM: The Open Source CFD Toolbox           |
|  \\    /   O peration     | Version:  v1906                                 |
|   \\  /    A nd           | Web:      www.OpenFOAM.com                      |
|    \\/     M anipulation  |                                                 |
\*---------------------------------------------------------------------------*/
FoamFile
{
    version     2.0;
    format      ascii;
    class       volScalarField;
    location    "0.71/oil";
    object      alphat;
}
// * * * * * * * * * * * * * * * * * * * * * * * * * * * * * * * * * * * * * //

dimensions      [1 -1 -1 0 0 0 0];


internalField   nonuniform List<scalar> 
168664
(
0.00255156
0.000279083
0.000286721
7.88451e-05
6.88821e-05
3.33983e-05
2.29795e-05
1.74717e-05
1.17313e-05
1.26277e-05
1.13683e-05
1.36363e-05
1.26469e-05
1.30876e-05
1.17948e-05
1.18254e-05
1.07743e-05
9.96944e-06
8.96504e-06
8.10946e-06
7.5036e-06
7.60442e-06
7.38883e-06
6.84191e-06
5.87744e-06
4.68732e-06
3.53634e-06
2.60875e-06
1.8415e-06
5.93489e-07
0.000278217
0.000327863
7.26323e-05
6.31524e-05
2.72582e-05
2.07519e-05
1.38597e-05
1.16924e-05
9.48942e-06
9.96127e-06
1.01791e-05
1.13598e-05
1.10034e-05
1.13913e-05
1.06782e-05
1.07467e-05
9.89753e-06
9.33022e-06
8.46799e-06
7.93849e-06
7.53102e-06
7.55358e-06
7.2743e-06
6.76569e-06
6.18489e-06
5.38436e-06
4.63744e-06
3.69868e-06
3.73958e-06
2.24897e-06
0.000284081
7.26621e-05
6.6869e-05
4.295e-05
3.25274e-05
2.33217e-05
1.77699e-05
1.39123e-05
1.19488e-05
1.10696e-05
1.10597e-05
1.11708e-05
1.06437e-05
1.09891e-05
1.0356e-05
1.03366e-05
9.56382e-06
9.09073e-06
8.28548e-06
7.88751e-06
7.69291e-06
7.78025e-06
7.6363e-06
7.26156e-06
6.75896e-06
6.13318e-06
5.57727e-06
5.15444e-06
5.98558e-06
4.87618e-06
8.27921e-05
6.53438e-05
4.52761e-05
3.42272e-05
2.43964e-05
1.87098e-05
1.57753e-05
1.29695e-05
1.22411e-05
1.11925e-05
1.12079e-05
1.07745e-05
1.06676e-05
1.09761e-05
1.04396e-05
1.02256e-05
9.53367e-06
9.07331e-06
8.41403e-06
8.08418e-06
7.86175e-06
7.95036e-06
8.02914e-06
7.81823e-06
7.28662e-06
6.65609e-06
6.23227e-06
6.50058e-06
7.58416e-06
6.97195e-06
7.08952e-05
3.12e-05
3.44527e-05
2.46896e-05
2.32231e-05
1.90653e-05
1.71611e-05
1.48997e-05
1.38555e-05
1.27438e-05
1.22196e-05
1.14887e-05
1.12186e-05
1.13453e-05
1.06735e-05
1.02454e-05
9.53967e-06
9.13108e-06
8.7213e-06
8.74889e-06
8.49854e-06
8.58238e-06
8.62246e-06
8.55546e-06
8.12237e-06
7.66286e-06
7.43223e-06
8.02301e-06
9.25935e-06
9.1976e-06
4.43481e-05
2.97425e-05
3.0442e-05
2.28524e-05
2.19425e-05
1.7166e-05
1.65256e-05
1.3908e-05
1.36598e-05
1.24857e-05
1.23539e-05
1.14003e-05
1.10871e-05
1.12692e-05
1.07663e-05
1.00565e-05
9.41372e-06
8.89817e-06
8.84425e-06
9.10082e-06
8.89113e-06
8.82172e-06
8.7685e-06
8.75892e-06
8.45754e-06
8.3568e-06
8.37892e-06
9.21861e-06
1.04817e-05
1.08993e-05
3.31388e-05
2.32597e-05
2.38802e-05
1.95219e-05
1.94746e-05
1.66305e-05
1.61005e-05
1.42912e-05
1.37852e-05
1.29302e-05
1.26526e-05
1.18716e-05
1.15992e-05
1.20828e-05
1.14388e-05
1.03947e-05
9.49622e-06
8.89465e-06
8.80183e-06
9.08977e-06
8.87763e-06
8.91649e-06
8.93869e-06
9.11701e-06
9.10334e-06
9.38005e-06
9.73159e-06
1.07304e-05
1.20154e-05
1.29318e-05
3.27784e-05
2.46253e-05
2.46004e-05
2.02803e-05
1.99724e-05
1.65097e-05
1.61024e-05
1.36792e-05
1.33302e-05
1.21251e-05
1.22226e-05
1.16897e-05
1.20964e-05
1.28118e-05
1.23419e-05
1.09511e-05
1.00883e-05
9.23318e-06
8.99761e-06
8.86351e-06
8.5964e-06
8.64964e-06
8.80641e-06
9.22001e-06
9.59492e-06
1.02783e-05
1.0913e-05
1.19866e-05
1.32e-05
1.44835e-05
2.70214e-05
2.1691e-05
2.12713e-05
1.87284e-05
1.81832e-05
1.58263e-05
1.51507e-05
1.32498e-05
1.26516e-05
1.16682e-05
1.1889e-05
1.2137e-05
1.28396e-05
1.35654e-05
1.29603e-05
1.1565e-05
1.04317e-05
9.44346e-06
8.97289e-06
8.68278e-06
8.36565e-06
8.67302e-06
9.03096e-06
9.78945e-06
1.05055e-05
1.14476e-05
1.23284e-05
1.33974e-05
1.44441e-05
1.60465e-05
2.87918e-05
2.31585e-05
2.27311e-05
2.01077e-05
1.92574e-05
1.64428e-05
1.55026e-05
1.31537e-05
1.239e-05
1.11277e-05
1.16122e-05
1.20102e-05
1.27176e-05
1.28255e-05
1.24749e-05
1.14474e-05
1.03026e-05
9.30893e-06
8.90822e-06
8.52592e-06
8.28649e-06
8.73188e-06
9.27738e-06
1.01833e-05
1.09653e-05
1.21051e-05
1.32015e-05
1.42197e-05
1.51635e-05
1.70009e-05
2.62357e-05
2.16799e-05
2.10028e-05
1.91708e-05
1.81956e-05
1.6174e-05
1.51978e-05
1.3176e-05
1.22884e-05
1.13075e-05
1.17376e-05
1.20531e-05
1.18386e-05
1.10874e-05
1.04151e-05
9.80516e-06
8.98461e-06
8.54536e-06
8.43051e-06
8.49937e-06
8.56885e-06
9.35729e-06
1.00925e-05
1.1181e-05
1.19933e-05
1.32611e-05
1.4412e-05
1.52601e-05
1.6089e-05
1.81099e-05
2.79371e-05
2.29543e-05
2.21609e-05
2.03141e-05
1.9523e-05
1.76968e-05
1.68259e-05
1.45027e-05
1.31766e-05
1.15021e-05
1.11743e-05
1.06111e-05
9.56518e-06
8.20695e-06
7.52078e-06
6.9907e-06
6.62368e-06
7.03561e-06
7.54571e-06
8.18394e-06
8.81761e-06
9.98727e-06
1.09522e-05
1.2308e-05
1.32121e-05
1.44371e-05
1.53618e-05
1.59956e-05
1.6723e-05
1.89015e-05
2.61344e-05
2.207e-05
2.14654e-05
2.03434e-05
1.96584e-05
1.82834e-05
1.74475e-05
1.52996e-05
1.37457e-05
1.13414e-05
1.00081e-05
8.54622e-06
6.93192e-06
5.86683e-06
4.97815e-06
4.50188e-06
4.40155e-06
5.11667e-06
6.05741e-06
7.33826e-06
8.6915e-06
1.07291e-05
1.2013e-05
1.343e-05
1.43315e-05
1.549e-05
1.62416e-05
1.68675e-05
1.76775e-05
2.02413e-05
2.6141e-05
2.20143e-05
2.15648e-05
2.06482e-05
2.00207e-05
1.86011e-05
1.78138e-05
1.59959e-05
1.46593e-05
1.14686e-05
8.93279e-06
6.18944e-06
4.31447e-06
2.98851e-06
2.53023e-06
2.13107e-06
2.52464e-06
3.84615e-06
4.79541e-06
6.74568e-06
8.63126e-06
1.13123e-05
1.28564e-05
1.42982e-05
1.50193e-05
1.61246e-05
1.6869e-05
1.7597e-05
1.84977e-05
2.14828e-05
2.48298e-05
2.10746e-05
2.05677e-05
1.98057e-05
1.9222e-05
1.80561e-05
1.72822e-05
1.57969e-05
1.47053e-05
1.1838e-05
9.31184e-06
6.88036e-06
5.28853e-06
3.56835e-06
2.33075e-06
2.30877e-06
3.38614e-06
4.71346e-06
5.52399e-06
7.35713e-06
9.12162e-06
1.18645e-05
1.36211e-05
1.51862e-05
1.59249e-05
1.69827e-05
1.77404e-05
1.8499e-05
1.93576e-05
2.26494e-05
2.496e-05
2.10712e-05
2.04861e-05
1.97059e-05
1.91698e-05
1.80343e-05
1.72464e-05
1.55926e-05
1.42335e-05
1.15936e-05
9.46755e-06
7.31321e-06
5.89935e-06
3.89168e-06
1.91298e-06
2.37793e-06
3.72825e-06
5.31145e-06
5.98614e-06
7.7848e-06
9.40871e-06
1.21516e-05
1.37109e-05
1.52826e-05
1.59674e-05
1.70767e-05
1.78121e-05
1.86134e-05
1.93213e-05
2.25064e-05
2.31742e-05
1.98168e-05
1.91847e-05
1.85213e-05
1.79872e-05
1.69681e-05
1.62519e-05
1.48621e-05
1.33725e-05
1.06654e-05
8.09958e-06
5.90818e-06
4.65332e-06
3.10048e-06
2.02324e-06
2.4315e-06
3.5349e-06
5.53739e-06
6.53352e-06
8.35633e-06
1.00529e-05
1.25747e-05
1.39375e-05
1.52818e-05
1.60052e-05
1.71652e-05
1.79755e-05
1.86992e-05
1.92896e-05
2.23381e-05
2.23592e-05
1.92602e-05
1.85985e-05
1.7893e-05
1.72938e-05
1.61418e-05
1.53239e-05
1.38536e-05
1.25963e-05
1.02887e-05
8.41381e-06
6.8335e-06
5.5488e-06
4.69083e-06
4.36779e-06
4.26732e-06
4.3732e-06
6.365e-06
7.93825e-06
9.73253e-06
1.0512e-05
1.24818e-05
1.34864e-05
1.49583e-05
1.57909e-05
1.69908e-05
1.78394e-05
1.87412e-05
1.94893e-05
2.25726e-05
2.09382e-05
1.83295e-05
1.75917e-05
1.68206e-05
1.60759e-05
1.49291e-05
1.40198e-05
1.26234e-05
1.15426e-05
1.02197e-05
9.39848e-06
8.48401e-06
7.40186e-06
6.66631e-06
6.63409e-06
6.36681e-06
6.28177e-06
7.57425e-06
8.93823e-06
1.00943e-05
1.03697e-05
1.13741e-05
1.21596e-05
1.36223e-05
1.44829e-05
1.54993e-05
1.63787e-05
1.76441e-05
1.88154e-05
2.19864e-05
1.99613e-05
1.74139e-05
1.65515e-05
1.55432e-05
1.46295e-05
1.34246e-05
1.26405e-05
1.1486e-05
1.07141e-05
9.8133e-06
9.6485e-06
9.30882e-06
8.85479e-06
8.74176e-06
9.00525e-06
8.85383e-06
8.81589e-06
9.36197e-06
9.55449e-06
9.81322e-06
9.59431e-06
1.0288e-05
1.08513e-05
1.21348e-05
1.29091e-05
1.39624e-05
1.48836e-05
1.62336e-05
1.74478e-05
2.03558e-05
1.82726e-05
1.60529e-05
1.52958e-05
1.42278e-05
1.3259e-05
1.22644e-05
1.15667e-05
1.06229e-05
9.94755e-06
9.37852e-06
9.41461e-06
9.32816e-06
9.3847e-06
9.92796e-06
1.08332e-05
1.12027e-05
1.11596e-05
1.07059e-05
1.01475e-05
9.72497e-06
9.18284e-06
9.57984e-06
1.00695e-05
1.12125e-05
1.19212e-05
1.29733e-05
1.38485e-05
1.50539e-05
1.61143e-05
1.83352e-05
1.70934e-05
1.52678e-05
1.46014e-05
1.34907e-05
1.25448e-05
1.16758e-05
1.10938e-05
1.03258e-05
9.80738e-06
9.38267e-06
9.17077e-06
8.74581e-06
8.97569e-06
9.90228e-06
1.10449e-05
1.19065e-05
1.18305e-05
1.05986e-05
9.65346e-06
9.39109e-06
9.04909e-06
9.44246e-06
9.74857e-06
1.06143e-05
1.10804e-05
1.19668e-05
1.26674e-05
1.38232e-05
1.49038e-05
1.66912e-05
1.53622e-05
1.39698e-05
1.31105e-05
1.20539e-05
1.13814e-05
1.07312e-05
1.03419e-05
9.87718e-06
9.61388e-06
9.43884e-06
9.10063e-06
8.38029e-06
8.38908e-06
9.31663e-06
1.0435e-05
1.12841e-05
1.11389e-05
9.93377e-06
9.27099e-06
9.39745e-06
9.26725e-06
9.4456e-06
9.46533e-06
9.95006e-06
1.0133e-05
1.07788e-05
1.13365e-05
1.24544e-05
1.35514e-05
1.4876e-05
1.37851e-05
1.26721e-05
1.15976e-05
1.07221e-05
1.03191e-05
9.95517e-06
9.85009e-06
9.69104e-06
9.61346e-06
9.44716e-06
8.94436e-06
8.19831e-06
7.93521e-06
8.49006e-06
9.36666e-06
1.00211e-05
9.97792e-06
9.31526e-06
9.0066e-06
9.34603e-06
9.35155e-06
9.52224e-06
9.38604e-06
9.59204e-06
9.51489e-06
9.81758e-06
1.01032e-05
1.11565e-05
1.22837e-05
1.32605e-05
1.14906e-05
1.08985e-05
9.83895e-06
9.23877e-06
9.0531e-06
8.92051e-06
9.07428e-06
9.20891e-06
9.3819e-06
9.23057e-06
8.60508e-06
8.00616e-06
8.01258e-06
8.29239e-06
8.79919e-06
9.08843e-06
9.36521e-06
9.17359e-06
8.88655e-06
8.95419e-06
9.06498e-06
9.29831e-06
9.13731e-06
9.20303e-06
8.92827e-06
8.89236e-06
8.80828e-06
9.75214e-06
1.08973e-05
1.14267e-05
9.60023e-06
9.38848e-06
8.28574e-06
7.90216e-06
8.06824e-06
8.2789e-06
8.54351e-06
8.84639e-06
9.14597e-06
9.1343e-06
8.53076e-06
8.01821e-06
8.21145e-06
8.42471e-06
8.53869e-06
8.49856e-06
8.95719e-06
9.07503e-06
8.66144e-06
8.49209e-06
8.48938e-06
8.80019e-06
8.73374e-06
8.76776e-06
8.40899e-06
8.00251e-06
7.68022e-06
8.43361e-06
9.62251e-06
9.73656e-06
7.37616e-06
7.66277e-06
6.47347e-06
6.33278e-06
6.84093e-06
7.24906e-06
7.65728e-06
8.11527e-06
8.50616e-06
8.73052e-06
8.34316e-06
8.11511e-06
8.44364e-06
8.55002e-06
8.39561e-06
8.10407e-06
8.56577e-06
8.70315e-06
8.48315e-06
8.19564e-06
7.96031e-06
7.98366e-06
7.8443e-06
7.79901e-06
7.4567e-06
7.01131e-06
6.53748e-06
6.95764e-06
8.02926e-06
7.63154e-06
5.24041e-06
6.11107e-06
5.03547e-06
5.48117e-06
6.00859e-06
6.57606e-06
7.1403e-06
7.70445e-06
8.19792e-06
8.48083e-06
8.28822e-06
8.26613e-06
8.59203e-06
8.57378e-06
8.40463e-06
8.03642e-06
8.20526e-06
8.37496e-06
8.34552e-06
8.19801e-06
7.7198e-06
7.54435e-06
7.26236e-06
7.18357e-06
6.93453e-06
6.52328e-06
5.93444e-06
5.49606e-06
6.36739e-06
5.44345e-06
2.72566e-06
4.10223e-06
3.92274e-06
4.74076e-06
5.32594e-06
6.12513e-06
6.80491e-06
7.54378e-06
8.22417e-06
8.69371e-06
8.81295e-06
8.84219e-06
9.04954e-06
9.06184e-06
9.14932e-06
8.7935e-06
8.79079e-06
8.85371e-06
8.77338e-06
8.39472e-06
7.65559e-06
7.30803e-06
6.93849e-06
6.7677e-06
6.34584e-06
5.63665e-06
4.88051e-06
3.81731e-06
3.96352e-06
2.60351e-06
1.26216e-06
2.47725e-06
3.4401e-06
4.36152e-06
5.27793e-06
6.22355e-06
7.04223e-06
7.9249e-06
8.78795e-06
9.27398e-06
9.49867e-06
9.6364e-06
9.69188e-06
9.91316e-06
9.84498e-06
9.37878e-06
9.431e-06
9.56164e-06
9.4514e-06
8.69501e-06
7.68781e-06
7.23884e-06
6.72371e-06
6.44834e-06
5.69967e-06
4.66767e-06
3.50861e-06
2.43864e-06
1.74486e-06
6.8958e-07
0.000277751
0.000335636
7.47315e-05
6.51073e-05
2.74428e-05
2.10968e-05
1.36452e-05
1.19772e-05
8.89955e-06
9.93546e-06
9.18444e-06
1.10228e-05
1.0259e-05
1.14648e-05
1.07461e-05
1.10135e-05
1.02166e-05
9.3028e-06
8.86444e-06
7.87707e-06
7.52455e-06
6.9487e-06
7.01518e-06
6.45554e-06
6.15316e-06
5.15547e-06
4.41541e-06
3.338e-06
2.86198e-06
1.83197e-06
0.000333039
6.51028e-05
5.38435e-05
2.51235e-05
1.28727e-05
9.83587e-06
6.89892e-06
5.1822e-06
4.57338e-06
4.48412e-06
4.93901e-06
4.34568e-06
3.67913e-06
3.6551e-06
3.86717e-06
3.97953e-06
3.75188e-06
3.68787e-06
3.33707e-06
3.17294e-06
2.99563e-06
3.59409e-06
4.05781e-06
4.51961e-06
4.37413e-06
3.99412e-06
3.44559e-06
3.0673e-06
4.21993e-06
3.77803e-06
7.24927e-05
5.48148e-05
2.76685e-05
2.51856e-05
1.36027e-05
1.20576e-05
8.5943e-06
6.5729e-06
5.59409e-06
5.68933e-06
6.43313e-06
6.3912e-06
4.91571e-06
3.78812e-06
3.48045e-06
3.32445e-06
2.73422e-06
2.27565e-06
2.2122e-06
2.84638e-06
3.20505e-06
4.38236e-06
5.14772e-06
5.34593e-06
5.2773e-06
5.08289e-06
4.2259e-06
4.00378e-06
4.76451e-06
6.04654e-06
6.5443e-05
2.27434e-05
2.31247e-05
1.45967e-05
8.13184e-06
7.84296e-06
5.02877e-06
5.18038e-06
4.9165e-06
5.32373e-06
5.85142e-06
6.13821e-06
4.63274e-06
3.41823e-06
2.96226e-06
2.8617e-06
2.81402e-06
2.1995e-06
2.51192e-06
3.6543e-06
4.42677e-06
5.09416e-06
4.82891e-06
4.7885e-06
5.12863e-06
5.24928e-06
4.597e-06
4.60244e-06
4.50062e-06
7.65263e-06
3.08756e-05
1.09616e-05
1.09525e-05
8.69074e-06
5.51208e-06
5.95699e-06
4.14685e-06
4.25579e-06
3.83506e-06
3.78237e-06
3.80313e-06
4.18063e-06
2.92066e-06
2.60926e-06
2.53213e-06
2.59348e-06
2.7298e-06
2.12295e-06
2.71389e-06
3.96089e-06
4.37975e-06
3.75931e-06
2.74894e-06
2.85438e-06
3.4455e-06
4.08664e-06
4.33876e-06
4.73217e-06
4.22413e-06
9.37864e-06
2.93205e-05
6.77932e-06
9.76947e-06
7.8707e-06
5.3386e-06
5.19942e-06
3.03179e-06
3.15385e-06
2.23465e-06
2.43061e-06
2.68184e-06
3.1823e-06
2.60328e-06
2.55542e-06
2.65152e-06
2.77929e-06
2.94463e-06
2.64405e-06
3.29128e-06
3.7132e-06
3.31435e-06
2.25734e-06
1.41916e-06
1.70521e-06
2.15646e-06
3.12569e-06
3.94165e-06
4.5882e-06
3.95532e-06
1.05957e-05
2.32672e-05
4.30087e-06
6.35444e-06
4.77883e-06
3.90678e-06
3.7863e-06
2.74026e-06
2.75614e-06
2.03368e-06
2.17757e-06
2.40789e-06
3.02738e-06
2.6095e-06
2.7153e-06
3.00027e-06
2.94497e-06
3.09903e-06
3.20895e-06
3.7285e-06
3.1469e-06
2.36707e-06
1.71355e-06
1.35883e-06
1.50485e-06
1.9058e-06
3.07042e-06
3.93607e-06
4.47805e-06
3.94875e-06
1.20897e-05
2.45616e-05
2.31757e-06
5.3784e-06
5.30697e-06
4.49952e-06
4.26603e-06
3.27332e-06
3.14718e-06
2.37358e-06
2.36663e-06
2.47056e-06
2.78487e-06
2.29364e-06
2.39025e-06
2.91379e-06
2.72578e-06
2.76874e-06
3.26264e-06
3.51367e-06
2.72105e-06
1.87684e-06
1.64447e-06
1.41444e-06
1.6421e-06
2.18273e-06
3.29814e-06
3.94063e-06
4.3373e-06
3.8989e-06
1.32285e-05
2.17372e-05
2.70215e-06
3.8206e-06
3.82389e-06
3.80679e-06
3.63335e-06
3.13857e-06
3.049e-06
2.72289e-06
2.70968e-06
2.64355e-06
2.1492e-06
1.16999e-06
2.49961e-06
3.43157e-06
2.95942e-06
2.08544e-06
2.42998e-06
2.89801e-06
2.58136e-06
2.0309e-06
1.96483e-06
1.79519e-06
2.14082e-06
2.63773e-06
3.43842e-06
3.74886e-06
3.9006e-06
3.67586e-06
1.45104e-05
2.3022e-05
2.14063e-06
3.02713e-06
3.41472e-06
3.65572e-06
3.79842e-06
3.47834e-06
3.43604e-06
3.30303e-06
3.16582e-06
2.92203e-06
1.77759e-06
1.60646e-06
3.67667e-06
4.56892e-06
3.82696e-06
2.41442e-06
1.08179e-06
1.98711e-06
2.53312e-06
2.23073e-06
2.31831e-06
2.21168e-06
2.55173e-06
2.74209e-06
3.16437e-06
3.17368e-06
3.09776e-06
3.20145e-06
1.53599e-05
2.17308e-05
2.58727e-06
2.34646e-06
2.36768e-06
2.48455e-06
2.95335e-06
3.14105e-06
3.4397e-06
3.6027e-06
3.41311e-06
3.08186e-06
2.25491e-06
3.31668e-06
5.06216e-06
5.78068e-06
5.42213e-06
4.41434e-06
1.91363e-06
1.45201e-06
2.50955e-06
2.69418e-06
2.97129e-06
2.90042e-06
3.11193e-06
3.09708e-06
3.15501e-06
2.88586e-06
2.66057e-06
2.87524e-06
1.61636e-05
2.29643e-05
2.6532e-06
2.02492e-06
2.03811e-06
2.12648e-06
2.72972e-06
3.10695e-06
3.62095e-06
4.17522e-06
4.12643e-06
3.34337e-06
3.115e-06
4.03105e-06
4.56679e-06
4.847e-06
4.78565e-06
4.06465e-06
2.69419e-06
1.75831e-06
2.48691e-06
3.156e-06
3.49009e-06
3.35021e-06
3.31428e-06
3.18128e-06
3.09657e-06
2.67497e-06
2.56489e-06
2.65731e-06
1.67013e-05
2.18469e-05
2.74848e-06
1.89905e-06
1.79213e-06
1.71862e-06
2.05745e-06
2.30011e-06
2.97177e-06
3.80071e-06
3.76754e-06
2.83178e-06
4.07423e-06
4.49507e-06
4.42727e-06
4.2751e-06
4.02777e-06
3.67502e-06
2.9902e-06
2.50001e-06
1.97834e-06
3.09174e-06
3.49754e-06
3.17849e-06
2.85797e-06
2.62169e-06
2.56459e-06
2.31948e-06
2.4662e-06
2.73625e-06
1.7753e-05
2.19426e-05
2.45108e-06
1.85536e-06
1.84899e-06
1.86891e-06
1.8484e-06
1.95954e-06
2.63604e-06
3.50406e-06
3.58987e-06
3.58935e-06
4.07885e-06
3.78093e-06
3.53945e-06
3.03388e-06
2.68019e-06
2.0305e-06
2.06663e-06
2.02599e-06
1.95871e-06
2.49191e-06
3.13234e-06
2.8163e-06
2.34662e-06
2.11068e-06
2.1396e-06
2.07228e-06
2.2899e-06
2.7729e-06
1.86332e-05
2.10185e-05
2.7119e-06
2.03901e-06
1.96544e-06
1.95007e-06
2.01027e-06
2.11259e-06
2.66701e-06
3.21426e-06
3.75109e-06
3.83782e-06
3.48149e-06
2.88649e-06
2.42031e-06
2.60535e-06
2.32714e-06
1.89886e-06
2.15537e-06
2.2242e-06
2.74353e-06
3.20118e-06
3.30739e-06
2.7204e-06
2.07559e-06
1.91901e-06
1.94655e-06
1.9494e-06
2.13166e-06
2.81012e-06
1.94234e-05
2.1116e-05
2.92732e-06
2.2529e-06
2.1109e-06
2.18147e-06
2.34779e-06
2.50665e-06
2.92262e-06
3.46535e-06
3.77488e-06
3.2102e-06
2.2652e-06
1.89292e-06
1.9054e-06
2.50949e-06
2.5727e-06
2.22037e-06
2.42226e-06
2.69912e-06
3.29021e-06
3.47854e-06
3.32771e-06
2.54137e-06
1.72626e-06
1.52611e-06
1.65339e-06
1.72757e-06
1.84012e-06
2.42672e-06
1.92842e-05
1.99725e-05
3.01453e-06
2.55442e-06
2.37409e-06
2.4812e-06
2.61846e-06
2.75447e-06
3.19426e-06
3.66542e-06
3.36577e-06
2.79813e-06
2.53883e-06
2.34388e-06
2.4128e-06
3.01203e-06
2.98805e-06
2.72324e-06
2.87011e-06
2.90332e-06
2.72532e-06
2.89685e-06
3.59973e-06
2.81474e-06
1.88415e-06
1.65404e-06
1.86956e-06
2.08819e-06
2.06096e-06
2.43283e-06
1.92402e-05
1.94047e-05
2.96557e-06
2.81006e-06
2.57854e-06
2.77316e-06
2.88828e-06
3.13028e-06
3.3982e-06
3.77118e-06
3.35719e-06
2.66365e-06
2.61715e-06
2.86303e-06
3.19967e-06
3.71807e-06
3.74227e-06
3.89141e-06
3.65591e-06
2.80146e-06
1.68987e-06
3.38953e-06
4.32305e-06
3.45967e-06
2.83678e-06
2.49598e-06
2.49047e-06
2.71198e-06
2.67523e-06
2.89453e-06
1.92551e-05
1.82472e-05
3.26618e-06
3.29446e-06
3.24814e-06
3.58212e-06
3.62184e-06
3.69824e-06
3.66797e-06
3.87291e-06
3.61087e-06
3.35508e-06
2.26954e-06
2.42743e-06
3.28635e-06
4.13627e-06
4.12014e-06
3.99889e-06
3.2938e-06
1.84259e-06
2.0446e-06
3.72138e-06
4.52782e-06
3.87839e-06
3.47117e-06
3.1164e-06
3.11616e-06
3.31351e-06
3.36669e-06
3.45169e-06
1.87907e-05
1.74833e-05
3.37961e-06
3.2586e-06
3.49104e-06
3.80756e-06
3.42624e-06
3.24901e-06
2.96944e-06
3.23026e-06
2.97927e-06
3.11791e-06
1.71753e-06
1.23963e-06
3.11402e-06
4.46866e-06
4.69743e-06
4.41961e-06
2.59421e-06
1.06886e-06
2.48447e-06
3.1554e-06
3.77495e-06
3.30648e-06
3.22817e-06
3.05884e-06
3.3603e-06
3.42796e-06
3.29977e-06
3.44879e-06
1.7663e-05
1.63549e-05
3.72397e-06
3.4189e-06
3.86727e-06
4.10065e-06
3.23258e-06
2.81394e-06
2.42665e-06
2.67615e-06
2.5568e-06
2.9789e-06
2.2513e-06
1.18601e-06
1.15864e-06
2.91113e-06
3.72933e-06
3.42738e-06
1.06466e-06
1.65783e-06
2.98889e-06
2.90657e-06
3.16301e-06
2.76973e-06
2.99559e-06
3.18357e-06
3.89594e-06
3.85323e-06
3.64524e-06
3.51466e-06
1.60675e-05
1.53182e-05
3.85566e-06
3.97969e-06
4.35286e-06
4.11007e-06
3.0061e-06
2.53972e-06
1.96126e-06
2.15769e-06
2.1516e-06
2.83633e-06
2.94995e-06
2.52586e-06
1.62199e-06
2.08903e-06
2.5224e-06
2.03093e-06
1.77443e-06
2.40689e-06
2.84129e-06
2.31884e-06
2.46829e-06
2.12102e-06
2.52132e-06
2.82835e-06
3.8599e-06
4.14159e-06
4.11208e-06
3.55243e-06
1.47745e-05
1.39829e-05
3.90791e-06
4.59017e-06
4.46619e-06
3.78698e-06
2.66216e-06
2.24254e-06
1.58943e-06
1.87038e-06
1.95167e-06
2.7671e-06
3.23085e-06
3.06927e-06
2.9421e-06
3.06041e-06
3.08928e-06
2.10025e-06
2.72439e-06
3.28706e-06
3.07641e-06
2.05569e-06
2.02742e-06
1.68805e-06
2.13306e-06
2.34381e-06
3.57911e-06
4.23199e-06
4.43943e-06
3.74845e-06
1.34965e-05
1.28377e-05
3.90949e-06
4.64527e-06
3.87729e-06
3.17821e-06
2.254e-06
2.02474e-06
1.37514e-06
1.70127e-06
1.96012e-06
2.91287e-06
3.06538e-06
2.87843e-06
3.49733e-06
3.6086e-06
3.21319e-06
2.38768e-06
3.35407e-06
3.92772e-06
3.92231e-06
2.66009e-06
1.92574e-06
1.40891e-06
1.82073e-06
1.92621e-06
3.14185e-06
4.08212e-06
4.59205e-06
3.81252e-06
1.23029e-05
1.10871e-05
4.00445e-06
4.57254e-06
3.42579e-06
2.7367e-06
2.03271e-06
2.28297e-06
1.90365e-06
2.11966e-06
2.32745e-06
3.15841e-06
2.815e-06
2.53563e-06
3.55018e-06
3.68728e-06
3.12361e-06
2.74023e-06
3.41144e-06
4.05177e-06
4.73519e-06
3.89786e-06
2.77693e-06
1.865e-06
2.21051e-06
2.35735e-06
3.49465e-06
4.25172e-06
4.98373e-06
4.11787e-06
1.09681e-05
9.6739e-06
3.97905e-06
4.33082e-06
3.15574e-06
2.72447e-06
2.42175e-06
2.90487e-06
2.82885e-06
3.24939e-06
3.24923e-06
3.42545e-06
2.40058e-06
2.32069e-06
3.3833e-06
3.62779e-06
3.17105e-06
2.86747e-06
3.18232e-06
3.78331e-06
4.85552e-06
4.77497e-06
4.31801e-06
3.39727e-06
3.58922e-06
3.8193e-06
4.59184e-06
4.53588e-06
5.14402e-06
4.46851e-06
9.69702e-06
8.08945e-06
4.23257e-06
4.31126e-06
3.40091e-06
3.68285e-06
3.69083e-06
4.12908e-06
4.18054e-06
4.86599e-06
4.93574e-06
4.48775e-06
2.47667e-06
2.21518e-06
3.33749e-06
4.09259e-06
3.70828e-06
3.53245e-06
3.94278e-06
4.32836e-06
5.17339e-06
5.24133e-06
5.68229e-06
5.54442e-06
5.88376e-06
5.86186e-06
5.89527e-06
4.82944e-06
5.03913e-06
4.87463e-06
8.08136e-06
6.65792e-06
4.71988e-06
4.23229e-06
3.94554e-06
4.29939e-06
4.09082e-06
4.32263e-06
4.30776e-06
5.00387e-06
5.29913e-06
4.99225e-06
2.91119e-06
2.31661e-06
3.34004e-06
4.01872e-06
3.52382e-06
3.35387e-06
3.93706e-06
4.10637e-06
4.32683e-06
4.0623e-06
4.76189e-06
5.20405e-06
6.05449e-06
5.85846e-06
5.52079e-06
4.23544e-06
4.11783e-06
4.94791e-06
6.44494e-06
4.58509e-06
4.72283e-06
3.7248e-06
3.99739e-06
4.05285e-06
3.88047e-06
4.17127e-06
4.2742e-06
4.91277e-06
5.26866e-06
5.2809e-06
4.21669e-06
3.98962e-06
3.71855e-06
3.51569e-06
2.87679e-06
3.01417e-06
3.48785e-06
3.44984e-06
3.54437e-06
3.16873e-06
3.76071e-06
3.88398e-06
4.60834e-06
4.42796e-06
4.11962e-06
3.38741e-06
3.05936e-06
4.22148e-06
4.03743e-06
2.84517e-06
3.78199e-06
4.16841e-06
4.92622e-06
5.49382e-06
6.31149e-06
6.98251e-06
8.12264e-06
8.88444e-06
1.00083e-05
9.84467e-06
9.93131e-06
9.32282e-06
9.45564e-06
9.26914e-06
8.94791e-06
9.06629e-06
8.86826e-06
9.14791e-06
8.4644e-06
7.95994e-06
7.22737e-06
6.88907e-06
6.48346e-06
6.10573e-06
5.18123e-06
4.30849e-06
3.1752e-06
2.74052e-06
1.95631e-06
0.000287359
7.48106e-05
6.6909e-05
4.18372e-05
2.94104e-05
2.26199e-05
1.52664e-05
1.29217e-05
8.66659e-06
8.7366e-06
7.99312e-06
8.4172e-06
8.48664e-06
7.6886e-06
7.84749e-06
8.02611e-06
7.50464e-06
8.2437e-06
7.06972e-06
7.82494e-06
5.89992e-06
6.79573e-06
6.16158e-06
7.32636e-06
6.61889e-06
6.24906e-06
5.09907e-06
4.01399e-06
3.07704e-06
2.56464e-06
7.23233e-05
5.50444e-05
2.83475e-05
2.58842e-05
1.21037e-05
1.04292e-05
7.34286e-06
6.23132e-06
5.89652e-06
5.30442e-06
4.29421e-06
3.32088e-06
2.63684e-06
2.92327e-06
3.3434e-06
2.91508e-06
3.20878e-06
3.27037e-06
3.30839e-06
2.53298e-06
1.76383e-06
2.16576e-06
3.12718e-06
3.58577e-06
3.35148e-06
2.75847e-06
2.63954e-06
2.73229e-06
3.2806e-06
3.59716e-06
6.5385e-05
2.91436e-05
2.54635e-05
2.42611e-05
1.5255e-05
1.26815e-05
8.61215e-06
7.11637e-06
6.87585e-06
7.16611e-06
6.50805e-06
5.63669e-06
4.40506e-06
4.01535e-06
3.86053e-06
3.60453e-06
3.98221e-06
3.50042e-06
3.51969e-06
2.99076e-06
2.76935e-06
3.40591e-06
4.96597e-06
5.51297e-06
4.32891e-06
3.17851e-06
3.3783e-06
4.39401e-06
4.10876e-06
5.33443e-06
4.46701e-05
2.39913e-05
2.2607e-05
1.77884e-05
1.11729e-05
9.84771e-06
6.31442e-06
5.55448e-06
4.91347e-06
6.14994e-06
7.00205e-06
7.26349e-06
6.23669e-06
5.32149e-06
4.53952e-06
4.23394e-06
4.03127e-06
3.21717e-06
3.52567e-06
3.16852e-06
2.78989e-06
4.68157e-06
6.66994e-06
6.72538e-06
5.47698e-06
3.96295e-06
3.9658e-06
4.6971e-06
4.40664e-06
6.86004e-06
3.34291e-05
1.16767e-05
1.30558e-05
1.05874e-05
8.09877e-06
7.90834e-06
5.9297e-06
5.35443e-06
4.66534e-06
5.83707e-06
7.55107e-06
7.86252e-06
5.95975e-06
4.9069e-06
4.18614e-06
3.9008e-06
3.399e-06
2.80036e-06
3.3969e-06
3.62349e-06
4.88253e-06
6.22034e-06
6.6968e-06
6.45639e-06
5.93281e-06
4.70993e-06
4.62719e-06
4.16418e-06
4.50522e-06
8.46734e-06
3.0269e-05
9.45511e-06
1.1564e-05
9.15377e-06
7.07043e-06
5.98968e-06
4.16966e-06
3.47148e-06
2.7814e-06
3.77751e-06
5.21975e-06
5.3362e-06
3.66868e-06
3.06641e-06
2.45943e-06
2.53875e-06
2.45909e-06
2.45014e-06
2.81035e-06
3.70559e-06
4.35365e-06
4.13653e-06
3.55344e-06
3.78454e-06
4.47637e-06
4.66706e-06
4.82767e-06
3.52144e-06
4.44967e-06
9.66499e-06
2.41639e-05
5.58151e-06
6.93355e-06
5.34921e-06
4.63239e-06
4.12286e-06
2.9389e-06
2.69059e-06
2.29622e-06
2.88514e-06
3.74647e-06
4.12414e-06
2.82866e-06
2.58101e-06
2.17832e-06
2.2774e-06
2.29172e-06
2.2976e-06
3.10091e-06
3.49038e-06
2.89026e-06
2.01738e-06
1.43948e-06
2.01822e-06
3.55873e-06
4.51074e-06
4.47031e-06
2.99321e-06
4.42106e-06
1.10612e-05
2.46776e-05
4.04059e-06
5.52457e-06
5.67415e-06
5.26512e-06
4.68401e-06
3.45362e-06
3.13441e-06
2.41589e-06
2.51317e-06
2.95556e-06
3.60806e-06
2.68195e-06
2.80797e-06
1.92494e-06
1.61679e-06
1.51873e-06
2.25438e-06
3.23365e-06
2.84776e-06
1.73305e-06
1.19848e-06
1.09338e-06
1.85238e-06
3.32992e-06
4.08403e-06
3.88997e-06
2.8319e-06
4.2753e-06
1.22007e-05
2.13114e-05
3.50628e-06
3.14205e-06
2.96669e-06
3.41739e-06
3.72865e-06
3.11304e-06
2.91007e-06
2.41058e-06
2.4748e-06
2.57227e-06
2.89714e-06
2.61755e-06
3.16191e-06
2.06462e-06
1.49292e-06
1.53667e-06
1.61608e-06
2.49516e-06
2.22801e-06
1.63577e-06
1.39703e-06
1.58042e-06
2.26321e-06
3.17313e-06
3.50252e-06
3.45103e-06
2.78426e-06
3.96658e-06
1.35701e-05
2.20342e-05
3.25261e-06
2.72286e-06
2.26811e-06
2.59477e-06
3.40195e-06
3.40233e-06
3.26934e-06
2.68184e-06
2.60296e-06
2.31825e-06
2.5988e-06
2.60381e-06
3.06835e-06
2.96345e-06
2.20186e-06
2.52491e-06
1.9503e-06
1.62168e-06
1.50072e-06
1.58211e-06
1.56877e-06
1.96659e-06
2.51597e-06
2.72724e-06
2.76724e-06
2.6751e-06
2.18189e-06
3.40163e-06
1.46718e-05
2.04791e-05
3.08072e-06
1.99958e-06
1.65652e-06
1.39595e-06
1.8586e-06
2.50715e-06
3.06724e-06
2.78034e-06
2.6859e-06
2.96462e-06
3.92403e-06
4.08604e-06
4.93257e-06
5.25177e-06
4.64215e-06
4.45666e-06
3.46967e-06
2.94611e-06
2.25802e-06
2.16464e-06
2.16971e-06
2.45231e-06
2.58682e-06
2.35446e-06
2.28769e-06
2.15212e-06
1.75056e-06
2.87975e-06
1.56087e-05
2.17844e-05
2.84356e-06
1.58872e-06
1.49638e-06
1.09453e-06
1.24785e-06
2.1277e-06
2.9802e-06
2.82106e-06
3.40029e-06
4.38761e-06
4.42018e-06
4.96989e-06
5.84309e-06
6.22203e-06
6.18608e-06
5.37141e-06
3.95453e-06
3.5429e-06
3.28565e-06
2.77804e-06
2.3545e-06
2.28807e-06
2.1778e-06
1.97958e-06
2.01608e-06
1.92859e-06
1.60195e-06
2.32891e-06
1.61769e-05
2.08676e-05
2.36109e-06
1.11644e-06
1.22081e-06
9.01588e-07
6.26799e-07
1.44135e-06
2.73121e-06
2.35854e-06
3.56186e-06
4.77233e-06
5.0611e-06
6.35441e-06
7.06941e-06
7.15135e-06
6.90597e-06
6.38488e-06
5.07415e-06
4.15111e-06
3.66501e-06
3.18643e-06
2.0568e-06
1.87923e-06
1.70897e-06
1.46253e-06
1.47896e-06
1.48932e-06
1.2412e-06
2.27768e-06
1.71737e-05
2.12119e-05
2.16973e-06
8.48567e-07
8.89318e-07
9.43117e-07
8.29425e-07
1.47361e-06
2.73783e-06
2.72069e-06
3.27481e-06
3.99306e-06
5.42622e-06
6.16049e-06
7.01862e-06
6.99103e-06
6.74931e-06
6.14129e-06
5.15053e-06
4.72881e-06
2.98061e-06
2.83209e-06
2.07841e-06
1.38043e-06
1.08845e-06
1.07575e-06
1.01882e-06
9.1474e-07
6.69424e-07
2.25665e-06
1.79018e-05
2.01524e-05
2.56824e-06
1.10331e-06
9.8045e-07
9.95349e-07
1.08609e-06
1.39249e-06
1.82057e-06
2.56636e-06
3.64692e-06
4.29381e-06
5.06583e-06
4.59942e-06
5.40621e-06
6.18019e-06
6.29309e-06
5.42936e-06
4.77535e-06
4.90473e-06
4.11256e-06
3.71791e-06
2.68624e-06
1.64888e-06
1.05848e-06
1.06364e-06
9.13068e-07
7.30648e-07
6.73922e-07
2.27869e-06
1.85596e-05
2.01886e-05
2.83346e-06
1.05208e-06
9.62055e-07
1.13224e-06
1.44792e-06
1.55949e-06
1.90527e-06
2.90791e-06
3.99227e-06
4.21464e-06
4.57613e-06
3.97848e-06
4.96144e-06
6.03806e-06
6.22032e-06
5.42209e-06
4.79001e-06
5.25462e-06
4.50184e-06
3.83985e-06
2.90113e-06
1.58044e-06
9.55055e-07
9.40536e-07
7.76243e-07
7.7138e-07
6.01562e-07
1.99848e-06
1.84622e-05
1.91931e-05
3.0269e-06
1.25183e-06
1.39905e-06
1.39341e-06
1.73061e-06
1.6756e-06
1.91589e-06
2.5591e-06
3.32257e-06
3.49163e-06
4.76673e-06
4.79764e-06
5.75647e-06
6.41261e-06
6.5935e-06
6.29511e-06
5.27664e-06
5.0458e-06
3.24574e-06
3.5383e-06
2.83973e-06
1.70307e-06
1.19889e-06
9.32009e-07
7.72216e-07
1.33323e-06
1.22765e-06
2.01934e-06
1.84936e-05
1.8803e-05
3.03976e-06
1.7435e-06
1.89884e-06
1.65587e-06
1.83657e-06
2.05409e-06
2.2063e-06
2.36339e-06
3.52064e-06
4.16408e-06
4.3575e-06
4.89551e-06
5.91131e-06
6.64918e-06
6.90215e-06
6.36947e-06
5.10771e-06
4.16973e-06
3.23578e-06
3.73732e-06
2.59707e-06
2.30957e-06
1.93272e-06
1.36428e-06
1.3949e-06
2.2369e-06
2.16544e-06
2.66298e-06
1.82764e-05
1.74633e-05
3.28171e-06
2.19877e-06
2.30407e-06
2.41083e-06
2.73595e-06
2.84324e-06
2.79703e-06
2.70459e-06
3.19889e-06
3.75691e-06
3.78003e-06
3.66061e-06
4.83078e-06
5.98664e-06
6.484e-06
5.42879e-06
4.16378e-06
3.47597e-06
3.37672e-06
3.38121e-06
3.05462e-06
2.63933e-06
2.31417e-06
1.97449e-06
1.9278e-06
2.52095e-06
2.40398e-06
3.36032e-06
1.75833e-05
1.65165e-05
3.45475e-06
2.23998e-06
2.2205e-06
2.90383e-06
3.29558e-06
2.89245e-06
2.53109e-06
2.27818e-06
2.34964e-06
2.43102e-06
3.05238e-06
2.79603e-06
3.66054e-06
4.67895e-06
5.71181e-06
5.02093e-06
3.83275e-06
3.18595e-06
2.68622e-06
2.78031e-06
2.80761e-06
2.7186e-06
2.70672e-06
2.8178e-06
2.49676e-06
2.29744e-06
2.0421e-06
3.59748e-06
1.63504e-05
1.53434e-05
3.94384e-06
2.66168e-06
2.51185e-06
3.65128e-06
3.9658e-06
2.94411e-06
2.16509e-06
1.82209e-06
1.79509e-06
1.73794e-06
2.21997e-06
2.23018e-06
2.91243e-06
2.49116e-06
3.3118e-06
3.08745e-06
3.05071e-06
2.54527e-06
2.20557e-06
2.4963e-06
2.39638e-06
2.48708e-06
3.05094e-06
3.82532e-06
3.54496e-06
2.56909e-06
1.99086e-06
3.59523e-06
1.47369e-05
1.42491e-05
3.99697e-06
2.69162e-06
3.38502e-06
4.3959e-06
3.94381e-06
2.72635e-06
1.96157e-06
1.57925e-06
1.59083e-06
2.12117e-06
2.89626e-06
2.12581e-06
2.391e-06
2.99875e-06
3.12341e-06
2.98709e-06
3.27422e-06
3.01072e-06
2.36461e-06