/*--------------------------------*- C++ -*----------------------------------*\
| =========                 |                                                 |
| \\      /  F ield         | OpenFOAM: The Open Source CFD Toolbox           |
|  \\    /   O peration     | Version:  v1906                                 |
|   \\  /    A nd           | Web:      www.OpenFOAM.com                      |
|    \\/     M anipulation  |                                                 |
\*---------------------------------------------------------------------------*/
FoamFile
{
    version     2.0;
    format      ascii;
    class       volScalarField;
    location    "27";
    object      omega;
}
// * * * * * * * * * * * * * * * * * * * * * * * * * * * * * * * * * * * * * //

dimensions      [0 0 -1 0 0 0 0];


internalField   nonuniform List<scalar> 
78750
(
1447.93
215.589
151.031
86.8738
18.6427
24.8331
23.106
23.4345
22.6041
22.4387
21.8726
21.3698
20.8372
20.2602
19.6524
19.0491
18.4748
17.9238
17.422
17.0159
16.7361
16.5802
16.525
16.5441
16.6126
16.7015
16.7838
16.835
16.8385
16.7984
16.7324
16.6354
16.4935
16.1812
499.142
456.109
17.1392
18.0195
11.945
14.2169
15.5912
15.9972
15.8332
15.7147
15.5436
15.3827
15.2106
15.0254
14.8273
14.6152
14.3865
14.1374
13.8547
13.5164
13.1007
12.6237
12.1172
11.5946
11.0422
10.4428
9.94905
9.79246
9.90047
10.0211
9.97577
9.84609
9.76096
9.69564
9.23258
738.941
399.979
14.0661
16.738
16.8816
15.9175
15.161
14.5583
14.1238
13.8082
13.5642
13.3517
13.1722
13.0396
12.9653
12.9532
12.9943
13.0655
13.1386
13.1902
13.1995
13.1562
13.06
12.9177
12.7367
12.5191
12.2577
11.9148
11.2495
9.80433
8.08052
7.63371
8.0573
8.59515
9.88514
744.658
412.888
14.1996
14.7074
15.0454
15.3882
15.5535
15.5551
15.3906
15.0675
14.6017
14.0355
13.4139
12.7882
12.2312
11.8489
11.7448
11.892
12.136
12.3796
12.603
12.7929
12.9248
12.976
12.9338
12.7932
12.5519
12.2048
11.7458
11.2136
10.7594
10.3518
9.82521
9.11963
9.06396
746.299
419.44
16.9359
17.2871
17.1085
16.3811
15.1955
13.9671
13.1285
12.7004
12.4442
12.1744
11.7978
11.3154
10.8451
10.5696
10.5871
10.8269
11.1549
11.4735
11.7296
11.8954
11.9621
11.9342
11.8241
11.6459
11.4119
11.1264
10.7775
10.3536
9.93901
9.68509
9.50315
9.55195
11.0661
750.549
417.308
15.7544
16.3753
16.4106
16.226
15.8612
15.3346
14.7362
14.2305
13.927
13.7611
13.6012
13.3462
12.9199
12.3006
11.607
11.0725
10.8436
10.8641
10.9945
11.1142
11.1584
11.1197
11.0166
10.8663
10.6776
10.45
10.1636
9.79936
9.45424
9.25992
9.10855
9.06797
10.832
751.699
426.865
17.9655
17.8178
17.3041
16.3268
15.0136
13.8236
13.0325
12.5522
12.238
12.0226
11.8647
11.7089
11.4986
11.2236
10.9491
10.754
10.6514
10.6133
10.6111
10.6156
10.6003
10.5517
10.4673
10.3496
10.1993
10.0137
9.79515
9.58333
9.42176
9.29595
9.20153
9.75742
12.2761
754.208
416.753
15.8294
16.4528
16.7021
16.8232
16.7402
16.3233
15.6336
14.8441
14.0818
13.4174
12.8736
12.427
12.017
11.5626
11.03
10.5124
10.151
9.96129
9.87437
9.83278
9.80296
9.76721
9.71678
9.64797
9.56113
9.4589
9.34697
9.23283
9.1239
9.00327
8.83746
9.23391
12.2396
755.273
416.511
16.873
17.7894
18.1435
18.3189
18.37
18.2478
17.8679
17.2291
16.3924
15.4335
14.4444
13.5374
12.8119
12.2845
11.8644
11.4143
10.8497
10.2808
9.86403
9.57756
9.37203
9.22834
9.13188
9.06831
9.02497
8.99154
8.9629
8.93552
8.90479
8.86168
8.86492
9.78461
13.1859
757.323
414.478
15.2344
16.1612
16.596
16.8982
17.1734
17.4437
17.6801
17.7952
17.6838
17.3021
16.6635
15.8048
14.8261
13.9125
13.2104
12.7189
12.3446
11.9912
11.5815
11.0994
10.6109
10.173
9.7933
9.47062
9.21279
9.0249
8.90365
8.83053
8.77888
8.72467
8.70139
9.57207
13.3553
758.779
415.954
15.9524
17.0226
17.4719
17.6932
17.7864
17.776
17.6902
17.5769
17.4667
17.3293
17.0759
16.5833
15.7739
14.7504
13.7709
13.0371
12.5803
12.2913
12.04
11.7525
11.413
11.0319
10.6273
10.2163
9.82203
9.47147
9.19723
9.01596
8.90875
8.84883
8.96216
10.2294
14.1895
760.627
418.587
16.2751
17.1343
17.5086
17.7023
17.7951
17.7923
17.6696
17.4045
17.0322
16.6431
16.2978
15.9519
15.4534
14.7174
13.8897
13.179
12.6966
12.4199
12.2075
11.9812
11.7209
11.4186
11.0781
10.7126
10.3417
9.96596
9.59702
9.29159
9.07652
8.92699
8.97882
10.3671
14.6239
762.198
424.864
17.441
17.8249
17.9896
18.0707
18.0805
17.9963
17.7744
17.3617
16.728
15.9198
15.0881
14.4206
13.9471
13.5287
13.1214
12.8183
12.6188
12.4628
12.3073
12.1275
11.9101
11.6484
11.3413
10.9944
10.6194
10.233
9.8583
9.52156
9.24143
9.02407
9.20186
11.0715
15.2773
763.498
425.339
17.1926
17.5148
17.6637
17.7356
17.7368
17.6446
17.4267
17.0399
16.4208
15.5278
14.4706
13.606
13.1798
13.0055
12.891
12.7934
12.7014
12.6026
12.4853
12.338
12.1501
11.914
11.6287
11.3032
10.951
10.5854
10.2177
9.86059
9.52989
9.25647
9.52867
12.0607
16.4704
765.04
423.959
17.4423
17.8716
18.0051
18.0246
17.9475
17.7648
17.4981
17.1568
16.6847
16.0032
15.0864
14.103
13.4153
13.1143
13.0047
12.9509
12.9042
12.8463
12.7661
12.6532
12.4951
12.28
12.002
11.6685
11.2956
10.898
10.4857
10.0699
9.67562
9.3482
9.69313
12.1436
16.6182
765.075
424.762
17.7676
18.1149
18.1896
18.1553
18.0195
17.7891
17.5358
17.3299
17.1413
16.8667
16.3859
15.5868
14.5456
13.6731
13.2235
13.0743
13.0367
13.0195
12.9888
12.9271
12.8191
12.6486
12.403
12.0806
11.6915
11.2513
10.7748
10.2804
9.80395
9.44564
10.2366
13.6821
17.8377
766.357
427.547
18.3113
18.5008
18.4789
18.3553
18.1161
17.7724
17.4188
17.1496
16.9922
16.8889
16.7478
16.4661
15.8881
14.9426
13.978
13.4017
13.1885
13.1318
13.1144
13.0918
13.0396
12.9337
12.7522
12.4793
12.1097
11.6494
11.1099
10.5173
9.91334
9.38195
10.085
14.0628
18.2232
765.933
431.848
18.7153
18.6096
18.448
18.1981
17.8116
17.333
16.9148
16.6214
16.4283
16.2989
16.1901
16.0541
15.8197
15.3514
14.578
13.8175
13.3974
13.2465
13.1995
13.1756
13.1418
13.0737
12.9476
12.7398
12.4328
12.0194
11.4999
10.894
10.2393
9.45703
9.20627
12.7897
17.5904
767.055
430.75
18.6844
18.7846
18.7176
18.5147
18.1336
17.5903
17.0393
16.6205
16.3344
16.1247
15.9443
15.7581
15.5286
15.1977
14.6863
14.0502
13.5738
13.3521
13.2709
13.2351
13.2006
13.1418
13.0352
12.8555
12.5784
12.1857
11.6671
11.0434
10.3244
9.69237
11.5419
15.3981
19.4514
769.326
428.449
18.7467
19.1038
19.1812
19.1133
18.8817
18.4272
17.7566
17.0516
16.4918
16.1015
15.8152
15.5588
15.2744
14.9148
14.4501
13.9198
13.4958
13.2783
13.1969
13.1672
13.143
13.0991
13.0131
12.8594
12.6104
12.2385
11.717
11.0536
10.2759
9.43363
10.6713
15.7153
19.2504
767.629
427.135
18.7184
19.3051
19.5663
19.6875
19.6763
19.486
19.023
18.2596
17.3753
16.59
15.9991
15.5744
15.2279
14.8625
14.4023
13.8475
13.3542
13.0726
12.968
12.9437
12.9381
12.9213
12.8732
12.7746
12.6098
12.3639
12.0194
11.5782
10.9955
9.29712
6.81454
14.8737
19.7647
772.172
425.159
18.4325
19.2766
19.7176
20.005
20.1855
20.2511
20.1607
19.8148
19.1223
18.1668
17.1517
16.255
15.5561
15.0148
14.5079
13.9074
13.233
12.7133
12.4667
12.3931
12.3747
12.3481
12.2724
12.1087
11.8132
11.3375
10.6665
9.71847
9.1664
11.7828
14.4633
15.8878
20.3549
774.396
422.934
18.188
19.2759
19.8364
20.2017
20.4664
20.6542
20.7665
20.7802
20.6139
20.1308
19.2745
18.1533
16.9688
15.9277
15.1252
14.4579
13.7352
12.9155
12.1988
11.7717
11.5973
11.5423
11.4817
11.2974
10.8552
10.0459
9.01965
8.72652
10.712
14.5745
19.142
23.6756
24.9972
771.536
422.928
18.146
19.3212
19.9403
20.3336
20.6153
20.8202
20.96
21.0389
21.0601
20.9988
20.7635
20.2172
19.2754
18.0262
16.7527
15.732
14.9846
14.325
13.6005
12.8469
12.2202
11.8192
11.6311
11.5816
11.5877
11.6349
11.8051
11.9015
10.6491
7.51464
7.08397
15.1638
19.5688
761.836
425.308
18.5459
19.5636
20.1022
20.4416
20.6871
20.8741
21.0059
21.066
21.0384
20.9322
20.7702
20.5332
20.116
19.3421
18.183
16.948
15.9282
15.1258
14.3992
13.6567
12.9287
12.2934
11.7983
11.4297
11.0657
10.5964
8.58565
7.40173
5.06428
6.79584
5.36495
6.38116
14.151
778.992
430.359
19.6221
20.257
20.5701
20.7707
20.9379
21.1022
21.2419
21.3029
21.2433
21.0547
20.7648
20.4031
19.9331
19.2089
18.0881
16.7901
15.6744
14.7635
13.8875
12.8448
11.46
9.61171
7.45228
6.4766
9.4533
14.2877
18.3209
20.6601
21.1817
20.3429
18.7192
18.5775
23.0812
787.159
434.558
20.1203
20.3477
20.4414
20.5077
20.6361
20.8735
21.1303
21.2851
21.277
21.0995
20.7722
20.3399
19.8443
19.2644
18.5207
17.6226
16.7701
16.0787
15.4682
14.8084
14.0003
13.0111
11.9402
11.1168
11.0895
12.2906
14.3219
16.6878
19.4662
21.7955
23.2531
24.6298
25.8034
769.238
437.69
20.497
20.4257
20.3032
20.1861
20.2944
20.6664
21.0405
21.2528
21.2778
21.1351
20.8407
20.406
19.854
19.229
18.5924
17.9995
17.4745
17.0192
16.617
16.236
15.8424
15.3975
14.8253
13.9433
12.458
9.9576
6.3349
6.72831
6.18771
10.6522
13.8506
16.8008
18.977
759.974
440.353
20.7586
20.3968
20.01
19.6449
19.8463
20.4669
20.9729
21.244
21.3152
21.2128
20.9473
20.542
20.0453
19.5098
18.9693
18.4375
17.9108
17.3715
16.7883
16.1231
15.3551
14.5451
13.9565
14.0695
15.1906
16.8855
17.265
16.1646
14.5624
13.1583
11.3945
10.6376
16.1172
771.377
443.214
20.8843
20.2748
19.6313
18.9879
19.2604
20.0912
20.747
21.1747
21.4234
21.5115
21.4441
21.2303
20.9044
20.5307
20.164
19.816
19.466
19.0765
18.6009
17.9925
17.2248
16.3043
15.2682
14.204
13.4081
14.4956
18.2815
20.3741
20.1975
18.9435
16.4126
15.0152
19.5348
778.094
441.204
20.5464
20.0861
19.4537
18.5685
18.3067
19.0189
19.8396
20.4798
20.9469
21.2526
21.3966
21.3879
21.2543
21.0419
20.802
20.57
20.3554
20.148
19.9273
19.6609
19.2988
18.7624
17.9256
16.6193
14.6092
12.0491
13.7842
19.2403
21.9458
22.0686
20.8628
20.5509
23.1145
778.937
437.637
20.8689
20.7926
20.3835
19.4727
17.9483
17.4042
18.138
19.0887
19.8931
20.5275
20.9913
21.2709
21.3653
21.3036
21.1379
20.9215
20.6942
20.48
20.2953
20.1597
20.1129
20.1952
20.2367
19.753
18.3786
15.8921
13.668
16.2537
20.7083
22.9859
23.4745
23.7476
24.7855
775.032
437.482
21.547
21.6162
21.2994
20.602
18.8959
16.6277
16.238
17.1104
18.1553
19.0998
19.9372
20.6552
21.2136
21.5795
21.7487
21.7417
21.5963
21.3552
21.0562
20.7266
20.3924
20.1163
20.0661
20.2838
20.1458
19.0984
17.31
16.2333
17.6819
20.1999
21.9873
23.0144
23.7925
769.978
441.511
22.283
22.1954
21.7252
20.8222
19.1045
16.7341
15.6571
16.1044
16.9522
17.8023
18.6511
19.5117
20.3111
20.9512
21.402
21.6841
21.8249
21.8443
21.7603
21.5904
21.3534
21.0813
20.8606
20.8651
21.0555
20.908
20.1436
18.9954
18.1625
18.2597
19.0694
20.088
21.2843
768.112
445.592
23.1051
22.8542
22.1818
20.8245
18.1805
15.6563
15.0453
15.841
16.8053
17.7869
18.9145
20.2393
21.5883
22.6344
23.2447
23.5306
23.6178
23.5711
23.4174
23.1696
22.8434
22.4732
22.1463
22.0379
22.2503
22.4547
22.2744
21.6558
20.7215
19.7012
18.8887
18.838
20.2537
769.752
446.673
23.7299
23.4663
22.7239
21.2576
18.4261
15.3295
14.0998
14.9751
16.255
17.6958
19.5078
21.6356
23.5414
24.7227
25.2665
25.4809
25.524
25.4447
25.2502
24.9327
24.481
23.8985
23.257
22.8171
22.9756
23.5102
23.7192
23.4575
22.7446
21.603
20.2412
19.6834
21.1398
772.819
449.275
24.2403
23.7714
22.8556
21.2139
18.5225
15.4964
13.3213
13.3125
14.4453
15.6838
17.0382
18.7226
20.7458
22.759
24.3364
25.3541
25.9376
26.2342
26.3289
26.2565
26.0215
25.6071
24.9993
24.2961
23.9344
24.3589
24.9012
24.9381
24.453
23.4379
22.0791
21.4379
22.6193
775.142
455.453
24.6522
23.6424
22.1852
19.6658
16.6529
14.2589
13.0005
12.7971
13.2429
13.9804
14.8739
15.9244
17.1406
18.4862
19.8757
21.2215
22.4554
23.5171
24.3602
24.965
25.3346
25.4784
25.3994
25.1073
24.7452
24.7813
25.3613
25.7521
25.6129
24.931
23.8797
23.292
24.1057
777.677
463.909
24.9782
23.2357
20.9263
17.0256
13.9652
12.4898
11.5876
11.9238
12.5878
13.3238
14.1065
14.9649
15.9859
17.1482
18.331
19.4701
20.5592
21.5844
22.5168
23.3289
23.9973
24.5015
24.8241
24.9555
24.9287
24.9706
25.4716
26.1499
26.3918
26.1048
25.4747
25.0618
25.5822
780.247
470.036
24.5627
22.0736
18.5031
12.4438
9.30217
10.3126
10.6209
11.806
13.556
15.6366
17.6019
18.9731
19.7419
20.2267
20.6189
21.0076
21.4425
21.9443
22.4959
23.0506
23.5624
23.999
24.3348
24.5483
24.6431
24.7412
25.2012
26.1061
26.7615
26.8495
26.569
26.281
26.4813
780.131
465.461
23.602
21.4208
17.8424
11.9835
7.55581
8.33233
8.9696
10.8989
13.7277
17.0025
19.7093
21.1255
21.7014
22.0046
22.2113
22.3761
22.532
22.7133
22.9533
23.2599
23.6004
23.9192
24.1677
24.3145
24.3494
24.3389
24.5589
25.3444
26.3178
26.8081
26.8197
26.6318
26.604
778.122
455.271
23.6598
23.0035
21.5328
18.3189
12.8104
8.33578
5.82285
5.44857
7.35731
11.0256
15.6673
19.5689
21.7107
22.5335
22.8757
23.0625
23.184
23.2704
23.3498
23.459
23.6287
23.8527
24.0777
24.2347
24.2746
24.1951
24.1145
24.3333
24.9791
25.6128
25.8927
25.9253
26.0387
776.656
447.314
24.1595
24.5333
24.4255
23.5986
21.0254
16.1643
11.0255
5.86331
5.70496
5.75358
4.80953
10.0541
15.6748
19.8905
22.1815
23.1017
23.4476
23.584
23.6324
23.6427
23.6547
23.7091
23.8258
23.9713
24.0653
24.0428
23.9137
23.8073
23.9113
24.2166
24.5093
24.7591
25.2682
776.29
442.839
23.6029
24.1532
24.4401
24.6391
24.5319
23.1948
19.633
14.2908
7.33352
4.74024
5.59216
5.79774
4.20537
8.88208
14.4857
19.2036
22.1904
23.5044
23.969
24.0916
24.0687
23.9886
23.9187
23.915
23.9717
23.9842
23.8344
23.5507
23.3299
23.3421
23.5931
24.0201
24.8576
776.103
443.282
23.1565
23.4564
23.5011
23.5233
23.668
23.9374
23.6965
21.6166
16.3866
6.86379
4.42127
6.48449
4.91672
5.58495
6.43806
9.2453
13.7352
18.4359
21.8685
23.5815
24.2371
24.4354
24.4325
24.3484
24.2777
24.2753
24.2605
24.0358
23.5985
23.2505
23.2536
23.6147
24.4656
775.538
447.228
24.0051
24.2974
24.2838
24.0635
23.6311
23.0999
22.8119
22.773
21.858
15.5136
7.76136
6.53601
5.46887
7.28747
8.00692
8.03695
8.20942
9.83882
13.5631
18.1482
21.4741
23.1318
23.8468
24.1406
24.2396
24.2717
24.354
24.485
24.3798
23.9778
23.6444
23.7079
24.4337
777.208
451.266
24.5115
24.6541
24.6576
24.5545
24.2808
23.6878
22.5911
21.2569
20.5761
18.5812
11.795
5.09183
6.37432
8.96582
10.1693
10.4729
10.1743
9.37983
8.64932
10.4133
15.3597
19.925
22.5697
23.7841
24.2933
24.4598
24.4517
24.4861
24.7332
24.8133
24.7111
24.8572
25.7467
782.695
454.819
24.4332
24.2482
24.0897
23.8876
23.5821
23.1004
22.2523
20.5524
18.0599
15.9995
10.9047
5.75602
8.44971
11.1831
12.3309
12.7319
12.6765
12.1203
10.9678
9.81897
11.4065
16.0526
20.4829
23.3621
24.8006
25.3052
25.245
24.854
24.7246
25.1194
25.529
26.0351
27.1655
786.959
458.926
24.7307
24.3525
24.0507
23.6518
23.0281
22.0462
20.5718
18.4192
14.9441
11.028
7.25535
7.05701
11.1962
13.3901
14.2909
14.7058
14.8033
14.5711
13.9371
12.8538
11.8776
12.6706
15.8272
19.7494
23.034
25.1224
25.9204
25.662
25.0305
25.0192
25.5054
26.1705
27.3678
786.122
461.516
24.8203
24.3525
24.0029
23.5149
22.6866
21.218
18.73
15.0552
10.5759
7.77186
9.5473
11.1505
13.3386
14.6333
15.4531
15.9779
16.2685
16.3335
16.1154
15.509
14.4961
13.3957
13.1391
14.8117
18.2243
22.0678
25.0824
26.4943
26.4512
26.1
26.1379
26.4669
27.1875
780.9
460.327
24.3986
23.9581
23.6164
23.1074
22.2073
20.5517
17.5687
12.5939
6.58233
6.90391
11.1367
13.9593
15.4442
16.7116
17.7787
18.6132
19.1826
19.4628
19.4374
19.0755
18.3247
17.138
15.6389
14.3894
14.6075
17.178
21.1613
24.7957
26.9082
27.5143
27.5291
27.4924
27.4213
775.311
457.495
24.198
23.8875
23.5971
23.1396
22.3422
20.9409
18.4985
14.1988
7.39282
6.88105
12.1687
15.1963
17.3328
19.2207
20.7173
21.7399
22.3727
22.7101
22.8024
22.6529
22.2276
21.4684
20.3141
18.7864
17.1712
16.2569
17.0842
19.6446
22.6892
25.1106
26.3705
26.7739
26.7338
773.673
455.942
24.2756
24.075
23.8729
23.5403
22.9485
21.9153
20.1584
17.174
11.8742
6.15345
7.23885
12.9061
16.2066
19.0136
21.4196
23.1066
24.1102
24.6986
25.0346
25.1794
25.1364
24.8784
24.3631
23.551
22.429
21.0873
19.8166
19.0955
19.3086
20.4849
22.3451
23.7462
24.8223
776.505
454.669
24.1157
23.9878
23.8687
23.6595
23.2648
22.5509
21.3096
19.2375
15.5375
7.10471
6.88723
7.5965
12.1446
15.7369
19.0287
21.8828
23.9227
25.1384
25.8579
26.3074
26.5816
26.7043
26.6651
26.4372
25.9898
25.3017
24.3786
23.2457
21.8961
20.255
19.56
21.0802
23.6942
782.176
453.831
24.029
23.9623
23.8926
23.7466
23.4559
22.9336
22.0698
20.6869
18.5117
14.6915
6.13512
5.90565
7.57295
11.3908
14.7612
18.0985
21.1663
23.5959
25.1842
26.1423
26.7474
27.1459
27.3939
27.5015
27.4564
27.2348
26.7975
26.029
24.5243
21.7038
19.4737
21.0441
24.6556
789.181
453.606
24.0315
24.0256
24.0063
23.9114
23.6807
23.2343
22.4695
21.2703
19.4723
16.5285
10.3188
5.8395
4.57552
8.59173
11.5215
14.2052
17.1035
20.0273
22.623
24.5458
25.7767
26.5495
27.0393
27.3326
27.4577
27.4048
27.1161
26.4105
24.8342
22.3972
21.3538
23.2074
26.5605
792.892
452.986
23.975
24.0507
24.0923
24.0584
23.9036
23.5658
22.9648
22.0141
20.6098
18.5901
15.201
7.37006
5.65718
7.19773
10.1405
12.199
14.138
16.3633
18.8412
21.2908
23.3433
24.8007
25.7405
26.2981
26.5535
26.4885
26.0393
25.4342
24.6972
23.8547
24.0479
25.3979
27.5454
787.763
452.307
23.9386
24.0941
24.1867
24.2024
24.11
23.8615
23.3915
22.6247
21.4936
19.8749
17.3652
11.9759
5.20368
5.07598
9.56684
11.8128
13.2436
14.5564
16.073
17.8933
19.901
21.8127
23.366
24.4557
25.0679
25.1448
24.6857
24.4133
24.8285
25.2053
25.7319
26.4739
27.3828
778.026
451.432
23.9028
24.1346
24.2737
24.334
24.2984
24.1338
23.7921
23.215
22.3393
21.0778
19.3336
16.6567
8.79259
5.40026
8.16564
11.5002
13.2241
14.3532
15.316
16.3035
17.461
18.8477
20.3784
21.8448
23.0078
23.6491
23.676
23.6643
24.4667
25.3267
25.9401
26.4077
26.6226
771.882
450.383
23.9012
24.1979
24.3614
24.4402
24.4353
24.3312
24.0996
23.7016
23.1045
22.256
21.0127
19.1448
16.1025
7.67803
8.48129
9.70869
12.66
14.2633
15.3697
16.2632
17.041
17.7912
18.6239
19.6253
20.7489
21.782
22.4641
22.8596
23.5492
24.3809
24.9903
25.4056
25.5828
770.886
449.61
23.9825
24.3139
24.4732
24.5412
24.5351
24.4576
24.3048
24.0535
23.6565
23.061
22.2311
21.0735
19.2216
15.2241
6.5241
6.05533
10.8628
13.5384
15.182
16.431
17.4629
18.2823
18.8954
19.3905
19.9218
20.588
21.3256
21.9905
22.6449
23.327
23.8999
24.3722
24.8676
773.027
449.435
24.1475
24.4312
24.5284
24.5371
24.4814
24.381
24.265
24.148
24.0036
23.7618
23.3273
22.6237
21.604
20.0489
16.1209
8.63915
8.34883
11.8853
14.2997
16.0093
17.4497
18.6876
19.634
20.2483
20.6083
20.8786
21.2203
21.6901
22.2388
22.8072
23.3546
23.9081
24.719
775.745
450.908
24.5037
24.5982
24.545
24.4218
24.2452
24.0594
23.9365
23.9102
23.9448
23.969
23.9054
23.6734
23.1908
22.3631
20.8431
16.4351
10.0027
10.2439
13.1852
15.4044
17.1529
18.7074
20.0252
20.9882
21.5725
21.8674
22.0293
22.2277
22.5557
22.9955
23.5135
24.123
25.1175
778.371
455.208
25.0463
24.7443
24.4259
24.0718
23.6686
23.3189
23.1725
23.2693
23.5324
23.8484
24.1129
24.2384
24.1526
23.8137
23.178
21.8062
17.3975
12.0684
12.5225
14.9928
17.022
18.7245
20.2242
21.4375
22.2847
22.7764
23.0052
23.1177
23.282
23.6
24.0733
24.6863
25.7188
780.316
462.411
25.531
24.6633
23.9838
23.2739
22.505
21.9766
21.965
22.4012
23.0437
23.7049
24.2841
24.7256
24.986
25.0201
24.8011
24.2761
22.9331
18.854
14.7308
14.9306
16.7643
18.5648
20.1862
21.5706
22.6397
23.3639
23.7829
23.9872
24.1262
24.3653
24.7717
25.3338
26.3163
781.949
470.085
25.569
24.179
23.1204
21.862
20.5061
19.8844
20.4186
21.6161
22.8908
23.9951
24.876
25.5329
25.967
26.1672
26.1084
25.7499
24.9014
22.7523
18.9717
17.2592
18.0812
19.4708
20.8247
22.0486
23.0742
23.8449
24.3597
24.6658
24.8633
25.0983
25.4597
25.9641
26.8911
783.548
472.36
24.9199
23.423
22.093
20.1466
18.1159
17.774
19.4623
21.6409
23.4213
24.7592
25.7655
26.5089
27.0128
27.2757
27.2841
27.0107
26.3567
24.9264
22.1603
20.1325
20.2981
21.1978
22.1511
23.0597
23.8752
24.5379
25.021
25.3413
25.5601
25.7892
26.1091
26.5565
27.4289
785.037
465.884
24.1135
23.0669
21.8052
19.6798
17.3644
17.0922
19.3096
21.731
23.4794
24.7668
25.77
26.5394
27.061
27.287
27.1342
26.451
25.1666
23.8412
23.2277
23.1295
23.3707
23.7541
24.1893
24.6474
25.0982
25.5014
25.8266
26.0688
26.2571
26.4639
26.744
27.1461
27.9848
786.443
457.236
23.977
23.5137
22.7846
21.4425
19.4564
17.8766
18.045
19.2678
20.6909
22.1815
23.4415
24.418
25.1833
25.7692
26.1585
26.3379
26.3313
26.2502
26.2447
26.3092
26.3989
26.4879
26.5671
26.6396
26.712
26.7867
26.862
26.9387
27.0302
27.1747
27.3994
27.7532
28.5307
786.925
454.492
24.2587
24.0748
23.9094
23.527
22.3558
19.8135
16.2065
13.0336
12.7563
16.1453
19.5854
22.068
23.698
24.8358
25.6867
26.333
26.8273
27.2049
27.4994
27.725
27.8847
27.9807
28.0173
28.0032
27.9525
27.8838
27.8188
27.7818
27.795
27.8806
28.0433
28.3179
28.9248
785.712
455.354
24.0822
23.821
23.6172
23.4048
23.154
22.4942
20.521
16.2753
8.23187
8.24503
8.09741
15.3098
19.2992
21.8578
23.7339
25.0931
26.0966
26.8597
27.4514
27.9088
28.2519
28.492
28.6367
28.6955
28.6835
28.6222
28.5404
28.472
28.4445
28.4698
28.5405
28.6719
28.9744
782.856
455.248
24.0418
23.8333
23.5969
23.1861
22.5258
21.7563
21.0085
19.8513
17.3167
11.3207
8.81747
7.82573
14.8595
18.501
21.0555
23.1412
24.7551
25.9237
26.7748
27.4273
27.9369
28.3258
28.6069
28.7941
28.9032
28.9504
28.9524
28.9314
28.9082
28.8906
28.8729
28.8595
28.8766
780.649
453.069
24.0928
24.0947
24.0931
24.0414
23.8063
23.1302
21.8851
20.4194
19.1954
17.92
14.6328
5.92504
8.27398
11.549
16.1986
19.2301
21.7515
23.9294
25.5128
26.582
27.3392
27.9168
28.354
28.6633
28.8673
28.9991
29.0825
29.1223
29.1161
29.0681
28.9823
28.8652
28.7106
779.753
454.698
24.149
23.9196
23.7659
23.6381
23.561
23.5208
23.2329
22.2587
20.5629
18.816
17.6203
16.0757
11.5373
7.14219
7.03646
13.8302
17.5048
20.2273
22.7677
24.8363
26.2218
27.1432
27.8079
28.3116
28.6772
28.9241
29.0866
29.187
29.219
29.1775
29.0704
28.9157
28.7274
780.653
457.849
24.3267
23.9647
23.7489
23.5234
23.2308
22.8766
22.4922
22.0201
21.2726
20.1032
18.6227
17.2038
15.8759
12.9801
4.48314
7.37761
12.8697
16.7746
19.5875
22.1707
24.4079
26.0021
27.0582
27.7847
28.3146
28.6975
28.9557
29.1108
29.1721
29.1467
29.05
28.9136
28.8102
782.364
458.212
24.1976
23.8009
23.6001
23.4496
23.3448
23.2737
23.0857
22.6648
22.032
21.2397
20.2805
19.0919
17.6809
16.205
14.0016
7.02797
6.18307
12.8974
16.7131
19.6541
22.2756
24.4768
26.1019
27.2371
28.0172
28.5509
28.9062
29.1223
29.2173
29.2123
29.1391
29.046
29.0518
784.165
458.671
24.0602
23.6087
23.3575
23.1186
22.8993
22.8222
22.8439
22.7471
22.4157
21.8481
21.0992
20.1997
19.0919
17.611
15.5532
12.329
8.61273
8.67462
13.8306
17.1166
20.207
22.9358
24.9741
26.423
27.5025
28.2866
28.8054
29.1096
29.2547
29.2866
29.2478
29.1918
29.2451
784.808
457.044
23.822
23.503
23.3332
23.1442
22.9167
22.7663
22.7757
22.8071
22.7072
22.4081
21.893
21.1643
20.212
18.9401
17.0785
13.9189
8.11803
5.55831
13.8499
16.4758
18.4568
21.2976
24.069
25.9922
27.2486
28.1738
28.8449
29.2517
29.4335
29.4686
29.4237
29.3545
29.3673
784.427
454.302
23.64
23.4661
23.3582
23.1968
22.9428
22.6843
22.6266
22.7539
22.8671
22.8407
22.629
22.211
21.5639
20.6443
19.3272
17.2948
13.6026
6.89647
9.33174
14.69
17.9933
19.8735
22.3491
24.8968
26.6739
27.801
28.6078
29.1641
29.4653
29.5666
29.549
29.4813
29.4509
783.835
452.558
23.6082
23.5443
23.499
23.3974
23.1852
22.8471
22.5602
22.5531
22.7407
22.9209
22.9822
22.8863
22.6141
22.1376
21.4031
20.2987
18.584
15.5245
9.78312
4.21131
11.1491
17.1929
20.1749
23.0046
25.6215
27.3079
28.2353
28.8117
29.1643
29.3381
29.3855
29.3565
29.2906
782.036
451.347
23.5702
23.527
23.4913
23.4374
23.3504
23.1694
22.8614
22.6494
22.7124
22.9309
23.1242
23.2093
23.1573
22.9561
22.5872
22.0089
21.1333
19.7706
17.4998
13.4657
8.00952
10.0931
16.3408
19.9481
23.2828
26.2644
28.147
29.0615
29.4758
29.6262
29.635
29.5558
29.3524
780.846
451.815
23.6559
23.4648
23.3109
23.1828
23.1544
23.2269
23.2023
23.0516
23.0093
23.1627
23.3848
23.5531
23.6129
23.5431
23.3286
22.9545
22.3777
21.5107
20.1863
18.1113
14.6269
9.53447
10.6117
16.1573
19.6231
22.7674
25.6484
27.5529
28.5762
29.087
29.2909
29.311
29.2183
782.708
454.043
23.8199
23.3223
22.9354
22.6022
22.5444
22.8916
23.2941
23.4988
23.592
23.7436
23.9576
24.1508
24.2633
24.2686
24.1538
23.9057
23.4967
22.8693
21.9281
20.4974
18.2808
14.5975
9.45589
11.3246
16.9445
20.7084
23.6974
26.0871
27.5158
28.308
28.7854
29.0998
29.4265
785.203
457.66
23.9592
23.0689
22.3859
21.7511
21.6338
22.2831
23.1255
23.7716
24.1917
24.4896
24.7393
24.9463
25.091
25.1565
25.131
25.004
24.7602
24.3678
23.7694
22.8627
21.4975
19.3907
16.0228
12.1909
12.9977
17.5799
21.8075
25.1257
27.3421
28.4347
28.956
29.2832
29.5846
784.216
460.921
23.8405
22.605
21.6388
20.6643
20.5203
21.5035
22.7459
23.7929
24.5886
25.1666
25.5741
25.8531
26.0317
26.1258
26.1433
26.0866
25.9535
25.7337
25.4073
24.9369
24.2659
23.3226
21.9857
19.9746
17.3942
15.8977
17.5139
20.8982
24.2006
26.5076
27.7776
28.49
29.1308
787.841
461.665
23.4545
22.0906
20.9545
19.6236
19.1822
20.2975
21.9001
23.353
24.5364
25.4488
26.1143
26.5702
26.8568
27.0102
27.0586
27.0226
26.9157
26.7446
26.5103
26.2065
25.8222
25.3182
24.6393
23.7524
22.3616
20.0345
18.0016
18.5734
21.3922
24.5346
26.8463
28.3199
29.7294
794.506
460.027
23.1385
21.9266
20.8257
19.2361
17.8388
18.3866
20.3046
22.3505
24.0834
25.4163
26.3729
27.0114
27.3935
27.5738
27.5975
27.4997
27.3089
27.0552
26.7753
26.4163
25.8367
25.2555
24.7696
24.2347
23.4669
22.0805
20.426
19.9266
21.2365
23.6436
25.9379
27.5178
29.1469
797.195
458.196
23.1086
22.116
21.1501
19.5534
17.1705
16.3878
18.4859
21.3482
23.8291
25.6401
26.8224
27.5184
27.845
27.8874
27.7087
27.3509
26.8096
26.0016
25.1732
25.8919
26.7454
26.7712
26.159
25.1838
24.2909
23.3595
22.3701
22.0098
22.863
24.7069
26.6575
28.2228
30.4145
806.079
457.331
23.0987
22.135
21.2074
19.7226
17.1986
15.0807
16.963
20.7396
23.9983
26.2734
27.6443
28.3751
28.6486
28.5579
28.1428
27.3885
26.2091
24.6935
24.2494
26.331
27.865
27.8438
27.0638
26.045
25.5625
25.2444
24.6151
24.2754
24.9849
26.5235
28.0868
29.5918
31.8031
802.887
456.669
22.851
21.7326
20.6547
19.1441
17.1164
14.7656
15.6005
19.7479
23.663
26.4987
28.2775
29.2954
29.812
29.9341
29.6867
29.0367
27.9022
26.2607
24.7219
25.0326
27.0084
28.1207
27.9787
27.1737
26.7081
26.9496
27.2135
27.3536
27.753
28.4835
29.2428
30.021
30.9264
785.964
456.442
22.6757
21.3099
19.9171
18.0894
16.4146
14.5996
14.1387
17.4433
21.6913
25.1571
27.5423
29.0329
29.9395
30.4374
30.5848
30.3712
29.7338
28.5766
26.9073
25.2849
24.9842
26.3037
27.9219
28.5729
28.2346
27.825
27.9454
28.4949
29.1821
29.7981
30.2514
30.5393
30.3745
776.731
457.535
22.6711
21.0429
19.3413
17.1366
15.7815
14.5735
12.0073
10.5071
13.5342
18.4628
22.7799
25.8785
27.8945
29.1729
29.9691
30.3748
30.4027
30.0118
29.1153
27.6445
25.8056
24.4278
24.6521
26.5714
28.4203
28.8528
28.5608
28.4361
28.7166
29.1877
29.6074
29.8637
29.6794
777.819
458.15
22.4274
20.6364
18.641
15.7116
14.0046
14.5536
14.6733
13.3389
10.864
10.6688
15.5308
20.592
24.1989
26.6595
28.3022
29.3729
30.009
30.2439
30.0558
29.3618
28.0203
25.9685
23.6563
22.6643
24.5756
27.6504
29.202
29.5074
29.4016
29.2291
29.0491
28.8279
28.4682
777.926
455.127
22.0673
20.597
18.8761
15.9786
12.6333
12.0362
13.6169
15.3978
16.4664
16.5631
16.2339
17.2262
20.0246
23.0879
25.5638
27.3774
28.6835
29.5839
30.0752
30.1206
29.6484
28.4879
26.3828
23.4796
21.5326
23.2051
26.6501
28.9652
29.9547
30.1903
30.0627
29.749
29.0849
773.737
452.169
22.3617
21.4042
20.3649
18.5138
15.0051
11.1686
10.1625
11.2734
12.9931
14.5657
15.5806
15.9359
16.2923
17.9531
20.6933
23.4556
25.6612
27.2887
28.4899
29.3202
29.7407
29.6407
28.8195
27.0292
24.4325
22.6451
23.4096
25.5074
27.3382
28.5483
29.31
29.7464
29.3769
769.118
453.069
22.6908
21.6599
20.6773
19.2443
16.5481
11.6848
8.31246
9.28848
12.0223
14.617
16.5655
17.7996
18.3494
18.4614
18.8915
20.4988
22.8258
25.0153
26.7932
28.2348
29.4012
30.2113
30.503
30.143
29.0928
27.6243
26.5027
26.2727
26.7325
27.4198
27.9944
28.1751
27.5736
772.889
456.6
22.6387
21.1088
19.6365
17.5968
15.063
11.0131
6.70758
6.32258
9.9173
13.8856
16.6529
18.4752
19.5444
20.025
20.1523
20.4234
21.5944
23.618
25.8797
27.9871
29.735
31.0111
31.7979
32.1298
32.0447
31.5966
30.9199
30.2197
29.6119
29.0051
28.2452
27.7282
28.0832
789.447
459.521
22.2586
20.2687
18.1372
14.6636
10.4843
7.28505
6.4286
7.7412
11.7739
16.3026
19.0443
20.5992
21.3955
21.7139
21.7782
21.9418
22.8758
24.9329
27.4544
29.6344
31.1815
32.2046
32.8682
33.2643
33.4175
33.316
32.9413
32.2851
31.3488
30.2181
29.3708
29.613
31.2437
803.71
458.018
21.766
19.817
17.4866
13.357
7.68246
6.56313
4.7613
6.91191
13.1588
18.0746
20.8005
22.0545
22.5944
22.7759
22.8004
23.0177
24.0854
26.3825
29.1148
31.1861
32.3614
32.9786
33.3043
33.4499
33.451
33.3025
32.9592
32.3676
31.5707
30.8253
30.5618
30.9568
32.0312
796.656
455.103
21.6499
20.0896
18.2096
14.8059
9.6152
6.04419
5.67118
4.66347
8.3444
15.0706
19.5775
21.5672
22.5006
22.9257
23.0774
23.1911
23.7957
25.5596
28.2917
30.8409
32.431
33.1464
33.339
33.2299
32.938
32.5717
32.2011
31.804
31.3839
31.0588
30.9324
30.9311
30.7789
781.24
452.738
21.6325
20.4632
19.1243
16.618
12.0969
5.5828
6.38369
6.47468
5.80586
7.51611
16.3552
20.1904
21.9036
22.7716
23.2107
23.4024
23.5767
24.2449
25.9044
28.2873
30.5496
32.1204
32.9042
33.0542
32.7741
32.2668
31.7372
31.3073
30.9913
30.7649
30.5695
30.2568
29.3562
773.321
450.675
21.6086
20.6994
19.7469
18.0617
14.8085
9.66919
7.30978
5.73729
4.24961
7.82681
10.5598
17.5362
20.7001
22.2017
23.0448
23.5451
23.8188
24.0226
24.5039
25.6295
27.3651
29.2847
30.9372
32.0365
32.4941
32.4186
32.0389
31.5778
31.1587
30.802
30.4513
29.9578
28.8631
772.133
449.899
21.6333
20.8072
20.039
18.8348
16.6187
12.7407
6.60462
5.01349
5.49069
6.6385
4.78765
11.0513
17.9972
20.8675
22.3212
23.2223
23.8431
24.2594
24.5389
24.8625
25.4857
26.5472
27.9624
29.4781
30.7775
31.6207
31.9569
31.9209
31.6897
31.3714
30.9861
30.4438
29.3347
773.359
449.8
21.5177
20.6206
19.8018
18.6246
16.8572
14.2883
10.6347
4.53909
5.49999
4.92559
6.94834
7.53974
12.0607
18.3417
20.9907
22.4068
23.3613
24.1057
24.6901
25.1137
25.4267
25.771
26.3214
27.1776
28.2907
29.4647
30.4434
31.0523
31.2873
31.2512
31.0208
30.5872
29.6817
776.532
449.807
21.4276
20.4943
19.6539
18.4575
16.7714
14.656
12.0834
9.19606
5.07476
6.328
4.57949
5.96666
5.58203
12.9895
18.5333
20.996
22.3937
23.4001
24.26
25.0183
25.6333
26.0639
26.3552
26.6456
27.0814
27.7346
28.5533
29.367
29.9847
30.318
30.3869
30.249
29.898
782.876
449.433
21.3462
20.4327
19.635
18.5303
17.0112
15.2285
13.2814
11.1309
8.55966
4.77464
6.26246
6.85529
5.54085
7.98452
14.5489
19.0326
21.1736