/*--------------------------------*- C++ -*----------------------------------*\
| =========                 |                                                 |
| \\      /  F ield         | OpenFOAM: The Open Source CFD Toolbox           |
|  \\    /   O peration     | Version:  v1906                                 |
|   \\  /    A nd           | Web:      www.OpenFOAM.com                      |
|    \\/     M anipulation  |                                                 |
\*---------------------------------------------------------------------------*/
FoamFile
{
    version     2.0;
    format      ascii;
    class       volVectorField;
    location    "27";
    object      U;
}
// * * * * * * * * * * * * * * * * * * * * * * * * * * * * * * * * * * * * * //

dimensions      [0 1 -1 0 0 0 0];


internalField   nonuniform List<vector> 
78750
(
(-5.36342e-06 -0.000100993 2.57478e-05)
(-2.30488e-05 -0.000102643 4.64744e-05)
(-6.21251e-05 -7.27422e-05 6.64952e-05)
(-0.000115926 -3.06363e-05 9.231e-05)
(-0.000179641 1.42973e-05 0.000123983)
(-0.000250138 5.81717e-05 0.000160581)
(-0.000324555 9.90762e-05 0.000199423)
(-0.000400371 0.000136105 0.000237588)
(-0.000475582 0.000167917 0.000271964)
(-0.000548313 0.000193916 0.000299581)
(-0.000616897 0.000213421 0.000317811)
(-0.000679979 0.000226372 0.000324948)
(-0.000736451 0.000232737 0.000319885)
(-0.000785323 0.000232906 0.000302344)
(-0.000825735 0.000227334 0.000272743)
(-0.000857245 0.000216767 0.000232149)
(-0.000878853 0.000202179 0.000183234)
(-0.000891092 0.000183689 0.00012545)
(-0.000893313 0.00016235 6.20404e-05)
(-0.000885725 0.000138876 -4.87357e-06)
(-0.000868524 0.000113853 -7.31624e-05)
(-0.000842065 8.78752e-05 -0.000140717)
(-0.000806778 6.14498e-05 -0.000205512)
(-0.000763216 3.50633e-05 -0.00026561)
(-0.000712007 9.17911e-06 -0.00031917)
(-0.000653866 -1.57453e-05 -0.00036446)
(-0.000589577 -3.91978e-05 -0.000399795)
(-0.000520026 -6.06156e-05 -0.000423575)
(-0.000446219 -7.92675e-05 -0.000434236)
(-0.000369265 -9.42621e-05 -0.000430325)
(-0.000290143 -0.000104387 -0.000410416)
(-0.000209575 -0.000108048 -0.00037334)
(-0.000130107 -0.000102997 -0.000318123)
(-6.65318e-05 -8.64729e-05 -0.000244705)
(-2.14425e-05 -4.67894e-05 -0.000118945)
(-2.6513e-05 0.000413105 -0.000426979)
(-8.51214e-05 0.000808048 -0.000549541)
(-0.000160363 0.00101173 -0.000577822)
(-0.000260167 0.00115094 -0.000608806)
(-0.000361178 0.00123572 -0.000638369)
(-0.00045634 0.00127198 -0.000661233)
(-0.00054194 0.00127086 -0.000678244)
(-0.000616653 0.00124335 -0.00069213)
(-0.000680039 0.0011972 -0.000703435)
(-0.000730544 0.00113353 -0.000711737)
(-0.000769654 0.0010596 -0.000716092)
(-0.000797987 0.000979107 -0.000716781)
(-0.000815879 0.000895787 -0.000713873)
(-0.00082457 0.000810164 -0.000709375)
(-0.000824299 0.00072422 -0.000704074)
(-0.000816088 0.000639095 -0.000698505)
(-0.000800645 0.000556385 -0.000692889)
(-0.000778726 0.000476512 -0.000687704)
(-0.000751162 0.000400428 -0.00068293)
(-0.000718643 0.00032835 -0.000678679)
(-0.00068192 0.00026077 -0.000674778)
(-0.000641603 0.000197742 -0.000671138)
(-0.000598332 0.000139424 -0.000667509)
(-0.000552634 8.57889e-05 -0.000663617)
(-0.000505031 3.67986e-05 -0.000659094)
(-0.000455966 -7.57277e-06 -0.000653411)
(-0.000405866 -4.7428e-05 -0.000645927)
(-0.0003551 -8.27076e-05 -0.000635601)
(-0.000304055 -0.000113447 -0.000621055)
(-0.00025309 -0.000139379 -0.000600165)
(-0.000202304 -0.000160207 -0.000570221)
(-0.000151147 -0.000174841 -0.000525732)
(-0.000100002 -0.000181008 -0.0004532)
(-5.99757e-05 -0.000172354 -0.000334975)
(-3.02065e-05 -0.000104733 -9.91558e-05)
(-3.00939e-05 0.000825265 -1.62399e-05)
(-7.59323e-05 0.00143485 -1.49737e-05)
(-0.000124182 0.00167875 -9.45293e-06)
(-0.000187866 0.00181965 -1.11727e-05)
(-0.000249046 0.00187435 -2.38306e-05)
(-0.000303849 0.00186207 -4.70155e-05)
(-0.000352249 0.00180486 -8.43068e-05)
(-0.000393419 0.0017222 -0.000135093)
(-0.000426682 0.00162524 -0.000198487)
(-0.000451553 0.00152237 -0.00026919)
(-0.000468458 0.00141694 -0.000341788)
(-0.000477753 0.00131111 -0.000408178)
(-0.000480409 0.00120379 -0.000462434)
(-0.000476593 0.00109617 -0.000499972)
(-0.000468514 0.000990751 -0.000523277)
(-0.000456404 0.000888967 -0.000536102)
(-0.000440969 0.000791198 -0.000542118)
(-0.000422742 0.00069838 -0.000543288)
(-0.000402397 0.000611176 -0.000540991)
(-0.000380352 0.000530042 -0.00053605)
(-0.000356978 0.000454898 -0.000529338)
(-0.00033262 0.000385837 -0.000521233)
(-0.000307545 0.000322685 -0.000512167)
(-0.000282023 0.000265295 -0.000502266)
(-0.000256258 0.00021345 -0.000491667)
(-0.000230434 0.000166875 -0.000480261)
(-0.000204692 0.000125388 -0.000467835)
(-0.000179145 8.8728e-05 -0.000453883)
(-0.000153905 5.68712e-05 -0.000437577)
(-0.000129045 2.97666e-05 -0.000417577)
(-0.000104556 7.7424e-06 -0.000391667)
(-8.00479e-05 -8.79545e-06 -0.000355756)
(-5.52882e-05 -1.89692e-05 -0.000302408)
(-3.44599e-05 -2.1281e-05 -0.000223582)
(-1.97403e-05 -6.24087e-06 -5.4572e-05)
(-2.75069e-05 0.000945358 0.000361319)
(-5.22381e-05 0.00156013 0.000474316)
(-6.70699e-05 0.00180933 0.000490703)
(-8.72689e-05 0.00195594 0.000497794)
(-0.000106918 0.00201813 0.000506619)
(-0.000126526 0.00201499 0.000509888)
(-0.00014808 0.00197145 0.000500512)
(-0.000170988 0.0019018 0.000469885)
(-0.000192914 0.00181593 0.000417118)
(-0.000212074 0.00171776 0.000343122)
(-0.000227009 0.00161167 0.000252963)
(-0.000236957 0.00149937 0.00015236)
(-0.000241711 0.00138454 5.06543e-05)
(-0.000241696 0.0012697 -4.2642e-05)
(-0.000237566 0.0011579 -0.000119665)
(-0.00023012 0.0010509 -0.000178534)
(-0.000220785 0.000950228 -0.000223392)
(-0.000209517 0.000856041 -0.000257729)
(-0.000197019 0.000768953 -0.000283702)
(-0.000183783 0.000688763 -0.000303197)
(-0.000170251 0.000615079 -0.000317813)
(-0.000156705 0.000547528 -0.00032864)
(-0.000143438 0.00048628 -0.000335956)
(-0.000130631 0.000430909 -0.000340368)
(-0.000118397 0.000381002 -0.00034218)
(-0.000106846 0.000336115 -0.000341732)
(-9.59856e-05 0.000295783 -0.000339104)
(-8.58172e-05 0.000259566 -0.000334462)
(-7.6226e-05 0.000226965 -0.000327652)
(-6.70907e-05 0.000197572 -0.000318487)
(-5.80678e-05 0.000170882 -0.000306513)
(-4.84452e-05 0.00014655 -0.000292317)
(-3.70361e-05 0.000123998 -0.000277374)
(-2.55934e-05 0.000103094 -0.00025498)
(-1.6309e-05 7.23461e-05 -0.000149785)
(-1.90822e-05 0.000766358 0.000451252)
(-2.63251e-05 0.00119552 0.000587717)
(-2.1887e-05 0.00138692 0.000604988)
(-1.30884e-05 0.00152086 0.00062124)
(-2.52843e-06 0.00160619 0.000637392)
(7.15688e-06 0.00165175 0.000645054)
(1.42268e-05 0.00166518 0.000642106)
(1.87221e-05 0.00165314 0.000628007)
(2.12398e-05 0.00161966 0.000601972)
(2.26149e-05 0.00156893 0.000563451)
(2.34345e-05 0.00150339 0.00051297)
(2.41932e-05 0.00142655 0.000452187)
(2.5134e-05 0.00134109 0.000384298)
(2.65518e-05 0.00125103 0.00031355)
(2.7987e-05 0.00115986 0.000243929)
(2.97323e-05 0.00107128 0.000179765)
(3.14648e-05 0.000987577 0.000123621)
(3.30133e-05 0.000910502 7.6313e-05)
(3.41549e-05 0.000840411 3.73586e-05)
(3.4709e-05 0.000777559 5.75803e-06)
(3.46117e-05 0.000721546 -1.92603e-05)
(3.36586e-05 0.000671911 -3.88296e-05)
(3.17555e-05 0.00062777 -5.40206e-05)
(2.89373e-05 0.000588647 -6.53723e-05)
(2.51637e-05 0.000553839 -7.35086e-05)
(2.05329e-05 0.000522608 -7.9044e-05)
(1.51273e-05 0.000494106 -8.26221e-05)
(9.13208e-06 0.000467553 -8.47067e-05)
(2.80446e-06 0.000441818 -8.61786e-05)
(-3.52308e-06 0.000415764 -8.75883e-05)
(-9.44577e-06 0.000387839 -8.9633e-05)
(-1.4284e-05 0.000356268 -9.56304e-05)
(-1.62921e-05 0.000318441 -0.000114692)
(-1.4316e-05 0.000272408 -0.000142006)
(-1.09751e-05 0.000178796 -0.0001102)
(-9.4185e-06 0.00058949 0.000410827)
(-8.15119e-06 0.000882297 0.000515451)
(-4.95228e-07 0.00102576 0.000524027)
(1.37049e-05 0.00113481 0.000530928)
(3.14548e-05 0.00121255 0.000538059)
(5.09261e-05 0.00126324 0.000539811)
(7.07855e-05 0.00129244 0.00053536)
(9.02435e-05 0.00130304 0.000525624)
(0.000108643 0.00129872 0.000510816)
(0.000125474 0.00128154 0.000491113)
(0.000140315 0.00125424 0.0004667)
(0.000152788 0.00121843 0.000438129)
(0.000162624 0.0011765 0.000406016)
(0.000169614 0.00113011 0.000371442)
(0.000173775 0.00108152 0.000335567)
(0.000175027 0.00103238 0.000299735)
(0.000173767 0.000984558 0.000265566)
(0.00017019 0.000938999 0.000234105)
(0.00016456 0.00089671 0.000205948)
(0.000157116 0.000857967 0.000181296)
(0.000148115 0.00082307 0.000160298)
(0.000137742 0.000791651 0.000142707)
(0.000126208 0.000763428 0.000128196)
(0.00011368 0.000737705 0.000116284)
(0.000100374 0.00071397 0.000106624)
(8.6477e-05 0.00069133 9.86671e-05)
(7.22131e-05 0.000669016 9.19216e-05)
(5.78265e-05 0.000645852 8.56014e-05)
(4.36327e-05 0.000620708 7.88641e-05)
(2.99789e-05 0.000591953 7.07837e-05)
(1.72291e-05 0.000557814 6.03837e-05)
(5.90491e-06 0.000515786 4.38911e-05)
(-2.48994e-06 0.000462921 1.1849e-05)
(-5.67795e-06 0.000395319 -3.29269e-05)
(-5.8377e-06 0.000250203 -4.22058e-05)
(-5.12551e-06 0.000432252 0.000320669)
(-3.01624e-06 0.000643785 0.000353862)
(1.78251e-06 0.000748801 0.000333916)
(1.17301e-05 0.00083232 0.000321089)
(2.45586e-05 0.000896484 0.000314722)
(3.89842e-05 0.000945154 0.000308474)
(5.42056e-05 0.000981321 0.000300976)
(6.96231e-05 0.00100711 0.000292396)
(8.46338e-05 0.00102384 0.000282566)
(9.87836e-05 0.00103298 0.00027112)
(0.000111629 0.00103537 0.000257846)
(0.000122863 0.00103227 0.000242734)
(0.000132219 0.00102446 0.000225931)
(0.000139523 0.00101326 0.000207923)
(0.000144647 0.0009995 0.000189324)
(0.000147587 0.000984433 0.000170819)
(0.000148311 0.000968559 0.000152753)
(0.000147012 0.000952807 0.000135886)
(0.00014381 0.000937413 0.000120591)
(0.000138807 0.000922883 0.000107083)
(0.000132219 0.000909024 9.53958e-05)
(0.000124243 0.000895931 8.56031e-05)
(0.000115044 0.000883085 7.7444e-05)
(0.000104796 0.000870292 7.08019e-05)
(9.36729e-05 0.000856821 6.53191e-05)
(8.18363e-05 0.000842247 6.08036e-05)
(6.94881e-05 0.000825543 5.67782e-05)
(5.68165e-05 0.000805886 5.28293e-05)
(4.41201e-05 0.000781729 4.8256e-05)
(3.1635e-05 0.000751526 4.25118e-05)
(1.97659e-05 0.000712714 3.44333e-05)
(8.93354e-06 0.000662339 2.05275e-05)
(5.30229e-07 0.000596011 -6.4169e-06)
(-3.41873e-06 0.000508081 -4.29416e-05)
(-4.35556e-06 0.000313679 -4.96122e-05)
(-2.48736e-06 0.000365406 0.000215778)
(-1.40923e-06 0.000575815 0.000218778)
(-1.48372e-06 0.000674424 0.000192825)
(1.92082e-07 0.000750847 0.000171531)
(3.19094e-06 0.000810567 0.000157813)
(7.07211e-06 0.000857092 0.00014665)
(1.16903e-05 0.000893545 0.00013593)
(1.69343e-05 0.000921783 0.000125104)
(2.26525e-05 0.000943674 0.000114258)
(2.86245e-05 0.000960183 0.000103275)
(3.46603e-05 0.000972548 9.23093e-05)
(4.05177e-05 0.000981273 8.12928e-05)
(4.60071e-05 0.000987283 7.04341e-05)
(5.09074e-05 0.000990852 5.97358e-05)
(5.5071e-05 0.000992756 4.94852e-05)
(5.8388e-05 0.000993124 3.97798e-05)
(6.08146e-05 0.000992608 3.09156e-05)
(6.22459e-05 0.000991232 2.27528e-05)
(6.26453e-05 0.000989533 1.5537e-05)
(6.21219e-05 0.000987222 9.48593e-06)
(6.06365e-05 0.000984595 4.74398e-06)
(5.8217e-05 0.000981224 1.14427e-06)
(5.49156e-05 0.000977168 -1.23277e-06)
(5.07685e-05 0.000971749 -2.70102e-06)
(4.58501e-05 0.000964756 -3.291e-06)
(4.02317e-05 0.000955192 -3.43539e-06)
(3.40294e-05 0.000942451 -3.27351e-06)
(2.73896e-05 0.000925032 -3.36618e-06)
(2.0499e-05 0.000901645 -3.9696e-06)
(1.36071e-05 0.000869893 -5.72433e-06)
(6.9932e-06 0.00082721 -9.23007e-06)
(1.11399e-06 0.00076955 -1.68668e-05)
(-3.17643e-06 0.000691957 -3.26677e-05)
(-4.7068e-06 0.000587298 -5.40891e-05)
(-4.27508e-06 0.000354253 -5.1421e-05)
(-2.63535e-06 0.000318516 0.000130364)
(-3.15347e-06 0.000536563 0.000135964)
(-4.93538e-06 0.000637913 0.000124377)
(-6.53464e-06 0.000716132 0.000113429)
(-7.67258e-06 0.000776619 0.000104756)
(-8.33507e-06 0.000823903 9.6548e-05)
(-8.5117e-06 0.000860878 8.78251e-05)
(-8.13544e-06 0.000890195 7.87111e-05)
(-7.22165e-06 0.00091336 6.92205e-05)
(-5.77106e-06 0.00093203 5.9702e-05)
(-3.85789e-06 0.000946962 5.0217e-05)
(-1.54119e-06 0.000959283 4.11532e-05)
(1.06147e-06 0.000969329 3.2573e-05)
(3.85208e-06 0.000977925 2.485e-05)
(6.70046e-06 0.000985148 1.80159e-05)
(9.49815e-06 0.000991624 1.23796e-05)
(1.21166e-05 0.000997231 7.89175e-06)
(1.44737e-05 0.00100246 4.71517e-06)
(1.64758e-05 0.00100699 2.7071e-06)
(1.80426e-05 0.00101114 1.99601e-06)
(1.91091e-05 0.0010144 2.33252e-06)
(1.96322e-05 0.00101692 3.7608e-06)
(1.95783e-05 0.001018 5.9374e-06)
(1.8941e-05 0.00101756 8.83194e-06)
(1.77314e-05 0.00101462 1.20265e-05)
(1.59821e-05 0.00100878 1.54229e-05)
(1.37549e-05 0.000998629 1.85302e-05)
(1.1136e-05 0.000983208 2.11596e-05)
(8.25476e-06 0.00096036 2.27646e-05)
(5.25105e-06 0.00092813 2.31725e-05)
(2.31387e-06 0.000883004 2.1567e-05)
(-3.07774e-07 0.000821209 1.66795e-05)
(-2.15082e-06 0.000736727 5.74324e-06)
(-2.67095e-06 0.000622404 -9.55579e-06)
(-2.17409e-06 0.000367504 -1.47118e-05)
(-3.64453e-06 0.000299489 8.89159e-05)
(-5.97818e-06 0.000521306 0.000109074)
(-9.39744e-06 0.000623904 0.000112652)
(-1.34139e-05 0.000702312 0.000112501)
(-1.69673e-05 0.000762677 0.000110259)
(-1.99974e-05 0.000809286 0.000106074)
(-2.24922e-05 0.000845716 0.000100391)
(-2.4403e-05 0.000874215 9.3485e-05)
(-2.56865e-05 0.000896951 8.58852e-05)
(-2.63245e-05 0.000915075 7.7811e-05)
(-2.63261e-05 0.000929986 6.97381e-05)
(-2.5726e-05 0.000942227 6.18329e-05)
(-2.4575e-05 0.000952767 5.45217e-05)
(-2.29363e-05 0.000961785 4.79047e-05)
(-2.09003e-05 0.000969988 4.23333e-05)
(-1.85528e-05 0.000977311 3.78152e-05)
(-1.59812e-05 0.000984273 3.46028e-05)
(-1.33072e-05 0.000990594 3.26482e-05)
(-1.062e-05 0.000996636 3.21011e-05)
(-8.01011e-06 0.00100196 3.27561e-05)
(-5.56908e-06 0.00100677 3.46655e-05)
(-3.36924e-06 0.00101043 3.75244e-05)
(-1.47661e-06 0.00101294 4.12951e-05)
(6.92897e-08 0.00101342 4.55875e-05)
(1.23285e-06 0.00101162 5.02817e-05)
(2.01144e-06 0.00100634 5.49003e-05)
(2.41832e-06 0.000996906 5.92511e-05)
(2.48861e-06 0.000981557 6.28076e-05)
(2.2708e-06 0.000958871 6.52984e-05)
(1.84963e-06 0.000926105 6.60759e-05)
(1.28625e-06 0.000880489 6.47472e-05)
(6.60277e-07 0.000817514 6.00613e-05)
(8.75781e-08 0.000731924 5.02215e-05)
(-1.60944e-07 0.000615988 3.5315e-05)
(-3.34722e-08 0.000358976 1.66218e-05)
(-4.66225e-06 0.000286298 6.65363e-05)
(-8.18933e-06 0.000503475 0.00010023)
(-1.26111e-05 0.000603335 0.000114291)
(-1.79114e-05 0.000679357 0.000121703)
(-2.26241e-05 0.000737253 0.000123953)
(-2.67102e-05 0.000781718 0.000122717)
(-3.01632e-05 0.000815821 0.000118909)
(-3.29602e-05 0.000842331 0.000113338)
(-3.50122e-05 0.000862877 0.000106476)
(-3.63088e-05 0.000879189 9.89314e-05)
(-3.682e-05 0.000892104 9.10563e-05)
(-3.65792e-05 0.000902777 8.33599e-05)
(-3.56056e-05 0.00091159 7.60972e-05)
(-3.39784e-05 0.000919357 6.96778e-05)
(-3.17594e-05 0.000926167 6.42505e-05)
(-2.90551e-05 0.000932605 6.01162e-05)
(-2.59558e-05 0.000938541 5.73065e-05)
(-2.25946e-05 0.000944378 5.6005e-05)
(-1.90683e-05 0.000949788 5.61183e-05)
(-1.55091e-05 0.000955003 5.77058e-05)
(-1.20163e-05 0.000959508 6.05493e-05)
(-8.69895e-06 0.000963357 6.45896e-05)
(-5.6345e-06 0.000965825 6.94914e-05)
(-2.90637e-06 0.000966751 7.50875e-05)
(-5.55065e-07 0.000965132 8.09469e-05)
(1.377e-06 0.000960466 8.6826e-05)
(2.88057e-06 0.000951338 9.22082e-05)
(3.95803e-06 0.000936734 9.67675e-05)
(4.6297e-06 0.000914561 9.99012e-05)
(4.9242e-06 0.000882898 0.000101187)
(4.85445e-06 0.00083845 9.98145e-05)
(4.39562e-06 0.000777635 9.47537e-05)
(3.50375e-06 0.000694966 8.39796e-05)
(2.55512e-06 0.000583802 6.67916e-05)
(1.81674e-06 0.000337975 3.52044e-05)
(-4.65712e-06 0.000276573 4.81934e-05)
(-8.45019e-06 0.000484131 8.75458e-05)
(-1.32024e-05 0.000579312 0.000106445)
(-1.89174e-05 0.000651183 0.000117268)
(-2.40574e-05 0.000705661 0.000121571)
(-2.85047e-05 0.000746792 0.00012147)
(-3.22896e-05 0.000778005 0.000118346)
(-3.5325e-05 0.00080151 0.000112975)
(-3.75545e-05 0.000819392 0.000106079)
(-3.88953e-05 0.000832863 9.81745e-05)
(-3.93469e-05 0.000843282 8.98639e-05)
(-3.88991e-05 0.000851296 8.15636e-05)
(-3.76094e-05 0.000857847 7.37728e-05)
(-3.55187e-05 0.000863239 6.67959e-05)
(-3.27407e-05 0.000868141 6.10099e-05)
(-2.93599e-05 0.000872609 5.65922e-05)
(-2.55269e-05 0.000877101 5.37846e-05)
(-2.13622e-05 0.00088146 5.26232e-05)
(-1.70276e-05 0.000885952 5.32019e-05)
(-1.26545e-05 0.000890219 5.54076e-05)
(-8.39791e-06 0.000894334 5.91848e-05)
(-4.37265e-06 0.000897731 6.42754e-05)
(-7.08272e-07 0.000900276 7.04859e-05)
(2.51766e-06 0.000901169 7.74296e-05)
(5.22229e-06 0.000900021 8.47928e-05)
(7.36571e-06 0.000895727 9.20804e-05)
(8.91584e-06 0.000887526 9.88813e-05)
(9.87229e-06 0.000873844 0.000104618)
(1.02488e-05 0.000853303 0.000108801)
(1.00809e-05 0.000823517 0.000110761)
(9.38123e-06 0.000782008 0.000109781)
(8.09851e-06 0.0007249 0.000104583)
(6.19601e-06 0.000647698 9.31827e-05)
(4.28722e-06 0.000543782 7.43289e-05)
(2.75593e-06 0.00031471 3.66403e-05)
(-3.89515e-06 0.000270067 2.41869e-05)
(-7.53433e-06 0.00046875 5.94429e-05)
(-1.22405e-05 0.000559382 7.78368e-05)
(-1.8042e-05 0.000627455 8.84431e-05)
(-2.33809e-05 0.000678332 9.22965e-05)
(-2.80953e-05 0.000716226 9.16793e-05)
(-3.21145e-05 0.000744085 8.78741e-05)
(-3.53481e-05 0.000764457 8.17478e-05)
(-3.76599e-05 0.000779001 7.38938e-05)
(-3.89822e-05 0.000789356 6.4952e-05)
(-3.92588e-05 0.000796484 5.54356e-05)
(-3.85056e-05 0.000801517 4.59205e-05)
(-3.67402e-05 0.000805011 3.68655e-05)
(-3.40523e-05 0.000807781 2.87776e-05)
(-3.05339e-05 0.000810105 2.20185e-05)
(-2.63416e-05 0.000812555 1.69546e-05)
(-2.16227e-05 0.000815167 1.37821e-05)
(-1.65703e-05 0.000818286 1.26809e-05)
(-1.13598e-05 0.000821721 1.36582e-05)
(-6.19241e-06 0.00082559 1.6699e-05)
(-1.23826e-06 0.000829474 2.16166e-05)
(3.32211e-06 0.000833261 2.82023e-05)
(7.35558e-06 0.000836298 3.60815e-05)
(1.07312e-05 0.000838231 4.48721e-05)
(1.33735e-05 0.000838147 5.40663e-05)
(1.5222e-05 0.000835402 6.31949e-05)
(1.62614e-05 0.000828747 7.17095e-05)
(1.65001e-05 0.000817106 7.91013e-05)
(1.59844e-05 0.000798684 8.47717e-05)
(1.47846e-05 0.000771659 8.81537e-05)
(1.29598e-05 0.000733259 8.8458e-05)
(1.05231e-05 0.000680282 8.4527e-05)
(7.52097e-06 0.000608172 7.43435e-05)
(4.83251e-06 0.000511148 5.69106e-05)
(2.76533e-06 0.000296843 2.24797e-05)
(-2.64105e-06 0.000272503 -3.46701e-06)
(-5.91661e-06 0.000468643 2.03308e-05)
(-1.04046e-05 0.000557718 3.45024e-05)
(-1.61676e-05 0.000623839 4.21971e-05)
(-2.17178e-05 0.000672581 4.38182e-05)
(-2.67405e-05 0.000707835 4.1283e-05)
(-3.11057e-05 0.000732886 3.57649e-05)
(-3.46294e-05 0.000749996 2.79179e-05)
(-3.71709e-05 0.000761226 1.83135e-05)
(-3.85959e-05 0.00076795 7.45663e-06)
(-3.88514e-05 0.000771568 -4.09867e-06)
(-3.79045e-05 0.000772955 -1.58105e-05)
(-3.57976e-05 0.000773132 -2.70264e-05)
(-3.26e-05 0.000772658 -3.71296e-05)
(-2.84521e-05 0.000772278 -4.55234e-05)
(-2.35212e-05 0.000772287 -5.17745e-05)
(-1.80179e-05 0.000773162 -5.55535e-05)
(-1.21571e-05 0.000774909 -5.67943e-05)
(-6.17832e-06 0.000777729 -5.54192e-05)
(-3.111e-07 0.000781369 -5.14689e-05)
(5.21519e-06 0.000785756 -4.50891e-05)
(1.01913e-05 0.000790359 -3.65839e-05)
(1.4427e-05 0.000794829 -2.63622e-05)
(1.77857e-05 0.000798366 -1.50263e-05)
(2.01743e-05 0.000800344 -3.27074e-06)
(2.15466e-05 0.000799686 8.24672e-06)
(2.19066e-05 0.000795444 1.90353e-05)
(2.12885e-05 0.000786135 2.85743e-05)
(1.97867e-05 0.000770282 3.63436e-05)
(1.75101e-05 0.000745715 4.18151e-05)
(1.45964e-05 0.000710026 4.43754e-05)
(1.11386e-05 0.000659767 4.30043e-05)
(7.34593e-06 0.000590825 3.60342e-05)
(4.24188e-06 0.000497363 2.30146e-05)
(2.01251e-06 0.000290431 -5.77876e-07)
(-1.40283e-06 0.000285936 -2.93385e-05)
(-4.37709e-06 0.000488079 -1.95531e-05)
(-8.55801e-06 0.000579275 -1.12453e-05)
(-1.42285e-05 0.000646277 -7.60791e-06)
(-1.9918e-05 0.000694626 -9.03995e-06)
(-2.52174e-05 0.000728657 -1.40654e-05)
(-2.98932e-05 0.000751575 -2.18346e-05)
(-3.37309e-05 0.00076607 -3.18621e-05)
(-3.65194e-05 0.000774097 -4.37628e-05)
(-3.811e-05 0.000777453 -5.71474e-05)
(-3.83987e-05 0.000777417 -7.15482e-05)
(-3.73541e-05 0.00077528 -8.62619e-05)
(-3.49979e-05 0.000771926 -0.000100357)
(-3.14287e-05 0.000768331 -0.000112905)
(-2.67984e-05 0.000765084 -0.000123215)
(-2.13103e-05 0.000762853 -0.000130854)
(-1.52052e-05 0.000761908 -0.000135582)
(-8.7405e-06 0.000762607 -0.000137198)
(-2.17888e-06 0.000764904 -0.000135665)
(4.21256e-06 0.000768812 -0.000131036)
(1.01735e-05 0.000773949 -0.000123406)
(1.54554e-05 0.000779994 -0.000112992)
(1.98393e-05 0.000786233 -0.000100215)
(2.31582e-05 0.000792027 -8.57938e-05)
(2.53001e-05 0.000796361 -7.06694e-05)
(2.62232e-05 0.000798293 -5.58499e-05)
(2.59441e-05 0.000796496 -4.21518e-05)
(2.45471e-05 0.000789643 -3.0049e-05)
(2.21637e-05 0.000775899 -1.98771e-05)
(1.89734e-05 0.000753225 -1.19793e-05)
(1.51592e-05 0.000718853 -6.77273e-06)
(1.09285e-05 0.000669462 -4.9888e-06)
(6.60992e-06 0.000600605 -7.8597e-06)
(3.35727e-06 0.00050657 -1.50824e-05)
(1.0699e-06 0.00029732 -2.48644e-05)
(-4.89723e-07 0.000310683 -4.71106e-05)
(-3.28401e-06 0.000526361 -4.95079e-05)
(-7.13273e-06 0.000623247 -4.6807e-05)
(-1.26036e-05 0.000693624 -4.71609e-05)
(-1.82769e-05 0.000743587 -5.15575e-05)
(-2.36523e-05 0.000777678 -5.90178e-05)
(-2.84553e-05 0.000799567 -6.90094e-05)
(-3.24222e-05 0.000812039 -8.12538e-05)
(-3.53239e-05 0.000817463 -9.55581e-05)
(-3.69576e-05 0.000817671 -0.000111653)
(-3.72129e-05 0.000814322 -0.000128978)
(-3.60408e-05 0.000808703 -0.000146491)
(-3.34858e-05 0.000802064 -0.000162926)
(-2.96567e-05 0.000795334 -0.000177192)
(-2.47378e-05 0.000789434 -0.000188599)
(-1.8952e-05 0.000784967 -0.000196839)
(-1.25599e-05 0.000782494 -0.000201809)
(-5.82944e-06 0.000782222 -0.000203461)
(9.67258e-07 0.00078431 -0.000201772)
(7.55627e-06 0.00078857 -0.000196736)
(1.36631e-05 0.000794772 -0.000188385)
(1.90254e-05 0.000802339 -0.000176815)
(2.34126e-05 0.000810652 -0.000162349)
(2.66272e-05 0.000818772 -0.000145672)
(2.85521e-05 0.000825734 -0.000127891)
(2.91291e-05 0.000830269 -0.000110307)
(2.83906e-05 0.000831047 -9.39886e-05)
(2.64335e-05 0.000826371 -7.95025e-05)
(2.34484e-05 0.000814356 -6.70947e-05)
(1.96381e-05 0.000792603 -5.69343e-05)
(1.52481e-05 0.000758281 -4.92711e-05)
(1.05327e-05 0.000707676 -4.45432e-05)
(5.93432e-06 0.000636169 -4.35602e-05)
(2.67341e-06 0.000537597 -4.54175e-05)
(3.14139e-07 0.000317447 -4.30786e-05)
(-6.83244e-08 0.000343119 -5.4904e-05)
(-2.85361e-06 0.000576358 -6.45859e-05)
(-6.40058e-06 0.000680786 -6.55331e-05)
(-1.16384e-05 0.000756106 -6.85084e-05)
(-1.71377e-05 0.000808832 -7.47921e-05)
(-2.24008e-05 0.000844054 -8.37831e-05)
(-2.71138e-05 0.000865689 -9.51726e-05)
(-3.10212e-05 0.000876938 -0.000108875)
(-3.38506e-05 0.000880322 -0.00012485)
(-3.53996e-05 0.000878026 -0.000142865)
(-3.55404e-05 0.000871805 -0.00016214)
(-3.42434e-05 0.000863267 -0.000181352)
(-3.15491e-05 0.000853722 -0.000199041)
(-2.75942e-05 0.000844387 -0.000214113)
(-2.25679e-05 0.000836194 -0.000225973)
(-1.67098e-05 0.000829966 -0.000234449)
(-1.02797e-05 0.00082621 -0.000239527)
(-3.53859e-06 0.000825303 -0.000241234)
(3.24374e-06 0.000827304 -0.000239557)
(9.7982e-06 0.000832141 -0.000234497)
(1.58561e-05 0.000839424 -0.000226009)
(2.11583e-05 0.00084863 -0.000214096)
(2.54572e-05 0.000858925 -0.000198915)
(2.85573e-05 0.000869357 -0.000181059)
(3.03184e-05 0.000878697 -0.000161634)
(3.06879e-05 0.000885613 -0.000142123)
(2.96877e-05 0.000888481 -0.000123876)
(2.74396e-05 0.000885521 -0.000107707)
(2.41276e-05 0.000874536 -9.38396e-05)
(2.00186e-05 0.000852974 -8.22927e-05)
(1.53523e-05 0.000817615 -7.31264e-05)
(1.04248e-05 0.000764506 -6.65887e-05)
(5.7038e-06 0.000688529 -6.31665e-05)
(2.50375e-06 0.000583126 -6.1644e-05)
(-2.22382e-08 0.000346994 -5.19902e-05)
(-5.87423e-08 0.000379495 -5.40048e-05)
(-2.93472e-06 0.000631285 -6.55114e-05)
(-6.33837e-06 0.000743827 -6.76571e-05)
(-1.14396e-05 0.000824539 -7.15226e-05)
(-1.68059e-05 0.000880523 -7.84312e-05)
(-2.19257e-05 0.000917259 -8.79324e-05)
(-2.65087e-05 0.000939086 -9.98354e-05)
(-3.02852e-05 0.000949453 -0.000114145)
(-3.29815e-05 0.000951216 -0.000130923)
(-3.43886e-05 0.000946727 -0.000149878)
(-3.43937e-05 0.000938027 -0.000170037)
(-3.29643e-05 0.000926857 -0.000189846)
(-3.01602e-05 0.00091477 -0.000207793)
(-2.61218e-05 0.000903072 -0.000222822)
(-2.10536e-05 0.00089289 -0.000234494)
(-1.519e-05 0.00088508 -0.000242754)
(-8.78667e-06 0.000880285 -0.00024769)
(-2.1004e-06 0.000878859 -0.00024935)
(4.61301e-06 0.000880942 -0.000247745)
(1.10923e-05 0.000886388 -0.000242855)
(1.70785e-05 0.000894832 -0.000234622)
(2.23175e-05 0.000905627 -0.000222946)
(2.65676e-05 0.000917906 -0.000207875)
(2.96193e-05 0.000930534 -0.000189843)
(3.13347e-05 0.000942193 -0.000169911)
(3.1639e-05 0.000951322 -0.000149608)
(3.05598e-05 0.000956165 -0.000130506)
(2.82087e-05 0.000954671 -0.000113593)
(2.47876e-05 0.000944474 -9.91624e-05)
(2.05559e-05 0.000922706 -8.71459e-05)
(1.5782e-05 0.000885898 -7.75175e-05)
(1.07476e-05 0.0008297 -7.04288e-05)
(5.94549e-06 0.000748608 -6.62581e-05)
(2.7405e-06 0.000635504 -6.37241e-05)
(7.61922e-09 0.000381678 -5.21685e-05)
(-3.48188e-07 0.000415958 -4.6983e-05)
(-3.38871e-06 0.000685209 -5.57591e-05)
(-6.80844e-06 0.000805382 -5.69375e-05)
(-1.19162e-05 0.000891199 -6.01873e-05)
(-1.72243e-05 0.000950233 -6.66363e-05)
(-2.22541e-05 0.000988406 -7.58094e-05)
(-2.67249e-05 0.00101037 -8.75034e-05)
(-3.0372e-05 0.00101989 -0.000101776)
(-3.29199e-05 0.00102006 -0.000118664)
(-3.41753e-05 0.00101348 -0.000137789)
(-3.40279e-05 0.00100238 -0.000158009)
(-3.24595e-05 0.00098872 -0.000177675)
(-2.95335e-05 0.000974193 -0.000195249)
(-2.54036e-05 0.000960286 -0.000209787)
(-2.02736e-05 0.000948217 -0.000220966)
(-1.43803e-05 0.000938971 -0.000228843)
(-7.96958e-06 0.000933226 -0.000233536)
(-1.29136e-06 0.000931409 -0.000235118)
(5.40428e-06 0.000933642 -0.0002336)
(1.18615e-05 0.000939799 -0.000228965)
(1.78292e-05 0.000949448 -0.000221135)
(2.30631e-05 0.000961908 -0.000209984)
(2.73222e-05 0.000976189 -0.000195448)
(3.04019e-05 0.000991065 -0.000177847)
(3.21445e-05 0.00100505 -0.00015813)
(3.24814e-05 0.00101643 -0.000137843)
(3.14265e-05 0.00102325 -0.000118645)
(2.90917e-05 0.00102326 -0.000101686)
(2.56628e-05 0.00101386 -8.73472e-05)
(2.14078e-05 0.000991955 -7.5583e-05)
(1.65896e-05 0.000953756 -6.63238e-05)
(1.14855e-05 0.000894604 -5.97443e-05)
(6.56184e-06 0.000808567 -5.62722e-05)
(3.26719e-06 0.000688057 -5.48025e-05)
(3.1301e-07 0.000417211 -4.58994e-05)
(-8.23923e-07 0.000449711 -3.62386e-05)
(-4.07126e-06 0.000733965 -3.91468e-05)
(-7.63875e-06 0.000860656 -3.78612e-05)
(-1.28561e-05 0.000950736 -3.94466e-05)
(-1.81925e-05 0.00101221 -4.47169e-05)
(-2.31881e-05 0.00105134 -5.30005e-05)
(-2.75841e-05 0.00107308 -6.40125e-05)
(-3.11227e-05 0.00108147 -7.77661e-05)
(-3.35431e-05 0.00107982 -9.42756e-05)
(-3.46567e-05 0.00107096 -0.000113037)
(-3.4365e-05 0.00105732 -0.000132817)
(-3.265e-05 0.00104103 -0.000151904)
(-2.95907e-05 0.00102398 -0.000168807)
(-2.53412e-05 0.00100778 -0.000182671)
(-2.01085e-05 0.00099379 -0.000193284)
(-1.41234e-05 0.000983077 -0.000200741)
(-7.6326e-06 0.000976399 -0.000205187)
(-8.83036e-07 0.000974216 -0.000206681)
(5.88089e-06 0.000976673 -0.00020525)
(1.24029e-05 0.000983623 -0.000200865)
(1.84342e-05 0.000994603 -0.000193462)
(2.37375e-05 0.00100886 -0.000182892)
(2.80739e-05 0.00102531 -0.000169055)
(3.12335e-05 0.0010426 -0.000152161)
(3.30642e-05 0.0010591 -0.000133068)
(3.34829e-05 0.00107294 -0.00011327)
(3.25055e-05 0.00108197 -9.44839e-05)
(3.02294e-05 0.00108376 -7.79473e-05)
(2.68383e-05 0.00107547 -6.41631e-05)
(2.25901e-05 0.00105377 -5.31119e-05)
(1.77446e-05 0.00101464 -4.47696e-05)
(1.25489e-05 0.00095311 -3.94006e-05)
(7.45813e-06 0.000862902 -3.76386e-05)
(3.98382e-06 0.000736011 -3.86831e-05)
(7.97562e-07 0.000450409 -3.56039e-05)
(-1.37949e-06 0.00047901 -2.42501e-05)
(-4.83527e-06 0.000775036 -1.99065e-05)
(-8.61827e-06 0.000906752 -1.54657e-05)
(-1.40158e-05 0.000999963 -1.49139e-05)
(-1.94325e-05 0.001063 -1.86757e-05)
(-2.44331e-05 0.00110241 -2.58276e-05)
(-2.87926e-05 0.00112338 -3.59361e-05)
(-3.22585e-05 0.00113017 -4.89502e-05)
(-3.45793e-05 0.00112632 -6.48118e-05)
(-3.55772e-05 0.00111483 -8.29377e-05)
(-3.5156e-05 0.00109833 -0.00010202)
(-3.33053e-05 0.00107916 -0.000120353)
(-3.01056e-05 0.00105934 -0.000136499)
(-2.57127e-05 0.00104065 -0.000149693)
(-2.03364e-05 0.00102457 -0.000159776)
(-1.42028e-05 0.00101228 -0.000166863)
(-7.56112e-06 0.00100461 -0.000171089)
(-6.57999e-07 0.00100206 -0.000172509)
(6.25378e-06 0.00100479 -0.000171147)
(1.29169e-05 0.00101265 -0.000166978)
(1.90845e-05 0.00102512 -0.000159943)
(2.45107e-05 0.00104137 -0.000149906)
(2.89641e-05 0.00106024 -0.000136749)
(3.22379e-05 0.00108022 -0.000120629)
(3.41724e-05 0.00109956 -0.000102314)
(3.46834e-05 0.00111619 -8.32393e-05)
(3.37868e-05 0.0011278 -6.5115e-05)
(3.15733e-05 0.00113176 -4.92497e-05)
(2.82175e-05 0.00112505 -3.6225e-05)
(2.39693e-05 0.00110412 -2.60946e-05)
(1.90802e-05 0.00106473 -1.89013e-05)
(1.37722e-05 0.00100167 -1.50613e-05)
(8.47462e-06 0.00090839 -1.54684e-05)
(4.76544e-06 0.000776562 -1.97039e-05)
(1.35304e-06 0.000479354 -2.38756e-05)
(-1.88139e-06 0.000503384 -1.33998e-05)
(-5.49981e-06 0.000808005 -2.13959e-06)
(-9.50936e-06 0.000943265 5.35472e-06)
(-1.50944e-05 0.00103848 7.97531e-06)
(-2.06155e-05 0.0011022 5.66117e-06)
(-2.5663e-05 0.00114117 -4.08272e-07)
(-3.00279e-05 0.00116079 -9.64535e-06)
(-3.34658e-05 0.00116548 -2.19213e-05)
(-3.57349e-05 0.00115896 -3.70987e-05)
(-3.66619e-05 0.00114442 -5.45317e-05)
(-3.61508e-05 0.00112467 -7.28753e-05)
(-3.41896e-05 0.00110222 -9.04598e-05)
(-3.08611e-05 0.00107928 -0.000105915)
(-2.63201e-05 0.00105779 -0.000118532)
(-2.07735e-05 0.00103936 -0.000128166)
(-1.44579e-05 0.00102529 -0.000134962)
(-7.61944e-06 0.00101651 -0.000139022)
(-5.11436e-07 0.00101355 -0.000140387)