/*--------------------------------*- C++ -*----------------------------------*\
| =========                 |                                                 |
| \\      /  F ield         | OpenFOAM: The Open Source CFD Toolbox           |
|  \\    /   O peration     | Version:  v1912                                 |
|   \\  /    A nd           | Website:  www.openfoam.com                      |
|    \\/     M anipulation  |                                                 |
\*---------------------------------------------------------------------------*/
FoamFile
{
    version     2.0;
    format      ascii;
    class       volScalarField;
    location    "420/oil";
    object      heatTransferCoeff(T);
}
// * * * * * * * * * * * * * * * * * * * * * * * * * * * * * * * * * * * * * //

dimensions      [1 0 -3 -1 0 0 0];


internalField   uniform 0;

boundaryField
{
    maxY
    {
        type            calculated;
        value           uniform 0;
    }
    minX
    {
        type            calculated;
        value           uniform 0;
    }
    maxX
    {
        type            calculated;
        value           uniform 0;
    }
    minY
    {
        type            calculated;
        value           uniform 0;
    }
    minZ
    {
        type            calculated;
        value           uniform 0;
    }
    maxZ
    {
        type            calculated;
        value           uniform 0;
    }
    oil_to_sphere
    {
        type            calculated;
        value           nonuniform List<scalar> 
1536
(
-13.9829
-8.82447
-8.69656
0.678518
0.897309
-8.58483
-4.413
-6.14655
-5.52842
-0.146403
3.64684
-0.857198
-5.4379
-1.04682
4.84578
-3.85708
-8.59444
-8.94547
-3.58343
-5.16662
-7.34648
-5.61371
-5.97265
-3.80151
-4.30285
-4.05085
-4.28875
-3.17126
-8.27566
-5.77542
-9.82153
-8.86278
-9.03813
-3.91599
-4.21759
-3.21907
-3.69878
-2.18306
-3.13153
-4.26331
-2.92356
-3.67161
-5.35161
-6.40306
-7.66825
-4.19897
-7.22433
-5.88197
4.44151
-4.01979
-6.86396
-5.59911
-5.78292
-3.79985
-8.10871
-11.6351
-5.91709
-5.17752
-7.2609
-6.78727
-5.22014
-5.38387
-5.11667
-3.66213
-4.16296
-4.99431
-5.15389
-6.9796
-6.94177
-8.08907
-3.63686
0.921075
-0.749615
-4.0635
-4.04193
-11.9768
-9.10532
-2.21911
-3.86862
-8.76379
-7.41564
-6.64966
0.631767
0.7652
-8.2501
-12.9811
1.96915
-4.71755
-6.79141
-6.76743
-5.51655
-3.3916
-3.30442
-3.53889
-4.03287
-6.36025
-7.29522
-7.65117
-9.48206
-6.64875
-7.44996
-3.56369
-14.061
-6.90543
-0.524542
-3.94118
-4.36671
0.316111
0.367929
-14.1884
-9.0537
-6.11627
-5.34602
-5.98169
1.36967
0.87702
2.38751
-10.6872
-13.5
-9.33699
-5.75155
-5.98177
-3.07282
-7.23459
-9.76592
-6.38289
-5.72015
-2.73295
-7.552
-7.24757
-5.01491
-7.03886
-8.04241
-4.4233
-4.74129
-8.35185
-6.0111
-8.80328
-2.82832
-8.64681
-5.5781
-7.18739
-7.24049
-5.42305
-4.83036
-5.30811
-6.46017
-10.4496
-4.74743
-14.2782
-7.88428
-8.61234
-5.91653
-6.19959
-4.06903
-6.37855
-8.32337
-7.11497
-15.1171
-9.4441
-9.0406
-10.6894
-1.44498
-2.26242
-3.46073
-3.37707
-8.04615
-10.2297
-9.48701
-11.6428
-3.14577
-3.46575
-2.26527
-7.30528
-5.70952
-6.19172
-12.5363
-1.68655
-0.468277
-12.9853
-3.27277
-2.34099
-2.14017
-2.62695
-6.74357
-12.9901
-9.4798
-2.90483
-1.26109
-8.85966
-1.59213
-7.97095
-7.98361
-10.2764
-0.798213
5.96841
-10.0789
-10.7922
-4.27938
-4.01012
-5.61886
-4.47597
-8.93694
-10.0174
-7.75295
-6.66292
-3.49404
-10.4243
-9.51785
-6.10573
-2.73018
-4.16064
-3.95168
-4.53267
-7.39342
-11.797
-1.21902
-0.961161
-1.12061
6.67346
-8.56795
-7.33621
-6.61103
-5.57011
-5.78929
-10.4304
-7.93321
-4.05964
-8.59491
-0.18408
-3.23556
5.74053
-5.40697
-8.23253
-10.1044
-9.56689
-8.59835
-7.51873
-9.32247
-0.750429
-1.49291
-2.09713
-10.9144
-2.46337
5.84437
2.19504
-7.38048
-5.17757
-12.6124
-14.9204
-6.06855
0.781534
6.52967
-6.76991
-9.35457
-3.55227
-3.70991
1.59661
-3.36185
-10.4177
-13.1817
-5.10937
-3.69487
-11.3789
-9.50469
-4.11727
-0.587874
-4.73021
-11.9629
-10.7361
-7.53056
-7.99923
-9.88862
-2.13401
-3.91594
-10.1581
-7.99056
-8.69785
-5.34891
-8.60169
-11.6544
-7.69766
-7.27643
-11.0979
-3.58487
-3.52358
-3.96588
-3.13399
-3.43336
-10.3473
-12.1285
-0.756489
-4.59372
-4.31861
-4.51194
-2.8927
-5.79153
-5.2929
-2.34812
1.53176
-3.30154
-0.913852
-2.86152
-13.0013
-11.2205
-11.1214
-14.4155
-1.81243
-2.18585
-5.57213
-14.3014
-13.1174
-3.23684
-5.38493
-2.96891
-7.89219
-3.79398
-7.24337
-7.67186
-9.11926
-8.14341
-4.21212
-8.32095
-3.24797
-9.91712
-10.5817
-8.7754
-8.35297
-2.49612
-12.263
-12.0182
-7.75166
-0.680934
-3.52885
-4.43464
-7.69163
-7.18468
-7.95439
-2.32886
-9.8325
-9.90456
-9.17432
-11.0904
-7.02203
-6.37457
-5.16811
-1.4797
-6.39668
-7.78837
-1.43679
-1.06932
-1.98266
-13.7309
-9.7182
-11.0891
-7.14186
-6.28249
-10.2173
-1.19465
-12.6166
-9.1194
-6.39423
-6.28263
-0.859138
-9.0504
-9.60231
-2.68519
-6.40777
-5.05442
-3.70947
-7.90357
-9.74662
-5.34685
-4.07998
-1.84508
-11.8088
-9.9547
-1.02113
-10.2647
-9.53678
-8.56882
-11.7967
-6.32854
-8.17285
-0.0181898
-0.845621
-7.64871
-14.2165
-8.79553
-12.5611
-7.06456
-4.38499
-9.45327
-1.94572
-2.94041
-7.19263
-9.65283
-7.98014
-7.19867
-2.15746
-2.19776
-10.1788
-9.82566
-9.96821
-6.20309
-3.37693
-7.33848
-8.36377
-9.59571
-6.50297
-4.72242
-2.50311
-6.0536
-1.69564
0.301839
-3.50953
-2.55813
-6.13771
-0.190191
-4.44875
-12.2518
-4.33104
-4.26792
-9.59161
-9.53427
-7.80849
-5.07358
-1.38411
-8.74415
-11.1572
-7.54958
-6.5573
-8.94898
-5.40084
-5.94823
-7.0501
0.686036
-7.45045
-9.9166
-11.0364
-9.39509
-8.2336
-8.02333
-6.55411
-4.83955
-1.9536
-5.71812
-2.51563
-0.874629
-2.9843
0.326565
-13.1581
-12.4512
-10.6181
-13.8808
-1.75068
-13.2289
-2.29004
-3.30134
-8.56559
-1.37099
-2.12952
-4.51079
-4.34718
-12.6281
-11.1765
-7.068
-7.42867
-11.7166
-10.2101
-6.50055
-8.32265
-2.8118
-9.66629
-0.678909
-10.977
0.731932
-8.0773
-8.71488
-9.38955
-4.18151
-1.91009
-4.97553
-9.55223
-5.21723
-0.307891
-9.61762
-10.0313
-10.6074
-14.6266
-6.41962
-11.5604
-1.76653
-2.41444
4.22036
2.17851
-6.48218
-4.49771
-3.82834
-2.98898
-13.5939
-2.12181
-1.21477
-0.49912
-4.47953
-0.101336
-15.0461
-2.75449
-3.1373
-5.74666
3.52134
1.68925
-3.54778
-3.41234
-5.35756
-4.06345
-9.9969
-9.3694
-8.04849
-6.44722
0.176717
-3.80358
-9.1743
-1.94188
-2.70575
-8.75417
-11.8706
-2.78229
4.28055
-1.4848
3.66798
-5.63923
-4.19508
-3.1535
-0.637381
3.53648
-7.91006
-8.63733
-7.21961
-5.54168
-12.0015
-8.0767
-7.7132
-6.29084
-2.45859
-3.9863
-9.9737
-8.0564
-4.65218
2.36529
-6.63967
-8.93411
-12.2971
-6.81332
-3.47653
-12.3463
-5.73099
-11.6303
-2.76263
-4.21146
-2.09181
-4.3285
-6.73182
-11.8861
-1.68787
-3.11368
-2.4312
-4.473
-15.2097
-0.620892
-3.91504
-1.1426
-5.74891
-6.70637
-10.0189
-12.0177
0.232175
-0.710623
-11.9348
-12.5453
1.17992
-11.5901
-10.2859
-8.77925
-10.1023
-7.70586
-6.05442
-6.34096
-11.7602
-6.47111
-7.80653
-6.03765
-9.61793
-6.83424
-5.65132
-5.29628
-1.48266
-8.76664
-5.49197
-9.52858
-8.20278
-8.30982
-8.03518
-6.50973
-0.839549
-10.1253
-10.0831
-7.87184
-5.59542
-6.94527
-14.0212
0.00921073
-2.67356
-1.67882
-6.58791
-2.82058
-14.0784
-4.34206
-4.86701
-5.85512
4.11377
3.25733
-3.70643
-3.60318
-6.32864
-2.0934
-3.02789
-6.72838
-3.13852
-12.063
-1.40424
-13.7641
-4.20981
-6.45323
5.87801
3.45542
4.29273
-3.15822
-8.78988
-3.88843
-3.1715
3.59867
-6.13288
-9.03416
-6.23201
-16.4348
-2.77086
-9.98304
-7.70752
-8.97894
-10.4253
-10.2054
-8.91761
-5.7552
-4.71682
-5.6997
-8.97781
-5.07665
-7.2876
-6.74185
-7.18367
-9.41881
-8.06257
-8.73974
-1.36924
-2.54209
6.10952
1.53128
0.433836
9.12066
-3.53128
-4.07582
-5.08954
-5.63259
0.312695
-1.5762
-4.63651
-10.765
-10.1689
-4.53876
-0.435529
-5.41869
-9.26195
-7.78541
-5.9012
-0.0646179
-2.76815
-7.94609
-6.93786
-5.80684
-3.69748
-8.42499
-8.50203
-11.7978
-8.58031
-6.58804
-4.0711
-2.94727
-1.39744
-3.37118
-5.14885
-14.3606
-6.48841
-12.976
-2.73019
-14.7675
-3.54514
-5.26815
-1.75765
-2.259
-4.11977
-1.26218
-4.98249
-0.152266
-3.77332
-9.88291
-4.43746
-0.964683
-12.1369
-8.26735
-7.3832
-5.46483
-11.562
-17.1657
1.44085
-8.12645
-7.04894
-7.79008
-1.23312
-5.55308
-2.93943
-7.12263
-8.57939
-10.2461
-2.4072
-7.91347
-6.2465
-8.49551
-8.17618
-7.67853
-4.55362
-5.1615
-3.83156
-0.36155
0.195593
-2.02849
-11.3668
-3.79279
-1.18146
-3.93841
-10.0233
-4.92481
-11.3148
-9.33845
-7.52326
-6.57533
-7.41577
-12.4169
-2.03962
-8.04481
-10.2856
-10.8388
-6.47455
-2.89902
-4.79198
-7.4301
-10.9865
-1.67656
-5.22119
-6.31419
-9.89642
-7.46017
-7.34071
-11.5039
-1.77346
-3.11504
-2.45797
-12.4396
-10.1816
-6.37677
-9.84979
-3.17473
-3.76259
-9.83142
-7.2941
-11.8379
-2.27545
-9.035
-9.64887
-6.73113
-7.16139
-8.73882
-2.35655
0.481348
-5.99218
-7.32757
-12.5817
-5.3483
-3.43376
-5.69605
-7.48309
-8.95034
-6.58383
-3.00854
-5.39107
-9.61453
-1.7288
-3.03425
-5.40191
-3.70154
-7.01205
-6.55279
-10.7289
-7.7557
-9.37284
-3.909
-5.73395
-7.00271
-5.56757
-4.78322
-4.05916
-3.99536
-1.8825
-8.35744
-6.87166
-6.88222
-7.54569
-0.708712
-4.35115
-12.2436
-12.3707
-3.0196
-9.96014
-7.45959
-8.32795
-3.91292
-10.8989
-10.5544
-2.1712
-4.91933
-4.27148
-4.05462
-0.517858
-1.5996
-4.27296
-10.4258
-14.0137
-3.45014
-8.69329
-8.3362
-7.35766
-5.085
-7.03986
-10.69
-6.82596
-2.32617
-4.3886
-3.9375
-4.14548
-7.79346
-8.27886
-8.38243
-8.64079
-8.5944
-3.04285
-8.908
-4.51234
-8.07255
3.53946
-7.56403
-11.2257
-4.76291
1.44733
-5.87094
-5.15284
-12.9768
-2.54364
-8.91493
-5.65213
0.561595
-12.0411
-0.946736
-5.22722
-6.06692
-0.649767
-9.96362
-7.09733
-5.07852
-6.33628
-7.06083
-5.22335
-13.2729
-1.06955
-4.17494
4.89155
-4.50374
-4.79864
-6.23644
-9.91853
-17.4759
-0.199677
-4.2221
-15.7947
-0.982459
-8.52414
-2.89954
-8.31593
1.88323
-2.55858
-15.6212
0.895876
-14.4444
0.0548296
-12.7051
0.50643
-2.48049
4.35893
-1.06857
-14.8978
2.98094
-5.55337
0.922694
-11.4964
-14.9673
2.70737
-4.78693
-3.56414
-2.34185
-2.17795
-4.30922
-6.12315
-6.09863
-8.1838
-5.70325
-11.6613
-16.2165
2.82276
-6.05151
-7.5611
-6.11895
-6.72225
-5.43997
-4.76936
-5.42055
-9.21539
-5.5415
-9.32009
-4.10362
-6.85566
-11.2264
-4.72816
-7.99212
-10.0516
-4.08374
-6.8555
-5.66385
-8.11934
-5.24942
-6.43447
-4.86033
-9.79582
-4.4207
-7.33372
0.118584
-11.8794
2.46268
-7.27258
-9.57385
-12.1186
-2.66307
-6.62908
-5.72034
-6.63058
-6.2254
-5.52971
-9.1336
-2.06459
6.13174
-4.74331
1.38536
-10.2114
-2.75613
-5.98183
-8.39031
5.48145
-10.8937
-1.8458
3.82879
-2.39222
-8.56138
-8.2389
-6.18836
2.88389
-6.09824
-6.84194
-3.40091
-2.79194
-10.3687
-9.66314
-3.81311
-6.31863
-10.3986
2.76412
-9.10304
-2.68216
-8.00371
2.28398
-13.9576
-13.5725
-9.65175
-6.08487
-4.76822
-8.38353
-4.56034
2.9584
-1.69079
-8.72405
-2.91404
-7.63107
1.48409
-10.0805
-7.97678
7.96971
-6.12812
-7.11076
5.14049
-11.0481
0.245513
-10.2936
-11.9495
-9.02712
3.65592
-6.39851
-4.97058
-6.1873
-6.50769
-7.67584
2.68117
-3.99777
-3.04241
-3.0664
-9.93277
-5.90477
-7.16306
-8.25315
-7.99482
-4.89938
-6.56917
-5.1461
-7.29441
-10.5055
-3.80274
-4.6819
-3.53665
-6.44391
-9.52153
-3.73926
-4.55448
-4.15288
-5.97499
-3.0104
-3.37566
-4.51259
-4.86184
-6.48254
-4.35776
-11.8378
-9.13577
1.07155
0.953472
-11.0611
9.09033
-8.84244
-6.80658
-2.98979
-4.8734
-11.2503
5.49815
-10.2055
-7.16958
3.27397
-4.21265
-3.37824
-5.93406
5.98021
-11.0485
-7.3044
5.33128
-10.6701
-10.7386
2.04956
-12.1668
-9.64118
1.92372
-3.50165
-3.02764
5.38788
-6.0942
-6.61939
-1.74406
-2.68475
-2.26017
7.64724
-2.5771
5.85727
8.26082
-9.84527
-3.52855
-14.9139
-3.78225
2.73959
-11.1385
-5.14311
4.4246
-3.78752
-3.55407
4.53578
0.942491
-10.7583
10.5939
-1.72897
-0.83252
9.13239
-10.1885
-9.30217
-6.05843
-4.45701
-3.46579
-1.76966
6.70012
-6.20906
-4.54139
-4.74937
-6.07373
3.81693
-8.59377
-3.8194
-5.52267
-3.39221
-5.36269
-6.45401
-1.47265
3.39828
-4.29741
-6.61728
-3.72299
-4.44013
-5.66634
-2.66503
-4.65054
4.04464
-3.80794
-7.11597
-3.46449
-4.91048
-2.80297
3.24635
-11.1995
-11.0151
-10.6291
-12.1568
2.10126
5.07176
-3.89294
-8.82586
-6.59809
-8.47304
-9.20262
-1.74484
-0.751144
4.93037
2.72657
-2.64102
-5.58813
-5.29287
-5.08249
-0.769118
-9.91556
-7.21108
1.82518
-2.45458
-1.54623
-9.1053
-2.76185
6.75162
-5.53881
-5.85601
-10.1594
4.21392
-3.45111
-6.48268
-4.09029
-4.88928
-8.29873
-5.47171
-1.87289
-12.6628
8.36339
0.037566
-4.98212
-2.70874
-4.32914
-12.0943
-7.37345
-5.89296
-0.174029
-11.2774
-3.98492
-6.44041
-9.19152
-10.1591
-9.78241
-10.1266
-11.7413
-12.7984
-11.5571
-11.5738
-5.9369
-9.41671
-3.78891
-4.86921
-0.618837
0.593683
7.50953
-12.2918
-11.9856
-10.609
-4.65941
-6.48194
-6.16885
-2.86173
-6.73584
-9.34618
-2.02748
-5.13443
-8.07452
-3.47217
-3.89529
-3.66047
-4.59457
-2.63399
-4.44677
-4.0512
2.25646
-6.43949
-2.1017
-5.09847
4.53101
-12.2467
-5.30833
-3.17972
-2.45717
1.72052
-5.82539
-3.30911
5.31697
-0.0117178
-5.19674
0.773625
-0.412657
-13.0163
-13.5336
-4.09379
-4.13877
-8.68996
-12.0227
5.43616
-2.77416
-2.62743
-4.35818
-4.32236
-4.71894
-5.42118
-0.657694
3.0894
-11.0107
-4.21041
0.287885
-0.56747
-4.0945
-5.97008
1.63516
-4.79187
-2.83095
-3.7871
-12.108
0.146681
2.92216
-4.31108
-3.43541
-2.61415
2.96792
-10.1913
-4.01737
-3.82327
-4.0553
5.25222
-4.07883
-4.3104
2.73771
-3.95674
0.0137036
-7.23519
-10.8853
-2.83971
-9.41542
-7.02998
-3.01733
-3.19002
-4.4657
2.95713
-6.92043
-7.57474
-3.60532
4.22641
-1.42953
-4.96735
-5.30374
-2.92131
3.45827
-3.11036
-10.1754
-7.03122
-3.20918
-12.8741
0.112647
-9.11961
5.06368
0.374867
-9.51503
5.25027
-9.85043
-3.12075
-5.94833
-3.8029
-13.3755
-0.973339
-6.0651
-12.1303
-11.234
1.16564
-10.9072
-12.119
8.832
-4.78128
-3.3971
4.78137
-7.51316
-3.29233
-3.83819
-3.85512
-5.49343
-4.76296
-3.61401
-3.20317
5.081
-7.50737
-5.93159
-5.66846
-6.41858
-4.65866
-2.99644
-1.49455
-8.55683
6.49079
-2.5043
-2.23247
6.07199
-9.6109
-12.5818
-5.17826
-10.5963
-11.2453
-2.80178
-2.91303
-7.44227
-10.5455
-2.62852
-8.02719
-0.540048
4.76692
-8.70086
-2.07792
-10.1619
-12.8337
-11.964
4.21604
-9.23759
-6.06834
-1.84182
-3.56365
-4.34035
-3.3389
4.02483
-10.4654
3.69986
-10.2917
-4.58704
-0.540985
0.374504
-4.64381
-8.22344
-11.5911
-5.7691
-14.343
-8.82525
-9.90293
5.47834
-9.36842
-8.444
-10.182
-2.77805
-1.96293
6.55813
-5.23327
-13.9518
-10.6336
3.20115
-0.878193
3.81278
-2.77207
-5.43742
-0.420293
-16.6564
-3.85875
-0.910742
2.95552
-6.96551
-2.06534
5.84816
-4.86418
-3.23481
-3.39723
-3.55967
-3.63234
2.86255
-0.52698
4.71694
-3.27976
-8.77024
-7.27387
-10.9011
-10.1638
-2.51494
-1.51531
5.13513
-3.06709
-8.23486
-11.404
-8.80394
-9.12741
0.252768
6.18302
-1.05908
6.90198
-8.65092
-9.02936
-1.524
-9.77449
-8.53472
-10.9342
-6.67889
-5.96257
-5.82038
-2.51451
5.31652
-1.25507
4.27291
-0.216209
-3.56598
-2.91554
2.22949
4.28425
-7.95469
-14.0035
-12.8764
-11.9672
-5.69474
-7.79375
-7.60222
-5.2199
-3.53639
-5.22786
-1.82434
-4.56117
-4.60625
4.22831
-8.50239
-4.192
-0.905883
2.40788
-3.15047
-5.58219
-5.52708
-2.93477
2.35923
-11.6495
-6.90565
-3.35348
-12.758
-2.00645
4.64699
-7.26581
-4.58112
-4.63951
-4.64244
-3.06848
6.54736
-4.58381
-4.50257
3.62259
-11.3081
-4.01154
10.5627
-3.5445
-5.37006
-5.70663
-3.03895
4.04814
-2.32326
-2.58117
0.5947
-4.8706
5.08123
-5.09987
-4.80678
1.02292
-12.6066
-4.47379
2.74545
-13.6523
-5.26051
-5.25579
2.49076
-4.80784
3.73823
)
;
    }
}


// ************************************************************************* //
