/*--------------------------------*- C++ -*----------------------------------*\
| =========                 |                                                 |
| \\      /  F ield         | OpenFOAM: The Open Source CFD Toolbox           |
|  \\    /   O peration     | Version:  v1912                                 |
|   \\  /    A nd           | Website:  www.openfoam.com                      |
|    \\/     M anipulation  |                                                 |
\*---------------------------------------------------------------------------*/
FoamFile
{
    version     2.0;
    format      ascii;
    class       volScalarField;
    location    "420/oil";
    object      wallHeatFlux;
}
// * * * * * * * * * * * * * * * * * * * * * * * * * * * * * * * * * * * * * //

dimensions      [1 0 -3 0 0 0 0];


internalField   uniform 0;

boundaryField
{
    maxY
    {
        type            calculated;
        value           uniform 0;
    }
    minX
    {
        type            calculated;
        value           uniform 0;
    }
    maxX
    {
        type            calculated;
        value           uniform 0;
    }
    minY
    {
        type            calculated;
        value           uniform 0;
    }
    minZ
    {
        type            calculated;
        value           uniform 0;
    }
    maxZ
    {
        type            calculated;
        value           uniform 0;
    }
    oil_to_sphere
    {
        type            calculated;
        value           nonuniform List<scalar> 
1536
(
764.385
482.399
475.407
-37.0928
-49.0538
469.3
241.244
336.012
302.22
8.00345
-199.367
46.8607
297.27
57.2262
-264.911
210.854
469.83
489.018
195.896
282.442
401.605
306.884
326.506
207.817
235.224
221.448
234.453
173.364
452.396
315.721
536.902
484.492
494.078
214.076
230.563
175.977
202.201
119.341
171.191
233.062
159.822
200.717
292.554
350.031
419.194
229.543
394.93
321.549
-242.808
219.748
375.226
306.082
316.134
207.727
443.271
636.04
323.465
283.036
396.928
371.037
285.368
294.319
279.712
200.197
227.575
273.022
281.747
381.547
379.479
442.196
198.818
-50.3526
40.9792
222.138
220.962
654.72
497.75
121.312
211.485
479.087
405.388
363.515
-34.5372
-41.8317
451.001
709.622
-107.649
257.891
371.26
369.951
301.571
185.409
180.644
193.461
220.464
347.692
398.804
418.259
518.344
363.461
407.259
194.818
768.65
377.492
28.6751
215.451
238.717
-17.2809
-20.1137
775.614
494.928
334.353
292.25
327
-74.8766
-47.9445
-130.52
584.226
737.983
510.415
314.416
327.002
167.983
395.488
533.865
348.93
312.701
149.402
412.843
396.2
274.149
384.787
439.647
241.807
259.19
456.567
328.607
481.242
154.615
472.687
304.936
392.908
395.812
296.459
264.06
290.176
353.155
571.237
259.528
780.532
431.003
470.805
323.436
338.91
222.441
348.693
455.007
388.95
826.38
516.275
494.217
584.354
78.9928
123.68
189.188
184.614
439.853
559.215
518.619
636.467
171.969
189.461
123.835
399.353
312.12
338.48
685.311
92.1992
25.5995
709.853
178.913
127.975
116.997
143.608
368.65
710.114
518.228
158.798
68.9404
484.322
87.0369
435.74
436.431
561.767
43.6364
-326.283
550.972
589.968
233.939
219.219
307.162
244.686
488.549
547.61
423.824
364.239
191.009
569.858
520.306
333.78
149.25
227.449
216.026
247.786
404.173
644.897
66.6405
52.5443
61.2605
-364.825
468.373
401.041
361.398
304.496
316.478
570.194
433.684
221.929
469.856
10.0633
176.88
-313.828
295.579
450.039
552.369
522.988
470.04
411.022
509.626
41.0235
81.6126
114.645
596.649
134.666
-319.502
-119.997
403.462
283.039
689.465
815.628
331.745
-42.7249
-356.969
370.084
511.377
194.191
202.808
-87.2831
183.783
569.499
720.597
279.315
201.988
622.041
519.59
225.078
32.1376
258.587
653.963
586.897
411.666
437.287
540.572
116.659
214.071
555.303
436.814
475.478
292.406
470.222
637.099
420.803
397.777
606.679
195.973
192.622
216.801
171.326
187.692
565.649
663.02
41.3556
251.125
236.085
246.653
158.135
316.602
289.344
128.364
-83.7366
180.483
49.9574
156.43
710.719
613.373
607.965
788.037
99.0807
119.494
304.612
781.795
717.079
176.948
294.376
162.301
431.437
207.405
395.969
419.391
498.514
445.167
230.262
454.874
177.556
542.128
578.456
479.714
456.624
136.454
670.363
656.983
423.753
37.2245
192.91
242.426
420.471
392.758
434.834
127.311
537.501
541.442
501.522
606.264
383.866
348.473
282.521
80.8902
349.683
425.761
78.5447
58.4561
108.385
750.602
531.258
606.197
390.419
343.442
558.54
65.308
689.695
498.524
349.55
343.449
46.9667
494.753
524.919
146.79
350.288
276.308
202.784
432.056
532.807
292.291
223.038
100.864
645.537
544.182
55.8225
561.131
521.341
468.427
644.88
345.959
446.781
0.99439
46.2279
418.129
777.16
480.82
686.667
386.195
239.714
516.776
106.367
160.743
393.196
527.681
436.243
393.522
117.941
120.144
556.429
537.128
544.92
339.099
184.606
401.166
457.213
524.556
355.492
258.158
136.838
330.931
92.6964
-16.5008
191.856
139.846
335.528
10.3972
243.199
669.757
236.764
233.313
524.335
521.202
426.86
277.355
75.665
478.011
609.923
412.708
358.464
489.205
295.245
325.168
385.403
-37.5038
407.29
542.103
603.318
513.592
450.1
438.604
358.289
264.562
106.797
312.589
137.521
47.8132
163.142
-17.8524
719.293
680.654
580.448
758.806
95.7048
723.169
125.189
180.474
468.248
74.948
116.414
246.59
237.644
690.324
610.977
386.381
406.098
640.499
558.15
355.361
454.968
153.712
528.419
37.114
600.069
-40.0123
441.552
476.406
513.286
228.588
104.418
271.993
522.18
285.206
16.8314
525.754
548.366
579.872
799.577
350.942
631.963
96.572
131.991
-230.717
-119.093
354.356
245.873
209.282
163.397
743.131
115.994
66.409
27.2858
244.886
5.5398
822.514
150.579
171.506
314.149
-192.502
-92.3465
193.945
186.541
292.877
222.136
546.492
512.19
439.981
352.447
-9.66072
207.931
501.527
106.158
147.915
478.558
648.921
152.1
-234.01
81.1701
-200.522
308.279
229.332
172.393
34.844
-193.332
432.412
472.168
394.668
302.943
656.068
441.523
421.65
343.897
134.402
217.917
545.22
440.411
254.318
-129.304
362.966
488.394
672.228
372.459
190.052
674.922
313.296
635.784
151.025
230.228
114.354
236.626
368.005
649.767
92.271
170.215
132.906
244.526
831.444
33.9425
214.022
62.4627
314.273
366.611
547.692
656.957
-12.6923
38.8477
652.426
685.798
-64.5033
633.585
562.293
479.928
552.251
421.25
330.974
346.637
642.886
353.753
426.754
330.058
525.776
373.604
308.937
289.529
81.0523
479.236
300.226
520.888
448.413
454.264
439.25
355.862
45.8953
553.508
551.197
430.32
305.88
379.671
766.487
-0.50353
146.157
91.7772
360.143
154.194
769.613
237.366
266.063
320.078
-224.889
-178.07
202.618
196.974
345.962
114.442
165.527
367.824
171.576
659.444
76.7668
752.431
230.14
352.78
-321.343
-188.899
-234.673
172.65
480.508
212.567
173.375
-196.73
335.261
493.862
340.68
898.415
151.475
545.737
421.345
490.847
569.912
557.891
487.493
314.619
257.854
311.585
490.786
277.524
398.387
368.554
392.707
514.895
440.754
477.77
74.8535
138.97
-333.998
-83.7111
-23.7168
-498.616
193.044
222.812
278.229
307.914
-17.0943
86.1657
253.462
588.479
555.891
248.118
23.809
296.22
506.314
425.6
322.597
3.53245
151.325
434.381
379.266
317.438
202.128
460.561
464.772
644.931
469.05
360.143
222.553
161.119
76.3944
184.294
281.472
785.032
354.698
709.347
149.252
807.278
193.802
287.992
96.0857
123.493
225.215
69
272.377
8.32392
206.275
540.259
242.582
52.7362
663.475
451.946
403.611
298.744
632.045
938.367
-78.7675
444.241
385.338
425.852
67.4108
303.567
160.689
389.368
469.003
560.114
131.594
432.598
341.473
464.415
446.96
419.754
248.931
282.161
209.459
19.7648
-10.6925
110.891
621.373
207.34
64.5874
215.301
547.938
269.225
618.537
510.498
411.268
359.45
405.394
678.783
111.5
439.777
562.269
592.507
353.938
158.479
261.961
406.174
600.588
91.6522
285.424
345.172
540.997
407.817
401.289
628.873
96.9496
170.289
134.37
680.028
556.591
348.596
538.453
173.553
205.69
537.447
398.744
647.13
124.392
493.91
527.468
367.967
391.488
477.72
128.826
-26.3138
327.571
400.57
687.784
292.373
187.711
311.381
409.071
489.278
359.912
164.467
294.71
525.587
94.5082
165.872
295.303
202.351
383.321
358.216
586.503
423.974
512.373
213.694
313.458
382.815
304.361
261.483
221.902
218.414
102.911
456.87
375.649
376.225
412.496
38.7432
237.863
669.303
676.253
165.072
544.482
407.789
455.257
213.907
595.798
576.969
118.692
268.923
233.508
221.652
28.3097
87.4449
233.588
569.934
766.069
188.608
475.227
455.708
402.215
277.979
384.843
584.381
373.151
127.164
239.91
215.251
226.619
426.039
452.573
458.235
472.357
469.82
166.342
486.967
246.675
441.298
-193.494
413.5
613.656
260.37
-79.1219
320.946
281.691
709.38
139.052
487.343
308.986
-30.7011
658.243
51.7551
285.753
331.656
35.5212
544.675
387.985
277.626
346.386
385.989
285.544
725.573
58.4693
228.231
-267.413
246.207
262.325
340.925
542.207
955.32
10.9158
230.809
863.419
53.7083
465.983
158.509
454.601
-102.952
139.87
853.938
-48.9752
789.609
-2.9974
694.536
-27.6853
135.601
-238.295
58.4157
814.393
-162.962
303.586
-50.4416
628.467
818.194
-148.006
261.687
194.84
128.022
119.062
235.571
334.731
333.392
447.377
311.779
637.477
886.482
-154.315
330.817
413.339
334.5
367.48
297.384
260.726
296.321
503.766
302.933
509.498
224.331
374.776
613.697
258.471
436.904
549.483
223.246
374.769
309.623
443.851
286.966
351.751
265.698
535.498
241.665
400.909
-6.48264
649.399
-134.629
397.567
523.366
662.469
145.581
362.386
312.709
362.472
340.322
302.292
499.295
112.864
-335.214
259.304
-75.7347
558.225
150.669
327.005
458.674
-299.664
595.523
100.906
-209.313
130.777
468.016
450.394
338.298
-157.656
333.371
374.027
185.916
152.627
566.822
528.25
208.451
345.417
568.455
-151.108
497.63
146.625
437.531
-124.86
763.004
741.945
527.626
332.64
260.665
458.298
249.3
-161.729
92.43
476.908
159.3
417.168
-81.1322
551.067
436.066
-435.693
335.007
388.718
-281.024
603.963
-13.4217
562.718
653.239
493.486
-199.863
349.783
271.724
338.242
355.755
419.614
-146.574
218.547
166.318
167.63
542.989
322.794
391.581
451.169
437.047
267.833
359.111
281.319
398.761
574.292
207.884
255.942
193.336
352.27
520.505
204.414
248.977
227.023
326.634
164.569
184.536
246.687
265.782
354.38
238.227
647.121
499.418
-58.5791
-52.1244
604.673
-496.958
483.382
372.092
163.443
266.412
615.008
-300.572
557.893
391.936
-178.98
230.292
184.678
324.395
-326.926
603.976
399.306
-291.45
583.292
587.037
-112.044
665.11
527.047
-105.165
191.424
165.512
-294.544
333.15
361.861
95.344
146.768
123.558
-418.063
140.883
-320.207
-451.609
538.207
192.894
815.273
206.764
-149.767
608.897
281.158
-241.885
207.052
194.29
-247.961
-51.5239
588.121
-579.16
94.5183
45.512
-499.258
556.972
508.517
331.196
243.651
189.466
96.743
-366.285
339.426
248.261
259.631
332.028
-208.661
469.788
208.793
301.907
185.442
293.162
352.821
80.5055
-185.776
234.926
361.744
203.524
242.728
309.759
145.689
254.229
-221.109
208.167
389.002
189.39
268.439
153.229
-177.469
612.225
602.149
581.045
664.559
-114.87
-277.264
212.817
482.481
360.695
463.192
503.075
95.3864
41.0632
-269.535
-149.056
144.376
305.485
289.344
277.843
42.0454
542.041
394.202
-99.7778
134.184
84.5286
497.75
150.983
-369.102
302.792
320.129
555.373
-230.365
188.662
354.385
223.602
267.28
453.659
299.118
102.385
692.217
-457.214
-2.05365
272.358
148.079
236.661
661.14
403.083
322.15
9.5137
616.487
217.842
352.074
502.466
555.359
534.766
553.579
641.845
699.634
631.775
632.695
324.552
514.779
207.129
266.185
33.8305
-32.4554
-410.536
671.943
655.202
579.951
254.714
354.344
337.229
156.442
368.224
510.92
110.836
280.682
441.405
189.812
212.943
200.106
251.169
143.992
243.089
221.465
-123.354
352.024
114.893
278.715
-247.7
669.476
290.187
173.825
134.325
-94.0562
318.452
180.898
-290.665
0.640575
284.086
-42.2918
22.5586
711.539
739.816
223.793
226.252
475.045
657.234
-297.184
151.655
143.634
238.248
236.29
257.97
296.36
35.9544
-168.89
601.912
230.169
-15.738
31.0219
223.832
326.362
-89.3894
261.954
154.759
207.028
661.901
-8.01867
-159.748
235.673
187.803
142.908
-162.25
557.127
219.617
209.005
221.689
-287.126
222.976
235.634
-149.663
216.301
-0.749142
395.524
595.056
155.239
514.706
384.305
164.948
174.389
244.126
-161.659
378.316
414.085
197.092
-231.048
78.1479
271.549
289.938
159.7
-189.055
170.034
556.247
384.37
175.435
703.774
-6.15814
498.535
-276.821
-20.4931
520.152
-287.022
538.485
170.602
325.174
207.891
731.181
53.2095
331.557
663.106
614.111
-63.7218
596.25
662.499
-482.832
261.378
185.708
-261.388
410.719
179.981
209.822
210.747
300.307
260.376
197.567
175.108
-277.765
410.398
324.258
309.873
350.879
254.672
163.805
81.7038
467.777
-354.843
136.904
122.044
-331.947
525.397
687.791
283.077
579.255
614.734
153.163
159.249
406.847
576.488
143.696
438.824
29.5234
-260.602
475.64
113.593
555.505
701.561
654.029
-230.482
504.986
331.737
100.688
194.814
237.275
182.528
-220.027
572.101
-202.262
562.606
250.757
29.5741
-20.4733
253.864
449.549
633.643
315.378
784.069
482.444
541.354
-299.491
512.139
461.604
556.612
151.869
107.308
-358.523
286.084
762.678
581.296
-174.998
48.0085
-208.436
151.54
297.245
22.9762
910.532
210.946
49.7878
-161.571
380.78
112.906
-319.708
265.911
176.837
185.715
194.595
198.567
-156.487
28.8083
-257.863
179.294
479.444
397.641
595.927
555.62
137.486
82.8384
-280.73
167.667
450.167
623.407
481.276
498.968
-13.8183
-338.019
57.8978
-377.324
472.92
493.61
83.3145
534.33
466.56
597.727
365.11
325.955
318.183
137.462
-290.645
68.6111
-233.591
11.8196
194.94
159.383
-121.879
-234.209
434.858
765.511
703.897
654.195
311.312
426.057
415.586
285.355
193.323
285.79
99.731
249.344
251.809
-231.152
464.793
229.164
49.5221
-131.632
172.226
305.158
302.147
160.435
-128.973
636.829
377.505
183.324
697.433
109.687
-254.04
397.197
250.435
253.627
253.788
167.745
-357.929
250.581
246.14
-198.038
618.165
219.298
-577.453
193.767
293.564
311.963
166.13
-221.303
127.006
141.104
-32.5104
266.259
-277.779
278.793
262.772
-55.9206
689.149
244.567
-150.087
746.314
287.574
287.317
-136.163
262.828
-204.36
)
;
    }
}


// ************************************************************************* //
