/*--------------------------------*- C++ -*----------------------------------*\
| =========                 |                                                 |
| \\      /  F ield         | OpenFOAM: The Open Source CFD Toolbox           |
|  \\    /   O peration     | Version:  v1906                                 |
|   \\  /    A nd           | Web:      www.OpenFOAM.com                      |
|    \\/     M anipulation  |                                                 |
\*---------------------------------------------------------------------------*/
FoamFile
{
    version     2.0;
    format      ascii;
    class       volScalarField;
    location    "52";
    object      nut;
}
// * * * * * * * * * * * * * * * * * * * * * * * * * * * * * * * * * * * * * //

dimensions      [0 2 -1 0 0 0 0];


internalField   nonuniform List<scalar> 
78750
(
1.28998e-08
5.23235e-07
6.28782e-07
7.10468e-07
7.72574e-07
8.11301e-07
8.26771e-07
8.2134e-07
7.9826e-07
7.60882e-07
7.12229e-07
6.54973e-07
5.91577e-07
5.24288e-07
4.55681e-07
3.88646e-07
3.24084e-07
2.66142e-07
2.17752e-07
1.80876e-07
1.56176e-07
1.42744e-07
1.38322e-07
1.40021e-07
1.45235e-07
1.52244e-07
1.60276e-07
1.69117e-07
1.78552e-07
1.87775e-07
1.94581e-07
1.93974e-07
1.77655e-07
1.43423e-07
4.73244e-09
1.99858e-09
8.92408e-07
2.27092e-06
4.7775e-06
6.6561e-06
7.64605e-06
8.35664e-06
8.80195e-06
9.00716e-06
9.00102e-06
8.81259e-06
8.46341e-06
7.96225e-06
7.43102e-06
6.78727e-06
6.09563e-06
5.37721e-06
4.65804e-06
3.9555e-06
3.28356e-06
2.65579e-06
2.08742e-06
1.59288e-06
1.18635e-06
8.77975e-07
6.69026e-07
5.49355e-07
4.99991e-07
5.00583e-07
5.37485e-07
3.77289e-07
3.08842e-07
3.98804e-07
8.47792e-07
1.90836e-08
1.81497e-09
1.64269e-06
3.48708e-06
5.79515e-06
8.42479e-06
9.86464e-06
1.10415e-05
1.19601e-05
1.26309e-05
1.30677e-05
1.32856e-05
1.33008e-05
1.31302e-05
1.25156e-05
1.12746e-05
1.03592e-05
9.70542e-06
9.23914e-06
8.90435e-06
8.26082e-06
7.34161e-06
6.42543e-06
5.52514e-06
4.65433e-06
3.82797e-06
3.06204e-06
2.37378e-06
1.7834e-06
1.31699e-06
6.66137e-07
4.0343e-07
3.88066e-07
7.17136e-07
1.06695e-06
3.10848e-08
2.7662e-09
1.44613e-06
3.16663e-06
5.36206e-06
8.34559e-06
1.18799e-05
1.32533e-05
1.43712e-05
1.52474e-05
1.58968e-05
1.6335e-05
1.65772e-05
1.66386e-05
1.65345e-05
1.5081e-05
1.38165e-05
1.28252e-05
1.2049e-05
1.14628e-05
1.1063e-05
1.08511e-05
1.07547e-05
1.00393e-05
9.01426e-06
7.96056e-06
6.88181e-06
5.78795e-06
4.70643e-06
2.91014e-06
1.45059e-06
7.94684e-07
6.50064e-07
1.18934e-06
1.11176e-06
4.14053e-08
4.2399e-09
1.61974e-06
3.58904e-06
6.13224e-06
9.50421e-06
1.38678e-05
1.62654e-05
1.74254e-05
1.83008e-05
1.89173e-05
1.93e-05
1.94725e-05
1.94574e-05
1.92764e-05
1.77462e-05
1.61122e-05
1.47308e-05
1.35729e-05
1.26021e-05
1.18057e-05
1.11906e-05
1.07659e-05
1.05151e-05
1.03563e-05
1.00937e-05
9.41045e-06
8.0249e-06
5.97897e-06
3.79238e-06
2.15257e-06
1.28416e-06
1.06696e-06
1.97589e-06
1.14737e-06
5.18162e-08
6.22682e-09
1.63893e-06
3.68712e-06
6.45558e-06
1.01652e-05
1.48505e-05
1.88977e-05
2.00636e-05
2.09294e-05
2.15251e-05
2.18778e-05
2.20122e-05
2.19517e-05
2.03732e-05
1.84438e-05
1.67331e-05
1.52561e-05
1.39754e-05
1.28576e-05
1.18839e-05
1.10563e-05
1.03934e-05
9.90591e-06
9.55756e-06
9.22417e-06
8.67087e-06
7.62777e-06
6.01243e-06
4.14781e-06
2.60758e-06
1.71088e-06
1.52029e-06
2.88404e-06
1.20734e-06
6.13145e-08
8.33081e-09
1.67565e-06
3.82132e-06
6.85366e-06
1.10391e-05
1.62983e-05
2.12538e-05
2.23982e-05
2.32233e-05
2.37644e-05
2.40524e-05
2.41153e-05
2.30365e-05
2.07965e-05
1.86957e-05
1.68698e-05
1.52969e-05
1.39329e-05
1.2735e-05
1.16749e-05
1.0746e-05
9.96421e-06
9.34687e-06
8.8732e-06
8.45374e-06
7.91513e-06
7.04075e-06
5.73187e-06
4.19742e-06
2.8723e-06
2.07282e-06
2.01297e-06
3.82998e-06
1.26488e-06
7.01169e-08
1.0846e-08
1.70185e-06
3.93092e-06
7.21474e-06
1.18772e-05
1.76773e-05
2.31915e-05
2.45524e-05
2.53335e-05
2.58224e-05
2.60522e-05
2.544e-05
2.30423e-05
2.06421e-05
1.85029e-05
1.66549e-05
1.50678e-05
1.3691e-05
1.24767e-05
1.13906e-05
1.04198e-05
9.57542e-06
8.87828e-06
8.31606e-06
7.81693e-06
7.24733e-06
6.44521e-06
5.33692e-06
4.07425e-06
2.98153e-06
2.33971e-06
2.47481e-06
4.56595e-06
1.32213e-06
7.78359e-08
1.32972e-08
1.73442e-06
4.04669e-06
7.56709e-06
1.26943e-05
1.90269e-05
2.47815e-05
2.64372e-05
2.71867e-05
2.76355e-05
2.78185e-05
2.55124e-05
2.28574e-05
2.03687e-05
1.81875e-05
1.63272e-05
1.47422e-05
1.33719e-05
1.21621e-05
1.10732e-05
1.00881e-05
9.21736e-06
8.48333e-06
7.87363e-06
7.32221e-06
6.72066e-06
5.95221e-06
4.97828e-06
3.92472e-06
3.0381e-06
2.56735e-06
2.93233e-06
5.05629e-06
1.37239e-06
8.47471e-08
1.59113e-08
1.76653e-06
4.14819e-06
7.86799e-06
1.33904e-05
2.01363e-05
2.59945e-05
2.82513e-05
2.89736e-05
2.93898e-05
2.796e-05
2.53294e-05
2.25785e-05
2.00533e-05
1.78718e-05
1.60277e-05
1.44643e-05
1.31157e-05
1.19236e-05
1.08448e-05
9.85855e-06
8.97174e-06
8.2073e-06
7.55358e-06
6.94874e-06
6.30473e-06
5.54293e-06
4.65739e-06
3.76141e-06
3.04821e-06
2.74293e-06
3.34284e-06
5.34056e-06
1.41839e-06
9.09755e-08
1.83514e-08
1.79489e-06
4.22992e-06
8.10385e-06
1.39419e-05
2.10199e-05
2.69523e-05
2.9856e-05
3.05618e-05
3.01764e-05
2.79512e-05
2.5148e-05
2.23211e-05
1.97676e-05
1.75817e-05
1.57423e-05
1.41869e-05
1.28487e-05
1.16688e-05
1.06027e-05
9.62749e-06
8.74664e-06
7.98093e-06
7.31291e-06
6.67913e-06
6.00571e-06
5.24479e-06
4.4189e-06
3.63748e-06
3.06103e-06
2.90362e-06
3.73226e-06
5.48318e-06
1.45823e-06
9.68236e-08
2.08874e-08
1.82163e-06
4.29955e-06
8.30111e-06
1.44041e-05
2.17363e-05
2.76649e-05
3.08171e-05
3.14717e-05
3.02641e-05
2.78871e-05
2.50109e-05
2.21522e-05
1.95905e-05
1.74048e-05
1.55673e-05
1.40133e-05
1.26759e-05
1.14965e-05
1.04312e-05
9.45603e-06
8.57296e-06
7.80222e-06
7.1226e-06
6.46799e-06
5.77361e-06
5.01379e-06
4.23201e-06
3.5366e-06
3.06846e-06
3.03949e-06
4.07805e-06
5.55417e-06
1.49407e-06
1.02422e-07
2.33099e-08
1.84402e-06
4.35475e-06
8.45744e-06
1.47739e-05
2.23057e-05
2.82163e-05
3.12059e-05
3.16759e-05
3.03116e-05
2.78227e-05
2.4884e-05
2.20016e-05
1.94358e-05
1.72518e-05
1.54153e-05
1.38596e-05
1.2518e-05
1.13333e-05
1.02633e-05
9.28509e-06
8.40157e-06
7.63406e-06
6.95641e-06
6.29797e-06
5.59852e-06
4.84716e-06
4.10223e-06
3.47299e-06
3.09064e-06
3.17311e-06
4.40548e-06
5.57356e-06
1.52518e-06
1.07863e-07
2.5868e-08
1.86589e-06
4.4073e-06
8.60682e-06
1.51236e-05
2.28176e-05
2.86727e-05
3.14937e-05
3.17955e-05
3.03061e-05
2.77483e-05
2.479e-05
2.19155e-05
1.93639e-05
1.71892e-05
1.53537e-05
1.37912e-05
1.24367e-05
1.12352e-05
1.0147e-05
9.15107e-06
8.25235e-06
7.47581e-06
6.79501e-06
6.13645e-06
5.44174e-06
4.7076e-06
3.99968e-06
3.42678e-06
3.1159e-06
3.29597e-06
4.70372e-06
5.57204e-06
1.55306e-06
1.13147e-07
2.8389e-08
1.88523e-06
4.45455e-06
8.74375e-06
1.54431e-05
2.32734e-05
2.90654e-05
3.17301e-05
3.18789e-05
3.02772e-05
2.7662e-05
2.46941e-05
2.18359e-05
1.93053e-05
1.71453e-05
1.53146e-05
1.3747e-05
1.23792e-05
1.11585e-05
1.00478e-05
9.02909e-06
8.11054e-06
7.32226e-06
6.63864e-06
5.98443e-06
5.30228e-06
4.59246e-06
3.92303e-06
3.40107e-06
3.15267e-06
3.42174e-06
4.99312e-06
5.55045e-06
1.57759e-06
1.18262e-07
3.10617e-08
1.905e-06
4.50406e-06
8.88821e-06
1.57731e-05
2.37179e-05
2.94164e-05
3.1915e-05
3.19208e-05
3.02302e-05
2.75864e-05
2.46345e-05
2.1811e-05
1.93125e-05
1.71722e-05
1.53467e-05
1.37714e-05
1.23851e-05
1.11378e-05
9.9952e-06
8.94241e-06
7.99123e-06
7.17798e-06
6.48231e-06
5.82945e-06
5.16283e-06
4.48277e-06
3.85488e-06
3.38223e-06
3.1913e-06
3.54294e-06
5.26592e-06
5.52399e-06
1.59988e-06
1.232e-07
3.37313e-08
1.92377e-06
4.55322e-06
9.033e-06
1.6098e-05
2.41409e-05
2.97389e-05
3.20766e-05
3.19457e-05
3.01718e-05
2.75048e-05
2.45752e-05
2.17931e-05
1.93336e-05
1.72195e-05
1.54047e-05
1.38255e-05
1.24228e-05
1.11488e-05
9.97235e-06
8.88186e-06
7.89317e-06
7.04929e-06
6.33639e-06
5.68169e-06
5.0303e-06
4.38166e-06
3.79655e-06
3.37242e-06
3.23652e-06
3.66803e-06
5.53556e-06
5.49125e-06
1.62019e-06
1.2796e-07
3.65361e-08
1.94337e-06
4.60569e-06
9.18713e-06
1.6436e-05
2.45587e-05
3.0035e-05
3.22085e-05
3.19521e-05
3.01143e-05
2.74451e-05
2.45546e-05
2.18248e-05
1.94103e-05
1.73249e-05
1.55209e-05
1.39361e-05
1.25136e-05
1.12079e-05
9.99124e-06
8.85536e-06
7.82025e-06
6.93565e-06
6.19747e-06
5.53611e-06
4.89836e-06
4.28159e-06
3.73989e-06
3.36384e-06
3.28143e-06
3.79047e-06
5.79468e-06
5.46058e-06
1.63928e-06
1.32551e-07
3.93382e-08
1.96255e-06
4.65885e-06
9.34361e-06
1.67726e-05
2.49606e-05
3.03111e-05
3.23264e-05
3.19513e-05
3.00557e-05
2.73891e-05
2.45419e-05
2.18688e-05
1.95046e-05
1.74538e-05
1.56664e-05
1.40808e-05
1.26414e-05
1.13052e-05
1.0047e-05
8.86222e-06
7.77549e-06
6.84357e-06
6.07365e-06
5.40036e-06
4.77286e-06
4.18632e-06
3.68736e-06
3.35891e-06
3.32951e-06
3.91582e-06
6.05152e-06
5.43045e-06
1.65734e-06
1.36988e-07
4.22518e-08
1.98264e-06
4.71499e-06
9.50754e-06
1.71175e-05
2.53543e-05
3.05666e-05
3.2427e-05
3.19459e-05
3.00088e-05
2.73595e-05
2.45651e-05
2.19538e-05
1.96423e-05
1.76273e-05
1.58571e-05
1.42703e-05
1.2813e-05
1.14443e-05
1.01412e-05
8.90293e-06
7.75857e-06
6.77175e-06
5.96347e-06
5.27313e-06
4.65217e-06
4.09326e-06
3.63521e-06
3.35309e-06
3.37578e-06
4.0384e-06
6.29932e-06
5.40518e-06
1.67476e-06
1.41289e-07
4.51521e-08
2.00225e-06
4.77118e-06
9.672e-06
1.7458e-05
2.5731e-05
3.08054e-05
3.25192e-05
3.19405e-05
2.99683e-05
2.73402e-05
2.46009e-05
2.20537e-05
1.97984e-05
1.7824e-05
1.60762e-05
1.44933e-05
1.30219e-05
1.16223e-05
1.02739e-05
8.97887e-06
7.77172e-06
6.72356e-06
5.87067e-06
5.15806e-06
4.53951e-06
4.00515e-06
3.58589e-06
3.34887e-06
3.42325e-06
4.16248e-06
6.54396e-06
5.38339e-06
1.69171e-06
1.4547e-07
4.81453e-08
2.02265e-06
4.8298e-06
9.84258e-06
1.78048e-05
2.61006e-05
3.10312e-05
3.26045e-05
3.19398e-05
2.99447e-05
2.73465e-05
2.46665e-05
2.21844e-05
1.99855e-05
1.80523e-05
1.63284e-05
1.47514e-05
1.32678e-05
1.18381e-05
1.04436e-05
9.08973e-06
7.81562e-06
6.70002e-06
5.79638e-06
5.05606e-06
4.43514e-06
3.92116e-06
3.53742e-06
3.34333e-06
3.46821e-06
4.28328e-06
6.7798e-06
5.36709e-06
1.70831e-06
1.49549e-07
5.11173e-08
2.04234e-06
4.88762e-06
1.00121e-05
1.81454e-05
2.64547e-05
3.12452e-05
3.26873e-05
3.19447e-05
2.9932e-05
2.73656e-05
2.47451e-05
2.23287e-05
2.01882e-05
1.82999e-05
1.66048e-05
1.50389e-05
1.35475e-05
1.20903e-05
1.06499e-05
9.235e-06
7.88991e-06
6.70165e-06
5.74177e-06
4.96883e-06
4.3411e-06
3.84351e-06
3.49207e-06
3.33882e-06
3.51329e-06
4.4042e-06
7.01127e-06
5.35455e-06
1.72467e-06
1.53533e-07
5.41679e-08
2.06245e-06
4.9471e-06
1.0187e-05
1.84929e-05
2.6806e-05
3.14541e-05
3.27712e-05
3.19596e-05
2.99367e-05
2.74062e-05
2.48458e-05
2.24943e-05
2.04117e-05
1.8569e-05
1.69047e-05
1.53533e-05
1.38579e-05
1.23764e-05
1.08914e-05
9.41475e-06
7.99625e-06
6.73085e-06
5.70906e-06
4.89804e-06
4.25823e-06
3.77211e-06
3.44884e-06
3.33358e-06
3.5561e-06
4.52221e-06
7.23558e-06
5.3476e-06
1.74086e-06
1.57434e-07
5.71985e-08
2.08165e-06
5.00539e-06
1.0361e-05
1.88365e-05
2.71472e-05
3.16577e-05
3.2858e-05
3.19833e-05
2.99528e-05
2.74579e-05
2.49565e-05
2.26696e-05
2.06464e-05
1.88522e-05
1.7223e-05
1.56909e-05
1.41959e-05
1.26934e-05
1.11655e-05
9.62641e-06
8.13225e-06
6.78641e-06
5.69816e-06
4.84457e-06
4.18817e-06
3.709e-06
3.40991e-06
3.32969e-06
3.59853e-06
4.63874e-06
7.4528e-06
5.34217e-06
1.75669e-06
1.61253e-07
6.02967e-08
2.10088e-06
5.06464e-06
1.05402e-05
1.91888e-05
2.74914e-05
3.18646e-05
3.29528e-05
3.20192e-05
2.99833e-05
2.7524e-05
2.50805e-05
2.28575e-05
2.08937e-05
1.91495e-05
1.75581e-05
1.6049e-05
1.4559e-05
1.30397e-05
1.14717e-05
9.87101e-06
8.29964e-06
6.87059e-06
5.71088e-06
4.80965e-06
4.13154e-06
3.65425e-06
3.37487e-06
3.32644e-06
3.6398e-06
4.75437e-06
7.67039e-06
5.34443e-06
1.77252e-06
1.64994e-07
6.33816e-08
2.11913e-06
5.12253e-06
1.07188e-05
1.95403e-05
2.78336e-05
3.20765e-05
3.30566e-05
3.20636e-05
3.00199e-05
2.75941e-05
2.52077e-05
2.3049e-05
2.11464e-05
1.9455e-05
1.79052e-05
1.64235e-05
1.49428e-05
1.34107e-05
1.18053e-05
1.0144e-05
8.49489e-06
6.98124e-06
5.74657e-06
4.79383e-06
4.08974e-06
3.60977e-06
3.34573e-06
3.32558e-06
3.6814e-06
4.87044e-06
7.88768e-06
5.3521e-06
1.78846e-06
1.68656e-07
6.65215e-08
2.13711e-06
5.18047e-06
1.09001e-05
1.98958e-05
2.81748e-05
3.22834e-05
3.31613e-05
3.21116e-05
3.00602e-05
2.76676e-05
2.53383e-05
2.32444e-05
2.14041e-05
1.97678e-05
1.82627e-05
1.68123e-05
1.53456e-05
1.38052e-05
1.2166e-05
1.04459e-05
8.71907e-06
7.11916e-06
5.80586e-06
4.79753e-06
4.06298e-06
3.57557e-06
3.32248e-06
3.32734e-06
3.72403e-06
4.98798e-06
8.10544e-06
5.36604e-06
1.80482e-06
1.72239e-07
6.96516e-08
2.15419e-06
5.23697e-06
1.10799e-05
2.02443e-05
2.84906e-05
3.24664e-05
3.3247e-05
3.21521e-05
3.00955e-05
2.77364e-05
2.54646e-05
2.34365e-05
2.16607e-05
2.00822e-05
1.86253e-05
1.72104e-05
1.57618e-05
1.42173e-05
1.25478e-05
1.07712e-05
8.96748e-06
7.28124e-06
5.88753e-06
4.82091e-06
4.05234e-06
3.55328e-06
3.30687e-06
3.33313e-06
3.76833e-06
5.10702e-06
8.32241e-06
5.38296e-06
1.82129e-06
1.75729e-07
7.28247e-08
2.1709e-06
5.293e-06
1.12599e-05
2.05897e-05
2.87924e-05
3.26345e-05
3.33199e-05
3.21818e-05
3.01247e-05
2.78005e-05
2.55861e-05
2.36244e-05
2.19144e-05
2.03963e-05
1.89911e-05
1.76157e-05
1.61898e-05
1.46455e-05
1.29495e-05
1.11191e-05
9.2396e-06
7.467e-06
5.99119e-06
4.86373e-06
4.05773e-06
3.54295e-06
3.2991e-06
3.3435e-06
3.81599e-06
5.2318e-06
8.54022e-06
5.40356e-06
1.83788e-06
1.7912e-07
7.59916e-08
2.18693e-06
5.3478e-06
1.14367e-05
2.09213e-05
2.90703e-05
3.27797e-05
3.33726e-05
3.2194e-05
3.01443e-05
2.78541e-05
2.56957e-05
2.3801e-05
2.2159e-05
2.07045e-05
1.93547e-05
1.80229e-05
1.66241e-05
1.50843e-05
1.33657e-05
1.14843e-05
9.53098e-06
7.67305e-06
6.11495e-06
4.92552e-06
4.07965e-06
3.54569e-06
3.30066e-06
3.36014e-06
3.86866e-06
5.36277e-06
8.76033e-06
5.42685e-06
1.85447e-06
1.82399e-07
7.91948e-08
2.20271e-06
5.40281e-06
1.16149e-05
2.12466e-05
2.93316e-05
3.29073e-05
3.34083e-05
3.21896e-05
3.01466e-05
2.78917e-05
2.57912e-05
2.39651e-05
2.23931e-05
2.10046e-05
1.97137e-05
1.84294e-05
1.70619e-05
1.5531e-05
1.37935e-05
1.18644e-05
9.83949e-06
7.89764e-06
6.25759e-06
5.00542e-06
4.11767e-06
3.56154e-06
3.31195e-06
3.38362e-06
3.92665e-06
5.49949e-06
8.98251e-06
5.45293e-06
1.87107e-06
1.8556e-07
8.23906e-08
2.21764e-06
5.45677e-06
1.17932e-05
2.15563e-05
2.95687e-05
3.30116e-05
3.34225e-05
3.21649e-05
3.01299e-05
2.7912e-05
2.58699e-05
2.41126e-05
2.26115e-05
2.12917e-05
2.0063e-05
1.88306e-05
1.74986e-05
1.59808e-05
1.42284e-05
1.22549e-05
1.01613e-05
8.13796e-06
6.41766e-06
5.10292e-06
4.1719e-06
3.59104e-06
3.33383e-06
3.415e-06
3.99113e-06
5.64311e-06
9.20721e-06
5.48122e-06
1.88765e-06
1.88594e-07
8.56005e-08
2.2318e-06
5.50836e-06
1.1966e-05
2.18546e-05
2.97872e-05
3.3097e-05
3.34187e-05
3.21227e-05
3.00959e-05
2.79173e-05
2.59325e-05
2.42427e-05
2.28131e-05
2.15638e-05
2.04006e-05
1.92235e-05
1.79311e-05
1.64301e-05
1.46665e-05
1.26521e-05
1.04932e-05
8.39142e-06
6.59337e-06
5.21698e-06
4.24197e-06
3.63432e-06
3.36676e-06
3.45481e-06
4.06241e-06
5.79353e-06
9.43384e-06
5.51156e-06
1.90414e-06
1.91495e-07
8.87832e-08
2.24526e-06
5.55819e-06
1.21337e-05
2.21373e-05
2.99836e-05
3.31615e-05
3.33939e-05
3.20583e-05
3.00384e-05
2.79013e-05
2.59741e-05
2.43521e-05
2.29948e-05
2.18182e-05
2.07235e-05
1.96053e-05
1.8356e-05
1.68755e-05
1.5104e-05
1.3052e-05
1.08313e-05
8.65474e-06
6.78248e-06
5.34613e-06
4.32714e-06
3.6913e-06
3.4112e-06
3.50397e-06
4.1418e-06
5.95232e-06
9.66313e-06
5.54376e-06
1.92057e-06
1.9426e-07
9.19666e-08
2.25801e-06
5.606e-06
1.22978e-05
2.24119e-05
3.0165e-05
3.3209e-05
3.3353e-05
3.19791e-05
2.99659e-05
2.78673e-05
2.59927e-05
2.44359e-05
2.31531e-05
2.20522e-05
2.10286e-05
1.99725e-05
1.87698e-05
1.7313e-05
1.55368e-05
1.34506e-05
1.11716e-05
8.9246e-06
6.9825e-06
5.48889e-06
4.42674e-06
3.76182e-06
3.46726e-06
3.56268e-06
4.22949e-06
6.11937e-06
9.89444e-06
5.5777e-06
1.9369e-06
1.96883e-07
9.51345e-08
2.27021e-06
5.65264e-06
1.24585e-05
2.26734e-05
3.03268e-05
3.32383e-05
3.3294e-05
3.18801e-05
2.98716e-05
2.78108e-05
2.5991e-05
2.45003e-05
2.32883e-05
2.22617e-05
2.13123e-05
2.03221e-05
1.91694e-05
1.77398e-05
1.59623e-05
1.38449e-05
1.15112e-05
9.19796e-06
7.19071e-06
5.64308e-06
4.5393e-06
3.84536e-06
3.53526e-06
3.63172e-06
4.3263e-06
6.29595e-06
1.0128e-05
5.61305e-06
1.95309e-06
1.99363e-07
9.82989e-08
2.28199e-06
5.69827e-06
1.26167e-05
2.29252e-05
3.04725e-05
3.32513e-05
3.32194e-05
3.17658e-05
2.97611e-05
2.7736e-05
2.5968e-05
2.45416e-05
2.3402e-05
2.24499e-05
2.15728e-05
2.06503e-05
1.95513e-05
1.8152e-05
1.63765e-05
1.42318e-05
1.18476e-05
9.47299e-06
7.40565e-06
5.80737e-06
4.66368e-06
3.94099e-06
3.61466e-06
3.71131e-06
4.43397e-06
6.48256e-06
1.03639e-05
5.6502e-06
1.96923e-06
2.017e-07
1.01441e-07
2.29353e-06
5.74326e-06
1.27721e-05
2.31655e-05
3.06012e-05
3.32479e-05
3.31287e-05
3.16348e-05
2.96327e-05
2.76421e-05
2.59251e-05
2.45619e-05
2.34937e-05
2.26165e-05
2.18125e-05
2.09551e-05
1.9911e-05
1.85463e-05
1.67762e-05
1.46078e-05
1.21776e-05
9.74676e-06
7.62497e-06
5.98005e-06
4.7987e-06
4.04807e-06
3.70536e-06
3.80193e-06
4.55334e-06
6.68017e-06
1.06017e-05
5.68867e-06
1.98525e-06
2.03892e-07
1.04566e-07
2.30487e-06
5.78772e-06
1.2925e-05
2.33959e-05
3.07157e-05
3.32311e-05
3.30248e-05
3.14901e-05
2.94893e-05
2.75312e-05
2.58633e-05
2.45616e-05
2.35632e-05
2.27601e-05
2.20298e-05
2.12399e-05
2.02491e-05
1.89202e-05
1.71596e-05
1.49714e-05
1.24998e-05
1.00182e-05
7.84758e-06
6.15991e-06
4.94333e-06
4.16603e-06
3.80737e-06
3.90399e-06
4.68468e-06
6.88992e-06
1.08425e-05
5.72915e-06
2.00124e-06
2.05949e-07
1.0766e-07
2.31616e-06
5.83216e-06
1.30752e-05
2.36153e-05
3.0815e-05
3.31999e-05
3.29073e-05
3.13318e-05
2.93317e-05
2.7405e-05
2.5785e-05
2.45431e-05
2.36128e-05
2.28819e-05
2.22239e-05
2.15012e-05
2.05655e-05
1.92709e-05
1.75222e-05
1.53191e-05
1.28113e-05
1.02849e-05
8.07168e-06
6.34546e-06
5.09618e-06
4.29365e-06
3.9198e-06
4.01697e-06
4.82775e-06
7.11196e-06
1.10856e-05
5.77138e-06
2.01721e-06
2.07874e-07
1.10729e-07
2.32754e-06
5.87774e-06
1.32231e-05
2.38256e-05
3.09021e-05
3.31574e-05
3.27789e-05
3.11625e-05
2.91623e-05
2.72656e-05
2.56919e-05
2.45082e-05
2.36439e-05
2.29834e-05
2.23964e-05
2.17403e-05
2.086e-05
1.96016e-05
1.78634e-05
1.56485e-05
1.31107e-05
1.05461e-05
8.29672e-06
6.53612e-06
5.25653e-06
4.43017e-06
4.04202e-06
4.14051e-06
4.98255e-06
7.34667e-06
1.13309e-05
5.81544e-06
2.0332e-06
2.09671e-07
1.13744e-07
2.33831e-06
5.92215e-06
1.33678e-05
2.40264e-05
3.09766e-05
3.31032e-05
3.26397e-05
3.09827e-05
2.89821e-05
2.71145e-05
2.55862e-05
2.44586e-05
2.36578e-05
2.3065e-05
2.25464e-05
2.19549e-05
2.11292e-05
1.99078e-05
1.81833e-05
1.59587e-05
1.33958e-05
1.08002e-05
8.52168e-06
6.73144e-06
5.42426e-06
4.57548e-06
4.17381e-06
4.27443e-06
5.14913e-06
7.59437e-06
1.15789e-05
5.86149e-06
2.04925e-06
2.11343e-07
1.16703e-07
2.34873e-06
5.96572e-06
1.35107e-05
2.422e-05
3.10414e-05
3.30403e-05
3.24921e-05
3.07948e-05
2.87935e-05
2.69543e-05
2.5471e-05
2.43975e-05
2.36576e-05
2.31297e-05
2.2677e-05
2.21477e-05
2.13745e-05
2.01894e-05
1.84798e-05
1.62487e-05
1.36655e-05
1.10453e-05
8.74492e-06
6.93014e-06
5.59866e-06
4.72941e-06
4.31533e-06
4.41893e-06
5.32758e-06
7.85498e-06
1.1829e-05
5.90951e-06
2.0654e-06
2.12902e-07
1.1959e-07
2.35877e-06
6.0085e-06
1.36515e-05
2.4406e-05
3.10963e-05
3.29681e-05
3.2336e-05
3.05988e-05
2.8597e-05
2.67856e-05
2.53464e-05
2.43253e-05
2.36439e-05
2.31781e-05
2.27881e-05
2.23182e-05
2.15956e-05
2.04458e-05
1.8752e-05
1.65178e-05
1.39192e-05
1.12815e-05
8.96612e-06
7.13152e-06
5.77879e-06
4.89101e-06
4.46583e-06
4.57351e-06
5.51766e-06
8.12814e-06
1.20806e-05
5.95968e-06
2.0817e-06
2.14361e-07
1.22403e-07
2.36847e-06
6.05064e-06
1.3791e-05
2.45859e-05
3.11427e-05
3.28882e-05
3.21728e-05
3.03966e-05
2.8395e-05
2.66116e-05
2.52156e-05
2.42457e-05
2.36205e-05
2.32137e-05
2.28827e-05
2.24685e-05
2.17933e-05
2.06772e-05
1.89994e-05
1.67649e-05
1.4156e-05
1.15064e-05
9.18304e-06
7.33399e-06
5.96354e-06
5.05945e-06
4.62463e-06
4.73771e-06
5.71911e-06
8.41348e-06
1.23329e-05
6.01174e-06
2.09816e-06
2.15736e-07
1.25131e-07
2.37784e-06
6.09208e-06
1.39289e-05
2.4759e-05
3.11801e-05
3.27997e-05
3.20017e-05
3.01876e-05
2.81872e-05
2.64322e-05
2.50792e-05
2.41597e-05
2.3589e-05
2.32382e-05
2.29628e-05
2.26005e-05
2.19694e-05
2.08847e-05
1.92231e-05
1.6991e-05
1.43769e-05
1.17221e-05
9.39661e-06
7.53728e-06
6.15205e-06
5.23377e-06
4.79094e-06
4.91095e-06
5.93154e-06
8.71037e-06
1.25854e-05
6.06573e-06
2.11493e-06
2.1704e-07
1.27774e-07
2.3869e-06
6.13293e-06
1.40655e-05
2.49258e-05
3.12086e-05
3.27025e-05
3.18226e-05
2.99719e-05
2.79743e-05
2.62489e-05
2.49393e-05
2.40698e-05
2.35518e-05
2.32541e-05
2.30303e-05
2.27156e-05
2.21245e-05
2.10687e-05
1.94229e-05
1.71958e-05
1.45818e-05
1.19283e-05
9.60679e-06
7.74131e-06
6.34398e-06
5.41339e-06
4.96408e-06
5.09263e-06
6.15442e-06
9.01806e-06
1.28379e-05
6.1217e-06
2.13199e-06
2.18286e-07
1.30318e-07
2.39553e-06
6.17282e-06
1.41998e-05
2.50847e-05
3.12267e-05
3.25951e-05
3.16337e-05
2.97479e-05
2.77551e-05
2.60608e-05
2.47957e-05
2.39767e-05
2.35105e-05
2.32636e-05
2.30879e-05
2.28166e-05
2.22615e-05
2.12314e-05
1.96004e-05
1.73803e-05
1.47713e-05
1.21254e-05
9.81358e-06
7.94581e-06
6.53893e-06
5.59777e-06
5.14342e-06
5.28211e-06
6.38718e-06
9.33576e-06
1.309e-05
6.17956e-06
2.1493e-06
2.19485e-07
1.32768e-07
2.4038e-06
6.21186e-06
1.43319e-05
2.52356e-05
3.12344e-05
3.24768e-05
3.14344e-05
2.95148e-05
2.75288e-05
2.58679e-05
2.46489e-05
2.38811e-05
2.34662e-05
2.3268e-05
2.31371e-05
2.29052e-05
2.23819e-05
2.13743e-05
1.97572e-05
1.75462e-05
1.49468e-05
1.23151e-05
1.00179e-05
8.15134e-06
6.73715e-06
5.78695e-06
5.32881e-06
5.47906e-06
6.62924e-06
9.66253e-06
1.33416e-05
6.23935e-06
2.16687e-06
2.20645e-07
1.35112e-07
2.4116e-06
6.24965e-06
1.44607e-05
2.5377e-05
3.123e-05
3.23461e-05
3.12229e-05
2.92711e-05
2.72942e-05
2.5669e-05
2.44984e-05
2.37833e-05
2.34195e-05
2.32685e-05
2.31797e-05
2.29835e-05
2.24879e-05
2.14995e-05
1.9895e-05
1.76947e-05
1.51098e-05
1.24987e-05
1.02199e-05
8.35761e-06
6.93838e-06
5.98068e-06
5.52e-06
5.68324e-06
6.88035e-06
9.9979e-06
1.35927e-05
6.30087e-06
2.18468e-06
2.21772e-07
1.37353e-07
2.41896e-06
6.28623e-06
1.4586e-05
2.55085e-05
3.12132e-05
3.22024e-05
3.09984e-05
2.90155e-05
2.70497e-05
2.54629e-05
2.43439e-05
2.36827e-05
2.337e-05
2.32652e-05
2.32163e-05
2.30526e-05
2.2581e-05
2.1609e-05
2.00162e-05
1.78287e-05
1.52635e-05
1.26797e-05
1.04215e-05
8.56534e-06
7.14286e-06
6.17909e-06
5.71715e-06
5.8948e-06
7.14056e-06
1.03416e-05
1.38436e-05
6.36427e-06
2.20276e-06
2.22871e-07
1.39483e-07
2.42579e-06
6.32113e-06
1.47064e-05
2.56286e-05
3.1183e-05
3.20448e-05
3.07598e-05
2.8747e-05
2.67944e-05
2.5248e-05
2.41831e-05
2.35777e-05
2.33171e-05
2.3258e-05
2.32473e-05
2.31129e-05
2.2662e-05
2.17033e-05
2.01214e-05
1.79493e-05
1.5409e-05
1.28592e-05
1.06236e-05
8.77497e-06
7.35052e-06
6.38182e-06
5.91967e-06
6.11311e-06
7.40928e-06
1.06931e-05
1.40941e-05
6.42911e-06
2.22106e-06
2.23941e-07
1.41503e-07
2.43212e-06
6.35443e-06
1.48222e-05
2.57376e-05
3.11393e-05
3.18728e-05
3.05067e-05
2.8465e-05
2.65274e-05
2.50238e-05
2.40153e-05
2.34677e-05
2.32601e-05
2.32468e-05
2.32729e-05
2.31654e-05
2.27318e-05
2.17837e-05
2.02119e-05
1.8057e-05
1.55464e-05
1.30366e-05
1.08261e-05
8.98678e-06
7.56199e-06
6.58995e-06
6.12887e-06
6.3394e-06
7.68768e-06
1.10529e-05
1.43454e-05
6.49585e-06
2.23967e-06
2.24993e-07
1.43406e-07
2.43784e-06
6.38567e-06
1.49321e-05
2.58341e-05
3.10816e-05
3.1686e-05
3.02385e-05
2.8169e-05
2.62483e-05
2.47893e-05
2.38394e-05
2.33512e-05
2.31979e-05
2.32307e-05
2.32925e-05
2.32097e-05
2.27904e-05
2.18503e-05
2.02876e-05
1.81518e-05
1.56754e-05
1.32108e-05
1.10287e-05
9.20078e-06
7.77693e-06
6.80245e-06
6.34362e-06
6.57365e-06
7.9752e-06
1.1421e-05
1.45973e-05
6.56435e-06
2.2586e-06
2.26033e-07
1.45199e-07
2.44304e-06
6.4151e-06
1.50367e-05
2.59193e-05
3.10105e-05
3.14846e-05
2.99556e-05
2.78595e-05
2.59575e-05
2.45447e-05
2.36552e-05
2.32284e-05
2.31307e-05
2.32098e-05
2.33067e-05
2.32467e-05
2.2839e-05
2.19041e-05
2.03491e-05
1.82332e-05
1.57943e-05
1.33799e-05
1.12297e-05
9.4161e-06
7.99529e-06
7.02022e-06
6.56583e-06
6.81759e-06
8.2735e-06
1.17981e-05
1.48508e-05
6.63499e-06
2.27794e-06
2.27077e-07
1.46879e-07
2.44763e-06
6.44249e-06
1.51355e-05
2.59926e-05
3.09257e-05
3.12687e-05
2.96582e-05
2.7537e-05
2.56555e-05
2.42904e-05
2.34628e-05
2.30986e-05
2.30573e-05
2.31832e-05
2.3315e-05
2.32765e-05
2.28783e-05
2.19465e-05
2.03979e-05
1.83027e-05
1.59041e-05
1.35436e-05
1.1429e-05
9.63259e-06
8.21699e-06
7.24283e-06
6.79416e-06
7.06932e-06
8.58151e-06
1.21835e-05
1.5106e-05
6.70781e-06
2.29773e-06
2.28138e-07
1.4846e-07
2.45173e-06
6.46821e-06
1.52298e-05
2.60556e-05
3.0828e-05
3.10386e-05
2.93471e-05
2.72025e-05
2.53436e-05
2.40277e-05
2.3263e-05
2.29622e-05
2.29779e-05
2.31511e-05
2.33175e-05
2.32996e-05
2.29093e-05
2.19786e-05
2.04352e-05
1.83609e-05
1.60046e-05
1.37009e-05
1.16251e-05
9.84913e-06
8.44159e-06
7.47063e-06
7.02982e-06
7.33073e-06
8.90034e-06
1.25777e-05
1.5364e-05
6.78327e-06
2.31809e-06
2.29241e-07
1.49946e-07
2.45535e-06
6.49233e-06
1.53196e-05
2.61084e-05
3.07175e-05
3.07946e-05
2.90227e-05
2.68572e-05
2.5023e-05
2.37575e-05
2.30566e-05
2.28194e-05
2.28925e-05
2.31131e-05
2.33141e-05
2.33165e-05
2.2933e-05
2.20024e-05
2.04637e-05
1.84106e-05
1.6098e-05
1.38524e-05
1.18174e-05
1.00647e-05
8.66801e-06
7.7028e-06
7.27212e-06
7.601e-06
9.22991e-06
1.29807e-05
1.56253e-05
6.86151e-06
2.33906e-06
2.30401e-07
1.51355e-07
2.45859e-06
6.51526e-06
1.54062e-05
2.61523e-05
3.05948e-05
3.05372e-05
2.86863e-05
2.65026e-05
2.46954e-05
2.34817e-05
2.28448e-05
2.26713e-05
2.28015e-05
2.30693e-05
2.33048e-05
2.33268e-05
2.29495e-05
2.20184e-05
2.04846e-05
1.84539e-05
1.61869e-05
1.39991e-05
1.20059e-05
1.02787e-05
8.89569e-06
7.93899e-06
7.52101e-06
7.88046e-06
9.57057e-06
1.33916e-05
1.58895e-05
6.94256e-06
2.36072e-06
2.31633e-07
1.52695e-07
2.46144e-06
6.53699e-06
1.54898e-05
2.61873e-05
3.04596e-05
3.02662e-05
2.8338e-05
2.61393e-05
2.43619e-05
2.3201e-05
2.26285e-05
2.25183e-05
2.27051e-05
2.30198e-05
2.32894e-05
2.33306e-05
2.29592e-05
2.20277e-05
2.04997e-05
1.84938e-05
1.62751e-05
1.4143e-05
1.21906e-05
1.04896e-05
9.12264e-06
8.17731e-06
7.77509e-06
8.16837e-06
9.92255e-06
1.38117e-05
1.61555e-05
7.02556e-06
2.38293e-06
2.32923e-07
1.53977e-07
2.46396e-06
6.55778e-06
1.55709e-05
2.62142e-05
3.03124e-05
2.99822e-05
2.79789e-05
2.57689e-05
2.4024e-05
2.29172e-05
2.24089e-05
2.23612e-05
2.26036e-05
2.29643e-05
2.32673e-05
2.33271e-05
2.29612e-05
2.20297e-05
2.05095e-05
1.85321e-05
1.63659e-05
1.42866e-05
1.23733e-05
1.06987e-05
9.34891e-06
8.41711e-06
8.03331e-06
8.46355e-06
1.02848e-05
1.42397e-05
1.64227e-05
7.11042e-06
2.40571e-06
2.34276e-07
1.55207e-07
2.46611e-06
6.57747e-06
1.56493e-05
2.62324e-05
3.01527e-05
2.96849e-05
2.76092e-05
2.53921e-05
2.36827e-05
2.26313e-05
2.2187e-05
2.22006e-05
2.24973e-05
2.29028e-05
2.32382e-05
2.3316e-05
2.29552e-05
2.20242e-05
2.05134e-05
1.85676e-05
1.64573e-05
1.44291e-05
1.25536e-05
1.09055e-05
9.57412e-06
8.65789e-06
8.29527e-06
8.76591e-06
1.06573e-05
1.46759e-05
1.66905e-05
7.19677e-06
2.42904e-06
2.35702e-07
1.56391e-07
2.46787e-06
6.59611e-06
1.57253e-05
2.62421e-05
2.99807e-05
2.93749e-05
2.723e-05
2.50102e-05
2.33396e-05
2.23446e-05
2.19639e-05
2.20373e-05
2.23864e-05
2.2835e-05
2.32015e-05
2.32965e-05
2.29405e-05
2.20104e-05
2.05106e-05
1.85989e-05
1.65473e-05
1.45696e-05
1.27316e-05
1.11102e-05
9.79828e-06
8.89936e-06
8.56048e-06
9.07498e-06
1.10396e-05
1.51193e-05
1.6958e-05
7.28406e-06
2.45281e-06
2.37195e-07
1.57531e-07
2.46918e-06
6.61341e-06
1.5798e-05
2.62424e-05
2.97957e-05
2.90518e-05
2.68412e-05
2.46236e-05
2.29952e-05
2.20583e-05
2.17406e-05
2.18721e-05
2.22714e-05
2.2761e-05
2.31571e-05
2.32682e-05
2.29166e-05
2.19876e-05
2.04998e-05
1.8624e-05
1.66325e-05
1.47057e-05
1.29057e-05
1.13122e-05
1.00213e-05
9.14181e-06
8.82936e-06
9.39117e-06
1.14319e-05
1.55695e-05
1.72245e-05
7.37195e-06
2.47697e-06
2.38751e-07
1.58633e-07
2.47e-06
6.62925e-06
1.5867e-05
2.62328e-05
2.95978e-05
2.87162e-05
2.64438e-05
2.42333e-05
2.26509e-05
2.17738e-05
2.15185e-05
2.17057e-05
2.21524e-05
2.26805e-05
2.31043e-05
2.32304e-05
2.28831e-05
2.19559e-05
2.04816e-05
1.86434e-05
1.67128e-05
1.4837e-05
1.30757e-05
1.1511e-05
1.02428e-05
9.38462e-06
9.10138e-06
9.71413e-06
1.1834e-05
1.6026e-05
1.74893e-05
7.46007e-06
2.50147e-06
2.40371e-07
1.59698e-07
2.47027e-06
6.64341e-06
1.59317e-05
2.62128e-05
2.93868e-05
2.83681e-05
2.60382e-05
2.38396e-05
2.2307e-05
2.14938e-05
2.12993e-05
2.15391e-05
2.20301e-05
2.25939e-05
2.3043e-05
2.31827e-05
2.2839e-05
2.19143e-05
2.0455e-05
1.8656e-05
1.67866e-05
1.49621e-05
1.32404e-05
1.17063e-05
1.04625e-05
9.62805e-06
9.37683e-06
1.00441e-05
1.22456e-05
1.64878e-05
1.77515e-05
7.54806e-06
2.52623e-06
2.42055e-07
1.60728e-07
2.46989e-06
6.65555e-06
1.59916e-05
2.6182e-05
2.91624e-05
2.80073e-05
2.56239e-05
2.34422e-05
2.19628e-05
2.12155e-05
2.10815e-05
2.13723e-05
2.19053e-05
2.25021e-05
2.29742e-05
2.31259e-05
2.27858e-05
2.18647e-05
2.04224e-05
1.86648e-05
1.68551e-05
1.50809e-05
1.33994e-05
1.18971e-05
1.06797e-05
9.87131e-06
9.65514e-06
1.03807e-05
1.26666e-05
1.69543e-05
1.80101e-05
7.63544e-06
2.55115e-06
2.438e-07
1.6172e-07
2.46879e-06
6.66531e-06
1.60454e-05
2.61396e-05
2.89243e-05
2.76334e-05
2.52008e-05
2.30409e-05
2.16184e-05
2.09389e-05
2.0866e-05
2.12071e-05
2.17799e-05
2.24067e-05
2.28985e-05
2.30598e-05
2.27227e-05
2.18066e-05
2.03845e-05
1.86714e-05
1.69187e-05
1.51932e-05
1.3552e-05
1.20832e-05
1.08945e-05
1.01148e-05
9.93688e-06
1.07244e-05
1.30967e-05
1.74245e-05
1.82642e-05
7.72181e-06
2.57615e-06
2.45595e-07
1.62678e-07
2.46696e-06
6.67262e-06
1.60931e-05
2.60854e-05
2.86716e-05
2.72448e-05
2.4767e-05
2.26344e-05
2.12735e-05
2.06652e-05
2.06552e-05
2.10465e-05
2.16574e-05
2.2311e-05
2.2819e-05
2.29872e-05
2.2652e-05
2.17424e-05
2.03438e-05
1.86787e-05
1.69788e-05
1.5299e-05
1.36973e-05
1.22632e-05
1.11057e-05
1.03575e-05
1.02211e-05
1.1075e-05
1.35363e-05
1.7898e-05
1.85126e-05
7.80645e-06
2.60108e-06
2.47429e-07
1.63598e-07