/*--------------------------------*- C++ -*----------------------------------*\
| =========                 |                                                 |
| \\      /  F ield         | OpenFOAM: The Open Source CFD Toolbox           |
|  \\    /   O peration     | Version:  v1906                                 |
|   \\  /    A nd           | Web:      www.OpenFOAM.com                      |
|    \\/     M anipulation  |                                                 |
\*---------------------------------------------------------------------------*/
FoamFile
{
    version     2.0;
    format      ascii;
    class       volScalarField;
    location    "5.2/sphere";
    object      T;
}
// * * * * * * * * * * * * * * * * * * * * * * * * * * * * * * * * * * * * * //

dimensions      [0 0 0 1 0 0 0];


internalField   nonuniform List<scalar> 
304
(
496.467
496.51
496.508
496.532
496.472
496.472
496.466
496.511
496.464
496.663
496.663
496.519
496.507
496.662
496.663
496.565
496.519
496.564
496.464
496.509
496.532
496.469
496.512
496.664
496.663
496.565
496.534
496.663
496.663
496.601
496.469
496.564
496.601
496.514
496.471
496.523
496.565
496.464
496.478
496.566
496.601
496.512
496.465
496.514
496.45
496.448
496.472
496.473
496.465
496.515
496.472
496.472
496.515
496.465
496.448
496.47
496.464
496.471
496.513
496.51
496.51
496.532
496.521
496.566
496.565
496.601
496.466
496.532
496.51
496.566
496.521
496.601
496.565
496.47
496.463
496.514
496.471
496.468
496.468
496.511
496.461
496.531
496.462
496.508
496.563
496.6
496.517
496.563
496.51
496.509
496.466
496.601
496.565
496.565
496.52
496.514
496.47
496.463
496.447
496.469
496.461
496.512
496.469
496.513
496.464
496.468
496.446
496.463
496.469
496.47
496.513
496.511
496.521
496.566
496.509
496.533
496.565
496.602
496.468
496.566
496.522
496.533
496.511
496.602
496.565
496.464
496.471
496.514
496.472
496.52
496.509
496.564
496.51
496.565
496.532
496.601
496.464
496.565
496.51
496.565
496.51
496.601
496.532
496.563
496.463
496.519
496.532
496.601
496.508
496.564
496.51
496.52
496.465
496.601
496.532
496.565
496.509
496.464
496.47
496.513
496.469
496.564
496.464
496.508
496.564
496.601
496.508
496.532
496.519
496.509
496.464
496.601
496.564
496.532
496.509
496.512
496.469
496.468
496.469
496.472
496.514
496.468
496.532
496.565
496.602
496.466
496.509
496.522
496.565
496.509
496.601
496.564
496.51
496.463
496.565
496.518
496.513
496.47
496.462
496.567
496.534
496.602
496.471
496.525
496.513
496.567
496.51
496.601
496.533
496.52
496.467
496.565
496.51
496.602
496.51
496.565
496.514
496.568
496.469
496.523
496.533
496.565
496.509
496.564
496.51
496.521
496.466
496.513
496.469
496.466
496.601
496.509
496.532
496.521
496.565
496.466
496.51
496.565
496.533
496.51
496.566
496.522
496.511
496.469
496.471
496.47
496.466
496.453
496.469
496.466
496.514
496.47
496.513
496.463
496.47
496.447
496.468
496.474
496.517
496.474
496.566
496.567
496.602
496.471
496.511
496.512
496.533
496.52
496.601
496.565
496.509
496.464
496.533
496.509
496.514
496.471
496.469
496.517
496.468
496.472
496.602
496.521
496.565
496.51
496.533
496.465
496.51
496.564
496.565
496.521
496.532
496.509
496.51
496.466
496.469
496.464
496.468
496.451
496.514
496.471
496.471
496.466
496.471
496.471
)
;

boundaryField
{
    sphere_to_oil
    {
        type            compressible::turbulentTemperatureCoupledBaffleMixed;
        refValue        nonuniform List<scalar> 
360
(
311.446
311.446
303.167
325.362
326.981
303.808
327.761
327.761
327.761
311.471
311.471
303.8
304.204
302.815
310.446
327.849
326.088
326.088
326.088
302.829
323.791
310.555
307.406
326.492
303.203
327.555
303.801
327.304
327.304
327.304
328.13
327.244
303.159
303.14
303.76
303.806
325.837
325.837
325.837
325.312
326.988
303.276
303.814
311.368
311.368
303.775
304.149
302.726
310.799
327.771
303.881
303.813
304.125
304.19
302.73
310.409
326.537
302.789
303.781
304.054
302.838
327.497
327.497
327.497
302.723
326.911
310.634
306.762
327.64
327.64
327.64
326.842
326.43
302.755
323.183
310.019
302.808
306.962
326.826
326.571
307.515
306.585
307.309
302.85
303.168
303.787
303.875
304.17
302.754
302.861
303.18
304.166
303.86
303.165
304.131
303.832
303.853
303.786
303.214
302.822
302.85
302.753
303.812
303.868
304.172
302.737
302.889
304.211
303.235
303.839
303.869
303.811
303.222
302.775
302.866
302.847
307.038
306.774
307.055
311.515
311.515
325.362
325.362
326.492
326.492
326.262
326.262
326.262
326.335
326.335
326.335
307.079
306.687
306.966
302.885
326.981
326.981
311.334
311.334
328.13
328.13
310.294
310.294
327.919
327.919
327.919
302.871
302.888
328.205
328.205
328.205
329.05
329.05
329.05
327.849
323.791
310.446
327.849
327.028
302.777
327.028
327.028
307.365
307.199
306.929
310.325
310.325
328.016
328.016
328.016
302.739
323.791
310.555
327.811
327.811
302.759
327.811
307.505
306.871
302.762
303.775
303.824
304.22
303.177
304.149
303.842
302.748
302.856
327.555
327.555
327.244
327.244
311.33
311.33
325.587
325.587
325.587
310.969
310.969
302.828
303.753
303.844
304.216
303.814
303.8
304.219
303.203
304.198
303.791
303.192
325.312
304.213
303.849
302.816
326.906
326.906
326.906
310.776
310.776
302.74
303.849
303.852
304.031
326.988
303.186
304.008
303.815
325.312
326.988
310.707
302.748
310.707
302.806
302.861
304.136
303.196
303.832
303.816
303.863
303.175
302.749
327.935
324.192
327.935
327.935
324.192
324.192
327.771
326.911
310.799
326.706
302.857
327.771
326.706
326.706
304.062
303.177
303.895
304.158
303.198
326.842
303.773
303.813
303.87
303.2
326.537
323.183
303.803
303.831
303.204
325.105
327.257
310.409
327.148
302.86
326.537
327.148
327.148
304.116
303.222
326.826
303.82
303.762
303.782
327.05
303.22
326.52
310.817
325.105
310.817
327.05
325.105
327.05
302.731
306.54
306.479
306.626
311.14
325.836
311.14
325.836
325.836
302.796
326.911
326.917
310.634
326.917
302.839
326.917
306.968
306.939
302.705
325.53
310.479
325.53
325.53
310.479
302.796
303.788
303.834
304.199
326.43
326.842
310.737
302.84
326.43
310.737
302.78
323.183
327.723
310.019
327.723
302.657
327.723
304.212
326.571
303.236
303.814
326.891
325.753
327.257
310.54
327.257
326.891
310.54
326.891
306.561
307.359
326.826
310.834
302.772
326.571
310.834
302.86
326.52
325.753
326.52
311.112
325.753
311.112
)
;
        refGradient     uniform 0;
        valueFraction   nonuniform List<scalar> 
360
(
0.000128086
0.00012288
7.86693e-05
0.00028105
0.000288244
0.000165272
0.000290036
0.000248954
0.000387525
0.000123376
0.000120289
0.000161367
0.000245929
7.03175e-05
0.000125789
0.000244527
0.000280225
0.000261826
0.000367414
6.4344e-05
0.000241229
0.000118587
0.000109299
0.000290051
8.42092e-05
0.000298139
0.000168045
0.000294288
0.000385144
0.000257624
0.00029434
0.000296874
7.97134e-05
7.88229e-05
0.00016541
0.000162778
0.000275456
0.000373444
0.000256429
0.000385579
0.000380871
8.13215e-05
0.000161298
0.000117725
0.000117584
0.000166044
0.000248417
6.62778e-05
0.000118593
0.000251481
0.0001638
0.000164864
0.000245745
0.000243357
6.87552e-05
0.00012578
0.000256505
6.58655e-05
0.000163169
0.000243319
6.44707e-05
0.000286468
0.000252879
0.000395799
6.64672e-05
0.000258558
0.000120603
0.00011665
0.000293086
0.000382355
0.000257188
0.000368713
0.000373874
7.13987e-05
0.000249271
0.000126453
6.5828e-05
0.000118043
0.000373077
0.00038756
0.000115777
0.000113593
0.000111572
6.63071e-05
7.99604e-05
0.000162107
0.000163014
0.000246867
7.45209e-05
6.29214e-05
7.91354e-05
0.000246465
0.000162706
8.08375e-05
0.000246058
0.000164564
0.00016359
0.000163841
7.98981e-05
6.40425e-05
6.49409e-05
6.40768e-05
0.000164727
0.000161904
0.000246279
7.25094e-05
6.29817e-05
0.0002461
7.81833e-05
0.000162158
0.000162189
0.000165497
8.09279e-05
6.48026e-05
6.31994e-05
6.44205e-05
0.000112137
0.000112272
0.000116634
0.000126469
0.000118863
0.000245608
0.000386928
0.000258765
0.000390487
0.000250291
0.00038482
0.000286514
0.000250493
0.000376444
0.000282169
0.000115091
0.00010884
0.00011148
6.15392e-05
0.000255233
0.000384302
0.000118893
0.000119436
0.000388372
0.000258209
0.000124634
0.000131358
0.000383591
0.000263499
0.000303634
6.77276e-05
6.30277e-05
0.000266038
0.000368673
0.000292222
0.00027392
0.000381437
0.000292191
0.000301679
0.000277882
0.000129982
0.000387457
0.000250266
6.97721e-05
0.000376583
0.0002818
0.00010754
0.000113298
0.000112084
0.00011824
0.000123599
0.000385521
0.000253834
0.000297953
7.14362e-05
0.000370852
0.000127156
0.000389963
0.000249631
6.97777e-05
0.000295993
0.000108494
0.000109501
6.39755e-05
0.000167686
0.000167619
0.000247851
8.26528e-05
0.000248225
0.000163329
6.33185e-05
6.14845e-05
0.00038792
0.000246469
0.000383365
0.000255583
0.000121909
0.000114008
0.000385153
0.000240705
0.000278238
0.000112692
0.000130758
6.57825e-05
0.000164739
0.000164589
0.000245908
0.000161014
0.000161843
0.00024494
8.39557e-05
0.000245779
0.000166648
8.16444e-05
0.000276657
0.000245507
0.00016565
6.60168e-05
0.000376736
0.000244222
0.000285746
0.00011904
0.000110624
6.38989e-05
0.000163457
0.000166206
0.000246432
0.000280199
7.8363e-05
0.000244093
0.000159418
0.00024249
0.000256713
0.000116527
6.54508e-05
0.000129305
6.62601e-05
6.23714e-05
0.000249183
8.31598e-05
0.000167522
0.000165585
0.000163612
8.21146e-05
6.27233e-05
0.000254791
0.000238744
0.000400817
0.00029834
0.000373937
0.000268666
0.000287965
0.000294836
0.000131048
0.000252928
6.81419e-05
0.00038491
0.000374267
0.000284355
0.000247998
7.90232e-05
0.000161367
0.000245147
7.97313e-05
0.000292131
0.000162067
0.000163224
0.00016172
7.92476e-05
0.000289948
0.000271706
0.000164995
0.00016073
8.07738e-05
0.000272241
0.000299667
0.000118839
0.000269002
6.38846e-05
0.000383258
0.00037157
0.000280756
0.000243328
7.99369e-05
0.000281197
0.000161907
0.000162156
0.000163079
0.000282728
8.06858e-05
0.000288865
0.000121543
0.000249051
0.000122557
0.000253792
0.000386774
0.000379703
6.38547e-05
0.000127962
0.000126451
0.00012368
0.000112631
0.000376848
0.000123016
0.000250523
0.000295007
6.2924e-05
0.000380529
0.000380069
0.000124412
0.000270228
6.59419e-05
0.000289708
0.000110301
0.000108359
6.58874e-05
0.00037271
0.00011138
0.000244416
0.000287863
0.00011941
6.50945e-05
0.000161969
0.000161914
0.000244323
0.000279586
0.000242498
0.000117241
6.31077e-05
0.000246561
0.000130215
7.28851e-05
0.00035731
0.000383681
0.000113389
0.000243717
6.75679e-05
0.000306515
0.000246195
0.000294991
8.06948e-05
0.000162665
0.000284408
0.000275728
0.000259399
0.000115941
0.000379991
0.000379173
0.000137632
0.000253448
0.000111509
0.00011322
0.000255152
0.000126302
6.82876e-05
0.000258052
0.000121618
6.30626e-05
0.000375594
0.000380102
0.000250085
0.000121364
0.000245653
0.000125366
)
;
        value           nonuniform List<scalar> 
360
(
496.473
496.475
496.477
496.444
496.443
496.503
496.442
496.453
496.423
496.47
496.471
496.502
496.51
496.484
496.474
496.456
496.439
496.45
496.424
496.484
496.455
496.475
496.451
496.442
496.475
496.441
496.504
496.444
496.425
496.453
496.44
496.439
496.474
496.474
496.501
496.504
496.442
496.426
496.451
496.423
496.424
496.474
496.503
496.473
496.475
496.502
496.51
496.482
496.473
496.452
496.505
496.503
496.512
496.511
496.481
496.471
496.45
496.483
496.503
496.511
496.483
496.442
496.452
496.425
496.484
496.453
496.474
496.45
496.446
496.429
496.455
496.427
496.426
496.489
496.46
496.479
496.482
496.454
496.427
496.424
496.453
496.454
496.454
496.484
496.481
496.503
496.504
496.51
496.478
496.484
496.476
496.51
496.504
496.474
496.511
496.503
496.503
496.503
496.476
496.484
496.484
496.483
496.504
496.504
496.51
496.481
496.481
496.509
496.472
496.502
496.504
496.502
496.475
496.482
496.486
496.485
496.452
496.452
496.451
496.473
496.476
496.455
496.424
496.454
496.424
496.454
496.425
496.442
496.455
496.427
496.445
496.452
496.453
496.453
496.484
496.452
496.424
496.474
496.474
496.423
496.452
496.472
496.472
496.424
496.452
496.438
496.483
496.481
496.448
496.425
496.438
496.447
496.423
496.44
496.44
496.443
496.471
496.422
496.453
496.482
496.424
496.443
496.452
496.451
496.451
496.473
496.471
496.422
496.451
496.439
496.48
496.425
496.47
496.423
496.451
496.48
496.439
496.451
496.451
496.482
496.504
496.502
496.51
496.478
496.511
496.504
496.484
496.483
496.423
496.453
496.424
496.452
496.472
496.474
496.424
496.456
496.441
496.475
496.473
496.485
496.502
496.503
496.51
496.504
496.504
496.511
496.472
496.51
496.502
496.475
496.443
496.51
496.502
496.482
496.426
496.453
496.441
496.473
496.474
496.482
496.502
496.501
496.51
496.442
496.474
496.51
496.503
496.452
496.45
496.472
496.481
496.47
496.481
496.482
496.51
496.475
496.502
496.502
496.503
496.472
496.485
496.451
496.456
496.426
496.441
496.429
496.45
496.439
496.438
496.471
496.453
496.482
496.422
496.423
496.444
496.511
496.481
496.507
496.511
496.477
496.443
496.504
496.504
496.508
496.479
496.445
496.447
496.503
496.504
496.475
496.444
496.44
496.473
496.449
496.482
496.426
496.428
496.443
496.511
496.476
496.443
496.504
496.505
496.505
496.447
496.479
496.445
496.474
496.454
496.473
496.452
496.425
496.427
496.482
496.454
496.455
496.455
496.473
496.427
496.473
496.453
496.446
496.483
496.423
496.423
496.472
496.449
496.482
496.44
496.451
496.451
496.486
496.43
496.478
496.458
496.447
496.477
496.487
496.505
496.506
496.512
496.442
496.455
496.475
496.484
496.453
496.47
496.48
496.431
496.428
496.476
496.456
496.484
496.439
496.511
496.44
496.475
496.504
496.443
496.444
496.45
496.473
496.425
496.425
496.467
496.45
496.455
496.455
496.453
496.473
496.483
496.453
496.474
496.484
496.427
496.426
496.454
496.474
496.454
496.473
)
;
        Tnbr            T;
        thicknessLayers 0();
        kappaLayers     0();
        kappaMethod     solidThermo;
        kappa           none;
        alphaAni        none;
    }
}


// ************************************************************************* //
