/*--------------------------------*- C++ -*----------------------------------*\
| =========                 |                                                 |
| \\      /  F ield         | OpenFOAM: The Open Source CFD Toolbox           |
|  \\    /   O peration     | Version:  v1906                                 |
|   \\  /    A nd           | Web:      www.OpenFOAM.com                      |
|    \\/     M anipulation  |                                                 |
\*---------------------------------------------------------------------------*/
FoamFile
{
    version     2.0;
    format      ascii;
    class       volScalarField;
    location    "30";
    object      k;
}
// * * * * * * * * * * * * * * * * * * * * * * * * * * * * * * * * * * * * * //

dimensions      [0 2 -2 0 0 0 0];


internalField   nonuniform List<scalar> 
78750
(
5.83978e-05
6.43924e-05
6.60144e-05
6.56482e-05
6.36728e-05
6.09117e-05
5.7948e-05
5.50342e-05
5.22867e-05
4.97472e-05
4.74227e-05
4.5329e-05
4.34719e-05
4.18395e-05
4.04097e-05
3.91548e-05
3.80447e-05
3.70476e-05
3.61322e-05
3.52666e-05
3.44173e-05
3.35523e-05
3.26405e-05
3.16512e-05
3.05567e-05
2.93026e-05
2.78397e-05
2.61195e-05
2.40761e-05
2.15951e-05
1.85837e-05
1.49452e-05
1.07336e-05
6.44232e-06
2.65383e-06
1.12096e-05
7.37772e-05
0.000109056
0.000123382
0.00012618
0.000124069
0.000120414
0.000116687
0.000113478
0.000110836
0.000108611
0.000106716
0.000105097
0.00010369
0.000102454
0.000101344
0.00010032
9.93215e-05
9.82984e-05
9.71875e-05
9.58929e-05
9.43602e-05
9.2553e-05
9.04311e-05
8.79401e-05
8.49746e-05
8.14293e-05
7.7191e-05
7.21443e-05
6.59301e-05
5.79292e-05
4.78966e-05
3.62321e-05
2.36376e-05
9.92299e-06
1.5931e-05
4.48517e-05
6.17818e-05
6.84532e-05
6.86034e-05
6.60805e-05
6.35066e-05
6.16867e-05
6.05323e-05
5.98125e-05
5.9386e-05
5.92088e-05
5.92374e-05
5.94414e-05
5.97997e-05
6.02968e-05
6.09189e-05
6.16523e-05
6.24813e-05
6.33854e-05
6.43372e-05
6.5299e-05
6.62203e-05
6.7034e-05
6.76549e-05
6.79484e-05
6.77646e-05
6.69246e-05
6.51471e-05
6.19395e-05
5.66938e-05
4.90648e-05
3.94368e-05
2.75827e-05
1.27271e-05
1.04785e-05
3.21098e-05
4.48499e-05
5.13384e-05
5.36511e-05
5.30755e-05
5.0979e-05
4.84059e-05
4.57968e-05
4.32967e-05
4.10308e-05
3.90934e-05
3.75195e-05
3.63203e-05
3.5491e-05
3.50159e-05
3.48804e-05
3.50727e-05
3.55864e-05
3.64215e-05
3.75819e-05
3.9075e-05
4.08962e-05
4.30184e-05
4.53778e-05
4.78505e-05
5.02243e-05
5.22332e-05
5.3466e-05
5.32906e-05
5.09993e-05
4.60514e-05
3.85691e-05
2.81975e-05
1.42603e-05
8.97128e-06
2.57661e-05
3.66256e-05
4.25185e-05
4.48623e-05
4.42164e-05
4.12403e-05
3.68182e-05
3.183e-05
2.70038e-05
2.2825e-05
1.94531e-05
1.68776e-05
1.50418e-05
1.38286e-05
1.30969e-05
1.27196e-05
1.26052e-05
1.27092e-05
1.30382e-05
1.36527e-05
1.46653e-05
1.62317e-05
1.85264e-05
2.17089e-05
2.59334e-05
3.1216e-05
3.71176e-05
4.26601e-05
4.65019e-05
4.73762e-05
4.46019e-05
3.86534e-05
2.94238e-05
1.63306e-05
6.53976e-06
2.07948e-05
3.02341e-05
3.53129e-05
3.70752e-05
3.5965e-05
3.25337e-05
2.77023e-05
2.25522e-05
1.80085e-05
1.4588e-05
1.25166e-05
1.17433e-05
1.19717e-05
1.27902e-05
1.38076e-05
1.4707e-05
1.52511e-05
1.52755e-05
1.46794e-05
1.34272e-05
1.15674e-05
9.27933e-06
6.94042e-06
5.22015e-06
5.08922e-06
7.5542e-06
1.30844e-05
2.11491e-05
2.98667e-05
3.64596e-05
3.86337e-05
3.59115e-05
2.87495e-05
1.73986e-05
5.325e-06
1.72756e-05
2.55306e-05
3.00579e-05
3.14757e-05
3.01047e-05
2.64249e-05
2.15291e-05
1.69291e-05
1.40002e-05
1.34477e-05
1.51767e-05
1.84906e-05
2.24974e-05
2.64666e-05
2.99876e-05
3.28667e-05
3.49888e-05
3.6286e-05
3.67084e-05
3.61996e-05
3.46902e-05
3.21119e-05
2.83905e-05
2.35292e-05
1.79737e-05
1.30152e-05
1.07584e-05
1.30538e-05
1.96863e-05
2.76842e-05
3.29346e-05
3.30125e-05
2.812e-05
1.91109e-05
4.28323e-06
1.4212e-05
2.107e-05
2.4537e-05
2.49881e-05
2.27766e-05
1.88899e-05
1.50887e-05
1.3131e-05
1.38919e-05
1.71281e-05
2.18523e-05
2.69523e-05
3.16345e-05
3.55825e-05
3.87768e-05
4.12361e-05
4.29751e-05
4.40121e-05
4.43509e-05
4.39724e-05
4.28321e-05
4.08617e-05
3.79602e-05
3.39371e-05
2.86745e-05
2.25653e-05
1.69571e-05
1.42012e-05
1.61663e-05
2.1989e-05
2.78429e-05
2.97597e-05
2.68986e-05
2.02066e-05
3.68744e-06
1.16834e-05
1.71581e-05
1.96317e-05
1.93817e-05
1.70204e-05
1.41047e-05
1.25949e-05
1.37126e-05
1.73854e-05
2.26522e-05
2.83979e-05
3.38257e-05
3.85432e-05
4.25142e-05
4.58044e-05
4.84152e-05
5.03289e-05
5.15194e-05
5.19485e-05
5.15664e-05
5.03149e-05
4.81349e-05
4.49008e-05
4.04119e-05
3.46154e-05
2.78218e-05
2.10562e-05
1.63261e-05
1.57504e-05
1.95976e-05
2.50383e-05
2.78227e-05
2.6458e-05
2.17366e-05
3.16216e-06
9.45821e-06
1.37169e-05
1.5493e-05
1.51453e-05
1.36233e-05
1.26846e-05
1.38685e-05
1.75517e-05
2.3068e-05
2.94072e-05
3.57329e-05
4.15367e-05
4.65909e-05
5.09325e-05
5.46354e-05
5.7684e-05
6.00457e-05
6.16768e-05
6.25172e-05
6.24892e-05
6.15015e-05
5.94587e-05
5.61702e-05
5.13307e-05
4.47898e-05
3.67603e-05
2.81891e-05
2.10903e-05
1.7859e-05
1.93587e-05
2.36663e-05
2.66839e-05
2.63587e-05
2.31286e-05
2.59932e-06
7.71435e-06
1.12607e-05
1.29174e-05
1.30618e-05
1.2614e-05
1.30078e-05
1.53338e-05
1.96912e-05
2.54917e-05
3.19555e-05
3.8402e-05
4.43573e-05
4.95978e-05
5.41889e-05
5.82049e-05
6.16181e-05
6.43983e-05
6.65011e-05
6.78572e-05
6.83698e-05
6.79176e-05
6.63635e-05
6.34752e-05
5.88696e-05
5.22421e-05
4.36766e-05
3.40832e-05
2.56033e-05
2.08042e-05
2.0721e-05
2.39639e-05
2.68065e-05
2.70391e-05
2.4774e-05
1.91893e-06
6.25591e-06
9.39596e-06
1.11257e-05
1.17899e-05
1.21748e-05
1.34382e-05
1.64296e-05
2.12132e-05
2.7315e-05
3.40347e-05
4.0708e-05
4.68584e-05
5.22651e-05
5.70197e-05
6.12292e-05
6.48897e-05
6.79866e-05
7.04803e-05
7.22988e-05
7.33359e-05
7.34536e-05
7.24897e-05
7.01894e-05
6.61173e-05
5.98163e-05
5.11536e-05
4.08474e-05
3.10586e-05
2.47251e-05
2.31007e-05
2.5201e-05
2.76283e-05
2.80549e-05
2.63142e-05
1.3647e-06
5.11778e-06
7.97736e-06
9.80502e-06
1.0907e-05
1.19723e-05
1.39536e-05
1.74772e-05
2.25395e-05
2.86737e-05
3.52311e-05
4.16414e-05
4.75324e-05
5.27315e-05
5.73439e-05
6.15007e-05
6.52047e-05
6.84379e-05
7.11533e-05
7.32712e-05
7.46784e-05
7.52291e-05
7.47507e-05
7.29852e-05
6.94959e-05
6.37771e-05
5.55682e-05
4.54101e-05
3.53792e-05
2.84157e-05
2.58745e-05
2.71043e-05
2.90542e-05
2.94512e-05
2.799e-05
1.02617e-06
4.39579e-06
7.09668e-06
9.08628e-06
1.07023e-05
1.2624e-05
1.55746e-05
1.9836e-05
2.52033e-05
3.11885e-05
3.7293e-05
4.31676e-05
4.86196e-05
5.35595e-05
5.80499e-05
6.21836e-05
6.59601e-05
6.93324e-05
7.22317e-05
7.45648e-05
7.62118e-05
7.70263e-05
7.68396e-05
7.54042e-05
7.22865e-05
6.7004e-05
5.92504e-05
4.94362e-05
3.94555e-05
3.21449e-05
2.88699e-05
2.92932e-05
3.07137e-05
3.09081e-05
2.94607e-05
8.17604e-07
3.98468e-06
6.63491e-06
8.77729e-06
1.07322e-05
1.30584e-05
1.6191e-05
2.02245e-05
2.49947e-05
3.0239e-05
3.57184e-05
4.1239e-05
4.66241e-05
5.17059e-05
5.64219e-05
6.08062e-05
6.48503e-05
6.84907e-05
7.1654e-05
7.42493e-05
7.61587e-05
7.72406e-05
7.73304e-05
7.61823e-05
7.33838e-05
6.84782e-05
6.11827e-05
5.19049e-05
4.24657e-05
3.53408e-05
3.17509e-05
3.15753e-05
3.24774e-05
3.23536e-05
3.07211e-05
6.01844e-07
3.57754e-06
6.12303e-06
8.25712e-06
1.02577e-05
1.25569e-05
1.5447e-05
1.90681e-05
2.34327e-05
2.84564e-05
3.39704e-05
3.97318e-05
4.54572e-05
5.08787e-05
5.58368e-05
6.03595e-05
6.44872e-05
6.81822e-05
7.14003e-05
7.40741e-05
7.61068e-05
7.73721e-05
7.77188e-05
7.69103e-05
7.45457e-05
7.01582e-05
6.34424e-05
5.47388e-05
4.57636e-05
3.87652e-05
3.48326e-05
3.40289e-05
3.43547e-05
3.37846e-05
3.17754e-05
4.15935e-07
3.07931e-06
5.41219e-06
7.44877e-06
9.43968e-06
1.17165e-05
1.45633e-05
1.81926e-05
2.26826e-05
2.79371e-05
3.37018e-05
3.96389e-05
4.54198e-05
5.07863e-05
5.5578e-05
5.98425e-05
6.36782e-05
6.70965e-05
7.00844e-05
7.25983e-05
7.45671e-05
7.5884e-05
7.64184e-05
7.59557e-05
7.41107e-05
7.04215e-05
6.45617e-05
5.67936e-05
4.87163e-05
4.2165e-05
3.80816e-05
3.67054e-05
3.64323e-05
3.53801e-05
3.30111e-05
3.235e-07
2.78013e-06
5.04307e-06
7.20217e-06
9.49943e-06
1.22295e-05
1.56442e-05
1.98828e-05
2.48905e-05
3.0422e-05
3.61356e-05
4.17136e-05
4.69343e-05
5.16755e-05
5.58808e-05
5.95676e-05
6.28302e-05
6.57333e-05
6.82745e-05
7.04303e-05
7.21557e-05
7.33842e-05
7.40243e-05
7.38873e-05
7.26203e-05
6.9771e-05
6.49772e-05
5.84054e-05
5.14966e-05
4.5656e-05
4.16353e-05
3.98054e-05
3.89695e-05
3.74279e-05
3.46686e-05
3.03092e-07
2.73609e-06
5.09144e-06
7.49659e-06
1.01691e-05
1.33359e-05
1.71332e-05
2.15535e-05
2.6426e-05
3.14877e-05
3.64931e-05
4.12802e-05
4.57663e-05
4.99032e-05
5.36373e-05
5.69067e-05
5.97205e-05
6.21449e-05
6.42049e-05
6.59101e-05
6.72673e-05
6.82896e-05
6.89663e-05
6.91608e-05
6.85631e-05
6.67166e-05
6.32294e-05
5.82259e-05
5.30527e-05
4.85076e-05
4.50428e-05
4.30668e-05
4.18124e-05
3.98657e-05
3.68029e-05
2.93147e-07
2.76363e-06
5.2122e-06
7.76255e-06
1.05796e-05
1.38037e-05
1.74809e-05
2.15528e-05
2.58789e-05
3.0305e-05
3.47195e-05
3.90591e-05
4.32719e-05
4.72745e-05
5.09336e-05
5.40904e-05
5.66203e-05
5.85216e-05
5.98608e-05
6.0732e-05
6.12539e-05
6.15698e-05
6.18573e-05
6.21699e-05
6.22814e-05
6.16615e-05
5.97652e-05
5.65989e-05
5.34269e-05
5.05658e-05
4.81316e-05
4.64221e-05
4.49837e-05
4.27435e-05
3.94676e-05
2.74975e-07
2.70879e-06
5.13328e-06
7.63891e-06
1.03394e-05
1.33286e-05
1.6636e-05
2.02365e-05
2.40736e-05
2.81033e-05
3.23182e-05
3.67287e-05
4.13032e-05
4.58974e-05
5.02241e-05
5.39081e-05
5.66185e-05
5.81885e-05
5.86267e-05
5.80888e-05
5.67947e-05
5.51046e-05
5.35973e-05
5.28765e-05
5.31004e-05
5.37014e-05
5.37705e-05
5.29453e-05
5.22371e-05
5.14706e-05
5.04686e-05
4.93907e-05
4.80258e-05
4.56942e-05
4.24841e-05
2.51848e-07
2.58798e-06
4.91598e-06
7.29505e-06
9.80446e-06
1.25192e-05
1.54832e-05
1.87323e-05
2.23295e-05
2.64067e-05
3.11655e-05
3.67932e-05
4.33002e-05
5.03624e-05
5.72996e-05
6.32541e-05
6.74864e-05
6.95726e-05
6.94024e-05
6.70725e-05
6.27729e-05
5.69637e-05
5.07063e-05
4.57123e-05
4.34345e-05
4.38831e-05
4.5667e-05
4.74906e-05
4.96201e-05
5.13278e-05
5.21487e-05
5.20689e-05
5.101e-05
4.86999e-05
4.56337e-05
2.32724e-07
2.43492e-06
4.62507e-06
6.83904e-06
9.13345e-06
1.15864e-05
1.43054e-05
1.74876e-05
2.14817e-05
2.67984e-05
3.39849e-05
4.33382e-05
5.45892e-05
6.67851e-05
7.85129e-05
8.83612e-05
9.53322e-05
9.89227e-05
9.89471e-05
9.53323e-05
8.80178e-05
7.70809e-05
6.33459e-05
4.93672e-05
3.90235e-05
3.49166e-05
3.62675e-05
4.03193e-05
4.54932e-05
4.99606e-05
5.28417e-05
5.39959e-05
5.34425e-05
5.12944e-05
4.84625e-05
2.44154e-07
2.33628e-06
4.42142e-06
6.5309e-06
8.74254e-06
1.12298e-05
1.43422e-05
1.87e-05
2.51805e-05
3.46733e-05
4.76191e-05
6.35866e-05
8.12132e-05
9.86017e-05
0.000113955
0.000126083
0.000134496
0.000139086
0.000139766
0.000136293
0.00012823
0.000114941
9.59442e-05
7.2439e-05
4.92791e-05
3.35316e-05
2.87964e-05
3.25045e-05
4.02266e-05
4.77052e-05
5.29462e-05
5.55551e-05
5.56283e-05
5.36292e-05
5.08179e-05
2.92599e-07
2.34133e-06
4.43497e-06
6.68246e-06
9.35855e-06
1.30409e-05
1.87032e-05
2.75785e-05
4.06544e-05
5.80021e-05
7.84446e-05
9.98667e-05
0.000119978
0.000137068
0.000150389
0.000160016
0.000166376
0.000169814
0.000170401
0.000167882
0.000161646
0.000150605
0.000133126
0.000107761
7.61456e-05
4.62757e-05
2.85817e-05
2.63118e-05
3.42225e-05
4.43858e-05
5.21925e-05
5.64499e-05
5.72704e-05
5.54462e-05
5.25095e-05
3.54721e-07
2.62008e-06
5.18286e-06
8.52897e-06
1.35602e-05
2.16274e-05
3.41174e-05
5.16004e-05
7.31167e-05
9.62994e-05
0.000118323
0.000136993
0.00015136
0.00016166
0.000168762
0.00017356
0.000176656
0.00017832
0.000178541
0.000177051
0.000173289
0.000166234
0.000154115
0.000134362
0.000105049
6.95257e-05
3.92244e-05
2.57568e-05
2.95385e-05
4.08453e-05
5.11335e-05
5.71825e-05
5.87934e-05
5.70549e-05
5.35032e-05
4.59536e-07
3.5327e-06
7.59421e-06
1.38903e-05
2.39541e-05
3.89715e-05
5.87338e-05
8.11436e-05
0.000102998
0.000121532
0.00013553
0.000145385
0.000152341
0.000157614
0.00016195
0.000165648
0.000168726
0.000171059
0.000172436
0.000172553
0.000170963
0.000166898
0.000159001
0.000145087
0.000122485
9.05562e-05
5.58708e-05
3.21375e-05
2.82274e-05
3.79457e-05
4.9844e-05
5.76228e-05
6.00453e-05
5.82457e-05
5.33252e-05
6.3525e-07
5.26369e-06
1.15623e-05
2.11587e-05
3.50237e-05
5.25926e-05
7.15059e-05
8.87433e-05
0.000102419
0.000112639
0.000120812
0.000128344
0.000135896
0.000143454
0.000150694
0.000157264
0.000162885
0.000167337
0.000170424
0.000171934
0.000171577
0.000168836
0.000162786
0.000151911
0.000134092
0.000107525
7.42255e-05
4.43484e-05
3.14478e-05
3.66632e-05
4.87247e-05
5.79392e-05
6.11369e-05
5.91342e-05
5.24774e-05
6.53097e-07
6.60998e-06
1.38875e-05
2.37048e-05
3.59927e-05
4.93061e-05
6.17078e-05
7.22631e-05
8.16686e-05
9.13876e-05
0.000102355
0.000114462
0.000126891
0.000138772
0.000149545
0.000158932
0.000166778
0.000172949
0.000177303
0.000179686
0.000179887
0.00017754
0.000172013
0.000162296
0.000146996
0.000124506
9.44338e-05
6.19934e-05
4.01586e-05
3.76446e-05
4.75865e-05
5.78415e-05
6.20087e-05
6.0095e-05
5.24777e-05
4.72321e-07
6.34965e-06
1.27578e-05
2.0237e-05
2.8528e-05
3.69883e-05
4.53934e-05
5.44043e-05
6.51101e-05
7.813e-05
9.31049e-05
0.000108918
0.000124341
0.000138558
0.000151231
0.000162269
0.000171625
0.000179209
0.000184887
0.000188504
0.000189828
0.000188492
0.000183887
0.000175133
0.000161259
0.000141306
0.000114687
8.31035e-05
5.51783e-05
4.32148e-05
4.75683e-05
5.74411e-05
6.27175e-05
6.16889e-05
5.4858e-05
7.10657e-07
5.46595e-06
1.04674e-05
1.58762e-05
2.18089e-05
2.85611e-05
3.67956e-05
4.73259e-05
6.05734e-05
7.61697e-05
9.30428e-05
0.000109897
0.00012572
0.00014
0.000152624
0.000163645
0.000173113
0.000181018
0.000187284
0.000191817
0.000194428
0.000194747
0.000192118
0.000185538
0.000173867
0.000156304
0.000132626
0.000103536
7.39734e-05
5.46296e-05
5.11892e-05
5.81541e-05
6.38933e-05
6.43746e-05
6.03131e-05
1.03293e-06
5.21608e-06
9.78082e-06
1.51196e-05
2.18048e-05
3.05368e-05
4.19024e-05
5.59964e-05
7.21911e-05
8.92922e-05
0.000106016
0.000121454
0.000135243
0.000147412
0.000158128
0.000167516
0.000175599
0.00018233
0.000187625
0.00019143
0.000193662
0.000194089
0.000192208
0.000187198
0.000178088
0.000164023
0.000144382
0.000119301
9.1893e-05
6.94047e-05
5.92789e-05
6.15656e-05
6.65307e-05
6.86481e-05
6.89344e-05
1.36194e-06
6.36957e-06
1.23746e-05
2.01669e-05
3.03836e-05
4.32891e-05
5.853e-05
7.5126e-05
9.17931e-05
0.000107437
0.000121508
0.000134012
0.000145247
0.000155496
0.000164872
0.000173295
0.000180544
0.000186372
0.000190552
0.000192947
0.000193494
0.000192032
0.000188141
0.000181304
0.000171475
0.000159017
0.000143605
0.000124427
0.000102649
8.18552e-05
6.89288e-05
6.73952e-05
7.09993e-05
7.43302e-05
7.78061e-05
1.8645e-06
9.03622e-06
1.77876e-05
2.88195e-05
4.21241e-05
5.70544e-05
7.25589e-05
8.76075e-05
0.000101584
0.000114417
0.000126395
0.00013786
0.000148989
0.000159727
0.000169821
0.000178893
0.000186503
0.000192251
0.0001958
0.000196914
0.000195477
0.000191219
0.000183536
0.000172181
0.000158689
0.000145612
0.000133463
0.000120814
0.000105961
8.97653e-05
7.78822e-05
7.47941e-05
7.69941e-05
7.94712e-05
8.02438e-05
2.57952e-06
1.18628e-05
2.25585e-05
3.48456e-05
4.82342e-05
6.20191e-05
7.56679e-05
8.90015e-05
0.000102112
0.000115133
0.000128077
0.000140816
0.000153126
0.000164731
0.000175312
0.000184505
0.0001919
0.000197082
0.000199647
0.000199227
0.000195508
0.000187852
0.000175277
0.000158163
0.00014074
0.000128609
0.00012264
0.000118454
0.000110287
9.84341e-05
8.80015e-05
8.32629e-05
8.23938e-05
8.0633e-05
7.35843e-05
3.26736e-06
1.36024e-05
2.48989e-05
3.7147e-05
5.01095e-05
6.36263e-05
7.76248e-05
9.19702e-05
0.000106389
0.000120526
0.000134083
0.000146877
0.000158803
0.000169766
0.000179616
0.000188108
0.000194879
0.000199479
0.00020138
0.000199998
0.000194691
0.000184387
0.000167699
0.000145286
0.000123493
0.000111883
0.000113346
0.000117895
0.000115945
0.000107729
9.8084e-05
9.0984e-05
8.57301e-05
7.81838e-05
6.41719e-05
3.7003e-06
1.46798e-05
2.65569e-05
3.94145e-05
5.31793e-05
6.76651e-05
8.25092e-05
9.72493e-05
0.000111497
0.000125053
0.000137884
0.000150006
0.00016141
0.000172016
0.000181665
0.00019011
0.000196988
0.000201859
0.000204177
0.000203241
0.000198232
0.000187893
0.000170372
0.00014491
0.000116423
9.74625e-05
9.89039e-05
0.000111564
0.000118111
0.000114518
0.00010572
9.65413e-05
8.74736e-05
7.55027e-05
5.83003e-05
3.85991e-06
1.56147e-05
2.82763e-05
4.18627e-05
5.61343e-05
7.072e-05
8.52364e-05
9.94183e-05
0.000113156
0.000126428
0.000139216
0.000151462
0.000163062
0.000173877
0.000183733
0.000192412
0.000199623
0.000205009
0.000208103
0.000208331
0.000204955
0.000196851
0.000182169
0.000158717
0.000126907
9.56606e-05
8.20611e-05
9.25407e-05
0.000109129
0.000115242
0.00011043
0.000100999
8.97212e-05
7.53298e-05
5.74173e-05
3.81959e-06
1.62776e-05
2.94758e-05
4.33349e-05
5.75784e-05
7.19253e-05
8.61813e-05
0.000100238
0.00011403
0.000127494
0.000140551
0.000153105
0.000165038
0.000176203
0.00018643
0.000195517
0.000203201
0.00020918
0.000213092
0.000214558
0.000213074
0.000207828
0.000197464
0.000179896
0.000152806
0.000117247
8.4594e-05
7.39083e-05
8.636e-05
0.000103072
0.000108475
0.000103559
9.31763e-05
7.83561e-05
6.09267e-05
3.69432e-06
1.67208e-05
3.02215e-05
4.411e-05
5.81969e-05
7.23535e-05
8.65043e-05
0.000100591
0.000114551
0.000128302
0.00014175
0.000154777
0.000167246
0.000179
0.000189863
0.000199641
0.000208095
0.000214964
0.000219897
0.000222646
0.000222883
0.000220045
0.000213218
0.000200999
0.000181325
0.000151998
0.000114638
8.21001e-05
7.14677e-05
8.24528e-05
9.64865e-05
0.000100309
9.49644e-05
8.28551e-05
6.77408e-05
3.58242e-06
1.6931e-05
3.04963e-05
4.4266e-05
5.82076e-05
7.23205e-05
8.65854e-05
0.000100939
0.000115276
0.000129467
0.000143373
0.000156855
0.000169766
0.000181958
0.000193278
0.000203567
0.000212629
0.000220253
0.00022618
0.000230283
0.000232318
0.000231786
0.000228018
0.000219948
0.000206052
0.000184318
0.000152993
0.000115044
8.42989e-05
7.40904e-05
8.27635e-05
9.24277e-05
9.36294e-05
8.6723e-05
7.5906e-05
3.58343e-06
1.71834e-05
3.09078e-05
4.48645e-05
5.91112e-05
7.36579e-05
8.84363e-05
0.000103314
0.00011813
0.000132727
0.000146959
0.000160693
0.000173797
0.000186139
0.000197587
0.000208014
0.000217263
0.000225168
0.000231551
0.000236382
0.000239575
0.000240912
0.000239921
0.000235702
0.000226888
0.000211716
0.000188075
0.000155119
0.000118536
8.96817e-05
8.12828e-05
8.73625e-05
9.1932e-05
9.00133e-05
8.40655e-05
3.78134e-06
1.78334e-05
3.20152e-05
4.65008e-05
6.13338e-05
7.64689e-05
9.17816e-05
0.000107105
0.000122268
0.000137117
0.000151516
0.000165335
0.000178446
0.00019072
0.000202034
0.000212277
0.000221323
0.000229043
0.000235335
0.00024027
0.000243895
0.000246182
0.000246904
0.000245588
0.000241266
0.000232217
0.000215969
0.000190805
0.000157376
0.000121019
9.62711e-05
9.1077e-05
9.36107e-05
9.39926e-05
9.13381e-05
4.22253e-06
1.88932e-05
3.36634e-05
4.87618e-05
6.42367e-05
8.0018e-05
9.5942e-05
0.000111805
0.000127411
0.000142595
0.000157209
0.000171115
0.000184169
0.000196227
0.00020715
0.000216825
0.000225142
0.000231998
0.000237356
0.000241392
0.000244304
0.000246335
0.000247672
0.000248439
0.000248179
0.00024513
0.000236446
0.000219555
0.000192259
0.000155929
0.000121908
0.000104493
0.000101037
0.000100073
9.70049e-05
4.88995e-06
2.01432e-05
3.55539e-05
5.14395e-05
6.78225e-05
8.45273e-05
0.000101276
0.0001178
0.000133888
0.000149392
0.000164182
0.000178122
0.000191056
0.000202813
0.00021322
0.000222127
0.00022941
0.000234956
0.000238745
0.000241007
0.000242035
0.00024232
0.000242629
0.000244146
0.00024744
0.000250794
0.000250389
0.000241601
0.000220231
0.000186202
0.000148417
0.000122516
0.000112651
0.000107649
9.94726e-05
5.72968e-06
2.16197e-05
3.78913e-05
5.48291e-05
7.22572e-05
8.98134e-05
0.000107149
0.000124029
0.000140319
0.000155927
0.000170746
0.000184628
0.000197382
0.00020879
0.000218621
0.000226662
0.00023274
0.000236706
0.000238514
0.000238369
0.000236567
0.000233768
0.000231555
0.000232854
0.000239842
0.000250613
0.000259222
0.000257749
0.000240895
0.000208648
0.000169433
0.00013895
0.000123726
0.000113024
9.63951e-05
6.6134e-06
2.3283e-05
4.04737e-05
5.82771e-05
7.63312e-05
9.42496e-05
0.000111781
0.0001288
0.000145237
0.000161006
0.000175976
0.000189953
0.000202697
0.000213932
0.000223367
0.000230718
0.000235725
0.000238172
0.000237945
0.000235114
0.000229816
0.00022268
0.000216152
0.000215426
0.000225231
0.000243814
0.000261165
0.000265893
0.00025252
0.000222065
0.000183333
0.000151202
0.000131072
0.000113707
8.91027e-05
7.32517e-06
2.46091e-05
4.23906e-05
6.06171e-05
7.89324e-05
9.70572e-05
0.000114829
0.00013215
0.000148936
0.000165072
0.000180391
0.000194665
0.000207617
0.000218931
0.000228273
0.000235306
0.0002397
0.000241139
0.000239415
0.000234407
0.000225942
0.000214303
0.00020202
0.000195859
0.000204167
0.000227936
0.000253092
0.00026444
0.000255768
0.000228839
0.000192464
0.000160184
0.000135564
0.000111914
8.2534e-05
7.75498e-06
2.53858e-05
4.35017e-05
6.20016e-05
8.05783e-05
9.90028e-05
0.000117125
0.000134842
0.000152063
0.000168668
0.000184476
0.000199233
0.000212627
0.000224306
0.000233901
0.000241036
0.000245342
0.000246446
0.000244073
0.000237972
0.000227725
0.000213002
0.000195211
0.000180547
0.000180164
0.000201714
0.000232456
0.000252445
0.000251725
0.000231218
0.000199173
0.000167677
0.000139708
0.000111404
8.00153e-05
7.96114e-06
2.58588e-05
4.42467e-05
6.2994e-05
8.18126e-05
0.000100503
0.00011894
0.000137043
0.000154737
0.000171908
0.000188362
0.000203823
0.000217941
0.000230326
0.000240568
0.000248256
0.000252992
0.000254403
0.000252197
0.000246073
0.000235517
0.000219828
0.000199039
0.000176662
0.000162944
0.000171798
0.000200686
0.000229011
0.000239526
0.000228713
0.000203252
0.000174091
0.000144654
0.000113763
8.18778e-05
8.05936e-06
2.62278e-05
4.48276e-05
6.37319e-05
8.27071e-05
0.000101609
0.000120344
0.000138848
0.000157059
0.000174868
0.000192075
0.000208385
0.00022342
0.000236755
0.000247941
0.000256534
0.000262107
0.000264325
0.000262879
0.000257504
0.000247726
0.000232762
0.000211846
0.000185929
0.000161338
0.000152198
0.000167987
0.000197083
0.000218167
0.000219369
0.000202944
0.000178525
0.000150214
0.000118775
8.72866e-05
8.16311e-06
2.65542e-05
4.53106e-05
6.43738e-05
8.35688e-05
0.000102766
0.000121875
0.000140838
0.000159611
0.000178096
0.000196097
0.000213303
0.000229312
0.000243662
0.000255869
0.000265454
0.000271965
0.0002751
0.000274577
0.000270117
0.000261355
0.000247598
0.0002279
0.000201953
0.000172645
0.000149988
0.000148093
0.000167286
0.000191894
0.000203638
0.000197426
0.000179662
0.000154901
0.000124844
9.4669e-05
8.34847e-06
2.69525e-05
4.59698e-05
6.53775e-05
8.49586e-05
0.000104542
0.000124046
0.00014346
0.000162792
0.000181976
0.000200818
0.000218989
0.000236052
0.000251497
0.000264788
0.000275393
0.000282856
0.000286859
0.000287114
0.000283425
0.000275453
0.000262613
0.000243992
0.000218882
0.000188545
0.000159421
0.000144444
0.000149503
0.000168889
0.000185712
0.000188222
0.000177606
0.000157817
0.000130582
0.000102382
8.72022e-06
2.77565e-05
4.72815e-05
6.72004e-05
8.71924e-05
0.000107079
0.000126859
0.000146628
0.000166465
0.000186335
0.000206038
0.000225215
0.000243385
0.000259983
0.000274406
0.000286058
0.000294468
0.000299272
0.00030015
0.000296911
0.000289293
0.000276774
0.000258435
0.000233488
0.000202736
0.000171197
0.000149823
0.000144482
0.000155217
0.000171036
0.000178572
0.00017376
0.000158849
0.000134805
0.000108364
9.26002e-06
2.88909e-05
4.9023e-05
6.94186e-05
8.96883e-05
0.000109724
0.000129663
0.000149722
0.000170046
0.00019061
0.000211198
0.000231416
0.000250733
0.000268527
0.00028413
0.000296875
0.000306265
0.000311866
0.000313304
0.000310371
0.000302815
0.000290122
0.000271357
0.000245561
0.000213463
0.000180145
0.000156142
0.000145917
0.00015023
0.000162527
0.000171458
0.000170119
0.000158764
0.000137048
0.000111158
9.92805e-06
3.02883e-05
5.10508e-05
7.18125e-05
9.21949e-05
0.000112237
0.000132242
0.000152543
0.000173329
0.000194574
0.000216035
0.00023728
0.00025773
0.000276709
0.000293483
0.000307367
0.000317789
0.000324229
0.000326249
0.000323611
0.000316054
0.000303041
0.000283532
0.000256352
0.000222054
0.000186192
0.000160266
0.000148303
0.000149716
0.000159103
0.000167551
0.000167577
0.000158075
0.000137302
0.000110662
1.06193e-05
3.16573e-05
5.28384e-05
7.36758e-05
9.39335e-05
0.000113847
0.000133866
0.000154396
0.000175644
0.000197575
0.000219917
0.000242203
0.000263812
0.000284015
0.000302014
0.00031711
0.000328654
0.000336043
0.000338771
0.000336567
0.00032915
0.000315967
0.000295898
0.000267492
0.000230894
0.000191704
0.000162711
0.000149289
0.00014997
0.000158147
0.000165865
0.000166066
0.000157101
0.000136227
0.000108365
1.11868e-05
3.25838e-05
5.38409e-05
7.45269e-05
9.45906e-05
0.000114395
0.000134457
0.000155219
0.00017691
0.000199498
0.000222706
0.000246041
0.000268843
0.000290331
0.000309654
0.000326092
0.000338918
0.000347451
0.000351125
0.000349635
0.000342689
0.000329751
0.000309704
0.000280918
0.000242849
0.000200239
0.000166259
0.000149131
0.000148843
0.000157051
0.000164716
0.000164932
0.000156011
0.000134783
0.000106097
1.15613e-05
3.30028e-05
5.418e-05
7.47497e-05
9.47268e-05
0.000114482
0.000134566
0.000155489
0.000177546
0.00020075
0.000224831
0.00024927
0.00027335
0.00029622
0.000317003
0.000334908
0.000349137
0.000358951
0.000363745
0.000363196
0.00035702
0.00034473
0.000325303
0.000297091
0.000258903
0.000213922
0.00017401
0.000149985
0.000146098
0.000154207
0.000162726
0.000163573
0.000154989
0.000133785
0.000104986
1.17719e-05
3.31504e-05
5.42996e-05
7.48772e-05
9.48183e-05
0.000114446
0.000134378
0.000155259
0.000177517
0.000201251
0.000226221
0.000251874
0.000277415
0.000301892
0.000324369
0.000343964
0.000359797
0.000371075
0.000377164
0.000377742
0.000372547
0.000361176
0.000342761
0.000315796
0.000278757
0.000233181
0.000188234
0.000155299
0.000143819
0.000149572
0.000159066
0.000161347
0.000153834
0.000133337
0.000105028
1.19245e-05
3.33456e-05
5.46605e-05
7.54139e-05
9.53625e-05
0.00011477
0.000134367
0.000154986
0.00017723
0.000201326
0.000227091
0.000253956
0.00028105
0.000307307
0.000331713
0.00035326
0.00037096
0.000383945
0.000391539
0.000393416
0.000389342
0.00037899
0.000361663
0.000336095
0.000300804
0.000256201
0.000208389
0.000167149
0.000145238
0.000144962
0.000154002
0.000157928
0.000152072
0.000132874
0.000105406
1.21332e-05
3.39066e-05
5.57072e-05
7.68442e-05
9.68405e-05
0.000115939
0.000135041
0.000155208
0.000177234
0.000201483
0.000227844
0.000255753
0.000284285
0.000312286
0.000338671
0.000362308
0.000382087
0.000397042
0.000406427
0.000409879
0.00040716
0.000397984
0.000381786
0.00035754
0.000323989
0.000281095
0.000232349
0.000185026
0.00015237
0.0001428
0.000148663
0.000153451
0.00014927
0.00013159
0.000104966
1.24938e-05
3.50887e-05
5.7678e-05
7.92563e-05
9.91723e-05
0.000117772
0.000136213
0.000155798
0.000177499
0.000201794
0.00022862
0.000257405
0.00028718
0.000316732
0.000344934
0.000370572
0.000392444
0.000409494
0.000420895
0.000426219
0.000425179
0.000417478
0.000402609
0.000379723
0.000347825
0.000306862
0.00025827
0.000207094
0.000165191
0.000144738
0.000144435
0.000148462
0.000145341
0.000128969
0.000102923
1.29917e-05
3.67389e-05
6.01642e-05
8.20108e-05
0.000101599
0.000119484
0.000137107
0.000155998
0.000177291
0.000201564
0.00022878
0.000258335
0.000289203
0.000320131
0.000349948
0.000377407
0.000401271
0.00042042
0.000433963
0.000441403
0.000442387
0.000436567
0.000423442
0.000402274
0.000372281
0.000333356
0.000285698
0.000232417
0.00018327
0.000151786
0.000142736
0.000143878
0.000140761
0.000125251
9.94005e-05
1.35125e-05
3.84242e-05
6.25717e-05
8.45482e-05
0.000103687
0.000120742
0.000137395
0.000155396
0.000176067
0.000200118
0.000227561
0.000257752
0.000289589
0.000321766
0.000353057
0.000382198
0.000407954
0.000429171
0.000444912
0.000454635
0.000457927
0.000454392
0.00044352
0.000424658
0.000397198
0.000360789
0.000314916
0.000261094
0.000206915
0.000165376
0.000145809
0.00014163
0.000136985
0.000121588
9.53534e-05
1.40281e-05
4.00735e-05
6.49561e-05
8.71097e-05
0.000105813
0.000121973
0.000137494
0.00015434
0.000174056
0.000197543
0.000224905
0.000255482
0.000288097
0.000321372
0.000354013
0.00038473
0.000412304
0.000435551
0.00045351
0.00046561
0.000471403
0.00047046
0.000462278
0.000446283
0.000421951
0.000388568
0.000345216
0.000292589
0.000235835
0.000186425
0.000156141
0.000144418
0.000136283
0.000119665
9.18994e-05
1.45908e-05
4.18625e-05
6.76002e-05
9.00086e-05
0.000108282
0.000123502
0.000137791
0.000153303
0.000171804
0.000194401
0.000221325
0.000251936
0.000285009
0.000319101
0.000352864
0.000384979
0.000414233
0.000439427
0.000459581
0.000474105
0.000482528
0.000484406
0.000479249
0.000466535
0.000445687
0.000415711
0.000375534
0.000325249
0.000268245
0.00021382
0.000174293
0.000153919
0.000140426
0.000120735
8.97164e-05
1.52634e-05
4.38891e-05
7.05602e-05
9.32184e-05
0.000111022
0.000125291
0.000138358
0.000152536
0.000169776
0.000191369
0.000217649
0.000248001
0.000281178
0.000315704
0.000350219
0.0003834
0.000414025
0.000440921
0.000463089
0.000479928
0.000490959
0.000495731
0.000493761
0.000484518
0.000467251
0.000440815
0.000404082
0.000356771
0.000301166
0.0002444
0.000198113
0.000169604
0.000149683
0.000125113
8.89836e-05
1.61146e-05
4.61515e-05
7.3741e-05
9.65682e-05
0.000113824
0.00012712
0.000139004
0.000151918
0.000167985
0.000188651
0.000214315
0.000244337
0.000277429
0.000312101
0.000347016
0.000380879
0.000412485
0.000440709
0.000464553
0.000483428
0.000496859
0.000504398
0.000505554
0.000499705
0.000485889
0.000462867
0.000429488
0.000385257
0.000331661
0.00027451
0.000223985
0.00018894
0.000162564
0.000131961
8.94646e-05
1.71685e-05
4.85863e-05
7.69866e-05
9.9812e-05
0.000116395
0.000128688
0.0001394
0.000151071
0.000165967
0.000185706
0.000210748
0.000240415
0.000273349
0.000308032
0.000343155
0.00037746
0.000409772
0.000439033
0.000464264
0.000484899
0.000500485
0.000510585
0.000514674
0.000511974
0.000501337
0.000481452
0.000451142
0.000409789
0.000358387
0.000301728
0.000248947
0.000209159
0.000177012
0.000140078