/*--------------------------------*- C++ -*----------------------------------*\
| =========                 |                                                 |
| \\      /  F ield         | OpenFOAM: The Open Source CFD Toolbox           |
|  \\    /   O peration     | Version:  v1906                                 |
|   \\  /    A nd           | Web:      www.OpenFOAM.com                      |
|    \\/     M anipulation  |                                                 |
\*---------------------------------------------------------------------------*/
FoamFile
{
    version     2.0;
    format      ascii;
    class       volScalarField;
    location    "30";
    object      T;
}
// * * * * * * * * * * * * * * * * * * * * * * * * * * * * * * * * * * * * * //

dimensions      [0 0 0 1 0 0 0];


internalField   nonuniform List<scalar> 
78750
(
299.515
299.023
298.952
298.926
298.911
298.901
298.892
298.885
298.878
298.872
298.865
298.859
298.853
298.847
298.841
298.835
298.829
298.823
298.817
298.811
298.805
298.798
298.791
298.784
298.776
298.767
298.758
298.748
298.737
298.73
298.743
298.829
299.094
299.662
300.553
299.796
299.461
299.24
299.115
299.05
299.014
298.993
298.979
298.969
298.961
298.954
298.947
298.94
298.933
298.926
298.92
298.913
298.906
298.899
298.892
298.884
298.875
298.866
298.857
298.847
298.838
298.829
298.822
298.822
298.837
298.891
299.032
299.333
299.86
300.682
299.835
299.539
299.313
299.156
299.057
299.004
298.979
298.968
298.961
298.957
298.954
298.951
298.949
298.947
298.945
298.943
298.942
298.94
298.939
298.938
298.937
298.937
298.937
298.938
298.94
298.946
298.956
298.974
299.007
299.069
299.186
299.395
299.732
300.261
301.086
299.855
299.596
299.405
299.264
299.155
299.077
299.024
298.988
298.962
298.942
298.927
298.915
298.906
298.9
298.895
298.893
298.891
298.891
298.893
298.895
298.898
298.903
298.909
298.918
298.929
298.944
298.966
298.997
299.047
299.132
299.279
299.524
299.894
300.445
301.283
299.881
299.656
299.477
299.338
299.221
299.122
299.042
298.979
298.93
298.895
298.871
298.856
298.849
298.848
298.851
298.856
298.863
298.87
298.876
298.882
298.886
298.892
298.898
298.908
298.924
298.95
298.989
299.049
299.137
299.267
299.461
299.747
300.135
300.696
301.551
299.893
299.685
299.514
299.377
299.259
299.158
299.075
299.012
298.97
298.947
298.943
298.953
298.973
298.999
299.027
299.054
299.076
299.094
299.105
299.109
299.106
299.096
299.079
299.058
299.037
299.022
299.026
299.062
299.144
299.289
299.513
299.837
300.262
300.853
301.722
299.906
299.72
299.563
299.433
299.323
299.228
299.152
299.1
299.074
299.075
299.097
299.134
299.178
299.222
299.263
299.297
299.326
299.348
299.363
299.373
299.375
299.371
299.36
299.34
299.313
299.281
299.253
299.247
299.288
299.407
299.627
299.966
300.415
301.03
301.911
299.914
299.744
299.597
299.474
299.368
299.281
299.217
299.18
299.173
299.188
299.22
299.258
299.296
299.33
299.359
299.383
299.403
299.419
299.431
299.44
299.446
299.448
299.446
299.44
299.43
299.416
299.401
299.397
299.426
299.523
299.726
300.062
300.526
301.16
302.049
299.921
299.764
299.625
299.508
299.408
299.329
299.277
299.254
299.258
299.281
299.314
299.349
299.384
299.414
299.44
299.463
299.482
299.498
299.51
299.519
299.524
299.527
299.526
299.523
299.517
299.509
299.502
299.507
299.541
299.638
299.839
300.177
300.65
301.298
302.193
299.926
299.777
299.644
299.532
299.44
299.371
299.332
299.321
299.333
299.36
299.394
299.429
299.462
299.491
299.516
299.538
299.557
299.573
299.586
299.596
299.604
299.608
299.61
299.61
299.607
299.603
299.601
299.609
299.645
299.739
299.934
300.27
300.75
301.408
302.309
299.932
299.795
299.671
299.567
299.483
299.422
299.389
299.382
299.395
299.42
299.451
299.484
299.514
299.542
299.566
299.588
299.607
299.624
299.638
299.65
299.659
299.666
299.672
299.676
299.679
299.682
299.689
299.707
299.753
299.854
300.052
300.39
300.874
301.538
302.446
299.94
299.817
299.705
299.61
299.534
299.48
299.451
299.444
299.455
299.478
299.506
299.536
299.564
299.59
299.613
299.634
299.653
299.67
299.685
299.697
299.708
299.718
299.726
299.734
299.742
299.753
299.769
299.798
299.856
299.967
300.172
300.515
301.003
301.672
302.587
299.948
299.841
299.742
299.658
299.591
299.543
299.516
299.508
299.515
299.533
299.557
299.582
299.607
299.63
299.65
299.67
299.687
299.703
299.718
299.732
299.744
299.756
299.767
299.779
299.793
299.811
299.838
299.882
299.958
300.089
300.312
300.668
301.162
301.835
302.757
299.954
299.859
299.772
299.696
299.636
299.593
299.569
299.562
299.568
299.582
299.602
299.623
299.645
299.665
299.684
299.702
299.718
299.734
299.749
299.763
299.776
299.789
299.803
299.817
299.835
299.86
299.896
299.953
300.046
300.199
300.444
300.817
301.321
301.999
302.924
299.959
299.875
299.797
299.729
299.675
299.636
299.613
299.605
299.608
299.62
299.636
299.654
299.674
299.693
299.71
299.727
299.743
299.759
299.774
299.789
299.803
299.818
299.833
299.851
299.873
299.903
299.948
300.016
300.125
300.3
300.568
300.962
301.476
302.156
303.078
299.965
299.892
299.823
299.763
299.714
299.678
299.657
299.647
299.648
299.657
299.67
299.686
299.704
299.721
299.738
299.753
299.769
299.784
299.798
299.813
299.828
299.843
299.86
299.88
299.905
299.939
299.989
300.065
300.185
300.373
300.66
301.071
301.593
302.272
303.189
299.971
299.909
299.85
299.798
299.756
299.724
299.703
299.693
299.692
299.697
299.708
299.721
299.736
299.751
299.765
299.78
299.794
299.808
299.822
299.836
299.851
299.867
299.884
299.906
299.934
299.971
300.025
300.106
300.232
300.428
300.726
301.147
301.673
302.35
303.262
299.976
299.923
299.872
299.827
299.789
299.761
299.742
299.732
299.73
299.734
299.742
299.753
299.765
299.778
299.79
299.803
299.816
299.829
299.842
299.857
299.872
299.888
299.907
299.931
299.961
300.002
300.059
300.143
300.27
300.469
300.768
301.193
301.721
302.398
303.311
299.98
299.934
299.889
299.848
299.814
299.788
299.77
299.761
299.758
299.76
299.766
299.775
299.785
299.796
299.808
299.819
299.831
299.843
299.857
299.871
299.887
299.905
299.927
299.954
299.989
300.035
300.098
300.186
300.317
300.516
300.816
301.24
301.768
302.447
303.366
299.983
299.943
299.902
299.866
299.834
299.81
299.794
299.784
299.781
299.782
299.786
299.793
299.801
299.81
299.819
299.829
299.839
299.85
299.863
299.876
299.893
299.913
299.938
299.971
300.012
300.065
300.136
300.233
300.372
300.576
300.877
301.302
301.83
302.514
303.446
299.986
299.951
299.916
299.883
299.855
299.833
299.817
299.807
299.802
299.802
299.804
299.808
299.813
299.819
299.825
299.832
299.839
299.848
299.858
299.871
299.887
299.91
299.939
299.978
300.028
300.092
300.174
300.284
300.435
300.65
300.959
301.389
301.922
302.614
303.558
299.989
299.959
299.929
299.9
299.875
299.854
299.839
299.829
299.822
299.82
299.819
299.82
299.822
299.824
299.827
299.83
299.834
299.84
299.848
299.858
299.873
299.895
299.927
299.971
300.031
300.108
300.206
300.333
300.503
300.736
301.06
301.5
302.04
302.742
303.696
299.991
299.968
299.942
299.917
299.894
299.875
299.86
299.849
299.841
299.836
299.834
299.832
299.832
299.834
299.836
299.839
299.843
299.847
299.852
299.858
299.868
299.884
299.912
299.955
300.021
300.11
300.225
300.373
300.565
300.822
301.167
301.623
302.173
302.881
303.837
299.994
299.975
299.954
299.932
299.912
299.894
299.88
299.868
299.859
299.854
299.851
299.852
299.856
299.861
299.868
299.875
299.882
299.887
299.892
299.895
299.899
299.905
299.92
299.95
300.007
300.099
300.228
300.398
300.615
300.897
301.267
301.74
302.299
303.009
303.958
299.996
299.982
299.964
299.945
299.926
299.909
299.895
299.884
299.877
299.875
299.878
299.886
299.897
299.911
299.924
299.936
299.947
299.955
299.961
299.965
299.966
299.966
299.969
299.98
300.014
300.089
300.218
300.402
300.642
300.95
301.342
301.831
302.396
303.104
304.04
299.998
299.986
299.97
299.952
299.933
299.917
299.904
299.897
299.897
299.904
299.917
299.934
299.953
299.971
299.987
300
300.012
300.022
300.029
300.035
300.038
300.039
300.04
300.043
300.059
300.108
300.216
300.397
300.651
300.98
301.392
301.893
302.461
303.162
304.086
299.998
299.988
299.971
299.952
299.934
299.919
299.911
299.913
299.925
299.942
299.963
299.983
300.001
300.016
300.028
300.039
300.049
300.058
300.067
300.075
300.083
300.09
300.097
300.105
300.119
300.155
300.24
300.403
300.656
300.996
301.422
301.931
302.498
303.192
304.105
299.998
299.987
299.97
299.951
299.934
299.925
299.927
299.938
299.956
299.975
299.992
300.006
300.017
300.026
300.034
300.043
300.051
300.06
300.07
300.082
300.094
300.108
300.123
300.141
300.163
300.2
300.273
300.417
300.659
301.002
301.437
301.951
302.518
303.207
304.116
299.998
299.986
299.971
299.955
299.944
299.94
299.946
299.957
299.971
299.984
299.994
300.003
300.01
300.018
300.025
300.033
300.042
300.053
300.064
300.078
300.093
300.111
300.131
300.156
300.185
300.224
300.29
300.415
300.636
300.974
301.417
301.942
302.515
303.206
304.118
299.998
299.989
299.977
299.966
299.959
299.958
299.962
299.969
299.978
299.987
299.996
300.005
300.015
300.024
300.034
300.044
300.055
300.066
300.078
300.091
300.106
300.124
300.145
300.171
300.202
300.241
300.298
300.4
300.591
300.907
301.352
301.897
302.485
303.187
304.109
300
299.995
299.987
299.981
299.977
299.977
299.981
299.987
299.995
300.005
300.015
300.026
300.037
300.048
300.059
300.07
300.081
300.093
300.106
300.119
300.135
300.153
300.174
300.2
300.232
300.269
300.318
300.397
300.549
300.826
301.256
301.817
302.43
303.153
304.092
300.003
300.002
300
299.998
299.998
300.001
300.006
300.013
300.021
300.031
300.04
300.05
300.06
300.07
300.079
300.09
300.1
300.112
300.125
300.141
300.158
300.179
300.206
300.238
300.276
300.318
300.365
300.429
300.546
300.775
301.169
301.729
302.364
303.112
304.07
300.005
300.01
300.013
300.015
300.018
300.023
300.029
300.036
300.043
300.051
300.059
300.067
300.076
300.084
300.093
300.103
300.114
300.126
300.141
300.158
300.178
300.205
300.238
300.282
300.334
300.39
300.445
300.508
300.608
300.803
301.158
301.698
302.335
303.096
304.074
300.008
300.017
300.023
300.027
300.032
300.037
300.043
300.05
300.057
300.065
300.073
300.081
300.09
300.1
300.11
300.12
300.132
300.146
300.162
300.181
300.206
300.24
300.286
300.348
300.424
300.501
300.573
300.646
300.752
300.945
301.288
301.807
302.428
303.187
304.178
300.009
300.021
300.029
300.035
300.041
300.047
300.054
300.061
300.07
300.079
300.089
300.099
300.109
300.12
300.13
300.142
300.154
300.168
300.185
300.206
300.235
300.277
300.339
300.43
300.541
300.654
300.753
300.85
300.981
301.197
301.547
302.039
302.638
303.397
304.382
300.01
300.024
300.034
300.042
300.049
300.057
300.066
300.076
300.086
300.097
300.108
300.119
300.13
300.141
300.152
300.163
300.175
300.188
300.204
300.225
300.254
300.3
300.374
300.489
300.642
300.806
300.954
301.091
301.257
301.499
301.853
302.311
302.883
303.641
304.611
300.011
300.027
300.039
300.049
300.059
300.069
300.079
300.09
300.102
300.113
300.125
300.137
300.148
300.16
300.171
300.183
300.194
300.207
300.221
300.238
300.263
300.302
300.369
300.485
300.661
300.881
301.102
301.302
301.507
301.768
302.117
302.548
303.097
303.845
304.796
300.013
300.03
300.044
300.056
300.068
300.079
300.091
300.103
300.116
300.129
300.142
300.154
300.167
300.179
300.191
300.203
300.215
300.227
300.239
300.254
300.272
300.299
300.345
300.43
300.582
300.815
301.103
301.395
301.667
301.954
302.299
302.711
303.24
303.971
304.905
300.014
300.034
300.05
300.063
300.076
300.09
300.103
300.117
300.131
300.145
300.159
300.173
300.186
300.199
300.211
300.223
300.235
300.247
300.26
300.273
300.287
300.306
300.334
300.383
300.478
300.655
300.935
301.292
301.664
302.024
302.394
302.801
303.314
304.027
304.95
300.015
300.037
300.054
300.07
300.085
300.099
300.114
300.13
300.145
300.161
300.176
300.19
300.204
300.218
300.231
300.244
300.256
300.269
300.282
300.295
300.309
300.325
300.344
300.373
300.423
300.524
300.718
301.039
301.462
301.92
302.371
302.818
303.337
304.037
304.951
300.016
300.039
300.059
300.076
300.092
300.109
300.126
300.143
300.16
300.176
300.192
300.207
300.222
300.237
300.25
300.264
300.278
300.291
300.305
300.32
300.335
300.351
300.369
300.391
300.422
300.476
300.586
300.803
301.17
301.664
302.209
302.745
303.306
304.006
304.913
300.016
300.042
300.063
300.083
300.101
300.12
300.138
300.157
300.175
300.193
300.209
300.226
300.241
300.256
300.27
300.285
300.299
300.314
300.329
300.345
300.362
300.38
300.401
300.424
300.45
300.486
300.548
300.677
300.934
301.369
301.951
302.583
303.207
303.92
304.828
300.017
300.045
300.069
300.09
300.111
300.132
300.152
300.172
300.191
300.21
300.227
300.244
300.26
300.275
300.29
300.305
300.321
300.336
300.353
300.371
300.39
300.412
300.437
300.465
300.495
300.528
300.573
300.653
300.822
301.154
301.691
302.368
303.044
303.779
304.693
300.019
300.049
300.075
300.099
300.122
300.145
300.166
300.187
300.207
300.226
300.245
300.262
300.278
300.294
300.31
300.326
300.342
300.359
300.377
300.397
300.42
300.447
300.479
300.515
300.554
300.593
300.636
300.699
300.819
301.067
301.52
302.171
302.858
303.607
304.532
300.02
300.053
300.081
300.108
300.133
300.158
300.181
300.203
300.224
300.244
300.262
300.28
300.297
300.314
300.331
300.347
300.364
300.383
300.403
300.426
300.453
300.487
300.529
300.577
300.629
300.68
300.729
300.79
300.893
301.097
301.483
302.073
302.728
303.469
304.416
300.021
300.057
300.088
300.117
300.145
300.171
300.196
300.219
300.24
300.261
300.28
300.299
300.316
300.334
300.351
300.368
300.386
300.406
300.428
300.454
300.487
300.53
300.586
300.653
300.724
300.792
300.855
300.925
301.031
301.226
301.576
302.106
302.719
303.458
304.438
300.023
300.061
300.095
300.127
300.156
300.183
300.209
300.233
300.255
300.276
300.296
300.315
300.333
300.351
300.368
300.386
300.405
300.425
300.449
300.478
300.516
300.569
300.641
300.731
300.829
300.922
301.007
301.098
301.224
301.432
301.772
302.254
302.839
303.595
304.601
300.024
300.065
300.101
300.134
300.165
300.194
300.22
300.245
300.268
300.29
300.311
300.33
300.349
300.367
300.384
300.402
300.421
300.442
300.466
300.495
300.536
300.594
300.678
300.79
300.92
301.049
301.169
301.292
301.448
301.677
302.016
302.462
303.026
303.801
304.814
300.025
300.068
300.106
300.141
300.173
300.203
300.231
300.257
300.281
300.303
300.325
300.345
300.364
300.382
300.4
300.418
300.437
300.457
300.479
300.507
300.545
300.6
300.684
300.805
300.961
301.132
301.3
301.466
301.656
301.906
302.245
302.668
303.216
303.996
305
300.026
300.071
300.111
300.147
300.181
300.212
300.241
300.269
300.294
300.318
300.34
300.36
300.38
300.399
300.417
300.435
300.453
300.472
300.493
300.518
300.551
300.598
300.671
300.782
300.943
301.144
301.361
301.579
301.811
302.084
302.425
302.834
303.37
304.141
305.13
300.027
300.074
300.115
300.153
300.188
300.222
300.252
300.281
300.307
300.332
300.355
300.377
300.397
300.416
300.435
300.453
300.471
300.49
300.51
300.533
300.561
300.6
300.658
300.749
300.89
301.09
301.336
301.604
301.885
302.192
302.545
302.95
303.476
304.235
305.209
300.028
300.076
300.12
300.159
300.196
300.231
300.263
300.293
300.321
300.346
300.37
300.393
300.414
300.434
300.453
300.472
300.49
300.509
300.529
300.551
300.577
300.611
300.659
300.733
300.848
301.023
301.263
301.557
301.881
302.23
302.608
303.022
303.545
304.292
305.255
300.029
300.079
300.124
300.166
300.205
300.242
300.275
300.307
300.335
300.362
300.387
300.41
300.432
300.453
300.473
300.492
300.511
300.53
300.55
300.571
300.597
300.628
300.672
300.736
300.833
300.981
301.198
301.485
301.831
302.215
302.628
303.06
303.588
304.33
305.284
300.03
300.082
300.13
300.174
300.215
300.254
300.289
300.322
300.352
300.379
300.405
300.43
300.452
300.474
300.495
300.514
300.534
300.553
300.573
300.595
300.62
300.651
300.693
300.754
300.844
300.978
301.173
301.441
301.785
302.188
302.629
303.084
303.621
304.362
305.313
300.031
300.086
300.136
300.183
300.226
300.267
300.304
300.338
300.369
300.397
300.424
300.449
300.473
300.496
300.517
300.537
300.557
300.577
300.598
300.62
300.645
300.677
300.719
300.78
300.871
301.004
301.191
301.447
301.779
302.186
302.643
303.113
303.659
304.403
305.352
300.033
300.091
300.144
300.193
300.239
300.28
300.319
300.354
300.386
300.416
300.443
300.47
300.494
300.518
300.54
300.561
300.582
300.602
300.623
300.646
300.671
300.703
300.746
300.809
300.904
301.043
301.236
301.491
301.819
302.222
302.683
303.157
303.708
304.454
305.4
300.034
300.096
300.152
300.203
300.251
300.294
300.334
300.37
300.403
300.434
300.462
300.49
300.515
300.539
300.562
300.585
300.606
300.627
300.649
300.672
300.698
300.729
300.772
300.836
300.934
301.081
301.287
301.553
301.884
302.285
302.743
303.214
303.763
304.509
305.451
300.036
300.1
300.159
300.213
300.262
300.307
300.348
300.385
300.419
300.451
300.481
300.509
300.535
300.561
300.585
300.608
300.63
300.652
300.674
300.698
300.724
300.755
300.796
300.858
300.955
301.105
301.32
301.602
301.946
302.351
302.806
303.271
303.815
304.557
305.492
300.038
300.105
300.166
300.222
300.273
300.32
300.362
300.4
300.436
300.469
300.5
300.529
300.556
300.582
300.607
300.631
300.655
300.677
300.7
300.724
300.749
300.78
300.82
300.877
300.968
301.113
301.329
301.623
301.983
302.399
302.856
303.318
303.857
304.592
305.52
300.039
300.109
300.172
300.231
300.284
300.333
300.377
300.417
300.453
300.488
300.52
300.55
300.578
300.605
300.631
300.656
300.68
300.703
300.726
300.75
300.776
300.805
300.843
300.896
300.978
301.111
301.318
301.611
301.983
302.415
302.882
303.347
303.884
304.612
305.535
300.04
300.113
300.179
300.241
300.297
300.348
300.393
300.435
300.473
300.509
300.542
300.573
300.602
300.63
300.657
300.682
300.706
300.73
300.754
300.778
300.804
300.833
300.869
300.918
300.992
301.111
301.301
301.583
301.957
302.402
302.885
303.36
303.899
304.625
305.544
300.042
300.118
300.188
300.252
300.312
300.365
300.412
300.455
300.495
300.531
300.566
300.598
300.628
300.657
300.684
300.71
300.735
300.759
300.784
300.808
300.834
300.863
300.898
300.944
301.012
301.119
301.291
301.555
301.922
302.374
302.873
303.364
303.911
304.634
305.547
300.044
300.124
300.198
300.267
300.329
300.384
300.433
300.477
300.518
300.556
300.591
300.624
300.655
300.684
300.712
300.739
300.765
300.79
300.815
300.84
300.867
300.896
300.93
300.974
301.038
301.135
301.292
301.538
301.893
302.346
302.859
303.367
303.921
304.635
305.53
300.047
300.132
300.211
300.284
300.349
300.405
300.455
300.5
300.541
300.58
300.616
300.65
300.682
300.712
300.741
300.769
300.796
300.822
300.848
300.874
300.901
300.93
300.965
301.008
301.068
301.158
301.302
301.529
301.867
302.315
302.837
303.358
303.914
304.607
305.474
300.05
300.141
300.225
300.301
300.368
300.426
300.476
300.522
300.564
300.604
300.641
300.676
300.708
300.74
300.769
300.798
300.826
300.853
300.88
300.907
300.935
300.966
301.001
301.044
301.102
301.186
301.317
301.524
301.838
302.27
302.789
303.313
303.863
304.533
305.375
300.053
300.149
300.238
300.318
300.387
300.445
300.497
300.544
300.587
300.627
300.665
300.7
300.734
300.766
300.797
300.827
300.856
300.884
300.912
300.941
300.97
301.002
301.038
301.082
301.139
301.218
301.338
301.523
301.807
302.209
302.708
303.223
303.762
304.419
305.257
300.056
300.158
300.251
300.335
300.406
300.466
300.518
300.565
300.609
300.651
300.689
300.725
300.76
300.792
300.824
300.855
300.885
300.915
300.944
300.974
301.006
301.039
301.077
301.122
301.179
301.255
301.366
301.533
301.787
302.151
302.616
303.111
303.639
304.296
305.152
300.059
300.167
300.265
300.352
300.425
300.486
300.539
300.588
300.632
300.674
300.713
300.75
300.785
300.819
300.851
300.883
300.914
300.945
300.976
301.008
301.041
301.076
301.117
301.164
301.222
301.298
301.404
301.559
301.788
302.118
302.546
303.015
303.532
304.2
305.086
300.062
300.176
300.279
300.369
300.444
300.506
300.56
300.61
300.656
300.699
300.739
300.776
300.811
300.845
300.878
300.911
300.943
300.975
301.008
301.041
301.076
301.115
301.157
301.208
301.269
301.347
301.452
301.601
301.816
302.12
302.518
302.962
303.47
304.152
305.071
300.065
300.185
300.292
300.386
300.462
300.525
300.581
300.632
300.679
300.723
300.764
300.802
300.838
300.873
300.906
300.939
300.973
301.006
301.04
301.075
301.112
301.153
301.2
301.253
301.319
301.401
301.509
301.658
301.866
302.157
302.533
302.958
303.458
304.154
305.1
300.068
300.193
300.304
300.4
300.478
300.542
300.599
300.651
300.701
300.747
300.789
300.828
300.864
300.9
300.934
300.968
301.002
301.037
301.072
301.109
301.149
301.193
301.243
301.301
301.372
301.46
301.573
301.726
301.935
302.22
302.584
302.994
303.489
304.197
305.163
300.07
300.2
300.314
300.412
300.49
300.556
300.614
300.668
300.72
300.767
300.811
300.852
300.89
300.926
300.961
300.996
301.031
301.067
301.104
301.143
301.185
301.232
301.286
301.35
301.426
301.521
301.643
301.803
302.017
302.302
302.658
303.058
303.55
304.267
305.246
300.072
300.205
300.322
300.421
300.501
300.567
300.627
300.683
300.736
300.785
300.831
300.874
300.913
300.951
300.988
301.024
301.06
301.097
301.135
301.176
301.221
301.271
301.329
301.398
301.481
301.584
301.715
301.884
302.106
302.393
302.745
303.138
303.628
304.353
305.338
300.074
300.209
300.329
300.429
300.51
300.577
300.638
300.695
300.749
300.8
300.848
300.893
300.935
300.974
301.013
301.05
301.088
301.126
301.166
301.209
301.256
301.309
301.371
301.445
301.535
301.646
301.786
301.966
302.197
302.489
302.838
303.226
303.715
304.445
305.432
300.075
300.213
300.335
300.437
300.52
300.588
300.649
300.706
300.761
300.813
300.862
300.909
300.953
300.995
301.036
301.075
301.114
301.154
301.196
301.24
301.289
301.344
301.41
301.488
301.585
301.704
301.854
302.044
302.284
302.581
302.929
303.313
303.802
304.535
305.52
300.076
300.217
300.341
300.446
300.53
300.6
300.661
300.718
300.772
300.825
300.875
300.924
300.97
301.015
301.057
301.099
301.14
301.181
301.224
301.27
301.321
301.378
301.447
301.529
301.631
301.757
301.916
302.116
302.365
302.667
303.014
303.396
303.884
304.618
305.601
300.078
300.221
300.348
300.456
300.542
300.612
300.674
300.731
300.785
300.837
300.888
300.938
300.986
301.033
301.078
301.121
301.164
301.207
301.252
301.299
301.351
301.411
301.481
301.566
301.671
301.803
301.97
302.178
302.435
302.742
303.089
303.469
303.957
304.691
305.67
300.079
300.226
300.356
300.466
300.555
300.626
300.688
300.745
300.798
300.85
300.9
300.951
301.001
301.05
301.097
301.143
301.189
301.234
301.28
301.329
301.382
301.442
301.513
301.6
301.707
301.843
302.015
302.23
302.495
302.806
303.154
303.533
304.021
304.755
305.73
300.081
300.231
300.365
300.478
300.569
300.643
300.706
300.762
300.815
300.865
300.914
300.964
301.015
301.066
301.116
301.165
301.213
301.26
301.308
301.359
301.413
301.475
301.546
301.633
301.741
301.878
302.053
302.273
302.542
302.858
303.207
303.586
304.075
304.809
305.782
300.083
300.237
300.375
300.493
300.587
300.662
300.726
300.783
300.835
300.883
300.931
300.98
301.031
301.084
301.136
301.188
301.239
301.289
301.339
301.391
301.448
301.51
301.582
301.669
301.776
301.912
302.087
302.309
302.582
302.902
303.252
303.632
304.122
304.858
305.833
300.085
300.245
300.388
300.51
300.606
300.684
300.749
300.806
300.857
300.904
300.95
300.998
301.049
301.103
301.158
301.212
301.266
301.319
301.373
301.428
301.486
301.551
301.624
301.71
301.817
301.952
302.125
302.346
302.62
302.941
303.293
303.674
304.167
304.91
305.892
300.089
300.254
300.402
300.528
300.627
300.706
300.773
300.83
300.881
300.927
300.972
301.019
301.07
301.124
301.182
301.24
301.297
301.354
301.411
301.47
301.532
301.6
301.675
301.764
301.87
302.004
302.176
302.395
302.668
302.989
303.34
303.723
304.222
304.978
305.972
300.092
300.263
300.417
300.546
300.648
300.729
300.796
300.854
300.905
300.95
300.994
301.04
301.09
301.146
301.206
301.268
301.33
301.392
301.454
301.518
301.586
301.659
301.739
301.832
301.941
302.077
302.248
302.467
302.739
303.057
303.405
303.789
304.298
305.068
306.073
300.095
300.273
300.432
300.566
300.67
300.753
300.821
300.88
300.93
300.974
301.017
301.061
301.111
301.168
301.23
301.297
301.364
301.432
301.501
301.573
301.648
301.729
301.818
301.918
302.034
302.175
302.351
302.571
302.842
303.155
303.498
303.882
304.4
305.183
306.188
300.099
300.283
300.448
300.585
300.692
300.776
300.845
300.904
300.955
300.998
301.039
301.081
301.13
301.187
301.252
301.323
301.396
301.471
301.549
301.63
301.715
301.807
301.908
302.019
302.147
302.297
302.48
302.704
302.973
303.28
303.613
303.994
304.52
305.304
306.295
300.102
300.293
300.463
300.604
300.713
300.798
300.869
300.928
300.979
301.022
301.061
301.101
301.148
301.204
301.271
301.345
301.424
301.506
301.593
301.684
301.782
301.889
302.004
302.131
302.273
302.436
302.629
302.858
303.123
303.42
303.741
304.117
304.643
305.415
306.379
300.105
300.303
300.478
300.622
300.733
300.82
300.892
300.952
301.002
301.044
301.082
301.12
301.164
301.218
301.283
301.359
301.442
301.531
301.626
301.729
301.84
301.961
302.094
302.238
302.397
302.575
302.778
303.01
303.271
303.555
303.864
304.231
304.749
305.495
306.425
300.108
300.312
300.492
300.639
300.753
300.841
300.914
300.975
301.025
301.067
301.103
301.139
301.179
301.229
301.291
301.366
301.451
301.544
301.646
301.757
301.879
302.015
302.164
302.326
302.503
302.697
302.91
303.145
303.4
303.673
303.968
304.324
304.826
305.54
306.434
300.111
300.32
300.505
300.656
300.772
300.862
300.936
300.998
301.048
301.09
301.125
301.158
301.194
301.24
301.298
301.369
301.452
301.546
301.65
301.766
301.896
302.041
302.203
302.381
302.574
302.782
303.005
303.243
303.494
303.757
304.04
304.382
304.864
305.544
306.407
300.114
300.328
300.517
300.672
300.791
300.883
300.959
301.021
301.072
301.113
301.147
301.178
301.212
301.252
301.304
301.37
301.449
301.54
301.643
301.759
301.891
302.042
302.211
302.4
302.605
302.825
303.057
303.299
303.548
303.804
304.076
304.405
304.865
305.516
306.357
300.117
300.336
300.53
300.689
300.811
300.906
300.983
301.047
301.097
301.138
301.171
301.201
301.232
301.268
301.314
301.373
301.446
301.532
301.631
301.743
301.873
302.022
302.193
302.385
302.596
302.824
303.063
303.309
303.557
303.808
304.073
304.389
304.831
305.461
306.288
300.12
300.344
300.544
300.708
300.834
300.931
301.01
301.074
301.125
301.164
301.196
301.225
301.254
301.287
301.329
301.382
301.448
301.527
301.619
301.726
301.85
301.993
302.16
302.349
302.561
302.791
303.033
303.281
303.53
303.779
304.038
304.345
304.775
305.393
306.218
300.123
300.353
300.558
300.728
300.858
300.959
301.039
301.104
301.155
301.193
301.224
301.25
301.277
301.309
301.347
301.395
301.455
301.527
301.613
301.712
301.828
301.963
302.122
302.304
302.51
302.737
302.977
303.225
303.474
303.722
303.978
304.28
304.703
305.319
306.148
300.126
300.363
300.574
300.749
300.884
300.988
301.071
301.137
301.187
301.224
301.253
301.277
301.302
301.332
301.369
301.414
301.469
301.535
301.613
301.705
301.812
301.939
302.087
302.261
302.458
302.677
302.913
303.158
303.405
303.653
303.909
304.209
304.63
305.252
306.093
300.129
300.372
300.59
300.77
300.91
301.017
301.103
301.171
301.221
301.257
301.283
301.305
301.328
301.356
301.392
301.436
301.488
301.55
301.622
301.706
301.805
301.922
302.061
302.223
302.41
302.621
302.849
303.089
303.333
303.58
303.837
304.138
304.562
305.195
306.051
300.132
300.382
300.606
300.792
300.936
301.048
301.137
301.206
301.258
301.293
301.316
301.335
301.355
301.381
301.416
301.459
301.511
301.571
301.639
301.717
301.809
301.917
302.045
302.197
302.374
302.575
302.795
303.03
303.271
303.517
303.776
304.08
304.51
305.157
306.031
300.136
300.392
300.622
300.813
300.962
301.078
301.17
301.242
301.294
301.329
301.351
301.366
301.382
301.405
301.438
301.482
301.535
301.595
301.662
301.737
301.822
301.922
302.041
302.183
302.349
302.541
302.753
302.982
303.22
303.466
303.727
304.035
304.474
305.135
306.025
300.139
300.402
300.638
300.835
300.989
301.108
301.204
301.278
301.332
301.368
301.388
301.4
301.412
301.43
301.46
301.503
301.558
301.621
301.689
301.764
301.846
301.94
302.052
302.184
302.341
302.523
302.728
302.951
303.187
303.433
303.696
304.009
304.456
305.132
306.036
300.143
300.412
300.654
300.856
301.014
301.137
301.235
301.313
301.37
301.406
301.427
301.437
301.444
301.456
301.481
301.521
301.577
301.644
301.717
301.794
301.877
301.969
302.075
302.2
302.349
302.522
302.719
302.937
303.17
303.415
303.679
303.997
304.452
305.14
306.055
300.146
300.421
300.668
300.875
301.036
301.163
301.265
301.346
301.406
301.445
301.466
301.475
301.479
301.485
301.503
301.538
301.592
301.662
301.741
301.824
301.912
302.005
302.11
302.231
302.374
302.541
302.731
302.943
303.172
303.416
303.68
303.999
304.461
305.159
306.083
300.149
300.43
300.682
300.892
301.057
301.187
301.293
301.378
301.442
301.484
301.507
301.515
301.516
301.518
301.528
301.555
301.603
301.672
301.756
301.848
301.943
302.042
302.149
302.27
302.41
302.572
302.757
302.964
303.189
303.43
303.693
304.013
304.478
305.183
306.113
300.151
300.437
300.692
300.907
301.075
301.209
301.319
301.408
301.476
301.522
301.547
301.556
301.555
301.553
301.557
301.575
301.615
301.679
301.763
301.861
301.966
302.073
302.187
302.311
302.452
302.612
302.794
302.996
303.217
303.455
303.716
304.036
304.502
305.212
306.148
300.154
300.443
300.703
300.922
301.095
301.232
301.346
301.439
301.51
301.56
301.588
301.598
301.597
301.592
301.59
301.6
301.629
301.684
301.764
301.865
301.976
302.094
302.216
302.346
302.489
302.65
302.83
303.031
303.249
303.485
303.745
304.065
304.532
305.245
306.185
300.156
300.45
300.714
300.937
301.114
301.256
301.373
301.47
301.545
301.598
301.629
301.642
301.641
301.633
301.626
301.628
301.648
301.692
301.764
301.862
301.977
302.103
302.234
302.372
302.52
302.684
302.865
303.064
303.282
303.517
303.777
304.097
304.565
305.28
306.221
300.158
300.456
300.725
300.954
301.137
301.283
301.404
301.504
301.583
301.639
301.673
301.687
301.687
301.677
301.666
301.661
301.671
301.703
301.764
301.855
301.97
302.1
302.239
302.385
302.54
302.707
302.891
303.092
303.31
303.545
303.807
304.128
304.597
305.314
306.256
300.161
300.465
300.74
300.974
301.162
301.312
301.437
301.541
301.622
301.681
301.718
301.734
301.735
301.725
301.71
301.699
301.699
301.719
301.767
301.847
301.958
302.09