/*--------------------------------*- C++ -*----------------------------------*\
| =========                 |                                                 |
| \\      /  F ield         | OpenFOAM: The Open Source CFD Toolbox           |
|  \\    /   O peration     | Version:  v1906                                 |
|   \\  /    A nd           | Web:      www.OpenFOAM.com                      |
|    \\/     M anipulation  |                                                 |
\*---------------------------------------------------------------------------*/
FoamFile
{
    version     2.0;
    format      ascii;
    class       volScalarField;
    location    "79";
    object      k;
}
// * * * * * * * * * * * * * * * * * * * * * * * * * * * * * * * * * * * * * //

dimensions      [0 2 -2 0 0 0 0];


internalField   nonuniform List<scalar> 
78750
(
5.15664e-07
3.17238e-06
6.37801e-06
9.85827e-06
1.34728e-05
1.70987e-05
2.06418e-05
2.40329e-05
2.72217e-05
3.01713e-05
3.28557e-05
3.52577e-05
3.73677e-05
3.9174e-05
4.06677e-05
4.18492e-05
4.27186e-05
4.32751e-05
4.35173e-05
4.34422e-05
4.3045e-05
4.23227e-05
4.12583e-05
3.98391e-05
3.80576e-05
3.59104e-05
3.33903e-05
3.0511e-05
2.72979e-05
2.3776e-05
1.99472e-05
1.57842e-05
1.13055e-05
6.67664e-06
2.13718e-06
1.90335e-06
1.38418e-05
2.49008e-05
3.5285e-05
4.49703e-05
5.38721e-05
6.1911e-05
6.90477e-05
7.52771e-05
8.06163e-05
8.50963e-05
8.8755e-05
9.16272e-05
9.37721e-05
9.52636e-05
9.61513e-05
9.64715e-05
9.62583e-05
9.55426e-05
9.43505e-05
9.26999e-05
9.0599e-05
8.80343e-05
8.49851e-05
8.14249e-05
7.73465e-05
7.27038e-05
6.73891e-05
6.13355e-05
5.44611e-05
4.66112e-05
3.76347e-05
2.789e-05
1.8345e-05
9.82418e-06
3.26747e-06
2.09783e-05
3.75907e-05
5.27339e-05
6.60064e-05
7.72536e-05
8.65464e-05
9.40609e-05
9.99923e-05
0.000104523
0.000107816
0.000110015
0.000111249
0.000111642
0.000111301
0.000110316
0.000108775
0.000106767
0.000104386
0.000101729
9.88823e-05
9.58995e-05
9.28102e-05
8.96139e-05
8.62617e-05
8.26519e-05
7.86368e-05
7.40372e-05
6.86567e-05
6.22566e-05
5.45323e-05
4.53487e-05
3.54353e-05
2.55946e-05
1.67223e-05
4.96406e-06
2.92978e-05
5.17842e-05
7.13995e-05
8.73634e-05
9.97704e-05
0.000109222
0.000116315
0.000121485
0.000125038
0.0001272
0.000128145
0.000128012
0.00012692
0.000124977
0.000122288
0.000118968
0.000115138
0.000110938
0.000106519
0.000102044
9.7676e-05
9.35554e-05
8.97559e-05
8.62447e-05
8.2874e-05
7.94014e-05
7.55294e-05
7.09336e-05
6.5252e-05
5.81177e-05
4.95166e-05
4.03932e-05
3.11289e-05
2.2214e-05
7.05536e-06
3.64362e-05
6.30155e-05
8.51891e-05
0.000102103
0.000114415
0.000123311
0.000129679
0.000134061
0.000136777
0.000138033
0.000137976
0.00013671
0.000134323
0.000130909
0.000126587
0.000121509
0.00011586
0.000109858
0.000103749
9.78157e-05
9.23535e-05
8.76093e-05
8.36953e-05
8.0565e-05
7.80194e-05
7.57224e-05
7.32411e-05
7.00929e-05
6.57726e-05
5.98485e-05
5.23785e-05
4.42224e-05
3.54044e-05
2.60201e-05
9.14889e-06
4.29837e-05
7.31605e-05
9.76786e-05
0.00011569
0.000128352
0.000137289
0.000143576
0.000147765
0.000150147
0.000150908
0.000150153
0.000147948
0.000144364
0.000139511
0.000133554
0.000126713
0.000119255
0.000111477
0.000103712
9.63303e-05
8.97189e-05
8.41534e-05
7.97228e-05
7.63787e-05
7.39521e-05
7.21373e-05
7.04924e-05
6.8464e-05
6.54295e-05
6.08331e-05
5.46283e-05
4.74099e-05
3.89269e-05
2.90521e-05
1.1094e-05
4.84894e-05
8.14241e-05
0.00010761
0.000126307
0.000139123
0.000147997
0.00015409
0.000157975
0.000159946
0.000160145
0.000158632
0.000155451
0.000150679
0.000144464
0.000137036
0.000128689
0.000119764
0.000110636
0.000101729
9.35157e-05
8.64276e-05
8.06356e-05
7.61254e-05
7.28141e-05
7.0557e-05
6.91099e-05
6.80909e-05
6.69616e-05
6.50437e-05
6.16657e-05
5.66176e-05
5.01991e-05
4.1986e-05
3.18547e-05
1.28772e-05
5.35545e-05
8.91384e-05
0.000117127
0.000136802
0.000150081
0.000159167
0.000165327
0.000169148
0.000170905
0.00017071
0.000168596
0.000164598
0.000158815
0.000151439
0.000142755
0.000133118
0.000122924
0.000112609
0.000102663
9.36433e-05
8.59852e-05
7.9758e-05
7.48862e-05
7.1275e-05
6.88119e-05
6.73255e-05
6.65258e-05
6.59406e-05
6.48826e-05
6.25612e-05
5.85406e-05
5.28472e-05
4.49419e-05
3.47807e-05
1.44638e-05
5.78908e-05
9.56776e-05
0.000125132
0.000145581
0.000159216
0.000168446
0.000174609
0.000178304
0.000179792
0.00017916
0.000176424
0.000171623
0.000164884
0.000156447
0.000146657
0.000135926
0.000124712
0.000113516
0.000102917
9.35615e-05
8.57828e-05
7.94984e-05
7.45594e-05
7.0843e-05
6.82536e-05
6.66826e-05
6.59397e-05
6.56541e-05
6.51833e-05
6.367e-05
6.04845e-05
5.54206e-05
4.78641e-05
3.79018e-05
1.61368e-05
6.24662e-05
0.000102574
0.000133599
0.000154914
0.000168974
0.000178396
0.000184603
0.00018821
0.000189464
0.000188433
0.000185121
0.00017957
0.000171933
0.000162496
0.000151651
0.000139865
0.00012765
0.00011557
0.000104283
9.45233e-05
8.65495e-05
8.01681e-05
7.51587e-05
7.13544e-05
6.86482e-05
6.69614e-05
6.61771e-05
6.60241e-05
6.59336e-05
6.50279e-05
6.25226e-05
5.80179e-05
5.08324e-05
4.11378e-05
1.76554e-05
6.63863e-05
0.00010843
0.00014077
0.000162822
0.000177259
0.000186862
0.000193111
0.00019663
0.000197654
0.000196232
0.000192359
0.000186088
0.000177605
0.000167235
0.000155425
0.000142693
0.000129612
0.000116807
0.000105036
9.51124e-05
8.71646e-05
8.08905e-05
7.60002e-05
7.22805e-05
6.96041e-05
6.79036e-05
6.711e-05
6.70314e-05
6.71797e-05
6.66959e-05
6.47038e-05
6.06588e-05
5.38115e-05
4.43842e-05
1.94016e-05
7.08302e-05
0.000114986
0.000148691
0.000171455
0.00018623
0.000195979
0.000202242
0.000205648
0.000206419
0.00020459
0.000200148
0.000193158
0.000183831
0.000172533
0.000159753
0.000146063
0.000132088
0.000118514
0.000106179
9.59941e-05
8.80061e-05
8.18183e-05
7.70672e-05
7.34849e-05
7.09114e-05
6.92708e-05
6.85155e-05
6.85055e-05
6.8821e-05
6.86404e-05
6.70394e-05
6.33688e-05
5.68061e-05
4.75788e-05
2.10181e-05
7.4675e-05
0.000120589
0.000155451
0.000178847
0.000193951
0.000203864
0.00021017
0.000213498
0.000214054
0.000211858
0.000206893
0.000199239
0.000189134
0.00017698
0.00016331
0.000148743
0.000133957
0.000119703
0.00010691
9.65729e-05
8.86419e-05
8.26352e-05
7.8119e-05
7.47753e-05
7.24098e-05
7.093e-05
7.02921e-05
7.03839e-05
7.08337e-05
7.08644e-05
6.95408e-05
6.61469e-05
5.97841e-05
5.06621e-05
2.28572e-05
7.89923e-05
0.000126815
0.000162861
0.000186844
0.000202225
0.000212263
0.000218581
0.000221803
0.000222123
0.000219544
0.000214053
0.000205739
0.000194867
0.00018187
0.000167317
0.000151867
0.000136246
0.00012126
0.000107919
9.73217e-05
8.93659e-05
8.34911e-05
7.9198e-05
7.61144e-05
7.40045e-05
7.27498e-05
7.22946e-05
7.25318e-05
7.31166e-05
7.33095e-05
7.21852e-05
6.89884e-05
6.27448e-05
5.36316e-05
2.45921e-05
8.28263e-05
0.000132265
0.000169329
0.000193847
0.000209512
0.000219703
0.000226067
0.000229224
0.000229351
0.00022644
0.000220478
0.000211571
0.000200004
0.00018624
0.00017088
0.00015462
0.00013823
0.000122568
0.000108724
9.79003e-05
8.99504e-05
8.424e-05
8.02094e-05
7.74358e-05
7.56428e-05
7.46822e-05
7.44775e-05
7.49105e-05
7.56425e-05
7.59615e-05
7.49672e-05
7.18874e-05
6.56733e-05
5.64684e-05
2.64951e-05
8.69863e-05
0.00013814
0.00017624
0.000201263
0.000217179
0.000227498
0.000233891
0.000236969
0.000236894
0.000233652
0.000227231
0.000217752
0.00020552
0.00019102
0.000174875
0.000157811
0.000140633
0.000124248
0.000109811
9.86383e-05
9.05978e-05
8.49909e-05
8.1193e-05
7.87269e-05
7.72741e-05
7.66506e-05
7.67494e-05
7.74261e-05
7.83302e-05
7.87625e-05
7.78525e-05
7.48267e-05
6.85656e-05
5.91825e-05
2.83208e-05
9.07891e-05
0.000143442
0.000182456
0.000207949
0.000224124
0.000234595
0.000241048
0.000244081
0.000243844
0.000240315
0.000233488
0.000223498
0.000210671
0.00019551
0.000178655
0.000160854
0.000142941
0.000125877
0.000110866
9.93339e-05
9.11886e-05
8.56768e-05
8.21165e-05
7.99768e-05
7.88946e-05
7.86503e-05
7.91004e-05
8.0064e-05
8.11641e-05
8.17016e-05
8.08371e-05
7.78053e-05
7.14183e-05
6.1768e-05
3.02618e-05
9.47912e-05
0.000148998
0.000188937
0.000214885
0.000231305
0.000241919
0.000248424
0.000251407
0.000251008
0.000247201
0.000239989
0.000229521
0.000216138
0.000200354
0.000182823
0.000164299
0.000145649
0.000127865
0.000112205
0.000100193
9.18398e-05
8.63498e-05
8.29852e-05
8.11599e-05
8.04618e-05
8.06269e-05
8.14685e-05
8.27596e-05
8.40822e-05
8.47251e-05
8.38789e-05
8.07942e-05
7.42184e-05
6.42301e-05
3.21474e-05
9.8536e-05
0.000154144
0.00019493
0.000221317
0.000237996
0.000248773
0.000255351
0.000258307
0.000257772
0.000253721
0.000246168
0.000235278
0.000221404
0.000205071
0.000186934
0.000167757
0.000148423
0.000129951
0.000113644
0.000101108
9.24985e-05
8.69888e-05
8.37947e-05
8.22786e-05
8.19781e-05
8.25816e-05
8.38519e-05
8.55062e-05
8.70783e-05
8.78326e-05
8.69851e-05
8.38043e-05
7.69732e-05
6.65672e-05
3.41076e-05
0.000102386
0.000159422
0.000201065
0.000227894
0.000244833
0.000255771
0.000262416
0.000265337
0.000264664
0.000260379
0.000252507
0.000241231
0.000226912
0.000210077
0.000191378
0.000171581
0.000151573
0.000132392
0.000115376
0.000102206
9.32358e-05
8.76242e-05
8.45465e-05
8.33144e-05
8.34124e-05
8.44747e-05
8.62064e-05
8.82601e-05
9.01042e-05
9.09748e-05
9.01108e-05
8.68012e-05
7.96643e-05
6.87799e-05
3.60268e-05
0.000106044
0.000164402
0.000206863
0.000234147
0.000251373
0.000262491
0.000269206
0.000272095
0.000271294
0.000266796
0.000258644
0.000247033
0.000232332
0.000215067
0.00019588
0.000175531
0.000154903
0.000135038
0.000117304
0.000103442
9.40391e-05
8.826e-05
8.52505e-05
8.42773e-05
8.47711e-05
8.63077e-05
8.8527e-05
9.10102e-05
9.31569e-05
9.41559e-05
9.32691e-05
8.97973e-05
8.22992e-05
7.08735e-05
3.79901e-05
0.000109736
0.000169417
0.000212712
0.000240486
0.00025804
0.000269337
0.00027609
0.000278915
0.000277972
0.000273268
0.000264862
0.000252956
0.000237924
0.000220282
0.000200663
0.00017981
0.00015859
0.000138042
0.000119549
0.000104898
9.4959e-05
8.89204e-05
8.59108e-05
8.51567e-05
8.60341e-05
8.80547e-05
9.07857e-05
9.37268e-05
9.61967e-05
9.73326e-05
9.64088e-05
9.27603e-05
8.48673e-05
7.2851e-05
3.99218e-05
0.000113272
0.000174192
0.000218303
0.000246623
0.00026457
0.000276063
0.000282821
0.000285544
0.000284457
0.00027957
0.000270948
0.000258799
0.000243497
0.000225548
0.00020557
0.000184282
0.000162527
0.000141329
0.000122071
0.000106571
9.60106e-05
8.9626e-05
8.65452e-05
8.59641e-05
8.72057e-05
8.97134e-05
9.29739e-05
9.63972e-05
9.92144e-05
0.000100507
9.95734e-05
9.57123e-05
8.73794e-05
7.47181e-05
4.18748e-05
0.00011679
0.000178921
0.000223828
0.000252702
0.000270958
0.000282651
0.000289492
0.000292125
0.000290908
0.000285861
0.000277055
0.000264705
0.000249184
0.000230986
0.000210709
0.000189044
0.000166804
0.00014498
0.000124947
0.000108537
9.72537e-05
9.04186e-05
8.7177e-05
8.67054e-05
8.82778e-05
9.12659e-05
9.5069e-05
9.89993e-05
0.000102193
0.000103673
0.000102773
9.86256e-05
8.98173e-05
7.64766e-05
4.38038e-05
0.00012019
0.000183468
0.000229138
0.000258533
0.000277105
0.000289013
0.00029597
0.000298589
0.00029723
0.000292034
0.000283076
0.000270572
0.000254887
0.000236504
0.000215999
0.00019403
0.000171369
0.000148971
0.000128181
0.000110833
9.87351e-05
9.13482e-05
8.785e-05
8.74139e-05
8.92714e-05
9.27216e-05
9.70699e-05
0.000101522
0.000105115
0.000106822
0.000105989
0.000101593
9.22255e-05
7.81392e-05
4.57381e-05
0.000123541
0.000187945
0.000234409
0.000264241
0.000283095
0.00029521
0.000302291
0.000304929
0.000303447
0.000298136
0.000289065
0.000276451
0.000260654
0.000242145
0.000221475
0.000199269
0.000176256
0.000153339
0.000131825
0.000113533
0.000100527
9.24759e-05
8.86106e-05
8.81191e-05
9.02006e-05
9.40831e-05
9.89737e-05
0.000103969
0.000108007
0.000110028
0.000109241
0.000104595
9.46099e-05
7.97119e-05
4.76497e-05
0.000126773
0.000192232
0.000239468
0.000269714
0.000288857
0.000301197
0.000308429
0.000311118
0.000309556
0.000304153
0.000294994
0.000282303
0.000266439
0.000247859
0.00022709
0.00020472
0.00018143
0.000158067
0.000135887
0.000116679
0.000102691
9.38728e-05
8.95248e-05
8.88739e-05
9.11026e-05
9.53726e-05
0.000100791
0.000106342
0.000110862
0.000113242
0.00011251
0.000107605
9.69645e-05
8.12008e-05
4.95551e-05
0.000129935
0.0001964
0.000244371
0.000275014
0.000294438
0.000307004
0.000314397
0.000317169
0.000315594
0.000310086
0.000300854
0.000288121
0.000272236
0.000253642
0.000232836
0.000210373
0.000186883
0.000163151
0.000140375
0.000120298
0.000105275
9.5594e-05
9.06495e-05
8.97269e-05
9.20127e-05
9.66126e-05
0.000102535
0.000108643
0.000113669
0.000116438
0.000115772
0.000110606
9.9282e-05
8.26084e-05
5.14432e-05
0.000133007
0.000200423
0.000249096
0.000280121
0.000299823
0.000312617
0.000320178
0.000323045
0.00032148
0.000315891
0.000306621
0.000293888
0.000278029
0.000259469
0.000238684
0.000216193
0.000192577
0.000168558
0.000145263
0.000124377
0.0001083
9.7688e-05
9.20443e-05
9.0736e-05
9.2978e-05
9.78364e-05
0.000104225
0.000110887
0.000116434
0.000119606
0.000119015
0.000113584
0.000101558
8.39404e-05
5.3319e-05
0.000136006
0.000204323
0.00025366
0.000285047
0.000305019
0.000318041
0.000325777
0.000328751
0.000327216
0.000321571
0.000312294
0.000299592
0.000283797
0.000265317
0.000244607
0.00022215
0.000198482
0.000174257
0.000150527
0.000128902
0.000111777
0.00010019
9.37588e-05
9.19531e-05
9.40433e-05
9.90759e-05
0.000105878
0.000113068
0.000119128
0.000122721
0.000122218
0.000116526
0.000103785
8.51997e-05
5.51812e-05
0.000138936
0.000208109
0.000258073
0.000289801
0.000310034
0.000323281
0.000331196
0.000334289
0.0003328
0.000327124
0.000317865
0.000305224
0.000289525
0.000271165
0.000250576
0.00022821
0.000204557
0.000180207
0.000156127
0.000133842
0.000115707
0.000103127
9.58402e-05
9.3434e-05
9.52617e-05
0.000100375
0.000107528
0.00011522
0.000121812
0.000125795
0.000125378
0.000119425
0.000105962
8.63915e-05
5.70292e-05
0.000141802
0.000211786
0.00026233
0.00029437
0.000314852
0.000328324
0.000336423
0.000339645
0.000338222
0.000332541
0.000323322
0.000310766
0.000295192
0.000276986
0.000256561
0.00023434
0.000210767
0.000186369
0.00016203
0.000139173
0.000120089
0.00010652
9.8326e-05
9.52259e-05
9.66793e-05
0.000101771
0.000109204
0.000117364
0.000124494
0.000128832
0.000128491
0.000122276
0.000108087
8.75193e-05
5.88671e-05
0.000144621
0.000215397
0.000266452
0.000298773
0.00031949
0.00033318
0.000341465
0.000344826
0.000343487
0.00033783
0.000328664
0.000316208
0.000300781
0.000282759
0.000262535
0.000240504
0.000217069
0.000192695
0.000168184
0.000144855
0.000124904
0.000110378
0.00010125
9.73772e-05
9.83486e-05
0.000103312
0.000110942
0.000119523
0.000127169
0.000131837
0.000131558
0.000125076
0.000110158
8.85873e-05
6.06894e-05
0.000147372
0.000218939
0.00027041
0.00030298
0.000323921
0.000337827
0.0003463
0.000349808
0.000348576
0.000342994
0.000333871
0.000321526
0.000306269
0.000288461
0.000268474
0.000246676
0.000223433
0.000199153
0.000174557
0.000150855
0.000130139
0.000114706
0.000104638
9.99287e-05
0.000100315
0.000105039
0.000112772
0.000121711
0.000129833
0.000134806
0.000134576
0.000127823
0.000112177
8.96006e-05
6.24851e-05
0.000150016
0.00022231
0.000274189
0.000307003
0.000328165
0.000342282
0.000350938
0.000354589
0.000353461
0.000347954
0.000338898
0.000326691
0.000311632
0.000294065
0.000274346
0.000252818
0.000229814
0.000205689
0.00018109
0.000157121
0.000135757
0.00011949
0.000108501
0.000102914
0.000102624
0.000106997
0.000114733
0.000123953
0.000132499
0.000137743
0.000137545
0.000130516
0.000114144
9.05645e-05
6.42482e-05
0.000152575
0.000225556
0.000277807
0.000310843
0.000332209
0.000346528
0.000355365
0.000359165
0.00035815
0.000352736
0.000343765
0.000331714
0.00031687
0.000299566
0.00028014
0.000258914
0.000236188
0.000212274
0.000187748
0.000163615
0.000141727
0.000124713
0.000112844
0.000106358
0.000105312
0.000109224
0.000116852
0.000126268
0.000135177
0.000140654
0.000140469
0.00013316
0.000116064
9.14853e-05
6.59925e-05
0.000155053
0.000228675
0.000281263
0.000314498
0.000336059
0.000350576
0.000359591
0.000363532
0.000362625
0.000357301
0.000348435
0.000336566
0.000321958
0.000304938
0.000285829
0.000264931
0.000242519
0.000218863
0.000194479
0.000170279
0.000147999
0.000130338
0.000117652
0.00011027
0.000108412
0.00011176
0.000119168
0.000128681
0.00013788
0.000143544
0.000143351
0.000135755
0.00011794
9.23689e-05
6.77122e-05
0.000157448
0.000231665
0.00028455
0.000317966
0.000339711
0.000354419
0.000363608
0.000367695
0.000366905
0.000361684
0.000352927
0.000341239
0.000326893
0.000310178
0.000291407
0.000270862
0.000248794
0.000225438
0.000201257
0.000177079
0.000154529
0.000136325
0.000122898
0.000114646
0.000111936
0.000114631
0.000121708
0.000131216
0.000140625
0.000146426
0.0001462
0.000138309
0.000119779
9.32228e-05
6.94097e-05
0.000159772
0.000234527
0.000287672
0.000321247
0.000343163
0.000358053
0.00036741
0.000371637
0.000370962
0.00036585
0.000357222
0.000345735
0.000331647
0.000315255
0.000296841
0.00027667
0.000254972
0.000231952
0.000208027
0.000183952
0.000161252
0.00014262
0.000128547
0.000119473
0.000115898
0.000117865
0.000124502
0.000133895
0.000143423
0.000149306
0.000149018
0.000140823
0.000121583
9.40524e-05
7.10806e-05
0.000162006
0.000237251
0.000290624
0.00032434
0.000346416
0.00036148
0.000370999
0.000375363
0.000374805
0.000369809
0.000361322
0.00035005
0.000336241
0.000320175
0.000302133
0.000282355
0.000261049
0.000238394
0.000214769
0.000190865
0.000168116
0.000149169
0.000134551
0.000124723
0.000120292
0.000121479
0.000127579
0.000136747
0.0001463
0.000152202
0.000151819
0.000143308
0.000123361
9.48651e-05
7.27284e-05
0.000164163
0.000239849
0.000293412
0.000327246
0.000349467
0.000364694
0.000374366
0.00037886
0.000378413
0.000373535
0.0003652
0.000354155
0.000340635
0.000324911
0.000307246
0.000287874
0.000266982
0.000244719
0.000221433
0.000197761
0.000175059
0.000155912
0.000140859
0.00013036
0.000125105
0.000125478
0.000130954
0.00013979
0.000149269
0.000155124
0.00015461
0.000145769
0.000125116
9.56647e-05
7.43538e-05
0.00016624
0.000242318
0.000296037
0.000329969
0.000352323
0.000367703
0.000377519
0.000382137
0.0003818
0.000377043
0.000368871
0.000358062
0.000344842
0.000329469
0.000312192
0.000293233
0.000272766
0.000250917
0.000228001
0.000204612
0.000182038
0.000162802
0.000147423
0.000136345
0.000130317
0.000129867
0.000134652
0.000143054
0.000152358
0.000158093
0.000157406
0.000148217
0.000126855
9.64556e-05
7.5952e-05
0.000168231
0.000244651
0.000298492
0.000332502
0.000354974
0.000370494
0.000380444
0.000385178
0.000384945
0.000380308
0.000372306
0.000361739
0.000348826
0.000333811
0.000316933
0.000298396
0.000278361
0.000256945
0.000234429
0.00021137
0.000189
0.000169783
0.000154188
0.000142631
0.000135896
0.000134632
0.000138676
0.000146553
0.000155584
0.000161123
0.000160218
0.000150656
0.000128581
9.72391e-05
7.75254e-05
0.000170143
0.00024686
0.00030079
0.000334859
0.000357435
0.000373085
0.00038316
0.000388
0.000387866
0.00038335
0.000375525
0.000365207
0.000352604
0.000337952
0.000321474
0.000303364
0.000283769
0.000262791
0.000240701
0.000218009
0.00019591
0.00017681
0.000161107
0.000149176
0.000141812
0.000139764
0.000143035
0.000150308
0.000158972
0.000164235
0.000163062
0.0001531
0.0001303
9.80172e-05
7.90686e-05
0.000171965
0.000248929
0.000302916
0.000337024
0.00035969
0.000375458
0.000385646
0.000390584
0.000390543
0.000386146
0.000378504
0.000368439
0.000356151
0.000341862
0.000325788
0.000308108
0.000288958
0.000268425
0.000246767
0.000224487
0.000202721
0.000183832
0.000168125
0.000155924
0.000148021
0.000145236
0.000147722
0.000154329
0.000162537
0.000167446
0.000165949
0.000155553
0.000132014
9.87884e-05
8.05872e-05
0.000173711
0.00025088
0.000304893
0.000339021
0.000361763
0.000377636
0.000387928
0.000392954
0.000392999
0.000388721
0.000381268
0.000371458
0.000359484
0.000345559
0.000329885
0.000312633
0.000293927
0.000273845
0.000252631
0.000230773
0.000209399
0.000190809
0.000175195
0.000162829
0.00015448
0.000151018
0.000152725
0.000158618
0.000166293
0.00017077
0.000168895
0.000158027
0.000133728
9.95532e-05
8.20744e-05
0.000175365
0.000252691
0.000306699
0.000340827
0.000363632
0.0003796
0.000389983
0.000395088
0.000395214
0.000391053
0.000383794
0.000374243
0.000362584
0.000349021
0.000333746
0.000316919
0.000298657
0.000279028
0.00025827
0.000236861
0.000215922
0.000197704
0.000182268
0.000169835
0.000161139
0.000157075
0.000158031
0.000163181
0.000170252
0.000174222
0.000171908
0.000160527
0.000135443
0.00010031
8.35371e-05
0.000176946
0.00025439
0.000308362
0.000342473
0.000365326
0.000381377
0.000391841
0.000397016
0.000397215
0.000393171
0.000386109
0.000376819
0.000365474
0.000352269
0.000337387
0.00032098
0.000303157
0.00028398
0.000263683
0.000242746
0.000222287
0.000204505
0.000189317
0.000176902
0.000167953
0.000163362
0.000163601
0.000167986
0.000174406
0.000177806
0.000175
0.000163063
0.000137166
0.000101062
8.49669e-05
0.000178437
0.000255951
0.000309857
0.000343931
0.000366822
0.000382943
0.000393479
0.000398714
0.000398981
0.000395053
0.000388197
0.000379171
0.00036814
0.000355291
0.000340797
0.000324805
0.000307416
0.000288689
0.00026886
0.000248413
0.000228479
0.000211175
0.000196304
0.000183988
0.000174873
0.00016984
0.000169419
0.000173067
0.000178767
0.000181528
0.000178176
0.000165639
0.000138898
0.000101809
8.63708e-05
0.000179856
0.000257402
0.000311215
0.000345235
0.000368149
0.000384331
0.000394928
0.000400215
0.000400544
0.000396732
0.000390085
0.000381324
0.000370605
0.000358107
0.000343996
0.00032841
0.000311448
0.000293167
0.00027381
0.000253872
0.000234509
0.000217724
0.000203217
0.000191065
0.000181864
0.00017647
0.000175454
0.00017839
0.00018333
0.000185395
0.000181444
0.000168262
0.000140647
0.000102556
8.77386e-05
0.000181183
0.000258715
0.000312404
0.000346355
0.000369281
0.000385515
0.000396165
0.000401497
0.000401885
0.00039819
0.00039176
0.000383267
0.00037286
0.00036071
0.000346977
0.000331791
0.00031525
0.000297413
0.000278529
0.000259118
0.00024037
0.000224134
0.000210031
0.000198099
0.000188885
0.000183212
0.000181667
0.000183926
0.000188083
0.000189403
0.000184806
0.000170938
0.000142417
0.000103306
8.90767e-05
0.000182437
0.000259918
0.000313456
0.000347321
0.000370249
0.000386526
0.000397222
0.000402593
0.000403037
0.00039946
0.000393252
0.000385028
0.000374931
0.000363124
0.00034976
0.000334967
0.000318839
0.000301439
0.000283031
0.00026416
0.000246062
0.000230399
0.000216733
0.000205069
0.000195905
0.000190024
0.000188016
0.000189636
0.000193004
0.000193548
0.000188267
0.000173673
0.000144212
0.00010406
9.03751e-05
0.000183596
0.000260979
0.00031434
0.000348105
0.000371027
0.000387341
0.000398078
0.000403485
0.000403985
0.00040053
0.000394553
0.000386601
0.000376813
0.000365345
0.000352346
0.000337938
0.000322217
0.00030525
0.000287317
0.000268997
0.000251579
0.000236508
0.000223306
0.000211947
0.000202884
0.000196868
0.000194466
0.00019549
0.000198073
0.000197818
0.00019182
0.000176464
0.000146035
0.000104822
9.16386e-05
0.000184677
0.000261926
0.000315085
0.000348737
0.000371645
0.000387991
0.000398765
0.000404205
0.000404761
0.000401433
0.000395693
0.000388014
0.000378531
0.000367396
0.000354753
0.000340724
0.000325401
0.00030886
0.000291402
0.000273641
0.000256927
0.000242462
0.000229744
0.000218723
0.000209813
0.000203709
0.000200971
0.00020145
0.000203265
0.000202202
0.000195466
0.000179317
0.00014789
0.000105595
9.28578e-05
0.000185659
0.000262731
0.000315662
0.000349189
0.000372077
0.000388452
0.000399261
0.000404737
0.000405354
0.000402161
0.000396668
0.000389265
0.000380084
0.000369278
0.000356985
0.000343326
0.000328395
0.000312277
0.000295292
0.000278098
0.000262107
0.000248261
0.000236041
0.000225381
0.000216657
0.000210517
0.000207501
0.000207479
0.00020855
0.00020668
0.00019919
0.000182226
0.000149774
0.000106377
9.40369e-05
0.000186559
0.000263416
0.000316098
0.000349489
0.000372351
0.000388752
0.000399598
0.000405111
0.000405797
0.000402749
0.00039751
0.000390382
0.000381499
0.000371013
0.000359062
0.000345765
0.000331218
0.000315517
0.000299004
0.000282385
0.000267131
0.000253911
0.000242199
0.000231917
0.000223409
0.000217278
0.000214024
0.000213549
0.000213907
0.00021124
0.000202991
0.000185191
0.000151692
0.000107173
9.51684e-05
0.000187359
0.00026396
0.000316367
0.000349612
0.000372444
0.00038887
0.000399754
0.000405313
0.00040608
0.000403191
0.000398217
0.000391366
0.000382777
0.000372604
0.000360988
0.000348045
0.000333876
0.000318588
0.000302549
0.000286512
0.000272007
0.000259418
0.00024822
0.000238325
0.000230052
0.000223961
0.000220515
0.00021963
0.000219303
0.000215855
0.000206848
0.0001882
0.000153633
0.000107978
9.62576e-05
0.000188077
0.000264386
0.000316499
0.000349585
0.000372381
0.000388831
0.000399755
0.000405368
0.000406234
0.000403526
0.000398823
0.000392245
0.000383942
0.000374075
0.000362783
0.000350185
0.000336388
0.00032151
0.000305946
0.000290502
0.000276752
0.000264796
0.000254114
0.000244614
0.000236591
0.000230565
0.000226962
0.000225695
0.000224724
0.000220516
0.000210755
0.000191249
0.0001556
0.000108794
9.73e-05
0.000188701
0.000264679
0.000316471
0.000349387
0.000372142
0.000388612
0.000399578
0.000405256
0.000406246
0.000403764
0.000399323
0.000393014
0.000384995
0.000375428
0.000364454
0.000352197
0.000338766
0.000324295
0.000309212
0.000294375
0.000281378
0.000270051
0.000259881
0.000250777
0.000243012
0.00023707
0.000233342
0.000231742
0.000230139
0.0002252
0.000214697
0.000194331
0.000157586
0.000109611
9.83015e-05
0.000189248
0.00026486
0.000316309
0.000349042
0.000371747
0.000388235
0.000399244
0.000404991
0.000406118
0.000403894
0.000399719
0.000393686
0.000385954
0.000376686
0.000366027
0.000354103
0.000341035
0.000326973
0.00031238
0.000298172
0.000285918
0.000275206
0.000265541
0.000256829
0.000249325
0.000243479
0.000239647
0.000237744
0.000235546
0.000229887
0.000218659
0.000197435
0.000159589
0.000110428
9.9259e-05
0.000189708
0.000264916
0.000315994
0.000348528
0.000371176
0.000387679
0.000398731
0.000404557
0.00040584
0.000403898
0.000400009
0.000394265
0.000386826
0.000377858
0.00036751
0.000355917
0.00034321
0.000329563
0.000315477
0.000301933
0.000290393
0.000280274
0.000271095
0.000262766
0.000255524
0.000249786
0.000245871
0.000243696
0.000240936
0.000234589
0.000222642
0.000200564
0.000161611
0.000111246
0.000100179
0.000190098
0.000264866
0.000315547
0.000347866
0.000370447
0.000386959
0.000398054
0.000403965
0.000405419
0.000403781
0.000400198
0.000394758
0.000387622
0.000378959
0.000368924
0.00035766
0.000345315
0.000332089
0.00031853
0.000305689
0.000294834
0.000285279
0.000276564
0.0002686
0.000261612
0.000255983
0.000251999
0.000249577
0.000246282
0.000239274
0.000226626
0.000203697
0.000163646
0.000112064
0.000101058
0.000190405
0.000264693
0.000314948
0.000347035
0.00036954
0.000386056
0.000397196
0.0004032
0.000404844
0.000403539
0.000400283
0.000395165
0.000388344
0.000379993
0.000370273
0.000359339
0.000347357
0.000334558
0.000321542
0.000309432
0.000299236
0.000290223
0.00028195
0.000274336
0.000267593
0.000262076
0.000258038
0.00025539
0.000251584
0.000243939
0.000230605
0.000206829
0.000165681
0.000112879
0.0001019
0.000190644
0.000264417
0.000314217
0.000346053
0.000368471
0.000384985
0.000396167
0.000402271
0.000404123
0.000403174
0.000400267
0.000395488
0.000388997
0.000380969
0.000371571
0.000360971
0.000349354
0.000336986
0.000324523
0.000313159
0.000303605
0.000295115
0.000287264
0.00027998
0.000273465
0.00026805
0.000263961
0.000261108
0.00025682
0.000248566
0.000234566
0.000209952
0.00016771
0.000113687
0.0001027
0.000190801
0.000264018
0.000313334
0.000344903
0.000367222
0.000383729
0.000394955
0.000401168
0.000403245
0.000402678
0.000400141
0.00039572
0.000389576
0.000381884
0.000372819
0.000362559
0.000351312
0.00033938
0.000327479
0.000316867
0.000307939
0.000299955
0.000292513
0.000285546
0.000279249
0.000273933
0.000269799
0.000266749
0.000261994
0.000253151
0.000238501
0.00021306
0.000169729
0.000114487
0.000103461
0.000190885
0.000263509
0.000312314
0.000343598
0.000365808
0.000382302
0.00039357
0.000399902
0.000402222
0.000402058
0.00039991
0.000395864
0.000390081
0.00038274
0.00037402
0.000364112
0.000353244
0.000341759
0.000330431
0.000320568
0.00031225
0.000304756
0.000297704
0.000291035
0.000284936
0.000279696
0.000275499
0.000272278
0.000267086
0.000257685
0.000242405
0.000216147
0.000171735
0.00011528
0.000104179
0.000190886
0.000262876
0.000311141
0.000342123
0.000364215
0.000380691
0.000392005
0.000398467
0.000401049
0.000401309
0.000399567
0.000395911
0.000390506
0.000383532
0.000375173
0.000365631
0.000355158
0.000344134
0.000333396
0.000324272
0.000316545
0.000309522
0.000302844
0.00029646
0.00029055
0.000285394
0.000281179
0.000277735
0.000272105
0.000262163
0.000246271
0.000219209
0.000173725
0.000116064
0.000104856
0.000190809
0.000262129
0.000309829
0.000340492
0.000362456
0.00037891
0.000390272
0.000396879
0.000399745
0.000400444
0.000399117
0.000395862
0.000390848
0.000384257
0.000376278
0.000367122
0.000357065
0.000346528
0.000336411
0.000328005
0.000320844
0.000314268
0.000307946
0.000301833
0.000296106
0.000291035
0.000286819
0.000283129
0.000277058
0.000266587
0.000250097
0.000222244
0.000175698
0.000116838
0.000105488
0.000190647
0.000261258
0.000308367
0.000338696
0.00036052
0.000376947
0.000388366
0.000395142
0.000398324
0.00039947
0.000398561
0.000395715
0.000391104
0.000384911
0.00037733
0.000368583
0.00035897
0.000348955
0.000339503
0.000331783
0.000325157
0.000319004
0.000313017
0.000307163
0.000301612
0.000296626
0.000292409
0.000288465
0.000281951
0.000270961
0.000253885
0.000225252
0.000177654
0.000117604
0.000106076
0.000190405
0.000260272
0.000306766
0.000336745
0.000358418
0.000374812
0.000386291
0.000393266
0.000396836
0.000398394
0.000397895
0.000395463
0.000391267
0.000385489
0.000378326
0.000370012
0.000360874
0.00035142
0.000342681
0.000335616
0.000329494
0.000323736
0.000318062
0.00031245
0.000307066
0.000302165
0.000297946
0.000293746
0.00028679
0.000275289
0.000257637
0.000228232
0.000179594
0.000118362
0.000106619
0.000190081