/*--------------------------------*- C++ -*----------------------------------*\
| =========                 |                                                 |
| \\      /  F ield         | OpenFOAM: The Open Source CFD Toolbox           |
|  \\    /   O peration     | Version:  v1906                                 |
|   \\  /    A nd           | Web:      www.OpenFOAM.com                      |
|    \\/     M anipulation  |                                                 |
\*---------------------------------------------------------------------------*/
FoamFile
{
    version     2.0;
    format      ascii;
    class       volScalarField;
    location    "72";
    object      k;
}
// * * * * * * * * * * * * * * * * * * * * * * * * * * * * * * * * * * * * * //

dimensions      [0 2 -2 0 0 0 0];


internalField   nonuniform List<scalar> 
78750
(
0.57548
0.208299
0.109652
0.0456618
0.00498553
0.00151271
0.00185795
0.00109065
0.00136297
0.00122411
0.00125044
0.0012241
0.00120757
0.00118792
0.00116913
0.00115185
0.00113544
0.00111883
0.00110203
0.00108544
0.00106917
0.00105308
0.0010371
0.00102109
0.00100486
0.000988271
0.000971126
0.000953235
0.000934301
0.000913908
0.000891237
0.000864566
0.000829233
0.000759358
0.000319323
0.018809
0.00509214
0.00452739
0.00185946
0.00163409
0.00295626
0.002412
0.00221819
0.00203254
0.0019782
0.00196261
0.00194571
0.00190378
0.00184354
0.00177932
0.00172365
0.00167967
0.00164262
0.00160839
0.00157589
0.00154469
0.00151407
0.00148341
0.00145246
0.00142115
0.00138939
0.00135691
0.00132323
0.00128746
0.00124815
0.00120242
0.00114206
0.00103526
0.000803929
0.00117166
0.000610538
0.00229992
0.00294333
0.0030145
0.00243844
0.00210226
0.00208484
0.00207539
0.00197952
0.00179529
0.00158474
0.00141908
0.00130762
0.00124127
0.00123331
0.00129
0.00136859
0.00142534
0.00145829
0.00147661
0.00148561
0.00148742
0.00148339
0.00147558
0.0014664
0.00145782
0.00145079
0.00144521
0.00144
0.00143322
0.00142194
0.00140034
0.00135699
0.00130671
0.00215697
0.00205089
0.00205018
0.00189868
0.00181655
0.00195109
0.00208679
0.00213126
0.00216226
0.00216086
0.0021126
0.00201256
0.00188142
0.00177165
0.0017003
0.00165243
0.00162007
0.00159828
0.00158216
0.00157122
0.00156625
0.00156493
0.00156422
0.00156271
0.00156037
0.00155789
0.00155599
0.00155513
0.00155495
0.00155385
0.00154802
0.001529
0.00147493
0.00133276
0.00128966
0.00291168
0.0017947
0.00242459
0.00257709
0.00249201
0.0022223
0.00196574
0.00175709
0.00161729
0.00156748
0.00155496
0.00155188
0.00154886
0.00154463
0.0015424
0.00154576
0.0015566
0.00157268
0.00158942
0.00160433
0.00161749
0.00162954
0.00164105
0.00165259
0.00166476
0.00167824
0.00169369
0.00171173
0.00173285
0.00175722
0.00178431
0.00181138
0.00182616
0.00179212
0.00189166
0.00380182
0.00220688
0.00184579
0.00159171
0.00159618
0.0017824
0.00189334
0.00190463
0.00183851
0.00173283
0.00162795
0.00154306
0.00148242
0.00144452
0.00142285
0.00141205
0.00141089
0.0014193
0.0014365
0.00146041
0.00148833
0.00151801
0.00154812
0.00157822
0.00160833
0.00163869
0.00166954
0.00170098
0.00173281
0.00176423
0.00179324
0.00181458
0.00181237
0.00176326
0.00202657
0.00441535
0.00199074
0.00178309
0.00169867
0.00176389
0.00175732
0.00176383
0.00177025
0.00175091
0.00170194
0.00163161
0.00155474
0.00148751
0.00143884
0.00140595
0.00138522
0.00137615
0.00137838
0.00139096
0.00141239
0.00144105
0.00147539
0.00151358
0.0015541
0.00159622
0.00164006
0.00168633
0.00173604
0.00179037
0.00185048
0.00191745
0.00199137
0.00206358
0.00213793
0.00257273
0.00505533
0.00209846
0.00171787
0.001193
0.000892826
0.000805018
0.000891522
0.00113554
0.00144358
0.00169358
0.00182813
0.00185644
0.00181187
0.00173137
0.00164588
0.00157462
0.00152228
0.00148523
0.0014597
0.00144441
0.00143931
0.00144425
0.00145866
0.00148204
0.00151358
0.00155211
0.00159656
0.00164619
0.00170075
0.00176059
0.00182734
0.00190409
0.00199089
0.00214575
0.00281136
0.00554579
0.00253606
0.00416192
0.00389925
0.00309994
0.00212492
0.0012125
0.000530548
0.000284359
0.000450492
0.000821997
0.00119407
0.00145779
0.00159762
0.00164118
0.00163041
0.00159969
0.00156727
0.00153967
0.00151892
0.00150619
0.00150244
0.00150818
0.0015233
0.00154722
0.00157923
0.00161888
0.00166659
0.0017229
0.00178981
0.00187189
0.00197629
0.00211094
0.00233792
0.00310381
0.00593697
0.00299075
0.00525058
0.00549837
0.00529762
0.00477823
0.00389235
0.00274091
0.00160436
0.000744775
0.000267958
0.000169592
0.000350155
0.000661368
0.000973117
0.00121243
0.00136023
0.00143353
0.0014596
0.00146368
0.00146322
0.00146672
0.00147677
0.00149356
0.00151697
0.00154717
0.00158458
0.0016296
0.00168292
0.00174617
0.00182332
0.00192375
0.00208244
0.00249509
0.00352519
0.00654928
0.00195511
0.00461338
0.00511672
0.00535144
0.00548417
0.00545963
0.00519163
0.00459836
0.00377934
0.00290789
0.00210063
0.001446
0.000981944
0.000715052
0.000629336
0.000691267
0.000847262
0.00103278
0.00119558
0.0013076
0.00136346
0.00138128
0.00139225
0.00141617
0.00145694
0.00150823
0.00156393
0.00162412
0.00169461
0.00178561
0.00191532
0.00211924
0.00253531
0.00365144
0.00680744
0.00148624
0.00304674
0.00353034
0.00412341
0.00467856
0.0051608
0.005578
0.00589834
0.00605299
0.00595413
0.0055797
0.00500891
0.00431552
0.00356011
0.00279708
0.00207166
0.00142528
0.000901318
0.000553758
0.000441221
0.0005595
0.000835065
0.00111437
0.0012876
0.00131334
0.00128031
0.00129291
0.00136829
0.0014782
0.00160487
0.00177467
0.00210202
0.00291703
0.00425488
0.00743467
0.000806397
0.00209544
0.0029844
0.00368553
0.00413419
0.00442862
0.00467196
0.00492999
0.00523935
0.00559806
0.00595645
0.00624649
0.00640546
0.00637642
0.00612999
0.00567461
0.00503747
0.00425691
0.00338387
0.00245872
0.00155648
0.000545076
5.42969e-05
0.000177962
0.000336222
0.000870675
0.00122241
0.00127458
0.00123953
0.0013133
0.00153743
0.00194437
0.00283717
0.00435499
0.00768275
0.00119803
0.00275104
0.00383871
0.00455509
0.00499802
0.00526637
0.00540616
0.00542729
0.00533584
0.00516072
0.00496648
0.00482909
0.00480174
0.00489944
0.00509596
0.00533372
0.00554386
0.00565874
0.00560666
0.00530681
0.00473231
0.00389652
0.00283325
0.00162992
0.000387533
0.000261554
0.00016604
0.000380967
0.000840581
0.00103289
0.00114577
0.00166687
0.00309661
0.0047642
0.00819808
0.00278609
0.00453372
0.00518882
0.00551846
0.00576035
0.00596835
0.00615161
0.00631009
0.00643425
0.00650189
0.00648036
0.0063321
0.00602913
0.00558392
0.00506436
0.00456954
0.00420114
0.00403588
0.00408398
0.00426708
0.0044606
0.00456546
0.00445625
0.00398143
0.00299396
0.00138454
0.000257257
4.2243e-05
0.000181068
0.000395468
0.000817701
0.00110468
0.00232814
0.00453426
0.00903607
0.004486
0.00508816
0.00523384
0.0053204
0.00539246
0.00545286
0.00550086
0.00553943
0.00557623
0.00562259
0.00568947
0.00577969
0.00587781
0.00594422
0.00592111
0.0057462
0.00537555
0.00483159
0.00423072
0.0037326
0.00346229
0.0034339
0.00353405
0.00362084
0.00356814
0.00294515
0.0012458
0.000194603
0.000147045
1.71224e-05
0.000288813
0.00151672
0.00332434
0.00528187
0.00932409
0.00419723
0.00479197
0.00528061
0.00562287
0.0058803
0.00607406
0.00620645
0.00627542
0.00627545
0.0061988
0.00603971
0.00580286
0.00551443
0.00522808
0.00501081
0.00489985
0.00486129
0.00481094
0.00466933
0.00437337
0.00391366
0.00344095
0.00314297
0.00303627
0.00302007
0.00295542
0.00224087
0.000862046
4.16239e-05
0.000154793
0.000191682
0.000661337
0.00271473
0.00541561
0.0104023
0.00464317
0.00547458
0.00587457
0.00608896
0.0062312
0.00633214
0.00640505
0.00645787
0.00649299
0.00650652
0.00648643
0.00641028
0.00624685
0.00596675
0.00556553
0.00509415
0.00465313
0.0043195
0.00409244
0.00391901
0.00373144
0.00346642
0.00312929
0.00281512
0.00256495
0.00229749
0.00152613
0.000290951
0.00018888
8.77949e-05
5.35341e-05
0.000881451
0.00245844
0.00538004
0.010441
0.00468502
0.00534037
0.00568728
0.00589593
0.00603637
0.0061254
0.00616798
0.00616668
0.00612373
0.00604706
0.00595473
0.00586888
0.00580026
0.00573338
0.00562843
0.00544081
0.00514739
0.00476976
0.00436706
0.00399061
0.00365301
0.0033347
0.0029988
0.00260243
0.0020994
0.00135917
0.000379118
8.5236e-05
0.000118259
0.00010924
0.000309437
0.00162057
0.00516375
0.00742716
0.0113736
0.00457957
0.00559155
0.00609773
0.00636848
0.00654078
0.00665351
0.00671951
0.00674432
0.00671898
0.00662649
0.00645906
0.00622836
0.00596631
0.00571566
0.00550717
0.00533848
0.00517806
0.00498817
0.0047438
0.00444112
0.00409553
0.0037291
0.00335293
0.00294937
0.00246369
0.00175346
0.000487557
4.40499e-05
4.62079e-05
0.000152745
3.81428e-05
0.000102007
0.00200659
0.0056832
0.0113461
0.00485319
0.00594339
0.00631652
0.00646322
0.00652608
0.00654472
0.00655136
0.00658106
0.00662552
0.00665062
0.00662842
0.00654079
0.00638006
0.00615207
0.00588007
0.00560023
0.00534101
0.00510581
0.00487762
0.00463387
0.00435598
0.00403299
0.00365734
0.00320375
0.00260328
0.00169391
0.000410103
0.000108976
0.000282211
0.000783412
0.00396772
0.00608776
0.0067559
0.0085427
0.0119504
0.00524921
0.00628661
0.00657595
0.00663836
0.00660315
0.00649678
0.00640186
0.00640487
0.00644463
0.00644811
0.00641127
0.0063525
0.00627761
0.00617939
0.00604741
0.00587644
0.00567206
0.00544925
0.00522195
0.00499382
0.00475728
0.00449776
0.00419734
0.00383192
0.00335984
0.00270301
0.00180235
0.000877522
0.000535775
0.00121863
0.00326311
0.00570756
0.00837352
0.0101538
0.00787548
0.00572369
0.00686018
0.00707627
0.00703344
0.00686006
0.00657547
0.00643802
0.00659745
0.00681905
0.00691464
0.00687462
0.00675109
0.00659134
0.00642644
0.00627115
0.006127
0.0059883
0.00584804
0.00570136
0.00554676
0.00538463
0.00521567
0.00503904
0.00485064
0.00465074
0.00441863
0.00413637
0.00398526
0.0039043
0.00361531
0.00322059
0.00222484
0.00155976
0.000610146
0.00154524
0.00662616
0.00737156
0.00733408
0.00707974
0.0066191
0.00598255
0.00578073
0.00613897
0.00659839
0.00689705
0.00702523
0.00703014
0.00695058
0.00681763
0.00665701
0.00648682
0.00631611
0.00614699
0.00597795
0.00580678
0.00563074
0.0054467
0.0052487
0.00503919
0.00486827
0.00475456
0.0044774
0.00317096
0.00204717
0.00223306
0.00262001
0.0010873
0.000370603
0.00261524
0.0140726
0.00704024
0.00769412
0.0075873
0.00721354
0.00649046
0.00564884
0.00553449
0.00596762
0.0064044
0.00670536
0.00688442
0.00696339
0.0069605
0.00689279
0.00677073
0.00660278
0.00639732
0.0061595
0.00589271
0.00558933
0.00523012
0.00479847
0.00423591
0.00342339
0.00327683
0.00470078
0.00569205
0.00545305
0.00506589
0.00485768
0.00475516
0.00507121
0.00680108
0.00999067
0.0164709
0.00775769
0.00808662
0.00775697
0.007163
0.00613583
0.0053182
0.0054173
0.0059389
0.00635546
0.00665199
0.00686266
0.00699603
0.00705426
0.0070423
0.00696744
0.0068352
0.00664691
0.00639749
0.00607352
0.0056547
0.00511221
0.00443516
0.0037693
0.00367868
0.0047699
0.00631982
0.00685162
0.00690585
0.00708403
0.00724237
0.00730137
0.00740803
0.00773349
0.00777996
0.00570525
0.00869098
0.00824261
0.00761494
0.00672003
0.0053436
0.00459433
0.0048652
0.00553118
0.00604271
0.00640215
0.00667525
0.0068854
0.00703653
0.00712873
0.00716364
0.00714493
0.00707656
0.00696047
0.00679534
0.0065763
0.00629107
0.00592017
0.00544487
0.00492722
0.00463293
0.00483207
0.00518584
0.00540666
0.00559776
0.00579179
0.00605313
0.00634139
0.00647329
0.00620466
0.00259973
0.00975479
0.00837995
0.00747702
0.00632213
0.00487212
0.0044701
0.00483028
0.00527586
0.00567237
0.00601118
0.00630139
0.00654798
0.00675197
0.0069133
0.00703237
0.00711014
0.0071485
0.00715022
0.00711798
0.0070561
0.00696575
0.00684446
0.00668515
0.0064832
0.00623277
0.00592767
0.00555213
0.0050702
0.0045732
0.00422192
0.00415204
0.00452357
0.00484719
0.00404223
0.00247876
0.00919826
0.00781906
0.00708813
0.00608196
0.00484778
0.00433193
0.00454548
0.00485582
0.00519755
0.00552757
0.00581871
0.00606636
0.00627119
0.00643475
0.00655949
0.00664814
0.00670318
0.00672746
0.00672427
0.00670035
0.00666341
0.00662207
0.00655791
0.0063877
0.00605969
0.00584542
0.00584406
0.00578162
0.00553359
0.00516143
0.00478363
0.00445865
0.00372972
0.00213286
0.00565089
0.00781242
0.00778351
0.0077422
0.007421
0.00666438
0.00542132
0.00444536
0.00406362
0.00418874
0.00458515
0.00501121
0.00536582
0.00563594
0.00582929
0.00595599
0.00602937
0.0060578
0.00604842
0.00600774
0.00594262
0.00585754
0.00576548
0.00587473
0.00653427
0.00727292
0.00761479
0.00765891
0.00750997
0.00717109
0.00659242
0.00570701
0.00461253
0.00391524
0.00443141
0.009828
0.00638271
0.00767709
0.0081272
0.00823552
0.00807458
0.00740961
0.00599122
0.00445707
0.00345597
0.00335087
0.00384158
0.00439579
0.00482505
0.00512538
0.00531369
0.00540702
0.00542252
0.00537177
0.00525493
0.00507514
0.00493003
0.00517283
0.0062494
0.00782705
0.00881664
0.00910911
0.00906448
0.00880685
0.00832723
0.00755522
0.00647958
0.00549325
0.00548039
0.00675126
0.0104794
0.00602454
0.00733914
0.00779958
0.00797192
0.00804095
0.00800372
0.00759455
0.00631981
0.00441999
0.00290193
0.00272487
0.00339901
0.00406249
0.00452606
0.00482351
0.00498168
0.00501776
0.00494687
0.00478264
0.00454914
0.00433179
0.00439712
0.00515986
0.00660484
0.00797798
0.00884315
0.0092802
0.00936609
0.00912574
0.0085611
0.00774061
0.00699277
0.00682786
0.00736258
0.00858088
0.00606302
0.00718305
0.00756362
0.0076445
0.0076132
0.00755361
0.00754491
0.00744035
0.00652651
0.00443398
0.00254839
0.00245734
0.00325575
0.00393344
0.00438316
0.0046604
0.00478824
0.00477936
0.00464768
0.00441362
0.00411607
0.0038629
0.00388727
0.00441729
0.00536024
0.00643505
0.00746781
0.00829671
0.00877864
0.00884129
0.00852035
0.00802275
0.00763566
0.00742003
0.00694444
0.00663931
0.00793217
0.00822947
0.00816887
0.00793977
0.00756845
0.00715
0.00702719
0.00717069
0.00663635
0.00449222
0.00251008
0.00262991
0.00344785
0.00406854
0.00446625
0.00469927
0.00478446
0.00472751
0.00453719
0.00422866
0.00383577
0.00344007
0.003191
0.00324677
0.00368471
0.00449196
0.00554443
0.00663167
0.00752626
0.00804812
0.00813823
0.00792013
0.00748437
0.00634036
0.0071801
0.00826556
0.00829589
0.00809048
0.00778936
0.00743464
0.0070691
0.00672777
0.00673041
0.00690636
0.00640909
0.00429998
0.00282501
0.00324556
0.00395488
0.00444314
0.00475954
0.00495353
0.0050322
0.00499018
0.00481882
0.00451507
0.00409124
0.00358615
0.00308046
0.0026957
0.00256907
0.00280575
0.00341414
0.00428452
0.00522589
0.00602148
0.00644597
0.00639324
0.00585114
0.00835162
0.00858876
0.00809454
0.00755419
0.00697473
0.00654567
0.00657899
0.00686402
0.0069995
0.00706602
0.00693709
0.006069
0.0041775
0.00363653
0.00418366
0.00470398
0.00504247
0.00526449
0.00540862
0.00547959
0.00546479
0.00534782
0.00511679
0.00477033
0.00432107
0.00380114
0.00327535
0.00283689
0.00258122
0.00257877
0.00284718
0.00333063
0.00393168
0.00453073
0.0056676
0.0102441
0.00896777
0.00784123
0.00682745
0.00585648
0.00555425
0.00602482
0.00683666
0.00739749
0.00757264
0.00743355
0.00687382
0.00560135
0.00468058
0.00492906
0.00531492
0.00557097
0.00576474
0.00592532
0.00603443
0.0060778
0.00604556
0.00592666
0.00570744
0.00538087
0.00495042
0.00442849
0.00384652
0.0032593
0.00273402
0.00237969
0.00243061
0.00319824
0.00429922
0.00626998
0.0116513
0.00859123
0.00688761
0.00536811
0.00452928
0.00549275
0.00670705
0.00744184
0.00782706
0.00795387
0.00781941
0.00734084
0.00650771
0.00583563
0.00592091
0.00617429
0.00637696
0.00653716
0.00666792
0.00676768
0.00682218
0.00681956
0.00674608
0.00658253
0.00630779
0.00590361
0.00536393
0.00470873
0.00401285
0.00337549
0.00289034
0.00275027
0.00346204
0.00479453
0.00604563
0.0107988
0.0075145
0.00573984
0.00403563
0.00400532
0.00590365
0.00690205
0.0073759
0.00770809
0.00788315
0.00785464
0.00761403
0.00727124
0.00707053
0.00709336
0.00719274
0.00730768
0.00742361
0.00753279
0.00762892
0.00770453
0.00775072
0.00775505
0.00770094
0.00756861
0.00733632
0.0069832
0.00649301
0.00589845
0.00524907
0.00458983
0.00401979
0.00359509
0.00364393
0.0045859
0.00933989
0.00744151
0.00628963
0.00490274
0.00429421
0.00498886
0.00561607
0.00618698
0.00676051
0.00719944
0.007473
0.00764306
0.00778191
0.00790525
0.00801305
0.00811495
0.00821201
0.00830266
0.00838485
0.00845902
0.00852559
0.00858445
0.00863235
0.00866163
0.00865439
0.00857241
0.00835767
0.00798107
0.00746565
0.00685469
0.00628272
0.00570825
0.00413014
0.00235263
0.00578213
0.0080705
0.00769505
0.00720253
0.00630232
0.00492826
0.00405758
0.00420119
0.00457528
0.005187
0.00587648
0.00650368
0.00702447
0.00743735
0.00776195
0.008019
0.0082166
0.0083622
0.00846364
0.00852764
0.0085619
0.00857469
0.00857703
0.00858361
0.00860698
0.00861165
0.00848262
0.00830722
0.00830519
0.0083127
0.00809124
0.00746987
0.00604777
0.00478298
0.0055109
0.0112942
0.00673661
0.00776334
0.00794518
0.00779233
0.00723179
0.00617819
0.00525421
0.00462884
0.00425732
0.00421143
0.00442726
0.00486909
0.00546665
0.00611637
0.00671566
0.00719892
0.0075464
0.00776846
0.00788455
0.00791111
0.0078674
0.00776381
0.00760159
0.0074303
0.00785906
0.00970866
0.0110524
0.0111924
0.0106356
0.00949623
0.00789369
0.00659382
0.00688579
0.00870218
0.0128483
0.00538884
0.00739795
0.0081269
0.0085703
0.00887419
0.00891277
0.00844356
0.00758101
0.00647761
0.00525583
0.00409936
0.00320633
0.00277172
0.00292106
0.00361134
0.00459992
0.00559606
0.00641164
0.00698603
0.00731925
0.00742515
0.00732351
0.00702937
0.00664012
0.00683094
0.00891188
0.0118287
0.0130289
0.0127634
0.0116421
0.0100195
0.00872919
0.00849659
0.00900118
0.00968578
0.00546775
0.00717672
0.00774091
0.00799612
0.00821464
0.00852633
0.00894536
0.00928145
0.00933482
0.00891729
0.00792378
0.00643226
0.00463001
0.00279301
0.00138537
0.000886018
0.00147437
0.00283223
0.00424044
0.00543052
0.0063202
0.00690141
0.00718213
0.00716854
0.00695638
0.00703753
0.00816503
0.00996151
0.0114609
0.012003
0.0115977
0.0108464
0.0102348
0.00960883
0.00771057
0.00672722
0.00783337
0.00816113
0.0082553
0.0082221
0.00807855
0.00789965
0.00784934
0.00800898
0.00833985
0.00867221
0.00875108
0.00831075
0.00715833
0.0053078
0.00304044
0.000688775
0.000605552
0.00056816
0.00212428
0.00369163
0.00488565
0.00578287
0.00644605
0.00688286
0.00701296
0.00697649
0.00718696
0.00792624
0.00909672
0.0101022
0.0104873
0.0103637
0.00968004
0.00803354
0.00791377
0.00847981
0.0087273
0.00894821
0.00915378
0.00929848
0.00930016
0.00907524
0.00861956
0.00805602
0.007594
0.00739533
0.00745935
0.00760473
0.00756717
0.00705736
0.00558578
0.00341939
0.000772992
0.000724725
0.00111679
0.00273817
0.0041273
0.00525022
0.00631397
0.00734135
0.00787617
0.00783053
0.0075686
0.00755166
0.00803634
0.00869756
0.00900358
0.00887563
0.00967217
0.00772791
0.00812365
0.00837287
0.00856342
0.00873403
0.00891623
0.00913271
0.00937598
0.00957407
0.00959987
0.00932278
0.0087245
0.00797211
0.00731879
0.00694511
0.00687465
0.00701105
0.00697408
0.00608544
0.00289826
0.000521292
0.000931869
0.00237456
0.0036611
0.00481369
0.00622471
0.00775509
0.00858617
0.00864212
0.00828384
0.00790335
0.00778879
0.00794826
0.00848797
0.0117613
0.00850987
0.0086489
0.00881888
0.00894668
0.00901947
0.00902265
0.0089454
0.00880303
0.00865573
0.00858544
0.00861787
0.00865784
0.00854556
0.00817031
0.00751937
0.00663832
0.00577436
0.00543804
0.00562273
0.00487763
0.00235366
0.00109824
0.00199705
0.00343111
0.00472904
0.00612244
0.00782516
0.00912991
0.00956889
0.00934692
0.00868424
0.0079378
0.0079726
0.00919009
0.0136663
0.0094883
0.0088914
0.00890531
0.00901359
0.00912587
0.00921145
0.009241
0.00917587
0.00895814
0.00853092
0.00793171
0.00732402
0.00685643
0.0065514
0.00633546
0.00604214
0.00534707
0.00434361
0.00361124
0.00227229
0.000993731
0.00184639
0.00336408
0.00457386
0.00564356
0.0068686
0.00838281
0.00971341
0.0102876
0.0101532
0.00946955
0.00862237
0.00870909
0.0101022
0.0143273
0.00957058
0.00877582
0.00882865
0.00891564
0.00895314
0.00892473
0.00882897
0.00868714
0.00853045
0.00828943
0.00779351
0.00693622
0.00577114
0.00451528
0.00348562
0.00302762
0.00278126
0.00188199
0.00123599
0.00192133
0.00277543
0.00378217
0.0047374
0.00561275
0.00649267
0.00747882
0.00868563
0.00993232
0.0107067
0.010812
0.0103622
0.00975567
0.00982633
0.0109253
0.0143158
0.0093672
0.00884129
0.00896316
0.00906285
0.00909144
0.00902028
0.00880943
0.00843354
0.00795495
0.007456
0.00685544
0.005969
0.00463687
0.00279102
0.000993246
0.000986588
0.0030842
0.00461117
0.00500151
0.00531829
0.00579293
0.00635061
0.00691457
0.0074458
0.00794499
0.00845728
0.00908494
0.00986807
0.0105583
0.0108443
0.0107076
0.0104537
0.0105768
0.0113797
0.0138192
0.00946223
0.00887553
0.00890733
0.00897047
0.00900731
0.00899219
0.00889664
0.00868381
0.0083083
0.00774733
0.00700742
0.00604238
0.00478817
0.00322475
0.00165047
0.00114647
0.00251568
0.00475173
0.00622847
0.00705993
0.0077359
0.00829534
0.00872566
0.0090642
0.00933893
0.00957728
0.00984493
0.0102352
0.010706
0.0110081
0.0110198
0.0109236
0.0109986
0.0114846
0.0130257
0.00921809
0.0087433
0.00878648
0.00883023
0.00882136
0.0087407
0.00859151
0.00843272
0.00833009
0.00819118
0.00787902
0.00734799
0.00656044
0.00541875
0.00369989
0.00148256
0.000837769
0.000798144
0.00368905
0.0061916
0.00780683
0.00895279
0.00967412
0.0100379
0.0101741
0.0101768
0.0101313
0.0101693
0.0104104
0.0107531
0.0109543
0.0110159
0.0111048
0.0114215
0.0124089
0.00937902
0.00894487
0.00897026
0.00901386
0.00901664
0.00894298
0.00876191
0.00849326
0.0082599
0.00811387
0.00793266
0.00760726
0.00710534
0.00641308
0.005446
0.00389586
0.00151673
0.000613634
0.00028293
0.00245781
0.00545811
0.00775902
0.00937528
0.0103523
0.0108092
0.0109257
0.0108073
0.0105624
0.0103822
0.0104338
0.010623
0.0107911
0.0109554
0.0112495
0.0119274
0.00917172
0.00862942
0.00858219
0.0085829
0.00856741
0.00851395
0.0084214
0.00833003
0.00829113
0.00827398
0.00818939
0.0079712
0.00758646
0.00702551
0.00629416
0.00533683
0.00382381
0.00125763
0.00014891
0.000454611
0.00261258
0.00541721
0.00775302
0.00937965
0.010321
0.0107356
0.0107936
0.0105937
0.0102756
0.0100823
0.0101497
0.01035
0.0105801
0.0109008
0.0114148
0.00908912
0.00871736
0.00867597
0.00864234
0.00856685
0.00842752
0.00823369
0.00807934
0.00809769
0.00824471
0.00834647
0.00830418
0.00810124
0.00773689
0.00720076
0.00646817
0.00546133
0.0038497
0.00112881
0.000455203
0.000797741
0.00287758
0.00574777
0.00838069
0.0101688
0.0110516
0.0112877
0.0111255
0.0107328
0.0103382
0.0101769
0.0102336
0.0103729
0.0105645
0.0107515
0.00893082
0.00861446
0.00852848
0.00845821
0.00835676
0.00820354
0.00801562
0.00788393
0.00794344
0.00820379
0.00848595
0.00864225
0.00862934
0.00845032
0.0081177
0.00763851
0.00699261
0.00606994
0.0045278
0.00185068
0.000500943
0.000908201
0.0021102
0.00422026
0.00679223
0.00897921
0.0102898
0.0107949
0.0107886
0.0105429
0.0103306
0.0102737
0.0103105
0.0104089
0.010791
0.0090475
0.00862706
0.00841541
0.00823593
0.00802636
0.00777045
0.00754459
0.00749349
0.00767432
0.00803876
0.00843905
0.00873229
0.00886771
0.00884733
0.00868118
0.00837334
0.0079097
0.00722072
0.00612926
0.00428165
0.00190222
0.00155041
0.00231515
0.00333287
0.00478377
0.00671756
0.00868434
0.0100467
0.0106136
0.0106491
0.0104774
0.0103384
0.0103018
0.0103949
0.0110349
0.00920767
0.0086456
0.0082991
0.00800059
0.00765295
0.00723365
0.00692215
0.00698238
0.0074175
0.00801352
0.00856227
0.00895672
0.00917376
0.00922557
0.00913125
0.0089073
0.00855908
0.00805799
0.00729329
0.00604831
0.00407652
0.00221213
0.00191795
0.00267243
0.00383716
0.0052339
0.00687153
0.00855848
0.0098493
0.0105287
0.0107358
0.0107214
0.0106706
0.0107033
0.0114245
0.00960833
0.00872197
0.00818743
0.0077378
0.00720554
0.00657617
0.00620415
0.00641998
0.00711047
0.00795959
0.00870555
0.0092328
0.00953494
0.00963627
0.00955857
0.00931573
0.00889951
0.00823353
0.00713615
0.00565642
0.00479274
0.00439009
0.00390645
0.00356416
0.00366731
0.00436039
0.00555036
0.00707964
0.00857671
0.00964142
0.010247
0.0105444
0.0107069
0.0109608
0.0122071
0.00978905
0.00860416
0.0079161
0.00732044
0.00656603
0.00569192
0.00534388
0.00589582
0.00693385
0.00797713
0.0088444
0.00949776
0.00993701
0.0101683
0.0101932
0.0100045
0.00957893
0.00885718
0.00771834
0.00613754
0.00465767
0.00423651
0.00459326
0.00495246
0.00527265
0.00569333
0.00633853
0.00733205
0.00859681
0.00968876
0.0103286
0.0106781
0.0109414
0.0113353
0.0124169
0.0102016
0.00865
0.00783533
0.00711509
0.00614191
0.00498622
0.00451865
0.00523347
0.00651681
0.00774276
0.00875332
0.00956348
0.0102025
0.0106875
0.0110268
0.0112202
0.0112566
0.0111084
0.0107346
0.010092
0.00917057
0.00812487
0.00723679
0.00659049
0.00618765
0.00609069
0.00629565
0.00682198
0.00775369
0.00897215
0.0100116
0.0106451
0.0110459
0.0114582
0.0122367
0.0102318
0.00840587
0.00757685
0.00680504
0.00567275
0.00428694
0.00376627
0.00484991
0.00651767
0.00793419
0.00901678
0.00985421
0.0105185
0.011046
0.0114564
0.0117617
0.0119682
0.0120763
0.0120771
0.0119496
0.0116541
0.0111349
0.0103447
0.00924274
0.00792065
0.00683733
0.00634833
0.00640052
0.00690936
0.00787275
0.00905006
0.0100076
0.0106541
0.0112832
0.0130919
0.0101076
0.00837332
0.00762201
0.00688819
0.00576532
0.00425076
0.00343817
0.00468234
0.00674723
0.00835829
0.00947636
0.0102785
0.0108862
0.0113536
0.0117071
0.0119627
0.0121315
0.0122207
0.0122312
0.0121561
0.0119793
0.0116583
0.011121
0.0102967
0.00925563
0.00832458
0.00774168
0.00748505
0.0075205
0.00794335
0.00879915
0.00978932
0.0106488
0.0117144
0.0149701
0.00973495
0.00825033
0.00762775
0.00700247
0.00601212
0.00445694
0.00299836
0.00367224
0.00622337
0.00836454
0.00971012
0.0105724
0.0111765
0.0116144
0.0119243
0.012125
0.0122273
0.0122359
0.0121547
0.01201
0.0118419
0.0116265
0.0112985
0.0108275
0.0102777
0.00979091
0.00942152
0.00912617
0.00889737
0.00887687
0.00932077
0.0101689
0.0111013
0.012454
0.0164337
0.00948494
0.00832285
0.00783485
0.00733546
0.00652788
0.00510722
0.00316823
0.00230861
0.00455186
0.00748557
0.00938335
0.0104875
0.0111701
0.0116292
0.0119368
0.0121188
0.0121826
0.0121387
0.0120364
0.0119684
0.0119709
0.0119661
0.0118713
0.0116676
0.0114048
0.0111592
0.0109396
0.0106915
0.0103942
0.0101963
0.0104208
0.0110972
0.0119462
0.0132976
0.0170843
0.00933021
0.00834367
0.00795135
0.00759207
0.00705209
0.00602978
0.00409315
0.00124648
3.45127e-05
0.00311474
0.00649274
0.00879429
0.0100591
0.0108192
0.0113217
0.0116467
0.011816
0.0118327
0.0117311
0.0116354
0.011686
0.0118707
0.0120643
0.0121755
0.0121795
0.012103
0.0119806
0.0118186
0.0116247
0.0115174
0.0117213
0.0122268
0.0128792
0.0139655
0.0167339
0.00932807
0.00837556
0.00803477
0.00772006
0.00725222
0.00646374
0.00521654
0.00332967
0.000447454
0.000149047
0.00205853
0.0066482
0.00894954
0.0101402
0.0108643
0.0113441
0.0116425
0.0117715
0.0117327
0.011586
0.0114932
0.0116017
0.0119015
0.0122785
0.0126084
0.0127885
0.0127876
0.012677
0.0125735
0.0125908
0.0127983
0.01313
0.0135274
0.0141577
0.0154882
0.00909612
0.00834971
0.00808431
0.00784232
0.00747806
0.00681619
0.00565581
0.00401856
0.0022517
0.000509712
0.000805121
0.00444332
0.00769925
0.00939827
0.0103676
0.0110014
0.0114387
0.0117128
0.0118159
0.0117399
0.0115537
0.0114325
0.0115432
0.0119222
0.0124831
0.013047
0.0133942
0.0134561
0.0133983
0.0134082
0.0135267
0.0136832
0.0138355
0.0140094
0.0141537
0.0092208
0.00846778
0.00814819
0.00790061
0.00760129
0.00716285
0.00642884
0.0050618
0.00288875
0.00056094
0.000611153
0.00113927
0.00499574
0.00807825
0.00963756
0.0105411
0.0111474
0.0115773
0.011854
0.01196
0.0118792
0.0116746
0.0115199
0.0116018
0.0120039
0.0126773
0.0134106
0.0138969
0.0140561
0.01407
0.0140612
0.0140377
0.0139767
0.0138337
0.0136219
0.00949243
0.00844582
0.00803503
0.0077302
0.00735761
0.00683812
0.00620142
0.0054096
0.00419669
0.00228528
0.000109355
0.000235231
0.00117149
0.00598357
0.00865735
0.00998132
0.0107678
0.0113224
0.011737
0.0120191
0.0121359
0.0120621
0.0118559
0.0116867
0.0117404
0.0121181
0.0128069
0.0135946
0.0141427
0.0143598
0.0143664
0.0142559
0.0140701
0.0138323
0.0141902
0.0096898
0.00846886
0.00799786
0.0076714
0.00730872
0.00684549
0.00625312
0.00539905
0.00419829
0.00261978
0.000783138
0.00040789
0.000935154
0.00284019
0.00723151
0.00933822
0.0103943
0.0110613
0.011564
0.0119549
0.0122229
0.0123264
0.0122434
0.0120487
0.0119132
0.0119833
0.0123393
0.0129844
0.0137018
0.0141789
0.0143552
0.0143239
0.0141906
0.0141254
0.0154969
0.00988435
0.00833492
0.00778577
0.00740066
0.00695476
0.00641744
0.00589645
0.00531078
0.00443113
0.00311897
0.0014575
0.000500428
0.000165683
0.00111902
0.00590317
0.00874596
0.0100679
0.0108446
0.0114013
0.0118333
0.0121637
0.0123663
0.0123996
0.0122827
0.0121567
0.0121646
0.0123511
0.0127565
0.013352
0.0138965
0.0142048
0.0143158
0.0143561
0.0145928
0.0165332
0.00971003
0.00818171
0.00770006
0.00735192
0.00693191
0.00640357
0.00584481
0.00522029
0.00437165
0.00317848
0.00160858
0.000724314
5.88775e-05
0.000921141
0.00494454
0.00857261
0.0100178
0.0108136
0.0113785
0.0118049
0.0121258
0.0123392
0.0123995
0.0123169
0.0122611
0.0124093
0.0127201
0.0131121
0.0135708
0.0139912
0.0142495
0.014374
0.0144668
0.0147317
0.0159942
0.0093618
0.00803954
0.00761087
0.00727371
0.00685588
0.00633524
0.00580949
0.00529849
0.00458987
0.00353405
0.00209252
0.000526355
1.74499e-05
0.000513045
0.00428048
0.00838081
0.00999258
0.0108145
0.0113754
0.0117912
0.0120948
0.0122868
0.0123136
0.012195
0.0121484
0.0124337
0.0129832
0.0135435
0.0140029
0.0143206
0.0144764
0.0145166
0.0144929
0.0144086
0.0140741
0.00910158
0.00803567
0.00763265
0.00730487
0.00694043
0.00652776
0.00603209
0.00552726
0.00492961
0.0040489
0.00277041
0.00118518
0.000252348
0.00020187
0.00305199
0.00785025
0.00997021
0.0108765
0.0114549
0.0119016
0.0122336
0.0124234
0.0124243
0.012247
0.0120793
0.0122303
0.0127697
0.013421
0.0139365
0.014252
0.0143893
0.0143899
0.0142624
0.0138588
0.0124607
0.00911201
0.00805855
0.00752178
0.00708491
0.00670781
0.00649313
0.00622385
0.00583852
0.00537564
0.00469549
0.0036776
0.00224725
0.00061672
0.00065438
0.000946076
0.00554981
0.00961383
0.0107369
0.0113933
0.011932
0.0123879
0.0127188
0.0128667
0.0128051
0.0126093
0.0124982
0.0126829
0.0131215
0.0135762
0.0138747
0.0139953
0.013962
0.0137772
0.0133207
0.0123509
0.00957684
0.00812915
0.00733811
0.00670585
0.00629851
0.0063664
0.00639808
0.00619184
0.0058555