/*--------------------------------*- C++ -*----------------------------------*\
| =========                 |                                                 |
| \\      /  F ield         | OpenFOAM: The Open Source CFD Toolbox           |
|  \\    /   O peration     | Version:  v1906                                 |
|   \\  /    A nd           | Web:      www.OpenFOAM.com                      |
|    \\/     M anipulation  |                                                 |
\*---------------------------------------------------------------------------*/
FoamFile
{
    version     2.0;
    format      ascii;
    class       volScalarField;
    location    "72";
    object      omega;
}
// * * * * * * * * * * * * * * * * * * * * * * * * * * * * * * * * * * * * * //

dimensions      [0 0 -1 0 0 0 0];


internalField   nonuniform List<scalar> 
78750
(
1294.31
199.401
144.853
93.8707
35.0823
11.9728
22.0207
18.5742
19.9185
19.2264
19.3564
19.2224
19.1385
19.0386
18.9425
18.8538
18.7691
18.6831
18.5956
18.5087
18.423
18.3378
18.2527
18.167
18.0797
17.9899
17.8966
17.7985
17.694
17.5808
17.4554
17.3133
17.1521
16.992
498.097
449.54
23.8299
8.33115
6.44745
11.0255
14.3941
13.111
12.6049
12.0935
11.933
11.8834
11.8352
11.7181
11.5472
11.3611
11.1967
11.0652
10.9535
10.8495
10.7497
10.6531
10.5573
10.4606
10.3621
10.2615
10.1584
10.0519
9.94015
9.8202
9.6868
9.52979
9.32003
8.9437
8.1283
737.473
401.648
12.9479
14.3105
14.5019
13.1594
12.2923
12.2504
12.2319
11.9757
11.4556
10.8208
10.2872
9.91123
9.67773
9.64117
9.82869
10.0908
10.2777
10.3848
10.4437
10.4724
10.4781
10.4653
10.4403
10.4111
10.3838
10.3615
10.3441
10.3282
10.308
10.2747
10.2123
10.0956
10.0336
741.749
412.194
12.1033
11.7174
11.5056
11.8926
12.2645
12.3787
12.4593
12.4589
12.3346
12.0665
11.698
11.3738
11.1574
11.0098
10.908
10.8381
10.7855
10.7488
10.7313
10.7258
10.7228
10.7175
10.7098
10.7019
10.6958
10.6931
10.6926
10.6895
10.672
10.6145
10.45
10.0152
9.99585
744.822
410.584
13.138
13.5368
13.3393
12.6538
11.9577
11.3548
10.9226
10.7586
10.7147
10.7016
10.6895
10.6736
10.6637
10.6712
10.7025
10.751
10.8021
10.8477
10.8878
10.9245
10.9594
10.9943
11.0311
11.0718
11.1183
11.1726
11.2361
11.3093
11.391
11.4746
11.5293
11.4691
11.8712
748.312
413.247
11.5893
10.8767
10.8948
11.4417
11.7539
11.7807
11.5885
11.2765
10.9576
10.6913
10.4952
10.3695
10.2962
10.2583
10.252
10.2768
10.3304
10.4055
10.4932
10.586
10.6795
10.7722
10.8642
10.9564
11.0493
11.1433
11.238
11.3311
11.4173
11.4827
11.4868
11.3836
12.248
750.644
411.897
11.3993
11.2138
11.436
11.4138
11.4179
11.4177
11.3448
11.1892
10.9716
10.7317
10.5179
10.3601
10.2512
10.1811
10.1489
10.1538
10.193
10.2608
10.3515
10.4597
10.579
10.7045
10.8337
10.9667
11.1056
11.2533
11.4129
11.5878
11.781
11.9943
12.2098
12.4608
13.6835
753.041
412.435
10.9813
9.31494
8.32842
8.11108
8.55477
9.49702
10.5091
11.2359
11.5913
11.6468
11.504
11.2621
11.0042
10.7861
10.6231
10.5059
10.4237
10.3735
10.3558
10.3702
10.4147
10.4876
10.5857
10.7047
10.8406
10.9909
11.1541
11.3311
11.5265
11.7502
12.0081
12.4778
14.2465
754.834
415.199
16.7379
16.1723
14.4193
12.0299
9.31488
6.69714
5.62996
6.67792
8.34084
9.67758
10.5025
10.9016
11.0111
10.9663
10.8674
10.7656
10.6788
10.613
10.5721
10.5593
10.5764
10.6228
10.6963
10.7942
10.9148
11.0586
11.2265
11.4235
11.6621
11.9622
12.3494
13.0022
14.9349
756.275
418.23
18.9036
19.3158
18.9391
17.9667
16.2138
13.6553
10.5965
7.57142
5.29534
4.85896
6.07794
7.61762
8.85993
9.6875
10.1542
10.3712
10.4422
10.4493
10.4452
10.4547
10.4848
10.5361
10.608
10.7009
10.8154
10.9521
11.1124
11.3002
11.5264
11.8182
12.275
13.3995
15.8434
758.476
411.731
17.882
18.8013
19.186
19.3761
19.2867
18.7607
17.6219
15.9804
14.058
12.0378
10.142
8.58667
7.59855
7.32021
7.66823
8.34666
9.05174
9.61061
9.96621
10.1324
10.1836
10.2199
10.2991
10.429
10.5881
10.7584
10.9413
11.1539
11.4246
11.8035
12.3879
13.5222
16.1221
759.397
408.602
14.6779
15.7196
16.9104
17.9619
18.8261
19.5345
20.0474
20.2646
20.0538
19.3837
18.3552
17.0438
15.5078
13.8004
11.9712
10.0886
8.28949
6.90367
6.49086
7.15439
8.34301
9.34617
9.8953
9.9477
9.84379
9.90083
10.1553
10.5057
10.8968
11.409
12.3519
14.4487
17.3337
761.618
403.755
12.2406
14.4159
15.9419
16.8589
17.4457
17.9257
18.4242
18.9978
19.6277
20.2218
20.6752
20.8987
20.8121
20.3737
19.5822
18.4436
16.9656
15.16
12.9913
10.4567
6.63186
4.00757
5.14781
6.06993
8.49161
9.69891
9.82563
9.71151
9.97538
10.7015
11.9183
14.2632
17.5179
762.452
406.259
13.7572
16.1778
17.5968
18.4162
18.8911
19.1308
19.1642
19.0079
18.7151
18.3996
18.1947
18.1929
18.411
18.7864
19.207
19.5552
19.7236
19.5965
19.0328
17.9611
16.3123
13.9625
10.7071
5.91059
3.67342
5.00523
6.21987
8.31513
9.00509
9.41012
11.1067
14.8191
18.2548
764.301
416.573
17.5418
18.7888
19.3948
19.8248
20.1829
20.489
20.7451
20.9372
21.0316
20.9788
20.7198
20.2073
19.4536
18.5581
17.6845
17.0283
16.7551
16.8876
17.257
17.6191
17.7959
17.5506
16.5748
14.3988
10.0067
5.3396
4.06345
5.03705
6.25525
8.19817
9.31748
13.0173
17.8329
767.161
427.289
18.6579
18.9205
19.0674
19.1888
19.2923
19.3777
19.451
19.5254
19.6192
19.7483
19.9126
20.0813
20.1861
20.1326
19.8178
19.1605
18.1794
17.0561
16.0879
15.5586
15.5263
15.7493
15.9273
15.7961
14.3491
9.60923
5.05579
3.52579
3.84267
5.68734
10.6992
15.3725
19.1943
768.246
425.682
18.0861
18.9539
19.5427
19.9754
20.2951
20.5101
20.6201
20.6184
20.4935
20.2356
19.8506
19.3787
18.9086
18.5558
18.384
18.3276
18.234
17.9599
17.3812
16.4632
15.4883
14.8575
14.6337
14.6031
14.4418
12.618
8.20274
3.91914
3.70156
5.1319
7.51654
13.8514
19.367
771.902
428.242
19.2969
19.9902
20.3542
20.594
20.7644
20.8884
20.9791
21.0397
21.0633
21.0297
20.9021
20.6292
20.1595
19.4774
18.6589
17.8746
17.2685
16.847
16.5125
16.1301
15.5639
14.8194
14.1022
13.5054
12.8116
10.5257
5.44192
3.69637
4.46964
4.19529
8.63006
13.5176
19.4237
772.073
428.608
19.0875
19.6779
20.0244
20.2552
20.4013
20.4727
20.4747
20.4115
20.296
20.1565
20.0276
19.924
19.8167
19.6369
19.3072
18.7838
18.0973
17.3459
16.6202
15.9434
15.2749
14.5303
13.5961
12.3076
10.1055
6.0977
4.36421
4.6651
4.58051
5.84858
10.9707
18.9165
22.5997
775.231
427.914
19.4824
20.3304
20.7739
21.0538
21.2368
21.3443
21.3848
21.3446
21.1982
20.9332
20.566
20.1455
19.7403
19.4011
19.1224
18.8486
18.5119
18.0649
17.4956
16.8251
16.087
15.2933
14.3902
13.2135
11.2538
6.53607
3.99892
4.13721
4.92498
4.56027
5.39578
12.2584
19.8812
774.918
429.48
20.0784
20.7005
20.9469
21.0587
21.1015
21.1242
21.1777
21.2494
21.2878
21.2501
21.1077
20.8471
20.4752
20.0268
19.56
19.1216
18.7167
18.3143
17.8713
17.3487
16.7176
15.9502
14.9728
13.5781
11.1473
6.31136
4.63532
5.76521
8.00121
16.7134
20.8156
21.9635
24.4168
776.944
431.805
20.6124
21.0817
21.1911
21.1497
21.0001
20.8634
20.8703
20.932
20.9394
20.8863
20.799
20.6846
20.53
20.3172
20.0366
19.6963
19.3202
18.9312
18.5345
18.1158
17.6466
17.0897
16.3915
15.4534
14.0527
11.8495
8.94395
7.27496
9.28187
14.4284
19.1465
23.5625
26.1354
762.495
434.486
21.5076
21.8584
21.8128
21.5717
21.1611
20.9578
21.1974
21.5256
21.662
21.5952
21.4031
21.1559
20.8997
20.6566
20.4284
20.2059
19.9776
19.7355
19.4771
19.2025
18.9128
18.6059
18.2742
17.9195
17.501
16.9808
16.7123
16.5577
15.9254
14.9816
12.2541
10.0688
6.37614
740.623
439.623
22.2856
22.25
21.8886
21.2142
20.2375
19.9116
20.4859
21.2045
21.6573
21.8435
21.8421
21.7133
21.5038
21.252
20.9844
20.7138
20.4425
20.1672
19.8834
19.5858
19.2676
18.9163
18.5374
18.2189
18.0193
17.3546
14.3707
11.935
12.8958
13.6305
8.93969
7.12385
14.913
786.315
441.914
22.7593
22.6278
22.0994
21.0314
19.6829
19.4714
20.1824
20.8868
21.3591
21.6329
21.7494
21.7399
21.6315
21.4398
21.1759
20.8503
20.4672
20.0283
19.519
18.8977
18.1125
17.0201
15.3805
15.2967
18.2824
19.9551
19.4829
18.8468
18.5088
18.3237
18.9472
21.7636
26.1392
791.049
445.821
23.3351
22.9038
22.07
20.5299
19.1576
19.2862
20.1441
20.8134
21.2774
21.6009
21.8032
21.891
21.8733
21.7607
21.5612
21.2749
20.8911
20.3849
19.7142
18.8136
17.626
16.3448
16.0519
18.0236
20.7464
21.6963
21.7857
22.0683
22.3404
22.465
22.6358
23.0772
23.0556
754.262
450.871
23.5635
22.7152
21.4264
19.2398
17.8604
18.2988
19.4594
20.3173
20.8958
21.3219
21.6427
21.8698
22.0068
22.0583
22.0308
21.9305
21.7599
21.5163
21.1912
20.7635
20.1979
19.4485
18.5794
18.0148
18.3009
18.9114
19.2799
19.57
19.8577
20.2735
20.7779
21.0425
20.6967
743.348
456.964
23.8027
22.5459
20.8226
18.3822
17.601
18.2475
19.0461
19.7278
20.2867
20.7509
21.1358
21.4479
21.6904
21.8666
21.9796
22.0337
22.0337
21.9838
21.8909
21.7568
21.578
21.3444
21.0474
20.6669
20.1754
19.5432
18.6984
17.7927
17.133
16.994
17.7043
18.2962
16.5634
743.058
454.549
23.0333
21.9239
20.3097
18.1548
17.2705
17.7738
18.3786
18.9842
19.5391
20.0126
20.4066
20.7255
20.975
21.1613
21.29
21.3658
21.3937
21.3792
21.3328
21.2665
21.1943
21.0878
20.8084
20.2792
19.9911
20.055
19.9817
19.5835
18.9561
18.2662
17.5903
16.0485
12.4085
756.007
447.088
22.929
22.8097
22.2795
21.0654
19.0458
17.4363
16.867
17.2017
17.9569
18.7019
19.2938
19.7307
20.0344
20.228
20.3343
20.3673
20.3389
20.2595
20.1392
19.9832
19.818
20.0305
21.1621
22.3214
22.8199
22.875
22.65
22.1398
21.2404
19.7799
17.8354
16.604
17.8215
770.546
438.765
22.7941
23.4212
23.5551
23.2889
22.2371
19.9669
17.3547
15.5621
15.5118
16.5518
17.5946
18.3556
18.868
19.1788
19.3254
19.3394
19.2401
19.0252
18.6968
18.4234
18.8291
20.6038
23.0117
24.4389
24.8526
24.7964
24.4457
23.7813
22.6798
21.0683
19.5103
19.552
21.6303
772.057
436.4
22.3234
23.0135
23.2679
23.3636
23.2849
22.6051
20.5396
17.2408
14.2788
14.0819
15.6102
16.9311
17.7942
18.3262
18.6003
18.6577
18.5263
18.2261
17.7915
17.3643
17.4293
18.716
21.0387
23.1002
24.3493
24.9859
25.1441
24.862
24.133
23.0232
21.9689
21.7327
22.5048
765.207
436.41
22.0101
22.5938
22.7314
22.7115
22.6565
22.6625
22.4551
20.9172
17.2447
13.403
13.3987
15.2598
16.6484
17.51
18.0224
18.2551
18.2415
18.0056
17.5749
17.0048
16.4788
16.4445
17.3504
18.9622
20.7088
22.3079
23.5582
24.3022
24.4708
24.112
23.4816
22.9623
22.6538
759.64
439.64
23.0802
23.5273
23.4598
23.1491
22.6291
22.0423
21.8976
22.0955
21.1566
17.3875
13.3274
13.7777
15.6285
16.8891
17.6525
18.0891
18.2531
18.1621
17.828
17.263
16.5048
15.6801
15.0824
15.0851
15.877
17.3642
19.2085
21.0044
22.4333
23.2932
23.5296
23.3015
22.734
757.651
442.663
23.602
23.696
23.4363
23.0242
22.5059
21.9274
21.3817
21.4072
21.6887
20.849
17.1051
14.1272
15.1411
16.631
17.5856
18.1805
18.5408
18.6946
18.6386
18.3555
17.828
17.0534
16.0655
14.9809
14.0462
13.6239
14.0297
15.2573
16.9589
18.6953
20.1099
20.8927
20.9159
755.873
448.936
24.0421
23.422
22.6956
21.8761
21.2176
21.2169
21.5874
21.7624
21.8808
21.7089
20.3095
16.94
15.914
17.0376
18.0373
18.6618
19.0629
19.3229
19.4571
19.4481
19.2687
18.8929
18.3047
17.5028
16.512
15.4207
14.4095
13.7252
13.5996
14.1166
15.131
16.4115
17.6979
755.321
459.081
24.5877
23.1023
21.6667
20.152
19.5457
20.235
21.4967
22.3496
22.6214
22.4375
21.6165
19.5441
17.9162
18.3858
19.0911
19.5451
19.8821
20.1594
20.3496
20.4329
20.3942
20.2159
19.8718
19.3398
18.6083
17.6722
16.5517
15.3199
14.1053
13.1855
13.2399
15.0377
17.3858
757.554
467.056
24.1732
21.7983
19.4278
17.7912
19.2616
21.2236
22.3936
22.993
23.1938
23.0158
22.3284
21.0412
19.9211
20.0647
20.4976
20.8371
21.1016
21.3172
21.4838
21.5804
21.5903
21.4932
21.2581
20.8481
20.2203
19.3421
18.2101
16.9134
15.6189
14.5346
14.1409
15.6307
18.2884
756.633
463.222
22.6572
19.9149
16.8333
16.5336
19.976
21.688
22.4136
22.8902
23.1337
23.086
22.7253
22.1952
21.8758
21.9144
22.0721
22.2516
22.4311
22.5997
22.7489
22.8685
22.9468
22.9668
22.9054
22.734
22.4185
21.9219
21.202
20.2779
19.2009
18.0225
16.9179
15.943
15.8741
751.431
455.413
22.4532
20.6389
18.2384
17.1795
18.6548
19.7826
20.6939
21.5565
22.1882
22.5594
22.7773
22.9602
23.1311
23.2825
23.4262
23.5631
23.6905
23.8058
23.9096
24.0029
24.0859
24.1551
24.2007
24.1988
24.0944
23.8031
23.2805
22.5453
21.6514
20.7922
19.8153
16.7777
13.0925
756.86
448.394
22.8044
22.0352
20.5955
18.2731
16.7644
17.1661
17.9358
19.0558
20.2146
21.1994
21.9749
22.563
23.0123
23.3614
23.6252
23.816
23.9455
24.0232
24.0598
24.0666
24.0588
24.0569
24.0787
24.0771
23.8974
23.6911
23.758
23.7932
23.4509
22.4607
20.1719
18.2636
19.9312
776.054
440.948
22.9123
23.1282
22.8565
21.9508
20.2483
18.7631
17.7577
17.2027
17.2577
17.7684
18.6238
19.6611
20.6978
21.5929
22.2795
22.754
23.0449
23.185
23.2
23.1159
22.9447
22.6834
22.4149
23.0845
25.6891
27.4191
27.5602
26.837
25.341
23.1338
21.2847
21.8569
24.499
780.102
432.985
22.3998
23.4402
24.0459
24.4316
24.4193
23.677
22.3789
20.6795
18.6865
16.6565
14.9959
14.2546
14.7955
16.3529
18.2332
19.9004
21.1505
21.9816
22.4404
22.5671
22.3912
21.9253
21.3023
21.5443
24.4401
28.12
29.5924
29.3483
28.0942
26.173
24.5588
24.2533
24.8765
768.903
433.022
22.0339
22.8892
23.2807
23.6206
24.0829
24.6575
25.0628
25.0496
24.3816
22.8953
20.5778
17.4687
13.7241
10.1743
8.942
11.2059
14.6913
17.5211
19.5721
20.9663
21.8283
22.2303
22.1973
21.8528
21.8846
23.3725
25.7082
27.6021
28.3599
28.0086
27.2117
26.5157
25.7287
762.339
440.028
22.9286
23.409
23.5406
23.4913
23.2958
23.0763
23.0704
23.366
23.867
24.3092
24.3469
23.6207
21.811
18.7026
14.1507
7.24968
7.67139
7.85347
12.9324
16.3869
18.5826
20.0778
21.1215
21.7948
21.9887
21.8874
22.1008
23.0633
24.63
26.0033
26.5902
26.5171
25.7069
763.742
447.034
23.906
24.2467
24.5421
24.8082
24.9819
24.9544
24.6196
23.982
23.2178
22.6215
22.4163
22.5665
22.7747
22.6544
21.7674
19.1728
14.9295
7.46745
8.24813
9.85561
14.3414
17.1934
19.1928
20.927
22.5064
23.2964
23.223
22.8009
22.6894
23.3031
24.2084
24.6573
24.5664
769.669
446.086
23.4066
23.7585
24.03
24.2762
24.5394
24.8444
25.1704
25.4117
25.4013
24.9788
24.1329
23.0883
22.1929
21.7101
21.6629
21.8795
21.738
20.0163
13.579
6.64303
9.17183
13.4543
16.2682
18.4343
20.8169
23.1499
24.321
24.3919
23.8744
23.2738
23.0229
23.2453
24.1117
776.866
450.079
24.0856
24.3316
24.5095
24.609
24.6152
24.5183
24.3448
24.1799
24.1284
24.2033
24.2534
24.0591
23.4746
22.4793
21.1165
19.777
19.3241
19.6566
18.0296
12.4383
9.27226
12.4151
15.808
18.3013
20.6519
23.2249
25.0287
25.6047
25.3075
24.3933
23.3031
23.3649
25.1135
782.995
455.446
24.4511
24.4868
24.64
24.7948
24.9111
24.9491
24.8556
24.5511
23.9593
23.1329
22.297
21.6561
21.2283
20.8865
20.34
19.0401
17.1669
15.6997
12.5139
8.73418
11.7696
15.5021
17.8978
19.7699
21.7081
23.8963
25.7012
26.4653
26.3158
25.4474
24.319
24.4415
26.2765
784.927
456.025
24.2977
24.3761
24.4988
24.5567
24.5301
24.4191
24.2513
24.0584
23.7283
23.0096
21.7204
19.8778
17.7273
15.7533
14.7132
14.0176
11.6246
9.57277
11.6834
13.9462
16.2132
18.0835
19.6337
21.0656
22.5429
24.2235
25.8798
26.8998
27.0767
26.5593
25.8218
25.916
27.2746
784.851
454.834
24.3793
24.5625
24.7042
24.7456
24.6514
24.3694
23.8647
23.22
22.5382
21.674
20.2973
18.0071
14.2383
9.07299
8.58485
14.3858
17.6696
18.472
19.0592
19.892
20.824
21.7229
22.5328
23.2582
23.9623
24.7823
25.7827
26.6705
27.0659
26.9438
26.6664
26.8309
27.8064
783.253
455.396
24.45
24.5132
24.6095
24.6676
24.6543
24.5292
24.2369
23.7114
22.9179
21.84
20.3461
18.2046
15.0876
11.0692
9.32556
13.1543
17.9197
20.5347
21.8668
22.8992
23.7253
24.3401
24.8089
25.1772
25.4823
25.8066
26.2738
26.8533
27.2513
27.3061
27.2235
27.3344
27.9358
780.686
454.107
24.2588
24.3298
24.3962
24.3912
24.291
24.1002
23.8959
23.7601
23.5611
23.1109
22.333
21.1332
19.2668
16.0617
10.5812
8.51541
7.99816
15.8528
20.4663
22.9686
24.606
25.5959
26.0829
26.2637
26.2664
26.196
26.2151
26.4884
26.9159
27.1957
27.3084
27.4489
27.8682
778.671
455.001
24.5535
24.6071
24.6746
24.6828
24.5849
24.3389
23.9715
23.6551
23.4605
23.2102
22.7447
22.0039
20.9369
19.3456
16.4773
10.7044
7.61977
5.68788
13.061
19.2026
22.8722
25.1562
26.4549
27.0442
27.197
27.0536
26.739
26.4838
26.522
26.7669
27.0079
27.2489
27.6565
777.019
453.972
24.1382
24.0892
24.1013
24.0901
24.0251
23.9015
23.7707
23.7087
23.6815
23.5643
23.2584
22.707
21.8774
20.7466
19.1657
16.3515
9.90311
5.22521
6.63742
13.4598
19.1155
22.8537
25.1656
26.4255
26.967
27.0519
26.8103
26.4034
26.1345
26.2086
26.4761
26.791
27.227
775.236
453.545
24.2447
24.1997
24.1628
24.0681
23.8851
23.6236
23.4125
23.4406
23.6454
23.7845
23.7239
23.4385
22.9186
22.1328
21.0145
19.3764
16.4154
9.48333
6.94252
8.15954
14.0782
19.6121
23.6734
26.1365
27.304
27.6328
27.4662
27.006
26.5182
26.3074
26.3804
26.5678
26.8336
773.065
452.675
24.1169
24.0187
23.9356
23.8065
23.6009
23.3362
23.1398
23.2178
23.5847
23.9765
24.1896
24.1702
23.9223
23.4565
22.7701
21.813
20.3727
17.7116
11.7207
7.09179
8.70342
12.2748
16.8884
21.3078
24.5265
26.3214
27.0148
27.0491
26.7717
26.5154
26.4462
26.4998
26.6454
773.269
453.253
24.1271
23.8597
23.6287
23.3528
23.0061
22.685
22.5939
22.8335
23.3438
23.9025
24.3059
24.4904
24.4629
24.2366
23.8117
23.1578
22.1511
20.4556
17.2102
11.8633
10.9455
13.031
15.3067
18.0618
21.2489
24.1371
26.0135
26.7979
26.8915
26.7075
26.5473
26.5113
26.6494
774.153
454.06
24.1481
23.6972
23.2987
22.8238
22.233
21.7698
21.8361
22.4527
23.2946
24.056
24.5936
24.8864
24.9575
24.8335
24.5339
24.0599
23.3606
22.2499
20.3111
16.8127
12.7262
11.9988
13.9018
16.3782
18.914
21.5369
23.9964
25.7703
26.6904
26.9947
27.0099
26.9711
27.0421
775.53
456.225
24.2646
23.556
22.9419
22.1935
21.2663
20.6687
20.9596
21.977
23.2007
24.2397
24.9533
25.3557
25.4917
25.3936
25.0766
24.5209
23.603
22.0042
19.6406
18.1603
17.4906
16.6014
15.9136
16.0986
17.42
19.5001
21.9152
24.0901
25.5541
26.3668
26.7724
27.0033
27.3511
778.139
457.223
24.1059
23.1713
22.3335
21.2299
19.8627
19.2474
20.0953
21.6839
23.2053
24.4124
25.2898
25.867
26.1711
26.2136
25.9864
25.4532
24.5169
22.9583
20.5809
18.0321
17.2161
17.912
18.5977
19.169
19.8646
20.8684
22.3368
24.1222
25.6147
26.4764
26.9458
27.2982
27.8108
778.841
459.49
24.1711
23.051
22.0183
20.5477
18.6404
17.7639
18.9626
21.0311
22.8634
24.2802
25.3619
26.1849
26.7942
27.2147
27.456
27.5104
27.3471
26.9126
26.1399
24.9826
23.5901
22.3283
21.35
20.7014
20.5212
20.8195
21.6014
22.9448
24.6347
26.0332
26.8722
27.3978
27.9349
778.316
459.739
23.8356
22.6685
21.5305
19.7477
17.3146
16.2695
18.2561
21.0282
23.148
24.6513
25.753
26.5923
27.2385
27.7297
28.0885
28.3283
28.4533
28.4559
28.3124
27.9737
27.3631
26.3981
24.9767
23.1621
21.6015
20.8926
20.998
21.7703
23.1593
24.7836
26.0622
26.9098
27.7289
781.329
459.128
23.7777
22.7122
21.6231
19.8435
17.1749
15.5764
17.9867
21.424
23.7789
25.2879
26.3155
27.0653
27.6249
28.0376
28.3289
28.5158
28.6088
28.6099
28.512
28.2985
27.918
27.2736
26.2593
24.9452
23.7527
23.0058
22.6824
22.7455
23.3354
24.506
25.8265
26.9419
28.2811
787.57
457.115
23.5949
22.7048
21.7728
20.2093
17.5046
14.6058
16.1358
20.6972
23.854
25.6392
26.7194
27.4486
27.962
28.3155
28.5369
28.6413
28.6347
28.522
28.337
28.1329
27.8793
27.4923
26.9329
26.2828
25.7196
25.2997
24.9559
24.6764
24.6585
25.2558
26.3641
27.5362
29.1589
792.199
455.71
23.6883
22.9968
22.2626
21.0173
18.6419
14.8966
13.1239
17.9939
22.7173
25.2908
26.6718
27.4895
28.0232
28.3703
28.5661
28.6213
28.5482
28.4051
28.307
28.3036
28.3009
28.1972
27.9698
27.6795
27.4176
27.1902
26.9257
26.5949
26.3838
26.6966
27.5429
28.5587
30.1034
794.072
454.825
23.7168
23.1666
22.6467
21.8361
20.208
16.7298
9.78017
4.99216
15.1485
21.2171
24.5042
26.136
27.0695
27.6674
28.0424
28.2274
28.2279
28.0842
27.9451
27.9865
28.1996
28.4323
28.5754
28.6001
28.5349
28.4177
28.259
28.0717
27.9923
28.2689
28.8689
29.6114
30.8019
792.664
454.802
23.7636
23.2912
22.8427
22.1552
20.939
18.843
15.141
6.44225
5.59849
12.3207
21.3648
24.6755
26.2223
27.1184
27.6937
28.0418
28.1839
28.1236
27.9286
27.7915
27.8981
28.2421
28.6867
29.0872
29.3246
29.3551
29.2562
29.1681
29.2219
29.4816
29.862
30.3013
30.9748
788.474
453.526
23.7267
23.3658
23.0268
22.4995
21.5004
19.6277
16.6459
12.6833
7.08302
8.32017
17.5598
22.9201
25.2639
26.5047
27.2842
27.8084
28.1306
28.2472
28.1493
27.9122
27.7413
27.8443
28.2709
28.9192
29.5858
30.0218
30.1355
30.1017
30.1329
30.275
30.4518
30.6197
30.8069
784.209
454.132
23.8915
23.4667
23.1289
22.708
22.0658
20.9239
18.605
14.2238
7.10614
7.7547
9.61259
18.5415
23.4471
25.5678
26.7155
27.4575
27.9716
28.2979
28.422
28.3251
28.0739
27.867
27.9318
28.3731
29.1348
29.9823
30.5726
30.796
30.8404
30.8445
30.8252
30.7639
30.6205
782.716
455.58
23.868
23.3163
22.8956
22.3666
21.6014
20.6135
19.2914
17.0485
12.7958
4.84862
5.85984
9.50236
20.2122
24.2389
26.0004
26.9885
27.662
28.1551
28.4866
28.6243
28.5393
28.292
28.0748
28.1093
28.5163
29.283
30.1787
30.8251
31.1035
31.14
31.0406
30.8573
30.6323
784.838
456.667
23.9079
23.2713
22.8186
22.3027
21.6206
20.7053
19.2964
17.1067
13.6954
8.11899
6.65475
8.91842
14.0417
22.1766
25.1598
26.5222
27.3452
27.9477
28.4063
28.7164
28.8353
28.7378
28.5058
28.3375
28.4031
28.7902
29.5049
30.3148
30.8703
31.0965
31.0959
30.9872
30.9717
789.169
457.774
23.7333
22.9734
22.4255
21.7749
20.9645
20.1439
19.1632
17.5728
14.8819
10.5509
7.08116
5.35709
9.22548
20.0201
24.3475
26.1043
27.079
27.7537
28.2628
28.6434
28.872
28.9035
28.7605
28.6122
28.6295
28.8508
29.3073
29.9703
30.5816
30.9387
31.0859
31.1619
31.4572
792.182
456.93
23.5207
22.8433
22.3417
21.7223
20.9203
20.0422
19.0037
17.4726
15.043
11.0383
8.11343
4.62034
8.55519
18.2596
24.0985
26.0404
27.042
27.729
28.2332
28.6031
28.843
28.9007
28.7888
28.7129
28.8968
29.2819
29.7449
30.2603
30.7236
31.011
31.1566
31.2683
31.5539
789.931
455.044
23.3107
22.707
22.2202
21.5986
20.7973
19.9662
19.1259
17.8747
15.8096
12.4454
7.2574
4.3961
6.78194
16.9256
23.7599
25.9898
27.0388
27.7248
28.2228
28.5794
28.8001
28.824
28.6694
28.5856
28.8955
29.5334
30.1845
30.7067
31.0632
31.2429
31.2979
31.2818
31.1893
783.587
453.527
23.2958
22.742
22.278
21.7402
21.1002
20.3145
19.5017
18.488
16.8611
14.1532
9.80099
6.00923
5.2287
14.2436
22.8576
25.9298
27.0969
27.812
28.3547
28.7539
28.9835
28.9959
28.7957
28.5793
28.7042
29.2826
30.0094
30.5907
30.9499
31.1154
31.1335
31.0146
30.6035
778.646
453.413
23.3268
22.598
21.9822
21.4242
21.0743
20.631
20.0136
19.2608
18.0859
16.1507
12.9384
7.70123
7.92793
8.34514
18.973
25.3731
26.9043
27.7249
28.3731
28.9178
29.3174
29.5113
29.469
29.2597
29.1093
29.2647
29.7135
30.2054
30.54
30.6838
30.662
30.4814
30.0297
778.788
455.812
23.4386
22.3518
21.4393
20.8149
20.8936
20.922
20.5907
20.0616
19.2593
17.949
15.8426
12.4717
7.37609
6.40828
12.3999
21.7891
26.7572
27.8643
28.4439
28.9482
29.425
29.8198
30.0436
30.0446
29.8717
29.6859
29.6616
29.8268
30.0375
30.1451
30.1222
30.0092
29.8958
783.621
458.579
23.303
21.7849
20.4898
19.8616
20.5221
21.0676
21.1203
20.8579
20.3401
19.4817
18.1
15.9653
12.6843
8.00884
8.39369
12.9718
22.4945
27.5944
28.857
29.2963
29.6271
29.9849
30.3782
30.7238
30.8799
30.7632
30.435
30.0766
29.8681
29.8284
29.8682
29.9749
30.3497
788.292
458.701
22.8362
21.1456
19.6721
19.1632
20.2476
21.1224
21.5155
21.5834
21.3894
20.9285
20.1214
18.8229
16.8583
13.9052
9.3485
4.49134
11.361
21.3918
27.585
29.8221
30.2939
30.3441
30.3476
30.4614
30.7738
31.1682
31.3434
31.1573
30.7911
30.5391
30.4907
30.6122
31.0264
788.93
453.997
22.2357
20.9377
19.6597
18.7811
19.4307
20.5332
21.3645
21.8758
22.1069
22.0799
21.7884
21.186
20.1688
18.5774
16.1921
12.6646
8.60706
10.5029
18.377
25.3739
29.6211
31.1407
31.2564
30.8768
30.3843
30.1049
30.2892
30.6865
30.9042
30.9517
30.9772
31.0452
31.2173
786.053
448.403
22.3244
21.6512
20.7739
19.3576
18.2081
18.6818
19.9682
21.096
21.8953
22.4032
22.6482
22.6351
22.3416
21.7087
20.6165
18.8923
16.3739
13.2036
11.6718
15.2158
21.4934
27.0952
30.8126
32.3209
32.2457
31.307
30.1273
29.4891
29.5849
29.9557
30.2723
30.4627
30.4575
780.492
445.799
22.8263
22.3917
21.8119
20.8301
18.8488
17.0674
17.7047
19.3288
20.7334
21.7643
22.5022
23.0015
23.2769
23.3161
23.0815
22.5117
21.5038
19.8936
17.6907
15.5756
15.4517
18.6754
23.6974
28.5566
32.1071
33.7278
33.748
33.0566
32.2975
31.7398
31.3921
31.1495
30.7461
776.953
448.413
23.1655
22.394
21.6296
20.8011
19.8259
17.6645
16.8889
18.1543
19.7636
21.0486
22.0212
22.7777
23.3656
23.7969
24.0657
24.1553
24.0298
23.6319
22.8986
21.7699
20.344
19.2378
19.7951
22.307
25.3762
28.318
30.8742
32.4321
32.8971
32.6665
32.2037
31.7578
31.105
777.262
455.509
23.4562
21.9682
20.5573
18.8574
18.1017
17.6892
17.7722
18.9902
20.3517
21.4367
22.2861
22.9801
23.5615
24.0485
24.4465
24.7522
24.9576
25.0502
25.0135
24.8115
24.5044
24.2258
23.8063
23.4661
23.6726
23.5071
22.2927
22.5098
24.8328
27.3231
28.8506
29.3357
29.0363
786.764
462.585
23.4641
21.2882
19.1101
16.3697
15.925
17.3718
19.0814
20.581
21.6296
22.4133
23.049
23.5786
24.0196
24.3815
24.6692
24.8839
25.0248
25.0964
25.1201
25.1613
24.9629
24.0361
22.9308
22.6269
21.8737
19.0402
16.7318
18.9845
23.2204
26.5131
28.4532
29.6463
31.4533
812.374
464.719
22.7859
20.1441
17.1475
13.9033
15.7016
18.7284
20.5013
21.6049
22.3801
22.9946
23.4903
23.8766
24.1529
24.3124
24.3428
24.2307
23.9669
23.5291
22.6983
21.4359
21.598
22.6553
22.5842
21.6644
21.3623
22.4304
24.5353
27.065
29.2522
30.8103
31.9383
33.0987
35.1719
816.324
462.409
22.1186
19.3841
15.9323
12.7675
16.1792
19.4238
20.846
21.7738
22.4859
23.0498
23.4803
23.7712
23.8995
23.8201
23.4551
22.6903
21.4656
20.4217
21.6768
25.1282
27.0646
26.5561
25.0199
24.1793
25.2883
27.51
29.595
31.2342
32.3733
33.0938
33.5438
33.8465
33.9205
789.747
458.982
21.9508
19.5158
16.1566
11.7961
14.7
18.7455
20.4045
21.4403
22.2325
22.8664
23.3637
23.7143
23.8684
23.7236
23.1382
22.0112
20.5348
19.9489
22.5327
27.5655
30.9489
31.421
30.7298
30.0123
29.9347
30.4673
31.1744
31.8272
32.3073
32.5724
32.5995
32.2565
30.9195
770.549
456.185
22.1009
20.1362
17.3089
11.9647
10.9665
16.9828
19.4217
20.7513
21.7219
22.5062
23.1578
23.6913
24.0801
24.2415
24.0395
23.331
22.0841
20.6991
20.6288
23.3741
27.383
30.2124
31.8044
32.8044
33.4723
33.8295
33.8841
33.7342
33.4769
33.1632
32.7752
32.1466
30.6304
767.73
453.613
22.19
20.7099
18.7139
14.4733
7.10242
13.3909
17.6342
19.5847
20.8552
21.833
22.6528
23.3696
24.0027
24.5267
24.8599
24.8756
24.4566
23.5784
22.4804
21.893
22.595
24.2669
26.1965
28.2007
30.1931
31.9699
33.3135
34.1116
34.3997
34.3111
33.985
33.4322
32.1315
771.434
451.848
22.2551
21.1558
19.8441
17.21
10.5597
7.55433
14.6441
17.8577
19.6022
20.8399
21.8394
22.7184
23.534
24.3065
25.01
25.5651
25.8652
25.823
25.4149
24.7189
23.9518
23.3935
23.2366
23.6173
24.6165
26.1628
28.0304
29.9199
31.524
32.6164
33.1592
33.21
32.4238
776.696
450.92
22.2163
21.2893
20.3194
18.6958
15.2226
9.40161
9.98876
15.4717
18.0781
19.6478
20.8159
21.8101
22.7404
23.6656
24.598
25.49
26.2532
26.7975
27.0667
27.0454
26.7525
26.234
25.5641
24.8597
24.296
24.0874
24.4207
25.3616
26.7802
28.3697
29.7462
30.4809
30.5906
783.037
450.122
22.0891
21.2916
20.5311
19.3151
16.8844
10.481
4.94554
12.3857
16.3068
18.4024
19.7872
20.8749
21.8629
22.856
23.9033
24.9836
26.0213
26.9196
27.61
28.069
28.2998
28.3119
28.1112
27.7091
27.1399
26.4795
25.8594
25.4624
25.4591
25.8733
26.5497
27.7524
29.4502
792.991
448.997
22.0207
21.3481
20.7457
19.8648
18.3481
15.4273
8.6522
8.52161
13.8253
16.887
18.6652
19.9207
20.9745
22.0081
23.1161
24.3199
25.5467
26.672
27.6085
28.3327
28.8566
29.1973
29.363
29.3517
29.1582
28.7847
28.2533
27.6119
26.9008
26.0053
25.3303
27.2753
30.6877
804.192
448.813
22.095
21.3802
20.7695
20.0304
19.1329
17.8339
13.5615
7.90291
9.8896
14.6468
17.2871
18.8819
20.0681
21.1483
22.2971
23.5911
24.9635
26.2549
27.3465
28.2125
28.8793
29.3794
29.7319
29.9398
29.9939
29.8753
29.5536
28.9718
28.0088
26.6196
26.3125
28.7291
32.3124
808.277
450.381
22.207
21.2723
20.4497
19.3877
18.1323
17.1561
16.2204
10.5282
6.04542
11.967
15.8648
17.9587
19.3201
20.4383
21.5919
22.9208
24.3924
25.8096
26.9991
27.9266
28.6361
29.1774
29.5802
29.8541
29.9921
29.9678
29.7268
29.1848
28.292
27.4562
28.0677
29.9908
32.4798
800.16
452.673
22.2033
21.0385
20.0289
18.6519
16.8621
15.5762
14.9254
13.4203
9.43892
10.2089
15.0261
17.5028
18.944
20.046
21.1343
22.4059
23.8897
25.3863
26.6498
27.6121
28.3293
28.8666
29.2607
29.5233
29.651
29.6393
29.4985
29.2263
28.8581
28.7776
29.4817
30.5817
31.8121
787.918
453.682
21.92
20.6108
19.4636
17.8356
15.5952
13.4714
12.4301
11.8548
8.1717
8.81107
14.9867
17.6088
19.0075
20.0179
20.9796
22.1075
23.4903
24.9871
26.3052
27.2985
28.0127
28.5259
28.8795
29.0834
29.1436
29.1164
29.1367
29.2647
29.4217
29.6854
30.1313
30.5925
30.7778
778.881
452.926
21.5273
20.1829
18.9134
16.9975
14.2344
11.1807
9.51162
9.13729
9.36352
11.3949
16.1184
18.3574
19.4924
20.2938
21.0614
21.9783
23.1595
24.555
25.9088
26.9773
27.735
28.2585
28.5992
28.7703
28.7869
28.7437
28.848
29.1962
29.5942
29.9205
30.1706
30.2691
29.8674
774.814
451.498
21.2888
20.0396
18.7751
16.6804
13.238
8.56018
5.77012
6.23332
9.1976
13.1445
17.2803
19.1381
20.0356
20.6676
21.2669
21.9736
22.902
24.0861
25.3905
26.5481
27.4055
27.9894
28.3603
28.5449
28.5611
28.4918
28.533
28.8199
29.187
29.4552
29.5906
29.5354
28.9945
773.261
449.754
21.0849
19.9556
18.8074
16.8612
13.4163
8.13317
6.28459
6.21347
11.3046
15.7381
18.5884
19.9296
20.6385
21.1502
21.6214
22.1457
22.8129
23.7007
24.8122
25.9851
26.9848
27.7125
28.1951
28.4697
28.5582
28.5138
28.4731
28.5767
28.7728
28.9237
28.978
28.8882
28.4578
773.313
448.094
20.8042
19.678
18.5841
16.9043
14.1123
9.53509
4.79129
6.93032
11.8449
16.8016
19.2848
20.4497
21.1013
21.5732
21.9838
22.3978
22.8752
23.4877
24.3081
25.3235
26.3675
27.2456
27.8912
28.3171
28.5391
28.5823
28.5233
28.4779
28.4853
28.4957
28.465
28.3518
28.0289
773.287
446.79
20.5637
19.3761
18.2424
16.7594
14.7877
11.5714
6.62806
5.31195
9.37365
16.1348
19.2641
20.5938
21.3243
21.8306
22.2438
22.6225
23.01
23.455
24.0305
24.8049
25.746
26.6813
27.4587
28.0473
28.4519
28.6691
28.7153
28.6537
28.5563
28.4518
28.337
28.1904
27.9386
774.033
445.924
20.4801
19.2602
18.0328
16.5003
14.9876
12.956
9.18476
4.82207
5.28785
12.8934
18.1816
20.2605
21.2576
21.8786
22.3489
22.7496
23.1231
23.503
23.9395
24.5112
25.2827
26.1862
27.0214
27.6746
28.1627
28.5048
28.6917
28.7275
28.6545
28.5234
28.3667
28.1893
27.9475
774.42
445.411
20.4653
19.2868
18.0649
16.4139
14.8825
13.5371
11.5124
7.04056
4.53243
5.92467
14.6585
19.0522
20.785
21.6883
22.2984