/*--------------------------------*- C++ -*----------------------------------*\
| =========                 |                                                 |
| \\      /  F ield         | OpenFOAM: The Open Source CFD Toolbox           |
|  \\    /   O peration     | Version:  v1906                                 |
|   \\  /    A nd           | Web:      www.OpenFOAM.com                      |
|    \\/     M anipulation  |                                                 |
\*---------------------------------------------------------------------------*/
FoamFile
{
    version     2.0;
    format      ascii;
    class       volScalarField;
    location    "5.8/sphere";
    object      T;
}
// * * * * * * * * * * * * * * * * * * * * * * * * * * * * * * * * * * * * * //

dimensions      [0 0 0 1 0 0 0];


internalField   nonuniform List<scalar> 
304
(
496.09
496.132
496.13
496.153
496.095
496.094
496.089
496.133
496.087
496.284
496.284
496.142
496.129
496.283
496.283
496.186
496.141
496.186
496.087
496.131
496.154
496.092
496.134
496.285
496.284
496.186
496.155
496.284
496.284
496.222
496.091
496.186
496.222
496.136
496.094
496.146
496.186
496.088
496.1
496.188
496.222
496.134
496.088
496.136
496.073
496.071
496.094
496.095
496.088
496.137
496.094
496.095
496.138
496.088
496.071
496.093
496.087
496.093
496.136
496.132
496.132
496.154
496.143
496.188
496.186
496.222
496.088
496.154
496.132
496.187
496.143
496.222
496.187
496.093
496.086
496.136
496.094
496.09
496.091
496.133
496.085
496.153
496.085
496.13
496.185
496.221
496.14
496.185
496.132
496.131
496.088
496.222
496.186
496.186
496.142
496.136
496.093
496.086
496.07
496.092
496.085
496.134
496.091
496.135
496.087
496.091
496.069
496.087
496.092
496.093
496.136
496.133
496.143
496.188
496.131
496.154
496.187
496.223
496.091
496.188
496.144
496.155
496.133
496.223
496.187
496.088
496.094
496.136
496.095
496.142
496.131
496.186
496.132
496.187
496.154
496.222
496.086
496.186
496.132
496.187
496.132
496.222
496.154
496.185
496.086
496.141
496.154
496.222
496.13
496.186
496.132
496.142
496.088
496.222
496.154
496.187
496.131
496.087
496.092
496.136
496.092
496.185
496.087
496.131
496.186
496.222
496.13
496.153
496.142
496.131
496.087
496.222
496.185
496.154
496.131
496.135
496.091
496.091
496.092
496.094
496.137
496.091
496.154
496.187
496.223
496.088
496.131
496.144
496.187
496.131
496.223
496.186
496.132
496.086
496.186
496.14
496.135
496.093
496.085
496.188
496.155
496.223
496.093
496.147
496.135
496.189
496.132
496.222
496.154
496.142
496.09
496.186
496.132
496.223
496.132
496.187
496.135
496.189
496.091
496.145
496.154
496.187
496.131
496.186
496.132
496.143
496.088
496.135
496.092
496.089
496.222
496.131
496.154
496.143
496.187
496.088
496.132
496.187
496.154
496.132
496.187
496.145
496.133
496.092
496.093
496.093
496.089
496.076
496.092
496.089
496.136
496.093
496.135
496.086
496.092
496.07
496.091
496.096
496.139
496.097
496.187
496.189
496.223
496.093
496.133
496.134
496.155
496.142
496.223
496.186
496.131
496.087
496.154
496.131
496.136
496.094
496.092
496.139
496.091
496.094
496.223
496.144
496.187
496.132
496.154
496.088
496.132
496.186
496.187
496.143
496.154
496.131
496.132
496.088
496.092
496.087
496.09
496.074
496.136
496.093
496.094
496.089
496.094
496.093
)
;

boundaryField
{
    sphere_to_oil
    {
        type            compressible::turbulentTemperatureCoupledBaffleMixed;
        refValue        nonuniform List<scalar> 
360
(
312.642
312.642
303.512
327.645
329.494
304.231
330.329
330.329
330.329
312.677
312.677
304.224
304.672
303.127
311.547
330.392
328.396
328.396
328.396
303.149
325.947
311.668
308.295
328.956
303.55
330.092
304.225
329.812
329.812
329.812
330.736
329.649
303.504
303.481
304.179
304.23
328.131
328.131
328.131
327.58
329.514
303.635
304.242
312.557
312.557
304.196
304.613
303.021
311.941
330.325
304.312
304.237
304.585
304.658
303.037
311.506
328.894
303.102
304.206
304.497
303.147
330.043
330.043
330.043
303.017
329.408
311.764
307.509
330.203
330.203
330.203
329.354
328.892
303.06
325.365
311.084
303.12
307.793
329.334
328.907
308.434
307.301
308.197
303.16
303.513
304.208
304.306
304.635
303.059
303.184
303.526
304.632
304.289
303.511
304.593
304.258
304.282
304.209
303.57
303.133
303.164
303.054
304.236
304.298
304.638
303.036
303.208
304.681
303.593
304.267
304.3
304.236
303.58
303.089
303.175
303.154
307.824
307.512
307.86
312.72
312.72
327.645
327.645
328.956
328.956
328.618
328.618
328.618
328.787
328.787
328.787
307.875
307.42
307.749
303.201
329.494
329.494
312.506
312.506
330.736
330.736
311.366
311.366
330.502
330.502
330.502
303.184
303.208
330.77
330.77
330.77
331.67
331.67
331.67
330.392
325.947
311.547
330.392
329.479
303.085
329.479
329.479
308.257
308.088
307.675
311.419
311.419
330.621
330.621
330.621
303.035
325.947
311.668
330.388
330.388
303.058
330.388
308.423
307.61
303.061
304.197
304.251
304.691
303.521
304.612
304.271
303.044
303.17
330.092
330.092
329.649
329.649
312.515
312.515
327.882
327.882
327.882
312.13
312.13
303.141
304.171
304.271
304.686
304.238
304.222
304.69
303.559
304.666
304.214
303.546
327.58
304.683
304.279
303.132
329.436
329.436
329.436
311.915
311.915
303.038
304.281
304.283
304.472
329.514
303.536
304.447
304.243
327.58
329.514
311.827
303.056
311.827
303.114
303.17
304.598
303.543
304.26
304.242
304.294
303.519
303.052
330.504
326.389
330.504
330.504
326.389
326.389
330.325
329.408
311.941
329.077
303.173
330.325
329.077
329.077
304.516
303.523
304.327
304.622
303.546
329.354
304.194
304.239
304.302
303.555
328.894
325.365
304.228
304.257
303.56
327.373
329.731
311.506
329.683
303.171
328.894
329.683
329.683
304.565
303.575
329.334
304.249
304.185
304.207
329.567
303.573
329.005
311.948
327.373
311.948
329.567
327.373
329.567
303.026
307.258
307.217
307.381
312.317
328.139
312.317
328.139
328.139
303.106
329.408
329.287
311.764
329.287
303.153
329.287
307.757
307.725
303.002
327.949
311.573
327.949
327.949
311.573
303.101
304.21
304.26
304.668
328.892
329.354
311.849
303.15
328.892
311.849
303.083
325.365
330.247
311.084
330.247
302.952
330.247
304.682
328.907
303.595
304.24
329.348
328.048
329.731
311.651
329.731
329.348
311.651
329.348
307.27
308.251
329.334
311.97
303.073
328.907
311.97
303.183
329.005
328.048
329.005
312.273
328.048
312.273
)
;
        refGradient     uniform 0;
        valueFraction   nonuniform List<scalar> 
360
(
0.000128196
0.000122986
7.87368e-05
0.000281291
0.000288491
0.000165414
0.000290284
0.000249167
0.000387857
0.000123482
0.000120392
0.000161506
0.000246141
7.03779e-05
0.000125897
0.000244737
0.000280465
0.000262051
0.000367728
6.43993e-05
0.000241436
0.000118689
0.000109393
0.0002903
8.42815e-05
0.000298395
0.000168189
0.00029454
0.000385474
0.000257845
0.000294592
0.000297128
7.97818e-05
7.88905e-05
0.000165552
0.000162918
0.000275692
0.000373764
0.000256649
0.000385908
0.000381197
8.13913e-05
0.000161437
0.000117826
0.000117685
0.000166187
0.000248631
6.63348e-05
0.000118695
0.000251697
0.000163941
0.000165006
0.000245957
0.000243567
6.88143e-05
0.000125888
0.000256725
6.59222e-05
0.000163309
0.000243529
6.45261e-05
0.000286713
0.000253095
0.000396138
6.65243e-05
0.00025878
0.000120706
0.00011675
0.000293338
0.000382682
0.000257408
0.000369028
0.000374194
7.14601e-05
0.000249485
0.000126562
6.58846e-05
0.000118144
0.000373396
0.000387892
0.000115877
0.00011369
0.000111668
6.63641e-05
8.00291e-05
0.000162246
0.000163154
0.00024708
7.45849e-05
6.29755e-05
7.92033e-05
0.000246677
0.000162846
8.09069e-05
0.00024627
0.000164706
0.000163731
0.000163982
7.99667e-05
6.40975e-05
6.49967e-05
6.41319e-05
0.000164868
0.000162043
0.000246491
7.25717e-05
6.30358e-05
0.000246312
7.82505e-05
0.000162298
0.000162329
0.00016564
8.09974e-05
6.48583e-05
6.32537e-05
6.44758e-05
0.000112233
0.000112368
0.000116734
0.000126578
0.000118965
0.000245818
0.000387259
0.000258987
0.000390821
0.000250506
0.00038515
0.00028676
0.000250708
0.000376766
0.000282411
0.00011519
0.000108933
0.000111576
6.1592e-05
0.000255452
0.000384631
0.000118995
0.000119538
0.000388704
0.00025843
0.000124741
0.000131471
0.000383919
0.000263725
0.000303894
6.77858e-05
6.30818e-05
0.000266266
0.000368988
0.000292472
0.000274155
0.000381763
0.000292441
0.000301937
0.00027812
0.000130094
0.000387789
0.00025048
6.98321e-05
0.000376905
0.000282042
0.000107632
0.000113395
0.00011218
0.000118342
0.000123706
0.00038585
0.000254051
0.000298208
7.14976e-05
0.00037117
0.000127265
0.000390296
0.000249845
6.98376e-05
0.000296246
0.000108587
0.000109595
6.40305e-05
0.00016783
0.000167763
0.000248065
8.27237e-05
0.000248439
0.000163469
6.33729e-05
6.15373e-05
0.000388251
0.000246681
0.000383693
0.000255802
0.000122014
0.000114106
0.000385482
0.000240912
0.000278476
0.000112789
0.00013087
6.5839e-05
0.00016488
0.000164731
0.00024612
0.000161152
0.000161982
0.000245151
8.40277e-05
0.000245991
0.000166792
8.17145e-05
0.000276894
0.000245719
0.000165792
6.60735e-05
0.000377058
0.000244431
0.000285991
0.000119142
0.000110719
6.39538e-05
0.000163598
0.000166349
0.000246644
0.000280439
7.84303e-05
0.000244303
0.000159555
0.000242698
0.000256933
0.000116627
6.5507e-05
0.000129416
6.6317e-05
6.24249e-05
0.000249398
8.32312e-05
0.000167666
0.000165728
0.000163752
8.21851e-05
6.27772e-05
0.00025501
0.000238949
0.00040116
0.000298596
0.000374257
0.000268896
0.000288211
0.000295088
0.000131161
0.000253144
6.82005e-05
0.000385239
0.000374587
0.000284599
0.000248212
7.90911e-05
0.000161506
0.000245358
7.97998e-05
0.000292381
0.000162206
0.000163365
0.00016186
7.93157e-05
0.000290196
0.000271938
0.000165137
0.000160868
8.08432e-05
0.000272475
0.000299924
0.000118941
0.000269233
6.39395e-05
0.000383585
0.000371887
0.000280996
0.000243537
8.00056e-05
0.000281438
0.000162046
0.000162296
0.000163219
0.00028297
8.07551e-05
0.000289112
0.000121647
0.000249265
0.000122662
0.000254009
0.000387105
0.000380028
6.39096e-05
0.000128072
0.000126559
0.000123787
0.000112728
0.000377171
0.000123121
0.000250737
0.00029526
6.29781e-05
0.000380854
0.000380394
0.000124519
0.000270459
6.59986e-05
0.000289956
0.000110396
0.000108452
6.59441e-05
0.000373029
0.000111476
0.000244626
0.00028811
0.000119513
6.51505e-05
0.000162109
0.000162053
0.000244533
0.000279826
0.000242706
0.000117341
6.31619e-05
0.000246772
0.000130326
7.29477e-05
0.000357616
0.000384009
0.000113486
0.000243926
6.7626e-05
0.000306778
0.000246407
0.000295244
8.07641e-05
0.000162805
0.000284652
0.000275964
0.000259622
0.000116041
0.000380316
0.000379498
0.00013775
0.000253665
0.000111605
0.000113317
0.000255371
0.000126411
6.83462e-05
0.000258274
0.000121722
6.31168e-05
0.000375915
0.000380427
0.0002503
0.000121468
0.000245864
0.000125473
)
;
        value           nonuniform List<scalar> 
360
(
496.096
496.097
496.1
496.067
496.067
496.125
496.065
496.076
496.047
496.093
496.093
496.124
496.131
496.106
496.096
496.079
496.063
496.073
496.048
496.107
496.078
496.097
496.074
496.065
496.098
496.064
496.125
496.067
496.048
496.076
496.063
496.062
496.096
496.096
496.123
496.125
496.065
496.05
496.074
496.047
496.048
496.097
496.125
496.095
496.098
496.124
496.131
496.104
496.095
496.075
496.127
496.125
496.133
496.133
496.103
496.093
496.073
496.106
496.124
496.133
496.105
496.066
496.075
496.048
496.106
496.076
496.096
496.073
496.07
496.053
496.078
496.051
496.05
496.111
496.082
496.102
496.104
496.077
496.051
496.048
496.076
496.077
496.077
496.106
496.103
496.125
496.126
496.132
496.101
496.106
496.098
496.132
496.126
496.096
496.132
496.124
496.125
496.125
496.098
496.107
496.107
496.106
496.126
496.126
496.131
496.104
496.103
496.131
496.095
496.124
496.126
496.124
496.098
496.104
496.108
496.107
496.075
496.075
496.074
496.096
496.098
496.078
496.048
496.077
496.048
496.077
496.049
496.065
496.078
496.05
496.069
496.075
496.076
496.075
496.106
496.075
496.048
496.096
496.096
496.048
496.076
496.095
496.095
496.048
496.075
496.061
496.106
496.103
496.072
496.049
496.061
496.07
496.047
496.063
496.063
496.066
496.094
496.046
496.076
496.104
496.048
496.066
496.075
496.074
496.074
496.095
496.094
496.046
496.074
496.063
496.103
496.048
496.092
496.047
496.075
496.102
496.063
496.074
496.074
496.105
496.126
496.124
496.132
496.1
496.132
496.126
496.106
496.106
496.047
496.076
496.048
496.075
496.095
496.097
496.048
496.079
496.064
496.098
496.096
496.107
496.124
496.125
496.132
496.126
496.126
496.132
496.095
496.132
496.124
496.097
496.066
496.132
496.124
496.104
496.05
496.076
496.065
496.095
496.096
496.104
496.124
496.123
496.131
496.065
496.097
496.132
496.125
496.075
496.073
496.095
496.104
496.092
496.103
496.105
496.131
496.097
496.124
496.124
496.125
496.095
496.107
496.074
496.079
496.05
496.064
496.053
496.073
496.063
496.061
496.094
496.075
496.105
496.046
496.047
496.067
496.133
496.103
496.129
496.132
496.099
496.066
496.126
496.126
496.13
496.101
496.068
496.07
496.125
496.126
496.098
496.067
496.064
496.095
496.072
496.105
496.049
496.052
496.067
496.132
496.098
496.067
496.126
496.126
496.126
496.07
496.101
496.069
496.096
496.076
496.095
496.075
496.049
496.051
496.104
496.077
496.077
496.078
496.096
496.051
496.095
496.076
496.069
496.106
496.047
496.047
496.094
496.072
496.104
496.064
496.074
496.074
496.108
496.054
496.1
496.081
496.07
496.1
496.109
496.127
496.128
496.133
496.065
496.078
496.097
496.106
496.075
496.093
496.103
496.055
496.052
496.098
496.079
496.106
496.062
496.132
496.064
496.097
496.126
496.066
496.067
496.073
496.095
496.049
496.049
496.09
496.073
496.078
496.078
496.076
496.095
496.105
496.076
496.096
496.107
496.051
496.05
496.077
496.096
496.077
496.095
)
;
        Tnbr            T;
        thicknessLayers 0();
        kappaLayers     0();
        kappaMethod     solidThermo;
        kappa           none;
        alphaAni        none;
    }
}


// ************************************************************************* //
