/*--------------------------------*- C++ -*----------------------------------*\
| =========                 |                                                 |
| \\      /  F ield         | OpenFOAM: The Open Source CFD Toolbox           |
|  \\    /   O peration     | Version:  v1906                                 |
|   \\  /    A nd           | Web:      www.OpenFOAM.com                      |
|    \\/     M anipulation  |                                                 |
\*---------------------------------------------------------------------------*/
FoamFile
{
    version     2.0;
    format      ascii;
    class       volScalarField;
    location    "84.6/sphere";
    object      T;
}
// * * * * * * * * * * * * * * * * * * * * * * * * * * * * * * * * * * * * * //

dimensions      [0 0 0 1 0 0 0];


internalField   nonuniform List<scalar> 
304
(
456.318
456.346
456.34
456.357
456.316
456.305
456.318
456.347
456.317
456.455
456.455
456.357
456.339
456.448
456.448
456.381
456.34
456.372
456.302
456.345
456.362
456.318
456.346
456.455
456.454
456.386
456.357
456.448
456.448
456.406
456.303
456.372
456.399
456.336
456.319
456.359
456.386
456.322
456.318
456.381
456.406
456.344
456.302
456.336
456.292
456.306
456.319
456.319
456.32
456.352
456.319
456.319
456.352
456.321
456.306
456.318
456.322
456.318
456.35
456.346
456.345
456.36
456.358
456.387
456.385
456.409
456.318
456.36
456.345
456.387
456.358
456.409
456.385
456.318
456.322
456.351
456.319
456.312
456.312
456.343
456.304
456.356
456.303
456.335
456.379
456.405
456.343
456.375
456.342
456.336
456.306
456.406
456.381
456.376
456.345
456.346
456.314
456.306
456.289
456.304
456.3
456.335
456.3
456.335
456.301
456.3
456.289
456.319
456.318
456.318
456.351
456.347
456.358
456.387
456.346
456.362
456.387
456.412
456.319
456.387
456.358
456.362
456.347
456.412
456.387
456.32
456.319
456.351
456.319
456.357
456.344
456.385
456.346
456.386
456.36
456.409
456.317
456.385
456.346
456.386
456.346
456.409
456.36
456.379
456.304
456.344
456.357
456.406
456.336
456.375
456.341
456.346
456.306
456.406
456.357
456.376
456.337
456.302
456.304
456.336
456.301
456.372
456.299
456.33
456.372
456.399
456.33
456.348
456.341
456.33
456.298
456.399
456.372
456.348
456.33
456.335
456.303
456.3
456.317
456.319
456.351
456.322
456.362
456.387
456.412
456.318
456.346
456.359
456.387
456.346
456.412
456.386
456.346
456.316
456.386
456.356
456.35
456.318
456.318
456.387
456.36
456.409
456.32
456.36
456.347
456.386
456.346
456.409
456.36
456.358
456.319
456.385
456.345
456.406
456.337
456.376
456.343
456.382
456.308
456.346
456.357
456.376
456.337
456.38
456.341
456.346
456.306
456.335
456.301
456.302
456.399
456.33
456.348
456.341
456.373
456.299
456.331
456.373
456.348
456.331
456.373
456.343
456.331
456.302
456.305
456.301
456.303
456.309
456.317
456.321
456.351
456.318
456.35
456.319
456.317
456.305
456.324
456.32
456.352
456.32
456.386
456.386
456.41
456.321
456.346
456.346
456.36
456.357
456.409
456.385
456.345
456.317
456.36
456.345
456.35
456.319
456.317
456.347
456.308
456.314
456.406
456.346
456.376
456.341
456.357
456.306
456.337
456.38
456.376
456.346
456.357
456.341
456.337
456.307
456.313
456.306
456.312
456.292
456.336
456.302
456.305
456.303
456.302
456.305
)
;

boundaryField
{
    sphere_to_oil
    {
        type            compressible::turbulentTemperatureCoupledBaffleMixed;
        refValue        nonuniform List<scalar> 
360
(
331.773
331.773
322.128
355.093
362.166
324.997
363.173
363.173
363.173
342.099
342.099
328.997
333.625
321.058
341.564
349.83
345.783
345.783
345.783
322.444
344.708
324.223
328.106
357.782
317.446
358.013
323.024
358.009
358.009
358.009
363.691
356.701
322.033
321.698
328.748
328.834
346.682
346.682
346.682
346.015
347.197
322.932
324.638
332.23
332.23
322.837
331.171
314.817
331.373
358.338
324.925
325.047
332.912
333.466
322.207
323.988
346.18
322.542
324.705
333.686
317.322
359.125
359.125
359.125
314.865
357.704
331.28
323.308
361.693
361.693
361.693
362.621
361.39
320.2
345.683
340.947
322.117
327.384
347.157
346.733
328.862
320.434
328.546
317.198
322.021
324.565
328.94
333.336
321.62
322.684
322.257
332.366
328.556
322.367
332.01
328.54
329.17
329.374
325.343
316.872
316.986
322.272
324.942
328.548
332.279
322.198
320.947
333.534
324.977
329.33
329.197
329.198
325.302
322.447
315.026
314.985
327.969
323.507
329.002
331.676
331.676
355.093
355.093
357.782
357.782
355.549
355.549
355.549
357.138
357.138
357.138
328.369
323.746
327.91
323.226
362.166
362.166
338.895
338.895
363.691
363.691
338.318
338.318
363.076
363.076
363.076
322.892
322.685
350.357
350.357
350.357
350.179
350.179
350.179
349.83
344.708
341.564
349.83
350.006
322.497
350.006
350.006
328.149
328.972
320.554
324.319
324.319
348.423
348.423
348.423
317.276
344.708
324.223
347.606
347.606
317.161
347.606
328.955
320.476
314.894
323.043
323.373
331.777
317.331
331.232
323.302
314.944
317.085
358.013
358.013
356.701
356.701
332.62
332.62
355.12
355.12
355.12
331.107
331.107
316.736
328.038
325.333
332.46
328.272
324.667
332.296
325.04
333.596
329.402
324.839
346.015
333.391
329.478
322.588
347.86
347.86
347.86
324.721
324.721
317.197
324.835
324.647
333.478
347.197
322.849
333.407
324.961
346.015
347.197
324.515
322.532
324.515
317.524
314.936
331.097
317.37
323.19
323.081
323.331
317.198
316.671
359.063
354.103
359.063
359.063
354.103
354.103
358.338
357.704
331.373
356.339
316.902
358.338
356.339
356.339
331.687
321.816
328.319
332.216
322.385
362.621
328.364
329.043
328.97
325.131
346.18
345.683
329.356
329.059
325.275
345.772
349.823
323.988
347.494
317.319
346.18
347.494
347.494
333.915
322.826
347.157
324.755
324.937
324.621
347.531
322.811
347.27
324.365
345.772
324.365
347.531
345.772
347.531
314.769
323.577
327.498
327.66
331.642
355.217
331.642
355.217
355.217
316.721
357.704
356.291
331.28
356.291
316.749
356.291
328.493
328.224
321.703
360.72
339.009
360.72
360.72
339.009
322.252
324.602
328.102
332.161
361.39
362.621
338.536
322.896
361.39
338.536
322.162
345.683
350.298
340.947
350.298
321.432
350.298
333.617
346.733
325.159
329.602
349.588
346.386
349.823
340.536
349.823
349.588
340.536
349.588
320.368
328.43
347.157
324.314
317.253
346.733
324.314
322.802
347.27
346.386
347.27
324.377
346.386
324.377
)
;
        refGradient     uniform 0;
        valueFraction   nonuniform List<scalar> 
360
(
0.000139729
0.000134051
8.58208e-05
0.000306583
0.000314429
0.0001803
0.000316383
0.000271574
0.000422712
0.000134591
0.000131224
0.000176041
0.000268292
7.67113e-05
0.000137224
0.00026675
0.000305691
0.000285626
0.000400798
7.01961e-05
0.000263158
0.000129372
0.000119236
0.000316401
9.18642e-05
0.000325223
0.000183325
0.000321023
0.000420119
0.000281033
0.000321077
0.000323842
8.69595e-05
8.5988e-05
0.000180451
0.000177581
0.000300489
0.000407376
0.000279738
0.000420611
0.000415477
8.87171e-05
0.00017597
0.000128427
0.000128273
0.000181142
0.000271004
7.23037e-05
0.000129374
0.000274332
0.000178695
0.000179855
0.000268092
0.000265487
7.50083e-05
0.000137218
0.000279822
7.1856e-05
0.000178011
0.00026545
7.03348e-05
0.000312492
0.000275856
0.000431741
7.25104e-05
0.000282052
0.000131566
0.000127251
0.000319712
0.000417075
0.000280557
0.000402193
0.000407823
7.78913e-05
0.000271927
0.00013795
7.18135e-05
0.000128775
0.000406976
0.000422774
0.000126303
0.00012392
0.000121716
7.23382e-05
8.72296e-05
0.000176847
0.000177839
0.000269316
8.12966e-05
6.86441e-05
8.63291e-05
0.000268876
0.000177501
8.81858e-05
0.000268432
0.000179528
0.000178466
0.000178742
8.71632e-05
6.98653e-05
7.08454e-05
6.99026e-05
0.000179705
0.000176626
0.000268673
7.91016e-05
6.87085e-05
0.000268479
8.52923e-05
0.000176906
0.000176938
0.000180549
8.82865e-05
7.06963e-05
6.89457e-05
7.02777e-05
0.000122328
0.000122475
0.000127233
0.000137966
0.000129669
0.000267926
0.000422064
0.000282278
0.000425946
0.000273035
0.000419767
0.000312543
0.000273255
0.00041063
0.000307804
0.00012555
0.000118732
0.000121611
6.71343e-05
0.000278424
0.000419197
0.000129701
0.000130293
0.000423636
0.00028167
0.000135963
0.000143298
0.000418421
0.000287441
0.000331215
7.38853e-05
6.87586e-05
0.000290214
0.000402166
0.000318777
0.000298812
0.00041609
0.000318743
0.000329093
0.000303136
0.000141798
0.000422656
0.000273009
7.61162e-05
0.000410794
0.000307409
0.000117317
0.000123598
0.000122275
0.000128993
0.00013484
0.000420548
0.000276909
0.000325033
7.79336e-05
0.000404549
0.00013872
0.000425394
0.000272324
7.61243e-05
0.000322895
0.000118358
0.000119456
6.97921e-05
0.000182933
0.00018286
0.000270387
9.01666e-05
0.000270795
0.00017818
6.90755e-05
6.70747e-05
0.000423145
0.000268865
0.000418178
0.000278806
0.000132991
0.000124372
0.000420129
0.000262578
0.000303514
0.000122936
0.000142645
7.17636e-05
0.000179718
0.000179555
0.000268268
0.000175655
0.000176559
0.000267212
9.15895e-05
0.000268129
0.000181804
8.90681e-05
0.000301799
0.000267832
0.000180715
7.20209e-05
0.000410966
0.000266424
0.000311718
0.000129865
0.000120685
6.97109e-05
0.000178326
0.000181325
0.000268846
0.000305667
8.54897e-05
0.000266294
0.000173919
0.000264533
0.00028005
0.000127124
7.14034e-05
0.000141064
7.22868e-05
6.80421e-05
0.000271839
9.07193e-05
0.000182755
0.000180642
0.000178489
8.95789e-05
6.84263e-05
0.000277942
0.000260439
0.000437214
0.000325442
0.000407897
0.000293076
0.000314124
0.000321619
0.000142961
0.00027591
7.43373e-05
0.000419862
0.000408254
0.000310188
0.000270549
8.62073e-05
0.000176041
0.000267438
8.69793e-05
0.000318668
0.000176803
0.000178069
0.000176428
8.64539e-05
0.000316299
0.000296399
0.000180001
0.000175346
8.81185e-05
0.000296983
0.000326898
0.000129646
0.000293455
6.96953e-05
0.000418081
0.000405332
0.000306275
0.00026546
8.72068e-05
0.000306756
0.000176634
0.000176907
0.000177914
0.000308427
8.8024e-05
0.000315121
0.000132596
0.000271691
0.000133703
0.000276864
0.000421916
0.000414203
6.96603e-05
0.000139592
0.000137943
0.000134921
0.00012287
0.000411072
0.000134198
0.000273287
0.000321809
6.86451e-05
0.000415084
0.000414583
0.000135722
0.000294781
7.19373e-05
0.000316026
0.000120325
0.000118206
7.18781e-05
0.000406555
0.000121506
0.000266626
0.000314015
0.000130266
7.10132e-05
0.000176698
0.000176637
0.000266539
0.000304984
0.000264533
0.000127898
6.88454e-05
0.000268964
0.000142051
7.95115e-05
0.000389775
0.000418539
0.000123698
0.000265867
7.37119e-05
0.000334369
0.000268583
0.000321799
8.80324e-05
0.00017746
0.000310254
0.000300786
0.000282972
0.000126482
0.000414512
0.00041362
0.000150143
0.00027648
0.000121647
0.000123514
0.000278348
0.000137788
7.44988e-05
0.00028151
0.000132677
6.87982e-05
0.000409721
0.000414638
0.000272821
0.000132401
0.000267984
0.000136766
)
;
        value           nonuniform List<scalar> 
360
(
456.32
456.321
456.326
456.306
456.307
456.341
456.307
456.312
456.301
456.315
456.315
456.336
456.342
456.324
456.318
456.306
456.288
456.291
456.274
456.315
456.295
456.307
456.292
456.305
456.324
456.305
456.341
456.306
456.297
456.31
456.306
456.303
456.324
456.324
456.335
456.337
456.29
456.276
456.292
456.274
456.275
456.306
456.325
456.32
456.321
456.34
456.347
456.326
456.32
456.309
456.342
456.341
456.343
456.343
456.311
456.303
456.291
456.314
456.325
456.334
456.31
456.306
456.309
456.298
456.327
456.309
456.321
456.307
456.309
456.303
456.312
456.303
456.302
456.326
456.307
456.321
456.322
456.294
456.276
456.274
456.294
456.293
456.295
456.311
456.327
456.34
456.337
456.342
456.32
456.314
456.325
456.345
456.341
456.323
456.345
456.34
456.336
456.333
456.314
456.328
456.328
456.327
456.341
456.341
456.345
456.326
456.321
456.342
456.311
456.331
456.338
456.332
456.313
456.313
456.328
456.328
456.309
456.308
456.308
456.32
456.322
456.31
456.296
456.31
456.297
456.31
456.297
456.305
456.311
456.298
456.307
456.309
456.309
456.309
456.328
456.31
456.301
456.321
456.322
456.301
456.311
456.321
456.321
456.301
456.311
456.304
456.328
456.321
456.3
456.28
456.288
456.299
456.279
456.289
456.29
456.291
456.317
456.279
456.304
456.323
456.28
456.292
456.293
456.292
456.291
456.305
456.301
456.273
456.289
456.282
456.308
456.275
456.3
456.274
456.289
456.308
456.282
456.292
456.291
456.326
456.341
456.34
456.347
456.325
456.347
456.342
456.327
456.327
456.296
456.31
456.296
456.309
456.32
456.321
456.296
456.311
456.305
456.322
456.32
456.328
456.34
456.341
456.345
456.342
456.341
456.346
456.311
456.342
456.331
456.313
456.292
456.343
456.332
456.313
456.276
456.29
456.284
456.305
456.303
456.31
456.325
456.324
456.333
456.284
456.306
456.334
456.326
456.293
456.288
456.305
456.313
456.3
456.309
456.326
456.347
456.324
456.34
456.34
456.341
456.322
456.328
456.309
456.311
456.298
456.305
456.299
456.309
456.304
456.303
456.319
456.309
456.326
456.296
456.296
456.306
456.345
456.327
456.343
456.346
456.326
456.307
456.341
456.332
456.339
456.315
456.291
456.293
456.333
456.338
456.314
456.292
456.29
456.302
456.287
456.31
456.275
456.277
456.285
456.334
456.306
456.285
456.326
456.327
456.327
456.287
456.309
456.286
456.306
456.294
456.302
456.29
456.275
456.277
456.326
456.309
456.31
456.31
456.321
456.298
456.319
456.309
456.307
456.327
456.297
456.296
456.319
456.306
456.326
456.304
456.308
456.309
456.329
456.304
456.324
456.313
456.309
456.323
456.329
456.342
456.342
456.346
456.306
456.313
456.322
456.328
456.31
456.319
456.325
456.284
456.282
456.319
456.305
456.323
456.289
456.343
456.289
456.313
456.333
456.292
456.292
456.302
456.317
456.281
456.281
456.313
456.301
456.294
456.294
456.29
456.302
456.31
456.293
456.306
456.314
456.277
456.276
456.291
456.303
456.294
456.305
)
;
        Tnbr            T;
        thicknessLayers 0();
        kappaLayers     0();
        kappaMethod     solidThermo;
        kappa           none;
        alphaAni        none;
    }
}


// ************************************************************************* //
