/*--------------------------------*- C++ -*----------------------------------*\
| =========                 |                                                 |
| \\      /  F ield         | OpenFOAM: The Open Source CFD Toolbox           |
|  \\    /   O peration     | Version:  v1906                                 |
|   \\  /    A nd           | Web:      www.OpenFOAM.com                      |
|    \\/     M anipulation  |                                                 |
\*---------------------------------------------------------------------------*/
FoamFile
{
    version     2.0;
    format      ascii;
    class       volScalarField;
    location    "24.6/sphere";
    object      T;
}
// * * * * * * * * * * * * * * * * * * * * * * * * * * * * * * * * * * * * * //

dimensions      [0 0 0 1 0 0 0];


internalField   nonuniform List<scalar> 
304
(
485.479
485.509
485.508
485.524
485.48
485.479
485.478
485.51
485.477
485.638
485.638
485.524
485.508
485.637
485.637
485.557
485.523
485.557
485.48
485.508
485.525
485.478
485.51
485.638
485.637
485.557
485.525
485.637
485.637
485.585
485.477
485.556
485.585
485.516
485.479
485.526
485.557
485.483
485.483
485.557
485.585
485.515
485.481
485.516
485.466
485.466
485.48
485.481
485.482
485.518
485.48
485.48
485.518
485.482
485.466
485.48
485.483
485.481
485.518
485.51
485.509
485.525
485.525
485.558
485.557
485.585
485.478
485.525
485.509
485.558
485.525
485.585
485.558
485.48
485.483
485.517
485.48
485.478
485.478
485.515
485.479
485.524
485.473
485.507
485.556
485.584
485.521
485.555
485.509
485.508
485.476
485.585
485.557
485.557
485.523
485.517
485.479
485.479
485.464
485.477
485.479
485.515
485.478
485.516
485.48
485.478
485.464
485.481
485.478
485.479
485.516
485.51
485.524
485.558
485.509
485.525
485.557
485.586
485.479
485.558
485.525
485.526
485.51
485.586
485.557
485.481
485.479
485.516
485.48
485.525
485.509
485.557
485.509
485.558
485.525
485.585
485.476
485.557
485.51
485.557
485.509
485.585
485.525
485.556
485.475
485.523
485.525
485.585
485.508
485.556
485.509
485.523
485.476
485.585
485.525
485.557
485.508
485.481
485.478
485.516
485.479
485.556
485.478
485.509
485.557
485.585
485.509
485.525
485.523
485.509
485.477
485.585
485.556
485.525
485.509
485.515
485.477
485.478
485.478
485.48
485.517
485.484
485.525
485.557
485.585
485.477
485.509
485.525
485.557
485.508
485.585
485.556
485.509
485.475
485.557
485.522
485.516
485.478
485.479
485.558
485.526
485.586
485.481
485.527
485.511
485.559
485.509
485.585
485.525
485.524
485.478
485.557
485.509
485.585
485.508
485.556
485.511
485.558
485.477
485.524
485.525
485.557
485.508
485.556
485.508
485.523
485.476
485.515
485.478
485.481
485.585
485.509
485.525
485.524
485.557
485.478
485.51
485.557
485.526
485.51
485.557
485.525
485.51
485.48
485.478
485.479
485.482
485.469
485.478
485.482
485.516
485.478
485.516
485.48
485.478
485.464
485.486
485.481
485.519
485.482
485.557
485.558
485.585
485.481
485.51
485.51
485.525
485.524
485.585
485.557
485.508
485.476
485.525
485.508
485.517
485.48
485.478
485.518
485.482
485.479
485.585
485.523
485.556
485.509
485.524
485.475
485.508
485.556
485.557
485.523
485.524
485.508
485.508
485.475
485.478
485.48
485.477
485.467
485.516
485.479
485.478
485.482
485.479
485.478
)
;

boundaryField
{
    sphere_to_oil
    {
        type            compressible::turbulentTemperatureCoupledBaffleMixed;
        refValue        nonuniform List<scalar> 
360
(
338.14
338.14
312.983
360.109
367.842
315.469
369.025
369.025
369.025
338.743
338.743
315.892
317.679
311.349
335.931
364.081
358.665
358.665
358.665
312.354
356.173
334.085
331.175
364.211
311.828
365.261
314.945
364.764
364.764
364.764
369.934
362.624
313.012
312.818
315.711
315.867
359.062
359.062
359.062
358.421
367.009
313.744
315.851
338.069
338.069
314.851
317.734
309.906
335.974
365.676
315.637
315.498
317.369
317.647
312.1
334.274
359.75
312.328
315.834
317.291
310.321
365.939
365.939
365.939
309.903
364.617
335.731
323.73
368.304
368.304
368.304
368.075
366.589
311.035
356.982
335.188
311.562
329.541
366.77
359.485
332.262
321.391
331.365
310.211
312.981
315.365
316.074
317.55
311.348
312.476
313.006
317.512
315.832
313.136
317.38
315.76
316.034
315.904
313.471
310.697
310.782
311.317
315.465
315.858
317.529
311.225
311.489
317.695
313.481
316.048
316.104
315.951
313.501
312.21
310.273
310.22
325.253
323.379
326.334
338.132
338.132
360.109
360.109
364.211
364.211
361.505
361.505
361.505
363.909
363.909
363.909
325.79
323.336
325.242
311.806
367.842
367.842
336.262
336.262
369.934
369.934
333.96
333.96
369.221
369.221
369.221
311.792
311.874
364.525
364.525
364.525
365.082
365.082
365.082
364.081
356.173
335.931
364.081
362.094
311.526
362.094
362.094
331.264
331.809
322.003
333.553
333.553
368.711
368.711
368.711
310.004
356.173
334.085
367.772
367.772
310.072
367.772
332.052
321.834
310.006
314.881
315.094
317.982
311.739
317.725
315.086
309.973
310.722
365.261
365.261
362.624
362.624
338.058
338.058
360.337
360.337
360.337
336.389
336.389
310.642
315.492
315.631
317.675
315.687
315.387
317.68
313.383
317.689
315.948
313.369
358.421
317.735
316.142
312.351
367.575
367.575
367.575
335.016
335.016
309.915
315.983
315.987
317.254
367.009
313.559
317.163
315.963
358.421
367.009
335.099
312.228
335.099
310.359
310.265
317.672
311.81
315.037
314.964
315.148
311.676
310.373
366.139
358.51
366.139
366.139
358.51
358.51
365.676
364.617
335.974
361.983
310.722
365.676
361.983
361.983
317.193
312.831
315.918
317.48
313.136
368.075
315.58
315.957
316.13
313.453
359.75
356.982
315.993
315.948
313.45
358.615
362.585
334.274
367.338
310.411
359.75
367.338
367.338
317.546
313.593
366.77
315.943
315.78
315.823
366.901
313.545
366.455
335.445
358.615
335.445
366.901
358.615
366.901
309.897
323.135
324.293
324.72
336.833
360.429
336.833
360.429
360.429
310.575
364.617
361.714
335.731
361.714
310.679
361.714
325.682
325.389
311.046
366.105
334.577
366.105
366.105
334.577
311.255
315.347
315.713
317.594
366.589
368.075
334.707
311.582
366.589
334.707
311.278
356.982
363.725
335.188
363.725
311.055
363.725
317.74
359.485
313.557
316.028
362.385
358.9
362.585
335.917
362.585
362.385
335.917
362.385
321.201
331.346
366.77
334.663
310.113
359.485
334.663
312.493
366.455
358.9
366.455
335.593
358.9
335.593
)
;
        refGradient     uniform 0;
        valueFraction   nonuniform List<scalar> 
360
(
0.000131285
0.000125949
8.06343e-05
0.000288061
0.000295433
0.000169404
0.000297269
0.000255166
0.000397178
0.000126457
0.000123293
0.000165401
0.00025208
7.20744e-05
0.000128931
0.00025063
0.000287216
0.000268361
0.000376571
6.59518e-05
0.000247251
0.00012155
0.000112027
0.000297286
8.63125e-05
0.000305575
0.000172246
0.000301629
0.000394742
0.000264054
0.00030168
0.000304278
8.17042e-05
8.07915e-05
0.000169545
0.000166848
0.000282328
0.000382752
0.000262829
0.000395188
0.000390361
8.33523e-05
0.00016533
0.000120665
0.000120521
0.000170195
0.00025463
6.79338e-05
0.000121555
0.000257757
0.000167895
0.000168986
0.000251892
0.000249444
7.04731e-05
0.000128922
0.000262907
6.75114e-05
0.000167248
0.000249405
6.60816e-05
0.000293613
0.000259189
0.000405662
6.8128e-05
0.000265011
0.000123615
0.000119561
0.000300397
0.000391881
0.000263606
0.000377898
0.000383189
7.31831e-05
0.000255494
0.000129612
6.74728e-05
0.000120989
0.000382374
0.00039722
0.000118667
0.000116428
0.000114357
6.79639e-05
8.19579e-05
0.00016616
0.00016709
0.000253042
7.63828e-05
6.44937e-05
8.11119e-05
0.000252629
0.000166774
8.28565e-05
0.000252212
0.000168678
0.00016768
0.000167938
8.18941e-05
6.56427e-05
6.65635e-05
6.56776e-05
0.000168845
0.000165951
0.000252438
7.43209e-05
6.45552e-05
0.000252255
8.01362e-05
0.000166212
0.000166244
0.000169635
8.29494e-05
6.64218e-05
6.47786e-05
6.60301e-05
0.000114936
0.000115074
0.000119545
0.000129628
0.000121832
0.000251738
0.00039657
0.000265223
0.000400217
0.000256538
0.00039441
0.000293661
0.000256745
0.000385825
0.000289208
0.000117963
0.000111557
0.000114263
6.30766e-05
0.000261601
0.000393875
0.000121862
0.000122419
0.000398045
0.000264651
0.000127747
0.000134639
0.000393146
0.000270074
0.000311206
6.94197e-05
6.46023e-05
0.000272676
0.000377859
0.000299511
0.000280754
0.000390942
0.000299479
0.000309204
0.000284815
0.000133228
0.000397112
0.000256511
7.15154e-05
0.000385967
0.000288831
0.000110223
0.000116126
0.000114882
0.000121194
0.000126686
0.000395125
0.000260167
0.000305382
7.32209e-05
0.000380096
0.000130332
0.000399679
0.00025586
7.1521e-05
0.000303374
0.000111202
0.000112234
6.5574e-05
0.000171878
0.00017181
0.00025405
8.47174e-05
0.000254434
0.000167412
6.49007e-05
6.30208e-05
0.000397585
0.00025262
0.000392918
0.000261961
0.000124954
0.000116856
0.000394751
0.000246713
0.000285178
0.000115507
0.000134024
6.74263e-05
0.000168857
0.000168704
0.000252058
0.000165039
0.000165889
0.000251066
8.60526e-05
0.000251926
0.000170815
8.36838e-05
0.00028356
0.000251648
0.000169791
6.76663e-05
0.000386123
0.000250316
0.000292872
0.000122013
0.000113387
6.54954e-05
0.000167544
0.000170361
0.000252595
0.000287187
8.03201e-05
0.000250198
0.000163404
0.000248543
0.000263118
0.000119438
6.70862e-05
0.000132535
6.79156e-05
6.39297e-05
0.000255415
8.52368e-05
0.00017171
0.000169725
0.000167702
8.41654e-05
6.42906e-05
0.000261149
0.000244703
0.000410804
0.000305781
0.000383258
0.00027537
0.000295147
0.000302189
0.000134321
0.00025924
6.98446e-05
0.0003945
0.000383594
0.000291449
0.000254201
8.09973e-05
0.000165402
0.000251278
8.17229e-05
0.000299417
0.000166119
0.000167305
0.000165764
8.12276e-05
0.000297183
0.000278486
0.000169121
0.000164749
8.27916e-05
0.000279034
0.000307143
0.000121807
0.000275714
6.54807e-05
0.00039281
0.000380829
0.000287758
0.000249413
8.19334e-05
0.00028821
0.000165955
0.00016621
0.000167156
0.00028978
8.27012e-05
0.00029607
0.000124579
0.000255268
0.000125618
0.000260125
0.000396414
0.000389164
6.54501e-05
0.000131157
0.000129607
0.000126768
0.000115445
0.000386241
0.000126088
0.000256775
0.000302367
6.44963e-05
0.000390011
0.00038954
0.00012752
0.000276971
6.75896e-05
0.000296935
0.000113054
0.000111063
6.75338e-05
0.000381996
0.000114163
0.000250516
0.000295044
0.000122393
6.67211e-05
0.000166019
0.000165962
0.000250434
0.000286559
0.00024855
0.000120169
6.46845e-05
0.000252713
0.000133467
7.47061e-05
0.000366218
0.000393244
0.000116221
0.0002498
6.92563e-05
0.000314162
0.000252353
0.000302351
8.27107e-05
0.000166733
0.000291504
0.000282608
0.000265873
0.000118837
0.000389461
0.000388623
0.000141069
0.000259772
0.000114293
0.000116046
0.000261519
0.000129457
6.99938e-05
0.000264494
0.000124656
6.46385e-05
0.000384953
0.000389576
0.000256326
0.000124395
0.000251785
0.000128497
)
;
        value           nonuniform List<scalar> 
360
(
485.482
485.483
485.486
485.463
485.465
485.501
485.464
485.471
485.457
485.48
485.481
485.501
485.503
485.489
485.482
485.471
485.458
485.464
485.452
485.489
485.468
485.482
485.467
485.463
485.484
485.462
485.501
485.463
485.454
485.468
485.463
485.46
485.484
485.483
485.5
485.501
485.46
485.454
485.465
485.451
485.455
485.484
485.502
485.481
485.483
485.5
485.503
485.487
485.481
485.468
485.503
485.501
485.504
485.504
485.486
485.478
485.465
485.488
485.501
485.505
485.488
485.463
485.468
485.455
485.488
485.468
485.482
485.466
485.466
485.461
485.471
485.459
485.458
485.492
485.472
485.485
485.487
485.469
485.456
485.452
485.469
485.468
485.469
485.489
485.487
485.501
485.501
485.503
485.484
485.487
485.485
485.504
485.502
485.483
485.503
485.501
485.5
485.5
485.482
485.489
485.489
485.49
485.502
485.502
485.503
485.488
485.487
485.503
485.48
485.5
485.502
485.5
485.483
485.487
485.49
485.49
485.468
485.468
485.468
485.482
485.484
485.469
485.453
485.469
485.454
485.469
485.454
485.462
485.47
485.456
485.465
485.468
485.468
485.468
485.491
485.47
485.458
485.483
485.483
485.458
485.471
485.481
485.481
485.458
485.47
485.461
485.489
485.488
485.466
485.454
485.458
485.465
485.453
485.46
485.459
485.46
485.48
485.452
485.468
485.487
485.453
485.461
485.468
485.468
485.467
485.48
485.48
485.454
485.469
485.463
485.486
485.452
485.479
485.454
485.469
485.486
485.462
485.468
485.466
485.488
485.501
485.5
485.504
485.485
485.504
485.502
485.489
485.489
485.454
485.469
485.453
485.468
485.481
485.482
485.453
485.47
485.461
485.483
485.481
485.489
485.501
485.501
485.504
485.502
485.502
485.504
485.481
485.504
485.5
485.482
485.461
485.503
485.5
485.487
485.457
485.47
485.464
485.48
485.482
485.488
485.502
485.501
485.504
485.464
485.484
485.504
485.502
485.466
485.467
485.48
485.486
485.479
485.487
485.488
485.503
485.484
485.5
485.5
485.501
485.482
485.489
485.468
485.47
485.456
485.462
485.456
485.466
485.461
485.46
485.479
485.467
485.487
485.453
485.453
485.463
485.504
485.487
485.504
485.504
485.485
485.464
485.502
485.501
485.504
485.484
485.461
485.462
485.5
485.501
485.482
485.461
485.459
485.481
485.467
485.488
485.453
485.457
485.465
485.504
485.485
485.465
485.502
485.503
485.503
485.467
485.487
485.466
485.481
485.467
485.481
485.469
485.453
485.457
485.487
485.469
485.469
485.469
485.482
485.455
485.48
485.467
485.464
485.488
485.453
485.452
485.48
485.464
485.487
485.46
485.467
485.467
485.491
485.461
485.485
485.473
485.466
485.484
485.491
485.502
485.503
485.504
485.463
485.472
485.483
485.49
485.469
485.479
485.486
485.456
485.455
485.483
485.47
485.488
485.458
485.503
485.458
485.482
485.501
485.461
485.461
485.466
485.481
485.453
485.453
485.476
485.466
485.469
485.47
485.469
485.481
485.488
485.466
485.48
485.488
485.457
485.453
485.47
485.482
485.467
485.479
)
;
        Tnbr            T;
        thicknessLayers 0();
        kappaLayers     0();
        kappaMethod     solidThermo;
        kappa           none;
        alphaAni        none;
    }
}


// ************************************************************************* //
