/*--------------------------------*- C++ -*----------------------------------*\
| =========                 |                                                 |
| \\      /  F ield         | OpenFOAM: The Open Source CFD Toolbox           |
|  \\    /   O peration     | Version:  v1906                                 |
|   \\  /    A nd           | Web:      www.OpenFOAM.com                      |
|    \\/     M anipulation  |                                                 |
\*---------------------------------------------------------------------------*/
FoamFile
{
    version     2.0;
    format      ascii;
    class       volScalarField;
    location    "0.34/oil";
    object      nut;
}
// * * * * * * * * * * * * * * * * * * * * * * * * * * * * * * * * * * * * * //

dimensions      [0 2 -1 0 0 0 0];


internalField   nonuniform List<scalar> 
168664
(
2.95314e-06
3.09453e-07
3.18452e-07
9.35635e-08
7.70536e-08
4.11903e-08
2.68032e-08
2.1634e-08
1.42284e-08
1.42585e-08
1.21569e-08
1.33763e-08
1.22584e-08
1.18442e-08
1.04727e-08
1.00418e-08
9.07471e-09
8.13611e-09
7.21431e-09
6.3872e-09
5.89423e-09
5.88747e-09
5.73773e-09
5.2603e-09
4.43784e-09
3.50497e-09
2.46812e-09
1.84904e-09
1.17524e-09
2.04334e-10
3.08517e-07
3.56835e-07
8.4399e-08
7.15016e-08
3.14575e-08
2.5317e-08
1.59858e-08
1.39247e-08
1.01574e-08
1.01434e-08
9.52846e-09
1.03391e-08
9.91196e-09
9.81235e-09
8.99734e-09
8.79014e-09
8.06017e-09
7.39045e-09
6.61337e-09
6.03752e-09
5.72625e-09
5.6735e-09
5.46413e-09
5.02879e-09
4.53567e-09
3.92526e-09
3.29069e-09
2.62049e-09
2.64677e-09
1.46345e-09
3.16471e-07
8.4264e-08
7.31223e-08
4.95516e-08
3.45678e-08
2.67467e-08
1.84429e-08
1.52582e-08
1.16763e-08
1.08071e-08
1.00219e-08
1.01623e-08
9.60519e-09
9.55761e-09
8.84171e-09
8.58584e-09
7.90489e-09
7.28555e-09
6.54665e-09
6.0364e-09
5.89005e-09
5.88085e-09
5.78192e-09
5.45527e-09
5.00167e-09
4.49711e-09
4.01367e-09
3.70977e-09
4.42346e-09
3.45178e-09
9.56571e-08
7.2977e-08
5.10352e-08
3.88263e-08
2.63784e-08
2.13795e-08
1.62875e-08
1.39853e-08
1.18324e-08
1.08023e-08
1.00573e-08
9.75362e-09
9.45169e-09
9.4013e-09
8.7185e-09
8.31474e-09
7.58636e-09
6.99121e-09
6.33989e-09
5.92214e-09
5.75026e-09
5.76293e-09
5.82632e-09
5.61511e-09
5.13723e-09
4.59482e-09
4.23544e-09
4.48691e-09
5.43375e-09
4.71909e-09
7.81964e-08
3.38535e-08
3.58167e-08
2.65834e-08
2.30287e-08
1.99581e-08
1.65321e-08
1.48607e-08
1.28585e-08
1.18647e-08
1.08008e-08
1.01734e-08
9.79299e-09
9.63589e-09
8.87743e-09
8.30579e-09
7.57783e-09
7.03275e-09
6.62602e-09
6.50416e-09
6.31956e-09
6.31015e-09
6.32897e-09
6.19497e-09
5.8293e-09
5.37882e-09
5.17473e-09
5.64477e-09
6.7238e-09
6.43124e-09
4.81468e-08
3.13882e-08
3.14664e-08
2.40509e-08
2.16016e-08
1.76358e-08
1.56012e-08
1.36205e-08
1.24016e-08
1.1433e-08
1.07096e-08
9.91606e-09
9.43937e-09
9.34973e-09
8.62416e-09
7.84047e-09
7.08657e-09
6.50022e-09
6.37369e-09
6.49891e-09
6.29271e-09
6.16382e-09
6.07732e-09
5.99901e-09
5.74919e-09
5.60452e-09
5.61698e-09
6.2945e-09
7.40259e-09
7.38619e-09
3.3394e-08
2.23091e-08
2.26544e-08
1.87711e-08
1.78882e-08
1.57745e-08
1.44437e-08
1.31692e-08
1.21037e-08
1.14353e-08
1.08278e-08
1.01462e-08
9.77412e-09
9.89798e-09
9.08732e-09
7.98573e-09
7.03569e-09
6.36579e-09
6.27197e-09
6.40953e-09
6.21332e-09
6.11988e-09
6.1223e-09
6.1589e-09
6.15964e-09
6.29796e-09
6.5954e-09
7.3925e-09
8.51928e-09
8.88153e-09
3.15445e-08
2.28372e-08
2.24984e-08
1.87127e-08
1.7672e-08
1.49784e-08
1.38286e-08
1.21077e-08
1.12224e-08
1.04094e-08
1.01322e-08
9.76908e-09
9.90258e-09
1.02661e-08
9.51163e-09
8.14459e-09
7.1127e-09
6.27058e-09
5.99085e-09
5.8279e-09
5.55898e-09
5.50113e-09
5.62376e-09
5.8759e-09
6.21397e-09
6.70681e-09
7.25831e-09
8.12232e-09
9.19492e-09
9.76542e-09
2.43253e-08
1.88229e-08
1.83023e-08
1.61644e-08
1.53029e-08
1.35198e-08
1.24549e-08
1.11112e-08
1.0233e-08
9.59427e-09
9.5925e-09
9.88884e-09
1.04648e-08
1.08671e-08
1.01261e-08
8.76381e-09
7.52432e-09
6.41067e-09
5.84196e-09
5.44738e-09
5.16482e-09
5.26717e-09
5.60213e-09
6.11692e-09
6.76849e-09
7.46664e-09
8.23754e-09
9.08727e-09
1.002e-08
1.0801e-08
2.46993e-08
1.93694e-08
1.8749e-08
1.66112e-08
1.54326e-08
1.32703e-08
1.19832e-08
1.03009e-08
9.28998e-09
8.56349e-09
8.85463e-09
9.53416e-09
1.0219e-08
1.02186e-08
9.6825e-09
8.71118e-09
7.41441e-09
6.21416e-09
5.44691e-09
4.89387e-09
4.62604e-09
4.8777e-09
5.40745e-09
6.08201e-09
6.82455e-09
7.71337e-09
8.69558e-09
9.50902e-09
1.03699e-08
1.12628e-08
2.16459e-08
1.74985e-08
1.67718e-08
1.52624e-08
1.41086e-08
1.24893e-08
1.12912e-08
9.7669e-09
8.76458e-09
8.28823e-09
8.78189e-09
9.50616e-09
9.66146e-09
8.92945e-09
8.31548e-09
7.72546e-09
6.75155e-09
5.86001e-09
5.17128e-09
4.6921e-09
4.62454e-09
5.11887e-09
5.85152e-09
6.65875e-09
7.45125e-09
8.44711e-09
9.49483e-09
1.01586e-08
1.09289e-08
1.19064e-08
2.20789e-08
1.79165e-08
1.70528e-08
1.55783e-08
1.45416e-08
1.31132e-08
1.19452e-08
1.01495e-08
8.80012e-09
7.97214e-09
8.09641e-09
8.34481e-09
7.74055e-09
6.54893e-09
5.97055e-09
5.56393e-09
4.83877e-09
4.62315e-09
4.43782e-09
4.21737e-09
4.49714e-09
5.31848e-09
6.28312e-09
7.32598e-09
8.23194e-09
9.19847e-09
1.00888e-08
1.05782e-08
1.1279e-08
1.23249e-08
2.02457e-08
1.69579e-08
1.62861e-08
1.53702e-08
1.45154e-08
1.34114e-08
1.23379e-08
1.05893e-08
9.10206e-09
7.68677e-09
7.16497e-09
6.70134e-09
5.70266e-09
4.954e-09
4.52233e-09
4.20333e-09
3.65869e-09
3.30478e-09
3.60319e-09
3.65774e-09
4.28751e-09
5.72646e-09
6.95533e-09
8.03843e-09
8.96182e-09
9.87579e-09
1.06266e-08
1.11133e-08
1.18857e-08
1.32135e-08
1.94551e-08
1.63839e-08
1.58386e-08
1.5141e-08
1.43409e-08
1.32506e-08
1.2219e-08
1.08036e-08
9.54464e-09
7.46003e-09
5.74175e-09
4.15073e-09
3.16524e-09
2.77223e-09
2.6834e-09
2.67763e-09
2.11766e-09
1.60939e-09
1.87486e-09
2.74491e-09
4.07662e-09
6.00869e-09
7.46614e-09
8.57195e-09
9.39261e-09
1.02656e-08
1.10415e-08
1.16133e-08
1.24729e-08
1.41213e-08
1.82891e-08
1.55335e-08
1.49653e-08
1.43468e-08
1.36222e-08
1.26787e-08
1.17119e-08
1.05238e-08
9.44739e-09
7.37053e-09
5.2054e-09
3.33344e-09
2.19378e-09
2.07016e-09
2.40737e-09
2.1872e-09
1.61482e-09
1.28648e-09
1.79871e-09
2.9606e-09
4.47566e-09
6.43819e-09
8.01251e-09
9.21438e-09
1.00428e-08
1.08833e-08
1.16637e-08
1.22615e-08
1.30796e-08
1.4969e-08
1.78985e-08
1.52017e-08
1.45721e-08
1.39598e-08
1.32874e-08
1.23928e-08
1.14176e-08
1.00782e-08
8.7003e-09
6.72912e-09
4.86062e-09
3.20039e-09
2.06979e-09
1.87411e-09
2.64777e-09
2.24457e-09
1.57026e-09
1.66011e-09
2.37805e-09
3.57431e-09
4.90631e-09
6.71081e-09
8.06755e-09
9.24207e-09
1.00528e-08
1.09278e-08
1.17128e-08
1.23422e-08
1.30428e-08
1.48263e-08
1.65028e-08
1.42244e-08
1.35717e-08
1.302e-08
1.23819e-08
1.15323e-08
1.0662e-08
9.50733e-09
8.01443e-09
5.94036e-09
3.90092e-09
2.54438e-09
1.93246e-09
2.18958e-09
2.96557e-09
2.69851e-09
2.19846e-09
2.50851e-09
3.49011e-09
4.63895e-09
5.67361e-09
7.15172e-09
8.26676e-09
9.25901e-09
1.00864e-08
1.10248e-08
1.18506e-08
1.24161e-08
1.30055e-08
1.46766e-08
1.55516e-08
1.35888e-08
1.29187e-08
1.23494e-08
1.16766e-08
1.07437e-08
9.83174e-09
8.65769e-09
7.36149e-09
5.51634e-09
4.05715e-09
3.43756e-09
2.82952e-09
2.97759e-09
3.57657e-09
3.31727e-09
3.21554e-09
3.80951e-09
4.90939e-09
5.75376e-09
5.98325e-09
7.14333e-09
8.02229e-09
9.09666e-09
1.00179e-08
1.09808e-08
1.18473e-08
1.25523e-08
1.32757e-08
1.50039e-08
1.45825e-08
1.29763e-08
1.22614e-08
1.16137e-08
1.08563e-08
9.8955e-09
8.95258e-09
7.79777e-09
6.67779e-09
5.60189e-09
4.94046e-09
4.75812e-09
4.39833e-09
4.29531e-09
4.64004e-09
4.27427e-09
4.3522e-09
5.03269e-09
5.67653e-09
5.90955e-09
5.87114e-09
6.3823e-09
7.0822e-09
8.17596e-09
9.05608e-09
9.87262e-09
1.07369e-08
1.17698e-08
1.28286e-08
1.4668e-08
1.37327e-08
1.22087e-08
1.14022e-08
1.05651e-08
9.68448e-09
8.69172e-09
7.87226e-09
6.93808e-09
6.10207e-09
5.40396e-09
5.25919e-09
5.38838e-09
5.58213e-09
5.93374e-09
6.42755e-09
6.23698e-09
6.34767e-09
6.58428e-09
6.28061e-09
5.88108e-09
5.47968e-09
5.71881e-09
6.23294e-09
7.17521e-09
7.97341e-09
8.79536e-09
9.68253e-09
1.07902e-08
1.18799e-08
1.35476e-08
1.25995e-08
1.12762e-08
1.05793e-08
9.66373e-09
8.76308e-09
7.93173e-09
7.23077e-09
6.45723e-09
5.75121e-09
5.31415e-09
5.30406e-09
5.43482e-09
5.7817e-09
6.57851e-09
7.60071e-09
7.98118e-09
8.09229e-09
7.53699e-09
6.72348e-09
5.96281e-09
5.33281e-09
5.39462e-09
5.83089e-09
6.67905e-09
7.36961e-09
8.1905e-09
9.00531e-09
1.00018e-08
1.09501e-08
1.20825e-08
1.17564e-08
1.07407e-08
1.0138e-08
9.18932e-09
8.32998e-09
7.62415e-09
7.05117e-09
6.46213e-09
5.93951e-09
5.65816e-09
5.42273e-09
5.1636e-09
5.42332e-09
6.36396e-09
7.56136e-09
8.44569e-09
8.51537e-09
7.42261e-09
6.438e-09
5.96449e-09
5.58289e-09
5.68015e-09
5.94096e-09
6.52481e-09
6.97994e-09
7.64156e-09
8.28777e-09
9.24226e-09
1.02066e-08
1.10429e-08
1.05933e-08
9.88107e-09
9.12382e-09
8.2138e-09
7.60876e-09
7.08075e-09
6.70093e-09
6.36088e-09
6.09022e-09
6.01344e-09
5.6844e-09
5.14311e-09
5.11535e-09
5.94485e-09
6.99399e-09
7.85849e-09
7.84757e-09
6.8866e-09
6.23882e-09
6.20052e-09
6.03685e-09
5.99448e-09
5.9866e-09
6.26315e-09
6.44684e-09
6.90779e-09
7.40381e-09
8.32811e-09
9.29787e-09
9.79428e-09
9.55554e-09
9.01521e-09
8.0797e-09
7.33091e-09
6.96948e-09
6.69135e-09
6.57382e-09
6.50522e-09
6.41489e-09
6.34602e-09
5.88327e-09
5.32681e-09
5.10045e-09
5.58848e-09
6.3608e-09
6.98841e-09
7.05523e-09
6.5381e-09
6.20275e-09
6.38108e-09
6.39629e-09
6.4056e-09
6.27474e-09
6.32624e-09
6.27598e-09
6.44517e-09
6.69217e-09
7.55706e-09
8.54444e-09
8.84985e-09
7.87871e-09
7.7375e-09
6.81218e-09
6.29682e-09
6.12798e-09
6.02783e-09
6.13823e-09
6.30207e-09
6.44392e-09
6.37637e-09
5.82217e-09
5.38148e-09
5.41956e-09
5.70081e-09
6.11945e-09
6.38528e-09
6.67001e-09
6.53623e-09
6.18397e-09
6.10143e-09
6.24307e-09
6.38077e-09
6.24761e-09
6.21785e-09
5.99413e-09
5.89294e-09
5.81629e-09
6.5957e-09
7.59148e-09
7.56797e-09
6.67871e-09
6.75686e-09
5.79813e-09
5.46978e-09
5.60868e-09
5.79089e-09
6.00017e-09
6.29692e-09
6.55082e-09
6.60383e-09
6.08874e-09
5.73287e-09
5.93826e-09
6.17486e-09
6.24358e-09
6.19135e-09
6.58696e-09
6.71676e-09
6.29041e-09
5.96009e-09
5.97391e-09
6.2123e-09
6.21236e-09
6.1924e-09
5.88885e-09
5.48199e-09
5.20372e-09
5.83756e-09
6.8646e-09
6.62998e-09
5.01266e-09
5.47632e-09
4.42786e-09
4.27461e-09
4.70613e-09
5.02026e-09
5.36109e-09
5.7595e-09
6.08595e-09
6.31407e-09
5.99057e-09
5.91545e-09
6.21822e-09
6.36726e-09
6.17325e-09
5.90745e-09
6.29644e-09
6.4667e-09
6.23737e-09
5.82279e-09
5.54935e-09
5.52481e-09
5.47055e-09
5.43932e-09
5.13752e-09
4.75297e-09
4.36934e-09
4.7799e-09
5.70572e-09
5.09302e-09
3.65981e-09
4.48243e-09
3.52906e-09
3.85683e-09
4.29806e-09
4.72139e-09
5.19276e-09
5.66372e-09
6.05512e-09
6.32957e-09
6.17469e-09
6.30232e-09
6.59005e-09
6.61811e-09
6.38623e-09
6.06353e-09
6.23693e-09
6.4048e-09
6.38279e-09
6.13043e-09
5.6545e-09
5.40379e-09
5.18434e-09
5.14303e-09
4.9403e-09
4.6573e-09
4.16593e-09
3.89476e-09
4.64448e-09
3.78668e-09
1.72356e-09
2.91587e-09
2.70591e-09
3.29326e-09
3.78947e-09
4.39598e-09
4.96154e-09
5.57401e-09
6.11391e-09
6.57691e-09
6.67219e-09
6.78529e-09
6.92933e-09
6.98193e-09
6.9794e-09
6.68636e-09
6.71064e-09
6.79051e-09
6.75863e-09
6.39323e-09
5.7629e-09
5.36094e-09
5.02857e-09
4.86884e-09
4.52317e-09
4.01705e-09
3.37664e-09
2.63387e-09
2.78356e-09
1.70741e-09
7.82748e-10
1.69961e-09
2.49177e-09
3.10154e-09
3.9031e-09
4.62457e-09
5.33452e-09
6.08736e-09
6.82704e-09
7.34029e-09
7.56069e-09
7.67661e-09
7.67682e-09
7.8621e-09
7.78574e-09
7.41608e-09
7.49891e-09
7.71269e-09
7.68575e-09
7.06191e-09
6.2056e-09
5.67564e-09
5.17408e-09
4.8676e-09
4.20558e-09
3.39455e-09
2.32593e-09
1.56707e-09
9.84047e-10
2.62228e-10
3.07835e-07
3.64828e-07
8.59463e-08
7.32156e-08
3.15481e-08
2.57182e-08
1.59525e-08
1.42407e-08
9.78073e-09
9.89171e-09
8.46481e-09
9.56812e-09
9.01458e-09
9.50946e-09
8.75287e-09
8.6871e-09
7.97149e-09
7.11155e-09
6.65948e-09
5.90327e-09
5.50467e-09
5.19356e-09
5.12218e-09
4.81102e-09
4.4664e-09
3.8074e-09
3.13865e-09
2.42113e-09
1.94379e-09
1.11925e-09
3.62315e-07
7.5855e-08
5.93218e-08
2.89566e-08
1.42077e-08
1.1554e-08
7.31814e-09
5.77241e-09
4.44285e-09
4.14744e-09
3.92795e-09
3.26283e-09
2.44389e-09
2.63984e-09
2.76546e-09
2.78178e-09
2.694e-09
2.62891e-09
2.3718e-09
2.0454e-09
2.10893e-09
2.50916e-09
2.97151e-09
3.25089e-09
3.22565e-09
2.88056e-09
2.55227e-09
2.19493e-09
3.18121e-09
2.68922e-09
8.41135e-08
6.01802e-08
3.09951e-08
2.81825e-08
1.42148e-08
1.32723e-08
8.47452e-09
6.82464e-09
5.1252e-09
4.97608e-09
5.00958e-09
4.89785e-09
3.5415e-09
2.778e-09
2.47877e-09
2.30971e-09
2.01132e-09
1.63023e-09
1.50767e-09
1.81592e-09
2.23334e-09
3.19232e-09
3.91863e-09
3.99173e-09
4.03771e-09
3.84486e-09
3.20087e-09
2.91836e-09
3.60353e-09
4.48319e-09
7.31453e-08
2.72923e-08
2.67021e-08
1.72296e-08
9.56189e-09
9.16226e-09
5.24644e-09
5.33804e-09
4.32775e-09
4.55242e-09
4.50536e-09
4.7257e-09
3.41056e-09
2.67283e-09
2.27147e-09
2.20467e-09
2.36589e-09
1.76651e-09
1.88561e-09
2.57515e-09
3.3383e-09
3.8315e-09
3.67606e-09
3.53406e-09
3.95555e-09
3.98403e-09
3.47834e-09
3.38166e-09
3.35598e-09
5.50521e-09
3.34878e-08
1.30168e-08
1.22691e-08
9.97616e-09
6.05513e-09
6.67997e-09
4.20194e-09
4.36122e-09
3.43236e-09
3.39205e-09
3.03562e-09
3.23633e-09
2.20757e-09
2.39737e-09
2.31226e-09
2.35339e-09
2.51942e-09
1.82624e-09
2.0797e-09
2.91803e-09
3.38638e-09
2.81636e-09
2.04533e-09
2.01494e-09
2.6206e-09
3.03166e-09
3.27184e-09
3.54196e-09
3.18482e-09
6.84255e-09
3.09331e-08
9.53068e-09
1.1567e-08
9.29529e-09
6.30936e-09
6.07311e-09
3.56662e-09
3.57741e-09
2.3666e-09
2.51978e-09
2.39998e-09
2.60719e-09
2.06696e-09
2.41462e-09
2.46065e-09
2.53855e-09
2.65706e-09
2.16157e-09
2.53477e-09
2.79886e-09
2.60385e-09
1.67014e-09
1.07598e-09
1.13468e-09
1.54363e-09
2.16967e-09
2.89492e-09
3.40878e-09
2.94509e-09
7.51861e-09
2.22881e-08
5.62935e-09
6.78802e-09
5.20151e-09
4.07413e-09
4.09334e-09
2.86351e-09
2.98376e-09
2.18915e-09
2.38354e-09
2.3157e-09
2.64744e-09
2.15681e-09
2.61961e-09
2.85344e-09
2.75167e-09
2.7982e-09
2.60429e-09
3.06114e-09
2.57509e-09
2.09375e-09
1.43587e-09
1.20886e-09
1.03865e-09
1.30672e-09
2.12774e-09
2.91194e-09
3.34075e-09
2.96645e-09
8.59949e-09
2.27746e-08
3.64262e-09
5.77543e-09
5.52792e-09
4.50926e-09
4.37334e-09
3.28582e-09
3.24042e-09
2.44117e-09
2.48301e-09
2.32445e-09
2.40463e-09
1.7181e-09
2.31391e-09
2.76188e-09
2.48741e-09
2.39391e-09
2.52359e-09
2.87858e-09
2.29009e-09
1.73845e-09
1.34714e-09
1.1863e-09
1.06187e-09
1.45736e-09
2.28627e-09
2.88266e-09
3.19261e-09
2.88785e-09
9.23651e-09
1.89133e-08
3.06811e-09
3.82149e-09
3.57542e-09
3.38058e-09
3.40657e-09
2.8982e-09
2.97551e-09
2.57772e-09
2.63435e-09
2.38119e-09
1.8979e-09
1.09031e-09
2.86497e-09
3.58622e-09
3.05901e-09
2.29865e-09
1.93875e-09
2.47952e-09
2.13782e-09
1.79716e-09
1.48338e-09
1.38096e-09
1.43232e-09
1.86493e-09
2.44417e-09
2.74106e-09
2.84766e-09
2.7002e-09
1.00966e-08
1.92911e-08
2.08455e-09
2.9585e-09
3.10586e-09
3.17148e-09
3.38093e-09
3.02247e-09
3.09237e-09
2.86619e-09
2.73822e-09
2.35017e-09
1.5596e-09
2.03941e-09
4.01614e-09
4.68499e-09
4.04623e-09
2.94094e-09
1.43955e-09
1.73163e-09
1.90966e-09
1.67845e-09
1.59117e-09
1.56249e-09
1.72188e-09
1.93883e-09
2.21552e-09
2.25117e-09
2.18146e-09
2.28839e-09
1.05532e-08
1.7563e-08
2.10422e-09
2.14296e-09
1.97146e-09
1.99271e-09
2.35813e-09
2.4957e-09
2.90211e-09
2.98731e-09
2.84459e-09
2.54183e-09
2.43737e-09
3.67867e-09
5.2256e-09
5.78227e-09
5.48167e-09
4.68065e-09
2.49818e-09
1.73054e-09
1.82291e-09
1.97813e-09
2.0768e-09
2.11314e-09
2.18207e-09
2.22439e-09
2.22478e-09
2.02277e-09
1.83737e-09
2.01568e-09
1.10013e-08
1.79231e-08
1.87654e-09
1.51828e-09
1.4136e-09
1.43709e-09
1.90237e-09
2.27881e-09
2.82595e-09
3.29511e-09
3.30308e-09
2.91098e-09
3.29714e-09
4.19423e-09
4.6942e-09
4.90824e-09
4.8675e-09
4.24875e-09
3.0147e-09
2.03248e-09
1.87735e-09
2.26046e-09
2.4653e-09
2.41871e-09
2.35532e-09
2.29888e-09
2.22869e-09
1.90771e-09
1.81609e-09
1.84081e-09
1.12762e-08
1.6753e-08
1.99265e-09
1.45044e-09
1.25452e-09
1.1604e-09
1.30961e-09
1.62468e-09
2.2029e-09
2.91242e-09
3.04381e-09
2.82703e-09
4.19113e-09
4.55169e-09
4.53872e-09
4.4517e-09
4.22234e-09
3.91421e-09
3.20347e-09
2.78396e-09
1.78003e-09
2.28348e-09
2.46683e-09
2.25935e-09
1.99065e-09
1.84124e-09
1.82007e-09
1.63475e-09
1.75754e-09
1.89418e-09
1.19731e-08
1.63145e-08
1.82515e-09
1.58489e-09
1.54659e-09
1.54567e-09
1.46329e-09
1.60363e-09
2.00984e-09
2.7403e-09
2.9293e-09
3.35361e-09
3.87807e-09
3.68184e-09
3.5188e-09
3.14353e-09
2.87002e-09
2.29075e-09
2.19283e-09
2.12864e-09
1.82826e-09
1.87067e-09
2.28746e-09
1.98864e-09
1.63053e-09
1.46651e-09
1.53913e-09
1.4689e-09
1.64636e-09
1.94536e-09
1.26115e-08
1.54832e-08
1.95157e-09
1.64621e-09
1.59347e-09
1.59804e-09
1.63286e-09
1.7927e-09
2.16829e-09
2.79033e-09
3.35631e-09
3.59653e-09
3.25411e-09
2.81099e-09
2.45812e-09
2.71692e-09
2.3986e-09
1.90386e-09
2.00483e-09
2.1425e-09
2.5105e-09
2.74857e-09
2.69839e-09
2.05936e-09
1.51021e-09
1.32669e-09
1.39474e-09
1.34899e-09
1.50939e-09
1.95472e-09
1.31512e-08
1.52374e-08
2.157e-09
1.79699e-09
1.68328e-09
1.7621e-09
1.88525e-09
2.07482e-09
2.36648e-09
3.01064e-09
3.34117e-09
3.06811e-09
2.28061e-09
1.98967e-09
1.95714e-09
2.50296e-09
2.52281e-09
2.04247e-09
2.24124e-09
2.47993e-09
3.01319e-09
3.02285e-09
2.79291e-09
1.95196e-09
1.28687e-09
1.03922e-09
1.20453e-09
1.22054e-09
1.32079e-09
1.65629e-09
1.30207e-08
1.43656e-08
2.1861e-09
1.95927e-09
1.81689e-09
1.93792e-09
2.0437e-09
2.17352e-09
2.48046e-09
2.99392e-09
2.82173e-09
2.69548e-09
2.57128e-09
2.44869e-09
2.48089e-09
3.00899e-09
2.98284e-09
2.64667e-09
2.7379e-09
2.79956e-09
2.65239e-09
2.43783e-09
2.88153e-09
2.06206e-09
1.31006e-09
1.06856e-09
1.34823e-09
1.49143e-09
1.4863e-09
1.63859e-09
1.29711e-08
1.37313e-08
2.17547e-09
2.15818e-09
1.95224e-09
2.10875e-09
2.19208e-09
2.39128e-09
2.57013e-09
2.90018e-09
2.55572e-09
2.33799e-09
2.57386e-09
2.90857e-09
3.17423e-09
3.64382e-09
3.6708e-09
3.72034e-09
3.48112e-09
2.78398e-09
1.7696e-09
2.60262e-09
3.31445e-09
2.52163e-09
2.02443e-09
1.70299e-09
1.75828e-09
1.95432e-09
1.95593e-09
2.04238e-09
1.30779e-08
1.29238e-08
2.38889e-09
2.48039e-09
2.42279e-09
2.70322e-09
2.75171e-09
2.83889e-09
2.82173e-09
3.01728e-09
2.75007e-09
2.71011e-09
2.13422e-09
2.66583e-09
3.38564e-09
4.11955e-09
4.07966e-09
3.9631e-09
3.3472e-09
2.07758e-09
1.60446e-09
2.76757e-09
3.46483e-09
2.90373e-09
2.53721e-09
2.18182e-09
2.19619e-09
2.38742e-09
2.45638e-09
2.46806e-09
1.27935e-08
1.22834e-08
2.50626e-09
2.41093e-09
2.59675e-09
2.83983e-09
2.55032e-09
2.40586e-09
2.19503e-09
2.40853e-09
2.13849e-09
2.29205e-09
1.29814e-09
1.7526e-09
3.29209e-09
4.425e-09
4.61847e-09
4.38877e-09
2.87638e-09
1.32033e-09
1.76118e-09
2.24824e-09
2.8052e-09
2.42535e-09
2.3212e-09
2.15486e-09
2.41551e-09
2.52375e-09
2.39815e-09
2.48709e-09
1.20607e-08
1.15762e-08
2.7844e-09
2.52357e-09
2.92121e-09
3.07459e-09
2.36632e-09
2.01574e-09
1.75882e-09
1.98636e-09
1.86905e-09
2.20835e-09
1.44741e-09
8.1173e-10
1.70301e-09
3.13689e-09
3.85251e-09
3.62182e-09
1.60216e-09
1.21433e-09
2.23311e-09
2.13579e-09
2.35067e-09
2.00008e-09
2.11967e-09
2.26985e-09
2.869e-09
2.88102e-09
2.66753e-09
2.53035e-09
1.09134e-08
1.0835e-08
2.91054e-09
2.99225e-09
3.34656e-09
3.07342e-09
2.16758e-09
1.74226e-09
1.34254e-09
1.5693e-09
1.61219e-09
2.152e-09
2.08448e-09
1.68741e-09
1.24413e-09
1.96655e-09
2.48966e-09
2.12586e-09
1.16522e-09
1.60593e-09
2.14511e-09
1.74819e-09
1.83015e-09
1.48541e-09
1.70224e-09
1.97282e-09
2.81586e-09
3.11944e-09
3.06535e-09
2.5948e-09
1.00903e-08
9.93822e-09
2.9244e-09
3.47891e-09
3.4119e-09
2.7701e-09
1.8584e-09
1.47908e-09
1.04924e-09
1.39857e-09
1.52337e-09
2.17532e-09
2.46886e-09
2.40943e-09
2.41281e-09
2.54011e-09
2.44232e-09
1.49648e-09
1.79321e-09
2.31548e-09
2.35534e-09
1.589e-09
1.54693e-09
1.19376e-09
1.41854e-09
1.58942e-09
2.5675e-09
3.17445e-09
3.32127e-09
2.75731e-09
9.23938e-09
9.18845e-09
2.91975e-09
3.51806e-09
2.88842e-09
2.21996e-09
1.48134e-09
1.23048e-09
7.85383e-10
1.2097e-09
1.49427e-09
2.26463e-09
2.35102e-09
2.40969e-09
2.988e-09
3.0377e-09
2.42899e-09
1.58285e-09
2.37718e-09
2.76932e-09
2.9129e-09
1.93369e-09
1.38528e-09
9.53411e-10
1.18228e-09
1.27752e-09
2.19538e-09
3.04207e-09
3.44791e-09
2.82797e-09
8.54179e-09
7.91045e-09
2.99131e-09
3.44365e-09
2.47353e-09
1.82974e-09
1.2948e-09
1.47314e-09
1.21924e-09
1.47401e-09
1.73935e-09
2.47146e-09
2.20908e-09
2.27954e-09
3.10817e-09
3.10083e-09
2.32754e-09
1.96921e-09
2.54356e-09
2.90797e-09
3.54752e-09
2.86493e-09
1.96554e-09
1.20253e-09
1.47889e-09
1.65479e-09
2.49411e-09
3.1685e-09
3.75827e-09
3.0683e-09
7.62786e-09
6.98659e-09
2.95781e-09
3.21305e-09
2.22084e-09
1.80642e-09
1.61323e-09
1.97976e-09
1.95988e-09
2.31432e-09
2.33248e-09
2.55285e-09
1.87101e-09
2.1437e-09
2.90208e-09
2.86384e-09
2.24054e-09
2.0589e-09
2.3466e-09
2.69786e-09
3.59033e-09
3.48322e-09
3.14951e-09
2.36051e-09
2.5171e-09
2.81384e-09
3.41253e-09
3.39472e-09
3.85989e-09
3.3392e-09
6.89883e-09
5.80734e-09
3.13835e-09
3.16859e-09
2.43124e-09
2.62729e-09
2.68523e-09
3.00937e-09
3.07821e-09
3.65075e-09
3.64989e-09
3.30638e-09
1.71819e-09
1.86119e-09
2.60645e-09
3.03386e-09
2.61115e-09
2.5399e-09
2.94243e-09
3.15288e-09
3.88952e-09
3.88266e-09
4.27711e-09
4.14522e-09
4.42308e-09
4.50831e-09
4.51362e-09
3.65199e-09
3.73509e-09
3.64056e-09
5.71434e-09
4.89748e-09
3.52735e-09
3.08324e-09
2.88512e-09
3.1288e-09
2.97171e-09
3.12513e-09
3.08746e-09
3.67128e-09
3.80613e-09
3.57026e-09
1.75253e-09
1.48104e-09
2.29969e-09
2.77637e-09
2.33026e-09
2.16328e-09
2.74867e-09
2.82885e-09
3.09449e-09
2.82174e-09
3.43668e-09
3.80448e-09
4.5401e-09
4.4534e-09
4.16609e-09
3.14624e-09
2.94642e-09
3.68851e-09
4.67681e-09
3.28539e-09
3.55905e-09
2.65433e-09
2.93181e-09
2.89527e-09
2.76385e-09
2.96356e-09
3.02864e-09
3.54503e-09
3.78827e-09
3.7914e-09
2.8753e-09
2.77189e-09
2.50436e-09
2.2731e-09
1.71128e-09
1.75417e-09
2.21076e-09
2.18694e-09
2.34578e-09
2.09045e-09
2.625e-09
2.75421e-09
3.34537e-09
3.26317e-09
3.00169e-09
2.49075e-09
2.14598e-09
3.13226e-09
2.81948e-09
1.92685e-09
2.6795e-09
3.01451e-09
3.52434e-09
4.03024e-09
4.53266e-09
5.2085e-09
5.91794e-09
6.75537e-09
7.41649e-09
7.55349e-09
7.33469e-09
6.98113e-09
6.90529e-09
6.80708e-09
6.52247e-09
6.59468e-09
6.60559e-09
6.68303e-09
6.42669e-09
5.7903e-09
5.45705e-09
4.93547e-09
4.79642e-09
4.32181e-09
3.73473e-09
2.92394e-09
2.14e-09
1.72924e-09
1.14985e-09
3.1927e-07
8.61312e-08
7.29065e-08
4.87175e-08
3.23347e-08
2.63813e-08
1.7012e-08
1.4611e-08
9.35779e-09
8.93664e-09
7.33168e-09
7.78809e-09
7.60999e-09
6.57823e-09
6.42678e-09
6.19199e-09
5.71734e-09
6.06664e-09
5.21412e-09
5.62835e-09
4.36958e-09
4.83354e-09
4.68977e-09
5.33284e-09
5.05479e-09
4.56045e-09
3.76897e-09
2.84986e-09
2.11333e-09
1.70634e-09
8.42752e-08
6.04951e-08
3.20379e-08
2.88051e-08
1.31124e-08
1.17911e-08
7.4523e-09
6.34048e-09
5.424e-09
4.75077e-09
3.63733e-09
2.42712e-09
2.14011e-09
2.387e-09
2.77927e-09
2.33134e-09
2.30536e-09
2.40671e-09
2.29084e-09
1.79953e-09
1.07196e-09
1.45723e-09
2.20995e-09
2.64128e-09
2.46346e-09
2.06751e-09
1.89111e-09
1.92444e-09
2.3513e-09
2.46639e-09
7.18315e-08
3.24109e-08
2.56465e-08
2.5892e-08
1.46771e-08
1.32222e-08
8.16655e-09
6.97479e-09
6.12561e-09
6.18443e-09
5.331e-09
4.1854e-09
3.29088e-09
2.981e-09
2.99541e-09
2.76573e-09
3.03752e-09
2.81847e-09
2.66624e-09
2.48351e-09
2.19032e-09
2.60687e-09
3.7562e-09
4.22568e-09
3.25618e-09
2.36076e-09
2.55864e-09
3.33858e-09
3.0185e-09
3.85265e-09
5.04871e-08
2.75203e-08
2.48469e-08
1.95023e-08
1.15622e-08
1.04018e-08
6.28351e-09
5.54663e-09
4.51452e-09
5.2074e-09
5.49056e-09
5.35329e-09
4.54717e-09
3.78746e-09
3.21274e-09
2.96478e-09
2.92464e-09
2.56615e-09
2.61236e-09
2.38681e-09
1.82705e-09
3.40022e-09
5.07775e-09
5.14775e-09
4.1561e-09
2.90589e-09
2.87707e-09
3.49582e-09
3.25122e-09
4.82042e-09
3.48559e-08
1.30701e-08
1.32245e-08
1.09033e-08
7.48821e-09
7.6008e-09
5.27789e-09
4.8022e-09
3.90471e-09
4.66187e-09
5.83327e-09
5.83691e-09
4.26754e-09
3.40208e-09
2.89013e-09
2.67198e-09
2.45815e-09
2.34689e-09
2.4646e-09
2.54707e-09
3.5528e-09
4.71771e-09
5.06102e-09
4.95412e-09
4.55943e-09
3.52895e-09
3.42212e-09
3.04452e-09
3.39266e-09
6.0651e-09
3.11962e-08
1.14552e-08
1.26389e-08
9.94632e-09
7.27141e-09
6.30842e-09
4.21752e-09
3.43794e-09
2.60824e-09
3.13348e-09
4.05722e-09
3.74253e-09
2.36921e-09
1.9885e-09
1.76522e-09
1.87878e-09
1.97915e-09
2.17721e-09
1.80117e-09
2.53221e-09
3.07907e-09
2.96079e-09
2.37275e-09
2.68243e-09
3.28102e-09
3.43047e-09
3.60408e-09
2.4794e-09
3.33331e-09
6.72172e-09
2.2857e-08
6.4427e-09
7.1759e-09
5.48646e-09
4.48524e-09
4.1261e-09
2.91714e-09
2.6378e-09
2.33207e-09
2.56021e-09
3.14533e-09
2.96956e-09
1.95098e-09
1.90587e-09
2.02271e-09
2.03498e-09
1.91853e-09
1.88294e-09
1.9871e-09
2.5222e-09
1.99236e-09
1.4472e-09
7.94124e-10
1.27146e-09
2.51939e-09
3.32928e-09
3.34792e-09
2.08693e-09
3.32809e-09
7.71888e-09
2.25976e-08
4.9119e-09
5.97413e-09
5.7441e-09
5.00506e-09
4.48703e-09
3.35528e-09
3.0271e-09
2.54289e-09
2.3723e-09
2.70409e-09
2.57769e-09
1.7747e-09
2.03784e-09
1.79467e-09
1.44501e-09
1.10893e-09
1.5664e-09
2.16927e-09
2.27317e-09
1.27702e-09
1.0671e-09
6.88302e-10
1.10589e-09
2.28098e-09
2.93598e-09
2.83293e-09
1.92915e-09
3.16212e-09
8.34315e-09
1.84468e-08
3.64611e-09
3.55017e-09
3.04592e-09
3.15151e-09
3.37381e-09
2.91972e-09
2.76433e-09
2.508e-09
2.31923e-09
2.48558e-09
2.02679e-09
1.87547e-09
2.54257e-09
1.93705e-09
1.09612e-09
1.03947e-09
1.01655e-09
1.73426e-09
2.03839e-09
1.3545e-09
1.30055e-09
1.07833e-09
1.4987e-09
2.1923e-09
2.49259e-09
2.50131e-09
1.91644e-09
2.90873e-09
9.26966e-09
1.82549e-08
3.11518e-09
3.02592e-09
2.48964e-09
2.48431e-09
2.97059e-09
2.99001e-09
2.8711e-09
2.57749e-09
2.24403e-09
2.16861e-09
1.91489e-09
2.45315e-09
2.98074e-09
3.10002e-09
2.26992e-09
2.20532e-09
1.87343e-09
1.24614e-09
1.4814e-09
1.17173e-09
1.22929e-09
1.30318e-09
1.7243e-09
1.87066e-09
1.8865e-09
1.8256e-09
1.38402e-09
2.45131e-09
9.91715e-09
1.63717e-08
2.63114e-09
2.25522e-09
1.94745e-09
1.60808e-09
1.66309e-09
2.22645e-09
2.71311e-09
2.73281e-09
2.4042e-09
2.8403e-09
3.48947e-09
4.27156e-09
4.87602e-09
5.29587e-09
4.79454e-09
4.38983e-09
3.51411e-09
2.626e-09
2.08775e-09
1.64746e-09
1.67099e-09
1.76861e-09
1.87336e-09
1.6276e-09
1.51583e-09
1.40779e-09
1.09229e-09
2.0635e-09
1.04659e-08
1.67313e-08
2.26684e-09
1.64922e-09
1.55128e-09
1.25081e-09
1.13183e-09
1.89966e-09
2.59225e-09
2.67735e-09
2.90298e-09
3.90088e-09
4.07222e-09
5.05867e-09
5.61951e-09
6.0477e-09
6.02364e-09
5.18973e-09
4.02651e-09
3.16912e-09
2.79888e-09
2.10545e-09
1.75453e-09
1.61122e-09
1.58005e-09
1.40013e-09
1.38934e-09
1.35214e-09
1.092e-09
1.6103e-09
1.07461e-08
1.57773e-08
1.85911e-09
1.19134e-09
1.12129e-09
9.68424e-10
8.14638e-10
1.43786e-09
2.34783e-09
2.1716e-09
3.11337e-09
4.3698e-09
4.94101e-09
6.21486e-09
6.69587e-09
6.84209e-09
6.63331e-09
6.10506e-09
5.0431e-09
4.05078e-09
3.29015e-09
2.54369e-09
1.479e-09
1.31397e-09
1.268e-09
1.0993e-09
1.10059e-09
1.12248e-09
8.7979e-10
1.59136e-09
1.13987e-08
1.55495e-08
1.80098e-09
1.15112e-09
1.09178e-09
1.14185e-09
1.15415e-09
1.59037e-09
2.3795e-09
2.32377e-09
2.8729e-09
3.88082e-09
5.16104e-09
5.88251e-09
6.50403e-09
6.50835e-09
6.3093e-09
5.71956e-09
4.93168e-09
4.46542e-09
2.93353e-09
2.40398e-09
1.61734e-09
1.0779e-09
9.45774e-10
9.7102e-10
9.39348e-10
7.83432e-10
4.52076e-10
1.62299e-09
1.18975e-08
1.46257e-08
2.07242e-09
1.20396e-09
1.15826e-09
1.17804e-09
1.32014e-09
1.52596e-09
1.79474e-09
2.36207e-09
3.46003e-09
4.20885e-09
4.80949e-09
4.52476e-09
5.18596e-09
5.8741e-09
5.92766e-09
5.16786e-09
4.55576e-09
4.64191e-09
3.91392e-09
3.38922e-09
2.28344e-09
1.45632e-09
9.9403e-10
1.00146e-09
8.5897e-10
6.35362e-10
4.39488e-10
1.65188e-09
1.2337e-08
1.43197e-08
2.27346e-09
1.07333e-09
1.08225e-09
1.21545e-09
1.48343e-09
1.59172e-09
1.86283e-09
2.64998e-09
3.71941e-09
4.07064e-09
4.3762e-09
3.91079e-09
4.68161e-09
5.62433e-09
5.75032e-09
5.06125e-09
4.48568e-09
4.8556e-09
4.21465e-09
3.49308e-09
2.44548e-09
1.42722e-09
9.62427e-10
9.89988e-10
8.49533e-10
7.54931e-10
5.26099e-10
1.45871e-09
1.2239e-08
1.35853e-08
2.34867e-09
1.09178e-09
1.27877e-09
1.30408e-09
1.60487e-09
1.59017e-09
1.78443e-09
2.24998e-09
3.05945e-09
3.45609e-09
4.64089e-09
4.7015e-09
5.46277e-09
6.061e-09
6.18535e-09
5.92964e-09
4.98681e-09
4.81093e-09
3.21898e-09
3.10998e-09
2.23518e-09
1.34766e-09
1.01612e-09
9.53817e-10
8.02092e-10
1.13312e-09
9.94607e-10
1.44649e-09
1.22625e-08
1.31094e-08
2.34652e-09
1.44765e-09
1.57042e-09
1.3224e-09
1.5197e-09
1.68788e-09
1.8592e-09
1.97917e-09
3.05092e-09
3.69153e-09
4.1873e-09
4.79176e-09
5.62747e-09
6.30159e-09
6.49181e-09
6.02622e-09
4.91772e-09
4.13926e-09
3.07077e-09
3.13999e-09
1.94251e-09
1.72104e-09
1.40084e-09
9.5822e-10
9.08912e-10
1.70761e-09
1.66736e-09
1.95747e-09
1.21692e-08
1.21671e-08
2.4853e-09
1.69334e-09
1.7152e-09
1.76157e-09
2.12966e-09
2.26738e-09
2.33689e-09
2.2866e-09
2.78186e-09
3.22426e-09
3.4661e-09
3.75663e-09
4.76972e-09
5.89449e-09
6.26902e-09
5.3475e-09
4.2735e-09
3.5395e-09
3.09715e-09
2.8944e-09
2.47152e-09
2.11854e-09
1.70161e-09
1.34609e-09
1.26335e-09
1.85208e-09
1.75438e-09
2.46057e-09
1.17054e-08
1.13691e-08
2.62492e-09
1.66838e-09
1.55336e-09
2.12881e-09
2.51975e-09
2.20288e-09
2.0448e-09
1.85027e-09
1.99566e-09
2.07747e-09
2.61444e-09
2.75654e-09
3.63894e-09
4.78449e-09
5.66007e-09
4.99022e-09
3.94242e-09
3.02028e-09
2.40573e-09
2.3391e-09
2.22672e-09
2.1187e-09
1.94865e-09
2.0433e-09
1.78222e-09
1.65426e-09
1.4194e-09
2.64931e-09
1.08867e-08
1.06337e-08
2.98784e-09
1.95171e-09
1.74845e-09
2.77023e-09
3.06649e-09
2.18354e-09
1.68592e-09
1.4709e-09
1.53595e-09
1.46618e-09
1.58913e-09
1.63399e-09
2.47936e-09
2.63906e-09
3.50206e-09
3.29467e-09
2.91832e-09
2.08443e-09
1.79507e-09
2.0426e-09
1.85998e-09
1.87645e-09
2.19136e-09
2.88151e-09
2.62848e-09
1.7956e-09
1.26998e-09
2.60146e-09
9.72447e-09
9.85185e-09
3.00422e-09
1.91141e-09
2.53055e-09
3.40149e-09
3.02323e-09
1.97093e-09
1.50538e-09
1.31747e-09
1.33555e-09
1.65116e-09
2.05968e-09
1.28735e-09
1.65334e-09
2.3119e-09
2.394e-09
2.29234e-09
2.28223e-09
1.92733e-09
1.62687e-09
1.7336e-09
1.54931e-09
1.45409e-09