/*--------------------------------*- C++ -*----------------------------------*\
| =========                 |                                                 |
| \\      /  F ield         | OpenFOAM: The Open Source CFD Toolbox           |
|  \\    /   O peration     | Version:  v1906                                 |
|   \\  /    A nd           | Web:      www.OpenFOAM.com                      |
|    \\/     M anipulation  |                                                 |
\*---------------------------------------------------------------------------*/
FoamFile
{
    version     2.0;
    format      ascii;
    class       volScalarField;
    location    "31";
    object      omega;
}
// * * * * * * * * * * * * * * * * * * * * * * * * * * * * * * * * * * * * * //

dimensions      [0 0 -1 0 0 0 0];


internalField   nonuniform List<scalar> 
78750
(
2396.95
356.839
245.384
140.722
24.2473
23.9059
24.2362
20.5389
22.6639
20.8399
22.3324
21.045
21.8465
21.192
21.5204
21.2277
21.2716
21.1806
21.1338
21.0799
21.0284
20.9758
20.9204
20.8599
20.7914
20.7111
20.6137
20.4917
20.3342
20.1258
19.8443
19.46
18.909
17.9079
543.528
507.752
29.0275
28.8483
15.7532
10.6489
13.2173
12.0619
12.8079
12.5585
12.8415
12.8021
12.9334
12.9645
13.0385
13.0848
13.142
13.193
13.2446
13.2942
13.3404
13.3815
13.416
13.4432
13.4637
13.4783
13.4883
13.4945
13.497
13.4942
13.482
13.4519
13.3792
13.1545
12.1248
804.392
415.874
5.11831
9.52013
10.7027
9.60505
9.96144
10.3507
10.5397
10.8168
10.9861
11.1495
11.2793
11.3884
11.4726
11.5428
11.6025
11.6555
11.7041
11.7502
11.7951
11.8396
11.8843
11.9287
11.9715
12.0113
12.0468
12.0772
12.1027
12.1244
12.1434
12.1607
12.176
12.1938
12.286
809.797
410.609
8.82017
9.60312
9.89592
10.5474
10.9372
11.0564
11.1452
11.3761
11.6505
11.8741
12.0495
12.1828
12.2836
12.361
12.4222
12.472
12.5139
12.5502
12.5825
12.6118
12.6389
12.6643
12.6886
12.7125
12.7365
12.7607
12.7841
12.8029
12.8086
12.7819
12.6716
12.3104
11.9212
811.793
413.517
10.1884
10.6159
10.4378
10.2843
10.378
10.6105
10.8143
10.9379
11.0535
11.1852
11.3245
11.4644
11.5991
11.7243
11.8373
11.9378
12.027
12.1067
12.1791
12.2466
12.312
12.3782
12.4477
12.5226
12.6041
12.6923
12.7861
12.8825
12.9754
13.0518
13.0732
13.0016
13.3131
815.815
413.052
9.87917
10.4039
10.5632
10.5298
10.3366
10.0303
9.77273
9.77396
9.96549
10.2054
10.4383
10.6563
10.8614
11.0552
11.2374
11.4068
11.5626
11.7054
11.8373
11.9597
12.0738
12.1818
12.2879
12.397
12.5117
12.6328
12.7595
12.888
13.0119
13.112
13.1206
12.9455
13.4841
817.975
414.411
10.7843
11.3565
11.5026
11.4175
11.2212
10.9864
10.7379
10.5012
10.3189
10.2178
10.1999
10.2537
10.3633
10.5112
10.6818
10.8635
11.0479
11.2312
11.4112
11.5871
11.7576
11.9204
12.0762
12.2312
12.3921
12.5608
12.7381
12.9252
13.1241
13.3284
13.501
13.6002
14.5637
820.843
416.008
12.1682
12.8652
13.0398
13.0148
12.8072
12.4272
11.9365
11.4023
10.8809
10.4222
10.0647
9.82654
9.70597
9.68902
9.75922
9.90047
10.0956
10.3267
10.5774
10.8339
11.0865
11.3304
11.5655
11.7943
12.0209
12.2484
12.4778
12.7086
12.938
13.1587
13.3622
13.6979
15.1557
822.963
416.751
13.3451
14.3367
14.6824
14.7952
14.7544
14.5644
14.2284
13.7715
13.2247
12.6185
11.9885
11.378
10.8295
10.3729
10.0208
9.77694
9.64632
9.63334
9.73471
9.93536
10.2075
10.5174
10.8379
11.1556
11.4721
11.7952
12.1327
12.4887
12.8626
13.2466
13.6111
14.1199
15.9576
825.125
416.966
13.7614
15.0582
15.6132
15.9128
16.0858
16.153
16.0959
15.8871
15.5126
14.9722
14.2801
13.4747
12.6227
11.813
11.1306
10.6116
10.2268
9.92401
9.67928
9.51824
9.49832
9.64983
9.9404
10.3052
10.6902
11.0714
11.4489
11.8407
12.2697
12.7692
13.4022
14.416
16.6701
826.928
415.915
13.3893
14.9451
15.6772
16.0867
16.3545
16.5374
16.6496
16.6854
16.6181
16.402
15.9954
15.3831
14.5739
13.6113
12.5911
11.6626
10.9544
10.487
10.1828
9.96053
9.77531
9.62599
9.58603
9.74761
10.0929
10.5353
11.0147
11.5104
12.0347
12.6115
13.3085
14.5949
17.2319
828.704
417.561
13.4246
14.9267
15.67
16.08
16.3232
16.4514
16.4809
16.4212
16.2838
16.0838
15.842
15.5549
15.1427
14.5174
13.6577
12.6416
11.6434
10.849
10.3266
10.0092
9.80277
9.65332
9.55682
9.56481
9.72126
10.0014
10.3732
10.8374
11.4255
12.1883
13.1694
14.7439
17.7282
830.648
420.588
14.4055
15.6677
16.2911
16.6407
16.8377
16.9079
16.8465
16.6339
16.2445
15.6789
15.0645
14.6351
14.3854
14.1018
13.639
12.9361
12.0399
11.1512
10.4765
10.0482
9.77779
9.60417
9.53996
9.65115
9.94844
10.3116
10.6552
11.0073
11.4566
12.1664
13.4013
15.5621
18.7686
832.347
426.241
15.7767
16.4192
16.7117
16.8865
16.9902
17.0187
16.9475
16.7355
16.3212
15.6425
14.775
14.0671
13.7275
13.5612
13.3637
13.0296
12.4805
11.7323
10.9603
10.362
9.96538
9.68744
9.47277
9.34731
9.42122
9.77334
10.3066
10.8594
11.4272
12.1749
13.5622
16.314
19.6018
833.029
428.999
16.0306
16.3669
16.5324
16.6356
16.6808
16.65
16.5236
16.2846
15.9059
15.3452
14.6008
13.8524
13.3593
13.1164
12.9725
12.8211
12.5841
12.1868
11.6179
10.9932
10.4705
10.0923
9.81143
9.58604
9.43386
9.4655
9.81579
10.4504
11.2017
12.1004
13.6228
16.7525
20.1071
833.521
428.749
15.8552
16.2862
16.5121
16.6508
16.701
16.6338
16.435
16.1151
15.6951
15.1888
14.5982
13.9597
13.4018
13.0216
12.7822
12.6052
12.4246
12.1802
11.8113
11.3055
10.7597
10.3062
9.97072
9.70773
9.48287
9.32271
9.36752
9.83928
10.7402
11.8691
13.5888
17.0816
20.5216
834.419
429.137
16.0547
16.4297
16.6113
16.7131
16.722
16.6068
16.3567
15.977
15.487
14.9298
14.3628
13.8298
13.3627
12.9944
12.731
12.5457
12.4005
12.2554
12.0635
11.7684
11.3385
10.8338
10.3729
10.0071
9.70883
9.44471
9.25328
9.37181
10.1921
11.6172
13.5393
17.4305
20.9718
835.655
431.109
16.3175
16.4882
16.555
16.5582
16.4664
16.2644
15.9595
15.5527
15.0452
14.4701
13.9014
13.4057
12.9983
12.6631
12.3871
12.1654
11.993
11.8539
11.7204
11.5521
11.3054
10.9663
10.5843
10.2276
9.91186
9.61699
9.35121
9.31456
10.1494
12.3349
15.0911
18.609
21.8327
836.81
430.962
16.1799
16.3254
16.3635
16.3091
16.1242
15.822
15.4333
14.9777
14.4775
13.9786
13.5285
13.1403
12.7987
12.4858
12.1917
11.9174
11.6737
11.4704
11.3023
11.1487
10.9835
10.7915
10.5754
10.3466
10.1079
9.85174
9.57846
9.4021
9.93329
12.4167
16.8
20.3954
22.926
836.806
430.451
16.4027
16.5928
16.6166
16.5193
16.2969
15.9935
15.619
15.1771
14.6881
14.203
13.7731
13.4076
13.0861
12.7871
12.4974
12.2122
11.9347
11.6754
11.4478
11.257
11.0976
10.9564
10.8216
10.6857
10.5395
10.3717
10.1699
9.9255
9.75104
10.5311
14.5692
19.7669
22.4482
834.995
430.001
16.6637
16.8723
16.8391
16.6491
16.3803
16.1639
15.9465
15.6805
15.352
14.974
14.5908
14.2469
13.952
13.6894
13.4396
13.1904
12.933
12.6592
12.3652
12.061
11.7724
11.5226
11.3197
11.1595
11.0299
10.9146
10.7965
10.6432
10.4417
9.86813
10.6922
16.4692
20.564
836.412
431.797
17.4072
17.5539
17.3842
16.9697
16.4459
16.1737
16.0308
15.8665
15.6441
15.3612
15.0414
14.7344
14.4758
14.2579
14.0462
13.8179
13.5687
13.2971
13.005
12.7016
12.3978
12.087
11.767
11.4677
11.2249
11.054
10.9421
10.851
10.9726
10.6249
11.4904
18.0114
22.6966
844.555
433.796
18.1322
18.2064
17.9006
17.2467
16.3231
15.8288
15.7163
15.636
15.4862
15.2558
14.956
14.638
14.3695
14.149
13.9487
13.7535
13.5525
13.3347
13.0907
12.8126
12.4964
12.1458
11.7768
11.4071
11.0159
10.6666
10.6134
11.2417
12.9225
14.2186
15.6314
20.7708
24.8311
847.433
435.366
18.6932
18.7404
18.3988
17.6926
16.4943
15.5754
15.3711
15.3791
15.3314
15.1957
14.9791
14.6995
14.4038
14.1294
13.8801
13.6504
13.4335
13.2198
12.999
12.7591
12.4868
12.1681
11.7911
11.3418
10.796
10.2994
10.441
12.0332
15.4156
19.0611
20.6105
22.163
24.4282
839.667
435.689
18.7681
18.8264
18.511
17.8597
16.6259
15.3108
14.9042
15.0024
15.1025
15.107
15.034
14.8961
14.6988
14.4548
14.1877
13.9171
13.653
13.397
13.1464
12.8944
12.6289
12.3413
12.0232
11.6528
11.1933
10.6252
10.153
10.6129
13.2006
17.8385
22.3388
24.1554
25.0623
833.42
439.377
19.1161
18.9211
18.4817
17.704
16.3925
14.9716
14.4645
14.6444
14.8663
14.9774
15.0071
14.9804
14.9024
14.7745
14.603
14.3962
14.1646
13.919
13.6628
13.3947
13.1175
12.8357
12.552
12.2666
11.9707
11.63
11.1809
10.6331
10.4788
11.9683
15.5062
21.1018
23.4555
831.436
443.096
19.1922
18.7629
18.2285
17.3586
16.0755
14.7854
14.2032
14.3835
14.6877
14.8945
15.0087
15.0567
15.0529
15.003
14.9105
14.7786
14.6116
14.4144
14.1927
13.9509
13.6933
13.4237
13.1472
12.8705
12.5997
12.3295
11.9968
11.489
11.014
11.1192
10.823
13.6931
18.3148
835.379
441.115
18.9922
18.9289
18.7096
18.2561
17.3838
15.9455
14.4387
13.9614
14.2151
14.5658
14.8193
14.9768
15.0651
15.1007
15.0898
15.0341
14.9351
14.7952
14.6177
14.4077
14.1728
13.9178
13.6451
13.36
13.0727
12.7837
12.2816
11.5412
11.7974
12.5074
11.7103
12.5727
18.6876
845.883
437.391
18.8993
19.2808
19.3786
19.2743
18.8265
17.6206
15.4035
13.6204
13.3113
13.7203
14.1684
14.4855
14.6954
14.8383
14.9289
14.9652
14.9475
14.8772
14.7571
14.5902
14.3798
14.1298
13.8449
13.5342
13.2151
12.7938
11.8185
11.6625
13.947
15.0562
15.47
18.5021
23.7005
851.68
438.409
18.8288
19.0258
19.0643
18.9943
18.7428
18.1095
16.6407
14.5519
13.3355
13.1554
13.4328
13.8003
14.1205
14.3657
14.5485
14.6782
14.7504
14.761
14.7109
14.6019
14.436
14.2155
13.943
13.6237
13.2097
12.4978
11.5085
12.2845
16.3248
18.2352
19.2457
22.2257
25.898
849.325
439.917
18.8666
18.9305
18.9537
18.9612
18.9373
18.8372
18.5169
17.5691
16.0715
14.7044
13.7672
13.3313
13.3393
13.5985
13.905
14.1635
14.3521
14.4707
14.5227
14.5083
14.4281
14.2843
14.0791
13.7896
13.3439
12.6288
11.7307
11.9782
16.1054
20.4474
21.653
23.5084
25.7948
843.367
438.036
19.039
19.4316
19.6399
19.7921
19.9221
20.0434
20.1468
20.1457
19.7234
18.6404
17.0488
15.2272
13.6247
12.8366
12.8734
13.2369
13.6076
13.9013
14.1081
14.2319
14.2782
14.25
14.1461
13.9591
13.6603
13.1762
12.493
11.9633
13.617
19.2017
22.6243
24.0901
25.5072
840.421
436.45
18.841
19.3423
19.5621
19.6752
19.7243
19.7297
19.7309
19.7965
19.9276
19.93
19.4806
18.1906
15.9552
13.5822
12.326
12.2982
12.7184
13.1351
13.464
13.7124
13.8881
13.9928
14.0255
13.9828
13.8488
13.5746
13.2607
13.01
12.8997
15.552
21.0059
23.5574
25.176
841.48
439.465
19.177
19.4856
19.6084
19.6403
19.5919
19.4517
19.2085
18.8926
18.6137
18.4539
18.3252
17.9295
16.5892
14.2067
12.2989
11.861
12.1983
12.6222
12.9739
13.2608
13.4932
13.6684
13.7844
13.8405
13.8253
13.6685
13.7103
14.1117
14.2033
14.3326
17.6999
21.5906
24.317
845.048
442.436
19.7293
20.0142
20.1798
20.2733
20.2945
20.2242
20.0265
19.6564
19.1107
18.4815
17.8678
17.2316
16.2596
14.4292
12.4166
11.6377
11.8356
12.2383
12.5944
12.8842
13.1164
13.2932
13.4178
13.4941
13.5029
13.4639
14.2106
15.4116
16.0769
15.7492
16.1293
20.2577
24.4442
851.502
442.333
19.7842
20.1916
20.4253
20.5635
20.6262
20.6144
20.5211
20.3321
20.022
19.5715
19.0085
18.3694
17.5734
16.2358
14.0428
12.1341
11.6068
11.8351
12.1614
12.4335
12.6455
12.7975
12.8914
12.937
12.9076
13.4332
15.2791
17.0906
17.9461
17.5867
17.3524
21.4031
26.2659
857.948
442.027
19.7981
20.278
20.5265
20.6466
20.6624
20.5732
20.3775
20.1025
19.8199
19.5572
19.2606
18.8801
18.37
17.5449
15.856
13.3078
11.6101
11.3976
11.6612
11.9226
12.1268
12.2562
12.3072
12.2794
12.374
13.8334
16.7215
18.7481
19.5572
19.4239
19.9823
23.6146
27.8657
858.767
443.693
20.2847
20.7558
21.0084
21.1364
21.1504
21.0305
20.7409
20.2655
19.6996
19.2015
18.8013
18.419
17.9675
17.3245
16.1635
13.9479
11.7095
11.0668
11.2675
11.5216
11.7079
11.8083
11.8127
11.7504
12.0826
14.2237
17.8314
19.9715
20.8352
21.2917
22.458
25.1375
28.2141
854.081
445.067
20.5022
20.9132
21.1601
21.3095
21.3656
21.3056
21.088
20.6701
20.0799
19.4428
18.8534
18.3007
17.7149
16.986
15.8925
14.1085
11.952
11.0253
11.1251
11.338
11.4807
11.5332
11.4754
11.3603
11.7462
14.0456
18.207
20.7991
21.5937
22.5761
24.0562
25.8512
27.8673
848.46
445.391
20.4339
20.789
21.0067
21.1359
21.1776
21.1116
20.9114
20.5772
20.1623
19.7214
19.2612
18.7597
18.1784
17.4415
16.3938
14.8222
12.7839
11.3856
11.209
11.3541
11.47
11.4907
11.3797
11.1676
11.2887
13.0863
17.3791
21.3176
22.3444
22.9641
24.2908
25.5926
26.998
843.369
446.001
20.6351
20.9192
21.0833
21.1678
21.1647
21.0444
20.774
20.3715
19.9487
19.6112
19.3385
19.049
18.6797
18.1714
17.4143
16.1893
14.3344
12.3998
11.5357
11.5051
11.6157
11.6682
11.589
11.3508
11.1304
11.832
14.978
19.9504
23.0848
23.6381
24.0953
24.8379
25.8274
838.551
447.501
20.8689
21.0139
21.1115
21.1609
21.1424
21.0243
20.7765
20.4034
19.9763
19.6046
19.3319
19.1113
18.875
18.5661
18.1159
17.3921
16.1469
14.2861
12.6066
11.9611
11.9304
12.0102
12.0311
11.9101
11.6323
11.4771
12.5401
16.0981
20.8857
23.9218
24.559
24.8924
25.3653
835.748
447.805
20.7634
20.8287
20.8826
20.8956
20.8435
20.7061
20.4919
20.2421
19.9846
19.7302
19.4939
19.2753
19.0529
18.7957
18.4638
17.9912
17.2499
16.0427
14.4187
13.1478
12.6804
12.6419
12.7058
12.7297
12.6281
12.3737
12.1789
12.9343
15.8136
20.1871
23.719
24.6692
25.2011
836.24
447.784
20.8381
20.876
20.89
20.8548
20.7402
20.5271
20.2524
20.0078
19.8487
19.7461
19.6485
19.5289
19.3758
19.1783
18.9185
18.5631
18.0458
17.2467
16.0552
14.7172
13.8319
13.5279
13.5277
13.6215
13.6976
13.6793
13.5203
13.2835
13.4205
15.0088
19.1565
22.3364
24.1624
839.079
448.39
20.8955
20.8583
20.8302
20.7654
20.6272
20.4015
20.1338
19.9012
19.7532
19.6836
19.6468
19.6019
19.5256
19.4045
19.2251
18.9672
18.5919
18.0261
17.1719
16.052
15.0532
14.5289
14.4052
14.4836
14.6308
14.7644
14.8246
14.7639
14.5657
14.247
14.9987
19.6987
23.4105
843.823
448.7
20.7617
20.6519
20.5807
20.4751
20.2947
20.0515
19.8399
19.7286
19.6913
19.6846
19.6807
19.661
19.6122
19.5235
19.3834
19.1756
18.8716
18.4198
17.7505
16.8522
15.9543
15.3854
15.1979
15.2506
15.4124
15.5987
15.7555
15.8406
15.8474
15.5338
15.0548
19.835
24.5714
849.766
448.441
20.7026
20.5953
20.51
20.3726
20.1345
19.8079
19.5299
19.4349
19.4843
19.5704
19.6354
19.6625
19.6471
19.585
19.4694
19.2878
19.0175
18.6166
18.0299
17.249
16.4535
15.9334
15.7692
15.8442
16.0291
16.2361
16.4157
16.5538
16.785
17.0363
17.6259
22.0305
26.4483
853.041
447.735
20.6167
20.5352
20.4612
20.3394
20.1236
19.7933
19.4341
19.2262
19.2324
19.3493
19.4738
19.5619
19.601
19.5871
19.5157
19.3785
19.159
18.8266
18.3397
17.6824
16.9707
16.4528
16.261
16.3219
16.5014
16.6957
16.851
16.9938
17.4891
18.6418
20.3398
23.9311
27.433
851.866
446.8
20.5131
20.4352
20.3451
20.2195
20.0408
19.7743
19.4106
19.0723
18.9335
18.9961
19.141
19.2798
19.3768
19.4207
19.4062
19.3267
19.1705
18.9157
18.5331
18.0124
17.4351
16.9959
16.8325
16.9041
17.0787
17.2397
17.3199
17.3603
17.8773
19.7131
22.1089
24.9378
27.5829
849.095
446.878
20.6646
20.5166
20.344
20.1479
19.9649
19.7762
19.4827
19.0806
18.7476
18.6479
18.7353
18.8853
19.0214
19.1146
19.1545
19.1356
19.0501
18.8841
18.6187
18.2454
17.8169
17.4873
17.4016
17.5423
17.7717
17.9503
17.9941
17.8994
18.0799
19.918
22.7896
25.2491
27.429
847.82
448.979
20.9507
20.5669
20.211
19.8512
19.6199
19.539
19.4103
19.1062
18.689
18.3915
18.3294
18.4157
18.5395
18.6434
18.7055
18.7171
18.6716
18.5605
18.3796
18.1457
17.9265
17.8412
17.9736
18.2774
18.6097
18.8383
18.8868
18.7198
18.5241
19.7249
22.7131
25.1853
27.3385
848.725
452.294
21.2002
20.5014
19.9055
19.2947
18.9387
18.9276
18.9699
18.8601
18.5563
18.2019
17.9979
17.9667
18.0187
18.0826
18.1242
18.129
18.0881
17.9979
17.8725
17.7706
17.8131
18.1042
18.6124
19.1832
19.6577
19.9434
20.0001
19.7946
19.3655
19.8259
22.5032
25.1105
27.487
851.141
455.42
21.3341
20.4262
19.6694
18.8437
18.286
18.1879
18.2696
18.2786
18.1198
17.8398
17.5953
17.4713
17.4355
17.4325
17.4283
17.4071
17.363
17.3027
17.2652
17.3566
17.7364
18.4483
19.3254
20.1319
20.7231
21.0538
21.118
20.8901
20.3645
20.4039
22.6797
25.3618
27.9904
854.337
455.506
21.1874
20.4025
19.7155
18.8446
17.9601
17.4524
17.3567
17.4051
17.3742
17.2107
16.9973
16.8223
16.6996
16.6046
16.5155
16.4226
16.3356
16.3049
16.4681
17.0251
18.0141
19.2165
20.3518
21.2433
21.8349
22.1317
22.1419
21.8465
21.3592
21.5024
23.5658
26.0691
28.7115
856.795
453.058
21.3289
20.9963
20.5834
19.8711
18.7082
17.3893
16.5374
16.308
16.3537
16.3659
16.2766
16.1376
15.9919
15.8481
15.7036
15.5604
15.446
15.4594
15.8419
16.8443
18.3331
19.9017
21.2223
22.1721
22.7579
23.0133
22.9458
22.5599
22.2574
22.9715
24.8838
26.9384
29.2591
856.813
450.327
21.7016
21.7741
21.6301
21.2321
20.3574
18.7687
16.88
15.5749
15.1657
15.226
15.3043
15.2719
15.1595
15.0045
14.827
14.6428
14.5
14.5656
15.2376
16.7387
18.6596
20.5012
21.9548
22.9602
23.5621
23.7971
23.6589
23.1573
22.8971
24.2473
26.1246
27.706
29.534
854.933
449.223
21.8442
22.0082
21.9942
21.8566
21.4924
20.5805
18.7758
16.4888
14.7529
14.1978
14.305
14.4401
14.4355
14.3181
14.1285
13.9011
13.6893
13.6893
14.4643
16.3166
18.6176
20.7525
22.4038
23.5461
24.2613
24.588
24.5124
24.0077
23.4869
24.6373
26.6356
27.985
29.4518
853.824
450.506
21.8522
21.8466
21.7673
21.6349
21.4289
21.0837
20.2694
18.4616
15.8246
13.7649
13.2789
13.4832
13.6476
13.6402
13.4975
13.2658
12.9985
12.9028
13.7001
15.8524
18.4959
20.8589
22.67
23.9495
24.8165
25.3185
25.4408
25.1317
24.4797
24.6428
26.3109
27.68
29.2368
855.944
454.539
22.3406
22.08
21.8284
21.4974
21.0153
20.4487
19.9916
19.2339
17.2578
14.3505
12.8065
12.7787
13.0254
13.1025
13.0029
12.774
12.4553
12.2266
12.9306
15.3802
18.4364
21.0062
22.9132
24.2756
25.2544
25.9126
26.2389
26.17
25.615
25.0687
26.0568
27.5678
29.6339
860.897
460.749
22.877
22.3143
21.9385
21.4698
20.6887
19.5069
18.4028
17.6722
16.5
14.0764
12.3854
12.4095
12.7207
12.8168
12.7242
12.4918
12.148
11.8757
12.5759
15.2824
18.7463
21.4336
23.2907
24.6161
25.62
26.3606
26.814
26.8926
26.4605
25.9126
26.7515
28.3385
30.664
864.404
463.949
22.5881
21.8822
21.4977
21.0055
20.1145
18.5996
16.7451
15.2832
14.1097
12.6438
11.9355
12.406
12.6922
12.7292
12.6062
12.3563
12.0119
11.8036
12.6347
15.4818
19.2266
22.0103
23.7532
24.9788
25.952
26.7087
27.1886
27.3062
27.0715
27.0179
27.9878
29.3592
31.3474
861.902
460.677
21.7963
21.3046
21.0202
20.564
19.6793
18.1139
15.8611
13.5927
12.1977
11.8079
12.0881
12.611
12.7752
12.7557
12.5995
12.3234
11.9727
11.8134
12.6883
15.4754
19.392
22.4363
24.1379
25.2542
26.218
27.0652
27.6231
27.7918
27.7788
28.0741
28.885
29.8261
31.1169
854.379
454.615
21.5158
21.4427
21.361
21.1102
20.5321
19.38
17.4079
14.7621
12.4287
11.5612
11.8744
12.3761
12.6435
12.7151
12.6201
12.3749
12.0115
11.7146
12.1534
14.3633
18.2776
22.0815
24.355
25.4432
26.1959
27.0306
27.8672
28.3847
28.6155
28.9167
29.3622
29.8148
30.326
846.66
451.192
21.6219
21.7469
21.8175
21.7984
21.6078
21.0863
19.9755
18.0288
15.3008
12.5636
11.241
11.4373
11.9856
12.3752
12.5399
12.4962
12.2635
11.8988
11.6919
12.5076
15.2975
19.4796
23.2286
25.4731
26.4363
26.9028
27.48
28.2133
28.7952
29.1715
29.4106
29.5259
29.4744
841.764
449.669
21.3289
21.4795
21.6051
21.6968
21.7177
21.601
21.2239
20.3769
18.7726
16.2208
13.0703
10.8614
10.608
11.2736
11.894
12.2645
12.3978
12.3191
12.084
11.9447
12.6758
15.1792
19.0851
22.9554
25.727
27.1109
27.5662
27.838
28.2246
28.5705
28.753
28.7548
28.524
839.519
449.209
21.2103
21.3155
21.4024
21.465
21.4815
21.4135
21.2099
20.811
20.1279
18.9565
16.935
13.9164
10.9839
9.94534
10.5112
11.3021
11.8784
12.2231
12.3733
12.3763
12.3904
12.9038
14.6747
17.8512
21.6129
24.9045
27.0058
27.8457
28.0687
28.1634
28.1935
28.1241
27.9232
839.664
449.954
21.3657
21.4077
21.4542
21.4846
21.4764
21.3919
21.1818
20.7867
20.1841
19.4376
18.4967
16.9782
14.419
11.3872
9.83035
10.1092
10.8852
11.5451
12.0282
12.3727
12.6282
12.8782
13.3495
14.5064
16.7842
20.0466
23.5004
26.1615
27.5068
27.9679
28.088
28.0682
27.9829
841.665
451.558
21.4727
21.3991
21.399
21.4056
21.3802
21.2832
21.0851
20.7501
20.22
19.4879
18.6582
17.7287
16.3701
14.0666
11.3234
9.94633
10.1372
10.7843
11.399
11.9239
12.3979
12.8747
13.411
14.05
14.9386
16.5055
19.0957
22.3276
25.1146
26.7303
27.4614
27.791
28.0374
845.527
453.21
21.3575
21.1387
21.0887
21.0748
21.0301
20.8953
20.6537
20.3158
19.8736
19.3052
18.613
17.8125
16.8045
15.2781
12.8959
10.6316
9.90245
10.2262
10.7869
11.3467
11.9087
12.5531
13.3962
14.3991
15.3463
16.1909
17.3123
19.2761
21.9838
24.3958
25.9358
26.851
27.8305
851.412
452.449
21.0151
20.8168
20.7914
20.7994
20.7653
20.6222
20.3575
20.0019
19.5799
19.0942
18.5285
17.8503
16.9827
15.7322
13.7629
11.2395
9.75001
9.67827
10.1342
10.6996
11.3592
12.2925
13.6486
15.2299
16.6128
17.5691
18.2277
19.0771
20.7435
22.975
24.9125
26.3721
28.2912
858.094
450.339
20.7426
20.6427
20.6596
20.699
20.7052
20.6129
20.3947
20.0705
19.6724
19.2195
18.707
18.1045
17.3414
16.2532
14.5671
12.0458
9.72101
9.04425
9.35328
9.95953
10.8455
12.3326
14.5309
16.7684
18.3729
19.2885
19.8094
20.3803
21.5863
23.4824
25.3814
27.0276
29.361
860.955
449.024
20.6312
20.5372
20.5377
20.5775
20.6348
20.644
20.5382
20.3027
19.9574
19.532
19.0448
18.4881
17.8165
16.9126
15.5367
13.3244
10.3782
8.56126
8.44804
9.03788
10.127
12.1424
15.1625
18.165
20.1304
21.0563
21.5188
22.0926
23.219
24.8362
26.4153
27.8604
29.9026
857.727
449.766
20.6985
20.4827
20.4039
20.3975
20.4745
20.5704
20.5785
20.4531
20.1984
19.8385
19.4005
18.8984
18.3175
17.5951
16.5603
14.8873
12.1773
9.09626
7.74771
7.97605
8.96426
10.9834
14.3607
18.1899
21.0267
22.4431
23.0705
23.6685
24.6876
25.9999
27.206
28.3175
29.8247
852.986
451.183
20.6775
20.3074
20.1409
20.0764
20.1612
20.3321
20.4422
20.4237
20.2723
20.0032
19.6405
19.2061
18.7048
18.1099
17.3379
16.1748
14.2178
11.108
8.14862
7.13621
7.61542
9.07408
11.897
15.9395
19.8797
22.5293
23.9144
24.7522
25.6587
26.6884
27.6046
28.4339
29.52
850.534
451.972
20.5824
20.1159
19.881
19.7502
19.8198
20.0383
20.2246
20.2941
20.2363
20.0587
19.7761
19.4082
18.9682
18.4491
17.8074
16.9233
15.5464
13.1525
9.66694
6.88987
6.08732
7.41389
9.93965
13.342
17.3186
20.865
23.2966
24.8253
25.9673
26.9443
27.721
28.3813
29.2911
851.952
451.99
20.4849
19.9639
19.656
19.4245
19.443
19.6969
19.9619
20.1197
20.1483
20.0511
19.8373
19.522
19.1193
18.6303
18.0275
17.2242
16.022
13.9946
10.825
7.22283
6.75417
6.68552
9.28761
12.7445
16.36
19.8148
22.6846
24.6974
26.0694
27.0494
27.7492
28.3473
29.3689
855.931
452.287
20.499
19.898
19.481
19.0902
18.9953
19.2559
19.5989
19.8543
19.978
19.9653
19.8204
19.5532
19.1758
18.6915
18.075
17.2346
15.9626
13.8267
9.62408
5.77315
4.8643
8.54874
12.1351
15.1535
17.9345
20.7447
23.3461
25.2974
26.5865
27.4459
28.0732
28.7097
29.9966
859.304
453.367
20.5658
19.8547
19.3223
18.7772
18.5838
18.8482
19.2435
19.5705
19.7724
19.8354
19.7559
19.5377
19.1881
18.7079
18.0663
17.1421
15.6609
13.0532
8.39441
5.65018
7.42806
12.715
16.2295
18.6756
21.1382
23.1938
24.8632
26.2539
27.2724
27.9947
28.5786
29.2428
30.5218
857.415
453.896
20.4676
19.6866
19.072
18.3998
18.1384
18.4385
18.8878
19.275
19.5501
19.6951
19.6981
19.554
19.2627
18.8168
18.1778
17.2177
15.6548
12.9382
8.40141
5.58131
9.24599
15.9245
19.8419
21.1111
23.0488
25.2116
26.5277
27.3459
27.9801
28.4881
28.9303
29.4252
30.2331
850.496
452.991
20.2965
19.5609
18.9239
18.122
17.6529
17.9164
18.4311
18.8992
19.2654
19.5137
19.6282
19.5975
19.4136
19.0616
18.4979
17.6077
16.1321
13.578
9.3474
6.39929
7.37086
15.9219
22.2279
23.8606
24.2979
25.5859
27.0536
27.9704
28.4902
28.8236
29.0646
29.2664
29.4551
843.658
451.165
20.2087
19.6113
19.03
18.1389
17.2281
17.1732
17.7103
18.299
18.7983
19.1878
19.4559
19.5912
19.5852
19.4268
19.089
18.5062
17.5421
15.9124
13.0784
8.53689
7.80222
10.723
18.9489
24.6934
26.5529
26.7344
27.0598
27.7562
28.3396
28.6967
28.8712
28.8947
28.685
839.745
450.129
20.271
19.7822
19.3028
18.4991
17.2881
16.5611
16.8256
17.467
18.0957
18.6222
19.0341
19.3289
19.5029
19.551
19.4599
19.1996
18.7119
17.8739
16.4357
13.9575
9.90572
5.21834
9.06125
17.608
24.0929
27.3964
28.0763
28.0052
28.1471
28.3596
28.4842
28.4571
28.1751
839.121
449.667
20.242
19.7966
19.4024
18.7809
17.7179
16.5433
16.195
16.6166
17.2704
17.8923
18.4117
18.8171
19.1094
19.2932
19.3687
19.3261
19.1394
18.7563
18.0784
16.9128
14.9412
11.742
7.56628
7.8051
14.5822
21.6392
26.4702
28.1523
28.3625
28.3596
28.3363
28.2663
28.0956
840.968
449.122
20.2094
19.8021
19.4633
18.9834
18.2057
17.0927
16.1919
16.0495
16.4831
17.1121
17.7209
18.2332
18.6331
18.927
19.1227
19.223
19.2204
19.0911
18.7924
18.2487
17.3229
15.7909
13.3678
10.0644
8.14281
11.9644
18.7879
24.9446
27.3905
28.0866
28.2853
28.3281
28.3698
844.502
448.752
20.2682
19.8726
19.5529
19.1534
18.5756
17.7164
16.7122
16.0334
15.9373
16.2996
16.8652
17.441
17.9425
18.3518
18.6732
18.9113
19.0642
19.1193
19.0561
18.8381
18.4038
17.6574
16.4383
14.555
11.9395
9.45841
10.5674
16.9897
23.5475
26.4289
27.5459
28.0653
28.566
849.353
450.385
20.4543
19.8926
19.4831
19.0878
18.6656
18.0427
17.2162
16.4702
16.0551
16.0202
16.2931
16.7314
17.2057
17.6454
18.0283
18.354
18.6207
18.8201
18.9367
18.9461
18.8148
18.4978
17.9211
16.9676
15.5026
13.4303
10.99
10.4907
17.4988
23.1294
25.8645
27.2619
28.5613
854.933
453.266
20.4469
19.5778
18.961
18.4431
18.1032
17.698
17.0994
16.5033
16.1517
16.0803
16.2329
16.5375
16.9123
17.2918
17.6445
17.9635
18.2486
18.4965
18.6971
18.8304
18.869
18.7791
18.5178
18.0273
17.2258
15.9907
14.1476
11.3561
13.0181
19.6901
24.0443
26.4634
28.7614
860.036
453.59
20.0793
19.1312
18.434
17.8132
17.4329
17.1305
16.7433
16.3154
16.0208
15.946
16.0673
16.3232
16.6446
16.9804
17.3051
17.6131
17.9059
18.182
18.4346
18.647
18.7936
18.8436
18.7608
18.5009
18.0061
17.1787
15.8466
13.5567
12.7451
18.343
23.3994
26.391
29.3008
862.046
449.763
19.5669
19.0065
18.5275
17.8942
17.272
16.8021
16.4489
16.1479
15.9068
15.776
15.7895
15.9469
16.2058
16.5116
16.827
17.1383
17.4461
17.7519
18.0525
18.3339
18.5706
18.729
18.7726
18.6578
18.3304
17.6973
16.5892
14.9116
14.6019
19.2159
23.9394
26.8406
29.6955
859.666
445.118
19.5703
19.6174
19.5359
19.1323
18.3586
17.429
16.5918
15.9664
15.5699
15.3713
15.332
15.4297
15.6375
15.9177
16.2303
16.5536
16.8852
17.2292
17.5866
17.9453
18.2777
18.5439
18.6999
18.696
18.4743
17.9433
16.9945
15.9866
16.8503
20.9304
24.8102
27.2702
29.649
854.618
442.737
19.9083
20.3426
20.6024
20.6673
20.3599
19.5512
18.3724
17.0934
15.9909
15.2577
14.8982
14.8163
14.9316
15.176
15.4895
15.8266
16.1829
16.5635
16.9759
17.4157
17.8571
18.2537
18.5473
18.6765
18.5778
18.1672
17.4192
17.0091
18.7635
22.4675
25.4644
27.4228
29.2479
849.63
443.059
19.9617
20.4364
20.8735
21.2877
21.5242
21.3815
20.6874
19.4072
17.7447
16.1776
15.1218
14.5962
14.4432
14.5339
14.7803
15.111
15.4853
15.8932
16.3458
16.8509
17.3925
17.9225
18.3658
18.646
18.6947
18.4406
17.9093
17.8651
20.0228
23.4644
25.8205
27.3625
28.7283
846.104
445.581
19.9244
20.0566
20.4053
20.9703
21.5311
21.8514
21.8139
21.2385
19.8697
17.9086
16.1318
15.0077
14.4596
14.2837
14.3536
14.583
14.9045
15.2892
15.7433
16.2813
16.9007
17.5571
18.1611
18.6159
18.8438
18.7832
18.469
18.5698
20.6657
23.8932
25.8782
27.1474
28.2104
843.953
449.114
19.8917
19.5121
19.6298
20.1763
20.814
21.2388
21.3769
21.1924
20.4613
18.9042
17.0576
15.6705
14.8638
14.4656
14.348
14.4334
14.6481
14.9532
15.3498
15.8598
16.4963
17.225
17.9539
18.5684
18.9764
19.1193
19.0229
19.1775
20.9208
23.8376
25.6157
26.7403
27.6648
842.581
448.888
19.0048
18.4248
18.6362
19.2826
19.8519
20.1633
20.2018
19.9465
19.3152
18.2352
16.9732
15.9736
15.307
14.8817
14.6477
14.5838
14.6617
14.8569
15.1696
15.6217
16.2354
16.9901
17.8017
18.5449
19.1114
19.4409
19.5481
19.7572
21.072
23.501
25.111
26.1558
27.0594
841.412
442.69
17.2456
16.9124
17.2836
17.8237
18.2459
18.5041
18.5361
18.3052
17.8502
17.2886
16.7202
16.1956
15.7349
15.3505
15.0635
14.8961
14.8545
14.9354
15.1468
15.5139
16.068
16.806
17.6601
18.5027
19.2086
19.7072
20.0017
20.2966
21.2543
23.1078
24.5112
25.4815
26.4115
840.193
436.292
16.6916
16.6407
16.5647
16.4913
16.5518
16.7391
16.9445
17.0874
17.1228
17.0207
16.7822
16.4477
16.0705
15.6975
15.372
15.1338
15.0074
15.0007
15.1261
15.4118
15.8985
16.603
17.4799
18.407
19.2422
19.8976
20.3632
20.7641
21.5045
22.8411
23.9943
24.8668
25.8093
838.993
434.997
17.9395
18.1049
17.9762
17.6498
17.1851
16.7341
16.4347
16.3807
16.5265
16.6688
16.6774
16.5359
16.2765
15.9467
15.6005
15.2958
15.084
14.9864
15.0214
15.2177
15.6237
16.2781
17.1665
18.18
19.155
19.9729
20.6045
21.1242
21.7714
22.7377
23.6431
24.396
25.3103
838.018
438.488
19.0632
19.4684
19.7842
19.9949
19.877
19.3061
18.2602
16.9851
16.2013
16.1054
16.2609
16.3509
16.2943
16.104
15.8204
15.501
15.2118
15.0109
14.94
15.0335
15.3389
15.9084
16.7643
17.8337
18.9428
19.9277
20.7252
21.3731
22.0114
22.7638
23.4719
24.1068
24.9682
837.496
446.141
19.386
19.0875
19.3987
20.1204
20.6314
20.6696
20.0513
18.569
16.9968
16.2841
16.225
16.2955
16.2971
16.2055
16.026
15.7682
15.4664
15.1861
15.0026
14.9779
15.1666
15.6276
16.4062
17.4698
18.6665
19.797
20.7479
21.5201
22.1931
22.8426
23.4214
23.9626
24.7739
837.368
451.288
18.8492
17.5241
17.5446
18.4652
19.1142
19.2681
18.8953
18.0192
17.1903
16.8758
16.7866
16.7166
16.6236
16.4922
16.3104
16.0694
15.7782
15.4782
15.2367
15.125
15.2089
15.5556
16.2249
17.2213
18.434
19.6586
20.7329
21.6124
22.3327
22.9408
23.4462
23.9278
24.7101
837.446
443.817
16.0676
15.3126
16.0324
16.7466
17.1135
17.293
17.3956
17.5134
17.5369
17.4483
17.318
17.1684
16.9996
16.8061
16.5812
16.3202
16.0289
15.734
15.4853
15.3423
15.367
15.6252
16.1858
17.0829
18.2541
19.519
20.6837
21.654
22.4267
23.0302
23.5046
23.9583
24.728
837.497
432.112
14.9821
15.2327
15.4058
15.4226
15.7558
16.2698
16.7353
17.0712
17.2769
17.361
17.3504
17.2707
17.138
16.9614
16.7444
16.4903
16.209
15.9219
15.6713
15.5114
15.5001
15.6938
16.1596
16.9526
18.0571
19.3341
20.5741
21.6321
22.465
23.089
23.5623
24.0118
24.7779
837.516
430.924
17.4656
17.4833
17.0753
16.5557
16.024
15.5525
15.2032
15.2115
15.6661
16.2361
16.6593
16.8887
16.9608
16.9178
16.7893
16.5947
16.3494
16.0716
15.8029
15.6086
15.5595
15.7078
16.1042
16.8034
17.8262
19.0882
20.3913
21.5448
22.4581
23.1296
23.6268
24.0882
24.8564
837.736
436.345
18.8656
19.0504
19.1006
19.0996
18.8343
18.1529
16.867
15.1402
14.154
14.4442
15.2443
15.9235
16.3572
16.5842
16.654
16.6041
16.46
16.2382
15.9685
15.7212
15.6016
15.6932
16.0416
16.6776
17.6254
18.847
20.1824
21.4172
22.4121
23.1407
23.6725
24.1545
24.9405
838.278
447.438
19.1467
18.2239
18.1256
18.8134
19.4244
19.4779
18.6383
16.6718
14.7688
14.3268
14.9494
15.6084
16.0318
16.3089
16.4778
16.5384