/*--------------------------------*- C++ -*----------------------------------*\
| =========                 |                                                 |
| \\      /  F ield         | OpenFOAM: The Open Source CFD Toolbox           |
|  \\    /   O peration     | Version:  v1906                                 |
|   \\  /    A nd           | Web:      www.OpenFOAM.com                      |
|    \\/     M anipulation  |                                                 |
\*---------------------------------------------------------------------------*/
FoamFile
{
    version     2.0;
    format      ascii;
    class       surfaceScalarField;
    location    "31";
    object      phi;
}
// * * * * * * * * * * * * * * * * * * * * * * * * * * * * * * * * * * * * * //

dimensions      [1 0 -1 0 0 0 0];
oriented        oriented;


internalField   nonuniform List<scalar> 
228225
(
-0.000430823
-4.41136e-05
-1.30766e-05
-0.000384012
-3.55007e-05
-1.12997e-05
-0.000340244
-3.3307e-05
-1.04601e-05
-0.000298287
-3.17966e-05
-1.01706e-05
-0.00026304
-2.5899e-05
-9.38411e-06
-0.000231986
-2.2974e-05
-8.10547e-06
-0.000205896
-1.90986e-05
-7.00896e-06
-0.000183111
-1.6796e-05
-6.00071e-06
-0.000163279
-1.45869e-05
-5.25999e-06
-0.000145657
-1.30197e-05
-4.61131e-06
-0.000130014
-1.15222e-05
-4.13013e-06
-0.000115946
-1.03698e-05
-3.70521e-06
-0.000103285
-9.30312e-06
-3.36393e-06
-9.18135e-05
-8.42006e-06
-3.05519e-06
-8.13863e-05
-7.62874e-06
-2.80081e-06
-7.18507e-05
-6.94124e-06
-2.59506e-06
-6.30592e-05
-6.34899e-06
-2.44161e-06
-5.48917e-05
-5.83165e-06
-2.33349e-06
-4.72372e-05
-5.38563e-06
-2.26519e-06
-4.00058e-05
-4.99734e-06
-2.22912e-06
-3.3128e-05
-4.65494e-06
-2.21685e-06
-2.65559e-05
-4.34532e-06
-2.21979e-06
-2.02635e-05
-4.05462e-06
-2.22977e-06
-1.42468e-05
-3.7686e-06
-2.23931e-06
-8.52301e-06
-3.47266e-06
-2.24156e-06
-3.13089e-06
-3.15174e-06
-2.23005e-06
1.86853e-06
-2.79002e-06
-2.19831e-06
6.39042e-06
-2.37069e-06
-2.13928e-06
1.03235e-05
-1.87561e-06
-2.0446e-06
1.35256e-05
-1.2845e-06
-1.90364e-06
1.58167e-05
-5.7362e-07
-1.7023e-06
1.69633e-05
2.94422e-07
-1.4241e-06
1.64581e-05
1.54731e-06
-1.02337e-06
1.24264e-05
4.41805e-06
-3.63382e-07
1.2255e-05
2.79323e-07
-2.3072e-05
-2.20774e-05
1.00747e-06
-3.60211e-05
-2.3252e-05
1.24649e-06
-4.57364e-05
-2.46155e-05
1.16668e-06
-5.49628e-05
-2.33216e-05
7.00471e-07
-6.15267e-05
-1.8984e-05
-3.63116e-07
-6.73975e-05
-1.64569e-05
-6.39503e-07
-7.11548e-05
-1.42077e-05
-1.1382e-06
-7.34959e-05
-1.30458e-05
-1.41269e-06
-7.41027e-05
-1.23093e-05
-1.67553e-06
-7.35712e-05
-1.16562e-05
-1.90283e-06
-7.20079e-05
-1.09805e-05
-2.11475e-06
-6.97821e-05
-1.02881e-05
-2.31883e-06
-6.69322e-05
-9.65138e-06
-2.51393e-06
-6.35986e-05
-9.06171e-06
-2.70556e-06
-5.98449e-05
-8.49913e-06
-2.89834e-06
-5.57398e-05
-7.96452e-06
-3.09797e-06
-5.13363e-05
-7.46269e-06
-3.30703e-06
-4.66719e-05
-6.99161e-06
-3.52278e-06
-4.17922e-05
-6.54741e-06
-3.73723e-06
-3.67434e-05
-6.12608e-06
-3.94008e-06
-3.15752e-05
-5.72217e-06
-4.12172e-06
-2.63385e-05
-5.32791e-06
-4.27526e-06
-2.10848e-05
-4.933e-06
-4.3969e-06
-1.5866e-05
-4.52415e-06
-4.48507e-06
-1.07369e-05
-4.08471e-06
-4.53925e-06
-5.75767e-06
-3.59416e-06
-4.5591e-06
-9.99307e-07
-3.02731e-06
-4.54367e-06
3.45049e-06
-2.35289e-06
-4.49041e-06
7.47754e-06
-1.53104e-06
-4.39454e-06
1.09285e-05
-5.10159e-07
-4.24809e-06
1.34828e-05
8.86147e-07
-4.03623e-06
1.45307e-05
2.94577e-06
-3.71999e-06
1.27652e-05
6.47888e-06
-3.18186e-06
6.50219e-06
1.27717e-05
-2.07559e-06
1.90987e-05
-2.31896e-07
-2.80235e-05
5.01884e-06
9.19578e-07
-4.34596e-05
-1.10368e-05
3.24716e-06
-5.57614e-05
-1.56906e-05
3.42917e-06
-6.30355e-05
-1.91111e-05
3.12704e-06
-6.44925e-05
-2.00025e-05
2.53461e-06
-6.43775e-05
-1.82738e-05
1.75054e-06
-6.42412e-05
-1.53375e-05
1.03728e-06
-6.52839e-05
-1.23751e-05
4.09812e-07
-6.6409e-05
-1.10881e-05
-6.42628e-08
-6.67482e-05
-1.09292e-05
-3.60868e-07
-6.61322e-05
-1.09858e-05
-5.87797e-07
-6.4637e-05
-1.10025e-05
-7.61527e-07
-6.24268e-05
-1.09536e-05
-8.90638e-07
-5.96593e-05
-1.08292e-05
-9.84341e-07
-5.6471e-05
-1.06172e-05
-1.05564e-06
-5.29764e-05
-1.03289e-05
-1.11651e-06
-4.92632e-05
-9.9858e-06
-1.17671e-06
-4.53927e-05
-9.60447e-06
-1.24449e-06
-4.14055e-05
-9.19508e-06
-1.32634e-06
-3.73299e-05
-8.76235e-06
-1.42621e-06
-3.31873e-05
-8.30664e-06
-1.54495e-06
-2.89966e-05
-7.82501e-06
-1.68028e-06
-2.47771e-05
-7.31166e-06
-1.82739e-06
-2.05507e-05
-6.75741e-06
-1.97963e-06
-1.63436e-05
-6.14878e-06
-2.12945e-06
-1.21883e-05
-5.46688e-06
-2.26895e-06
-8.12678e-06
-4.68562e-06
-2.38963e-06
-4.21569e-06
-3.76837e-06
-2.48211e-06
-5.37148e-07
-2.65966e-06
-2.53623e-06
2.7663e-06
-1.25764e-06
-2.54122e-06
5.53812e-06
6.16109e-07
-2.48389e-06
7.51166e-06
3.34385e-06
-2.3451e-06
7.58465e-06
8.5349e-06
-2.07932e-06
3.56606e-06
1.83728e-05
-1.4926e-06
2.30641e-05
-2.87397e-07
1.60421e-05
-1.22694e-05
1.20892e-06
2.01187e-05
-1.68043e-05
1.65178e-06
1.86489e-05
-1.55905e-05
1.32857e-06
1.17205e-05
-1.31107e-05
8.90417e-07
3.33628e-06
-1.22916e-05
6.58135e-07
-3.77768e-06
-1.17492e-05
6.05654e-07
-8.90369e-06
-1.06549e-05
4.79339e-07
-1.21405e-05
-9.10409e-06
-3.27936e-09
-1.43647e-05
-8.25959e-06
-5.91617e-07
-1.59311e-05
-8.26297e-06
-1.10039e-06
-1.70009e-05
-8.44022e-06
-1.4836e-06
-1.76424e-05
-8.59553e-06
-1.77742e-06
-1.79256e-05
-8.68312e-06
-2.00089e-06
-1.79058e-05
-8.69435e-06
-2.16852e-06
-1.76081e-05
-8.63323e-06
-2.29518e-06
-1.70458e-05
-8.50961e-06
-2.39442e-06
-1.62316e-05
-8.33506e-06
-2.47686e-06
-1.51752e-05
-8.12136e-06
-2.55025e-06
-1.38831e-05
-7.87654e-06
-2.61998e-06
-1.23626e-05
-7.60144e-06
-2.68928e-06
-1.06253e-05
-7.29136e-06
-2.7591e-06
-8.68878e-06
-6.93813e-06
-2.82851e-06
-6.57833e-06
-6.53097e-06
-2.89499e-06
-4.32861e-06
-6.05606e-06
-2.95378e-06
-1.9845e-06
-5.49597e-06
-2.99864e-06
3.99239e-07
-4.82853e-06
-3.0231e-06
2.75717e-06
-4.02387e-06
-3.02032e-06
5.01016e-06
-3.03927e-06
-2.98288e-06
7.06154e-06
-1.81037e-06
-2.90238e-06
8.81771e-06
-2.51051e-07
-2.76657e-06
9.87701e-06
2.10033e-06
-2.55121e-06
9.64006e-06
5.78119e-06
-2.21423e-06
7.3878e-06
1.24758e-05
-1.70321e-06
3.44348e-06
2.32995e-05
-9.45511e-07
2.66587e-05
-5.08376e-08
-9.16564e-07
-1.39815e-05
2.58336e-06
-4.27554e-06
-1.74424e-05
4.01408e-06
-8.4966e-06
-1.53206e-05
3.98843e-06
-1.26978e-05
-1.20882e-05
3.19673e-06
-1.67613e-05
-1.06292e-05
2.40516e-06
-2.00605e-05
-1.02192e-05
1.76656e-06
-2.17673e-05
-1.02321e-05
1.27908e-06
-2.21771e-05
-9.58767e-06
8.94188e-07
-2.23824e-05
-8.57272e-06
5.20405e-07
-2.27176e-05
-8.05613e-06
1.29308e-07
-2.30355e-05
-7.89244e-06
-2.30342e-07
-2.32047e-05
-7.83983e-06
-5.87995e-07
-2.31642e-05
-7.78532e-06
-9.40417e-07
-2.28898e-05
-7.69444e-06
-1.27656e-06
-2.23723e-05
-7.5633e-06
-1.58942e-06
-2.16089e-05
-7.39789e-06
-1.87679e-06
-2.0601e-05
-7.20461e-06
-2.13945e-06
-1.93576e-05
-6.98735e-06
-2.37793e-06
-1.7894e-05
-6.74731e-06
-2.59265e-06
-1.62279e-05
-6.48229e-06
-2.78419e-06
-1.43765e-05
-6.18805e-06
-2.95291e-06
-1.23568e-05
-5.85631e-06
-3.0988e-06
-1.01915e-05
-5.47142e-06
-3.22125e-06
-7.91391e-06
-5.01041e-06
-3.31888e-06
-5.56628e-06
-4.44884e-06
-3.38949e-06
-3.19539e-06
-3.76341e-06
-3.42984e-06
-8.5419e-07
-2.92235e-06
-3.43554e-06
1.38919e-06
-1.87364e-06
-3.4007e-06
3.41488e-06
-5.10607e-07
-3.31579e-06
5.10074e-06
1.23629e-06
-3.16188e-06
6.35959e-06
3.76191e-06
-2.90762e-06
6.62654e-06
8.03922e-06
-2.51166e-06
4.76322e-06
1.62581e-05
-1.90163e-06
1.57124e-06
2.75427e-05
-9.99987e-07
2.8409e-05
-7.80476e-08
-1.38494e-06
-1.50391e-05
2.33069e-06
-8.60995e-07
-2.16848e-05
3.53364e-06
2.73073e-06
-2.2708e-05
3.60014e-06
8.58011e-06
-2.16732e-05
3.55051e-06
1.37911e-05
-1.94987e-05
3.50017e-06
1.70283e-05
-1.70119e-05
3.43828e-06
1.77038e-05
-1.42845e-05
3.31022e-06
1.65216e-05
-1.14206e-05
2.9923e-06
1.45633e-05
-9.09213e-06
2.47792e-06
1.22563e-05
-7.68328e-06
1.94182e-06
9.8508e-06
-6.94422e-06
1.46547e-06
7.52137e-06
-6.54869e-06
1.04485e-06
5.38578e-06
-6.30532e-06
6.59833e-07
3.52313e-06
-6.12348e-06
2.93494e-07
1.9806e-06
-5.96267e-06
-5.84862e-08
7.50834e-07
-5.80444e-06
-3.65847e-07
-1.44688e-07
-5.63758e-06
-6.7499e-07
-7.08757e-07
-5.45257e-06
-9.75018e-07
-9.56824e-07
-5.24128e-06
-1.26252e-06
-9.10698e-07
-4.99693e-06
-1.53584e-06
-5.94762e-07
-4.71513e-06
-1.79292e-06
-3.35959e-08
-4.39096e-06
-2.03034e-06
7.45658e-07
-4.01002e-06
-2.2444e-06
1.70585e-06
-3.54198e-06
-2.43253e-06
2.79626e-06
-2.95096e-06
-2.59243e-06
3.95912e-06
-2.21044e-06
-2.7203e-06
5.14279e-06
-1.3001e-06
-2.81091e-06
6.321e-06
-2.01165e-07
-2.8565e-06
7.37286e-06
1.27744e-06
-2.84688e-06
8.1318e-06
3.23426e-06
-2.7653e-06
8.38047e-06
6.08789e-06
-2.58448e-06
7.76589e-06
1.09024e-05
-2.25758e-06
5.75015e-06
1.99788e-05
-1.6991e-06
2.49645e-06
3.16905e-05
-8.46667e-07
3.10171e-05
-1.74346e-08
-3.632e-07
-1.7358e-05
2.53618e-06
3.40117e-07
-2.61633e-05
3.70644e-06
1.68095e-06
-2.79247e-05
3.77785e-06
3.80029e-06
-2.75368e-05
3.57651e-06
6.65633e-06
-2.58896e-05
3.34122e-06
9.72811e-06
-2.33838e-05
3.13278e-06
1.26684e-05
-2.03039e-05
2.95878e-06
1.54203e-05
-1.70416e-05
2.79886e-06
1.75934e-05
-1.39064e-05
2.61417e-06
1.86813e-05
-1.1145e-05
2.3772e-06
1.85761e-05
-8.91125e-06
2.0925e-06
1.75065e-05
-7.23023e-06
1.77751e-06
1.58112e-05
-6.03181e-06
1.44664e-06
1.38027e-05
-5.20491e-06
1.10955e-06
1.17188e-05
-4.63842e-06
7.72655e-07
9.72437e-06
-4.24223e-06
4.39242e-07
7.93554e-06
-3.95013e-06
1.03724e-07
6.38719e-06
-3.71432e-06
-1.90927e-07
5.12135e-06
-3.49938e-06
-4.79289e-07
4.16282e-06
-3.2785e-06
-7.64181e-07
3.51471e-06
-3.03064e-06
-1.04092e-06
3.16407e-06
-2.73858e-06
-1.30635e-06
3.08885e-06
-2.38317e-06
-1.5562e-06
3.26407e-06
-1.9351e-06
-1.78673e-06
3.65852e-06
-1.35409e-06
-1.99589e-06
4.22218e-06
-5.97442e-07
-2.18097e-06
4.88844e-06
3.65663e-07
-2.33606e-06
5.59096e-06
1.54553e-06
-2.45328e-06
6.29808e-06
3.08988e-06
-2.52441e-06
6.85786e-06
5.20135e-06
-2.53468e-06
6.98734e-06
8.39499e-06
-2.45302e-06
6.09267e-06
1.39813e-05
-2.21981e-06
3.61938e-06
2.41267e-05
-1.7202e-06
1.19261e-06
3.49914e-05
-8.6522e-07
3.23317e-05
-3.9336e-08
-1.45573e-06
-1.84962e-05
2.52195e-06
-1.24269e-06
-3.01676e-05
3.69761e-06
5.46281e-07
-3.3439e-05
3.64115e-06
3.72777e-06
-3.43076e-05
3.49627e-06
8.20622e-06
-3.3943e-05
3.44287e-06
1.35267e-05
-3.23665e-05
3.47658e-06
1.90995e-05
-2.96491e-05
3.55435e-06
2.43333e-05
-2.61188e-05
3.62847e-06
2.8775e-05
-2.21879e-05
3.66081e-06
3.21111e-05
-1.82269e-05
3.62405e-06
3.41549e-05
-1.45199e-05
3.50495e-06
3.48768e-05
-1.12675e-05
3.3068e-06
3.44128e-05
-8.58802e-06
3.04489e-06
3.3017e-05
-6.50635e-06
2.73776e-06
3.09773e-05
-4.95566e-06
2.4007e-06
2.85402e-05
-3.81114e-06
2.04477e-06
2.58882e-05
-2.94759e-06
1.67868e-06
2.31609e-05
-2.27865e-06
1.30992e-06
2.04793e-05
-1.75459e-06
9.45069e-07
1.79525e-05
-1.33993e-06
5.88376e-07
1.56753e-05
-9.99271e-07
2.40013e-07
1.37046e-05
-6.89961e-07
-8.76977e-08
1.20486e-05
-3.62488e-07
-3.76878e-07
1.07339e-05
2.31247e-08
-6.56942e-07
9.72502e-06
5.60253e-07
-9.19624e-07
9.01623e-06
1.25956e-06
-1.16249e-06
8.57465e-06
2.17723e-06
-1.38404e-06
8.30586e-06
3.38236e-06
-1.58147e-06
8.1454e-06
4.98623e-06
-1.74832e-06
7.98907e-06
7.21643e-06
-1.87014e-06
7.64748e-06
1.06405e-05
-1.91661e-06
6.67497e-06
1.67547e-05
-1.82667e-06
4.36742e-06
2.78806e-05
-1.49618e-06
1.74102e-06
3.84117e-05
-8.05963e-07
3.41926e-05
-4.89826e-08
-2.42697e-06
-1.83167e-05
2.1925e-06
-4.53998e-06
-3.09613e-05
2.86743e-06
-5.45137e-06
-3.52841e-05
2.74457e-06
-5.33253e-06
-3.6915e-05
2.48227e-06
-4.10564e-06
-3.74513e-05
2.26058e-06
-1.36708e-06
-3.72759e-05
2.11776e-06
3.16878e-06
-3.63539e-05
2.07221e-06
9.3356e-06
-3.45472e-05
2.12385e-06
1.6565e-05
-3.183e-05
2.24716e-06
2.40704e-05
-2.83172e-05
2.41003e-06
3.10007e-05
-2.41963e-05
2.5825e-06
3.65861e-05
-1.97204e-05
2.73564e-06
4.03029e-05
-1.52314e-05
2.84158e-06
4.19883e-05
-1.11028e-05
2.87782e-06
4.18539e-05
-7.64253e-06
2.83266e-06
4.03827e-05
-5.0045e-06
2.70691e-06
3.81157e-05
-3.13043e-06
2.50833e-06
3.54515e-05
-1.80048e-06
2.24655e-06
3.25943e-05
-7.79252e-07
1.93309e-06
2.95925e-05
1.14658e-07
1.58228e-06
2.65153e-05
8.84485e-07
1.2112e-06
2.34153e-05
1.57407e-06
8.38255e-07
2.04076e-05
2.15758e-06
4.7886e-07
1.76276e-05
2.64912e-06
1.38195e-07
1.51943e-05
3.13163e-06
-1.5772e-07
1.31441e-05
3.71347e-06
-4.25693e-07
1.14859e-05
4.49504e-06
-6.83104e-07
1.01943e-05
5.57911e-06
-9.30136e-07
9.1999e-06
7.11799e-06
-1.16433e-06
8.34852e-06
9.41309e-06
-1.37536e-06
7.33155e-06
1.31575e-05
-1.5363e-06
5.65654e-06
1.9955e-05
-1.57505e-06
3.16849e-06
3.16393e-05
-1.3389e-06
1.15354e-06
4.11368e-05
-7.44616e-07
3.54603e-05
-5.6296e-08
-2.30984e-06
-1.76289e-05
1.51388e-06
-3.1883e-06
-3.21809e-05
1.93924e-06
-2.39986e-06
-3.81448e-05
1.96146e-06
-6.8109e-07
-4.05739e-05
1.8816e-06
1.58399e-06
-4.15201e-05
1.78629e-06
4.28482e-06
-4.16555e-05
1.69386e-06
7.52687e-06
-4.11659e-05
1.60511e-06
1.15509e-05
-4.00631e-05
1.53035e-06
1.65285e-05
-3.82752e-05
1.4939e-06
2.23952e-05
-3.56986e-05
1.51722e-06
2.87793e-05
-3.22211e-05
1.61137e-06
3.50401e-05
-2.78228e-05
1.77685e-06
4.04457e-05
-2.27301e-05
1.99657e-06
4.43654e-05
-1.73698e-05
2.23347e-06
4.63929e-05
-1.22139e-05
2.43713e-06
4.64645e-05
-7.71405e-06
2.56078e-06
4.49224e-05
-4.21519e-06
2.58764e-06
4.23883e-05
-1.80482e-06
2.53408e-06
3.94691e-05
-2.5513e-07
2.42126e-06
3.64607e-05
9.20096e-07
2.2535e-06
3.34331e-05
1.95379e-06
2.02015e-06
3.04178e-05
2.92958e-06
1.71464e-06
2.73661e-05
3.88897e-06
1.35474e-06
2.42084e-05
4.8408e-06
9.7751e-07
2.09877e-05
5.72927e-06
6.17022e-07
1.78675e-05
6.53103e-06
2.85992e-07
1.50264e-05
7.34047e-06
-2.61201e-08
1.25506e-05
8.31742e-06
-2.86309e-07
1.0514e-05
9.67332e-06
-5.42171e-07
8.91457e-06
1.17764e-05
-7.84028e-07
7.58105e-06
1.5479e-05
-9.99163e-07
5.92843e-06
2.2767e-05
-1.14829e-06
3.46347e-06
3.52306e-05
-1.09012e-06
1.43546e-06
4.38843e-05
-6.69199e-07
3.70543e-05
-7.18777e-08
1.04943e-06
-1.93248e-05
4.75859e-07
3.62638e-06
-3.56587e-05
6.80237e-07
6.56791e-06
-4.217e-05
9.33996e-07
9.3721e-06
-4.44953e-05
1.0334e-06
1.19327e-05
-4.51444e-05
1.02674e-06
1.42421e-05
-4.49289e-05
9.66989e-07
1.63273e-05
-4.40859e-05
8.78266e-07
1.82831e-05
-4.27056e-05
7.71314e-07
2.02887e-05
-4.08115e-05
6.52594e-07
2.25452e-05
-3.83396e-05
5.36439e-07
2.51655e-05
-3.5119e-05
4.51648e-07
2.80999e-05
-3.10093e-05
4.35276e-07
3.12096e-05
-2.6196e-05
5.2556e-07
3.43134e-05
-2.10901e-05
7.45763e-07
3.70285e-05
-1.59361e-05
1.07904e-06
3.87689e-05
-1.08959e-05
1.45606e-06
3.90801e-05
-6.32302e-06
1.77231e-06
3.79927e-05
-2.706e-06
1.95058e-06
3.5985e-05
-2.76279e-07
1.99272e-06
3.36027e-05
1.32353e-06
1.9492e-06
3.12506e-05
2.42634e-06
1.85951e-06
2.90491e-05
3.38868e-06
1.73647e-06
2.69285e-05
4.45205e-06
1.56986e-06
2.47262e-05
5.73151e-06
1.33364e-06
2.23103e-05
7.13095e-06
1.02642e-06
1.97023e-05
8.44371e-06
6.88513e-07
1.70353e-05
9.62935e-06
3.54931e-07
1.4448e-05
1.08415e-05
2.90832e-08
1.20101e-05
1.2332e-05
-2.6178e-07
9.77921e-06
1.4503e-05
-5.39564e-07
7.76621e-06
1.82439e-05
-7.85043e-07
5.7705e-06
2.57345e-05
-9.44963e-07
3.43412e-06
3.86352e-05
-9.14498e-07
1.49345e-06
4.65577e-05
-5.82185e-07
3.87092e-05
-7.14552e-08
4.14922e-06
-2.36051e-05
-1.2035e-08
9.5946e-06
-4.09637e-05
-2.15206e-07
1.40075e-05
-4.65747e-05
-1.38461e-08
1.74493e-05
-4.81466e-05
2.33689e-07
2.01903e-05
-4.82579e-05
4.10861e-07
2.23687e-05
-4.75807e-05
5.17252e-07
2.40388e-05
-4.62856e-05
5.72533e-07
2.5208e-05
-4.44252e-05
5.89332e-07
2.58688e-05
-4.2005e-05
5.69457e-07
2.60192e-05
-3.89576e-05
5.08077e-07
2.56526e-05
-3.50936e-05
3.95606e-07
2.47719e-05
-3.02702e-05
2.24903e-07
2.35785e-05
-2.49253e-05
4.16669e-08
2.26064e-05
-1.99205e-05
-5.44901e-08
2.2335e-05
-1.55475e-05
2.75979e-08
2.2765e-05
-1.1507e-05
3.04192e-07
2.33762e-05
-7.57365e-06
7.23034e-07
2.35383e-05
-3.95813e-06
1.13086e-06
2.29837e-05
-1.11032e-06
1.39733e-06
2.19741e-05
8.24048e-07
1.49925e-06
2.07439e-05
2.14735e-06
1.49098e-06
1.94483e-05
3.24119e-06
1.42301e-06
1.81754e-05
4.39428e-06
1.31458e-06
1.69446e-05
5.79426e-06
1.16185e-06
1.56633e-05
7.46357e-06
9.54502e-07
1.42653e-05
9.1444e-06
7.06703e-07
1.28454e-05
1.06065e-05
4.4694e-07
1.15254e-05
1.19706e-05
1.864e-07
1.03465e-05
1.35742e-05
-7.79531e-08
9.20435e-06
1.5972e-05
-3.59034e-07
7.68212e-06
2.03318e-05
-6.38757e-07
5.19802e-06
2.8945e-05
-8.66097e-07
2.39835e-06
4.22253e-05
-8.89033e-07
9.57788e-07
4.86348e-05
-6.20478e-07
3.99038e-05
-1.54206e-07
6.39331e-06
-2.92485e-05
-6.89212e-07
1.21361e-05
-4.47522e-05
-1.68886e-06
1.57088e-05
-4.81258e-05
-1.75841e-06
1.78455e-05
-4.85704e-05
-1.48374e-06
1.90284e-05
-4.80246e-05
-1.20769e-06
1.94607e-05
-4.6838e-05
-9.77237e-07
1.92522e-05
-4.51015e-05
-7.8586e-07
1.84938e-05
-4.28718e-05
-6.16061e-07
1.72788e-05
-4.01836e-05
-4.46406e-07
1.56751e-05
-3.6963e-05
-2.60167e-07
1.36977e-05
-3.29573e-05
-6.55058e-08
1.13999e-05
-2.79391e-05
2.46668e-08
8.96883e-06
-2.23921e-05
-6.31492e-08
6.8238e-06
-1.74861e-05
-2.55077e-07
5.36851e-06
-1.37147e-05
-3.4251e-07
4.79481e-06
-1.06445e-05
-2.50117e-07
4.95859e-06
-7.73618e-06
3.87984e-08
5.42123e-06
-4.81559e-06
4.26213e-07
5.67236e-06
-2.15266e-06
8.06314e-07
5.51223e-06
-6.06445e-08
1.04457e-06
5.27471e-06
1.2354e-06
1.1393e-06
5.08026e-06
2.2761e-06
1.14273e-06
5.04048e-06
3.33134e-06
1.07988e-06
5.22605e-06
4.63479e-06
9.44786e-07
5.5894e-06
6.33686e-06
7.2913e-07
5.88033e-06
8.3527e-06
4.64278e-07
5.85656e-06
1.03819e-05
2.12118e-07
5.55053e-06
1.22389e-05
3.36871e-09
5.20776e-06
1.4112e-05
-2.25147e-07
4.91196e-06
1.66828e-05
-4.38369e-07
4.35167e-06
2.15072e-05
-6.47013e-07
2.63921e-06
3.13636e-05
-8.31956e-07
3.69704e-07
4.51367e-05
-8.78805e-07
5.41577e-08
4.95523e-05
-6.88008e-07
4.03177e-05
-2.77086e-07
5.23534e-06
-3.33234e-05
-9.33548e-07
8.94944e-06
-4.64399e-05
-1.7548e-06
1.12306e-05
-4.83421e-05
-1.90219e-06
1.27151e-05
-4.81715e-05
-1.78095e-06
1.3543e-05
-4.71604e-05
-1.61329e-06
1.36628e-05
-4.54296e-05
-1.45399e-06
1.29752e-05
-4.30153e-05
-1.31837e-06
1.14268e-05
-4.00337e-05
-1.20115e-06
9.07088e-06
-3.66556e-05
-1.0803e-06
6.08565e-06
-3.29711e-05
-9.2046e-07
2.79512e-06
-2.89063e-05
-6.89832e-07
-3.11083e-07
-2.43556e-05
-4.31993e-07
-2.73789e-06
-1.96402e-05
-3.07139e-07
-4.26498e-06
-1.56054e-05
-3.55949e-07
-4.92955e-06
-1.2636e-05
-4.28086e-07
-4.81142e-06
-1.0356e-05
-4.26472e-07
-3.99442e-06
-8.25927e-06
-3.15429e-07
-2.74344e-06
-6.03224e-06
-5.46281e-08
-1.51705e-06
-3.68776e-06
2.89864e-07
-6.90638e-07
-1.54241e-06
6.37403e-07
-4.73709e-07
1.28353e-07
8.72687e-07
-4.85706e-07
1.2778e-06
9.92281e-07
-4.35598e-07
2.22292e-06
1.0386e-06
-8.13203e-08
3.22897e-06
1.02912e-06
7.1862e-07
4.56325e-06
9.4763e-07
1.83509e-06
6.44016e-06
7.65626e-07
2.83401e-06
8.85694e-06
4.9162e-07
3.31167e-06
1.15372e-05
1.8912e-07
3.22519e-06
1.42631e-05
-9.00922e-08
2.82648e-06
1.74433e-05
-3.53918e-07
2.28407e-06
2.27152e-05
-5.71369e-07
1.3024e-06
3.32598e-05
-7.20227e-07
5.15531e-08
4.72645e-05
-7.63787e-07
1.37759e-07
5.01824e-05
-6.50456e-07
4.08243e-05
-3.14419e-07
1.5826e-06
-3.39082e-05
-9.03071e-07
2.54372e-06
-4.62133e-05
-1.15354e-06
3.37369e-06
-4.78783e-05
-1.28106e-06
4.11952e-06
-4.75841e-05
-1.31337e-06
4.62098e-06
-4.63255e-05
-1.29478e-06
4.66293e-06
-4.41446e-05
-1.2582e-06
4.08899e-06
-4.11312e-05
-1.22059e-06
2.89152e-06
-3.75564e-05
-1.1869e-06
1.17991e-06
-3.37151e-05
-1.15133e-06
-8.61534e-07
-2.97848e-05
-1.09507e-06
-2.94833e-06
-2.58146e-05
-9.87785e-07
-4.69659e-06
-2.18052e-05
-8.15161e-07
-5.81315e-06
-1.79157e-05
-6.38991e-07
-6.31976e-06
-1.45849e-05
-5.48356e-07
-6.37944e-06
-1.20829e-05
-5.25531e-07
-6.04923e-06
-1.02035e-05
-5.12985e-07
-5.28037e-06
-8.5811e-06
-4.77228e-07
-4.03821e-06
-6.91764e-06
-3.87787e-07
-2.51262e-06
-5.03886e-06
-2.05855e-07
-1.17296e-06
-2.98319e-06
7.05635e-08
-4.13047e-07
-1.01776e-06
3.57247e-07
-3.04833e-07
5.56862e-07
5.85196e-07
-5.3799e-07
1.69964e-06
7.28771e-07
-8.03799e-07
2.65539e-06
8.09878e-07
-8.03607e-07
3.68822e-06
8.42007e-07
-2.91394e-07
5.07888e-06
8.12296e-07
7.19768e-07
7.11798e-06
6.88097e-07
1.77754e-06
9.983e-06
4.55508e-07
2.28458e-06
1.35631e-05
1.57126e-07
2.10746e-06
1.77712e-05
-1.49251e-07
1.63217e-06
2.375e-05
-4.19487e-07
1.08206e-06
3.48192e-05
-5.81447e-07
4.66736e-07
4.90035e-05
-6.10894e-07
4.1175e-07
5.10503e-05
-5.38799e-07
4.15532e-05
-2.66955e-07
6.6682e-07
-3.3966e-05
-6.55111e-07
1.39282e-06
-4.61783e-05
-7.54056e-07
2.1129e-06
-4.76797e-05
-8.88878e-07
2.72694e-06
-4.71528e-05
-9.9586e-07
3.02902e-06
-4.54723e-05
-1.07719e-06
2.76026e-06
-4.2629e-05
-1.13744e-06
1.85317e-06
-3.89291e-05
-1.16811e-06
4.84808e-07
-3.4905e-05
-1.16012e-06
-1.09257e-06
-3.09161e-05
-1.11901e-06
-2.64006e-06
-2.71055e-05
-1.05903e-06
-3.90882e-06
-2.35234e-05
-9.85978e-07
-4.65154e-06
-2.01756e-05
-8.9065e-07
-4.76571e-06
-1.70711e-05
-7.70248e-07
-4.42315e-06
-1.43294e-05
-6.5687e-07
-3.89143e-06
-1.20966e-05
-5.78702e-07
-3.29987e-06
-1.03238e-05
-5.2648e-07
-2.63319e-06
-8.81602e-06
-4.80567e-07
-1.79904e-06
-7.37171e-06
-4.22899e-07
-7.14276e-07
-5.82978e-06
-3.3077e-07
5.4653e-07
-4.09889e-06
-1.7571e-07
1.69089e-06
-2.23345e-06
4.70983e-08
2.42722e-06
-4.73287e-07
2.74279e-07
2.62122e-06
1.02795e-06
4.59514e-07
2.48779e-06
2.18517e-06
5.84114e-07
2.31981e-06
3.17122e-06
6.62895e-07
2.40346e-06
4.26811e-06
7.02014e-07
2.99849e-06
5.80931e-06
6.8537e-07
4.12439e-06
8.24796e-06
5.76923e-07
5.21818e-06
1.20786e-05
3.48616e-07
5.39862e-06
1.75045e-05
3.36128e-08
4.50715e-06
2.49581e-05
-3.03718e-07
3.12684e-06
3.69982e-05
-5.03509e-07
1.82179e-06
5.13125e-05
-5.1306e-07
1.04084e-06
5.26013e-05
-4.48409e-07
4.29449e-05
-2.22341e-07
2.10236e-06
-3.53412e-05
-6.32852e-07
3.16685e-06
-4.62105e-05
-9.05019e-07
3.69214e-06
-4.71097e-05
-1.00518e-06
3.91686e-06
-4.62023e-05
-1.09786e-06
3.69015e-06
-4.39424e-05
-1.2144e-06
2.78899e-06
-4.02766e-05
-1.34742e-06
1.30576e-06
-3.58934e-05
-1.45385e-06
-4.67864e-07
-3.15635e-05
-1.49162e-06
-2.2874e-06
-2.75914e-05
-1.45273e-06
-3.97218e-06
-2.40271e-05
-1.35753e-06
-5.32059e-06
-2.09107e-05
-1.23778e-06
-6.08203e-06
-1.82805e-05
-1.11828e-06
-6.07032e-06
-1.60806e-05
-1.00688e-06
-5.33825e-06
-1.41874e-05
-9.04412e-07
-4.16014e-06
-1.25094e-05
-8.15899e-07
-2.81384e-06
-1.09869e-05
-7.43758e-07
-1.45683e-06
-9.5523e-06
-6.83388e-07
-1.30175e-07
-8.13224e-06
-6.26568e-07
1.20334e-06
-6.65713e-06
-5.61848e-07
2.59315e-06
-5.06556e-06
-4.71794e-07
3.98372e-06
-3.32984e-06
-3.33209e-07
5.13926e-06
-1.52411e-06
-1.32374e-07
5.94308e-06
1.14808e-07
9.15175e-08
6.25901e-06
1.57667e-06
2.79928e-07
6.31308e-06
2.68606e-06
4.19308e-07
6.35627e-06
3.69848e-06
5.13436e-07
6.66932e-06
4.91502e-06
5.65836e-07
7.51256e-06
6.82436e-06
5.58141e-07
8.71279e-06
1.03852e-05
4.41671e-07
8.97188e-06
1.69134e-05
1.67665e-07
6.65412e-06
2.70968e-05
-2.40303e-07
2.97646e-06
4.07413e-05
-5.22433e-07
1.19878e-06
5.3587e-05
-5.34987e-07
5.43007e-07
5.37841e-05
-4.73615e-07
4.38412e-05
-2.69195e-07
1.24316e-06
-3.60326e-05
-4.05192e-07
1.21472e-06
-4.55494e-05
-5.1785e-07
8.08197e-07
-4.60592e-05
-5.65511e-07
1.73212e-07
-4.48415e-05
-6.49703e-07
-9.23496e-07
-4.19394e-05
-8.0577e-07
-2.63468e-06
-3.74282e-05
-1.02084e-06
-4.65791e-06
-3.25588e-05
-1.21744e-06
-6.64687e-06
-2.81877e-05
-1.33846e-06
-8.42737e-06
-2.44341e-05
-1.37443e-06
-9.88071e-06
-2.12665e-05
-1.33798e-06
-1.08684e-05
-1.87126e-05
-1.25424e-06
-1.12779e-05
-1.67563e-05
-1.15448e-06
-1.1074e-05
-1.52561e-05
-1.05989e-06
-1.03034e-05
-1.40112e-05
-9.75548e-07
-9.09391e-06
-1.28518e-05
-9.00013e-07
-7.62304e-06
-1.16659e-05
-8.32458e-07
-6.0637e-06
-1.0387e-05
-7.72669e-07
-4.55093e-06
-8.98016e-06
-7.18181e-07
-3.16233e-06
-7.43924e-06
-6.62509e-07
-1.90629e-06
-5.78292e-06
-5.94787e-07
-7.44944e-07
-4.04457e-06
-5.00056e-07
3.20801e-07
-2.27418e-06
-3.63239e-07
1.13162e-06
-5.53007e-07
-1.81994e-07
1.76556e-06
8.91556e-07
2.12192e-08
2.15361e-06
2.09475e-06
1.80731e-07
2.33549e-06
3.18295e-06
3.17213e-07
2.45461e-06
4.36026e-06
4.25355e-07
2.74497e-06
6.03524e-06
4.9654e-07
3.43615e-06
9.21021e-06
4.89831e-07
4.01703e-06
1.59677e-05
3.12894e-07
2.26676e-06
2.84705e-05
-9.7204e-08
-2.01168e-06
4.43735e-05
-5.47498e-07
-2.70613e-06
5.42313e-05
-6.46398e-07
-1.81263e-06
5.31581e-05
-6.51175e-07
4.22509e-05
-4.26456e-07
-4.6438e-07
-3.54423e-05
-3.35314e-08
-1.54768e-06
-4.44016e-05
-1.03086e-08
-2.724e-06
-4.48076e-05
-5.69371e-08
-3.91345e-06
-4.34793e-05
-1.59118e-07
-5.32026e-06
-4.01235e-05
-3.68595e-07
-7.11716e-06
-3.4915e-05
-6.48789e-07
-8.99798e-06
-2.97428e-05
-8.70334e-07
-1.06799e-05
-2.54719e-05
-9.90472e-07
-1.20988e-05
-2.19636e-05
-1.03397e-06
-1.32585e-05
-1.90843e-05
-1.02633e-06
-1.41331e-05
-1.68665e-05
-9.87722e-07
-1.4702e-05
-1.52711e-05
-9.35803e-07
-1.49885e-05
-1.41073e-05
-8.80812e-07
-1.50264e-05
-1.31649e-05
-8.25722e-07
-1.48338e-05
-1.22907e-05
-7.70747e-07
-1.44223e-05
-1.13801e-05
-7.15965e-07
-1.38138e-05
-1.03551e-05
-6.62082e-07
-1.30497e-05
-9.16019e-06
-6.09797e-07
-1.21863e-05
-7.77485e-06
-5.57694e-07
-1.12777e-05
-6.22535e-06
-4.99643e-07
-1.03599e-05
-4.572e-06
-4.25867e-07
-9.46193e-06
-2.87999e-06
-3.28312e-07
-8.65454e-06
-1.19045e-06
-2.05298e-07
-8.1399e-06
4.06321e-07
-6.33276e-08
-7.92057e-06
1.75587e-06
8.70965e-08
-8.13217e-06
3.12217e-06
2.41963e-07
-8.78981e-06
4.59578e-06
3.98487e-07
-9.72587e-06
6.42513e-06
5.53721e-07
-1.0318e-05
9.25537e-06
6.88461e-07
-9.27045e-06
1.47402e-05
7.29375e-07
-6.14916e-06
2.59287e-05
5.06235e-07
-4.59108e-06
4.34455e-05
-1.47571e-08
-3.73289e-06
5.34545e-05
-3.09571e-07
-2.11139e-06
5.1866e-05
-4.69469e-07
4.05223e-05
-2.98411e-07
-1.63694e-06
-3.42308e-05
3.65268e-07
-2.47449e-06
-4.42305e-05
5.54828e-07
-2.93966e-06
-4.50342e-05
5.40701e-07
-3.19188e-06
-4.38602e-05
4.5438e-07
-3.37055e-06
-4.035e-05
2.21417e-07
-3.84937e-06
-3.44412e-05
-1.41661e-07
-4.55382e-06
-2.87182e-05
-4.19846e-07
-5.19907e-06
-2.4332e-05
-5.56287e-07
-5.70128e-06
-2.08908e-05
-6.02328e-07
-6.18672e-06
-1.80051e-05
-6.01336e-07
-6.83985e-06
-1.56235e-05
-5.80034e-07
-7.72164e-06
-1.38153e-05
-5.54793e-07
-8.74482e-06
-1.25303e-05
-5.31248e-07
-9.77947e-06
-1.15995e-05
-5.08007e-07
-1.07145e-05
-1.08518e-05
-4.82354e-07
-1.14573e-05
-1.01646e-05
-4.52672e-07
-1.1921e-05
-9.45498e-06
-4.1866e-07
-1.20265e-05
-8.65888e-06
-3.81246e-07
-1.17262e-05
-7.72295e-06
-3.42494e-07
-1.1032e-05
-6.61234e-06
-3.04158e-07
-1.00203e-05
-5.32265e-06
-2.65206e-07
-8.80928e-06
-3.88049e-06
-2.21503e-07
-7.52047e-06
-2.32724e-06
-1.68371e-07
-6.32615e-06
-7.0519e-07
-1.03179e-07
-5.56025e-06
9.94443e-07
-2.82009e-08
-5.37928e-06
2.8373e-06
7.65045e-08
-5.87809e-06
4.84709e-06
2.15258e-07
-7.04548e-06
7.18059e-06
3.77269e-07
-8.52569e-06
1.01666e-05
5.70818e-07
-8.92765e-06
1.46352e-05
7.96269e-07
-4.81694e-06
2.22432e-05
9.89063e-07
2.35637e-06
3.8218e-05
8.7104e-07
3.6162e-06
5.34894e-05
4.58417e-07
2.29364e-06
5.40243e-05
1.30978e-07
4.31341e-05
1.41742e-07
-6.00744e-07
-3.45056e-05
7.51955e-07
5.94553e-08
-4.62516e-05
1.23661e-06
1.24094e-06
-4.75589e-05
1.23051e-06
2.63557e-06
-4.6492e-05
1.11093e-06
4.06243e-06
-4.27652e-05
8.30203e-07
4.87005e-06
-3.57367e-05
3.39396e-07
4.98355e-06
-2.88466e-05
-9.75992e-08
4.92041e-06
-2.4019e-05
-3.33269e-07
5.02085e-06
-2.06231e-05
-4.30713e-07
5.2886e-06
-1.78615e-05
-4.53842e-07
5.49739e-06
-1.54148e-05
-4.38032e-07
5.43032e-06
-1.33406e-05
-4.0785e-07
5.07728e-06
-1.17825e-05
-3.80427e-07
4.57624e-06
-1.07137e-05
-3.61062e-07
4.0613e-06
-9.95999e-06
-3.46617e-07
3.61731e-06
-9.35311e-06
-3.32688e-07
3.32679e-06
-8.80913e-06
-3.1741e-07
3.29335e-06
-8.28617e-06
-2.9942e-07
3.6221e-06
-7.73298e-06
-2.77693e-07
4.39727e-06
-7.09367e-06
-2.52475e-07
5.65933e-06
-6.31849e-06
-2.26618e-07
7.38722e-06
-5.3701e-06
-2.04566e-07
9.49574e-06
-4.2225e-06
-1.89081e-07
1.18529e-05
-2.86998e-06
-1.7982e-07
1.43553e-05
-1.33406e-06
-1.73798e-07
1.69984e-05
3.47673e-07
-1.66534e-07
1.92082e-05
2.75969e-06
-1.52273e-07
2.08731e-05
5.58405e-06
-1.22558e-07
2.15689e-05
9.43685e-06
-6.46352e-08
2.04504e-05
1.55518e-05
4.03112e-08
1.89363e-05
2.35519e-05
3.01659e-07
1.79547e-05
3.91795e-05
7.0285e-07
1.28932e-05
5.84124e-05
7.5906e-07
6.42638e-06
6.03384e-05
6.53935e-07
4.95057e-05
5.16459e-07
6.71999e-07
-3.65053e-05
1.23634e-06
2.20292e-06
-4.99834e-05
2.09424e-06
4.20662e-06
-5.17153e-05
2.06843e-06
6.42132e-06
-5.0641e-05
1.84422e-06
8.61526e-06
-4.65623e-05
1.48126e-06
9.97998e-06
-3.80575e-05
8.48016e-07
1.01331e-05
-2.92551e-05
1.98387e-07
9.79929e-06
-2.35319e-05
-1.81862e-07
9.62473e-06
-2.0121e-05
-3.52577e-07
9.84902e-06
-1.77047e-05
-4.12478e-07
1.04231e-05
-1.56111e-05
-4.15149e-07
1.11154e-05
-1.36825e-05
-3.88557e-07
1.17242e-05
-1.20692e-05
-3.55291e-07
1.22212e-05
-1.09071e-05
-3.30778e-07
1.26397e-05
-1.00822e-05
-3.17098e-07
1.30228e-05
-9.44171e-06
-3.07864e-07
1.34337e-05
-8.92766e-06
-2.97353e-07
1.39549e-05
-8.51833e-06
-2.84968e-07
1.46871e-05
-8.18062e-06
-2.70688e-07
1.5748e-05
-7.87402e-06
-2.55581e-07
1.72653e-05
-7.55309e-06
-2.43243e-07
1.93458e-05
-7.16271e-06
-2.37427e-07
2.20418e-05
-6.62524e-06
-2.38319e-07
2.53189e-05
-5.84218e-06
-2.4784e-07
2.90339e-05
-4.72305e-06
-2.75001e-07
3.28974e-05
-3.15567e-06
-3.30555e-07
3.69774e-05
-9.18483e-07
-4.19313e-07
4.00982e-05
2.87826e-06
-5.39962e-07
4.01771e-05
9.62329e-06
-6.74572e-07
3.4932e-05
2.083e-05
-8.37146e-07
2.51354e-05
3.3304e-05
-9.34976e-07
1.43253e-05
4.88267e-05
-4.27594e-07
7.02265e-06
6.41437e-05
2.02765e-07
2.67469e-06
6.37651e-05
4.01083e-07
5.22041e-05
2.32675e-07
-1.45215e-08
-3.83622e-05
1.75446e-06
9.09288e-07
-5.38692e-05
2.79473e-06
2.44646e-06
-5.61748e-05
2.76566e-06
4.43171e-06
-5.52949e-05
2.49632e-06
6.84683e-06
-5.13398e-05
2.13683e-06
9.11163e-06
-4.20708e-05
1.5164e-06
9.72697e-06
-3.07107e-05
6.98803e-07
8.96968e-06
-2.29356e-05
9.98956e-08
7.81552e-06
-1.88281e-05
-1.66292e-07
6.88434e-06
-1.65236e-05
-2.69337e-07
6.4114e-06
-1.48734e-05
-2.86001e-07
6.39054e-06
-1.34343e-05
-2.54417e-07
6.64056e-06
-1.21494e-05
-2.02957e-07
6.97795e-06
-1.11233e-05
-1.57257e-07
7.32298e-06
-1.03409e-05
-1.23377e-07
7.67874e-06
-9.73636e-06