/*--------------------------------*- C++ -*----------------------------------*\
| =========                 |                                                 |
| \\      /  F ield         | OpenFOAM: The Open Source CFD Toolbox           |
|  \\    /   O peration     | Version:  v1906                                 |
|   \\  /    A nd           | Web:      www.OpenFOAM.com                      |
|    \\/     M anipulation  |                                                 |
\*---------------------------------------------------------------------------*/
FoamFile
{
    version     2.0;
    format      ascii;
    class       volVectorField;
    location    "18.8/oil";
    object      U;
}
// * * * * * * * * * * * * * * * * * * * * * * * * * * * * * * * * * * * * * //

dimensions      [0 1 -1 0 0 0 0];


internalField   nonuniform List<vector> 
27760
(
(-3.02684e-05 -3.08841e-05 -3.02684e-05)
(-5.97879e-05 -2.31807e-05 -2.17932e-05)
(-4.44767e-06 -6.02671e-06 -5.92772e-06)
(-7.34096e-06 -1.00335e-06 -1.03392e-06)
(-1.86016e-06 -3.43027e-07 -3.7333e-07)
(-1.1194e-06 -1.6767e-07 -1.92759e-07)
(-4.54729e-07 -6.46325e-08 -8.79615e-08)
(-1.65476e-07 -2.48718e-08 -4.8304e-08)
(-8.61431e-09 -5.33869e-09 -2.94286e-08)
(6.85807e-08 4.45429e-09 -2.02835e-08)
(1.00205e-07 9.99227e-09 -1.52524e-08)
(1.01645e-07 1.34466e-08 -1.20933e-08)
(8.21848e-08 1.57092e-08 -1.00088e-08)
(4.81452e-08 1.71162e-08 -8.67181e-09)
(4.93957e-09 1.78593e-08 -7.9462e-09)
(-4.23356e-08 1.80324e-08 -7.76871e-09)
(-8.89025e-08 1.76869e-08 -8.08634e-09)
(-1.30479e-07 1.68882e-08 -8.81212e-09)
(-1.63554e-07 1.57073e-08 -9.8259e-09)
(-1.85648e-07 1.42119e-08 -1.09868e-08)
(-1.95454e-07 1.24998e-08 -1.21242e-08)
(-1.92812e-07 1.06857e-08 -1.30562e-08)
(-1.78646e-07 8.83555e-09 -1.36074e-08)
(-1.54814e-07 7.00904e-09 -1.35945e-08)
(-1.24002e-07 5.22537e-09 -1.29287e-08)
(-8.96085e-08 3.54916e-09 -1.15072e-08)
(-5.55698e-08 2.12514e-09 -9.31524e-09)
(-2.62785e-08 1.24153e-09 -6.52341e-09)
(-5.96786e-09 1.38694e-09 -3.68289e-09)
(1.23419e-09 2.2975e-09 -1.10499e-09)
(-2.19786e-05 -6.14097e-05 -2.19786e-05)
(-7.28888e-06 -7.8555e-06 -9.84527e-06)
(-9.98921e-06 -9.46954e-06 -3.43837e-06)
(-4.93278e-06 -2.57523e-06 -9.76149e-07)
(-2.38905e-06 -1.46577e-06 -4.76115e-07)
(-1.30582e-06 -6.95551e-07 -2.25543e-07)
(-5.79977e-07 -3.74932e-07 -1.0509e-07)
(-1.8955e-07 -2.13382e-07 -5.02043e-08)
(3.80623e-08 -1.30307e-07 -2.18598e-08)
(1.58048e-07 -8.35701e-08 -6.36974e-09)
(2.06819e-07 -5.50156e-08 3.1512e-09)
(2.0373e-07 -3.61807e-08 9.56626e-09)
(1.62118e-07 -2.3367e-08 1.40553e-08)
(9.26906e-08 -1.49528e-08 1.70748e-08)
(5.47711e-09 -1.02083e-08 1.87334e-08)
(-8.97486e-08 -8.73927e-09 1.90752e-08)
(-1.83601e-07 -1.021e-08 1.81938e-08)
(-2.67587e-07 -1.41949e-08 1.62601e-08)
(-3.3474e-07 -2.01492e-08 1.35406e-08)
(-3.80096e-07 -2.74499e-08 1.0365e-08)
(-4.00974e-07 -3.54175e-08 7.07461e-09)
(-3.97077e-07 -4.33788e-08 3.98638e-09)
(-3.70299e-07 -5.07122e-08 1.41135e-09)
(-3.24407e-07 -5.68092e-08 -3.93691e-10)
(-2.64722e-07 -6.10449e-08 -1.26093e-09)
(-1.97767e-07 -6.25776e-08 -1.11454e-09)
(-1.30861e-07 -6.01744e-08 -4.55751e-11)
(-7.15349e-08 -5.20805e-08 1.56095e-09)
(-2.67714e-08 -3.59701e-08 2.7834e-09)
(-2.04351e-09 -1.20031e-08 2.23621e-09)
(-6.09624e-06 -5.59698e-06 -6.09626e-06)
(-9.73385e-06 -1.03919e-05 -3.54357e-06)
(-5.377e-06 -5.49716e-06 -1.57681e-06)
(-3.58789e-06 -2.80109e-06 -7.54767e-07)
(-1.98337e-06 -1.67425e-06 -3.63961e-07)
(-1.09244e-06 -9.87078e-07 -1.74122e-07)
(-4.82437e-07 -6.41601e-07 -7.84342e-08)
(-1.14022e-07 -4.47818e-07 -3.06156e-08)
(1.12602e-07 -3.36164e-07 -4.14999e-09)
(2.35725e-07 -2.66907e-07 1.16624e-08)
(2.82892e-07 -2.21055e-07 2.22399e-08)
(2.70712e-07 -1.89059e-07 2.98599e-08)
(2.12325e-07 -1.6643e-07 3.5441e-08)
(1.19643e-07 -1.51102e-07 3.92651e-08)
(4.68541e-09 -1.42176e-07 4.13643e-08)
(-1.20302e-07 -1.39094e-07 4.17526e-08)
(-2.43346e-07 -1.41262e-07 4.05221e-08)
(-3.53527e-07 -1.47872e-07 3.78805e-08)
(-4.41849e-07 -1.57841e-07 3.41572e-08)
(-5.01934e-07 -1.69893e-07 2.97568e-08)
(-5.30386e-07 -1.8267e-07 2.51116e-08)
(-5.26865e-07 -1.94825e-07 2.06333e-08)
(-4.9383e-07 -2.05023e-07 1.66824e-08)
(-4.36145e-07 -2.11911e-07 1.35386e-08)
(-3.60534e-07 -2.13965e-07 1.1368e-08)
(-2.75061e-07 -2.09247e-07 1.02011e-08)
(-1.88516e-07 -1.95074e-07 9.87006e-09)
(-1.095e-07 -1.67731e-07 9.85425e-09)
(-4.6218e-08 -1.21998e-07 9.07554e-09)
(-5.00152e-09 -5.23355e-08 5.24842e-09)
(-1.1204e-06 -7.95815e-06 -1.12042e-06)
(-2.74133e-06 -5.50015e-06 -1.03548e-06)
(-2.60632e-06 -4.09292e-06 -7.65482e-07)
(-2.01926e-06 -2.58169e-06 -4.21782e-07)
(-1.24319e-06 -1.75243e-06 -2.20572e-07)
(-6.90468e-07 -1.21606e-06 -1.08581e-07)
(-2.64377e-07 -9.08052e-07 -4.53544e-08)
(2.48014e-08 -7.18258e-07 -9.99342e-09)
(2.13327e-07 -5.98449e-07 1.16459e-08)
(3.17165e-07 -5.17985e-07 2.59938e-08)
(3.509e-07 -4.6107e-07 3.64804e-08)
(3.25456e-07 -4.19317e-07 4.4536e-08)
(2.51547e-07 -3.88711e-07 5.06708e-08)
(1.4062e-07 -3.67468e-07 5.4956e-08)
(5.33637e-09 -3.54812e-07 5.73106e-08)
(-1.40786e-07 -3.50171e-07 5.76993e-08)
(-2.84261e-07 -3.52776e-07 5.62019e-08)
(-4.12652e-07 -3.61459e-07 5.30441e-08)
(-5.15687e-07 -3.74594e-07 4.86058e-08)
(-5.86114e-07 -3.90251e-07 4.33467e-08)
(-6.20119e-07 -4.06322e-07 3.77646e-08)
(-6.17406e-07 -4.20683e-07 3.23236e-08)
(-5.8085e-07 -4.31212e-07 2.74175e-08)
(-5.15985e-07 -4.3572e-07 2.33379e-08)
(-4.30333e-07 -4.31711e-07 2.02439e-08)
(-3.32722e-07 -4.16049e-07 1.81415e-08)
(-2.32616e-07 -3.84451e-07 1.68297e-08)
(-1.39079e-07 -3.30829e-07 1.5712e-08)
(-6.13493e-08 -2.45673e-07 1.36113e-08)
(-7.20047e-09 -1.12678e-07 7.5129e-09)
(-3.91632e-07 -2.35168e-06 -3.91654e-07)
(-1.46694e-06 -3.0843e-06 -4.92154e-07)
(-1.39018e-06 -2.79748e-06 -3.67606e-07)
(-1.12199e-06 -2.16526e-06 -2.21188e-07)
(-7.06396e-07 -1.7145e-06 -1.1997e-07)
(-3.52291e-07 -1.37701e-06 -5.69206e-08)
(-5.39181e-08 -1.15332e-06 -1.74964e-08)
(1.66088e-07 -9.99517e-07 7.18504e-09)
(3.14784e-07 -8.91988e-07 2.41189e-08)
(3.94962e-07 -8.13229e-07 3.6697e-08)
(4.12196e-07 -7.53383e-07 4.67539e-08)
(3.72689e-07 -7.07054e-07 5.49721e-08)
(2.84721e-07 -6.71781e-07 6.14618e-08)
(1.58848e-07 -6.46643e-07 6.60818e-08)
(7.822e-09 -6.3134e-07 6.86198e-08)
(-1.54161e-07 -6.25472e-07 6.89825e-08)
(-3.12681e-07 -6.28211e-07 6.72326e-08)
(-4.54306e-07 -6.38125e-07 6.36079e-08)
(-5.67919e-07 -6.53114e-07 5.85438e-08)
(-6.45719e-07 -6.70637e-07 5.25513e-08)
(-6.83683e-07 -6.87892e-07 4.61934e-08)
(-6.81631e-07 -7.02036e-07 3.99811e-08)
(-6.42767e-07 -7.10184e-07 3.43386e-08)
(-5.73087e-07 -7.09344e-07 2.95672e-08)
(-4.80593e-07 -6.96081e-07 2.58242e-08)
(-3.74521e-07 -6.66041e-07 2.31006e-08)
(-2.64684e-07 -6.13199e-07 2.11778e-08)
(-1.60453e-07 -5.28599e-07 1.94107e-08)
(-7.20239e-08 -3.97063e-07 1.65427e-08)
(-8.65146e-09 -1.877e-07 9.03271e-09)
(-1.85598e-07 -1.59955e-06 -1.85622e-07)
(-6.18926e-07 -2.18295e-06 -2.22235e-07)
(-6.47925e-07 -2.20823e-06 -1.71938e-07)
(-5.36561e-07 -1.97133e-06 -1.08446e-07)
(-3.10383e-07 -1.74981e-06 -5.76534e-08)
(-8.19625e-08 -1.55633e-06 -2.25131e-08)
(1.2754e-07 -1.40966e-06 2.06698e-09)
(2.9258e-07 -1.29708e-06 1.95589e-08)
(4.06286e-07 -1.21005e-06 3.31663e-08)
(4.63858e-07 -1.14061e-06 4.44658e-08)
(4.6502e-07 -1.08406e-06 5.42538e-08)
(4.12478e-07 -1.03795e-06 6.26784e-08)
(3.12491e-07 -1.00153e-06 6.953e-08)
(1.74686e-07 -9.74884e-07 7.44814e-08)
(1.1683e-08 -9.58301e-07 7.71934e-08)
(-1.61984e-07 -9.51635e-07 7.75205e-08)
(-3.31348e-07 -9.54087e-07 7.55081e-08)
(-4.82323e-07 -9.64076e-07 7.14054e-08)
(-6.03241e-07 -9.79154e-07 6.57089e-08)
(-6.85974e-07 -9.96312e-07 5.89916e-08)
(-7.26455e-07 -1.01221e-06 5.1891e-08)
(-7.24652e-07 -1.0234e-06 4.49667e-08)
(-6.84083e-07 -1.02637e-06 3.86746e-08)
(-6.11096e-07 -1.01742e-06 3.33316e-08)
(-5.13987e-07 -9.92244e-07 2.90947e-08)
(-4.02219e-07 -9.4526e-07 2.59442e-08)
(-2.85798e-07 -8.68559e-07 2.36479e-08)
(-1.7433e-07 -7.49826e-07 2.1526e-08)
(-7.87598e-08 -5.67102e-07 1.82568e-08)
(-9.50887e-09 -2.72425e-07 9.95535e-09)
(-7.0904e-08 -1.00461e-06 -7.09288e-08)
(-2.64963e-07 -1.66642e-06 -9.3416e-08)
(-2.76551e-07 -1.89681e-06 -7.3929e-08)
(-2.03628e-07 -1.89776e-06 -4.60651e-08)
(-5.6148e-08 -1.83776e-06 -2.0523e-08)
(1.06661e-07 -1.75556e-06 -6.81667e-10)
(2.62885e-07 -1.67743e-06 1.51394e-08)
(3.90405e-07 -1.60703e-06 2.81149e-08)
(4.77835e-07 -1.54524e-06 3.95618e-08)
(5.17193e-07 -1.49078e-06 5.00556e-08)
(5.0511e-07 -1.44291e-06 5.97563e-08)
(4.42136e-07 -1.40169e-06 6.84509e-08)
(3.33111e-07 -1.36783e-06 7.56803e-08)
(1.86917e-07 -1.34233e-06 8.09622e-08)
(1.5945e-08 -1.32602e-06 8.38382e-08)
(-1.65159e-07 -1.319e-06 8.41263e-08)
(-3.41212e-07 -1.32057e-06 8.18563e-08)
(-4.97767e-07 -1.32912e-06 7.72788e-08)
(-6.22848e-07 -1.34205e-06 7.09562e-08)
(-7.08197e-07 -1.3561e-06 6.35295e-08)
(-7.49785e-07 -1.36758e-06 5.57126e-08)
(-7.47796e-07 -1.37268e-06 4.81177e-08)
(-7.0603e-07 -1.36744e-06 4.12413e-08)
(-6.31082e-07 -1.34763e-06 3.54088e-08)
(-5.3143e-07 -1.30811e-06 3.07791e-08)
(-4.16616e-07 -1.24212e-06 2.7322e-08)
(-2.96703e-07 -1.1397e-06 2.47935e-08)
(-1.81405e-07 -9.84827e-07 2.24924e-08)
(-8.2096e-08 -7.47976e-07 1.90502e-08)
(-9.89995e-09 -3.6269e-07 1.04045e-08)
(-2.74958e-08 -8.07275e-07 -2.75212e-08)
(-9.41959e-08 -1.48775e-06 -3.63251e-08)
(-7.81777e-08 -1.81444e-06 -2.71408e-08)
(-1.09339e-08 -1.94315e-06 -1.37562e-08)
(1.02337e-07 -1.98533e-06 -8.11695e-11)
(2.29867e-07 -1.98186e-06 1.19842e-08)
(3.5371e-07 -1.95903e-06 2.30274e-08)
(4.55886e-07 -1.92724e-06 3.34033e-08)
(5.24302e-07 -1.89209e-06 4.35747e-08)
(5.50008e-07 -1.85613e-06 5.36221e-08)
(5.28207e-07 -1.8212e-06 6.3349e-08)
(4.58217e-07 -1.78896e-06 7.23091e-08)
(3.43947e-07 -1.76119e-06 7.98653e-08)
(1.93667e-07 -1.73947e-06 8.54265e-08)
(1.94598e-08 -1.725e-06 8.84302e-08)
(-1.64176e-07 -1.71802e-06 8.86791e-08)
(-3.42214e-07 -1.71796e-06 8.61904e-08)
(-5.00179e-07 -1.72334e-06 8.1203e-08)
(-6.26027e-07 -1.73158e-06 7.43443e-08)
(-7.11551e-07 -1.73944e-06 6.63056e-08)
(-7.52858e-07 -1.74319e-06 5.78748e-08)
(-7.50363e-07 -1.73888e-06 4.97175e-08)
(-7.08077e-07 -1.72235e-06 4.23677e-08)
(-6.32724e-07 -1.68895e-06 3.61552e-08)
(-5.32829e-07 -1.63292e-06 3.12383e-08)
(-4.17854e-07 -1.54625e-06 2.7574e-08)
(-2.97735e-07 -1.41689e-06 2.49142e-08)
(-1.821e-07 -1.22489e-06 2.25476e-08)
(-8.23788e-08 -9.32741e-07 1.90929e-08)
(-9.90073e-09 -4.54912e-07 1.04545e-08)
(-7.91984e-09 -7.43978e-07 -7.94546e-09)
(-1.44128e-08 -1.45735e-06 -9.32707e-09)
(2.32443e-08 -1.84796e-06 -4.23556e-09)
(9.33009e-08 -2.05711e-06 2.79704e-09)
(1.91383e-07 -2.16951e-06 1.07347e-08)
(2.99138e-07 -2.22449e-06 1.87704e-08)
(4.02568e-07 -2.24707e-06 2.71574e-08)
(4.87311e-07 -2.25035e-06 3.59755e-08)
(5.42104e-07 -2.24216e-06 4.53122e-08)
(5.5816e-07 -2.22706e-06 5.50086e-08)
(5.30262e-07 -2.20829e-06 6.46784e-08)
(4.57133e-07 -2.18846e-06 7.3743e-08)
(3.42094e-07 -2.16981e-06 8.14472e-08)
(1.9287e-07 -2.1542e-06 8.71362e-08)
(2.1079e-08 -2.14293e-06 9.01706e-08)
(-1.59281e-07 -2.1363e-06 9.03818e-08)
(-3.33784e-07 -2.13386e-06 8.77786e-08)
(-4.88332e-07 -2.13436e-06 8.25482e-08)
(-6.11131e-07 -2.1355e-06 7.53654e-08)
(-6.94209e-07 -2.13425e-06 6.6952e-08)
(-7.33856e-07 -2.1271e-06 5.81546e-08)
(-7.30695e-07 -2.11028e-06 4.96694e-08)
(-6.88845e-07 -2.07965e-06 4.205e-08)
(-6.15016e-07 -2.03033e-06 3.56349e-08)
(-5.17567e-07 -1.95601e-06 3.05761e-08)
(-4.05671e-07 -1.84756e-06 2.68259e-08)
(-2.88912e-07 -1.69079e-06 2.41306e-08)
(-1.76586e-07 -1.46173e-06 2.17907e-08)
(-7.97804e-08 -1.11489e-06 1.84596e-08)
(-9.54804e-09 -5.45789e-07 1.01419e-08)
(3.37279e-10 -7.49657e-07 3.11362e-10)
(2.1934e-08 -1.50646e-06 2.64756e-09)
(7.13915e-08 -1.94566e-06 6.15905e-09)
(1.42717e-07 -2.20948e-06 1.04265e-08)
(2.31207e-07 -2.37204e-06 1.55896e-08)
(3.25159e-07 -2.47143e-06 2.14929e-08)
(4.13609e-07 -2.53153e-06 2.83143e-08)
(4.8503e-07 -2.56627e-06 3.60589e-08)
(5.29494e-07 -2.58437e-06 4.46754e-08)
(5.38943e-07 -2.59127e-06 5.39007e-08)
(5.08288e-07 -2.59072e-06 6.3259e-08)
(4.36058e-07 -2.58558e-06 7.21155e-08)
(3.2519e-07 -2.57819e-06 7.9653e-08)
(1.82812e-07 -2.57034e-06 8.52142e-08)
(1.98448e-08 -2.56325e-06 8.81356e-08)
(-1.50626e-07 -2.55719e-06 8.83104e-08)
(-3.15351e-07 -2.55183e-06 8.57398e-08)
(-4.61074e-07 -2.54617e-06 8.05306e-08)
(-5.76585e-07 -2.5383e-06 7.33716e-08)
(-6.54362e-07 -2.52566e-06 6.49639e-08)
(-6.90968e-07 -2.5052e-06 5.61735e-08)
(-6.8716e-07 -2.47352e-06 4.77115e-08)
(-6.46999e-07 -2.4267e-06 4.01355e-08)
(-5.7697e-07 -2.35988e-06 3.37793e-08)
(-4.85005e-07 -2.26626e-06 2.87838e-08)
(-3.79751e-07 -2.1357e-06 2.50977e-08)
(-2.70167e-07 -1.95193e-06 2.24799e-08)
(-1.64914e-07 -1.68712e-06 2.02652e-08)
(-7.43638e-08 -1.28806e-06 1.71812e-08)
(-8.85567e-09 -6.32149e-07 9.48107e-09)
(3.58173e-09 -7.832e-07 3.5535e-09)
(3.57215e-08 -1.5888e-06 7.37302e-09)
(8.80487e-08 -2.06893e-06 1.01175e-08)
(1.55977e-07 -2.3734e-06 1.30415e-08)
(2.34618e-07 -2.57378e-06 1.67262e-08)
(3.1578e-07 -2.708e-06 2.13302e-08)
(3.90799e-07 -2.79937e-06 2.7016e-08)
(4.50438e-07 -2.86201e-06 3.37845e-08)
(4.8627e-07 -2.90483e-06 4.15276e-08)
(4.91248e-07 -2.93344e-06 4.9957e-08)
(4.60769e-07 -2.95156e-06 5.85751e-08)
(3.93428e-07 -2.96192e-06 6.67509e-08)
(2.9185e-07 -2.96661e-06 7.36828e-08)
(1.62455e-07 -2.96719e-06 7.87698e-08)
(1.51331e-08 -2.96466e-06 8.13789e-08)
(-1.38437e-07 -2.95929e-06 8.15173e-08)
(-2.86714e-07 -2.95082e-06 7.91816e-08)
(-4.17824e-07 -2.93852e-06 7.43521e-08)
(-5.21554e-07 -2.92086e-06 6.76748e-08)
(-5.91076e-07 -2.89583e-06 5.97805e-08)
(-6.23274e-07 -2.86095e-06 5.15183e-08)
(-6.18942e-07 -2.81334e-06 4.35592e-08)
(-5.81911e-07 -2.74951e-06 3.64391e-08)
(-5.18175e-07 -2.66472e-06 3.04767e-08)
(-4.34962e-07 -2.5519e-06 2.58067e-08)
(-3.4008e-07 -2.39995e-06 2.23791e-08)
(-2.41573e-07 -2.19076e-06 1.99686e-08)
(-1.472e-07 -1.89289e-06 1.79815e-08)
(-6.62093e-08 -1.44599e-06 1.52754e-08)
(-7.83203e-09 -7.10892e-07 8.48119e-09)
(4.34408e-09 -8.25061e-07 4.31445e-09)
(3.70255e-08 -1.6782e-06 8.29694e-09)
(8.50415e-08 -2.19294e-06 1.04943e-08)
(1.44397e-07 -2.52869e-06 1.26292e-08)
(2.1053e-07 -2.7581e-06 1.53708e-08)
(2.77459e-07 -2.91977e-06 1.89993e-08)
(3.38459e-07 -3.03686e-06 2.36592e-08)
(3.86304e-07 -3.12347e-06 2.9355e-08)
(4.1414e-07 -3.18837e-06 3.59685e-08)
(4.16135e-07 -3.23695e-06 4.32272e-08)
(3.88406e-07 -3.2726e-06 5.06667e-08)
(3.29744e-07 -3.29767e-06 5.77107e-08)
(2.4242e-07 -3.31388e-06 6.36341e-08)
(1.31954e-07 -3.32247e-06 6.79434e-08)
(6.82306e-09 -3.32428e-06 7.0085e-08)
(-1.23153e-07 -3.31964e-06 7.0184e-08)
(-2.48572e-07 -3.30837e-06 6.82308e-08)
(-3.59433e-07 -3.2898e-06 6.40834e-08)
(-4.4693e-07 -3.26278e-06 5.83118e-08)
(-5.05196e-07 -3.22572e-06 5.14263e-08)
(-5.31578e-07 -3.1768e-06 4.41929e-08)
(-5.26846e-07 -3.11378e-06 3.72123e-08)
(-4.94391e-07 -3.03364e-06 3.09702e-08)
(-4.39418e-07 -2.93183e-06 2.57514e-08)
(-3.68172e-07 -2.80114e-06 2.16748e-08)
(-2.87314e-07 -2.62976e-06 1.87013e-08)
(-2.03662e-07 -2.39793e-06 1.66389e-08)
(-1.23784e-07 -2.07107e-06 1.49876e-08)
(-5.54754e-08 -1.58265e-06 1.27802e-08)
(-6.49531e-09 -7.79016e-07 7.16072e-09)
(3.82138e-09 -8.63932e-07 3.78618e-09)
(3.09134e-08 -1.75773e-06 7.12003e-09)
(6.90923e-08 -2.30006e-06 8.76315e-09)
(1.15178e-07 -2.65939e-06 1.02914e-08)
(1.65505e-07 -2.91061e-06 1.22782e-08)
(2.1585e-07 -3.09328e-06 1.49949e-08)
(2.61312e-07 -3.2306e-06 1.85609e-08)
(2.96579e-07 -3.33661e-06 2.29763e-08)
(3.16476e-07 -3.41979e-06 2.81333e-08)
(3.1654e-07 -3.48515e-06 3.37997e-08)
(2.93742e-07 -3.53565e-06 3.9589e-08)
(2.47137e-07 -3.57311e-06 4.50375e-08)
(1.78549e-07 -3.59885e-06 4.95502e-08)
(9.23317e-08 -3.61397e-06 5.27761e-08)
(-4.83633e-09 -3.61928e-06 5.43088e-08)
(-1.05375e-07 -3.61534e-06 5.436e-08)
(-2.02264e-07 -3.60201e-06 5.29256e-08)
(-2.87767e-07 -3.5785e-06 4.97674e-08)
(-3.54939e-07 -3.54377e-06 4.53122e-08)
(-3.99176e-07 -3.4966e-06 3.993e-08)
(-4.18411e-07 -3.43569e-06 3.42413e-08)
(-4.1335e-07 -3.35937e-06 2.87302e-08)
(-3.86751e-07 -3.26513e-06 2.3801e-08)
(-3.42788e-07 -3.14873e-06 1.96802e-08)
(-2.86417e-07 -3.00289e-06 1.64733e-08)
(-2.22862e-07 -2.81524e-06 1.41518e-08)
(-1.57455e-07 -2.56476e-06 1.25723e-08)
(-9.53079e-08 -2.21437e-06 1.13537e-08)
(-4.24556e-08 -1.69248e-06 9.75678e-09)
(-4.88225e-09 -8.33781e-07 5.55826e-09)
(2.57904e-09 -8.93146e-07 2.54028e-09)
(2.01991e-08 -1.81634e-06 4.72744e-09)
(4.45069e-08 -2.37794e-06 5.75665e-09)
(7.35688e-08 -2.75339e-06 6.7184e-09)
(1.05084e-07 -3.01967e-06 8.00322e-09)
(1.36532e-07 -3.21715e-06 9.80425e-09)
(1.6485e-07 -3.36912e-06 1.21945e-08)
(1.86649e-07 -3.48953e-06 1.51806e-08)
(1.98549e-07 -3.58651e-06 1.86911e-08)
(1.9755e-07 -3.66464e-06 2.25641e-08)
(1.81586e-07 -3.72641e-06 2.65276e-08)
(1.49931e-07 -3.77325e-06 3.02574e-08)
(1.03743e-07 -3.80611e-06 3.33346e-08)
(4.59096e-08 -3.82602e-06 3.55273e-08)
(-1.90527e-08 -3.83388e-06 3.6546e-08)
(-8.59932e-08 -3.83054e-06 3.65449e-08)
(-1.50187e-07 -3.81588e-06 3.55249e-08)
(-2.0637e-07 -3.78891e-06 3.33055e-08)
(-2.49853e-07 -3.74858e-06 3.02042e-08)
(-2.77635e-07 -3.69387e-06 2.64692e-08)
(-2.88434e-07 -3.62388e-06 2.25469e-08)
(-2.82908e-07 -3.53742e-06 1.8763e-08)
(-2.6307e-07 -3.43242e-06 1.5397e-08)
(-2.31856e-07 -3.30494e-06 1.2606e-08)
(-1.92662e-07 -3.14773e-06 1.04559e-08)
(-1.49051e-07 -2.94804e-06 8.92687e-09)
(-1.0461e-07 -2.68398e-06 7.93227e-09)
(-6.27814e-08 -2.31664e-06 7.22579e-09)
(-2.76067e-08 -1.77084e-06 6.3201e-09)
(-3.04772e-09 -8.72874e-07 3.72792e-09)
(9.30178e-10 -9.08577e-07 8.84193e-10)
(6.66841e-09 -1.84673e-06 1.61775e-09)
(1.43762e-08 -2.41808e-06 1.96589e-09)
(2.3734e-08 -2.80199e-06 2.35352e-09)
(3.41751e-08 -3.07663e-06 2.92807e-09)
(4.49044e-08 -3.28279e-06 3.76286e-09)
(5.47679e-08 -3.44373e-06 4.89045e-09)
(6.23532e-08 -3.57317e-06 6.30977e-09)
(6.61435e-08 -3.67899e-06 7.98238e-09)
(6.46883e-08 -3.76542e-06 9.83702e-09)
(5.68949e-08 -3.83458e-06 1.17461e-08)
(4.22254e-08 -3.88758e-06 1.35611e-08)
(2.10389e-08 -3.92513e-06 1.50801e-08)
(-5.46061e-09 -3.94825e-06 1.6177e-08)
(-3.5199e-08 -3.95783e-06 1.66792e-08)
(-6.55801e-08 -3.95493e-06 1.66179e-08)
(-9.41226e-08 -3.93946e-06 1.60096e-08)
(-1.18185e-07 -3.9103e-06 1.47947e-08)
(-1.35614e-07 -3.86646e-06 1.31898e-08)
(-1.45226e-07 -3.807e-06 1.13187e-08)
(-1.46698e-07 -3.7313e-06 9.40655e-09)
(-1.40646e-07 -3.63852e-06 7.6068e-09)
(-1.28225e-07 -3.52689e-06 6.04291e-09)
(-1.10985e-07 -3.39267e-06 4.7772e-09)
(-9.05967e-08 -3.22866e-06 3.83844e-09)
(-6.876e-08 -3.02194e-06 3.21866e-09)
(-4.71718e-08 -2.75009e-06 2.88304e-09)
(-2.74651e-08 -2.37327e-06 2.74303e-09)
(-1.14988e-08 -1.81422e-06 2.59339e-09)
(-1.05859e-09 -8.94547e-07 1.73847e-09)
(-9.23324e-10 -9.07854e-07 -9.76805e-10)
(-8.36707e-09 -1.84455e-06 -1.85585e-09)
(-1.87822e-08 -2.41526e-06 -2.22274e-09)
(-3.06243e-08 -2.79974e-06 -2.41211e-09)
(-4.25095e-08 -3.07607e-06 -2.53627e-09)
(-5.34694e-08 -3.28483e-06 -2.65821e-09)
(-6.27017e-08 -3.44902e-06 -2.79788e-09)
(-6.96395e-08 -3.58215e-06 -2.95642e-09)
(-7.39298e-08 -3.69184e-06 -3.11368e-09)
(-7.54365e-08 -3.78214e-06 -3.23414e-09)
(-7.42717e-08 -3.85498e-06 -3.28155e-09)
(-7.08055e-08 -3.91125e-06 -3.2353e-09)
(-6.56185e-08 -3.95153e-06 -3.0954e-09)
(-5.93201e-08 -3.97667e-06 -2.91806e-09)
(-5.23751e-08 -3.98742e-06 -2.80849e-09)
(-4.47861e-08 -3.9848e-06 -2.91914e-09)
(-3.62952e-08 -3.96874e-06 -3.21833e-09)
(-2.69266e-08 -3.93827e-06 -3.59305e-09)
(-1.71708e-08 -3.89256e-06 -3.8733e-09)
(-7.7895e-09 -3.83088e-06 -4.00901e-09)
(5.09562e-10 -3.75281e-06 -3.98222e-09)
(7.1502e-09 -3.65764e-06 -3.82371e-09)
(1.18454e-08 -3.54373e-06 -3.57711e-09)
(1.45404e-08 -3.40744e-06 -3.28694e-09)
(1.53635e-08 -3.2416e-06 -2.98251e-09)
(1.45508e-08 -3.03326e-06 -2.66822e-09)
(1.2396e-08 -2.75992e-06 -2.32038e-09)
(9.14088e-09 -2.38156e-06 -1.8786e-09)
(5.18405e-09 -1.82059e-06 -1.25574e-09)
(9.96731e-10 -8.97792e-07 -3.21472e-10)
(-2.8421e-09 -8.89915e-07 -2.904e-09)
(-2.38579e-08 -1.80781e-06 -5.44469e-09)
(-5.28167e-08 -2.36716e-06 -6.5373e-09)
(-8.62082e-08 -2.74429e-06 -7.29641e-09)
(-1.20633e-07 -3.01573e-06 -8.11169e-09)
(-1.53367e-07 -3.22116e-06 -9.19145e-09)
(-1.81702e-07 -3.38302e-06 -1.06083e-08)
(-2.03143e-07 -3.51453e-06 -1.23732e-08)
(-2.1549e-07 -3.62314e-06 -1.44264e-08)
(-2.17059e-07 -3.71285e-06 -1.66487e-08)
(-2.06978e-07 -3.7856e-06 -1.88434e-08)
(-1.85399e-07 -3.84226e-06 -2.08026e-08)
(-1.53717e-07 -3.88331e-06 -2.23001e-08)
(-1.14275e-07 -3.90928e-06 -2.32827e-08)
(-7.00778e-08 -3.92066e-06 -2.37111e-08)
(-2.38792e-08 -3.91819e-06 -2.38643e-08)
(2.21224e-08 -3.90183e-06 -2.3695e-08)
(6.51013e-08 -3.87092e-06 -2.29638e-08)
(1.01945e-07 -3.82505e-06 -2.16388e-08)
(1.30048e-07 -3.76377e-06 -1.97916e-08)
(1.47786e-07 -3.68674e-06 -1.7629e-08)
(1.54722e-07 -3.59327e-06 -1.53775e-08)
(1.51487e-07 -3.48163e-06 -1.32387e-08)
(1.39522e-07 -3.34812e-06 -1.13498e-08)
(1.20759e-07 -3.18558e-06 -9.78019e-09)
(9.73608e-08 -2.98117e-06 -8.51863e-09)
(7.15728e-08 -2.71274e-06 -7.48518e-09)
(4.54914e-08 -2.34091e-06 -6.46385e-09)
(2.17439e-08 -1.78947e-06 -5.0757e-09)
(3.03628e-09 -8.82371e-07 -2.36937e-09)
(-4.7057e-09 -8.54781e-07 -4.7733e-09)
(-3.88894e-08 -1.73665e-06 -8.92432e-09)
(-8.57844e-08 -2.27405e-06 -1.07097e-08)
(-1.39934e-07 -2.6362e-06 -1.19997e-08)
(-1.95991e-07 -2.89646e-06 -1.34515e-08)
(-2.49553e-07 -3.0929e-06 -1.54137e-08)
(-2.96126e-07 -3.24708e-06 -1.80226e-08)
(-3.31426e-07 -3.37172e-06 -2.12963e-08)
(-3.51535e-07 -3.47417e-06 -2.51452e-08)
(-3.53317e-07 -3.55851e-06 -2.93743e-08)
(-3.34914e-07 -3.62684e-06 -3.36554e-08)
(-2.96186e-07 -3.68019e-06 -3.76244e-08)
(-2.39187e-07 -3.71912e-06 -4.08378e-08)
(-1.67775e-07 -3.744e-06 -4.30895e-08)
(-8.73631e-08 -3.75507e-06 -4.41518e-08)
(-3.52064e-09 -3.75266e-06 -4.43183e-08)
(7.88602e-08 -3.73678e-06 -4.35476e-08)
(1.54094e-07 -3.7072e-06 -4.15703e-08)
(2.16602e-07 -3.66386e-06 -3.85523e-08)
(2.62194e-07 -3.60644e-06 -3.47101e-08)
(2.88526e-07 -3.53454e-06 -3.04672e-08)
(2.95403e-07 -3.44727e-06 -2.62172e-08)
(2.84386e-07 -3.34269e-06 -2.22909e-08)
(2.58337e-07 -3.21688e-06 -1.89037e-08)
(2.2089e-07 -3.06269e-06 -1.61539e-08)
(1.76004e-07 -2.86763e-06 -1.40181e-08)
(1.27751e-07 -2.61031e-06 -1.2353e-08)
(7.99942e-08 -2.25284e-06 -1.07922e-08)
(3.74551e-08 -1.72201e-06 -8.69124e-09)
(4.96739e-09 -8.48833e-07 -4.31248e-09)
(-6.41444e-09 -8.0345e-07 -6.49071e-09)
(-5.2675e-08 -1.63309e-06 -1.21205e-08)
(-1.15989e-07 -2.13867e-06 -1.45358e-08)
(-1.89094e-07 -2.4788e-06 -1.62978e-08)
(-2.64839e-07 -2.72219e-06 -1.83058e-08)
(-3.37319e-07 -2.90457e-06 -2.10442e-08)
(-4.00438e-07 -3.04625e-06 -2.46959e-08)
(-4.48316e-07 -3.15933e-06 -2.93065e-08)
(-4.75532e-07 -3.25095e-06 -3.47744e-08)
(-4.77639e-07 -3.32531e-06 -4.0848e-08)
(-4.51888e-07 -3.38481e-06 -4.71125e-08)
(-3.97811e-07 -3.43088e-06 -5.30548e-08)
(-3.17886e-07 -3.46432e-06 -5.80382e-08)
(-2.17225e-07 -3.48564e-06 -6.16606e-08)
(-1.03318e-07 -3.49506e-06 -6.34695e-08)
(1.55242e-08 -3.49266e-06 -6.3635e-08)
(1.31473e-07 -3.47853e-06 -6.21253e-08)
(2.36075e-07 -3.45271e-06 -5.87773e-08)
(3.21644e-07 -3.41515e-06 -5.39924e-08)
(3.82717e-07 -3.36545e-06 -4.81787e-08)
(4.16464e-07 -3.30293e-06 -4.19641e-08)
(4.22993e-07 -3.22626e-06 -3.58763e-08)
(4.04737e-07 -3.13314e-06 -3.03459e-08)
(3.65844e-07 -3.01948e-06 -2.56316e-08)
(3.11449e-07 -2.87823e-06 -2.18485e-08)
(2.47114e-07 -2.69746e-06 -1.89498e-08)
(1.78551e-07 -2.45689e-06 -1.67336e-08)
(1.11192e-07 -2.12093e-06 -1.47028e-08)
(5.16597e-08 -1.62095e-06 -1.19619e-08)
(6.71184e-09 -7.98536e-07 -6.07282e-09)
(-7.89469e-09 -7.37688e-07 -7.97537e-09)
(-6.45732e-08 -1.50071e-06 -1.48794e-08)
(-1.42003e-07 -1.96579e-06 -1.78269e-08)
(-2.31365e-07 -2.27783e-06 -1.99742e-08)
(-3.23944e-07 -2.49961e-06 -2.24183e-08)
(-4.12542e-07 -2.66378e-06 -2.5751e-08)
(-4.89694e-07 -2.7891e-06 -3.02008e-08)
(-5.48178e-07 -2.88684e-06 -3.58332e-08)
(-5.81318e-07 -2.96387e-06 -4.25359e-08)
(-5.83618e-07 -3.02453e-06 -5.00236e-08)
(-5.51578e-07 -3.07157e-06 -5.78074e-08)
(-4.8444e-07 -3.10687e-06 -6.52712e-08)
(-3.84985e-07 -3.13177e-06 -7.16417e-08)
(-2.59352e-07 -3.14719e-06 -7.63472e-08)
(-1.16732e-07 -3.15366e-06 -7.87712e-08)
(3.21649e-08 -3.15131e-06 -7.89238e-08)
(1.76815e-07 -3.14026e-06 -7.67808e-08)
(3.06381e-07 -3.12054e-06 -7.23284e-08)
(4.11438e-07 -3.09178e-06 -6.61484e-08)
(4.85502e-07 -3.0532e-06 -5.88089e-08)
(5.25432e-07 -3.00357e-06 -5.10819e-08)
(5.31614e-07 -2.94106e-06 -4.3591e-08)
(5.07215e-07 -2.86299e-06 -3.68401e-08)
(4.57426e-07 -2.76507e-06 -3.11211e-08)
(3.88633e-07 -2.64048e-06 -2.65541e-08)
(3.07754e-07 -2.47798e-06 -2.30722e-08)
(2.21893e-07 -2.2589e-06 -2.04316e-08)
(1.37821e-07 -1.95061e-06 -1.80238e-08)
(6.37902e-08 -1.49037e-06 -1.47527e-08)
(8.20145e-09 -7.33502e-07 -7.58272e-09)
(-9.08123e-09 -6.59913e-07 -9.16724e-09)
(-7.4089e-08 -1.34439e-06 -1.70969e-08)
(-1.62765e-07 -1.76188e-06 -2.04626e-08)
(-2.65042e-07 -2.04101e-06 -2.28882e-08)
(-3.70945e-07 -2.23756e-06 -2.5627e-08)
(-4.72225e-07 -2.38064e-06 -2.93548e-08)
(-5.60328e-07 -2.48707e-06 -3.43342e-08)
(-6.26986e-07 -2.56718e-06 -4.06357e-08)
(-6.64565e-07 -2.6275e-06 -4.81353e-08)
(-6.66775e-07 -2.67241e-06 -5.65289e-08)
(-6.29584e-07 -2.705e-06 -6.52866e-08)
(-5.52065e-07 -2.72768e-06 -7.37339e-08)
(-4.37231e-07 -2.74242e-06 -8.10132e-08)
(-2.91994e-07 -2.75069e-06 -8.64321e-08)
(-1.26837e-07 -2.75353e-06 -8.9275e-08)
(4.56767e-08 -2.75131e-06 -8.94076e-08)
(2.12802e-07 -2.74413e-06 -8.68147e-08)
(3.61852e-07 -2.73181e-06 -8.16211e-08)
(4.82116e-07 -2.7135e-06 -7.45128e-08)
(5.6636e-07 -2.68786e-06 -6.61822e-08)
(6.11205e-07 -2.65302e-06 -5.74859e-08)
(6.17214e-07 -2.60662e-06 -4.91001e-08)
(5.88087e-07 -2.54556e-06 -4.15645e-08)
(5.29811e-07 -2.46553e-06 -3.51963e-08)
(4.49722e-07 -2.35997e-06 -3.01161e-08)
(3.558e-07 -2.21859e-06 -2.62517e-08)
(2.56256e-07 -2.02455e-06 -2.33305e-08)
(1.5894e-07 -1.74877e-06 -2.06562e-08)
(7.34154e-08 -1.3355e-06 -1.69767e-08)
(9.38191e-09 -6.5631e-07 -8.78846e-09)
(-9.93709e-09 -5.73003e-07 -1.00246e-08)
(-8.08905e-08 -1.16991e-06 -1.86947e-08)
(-1.77549e-07 -1.53455e-06 -2.23483e-08)
(-2.88975e-07 -1.77736e-06 -2.49426e-08)
(-4.04301e-07 -1.94635e-06 -2.78353e-08)
(-5.14507e-07 -2.06672e-06 -3.17533e-08)
(-6.10224e-07 -2.15321e-06 -3.69727e-08)
(-6.82426e-07 -2.21503e-06 -4.35663e-08)
(-7.22822e-07 -2.25827e-06 -5.13987e-08)
(-7.24609e-07 -2.28723e-06 -6.01523e-08)
(-6.83485e-07 -2.30531e-06 -6.92859e-08)
(-5.9847e-07 -2.31536e-06 -7.80987e-08)
(-4.72788e-07 -2.3199e-06 -8.57212e-08)
(-3.1391e-07 -2.32101e-06 -9.14071e-08)
(-1.3317e-07 -2.32021e-06 -9.44211e-08)
(5.56315e-08 -2.31816e-06 -9.45319e-08)
(2.38243e-07 -2.31498e-06 -9.17293e-08)
(4.00758e-07 -2.31018e-06 -8.62348e-08)
(5.31611e-07 -2.3024e-06 -7.87641e-08)
(6.23046e-07 -2.28972e-06 -7.00585e-08)
(6.71488e-07 -2.26969e-06 -6.09851e-08)
(6.77578e-07 -2.2395e-06 -5.225e-08)
(6.45295e-07 -2.19576e-06 -4.4396e-08)
(5.81128e-07 -2.13415e-06 -3.77515e-08)
(4.93086e-07 -2.0486e-06 -3.24491e-08)
(3.89908e-07 -1.92986e-06 -2.84121e-08)
(2.80638e-07 -1.76317e-06 -2.53507e-08)
(1.7392e-07 -1.52334e-06 -2.25219e-08)
(8.02452e-08 -1.16235e-06 -1.857e-08)
(1.02189e-08 -5.69945e-07 -9.6573e-09)
(-1.04331e-08 -4.8011e-07 -1.05202e-08)
(-8.4742e-08 -9.83639e-07 -1.96198e-08)
(-1.859e-07 -1.29213e-06 -2.34296e-08)
(-3.02543e-07 -1.49664e-06 -2.60854e-08)
(-4.23294e-07 -1.63701e-06 -2.90009e-08)
(-5.38642e-07 -1.73432e-06 -3.29291e-08)
(-6.38685e-07 -1.8011e-06 -3.81442e-08)
(-7.13901e-07 -1.84542e-06 -4.4711e-08)
(-7.55613e-07 -1.8728e-06 -5.24918e-08)
(-7.56805e-07 -1.88739e-06 -6.11597e-08)
(-7.13082e-07 -1.89266e-06 -7.01778e-08)
(-6.23541e-07 -1.89177e-06 -7.88607e-08)
(-4.91604e-07 -1.88763e-06 -8.63756e-08)
(-3.25071e-07 -1.88269e-06 -9.19729e-08)
(-1.35708e-07 -1.87886e-06 -9.49535e-08)
(6.20703e-08 -1.87705e-06 -9.50455e-08)
(2.53185e-07 -1.87735e-06 -9.22428e-08)
(4.23126e-07 -1.87903e-06 -8.68048e-08)
(5.59927e-07 -1.88035e-06 -7.94201e-08)
(6.55521e-07 -1.87896e-06 -7.08343e-08)
(7.0617e-07 -1.87203e-06 -6.18745e-08)
(7.12456e-07 -1.85644e-06 -5.32303e-08)
(6.78459e-07 -1.82871e-06 -4.54414e-08)
(6.10897e-07 -1.78467e-06 -3.88364e-08)
(5.18174e-07 -1.7188e-06 -3.3553e-08)
(4.09524e-07 -1.62299e-06 -2.95208e-08)
(2.94542e-07 -1.48469e-06 -2.64496e-08)
(1.82392e-07 -1.28277e-06 -2.35772e-08)
(8.40868e-08 -9.77387e-07 -1.94897e-08)
(1.06895e-08 -4.77611e-07 -1.01666e-08)
(-1.054e-08 -3.84613e-07 -1.0624e-08)
(-8.54607e-08 -7.92323e-07 -1.9815e-08)
(-1.87513e-07 -1.04338e-06 -2.3631e-08)
(-3.0541e-07 -1.20899e-06 -2.6238e-08)
(-4.27681e-07 -1.32073e-06 -2.90584e-08)
(-5.44579e-07 -1.3956e-06 -3.28429e-08)
(-6.4592e-07 -1.44397e-06 -3.78609e-08)
(-7.21923e-07 -1.47267e-06 -4.41667e-08)
(-7.63768e-07 -1.48656e-06 -5.16129e-08)
(-7.64413e-07 -1.48949e-06 -5.98711e-08)
(-7.19555e-07 -1.48484e-06 -6.84299e-08)
(-6.28453e-07 -1.47578e-06 -7.66385e-08)
(-4.9467e-07 -1.46534e-06 -8.37262e-08)
(-3.26124e-07 -1.45617e-06 -8.89897e-08)
(-1.34645e-07 -1.45029e-06 -9.18001e-08)
(6.52685e-08 -1.44876e-06 -9.18759e-08)
(2.58371e-07 -1.45165e-06 -8.9213e-08)
(4.30082e-07 -1.45808e-06 -8.40832e-08)
(5.6839e-07 -1.46613e-06 -7.71074e-08)
(6.65138e-07 -1.47329e-06 -6.89848e-08)
(7.16482e-07 -1.47657e-06 -6.04824e-08)
(7.22862e-07 -1.47283e-06 -5.22523e-08)
(6.88288e-07 -1.45869e-06 -4.48061e-08)
(6.1952e-07 -1.43031e-06 -3.84729e-08)
(5.25108e-07 -1.38277e-06 -3.33989e-08)
(4.1455e-07 -1.30923e-06 -2.95254e-08)
(2.97745e-07 -1.19928e-06 -2.65652e-08)
(1.84108e-07 -1.03587e-06 -2.37585e-08)
(8.47806e-08 -7.874e-07 -1.96857e-08)
(1.07663e-08 -3.82701e-07 -1.02913e-08)
(-1.02087e-08 -2.90142e-07 -1.02862e-08)
(-8.27781e-08 -6.031e-07 -1.91788e-08)
(-1.82021e-07 -7.97384e-07 -2.28208e-08)
(-2.97261e-07 -9.24731e-07 -2.52459e-08)
(-4.17341e-07 -1.00877e-06 -2.78464e-08)
(-5.32494e-07 -1.06261e-06 -3.13522e-08)
(-6.3245e-07 -1.09452e-06 -3.60251e-08)
(-7.0737e-07 -1.11011e-06 -4.19037e-08)
(-7.4849e-07 -1.1135e-06 -4.88346e-08)
(-7.48908e-07 -1.10806e-06 -5.64956e-08)
(-7.04518e-07 -1.09686e-06 -6.44042e-08)
(-6.14771e-07 -1.08285e-06 -7.19566e-08)
(-4.833e-07 -1.0689e-06 -7.84599e-08)