/*--------------------------------*- C++ -*----------------------------------*\
| =========                 |                                                 |
| \\      /  F ield         | OpenFOAM: The Open Source CFD Toolbox           |
|  \\    /   O peration     | Version:  v1906                                 |
|   \\  /    A nd           | Web:      www.OpenFOAM.com                      |
|    \\/     M anipulation  |                                                 |
\*---------------------------------------------------------------------------*/
FoamFile
{
    version     2.0;
    format      ascii;
    class       volScalarField;
    location    "92";
    object      alphat;
}
// * * * * * * * * * * * * * * * * * * * * * * * * * * * * * * * * * * * * * //

dimensions      [1 -1 -1 0 0 0 0];


internalField   nonuniform List<scalar> 
78750
(
5.96316e-09
6.49325e-07
1.06357e-06
1.44614e-06
1.80392e-06
2.13049e-06
2.42102e-06
2.67424e-06
2.89113e-06
3.07355e-06
3.22349e-06
3.34283e-06
3.43333e-06
3.49657e-06
3.53413e-06
3.54766e-06
3.53752e-06
3.50455e-06
3.44977e-06
3.37413e-06
3.27837e-06
3.16496e-06
3.03046e-06
2.87651e-06
2.70368e-06
2.51234e-06
2.30272e-06
2.07499e-06
1.82815e-06
1.56092e-06
1.26982e-06
9.52321e-07
6.26002e-07
3.51066e-07
7.69604e-09
3.70907e-09
2.51659e-06
5.09441e-06
7.97266e-06
1.11903e-05
1.42255e-05
1.65622e-05
1.81328e-05
1.91843e-05
1.99632e-05
2.06296e-05
2.12787e-05
2.19662e-05
2.27306e-05
2.36239e-05
2.46161e-05
2.45532e-05
2.40929e-05
2.35294e-05
2.28735e-05
2.21349e-05
2.13222e-05
2.0433e-05
1.94744e-05
1.84481e-05
1.73532e-05
1.61886e-05
1.49594e-05
1.24746e-05
9.79717e-06
6.92453e-06
4.43708e-06
3.21694e-06
2.24447e-06
3.06547e-08
4.87164e-09
2.46526e-06
4.81936e-06
7.46799e-06
1.06245e-05
1.43055e-05
1.81915e-05
2.16891e-05
2.42946e-05
2.58708e-05
2.65711e-05
2.66445e-05
2.63213e-05
2.57761e-05
2.51272e-05
2.44463e-05
2.37541e-05
2.30354e-05
2.22829e-05
2.15069e-05
2.07241e-05
1.99552e-05
1.92287e-05
1.8555e-05
1.78955e-05
1.71588e-05
1.62018e-05
1.48449e-05
1.29102e-05
1.03247e-05
7.49293e-06
5.49678e-06
5.40414e-06
2.54947e-06
4.95482e-08
9.23227e-09
2.13955e-06
4.53989e-06
7.65851e-06
1.16995e-05
1.64622e-05
2.11655e-05
2.49544e-05
2.74708e-05
2.87736e-05
2.90728e-05
2.86179e-05
2.76599e-05
2.64184e-05
2.50575e-05
2.36796e-05
2.23376e-05
2.10516e-05
1.98251e-05
1.8662e-05
1.75795e-05
1.66115e-05
1.57948e-05
1.51586e-05
1.47036e-05
1.43598e-05
1.39496e-05
1.31823e-05
1.17569e-05
9.64252e-06
7.43642e-06
6.26433e-06
7.49508e-06
2.44857e-06
6.44178e-08
1.38533e-08
2.15909e-06
4.85008e-06
8.78551e-06
1.42967e-05
2.07707e-05
2.65847e-05
3.05809e-05
3.25881e-05
3.29389e-05
3.20119e-05
3.0299e-05
2.82365e-05
2.61417e-05
2.41913e-05
2.24476e-05
2.09043e-05
1.95232e-05
1.8259e-05
1.70755e-05
1.59596e-05
1.49357e-05
1.40553e-05
1.33614e-05
1.28699e-05
1.25388e-05
1.22153e-05
1.16168e-05
1.04629e-05
8.81071e-06
7.29475e-06
6.98885e-06
9.11511e-06
2.35557e-06
7.53562e-08
1.95251e-08
2.17867e-06
5.10449e-06
9.78093e-06
1.66701e-05
2.44047e-05
3.03493e-05
3.35389e-05
3.43658e-05
3.34391e-05
3.13859e-05
2.88124e-05
2.61996e-05
2.38196e-05
2.17705e-05
2.00516e-05
1.86104e-05
1.7378e-05
1.62882e-05
1.52896e-05
1.43566e-05
1.34937e-05
1.27283e-05
1.20889e-05
1.15866e-05
1.11918e-05
1.07926e-05
1.01867e-05
9.20626e-06
7.98311e-06
7.09685e-06
7.57968e-06
9.83362e-06
2.29492e-06
8.31929e-08
2.45852e-08
2.23442e-06
5.37653e-06
1.06695e-05
1.86393e-05
2.71431e-05
3.29433e-05
3.54568e-05
3.53659e-05
3.34443e-05
3.05088e-05
2.73093e-05
2.43409e-05
2.18173e-05
1.97666e-05
1.81256e-05
1.68051e-05
1.57179e-05
1.47881e-05
1.39579e-05
1.31978e-05
1.25068e-05
1.18838e-05
1.13205e-05
1.08103e-05
1.03271e-05
9.79657e-06
9.10886e-06
8.22275e-06
7.32678e-06
6.9385e-06
8.06848e-06
9.77514e-06
2.23837e-06
8.9438e-08
2.9541e-08
2.28458e-06
5.57343e-06
1.13064e-05
2.00729e-05
2.90375e-05
3.45259e-05
3.63391e-05
3.54248e-05
3.27354e-05
2.92348e-05
2.57153e-05
2.26236e-05
2.00943e-05
1.80907e-05
1.6519e-05
1.52818e-05
1.42943e-05
1.34885e-05
1.28173e-05
1.22564e-05
1.1784e-05
1.13474e-05
1.08898e-05
1.03762e-05
9.78875e-06
9.10821e-06
8.32145e-06
7.48557e-06
6.81485e-06
6.77764e-06
8.37138e-06
9.37959e-06
2.1907e-06
9.50974e-08
3.3756e-08
2.32551e-06
5.70979e-06
1.17257e-05
2.09846e-05
3.0148e-05
3.53488e-05
3.66759e-05
3.52223e-05
3.20576e-05
2.8241e-05
2.45724e-05
2.14416e-05
1.89215e-05
1.69408e-05
1.5394e-05
1.41839e-05
1.3233e-05
1.24845e-05
1.19084e-05
1.14981e-05
1.12181e-05
1.09703e-05
1.06459e-05
1.01667e-05
9.5074e-06
8.69803e-06
7.81568e-06
6.99392e-06
6.46029e-06
6.652e-06
8.55073e-06
8.89136e-06
2.14786e-06
1.00944e-07
3.79453e-08
2.36247e-06
5.81743e-06
1.20496e-05
2.16863e-05
3.09666e-05
3.58976e-05
3.68143e-05
3.49392e-05
3.14406e-05
2.74312e-05
2.36903e-05
2.0553e-05
1.80481e-05
1.60782e-05
1.45338e-05
1.33246e-05
1.23815e-05
1.16608e-05
1.11513e-05
1.08637e-05
1.07452e-05
1.06673e-05
1.04775e-05
1.0053e-05
9.3546e-06
8.44969e-06
7.48911e-06
6.66534e-06
6.21394e-06
6.5525e-06
8.64137e-06
8.41651e-06
2.10949e-06
1.07007e-07
4.18493e-08
2.39243e-06
5.89452e-06
1.22719e-05
2.21506e-05
3.14613e-05
3.61693e-05
3.67956e-05
3.46472e-05
3.09535e-05
2.68493e-05
2.30858e-05
1.99554e-05
1.74582e-05
1.54874e-05
1.39289e-05
1.26951e-05
1.17288e-05
1.09995e-05
1.05139e-05
1.03001e-05
1.02955e-05
1.03559e-05
1.02964e-05
9.95105e-06
9.25663e-06
8.30101e-06
7.28759e-06
6.4552e-06
6.05125e-06
6.48525e-06
8.69703e-06
7.99593e-06
2.0767e-06
1.13218e-07
4.58578e-08
2.42126e-06
5.96925e-06
1.24899e-05
2.25974e-05
3.19176e-05
3.6408e-05
3.67691e-05
3.43863e-05
3.05409e-05
2.63762e-05
2.26098e-05
1.94949e-05
1.70082e-05
1.50351e-05
1.34622e-05
1.22053e-05
1.12115e-05
1.04625e-05
9.98262e-06
9.8124e-06
9.88336e-06
1.00451e-05
1.00934e-05
9.82912e-06
9.16462e-06
8.19542e-06
7.15888e-06
6.3248e-06
5.95351e-06
6.45759e-06
8.75859e-06
7.62621e-06
2.04896e-06
1.19353e-07
4.98608e-08
2.44781e-06
6.035e-06
1.26752e-05
2.29592e-05
3.22556e-05
3.65527e-05
3.67056e-05
3.41585e-05
3.02249e-05
2.6041e-05
2.22895e-05
1.91926e-05
1.67118e-05
1.47288e-05
1.31324e-05
1.18427e-05
1.08127e-05
1.00306e-05
9.5344e-06
9.37632e-06
9.48589e-06
9.71307e-06
9.84532e-06
9.66115e-06
9.04948e-06
8.10127e-06
7.07022e-06
6.24658e-06
5.90441e-06
6.46743e-06
8.84264e-06
7.31635e-06
2.02763e-06
1.25332e-07
5.39406e-08
2.47394e-06
6.10371e-06
1.28739e-05
2.33425e-05
3.26063e-05
3.67072e-05
3.6658e-05
3.39603e-05
2.99557e-05
2.57676e-05
2.20412e-05
1.89684e-05
1.64976e-05
1.45078e-05
1.28901e-05
1.15688e-05
1.05023e-05
9.68569e-06
9.16631e-06
9.00448e-06
9.12994e-06
9.39509e-06
9.5853e-06
9.467e-06
8.91256e-06
8.00474e-06
7.00148e-06
6.2032e-06
5.89514e-06
6.51721e-06
8.96188e-06
7.05461e-06
2.01196e-06
1.31051e-07
5.80961e-08
2.49979e-06
6.171e-06
1.30636e-05
2.36933e-05
3.29072e-05
3.68268e-05
3.66106e-05
3.38053e-05
2.97672e-05
2.55967e-05
2.19027e-05
1.88534e-05
1.63882e-05
1.43861e-05
1.27413e-05
1.13823e-05
1.02722e-05
9.41176e-06
8.85569e-06
8.67227e-06
8.79136e-06
9.07098e-06
9.29982e-06
9.23921e-06
8.74873e-06
7.89888e-06
6.94255e-06
6.18302e-06
5.91581e-06
6.60048e-06
9.11199e-06
6.8417e-06
2.00213e-06
1.36532e-07
6.22727e-08
2.52539e-06
6.24094e-06
1.32644e-05
2.40619e-05
3.32212e-05
3.69604e-05
3.65824e-05
3.36781e-05
2.96158e-05
2.54711e-05
2.18164e-05
1.87963e-05
1.63419e-05
1.43319e-05
1.26631e-05
1.12676e-05
1.01131e-05
9.20592e-06
8.60643e-06
8.39103e-06
8.49096e-06
8.76785e-06
9.01596e-06
8.99819e-06
8.56751e-06
7.78263e-06
6.88591e-06
6.17727e-06
5.96027e-06
6.7153e-06
9.29285e-06
6.66947e-06
1.99753e-06
1.41761e-07
6.65334e-08
2.55133e-06
6.31181e-06
1.34646e-05
2.44183e-05
3.35134e-05
3.70843e-05
3.65701e-05
3.35959e-05
2.95318e-05
2.54239e-05
2.18107e-05
1.88181e-05
1.6372e-05
1.43514e-05
1.26554e-05
1.12193e-05
1.00152e-05
9.05429e-06
8.40042e-06
8.13939e-06
8.20627e-06
8.46717e-06
8.72292e-06
8.74083e-06
8.3702e-06
7.65712e-06
6.82974e-06
6.18117e-06
6.02189e-06
6.85397e-06
9.4947e-06
6.53287e-06
1.99736e-06
1.46782e-07
7.07812e-08
2.57711e-06
6.38472e-06
1.36729e-05
2.47866e-05
3.38157e-05
3.72222e-05
3.65773e-05
3.3539e-05
2.94779e-05
2.5411e-05
2.1844e-05
1.8885e-05
1.64537e-05
1.44286e-05
1.271e-05
1.12356e-05
9.98162e-06
8.96315e-06
8.24818e-06
7.93129e-06
7.95313e-06
8.18455e-06
8.43444e-06
8.47742e-06
8.16196e-06
7.52242e-06
6.7706e-06
6.18982e-06
6.09601e-06
7.01297e-06
9.7145e-06
6.42723e-06
2.00125e-06
1.51603e-07
7.50998e-08
2.60325e-06
6.45918e-06
1.38846e-05
2.51534e-05
3.41107e-05
3.73626e-05
3.66053e-05
3.35208e-05
2.94739e-05
2.54516e-05
2.19305e-05
1.90039e-05
1.65873e-05
1.45583e-05
1.28176e-05
1.1305e-05
9.99933e-06
8.91922e-06
8.13601e-06
7.75279e-06
7.71894e-06
7.91062e-06
8.14572e-06
8.20779e-06
7.94569e-06
7.3816e-06
6.70936e-06
6.20156e-06
6.17906e-06
7.18695e-06
9.94458e-06
6.34644e-06
2.00825e-06
1.56253e-07
7.93908e-08
2.62909e-06
6.53482e-06
1.41024e-05
2.55297e-05
3.44155e-05
3.75182e-05
3.66531e-05
3.35249e-05
2.94931e-05
2.55169e-05
2.20455e-05
1.91576e-05
1.67629e-05
1.47372e-05
1.29806e-05
1.14336e-05
1.00771e-05
8.93265e-06
8.0749e-06
7.61524e-06
7.51452e-06
7.65476e-06
7.86378e-06
7.93593e-06
7.72225e-06
7.23306e-06
6.64317e-06
6.21248e-06
6.26644e-06
7.37114e-06
1.01809e-05
6.28702e-06
2.01796e-06
1.60743e-07
8.37317e-08
2.65487e-06
6.61144e-06
1.43253e-05
2.59122e-05
3.47246e-05
3.76851e-05
3.67218e-05
3.3557e-05
2.95428e-05
2.56122e-05
2.21898e-05
1.93413e-05
1.69709e-05
1.49521e-05
1.31837e-05
1.16056e-05
1.01998e-05
8.99016e-06
8.05417e-06
7.51018e-06
7.33411e-06
7.41448e-06
7.58957e-06
7.66547e-06
7.49633e-06
7.0808e-06
6.57432e-06
6.22374e-06
6.3581e-06
7.56372e-06
1.04196e-05
6.24463e-06
2.02974e-06
1.65089e-07
8.80432e-08
2.68002e-06
6.68795e-06
1.4552e-05
2.63047e-05
3.50502e-05
3.78739e-05
3.68115e-05
3.36067e-05
2.96078e-05
2.57237e-05
2.23546e-05
1.95517e-05
1.72131e-05
1.5209e-05
1.34356e-05
1.18314e-05
1.03782e-05
9.10189e-06
8.08286e-06
7.44519e-06
7.18397e-06
7.19448e-06
7.32594e-06
7.39721e-06
7.26674e-06
6.92206e-06
6.49882e-06
6.2303e-06
6.44899e-06
7.76027e-06
1.06579e-05
6.21708e-06
2.04331e-06
1.69303e-07
9.23833e-08
2.70461e-06
6.76401e-06
1.47811e-05
2.67014e-05
3.53732e-05
3.80642e-05
3.69115e-05
3.36669e-05
2.96827e-05
2.58452e-05
2.25303e-05
1.97757e-05
1.74735e-05
1.54902e-05
1.37188e-05
1.20949e-05
1.05987e-05
9.25704e-06
8.15302e-06
7.4156e-06
7.0625e-06
6.99614e-06
7.07683e-06
7.1366e-06
7.03915e-06
6.76169e-06
6.42029e-06
6.23425e-06
6.53905e-06
7.95849e-06
1.0892e-05
6.19956e-06
2.05793e-06
1.73385e-07
9.66997e-08
2.72855e-06
6.83895e-06
1.5008e-05
2.70886e-05
3.56775e-05
3.82393e-05
3.70049e-05
3.37286e-05
2.9764e-05
2.59766e-05
2.27201e-05
2.00193e-05
1.77603e-05
1.58053e-05
1.40437e-05
1.24065e-05
1.08713e-05
9.46483e-06
8.27234e-06
7.4276e-06
6.97421e-06
6.82242e-06
6.84377e-06
6.88381e-06
6.8123e-06
6.59719e-06
6.33543e-06
6.23214e-06
6.62524e-06
8.15576e-06
1.11217e-05
6.19279e-06
2.07379e-06
1.77348e-07
1.01029e-07
2.75195e-06
6.91377e-06
1.52361e-05
2.74688e-05
3.59681e-05
3.8401e-05
3.70878e-05
3.37924e-05
2.98457e-05
2.61055e-05
2.29079e-05
2.02643e-05
1.80538e-05
1.61348e-05
1.43917e-05
1.27503e-05
1.11838e-05
9.7167e-06
8.43605e-06
7.48025e-06
6.92079e-06
6.67723e-06
6.63224e-06
6.64496e-06
6.59202e-06
6.43334e-06
6.24762e-06
6.22572e-06
6.70744e-06
8.35054e-06
1.13461e-05
6.19239e-06
2.09012e-06
1.81188e-07
1.05345e-07
2.77467e-06
6.9883e-06
1.54666e-05
2.78362e-05
3.624e-05
3.85453e-05
3.71553e-05
3.38435e-05
2.99211e-05
2.62352e-05
2.31023e-05
2.05211e-05
1.8365e-05
1.64888e-05
1.47719e-05
1.31343e-05
1.15429e-05
1.00189e-05
8.64976e-06
7.57849e-06
6.90615e-06
6.56334e-06
6.44391e-06
6.42065e-06
6.37773e-06
6.26852e-06
6.15456e-06
6.21259e-06
6.78398e-06
8.54273e-06
1.15684e-05
6.19957e-06
2.10698e-06
1.84919e-07
1.09651e-07
2.79617e-06
7.0602e-06
1.56934e-05
2.81927e-05
3.64944e-05
3.86714e-05
3.7206e-05
3.38806e-05
2.99865e-05
2.63556e-05
2.32878e-05
2.07713e-05
1.86747e-05
1.68486e-05
1.51674e-05
1.35437e-05
1.19375e-05
1.03641e-05
8.91034e-06
7.72364e-06
6.93416e-06
6.48634e-06
6.2854e-06
6.2177e-06
6.17566e-06
6.10767e-06
6.05957e-06
6.19434e-06
6.85437e-06
8.72985e-06
1.17853e-05
6.21502e-06
2.12454e-06
1.8854e-07
1.13955e-07
2.81717e-06
7.131e-06
1.59172e-05
2.85372e-05
3.67309e-05
3.878e-05
3.72406e-05
3.39046e-05
3.00491e-05
2.64746e-05
2.34732e-05
2.10252e-05
1.89931e-05
1.72234e-05
1.5585e-05
1.39837e-05
1.23709e-05
1.07553e-05
9.22109e-06
7.9197e-06
7.00822e-06
6.44901e-06
6.15903e-06
6.03792e-06
5.98689e-06
5.95105e-06
5.96224e-06
6.1704e-06
6.91962e-06
8.91708e-06
1.19994e-05
6.23818e-06
2.14293e-06
1.92066e-07
1.18237e-07
2.83714e-06
7.1997e-06
1.61375e-05
2.88705e-05
3.69484e-05
3.8867e-05
3.7252e-05
3.39041e-05
3.00874e-05
2.65716e-05
2.36407e-05
2.12662e-05
1.93045e-05
1.7598e-05
1.6011e-05
1.44421e-05
1.28335e-05
1.11856e-05
9.57856e-06
8.16738e-06
7.13146e-06
6.45625e-06
6.07081e-06
5.88779e-06
5.8176e-06
5.80378e-06
5.86629e-06
6.14324e-06
6.98074e-06
9.10215e-06
1.22093e-05
6.26608e-06
2.16178e-06
1.95491e-07
1.2253e-07
2.8568e-06
7.26784e-06
1.63562e-05
2.91937e-05
3.71494e-05
3.89369e-05
3.72473e-05
3.38897e-05
3.01146e-05
2.6661e-05
2.38038e-05
2.15059e-05
1.96181e-05
1.79794e-05
1.64498e-05
1.49208e-05
1.33253e-05
1.16539e-05
9.98168e-06
8.46594e-06
7.30371e-06
6.50862e-06
6.02205e-06
5.76912e-06
5.66975e-06
5.66762e-06
5.77301e-06
6.11351e-06
7.03722e-06
9.28288e-06
1.24155e-05
6.29911e-06
2.18115e-06
1.98824e-07
1.26798e-07
2.87568e-06
7.33449e-06
1.65716e-05
2.95048e-05
3.73299e-05
3.89823e-05
3.72152e-05
3.38465e-05
3.01136e-05
2.67252e-05
2.39457e-05
2.17288e-05
1.99201e-05
1.83554e-05
1.68906e-05
1.54105e-05
1.3838e-05
1.21532e-05
1.04247e-05
8.81098e-06
7.52343e-06
6.60701e-06
6.01561e-06
5.68627e-06
5.54851e-06
5.54763e-06
5.68657e-06
6.08403e-06
7.09059e-06
9.45982e-06
1.2617e-05
6.33515e-06
2.20074e-06
2.02059e-07
1.31097e-07
2.89464e-06
7.40177e-06
1.67873e-05
2.98074e-05
3.74944e-05
3.90096e-05
3.71648e-05
3.37865e-05
3.00983e-05
2.67782e-05
2.40789e-05
2.19454e-05
2.02184e-05
1.8731e-05
1.73358e-05
1.59109e-05
1.43694e-05
1.26799e-05
1.09032e-05
9.19791e-06
7.78705e-06
6.74901e-06
6.05026e-06
5.63926e-06
5.45494e-06
5.44555e-06
5.60898e-06
6.05684e-06
7.1424e-06
9.63319e-06
1.28149e-05
6.37448e-06
2.22053e-06
2.052e-07
1.35375e-07
2.91321e-06
7.46882e-06
1.69995e-05
3.00958e-05
3.76361e-05
3.901e-05
3.70846e-05
3.36958e-05
3.00534e-05
2.68052e-05
2.41897e-05
2.21431e-05
2.05019e-05
1.90971e-05
1.77776e-05
1.6415e-05
1.49127e-05
1.32274e-05
1.14109e-05
9.62084e-06
8.0908e-06
6.9328e-06
6.12603e-06
5.62986e-06
5.39233e-06
5.3655e-06
5.54417e-06
6.03461e-06
7.19394e-06
9.80456e-06
1.3009e-05
6.41542e-06
2.24027e-06
2.08235e-07
1.39669e-07
2.93197e-06
7.53848e-06
1.72111e-05
3.03754e-05
3.77614e-05
3.89904e-05
3.69838e-05
3.35868e-05
2.99932e-05
2.68211e-05
2.42901e-05
2.23309e-05
2.07771e-05
1.94574e-05
1.8217e-05
1.69217e-05
1.54648e-05
1.37911e-05
1.19424e-05
1.00743e-05
8.42977e-06
7.15432e-06
6.2399e-06
5.6563e-06
5.36026e-06
5.30826e-06
5.49392e-06
6.02063e-06
7.25091e-06
9.9755e-06
1.32005e-05
6.45804e-06
2.25992e-06
2.11163e-07
1.43902e-07
2.94896e-06
7.60364e-06
1.74171e-05
3.06425e-05
3.7865e-05
3.8945e-05
3.68546e-05
3.3445e-05
2.98983e-05
2.68069e-05
2.43653e-05
2.24978e-05
2.10354e-05
1.9805e-05
1.86486e-05
1.74258e-05
1.60205e-05
1.43651e-05
1.24912e-05
1.05517e-05
8.79871e-06
7.40967e-06
6.38942e-06
5.71773e-06
5.35959e-06
5.27632e-06
5.46191e-06
6.01891e-06
7.31625e-06
1.01509e-05
1.33907e-05
6.50145e-06
2.27933e-06
2.13966e-07
1.48174e-07
2.96614e-06
7.67062e-06
1.76277e-05
3.09052e-05
3.79555e-05
3.88836e-05
3.67092e-05
3.32908e-05
2.97936e-05
2.67808e-05
2.44252e-05
2.26497e-05
2.12812e-05
2.01421e-05
1.90721e-05
1.79254e-05
1.65763e-05
1.49451e-05
1.30524e-05
1.10479e-05
9.19233e-06
7.69387e-06
6.57022e-06
5.81073e-06
5.38817e-06
5.26889e-06
5.44844e-06
6.03018e-06
7.39041e-06
1.03317e-05
1.35804e-05
6.54585e-06
2.2985e-06
2.16642e-07
1.52393e-07
2.98219e-06
7.73505e-06
1.78331e-05
3.11514e-05
3.80223e-05
3.87955e-05
3.65346e-05
3.31055e-05
2.96581e-05
2.67278e-05
2.44641e-05
2.27824e-05
2.15087e-05
2.04645e-05
1.94845e-05
1.84174e-05
1.71288e-05
1.55268e-05
1.3621e-05
1.15577e-05
9.60611e-06
8.00309e-06
6.77931e-06
5.93337e-06
5.44538e-06
5.28671e-06
5.45542e-06
6.05714e-06
7.47677e-06
1.05218e-05
1.37709e-05
6.59071e-06
2.31736e-06
2.19176e-07
1.56612e-07
2.99801e-06
7.79962e-06
1.80393e-05
3.13904e-05
3.80752e-05
3.86914e-05
3.63441e-05
3.29059e-05
2.95094e-05
2.66615e-05
2.449e-05
2.29037e-05
2.17249e-05
2.0774e-05
1.9885e-05
1.88998e-05
1.76747e-05
1.61058e-05
1.41921e-05
1.2076e-05
1.00351e-05
8.3326e-06
7.01237e-06
6.08201e-06
5.52857e-06
5.32831e-06
5.48245e-06
6.10016e-06
7.57608e-06
1.07222e-05
1.39634e-05
6.6365e-06
2.33597e-06
2.21571e-07
1.60766e-07
3.01287e-06
7.86194e-06
1.824e-05
3.16128e-05
3.81056e-05
3.85622e-05
3.61267e-05
3.2679e-05
2.93344e-05
2.65711e-05
2.44948e-05
2.30068e-05
2.1926e-05
2.10706e-05
2.02725e-05
1.93709e-05
1.82121e-05
1.66798e-05
1.47625e-05
1.25992e-05
1.04755e-05
8.67902e-06
7.26636e-06
6.25417e-06
5.6361e-06
5.39314e-06
5.53009e-06
6.16073e-06
7.69062e-06
1.09355e-05
1.41582e-05
6.683e-06
2.35435e-06
2.23828e-07
1.64888e-07
3.02734e-06
7.92362e-06
1.84393e-05
3.18256e-05
3.81217e-05
3.84169e-05
3.5893e-05
3.24367e-05
2.91451e-05
2.6467e-05
2.44867e-05
2.30975e-05
2.21149e-05
2.13552e-05
2.06482e-05
1.98289e-05
1.87371e-05
1.7244e-05
1.53271e-05
1.31221e-05
1.09227e-05
9.038e-06
7.53727e-06
6.44617e-06
5.76483e-06
5.47885e-06
5.59687e-06
6.23811e-06
7.82004e-06
1.1161e-05
1.43547e-05
6.73044e-06
2.37252e-06
2.25961e-07
1.68925e-07
3.04087e-06
7.98294e-06
1.86329e-05
3.20225e-05
3.81167e-05
3.82479e-05
3.56338e-05
3.21693e-05
2.89322e-05
2.63413e-05
2.44598e-05
2.3172e-05
2.22896e-05
2.16272e-05
2.10126e-05
2.02763e-05
1.92511e-05
1.77982e-05
1.58844e-05
1.36425e-05
1.13739e-05
9.4067e-06
7.82235e-06
6.65548e-06
5.9126e-06
5.58384e-06
5.68189e-06
6.33213e-06
7.96477e-06
1.13993e-05
1.45523e-05
6.7786e-06
2.39048e-06
2.27975e-07
1.72902e-07
3.05392e-06
8.04115e-06
1.88238e-05
3.22089e-05
3.8097e-05
3.80622e-05
3.53577e-05
3.1886e-05
2.87045e-05
2.62018e-05
2.442e-05
2.32342e-05
2.24521e-05
2.18868e-05
2.1364e-05
2.07103e-05
1.97512e-05
1.83388e-05
1.64307e-05
1.41567e-05
1.18257e-05
9.78201e-06
8.11862e-06
6.87921e-06
6.07673e-06
5.70583e-06
5.78345e-06
6.44174e-06
8.12434e-06
1.16502e-05
1.47517e-05
6.82776e-06
2.4083e-06
2.2988e-07
1.76781e-07
3.06612e-06
8.09715e-06
1.90094e-05
3.23804e-05
3.80575e-05
3.78537e-05
3.50575e-05
3.15797e-05
2.84557e-05
2.60433e-05
2.43639e-05
2.32823e-05
2.26025e-05
2.21355e-05
2.17051e-05
2.11338e-05
2.02401e-05
1.88672e-05
1.69659e-05
1.46635e-05
1.22764e-05
1.01621e-05
8.42426e-06
7.11562e-06
6.25557e-06
5.84332e-06
5.90031e-06
6.56599e-06
8.29805e-06
1.19129e-05
1.49522e-05
6.8777e-06
2.42594e-06
2.31684e-07
1.80589e-07
3.07786e-06
8.15207e-06
1.91923e-05
3.2541e-05
3.80029e-05
3.7628e-05
3.47399e-05
3.12574e-05
2.81925e-05
2.58712e-05
2.42949e-05
2.3318e-05
2.27406e-05
2.23719e-05
2.20334e-05
2.15437e-05
2.07146e-05
1.9381e-05
1.74869e-05
1.51605e-05
1.27238e-05
1.05447e-05
8.73708e-06
7.36258e-06
6.44717e-06
5.99472e-06
6.03137e-06
6.70429e-06
8.48562e-06
1.21873e-05
1.51543e-05
6.92871e-06
2.44349e-06
2.33398e-07
1.8429e-07
3.08884e-06
8.2049e-06
1.93699e-05
3.26873e-05
3.79295e-05
3.73807e-05
3.44004e-05
3.09151e-05
2.79116e-05
2.56833e-05
2.42121e-05
2.33416e-05
2.28679e-05
2.25983e-05
2.23518e-05
2.19429e-05
2.11771e-05
1.98817e-05
1.79953e-05
1.56467e-05
1.31668e-05
1.09289e-05
9.05605e-06
7.61895e-06
6.65027e-06
6.15865e-06
6.17513e-06
6.85511e-06
8.68561e-06
1.24718e-05
1.53573e-05
6.98053e-06
2.46089e-06
2.35026e-07
1.87908e-07
3.0994e-06
8.25672e-06
1.95447e-05
3.28227e-05
3.78409e-05
3.7116e-05
3.4044e-05
3.05582e-05
2.76178e-05
2.54833e-05
2.41174e-05
2.33533e-05
2.29832e-05
2.28125e-05
2.26578e-05
2.2329e-05
2.16254e-05
2.03673e-05
1.84894e-05
1.61224e-05
1.36048e-05
1.13135e-05
9.3797e-06
7.8833e-06
6.86363e-06
6.33427e-06
6.3313e-06
7.01865e-06
8.89821e-06
1.27663e-05
1.55614e-05
7.03341e-06
2.47822e-06
2.3658e-07
1.91414e-07
3.10926e-06
8.30659e-06
1.97144e-05
3.2944e-05
3.77341e-05
3.68314e-05
3.36689e-05
3.01857e-05
2.73108e-05
2.52714e-05
2.40119e-05
2.33548e-05
2.30883e-05
2.30166e-05
2.29532e-05
2.27035e-05
2.20606e-05
2.08388e-05
1.89697e-05
1.65873e-05
1.40377e-05
1.1698e-05
9.70732e-06
8.1546e-06
7.086e-06
6.52003e-06
6.49797e-06
7.19264e-06
9.12161e-06
1.3069e-05
1.57663e-05
7.08731e-06
2.49548e-06
2.38069e-07
1.94828e-07
3.11868e-06
8.35528e-06
1.98808e-05
3.30537e-05
3.76121e-05
3.65303e-05
3.3279e-05
2.98017e-05
2.69943e-05
2.50504e-05
2.3897e-05
2.33459e-05
2.31824e-05
2.32088e-05
2.3236e-05
2.30646e-05
2.24813e-05
2.12948e-05
1.94353e-05
1.70411e-05
1.44653e-05
1.2082e-05
1.00383e-05
8.43214e-06
7.31655e-06
6.71528e-06
6.67515e-06
7.37831e-06
9.35561e-06
1.33794e-05
1.59717e-05
7.14215e-06
2.51268e-06
2.39499e-07
1.98124e-07
3.12747e-06
8.40215e-06
2.0042e-05
3.31493e-05
3.74726e-05
3.62112e-05
3.28742e-05
2.94069e-05
2.66699e-05
2.48224e-05
2.37749e-05
2.33291e-05
2.32673e-05
2.33907e-05
2.35073e-05
2.34127e-05
2.28875e-05
2.17355e-05
1.98863e-05
1.74837e-05
1.48878e-05
1.24659e-05
1.03728e-05
8.71562e-06
7.55471e-06
6.91932e-06
6.86216e-06
7.57486e-06
9.59948e-06
1.3696e-05
1.61775e-05
7.19805e-06
2.52983e-06
2.40876e-07
2.01317e-07
3.13575e-06
8.44759e-06
2.01992e-05
3.32328e-05
3.73183e-05
3.5877e-05
3.24576e-05
2.90045e-05
2.63401e-05
2.45892e-05
2.36467e-05
2.33046e-05
2.33428e-05
2.35614e-05
2.37658e-05
2.37464e-05
2.32779e-05
2.21594e-05
2.03216e-05
1.79144e-05
1.53045e-05
1.28492e-05
1.07108e-05
9.00534e-06
7.80079e-06
7.13226e-06
7.05877e-06
7.7815e-06
9.85294e-06
1.40185e-05
1.63837e-05
7.25495e-06
2.54697e-06
2.42204e-07
2.04387e-07
3.14338e-06
8.4911e-06
2.03509e-05
3.33023e-05
3.71474e-05
3.55271e-05
3.20295e-05
2.85957e-05
2.60069e-05
2.43532e-05
2.3515e-05
2.32749e-05
2.34108e-05
2.37224e-05
2.40122e-05
2.40659e-05
2.36521e-05
2.25662e-05
2.07407e-05
1.83326e-05
1.57145e-05
1.32311e-05
1.10512e-05
9.30023e-06
8.05402e-06
7.35366e-06
7.26463e-06
7.99781e-06
1.01156e-05
1.43464e-05
1.65906e-05
7.31306e-06
2.56413e-06
2.43492e-07
2.07341e-07
3.15043e-06
8.53282e-06
2.04976e-05
3.33594e-05
3.69619e-05
3.51632e-05
3.15919e-05
2.81823e-05
2.56718e-05
2.41159e-05
2.33811e-05
2.32408e-05
2.34719e-05
2.38736e-05
2.42463e-05
2.43706e-05
2.40094e-05
2.29553e-05
2.11432e-05
1.87382e-05
1.6118e-05
1.36117e-05
1.13944e-05
9.60097e-06
8.31478e-06
7.58361e-06
7.47965e-06
8.22363e-06
1.03874e-05
1.46796e-05
1.67988e-05
7.37265e-06
2.58138e-06
2.4475e-07
2.10165e-07
3.15676e-06
8.57234e-06
2.06382e-05
3.34026e-05
3.67606e-05
3.47844e-05
3.11445e-05
2.77649e-05
2.53363e-05
2.38794e-05
2.32472e-05
2.32048e-05
2.35282e-05
2.40169e-05
2.44691e-05
2.46608e-05
2.43497e-05
2.3326e-05
2.15284e-05
1.91304e-05
1.65141e-05
1.399e-05
1.17395e-05
9.9062e-06
8.58178e-06
7.82109e-06
7.70314e-06
8.45848e-06
1.06678e-05
1.50175e-05
1.70081e-05
7.43371e-06
2.59876e-06
2.45985e-07
2.12867e-07
3.16245e-06
8.60988e-06
2.07736e-05
3.34334e-05
3.65441e-05
3.43912e-05
3.0688e-05
2.7344e-05
2.50009e-05
2.3645e-05
2.31148e-05
2.31681e-05
2.35809e-05
2.41534e-05
2.46817e-05
2.49374e-05
2.46735e-05
2.36785e-05
2.18965e-05
1.95095e-05
1.69027e-05
1.43663e-05
1.20869e-05
1.02169e-05
8.85634e-06
8.06694e-06
7.93542e-06
8.70241e-06
1.09569e-05
1.53602e-05
1.72194e-05
7.49647e-06
2.61633e-06
2.47207e-07
2.15447e-07
3.16748e-06
8.64541e-06
2.09038e-05
3.34512e-05
3.63111e-05
3.39824e-05
3.02216e-05
2.69193e-05
2.46659e-05
2.34151e-05
2.29858e-05
2.31323e-05
2.36321e-05
2.42855e-05
2.48862e-05
2.52019e-05
2.49814e-05
2.40131e-05
2.22471e-05
1.98748e-05
1.72827e-05
1.47391e-05
1.24353e-05
1.05321e-05
9.1373e-06
8.32018e-06
8.17587e-06
8.95502e-06
1.12543e-05
1.57076e-05
1.74327e-05
7.56081e-06
2.63408e-06
2.4842e-07
2.1792e-07
3.17196e-06
8.67944e-06
2.10301e-05
3.34566e-05
3.60612e-05
3.35574e-05
2.97456e-05
2.64912e-05
2.43305e-05
2.31857e-05
2.28578e-05
2.30975e-05
2.36834e-05
2.44154e-05
2.50852e-05
2.54568e-05
2.52758e-05
2.43319e-05
2.25823e-05
2.02281e-05
1.76546e-05
1.51082e-05
1.27842e-05
1.08512e-05
9.42507e-06
8.58222e-06
8.42583e-06
9.21758e-06
1.15612e-05
1.60607e-05
1.76495e-05
7.62736e-06
2.65217e-06
2.4964e-07
2.20295e-07
3.17594e-06
8.71217e-06
2.11529e-05
3.34491e-05
3.5793e-05
3.31156e-05
2.92599e-05
2.60603e-05
2.39962e-05
2.29594e-05
2.27334e-05
2.30661e-05
2.37368e-05
2.45451e-05
2.52806e-05
2.57038e-05
2.55581e-05
2.46359e-05
2.29035e-05
2.05713e-05
1.80189e-05
1.54731e-05
1.31329e-05
1.11738e-05
9.7187e-06
8.85157e-06
8.68395e-06
9.48907e-06
1.18769e-05
1.64189e-05
1.78693e-05
7.69586e-06
2.67056e-06
2.50874e-07
2.22586e-07
3.17955e-06
8.74405e-06
2.12731e-05
3.3428e-05
3.55058e-05
3.2657e-05
2.87655e-05
2.56271e-05
2.36625e-05
2.27346e-05
2.26107e-05
2.30366e-05
2.3792e-05
2.46757e-05
2.54744e-05
2.59454e-05
2.58311e-05
2.49284e-05
2.32141e-05
2.09078e-05
1.83769e-05
1.58334e-05
1.34799e-05
1.14981e-05
1.00172e-05
9.12836e-06
8.95145e-06
9.77065e-06
1.22027e-05
1.67836e-05
1.80927e-05
7.76647e-06
2.68935e-06
2.52125e-07
2.2479e-07
3.18275e-06
8.77491e-06
2.13898e-05
3.33924e-05
3.51992e-05
3.21828e-05
2.82644e-05
2.51939e-05
2.33314e-05
2.25129e-05
2.24908e-05
2.30093e-05
2.38487e-05
2.48066e-05
2.56663e-05
2.61818e-05
2.60952e-05
2.52098e-05
2.3515e-05
2.12389e-05
1.87293e-05
1.61894e-05
1.38253e-05
1.18237e-05
1.03198e-05
9.41131e-06
9.22673e-06
1.00614e-05
1.25375e-05
1.71531e-05
1.83182e-05
7.83886e-06
2.70849e-06
2.53394e-07
2.26915e-07
3.18554e-06
8.80474e-06
2.15028e-05
3.33412e-05
3.48729e-05
3.1694e-05
2.77583e-05
2.47619e-05
2.30034e-05
2.2294e-05
2.23728e-05
2.29832e-05
2.39063e-05
2.49376e-05
2.58568e-05
2.64142e-05
2.6352e-05
2.54817e-05
2.38066e-05
2.15634e-05
1.90749e-05
1.65395e-05
1.41672e-05
1.21491e-05
1.06253e-05
9.69978e-06
9.50963e-06
1.03614e-05
1.2882e-05
1.7529e-05
1.85457e-05
7.9128e-06
2.7281e-06
2.54683e-07
2.28943e-07
3.18772e-06
8.8327e-06
2.16098e-05
3.32728e-05
3.45273e-05
3.11925e-05
2.72497e-05
2.43336e-05
2.2681e-05
2.20797e-05
2.22576e-05
2.2958e-05
2.39631e-05
2.50667e-05
2.6044e-05
2.66411e-05
2.6601e-05
2.5744e-05
2.40888e-05
2.18802e-05
1.9413e-05
1.68835e-05
1.45053e-05
1.24734e-05
1.09324e-05
9.99245e-06
9.799e-06
1.067e-05
1.32359e-05
1.79098e-05
1.87748e-05
7.98816e-06
2.74815e-06
2.55993e-07
2.30875e-07
3.18919e-06
8.85848e-06
2.17103e-05
3.31872e-05
3.41619e-05
3.06779e-05
2.67386e-05
2.39095e-05
2.23649e-05
2.18715e-05
2.21468e-05
2.29351e-05
2.40204e-05
2.51945e-05
2.62282e-05
2.68631e-05
2.68428e-05
2.59973e-05
2.43614e-05
2.21878e-05
1.97423e-05
1.722e-05
1.48383e-05
1.27955e-05
1.12405e-05
1.02891e-05
1.00952e-05
1.09882e-05
1.36014e-05
1.82987e-05
1.90062e-05
8.06506e-06
2.76867e-06
2.57331e-07
2.32697e-07
3.18974e-06
8.88115e-06
2.18021e-05
3.30829e-05
3.3776e-05
3.01502e-05
2.62253e-05
2.34902e-05
2.20563e-05
2.1671e-05
2.20422e-05
2.29159e-05
2.40784e-05
2.53204e-05
2.64082e-05
2.7079e-05
2.70771e-05
2.62425e-05
2.46263e-05
2.24877e-05
2.00637e-05
1.75496e-05
1.51662e-05
1.3115e-05
1.15486e-05
1.05883e-05
1.03965e-05
1.13143e-05
1.39761e-05
1.86939e-05
1.92389e-05
8.14337e-06
2.78962e-06
2.58703e-07
2.34423e-07
3.18936e-06
8.90089e-06
2.18864e-05
3.29605e-05
3.33676e-05
2.96066e-05
2.57073e-05
2.30743e-05
2.17556e-05
2.14802e-05
2.19472e-05
2.29047e-05
2.41416e-05
2.54479e-05
2.65864e-05
2.72902e-05
2.73046e-05
2.64803e-05
2.48841e-05
2.27798e-05
2.0377e-05
1.78718e-05
1.54886e-05
1.34316e-05
1.18565e-05
1.08903e-05
1.07037e-05
1.16491e-05
1.43614e-05
1.90963e-05
1.94729e-05
8.22295e-06
2.81103e-06
2.60112e-07
2.3607e-07
3.18807e-06
8.91768e-06
2.19632e-05
3.28187e-05
3.29344e-05
2.90446e-05
2.51823e-05
2.26601e-05
2.14618e-05
2.12995e-05
2.18638e-05
2.29047e-05
2.42136e-05
2.55808e-05
2.6766e-05
2.74993e-05
2.7528e-05
2.67138e-05
2.51388e-05
2.30671e-05
2.06843e-05
1.8188e-05
1.58061e-05
1.37451e-05
1.21637e-05
1.1194e-05
1.10153e-05
1.19914e-05
1.47557e-05
1.95039e-05
1.97068e-05
8.30324e-06
2.83278e-06
2.61542e-07
2.37664e-07
3.18604e-06
8.93242e-06
2.20351e-05
3.26573e-05
3.24729e-05
2.84604e-05
2.46474e-05
2.22452e-05
2.11743e-05
2.113e-05
2.17948e-05
2.29202e-05
2.43002e-05
2.57251e-05
2.69522e-05
2.77103e-05
2.77504e-05
2.69459e-05
2.53938e-05
2.33516e-05
2.09867e-05
1.84991e-05
1.61195e-05
1.40562e-05
1.24709e-05
1.15004e-05
1.13326e-05
1.23426e-05
1.51607e-05
1.99182e-05
1.99409e-05
8.38431e-06
2.85491e-06
2.62993e-07
2.39236e-07
3.18344e-06
8.94561e-06
2.21027e-05
3.24749e-05
3.19805e-05
2.78519e-05
2.41e-05
2.18273e-05
2.08912e-05
2.09701e-05
2.17396e-05
2.29527e-05
2.4405e-05
2.58858e-05
2.7151e-05
2.79289e-05
2.79764e-05
2.71812e-05
2.56533e-05
2.36362e-05
2.12861e-05
1.88062e-05
1.64295e-05
1.43654e-05
1.27778e-05
1.18086e-05
1.16542e-05
1.2701e-05
1.55743e-05
2.03371e-05
2.01741e-05
8.4658e-06
2.87732e-06
2.6446e-07
2.40798e-07
3.1804e-06
8.95779e-06
2.2167e-05
3.22696e-05
3.14551e-05
2.72183e-05
2.35395e-05
2.14049e-05
2.06133e-05
2.0819e-05
2.16969e-05
2.30022e-05
2.45298e-05
2.60667e-05
2.73665e-05
2.81591e-05
2.82094e-05
2.74211e-05
2.59173e-05
2.39206e-05
2.15824e-05
1.91096e-05
1.67367e-05
1.46734e-05
1.30857e-05
1.21203e-05
1.19821e-05
1.30686e-05
1.59985e-05
2.07619e-05
2.04072e-05
8.54792e-06
2.9001e-06
2.65947e-07
2.42359e-07
3.17699e-06
8.96906e-06
2.22276e-05
3.20402e-05
3.08965e-05
2.6561e-05
2.29669e-05
2.09762e-05
2.03326e-05
2.06698e-05
2.16624e-05
2.30663e-05
2.46742e-05
2.62692e-05
2.76022e-05
2.8405e-05
2.84531e-05
2.76683e-05
2.61861e-05
2.42053e-05
2.18761e-05
1.94095e-05
1.7041e-05
1.49801e-05
1.33941e-05
1.24347e-05
1.23157e-05
1.34442e-05
1.64316e-05
2.11907e-05
2.0639e-05
8.63033e-06
2.92313e-06
2.67445e-07
2.43912e-07
3.17315e-06
8.97908e-06
2.22833e-05
3.17851e-05
3.03049e-05
2.58822e-05
2.23846e-05
2.05436e-05
2.00511e-05
2.05229e-05
2.16345e-05
2.31426e-05
2.4836e-05
2.64922e-05
2.78584e-05
2.86683e-05
2.87097e-05
2.79241e-05
2.64595e-05
2.44898e-05
2.2167e-05
1.9706e-05
1.73427e-05
1.52859e-05
1.37041e-05
1.27539e-05
1.26581e-05
1.38298e-05
1.68754e-05
2.16248e-05
2.08701e-05
8.7132e-06
2.94649e-06