/*--------------------------------*- C++ -*----------------------------------*\
| =========                 |                                                 |
| \\      /  F ield         | OpenFOAM: The Open Source CFD Toolbox           |
|  \\    /   O peration     | Version:  v1906                                 |
|   \\  /    A nd           | Web:      www.OpenFOAM.com                      |
|    \\/     M anipulation  |                                                 |
\*---------------------------------------------------------------------------*/
FoamFile
{
    version     2.0;
    format      ascii;
    class       volScalarField;
    location    "92";
    object      k;
}
// * * * * * * * * * * * * * * * * * * * * * * * * * * * * * * * * * * * * * //

dimensions      [0 2 -2 0 0 0 0];


internalField   nonuniform List<scalar> 
78750
(
1.74136e-06
7.31211e-06
1.20164e-05
1.63875e-05
2.0498e-05
2.42689e-05
2.76392e-05
3.05886e-05
3.31239e-05
3.52628e-05
3.70257e-05
3.84323e-05
3.9501e-05
4.02497e-05
4.06956e-05
4.0858e-05
4.07407e-05
4.03538e-05
3.97097e-05
3.88201e-05
3.76944e-05
3.63628e-05
3.47856e-05
3.29837e-05
3.09653e-05
2.87361e-05
2.63008e-05
2.36632e-05
2.08139e-05
1.77412e-05
1.44094e-05
1.07951e-05
7.09954e-06
3.99468e-06
2.29868e-06
1.58937e-06
1.63897e-05
3.05264e-05
4.38486e-05
5.58682e-05
6.62878e-05
7.50916e-05
8.23861e-05
8.82887e-05
9.29061e-05
9.63415e-05
9.86957e-05
0.000100067
0.000100548
0.000100234
9.92279e-05
9.76322e-05
9.55125e-05
9.29299e-05
8.99436e-05
8.66078e-05
8.29702e-05
7.90313e-05
7.48327e-05
7.03932e-05
6.57208e-05
6.08229e-05
5.57341e-05
5.04143e-05
4.4698e-05
3.833e-05
3.10263e-05
2.32264e-05
1.6719e-05
1.34604e-05
2.08762e-06
2.05316e-05
3.79714e-05
5.41615e-05
6.85371e-05
8.06937e-05
9.05531e-05
9.83084e-05
0.000104264
0.000108704
0.000111848
0.000113855
0.000114845
0.000114921
0.000114179
0.000112711
0.000110618
0.000108001
0.000104961
0.000101596
9.79984e-05
9.4246e-05
9.03886e-05
8.64423e-05
8.23833e-05
7.81554e-05
7.36835e-05
6.88796e-05
6.36182e-05
5.76674e-05
5.06584e-05
4.23739e-05
3.36983e-05
2.6275e-05
2.17943e-05
3.95652e-06
2.8027e-05
5.04538e-05
7.04553e-05
8.72086e-05
0.000100453
0.000110516
0.000117976
0.00012336
0.000127046
0.000129288
0.00013026
0.000130089
0.000128885
0.000126754
0.000123818
0.000120209
0.000116073
0.00011157
0.000106864
0.00010213
9.75389e-05
9.32302e-05
8.92651e-05
8.5601e-05
8.21012e-05
7.85658e-05
7.47589e-05
7.04017e-05
6.5125e-05
5.84817e-05
5.03398e-05
4.18449e-05
3.41198e-05
2.83766e-05
5.93734e-06
3.50815e-05
6.17391e-05
8.45984e-05
0.000102641
0.00011597
0.0001255
0.000132208
0.000136778
0.00013962
0.000140966
0.000140951
0.000139665
0.000137196
0.000133659
0.000129202
0.000124007
0.000118281
0.000112247
0.000106144
0.000100234
9.47895e-05
9.00466e-05
8.6115e-05
8.29476e-05
8.03611e-05
7.80627e-05
7.56786e-05
7.27669e-05
6.88022e-05
6.32413e-05
5.5974e-05
4.81519e-05
4.03546e-05
3.32402e-05
8.36883e-06
4.21357e-05
7.24583e-05
9.75675e-05
0.000116442
0.000129749
0.000138982
0.000145354
0.000149557
0.000151941
0.000152673
0.000151835
0.00014949
0.000145731
0.000140706
0.000134618
0.000127716
0.000120278
0.0001126
0.000104997
9.78167e-05
9.14257e-05
8.61093e-05
8.19686e-05
7.89504e-05
7.68793e-05
7.54553e-05
7.42538e-05
7.27284e-05
7.02155e-05
6.60385e-05
5.99853e-05
5.2961e-05
4.51241e-05
3.67423e-05
1.05384e-05
4.79657e-05
8.1162e-05
0.000108022
0.000127575
0.000140975
0.000150106
0.000156293
0.000160212
0.000162173
0.0001623
0.000160639
0.00015724
0.000152218
0.000145773
0.000138173
0.000129739
0.000120818
0.000111772
0.000102989
9.49004e-05
8.79308e-05
8.23111e-05
7.8065e-05
7.5124e-05
7.33451e-05
7.24768e-05
7.21212e-05
7.17063e-05
7.04807e-05
6.76362e-05
6.28001e-05
5.65311e-05
4.87165e-05
3.95475e-05
1.26634e-05
5.3537e-05
8.94323e-05
0.00011795
0.000138196
0.000151772
0.00016089
0.000166963
0.000170652
0.00017223
0.00017178
0.000169321
0.000164909
0.000158696
0.000150937
0.000141967
0.000132169
0.00012195
0.000111739
0.000102006
9.32681e-05
8.59427e-05
8.0114e-05
7.57181e-05
7.26749e-05
7.08858e-05
7.01814e-05
7.0248e-05
7.05544e-05
7.03112e-05
6.85862e-05
6.48094e-05
5.92098e-05
5.15225e-05
4.20975e-05
1.4471e-05
5.8201e-05
9.63723e-05
0.000126366
0.000147343
0.000161235
0.000170482
0.000176553
0.0001801
0.000181369
0.000180417
0.000177249
0.000171935
0.000164666
0.000155751
0.000145584
0.00013461
0.000123296
0.000112139
0.000101698
9.25824e-05
8.51213e-05
7.92301e-05
7.47634e-05
7.16149e-05
6.97089e-05
6.89475e-05
6.91192e-05
6.9781e-05
7.01664e-05
6.92662e-05
6.63325e-05
6.13279e-05
5.39199e-05
4.47331e-05
1.62677e-05
6.28521e-05
0.000103286
0.000134726
0.000156401
0.000170576
0.000179915
0.00018595
0.000189327
0.00019027
0.00018881
0.000184945
0.00017876
0.000170483
0.000160477
0.000149196
0.000137142
0.000124848
0.000112881
0.000101902
9.26026e-05
8.51428e-05
7.92949e-05
7.48398e-05
7.1636e-05
6.96089e-05
6.87052e-05
6.88008e-05
6.95561e-05
7.02709e-05
6.99158e-05
6.76156e-05
6.31362e-05
5.61228e-05
4.74665e-05
1.79422e-05
6.71092e-05
0.000109601
0.000142392
0.000164777
0.000179291
0.000188782
0.00019483
0.000198081
0.000198739
0.000196816
0.000192306
0.000185313
0.000176101
0.000165081
0.000152759
0.000139702
0.000126506
0.000113813
0.000102391
9.30026e-05
8.56255e-05
7.99119e-05
7.55669e-05
7.2402e-05
7.03235e-05
6.92936e-05
6.92466e-05
6.99364e-05
7.07567e-05
7.07128e-05
6.88646e-05
6.48411e-05
5.82792e-05
5.0267e-05
1.96618e-05
7.13828e-05
0.00011588
0.000149943
0.000172958
0.000187757
0.000197363
0.000203403
0.000206515
0.000206886
0.000204509
0.000199374
0.000191602
0.000181492
0.000169498
0.000156182
0.000142163
0.000128103
0.000114729
0.00010292
9.34889e-05
8.62421e-05
8.07288e-05
7.65805e-05
7.35558e-05
7.15281e-05
7.04522e-05
7.02888e-05
7.08589e-05
7.16505e-05
7.17429e-05
7.01933e-05
6.65454e-05
6.04247e-05
5.30352e-05
2.1379e-05
7.553e-05
0.000121927
0.000157203
0.00018084
0.000195941
0.000205686
0.000211739
0.000214735
0.000214841
0.000212038
0.000206315
0.00019781
0.000186852
0.000173937
0.000159672
0.000144734
0.000129843
0.000115796
0.000103587
9.40848e-05
8.69561e-05
8.16572e-05
7.77489e-05
7.49329e-05
7.30414e-05
7.2006e-05
7.1789e-05
7.22492e-05
7.29527e-05
7.30707e-05
7.17018e-05
6.83455e-05
6.26067e-05
5.57349e-05
2.31293e-05
7.96167e-05
0.000127819
0.000164216
0.000188407
0.000203773
0.000213644
0.000219713
0.000222604
0.000222466
0.000219265
0.000212991
0.000203798
0.000192043
0.000178257
0.000163089
0.000147264
0.000131563
0.000116855
0.000104239
9.46426e-05
8.76235e-05
8.25516e-05
7.89195e-05
7.6371e-05
7.46933e-05
7.37862e-05
7.35961e-05
7.39949e-05
7.46041e-05
7.46859e-05
7.34094e-05
7.02606e-05
6.48148e-05
5.83198e-05
2.49123e-05
8.36743e-05
0.000133628
0.00017111
0.000195846
0.000211484
0.000221494
0.000227592
0.000230394
0.000230032
0.000226461
0.000219675
0.000209842
0.000197345
0.000182742
0.000166718
0.000150038
0.000133535
0.000118142
0.000105054
9.52855e-05
8.83109e-05
8.34336e-05
8.00769e-05
7.78243e-05
7.64145e-05
7.57083e-05
7.56239e-05
7.60253e-05
7.6566e-05
7.65861e-05
7.53391e-05
7.23191e-05
6.70662e-05
6.07996e-05
2.67045e-05
8.76263e-05
0.000139228
0.000177714
0.000202948
0.000218845
0.000228995
0.000235137
0.00023787
0.000237313
0.000233409
0.000226157
0.000215741
0.000202562
0.000187203
0.000170377
0.000152882
0.000135594
0.000119514
0.000105914
9.592e-05
8.89524e-05
8.42465e-05
8.11624e-05
7.92262e-05
7.81267e-05
7.76828e-05
7.77775e-05
7.82526e-05
7.87721e-05
7.87351e-05
7.74796e-05
7.45193e-05
6.93556e-05
6.31681e-05
2.85329e-05
9.15796e-05
0.000144799
0.00018427
0.000209997
0.000226157
0.000236458
0.000242652
0.000245329
0.000244593
0.000240383
0.000232704
0.000221753
0.00020795
0.000191894
0.000174314
0.000156032
0.000137963
0.000121163
0.000106968
9.6645e-05
8.96021e-05
8.50165e-05
8.21838e-05
8.05687e-05
7.98086e-05
7.96762e-05
8.00123e-05
8.06256e-05
8.1173e-05
8.10944e-05
7.9805e-05
7.68462e-05
7.16796e-05
6.54443e-05
3.03558e-05
9.54208e-05
0.000150168
0.000190563
0.000216758
0.000233179
0.000243641
0.000249903
0.000252544
0.000251655
0.000247173
0.000239111
0.000227682
0.000213319
0.000196633
0.000178363
0.000159343
0.000140521
0.000122993
0.000108158
9.74265e-05
9.02365e-05
8.57192e-05
8.31115e-05
8.18177e-05
8.14194e-05
8.16403e-05
8.22758e-05
8.30926e-05
8.37253e-05
8.3635e-05
8.23019e-05
7.92977e-05
7.40404e-05
6.76328e-05
3.22094e-05
9.92656e-05
0.00015552
0.00019683
0.000223494
0.000240186
0.000250817
0.000257152
0.00025976
0.000258727
0.000253992
0.000245579
0.000233718
0.00021885
0.000201592
0.000182684
0.00016297
0.000143412
0.000125134
0.000109589
9.83374e-05
9.09008e-05
8.63784e-05
8.39538e-05
8.29701e-05
8.29488e-05
8.3559e-05
8.45421e-05
8.56175e-05
8.63866e-05
8.63148e-05
8.49348e-05
8.18464e-05
7.64253e-05
6.97456e-05
3.40513e-05
0.000103002
0.000160692
0.000202882
0.000230017
0.000246994
0.000257805
0.000264221
0.000266805
0.000265642
0.000260679
0.000251955
0.000239714
0.000224406
0.000206649
0.000187174
0.000166828
0.000146575
0.000127555
0.000111258
9.93906e-05
9.16105e-05
8.70021e-05
8.47071e-05
8.40106e-05
8.43719e-05
8.53996e-05
8.6777e-05
8.81641e-05
8.91199e-05
8.91018e-05
8.76813e-05
8.44814e-05
7.88321e-05
7.17876e-05
3.59147e-05
0.000106723
0.000165826
0.0002089
0.000236528
0.000253818
0.000264818
0.000271301
0.000273843
0.000272544
0.000267364
0.000258357
0.000245778
0.000230082
0.000211882
0.000191902
0.000170975
0.00015006
0.0001303
0.000113213
0.000100627
9.23971e-05
8.76131e-05
8.53856e-05
8.49463e-05
8.56902e-05
8.71591e-05
8.897e-05
9.07189e-05
9.19081e-05
9.19732e-05
9.05173e-05
8.71827e-05
8.12509e-05
7.37662e-05
3.77656e-05
0.000110338
0.000170791
0.000214736
0.000242899
0.00026057
0.000271772
0.000278283
0.000280761
0.000279325
0.000273947
0.000264696
0.000251834
0.000235817
0.000217247
0.000196834
0.000175394
0.000153867
0.000133388
0.000115487
0.000102085
9.32984e-05
8.82384e-05
8.60009e-05
8.57729e-05
8.68857e-05
8.88094e-05
9.10869e-05
9.32415e-05
9.47124e-05
9.49e-05
9.34228e-05
8.99394e-05
8.36794e-05
7.56867e-05
3.9629e-05
0.000113907
0.000175671
0.000220478
0.000249221
0.000267271
0.000278684
0.00028524
0.000287613
0.000286034
0.000280475
0.000271012
0.000257911
0.000241626
0.000222746
0.000201965
0.000180071
0.00015798
0.000136805
0.000118077
0.000103776
9.43347e-05
8.89011e-05
8.65744e-05
8.6508e-05
8.79718e-05
9.03598e-05
9.31324e-05
9.57297e-05
9.75171e-05
9.78522e-05
9.63646e-05
9.27214e-05
8.61006e-05
7.75492e-05
4.14824e-05
0.000117382
0.00018039
0.00022602
0.000255337
0.000273721
0.000285354
0.000292014
0.00029432
0.000292627
0.00028692
0.000277286
0.000263997
0.000247505
0.000228385
0.00020731
0.000185036
0.000162441
0.000140606
0.000121044
0.000105769
9.55673e-05
8.96478e-05
8.71332e-05
8.71581e-05
8.89373e-05
9.17861e-05
9.50755e-05
9.81541e-05
0.000100304
0.000100825
9.93432e-05
9.55398e-05
8.85244e-05
7.93591e-05
4.33415e-05
0.000120803
0.000185015
0.000231445
0.000261294
0.000280003
0.000291864
0.000298656
0.000300975
0.000299132
0.000293275
0.000283492
0.000270054
0.000253405
0.000234106
0.000212802
0.000190217
0.000167184
0.000144739
0.000124362
0.00010807
9.70233e-05
9.05171e-05
8.77173e-05
8.77586e-05
8.98103e-05
9.31084e-05
9.69267e-05
0.000100511
0.000103049
0.00010378
0.000102343
9.83594e-05
9.09271e-05
8.11147e-05
4.51952e-05
0.00012414
0.000189514
0.000236766
0.000267061
0.000286063
0.000298147
0.000305079
0.000307429
0.000305483
0.000299528
0.000289647
0.000276113
0.000259364
0.000239948
0.000218487
0.000195664
0.000172267
0.000149271
0.000128104
0.000110764
9.87844e-05
9.15787e-05
8.83769e-05
8.83369e-05
9.05968e-05
9.4317e-05
9.86688e-05
0.000102786
0.000105754
0.000106742
0.000105392
0.000101187
9.33112e-05
8.2822e-05
4.70442e-05
0.000127383
0.000193848
0.000241887
0.000272604
0.000291906
0.000304228
0.000311323
0.000313737
0.00031172
0.000305678
0.000295712
0.000282107
0.000265297
0.000245817
0.000224262
0.000201275
0.000177592
0.000154122
0.000132227
0.000113859
0.000100893
9.28948e-05
8.91792e-05
8.89533e-05
9.13438e-05
9.5443e-05
0.000100316
0.000104975
0.00010839
0.000109661
0.000108448
0.000104068
9.56872e-05
8.44812e-05
4.88929e-05
0.000130561
0.00019806
0.000246843
0.00027796
0.00029755
0.000310108
0.000317378
0.000319889
0.000317875
0.000311737
0.00030171
0.000288074
0.000271256
0.000251771
0.000230186
0.000207109
0.000183219
0.000159357
0.000136805
0.000117448
0.000103442
9.45537e-05
9.02016e-05
8.96667e-05
9.20885e-05
9.65045e-05
0.000101875
0.000107085
0.000110987
0.000112628
0.000111536
0.000106983
9.80613e-05
8.60983e-05
5.07323e-05
0.000133641
0.000202106
0.000251588
0.000283084
0.000302956
0.000315752
0.0003232
0.000325814
0.000323817
0.000317609
0.000307554
0.000293928
0.000277144
0.000257702
0.000236146
0.000213046
0.000189033
0.000164873
0.000141767
0.000121516
0.000106459
9.66175e-05
9.15242e-05
9.05579e-05
9.28991e-05
9.75501e-05
0.000103374
0.000109126
0.000113539
0.000115593
0.000114632
0.000109907
0.000100423
8.76708e-05
5.25766e-05
0.000136672
0.000206052
0.000256192
0.000288043
0.000308187
0.000321219
0.000328852
0.000331584
0.000329628
0.000323376
0.000313323
0.000299739
0.000283028
0.000263675
0.000242199
0.000219139
0.000195075
0.000170705
0.000147143
0.000126098
0.000109993
9.91512e-05
9.32226e-05
9.17016e-05
9.38385e-05
9.86267e-05
0.000104845
0.000111122
0.000116061
0.000118553
0.000117735
0.000112839
0.000102773
8.92031e-05
5.44105e-05
0.00013961
0.000209838
0.000260585
0.000292761
0.000313164
0.000326426
0.000334246
0.000337103
0.000335201
0.000328929
0.000318906
0.000305396
0.000288793
0.000269569
0.000248223
0.000225262
0.000201222
0.000176734
0.000152823
0.000131103
0.000114004
0.000102165
9.53474e-05
9.31712e-05
9.49842e-05
9.98002e-05
0.000106334
0.000113092
0.000118547
0.000121487
0.000120824
0.000115762
0.000105102
9.06921e-05
5.62574e-05
0.000142521
0.000213558
0.000264863
0.000297333
0.000317978
0.000331466
0.000339473
0.000342464
0.000340632
0.000334362
0.000324391
0.000310977
0.00029451
0.000275449
0.000254272
0.000231459
0.000207502
0.000182971
0.000158806
0.000136517
0.000118489
0.000105676
9.79368e-05
9.5022e-05
9.63972e-05
0.000101127
0.000107889
0.000115081
0.000121034
0.000124417
0.000123906
0.000118673
0.000107409
9.21399e-05
5.80955e-05
0.000145351
0.000217147
0.000268932
0.000301655
0.000322524
0.000336229
0.000344423
0.000347553
0.000345806
0.000339563
0.000329662
0.000316365
0.00030006
0.000281193
0.000260226
0.000237609
0.000213796
0.000189298
0.000164976
0.000142233
0.00012338
0.000109658
0.000101006
9.73025e-05
9.81455e-05
0.000102678
0.000109563
0.000117107
0.000123508
0.000127322
0.000126965
0.000121562
0.000109684
9.35409e-05
5.99411e-05
0.000148156
0.000220729
0.000272893
0.000305832
0.000326907
0.00034082
0.000349197
0.00035247
0.000350821
0.000344637
0.000334805
0.000321634
0.000305509
0.000286862
0.000266134
0.000243749
0.000220126
0.000195722
0.000171321
0.000148225
0.00012865
0.000114092
0.000104557
0.000100038
0.000100272
0.000104501
0.000111408
0.000119233
0.000126067
0.000130239
0.000130008
0.000124424
0.000111923
9.48948e-05
6.17603e-05
0.000150815
0.000224079
0.000276601
0.00030974
0.00033101
0.000345122
0.000353675
0.000357085
0.000355542
0.000349444
0.000339693
0.00032667
0.00031075
0.000292352
0.000271894
0.000249779
0.000226391
0.00020214
0.00017774
0.000154395
0.000134218
0.000118925
0.000108567
0.000103239
0.000102813
0.000106652
0.000113485
0.000121508
0.000128721
0.000133187
0.000133043
0.000127258
0.00011412
9.6194e-05
6.35965e-05
0.000153454
0.000227375
0.000280197
0.000313503
0.000334953
0.000349257
0.000357984
0.000361533
0.000360091
0.000354076
0.000344413
0.000331559
0.000315863
0.00029773
0.000277563
0.000255742
0.000232621
0.000208567
0.00018423
0.000160723
0.000140053
0.000124121
0.000113009
0.000106894
0.000105779
0.000109155
0.000115822
0.000123959
0.000131479
0.000136176
0.000136076
0.000130063
0.000116272
9.74369e-05
6.54101e-05
0.000155968
0.000230458
0.000283537
0.000316991
0.000338609
0.000353098
0.000361994
0.000365681
0.000364348
0.000358431
0.000348876
0.000336198
0.000320746
0.000302904
0.000283052
0.000261551
0.000238731
0.000214919
0.000190708
0.000167126
0.000146083
0.000129621
0.000117841
0.000110986
0.000109176
0.000112037
0.000118454
0.000126615
0.000134361
0.000139219
0.000139113
0.000132839
0.000118374
9.8617e-05
6.72234e-05
0.000158426
0.000233443
0.000286743
0.000320323
0.000342097
0.000356761
0.00036582
0.000369641
0.000368418
0.000362604
0.000353173
0.000340686
0.000325482
0.000307936
0.000288417
0.000267253
0.000244754
0.000221214
0.000197176
0.000173592
0.000152277
0.000135386
0.000123026
0.000115486
0.000112992
0.000115299
0.000121397
0.000129495
0.00013738
0.000142322
0.000142157
0.000135588
0.000120426
9.97358e-05
6.90095e-05
0.000160757
0.000236228
0.000289705
0.000323388
0.000345306
0.000360137
0.000369354
0.000373307
0.000372195
0.000366495
0.000357205
0.00034493
0.000329993
0.000312757
0.000293578
0.000272775
0.000250622
0.000227387
0.00020357
0.000180056
0.000158575
0.000141359
0.000128511
0.000120354
0.000117204
0.00011894
0.000124659
0.000132613
0.000140549
0.000145497
0.000145215
0.00013831
0.000122428
0.000100794
7.07819e-05
0.000163018
0.0002389
0.000292523
0.000326292
0.00034834
0.000363328
0.000372694
0.000376774
0.000375773
0.000370191
0.000361056
0.000349002
0.000334343
0.000317427
0.000298594
0.000278152
0.000256361
0.000233451
0.000209889
0.000186502
0.000164946
0.000147498
0.000134251
0.000125547
0.000121776
0.000122935
0.000128228
0.000135964
0.000143865
0.000148743
0.000148287
0.000141007
0.000124382
0.000101796
7.25177e-05
0.000165154
0.000241382
0.000295113
0.000328946
0.000351111
0.000366246
0.000375755
0.000379958
0.000379068
0.000373611
0.000364648
0.000352834
0.000338468
0.000321887
0.000303415
0.000283345
0.000261925
0.000239365
0.00021609
0.000192886
0.000171342
0.000153754
0.000140194
0.000131014
0.000126668
0.000127253
0.000132086
0.000139537
0.000147324
0.000152058
0.000151373
0.000143678
0.00012629
0.000102745
7.42278e-05
0.000167211
0.000243747
0.000297557
0.000331437
0.000353705
0.000368976
0.000378617
0.000382936
0.000382155
0.000376828
0.000368047
0.000356481
0.000342418
0.000326178
0.000308073
0.000288382
0.000267338
0.000245136
0.000222175
0.000199197
0.00017774
0.000160094
0.000146299
0.000136713
0.000131835
0.00013186
0.000136206
0.000143317
0.000150917
0.000155438
0.000154473
0.000146327
0.000128154
0.000103647
7.58963e-05
0.000169153
0.00024594
0.000299793
0.000333698
0.000356054
0.000371449
0.000381213
0.000385642
0.000384969
0.000379778
0.000371197
0.000359895
0.000346148
0.000330262
0.000312535
0.000293234
0.000272576
0.000250744
0.000228121
0.00020541
0.00018411
0.000166482
0.000152529
0.000142603
0.000137241
0.00013672
0.00014056
0.000147281
0.000154629
0.000158873
0.00015758
0.000148949
0.000129975
0.000104503
7.75339e-05
0.000171017
0.000248018
0.000301886
0.000335798
0.000358228
0.000373733
0.000383609
0.000388139
0.000387569
0.000382515
0.000374142
0.000363113
0.000349689
0.000334164
0.000316821
0.000297913
0.000277648
0.000256194
0.00023392
0.000211517
0.000190435
0.000172893
0.00015885
0.000148647
0.000142849
0.000141803
0.000145126
0.000151418
0.000158453
0.000162363
0.000160696
0.000151549
0.000131757
0.000105318
7.91259e-05
0.000172771
0.000249936
0.000303785
0.000337685
0.000360174
0.000375778
0.000385756
0.000390379
0.000389909
0.000384998
0.000376849
0.000366106
0.000353018
0.000337865
0.000320915
0.00030241
0.000282546
0.000261481
0.000239574
0.000217498
0.0001967
0.000179308
0.000165236
0.000154813
0.000148622
0.000147072
0.000149867
0.000155691
0.000162362
0.000165887
0.00016381
0.000154122
0.0001335
0.000106095
8.06827e-05
0.000174449
0.000251742
0.000305546
0.000339415
0.000361948
0.000377637
0.000387705
0.00039241
0.000392034
0.000387264
0.000379347
0.000368896
0.000356151
0.000341375
0.000324825
0.000306729
0.000287273
0.000266607
0.000245083
0.000223368
0.000202903
0.000185711
0.000171666
0.000161076
0.000154538
0.000152508
0.000154776
0.000160102
0.000166358
0.000169448
0.000166924
0.000156669
0.000135208
0.000106838
8.21911e-05
0.000176023
0.000253397
0.000307128
0.000340948
0.000363513
0.000379276
0.000389424
0.000394204
0.000393918
0.000389295
0.00038162
0.000371473
0.000359078
0.000344688
0.000328545
0.000310865
0.000291826
0.000271569
0.000250444
0.000229118
0.000209033
0.00019209
0.000178116
0.000167405
0.000160557
0.00015807
0.000159804
0.000164603
0.00017041
0.000173029
0.000170031
0.000159189
0.00013688
0.000107552
8.36597e-05
0.000177517
0.00025494
0.000308571
0.000342327
0.00036491
0.000380736
0.000390952
0.000395798
0.000395595
0.000391117
0.000383691
0.000373851
0.000361812
0.000347811
0.00033208
0.000314822
0.000296206
0.000276369
0.00025566
0.000234752
0.000215096
0.00019844
0.000184578
0.000173786
0.000166663
0.00016374
0.000164947
0.000169217
0.000174517
0.000176625
0.000173127
0.000161682
0.000138521
0.000108239
8.50781e-05
0.000178911
0.000256339
0.000309845
0.000343521
0.000366113
0.000381994
0.000392272
0.000397177
0.000397055
0.000392727
0.000385558
0.000376031
0.00036435
0.000350743
0.000335427
0.000318596
0.00030041
0.000281003
0.000260727
0.000240263
0.000221084
0.000204754
0.000191041
0.0001802
0.000172832
0.000169496
0.000170186
0.000173926
0.000178673
0.000180233
0.000176211
0.000164148
0.000140132
0.000108902
8.64521e-05
0.000180222
0.000257621
0.00031098
0.000344564
0.000367156
0.000383082
0.000393413
0.000398371
0.000398328
0.000394149
0.000387242
0.000378029
0.000366707
0.000353493
0.000338594
0.000322193
0.000304442
0.000285474
0.000265646
0.000245655
0.000226995
0.000211032
0.000197505
0.000186651
0.000179067
0.000175334
0.00017551
0.00017871
0.000182868
0.000183849
0.000179282
0.000166589
0.000141715
0.000109543
8.77736e-05
0.000181433
0.000258764
0.000311953
0.000345435
0.000368018
0.000383984
0.000394365
0.000399374
0.00039941
0.000395384
0.000388747
0.000379851
0.000368887
0.000356064
0.000341581
0.00032561
0.000308298
0.000289777
0.000270411
0.000250916
0.000232817
0.000217254
0.000203946
0.000193112
0.000185343
0.000181238
0.000180908
0.000183554
0.000187096
0.00018747
0.00018234
0.000169007
0.000143275
0.000110165
8.90451e-05
0.000182556
0.000259788
0.000312789
0.000346157
0.000368725
0.000384726
0.000395152
0.000400211
0.000400328
0.00039646
0.000390096
0.000381515
0.000370905
0.00035847
0.000344399
0.000328858
0.000311987
0.00029392
0.00027503
0.000256057
0.000238556
0.000223427
0.000210369
0.000199588
0.000191661
0.000187201
0.000186371
0.000188452
0.000191354
0.000191098
0.000185388
0.000171405
0.000144815
0.000110773
9.0261e-05
0.00018358
0.000260677
0.000313471
0.000346717
0.000369264
0.000385296
0.000395767
0.000400877
0.000401082
0.000397382
0.000391297
0.000383029
0.000372768
0.000360714
0.00034705
0.000331935
0.000315505
0.000297896
0.000279494
0.000261065
0.000244197
0.000229532
0.000216754
0.000206052
0.00019799
0.000193199
0.000191878
0.000193391
0.000195633
0.000194731
0.000188428
0.000173787
0.000146339
0.000111371
9.14244e-05
0.000184517
0.000261451
0.000314021
0.000347136
0.000369655
0.000385713
0.000396225
0.00040139
0.000401694
0.000398177
0.000392372
0.000384411
0.000374491
0.000362811
0.000349548
0.000334855
0.000318865
0.000301719
0.000283816
0.000265954
0.00024975
0.000235577
0.000223109
0.000212516
0.000204348
0.000199239
0.000197433
0.000198369
0.000199937
0.000198372
0.000191466
0.00017616
0.000147854
0.000111962
9.25354e-05
0.000185365
0.000262104
0.000314432
0.000347405
0.00036989
0.000385969
0.00039652
0.000401742
0.000402161
0.000398871
0.000393325
0.000385662
0.000376079
0.000364767
0.000351898
0.000337621
0.000322068
0.000305384
0.00028799
0.000270716
0.000255201
0.000241546
0.000229416
0.000218961
0.000210712
0.000205299
0.000203017
0.000203373
0.000204253
0.000202015
0.000194498
0.000178524
0.000149361
0.000112549
9.36002e-05
0.000186138
0.000262654
0.00031472
0.00034754
0.000369982
0.000386076
0.000396659
0.000401934
0.000402467
0.000399408
0.000394135
0.000386783
0.000377542
0.0003666
0.000354123
0.000340257
0.000325138
0.000308919
0.000292042
0.000275377
0.000260565
0.000247444
0.000235672
0.000225383
0.000217084
0.000211401
0.000208651
0.000208424
0.000208603
0.000205679
0.00019754
0.000180891
0.00015087
0.000113139
9.4623e-05
0.000186839
0.0002631
0.000314882
0.000347536
0.000369927
0.00038603
0.000396643
0.000401972
0.000402629
0.000399818
0.000394827
0.000387789
0.000378891
0.000368316
0.000356227
0.00034277
0.000328082
0.000312331
0.000295985
0.000279959
0.000265849
0.000253269
0.000241872
0.000231771
0.00022345
0.000217516
0.000214309
0.000213503
0.000212976
0.000209358
0.000200593
0.000183264
0.000152386
0.000113735
9.56098e-05
0.000187475
0.000263448
0.000314923
0.000347398
0.00036973
0.000385834
0.000396471
0.000401851
0.000402634
0.00040008
0.000395382
0.000388669
0.000380123
0.000369922
0.000358225
0.000345177
0.000330924
0.00031565
0.000299853
0.000284503
0.000271079
0.000259031
0.000248012
0.000238117
0.000229799
0.000223647
0.000220011
0.000218628
0.000217392
0.000213075
0.000203674
0.000185659
0.000153917
0.000114338
9.65596e-05
0.000188041
0.000263693
0.000314838
0.000347122
0.000369389
0.000385491
0.000396147
0.000401579
0.000402494
0.000400209
0.000395811
0.000389429
0.000381239
0.000371414
0.000360111
0.000347477
0.000333664
0.000318878
0.000303655
0.000289024
0.000276265
0.000264737
0.000254094
0.000244414
0.000236119
0.00022977
0.000225726
0.000223783
0.000221839
0.000216821
0.000206781
0.000188075
0.000155464
0.000114949
9.74751e-05
0.000188537
0.000263832
0.000314625
0.000346708
0.000368906
0.000385002
0.000395677
0.00040116
0.000402212
0.000400204
0.000396114
0.00039007
0.000382243
0.000372801
0.000361897
0.000349679
0.000336312
0.000322022
0.000307391
0.000293508
0.000281399
0.00027038
0.000260111
0.000250654
0.000242401
0.000235882
0.000231453
0.000228963
0.000226316
0.000220605
0.000209926
0.000190523
0.000157039
0.000115568
9.83489e-05
0.000188952
0.000263852
0.000314275
0.000346153
0.00036828
0.000384372
0.000395068
0.000400608
0.000401803
0.00040008
0.0003963
0.000390593
0.000383129
0.000374072
0.000363572
0.000351777
0.000338861
0.000325077
0.000311052
0.000297937
0.000286469
0.000275953
0.000266055
0.000256826
0.000248627
0.000241959
0.000237168
0.000234153
0.000230824
0.000224417
0.000213103
0.000193002
0.000158642
0.000116198
9.91818e-05
0.000189284
0.000263754
0.00031379
0.000345457
0.000367515
0.000383609
0.000394333
0.000399938
0.000401288
0.000399859
0.000396392
0.000391021
0.000383919
0.000375246
0.000365148
0.000353777
0.000341317
0.000328045
0.000314636
0.000302298
0.000291466
0.000281449
0.000271923
0.000262928
0.0002548
0.000248004
0.000242879
0.000239365
0.000235372
0.000228285
0.000216331
0.000195526
0.000160278
0.000116839
9.99671e-05
0.000189522
0.000263527
0.000313163
0.000344618
0.00036661
0.000382711
0.000393474
0.000399159
0.000400678
0.000399556
0.000396404
0.000391365
0.000384619
0.000376324
0.000366629
0.000355685
0.000343685
0.000330934
0.000318153
0.000306595
0.000296391
0.000286866
0.000277707
0.000268949
0.000260899
0.000253995
0.00024856
0.000244574
0.00023994
0.000232187
0.0002196
0.000198089
0.000161943
0.000117496
0.000100711
0.000189678
0.000263184
0.000312404
0.000343641
0.000365569
0.000381686
0.0003925
0.000398287
0.000399999
0.000399202
0.000396371
0.000391661
0.000385261
0.000377335
0.000368033
0.000357512
0.000345975
0.000333754
0.000321615
0.000310834
0.000301251
0.000292212
0.000283419
0.000274898
0.000266938
0.000259944
0.000254224
0.000249793
0.000244539
0.000236136
0.000222922
0.0002007
0.000163646
0.00011817
0.000101421
0.000189756
0.000262731
0.000311514
0.000342525
0.000364387
0.000380523
0.000391403
0.000397314
0.000399249
0.000398802
0.000396305
0.000391926
0.000385867
0.000378302
0.000369386
0.000359283
0.000348211
0.000336529
0.000325052
0.000315034
0.000306057
0.000297493
0.000289055
0.000280769
0.000272901
0.000265829
0.000259847
0.000254999
0.00024915
0.000240116
0.000226284
0.00020335
0.000165379
0.000118853
0.000102109
0.000189775
0.000262184
0.000310506
0.000341275
0.000363063
0.00037922
0.00039018
0.000396243
0.000398437
0.000398371
0.000396225
0.000392185
0.000386465
0.000379253
0.000370715
0.000361025
0.000350422
0.000339293
0.000328507
0.000319226
0.000310836
0.000302732
0.000294641
0.000286585
0.000278812
0.000271674
0.000265448
0.000260209
0.000253789
0.000244141
0.000229699
0.000206052
0.000167148
0.000119546
0.000102787
0.000189747
0.000261554
0.000309384
0.000339888
0.000361588
0.000377762
0.000388809
0.000395056
0.000397557
0.000397898
0.000396124
0.000392439
0.000387067
0.000380211
0.000372047
0.00036277
0.000352638
0.00034208
0.000332016
0.000323436
0.000315604
0.000307939
0.00030018
0.000292345
0.000284663
0.000277462
0.000271007
0.000265399
0.000258432
0.000248191
0.00023315
0.00020879
0.000168945
0.000120246
0.000103461
0.000189679
0.000260844
0.000308146
0.000338361
0.000359957
0.000376135
0.000387273
0.000393738
0.000396633
0.000397368
0.000395982
0.000392674
0.000387671
0.00038118
0.000373397
0.000364534
0.000354879
0.000344905
0.00033559
0.000327678
0.000320379
0.000313137
0.000305699
0.000298079
0.000290487
0.00028323
0.000276556
0.000270598
0.000263102
0.000252283
0.000236652
0.000211578
0.000170778
0.000120956
0.000104134
0.000189573
0.000260057
0.000306793
0.000336692
0.000358161
0.000374327
0.000385544
0.000392228
0.000395539
0.000396709
0.000395756
0.000392866
0.000388262
0.00038216
0.000374769
0.000366326
0.000357153
0.000347772
0.000339215
0.000331944
0.000325157
0.00031832
0.000311191
0.000303776
0.000296272
0.000288959
0.000282091
0.000275788
0.000267783
0.000256403
0.00024019
0.000214401
0.000172638
0.000121671
0.000104804
0.000189426
0.000259185
0.000305321
0.000334876
0.000356199
0.000372338
0.00038363
0.000390545
0.0003943
0.000395933
0.000395443
0.000393003
0.00038883
0.000383141
0.000376161
0.000368151
0.00035947
0.000350691
0.000342891
0.000336241
0.000329947
0.000323501
0.00031667
0.000309456
0.000302038
0.000294686
0.000287661
0.000281
0.000272494
0.000260566
0.000243778
0.000217272
0.00017453
0.000122392