/*--------------------------------*- C++ -*----------------------------------*\
| =========                 |                                                 |
| \\      /  F ield         | OpenFOAM: The Open Source CFD Toolbox           |
|  \\    /   O peration     | Version:  v1906                                 |
|   \\  /    A nd           | Web:      www.OpenFOAM.com                      |
|    \\/     M anipulation  |                                                 |
\*---------------------------------------------------------------------------*/
FoamFile
{
    version     2.0;
    format      ascii;
    class       volScalarField;
    location    "92";
    object      nut;
}
// * * * * * * * * * * * * * * * * * * * * * * * * * * * * * * * * * * * * * //

dimensions      [0 2 -1 0 0 0 0];


internalField   nonuniform List<scalar> 
78750
(
4.94282e-09
5.38399e-07
8.82105e-07
1.19965e-06
1.49672e-06
1.76795e-06
2.00932e-06
2.21974e-06
2.40002e-06
2.55169e-06
2.67639e-06
2.77567e-06
2.85099e-06
2.90365e-06
2.93497e-06
2.94631e-06
2.93797e-06
2.91064e-06
2.86518e-06
2.80238e-06
2.72284e-06
2.62863e-06
2.51689e-06
2.38899e-06
2.24541e-06
2.08645e-06
1.91233e-06
1.72318e-06
1.51819e-06
1.29632e-06
1.05475e-06
7.91444e-07
5.20948e-07
2.92905e-07
6.44472e-09
3.07453e-09
2.08694e-06
4.22631e-06
6.61642e-06
9.28962e-06
1.18125e-05
1.37561e-05
1.50638e-05
1.59402e-05
1.65902e-05
1.71464e-05
1.7688e-05
1.82614e-05
1.88985e-05
1.96425e-05
2.04685e-05
2.0417e-05
2.00347e-05
1.95662e-05
1.90206e-05
1.8406e-05
1.77294e-05
1.69892e-05
1.6191e-05
1.53365e-05
1.4425e-05
1.34557e-05
1.2433e-05
1.03672e-05
8.14226e-06
5.75606e-06
3.69077e-06
2.6798e-06
1.87446e-06
2.56919e-08
4.03832e-09
2.04454e-06
3.99863e-06
6.19866e-06
8.82178e-06
1.18819e-05
1.51135e-05
1.80235e-05
2.01927e-05
2.15066e-05
2.20921e-05
2.21562e-05
2.18901e-05
2.1439e-05
2.09012e-05
2.03364e-05
1.97618e-05
1.91648e-05
1.85394e-05
1.78941e-05
1.72428e-05
1.66028e-05
1.59977e-05
1.54363e-05
1.48865e-05
1.42724e-05
1.3475e-05
1.23452e-05
1.07356e-05
8.58594e-06
6.23282e-06
4.57595e-06
4.50581e-06
2.131e-06
4.15601e-08
7.65334e-09
1.77462e-06
3.76743e-06
6.35829e-06
9.71707e-06
1.36773e-05
1.75899e-05
2.07438e-05
2.28402e-05
2.39278e-05
2.41804e-05
2.38054e-05
2.30113e-05
2.19808e-05
2.08504e-05
1.97055e-05
1.85899e-05
1.75205e-05
1.65003e-05
1.55326e-05
1.46317e-05
1.38259e-05
1.31458e-05
1.26158e-05
1.22363e-05
1.19492e-05
1.16067e-05
1.09673e-05
9.78099e-06
8.02265e-06
6.18942e-06
5.2185e-06
6.25368e-06
2.04807e-06
5.40697e-08
1.14846e-08
1.79104e-06
4.02562e-06
7.29577e-06
1.18775e-05
1.72622e-05
2.21005e-05
2.54287e-05
2.71033e-05
2.74001e-05
2.66332e-05
2.52117e-05
2.34984e-05
2.17575e-05
2.0136e-05
1.8686e-05
1.74023e-05
1.62533e-05
1.52012e-05
1.42161e-05
1.3287e-05
1.24344e-05
1.17011e-05
1.1123e-05
1.07132e-05
1.04368e-05
1.01668e-05
9.66804e-06
8.70774e-06
7.33382e-06
6.07481e-06
5.82581e-06
7.61046e-06
1.97154e-06
6.32916e-08
1.61872e-08
1.80746e-06
4.23744e-06
8.12398e-06
1.38523e-05
2.02867e-05
2.52354e-05
2.78943e-05
2.85882e-05
2.78224e-05
2.61184e-05
2.39805e-05
2.18086e-05
1.98297e-05
1.81255e-05
1.66956e-05
1.54963e-05
1.44706e-05
1.35633e-05
1.27318e-05
1.19548e-05
1.12359e-05
1.05983e-05
1.00654e-05
9.64668e-06
9.31745e-06
8.98463e-06
8.47993e-06
7.66422e-06
6.6475e-06
5.91286e-06
6.3219e-06
8.21522e-06
1.9219e-06
6.9915e-08
2.03828e-08
1.85387e-06
4.46385e-06
8.86343e-06
1.54914e-05
2.25672e-05
2.73976e-05
2.94954e-05
2.94262e-05
2.78328e-05
2.53942e-05
2.27347e-05
2.02663e-05
1.81671e-05
1.6461e-05
1.50954e-05
1.39963e-05
1.3091e-05
1.23166e-05
1.1625e-05
1.09916e-05
1.04157e-05
9.89642e-06
9.42691e-06
9.00158e-06
8.59881e-06
8.15678e-06
7.58429e-06
6.84727e-06
6.10311e-06
5.7835e-06
6.73308e-06
8.17088e-06
1.87561e-06
7.52067e-08
2.44921e-08
1.89562e-06
4.62782e-06
9.39376e-06
1.66853e-05
2.41459e-05
2.87184e-05
3.02344e-05
2.94803e-05
2.72478e-05
2.43384e-05
2.1412e-05
1.88403e-05
1.67359e-05
1.50685e-05
1.37602e-05
1.27301e-05
1.19076e-05
1.12362e-05
1.06767e-05
1.0209e-05
9.81503e-06
9.45081e-06
9.06922e-06
8.64103e-06
8.15148e-06
7.5847e-06
6.9299e-06
6.23489e-06
5.67847e-06
5.65169e-06
6.98909e-06
7.8442e-06
1.83666e-06
8.00093e-08
2.79872e-08
1.92969e-06
4.74146e-06
9.74321e-06
1.74453e-05
2.50727e-05
2.94071e-05
3.05192e-05
2.93165e-05
2.66881e-05
2.35153e-05
2.04641e-05
1.78594e-05
1.57622e-05
1.41135e-05
1.28256e-05
1.18178e-05
1.10255e-05
1.04017e-05
9.92121e-06
9.57881e-06
9.34485e-06
9.13781e-06
8.86701e-06
8.46739e-06
7.91806e-06
7.24407e-06
6.50978e-06
5.82666e-06
5.38459e-06
5.54893e-06
7.14181e-06
7.43933e-06
1.80164e-06
8.4972e-08
3.14613e-08
1.96047e-06
4.83125e-06
1.00134e-05
1.80308e-05
2.57567e-05
2.98675e-05
3.06386e-05
2.90851e-05
2.61785e-05
2.28448e-05
1.97329e-05
1.71224e-05
1.50374e-05
1.33974e-05
1.21113e-05
1.11039e-05
1.03179e-05
9.717e-06
9.29196e-06
9.05162e-06
8.95218e-06
8.88648e-06
8.72772e-06
8.37362e-06
7.79168e-06
7.03814e-06
6.23876e-06
5.55405e-06
5.18062e-06
5.46773e-06
7.22026e-06
7.04502e-06
1.77028e-06
9.01179e-08
3.46988e-08
1.98542e-06
4.89562e-06
1.01991e-05
1.84187e-05
2.61711e-05
3.00973e-05
3.06271e-05
2.88461e-05
2.57768e-05
2.23637e-05
1.92326e-05
1.66273e-05
1.45485e-05
1.29074e-05
1.16092e-05
1.05812e-05
9.77572e-06
9.16747e-06
8.7622e-06
8.58327e-06
8.57871e-06
8.62818e-06
8.57791e-06
8.28967e-06
7.71098e-06
6.91519e-06
6.07182e-06
5.37998e-06
5.04622e-06
5.41323e-06
7.26928e-06
6.69557e-06
1.74351e-06
9.539e-08
3.80231e-08
2.00944e-06
4.95804e-06
1.03812e-05
1.87921e-05
2.65537e-05
3.02995e-05
3.06088e-05
2.86327e-05
2.54368e-05
2.19729e-05
1.88389e-05
1.62462e-05
1.41759e-05
1.25325e-05
1.12222e-05
1.01747e-05
9.3461e-06
8.72131e-06
8.32073e-06
8.17811e-06
8.23642e-06
8.37037e-06
8.40985e-06
8.18909e-06
7.63528e-06
6.82814e-06
5.9655e-06
5.27229e-06
4.96587e-06
5.39166e-06
7.32307e-06
6.38827e-06
1.7209e-06
1.00599e-07
4.13428e-08
2.03156e-06
5.01298e-06
1.05361e-05
1.90948e-05
2.68377e-05
3.04233e-05
3.05596e-05
2.84466e-05
2.51769e-05
2.16967e-05
1.85748e-05
1.59968e-05
1.3931e-05
1.22793e-05
1.09491e-05
9.87402e-06
9.01511e-06
8.36268e-06
7.94836e-06
7.81582e-06
7.90629e-06
8.09475e-06
8.20418e-06
8.05016e-06
7.54033e-06
6.75063e-06
5.89253e-06
5.20804e-06
4.926e-06
5.40129e-06
7.39555e-06
6.13073e-06
1.7036e-06
1.05677e-07
4.47263e-08
2.05334e-06
5.07038e-06
1.07021e-05
1.94154e-05
2.71322e-05
3.05552e-05
3.05235e-05
2.8285e-05
2.4956e-05
2.14719e-05
1.83705e-05
1.58123e-05
1.37545e-05
1.20968e-05
1.07487e-05
9.64719e-06
8.75771e-06
8.07634e-06
7.64265e-06
7.50695e-06
7.61068e-06
7.83081e-06
7.98855e-06
7.8894e-06
7.42722e-06
6.67113e-06
5.83617e-06
5.17282e-06
4.91933e-06
5.44424e-06
7.49739e-06
5.91325e-06
1.691e-06
1.10537e-07
4.81727e-08
2.07488e-06
5.1266e-06
1.08606e-05
1.9709e-05
2.73852e-05
3.06579e-05
3.04874e-05
2.81593e-05
2.4802e-05
2.13322e-05
1.82576e-05
1.57186e-05
1.36653e-05
1.19972e-05
1.06263e-05
9.49311e-06
8.56715e-06
7.8491e-06
7.38475e-06
7.23103e-06
7.32946e-06
7.56169e-06
7.75166e-06
7.7006e-06
7.29168e-06
6.58386e-06
5.78797e-06
5.15694e-06
4.93763e-06
5.51514e-06
7.62501e-06
5.73646e-06
1.68327e-06
1.15196e-07
5.16367e-08
2.09621e-06
5.18502e-06
1.10284e-05
2.00173e-05
2.76491e-05
3.07722e-05
3.04672e-05
2.80565e-05
2.46788e-05
2.12303e-05
1.81881e-05
1.56732e-05
1.36287e-05
1.19538e-05
1.05626e-05
9.39882e-06
8.43566e-06
7.67858e-06
7.17794e-06
6.99752e-06
7.08e-06
7.30999e-06
7.51605e-06
7.50071e-06
7.14162e-06
6.48791e-06
5.74167e-06
5.15308e-06
4.97577e-06
5.6124e-06
7.77835e-06
5.59359e-06
1.6799e-06
1.19644e-07
5.51705e-08
2.11782e-06
5.24421e-06
1.11957e-05
2.03154e-05
2.78948e-05
3.08784e-05
3.04601e-05
2.79911e-05
2.46117e-05
2.11936e-05
1.81856e-05
1.56935e-05
1.36557e-05
1.19717e-05
1.05577e-05
9.35991e-06
8.35526e-06
7.5532e-06
7.00713e-06
6.78864e-06
6.84358e-06
7.06027e-06
7.27275e-06
7.28718e-06
6.97813e-06
6.38422e-06
5.69576e-06
5.15727e-06
5.02825e-06
5.72961e-06
7.94926e-06
5.48048e-06
1.68023e-06
1.23916e-07
5.86936e-08
2.1393e-06
5.3051e-06
1.13697e-05
2.06235e-05
2.81489e-05
3.0996e-05
3.04692e-05
2.79467e-05
2.45696e-05
2.11853e-05
1.82157e-05
1.57513e-05
1.37256e-05
1.20377e-05
1.06047e-05
9.37485e-06
8.32842e-06
7.47825e-06
6.88114e-06
6.61602e-06
6.6334e-06
6.82556e-06
7.03319e-06
7.06854e-06
6.80548e-06
6.27286e-06
5.64737e-06
5.16542e-06
5.09118e-06
5.86386e-06
8.13523e-06
5.39322e-06
1.68396e-06
1.28022e-07
6.22757e-08
2.16109e-06
5.36727e-06
1.15466e-05
2.09304e-05
2.83968e-05
3.11159e-05
3.04954e-05
2.79344e-05
2.4569e-05
2.12216e-05
1.829e-05
1.58525e-05
1.38389e-05
1.21475e-05
1.06959e-05
9.43404e-06
8.34438e-06
7.44265e-06
6.78852e-06
6.46804e-06
6.43897e-06
6.59803e-06
6.79338e-06
6.84467e-06
6.62611e-06
6.15635e-06
5.5972e-06
5.17616e-06
5.16159e-06
6.01065e-06
8.32984e-06
5.32673e-06
1.69028e-06
1.31983e-07
6.58348e-08
2.18262e-06
5.43043e-06
1.17285e-05
2.12451e-05
2.8653e-05
3.12483e-05
3.05382e-05
2.79407e-05
2.45877e-05
2.12785e-05
1.83881e-05
1.59826e-05
1.39871e-05
1.22985e-05
1.08334e-05
9.54266e-06
8.41042e-06
7.45492e-06
6.73849e-06
6.35418e-06
6.26933e-06
6.38551e-06
6.55916e-06
6.6189e-06
6.44071e-06
6.03339e-06
5.5429e-06
5.18622e-06
5.23563e-06
6.16604e-06
8.52971e-06
5.2781e-06
1.69888e-06
1.35809e-07
6.94355e-08
2.2041e-06
5.4944e-06
1.19147e-05
2.15651e-05
2.89127e-05
3.139e-05
3.05983e-05
2.79702e-05
2.46317e-05
2.13603e-05
1.85107e-05
1.61378e-05
1.41624e-05
1.24794e-05
1.10043e-05
9.68755e-06
8.51403e-06
7.50396e-06
6.72214e-06
6.26741e-06
6.11969e-06
6.18595e-06
6.33134e-06
6.39423e-06
6.2532e-06
5.9073e-06
5.48635e-06
5.19656e-06
5.31326e-06
6.32848e-06
8.73164e-06
5.24372e-06
1.70921e-06
1.39514e-07
7.30119e-08
2.22506e-06
5.55829e-06
1.2104e-05
2.18933e-05
2.91861e-05
3.155e-05
3.06758e-05
2.80144e-05
2.46884e-05
2.14557e-05
1.86502e-05
1.63153e-05
1.43663e-05
1.26953e-05
1.12161e-05
9.87732e-06
8.66412e-06
7.59828e-06
6.74704e-06
6.21406e-06
5.99527e-06
6.00327e-06
6.11229e-06
6.17135e-06
6.06258e-06
5.77576e-06
5.42425e-06
5.20298e-06
5.39028e-06
6.4943e-06
8.93326e-06
5.22175e-06
1.72104e-06
1.43109e-07
7.6612e-08
2.24556e-06
5.62179e-06
1.22954e-05
2.22251e-05
2.94574e-05
3.17112e-05
3.07619e-05
2.80673e-05
2.47534e-05
2.15593e-05
1.87989e-05
1.65042e-05
1.45854e-05
1.29317e-05
1.14539e-05
1.00986e-05
8.84936e-06
7.72886e-06
6.80656e-06
6.19025e-06
5.89475e-06
5.83861e-06
5.9053e-06
5.9548e-06
5.87357e-06
5.64282e-06
5.3596e-06
5.20722e-06
5.46663e-06
6.66157e-06
9.13146e-06
5.20817e-06
1.73374e-06
1.46594e-07
8.01926e-08
2.26551e-06
5.68438e-06
1.24849e-05
2.25491e-05
2.97131e-05
3.18597e-05
3.08426e-05
2.81214e-05
2.48237e-05
2.16712e-05
1.89594e-05
1.67094e-05
1.48265e-05
1.31964e-05
1.17266e-05
1.03601e-05
9.07823e-06
7.90341e-06
6.90714e-06
6.20115e-06
5.8219e-06
5.69446e-06
5.71166e-06
5.74472e-06
5.68515e-06
5.50641e-06
5.28964e-06
5.20639e-06
5.53975e-06
6.82808e-06
9.32597e-06
5.20359e-06
1.74749e-06
1.49978e-07
8.3784e-08
2.28502e-06
5.74687e-06
1.26755e-05
2.28672e-05
2.99574e-05
3.19971e-05
3.09144e-05
2.81772e-05
2.48943e-05
2.1781e-05
1.91182e-05
1.69157e-05
1.50733e-05
1.34731e-05
1.20187e-05
1.06486e-05
9.34035e-06
8.11483e-06
7.04481e-06
6.246e-06
5.77814e-06
5.57409e-06
5.53594e-06
5.54622e-06
5.50215e-06
5.3705e-06
5.2172e-06
5.20196e-06
5.60957e-06
6.99256e-06
9.51609e-06
5.20435e-06
1.76163e-06
1.53259e-07
8.73648e-08
2.30396e-06
5.80912e-06
1.28681e-05
2.31747e-05
3.01862e-05
3.21199e-05
3.09734e-05
2.82225e-05
2.49597e-05
2.18915e-05
1.92825e-05
1.7132e-05
1.53349e-05
1.37703e-05
1.23378e-05
1.09706e-05
9.64151e-06
8.36833e-06
7.22427e-06
6.32893e-06
5.76675e-06
5.47982e-06
5.37954e-06
5.3598e-06
5.3241e-06
5.23374e-06
5.14034e-06
5.19192e-06
5.67466e-06
7.15493e-06
9.70452e-06
5.21146e-06
1.77622e-06
1.56448e-07
9.09363e-08
2.32189e-06
5.86918e-06
1.30576e-05
2.34731e-05
3.04004e-05
3.22277e-05
3.10183e-05
2.8256e-05
2.50167e-05
2.19942e-05
1.94394e-05
1.73428e-05
1.55952e-05
1.40724e-05
1.26695e-05
1.1314e-05
9.97235e-06
8.65783e-06
7.44293e-06
6.45106e-06
5.79099e-06
5.41634e-06
5.248e-06
5.19117e-06
5.15621e-06
5.10025e-06
5.06186e-06
5.17759e-06
5.73462e-06
7.31309e-06
9.88844e-06
5.22549e-06
1.7914e-06
1.59545e-07
9.45072e-08
2.33941e-06
5.92835e-06
1.32447e-05
2.37615e-05
3.05997e-05
3.23208e-05
3.10499e-05
2.82787e-05
2.50714e-05
2.20958e-05
1.95962e-05
1.75567e-05
1.5863e-05
1.43871e-05
1.302e-05
1.1683e-05
1.03358e-05
8.98581e-06
7.70355e-06
6.61575e-06
5.85369e-06
5.38597e-06
5.14326e-06
5.04184e-06
4.99938e-06
4.97026e-06
4.98138e-06
5.15849e-06
5.7903e-06
7.47139e-06
1.00701e-05
5.24601e-06
1.80727e-06
1.62562e-07
9.80597e-08
2.35607e-06
5.98576e-06
1.34288e-05
2.40407e-05
3.07832e-05
3.23959e-05
3.10621e-05
2.82809e-05
2.51057e-05
2.2179e-05
1.97382e-05
1.77599e-05
1.61249e-05
1.47017e-05
1.33774e-05
1.20674e-05
1.07236e-05
9.34646e-06
8.00327e-06
6.8236e-06
5.95749e-06
5.39281e-06
5.07035e-06
4.91723e-06
4.85877e-06
4.84805e-06
4.90204e-06
5.1367e-06
5.84254e-06
7.62793e-06
1.02482e-05
5.2705e-06
1.82353e-06
1.65494e-07
1.01622e-07
2.37248e-06
6.04272e-06
1.36116e-05
2.43115e-05
3.0953e-05
3.24567e-05
3.10608e-05
2.82714e-05
2.51309e-05
2.22559e-05
1.98764e-05
1.7962e-05
1.63886e-05
1.50221e-05
1.37456e-05
1.24689e-05
1.11359e-05
9.73902e-06
8.34121e-06
7.07402e-06
6.10226e-06
5.43737e-06
5.0304e-06
4.81887e-06
4.73604e-06
4.73508e-06
4.82491e-06
5.11274e-06
5.89091e-06
7.78088e-06
1.04233e-05
5.29931e-06
1.84023e-06
1.68349e-07
1.05163e-07
2.38824e-06
6.09844e-06
1.37918e-05
2.45722e-05
3.11056e-05
3.24972e-05
3.10367e-05
2.8238e-05
2.51325e-05
2.23118e-05
1.9997e-05
1.81502e-05
1.66428e-05
1.5338e-05
1.41156e-05
1.28797e-05
1.15658e-05
1.01576e-05
8.71253e-06
7.36335e-06
6.28674e-06
5.52038e-06
5.02578e-06
4.7504e-06
4.6355e-06
4.63558e-06
4.75347e-06
5.08899e-06
5.93668e-06
7.93071e-06
1.05944e-05
5.33066e-06
1.85712e-06
1.71122e-07
1.0873e-07
2.40407e-06
6.15469e-06
1.39721e-05
2.4826e-05
3.12451e-05
3.25225e-05
3.09973e-05
2.81906e-05
2.51222e-05
2.23583e-05
2.01104e-05
1.83331e-05
1.68938e-05
1.56536e-05
1.44894e-05
1.32994e-05
1.20114e-05
1.05992e-05
9.1137e-06
7.68776e-06
6.50795e-06
5.63986e-06
5.0555e-06
4.71187e-06
4.55806e-06
4.55103e-06
4.68941e-06
5.06715e-06
5.98117e-06
8.07759e-06
1.07627e-05
5.36477e-06
1.87418e-06
1.73816e-07
1.12279e-07
2.41957e-06
6.21075e-06
1.41496e-05
2.50679e-05
3.13655e-05
3.25254e-05
3.09331e-05
2.81174e-05
2.50871e-05
2.23831e-05
2.02051e-05
1.85003e-05
1.71327e-05
1.59614e-05
1.48603e-05
1.37224e-05
1.2467e-05
1.10582e-05
9.53931e-06
8.04234e-06
6.76277e-06
5.7943e-06
5.11959e-06
4.70475e-06
4.50646e-06
4.48487e-06
4.63602e-06
5.04946e-06
6.02545e-06
8.22284e-06
1.09277e-05
5.40025e-06
1.89122e-06
1.76422e-07
1.15842e-07
2.43524e-06
6.269e-06
1.43266e-05
2.53025e-05
3.14722e-05
3.25117e-05
3.08517e-05
2.80291e-05
2.50393e-05
2.23987e-05
2.0291e-05
1.86592e-05
1.73645e-05
1.62643e-05
1.52294e-05
1.41476e-05
1.29302e-05
1.15309e-05
9.98492e-06
8.4225e-06
7.04709e-06
5.98032e-06
5.21555e-06
4.72759e-06
4.48039e-06
4.43777e-06
4.5948e-06
5.03866e-06
6.07431e-06
8.36781e-06
1.10907e-05
5.43716e-06
1.90817e-06
1.78937e-07
1.19355e-07
2.44943e-06
6.32351e-06
1.44989e-05
2.55267e-05
3.15609e-05
3.24765e-05
3.07466e-05
2.79134e-05
2.49626e-05
2.23891e-05
2.03561e-05
1.88007e-05
1.75824e-05
1.65567e-05
1.5592e-05
1.45708e-05
1.33964e-05
1.20123e-05
1.04451e-05
8.82284e-06
7.35655e-06
6.19468e-06
5.34134e-06
4.77969e-06
4.48056e-06
4.41181e-06
4.56882e-06
5.03814e-06
6.1302e-06
8.51657e-06
1.12527e-05
5.47475e-06
1.92493e-06
1.81348e-07
1.229e-07
2.46378e-06
6.37953e-06
1.46752e-05
2.57473e-05
3.16387e-05
3.24279e-05
3.0628e-05
2.77872e-05
2.48776e-05
2.23696e-05
2.04082e-05
1.89297e-05
1.77898e-05
1.68405e-05
1.59479e-05
1.49903e-05
1.38628e-05
1.24988e-05
1.09157e-05
9.23896e-06
7.68672e-06
6.43321e-06
5.49332e-06
4.8582e-06
4.50519e-06
4.40634e-06
4.55836e-06
5.0485e-06
6.19352e-06
8.6699e-06
1.14143e-05
5.5132e-06
1.9415e-06
1.83652e-07
1.26401e-07
2.4772e-06
6.43344e-06
1.48471e-05
2.59542e-05
3.16967e-05
3.2357e-05
3.0485e-05
2.76351e-05
2.47669e-05
2.23276e-05
2.04429e-05
1.90427e-05
1.7982e-05
1.71119e-05
1.62946e-05
1.54036e-05
1.43266e-05
1.29868e-05
1.13927e-05
9.66655e-06
8.03383e-06
6.69274e-06
5.669e-06
4.96153e-06
4.55378e-06
4.42201e-06
4.56501e-06
5.07202e-06
6.2671e-06
8.83117e-06
1.15767e-05
5.55206e-06
1.95782e-06
1.85837e-07
1.29901e-07
2.49042e-06
6.48748e-06
1.50197e-05
2.61551e-05
3.17432e-05
3.22728e-05
3.03287e-05
2.74711e-05
2.46452e-05
2.22746e-05
2.04667e-05
1.91461e-05
1.81648e-05
1.73727e-05
1.66314e-05
1.58089e-05
1.47849e-05
1.34728e-05
1.18719e-05
1.01014e-05
8.39372e-06
6.9693e-06
5.86478e-06
5.08664e-06
4.62412e-06
4.45758e-06
4.58847e-06
5.109e-06
6.35158e-06
9.00118e-06
1.17408e-05
5.59172e-06
1.97393e-06
1.87905e-07
1.33349e-07
2.50285e-06
6.53965e-06
1.51877e-05
2.63421e-05
3.17708e-05
3.21676e-05
3.01498e-05
2.72842e-05
2.45015e-05
2.22014e-05
2.0473e-05
1.92345e-05
1.8335e-05
1.76227e-05
1.69575e-05
1.62048e-05
1.52362e-05
1.39546e-05
1.23505e-05
1.05404e-05
8.76331e-06
7.26008e-06
6.07813e-06
5.23145e-06
4.71484e-06
4.51261e-06
4.62919e-06
5.16073e-06
6.44889e-06
9.18206e-06
1.1907e-05
5.63202e-06
1.98985e-06
1.89857e-07
1.3677e-07
2.51496e-06
6.59128e-06
1.53546e-05
2.65213e-05
3.17866e-05
3.20491e-05
2.99574e-05
2.70844e-05
2.43458e-05
2.21167e-05
2.04684e-05
1.93124e-05
1.8495e-05
1.78628e-05
1.72737e-05
1.65899e-05
1.56773e-05
1.44284e-05
1.28245e-05
1.09793e-05
9.13868e-06
7.56145e-06
6.30569e-06
5.39291e-06
4.82334e-06
4.58514e-06
4.68596e-06
5.22657e-06
6.55873e-06
9.3733e-06
1.20746e-05
5.67312e-06
2.00561e-06
1.91705e-07
1.4012e-07
2.52629e-06
6.64096e-06
1.55167e-05
2.66872e-05
3.17848e-05
3.19106e-05
2.97437e-05
2.68637e-05
2.41703e-05
2.2014e-05
2.04482e-05
1.93769e-05
1.86432e-05
1.80923e-05
1.75805e-05
1.69662e-05
1.61092e-05
1.48939e-05
1.32925e-05
1.14161e-05
9.51746e-06
7.87103e-06
6.54517e-06
5.56891e-06
4.94782e-06
4.67384e-06
4.75804e-06
5.30638e-06
6.68148e-06
9.57539e-06
1.22433e-05
5.71486e-06
2.0212e-06
1.93452e-07
1.4342e-07
2.53721e-06
6.68972e-06
1.56767e-05
2.68444e-05
3.17707e-05
3.17582e-05
2.95158e-05
2.66296e-05
2.39825e-05
2.18997e-05
2.04171e-05
1.9431e-05
1.87812e-05
1.83116e-05
1.78766e-05
1.73313e-05
1.65297e-05
1.53481e-05
1.37513e-05
1.18479e-05
9.89686e-06
8.18623e-06
6.79408e-06
5.75703e-06
5.08603e-06
4.77679e-06
4.844e-06
5.3993e-06
6.81673e-06
9.78814e-06
1.24136e-05
5.75746e-06
2.03667e-06
1.95107e-07
1.4664e-07
2.54743e-06
6.73665e-06
1.58322e-05
2.69891e-05
3.17401e-05
3.15868e-05
2.92678e-05
2.63763e-05
2.37771e-05
2.17695e-05
2.03724e-05
1.94734e-05
1.89091e-05
1.85218e-05
1.81641e-05
1.76877e-05
1.69408e-05
1.57923e-05
1.4201e-05
1.22737e-05
1.02754e-05
8.50548e-06
7.0509e-06
5.95581e-06
5.23658e-06
4.89277e-06
4.94282e-06
5.50454e-06
6.96391e-06
1.0011e-05
1.25849e-05
5.80073e-06
2.052e-06
1.96677e-07
1.498e-07
2.55727e-06
6.78268e-06
1.59855e-05
2.71248e-05
3.16969e-05
3.1401e-05
2.90052e-05
2.61096e-05
2.35595e-05
2.16279e-05
2.03169e-05
1.95054e-05
1.90268e-05
1.87217e-05
1.84409e-05
1.80328e-05
1.734e-05
1.62242e-05
1.46388e-05
1.26912e-05
1.06513e-05
8.82697e-06
7.3138e-06
6.16349e-06
5.39788e-06
5.02045e-06
5.05356e-06
5.62161e-06
7.12279e-06
1.02436e-05
1.27575e-05
5.84491e-06
2.06725e-06
1.98171e-07
1.52872e-07
2.56648e-06
6.82698e-06
1.61343e-05
2.72486e-05
3.1638e-05
3.11972e-05
2.87243e-05
2.58262e-05
2.33271e-05
2.14731e-05
2.02499e-05
1.95274e-05
1.91354e-05
1.89132e-05
1.87095e-05
1.83691e-05
1.77292e-05
1.66453e-05
1.50663e-05
1.30999e-05
1.10235e-05
9.14985e-06
7.58193e-06
6.37911e-06
5.56886e-06
5.15866e-06
5.175e-06
5.74921e-06
7.29215e-06
1.04849e-05
1.2931e-05
5.8898e-06
2.08239e-06
1.99592e-07
1.55876e-07
2.57534e-06
6.87044e-06
1.6281e-05
2.73633e-05
3.15664e-05
3.09788e-05
2.84292e-05
2.55305e-05
2.30839e-05
2.13081e-05
2.01729e-05
1.95393e-05
1.92341e-05
1.90947e-05
1.89678e-05
1.86944e-05
1.81066e-05
1.70539e-05
1.54818e-05
1.34999e-05
1.13918e-05
9.47312e-06
7.85405e-06
6.60147e-06
5.7485e-06
5.30671e-06
5.30689e-06
5.88755e-06
7.47218e-06
1.07347e-05
1.31055e-05
5.93558e-06
2.09746e-06
2.00951e-07
1.58787e-07
2.58363e-06
6.91228e-06
1.64233e-05
2.74662e-05
3.14797e-05
3.07438e-05
2.81185e-05
2.52217e-05
2.28297e-05
2.11332e-05
2.00869e-05
1.95427e-05
1.93242e-05
1.92677e-05
1.92173e-05
1.90102e-05
1.84731e-05
1.74507e-05
1.58859e-05
1.38909e-05
1.17558e-05
9.79641e-06
8.12956e-06
6.82972e-06
5.93572e-06
5.46331e-06
5.44762e-06
6.03469e-06
7.66134e-06
1.09915e-05
1.32807e-05
5.98222e-06
2.11247e-06
2.02253e-07
1.6162e-07
2.59154e-06
6.95315e-06
1.65629e-05
2.75595e-05
3.13802e-05
3.04948e-05
2.77953e-05
2.49032e-05
2.25674e-05
2.09507e-05
1.99929e-05
1.95375e-05
1.94051e-05
1.94308e-05
1.94563e-05
1.93147e-05
1.88276e-05
1.78347e-05
1.62778e-05
1.42727e-05
1.21155e-05
1.01194e-05
8.408e-06
7.06326e-06
6.12986e-06
5.62791e-06
5.59721e-06
6.1917e-06
7.85946e-06
1.12547e-05
1.34564e-05
6.02967e-06
2.12742e-06
2.03506e-07
1.64357e-07
2.59893e-06
6.9925e-06
1.66982e-05
2.76411e-05
3.12662e-05
3.02309e-05
2.74597e-05
2.45757e-05
2.22985e-05
2.07622e-05
1.9893e-05
1.95256e-05
1.94784e-05
1.95853e-05
1.96857e-05
1.96084e-05
1.917e-05
1.82059e-05
1.66575e-05
1.46452e-05
1.24709e-05
1.04424e-05
8.6894e-06
7.30184e-06
6.33043e-06
5.79993e-06
5.7551e-06
6.35787e-06
8.06594e-06
1.15233e-05
1.36324e-05
6.07801e-06
2.14235e-06
2.04713e-07
1.67007e-07
2.60589e-06
7.03067e-06
1.68302e-05
2.77126e-05
3.11397e-05
2.99544e-05
2.71141e-05
2.42418e-05
2.20251e-05
2.05694e-05
1.97879e-05
1.95073e-05
1.95438e-05
1.97305e-05
1.99044e-05
1.98902e-05
1.94992e-05
1.85632e-05
1.70241e-05
1.50078e-05
1.28215e-05
1.07649e-05
8.97381e-06
7.54572e-06
6.53769e-06
5.97946e-06
5.92108e-06
6.53258e-06
8.28056e-06
1.1797e-05
1.38088e-05
6.1272e-06
2.15725e-06
2.05879e-07
1.69557e-07
2.61232e-06
7.06723e-06
1.69576e-05
2.77724e-05
3.09994e-05
2.96647e-05
2.67589e-05
2.39025e-05
2.17487e-05
2.03741e-05
1.96799e-05
1.94846e-05
1.9603e-05
1.98675e-05
2.0113e-05
2.01601e-05
1.98149e-05
1.89062e-05
1.73773e-05
1.536e-05
1.31668e-05
1.10863e-05
9.26032e-06
7.79399e-06
6.75102e-06
6.16614e-06
6.09488e-06
6.71546e-06
8.50298e-06
1.20753e-05
1.39858e-05
6.17741e-06
2.17218e-06
2.0701e-07
1.72009e-07
2.61827e-06
7.10231e-06
1.70809e-05
2.78218e-05
3.08469e-05
2.93633e-05
2.63957e-05
2.35592e-05
2.14707e-05
2.01778e-05
1.957e-05
1.94583e-05
1.96564e-05
1.99965e-05
2.03114e-05
2.04176e-05
2.01166e-05
1.92344e-05
1.77167e-05
1.57018e-05
1.35066e-05
1.14067e-05
9.54929e-06
8.04723e-06
6.97071e-06
6.36005e-06
6.27642e-06
6.90638e-06
8.73308e-06
1.23581e-05
1.41639e-05
6.22886e-06
2.18718e-06
2.08116e-07
1.74355e-07
2.62362e-06
7.13556e-06
1.71991e-05
2.78598e-05
3.06812e-05
2.90494e-05
2.60243e-05
2.32126e-05
2.11923e-05
1.99821e-05
1.94601e-05
1.94303e-05
1.97057e-05
2.01187e-05
2.05004e-05
2.06632e-05
2.04041e-05
1.95472e-05
1.80416e-05
1.60324e-05
1.38402e-05
1.17253e-05
9.83985e-06
8.3043e-06
7.1957e-06
6.56033e-06
6.46512e-06
7.10494e-06
8.97056e-06
1.2645e-05
1.43431e-05
6.28156e-06
2.20229e-06
2.09202e-07
1.76599e-07
2.62844e-06
7.16717e-06
1.7313e-05
2.78874e-05
3.05028e-05
2.87235e-05
2.56452e-05
2.2863e-05
2.0914e-05
1.97881e-05
1.93514e-05
1.94017e-05
1.97521e-05
2.02354e-05
2.06808e-05
2.08973e-05
2.06777e-05
1.9845e-05
1.83522e-05
1.63521e-05
1.41677e-05
1.20423e-05
1.01324e-05
8.56604e-06
7.42708e-06
6.76768e-06
6.66125e-06
7.31119e-06
9.21536e-06
1.29359e-05
1.45238e-05
6.33569e-06
2.21755e-06
2.10275e-07
1.78742e-07
2.6327e-06
7.1971e-06
1.74225e-05
2.79041e-05
3.03106e-05
2.83844e-05
2.52579e-05
2.25102e-05
2.0636e-05
1.95979e-05
1.92456e-05
1.9374e-05
1.97972e-05
2.03483e-05
2.08546e-05
2.11213e-05
2.09381e-05
2.01277e-05
1.86482e-05
1.66603e-05
1.4488e-05
1.23564e-05
1.04259e-05
8.83158e-06
7.6639e-06
6.98129e-06
6.86429e-06
7.52478e-06
9.46724e-06
1.32308e-05
1.47063e-05
6.39116e-06
2.23296e-06
2.11342e-07
1.80795e-07
2.63652e-06
7.2258e-06
1.75289e-05
2.79105e-05
3.01043e-05
2.80318e-05
2.48623e-05
2.21545e-05
2.03576e-05
1.94081e-05
1.91405e-05
1.9347e-05
1.98424e-05
2.04594e-05
2.10237e-05
2.13373e-05
2.11873e-05
2.03972e-05
1.89315e-05
1.69585e-05
1.48017e-05
1.26675e-05
1.07199e-05
9.10053e-06
7.90649e-06
7.20236e-06
7.07538e-06
7.7468e-06
9.7272e-06
1.35307e-05
1.48917e-05
6.4485e-06
2.24867e-06
2.12414e-07
1.82768e-07
2.63992e-06
7.25341e-06
1.76323e-05
2.79062e-05
2.98827e-05
2.76651e-05
2.44587e-05
2.17963e-05
2.00801e-05
1.92208e-05
1.90385e-05
1.93229e-05
1.98894e-05
2.05705e-05
2.11898e-05
2.15468e-05
2.14264e-05
2.06545e-05
1.9203e-05
1.72483e-05
1.5109e-05
1.29751e-05
1.10138e-05
9.37238e-06
8.15406e-06
7.4296e-06
7.29338e-06
7.97638e-06
9.9946e-06
1.38349e-05
1.50798e-05
6.50747e-06
2.26462e-06
2.13497e-07
1.84671e-07
2.64301e-06
7.28033e-06
1.77336e-05
2.78906e-05
2.96453e-05
2.72844e-05
2.40478e-05
2.14363e-05
1.9803e-05
1.90348e-05
1.8938e-05
1.93004e-05
1.99379e-05
2.06822e-05
2.13547e-05
2.17518e-05
2.16577e-05
2.09021e-05
1.94656e-05
1.75325e-05
1.5411e-05
1.3279e-05
1.13064e-05
9.64579e-06
8.40581e-06
7.66316e-06
7.51931e-06
8.21451e-06
1.02706e-05
1.41446e-05
1.52708e-05
6.56824e-06
2.28091e-06
2.14595e-07
1.86503e-07
2.64576e-06
7.30641e-06
1.7832e-05
2.78628e-05
2.93916e-05
2.68907e-05
2.36313e-05
2.10762e-05
1.95281e-05
1.88513e-05
1.88397e-05
1.92798e-05
1.99878e-05
2.07943e-05
2.1518e-05
2.19524e-05
2.18816e-05
2.11405e-05
1.97202e-05
1.78124e-05
1.57085e-05
1.35793e-05
1.15976e-05
9.92038e-06
8.66103e-06
7.90194e-06
7.75184e-06
8.46044e-06
1.05542e-05
1.44584e-05
1.54636e-05
6.6305e-06
2.2975e-06
2.15708e-07
1.88268e-07
2.64817e-06
7.33163e-06
1.79274e-05
2.78221e-05
2.91216e-05
2.64846e-05
2.32104e-05
2.0717e-05
1.92558e-05
1.86702e-05
1.8743e-05
1.92601e-05
2.00383e-05
2.09065e-05
2.16802e-05
2.21498e-05
2.20995e-05
2.13709e-05
1.99671e-05
1.80866e-05
1.60003e-05
1.38747e-05
1.1886e-05
1.01948e-05
8.91869e-06
8.14543e-06
7.99083e-06
8.71414e-06
1.0846e-05
1.47777e-05
1.56582e-05
6.69407e-06
2.31448e-06
2.16836e-07
1.89953e-07
2.65008e-06
7.35531e-06
1.80177e-05
2.77671e-05
2.88353e-05
2.60679e-05
2.27875e-05
2.03609e-05
1.8988e-05
1.84929e-05
1.86487e-05
1.92412e-05
2.00883e-05
2.10172e-05
2.18396e-05
2.23426e-05
2.23108e-05
2.15934e-05
2.02061e-05
1.83545e-05
1.6286e-05
1.41651e-05
1.21713e-05
1.04684e-05
9.17784e-06
8.3925e-06
8.23531e-06
8.97518e-06
1.11459e-05
1.51012e-05
1.58541e-05
6.75885e-06
2.33183e-06
2.17984e-07
1.91559e-07
2.6514e-06
7.37717e-06
1.81027e-05
2.76977e-05
2.85325e-05
2.56403e-05
2.23623e-05
2.00083e-05
1.87255e-05
1.83207e-05
1.85581e-05
1.92243e-05
2.01386e-05
2.11268e-05
2.19965e-05
2.25313e-05
2.25161e-05
2.18083e-05
2.04373e-05
1.86148e-05
1.65642e-05
1.44492e-05
1.24524e-05
1.07403e-05
9.43791e-06
8.64297e-06
8.48556e-06
9.24435e-06
1.14555e-05
1.54316e-05
1.6052e-05
6.82492e-06
2.34959e-06
2.19155e-07
1.93073e-07
2.65195e-06
7.39645e-06
1.81804e-05
2.76127e-05
2.82125e-05
2.52016e-05
2.19353e-05
1.96596e-05
1.84693e-05
1.81548e-05
1.84726e-05
1.92105e-05
2.01896e-05
2.12347e-05
2.215e-05
2.2715e-05
2.27153e-05
2.20166e-05
2.06619e-05
1.88686e-05
1.68359e-05
1.47276e-05
1.27293e-05
1.10099e-05
9.69796e-06
8.89564e-06
8.74025e-06
9.52018e-06
1.17729e-05
1.57673e-05
1.62509e-05
6.89219e-06
2.3677e-06
2.20354e-07
1.94508e-07
2.65173e-06
7.41329e-06
1.82519e-05
2.75126e-05
2.78738e-05
2.47496e-05
2.15044e-05
1.93137e-05
1.82196e-05
1.79971e-05
1.83952e-05
1.92033e-05
2.02449e-05
2.13441e-05
2.2302e-05
2.28947e-05
2.29087e-05
2.22186e-05
2.08806e-05
1.9116e-05
1.71009e-05
1.49999e-05
1.30016e-05
1.12773e-05
9.95801e-06
9.15075e-06
8.99988e-06
9.80353e-06
1.20995e-05
1.61092e-05
1.64511e-05
6.96054e-06
2.38621e-06
2.21585e-07
1.95877e-07
2.65075e-06
7.42769e-06
1.83172e-05
2.73964e-05
2.75143e-05
2.42822e-05
2.10675e-05
1.89691e-05
1.79757e-05
1.78479e-05
1.83275e-05
1.92055e-05
2.03077e-05
2.1458e-05
2.24552e-05
2.30728e-05
2.30988e-05
2.24171e-05
2.10968e-05
1.93595e-05
1.73609e-05
1.52673e-05
1.32699e-05
1.15421e-05
1.02175e-05
9.4074e-06
9.26337e-06
1.00932e-05
1.24336e-05
1.64555e-05
1.66511e-05
7.0295e-06
2.405e-06
2.22833e-07
1.97203e-07
2.64917e-06
7.44038e-06
1.83784e-05
2.72638e-05
2.71312e-05
2.37962e-05
2.06223e-05
1.86241e-05
1.77371e-05
1.7708e-05
1.82718e-05
1.92208e-05
2.03827e-05
2.15815e-05
2.2614e-05
2.32525e-05
2.3288e-05
2.26145e-05
2.13133e-05
1.96006e-05
1.76169e-05
1.55304e-05
1.35347e-05
1.1805e-05
1.0477e-05
9.6663e-06
9.53164e-06
1.03904e-05
1.27768e-05
1.68076e-05
1.68513e-05
7.09913e-06
2.42412e-06
2.241e-07
1.9851e-07
2.64711e-06
7.4518e-06
1.84361e-05
2.71136e-05
2.67223e-05
2.32898e-05
2.01666e-05
1.82764e-05
1.75021e-05
1.75762e-05
1.82278e-05
1.92504e-05
2.0473e-05
2.17189e-05
2.27834e-05
2.34386e-05
2.34804e-05
2.28146e-05
2.15336e-05
1.98418e-05
1.78704e-05
1.57902e-05
1.37969e-05
1.20663e-05
1.07363e-05
9.92682e-06
9.80369e-06
1.06938e-05
1.31275e-05
1.71636e-05
1.70508e-05
7.16911e-06
2.44348e-06
2.2538e-07
1.99809e-07
2.64468e-06
7.46239e-06
1.8491e-05
2.69445e-05
2.62858e-05
2.27625e-05
1.96999e-05
1.79249e-05
1.72715e-05
1.74518e-05
1.81943e-05
1.92943e-05
2.05801e-05
2.18732e-05
2.29669e-05
2.36345e-05
2.36787e-05
2.30186e-05
2.17577e-05
2.00829e-05
1.81214e-05
1.6047e-05
1.40566e-05
1.23267e-05
1.09967e-05
1.01903e-05
1.0081e-05
1.1005e-05
1.3487e-05
1.75247e-05
1.72502e-05
7.23965e-06
2.46316e-06
2.26678e-07
2.01107e-07
2.64196e-06
7.47223e-06
1.8543e-05
2.67552e-05
2.58215e-05
2.22152e-05
1.9223e-05
1.75682e-05
1.70385e-05
1.73289e-05
1.81676e-05
1.93504e-05
2.07038e-05
2.20457e-05
2.31674e-05
2.38436e-05
2.3886e-05
2.32288e-05
2.19859e-05
2.03243e-05
1.83702e-05
1.63009e-05
1.43141e-05
1.2586e-05
1.12575e-05
1.04562e-05
1.03633e-05
1.1323e-05
1.38543e-05
1.78893e-05
1.74486e-05
7.31044e-06
2.48305e-06
2.27985e-07
2.02399e-07
2.63887e-06
7.48105e-06
1.85909e-05
2.65445e-05
2.53295e-05
2.165e-05
1.8738e-05
1.72081e-05
1.68049e-05
1.7208e-05
1.81466e-05
1.94168e-05
2.0842e-05
2.22355e-05
2.33852e-05
2.40674e-05
2.41041e-05
2.34462e-05
2.2218e-05
2.05657e-05
1.86168e-05
1.6552e-05
1.45694e-05
1.28447e-05
1.15196e-05
1.07263e-05
1.0653e-05
1.16495e-05
1.42305e-05
1.82583e-05
1.76464e-05
7.38163e-06
2.50323e-06
2.29304e-07
2.03683e-07