/*--------------------------------*- C++ -*----------------------------------*\
| =========                 |                                                 |
| \\      /  F ield         | OpenFOAM: The Open Source CFD Toolbox           |
|  \\    /   O peration     | Version:  v1912                                 |
|   \\  /    A nd           | Website:  www.openfoam.com                      |
|    \\/     M anipulation  |                                                 |
\*---------------------------------------------------------------------------*/
FoamFile
{
    version     2.0;
    format      ascii;
    class       volScalarField;
    location    "132/oil";
    object      wallHeatFlux;
}
// * * * * * * * * * * * * * * * * * * * * * * * * * * * * * * * * * * * * * //

dimensions      [1 0 -3 0 0 0 0];


internalField   uniform 0;

boundaryField
{
    maxY
    {
        type            calculated;
        value           uniform 0;
    }
    minX
    {
        type            calculated;
        value           uniform 0;
    }
    maxX
    {
        type            calculated;
        value           uniform 0;
    }
    minY
    {
        type            calculated;
        value           uniform 0;
    }
    minZ
    {
        type            calculated;
        value           uniform 0;
    }
    maxZ
    {
        type            calculated;
        value           uniform 0;
    }
    oil_to_sphere
    {
        type            calculated;
        value           nonuniform List<scalar> 
1536
(
8602.17
8373.57
8379.81
7936.58
7903.9
8351.71
8174.08
8234.16
8206.14
7962.09
7802.69
7988.68
8198.97
8010.3
7726.71
8140.33
8356.27
8391.12
8125.77
8189.15
8293.92
8205.51
8228.35
8138.27
8163.88
8149.79
8155.08
8108.3
8350.54
8224.09
8419.3
8371.89
8384.3
8134.88
8151.56
8104.36
8120.26
8049.7
8099.68
8149.2
8087.46
8125.66
8198.98
8255.28
8314.95
8146.55
8324.17
8256.57
7732.11
8154.1
8273.12
8212.23
8249.49
8130.72
8341.89
8506.93
8220.7
8190.6
8295.53
8263.16
8197.99
8194.75
8197.23
8126.38
8154.69
8185.64
8187.33
8282.39
8272.41
8333.22
8125.28
7941.92
8003.36
8151.28
8145.24
8519.48
8384.22
8074.45
8141.37
8388.63
8296.6
8271.58
7920.51
7910.72
8348.77
8565.26
7885.42
8167.7
8267.92
8264.18
8222.44
8110.89
8111.4
8119.77
8148.35
8250.58
8309.49
8320.65
8397.24
8258.57
8300.88
8120.37
8614.55
8280.12
7995.26
8144.06
8157.51
7957.19
7962.76
8629.01
8379.94
8240.91
8194.2
8236.38
7892.02
7932
7853.88
8464.12
8588.43
8400.17
8218.16
8235.14
8097.22
8303.48
8411.35
8278.13
8208.58
8080.05
8317.36
8282.74
8189.09
8274.65
8336.59
8152.82
8173.59
8339.8
8235.68
8393.07
8086.56
8357.91
8204.94
8283.18
8284.22
8201.14
8171.31
8196.9
8235.79
8542.86
8275.23
8623.26
8317.07
8453.13
8218.65
8234.99
8126.91
8318.45
8326.91
8368.66
8682.67
8507.04
8378.46
8569.13
7994.02
8034.1
8114.57
8103.8
8317.95
8485.65
8378.87
8558.3
8119.01
8135.32
8084.11
8320.46
8263.62
8268.66
8544.99
8150.44
8159.82
8558.23
8082.1
8030.6
8028.84
8047.34
8354.88
8569.67
8511.8
8106.03
8042.29
8388.82
8062.21
8347.59
8335.48
8441.03
7988.18
7700.34
8438.04
8463.86
8216.9
8134.09
8219.03
8169.35
8400.37
8437.91
8321.1
8275.31
8158.41
8472.47
8409.32
8330.43
8074.85
8152.58
8143.61
8214.62
8329.91
8531.42
8140.41
8004.38
8007.18
7680.62
8371.09
8315.4
8267.17
8224.44
8239.69
8487.73
8350.94
8197.17
8376.39
7976.91
8110.36
7722.36
8189.72
8397.64
8439.26
8426.82
8360.7
8308.61
8391.77
7991.17
8021.56
8172.68
8462.43
8076.5
7748.28
7852.96
8308.48
8303.71
8582.06
8747.83
8244.07
7923.02
7677.72
8262.88
8480.53
8118.76
8126.1
7867.83
8109.69
8483.65
8591.08
8231.26
8133.73
8479.58
8534.06
8145.78
7953.32
8224.93
8538.46
8478.52
8309.59
8339.55
8426.92
8039.62
8132.77
8443.78
8339.4
8440.79
8206.84
8384.04
8527.72
8333.38
8311.95
8477.39
8139.33
8128.17
8166.81
8084.38
8111.92
8447.33
8535.71
8143.93
8171.23
8160.56
8180.87
8107.17
8251.97
8215.18
8066.65
7879.71
8102.96
7990.11
8081.69
8574.66
8484.82
8486.58
8751.21
8011.29
8028.87
8293.61
8617.94
8668.26
8122.66
8217.09
8107
8334.69
8140.91
8306.01
8325.96
8410.12
8337.14
8174.64
8357.9
8095.19
8431.91
8463.96
8371.22
8358.23
8053.19
8552.22
8570.37
8379.77
7977.58
8138.75
8193.04
8328.9
8304.01
8323.32
8047.34
8428.81
8515.9
8397.17
8484.07
8279.42
8262.02
8207.41
8027.99
8280.36
8344.05
8020.66
7997.97
8041.38
8612.38
8437.66
8493.12
8290.27
8264.19
8475.32
8004.73
8564.24
8400.26
8255.46
8259.75
7996.8
8427.58
8429.37
8072.38
8253.13
8193.84
8140.11
8342.43
8424.59
8199.86
8159.15
8027.45
8529.03
8430.16
8002.69
8481.36
8462.89
8375.74
8523.43
8250.73
8352.99
7986.87
7977.38
8330.4
8710.63
8389.7
8607.47
8306.43
8168.84
8396.9
8061.31
8135.9
8332.99
8420.33
8347.21
8286.22
8077.28
8039.7
8449.34
8510.27
8432.18
8261.22
8129.82
8307.14
8355.13
8405.33
8271.22
8190.19
8094.27
8246.23
8057.7
7959.92
8118.57
8089.25
8242.81
7951.9
8165.97
8592.36
8161.66
8158.88
8424.41
8413.71
8326.08
8196.76
8006.54
8385.79
8484.59
8321.1
8285.08
8376.77
8228.03
8239.41
8288.7
7921.56
8372.56
8509.27
8496.93
8406.15
8362.43
8330.48
8269.72
8200.34
8059.52
8231.99
8074.27
7995.64
8090.76
7943.62
8582.55
8553.06
8457.33
8704.88
8144.8
8576.46
8038.65
8080.84
8353.03
8152.77
8035.13
8167.9
8140.84
8562.69
8497.9
8287.3
8311.33
8525.91
8454.04
8264.06
8358
8070.21
8417.2
7968.52
8496.44
7917.59
8381.75
8398.53
8413.98
8172.03
8028.16
8185.92
8418.37
8196.95
7957.57
8436.95
8439.56
8539.65
8638.77
8345.4
8491.41
8008.52
8040.2
7752.47
7830.94
8243.95
8152.36
8132.07
8095.66
8587.65
8168.22
7983.33
7945.25
8225.72
8045.3
8686.37
8099.88
8113.62
8245.39
7803.62
7854.02
8118.98
8113.47
8189.33
8153.05
8436.67
8405.85
8332.21
8260.86
7942.41
8139.46
8424.85
8054.33
8067.85
8373.58
8520.53
8083.92
7790.22
8021.61
7808.48
8219.03
8163.37
8111.91
7989.31
7767.36
8361.06
8381.34
8295.04
8236.48
8545.05
8362.7
8315.51
8269.94
8051.32
8133.4
8439.8
8343.82
8170.49
7839.69
8266.3
8468.6
8555.5
8275.06
8207.6
8528.57
8316.16
8491.02
8060.96
8129.52
8029.57
8156.29
8254.07
8502.1
8268.33
8072.95
8046.67
8255.15
8666.85
8053.5
8137.52
7981.37
8279.18
8254.33
8455.12
8527.2
8055.38
7970.42
8538.19
8594.89
7887.81
8563.16
8477.3
8391.9
8497.99
8335.83
8269.09
8262.19
8536.17
8271.74
8323.74
8251.13
8407.53
8288.74
8232.53
8220.68
8009.77
8377.82
8274.8
8409.6
8367.21
8380.57
8343.87
8278.58
7985.55
8458.47
8465.92
8342.18
8230
8292.4
8619.81
8071.12
8054.12
8006.22
8338.79
8193.81
8615.61
8172.94
8200.17
8266.05
7779.34
7781.47
8127.04
8120.03
8235.55
8025.23
8070.98
8363.84
8180.61
8522.77
8136.13
8593.15
8279.44
8335.81
7824.87
7779.99
7740.71
8121.39
8387.64
8151.17
8115.06
7798.32
8229.71
8438.74
8230.71
8804.33
8075.09
8433.53
8414.3
8377.75
8476.33
8488.66
8403.39
8253.82
8200.55
8234.39
8388.41
8202.89
8295.47
8295.1
8299.63
8412.94
8347.54
8384.66
8034.3
8074.08
7698.61
7859.74
7947.49
7559.41
8140.71
8155.07
8200.65
8235.36
7949.88
8014.83
8170.68
8482.23
8489.24
8167.5
7962.43
8205.57
8420.75
8391.55
8228.91
7961.59
8074.26
8342.59
8319.6
8225.6
8151.71
8362.6
8380.23
8529.7
8371.12
8268.55
8153.87
8065.28
7993.69
8212.87
8283.94
8630.16
8241.77
8593.56
8196.21
8665.17
8129.33
8204.13
8043.1
8077.25
8151.51
8028.14
8198.1
7950.67
8130.6
8456.52
8167.38
8007.38
8553.92
8367.74
8300.16
8233.91
8584.7
8798.09
7881.33
8348.7
8337.81
8326.5
8035.82
8227.22
8109.25
8312.04
8420.83
8438.6
8062.89
8348.25
8273.25
8356.77
8348.8
8307.03
8191.15
8216.91
8148.47
7969.32
7944.5
8045.81
8497.6
8134.6
7995.76
8139.32
8449.28
8188.26
8507.09
8421.38
8323.74
8269.16
8326.99
8551.24
8044.46
8337.81
8476.23
8474
8276.08
8096.79
8201.46
8333.29
8482.78
8038.26
8218.81
8277.26
8438.91
8304.48
8344.25
8514.21
8037.06
8112.08
8082.1
8560.39
8441.96
8251.69
8439.57
8107.86
8141.47
8438.29
8358.13
8520
8048.9
8392.33
8429.59
8269.64
8311.69
8383.74
8076.58
7923.56
8237.89
8350.97
8611.41
8214.03
8134.82
8227.15
8316.04
8394.28
8255.76
8109.27
8211.88
8418.88
8099.53
8081.05
8204.19
8126.83
8290.34
8266.55
8469.6
8335.86
8396.33
8145.99
8239.58
8288.65
8217.75
8179.99
8157.02
8145.5
8047.92
8359.79
8284.03
8273.09
8330.05
7967.53
8158.83
8558.02
8553.41
8100.05
8443.24
8316.04
8343.56
8155.84
8485.98
8455.22
8037.83
8183.09
8158.01
8152.34
7990.62
8011.36
8156.15
8466
8687.35
8122.39
8386.07
8358.36
8303.99
8202.72
8290.34
8475.56
8338.06
8047.97
8160.83
8142.87
8178.45
8330.85
8384.95
8364.33
8369.96
8386.65
8115.92
8375.69
8171.39
8366.82
7774.04
8333.34
8483.06
8179.42
7883.5
8276.73
8229.54
8566.99
8088.7
8376.95
8238.89
7922.53
8555.92
8011.01
8207.91
8233.05
7977.97
8447.92
8278.22
8212.35
8303.73
8277.8
8192.22
8573.29
8028.01
8156.09
7743.96
8262.34
8169.47
8240.59
8445.87
8790.38
7984.81
8168.22
8700.54
8017.85
8366.94
8103.84
8344.13
7896.9
8100.77
8692.32
7907.28
8693.93
7942.23
8565.44
7951.57
8084.68
7799.76
8052.14
8656.98
7824.04
8270.51
7913.52
8555.89
8658.5
7840.58
8255.03
8097.75
8045.18
8029.95
8145.42
8236.43
8240.35
8331.26
8218.32
8528.3
8715.27
7841.87
8318.34
8297.52
8233.17
8262.01
8213.5
8205.49
8209.69
8396.47
8227.14
8391.92
8159.18
8291.8
8491.49
8173.02
8321.48
8433.77
8151.08
8292.22
8231.87
8332.3
8203.26
8273.63
8184.81
8419.44
8163.61
8292.72
7949.41
8560.25
7843.95
8371.32
8431.31
8518.74
8088.09
8263.51
8213.22
8251.68
8281.9
8231.97
8396.92
8057.82
7686.12
8321.91
7890
8473.14
8097.86
8237.81
8436.74
7701.92
8589.56
8101.36
7795.26
8145.07
8358.78
8338.72
8262.66
7813.3
8276.64
8308.26
8120.49
8092.72
8475.25
8446.46
8152.32
8238.65
8475.44
7827.96
8435.88
8091.08
8332.38
7851.62
8713.38
8595.19
8412.7
8263.48
8221.17
8385.45
8202.22
7809.99
8038.94
8368
8100.79
8382.63
7875.94
8472.99
8373.65
7574.81
8281.35
8298.35
7720.44
8576.45
7938.63
8468.46
8557.24
8407.91
7759.54
8267.88
8199.61
8278.55
8281.42
8352.57
7822.39
8176.09
8095.72
8100.78
8471.21
8249.32
8356
8338.28
8336.59
8196.33
8262.77
8208.67
8291.02
8456.6
8139.15
8187.77
8121.74
8295.96
8431.42
8140.41
8170.21
8151.31
8249.62
8101.29
8110.81
8173.88
8190.89
8260.61
8201.22
8517.22
8420.06
7884.7
7930.13
8536.8
7550.1
8367.66
8309.1
8114.3
8198.79
8575.49
7715.58
8435.9
8341.35
7782.33
8165.41
8140.31
8290.67
7690.43
8476.96
8380.27
7695.37
8454.91
8496.54
7840.11
8517.84
8447.35
7847.23
8134.51
8109.18
7725.45
8242.7
8270.75
8085.75
8088.04
8145.94
7636.28
8072.35
7785.52
7619.16
8435.04
8096.74
8649.74
8174.63
7816.71
8466.28
8273.98
7749.52
8146.03
8141.63
7744.73
7915.26
8583.05
7482.89
8044.12
8114.24
7581.23
8451.91
8402.77
8242.2
8165.18
8148.86
8036.06
7653.68
8248.26
8160.59
8178.18
8243.63
7767.3
8407.72
8134.07
8217.44
8107.58
8207.53
8259.47
8036.37
7790.7
8172.6
8338.89
8126.05
8171.55
8237.89
8086.1
8185.88
7771.53
8162.29
8372.48
8110.79
8199.98
8092.8
7804.41
8536.84
8543.8
8456.6
8564.73
7834.89
7715.38
8182.31
8452.57
8268.78
8363.76
8399.45
8043.27
7987.21
7779.97
7879.06
8073.17
8219.79
8204.85
8194.65
8011.42
8423.23
8318.94
7850.81
8042.94
8036.82
8393.44
8084.19
7663.78
8333.45
8227.19
8437.31
7752.49
8165.71
8321.95
8150.55
8187.64
8360.98
8218.66
8038.15
8558.56
7577.52
8051.69
8253.89
8092.23
8159.51
8539.39
8335.8
8259.88
7977.24
8498.62
8158.92
8262.7
8396.24
8442.37
8420.31
8440.19
8531.31
8573.6
8509.19
8509.69
8324.75
8415.68
8136.44
8194.54
8022.38
7931.16
7622.55
8547.24
8530.08
8460.58
8175.54
8261.55
8248.22
8095.42
8282.09
8406.89
8055.92
8203.49
8348.46
8139.99
8142.96
8126.69
8173.39
8075.1
8164.17
8147.26
7849.2
8318.5
8068.89
8198.75
7734.79
8582.85
8212.41
8105.86
8072.63
7871.21
8243.58
8114.01
7719.17
7992.46
8202.26
7942.84
7971.14
8574.75
8604.98
8154.42
8153.74
8381.12
8527.1
7710.11
8154
8081.3
8158.33
8159.65
8177.48
8212.22
7998.88
7792.19
8518.5
8157.16
7952.71
7993.28
8143.68
8239.49
7882.33
8241.83
8114.34
8135.17
8530.08
7963.94
7817.51
8173.43
8122.13
8087.04
7799.93
8465.76
8155.59
8129.24
8146.66
7719.45
8174.81
8158.72
7828.32
8165.83
7988.16
8304.18
8464.88
8108.79
8398.16
8282.46
8102.5
8103.87
8166.36
7807.59
8325.65
8361.34
8128.43
7761.1
8033.96
8193.96
8207.82
8103.75
7788.54
8115.13
8436.07
8306.57
8133.69
8570.61
7947.7
8440.05
7721.37
7946.2
8467.54
7736.1
8432.24
8151.89
8238.51
8138.26
8615.33
8002.62
8237.15
8517.34
8518.22
7874.38
8474.77
8536.69
7567.81
8297.4
8111.29
7732.04
8406.31
8105.88
8132.96
8134.66
8213.75
8180.78
8125.85
8113.8
7713.19
8377.73
8254.14
8224.34
8255.84
8173.04
8097.03
8035.83
8432.6
7662.15
8073.74
8159.5
7705.47
8425.72
8544.31
8289.27
8467.33
8520.48
8060.78
8227.92
8315.5
8465.81
8084.45
8349.38
7993.44
7761.75
8420.69
8027.04
8434.7
8591.76
8521
7754.39
8441.02
8289.1
8056.07
8124.15
8165.28
8113.44
7761.62
8521.18
7770.54
8513.68
8169.98
7995.57
8014.96
8231.66
8345.15
8542.03
8223.55
8613.49
8418
8424.39
7772.94
8416.33
8360.31
8448.98
8096.67
8054.53
7682.59
8198.28
8599.46
8489.35
7776.94
8006.92
7825.75
8094.22
8208.92
7981.62
8768.67
8138.9
8001.24
7796.68
8307.81
8065.95
7665.03
8223.5
8116.47
8112.14
8125.72
8129.39
7802.75
7974.74
7734.19
8140.02
8441.51
8308
8491.43
8455.46
8074.85
8024.43
7733.75
8074.6
8403.26
8489.63
8414.68
8393.37
7949.7
7706.48
8006.61
7663.49
8382.29
8409.12
8032.53
8413.85
8402.09
8468
8335.32
8240.63
8231.2
8074.36
7690.37
8026.83
7772.35
8020.98
8125.76
8101.57
7840.33
7754.17
8340.61
8593.27
8596.93
8524.43
8226.04
8319.15
8313.81
8222.75
8131.25
8208.63
8044.66
8173.46
8175.14
7749.99
8424.7
8164.74
8011.42
7838.03
8135.52
8217.41
8214.4
8106.44
7841.29
8515.94
8287.31
8117.2
8562
8046.81
7733.95
8366.25
8186.25
8177.7
8173.26
8102.41
7643.36
8248.17
8169.73
7774.81
8555.17
8152.24
7509.95
8123.94
8204.55
8221.26
8098.27
7764.14
8078.18
8091.18
7919.32
8179.87
7721.71
8198.92
8185.96
7891.37
8599.38
8166.16
7830.77
8679.32
8203.7
8206.83
7831.16
8182.33
7774.78
)
;
    }
}


// ************************************************************************* //
