/*--------------------------------*- C++ -*----------------------------------*\
| =========                 |                                                 |
| \\      /  F ield         | OpenFOAM: The Open Source CFD Toolbox           |
|  \\    /   O peration     | Version:  v1912                                 |
|   \\  /    A nd           | Website:  www.openfoam.com                      |
|    \\/     M anipulation  |                                                 |
\*---------------------------------------------------------------------------*/
FoamFile
{
    version     2.0;
    format      ascii;
    class       volScalarField;
    location    "318/oil";
    object      heatTransferCoeff(T);
}
// * * * * * * * * * * * * * * * * * * * * * * * * * * * * * * * * * * * * * //

dimensions      [1 0 -3 -1 0 0 0];


internalField   uniform 0;

boundaryField
{
    maxY
    {
        type            calculated;
        value           uniform 0;
    }
    minX
    {
        type            calculated;
        value           uniform 0;
    }
    maxX
    {
        type            calculated;
        value           uniform 0;
    }
    minY
    {
        type            calculated;
        value           uniform 0;
    }
    minZ
    {
        type            calculated;
        value           uniform 0;
    }
    maxZ
    {
        type            calculated;
        value           uniform 0;
    }
    oil_to_sphere
    {
        type            calculated;
        value           nonuniform List<scalar> 
1536
(
-24.6244
-19.8051
-19.7028
-10.9038
-10.6661
-19.5649
-15.6779
-17.2731
-16.6948
-11.6585
-8.12707
-12.3155
-16.6057
-12.5118
-6.97393
-15.1453
-19.5798
-19.9357
-14.886
-16.3554
-18.4038
-16.768
-17.1134
-15.0939
-15.5672
-15.3275
-15.5422
-14.5021
-19.2943
-16.9357
-20.7389
-19.836
-20.0066
-15.1886
-15.4752
-14.538
-14.9785
-13.5575
-14.4551
-15.5116
-14.2564
-14.9626
-16.5306
-17.527
-18.7142
-15.4518
-18.3412
-17.0753
-7.33362
-15.3068
-17.9539
-16.7652
-16.9789
-15.0815
-19.1365
-22.4437
-17.0541
-16.367
-18.3316
-17.8726
-16.4147
-16.5525
-16.3236
-14.9554
-15.4322
-16.2004
-16.3416
-18.0679
-18.0206
-19.1069
-14.9317
-10.7006
-12.2432
-15.3408
-15.3131
-22.7593
-20.0649
-13.6247
-15.1569
-19.774
-18.4678
-17.7651
-10.9212
-10.7909
-19.2694
-23.6994
-9.70677
-15.9336
-17.8832
-17.8569
-16.7081
-14.6976
-14.6225
-14.8386
-15.3098
-17.4829
-18.3817
-18.7077
-20.4116
-17.7456
-18.504
-14.8609
-24.7104
-18.0001
-12.0356
-15.2239
-15.6134
-11.2491
-11.212
-24.8421
-20.0138
-17.2567
-16.5187
-17.1329
-10.2379
-10.7245
-9.29704
-21.557
-24.1844
-20.2896
-16.9064
-17.1313
-14.4004
-18.3203
-20.6789
-17.5425
-16.8651
-14.0799
-18.6165
-18.3015
-16.2232
-18.1083
-19.0711
-15.656
-15.9628
-19.3449
-17.1575
-19.8149
-14.1723
-19.6279
-16.7362
-18.2498
-18.2975
-16.5959
-16.037
-16.4897
-17.5484
-21.4642
-16.1152
-24.9119
-18.9053
-19.7357
-17.0506
-17.3205
-15.3103
-17.5971
-19.3015
-18.3106
-25.7278
-20.5375
-20.0002
-21.7109
-12.8346
-13.6039
-14.7631
-14.6747
-19.0474
-21.19
-20.3892
-22.5248
-14.4955
-14.7975
-13.6788
-18.4064
-16.9356
-17.3624
-23.2829
-13.2713
-12.2248
-23.6927
-14.5525
-13.6672
-13.4899
-13.9403
-17.9674
-23.7135
-20.5754
-14.267
-12.7445
-19.8578
-13.0615
-19.0249
-19.0184
-21.1662
-12.2634
-5.95899
-20.9899
-21.648
-15.6236
-15.2694
-16.7922
-15.7258
-19.9417
-20.9362
-18.7968
-17.782
-14.8555
-21.3403
-20.4601
-17.3771
-14.0699
-15.4271
-15.2323
-15.8406
-18.4967
-22.6199
-12.85
-12.4286
-12.5715
-5.31707
-19.5784
-18.426
-17.7252
-16.7576
-16.9704
-21.3677
-18.9967
-15.4037
-19.6093
-11.7126
-14.5609
-6.18905
-16.5654
-19.325
-21.0139
-20.5281
-19.5897
-18.5749
-20.2647
-12.2263
-12.9163
-13.6608
-21.7522
-13.8401
-6.13632
-9.46329
-18.4545
-16.5309
-23.4029
-25.6511
-17.2197
-10.7944
-5.43782
-17.8572
-20.4213
-14.8489
-14.9967
-10.0054
-14.6699
-21.3507
-23.9112
-16.3664
-14.9945
-22.1812
-20.6293
-15.3795
-12.0299
-16.0274
-22.7746
-21.6204
-18.5867
-19.0378
-20.8083
-13.5002
-15.1856
-21.0672
-19.03
-19.7923
-16.5396
-19.6264
-22.4905
-18.7665
-18.3689
-21.9335
-14.907
-14.8375
-15.2783
-14.435
-14.7354
-21.2368
-22.9145
-12.4525
-15.8309
-15.5761
-15.7737
-14.2581
-16.9901
-16.503
-13.7257
-10.0792
-14.6078
-12.3669
-14.1942
-23.7305
-22.051
-21.9673
-25.2166
-13.1793
-13.5297
-16.8594
-24.9243
-23.967
-14.58
-16.5858
-14.3242
-18.9376
-15.0912
-18.3316
-18.7333
-20.1146
-19.1598
-15.5039
-19.3443
-14.5499
-20.8403
-21.465
-19.7591
-19.3726
-13.835
-23.0557
-22.869
-18.8807
-12.1461
-14.8574
-15.7242
-18.7548
-18.2777
-18.9754
-13.681
-20.7622
-20.951
-20.1437
-21.9368
-18.1006
-17.512
-16.3832
-12.9141
-17.5578
-18.8609
-12.8662
-12.5136
-13.3712
-24.4201
-20.6755
-21.9487
-18.2204
-17.435
-21.1643
-12.6323
-23.3807
-20.1003
-17.5195
-17.4286
-12.3289
-20.0798
-20.5627
-14.0273
-17.528
-16.2646
-15.0166
-18.9588
-20.6814
-16.5278
-15.3665
-13.2313
-22.627
-20.8705
-12.4784
-21.2143
-20.5542
-19.5857
-22.6082
-17.4555
-19.2083
-11.5828
-12.289
-18.7195
-24.9846
-19.8032
-23.395
-18.1766
-15.6458
-20.3859
-13.3677
-14.3412
-18.3264
-20.5936
-19.0323
-18.2641
-13.5752
-13.5559
-21.0933
-20.8742
-20.8852
-17.3616
-14.7123
-18.416
-19.3776
-20.5222
-17.637
-15.9705
-13.9004
-17.2097
-13.1449
-11.2653
-14.8113
-13.941
-17.278
-11.6819
-15.6972
-23.104
-15.5885
-15.5296
-20.5462
-20.4808
-18.8523
-16.2854
-12.7998
-19.7529
-21.9956
-18.6198
-17.7043
-19.9181
-16.6155
-17.1083
-18.1383
-10.8755
-18.6081
-20.9518
-21.9083
-20.3488
-19.2748
-19.0457
-17.6793
-16.087
-13.3721
-16.8973
-13.8825
-12.3408
-14.3141
-11.2203
-23.8784
-23.2207
-21.4871
-24.6844
-13.319
-23.9312
-13.6346
-14.5756
-19.5501
-13.0002
-13.4898
-15.754
-15.5725
-23.3885
-22.0316
-18.1519
-18.5005
-22.5421
-21.1273
-17.6245
-19.3459
-14.1342
-20.6007
-12.1311
-21.8559
-10.83
-19.1669
-19.746
-20.3554
-15.4735
-13.2889
-16.1845
-20.5033
-16.4108
-11.7926
-20.5871
-20.9507
-21.5968
-25.2374
-17.6717
-22.3561
-13.1353
-13.7449
-7.55557
-9.44581
-17.5795
-15.7202
-15.1084
-14.3253
-24.2648
-13.6756
-12.6187
-11.9409
-15.8103
-11.7397
-25.6713
-14.1274
-14.4803
-16.9415
-8.23786
-9.90493
-14.8453
-14.7195
-16.5218
-15.3432
-20.9166
-20.3259
-19.07
-17.5734
-11.3488
-15.0974
-20.1836
-13.3542
-14.0385
-19.7439
-22.6683
-14.1283
-7.55772
-12.9091
-8.11716
-16.8098
-15.4727
-14.4919
-12.1251
-8.1721
-18.9914
-19.6536
-18.2951
-16.7503
-22.8177
-19.1387
-18.7542
-17.4506
-13.7996
-15.2477
-20.901
-19.0938
-15.8808
-9.29592
-17.7488
-20.0381
-23.09
-17.9126
-14.9115
-23.0938
-17.0303
-22.4165
-14.078
-15.4379
-13.4489
-15.5785
-17.8113
-22.6551
-13.4432
-14.4009
-13.769
-15.8473
-25.7855
-12.2037
-15.1917
-12.5533
-16.9924
-17.7896
-20.9625
-22.806
-11.4642
-12.1615
-22.7498
-23.363
-10.3969
-22.486
-21.2269
-19.7923
-21.0971
-18.7772
-17.2436
-17.4829
-22.5949
-17.61
-18.8472
-17.203
-20.5446
-17.9505
-16.84
-16.5139
-12.8903
-19.761
-16.7625
-20.47
-19.255
-19.3675
-19.0754
-17.6536
-12.2957
-21.06
-21.034
-18.9309
-16.7877
-18.0525
-24.6832
-11.6809
-13.9906
-13.0557
-17.8086
-14.3207
-24.7269
-15.6145
-16.1107
-17.0658
-7.68724
-8.43549
-14.995
-14.895
-17.4337
-13.4439
-14.3233
-17.967
-14.5782
-22.8388
-13.0048
-24.4209
-15.6535
-17.6871
-6.21787
-8.26099
-7.47557
-14.5098
-19.7954
-15.1882
-14.5122
-8.16291
-17.2549
-20.082
-17.3426
-27.0506
-14.1056
-20.8999
-18.8922
-19.9455
-21.3466
-21.1732
-19.9293
-16.9611
-15.9805
-16.8847
-19.9599
-16.2969
-18.3547
-17.8793
-18.2703
-20.3791
-19.1044
-19.7474
-12.8269
-13.9051
-5.83368
-10.0506
-11.1324
-3.01219
-14.8623
-15.3569
-16.3049
-16.8277
-11.2414
-12.979
-15.8674
-21.651
-21.1424
-15.7778
-11.9106
-16.5985
-20.2541
-18.9271
-17.0521
-11.5867
-14.1022
-18.996
-18.0855
-16.9653
-15.0229
-19.4417
-19.5342
-22.6183
-19.5892
-17.7072
-15.3511
-14.2449
-12.7928
-14.8274
-16.4771
-24.9935
-17.5817
-23.7359
-14.2456
-25.3983
-14.8579
-16.4654
-13.1777
-13.6634
-15.39
-12.725
-16.2081
-11.6471
-15.0583
-20.8462
-15.6894
-12.4361
-22.9484
-19.3119
-18.4448
-16.6796
-22.4927
-27.6775
-10.1605
-19.1618
-18.2085
-18.837
-12.7109
-16.7468
-14.3019
-18.2352
-19.6603
-21.1362
-13.7716
-18.9758
-17.4168
-19.4946
-19.2052
-18.7117
-15.8249
-16.3912
-15.1349
-11.8563
-11.3356
-13.4174
-22.1969
-15.081
-12.6078
-15.2145
-20.9578
-16.1436
-22.1653
-20.3215
-18.6008
-17.6969
-18.5119
-23.1881
-13.425
-19.075
-21.2251
-21.7032
-17.6193
-14.2487
-16.0473
-18.5336
-21.8445
-13.1002
-16.4458
-17.4815
-20.8324
-18.5181
-18.4717
-22.3401
-13.1828
-14.4587
-13.8436
-23.221
-21.0849
-17.4988
-20.7927
-14.5045
-15.0646
-20.7749
-18.4511
-22.639
-13.6367
-20.0154
-20.6035
-17.8332
-18.2684
-19.7453
-13.7473
-11.0566
-17.1443
-18.47
-23.4187
-16.5495
-14.769
-16.8711
-18.5547
-19.9447
-17.685
-14.362
-16.5836
-20.5582
-13.2344
-14.3435
-16.5819
-14.9904
-18.1077
-17.6736
-21.6013
-18.8206
-20.3153
-15.1986
-16.922
-18.097
-16.7456
-16.0085
-15.3452
-15.273
-13.2933
-19.3788
-17.9763
-17.9697
-18.6294
-12.1557
-15.6019
-23.0471
-23.151
-14.3582
-20.8941
-18.5342
-19.3296
-15.2163
-21.7728
-21.4285
-13.53
-16.1314
-15.5314
-15.3346
-12.0231
-12.9943
-15.53
-21.3322
-24.7746
-14.7652
-19.7091
-19.3583
-18.4281
-16.3041
-18.1318
-21.576
-18.0148
-13.6795
-15.6374
-15.2189
-15.4514
-18.8462
-19.3469
-19.4071
-19.6401
-19.6239
-14.4015
-19.8808
-15.7603
-19.141
-8.17918
-18.6501
-22.053
-15.9901
-10.158
-17.0949
-16.4018
-23.6982
-13.9277
-19.8888
-16.8497
-10.9852
-22.8679
-12.4258
-16.4353
-17.2023
-12.1194
-20.9039
-18.1643
-16.3123
-17.5389
-18.1319
-16.4091
-23.9648
-12.5572
-15.4446
-6.95909
-15.8845
-16.0067
-17.3607
-20.8617
-27.9362
-11.7378
-15.5032
-26.3433
-12.4667
-19.5342
-14.2593
-19.32
-9.79812
-13.9581
-26.1805
-10.6723
-25.1588
-11.4546
-23.4594
-11.0753
-13.8669
-7.50332
-12.5912
-25.4998
-8.7375
-16.8096
-10.6579
-22.3938
-25.5624
-8.99949
-16.1204
-14.8287
-13.6891
-13.5244
-15.546
-17.2561
-17.2404
-19.1864
-16.8645
-22.4974
-26.7316
-8.90092
-17.3123
-18.5957
-17.2478
-17.8145
-16.6285
-16.0334
-16.6061
-20.1785
-16.7366
-20.2628
-15.387
-17.9736
-22.0658
-15.9506
-19.0053
-20.96
-15.358
-17.974
-16.8499
-19.1319
-16.4479
-17.5808
-16.0826
-20.7167
-15.6694
-18.3909
-11.4096
-22.7335
-9.21728
-18.4515
-20.5407
-22.8816
-14.0308
-17.7356
-16.8721
-17.7196
-17.4108
-16.7332
-20.108
-13.4662
-5.79621
-16.1792
-10.2213
-21.1559
-14.1259
-17.1352
-19.5186
-6.38486
-21.9181
-13.3387
-7.95805
-13.8774
-19.5548
-19.245
-17.3508
-8.8064
-17.2926
-17.9855
-14.7197
-14.1496
-21.2959
-20.6403
-15.1243
-17.4294
-21.3223
-8.93185
-20.1377
-14.0517
-19.0314
-9.3839
-24.7635
-24.2573
-20.5815
-17.2619
-16.055
-19.4386
-15.8467
-8.7368
-13.1136
-19.7097
-14.2675
-18.7797
-10.115
-21.0418
-19.0675
-4.03589
-17.3253
-18.2051
-6.70834
-22.0334
-11.2834
-21.2207
-22.79
-20.0309
-8.05674
-17.5413
-16.2
-17.3728
-17.6558
-18.7752
-8.99594
-15.3194
-14.3719
-14.4001
-20.9107
-17.0848
-18.334
-19.2569
-19.0297
-16.1332
-17.6824
-16.3658
-18.3542
-21.3879
-15.0962
-15.9317
-14.8396
-17.6212
-20.4953
-15.0428
-15.7954
-15.4186
-17.1462
-14.352
-14.6837
-15.7642
-16.0926
-17.6037
-15.6689
-22.635
-20.1433
-10.4867
-10.6551
-21.9874
-3.02507
-19.8122
-17.956
-14.3529
-16.1142
-22.2082
-6.39032
-21.097
-18.3185
-8.42222
-15.4909
-14.7286
-17.1701
-5.93446
-21.8899
-18.4922
-6.50623
-21.5288
-21.6486
-9.57123
-22.9222
-20.6225
-9.691
-14.8276
-14.3784
-6.50055
-17.2399
-17.7375
-13.2276
-14.0495
-13.7639
-4.40551
-13.933
-6.17905
-3.84681
-20.7822
-14.7963
-25.5034
-15.1298
-8.93694
-21.9528
-16.4577
-7.37349
-15.093
-14.8835
-7.26986
-10.6432
-21.7909
-1.61948
-13.1542
-12.4757
-3.03352
-21.1053
-20.263
-17.2081
-15.7032
-14.817
-13.1779
-5.25477
-17.348
-15.7701
-15.9765
-17.2236
-7.92808
-19.6539
-15.1035
-16.7061
-14.6933
-16.5525
-17.5773
-12.9201
-8.32614
-15.5751
-17.8344
-15.0079
-15.6978
-16.8608
-14.0296
-15.9016
-7.73608
-15.1343
-18.3171
-14.761
-16.1482
-14.1593
-8.47828
-22.1081
-21.9578
-21.4956
-22.9814
-9.51875
-6.76092
-15.2371
-19.9206
-17.7161
-19.485
-20.1715
-13.1668
-12.221
-6.9775
-9.0385
-13.9899
-16.7665
-16.4879
-16.2901
-12.2718
-20.8264
-18.3223
-9.782
-13.784
-12.9846
-20.0783
-14.1109
-5.22456
-16.8881
-17.0103
-21.0589
-7.56115
-14.8288
-17.6928
-15.363
-16.1119
-19.3295
-16.6636
-13.2709
-23.4127
-3.69729
-11.6281
-16.2885
-14.0764
-15.5837
-22.8903
-18.4878
-17.0897
-11.7044
-22.1205
-15.2835
-17.5702
-20.1573
-21.066
-20.7063
-21.0345
-22.5714
-23.5523
-22.3791
-22.3943
-17.2219
-20.3813
-15.0802
-16.1043
-12.1568
-10.9697
-4.50542
-23.0734
-22.7823
-21.4839
-15.8943
-17.6047
-17.313
-14.2142
-17.8553
-20.3073
-13.4311
-16.3481
-19.1162
-14.8099
-15.1823
-14.9544
-15.8349
-13.9867
-15.6929
-15.3242
-9.40438
-17.6502
-13.5145
-16.31
-7.25964
-23.0858
-16.5124
-14.506
-13.8292
-9.90258
-17.0074
-14.6304
-6.55322
-11.5854
-16.4007
-10.8302
-11.9034
-23.7438
-24.2376
-15.3717
-15.4099
-19.6991
-22.8101
-6.43629
-14.2228
-13.9899
-15.6073
-15.578
-15.9489
-16.6102
-12.1566
-8.59703
-21.9171
-15.4771
-11.267
-12.0701
-15.3568
-17.1274
-9.993
-16.1057
-14.2149
-15.077
-22.8886
-11.4061
-8.77921
-15.5881
-14.752
-13.9865
-8.71389
-21.1278
-15.3068
-15.0999
-15.327
-6.60991
-15.3882
-15.5664
-8.95545
-15.2689
-11.5569
-18.3217
-21.7304
-14.2143
-20.3549
-18.1118
-14.3598
-14.512
-15.7125
-8.73443
-18.079
-18.7
-14.9089
-7.56275
-12.8791
-16.1889
-16.5017
-14.2781
-8.27084
-14.459
-21.0711
-18.1478
-14.5719
-23.6139
-11.4123
-20.1582
-6.77671
-11.1819
-20.542
-6.63565
-20.7827
-14.5213
-17.107
-15.0952
-24.1151
-12.4368
-17.2067
-22.8897
-22.1111
-10.39
-21.7639
-22.9078
-3.27553
-16.1768
-14.703
-7.03775
-18.7115
-14.604
-15.1181
-15.1353
-16.6753
-15.992
-14.9128
-14.5378
-6.74989
-18.6652
-17.1151
-16.843
-17.5413
-15.8901
-14.3338
-12.9382
-19.6576
-5.44909
-13.8717
-13.7593
-5.87623
-20.5647
-23.3217
-16.5105
-21.4827
-22.1243
-14.1119
-14.4505
-18.5182
-21.4359
-13.9952
-19.0762
-12.0462
-7.09321
-19.7659
-13.4333
-21.0574
-23.6095
-22.7502
-7.56201
-20.2622
-17.2846
-13.2697
-14.8665
-15.6018
-14.6554
-7.73897
-21.4467
-8.03458
-21.2846
-15.8234
-12.0504
-11.2818
-15.962
-19.2409
-22.4563
-16.9294
-24.9542
-19.8701
-20.8171
-6.49051
-20.3402
-19.4548
-21.0954
-14.1431
-13.3729
-5.42019
-16.4266
-24.5935
-21.547
-8.47782
-12.3601
-8.01624
-14.1345
-16.6196
-11.9251
-27.1917
-15.1446
-12.3802
-8.72006
-18.0924
-13.4786
-6.01251
-16.1419
-14.5693
-14.7044
-14.8654
-14.9339
-8.80982
-12.0081
-7.09705
-14.6425
-19.8561
-18.3608
-21.7825
-21.0888
-13.8825
-12.9397
-6.73234
-14.3628
-19.3352
-22.2177
-19.8468
-20.0972
-11.2931
-5.78103
-12.5169
-5.09323
-19.6665
-20.0346
-12.9589
-20.6901
-19.5943
-21.7776
-17.8829
-17.1224
-16.985
-13.8815
-6.51172
-12.7169
-7.5385
-11.8044
-14.8709
-14.2699
-9.41506
-7.50242
-19.0005
-24.6295
-23.6541
-22.758
-16.8683
-18.8294
-18.6551
-16.4503
-14.8531
-16.4368
-13.2381
-15.8058
-15.8475
-7.54499
-19.5989
-15.472
-12.3908
-9.25648
-14.5235
-16.7579
-16.7056
-14.2937
-9.30352
-22.4694
-18.0107
-14.6736
-23.5004
-13.3996
-7.15746
-18.4383
-15.8417
-15.8801
-15.8762
-14.4041
-5.37288
-15.9338
-15.7495
-8.10802
-22.229
-15.2969
-1.68578
-14.8495
-16.5546
-16.8717
-14.3725
-7.72223
-13.7206
-13.964
-10.9518
-16.0844
-6.76197
-16.3114
-16.0376
-10.5387
-23.4229
-15.7193
-8.95218
-24.4485
-16.4581
-16.4586
-9.17442
-16.0333
-8.00735
)
;
    }
}


// ************************************************************************* //
