/*--------------------------------*- C++ -*----------------------------------*\
| =========                 |                                                 |
| \\      /  F ield         | OpenFOAM: The Open Source CFD Toolbox           |
|  \\    /   O peration     | Version:  v1906                                 |
|   \\  /    A nd           | Web:      www.OpenFOAM.com                      |
|    \\/     M anipulation  |                                                 |
\*---------------------------------------------------------------------------*/
FoamFile
{
    version     2.0;
    format      ascii;
    class       surfaceScalarField;
    location    "35.4/oil";
    object      phi;
}
// * * * * * * * * * * * * * * * * * * * * * * * * * * * * * * * * * * * * * //

dimensions      [1 0 -1 0 0 0 0];
oriented        oriented;


internalField   nonuniform List<scalar> 
80688
(
-2.37375e-06
-2.41467e-06
-2.37375e-06
-1.0725e-06
-6.72828e-07
-6.28429e-07
-2.92861e-07
-3.92227e-07
-3.87407e-07
-1.45948e-07
-7.37356e-08
-7.31779e-08
-6.15196e-08
-4.25605e-08
-4.18676e-08
-2.20582e-08
-2.01721e-08
-1.92894e-08
-1.80646e-09
-1.06004e-08
-9.65132e-09
8.86934e-09
-5.84171e-09
-4.83413e-09
1.42433e-08
-3.25406e-09
-2.11991e-09
1.62167e-08
-1.65712e-09
-3.16349e-10
1.57384e-08
-5.50936e-10
1.02923e-09
1.33628e-08
2.66552e-10
2.10896e-09
9.52785e-09
8.82092e-10
2.95288e-09
4.67602e-09
1.30107e-09
3.55076e-09
-7.27104e-10
1.52793e-09
3.87518e-09
-6.20218e-09
1.56315e-09
3.91192e-09
-1.12863e-08
1.415e-09
3.66907e-09
-1.557e-08
1.10327e-09
3.1805e-09
-1.87342e-08
6.59181e-10
2.50495e-09
-2.05703e-08
1.19476e-10
1.71667e-09
-2.10061e-08
-4.61212e-10
8.97023e-10
-2.00912e-08
-1.04921e-09
1.34316e-10
-1.79804e-08
-1.60267e-09
-5.0818e-10
-1.49415e-08
-2.08388e-09
-9.54986e-10
-1.13278e-08
-2.45285e-09
-1.16085e-09
-7.56214e-09
-2.65733e-09
-1.10839e-09
-4.11913e-09
-2.62206e-09
-8.20966e-10
-1.4878e-09
-2.24222e-09
-3.89124e-10
-8.14635e-11
-1.38892e-09
-1.74258e-11
-1.69854e-10
8.83821e-11
-6.39647e-07
-1.13538e-06
-6.39647e-07
-3.84534e-07
-4.13804e-07
-5.14137e-07
-2.77096e-07
-2.78091e-07
-2.21574e-07
-1.39686e-07
-1.20597e-07
-9.05488e-08
-6.27301e-08
-7.24661e-08
-4.70503e-08
-1.87433e-08
-4.33412e-08
-2.08177e-08
7.55124e-09
-2.94565e-08
-7.43849e-09
2.29915e-08
-2.16171e-08
3.35064e-10
3.1205e-08
-1.68465e-08
5.37896e-09
3.4009e-08
-1.35799e-08
9.11873e-09
3.24592e-08
-1.11356e-08
1.21345e-08
2.73309e-08
-9.2302e-09
1.46249e-08
1.93783e-08
-7.7686e-09
1.66033e-08
9.41972e-09
-6.74784e-09
1.80075e-08
-1.63617e-09
-6.18463e-09
1.87684e-08
-1.28351e-08
-6.08779e-09
1.88498e-08
-2.32491e-08
-6.43819e-09
1.82672e-08
-3.20578e-08
-7.18214e-09
1.70941e-08
-3.86207e-08
-8.23468e-09
1.54568e-08
-4.2528e-08
-9.48713e-09
1.35139e-08
-4.36192e-08
-1.08193e-08
1.14492e-08
-4.19915e-08
-1.21088e-08
9.43191e-09
-3.79753e-08
-1.32344e-08
7.61549e-09
-3.20988e-08
-1.40758e-08
6.11537e-09
-2.50512e-08
-1.45007e-08
5.00029e-09
-1.76347e-08
-1.43456e-08
4.2717e-09
-1.07032e-08
-1.33944e-08
3.84086e-09
-5.07321e-09
-1.13651e-08
3.4929e-09
-1.38763e-09
-7.91145e-09
2.83693e-09
-2.9528e-09
1.3953e-09
-3.9885e-07
-3.37681e-07
-3.98849e-07
-2.68696e-07
-3.16608e-07
-2.2735e-07
-1.82565e-07
-2.22406e-07
-1.41816e-07
-9.81358e-08
-1.33332e-07
-7.16943e-08
-4.25288e-08
-9.29839e-08
-3.50893e-08
-5.00367e-09
-6.7914e-08
-1.29523e-08
1.97179e-08
-5.40828e-08
-9.52931e-11
3.52704e-08
-4.53773e-08
8.20766e-09
4.36886e-08
-3.94707e-08
1.42061e-08
4.61454e-08
-3.50299e-08
1.89932e-08
4.34478e-08
-3.14695e-08
2.30315e-08
3.6334e-08
-2.85618e-08
2.64454e-08
2.56527e-08
-2.62698e-08
2.91825e-08
1.24095e-08
-2.4639e-08
3.11344e-08
-2.23837e-09
-2.37282e-08
3.21915e-08
-1.70606e-08
-2.35642e-08
3.22987e-08
-3.08541e-08
-2.41187e-08
3.14739e-08
-4.25504e-08
-2.53004e-08
2.98146e-08
-5.1319e-08
-2.6958e-08
2.74919e-08
-5.66252e-08
-2.89009e-08
2.47199e-08
-5.8272e-08
-3.09131e-08
2.17406e-08
-5.63854e-08
-3.27722e-08
1.87768e-08
-5.13928e-08
-3.42562e-08
1.60293e-08
-4.39663e-08
-3.51379e-08
1.36356e-08
-3.49668e-08
-3.51684e-08
1.16682e-08
-2.53732e-08
-3.40479e-08
1.01087e-08
-1.61926e-08
-3.13965e-08
8.82145e-09
-8.3635e-09
-2.67109e-08
7.51674e-09
-2.67385e-09
-1.93031e-08
5.70199e-09
-8.30821e-09
2.68155e-09
-7.7362e-08
-1.82958e-07
-7.7361e-08
-1.04525e-07
-1.97785e-07
-9.16595e-08
-8.52775e-08
-1.70453e-07
-7.12008e-08
-4.736e-08
-1.32231e-07
-3.90187e-08
-1.37246e-08
-1.0923e-07
-1.73896e-08
1.34564e-08
-9.28703e-08
-2.22467e-09
3.35216e-08
-8.22663e-08
8.11821e-09
4.69827e-08
-7.46144e-08
1.5776e-08
5.42595e-08
-6.86896e-08
2.1942e-08
5.57165e-08
-6.37369e-08
2.72499e-08
5.17688e-08
-5.94515e-08
3.19298e-08
4.30015e-08
-5.57752e-08
3.59807e-08
3.02521e-08
-5.27892e-08
3.92688e-08
1.46136e-08
-5.06278e-08
4.16272e-08
-2.61168e-09
-4.94074e-08
4.29045e-08
-2.00143e-08
-4.9185e-08
4.30233e-08
-3.62071e-08
-4.99272e-08
4.20014e-08
-4.99587e-08
-5.15049e-08
3.99561e-08
-6.03086e-08
-5.37004e-08
3.70922e-08
-6.66488e-08
-5.6231e-08
3.36703e-08
-6.8756e-08
-5.8779e-08
2.99731e-08
-6.67839e-08
-6.10147e-08
2.62704e-08
-6.12183e-08
-6.26091e-08
2.27872e-08
-5.28179e-08
-6.32172e-08
1.96789e-08
-4.25341e-08
-6.24701e-08
1.7018e-08
-3.14292e-08
-5.99246e-08
1.47717e-08
-2.0587e-08
-5.50152e-08
1.27766e-08
-1.10245e-08
-4.69704e-08
1.06969e-08
-3.70261e-09
-3.45945e-08
7.9695e-09
-1.57225e-08
3.71164e-09
-3.98015e-08
-1.03356e-07
-3.97999e-08
-4.95396e-08
-1.4356e-07
-4.44873e-08
-3.78245e-08
-1.48737e-07
-3.34312e-08
-1.49536e-08
-1.38203e-07
-1.68982e-08
8.39639e-09
-1.28947e-07
-3.63254e-09
2.92159e-08
-1.20576e-07
6.88618e-09
4.56947e-08
-1.13891e-07
1.51463e-08
5.71212e-08
-1.08096e-07
2.20551e-08
6.30937e-08
-1.02843e-07
2.81808e-08
6.34664e-08
-9.79136e-08
3.3804e-08
5.83585e-08
-9.33025e-08
3.89589e-08
4.82168e-08
-8.91511e-08
4.35174e-08
3.38408e-08
-8.56803e-08
4.72671e-08
1.63658e-08
-8.31234e-08
4.99706e-08
-2.80779e-09
-8.16679e-08
5.14341e-08
-2.21453e-08
-8.14032e-08
5.15556e-08
-4.01258e-08
-8.22956e-08
5.0349e-08
-5.53991e-08
-8.41822e-08
4.79506e-08
-6.69164e-08
-8.67826e-08
4.45996e-08
-7.4021e-08
-8.97267e-08
4.06003e-08
-7.6479e-08
-9.26026e-08
3.62816e-08
-7.44654e-08
-9.49766e-08
3.19482e-08
-6.85131e-08
-9.6408e-08
2.78466e-08
-5.94327e-08
-9.64489e-08
2.41512e-08
-4.82284e-08
-9.46089e-08
2.09345e-08
-3.60103e-08
-9.02969e-08
1.81543e-08
-2.39073e-08
-8.27465e-08
1.56282e-08
-1.3012e-08
-7.08514e-08
1.29857e-08
-4.45101e-09
-5.27625e-08
9.60702e-09
-2.46356e-08
4.46213e-09
-1.47163e-08
-7.39261e-08
-1.47141e-08
-1.67207e-08
-1.24991e-07
-1.65641e-08
-8.31178e-09
-1.46223e-07
-1.09227e-08
7.44995e-09
-1.51905e-07
-2.06029e-09
2.50607e-08
-1.5285e-07
6.292e-09
4.17984e-08
-1.51144e-07
1.38297e-08
5.56523e-08
-1.48351e-07
2.06057e-08
6.53939e-08
-1.44773e-07
2.69354e-08
7.01951e-08
-1.40665e-07
3.30214e-08
6.95952e-08
-1.36223e-07
3.8909e-08
6.35112e-08
-1.317e-07
4.44819e-08
5.22735e-08
-1.27419e-07
4.95057e-08
3.66393e-08
-1.23731e-07
5.36846e-08
1.77698e-08
-1.20967e-07
5.67132e-08
-2.86787e-09
-1.19379e-07
5.8349e-08
-2.36458e-08
-1.19091e-07
5.84657e-08
-4.29453e-08
-1.20071e-07
5.7075e-08
-5.9325e-08
-1.22131e-07
5.43282e-08
-7.16752e-08
-1.24935e-07
5.05029e-08
-7.93101e-08
-1.28044e-07
4.59519e-08
-8.19973e-08
-1.30966e-07
4.10502e-08
-7.99356e-08
-1.33173e-07
3.61345e-08
-7.36947e-08
-1.3414e-07
3.14909e-08
-6.41222e-08
-1.33319e-07
2.72973e-08
-5.2257e-08
-1.30104e-07
2.36299e-08
-3.92357e-08
-1.23758e-07
2.04395e-08
-2.6224e-08
-1.13289e-07
1.75305e-08
-1.43745e-08
-9.72066e-08
1.45057e-08
-4.95009e-09
-7.28826e-08
1.06956e-08
-3.45491e-08
4.96337e-09
-4.13585e-09
-6.56571e-08
-4.1331e-09
-1.35972e-09
-1.24805e-07
-2.96237e-09
7.51452e-09
-1.5626e-07
1.16282e-09
2.10092e-08
-1.72238e-07
6.83871e-09
3.6072e-08
-1.80627e-07
1.27145e-08
5.06093e-08
-1.84276e-07
1.85947e-08
6.28212e-08
-1.85044e-07
2.44808e-08
7.13784e-08
-1.838e-07
3.04695e-08
7.52988e-08
-1.8117e-07
3.65842e-08
7.39605e-08
-1.77618e-07
4.27339e-08
6.71568e-08
-1.73597e-07
4.87006e-08
5.51391e-08
-1.69565e-07
5.41631e-08
3.8633e-08
-1.65971e-07
5.8746e-08
1.88039e-08
-1.63223e-07
6.20854e-08
-2.83087e-09
-1.61631e-07
6.38862e-08
-2.45795e-08
-1.61336e-07
6.39941e-08
-4.47538e-08
-1.62315e-07
6.24186e-08
-6.18491e-08
-1.64365e-07
5.93298e-08
-7.47174e-08
-1.67115e-07
5.50476e-08
-8.26567e-08
-1.70073e-07
4.99687e-08
-8.54489e-08
-1.7269e-07
4.45168e-08
-8.33189e-08
-1.74379e-07
3.90767e-08
-7.68692e-08
-1.74542e-07
3.39524e-08
-6.69729e-08
-1.72552e-07
2.93371e-08
-5.46897e-08
-1.67697e-07
2.53101e-08
-4.11705e-08
-1.59091e-07
2.18137e-08
-2.75999e-08
-1.455e-07
1.86406e-08
-1.51725e-08
-1.25011e-07
1.53767e-08
-5.23586e-09
-9.41368e-08
1.13175e-08
-4.50359e-08
5.25095e-09
7.01418e-10
-6.70629e-08
7.04385e-10
6.43673e-09
-1.344e-07
3.85897e-09
1.61692e-08
-1.73585e-07
7.59284e-09
2.89006e-08
-1.9687e-07
1.19006e-08
4.27175e-08
-2.10975e-07
1.65313e-08
5.59725e-08
-2.19042e-07
2.1512e-08
6.71045e-08
-2.23067e-07
2.68911e-08
7.48313e-08
-2.24225e-07
3.26987e-08
7.81219e-08
-2.23338e-07
3.88775e-08
7.62945e-08
-2.2105e-07
4.52592e-08
6.9065e-08
-2.1793e-07
5.15624e-08
5.66291e-08
-2.14535e-07
5.7406e-08
3.96787e-08
-2.11369e-07
6.23489e-08
1.93805e-08
-2.08887e-07
6.5962e-08
-2.73066e-09
-2.07422e-07
6.79023e-08
-2.49301e-08
-2.07137e-07
6.80003e-08
-4.54941e-08
-2.08012e-07
6.62604e-08
-6.28834e-08
-2.0984e-07
6.28638e-08
-7.5935e-08
-2.12232e-07
5.81688e-08
-8.39488e-08
-2.14686e-07
5.2627e-08
-8.67285e-08
-2.16618e-07
4.67079e-08
-8.45282e-08
-2.17409e-07
4.08294e-08
-7.79696e-08
-2.16415e-07
3.5314e-08
-6.79437e-08
-2.12948e-07
3.03704e-08
-5.55149e-08
-2.06207e-07
2.60805e-08
-4.18305e-08
-1.95156e-07
2.23813e-08
-2.80712e-08
-1.78313e-07
1.90541e-08
-1.54446e-08
-1.53311e-07
1.56742e-08
-5.33179e-09
-1.15771e-07
1.15214e-08
-5.57157e-08
5.34802e-09
2.84996e-09
-7.27658e-08
2.85288e-09
1.00848e-08
-1.4872e-07
7.0854e-09
2.03519e-08
-1.94581e-07
1.07287e-08
3.26993e-08
-2.23631e-07
1.44132e-08
4.57333e-08
-2.42403e-07
1.83935e-08
5.80874e-08
-2.54259e-07
2.28627e-08
6.84079e-08
-2.61309e-07
2.79215e-08
7.54952e-08
-2.649e-07
3.35877e-08
7.83491e-08
-2.65978e-07
3.97856e-08
7.62605e-08
-2.65271e-07
4.63094e-08
6.89227e-08
-2.63426e-07
5.28339e-08
5.64753e-08
-2.61022e-07
5.89346e-08
3.95798e-08
-2.5859e-07
6.4116e-08
1.93802e-08
-2.56597e-07
6.79096e-08
-2.5964e-09
-2.5539e-07
6.99445e-08
-2.46376e-08
-2.55126e-07
7.00303e-08
-4.50269e-08
-2.55792e-07
6.81689e-08
-6.22331e-08
-2.57186e-07
6.45529e-08
-7.50993e-08
-2.58939e-07
5.9573e-08
-8.29488e-08
-2.60544e-07
5.3707e-08
-8.56095e-08
-2.61415e-07
4.74574e-08
-8.33588e-08
-2.60944e-07
4.12837e-08
-7.68284e-08
-2.5847e-07
3.55245e-08
-6.69147e-08
-2.53257e-07
3.03946e-08
-5.46595e-08
-2.44428e-07
2.59662e-08
-4.11839e-08
-2.30807e-07
2.21749e-08
-2.76378e-08
-2.10669e-07
1.88093e-08
-1.52043e-08
-1.8118e-07
1.54354e-08
-5.24642e-09
-1.37061e-07
1.13317e-08
-6.62251e-08
5.26296e-09
3.68495e-09
-8.01383e-08
3.68753e-09
1.14229e-08
-1.64776e-07
8.3181e-09
2.16782e-08
-2.16677e-07
1.18406e-08
3.34848e-08
-2.50591e-07
1.5153e-08
4.56986e-08
-2.73338e-07
1.87209e-08
5.71586e-08
-2.88538e-07
2.28188e-08
6.66902e-08
-2.9843e-07
2.75896e-08
7.31811e-08
-3.04452e-07
3.30606e-08
7.57009e-08
-3.07638e-07
3.91408e-08
7.35592e-08
-3.08755e-07
4.56256e-08
6.64198e-08
-3.08455e-07
5.21678e-08
5.44029e-08
-3.0732e-07
5.83154e-08
3.81263e-08
-3.05869e-07
6.35565e-08
1.86837e-08
-3.04557e-07
6.74022e-08
-2.45116e-09
-3.03703e-07
6.9448e-08
-2.36302e-08
-3.03468e-07
6.95208e-08
-4.3202e-08
-3.03841e-07
6.76217e-08
-5.96815e-08
-3.04634e-07
6.39269e-08
-7.19563e-08
-3.05501e-07
5.88372e-08
-7.93907e-08
-3.05969e-07
5.28591e-08
-8.18364e-08
-3.05491e-07
4.65213e-08
-7.95863e-08
-3.03469e-07
4.02756e-08
-7.3272e-08
-2.99258e-07
3.44744e-08
-6.37547e-08
-2.92107e-07
2.93327e-08
-5.2037e-08
-2.81071e-07
2.49249e-08
-3.91811e-08
-2.64852e-07
2.11896e-08
-2.62825e-08
-2.4147e-07
1.79029e-08
-1.44519e-08
-2.07663e-07
1.46524e-08
-4.9834e-09
-1.57282e-07
1.07525e-08
-7.62079e-08
4.99942e-09
3.80734e-09
-8.77546e-08
3.80899e-09
1.13195e-08
-1.80635e-07
8.34691e-09
2.09834e-08
-2.37969e-07
1.1628e-08
3.18625e-08
-2.76068e-07
1.45985e-08
4.2987e-08
-3.02248e-07
1.77853e-08
5.33596e-08
-3.20415e-07
2.1504e-08
6.19509e-08
-3.32933e-07
2.59112e-08
6.7785e-08
-3.41321e-07
3.10355e-08
7.00043e-08
-3.46652e-07
3.67939e-08
6.7963e-08
-3.49695e-07
4.29813e-08
6.1337e-08
-3.51081e-07
4.92525e-08
5.02198e-08
-3.51371e-07
5.51674e-08
3.517e-08
-3.51034e-07
6.02142e-08
1.72032e-08
-3.50501e-07
6.39108e-08
-2.31263e-09
-3.50051e-07
6.5864e-08
-2.1855e-08
-3.49849e-07
6.59228e-08
-3.98993e-08
-3.49879e-07
6.40816e-08
-5.50571e-08
-3.49978e-07
6.05019e-08
-6.6308e-08
-3.49828e-07
5.55778e-08
-7.30698e-08
-3.48995e-07
4.97878e-08
-7.52115e-08
-3.46997e-07
4.36484e-08
-7.30395e-08
-3.4326e-07
3.76188e-08
-6.71552e-08
-3.37185e-07
3.20427e-08
-5.83616e-08
-3.2802e-07
2.71197e-08
-4.75833e-08
-3.14772e-07
2.29229e-08
-3.57986e-08
-2.96032e-07
1.93948e-08
-2.39924e-08
-2.69609e-07
1.63326e-08
-1.31819e-08
-2.31818e-07
1.33443e-08
-4.54356e-09
-1.75708e-07
9.78766e-09
-8.53098e-08
4.55834e-09
3.49237e-09
-9.47402e-08
3.49316e-09
1.02172e-08
-1.94924e-07
7.56446e-09
1.87533e-08
-2.56948e-07
1.04428e-08
2.82528e-08
-2.9858e-07
1.30121e-08
3.79094e-08
-3.27681e-07
1.57772e-08
4.6877e-08
-3.48416e-07
1.90337e-08
5.42947e-08
-3.63279e-07
2.2929e-08
5.93343e-08
-3.73866e-07
2.75055e-08
6.1232e-08
-3.81234e-07
3.26845e-08
5.9428e-08
-3.86165e-07
3.82741e-08
5.36242e-08
-3.89238e-07
4.39611e-08
4.38706e-08
-3.90953e-07
4.93354e-08
3.0675e-08
-3.91753e-07
5.39151e-08
1.4914e-08
-3.92e-07
5.72602e-08
-2.19161e-09
-3.91963e-07
5.9017e-08
-1.93084e-08
-3.91793e-07
5.90613e-08
-3.5097e-08
-3.91485e-07
5.73946e-08
-4.83386e-08
-3.90869e-07
5.41329e-08
-5.81213e-08
-3.89674e-07
4.96283e-08
-6.39341e-08
-3.87518e-07
4.43359e-08
-6.57057e-08
-3.83961e-07
3.87349e-08
-6.37023e-08
-3.78514e-07
3.32504e-08
-5.84738e-08
-3.70605e-07
2.81916e-08
-5.07423e-08
-3.59491e-07
2.374e-08
-4.13177e-08
-3.44165e-07
1.99684e-08
-3.10436e-08
-3.23122e-07
1.68163e-08
-2.07846e-08
-2.93975e-07
1.4107e-08
-1.14117e-08
-2.52694e-07
1.15027e-08
-3.92778e-09
-1.9163e-07
8.43836e-09
-9.31783e-08
3.94064e-09
2.88485e-09
-1.0051e-07
2.88511e-09
8.38084e-09
-2.06631e-07
6.21014e-09
1.53053e-08
-2.72408e-07
8.5357e-09
2.29796e-08
-3.16857e-07
1.06024e-08
3.07514e-08
-3.48297e-07
1.28439e-08
3.79699e-08
-3.71147e-07
1.55123e-08
4.3953e-08
-3.87989e-07
1.87271e-08
4.80254e-08
-4.00475e-07
2.2536e-08
4.95744e-08
-4.09654e-07
2.68711e-08
4.81215e-08
-4.16282e-07
3.15694e-08
4.34073e-08
-4.2089e-07
3.63658e-08
3.54713e-08
-4.23908e-07
4.08917e-08
2.47147e-08
-4.25733e-07
4.47365e-08
1.18549e-08
-4.26676e-07
4.75362e-08
-2.09487e-09
-4.27007e-07
4.89941e-08
-1.60429e-08
-4.26866e-07
4.9021e-08
-2.88966e-08
-4.26247e-07
4.76157e-08
-3.96299e-08
-4.25001e-07
4.48653e-08
-4.75099e-08
-4.22857e-07
4.1063e-08
-5.21374e-08
-4.19479e-07
3.65885e-08
-5.34576e-08
-4.145e-07
3.1859e-08
-5.17121e-08
-4.07489e-07
2.72291e-08
-4.73664e-08
-3.97915e-07
2.2964e-08
-4.10233e-08
-3.85071e-07
1.92359e-08
-3.33386e-08
-3.67943e-07
1.60934e-08
-2.50107e-08
-3.44938e-07
1.34883e-08
-1.67213e-08
-3.13545e-07
1.12803e-08
-9.16378e-09
-2.69439e-07
9.18733e-09
-3.15173e-09
-2.04388e-07
6.74636e-09
-9.94925e-08
3.16245e-09
2.06773e-09
-1.04642e-07
2.06444e-09
5.98053e-09
-2.14964e-07
4.42049e-09
1.09002e-08
-2.83384e-07
6.05648e-09
1.63434e-08
-3.29828e-07
7.52803e-09
2.1871e-08
-3.62972e-07
9.14763e-09
2.70217e-08
-3.87398e-07
1.11007e-08
3.13132e-08
-4.05774e-07
1.34933e-08
3.4259e-08
-4.19769e-07
1.63483e-08
3.54142e-08
-4.30431e-07
1.96222e-08
3.44132e-08
-4.38466e-07
2.31856e-08
3.10471e-08
-4.44356e-07
2.6832e-08
2.53252e-08
-4.48484e-07
3.02978e-08
1.75143e-08
-4.51183e-07
3.32605e-08
8.14978e-09
-4.52733e-07
3.54214e-08
-2.0226e-09
-4.53376e-07
3.65413e-08
-1.21808e-08
-4.53258e-07
3.65498e-08
-2.14987e-08
-4.52376e-07
3.54473e-08
-2.92318e-08
-4.50571e-07
3.33032e-08
-3.48407e-08
-4.47613e-07
3.03654e-08
-3.80475e-08
-4.43198e-07
2.69256e-08
-3.88374e-08
-4.37012e-07
2.33022e-08
-3.74191e-08
-4.28691e-07
1.97843e-08
-3.41494e-08
-4.17752e-07
1.65675e-08
-2.94752e-08
-4.03513e-07
1.37685e-08
-2.38851e-08
-3.84968e-07
1.14345e-08
-1.78701e-08
-3.60479e-07
9.52574e-09
-1.19129e-08
-3.27427e-07
7.92538e-09
-6.51449e-09
-2.81282e-07
6.44482e-09
-2.23236e-09
-2.13417e-07
4.74681e-09
-1.03966e-07
2.24072e-09
1.1004e-09
-1.06839e-07
1.09665e-09
3.16742e-09
-2.1935e-07
2.31904e-09
5.77979e-09
-2.89166e-07
3.16981e-09
8.68417e-09
-3.36694e-07
3.96136e-09
1.16622e-08
-3.70824e-07
4.87374e-09
1.44756e-08
-3.96228e-07
6.01605e-09
1.68638e-08
-4.1561e-07
7.44764e-09
1.85509e-08
-4.30638e-07
9.18189e-09
1.92789e-08
-4.4236e-07
1.12009e-08
1.88068e-08
-4.51435e-07
1.34412e-08
1.69785e-08
-4.58305e-07
1.57771e-08
1.37793e-08
-4.63311e-07
1.80261e-08
9.32942e-09
-4.66705e-07
1.99714e-08
3.92795e-09
-4.68753e-07
2.14212e-08
-1.97194e-09
-4.69656e-07
2.21798e-08
-7.84651e-09
-4.69552e-07
2.21693e-08
-1.31753e-08
-4.6844e-07
2.13929e-08
-1.75013e-08
-4.66175e-07
1.99292e-08
-2.05307e-08
-4.62557e-07
1.79732e-08
-2.21323e-08
-4.57327e-07
1.57306e-08
-2.23344e-08
-4.50235e-07
1.34248e-08
-2.13034e-08
-4.40938e-07
1.12158e-08
-1.92713e-08
-4.29015e-07
9.23075e-09
-1.64907e-08
-4.13835e-07
7.54136e-09
-1.32625e-08
-3.9435e-07
6.15415e-09
-9.8473e-09
-3.68945e-07
5.0503e-09
-6.52396e-09
-3.34915e-07
4.1645e-09
-3.54174e-09
-2.87646e-07
3.38171e-09
-1.20411e-09
-2.18265e-07
2.50993e-09
-1.0638e-07
1.21041e-09
3.89096e-11
-1.06912e-07
3.37321e-11
1.02674e-10
-2.19434e-07
2.01095e-11
1.93446e-10
-2.89272e-07
1.53634e-11
3.47316e-10
-3.36919e-07
7.13256e-11
5.73656e-10
-3.71268e-07
2.17713e-10
8.68907e-10
-3.96998e-07
4.74514e-10
1.20795e-09
-4.16806e-07
8.56375e-10
1.54199e-09
-4.32352e-07
1.37992e-09
1.80063e-09
-4.44663e-07
2.04363e-09
1.89877e-09
-4.54367e-07
2.83353e-09
1.75338e-09
-4.61877e-07
3.71787e-09
1.28392e-09
-4.67493e-07
4.65127e-09
4.66801e-10
-4.71422e-07
5.53471e-09
-6.49142e-10
-4.73877e-07
6.24006e-09
-1.93511e-09
-4.74999e-07
6.62883e-09
-3.18613e-09
-4.74904e-07
6.60225e-09
-4.20189e-09
-4.73591e-07
6.16679e-09
-4.8536e-09
-4.70944e-07
5.42075e-09
-5.11047e-09
-4.66818e-07
4.51815e-09
-4.99185e-09
-4.61021e-07
3.57604e-09
-4.59588e-09
-4.53325e-07
2.69417e-09
-4.00007e-09
-4.43461e-07
1.92699e-09
-3.29637e-09
-4.31015e-07
1.2964e-09
-2.58038e-09
-4.15364e-07
8.12197e-10
-1.88855e-09
-3.95513e-07
4.71332e-10
-1.27594e-09
-3.69811e-07
2.53204e-10
-7.56047e-10
-3.35575e-07
1.40013e-10
-3.61627e-10
-2.88148e-07
1.08284e-10
-1.02928e-10
-2.18646e-07
1.21963e-10
-1.06591e-07
1.07574e-10
-1.06464e-09
-1.04778e-07
-1.06986e-09
-3.08821e-09
-2.15045e-07
-2.36486e-09
-5.59213e-09
-2.83518e-07
-3.25023e-09
-8.28227e-09
-3.30275e-07
-3.95377e-09
-1.08925e-08
-3.64056e-07
-4.60161e-09
-1.32019e-08
-3.89424e-07
-5.2642e-09
-1.49911e-08
-4.09032e-07
-5.98471e-09
-1.60781e-08
-4.24505e-07
-6.76016e-09
-1.63273e-08
-4.36848e-07
-7.56505e-09
-1.56701e-08
-4.46682e-07
-8.34212e-09
-1.41191e-08
-4.54403e-07
-9.02576e-09
-1.17759e-08
-4.60274e-07
-9.56201e-09
-8.81843e-09
-4.64471e-07
-9.90918e-09
-5.45839e-09
-4.67156e-07
-1.00813e-08
-1.90528e-09
-4.68408e-07
-1.01438e-08
1.68871e-09
-4.6832e-07
-1.01773e-08
5.16344e-09
-4.66882e-07
-1.01844e-08
8.31507e-09
-4.64016e-07
-1.0079e-08
1.09084e-08
-4.5964e-07
-9.77144e-09
1.27572e-08
-4.53615e-07
-9.25542e-09
1.37463e-08
-4.45743e-07
-8.57077e-09
1.38531e-08
-4.35791e-07
-7.77655e-09
1.31369e-08
-4.23357e-07
-6.94183e-09
1.17242e-08
-4.07822e-07
-6.12899e-09
9.78961e-09
-3.8821e-07
-5.36833e-09
7.52971e-09
-3.62886e-07
-4.6652e-09
5.15372e-09
-3.29221e-07
-3.97808e-09
2.89785e-09
-2.82655e-07
-3.23797e-09
1.02529e-09
-2.14451e-07
-2.32214e-09
-1.04544e-07
-1.02168e-09
-2.15564e-09
-1.00458e-07
-2.16382e-09
-6.23888e-09
-2.06241e-07
-4.72109e-09
-1.13088e-08
-2.71967e-07
-6.48071e-09
-1.67959e-08
-3.16859e-07
-7.92849e-09
-2.22161e-08
-3.49277e-07
-9.35944e-09
-2.70975e-08
-3.73601e-07
-1.0942e-08
-3.10016e-08
-3.92376e-07
-1.27521e-08
-3.35149e-08
-4.07167e-07
-1.48243e-08
-3.43017e-08
-4.1895e-07
-1.71121e-08
-3.31418e-08
-4.28328e-07
-1.95136e-08
-2.99509e-08
-4.35712e-07
-2.18811e-08
-2.48547e-08
-4.41354e-07
-2.40161e-08
-1.81472e-08
-4.45436e-07
-2.57422e-08
-1.03019e-08
-4.48072e-07
-2.69289e-08
-1.8754e-09
-4.49325e-07
-2.75095e-08
6.59683e-09
-4.49237e-07
-2.75558e-08
1.45715e-08
-4.47798e-07
-2.70579e-08
2.14884e-08
-4.44989e-07
-2.5944e-08
2.68598e-08
-4.40749e-07
-2.42625e-08
3.03651e-08
-4.34965e-07
-2.21551e-08
3.18783e-08
-4.27458e-07
-1.97982e-08
3.14586e-08
-4.17988e-07
-1.73839e-08
2.93161e-08
-4.06145e-07
-1.50695e-08
2.57843e-08
-3.91328e-07
-1.29624e-08
2.12515e-08
-3.72564e-07
-1.1113e-08
1.61602e-08
-3.48306e-07
-9.48832e-09
1.09536e-08
-3.16001e-07
-8.01356e-09
6.09224e-09
-2.71273e-07
-6.51988e-09
2.13504e-09
-2.05778e-07
-4.71587e-09
-1.00277e-07
-2.13181e-09
-3.18385e-09
-9.40827e-08
-3.19166e-09
-9.19858e-09
-1.93294e-07
-6.93195e-09
-1.668e-08
-2.54982e-07
-9.50449e-09
-2.47972e-08
-2.9709e-07
-1.16518e-08
-3.28502e-08
-3.27413e-07
-1.38104e-08
-4.01544e-08
-3.50053e-07
-1.62437e-08
-4.60548e-08
-3.67391e-07
-1.90846e-08
-4.99295e-08
-3.80917e-07
-2.23758e-08
-5.1258e-08
-3.91545e-07
-2.60765e-08
-4.96498e-08
-3.99896e-07
-3.00402e-08
-4.49512e-08
-4.06378e-07
-3.40333e-08
-3.72741e-08
-4.11271e-07
-3.77609e-08
-2.70377e-08
-4.14769e-07
-4.09033e-08
-1.49322e-08
-4.17012e-07
-4.31662e-08
-1.84103e-09
-4.18073e-07
-4.43431e-08
1.12987e-08
-4.1798e-07
-4.43969e-08
2.35454e-08
-4.16737e-07
-4.33082e-08
3.39965e-08
-4.14323e-07
-4.11169e-08
4.19538e-08
-4.10671e-07
-3.80357e-08
4.69813e-08
-4.05653e-07
-3.43394e-08
4.89479e-08
-3.99073e-07
-3.03518e-08
4.79935e-08
-3.90654e-07
-2.63792e-08
4.44881e-08
-3.79984e-07
-2.2656e-08
3.89527e-08
-3.6646e-07
-1.93327e-08
3.19888e-08
-3.49147e-07
-1.64536e-08
2.42398e-08
-3.26578e-07
-1.39789e-08
1.63789e-08
-2.96366e-07
-1.17737e-08
9.08949e-09
-2.54409e-07
-9.5753e-09
3.17245e-09
-1.92912e-07
-6.9493e-09
-9.39353e-08
-3.16907e-09
-4.10156e-09
-8.58719e-08
-4.10919e-09
-1.18362e-08
-1.76653e-07
-8.90703e-09
-2.14518e-08
-2.33167e-07
-1.21991e-08
-3.19031e-08
-2.71688e-07
-1.49508e-08
-4.22862e-08
-2.99302e-07
-1.77284e-08
-5.1737e-08
-3.19718e-07
-2.08837e-08
-5.9398e-08
-3.35129e-07
-2.46009e-08
-6.44775e-08
-3.46897e-07
-2.89406e-08
-6.62763e-08
-3.55906e-07
-3.38397e-08
-6.42818e-08
-3.62765e-07
-3.9126e-08
-5.82559e-08
-3.6789e-07
-4.45133e-08
-4.83038e-08
-3.71608e-07
-4.96146e-08
-3.49377e-08
-3.7416e-07
-5.39752e-08
-1.90396e-08
-3.75739e-07
-5.71707e-08
-1.79856e-09
-3.7646e-07
-5.88545e-08
1.54896e-08
-3.76367e-07
-5.89007e-08
3.15235e-08
-3.75467e-07
-5.73035e-08
4.51138e-08
-3.7373e-07
-5.4184e-08
5.5349e-08
-3.71027e-07
-4.98789e-08
6.1705e-08
-3.67197e-07
-4.48116e-08
6.40578e-08
-3.61988e-07
-3.94383e-08
6.2627e-08
-3.55075e-07
-3.41479e-08
5.79179e-08
-3.46044e-07
-2.92307e-08
5.06082e-08
-3.34287e-07
-2.48633e-08
4.1487e-08
-3.18915e-07
-2.11108e-08
3.13974e-08
-2.98574e-07
-1.79151e-08
2.11868e-08
-2.71065e-07
-1.50909e-08
1.17401e-08
-2.32676e-07
-1.22862e-08
4.09561e-09
-1.76331e-07
-8.93609e-09
-8.5748e-08
-4.09174e-09
-4.86264e-09
-7.6139e-08
-4.87032e-09
-1.40227e-08
-1.56953e-07
-1.05401e-08
-2.54119e-08
-2.07362e-07
-1.44159e-08
-3.77899e-08
-2.41656e-07
-1.76547e-08
-5.00998e-08
-2.66062e-07
-2.09296e-08
-6.13155e-08
-2.8386e-07
-2.4643e-08
-7.04244e-08
-2.97002e-07
-2.90183e-08
-7.64787e-08
-3.06712e-07
-3.41304e-08
-7.86439e-08
-3.13827e-07
-3.99137e-08
-7.63066e-08
-3.1892e-07
-4.61825e-08
-6.91647e-08
-3.2244e-07
-5.25922e-08
-5.73319e-08
-3.24755e-07
-5.86855e-08
-4.13903e-08
-3.26172e-07
-6.39291e-08
-2.23886e-08
-3.26943e-07
-6.77977e-08
-1.74732e-09
-3.27244e-07
-6.98571e-08
1.8941e-08
-3.27157e-07
-6.98991e-08
3.80802e-08
-3.26691e-07
-6.7916e-08
5.42326e-08
-3.25765e-07
-6.41168e-08
6.63457e-08
-3.2421e-07
-5.89304e-08
7.38121e-08
-3.21791e-07
-5.28726e-08
7.65015e-08
-3.18198e-07
-4.64792e-08
7.46971e-08
-3.13061e-07
-4.02101e-08
6.90058e-08
-3.05939e-07
-3.44132e-08
6.02396e-08
-2.96243e-07
-2.9278e-08
4.93444e-08
-2.83149e-07
-2.48713e-08
3.73137e-08
-2.65423e-07
-2.112e-08
2.51648e-08
-2.41116e-07
-1.78002e-08
1.39392e-08
-2.06942e-07
-1.45081e-08
4.85927e-09
-1.56678e-07
-1.05732e-08
-7.6034e-08
-4.85479e-09
-5.43743e-09
-6.52571e-08
-5.44454e-09
-1.56693e-08
-1.34953e-07
-1.17677e-08
-2.83842e-08
-1.78568e-07
-1.60785e-08
-4.22114e-08
-2.08169e-07
-1.96595e-08
-5.59699e-08
-2.29043e-07
-2.32608e-08
-6.85042e-08
-2.43988e-07
-2.73373e-08
-7.86881e-08
-2.54688e-07
-3.21296e-08
-8.54489e-08
-2.62236e-07
-3.77149e-08
-8.78603e-08
-2.6738e-07
-4.40361e-08
-8.52306e-08
-2.70676e-07
-5.08731e-08
-7.72279e-08
-2.72588e-07
-5.78549e-08
-6.39751e-08
-2.73507e-07
-6.45014e-08
-4.61191e-08
-2.73805e-07
-7.0223e-08
-2.48252e-08
-2.73786e-07
-7.44511e-08
-1.68654e-09
-2.73679e-07
-7.67034e-08
2.14959e-08
-2.73599e-07
-7.67402e-08
4.292e-08
-2.73551e-07
-7.45635e-08
6.098e-08
-2.73429e-07
-7.03968e-08
7.45052e-08
-2.73014e-07
-6.47208e-08
8.28189e-08
-2.71998e-07
-5.81077e-08
8.57876e-08
-2.70023e-07
-5.1143e-08
8.37302e-08
-2.66694e-07
-4.43095e-08
7.73155e-08
-2.61545e-07
-3.79796e-08
6.74683e-08
-2.5402e-07
-3.23753e-08
5.52408e-08
-2.43365e-07
-2.75562e-08
4.17537e-08
-2.2849e-07
-2.34457e-08
2.81485e-08
-2.07711e-07
-1.97995e-08
1.5587e-08
-1.78214e-07
-1.61668e-08
5.4343e-09
-1.34724e-07
-1.18009e-08
-6.51701e-08
-5.42961e-09
-5.79825e-09
-5.3654e-08
-5.80487e-09
-1.6697e-08
-1.11524e-07
-1.25308e-08
-3.02491e-08
-1.47926e-07
-1.709e-08
-4.49985e-08
-1.72565e-07
-2.08544e-08
-5.96912e-08
-1.89732e-07
-2.46184e-08
-7.30854e-08
-2.01736e-07
-2.88575e-08
-8.39576e-08
-2.09992e-07
-3.38242e-08
-9.11594e-08
-2.15433e-07
-3.96015e-08
-9.37009e-08
-2.18727e-07
-4.61113e-08
-9.08519e-08
-2.204e-07
-5.31257e-08
-8.22724e-08
-2.20892e-07
-6.02754e-08
-6.80915e-08
-2.20628e-07
-6.70601e-08
-4.90226e-08
-2.19988e-07
-7.28862e-08
-2.63011e-08
-2.1932e-07
-7.71881e-08
-1.61492e-09
-2.1888e-07
-7.94854e-08
2.31128e-08
-2.1881e-07
-7.95171e-08
4.5956e-08
-2.19113e-07
-7.72813e-08
6.52218e-08
-2.1966e-07
-7.30339e-08
7.96505e-08
-2.20191e-07
-6.72515e-08
8.85318e-08
-2.2038e-07
-6.04986e-08
9.17059e-08
-2.19832e-07
-5.33659e-08
8.95038e-08
-2.18134e-07
-4.63577e-08
8.26376e-08
-2.14836e-07
-3.98426e-08
7.20861e-08
-2.09418e-07
-3.40504e-08
5.89909e-08
-2.01209e-07
-2.90612e-08
4.45603e-08
-1.89268e-07
-2.47918e-08
3.00204e-08
-1.7218e-07
-2.09915e-08
1.66179e-08
-1.47634e-07
-1.71776e-08
5.79439e-09
-1.11339e-07
-1.25616e-08
-5.35858e-08
-5.78991e-09
-5.91975e-09
-4.18091e-08
-5.92516e-09
-1.70491e-08
-8.76156e-08
-1.27788e-08
-3.09181e-08
-1.1666e-07
-1.73971e-08
-4.60532e-08
-1.36253e-07
-2.11767e-08
-6.11621e-08
-1.49692e-07
-2.49311e-08
-7.49534e-08
-1.58802e-07
-2.91431e-08
-8.61499e-08
-1.64733e-07
-3.40621e-08
-9.35563e-08
-1.68261e-07
-3.97653e-08
-9.61461e-08
-1.69969e-07
-4.61685e-08
-9.3179e-08
-1.7032e-07
-5.30469e-08
-8.43192e-08
-1.69728e-07
-6.00241e-08
-6.97316e-08
-1.68596e-07
-6.6619e-08
-5.01465e-08
-1.67306e-07
-7.2267e-08
-2.68385e-08
-1.66203e-07
-7.64251e-08
-1.53137e-09
-1.65551e-07
-7.86362e-08
2.38143e-08
-1.65492e-07
-7.8663e-08
4.72359e-08
-1.66031e-07
-7.65043e-08
6.70011e-08
-1.67032e-07
-7.23937e-08
8.18275e-08
-1.68235e-07
-6.67833e-08
9.09671e-08
-1.69302e-07
-6.02179e-08
9.42414e-08
-1.69849e-07
-5.32574e-08
9.19698e-08
-1.69476e-07
-4.63864e-08
8.48867e-08
-1.67773e-07
-3.99808e-08
7.39952e-08
-1.6426e-07
-3.42664e-08
6.04879e-08
-1.58372e-07
-2.93292e-08
4.5627e-08
-1.49316e-07
-2.50907e-08
3.06949e-08
-1.35947e-07
-2.13008e-08
1.69714e-08
-1.16434e-07
-1.74765e-08
5.91404e-09
-8.74752e-08
-1.28068e-08
-4.17611e-08
-5.91072e-09
-5.77384e-09
-3.02557e-08
-5.77953e-09
-1.6666e-08
-6.42753e-08
-1.24482e-08
-3.03075e-08
-8.61088e-08
-1.69097e-08
-4.52865e-08
-1.0075e-07
-2.05241e-08
-6.03116e-08
-1.10574e-07
-2.4093e-08
-7.40715e-08
-1.16949e-07
-2.80934e-08
-8.5266e-08
-1.20771e-07
-3.27678e-08
-9.26702e-08
-1.22676e-07
-3.81814e-08
-9.52646e-08
-1.23128e-07
-4.42468e-08
-9.2314e-08
-1.22528e-07
-5.07423e-08
-8.35005e-08
-1.21234e-07
-5.73076e-08
-6.90099e-08
-1.19602e-07
-6.34851e-08
-4.95844e-08
-1.1798e-07
-6.87515e-08
-2.64918e-08
-1.16678e-07
-7.2617e-08
-1.43269e-09
-1.15938e-07
-7.4672e-08
2.36621e-08
-1.15892e-07
-7.46949e-08
4.68591e-08
-1.16543e-07
-7.26843e-08
6.64529e-08
-1.17768e-07
-6.88584e-08
8.11626e-08
-1.19322e-07
-6.36227e-08
9.02332e-08
-1.20901e-07
-5.74721e-08
9.34701e-08
-1.22159e-07
-5.0926e-08
9.11775e-08
-1.22745e-07
-4.44389e-08
8.40702e-08
-1.22292e-07
-3.83732e-08
7.3168e-08
-1.20407e-07
-3.29512e-08
5.96745e-08
-1.16617e-07
-2.82618e-08
4.48831e-08
-1.10287e-07
-2.42379e-08
3.00962e-08
-1.00522e-07
-2.06381e-08
1.65888e-08
-8.59438e-08
-1.6983e-08
5.76793e-09
-6.41799e-08
-1.24744e-08
-3.02267e-08
-5.7665e-09
-5.32525e-09
-1.96007e-08
-5.32987e-09
-1.54685e-08
-4.26734e-08
-1.14586e-08
-2.83304e-08
-5.77394e-08
-1.55076e-08
-4.26146e-08
-6.77192e-08
-1.8747e-08
-5.70695e-08
-7.418e-08
-2.19391e-08
-7.03891e-08
-7.80889e-08
-2.55401e-08
-8.12687e-08
-8.01116e-08
-2.97797e-08
-8.85042e-08
-8.07262e-08
-3.47139e-08
-9.10838e-08
-8.02964e-08
-4.02515e-08
-8.83065e-08
-7.91295e-08
-4.61761e-08
-7.9879e-08
-7.75113e-08
-5.21499e-08
-6.60012e-08
-7.57288e-08
-5.77509e-08
-4.73978e-08
-7.40664e-08
-6.25175e-08
-2.52931e-08
-7.27761e-08
-6.60067e-08
-1.31411e-09
-7.20603e-08
-6.78566e-08
2.2697e-08
-7.20271e-08
-6.78761e-08
4.48963e-08
-7.26787e-08
-6.6064e-08
6.36514e-08
-7.39105e-08
-6.26121e-08
7.77298e-08
-7.55244e-08
-5.78756e-08
8.63924e-08
-7.72686e-08
-5.22947e-08
8.94323e-08
-7.88632e-08
-4.63361e-08
8.71255e-08
-8.00182e-08
-4.042e-08
8.01676e-08
-8.04509e-08
-3.48833e-08
6.95537e-08
-7.98498e-08
-2.99432e-08
5.64805e-08
-7.78524e-08
-2.56912e-08
4.22426e-08
-7.39788e-08
-2.20702e-08
2.81341e-08
-6.75624e-08
-1.88509e-08
1.53974e-08
-5.76318e-08
-1.55753e-08
5.31845e-09
-4.26168e-08
-1.14842e-08
-1.95887e-08
-5.31956e-09
-4.52403e-09
-1.05484e-08
-4.5282e-09
-1.3376e-08