/*--------------------------------*- C++ -*----------------------------------*\
| =========                 |                                                 |
| \\      /  F ield         | OpenFOAM: The Open Source CFD Toolbox           |
|  \\    /   O peration     | Version:  v1912                                 |
|   \\  /    A nd           | Website:  www.openfoam.com                      |
|    \\/     M anipulation  |                                                 |
\*---------------------------------------------------------------------------*/
FoamFile
{
    version     2.0;
    format      ascii;
    class       volScalarField;
    location    "266/oil";
    object      heatTransferCoeff(T);
}
// * * * * * * * * * * * * * * * * * * * * * * * * * * * * * * * * * * * * * //

dimensions      [1 0 -3 -1 0 0 0];


internalField   uniform 0;

boundaryField
{
    maxY
    {
        type            calculated;
        value           uniform 0;
    }
    minX
    {
        type            calculated;
        value           uniform 0;
    }
    maxX
    {
        type            calculated;
        value           uniform 0;
    }
    minY
    {
        type            calculated;
        value           uniform 0;
    }
    minZ
    {
        type            calculated;
        value           uniform 0;
    }
    maxZ
    {
        type            calculated;
        value           uniform 0;
    }
    oil_to_sphere
    {
        type            calculated;
        value           nonuniform List<scalar> 
1536
(
-36.4074
-31.9677
-31.8939
-23.7402
-23.4816
-31.7271
-28.1586
-29.5993
-29.0655
-24.4165
-21.1779
-25.0132
-28.9781
-25.2169
-20.0764
-27.6523
-31.7478
-32.1088
-27.4092
-28.7512
-30.6524
-29.1253
-29.4555
-27.6056
-28.0475
-27.8217
-28.0104
-27.057
-31.4993
-29.2996
-32.8306
-31.9904
-32.1555
-27.6783
-27.948
-27.0796
-27.4762
-26.1613
-27.0018
-27.974
-26.8137
-27.4729
-28.9155
-29.8501
-30.95
-27.9194
-30.656
-29.4758
-20.3864
-27.8124
-30.2389
-29.1356
-29.3824
-27.5813
-31.3518
-34.4136
-29.392
-28.7637
-30.5952
-30.1527
-28.817
-28.9259
-28.7396
-27.4683
-27.918
-28.6155
-28.7364
-30.3511
-30.2933
-31.3112
-27.4464
-23.5806
-24.9801
-27.8355
-27.8011
-34.6998
-32.204
-26.2631
-27.6639
-31.9694
-30.7106
-30.0786
-23.7249
-23.5983
-31.4753
-35.568
-22.6477
-28.3601
-30.1704
-30.1415
-29.1067
-27.2246
-27.163
-27.3587
-27.8043
-29.8047
-30.6627
-30.9551
-32.517
-30.0384
-30.7488
-27.3783
-36.502
-30.2904
-24.7921
-27.7247
-28.0742
-24.066
-24.0454
-36.6385
-32.1535
-29.5982
-28.8967
-29.4866
-23.1027
-23.5822
-22.2479
-33.5954
-36.0152
-32.4207
-29.2642
-29.483
-26.9516
-30.6004
-32.7659
-29.9052
-29.2121
-26.6528
-30.8729
-30.5463
-28.6409
-30.3705
-31.2875
-28.1012
-28.3953
-31.5216
-29.5058
-32.0118
-26.7419
-31.791
-29.0979
-30.5042
-30.5458
-28.9739
-28.4528
-28.8776
-29.832
-33.6633
-28.7098
-36.6859
-31.1132
-32.0567
-29.3853
-29.6405
-27.7651
-30.0251
-31.4617
-30.7126
-37.4759
-32.8245
-32.1393
-33.9173
-25.4559
-26.1711
-27.2861
-27.1926
-31.2333
-33.3291
-32.4644
-34.576
-27.0712
-27.3532
-26.326
-30.7035
-29.3724
-29.7375
-35.1834
-26.1085
-25.2535
-35.5495
-27.0506
-26.2175
-26.0665
-26.476
-30.401
-35.588
-32.8649
-26.8568
-25.4698
-32.0398
-25.7709
-31.2693
-31.2416
-33.227
-24.9687
-19.1816
-33.0744
-33.6707
-28.1924
-27.7443
-29.1706
-28.1899
-32.131
-33.0294
-31.0302
-30.0996
-27.444
-33.4301
-32.5796
-29.8637
-26.6349
-27.9099
-27.7308
-28.3691
-30.7962
-34.6056
-25.7388
-25.1364
-25.2608
-18.6101
-31.7742
-30.7106
-30.0374
-29.1518
-29.3574
-33.4809
-31.2518
-27.9726
-31.8094
-24.4887
-27.1096
-19.414
-28.9275
-31.6119
-33.0966
-32.6686
-31.7643
-30.822
-32.3843
-24.9435
-25.5749
-26.4743
-33.7549
-26.4463
-19.4179
-22.3849
-30.7215
-29.1091
-35.352
-37.5322
-29.5732
-23.6238
-18.7053
-30.1395
-32.6788
-27.3654
-27.5022
-22.8642
-27.1993
-33.4592
-35.7921
-28.8381
-27.5142
-34.1442
-32.9509
-27.8576
-24.7099
-28.5437
-34.7476
-33.6748
-30.8338
-31.2652
-32.9024
-26.095
-27.6719
-33.1494
-31.2584
-32.0811
-28.9375
-31.8379
-34.4909
-31.0276
-30.6565
-33.9336
-27.4518
-27.3734
-27.8121
-26.9568
-27.2581
-33.2972
-34.859
-25.4139
-28.2808
-28.0488
-28.251
-26.8515
-29.3963
-28.9224
-26.3328
-22.9478
-27.1353
-25.0588
-26.7512
-35.6114
-34.0454
-33.9788
-37.1761
-25.7751
-26.0997
-29.3641
-36.6865
-35.9812
-27.1484
-28.9949
-26.9063
-31.1726
-27.6082
-30.6144
-30.9862
-32.2931
-31.3625
-28.0146
-31.5546
-27.0727
-32.9384
-33.5184
-31.925
-31.5788
-26.3991
-35.0074
-34.8853
-31.2085
-24.8516
-27.4095
-28.2322
-31.0096
-30.5659
-31.1832
-26.26
-32.8676
-33.1857
-32.2935
-33.9488
-30.3729
-29.8501
-28.8082
-25.5849
-29.922
-31.126
-25.5314
-25.1956
-25.9907
-36.2559
-32.8115
-33.9753
-30.4928
-29.7898
-33.2885
-25.3069
-35.3004
-32.263
-29.8442
-29.7763
-25.0394
-32.2963
-32.7023
-26.5949
-29.847
-28.6842
-27.5447
-31.2047
-32.7924
-28.9149
-27.8716
-25.8483
-34.6072
-32.9603
-25.1748
-33.3414
-32.7569
-31.7887
-34.5811
-29.7821
-31.432
-24.399
-24.9702
-30.9828
-36.9078
-31.9958
-35.3922
-30.486
-28.1222
-32.4948
-26.0244
-26.9738
-30.6599
-32.7113
-31.2748
-30.5218
-26.227
-26.1415
-33.1815
-33.1113
-32.9763
-29.7232
-27.272
-30.687
-31.5773
-32.6242
-29.9713
-28.4323
-26.5293
-29.5688
-25.8319
-24.0845
-27.3337
-26.554
-29.6194
-24.4171
-28.1597
-35.1217
-28.0611
-28.0069
-32.6793
-32.605
-31.0857
-28.707
-25.4499
-31.9466
-33.9987
-30.8826
-30.0529
-32.0678
-29.0398
-29.4717
-30.4214
-23.6889
-30.9678
-33.1741
-33.9487
-32.4811
-31.505
-31.255
-30.0037
-28.5482
-26.0248
-29.2821
-26.4776
-25.0472
-26.8679
-24.017
-35.7493
-35.1465
-33.5246
-36.647
-26.138
-35.782
-26.2052
-27.0676
-31.7172
-25.8869
-26.078
-28.2107
-28.0095
-35.3041
-34.0533
-30.4302
-30.7651
-34.5307
-33.2184
-29.9476
-31.5561
-26.68
-32.7114
-24.8223
-33.9041
-23.6437
-31.4508
-31.9644
-32.5011
-27.9845
-25.8977
-28.6029
-32.6325
-28.8119
-24.5199
-32.7366
-33.0446
-33.7677
-36.9859
-30.137
-34.3118
-25.7332
-26.3
-20.609
-22.3298
-29.873
-28.1539
-27.6063
-26.8863
-36.0807
-26.4784
-25.2561
-24.6207
-28.3641
-24.6375
-37.4355
-26.729
-27.0486
-29.3437
-21.2722
-22.7551
-27.3628
-27.2478
-28.8904
-27.8407
-33.0107
-32.4614
-31.2784
-29.899
-24.1218
-27.6106
-32.3778
-26.0003
-26.5958
-31.9166
-34.6259
-26.7003
-20.6803
-25.5688
-21.1804
-29.1852
-27.9678
-27.0551
-24.8556
-21.1504
-31.2663
-31.8557
-30.5639
-29.1679
-34.7957
-31.392
-30.9844
-29.8134
-26.3662
-27.7249
-33.0036
-31.3198
-28.3212
-22.2209
-30.0554
-32.3373
-35.042
-30.208
-27.5815
-34.9954
-29.5483
-34.3615
-26.616
-27.8763
-26.0336
-28.0429
-30.0849
-34.5809
-26.4695
-26.9073
-26.332
-28.4494
-37.4947
-25.0397
-27.6858
-25.198
-29.4485
-30.0673
-33.0831
-34.753
-24.4267
-24.8512
-34.7264
-35.3423
-23.2276
-34.5526
-33.3444
-31.9908
-33.2744
-31.041
-29.6393
-29.8261
-34.5935
-29.9496
-31.0771
-29.5722
-32.6468
-30.2649
-29.2354
-28.9416
-25.5315
-31.9388
-29.2488
-32.5885
-31.4973
-31.6158
-31.3046
-29.9986
-24.991
-33.1706
-33.1627
-31.181
-29.1871
-30.3568
-36.4889
-24.6362
-26.5304
-25.6626
-30.2388
-27.0635
-36.5176
-28.1037
-28.5676
-29.4855
-20.7684
-21.3961
-27.5025
-27.4062
-29.736
-26.0213
-26.8389
-30.4171
-27.2537
-34.7721
-25.8599
-36.221
-28.3326
-30.132
-19.6272
-21.2479
-20.5206
-27.0875
-31.9856
-27.7081
-27.0779
-21.2
-29.5761
-32.3188
-29.6511
-38.8032
-26.6651
-32.991
-31.2816
-32.0923
-33.4424
-33.3206
-32.1262
-29.3755
-28.4597
-29.2759
-32.124
-28.7278
-30.6143
-30.2173
-30.5516
-32.5187
-31.3353
-31.9399
-25.5236
-26.4959
-19.0739
-22.8871
-23.9508
-16.4648
-27.4171
-27.8559
-28.7303
-29.2303
-24.0461
-25.6147
-28.3104
-33.7071
-33.2961
-28.2298
-24.6273
-28.9843
-32.4291
-31.2688
-29.4055
-24.3558
-26.6608
-31.236
-30.4344
-29.3271
-27.5713
-31.6444
-31.7541
-34.6012
-31.7832
-30.0248
-27.8489
-26.7631
-25.4203
-27.5211
-29.0276
-36.7667
-29.8708
-35.6507
-27.0053
-37.1688
-27.3924
-28.8706
-25.8325
-26.3004
-27.8769
-25.4274
-28.6449
-24.3859
-27.5618
-32.9887
-28.1558
-25.1483
-34.921
-31.5457
-30.6981
-29.1042
-34.598
-39.3143
-23.0186
-31.3854
-30.5706
-31.0737
-25.43
-29.1479
-26.8918
-30.5453
-31.9341
-33.1974
-26.3642
-31.2296
-29.7914
-31.6778
-31.4218
-30.9334
-28.3127
-28.8323
-27.6587
-24.5947
-24.1148
-26.0374
-34.1906
-27.5881
-25.27
-27.7081
-33.0683
-28.573
-34.1817
-32.4864
-30.8716
-30.0173
-30.8035
-35.1159
-26.0412
-31.2931
-33.341
-33.7355
-29.9655
-26.8245
-28.5172
-30.8333
-33.8695
-25.759
-28.8814
-29.8528
-32.9447
-30.7672
-30.8019
-34.3406
-25.8256
-27.0278
-26.4596
-35.1601
-33.1608
-29.8199
-32.9127
-27.0581
-27.5871
-32.8956
-30.8103
-34.6004
-26.2258
-32.1776
-32.7366
-30.1318
-30.5723
-31.9365
-26.3691
-23.8436
-29.499
-30.8129
-35.4192
-28.959
-27.3285
-29.2514
-30.819
-32.1222
-29.9828
-26.942
-28.9835
-32.6791
-25.9839
-26.8745
-28.9679
-27.4983
-30.399
-29.9931
-33.6424
-31.0773
-32.435
-27.7071
-29.3166
-30.3868
-29.1293
-28.4451
-27.8497
-27.7682
-25.9377
-31.5868
-30.2777
-30.252
-30.9071
-24.841
-28.0671
-35.0109
-35.089
-26.9218
-33.0041
-30.8019
-31.5159
-27.7401
-33.8156
-33.4718
-26.1165
-28.5533
-28.0068
-27.8323
-24.7731
-25.621
-28.0023
-33.4114
-36.6897
-27.3023
-31.9107
-31.567
-30.6913
-28.7336
-30.419
-33.6323
-30.4095
-26.2599
-28.1004
-27.7183
-27.9779
-31.0894
-31.6067
-31.6188
-31.8234
-31.8408
-26.9872
-32.0347
-28.2223
-31.4015
-21.1686
-30.9304
-34.0438
-28.4288
-23.0203
-29.5293
-28.8643
-35.5703
-26.542
-32.0437
-29.255
-23.782
-34.8575
-25.1464
-28.8526
-29.5384
-24.8299
-33.0208
-30.4237
-28.7581
-29.9493
-30.396
-28.8017
-35.8042
-25.2872
-27.9309
-20.0959
-28.4937
-28.4243
-29.6843
-32.982
-39.5158
-24.5244
-28.0022
-38.0219
-25.1931
-31.7295
-26.8463
-31.5089
-22.7451
-26.5895
-37.871
-23.4931
-37.0223
-24.2098
-35.3682
-23.9107
-26.4838
-20.6526
-25.3602
-37.2383
-21.7264
-29.2801
-23.4925
-34.4623
-37.2934
-21.9753
-28.6769
-27.3098
-26.2627
-26.0973
-27.9958
-29.5895
-29.5835
-31.3737
-29.2295
-34.4977
-38.3728
-21.8955
-29.7874
-30.8189
-29.5765
-30.1022
-29.0239
-28.5129
-28.9982
-32.3213
-29.1393
-32.383
-27.8886
-30.2897
-34.0701
-28.3841
-31.2046
-33.0415
-27.8494
-30.2908
-29.2424
-31.3303
-28.8545
-29.9287
-28.5158
-32.8123
-28.1322
-30.6394
-24.1855
-34.7536
-22.1631
-30.835
-32.6875
-34.8005
-26.6268
-30.0393
-29.2265
-30.004
-29.8023
-29.1452
-32.2633
-26.1002
-19.0196
-28.8493
-23.0851
-33.2775
-26.7241
-29.4913
-31.8453
-19.5395
-34.1278
-26.0741
-21.0233
-26.6039
-31.7318
-31.4363
-29.7167
-21.764
-29.694
-30.33
-27.2609
-26.7343
-33.3981
-32.7984
-27.6569
-29.738
-33.4205
-21.8957
-32.3599
-26.6497
-31.2467
-22.3162
-36.7286
-36.0885
-32.6871
-29.6442
-28.5598
-31.6839
-28.3513
-21.6999
-25.7715
-31.8779
-26.8476
-31.1294
-22.9705
-33.1821
-31.3527
-17.3466
-29.7299
-30.495
-19.8433
-34.1997
-24.0603
-33.3229
-34.7949
-32.2191
-21.0397
-29.8853
-28.6411
-29.7643
-30.0055
-31.0701
-21.9388
-27.8634
-26.9252
-26.958
-33.0696
-29.4704
-30.7087
-31.4455
-31.2529
-28.5793
-29.9935
-28.796
-30.6056
-33.4405
-27.6092
-28.3955
-27.3631
-30.0035
-32.6498
-27.567
-28.2495
-27.9004
-29.5221
-26.9189
-27.213
-28.2303
-28.5353
-29.9238
-28.201
-34.592
-32.3354
-23.2967
-23.5208
-34.0882
-16.4583
-31.9627
-30.3071
-26.9436
-28.568
-34.3437
-19.5695
-33.1597
-30.6689
-21.3866
-27.9867
-27.3048
-29.6179
-19.143
-33.8966
-30.8855
-19.6288
-33.5548
-33.7315
-22.4512
-34.8327
-32.7853
-22.5641
-27.3766
-26.9555
-19.6796
-29.5875
-30.054
-25.9526
-26.6421
-26.5109
-17.7683
-26.5161
-19.5223
-17.2708
-32.8956
-27.281
-37.228
-27.7027
-21.8792
-33.9293
-28.9931
-20.4517
-27.6191
-27.4363
-20.3565
-23.4835
-34.0096
-15.1625
-25.8146
-25.3784
-16.5228
-33.1961
-32.4032
-29.5599
-28.1632
-27.3942
-25.8196
-18.5084
-29.688
-28.2106
-28.4151
-29.5756
-20.947
-31.9046
-27.606
-29.0958
-27.215
-28.9494
-29.8996
-25.6053
-21.3219
-28.0701
-30.2606
-27.5114
-28.1705
-29.2625
-26.622
-28.3669
-20.7947
-27.6838
-30.7251
-27.2775
-28.5986
-26.7426
-21.4742
-34.189
-34.0766
-33.5303
-34.9686
-22.3978
-19.8779
-27.8062
-32.2096
-30.0326
-31.6826
-32.3207
-25.8235
-24.9317
-20.1777
-22.0789
-26.5651
-29.1505
-28.8907
-28.7069
-25.0188
-32.9109
-30.6306
-22.6467
-26.3377
-25.6598
-32.2321
-26.6862
-18.5018
-29.4615
-29.3674
-33.1306
-20.6137
-27.4352
-30.1113
-27.8527
-28.5455
-31.5479
-29.0627
-25.9011
-35.3168
-17.0694
-24.5563
-28.8149
-26.6724
-28.0531
-34.8458
-30.7996
-29.4939
-24.4826
-34.1288
-27.8018
-29.8998
-32.303
-33.1458
-32.8052
-33.1155
-34.5651
-35.4608
-34.3639
-34.3775
-29.7239
-32.5257
-27.5908
-28.5518
-24.9429
-23.785
-17.8262
-35.0129
-34.7386
-33.5278
-28.3418
-29.9264
-29.6586
-26.7932
-30.1733
-32.4478
-26.0674
-28.7716
-31.3469
-27.372
-27.688
-27.468
-28.2882
-26.566
-28.1528
-27.8143
-22.3289
-30.0695
-26.1609
-28.7311
-20.3297
-35.0891
-28.9251
-27.0558
-26.4302
-22.7848
-29.3954
-27.1745
-19.7119
-24.4116
-28.8133
-23.6904
-24.6374
-35.6227
-36.0902
-27.8671
-27.8977
-31.8932
-34.7562
-19.5976
-26.9084
-26.5801
-28.0706
-28.0487
-28.3907
-29.0062
-24.8995
-21.5505
-33.9958
-27.96
-24.0726
-24.8172
-27.8349
-29.4878
-22.8808
-28.6404
-26.8287
-27.5859
-34.8271
-24.2094
-21.7491
-28.0825
-27.2908
-26.5878
-21.6622
-33.2403
-27.815
-27.594
-27.8155
-19.7597
-27.9185
-28.0373
-21.9161
-27.8025
-24.3798
-30.6028
-33.7412
-26.8179
-32.4713
-30.3877
-26.9276
-27.057
-28.1731
-21.6935
-30.4401
-31.0236
-27.4332
-20.6309
-25.5667
-28.6213
-28.9076
-26.8617
-21.2719
-27.0337
-33.1384
-30.4623
-27.162
-35.5066
-24.1845
-32.3847
-19.9022
-23.9897
-32.7554
-19.8118
-32.891
-27.1535
-29.469
-27.6067
-36.0071
-25.1401
-29.5496
-34.8047
-34.1572
-23.1971
-33.7875
-34.8553
-16.6999
-28.8021
-27.23
-20.1395
-31.1163
-27.1375
-27.6161
-27.6335
-29.0634
-28.4328
-27.4317
-27.0969
-19.8649
-31.025
-29.5046
-29.2228
-29.8631
-28.3337
-26.8959
-25.6192
-31.9534
-18.686
-26.4675
-26.5321
-19.122
-32.6971
-35.2146
-29.0655
-33.5394
-34.1724
-26.6441
-27.2345
-30.7874
-33.4973
-26.5901
-31.3151
-24.7973
-20.2405
-32.022
-26.016
-33.1246
-35.5421
-34.6949
-20.6178
-32.4731
-29.7104
-25.933
-27.3899
-28.0788
-27.1942
-20.7788
-33.6086
-21.0417
-33.4597
-28.2724
-24.8049
-24.1999
-28.5016
-31.4447
-34.4888
-29.2932
-36.7032
-32.1038
-32.9051
-19.7587
-32.4926
-31.6511
-33.1824
-26.736
-26.0162
-18.6997
-28.8275
-36.3767
-33.6336
-21.4231
-25.084
-21.1282
-26.7245
-29.008
-24.6748
-38.855
-27.6491
-25.0904
-21.6614
-30.4184
-26.1255
-19.1611
-28.6366
-27.128
-27.2328
-27.392
-27.456
-21.7475
-24.7313
-20.193
-27.2326
-32.1354
-30.6424
-33.8336
-33.1888
-26.4784
-25.5995
-19.888
-26.8787
-31.6307
-34.1933
-32.0784
-32.2475
-24.0887
-19.0445
-25.214
-18.3917
-31.868
-32.2243
-25.6303
-32.7799
-31.8446
-33.7865
-30.2946
-29.4856
-29.3537
-26.4769
-19.624
-25.4182
-20.6314
-24.6467
-27.3967
-26.851
-22.3214
-20.5678
-31.2359
-36.3953
-35.5888
-34.7079
-29.247
-31.0537
-30.8986
-28.8924
-27.3919
-28.8551
-25.8857
-28.2641
-28.3019
-20.5956
-31.8901
-27.9697
-25.1179
-22.185
-27.1251
-29.139
-29.0898
-26.8798
-22.2302
-34.4516
-30.3125
-27.2164
-35.3961
-26.0242
-20.2429
-30.8146
-28.3176
-28.3339
-28.3224
-26.9644
-18.588
-28.5088
-28.2103
-21.1108
-34.3236
-27.8007
-15.2676
-27.3754
-28.9457
-29.2409
-26.9303
-20.7694
-26.3498
-26.5767
-23.7484
-28.5083
-19.8906
-28.7326
-28.4804
-23.3523
-35.4005
-28.1785
-21.9178
-36.403
-28.8638
-28.8699
-22.1039
-28.4702
-21.0268
)
;
    }
}


// ************************************************************************* //
