/*--------------------------------*- C++ -*----------------------------------*\
| =========                 |                                                 |
| \\      /  F ield         | OpenFOAM: The Open Source CFD Toolbox           |
|  \\    /   O peration     | Version:  v1912                                 |
|   \\  /    A nd           | Website:  www.openfoam.com                      |
|    \\/     M anipulation  |                                                 |
\*---------------------------------------------------------------------------*/
FoamFile
{
    version     2.0;
    format      ascii;
    class       surfaceScalarField;
    location    "266/oil";
    object      phi;
}
// * * * * * * * * * * * * * * * * * * * * * * * * * * * * * * * * * * * * * //

dimensions      [1 0 -1 0 0 0 0];
oriented        oriented;


internalField   nonuniform List<scalar> 
104676
(
-1.27873e-11
2.47505e-11
-1.67626e-11
2.73053e-10
-2.24737e-10
-6.05682e-11
8.54703e-10
-4.20658e-10
-1.61074e-10
1.64297e-09
-5.12958e-10
-2.75602e-10
2.5224e-09
-5.24386e-10
-3.55275e-10
3.37734e-09
-4.76861e-10
-3.78241e-10
4.10342e-09
-3.87635e-10
-3.38521e-10
4.61333e-09
-2.6951e-10
-2.40457e-10
4.83912e-09
-1.32374e-10
-9.33979e-11
4.74379e-09
1.14193e-11
8.39721e-11
4.3093e-09
1.60002e-10
2.74623e-10
3.56575e-09
2.81245e-10
4.62507e-10
2.552e-09
3.91411e-10
6.22598e-10
1.34083e-09
4.71208e-10
7.40268e-10
2.48846e-11
5.13366e-10
8.02858e-10
-1.29516e-09
5.15632e-10
8.04672e-10
-2.50962e-09
4.71583e-10
7.43106e-10
-3.52735e-09
3.90999e-10
6.26953e-10
-4.27798e-09
2.82841e-10
4.67993e-10
-4.71772e-09
1.56482e-10
2.83413e-10
-4.82467e-09
1.24769e-11
9.45087e-11
-4.60393e-09
-1.35116e-10
-8.57016e-11
-4.09823e-09
-2.71712e-10
-2.34172e-10
-3.37539e-09
-3.89678e-10
-3.334e-10
-2.52306e-09
-4.78495e-10
-3.74034e-10
-1.64543e-09
-5.26909e-10
-3.50816e-10
-8.57669e-10
-5.16789e-10
-2.70927e-10
-2.75955e-10
-4.25039e-10
-1.5651e-10
9.46883e-12
-2.28554e-10
-5.66776e-11
2.21931e-11
-1.25789e-11
2.78943e-10
-5.31575e-10
2.78258e-10
1.07651e-09
-1.59443e-09
5.72507e-10
2.34265e-09
-2.39615e-09
7.09345e-10
3.93673e-09
-2.88452e-09
7.77246e-10
5.66725e-09
-3.11855e-09
8.63408e-10
7.32791e-09
-3.15593e-09
1.01824e-09
8.72378e-09
-3.04604e-09
1.26243e-09
9.68617e-09
-2.82776e-09
1.59581e-09
1.00836e-08
-2.53368e-09
2.00384e-09
9.83199e-09
-2.19315e-09
2.45629e-09
8.89202e-09
-1.83491e-09
2.93499e-09
7.31564e-09
-1.5212e-09
3.379e-09
5.2207e-09
-1.24531e-09
3.73193e-09
2.73987e-09
-1.04573e-09
3.99806e-09
5.02937e-11
-9.41346e-10
4.14461e-09
-2.64969e-09
-9.42013e-10
4.15791e-09
-5.13714e-09
-1.05063e-09
4.00994e-09
-7.23379e-09
-1.25375e-09
3.74168e-09
-8.79678e-09
-1.53023e-09
3.37633e-09
-9.73915e-09
-1.84993e-09
2.94897e-09
-1.00054e-08
-2.20326e-09
2.48207e-09
-9.6211e-09
-2.54131e-09
2.02177e-09
-8.67483e-09
-2.83249e-09
1.61429e-09
-7.29633e-09
-3.04982e-09
1.28137e-09
-5.64992e-09
-3.16068e-09
1.03554e-09
-3.93196e-09
-3.12487e-09
8.79899e-10
-2.34566e-09
-2.89509e-09
7.92057e-10
-1.08036e-09
-2.41014e-09
7.2e-10
-2.80385e-10
-1.60587e-09
5.77581e-10
-5.3725e-10
2.79252e-10
5.86879e-10
-1.70995e-09
5.91915e-10
1.86479e-09
-4.13889e-09
1.2668e-09
3.65659e-09
-5.87458e-09
1.68667e-09
5.78616e-09
-7.00702e-09
1.9928e-09
8.03318e-09
-7.65768e-09
2.29192e-09
1.01551e-08
-7.92715e-09
2.64915e-09
1.19147e-08
-7.90194e-09
3.09606e-09
1.31022e-08
-7.65336e-09
3.63805e-09
1.35535e-08
-7.24623e-09
4.26124e-09
1.31637e-08
-6.73501e-09
4.9316e-09
1.18815e-08
-6.17878e-09
5.62608e-09
9.76126e-09
-5.65295e-09
6.25214e-09
6.95634e-09
-5.19186e-09
6.75167e-09
3.64767e-09
-4.85523e-09
7.11847e-09
6.46844e-11
-4.68172e-09
7.32366e-09
-3.53536e-09
-4.69002e-09
7.34835e-09
-6.85414e-09
-4.86677e-09
7.13522e-09
-9.6591e-09
-5.20528e-09
6.75682e-09
-1.17666e-08
-5.66297e-09
6.24054e-09
-1.3065e-08
-6.19339e-09
5.64203e-09
-1.3476e-08
-6.74835e-09
4.95611e-09
-1.30404e-08
-7.25577e-09
4.27872e-09
-1.18695e-08
-7.6608e-09
3.6572e-09
-1.01272e-08
-7.90754e-09
3.11508e-09
-8.02118e-09
-7.93413e-09
2.66723e-09
-5.78492e-09
-7.66927e-09
2.30803e-09
-3.66229e-09
-7.02331e-09
2.00567e-09
-1.87173e-09
-5.89442e-09
1.69395e-09
-5.90202e-10
-4.15444e-09
1.26735e-09
-1.71831e-09
5.91088e-10
8.41428e-10
-3.40229e-09
8.51168e-10
2.52358e-09
-7.65727e-09
1.83642e-09
4.74161e-09
-1.05762e-08
2.48364e-09
7.27901e-09
-1.25268e-08
2.98235e-09
9.89339e-09
-1.37325e-08
3.46025e-09
1.23236e-08
-1.43468e-08
3.98925e-09
1.43131e-08
-1.44977e-08
4.60607e-09
1.56324e-08
-1.42909e-08
5.31815e-09
1.6095e-08
-1.38222e-08
6.11323e-09
1.55801e-08
-1.31796e-08
6.95935e-09
1.40275e-08
-1.24519e-08
7.82567e-09
1.15104e-08
-1.17261e-08
8.59037e-09
8.19594e-09
-1.1094e-08
9.21681e-09
4.29455e-09
-1.06069e-08
9.65333e-09
7.31111e-11
-1.03587e-08
9.89878e-09
-4.17093e-09
-1.03763e-08
9.93066e-09
-8.0856e-09
-1.06193e-08
9.66754e-09
-1.14019e-08
-1.10935e-08
9.20499e-09
-1.39076e-08
-1.1729e-08
8.57191e-09
-1.54734e-08
-1.24576e-08
7.83021e-09
-1.60076e-08
-1.31855e-08
6.97145e-09
-1.55625e-08
-1.38266e-08
6.12561e-09
-1.42624e-08
-1.42947e-08
5.33361e-09
-1.22904e-08
-1.45012e-08
4.62125e-09
-9.87704e-09
-1.43528e-08
4.00513e-09
-7.27694e-09
-1.37442e-08
3.4747e-09
-4.74631e-09
-1.2546e-08
2.99218e-09
-2.53042e-09
-1.05948e-08
2.4848e-09
-8.47458e-10
-7.66368e-09
1.82663e-09
-3.41373e-09
8.48232e-10
1.03341e-09
-5.47786e-09
1.0425e-09
3.02759e-09
-1.19039e-08
2.25276e-09
5.57956e-09
-1.61978e-08
3.06976e-09
8.43175e-09
-1.90899e-08
3.71085e-09
1.13215e-08
-2.09452e-08
4.32291e-09
1.39748e-08
-2.1987e-08
4.98667e-09
1.61248e-08
-2.23887e-08
5.74079e-09
1.75294e-08
-2.22914e-08
6.59578e-09
1.79937e-08
-2.18223e-08
7.53565e-09
1.73848e-08
-2.11005e-08
8.52985e-09
1.56381e-08
-2.02487e-08
9.54342e-09
1.28295e-08
-1.93735e-08
1.0456e-08
9.12783e-09
-1.85876e-08
1.11954e-08
4.7799e-09
-1.79493e-08
1.16906e-08
7.869e-11
-1.76265e-08
1.19693e-08
-4.64899e-09
-1.76505e-08
1.20022e-08
-9.00628e-09
-1.79649e-08
1.17032e-08
-1.2703e-08
-1.85648e-08
1.11683e-08
-1.55098e-08
-1.93673e-08
1.04455e-08
-1.72715e-08
-2.02479e-08
9.55211e-09
-1.79003e-08
-2.11009e-08
8.54417e-09
-1.74552e-08
-2.18226e-08
7.55086e-09
-1.6069e-08
-2.22928e-08
6.61166e-09
-1.39358e-08
-2.23911e-08
5.75653e-09
-1.12988e-08
-2.19917e-08
5.00164e-09
-8.4242e-09
-2.09544e-08
4.33558e-09
-5.58235e-09
-1.91057e-08
3.71795e-09
-3.03244e-09
-1.62115e-08
3.06705e-09
-1.0386e-09
-1.18955e-08
2.23833e-09
-5.49192e-09
1.03987e-09
1.16237e-09
-7.81303e-09
1.17323e-09
3.37811e-09
-1.665e-08
2.53069e-09
6.17284e-09
-2.24568e-08
3.46452e-09
9.25342e-09
-2.63777e-08
4.20734e-09
1.23417e-08
-2.89508e-08
4.91717e-09
1.51554e-08
-3.04853e-08
5.68445e-09
1.74214e-08
-3.1205e-08
6.55001e-09
1.88911e-08
-3.12879e-08
7.52672e-09
1.93622e-08
-3.08903e-08
8.59674e-09
1.8697e-08
-3.01594e-08
9.72396e-09
1.68278e-08
-2.92446e-08
1.08651e-08
1.38062e-08
-2.8293e-08
1.19413e-08
9.81822e-09
-2.73971e-08
1.27976e-08
5.13843e-09
-2.66186e-08
1.33493e-08
7.88082e-11
-2.6212e-08
1.36453e-08
-5.00959e-09
-2.6238e-08
1.36762e-08
-9.68928e-09
-2.66544e-08
1.33696e-08
-1.36641e-08
-2.73528e-08
1.27632e-08
-1.66898e-08
-2.82793e-08
1.19379e-08
-1.85772e-08
-2.92404e-08
1.08801e-08
-1.92647e-08
-3.0156e-08
9.7426e-09
-1.88141e-08
-3.08887e-08
8.61542e-09
-1.73632e-08
-3.12888e-08
7.54482e-09
-1.51142e-08
-3.12075e-08
6.56696e-09
-1.23153e-08
-3.04897e-08
5.6988e-09
-9.24093e-09
-2.89578e-08
4.92896e-09
-6.17173e-09
-2.63874e-08
4.21264e-09
-3.38321e-09
-2.24584e-08
3.45873e-09
-1.16817e-09
-1.66258e-08
2.51565e-09
-7.83166e-09
1.17186e-09
1.22726e-09
-1.02934e-08
1.25359e-09
3.57931e-09
-2.17126e-08
2.71104e-09
6.52711e-09
-2.91105e-08
3.70626e-09
9.74931e-09
-3.4105e-08
4.50528e-09
1.29595e-08
-3.74424e-08
5.28134e-09
1.58724e-08
-3.95242e-08
6.12578e-09
1.8214e-08
-4.06282e-08
7.0813e-09
1.97307e-08
-4.09681e-08
8.16332e-09
2.02174e-08
-4.07281e-08
9.35104e-09
1.95284e-08
-4.00752e-08
1.06048e-08
1.75945e-08
-3.91852e-08
1.18745e-08
1.44329e-08
-3.82291e-08
1.30976e-08
1.02685e-08
-3.73096e-08
1.40771e-08
5.37334e-09
-3.64039e-08
1.46807e-08
8.56302e-11
-3.59209e-08
1.49968e-08
-5.2263e-09
-3.59606e-08
1.50348e-08
-1.01377e-08
-3.64714e-08
1.47287e-08
-1.42873e-08
-3.72564e-08
1.40535e-08
-1.74526e-08
-3.82157e-08
1.31021e-08
-1.94061e-08
-3.91845e-08
1.18976e-08
-2.01174e-08
-4.00753e-08
1.06306e-08
-1.96522e-08
-4.0729e-08
9.37489e-09
-1.81544e-08
-4.09715e-08
8.18458e-09
-1.583e-08
-4.06335e-08
7.1014e-09
-1.2931e-08
-3.95302e-08
6.14123e-09
-9.73402e-09
-3.74478e-08
5.29302e-09
-6.52406e-09
-3.41055e-08
4.50831e-09
-3.58801e-09
-2.90868e-08
3.6926e-09
-1.24198e-09
-2.16537e-08
2.68228e-09
-1.03237e-08
1.25034e-09
1.25155e-09
-1.28246e-08
1.28014e-09
3.64331e-09
-2.68839e-08
2.77999e-09
6.6417e-09
-3.59131e-08
3.80451e-09
9.91235e-09
-4.2003e-08
4.62744e-09
1.31592e-08
-4.61252e-08
5.43592e-09
1.61016e-08
-4.87988e-08
6.33214e-09
1.84697e-08
-5.03527e-08
7.35627e-09
2.00116e-08
-5.10333e-08
8.52321e-09
2.05176e-08
-5.1047e-08
9.81271e-09
1.98397e-08
-5.05788e-08
1.11815e-08
1.7896e-08
-4.98148e-08
1.25733e-08
1.46861e-08
-4.89494e-08
1.39302e-08
1.04429e-08
-4.81143e-08
1.50479e-08
5.45668e-09
-4.71041e-08
1.56865e-08
8.51846e-11
-4.65878e-08
1.60386e-08
-5.31808e-09
-4.66364e-08
1.60793e-08
-1.03399e-08
-4.71735e-08
1.57242e-08
-1.455e-08
-4.80578e-08
1.50119e-08
-1.77557e-08
-4.89392e-08
1.39293e-08
-1.97175e-08
-4.98184e-08
1.25959e-08
-2.04185e-08
-5.05821e-08
1.12077e-08
-1.99336e-08
-5.10515e-08
9.83738e-09
-1.84099e-08
-5.10414e-08
8.54595e-09
-1.6058e-08
-5.03635e-08
7.37786e-09
-1.31291e-08
-4.88092e-08
6.34987e-09
-9.89586e-09
-4.6129e-08
5.44797e-09
-6.64216e-09
-4.19816e-08
4.6225e-09
-3.6576e-09
-3.58467e-08
3.77565e-09
-1.26494e-09
-2.67878e-08
2.74181e-09
-1.28676e-08
1.27924e-09
1.22983e-09
-1.53109e-08
1.25696e-09
3.56466e-09
-3.1961e-08
2.74267e-09
6.50187e-09
-4.26268e-08
3.77681e-09
9.716e-09
-4.98179e-08
4.60093e-09
1.29087e-08
-5.47199e-08
5.40197e-09
1.57983e-08
-5.7996e-08
6.30739e-09
1.81304e-08
-6.00512e-08
7.36621e-09
1.96624e-08
-6.11512e-08
8.58563e-09
2.01851e-08
-6.15132e-08
9.9434e-09
1.9547e-08
-6.1336e-08
1.13953e-08
1.76707e-08
-6.08095e-08
1.28709e-08
1.45418e-08
-6.01211e-08
1.43007e-08
1.03231e-08
-5.94281e-08
1.55324e-08
5.38707e-09
-5.8387e-08
1.6219e-08
8.08106e-11
-5.79151e-08
1.66337e-08
-5.26391e-09
-5.79581e-08
1.66666e-08
-1.02493e-08
-5.84132e-08
1.62253e-08
-1.44294e-08
-5.93421e-08
1.54647e-08
-1.75372e-08
-6.01116e-08
1.42804e-08
-1.94278e-08
-6.08167e-08
1.2889e-08
-2.0087e-08
-6.13448e-08
1.14218e-08
-1.95849e-08
-6.15228e-08
9.96907e-09
-1.80711e-08
-6.11645e-08
8.6092e-09
-1.57546e-08
-6.00685e-08
7.38829e-09
-1.28797e-08
-5.80069e-08
6.32268e-09
-9.70975e-09
-5.4695e-08
5.39604e-09
-6.51852e-09
-4.97318e-08
4.55913e-09
-3.58941e-09
-4.24898e-08
3.71428e-09
-1.23803e-09
-3.18376e-08
2.69881e-09
-1.53631e-08
1.25775e-09
1.16675e-09
-1.76559e-08
1.17867e-09
3.37064e-09
-3.67396e-08
2.57509e-09
6.11493e-09
-4.89529e-08
3.58204e-09
9.13941e-09
-5.72444e-08
4.40208e-09
1.21686e-08
-6.29296e-08
5.1804e-09
1.49126e-08
-6.67857e-08
6.04555e-09
1.71324e-08
-6.93595e-08
7.08825e-09
1.86047e-08
-7.09348e-08
8.31113e-09
1.9133e-08
-7.17265e-08
9.68493e-09
1.85626e-08
-7.19307e-08
1.1165e-08
1.68197e-08
-7.17361e-08
1.26694e-08
1.38901e-08
-7.13116e-08
1.41201e-08
9.8296e-09
-7.07794e-08
1.54117e-08
5.12641e-09
-6.98412e-08
1.61574e-08
7.50557e-11
-6.94604e-08
1.65967e-08
-5.00594e-09
-6.9501e-08
1.66241e-08
-9.74176e-09
-6.98162e-08
1.61391e-08
-1.37804e-08
-7.06066e-08
1.53034e-08
-1.66951e-08
-7.12886e-08
1.40918e-08
-1.84477e-08
-7.17488e-08
1.26848e-08
-1.90384e-08
-7.19446e-08
1.11905e-08
-1.8531e-08
-7.17404e-08
9.71012e-09
-1.70749e-08
-7.09549e-08
8.33408e-09
-1.48677e-08
-6.93832e-08
7.10747e-09
-1.21461e-08
-6.67739e-08
6.04534e-09
-9.15083e-09
-6.28208e-08
5.13052e-09
-6.1351e-09
-5.70609e-08
4.3135e-09
-3.37334e-09
-4.87528e-08
3.50149e-09
-1.16246e-09
-3.65873e-08
2.53905e-09
-1.77101e-08
1.18472e-09
1.05287e-09
-1.97546e-08
1.04613e-09
3.04854e-09
-4.09907e-08
2.25568e-09
5.50782e-09
-5.45702e-08
3.15816e-09
8.19465e-09
-6.38915e-08
3.96034e-09
1.09193e-08
-7.03664e-08
4.71211e-09
1.34035e-08
-7.47822e-08
5.51213e-09
1.54241e-08
-7.78651e-08
6.48481e-09
1.67803e-08
-7.99423e-08
7.65118e-09
1.72906e-08
-8.12064e-08
8.96954e-09
1.6814e-08
-8.18401e-08
1.0386e-08
1.52964e-08
-8.201e-08
1.17915e-08
1.26982e-08
-8.1838e-08
1.31245e-08
8.95729e-09
-8.14262e-08
1.43878e-08
4.66277e-09
-8.08117e-08
1.52651e-08
6.80453e-11
-8.05892e-08
1.57236e-08
-4.54485e-09
-8.063e-08
1.57421e-08
-8.81712e-09
-8.07917e-08
1.52479e-08
-1.24902e-08
-8.13411e-08
1.44078e-08
-1.51254e-08
-8.19424e-08
1.3289e-08
-1.66963e-08
-8.20578e-08
1.188e-08
-1.71984e-08
-8.18609e-08
1.04184e-08
-1.67105e-08
-8.12179e-08
8.98949e-09
-1.53678e-08
-7.99654e-08
7.66761e-09
-1.33552e-08
-7.78904e-08
6.49439e-09
-1.08947e-08
-7.47198e-08
5.48532e-09
-8.19372e-09
-7.01413e-08
4.61952e-09
-5.47249e-09
-6.36316e-08
3.84966e-09
-2.99416e-09
-5.43374e-08
3.10646e-09
-1.02188e-09
-4.08067e-08
2.24738e-09
-1.97853e-08
1.05354e-09
8.87115e-10
-2.15048e-08
8.6338e-10
2.58745e-09
-4.45038e-08
1.81307e-09
4.66544e-09
-5.91422e-08
2.4942e-09
6.91888e-09
-6.93232e-08
3.17835e-09
9.16333e-09
-7.65123e-08
3.90139e-09
1.12478e-08
-8.15133e-08
4.64648e-09
1.29709e-08
-8.50928e-08
5.5044e-09
1.41556e-08
-8.76711e-08
6.5439e-09
1.46373e-08
-8.94116e-08
7.72336e-09
1.42873e-08
-9.04428e-08
8.95264e-09
1.302e-08
-9.08999e-08
1.01572e-08
1.07559e-08
-9.10076e-08
1.14337e-08
7.59776e-09
-9.09062e-08
1.26381e-08
3.96703e-09
-9.06304e-08
1.34495e-08
5.6877e-11
-9.05411e-08
1.38621e-08
-3.88142e-09
-9.05177e-08
1.3826e-08
-7.51884e-09
-9.04872e-08
1.33331e-08
-1.0632e-08
-9.07786e-08
1.25507e-08
-1.28554e-08
-9.12664e-08
1.15476e-08
-1.41516e-08
-9.09929e-08
1.02313e-08
-1.45348e-08
-9.04307e-08
8.95293e-09
-1.40852e-08
-8.93795e-08
7.71197e-09
-1.2916e-08
-8.76768e-08
6.54217e-09
-1.11826e-08
-8.51182e-08
5.49425e-09
-9.09902e-09
-8.14094e-08
4.60598e-09
-6.83832e-09
-7.62693e-08
3.8673e-09
-4.59164e-09
-6.91212e-08
3.24295e-09
-2.52874e-09
-5.90373e-08
2.63718e-09
-8.72418e-10
-4.43742e-08
1.91136e-09
-2.15497e-08
8.92107e-10
6.80594e-10
-2.2836e-08
6.50843e-10
1.96007e-09
-4.71695e-08
1.38643e-09
3.56433e-09
-6.26184e-08
1.87214e-09
5.28238e-09
-7.33323e-08
2.29113e-09
6.94763e-09
-8.09879e-08
2.81037e-09
8.49758e-09
-8.65025e-08
3.43915e-09
9.80484e-09
-9.05486e-08
4.14842e-09
1.07503e-08
-9.3571e-08
4.95429e-09
1.12122e-08
-9.57311e-08
5.85749e-09
1.09658e-08
-9.70326e-08
6.83619e-09
9.87999e-09
-9.77382e-08
7.92412e-09
8.06001e-09
-9.82292e-08
9.04165e-09
5.77168e-09
-9.86017e-08
9.98392e-09
3.04951e-09
-9.85396e-08
1.06314e-08
4.96757e-11
-9.84834e-08
1.09422e-08
-3.00031e-09
-9.83378e-08
1.08701e-08
-5.77875e-09
-9.81796e-08
1.04709e-08
-8.11759e-09
-9.82382e-08
9.79848e-09
-9.88281e-09
-9.83486e-08
8.84744e-09
-1.08616e-08
-9.76955e-08
7.68144e-09
-1.10997e-08
-9.68675e-08
6.67493e-09
-1.07199e-08
-9.55031e-08
5.74374e-09
-9.82533e-09
-9.34598e-08
4.88833e-09
-8.52517e-09
-9.05866e-08
4.16811e-09
-6.94116e-09
-8.65407e-08
3.54729e-09
-5.22007e-09
-8.09731e-08
2.98279e-09
-3.5047e-09
-7.33199e-08
2.48347e-09
-1.92955e-09
-6.26159e-08
2.00355e-09
-6.66631e-10
-4.70849e-08
1.44795e-09
-2.28908e-08
6.74573e-10
4.5977e-10
-2.36913e-08
3.95809e-10
1.23979e-09
-4.87812e-08
8.31971e-10
2.24094e-09
-6.48226e-08
1.20324e-09
3.32747e-09
-7.59209e-08
1.50218e-09
4.39344e-09
-8.39001e-08
1.84622e-09
5.39103e-09
-8.97424e-08
2.24231e-09
6.22876e-09
-9.40497e-08
2.66325e-09
6.79756e-09
-9.72254e-08
3.0855e-09
7.10421e-09
-9.95833e-08
3.54545e-09
6.92522e-09
-1.01076e-07
4.22221e-09
6.21287e-09
-1.0208e-07
5.05458e-09
5.11053e-09
-1.02947e-07
5.82006e-09
3.66839e-09
-1.03578e-07
6.41875e-09
1.94518e-09
-1.03651e-07
6.83464e-09
5.91839e-11
-1.03663e-07
7.06551e-09
-1.85556e-09
-1.03469e-07
7.04551e-09
-3.61087e-09
-1.03235e-07
6.81125e-09
-5.05949e-09
-1.03173e-07
6.38378e-09
-6.19105e-09
-1.03018e-07
5.80069e-09
-6.88686e-09
-1.02031e-07
5.03137e-09
-7.14603e-09
-1.00828e-07
4.2192e-09
-6.94349e-09
-9.91681e-08
3.46243e-09
-6.33019e-09
-9.69547e-08
2.88164e-09
-5.42417e-09
-9.39765e-08
2.48393e-09
-4.37841e-09
-8.97553e-08
2.16883e-09
-3.27989e-09
-8.39334e-08
1.8617e-09
-2.19596e-09
-7.59609e-08
1.55706e-09
-1.20542e-09
-6.48617e-08
1.25531e-09
-4.16848e-10
-4.87786e-08
9.05169e-10
-2.3729e-08
4.21372e-10
1.68038e-10
-2.39937e-08
1.34508e-10
4.31078e-10
-4.93321e-08
2.87922e-10
7.83657e-10
-6.56049e-08
4.29813e-10
1.17086e-09
-7.68448e-08
5.36797e-10
1.56187e-09
-8.4935e-08
6.43931e-10
1.95796e-09
-9.08719e-08
7.33329e-10
2.32625e-09
-9.52294e-08
8.11393e-10
2.54618e-09
-9.83834e-08
9.38003e-10
2.57725e-09
-1.0075e-07
1.13611e-09
2.43868e-09
-1.02356e-07
1.41845e-09
2.21814e-09
-1.03574e-07
1.71433e-09
1.89447e-09
-1.04588e-07
1.96474e-09
1.28546e-09
-1.05104e-07
2.13467e-09
6.39205e-10
-1.0526e-07
2.25523e-09
3.47137e-11
-1.05435e-07
2.37608e-09
-6.38004e-10
-1.05274e-07
2.47854e-09
-1.26736e-09
-1.0508e-07
2.47347e-09
-1.76486e-09
-1.04987e-07
2.31108e-09
-2.15669e-09
-1.04722e-07
2.09574e-09
-2.39897e-09
-1.0362e-07
1.83169e-09
-2.49744e-09
-1.02282e-07
1.55274e-09
-2.43597e-09
-1.00513e-07
1.28336e-09
-2.22237e-09
-9.82318e-08
1.06347e-09
-1.90184e-09
-9.51934e-08
8.96277e-10
-1.52927e-09
-9.08853e-08
7.57338e-10
-1.13955e-09
-8.49556e-08
6.32545e-10
-7.56658e-10
-7.68669e-08
5.23161e-10
-4.10631e-10
-6.56286e-08
4.20974e-10
-1.41196e-10
-4.93485e-08
3.00531e-10
-2.40149e-08
1.44703e-10
-1.18323e-10
-2.37452e-08
-1.30186e-10
-3.67702e-10
-4.88199e-08
-2.62682e-10
-6.74384e-10
-6.494e-08
-3.58167e-10
-1.00995e-09
-7.60631e-08
-4.46094e-10
-1.35607e-09
-8.4061e-08
-5.27834e-10
-1.70405e-09
-8.99378e-08
-5.86065e-10
-2.02894e-09
-9.42747e-08
-6.29771e-10
-2.23528e-09
-9.74612e-08
-7.15824e-10
-2.23957e-09
-9.98304e-08
-9.15802e-10
-2.08885e-09
-1.01291e-07
-1.21521e-09
-1.89361e-09
-1.02269e-07
-1.49992e-09
-1.72475e-09
-1.03066e-07
-1.69056e-09
-1.45738e-09
-1.03557e-07
-1.81419e-09
-8.99315e-10
-1.03875e-07
-1.94352e-09
-8.54447e-11
-1.04108e-07
-2.14062e-09
5.83076e-10
-1.03726e-07
-2.21697e-09
1.15863e-09
-1.03528e-07
-2.1276e-09
1.67598e-09
-1.03517e-07
-1.98708e-09
1.96091e-09
-1.032e-07
-1.80628e-09
2.14387e-09
-1.02209e-07
-1.59389e-09
2.23479e-09
-1.01016e-07
-1.3568e-09
2.18532e-09
-9.93497e-08
-1.1137e-09
2.01419e-09
-9.71375e-08
-9.2316e-10
1.72693e-09
-9.41204e-08
-7.85779e-10
1.394e-09
-8.98719e-08
-6.80457e-10
1.04867e-09
-8.40297e-08
-5.80651e-10
7.03809e-10
-7.6041e-08
-4.8115e-10
3.91254e-10
-6.49348e-08
-3.81313e-10
1.40993e-10
-4.88334e-08
-2.64886e-10
-2.37506e-08
-1.23376e-10
-4.01709e-10
-2.2938e-08
-4.05511e-10
-1.16701e-09
-4.7187e-08
-8.67609e-10
-2.12214e-09
-6.278e-08
-1.20474e-09
-3.16806e-09
-7.35211e-08
-1.49603e-09
-4.21897e-09
-8.121e-08
-1.80001e-09
-5.19314e-09
-8.68238e-08
-2.13975e-09
-6.00257e-09
-9.09449e-08
-2.52034e-09
-6.5757e-09
-9.39387e-08
-2.9493e-09
-6.84073e-09
-9.61343e-08
-3.43097e-09
-6.63616e-09
-9.74411e-08
-4.05468e-09
-5.95438e-09
-9.81161e-08
-4.83512e-09
-4.97252e-09
-9.85101e-08
-5.53809e-09
-3.6369e-09
-9.88145e-08
-6.07844e-09
-1.95714e-09
-9.90518e-08
-6.50282e-09
-3.48717e-11
-9.92521e-08
-6.77824e-09
1.82212e-09
-9.88302e-08
-6.75285e-09
3.56827e-09
-9.87541e-08
-6.51964e-09
5.0962e-09
-9.89465e-08
-6.09847e-09
6.01289e-09
-9.85995e-08
-5.51724e-09
6.6087e-09
-9.79502e-08
-4.85498e-09
6.87262e-09
-9.71862e-08
-4.09347e-09
6.67516e-09
-9.58535e-08
-3.29872e-09
6.10421e-09
-9.3791e-08
-2.77554e-09
5.23088e-09
-9.08197e-08
-2.42734e-09
4.22791e-09
-8.67546e-08
-2.11448e-09
3.18934e-09
-8.11896e-08
-1.80164e-09
2.14708e-09
-7.35148e-08
-1.48406e-09
1.20028e-09
-6.28146e-08
-1.17347e-09
4.36065e-10
-4.7253e-08
-8.16249e-10
-2.29253e-08
-3.89255e-10
-6.57345e-10
-2.16219e-08
-6.58908e-10
-1.89479e-09
-4.45344e-08
-1.41535e-09
-3.44005e-09
-5.92699e-08
-1.96491e-09
-5.12414e-09
-6.93976e-08
-2.43937e-09
-6.80795e-09
-7.65916e-08
-2.93459e-09
-8.3457e-09
-8.17779e-08
-3.50812e-09
-9.59943e-09
-8.5522e-08
-4.16909e-09
-1.04871e-08
-8.81164e-08
-4.9345e-09
-1.09308e-08
-8.9893e-08
-5.79754e-09
-1.07121e-08
-9.09618e-08
-6.69786e-09
-9.67453e-09
-9.14204e-08
-7.73328e-09
-7.95219e-09
-9.14278e-08
-8.80481e-09
-5.69864e-09
-9.13568e-08
-9.71147e-09
-3.01249e-09
-9.13661e-08
-1.03721e-08
-3.8907e-11
-9.14976e-08
-1.07282e-08
2.91986e-09
-9.11413e-08
-1.06477e-08
5.67581e-09
-9.12021e-08
-1.03079e-08
8.06228e-09
-9.16667e-08
-9.66616e-09
9.68518e-09
-9.1487e-08
-8.73531e-09
1.06662e-08
-9.12217e-08
-7.7094e-09
1.09631e-08
-9.0806e-08
-6.67712e-09
1.05873e-08
-8.98355e-08
-5.64198e-09
9.65851e-09
-8.81136e-08
-4.74864e-09
8.34174e-09
-8.54975e-08
-4.00549e-09
6.78247e-09
-8.18259e-08
-3.36945e-09
5.13037e-09
-7.67348e-08
-2.80279e-09
3.47936e-09
-6.95573e-08
-2.30663e-09
1.95401e-09
-5.94558e-08
-1.83366e-09
6.98103e-10
-4.47078e-08
-1.28949e-09
-2.16051e-08
-6.22279e-10
-8.77482e-10
-1.98734e-08
-8.71328e-10
-2.50623e-09
-4.10306e-08
-1.87527e-09
-4.54402e-09
-5.46158e-08
-2.61647e-09
-6.76821e-09
-6.3943e-08
-3.23049e-09
-9.00227e-09
-7.05006e-08
-3.85687e-09
-1.10718e-08
-7.51204e-08
-4.58791e-09
-1.27945e-08
-7.83322e-08
-5.46709e-09
-1.39581e-08
-8.04504e-08
-6.50226e-09
-1.44327e-08
-8.17597e-08
-7.65847e-09
-1.4094e-08
-8.24445e-08
-8.85585e-09
-1.28248e-08
-8.26435e-08
-1.00461e-08
-1.05548e-08
-8.24345e-08
-1.12635e-08
-7.49698e-09
-8.2e-08
-1.24149e-08
-3.92807e-09
-8.16774e-08
-1.32579e-08
-3.17191e-11
-8.16893e-08
-1.37048e-08
3.85573e-09
-8.14366e-08
-1.35923e-08
7.46054e-09
-8.1637e-08
-1.317e-08
1.05666e-08
-8.23482e-08
-1.24246e-08
1.27973e-08
-8.2515e-08
-1.12026e-08
1.40813e-08
-8.26037e-08
-9.90196e-09
1.44542e-08
-8.243e-08
-8.74882e-09
1.40026e-08
-8.17824e-08
-7.60134e-09
1.28382e-08
-8.04879e-08
-6.46137e-09
1.11352e-08
-7.83631e-08
-5.43148e-09
9.07114e-09
-7.51957e-08
-4.56625e-09
6.85114e-09
-7.07004e-08
-3.81457e-09
4.65221e-09
-6.42823e-08
-3.07623e-09
2.60168e-09
-5.50253e-08
-2.38011e-09
9.19326e-10
-4.13455e-08
-1.68017e-09
-1.98625e-08
-8.23345e-10
-1.04846e-09
-1.77876e-08
-1.0378e-09
-2.98585e-09
-3.68714e-08
-2.22215e-09
-5.4362e-09
-4.90598e-08
-3.1059e-09
-8.1398e-09
-5.73915e-08
-3.84792e-09
-1.08375e-08
-6.31993e-08
-4.60364e-09
-1.32984e-08
-6.72016e-08
-5.45786e-09
-1.5312e-08
-6.98571e-08
-6.46136e-09
-1.66586e-08
-7.14788e-08
-7.62499e-09
-1.71614e-08
-7.2318e-08
-8.93875e-09
-1.66869e-08
-7.25723e-08
-1.03465e-08
-1.51688e-08
-7.24155e-08
-1.17461e-08
-1.25624e-08
-7.20021e-08
-1.3039e-08
-8.9083e-09
-7.14237e-08
-1.42306e-08
-4.62455e-09
-7.07793e-08
-1.51821e-08
-2.32365e-11
-7.05649e-08
-1.5726e-08
4.56202e-09
-7.03843e-08
-1.56376e-08
8.83334e-09
-7.07377e-08
-1.51707e-08
1.24839e-08
-7.16294e-08
-1.43694e-08
1.51248e-08
-7.20552e-08
-1.31006e-08
1.66805e-08
-7.24322e-08
-1.17271e-08
1.71716e-08
-7.25919e-08
-1.03291e-08
1.66772e-08
-7.23495e-08
-8.93843e-09
1.5336e-08
-7.15184e-08
-7.62822e-09
1.33337e-08
-6.98997e-08
-6.46116e-09
1.08675e-08
-6.72563e-08
-5.47329e-09
8.15169e-09
-6.33143e-08
-4.67038e-09
5.45203e-09
-5.76272e-08
-3.95557e-09
3.01591e-09
-4.93832e-08
-3.20627e-09
1.05627e-09
-3.71126e-08
-2.27346e-09
-1.77707e-08
-1.03569e-09
-1.16398e-09
-1.54434e-08
-1.18057e-09
-3.36653e-09
-3.21232e-08
-2.54609e-09
-6.12417e-09
-4.27973e-08
-3.50513e-09
-9.13719e-09
-5.00704e-08
-4.30828e-09
-1.21361e-08
-5.5083e-08
-5.11747e-09
-1.48663e-08
-5.84422e-08
-6.02927e-09
-1.70812e-08
-6.05516e-08
-7.09057e-09
-1.85488e-08
-6.16964e-08
-8.31467e-09
-1.90705e-08
-6.2104e-08
-9.69208e-09
-1.84989e-08
-6.19704e-08
-1.11733e-08
-1.67559e-08
-6.1484e-08
-1.26744e-08
-1.38447e-08
-6.08316e-08
-1.40818e-08
-9.83227e-09
-6.01417e-08
-1.52947e-08
-5.06833e-09
-5.93716e-08
-1.61719e-08
-1.5489e-11
-5.89205e-08
-1.66974e-08
5.04822e-09
-5.88056e-08
-1.66426e-08
9.79786e-09
-5.92919e-08
-1.61955e-08
1.37907e-08
-6.02047e-08
-1.54176e-08
1.67223e-08
-6.08525e-08
-1.41343e-08
1.84834e-08
-6.15035e-08
-1.26898e-08
1.90693e-08
-6.19929e-08
-1.11849e-08
1.85567e-08
-6.21328e-08
-9.70406e-09
1.7096e-08
-6.17318e-08
-8.32602e-09
1.48877e-08
-6.05932e-08
-7.09821e-09
1.21595e-08
-5.84894e-08
-6.03873e-09
9.14208e-09
-5.51454e-08
-5.15159e-09
6.0978e-09
-5.0185e-08
-4.39811e-09
3.33391e-09
-4.29826e-08
-3.63702e-09
1.15641e-09
-3.23028e-08
-2.63262e-09
-1.54298e-08
-1.18474e-09
-1.21686e-09
-1.29576e-08
-1.2693e-09
-3.58434e-09
-2.70192e-08
-2.73684e-09
-6.52985e-09
-3.61261e-08
-3.72588e-09
-9.73018e-09
-4.2309e-08
-4.56121e-09
-1.29125e-08
-4.6503e-08
-5.39769e-09
-1.58014e-08
-4.9227e-08
-6.32636e-09
-1.81344e-08
-5.08234e-08
-7.39528e-09
-1.96661e-08
-5.15439e-08
-8.62058e-09
-2.01862e-08
-5.15964e-08
-9.98723e-09
-1.95419e-08
-5.1168e-08
-1.14464e-08
-1.76578e-08
-5.04392e-08
-1.29288e-08
-1.45377e-08
-4.96007e-08
-1.43511e-08
-1.03386e-08
-4.87638e-08
-1.55772e-08
-5.32218e-09
-4.79816e-08
-1.64067e-08
-8.26755e-12
-4.74314e-08
-1.68032e-08
5.32231e-09
-4.73842e-08
-1.67521e-08
1.03179e-08
-4.7932e-08
-1.63555e-08
1.4501e-08
-4.88007e-08
-1.55872e-08
1.76251e-08
-4.96167e-08
-1.43598e-08
1.95214e-08
-5.04551e-08
-1.29447e-08
2.01778e-08
-5.11865e-08
-1.14627e-08
1.96681e-08
-5.16212e-08
-1.00019e-08
1.81449e-08
-5.15744e-08
-8.63411e-09
1.58161e-08
-5.0859e-08
-7.40543e-09
1.29297e-08
-4.92677e-08
-6.33531e-09
9.74428e-09
-4.65499e-08
-5.41027e-09
6.52491e-09
-4.23716e-08
-4.59422e-09
3.57082e-09
-3.62387e-08
-3.79005e-09
1.22716e-09
-2.71806e-08
-2.77877e-09
-1.29394e-08
-1.26339e-09
-1.25533e-09
-1.04115e-08
-1.29101e-09
-3.66773e-09
-2.18417e-08
-2.76534e-09
-6.6708e-09
-2.93357e-08
-3.78741e-09
-9.94281e-09
-3.44029e-08
-4.63414e-09
-1.31969e-08
-3.77866e-08
-5.46243e-09
-1.61477e-08
-3.99071e-08
-6.36915e-09
-1.85222e-08
-4.10453e-08
-7.40365e-09
-2.00677e-08
-4.1418e-08
-8.58027e-09
-2.05714e-08
-4.12107e-08
-9.88162e-09
-1.98847e-08
-4.05903e-08
-1.12642e-08
-1.79248e-08
-3.97306e-08
-1.26684e-08
-1.47166e-08
-3.8789e-08
-1.402e-08
-1.04977e-08
-3.78534e-08
-1.51296e-08
-5.47636e-09
-3.71165e-08
-1.58868e-08
-4.34902e-11
-3.66379e-08
-1.62266e-08
5.36391e-09
-3.65867e-08
-1.62049e-08
1.03654e-08
-3.70563e-08
-1.58772e-08
1.46504e-08
-3.79018e-08
-1.51839e-08
1.78915e-08
-3.88053e-08
-1.40526e-08
1.98611e-08
-3.97382e-08
-1.26865e-08
2.05596e-08
-4.06035e-08
-1.12815e-08
2.00648e-08
-4.12292e-08
-9.89724e-09
1.85268e-08
-4.14425e-08
-8.59385e-09
1.61573e-08
-4.10736e-08
-7.41583e-09
1.32089e-08
-3.99389e-08
-6.38051e-09
9.95483e-09
-3.78228e-08
-5.47307e-09
6.67728e-09
-3.44447e-08
-4.64961e-09
3.65968e-09
-2.93955e-08
-3.82589e-09
1.24328e-09
-2.19416e-08
-2.82288e-09
-1.0402e-08
-1.29433e-09
-1.24433e-09
-7.90509e-09
-1.26227e-09
-3.6067e-09
-1.67792e-08
-2.70029e-09
-6.56455e-09
-2.2668e-08
-3.71008e-09
-9.80002e-09
-2.66386e-08
-4.52906e-09
-1.30247e-08
-2.92434e-08
-5.31866e-09
-1.59524e-08
-3.08057e-08
-6.1739e-09
-1.83042e-08
-3.15517e-08
-7.14177e-09
-1.98276e-08
-3.16595e-08
-8.23484e-09
-2.0314e-08
-3.1285e-08
-9.43912e-09
-1.96132e-08
-3.05781e-08
-1.07127e-08
-1.76553e-08
-2.96857e-08
-1.20027e-08
-1.45004e-08
-2.87328e-08
-1.32112e-08
-1.03495e-08
-2.78303e-08
-1.41742e-08
-5.42571e-09
-2.71582e-08
-1.48825e-08
-4.93295e-11
-2.67847e-08
-1.52299e-08
5.29479e-09
-2.67284e-08
-1.52025e-08
1.0225e-08
-2.71116e-08
-1.48749e-08
1.44316e-08
-2.78722e-08
-1.42362e-08
1.76218e-08
-2.87511e-08
-1.32444e-08
1.95876e-08
-2.96891e-08
-1.20148e-08
2.02966e-08
-3.05855e-08
-1.0727e-08
1.98216e-08
-3.12989e-08
-9.45514e-09
1.83053e-08
-3.16765e-08
-8.24977e-09
1.5958e-08
-3.15725e-08
-7.15377e-09
1.30338e-08
-3.083e-08
-6.1847e-09
9.81094e-09
-2.92709e-08
-5.32912e-09
6.57269e-09
-2.66671e-08
-4.53948e-09
3.60699e-09
-2.27035e-08
-3.72649e-09
1.23029e-09
-1.68318e-08
-2.73345e-09
-7.90727e-09
-1.26468e-09
-1.17496e-09
-5.5484e-09
-1.18184e-09
-3.40802e-09
-1.20146e-08
-2.53168e-09
-6.22137e-09
-1.63758e-08
-3.47896e-09
-9.31985e-09
-1.93025e-08
-4.23775e-09
-1.24258e-08
-2.11769e-08
-4.96068e-09
-1.52574e-08
-2.22367e-08
-5.73749e-09
-1.75366e-08
-2.26566e-08
-6.616e-09
-1.90151e-08
-2.25761e-08
-7.60464e-09
-1.94867e-08
-2.21231e-08
-8.68994e-09
-1.88074e-08
-2.14177e-08
-9.83947e-09
-1.69097e-08
-2.05747e-08
-1.10085e-08
-1.38911e-08
-1.96971e-08
-1.20545e-08
-9.90624e-09
-1.89127e-08
-1.29029e-08
-5.18756e-09
-1.83341e-08
-1.35432e-08
-4.30824e-11
-1.80366e-08
-1.38928e-08
5.07338e-09
-1.79909e-08
-1.3854e-08
9.80106e-09
-1.83042e-08
-1.3535e-08
1.38281e-08
-1.89381e-08
-1.29612e-08
1.68772e-08
-1.97118e-08
-1.20884e-08
1.87804e-08
-2.05802e-08
-1.10122e-08
1.94682e-08
-2.1422e-08
-9.85124e-09
1.90061e-08
-2.21313e-08
-8.70545e-09
1.75359e-08
-2.25874e-08
-7.61886e-09
1.52615e-08
-2.26702e-08
-6.62789e-09
1.24332e-08
-2.22536e-08
-5.74816e-09
9.32654e-09
-2.1195e-08
-4.96938e-09
6.22725e-09
-1.93218e-08
-4.24617e-09
3.41217e-09
-1.64003e-08
-3.48844e-09
1.17239e-09
-1.20461e-08
-2.54622e-09
-5.55197e-09
-1.18311e-09
-1.04729e-09
-3.45238e-09
-1.04879e-09
-3.05987e-09
-7.74818e-09
-2.25393e-09
-5.63663e-09
-1.07119e-08
-3.08728e-09
-8.50824e-09
-1.2687e-08
-3.74405e-09
-1.14158e-08
-1.39013e-08
-4.36833e-09
-1.40883e-08
-1.45235e-08
-5.04093e-09
-1.62523e-08
-1.46853e-08
-5.80722e-09
-1.7666e-08
-1.44892e-08
-6.67309e-09
-1.81312e-08
-1.40302e-08
-7.62738e-09
-1.75096e-08
-1.33975e-08
-8.64153e-09
-1.57471e-08
-1.26735e-08
-9.66348e-09
-1.29385e-08
-1.19516e-08
-1.05543e-08
-9.22049e-09
-1.13205e-08
-1.13106e-08
-4.82068e-09
-1.08559e-08
-1.18784e-08
-3.67301e-11
-1.06177e-08
-1.2203e-08
4.72429e-09
-1.05908e-08
-1.21612e-08
9.1252e-09
-1.08386e-08
-1.18665e-08
1.28688e-08
-1.13283e-08
-1.13533e-08
1.57066e-08
-1.19574e-08
-1.05923e-08
1.74825e-08
-1.26775e-08
-9.67869e-09
1.81124e-08
-1.34e-08
-8.65185e-09
1.76563e-08
-1.40345e-08
-7.64077e-09
1.62499e-08
-1.44953e-08
-6.68563e-09
1.409e-08
-1.46933e-08
-5.81703e-09
1.14201e-08
-1.45331e-08
-5.05074e-09
8.51289e-09
-1.39122e-08
-4.37557e-09
5.64252e-09
-1.27013e-08
-3.75029e-09
3.06765e-09
-1.07342e-08
-3.09145e-09
1.04984e-09
-7.77184e-09
-2.25676e-09
-3.45479e-09
-1.04752e-09
-8.56289e-10
-1.74098e-09
-8.55113e-10
-2.55771e-09
-4.20707e-09
-1.83974e-09