/*--------------------------------*- C++ -*----------------------------------*\
| =========                 |                                                 |
| \\      /  F ield         | OpenFOAM: The Open Source CFD Toolbox           |
|  \\    /   O peration     | Version:  v1906                                 |
|   \\  /    A nd           | Web:      www.OpenFOAM.com                      |
|    \\/     M anipulation  |                                                 |
\*---------------------------------------------------------------------------*/
FoamFile
{
    version     2.0;
    format      ascii;
    class       volScalarField;
    location    "24/sphere";
    object      T;
}
// * * * * * * * * * * * * * * * * * * * * * * * * * * * * * * * * * * * * * //

dimensions      [0 0 0 1 0 0 0];


internalField   nonuniform List<scalar> 
304
(
485.793
485.824
485.822
485.839
485.795
485.793
485.792
485.824
485.791
485.953
485.953
485.838
485.822
485.952
485.952
485.871
485.838
485.871
485.795
485.823
485.84
485.793
485.825
485.953
485.952
485.871
485.84
485.952
485.952
485.9
485.791
485.871
485.9
485.831
485.794
485.841
485.871
485.797
485.798
485.872
485.899
485.829
485.795
485.831
485.781
485.78
485.794
485.795
485.796
485.832
485.794
485.795
485.832
485.796
485.78
485.795
485.797
485.795
485.832
485.824
485.824
485.839
485.84
485.873
485.872
485.9
485.792
485.84
485.824
485.873
485.839
485.9
485.872
485.794
485.797
485.832
485.795
485.792
485.792
485.83
485.794
485.839
485.788
485.821
485.87
485.899
485.836
485.87
485.824
485.822
485.791
485.9
485.872
485.871
485.837
485.831
485.793
485.794
485.779
485.792
485.794
485.83
485.793
485.83
485.795
485.793
485.778
485.795
485.793
485.793
485.831
485.824
485.839
485.873
485.823
485.84
485.872
485.9
485.793
485.873
485.84
485.84
485.824
485.9
485.872
485.796
485.794
485.831
485.794
485.839
485.824
485.872
485.824
485.872
485.84
485.9
485.791
485.872
485.824
485.872
485.824
485.9
485.84
485.871
485.789
485.837
485.84
485.9
485.822
485.871
485.823
485.838
485.79
485.9
485.839
485.871
485.822
485.796
485.792
485.831
485.793
485.871
485.792
485.824
485.871
485.9
485.823
485.84
485.838
485.824
485.791
485.9
485.871
485.84
485.823
485.83
485.791
485.792
485.792
485.794
485.831
485.798
485.84
485.872
485.9
485.792
485.823
485.84
485.872
485.823
485.9
485.871
485.823
485.79
485.871
485.836
485.83
485.793
485.793
485.873
485.84
485.9
485.795
485.842
485.825
485.873
485.824
485.9
485.84
485.838
485.793
485.872
485.824
485.9
485.823
485.871
485.825
485.873
485.792
485.839
485.839
485.871
485.823
485.871
485.823
485.838
485.79
485.83
485.793
485.796
485.9
485.823
485.84
485.839
485.872
485.792
485.824
485.872
485.84
485.824
485.872
485.84
485.825
485.795
485.793
485.793
485.796
485.783
485.792
485.797
485.831
485.793
485.83
485.794
485.792
485.778
485.8
485.796
485.833
485.796
485.872
485.873
485.9
485.795
485.824
485.825
485.84
485.838
485.9
485.872
485.823
485.79
485.839
485.823
485.831
485.794
485.793
485.833
485.797
485.794
485.9
485.838
485.871
485.823
485.839
485.789
485.822
485.871
485.871
485.838
485.839
485.822
485.822
485.79
485.792
485.794
485.791
485.781
485.83
485.794
485.792
485.796
485.794
485.792
)
;

boundaryField
{
    sphere_to_oil
    {
        type            compressible::turbulentTemperatureCoupledBaffleMixed;
        refValue        nonuniform List<scalar> 
360
(
337.766
337.766
312.711
359.775
367.412
315.181
368.597
368.597
368.597
338.241
338.241
315.572
317.315
311.134
335.436
363.875
358.439
358.439
358.439
312.088
355.903
333.796
330.747
363.891
311.64
364.968
314.691
364.465
364.465
364.465
369.505
362.306
312.739
312.552
315.395
315.548
358.804
358.804
358.804
358.166
366.648
313.423
315.542
337.69
337.69
314.598
317.366
309.749
335.615
365.383
315.35
315.209
317.011
317.284
311.835
333.976
359.526
312.058
315.521
316.904
310.138
365.625
365.625
365.625
309.746
364.313
335.366
323.466
367.904
367.904
367.904
367.632
366.16
310.83
356.72
334.688
311.332
329.114
366.402
359.25
331.822
321.159
330.926
310.033
312.71
315.08
315.754
317.189
311.121
312.208
312.735
317.155
315.521
312.857
317.026
315.449
315.713
315.58
313.193
310.525
310.61
311.074
315.177
315.548
317.172
310.984
311.277
317.332
313.206
315.724
315.782
315.628
313.223
311.943
310.116
310.064
324.933
323.114
325.986
337.765
337.765
359.775
359.775
363.891
363.891
361.185
361.185
361.185
363.596
363.596
363.596
325.458
323.064
324.92
311.553
367.412
367.412
335.831
335.831
369.505
369.505
333.521
333.521
368.8
368.8
368.8
311.538
311.636
364.319
364.319
364.319
364.907
364.907
364.907
363.875
355.903
335.436
363.875
361.873
311.291
361.873
361.873
330.836
331.359
321.781
333.257
333.257
368.356
368.356
368.356
309.816
355.903
333.796
367.43
367.43
309.886
367.43
331.621
321.61
309.849
314.627
314.836
317.607
311.552
317.356
314.829
309.815
310.555
364.968
364.968
362.306
362.306
337.676
337.676
360.007
360.007
360.007
336.031
336.031
310.473
315.185
315.34
317.316
315.378
315.102
317.321
313.109
317.324
315.622
313.094
358.166
317.37
315.814
312.084
367.194
367.194
367.194
334.719
334.719
309.733
315.672
315.677
316.87
366.648
313.235
316.781
315.648
358.166
366.648
334.796
311.958
334.796
310.171
310.109
317.304
311.622
314.78
314.71
314.89
311.491
310.209
365.838
358.16
365.838
365.838
358.16
358.16
365.383
364.313
335.615
361.657
310.553
365.383
361.657
361.657
316.839
312.57
315.609
317.124
312.861
367.632
315.271
315.635
315.807
313.174
359.526
356.72
315.667
315.628
313.173
358.353
362.367
333.976
366.972
310.226
359.526
366.972
366.972
317.154
313.271
366.402
315.631
315.468
315.512
366.536
313.228
366.077
335.142
358.353
335.142
366.536
358.353
366.536
309.741
322.86
323.964
324.391
336.473
360.103
336.473
360.103
360.103
310.405
364.313
361.4
335.366
361.4
310.51
361.4
325.344
325.06
310.812
365.657
334.134
365.657
365.657
334.134
311.02
315.062
315.405
317.238
366.16
367.632
334.279
311.334
366.16
334.279
311.039
356.72
363.51
334.688
363.51
310.832
363.51
317.374
359.25
313.278
315.701
362.16
358.65
362.367
335.439
362.367
362.16
335.439
362.16
320.974
330.914
366.402
334.389
309.928
359.25
334.389
312.224
366.077
358.65
366.077
335.308
358.65
335.308
)
;
        refGradient     uniform 0;
        valueFraction   nonuniform List<scalar> 
360
(
0.000131193
0.000125862
8.05781e-05
0.000287861
0.000295228
0.000169286
0.000297062
0.000254988
0.000396902
0.000126369
0.000123207
0.000165286
0.000251904
7.20243e-05
0.000128841
0.000250456
0.000287016
0.000268174
0.000376309
6.59059e-05
0.000247079
0.000121465
0.000111949
0.000297079
8.62524e-05
0.000305363
0.000172126
0.000301419
0.000394467
0.00026387
0.00030147
0.000304066
8.16473e-05
8.07352e-05
0.000169426
0.000166732
0.000282131
0.000382485
0.000262646
0.000394913
0.00039009
8.32943e-05
0.000165215
0.000120581
0.000120437
0.000170076
0.000254453
6.78865e-05
0.000121471
0.000257577
0.000167779
0.000168868
0.000251716
0.00024927
7.0424e-05
0.000128832
0.000262724
6.74644e-05
0.000167132
0.000249231
6.60355e-05
0.000293409
0.000259009
0.000405379
6.80806e-05
0.000264826
0.000123529
0.000119478
0.000300188
0.000391608
0.000263422
0.000377636
0.000382922
7.31321e-05
0.000255316
0.000129522
6.74258e-05
0.000120905
0.000382108
0.000396943
0.000118584
0.000116347
0.000114278
6.79165e-05
8.19009e-05
0.000166044
0.000166974
0.000252865
7.63296e-05
6.44488e-05
8.10554e-05
0.000252453
0.000166658
8.27988e-05
0.000252036
0.000168561
0.000167563
0.000167821
8.1837e-05
6.5597e-05
6.65172e-05
6.56319e-05
0.000168727
0.000165836
0.000252263
7.42691e-05
6.45102e-05
0.000252079
8.00803e-05
0.000166096
0.000166128
0.000169517
8.28917e-05
6.63756e-05
6.47335e-05
6.59842e-05
0.000114856
0.000114994
0.000119461
0.000129538
0.000121748
0.000251562
0.000396294
0.000265038
0.000399938
0.000256359
0.000394136
0.000293457
0.000256566
0.000385557
0.000289007
0.000117881
0.000111479
0.000114183
6.30327e-05
0.000261419
0.000393601
0.000121777
0.000122334
0.000397769
0.000264467
0.000127658
0.000134545
0.000392873
0.000269886
0.000310989
6.93714e-05
6.45573e-05
0.000272486
0.000377597
0.000299302
0.000280559
0.00039067
0.000299271
0.000308989
0.000284617
0.000133136
0.000396836
0.000256333
7.14656e-05
0.000385699
0.00028863
0.000110147
0.000116045
0.000114802
0.000121109
0.000126598
0.00039485
0.000259986
0.00030517
7.31699e-05
0.000379831
0.000130241
0.000399401
0.000255682
7.14712e-05
0.000303163
0.000111125
0.000112156
6.55283e-05
0.000171758
0.00017169
0.000253873
8.46584e-05
0.000254256
0.000167296
6.48555e-05
6.29769e-05
0.000397308
0.000252444
0.000392645
0.000261779
0.000124867
0.000116774
0.000394476
0.000246542
0.00028498
0.000115426
0.000133931
6.73793e-05
0.000168739
0.000168586
0.000251883
0.000164925
0.000165774
0.000250891
8.59927e-05
0.000251751
0.000170696
8.36256e-05
0.000283362
0.000251472
0.000169673
6.76192e-05
0.000385854
0.000250141
0.000292668
0.000121928
0.000113308
6.54498e-05
0.000167427
0.000170242
0.000252419
0.000286987
8.02642e-05
0.000250023
0.00016329
0.00024837
0.000262935
0.000119355
6.70395e-05
0.000132443
6.78683e-05
6.38852e-05
0.000255237
8.51775e-05
0.000171591
0.000169607
0.000167585
8.41068e-05
6.42459e-05
0.000260968
0.000244533
0.000410519
0.000305568
0.000382991
0.000275178
0.000294941
0.000301979
0.000134228
0.00025906
6.97959e-05
0.000394226
0.000383327
0.000291246
0.000254024
8.0941e-05
0.000165287
0.000251103
8.1666e-05
0.000299209
0.000166003
0.000167189
0.000165649
8.1171e-05
0.000296976
0.000278292
0.000169003
0.000164634
8.2734e-05
0.00027884
0.000306929
0.000121722
0.000275522
6.54351e-05
0.000392537
0.000380564
0.000287558
0.00024924
8.18764e-05
0.00028801
0.000165839
0.000166095
0.00016704
0.000289578
8.26436e-05
0.000295864
0.000124492
0.00025509
0.000125531
0.000259944
0.000396138
0.000388894
6.54045e-05
0.000131065
0.000129517
0.00012668
0.000115364
0.000385972
0.000126
0.000256597
0.000302157
6.44514e-05
0.00038974
0.000389269
0.000127431
0.000276778
6.75425e-05
0.000296728
0.000112975
0.000110986
6.74868e-05
0.000381731
0.000114083
0.000250342
0.000294839
0.000122308
6.66747e-05
0.000165904
0.000165847
0.00025026
0.00028636
0.000248377
0.000120085
6.46394e-05
0.000252537
0.000133374
7.4654e-05
0.000365963
0.000392971
0.00011614
0.000249626
6.92081e-05
0.000313943
0.000252177
0.000302141
8.26531e-05
0.000166617
0.000291301
0.000282411
0.000265688
0.000118755
0.00038919
0.000388353
0.000140971
0.000259592
0.000114213
0.000115965
0.000261337
0.000129367
6.99451e-05
0.00026431
0.000124569
6.45935e-05
0.000384686
0.000389305
0.000256148
0.000124308
0.00025161
0.000128408
)
;
        value           nonuniform List<scalar> 
360
(
485.796
485.797
485.8
485.778
485.779
485.816
485.778
485.785
485.771
485.795
485.795
485.815
485.818
485.803
485.796
485.785
485.772
485.779
485.767
485.803
485.782
485.796
485.782
485.777
485.798
485.776
485.816
485.778
485.769
485.783
485.777
485.775
485.798
485.798
485.814
485.816
485.774
485.768
485.78
485.765
485.769
485.799
485.816
485.795
485.797
485.815
485.818
485.802
485.795
485.783
485.817
485.816
485.819
485.818
485.8
485.793
485.779
485.802
485.816
485.819
485.803
485.778
485.782
485.769
485.803
485.783
485.796
485.78
485.781
485.775
485.786
485.773
485.772
485.806
485.786
485.799
485.801
485.783
485.771
485.766
485.783
485.782
485.784
485.803
485.802
485.815
485.816
485.817
485.799
485.802
485.799
485.818
485.817
485.797
485.818
485.815
485.815
485.815
485.797
485.804
485.804
485.804
485.816
485.817
485.818
485.802
485.802
485.817
485.795
485.814
485.817
485.815
485.797
485.801
485.805
485.804
485.783
485.782
485.782
485.796
485.798
485.784
485.767
485.784
485.768
485.783
485.768
485.777
485.785
485.77
485.779
485.782
485.783
485.783
485.805
485.785
485.772
485.797
485.798
485.772
485.785
485.796
485.795
485.772
485.784
485.775
485.804
485.802
485.78
485.769
485.772
485.779
485.767
485.774
485.774
485.775
485.794
485.766
485.783
485.802
485.767
485.775
485.783
485.782
485.781
485.794
485.795
485.768
485.783
485.777
485.801
485.766
485.794
485.768
485.783
485.801
485.776
485.782
485.781
485.802
485.816
485.815
485.818
485.8
485.818
485.817
485.803
485.803
485.768
485.783
485.768
485.782
485.795
485.797
485.767
485.784
485.776
485.797
485.795
485.803
485.816
485.816
485.818
485.817
485.817
485.818
485.795
485.818
485.814
485.797
485.775
485.818
485.815
485.801
485.771
485.784
485.778
485.795
485.797
485.802
485.816
485.815
485.818
485.778
485.799
485.819
485.817
485.781
485.782
485.794
485.801
485.793
485.801
485.802
485.818
485.798
485.815
485.815
485.816
485.796
485.804
485.782
485.784
485.77
485.776
485.77
485.781
485.775
485.774
485.794
485.782
485.802
485.767
485.767
485.777
485.818
485.802
485.818
485.818
485.799
485.778
485.816
485.815
485.818
485.799
485.775
485.777
485.815
485.816
485.797
485.776
485.773
485.795
485.781
485.802
485.767
485.772
485.779
485.819
485.799
485.779
485.817
485.817
485.817
485.781
485.801
485.78
485.795
485.781
485.795
485.783
485.767
485.771
485.802
485.783
485.783
485.784
485.796
485.769
485.795
485.781
485.778
485.802
485.768
485.767
485.794
485.779
485.801
485.774
485.781
485.782
485.805
485.775
485.799
485.787
485.781
485.798
485.805
485.817
485.818
485.819
485.777
485.786
485.797
485.804
485.784
485.794
485.801
485.77
485.769
485.797
485.784
485.803
485.772
485.818
485.772
485.796
485.815
485.775
485.775
485.78
485.795
485.767
485.767
485.791
485.78
485.783
485.784
485.784
485.795
485.802
485.78
485.795
485.802
485.771
485.768
485.784
485.796
485.781
485.794
)
;
        Tnbr            T;
        thicknessLayers 0();
        kappaLayers     0();
        kappaMethod     solidThermo;
        kappa           none;
        alphaAni        none;
    }
}


// ************************************************************************* //
