/*--------------------------------*- C++ -*----------------------------------*\
| =========                 |                                                 |
| \\      /  F ield         | OpenFOAM: The Open Source CFD Toolbox           |
|  \\    /   O peration     | Version:  v1912                                 |
|   \\  /    A nd           | Website:  www.openfoam.com                      |
|    \\/     M anipulation  |                                                 |
\*---------------------------------------------------------------------------*/
FoamFile
{
    version     2.0;
    format      ascii;
    class       volScalarField;
    location    "138/oil";
    object      heatTransferCoeff(T);
}
// * * * * * * * * * * * * * * * * * * * * * * * * * * * * * * * * * * * * * //

dimensions      [1 0 -3 -1 0 0 0];


internalField   uniform 0;

boundaryField
{
    maxY
    {
        type            calculated;
        value           uniform 0;
    }
    minX
    {
        type            calculated;
        value           uniform 0;
    }
    maxX
    {
        type            calculated;
        value           uniform 0;
    }
    minY
    {
        type            calculated;
        value           uniform 0;
    }
    minZ
    {
        type            calculated;
        value           uniform 0;
    }
    maxZ
    {
        type            calculated;
        value           uniform 0;
    }
    oil_to_sphere
    {
        type            calculated;
        value           nonuniform List<scalar> 
1536
(
-90.6115
-88.0164
-88.0766
-83.0693
-82.7185
-87.7778
-85.7548
-86.4514
-86.1341
-83.3684
-81.551
-83.6751
-86.0558
-83.9085
-80.709
-85.3797
-87.8265
-88.205
-85.2166
-85.9422
-87.1246
-86.1311
-86.3843
-85.3563
-85.644
-85.4868
-85.5514
-85.0179
-87.754
-86.332
-88.5341
-88.0002
-88.137
-85.3255
-85.5119
-84.9786
-85.1642
-84.366
-84.9261
-85.4892
-84.7901
-85.2193
-86.0525
-86.6833
-87.3575
-85.4585
-87.4365
-86.6761
-80.7813
-85.5302
-86.8877
-86.2008
-86.5982
-85.277
-87.6566
-89.5224
-86.3019
-85.9579
-87.138
-86.7803
-86.0366
-86.0093
-86.0246
-85.2266
-85.5424
-85.8991
-85.9231
-86.9895
-86.8836
-87.5652
-85.2141
-83.1152
-83.8241
-85.5025
-85.4389
-89.6669
-88.1384
-84.6258
-85.3911
-88.1718
-87.1555
-86.8635
-82.9026
-82.7952
-87.734
-90.1857
-82.4827
-85.7
-86.8305
-86.7904
-86.3043
-85.0535
-85.0554
-85.1525
-85.4709
-86.6325
-87.2861
-87.4164
-88.2899
-86.7271
-87.2014
-85.1598
-90.7441
-86.9628
-83.7305
-85.4221
-85.5801
-83.2988
-83.3551
-90.9002
-88.0918
-86.5212
-86.0023
-86.4687
-82.5754
-83.0132
-82.1359
-89.037
-90.4486
-88.3148
-86.2688
-86.4556
-84.8978
-87.2203
-88.449
-86.9218
-86.1674
-84.7047
-87.3781
-87.0036
-85.9358
-86.9108
-87.5984
-85.5326
-85.7625
-87.6441
-86.4626
-88.2197
-84.7765
-87.8451
-86.1237
-87.0059
-87.0187
-86.0779
-85.7421
-86.0289
-86.4818
-89.8523
-86.827
-90.8444
-87.389
-88.8409
-86.2807
-86.463
-85.2481
-87.3435
-87.5088
-87.8981
-91.4997
-89.4382
-88.0764
-90.1363
-83.7544
-84.2058
-85.095
-84.9793
-87.4037
-89.2449
-88.0984
-90.0607
-85.1287
-85.3121
-84.7288
-87.4004
-86.7427
-86.8145
-89.9565
-85.4005
-85.4516
-90.1131
-84.748
-84.1726
-84.1462
-84.359
-87.739
-90.2328
-89.489
-84.9834
-84.2516
-88.1769
-84.473
-87.7108
-87.5846
-88.7794
-83.6668
-80.3884
-88.7401
-89.0383
-86.1978
-85.3205
-86.2727
-85.7075
-88.3012
-88.7366
-87.4252
-86.9027
-85.5544
-89.1141
-88.4174
-87.4579
-84.6501
-85.5198
-85.4174
-86.1839
-87.5026
-89.7846
-85.2771
-83.8426
-83.8783
-80.1544
-87.9803
-87.3489
-86.816
-86.3275
-86.4956
-89.274
-87.7439
-85.9826
-88.0361
-83.5243
-85.0414
-80.6279
-85.9581
-88.2452
-88.7542
-88.6026
-87.8729
-87.2848
-88.2258
-83.6967
-84.0438
-85.6496
-89.0285
-84.6569
-80.8953
-82.1345
-87.278
-87.1425
-90.3476
-92.1733
-86.5522
-82.923
-80.1297
-86.7772
-89.1568
-85.1422
-85.2253
-82.3136
-85.0396
-89.2312
-90.4641
-86.381
-85.304
-89.2267
-89.723
-85.4474
-83.2944
-86.2993
-89.8654
-89.1901
-87.2962
-87.6278
-88.6162
-84.2582
-85.303
-88.8034
-87.6257
-88.7149
-86.1344
-88.1173
-89.7409
-87.5518
-87.3104
-89.1919
-85.3584
-85.2395
-85.6612
-84.7659
-85.0659
-88.8479
-89.8428
-85.2959
-85.732
-85.6093
-85.8298
-84.9947
-86.6236
-86.2191
-84.549
-82.44
-84.9665
-83.6916
-84.7266
-90.2848
-89.2746
-89.29
-92.1889
-83.9496
-84.1483
-87.0515
-90.7897
-91.2693
-85.1702
-86.2429
-84.9958
-87.5723
-85.3831
-87.2466
-87.4728
-88.4105
-87.6085
-85.7531
-87.8326
-84.8836
-88.67
-89.0317
-87.9902
-87.8371
-84.4147
-90.0217
-90.2019
-88.0394
-83.5519
-85.3503
-85.9539
-87.5042
-87.2238
-87.4563
-84.3467
-88.6341
-89.5485
-88.2769
-89.2618
-86.9603
-86.7524
-86.1333
-84.1105
-86.9446
-87.6658
-84.0321
-83.7801
-84.2704
-90.7085
-88.7221
-89.3565
-87.0785
-86.7715
-89.1362
-83.8561
-90.1608
-88.3073
-86.6848
-86.7249
-83.76
-88.5908
-88.631
-84.6228
-86.6606
-85.9866
-85.3716
-87.6541
-88.5863
-86.0617
-85.5855
-84.1194
-89.7605
-88.6528
-83.828
-89.2013
-88.9793
-88.0288
-89.7014
-86.6328
-87.7748
-83.6225
-83.5561
-87.5185
-91.756
-88.184
-90.6112
-87.2448
-85.6989
-88.2846
-84.4771
-85.2972
-87.5271
-88.5379
-87.707
-87.0382
-84.6529
-84.2615
-88.8627
-89.4865
-88.6747
-86.7372
-85.2506
-87.2625
-87.8051
-88.379
-86.8537
-85.9355
-84.8437
-86.5738
-84.4293
-83.3276
-85.138
-84.7936
-86.5416
-83.2637
-85.6713
-90.4412
-85.6213
-85.5902
-88.5786
-88.4642
-87.4795
-86.0182
-83.8823
-88.1409
-89.2697
-87.4167
-87.0008
-88.0545
-86.358
-86.4988
-87.0576
-82.9115
-87.9517
-89.4794
-89.3941
-88.3794
-87.8761
-87.5337
-86.8398
-86.0461
-84.4587
-86.4117
-84.6353
-83.748
-84.8262
-83.1562
-90.3734
-90.0369
-88.9642
-91.6831
-85.3448
-90.3136
-84.2548
-84.7362
-87.7914
-85.4128
-84.2114
-85.6944
-85.4051
-90.1452
-89.4099
-87.0446
-87.3099
-89.7244
-88.9129
-86.7791
-87.8334
-84.6051
-88.5061
-83.457
-89.3872
-82.8685
-88.0727
-88.2732
-88.4618
-85.7243
-84.1296
-85.9011
-88.514
-86.0258
-83.3277
-88.7109
-88.7545
-89.8249
-91.0206
-87.6272
-89.3577
-83.9188
-84.2759
-81.0029
-81.9046
-86.5679
-85.5312
-85.2925
-84.8784
-90.4447
-85.6041
-83.6334
-83.2068
-86.298
-84.2384
-91.5354
-84.9128
-85.0717
-86.5534
-81.5658
-82.1653
-85.1445
-85.0814
-85.952
-85.521
-88.7228
-88.3755
-87.5531
-86.7429
-83.15
-85.3684
-88.567
-84.4041
-84.5761
-88.0138
-89.6742
-84.7467
-81.3953
-84.0438
-81.6107
-86.2732
-85.634
-85.0544
-83.6723
-81.1856
-87.8494
-88.0901
-87.1314
-86.4522
-89.9356
-87.8729
-87.365
-86.8317
-84.3934
-85.3124
-88.7546
-87.6747
-85.7265
-81.9888
-86.8075
-89.0155
-90.057
-86.9058
-86.0691
-89.7771
-87.2942
-89.3563
-84.5064
-85.2811
-84.1514
-85.5656
-86.6837
-89.4825
-86.6355
-84.6461
-84.3441
-86.6057
-91.3372
-84.3443
-85.3531
-83.61
-86.9076
-86.6857
-88.9171
-89.7503
-84.3309
-83.4783
-89.8619
-90.4792
-82.5395
-90.1101
-89.1599
-88.2067
-89.369
-87.5779
-86.8139
-86.7528
-89.8335
-86.8582
-87.4551
-86.6251
-88.4026
-87.0498
-86.4155
-86.2774
-83.9201
-88.0583
-86.8515
-88.4208
-87.9254
-88.0695
-87.6748
-86.9309
-83.6414
-88.956
-89.0324
-87.6507
-86.3866
-87.0925
-90.7982
-84.5043
-84.4317
-83.8913
-87.5644
-85.8996
-90.7567
-85.7399
-86.0457
-86.7741
-81.2886
-81.3444
-85.235
-85.1576
-86.474
-84.1065
-84.6222
-87.8319
-85.7732
-89.7057
-85.2401
-90.5093
-86.8504
-87.5277
-81.6956
-81.3209
-80.877
-85.1539
-88.1618
-85.4941
-85.0882
-81.5074
-86.405
-88.7067
-86.4194
-92.8238
-84.6544
-88.6892
-88.3986
-88.066
-89.1548
-89.2753
-88.3324
-86.6421
-86.0438
-86.4364
-88.1774
-86.0825
-87.1386
-87.1128
-87.1774
-88.4508
-87.7133
-88.1287
-84.1713
-84.6343
-80.3647
-82.2314
-83.192
-78.7892
-85.3708
-85.5424
-86.0591
-86.444
-83.2222
-83.9766
-85.7279
-89.2297
-89.2796
-85.6907
-83.3835
-86.1239
-88.5273
-88.1636
-86.387
-83.3601
-84.6456
-87.6572
-87.3771
-86.349
-85.4924
-87.8852
-88.0732
-89.7671
-87.9811
-86.8289
-85.5297
-84.5591
-83.7487
-86.12
-86.9339
-90.9195
-86.5455
-90.4818
-85.9205
-91.3019
-85.2522
-86.1027
-84.2794
-84.6566
-85.5067
-84.1033
-86.0283
-83.2494
-85.2747
-88.9263
-85.6855
-83.8749
-90.034
-87.9334
-87.1917
-86.4224
-90.3344
-92.7878
-82.4613
-87.7284
-87.5722
-87.4831
-84.183
-86.3559
-85.0181
-87.3054
-88.5012
-88.7527
-84.5125
-87.7154
-86.8648
-87.8275
-87.7315
-87.275
-85.9386
-86.232
-85.4636
-83.4523
-83.1707
-84.3186
-89.4142
-85.3174
-83.7618
-85.3725
-88.8559
-85.9233
-89.5117
-88.537
-87.444
-86.835
-87.4736
-90.017
-84.3052
-87.6116
-89.1483
-89.1469
-86.9036
-84.8868
-86.0566
-87.5401
-89.2443
-84.2256
-86.2546
-86.9097
-88.7421
-87.2398
-87.6512
-89.5933
-84.2172
-85.055
-84.715
-90.1133
-88.7853
-86.6446
-88.7469
-85.0131
-85.3877
-88.7333
-87.7945
-89.6671
-84.361
-88.2208
-88.6349
-86.8464
-87.3032
-88.119
-84.6535
-82.9405
-86.4846
-87.7211
-90.6532
-86.2093
-85.3053
-86.3606
-87.3611
-88.2377
-86.6952
-85.0212
-86.1886
-88.5214
-84.8692
-84.7271
-86.1088
-85.232
-87.0738
-86.8066
-89.0961
-87.5795
-88.2761
-85.4406
-86.4918
-87.0553
-86.2569
-85.831
-85.5619
-85.4388
-84.3347
-87.8536
-87.0024
-86.8883
-87.5103
-83.4478
-85.5928
-90.0815
-90.0381
-84.925
-88.7899
-87.3604
-87.6827
-85.5442
-89.2745
-88.9389
-84.241
-85.869
-85.5809
-85.5131
-83.6816
-83.9412
-85.5616
-89.0464
-91.504
-85.1757
-88.1418
-87.8377
-87.2305
-86.0809
-87.0746
-89.157
-87.5661
-84.353
-85.6152
-85.4092
-85.79
-87.5282
-88.1139
-87.9021
-87.9713
-88.1444
-85.0924
-88.0418
-85.7306
-87.9155
-81.2552
-87.5451
-89.2566
-85.8246
-82.483
-86.8863
-86.364
-90.2039
-84.7878
-88.0552
-86.4814
-82.9264
-90.0509
-83.9118
-86.141
-86.4369
-83.5545
-88.8394
-86.9503
-86.1814
-87.1869
-86.9444
-85.9762
-90.2815
-84.0946
-85.5575
-80.8874
-86.6827
-85.7217
-86.5225
-88.8167
-92.7188
-83.6081
-85.6859
-91.7122
-83.9847
-87.935
-84.9601
-87.6881
-82.6062
-84.915
-91.6194
-82.7541
-91.591
-83.1529
-90.1771
-83.2324
-84.7432
-81.492
-84.3475
-91.2211
-81.8006
-86.8091
-82.8181
-90.0298
-91.2399
-81.9844
-86.6172
-84.9234
-84.325
-84.1593
-85.451
-86.4749
-86.5151
-87.548
-86.2689
-89.7475
-91.8829
-81.9932
-87.3295
-87.1705
-86.4406
-86.766
-86.2079
-86.0974
-86.1672
-88.2714
-86.3547
-88.2278
-85.5868
-87.0827
-89.3449
-85.7562
-87.4382
-88.6946
-85.5011
-87.0868
-86.4087
-87.5565
-86.0931
-86.8759
-85.8845
-88.5344
-85.6455
-87.1117
-83.2255
-90.0906
-82.0297
-87.9325
-88.65
-89.6652
-84.7865
-86.7784
-86.2163
-86.6546
-86.9541
-86.4043
-88.2728
-84.4457
-80.2333
-87.316
-82.5539
-89.1131
-84.8921
-86.4836
-88.6606
-80.4244
-90.3589
-84.8926
-81.4657
-85.3715
-87.8512
-87.6289
-86.7513
-81.6918
-86.8941
-87.2543
-85.1541
-84.8394
-89.141
-88.8124
-85.5037
-86.5061
-89.1449
-81.8502
-88.6796
-84.8184
-87.5534
-82.1167
-91.7749
-90.5224
-88.4589
-86.7561
-86.2612
-88.1229
-86.055
-81.6544
-84.2336
-87.9539
-84.9288
-88.0645
-82.403
-89.1067
-87.9832
-78.9956
-86.9443
-87.1617
-80.6315
-90.2274
-83.1076
-89.0676
-90.0608
-88.3827
-81.0987
-86.8146
-86.0441
-86.9176
-86.9601
-87.7506
-81.7949
-85.7593
-84.8807
-84.9346
-89.0818
-86.6012
-87.7671
-87.6245
-87.5968
-86.0069
-86.7678
-86.1458
-87.0924
-88.9514
-85.3654
-85.9087
-85.1726
-87.1097
-88.6493
-85.3762
-85.7197
-85.5063
-86.6065
-84.9379
-85.0519
-85.7567
-85.9481
-86.7416
-86.0358
-89.6387
-88.5155
-82.5108
-82.9902
-89.8122
-78.6932
-87.9556
-87.2625
-85.0731
-86.0315
-90.2251
-80.5669
-88.7232
-87.6141
-81.3526
-85.656
-85.3606
-87.0353
-80.2846
-89.1862
-88.0269
-80.3616
-88.9404
-89.3785
-82.0054
-89.6582
-88.8207
-82.0849
-85.3047
-85.021
-80.6744
-86.5388
-86.853
-84.7247
-84.7861
-85.3759
-79.6521
-84.6177
-81.2849
-79.4486
-88.6996
-84.9116
-91.1466
-85.7362
-81.7333
-89.0782
-86.8295
-80.9638
-85.4364
-85.3813
-80.9097
-82.8352
-90.2844
-77.9306
-84.2888
-84.9882
-79.0175
-88.89
-88.341
-86.5321
-85.6631
-85.4529
-84.206
-79.8713
-86.6019
-85.6189
-85.811
-86.5479
-81.1742
-88.3647
-85.3127
-86.2523
-85.0188
-86.142
-86.7285
-84.1978
-81.4356
-85.7348
-87.5668
-85.2252
-85.7292
-86.4715
-84.765
-85.8871
-81.2095
-85.6077
-87.938
-85.0555
-86.0454
-84.8409
-81.5852
-89.8189
-89.8846
-88.9567
-90.1482
-81.9489
-80.5813
-85.8204
-88.8433
-86.8318
-87.8992
-88.3014
-84.2802
-83.6546
-81.2625
-82.3866
-84.6293
-86.2797
-86.1115
-85.9965
-83.9091
-88.5792
-87.3812
-82.1262
-84.3059
-84.2056
-88.2352
-84.7488
-79.9749
-87.4671
-86.3677
-88.7359
-81.0036
-85.6295
-87.3842
-85.4961
-85.9155
-87.8635
-86.2629
-84.2322
-90.103
-79.0091
-84.2991
-86.6127
-84.8314
-85.5991
-89.8802
-87.5634
-86.7106
-83.5278
-89.4209
-85.579
-86.7616
-88.2676
-88.7885
-88.543
-88.7646
-89.7821
-90.2661
-89.5431
-89.5492
-87.392
-88.4806
-85.336
-85.9865
-84.0171
-83.015
-79.5134
-89.9702
-89.7789
-88.997
-85.7796
-86.7516
-86.5998
-84.8706
-86.9764
-88.3852
-84.4242
-86.0909
-87.7235
-85.3609
-85.4086
-85.2292
-85.755
-84.6493
-85.6524
-85.4599
-82.0927
-87.3463
-84.5632
-86.04
-80.8059
-90.3413
-86.1914
-84.9925
-84.6163
-82.3441
-86.5377
-85.0828
-80.6116
-83.6812
-86.0806
-83.1306
-83.4736
-90.2866
-90.6231
-85.5362
-85.5311
-88.0896
-89.7491
-80.512
-85.4807
-84.7138
-85.5879
-85.6003
-85.8021
-86.1933
-83.7736
-81.4633
-89.6192
-85.5699
-83.2531
-83.7113
-85.4242
-86.5004
-82.4638
-86.4791
-85.0675
-85.323
-89.7834
-83.3762
-81.7348
-85.7439
-85.1725
-84.7731
-81.549
-89.0344
-85.5456
-85.2625
-85.4536
-80.6167
-85.7493
-85.5899
-81.8551
-85.6503
-83.6346
-87.2268
-89.0524
-85.0094
-88.2964
-86.9917
-84.9507
-84.9719
-85.6757
-81.6295
-87.4399
-87.8389
-85.245
-81.093
-84.171
-85.9845
-86.1425
-84.9598
-81.4104
-85.0866
-88.723
-87.2441
-85.2845
-90.2376
-83.2075
-88.724
-80.6444
-83.1815
-89.0272
-80.7912
-88.6713
-85.472
-86.4894
-85.3561
-90.7256
-83.8251
-86.4803
-89.6515
-89.6254
-82.3993
-89.1575
-89.8533
-78.889
-87.0604
-85.0579
-80.7672
-88.3078
-84.9973
-85.3021
-85.3205
-86.2125
-85.8387
-85.2188
-85.0766
-80.5581
-88.0081
-86.6523
-86.3302
-86.6895
-85.7535
-84.8928
-84.1928
-88.6236
-79.9682
-84.6295
-85.517
-80.4381
-88.5934
-89.9515
-86.9912
-89.0679
-89.6493
-84.5064
-86.2597
-87.3536
-89.0486
-84.746
-87.7318
-83.7118
-81.0785
-88.5049
-84.1247
-88.7091
-90.4576
-89.6829
-81.0232
-88.7384
-87.0236
-84.4187
-85.1989
-85.6596
-85.0779
-81.1064
-89.6255
-81.2125
-89.5404
-85.7188
-83.7343
-83.9015
-86.3665
-87.6951
-89.888
-86.326
-90.7444
-88.4815
-88.591
-81.1681
-88.4851
-87.8623
-88.8583
-84.8798
-84.407
-80.1795
-86.041
-90.5825
-89.2996
-81.2995
-83.8659
-81.7858
-84.8546
-86.1596
-83.5835
-92.4599
-85.3651
-83.8086
-81.5157
-87.255
-84.5311
-80.024
-86.2899
-85.1057
-85.0667
-85.215
-85.2564
-81.5829
-83.516
-80.7922
-85.3537
-88.725
-87.2693
-89.331
-88.9254
-84.6411
-84.0745
-80.771
-84.6613
-88.3042
-89.3327
-88.446
-88.2355
-83.2227
-80.4442
-83.8698
-79.966
-88.1003
-88.3955
-84.159
-88.4755
-88.3034
-89.088
-87.5319
-86.5122
-86.4076
-84.6365
-80.31
-84.0897
-81.2088
-83.9874
-85.2157
-84.937
-82.0007
-81.0181
-87.637
-90.5198
-90.5135
-89.7188
-86.349
-87.4058
-87.3424
-86.2957
-85.2721
-86.1484
-84.2986
-85.7542
-85.7733
-80.977
-88.5393
-85.6484
-83.9146
-81.9698
-85.3016
-86.2544
-86.2205
-84.9887
-82.0059
-89.617
-87.0378
-85.1178
-90.143
-84.3283
-80.7926
-87.8786
-85.8888
-85.8018
-85.7552
-84.9519
-79.7698
-86.5374
-85.7128
-81.2603
-90.0145
-85.5102
-78.2154
-85.1959
-86.1114
-86.2994
-84.9074
-81.132
-84.669
-84.815
-82.8917
-85.8333
-80.6471
-86.0416
-85.8944
-82.5825
-90.5286
-85.6743
-81.8804
-91.4061
-86.0982
-86.1305
-81.8946
-85.8566
-81.2555
)
;
    }
}


// ************************************************************************* //
