/*--------------------------------*- C++ -*----------------------------------*\
| =========                 |                                                 |
| \\      /  F ield         | OpenFOAM: The Open Source CFD Toolbox           |
|  \\    /   O peration     | Version:  v1912                                 |
|   \\  /    A nd           | Website:  www.openfoam.com                      |
|    \\/     M anipulation  |                                                 |
\*---------------------------------------------------------------------------*/
FoamFile
{
    version     2.0;
    format      ascii;
    class       volVectorField;
    location    "285/oil";
    object      U;
}
// * * * * * * * * * * * * * * * * * * * * * * * * * * * * * * * * * * * * * //

dimensions      [0 1 -1 0 0 0 0];


internalField   nonuniform List<vector> 
27760
(
(2.09524e-06 1.33712e-06 2.10576e-06)
(-3.35289e-05 -1.99259e-05 -1.79328e-05)
(1.19313e-05 -9.02743e-06 -9.39369e-06)
(-6.36369e-06 3.92629e-06 3.27273e-06)
(-1.1159e-06 -3.18487e-08 -6.57764e-07)
(-4.91215e-06 1.51379e-06 8.55133e-07)
(-4.48324e-06 7.31646e-07 7.80316e-08)
(-5.50034e-06 1.07226e-06 3.92716e-07)
(-5.69231e-06 8.83796e-07 2.21444e-07)
(-5.86911e-06 1.00614e-06 3.39645e-07)
(-6.01378e-06 9.25545e-07 2.92458e-07)
(-5.66949e-06 9.85409e-07 3.64213e-07)
(-5.64563e-06 9.28512e-07 3.47827e-07)
(-4.90752e-06 9.51779e-07 3.91722e-07)
(-4.71721e-06 9.05538e-07 3.86391e-07)
(-3.75024e-06 8.91322e-07 4.00312e-07)
(-3.4525e-06 8.62561e-07 4.00004e-07)
(-2.46172e-06 8.20155e-07 3.85349e-07)
(-2.12962e-06 8.08847e-07 3.88508e-07)
(-1.30025e-06 7.43977e-07 3.52786e-07)
(-9.91328e-07 7.37134e-07 3.59435e-07)
(-4.49166e-07 6.53757e-07 3.13938e-07)
(-1.92766e-07 6.49331e-07 3.25498e-07)
(1.6692e-08 5.59918e-07 2.8517e-07)
(2.15723e-07 5.49304e-07 3.02346e-07)
(1.13466e-07 4.66102e-07 2.7372e-07)
(2.52132e-07 4.51903e-07 2.89344e-07)
(-8.21201e-08 3.89498e-07 2.66052e-07)
(6.40699e-08 3.36047e-07 2.67609e-07)
(-2.13321e-07 2.02827e-07 1.96718e-07)
(-1.84021e-05 -3.52062e-05 -1.83953e-05)
(1.11452e-05 1.39317e-05 -1.00893e-05)
(-1.02841e-05 -1.95328e-06 1.19762e-06)
(-3.63502e-06 4.32371e-06 9.22024e-07)
(-6.94076e-06 1.55313e-06 5.68246e-07)
(-7.01556e-06 2.07512e-06 6.77887e-07)
(-8.05918e-06 1.38592e-06 3.70381e-07)
(-8.55474e-06 1.25946e-06 5.26386e-07)
(-9.05228e-06 7.75084e-07 4.20876e-07)
(-9.05767e-06 5.23719e-07 5.53428e-07)
(-9.21493e-06 5.38906e-08 5.22509e-07)
(-8.6056e-06 -2.16839e-07 6.27546e-07)
(-8.45946e-06 -6.00364e-07 6.18406e-07)
(-7.3199e-06 -8.2197e-07 6.84068e-07)
(-6.92669e-06 -1.0266e-06 6.76763e-07)
(-5.46161e-06 -1.14504e-06 6.93601e-07)
(-4.90706e-06 -1.13379e-06 6.84567e-07)
(-3.41037e-06 -1.13818e-06 6.5158e-07)
(-2.81566e-06 -9.27661e-07 6.40181e-07)
(-1.56338e-06 -8.48169e-07 5.67985e-07)
(-1.02767e-06 -5.08171e-07 5.57954e-07)
(-1.94983e-07 -3.92174e-07 4.72417e-07)
(2.27313e-07 -1.89452e-08 4.64784e-07)
(5.4663e-07 8.53818e-08 3.83879e-07)
(8.1861e-07 4.202e-07 3.82627e-07)
(6.41283e-07 5.02144e-07 3.13466e-07)
(7.65247e-07 7.55228e-07 3.05774e-07)
(2.15309e-07 7.38933e-07 2.52381e-07)
(3.23843e-07 5.64577e-07 2.59143e-07)
(-2.3863e-07 -1.37108e-08 2.1855e-07)
(-9.98968e-06 1.40698e-05 -9.96674e-06)
(-6.94589e-06 -2.46611e-06 8.00771e-07)
(-3.29007e-06 6.20975e-06 -2.41295e-06)
(-6.89465e-06 5.09615e-06 1.20858e-06)
(-6.04494e-06 5.338e-06 -2.51638e-07)
(-8.27723e-06 5.13891e-06 6.52167e-07)
(-8.55647e-06 4.50131e-06 2.17235e-07)
(-9.56344e-06 4.28551e-06 5.17759e-07)
(-9.90073e-06 3.50309e-06 3.97354e-07)
(-9.9934e-06 3.17325e-06 5.63528e-07)
(-1.00867e-05 2.378e-06 5.31738e-07)
(-9.40705e-06 2.00276e-06 6.50186e-07)
(-9.19393e-06 1.34418e-06 6.38062e-07)
(-7.89948e-06 1.0171e-06 7.14461e-07)
(-7.4108e-06 6.37383e-07 7.07851e-07)
(-5.77098e-06 4.42814e-07 7.23101e-07)
(-5.12001e-06 4.24662e-07 7.1566e-07)
(-3.45206e-06 3.86899e-07 6.77885e-07)
(-2.77054e-06 6.99242e-07 6.67646e-07)
(-1.37558e-06 7.77941e-07 5.91758e-07)
(-7.68467e-07 1.30842e-06 5.78583e-07)
(1.352e-07 1.4302e-06 4.8313e-07)
(5.87892e-07 2.02137e-06 4.75031e-07)
(9.07126e-07 2.14315e-06 3.82248e-07)
(1.17038e-06 2.70814e-06 3.76598e-07)
(9.2858e-07 2.84486e-06 2.90869e-07)
(1.03297e-06 3.32462e-06 2.69223e-07)
(3.97426e-07 3.28924e-06 1.97815e-07)
(5.02075e-07 2.87767e-06 2.05922e-07)
(-2.13946e-07 1.21625e-06 1.95096e-07)
(2.88757e-06 -3.57921e-07 2.90476e-06)
(-3.83583e-07 8.35247e-06 7.11773e-07)
(-3.98754e-06 6.57349e-06 1.19526e-06)
(-4.57115e-06 8.31464e-06 7.63587e-07)
(-6.44653e-06 6.51216e-06 6.31253e-07)
(-7.37215e-06 6.37661e-06 6.99684e-07)
(-8.4139e-06 5.01185e-06 5.90559e-07)
(-9.04499e-06 4.46146e-06 7.48843e-07)
(-9.633e-06 3.12137e-06 7.122e-07)
(-9.64161e-06 2.37615e-06 8.84833e-07)
(-9.88062e-06 1.06614e-06 8.85967e-07)
(-9.1955e-06 2.93729e-07 1.03734e-06)
(-9.13115e-06 -7.5959e-07 1.04664e-06)
(-7.85067e-06 -1.3649e-06 1.13577e-06)
(-7.52479e-06 -1.93827e-06 1.1376e-06)
(-5.87428e-06 -2.24501e-06 1.15576e-06)
(-5.37051e-06 -2.20017e-06 1.14117e-06)
(-3.69398e-06 -2.16442e-06 1.0834e-06)
(-3.13097e-06 -1.56066e-06 1.05562e-06)
(-1.73988e-06 -1.26425e-06 9.40531e-07)
(-1.2219e-06 -3.12951e-07 9.05461e-07)
(-3.38735e-07 1.0219e-07 7.7167e-07)
(8.41287e-08 1.17921e-06 7.41488e-07)
(3.80957e-07 1.59773e-06 6.10281e-07)
(6.65624e-07 2.63791e-06 5.84105e-07)
(4.22591e-07 3.07212e-06 4.64885e-07)
(6.37177e-07 3.99219e-06 4.19568e-07)
(6.71946e-08 4.1443e-06 3.18758e-07)
(3.79896e-07 3.69719e-06 3.07103e-07)
(-2.75369e-07 1.35852e-06 2.73822e-07)
(-8.28428e-07 7.93417e-06 -8.12489e-07)
(-2.4677e-06 9.35174e-06 4.47638e-07)
(-2.93418e-06 1.16326e-05 -2.3575e-07)
(-5.21108e-06 1.04148e-05 6.38028e-07)
(-5.90234e-06 9.53078e-06 2.91485e-07)
(-7.76143e-06 8.62402e-06 6.87985e-07)
(-8.56691e-06 7.23963e-06 5.44731e-07)
(-9.63364e-06 6.45061e-06 7.78702e-07)
(-1.02369e-05 4.82395e-06 7.34092e-07)
(-1.03886e-05 3.91887e-06 9.24849e-07)
(-1.06436e-05 2.256e-06 9.19118e-07)
(-9.891e-06 1.331e-06 1.07712e-06)
(-9.75596e-06 -4.13874e-08 1.08016e-06)
(-8.2692e-06 -7.8894e-07 1.17447e-06)
(-7.81425e-06 -1.53931e-06 1.17513e-06)
(-5.89844e-06 -1.93069e-06 1.19026e-06)
(-5.25312e-06 -1.89424e-06 1.18452e-06)
(-3.3435e-06 -1.87679e-06 1.12204e-06)
(-2.68652e-06 -1.12422e-06 1.10908e-06)
(-1.17756e-06 -7.97085e-07 9.90347e-07)
(-6.41213e-07 4.10894e-07 9.77031e-07)
(2.43552e-07 8.86807e-07 8.34174e-07)
(5.79914e-07 2.2529e-06 8.14374e-07)
(7.48369e-07 2.73311e-06 6.77959e-07)
(9.12181e-07 4.07697e-06 6.57485e-07)
(5.06335e-07 4.61211e-06 5.31158e-07)
(6.69149e-07 5.86944e-06 4.82755e-07)
(1.31134e-08 6.11288e-06 3.70056e-07)
(4.19293e-07 5.61079e-06 3.45466e-07)
(-2.8651e-07 2.36631e-06 2.98541e-07)
(8.9316e-07 6.24175e-06 9.0563e-07)
(-1.24176e-06 1.23549e-05 7.88115e-07)
(-2.03808e-06 1.23982e-05 8.80802e-07)
(-3.90515e-06 1.2215e-05 9.07783e-07)
(-5.2356e-06 1.0055e-05 9.00508e-07)
(-6.96065e-06 9.11687e-06 1.05867e-06)
(-8.21766e-06 6.95165e-06 1.03817e-06)
(-9.3463e-06 5.79013e-06 1.25766e-06)
(-1.02467e-05 3.46261e-06 1.26868e-06)
(-1.04701e-05 2.02778e-06 1.51582e-06)
(-1.09234e-05 -2.91069e-07 1.54771e-06)
(-1.01682e-05 -1.72741e-06 1.77064e-06)
(-1.01873e-05 -3.61242e-06 1.80672e-06)
(-8.57676e-06 -4.72948e-06 1.95048e-06)
(-8.21909e-06 -5.72385e-06 1.95856e-06)
(-6.11676e-06 -6.24288e-06 1.97939e-06)
(-5.54253e-06 -6.10567e-06 1.95798e-06)
(-3.46719e-06 -5.95e-06 1.85531e-06)
(-2.88756e-06 -4.79406e-06 1.80968e-06)
(-1.30093e-06 -4.13121e-06 1.61972e-06)
(-8.67818e-07 -2.33719e-06 1.56261e-06)
(-3.83552e-08 -1.45635e-06 1.34202e-06)
(1.75175e-07 5.11877e-07 1.29052e-06)
(2.10075e-07 1.37325e-06 1.09304e-06)
(2.76541e-07 3.26897e-06 1.04419e-06)
(-2.55153e-07 4.13681e-06 8.74697e-07)
(-2.91507e-08 5.90424e-06 8.02177e-07)
(-6.46305e-07 6.38753e-06 6.52422e-07)
(8.80341e-08 6.0199e-06 5.95266e-07)
(-4.40959e-07 2.28648e-06 4.79578e-07)
(3.0199e-07 8.25707e-06 3.05404e-07)
(-1.14097e-06 1.38461e-05 7.12405e-07)
(-1.44939e-06 1.45763e-05 7.02625e-07)
(-3.76972e-06 1.35567e-05 1.04085e-06)
(-5.17071e-06 1.1447e-05 1.00219e-06)
(-7.64011e-06 1.01268e-05 1.25402e-06)
(-9.27107e-06 7.729e-06 1.20873e-06)
(-1.09524e-05 6.2875e-06 1.44474e-06)
(-1.21604e-05 3.51853e-06 1.4283e-06)
(-1.25691e-05 1.77662e-06 1.68438e-06)
(-1.3069e-05 -1.07571e-06 1.68346e-06)
(-1.21217e-05 -2.84932e-06 1.90152e-06)
(-1.19185e-05 -5.1713e-06 1.91226e-06)
(-9.80219e-06 -6.54446e-06 2.04672e-06)
(-9.02888e-06 -7.77619e-06 2.05055e-06)
(-6.26547e-06 -8.40268e-06 2.06222e-06)
(-5.23526e-06 -8.22168e-06 2.05761e-06)
(-2.58347e-06 -8.00214e-06 1.94892e-06)
(-1.68909e-06 -6.55008e-06 1.93372e-06)
(1.98981e-07 -5.70178e-06 1.74196e-06)
(6.92848e-07 -3.47134e-06 1.72138e-06)
(1.47955e-06 -2.36466e-06 1.50289e-06)
(1.48622e-06 6.42004e-08 1.48636e-06)
(1.19852e-06 1.10805e-06 1.28763e-06)
(8.95218e-07 3.39023e-06 1.26226e-06)
(-7.1159e-08 4.37591e-06 1.09135e-06)
(-1.23987e-07 6.50662e-06 1.01617e-06)
(-9.62868e-07 7.0632e-06 8.59766e-07)
(-6.92401e-08 6.80412e-06 7.71162e-07)
(-5.35382e-07 2.50461e-06 5.99716e-07)
(1.02089e-06 7.51825e-06 1.0137e-06)
(1.47488e-07 1.40593e-05 1.4478e-06)
(4.30334e-07 1.40685e-05 1.68163e-06)
(-1.94855e-06 1.34141e-05 1.90294e-06)
(-3.83454e-06 1.06058e-05 1.97186e-06)
(-6.84072e-06 9.16593e-06 2.20174e-06)
(-9.13683e-06 6.04369e-06 2.19787e-06)
(-1.13103e-05 4.09343e-06 2.48455e-06)
(-1.29888e-05 4.65058e-07 2.4997e-06)
(-1.36517e-05 -2.0257e-06 2.83475e-06)
(-1.44295e-05 -5.77079e-06 2.88364e-06)
(-1.33999e-05 -8.30282e-06 3.20918e-06)
(-1.32587e-05 -1.13543e-05 3.24884e-06)
(-1.07885e-05 -1.32719e-05 3.45672e-06)
(-9.9193e-06 -1.48402e-05 3.46285e-06)
(-6.63774e-06 -1.56129e-05 3.47791e-06)
(-5.4591e-06 -1.52546e-05 3.44434e-06)
(-2.35118e-06 -1.47428e-05 3.2678e-06)
(-1.39281e-06 -1.26724e-05 3.20361e-06)
(7.10092e-07 -1.12261e-05 2.90408e-06)
(1.10807e-06 -8.15266e-06 2.83279e-06)
(1.79748e-06 -6.36554e-06 2.50229e-06)
(1.5257e-06 -3.10963e-06 2.44566e-06)
(8.59141e-07 -1.52193e-06 2.15471e-06)
(1.44232e-07 1.39732e-06 2.10711e-06)
(-1.28011e-06 2.70443e-06 1.87397e-06)
(-1.54764e-06 5.30634e-06 1.76633e-06)
(-2.44258e-06 5.96982e-06 1.54305e-06)
(-1.00767e-06 5.95749e-06 1.36759e-06)
(-8.98053e-07 1.52271e-06 1.0054e-06)
(1.4386e-06 5.72723e-06 1.4172e-06)
(1.78806e-06 1.17558e-05 2.27736e-06)
(2.4646e-06 1.16977e-05 2.68427e-06)
(-4.58355e-07 1.11637e-05 3.02722e-06)
(-3.36666e-06 8.27324e-06 3.10774e-06)
(-7.63548e-06 6.70762e-06 3.32592e-06)
(-1.10714e-05 3.19467e-06 3.25722e-06)
(-1.41809e-05 8.37159e-07 3.47903e-06)
(-1.65576e-05 -3.45076e-06 3.39881e-06)
(-1.75292e-05 -6.53956e-06 3.66475e-06)
(-1.84098e-05 -1.10296e-05 3.60857e-06)
(-1.70406e-05 -1.41737e-05 3.86525e-06)
(-1.64537e-05 -1.78804e-05 3.83047e-06)
(-1.30575e-05 -2.02562e-05 3.98673e-06)
(-1.13357e-05 -2.21531e-05 3.96263e-06)
(-6.83386e-06 -2.30516e-05 3.95095e-06)
(-4.71876e-06 -2.25359e-05 3.94371e-06)
(-5.58877e-07 -2.17642e-05 3.77102e-06)
(1.03675e-06 -1.91212e-05 3.7763e-06)
(3.66028e-06 -1.71653e-05 3.50284e-06)
(4.16899e-06 -1.33196e-05 3.52144e-06)
(4.73015e-06 -1.09829e-05 3.23795e-06)
(3.99441e-06 -6.98623e-06 3.27082e-06)
(2.61352e-06 -5.0103e-06 3.03271e-06)
(9.97787e-07 -1.53717e-06 3.05473e-06)
(-1.43377e-06 -1.1497e-07 2.83925e-06)
(-2.57227e-06 2.81639e-06 2.72884e-06)
(-3.95662e-06 3.27898e-06 2.45708e-06)
(-2.19994e-06 3.50194e-06 2.13639e-06)
(-1.33344e-06 -6.99101e-07 1.48467e-06)
(2.76476e-06 6.09102e-07 2.7232e-06)
(5.37599e-06 5.53511e-06 4.38177e-06)
(6.84015e-06 5.10551e-06 5.20885e-06)
(3.35036e-06 5.3046e-06 5.68312e-06)
(-9.23723e-07 2.15541e-06 5.84758e-06)
(-6.62345e-06 5.08718e-07 6.08567e-06)
(-1.14377e-05 -3.67891e-06 5.98e-06)
(-1.55809e-05 -6.66542e-06 6.22917e-06)
(-1.87801e-05 -1.18867e-05 6.09537e-06)
(-2.01752e-05 -1.59012e-05 6.41853e-06)
(-2.13796e-05 -2.1446e-05 6.32381e-06)
(-1.98387e-05 -2.55767e-05 6.66225e-06)
(-1.91358e-05 -3.01909e-05 6.60227e-06)
(-1.50201e-05 -3.3286e-05 6.81507e-06)
(-1.28183e-05 -3.56033e-05 6.75697e-06)
(-7.25677e-06 -3.66275e-05 6.7244e-06)
(-4.55158e-06 -3.58063e-05 6.66601e-06)
(5.28916e-07 -3.44845e-05 6.39662e-06)
(2.47354e-06 -3.09387e-05 6.35792e-06)
(5.52693e-06 -2.80228e-05 5.96761e-06)
(5.96617e-06 -2.30373e-05 5.96774e-06)
(6.34435e-06 -1.96961e-05 5.59224e-06)
(5.04952e-06 -1.46572e-05 5.63852e-06)
(2.88087e-06 -1.19258e-05 5.34604e-06)
(2.1046e-07 -7.70742e-06 5.38602e-06)
(-3.4158e-06 -6.00811e-06 5.12579e-06)
(-5.63037e-06 -2.76396e-06 4.95179e-06)
(-7.5176e-06 -2.70081e-06 4.53987e-06)
(-5.07571e-06 -2.24425e-06 3.89836e-06)
(-2.36134e-06 -5.45532e-06 2.57865e-06)
(4.68426e-06 -1.07039e-05 4.61664e-06)
(1.06108e-05 -8.58714e-06 7.66042e-06)
(1.19785e-05 -9.0053e-06 9.04915e-06)
(7.1182e-06 -7.7112e-06 9.67141e-06)
(3.79678e-07 -1.08159e-05 9.86297e-06)
(-7.50527e-06 -1.25606e-05 1.00053e-05)
(-1.43939e-05 -1.73109e-05 9.74701e-06)
(-1.99927e-05 -2.08498e-05 9.78981e-06)
(-2.43293e-05 -2.68294e-05 9.41295e-06)
(-2.62261e-05 -3.15937e-05 9.4799e-06)
(-2.76173e-05 -3.79947e-05 9.11688e-06)
(-2.55883e-05 -4.29518e-05 9.21e-06)
(-2.41546e-05 -4.8362e-05 8.92766e-06)
(-1.86024e-05 -5.21021e-05 8.9608e-06)
(-1.49273e-05 -5.47938e-05 8.78413e-06)
(-7.38597e-06 -5.58985e-05 8.67159e-06)
(-3.02838e-06 -5.47035e-05 8.63531e-06)
(3.7496e-06 -5.27762e-05 8.40517e-06)
(6.79245e-06 -4.82708e-05 8.50256e-06)
(1.0648e-05 -4.44022e-05 8.25247e-06)
(1.12686e-05 -3.8282e-05 8.46248e-06)
(1.14056e-05 -3.40102e-05 8.27694e-06)
(9.31123e-06 -2.79564e-05 8.54029e-06)
(5.93127e-06 -2.45324e-05 8.42776e-06)
(1.52949e-06 -1.95531e-05 8.63247e-06)
(-4.04179e-06 -1.76181e-05 8.47796e-06)
(-8.41682e-06 -1.41583e-05 8.30128e-06)
(-1.16257e-05 -1.49416e-05 7.76972e-06)
(-9.24164e-06 -1.44329e-05 6.65299e-06)
(-3.92586e-06 -1.54304e-05 4.20818e-06)
(8.09642e-06 -3.04031e-05 7.9936e-06)
(1.86411e-05 -3.19005e-05 1.30577e-05)
(1.91598e-05 -3.14151e-05 1.50185e-05)
(1.27896e-05 -2.84051e-05 1.57485e-05)
(3.55617e-06 -3.14334e-05 1.59929e-05)
(-6.28339e-06 -3.34059e-05 1.62086e-05)
(-1.50736e-05 -3.88468e-05 1.59417e-05)
(-2.20316e-05 -4.30886e-05 1.60376e-05)
(-2.75285e-05 -4.98289e-05 1.55636e-05)
(-3.00643e-05 -5.54318e-05 1.56343e-05)
(-3.19513e-05 -6.26829e-05 1.51228e-05)
(-2.97699e-05 -6.85975e-05 1.52089e-05)
(-2.81166e-05 -7.48771e-05 1.47872e-05)
(-2.15078e-05 -7.93862e-05 1.47942e-05)
(-1.68845e-05 -8.24886e-05 1.44941e-05)
(-7.62843e-06 -8.35925e-05 1.42855e-05)
(-2.06344e-06 -8.18652e-05 1.41415e-05)
(6.19104e-06 -7.8988e-05 1.37711e-05)
(9.93882e-06 -7.32619e-05 1.38329e-05)
(1.44265e-05 -6.8071e-05 1.34836e-05)
(1.49841e-05 -6.06698e-05 1.37509e-05)
(1.48204e-05 -5.52145e-05 1.35305e-05)
(1.18804e-05 -4.81103e-05 1.3886e-05)
(7.34451e-06 -4.37874e-05 1.37591e-05)
(1.26726e-06 -3.7978e-05 1.40261e-05)
(-6.18346e-06 -3.56081e-05 1.38513e-05)
(-1.29122e-05 -3.20099e-05 1.36468e-05)
(-1.7683e-05 -3.40842e-05 1.29841e-05)
(-1.59816e-05 -3.43177e-05 1.13136e-05)
(-6.73543e-06 -3.22883e-05 7.10309e-06)
(1.24967e-05 -6.43592e-05 1.23491e-05)
(2.72746e-05 -6.90235e-05 1.90893e-05)
(2.48806e-05 -6.57282e-05 2.1042e-05)
(1.71401e-05 -6.08531e-05 2.14699e-05)
(5.72295e-06 -6.38607e-05 2.16791e-05)
(-5.37162e-06 -6.65423e-05 2.19857e-05)
(-1.58673e-05 -7.29667e-05 2.18803e-05)
(-2.40649e-05 -7.82786e-05 2.20583e-05)
(-3.09092e-05 -8.5982e-05 2.15724e-05)
(-3.43052e-05 -9.2624e-05 2.15069e-05)
(-3.6898e-05 -0.000100839 2.07911e-05)
(-3.47094e-05 -0.000107888 2.0605e-05)
(-3.26915e-05 -0.000115177 1.99206e-05)
(-2.48052e-05 -0.000120634 1.96661e-05)
(-1.86584e-05 -0.000124207 1.91747e-05)
(-7.20585e-06 -0.000125266 1.88047e-05)
(2.7722e-07 -0.000122728 1.86042e-05)
(1.03792e-05 -0.000118539 1.8232e-05)
(1.52037e-05 -0.000111166 1.83974e-05)
(2.02983e-05 -0.000104307 1.81943e-05)
(2.07364e-05 -9.5313e-05 1.86471e-05)
(2.0026e-05 -8.84464e-05 1.85876e-05)
(1.60149e-05 -8.00563e-05 1.90683e-05)
(1.02163e-05 -7.45771e-05 1.8993e-05)
(2.40767e-06 -6.76524e-05 1.927e-05)
(-6.66842e-06 -6.44815e-05 1.9118e-05)
(-1.58683e-05 -6.05911e-05 1.89971e-05)
(-2.24611e-05 -6.41457e-05 1.85401e-05)
(-2.34121e-05 -6.66289e-05 1.67441e-05)
(-1.04803e-05 -6.15752e-05 1.09208e-05)
(1.69084e-05 -0.00011029 1.67039e-05)
(3.36517e-05 -0.000112471 2.3546e-05)
(2.82406e-05 -0.000103585 2.46049e-05)
(2.17478e-05 -9.6873e-05 2.43506e-05)
(1.13075e-05 -9.96778e-05 2.45435e-05)
(1.7887e-06 -0.000103239 2.53725e-05)
(-8.31825e-06 -0.000110742 2.58886e-05)
(-1.65675e-05 -0.000117537 2.68501e-05)
(-2.43227e-05 -0.000126476 2.69201e-05)
(-2.88505e-05 -0.000134603 2.7464e-05)
(-3.30621e-05 -0.000144118 2.70578e-05)
(-3.21062e-05 -0.000152815 2.72477e-05)
(-3.13884e-05 -0.000161584 2.66762e-05)
(-2.38398e-05 -0.000168459 2.65733e-05)
(-1.80203e-05 -0.000172828 2.60371e-05)
(-5.92562e-06 -0.000173815 2.55237e-05)
(1.72261e-06 -0.000170197 2.51002e-05)
(1.21924e-05 -0.000164007 2.43696e-05)
(1.64964e-05 -0.000154438 2.4283e-05)
(2.10124e-05 -0.000145233 2.36687e-05)
(2.03373e-05 -0.000134347 2.38628e-05)
(1.86455e-05 -0.000125657 2.33305e-05)
(1.36561e-05 -0.0001159 2.3442e-05)
(7.33388e-06 -0.000109017 2.28038e-05)
(-7.37648e-07 -0.000101044 2.26439e-05)
(-9.29959e-06 -9.69169e-05 2.2121e-05)
(-1.85161e-05 -9.2955e-05 2.20455e-05)
(-2.49704e-05 -9.79278e-05 2.21562e-05)
(-2.91184e-05 -0.000105175 2.10442e-05)
(-1.44345e-05 -0.000101572 1.49433e-05)
(1.87206e-05 -0.000165616 1.84507e-05)
(3.33078e-05 -0.000158073 2.34991e-05)
(2.72631e-05 -0.000142857 2.3215e-05)
(2.6226e-05 -0.000135256 2.21468e-05)
(2.10769e-05 -0.000137889 2.23717e-05)
(1.68409e-05 -0.000142599 2.36878e-05)
(9.88698e-06 -0.000151616 2.49434e-05)
(3.40657e-06 -0.000160867 2.6673e-05)
(-4.4938e-06 -0.00017213 2.747e-05)
(-1.03206e-05 -0.000183076 2.85675e-05)
(-1.70527e-05 -0.000195224 2.85954e-05)
(-1.88707e-05 -0.000207049 2.89902e-05)
(-2.12392e-05 -0.000218645 2.85567e-05)
(-1.61568e-05 -0.000228171 2.84315e-05)
(-1.26691e-05 -0.000234103 2.78699e-05)
(-2.19576e-06 -0.000235191 2.72179e-05)
(3.57214e-06 -0.000229837 2.66583e-05)
(1.20577e-05 -0.000220468 2.57996e-05)
(1.37192e-05 -0.000207247 2.55534e-05)
(1.55883e-05 -0.000194275 2.47429e-05)
(1.23741e-05 -0.000180148 2.46275e-05)
(8.87012e-06 -0.00016843 2.36674e-05)
(2.97656e-06 -0.000156288 2.3218e-05)
(-2.8462e-06 -0.000147086 2.19393e-05)
(-9.14338e-06 -0.000137601 2.11254e-05)
(-1.42301e-05 -0.000132208 2.01221e-05)
(-1.97185e-05 -0.000128068 2.0023e-05)
(-2.24205e-05 -0.000133608 2.0937e-05)
(-2.83336e-05 -0.000146457 2.1125e-05)
(-1.61936e-05 -0.000150852 1.67218e-05)
(1.68878e-05 -0.00021418 1.65393e-05)
(2.72062e-05 -0.000191719 1.94219e-05)
(2.65536e-05 -0.000172936 1.84809e-05)
(3.53001e-05 -0.000165376 1.7451e-05)
(4.00739e-05 -0.000167066 1.7944e-05)
(4.46829e-05 -0.000172022 1.9874e-05)
(4.45138e-05 -0.000181538 2.17376e-05)
(4.23498e-05 -0.000192552 2.433e-05)
(3.61615e-05 -0.000205482 2.58236e-05)
(2.95778e-05 -0.000218887 2.77609e-05)
(1.97522e-05 -0.000233504 2.83014e-05)
(1.33917e-05 -0.000248625 2.92351e-05)
(4.95887e-06 -0.000263495 2.90089e-05)
(3.89698e-06 -0.000276304 2.90847e-05)
(6.72661e-07 -0.000284414 2.85343e-05)
(5.09994e-06 -0.000285712 2.77936e-05)
(4.13756e-06 -0.000278236 2.72231e-05)
(6.03976e-06 -0.000264885 2.61798e-05)
(7.80985e-07 -0.000247473 2.5822e-05)
(-3.14703e-06 -0.000230395 2.45418e-05)
(-1.08209e-05 -0.000213199 2.40211e-05)
(-1.67564e-05 -0.00019872 2.22787e-05)
(-2.26651e-05 -0.000184771 2.11372e-05)
(-2.62169e-05 -0.000173763 1.88988e-05)
(-2.77597e-05 -0.000163586 1.73605e-05)
(-2.61596e-05 -0.000157659 1.5595e-05)
(-2.35461e-05 -0.000153921 1.51579e-05)
(-1.83372e-05 -0.000159241 1.61524e-05)
(-2.10044e-05 -0.000175438 1.71651e-05)
(-1.45119e-05 -0.000193761 1.50697e-05)
(1.2258e-05 -0.000253242 1.18075e-05)
(2.06221e-05 -0.000220668 1.3293e-05)
(3.10133e-05 -0.000205213 1.30789e-05)
(5.05095e-05 -0.00019983 1.31683e-05)
(6.65718e-05 -0.000201087 1.42791e-05)
(8.07731e-05 -0.000206418 1.66019e-05)
(8.91056e-05 -0.000216031 1.87075e-05)
(9.28165e-05 -0.000228248 2.14785e-05)
(9.01703e-05 -0.000242139 2.31931e-05)
(8.41237e-05 -0.000257247 2.5203e-05)
(7.21326e-05 -0.000273653 2.58001e-05)
(6.09352e-05 -0.000291442 2.65112e-05)
(4.52406e-05 -0.000309219 2.60672e-05)
(3.53519e-05 -0.000325298 2.57474e-05)
(2.22105e-05 -0.00033572 2.49843e-05)
(1.62754e-05 -0.00033718 2.42336e-05)
(4.18138e-06 -0.00032718 2.40917e-05)
(-4.99834e-06 -0.00030961 2.37186e-05)
(-2.029e-05 -0.000288087 2.3874e-05)
(-3.21896e-05 -0.000267592 2.29523e-05)
(-4.48776e-05 -0.000247983 2.24815e-05)
(-5.30358e-05 -0.000231498 2.06046e-05)
(-5.77912e-05 -0.000216169 1.9121e-05)
(-5.78284e-05 -0.000203658 1.64472e-05)
(-5.29487e-05 -0.000192717 1.4436e-05)
(-4.38094e-05 -0.000185887 1.20838e-05)
(-3.18419e-05 -0.000181751 1.09818e-05)
(-1.7869e-05 -0.000184619 1.09739e-05)
(-1.21332e-05 -0.000197499 1.14365e-05)
(-1.0056e-05 -0.000226541 1.07557e-05)
(6.74723e-06 -0.000278239 6.17103e-06)
(1.77666e-05 -0.000246269 7.21379e-06)
(4.08743e-05 -0.000240351 8.8829e-06)
(6.73158e-05 -0.000238506 1.08712e-05)
(9.23211e-05 -0.000239996 1.28909e-05)
(0.00011321 -0.000245082 1.5551e-05)
(0.000129242 -0.000253047 1.75134e-05)
(0.000138576 -0.000263596 2.01056e-05)
(0.000140738 -0.000275046 2.15224e-05)
(0.000137032 -0.000287842 2.34119e-05)
(0.000125168 -0.000301839 2.3727e-05)
(0.000111217 -0.000317852 2.42648e-05)
(8.94818e-05 -0.000334626 2.34029e-05)
(7.11364e-05 -0.000350943 2.27377e-05)
(4.71364e-05 -0.000361824 2.16956e-05)
(2.89265e-05 -0.000362641 2.10944e-05)
(3.19941e-06 -0.000351014 2.17988e-05)
(-1.82755e-05 -0.000332152 2.2252e-05)
(-4.33109e-05 -0.000310711 2.33088e-05)
(-6.17101e-05 -0.000291624 2.27216e-05)
(-7.73822e-05 -0.000274265 2.26131e-05)
(-8.60444e-05 -0.000259969 2.06404e-05)
(-8.83082e-05 -0.00024665 1.92115e-05)
(-8.49108e-05 -0.0002352 1.63372e-05)
(-7.41853e-05 -0.000225027 1.42406e-05)
(-6.02043e-05 -0.000217667 1.13985e-05)
(-4.13328e-05 -0.000212471 9.46592e-06)
(-2.28063e-05 -0.000211153 7.64631e-06)
(-7.04459e-06 -0.000214249 6.32531e-06)
(-4.80468e-06 -0.000244499 5.7565e-06)
(2.48685e-06 -0.000299964 1.82376e-06)
(1.83783e-05 -0.000283458 3.51494e-06)
(4.87841e-05 -0.000290482 6.90845e-06)
(7.56229e-05 -0.000293697 1.0302e-05)
(0.000103968 -0.000297589 1.27272e-05)
(0.000126688 -0.00030322 1.49888e-05)
(0.000147235 -0.000309522 1.61826e-05)
(0.000160497 -0.00031716 1.77077e-05)
(0.000167538 -0.000324464 1.82184e-05)
(0.000167578 -0.000332531 1.92113e-05)
(0.000158519 -0.000341244 1.90071e-05)
(0.000145049 -0.000351903 1.90348e-05)
(0.000121033 -0.000363892 1.78741e-05)
(9.76927e-05 -0.000376911 1.67884e-05)
(6.57676e-05 -0.000385209 1.56817e-05)
(3.70448e-05 -0.000384153 1.55215e-05)
(3.6641e-07 -0.000372859 1.70655e-05)
(-2.9259e-05 -0.000357319 1.83523e-05)
(-5.84371e-05 -0.000340936 2.00191e-05)
(-7.80964e-05 -0.000327586 1.99171e-05)
(-9.24166e-05 -0.000315668 2.02049e-05)
(-9.90627e-05 -0.000305797 1.87303e-05)
(-9.80716e-05 -0.000295834 1.79172e-05)
(-9.25428e-05 -0.000286285 1.57857e-05)
(-7.88742e-05 -0.000276674 1.43373e-05)
(-6.48249e-05 -0.000267847 1.18847e-05)
(-4.44561e-05 -0.000259542 9.72992e-06)
(-2.78884e-05 -0.000252502 6.68313e-06)
(-6.90032e-06 -0.000242312 3.68131e-06)
(-1.03042e-06 -0.000259518 2.06157e-06)
(2.47676e-07 -0.000316216 -4.49981e-07)
(1.67761e-05 -0.000322187 2.65999e-06)
(4.27015e-05 -0.000339009 5.85371e-06)
(6.16437e-05 -0.000346325 8.93702e-06)
(8.57389e-05 -0.000352048 1.02251e-05)
(0.000104576 -0.000356835 1.11184e-05)
(0.000125419 -0.000359761 1.07768e-05)
(0.000140259 -0.000361783 1.08459e-05)
(0.000151637 -0.000362098 1.00671e-05)
(0.00015644 -0.000361936 1.01478e-05)
(0.000152427 -0.000361974 9.40993e-06)
(0.000142893 -0.000363536 9.42589e-06)
(0.000121357 -0.000367276 8.48358e-06)
(9.92946e-05 -0.000373328 7.77651e-06)
(6.61138e-05 -0.000375862 7.29393e-06)
(3.49557e-05 -0.000372417 7.80104e-06)
(-2.61558e-06 -0.000364785 9.46337e-06)
(-2.97343e-05 -0.000357725 1.02181e-05)
(-5.38106e-05 -0.000351135 1.15645e-05)
(-6.74507e-05 -0.000346939 1.1151e-05)
(-7.57029e-05 -0.000343129 1.17777e-05)
(-7.77591e-05 -0.000340099 1.09458e-05)
(-7.31276e-05 -0.000335819 1.14044e-05)
(-6.72009e-05 -0.000330629 1.07199e-05)
(-5.43775e-05 -0.000323496 1.0973e-05)
(-4.55284e-05 -0.000314979 1.01066e-05)
(-3.0461e-05 -0.000304719 9.36805e-06)
(-2.29157e-05 -0.000293762 6.88328e-06)
(-6.74922e-06 -0.000274325 4.01206e-06)
(4.62059e-07 -0.00027155 4.98394e-07)
(-4.80959e-07 -0.000330612 -1.21258e-06)
(1.03261e-05 -0.000356078 2.88216e-06)
(2.14376e-05 -0.000374579 3.60395e-06)
(2.64193e-05 -0.000384303 4.28516e-06)
(4.01245e-05 -0.000390354 2.96126e-06)
(5.14123e-05 -0.000394066 1.54895e-06)
(6.93552e-05 -0.000394129 -6.04071e-07)
(8.44925e-05 -0.000391603 -1.96968e-06)
(9.97567e-05 -0.000386381 -3.50102e-06)
(0.000109692 -0.000379393 -3.83215e-06)
(0.000111426 -0.000372236 -4.34548e-06)
(0.000106747 -0.000366309 -3.95466e-06)
(9.0109e-05 -0.000363618 -4.01945e-06)
(7.26146e-05 -0.00036361 -3.81102e-06)
(4.37203e-05 -0.000361189 -3.03367e-06)
(1.90892e-05 -0.000357772 -2.06776e-06)
(-7.93529e-06 -0.000355462 -1.38748e-06)
(-2.40031e-05 -0.00035595 -2.20561e-06)
(-3.74179e-05 -0.00035667 -2.07299e-06)
(-4.20511e-05 -0.00035807 -3.02151e-06)
(-4.22893e-05 -0.000359222 -2.37932e-06)
(-3.81831e-05 -0.000360566 -2.45318e-06)
(-2.92049e-05 -0.000360394 -7.38364e-07)
(-2.25702e-05 -0.000358749 4.30701e-07)
(-1.22897e-05 -0.000354307 2.88386e-06)
(-1.01729e-05 -0.000347366 4.55587e-06)
(-4.24752e-06 -0.000337834 6.52402e-06)
(-8.45953e-06 -0.000326129 6.46067e-06)
(-4.08937e-06 -0.000306699 5.69165e-06)
(3.31911e-07 -0.000285777 5.78523e-07)
(-2.85079e-06 -0.000331783 -3.63117e-06)
(-4.56252e-06 -0.000364052 2.9169e-07)
(-1.11455e-05 -0.00037279 -1.64739e-06)
(-2.26037e-05 -0.000379805 -4.0598e-06)
(-2.29445e-05 -0.000381859 -8.39105e-06)
(-2.1106e-05 -0.000381863 -1.23168e-05)
(-8.63265e-06 -0.000377918 -1.62706e-05)
(5.81731e-06 -0.000370929 -1.87214e-05)
(2.38222e-05 -0.000361305 -2.05162e-05)
(3.84818e-05 -0.000349024 -2.04125e-05)
(4.56787e-05 -0.000336682 -2.01134e-05)
(4.63007e-05 -0.000325374 -1.89344e-05)
(3.60931e-05 -0.000318918 -1.81985e-05)
(2.47852e-05 -0.000315255 -1.71773e-05)
(4.65332e-06 -0.000312625 -1.56297e-05)
(-5.83085e-06 -0.000313393 -1.52174e-05)
(-1.59419e-05 -0.000314952 -1.57763e-05)
(-1.89885e-05 -0.000317008 -1.76947e-05)
(-2.27992e-05 -0.000319656 -1.81547e-05)
(-2.02342e-05 -0.000322913 -1.918e-05)
(-1.34091e-05 -0.000327303 -1.82449e-05)
(-2.73735e-06 -0.000332401 -1.76185e-05)
(1.12773e-05 -0.000336879 -1.46678e-05)
(2.05577e-05 -0.000340015 -1.17192e-05)
(2.90341e-05 -0.000340808 -7.15507e-06)
(2.68462e-05 -0.000339221 -3.14612e-06)
(2.42778e-05 -0.000335738 1.18782e-06)
(1.13422e-05 -0.000329393 3.43764e-06)
(4.75934e-06 -0.000320477 4.41622e-06)
(1.45288e-06 -0.000291331 -7.65022e-07)
(-5.96264e-06 -0.000313494 -6.65897e-06)
(-2.11151e-05 -0.000345961 -4.39455e-06)
(-3.74639e-05 -0.000340821 -6.01296e-06)
(-5.60948e-05 -0.00034012 -9.23924e-06)
(-6.53956e-05 -0.000335918 -1.40391e-05)
(-6.79331e-05 -0.000331461 -1.87291e-05)
(-6.00454e-05 -0.000324549 -2.30793e-05)
(-4.60365e-05 -0.000315965 -2.58505e-05)
(-2.79646e-05 -0.000305861 -2.72788e-05)
(-1.15983e-05 -0.000293812 -2.65418e-05)
(-2.0766e-06 -0.000281941 -2.52812e-05)
(1.32634e-06 -0.000270685 -2.36557e-05)
(-4.35325e-06 -0.000263977 -2.28397e-05)
(-1.34666e-05 -0.000260396 -2.21846e-05)
(-2.7446e-05 -0.000263311 -2.20028e-05)
(-3.24661e-05 -0.000269387 -2.34355e-05)
(-3.98071e-05 -0.000269263 -2.3688e-05)
(-4.4566e-05 -0.000265097 -2.37528e-05)
(-4.94825e-05 -0.000263832 -2.29646e-05)
(-4.726e-05 -0.000265888 -2.28623e-05)
(-3.75325e-05 -0.00027211 -2.16448e-05)
(-2.18797e-05 -0.00027959 -2.06048e-05)
(-2.69626e-06 -0.000288269 -1.76261e-05)
(1.30915e-05 -0.000295792 -1.4191e-05)
(2.5021e-05 -0.000302439 -9.50743e-06)
(2.81717e-05 -0.000307343 -5.20704e-06)
(2.63746e-05 -0.000311677 -1.0846e-06)
(1.74308e-05 -0.000313321 1.57309e-06)
(8.4347e-06 -0.000313898 2.33704e-06)
(7.33077e-07 -0.000281298 -8.47838e-07)
(-3.2896e-06 -0.000276977 -3.59389e-06)
(-2.41776e-05 -0.000307465 -5.48916e-06)
(-4.48515e-05 -0.000300494 -6.18956e-06)
(-5.88411e-05 -0.000293602 -8.88158e-06)
(-6.82637e-05 -0.00028383 -1.20146e-05)
(-6.76285e-05 -0.000273496 -1.56119e-05)
(-6.07197e-05 -0.000261634 -1.9103e-05)
(-4.58016e-05 -0.000249605 -2.15484e-05)
(-2.95733e-05 -0.000237653 -2.25349e-05)
(-1.46255e-05 -0.000226215 -2.17066e-05)
(-6.42776e-06 -0.000216008 -2.04409e-05)
(-3.60687e-06 -0.000206463 -1.921e-05)
(-8.11981e-06 -0.000198924 -1.90447e-05)
(-1.79389e-05 -0.000194451 -1.94465e-05)
(-3.26424e-05 -0.00019807 -2.15004e-05)
(-5.3161e-05 -0.000199403 -2.35852e-05)
(-8.24255e-05 -0.000194614 -2.18616e-05)
(-0.000105532 -0.000189773 -1.90912e-05)
(-0.000118643 -0.000191734 -1.65853e-05)
(-0.000119517 -0.000199497 -1.56841e-05)
(-0.000109304 -0.000212818 -1.47296e-05)
(-9.10361e-05 -0.000226369 -1.41659e-05)
(-6.82452e-05 -0.000241722 -1.24854e-05)
(-4.53477e-05 -0.000255562 -1.01764e-05)
(-2.62346e-05 -0.000269311 -6.91187e-06)
(-1.12432e-05 -0.000280674 -3.46188e-06)
(-4.61273e-06 -0.00029056 -6.58147e-08)
(-1.39386e-06 -0.000296219 3.64071e-06)
(-8.77735e-06 -0.000297139 5.7466e-06)
(-7.72032e-06 -0.000269633 6.55515e-06)
(9.55901e-06 -0.000264326 9.82225e-06)
(4.42624e-06 -0.000278159 4.89028e-06)
(-1.67245e-05 -0.000276416 9.82199e-07)
(-2.25171e-05 -0.000269869 -3.99612e-06)
(-2.73659e-05 -0.000258145 -7.27384e-06)
(-1.92617e-05 -0.000244111 -1.02841e-05)
(-7.33498e-06 -0.000228217 -1.23549e-05)
(1.38259e-05 -0.000213755 -1.32515e-05)
(3.36858e-05 -0.000200154 -1.2409e-05)
(5.05231e-05 -0.000189534 -1.03977e-05)
(5.70083e-05 -0.000180375 -7.97385e-06)
(5.29195e-05 -0.000173438 -5.73059e-06)
(3.80365e-05 -0.000166707 -4.10972e-06)
(1.39583e-05 -0.000160583 -2.84669e-06)
(-1.91187e-05 -0.0001516 -2.62469e-06)
(-7.08954e-05 -0.000135665 2.62154e-07)
(-0.000125122 -0.00013122 3.67303e-06)
(-0.000166524 -0.000140622 3.30105e-06)
(-0.000189932 -0.000156715 2.09856e-06)
(-0.00019619 -0.00017277 -6.13256e-07)
(-0.000189928 -0.000191311 -3.11278e-06)
(-0.000173521 -0.000207777 -5.44521e-06)
(-0.000150582 -0.000226057 -6.72807e-06)