/*--------------------------------*- C++ -*----------------------------------*\
| =========                 |                                                 |
| \\      /  F ield         | OpenFOAM: The Open Source CFD Toolbox           |
|  \\    /   O peration     | Version:  v1906                                 |
|   \\  /    A nd           | Web:      www.OpenFOAM.com                      |
|    \\/     M anipulation  |                                                 |
\*---------------------------------------------------------------------------*/
FoamFile
{
    version     2.0;
    format      ascii;
    class       volScalarField;
    location    "95";
    object      k;
}
// * * * * * * * * * * * * * * * * * * * * * * * * * * * * * * * * * * * * * //

dimensions      [0 2 -2 0 0 0 0];


internalField   nonuniform List<scalar> 
78750
(
4.14503e-07
2.98766e-06
5.69164e-06
8.43231e-06
1.11382e-05
1.37716e-05
1.63065e-05
1.87199e-05
2.09907e-05
2.31006e-05
2.50349e-05
2.67822e-05
2.83344e-05
2.96875e-05
3.08345e-05
3.17628e-05
3.24699e-05
3.29526e-05
3.32065e-05
3.32257e-05
3.30037e-05
3.25225e-05
3.17689e-05
3.07256e-05
2.93739e-05
2.76974e-05
2.5677e-05
2.33047e-05
2.05968e-05
1.75806e-05
1.42803e-05
1.07477e-05
7.19622e-06
4.04955e-06
1.57749e-06
1.80956e-06
1.45403e-05
2.61859e-05
3.66073e-05
4.58326e-05
5.39355e-05
6.09715e-05
6.6998e-05
7.20803e-05
7.62879e-05
7.96904e-05
8.23556e-05
8.43478e-05
8.57268e-05
8.65597e-05
8.69204e-05
8.68621e-05
8.64275e-05
8.56547e-05
8.45756e-05
8.32133e-05
8.15721e-05
7.96498e-05
7.74272e-05
7.48684e-05
7.19362e-05
6.85768e-05
6.46664e-05
6.00232e-05
5.4415e-05
4.74934e-05
3.88898e-05
2.88439e-05
1.86159e-05
9.53446e-06
3.18444e-06
2.30535e-05
4.11819e-05
5.70083e-05
7.02386e-05
8.10447e-05
8.97711e-05
9.67277e-05
0.000102153
0.000106233
0.000109127
0.000110969
0.000111885
0.000111989
0.000111393
0.000110208
0.000108536
0.000106472
0.0001041
0.000101506
9.87743e-05
9.59677e-05
9.31201e-05
9.02352e-05
8.72779e-05
8.41705e-05
8.07897e-05
7.69544e-05
7.24051e-05
6.67641e-05
5.95027e-05
5.01838e-05
3.93135e-05
2.78113e-05
1.70788e-05
4.92353e-06
3.05073e-05
5.36065e-05
7.31735e-05
8.86742e-05
0.000100532
0.000109522
0.000116267
0.000121176
0.000124531
0.000126539
0.000127365
0.000127148
0.00012601
0.00012407
0.000121445
0.000118261
0.000114652
0.000110761
0.00010674
0.000102745
9.89206e-05
9.53777e-05
9.21601e-05
8.92286e-05
8.64548e-05
8.36243e-05
8.04432e-05
7.65344e-05
7.14112e-05
6.45026e-05
5.55312e-05
4.52431e-05
3.39746e-05
2.26456e-05
7.07862e-06
3.76603e-05
6.4856e-05
8.71425e-05
0.000103926
0.000116085
0.000124874
0.000131173
0.000135498
0.000138167
0.000139387
0.000139301
0.000138022
0.000135653
0.000132307
0.000128117
0.000123241
0.000117862
0.000112191
0.000106463
0.00010094
9.58926e-05
9.15394e-05
8.79844e-05
8.51994e-05
8.30238e-05
8.116e-05
7.91798e-05
7.65402e-05
7.25992e-05
6.67196e-05
5.87341e-05
4.93137e-05
3.83486e-05
2.63698e-05
9.17513e-06
4.38358e-05
7.43393e-05
9.87785e-05
0.000116555
0.000128997
0.000137765
0.000143911
0.000147985
0.000150282
0.000150973
0.000150161
0.000147926
0.000144358
0.000139583
0.000133773
0.000127148
0.000119966
0.000112523
0.000105151
9.82206e-05
9.21043e-05
8.70511e-05
8.31382e-05
8.03197e-05
7.84376e-05
7.71944e-05
7.61275e-05
7.46087e-05
7.18789e-05
6.7212e-05
6.04309e-05
5.19385e-05
4.13002e-05
2.89043e-05
1.13241e-05
4.96231e-05
8.29946e-05
0.00010923
0.00012781
0.000140497
0.000149266
0.000155276
0.000159088
0.000160983
0.000161099
0.000159502
0.000156252
0.000151442
0.000145231
0.000137849
0.000129586
0.00012078
0.000111811
0.000103105
9.51437e-05
8.83563e-05
8.2918e-05
7.88205e-05
7.59848e-05
7.42655e-05
7.34049e-05
7.29751e-05
7.23409e-05
7.06782e-05
6.71598e-05
6.14992e-05
5.38179e-05
4.34808e-05
3.09387e-05
1.31129e-05
5.44386e-05
9.02672e-05
0.000118154
0.000137595
0.000150658
0.000159574
0.000165595
0.000169294
0.000170927
0.000170596
0.000168341
0.000164209
0.000158318
0.000150872
0.000142164
0.000132553
0.000122445
0.00011229
0.000102601
9.39505e-05
8.67284e-05
8.09696e-05
7.65951e-05
7.35163e-05
7.16264e-05
7.07435e-05
7.05296e-05
7.04091e-05
6.95421e-05
6.6997e-05
6.23062e-05
5.53533e-05
4.53983e-05
3.30404e-05
1.48675e-05
5.90705e-05
9.72075e-05
0.000126619
0.000146852
0.000160269
0.000169317
0.000175323
0.000178866
0.000180189
0.000179368
0.000176427
0.000171419
0.000164493
0.000155904
0.000146005
0.000135218
0.000124016
0.000112924
0.000102554
9.35591e-05
8.6199e-05
8.03535e-05
7.58654e-05
7.26157e-05
7.05138e-05
6.94459e-05
6.91836e-05
6.9261e-05
6.88879e-05
6.70702e-05
6.31612e-05
5.685e-05
4.73521e-05
3.54279e-05
1.64697e-05
6.33325e-05
0.000103614
0.000134484
0.000155519
0.000169328
0.00017855
0.000184587
0.000188029
0.000189099
0.000187853
0.0001843
0.000178502
0.00017064
0.000161017
0.000150042
0.000138195
0.000126017
0.000114103
0.000103168
9.39376e-05
8.65135e-05
8.06567e-05
7.61407e-05
7.28021e-05
7.054e-05
6.92737e-05
6.88574e-05
6.89405e-05
6.88229e-05
6.75055e-05
6.42057e-05
5.84568e-05
4.9448e-05
3.8048e-05
1.80869e-05
6.74773e-05
0.000109785
0.000142006
0.000163766
0.000177923
0.000187292
0.000193334
0.000196643
0.000197432
0.000195737
0.000191562
0.000184986
0.000176222
0.000165621
0.000153643
0.000140827
0.000127771
0.000115148
0.00010378
9.44451e-05
8.70811e-05
8.1344e-05
7.69362e-05
7.36454e-05
7.13463e-05
6.99668e-05
6.94116e-05
6.94222e-05
6.94006e-05
6.83899e-05
6.55349e-05
6.02505e-05
5.16968e-05
4.07969e-05
1.97453e-05
7.16544e-05
0.000115943
0.000149455
0.000171898
0.000186382
0.000195892
0.000201942
0.000205131
0.000205655
0.000203532
0.000198762
0.00019144
0.000181808
0.000170262
0.000157311
0.000143548
0.000129632
0.000116306
0.000104498
9.50433e-05
8.77483e-05
8.2175e-05
7.79526e-05
7.4812e-05
7.25926e-05
7.1211e-05
7.05926e-05
7.05386e-05
7.054e-05
6.97067e-05
6.71649e-05
6.22479e-05
5.40753e-05
4.3571e-05
2.14118e-05
7.56421e-05
0.000121756
0.00015645
0.000179513
0.000194299
0.000203941
0.000209997
0.000213067
0.000213328
0.000210788
0.000205446
0.000197414
0.000186967
0.000174537
0.000160678
0.000146031
0.000131309
0.000117326
0.000105113
9.55565e-05
8.8358e-05
8.29943e-05
7.90238e-05
7.61219e-05
7.40882e-05
7.28172e-05
7.22337e-05
7.2168e-05
7.21739e-05
7.14343e-05
6.9096e-05
6.44433e-05
5.6546e-05
4.63001e-05
2.31805e-05
7.97925e-05
0.000127739
0.000163577
0.000187215
0.000202274
0.000212035
0.000218094
0.000221045
0.00022105
0.000218102
0.000212204
0.000203484
0.000192248
0.000178962
0.000164219
0.000148703
0.000133176
0.000118514
0.00010584
9.61252e-05
8.8978e-05
8.38075e-05
8.00994e-05
7.74758e-05
7.56938e-05
7.46181e-05
7.41584e-05
7.41505e-05
7.41843e-05
7.35036e-05
7.12961e-05
6.68211e-05
5.90925e-05
4.89626e-05
2.49298e-05
8.37027e-05
0.000133314
0.000170194
0.000194366
0.000209691
0.00021958
0.000225657
0.000228508
0.00022828
0.000224957
0.000218546
0.000209195
0.000197234
0.000183162
0.000167601
0.000151271
0.00013498
0.000119656
0.000106513
9.66169e-05
8.95154e-05
8.45402e-05
8.11195e-05
7.88187e-05
7.73506e-05
7.65467e-05
7.62918e-05
7.64099e-05
7.65042e-05
7.58643e-05
7.37289e-05
6.93503e-05
6.16841e-05
5.15391e-05
2.67806e-05
8.77861e-05
0.000139092
0.000177001
0.000201679
0.000217255
0.000227265
0.000233358
0.00023611
0.000235655
0.000231968
0.000225064
0.000215109
0.000202459
0.000187635
0.000171288
0.000154164
0.000137104
0.000121088
0.000107391
9.72091e-05
9.0068e-05
8.52385e-05
8.20828e-05
8.01118e-05
7.89915e-05
7.85147e-05
7.85337e-05
7.88464e-05
7.90496e-05
7.84599e-05
7.63652e-05
7.20205e-05
6.43227e-05
5.40441e-05
2.86001e-05
9.16367e-05
0.000144484
0.000183335
0.000208492
0.000224321
0.000234467
0.000240596
0.000243272
0.000242617
0.000238601
0.000231249
0.000220746
0.000207469
0.000191961
0.000174889
0.000157021
0.000139228
0.000122537
0.000108272
9.77644e-05
9.05475e-05
8.5842e-05
8.29516e-05
8.13298e-05
8.05942e-05
8.04962e-05
8.08487e-05
8.14133e-05
8.17647e-05
8.12326e-05
7.91515e-05
7.47864e-05
6.69776e-05
5.64705e-05
3.05069e-05
9.56357e-05
0.000150059
0.000189858
0.000215488
0.000231567
0.00024185
0.000248015
0.000250618
0.000249768
0.000245437
0.00023766
0.000226642
0.000212779
0.000196627
0.000178867
0.000160276
0.000141749
0.000124341
0.000109422
9.84632e-05
9.10627e-05
8.64018e-05
8.37311e-05
8.24466e-05
8.21129e-05
8.24336e-05
8.31756e-05
8.40537e-05
8.46062e-05
8.41583e-05
8.20826e-05
7.76566e-05
6.9664e-05
5.88348e-05
3.2382e-05
9.94309e-05
0.000155303
0.000195984
0.000222075
0.000238415
0.00024885
0.000255067
0.000257611
0.000256586
0.000251967
0.000243805
0.000232321
0.00021793
0.0002012
0.000182814
0.000163559
0.000144344
0.000126242
0.000110661
9.91979e-05
9.15558e-05
8.68921e-05
8.44129e-05
8.34608e-05
8.35458e-05
8.43191e-05
8.54943e-05
8.67314e-05
8.75231e-05
8.7178e-05
8.50994e-05
8.0579e-05
7.23457e-05
6.1127e-05
3.43305e-05
0.00010334
0.000160693
0.000202278
0.000228844
0.000245457
0.00025605
0.000262315
0.000264794
0.000263593
0.000258697
0.000250171
0.000238259
0.000223384
0.000206122
0.000187153
0.000167265
0.000147368
0.000128544
0.000112226
0.00010013
9.21263e-05
8.73641e-05
8.50125e-05
8.43626e-05
8.48669e-05
8.61185e-05
8.77699e-05
8.94168e-05
9.04897e-05
9.0274e-05
8.81959e-05
8.35593e-05
7.50361e-05
6.33602e-05
3.62502e-05
0.000107068
0.000165797
0.000208249
0.000235304
0.000252223
0.000262987
0.000269296
0.000271704
0.000270329
0.000265172
0.000256317
0.000244022
0.000228723
0.000210994
0.000191511
0.000171057
0.000150531
0.000131017
0.000113963
0.000101176
9.27398e-05
8.78124e-05
8.5539e-05
8.51661e-05
8.60893e-05
8.78387e-05
8.99992e-05
9.2094e-05
9.34881e-05
9.34256e-05
9.13501e-05
8.65746e-05
7.77142e-05
6.55236e-05
3.82315e-05
0.000110868
0.000170989
0.000214339
0.000241939
0.000259225
0.000270163
0.000276467
0.000278768
0.000277205
0.000271794
0.000262635
0.000249998
0.000234322
0.000216176
0.000196229
0.000175247
0.000154115
0.000133902
0.000116063
0.000102468
9.3483e-05
8.8287e-05
8.60139e-05
8.58717e-05
8.71986e-05
8.94563e-05
9.21529e-05
9.4729e-05
9.64722e-05
9.65802e-05
9.45102e-05
8.95852e-05
8.0362e-05
6.76196e-05
4.0188e-05
0.000114496
0.000175908
0.000220124
0.000248323
0.000265987
0.000277118
0.000283426
0.000285584
0.000283832
0.000278189
0.000268763
0.000255831
0.000239836
0.00022134
0.000201
0.000179561
0.000157883
0.000137012
0.000118397
0.000103947
9.4339e-05
8.87964e-05
8.64579e-05
8.65037e-05
8.8218e-05
9.09907e-05
9.42469e-05
9.73376e-05
9.94655e-05
9.97727e-05
9.77186e-05
9.26258e-05
8.29929e-05
6.96405e-05
4.21944e-05
0.00011816
0.000180851
0.000225915
0.000254701
0.000272695
0.000284029
0.000290408
0.000292446
0.000290521
0.000284666
0.000275002
0.000261813
0.000245544
0.000226748
0.000206068
0.00018422
0.000162032
0.000140519
0.000121109
0.000105722
9.5389e-05
8.93944e-05
8.69005e-05
8.70715e-05
8.9142e-05
9.24259e-05
9.6256e-05
9.98818e-05
0.00010241
0.00010292
0.000100878
9.56155e-05
8.55614e-05
7.15792e-05
4.41802e-05
0.00012168
0.000185571
0.000231454
0.000260772
0.000279087
0.000290635
0.000297123
0.000299135
0.000297011
0.000290953
0.00028108
0.00026768
0.000251191
0.00023216
0.000211208
0.000189023
0.000166396
0.000144296
0.000124117
0.000107773
9.66457e-05
9.01147e-05
8.73821e-05
8.76135e-05
9.00016e-05
9.37846e-05
9.81965e-05
0.000102378
0.00010533
0.000106064
0.000104049
9.85948e-05
8.80863e-05
7.34307e-05
4.61999e-05
0.000125192
0.000190271
0.000237021
0.000266776
0.00028538
0.000297137
0.000303739
0.000305744
0.000303458
0.000297238
0.000287199
0.000273629
0.000256966
0.000237748
0.000216577
0.000194111
0.000171097
0.000148453
0.000127524
0.000110197
9.81923e-05
9.10233e-05
8.79503e-05
8.81587e-05
9.08105e-05
9.50689e-05
0.000100062
0.00010481
0.0001082
0.000109178
0.000107249
0.000101547
9.05479e-05
7.51894e-05
4.81939e-05
0.000128547
0.000194704
0.000242248
0.000272442
0.000291353
0.000303343
0.000310093
0.000312134
0.000309734
0.000303374
0.000293192
0.000279488
0.000262697
0.000243348
0.000222022
0.000199345
0.000176019
0.000152903
0.000131283
0.000113002
0.000100069
9.21778e-05
8.86658e-05
8.87605e-05
9.16083e-05
9.63017e-05
0.000101859
0.000107174
0.000111018
0.000112282
0.000110436
0.00010447
9.29435e-05
7.68511e-05
5.02072e-05
0.000131882
0.000199088
0.000247399
0.000278002
0.0002972
0.000309415
0.000316319
0.000318429
0.000315998
0.000309475
0.000299164
0.00028536
0.000268488
0.00024906
0.000227634
0.000204806
0.000181231
0.000157709
0.000135459
0.000116265
0.000102348
9.36456e-05
8.95878e-05
8.94651e-05
9.24274e-05
9.75062e-05
0.00010361
0.000109499
0.000113831
0.000115444
0.000113661
0.000107443
9.53087e-05
7.84203e-05
5.21932e-05
0.00013508
0.00020325
0.000252273
0.000283264
0.000302749
0.000315197
0.000322264
0.000324453
0.000322005
0.000315367
0.000304981
0.000291131
0.000274232
0.000254781
0.000233316
0.000210403
0.000186653
0.000162807
0.000140009
0.00011998
0.00010506
9.5481e-05
9.07802e-05
9.0332e-05
9.33136e-05
9.87096e-05
0.000105322
0.000111777
0.000116612
0.000118606
0.000116892
0.00011042
9.76346e-05
7.98958e-05
5.41846e-05
0.000138245
0.000207343
0.000257038
0.00028839
0.000308145
0.000320821
0.000328058
0.000330341
0.0003279
0.000321172
0.000310739
0.000296875
0.000279987
0.000260557
0.000239104
0.000216163
0.000192304
0.000168206
0.000144941
0.000124153
0.000108228
9.7726e-05
9.22946e-05
9.14122e-05
9.43095e-05
9.99448e-05
0.000107022
0.000114033
0.000119381
0.000121764
0.000120119
0.000113383
9.99143e-05
8.12802e-05
5.61507e-05
0.000141305
0.000211263
0.000261569
0.00029325
0.000313265
0.000326168
0.000333582
0.000335974
0.000333565
0.000326783
0.000316341
0.000302504
0.000285671
0.000266313
0.000244927
0.00022202
0.000198121
0.00017385
0.000150203
0.000128742
0.000111846
0.000100404
9.41765e-05
9.27593e-05
9.54635e-05
0.000101246
0.000108726
0.000116258
0.000122107
0.000124888
0.000123318
0.000116313
0.00010214
8.25762e-05
5.81139e-05
0.000144328
0.000215123
0.000265975
0.000297947
0.000318203
0.000331327
0.00033892
0.000341433
0.000339073
0.000332266
0.000321838
0.000308054
0.000291308
0.000272058
0.000250784
0.000227964
0.000204089
0.000179718
0.000155773
0.000133724
0.000115906
0.000103528
9.6456e-05
9.44137e-05
9.68153e-05
0.000102643
0.00011045
0.000118462
0.000124808
0.000127967
0.00012647
0.000119193
0.000104303
8.37874e-05
6.00552e-05
0.000147264
0.000218893
0.000270172
0.000302395
0.00032288
0.000336222
0.000344
0.000346646
0.000344363
0.000337571
0.000327176
0.00031347
0.000296843
0.000277742
0.000256626
0.000233947
0.000210157
0.00018576
0.000161602
0.000139058
0.000120393
0.000107106
9.91623e-05
9.64184e-05
9.84112e-05
0.000104177
0.00011223
0.000120681
0.00012753
0.000131013
0.00012957
0.000122014
0.000106399
8.49184e-05
6.19732e-05
0.000150093
0.000222487
0.000274179
0.000306644
0.00032735
0.000340905
0.000348864
0.000351647
0.000349456
0.000342725
0.000332361
0.00031875
0.00030227
0.000283351
0.000262433
0.000239942
0.000216293
0.00019194
0.000167652
0.000144708
0.000125283
0.000111136
0.000102314
9.88074e-05
0.000100293
0.000105889
0.000114097
0.000122929
0.000130252
0.000134024
0.000132615
0.000124772
0.000108426
8.59729e-05
6.3855e-05
0.000152826
0.000225935
0.000277997
0.000310676
0.000331584
0.000345341
0.000353478
0.000356398
0.000354306
0.000347645
0.000337346
0.000323865
0.000307567
0.000288866
0.000268183
0.00024592
0.000222463
0.000198214
0.000173876
0.000150628
0.000130545
0.000115604
0.000105921
0.00010161
0.000102499
0.000107817
0.000116079
0.000125219
0.000132966
0.000136993
0.000135599
0.000127461
0.000110383
8.69557e-05
6.57036e-05
0.000155452
0.00022923
0.000281621
0.000314491
0.000335594
0.000349549
0.000357862
0.000360921
0.000358931
0.00035236
0.000342156
0.000328828
0.000312736
0.000294279
0.00027386
0.00025186
0.000228636
0.000204546
0.000180229
0.00015677
0.00013614
0.000120486
0.000109979
0.000104843
0.000105061
0.000109997
0.000118209
0.00012757
0.000135677
0.000139919
0.000138521
0.00013008
0.000112271
8.78697e-05
6.75268e-05
0.000157998
0.00023238
0.000285055
0.000318094
0.000339379
0.000353529
0.000362017
0.000365219
0.00036334
0.000356863
0.000346761
0.000333617
0.000317763
0.00029958
0.000279455
0.000257751
0.000234797
0.000210915
0.000186683
0.0001631
0.00014203
0.000125754
0.000114475
0.000108514
0.000108004
0.00011246
0.000120514
0.00013
0.000138393
0.000142804
0.000141378
0.000132626
0.000114089
8.87208e-05
6.93108e-05
0.000160428
0.000235357
0.000288283
0.000321474
0.000342932
0.000357268
0.00036593
0.000369277
0.000367518
0.000361156
0.000351186
0.000338237
0.000322637
0.000304755
0.000284949
0.000263568
0.000240916
0.000217283
0.000193196
0.000169571
0.000148171
0.000131368
0.000119384
0.000112616
0.000111341
0.000115232
0.000123021
0.00013253
0.000141127
0.000145654
0.000144173
0.000135102
0.000115841
8.95137e-05
7.10584e-05
0.000162762
0.000238187
0.000291328
0.000324652
0.000346271
0.000360787
0.000369617
0.000373108
0.000371473
0.000365236
0.00035542
0.000342691
0.000327365
0.000309798
0.000290342
0.000269308
0.000246988
0.000223641
0.000199747
0.000176154
0.000154526
0.000137292
0.000124677
0.000117134
0.000115072
0.000118326
0.000125749
0.000135178
0.00014389
0.000148475
0.000146909
0.000137508
0.000117528
9.02558e-05
7.27685e-05
0.000164989
0.000240855
0.000294175
0.000327612
0.000349379
0.000364067
0.00037306
0.000376693
0.000375184
0.000369084
0.000359441
0.000346953
0.000331923
0.00031469
0.000295594
0.000274939
0.000252979
0.000229952
0.000206301
0.000182808
0.000161053
0.000143484
0.000130319
0.000122048
0.000119193
0.000121753
0.000128717
0.000137963
0.000146698
0.000151279
0.000149594
0.000139851
0.000119158
9.09533e-05
7.44361e-05
0.000167115
0.000243375
0.000296844
0.000330377
0.000352281
0.000367131
0.000376281
0.000380052
0.000378671
0.000372714
0.000363262
0.000351034
0.000336319
0.000319442
0.000300724
0.000280458
0.000258885
0.000236207
0.000212839
0.000189509
0.000167717
0.000149908
0.000136275
0.00012733
0.000123692
0.000125515
0.000131936
0.000140898
0.000149563
0.000154074
0.000152234
0.000142135
0.000120735
9.16135e-05
7.60585e-05
0.000169133
0.000245737
0.000299321
0.000332931
0.000354959
0.00036996
0.000379259
0.000383163
0.000381908
0.000376102
0.000366856
0.000354902
0.000340519
0.000324016
0.000305699
0.000285842
0.000264675
0.00024238
0.000219334
0.000196224
0.000174483
0.000156526
0.000142509
0.000132951
0.000128551
0.000129608
0.000135414
0.000143998
0.000152501
0.000156874
0.000154841
0.00014437
0.000122267
9.22436e-05
7.76393e-05
0.000171058
0.000247961
0.000301631
0.000335298
0.000357437
0.00037258
0.000382019
0.00038605
0.00038492
0.000379267
0.000370239
0.000358572
0.000344532
0.000328415
0.000310513
0.000291082
0.000270338
0.000248448
0.000225763
0.000202927
0.00018132
0.000163306
0.000148988
0.000138882
0.000133749
0.000134022
0.000139152
0.00014727
0.000155519
0.00015969
0.000157424
0.000146565
0.000123763
9.28504e-05
7.91719e-05
0.000172874
0.000250027
0.00030375
0.000337458
0.000359696
0.000374972
0.000384544
0.000388696
0.000387688
0.000382192
0.000373394
0.000362023
0.000348337
0.000332619
0.000315144
0.000296156
0.000275853
0.000254389
0.000232102
0.000209592
0.000188197
0.000170213
0.000155681
0.000145096
0.000139268
0.00013875
0.000143152
0.000150722
0.000158633
0.000162534
0.000159995
0.00014873
0.00012523
9.34411e-05
8.06632e-05
0.0001746
0.00025196
0.000305707
0.000339438
0.000361764
0.000377162
0.000386859
0.000391126
0.000390237
0.0003849
0.000376339
0.00036527
0.000351942
0.000336626
0.000319585
0.000301048
0.000281198
0.000260178
0.000238307
0.000216178
0.000195076
0.000177211
0.000162551
0.000151564
0.000145087
0.000143781
0.00014741
0.00015436
0.00016185
0.000165417
0.000162567
0.000150876
0.000126677
9.40222e-05
8.21051e-05
0.000176216
0.000253734
0.000307475
0.000341215
0.000363618
0.000379133
0.00038895
0.000393328
0.000392558
0.000387384
0.000379069
0.00036831
0.000355345
0.000340435
0.000323832
0.000305751
0.000286366
0.000265805
0.000244379
0.000222663
0.000201928
0.000184261
0.000169558
0.000158249
0.000151181
0.000149102
0.000151929
0.000158191
0.000165182
0.000168353
0.00016515
0.000153013
0.000128114
9.45998e-05
8.3504e-05
0.000177741
0.000255374
0.000309083
0.000342816
0.000365287
0.000380909
0.000390839
0.000395324
0.000394671
0.000389663
0.000381603
0.000371156
0.000358554
0.000344049
0.000327882
0.000310259
0.000291342
0.000271252
0.000250291
0.000229029
0.000208727
0.000191329
0.000176665
0.000165116
0.000157523
0.000154701
0.000156704
0.00016222
0.000168638
0.000171352
0.000167756
0.000155151
0.000129546
9.51781e-05
8.48551e-05
0.00017916
0.00025686
0.000310509
0.000344223
0.000366753
0.000382478
0.000392516
0.000397106
0.000396571
0.000391736
0.000383941
0.000373813
0.000361576
0.000347476
0.000331743
0.000314575
0.000296126
0.000276511
0.00025603
0.000235252
0.000215439
0.000198377
0.000183826
0.00017212
0.000164076
0.000160553
0.000161733
0.000166458
0.000172235
0.000174431
0.000170401
0.000157302
0.000130982
9.57617e-05
8.61646e-05
0.000180488
0.000258216
0.00031178
0.000345459
0.000368039
0.000383858
0.000393999
0.00039869
0.000398273
0.000393616
0.000386096
0.000376292
0.000364421
0.000350722
0.000335417
0.000318699
0.000300715
0.000281576
0.000261585
0.000241317
0.000222044
0.000205369
0.000191
0.000179217
0.0001708
0.000166632
0.000166996
0.000170893
0.000175974
0.000177598
0.000173094
0.000159476
0.000132428
9.63521e-05
8.74328e-05
0.00018172
0.000259433
0.000312885
0.000346514
0.000369133
0.000385039
0.000395279
0.000400069
0.000399774
0.000395303
0.000388071
0.000378599
0.000367097
0.000353797
0.000338916
0.000322641
0.000305115
0.00028645
0.000266954
0.000247215
0.000228524
0.000212284
0.000198156
0.000186365
0.000177653
0.000172903
0.000172486
0.000175558
0.000179875
0.000180869
0.000175849
0.000161683
0.00013389
9.69518e-05
8.86659e-05
0.000182871
0.000260528
0.000313841
0.000347403
0.000370051
0.000386036
0.000396368
0.000401253
0.000401081
0.000396803
0.000389872
0.00038074
0.00036961
0.000356708
0.000342246
0.000326406
0.000309332
0.000291137
0.000272137
0.000252943
0.000234872
0.000219106
0.000205267
0.000193535
0.0001846
0.000179336
0.000178179
0.000180426
0.000183939
0.000184254
0.000178678
0.000163933
0.000135375
9.75615e-05
8.98668e-05
0.000183941
0.000261499
0.000314644
0.000348122
0.000370786
0.000386841
0.000397258
0.000402237
0.000402191
0.000398117
0.000391502
0.000382719
0.000371966
0.000359462
0.000345415
0.000330004
0.000313373
0.000295641
0.000277138
0.000258498
0.000241075
0.000225817
0.000212313
0.000200699
0.000191614
0.000185906
0.000184053
0.000185484
0.000188166
0.000187761
0.000181591
0.000166236
0.00013689
9.81831e-05
9.10395e-05
0.000184937
0.000262357
0.000315303
0.000348679
0.000371345
0.00038746
0.000397955
0.000403025
0.000403109
0.000399249
0.000392962
0.000384537
0.000374166
0.000362062
0.000348429
0.000333442
0.000317248
0.000299973
0.000281964
0.000263887
0.000247135
0.000232413
0.000219284
0.000207841
0.000198667
0.000192579
0.000190081
0.000190714
0.000192551
0.000191393
0.000184597
0.0001686
0.000138438
9.8818e-05
9.21861e-05
0.00018586
0.000263101
0.000315818
0.00034907
0.000371726
0.00038789
0.000398456
0.000403615
0.000403836
0.000400202
0.000394258
0.0003862
0.000376215
0.000364513
0.000351292
0.000336726
0.000320963
0.000304139
0.000286621
0.000269113
0.00025305
0.000238885
0.000226162
0.000214936
0.000205734
0.000199334
0.000196244
0.000196106
0.000197088
0.000195152
0.0001877
0.000171031
0.000140026
9.94674e-05
9.33077e-05
0.000186714
0.000263733
0.000316191
0.000349301
0.000371931
0.000388132
0.000398761
0.000404007
0.000404375
0.000400987
0.000395392
0.000387703
0.000378108
0.000366812
0.000354005
0.000339861
0.000324528
0.000308153
0.000291126
0.000274194
0.000258832
0.000245237
0.000232945
0.000221974
0.000212799
0.000206142
0.000202517
0.000201644
0.000201773
0.000199042
0.000190908
0.000173536
0.000141658
0.000100131
9.44057e-05
0.000187499
0.000264258
0.000316426
0.000349372
0.00037196
0.000388186
0.000398868
0.0004042
0.000404731
0.000401636
0.00039637
0.000389046
0.000379844
0.000368957
0.000356569
0.000342848
0.000327946
0.00031202
0.000295487
0.00027914
0.000264485
0.00025147
0.000239625
0.00022894
0.000219838
0.000212984
0.000208882
0.000207313
0.000206599
0.00020306
0.000194222
0.00017612
0.000143336
0.000100812
9.54802e-05
0.000188218
0.000264676
0.000316523
0.000349285
0.000371816
0.000388052
0.000398774
0.000404181
0.000404871
0.000402075
0.000397153
0.000390209
0.000381411
0.000370943
0.000358981
0.00034569
0.000331224
0.000315753
0.000299725
0.000283981
0.000270031
0.000257596
0.000246207
0.00023583
0.000226839
0.000219843
0.00021531
0.000213093
0.000211554
0.000207204
0.000197645
0.000178785
0.000145064
0.00010151
9.65333e-05
0.000188874
0.000264993
0.000316489
0.000349045
0.000371504
0.000387738
0.000398489
0.000403966
0.000404817
0.000402331
0.000397762
0.000391205
0.000382817
0.000372773
0.000361242
0.000348387
0.000334364
0.000319359
0.000303851
0.000288738
0.000275485
0.000263625
0.000252692
0.000242636
0.000233786
0.000226694
0.000221791
0.000218973
0.000216631
0.000211473
0.00020118
0.000181536
0.000146845
0.000102227
9.75644e-05
0.000189465
0.000265204
0.000316319
0.00034865
0.000371022
0.00038724
0.000398006
0.000403546
0.000404559
0.000402394
0.000398187
0.000392025
0.000384055
0.000374444
0.000363352
0.000350941
0.000337374
0.000322851
0.000307888
0.000293445
0.000280873
0.000269574
0.000259091
0.000249362
0.000240674
0.000233522
0.000228297
0.000224914
0.000221806
0.00021585
0.000204816
0.000184367
0.000148677
0.000102963
9.85727e-05
0.000189992
0.000265313
0.000316018
0.000348107
0.000370379
0.000386568
0.00039734
0.000402934
0.000404109
0.000402269
0.000398429
0.000392667
0.000385121
0.000375947
0.000365302
0.000353344
0.000340243
0.00032622
0.000311832
0.000298104
0.000286199
0.000275449
0.00026541
0.000256008
0.000247498
0.000240319
0.000234818
0.00023093
0.000227075
0.000220337
0.00020856
0.000187286
0.000150565
0.00010372
9.95538e-05
0.000190447
0.000265308
0.000315578
0.00034741
0.000369572
0.000385724
0.000396493
0.000402136
0.000403473
0.000401965
0.000398495
0.000393135
0.000386017
0.000377285
0.000367092
0.000355593
0.000342969
0.000329462
0.000315674
0.000302695
0.000291452
0.000281244
0.000271643
0.00026257
0.000254248
0.000247066
0.000241329
0.000236981
0.000232415
0.00022491
0.000212391
0.000190279
0.000152501
0.000104498
0.000100502
0.000190825
0.000265189
0.000315003
0.000346568
0.000368612
0.000384722
0.000395482
0.000401171
0.00040267
0.000401495
0.000398392
0.000393431
0.000386738
0.000378449
0.000368711
0.000357679
0.000345541
0.000332565
0.000319397
0.000307194
0.000296613
0.000286949
0.000277788
0.000269048
0.000260924
0.000253763
0.000247824
0.000243062
0.000237823
0.000229569
0.00021631
0.000193346
0.000154486
0.000105295
0.000101413
0.000191117
0.000264948
0.000314288
0.000345578
0.000367502
0.000383566
0.000394317
0.000400054
0.00040172
0.000400881
0.000398141
0.000393574
0.000387298
0.000379449
0.000370164
0.000359601
0.000347956
0.000335521
0.000322992
0.00031158
0.000301661
0.00029254
0.000283821
0.000275419
0.000267507
0.000260386
0.000254279
0.000249143
0.000243272
0.000234299
0.000220305
0.00019648
0.000156514
0.000106109
0.000102282
0.000191323
0.000264589
0.00031344
0.000344449
0.000366249
0.000382268
0.000393012
0.000398805
0.000400645
0.000400146
0.000397765
0.000393579
0.000387711
0.000380292
0.000371457
0.000361363
0.000350217
0.000338334
0.000326461
0.000315851
0.000306593
0.000298014
0.000289737
0.00028168
0.000273993
0.000266936
0.000260692
0.000255224
0.000248754
0.000239086
0.000224365
0.000199665
0.000158573
0.000106941
0.000103113
0.000191448
0.000264117
0.000312463
0.000343182
0.000364854
0.000380828
0.000391571
0.000397433
0.000399465
0.000399316
0.000397291
0.000393478
0.000388004
0.000381002
0.000372607
0.000362978
0.000352332
0.000341013
0.000329816
0.000320007
0.000311405
0.000303361
0.000295524
0.000287812
0.000280358
0.000273384
0.000267034
0.000261275
0.000254245
0.00024391
0.000228473
0.000202892
0.00016066
0.000107791
0.000103911
0.000191504
0.000263548
0.00031137
0.000341787
0.000363323
0.000379248
0.000389997
0.000395946
0.000398191
0.000398406
0.000396739
0.000393291
0.0003882
0.000381603
0.000373639
0.000364471
0.000354329
0.000343587
0.000333092
0.000324071
0.000316112
0.000308594
0.000301189
0.00029382
0.000286604
0.000279726
0.000273293
0.000267284
0.000259732
0.000248759
0.000232621
0.000206158
0.000162775
0.000108656
0.000104685
0.000191503
0.000262891
0.000310165
0.000340262
0.000361651
0.000377521
0.00038828
0.00039434
0.000396835
0.000397426
0.00039612
0.000393036
0.000388321
0.000382119
0.000374576
0.000365864
0.000356231
0.000346082
0.00033632
0.000328063
0.000320725
0.000313718
0.000306735
0.000299706
0.00029273
0.000285962
0.000279473
0.000273246
0.000265203
0.000253619
0.000236794
0.000209451
0.000164911
0.000109536
0.000105443
0.000191458
0.000262159
0.000308857
0.000338615
0.000359839
0.000375641
0.000386408
0.000392604
0.000395422
0.000396367
0.000395423
0.000392712
0.000388379
0.000382573
0.000375448
0.000367191
0.00035807
0.000348533
0.000339537
0.000332008
0.000325262
0.000318742
0.000312162
0.000305459
0.000298716
0.000292055
0.000285517
0.000279121
0.000270637
0.00025848
0.000240987
0.000212769
0.000167066
0.000110426
0.00010619
0.000191374
0.000261351
0.000307444
0.000336842
0.000357885
0.0003736
0.00038436
0.000390689
0.000393849
0.000395167
0.000394615
0.0003923
0.000388366
0.000382965
0.000376262
0.000368462
0.000359862
0.000350952
0.000342746
0.000335916
0.000329737
0.000323681
0.000317486
0.000311095
0.000304582
0.000298048
0.000291528
0.000284932
0.000276021
0.000263318
0.000245177
0.000216093
0.000169228
0.000111321
0.000106925
0.000191254
0.000260465
0.000305928
0.000334949
0.000355795
0.000371408
0.000382149
0.00038861
0.000392122
0.00039383
0.000393691
0.000391797
0.000388282
0.000383301
0.000377029
0.000369692
0.000361618
0.000353347
0.000345941
0.000339787
0.000334151
0.000328541
0.000322714
0.000316625
0.000310342
0.00030395
0.000297484
0.000290689
0.000281365
0.000268137
0.000249365
0.000219422
0.000171394
0.00011222
0.000107636
0.000191077