/*--------------------------------*- C++ -*----------------------------------*\
| =========                 |                                                 |
| \\      /  F ield         | OpenFOAM: The Open Source CFD Toolbox           |
|  \\    /   O peration     | Version:  v1906                                 |
|   \\  /    A nd           | Web:      www.OpenFOAM.com                      |
|    \\/     M anipulation  |                                                 |
\*---------------------------------------------------------------------------*/
FoamFile
{
    version     2.0;
    format      ascii;
    class       volVectorField;
    location    "93";
    object      U;
}
// * * * * * * * * * * * * * * * * * * * * * * * * * * * * * * * * * * * * * //

dimensions      [0 1 -1 0 0 0 0];


internalField   nonuniform List<vector> 
78750
(
(7.51715e-05 -0.000798 0.00141342)
(0.00039688 -0.00181647 0.00363254)
(0.000884167 -0.0026918 0.00515572)
(0.00157728 -0.00358117 0.00608654)
(0.00248327 -0.00448476 0.00659244)
(0.00359851 -0.00534706 0.00683029)
(0.00490287 -0.00611051 0.00691362)
(0.00636268 -0.00673457 0.00691298)
(0.00793705 -0.00719741 0.00686804)
(0.00958268 -0.00749157 0.00679963)
(0.0112568 -0.0076188 0.00671798)
(0.0129185 -0.00758618 0.00662782)
(0.0145298 -0.00740373 0.00653102)
(0.0160559 -0.0070828 0.00642793)
(0.0174648 -0.00663143 0.00631964)
(0.0187281 -0.00606176 0.00620635)
(0.0198202 -0.00538755 0.00608821)
(0.0207185 -0.00462293 0.00596571)
(0.0214038 -0.00378244 0.00583952)
(0.0218606 -0.00288123 0.00571064)
(0.0220774 -0.0019353 0.00558028)
(0.0220475 -0.000961735 0.00544964)
(0.0217677 2.07496e-05 0.00532012)
(0.0212336 0.000991663 0.00519324)
(0.0204456 0.00193277 0.00507038)
(0.0194166 0.00282603 0.00495302)
(0.0181652 0.00365273 0.00484222)
(0.0167121 0.00439258 0.00473807)
(0.0150802 0.00503102 0.00464074)
(0.0132901 0.00557345 0.00454896)
(0.0113437 0.00611159 0.00445057)
(0.00917067 0.00695617 0.00428522)
(0.00658985 0.0084914 0.00386951)
(0.00360909 0.00989565 0.00288912)
(0.000875413 0.0071334 0.0011646)
(6.17583e-06 -0.00263611 0.00130123)
(0.000383276 -0.00636815 0.00313847)
(0.00106398 -0.00939908 0.00424274)
(0.00202551 -0.01215 0.00486734)
(0.00322082 -0.014664 0.00519212)
(0.00458916 -0.0168546 0.00533504)
(0.00606956 -0.018635 0.00537251)
(0.00760924 -0.0199592 0.00535184)
(0.00916411 -0.0208165 0.00530085)
(0.0106972 -0.0212193 0.00523515)
(0.0121773 -0.0211909 0.00516315)
(0.0135786 -0.0207603 0.00508907)
(0.0148797 -0.0199595 0.00501371)
(0.0160552 -0.0188284 0.0049321)
(0.0170917 -0.0174019 0.00484432)
(0.0179805 -0.0157019 0.00475664)
(0.0187051 -0.0137559 0.00467138)
(0.0192532 -0.0115943 0.00458975)
(0.0196152 -0.00924964 0.00451292)
(0.0197825 -0.00675727 0.00444159)
(0.0197473 -0.00415604 0.0043761)
(0.019502 -0.00148892 0.00431661)
(0.019044 0.00119633 0.00426352)
(0.0183799 0.0038461 0.00421726)
(0.0175166 0.00640487 0.00417777)
(0.016462 0.0088154 0.00414399)
(0.0152335 0.0110287 0.00411541)
(0.0138422 0.0130283 0.00409799)
(0.0122975 0.0148409 0.00409681)
(0.0106122 0.016595 0.00410668)
(0.00876495 0.0186564 0.00410643)
(0.00668108 0.0216513 0.00401611)
(0.00436884 0.0255493 0.00363377)
(0.00207624 0.0272596 0.00269388)
(0.00024637 0.0179325 0.00107191)
(1.42107e-07 -0.00444013 0.00123658)
(0.000471668 -0.0115635 0.00285769)
(0.00136117 -0.0174655 0.00377228)
(0.00258926 -0.0224156 0.00425118)
(0.00403377 -0.0263973 0.00448226)
(0.00558163 -0.0293868 0.00458204)
(0.00714728 -0.0314315 0.00461713)
(0.00867534 -0.0326289 0.004622)
(0.0101319 -0.0330874 0.00461233)
(0.0114953 -0.0329048 0.00459415)
(0.0127504 -0.0321625 0.00456898)
(0.0138864 -0.0309277 0.00453665)
(0.0148948 -0.0292556 0.00449684)
(0.0157677 -0.0271936 0.0044499)
(0.0164983 -0.0247852 0.00439646)
(0.01708 -0.0220666 0.004339)
(0.017508 -0.0190699 0.00428144)
(0.0177791 -0.0158251 0.0042286)
(0.0178912 -0.0123615 0.00418536)
(0.0178431 -0.00871048 0.00415537)
(0.0176346 -0.0049076 0.0041406)
(0.0172672 -0.00099676 0.00414015)
(0.0167387 0.00296704 0.00414983)
(0.0160442 0.00691436 0.00416217)
(0.0151856 0.0107586 0.00416773)
(0.0141683 0.014405 0.00415776)
(0.013002 0.0177735 0.00412834)
(0.0116994 0.0208336 0.00408284)
(0.010273 0.023651 0.00402994)
(0.00872496 0.0264677 0.00397759)
(0.00702528 0.0297706 0.00391395)
(0.00512563 0.0340192 0.00376095)
(0.00319031 0.0382231 0.00334755)
(0.00141882 0.0381791 0.00245715)
(0.000149406 0.0231919 0.000975111)
(3.71717e-05 -0.006961 0.00114732)
(0.000630821 -0.018372 0.00248324)
(0.00163541 -0.0274556 0.00311848)
(0.00291347 -0.0343865 0.00337926)
(0.00430602 -0.0392597 0.00346457)
(0.00569949 -0.0423584 0.00347635)
(0.00703673 -0.0440601 0.00346013)
(0.00829744 -0.0446899 0.00343275)
(0.00947388 -0.0444741 0.00339893)
(0.0105612 -0.0435626 0.00335899)
(0.0115553 -0.0420568 0.00331212)
(0.0124515 -0.0400285 0.00325789)
(0.013243 -0.0375321 0.0031971)
(0.0139215 -0.0346128 0.0031323)
(0.0144777 -0.031312 0.00306802)
(0.0149032 -0.027671 0.00301073)
(0.0151916 -0.0237328 0.00296859)
(0.0153397 -0.0195408 0.00295084)
(0.0153479 -0.0151375 0.00296691)
(0.0152194 -0.0105616 0.0030262)
(0.0149587 -0.00584728 0.00313586)
(0.0145692 -0.00102681 0.00329857)
(0.0140575 0.0038611 0.00351)
(0.0134291 0.00876271 0.00375463)
(0.0126837 0.0136003 0.0040054)
(0.0118192 0.0182719 0.00422725)
(0.0108352 0.0226761 0.00438657)
(0.00973428 0.0267684 0.00446293)
(0.00851814 0.0306423 0.00445477)
(0.00717742 0.0346055 0.00437163)
(0.00568191 0.0391459 0.00420962)
(0.00401236 0.0443586 0.0039162)
(0.00241477 0.04838 0.00339583)
(0.00102246 0.0465233 0.0024768)
(7.68811e-05 0.026846 0.000997264)
(4.46405e-05 -0.00938862 0.000853288)
(0.000609494 -0.0242785 0.0017358)
(0.0015062 -0.035441 0.00211122)
(0.00258796 -0.0432323 0.00226387)
(0.00370753 -0.0480966 0.00232578)
(0.00478585 -0.0507652 0.00234688)
(0.00580675 -0.0519234 0.00234492)
(0.00677537 -0.0520113 0.00232385)
(0.00769342 -0.0512722 0.00228251)
(0.00855896 -0.0498417 0.00221858)
(0.00936733 -0.0477992 0.00213031)
(0.0101099 -0.0451939 0.00201753)
(0.0107744 -0.042063 0.00188213)
(0.0113462 -0.0384446 0.00172854)
(0.0118115 -0.0343875 0.00156423)
(0.0121589 -0.029954 0.00139992)
(0.0123821 -0.0252175 0.00124946)
(0.0124798 -0.0202548 0.00112944)
(0.0124557 -0.015137 0.00105906)
(0.0123169 -0.00992219 0.00105871)
(0.0120723 -0.00465072 0.00114853)
(0.0117302 0.000653418 0.00134625)
(0.0112994 0.00597424 0.00166265)
(0.010786 0.0112904 0.00209417)
(0.0101914 0.016562 0.00261581)
(0.00951262 0.0217249 0.00317774)
(0.00874365 0.0267104 0.00371244)
(0.00787647 0.0315069 0.00415329)
(0.00689961 0.0362467 0.00445236)
(0.00579335 0.0412528 0.00457987)
(0.00453046 0.0468701 0.00450478)
(0.00312444 0.0526721 0.00418404)
(0.00183324 0.0561781 0.00359402)
(0.000742611 0.0525711 0.00260927)
(3.85618e-05 0.0291821 0.00103351)
(4.82689e-05 -0.0117065 0.000613542)
(0.000539772 -0.029757 0.00126388)
(0.0012866 -0.042694 0.00158456)
(0.00216734 -0.051194 0.00175639)
(0.00306452 -0.0561136 0.00184581)
(0.00392656 -0.0585832 0.00188124)
(0.00475524 -0.0594857 0.00187891)
(0.00555944 -0.0592982 0.00184537)
(0.00633708 -0.0582475 0.00178239)
(0.00708192 -0.0564446 0.00168999)
(0.00778513 -0.0539444 0.00156769)
(0.00843415 -0.0507778 0.00141531)
(0.00901339 -0.0469754 0.00123372)
(0.00950657 -0.0425879 0.00102541)
(0.00989887 -0.0376973 0.000795432)
(0.0101798 -0.0324086 0.000552063)
(0.0103468 -0.0268411 0.000307581)
(0.0104034 -0.0211127 7.8605e-05)
(0.0103575 -0.0153239 -0.000114644)
(0.0102195 -0.00954831 -0.000248191)
(0.010001 -0.00382885 -0.000295094)
(0.00971264 0.00181873 -0.000227239)
(0.00936218 0.00739927 -1.86587e-05)
(0.00895489 0.0129237 0.000348246)
(0.00849183 0.0183966 0.000873374)
(0.00796807 0.0238097 0.00152898)
(0.00737218 0.0291586 0.00225635)
(0.00668682 0.0344953 0.00297553)
(0.0058898 0.04 0.00360205)
(0.00495518 0.0459826 0.00405181)
(0.00386103 0.0525897 0.00423315)
(0.00264873 0.0588859 0.00406334)
(0.00155514 0.0620084 0.0035295)
(0.000634034 0.0570434 0.00255126)
(4.09807e-05 0.030861 0.000963252)
(4.49823e-05 -0.0135076 0.0004166)
(0.000451859 -0.0338176 0.000884344)
(0.00106278 -0.0479056 0.00115564)
(0.00178334 -0.0567915 0.00132894)
(0.00251796 -0.0616781 0.00143023)
(0.0032283 -0.0639761 0.00147666)
(0.00392024 -0.0646729 0.00148299)
(0.00459984 -0.0642498 0.00145632)
(0.0052619 -0.0629155 0.0013991)
(0.00589886 -0.0607589 0.00131169)
(0.00650141 -0.0578118 0.00119352)
(0.00705707 -0.054088 0.00104354)
(0.00755075 -0.0496173 0.00086083)
(0.00796696 -0.0444713 0.000645511)
(0.00829336 -0.0387682 0.000399731)
(0.00852364 -0.0326627 0.000128735)
(0.00865659 -0.0263229 -0.000157947)
(0.00869581 -0.0199076 -0.000445381)
(0.00864866 -0.0135476 -0.000712877)
(0.00852481 -0.00733357 -0.000934655)
(0.00833466 -0.00131265 -0.00108112)
(0.00809007 0.00450712 -0.00112087)
(0.00780176 0.0101487 -0.00102361)
(0.00747506 0.0156572 -0.000764229)
(0.00711026 0.021088 -0.000329333)
(0.00670108 0.0265005 0.000274098)
(0.00623298 0.031971 0.00101168)
(0.00568351 0.0376322 0.00182073)
(0.00502483 0.0437118 0.00261383)
(0.00422865 0.0504687 0.0032772)
(0.00327824 0.0577963 0.00366965)
(0.00223754 0.0642979 0.00366247)
(0.0013061 0.0669623 0.00322821)
(0.000523963 0.060737 0.00231807)
(3.09292e-05 0.0322669 0.000832745)
(3.3189e-05 -0.0150844 0.000303282)
(0.000357075 -0.0374836 0.000721656)
(0.000854944 -0.0527628 0.0010261)
(0.00145618 -0.0621921 0.00124452)
(0.00207811 -0.067229 0.00137848)
(0.00268684 -0.0695113 0.00144573)
(0.00328784 -0.0701245 0.00146616)
(0.0038845 -0.0695637 0.00145026)
(0.00446956 -0.0680268 0.00140236)
(0.00503469 -0.0655844 0.001324)
(0.00557058 -0.0622502 0.00121522)
(0.00606534 -0.0580269 0.00107481)
(0.0065057 -0.0529497 0.00090066)
(0.00687954 -0.0471119 0.00069045)
(0.00717769 -0.0406653 0.000442382)
(0.00739475 -0.033801 0.000156655)
(0.00752909 -0.0267234 -0.000162311)
(0.00758279 -0.0196242 -0.000503641)
(0.00756116 -0.0126618 -0.00084865)
(0.00747243 -0.00594938 -0.00117058)
(0.00732721 0.000449753 -0.00143601)
(0.00713513 0.00652126 -0.0016079)
(0.00690464 0.012296 -0.00164937)
(0.00664264 0.0178449 -0.00152816)
(0.00634977 0.0232685 -0.0012214)
(0.00601835 0.0286918 -0.000721697)
(0.00563223 0.0342721 -4.36808e-05)
(0.00516728 0.0402228 0.000769529)
(0.00459362 0.0468169 0.0016391)
(0.00388302 0.0542592 0.00243914)
(0.00302178 0.0622104 0.00299531)
(0.00208393 0.0689034 0.00313841)
(0.00123779 0.0712453 0.00282177)
(0.000511826 0.0639918 0.002019)
(4.14652e-05 0.0335872 0.000695704)
(3.29606e-05 -0.0162924 0.000244412)
(0.000324541 -0.0402894 0.000637737)
(0.000775554 -0.0564958 0.000947653)
(0.00132097 -0.0663658 0.00117115)
(0.00188395 -0.0715427 0.00130582)
(0.00243418 -0.0738294 0.00137208)
(0.0029774 -0.0743791 0.00139163)
(0.00351547 -0.073697 0.00137645)
(0.00404047 -0.0719732 0.0013323)
(0.00454458 -0.0692647 0.0012621)
(0.00501973 -0.0655721 0.00116701)
(0.00545592 -0.0608929 0.00104648)
(0.0058426 -0.0552706 0.000898232)
(0.00617049 -0.0488184 0.000718459)
(0.00643291 -0.0417127 0.000502543)
(0.00662591 -0.0341718 0.000246499)
(0.00674759 -0.0264283 -5.0898e-05)
(0.00679863 -0.018703 -0.000385474)
(0.00678241 -0.0111814 -0.000745214)
(0.0067053 -0.00400043 -0.00110858)
(0.00657606 0.00275669 -0.00144459)
(0.00640493 0.00906381 -0.00171523)
(0.00620195 0.0149561 -0.00187985)
(0.00597414 0.0205274 -0.00189974)
(0.00572267 0.0259207 -0.00174228)
(0.00544015 0.0313219 -0.00138556)
(0.00510936 0.0369631 -0.000824688)
(0.00470465 0.0431301 -8.14236e-05)
(0.00419635 0.0501313 0.000780146)
(0.003557 0.058111 0.00163391)
(0.0027738 0.0665193 0.00228803)
(0.0019247 0.0732997 0.00254511)
(0.00115096 0.0753264 0.00234295)
(0.000477347 0.0671179 0.00167136)
(3.80788e-05 0.0349251 0.000552414)
(2.42935e-05 -0.0175007 0.000236767)
(0.000279179 -0.0431891 0.000653604)
(0.000683681 -0.0604271 0.000992062)
(0.00118061 -0.0708137 0.00123535)
(0.00169689 -0.0761758 0.00138158)
(0.00220349 -0.0784922 0.00145559)
(0.00270557 -0.0789946 0.00148202)
(0.00320367 -0.0782045 0.00147433)
(0.0036892 -0.076309 0.00143915)
(0.00415431 -0.0733559 0.00138013)
(0.00459136 -0.069337 0.00129903)
(0.00499151 -0.0642479 0.00119561)
(0.0053461 -0.0581396 0.0010674)
(0.00564801 -0.0511388 0.000909702)
(0.00589219 -0.0434386 0.000716402)
(0.00607538 -0.0352732 0.000481358)
(0.00619609 -0.0268927 0.000200429)
(0.00625435 -0.0185393 -0.000126111)
(0.0062518 -0.0104235 -0.00049079)
(0.00619256 -0.00270912 -0.000876728)
(0.00608362 0.00449363 -0.00125681)
(0.00593389 0.0111387 -0.00159533)
(0.00575284 0.0172568 -0.00185203)
(0.00554778 0.0229565 -0.00198667)
(0.0053207 0.028415 -0.00196222)
(0.00506561 0.0338704 -0.00174751)
(0.00476672 0.0396198 -0.00132235)
(0.00439885 0.0460128 -0.000688948)
(0.00393276 0.0533875 0.000106865)
(0.00334232 0.0618339 0.000948715)
(0.00261495 0.0706268 0.00164179)
(0.00182847 0.0774818 0.00197384)
(0.00110291 0.0792383 0.00187221)
(0.000460818 0.0701503 0.00133716)
(3.85925e-05 0.0362504 0.000427145)
(2.65375e-05 -0.0185163 0.000236485)
(0.000275282 -0.0456202 0.000664266)
(0.000665527 -0.0637268 0.00100608)
(0.00113908 -0.0745603 0.00124419)
(0.00162575 -0.0800972 0.00138302)
(0.00209971 -0.0824538 0.00145113)
(0.00256709 -0.0829232 0.00147396)
(0.00302834 -0.0820403 0.0014655)
(0.00347518 -0.0799903 0.00143316)
(0.00390042 -0.0768145 0.00138158)
(0.00429722 -0.0725002 0.00131357)
(0.004658 -0.0670454 0.00122971)
(0.00497574 -0.0605107 0.0011278)
(0.00524517 -0.053036 0.00100266)
(0.00546283 -0.0448275 0.000846726)
(0.00562642 -0.0361314 0.000651429)
(0.00573412 -0.0272088 0.000409217)
(0.00578617 -0.0183127 0.000116065)
(0.00578478 -0.0096731 -0.000225829)
(0.0057322 -0.00147466 -0.000605101)
(0.00563372 0.00614794 -0.000999217)
(0.00549696 0.0131289 -0.00137541)
(0.00533035 0.0194927 -0.00169451)
(0.00514069 0.0253576 -0.00191576)
(0.00493026 0.0309283 -0.00199983)
(0.00469425 0.0364848 -0.00191014)
(0.00441882 0.0423767 -0.00161629)
(0.00408085 0.049004 -0.00110535)
(0.00365142 0.0567255 -0.00040573)
(0.00310564 0.0655756 0.000381362)
(0.00243229 0.0746764 0.0010687)
(0.00170689 0.0815615 0.00144162)
(0.00103114 0.083041 0.00142273)
(0.000427731 0.07309 0.00101983)
(3.38239e-05 0.0375361 0.000312839)
(2.21289e-05 -0.0196032 0.000260505)
(0.00025693 -0.0482429 0.00071977)
(0.000627163 -0.0672801 0.00107519)
(0.00107702 -0.0785667 0.00131564)
(0.00153792 -0.084259 0.00145284)
(0.00198558 -0.0866356 0.00151974)
(0.00242633 -0.0870559 0.00154312)
(0.00286008 -0.0860685 0.0015374)
(0.00327845 -0.0838576 0.00151039)
(0.00367449 -0.0804602 0.0014672)
(0.00404188 -0.0758612 0.00141108)
(0.00437398 -0.0700624 0.00134294)
(0.0046651 -0.0631328 0.00126061)
(0.00491139 -0.0552227 0.00115871)
(0.00511061 -0.0465468 0.00102919)
(0.00526142 -0.0373585 0.000862602)
(0.00536286 -0.0279258 0.000649989)
(0.00541419 -0.0185118 0.000385072)
(0.00541602 -0.00935667 6.68044e-05)
(0.00537068 -0.000665646 -0.000297787)
(0.00528205 0.00740258 -0.000691025)
(0.00515613 0.0147614 -0.00108447)
(0.00500009 0.0214258 -0.00144208)
(0.00482004 0.0275203 -0.00172471)
(0.00461836 0.0332711 -0.00189306)
(0.00439129 0.0389935 -0.0019084)
(0.00412718 0.0450802 -0.00173435)
(0.00380613 0.0519704 -0.00134712)
(0.0034028 0.0600336 -0.000759838)
(0.00289295 0.0692532 -5.64209e-05)
(0.00226481 0.0786155 0.00059144)
(0.00159253 0.0855042 0.000976433)
(0.000962124 0.0867013 0.00102103)
(0.000395971 0.0759013 0.000737972)
(3.02952e-05 0.0387512 0.000215568)
(2.37693e-05 -0.0205924 0.000274902)
(0.000255469 -0.0505976 0.000746107)
(0.000614176 -0.070447 0.00109792)
(0.00104385 -0.0821275 0.00132764)
(0.00147912 -0.0879607 0.00145464)
(0.0018989 -0.090361 0.00151471)
(0.00231034 -0.0907407 0.00153452)
(0.0027134 -0.0896596 0.00152845)
(0.00310017 -0.087301 0.00150469)
(0.00346421 -0.0836995 0.00146903)
(0.00379979 -0.0788408 0.0014255)
(0.00410122 -0.0727334 0.00137568)
(0.00436402 -0.0654571 0.00131768)
(0.00458556 -0.0571725 0.00124584)
(0.00476463 -0.0481011 0.00115114)
(0.00490069 -0.0385 0.0010225)
(0.00499328 -0.0286394 0.000848717)
(0.00504194 -0.0187854 0.000620874)
(0.00504644 -0.00918585 0.000334906)
(0.00500763 -5.81976e-05 -5.5569e-06)
(0.00492862 0.00841958 -0.000386479)
(0.00481434 0.0161428 -0.000782762)
(0.00467032 0.0231174 -0.00116101)
(0.00450146 0.029471 -0.00148406)
(0.00430968 0.035446 -0.00171384)
(0.0040918 0.0413845 -0.00181167)
(0.00383794 0.0477121 -0.00173885)
(0.00353123 0.0548953 -0.00146512)
(0.00314995 0.0633047 -0.000991601)
(0.0026719 0.0728692 -0.000384905)
(0.00208668 0.0824509 0.000203008)
(0.00146673 0.0893086 0.000579256)
(0.000883643 0.0902051 0.000670011)
(0.000359089 0.0785609 0.000491695)
(2.57335e-05 0.0398818 0.000132384)
(2.12219e-05 -0.0216263 0.000299855)
(0.000244174 -0.0530535 0.000793158)
(0.000588215 -0.0737297 0.00114719)
(0.000998924 -0.0857859 0.00137003)
(0.00141262 -0.0917327 0.0014892)
(0.00180995 -0.0941353 0.00154397)
(0.0021983 -0.0944599 0.00156136)
(0.00257726 -0.0932754 0.00155572)
(0.00293905 -0.0907644 0.00153542)
(0.00327759 -0.0869601 0.00150662)
(0.00358771 -0.081851 0.00147379)
(0.0038646 -0.0754527 0.00143888)
(0.00410489 -0.0678552 0.00140028)
(0.004307 -0.0592275 0.00135236)
(0.00447061 -0.0497959 0.00128587)
(0.00459576 -0.0398184 0.001189)
(0.0046823 -0.0295647 0.00104919)
(0.00472977 -0.019302 0.000855531)
(0.00473762 -0.00928246 0.000601452)
(0.00470578 0.000265347 0.000287568)
(0.00463553 0.00914669 -7.55353e-05)
(0.00453048 0.0172404 -0.000466144)
(0.0043954 0.0245434 -0.000853844)
(0.00423414 0.0311855 -0.00120371)
(0.00404818 0.0374225 -0.0014793)
(0.0038348 0.0436192 -0.00164292)
(0.00358563 0.0502273 -0.00165555)
(0.00328663 0.0577319 -0.00148348)
(0.00292007 0.066495 -0.00111905)
(0.00246774 0.0763857 -0.000613155)
(0.00192069 0.0861525 -9.67771e-05)
(0.00134819 0.09295 0.000256076)
(0.000809661 0.0935307 0.000377801)
(0.000325303 0.0810538 0.000287346)
(2.23571e-05 0.0409231 6.58484e-05)
(2.17278e-05 -0.0226037 0.000315454)
(0.000239537 -0.0553422 0.000815669)
(0.000570427 -0.0767619 0.00116048)
(0.000960917 -0.0891487 0.00136908)
(0.00135064 -0.0951949 0.00147657)
(0.00172292 -0.0975995 0.00152402)
(0.00208558 -0.0978728 0.00153782)
(0.00243816 -0.0965911 0.00153198)
(0.00277325 -0.093937 0.00151504)
(0.00308521 -0.0899438 0.00149364)
(0.00336942 -0.0846049 0.00147284)
(0.00362186 -0.0779457 0.00145511)
(0.00384008 -0.0700673 0.00143917)
(0.00402344 -0.0611469 0.00141938)
(0.00417237 -0.051414 0.00138597)
(0.0042875 -0.0411249 0.00132606)
(0.00436903 -0.030545 0.00122532)
(0.00441649 -0.0199376 0.00107049)
(0.00442899 -0.00955475 0.000852342)
(0.00440564 0.000368694 0.000568808)
(0.00434662 0.00962475 0.000227861)
(0.00425354 0.0180778 -0.000151401)
(0.00412967 0.0257155 -0.000540866)
(0.0039782 0.0326671 -0.000907615)
(0.00380004 0.0391976 -0.00121689)
(0.00359263 0.0456893 -0.00143241)
(0.00334878 0.052613 -0.00151597)
(0.00305697 0.0604642 -0.00143256)
(0.00270322 0.0695878 -0.00116834)
(0.00227332 0.0797903 -0.000760611)
(0.00176078 0.0897119 -0.000319602)
(0.00123247 0.0964225 1.36338e-06)
(0.00073717 0.0966746 0.000142059)
(0.000292637 0.0833812 0.000123046)
(1.91372e-05 0.0418798 1.42619e-05)
(1.9895e-05 -0.0235897 0.000334657)
(0.000229504 -0.0576405 0.000845027)
(0.000546485 -0.0797895 0.00118261)
(0.000919038 -0.0924829 0.00137827)
(0.0012888 -0.0986072 0.00147463)
(0.00164073 -0.101 0.0015149)
(0.00198274 -0.101214 0.00152498)
(0.00231403 -0.0998317 0.00151852)
(0.0026274 -0.0970348 0.00150412)
(0.0029176 -0.0928583 0.00148874)
(0.00318049 -0.0873014 0.0014778)
(0.00341278 -0.0803994 0.00147424)
(0.00361285 -0.072264 0.00147715)
(0.00378082 -0.06308 0.00148124)
(0.00391777 -0.0530788 0.00147693)
(0.00402484 -0.0425139 0.00145099)
(0.00410253 -0.0316447 0.00138803)
(0.00415039 -0.0207284 0.00127276)
(0.00416716 -0.0100141 0.00109301)
(0.00415119 0.000259949 0.000843378)
(0.00410153 0.00987501 0.000528565)
(0.00401857 0.0186817 0.000164972)
(0.00390406 0.0266587 -0.000221381)
(0.00376006 0.033934 -0.000598957)
(0.00358728 0.0407803 -0.000934139)
(0.00338342 0.047594 -0.00119193)
(0.00314234 0.0548603 -0.00133533)
(0.00285471 0.0630779 -0.0013292)
(0.00250994 0.0725674 -0.00115545)
(0.00209797 0.0830679 -0.000839892)
(0.00161603 0.0931161 -0.000473502)
(0.00112796 0.099717 -0.000189085)
(0.000672206 0.0996322 -3.91061e-05)
(0.000264166 0.0855454 -2.32893e-06)
(1.67784e-05 0.0427565 -2.28391e-05)
(1.96363e-05 -0.024537 0.000347174)
(0.000222765 -0.0598258 0.000857255)
(0.000526566 -0.0826471 0.00118022)
(0.00088059 -0.095615 0.00135874)
(0.0012294 -0.101806 0.00144223)
(0.00156005 -0.104185 0.00147466)
(0.00188061 -0.104342 0.00148081)
(0.00219013 -0.102863 0.00147377)
(0.00248174 -0.0999301 0.00146221)
(0.00275053 -0.0955818 0.00145337)
(0.00299283 -0.0898245 0.00145311)
(0.00320594 -0.0827046 0.00146477)
(0.00338891 -0.0743452 0.00148783)
(0.00354249 -0.0649379 0.00151725)
(0.00366838 -0.0547157 0.00154348)
(0.00376823 -0.0439271 0.00155297)
(0.00384294 -0.0328228 0.00152941)
(0.00389222 -0.02165 0.00145571)
(0.00391454 -0.0106504 0.00131705)
(0.00390752 -6.09591e-05 0.00110463)
(0.00386897 0.0098922 0.000819661)
(0.00379783 0.0190468 0.000475661)
(0.0036944 0.0273705 9.67497e-05)
(0.00355964 0.0349871 -0.000286626)
(0.00339371 0.042173 -0.000641599)
(0.00319449 0.0493349 -0.00093412)
(0.00295685 0.0569676 -0.00112837)
(0.00267345 0.0655672 -0.00118952)
(0.00233677 0.0754248 -0.00109643)
(0.00194056 0.0862101 -0.000865315)
(0.00148574 0.0963617 -0.000569846)
(0.00103342 0.102837 -0.000323507)
(0.000613507 0.102413 -0.0001716)
(0.000238884 0.0875607 -9.31369e-05)
(1.48014e-05 0.0435634 -4.7524e-05)
(1.81543e-05 -0.025471 0.000359335)
(0.000213478 -0.0619694 0.000867839)
(0.00050457 -0.0854357 0.00117566)
(0.000842497 -0.0986539 0.00133698)
(0.00117378 -0.104896 0.00140749)
(0.00148688 -0.107253 0.00143175)
(0.00178984 -0.107348 0.00143343)
(0.00208145 -0.105772 0.001425)
(0.00235505 -0.102707 0.00141508)
(0.0026061 -0.0981936 0.00141112)
(0.00283128 -0.0922473 0.0014193)
(0.00302842 -0.0849256 0.00144339)
(0.00319708 -0.0763624 0.00148335)
(0.00333854 -0.0667566 0.00153472)
(0.00345497 -0.0563423 0.00158845)
(0.00354847 -0.0453634 0.00163118)
(0.00362033 -0.034061 0.00164616)
(0.00367044 -0.0226703 0.00161485)
(0.0036972 -0.0114228 0.0015198)
(0.0036977 -0.000550074 0.00134857)
(0.0036687 0.00971832 0.00109821)
(0.00360777 0.0192094 0.000778703)
(0.00351387 0.0278797 0.000411915)
(0.00338695 0.0358467 2.73095e-05)
(0.00322669 0.0433884 -0.000342592)
(0.00303115 0.0509178 -0.000664174)
(0.00279603 0.0589352 -0.000902376)
(0.00251575 0.0679289 -0.00102263)
(0.00218549 0.0781551 -0.00100142)
(0.00180236 0.0892124 -0.000846859)
(0.00137084 0.0994465 -0.000617382)
(0.000950054 0.105782 -0.000408975)
(0.000562288 0.105021 -0.000260898)
(0.000217301 0.0894343 -0.000153216)
(1.33316e-05 0.0443058 -6.11356e-05)
(1.75375e-05 -0.0263761 0.000366608)
(0.000206343 -0.0640321 0.000866545)
(0.000485824 -0.0881044 0.00115486)
(0.000808246 -0.10155 0.00129694)
(0.00112243 -0.107833 0.00135384)
(0.00141842 -0.110166 0.00136988)
(0.00170426 -0.110201 0.00136715)
(0.00197858 -0.10853 0.00135747)
(0.00223502 -0.105338 0.00134935)
(0.00246929 -0.100671 0.00135038)
(0.00267842 -0.09455 0.00136704)
(0.00286062 -0.0870463 0.00140342)
(0.00301592 -0.0783047 0.00145993)
(0.00314604 -0.0685311 0.00153257)
(0.0032536 -0.0579605 0.00161277)
(0.00334119 -0.0468312 0.00168753)
(0.00341055 -0.035373 0.00173996)
(0.00346187 -0.0238067 0.00175062)
(0.00349356 -0.0123501 0.00169996)
(0.00350226 -0.00122533 0.00157214)
(0.0034837 0.00933875 0.00135996)
(0.00343406 0.01916 0.00106931)
(0.00335081 0.0281824 0.000719276)
(0.00323274 0.0365142 0.000338041)
(0.00307902 0.0444306 -4.21176e-05)
(0.00288788 0.0523471 -0.000387631)
(0.00265596 0.0607653 -0.000663773)
(0.0023792 0.0701621 -0.000836033)
(0.00205504 0.0807555 -0.000878763)
(0.00168357 0.0920731 -0.000793086)
(0.00127234 0.102374 -0.000624178)
(0.000878561 0.108563 -0.000452596)
(0.000518451 0.107471 -0.000312775)
(0.000199163 0.0911837 -0.000186768)
(1.22711e-05 0.0449936 -6.54263e-05)
(1.63925e-05 -0.0272586 0.00037149)
(0.000198503 -0.066033 0.000859316)
(0.000467485 -0.0906799 0.00112643)
(0.000776706 -0.10433 0.00124867)
(0.00107659 -0.110641 0.00129166)
(0.00135834 -0.112943 0.00129905)
(0.00162996 -0.112915 0.00129133)
(0.00188989 -0.111151 0.00127952)
(0.00213198 -0.107836 0.001272)
(0.00235222 -0.103019 0.00127643)
(0.00254784 -0.0967336 0.00129951)
(0.00271738 -0.0890602 0.00134572)
(0.00286118 -0.0801557 0.00141601)
(0.00298131 -0.0702338 0.00150706)
(0.00308078 -0.0595312 0.00161107)
(0.00316261 -0.048281 0.00171568)
(0.00322895 -0.0367017 0.00180426)
(0.0032804 -0.0249988 0.00185681)
(0.00331551 -0.0133729 0.00185196)
(0.00333075 -0.00203278 0.00177057)
(0.00332107 0.00879851 0.00160091)
(0.00328142 0.0189332 0.00134419)
(0.00320784 0.0283031 0.00101602)
(0.00309799 0.0370053 0.000642915)
(0.00295039 0.0453088 0.00025693)
(0.00276328 0.0536274 -0.00010804)
(0.00253419 0.0624593 -0.00041704)
(0.00226071 0.0722658 -0.000635214)
(0.00194221 0.0832246 -0.000734918)
(0.00158105 0.0947917 -0.000711104)
(0.00118759 0.105145 -0.000597432)
(0.00081713 0.111185 -0.000461129)
(0.000480883 0.109771 -0.000333072)
(0.000183793 0.0928163 -0.000198111)
(1.14588e-05 0.0456313 -6.20885e-05)
(1.57443e-05 -0.0281192 0.000372648)
(0.000192239 -0.0679749 0.000843799)
(0.00045196 -0.0931686 0.00108747)
(0.000749146 -0.107005 0.0011892)
(0.00103585 -0.113336 0.00121833)
(0.00130443 -0.115604 0.00121725)
(0.00156288 -0.115513 0.00120465)
(0.00180956 -0.113658 0.00119077)
(0.00203854 -0.110225 0.00118374)
(0.00224597 -0.105268 0.00119126)
(0.00242925 -0.0988276 0.00122018)
(0.00258715 -0.090999 0.00127527)
(0.00272031 -0.0819499 0.00135789)
(0.00283113 -0.0719017 0.00146533)
(0.00292299 -0.0610926 0.00159052)
(0.00299933 -0.0497505 0.00172197)
(0.00306279 -0.0380823 0.00184371)
(0.00311438 -0.0262767 0.00193578)
(0.0031529 -0.0145154 0.00197569)
(0.00317471 -0.00298972 0.00194156)
(0.00317407 0.00808704 0.00181726)
(0.00314476 0.0185246 0.00159887)
(0.00308136 0.0282426 0.00129771)
(0.0029803 0.0373248 0.000937931)
(0.0028394 0.0460299 0.000550992)
(0.00265684 0.054766 0.000171234)
(0.00243075 0.0640241 -0.00016575)
(0.00216021 0.074246 -0.000424278)
(0.00184679 0.0855667 -0.000574601)
(0.00149481 0.0973737 -0.00060626)
(0.00111665 0.10777 -0.000542824)
(0.000765972 0.113661 -0.000440098)
(0.000449825 0.111936 -0.000326642)
(0.000171315 0.0943481 -0.000190829)
(1.09572e-05 0.0462268 -5.25335e-05)
(1.49882e-05 -0.0289556 0.000370614)
(0.000186259 -0.0698513 0.00082082)
(0.000437947 -0.0955604 0.001039)
(0.000725048 -0.109561 0.00111954)
(0.00100082 -0.1159 0.00113457)
(0.00125856 -0.118127 0.00112473)
(0.00150622 -0.117971 0.00110672)
(0.00174195 -0.116027 0.00108994)
(0.00196001 -0.112479 0.00108229)
(0.00215668 -0.107385 0.00109148)
(0.00232946 -0.100797 0.00112452)
(0.00247727 -0.0928214 0.00118649)
(0.00260099 -0.0836389 0.00127923)
(0.00270324 -0.0734791 0.00140068)
(0.00278772 -0.062583 0.00154462)
(0.00285824 -0.0511741 0.0017005)
(0.00291791 -0.0394481 0.00185324)
(0.00296826 -0.0275762 0.0019833)
(0.0030085 -0.0157191 0.00206756)
(0.00303515 -0.00404693 0.00208182)
(0.00304206 0.00724256 0.00200576)
(0.00302198 0.017961 0.00183003)
(0.00296815 0.0280176 0.00156103)
(0.00287569 0.037481 0.00121977)
(0.00274162 0.0465967 0.000836754)
(0.00256396 0.0557624 0.000446768)
(0.00234129 0.0654575 8.64017e-05)
(0.00207373 0.0761008 -0.000207404)
(0.00176466 0.0877824 -0.000402573)
(0.00142073 0.0998212 -0.000483707)
(0.00105604 0.110252 -0.000465801)
(0.000722267 0.115996 -0.000394919)
(0.000423175 0.113972 -0.00029833)
(0.000160509 0.095785 -0.000168557)
(1.04853e-05 0.046783 -3.82178e-05)
(1.44542e-05 -0.0297753 0.00036573)
(0.00018106 -0.0716825 0.000792061)
(0.000425498 -0.0978852 0.000983808)
(0.000703538 -0.112037 0.00104333)
(0.000969668 -0.118375 0.00104477)
(0.00121811 -0.12056 0.00102654)
(0.00145665 -0.120338 0.00100323)
(0.00168304 -0.118305 0.000983395)
(0.00189159 -0.114645 0.000974737)
(0.00207876 -0.10942 0.00098495)
(0.00224217 -0.10269 0.00102115)
(0.00238092 -0.0945773 0.00108863)
(0.00249608 -0.0852732 0.00118956)
(0.00259051 -0.0750161 0.00132243)
(0.00266813 -0.0640494 0.00148183)
(0.00273312 -0.0525933 0.00165827)
(0.002789 -0.0408327 0.00183788)
(0.00283781 -0.0289217 0.00200208)
(0.00287926 -0.0169988 0.00212787)
(0.00291011 -0.00521046 0.00218957)
(0.00292398 0.00626578 0.00216317)
(0.00291282 0.0172479 0.00203374)
(0.00286851 0.0276362 0.00180199)
(0.00278487 0.0374838 0.00148485)
(0.00265799 0.0470194 0.00111109)
(0.0024856 0.0566262 0.000715747)
(0.00226671 0.0667678 0.00033659)
(0.00200233 0.0778371 1.22133e-05)
(0.00169705 0.0898785 -0.000222739)
(0.00135935 0.102143 -0.00034815)
(0.00100582 0.112604 -0.00037146)
(0.000686381 0.118205 -0.000330709)
(0.000401485 0.115895 -0.000252787)
(0.000151889 0.0971389 -0.000134738)
(1.0331e-05 0.0473053 -2.04845e-05)
(1.39984e-05 -0.0305708 0.000357529)
(0.000176518 -0.0734487 0.000755769)
(0.000414864 -0.100115 0.00091908)
(0.000685388 -0.114399 0.000956915)
(0.000943648 -0.12073 0.000944575)
(0.00118463 -0.122869 0.000917736)
(0.00141592 -0.12258 0.000888739)
(0.00163478 -0.120455 0.000865243)
(0.00183548 -0.116683 0.000854713)
(0.00201461 -0.111328 0.000864884)
(0.00216999 -0.10446 0.000902978)
(0.00230081 -0.0962149 0.000974496)
(0.00240826 -0.0867967 0.00108197)
(0.00249533 -0.0764528 0.0012244)
(0.00256616 -0.0654302 0.00139713)
(0.00262519 -0.0539462 0.00159168)
(0.00267637 -0.0421761 0.00179537)
(0.00272227 -0.0302573 0.00199084)
(0.0027632 -0.018305 0.00215571)
(0.00279642 -0.00643905 0.0022636)
(0.00281559 0.00518813 0.00228751)
(0.00281209 0.0164063 0.00220726)
(0.00277665 0.0271103 0.00201738)
(0.00270172 0.0373376 0.00172984)
(0.00258231 0.0472979 0.00137086)
(0.00241568 0.0573552 0.000975247)
(0.0022011 0.0679526 0.000582015)
(0.00194041 0.0794536 0.000231712)
(0.00163921 0.0918552 -3.82294e-05)
(0.00130712 0.104343 -0.000203178)