/*--------------------------------*- C++ -*----------------------------------*\
| =========                 |                                                 |
| \\      /  F ield         | OpenFOAM: The Open Source CFD Toolbox           |
|  \\    /   O peration     | Version:  v1912                                 |
|   \\  /    A nd           | Website:  www.openfoam.com                      |
|    \\/     M anipulation  |                                                 |
\*---------------------------------------------------------------------------*/
FoamFile
{
    version     2.0;
    format      ascii;
    class       volVectorField;
    location    "378/oil";
    object      U;
}
// * * * * * * * * * * * * * * * * * * * * * * * * * * * * * * * * * * * * * //

dimensions      [0 1 -1 0 0 0 0];


internalField   nonuniform List<vector> 
35580
(
(-1.2256e-09 2.44294e-09 -1.25013e-09)
(1.25399e-09 2.21966e-09 -3.00433e-09)
(1.15298e-08 2.18893e-09 -4.83268e-09)
(2.77136e-08 2.73346e-09 -6.68382e-09)
(4.73897e-08 3.60304e-09 -8.17459e-09)
(6.78032e-08 4.62714e-09 -9.17817e-09)
(8.64061e-08 5.70814e-09 -9.68484e-09)
(1.00986e-07 6.8001e-09 -9.75154e-09)
(1.09734e-07 7.87482e-09 -9.4645e-09)
(1.11449e-07 8.90399e-09 -8.90447e-09)
(1.05471e-07 9.83362e-09 -8.14534e-09)
(9.18507e-08 1.06204e-08 -7.38752e-09)
(7.14152e-08 1.12368e-08 -6.68356e-09)
(4.54456e-08 1.17053e-08 -6.18164e-09)
(1.59423e-08 1.19631e-08 -5.9191e-09)
(-1.48502e-08 1.19941e-08 -5.92438e-09)
(-4.44426e-08 1.17245e-08 -6.1814e-09)
(-7.04669e-08 1.1248e-08 -6.66843e-09)
(-9.10296e-08 1.05927e-08 -7.34181e-09)
(-1.04777e-07 9.82102e-09 -8.11007e-09)
(-1.10971e-07 8.90683e-09 -8.86119e-09)
(-1.09427e-07 7.86522e-09 -9.44636e-09)
(-1.00783e-07 6.78983e-09 -9.73265e-09)
(-8.62999e-08 5.70079e-09 -9.67521e-09)
(-6.77678e-08 4.61949e-09 -9.17058e-09)
(-4.74112e-08 3.59854e-09 -8.16754e-09)
(-2.77697e-08 2.72934e-09 -6.67298e-09)
(-1.15938e-08 2.17839e-09 -4.81151e-09)
(-1.30812e-09 2.19698e-09 -2.97813e-09)
(1.20137e-09 2.39616e-09 -1.23166e-09)
(6.31126e-10 -2.29104e-09 6.16299e-10)
(1.26564e-08 -1.40057e-08 5.32032e-10)
(3.6871e-08 -2.33556e-08 -3.15631e-10)
(7.06078e-08 -2.8429e-08 -1.4239e-09)
(1.09863e-07 -3.00376e-08 -2.24159e-09)
(1.49926e-07 -2.90474e-08 -2.52356e-09)
(1.8607e-07 -2.61737e-08 -2.21282e-09)
(2.14036e-07 -2.19527e-08 -1.3517e-09)
(2.30296e-07 -1.6839e-08 -4.25818e-11)
(2.32367e-07 -1.12593e-08 1.56382e-09)
(2.18886e-07 -5.65993e-09 3.44396e-09)
(1.89881e-07 -5.24773e-10 5.20709e-09)
(1.47152e-07 3.71216e-09 6.75641e-09)
(9.35076e-08 6.80667e-09 7.86882e-09)
(3.27785e-08 8.44845e-09 8.45601e-09)
(-3.05742e-08 8.48327e-09 8.47509e-09)
(-9.15057e-08 6.77412e-09 7.89607e-09)
(-1.45246e-07 3.61836e-09 6.81787e-09)
(-1.8799e-07 -7.10997e-10 5.30787e-09)
(-2.17086e-07 -5.78834e-09 3.54631e-09)
(-2.30935e-07 -1.13797e-08 1.69767e-09)
(-2.29176e-07 -1.69502e-08 5.0606e-11)
(-2.13171e-07 -2.20281e-08 -1.26376e-09)
(-1.85487e-07 -2.62209e-08 -2.14337e-09)
(-1.49588e-07 -2.90941e-08 -2.46544e-09)
(-1.09724e-07 -3.01012e-08 -2.18938e-09)
(-7.06097e-08 -2.85271e-08 -1.38152e-09)
(-3.69251e-08 -2.3491e-08 -2.79249e-10)
(-1.26891e-08 -1.4146e-08 5.52184e-10)
(-6.37214e-10 -2.41013e-09 6.06169e-10)
(2.47261e-09 -2.25834e-08 2.46955e-09)
(2.48372e-08 -5.97931e-08 4.37431e-09)
(6.07981e-08 -8.73542e-08 4.77629e-09)
(1.07043e-07 -1.04883e-07 4.71651e-09)
(1.58706e-07 -1.14214e-07 4.81063e-09)
(2.1039e-07 -1.17117e-07 5.34251e-09)
(2.56419e-07 -1.15117e-07 6.41343e-09)
(2.91523e-07 -1.09459e-07 8.01416e-09)
(3.11269e-07 -1.0122e-07 1.00447e-08)
(3.12507e-07 -9.14028e-08 1.23262e-08)
(2.93421e-07 -8.10115e-08 1.48437e-08)
(2.53956e-07 -7.11284e-08 1.71755e-08)
(1.96473e-07 -6.28371e-08 1.91474e-08)
(1.24707e-07 -5.68318e-08 2.05733e-08)
(4.36843e-08 -5.36556e-08 2.13304e-08)
(-4.08451e-08 -5.36687e-08 2.13805e-08)
(-1.22194e-07 -5.69898e-08 2.06118e-08)
(-1.94081e-07 -6.31785e-08 1.92051e-08)
(-2.51513e-07 -7.15945e-08 1.72333e-08)
(-2.9118e-07 -8.14105e-08 1.49432e-08)
(-3.1074e-07 -9.17635e-08 1.24514e-08)
(-3.09876e-07 -1.01489e-07 1.01268e-08)
(-2.90457e-07 -1.09643e-07 8.09264e-09)
(-2.55689e-07 -1.15245e-07 6.48516e-09)
(-2.09963e-07 -1.1723e-07 5.40709e-09)
(-1.58524e-07 -1.14355e-07 4.87419e-09)
(-1.07024e-07 -1.05083e-07 4.77048e-09)
(-6.08474e-08 -8.76174e-08 4.81326e-09)
(-2.48876e-08 -6.00435e-08 4.37936e-09)
(-2.49362e-09 -2.274e-08 2.44507e-09)
(3.95251e-09 -5.59894e-08 3.94224e-09)
(3.50501e-08 -1.30511e-07 7.30656e-09)
(8.08392e-08 -1.82989e-07 8.56439e-09)
(1.36931e-07 -2.17835e-07 9.20728e-09)
(1.9771e-07 -2.38737e-07 9.95681e-09)
(2.57386e-07 -2.48567e-07 1.10913e-08)
(3.09834e-07 -2.49747e-07 1.27213e-08)
(3.49297e-07 -2.44296e-07 1.48482e-08)
(3.70847e-07 -2.34027e-07 1.738e-08)
(3.70908e-07 -2.20627e-07 2.01322e-08)
(3.47345e-07 -2.05803e-07 2.30415e-08)
(3.00113e-07 -1.91186e-07 2.57412e-08)
(2.31951e-07 -1.78624e-07 2.80421e-08)
(1.47059e-07 -1.69389e-07 2.96665e-08)
(5.14683e-08 -1.64524e-07 3.05166e-08)
(-4.82599e-08 -1.64596e-07 3.05804e-08)
(-1.44276e-07 -1.69594e-07 2.96839e-08)
(-2.29229e-07 -1.78966e-07 2.80543e-08)
(-2.97344e-07 -1.91559e-07 2.57682e-08)
(-3.448e-07 -2.06119e-07 2.3108e-08)
(-3.68814e-07 -2.20912e-07 2.01922e-08)
(-3.69154e-07 -2.34233e-07 1.74136e-08)
(-3.47988e-07 -2.44439e-07 1.48856e-08)
(-3.08898e-07 -2.49844e-07 1.27601e-08)
(-2.56794e-07 -2.48667e-07 1.1135e-08)
(-1.97423e-07 -2.38893e-07 1.00085e-08)
(-1.36864e-07 -2.18082e-07 9.24645e-09)
(-8.08706e-08 -1.83298e-07 8.57486e-09)
(-3.51146e-08 -1.30774e-07 7.28234e-09)
(-3.98818e-09 -5.61925e-08 3.90238e-09)
(5.00069e-09 -9.9708e-08 4.9887e-09)
(4.27604e-08 -2.20875e-07 9.33397e-09)
(9.6289e-08 -3.03344e-07 1.11331e-08)
(1.60088e-07 -3.58861e-07 1.22153e-08)
(2.27811e-07 -3.93972e-07 1.33719e-08)
(2.93378e-07 -4.12974e-07 1.49203e-08)
(3.50395e-07 -4.19275e-07 1.69545e-08)
(3.92857e-07 -4.15696e-07 1.94897e-08)
(4.15552e-07 -4.0478e-07 2.24314e-08)
(4.14647e-07 -3.88922e-07 2.55988e-08)
(3.87808e-07 -3.70523e-07 2.8843e-08)
(3.34881e-07 -3.51774e-07 3.18825e-08)
(2.58677e-07 -3.35241e-07 3.44995e-08)
(1.63889e-07 -3.22825e-07 3.63075e-08)
(5.73333e-08 -3.16306e-07 3.72529e-08)
(-5.38378e-08 -3.16412e-07 3.73303e-08)
(-1.60882e-07 -3.22992e-07 3.63308e-08)
(-2.55609e-07 -3.35364e-07 3.45033e-08)
(-3.31812e-07 -3.51873e-07 3.19392e-08)
(-3.85024e-07 -3.70584e-07 2.89098e-08)
(-4.12337e-07 -3.88979e-07 2.56477e-08)
(-4.13691e-07 -4.04822e-07 2.2468e-08)
(-3.91413e-07 -4.15742e-07 1.95305e-08)
(-3.49343e-07 -4.19326e-07 1.69953e-08)
(-2.92677e-07 -4.13061e-07 1.49566e-08)
(-2.27428e-07 -3.94123e-07 1.34079e-08)
(-1.59962e-07 -3.59109e-07 1.22274e-08)
(-9.63054e-08 -3.03626e-07 1.11046e-08)
(-4.28465e-08 -2.21029e-07 9.25912e-09)
(-5.05771e-09 -9.99456e-08 4.92536e-09)
(5.67069e-09 -1.50759e-07 5.68474e-09)
(4.80416e-08 -3.25381e-07 1.06369e-08)
(1.07175e-07 -4.41627e-07 1.27412e-08)
(1.76612e-07 -5.20229e-07 1.40795e-08)
(2.49385e-07 -5.71403e-07 1.54875e-08)
(3.19213e-07 -6.01267e-07 1.73133e-08)
(3.79541e-07 -6.14332e-07 1.96553e-08)
(4.24216e-07 -6.14231e-07 2.25407e-08)
(4.47849e-07 -6.04213e-07 2.58643e-08)
(4.46399e-07 -5.87328e-07 2.94509e-08)
(4.17455e-07 -5.66638e-07 3.30708e-08)
(3.60652e-07 -5.44936e-07 3.65142e-08)
(2.78546e-07 -5.25235e-07 3.94746e-08)
(1.76427e-07 -5.1009e-07 4.15114e-08)
(6.16791e-08 -5.02108e-07 4.25601e-08)
(-5.79882e-08 -5.02199e-07 4.26329e-08)
(-1.73278e-07 -5.10232e-07 4.15192e-08)
(-2.75237e-07 -5.25144e-07 3.94737e-08)
(-3.57359e-07 -5.44883e-07 3.66046e-08)
(-4.14503e-07 -5.6657e-07 3.3157e-08)
(-4.43956e-07 -5.87263e-07 2.95185e-08)
(-4.45889e-07 -6.04166e-07 2.59225e-08)
(-4.22696e-07 -6.14226e-07 2.25973e-08)
(-3.78429e-07 -6.14363e-07 1.97171e-08)
(-3.18452e-07 -6.01349e-07 1.73602e-08)
(-2.48935e-07 -5.71535e-07 1.55245e-08)
(-1.76429e-07 -5.20424e-07 1.40762e-08)
(-1.07175e-07 -4.41812e-07 1.26785e-08)
(-4.81615e-08 -3.2538e-07 1.0516e-08)
(-5.7548e-09 -1.51021e-07 5.59964e-09)
(6.05365e-09 -2.06468e-07 6.07448e-09)
(5.11633e-08 -4.39148e-07 1.13553e-08)
(1.13723e-07 -5.91744e-07 1.36418e-08)
(1.86622e-07 -6.95077e-07 1.51221e-08)
(2.62508e-07 -7.63693e-07 1.66873e-08)
(3.34973e-07 -8.05824e-07 1.87247e-08)
(3.97411e-07 -8.27217e-07 2.13254e-08)
(4.43604e-07 -8.32328e-07 2.45326e-08)
(4.68051e-07 -8.25059e-07 2.82275e-08)
(4.66553e-07 -8.09024e-07 3.22354e-08)
(4.36607e-07 -7.87829e-07 3.62716e-08)
(3.77615e-07 -7.64853e-07 4.01284e-08)
(2.91794e-07 -7.43362e-07 4.34723e-08)
(1.8482e-07 -7.26246e-07 4.57588e-08)
(6.45683e-08 -7.171e-07 4.68883e-08)
(-6.07395e-08 -7.17142e-07 4.69632e-08)
(-1.81594e-07 -7.2644e-07 4.57443e-08)
(-2.88382e-07 -7.43184e-07 4.34878e-08)
(-3.74212e-07 -7.64792e-07 4.02578e-08)
(-4.33571e-07 -7.87764e-07 3.6393e-08)
(-4.64051e-07 -8.08956e-07 3.23338e-08)
(-4.66055e-07 -8.25018e-07 2.83122e-08)
(-4.42056e-07 -8.32338e-07 2.46076e-08)
(-3.96277e-07 -8.27264e-07 2.14016e-08)
(-3.34188e-07 -8.05905e-07 1.87767e-08)
(-2.6202e-07 -7.6379e-07 1.6727e-08)
(-1.86396e-07 -6.95174e-07 1.51016e-08)
(-1.13699e-07 -5.91724e-07 1.35391e-08)
(-5.12939e-08 -4.38901e-07 1.12041e-08)
(-6.14607e-09 -2.06798e-07 5.98394e-09)
(6.16975e-09 -2.6444e-07 6.21574e-09)
(5.2247e-08 -5.576e-07 1.16119e-08)
(1.16017e-07 -7.47901e-07 1.39749e-08)
(1.90066e-07 -8.76913e-07 1.5532e-08)
(2.66923e-07 -9.63964e-07 1.71898e-08)
(3.4019e-07 -1.01963e-06 1.93762e-08)
(4.03329e-07 -1.05094e-06 2.22009e-08)
(4.50184e-07 -1.0632e-06 2.57e-08)
(4.75225e-07 -1.06087e-06 2.97493e-08)
(4.74139e-07 -1.04802e-06 3.41772e-08)
(4.44299e-07 -1.02869e-06 3.86635e-08)
(3.84884e-07 -1.00664e-06 4.29149e-08)
(2.97618e-07 -9.85176e-07 4.66644e-08)
(1.88395e-07 -9.67013e-07 4.92231e-08)
(6.57564e-08 -9.57297e-07 5.04673e-08)
(-6.19957e-08 -9.57506e-07 5.0591e-08)
(-1.8527e-07 -9.67533e-07 4.92292e-08)
(-2.94269e-07 -9.85137e-07 4.67238e-08)
(-3.81478e-07 -1.00669e-06 4.30504e-08)
(-4.41266e-07 -1.02873e-06 3.87769e-08)
(-4.71623e-07 -1.04803e-06 3.4273e-08)
(-4.73214e-07 -1.0609e-06 2.98331e-08)
(-4.48617e-07 -1.06328e-06 2.57727e-08)
(-4.02166e-07 -1.05107e-06 2.22781e-08)
(-3.39363e-07 -1.01976e-06 1.94305e-08)
(-2.6639e-07 -9.64078e-07 1.72107e-08)
(-1.89795e-07 -8.76928e-07 1.54732e-08)
(-1.15964e-07 -7.47646e-07 1.38424e-08)
(-5.23706e-08 -5.57093e-07 1.14593e-08)
(-6.27016e-09 -2.6493e-07 6.13624e-09)
(6.06998e-09 -3.22535e-07 6.11523e-09)
(5.13826e-08 -6.76298e-07 1.14159e-08)
(1.14019e-07 -9.04506e-07 1.3765e-08)
(1.8667e-07 -1.05946e-06 1.53765e-08)
(2.62042e-07 -1.16541e-06 1.70947e-08)
(3.33945e-07 -1.23556e-06 1.93431e-08)
(3.96044e-07 -1.27831e-06 2.23058e-08)
(4.42385e-07 -1.2997e-06 2.60141e-08)
(4.67547e-07 -1.30466e-06 3.03367e-08)
(4.67161e-07 -1.29758e-06 3.51108e-08)
(4.3848e-07 -1.28272e-06 3.99888e-08)
(3.80555e-07 -1.26392e-06 4.4582e-08)
(2.94566e-07 -1.24454e-06 4.86328e-08)
(1.86316e-07 -1.22698e-06 5.14908e-08)
(6.50495e-08 -1.21783e-06 5.29413e-08)
(-6.13932e-08 -1.21807e-06 5.3061e-08)
(-1.83284e-07 -1.2274e-06 5.14378e-08)
(-2.913e-07 -1.24444e-06 4.86774e-08)
(-3.77173e-07 -1.26403e-06 4.47035e-08)
(-4.35513e-07 -1.28286e-06 4.0092e-08)
(-4.64682e-07 -1.29769e-06 3.52096e-08)
(-4.65576e-07 -1.30478e-06 3.04243e-08)
(-4.40851e-07 -1.29988e-06 2.60866e-08)
(-3.94882e-07 -1.27855e-06 2.23769e-08)
(-3.33099e-07 -1.23579e-06 1.93733e-08)
(-2.61493e-07 -1.1655e-06 1.70435e-08)
(-1.86364e-07 -1.0592e-06 1.52534e-08)
(-1.13917e-07 -9.03805e-07 1.3614e-08)
(-5.14556e-08 -6.75463e-07 1.12689e-08)
(-6.15122e-09 -3.23114e-07 6.03391e-09)
(5.75052e-09 -3.78543e-07 5.7433e-09)
(4.85295e-08 -7.90746e-07 1.07245e-08)
(1.07622e-07 -1.05577e-06 1.29407e-08)
(1.76133e-07 -1.23623e-06 1.45517e-08)
(2.47274e-07 -1.36099e-06 1.63236e-08)
(3.1527e-07 -1.44599e-06 1.8584e-08)
(3.74219e-07 -1.50127e-06 2.15618e-08)
(4.18531e-07 -1.53349e-06 2.53395e-08)
(4.43068e-07 -1.5479e-06 2.97662e-08)
(4.4353e-07 -1.54903e-06 3.47056e-08)
(4.1706e-07 -1.54118e-06 3.98056e-08)
(3.62574e-07 -1.52798e-06 4.46346e-08)
(2.80897e-07 -1.5125e-06 4.876e-08)
(1.77513e-07 -1.49727e-06 5.18124e-08)
(6.20027e-08 -1.48988e-06 5.34942e-08)
(-5.867e-08 -1.49009e-06 5.36165e-08)
(-1.74733e-07 -1.49735e-06 5.17547e-08)
(-2.77678e-07 -1.51166e-06 4.87812e-08)
(-3.59196e-07 -1.52754e-06 4.47561e-08)
(-4.1418e-07 -1.54123e-06 3.99e-08)
(-4.41084e-07 -1.54921e-06 3.48081e-08)
(-4.41152e-07 -1.54811e-06 2.98524e-08)
(-4.1706e-07 -1.53381e-06 2.54056e-08)
(-3.73077e-07 -1.50168e-06 2.16389e-08)
(-3.14405e-07 -1.44629e-06 1.86068e-08)
(-2.46673e-07 -1.36082e-06 1.6274e-08)
(-1.75732e-07 -1.23545e-06 1.45231e-08)
(-1.07384e-07 -1.05456e-06 1.29513e-08)
(-4.84949e-08 -7.89681e-07 1.07364e-08)
(-5.78915e-09 -3.79229e-07 5.73667e-09)
(5.20619e-09 -4.30142e-07 5.12441e-09)
(4.36306e-08 -8.9606e-07 9.61084e-09)
(9.67234e-08 -1.19527e-06 1.15849e-08)
(1.58217e-07 -1.4e-06 1.30671e-08)
(2.22142e-07 -1.54296e-06 1.48199e-08)
(2.83414e-07 -1.64251e-06 1.70341e-08)
(3.36833e-07 -1.71073e-06 1.98957e-08)
(3.7731e-07 -1.75486e-06 2.35303e-08)
(4.00195e-07 -1.78023e-06 2.77837e-08)
(4.01396e-07 -1.79135e-06 3.26121e-08)
(3.77954e-07 -1.79228e-06 3.76674e-08)
(3.28895e-07 -1.78611e-06 4.24863e-08)
(2.5508e-07 -1.77626e-06 4.64696e-08)
(1.61403e-07 -1.76577e-06 4.95432e-08)
(5.64418e-08 -1.76088e-06 5.12928e-08)
(-5.34567e-08 -1.76115e-06 5.14484e-08)
(-1.58874e-07 -1.76572e-06 4.95557e-08)
(-2.52016e-07 -1.77526e-06 4.63938e-08)
(-3.25898e-07 -1.78585e-06 4.24939e-08)
(-3.75439e-07 -1.79246e-06 3.76717e-08)
(-3.9909e-07 -1.79164e-06 3.27023e-08)
(-3.9839e-07 -1.78047e-06 2.78767e-08)
(-3.75968e-07 -1.75527e-06 2.35869e-08)
(-3.35802e-07 -1.71132e-06 1.99862e-08)
(-2.82672e-07 -1.64272e-06 1.70597e-08)
(-2.21613e-07 -1.54205e-06 1.47664e-08)
(-1.57772e-07 -1.39822e-06 1.3006e-08)
(-9.63402e-08 -1.19329e-06 1.14752e-08)
(-4.34664e-08 -8.94567e-07 9.48825e-09)
(-5.15899e-09 -4.30731e-07 5.09823e-09)
(4.4095e-09 -4.75045e-07 4.26437e-09)
(3.66207e-08 -9.87245e-07 8.0257e-09)
(8.11347e-08 -1.31582e-06 9.71935e-09)
(1.32918e-07 -1.54229e-06 1.10525e-08)
(1.86769e-07 -1.70231e-06 1.26642e-08)
(2.38409e-07 -1.8158e-06 1.47475e-08)
(2.83712e-07 -1.89657e-06 1.73633e-08)
(3.18346e-07 -1.95278e-06 2.05968e-08)
(3.3836e-07 -1.98963e-06 2.43195e-08)
(3.39993e-07 -2.01112e-06 2.86067e-08)
(3.20441e-07 -2.02076e-06 3.30827e-08)
(2.78911e-07 -2.02225e-06 3.73561e-08)
(2.16412e-07 -2.01977e-06 4.10791e-08)
(1.37328e-07 -2.01585e-06 4.40651e-08)
(4.80914e-08 -2.01406e-06 4.57352e-08)
(-4.55416e-08 -2.0142e-06 4.58994e-08)
(-1.35234e-07 -2.01559e-06 4.4269e-08)
(-2.13933e-07 -2.01961e-06 4.13403e-08)
(-2.76568e-07 -2.02428e-06 3.78507e-08)
(-3.18269e-07 -2.0224e-06 3.3388e-08)
(-3.37849e-07 -2.01178e-06 2.88086e-08)
(-3.36718e-07 -1.98979e-06 2.43641e-08)
(-3.17218e-07 -1.95312e-06 2.03926e-08)
(-2.82818e-07 -1.89712e-06 1.7064e-08)
(-2.37694e-07 -1.81558e-06 1.43901e-08)
(-1.86088e-07 -1.70064e-06 1.23537e-08)
(-1.32325e-07 -1.53992e-06 1.08554e-08)
(-8.07862e-08 -1.3137e-06 9.61362e-09)
(-3.65028e-08 -9.8549e-07 7.98944e-09)
(-4.35154e-09 -4.75434e-07 4.32568e-09)
(3.44993e-09 -5.10844e-07 3.10896e-09)
(2.79902e-08 -1.05963e-06 5.81457e-09)
(6.15423e-08 -1.41136e-06 7.11442e-09)
(1.00838e-07 -1.65526e-06 8.14571e-09)
(1.4184e-07 -1.82973e-06 9.32455e-09)
(1.81244e-07 -1.95589e-06 1.09414e-08)
(2.15863e-07 -2.04804e-06 1.30958e-08)
(2.42462e-07 -2.11515e-06 1.58718e-08)
(2.58344e-07 -2.16243e-06 1.90626e-08)
(2.60196e-07 -2.19308e-06 2.25631e-08)
(2.4525e-07 -2.21107e-06 2.59793e-08)
(2.13258e-07 -2.22158e-06 2.94013e-08)
(1.65836e-07 -2.22765e-06 3.27082e-08)
(1.05742e-07 -2.22951e-06 3.51907e-08)
(3.72867e-08 -2.23013e-06 3.64657e-08)
(-3.455e-08 -2.2295e-06 3.636e-08)
(-1.03613e-07 -2.22775e-06 3.4975e-08)
(-1.63959e-07 -2.22637e-06 3.24999e-08)
(-2.11849e-07 -2.22392e-06 2.95218e-08)
(-2.43441e-07 -2.21297e-06 2.59748e-08)
(-2.58069e-07 -2.19356e-06 2.23858e-08)
(-2.56856e-07 -2.16215e-06 1.89082e-08)
(-2.41598e-07 -2.11511e-06 1.57722e-08)
(-2.15077e-07 -2.04812e-06 1.31095e-08)
(-1.80631e-07 -1.95524e-06 1.09802e-08)
(-1.41405e-07 -1.82832e-06 9.38604e-09)
(-1.00589e-07 -1.65416e-06 8.24195e-09)
(-6.14054e-08 -1.41113e-06 7.30533e-09)
(-2.77159e-08 -1.05923e-06 6.06708e-09)
(-3.31382e-09 -5.11725e-07 3.26187e-09)
(2.18663e-09 -5.36398e-07 2.01956e-09)
(1.76926e-08 -1.11078e-06 3.74043e-09)
(3.88536e-08 -1.47892e-06 4.4711e-09)
(6.37062e-08 -1.73418e-06 5.0068e-09)
(8.94233e-08 -1.91826e-06 5.69861e-09)
(1.14105e-07 -2.0537e-06 6.75771e-09)
(1.35825e-07 -2.15459e-06 8.20404e-09)
(1.52453e-07 -2.23012e-06 1.00876e-08)
(1.62656e-07 -2.28557e-06 1.23055e-08)
(1.64271e-07 -2.32359e-06 1.46567e-08)
(1.55029e-07 -2.3496e-06 1.69833e-08)
(1.35058e-07 -2.36838e-06 1.94212e-08)
(1.05364e-07 -2.38131e-06 2.16828e-08)
(6.74078e-08 -2.38763e-06 2.33669e-08)
(2.40847e-08 -2.38992e-06 2.41352e-08)
(-2.12882e-08 -2.38764e-06 2.37384e-08)
(-6.51955e-08 -2.38269e-06 2.26608e-08)
(-1.03268e-07 -2.37651e-06 2.08217e-08)
(-1.33398e-07 -2.3669e-06 1.85142e-08)
(-1.53628e-07 -2.34794e-06 1.60038e-08)
(-1.63093e-07 -2.32091e-06 1.36435e-08)
(-1.62272e-07 -2.28195e-06 1.15832e-08)
(-1.52488e-07 -2.22778e-06 9.77797e-09)
(-1.35604e-07 -2.1542e-06 8.2785e-09)
(-1.13692e-07 -2.0543e-06 7.05728e-09)
(-8.8826e-08 -1.91903e-06 6.07104e-09)
(-6.30949e-08 -1.73494e-06 5.34474e-09)
(-3.84726e-08 -1.47962e-06 4.72783e-09)
(-1.73562e-08 -1.11086e-06 3.90158e-09)
(-2.09262e-09 -5.37072e-07 2.05161e-09)
(8.06566e-10 -5.49755e-07 6.37592e-10)
(6.19603e-09 -1.13708e-06 1.27121e-09)
(1.35333e-08 -1.51434e-06 1.59772e-09)
(2.23546e-08 -1.77609e-06 1.81286e-09)
(3.14263e-08 -1.96548e-06 2.09588e-09)
(4.01852e-08 -2.10539e-06 2.53833e-09)
(4.81202e-08 -2.20974e-06 3.06291e-09)
(5.4273e-08 -2.28797e-06 3.5933e-09)
(5.79688e-08 -2.34709e-06 4.27845e-09)
(5.85192e-08 -2.39068e-06 5.21783e-09)
(5.52143e-08 -2.42291e-06 6.19567e-09)
(4.82841e-08 -2.44659e-06 7.0996e-09)
(3.77009e-08 -2.46251e-06 7.79572e-09)
(2.42347e-08 -2.47153e-06 8.53133e-09)
(9.09571e-09 -2.47587e-06 8.88443e-09)
(-6.91436e-09 -2.47357e-06 8.60106e-09)
(-2.29789e-08 -2.46737e-06 8.24774e-09)
(-3.63741e-08 -2.45883e-06 7.57755e-09)
(-4.6778e-08 -2.44561e-06 6.62579e-09)
(-5.38745e-08 -2.422e-06 5.69191e-09)
(-5.71928e-08 -2.38926e-06 4.83507e-09)
(-5.70347e-08 -2.3447e-06 4.083e-09)
(-5.37578e-08 -2.28612e-06 3.38552e-09)
(-4.79364e-08 -2.20925e-06 2.82595e-09)
(-4.02184e-08 -2.10601e-06 2.41725e-09)
(-3.13455e-08 -1.96655e-06 2.08018e-09)
(-2.219e-08 -1.77725e-06 1.82396e-09)
(-1.34751e-08 -1.51547e-06 1.61076e-09)
(-6.03409e-09 -1.13782e-06 1.36695e-09)
(-6.91151e-10 -5.503e-07 7.32712e-10)
(-5.80073e-10 -5.50302e-07 -6.84013e-10)
(-5.38616e-09 -1.13806e-06 -1.23954e-09)
(-1.21094e-08 -1.51587e-06 -1.45535e-09)
(-1.97602e-08 -1.77787e-06 -1.63776e-09)
(-2.77739e-08 -1.96746e-06 -1.87161e-09)
(-3.54906e-08 -2.10769e-06 -2.20316e-09)
(-4.23019e-08 -2.21242e-06 -2.63463e-09)
(-4.76733e-08 -2.29097e-06 -3.16987e-09)
(-5.08087e-08 -2.35008e-06 -3.8443e-09)
(-5.09728e-08 -2.39329e-06 -4.59268e-09)
(-4.77926e-08 -2.42537e-06 -5.52784e-09)
(-4.15171e-08 -2.44901e-06 -6.56126e-09)
(-3.26894e-08 -2.46462e-06 -7.42224e-09)
(-2.13184e-08 -2.47393e-06 -7.75918e-09)
(-7.594e-09 -2.47818e-06 -7.78898e-09)
(7.12444e-09 -2.47562e-06 -7.68148e-09)
(2.06105e-08 -2.47027e-06 -7.16883e-09)
(3.30911e-08 -2.46198e-06 -6.54396e-09)
(4.26379e-08 -2.44812e-06 -5.99811e-09)
(4.84763e-08 -2.42436e-06 -5.13598e-09)
(5.15279e-08 -2.39165e-06 -4.22716e-09)
(5.14838e-08 -2.34695e-06 -3.37504e-09)
(4.85873e-08 -2.2882e-06 -2.83946e-09)
(4.32738e-08 -2.21096e-06 -2.50274e-09)
(3.61815e-08 -2.10733e-06 -2.15933e-09)
(2.82922e-08 -1.96757e-06 -1.88857e-09)
(2.01207e-08 -1.77804e-06 -1.66082e-09)
(1.2298e-08 -1.51613e-06 -1.44018e-09)
(5.60814e-09 -1.13834e-06 -1.1136e-09)
(7.24851e-10 -5.50592e-07 -5.60216e-10)
(-2.01388e-09 -5.37822e-07 -1.99298e-09)
(-1.68038e-08 -1.11257e-06 -3.77481e-09)
(-3.72465e-08 -1.48211e-06 -4.58783e-09)
(-6.1001e-08 -1.73805e-06 -5.19794e-09)
(-8.58439e-08 -1.92283e-06 -5.91101e-09)
(-1.09816e-07 -2.05919e-06 -6.86829e-09)
(-1.30829e-07 -2.16073e-06 -8.13135e-09)
(-1.46911e-07 -2.23624e-06 -9.7781e-09)
(-1.56312e-07 -2.29182e-06 -1.18252e-08)
(-1.57369e-07 -2.33019e-06 -1.3972e-08)
(-1.48325e-07 -2.35672e-06 -1.6347e-08)
(-1.29111e-07 -2.3758e-06 -1.88582e-08)
(-1.00984e-07 -2.3888e-06 -2.10249e-08)
(-6.4884e-08 -2.39648e-06 -2.24068e-08)
(-2.27017e-08 -2.39945e-06 -2.29398e-08)
(2.16567e-08 -2.39621e-06 -2.26295e-08)
(6.35275e-08 -2.39226e-06 -2.16141e-08)
(1.00891e-07 -2.3867e-06 -1.99725e-08)
(1.29681e-07 -2.37517e-06 -1.81247e-08)
(1.48368e-07 -2.35534e-06 -1.57348e-08)
(1.57806e-07 -2.32791e-06 -1.34614e-08)
(1.56987e-07 -2.28858e-06 -1.12618e-08)
(1.47208e-07 -2.23343e-06 -9.3673e-09)
(1.30957e-07 -2.15867e-06 -7.78848e-09)
(1.09953e-07 -2.05826e-06 -6.49953e-09)
(8.62289e-08 -1.92269e-06 -5.53833e-09)
(6.1439e-08 -1.73824e-06 -4.8086e-09)
(3.75994e-08 -1.48264e-06 -4.24056e-09)
(1.71479e-08 -1.11327e-06 -3.4885e-09)
(2.16285e-09 -5.38014e-07 -1.88681e-09)
(-3.29277e-09 -5.13078e-07 -3.17184e-09)
(-2.72698e-08 -1.06222e-06 -5.92505e-09)
(-6.03064e-08 -1.41535e-06 -7.18062e-09)
(-9.87711e-08 -1.65929e-06 -8.10903e-09)
(-1.3886e-07 -1.83428e-06 -9.22447e-09)
(-1.77441e-07 -1.9621e-06 -1.07562e-08)
(-2.1134e-07 -2.05597e-06 -1.27968e-08)
(-2.37415e-07 -2.12407e-06 -1.54396e-08)
(-2.52605e-07 -2.17238e-06 -1.86565e-08)
(-2.54144e-07 -2.20384e-06 -2.20507e-08)
(-2.39578e-07 -2.22244e-06 -2.55412e-08)
(-2.08294e-07 -2.23323e-06 -2.89012e-08)
(-1.62241e-07 -2.23989e-06 -3.20006e-08)
(-1.03858e-07 -2.2434e-06 -3.43309e-08)
(-3.6376e-08 -2.24482e-06 -3.55131e-08)
(3.45462e-08 -2.24229e-06 -3.52288e-08)
(1.02167e-07 -2.24085e-06 -3.38853e-08)
(1.62195e-07 -2.24002e-06 -3.15832e-08)
(2.08714e-07 -2.23371e-06 -2.87517e-08)
(2.39443e-07 -2.22138e-06 -2.52927e-08)
(2.54497e-07 -2.20212e-06 -2.18692e-08)
(2.5344e-07 -2.17132e-06 -1.85043e-08)
(2.38093e-07 -2.12412e-06 -1.55041e-08)
(2.11931e-07 -2.05656e-06 -1.28623e-08)
(1.77868e-07 -1.96338e-06 -1.07424e-08)
(1.39112e-07 -1.83587e-06 -9.14128e-09)
(9.88545e-08 -1.66054e-06 -7.84674e-09)
(6.04877e-08 -1.41653e-06 -6.84748e-09)
(2.75985e-08 -1.06341e-06 -5.6036e-09)
(3.45208e-09 -5.12979e-07 -3.01955e-09)
(-4.3862e-09 -4.77376e-07 -4.18734e-09)
(-3.62422e-08 -9.89756e-07 -7.81362e-09)
(-8.00031e-08 -1.31934e-06 -9.4997e-09)
(-1.31032e-07 -1.54651e-06 -1.07752e-08)
(-1.84243e-07 -1.70815e-06 -1.22642e-08)
(-2.35406e-07 -1.82408e-06 -1.42804e-08)
(-2.80218e-07 -1.9066e-06 -1.6928e-08)
(-3.14411e-07 -1.96369e-06 -2.02032e-08)
(-3.34003e-07 -2.00158e-06 -2.40836e-08)
(-3.35531e-07 -2.02429e-06 -2.8311e-08)
(-3.16232e-07 -2.03496e-06 -3.2779e-08)
(-2.75069e-07 -2.0371e-06 -3.69599e-08)
(-2.13638e-07 -2.03549e-06 -4.06069e-08)
(-1.35965e-07 -2.03352e-06 -4.3539e-08)
(-4.71603e-08 -2.03297e-06 -4.52965e-08)
(4.56859e-08 -2.03141e-06 -4.51555e-08)
(1.34433e-07 -2.03284e-06 -4.35076e-08)
(2.13442e-07 -2.03728e-06 -4.05659e-08)
(2.75158e-07 -2.03806e-06 -3.69237e-08)
(3.15938e-07 -2.03454e-06 -3.28315e-08)
(3.35394e-07 -2.02364e-06 -2.83974e-08)
(3.34422e-07 -2.00169e-06 -2.4037e-08)
(3.14953e-07 -1.96427e-06 -2.03063e-08)
(2.80764e-07 -1.90716e-06 -1.71382e-08)
(2.35899e-07 -1.82503e-06 -1.45876e-08)
(1.84713e-07 -1.71008e-06 -1.25932e-08)
(1.31421e-07 -1.54951e-06 -1.09513e-08)
(8.02219e-08 -1.32308e-06 -9.59892e-09)
(3.62917e-08 -9.92893e-07 -7.88334e-09)
(4.38483e-09 -4.77476e-07 -4.19255e-09)
(-5.17076e-09 -4.32811e-07 -5.08287e-09)
(-4.3261e-08 -8.99557e-07 -9.49502e-09)
(-9.5748e-08 -1.19961e-06 -1.14856e-08)
(-1.5691e-07 -1.40559e-06 -1.29804e-08)
(-2.20512e-07 -1.55053e-06 -1.46914e-08)
(-2.81471e-07 -1.65229e-06 -1.69637e-08)
(-3.3457e-07 -1.72202e-06 -1.98742e-08)
(-3.74773e-07 -1.76719e-06 -2.34659e-08)
(-3.97401e-07 -1.79368e-06 -2.77546e-08)
(-3.98519e-07 -1.80598e-06 -3.25245e-08)
(-3.75217e-07 -1.80791e-06 -3.75689e-08)
(-3.26395e-07 -1.80264e-06 -4.23316e-08)
(-2.53339e-07 -1.79366e-06 -4.63108e-08)
(-1.60645e-07 -1.78519e-06 -4.93946e-08)
(-5.53727e-08 -1.78119e-06 -5.13996e-08)
(5.40796e-08 -1.78005e-06 -5.13713e-08)
(1.58988e-07 -1.78469e-06 -4.96872e-08)
(2.52419e-07 -1.79495e-06 -4.65733e-08)
(3.25796e-07 -1.80337e-06 -4.23602e-08)
(3.74779e-07 -1.80827e-06 -3.76223e-08)
(3.98346e-07 -1.80622e-06 -3.25697e-08)
(3.97629e-07 -1.79411e-06 -2.77107e-08)
(3.75116e-07 -1.76782e-06 -2.34476e-08)
(3.34987e-07 -1.72272e-06 -1.98176e-08)
(2.81896e-07 -1.65325e-06 -1.69227e-08)
(2.20952e-07 -1.5523e-06 -1.47503e-08)
(1.57421e-07 -1.40878e-06 -1.30449e-08)
(9.62307e-08 -1.20383e-06 -1.15116e-08)
(4.3562e-08 -9.02948e-07 -9.50158e-09)
(5.23799e-09 -4.32834e-07 -5.06838e-09)
(-5.75764e-09 -3.8126e-07 -5.75458e-09)
(-4.83757e-08 -7.9494e-07 -1.07446e-08)
(-1.07191e-07 -1.06111e-06 -1.2954e-08)
(-1.75515e-07 -1.24315e-06 -1.45243e-08)
(-2.46462e-07 -1.36975e-06 -1.62593e-08)
(-3.14323e-07 -1.45639e-06 -1.85776e-08)
(-3.73165e-07 -1.51292e-06 -2.16128e-08)
(-4.17379e-07 -1.54621e-06 -2.53823e-08)
(-4.41788e-07 -1.56169e-06 -2.98367e-08)
(-4.4216e-07 -1.5639e-06 -3.47657e-08)
(-4.15636e-07 -1.55704e-06 -3.98982e-08)
(-3.61216e-07 -1.54504e-06 -4.47833e-08)
(-2.80235e-07 -1.53094e-06 -4.89681e-08)
(-1.775e-07 -1.51759e-06 -5.20113e-08)
(-6.11357e-08 -1.51007e-06 -5.38081e-08)
(5.95182e-08 -1.50907e-06 -5.36424e-08)
(1.75634e-07 -1.51637e-06 -5.20254e-08)
(2.78891e-07 -1.53068e-06 -4.89859e-08)
(3.60295e-07 -1.54496e-06 -4.46992e-08)
(4.1501e-07 -1.5572e-06 -3.98854e-08)
(4.4183e-07 -1.56413e-06 -3.47748e-08)
(4.41782e-07 -1.56211e-06 -2.98288e-08)
(4.1756e-07 -1.54679e-06 -2.5382e-08)
(3.73509e-07 -1.51362e-06 -2.15883e-08)
(3.14783e-07 -1.45724e-06 -1.85596e-08)
(2.46971e-07 -1.37089e-06 -1.62913e-08)
(1.75963e-07 -1.24503e-06 -1.45973e-08)
(1.07458e-07 -1.06384e-06 -1.30271e-08)
(4.84869e-08 -7.97445e-07 -1.07872e-08)
(5.73285e-09 -3.81311e-07 -5.75881e-09)
(-6.10489e-09 -3.25252e-07 -6.10902e-09)
(-5.14353e-08 -6.80604e-07 -1.13464e-08)
(-1.14116e-07 -9.10331e-07 -1.36455e-08)
(-1.86763e-07 -1.06692e-06 -1.52807e-08)
(-2.62118e-07 -1.17437e-06 -1.70709e-08)
(-3.34046e-07 -1.24575e-06 -1.94048e-08)
(-3.96188e-07 -1.28956e-06 -2.2424e-08)
(-4.4255e-07 -1.31195e-06 -2.61496e-08)
(-4.67673e-07 -1.31789e-06 -3.05145e-08)
(-4.67192e-07 -1.31177e-06 -3.53101e-08)
(-4.38321e-07 -1.2978e-06 -4.02354e-08)
(-3.80282e-07 -1.28004e-06 -4.49078e-08)
(-2.9475e-07 -1.26176e-06 -4.89899e-08)
(-1.86672e-07 -1.24574e-06 -5.18755e-08)
(-6.4284e-08 -1.23635e-06 -5.34634e-08)
(6.25076e-08 -1.23584e-06 -5.33467e-08)
(1.84766e-07 -1.24504e-06 -5.19295e-08)
(2.93222e-07 -1.2617e-06 -4.90226e-08)
(3.79212e-07 -1.28016e-06 -4.49048e-08)
(4.37579e-07 -1.29804e-06 -4.02773e-08)
(4.66757e-07 -1.31207e-06 -3.53525e-08)
(4.67523e-07 -1.31831e-06 -3.05442e-08)
(4.42604e-07 -1.3125e-06 -2.61782e-08)
(3.964e-07 -1.29026e-06 -2.24417e-08)
(3.34364e-07 -1.24659e-06 -1.94268e-08)
(2.62487e-07 -1.17539e-06 -1.71241e-08)
(1.87051e-07 -1.06825e-06 -1.54301e-08)
(1.14212e-07 -9.12169e-07 -1.3899e-08)
(5.14361e-08 -6.82579e-07 -1.15764e-08)
(6.03918e-09 -3.25246e-07 -6.17413e-09)
(-6.21456e-09 -2.67029e-07 -6.24151e-09)
(-5.24426e-08 -5.6171e-07 -1.15911e-08)
(-1.16427e-07 -7.5372e-07 -1.39106e-08)
(-1.90659e-07 -8.84157e-07 -1.55282e-08)
(-2.67699e-07 -9.72338e-07 -1.72717e-08)
(-3.41179e-07 -1.02897e-06 -1.95121e-08)
(-4.04499e-07 -1.06118e-06 -2.23797e-08)
(-4.51472e-07 -1.07429e-06 -2.59014e-08)
(-4.76549e-07 -1.07279e-06 -3.00016e-08)
(-4.75366e-07 -1.06077e-06 -3.44684e-08)
(-4.45219e-07 -1.04219e-06 -3.90168e-08)
(-3.85511e-07 -1.02086e-06 -4.33668e-08)
(-2.98398e-07 -1.00004e-06 -4.71334e-08)
(-1.89114e-07 -9.83108e-07 -4.97783e-08)
(-6.52631e-08 -9.73394e-07 -5.117e-08)
(6.32816e-08 -9.73123e-07 -5.11183e-08)
(1.87016e-07 -9.82684e-07 -4.98346e-08)
(2.9681e-07 -1.00012e-06 -4.71151e-08)
(3.84483e-07 -1.02097e-06 -4.33366e-08)
(4.44466e-07 -1.04233e-06 -3.90594e-08)
(4.74853e-07 -1.06097e-06 -3.45224e-08)
(4.76297e-07 -1.07313e-06 -3.00461e-08)
(4.5143e-07 -1.07475e-06 -2.59424e-08)
(4.04605e-07 -1.06175e-06 -2.24102e-08)
(3.41375e-07 -1.02965e-06 -1.95417e-08)
(2.67949e-07 -9.73134e-07 -1.73134e-08)
(1.90875e-07 -8.85086e-07 -1.56237e-08)
(1.16542e-07 -7.54881e-07 -1.4098e-08)
(5.24699e-08 -5.63116e-07 -1.17686e-08)
(6.18465e-09 -2.66972e-07 -6.28408e-09)
(-6.12217e-09 -2.08629e-07 -6.08555e-09)
(-5.14891e-08 -4.42818e-07 -1.13311e-08)
(-1.14357e-07 -5.97e-07 -1.36285e-08)
(-1.87606e-07 -7.01483e-07 -1.51881e-08)
(-2.63843e-07 -7.70984e-07 -1.6826e-08)
(-3.3666e-07 -8.13887e-07 -1.89013e-08)
(-3.9939e-07 -8.35985e-07 -2.15497e-08)
(-4.45789e-07 -8.4176e-07 -2.47887e-08)
(-4.70339e-07 -8.35126e-07 -2.85405e-08)
(-4.68746e-07 -8.19716e-07 -3.26029e-08)
(-4.38402e-07 -7.99098e-07 -3.67381e-08)
(-3.78961e-07 -7.76617e-07 -4.07025e-08)
(-2.93072e-07 -7.55592e-07 -4.40688e-08)
(-1.8585e-07 -7.39378e-07 -4.64313e-08)
(-6.42274e-08 -7.30362e-07 -4.76706e-08)
(6.22576e-08 -7.30006e-07 -4.76344e-08)
(1.83657e-07 -7.38822e-07 -4.64245e-08)
(2.91443e-07 -7.55518e-07 -4.39973e-08)
(3.77899e-07 -7.76595e-07 -4.06225e-08)
(4.37589e-07 -7.99132e-07 -3.6746e-08)
(4.68145e-07 -8.19852e-07 -3.26512e-08)
(4.69999e-07 -8.35379e-07 -2.8584e-08)
(4.45675e-07 -8.42117e-07 -2.48285e-08)
(3.99425e-07 -8.36423e-07 -2.15786e-08)
(3.36786e-07 -8.14404e-07 -1.89277e-08)
(2.64032e-07 -7.71579e-07 -1.68532e-08)
(1.87803e-07 -7.02154e-07 -1.52303e-08)
(1.14511e-07 -5.97764e-07 -1.37164e-08)
(5.1504e-08 -4.43732e-07 -1.14578e-08)
(6.08395e-09 -2.08694e-07 -6.12802e-09)
(-5.7645e-09 -1.52472e-07 -5.66783e-09)
(-4.84676e-08 -3.2849e-07 -1.06051e-08)
(-1.07993e-07 -4.46065e-07 -1.27631e-08)
(-1.77881e-07 -5.25534e-07 -1.41698e-08)
(-2.51084e-07 -5.77342e-07 -1.56365e-08)
(-3.21341e-07 -6.07761e-07 -1.7493e-08)
(-3.82042e-07 -6.21334e-07 -1.98813e-08)
(-4.26976e-07 -6.21706e-07 -2.27931e-08)
(-4.50753e-07 -6.12124e-07 -2.61632e-08)
(-4.49219e-07 -5.9567e-07 -2.9798e-08)
(-4.19849e-07 -5.75325e-07 -3.3534e-08)
(-3.62548e-07 -5.53966e-07 -3.70734e-08)
(-2.80274e-07 -5.34661e-07 -4.00663e-08)
(-1.77707e-07 -5.20033e-07 -4.21837e-08)
(-6.14604e-08 -5.12103e-07 -4.33329e-08)
(5.95426e-08 -5.11763e-07 -4.32944e-08)