/*--------------------------------*- C++ -*----------------------------------*\
| =========                 |                                                 |
| \\      /  F ield         | OpenFOAM: The Open Source CFD Toolbox           |
|  \\    /   O peration     | Version:  v1906                                 |
|   \\  /    A nd           | Web:      www.OpenFOAM.com                      |
|    \\/     M anipulation  |                                                 |
\*---------------------------------------------------------------------------*/
FoamFile
{
    version     2.0;
    format      ascii;
    class       volScalarField;
    location    "85.8/sphere";
    object      T;
}
// * * * * * * * * * * * * * * * * * * * * * * * * * * * * * * * * * * * * * //

dimensions      [0 0 0 1 0 0 0];


internalField   nonuniform List<scalar> 
304
(
455.761
455.788
455.782
455.799
455.758
455.747
455.76
455.789
455.759
455.896
455.897
455.799
455.781
455.889
455.89
455.823
455.782
455.814
455.743
455.788
455.804
455.76
455.789
455.897
455.896
455.828
455.799
455.89
455.89
455.848
455.745
455.814
455.841
455.778
455.761
455.801
455.828
455.764
455.76
455.823
455.848
455.786
455.744
455.778
455.734
455.748
455.761
455.762
455.763
455.794
455.761
455.762
455.794
455.763
455.748
455.76
455.764
455.76
455.792
455.788
455.787
455.802
455.8
455.829
455.827
455.851
455.76
455.802
455.787
455.829
455.8
455.851
455.827
455.76
455.764
455.793
455.761
455.754
455.754
455.785
455.746
455.798
455.745
455.777
455.821
455.847
455.785
455.817
455.784
455.778
455.748
455.848
455.823
455.818
455.787
455.788
455.756
455.748
455.731
455.746
455.742
455.777
455.742
455.777
455.743
455.742
455.731
455.762
455.76
455.76
455.793
455.789
455.8
455.829
455.788
455.804
455.829
455.854
455.761
455.83
455.801
455.805
455.789
455.854
455.829
455.762
455.761
455.793
455.761
455.8
455.786
455.827
455.788
455.828
455.802
455.851
455.759
455.827
455.788
455.828
455.788
455.851
455.802
455.821
455.746
455.786
455.799
455.848
455.778
455.817
455.783
455.787
455.748
455.848
455.799
455.818
455.779
455.744
455.746
455.777
455.743
455.814
455.741
455.772
455.814
455.841
455.771
455.789
455.783
455.772
455.74
455.841
455.814
455.789
455.772
455.777
455.745
455.742
455.759
455.761
455.793
455.765
455.804
455.829
455.854
455.76
455.788
455.801
455.829
455.788
455.854
455.828
455.788
455.758
455.828
455.798
455.793
455.76
455.761
455.829
455.802
455.851
455.762
455.802
455.789
455.828
455.788
455.851
455.802
455.8
455.761
455.827
455.788
455.848
455.779
455.818
455.785
455.824
455.75
455.788
455.799
455.818
455.779
455.822
455.783
455.788
455.749
455.777
455.743
455.744
455.841
455.772
455.79
455.783
455.815
455.741
455.773
455.815
455.79
455.773
455.815
455.785
455.773
455.744
455.747
455.743
455.745
455.751
455.76
455.763
455.793
455.76
455.792
455.761
455.76
455.747
455.766
455.762
455.794
455.762
455.829
455.828
455.852
455.763
455.788
455.788
455.802
455.8
455.851
455.827
455.787
455.759
455.802
455.787
455.792
455.761
455.759
455.789
455.75
455.756
455.848
455.788
455.818
455.783
455.799
455.748
455.779
455.822
455.818
455.788
455.799
455.783
455.779
455.749
455.755
455.748
455.754
455.734
455.778
455.744
455.747
455.745
455.744
455.747
)
;

boundaryField
{
    sphere_to_oil
    {
        type            compressible::turbulentTemperatureCoupledBaffleMixed;
        refValue        nonuniform List<scalar> 
360
(
331.623
331.623
322.063
354.909
361.928
324.946
362.932
362.932
362.932
341.889
341.889
328.946
333.594
321.005
341.369
349.569
345.535
345.535
345.535
322.408
344.463
324.078
327.956
357.604
317.441
357.834
323.018
357.832
357.832
357.832
363.446
356.513
321.966
321.633
328.694
328.782
346.429
346.429
346.429
345.764
346.855
322.68
324.363
332.079
332.079
322.832
331.166
314.816
331.233
358.158
324.874
324.998
332.874
333.432
322.168
323.842
345.924
322.503
324.427
333.42
317.161
358.943
358.943
358.943
314.864
357.526
331.141
323.242
361.456
361.456
361.456
362.379
361.156
320.151
345.444
340.756
322.057
327.24
346.811
346.478
328.709
320.303
328.394
317.04
321.954
324.514
328.884
333.302
321.561
322.645
322.192
332.325
328.504
322.3
331.969
328.486
329.115
329.342
325.302
316.816
316.929
322.218
324.89
328.497
332.236
322.144
320.894
333.5
324.937
329.297
329.146
329.167
325.265
322.41
315.023
314.983
327.875
323.441
328.901
331.53
331.53
354.909
354.909
357.604
357.604
355.361
355.361
355.361
356.96
356.96
356.96
328.271
323.68
327.815
323.165
361.928
361.928
338.731
338.731
363.446
363.446
338.163
338.163
362.836
362.836
362.836
322.834
322.622
350.096
350.096
350.096
349.918
349.918
349.918
349.569
344.463
341.369
349.569
349.754
322.436
349.754
349.754
328.001
328.821
320.424
324.173
324.173
348.073
348.073
348.073
317.115
344.463
324.078
347.261
347.261
317.002
347.261
328.805
320.346
314.893
323.038
323.369
331.774
317.326
331.228
323.297
314.943
317.03
357.834
357.834
356.513
356.513
332.469
332.469
354.936
354.936
354.936
330.969
330.969
316.681
327.983
325.286
332.416
328.221
324.616
332.252
324.998
333.561
329.369
324.797
345.764
333.354
329.442
322.551
347.51
347.51
347.51
324.573
324.573
317.04
324.557
324.372
333.206
346.855
322.598
333.137
324.681
345.764
346.855
324.366
322.491
324.366
317.361
314.932
331.092
317.364
323.184
323.076
323.325
317.193
316.615
358.882
353.921
358.882
358.882
353.921
353.921
358.158
357.526
331.233
356.152
316.848
358.158
356.152
356.152
331.641
321.753
328.269
332.173
322.318
362.379
328.31
329.007
328.918
325.092
345.924
345.444
329.323
329.006
325.237
345.52
349.57
323.842
347.146
317.156
345.924
347.146
347.146
333.642
322.575
346.811
324.478
324.66
324.346
347.185
322.559
346.923
324.218
345.52
324.218
347.185
345.52
347.185
314.768
323.511
327.405
327.566
331.501
355.034
331.501
355.034
355.034
316.665
357.526
356.108
331.141
356.108
316.694
356.108
328.395
328.129
321.651
360.482
338.851
360.482
360.482
338.851
322.197
324.55
328.047
332.121
361.156
362.379
338.378
322.836
361.156
338.378
322.103
345.444
350.039
340.756
350.039
321.377
350.039
333.583
346.478
325.114
329.569
349.333
346.132
349.57
340.347
349.57
349.333
340.347
349.333
320.24
328.281
346.811
324.171
317.095
346.478
324.171
322.763
346.923
346.132
346.923
324.231
346.132
324.231
)
;
        refGradient     uniform 0;
        valueFraction   nonuniform List<scalar> 
360
(
0.00013989
0.000134205
8.59196e-05
0.000306936
0.000314791
0.000180507
0.000316747
0.000271887
0.000423198
0.000134746
0.000131375
0.000176244
0.000268601
7.67996e-05
0.000137382
0.000267057
0.000306043
0.000285955
0.000401259
7.02769e-05
0.000263461
0.00012952
0.000119373
0.000316765
9.19699e-05
0.000325597
0.000183536
0.000321392
0.000420602
0.000281357
0.000321446
0.000324215
8.70596e-05
8.60869e-05
0.000180659
0.000177785
0.000300835
0.000407845
0.00028006
0.000421095
0.000415955
8.88193e-05
0.000176173
0.000128574
0.000128421
0.00018135
0.000271316
7.23869e-05
0.000129523
0.000274647
0.0001789
0.000180062
0.000268401
0.000265792
7.50947e-05
0.000137376
0.000280144
7.19387e-05
0.000178216
0.000265756
7.04157e-05
0.000312851
0.000276173
0.000432237
7.25939e-05
0.000282377
0.000131718
0.000127397
0.00032008
0.000417555
0.00028088
0.000402656
0.000408292
7.7981e-05
0.00027224
0.000138108
7.18962e-05
0.000128923
0.000407445
0.00042326
0.000126449
0.000124063
0.000121856
7.24215e-05
8.733e-05
0.000177051
0.000178043
0.000269626
8.13902e-05
6.87231e-05
8.64285e-05
0.000269185
0.000177705
8.82873e-05
0.000268741
0.000179734
0.000178672
0.000178948
8.72635e-05
6.99457e-05
7.09269e-05
6.99831e-05
0.000179912
0.000176829
0.000268982
7.91927e-05
6.87876e-05
0.000268788
8.53905e-05
0.000177109
0.000177142
0.000180756
8.83882e-05
7.07777e-05
6.90251e-05
7.03586e-05
0.000122469
0.000122616
0.000127379
0.000138125
0.000129818
0.000268234
0.00042255
0.000282602
0.000426436
0.000273349
0.000420249
0.000312902
0.000273569
0.000411102
0.000308158
0.000125695
0.000118868
0.000121751
6.72116e-05
0.000278744
0.000419679
0.00012985
0.000130443
0.000424123
0.000281994
0.00013612
0.000143463
0.000418902
0.000287772
0.000331596
7.39703e-05
6.88378e-05
0.000290548
0.000402629
0.000319144
0.000299156
0.000416569
0.00031911
0.000329472
0.000303485
0.000141961
0.000423142
0.000273324
7.62038e-05
0.000411266
0.000307763
0.000117452
0.000123741
0.000122415
0.000129141
0.000134995
0.000421032
0.000277228
0.000325407
7.80233e-05
0.000405014
0.000138879
0.000425883
0.000272638
7.62119e-05
0.000323267
0.000118494
0.000119594
6.98724e-05
0.000183143
0.000183071
0.000270698
9.02703e-05
0.000271107
0.000178385
6.9155e-05
6.71519e-05
0.000423632
0.000269174
0.000418659
0.000279127
0.000133144
0.000124515
0.000420612
0.00026288
0.000303864
0.000123078
0.000142809
7.18462e-05
0.000179925
0.000179762
0.000268577
0.000175857
0.000176762
0.000267519
9.16949e-05
0.000268438
0.000182013
8.91707e-05
0.000302146
0.000268141
0.000180923
7.21038e-05
0.000411439
0.00026673
0.000312076
0.000130015
0.000120824
6.97912e-05
0.000178531
0.000181533
0.000269155
0.000306019
8.55881e-05
0.000266601
0.00017412
0.000264838
0.000280372
0.00012727
7.14856e-05
0.000141227
7.237e-05
6.81204e-05
0.000272152
9.08237e-05
0.000182965
0.000180849
0.000178694
8.9682e-05
6.8505e-05
0.000278262
0.000260739
0.000437717
0.000325816
0.000408366
0.000293413
0.000314485
0.000321989
0.000143125
0.000276227
7.44229e-05
0.000420345
0.000408724
0.000310545
0.00027086
8.63065e-05
0.000176244
0.000267746
8.70794e-05
0.000319035
0.000177007
0.000178274
0.000176631
8.65535e-05
0.000316663
0.00029674
0.000180208
0.000175548
8.822e-05
0.000297325
0.000327275
0.000129796
0.000293793
6.97756e-05
0.000418562
0.000405799
0.000306628
0.000265765
8.73073e-05
0.00030711
0.000176838
0.00017711
0.000178118
0.000308782
8.81253e-05
0.000315484
0.000132748
0.000272003
0.000133857
0.000277182
0.000422402
0.00041468
6.97404e-05
0.000139753
0.000138102
0.000135076
0.000123011
0.000411545
0.000134353
0.000273601
0.000322179
6.87241e-05
0.000415561
0.00041506
0.000135878
0.00029512
7.20201e-05
0.00031639
0.000120463
0.000118342
7.19609e-05
0.000407023
0.000121646
0.000266933
0.000314376
0.000130415
7.10949e-05
0.000176901
0.000176841
0.000266846
0.000305335
0.000264837
0.000128046
6.89247e-05
0.000269273
0.000142214
7.9603e-05
0.000390223
0.000419021
0.00012384
0.000266173
7.37967e-05
0.000334754
0.000268892
0.000322169
8.81337e-05
0.000177664
0.000310612
0.000301132
0.000283298
0.000126627
0.000414989
0.000414096
0.000150316
0.000276798
0.000121788
0.000123656
0.000278668
0.000137947
7.45846e-05
0.000281834
0.00013283
6.88774e-05
0.000410193
0.000415115
0.000273135
0.000132553
0.000268292
0.000136924
)
;
        value           nonuniform List<scalar> 
360
(
455.762
455.763
455.768
455.748
455.75
455.783
455.749
455.754
455.743
455.757
455.757
455.778
455.784
455.766
455.761
455.748
455.73
455.733
455.716
455.757
455.737
455.749
455.734
455.748
455.766
455.747
455.783
455.748
455.74
455.752
455.748
455.745
455.766
455.766
455.777
455.779
455.732
455.718
455.734
455.716
455.717
455.747
455.767
455.762
455.764
455.782
455.789
455.768
455.762
455.752
455.784
455.783
455.785
455.785
455.753
455.745
455.733
455.756
455.767
455.776
455.752
455.748
455.751
455.74
455.769
455.752
455.763
455.749
455.751
455.745
455.754
455.745
455.744
455.768
455.749
455.763
455.764
455.736
455.718
455.716
455.736
455.735
455.737
455.752
455.77
455.783
455.779
455.784
455.762
455.756
455.767
455.787
455.783
455.766
455.787
455.782
455.779
455.775
455.756
455.77
455.77
455.769
455.783
455.783
455.787
455.768
455.763
455.784
455.753
455.773
455.78
455.774
455.756
455.755
455.771
455.77
455.751
455.751
455.751
455.762
455.764
455.753
455.739
455.753
455.739
455.752
455.739
455.747
455.753
455.741
455.749
455.751
455.751
455.751
455.77
455.753
455.743
455.764
455.764
455.743
455.753
455.763
455.763
455.743
455.753
455.747
455.77
455.763
455.742
455.722
455.73
455.741
455.721
455.731
455.732
455.733
455.759
455.721
455.746
455.765
455.723
455.734
455.735
455.734
455.733
455.747
455.743
455.715
455.731
455.724
455.75
455.717
455.742
455.716
455.731
455.75
455.724
455.734
455.733
455.768
455.783
455.782
455.789
455.767
455.789
455.784
455.77
455.769
455.739
455.752
455.739
455.751
455.762
455.763
455.739
455.753
455.747
455.764
455.762
455.77
455.782
455.783
455.787
455.784
455.784
455.788
455.753
455.784
455.773
455.755
455.734
455.785
455.774
455.755
455.718
455.732
455.725
455.747
455.745
455.751
455.767
455.766
455.775
455.725
455.747
455.775
455.768
455.735
455.73
455.747
455.755
455.742
455.751
455.768
455.789
455.766
455.782
455.782
455.783
455.764
455.77
455.751
455.753
455.741
455.747
455.742
455.751
455.746
455.745
455.761
455.751
455.768
455.738
455.738
455.748
455.787
455.769
455.785
455.788
455.768
455.75
455.784
455.775
455.781
455.757
455.733
455.735
455.775
455.78
455.756
455.734
455.732
455.744
455.729
455.751
455.717
455.719
455.727
455.776
455.748
455.726
455.768
455.768
455.768
455.729
455.751
455.728
455.748
455.736
455.744
455.732
455.717
455.719
455.768
455.751
455.752
455.753
455.763
455.74
455.762
455.751
455.749
455.769
455.739
455.738
455.761
455.749
455.768
455.746
455.751
455.751
455.771
455.746
455.766
455.755
455.751
455.765
455.771
455.784
455.784
455.788
455.748
455.755
455.764
455.77
455.752
455.761
455.767
455.726
455.724
455.761
455.747
455.765
455.731
455.785
455.731
455.755
455.775
455.734
455.734
455.744
455.759
455.723
455.723
455.755
455.743
455.736
455.736
455.732
455.744
455.752
455.735
455.748
455.756
455.719
455.718
455.733
455.745
455.736
455.747
)
;
        Tnbr            T;
        thicknessLayers 0();
        kappaLayers     0();
        kappaMethod     solidThermo;
        kappa           none;
        alphaAni        none;
    }
}


// ************************************************************************* //
