/*--------------------------------*- C++ -*----------------------------------*\
| =========                 |                                                 |
| \\      /  F ield         | OpenFOAM: The Open Source CFD Toolbox           |
|  \\    /   O peration     | Version:  v1912                                 |
|   \\  /    A nd           | Website:  www.openfoam.com                      |
|    \\/     M anipulation  |                                                 |
\*---------------------------------------------------------------------------*/
FoamFile
{
    version     2.0;
    format      ascii;
    class       volScalarField;
    location    "50/sphere";
    object      T;
}
// * * * * * * * * * * * * * * * * * * * * * * * * * * * * * * * * * * * * * //

dimensions      [0 0 0 1 0 0 0];


internalField   nonuniform List<scalar> 
304
(
455.835
455.889
455.887
455.918
455.844
455.845
455.834
455.891
455.831
456.067
456.068
455.896
455.886
456.067
456.068
455.952
455.896
455.953
455.829
455.888
455.919
455.842
455.892
456.069
456.068
455.953
455.92
456.069
456.069
455.997
455.841
455.953
455.999
455.894
455.844
455.901
455.952
455.829
455.852
455.955
455.997
455.89
455.831
455.894
455.816
455.811
455.843
455.845
455.829
455.892
455.843
455.844
455.893
455.83
455.812
455.841
455.826
455.841
455.89
455.89
455.889
455.917
455.897
455.953
455.951
455.995
455.834
455.918
455.889
455.953
455.897
455.996
455.952
455.841
455.826
455.891
455.843
455.838
455.838
455.887
455.824
455.916
455.829
455.887
455.949
455.995
455.893
455.95
455.89
455.889
455.835
455.996
455.952
455.953
455.897
455.891
455.842
455.826
455.811
455.842
455.825
455.89
455.841
455.892
455.829
455.841
455.811
455.826
455.84
455.841
455.89
455.89
455.897
455.953
455.888
455.918
455.952
455.997
455.837
455.954
455.899
455.919
455.891
455.997
455.953
455.829
455.844
455.892
455.845
455.895
455.887
455.951
455.889
455.952
455.918
455.996
455.831
455.952
455.89
455.953
455.891
455.996
455.919
455.95
455.831
455.895
455.918
455.996
455.888
455.952
455.89
455.898
455.834
455.997
455.919
455.953
455.89
455.829
455.842
455.892
455.843
455.952
455.834
455.89
455.953
455.997
455.89
455.921
455.898
455.89
455.834
455.997
455.953
455.921
455.891
455.891
455.842
455.842
455.84
455.843
455.892
455.833
455.918
455.952
455.997
455.834
455.889
455.899
455.953
455.889
455.997
455.952
455.89
455.831
455.952
455.895
455.891
455.843
455.826
455.955
455.92
455.997
455.841
455.902
455.894
455.956
455.89
455.997
455.919
455.898
455.837
455.953
455.891
455.997
455.891
455.953
455.895
455.956
455.84
455.901
455.919
455.954
455.89
455.953
455.891
455.899
455.836
455.891
455.843
455.831
455.998
455.891
455.922
455.899
455.954
455.837
455.892
455.955
455.923
455.893
455.955
455.902
455.894
455.841
455.845
455.844
455.833
455.819
455.841
455.831
455.892
455.843
455.891
455.827
455.842
455.811
455.834
455.847
455.896
455.848
455.954
455.955
455.998
455.841
455.892
455.894
455.92
455.897
455.997
455.953
455.889
455.833
455.919
455.889
455.892
455.843
455.841
455.896
455.834
455.844
455.998
455.9
455.954
455.891
455.92
455.835
455.891
455.952
455.954
455.899
455.919
455.889
455.891
455.836
455.841
455.829
455.839
455.817
455.893
455.845
455.845
455.833
455.845
455.844
)
;

boundaryField
{
    sphere_to_oil
    {
        type            compressible::turbulentTemperatureCoupledBaffleMixed;
        refValue        nonuniform List<scalar> 
360
(
301.709
301.709
301.381
302.131
302.035
301.329
302.146
302.146
302.146
302.593
302.593
301.714
301.647
301.161
302.389
302.018
302.272
302.272
302.272
301.701
302.263
302.59
301.706
302.121
301.45
302.252
301.756
302.231
302.231
302.231
302.167
302.241
301.42
301.564
301.76
301.892
302.379
302.379
302.379
302.379
302.762
302.247
302.545
301.681
301.681
301.739
302.901
301.728
304.41
302.747
301.273
301.506
301.603
301.715
301.701
302.864
302.301
301.743
302.983
308.021
302.101
302.331
302.331
302.331
301.619
302.791
303.598
301.731
302.196
302.196
302.196
302.277
302.368
301.157
301.973
302.651
301.44
301.681
302.692
302.354
301.865
301.7
301.882
302.034
301.498
301.137
301.82
301.455
301.472
301.542
301.543
301.551
301.75
301.773
301.349
301.963
302.071
301.51
302.12
300.935
301.042
301.121
301.251
301.601
301.485
301.133
301.158
301.612
301.795
301.669
301.835
301.688
301.887
301.687
301.079
301.198
301.094
301.786
301.201
301.694
301.694
302.131
302.131
302.121
302.121
302.411
302.411
302.411
302.299
302.299
302.299
301.199
301.638
301.194
301.256
302.035
302.035
302.008
302.008
302.167
302.167
301.886
301.886
302.125
302.125
302.125
301.242
301.356
302.045
302.045
302.045
302.185
302.185
302.185
302.018
302.263
302.389
302.018
302.081
301.347
302.081
302.081
301.725
301.864
301.666
302.549
302.549
302.712
302.712
302.712
301.971
302.263
302.59
302.703
302.703
301.965
302.703
301.816
301.633
301.193
301.67
301.772
302.017
301.71
302.243
302.336
301.32
300.954
302.252
302.252
302.241
302.241
301.46
301.46
302.311
302.311
302.311
304.859
304.859
300.955
301.634
301.273
301.515
301.768
301.214
301.41
301.838
301.614
301.67
301.963
302.379
301.519
301.569
301.702
302.801
302.801
302.801
302.835
302.835
302.069
302.505
302.84
306.012
302.762
302.234
307.613
302.597
302.379
302.762
302.682
301.584
302.682
302.064
301.159
302.191
301.676
302.104
303.08
302.673
302.569
300.932
302.303
302.206
302.303
302.303
302.206
302.206
302.747
302.791
304.41
302.567
301.322
302.747
302.567
302.567
301.483
301.417
301.637
301.657
301.743
302.277
301.932
301.672
301.739
301.807
302.301
301.973
301.741
302.042
302.117
302.481
302.118
302.864
302.673
302.012
302.301
302.673
302.673
306.16
302.185
302.692
302.901
302.527
302.603
302.814
302.303
302.833
302.713
302.481
302.713
302.814
302.481
302.814
301.129
301.599
301.218
301.295
302.928
302.278
302.928
302.278
302.278
300.885
302.791
302.712
303.598
302.712
300.884
302.712
301.366
301.54
301.178
302.262
302.08
302.262
302.262
302.08
301.317
301.18
301.7
301.432
302.368
302.277
301.917
301.384
302.368
301.917
301.397
301.973
302.146
302.651
302.146
301.329
302.146
301.548
302.354
301.915
301.626
302.149
302.482
302.118
302.359
302.118
302.149
302.359
302.149
301.602
301.808
302.692
302.476
301.988
302.354
302.476
301.661
302.833
302.482
302.833
302.473
302.482
302.473
)
;
        refGradient     uniform 0;
        valueFraction   nonuniform List<scalar> 
360
(
0.000170308
0.000163387
0.000104604
0.000373671
0.000383234
0.000219754
0.000385616
0.000331002
0.000515211
0.000164045
0.000159941
0.000214562
0.000326991
9.34995e-05
0.000167254
0.000325117
0.000372572
0.000348113
0.000488476
8.55567e-05
0.000320732
0.000157679
0.000145327
0.000385636
0.00011197
0.000396388
0.00022344
0.000391269
0.000512046
0.000342528
0.000391337
0.000394706
0.000105992
0.000104808
0.000219937
0.000216438
0.000366233
0.000496493
0.000340938
0.000512621
0.000506365
0.00010813
0.00021447
0.000156532
0.000156345
0.00022078
0.000330299
8.81279e-05
0.000157687
0.000334361
0.000217797
0.000219212
0.000326747
0.000323572
9.14218e-05
0.000167242
0.000341039
8.75798e-05
0.000216957
0.000323519
8.5725e-05
0.000380872
0.000336219
0.00052621
8.83798e-05
0.00034377
0.000160359
0.000155101
0.000389672
0.000508339
0.000341948
0.000490203
0.000497064
9.49373e-05
0.000331424
0.000168137
8.75299e-05
0.000156953
0.000496005
0.000515256
0.000153941
0.000151036
0.00014835
8.81668e-05
0.000106321
0.000215546
0.000216752
0.000328238
9.90881e-05
8.36651e-05
0.000105224
0.000327704
0.000216343
0.000107487
0.000327162
0.000218813
0.000217517
0.000217852
0.000106238
8.51561e-05
8.63506e-05
8.52017e-05
0.000219029
0.000215276
0.000327457
9.64138e-05
8.37455e-05
0.000327219
0.000103958
0.000215613
0.000215655
0.000220053
0.000107607
8.61664e-05
8.40351e-05
8.56587e-05
0.000149101
0.00014928
0.00015508
0.000168159
0.000158046
0.000326553
0.000514416
0.000344045
0.000519148
0.00033278
0.000511615
0.000380934
0.000333049
0.000500481
0.000375158
0.000153028
0.000144717
0.000148227
8.18276e-05
0.00033935
0.000510927
0.000158085
0.000158808
0.000516338
0.000343306
0.000165718
0.000174658
0.000509982
0.000350339
0.000403693
9.00559e-05
8.38066e-05
0.000353714
0.000490151
0.000388521
0.000364192
0.000507119
0.00038848
0.000401093
0.000369458
0.000172829
0.00051512
0.000332745
9.27742e-05
0.000500664
0.000374667
0.000142988
0.000150644
0.00014903
0.000157217
0.000164342
0.000512545
0.000337488
0.000396139
9.49866e-05
0.000493046
0.000169071
0.00051845
0.000331901
9.27813e-05
0.000393533
0.000144257
0.000145595
8.50669e-05
0.000222963
0.000222875
0.000329547
0.000109901
0.000330044
0.00021717
8.41932e-05
8.17548e-05
0.000515736
0.000327699
0.000509682
0.000339814
0.000162096
0.00015159
0.000512057
0.000320035
0.000369931
0.00014984
0.000173861
8.74695e-05
0.000219045
0.000218846
0.000326964
0.000214093
0.000215195
0.000325676
0.000111633
0.000326792
0.000221583
0.00010856
0.000367829
0.00032643
0.000220256
8.77808e-05
0.000500868
0.000324709
0.000379911
0.00015828
0.000147091
8.49648e-05
0.000217341
0.000220995
0.000327657
0.000372536
0.000104196
0.000324548
0.00021197
0.000322407
0.000341315
0.000154939
8.70282e-05
0.000171928
8.81042e-05
8.29339e-05
0.000331317
0.000110575
0.000222746
0.00022017
0.000217546
0.000109185
8.3402e-05
0.000338762
0.000317428
0.00053288
0.000396656
0.000497149
0.000357207
0.000382861
0.000391995
0.000174246
0.000336284
9.06066e-05
0.000511733
0.000497585
0.000378064
0.000329742
0.000105075
0.000214563
0.000325951
0.000106016
0.0003884
0.000215492
0.000217031
0.000215032
0.000105373
0.000385498
0.000361247
0.000219386
0.000213715
0.000107402
0.000361959
0.000398418
0.000158013
0.000357652
8.49457e-05
0.000509537
0.000494001
0.000373278
0.000323531
0.000106289
0.000373864
0.000215279
0.000215611
0.000216838
0.0003759
0.000107285
0.000384058
0.000161608
0.00033113
0.000162956
0.000337432
0.000514211
0.000504812
8.49061e-05
0.000170142
0.000168132
0.000164449
0.00014976
0.000501019
0.000163566
0.000333087
0.000392225
8.36687e-05
0.00050591
0.000505298
0.000165423
0.000359282
8.76814e-05
0.000385179
0.00014666
0.000144077
8.76092e-05
0.000495518
0.000148097
0.000324969
0.000382728
0.000158773
8.65549e-05
0.000215363
0.000215289
0.000324856
0.000371723
0.000322419
0.000155889
8.3913e-05
0.000327819
0.000173138
9.69132e-05
0.000475046
0.000510102
0.000150767
0.00032404
8.98435e-05
0.000407522
0.000327345
0.000392203
0.000107297
0.000216288
0.000378134
0.000366594
0.000344887
0.000154161
0.000505195
0.000504108
0.000182999
0.000336975
0.000148266
0.000150541
0.000339241
0.000167936
9.08001e-05
0.000343097
0.000161707
8.38529e-05
0.00049935
0.000505342
0.000332505
0.00016137
0.000326612
0.000166691
)
;
        value           nonuniform List<scalar> 
360
(
455.844
455.847
455.847
455.806
455.804
455.883
455.802
455.818
455.775
455.841
455.841
455.881
455.895
455.858
455.846
455.822
455.8
455.816
455.778
455.86
455.823
455.849
455.817
455.803
455.845
455.801
455.884
455.805
455.778
455.819
455.798
455.798
455.842
455.843
455.88
455.884
455.802
455.781
455.818
455.778
455.78
455.845
455.885
455.844
455.847
455.882
455.896
455.856
455.846
455.818
455.886
455.884
455.898
455.897
455.855
455.843
455.817
455.859
455.885
455.903
455.859
455.803
455.817
455.778
455.858
455.819
455.847
455.815
455.809
455.784
455.822
455.782
455.781
455.865
455.829
455.854
455.856
455.821
455.783
455.78
455.82
455.821
455.821
455.86
455.853
455.884
455.886
455.896
455.852
455.859
455.845
455.895
455.884
455.844
455.897
455.884
455.884
455.885
455.847
455.858
455.857
455.856
455.884
455.883
455.895
455.854
455.853
455.894
455.841
455.882
455.885
455.883
455.846
455.856
455.86
455.859
455.816
455.816
455.815
455.845
455.848
455.821
455.778
455.82
455.777
455.82
455.779
455.803
455.821
455.781
455.808
455.817
455.818
455.817
455.856
455.817
455.776
455.845
455.845
455.775
455.816
455.844
455.844
455.776
455.817
455.797
455.857
455.853
455.811
455.776
455.797
455.81
455.774
455.799
455.801
455.806
455.843
455.775
455.818
455.855
455.777
455.805
455.816
455.815
455.815
455.845
455.844
455.775
455.818
455.801
455.855
455.781
455.843
455.778
455.818
455.855
455.802
455.817
455.817
455.855
455.884
455.882
455.896
455.848
455.896
455.886
455.859
455.856
455.775
455.818
455.776
455.817
455.843
455.846
455.778
455.824
455.802
455.849
455.847
455.86
455.881
455.883
455.895
455.885
455.885
455.896
455.842
455.896
455.882
455.846
455.806
455.896
455.884
455.857
455.78
455.821
455.804
455.846
455.848
455.857
455.884
455.884
455.9
455.805
455.846
455.901
455.886
455.82
455.817
455.846
455.856
455.843
455.856
455.855
455.895
455.844
455.882
455.883
455.885
455.842
455.858
455.816
455.823
455.779
455.801
455.785
455.814
455.8
455.799
455.844
455.819
455.857
455.776
455.778
455.807
455.897
455.853
455.889
455.897
455.848
455.805
455.885
455.885
455.89
455.851
455.808
455.812
455.885
455.886
455.847
455.808
455.802
455.847
455.816
455.858
455.781
455.784
455.807
455.901
455.848
455.807
455.887
455.888
455.888
455.812
455.853
455.81
455.848
455.822
455.847
455.821
455.782
455.783
455.856
455.82
455.821
455.821
455.846
455.782
455.845
455.819
455.809
455.858
455.778
455.778
455.845
455.815
455.856
455.802
455.816
455.817
455.861
455.786
455.852
455.826
455.811
455.851
455.862
455.887
455.888
455.898
455.804
455.822
455.847
455.858
455.819
455.842
455.854
455.789
455.784
455.849
455.822
455.858
455.8
455.897
455.802
455.846
455.886
455.806
455.808
455.816
455.846
455.779
455.779
455.839
455.815
455.823
455.822
455.821
455.847
455.859
455.82
455.848
455.86
455.784
455.783
455.822
455.849
455.822
455.846
)
;
        Tnbr            T;
        thicknessLayers 0();
        kappaLayers     0();
        kappaMethod     solidThermo;
        kappa           none;
        alphaAni        none;
        alpha           none;
    }
}


// ************************************************************************* //
