/*--------------------------------*- C++ -*----------------------------------*\
| =========                 |                                                 |
| \\      /  F ield         | OpenFOAM: The Open Source CFD Toolbox           |
|  \\    /   O peration     | Version:  v1912                                 |
|   \\  /    A nd           | Website:  www.openfoam.com                      |
|    \\/     M anipulation  |                                                 |
\*---------------------------------------------------------------------------*/
FoamFile
{
    version     2.0;
    format      ascii;
    class       surfaceScalarField;
    location    "408/oil";
    object      phi;
}
// * * * * * * * * * * * * * * * * * * * * * * * * * * * * * * * * * * * * * //

dimensions      [1 0 -1 0 0 0 0];
oriented        oriented;


internalField   nonuniform List<scalar> 
104676
(
-1.23842e-11
2.84964e-11
-1.57137e-11
2.84445e-10
-2.3347e-10
-6.33424e-11
8.91826e-10
-4.38442e-10
-1.68941e-10
1.71592e-09
-5.35079e-10
-2.89021e-10
2.63563e-09
-5.47146e-10
-3.72571e-10
3.52993e-09
-4.97536e-10
-3.96762e-10
4.28955e-09
-4.04276e-10
-3.55345e-10
4.82317e-09
-2.8076e-10
-2.52849e-10
5.05964e-09
-1.37355e-10
-9.91123e-11
4.96018e-09
1.30042e-11
8.64713e-11
4.50595e-09
1.68399e-10
2.85825e-10
3.72842e-09
2.95189e-10
4.82341e-10
2.66823e-09
4.10405e-10
6.49783e-10
1.40153e-09
4.93859e-10
7.72844e-10
2.52666e-11
5.37956e-10
8.38302e-10
-1.35525e-09
5.40328e-10
8.40192e-10
-2.62531e-09
4.94266e-10
7.75798e-10
-3.6896e-09
4.09991e-10
6.54304e-10
-4.47449e-09
2.96871e-10
4.88027e-10
-4.93415e-09
1.64713e-10
2.94954e-10
-5.04564e-09
1.40812e-11
9.74082e-11
-4.81422e-09
-1.40269e-10
-9.11422e-11
-4.28475e-09
-2.83122e-10
-2.46348e-10
-3.5282e-09
-4.06477e-10
-3.5006e-10
-2.63642e-09
-4.99318e-10
-3.92463e-10
-1.71848e-09
-5.49874e-10
-3.6806e-10
-8.94909e-10
-5.39191e-10
-2.84376e-10
-2.87185e-10
-4.4315e-10
-1.64572e-10
1.05114e-11
-2.377e-10
-5.99937e-11
2.41195e-11
-1.36043e-11
2.90955e-10
-5.53386e-10
2.90946e-10
1.12375e-09
-1.66417e-09
5.97922e-10
2.44717e-09
-2.50252e-09
7.40655e-10
4.1141e-09
-3.01349e-09
8.11483e-10
5.92408e-09
-3.25858e-09
9.01454e-10
7.66123e-09
-3.29797e-09
1.06329e-09
9.12158e-09
-3.18323e-09
1.31862e-09
1.01286e-08
-2.95503e-09
1.66727e-09
1.05447e-08
-2.64749e-09
2.09404e-09
1.02818e-08
-2.29133e-09
2.56725e-09
9.29884e-09
-1.9166e-09
3.06794e-09
7.65016e-09
-1.58846e-09
3.53233e-09
5.45898e-09
-1.29986e-09
3.90145e-09
2.86415e-09
-1.09109e-09
4.17977e-09
5.10043e-11
-9.81909e-10
4.33301e-09
-2.77295e-09
-9.82603e-10
4.34689e-09
-5.37456e-09
-1.09623e-09
4.19211e-09
-7.56736e-09
-1.30871e-09
3.91151e-09
-9.20189e-09
-1.59794e-09
3.52935e-09
-1.01871e-08
-1.93239e-09
3.08234e-09
-1.0465e-08
-2.30199e-09
2.59397e-09
-1.00622e-08
-2.65557e-09
2.11254e-09
-9.07164e-09
-2.96008e-09
1.68635e-09
-7.629e-09
-3.18728e-09
1.33818e-09
-5.90639e-09
-3.30303e-09
1.08111e-09
-4.10937e-09
-3.26529e-09
9.18399e-10
-2.45057e-09
-3.02462e-09
8.26625e-10
-1.12799e-09
-2.51713e-09
7.51409e-10
-2.92382e-10
-1.67605e-09
6.02742e-10
-5.59593e-10
2.91335e-10
6.12752e-10
-1.78474e-09
6.18611e-10
1.94811e-09
-4.32333e-09
1.3238e-09
3.82144e-09
-6.13854e-09
1.76269e-09
6.04856e-09
-7.32344e-09
2.08283e-09
8.39891e-09
-8.00462e-09
2.3957e-09
1.06186e-08
-8.28703e-09
2.76937e-09
1.24596e-08
-8.26105e-09
3.23684e-09
1.3702e-08
-8.00124e-09
3.80377e-09
1.41744e-08
-7.57545e-09
4.45561e-09
1.3767e-08
-7.04067e-09
5.15678e-09
1.2426e-08
-6.45874e-09
5.88313e-09
1.02082e-08
-5.90861e-09
6.53791e-09
7.27428e-09
-5.42621e-09
7.06032e-09
3.81335e-09
-5.07405e-09
7.44389e-09
6.5536e-11
-4.89253e-09
7.65843e-09
-3.70004e-09
-4.90123e-09
7.6842e-09
-7.17134e-09
-5.08617e-09
7.46126e-09
-1.01051e-08
-5.44035e-09
7.06545e-09
-1.23093e-08
-5.91923e-09
6.52544e-09
-1.36669e-08
-6.47417e-09
5.89943e-09
-1.40961e-08
-7.05476e-09
5.18199e-09
-1.36396e-08
-7.58554e-09
4.47348e-09
-1.2414e-08
-8.00912e-09
3.82337e-09
-1.05906e-08
-8.26697e-09
3.25632e-09
-8.38711e-09
-8.29438e-09
2.78787e-09
-6.04778e-09
-8.01676e-09
2.41214e-09
-3.82782e-09
-7.34046e-09
2.0959e-09
-1.95571e-09
-6.15917e-09
1.76994e-09
-6.16391e-10
-4.33939e-09
1.32403e-09
-1.7934e-09
6.17425e-10
8.78994e-10
-3.55343e-09
8.89694e-10
2.63732e-09
-8.00127e-09
1.91961e-09
4.95658e-09
-1.10542e-08
2.59643e-09
7.61038e-09
-1.30954e-08
3.11814e-09
1.03451e-08
-1.43574e-08
3.61813e-09
1.28873e-08
-1.50009e-08
4.17158e-09
1.49688e-08
-1.51593e-08
4.81686e-09
1.6349e-08
-1.49432e-08
5.56174e-09
1.68332e-08
-1.4453e-08
6.3934e-09
1.62948e-08
-1.37806e-08
7.27837e-09
1.46708e-08
-1.30192e-08
8.18444e-09
1.20379e-08
-1.22598e-08
8.98416e-09
8.57079e-09
-1.15984e-08
9.63925e-09
4.48975e-09
-1.10887e-08
1.00957e-08
7.40084e-11
-1.08291e-08
1.03523e-08
-4.36529e-09
-1.08475e-08
1.03856e-08
-8.46e-09
-1.11018e-08
1.01103e-08
-1.19288e-08
-1.15981e-08
9.62653e-09
-1.45494e-08
-1.2263e-08
8.96439e-09
-1.61868e-08
-1.30254e-08
8.18864e-09
-1.6745e-08
-1.3787e-08
7.29046e-09
-1.62786e-08
-1.44577e-08
6.40575e-09
-1.49178e-08
-1.49473e-08
5.57734e-09
-1.2854e-08
-1.51629e-08
4.83217e-09
-1.03289e-08
-1.50071e-08
4.18765e-09
-7.60886e-09
-1.43696e-08
3.63274e-09
-4.96198e-09
-1.31153e-08
3.12795e-09
-2.64483e-09
-1.10736e-08
2.59726e-09
-8.85502e-10
-8.0078e-09
1.90908e-09
-3.56532e-09
8.86418e-10
1.07984e-09
-5.72309e-09
1.08982e-09
3.16465e-09
-1.24413e-08
2.35521e-09
5.83331e-09
-1.69326e-08
3.20972e-09
8.81643e-09
-1.99589e-08
3.88043e-09
1.18392e-08
-2.1901e-08
4.52084e-09
1.46149e-08
-2.29919e-08
5.21531e-09
1.68641e-08
-2.34128e-08
6.00424e-09
1.83335e-08
-2.33113e-08
6.89862e-09
1.88194e-08
-2.28205e-08
7.88168e-09
1.81825e-08
-2.20652e-08
8.92151e-09
1.63554e-08
-2.11737e-08
9.98152e-09
1.34175e-08
-2.02577e-08
1.09358e-08
9.54532e-09
-1.94352e-08
1.1709e-08
4.99719e-09
-1.87673e-08
1.22267e-08
7.96232e-11
-1.84296e-08
1.25181e-08
-4.86555e-09
-1.84547e-08
1.25524e-08
-9.42326e-09
-1.87837e-08
1.22396e-08
-1.32899e-08
-1.94116e-08
1.16802e-08
-1.62256e-08
-2.02515e-08
1.09243e-08
-1.80679e-08
-2.1173e-08
9.98993e-09
-1.87251e-08
-2.20657e-08
8.93578e-09
-1.82587e-08
-2.28209e-08
7.89688e-09
-1.68078e-08
-2.33127e-08
6.91452e-09
-1.45756e-08
-2.34151e-08
6.02003e-09
-1.18165e-08
-2.29965e-08
5.23033e-09
-8.80927e-09
-2.19103e-08
4.53349e-09
-5.83674e-09
-1.99752e-08
3.88734e-09
-3.17009e-09
-1.69467e-08
3.20646e-09
-1.08548e-09
-1.24322e-08
2.33983e-09
-5.73773e-09
1.08692e-09
1.21478e-09
-8.16445e-09
1.22658e-09
3.53141e-09
-1.74039e-08
2.64603e-09
6.45404e-09
-2.3478e-08
3.62281e-09
9.67605e-09
-2.75809e-08
4.39998e-09
1.29064e-08
-3.02741e-08
5.1427e-09
1.58498e-08
-3.18807e-08
5.94546e-09
1.82204e-08
-3.26343e-08
6.85095e-09
1.97578e-08
-3.27212e-08
7.87259e-09
2.02506e-08
-3.23051e-08
8.99173e-09
1.95548e-08
-3.15399e-08
1.01706e-08
1.75994e-08
-3.05822e-08
1.13639e-08
1.44386e-08
-2.95861e-08
1.24892e-08
1.02671e-08
-2.86482e-08
1.33845e-08
5.37194e-09
-2.78335e-08
1.39613e-08
7.96085e-11
-2.7408e-08
1.42707e-08
-5.24272e-09
-2.74352e-08
1.43029e-08
-1.01376e-08
-2.7871e-08
1.39822e-08
-1.42951e-08
-2.86021e-08
1.33481e-08
-1.74597e-08
-2.95719e-08
1.2485e-08
-1.94335e-08
-3.0578e-08
1.13788e-08
-2.01521e-08
-3.15363e-08
1.01893e-08
-1.96801e-08
-3.23033e-08
9.01043e-09
-1.81617e-08
-3.27219e-08
7.89071e-09
-1.58083e-08
-3.26364e-08
6.8679e-09
-1.28799e-08
-3.18846e-08
5.95974e-09
-9.66375e-09
-3.02808e-08
5.15436e-09
-6.45339e-09
-2.75905e-08
4.40495e-09
-3.53709e-09
-2.34793e-08
3.61629e-09
-1.22104e-09
-1.73783e-08
2.62999e-09
-8.18379e-09
1.22502e-09
1.28269e-09
-1.07578e-08
1.31065e-09
3.74193e-09
-2.26979e-08
2.83472e-09
6.82465e-09
-3.04365e-08
3.87576e-09
1.01948e-08
-3.56627e-08
4.71173e-09
1.35526e-08
-3.91556e-08
5.52372e-09
1.65996e-08
-4.13349e-08
6.40716e-09
1.90491e-08
-4.24905e-08
7.4067e-09
2.06356e-08
-4.28461e-08
8.53842e-09
2.11446e-08
-4.25946e-08
9.78054e-09
2.04237e-08
-4.19106e-08
1.10916e-08
1.84006e-08
-4.09784e-08
1.24193e-08
1.50935e-08
-3.99771e-08
1.36981e-08
1.07376e-08
-3.90143e-08
1.47221e-08
5.61731e-09
-3.80663e-08
1.5353e-08
8.66723e-11
-3.75607e-08
1.56834e-08
-5.46922e-09
-3.76022e-08
1.57229e-08
-1.06062e-08
-3.81369e-08
1.54028e-08
-1.49463e-08
-3.89587e-08
1.46968e-08
-1.8257e-08
-3.99632e-08
1.37019e-08
-2.02999e-08
-4.09776e-08
1.24425e-08
-2.10434e-08
-4.19105e-08
1.11176e-08
-2.05562e-08
-4.2595e-08
9.80455e-09
-1.89888e-08
-4.2849e-08
8.55974e-09
-1.65569e-08
-4.24952e-08
7.42686e-09
-1.35238e-08
-4.13402e-08
6.42254e-09
-1.01795e-08
-3.91603e-08
5.53522e-09
-6.82197e-09
-3.56623e-08
4.71429e-09
-3.75136e-09
-3.04108e-08
3.86098e-09
-1.29827e-09
-2.26357e-08
2.80433e-09
-1.07892e-08
1.30712e-09
1.30812e-09
-1.34043e-08
1.33842e-09
3.80888e-09
-2.81055e-08
2.90684e-09
6.94448e-09
-3.75506e-08
3.97853e-09
1.03651e-08
-4.39229e-08
4.83952e-09
1.37612e-08
-4.82371e-08
5.68537e-09
1.68389e-08
-5.10354e-08
6.62292e-09
1.93159e-08
-5.26616e-08
7.69413e-09
2.09286e-08
-5.33733e-08
8.91455e-09
2.14577e-08
-5.33867e-08
1.0263e-08
2.07483e-08
-5.28954e-08
1.16942e-08
1.8715e-08
-5.20945e-08
1.31494e-08
1.53574e-08
-5.11875e-08
1.4568e-08
1.09193e-08
-5.03125e-08
1.57364e-08
5.70412e-09
-4.92549e-08
1.64038e-08
8.61839e-11
-4.87144e-08
1.67716e-08
-5.5649e-09
-4.87652e-08
1.6814e-08
-1.0817e-08
-4.93275e-08
1.64428e-08
-1.52203e-08
-5.02534e-08
1.56979e-08
-1.8573e-08
-5.11766e-08
1.45661e-08
-2.06246e-08
-5.20979e-08
1.3172e-08
-2.13573e-08
-5.28982e-08
1.17205e-08
-2.08496e-08
-5.33905e-08
1.02878e-08
-1.92554e-08
-5.33806e-08
8.93734e-09
-1.67948e-08
-5.26715e-08
7.71578e-09
-1.37308e-08
-5.10448e-08
6.64062e-09
-1.03486e-08
-4.82397e-08
5.69722e-09
-6.94545e-09
-4.38992e-08
4.8337e-09
-3.82415e-09
-3.748e-08
3.94785e-09
-1.3223e-09
-2.80041e-08
2.86659e-09
-1.34488e-08
1.33735e-09
1.28542e-09
-1.60039e-08
1.31416e-09
3.72661e-09
-3.34145e-08
2.86777e-09
6.79814e-09
-4.45716e-08
3.9495e-09
1.01595e-08
-5.2096e-08
4.81169e-09
1.34988e-08
-5.72261e-08
5.64973e-09
1.65211e-08
-6.06545e-08
6.59681e-09
1.89602e-08
-6.28049e-08
7.7042e-09
2.05624e-08
-6.39549e-08
8.97939e-09
2.11088e-08
-6.43321e-08
1.03991e-08
2.0441e-08
-6.41447e-08
1.19171e-08
1.84782e-08
-6.35915e-08
1.34598e-08
1.52055e-08
-6.2869e-08
1.49543e-08
1.07933e-08
-6.21421e-08
1.62418e-08
5.63093e-09
-6.10518e-08
1.69593e-08
8.16138e-11
-6.05575e-08
1.73924e-08
-5.50783e-09
-6.06024e-08
1.74267e-08
-1.07215e-08
-6.10791e-08
1.69653e-08
-1.50931e-08
-6.20519e-08
1.61701e-08
-1.83431e-08
-6.28586e-08
1.4932e-08
-2.03202e-08
-6.35983e-08
1.34775e-08
-2.10093e-08
-6.41527e-08
1.19436e-08
-2.04838e-08
-6.43408e-08
1.04248e-08
-1.89001e-08
-6.39672e-08
9.00295e-09
-1.64768e-08
-6.28212e-08
7.72629e-09
-1.34695e-08
-6.0664e-08
6.61191e-09
-1.01537e-08
-5.71981e-08
5.64273e-09
-6.81601e-09
-5.20042e-08
4.76732e-09
-3.75279e-09
-4.44268e-08
3.8836e-09
-1.29417e-09
-3.32843e-08
2.82159e-09
-1.60579e-08
1.31486e-09
1.21946e-09
-1.84556e-08
1.23225e-09
3.52367e-09
-3.84111e-08
2.69247e-09
6.39332e-09
-5.1187e-08
3.74571e-09
9.55623e-09
-5.98625e-08
4.60358e-09
1.27243e-08
-6.58119e-08
5.41777e-09
1.5594e-08
-6.98469e-08
6.32265e-09
1.79155e-08
-7.25394e-08
7.41307e-09
1.94551e-08
-7.41862e-08
8.69175e-09
2.00072e-08
-7.50123e-08
1.01281e-08
1.94102e-08
-7.5223e-08
1.16753e-08
1.75871e-08
-7.50162e-08
1.32479e-08
1.45229e-08
-7.45691e-08
1.47643e-08
1.02764e-08
-7.40097e-08
1.61142e-08
5.35795e-09
-7.30267e-08
1.68933e-08
7.56311e-11
-7.26274e-08
1.73522e-08
-5.23757e-09
-7.26698e-08
1.73806e-08
-1.01898e-08
-7.30003e-08
1.68735e-08
-1.44131e-08
-7.38286e-08
1.6e-08
-1.7461e-08
-7.45442e-08
1.47334e-08
-1.92937e-08
-7.50283e-08
1.32627e-08
-1.99113e-08
-7.52359e-08
1.17008e-08
-1.93803e-08
-7.50249e-08
1.01532e-08
-1.78571e-08
-7.4205e-08
8.71458e-09
-1.55484e-08
-7.25619e-08
7.43211e-09
-1.27016e-08
-6.98323e-08
6.32149e-09
-9.56882e-09
-6.56957e-08
5.36479e-09
-6.41484e-09
-5.96684e-08
4.51026e-09
-3.52677e-09
-5.09758e-08
3.66096e-09
-1.21514e-09
-3.82504e-08
2.65446e-09
-1.85115e-08
1.23848e-09
1.10039e-09
-2.06496e-08
1.09362e-09
3.18679e-09
-4.28559e-08
2.35838e-09
5.75824e-09
-5.70607e-08
3.3023e-09
8.56785e-09
-6.68135e-08
4.14142e-09
1.14171e-08
-7.35889e-08
4.92776e-09
1.4015e-08
-7.82092e-08
5.76443e-09
1.6128e-08
-8.14339e-08
6.78152e-09
1.7546e-08
-8.36052e-08
8.00098e-09
1.80792e-08
-8.49247e-08
9.3792e-09
1.75803e-08
-8.55838e-08
1.08598e-08
1.59928e-08
-8.57575e-08
1.23288e-08
1.32755e-08
-8.55737e-08
1.37219e-08
9.36346e-09
-8.51397e-08
1.5042e-08
4.87276e-09
-8.44947e-08
1.59587e-08
6.83702e-11
-8.42607e-08
1.64377e-08
-4.75489e-09
-8.43032e-08
1.64567e-08
-9.22195e-09
-8.44733e-08
1.59401e-08
-1.30626e-08
-8.50499e-08
1.5062e-08
-1.5818e-08
-8.56815e-08
1.38928e-08
-1.74606e-08
-8.58057e-08
1.24201e-08
-1.79855e-08
-8.56033e-08
1.08923e-08
-1.74752e-08
-8.4934e-08
9.39877e-09
-1.60707e-08
-8.36264e-08
8.01695e-09
-1.39657e-08
-8.14574e-08
6.79044e-09
-1.13923e-08
-7.8141e-08
5.73542e-09
-8.56748e-09
-7.33506e-08
4.83009e-09
-5.7217e-09
-6.65392e-08
4.02498e-09
-3.13018e-09
-5.68151e-08
3.24772e-09
-1.06813e-09
-4.26618e-08
2.34938e-09
-2.06809e-08
1.10128e-09
9.27089e-10
-2.24792e-08
9.02501e-10
2.70458e-09
-4.65289e-08
1.89547e-09
4.87716e-09
-6.18412e-08
2.60784e-09
7.23334e-09
-7.24931e-08
3.32342e-09
9.58023e-09
-8.00154e-08
4.07962e-09
1.17598e-08
-8.52476e-08
4.85877e-09
1.35615e-08
-8.89913e-08
5.75574e-09
1.48e-08
-9.16861e-08
6.84243e-09
1.53033e-08
-9.35033e-08
8.07529e-09
1.49369e-08
-9.45774e-08
9.36008e-09
1.36113e-08
-9.50507e-08
1.06189e-08
1.12435e-08
-9.51587e-08
1.19528e-08
7.94122e-09
-9.50487e-08
1.32113e-08
4.14497e-09
-9.47575e-08
1.4059e-08
5.68091e-11
-9.46624e-08
1.44899e-08
-4.06061e-09
-9.46377e-08
1.4452e-08
-7.86345e-09
-9.46069e-08
1.39366e-08
-1.11182e-08
-9.4914e-08
1.3119e-08
-1.34429e-08
-9.54275e-08
1.20706e-08
-1.47981e-08
-9.51456e-08
1.06951e-08
-1.51986e-08
-9.45619e-08
9.3591e-09
-1.47285e-08
-9.34663e-08
8.06214e-09
-1.35057e-08
-9.16886e-08
6.83945e-09
-1.16928e-08
-8.90143e-08
5.74406e-09
-9.51383e-09
-8.51354e-08
4.81546e-09
-7.14971e-09
-7.97579e-08
4.04316e-09
-4.80038e-09
-7.22788e-08
3.39032e-09
-2.64343e-09
-6.17289e-08
2.75687e-09
-9.11845e-10
-4.63914e-08
1.99797e-09
-2.25252e-08
9.3247e-10
7.11175e-10
-2.38706e-08
6.80247e-10
2.04853e-09
-4.93155e-08
1.44929e-09
3.72558e-09
-6.54754e-08
1.95721e-09
5.5217e-09
-7.66846e-08
2.3954e-09
7.26268e-09
-8.46947e-08
2.93837e-09
8.8831e-09
-9.04639e-08
3.59579e-09
1.02497e-08
-9.46952e-08
4.33725e-09
1.1238e-08
-9.7854e-08
5.17955e-09
1.17206e-08
-1.00109e-07
6.12348e-09
1.14626e-08
-1.01466e-07
7.1462e-09
1.0327e-08
-1.02198e-07
8.28301e-09
8.42391e-09
-1.02706e-07
9.45072e-09
6.03134e-09
-1.03091e-07
1.04351e-08
3.18543e-09
-1.03023e-07
1.11115e-08
4.94727e-11
-1.02962e-07
1.14359e-08
-3.13875e-09
-1.0281e-07
1.13603e-08
-6.04309e-09
-1.02646e-07
1.0943e-08
-8.48793e-09
-1.02709e-07
1.02403e-08
-1.03332e-08
-1.02829e-07
9.24651e-09
-1.13565e-08
-1.0215e-07
8.02808e-09
-1.16053e-08
-1.01289e-07
6.97642e-09
-1.12081e-08
-9.9867e-08
6.00342e-09
-1.02727e-08
-9.77335e-08
5.10955e-09
-8.91316e-09
-9.47308e-08
4.35691e-09
-7.25681e-09
-9.04998e-08
3.70808e-09
-5.45719e-09
-8.46755e-08
3.11799e-09
-3.66365e-09
-7.66684e-08
2.59597e-09
-2.01685e-09
-6.54699e-08
2.09421e-09
-6.96683e-10
-4.92249e-08
1.51337e-09
-2.39269e-08
7.05014e-10
4.80329e-10
-2.47645e-08
4.13597e-10
1.2954e-09
-5.10001e-08
8.6948e-10
2.34167e-09
-6.77793e-08
1.25766e-09
3.47725e-09
-7.93904e-08
1.57023e-09
4.59136e-09
-8.77387e-08
1.92992e-09
5.63402e-09
-9.38505e-08
2.34394e-09
6.50954e-09
-9.83546e-08
2.78382e-09
7.10389e-09
-1.01673e-07
3.22491e-09
7.4242e-09
-1.04135e-07
3.70531e-09
7.23679e-09
-1.0569e-07
4.41233e-09
6.49184e-09
-1.06735e-07
5.28199e-09
5.33935e-09
-1.07635e-07
6.08163e-09
3.83186e-09
-1.08291e-07
6.70687e-09
2.03077e-09
-1.08363e-07
7.1411e-09
5.97196e-11
-1.08374e-07
7.38207e-09
-1.94126e-09
-1.0817e-07
7.36097e-09
-3.7756e-09
-1.07927e-07
7.11618e-09
-5.28945e-09
-1.07865e-07
6.66959e-09
-6.47203e-09
-1.07707e-07
6.06048e-09
-7.19927e-09
-1.0668e-07
5.25679e-09
-7.47016e-09
-1.05427e-07
4.40827e-09
-7.25839e-09
-1.03696e-07
3.61763e-09
-6.61718e-09
-1.01386e-07
3.0109e-09
-5.66992e-09
-9.82735e-08
2.59552e-09
-4.57661e-09
-9.38595e-08
2.26641e-09
-3.42817e-09
-8.77694e-08
1.94552e-09
-2.29506e-09
-7.94286e-08
1.62714e-09
-1.25968e-09
-6.7817e-08
1.31175e-09
-4.35538e-10
-5.09949e-08
9.45823e-10
-2.48027e-08
4.40288e-10
1.75374e-10
-2.50803e-08
1.40399e-10
4.49875e-10
-5.15752e-08
3.0061e-10
8.17866e-10
-6.85962e-08
4.48854e-10
1.22203e-09
-8.03552e-08
5.60617e-10
1.63019e-09
-8.88194e-08
6.72499e-10
2.04373e-09
-9.50298e-08
7.65749e-10
2.42833e-09
-9.95862e-08
8.47054e-10
2.65788e-09
-1.02882e-07
9.79027e-10
2.69006e-09
-1.05353e-07
1.18568e-09
2.54499e-09
-1.07026e-07
1.48036e-09
2.31442e-09
-1.08294e-07
1.78912e-09
1.97633e-09
-1.09348e-07
2.05031e-09
1.34025e-09
-1.09882e-07
2.22737e-09
6.65502e-10
-1.10042e-07
2.35296e-09
3.45544e-11
-1.10222e-07
2.47907e-09
-6.67666e-10
-1.10054e-07
2.58608e-09
-1.32466e-09
-1.09851e-07
2.58095e-09
-1.84396e-09
-1.09757e-07
2.41146e-09
-2.253e-09
-1.09484e-07
2.18678e-09
-2.50595e-09
-1.08338e-07
1.91128e-09
-2.60877e-09
-1.06944e-07
1.62023e-09
-2.54454e-09
-1.051e-07
1.33912e-09
-2.32134e-09
-1.02719e-07
1.10969e-09
-1.98642e-09
-9.95437e-08
9.35278e-10
-1.59716e-09
-9.50391e-08
7.90346e-10
-1.19002e-09
-8.88367e-08
6.6013e-10
-7.90072e-10
-8.03745e-08
5.4598e-10
-4.28685e-10
-6.86177e-08
4.39339e-10
-1.47369e-10
-5.15898e-08
3.13641e-10
-2.51011e-08
1.51045e-10
-1.23926e-10
-2.482e-08
-1.36311e-10
-3.85201e-10
-5.10388e-08
-2.75079e-10
-7.06613e-10
-6.78997e-08
-3.75102e-10
-1.05834e-09
-7.95363e-08
-4.67227e-10
-1.42109e-09
-8.79037e-08
-5.52904e-10
-1.78566e-09
-9.40511e-08
-6.14031e-10
-2.12594e-09
-9.85859e-08
-6.60018e-10
-2.34209e-09
-1.01915e-07
-7.50334e-10
-2.34682e-09
-1.04388e-07
-9.59853e-10
-2.18931e-09
-1.0591e-07
-1.27338e-09
-1.98499e-09
-1.06926e-07
-1.57156e-09
-1.80786e-09
-1.07753e-07
-1.77139e-09
-1.52737e-09
-1.08261e-07
-1.90107e-09
-9.42712e-10
-1.0859e-07
-2.03656e-09
-9.05899e-11
-1.08831e-07
-2.24273e-09
6.09523e-10
-1.08431e-07
-2.32248e-09
1.21229e-09
-1.08225e-07
-2.22889e-09
1.75407e-09
-1.08217e-07
-2.08175e-09
2.05266e-09
-1.0789e-07
-1.89242e-09
2.24439e-09
-1.0686e-07
-1.66997e-09
2.33964e-09
-1.05618e-07
-1.42168e-09
2.28789e-09
-1.03881e-07
-1.16709e-09
2.10878e-09
-1.01572e-07
-9.67494e-10
1.80811e-09
-9.84196e-08
-8.23507e-10
1.45958e-09
-9.39775e-08
-7.13083e-10
1.09802e-09
-8.78667e-08
-6.08447e-10
7.36941e-10
-7.95093e-08
-5.04151e-10
4.09667e-10
-6.7891e-08
-3.995e-10
1.47613e-10
-5.10503e-08
-2.77482e-10
-2.48243e-08
-1.29198e-10
-4.20114e-10
-2.39758e-08
-4.24135e-10
-1.22077e-09
-4.93306e-08
-9.0753e-10
-2.22024e-09
-6.564e-08
-1.26029e-09
-3.3148e-09
-7.68766e-08
-1.56512e-09
-4.41458e-09
-8.49207e-08
-1.88324e-09
-5.43399e-09
-9.07929e-08
-2.23875e-09
-6.2809e-09
-9.51019e-08
-2.63695e-09
-6.88054e-09
-9.82298e-08
-3.08574e-09
-7.15783e-09
-1.00521e-07
-3.58963e-09
-6.94389e-09
-1.01882e-07
-4.24206e-09
-6.2307e-09
-1.02581e-07
-5.05833e-09
-5.20339e-09
-1.02987e-07
-5.79355e-09
-3.80586e-09
-1.033e-07
-6.35868e-09
-2.04834e-09
-1.03545e-07
-6.80243e-09
-3.73179e-11
-1.03752e-07
-7.09031e-09
1.90533e-09
-1.0331e-07
-7.06363e-09
3.73195e-09
-1.03232e-07
-6.81969e-09
5.33028e-09
-1.03436e-07
-6.37927e-09
6.28941e-09
-1.03078e-07
-5.77148e-09
6.91283e-09
-1.02404e-07
-5.07892e-09
7.18903e-09
-1.01611e-07
-4.28256e-09
6.98258e-09
-1.00223e-07
-3.45138e-09
6.38541e-09
-9.80707e-08
-2.90411e-09
5.47189e-09
-9.49662e-08
-2.53982e-09
4.42271e-09
-9.07159e-08
-2.21246e-09
3.33623e-09
-8.48951e-08
-1.88509e-09
2.24589e-09
-7.68662e-08
-1.55274e-09
1.25544e-09
-6.56728e-08
-1.22769e-09
4.56047e-10
-4.9397e-08
-8.53881e-10
-2.39612e-08
-4.07126e-10
-6.87275e-10
-2.25995e-08
-6.89022e-10
-1.98153e-09
-4.65562e-08
-1.48017e-09
-3.59802e-09
-6.19684e-08
-2.05508e-09
-5.35989e-09
-7.25633e-08
-2.5515e-09
-7.12148e-09
-8.00895e-08
-3.0696e-09
-8.73019e-09
-8.55146e-08
-3.66956e-09
-1.00417e-08
-8.94294e-08
-4.36091e-09
-1.09702e-08
-9.21398e-08
-5.16139e-09
-1.14341e-08
-9.39932e-08
-6.06389e-09
-1.12053e-08
-9.51052e-08
-7.00531e-09
-1.012e-08
-9.55787e-08
-8.08791e-09
-8.31841e-09
-9.55806e-08
-9.20817e-09
-5.96112e-09
-9.55016e-08
-1.0156e-08
-3.15142e-09
-9.55079e-08
-1.08465e-08
-4.12625e-11
-9.56434e-08
-1.12187e-08
3.05327e-09
-9.52707e-08
-1.11343e-08
5.93559e-09
-9.53356e-08
-1.07791e-08
8.4315e-09
-9.58241e-08
-1.01081e-08
1.0129e-08
-9.56403e-08
-9.13505e-09
1.11552e-08
-9.5368e-08
-8.06255e-09
1.14659e-08
-9.49387e-08
-6.98336e-09
1.1073e-08
-9.3929e-08
-5.90106e-09
1.01017e-08
-9.21325e-08
-4.96694e-09
8.72452e-09
-8.93993e-08
-4.18977e-09
7.09363e-09
-8.55605e-08
-3.52454e-09
5.3656e-09
-8.02352e-08
-2.9318e-09
3.63873e-09
-7.27266e-08
-2.41272e-09
2.04336e-09
-6.21596e-08
-1.91786e-09
7.29935e-10
-4.6735e-08
-1.34857e-09
-2.25805e-08
-6.50689e-10
-9.17332e-10
-2.07711e-08
-9.11071e-10
-2.62063e-09
-4.2892e-08
-1.96097e-09
-4.75206e-09
-5.71007e-08
-2.73628e-09
-7.07866e-09
-6.68581e-08
-3.37865e-09
-9.4156e-09
-7.37187e-08
-4.03392e-09
-1.15803e-08
-7.85512e-08
-4.79855e-09
-1.33821e-08
-8.19095e-08
-5.71801e-09
-1.45991e-08
-8.41223e-08
-6.80046e-09
-1.50954e-08
-8.54875e-08
-8.00935e-09
-1.4741e-08
-8.61984e-08
-9.26116e-09
-1.34135e-08
-8.64009e-08
-1.05054e-08
-1.10391e-08
-8.61771e-08
-1.17779e-08
-7.841e-09
-8.57185e-08
-1.29814e-08
-4.10841e-09
-8.53782e-08
-1.38624e-08
-3.35425e-11
-8.53889e-08
-1.43294e-08
4.03187e-09
-8.51245e-08
-1.42116e-08
7.80167e-09
-8.53353e-08
-1.37701e-08
1.10498e-08
-8.60813e-08
-1.29909e-08
1.33828e-08
-8.62595e-08
-1.17137e-08
1.47257e-08
-8.63567e-08
-1.03542e-08
1.5116e-08
-8.61801e-08
-9.14881e-09
1.46438e-08
-8.55075e-08
-7.94928e-09
1.34261e-08
-8.41574e-08
-6.75745e-09
1.16452e-08
-8.19378e-08
-5.68059e-09
9.48644e-09
-7.8626e-08
-4.77578e-09
7.1646e-09
-7.39238e-08
-3.98959e-09
4.86482e-09
-6.72095e-08
-3.21727e-09
2.72037e-09
-5.7526e-08
-2.48908e-09
9.61144e-10
-4.32189e-08
-1.75692e-09
-2.07586e-08
-8.60836e-10
-1.096e-09
-1.859e-08
-1.08507e-09
-3.12192e-09
-3.85425e-08
-2.32356e-09
-5.68466e-09
-5.12901e-08
-3.24792e-09
-8.51248e-09
-6.00061e-08
-4.02414e-09
-1.13342e-08
-6.60823e-08
-4.81467e-09
-1.39082e-08
-7.02692e-08
-5.7081e-09
-1.60141e-08
-7.3046e-08
-6.75751e-09
-1.74224e-08
-7.47399e-08
-7.9742e-09
-1.79481e-08
-7.5614e-08
-9.3477e-09
-1.74517e-08
-7.58754e-08
-1.08193e-08
-1.58639e-08
-7.57065e-08
-1.22822e-08
-1.31378e-08
-7.52697e-08
-1.36335e-08
-9.31626e-09
-7.46613e-08
-1.48789e-08
-4.83636e-09
-7.39849e-08
-1.58732e-08
-2.45008e-11
-7.37594e-08
-1.64415e-08
4.77044e-09
-7.35705e-08
-1.6349e-08
9.23702e-09
-7.3941e-08
-1.58609e-08
1.30545e-08
-7.48754e-08
-1.50234e-08
1.58163e-08
-7.53238e-08
-1.36973e-08
1.74433e-08
-7.5722e-08
-1.22618e-08
1.79571e-08
-7.58933e-08
-1.08006e-08
1.74401e-08
-7.56437e-08
-9.34688e-09
1.60376e-08
-7.47778e-08
-7.97719e-09
1.39437e-08
-7.30868e-08
-6.75699e-09
1.13645e-08
-7.03228e-08
-5.72399e-09
8.5242e-09
-6.61993e-08
-4.88426e-09
5.70088e-09
-6.02497e-08
-4.13654e-09
3.15332e-09
-5.16257e-08
-3.35271e-09
1.10425e-09
-3.87927e-08
-2.37706e-09
-1.85715e-08
-1.08276e-09
-1.21671e-09
-1.61391e-08
-1.23427e-09
-3.51978e-09
-3.35773e-08
-2.66213e-09
-6.40375e-09
-4.47409e-08
-3.66522e-09
-9.55503e-09
-5.23495e-08
-4.50536e-09
-1.26916e-08
-5.75939e-08
-5.35181e-09
-1.55471e-08
-6.11082e-08
-6.30546e-09
-1.78636e-08
-6.33142e-08
-7.41529e-09
-1.93984e-08
-6.45099e-08
-8.69515e-09
-1.99439e-08
-6.49332e-08
-1.01351e-08
-1.9346e-08
-6.47898e-08
-1.16835e-08
-1.75231e-08
-6.42771e-08
-1.32524e-08
-1.44783e-08
-6.35912e-08
-1.47233e-08
-1.02821e-08
-6.28667e-08
-1.59909e-08
-5.30015e-09
-6.20595e-08
-1.69075e-08
-1.6229e-11
-6.15868e-08
-1.74566e-08
5.2789e-09
-6.14666e-08
-1.73991e-08
1.02456e-08
-6.19759e-08
-1.69318e-08
1.44209e-08
-6.2932e-08
-1.61187e-08
1.74866e-08
-6.36119e-08
-1.47775e-08
1.93282e-08
-6.42959e-08
-1.32678e-08
1.99411e-08
-6.48112e-08
-1.16949e-08
1.94051e-08
-6.49607e-08
-1.01471e-08
1.78777e-08
-6.45438e-08
-8.70653e-09
1.55682e-08
-6.33546e-08
-7.42285e-09
1.27151e-08
-6.11547e-08
-6.315e-09
9.55947e-09
-5.76564e-08
-5.3872e-09
6.37585e-09
-5.2467e-08
-4.59906e-09
3.48564e-09
-4.49326e-08
-3.8029e-09
1.20888e-09
-3.37636e-08
-2.75241e-09
-1.61242e-08
-1.23851e-09
-1.27197e-09
-1.35401e-08
-1.32696e-09
-3.74739e-09
-2.82405e-08
-2.86142e-09
-6.8277e-09
-3.77647e-08
-3.89586e-09
-1.01747e-08
-4.42328e-08
-4.76966e-09
-1.3503e-08
-4.86209e-08
-5.64464e-09
-1.65244e-08
-5.14709e-08
-6.61595e-09
-1.89643e-08
-5.31406e-08
-7.73374e-09
-2.05662e-08
-5.38931e-08
-9.01485e-09
-2.11102e-08
-5.39457e-08
-1.04435e-08
-2.04364e-08
-5.34948e-08
-1.19687e-08
-1.84659e-08
-5.27294e-08
-1.35181e-08
-1.52028e-08
-5.18496e-08
-1.50046e-08
-1.08114e-08
-5.09721e-08
-1.6286e-08
-5.5654e-09
-5.01527e-08
-1.71529e-08
-8.51382e-12
-4.95767e-08
-1.75671e-08
5.56564e-09
-4.95273e-08
-1.75135e-08
1.07894e-08
-5.01007e-08
-1.7099e-08
1.51637e-08
-5.10103e-08
-1.62959e-08
1.84305e-08
-5.18656e-08
-1.50131e-08
2.04136e-08
-5.27448e-08
-1.35341e-08
2.11e-08
-5.35124e-08
-1.19852e-08
2.05671e-08
-5.39695e-08
-1.04583e-08
1.89741e-08
-5.39225e-08
-9.02843e-09
1.65387e-08
-5.31753e-08
-7.74386e-09
1.35201e-08
-5.15111e-08
-6.62489e-09
1.01888e-08
-4.86677e-08
-5.65746e-09
6.82215e-09
-4.42964e-08
-4.8039e-09
3.73315e-09
-3.78809e-08
-3.96272e-09
1.28277e-09
-2.84081e-08
-2.90508e-09
-1.35207e-08
-1.32068e-09
-1.31214e-09
-1.08784e-08
-1.34959e-09
-3.83445e-09
-2.28271e-08
-2.89108e-09
-6.97484e-09
-3.06644e-08
-3.95998e-09
-1.03967e-08
-3.59652e-08
-4.84569e-09
-1.37999e-08
-3.95056e-08
-5.71211e-09
-1.6886e-08
-4.17245e-08
-6.66047e-09
-1.93693e-08
-4.2915e-08
-7.7423e-09
-2.09857e-08
-4.33041e-08
-8.97251e-09
-2.15127e-08
-4.30858e-08
-1.03329e-08
-2.07946e-08
-4.24348e-08
-1.1778e-08
-1.87449e-08
-4.15333e-08
-1.32457e-08
-1.53898e-08
-4.05464e-08
-1.46584e-08
-1.09777e-08
-3.95663e-08
-1.5818e-08
-5.72646e-09
-3.87947e-08
-1.66093e-08
-4.51707e-11
-3.82937e-08
-1.69643e-08
5.60932e-09
-3.82402e-08
-1.69416e-08
1.08393e-08
-3.87317e-08
-1.65989e-08
1.532e-08
-3.96167e-08
-1.58743e-08
1.87092e-08
-4.05629e-08
-1.46919e-08
2.07688e-08
-4.15404e-08
-1.3264e-08
2.14992e-08
-4.24472e-08
-1.17956e-08
2.09817e-08
-4.31034e-08
-1.03486e-08
1.93732e-08
-4.33279e-08
-8.98614e-09
1.68951e-08
-4.29427e-08
-7.75452e-09
1.38117e-08
-4.17558e-08
-6.67192e-09
1.04086e-08
-3.95417e-08
-5.72289e-09
6.98118e-09
-3.60073e-08
-4.86158e-09
3.82586e-09
-3.07256e-08
-3.99999e-09
1.29954e-09
-2.29308e-08
-2.95105e-09
-1.08682e-08
-1.35295e-09
-1.3006e-09
-8.25837e-09
-1.31946e-09
-3.7705e-09
-1.75343e-08
-2.82289e-09
-6.86346e-09
-2.36925e-08
-3.87888e-09
-1.0247e-08
-2.78462e-08
-4.73552e-09
-1.36193e-08
-3.05717e-08
-5.56148e-09
-1.66811e-08
-3.22066e-08
-6.45601e-09
-1.91408e-08
-3.29872e-08
-7.46818e-09
-2.07342e-08
-3.30996e-08
-8.61107e-09
-2.12431e-08
-3.27069e-08
-9.87001e-09
-2.05105e-08
-3.19661e-08
-1.12012e-08
-1.84631e-08
-3.10311e-08
-1.25495e-08
-1.51637e-08
-3.00331e-08
-1.38126e-08
-1.08226e-08
-2.90881e-08
-1.48192e-08
-5.67338e-09
-2.83845e-08
-1.55595e-08
-5.11252e-11
-2.79936e-08
-1.59224e-08
5.5372e-09
-2.79348e-08
-1.58938e-08
1.06926e-08
-2.83359e-08
-1.55512e-08
1.50914e-08
-2.91318e-08
-1.48836e-08
1.84272e-08
-3.00519e-08
-1.38469e-08
2.04827e-08
-3.10341e-08
-1.25617e-08
2.1224e-08
-3.19729e-08
-1.12156e-08
2.07271e-08
-3.27203e-08
-9.88619e-09
1.91413e-08
-3.3116e-08
-8.62613e-09
1.66864e-08
-3.30076e-08
-7.48023e-09
1.36282e-08
-3.22307e-08
-6.46688e-09
1.02578e-08
-3.05992e-08
-5.57208e-09
6.8715e-09
-2.78749e-08
-4.74615e-09
3.77055e-09
-2.37288e-08
-3.89582e-09
1.28588e-09
-1.75887e-08
-2.85737e-09
-8.26047e-09
-1.32188e-09
-1.22802e-09
-5.79507e-09
-1.23529e-09
-3.56259e-09
-1.25534e-08
-2.64639e-09
-6.50429e-09
-1.71139e-08
-3.63692e-09
-9.74437e-09
-2.01755e-08
-4.43056e-09
-1.29924e-08
-2.21369e-08
-5.18675e-09
-1.59537e-08
-2.32461e-08
-5.99926e-09
-1.83374e-08
-2.36856e-08
-6.91801e-09
-1.9884e-08
-2.36013e-08
-7.95173e-09
-2.03776e-08
-2.31269e-08
-9.08632e-09
-1.96675e-08
-2.23882e-08
-1.02879e-08
-1.76832e-08
-2.15055e-08
-1.15098e-08
-1.45265e-08
-2.05867e-08
-1.26031e-08
-1.0359e-08
-1.97657e-08
-1.34899e-08
-5.42424e-09
-1.91601e-08
-1.41592e-08
-4.44664e-11
-1.88488e-08
-1.45246e-08
5.30579e-09
-1.88011e-08
-1.4484e-08
1.02494e-08
-1.9129e-08
-1.41505e-08
1.44603e-08
-1.97922e-08
-1.35505e-08
1.76485e-08
-2.0602e-08
-1.26381e-08
1.96385e-08
-2.15109e-08
-1.15132e-08
2.03575e-08
-2.23922e-08
-1.02997e-08
1.9874e-08
-2.31347e-08
-9.10202e-09
1.83362e-08
-2.36122e-08
-7.9661e-09
1.59575e-08
-2.36989e-08
-6.92999e-09
1.29996e-08
-2.32628e-08
-6.01003e-09
9.7508e-09
-2.21549e-08
-5.19554e-09
6.50992e-09
-2.01949e-08
-4.43911e-09
3.56661e-09
-1.71389e-08
-3.64664e-09
1.22525e-09
-1.25859e-08
-2.66142e-09
-5.79871e-09
-1.23652e-09
-1.09446e-09
-3.60454e-09
-1.09608e-09
-3.19835e-09
-8.09375e-09
-2.35573e-09
-5.89246e-09
-1.11928e-08
-3.22702e-09
-8.89511e-09
-1.3259e-08
-3.91389e-09
-1.19355e-08
-1.45296e-08
-4.56687e-09
-1.47303e-08
-1.51809e-08
-5.27038e-09
-1.69936e-08
-1.53504e-08
-6.07176e-09
-1.84724e-08
-1.51454e-08
-6.97713e-09
-1.89595e-08
-1.46651e-08
-7.97478e-09
-1.831e-08
-1.40029e-08
-9.03487e-09
-1.64672e-08
-1.32452e-08
-1.01031e-08
-1.353e-08
-1.24897e-08
-1.10342e-08
-9.64175e-09
-1.18292e-08
-1.18248e-08
-5.04047e-09
-1.1343e-08
-1.24184e-08
-3.77242e-11
-1.10938e-08
-1.27578e-08
4.94079e-09
-1.10658e-08
-1.27139e-08
9.54258e-09
-1.1325e-08
-1.24058e-08
1.34569e-08
-1.18374e-08
-1.18691e-08
1.64241e-08
-1.24956e-08
-1.10736e-08
1.8281e-08
-1.32491e-08
-1.01186e-08
1.89392e-08
-1.40052e-08
-9.04522e-09
1.84619e-08
-1.46691e-08
-7.98833e-09
1.69908e-08
-1.51513e-08
-6.98981e-09
1.47318e-08
-1.53583e-08
-6.08163e-09
1.19397e-08
-1.51904e-08
-5.28031e-09
8.89944e-09
-1.45405e-08
-4.57417e-09
5.89809e-09
-1.32733e-08
-3.9202e-09
3.20613e-09
-1.12157e-08
-3.2312e-09
1.09702e-09
-8.11826e-09
-2.35855e-09
-3.60704e-09
-1.09466e-09
-8.94692e-10
-1.8164e-09
-8.93468e-10
-2.67305e-09
-4.393e-09
-1.92242e-09