/*--------------------------------*- C++ -*----------------------------------*\
| =========                 |                                                 |
| \\      /  F ield         | OpenFOAM: The Open Source CFD Toolbox           |
|  \\    /   O peration     | Version:  v1906                                 |
|   \\  /    A nd           | Web:      www.OpenFOAM.com                      |
|    \\/     M anipulation  |                                                 |
\*---------------------------------------------------------------------------*/
FoamFile
{
    version     2.0;
    format      ascii;
    class       volVectorField;
    location    "89.8/oil";
    object      U;
}
// * * * * * * * * * * * * * * * * * * * * * * * * * * * * * * * * * * * * * //

dimensions      [0 1 -1 0 0 0 0];


internalField   nonuniform List<vector> 
27760
(
(-2.36026e-05 -2.40414e-05 -2.36025e-05)
(-4.65856e-05 -1.8031e-05 -1.70095e-05)
(-3.38684e-06 -4.6667e-06 -4.66688e-06)
(-5.49562e-06 -7.49223e-07 -8.72248e-07)
(-1.05156e-06 -2.27335e-07 -3.72077e-07)
(-2.91351e-07 -8.12242e-08 -2.40366e-07)
(3.9378e-07 8.35869e-09 -1.63358e-07)
(7.49569e-07 4.85679e-08 -1.32388e-07)
(9.49944e-07 7.25962e-08 -1.14213e-07)
(1.02497e-06 8.84209e-08 -1.01272e-07)
(9.96182e-07 9.98522e-08 -9.0405e-08)
(8.7696e-07 1.08783e-07 -8.0572e-08)
(6.8207e-07 1.15465e-07 -7.2477e-08)
(4.2893e-07 1.19997e-07 -6.66244e-08)
(1.38711e-07 1.22349e-07 -6.34948e-08)
(-1.64995e-07 1.22495e-07 -6.33519e-08)
(-4.57906e-07 1.2047e-07 -6.61502e-08)
(-7.17056e-07 1.16421e-07 -7.15195e-08)
(-9.22826e-07 1.10563e-07 -7.87818e-08)
(-1.06067e-06 1.03169e-07 -8.70274e-08)
(-1.12238e-06 9.4616e-08 -9.5025e-08)
(-1.10616e-06 8.5314e-08 -1.01327e-07)
(-1.01761e-06 7.50469e-08 -1.05162e-07)
(-8.69238e-07 6.43792e-08 -1.05113e-07)
(-6.79077e-07 5.35865e-08 -1.00163e-07)
(-4.70378e-07 4.31787e-08 -8.96953e-08)
(-2.70073e-07 3.41952e-08 -7.38876e-08)
(-1.06988e-07 2.84496e-08 -5.42054e-08)
(-6.1335e-09 2.80139e-08 -3.43696e-08)
(1.44053e-08 2.82179e-08 -1.43809e-08)
(-1.71198e-05 -4.78505e-05 -1.71198e-05)
(-5.58394e-06 -6.22617e-06 -7.66952e-06)
(-7.47395e-06 -7.56303e-06 -2.68786e-06)
(-3.23387e-06 -2.2385e-06 -7.81802e-07)
(-8.97714e-07 -1.38618e-06 -4.0179e-07)
(3.09927e-07 -7.70534e-07 -2.11603e-07)
(1.20329e-06 -4.85351e-07 -1.17939e-07)
(1.75949e-06 -3.09235e-07 -6.99607e-08)
(2.08149e-06 -1.85145e-07 -3.88545e-08)
(2.1901e-06 -8.51574e-08 -1.51596e-08)
(2.10405e-06 -2.74633e-10 5.23465e-09)
(1.8412e-06 7.17012e-08 2.2946e-08)
(1.42676e-06 1.29074e-07 3.74352e-08)
(8.949e-07 1.69498e-07 4.7845e-08)
(2.87955e-07 1.90857e-07 5.3401e-08)
(-3.46341e-07 1.92033e-07 5.36727e-08)
(-9.5862e-07 1.73302e-07 4.87419e-08)
(-1.50216e-06 1.36395e-07 3.91999e-08)
(-1.93701e-06 8.44254e-08 2.61355e-08)
(-2.23347e-06 2.15404e-08 1.0997e-08)
(-2.37462e-06 -4.73206e-08 -4.53191e-09)
(-2.35762e-06 -1.16774e-07 -1.86297e-08)
(-2.19358e-06 -1.8179e-07 -2.95133e-08)
(-1.90696e-06 -2.36644e-07 -3.58589e-08)
(-1.53392e-06 -2.75545e-07 -3.66051e-08)
(-1.11942e-06 -2.91962e-07 -3.1398e-08)
(-7.13743e-07 -2.78116e-07 -2.10718e-08)
(-3.6716e-07 -2.25559e-07 -8.2094e-09)
(-1.21516e-07 -1.28583e-07 1.7893e-09)
(-4.18537e-09 -1.06377e-08 4.22201e-09)
(-4.72953e-06 -4.53467e-06 -4.72951e-06)
(-7.36857e-06 -8.5948e-06 -2.7249e-06)
(-3.6494e-06 -5.03209e-06 -1.19026e-06)
(-1.83179e-06 -3.08884e-06 -5.52225e-07)
(-1.05136e-07 -2.28383e-06 -2.50103e-07)
(1.06642e-06 -1.75082e-06 -1.01606e-07)
(1.96531e-06 -1.42833e-06 -2.24574e-08)
(2.57212e-06 -1.18173e-06 2.35344e-08)
(2.92415e-06 -9.7073e-07 5.62927e-08)
(3.02328e-06 -7.77522e-07 8.29721e-08)
(2.87832e-06 -6.00201e-07 1.06478e-07)
(2.5059e-06 -4.43843e-07 1.27034e-07)
(1.936e-06 -3.16252e-07 1.43888e-07)
(1.21218e-06 -2.25264e-07 1.55968e-07)
(3.89643e-07 -1.76973e-07 1.624e-07)
(-4.68762e-07 -1.74518e-07 1.62715e-07)
(-1.2978e-06 -2.1742e-07 1.56977e-07)
(-2.03566e-06 -3.01479e-07 1.45848e-07)
(-2.62951e-06 -4.19036e-07 1.30478e-07)
(-3.04013e-06 -5.59668e-07 1.12468e-07)
(-3.24513e-06 -7.11033e-07 9.36107e-08)
(-3.24058e-06 -8.59632e-07 7.57652e-08)
(-3.04094e-06 -9.91375e-07 6.06221e-08)
(-2.67777e-06 -1.09211e-06 4.95003e-08)
(-2.19676e-06 -1.14715e-06 4.31788e-08)
(-1.65401e-06 -1.14103e-06 4.16186e-08)
(-1.11075e-06 -1.05705e-06 4.35425e-08)
(-6.25969e-07 -8.78308e-07 4.57577e-08)
(-2.51137e-07 -5.90954e-07 4.22678e-08)
(-2.33635e-08 -2.07908e-07 2.34056e-08)
(-8.39616e-07 -6.66349e-06 -8.396e-07)
(-1.81596e-06 -5.42628e-06 -7.42127e-07)
(-1.27694e-06 -4.81609e-06 -5.20013e-07)
(-2.85372e-07 -3.95316e-06 -2.47646e-07)
(8.99495e-07 -3.47245e-06 -8.76953e-08)
(1.89856e-06 -3.094e-06 4.6168e-09)
(2.72649e-06 -2.7912e-06 6.20617e-08)
(3.31925e-06 -2.50163e-06 1.01206e-07)
(3.65919e-06 -2.21135e-06 1.32568e-07)
(3.72691e-06 -1.92018e-06 1.60121e-07)
(3.5194e-06 -1.63923e-06 1.85228e-07)
(3.04978e-06 -1.38456e-06 2.07502e-07)
(2.34994e-06 -1.17349e-06 2.25863e-07)
(1.46965e-06 -1.02178e-06 2.39057e-07)
(4.73362e-07 -9.41064e-07 2.46081e-07)
(-5.64806e-07 -9.3736e-07 2.46396e-07)
(-1.56768e-06 -1.01006e-06 2.40064e-07)
(-2.46204e-06 -1.15179e-06 2.27774e-07)
(-3.18526e-06 -1.349e-06 2.10768e-07)
(-3.69091e-06 -1.58308e-06 1.9071e-07)
(-3.95244e-06 -1.83191e-06 1.69454e-07)
(-3.96505e-06 -2.0713e-06 1.48866e-07)
(-3.74528e-06 -2.27615e-06 1.30574e-07)
(-3.32909e-06 -2.42115e-06 1.15825e-07)
(-2.76821e-06 -2.48077e-06 1.05213e-07)
(-2.12531e-06 -2.42907e-06 9.84858e-08)
(-1.4683e-06 -2.23904e-06 9.41703e-08)
(-8.62083e-07 -1.88265e-06 8.86513e-08)
(-3.68598e-07 -1.32908e-06 7.53229e-08)
(-3.96273e-08 -5.4792e-07 3.96758e-08)
(-2.59334e-07 -2.70124e-06 -2.59317e-07)
(-7.28476e-07 -4.4064e-06 -2.95212e-07)
(-1.34407e-07 -4.96494e-06 -1.80561e-07)
(7.13869e-07 -4.98098e-06 -5.72148e-08)
(1.7163e-06 -4.91141e-06 2.86144e-08)
(2.64585e-06 -4.73938e-06 8.60118e-08)
(3.44075e-06 -4.49978e-06 1.27764e-07)
(4.02243e-06 -4.19255e-06 1.61152e-07)
(4.34604e-06 -3.83421e-06 1.91212e-07)
(4.37888e-06 -3.4466e-06 2.19584e-07)
(4.1095e-06 -3.05757e-06 2.46353e-07)
(3.54831e-06 -2.69732e-06 2.70506e-07)
(2.72871e-06 -2.3952e-06 2.90568e-07)
(1.70569e-06 -2.17667e-06 3.0504e-07)
(5.51763e-07 -2.06029e-06 3.12739e-07)
(-6.49072e-07 -2.0556e-06 3.1303e-07)
(-1.80905e-06 -2.16194e-06 3.05967e-07)
(-2.84481e-06 -2.36833e-06 2.92291e-07)
(-3.6851e-06 -2.65429e-06 2.73372e-07)
(-4.27716e-06 -2.99171e-06 2.50989e-07)
(-4.59085e-06 -3.34713e-06 2.2713e-07)
(-4.62058e-06 -3.68402e-06 2.03752e-07)
(-4.38447e-06 -3.96456e-06 1.82519e-07)
(-3.92198e-06 -4.151e-06 1.64655e-07)
(-3.28955e-06 -4.20579e-06 1.50692e-07)
(-2.55516e-06 -4.09131e-06 1.40261e-07)
(-1.79258e-06 -3.7684e-06 1.31758e-07)
(-1.07306e-06 -3.19362e-06 1.21162e-07)
(-4.70366e-07 -2.30869e-06 1.01093e-07)
(-5.27e-08 -1.01154e-06 5.27583e-08)
(-8.89211e-08 -2.61743e-06 -8.88964e-08)
(1.57599e-08 -4.76217e-06 -6.53948e-08)
(6.24075e-07 -5.9153e-06 -3.96987e-09)
(1.45379e-06 -6.4671e-06 5.77992e-08)
(2.40748e-06 -6.71303e-06 1.06983e-07)
(3.32602e-06 -6.717e-06 1.4525e-07)
(4.12036e-06 -6.5411e-06 1.78127e-07)
(4.70428e-06 -6.22164e-06 2.08729e-07)
(5.01764e-06 -5.79912e-06 2.39126e-07)
(5.01857e-06 -5.3157e-06 2.69471e-07)
(4.68957e-06 -4.81639e-06 2.98924e-07)
(4.03909e-06 -4.34666e-06 3.25886e-07)
(3.10235e-06 -3.94925e-06 3.48452e-07)
(1.93943e-06 -3.66041e-06 3.64778e-07)
(6.30974e-07 -3.50651e-06 3.73452e-07)
(-7.29229e-07 -3.50116e-06 3.73712e-07)
(-2.04284e-06 -3.6437e-06 3.65597e-07)
(-3.21645e-06 -3.91917e-06 3.49946e-07)
(-4.17024e-06 -4.29953e-06 3.28309e-07)
(-4.84525e-06 -4.74615e-06 3.02711e-07)
(-5.20811e-06 -5.21325e-06 2.7539e-07)
(-5.25244e-06 -5.65079e-06 2.48498e-07)
(-4.99814e-06 -6.0073e-06 2.23831e-07)
(-4.48823e-06 -6.23166e-06 2.02705e-07)
(-3.78383e-06 -6.27338e-06 1.85671e-07)
(-2.95843e-06 -6.08186e-06 1.723e-07)
(-2.09223e-06 -5.60347e-06 1.60853e-07)
(-1.26391e-06 -4.77447e-06 1.46847e-07)
(-5.59622e-07 -3.49895e-06 1.21963e-07)
(-6.35302e-08 -1.58062e-06 6.36029e-08)
(9.80504e-09 -2.7464e-06 9.84286e-09)
(3.70108e-07 -5.59927e-06 5.24378e-08)
(1.08512e-06 -7.31679e-06 9.35605e-08)
(1.98824e-06 -8.31446e-06 1.3e-07)
(2.98204e-06 -8.84381e-06 1.6176e-07)
(3.9408e-06 -9.01137e-06 1.90675e-07)
(4.76763e-06 -8.9005e-06 2.19739e-07)
(5.37277e-06 -8.57363e-06 2.50303e-07)
(5.6873e-06 -8.09177e-06 2.82883e-07)
(5.66299e-06 -7.51568e-06 3.16706e-07)
(5.27793e-06 -6.90741e-06 3.50193e-07)
(4.53939e-06 -6.32813e-06 3.81189e-07)
(3.48471e-06 -5.83443e-06 4.07285e-07)
(2.17972e-06 -5.47426e-06 4.26202e-07)
(7.13611e-07 -5.28235e-06 4.36229e-07)
(-8.09326e-07 -5.27665e-06 4.36454e-07)
(-2.27958e-06 -5.45663e-06 4.26905e-07)
(-3.59303e-06 -5.80308e-06 4.08545e-07)
(-4.6609e-06 -6.2799e-06 3.83178e-07)
(-5.41792e-06 -6.83737e-06 3.53207e-07)
(-5.82741e-06 -7.41659e-06 3.21227e-07)
(-5.8827e-06 -7.95352e-06 2.89708e-07)
(-5.60598e-06 -8.38254e-06 2.60729e-07)
(-5.0443e-06 -8.6386e-06 2.35748e-07)
(-4.26418e-06 -8.65744e-06 2.15407e-07)
(-3.34536e-06 -8.37421e-06 1.99237e-07)
(-2.37531e-06 -7.71824e-06 1.8535e-07)
(-1.44093e-06 -6.60076e-06 1.68751e-07)
(-6.4059e-07 -4.87879e-06 1.40029e-07)
(-7.30331e-08 -2.24303e-06 7.31264e-08)
(5.24679e-08 -3.2691e-06 5.2522e-08)
(5.78602e-07 -6.8725e-06 1.13521e-07)
(1.40664e-06 -9.12263e-06 1.49976e-07)
(2.40894e-06 -1.05143e-05 1.77391e-07)
(3.48023e-06 -1.13037e-05 2.02209e-07)
(4.50756e-06 -1.16257e-05 2.27982e-07)
(5.38906e-06 -1.15813e-05 2.57007e-07)
(6.03114e-06 -1.1253e-05 2.90022e-07)
(6.35803e-06 -1.0719e-05 3.26714e-07)
(6.31593e-06 -1.0057e-05 3.65713e-07)
(5.87908e-06 -9.34523e-06 4.04818e-07)
(5.05371e-06 -8.66021e-06 4.41242e-07)
(3.87967e-06 -8.07275e-06 4.72014e-07)
(2.42897e-06 -7.64275e-06 4.94352e-07)
(8.00143e-07 -7.41359e-06 5.06162e-07)
(-8.91065e-07 -7.40787e-06 5.06347e-07)
(-2.52302e-06 -7.6251e-06 4.94923e-07)
(-3.98006e-06 -8.04171e-06 4.73032e-07)
(-5.16373e-06 -8.6132e-06 4.42821e-07)
(-6.0022e-06 -9.2784e-06 4.07159e-07)
(-6.4557e-06 -9.96508e-06 3.69113e-07)
(-6.51782e-06 -1.05949e-05 3.31633e-07)
(-6.21369e-06 -1.10879e-05 2.9719e-07)
(-5.59517e-06 -1.13647e-05 2.67457e-07)
(-4.73517e-06 -1.13472e-05 2.43215e-07)
(-3.72043e-06 -1.09549e-05 2.23964e-07)
(-2.64632e-06 -1.00976e-05 2.07666e-07)
(-1.60829e-06 -8.65694e-06 1.8875e-07)
(-7.16215e-07 -6.43468e-06 1.56643e-07)
(-8.18292e-08 -2.99144e-06 8.19473e-08)
(7.63752e-08 -3.9786e-06 7.64509e-08)
(7.14124e-07 -8.4296e-06 1.5079e-07)
(1.6484e-06 -1.12398e-05 1.87283e-07)
(2.75556e-06 -1.30242e-05 2.12086e-07)
(3.92019e-06 -1.40748e-05 2.35082e-07)
(5.03124e-06 -1.4556e-05 2.61274e-07)
(5.98149e-06 -1.4588e-05 2.92873e-07)
(6.67236e-06 -1.42707e-05 3.30401e-07)
(7.02151e-06 -1.36981e-05 3.73067e-07)
(6.96928e-06 -1.29628e-05 4.18968e-07)
(6.48592e-06 -1.21586e-05 4.65317e-07)
(5.57642e-06 -1.13767e-05 5.08658e-07)
(4.28312e-06 -1.07021e-05 5.45361e-07)
(2.68456e-06 -1.02065e-05 5.72006e-07)
(8.89399e-07 -9.94223e-06 5.86039e-07)
(-9.74306e-07 -9.93668e-06 5.86186e-07)
(-2.7717e-06 -1.01894e-05 5.72461e-07)
(-4.37465e-06 -1.06724e-05 5.46168e-07)
(-5.67455e-06 -1.13325e-05 5.09874e-07)
(-6.5928e-06 -1.2097e-05 4.6708e-07)
(-7.08674e-06 -1.288e-05 4.21477e-07)
(-7.15094e-06 -1.35894e-05 3.76585e-07)
(-6.81441e-06 -1.4131e-05 3.35325e-07)
(-6.13488e-06 -1.44117e-05 2.99719e-07)
(-5.19232e-06 -1.4339e-05 2.70724e-07)
(-4.08104e-06 -1.38159e-05 2.47861e-07)
(-2.90454e-06 -1.27309e-05 2.28885e-07)
(-1.76659e-06 -1.09317e-05 2.07626e-07)
(-7.875e-07 -8.15684e-06 1.72359e-07)
(-9.0199e-08 -3.82096e-06 9.03456e-08)
(9.12293e-08 -4.82165e-06 9.13313e-08)
(8.12353e-07 -1.02111e-05 1.75843e-07)
(1.84071e-06 -1.36209e-05 2.14303e-07)
(3.04743e-06 -1.58147e-05 2.395e-07)
(4.30724e-06 -1.71408e-05 2.63472e-07)
(5.50634e-06 -1.77969e-05 2.92362e-07)
(6.53169e-06 -1.7924e-05 3.28538e-07)
(7.27858e-06 -1.76386e-05 3.72388e-07)
(7.65787e-06 -1.7049e-05 4.22853e-07)
(7.60353e-06 -1.62616e-05 4.77502e-07)
(7.08086e-06 -1.53837e-05 5.32898e-07)
(6.0929e-06 -1.45204e-05 5.84827e-07)
(4.68416e-06 -1.37701e-05 6.28829e-07)
(2.93969e-06 -1.32165e-05 6.60749e-07)
(9.78779e-07 -1.29211e-05 6.7753e-07)
(-1.05725e-06 -1.29159e-05 6.77637e-07)
(-3.01962e-06 -1.32006e-05 6.61081e-07)
(-4.76689e-06 -1.37425e-05 6.29405e-07)
(-6.17971e-06 -1.44797e-05 5.85708e-07)
(-7.17289e-06 -1.5328e-05 5.34199e-07)
(-7.70164e-06 -1.61885e-05 4.79308e-07)
(-7.7624e-06 -1.69556e-05 4.25332e-07)
(-7.38907e-06 -1.7522e-05 3.7577e-07)
(-6.64622e-06 -1.77818e-05 3.33056e-07)
(-5.62129e-06 -1.76281e-05 2.9833e-07)
(-4.41654e-06 -1.69476e-05 2.71142e-07)
(-3.14316e-06 -1.56052e-05 2.4909e-07)
(-1.91222e-06 -1.34115e-05 2.25383e-07)
(-8.53166e-07 -1.00345e-05 1.87092e-07)
(-9.80822e-08 -4.72673e-06 9.82621e-08)
(1.01591e-07 -5.76139e-06 1.01711e-07)
(8.86179e-07 -1.21696e-05 1.94054e-07)
(1.9926e-06 -1.62214e-05 2.34937e-07)
(3.28552e-06 -1.88509e-05 2.61836e-07)
(4.63189e-06 -2.0476e-05 2.88369e-07)
(5.91408e-06 -2.13324e-05 3.21504e-07)
(7.01348e-06 -2.15836e-05 3.6382e-07)
(7.81903e-06 -2.13618e-05 4.15687e-07)
(8.23447e-06 -2.07878e-05 4.75732e-07)
(8.1866e-06 -1.99799e-05 5.41044e-07)
(7.63469e-06 -1.90567e-05 6.07436e-07)
(6.57879e-06 -1.81361e-05 6.6978e-07)
(5.06456e-06 -1.73286e-05 7.22692e-07)
(3.18309e-06 -1.67295e-05 7.61068e-07)
(1.06433e-06 -1.64089e-05 7.81188e-07)
(-1.13658e-06 -1.64041e-05 7.81265e-07)
(-3.25611e-06 -1.67147e-05 7.61302e-07)
(-5.13904e-06 -1.73034e-05 7.23096e-07)
(-6.65537e-06 -1.80994e-05 6.70388e-07)
(-7.71387e-06 -1.90074e-05 6.08291e-07)
(-8.26861e-06 -1.99164e-05 5.42266e-07)
(-8.31904e-06 -2.07084e-05 4.77437e-07)
(-7.90531e-06 -2.12651e-05 4.17962e-07)
(-7.09959e-06 -2.1469e-05 3.66785e-07)
(-5.99711e-06 -2.12008e-05 3.253e-07)
(-4.70744e-06 -2.03306e-05 2.93075e-07)
(-3.34852e-06 -1.8699e-05 2.67479e-07)
(-2.03729e-06 -1.60756e-05 2.41181e-07)
(-9.09892e-07 -1.20515e-05 2.00155e-07)
(-1.05116e-07 -5.70155e-06 1.05336e-07)
(1.08745e-07 -6.7726e-06 1.08903e-07)
(9.37775e-07 -1.42629e-05 2.06883e-07)
(2.10066e-06 -1.89936e-05 2.49984e-07)
(3.45801e-06 -2.20869e-05 2.79118e-07)
(4.87215e-06 -2.40404e-05 3.09068e-07)
(6.2228e-06 -2.51309e-05 3.47556e-07)
(7.38718e-06 -2.55455e-05 3.97332e-07)
(8.24883e-06 -2.54311e-05 4.58772e-07)
(8.70423e-06 -2.49189e-05 5.30241e-07)
(8.67254e-06 -2.41358e-05 6.08313e-07)
(8.10582e-06 -2.32094e-05 6.87989e-07)
(6.99943e-06 -2.22673e-05 7.63057e-07)
(5.39847e-06 -2.14307e-05 8.2693e-07)
(3.39883e-06 -2.08049e-05 8.73363e-07)
(1.14059e-06 -2.04687e-05 8.97694e-07)
(-1.20712e-06 -2.04643e-05 8.97737e-07)
(-3.46559e-06 -2.07915e-05 8.73477e-07)
(-5.4657e-06 -2.14079e-05 8.27134e-07)
(-7.06723e-06 -2.22347e-05 7.63405e-07)
(-8.17415e-06 -2.3166e-05 6.88507e-07)
(-8.74128e-06 -2.40807e-05 6.09105e-07)
(-8.77294e-06 -2.48515e-05 5.31363e-07)
(-8.31669e-06 -2.53512e-05 4.60273e-07)
(-7.45259e-06 -2.54532e-05 3.99278e-07)
(-6.28358e-06 -2.50278e-05 3.49993e-07)
(-4.92535e-06 -2.39298e-05 3.12012e-07)
(-3.50051e-06 -2.19749e-05 2.8251e-07)
(-2.12946e-06 -1.88896e-05 2.53624e-07)
(-9.52141e-07 -1.41813e-05 2.10337e-07)
(-1.10643e-07 -6.73313e-06 1.10903e-07)
(1.12737e-07 -7.82908e-06 1.12907e-07)
(9.63441e-07 -1.64407e-05 2.13847e-07)
(2.15315e-06 -2.18757e-05 2.58409e-07)
(3.54277e-06 -2.54581e-05 2.89838e-07)
(4.99437e-06 -2.77715e-05 3.23673e-07)
(6.38785e-06 -2.91366e-05 3.68144e-07)
(7.59879e-06 -2.97638e-05 4.26267e-07)
(8.50722e-06 -2.98136e-05 4.98466e-07)
(9.00343e-06 -2.94243e-05 5.82905e-07)
(8.99873e-06 -2.87282e-05 6.75657e-07)
(8.43687e-06 -2.78576e-05 7.70903e-07)
(7.30634e-06 -2.69456e-05 8.61244e-07)
(5.64931e-06 -2.61207e-05 9.38481e-07)
(3.56426e-06 -2.54965e-05 9.94882e-07)
(1.19984e-06 -2.5159e-05 1.02452e-06)
(-1.26144e-06 -2.5155e-05 1.02452e-06)
(-3.62566e-06 -2.54844e-05 9.94902e-07)
(-5.71033e-06 -2.61003e-05 9.38531e-07)
(-7.36669e-06 -2.69164e-05 8.61361e-07)
(-8.49625e-06 -2.78194e-05 7.71151e-07)
(-9.05687e-06 -2.86807e-05 6.76093e-07)
(-9.0599e-06 -2.93673e-05 5.83543e-07)
(-8.56126e-06 -2.97473e-05 4.99404e-07)
(-7.64921e-06 -2.9689e-05 4.27512e-07)
(-6.43308e-06 -2.90549e-05 3.69721e-07)
(-5.03252e-06 -2.76861e-05 3.25541e-07)
(-3.57212e-06 -2.53739e-05 2.9194e-07)
(-2.17223e-06 -2.17997e-05 2.60614e-07)
(-9.72431e-07 -1.63827e-05 2.15885e-07)
(-1.13778e-07 -7.80201e-06 1.1409e-07)
(1.12774e-07 -8.89875e-06 1.12989e-07)
(9.55851e-07 -1.86384e-05 2.13478e-07)
(2.13276e-06 -2.4785e-05 2.58306e-07)
(3.51036e-06 -2.88731e-05 2.91568e-07)
(4.95573e-06 -3.15761e-05 3.29199e-07)
(6.35338e-06 -3.32597e-05 3.79735e-07)
(7.58108e-06 -3.41572e-05 4.46371e-07)
(8.51837e-06 -3.44405e-05 5.29779e-07)
(9.05168e-06 -3.42519e-05 6.28132e-07)
(9.085e-06 -3.37233e-05 7.37129e-07)
(8.55333e-06 -3.29869e-05 8.50103e-07)
(7.43598e-06 -3.21759e-05 9.58293e-07)
(5.76879e-06 -3.14208e-05 1.05165e-06)
(3.6493e-06 -3.0839e-05 1.12048e-06)
(1.23189e-06 -3.05213e-05 1.15692e-06)
(-1.28931e-06 -3.05177e-05 1.1569e-06)
(-3.70618e-06 -3.0828e-05 1.12043e-06)
(-5.82461e-06 -3.14024e-05 1.05157e-06)
(-7.49024e-06 -3.21499e-05 9.58222e-07)
(-8.60569e-06 -3.29533e-05 8.50112e-07)
(-9.13502e-06 -3.36822e-05 7.3734e-07)
(-9.09876e-06 -3.42033e-05 6.28509e-07)
(-8.56208e-06 -3.43853e-05 5.30369e-07)
(-7.62059e-06 -3.40961e-05 4.47154e-07)
(-6.38765e-06 -3.31943e-05 3.80711e-07)
(-4.98375e-06 -3.15093e-05 3.30366e-07)
(-3.53116e-06 -2.88088e-05 2.92898e-07)
(-2.14579e-06 -2.47282e-05 2.59699e-07)
(-9.61678e-07 -1.85959e-05 2.14734e-07)
(-1.1337e-07 -8.87946e-06 1.13726e-07)
(1.0779e-07 -9.9399e-06 1.08019e-07)
(9.05988e-07 -2.07712e-05 2.03609e-07)
(2.01919e-06 -2.7612e-05 2.46904e-07)
(3.32676e-06 -3.22081e-05 2.81014e-07)
(4.70754e-06 -3.53234e-05 3.21596e-07)
(6.05568e-06 -3.73682e-05 3.77224e-07)
(7.2565e-06 -3.85978e-05 4.51436e-07)
(8.19352e-06 -3.91921e-05 5.45152e-07)
(8.7529e-06 -3.92937e-05 6.56643e-07)
(8.83362e-06 -3.90298e-05 7.81542e-07)
(8.36181e-06 -3.85251e-05 9.12514e-07)
(7.30598e-06 -3.79058e-05 1.03956e-06)
(5.69237e-06 -3.7297e-05 1.15063e-06)
(3.61294e-06 -3.68132e-05 1.23355e-06)
(1.22265e-06 -3.65444e-05 1.27788e-06)
(-1.27667e-06 -3.65411e-05 1.27783e-06)
(-3.66616e-06 -3.68032e-05 1.23342e-06)
(-5.74408e-06 -3.72803e-05 1.15045e-06)
(-7.35543e-06 -3.78825e-05 1.03939e-06)
(-8.40847e-06 -3.84954e-05 9.12391e-07)
(-8.87716e-06 -3.89939e-05 7.81515e-07)
(-8.79297e-06 -3.92521e-05 6.56745e-07)
(-8.22969e-06 -3.91457e-05 5.45427e-07)
(-7.28822e-06 -3.85474e-05 4.51886e-07)
(-6.08235e-06 -3.73154e-05 3.77838e-07)
(-4.72861e-06 -3.52705e-05 3.22333e-07)
(-3.34181e-06 -3.21579e-05 2.81834e-07)
(-2.02828e-06 -2.75685e-05 2.47781e-07)
(-9.09836e-07 -2.07392e-05 2.0442e-07)
(-1.08118e-07 -9.92565e-06 1.0852e-07)
(9.65989e-08 -1.09004e-05 9.6843e-08)
(8.04541e-07 -2.27332e-05 1.82042e-07)
(1.792e-06 -3.02183e-05 2.21464e-07)
(2.95825e-06 -3.53039e-05 2.5473e-07)
(4.2013e-06 -3.88402e-05 2.96522e-07)
(5.43088e-06 -4.12802e-05 3.55074e-07)
(6.54616e-06 -4.28986e-05 4.34063e-07)
(7.44043e-06 -4.38812e-05 5.34799e-07)
(8.00457e-06 -4.43665e-05 6.56013e-07)
(8.13676e-06 -4.44719e-05 7.93589e-07)
(7.7565e-06 -4.43078e-05 9.39907e-07)
(6.82124e-06 -4.39845e-05 1.08388e-06)
(5.34414e-06 -4.36125e-05 1.21153e-06)
(3.4059e-06 -4.3294e-05 1.30818e-06)
(1.1551e-06 -4.31101e-05 1.36047e-06)
(-1.20626e-06 -4.31071e-05 1.36043e-06)
(-3.45604e-06 -4.32849e-05 1.30807e-06)
(-5.3924e-06 -4.35977e-05 1.21133e-06)
(-6.86685e-06 -4.39638e-05 1.08364e-06)
(-7.79897e-06 -4.42816e-05 9.39694e-07)
(-8.17559e-06 -4.44408e-05 7.93487e-07)
(-8.03941e-06 -4.4331e-05 6.56011e-07)
(-7.471e-06 -4.38419e-05 5.34896e-07)
(-6.57223e-06 -4.28566e-05 4.34287e-07)
(-5.45216e-06 -4.12369e-05 3.55422e-07)
(-4.2176e-06 -3.87976e-05 2.96982e-07)
(-2.96951e-06 -3.5264e-05 2.55274e-07)
(-1.79854e-06 -3.01844e-05 2.22031e-07)
(-8.07156e-07 -2.27085e-05 1.82595e-07)
(-9.67625e-08 -1.08896e-05 9.72053e-08)
(7.81409e-08 -1.17183e-05 7.83862e-08)
(6.43976e-07 -2.43989e-05 1.46791e-07)
(1.43489e-06 -3.24394e-05 1.79393e-07)
(2.37774e-06 -3.79678e-05 2.09454e-07)
(3.39733e-06 -4.19117e-05 2.49574e-07)
(4.42541e-06 -4.47617e-05 3.07123e-07)
(5.38163e-06 -4.68088e-05 3.8583e-07)
(6.1762e-06 -4.82419e-05 4.87372e-07)
(6.71182e-06 -4.91921e-05 6.11024e-07)
(6.89173e-06 -4.97618e-05 7.53101e-07)
(6.63307e-06 -5.00406e-05 9.06261e-07)
(5.884e-06 -5.01148e-05 1.05918e-06)
(4.64324e-06 -5.007e-05 1.19665e-06)
(2.9744e-06 -4.99847e-05 1.30201e-06)
(1.01034e-06 -4.99223e-05 1.35962e-06)
(-1.05916e-06 -4.99197e-05 1.35954e-06)
(-3.02215e-06 -4.99767e-05 1.30186e-06)
(-4.68884e-06 -5.00567e-05 1.19641e-06)
(-5.9266e-06 -5.00965e-05 1.05893e-06)
(-6.67215e-06 -5.00177e-05 9.06003e-07)
(-6.92681e-06 -4.97347e-05 7.52905e-07)
(-6.74273e-06 -4.91615e-05 6.1087e-07)
(-6.20273e-06 -4.82084e-05 4.87326e-07)
(-5.40367e-06 -4.67735e-05 3.85902e-07)
(-4.4429e-06 -4.47258e-05 3.0728e-07)
(-3.41033e-06 -4.18768e-05 2.49825e-07)
(-2.3864e-06 -3.79356e-05 2.09778e-07)
(-1.43967e-06 -3.24122e-05 1.79748e-07)
(-6.45747e-07 -2.43793e-05 1.47175e-07)
(-7.81981e-08 -1.17098e-05 7.86769e-08)
(5.18306e-08 -1.23242e-05 5.21102e-08)
(4.20596e-07 -2.56293e-05 9.68258e-08)
(9.40122e-07 -3.4092e-05 1.19319e-07)
(1.57236e-06 -3.99829e-05 1.43197e-07)
(2.27593e-06 -4.42906e-05 1.77807e-07)
(3.01098e-06 -4.75357e-05 2.2903e-07)
(3.72456e-06 -5.00207e-05 3.00181e-07)
(4.3512e-06 -5.1934e-05 3.93252e-07)
(4.81359e-06 -5.33968e-05 5.0816e-07)
(5.02804e-06 -5.44928e-05 6.42083e-07)
(4.9164e-06 -5.5286e-05 7.88478e-07)
(4.42178e-06 -5.5831e-05 9.36594e-07)
(3.52822e-06 -5.61803e-05 1.07133e-06)
(2.27715e-06 -5.63802e-05 1.17569e-06)
(7.73841e-07 -5.64682e-05 1.23319e-06)
(-8.20621e-07 -5.64662e-05 1.23313e-06)
(-2.32271e-06 -5.63735e-05 1.17555e-06)
(-3.57147e-06 -5.61687e-05 1.07107e-06)
(-4.46189e-06 -5.58152e-05 9.36271e-07)
(-4.95286e-06 -5.52659e-05 7.88113e-07)
(-5.06033e-06 -5.44691e-05 6.41807e-07)
(-4.84155e-06 -5.33702e-05 5.07927e-07)
(-4.37473e-06 -5.19051e-05 3.93126e-07)
(-3.74366e-06 -4.99906e-05 3.00145e-07)
(-3.02575e-06 -4.75054e-05 2.29049e-07)
(-2.28659e-06 -4.42615e-05 1.77919e-07)
(-1.57923e-06 -3.99564e-05 1.43377e-07)
(-9.43754e-07 -3.40698e-05 1.1959e-07)
(-4.21847e-07 -2.56134e-05 9.71133e-08)
(-5.18424e-08 -1.23173e-05 5.23488e-08)
(1.78822e-08 -1.26482e-05 1.81312e-08)
(1.36889e-07 -2.62841e-05 3.24006e-08)
(3.13398e-07 -3.49902e-05 4.14049e-08)
(5.50733e-07 -4.11259e-05 5.57506e-08)
(8.47805e-07 -4.5717e-05 8.03623e-08)
(1.19813e-06 -4.93028e-05 1.1879e-07)
(1.58297e-06 -5.21918e-05 1.7377e-07)
(1.9688e-06 -5.45683e-05 2.47147e-07)
(2.30672e-06 -5.65405e-05 3.39398e-07)
(2.53547e-06 -5.81709e-05 4.48863e-07)
(2.58974e-06 -5.94948e-05 5.70328e-07)
(2.41365e-06 -6.0533e-05 6.95091e-07)
(1.97839e-06 -6.1299e-05 8.09949e-07)
(1.2984e-06 -6.18029e-05 8.99803e-07)
(4.39688e-07 -6.20518e-05 9.49696e-07)
(-4.84566e-07 -6.20499e-05 9.49619e-07)
(-1.34192e-06 -6.17966e-05 8.99603e-07)
(-2.01957e-06 -6.12885e-05 8.09602e-07)
(-2.45163e-06 -6.05188e-05 6.94703e-07)
(-2.62383e-06 -5.94769e-05 5.69925e-07)
(-2.56539e-06 -5.815e-05 4.48471e-07)
(-2.33234e-06 -5.65171e-05 3.39076e-07)
(-1.99006e-06 -5.45433e-05 2.46874e-07)
(-1.59994e-06 -5.21659e-05 1.73608e-07)
(-1.21098e-06 -4.92769e-05 1.18716e-07)
(-8.5684e-07 -4.56925e-05 8.03292e-08)
(-5.56402e-07 -4.11035e-05 5.58192e-08)
(-3.16249e-07 -3.49718e-05 4.15592e-08)
(-1.37741e-07 -2.62709e-05 3.26112e-08)
(-1.78271e-08 -1.26424e-05 1.83507e-08)
(-2.27168e-08 -1.2626e-05 -2.2453e-08)
(-1.97321e-07 -2.6236e-05 -4.43398e-08)
(-4.22932e-07 -3.49653e-05 -5.17999e-08)
(-6.50916e-07 -4.11913e-05 -5.02618e-08)
(-8.37593e-07 -4.59484e-05 -4.01782e-08)
(-9.52056e-07 -4.97782e-05 -2.092e-08)
(-9.73515e-07 -5.29881e-05 9.11143e-09)
(-8.96512e-07 -5.57544e-05 5.14159e-08)
(-7.33258e-07 -5.81707e-05 1.06976e-07)
(-5.13946e-07 -6.02788e-05 1.75444e-07)
(-2.8213e-07 -6.20849e-05 2.53965e-07)
(-8.60019e-08 -6.35753e-05 3.36931e-07)
(3.51521e-08 -6.47262e-05 4.14947e-07)
(6.45046e-08 -6.55121e-05 4.7699e-07)
(1.71926e-08 -6.59106e-05 5.118e-07)
(-5.98504e-08 -6.59086e-05 5.11681e-07)
(-1.05868e-07 -6.55061e-05 4.76727e-07)
(-7.41471e-08 -6.47166e-05 4.14561e-07)
(5.01935e-08 -6.3562e-05 3.36476e-07)
(2.50077e-07 -6.20683e-05 2.53517e-07)
(4.85966e-07 -6.02598e-05 1.75001e-07)
(7.09502e-07 -5.81498e-05 1.06598e-07)
(8.76993e-07 -5.57322e-05 5.10939e-08)
(9.58079e-07 -5.29654e-05 8.8841e-09)
(9.4053e-07 -4.97558e-05 -2.1052e-08)
(8.29667e-07 -4.59271e-05 -4.02343e-08)
(6.46122e-07 -4.11723e-05 -5.02331e-08)
(4.20639e-07 -3.49496e-05 -5.17016e-08)
(1.96692e-07 -2.62248e-05 -4.41638e-08)
(2.27886e-08 -1.26211e-05 -2.22586e-08)
(-6.76563e-08 -1.22093e-05 -6.7429e-08)
(-5.63517e-07 -2.539e-05 -1.29341e-07)
(-1.22858e-06 -3.38901e-05 -1.55443e-07)
(-1.96761e-06 -4.0022e-05 -1.69242e-07)
(-2.69024e-06 -4.4793e-05 -1.77431e-07)
(-3.32597e-06 -4.87307e-05 -1.82869e-07)
(-3.81106e-06 -5.21315e-05 -1.85506e-07)
(-4.09601e-06 -5.51605e-05 -1.84254e-07)
(-4.14964e-06 -5.78971e-05 -1.77582e-07)
(-3.96315e-06 -6.03626e-05 -1.64355e-07)
(-3.55079e-06 -6.2538e-05 -1.44462e-07)
(-2.94733e-06 -6.43803e-05 -1.1939e-07)
(-2.20015e-06 -6.58335e-05 -9.28485e-08)
(-1.35995e-06 -6.68415e-05 -6.99684e-08)
(-4.71545e-07 -6.73581e-05 -5.64778e-08)
(4.31528e-07 -6.73562e-05 -5.65851e-08)
(1.32114e-06 -6.68361e-05 -7.02484e-08)
(2.1635e-06 -6.58246e-05 -9.32799e-08)
(2.91367e-06 -6.43679e-05 -1.19848e-07)
(3.52073e-06 -6.25228e-05 -1.44916e-07)
(3.93699e-06 -6.03452e-05 -1.64832e-07)
(4.12743e-06 -5.78783e-05 -1.78001e-07)
(4.07783e-06 -5.51406e-05 -1.84565e-07)
(3.79681e-06 -5.21115e-05 -1.85784e-07)
(3.31539e-06 -4.87111e-05 -1.83047e-07)
(2.68305e-06 -4.47747e-05 -1.77496e-07)
(1.96337e-06 -4.00056e-05 -1.69247e-07)
(1.2266e-06 -3.38767e-05 -1.55373e-07)
(5.63044e-07 -2.53804e-05 -1.29168e-07)
(6.7757e-08 -1.22051e-05 -6.72285e-08)
(-1.13741e-07 -1.13751e-05 -1.13521e-07)
(-9.35329e-07 -2.37017e-05 -2.16423e-07)
(-2.04592e-06 -3.17043e-05 -2.61943e-07)
(-3.30631e-06 -3.75381e-05 -2.92535e-07)
(-4.58126e-06 -4.21462e-05 -3.21427e-07)
(-5.76102e-06 -4.6024e-05 -3.55198e-07)
(-6.73726e-06 -4.94489e-05 -3.9544e-07)
(-7.41365e-06 -5.25713e-05 -4.4177e-07)
(-7.71145e-06 -5.54565e-05 -4.92124e-07)
(-7.57772e-06 -5.81086e-05 -5.43595e-07)
(-6.99258e-06 -6.04904e-05 -5.92745e-07)
(-5.97271e-06 -6.2537e-05 -6.35928e-07)
(-4.57129e-06 -6.41695e-05 -6.70314e-07)
(-2.87433e-06 -6.53114e-05 -6.93853e-07)
(-9.91557e-07 -6.58995e-05 -7.05667e-07)
(9.54664e-07 -6.58976e-05 -7.05744e-07)
(2.8385e-06 -6.53063e-05 -6.94034e-07)
(4.53751e-06 -6.4161e-05 -6.70611e-07)
(5.94154e-06 -6.25252e-05 -6.36306e-07)
(6.96461e-06 -6.04762e-05 -5.93125e-07)
(7.55321e-06 -5.80923e-05 -5.43959e-07)
(7.69058e-06 -5.54391e-05 -4.92474e-07)
(7.39657e-06 -5.25535e-05 -4.42042e-07)
(6.72387e-06 -4.94309e-05 -3.9568e-07)
(5.75109e-06 -4.60067e-05 -3.55376e-07)
(4.57456e-06 -4.21303e-05 -3.21544e-07)
(3.30239e-06 -3.75242e-05 -2.92572e-07)
(2.04409e-06 -3.16928e-05 -2.61892e-07)
(9.34891e-07 -2.36936e-05 -2.16258e-07)
(1.13834e-07 -1.13715e-05 -1.13327e-07)
(-1.5668e-07 -1.01337e-05 -1.56485e-07)
(-1.27894e-06 -2.11943e-05 -2.97544e-07)
(-2.80272e-06 -2.84347e-05 -3.61515e-07)
(-4.55218e-06 -3.37632e-05 -4.08665e-07)
(-6.35243e-06 -3.80215e-05 -4.58581e-07)
(-8.05727e-06 -4.16556e-05 -5.21587e-07)
(-9.51528e-06 -4.49161e-05 -6.00919e-07)
(-1.0583e-05 -4.79367e-05 -6.96862e-07)
(-1.11333e-05 -5.07699e-05 -8.07019e-07)
(-1.10679e-05 -5.3409e-05 -9.26532e-07)
(-1.03303e-05 -5.58052e-05 -1.04832e-06)
(-8.91676e-06 -5.78817e-05 -1.16343e-06)
(-6.88492e-06 -5.9549e-05 -1.2621e-06)
(-4.35468e-06 -6.07199e-05 -1.33452e-06)
(-1.50015e-06 -6.13242e-05 -1.37288e-06)
(1.46719e-06 -6.13224e-05 -1.37294e-06)
(4.32249e-06 -6.07146e-05 -1.3347e-06)
(6.85426e-06 -5.95405e-05 -1.26232e-06)
(8.88822e-06 -5.78705e-05 -1.16369e-06)
(1.03044e-05 -5.57919e-05 -1.04862e-06)
(1.1045e-05 -5.33942e-05 -9.2681e-07)
(1.11137e-05 -5.07542e-05 -8.07281e-07)
(1.05668e-05 -4.79208e-05 -6.97114e-07)
(9.50246e-06 -4.49002e-05 -6.01126e-07)
(8.04778e-06 -4.16405e-05 -5.21745e-07)
(6.34597e-06 -3.80078e-05 -4.58689e-07)
(4.54836e-06 -3.37513e-05 -4.08651e-07)
(2.80104e-06 -2.84251e-05 -3.61443e-07)
(1.27857e-06 -2.11875e-05 -2.97389e-07)
(1.56778e-07 -1.01307e-05 -1.56292e-07)
(-1.91364e-07 -8.53669e-06 -1.91195e-07)
(-1.55568e-06 -1.79717e-05 -3.62997e-07)
(-3.41744e-06 -2.42144e-05 -4.41949e-07)
(-5.57646e-06 -2.8845e-05 -5.03132e-07)
(-7.82776e-06 -3.2573e-05 -5.71718e-07)
(-9.99357e-06 -3.57812e-05 -6.61297e-07)
(-1.18834e-05 -3.86881e-05 -7.76831e-07)
(-1.33101e-05 -4.14091e-05 -9.19289e-07)
(-1.41009e-05 -4.39865e-05 -1.08572e-06)
(-1.41142e-05 -4.64081e-05 -1.26939e-06)
(-1.32584e-05 -4.86219e-05 -1.45982e-06)
(-1.15098e-05 -5.05502e-05 -1.6429e-06)
(-8.92854e-06 -5.21039e-05 -1.80212e-06)
(-5.66435e-06 -5.31973e-05 -1.92053e-06)
(-1.95009e-06 -5.37621e-05 -1.98391e-06)
(1.92146e-06 -5.37604e-05 -1.98392e-06)
(5.63619e-06 -5.31924e-05 -1.92058e-06)
(8.90144e-06 -5.20961e-05 -1.80219e-06)
(1.14843e-05 -5.05399e-05 -1.64299e-06)
(1.32348e-05 -4.86098e-05 -1.45993e-06)
(1.40931e-05 -4.63948e-05 -1.2695e-06)
(1.40825e-05 -4.39725e-05 -1.08585e-06)
(1.32947e-05 -4.1395e-05 -9.19421e-07)
(1.18711e-05 -3.86744e-05 -7.76937e-07)
(9.98442e-06 -3.57684e-05 -6.61374e-07)
(7.82149e-06 -3.25614e-05 -5.71802e-07)
(5.57274e-06 -2.8835e-05 -5.03126e-07)
(3.41574e-06 -2.42064e-05 -4.41871e-07)
(1.55527e-06 -1.79662e-05 -3.62835e-07)
(1.91448e-07 -8.53431e-06 -1.91007e-07)
(-2.11966e-07 -6.68219e-06 -2.11815e-07)
(-1.72363e-06 -1.42271e-05 -4.0156e-07)
(-3.80476e-06 -1.92899e-05 -4.8897e-07)
(-6.24739e-06 -2.30651e-05 -5.58618e-07)
(-8.82908e-06 -2.61094e-05 -6.39982e-07)
(-1.13472e-05 -2.87336e-05 -7.49291e-07)
(-1.35787e-05 -3.11201e-05 -8.93071e-07)
(-1.52992e-05 -3.3366e-05 -1.0728e-06)
(-1.62975e-05 -3.55063e-05 -1.28511e-06)
(-1.63949e-05 -3.75283e-05 -1.52161e-06)
(-1.54697e-05 -3.93847e-05 -1.76884e-06)
(-1.34806e-05 -4.10065e-05 -2.00824e-06)
(-1.04887e-05 -4.23156e-05 -2.21774e-06)
(-6.66688e-06 -4.32377e-05 -2.37428e-06)
(-2.29465e-06 -4.37141e-05 -2.45832e-06)
(2.2707e-06 -4.37126e-05 -2.45828e-06)
(6.64312e-06 -4.32333e-05 -2.3742e-06)
(1.04654e-05 -4.23089e-05 -2.21766e-06)
(1.34582e-05 -4.09978e-05 -2.00818e-06)