/*--------------------------------*- C++ -*----------------------------------*\
| =========                 |                                                 |
| \\      /  F ield         | OpenFOAM: The Open Source CFD Toolbox           |
|  \\    /   O peration     | Version:  v1906                                 |
|   \\  /    A nd           | Web:      www.OpenFOAM.com                      |
|    \\/     M anipulation  |                                                 |
\*---------------------------------------------------------------------------*/
FoamFile
{
    version     2.0;
    format      ascii;
    class       volScalarField;
    location    "68";
    object      nut;
}
// * * * * * * * * * * * * * * * * * * * * * * * * * * * * * * * * * * * * * //

dimensions      [0 2 -1 0 0 0 0];


internalField   nonuniform List<scalar> 
78750
(
1.33926e-06
1.64882e-06
3.11875e-06
6.08514e-07
1.53945e-06
1.16355e-05
1.24636e-05
9.22501e-06
1.21609e-05
1.78858e-06
2.07644e-05
6.86059e-05
0.000122651
0.000171649
0.000210599
0.000233998
0.000238264
0.000226818
0.000215157
0.000219841
0.000231507
0.000227263
0.000240174
0.000286633
0.000350855
0.000412755
0.000465169
0.000499835
0.000503909
0.000505463
0.000479051
0.0004298
0.000382834
0.000322533
3.47725e-05
4.11936e-05
0.000394416
0.0006105
0.000783746
0.000805395
0.000824696
0.000841866
0.00085731
0.000871387
0.000884166
0.000896038
0.000906787
0.00091583
0.000922608
0.00092659
0.000927178
0.000923787
0.000915929
0.000827366
0.000713122
0.000660792
0.00069017
0.000778639
0.000854841
0.000876307
0.000889641
0.00090497
0.000920501
0.000936005
0.000949845
0.000871786
0.000716407
0.000601568
0.00048451
4.74923e-05
4.72455e-05
0.000738038
0.000786382
0.000822605
0.000850645
0.000873037
0.000891265
0.00090621
0.000918491
0.000928598
0.000936939
0.000943826
0.000949473
0.000953992
0.00095739
0.00095959
0.000960482
0.000959995
0.00095821
0.0009554
0.000952212
0.000949424
0.000947641
0.000947172
0.000947991
0.000949682
0.000951531
0.000952519
0.000951314
0.000946246
0.000935351
0.000915967
0.000883915
0.000613767
3.51293e-05
4.48369e-05
0.000724305
0.000774338
0.000812801
0.000843551
0.000868996
0.000890686
0.000909665
0.000926665
0.000942195
0.000956587
0.000970038
0.000982719
0.000994831
0.0010065
0.00101119
0.00101923
0.00103355
0.00104023
0.00104163
0.00103936
0.00103361
0.00102494
0.00101411
0.00100192
0.000989155
0.000976471
0.000964397
0.000953288
0.000890218
0.000692654
0.000521052
0.000453888
0.000440997
3.95247e-05
3.86962e-05
0.000668807
0.000718229
0.000757495
0.000790857
0.000800989
0.000785927
0.000794201
0.000838505
0.000915338
0.000939559
0.000956815
0.000971943
0.000984939
0.000995697
0.00100406
0.00100994
0.00101334
0.00101443
0.00100146
0.000941423
0.000885111
0.000835374
0.000793619
0.000760629
0.000736834
0.000722874
0.000719825
0.000726683
0.000734751
0.000730293
0.000722661
0.000697953
0.000625844
4.00097e-05
4.26183e-05
0.000685887
0.000729731
0.000764543
0.000794266
0.00082005
0.000841625
0.000858601
0.00087192
0.000882736
0.000891553
0.000898632
0.000904091
0.000908001
0.000910443
0.000911515
0.000911316
0.000909947
0.000907518
0.000904138
0.000899917
0.000894954
0.000872544
0.000833657
0.000821334
0.000826214
0.000826878
0.000801937
0.000751148
0.000683567
0.000600573
0.000538026
0.000517882
0.000528846
3.14019e-05
2.4377e-05
0.000167554
0.000248124
0.000356696
0.000480759
0.000556129
0.000613535
0.000665718
0.000717749
0.000768405
0.000815621
0.000860938
0.000907763
0.000921458
0.000929748
0.00093579
0.000939664
0.000941446
0.000941174
0.000938854
0.000934445
0.000927897
0.000919186
0.000908363
0.000895573
0.000881214
0.000865922
0.000760024
0.000434002
0.000261929
0.000225019
0.000278251
0.000452447
0.000617648
2.8277e-05
3.33406e-05
0.00049459
0.000471271
0.000490484
0.000558114
0.000597562
0.000606566
0.000578044
0.000515232
0.000434748
0.00036598
0.000332747
0.000335275
0.000348583
0.000356577
0.000354604
0.000358629
0.000373711
0.000406966
0.000460695
0.000544376
0.000657328
0.000779103
0.000813414
0.000819071
0.00082129
0.000636036
0.000449419
0.000362746
0.000379913
0.000493896
0.000659999
0.000675192
0.00057472
2.75482e-05
2.64881e-05
0.000499768
0.000646202
0.000671387
0.00069411
0.00068557
0.000739018
0.000762746
0.000776891
0.000786621
0.00079284
0.000796383
0.000798118
0.00079871
0.000798627
0.000798333
0.000798251
0.000798773
0.000800243
0.000802921
0.00080699
0.000811975
0.000816775
0.00082
0.000820884
0.000819398
0.000788592
0.00079922
0.000802345
0.000791681
0.00069123
0.000469581
0.000339538
0.000212266
2.23456e-05
2.76196e-05
0.000252479
0.000359798
0.000447011
0.000483398
0.000511293
0.000569035
0.000683533
0.000785387
0.000782252
0.000777755
0.000772725
0.000766968
0.000760178
0.000752286
0.000586505
0.000467229
0.000408298
0.000379245
0.000365569
0.000363834
0.000367006
0.000378614
0.000399137
0.000428775
0.000471821
0.000553667
0.000703491
0.000765594
0.000763733
0.000595849
0.000339799
0.000240731
0.000215538
2.40421e-05
1.80425e-05
0.000354415
0.000249171
0.000125233
0.000118744
0.00016936
0.000225028
0.000216306
0.00019537
0.000262906
0.000438399
0.000641404
0.000783308
0.000804353
0.000800554
0.000794775
0.000787596
0.000779899
0.000772537
0.000766126
0.000761109
0.000757551
0.00075531
0.000754707
0.000756765
0.000762546
0.000737324
0.000642869
0.000504519
0.000382553
0.000313354
0.000299671
0.000342467
0.000426069
2.33776e-05
1.51647e-05
7.10045e-05
0.000123725
7.12396e-05
5.53951e-05
0.000130245
9.1364e-05
8.59859e-05
0.000152496
0.000206877
0.000213036
0.000226504
0.000268515
0.000327792
0.000389386
0.000449897
0.000512267
0.00058151
0.000660315
0.000740918
0.000773651
0.000775481
0.000700685
0.000646439
0.000649399
0.000686615
0.00074251
0.000797614
0.000812971
0.000730904
0.000567088
0.000396762
0.000249783
0.000134864
1.75438e-05
2.76395e-05
3.69059e-05
1.47505e-05
2.21823e-05
3.08689e-05
6.98991e-05
0.000134671
0.000305372
0.000530896
0.000343679
0.000224164
0.000210444
0.000247679
0.000307659
0.000375767
0.000444094
0.000505856
0.000553155
0.000576467
0.000568952
0.000542103
0.00052805
0.000552131
0.000617715
0.000700086
0.000745298
0.000709796
0.000627724
0.000564627
0.000535462
0.000490937
0.000346081
0.000183047
9.2697e-05
1.42646e-05
3.94724e-05
0.000239914
0.000241683
0.00019515
0.000157459
0.000141527
0.000166057
0.000191847
0.000227519
0.000279101
0.000330292
0.00037926
0.000438774
0.000518985
0.000621956
0.000645934
0.000646155
0.000649349
0.000591638
0.000493336
0.000433491
0.000406907
0.000389822
0.000365028
0.000335875
0.000324411
0.000364476
0.000497969
0.000667771
0.000665999
0.000519799
0.000286079
0.00020125
0.000121448
1.60844e-05
1.85117e-05
0.000105122
0.00012106
0.000115628
0.00010486
9.54698e-05
9.93238e-05
0.000110727
0.00011569
0.000127161
0.000163547
0.000242511
0.000364129
0.000475885
0.000523261
0.000524894
0.000516192
0.000487477
0.000428047
0.000356418
0.000309083
0.000306924
0.000330593
0.000355124
0.000375029
0.000394378
0.000410814
0.000409854
0.00036755
0.000298206
0.000236757
0.000189688
0.000166393
0.000157691
2.08507e-05
1.80112e-05
0.000116718
0.000126896
0.000139532
0.000143897
0.000136748
0.000127771
0.000125403
0.000133693
0.000148442
0.000143143
0.000116718
9.7792e-05
9.71057e-05
0.000125724
0.000201877
0.000316022
0.000331852
0.000280523
0.000311648
0.000442746
0.000581078
0.000562607
0.000516426
0.000505983
0.000493355
0.000465409
0.000426093
0.000384914
0.000359998
0.000354345
0.000359765
0.000366946
0.000322738
2.22556e-05
1.50932e-05
8.71745e-05
9.49092e-05
0.000167496
0.000275455
0.000278483
0.000222288
0.000171336
0.000142097
0.000132136
0.000141629
0.000186203
0.000220208
0.000140496
9.55216e-05
8.23968e-05
8.4035e-05
0.000101409
0.000152123
0.000233219
0.000265554
0.000271284
0.000289702
0.000329828
0.000395612
0.000485274
0.000563795
0.000538416
0.000425772
0.000330184
0.000270777
0.00023271
0.000205875
0.000166255
2.06332e-05
9.8292e-06
8.04643e-05
7.85239e-05
0.000129452
0.000239327
0.000356896
0.000394035
0.000297825
0.00019948
0.000140895
0.000109643
9.46924e-05
9.26388e-05
0.00010884
0.000155893
0.000163272
0.000127203
0.000111295
0.000113262
0.000131534
0.00016675
0.000214753
0.000259724
0.000285932
0.000286369
0.000262713
0.000231445
0.000209822
0.000202699
0.000206769
0.000220454
0.000244894
0.000268913
0.000259473
2.22702e-05
5.99409e-06
3.92963e-05
0.000161784
0.000104849
9.52707e-05
0.000120354
0.000181012
0.00029588
0.000477605
0.000509907
0.000332952
0.000202491
0.000136434
0.00010387
8.9632e-05
9.06886e-05
0.000109271
0.0001328
0.000131748
0.000125815
0.000133448
0.0001532
0.000177781
0.000198208
0.000211642
0.000221399
0.000230096
0.000237055
0.00023903
0.000233796
0.000222742
0.000199974
0.000182381
0.000193537
2.42525e-05
9.03454e-06
1.84905e-05
5.76789e-06
6.26403e-06
2.62784e-06
2.0949e-05
6.75957e-05
0.000102226
0.000134117
0.000181294
0.000274267
0.000483433
0.000693816
0.000537247
0.000344298
0.000239104
0.000181108
0.000132332
0.000115543
0.000143063
0.000201175
0.000243916
0.000262512
0.000273184
0.000280472
0.000285162
0.000290583
0.000299344
0.000308905
0.000313085
0.000311676
0.000321773
0.00037359
0.000440333
2.33043e-05
5.68832e-06
3.82985e-05
8.12736e-05
7.72769e-05
9.56565e-05
4.76384e-05
6.88033e-07
6.9809e-06
2.14957e-05
5.80661e-05
9.57423e-05
0.000141802
0.000218171
0.000392322
0.000806005
0.000955779
0.00048653
0.000211153
0.000157623
0.000203629
0.000279916
0.000303707
0.000326856
0.000364739
0.000402759
0.000430989
0.000449883
0.000460626
0.000460794
0.000444959
0.000407278
0.00034601
0.0002626
0.000152135
2.08089e-05
8.62772e-06
4.88501e-05
7.71977e-05
7.68915e-05
4.51124e-05
3.31448e-05
3.67469e-05
3.90247e-05
3.08892e-05
2.16218e-05
3.07173e-05
5.61622e-05
9.35072e-05
0.000141038
0.000200123
0.000269434
0.000331673
0.000355553
0.000377199
0.000469044
0.000605409
0.000663099
0.000646351
0.000616341
0.000590983
0.000567424
0.000540592
0.000507276
0.000467304
0.00042106
0.00036789
0.000310259
0.000244687
0.000141465
2.15262e-05
8.5873e-06
4.17064e-05
0.000109523
9.51492e-05
6.97273e-05
5.40583e-05
4.52673e-05
3.925e-05
3.44272e-05
3.02426e-05
2.55409e-05
2.13476e-05
2.29309e-05
3.21466e-05
4.66312e-05
6.46288e-05
8.47675e-05
0.000110632
0.000149046
0.000202677
0.000273598
0.000361903
0.000458075
0.000550941
0.00064263
0.000736804
0.000827819
0.000887144
0.000873007
0.000863001
0.000857599
0.000552086
0.000294293
0.000139163
2.29528e-05
9.42992e-06
5.55797e-05
0.000117251
8.78844e-05
5.66299e-05
4.63498e-05
5.19869e-05
6.33798e-05
6.54463e-05
5.7225e-05
4.81855e-05
4.17571e-05
3.53365e-05
2.69455e-05
2.15274e-05
1.25764e-05
1.16717e-05
1.64352e-05
2.18382e-05
3.52838e-05
6.31402e-05
0.000107981
0.000173003
0.000250406
0.000318275
0.000367765
0.000411826
0.000468794
0.000549979
0.000646949
0.000697402
0.000543447
0.000233435
9.68437e-05
2.24524e-05
9.21158e-06
6.1577e-05
0.000103957
7.82176e-05
5.52866e-05
4.70361e-05
5.16158e-05
6.61612e-05
8.37874e-05
9.3804e-05
9.41749e-05
8.99068e-05
7.66604e-05
4.89332e-05
1.77673e-05
1.66272e-06
2.34957e-07
2.86505e-06
1.19497e-05
3.98445e-05
6.84218e-05
0.000103304
0.000154554
0.000221596
0.000290745
0.000352069
0.000403905
0.000444281
0.00047243
0.000490855
0.000498553
0.000453257
0.000222943
8.3175e-05
2.22958e-05
8.59421e-06
5.67095e-05
0.000111593
0.000106656
8.71512e-05
6.49e-05
5.12661e-05
4.93415e-05
5.70306e-05
7.00825e-05
8.20277e-05
8.92725e-05
9.30069e-05
8.62059e-05
5.62601e-05
2.01853e-05
3.04566e-06
2.9316e-07
2.45904e-06
1.7232e-05
3.79562e-05
5.87485e-05
8.02883e-05
0.000105802
0.000139254
0.000181874
0.000231815
0.000283684
0.000327506
0.000354259
0.000360925
0.000334137
0.000187696
8.75395e-05
2.0038e-05
7.95558e-06
4.73748e-05
0.000113982
0.000126482
0.00011405
8.61953e-05
6.04003e-05
4.62251e-05
4.22317e-05
4.58963e-05
5.51338e-05
6.63874e-05
7.47296e-05
7.77593e-05
7.63296e-05
6.9266e-05
4.93276e-05
2.22653e-05
6.77922e-06
1.56225e-06
4.95021e-06
1.40846e-05
2.94848e-05
4.67373e-05
6.32616e-05
8.65622e-05
0.000121746
0.000171914
0.000232636
0.000283921
0.000308129
0.000297541
0.000229497
0.00014787
1.93982e-05
7.88475e-06
4.73249e-05
0.000123907
0.000147196
0.000144993
0.000128589
9.8636e-05
6.85267e-05
4.96164e-05
4.11356e-05
4.04267e-05
4.64097e-05
5.82118e-05
7.28258e-05
8.48916e-05
9.04311e-05
8.89222e-05
7.87879e-05
5.59839e-05
2.90326e-05
1.10048e-05
1.90659e-06
3.31297e-06
1.65566e-05
3.62984e-05
6.07211e-05
9.94902e-05
0.000157119
0.000232177
0.000318307
0.000389285
0.000420116
0.000407652
0.000315493
2.24548e-05
7.56944e-06
4.63355e-05
0.000137949
0.000176292
0.00017948
0.000171275
0.000156812
0.00013147
9.62819e-05
6.69363e-05
4.9644e-05
4.21363e-05
4.29983e-05
5.27557e-05
7.14781e-05
9.44483e-05
0.000111985
0.000115756
0.00010282
7.48975e-05
4.09556e-05
1.5373e-05
2.381e-06
3.57075e-06
1.68154e-05
4.05368e-05
8.46751e-05
0.000164686
0.000277224
0.000377042
0.000440753
0.00047475
0.000488441
0.000459471
2.56e-05
7.48407e-06
4.3436e-05
0.000138521
0.000180231
0.000171043
0.000146735
0.000131036
0.000132121
0.000141141
0.000133022
9.93222e-05
6.74131e-05
4.9316e-05
4.38479e-05
5.13301e-05
7.29108e-05
9.71998e-05
0.000102983
8.60929e-05
5.82426e-05
3.31104e-05
1.43087e-05
2.79546e-06
2.6035e-06
1.04354e-05
3.01872e-05
7.04544e-05
0.000164881
0.000351781
0.00047823
0.000502565
0.000488196
0.000428311
0.000240933
2.32252e-05
8.00101e-06
4.67931e-05
0.000140432
0.000174473
0.000159122
0.000130986
0.000108594
0.000101531
0.000113193
0.000141112
0.000163505
0.000140919
8.90598e-05
5.47551e-05
4.1263e-05
4.29669e-05
5.43571e-05
5.81474e-05
4.72428e-05
3.12003e-05
1.82272e-05
9.5857e-06
2.98641e-06
1.16277e-07
5.15209e-06
1.47715e-05
3.75397e-05
7.93956e-05
0.000159033
0.000277817
0.00036772
0.000370884
0.000274709
0.000109628
1.67088e-05
9.30682e-06
6.54058e-05
0.000168518
0.000168324
0.000142117
0.000123004
0.000113148
0.000107903
0.000109311
0.000123808
0.000152388
0.00017927
0.000167441
0.000107732
6.04856e-05
4.2003e-05
4.23786e-05
5.42459e-05
6.42824e-05
6.01497e-05
4.49321e-05
2.93286e-05
1.91642e-05
1.32837e-05
9.1288e-06
7.24896e-06
1.19255e-05
2.36357e-05
4.3366e-05
7.55047e-05
0.000129752
0.000203441
0.000250714
9.20503e-05
1.16999e-05
9.97684e-06
9.49747e-05
0.000167826
0.000138284
0.00011562
0.000111032
0.000119197
0.000132072
0.000142757
0.000150608
0.000159589
0.000168089
0.000163985
0.000134283
8.91555e-05
5.82746e-05
4.90191e-05
5.66843e-05
7.15589e-05
7.73517e-05
6.61664e-05
4.61324e-05
2.78533e-05
1.58029e-05
1.06164e-05
9.52011e-06
9.41191e-06
1.12258e-05
1.61601e-05
2.46554e-05
3.36947e-05
3.85149e-05
7.21751e-05
8.13639e-05
1.0457e-05
9.27785e-06
7.8815e-05
0.000140505
0.000127727
0.000117587
0.000115976
0.000119889
0.000127498
0.000137036
0.000145405
0.000149762
0.00014723
0.000134105
0.000110804
8.60269e-05
7.00232e-05
6.87416e-05
8.38958e-05
0.000105924
0.000115088
0.000104132
7.9916e-05
5.24289e-05
2.89697e-05
1.36047e-05
8.74085e-06
1.12566e-05
1.84068e-05
2.59249e-05
2.11614e-05
1.39941e-05
1.72856e-05
5.56126e-05
5.33092e-05
1.02323e-05
7.9288e-06
5.12241e-05
0.000125624
0.000135407
0.000126708
0.000108559
9.44788e-05
9.09348e-05
9.59255e-05
0.000104352
0.000111337
0.000114172
0.000112468
0.000107581
0.000101984
9.88041e-05
0.000101791
0.000113408
0.00013024
0.000141788
0.000136934
0.000112109
7.47494e-05
3.86907e-05
1.56166e-05
8.3099e-06
1.16398e-05
2.27991e-05
4.35281e-05
4.38436e-05
2.90967e-05
3.40684e-05
8.67786e-05
3.73062e-05
9.01802e-06
7.52595e-06
4.40438e-05
0.000119009
0.000138164
0.000128385
0.000104949
8.30272e-05
7.13969e-05
6.9358e-05
7.35837e-05
8.09396e-05
8.93106e-05
9.78343e-05
0.000105985
0.000112561
0.000116746
0.000120148
0.000125884
0.000134922
0.000143267
0.000142548
0.00012561
9.29475e-05
5.45426e-05
2.4033e-05
8.83131e-06
6.84029e-06
1.31997e-05
2.69311e-05
4.9237e-05
6.44206e-05
7.87244e-05
0.000100908
3.34032e-05
7.81068e-06
7.49568e-06
4.42201e-05
0.000135639
0.000175307
0.000171361
0.000151695
0.000126051
0.00010269
8.6716e-05
7.83658e-05
7.58349e-05
7.73836e-05
8.1453e-05
8.66325e-05
9.22526e-05
9.85434e-05
0.000105898
0.000114322
0.000123334
0.000131645
0.000136447
0.000133916
0.000121237
9.74226e-05
6.46634e-05
3.25296e-05
1.29674e-05
7.23451e-06
1.05761e-05
1.99626e-05
3.95906e-05
7.66731e-05
9.49289e-05
3.52266e-05
7.60887e-06
7.70334e-06
4.48584e-05
0.000153414
0.000210188
0.000200859
0.000177725
0.000162117
0.000155563
0.000148899
0.000134716
0.000115885
9.84355e-05
8.50529e-05
7.6406e-05
7.29651e-05
7.52016e-05
8.2911e-05
9.48424e-05
0.000109234
0.000123992
0.000136556
0.000144115
0.000144309
0.00013573
0.000117461
8.85154e-05
5.30401e-05
2.50031e-05
1.23412e-05
1.07033e-05
1.64733e-05
3.48394e-05
7.45453e-05
4.03511e-05
7.96384e-06
8.35056e-06
4.67946e-05
0.000142392
0.000185411
0.000167397
0.000136888
0.000117441
0.000115664
0.00013242
0.000165545
0.000200376
0.000207433
0.000176453
0.000133266
9.92997e-05
7.86142e-05
7.04371e-05
7.37471e-05
8.60189e-05
0.000103342
0.000122693
0.000140919
0.000153718
0.000157221
0.000149562
0.000130128
9.85515e-05
5.98033e-05
2.96781e-05
1.51125e-05
1.14634e-05
1.80065e-05
4.51812e-05
4.7036e-05
8.46157e-06
9.65995e-06
6.35237e-05
0.000160675
0.000162131
0.000133873
0.000113427
0.000105448
0.000106389
0.000117756
0.000145173
0.000192272
0.000251076
0.000293342
0.000279669
0.000205665
0.000131762
9.0377e-05
7.48208e-05
7.72273e-05
9.19094e-05
0.000112143
0.000133082
0.000151134
0.000161493
0.000159876
0.000144369
0.000114637
7.45608e-05
3.95604e-05
1.99833e-05
1.23207e-05
1.57838e-05
4.16091e-05
4.80763e-05
8.8087e-06
9.84641e-06
7.52174e-05
0.000157876
0.000128514
0.000100801
9.63506e-05
0.000109979
0.000132721
0.000156637
0.000181106
0.000210508
0.000246475
0.000283063
0.000304
0.000283033
0.000211229
0.000136507
9.5924e-05
8.46834e-05
9.33041e-05
0.000112932
0.000133925
0.0001505
0.000159657
0.000157752
0.000141324
0.000109034
6.75161e-05
3.57929e-05
2.00523e-05
1.41943e-05
1.92695e-05
5.39391e-05
4.39977e-05
8.87525e-06
8.82321e-06
5.38489e-05
0.000137194
0.000115469
8.49248e-05
7.60311e-05
8.70905e-05
0.000113997
0.000148434
0.000180298
0.000206375
0.000228945
0.000247893
0.000256167
0.000242448
0.000203486
0.000155075
0.000119715
0.000106274
0.000112671
0.000130488
0.000147951
0.000158659
0.000161715
0.000154692
0.000133132
9.59503e-05
5.48397e-05
2.92374e-05
1.95332e-05
1.8e-05
2.85657e-05
7.85493e-05
3.93956e-05
8.69954e-06
7.81169e-06
3.77378e-05
0.000105954
0.000115281
8.40563e-05
5.57786e-05
4.96765e-05
6.13564e-05
8.75755e-05
0.000123274
0.00016052
0.000192158
0.000213108
0.000219474
0.000210163
0.000190127
0.000168936
0.000154889
0.000151591
0.000157257
0.000164871
0.000167297
0.000163747
0.000156408
0.000143581
0.000119955
8.40181e-05
4.7422e-05
2.60079e-05
1.98796e-05
2.32373e-05
4.20937e-05
9.67297e-05
3.66326e-05
8.41629e-06
7.86673e-06
3.60181e-05
0.00010074
0.000124385
9.51533e-05
5.76306e-05
4.12572e-05
4.0977e-05
5.32127e-05
7.64841e-05
0.000106645
0.000137267
0.000162973
0.00018176
0.000195062
0.000205086
0.000211546
0.000212183
0.000206743
0.000197567
0.000186384
0.000174082
0.000162043
0.000150637
0.000136711
0.000114374
8.13239e-05
4.70491e-05
2.58359e-05
2.0121e-05
2.75692e-05
5.61651e-05
0.000102783
3.56808e-05
8.20321e-06
8.09072e-06
3.72468e-05
0.000116186
0.000138027
9.45161e-05
6.59142e-05
5.5863e-05
5.25163e-05
5.47806e-05
6.50202e-05
8.38215e-05
0.000109707
0.000140273
0.000172422
0.000201354
0.00022162
0.000230593
0.000229751
0.000221913
0.000208718
0.000191266
0.000172032
0.000154358
0.000140114
0.00012769
0.000111766
8.68438e-05
5.54878e-05
3.07912e-05
2.11421e-05
2.7175e-05
5.83057e-05
0.000103451
3.66203e-05
8.14088e-06
8.78457e-06
4.21227e-05
0.000131578
0.00012499
7.10813e-05
5.58792e-05
6.78447e-05
8.78038e-05
9.25786e-05
8.81548e-05
8.70237e-05
9.29464e-05
0.000106249
0.000125989
0.000149783
0.000174409
0.000197103
0.000215194
0.000224943
0.000222684
0.000207916
0.000185075
0.000161128
0.00014134
0.000126766
0.000114075
9.68876e-05
7.07568e-05
4.22952e-05
2.55486e-05
2.53975e-05
4.77469e-05
0.000100924
4.00987e-05
8.30849e-06
9.65325e-06
5.45819e-05
0.00013715
9.74321e-05
5.44322e-05
4.66964e-05
6.76203e-05
0.000118353
0.000168382
0.00017352
0.00014728
0.000119954
0.000103227
9.88721e-05
0.000107596
0.000129061
0.000159865
0.000193265
0.000220358
0.000232299
0.000224849
0.000201795
0.000172481
0.000145817
0.000125979
0.000111947
9.86972e-05
7.95952e-05
5.35555e-05
3.22957e-05
2.66583e-05
4.19593e-05
9.61918e-05
4.38156e-05
8.57553e-06
9.97882e-06
7.05556e-05
0.000127848
8.48697e-05
5.8589e-05
5.79669e-05
7.9215e-05
0.000120329
0.000168679
0.000205728
0.000215262
0.000190542
0.000148561
0.000114984
9.98459e-05
0.000103429
0.000124178
0.000157317
0.000192565
0.000216635
0.000220365
0.000204407
0.000177242
0.000148642
0.000124864
0.000107115
9.23996e-05
7.56928e-05
5.45571e-05
3.56713e-05
2.94631e-05
4.42501e-05
0.000101306
4.50911e-05
8.76281e-06
9.30922e-06
6.1027e-05
0.00013318
0.00011938
8.80536e-05
6.63527e-05
6.29755e-05
7.68376e-05
0.000105248
0.000142826
0.000179649
0.000201304
0.000193411
0.000158138
0.000121942
0.00010419
0.000107555
0.000129243
0.000161301
0.000189336
0.000199913
0.000190208
0.000167351
0.000140816
0.000117003
9.76501e-05
8.11294e-05
6.51958e-05
4.93688e-05
3.68181e-05
3.4633e-05
5.47205e-05
0.00011431
4.34128e-05
8.73359e-06
8.98726e-06
4.97046e-05
0.000120941
0.000138857
0.000125736
8.20267e-05
5.46623e-05
5.07912e-05
6.11244e-05
8.24699e-05
0.000113675
0.000149588
0.000177922
0.000182829
0.000158962
0.000126655
0.000109146
0.000112707
0.000134287
0.000162755
0.000180732
0.000178
0.000158902
0.000133912
0.000110311
9.00908e-05
7.22146e-05
5.64034e-05
4.42643e-05
3.7688e-05
4.14788e-05
6.94871e-05
0.000122923
4.1317e-05
8.55733e-06
9.12274e-06
5.24512e-05
0.000133308
0.000153665
0.000149735
0.000133806
9.97162e-05
6.93875e-05
5.73265e-05
5.88029e-05
7.13758e-05
9.56872e-05
0.000129644
0.000161729
0.000173895
0.000157877
0.000130408
0.000114749
0.000118809
0.000138537
0.000159333
0.000164138
0.00015021
0.000127533
0.000105271
8.59922e-05
6.82815e-05
5.23168e-05
4.14053e-05
3.85289e-05
4.81548e-05
8.33545e-05
0.000125335
4.01398e-05
8.40348e-06
9.01912e-06
5.27228e-05
0.000144245
0.000171438
0.000174532
0.00017255
0.000162097
0.000129827
8.8892e-05
6.38424e-05
5.5093e-05
5.96456e-05
7.86286e-05
0.00011138
0.000146275
0.000163366
0.000153649
0.000132015
0.000119612
0.00012395
0.000139292
0.000149622
0.000142753
0.000123191
0.00010198
8.40187e-05
6.78842e-05
5.23401e-05
4.09749e-05
3.87947e-05
5.12654e-05
8.99516e-05
0.000125745
4.02993e-05
8.39522e-06
8.53533e-06
4.40568e-05
0.000127145
0.000165084
0.000164652
0.000153015
0.000146119
0.000147455
0.000140179
0.000107401
7.04075e-05
5.13119e-05
5.16678e-05
7.08544e-05
0.000106605
0.000144985
0.000164055
0.000157044
0.000140276
0.000131994
0.000136747
0.000145204
0.000141918
0.00012366
0.000101296
8.30752e-05
6.84647e-05
5.43264e-05
4.26883e-05
3.98251e-05
5.25307e-05
9.203e-05
0.000126901
4.11264e-05
8.50118e-06
8.78408e-06
4.47832e-05
0.000129423
0.000169962
0.000164396
0.000143601
0.000125269
0.00012178
0.000133705
0.000144237
0.00011799
6.99063e-05
4.85155e-05
5.3808e-05
8.11942e-05
0.000123831
0.000161221
0.000173558
0.000164583
0.00015294
0.000149943
0.000152617
0.000147844
0.000128184
0.000102667
8.25255e-05
6.86297e-05
5.63602e-05
4.52792e-05
4.16543e-05
5.35101e-05
9.26367e-05
0.000129205
4.19647e-05
8.65617e-06
9.3808e-06
5.21091e-05
0.000143527
0.000171597
0.000161777
0.000142164
0.000123378
0.00011234
0.000112999
0.000122758
0.000123862
9.05382e-05
5.83939e-05
5.47483e-05
7.79814e-05
0.000122272
0.000167849
0.000190971
0.000189648
0.000179879
0.000173707
0.000170023
0.000158439
0.000133123
0.000103073
8.0479e-05
6.69185e-05
5.6885e-05
4.76978e-05
4.45705e-05
5.66934e-05
9.67096e-05
0.000132287
4.2144e-05
8.79986e-06
9.70997e-06
5.78832e-05
0.000150834
0.000163958
0.000148662
0.00012968
0.000115608
0.000105963
9.8764e-05
9.38722e-05
8.81873e-05
7.58036e-05
6.32553e-05
6.74997e-05
9.79892e-05
0.000149534
0.000196046
0.000216767
0.000215118
0.000205392
0.000195891
0.000184614
0.000164247
0.000132875
9.99028e-05
7.64194e-05
6.36844e-05
5.59848e-05
4.95382e-05
4.8441e-05
6.27896e-05
0.000105414
0.000135332
4.16901e-05
8.89608e-06
9.5306e-06
6.12211e-05
0.000153878
0.000155341
0.00013432
0.000115351
0.000105568
9.92512e-05
8.7972e-05
7.28138e-05
6.21801e-05
6.05808e-05
7.15562e-05
0.000102975
0.000154793
0.000202951
0.000228831
0.0002342
0.000228216
0.000217916
0.000205133
0.000187025
0.000159837
0.000125109
9.21483e-05
7.00827e-05
5.9358e-05
5.4469e-05
5.1493e-05
5.40757e-05
7.31241e-05
0.000119053
0.000137447
4.10284e-05
8.9365e-06
9.27977e-06
6.32566e-05
0.000151992
0.000147331
0.000122924
0.000102962
9.34545e-05
8.66045e-05
7.32684e-05
5.79914e-05
5.34159e-05
6.75123e-05
0.000105084
0.000154532
0.000190013
0.000208765
0.00021715
0.000219094
0.000216256
0.000209085
0.000196551
0.000176287
0.000146962
0.000112402
8.18703e-05
6.27151e-05
5.46977e-05
5.30244e-05
5.43602e-05
6.23247e-05
8.79147e-05
0.000134311
0.00013723
4.01402e-05
8.86708e-06
9.05617e-06
6.04706e-05
0.000146562
0.000145115
0.000119536
9.56865e-05
8.42267e-05
8.03883e-05
7.45139e-05
6.48035e-05
6.14273e-05
7.3473e-05
0.000101198
0.000134351
0.000163001
0.000183896
0.000197719
0.000205635
0.00020803
0.000204225
0.000192454
0.000170572
0.000138835
0.000103162
7.35287e-05
5.64507e-05
5.10248e-05
5.24537e-05
5.8018e-05
7.20081e-05
0.000103964
0.000146446
0.000135041
3.93029e-05
8.69487e-06
9.0538e-06
5.71503e-05
0.000145581
0.00015283
0.000130359
0.000101982
8.57318e-05
8.48876e-05
9.30888e-05
9.57208e-05
8.27633e-05
6.80554e-05
6.6378e-05
8.10414e-05
0.000110018
0.000144237
0.000172806
0.000192037
0.000202684
0.000204794
0.000196531
0.000175564
0.00014236
0.000103548
7.06433e-05
5.18282e-05
4.7372e-05
5.25735e-05
6.29553e-05
8.20438e-05
0.000117628
0.000154115
0.000132927
3.86009e-05
8.44533e-06
9.07222e-06
5.54934e-05
0.000145916
0.000158761
0.000141785
0.000115647
9.40365e-05
8.64032e-05
9.47935e-05
0.000114522
0.000126951
0.000109459
7.76313e-05
6.07363e-05
6.51236e-05
9.10851e-05
0.000131909
0.000170459
0.000195978
0.000207516
0.000205557
0.000189285
0.000158402
0.000117322
7.77794e-05
5.17936e-05
4.29056e-05
4.90138e-05
6.64428e-05
9.27267e-05
0.000129528
0.00015932
0.00013322
3.86297e-05
8.25031e-06
9.11285e-06
5.61664e-05
0.000148716
0.000160573
0.000142752
0.000119136
0.000100209
8.91247e-05
8.87931e-05
0.000102508
0.000129396
0.00015315
0.000138973
9.08566e-05
6.10015e-05
6.00529e-05
8.5893e-05
0.000131568
0.000176278
0.00020326
0.000210389
0.000200668
0.000176002
0.000138503
9.56894e-05
6.08613e-05
4.29136e-05
4.26377e-05
6.01245e-05
9.54521e-05
0.000136643
0.000160999
0.000133404
3.93938e-05
8.215e-06
9.07426e-06
5.7085e-05
0.000150468
0.000158452
0.000135776
0.000110931
9.73318e-05
9.43305e-05
9.74133e-05
0.000105141
0.000119035
0.00013711
0.000146318
0.000125761
8.52231e-05
6.34371e-05
6.96793e-05
0.000102732
0.00015074
0.000189644
0.000205994
0.000202488
0.000184619
0.000154907
0.000116386
7.77407e-05
5.07744e-05
4.11288e-05
4.99837e-05
8.19393e-05
0.000129464
0.000157124
0.000134644
4.10453e-05
8.39931e-06
9.10526e-06
5.75607e-05
0.000151292
0.000154849
0.000128199
0.000103845
9.31308e-05
9.46297e-05
0.000104565
0.00011789
0.000129042
0.000134333
0.00013075
0.000115523
9.22064e-05
7.41824e-05
7.3541e-05
9.53638e-05
0.000135135
0.000174219
0.000195253
0.000196776
0.000184847
0.000163132
0.00013275
9.69665e-05
6.48838e-05
4.63265e-05
4.52659e-05
6.54225e-05
0.000110736
0.000149531
0.000137506
4.30422e-05
8.68828e-06
9.20283e-06
5.99551e-05
0.000152519
0.000145756
0.000114332
9.42468e-05
8.99007e-05
9.56401e-05
0.000107579
0.000123675
0.000139728
0.00014843
0.000142932
0.000122891
9.81125e-05
8.12749e-05
7.97967e-05
9.68196e-05
0.00012982
0.000165198
0.000187034
0.000191192
0.000182665
0.000166007
0.000142513
0.000112681
8.07884e-05
5.62403e-05
4.6755e-05
5.60772e-05
9.11399e-05
0.00013983
0.000142623
4.50548e-05
8.98227e-06
9.25925e-06
6.32438e-05
0.000153357
0.000134535
0.00010035
8.54447e-05
8.82879e-05
0.000101021
0.000116533
0.000130949
0.000142761
0.000149125
0.000145309
0.000129354
0.00010755
9.12225e-05
8.83774e-05
0.0001021
0.000130131
0.000161393
0.000181923
0.00018671
0.000179521
0.000165102
0.000145432
0.000120585
9.1908e-05
6.57362e-05
5.09619e-05
5.32346e-05
7.97576e-05
0.000132242
0.000147721
4.60298e-05
9.16591e-06
9.22732e-06
6.43695e-05
0.000151669
0.000123117
8.95939e-05
8.01303e-05
8.83835e-05
0.000105834
0.000124648
0.000139337
0.000147442
0.000147905
0.000140078
0.000125554
0.000109718
9.93735e-05
9.96658e-05
0.000112952
0.00013698
0.000162555
0.000178643
0.000181209
0.000173291
0.000159178
0.000141125
0.000119515
9.4772e-05
7.06998e-05
5.49484e-05
5.45901e-05
7.81201e-05
0.000132617
0.000151731
4.55168e-05
9.19872e-06
9.25242e-06
6.54847e-05
0.000147489
0.000109595
7.91219e-05
7.57738e-05
8.98884e-05
0.000111171
0.000130795
0.000144555
0.000150975
0.000149125
0.000139299
0.000124894
0.000111866
0.000105613
0.00010926
0.000123429
0.000144842
0.000165409
0.000176748
0.000176183
0.00016647
0.000151486
0.000133603
0.000113581
9.18499e-05
7.10704e-05
5.73342e-05
5.79195e-05
8.30034e-05
0.000139875
0.000152982
4.38905e-05
9.09758e-06
9.21604e-06
6.64113e-05
0.000139692
9.46876e-05
6.86609e-05
7.07309e-05
9.12316e-05
0.000118844
0.000141674
0.000154918
0.000158588
0.000153511
0.000141538
0.000127019
0.000115651
0.00011178
0.000117372
0.000131845
0.000151015
0.000167322
0.000174131
0.000169998
0.000157846
0.000141477
0.000123425
0.000104799
8.62298e-05
6.97324e-05
6.00382e-05
6.44254e-05
9.46328e-05
0.00015214
0.000151559
4.20019e-05
8.92672e-06
9.11558e-06
6.50414e-05
0.0001343
8.72369e-05
6.35874e-05
6.80585e-05
9.13543e-05
0.00012161
0.000146075
0.000159778
0.000162739
0.000156133
0.000142804
0.000128165
0.000118047
0.000116034
0.000123089
0.000137749
0.000155359
0.000168683
0.000171923
0.000164298
0.000149212
0.00013104
0.000112839
9.58133e-05
8.03352e-05
6.80603e-05
6.32409e-05
7.34064e-05
0.000110406
0.00016376
0.000146961
4.00358e-05
8.70441e-06