/*--------------------------------*- C++ -*----------------------------------*\
| =========                 |                                                 |
| \\      /  F ield         | OpenFOAM: The Open Source CFD Toolbox           |
|  \\    /   O peration     | Version:  v1906                                 |
|   \\  /    A nd           | Web:      www.OpenFOAM.com                      |
|    \\/     M anipulation  |                                                 |
\*---------------------------------------------------------------------------*/
FoamFile
{
    version     2.0;
    format      ascii;
    class       volScalarField;
    location    "4/oil";
    object      heatTransferCoeff(T);
}
// * * * * * * * * * * * * * * * * * * * * * * * * * * * * * * * * * * * * * //

dimensions      [1 0 -3 -1 0 0 0];


internalField   uniform 0;

boundaryField
{
    maxY
    {
        type            calculated;
        value           uniform 0;
    }
    minX
    {
        type            calculated;
        value           uniform 0;
    }
    maxX
    {
        type            calculated;
        value           uniform 0;
    }
    minY
    {
        type            calculated;
        value           uniform 0;
    }
    minZ
    {
        type            calculated;
        value           uniform 0;
    }
    maxZ
    {
        type            calculated;
        value           uniform 0;
    }
    oil_to_sphere
    {
        type            calculated;
        value           nonuniform List<scalar> 
360
(
-65.1175
-65.483
-45.572
-108.377
-114.833
-52.7836
-117.538
-106.074
-114.186
-64.3812
-64.7256
-52.8058
-58.4114
-41.0462
-63.2222
-101.337
-116.745
-108.178
-113.163
-41.02
-95.1203
-64.5945
-57.3866
-111.674
-45.6657
-115.328
-52.6922
-113.639
-112.787
-106.653
-120.852
-118.366
-45.74
-45.2338
-52.3084
-52.515
-112.241
-111.424
-108.42
-110.335
-112.75
-45.6891
-52.2032
-66.8054
-66.9604
-52.574
-58.1643
-40.6899
-64.3258
-105.649
-52.9215
-52.7249
-57.9147
-58.1579
-40.7277
-64.9317
-108.308
-41.0418
-52.446
-58.126
-41.1249
-113.449
-107.744
-112.451
-40.7065
-97.8969
-64.9232
-55.6451
-117.858
-112.011
-107.933
-110.951
-110.789
-40.6333
-84.9718
-63.0715
-41.1851
-55.1197
-111.467
-114.387
-56.387
-55.4504
-55.5897
-41.1082
-45.3932
-52.3799
-52.6169
-58.2824
-40.9369
-41.3398
-45.5373
-58.2083
-52.6323
-45.5079
-57.9597
-52.4993
-52.5543
-52.6058
-45.4302
-41.3722
-41.3881
-40.8127
-52.8101
-52.9011
-58.3384
-40.814
-41.2068
-58.5198
-45.5344
-52.6974
-52.7486
-52.6422
-45.4748
-40.8474
-41.526
-41.4751
-56.8021
-56.6394
-56.4213
-66.3166
-66.4265
-104.661
-111.496
-100.385
-111.922
-104.46
-112.173
-113.625
-105.664
-110.415
-108.552
-56.3869
-56.1843
-56.205
-41.4367
-103.532
-112.73
-65.1022
-65.2573
-113.316
-104.701
-63.8397
-62.8901
-114.913
-105.411
-121.475
-41.4042
-41.3689
-110.622
-113.33
-120.912
-114.528
-114.563
-119.469
-120.983
-106.873
-62.7427
-114.384
-108.87
-41.0575
-113.507
-116.413
-55.2186
-54.5059
-56.5863
-64.0336
-64.7796
-115.245
-106.034
-119.897
-40.7204
-109.159
-64.996
-113.932
-108.82
-40.7486
-117.445
-56.0463
-55.9226
-41.2976
-52.6208
-52.7997
-58.3809
-45.5474
-58.1139
-52.5921
-40.7995
-41.3128
-112.77
-105.742
-113.506
-109.175
-66.3757
-66.4226
-111.707
-102.182
-109.857
-65.1924
-65.5867
-41.3089
-52.4504
-53.0334
-58.355
-52.7365
-52.4784
-58.5231
-45.5279
-58.067
-52.3484
-45.1691
-105.853
-58.4609
-52.4079
-41.1054
-111.096
-105.206
-111.087
-66.3502
-66.3519
-40.7421
-52.4797
-52.5872
-58.1006
-113.905
-45.2981
-57.8402
-52.4073
-107.649
-108.152
-65.953
-40.9246
-65.4432
-40.9975
-41.5211
-58.0743
-45.555
-52.6395
-52.5155
-52.8029
-45.4293
-41.0025
-107.519
-102.511
-113.203
-118.674
-107.945
-102.061
-115.148
-116.924
-65.1091
-109.409
-41.4238
-114.948
-113.725
-114.283
-57.8794
-45.6065
-52.7549
-58.1251
-45.857
-114.221
-52.4576
-52.2837
-52.7348
-45.4072
-115.591
-107.796
-52.3702
-52.4139
-45.4184
-107.528
-120.103
-64.7127
-108.978
-41.1174
-113.429
-111.638
-114.503
-58.3998
-45.4461
-112.898
-52.3495
-52.4774
-52.2876
-111.96
-45.6375
-110.463
-65.618
-102.414
-65.9419
-107.433
-109.992
-111.543
-40.7995
-54.9325
-54.0212
-54.5363
-66.8794
-112.054
-66.6979
-108.517
-111.743
-41.1721
-113.066
-114.449
-64.7982
-109.665
-41.3147
-120.599
-55.6871
-55.4094
-40.4378
-108.876
-65.4159
-96.7992
-109.283
-65.3546
-40.8563
-52.3733
-52.5209
-58.3113
-112.344
-104.022
-64.1857
-41.3962
-104.916
-65.1909
-41.0578
-106.868
-113.412
-63.8982
-109.457
-40.3776
-118.225
-58.5919
-117.066
-45.4265
-52.6709
-117.14
-110.354
-107.34
-64.4015
-113.942
-113.083
-64.9125
-108.206
-54.8471
-56.2168
-106.852
-65.0844
-40.8738
-106.422
-65.2358
-41.2354
-110.37
-110.993
-104.981
-65.5009
-108.491
-65.6547
)
;
    }
}


// ************************************************************************* //
