/*--------------------------------*- C++ -*----------------------------------*\
| =========                 |                                                 |
| \\      /  F ield         | OpenFOAM: The Open Source CFD Toolbox           |
|  \\    /   O peration     | Version:  v1906                                 |
|   \\  /    A nd           | Web:      www.OpenFOAM.com                      |
|    \\/     M anipulation  |                                                 |
\*---------------------------------------------------------------------------*/
FoamFile
{
    version     2.0;
    format      ascii;
    class       volVectorField;
    location    "43";
    object      U;
}
// * * * * * * * * * * * * * * * * * * * * * * * * * * * * * * * * * * * * * //

dimensions      [0 1 -1 0 0 0 0];


internalField   nonuniform List<vector> 
78750
(
(-3.27127e-06 -9.24157e-05 9.06078e-05)
(-1.29315e-05 -0.000112963 0.000156588)
(-3.55482e-05 -0.000101761 0.000192973)
(-6.71287e-05 -7.72468e-05 0.000221475)
(-0.000105981 -4.65078e-05 0.000244358)
(-0.000150572 -1.34664e-05 0.000263156)
(-0.000199344 1.88915e-05 0.000278483)
(-0.000250561 4.88543e-05 0.000290501)
(-0.000302654 7.50222e-05 0.000298878)
(-0.000354158 9.68961e-05 0.000303174)
(-0.000403757 0.000114018 0.000302761)
(-0.000450322 0.000126498 0.000297136)
(-0.000492836 0.000134327 0.000285874)
(-0.000530474 0.000137866 0.000268769)
(-0.000562479 0.00013736 0.000245911)
(-0.000588379 0.000133319 0.000217526)
(-0.000607598 0.000126185 0.000184518)
(-0.000619896 0.000116512 0.000147715)
(-0.000625234 0.000104418 0.000107167)
(-0.00062346 9.05283e-05 6.45134e-05)
(-0.000614611 7.51864e-05 2.10276e-05)
(-0.000598891 5.8773e-05 -2.20868e-05)
(-0.00057652 4.15976e-05 -6.35288e-05)
(-0.000547838 2.40079e-05 -0.000102054)
(-0.000513235 6.31461e-06 -0.000136427)
(-0.000473203 -1.111e-05 -0.00016548)
(-0.00042826 -2.7874e-05 -0.00018811)
(-0.000379031 -4.34953e-05 -0.000203281)
(-0.00032624 -5.73868e-05 -0.000210069)
(-0.000270696 -6.87882e-05 -0.000207744)
(-0.000213109 -7.67211e-05 -0.000195778)
(-0.000154005 -7.98765e-05 -0.00017406)
(-9.53132e-05 -7.64527e-05 -0.000142921)
(-4.81185e-05 -6.42522e-05 -0.000103811)
(-1.4739e-05 -3.47021e-05 -4.30938e-05)
(-1.26961e-05 0.000260915 -0.00033658)
(-4.89391e-05 0.000521328 -0.000456317)
(-9.26452e-05 0.000650509 -0.000491695)
(-0.000153819 0.000746846 -0.000525164)
(-0.000217281 0.000814039 -0.000553443)
(-0.000279217 0.000855111 -0.000574163)
(-0.000337996 0.0008749 -0.00058839)
(-0.000392441 0.000875733 -0.00059828)
(-0.000441098 0.000861854 -0.000604424)
(-0.000483634 0.000834769 -0.000608151)
(-0.00051929 0.00079809 -0.000609681)
(-0.000547979 0.000753112 -0.000609915)
(-0.000569682 0.000702695 -0.000608945)
(-0.000584426 0.000647824 -0.000607425)
(-0.000592663 0.000590239 -0.000605661)
(-0.000594682 0.000530855 -0.000603855)
(-0.000590829 0.000471347 -0.000601909)
(-0.000581541 0.00041215 -0.000600076)
(-0.000567266 0.000354439 -0.000598175)
(-0.000548462 0.000298437 -0.000596333)
(-0.000525593 0.000244887 -0.000594399)
(-0.000499106 0.000193877 -0.000592323)
(-0.000469447 0.000145856 -0.000589813)
(-0.000437041 0.000100839 -0.000586729)
(-0.000402301 5.90897e-05 -0.000582718)
(-0.000365612 2.06163e-05 -0.000577428)
(-0.000327368 -1.44035e-05 -0.000570271)
(-0.000287944 -4.59092e-05 -0.000560469)
(-0.00024772 -7.37098e-05 -0.000546821)
(-0.000207065 -9.75985e-05 -0.000527612)
(-0.000166145 -0.000117177 -0.000500466)
(-0.0001246 -0.000131626 -0.000460793)
(-8.27766e-05 -0.000139013 -0.000397357)
(-4.97983e-05 -0.000134202 -0.000295825)
(-2.54208e-05 -8.27775e-05 -9.29082e-05)
(-1.13374e-05 0.000531547 -0.000145898)
(-3.49709e-05 0.000925304 -0.000222004)
(-5.7782e-05 0.00109301 -0.000253221)
(-8.96383e-05 0.00120512 -0.000276026)
(-0.000121264 0.00127201 -0.000294897)
(-0.000151086 0.00130455 -0.000311229)
(-0.0001786 0.00130843 -0.000326717)
(-0.000203459 0.00129077 -0.000341448)
(-0.000225155 0.00125506 -0.000356181)
(-0.000243376 0.00120639 -0.000370317)
(-0.000258006 0.00114709 -0.000384146)
(-0.000269018 0.00108103 -0.000396859)
(-0.000276538 0.00100982 -0.000408572)
(-0.000280756 0.000936303 -0.000418589)
(-0.000281863 0.000861529 -0.00042735)
(-0.000280167 0.000787371 -0.000434379)
(-0.000275968 0.000714239 -0.000439941)
(-0.000269524 0.000643351 -0.000443819)
(-0.000261074 0.000574814 -0.000446363)
(-0.00025092 0.000509673 -0.000447288)
(-0.000239276 0.000447882 -0.000446912)
(-0.000226353 0.00038988 -0.000445182)
(-0.000212357 0.000335562 -0.000442315)
(-0.000197456 0.000285133 -0.000438252)
(-0.000181829 0.000238479 -0.000433075)
(-0.000165566 0.000195801 -0.000426551)
(-0.000148831 0.000157 -0.000418536)
(-0.000131736 0.00012212 -0.000408574)
(-0.000114405 9.11449e-05 -0.000396007)
(-9.69365e-05 6.42057e-05 -0.000379661)
(-7.9363e-05 4.14655e-05 -0.00035768)
(-6.14065e-05 2.3275e-05 -0.000326537)
(-4.28646e-05 1.00132e-05 -0.000279919)
(-2.68819e-05 2.55247e-06 -0.00021081)
(-1.58166e-05 2.91852e-06 -6.06971e-05)
(-1.46841e-05 0.000647171 0.000171103)
(-3.0577e-05 0.00106903 0.000173196)
(-4.04036e-05 0.00125127 0.00014772)
(-5.33787e-05 0.00137321 0.000124198)
(-6.46015e-05 0.00144813 0.00010555)
(-7.44358e-05 0.00148498 8.62826e-05)
(-8.32415e-05 0.00149225 6.48115e-05)
(-9.11325e-05 0.00147508 3.9968e-05)
(-9.79403e-05 0.00143948 1.24766e-05)
(-0.000103521 0.00138888 -1.77779e-05)
(-0.000107617 0.00132818 -4.92458e-05)
(-0.000110188 0.00125993 -8.13611e-05)
(-0.000111258 0.00118759 -0.000112647)
(-0.000111147 0.00111248 -0.000142982)
(-0.000109854 0.00103722 -0.000170978)
(-0.000107578 0.000962498 -0.000196423)
(-0.000104515 0.000889741 -0.000219011)
(-0.000100826 0.000819136 -0.000239059)
(-9.66601e-05 0.000751599 -0.000256409)
(-9.21343e-05 0.000687124 -0.000271381)
(-8.73627e-05 0.000626287 -0.000283864)
(-8.24726e-05 0.000568984 -0.000294124)
(-7.74876e-05 0.000515317 -0.000302196)
(-7.25168e-05 0.000465051 -0.000308344)
(-6.75895e-05 0.000418278 -0.000312535)
(-6.28173e-05 0.000374859 -0.000314839)
(-5.81596e-05 0.000334803 -0.000315104)
(-5.35965e-05 0.000297826 -0.000313322)
(-4.90553e-05 0.000263768 -0.000309175)
(-4.44427e-05 0.000232266 -0.000302304)
(-3.95334e-05 0.000202973 -0.000292043)
(-3.38099e-05 0.000175393 -0.000278266)
(-2.63812e-05 0.000148839 -0.000261034)
(-1.82555e-05 0.00012278 -0.000234148)
(-1.22256e-05 7.93369e-05 -0.000132281)
(-1.50782e-05 0.000623331 0.000314166)
(-2.49248e-05 0.000978929 0.000351812)
(-2.59553e-05 0.00113569 0.000327355)
(-2.53284e-05 0.00124496 0.000304282)
(-2.1463e-05 0.00131617 0.000288032)
(-1.59331e-05 0.00135756 0.000272931)
(-9.81678e-06 0.00137427 0.000255669)
(-3.67986e-06 0.00137196 0.000236213)
(2.59159e-06 0.00135347 0.000213264)
(8.63272e-06 0.00132198 0.000185757)
(1.42642e-05 0.00127963 0.000153425)
(1.9524e-05 0.00123057 0.000119109)
(2.44107e-05 0.00117734 8.52591e-05)
(2.84657e-05 0.00112227 5.32159e-05)
(3.18842e-05 0.00106615 2.30649e-05)
(3.45119e-05 0.00101053 -5.18148e-06)
(3.64084e-05 0.000955708 -3.14389e-05)
(3.76241e-05 0.00090264 -5.54043e-05)
(3.80962e-05 0.000851408 -7.71813e-05)
(3.78583e-05 0.000802598 -9.66245e-05)
(3.68927e-05 0.000756128 -0.000113872)
(3.52325e-05 0.000712324 -0.000128852)
(3.28579e-05 0.000670963 -0.000141745)
(2.98053e-05 0.000632227 -0.000152473)
(2.60931e-05 0.000595835 -0.000161174)
(2.17704e-05 0.000561737 -0.000167846)
(1.68962e-05 0.000529394 -0.000172722)
(1.16211e-05 0.000498313 -0.000175967)
(6.11608e-06 0.000467713 -0.000177793)
(6.05645e-07 0.000436884 -0.000178208)
(-4.58528e-06 0.000404547 -0.000177609)
(-8.89415e-06 0.000369287 -0.000177883)
(-1.1075e-05 0.000328817 -0.000183136)
(-9.94747e-06 0.000280436 -0.000188054)
(-8.43083e-06 0.00018165 -0.000131783)
(-9.24061e-06 0.000553715 0.000324595)
(-1.18593e-05 0.000833951 0.000357319)
(-8.77785e-06 0.000961226 0.000330753)
(-2.26507e-06 0.0010536 0.00030783)
(7.10687e-06 0.00111866 0.000293121)
(1.78925e-05 0.00116108 0.000280125)
(2.92315e-05 0.00118569 0.000265266)
(4.06011e-05 0.00119494 0.000247768)
(5.16338e-05 0.00119247 0.000228069)
(6.19701e-05 0.00118058 0.000206773)
(7.11302e-05 0.00116189 0.000184329)
(7.8808e-05 0.00113748 0.000160858)
(8.50481e-05 0.00110937 0.000136948)
(8.98196e-05 0.00107843 0.000113003)
(9.31572e-05 0.00104608 8.95143e-05)
(9.51766e-05 0.00101273 6.68483e-05)
(9.58769e-05 0.00097943 4.52858e-05)
(9.5308e-05 0.000946348 2.49271e-05)
(9.35819e-05 0.000914168 6.04508e-06)
(9.07096e-05 0.000882911 -1.13213e-05)
(8.67908e-05 0.000852991 -2.70106e-05)
(8.18512e-05 0.000824242 -4.10707e-05)
(7.59871e-05 0.000796847 -5.34194e-05)
(6.92454e-05 0.000770473 -6.41771e-05)
(6.17393e-05 0.000745071 -7.33295e-05)
(5.35601e-05 0.000720095 -8.1076e-05)
(4.48742e-05 0.000695183 -8.74931e-05)
(3.58239e-05 0.00066945 -9.29003e-05)
(2.66507e-05 0.000642049 -9.74687e-05)
(1.75963e-05 0.000611513 -0.000101575)
(9.01031e-06 0.000576149 -0.000105768)
(1.41369e-06 0.000533437 -0.000112641)
(-3.99766e-06 0.000480136 -0.000127075)
(-5.59794e-06 0.00041181 -0.000144707)
(-5.80267e-06 0.000264725 -0.000113903)
(-3.95219e-06 0.000466447 0.000253872)
(-2.55052e-06 0.000702035 0.000266295)
(1.06423e-06 0.000810637 0.000239012)
(7.66464e-06 0.000892133 0.000216067)
(1.60104e-05 0.000952456 0.000201492)
(2.5098e-05 0.000996251 0.000189849)
(3.44695e-05 0.0010267 0.000178414)
(4.37227e-05 0.00104678 0.000166576)
(5.25427e-05 0.00105819 0.00015406)
(6.06474e-05 0.00106296 0.000140868)
(6.78671e-05 0.00106209 0.000126947)
(7.40977e-05 0.00105711 0.000112494)
(7.92359e-05 0.00104865 9.76387e-05)
(8.32396e-05 0.00103784 8.27133e-05)
(8.60794e-05 0.00102507 6.7859e-05)
(8.77465e-05 0.00101118 5.33795e-05)
(8.82723e-05 0.000996338 3.94219e-05)
(8.76645e-05 0.000981207 2.62252e-05)
(8.59564e-05 0.000965795 1.38385e-05)
(8.32156e-05 0.00095053 2.45293e-06)
(7.94696e-05 0.000935261 -7.95223e-06)
(7.48035e-05 0.00092022 -1.72532e-05)
(6.92654e-05 0.000905085 -2.55369e-05)
(6.29552e-05 0.000889863 -3.27431e-05)
(5.59537e-05 0.000874007 -3.90264e-05)
(4.83805e-05 0.000857233 -4.43912e-05)
(4.03708e-05 0.000838657 -4.90709e-05)
(3.2098e-05 0.000817528 -5.3171e-05)
(2.37709e-05 0.000792366 -5.70147e-05)
(1.56385e-05 0.000761621 -6.07633e-05)
(8.00441e-06 0.000722753 -6.50562e-05)
(1.32182e-06 0.000672799 -7.18525e-05)
(-3.43521e-06 0.000607281 -8.52749e-05)
(-4.9602e-06 0.000520657 -0.00010171)
(-4.83937e-06 0.000330303 -8.16198e-05)
(-1.72127e-06 0.000403788 0.000170771)
(-4.33278e-08 0.000626282 0.000172138)
(1.83495e-06 0.000730088 0.00015156)
(5.34425e-06 0.000809199 0.000134262)
(9.5815e-06 0.000869623 0.000122764)
(1.41668e-05 0.000915295 0.000113422)
(1.88939e-05 0.000949765 0.000104571)
(2.36594e-05 0.0009752 9.57105e-05)
(2.83208e-05 0.000993787 8.68106e-05)
(3.27561e-05 0.00100672 7.77363e-05)
(3.68576e-05 0.00101545 6.85807e-05)
(4.05255e-05 0.00102061 5.93139e-05)
(4.36976e-05 0.00102322 5.01247e-05)
(4.62847e-05 0.00102359 4.10261e-05)
(4.82401e-05 0.00102248 3.2253e-05)
(4.958e-05 0.00101999 2.38174e-05)
(5.01912e-05 0.0010167 1.58649e-05)
(5.01157e-05 0.00101255 8.43583e-06)
(4.93549e-05 0.00100794 1.69718e-06)
(4.78926e-05 0.00100267 -4.42148e-06)
(4.57728e-05 0.000996998 -9.79313e-06)
(4.30066e-05 0.000990579 -1.45351e-05)
(3.96479e-05 0.000983475 -1.85636e-05)
(3.57453e-05 0.000975151 -2.20421e-05)
(3.13736e-05 0.000965414 -2.49284e-05)
(2.66115e-05 0.000953426 -2.74332e-05)
(2.15718e-05 0.000938592 -2.9564e-05)
(1.63848e-05 0.000919567 -3.15936e-05)
(1.12087e-05 0.000895065 -3.35755e-05)
(6.23876e-06 0.000862855 -3.57995e-05)
(1.69449e-06 0.000820417 -3.85053e-05)
(-2.08015e-06 0.000763943 -4.31319e-05)
(-4.44723e-06 0.000688677 -5.21713e-05)
(-4.78924e-06 0.000587942 -6.31324e-05)
(-3.8984e-06 0.000365903 -4.87952e-05)
(-1.40519e-06 0.000363649 0.000111431)
(-8.32823e-07 0.000584734 0.000113835)
(-6.30657e-07 0.000687884 0.000103253)
(1.70667e-07 0.000767229 9.38651e-05)
(1.34659e-06 0.00082833 8.70882e-05)
(2.75315e-06 0.000875724 8.12546e-05)
(4.3168e-06 0.000912426 7.54697e-05)
(6.00126e-06 0.000941107 6.96708e-05)
(7.75394e-06 0.00096337 6.37672e-05)
(9.52829e-06 0.00098086 5.78807e-05)
(1.12638e-05 0.000994407 5.19575e-05)
(1.29217e-05 0.00100508 4.61726e-05)
(1.44463e-05 0.00101328 4.05001e-05)
(1.58058e-05 0.00101973 3.51349e-05)
(1.69484e-05 0.00102457 3.00481e-05)
(1.78234e-05 0.00102837 2.53949e-05)
(1.84304e-05 0.00103105 2.11273e-05)
(1.8738e-05 0.001033 1.74119e-05)
(1.87151e-05 0.00103404 1.41441e-05)
(1.83779e-05 0.00103441 1.14429e-05)
(1.76896e-05 0.00103377 9.21599e-06)
(1.6667e-05 0.00103223 7.54594e-06)
(1.53213e-05 0.00102927 6.24883e-06)
(1.36744e-05 0.00102481 5.37819e-06)
(1.1763e-05 0.00101805 4.72013e-06)
(9.63516e-06 0.0010086 4.29568e-06)
(7.35293e-06 0.000995265 3.85758e-06)
(4.99779e-06 0.00097709 3.38767e-06)
(2.66789e-06 0.000952172 2.60851e-06)
(4.6544e-07 0.000918603 1.48845e-06)
(-1.46988e-06 0.000873199 -3.6683e-07)
(-2.95356e-06 0.000812352 -3.68688e-06)
(-3.64275e-06 0.000730554 -1.02204e-05)
(-3.33433e-06 0.000621109 -1.84045e-05)
(-2.3664e-06 0.000379902 -1.39025e-05)
(-2.12704e-06 0.000341667 7.75114e-05)
(-2.95624e-06 0.000563376 8.85745e-05)
(-4.30153e-06 0.000666695 8.82421e-05)
(-5.71772e-06 0.000745943 8.6462e-05)
(-6.82054e-06 0.000807167 8.44803e-05)
(-7.63846e-06 0.000854614 8.19474e-05)
(-8.21568e-06 0.00089178 7.89071e-05)
(-8.5485e-06 0.00092093 7.53909e-05)
(-8.64782e-06 0.000944142 7.16395e-05)
(-8.52272e-06 0.000962594 6.76758e-05)
(-8.19813e-06 0.000977578 6.37145e-05)
(-7.69625e-06 0.000989667 5.97587e-05)
(-7.0536e-06 0.000999713 5.60144e-05)
(-6.29316e-06 0.00100793 5.2463e-05)
(-5.45037e-06 0.00101492 4.92884e-05)
(-4.57848e-06 0.00102065 4.64779e-05)
(-3.70372e-06 0.00102553 4.41928e-05)
(-2.85667e-06 0.00102941 4.23536e-05)
(-2.08567e-06 0.00103256 4.10973e-05)
(-1.41677e-06 0.00103471 4.02869e-05)
(-8.5915e-07 0.00103602 3.99456e-05)
(-4.35126e-07 0.00103603 3.99194e-05)
(-1.56798e-07 0.0010347 4.02634e-05)
(-2.02848e-08 0.00103138 4.07775e-05)
(-2.20465e-08 0.00102578 4.14765e-05)
(-1.4378e-07 0.00101691 4.21273e-05)
(-3.63515e-07 0.0010041 4.27071e-05)
(-6.4711e-07 0.00098583 4.29465e-05)
(-9.58891e-07 0.000960693 4.27805e-05)
(-1.24884e-06 0.000926237 4.19027e-05)
(-1.47688e-06 0.00087978 4.01302e-05)
(-1.59018e-06 0.0008172 3.66919e-05)
(-1.49224e-06 0.000733476 3.05033e-05)
(-1.1232e-06 0.000621476 2.18126e-05)
(-5.87793e-07 0.000375727 1.41056e-05)
(-2.87155e-06 0.000326654 5.90954e-05)
(-4.67634e-06 0.000544815 7.96573e-05)
(-6.92408e-06 0.000646084 8.71178e-05)
(-9.53404e-06 0.000723698 9.11027e-05)
(-1.17617e-05 0.000783345 9.27098e-05)
(-1.3628e-05 0.000829611 9.27349e-05)
(-1.51607e-05 0.000865575 9.15722e-05)
(-1.63768e-05 0.000893904 8.9643e-05)
(-1.72537e-05 0.000916234 8.71287e-05)
(-1.7801e-05 0.000934175 8.43228e-05)
(-1.80133e-05 0.000948564 8.13188e-05)
(-1.79171e-05 0.00096042 7.83528e-05)
(-1.75224e-05 0.000970125 7.54712e-05)
(-1.68697e-05 0.000978361 7.28724e-05)
(-1.59785e-05 0.00098523 7.05632e-05)
(-1.48981e-05 0.000991205 6.87036e-05)
(-1.36633e-05 0.000996201 6.72564e-05)
(-1.23255e-05 0.00100054 6.63344e-05)
(-1.09162e-05 0.00100399 6.5849e-05)
(-9.48983e-06 0.00100671 6.58907e-05)
(-8.07823e-06 0.00100829 6.63435e-05)
(-6.71617e-06 0.0010088 6.72279e-05)
(-5.42528e-06 0.00100767 6.83671e-05)
(-4.23045e-06 0.00100475 6.97475e-05)
(-3.14484e-06 0.000999243 7.1155e-05)
(-2.17839e-06 0.000990688 7.25411e-05)
(-1.33182e-06 0.000977894 7.36526e-05)
(-6.06289e-07 0.000959884 7.43949e-05)
(2.64251e-09 0.000934793 7.44584e-05)
(4.99228e-07 0.000900743 7.36743e-05)
(8.7254e-07 0.00085467 7.15858e-05)
(1.08708e-06 0.000793076 6.76184e-05)
(1.09595e-06 0.000710736 6.05487e-05)
(1.02451e-06 0.000601214 4.99838e-05)
(9.06985e-07 0.000361483 3.14591e-05)
(-3.05753e-06 0.000315261 4.41945e-05)
(-5.2219e-06 0.000526116 6.9246e-05)
(-7.83591e-06 0.000623852 8.06119e-05)
(-1.08962e-05 0.000698399 8.74257e-05)
(-1.35681e-05 0.00075561 9.08438e-05)
(-1.58222e-05 0.000799581 9.20203e-05)
(-1.77198e-05 0.000833673 9.17317e-05)
(-1.9238e-05 0.00086011 9.03726e-05)
(-2.03758e-05 0.000880885 8.83284e-05)
(-2.11017e-05 0.000897184 8.58049e-05)
(-2.14322e-05 0.00091024 8.30826e-05)
(-2.13613e-05 0.000920657 8.02858e-05)
(-2.09243e-05 0.000929234 7.76355e-05)
(-2.01327e-05 0.000936231 7.52056e-05)
(-1.90352e-05 0.000942184 7.31704e-05)
(-1.76632e-05 0.000947129 7.15557e-05)
(-1.6078e-05 0.000951425 7.04868e-05)
(-1.43165e-05 0.000954942 6.99372e-05)
(-1.24456e-05 0.000957895 6.99785e-05)
(-1.05073e-05 0.000960008 7.053e-05)
(-8.56394e-06 0.000961353 7.16086e-05)
(-6.65792e-06 0.000961502 7.30808e-05)
(-4.83919e-06 0.000960359 7.49132e-05)
(-3.14024e-06 0.000957301 7.69253e-05)
(-1.59442e-06 0.000951999 7.90384e-05)
(-2.2484e-07 0.00094354 8.10299e-05)
(9.5223e-07 0.000931229 8.2775e-05)
(1.92185e-06 0.000913677 8.39988e-05)
(2.67614e-06 0.000889556 8.45086e-05)
(3.20393e-06 0.000856648 8.39418e-05)
(3.48176e-06 0.000812507 8.19332e-05)
(3.43473e-06 0.000753426 7.77393e-05)
(2.99059e-06 0.000674931 7.02455e-05)
(2.37051e-06 0.000570619 5.85531e-05)
(1.7213e-06 0.000343077 3.4728e-05)
(-2.56142e-06 0.000306947 2.65184e-05)
(-4.59398e-06 0.000510245 4.89595e-05)
(-7.11247e-06 0.000604185 6.00818e-05)
(-1.01343e-05 0.000675697 6.68774e-05)
(-1.2823e-05 0.000730184 7.01348e-05)
(-1.51498e-05 0.000771868 7.11447e-05)
(-1.71104e-05 0.000803715 7.06067e-05)
(-1.86934e-05 0.000828202 6.90112e-05)
(-1.9851e-05 0.00084696 6.66462e-05)
(-2.05735e-05 0.000861498 6.38307e-05)
(-2.08369e-05 0.000872702 6.07619e-05)
(-2.0663e-05 0.000881531 5.76855e-05)
(-2.00555e-05 0.000888444 5.47419e-05)
(-1.90598e-05 0.000894073 5.21255e-05)
(-1.77013e-05 0.000898608 4.99275e-05)
(-1.60473e-05 0.000902467 4.829e-05)
(-1.41481e-05 0.000905648 4.72487e-05)
(-1.20759e-05 0.000908406 4.68862e-05)
(-9.89046e-06 0.000910584 4.71765e-05)
(-7.66956e-06 0.000912286 4.81379e-05)
(-5.47218e-06 0.000913203 4.96819e-05)
(-3.3673e-06 0.000913286 5.17653e-05)
(-1.40864e-06 0.000912054 5.42424e-05)
(3.55704e-07 0.000909262 5.70159e-05)
(1.88879e-06 0.000904204 5.98912e-05)
(3.15886e-06 0.000896358 6.27251e-05)
(4.14419e-06 0.00088467 6.52783e-05)
(4.83604e-06 0.00086817 6.73581e-05)
(5.23052e-06 0.000845222 6.86649e-05)
(5.33127e-06 0.000814073 6.89293e-05)
(5.12899e-06 0.000772064 6.77064e-05)
(4.57838e-06 0.000716033 6.43896e-05)
(3.62873e-06 0.00064148 5.78738e-05)
(2.6182e-06 0.000542676 4.74104e-05)
(1.72707e-06 0.000327177 2.5558e-05)
(-1.5988e-06 0.000304315 5.45777e-06)
(-3.22778e-06 0.000503583 1.9261e-05)
(-5.42053e-06 0.000595488 2.70335e-05)
(-8.15207e-06 0.000665046 3.15714e-05)
(-1.07289e-05 0.000717782 3.32092e-05)
(-1.30214e-05 0.000757609 3.29275e-05)
(-1.50106e-05 0.000787711 3.13406e-05)
(-1.66227e-05 0.000810293 2.87958e-05)
(-1.78147e-05 0.000827262 2.55985e-05)
(-1.8536e-05 0.000839869 2.20057e-05)
(-1.87858e-05 0.000849306 1.8278e-05)
(-1.85478e-05 0.000856283 1.45584e-05)
(-1.78522e-05 0.000861574 1.10573e-05)
(-1.67214e-05 0.000865557 7.94544e-06)
(-1.52111e-05 0.00086874 5.38538e-06)
(-1.33763e-05 0.000871276 3.47856e-06)
(-1.12963e-05 0.000873479 2.33335e-06)
(-9.04079e-06 0.000875323 1.98091e-06)
(-6.70119e-06 0.000876956 2.45948e-06)
(-4.35389e-06 0.00087819 3.72817e-06)
(-2.08372e-06 0.000879009 5.75069e-06)
(3.54168e-08 0.000879058 8.41693e-06)
(1.93439e-06 0.000878141 1.16242e-05)
(3.55916e-06 0.000875704 1.52041e-05)
(4.86885e-06 0.000871322 1.90012e-05)
(5.82688e-06 0.000864166 2.2804e-05)
(6.42494e-06 0.000853473 2.6418e-05)
(6.65626e-06 0.000837985 2.95974e-05)
(6.54374e-06 0.000816378 3.21121e-05)
(6.10789e-06 0.000786656 3.36818e-05)
(5.38466e-06 0.000746511 3.39932e-05)
(4.37205e-06 0.000692622 3.25414e-05)
(3.11964e-06 0.000620914 2.85376e-05)
(1.97189e-06 0.000525647 2.16081e-05)
(1.12448e-06 0.000317916 7.93588e-06)
(-5.39086e-07 0.000309239 -1.53001e-05)
(-1.7514e-06 0.0005103 -1.26479e-05)
(-3.53161e-06 0.000602709 -9.60528e-06)
(-5.93845e-06 0.000672348 -8.25321e-06)
(-8.36536e-06 0.000724641 -8.88078e-06)
(-1.06419e-05 0.000763756 -1.08741e-05)
(-1.26589e-05 0.000792749 -1.38788e-05)
(-1.43376e-05 0.000814097 -1.76535e-05)
(-1.55893e-05 0.00082956 -2.20045e-05)
(-1.6364e-05 0.000840665 -2.67191e-05)
(-1.66245e-05 0.000848431 -3.15639e-05)
(-1.63765e-05 0.000853833 -3.62414e-05)
(-1.56283e-05 0.000857485 -4.05575e-05)
(-1.44263e-05 0.00086004 -4.43429e-05)
(-1.28182e-05 0.000861833 -4.74397e-05)
(-1.08822e-05 0.000863276 -4.97167e-05)
(-8.69496e-06 0.000864492 -5.10854e-05)
(-6.34897e-06 0.000865697 -5.14816e-05)
(-3.93848e-06 0.000866829 -5.08951e-05)
(-1.56027e-06 0.000867922 -4.9342e-05)
(6.94045e-07 0.000868732 -4.68911e-05)
(2.7424e-06 0.000869107 -4.36366e-05)
(4.50453e-06 0.000868608 -3.97184e-05)
(5.92354e-06 0.000866869 -3.52942e-05)
(6.95021e-06 0.000863211 -3.05571e-05)
(7.56506e-06 0.000856984 -2.57064e-05)
(7.75302e-06 0.000847169 -2.09628e-05)
(7.53294e-06 0.000832686 -1.65397e-05)
(6.93593e-06 0.00081196 -1.26589e-05)
(6.02165e-06 0.000783176 -9.51441e-06)
(4.85237e-06 0.000743796 -7.32609e-06)
(3.51078e-06 0.000690686 -6.36935e-06)
(2.10761e-06 0.000619578 -7.09116e-06)
(1.01571e-06 0.000524927 -9.28307e-06)
(3.01172e-07 0.000318115 -1.18779e-05)
(3.29734e-07 0.000322334 -3.19391e-05)
(-5.79538e-07 0.000530888 -3.95929e-05)
(-1.98535e-06 0.000626503 -4.11255e-05)
(-4.06954e-06 0.000698109 -4.29322e-05)
(-6.33345e-06 0.000751479 -4.57937e-05)
(-8.5337e-06 0.000790856 -4.94869e-05)
(-1.05396e-05 0.000819589 -5.38561e-05)
(-1.22226e-05 0.000840143 -5.87734e-05)
(-1.34985e-05 0.00085454 -6.40854e-05)
(-1.42928e-05 0.00086426 -6.95998e-05)
(-1.45771e-05 0.000870597 -7.5125e-05)
(-1.43337e-05 0.000874475 -8.04621e-05)
(-1.35863e-05 0.000876728 -8.53907e-05)
(-1.23702e-05 0.000877905 -8.97093e-05)
(-1.07445e-05 0.00087855 -9.32427e-05)
(-8.78436e-06 0.000878956 -9.5847e-05)
(-6.58114e-06 0.000879434 -9.74165e-05)
(-4.22956e-06 0.000880063 -9.78861e-05)
(-1.83472e-06 0.000880946 -9.72349e-05)
(5.03033e-07 0.000881959 -9.54845e-05)
(2.68355e-06 0.000883002 -9.27021e-05)
(4.61334e-06 0.000883743 -8.8993e-05)
(6.2167e-06 0.000883867 -8.45022e-05)
(7.4253e-06 0.000882809 -7.94022e-05)
(8.20019e-06 0.000879994 -7.38922e-05)
(8.51265e-06 0.000874562 -6.81836e-05)
(8.37231e-06 0.000865576 -6.24946e-05)
(7.79101e-06 0.000851734 -5.70317e-05)
(6.83136e-06 0.000831525 -5.19823e-05)
(5.56441e-06 0.000802897 -4.74838e-05)
(4.09773e-06 0.000763341 -4.36437e-05)
(2.54657e-06 0.000709465 -4.05498e-05)
(1.11098e-06 0.000636965 -3.83002e-05)
(1.46368e-07 0.00054 -3.61819e-05)
(-4.42619e-07 0.00032773 -2.8673e-05)
(8.05078e-07 0.000341804 -4.15857e-05)
(2.08552e-08 0.000561678 -5.59661e-05)
(-1.0939e-06 0.000662225 -6.06106e-05)
(-2.9435e-06 0.000737205 -6.45912e-05)
(-5.04094e-06 0.000792648 -6.89914e-05)
(-7.13744e-06 0.000833175 -7.3861e-05)
(-9.06279e-06 0.000862257 -7.9193e-05)
(-1.06951e-05 0.000882644 -8.49472e-05)
(-1.19303e-05 0.000896411 -9.10183e-05)
(-1.27041e-05 0.000905267 -9.72423e-05)
(-1.29662e-05 0.000910501 -0.000103414)
(-1.27119e-05 0.000913226 -0.000109321)
(-1.19536e-05 0.000914258 -0.000114741)
(-1.07295e-05 0.000914329 -0.000119475)
(-9.09559e-06 0.000913935 -0.000123341)
(-7.13655e-06 0.000913525 -0.000126195)
(-4.93944e-06 0.000913341 -0.000127923)
(-2.60614e-06 0.00091359 -0.000128462)
(-2.43636e-07 0.000914282 -0.000127785)
(2.04155e-06 0.000915394 -0.00012592)
(4.14425e-06 0.000916706 -0.00012293)
(5.97733e-06 0.000917962 -0.000118929)
(7.45407e-06 0.000918702 -0.000114061)
(8.51315e-06 0.000918414 -0.000108512)
(9.10807e-06 0.000916356 -0.000102479)
(9.22245e-06 0.000911695 -9.6185e-05)
(8.85741e-06 0.000903309 -8.98426e-05)
(8.05297e-06 0.000889889 -8.36566e-05)
(6.8621e-06 0.000869715 -7.7787e-05)
(5.38567e-06 0.000840688 -7.23357e-05)
(3.7326e-06 0.000800045 -6.733e-05)
(2.06034e-06 0.000744282 -6.27351e-05)
(5.94624e-07 0.000668754 -5.8415e-05)
(-2.65842e-07 0.000567392 -5.33448e-05)
(-8.60798e-07 0.000345013 -3.90575e-05)
(8.94935e-07 0.00036504 -4.41497e-05)
(7.22961e-08 0.000597638 -6.08275e-05)
(-9.27783e-07 0.000703834 -6.66662e-05)
(-2.668e-06 0.000782716 -7.1515e-05)
(-4.67076e-06 0.000840734 -7.65447e-05)
(-6.67352e-06 0.000882763 -8.19027e-05)
(-8.51623e-06 0.000912569 -8.76487e-05)
(-1.00699e-05 0.000933039 -9.3764e-05)
(-1.1236e-05 0.000946463 -0.000100168)
(-1.19399e-05 0.000954627 -0.000106694)
(-1.21446e-05 0.000958995 -0.000113149)
(-1.18332e-05 0.000960715 -0.000119306)
(-1.10272e-05 0.000960752 -0.000124952)
(-9.76252e-06 0.000959845 -0.000129877)
(-8.10118e-06 0.000958615 -0.000133904)
(-6.11904e-06 0.000957495 -0.000136878)
(-3.91241e-06 0.000956824 -0.000138695)
(-1.58066e-06 0.000956768 -0.00013928)
(7.69992e-07 0.00095741 -0.000138615)
(3.03005e-06 0.000958658 -0.000136719)
(5.1017e-06 0.000960339 -0.000133664)
(6.88604e-06 0.000962105 -0.000129556)
(8.30705e-06 0.000963513 -0.00012455)
(9.29845e-06 0.000963937 -0.000118821)
(9.81952e-06 0.000962628 -0.000112582)
(9.84884e-06 0.000958613 -0.000106045)
(9.39659e-06 0.000950736 -9.94369e-05)
(8.49515e-06 0.000937523 -9.29501e-05)
(7.21586e-06 0.000917181 -8.67489e-05)
(5.64499e-06 0.000887409 -8.09116e-05)
(3.91011e-06 0.000845309 -7.54493e-05)
(2.16204e-06 0.000787103 -7.02753e-05)
(6.47168e-07 0.000707899 -6.5186e-05)
(-2.03076e-07 0.000601229 -5.90526e-05)
(-9.17388e-07 0.000366861 -4.24067e-05)
(6.99826e-07 0.000389059 -4.09912e-05)
(-2.64109e-07 0.000633778 -5.59964e-05)
(-1.28104e-06 0.00074536 -6.1253e-05)
(-3.02703e-06 0.000828019 -6.57607e-05)
(-4.98457e-06 0.000888526 -7.05672e-05)
(-6.91829e-06 0.000932074 -7.57833e-05)
(-8.66966e-06 0.000962615 -8.14309e-05)
(-1.01282e-05 0.000983251 -8.74833e-05)
(-1.11948e-05 0.000996392 -9.38378e-05)
(-1.18039e-05 0.00100398 -0.000100333)
(-1.19162e-05 0.00100756 -0.000106758)
(-1.15243e-05 0.00100841 -0.000112897)
(-1.06428e-05 0.00100753 -0.000118525)
(-9.31316e-06 0.00100578 -0.000123442)
(-7.59658e-06 0.00100379 -0.000127462)
(-5.5706e-06 0.00100208 -0.000130442)
(-3.32773e-06 0.00100098 -0.000132267)
(-9.69045e-07 0.00100072 -0.000132872)
(1.40295e-06 0.00100136 -0.000132231)
(3.6818e-06 0.00100282 -0.00013037)
(5.76283e-06 0.0010049 -0.000127352)
(7.55585e-06 0.00100723 -0.000123293)
(8.98249e-06 0.00100931 -0.000118335)
(9.98052e-06 0.00101048 -0.000112663)
(1.05037e-05 0.0010099 -0.000106479)
(1.05369e-05 0.00100655 -0.000100007)
(1.00816e-05 0.000999147 -9.34619e-05)
(9.17834e-06 0.000986146 -8.70544e-05)
(7.88693e-06 0.000965598 -8.09444e-05)
(6.30184e-06 0.000935086 -7.52324e-05)
(4.53093e-06 0.000891503 -6.99403e-05)
(2.72672e-06 0.00083089 -6.50275e-05)
(1.117e-06 0.000748046 -6.03464e-05)
(1.88836e-07 0.000636188 -5.48762e-05)
(-7.1208e-07 0.0003901 -3.98437e-05)
(3.25095e-07 0.000411308 -3.41875e-05)
(-8.2549e-07 0.000666097 -4.4723e-05)
(-1.96698e-06 0.000782158 -4.81299e-05)
(-3.7968e-06 0.000867925 -5.14142e-05)
(-5.76025e-06 0.000930465 -5.53854e-05)
(-7.64372e-06 0.00097519 -5.99922e-05)
(-9.31788e-06 0.00100625 -6.51737e-05)
(-1.06778e-05 0.00102689 -7.0844e-05)
(-1.16383e-05 0.00103967 -7.68781e-05)
(-1.21381e-05 0.00104662 -8.309e-05)
(-1.21443e-05 0.0010494 -8.92687e-05)
(-1.16495e-05 0.00104936 -9.51878e-05)
(-1.0674e-05 0.0010476 -0.000100631)
(-9.2591e-06 0.00104501 -0.000105392)
(-7.46539e-06 0.00104231 -0.000109295)
(-5.37114e-06 0.00104003 -0.00011219)
(-3.06394e-06 0.00103857 -0.000113972)
(-6.47079e-07 0.00103813 -0.000114572)
(1.77789e-06 0.00103881 -0.000113967)
(4.10538e-06 0.00104053 -0.000112179)
(6.23753e-06 0.00104304 -0.000109276)
(8.08497e-06 0.00104598 -0.000105364)
(9.56452e-06 0.00104878 -0.000100591)
(1.06168e-05 0.00105074 -9.51338e-05)
(1.11989e-05 0.00105096 -8.91975e-05)
(1.12896e-05 0.00104833 -8.29986e-05)
(1.08948e-05 0.0010415 -7.67627e-05)
(1.00423e-05 0.00102883 -7.06999e-05)
(8.79316e-06 0.00100825 -6.49949e-05)
(7.22911e-06 0.000977216 -5.9771e-05)
(5.45387e-06 0.000932479 -5.51092e-05)
(3.59321e-06 0.000869884 -5.10575e-05)
(1.85385e-06 0.000784015 -4.7639e-05)
(7.76378e-07 0.000667797 -4.40614e-05)
(-3.33427e-07 0.000411871 -3.34525e-05)
(-1.26084e-07 0.000430142 -2.5915e-05)
(-1.45271e-06 0.000692227 -3.06605e-05)
(-2.75399e-06 0.000811499 -3.15908e-05)
(-4.70577e-06 0.000899443 -3.32099e-05)
(-6.7007e-06 0.000963321 -3.60215e-05)
(-8.55277e-06 0.00100872 -3.97704e-05)
(-1.016e-05 0.00103992 -4.42735e-05)
(-1.14296e-05 0.0010603 -4.93821e-05)
(-1.22876e-05 0.0010725 -5.49296e-05)
(-1.26809e-05 0.00107867 -6.07119e-05)
(-1.25768e-05 0.00108055 -6.65063e-05)
(-1.19785e-05 0.00107955 -7.20877e-05)
(-1.09027e-05 0.00107685 -7.7237e-05)
(-9.39583e-06 0.0010734 -8.17537e-05)
(-7.51711e-06 0.00106996 -8.54628e-05)
(-5.34147e-06 0.00106712 -8.82211e-05)
(-2.96172e-06 0.00106528 -8.99223e-05)
(-4.73497e-07 0.0010647 -9.05007e-05)
(2.01974e-06 0.00106545 -8.99341e-05)
(4.41616e-06 0.00106746 -8.82441e-05)
(6.61845e-06 0.00107046 -8.54957e-05)
(8.53509e-06 0.00107406 -8.17945e-05)
(1.00884e-05 0.00107765 -7.72835e-05)
(1.12172e-05 0.00108049 -7.21372e-05)
(1.18815e-05 0.00108161 -6.65556e-05)
(1.2054e-05 0.00107985 -6.07578e-05)
(1.17356e-05 0.00107376 -5.49678e-05)
(1.09573e-05 0.00106163 -4.94077e-05)
(9.76822e-06 0.00104131 -4.42798e-05)
(8.24397e-06 0.00101013 -3.97489e-05)
(6.46808e-06 0.000964738 -3.596e-05)
(4.55005e-06 0.000900837 -3.30846e-05)
(2.66871e-06 0.000812842 -3.13566e-05)
(1.41256e-06 0.000693489 -3.02816e-05)
(1.12173e-07 0.000430409 -2.54424e-05)
(-5.28202e-07 0.000444882 -1.81407e-05)
(-1.99635e-06 0.000711436 -1.71844e-05)
(-3.46209e-06 0.000832624 -1.5638e-05)
(-5.52905e-06 0.000921768 -1.55669e-05)
(-7.55943e-06 0.000986255 -1.71829e-05)
(-9.39397e-06 0.00103177 -2.0027e-05)
(-1.09489e-05 0.00106269 -2.37981e-05)
(-1.21498e-05 0.00108247 -2.82847e-05)
(-1.29221e-05 0.00109386 -3.32828e-05)
(-1.32241e-05 0.00109905 -3.85715e-05)
(-1.30283e-05 0.00109986 -4.39193e-05)
(-1.23385e-05 0.00109779 -4.91028e-05)
(-1.11785e-05 0.00109406 -5.39035e-05)
(-9.58843e-06 0.00108968 -5.8128e-05)
(-7.62859e-06 0.00108546 -6.16034e-05)
(-5.37926e-06 0.00108202 -6.41935e-05)
(-2.92893e-06 0.0010798 -6.57927e-05)
(-3.7038e-07 0.00107907 -6.63403e-05)