/*--------------------------------*- C++ -*----------------------------------*\
| =========                 |                                                 |
| \\      /  F ield         | OpenFOAM: The Open Source CFD Toolbox           |
|  \\    /   O peration     | Version:  v1912                                 |
|   \\  /    A nd           | Website:  www.openfoam.com                      |
|    \\/     M anipulation  |                                                 |
\*---------------------------------------------------------------------------*/
FoamFile
{
    version     2.0;
    format      ascii;
    class       volScalarField;
    location    "224/oil";
    object      heatTransferCoeff(T);
}
// * * * * * * * * * * * * * * * * * * * * * * * * * * * * * * * * * * * * * //

dimensions      [1 0 -3 -1 0 0 0];


internalField   uniform 0;

boundaryField
{
    maxY
    {
        type            calculated;
        value           uniform 0;
    }
    minX
    {
        type            calculated;
        value           uniform 0;
    }
    maxX
    {
        type            calculated;
        value           uniform 0;
    }
    minY
    {
        type            calculated;
        value           uniform 0;
    }
    minZ
    {
        type            calculated;
        value           uniform 0;
    }
    maxZ
    {
        type            calculated;
        value           uniform 0;
    }
    oil_to_sphere
    {
        type            calculated;
        value           nonuniform List<scalar> 
1536
(
-148.555
-156.696
-142.825
-140.746
-115.783
-121.046
-119.457
-78.7319
-72.8428
-163.794
-114.2
-165.793
-169.166
-165.885
-139.796
-115.044
-80.2836
-73.5991
26.0446
-168.754
-163.926
-122.42
-120.012
-116.365
-124.394
-124.313
-124.344
-116.797
-156.922
-154.498
-143.112
-104.281
-93.3238
-125.012
-115.6
-114.581
-108.226
-132.183
-122.306
-131.109
-122.288
-114.647
-152.705
-166.153
-155.798
-164.814
-121.566
-121.858
-137.151
-125.128
-122.483
-122.807
-118.691
-121.041
-98.7675
-90.6496
-120.344
-119.871
-74.2336
-31.907
-41.2
-30.6504
-39.4024
-168.574
-169.67
-165.471
-156.581
-165.36
-147.889
-155.146
-125.548
-120.896
-142.744
-122.864
-115.694
-94.0058
-88.9949
-85.2606
-115.298
-73.6044
-30.3041
-39.4712
-19.9361
-18.9373
-45.9357
-40.7589
-21.6068
-79.6284
-73.4031
-31.6727
-40.2998
26.1974
25.9573
-169.385
-169.846
-166.403
-158.8
-162.235
-165.926
-147.057
-157.358
-124.865
-147.614
-143.525
-121.836
-122.807
-116.495
-86.1383
-113.814
-94.843
-88.1909
-92.9115
-31.62
-41.4158
-20.7303
-22.1361
-20.4697
-45.3382
-40.7806
-46.8137
-74.0691
-40.4509
26.0695
-165.489
-147.098
-154.922
-148.017
-154.15
-122.313
-122.861
-124.114
-122.328
-122.92
-121.419
-123.744
-124.058
-121.129
-90.7533
-119.143
-118.689
-32.035
-40.906
-79.8517
-74.1812
-39.6483
-72.4836
-138.015
-138.011
-119.24
-126.739
-142.747
-137.688
-121.4
-123.934
-122.675
-108.385
-99.497
-101.166
-138.38
-135.611
-138.444
-148.724
-129.684
-123.824
-114.7
-108.631
-121.039
-111.286
-100.182
-101.978
-151.162
-133.519
-154.95
-131.527
-102.504
-87.8476
-139.078
-140.305
-144.871
-136.624
-129.242
-123.275
-108.861
-122.4
-104.608
-102.229
-101.261
-159.33
-136.368
-143.209
-150.325
-139.064
-148.485
-141.977
-105.52
-105.99
-110.684
-111.845
-104.022
-107.322
-110.557
-115.489
-73.2995
-69.862
-66.3389
-75.8531
-80.3685
-78.5314
-85.6698
-82.946
-70.4088
-63.3649
-59.5567
-161.548
-173.32
-169.896
-162.211
-162.376
-163.597
-161.747
-160.284
-166.614
-156.797
-160.791
-161.028
-139.869
-139.297
-155.634
-146.455
-126.886
-109.181
-104.438
-120.886
-106.153
-70.9233
-74.5144
-67.3664
-76.163
-79.5863
-68.2497
-62.5567
-12.0355
-4.6978
-167.64
-161.585
-163.967
-160.685
-165.386
-173.725
-165.954
-160.513
-135.301
-125.079
-135.673
-137.712
-107.063
-115.77
-71.3928
-64.0913
-80.8986
-89.1541
-84.8736
-60.5944
-4.13409
-11.1241
9.83017
10.0343
-11.7217
-163.941
-160.011
-159.199
-157.008
-160.719
-161.2
-158.4
-164.574
-176.15
-168.141
-160.035
-148.309
-138.011
-138.478
-145.415
-156.64
-147.172
-138.739
-138.556
-108.349
-109.565
-115.892
-117.593
-110.874
-115.48
-67.438
-63.5263
-69.2595
-77.8811
-74.6402
-80.0512
-78.5453
-78.8458
-66.7469
-61.6203
-76.0396
-69.3898
-126.693
-118.946
-120.715
-108.477
-104.743
-102.425
-97.9285
-152.806
-145.754
-156.159
-151.218
-145.794
-151.827
-154.244
-157.077
-162.072
-153.726
-155.868
-153.667
-172.379
-164.133
-161.217
-156.003
-162.174
-167.647
-161.228
-149.145
-151.49
-154.885
-146.081
-155.068
-157.45
-162.098
-161.148
-166.251
-164.401
-162.752
-158.433
-158.343
-157.157
-158.529
-152.436
-152.793
-147.177
-152.061
-144.257
-146.819
-157.391
-138.019
-152.074
-139.487
-142.226
-136.45
-126.915
-151.211
-138.489
-137.396
-145.152
-127.256
-133.951
-138.402
-125.832
-130.863
-121.722
-140.018
-150.865
-138.662
-139.673
-142.125
-129.147
-134.686
-133.329
-108.844
-113.138
-107.874
-100.443
-95.7919
-100.931
-90.4896
-86.8482
-109.825
-113.656
-109.368
-102.308
-97.1612
-104.606
-90.4208
-86.861
-83.9732
-104.841
-86.2207
-102.019
-97.8957
-102.559
-90.2887
-109.333
-114.491
-108.812
-113.494
-88.7303
-84.4535
-102.028
-97.6342
-103.655
-88.9742
-85.5182
-77.928
-73.8217
-77.4658
-73.5029
-66.9553
-67.2399
-62.0527
-71.9907
-64.3401
-80.9725
-60.8565
-63.0792
-58.7088
-53.2695
-60.7981
-57.7999
-49.3391
-45.8457
-37.3163
-74.7184
-71.1958
-66.6082
-76.4948
-63.5627
-67.2635
-49.4143
-44.9587
-42.7262
-37.4055
-59.0506
-54.1357
-61.0381
-58.0384
-56.3199
-77.4025
-73.3791
-77.912
-78.5208
-67.1686
-61.5322
-74.0744
-68.8479
-188.304
-179.285
-171.227
-186.055
-172.397
-174.671
-179.491
-167.02
-169.48
-172.904
-172.008
-161.001
-167.459
-158.578
-157.577
-155.255
-154.921
-158.528
-156.886
-162.078
-167.152
-151.312
-163.232
-153.096
-158.333
-154.02
-163.749
-155.869
-163.191
-159.834
-165.261
-160.668
-151.689
-156.951
-147.36
-157.905
-136.777
-142.519
-140.723
-122.716
-130.474
-129.259
-139.631
-122.743
-137.541
-121.739
-130.185
-124.226
-116.625
-120.856
-109.441
-106.431
-98.0715
-102.903
-100.528
-94.9541
-87.8812
-103.131
-87.2478
-114.727
-108.095
-99.6016
-63.4678
-58.2163
-54.1184
-62.0601
-58.5786
-70.7501
-63.6237
-80.6726
-60.0799
-48.7502
-46.8579
-38.1652
-26.198
-17.7707
-26.9367
-18.0869
-33.7203
-41.2239
-33.4037
-24.6434
-26.695
-69.864
-74.0525
-66.2347
-75.8217
-60.0408
-54.3438
-62.0376
-57.0042
-69.9018
-62.9254
-77.8674
-84.426
-60.3405
-48.9406
-56.942
-45.8408
-37.389
-53.7473
-11.3781
-4.59193
-12.8039
-4.69555
9.35489
9.50886
9.58651
9.62492
-3.73722
-182.913
-169.65
-174.878
-173.014
-170.242
-183.088
-175.358
-172.629
-168.968
-161.47
-171.844
-173.814
-177.343
-162.182
-162.158
-167.571
-168.178
-151.358
-160.685
-151.842
-164.047
-158.975
-158.267
-155.383
-160.277
-155.056
-159.647
-164.87
-156.047
-150.65
-148.089
-159.386
-164.017
-151.281
-162.031
-153.067
-147.242
-165.848
-158.631
-157.617
-160.081
-153.622
-153.637
-157.916
-163.518
-154.274
-147.806
-140.16
-137.419
-130.885
-123.878
-132.329
-146.886
-142.193
-140.264
-133.684
-132.882
-128.419
-129.155
-130.129
-122.689
-122.971
-108.885
-120.292
-104.74
-110.976
-102.717
-98.3018
-125.762
-116.1
-90.3598
-105.579
-87.0513
-104.945
-94.5247
-87.5395
-100.583
-101.969
-100.693
-100.733
-98.5929
-121.935
-107.265
-48.8028
-47.2784
-43.2784
-38.4386
-74.3063
-70.0405
-66.6562
-76.1406
-63.613
-67.3486
-54.8962
-61.7773
-61.7294
-57.7692
-55.7985
-34.2831
-34.3231
-42.0172
-25.3601
-26.4405
-17.6576
-26.927
-27.1408
-17.4546
-40.4525
-32.824
-33.4314
-41.6001
-24.9026
-70.0857
-63.2731
-79.6329
-83.8235
-60.4677
-49.299
-57.2546
-45.0177
-42.9347
-54.1495
-68.0786
-62.068
-73.4997
-70.8136
-66.5332
-76.2069
-79.2463
-54.0273
-58.8569
-61.6366
-57.3833
-56.311
9.65641
9.4082
-12.4386
-11.7031
-4.95289
-3.72108
-20.4467
-11.4884
-3.94161
-145.491
-154.509
-153.136
-145
-153.16
-145.301
-144.906
-163.213
-160.092
-167.585
-160.384
-151.802
-157.677
-154.588
-162.099
-155.851
-158.955
-152.075
-152.152
-163.783
-158.626
-155.968
-156.779
-153.713
-153.524
-156.837
-148.265
-147.001
-152.073
-156.213
-151.575
-159.675
-154.547
-167.637
-152.323
-148.3
-150.503
-151.993
-147.124
-145.273
-157.686
-138.837
-130.237
-130.558
-135.707
-123.401
-149.913
-138.389
-137.865
-143.186
-134.121
-134.367
-129.289
-145.799
-136.723
-138.178
-142.921
-127.864
-129.183
-137.224
-135.451
-123.323
-141.524
-149.534
-140.505
-142.065
-134.926
-134.507
-130.358
-130.248
-122.665
-101.684
-97.3258
-102.885
-90.2951
-88.4668
-84.8439
-112.583
-106.267
-113.643
-109.041
-97.3358
-102.075
-101.796
-88.6828
-85.3155
-86.2697
-109.321
-108.975
-114.518
-108.685
-114.27
-88.1032
-90.3116
-101.222
-96.5617
-101.968
-88.2124
-85.134
-116.049
-108.164
-108.233
-111.129
-115.189
-90.1358
-85.9783
-97.8313
-103.023
-102.891
-73.3769
-78.0783
-67.0877
-66.4819
-61.2438
-77.5017
-73.809
-77.9982
-59.0523
-54.0173
-61.4829
-57.0351
-50.666
-59.0685
-46.5896
-37.9338
-54.9077
-70.5928
-73.4362
-66.0902
-76.3429
-84.1021
-93.7676
-73.9378
-65.9522
-61.6249
-63.9205
-70.9714
-49.2202
-56.4204
-45.5964
-43.9686
-53.1551
-59.5714
-54.6546
-60.446
-58.9486
-56.3856
-78.025
-84.0588
-70.7588
-63.4479
-59.9813
-76.0956
-79.9749
-70.6589
-74.3773
-67.2421
-143.818
-139.269
-88.7037
-81.8801
-165.871
-158.558
-163.48
-165.09
-163.387
-137.065
-148.866
-144.371
-148.124
-114.15
-123.093
-81.9482
-18.859
-14.9712
-143.164
-142.981
-79.1979
-19.242
-13.9829
-31.9086
-165.3
-138.951
-119.972
-30.7325
-148.359
-141.901
-146.241
-113.431
-124.412
-122.607
-78.6624
-143.921
-148.428
-122.069
-123.769
-146.607
-121.446
-123.185
-110.857
-115.803
-85.3158
-93.4056
-99.7039
-139.371
-145.157
-120.286
-129.551
-113.097
-119.281
-85.3469
-93.1744
-95.1072
-138.058
-147.916
-120.987
-133.534
-97.4717
-86.2631
-95.8912
-109.269
-129.946
-128.044
-146.6
-149.061
-123.617
-122.45
-120.012
-123.147
-94.5955
-86.3734
-94.6675
-79.9835
-173.534
-168.825
-146.943
-162.296
-146.27
-166.366
-164.054
-123.206
-140.065
-139.676
-142.935
-139.134
-121.163
-96.62
-93.0929
-93.1163
-94.0768
-93.6623
-91.4642
-50.73
-81.7228
-47.1043
-51.5308
-169.792
-164.197
-171.768
-165.429
-169.97
-166.888
-169.896
-168.38
-172.078
-167.304
-146.755
-162.759
-146.719
-154.989
-147.131
-120.67
-131.557
-137.759
-151.519
-124.854
-145.109
-120.698
-86.2814
-94.8674
-97.4174
-87.8278
-92.944
-92.5941
-80.2671
-51.3386
-43.8524
-40.4541
-43.1789
-81.5914
-50.2374
-15.5036
-16.4878
-14.1221
-173.44
-169.657
-166.934
-176.484
-167.886
-171.63
-167.097
-174.226
-170.996
-147.577
-162.276
-144.02
-164.792
-163.746
-158.285
-163.286
-157.514
-145.353
-150.596
-120.054
-137.071
-150.611
-139.018
-149.03
-123.72
-85.5028
-95.587
-112.602
-122.037
-91.3019
-99.5038
-87.3175
-94.1073
-119.709
-82.2546
-50.8805
-39.284
-44.1323
-40.2108
-80.9823
-50.2338
-15.6645
-14.2384
-14.9544
-169.005
-153.916
-148.353
-165.535
-145.51
-123.245
-142.899
-140.238
-140.024
-139.253
-92.2128
-100.026
-91.7502
-91.7931
-92.258
-50.455
-83.5764
-52.0617
-83.2341
-146.131
-137.475
-128.889
-136.777
-148.214
-138.712
-102.588
-109.173
-102.07
-141.525
-148.056
-140.585
-131.969
-148.774
-127.021
-135.993
-134.647
-126.664
-140.319
-133.545
-147.624
-129.929
-133.786
-134.318
-129.925
-115.141
-113.706
-103.166
-103.017
-96.4939
-87.923
-101.7
-94.2453
-98.3534
-146.942
-135.959
-130.811
-136.129
-145.707
-126.567
-128.7
-129.705
-118.384
-135.607
-108.676
-118.445
-115.797
-104.119
-105.087
-97.7852
-87.9155
-100.496
-93.272
-98.6007
-136.814
-145.124
-126.523
-127.429
-130.907
-116.958
-135.156
-113.983
-102.867
-93.0441
-103.486
-98.598
-101.903
-157.999
-158.431
-156.991
-159.544
-129.143
-146.5
-141.001
-109.606
-109.798
-115.75
-114.764
-114.022
-78.4202
-86.2694
-84.6026
-69.1752
-66.3359
-87.5059
-80.271
-80.0605
-159.423
-161.538
-164.853
-156.946
-132.42
-140.336
-128.139
-150.292
-139.157
-113.861
-113.744
-104.284
-79.4264
-90.1258
-84.5361
-69.7334
-34.168
-35.5225
-25.1927
-26.4358
-17.5209
-12.3672
-159.712
-158.675
-158.525
-155.707
-162.868
-136.773
-145.348
-141.141
-107.941
-66.6311
-85.8135
-26.2934
-17.4243
-12.5392
-2.16029
-37.312
-159.406
-160.427
-164.824
-159.377
-162.767
-162.606
-160.091
-158.167
-163.304
-127.021
-134.545
-156.86
-139.144
-114.669
-114.97
-79.8119
-86.3667
-78.7941
-74.4026
-83.9212
-68.8332
-37.9721
-114.062
-84.369
-151.59
-148.134
-137.004
-137.571
-114.192
-107.699
-111.886
-100.51
-92.7185
-102.362
-94.1776
-94.0086
-91.1167
-173.014
-169.425
-142.315
-143.707
-152.889
-158.164
-156.146
-157.966
-144.48
-152.316
-148.96
-155.852
-144.991
-151.051
-161.049
-156.748
-157.667
-156.846
-143.53
-148.59
-150.998
-154.93
-159.12
-163.516
-160.501
-162.397
-153.285
-143.985
-150.081
-163.24
-159.701
-163.744
-160.496
-144.869
-158.373
-162.061
-156.05
-148.79
-151.796
-148.888
-136.819
-132.074
-152.768
-136.833
-129.855
-129.598
-120.646
-121.882
-121.399
-131.378
-148.699
-140.243
-123.433
-122.47
-129.926
-123.679
-131.525
-145.62
-135.007
-122.513
-116.91
-115.266
-99.5848
-102.437
-87.7892
-115.532
-99.6197
-104.113
-89.1546
-110.463
-115.695
-100.537
-88.8264
-114.774
-96.171
-100.773
-79.1458
-78.9504
-66.4355
-67.4664
-56.0381
-56.9977
-67.9069
-57.5028
-54.6602
-45.0663
-42.1565
-41.5885
-46.9908
-77.748
-69.3812
-56.9572
-53.3652
-46.0438
-46.2606
-41.1254
-74.5083
-79.6112
-56.6931
-174.746
-166.007
-170.671
-161.219
-165.286
-174.802
-158.339
-183.348
-165.947
-168.179
-166.916
-174.959
-167.438
-173.712
-183.876
-175.248
-165.662
-172.007
-153.285
-159.051
-168.682
-162.503
-146.53
-157.813
-151.436
-160.398
-156.606
-159.407
-156.679
-163.61
-151.809
-142.895
-147.567
-153.714
-162.923
-158.343
-157.55
-153.441
-127.883
-133.978
-122.373
-137.095
-144.859
-128.371
-133.831
-135.904
-137.775
-138.503
-145.407
-129.346
-109.232
-103.038
-97.4042
-105.333
-114.649
-92.6244
-94.497
-102.075
-109.585
-102.791
-95.9442
-88.0762
-46.5645
-44.016
-42.539
-66.2167
-56.8944
-53.4504
-45.6713
-77.753
-81.4785
-45.6575
-42.929
-66.4859
-46.2402
-12.6887
-12.9857
-3.32863
-20.3875
-2.50915
-13.3672
-22.3164
-176.661
-166.009
-179.387
-171.367
-170.516
-163.973
-165.681
-158.418
-173.03
-179.482
-173.782
-166.156
-164.271
-162.288
-167.72
-168.057
-167.869
-153.318
-163.857
-150.742
-161.951
-163.829
-158.956
-141.612
-162.625
-154.901
-158.689
-157.06
-152.915
-157.082
-157.06
-146.82
-151.138
-145.629
-134.446
-146.738
-137.382
-128.944
-125.984
-117.52
-130.199
-147.105
-135.104
-135.954
-111.829
-94.2632
-96.5005
-107.549
-106.675
-99.013
-105.186
-104.134
-102.271
-96.0724
-113.254
-114.11
-56.9836
-53.7283
-46.0398
-79.2805
-70.0275
-45.8979
-42.2419
-67.0187
-46.6468
-77.96
-45.1301
-2.89638
-13.148
-22.4071
-174.554
-159.28
-146.082
-156.726
-145.556
-145.977
-151.046
-162.925
-159.188
-157.87
-146.623
-151.865
-155.219
-153.372
-160.043
-157.277
-158.952
-156.878
-153.2
-143.729
-156.859
-150.62
-148.9
-138.321
-123.334
-132.984
-153.008
-136.247
-129.504
-121.801
-121.759
-130.925
-147.485
-122.096
-130.335
-146.946
-123.431
-98.8952
-90.0735
-111.316
-115.309
-111.398
-98.7767
-104.576
-113.722
-96.4988
-114.584
-96.531
-55.6989
-79.3486
-45.3956
-42.7265
-47.7115
-78.2131
-86.3727
-67.7969
-45.7526
-47.449
-66.0007
-78.5441
)
;
    }
}


// ************************************************************************* //
