/*--------------------------------*- C++ -*----------------------------------*\
| =========                 |                                                 |
| \\      /  F ield         | OpenFOAM: The Open Source CFD Toolbox           |
|  \\    /   O peration     | Version:  v1906                                 |
|   \\  /    A nd           | Web:      www.OpenFOAM.com                      |
|    \\/     M anipulation  |                                                 |
\*---------------------------------------------------------------------------*/
FoamFile
{
    version     2.0;
    format      ascii;
    class       volScalarField;
    location    "36";
    object      nut;
}
// * * * * * * * * * * * * * * * * * * * * * * * * * * * * * * * * * * * * * //

dimensions      [0 2 -1 0 0 0 0];


internalField   nonuniform List<scalar> 
78750
(
0.000855408
0.00187551
0.0012884
0.000502071
4.95683e-05
2.30655e-05
2.54373e-05
1.45625e-05
2.3696e-05
1.88228e-05
2.60328e-05
2.32097e-05
2.94677e-05
2.8072e-05
3.22021e-05
3.32639e-05
3.56085e-05
3.7566e-05
3.96251e-05
4.16418e-05
4.3633e-05
4.56096e-05
4.75538e-05
4.94779e-05
5.13883e-05
5.3299e-05
5.53415e-05
5.75792e-05
5.72911e-05
5.5828e-05
5.4026e-05
5.17343e-05
4.55676e-05
9.89961e-06
4.35884e-07
2.54854e-05
0.000126109
3.58098e-05
2.61096e-06
1.46073e-05
2.40223e-05
2.62321e-05
3.78241e-05
4.47268e-05
5.69838e-05
6.50804e-05
7.45404e-05
8.09191e-05
8.70234e-05
9.12636e-05
9.45195e-05
9.68783e-05
9.85239e-05
9.96582e-05
0.000100407
0.000100935
0.000101369
0.000101842
0.000102484
0.000103409
0.000104717
0.000106432
0.000108503
0.000110914
0.000113054
0.000108979
8.20747e-05
3.2449e-05
7.92601e-06
1.25434e-06
3.35984e-06
2.10488e-06
2.70552e-05
5.1586e-05
8.32752e-05
4.18175e-05
5.12111e-05
7.62456e-05
8.83355e-05
9.94204e-05
0.000111277
0.00011809
0.00012276
0.000127908
0.000132817
0.000136727
0.00013934
0.000140586
0.00014054
0.00013946
0.000137731
0.000135747
0.000133834
0.000132179
0.000130773
0.000129326
0.000127145
0.000123101
0.00011567
0.000101808
7.62619e-05
4.0148e-05
1.35731e-05
7.07268e-06
2.8884e-06
1.31403e-06
1.13587e-05
3.69905e-05
8.38659e-05
4.13408e-05
2.69945e-05
2.06796e-05
2.01753e-05
2.97576e-05
7.02988e-05
0.00015788
0.000158844
0.000159199
0.000159708
0.000160342
0.000161072
0.000161874
0.000162731
0.000163638
0.000164593
0.000165594
0.000166635
0.000167701
0.000168763
0.000169775
0.000170677
0.000171387
0.000171812
0.000171475
0.000130318
7.92054e-05
3.5509e-05
1.20013e-05
6.39121e-06
3.59108e-06
3.46969e-06
8.52771e-05
2.34446e-05
1.79118e-05
3.10428e-05
9.64234e-05
6.58053e-05
5.76675e-05
9.58669e-05
0.00015964
0.000160494
0.000161391
0.00016228
0.000163139
0.000163967
0.000164765
0.000165537
0.00016628
0.00016699
0.000167665
0.000168306
0.000168916
0.000169507
0.000170088
0.000170662
0.000171213
0.000171692
0.000172018
0.000170652
0.000115605
6.01953e-05
2.30321e-05
9.24999e-06
8.43297e-06
5.0149e-06
2.11018e-06
2.28228e-05
6.68675e-05
5.53723e-05
3.31299e-05
2.62631e-05
2.53967e-05
2.80861e-05
3.6641e-05
5.28103e-05
6.72422e-05
7.5859e-05
8.54786e-05
9.69898e-05
0.000109886
0.000124896
0.00014182
0.00015918
0.000165119
0.000165452
0.000165743
0.00016601
0.000166272
0.00016655
0.000166854
0.000167178
0.000167488
0.000167709
0.000167726
0.000139058
7.08771e-05
2.46361e-05
8.48867e-06
7.7713e-06
5.59244e-06
2.37031e-06
2.57854e-05
6.36307e-05
8.91896e-05
8.48953e-05
6.10799e-05
3.98791e-05
2.82287e-05
2.3255e-05
2.49821e-05
3.9205e-05
7.46476e-05
9.30112e-05
9.04243e-05
8.88851e-05
9.06813e-05
9.59825e-05
0.000105093
0.000117519
0.000132458
0.000149272
0.000166474
0.000169298
0.000170162
0.000170881
0.000171448
0.000171845
0.000172036
0.000171955
0.000115128
5.25791e-05
1.79634e-05
8.04513e-06
1.06057e-05
6.66897e-06
3.454e-06
1.8035e-05
5.16922e-05
8.61297e-05
8.57408e-05
6.34478e-05
4.48978e-05
3.39697e-05
2.63592e-05
2.17123e-05
2.20602e-05
3.25728e-05
7.11663e-05
0.000140583
0.0001631
0.000157837
0.000146439
0.000140299
0.000140431
0.00014624
0.000157402
0.000170885
0.000171977
0.000172978
0.000173859
0.00017459
0.000175131
0.000175428
0.000175401
0.000147255
6.81967e-05
2.08534e-05
7.93332e-06
1.04373e-05
7.20899e-06
5.42211e-06
3.30652e-05
0.00010955
0.000108802
5.94377e-05
2.99985e-05
1.96606e-05
1.80628e-05
2.15079e-05
3.31019e-05
7.39295e-05
0.000144162
0.000144173
0.000143991
0.000150043
0.000153981
0.000156063
0.000159665
0.000164605
0.000166252
0.000167909
0.000169541
0.000171117
0.000172607
0.000173973
0.000175171
0.000176145
0.000176829
0.000177137
0.000114057
4.80822e-05
1.69055e-05
8.50946e-06
1.39504e-05
7.97996e-06
6.14589e-06
3.94192e-05
8.30425e-05
7.34331e-05
4.57243e-05
2.83999e-05
2.12664e-05
1.96998e-05
2.12242e-05
2.52168e-05
3.31255e-05
4.61312e-05
6.35512e-05
8.38527e-05
0.00010588
0.000130869
0.000158053
0.000159598
0.000161318
0.000163155
0.000165069
0.000167022
0.000168975
0.000170883
0.000172691
0.000174335
0.000175736
0.0001768
0.000177417
0.000106945
4.57864e-05
1.5761e-05
8.30544e-06
1.53746e-05
8.4632e-06
4.70331e-06
3.28715e-05
7.51285e-05
0.000108191
0.000119355
9.39541e-05
5.55446e-05
3.53653e-05
2.72156e-05
2.38474e-05
2.27474e-05
2.36871e-05
2.74097e-05
3.61689e-05
5.44493e-05
8.31121e-05
0.000102001
0.000106429
0.000114158
0.000129285
0.000147997
0.000161808
0.000164342
0.000166864
0.000169298
0.000171569
0.00017357
0.000175168
0.00014179
8.44192e-05
3.70777e-05
1.41827e-05
8.88742e-06
1.91493e-05
8.95746e-06
3.62074e-06
2.00199e-05
5.27924e-05
0.000101409
0.000133146
0.000136293
0.000121901
9.3842e-05
6.61688e-05
4.94694e-05
4.01293e-05
3.42264e-05
3.02582e-05
2.76791e-05
2.65758e-05
2.82724e-05
3.69128e-05
6.12649e-05
8.61421e-05
7.68334e-05
7.18754e-05
7.58247e-05
8.42713e-05
9.57751e-05
0.000109551
0.000123205
0.000133036
0.000134197
0.000119309
8.12763e-05
3.57224e-05
1.31903e-05
9.02027e-06
2.18786e-05
9.3427e-06
2.77885e-06
1.4769e-05
4.17299e-05
9.48451e-05
0.000121649
0.000106712
8.80831e-05
8.02666e-05
8.08747e-05
8.34072e-05
8.24969e-05
7.57484e-05
6.47686e-05
5.36022e-05
4.43216e-05
3.70974e-05
3.16788e-05
2.84916e-05
3.02679e-05
4.44363e-05
7.64107e-05
7.2219e-05
6.10496e-05
6.15248e-05
6.92176e-05
8.10837e-05
9.41547e-05
0.000103798
0.000102773
7.82888e-05
3.51058e-05
1.27302e-05
9.40243e-06
2.5422e-05
9.76032e-06
4.04065e-06
1.61626e-05
4.56499e-05
9.63216e-05
0.000120081
0.00010638
8.44246e-05
6.53034e-05
5.06495e-05
4.11189e-05
3.75754e-05
4.26965e-05
6.15549e-05
9.34378e-05
0.000104439
8.08562e-05
5.71591e-05
4.1868e-05
3.25064e-05
2.84267e-05
3.18166e-05
5.12096e-05
9.06809e-05
8.66526e-05
6.90978e-05
6.77458e-05
7.8292e-05
9.2933e-05
9.95552e-05
7.972e-05
3.47364e-05
1.23427e-05
9.84475e-06
2.92998e-05
1.00377e-05
6.22765e-06
3.34663e-05
0.000118901
0.000114942
7.88603e-05
5.86614e-05
5.32572e-05
5.73945e-05
6.44818e-05
6.38654e-05
5.33367e-05
4.62205e-05
5.25657e-05
7.76777e-05
0.000116984
0.00013619
0.000108412
6.70025e-05
4.24379e-05
3.13969e-05
2.84749e-05
3.47482e-05
6.48446e-05
0.000147134
0.00014548
0.000118612
0.000103451
0.000109634
0.000114167
8.67844e-05
3.4429e-05
1.20351e-05
1.04662e-05
3.4402e-05
1.01647e-05
7.56057e-06
5.69253e-05
0.000103049
7.01369e-05
4.85095e-05
4.29178e-05
4.73964e-05
5.59216e-05
6.31262e-05
6.74782e-05
6.90836e-05
6.85079e-05
6.86721e-05
7.28333e-05
7.98911e-05
8.2662e-05
7.29606e-05
5.35742e-05
3.68619e-05
2.83788e-05
2.82701e-05
4.14571e-05
8.59754e-05
0.000148079
0.000147548
0.00014872
0.000151164
0.000144201
0.000120208
7.63389e-05
2.96436e-05
1.14981e-05
1.12611e-05
4.19562e-05
1.03087e-05
6.32328e-06
4.0859e-05
9.81197e-05
9.62508e-05
8.25529e-05
7.03623e-05
6.04392e-05
5.32383e-05
4.96615e-05
4.95955e-05
5.20077e-05
5.48834e-05
5.60443e-05
5.47151e-05
5.07769e-05
4.4217e-05
3.71309e-05
3.29668e-05
3.36429e-05
3.9982e-05
5.27236e-05
7.17329e-05
9.26376e-05
0.000108683
0.000119324
0.00012489
0.000124128
0.000113981
9.06116e-05
5.42445e-05
2.28143e-05
1.10084e-05
1.32356e-05
5.73574e-05
1.03473e-05
5.42687e-06
2.94122e-05
8.67123e-05
0.000112128
0.000110341
9.10313e-05
6.69591e-05
4.99557e-05
4.00127e-05
3.43323e-05
3.12615e-05
3.01847e-05
3.06878e-05
3.19078e-05
3.37025e-05
3.73542e-05
4.29078e-05
4.71641e-05
4.88834e-05
5.17787e-05
5.84535e-05
6.87155e-05
8.06675e-05
9.17747e-05
9.99267e-05
0.000103467
0.000101024
9.10858e-05
7.15882e-05
4.32909e-05
1.94307e-05
1.05977e-05
1.52189e-05
7.43825e-05
1.02521e-05
5.29148e-06
2.60142e-05
7.91e-05
0.000118695
0.000120953
0.00010939
8.94644e-05
6.65826e-05
4.85943e-05
3.68484e-05
2.95152e-05
2.55307e-05
2.51637e-05
2.94641e-05
3.78238e-05
4.50314e-05
4.70644e-05
4.68248e-05
4.79418e-05
5.14578e-05
5.72526e-05
6.50349e-05
7.42209e-05
8.33297e-05
8.99371e-05
9.1763e-05
8.77171e-05
7.74516e-05
6.02907e-05
3.72458e-05
1.76848e-05
1.03289e-05
1.66126e-05
8.60129e-05
1.01463e-05
5.37602e-06
2.4862e-05
8.17068e-05
0.000124022
0.000123962
0.000111865
0.000100519
9.08056e-05
7.77331e-05
6.09903e-05
4.60226e-05
3.53494e-05
2.86646e-05
2.56325e-05
2.65813e-05
3.19755e-05
4.0078e-05
4.74637e-05
5.33546e-05
5.8256e-05
6.23895e-05
6.59662e-05
6.95472e-05
7.35642e-05
7.7422e-05
7.92458e-05
7.68825e-05
6.88227e-05
5.38148e-05
3.30328e-05
1.60946e-05
1.01999e-05
1.79547e-05
9.49139e-05
1.01015e-05
5.78693e-06
2.74693e-05
8.30307e-05
0.000121227
0.000126676
0.000116335
9.72873e-05
7.89095e-05
6.75703e-05
6.34521e-05
6.18252e-05
5.46394e-05
4.19901e-05
3.17212e-05
2.65585e-05
2.65035e-05
3.24716e-05
4.57965e-05
6.34566e-05
7.8232e-05
8.57719e-05
8.52989e-05
7.95998e-05
7.3068e-05
6.84638e-05
6.60143e-05
6.37801e-05
5.8439e-05
4.63805e-05
2.79481e-05
1.40656e-05
1.0504e-05
2.0803e-05
0.000106064
1.01512e-05
5.92775e-06
2.70961e-05
8.01375e-05
0.000118446
0.000126655
0.000122438
0.000109606
8.94244e-05
6.86572e-05
5.50359e-05
4.98052e-05
4.9752e-05
4.77295e-05
3.88571e-05
2.98706e-05
2.59844e-05
2.8026e-05
3.80326e-05
5.98713e-05
8.97039e-05
0.000108066
0.000106007
9.21505e-05
7.5783e-05
6.22057e-05
5.33311e-05
4.84848e-05
4.46975e-05
3.70877e-05
2.33543e-05
1.23514e-05
1.07968e-05
2.39514e-05
0.000110374
1.026e-05
5.91398e-06
2.69532e-05
8.42076e-05
0.000123704
0.000128269
0.000119884
0.000106329
9.13379e-05
7.59864e-05
6.18854e-05
5.21986e-05
4.78671e-05
4.60953e-05
4.15201e-05
3.33838e-05
2.74774e-05
2.7187e-05
3.4657e-05
5.46301e-05
8.83265e-05
0.000114804
0.00011509
9.91091e-05
7.90524e-05
6.06766e-05
4.67635e-05
3.81373e-05
3.3358e-05
2.85597e-05
1.97973e-05
1.11999e-05
1.02327e-05
2.45154e-05
0.000108463
1.03658e-05
6.17792e-06
2.91619e-05
9.2057e-05
0.000129327
0.000131787
0.000120174
0.00010165
8.3133e-05
6.92445e-05
6.0218e-05
5.42549e-05
5.02928e-05
4.76439e-05
4.4037e-05
3.74787e-05
3.0857e-05
2.85358e-05
3.32805e-05
4.94468e-05
8.15331e-05
0.000115837
0.000124653
0.000110471
8.85478e-05
6.64939e-05
4.77109e-05
3.42675e-05
2.61442e-05
2.06181e-05
1.48941e-05
1.04143e-05
1.06685e-05
2.68067e-05
0.000107817
1.05762e-05
6.27431e-06
3.01624e-05
9.51589e-05
0.000130997
0.000130507
0.000115781
9.60388e-05
7.81235e-05
6.49137e-05
5.6651e-05
5.24836e-05
5.07791e-05
4.95781e-05
4.70638e-05
4.207e-05
3.60146e-05
3.27842e-05
3.58334e-05
4.90451e-05
7.60642e-05
0.000108049
0.000120934
0.000110885
9.13441e-05
7.01385e-05
5.00543e-05
3.34682e-05
2.2135e-05
1.51948e-05
1.06252e-05
9.10537e-06
1.29066e-05
3.49288e-05
9.83122e-05
1.07358e-05
6.43457e-06
3.1097e-05
0.000100052
0.000135034
0.00012832
0.000106577
8.48126e-05
7.04511e-05
6.23294e-05
5.74236e-05
5.45363e-05
5.35167e-05
5.32501e-05
5.16267e-05
4.7352e-05
4.15745e-05
3.75658e-05
3.87024e-05
4.82261e-05
6.8604e-05
9.41096e-05
0.000107473
0.000102019
8.68111e-05
6.93192e-05
5.2037e-05
3.61795e-05
2.34519e-05
1.52297e-05
9.88903e-06
6.88052e-06
1.07227e-05
3.06404e-05
9.49109e-05
1.05498e-05
6.64281e-06
3.28916e-05
0.00010615
0.000136288
0.000121673
9.2381e-05
6.92915e-05
5.78621e-05
5.42276e-05
5.42864e-05
5.56406e-05
5.76182e-05
5.97809e-05
6.03531e-05
5.73591e-05
5.1506e-05
4.64138e-05
4.60012e-05
5.37864e-05
7.2567e-05
9.75942e-05
0.000112626
0.000109718
9.58796e-05
7.82736e-05
5.99776e-05
4.2378e-05
2.64371e-05
1.48585e-05
1.02864e-05
5.91859e-06
6.76244e-06
2.18523e-05
0.000103753
1.07273e-05
6.79492e-06
3.37281e-05
0.000108134
0.00013365
0.000111323
7.76024e-05
5.70986e-05
4.98974e-05
4.99819e-05
5.31134e-05
5.68867e-05
6.04224e-05
6.36798e-05
6.59864e-05
6.56662e-05
6.21343e-05
5.79115e-05
5.73304e-05
6.49798e-05
8.53284e-05
0.000116526
0.000140482
0.000142466
0.000127573
0.0001038
7.66893e-05
4.96584e-05
2.51658e-05
1.00479e-05
6.92109e-06
8.46049e-06
9.61722e-06
2.80208e-05
0.000114234
1.13666e-05
6.84482e-06
3.34814e-05
0.000106914
0.000127554
9.59317e-05
6.05935e-05
4.42971e-05
4.12161e-05
4.50284e-05
5.19447e-05
5.95157e-05
6.61465e-05
7.10278e-05
7.40022e-05
7.49773e-05
7.39709e-05
7.21948e-05
7.26113e-05
7.92663e-05
9.63205e-05
0.000125307
0.00015618
0.000164643
0.000153998
0.000124986
9.0995e-05
5.61811e-05
2.56669e-05
8.96262e-06
5.06984e-06
9.19885e-06
1.96765e-05
5.69017e-05
8.34629e-05
1.13649e-05
6.98723e-06
3.36263e-05
0.000105539
0.000119821
8.29947e-05
4.93949e-05
3.62187e-05
3.5332e-05
4.108e-05
4.98594e-05
5.91989e-05
6.79567e-05
7.54166e-05
8.08172e-05
8.38854e-05
8.51885e-05
8.59908e-05
8.82619e-05
9.46942e-05
0.000108075
0.000129086
0.000151384
0.000160082
0.000146566
0.0001189
8.71554e-05
5.53205e-05
2.83783e-05
1.24205e-05
5.95099e-06
6.42653e-06
1.7523e-05
6.26867e-05
6.82084e-05
1.09008e-05
7.04888e-06
3.3069e-05
0.000100504
0.000111451
7.4462e-05
4.28155e-05
3.06373e-05
2.99611e-05
3.62588e-05
4.66383e-05
5.81712e-05
6.90263e-05
7.87368e-05
8.70601e-05
9.35213e-05
9.79553e-05
0.000100959
0.000103998
0.000109067
0.000117635
0.000128657
0.000136266
0.00013285
0.000119693
0.00010466
8.79465e-05
6.2056e-05
3.11156e-05
1.32139e-05
7.85585e-06
7.55574e-06
1.40289e-05
4.56551e-05
7.35843e-05
1.09391e-05
7.21204e-06
3.28479e-05
9.67253e-05
0.000107297
7.47353e-05
4.29947e-05
2.86499e-05
2.56897e-05
2.9923e-05
3.90735e-05
5.05254e-05
6.19318e-05
7.23307e-05
8.1598e-05
8.96132e-05
9.60979e-05
0.000101069
0.000104947
0.0001081
0.000110077
0.000109034
0.000104638
0.000102778
0.000111532
0.000130692
0.000139294
0.000115044
6.12795e-05
1.63544e-05
5.75086e-06
7.01769e-06
1.66629e-05
5.70854e-05
6.4508e-05
1.0969e-05
7.30446e-06
3.22331e-05
9.25528e-05
0.0001062
8.20297e-05
4.99623e-05
3.04254e-05
2.29711e-05
2.33268e-05
2.95389e-05
4.01373e-05
5.27408e-05
6.48949e-05
7.50364e-05
8.22423e-05
8.62179e-05
8.7651e-05
8.78406e-05
8.74525e-05
8.71301e-05
8.98242e-05
0.000101183
0.000125271
0.000150841
0.00014504
0.000109913
7.42317e-05
4.64522e-05
2.25484e-05
7.35998e-06
5.11068e-06
1.4268e-05
6.15066e-05
5.57532e-05
1.06031e-05
7.32135e-06
3.12382e-05
8.91546e-05
0.000108809
9.51202e-05
6.66972e-05
3.97432e-05
2.50623e-05
2.00628e-05
2.15435e-05
2.82922e-05
3.94334e-05
5.29688e-05
6.57409e-05
7.45096e-05
7.73604e-05
7.48357e-05
7.11504e-05
7.42329e-05
8.74866e-05
9.60536e-05
8.31677e-05
6.68845e-05
6.18661e-05
6.55357e-05
6.92961e-05
6.67723e-05
5.89929e-05
4.75454e-05
2.79116e-05
1.04198e-05
9.50442e-06
3.18481e-05
6.95263e-05
1.02029e-05
7.26971e-06
3.05034e-05
8.78407e-05
0.000111944
0.000104291
8.27962e-05
5.40552e-05
3.17197e-05
2.07644e-05
1.78515e-05
2.0816e-05
2.95249e-05
4.41857e-05
6.2119e-05
7.54128e-05
7.59528e-05
6.38355e-05
4.60259e-05
3.29027e-05
3.15241e-05
4.15932e-05
6.22882e-05
8.7045e-05
0.000106005
0.000115207
0.000115401
0.000110357
0.000104976
0.000100387
8.60408e-05
4.32947e-05
1.12139e-05
1.612e-05
9.13798e-05
1.04293e-05
7.26247e-06
3.05474e-05
8.93776e-05
0.000115668
0.000110424
9.37226e-05
6.91167e-05
4.24135e-05
2.47043e-05
1.69889e-05
1.60818e-05
2.09017e-05
3.23364e-05
4.93034e-05
5.81662e-05
3.94465e-05
1.89382e-05
1.75298e-05
2.8325e-05
5.38629e-05
9.61989e-05
0.000139151
0.000160023
0.000159623
0.000150401
0.000139499
0.000129666
0.000122836
0.00011806
0.000102402
5.28696e-05
1.44397e-05
1.62654e-05
9.45376e-05
1.13483e-05
7.30856e-06
3.11463e-05
9.1911e-05
0.00011823
0.000112511
9.71717e-05
7.80557e-05
5.50574e-05
3.26636e-05
1.92822e-05
1.43128e-05
1.53042e-05
2.19266e-05
3.29972e-05
3.69908e-05
2.27209e-05
1.10302e-05
1.256e-05
2.69317e-05
6.67396e-05
0.000140517
0.00019367
0.000206297
0.000197177
0.000179514
0.000158159
0.000134153
0.000107714
8.24008e-05
6.17238e-05
3.84394e-05
2.12294e-05
3.2655e-05
0.000132359
1.2128e-05
7.45158e-06
3.25839e-05
9.55988e-05
0.000119835
0.000112594
9.59015e-05
7.78111e-05
6.06895e-05
4.1873e-05
2.46927e-05
1.52175e-05
1.25786e-05
1.532e-05
2.28997e-05
2.94111e-05
2.18677e-05
8.71241e-06
6.42422e-06
1.52817e-05
4.29612e-05
0.000122482
0.0002088
0.000238278
0.000233883
0.000211082
0.000175699
0.000131784
8.72072e-05
5.49746e-05
4.08906e-05
3.81261e-05
4.09886e-05
7.48594e-05
0.000103118
1.2297e-05
7.59145e-06
3.44012e-05
9.93441e-05
0.000120464
0.00011237
9.54908e-05
7.69899e-05
6.09646e-05
4.68546e-05
3.14587e-05
1.86746e-05
1.24703e-05
1.19616e-05
1.62312e-05
2.29079e-05
2.21675e-05
1.03667e-05
3.29229e-06
5.92651e-06
1.96911e-05
5.90056e-05
0.00014752
0.000206787
0.000219791
0.000208787
0.000180098
0.000137268
8.97679e-05
5.34647e-05
3.66896e-05
3.83441e-05
6.06718e-05
0.000115254
7.83172e-05
1.18437e-05
7.71623e-06
3.65227e-05
0.000103667
0.000120381
0.000110698
9.39986e-05
7.64496e-05
6.11119e-05
4.84969e-05
3.62875e-05
2.33955e-05
1.43423e-05
1.09565e-05
1.25873e-05
1.7837e-05
2.03449e-05
1.22217e-05
2.77561e-06
1.24414e-06
7.41009e-06
2.59045e-05
7.60977e-05
0.000156696
0.000194907
0.000196044
0.000179149
0.000150405
0.000111078
6.96217e-05
4.26703e-05
3.61596e-05
5.24437e-05
0.00010478
7.27679e-05
1.16619e-05
7.73671e-06
3.82834e-05
0.000106247
0.000119044
0.000108541
9.23717e-05
7.63178e-05
6.25703e-05
5.10959e-05
4.03177e-05
2.83776e-05
1.7534e-05
1.14664e-05
1.06068e-05
1.42093e-05
1.80233e-05
1.2748e-05
3.19287e-06
1.99364e-06
2.19794e-06
1.24541e-05
4.05966e-05
0.000112862
0.000181002
0.000190863
0.000172085
0.000146173
0.000117648
8.22255e-05
4.9654e-05
3.56073e-05
4.47423e-05
9.49598e-05
7.57303e-05
1.21534e-05
7.71445e-06
3.9971e-05
0.000107463
0.000117091
0.000106451
9.09463e-05
7.59882e-05
6.36645e-05
5.37307e-05
4.44838e-05
3.37563e-05
2.21471e-05
1.37027e-05
1.02407e-05
1.17591e-05
1.57109e-05
1.24087e-05
3.05603e-06
1.99519e-06
1.79395e-06
6.55472e-06
2.41502e-05
7.78322e-05
0.000181807
0.000198274
0.00015884
0.000112629
8.52406e-05
6.95825e-05
5.299e-05
4.36072e-05
5.74322e-05
0.000116296
7.26142e-05
1.25829e-05
7.596e-06
4.11208e-05
0.000108194
0.000116199
0.00010622
9.18599e-05
7.79156e-05
6.64087e-05
5.73638e-05
4.93207e-05
3.98775e-05
2.82512e-05
1.76917e-05
1.14967e-05
1.03283e-05
1.34715e-05
1.3289e-05
4.44596e-06
2.38016e-06
2.03428e-06
2.40744e-06
1.30934e-05
4.0991e-05
0.000124632
0.000198922
0.000153028
8.91021e-05
5.92206e-05
5.43189e-05
5.89655e-05
6.80181e-05
9.69399e-05
0.000138326
5.93221e-05
1.2162e-05
7.47563e-06
4.18824e-05
0.000109215
0.000116743
0.000107239
9.37053e-05
8.04986e-05
6.94109e-05
6.09492e-05
5.44073e-05
4.73524e-05
3.70744e-05
2.4932e-05
1.55633e-05
1.10023e-05
1.12534e-05
1.31691e-05
8.10256e-06
6.48622e-07
8.0933e-07
2.23413e-06
4.29334e-06
1.65049e-05
4.3609e-05
0.000108118
0.00014969
0.000107031
6.56271e-05
5.15414e-05
5.83677e-05
8.30328e-05
0.0001195
0.000125591
4.93414e-05
1.11306e-05
7.33245e-06
4.20705e-05
0.000110178
0.000117721
0.000108255
9.56174e-05
8.40194e-05
7.41443e-05
6.5798e-05
5.9241e-05
5.38067e-05
4.66827e-05
3.5565e-05
2.34696e-05
1.51078e-05
1.16845e-05
1.26855e-05
1.32802e-05
7.24532e-06
5.35781e-07
1.03305e-06
3.14805e-07
4.06772e-06
1.40051e-05
3.14951e-05
6.51025e-05
0.000109809
0.000112386
9.15737e-05
8.27298e-05
9.46602e-05
0.000119847
0.000119134
4.44584e-05
1.00193e-05
7.29641e-06
4.26602e-05
0.00011233
0.00011938
0.000108684
9.55444e-05
8.49476e-05
7.7201e-05
7.08836e-05
6.53048e-05
6.07201e-05
5.62218e-05
4.87599e-05
3.67439e-05
2.43797e-05
1.6313e-05
1.33057e-05
1.44302e-05
1.50866e-05
1.0202e-05
2.9216e-06
3.23617e-06
1.10654e-06
2.61466e-06
9.46562e-06
2.00078e-05
3.71673e-05
6.69628e-05
0.000114465
0.000150787
0.000157899
0.000153194
0.000122619
4.15725e-05
9.27972e-06
7.29119e-06
4.33391e-05
0.000114026
0.000120126
0.000108188
9.48698e-05
8.53407e-05
7.9321e-05
7.48102e-05
7.05891e-05
6.66707e-05
6.33607e-05
5.94161e-05
5.18173e-05
3.95577e-05
2.70723e-05
1.89348e-05
1.59188e-05
1.70348e-05
1.86912e-05
1.61028e-05
9.75118e-06
3.27134e-06
5.24225e-07
1.7974e-06
5.5784e-06
1.17521e-05
2.12164e-05
3.69421e-05
6.93143e-05
0.000129455
0.00014246
0.000106389
3.97748e-05
9.19955e-06
7.34513e-06
4.40389e-05
0.000116053
0.000120379
0.000106205
9.20543e-05
8.34746e-05
7.96481e-05
7.78788e-05
7.6071e-05
7.37303e-05
7.1376e-05
6.89754e-05
6.49189e-05
5.66285e-05
4.39116e-05
3.11238e-05
2.26e-05
1.91498e-05
1.98848e-05
2.2352e-05
2.24888e-05
1.88753e-05
1.28541e-05
7.09855e-06
4.17157e-06
4.24665e-06
6.64869e-06
1.12621e-05
1.89902e-05
3.4437e-05
7.75019e-05
0.000106055
4.22791e-05
9.55209e-06
7.38229e-06
4.43995e-05
0.000116281
0.000118685
0.000102878
8.85596e-05
8.10667e-05
7.89715e-05
7.93136e-05
7.98425e-05
7.9632e-05
7.88169e-05
7.77744e-05
7.60067e-05
7.15783e-05
6.24014e-05
4.91188e-05
3.60776e-05
2.72465e-05
2.35707e-05
2.42987e-05
2.74605e-05
2.95937e-05
2.83397e-05
2.41036e-05
1.83839e-05
1.28396e-05
8.89389e-06
7.13165e-06
7.54065e-06
9.7384e-06
1.63148e-05
4.30634e-05
5.57e-05
1.01235e-05
7.37052e-06
4.38186e-05
0.000115153
0.000116261
9.89224e-05
8.45232e-05
7.83205e-05
7.82245e-05
8.08254e-05
8.36239e-05
8.55821e-05
8.6747e-05
8.74488e-05
8.75007e-05
8.57041e-05
8.00537e-05
6.91302e-05
5.46496e-05
4.12332e-05
3.24228e-05
2.90713e-05
3.04674e-05
3.4522e-05
3.77635e-05
3.76304e-05
3.43347e-05
2.92674e-05
2.33401e-05
1.73236e-05
1.23617e-05
7.50475e-06
5.10237e-06
1.75141e-05
7.80557e-05
1.08051e-05
7.33662e-06
4.27499e-05
0.000112698
0.000112634
9.37381e-05
7.93338e-05
7.44457e-05
7.62638e-05
8.09545e-05
8.58089e-05
8.97481e-05
9.28697e-05
9.55895e-05
9.79085e-05
9.89511e-05
9.68359e-05
8.93286e-05
7.59732e-05
6.00102e-05
4.63628e-05
3.81524e-05
3.594e-05
3.86805e-05
4.35796e-05
4.65593e-05
4.55723e-05
4.13809e-05
3.47063e-05
2.57964e-05
1.74273e-05
1.00445e-05
6.23456e-06
1.87872e-05
9.34715e-05
1.12829e-05
7.27439e-06
4.09313e-05
0.000109334
0.000108602
8.7873e-05
7.33237e-05
6.97775e-05
7.36708e-05
8.06342e-05
8.75305e-05
9.31249e-05
9.76653e-05
0.000101858
0.000105994
0.00010947
0.000110642
0.000107072
9.68149e-05
8.08438e-05
6.38201e-05
5.06864e-05
4.35839e-05
4.24934e-05
4.56086e-05
4.9189e-05
4.95792e-05
4.58267e-05
3.77236e-05
2.57981e-05
1.62641e-05
1.18088e-05
1.11487e-05
2.92864e-05
9.26132e-05
1.13342e-05
7.24853e-06
3.89474e-05
0.00010536
0.000104006
8.09158e-05
6.59031e-05
6.33952e-05
6.91079e-05
7.82558e-05
8.716e-05
9.41831e-05
9.95958e-05
0.000104484
0.000109626
0.000114831
0.000118719
0.000118857
0.000112579
9.90588e-05
8.12606e-05
6.4479e-05
5.25629e-05
4.64743e-05
4.50632e-05
4.58954e-05
4.62475e-05
4.4343e-05
3.78439e-05
2.55103e-05
1.50912e-05
1.28198e-05
1.75301e-05
4.61747e-05
7.93262e-05
1.10178e-05
7.2334e-06
3.66863e-05
0.000100576
9.90008e-05
7.34593e-05
5.78731e-05
5.61635e-05
6.35468e-05
7.50893e-05
8.64786e-05
9.53157e-05
0.00010156
0.000106522
0.000111515
0.000116953
0.000121987
0.000124541
0.000121833
0.000111868
9.55974e-05
7.72058e-05
6.13139e-05
5.03719e-05
4.45905e-05
4.25664e-05
4.20131e-05
4.10286e-05
3.71824e-05
2.7091e-05
1.5558e-05
1.25426e-05
2.10981e-05
6.13649e-05
6.62314e-05
1.06035e-05
7.23624e-06
3.4408e-05
9.54332e-05
9.4755e-05
6.69133e-05
5.02318e-05
4.8471e-05
5.65364e-05
6.97829e-05
8.35328e-05
9.4452e-05
0.000101862
0.000107062
0.000111794
0.000117033
0.00012242
0.000126227
0.000125776
0.000118632
0.000104443
8.58195e-05
6.69258e-05
5.14456e-05
4.16713e-05
3.77538e-05
3.78767e-05
3.94749e-05
3.95376e-05
3.31542e-05
2.02635e-05
1.33884e-05
2.08486e-05
6.18666e-05
6.08861e-05
1.0334e-05
7.22582e-06
3.22741e-05
9.04485e-05
9.19169e-05
6.2063e-05
4.39772e-05
4.16735e-05
4.97508e-05
6.42256e-05
8.04995e-05
9.42247e-05
0.000103644
0.000109656
0.000114272
0.000119069
0.000124268
0.000128488
0.00012907
0.00012316
0.000109519
8.95595e-05
6.68181e-05
4.69298e-05
3.56143e-05
3.29301e-05
3.56433e-05
4.10108e-05
4.60746e-05
4.51015e-05
3.25361e-05
1.90934e-05
2.07147e-05
5.11026e-05
6.58152e-05
1.03177e-05
7.22966e-06
3.08362e-05
8.75751e-05
9.08354e-05
5.85397e-05
3.92566e-05
3.64026e-05
4.40337e-05
5.8909e-05
7.69835e-05
9.3279e-05
0.000104968
0.000112382
0.000117618
0.000122739
0.000128474
0.000133629
0.000135159
0.000129165
0.000113108
8.77817e-05
5.8116e-05
3.50762e-05
2.71575e-05
3.02205e-05
3.91886e-05
5.11002e-05
6.22538e-05
6.60097e-05
5.39713e-05
3.183e-05
2.40399e-05
4.41484e-05
7.92459e-05
1.06159e-05
7.29177e-06
3.05109e-05
8.84241e-05
8.96604e-05
5.37395e-05
3.53785e-05
3.32907e-05
4.12734e-05
5.69568e-05
7.68878e-05
9.56941e-05
0.00010965
0.000118463
0.000124185
0.000129399
0.000135565
0.000141908
0.000144827
0.00013818
0.000116376
8.11182e-05
4.51869e-05
2.49943e-05
2.33503e-05
3.24675e-05
4.82486e-05
6.71193e-05
8.28554e-05
8.70325e-05
7.18227e-05
4.37642e-05
3.0639e-05
4.96433e-05
9.10185e-05
1.11677e-05
7.49158e-06
3.18667e-05
9.45062e-05
8.3841e-05
4.54842e-05
3.14764e-05
3.21925e-05
4.20805e-05
5.92494e-05
8.01235e-05
9.94704e-05
0.000113984
0.000123421
0.000129584
0.000135027
0.000141526
0.000148542
0.000151778
0.000142581
0.000113128
7.01675e-05
3.46791e-05
1.92853e-05
2.19364e-05
3.69022e-05
6.07004e-05
8.41002e-05
9.69069e-05
9.42421e-05
7.51688e-05
5.06676e-05
4.25548e-05
7.14336e-05
9.08691e-05
1.16093e-05
7.84492e-06
3.53356e-05
0.000103486
6.93407e-05
3.58407e-05
2.83561e-05
3.37857e-05
4.79805e-05
6.79466e-05
8.86599e-05
0.000105847
0.00011797
0.000125458
0.000129945
0.000133743
0.000138719
0.000144687
0.000147655
0.000138807
0.000109868
6.78563e-05
3.36181e-05
1.78545e-05
1.87919e-05
3.39054e-05
6.19631e-05
8.96576e-05
9.8227e-05
9.04887e-05
7.42869e-05
5.97429e-05
6.25885e-05
0.000104007
8.0737e-05
1.16183e-05
8.27353e-06
4.1356e-05
0.00010579
5.16641e-05
2.82079e-05
2.70822e-05
3.83864e-05
5.78309e-05
7.87236e-05
9.61581e-05
0.000109121
0.000117979
0.000123301
0.000126068
0.00012783
0.000130093
0.000133035
0.000134018
0.00012676
0.000104685
7.04031e-05
3.83169e-05
1.98124e-05
1.57641e-05
2.48453e-05
4.73401e-05
7.91598e-05
9.45732e-05
8.85362e-05
7.69505e-05
7.19151e-05
8.57379e-05
0.000126551
7.13525e-05
1.13102e-05
8.56093e-06
4.80188e-05
9.50573e-05
4.10429e-05
2.48769e-05
2.82205e-05
4.47526e-05
6.69561e-05
8.52932e-05
9.80285e-05
0.000106755
0.000112576
0.00011601
0.000117598
0.000118182
0.000118666
0.00011935
0.000119042
0.000114314
0.000100457
7.59803e-05
4.76719e-05
2.62609e-05
1.63139e-05
1.7427e-05
2.92853e-05
5.25537e-05
7.8802e-05
8.67521e-05
8.21355e-05
8.28979e-05
0.000101483
0.000133634
6.73257e-05
1.10511e-05
8.58282e-06
5.06231e-05
8.8201e-05
4.1043e-05
2.57776e-05
2.83304e-05
4.27589e-05
6.20842e-05
7.89398e-05
9.12078e-05
9.96404e-05
0.00010519
0.000108498
0.000110103
0.000110579
0.000110435
0.000109847
0.000108293
0.000104089
9.43346e-05
7.65384e-05
5.31082e-05
3.25474e-05
2.05964e-05
1.66671e-05
2.03588e-05
3.28663e-05
5.43995e-05
7.50417e-05
8.30918e-05
8.94679e-05
0.000108366
0.000133793
6.59296e-05
1.09958e-05
8.37998e-06
4.69788e-05
9.47545e-05
5.65679e-05
3.31393e-05
2.75342e-05
3.26596e-05
4.47387e-05
6.02618e-05
7.52805e-05
8.72355e-05
9.5608e-05
0.000100894
0.000103851
0.000105188
0.000105341
0.000104313
0.000101666
9.64165e-05
8.68756e-05
7.10099e-05
4.98782e-05
3.17573e-05
2.24551e-05
1.92917e-05
1.97248e-05
2.53808e-05
3.86976e-05
5.88754e-05
7.78209e-05
9.32447e-05
0.000113759
0.00013364
6.35325e-05
1.10459e-05
8.10694e-06
4.16399e-05
9.99189e-05
8.81477e-05
5.45115e-05
3.33948e-05
2.68657e-05
2.89384e-05
3.74424e-05
5.11845e-05
6.71584e-05
8.14998e-05
9.20449e-05
9.86928e-05
0.000102289
0.000103535
0.000102415
9.82079e-05
8.97953e-05
7.57832e-05
5.57615e-05
3.50625e-05
2.33016e-05
2.0789e-05
2.28098e-05
2.49234e-05
2.72491e-05
3.44383e-05
4.95691e-05
7.13115e-05
9.51584e-05
0.000119228
0.000134524
6.14651e-05
1.11397e-05
7.84938e-06
3.85775e-05
0.000101138
0.000110883
9.21353e-05
5.74817e-05
3.47611e-05
2.59631e-05
2.53229e-05
3.11342e-05
4.32205e-05
5.97248e-05
7.64666e-05
8.97737e-05
9.83608e-05
0.000102357
0.000101595
9.48051e-05
7.98856e-05
5.62947e-05
3.1241e-05
1.82834e-05
1.66132e-05
2.18403e-05
3.09078e-05
3.69995e-05
3.69839e-05
3.85475e-05
4.75417e-05
6.48635e-05
8.87019e-05
0.000115171
0.0001329
6.19243e-05
1.13945e-05
7.62847e-06
3.73019e-05
0.000105193
0.000124334
0.000118189
9.63023e-05
6.14252e-05
3.70935e-05
2.61991e-05
2.35499e-05
2.74848e-05
3.8238e-05
5.48109e-05
7.32937e-05
8.90218e-05
9.87891e-05
9.96475e-05
8.73383e-05
5.99136e-05
2.80582e-05
1.22338e-05
1.135e-05
1.81737e-05
3.14181e-05
4.90894e-05
5.90273e-05
5.38217e-05
4.72534e-05
4.89656e-05
5.97194e-05
7.88803e-05
0.000105873
0.000129936
6.37278e-05
1.19321e-05
7.45823e-06
3.62136e-05
0.000106647
0.000127031
0.00011934
0.000107382
9.1962e-05
6.54801e-05
4.11704e-05
2.80331e-05
2.34553e-05
2.58852e-05
3.57227e-05
5.23508e-05
7.14699e-05
8.61999e-05
8.81495e-05
6.81054e-05
3.30655e-05
1.0652e-05
6.06979e-06
1.23278e-05
2.74959e-05
4.91572e-05
6.71504e-05
7.59862e-05
6.82951e-05
5.51599e-05
5.19551e-05
6.06479e-05
8.05172e-05
0.000110406
0.000135586
6.37452e-05
1.24928e-05
7.33802e-06
3.41587e-05
9.90479e-05
0.000118967
0.000104488
8.6297e-05
8.10772e-05
8.38958e-05
7.31551e-05
4.86877e-05
3.15542e-05
2.41998e-05
2.47186e-05
3.33681e-05
4.91245e-05
6.45251e-05
6.73935e-05
4.84919e-05
1.93609e-05
4.91296e-06
4.21941e-06
1.32453e-05
3.89906e-05
7.76243e-05
7.31763e-05
6.56156e-05
6.65688e-05
6.45921e-05
6.29745e-05
7.31029e-05
9.76785e-05
0.000129968
0.000143362
5.83664e-05
1.24547e-05
7.3346e-06
3.27064e-05
9.2134e-05
0.000113474
9.55424e-05
6.88997e-05
5.83031e-05
6.61501e-05
8.58802e-05
8.99755e-05
6.21098e-05
3.7194e-05
2.54821e-05
2.32182e-05
2.9564e-05
4.18537e-05
4.87526e-05
4.02239e-05
1.90289e-05
4.13689e-06
2.11172e-06
8.3993e-06
2.89201e-05
8.86027e-05
0.000102567
6.43721e-05
5.44816e-05
6.47594e-05
8.06834e-05
9.86041e-05
0.000124819
0.00014923
0.000137671
4.97931e-05
1.16285e-05
7.51924e-06