/*--------------------------------*- C++ -*----------------------------------*\
| =========                 |                                                 |
| \\      /  F ield         | OpenFOAM: The Open Source CFD Toolbox           |
|  \\    /   O peration     | Version:  v1906                                 |
|   \\  /    A nd           | Web:      www.OpenFOAM.com                      |
|    \\/     M anipulation  |                                                 |
\*---------------------------------------------------------------------------*/
FoamFile
{
    version     2.0;
    format      ascii;
    class       volVectorField;
    location    "42.8/oil";
    object      U;
}
// * * * * * * * * * * * * * * * * * * * * * * * * * * * * * * * * * * * * * //

dimensions      [0 1 -1 0 0 0 0];


internalField   nonuniform List<vector> 
27760
(
(-2.64244e-05 -2.69486e-05 -2.64244e-05)
(-5.21731e-05 -2.02192e-05 -1.90276e-05)
(-3.84228e-06 -5.25071e-06 -5.19008e-06)
(-6.30128e-06 -8.65873e-07 -9.27162e-07)
(-1.4449e-06 -2.86418e-07 -3.56341e-07)
(-7.21869e-07 -1.29307e-07 -2.02272e-07)
(-7.27728e-08 -3.5281e-08 -1.12653e-07)
(2.33254e-07 3.57124e-09 -7.82175e-08)
(4.02015e-07 2.46633e-08 -6.06201e-08)
(4.74848e-07 3.70772e-08 -5.0653e-08)
(4.79559e-07 4.56419e-08 -4.3508e-08)
(4.29903e-07 5.17423e-08 -3.80694e-08)
(3.36489e-07 5.61833e-08 -3.38509e-08)
(2.10183e-07 5.91989e-08 -3.08566e-08)
(6.29113e-08 6.07921e-08 -2.92352e-08)
(-9.24322e-08 6.09562e-08 -2.90727e-08)
(-2.4277e-07 5.97384e-08 -3.03218e-08)
(-3.75898e-07 5.72614e-08 -3.27771e-08)
(-4.81604e-07 5.37251e-08 -3.60808e-08)
(-5.52423e-07 4.93826e-08 -3.97577e-08)
(-5.84352e-07 4.43207e-08 -4.3359e-08)
(-5.77177e-07 3.87757e-08 -4.63173e-08)
(-5.33766e-07 3.31326e-08 -4.78582e-08)
(-4.60057e-07 2.7412e-08 -4.76438e-08)
(-3.64927e-07 2.17438e-08 -4.52314e-08)
(-2.59384e-07 1.63598e-08 -4.03029e-08)
(-1.56208e-07 1.17423e-08 -3.28748e-08)
(-6.93646e-08 8.80174e-09 -2.35633e-08)
(-1.17826e-08 8.83964e-09 -1.42034e-08)
(5.31871e-09 1.03731e-08 -5.22297e-09)
(-1.91756e-05 -5.36067e-05 -1.91755e-05)
(-6.31578e-06 -6.91979e-06 -8.58736e-06)
(-8.57626e-06 -8.35882e-06 -3.00045e-06)
(-4.03608e-06 -2.36197e-06 -8.5656e-07)
(-1.66873e-06 -1.39921e-06 -4.23236e-07)
(-5.73672e-07 -7.22873e-07 -2.0559e-07)
(1.9395e-07 -4.31968e-07 -9.92966e-08)
(6.37627e-07 -2.74907e-07 -4.80774e-08)
(8.95318e-07 -1.8313e-07 -1.82588e-08)
(1.00611e-06 -1.21421e-07 1.43594e-09)
(9.97215e-07 -7.53721e-08 1.6461e-08)
(8.86104e-07 -3.95236e-08 2.86412e-08)
(6.90159e-07 -1.20703e-08 3.82715e-08)
(4.29168e-07 7.05e-09 4.5084e-08)
(1.26331e-07 1.73946e-08 4.87443e-08)
(-1.92674e-07 1.87256e-08 4.9059e-08)
(-5.01585e-07 1.13348e-08 4.61079e-08)
(-7.75837e-07 -3.83945e-09 4.02837e-08)
(-9.94816e-07 -2.5263e-08 3.22589e-08)
(-1.14371e-06 -5.09671e-08 2.29111e-08)
(-1.21449e-06 -7.88814e-08 1.33034e-08)
(-1.20626e-06 -1.06813e-07 4.42843e-09)
(-1.12505e-06 -1.32459e-07 -2.82572e-09)
(-9.83167e-07 -1.53841e-07 -7.71201e-09)
(-7.97959e-07 -1.68677e-07 -9.67456e-09)
(-5.9075e-07 -1.74153e-07 -8.49798e-09)
(-3.85351e-07 -1.66431e-07 -4.52463e-09)
(-2.0591e-07 -1.40529e-07 9.964e-10)
(-7.37928e-08 -9.10233e-08 5.23908e-09)
(-4.59718e-09 -2.32252e-08 4.7407e-09)
(-5.30952e-06 -4.9825e-06 -5.30947e-06)
(-8.39843e-06 -9.30811e-06 -3.07437e-06)
(-4.46036e-06 -5.1394e-06 -1.35686e-06)
(-2.72461e-06 -2.85085e-06 -6.39838e-07)
(-1.13083e-06 -1.90058e-06 -2.98605e-07)
(-1.60511e-07 -1.30994e-06 -1.31051e-07)
(5.42614e-07 -9.99219e-07 -4.36065e-08)
(9.93393e-07 -8.07325e-07 4.13247e-09)
(1.26283e-06 -6.77695e-07 3.49498e-08)
(1.37269e-06 -5.79534e-07 5.75257e-08)
(1.34113e-06 -5.00012e-07 7.59222e-08)
(1.18326e-06 -4.34506e-07 9.13067e-08)
(9.17897e-07 -3.82702e-07 1.0365e-07)
(5.69132e-07 -3.45964e-07 1.12441e-07)
(1.66424e-07 -3.2583e-07 1.17163e-07)
(-2.57065e-07 -3.23065e-07 1.17526e-07)
(-6.67178e-07 -3.37156e-07 1.13611e-07)
(-1.03189e-06 -3.66146e-07 1.05898e-07)
(-1.32434e-06 -4.06764e-07 9.52242e-08)
(-1.5252e-06 -4.54789e-07 8.26792e-08)
(-1.6241e-06 -5.05413e-07 6.94739e-08)
(-1.62008e-06 -5.53708e-07 5.67929e-08)
(-1.52102e-06 -5.94761e-07 4.56692e-08)
(-1.3427e-06 -6.23563e-07 3.6919e-08)
(-1.10705e-06 -6.34636e-07 3.10348e-08)
(-8.40484e-07 -6.21495e-07 2.80783e-08)
(-5.71687e-07 -5.75889e-07 2.74805e-08)
(-3.2844e-07 -4.87508e-07 2.76175e-08)
(-1.3622e-07 -3.43845e-07 2.52652e-08)
(-1.40751e-08 -1.37578e-07 1.42584e-08)
(-9.63002e-07 -7.1669e-06 -9.62936e-07)
(-2.25917e-06 -5.30986e-06 -8.75286e-07)
(-1.96716e-06 -4.2775e-06 -6.34505e-07)
(-1.24327e-06 -3.08622e-06 -3.31992e-07)
(-3.38022e-07 -2.43684e-06 -1.53753e-07)
(3.67267e-07 -2.00151e-06 -5.19089e-08)
(9.34116e-07 -1.73314e-06 9.28774e-09)
(1.33217e-06 -1.54337e-06 4.81118e-08)
(1.57501e-06 -1.39702e-06 7.65882e-08)
(1.66341e-06 -1.27391e-06 9.97319e-08)
(1.6033e-06 -1.16661e-06 1.19785e-07)
(1.40485e-06 -1.07413e-06 1.37098e-07)
(1.08579e-06 -9.98975e-07 1.51204e-07)
(6.72016e-07 -9.44818e-07 1.61324e-07)
(1.96664e-07 -9.14863e-07 1.66757e-07)
(-3.02207e-07 -9.10714e-07 1.67125e-07)
(-7.85103e-07 -9.31706e-07 1.62498e-07)
(-1.21489e-06 -9.74737e-07 1.53415e-07)
(-1.56045e-06 -1.0345e-06 1.40837e-07)
(-1.79951e-06 -1.1041e-06 1.26001e-07)
(-1.92024e-06 -1.1757e-06 1.10254e-07)
(-1.9217e-06 -1.24111e-06 9.48931e-08)
(-1.81307e-06 -1.29208e-06 8.10299e-08)
(-1.61223e-06 -1.32018e-06 6.94992e-08)
(-1.34374e-06 -1.31631e-06 6.07499e-08)
(-1.0366e-06 -1.26991e-06 5.47625e-08)
(-7.2184e-07 -1.16783e-06 5.08733e-08)
(-4.2903e-07 -9.93158e-07 4.72396e-08)
(-1.87419e-07 -7.21914e-07 4.03464e-08)
(-2.14656e-08 -3.1785e-07 2.16972e-08)
(-3.22794e-07 -2.4405e-06 -3.22711e-07)
(-1.11725e-06 -3.54493e-06 -3.93313e-07)
(-8.46839e-07 -3.60277e-06 -2.77487e-07)
(-3.71496e-07 -3.25433e-06 -1.45346e-07)
(2.46161e-07 -2.98597e-06 -5.27852e-08)
(8.01098e-07 -2.75564e-06 7.90882e-09)
(1.27448e-06 -2.57699e-06 4.98625e-08)
(1.62401e-06 -2.42261e-06 8.08905e-08)
(1.83657e-06 -2.28165e-06 1.06814e-07)
(1.9004e-06 -2.14811e-06 1.29991e-07)
(1.81285e-06 -2.02251e-06 1.5121e-07)
(1.57985e-06 -1.9092e-06 1.70095e-07)
(1.21772e-06 -1.8146e-06 1.85725e-07)
(7.53136e-07 -1.74539e-06 1.97028e-07)
(2.21728e-07 -1.70685e-06 2.03095e-07)
(-3.34902e-07 -1.70162e-06 2.03444e-07)
(-8.73279e-07 -1.72897e-06 1.98128e-07)
(-1.35244e-06 -1.78471e-06 1.87749e-07)
(-1.73813e-06 -1.86146e-06 1.73415e-07)
(-2.006e-06 -1.94952e-06 1.56511e-07)
(-2.14334e-06 -2.03789e-06 1.38544e-07)
(-2.14943e-06 -2.11505e-06 1.20938e-07)
(-2.03442e-06 -2.16929e-06 1.04872e-07)
(-1.81769e-06 -2.18874e-06 9.1206e-08)
(-1.5254e-06 -2.16062e-06 8.03745e-08)
(-1.18803e-06 -2.07014e-06 7.2311e-08)
(-8.38016e-07 -1.89873e-06 6.63009e-08)
(-5.06302e-07 -1.62114e-06 6.03445e-08)
(-2.25824e-07 -1.19727e-06 5.0655e-08)
(-2.66638e-08 -5.49117e-07 2.69477e-08)
(-1.40391e-07 -1.97666e-06 -1.40292e-07)
(-3.56557e-07 -3.15542e-06 -1.52674e-07)
(-1.55887e-07 -3.61259e-06 -1.00387e-07)
(2.05579e-07 -3.69423e-06 -3.95123e-08)
(6.78989e-07 -3.6837e-06 1.01209e-08)
(1.14221e-06 -3.61658e-06 4.75598e-08)
(1.5521e-06 -3.52694e-06 7.77858e-08)
(1.86309e-06 -3.41787e-06 1.03906e-07)
(2.04905e-06 -3.29446e-06 1.28423e-07)
(2.09073e-06 -3.16169e-06 1.52085e-07)
(1.97969e-06 -3.02723e-06 1.74709e-07)
(1.71858e-06 -2.9006e-06 1.95347e-07)
(1.32234e-06 -2.79223e-06 2.12661e-07)
(8.18003e-07 -2.7118e-06 2.25269e-07)
(2.43024e-07 -2.66676e-06 2.32032e-07)
(-3.5826e-07 -2.66083e-06 2.32352e-07)
(-9.39244e-07 -2.69331e-06 2.26267e-07)
(-1.45595e-06 -2.75901e-06 2.1446e-07)
(-1.87171e-06 -2.84861e-06 1.98208e-07)
(-2.16069e-06 -2.94986e-06 1.79101e-07)
(-2.30979e-06 -3.04882e-06 1.58851e-07)
(-2.31861e-06 -3.13077e-06 1.39024e-07)
(-2.19829e-06 -3.18084e-06 1.20893e-07)
(-1.96937e-06 -3.18389e-06 1.05362e-07)
(-1.65912e-06 -3.12354e-06 9.28676e-08)
(-1.29901e-06 -2.98069e-06 8.33139e-08)
(-9.22454e-07 -2.73072e-06 7.59411e-08)
(-5.61621e-07 -2.33825e-06 6.8619e-08)
(-2.5259e-07 -1.74312e-06 5.73038e-08)
(-3.00953e-08 -8.1667e-07 3.04313e-08)
(-3.86136e-08 -1.67e-06 -3.8499e-08)
(-3.39759e-08 -3.13962e-06 -3.71018e-08)
(1.97236e-07 -3.91299e-06 -1.09269e-08)
(5.41219e-07 -4.29408e-06 1.94669e-08)
(9.60898e-07 -4.48771e-06 4.7805e-08)
(1.37994e-06 -4.56056e-06 7.27873e-08)
(1.75389e-06 -4.55811e-06 9.6461e-08)
(2.03964e-06 -4.5011e-06 1.19952e-07)
(2.20644e-06 -4.40558e-06 1.44107e-07)
(2.2315e-06 -4.2847e-06 1.68766e-07)
(2.103e-06 -4.15194e-06 1.93106e-07)
(1.82127e-06 -4.02129e-06 2.15735e-07)
(1.40016e-06 -3.90658e-06 2.34931e-07)
(8.66859e-07 -3.82022e-06 2.48987e-07)
(2.60153e-07 -3.77159e-06 2.56516e-07)
(-3.73497e-07 -3.76535e-06 2.56805e-07)
(-9.85107e-07 -3.80091e-06 2.49879e-07)
(-1.52835e-06 -3.87229e-06 2.36503e-07)
(-1.96477e-06 -3.96861e-06 2.18154e-07)
(-2.26761e-06 -4.07548e-06 1.96675e-07)
(-2.42365e-06 -4.17647e-06 1.74008e-07)
(-2.4331e-06 -4.25428e-06 1.51894e-07)
(-2.30805e-06 -4.29136e-06 1.3173e-07)
(-2.07e-06 -4.26966e-06 1.1446e-07)
(-1.74709e-06 -4.16942e-06 1.00533e-07)
(-1.37137e-06 -3.96712e-06 8.98206e-08)
(-9.76923e-07 -3.63148e-06 8.15221e-08)
(-5.96784e-07 -3.1156e-06 7.34029e-08)
(-2.69219e-07 -2.33617e-06 6.11947e-08)
(-3.21368e-08 -1.10814e-06 3.25227e-08)
(1.96671e-10 -1.72161e-06 3.2471e-10)
(1.22278e-07 -3.44141e-06 1.4396e-08)
(3.85809e-07 -4.44266e-06 3.19105e-08)
(7.3362e-07 -5.03198e-06 5.00294e-08)
(1.1318e-06 -5.38242e-06 6.85346e-08)
(1.52761e-06 -5.57173e-06 8.7466e-08)
(1.87978e-06 -5.65064e-06 1.07946e-07)
(2.14854e-06 -5.64923e-06 1.30413e-07)
(2.30206e-06 -5.59011e-06 1.54952e-07)
(2.31604e-06 -5.49186e-06 1.80945e-07)
(2.17673e-06 -5.37201e-06 2.07166e-07)
(1.88283e-06 -5.24774e-06 2.31864e-07)
(1.44721e-06 -5.13546e-06 2.52982e-07)
(8.96979e-07 -5.04959e-06 2.68516e-07)
(2.71742e-07 -5.00086e-06 2.76821e-07)
(-3.80655e-07 -4.99468e-06 2.77079e-07)
(-1.00971e-06 -5.03056e-06 2.69298e-07)
(-1.56757e-06 -5.10203e-06 2.54335e-07)
(-2.0146e-06 -5.19717e-06 2.33884e-07)
(-2.32366e-06 -5.30011e-06 2.10038e-07)
(-2.48182e-06 -5.39277e-06 1.84977e-07)
(-2.49003e-06 -5.45593e-06 1.60647e-07)
(-2.36128e-06 -5.47002e-06 1.38575e-07)
(-2.1178e-06 -5.41456e-06 1.19733e-07)
(-1.78826e-06 -5.2668e-06 1.04578e-07)
(-1.40493e-06 -4.99873e-06 9.29457e-08)
(-1.00201e-06 -4.57195e-06 8.40072e-08)
(-6.12838e-07 -3.927e-06 7.54476e-08)
(-2.76681e-07 -2.95557e-06 6.28574e-08)
(-3.30196e-08 -1.41284e-06 3.34515e-08)
(1.74366e-08 -1.89471e-06 1.75765e-08)
(1.92859e-07 -3.88148e-06 3.81743e-08)
(4.76214e-07 -5.08511e-06 5.21589e-08)
(8.27378e-07 -5.84393e-06 6.49075e-08)
(1.21314e-06 -6.32648e-06 7.87629e-08)
(1.59267e-06 -6.61887e-06 9.47472e-08)
(1.92836e-06 -6.7762e-06 1.13715e-07)
(2.18375e-06 -6.83429e-06 1.35884e-07)
(2.32754e-06 -6.81987e-06 1.61015e-07)
(2.33513e-06 -6.75482e-06 1.8824e-07)
(2.19181e-06 -6.65925e-06 2.16099e-07)
(1.89509e-06 -6.55229e-06 2.42583e-07)
(1.45692e-06 -6.45178e-06 2.65363e-07)
(9.03954e-07 -6.37321e-06 2.82168e-07)
(2.75893e-07 -6.32811e-06 2.91116e-07)
(-3.79053e-07 -6.32227e-06 2.91342e-07)
(-1.00995e-06 -6.35529e-06 2.82849e-07)
(-1.56846e-06 -6.42058e-06 2.66521e-07)
(-2.0147e-06 -6.5058e-06 2.44253e-07)
(-2.32171e-06 -6.59438e-06 2.18385e-07)
(-2.4771e-06 -6.66736e-06 1.91322e-07)
(-2.48268e-06 -6.70462e-06 1.65171e-07)
(-2.35217e-06 -6.68527e-06 1.41542e-07)
(-2.10821e-06 -6.58705e-06 1.21463e-07)
(-1.77949e-06 -6.38454e-06 1.05376e-07)
(-1.39789e-06 -6.04536e-06 9.31009e-08)
(-9.9708e-07 -5.52385e-06 8.37711e-08)
(-6.09913e-07 -4.74735e-06 7.50459e-08)
(-2.75354e-07 -3.58162e-06 6.25037e-08)
(-3.28456e-08 -1.72089e-06 3.33189e-08)
(2.40338e-08 -2.12558e-06 2.41837e-08)
(2.19106e-07 -4.3856e-06 4.74113e-08)
(5.06006e-07 -5.77676e-06 5.97803e-08)
(8.50572e-07 -6.68254e-06 7.00986e-08)
(1.22027e-06 -7.28132e-06 8.16946e-08)
(1.58097e-06 -7.6679e-06 9.61472e-08)
(1.89862e-06 -7.90185e-06 1.14264e-07)
(2.13979e-06 -8.02289e-06 1.36198e-07)
(2.27472e-06 -8.06043e-06 1.61618e-07)
(2.27938e-06 -8.03824e-06 1.89539e-07)
(2.13867e-06 -7.97753e-06 2.18367e-07)
(1.8493e-06 -7.89803e-06 2.45943e-07)
(1.42222e-06 -7.818e-06 2.69733e-07)
(8.83038e-07 -7.75319e-06 2.87301e-07)
(2.70625e-07 -7.71522e-06 2.96621e-07)
(-3.67672e-07 -7.70993e-06 2.96814e-07)
(-9.82068e-07 -7.73704e-06 2.87878e-07)
(-1.52503e-06 -7.79005e-06 2.70691e-07)
(-1.95741e-06 -7.85676e-06 2.47293e-07)
(-2.25316e-06 -7.92083e-06 2.20169e-07)
(-2.40084e-06 -7.96332e-06 1.91867e-07)
(-2.403e-06 -7.964e-06 1.6463e-07)
(-2.27376e-06 -7.90153e-06 1.40127e-07)
(-2.03568e-06 -7.75257e-06 1.19395e-07)
(-1.71671e-06 -7.48935e-06 1.02851e-07)
(-1.34768e-06 -7.07545e-06 9.02934e-08)
(-9.60818e-07 -6.45793e-06 8.08689e-08)
(-5.87506e-07 -5.55099e-06 7.22703e-08)
(-2.65143e-07 -4.19455e-06 6.01711e-08)
(-3.16254e-08 -2.02254e-06 3.21364e-08)
(2.5475e-08 -2.37115e-06 2.56282e-08)
(2.18993e-07 -4.89863e-06 4.88434e-08)
(4.93505e-07 -6.46457e-06 5.99952e-08)
(8.181e-07 -7.502e-06 6.88981e-08)
(1.16207e-06 -8.20564e-06 7.91262e-08)
(1.49603e-06 -8.67968e-06 9.24492e-08)
(1.78951e-06 -8.98851e-06 1.09654e-07)
(2.0124e-06 -9.17482e-06 1.30905e-07)
(2.13717e-06 -9.26968e-06 1.55829e-07)
(2.14107e-06 -9.29766e-06 1.83435e-07)
(2.00928e-06 -9.27993e-06 2.12088e-07)
(1.738e-06 -9.2359e-06 2.39584e-07)
(1.33699e-06 -9.18333e-06 2.63343e-07)
(8.30158e-07 -9.13737e-06 2.80877e-07)
(2.54311e-07 -9.10921e-06 2.90116e-07)
(-3.45644e-07 -9.10457e-06 2.90277e-07)
(-9.22722e-07 -9.12322e-06 2.81354e-07)
(-1.43184e-06 -9.15908e-06 2.64121e-07)
(-1.83587e-06 -9.20047e-06 2.40643e-07)
(-2.11051e-06 -9.23187e-06 2.13436e-07)
(-2.24549e-06 -9.23517e-06 1.85131e-07)
(-2.24396e-06 -9.19076e-06 1.57962e-07)
(-2.12e-06 -9.07769e-06 1.33587e-07)
(-1.89533e-06 -8.87213e-06 1.1303e-07)
(-1.59639e-06 -8.54459e-06 9.66929e-08)
(-1.25194e-06 -8.05496e-06 8.43635e-08)
(-8.9184e-07 -7.34342e-06 7.51991e-08)
(-5.45006e-07 -6.31142e-06 6.70372e-08)
(-2.45866e-07 -4.77411e-06 5.58146e-08)
(-2.93326e-08 -2.30791e-06 2.9878e-08)
(2.39298e-08 -2.60679e-06 2.40902e-08)
(2.01083e-07 -5.38226e-06 4.54262e-08)
(4.48527e-07 -7.10646e-06 5.52312e-08)
(7.38928e-07 -8.26087e-06 6.29475e-08)
(1.04484e-06 -9.05849e-06 7.19621e-08)
(1.34127e-06 -9.61301e-06 8.40359e-08)
(1.60184e-06 -9.99343e-06 9.98915e-08)
(1.80031e-06 -1.0245e-05 1.19696e-07)
(1.91209e-06 -1.03996e-05 1.43091e-07)
(1.91652e-06 -1.04817e-05 1.69134e-07)
(1.79971e-06 -1.05118e-05 1.96259e-07)
(1.55755e-06 -1.0508e-05 2.22332e-07)
(1.19832e-06 -1.04871e-05 2.44858e-07)
(7.43382e-07 -1.0463e-05 2.61467e-07)
(2.26147e-07 -1.04462e-05 2.70148e-07)
(-3.12594e-07 -1.04423e-05 2.70271e-07)
(-8.30417e-07 -1.04511e-05 2.61818e-07)
(-1.28639e-06 -1.04667e-05 2.45418e-07)
(-1.64679e-06 -1.04784e-05 2.23087e-07)
(-1.8899e-06 -1.04719e-05 1.97199e-07)
(-2.00707e-06 -1.04305e-05 1.70296e-07)
(-2.00191e-06 -1.0336e-05 1.44521e-07)
(-1.88784e-06 -1.01683e-05 1.21457e-07)
(-1.68485e-06 -9.9036e-06 1.02063e-07)
(-1.41694e-06 -9.51131e-06 8.66983e-08)
(-1.10977e-06 -8.94823e-06 7.51661e-08)
(-7.89721e-07 -8.14825e-06 6.66903e-08)
(-4.82211e-07 -7.00124e-06 5.93218e-08)
(-2.17434e-07 -5.29955e-06 4.94081e-08)
(-2.59467e-08 -2.5668e-06 2.65219e-08)
(2.04482e-08 -2.81492e-06 2.06033e-08)
(1.69825e-07 -5.80596e-06 3.86158e-08)
(3.76969e-07 -7.66629e-06 4.67282e-08)
(6.19333e-07 -8.92084e-06 5.3156e-08)
(8.74183e-07 -9.79998e-06 6.08035e-08)
(1.12131e-06 -1.04261e-05 7.12244e-08)
(1.33916e-06 -1.08722e-05 8.50616e-08)
(1.50605e-06 -1.11856e-05 1.02464e-07)
(1.60123e-06 -1.13986e-05 1.23111e-07)
(1.60692e-06 -1.1535e-05 1.4617e-07)
(1.51072e-06 -1.16138e-05 1.7024e-07)
(1.30844e-06 -1.16515e-05 1.93425e-07)
(1.00655e-06 -1.16632e-05 2.13427e-07)
(6.22941e-07 -1.16615e-05 2.28141e-07)
(1.8613e-07 -1.16564e-05 2.35766e-07)
(-2.68832e-07 -1.16531e-05 2.35836e-07)
(-7.05654e-07 -1.16516e-05 2.28348e-07)
(-1.08919e-06 -1.16463e-05 2.13753e-07)
(-1.39067e-06 -1.16271e-05 1.93856e-07)
(-1.59198e-06 -1.15812e-05 1.70783e-07)
(-1.6864e-06 -1.14936e-05 1.46837e-07)
(-1.67785e-06 -1.1348e-05 1.23935e-07)
(-1.5784e-06 -1.11256e-05 1.03504e-07)
(-1.40549e-06 -1.08033e-05 8.63588e-08)
(-1.1796e-06 -1.03497e-05 7.28261e-08)
(-9.22245e-07 -9.71914e-06 6.27207e-08)
(-6.55321e-07 -8.84041e-06 5.53782e-08)
(-3.99698e-07 -7.59327e-06 4.91499e-08)
(-1.80108e-07 -5.75024e-06 4.09793e-08)
(-2.14981e-08 -2.78912e-06 2.21019e-08)
(1.55401e-08 -2.98224e-06 1.56982e-08)
(1.27998e-07 -6.14487e-06 2.9264e-08)
(2.83402e-07 -8.1131e-06 3.5321e-08)
(4.65246e-07 -9.44746e-06 4.02224e-08)
(6.56758e-07 -1.03929e-05 4.62209e-08)
(8.43272e-07 -1.1079e-05 5.45379e-08)
(1.00879e-06 -1.15821e-05 6.56653e-08)
(1.137e-06 -1.19509e-05 7.97645e-08)
(1.21191e-06 -1.22176e-05 9.6613e-08)
(1.21934e-06 -1.24048e-05 1.15555e-07)
(1.14904e-06 -1.25298e-05 1.35443e-07)
(9.96772e-07 -1.26073e-05 1.54712e-07)
(7.66707e-07 -1.26504e-05 1.71407e-07)
(4.7219e-07 -1.26703e-05 1.83768e-07)
(1.35465e-07 -1.26763e-05 1.90181e-07)
(-2.15544e-07 -1.26736e-05 1.90195e-07)
(-5.5176e-07 -1.26621e-05 1.83812e-07)
(-8.45208e-07 -1.26365e-05 1.71475e-07)
(-1.07354e-06 -1.25874e-05 1.54801e-07)
(-1.22331e-06 -1.25034e-05 1.35581e-07)
(-1.29021e-06 -1.23715e-05 1.15784e-07)
(-1.27833e-06 -1.21775e-05 9.69514e-08)
(-1.19787e-06 -1.19041e-05 8.02439e-08)
(-1.06284e-06 -1.15293e-05 6.63121e-08)
(-8.8916e-07 -1.10216e-05 5.53798e-08)
(-6.93247e-07 -1.03335e-05 4.72777e-08)
(-4.91456e-07 -9.38971e-06 4.1495e-08)
(-2.99179e-07 -8.06197e-06 3.67548e-08)
(-1.34637e-07 -6.10687e-06 3.07086e-08)
(-1.60619e-08 -2.96532e-06 1.66876e-08)
(9.5658e-09 -3.09815e-06 9.71554e-09)
(7.79218e-08 -6.3785e-06 1.79445e-08)
(1.72228e-07 -8.42088e-06 2.15993e-08)
(2.83057e-07 -9.81125e-06 2.47236e-08)
(4.00708e-07 -1.0805e-05 2.87473e-08)
(5.16653e-07 -1.15367e-05 3.44665e-08)
(6.21263e-07 -1.20852e-05 4.22479e-08)
(7.04343e-07 -1.24998e-05 5.22258e-08)
(7.5547e-07 -1.28122e-05 6.42669e-08)
(7.64823e-07 -1.30438e-05 7.79726e-08)
(7.24695e-07 -1.32103e-05 9.25521e-08)
(6.30955e-07 -1.33241e-05 1.06915e-07)
(4.85119e-07 -1.33962e-05 1.19581e-07)
(2.9512e-07 -1.34365e-05 1.29154e-07)
(7.55415e-08 -1.3453e-05 1.342e-07)
(-1.54008e-07 -1.34507e-05 1.34148e-07)
(-3.72608e-07 -1.34296e-05 1.29018e-07)
(-5.60685e-07 -1.33846e-05 1.19375e-07)
(-7.03625e-07 -1.33075e-05 1.06677e-07)
(-7.93551e-07 -1.31885e-05 9.23121e-08)
(-8.29005e-07 -1.30168e-05 7.77671e-08)
(-8.14136e-07 -1.278e-05 6.41437e-08)
(-7.5662e-07 -1.24628e-05 5.22213e-08)
(-6.66308e-07 -1.20443e-05 4.23893e-08)
(-5.53679e-07 -1.14932e-05 3.477e-08)
(-4.29114e-07 -1.07609e-05 2.92189e-08)
(-3.02635e-07 -9.7693e-06 2.53651e-08)
(-1.83436e-07 -8.38465e-06 2.24045e-08)
(-8.22618e-08 -6.35226e-06 1.88421e-08)
(-9.77329e-09 -3.0869e-06 1.0418e-08)
(2.83588e-09 -3.1547e-06 2.97615e-09)
(2.18924e-08 -6.49121e-06 5.2309e-09)
(4.8226e-08 -8.56949e-06 6.22714e-09)
(8.02517e-08 -9.98886e-06 7.35442e-09)
(1.16093e-07 -1.10102e-05 9.14168e-09)
(1.53835e-07 -1.17707e-05 1.18987e-08)
(1.90815e-07 -1.23502e-05 1.5806e-08)
(2.23539e-07 -1.27981e-05 2.09839e-08)
(2.47713e-07 -1.31457e-05 2.7463e-08)
(2.58558e-07 -1.34133e-05 3.51587e-08)
(2.51429e-07 -1.36146e-05 4.3725e-08)
(2.22571e-07 -1.37602e-05 5.25877e-08)
(1.70495e-07 -1.38588e-05 6.0796e-08)
(9.70546e-08 -1.39183e-05 6.73485e-08)
(8.24182e-09 -1.39449e-05 7.09752e-08)
(-8.57456e-08 -1.39429e-05 7.08729e-08)
(-1.73178e-07 -1.39122e-05 6.70785e-08)
(-2.43967e-07 -1.38486e-05 6.03648e-08)
(-2.92222e-07 -1.37458e-05 5.20585e-08)
(-3.16292e-07 -1.3596e-05 4.31606e-08)
(-3.17749e-07 -1.33907e-05 3.46218e-08)
(-3.0054e-07 -1.31194e-05 2.69947e-08)
(-2.69414e-07 -1.27684e-05 2.06138e-08)
(-2.29262e-07 -1.23179e-05 1.5564e-08)
(-1.84495e-07 -1.17371e-05 1.18039e-08)
(-1.38835e-07 -1.09769e-05 9.20564e-09)
(-9.53076e-08 -9.95786e-06 7.58804e-09)
(-5.63905e-08 -8.54335e-06 6.6302e-09)
(-2.47479e-08 -6.47275e-06 5.79098e-09)
(-2.84849e-09 -3.14709e-06 3.50755e-09)
(-4.35176e-09 -3.14658e-06 -4.22495e-09)
(-3.76097e-08 -6.47256e-06 -8.32643e-09)
(-8.32352e-08 -8.54542e-06 -1.01667e-08)
(-1.34584e-07 -9.96445e-06 -1.11875e-08)
(-1.85365e-07 -1.09905e-05 -1.18638e-08)
(-2.30615e-07 -1.17606e-05 -1.24187e-08)
(-2.65801e-07 -1.23543e-05 -1.28625e-08)
(-2.87368e-07 -1.28205e-05 -1.31169e-08)
(-2.92989e-07 -1.31898e-05 -1.30301e-08)
(-2.81976e-07 -1.34815e-05 -1.24146e-08)
(-2.55456e-07 -1.37082e-05 -1.11195e-08)
(-2.16377e-07 -1.38785e-05 -9.07913e-09)
(-1.68867e-07 -1.39991e-05 -6.57207e-09)
(-1.17276e-07 -1.40752e-05 -4.08024e-09)
(-6.48388e-08 -1.41109e-05 -2.46434e-09)
(-1.20627e-08 -1.41091e-05 -2.61836e-09)
(4.20454e-08 -1.40696e-05 -4.4761e-09)
(9.68496e-08 -1.39897e-05 -7.19006e-09)
(1.48926e-07 -1.38654e-05 -9.82592e-09)
(1.93599e-07 -1.36917e-05 -1.19366e-08)
(2.26524e-07 -1.34618e-05 -1.32222e-08)
(2.44471e-07 -1.31673e-05 -1.37845e-08)
(2.46162e-07 -1.27958e-05 -1.37665e-08)
(2.32115e-07 -1.23281e-05 -1.33829e-08)
(2.04478e-07 -1.17339e-05 -1.2799e-08)
(1.66587e-07 -1.09647e-05 -1.20883e-08)
(1.22648e-07 -9.94093e-06 -1.12388e-08)
(7.71393e-08 -8.526e-06 -1.00294e-08)
(3.57439e-08 -6.45921e-06 -7.9826e-09)
(4.46362e-09 -3.14129e-06 -3.79462e-09)
(-1.16625e-08 -3.07133e-06 -1.15412e-08)
(-9.78696e-08 -6.31785e-06 -2.20907e-08)
(-2.16198e-07 -8.34254e-06 -2.68071e-08)
(-3.51745e-07 -9.73086e-06 -3.00295e-08)
(-4.90139e-07 -1.07375e-05 -3.32635e-08)
(-6.19556e-07 -1.14964e-05 -3.72831e-08)
(-7.28348e-07 -1.20852e-05 -4.23583e-08)
(-8.05929e-07 -1.25515e-05 -4.84615e-08)
(-8.43261e-07 -1.29252e-05 -5.53558e-08)
(-8.33953e-07 -1.3225e-05 -6.25915e-08)
(-7.75111e-07 -1.34625e-05 -6.95605e-08)
(-6.68303e-07 -1.36452e-05 -7.55822e-08)
(-5.19807e-07 -1.37781e-05 -8.01316e-08)
(-3.39741e-07 -1.38645e-05 -8.29247e-08)
(-1.40865e-07 -1.39062e-05 -8.40896e-08)
(6.45565e-08 -1.39044e-05 -8.426e-08)
(2.65328e-07 -1.38591e-05 -8.33797e-08)
(4.48986e-07 -1.37691e-05 -8.0844e-08)
(6.02547e-07 -1.36329e-05 -7.64641e-08)
(7.15464e-07 -1.34472e-05 -7.05398e-08)
(7.81196e-07 -1.32071e-05 -6.35611e-08)
(7.97844e-07 -1.29053e-05 -5.62788e-08)
(7.68056e-07 -1.25301e-05 -4.92816e-08)
(6.98023e-07 -1.20631e-05 -4.30559e-08)
(5.96582e-07 -1.14745e-05 -3.78497e-08)
(4.74099e-07 -1.07168e-05 -3.36733e-08)
(3.41919e-07 -9.71237e-06 -3.02631e-08)
(2.11472e-07 -8.32762e-06 -2.68243e-08)
(9.66407e-08 -6.30783e-06 -2.18774e-08)
(1.1847e-08 -3.06748e-06 -1.11733e-08)
(-1.87324e-08 -2.92972e-06 -1.86312e-08)
(-1.55976e-07 -6.02891e-06 -3.54189e-08)
(-3.44274e-07 -7.96331e-06 -4.29177e-08)
(-5.60857e-07 -9.29079e-06 -4.82825e-08)
(-7.83612e-07 -1.02538e-05 -5.40148e-08)
(-9.94305e-07 -1.09801e-05 -6.14583e-08)
(-1.17449e-06 -1.15438e-05 -7.10974e-08)
(-1.30685e-06 -1.19906e-05 -8.30368e-08)
(-1.37594e-06 -1.23491e-05 -9.70119e-08)
(-1.36967e-06 -1.26373e-05 -1.12352e-07)
(-1.28109e-06 -1.28668e-05 -1.28086e-07)
(-1.11001e-06 -1.30447e-05 -1.42875e-07)
(-8.64143e-07 -1.31753e-05 -1.55338e-07)
(-5.58823e-07 -1.32611e-05 -1.64257e-07)
(-2.15855e-07 -1.3303e-05 -1.68764e-07)
(1.4035e-07 -1.33012e-05 -1.68936e-07)
(4.85337e-07 -1.32556e-05 -1.64735e-07)
(7.94446e-07 -1.31664e-05 -1.56086e-07)
(1.04564e-06 -1.30327e-05 -1.43804e-07)
(1.22318e-06 -1.28522e-05 -1.29117e-07)
(1.31894e-06 -1.26207e-05 -1.13403e-07)
(1.33275e-06 -1.23309e-05 -9.80184e-08)
(1.27132e-06 -1.19715e-05 -8.39638e-08)
(1.14648e-06 -1.15245e-05 -7.19011e-08)
(9.73475e-07 -1.09613e-05 -6.21285e-08)
(7.69399e-07 -1.02365e-05 -5.45429e-08)
(5.52416e-07 -9.27568e-06 -4.86264e-08)
(3.40436e-07 -7.95139e-06 -4.30397e-08)
(1.5516e-07 -6.02104e-06 -3.52849e-08)
(1.89686e-08 -2.92676e-06 -1.82962e-08)
(-2.52359e-08 -2.72567e-06 -2.51435e-08)
(-2.09082e-07 -5.61393e-06 -4.76385e-08)
(-4.61089e-07 -7.41879e-06 -5.76643e-08)
(-7.51434e-07 -8.65727e-06 -6.49728e-08)
(-1.05101e-06 -9.55417e-06 -7.29466e-08)
(-1.33577e-06 -1.02278e-05 -8.34244e-08)
(-1.5811e-06 -1.07473e-05 -9.71176e-08)
(-1.76356e-06 -1.11556e-05 -1.14245e-07)
(-1.86181e-06 -1.14796e-05 -1.34513e-07)
(-1.8587e-06 -1.17372e-05 -1.57094e-07)
(-1.74342e-06 -1.19396e-05 -1.80644e-07)
(-1.51404e-06 -1.20947e-05 -2.03285e-07)
(-1.17944e-06 -1.22074e-05 -2.22874e-07)
(-7.5958e-07 -1.22808e-05 -2.37342e-07)
(-2.84455e-07 -1.23164e-05 -2.44924e-07)
(2.10157e-07 -1.23146e-05 -2.4509e-07)
(6.87309e-07 -1.22753e-05 -2.37807e-07)
(1.11104e-06 -1.21985e-05 -2.23594e-07)
(1.45106e-06 -1.20829e-05 -2.04191e-07)
(1.68696e-06 -1.19255e-05 -1.81651e-07)
(1.80951e-06 -1.17213e-05 -1.58136e-07)
(1.82024e-06 -1.14627e-05 -1.35522e-07)
(1.72965e-06 -1.11382e-05 -1.15187e-07)
(1.55465e-06 -1.07301e-05 -9.79533e-08)
(1.31635e-06 -1.02114e-05 -8.41337e-08)
(1.03797e-06 -9.53926e-06 -7.35133e-08)
(7.43878e-07 -8.64454e-06 -6.53628e-08)
(4.57802e-07 -7.40891e-06 -5.7835e-08)
(2.08501e-07 -5.60749e-06 -4.75419e-08)
(2.54928e-08 -2.72329e-06 -2.48285e-08)
(-3.08229e-08 -2.46628e-06 -3.07488e-08)
(-2.5451e-07 -5.08752e-06 -5.81603e-08)
(-5.60845e-07 -6.7284e-06 -7.03376e-08)
(-9.14067e-07 -7.85346e-06 -7.92441e-08)
(-1.27912e-06 -8.66482e-06 -8.90198e-08)
(-1.62693e-06 -9.26905e-06 -1.01926e-07)
(-1.92761e-06 -9.72878e-06 -1.18862e-07)
(-2.15247e-06 -1.00833e-05 -1.40101e-07)
(-2.27521e-06 -1.03578e-05 -1.653e-07)
(-2.2743e-06 -1.05696e-05 -1.9351e-07)
(-2.13584e-06 -1.07304e-05 -2.231e-07)
(-1.85659e-06 -1.0849e-05 -2.518e-07)
(-1.44647e-06 -1.09321e-05 -2.76858e-07)
(-9.29418e-07 -1.09844e-05 -2.95566e-07)
(-3.42282e-07 -1.10091e-05 -3.05505e-07)
(2.69655e-07 -1.10073e-05 -3.05651e-07)
(8.58776e-07 -1.09791e-05 -2.95989e-07)
(1.37963e-06 -1.09236e-05 -2.77521e-07)
(1.79507e-06 -1.08378e-05 -2.52631e-07)
(2.08081e-06 -1.0717e-05 -2.24032e-07)
(2.22647e-06 -1.05548e-05 -1.94491e-07)
(2.23492e-06 -1.03422e-05 -1.66264e-07)
(2.11976e-06 -1.00674e-05 -1.41002e-07)
(1.90225e-06 -9.71333e-06 -1.19685e-07)
(1.60844e-06 -9.25455e-06 -1.02634e-07)
(1.26682e-06 -8.65187e-06 -8.95872e-08)
(9.07044e-07 -7.84254e-06 -7.9646e-08)
(5.57865e-07 -6.72003e-06 -7.05235e-08)
(2.54051e-07 -5.08214e-06 -5.80746e-08)
(3.10889e-08 -2.46431e-06 -3.04399e-08)
(-3.52267e-08 -2.16143e-06 -3.51635e-08)
(-2.9001e-07 -4.46982e-06 -6.645e-08)
(-6.38621e-07 -5.91886e-06 -8.02824e-08)
(-1.04083e-06 -6.911e-06 -9.03656e-08)
(-1.45702e-06 -7.62181e-06 -1.01414e-07)
(-1.85414e-06 -8.14429e-06 -1.15989e-07)
(-2.19794e-06 -8.53358e-06 -1.35097e-07)
(-2.45552e-06 -8.82475e-06 -1.59045e-07)
(-2.59664e-06 -9.04108e-06 -1.8743e-07)
(-2.59648e-06 -9.19884e-06 -2.19188e-07)
(-2.43902e-06 -9.31047e-06 -2.525e-07)
(-2.12028e-06 -9.38604e-06 -2.84825e-07)
(-1.65128e-06 -9.43398e-06 -3.13093e-07)
(-1.0592e-06 -9.46132e-06 -3.34247e-07)
(-3.86117e-07 -9.47295e-06 -3.45548e-07)
(3.15642e-07 -9.47126e-06 -3.45671e-07)
(9.90638e-07 -9.45639e-06 -3.34607e-07)
(1.58641e-06 -9.42608e-06 -3.13662e-07)
(2.06054e-06 -9.37559e-06 -2.85553e-07)
(2.38556e-06 -9.29812e-06 -2.53328e-07)
(2.55e-06 -9.18519e-06 -2.20063e-07)
(2.55753e-06 -9.0268e-06 -1.88309e-07)
(2.42382e-06 -8.81047e-06 -1.59879e-07)
(2.17341e-06 -8.5198e-06 -1.35867e-07)
(1.83631e-06 -8.13153e-06 -1.16664e-07)
(1.44522e-06 -7.61057e-06 -1.01969e-07)
(1.03412e-06 -6.90168e-06 -9.07608e-08)
(6.35791e-07 -5.91181e-06 -8.04664e-08)
(2.89586e-07 -4.46534e-06 -6.63665e-08)
(3.54842e-08 -2.15981e-06 -3.48613e-08)
(-3.81989e-08 -1.82322e-06 -3.81483e-08)
(-3.13636e-07 -3.78549e-06 -7.20511e-08)
(-6.90427e-07 -5.02261e-06 -8.69726e-08)
(-1.12572e-06 -5.86814e-06 -9.7755e-08)
(-1.57687e-06 -6.46851e-06 -1.09494e-07)
(-2.00796e-06 -6.90195e-06 -1.2495e-07)
(-2.38152e-06 -7.21557e-06 -1.45165e-07)
(-2.66141e-06 -7.43993e-06 -1.70429e-07)
(-2.81459e-06 -7.59594e-06 -2.00302e-07)
(-2.81415e-06 -7.69906e-06 -2.33615e-07)
(-2.6428e-06 -7.76181e-06 -2.6843e-07)
(-2.29645e-06 -7.79522e-06 -3.02119e-07)
(-1.78729e-06 -7.80929e-06 -3.31526e-07)
(-1.14482e-06 -7.81266e-06 -3.53487e-07)
(-4.14554e-07 -7.81189e-06 -3.65225e-07)
(3.46799e-07 -7.81036e-06 -3.65331e-07)
(1.07886e-06 -7.80818e-06 -3.53803e-07)
(1.72479e-06 -7.80214e-06 -3.32018e-07)
(2.23884e-06 -7.78585e-06 -3.02749e-07)
(2.59118e-06 -7.75079e-06 -2.6916e-07)
(2.76923e-06 -7.68695e-06 -2.34392e-07)
(2.77677e-06 -7.58334e-06 -2.01088e-07)
(2.63074e-06 -7.42739e-06 -1.71193e-07)
(2.35777e-06 -7.20357e-06 -1.45875e-07)
(1.99071e-06 -6.89095e-06 -1.25579e-07)
(1.56545e-06 -6.45892e-06 -1.10017e-07)
(1.11921e-06 -5.86031e-06 -9.81202e-08)
(6.87688e-07 -5.01678e-06 -8.71415e-08)
(3.13217e-07 -3.78185e-06 -7.19681e-08)
(3.84426e-08 -1.82194e-06 -3.78545e-08)
(-3.95018e-08 -1.46577e-06 -3.94627e-08)
(-3.2373e-07 -3.06296e-06 -7.45059e-08)
(-7.13061e-07 -4.07679e-06 -8.98253e-08)
(-1.16419e-06 -4.76807e-06 -1.00764e-07)
(-1.63326e-06 -5.253e-06 -1.12598e-07)
(-2.08254e-06 -5.59481e-06 -1.28159e-07)
(-2.47242e-06 -5.83252e-06 -1.48508e-07)
(-2.7646e-06 -5.99199e-06 -1.73896e-07)
(-2.92428e-06 -6.09155e-06 -2.0381e-07)
(-2.9234e-06 -6.14539e-06 -2.37011e-07)
(-2.74432e-06 -6.16563e-06 -2.71547e-07)
(-2.38329e-06 -6.16353e-06 -3.04803e-07)
(-1.85347e-06 -6.1498e-06 -3.33705e-07)
(-1.18578e-06 -6.13399e-06 -3.55207e-07)
(-4.27425e-07 -6.12343e-06 -3.66697e-07)
(3.62972e-07 -6.12212e-06 -3.66786e-07)
(1.123e-06 -6.13015e-06 -3.55474e-07)
(1.79393e-06 -6.1437e-06 -3.34124e-07)
(2.32833e-06 -6.15551e-06 -3.05346e-07)
(2.69498e-06 -6.15619e-06 -2.72179e-07)
(2.8804e-06 -6.13506e-06 -2.37694e-07)
(2.88801e-06 -6.08084e-06 -2.04511e-07)
(2.73514e-06 -5.98137e-06 -1.74583e-07)
(2.4496e-06 -5.82245e-06 -1.49153e-07)
(2.06595e-06 -5.58566e-06 -1.28736e-07)
(1.62225e-06 -5.2451e-06 -1.13086e-07)
(1.1579e-06 -4.76169e-06 -1.0111e-07)
(7.10377e-07 -4.07213e-06 -8.99843e-08)
(3.23286e-07 -3.06016e-06 -7.44258e-08)
(3.97234e-08 -1.46484e-06 -3.91845e-08)
(-3.88386e-08 -1.10516e-06 -3.88086e-08)
(-3.18483e-07 -2.33406e-06 -7.32226e-08)
(-7.03497e-07 -3.12222e-06 -8.80814e-08)
(-1.15251e-06 -3.65764e-06 -9.84998e-08)
(-1.62227e-06 -4.0269e-06 -1.09755e-07)
(-2.07427e-06 -4.27875e-06 -1.24662e-07)
(-2.46766e-06 -4.44435e-06 -1.44276e-07)
(-2.76297e-06 -4.54486e-06 -1.68786e-07)
(-2.92465e-06 -4.59587e-06 -1.97623e-07)
(-2.92437e-06 -4.60975e-06 -2.29516e-07)
(-2.74472e-06 -4.59757e-06 -2.62536e-07)
(-2.38257e-06 -4.56996e-06 -2.94172e-07)
(-1.85175e-06 -4.53732e-06 -3.21544e-07)
(-1.18358e-06 -4.50899e-06 -3.41822e-07)
(-4.25275e-07 -4.4923e-06 -3.52637e-07)