/*--------------------------------*- C++ -*----------------------------------*\
| =========                 |                                                 |
| \\      /  F ield         | OpenFOAM: The Open Source CFD Toolbox           |
|  \\    /   O peration     | Version:  v1906                                 |
|   \\  /    A nd           | Web:      www.OpenFOAM.com                      |
|    \\/     M anipulation  |                                                 |
\*---------------------------------------------------------------------------*/
FoamFile
{
    version     2.0;
    format      ascii;
    class       volScalarField;
    location    "80.6/sphere";
    object      T;
}
// * * * * * * * * * * * * * * * * * * * * * * * * * * * * * * * * * * * * * //

dimensions      [0 0 0 1 0 0 0];


internalField   nonuniform List<scalar> 
304
(
458.184
458.212
458.206
458.223
458.182
458.172
458.184
458.213
458.183
458.322
458.322
458.223
458.206
458.315
458.316
458.248
458.208
458.24
458.169
458.211
458.228
458.183
458.213
458.322
458.321
458.252
458.224
458.316
458.316
458.273
458.17
458.239
458.267
458.203
458.184
458.225
458.252
458.188
458.185
458.248
458.273
458.211
458.169
458.203
458.158
458.172
458.185
458.185
458.186
458.218
458.185
458.185
458.218
458.186
458.172
458.184
458.188
458.185
458.217
458.212
458.211
458.226
458.224
458.253
458.251
458.276
458.184
458.226
458.212
458.253
458.224
458.276
458.252
458.184
458.188
458.217
458.185
458.178
458.178
458.21
458.171
458.222
458.17
458.202
458.246
458.272
458.21
458.242
458.208
458.203
458.173
458.273
458.248
458.243
458.212
458.212
458.181
458.172
458.156
458.17
458.167
458.202
458.168
458.203
458.168
458.167
458.156
458.185
458.183
458.184
458.217
458.213
458.224
458.254
458.212
458.228
458.253
458.278
458.185
458.254
458.225
458.228
458.212
458.278
458.253
458.186
458.184
458.217
458.185
458.224
458.211
458.251
458.212
458.253
458.226
458.276
458.183
458.252
458.212
458.253
458.212
458.276
458.226
458.246
458.171
458.211
458.223
458.273
458.202
458.242
458.208
458.212
458.173
458.273
458.224
458.243
458.203
458.169
458.171
458.203
458.168
458.239
458.166
458.197
458.24
458.266
458.197
458.215
458.208
458.197
458.166
458.266
458.24
458.215
458.197
458.202
458.17
458.167
458.183
458.184
458.217
458.188
458.228
458.253
458.278
458.183
458.212
458.225
458.253
458.211
458.278
458.252
458.212
458.181
458.253
458.222
458.216
458.184
458.184
458.254
458.227
458.276
458.186
458.226
458.213
458.253
458.212
458.276
458.227
458.224
458.185
458.252
458.212
458.273
458.203
458.243
458.21
458.249
458.174
458.213
458.224
458.244
458.203
458.247
458.208
458.213
458.173
458.202
458.168
458.169
458.267
458.197
458.215
458.209
458.24
458.167
458.198
458.24
458.216
458.199
458.241
458.21
458.199
458.169
458.172
458.169
458.17
458.175
458.183
458.187
458.217
458.183
458.216
458.185
458.183
458.171
458.19
458.186
458.218
458.186
458.253
458.253
458.276
458.187
458.212
458.213
458.227
458.224
458.276
458.252
458.211
458.183
458.226
458.211
458.217
458.185
458.183
458.214
458.175
458.181
458.273
458.213
458.243
458.208
458.223
458.172
458.203
458.247
458.244
458.213
458.223
458.207
458.203
458.173
458.18
458.173
458.178
458.158
458.203
458.169
458.172
458.17
458.169
458.171
)
;

boundaryField
{
    sphere_to_oil
    {
        type            compressible::turbulentTemperatureCoupledBaffleMixed;
        refValue        nonuniform List<scalar> 
360
(
332.312
332.312
322.333
355.731
362.989
325.136
364.004
364.004
364.004
342.818
342.818
329.12
333.675
321.194
342.225
350.744
346.683
346.683
346.683
322.548
345.594
324.766
328.631
358.396
317.454
358.629
323.025
358.618
358.618
358.618
364.539
357.356
322.243
321.905
328.881
328.964
347.593
347.593
347.593
346.922
348.491
323.879
325.604
332.77
332.77
322.84
331.153
314.813
331.871
358.956
325.062
325.178
332.982
333.526
322.321
324.537
347.109
322.654
325.68
334.503
317.919
359.752
359.752
359.752
314.861
358.316
331.777
323.542
362.514
362.514
362.514
363.455
362.195
320.329
346.515
341.594
322.278
327.888
348.466
347.656
329.396
320.919
329.077
317.785
322.229
324.708
329.081
333.393
321.779
322.794
322.461
332.447
328.686
322.576
332.091
328.681
329.304
329.44
325.437
317.049
317.165
322.427
325.082
328.679
332.366
322.349
321.087
333.59
325.068
329.396
329.32
329.258
325.38
322.55
315.026
314.986
328.295
323.737
329.351
332.199
332.199
355.731
355.731
358.396
358.396
356.202
356.202
356.202
357.751
357.751
357.751
328.708
323.978
328.236
323.402
362.989
362.989
339.459
339.459
364.539
364.539
338.847
338.847
363.906
363.906
363.906
323.057
322.853
351.268
351.268
351.268
351.092
351.092
351.092
350.744
345.594
342.225
350.744
350.879
322.664
350.879
350.879
328.669
329.494
321.035
324.864
324.864
349.748
349.748
349.748
317.873
345.594
324.766
348.91
348.91
317.75
348.91
329.479
320.954
314.889
323.041
323.37
331.754
317.34
331.213
323.302
314.94
317.253
358.629
358.629
357.356
357.356
333.16
333.16
355.758
355.758
355.758
331.601
331.601
316.906
328.183
325.457
332.551
328.403
324.807
332.388
325.133
333.658
329.469
324.937
346.922
333.46
329.56
322.695
349.178
349.178
349.178
325.279
325.279
317.779
325.808
325.614
334.315
348.491
323.791
334.24
325.94
346.922
348.491
325.075
322.649
325.075
318.13
314.939
331.08
317.381
323.193
323.081
323.334
317.206
316.843
359.688
354.732
359.688
359.688
354.732
354.732
358.956
358.316
331.871
356.987
317.068
358.956
356.987
356.987
331.788
322.012
328.447
332.304
322.596
363.455
328.504
329.121
329.101
325.22
347.109
346.515
329.427
329.188
325.354
346.687
350.706
324.537
348.807
317.923
347.109
348.807
348.807
334.757
323.771
348.466
325.727
325.899
325.583
348.838
323.757
348.579
324.92
346.687
324.92
348.838
346.687
348.838
314.767
323.809
327.82
327.984
332.145
355.85
332.145
355.85
355.85
316.896
358.316
356.927
331.777
356.927
316.919
356.927
328.834
328.552
321.849
361.542
339.547
361.542
361.542
339.547
322.405
324.747
328.249
332.236
362.195
363.455
339.067
323.07
362.195
339.067
322.329
346.515
351.202
341.594
351.202
321.575
351.202
333.674
347.656
325.265
329.67
350.474
347.302
350.706
341.175
350.706
350.474
341.175
350.474
320.842
328.948
348.466
324.849
317.841
347.656
324.849
322.915
348.579
347.302
348.579
324.926
347.302
324.926
)
;
        refGradient     uniform 0;
        valueFraction   nonuniform List<scalar> 
360
(
0.000139191
0.000133534
8.54903e-05
0.000305403
0.000313218
0.000179605
0.000315164
0.000270528
0.000421084
0.000134073
0.000130719
0.000175363
0.000267259
7.64157e-05
0.000136696
0.000265723
0.000304514
0.000284526
0.000399254
6.99256e-05
0.000262145
0.000128873
0.000118776
0.000315183
9.15104e-05
0.000323971
0.000182619
0.000319787
0.000418502
0.000279951
0.00031984
0.000322595
8.66246e-05
8.56568e-05
0.000179756
0.000176897
0.000299332
0.000405807
0.000278661
0.000418991
0.000413877
8.83752e-05
0.000175292
0.000127932
0.000127779
0.000180444
0.000269961
7.20252e-05
0.000128876
0.000273275
0.000178006
0.000179163
0.00026706
0.000264464
7.47193e-05
0.000136689
0.000278744
7.15791e-05
0.000177325
0.000264427
7.00637e-05
0.000311289
0.000274794
0.000430079
7.22312e-05
0.000280966
0.00013106
0.000126761
0.000318481
0.00041547
0.000279477
0.000400645
0.000406253
7.75912e-05
0.000270879
0.000137418
7.15369e-05
0.000128279
0.000405409
0.000421145
0.000125817
0.000123443
0.000121247
7.20594e-05
8.68937e-05
0.000176166
0.000177154
0.000268278
8.09834e-05
6.83796e-05
8.59966e-05
0.00026784
0.000176817
8.78461e-05
0.000267398
0.000178836
0.000177779
0.000178054
8.68273e-05
6.95962e-05
7.05725e-05
6.96333e-05
0.000179013
0.000175945
0.000267638
7.87969e-05
6.84438e-05
0.000267445
8.49637e-05
0.000176224
0.000176257
0.000179853
8.79464e-05
7.04239e-05
6.86802e-05
7.0007e-05
0.000121857
0.000122003
0.000126743
0.000137435
0.00012917
0.000266894
0.00042044
0.000281191
0.000424306
0.000271983
0.000418151
0.000311339
0.000272203
0.000409049
0.000306619
0.000125067
0.000118274
0.000121143
6.68757e-05
0.000277352
0.000417583
0.000129201
0.000129791
0.000422005
0.000280585
0.00013544
0.000142746
0.00041681
0.000286334
0.000329939
7.36007e-05
6.84937e-05
0.000289096
0.000400617
0.000317549
0.000297661
0.000414487
0.000317516
0.000327825
0.000301968
0.000141252
0.000421028
0.000271958
7.5823e-05
0.000409212
0.000306225
0.000116864
0.000123122
0.000121803
0.000128496
0.00013432
0.000418928
0.000275842
0.000323781
7.76332e-05
0.00040299
0.000138185
0.000423755
0.000271275
7.58309e-05
0.000321651
0.000117902
0.000118996
6.95233e-05
0.000182229
0.000182156
0.000269346
8.98193e-05
0.000269752
0.000177494
6.88095e-05
6.68164e-05
0.000421517
0.00026783
0.000416569
0.000277733
0.000132479
0.000123893
0.000418511
0.000261567
0.000302346
0.000122463
0.000142095
7.14872e-05
0.000179026
0.000178863
0.000267235
0.000174978
0.000175879
0.000266183
9.12366e-05
0.000267096
0.000181104
8.8725e-05
0.000300637
0.000266801
0.000180019
7.17434e-05
0.000409383
0.000265397
0.000310516
0.000129365
0.00012022
6.94423e-05
0.000177638
0.000180626
0.000267809
0.000304489
8.51601e-05
0.000265268
0.000173249
0.000263514
0.000278971
0.000126634
7.11282e-05
0.000140521
7.20082e-05
6.77801e-05
0.000270793
9.037e-05
0.000182051
0.000179946
0.000177801
8.9234e-05
6.81627e-05
0.000276872
0.000259436
0.000435531
0.000324189
0.000406327
0.000291947
0.000312915
0.000320381
0.00014241
0.000274848
7.4051e-05
0.000418246
0.000406683
0.000308994
0.000269507
8.58753e-05
0.000175363
0.000266408
8.66443e-05
0.000317441
0.000176122
0.000177383
0.000175748
8.61208e-05
0.00031508
0.000295258
0.000179308
0.000174671
8.7779e-05
0.000295839
0.000325639
0.000129147
0.000292325
6.94267e-05
0.000416471
0.000403771
0.000305095
0.000264436
8.68707e-05
0.000305574
0.000175954
0.000176225
0.000177228
0.000307238
8.76847e-05
0.000313907
0.000132085
0.000270644
0.000133188
0.000275797
0.000420291
0.000412607
6.9392e-05
0.000139054
0.000137412
0.000134401
0.000122397
0.000409489
0.000133681
0.000272235
0.000320569
6.83807e-05
0.000413486
0.000412987
0.000135199
0.000293646
7.16603e-05
0.000314809
0.000119862
0.000117751
7.16012e-05
0.00040499
0.000121038
0.000265599
0.000312806
0.000129764
7.07396e-05
0.000176017
0.000175957
0.000265513
0.00030381
0.000263514
0.000127406
6.85802e-05
0.000267928
0.000141504
7.92052e-05
0.000388274
0.000416927
0.000123221
0.000264843
7.34279e-05
0.000333081
0.000267548
0.00032056
8.76932e-05
0.000176776
0.00030906
0.000299628
0.000281882
0.000125994
0.000412916
0.000412027
0.000149565
0.000275415
0.000121179
0.000123038
0.000277275
0.000137257
7.42116e-05
0.000280425
0.000132166
6.85331e-05
0.000408143
0.000413041
0.000271769
0.000131891
0.000266951
0.000136239
)
;
        value           nonuniform List<scalar> 
360
(
458.186
458.187
458.192
458.172
458.173
458.207
458.173
458.178
458.167
458.181
458.182
458.202
458.209
458.19
458.185
458.172
458.155
458.157
458.141
458.181
458.161
458.174
458.159
458.171
458.189
458.17
458.207
458.171
458.163
458.175
458.171
458.169
458.19
458.19
458.201
458.204
458.157
458.143
458.158
458.141
458.142
458.173
458.193
458.186
458.187
458.206
458.212
458.192
458.186
458.175
458.208
458.207
458.209
458.21
458.178
458.17
458.157
458.181
458.192
458.202
458.177
458.171
458.175
458.163
458.193
458.175
458.187
458.173
458.174
458.169
458.178
458.169
458.168
458.193
458.173
458.187
458.189
458.16
458.143
458.141
458.161
458.16
458.161
458.178
458.193
458.206
458.204
458.209
458.186
458.181
458.191
458.211
458.207
458.189
458.211
458.206
458.203
458.199
458.18
458.194
458.193
458.194
458.207
458.207
458.211
458.192
458.188
458.208
458.177
458.198
458.204
458.199
458.18
458.18
458.194
458.194
458.175
458.174
458.174
458.186
458.188
458.176
458.162
458.176
458.163
458.176
458.162
458.171
458.176
458.164
458.173
458.175
458.175
458.175
458.194
458.177
458.167
458.188
458.188
458.167
458.177
458.187
458.187
458.167
458.177
458.17
458.194
458.188
458.166
458.147
458.155
458.165
458.145
458.156
458.156
458.158
458.183
458.146
458.17
458.189
458.147
458.159
458.159
458.159
458.158
458.172
458.168
458.14
458.156
458.15
458.175
458.142
458.168
458.141
458.156
458.175
458.149
458.159
458.158
458.192
458.207
458.206
458.213
458.191
458.213
458.207
458.193
458.193
458.162
458.175
458.162
458.174
458.185
458.187
458.162
458.177
458.17
458.187
458.186
458.193
458.206
458.207
458.211
458.208
458.207
458.212
458.178
458.209
458.198
458.18
458.158
458.209
458.199
458.18
458.143
458.158
458.151
458.172
458.171
458.177
458.192
458.192
458.201
458.151
458.173
458.201
458.193
458.16
458.155
458.172
458.179
458.167
458.176
458.192
458.212
458.189
458.206
458.206
458.207
458.188
458.194
458.174
458.176
458.164
458.17
458.165
458.175
458.169
458.168
458.185
458.175
458.192
458.161
458.162
458.172
458.211
458.193
458.209
458.212
458.192
458.173
458.208
458.199
458.206
458.181
458.158
458.16
458.199
458.204
458.18
458.159
458.157
458.169
458.155
458.177
458.142
458.144
458.152
458.201
458.174
458.152
458.194
458.194
458.194
458.155
458.176
458.154
458.173
458.16
458.17
458.157
458.142
458.144
458.192
458.175
458.176
458.176
458.186
458.164
458.185
458.174
458.172
458.193
458.162
458.162
458.185
458.172
458.192
458.169
458.174
458.174
458.195
458.17
458.19
458.179
458.175
458.189
458.195
458.208
458.208
458.212
458.172
458.179
458.188
458.194
458.176
458.185
458.191
458.15
458.149
458.185
458.171
458.189
458.155
458.209
458.155
458.179
458.199
458.158
458.159
458.168
458.183
458.147
458.147
458.18
458.168
458.161
458.161
458.157
458.169
458.177
458.159
458.173
458.181
458.144
458.143
458.158
458.17
458.16
458.172
)
;
        Tnbr            T;
        thicknessLayers 0();
        kappaLayers     0();
        kappaMethod     solidThermo;
        kappa           none;
        alphaAni        none;
    }
}


// ************************************************************************* //
