/*--------------------------------*- C++ -*----------------------------------*\
| =========                 |                                                 |
| \\      /  F ield         | OpenFOAM: The Open Source CFD Toolbox           |
|  \\    /   O peration     | Version:  v1906                                 |
|   \\  /    A nd           | Web:      www.OpenFOAM.com                      |
|    \\/     M anipulation  |                                                 |
\*---------------------------------------------------------------------------*/
FoamFile
{
    version     2.0;
    format      ascii;
    class       volScalarField;
    location    "55.2/sphere";
    object      T;
}
// * * * * * * * * * * * * * * * * * * * * * * * * * * * * * * * * * * * * * //

dimensions      [0 0 0 1 0 0 0];


internalField   nonuniform List<scalar> 
304
(
470.248
470.276
470.273
470.289
470.248
470.242
470.246
470.275
470.246
470.392
470.392
470.289
470.272
470.389
470.389
470.317
470.282
470.314
470.242
470.274
470.29
470.246
470.277
470.392
470.391
470.319
470.29
470.389
470.389
470.343
470.24
470.313
470.341
470.276
470.247
470.291
470.318
470.252
470.251
470.317
470.343
470.278
470.242
470.276
470.229
470.235
470.248
470.248
470.25
470.282
470.248
470.248
470.282
470.25
470.235
470.249
470.252
470.249
470.283
470.276
470.276
470.291
470.29
470.32
470.319
470.344
470.247
470.291
470.276
470.319
470.29
470.344
470.319
470.249
470.252
470.283
470.25
470.244
470.244
470.278
470.241
470.289
470.238
470.27
470.315
470.342
470.281
470.313
470.274
470.271
470.241
470.342
470.317
470.314
470.283
470.28
470.246
470.242
470.227
470.24
470.24
470.274
470.24
470.275
470.241
470.24
470.227
470.249
470.246
470.247
470.281
470.275
470.288
470.319
470.274
470.291
470.318
470.345
470.247
470.319
470.289
470.291
470.275
470.345
470.318
470.249
470.247
470.281
470.248
470.289
470.276
470.319
470.276
470.319
470.291
470.344
470.246
470.319
470.277
470.319
470.276
470.344
470.291
470.315
470.239
470.282
470.289
470.342
470.271
470.314
470.274
470.283
470.241
470.343
470.29
470.315
470.271
470.242
470.24
470.275
470.241
470.313
470.241
470.271
470.314
470.341
470.27
470.288
470.282
470.271
470.24
470.341
470.313
470.288
470.271
470.275
470.24
470.24
470.245
470.248
470.282
470.252
470.29
470.319
470.345
470.245
470.274
470.289
470.319
470.274
470.344
470.318
470.275
470.243
470.318
470.286
470.281
470.247
470.247
470.32
470.291
470.344
470.25
470.292
470.278
470.32
470.276
470.344
470.291
470.289
470.248
470.319
470.276
470.343
470.271
470.314
470.276
470.318
470.242
470.284
470.29
470.315
470.272
470.316
470.274
470.283
470.241
470.274
470.241
470.242
470.341
470.271
470.288
470.283
470.314
470.241
470.272
470.314
470.288
470.272
470.315
470.284
470.272
470.243
470.242
470.241
470.243
470.238
470.245
470.25
470.281
470.246
470.28
470.248
470.246
470.234
470.254
470.25
470.284
470.251
470.319
470.32
470.344
470.25
470.276
470.277
470.291
470.289
470.344
470.319
470.275
470.246
470.291
470.276
470.283
470.249
470.248
470.281
470.244
470.247
470.343
470.283
470.314
470.274
470.289
470.24
470.271
470.316
470.315
470.283
470.289
470.273
470.271
470.241
470.245
470.242
470.244
470.23
470.275
470.242
470.241
470.243
470.242
470.241
)
;

boundaryField
{
    sphere_to_oil
    {
        type            compressible::turbulentTemperatureCoupledBaffleMixed;
        refValue        nonuniform List<scalar> 
360
(
337.416
337.416
322.02
360.549
368.933
324.102
370.018
370.018
370.018
346.616
346.616
327.065
330.868
319.427
345.218
357.88
354.317
354.317
354.317
321.517
353.039
330.188
333.036
363.15
316.837
363.456
322.011
363.338
363.338
363.338
370.718
362.396
322.004
321.652
326.841
326.972
355.289
355.289
355.289
354.559
360.92
327.986
327.209
337.797
337.797
321.848
329.149
314.205
336.345
363.823
324.055
324.13
330.337
330.793
321.328
330.023
355.035
321.64
327.306
332.638
319.944
364.604
364.604
364.604
314.243
363.109
336.257
325.516
368.538
368.538
368.538
369.459
367.975
318.606
352.955
344.509
320.449
332.064
360.916
355.407
333.884
325.261
333.466
319.821
321.968
323.776
327.155
330.669
320.026
321.735
322.107
329.949
326.854
322.327
329.686
326.907
327.261
327.273
323.393
316.712
316.809
321.059
324.073
326.871
329.927
320.914
319.367
330.836
323.21
327.297
327.277
327.145
323.375
321.469
314.472
314.428
330.226
325.608
331.527
337.167
337.167
360.549
360.549
363.15
363.15
361.233
361.233
361.233
362.56
362.56
362.56
330.781
325.83
330.193
322.037
368.933
368.933
342.841
342.841
370.718
370.718
341.735
341.735
369.932
369.932
369.932
321.762
321.037
358.362
358.362
358.362
358.202
358.202
358.202
357.88
353.039
345.218
357.88
357.35
320.896
357.35
357.35
333.065
333.788
325.37
330.204
330.204
362.384
362.384
362.384
320.041
353.039
330.188
361.389
361.389
319.882
361.389
333.703
325.249
314.279
321.99
322.299
329.667
316.729
329.188
322.261
314.319
316.727
363.456
363.456
362.396
362.396
338.086
338.086
360.598
360.598
360.598
336.169
336.169
316.564
326.47
324.318
330.12
326.622
323.839
330.025
323.137
330.912
327.331
323.08
354.559
330.833
327.522
321.625
361.803
361.803
361.803
330.919
330.919
319.904
327.401
327.282
332.522
360.92
327.895
332.39
327.513
354.559
360.92
330.744
321.616
330.744
320.28
314.417
329.079
316.792
322.174
322.053
322.315
316.601
316.387
364.539
359.462
364.539
364.539
359.462
359.462
363.823
363.109
336.345
361.972
316.651
363.823
361.972
361.972
329.466
321.622
326.684
329.871
322.315
369.459
326.694
327.119
327.202
323.333
355.035
352.955
327.338
327.115
323.301
354.535
357.409
330.023
361.327
320.076
355.035
361.327
361.327
333.02
327.878
360.916
327.366
327.284
327.135
361.299
327.649
361.018
330.625
354.535
330.625
361.299
354.535
361.299
314.17
325.666
329.686
329.909
336.775
360.659
336.775
360.659
360.659
316.582
363.109
361.74
336.257
361.74
316.559
361.74
330.925
330.528
320.438
367.516
342.424
367.516
367.516
342.424
320.924
323.8
326.58
329.857
367.975
369.459
341.971
321.697
367.975
341.971
320.974
352.955
358.153
344.509
358.153
319.703
358.153
330.96
355.407
323.425
327.503
357.23
355.006
357.409
344.168
357.409
357.23
344.168
357.23
324.918
333.298
360.916
330.168
319.912
355.407
330.168
321.841
361.018
355.006
361.018
330.576
355.006
330.576
)
;
        refGradient     uniform 0;
        valueFraction   nonuniform List<scalar> 
360
(
0.000135704
0.00013019
8.33486e-05
0.000297754
0.000305374
0.000175106
0.000307271
0.000263752
0.00041054
0.000130714
0.000127444
0.00017097
0.000260564
7.4501e-05
0.000133271
0.000259066
0.000296884
0.000277396
0.000389248
6.81729e-05
0.000255575
0.000125643
0.000115799
0.00030729
8.92183e-05
0.000315859
0.000178045
0.00031178
0.000408023
0.000272941
0.00031183
0.000314516
8.44545e-05
8.3511e-05
0.000175252
0.000172465
0.000291832
0.000395637
0.000271678
0.000408491
0.000403503
8.61593e-05
0.000170898
0.000124728
0.000124578
0.000175925
0.000263201
7.0221e-05
0.000125648
0.000266432
0.000173547
0.000174675
0.00026037
0.00025784
7.28465e-05
0.000133263
0.000271759
6.9785e-05
0.00017288
0.0002578
6.83071e-05
0.000303494
0.000267912
0.00041931
7.04218e-05
0.00027393
0.000127777
0.000123586
0.000310505
0.000405065
0.000272477
0.000390612
0.00039608
7.56471e-05
0.000264094
0.000133975
6.97444e-05
0.000125063
0.000395247
0.000410591
0.000122663
0.000120349
0.000118208
7.02528e-05
8.47168e-05
0.000171753
0.000172715
0.000261558
7.89543e-05
6.66657e-05
8.38423e-05
0.000261132
0.000172388
8.56455e-05
0.000260701
0.000174356
0.000173325
0.000173592
8.46515e-05
6.78527e-05
6.88045e-05
6.78887e-05
0.000174529
0.000171538
0.000260935
7.68228e-05
6.67288e-05
0.000260746
8.28345e-05
0.000171809
0.000171841
0.000175346
8.57425e-05
6.86587e-05
6.69597e-05
6.82533e-05
0.000118805
0.000118947
0.000123568
0.000133992
0.000125934
0.00026021
0.000409912
0.000274149
0.000413682
0.000265172
0.000407681
0.000303542
0.000265386
0.000398807
0.000298941
0.000121934
0.000115312
0.000118109
6.52001e-05
0.000270404
0.000407125
0.000125964
0.000126539
0.000411437
0.000273557
0.000132046
0.00013917
0.000406372
0.000279162
0.000321677
7.17567e-05
6.67775e-05
0.000281854
0.00039058
0.000309593
0.000290205
0.000404103
0.000309561
0.000319613
0.000294403
0.000137713
0.00041048
0.000265145
7.39231e-05
0.00039896
0.000298553
0.000113935
0.000120036
0.00011875
0.000125275
0.000130953
0.000408428
0.000268927
0.000315663
7.56869e-05
0.000392891
0.000134721
0.000413134
0.000264475
7.39297e-05
0.000313588
0.000114947
0.000116013
6.77818e-05
0.000177664
0.000177594
0.000262601
8.75695e-05
0.000262997
0.000173048
6.70858e-05
6.51425e-05
0.000410962
0.000261122
0.000406138
0.000270777
0.00012916
0.000120789
0.000408032
0.000255016
0.000294774
0.000119396
0.000138536
6.96963e-05
0.000174541
0.000174383
0.000260542
0.000170595
0.000171474
0.000259516
8.89503e-05
0.000260406
0.000176566
8.65016e-05
0.000293105
0.000260118
0.000175508
6.99452e-05
0.000399122
0.000258744
0.000302732
0.000126122
0.000117206
6.77013e-05
0.000173185
0.000176098
0.000261098
0.000296855
8.30249e-05
0.00025862
0.000168906
0.000256911
0.000271978
0.00012346
6.93454e-05
0.000136998
7.02029e-05
6.60822e-05
0.000264012
8.81064e-05
0.000177491
0.000175439
0.000173348
8.69989e-05
6.64551e-05
0.000269939
0.000252939
0.000424626
0.000316071
0.000396153
0.000284636
0.000305079
0.000312358
0.000138843
0.000267964
7.2196e-05
0.000407774
0.0003965
0.000301256
0.000262756
8.37239e-05
0.00017097
0.000259735
8.44737e-05
0.000309491
0.00017171
0.000172938
0.000171345
8.39627e-05
0.000307186
0.00028786
0.000174815
0.000170295
8.55793e-05
0.000288427
0.000317481
0.000125909
0.000284997
6.76861e-05
0.000406034
0.00039365
0.000297446
0.000257809
8.46926e-05
0.000297914
0.000171543
0.000171807
0.000172785
0.000299536
8.54861e-05
0.000306037
0.000128774
0.000263862
0.000129849
0.000268883
0.000409759
0.000402266
6.76537e-05
0.000135571
0.00013397
0.000131035
0.000119331
0.000399236
0.000130333
0.000265417
0.000312541
6.66677e-05
0.000403133
0.000402646
0.000131812
0.000286292
6.98651e-05
0.000306926
0.000116859
0.000114802
6.98073e-05
0.000394848
0.000118005
0.000258947
0.000304972
0.000126513
6.89673e-05
0.000171608
0.000171549
0.000258863
0.000296201
0.000256914
0.000124214
6.6862e-05
0.000261217
0.000137959
7.72208e-05
0.000378546
0.000406482
0.000120134
0.000258208
7.1588e-05
0.000324737
0.000260847
0.000312529
8.54957e-05
0.000172346
0.000301317
0.000292121
0.000274821
0.000122838
0.000402571
0.000401705
0.000145818
0.000268516
0.000118141
0.000119954
0.000270325
0.000133817
7.23511e-05
0.000273398
0.000128854
6.68154e-05
0.000397913
0.00040269
0.000264957
0.000128584
0.000260262
0.000132825
)
;
        value           nonuniform List<scalar> 
360
(
470.249
470.25
470.255
470.235
470.236
470.27
470.236
470.242
470.23
470.247
470.248
470.267
470.272
470.256
470.25
470.238
470.223
470.227
470.214
470.251
470.231
470.244
470.23
470.232
470.251
470.231
470.268
470.233
470.225
470.237
470.234
470.232
470.253
470.253
470.266
470.269
470.225
470.216
470.229
470.214
470.217
470.248
470.266
470.248
470.25
470.267
470.273
470.254
470.248
470.237
470.271
470.27
470.273
470.273
470.248
470.24
470.228
470.251
470.265
470.272
470.25
470.233
470.236
470.225
470.255
470.237
470.249
470.235
470.237
470.232
470.242
470.232
470.231
470.258
470.239
470.253
470.254
470.232
470.218
470.214
470.232
470.231
470.232
470.251
470.257
470.269
470.269
470.272
470.252
470.25
470.254
470.274
470.271
470.252
470.274
470.27
470.268
470.266
470.248
470.257
470.257
470.258
470.27
470.271
470.273
470.257
470.254
470.272
470.245
470.265
470.269
470.265
470.247
470.249
470.257
470.256
470.238
470.237
470.237
470.249
470.25
470.239
470.224
470.238
470.225
470.238
470.225
470.234
470.238
470.226
470.234
470.237
470.238
470.238
470.259
470.241
470.23
470.252
470.252
470.23
470.241
470.251
470.251
470.23
470.241
470.233
470.258
470.254
470.232
470.216
470.222
470.231
470.215
470.224
470.224
470.226
470.248
470.215
470.236
470.255
470.216
470.226
470.231
470.23
470.229
470.242
470.241
470.215
470.231
470.226
470.248
470.215
470.241
470.216
470.231
470.248
470.225
470.23
470.229
470.254
470.268
470.267
470.273
470.252
470.273
470.269
470.256
470.256
470.224
470.237
470.224
470.237
470.248
470.25
470.224
470.239
470.233
470.25
470.249
470.256
470.27
470.27
470.274
470.271
470.27
470.274
470.245
470.272
470.265
470.247
470.226
470.273
470.266
470.249
470.218
470.232
470.227
470.242
470.244
470.25
470.265
470.265
470.271
470.227
470.247
470.271
470.266
470.23
470.23
470.242
470.249
470.24
470.249
470.254
470.272
470.251
470.267
470.267
470.268
470.249
470.257
470.236
470.239
470.226
470.231
470.227
470.238
470.23
470.229
470.247
470.237
470.255
470.223
470.224
470.235
470.274
470.257
470.272
470.274
470.255
470.236
470.271
470.266
470.271
470.249
470.226
470.227
470.266
470.269
470.247
470.227
470.224
470.242
470.229
470.25
470.215
470.219
470.228
470.272
470.248
470.228
470.266
470.267
470.267
470.23
470.251
470.229
470.243
470.23
470.242
470.231
470.215
470.219
470.254
470.238
470.239
470.239
470.249
470.226
470.248
470.237
470.235
470.256
470.224
470.223
470.248
470.234
470.255
470.232
470.237
470.237
470.259
470.233
470.255
470.243
470.238
470.254
470.26
470.271
470.272
470.274
470.235
470.243
470.253
470.259
470.24
470.249
470.256
470.219
470.218
470.251
470.237
470.255
470.223
470.272
470.223
470.247
470.266
470.226
470.226
470.233
470.249
470.216
470.216
470.245
470.233
470.232
470.232
470.231
470.242
470.25
470.229
470.243
470.251
470.219
470.216
470.232
470.243
470.23
470.242
)
;
        Tnbr            T;
        thicknessLayers 0();
        kappaLayers     0();
        kappaMethod     solidThermo;
        kappa           none;
        alphaAni        none;
    }
}


// ************************************************************************* //
