/*--------------------------------*- C++ -*----------------------------------*\
| =========                 |                                                 |
| \\      /  F ield         | OpenFOAM: The Open Source CFD Toolbox           |
|  \\    /   O peration     | Version:  v1912                                 |
|   \\  /    A nd           | Website:  www.openfoam.com                      |
|    \\/     M anipulation  |                                                 |
\*---------------------------------------------------------------------------*/
FoamFile
{
    version     2.0;
    format      ascii;
    class       volScalarField;
    location    "22.5/sphere";
    object      ddt0((betavSolid*thermo:rho),h);
}
// * * * * * * * * * * * * * * * * * * * * * * * * * * * * * * * * * * * * * //

dimensions      [1 -1 -3 0 0 0 0];


internalField   nonuniform List<scalar> 
1992
(
-4.5884e+06
-4.59078e+06
-4.59051e+06
-4.59539e+06
-4.58913e+06
-4.58901e+06
-4.59081e+06
-4.60542e+06
-4.60854e+06
-4.59967e+06
-4.59037e+06
-4.60836e+06
-4.61139e+06
-4.60289e+06
-4.59821e+06
-4.60267e+06
-4.59579e+06
-4.59065e+06
-4.59539e+06
-4.58931e+06
-4.5905e+06
-4.60841e+06
-4.61145e+06
-4.60295e+06
-4.59478e+06
-4.61127e+06
-4.61429e+06
-4.60587e+06
-4.59048e+06
-4.58876e+06
-4.60254e+06
-4.6056e+06
-4.60033e+06
-4.59007e+06
-4.5892e+06
-4.59938e+06
-4.60283e+06
-4.59518e+06
-4.58887e+06
-4.6026e+06
-4.60572e+06
-4.60036e+06
-4.59474e+06
-4.60023e+06
-4.59223e+06
-4.59025e+06
-4.59026e+06
-4.59026e+06
-4.59007e+06
-4.59025e+06
-4.5886e+06
-4.59541e+06
-4.59085e+06
-4.60286e+06
-4.59963e+06
-4.60577e+06
-4.60288e+06
-4.59958e+06
-4.60575e+06
-4.60285e+06
-4.59078e+06
-4.58851e+06
-4.59539e+06
-4.5908e+06
-4.60282e+06
-4.60274e+06
-4.59949e+06
-4.59538e+06
-4.59077e+06
-4.59071e+06
-4.58847e+06
-4.59007e+06
-4.59006e+06
-4.58999e+06
-4.58988e+06
-4.58939e+06
-4.58989e+06
-4.59001e+06
-4.58941e+06
-4.5899e+06
-4.59001e+06
-4.58941e+06
-4.59007e+06
-4.59174e+06
-4.58912e+06
-4.58919e+06
-4.59497e+06
-4.60036e+06
-4.58914e+06
-4.58925e+06
-4.60039e+06
-4.59521e+06
-4.59239e+06
-4.58897e+06
-4.59491e+06
-4.58889e+06
-4.6002e+06
-4.59067e+06
-4.59053e+06
-4.59512e+06
-4.59941e+06
-4.60276e+06
-4.60267e+06
-4.60563e+06
-4.59021e+06
-4.5926e+06
-4.59197e+06
-4.59719e+06
-4.59573e+06
-4.5945e+06
-4.59782e+06
-4.58914e+06
-4.59518e+06
-4.6004e+06
-4.58916e+06
-4.58895e+06
-4.58888e+06
-4.60018e+06
-4.59482e+06
-4.5951e+06
-4.58832e+06
-4.59057e+06
-4.60263e+06
-4.60558e+06
-4.59932e+06
-4.60264e+06
-4.59081e+06
-4.59068e+06
-4.58843e+06
-4.60573e+06
-4.60285e+06
-4.60274e+06
-4.59951e+06
-4.60038e+06
-4.58914e+06
-4.59508e+06
-4.59154e+06
-4.58896e+06
-4.59474e+06
-4.6002e+06
-4.58894e+06
-4.60023e+06
-4.59504e+06
-4.58898e+06
-4.5922e+06
-4.59028e+06
-4.59039e+06
-4.5949e+06
-4.5891e+06
-4.58896e+06
-4.60026e+06
-4.59075e+06
-4.59838e+06
-4.60275e+06
-4.59066e+06
-4.59521e+06
-4.60271e+06
-4.60564e+06
-4.58869e+06
-4.60286e+06
-4.59968e+06
-4.59538e+06
-4.59097e+06
-4.60578e+06
-4.60295e+06
-4.59596e+06
-4.58929e+06
-4.60049e+06
-4.58923e+06
-4.58987e+06
-4.59834e+06
-4.59041e+06
-4.60258e+06
-4.59048e+06
-4.60262e+06
-4.5948e+06
-4.60545e+06
-4.5886e+06
-4.60292e+06
-4.59087e+06
-4.60296e+06
-4.59091e+06
-4.60591e+06
-4.59572e+06
-4.5905e+06
-4.58985e+06
-4.60255e+06
-4.59825e+06
-4.59478e+06
-4.60541e+06
-4.59034e+06
-4.60253e+06
-4.59082e+06
-4.59959e+06
-4.5885e+06
-4.60587e+06
-4.5957e+06
-4.60287e+06
-4.59081e+06
-4.59049e+06
-4.59477e+06
-4.58877e+06
-4.60012e+06
-4.58884e+06
-4.60258e+06
-4.59048e+06
-4.60254e+06
-4.60547e+06
-4.59039e+06
-4.59493e+06
-4.59949e+06
-4.59054e+06
-4.58842e+06
-4.6056e+06
-4.60276e+06
-4.59511e+06
-4.59072e+06
-4.60033e+06
-4.5891e+06
-4.58903e+06
-4.58998e+06
-4.59008e+06
-4.59029e+06
-4.59039e+06
-4.58909e+06
-4.58892e+06
-4.60025e+06
-4.59486e+06
-4.59522e+06
-4.60269e+06
-4.60564e+06
-4.59074e+06
-4.59834e+06
-4.60274e+06
-4.59097e+06
-4.60577e+06
-4.60293e+06
-4.59078e+06
-4.5886e+06
-4.60284e+06
-4.59965e+06
-4.60048e+06
-4.58924e+06
-4.59593e+06
-4.58988e+06
-4.60261e+06
-4.5948e+06
-4.60545e+06
-4.59833e+06
-4.59042e+06
-4.60259e+06
-4.59095e+06
-4.6059e+06
-4.59571e+06
-4.59964e+06
-4.5886e+06
-4.6029e+06
-4.59085e+06
-4.5905e+06
-4.58983e+06
-4.60541e+06
-4.59035e+06
-4.60251e+06
-4.59039e+06
-4.60255e+06
-4.59819e+06
-4.5957e+06
-4.60287e+06
-4.59082e+06
-4.60287e+06
-4.59085e+06
-4.59957e+06
-4.58845e+06
-4.60011e+06
-4.58885e+06
-4.59469e+06
-4.60547e+06
-4.59038e+06
-4.59491e+06
-4.59819e+06
-4.60258e+06
-4.59047e+06
-4.60277e+06
-4.59509e+06
-4.59071e+06
-4.60267e+06
-4.59949e+06
-4.59053e+06
-4.58839e+06
-4.5891e+06
-4.58902e+06
-4.59581e+06
-4.58995e+06
-4.59166e+06
-4.58917e+06
-4.59488e+06
-4.60034e+06
-4.58908e+06
-4.60037e+06
-4.59519e+06
-4.58915e+06
-4.59236e+06
-4.59491e+06
-4.58888e+06
-4.60019e+06
-4.58897e+06
-4.60273e+06
-4.60264e+06
-4.6056e+06
-4.58838e+06
-4.59068e+06
-4.59053e+06
-4.59511e+06
-4.60037e+06
-4.58913e+06
-4.58913e+06
-4.60017e+06
-4.59475e+06
-4.58895e+06
-4.60557e+06
-4.59928e+06
-4.60264e+06
-4.59051e+06
-4.59508e+06
-4.58834e+06
-4.59057e+06
-4.58915e+06
-4.59508e+06
-4.5891e+06
-4.5915e+06
-4.6002e+06
-4.58891e+06
-4.58897e+06
-4.59503e+06
-4.58897e+06
-4.58902e+06
-4.58885e+06
-4.58839e+06
-4.58824e+06
-4.58882e+06
-4.58842e+06
-4.58897e+06
-4.58844e+06
-4.58895e+06
-4.5884e+06
-4.58894e+06
-4.58836e+06
-4.58882e+06
-4.58836e+06
-4.58834e+06
-4.58829e+06
-4.58945e+06
-4.58934e+06
-4.58845e+06
-4.58998e+06
-4.58984e+06
-4.58935e+06
-4.58893e+06
-4.58834e+06
-4.58877e+06
-4.5883e+06
-4.58941e+06
-4.58938e+06
-4.59087e+06
-4.59578e+06
-4.59115e+06
-4.59311e+06
-4.59312e+06
-4.59019e+06
-4.59276e+06
-4.59198e+06
-4.59721e+06
-4.59579e+06
-4.59448e+06
-4.59794e+06
-4.59018e+06
-4.59258e+06
-4.59192e+06
-4.59714e+06
-4.5957e+06
-4.59447e+06
-4.59778e+06
-4.58938e+06
-4.58937e+06
-4.59084e+06
-4.59572e+06
-4.5911e+06
-4.59308e+06
-4.59305e+06
-4.59016e+06
-4.5927e+06
-4.59197e+06
-4.59716e+06
-4.59574e+06
-4.59446e+06
-4.59788e+06
-4.59265e+06
-4.59014e+06
-4.59191e+06
-4.59712e+06
-4.59572e+06
-4.59786e+06
-4.59445e+06
-4.59257e+06
-4.59009e+06
-4.59188e+06
-4.59707e+06
-4.5956e+06
-4.59771e+06
-4.59437e+06
-4.58931e+06
-4.5893e+06
-4.59075e+06
-4.59566e+06
-4.59103e+06
-4.59305e+06
-4.593e+06
-4.58843e+06
-4.58824e+06
-4.58946e+06
-4.58933e+06
-4.58844e+06
-4.58943e+06
-4.58932e+06
-4.58839e+06
-4.58837e+06
-4.5892e+06
-4.58918e+06
-4.59051e+06
-4.59543e+06
-4.59094e+06
-4.59293e+06
-4.59289e+06
-4.58902e+06
-4.59042e+06
-4.58864e+06
-4.59196e+06
-4.59667e+06
-4.58988e+06
-4.59546e+06
-4.59124e+06
-4.59744e+06
-4.59416e+06
-4.58857e+06
-4.59257e+06
-4.58931e+06
-4.58959e+06
-4.59175e+06
-4.58842e+06
-4.58881e+06
-4.59017e+06
-4.5885e+06
-4.58924e+06
-4.5924e+06
-4.59167e+06
-4.58946e+06
-4.59452e+06
-4.58879e+06
-4.59042e+06
-4.58879e+06
-4.59236e+06
-4.59018e+06
-4.59239e+06
-4.59703e+06
-4.59021e+06
-4.59569e+06
-4.59226e+06
-4.5945e+06
-4.59163e+06
-4.59768e+06
-4.58876e+06
-4.58908e+06
-4.59054e+06
-4.59438e+06
-4.59029e+06
-4.58858e+06
-4.58857e+06
-4.59217e+06
-4.59226e+06
-4.58999e+06
-4.59641e+06
-4.59532e+06
-4.58965e+06
-4.59183e+06
-4.59395e+06
-4.59726e+06
-4.591e+06
-4.58901e+06
-4.58843e+06
-4.58832e+06
-4.5885e+06
-4.58997e+06
-4.59099e+06
-4.59202e+06
-4.59196e+06
-4.598e+06
-4.58945e+06
-4.59425e+06
-4.59418e+06
-4.58831e+06
-4.59661e+06
-4.59214e+06
-4.59551e+06
-4.58994e+06
-4.5975e+06
-4.59131e+06
-4.59414e+06
-4.59852e+06
-4.59478e+06
-4.60001e+06
-4.59398e+06
-4.59938e+06
-4.59326e+06
-4.59916e+06
-4.58949e+06
-4.5927e+06
-4.58872e+06
-4.58974e+06
-4.59192e+06
-4.59647e+06
-4.59541e+06
-4.59191e+06
-4.5898e+06
-4.59735e+06
-4.59403e+06
-4.59111e+06
-4.5891e+06
-4.58857e+06
-4.59782e+06
-4.59949e+06
-4.59343e+06
-4.59344e+06
-4.59866e+06
-4.59866e+06
-4.59224e+06
-4.59012e+06
-4.59011e+06
-4.58949e+06
-4.58905e+06
-4.59222e+06
-4.58823e+06
-4.58932e+06
-4.5914e+06
-4.58818e+06
-4.58979e+06
-4.58938e+06
-4.5889e+06
-4.58859e+06
-4.58875e+06
-4.5902e+06
-4.58945e+06
-4.58873e+06
-4.59256e+06
-4.59185e+06
-4.58966e+06
-4.58846e+06
-4.58867e+06
-4.59009e+06
-4.59798e+06
-4.5917e+06
-4.59426e+06
-4.59103e+06
-4.59178e+06
-4.59426e+06
-4.58904e+06
-4.58911e+06
-4.59225e+06
-4.58837e+06
-4.59151e+06
-4.58939e+06
-4.59077e+06
-4.59775e+06
-4.59126e+06
-4.59138e+06
-4.59389e+06
-4.59401e+06
-4.58871e+06
-4.58908e+06
-4.58967e+06
-4.58968e+06
-4.58845e+06
-4.58828e+06
-4.58932e+06
-4.5894e+06
-4.5884e+06
-4.58832e+06
-4.58903e+06
-4.58904e+06
-4.58898e+06
-4.58865e+06
-4.58892e+06
-4.59038e+06
-4.58859e+06
-4.59251e+06
-4.58937e+06
-4.58963e+06
-4.59174e+06
-4.58859e+06
-4.58882e+06
-4.59024e+06
-4.58938e+06
-4.58862e+06
-4.59254e+06
-4.58966e+06
-4.59171e+06
-4.59095e+06
-4.59156e+06
-4.59148e+06
-4.59793e+06
-4.58895e+06
-4.59418e+06
-4.59408e+06
-4.5886e+06
-4.59256e+06
-4.59184e+06
-4.58942e+06
-4.58965e+06
-4.58907e+06
-4.59049e+06
-4.5887e+06
-4.58947e+06
-4.58877e+06
-4.5926e+06
-4.58969e+06
-4.59189e+06
-4.58875e+06
-4.58911e+06
-4.59053e+06
-4.59173e+06
-4.59802e+06
-4.5943e+06
-4.59111e+06
-4.59184e+06
-4.5891e+06
-4.59433e+06
-4.58921e+06
-4.58982e+06
-4.58982e+06
-4.58863e+06
-4.58851e+06
-4.58888e+06
-4.59029e+06
-4.58845e+06
-4.58922e+06
-4.5924e+06
-4.59165e+06
-4.58944e+06
-4.58847e+06
-4.58866e+06
-4.59008e+06
-4.59084e+06
-4.5915e+06
-4.5914e+06
-4.59785e+06
-4.58884e+06
-4.59409e+06
-4.59397e+06
-4.58918e+06
-4.58836e+06
-4.59233e+06
-4.58943e+06
-4.59154e+06
-4.59213e+06
-4.59002e+06
-4.59562e+06
-4.59135e+06
-4.59762e+06
-4.5968e+06
-4.59431e+06
-4.58993e+06
-4.59197e+06
-4.59126e+06
-4.59675e+06
-4.59549e+06
-4.59425e+06
-4.59747e+06
-4.58859e+06
-4.59258e+06
-4.59179e+06
-4.58936e+06
-4.5896e+06
-4.5917e+06
-4.59799e+06
-4.59423e+06
-4.59104e+06
-4.59177e+06
-4.58902e+06
-4.59429e+06
-4.58865e+06
-4.58905e+06
-4.59047e+06
-4.58936e+06
-4.58864e+06
-4.59254e+06
-4.58959e+06
-4.59181e+06
-4.58915e+06
-4.5884e+06
-4.59238e+06
-4.58942e+06
-4.59158e+06
-4.58842e+06
-4.58879e+06
-4.59018e+06
-4.58913e+06
-4.59228e+06
-4.58832e+06
-4.5894e+06
-4.59146e+06
-4.58841e+06
-4.58848e+06
-4.58997e+06
-4.59074e+06
-4.59141e+06
-4.59777e+06
-4.5913e+06
-4.59399e+06
-4.5887e+06
-4.59389e+06
-4.59362e+06
-4.59374e+06
-4.59982e+06
-4.59808e+06
-4.59246e+06
-4.59889e+06
-4.59898e+06
-4.59533e+06
-4.58912e+06
-4.5891e+06
-4.59084e+06
-4.59045e+06
-4.59277e+06
-4.5928e+06
-4.5921e+06
-4.5967e+06
-4.58991e+06
-4.59552e+06
-4.59126e+06
-4.59754e+06
-4.59418e+06
-4.59272e+06
-4.59014e+06
-4.59578e+06
-4.59191e+06
-4.59791e+06
-4.59715e+06
-4.59448e+06
-4.59256e+06
-4.59005e+06
-4.59187e+06
-4.59708e+06
-4.59561e+06
-4.59772e+06
-4.59439e+06
-4.58931e+06
-4.58926e+06
-4.59075e+06
-4.59568e+06
-4.59103e+06
-4.59304e+06
-4.593e+06
-4.58858e+06
-4.58894e+06
-4.59037e+06
-4.58933e+06
-4.59253e+06
-4.58862e+06
-4.58959e+06
-4.59176e+06
-4.59097e+06
-4.59161e+06
-4.59792e+06
-4.59171e+06
-4.59421e+06
-4.58893e+06
-4.59421e+06
-4.5886e+06
-4.58897e+06
-4.59037e+06
-4.58891e+06
-4.58887e+06
-4.58884e+06
-4.58918e+06
-4.58841e+06
-4.59238e+06
-4.59159e+06
-4.58944e+06
-4.59073e+06
-4.59139e+06
-4.59773e+06
-4.59128e+06
-4.59395e+06
-4.58867e+06
-4.59386e+06
-4.58841e+06
-4.58857e+06
-4.59002e+06
-4.58917e+06
-4.59232e+06
-4.58839e+06
-4.58944e+06
-4.59151e+06
-4.58856e+06
-4.58893e+06
-4.59032e+06
-4.5909e+06
-4.59159e+06
-4.59785e+06
-4.59165e+06
-4.59415e+06
-4.58886e+06
-4.59411e+06
-4.58923e+06
-4.59237e+06
-4.58847e+06
-4.58945e+06
-4.59166e+06
-4.58852e+06
-4.5889e+06
-4.59027e+06
-4.58909e+06
-4.58966e+06
-4.58969e+06
-4.58845e+06
-4.58856e+06
-4.58846e+06
-4.58959e+06
-4.58953e+06
-4.58859e+06
-4.58863e+06
-4.58971e+06
-4.59012e+06
-4.58922e+06
-4.58912e+06
-4.58858e+06
-4.58854e+06
-4.58876e+06
-4.59019e+06
-4.58852e+06
-4.5887e+06
-4.59013e+06
-4.59087e+06
-4.59145e+06
-4.59142e+06
-4.59786e+06
-4.58888e+06
-4.59404e+06
-4.594e+06
-4.58932e+06
-4.5886e+06
-4.59246e+06
-4.5917e+06
-4.58957e+06
-4.58927e+06
-4.58845e+06
-4.59237e+06
-4.59159e+06
-4.58952e+06
-4.59665e+06
-4.59003e+06
-4.59561e+06
-4.5922e+06
-4.5942e+06
-4.59135e+06
-4.59759e+06
-4.59664e+06
-4.58996e+06
-4.5921e+06
-4.59553e+06
-4.5913e+06
-4.59424e+06
-4.5975e+06
-4.59813e+06
-4.59382e+06
-4.59375e+06
-4.59988e+06
-4.59257e+06
-4.59903e+06
-4.59897e+06
-4.59574e+06
-4.58948e+06
-4.5912e+06
-4.58951e+06
-4.59314e+06
-4.59085e+06
-4.59317e+06
-4.59852e+06
-4.59398e+06
-4.59478e+06
-4.60001e+06
-4.59323e+06
-4.59916e+06
-4.59938e+06
-4.59719e+06
-4.59029e+06
-4.59279e+06
-4.59588e+06
-4.59194e+06
-4.5946e+06
-4.59796e+06
-4.59121e+06
-4.59215e+06
-4.59215e+06
-4.59817e+06
-4.58962e+06
-4.59439e+06
-4.59442e+06
-4.58879e+06
-4.58905e+06
-4.59052e+06
-4.58948e+06
-4.58876e+06
-4.59266e+06
-4.59192e+06
-4.58972e+06
-4.58946e+06
-4.5887e+06
-4.59262e+06
-4.59187e+06
-4.5897e+06
-4.58811e+06
-4.58822e+06
-4.5892e+06
-4.58925e+06
-4.58829e+06
-4.59644e+06
-4.58975e+06
-4.59534e+06
-4.59184e+06
-4.594e+06
-4.59108e+06
-4.59727e+06
-4.59647e+06
-4.58978e+06
-4.59541e+06
-4.5919e+06
-4.59408e+06
-4.5911e+06
-4.59734e+06
-4.59789e+06
-4.59344e+06
-4.5935e+06
-4.59951e+06
-4.59231e+06
-4.59868e+06
-4.59873e+06
-4.59582e+06
-4.59117e+06
-4.58942e+06
-4.58946e+06
-4.59316e+06
-4.59318e+06
-4.59089e+06
-4.59726e+06
-4.59024e+06
-4.5958e+06
-4.59282e+06
-4.59455e+06
-4.59205e+06
-4.59799e+06
-4.59726e+06
-4.59026e+06
-4.59586e+06
-4.59282e+06
-4.59457e+06
-4.59201e+06
-4.59802e+06
-4.59877e+06
-4.59496e+06
-4.59497e+06
-4.60033e+06
-4.5937e+06
-4.59955e+06
-4.59956e+06
-4.58904e+06
-4.58848e+06
-4.58908e+06
-4.58848e+06
-4.59013e+06
-4.59016e+06
-4.58953e+06
-4.58814e+06
-4.58921e+06
-4.58916e+06
-4.58829e+06
-4.588e+06
-4.59436e+06
-4.5885e+06
-4.59014e+06
-4.58848e+06
-4.5921e+06
-4.58987e+06
-4.59216e+06
-4.59785e+06
-4.59348e+06
-4.59949e+06
-4.59341e+06
-4.59868e+06
-4.59228e+06
-4.59866e+06
-4.59639e+06
-4.58965e+06
-4.59181e+06
-4.5953e+06
-4.59098e+06
-4.59397e+06
-4.59725e+06
-4.5972e+06
-4.59578e+06
-4.59015e+06
-4.59274e+06
-4.59448e+06
-4.59796e+06
-4.59197e+06
-4.59573e+06
-4.58936e+06
-4.59107e+06
-4.58936e+06
-4.59306e+06
-4.59083e+06
-4.59304e+06
-4.59872e+06
-4.59494e+06
-4.60031e+06
-4.59493e+06
-4.59953e+06
-4.59367e+06
-4.59952e+06
-4.59719e+06
-4.59014e+06
-4.59275e+06
-4.59575e+06
-4.59195e+06
-4.59444e+06
-4.59794e+06
-4.59013e+06
-4.59012e+06
-4.58952e+06
-4.58901e+06
-4.58844e+06
-4.59069e+06
-4.59126e+06
-4.59132e+06
-4.59772e+06
-4.58869e+06
-4.59385e+06
-4.59387e+06
-4.58836e+06
-4.58857e+06
-4.59001e+06
-4.58909e+06
-4.5883e+06
-4.59224e+06
-4.59148e+06
-4.58934e+06
-4.58911e+06
-4.58832e+06
-4.59223e+06
-4.59145e+06
-4.58935e+06
-4.59432e+06
-4.59018e+06
-4.58852e+06
-4.5885e+06
-4.59216e+06
-4.59214e+06
-4.58991e+06
-4.59643e+06
-4.59539e+06
-4.58978e+06
-4.59196e+06
-4.59401e+06
-4.59737e+06
-4.59109e+06
-4.5964e+06
-4.58971e+06
-4.59531e+06
-4.59183e+06
-4.59397e+06
-4.59104e+06
-4.59727e+06
-4.59789e+06
-4.59361e+06
-4.59963e+06
-4.59351e+06
-4.5988e+06
-4.59237e+06
-4.59872e+06
-4.59678e+06
-4.59546e+06
-4.58993e+06
-4.59204e+06
-4.59421e+06
-4.59746e+06
-4.59137e+06
-4.59548e+06
-4.59096e+06
-4.58918e+06
-4.58922e+06
-4.59286e+06
-4.59292e+06
-4.59057e+06
-4.59828e+06
-4.59373e+06
-4.59977e+06
-4.59452e+06
-4.59893e+06
-4.59295e+06
-4.59914e+06
-4.59694e+06
-4.59002e+06
-4.59564e+06
-4.59257e+06
-4.59431e+06
-4.59169e+06
-4.59773e+06
-4.58859e+06
-4.58892e+06
-4.59036e+06
-4.58852e+06
-4.58888e+06
-4.59028e+06
-4.58927e+06
-4.58858e+06
-4.59247e+06
-4.5917e+06
-4.58951e+06
-4.58924e+06
-4.58846e+06
-4.59245e+06
-4.59166e+06
-4.58949e+06
-4.58829e+06
-4.5882e+06
-4.58935e+06
-4.58926e+06
-4.58838e+06
-4.58942e+06
-4.58981e+06
-4.58892e+06
-4.58882e+06
-4.58828e+06
-4.58848e+06
-4.58954e+06
-4.58963e+06
-4.58866e+06
-4.5885e+06
-4.59012e+06
-4.58971e+06
-4.58922e+06
-4.58911e+06
-4.58855e+06
-4.58854e+06
-4.5893e+06
-4.59244e+06
-4.58854e+06
-4.58956e+06
-4.59166e+06
-4.58924e+06
-4.59236e+06
-4.58834e+06
-4.58951e+06
-4.59157e+06
-4.58858e+06
-4.58879e+06
-4.59019e+06
-4.58849e+06
-4.58871e+06
-4.59013e+06
-4.59086e+06
-4.59783e+06
-4.59141e+06
-4.59141e+06
-4.59402e+06
-4.59398e+06
-4.58882e+06
-4.59812e+06
-4.59379e+06
-4.59988e+06
-4.59386e+06
-4.59897e+06
-4.59262e+06
-4.59903e+06
-4.59454e+06
-4.58874e+06
-4.58877e+06
-4.59038e+06
-4.59017e+06
-4.59234e+06
-4.59236e+06
-4.59666e+06
-4.59219e+06
-4.59003e+06
-4.59562e+06
-4.59134e+06
-4.59759e+06
-4.59423e+06
-4.59717e+06
-4.59279e+06
-4.59588e+06
-4.59026e+06
-4.59796e+06
-4.59193e+06
-4.59452e+06
-4.59703e+06
-4.59228e+06
-4.59019e+06
-4.59568e+06
-4.59161e+06
-4.59769e+06
-4.59447e+06
-4.59572e+06
-4.58945e+06
-4.58945e+06
-4.59118e+06
-4.59081e+06
-4.59315e+06
-4.59312e+06
-4.58946e+06
-4.59263e+06
-4.58872e+06
-4.5897e+06
-4.59187e+06
-4.58877e+06
-4.58906e+06
-4.59052e+06
-4.59117e+06
-4.59813e+06
-4.59215e+06
-4.5921e+06
-4.59438e+06
-4.59435e+06
-4.58961e+06
-4.58873e+06
-4.58901e+06
-4.5905e+06
-4.58821e+06
-4.58925e+06
-4.58922e+06
-4.58832e+06
-4.58815e+06
-4.59791e+06
-4.59351e+06
-4.59951e+06
-4.59347e+06
-4.59874e+06
-4.59236e+06
-4.5987e+06
-4.59438e+06
-4.58855e+06
-4.59028e+06
-4.58862e+06
-4.59223e+06
-4.58997e+06
-4.59224e+06
-4.59647e+06
-4.59183e+06
-4.58979e+06
-4.59536e+06
-4.5911e+06
-4.59729e+06
-4.59407e+06
-4.59726e+06
-4.59586e+06
-4.59285e+06
-4.59028e+06
-4.59802e+06
-4.59457e+06
-4.59207e+06
-4.59877e+06
-4.59499e+06
-4.60032e+06
-4.59496e+06
-4.59956e+06
-4.59374e+06
-4.59954e+06
-4.5958e+06
-4.58945e+06
-4.59113e+06
-4.58941e+06
-4.59317e+06
-4.5909e+06
-4.59312e+06
-4.59723e+06
-4.59278e+06
-4.59019e+06
-4.59579e+06
-4.59202e+06
-4.59797e+06
-4.59451e+06
-4.59017e+06
-4.59013e+06
-4.58956e+06
-4.58903e+06
-4.5885e+06
-4.58916e+06
-4.58917e+06
-4.58825e+06
-4.58803e+06
-4.58815e+06
-4.59636e+06
-4.59176e+06
-4.59529e+06
-4.58968e+06
-4.59724e+06
-4.59098e+06
-4.59392e+06
-4.59639e+06
-4.59183e+06
-4.59532e+06
-4.5897e+06
-4.59726e+06
-4.59101e+06
-4.59404e+06
-4.59425e+06
-4.58845e+06
-4.58853e+06
-4.59016e+06
-4.58984e+06
-4.59209e+06
-4.59216e+06
-4.59873e+06
-4.60031e+06
-4.59494e+06
-4.59494e+06
-4.59952e+06
-4.59953e+06
-4.59367e+06
-4.59719e+06
-4.59277e+06
-4.59575e+06
-4.59014e+06
-4.59795e+06
-4.59197e+06
-4.59443e+06
-4.5972e+06
-4.59279e+06
-4.59578e+06
-4.59018e+06
-4.59796e+06
-4.592e+06
-4.59445e+06
-4.59574e+06
-4.58933e+06
-4.58935e+06
-4.59107e+06
-4.59082e+06
-4.59306e+06
-4.59305e+06
-4.58902e+06
-4.58846e+06
-4.58902e+06
-4.58846e+06
-4.58907e+06
-4.59223e+06
-4.58835e+06
-4.58934e+06
-4.59148e+06
-4.58832e+06
-4.58853e+06
-4.58993e+06
-4.59067e+06
-4.59767e+06
-4.59123e+06
-4.59126e+06
-4.59382e+06
-4.59384e+06
-4.58864e+06
-4.58832e+06
-4.58858e+06
-4.58998e+06
-4.59644e+06
-4.59531e+06
-4.59181e+06
-4.58971e+06
-4.59728e+06
-4.59401e+06
-4.59104e+06
-4.59789e+06
-4.59961e+06
-4.59349e+06
-4.59355e+06
-4.59873e+06
-4.59877e+06
-4.59231e+06
-4.59434e+06
-4.58852e+06
-4.59018e+06
-4.5885e+06
-4.59217e+06
-4.58994e+06
-4.59212e+06
-4.59642e+06
-4.59191e+06
-4.59538e+06
-4.58973e+06
-4.59734e+06
-4.59105e+06
-4.59396e+06
-4.59826e+06
-4.59976e+06
-4.5945e+06
-4.59367e+06
-4.59913e+06
-4.59889e+06
-4.59291e+06
-4.59694e+06
-4.59564e+06
-4.59254e+06
-4.59002e+06
-4.59772e+06
-4.59434e+06
-4.59168e+06
-4.59677e+06
-4.59199e+06
-4.59544e+06
-4.58993e+06
-4.59743e+06
-4.59132e+06
-4.59421e+06
-4.59549e+06
-4.58923e+06
-4.59096e+06
-4.58919e+06
-4.59293e+06
-4.59058e+06
-4.59288e+06
-4.58928e+06
-4.59247e+06
-4.58856e+06
-4.58952e+06
-4.5917e+06
-4.58925e+06
-4.59243e+06
-4.5885e+06
-4.58949e+06
-4.59167e+06
-4.59099e+06
-4.59801e+06
-4.592e+06
-4.59195e+06
-4.59426e+06
-4.59418e+06
-4.58944e+06
-4.58858e+06
-4.58891e+06
-4.59036e+06
-4.58853e+06
-4.58883e+06
-4.59029e+06
-4.58922e+06
-4.5893e+06
-4.58832e+06
-4.58825e+06
-4.5888e+06
-4.58826e+06
-4.58827e+06
-4.58895e+06
-4.58896e+06
-4.58906e+06
-4.58936e+06
-4.58863e+06
-4.59254e+06
-4.59173e+06
-4.58964e+06
-4.59091e+06
-4.59144e+06
-4.59788e+06
-4.59153e+06
-4.59403e+06
-4.58887e+06
-4.59414e+06
-4.58863e+06
-4.58894e+06
-4.59033e+06
-4.59252e+06
-4.58851e+06
-4.58934e+06
-4.5896e+06
-4.59172e+06
-4.58879e+06
-4.5891e+06
-4.59054e+06
-4.59799e+06
-4.59171e+06
-4.59425e+06
-4.59108e+06
-4.59182e+06
-4.59435e+06
-4.58907e+06
-4.58865e+06
-4.59255e+06
-4.59181e+06
-4.5894e+06
-4.58963e+06
-4.58902e+06
-4.59045e+06
-4.58868e+06
-4.5892e+06
-4.58981e+06
-4.58983e+06
-4.5886e+06
-4.59083e+06
-4.59141e+06
-4.59783e+06
-4.59152e+06
-4.59397e+06
-4.58886e+06
-4.59406e+06
-4.58918e+06
-4.58838e+06
-4.59229e+06
-4.59155e+06
-4.58941e+06
-4.5885e+06
-4.58886e+06
-4.59024e+06
-4.58847e+06
-4.5892e+06
-4.59235e+06
-4.59162e+06
-4.58943e+06
-4.58921e+06
-4.58916e+06
-4.59048e+06
-4.59538e+06
-4.59094e+06
-4.59286e+06
-4.59284e+06
-4.59216e+06
-4.59562e+06
-4.59001e+06
-4.59761e+06
-4.59132e+06
-4.59676e+06
-4.59427e+06
-4.58991e+06
-4.59198e+06
-4.59125e+06
-4.59669e+06
-4.59545e+06
-4.5942e+06
-4.59743e+06
-4.58862e+06
-4.58901e+06
-4.59043e+06
-4.58933e+06
-4.58861e+06
-4.59253e+06
-4.5918e+06
-4.58958e+06
-4.58902e+06
-4.5904e+06
-4.58864e+06
-4.5886e+06
-4.59251e+06
-4.59176e+06
-4.58934e+06
-4.58957e+06
-4.58834e+06
-4.58857e+06
-4.59e+06
-4.59073e+06
-4.59773e+06
-4.59127e+06
-4.59136e+06
-4.59385e+06
-4.59397e+06
-4.58869e+06
-4.58843e+06
-4.58916e+06
-4.59232e+06
-4.58942e+06
-4.59156e+06
-4.58841e+06
-4.58874e+06
-4.59017e+06
-4.59194e+06
-4.58988e+06
-4.59123e+06
-4.59663e+06
-4.59541e+06
-4.59739e+06
-4.59412e+06
-4.5891e+06
-4.58912e+06
-4.59043e+06
-4.5953e+06
-4.59084e+06
-4.59277e+06
-4.59278e+06
-4.59207e+06
-4.59549e+06
-4.58987e+06
-4.59751e+06
-4.59122e+06
-4.59666e+06
-4.59415e+06
-4.58931e+06
-4.59255e+06
-4.58861e+06
-4.59176e+06
-4.58957e+06
-4.5979e+06
-4.59156e+06
-4.59414e+06
-4.59096e+06
-4.59167e+06
-4.59421e+06
-4.58896e+06
-4.58859e+06
-4.58895e+06
-4.59038e+06
-4.58857e+06
-4.59247e+06
-4.59172e+06
-4.5893e+06
-4.58955e+06
-4.58891e+06
-4.59033e+06
-4.58857e+06
-4.58879e+06
-4.58874e+06
-4.58889e+06
-4.5884e+06
-4.58858e+06
-4.59002e+06
-4.58916e+06
-4.5923e+06
-4.58833e+06
-4.59147e+06
-4.58944e+06
-4.58845e+06
-4.5888e+06
-4.5902e+06
-4.59235e+06
-4.58844e+06
-4.5892e+06
-4.59159e+06
-4.58946e+06
-4.59784e+06
-4.59157e+06
-4.59414e+06
-4.59092e+06
-4.59165e+06
-4.59413e+06
-4.5889e+06
-4.58925e+06
-4.59234e+06
-4.58849e+06
-4.59162e+06
-4.58947e+06
-4.58855e+06
-4.5889e+06
-4.59029e+06
-4.58851e+06
-4.59239e+06
-4.59166e+06
-4.58925e+06
-4.58948e+06
-4.58893e+06
-4.59032e+06
-4.58857e+06
-4.59479e+06
-4.59459e+06
-4.60002e+06
-4.59351e+06
-4.59938e+06
-4.59858e+06
-4.59922e+06
-4.60848e+06
-4.6084e+06
-4.61137e+06
-4.60842e+06
-4.61139e+06
-4.6113e+06
-4.61427e+06
-4.60557e+06
-4.61143e+06
-4.60856e+06
-4.61145e+06
-4.6086e+06
-4.61432e+06
-4.61149e+06
-4.61133e+06
-4.60531e+06
-4.60837e+06
-4.61127e+06
-4.61423e+06
-4.60832e+06
-4.61129e+06
-4.60853e+06
-4.60844e+06
-4.60547e+06
-4.61429e+06
-4.61146e+06
-4.61135e+06
-4.6085e+06
-4.59914e+06
-4.60056e+06
-4.59419e+06
-4.60055e+06
-4.59698e+06
-4.6026e+06
-4.59698e+06
-4.61139e+06
-4.6113e+06
-4.61427e+06
-4.6054e+06
-4.60846e+06
-4.60839e+06
-4.61136e+06
-4.6086e+06
-4.61432e+06
-4.61148e+06
-4.60853e+06
-4.60556e+06
-4.61142e+06
-4.60855e+06
-4.61423e+06
-4.60831e+06
-4.61129e+06
-4.60835e+06
-4.61133e+06
-4.6053e+06
-4.60837e+06
-4.61146e+06
-4.61135e+06
-4.60851e+06
-4.61139e+06
-4.60853e+06
-4.60844e+06
-4.60547e+06
-4.59242e+06
-4.59691e+06
-4.59688e+06
-4.59959e+06
-4.59285e+06
-4.59621e+06
-4.59617e+06
-4.59957e+06
-4.59692e+06
-4.59618e+06
-4.59243e+06
-4.59695e+06
-4.5962e+06
-4.59291e+06
-4.59948e+06
-4.59683e+06
-4.59612e+06
-4.59237e+06
-4.59681e+06
-4.5961e+06
-4.59284e+06
-4.59465e+06
-4.59483e+06
-4.59361e+06
-4.59866e+06
-4.60004e+06
-4.59929e+06
-4.59941e+06
-4.59463e+06
-4.5948e+06
-4.59357e+06
-4.59862e+06
-4.60002e+06
-4.59927e+06
-4.59938e+06
-4.59478e+06
-4.59461e+06
-4.59355e+06
-4.59857e+06
-4.6e+06
-4.59936e+06
-4.59922e+06
-4.59695e+06
-4.59248e+06
-4.59696e+06
-4.59956e+06
-4.59298e+06
-4.5962e+06
-4.59617e+06
-4.59699e+06
-4.59965e+06
-4.59628e+06
-4.59255e+06
-4.59699e+06
-4.59299e+06
-4.5963e+06
-4.59233e+06
-4.5968e+06
-4.59945e+06
-4.59677e+06
-4.59609e+06
-4.59277e+06
-4.59603e+06
-4.5938e+06
-4.59366e+06
-4.59984e+06
-4.59256e+06
-4.59905e+06
-4.59816e+06
-4.59893e+06
-4.59698e+06
-4.59963e+06
-4.59624e+06
-4.59249e+06
-4.59698e+06
-4.59296e+06
-4.59627e+06
-4.59226e+06
-4.59678e+06
-4.59674e+06
-4.5994e+06
-4.59275e+06
-4.59603e+06
-4.59597e+06
-4.59697e+06
-4.59247e+06
-4.59696e+06
-4.5996e+06
-4.59294e+06
-4.59622e+06
-4.59623e+06
-4.59228e+06
-4.5968e+06
-4.59939e+06
-4.59677e+06
-4.59603e+06
-4.59278e+06
-4.59598e+06
-4.59238e+06
-4.59684e+06
-4.59948e+06
-4.5968e+06
-4.59614e+06
-4.59282e+06
-4.5961e+06
-4.59239e+06
-4.59948e+06
-4.59688e+06
-4.59683e+06
-4.59612e+06
-4.59608e+06
-4.59287e+06
-4.59931e+06
-4.59442e+06
-4.60073e+06
-4.6007e+06
-4.59717e+06
-4.59717e+06
-4.60276e+06
-4.59261e+06
-4.59975e+06
-4.59708e+06
-4.59706e+06
-4.59637e+06
-4.59636e+06
-4.59306e+06
-4.59921e+06
-4.59435e+06
-4.60066e+06
-4.60066e+06
-4.59707e+06
-4.59709e+06
-4.60269e+06
-4.59916e+06
-4.60059e+06
-4.59422e+06
-4.60056e+06
-4.597e+06
-4.60262e+06
-4.597e+06
-4.59223e+06
-4.59934e+06
-4.5967e+06
-4.5967e+06
-4.59595e+06
-4.59595e+06
-4.59272e+06
-4.59239e+06
-4.59958e+06
-4.5969e+06
-4.59687e+06
-4.5962e+06
-4.59616e+06
-4.59284e+06
-4.59236e+06
-4.59686e+06
-4.59682e+06
-4.59946e+06
-4.59285e+06
-4.59609e+06
-4.59605e+06
-4.59931e+06
-4.60068e+06
-4.59436e+06
-4.6007e+06
-4.59714e+06
-4.60275e+06
-4.59715e+06
-4.59262e+06
-4.59708e+06
-4.59706e+06
-4.59973e+06
-4.59307e+06
-4.59637e+06
-4.59634e+06
-4.59921e+06
-4.60064e+06
-4.5943e+06
-4.60065e+06
-4.59707e+06
-4.60268e+06
-4.59707e+06
-4.59911e+06
-4.60052e+06
-4.60055e+06
-4.59421e+06
-4.60259e+06
-4.59695e+06
-4.59698e+06
-4.59218e+06
-4.59668e+06
-4.59669e+06
-4.59931e+06
-4.59268e+06
-4.5959e+06
-4.59592e+06
-4.59914e+06
-4.60053e+06
-4.60057e+06
-4.59419e+06
-4.60261e+06
-4.59697e+06
-4.59698e+06
-4.59693e+06
-4.59246e+06
-4.59695e+06
-4.59953e+06
-4.59615e+06
-4.59296e+06
-4.59617e+06
-4.59962e+06
-4.59695e+06
-4.59624e+06
-4.59254e+06
-4.59698e+06
-4.5963e+06
-4.59297e+06
-4.59231e+06
-4.59943e+06
-4.59675e+06
-4.59677e+06
-4.59602e+06
-4.59607e+06
-4.59276e+06
-4.59382e+06
-4.59982e+06
-4.59366e+06
-4.59903e+06
-4.59253e+06
-4.59812e+06
-4.59889e+06
-4.59961e+06
-4.59695e+06
-4.59623e+06
-4.59251e+06
-4.59697e+06
-4.59626e+06
-4.59296e+06
-4.59225e+06
-4.59673e+06
-4.59937e+06
-4.59675e+06
-4.59596e+06
-4.59274e+06
-4.59601e+06
-4.59375e+06
-4.59979e+06
-4.59358e+06
-4.59896e+06
-4.59243e+06
-4.59804e+06
-4.59885e+06
-4.5968e+06
-4.59229e+06
-4.5994e+06
-4.59677e+06
-4.59598e+06
-4.59604e+06
-4.5928e+06
)
;

boundaryField
{
    sphere_to_oil
    {
        type            calculated;
        value           nonuniform List<scalar> 
1536
(
-4.58776e+06
-4.58759e+06
-4.5875e+06
-4.5877e+06
-4.58758e+06
-4.58773e+06
-4.58754e+06
-4.58768e+06
-4.58755e+06
-4.58789e+06
-4.58745e+06
-4.58776e+06
-4.58794e+06
-4.58781e+06
-4.58755e+06
-4.58778e+06
-4.58732e+06
-4.58712e+06
-4.58758e+06
-4.58794e+06
-4.58782e+06
-4.5876e+06
-4.5875e+06
-4.58763e+06
-4.58764e+06
-4.58764e+06
-4.58762e+06
-4.58762e+06
-4.58754e+06
-4.58779e+06
-4.58769e+06
-4.58765e+06
-4.58766e+06
-4.58781e+06
-4.58768e+06
-4.58765e+06
-4.58768e+06
-4.58768e+06
-4.58758e+06
-4.58775e+06
-4.58764e+06
-4.5876e+06
-4.5876e+06
-4.5876e+06
-4.58768e+06
-4.5876e+06
-4.58764e+06
-4.58766e+06
-4.58767e+06
-4.58769e+06
-4.58764e+06
-4.58768e+06
-4.5877e+06
-4.5876e+06
-4.58787e+06
-4.58779e+06
-4.5879e+06
-4.58776e+06
-4.58779e+06
-4.58763e+06
-4.58795e+06
-4.58785e+06
-4.58754e+06
-4.58727e+06
-4.58752e+06
-4.58727e+06
-4.58771e+06
-4.58759e+06
-4.58783e+06
-4.58775e+06
-4.58758e+06
-4.58783e+06
-4.58771e+06
-4.58755e+06
-4.58729e+06
-4.58757e+06
-4.58745e+06
-4.58749e+06
-4.58764e+06
-4.58742e+06
-4.58756e+06
-4.58764e+06
-4.58754e+06
-4.58773e+06
-4.58757e+06
-4.58758e+06
-4.58781e+06
-4.58771e+06
-4.58761e+06
-4.58744e+06
-4.58764e+06
-4.58752e+06
-4.58766e+06
-4.58749e+06
-4.58786e+06
-4.58791e+06
-4.58784e+06
-4.58773e+06
-4.5876e+06
-4.58751e+06
-4.58786e+06
-4.58775e+06
-4.5879e+06
-4.58786e+06
-4.58807e+06
-4.58787e+06
-4.58794e+06
-4.58784e+06
-4.58786e+06
-4.58772e+06
-4.58748e+06
-4.58747e+06
-4.58757e+06
-4.58791e+06
-4.58772e+06
-4.58767e+06
-4.58769e+06
-4.58781e+06
-4.58779e+06
-4.58745e+06
-4.58738e+06
-4.58769e+06
-4.58774e+06
-4.58786e+06
-4.58768e+06
-4.58769e+06
-4.58778e+06
-4.58734e+06
-4.5871e+06
-4.58752e+06
-4.58735e+06
-4.58757e+06
-4.58748e+06
-4.5876e+06
-4.58758e+06
-4.58754e+06
-4.58777e+06
-4.58757e+06
-4.58777e+06
-4.58766e+06
-4.58763e+06
-4.58741e+06
-4.58756e+06
-4.58758e+06
-4.58786e+06
-4.5879e+06
-4.58783e+06
-4.58769e+06
-4.58747e+06
-4.58735e+06
-4.5878e+06
-4.58786e+06
-4.58786e+06
-4.58795e+06
-4.58776e+06
-4.58787e+06
-4.58789e+06
-4.58776e+06
-4.58749e+06
-4.58749e+06
-4.5878e+06
-4.58774e+06
-4.58791e+06
-4.58777e+06
-4.58768e+06
-4.58779e+06
-4.58744e+06
-4.58739e+06
-4.58748e+06
-4.58769e+06
-4.58768e+06
-4.58777e+06
-4.58764e+06
-4.58766e+06
-4.58757e+06
-4.58738e+06
-4.58747e+06
-4.58754e+06
-4.58757e+06
-4.58758e+06
-4.58753e+06
-4.58774e+06
-4.58755e+06
-4.58777e+06
-4.58768e+06
-4.58765e+06
-4.58751e+06
-4.58756e+06
-4.58782e+06
-4.58763e+06
-4.58764e+06
-4.58743e+06
-4.58781e+06
-4.58769e+06
-4.58755e+06
-4.58737e+06
-4.58766e+06
-4.58754e+06
-4.58775e+06
-4.58757e+06
-4.58751e+06
-4.58766e+06
-4.58757e+06
-4.58775e+06
-4.5876e+06
-4.58782e+06
-4.58769e+06
-4.58765e+06
-4.58751e+06
-4.58755e+06
-4.58765e+06
-4.58733e+06
-4.58744e+06
-4.58759e+06
-4.58777e+06
-4.58764e+06
-4.58778e+06
-4.58766e+06
-4.58764e+06
-4.58752e+06
-4.58768e+06
-4.58759e+06
-4.58773e+06
-4.58765e+06
-4.5877e+06
-4.5876e+06
-4.58748e+06
-4.58774e+06
-4.58771e+06
-4.58746e+06
-4.58706e+06
-4.58717e+06
-4.58703e+06
-4.58761e+06
-4.58732e+06
-4.58764e+06
-4.58776e+06
-4.58744e+06
-4.58711e+06
-4.58752e+06
-4.58777e+06
-4.58711e+06
-4.58776e+06
-4.5874e+06
-4.58745e+06
-4.58775e+06
-4.58724e+06
-4.58772e+06
-4.58723e+06
-4.58763e+06
-4.5878e+06
-4.58772e+06
-4.58737e+06
-4.58723e+06