/*--------------------------------*- C++ -*----------------------------------*\
| =========                 |                                                 |
| \\      /  F ield         | OpenFOAM: The Open Source CFD Toolbox           |
|  \\    /   O peration     | Version:  v1906                                 |
|   \\  /    A nd           | Web:      www.OpenFOAM.com                      |
|    \\/     M anipulation  |                                                 |
\*---------------------------------------------------------------------------*/
FoamFile
{
    version     2.0;
    format      ascii;
    class       volVectorField;
    location    "89";
    object      U;
}
// * * * * * * * * * * * * * * * * * * * * * * * * * * * * * * * * * * * * * //

dimensions      [0 1 -1 0 0 0 0];


internalField   nonuniform List<vector> 
78750
(
(0.0905404 -0.222076 0.0712278)
(0.243422 -0.226077 0.0269558)
(0.27387 -0.235429 0.0168986)
(0.256826 -0.204158 0.00442234)
(0.287071 -0.167886 -0.00343693)
(0.36647 -0.148754 -0.0248148)
(0.404505 -0.126151 -0.0332257)
(0.408062 -0.177882 -0.0704416)
(0.436612 -0.0557825 -0.0391473)
(0.418708 -0.163746 -0.0267902)
(0.46746 -0.197388 -0.0749818)
(0.368491 0.219422 -0.00415791)
(0.15648 0.582532 0.0577397)
(0.237791 0.465194 -0.0779944)
(0.195895 0.144823 -0.287993)
(0.129208 -0.0623408 -0.418977)
(0.0898213 -0.195983 -0.504041)
(0.062952 -0.305032 -0.574354)
(0.0391998 -0.392793 -0.636569)
(0.0150838 -0.434226 -0.683629)
(-0.00697685 -0.41871 -0.706975)
(-0.0221688 -0.368238 -0.718384)
(-0.0289334 -0.298134 -0.731142)
(-0.0300221 -0.230564 -0.73838)
(-0.0298333 -0.167074 -0.749038)
(-0.0301439 -0.117816 -0.759055)
(-0.0291055 -0.0820669 -0.767017)
(-0.0281981 -0.0517078 -0.779734)
(-0.0257099 -0.0314492 -0.789085)
(-0.0218666 -0.00899901 -0.801115)
(-0.016695 0.0156129 -0.812885)
(-0.0098995 0.0424314 -0.820509)
(-0.00383813 0.0838055 -0.824563)
(0.00130819 0.134301 -0.815231)
(0.00104574 0.208135 -0.75392)
(-0.10498 -1.38267 0.192068)
(-0.0965534 0.345172 -0.477546)
(-0.0127237 0.644376 -0.60911)
(-0.0984852 0.0130409 -0.690389)
(-0.0706735 0.0324436 -0.614494)
(-0.0637607 0.0616773 -0.555111)
(-0.0512271 0.0983819 -0.497242)
(-0.0507779 0.179692 -0.419553)
(-0.00446083 0.278506 -0.28532)
(-0.0718221 0.532967 -0.150221)
(-0.0730265 0.647827 0.00053733)
(-0.0937108 0.722615 0.0168574)
(-0.0551949 0.727892 -0.0894618)
(0.0289004 0.58842 -0.219914)
(0.0667866 0.507291 -0.296979)
(0.0796707 0.477782 -0.334743)
(0.0759685 0.476311 -0.355023)
(0.0540253 0.524735 -0.336794)
(0.00149033 0.732943 -0.195134)
(-0.0696487 0.860371 -0.0695409)
(-0.134211 0.614622 -0.217698)
(-0.173305 0.426434 -0.420844)
(-0.1932 0.332023 -0.522079)
(-0.207294 0.262554 -0.57937)
(-0.215801 0.211373 -0.617201)
(-0.216443 0.17117 -0.642367)
(-0.212497 0.137392 -0.660653)
(-0.204385 0.104126 -0.676169)
(-0.192008 0.0693994 -0.690047)
(-0.176504 0.0320861 -0.702821)
(-0.156941 -0.00724136 -0.713512)
(-0.131815 -0.0474494 -0.724303)
(-0.0997892 -0.0886914 -0.732839)
(-0.0710102 -0.122322 -0.731022)
(-0.0461917 -0.153657 -0.704433)
(-0.107561 0.134421 0.0170488)
(-0.026697 -0.608718 -0.217525)
(-0.108855 -0.662345 -0.325086)
(-0.117457 -0.615025 -0.604113)
(-0.158579 -0.54707 -0.811649)
(-0.18655 -0.470593 -0.861302)
(-0.204753 -0.400966 -0.859999)
(-0.215573 -0.330557 -0.837221)
(-0.215108 -0.247821 -0.798398)
(-0.196279 -0.150108 -0.749074)
(-0.154154 -0.0424138 -0.707768)
(-0.108794 0.039238 -0.713124)
(-0.0748009 0.0892062 -0.74218)
(-0.0575532 0.136889 -0.75622)
(-0.0504985 0.190042 -0.754326)
(-0.0501286 0.257537 -0.729944)
(-0.0569033 0.346893 -0.667717)
(-0.0632208 0.443253 -0.589939)
(-0.059068 0.509631 -0.528504)
(-0.0483281 0.522751 -0.5073)
(-0.0335471 0.478744 -0.5295)
(-0.0184007 0.417196 -0.570195)
(-0.00598213 0.356966 -0.609134)
(0.00640036 0.299915 -0.642457)
(0.0208432 0.244178 -0.671141)
(0.0364265 0.190111 -0.695217)
(0.0495722 0.136467 -0.715486)
(0.057599 0.080031 -0.733662)
(0.0595676 0.0188693 -0.750529)
(0.0561313 -0.0469708 -0.764366)
(0.0492079 -0.11468 -0.773504)
(0.0401196 -0.181431 -0.777065)
(0.0299068 -0.242969 -0.775268)
(0.0214491 -0.296683 -0.769389)
(0.0153954 -0.360342 -0.748972)
(-0.000885982 0.140145 -0.245382)
(0.00328167 0.0814399 -0.351507)
(-0.0178711 0.300931 -0.158683)
(-0.087015 0.340861 -0.21458)
(-0.144887 0.294007 -0.443831)
(-0.18617 0.272402 -0.611572)
(-0.218985 0.259127 -0.620161)
(-0.245135 0.258744 -0.6016)
(-0.265212 0.26568 -0.572669)
(-0.272232 0.278527 -0.541936)
(-0.266097 0.291845 -0.517716)
(-0.252238 0.303748 -0.502245)
(-0.232757 0.310643 -0.495749)
(-0.204475 0.315091 -0.497553)
(-0.14676 0.317675 -0.506912)
(-0.0688733 0.342942 -0.558724)
(-0.0145602 0.389961 -0.663418)
(0.0115118 0.418124 -0.675858)
(0.0406227 0.433187 -0.673974)
(0.0718761 0.436389 -0.671185)
(0.101789 0.425438 -0.670735)
(0.130002 0.40192 -0.673912)
(0.158152 0.369283 -0.680516)
(0.190373 0.333069 -0.689547)
(0.228743 0.301343 -0.688258)
(0.249788 0.284176 -0.678292)
(0.253746 0.271289 -0.676497)
(0.243695 0.255686 -0.677571)
(0.223814 0.23662 -0.675937)
(0.196999 0.21246 -0.66645)
(0.165334 0.184212 -0.648405)
(0.133604 0.158267 -0.629424)
(0.104203 0.143396 -0.621967)
(0.0810314 0.146726 -0.630968)
(0.058988 0.164549 -0.652396)
(0.0120539 0.418426 -0.105313)
(-0.0580532 0.0703511 -0.399832)
(-0.0382539 0.273644 -0.431953)
(-0.0660836 0.393814 -0.54867)
(-0.0883145 0.365147 -0.534981)
(-0.0959924 0.351964 -0.508365)
(-0.0983263 0.338172 -0.467275)
(-0.0929652 0.325801 -0.423244)
(-0.0801026 0.314719 -0.38111)
(-0.0615296 0.303375 -0.338172)
(-0.0401228 0.287464 -0.297271)
(-0.0203805 0.264479 -0.268749)
(-0.00452967 0.235419 -0.256726)
(-0.00276005 0.157695 -0.215832)
(-0.0182892 -0.344126 0.458143)
(-0.142143 -0.20767 0.556403)
(-0.105887 0.432166 -0.265237)
(-0.108754 0.449325 -0.392118)
(-0.106746 0.447029 -0.438533)
(-0.100089 0.432941 -0.485348)
(-0.0895562 0.401069 -0.537789)
(-0.0780279 0.364099 -0.582527)
(-0.0670186 0.33295 -0.614754)
(-0.0576479 0.31086 -0.637729)
(-0.0495632 0.294859 -0.654005)
(-0.0419842 0.282041 -0.665898)
(-0.0348499 0.271336 -0.673747)
(-0.026862 0.261846 -0.678044)
(-0.0186056 0.253558 -0.681884)
(-0.0118688 0.243842 -0.683804)
(-0.00861415 0.230699 -0.684178)
(-0.00623627 0.21069 -0.679526)
(0.00320105 0.187383 -0.676635)
(0.0131038 0.202194 -0.675468)
(0.018231 0.228346 -0.682694)
(-0.00101482 0.521825 0.375952)
(-0.0350187 0.50679 -0.350878)
(-0.0696851 0.519942 -0.492425)
(-0.0690095 0.581049 -0.550893)
(-0.0907553 0.521248 -0.50919)
(-0.0868668 0.4286 -0.497233)
(-0.089991 0.324655 -0.512428)
(-0.0898119 0.210018 -0.482159)
(-0.0985936 0.122872 -0.384216)
(-0.111038 0.060906 -0.252332)
(-0.127912 0.0275363 -0.0618277)
(-0.158781 0.0405344 0.255718)
(-0.193455 0.140284 0.504211)
(-0.212005 0.313623 0.293548)
(-0.249117 0.369975 -0.242993)
(-0.276153 0.28114 -0.692029)
(-0.269284 0.241595 -0.690541)
(-0.261295 0.213617 -0.634596)
(-0.239703 0.193481 -0.628176)
(-0.213159 0.179307 -0.645988)
(-0.181913 0.169418 -0.676408)
(-0.152155 0.166454 -0.703148)
(-0.123095 0.162148 -0.728566)
(-0.0971791 0.163345 -0.743543)
(-0.0734052 0.162165 -0.756416)
(-0.0530491 0.163719 -0.764097)
(-0.0357451 0.166597 -0.768298)
(-0.0222822 0.171771 -0.769814)
(-0.0133735 0.18147 -0.768619)
(-0.00930034 0.192693 -0.765764)
(-0.00868148 0.211792 -0.760656)
(-0.00553242 0.240033 -0.752241)
(0.00714817 0.287015 -0.736026)
(0.0190344 0.323287 -0.692351)
(0.022175 0.387954 -0.633196)
(-0.0271469 0.264051 0.665722)
(0.0195925 0.74883 0.114475)
(-0.0101578 0.730062 -0.0383404)
(0.0218501 0.707917 -0.0600008)
(0.0273492 0.65044 0.0711533)
(0.0432085 0.557685 0.181284)
(0.0441355 0.51538 0.215069)
(0.0422439 0.51365 0.106164)
(0.0355248 0.52188 -0.106813)
(0.0237024 0.525931 -0.303025)
(0.010366 0.528272 -0.393086)
(-0.00887174 0.526501 -0.385699)
(-0.0341686 0.496755 -0.238553)
(-0.0636775 0.372421 0.279374)
(-0.114257 0.367318 0.558998)
(-0.133142 0.43292 0.274142)
(-0.148047 0.475389 -0.291062)
(-0.133045 0.472043 -0.596109)
(-0.123273 0.449086 -0.747143)
(-0.12307 0.415982 -0.846854)
(-0.129407 0.385983 -0.896112)
(-0.13726 0.364879 -0.924153)
(-0.145196 0.351841 -0.947156)
(-0.152411 0.345286 -0.965334)
(-0.159304 0.347686 -0.981469)
(-0.16528 0.35628 -0.986987)
(-0.170505 0.372789 -0.986292)
(-0.174306 0.392895 -0.975017)
(-0.176273 0.413288 -0.953204)
(-0.173892 0.429964 -0.918045)
(-0.164807 0.441563 -0.871631)
(-0.146057 0.449294 -0.816158)
(-0.112058 0.453964 -0.751818)
(-0.0732756 0.456834 -0.686302)
(-0.0417726 0.472087 -0.594346)
(-0.03107 0.0798372 0.510102)
(0.00625328 0.365346 0.510871)
(0.0294989 0.341415 0.443225)
(0.0757178 0.239248 0.451166)
(0.10818 0.137757 0.537132)
(0.134462 0.0530196 0.614851)
(0.147757 0.0441847 0.692297)
(0.151524 0.130988 0.702047)
(0.147829 0.246593 0.597983)
(0.141184 0.340487 0.404905)
(0.140257 0.385737 0.235993)
(0.14703 0.402913 0.147817)
(0.144358 0.413718 0.0867826)
(0.151923 0.387114 0.152492)
(0.14798 0.328604 0.343875)
(0.117512 0.264542 0.566739)
(0.0736185 0.28711 0.72765)
(0.02728 0.363295 0.653716)
(-0.0205319 0.441657 0.348909)
(-0.060777 0.464095 -0.107461)
(-0.0826907 0.449889 -0.498312)
(-0.0926354 0.423129 -0.725131)
(-0.100028 0.394192 -0.835736)
(-0.10859 0.370877 -0.882173)
(-0.119125 0.351769 -0.892744)
(-0.130557 0.334737 -0.881331)
(-0.139748 0.31264 -0.857897)
(-0.145048 0.284256 -0.828021)
(-0.144714 0.248702 -0.798299)
(-0.137736 0.209718 -0.772112)
(-0.122759 0.169374 -0.74431)
(-0.097517 0.128702 -0.700725)
(-0.0618813 0.085574 -0.641893)
(-0.0316668 0.0517154 -0.582305)
(-0.0142946 0.0740198 -0.499245)
(-0.00851609 0.0117227 0.285287)
(0.0121898 -0.026127 0.362053)
(0.0515331 -0.0556154 0.366072)
(0.082371 -0.0734521 0.358039)
(0.101639 -0.061453 0.345758)
(0.109237 -0.0251444 0.333417)
(0.108263 0.0268141 0.342785)
(0.106749 0.0938797 0.381251)
(0.108511 0.165701 0.402754)
(0.115081 0.2305 0.386778)
(0.124616 0.275501 0.360107)
(0.135628 0.308984 0.346978)
(0.143553 0.33594 0.336094)
(0.152163 0.349264 0.36388)
(0.155977 0.365231 0.433163)
(0.147893 0.404055 0.516318)
(0.133275 0.476953 0.634821)
(0.114613 0.590752 0.743203)
(0.0968411 0.682297 0.770844)
(0.0731039 0.759198 0.633477)
(0.0524996 0.812941 0.415179)
(0.0296177 0.833445 0.172651)
(0.0095676 0.849193 -0.0446213)
(-0.00534224 0.867774 -0.22652)
(-0.0132354 0.86702 -0.356091)
(-0.0141099 0.840342 -0.427711)
(-0.0098408 0.796685 -0.459203)
(-0.00122573 0.740506 -0.466227)
(0.0114078 0.672785 -0.447443)
(0.0257114 0.588037 -0.377778)
(0.0318593 0.488237 -0.211634)
(0.0274998 0.406924 -0.110352)
(0.0160573 0.349533 -0.195146)
(0.00549985 0.316452 -0.344591)
(0.00413513 0.267764 -0.415533)
(-0.000705703 -0.0750018 0.174276)
(0.0112191 -0.177438 0.207895)
(0.0231539 -0.211486 0.218186)
(0.036766 -0.215751 0.227983)
(0.0509492 -0.198291 0.239028)
(0.0660632 -0.158859 0.247415)
(0.0823794 -0.102561 0.250791)
(0.0999699 -0.0367287 0.254189)
(0.118554 0.0322635 0.258359)
(0.136885 0.0981932 0.260392)
(0.154358 0.152151 0.2578)
(0.169213 0.194517 0.253197)
(0.180741 0.22802 0.247062)
(0.191315 0.255905 0.243801)
(0.200481 0.283147 0.247156)
(0.209087 0.320257 0.251423)
(0.217005 0.366108 0.275156)
(0.226882 0.429781 0.297911)
(0.241898 0.488727 0.331015)
(0.258525 0.567209 0.370403)
(0.277962 0.62306 0.36805)
(0.316431 0.682778 0.322198)
(0.366011 0.731327 0.268829)
(0.389168 0.746835 0.2215)
(0.392721 0.727797 0.176696)
(0.392552 0.678064 0.134784)
(0.391905 0.605182 0.100694)
(0.386447 0.517902 0.122695)
(0.362545 0.434908 0.199746)
(0.324609 0.393525 0.304894)
(0.265915 0.404562 0.449257)
(0.188228 0.401875 0.299814)
(0.114558 0.391508 -0.120818)
(0.0737888 0.407923 -0.413885)
(0.0394133 0.414272 -0.550157)
(0.011023 -0.242883 0.106347)
(0.0406916 -0.425162 0.138095)
(0.0655391 -0.486305 0.144326)
(0.08883 -0.505581 0.144214)
(0.111494 -0.505001 0.14292)
(0.132736 -0.488778 0.143054)
(0.152481 -0.455956 0.146872)
(0.17146 -0.404694 0.157031)
(0.190528 -0.333913 0.175064)
(0.210403 -0.248321 0.198901)
(0.230303 -0.163032 0.22108)
(0.251697 -0.0900604 0.236519)
(0.275662 -0.0405889 0.240131)
(0.303584 -0.0134531 0.23327)
(0.337291 0.00390925 0.220709)
(0.369619 0.0115839 0.205199)
(0.405949 0.0481537 0.197124)
(0.433108 0.0402188 0.17457)
(0.455533 0.0616235 0.189773)
(0.46817 0.10671 0.201682)
(0.443501 -0.0260028 0.172609)
(0.449041 -0.0522923 0.232706)
(0.453225 0.154736 0.305681)
(0.428941 0.419847 0.287632)
(0.398298 0.61081 0.214065)
(0.366576 0.724859 0.151427)
(0.327353 0.793504 0.117286)
(0.276187 0.835659 0.0993605)
(0.21589 0.859843 0.0489612)
(0.158435 0.873918 -0.0537041)
(0.10834 0.883107 -0.203124)
(0.0669669 0.89583 -0.41147)
(0.0343162 0.924696 -0.59835)
(0.0157054 0.960096 -0.697131)
(-0.00191299 0.992126 -0.740762)
(0.0145627 -0.457896 0.116259)
(0.035453 -0.591097 0.15926)
(0.0495547 -0.609025 0.16947)
(0.0602208 -0.597442 0.17128)
(0.0687 -0.566407 0.166902)
(0.0750143 -0.512157 0.151142)
(0.0784267 -0.440412 0.123658)
(0.0796011 -0.372679 0.105139)
(0.0824817 -0.315619 0.111769)
(0.0917753 -0.269111 0.13736)
(0.109764 -0.242895 0.166291)
(0.133754 -0.24939 0.186788)
(0.156188 -0.286381 0.190768)
(0.167014 -0.299656 0.18927)
(0.156663 -0.284679 0.184018)
(0.121794 -0.265908 0.176878)
(0.0575656 -0.0742941 0.127464)
(0.00633552 0.27012 -0.00267226)
(-0.0438584 0.446363 -0.147491)
(-0.0892945 0.517821 -0.237773)
(-0.124503 0.623123 -0.273825)
(-0.155951 0.749153 -0.276886)
(-0.184563 0.866623 -0.281322)
(-0.202454 0.96476 -0.293695)
(-0.210132 1.04154 -0.308869)
(-0.211322 1.10162 -0.325023)
(-0.208212 1.14599 -0.345329)
(-0.201409 1.17234 -0.374999)
(-0.191382 1.18098 -0.41762)
(-0.178525 1.17854 -0.467853)
(-0.16258 1.17139 -0.517599)
(-0.142487 1.16219 -0.559367)
(-0.11711 1.14825 -0.576801)
(-0.0851471 1.11431 -0.54956)
(-0.0423854 1.00048 -0.43792)
(-0.00885736 -0.553442 0.149268)
(-0.0294613 -0.669394 0.17352)
(-0.0509637 -0.674337 0.179733)
(-0.0722254 -0.657091 0.192858)
(-0.0935716 -0.611272 0.210939)
(-0.11115 -0.528877 0.22583)
(-0.124388 -0.432319 0.235367)
(-0.135848 -0.369182 0.253479)
(-0.145695 -0.354207 0.28516)
(-0.153813 -0.379468 0.322433)
(-0.166171 -0.43156 0.360429)
(-0.186531 -0.430304 0.380733)
(-0.213255 -0.280556 0.358436)
(-0.24664 0.0497225 0.271908)
(-0.288428 0.437406 0.133314)
(-0.344714 0.681758 -0.0126626)
(-0.39693 0.749027 -0.119515)
(-0.43402 0.755516 -0.185876)
(-0.464934 0.754064 -0.232573)
(-0.489281 0.764398 -0.261624)
(-0.504495 0.795222 -0.277658)
(-0.511439 0.837524 -0.288203)
(-0.509969 0.88437 -0.297158)
(-0.499185 0.93062 -0.303595)
(-0.480002 0.970995 -0.306137)
(-0.453429 1.0016 -0.304809)
(-0.420165 1.0196 -0.300524)
(-0.38105 1.02328 -0.293838)
(-0.337306 1.01245 -0.283868)
(-0.290178 0.987603 -0.267572)
(-0.240797 0.947582 -0.24109)
(-0.190045 0.887382 -0.199239)
(-0.138266 0.796333 -0.133675)
(-0.0847984 0.650376 -0.0329859)
(-0.0211132 0.376951 0.114328)
(-0.0190855 -0.351168 0.130637)
(-0.0503368 -0.422918 0.144363)
(-0.0816652 -0.443075 0.145767)
(-0.114097 -0.454922 0.152344)
(-0.143881 -0.460595 0.16528)
(-0.169185 -0.452691 0.183412)
(-0.190645 -0.418714 0.202646)
(-0.210002 -0.36094 0.220469)
(-0.231945 -0.303499 0.244184)
(-0.261392 -0.253544 0.276932)
(-0.302132 -0.2135 0.310075)
(-0.357568 -0.194455 0.338144)
(-0.415159 -0.147993 0.353691)
(-0.449027 0.0206228 0.340824)
(-0.451348 0.318748 0.285184)
(-0.437596 0.61368 0.201198)
(-0.419946 0.786193 0.127157)
(-0.405243 0.85193 0.0842976)
(-0.395476 0.868962 0.0634445)
(-0.387921 0.868804 0.0530693)
(-0.37982 0.862531 0.0486448)
(-0.36912 0.852433 0.0490203)
(-0.354334 0.838079 0.05394)
(-0.334576 0.81798 0.0635721)
(-0.309413 0.790086 0.0782461)
(-0.278479 0.752725 0.0979328)
(-0.241544 0.705677 0.121746)
(-0.199069 0.651368 0.147973)
(-0.152698 0.595301 0.174892)
(-0.104811 0.543836 0.202162)
(-0.0578668 0.500202 0.231717)
(-0.0162554 0.465772 0.267112)
(0.0119291 0.430307 0.312161)
(0.0222298 0.368883 0.36917)
(0.0219092 0.202017 0.372644)
(-0.0179497 -0.261719 0.134832)
(-0.0415911 -0.38288 0.13502)
(-0.0619493 -0.41162 0.129321)
(-0.0805411 -0.420478 0.130492)
(-0.0999799 -0.416693 0.137033)
(-0.119631 -0.399456 0.148958)
(-0.138434 -0.367249 0.166385)
(-0.155128 -0.31597 0.187767)
(-0.169194 -0.243859 0.209529)
(-0.181402 -0.162679 0.231251)
(-0.194087 -0.0861208 0.255476)
(-0.210338 -0.0173501 0.281302)
(-0.230236 0.0404847 0.306244)
(-0.2476 0.0844578 0.328351)
(-0.255489 0.13121 0.342939)
(-0.247684 0.20385 0.341967)
(-0.227803 0.298872 0.327323)
(-0.204211 0.386592 0.309154)
(-0.180985 0.448538 0.295168)
(-0.159394 0.484315 0.2869)
(-0.139258 0.499565 0.28321)
(-0.119879 0.498868 0.282848)
(-0.100573 0.484825 0.284777)
(-0.0808288 0.458592 0.2882)
(-0.0603754 0.420473 0.292514)
(-0.0393085 0.370813 0.296978)
(-0.0181759 0.311621 0.300487)
(0.00209864 0.248855 0.302113)
(0.0199932 0.193458 0.302471)
(0.0342373 0.156825 0.304438)
(0.0446463 0.143329 0.31174)
(0.0512969 0.169152 0.334537)
(0.0526576 0.27227 0.392969)
(0.0436714 0.364768 0.443551)
(0.0242425 0.304014 0.369057)
(-0.00752872 -0.161755 0.0688315)
(-0.0123496 -0.300889 0.0515595)
(-0.0159957 -0.353882 0.0443801)
(-0.0185502 -0.376523 0.0413013)
(-0.0205968 -0.387672 0.0397348)
(-0.0221848 -0.392043 0.0392999)
(-0.0230734 -0.390464 0.040509)
(-0.0229744 -0.382839 0.0446116)
(-0.0215628 -0.36788 0.0534147)
(-0.018661 -0.342093 0.0682389)
(-0.0144106 -0.30197 0.0891997)
(-0.00932762 -0.246956 0.115472)
(-0.00418485 -0.179582 0.145269)
(0.000303839 -0.104381 0.176331)
(0.0037787 -0.0244536 0.208201)
(0.0100924 0.0543719 0.237843)
(0.0198009 0.128735 0.262809)
(0.032052 0.197573 0.282078)
(0.0454466 0.257221 0.294597)
(0.05777 0.302695 0.300714)
(0.0674233 0.328345 0.301305)
(0.0739511 0.332826 0.298366)
(0.0776559 0.320593 0.294164)
(0.0789024 0.295522 0.289538)
(0.0778235 0.259135 0.28379)
(0.0748437 0.216275 0.275745)
(0.070237 0.174112 0.265149)
(0.0640415 0.138282 0.252375)
(0.0562581 0.113359 0.238601)
(0.0468159 0.100624 0.226552)
(0.0360698 0.0976139 0.220014)
(0.0249924 0.107974 0.224735)
(0.0165216 0.155919 0.252825)
(0.0133343 0.25479 0.29935)
(0.0116917 0.288735 0.255719)
(-0.00108282 -0.188953 0.0429311)
(0.0062909 -0.367036 0.0433218)
(0.0131214 -0.434736 0.0437111)
(0.0191832 -0.457513 0.0436976)
(0.0247877 -0.462501 0.0429911)
(0.0301638 -0.456133 0.0413164)
(0.0349331 -0.438716 0.0381373)
(0.0388068 -0.409176 0.0327147)
(0.0415635 -0.367506 0.0245629)
(0.0432171 -0.316952 0.0144974)
(0.0442108 -0.263854 0.00515661)
(0.0452682 -0.214331 -6.6854e-05)
(0.0469743 -0.170834 0.00112634)
(0.0497111 -0.132031 0.00945696)
(0.0538943 -0.0948773 0.0248118)
(0.0596878 -0.0564475 0.0464493)
(0.0677522 -0.0146 0.0729984)
(0.0784783 0.0319571 0.102893)
(0.091157 0.0825337 0.133649)
(0.104591 0.135544 0.163322)
(0.116918 0.186482 0.189544)
(0.126025 0.226766 0.209189)
(0.130668 0.249338 0.220422)
(0.13132 0.255161 0.224584)
(0.128919 0.248838 0.22459)
(0.123022 0.226807 0.222615)
(0.114229 0.188215 0.218837)
(0.104231 0.146345 0.212481)
(0.0929594 0.113628 0.202196)
(0.0796721 0.0972713 0.185261)
(0.0640151 0.101203 0.161992)
(0.0474535 0.119395 0.140231)
(0.0313728 0.147362 0.131823)
(0.0170343 0.207454 0.151095)
(0.0074124 0.276634 0.155082)
(0.00455596 -0.244694 0.0241542)
(0.0190963 -0.434323 0.0252536)
(0.0287145 -0.502066 0.0253652)
(0.0352189 -0.524207 0.0250783)
(0.0403126 -0.529196 0.0242344)
(0.0446636 -0.524423 0.0226313)
(0.0480821 -0.510831 0.0198912)
(0.0503424 -0.487485 0.0155252)
(0.0512882 -0.454279 0.00965302)
(0.0511676 -0.413359 0.00316616)
(0.0506311 -0.366952 -0.0033697)
(0.0502307 -0.316042 -0.0101003)
(0.050121 -0.26208 -0.0169006)
(0.0501093 -0.208876 -0.0224992)
(0.0500589 -0.161497 -0.0249922)
(0.0502228 -0.122439 -0.0231909)
(0.0510723 -0.089974 -0.0168752)
(0.0530223 -0.0602063 -0.00562777)
(0.0564165 -0.0288339 0.0117867)
(0.0614982 0.00816278 0.0367688)
(0.0679749 0.0522259 0.0686175)
(0.0744801 0.0977679 0.102557)
(0.0793397 0.133357 0.13067)
(0.0823565 0.153526 0.148939)
(0.0841308 0.160297 0.160684)
(0.0846897 0.153515 0.168987)
(0.0835116 0.137361 0.171173)
(0.0797168 0.123678 0.162108)
(0.0725304 0.12315 0.139662)
(0.0625771 0.136964 0.113361)
(0.0513528 0.157836 0.0934305)
(0.0395455 0.180794 0.0811392)
(0.026189 0.210906 0.0777863)
(0.0125032 0.264592 0.0901776)
(0.00303158 0.309058 0.0970585)
(0.00786347 -0.355979 0.0102071)
(0.020839 -0.521501 0.0170441)
(0.0283391 -0.558179 0.0190246)
(0.0326851 -0.563425 0.0188832)
(0.0356345 -0.557374 0.017024)
(0.0372686 -0.542037 0.0129296)
(0.0371538 -0.514182 0.00507067)
(0.0346016 -0.469293 -0.00845901)
(0.0293097 -0.410635 -0.0263311)
(0.022385 -0.349261 -0.0433446)
(0.0155642 -0.29352 -0.0555426)
(0.0101355 -0.244731 -0.0624076)
(0.00677592 -0.200481 -0.0652876)
(0.00564145 -0.15869 -0.0654791)
(0.00637943 -0.120056 -0.0635362)
(0.0082388 -0.086936 -0.0596756)
(0.0105463 -0.0598787 -0.0541743)
(0.0130227 -0.036828 -0.0469233)
(0.015711 -0.0145499 -0.0367802)
(0.0187923 0.0106466 -0.0211974)
(0.0224555 0.0421126 0.00304719)
(0.0264716 0.0786781 0.0361879)
(0.0296917 0.110742 0.0731072)
(0.030731 0.126979 0.10572)
(0.0302899 0.127712 0.124565)
(0.0303275 0.123228 0.128604)
(0.0312714 0.118261 0.119735)
(0.0325067 0.123526 0.091712)
(0.0315726 0.139494 0.062006)
(0.0289592 0.158961 0.0439521)
(0.0256401 0.179325 0.0363315)
(0.020982 0.20364 0.0367753)
(0.0129225 0.241043 0.0451885)
(0.00398856 0.289419 0.0579978)
(-0.000218151 0.301763 0.06014)
(0.00393468 -0.418846 0.0238243)
(0.0075952 -0.553023 0.033696)
(0.00968219 -0.573346 0.0344273)
(0.0107024 -0.572927 0.0334269)
(0.0110797 -0.562592 0.0308318)
(0.010442 -0.540316 0.0253903)
(0.00826617 -0.498719 0.0139586)
(0.00407819 -0.435648 -0.0061618)
(-0.00159086 -0.367495 -0.0303848)
(-0.00709158 -0.312009 -0.050308)
(-0.0112378 -0.272531 -0.0629172)
(-0.0138779 -0.24357 -0.0699767)
(-0.0151492 -0.219189 -0.0737454)
(-0.0150781 -0.195297 -0.0755003)
(-0.013568 -0.16965 -0.0756871)
(-0.0107135 -0.142375 -0.0742966)
(-0.00697827 -0.115386 -0.0712564)
(-0.00287004 -0.0899648 -0.066565)
(0.00136171 -0.0654354 -0.0599518)
(0.00575693 -0.0394806 -0.0504186)
(0.0104827 -0.00884797 -0.0359601)
(0.0154274 0.0287022 -0.0143292)
(0.0197216 0.0696125 0.0142433)
(0.0220463 0.10267 0.046211)
(0.0219015 0.117513 0.0839499)
(0.0175129 0.0938453 0.131238)
(0.0130028 0.077347 0.136107)
(0.0131245 0.101283 0.0970983)
(0.0152499 0.140614 0.0477696)
(0.0155432 0.168879 0.0190407)
(0.014676 0.195736 0.00755124)
(0.0127576 0.229964 0.00843726)
(0.00774103 0.275007 0.0197158)
(0.00205324 0.306713 0.0301659)
(-0.000135893 0.288506 0.0319197)
(-0.000911036 -0.423433 0.0253918)
(-0.00206698 -0.547987 0.0286772)
(-0.00227586 -0.564752 0.0280843)
(-0.00241361 -0.562382 0.0269773)
(-0.00257995 -0.548838 0.0248805)
(-0.00287525 -0.51994 0.0202396)
(-0.00325522 -0.467798 0.00974919)
(-0.00353967 -0.396421 -0.00905965)
(-0.00388664 -0.326976 -0.0316188)
(-0.00439425 -0.273511 -0.0502138)
(-0.00491593 -0.234771 -0.0625822)
(-0.00535416 -0.205372 -0.0702003)
(-0.00560954 -0.181382 -0.0747493)
(-0.00554906 -0.16051 -0.0772838)
(-0.00502714 -0.141338 -0.0783761)
(-0.00393109 -0.122845 -0.078301)
(-0.00225052 -0.104393 -0.0771234)
(-0.00011916 -0.0856981 -0.0747411)
(0.00226216 -0.0663467 -0.0708513)
(0.00476225 -0.0451704 -0.0647456)
(0.00736286 -0.0199522 -0.0549493)
(0.0100825 0.0119858 -0.0391627)
(0.0128276 0.0506241 -0.0159285)
(0.0151224 0.088324 0.0126083)
(0.0163433 0.113219 0.0432281)
(0.0149575 0.116963 0.0774707)
(0.0097493 0.0957395 0.11199)
(0.0061708 0.0808575 0.117628)
(0.00778239 0.117407 0.0806925)
(0.0098613 0.171704 0.0299761)
(0.00820131 0.204797 0.00322699)
(0.00579687 0.238845 -0.00355366)
(0.00311352 0.282612 0.00223597)
(0.000277634 0.307407 0.00855256)
(-0.000694525 0.275883 0.0100008)
(-0.00275071 -0.393401 0.0236706)
(-0.00378738 -0.531484 0.0303126)
(-0.00370045 -0.553295 0.0319085)
(-0.00300763 -0.553779 0.0327225)
(-0.00195171 -0.54312 0.033345)
(-0.000444176 -0.518992 0.0334956)
(0.00191302 -0.475101 0.0315092)
(0.00547854 -0.409433 0.0231076)
(0.00922679 -0.33667 0.00588298)
(0.011484 -0.278059 -0.0144101)
(0.0120621 -0.238788 -0.0313011)
(0.0116329 -0.212641 -0.0435003)
(0.0108014 -0.193133 -0.0521649)
(0.00992765 -0.176251 -0.0584429)
(0.00922968 -0.159779 -0.0629713)
(0.00884838 -0.142616 -0.0660019)
(0.00885223 -0.124421 -0.0675783)
(0.00922017 -0.105201 -0.0676371)
(0.00984607 -0.0847436 -0.0659665)
(0.0105791 -0.0621535 -0.0620094)
(0.0112755 -0.0357337 -0.054569)
(0.0118627 -0.00359653 -0.0416916)
(0.012278 0.0338729 -0.0217753)
(0.0124217 0.0701849 0.00363625)
(0.0122815 0.0951396 0.0302581)
(0.0118429 0.103772 0.0580614)
(0.00957358 0.0919766 0.0900545)
(0.00575833 0.0769911 0.109801)
(0.0025098 0.0989636 0.0969921)
(0.00413598 0.18065 0.0392617)
(0.0039868 0.245895 -0.0106878)
(0.000937729 0.283078 -0.0314888)
(-0.00163389 0.311794 -0.0307969)
(-0.0036491 0.324942 -0.0229267)
(-0.00289917 0.27071 -0.0112596)
(0.000173119 -0.400321 0.016401)
(0.00239323 -0.547514 0.0186876)
(0.00414116 -0.57304 0.0194228)
(0.00610027 -0.575171 0.0200834)
(0.00829415 -0.566578 0.021082)
(0.0105543 -0.547279 0.0227596)
(0.0128132 -0.51254 0.0252946)
(0.0150017 -0.453503 0.0269274)
(0.0169659 -0.37099 0.0215862)
(0.0179964 -0.287929 0.00684742)
(0.0176925 -0.224164 -0.0108868)
(0.016508 -0.181409 -0.0259016)
(0.0149207 -0.153269 -0.0369194)
(0.0131697 -0.133667 -0.0447179)
(0.0113785 -0.118665 -0.0502627)
(0.00963505 -0.105888 -0.0542046)
(0.00798982 -0.0937382 -0.0568873)
(0.00642714 -0.0808524 -0.0583816)
(0.00486092 -0.0658058 -0.0584133)
(0.00315822 -0.0470373 -0.0562025)
(0.00117485 -0.0230044 -0.0502807)
(-0.00114882 0.0072653 -0.0384984)
(-0.00367422 0.0423808 -0.0190175)
(-0.00634726 0.0759616 0.00717027)
(-0.00922003 0.0987918 0.0356337)
(-0.0123695 0.106821 0.063859)
(-0.0172544 0.101185 0.0920027)
(-0.0248504 0.0934028 0.11272)
(-0.032822 0.112582 0.111774)
(-0.033665 0.183493 0.0779886)
(-0.027388 0.27301 0.0290741)
(-0.0201897 0.333177 -0.00740566)
(-0.0140614 0.357653 -0.0231329)
(-0.00846379 0.349956 -0.0238007)
(-0.00209386 0.250723 -0.00873918)
(0.000837289 -0.412741 0.0137441)
(0.00198954 -0.555126 0.0188427)
(0.00255822 -0.577674 0.020175)
(0.00304792 -0.57742 0.0207721)
(0.00353953 -0.565661 0.0211054)
(0.00381349 -0.540903 0.0211183)
(0.00357957 -0.497675 0.0204328)
(0.00275748 -0.431392 0.0182053)
(0.00182635 -0.348124 0.0124387)
(0.000980067 -0.268974 0.00164219)
(1.33336e-05 -0.211155 -0.0107713)
(-0.000838862 -0.173563 -0.0211005)
(-0.00149876 -0.148262 -0.0287224)
(-0.00212181 -0.129332 -0.034305)
(-0.00280796 -0.113448 -0.0384876)
(-0.00364224 -0.0986727 -0.0416357)
(-0.00471068 -0.0836378 -0.0438696)
(-0.00609885 -0.0671408 -0.0450785)
(-0.00788095 -0.0479981 -0.0448862)
(-0.0100747 -0.0251557 -0.042609)
(-0.0125434 0.00187807 -0.03729)
(-0.014937 0.032376 -0.0279509)
(-0.0168008 0.0637867 -0.0141807)
(-0.0178581 0.0917426 0.00305722)
(-0.0183903 0.111731 0.0212605)
(-0.0191503 0.122361 0.0380337)
(-0.0210311 0.125939 0.0522353)
(-0.0239979 0.126809 0.0628627)
(-0.026863 0.130734 0.0695063)
(-0.0274924 0.14637 0.0708791)
(-0.0229638 0.182433 0.0633781)
(-0.0143555 0.227984 0.0497652)
(-0.00612875 0.267349 0.038501)
(-0.000842149 0.281867 0.0331115)
(0.00156719 0.220789 0.0275573)
(0.000871679 -0.427912 0.0179928)
(1.66485e-05 -0.566122 0.0211773)
(-0.00135608 -0.587139 0.0217865)
(-0.00284213 -0.586119 0.0223965)
(-0.00440204 -0.573605 0.0232721)
(-0.00589435 -0.548038 0.0244239)
(-0.00721254 -0.503946 0.0254015)
(-0.00803004 -0.436364 0.0246301)
(-0.00803738 -0.349817 0.0196126)
(-0.0075567 -0.263136 0.00934599)
(-0.00729652 -0.196454 -0.00290212)
(-0.00752328 -0.152985 -0.0130803)
(-0.00815543 -0.125152 -0.0202164)
(-0.00907831 -0.105652 -0.0250488)
(-0.0102353 -0.0900838 -0.0283505)
(-0.0115933 -0.0759785 -0.0305274)
(-0.0131127 -0.0617681 -0.0316678)
(-0.0147333 -0.0462556 -0.0316081)
(-0.0163631 -0.0285466 -0.0299799)
(-0.0178701 -0.00847396 -0.0263568)
(-0.0190335 0.0128531 -0.0205832)
(-0.0195355 0.0334005 -0.0130113)
(-0.0191589 0.0515055 -0.00425605)
(-0.0178845 0.0664785 0.0051477)
(-0.015915 0.0781686 0.0147925)
(-0.0136062 0.0868206 0.0244358)
(-0.0113386 0.0932232 0.0340681)
(-0.0093994 0.0988898 0.0438615)
(-0.00788363 0.106522 0.0542627)
(-0.0065857 0.121524 0.0657635)
(-0.00524938 0.15448 0.076724)
(-0.00379881 0.212568 0.0808082)
(-0.0026346 0.27391 0.0736296)
(-0.00214893 0.298313 0.0613132)
(-0.000770891 0.242249 0.039084)
(-0.00174426 -0.423481 0.0153592)
(-0.00626939 -0.547356 0.0157468)
(-0.009532 -0.564951 0.0162012)
(-0.01242 -0.563175 0.017115)
(-0.0152378 -0.550537 0.0186351)
(-0.0174569 -0.525546 0.0207565)
(-0.0185718 -0.483834 0.0230332)
(-0.0178365 -0.421934 0.0238745)
(-0.0150727 -0.343768 0.0209533)
(-0.0114251 -0.263772 0.0136425)
(-0.00850995 -0.198316 0.00433524)
(-0.00708413 -0.152061 -0.00400993)
(-0.00698933 -0.120225 -0.0103522)
(-0.0078114 -0.0969311 -0.0149328)
(-0.00922086 -0.0781687 -0.0181844)
(-0.0109997 -0.0616021 -0.0203627)
(-0.012983 -0.0459399 -0.0215367)
(-0.0150134 -0.0304713 -0.0216556)
(-0.0169282 -0.0147397 -0.020597)
(-0.0185572 0.00161803 -0.0181765)
(-0.0197652 0.018685 -0.0141711)
(-0.0206001 0.0357405 -0.00847482)
(-0.0212595 0.051119 -0.0013169)
(-0.0219641 0.0631729 0.00672689)
(-0.0228727 0.0716561 0.0151979)
(-0.0240534 0.0777271 0.02419)
(-0.0255144 0.0830561 0.034149)
(-0.0271898 0.0897411 0.0454786)
(-0.0290017 0.101009 0.0584835)
(-0.0307416 0.122454 0.0731803)
(-0.0312013 0.161412 0.0875889)
(-0.0279109 0.218174 0.0954766)
(-0.0204627 0.270412 0.0899982)
(-0.0120704 0.28254 0.0728559)
(-0.00245913 0.205643 0.0395067)
(-0.00274678 -0.398097 0.0145654)
(-0.00631711 -0.534324 0.0130988)
(-0.0086645 -0.55798 0.0129635)
(-0.0103903 -0.560866 0.0138483)
(-0.0118595 -0.554362 0.0158435)
(-0.0127264 -0.539225 0.01915)
(-0.01265 -0.513026 0.0239333)
(-0.0109776 -0.469235 0.0296763)
(-0.00685822 -0.400944 0.0336382)
(-0.000507543 -0.313325 0.0317025)
(0.00599693 -0.227008 0.0234004)
(0.0105217 -0.159578 0.0128099)
(0.0125927 -0.113256 0.00357972)