/*--------------------------------*- C++ -*----------------------------------*\
| =========                 |                                                 |
| \\      /  F ield         | OpenFOAM: The Open Source CFD Toolbox           |
|  \\    /   O peration     | Version:  v1912                                 |
|   \\  /    A nd           | Website:  www.openfoam.com                      |
|    \\/     M anipulation  |                                                 |
\*---------------------------------------------------------------------------*/
FoamFile
{
    version     2.0;
    format      ascii;
    class       volScalarField;
    location    "520/oil";
    object      heatTransferCoeff(T);
}
// * * * * * * * * * * * * * * * * * * * * * * * * * * * * * * * * * * * * * //

dimensions      [1 0 -3 -1 0 0 0];


internalField   uniform 0;

boundaryField
{
    maxY
    {
        type            calculated;
        value           uniform 0;
    }
    minX
    {
        type            calculated;
        value           uniform 0;
    }
    maxX
    {
        type            calculated;
        value           uniform 0;
    }
    minY
    {
        type            calculated;
        value           uniform 0;
    }
    minZ
    {
        type            calculated;
        value           uniform 0;
    }
    maxZ
    {
        type            calculated;
        value           uniform 0;
    }
    oil_to_sphere
    {
        type            calculated;
        value           nonuniform List<scalar> 
1536
(
-10.8162
-5.5574
-5.42188
4.12357
4.3367
-5.31793
-1.06185
-2.83635
-2.20646
3.27786
7.14856
2.55111
-2.11551
2.36352
8.36099
-0.499027
-5.32601
-5.67555
-0.221136
-1.83803
-4.05676
-2.29533
-2.65826
-0.442235
-0.951859
-0.69622
-0.941009
0.199396
-4.99735
-2.45523
-6.57317
-5.59789
-5.77466
-0.562583
-0.868622
0.148058
-0.343288
1.20044
0.236951
-0.917109
0.447672
-0.312766
-2.0259
-3.09362
-4.38186
-0.851422
-3.9169
-2.55194
7.94351
-0.662087
-3.56459
-2.27721
-2.45211
-0.44378
-4.82769
-8.41889
-2.6038
-1.84869
-3.9672
-3.48926
-1.88982
-2.06124
-1.78269
-0.302582
-0.810517
-1.66059
-1.82561
-3.68069
-3.64569
-4.81101
-0.27687
4.37779
2.66919
-0.708686
-0.688946
-8.76838
-5.84447
1.17369
-0.510568
-5.48794
-4.12745
-3.34273
4.06809
4.20244
-4.97157
-9.79168
5.4419
-1.38087
-3.49148
-3.46821
-2.18711
-0.028325
0.0624328
-0.177453
-0.678151
-3.05119
-3.99684
-4.36166
-6.23013
-3.34734
-4.16121
-0.202991
-10.8919
-3.60464
2.89944
-0.584756
-1.02096
3.7561
3.8123
-11.018
-5.7927
-2.80196
-2.02219
-2.66419
4.82215
4.32775
5.86279
-7.45294
-10.3205
-6.0782
-2.43297
-2.66477
0.296844
-3.93644
-6.51887
-3.06285
-2.40452
0.642438
-4.26013
-3.95887
-1.68051
-3.74557
-4.76112
-1.0817
-1.40299
-5.08114
-2.69502
-5.527
0.546207
-5.37963
-2.25857
-3.89616
-3.95088
-2.09917
-1.4965
-1.98163
-3.16134
-7.17221
-1.36564
-11.1138
-4.60531
-5.30284
-2.60413
-2.89105
-0.724944
-3.04097
-5.05709
-3.78415
-11.9593
-6.14344
-5.77977
-7.41002
1.94299
1.1113
-0.0985248
-0.0162778
-4.77305
-6.96847
-6.2432
-8.4048
0.230487
-0.0947851
1.12989
-4.00255
-2.36977
-2.86839
-9.33848
1.75945
3.0287
-9.79903
0.0826908
1.0282
1.236
0.738422
-3.40439
-9.79908
-6.17848
0.475115
2.15473
-5.58737
1.81954
-4.68217
-4.70052
-7.03623
2.61213
9.51553
-6.83239
-7.56211
-0.904642
-0.660659
-2.2948
-1.12927
-5.66268
-6.76857
-4.46719
-3.35489
-0.114252
-7.17633
-6.26212
-2.75249
0.643074
-0.809038
-0.595893
-1.16869
-4.09002
-8.57652
2.24068
2.44989
2.28553
10.2393
-5.29203
-4.03682
-3.30446
-2.24184
-2.46289
-7.17611
-4.64159
-0.684972
-5.31782
3.24505
0.133462
9.28833
-2.08737
-4.93226
-6.85838
-6.30553
-5.32813
-4.22934
-6.06678
2.6631
1.90508
1.34264
-7.68961
0.920856
9.40737
5.66254
-4.08579
-1.80005
-9.40152
-11.727
-2.75104
4.22468
10.0887
-3.47131
-6.06185
-0.19176
-0.352307
5.0474
0.00203742
-7.16466
-9.98895
-1.76048
-0.333465
-8.16464
-6.19474
-0.766918
2.81559
-1.36942
-8.7458
-7.49749
-4.24118
-4.71502
-6.63958
1.24706
-0.563418
-6.91221
-4.70607
-5.39694
-2.01971
-5.32154
-8.42998
-4.40449
-3.97626
-7.87374
-0.21677
-0.157913
-0.600623
0.227782
-0.0712568
-7.10716
-8.91893
2.72252
-1.25079
-0.969669
-1.16169
0.488205
-2.45995
-1.95794
1.03635
4.98522
0.0618296
2.49292
0.509637
-9.80852
-7.99779
-7.89422
-11.2012
1.5688
1.18857
-2.21421
-11.1401
-9.88887
0.137479
-2.05272
0.408986
-4.60595
-0.433271
-3.94448
-4.38088
-5.8478
-4.86578
-0.852991
-5.04122
0.114097
-6.66702
-7.34341
-5.50743
-5.07434
0.876843
-9.05147
-8.78945
-4.44057
2.72941
-0.158833
-1.07615
-4.40013
-3.88435
-4.67541
1.04803
-6.58046
-6.6178
-5.91055
-7.86306
-3.72603
-3.06112
-1.83169
1.92159
-3.07619
-4.49408
1.96299
2.33485
1.40501
-10.55
-6.45799
-7.85784
-3.84584
-2.96458
-6.96008
2.20756
-9.41351
-5.85222
-3.08439
-2.96665
2.55258
-5.7688
-6.34117
0.688757
-3.09943
-1.71947
-0.345826
-4.6144
-6.4931
-2.02055
-0.72241
1.54189
-8.58981
-6.7068
2.38688
-7.0067
-6.25872
-5.29099
-8.57966
-3.01821
-4.88956
3.42166
2.55825
-4.35495
-11.0121
-5.52042
-9.33734
-3.75861
-1.03505
-6.20041
1.4519
0.451034
-3.88017
-6.39753
-4.69187
-3.90655
1.23892
1.1809
-6.93123
-6.53828
-6.71995
-2.88337
-0.00491036
-4.04274
-5.08687
-6.34466
-3.19051
-1.37624
0.887228
-2.73462
1.71006
3.74241
-0.147498
0.82794
-2.82344
3.22798
-1.10249
-9.02261
-0.982095
-0.917734
-6.33221
-6.27727
-4.52272
-1.73813
2.01159
-5.46874
-7.93227
-4.25599
-3.24097
-5.68533
-2.06452
-2.6281
-3.7512
4.12491
-4.13088
-6.63319
-7.80148
-6.13597
-4.94856
-4.74394
-3.24427
-1.49353
1.44299
-2.39231
0.865661
2.53603
0.386019
3.7611
-9.96801
-9.24662
-7.38408
-10.6659
1.69043
-10.0442
1.08459
0.0524872
-5.29739
2.08821
1.24979
-1.16606
-1.00779
-9.42617
-7.94658
-3.7704
-4.13462
-8.49541
-6.96184
-3.1911
-5.04296
0.556303
-6.41288
2.72758
-7.73997
4.1709
-4.77788
-5.43281
-6.12682
-0.822303
1.47469
-1.64093
-6.29389
-1.8872
3.10822
-6.35379
-6.78225
-7.33756
-11.4689
-3.07207
-8.34802
1.61525
0.956026
7.72263
5.6359
-3.18065
-1.15915
-0.472731
0.383296
-10.4185
1.31505
2.17742
2.90425
-1.10878
3.36043
-11.8841
0.628627
0.236973
-2.41618
7.01869
5.13772
-0.186995
-0.0487173
-2.03622
-0.707913
-6.74785
-6.10944
-4.76935
-3.1371
3.60492
-0.443892
-5.89866
1.45288
0.665412
-5.4844
-8.65767
0.592838
7.80135
1.91349
7.17303
-2.31599
-0.840157
0.219394
2.77966
7.01879
-4.61313
-5.35969
-3.92451
-2.20714
-8.78296
-4.78549
-4.4283
-2.97077
0.915026
-0.636211
-6.72237
-4.77253
-1.31178
5.83363
-3.3346
-5.63034
-9.08545
-3.51117
-0.0748818
-9.14818
-2.36947
-8.42082
0.603376
-0.871754
1.28653
-0.981768
-3.43558
-8.68171
1.80887
0.243983
0.941441
-1.08928
-12.0623
2.82443
-0.560436
2.25158
-2.40398
-3.40901
-6.76273
-8.80751
3.7112
2.69547
-8.7167
-9.32627
4.62328
-8.34798
-7.03052
-5.50255
-6.83087
-4.41195
-2.72562
-3.02616
-8.53629
-3.15723
-4.52171
-2.71595
-6.36683
-3.52702
-2.32271
-1.95909
1.91066
-5.49549
-2.13901
-6.2731
-4.91448
-5.01988
-4.75046
-3.19436
2.56813
-6.87179
-6.82469
-4.58155
-2.26573
-3.64073
-10.8484
3.48637
0.69291
1.70535
-3.24968
0.60039
-10.9096
-0.988659
-1.52211
-2.51993
7.62351
6.73498
-0.348289
-0.244082
-3.02482
1.28297
0.332179
-3.3848
0.264481
-8.85655
2.04644
-10.5929
-0.805507
-3.1111
9.47525
6.94006
7.79272
0.218594
-5.51541
-0.526925
0.202084
7.09672
-2.82403
-5.74709
-2.92655
-13.2755
0.600908
-6.73482
-4.37989
-5.71605
-7.17566
-6.942
-5.64131
-2.42147
-1.36601
-2.37219
-5.71029
-1.7387
-3.99497
-3.42834
-3.88524
-6.15773
-4.77738
-5.46465
2.03895
0.838047
9.66134
4.97611
3.87414
12.7286
-0.160527
-0.719866
-1.75303
-2.30205
3.74937
1.81569
-1.29543
-7.52594
-6.9038
-1.19528
2.97775
-2.09272
-5.99141
-4.47055
-2.58377
3.3626
0.60341
-4.6585
-3.62132
-2.4872
-0.328377
-5.14724
-5.21966
-8.578
-5.30487
-3.28001
-0.715469
0.413479
1.9922
0.0367823
-1.77878
-11.1963
-3.18808
-9.77422
0.695314
-11.6039
-0.179833
-1.93703
1.63939
1.13343
-0.767055
2.14751
-1.64296
3.26685
-0.416259
-6.6209
-1.09015
2.44755
-8.91983
-4.98134
-4.0922
-2.12846
-8.30947
-14.0372
4.89148
-4.84318
-3.72884
-4.50341
2.18103
-2.22297
0.440584
-3.81648
-5.28252
-7.00582
0.973357
-4.62218
-2.92328
-5.22298
-4.89479
-4.39594
-1.20052
-1.82075
-0.469032
3.05755
3.62547
1.35932
-8.14429
-0.434764
2.21738
-0.583969
-6.76986
-1.58731
-8.08625
-6.07062
-4.22752
-3.26657
-4.1145
-9.21178
1.34714
-4.76308
-7.03059
-7.60605
-3.15889
0.477195
-1.44364
-4.12663
-7.75574
1.72155
-1.88192
-2.99185
-6.64251
-4.17027
-4.02908
-8.27955
1.62039
0.259427
0.928904
-9.23144
-6.93741
-3.06789
-6.59384
0.195588
-0.400454
-6.5753
-3.97473
-8.62388
1.10414
-5.76798
-6.38946
-3.42817
-3.8569
-5.46409
1.03183
3.91322
-2.6744
-4.01254
-9.35694
-2.01598
-0.0617629
-2.37147
-4.18909
-5.67918
-3.28113
0.36883
-2.06132
-6.35838
1.69368
0.329975
-2.07589
-0.343316
-3.71097
-3.24426
-7.49385
-4.46367
-6.11707
-0.550565
-2.40553
-3.70204
-2.24213
-1.44381
-0.701749
-0.64045
1.5118
-5.07832
-3.56791
-3.58358
-4.2481
2.69622
-1.0042
-9.02882
-9.16281
0.353351
-6.70684
-4.16471
-5.05468
-0.550374
-7.66336
-7.31888
1.20766
-1.58382
-0.921807
-0.699011
2.90439
1.78989
-0.924136
-7.18059
-10.8115
-0.0841519
-5.41577
-5.05686
-4.06402
-1.74741
-3.73986
-7.45093
-3.49717
1.05108
-1.04222
-0.581479
-0.782139
-4.50505
-4.98585
-5.10231
-5.36818
-5.31282
0.336058
-5.64325
-1.1662
-4.77943
7.02476
-4.26574
-8.00394
-1.42292
4.89912
-2.5318
-1.80636
-9.78639
0.842791
-5.64988
-2.32087
3.99608
-8.8195
2.46777
-1.89286
-2.7541
2.7619
-6.70846
-3.80477
-1.73655
-3.00345
-3.76703
-1.89563
-10.0912
2.34751
-0.822381
8.41597
-1.11812
-1.46433
-2.92692
-6.66248
-14.3627
3.23231
-0.866123
-12.6554
2.4336
-5.24835
0.479678
-5.04194
5.35761
0.832441
-12.4788
4.33668
-11.2559
3.47827
-9.50492
3.95131
0.906616
7.88686
2.35892
-11.7427
6.46623
-2.20466
4.3672
-8.25381
-11.8142
6.18924
-1.41535
-0.213155
1.03359
1.19726
-0.966414
-2.81105
-2.78392
-4.91026
-2.3828
-8.43691
-13.0871
6.30962
-2.70141
-4.27812
-2.80808
-3.42221
-2.11143
-1.41843
-2.09288
-5.9535
-2.21096
-6.06426
-0.746978
-3.54796
-8.00109
-1.38959
-4.71546
-6.80592
-0.729841
-3.54764
-2.33602
-4.84285
-1.91792
-3.11837
-1.5218
-6.54642
-1.07436
-4.04403
3.54759
-8.64968
5.93658
-3.94669
-6.31079
-8.91594
0.718494
-3.32479
-2.40269
-3.33149
-2.89767
-2.19669
-5.86836
1.327
9.67901
-1.34128
4.83755
-6.95498
0.626048
-2.66367
-5.07936
9.01045
-7.61338
1.5729
7.33433
1.02424
-5.29052
-4.96433
-2.8675
6.36082
-2.76788
-3.52663
-0.0338227
0.586629
-7.11742
-6.39703
-0.448227
-3.01311
-7.14838
6.24275
-5.81988
0.69995
-4.72273
5.75431
-10.742
-10.3929
-6.39973
-2.75967
-1.41052
-5.09437
-1.20277
6.43678
1.70707
-5.45549
0.463322
-4.31417
4.93403
-6.81907
-4.67706
11.5399
-2.79693
-3.81003
8.66433
-7.77937
3.67472
-7.04236
-8.72381
-5.75314
7.13942
-3.08346
-1.62991
-2.85958
-3.19107
-4.37359
6.1542
-0.629787
0.327818
0.305082
-6.66638
-2.57871
-3.83956
-4.97927
-4.71172
-1.55741
-3.2629
-1.8083
-4.00396
-7.26742
-0.443138
-1.33521
-0.174261
-3.11859
-6.25642
-0.376673
-1.21044
-0.801507
-2.65153
0.363433
-0.0117818
-1.16535
-1.52078
-3.17391
-0.992842
-8.62494
-5.86068
4.50941
4.40631
-7.80996
12.693
-5.57861
-3.48953
0.390446
-1.52935
-7.98971
9.03375
-6.96478
-3.85262
6.75261
-0.85753
-0.0017617
-2.59132
9.52355
-7.82258
-3.97587
8.85175
-7.43913
-7.49232
5.50591
-8.96644
-6.37381
5.37828
-0.13243
0.34894
8.92348
-2.7783
-3.31166
1.67185
0.695918
1.16179
11.2315
0.800953
9.4368
11.8613
-6.59109
-0.176625
-11.7625
-0.406566
6.21245
-7.92067
-1.77709
7.93344
-0.424367
-0.183816
8.04685
4.38851
-7.47557
14.2256
1.6696
2.63078
12.7501
-6.94033
-6.04095
-2.74139
-1.11141
-0.0890505
1.62387
10.2553
-2.89516
-1.20098
-1.40941
-2.75661
7.31003
-5.30309
-0.462589
-2.19563
-0.030392
-2.03376
-3.14477
1.9325
6.8853
-0.942474
-3.28011
-0.365948
-1.09113
-2.33601
0.715581
-1.30346
7.54834
-0.438545
-3.78351
-0.104014
-1.56734
0.575231
6.73346
-7.95357
-7.75916
-7.39575
-8.93579
5.55736
8.5908
-0.518267
-5.52487
-3.29038
-5.19668
-5.939
1.65275
2.66061
8.4718
6.22575
0.734938
-2.2626
-1.96239
-1.74829
2.6524
-6.66912
-3.90535
5.27751
0.915577
1.85623
-5.84048
0.614169
10.3132
-2.16245
-2.53761
-6.9163
7.71592
-0.0665215
-3.14761
-0.736846
-1.55064
-5.01681
-2.14215
1.51761
-9.46396
11.9499
3.50746
-1.61858
0.672808
-0.981066
-8.88176
-4.06678
-2.56193
3.25566
-8.05099
-0.623789
-3.12921
-5.92884
-6.91385
-6.53212
-6.88098
-8.51865
-9.5983
-8.33687
-8.35408
-2.57961
-6.15435
-0.429954
-1.52686
2.81314
4.03311
11.0825
-9.08357
-8.77295
-7.37325
-1.31714
-3.17285
-2.85344
0.515311
-3.42769
-6.08487
1.36469
-1.79843
-4.78939
-0.0994572
-0.537606
-0.300735
-1.25071
0.743089
-1.10118
-0.697654
5.72469
-3.10424
1.2932
-1.7631
8.03762
-9.0214
-1.97517
0.189579
0.925664
5.17759
-2.49871
0.058715
8.84715
3.43082
-1.86364
4.22506
3.00526
-9.82411
-10.3483
-0.738793
-0.785796
-5.41444
-8.81277
8.967
0.631476
0.752554
-1.01173
-0.973962
-1.37815
-2.09249
2.76268
6.56515
-7.76547
-0.858751
3.72481
2.85401
-0.744149
-2.65074
5.09375
-1.42612
0.555446
-0.428571
-8.90014
3.583
6.40237
-0.956309
-0.0689871
0.7688
6.44232
-6.93729
-0.658964
-0.46869
-0.702161
8.78001
-0.714483
-0.96189
6.21551
-0.591552
3.45533
-3.9368
-7.65831
0.543921
-6.16055
-3.73302
0.356754
0.177999
-1.11992
6.43443
-3.60064
-4.26479
-0.242724
7.7326
1.97624
-1.62901
-1.9724
0.457008
6.94669
0.265591
-6.93347
-3.72389
0.170961
-9.67824
3.54068
-5.83529
8.58502
3.81235
-6.23411
8.78514
-6.59763
0.270637
-2.62859
-0.443651
-10.1797
2.43652
-2.75044
-8.92864
-7.99741
4.6027
-7.67681
-8.90867
12.4324
-1.39123
-0.0338498
8.29642
-4.18149
0.0726233
-0.482612
-0.499467
-2.16684
-1.42243
-0.252855
0.168621
8.59952
-4.18773
-2.60447
-2.34402
-3.10949
-1.3174
0.376133
1.90946
-5.25408
10.0416
0.877139
1.19637
9.62529
-6.35172
-9.386
-1.80698
-7.35714
-8.00827
0.562688
0.519035
-4.147
-7.30507
0.752721
-4.73988
2.88248
8.29416
-5.40871
1.2999
-6.91998
-9.62713
-8.75448
7.71893
-5.95741
-2.73147
1.55754
-0.201306
-0.990231
0.0274878
7.5235
-7.19799
7.18983
-7.02082
-1.24435
2.88249
3.84158
-1.2768
-4.94547
-8.35815
-2.44892
-11.1853
-5.53908
-6.65554
9.03785
-6.10392
-5.168
-6.93479
0.602722
1.43112
10.1203
-1.9033
-10.785
-7.3864
6.67468
2.53716
7.33087
0.607927
-2.11074
3.00182
-13.521
-0.501405
2.5009
6.42806
-3.65514
1.32969
9.37546
-1.50918
0.136918
-0.0335997
-0.196451
-0.270335
6.33415
2.88808
8.23048
0.100394
-5.47188
-3.97533
-7.66335
-6.91308
0.866554
1.883
8.66452
0.293103
-4.93226
-8.18635
-5.51836
-5.86355
3.687
9.74102
2.34912
10.4692
-5.37347
-5.75495
1.87743
-6.52666
-5.24418
-7.70778
-3.3456
-2.64251
-2.4989
0.866815
8.83422
2.15432
7.78571
3.23068
-0.202989
0.462088
5.69288
7.7897
-4.66833
-10.8414
-9.66925
-8.75623
-2.37062
-4.51042
-4.3138
-1.8789
-0.169919
-1.89325
1.57082
-1.21601
-1.2621
7.72978
-5.2009
-0.836388
2.51034
5.87714
0.232732
-2.25743
-2.2015
0.444208
5.82803
-8.43
-3.60178
0.0140052
-9.56143
1.3826
8.15768
-3.94185
-1.23123
-1.29555
-1.30051
0.303587
10.0923
-1.20732
-1.15673
7.11144
-8.05848
-0.654322
14.2048
-0.181502
-2.04269
-2.38503
0.332474
7.54876
1.06709
0.80487
4.02912
-1.53458
8.60342
-1.76452
-1.46571
4.46177
-9.38802
-1.1284
6.22457
-10.4396
-1.92926
-1.92302
5.96026
-1.46835
7.23151
)
;
    }
}


// ************************************************************************* //
