/*--------------------------------*- C++ -*----------------------------------*\
| =========                 |                                                 |
| \\      /  F ield         | OpenFOAM: The Open Source CFD Toolbox           |
|  \\    /   O peration     | Version:  v1912                                 |
|   \\  /    A nd           | Website:  www.openfoam.com                      |
|    \\/     M anipulation  |                                                 |
\*---------------------------------------------------------------------------*/
FoamFile
{
    version     2.0;
    format      ascii;
    class       volScalarField;
    location    "520/oil";
    object      wallHeatFlux;
}
// * * * * * * * * * * * * * * * * * * * * * * * * * * * * * * * * * * * * * //

dimensions      [1 0 -3 0 0 0 0];


internalField   uniform 0;

boundaryField
{
    maxY
    {
        type            calculated;
        value           uniform 0;
    }
    minX
    {
        type            calculated;
        value           uniform 0;
    }
    maxX
    {
        type            calculated;
        value           uniform 0;
    }
    minY
    {
        type            calculated;
        value           uniform 0;
    }
    minZ
    {
        type            calculated;
        value           uniform 0;
    }
    maxZ
    {
        type            calculated;
        value           uniform 0;
    }
    oil_to_sphere
    {
        type            calculated;
        value           nonuniform List<scalar> 
1536
(
582.567
299.327
292.029
-222.105
-233.586
286.43
57.1928
152.771
118.844
-176.553
-385.046
-137.408
113.944
-127.304
-450.351
26.8784
286.868
305.694
11.9109
98.999
218.502
123.631
143.179
23.8197
51.269
37.4998
50.6847
-10.7399
269.162
132.242
354.036
301.508
311.028
30.3019
46.7857
-7.97472
18.4901
-64.6584
-12.7626
49.3972
-24.1125
16.8462
109.118
166.626
236.012
45.8588
210.971
137.452
-427.86
35.6611
191.993
122.653
132.075
23.9029
260.025
453.447
140.244
99.5729
213.679
187.937
101.789
111.022
96.0187
16.2977
43.6559
89.4423
98.3306
198.246
196.361
259.125
14.9129
-235.797
-143.768
38.1709
37.1084
472.27
314.788
-63.2168
27.5
295.589
222.311
180.045
-219.118
-226.354
267.774
527.386
-293.115
74.3753
188.055
186.803
117.801
1.52565
-3.36277
9.55798
36.5264
164.342
215.276
234.923
335.559
180.292
224.127
10.9336
586.643
194.149
-156.17
31.4959
54.9915
-202.311
-205.339
593.433
312
150.916
108.919
143.498
-259.734
-233.103
-315.787
401.421
555.869
327.377
131.043
143.528
-15.9887
212.021
351.113
164.97
129.511
-34.6029
229.458
213.231
90.5156
201.741
256.439
58.2622
75.5673
273.678
145.158
297.691
-29.4196
289.753
121.65
209.853
212.8
113.065
80.6038
106.734
170.275
386.303
73.556
598.6
248.047
285.618
140.262
155.716
39.0467
163.791
272.381
203.82
644.136
330.894
311.306
399.115
-104.653
-59.8572
5.30674
0.876754
257.083
375.329
336.266
452.692
-12.4144
5.10528
-60.858
215.583
127.64
154.496
502.98
-94.7683
-163.134
527.786
-4.45389
-55.3808
-66.5734
-39.773
183.367
527.787
332.783
-25.5906
-116.059
300.941
-98.0038
252.186
253.174
378.976
-140.696
-512.539
367.999
407.302
48.7255
35.5841
123.601
60.8242
304.999
364.562
240.608
180.7
6.15384
386.525
337.286
148.254
-34.6372
43.5762
32.0959
62.9474
220.295
461.942
-120.688
-131.957
-123.104
-551.52
285.033
217.427
177.981
120.748
132.654
386.516
250.005
36.894
286.428
-174.788
-7.18863
-500.305
112.428
265.656
369.4
339.625
286.98
227.799
326.765
-143.439
-102.611
-72.3174
414.172
-49.5993
-506.712
-304.997
220.065
96.9528
506.371
631.622
148.174
-227.554
-543.413
186.969
326.497
10.3285
18.9758
-271.867
-0.10974
385.899
538.018
94.8232
17.9612
439.757
333.659
41.3077
-151.654
73.7597
471.056
403.82
228.435
253.956
357.615
-67.1688
30.3466
372.298
253.474
290.685
108.785
286.625
454.049
237.232
214.168
424.088
11.6756
8.50544
32.3504
-12.2688
3.83804
382.802
480.387
-146.643
67.3698
52.2281
62.5708
-26.2957
132.496
105.458
-55.8193
-268.514
-3.33024
-134.273
-27.4499
528.29
430.765
425.191
603.31
-84.4992
-64.0189
119.262
600.015
532.627
-7.40489
110.563
-22.0288
248.082
23.3367
212.455
235.959
314.968
262.075
45.9434
271.526
-6.14546
359.091
395.521
296.635
273.309
-47.2282
487.517
473.405
239.174
-147.011
8.55497
57.963
236.996
209.215
251.822
-56.4485
354.429
356.441
318.347
423.508
200.687
164.875
98.6568
-103.5
165.688
242.056
-105.73
-125.759
-75.676
568.225
347.835
423.231
207.142
159.677
374.878
-118.904
507.019
315.208
166.13
159.788
-137.488
310.716
341.541
-37.0975
166.939
92.6131
18.6267
248.535
349.723
108.829
38.9099
-83.0487
462.652
361.233
-128.563
377.389
337.103
284.98
462.109
162.566
263.359
-184.299
-137.793
234.565
593.122
297.338
502.918
202.444
55.7498
333.963
-78.2028
-24.2936
208.992
344.577
252.709
210.41
-66.7304
-63.6052
373.321
352.157
361.942
155.302
0.26448
217.746
273.983
341.727
171.844
74.1263
-47.7882
147.292
-92.1079
-201.576
7.94454
-44.5946
152.075
-173.866
59.382
485.966
52.8975
49.4306
341.059
338.101
243.599
93.6184
-108.349
294.553
427.241
229.233
174.563
306.218
111.198
141.553
202.044
-222.177
222.495
357.271
420.196
330.489
266.536
255.514
174.74
80.4439
-77.722
128.854
-46.626
-136.595
-20.7916
-202.581
536.881
498.028
397.712
574.474
-91.05
540.989
-58.4182
-2.82706
285.323
-112.475
-67.3158
62.806
54.2808
507.7
428.011
203.079
222.696
457.569
374.973
171.877
271.62
-29.9635
345.405
-146.914
416.883
-224.652
257.341
292.616
329.994
44.2903
-79.4291
88.3827
338.993
101.647
-167.414
342.22
365.297
395.214
617.728
165.468
449.636
-87.0018
-51.494
-415.961
-303.562
171.314
62.4335
25.462
-20.645
561.155
-70.832
-117.282
-156.431
59.7221
-181.003
640.094
-33.859
-12.7637
130.139
-378.043
-276.729
10.0718
2.62399
109.673
38.1295
363.447
329.063
256.884
168.969
-194.17
23.909
317.711
-78.2556
-35.8405
295.397
466.311
-31.9316
-420.206
-103.065
-386.362
124.743
45.2523
-11.817
-149.719
-378.051
248.467
288.678
211.378
118.879
473.056
257.752
238.512
160.01
-49.2847
34.2673
362.072
257.053
70.6542
-314.213
179.606
303.257
489.349
189.116
4.0333
492.73
127.624
453.555
-32.4992
46.9544
-69.2956
52.8799
185.045
467.605
-97.4298
-13.1414
-50.7079
58.6711
649.684
-152.13
30.186
-121.275
129.482
183.613
364.246
474.379
-199.893
-145.184
469.489
502.321
-249.021
449.631
378.673
296.374
367.918
237.633
146.806
162.993
459.774
170.053
243.545
146.285
342.925
189.971
125.104
105.519
-102.911
295.992
115.21
337.875
264.699
270.375
255.864
172.052
-138.323
370.12
367.582
246.766
122.035
196.093
584.308
-187.786
-37.3218
-91.8546
175.035
-32.3385
587.605
53.2507
81.9833
135.727
-410.62
-362.762
18.7594
13.1466
162.92
-69.1044
-17.892
182.314
-14.2457
477.028
-110.227
570.544
43.3866
167.57
-510.372
-373.809
-419.736
-11.7738
297.065
28.3811
-10.8846
-382.246
152.105
309.544
157.627
715.022
-32.3662
362.747
235.909
307.875
386.491
373.905
303.849
130.425
73.576
127.771
307.565
93.6492
215.175
184.656
209.265
331.666
257.318
294.334
-109.823
-45.1392
-520.393
-268.025
-208.672
-685.609
8.64625
38.7733
94.4212
123.992
-201.951
-97.7963
69.7737
405.352
371.844
64.3795
-160.387
112.717
322.704
240.79
139.165
-181.116
-32.5005
250.912
195.048
133.963
17.6869
277.235
281.136
462.016
285.724
176.665
38.5362
-22.2709
-107.305
-1.98119
95.8084
603.044
171.715
526.448
-37.4512
624.995
9.68614
104.331
-88.3011
-61.0491
41.315
-115.669
88.4925
-175.959
22.4204
356.609
58.7174
-131.83
480.429
268.301
220.411
114.642
447.555
756.049
-263.467
260.859
200.839
242.558
-117.474
119.732
-23.7306
205.561
284.523
377.341
-52.4267
248.955
157.452
281.314
263.639
236.77
64.6621
98.068
25.2628
-164.685
-195.275
-73.2151
438.655
23.4171
-119.433
31.4537
364.634
85.4955
435.533
326.971
227.699
175.942
221.613
496.156
-72.5597
256.544
378.673
409.666
170.141
-25.7025
77.7564
222.264
417.73
-92.7262
101.363
161.145
357.771
224.615
217.011
445.944
-87.2773
-13.9731
-50.0325
497.217
373.658
165.242
355.154
-10.5347
21.5693
354.154
214.085
464.492
-59.4712
310.671
344.145
184.646
207.738
294.303
-55.5766
-210.774
144.046
216.12
503.97
108.584
3.32664
127.73
225.629
305.886
176.725
-19.8657
111.025
342.468
-91.2246
-17.773
111.81
18.4916
199.877
174.74
403.623
240.418
329.47
29.6545
129.566
199.398
120.765
77.7663
37.7976
34.4959
-81.4288
273.524
192.173
193.016
228.809
-145.224
54.0878
486.299
493.516
-19.0322
361.238
224.317
272.251
29.6441
412.755
394.202
-65.0466
85.3071
49.6502
37.6498
-156.436
-96.4067
49.7755
386.753
582.313
4.53258
291.699
272.368
218.893
94.1177
201.433
401.314
188.363
-56.6133
56.1354
31.3195
42.1272
242.647
268.543
274.816
289.136
286.153
-18.1006
303.952
62.8136
257.427
-378.372
229.76
431.096
76.6403
-263.88
136.368
97.2941
527.098
-45.3941
304.308
125.007
-215.239
475.029
-132.919
101.952
148.339
-148.763
361.327
204.93
93.5335
161.772
202.897
102.102
543.522
-126.443
44.295
-453.312
60.2241
78.871
157.649
358.848
773.574
-174.1
46.651
681.621
-131.079
282.683
-25.8364
271.565
-288.576
-44.837
672.11
-233.584
606.248
-187.348
511.946
-212.827
-48.8322
-424.812
-127.057
632.465
-348.29
118.748
-235.229
444.562
636.319
-333.371
76.2333
11.4809
-55.6712
-64.4866
52.0527
151.407
149.947
264.473
128.342
454.422
704.879
-339.856
145.503
230.426
151.247
184.324
113.724
76.3991
112.725
320.66
119.085
326.631
40.2335
191.099
430.942
74.8451
253.983
366.575
39.3106
191.083
125.821
260.84
103.302
167.961
81.9667
352.597
57.8667
217.818
-191.081
465.879
-319.761
212.575
339.907
480.216
-38.6992
179.077
129.412
179.44
156.074
118.318
316.074
-71.4743
-521.347
72.2444
-260.565
374.606
-33.72
143.469
273.585
-485.337
410.071
-84.7206
-395.05
-55.1684
284.952
267.387
154.449
-342.611
149.083
189.95
1.82174
-31.5969
383.354
344.553
24.1424
162.291
385.02
-336.252
313.466
-37.7005
254.371
-309.942
578.573
559.766
344.698
148.64
75.9735
274.39
64.7835
-346.702
-91.9453
293.837
-24.9552
232.37
-265.761
367.286
251.916
-621.58
150.649
205.213
-466.693
419.012
-197.931
379.313
469.879
309.876
-384.552
166.079
87.7895
154.023
171.877
235.57
-331.483
33.9217
-17.6568
-16.4322
359.061
138.893
206.806
268.19
253.779
83.8845
175.743
97.3977
215.66
391.431
23.8682
71.916
9.38599
167.974
336.978
20.2883
65.1959
43.1704
142.816
-19.5752
0.634586
62.7677
81.912
170.952
53.4769
464.546
315.663
-242.888
-237.337
420.657
-683.696
300.471
187.951
-21.0302
82.3735
430.335
-486.583
375.13
207.508
-363.713
46.1881
0.0948888
139.572
-512.966
421.332
214.147
-476.781
400.678
403.544
-296.562
482.939
343.301
-289.688
7.13293
-18.7946
-480.644
149.644
178.372
-90.0502
-37.4837
-62.5766
-604.967
-43.1412
-508.297
-638.895
355.007
9.51333
633.533
21.8984
-334.619
426.615
95.7173
-427.319
22.8572
9.90072
-433.425
-236.378
402.647
-766.25
-89.929
-141.701
-686.772
373.817
325.375
147.656
59.863
4.79648
-87.4658
-552.388
155.937
64.6863
75.9127
148.475
-393.735
285.63
24.9156
118.261
1.63698
109.542
169.383
-104.088
-370.86
50.7634
176.672
19.7106
58.7703
125.821
-38.5425
70.2064
-406.571
23.6207
203.784
5.60234
84.4192
-30.9829
-362.679
428.384
417.913
398.34
481.287
-299.332
-462.728
27.9151
297.579
177.225
279.902
319.884
-89.0212
-143.307
-456.318
-335.337
-39.5852
121.867
105.698
94.1663
-142.863
359.204
210.347
-284.258
-49.3144
-99.9812
314.574
-33.0806
-555.505
116.475
136.68
372.518
-415.6
3.58298
169.535
39.6876
83.5198
270.21
115.379
-81.7412
509.732
-643.664
-188.921
87.1798
-36.2387
52.8422
478.377
219.044
137.991
-175.358
433.631
33.5982
168.543
319.334
372.387
351.827
370.617
458.821
516.973
449.03
449.96
138.943
331.483
23.1583
82.2399
-151.524
-217.235
-596.946
489.25
472.517
397.129
70.9432
170.894
153.69
-27.7556
184.62
327.738
-73.5048
96.8667
257.963
5.35693
28.9564
16.1981
67.3649
-40.024
59.3114
37.5768
-308.345
167.199
-69.6542
94.9634
-432.927
485.899
106.385
-10.2111
-49.8579
-278.876
134.584
-3.16248
-476.529
-184.791
100.378
-227.57
-161.868
529.128
557.36
39.7924
42.324
291.627
474.666
-482.989
-34.0126
-40.5339
54.4935
52.4595
74.2298
112.706
-148.805
-353.616
418.258
46.2538
-200.628
-153.723
40.0809
142.772
-274.359
76.8126
-29.9172
23.0835
479.373
-192.989
-344.849
51.5087
3.71578
-41.4094
-347.001
373.654
35.4931
25.2443
37.8194
-472.915
38.4831
51.8088
-334.781
31.8619
-186.113
212.043
412.485
-29.2967
331.815
201.066
-19.2155
-9.58739
60.3209
-346.575
193.936
229.709
13.0736
-416.499
-106.444
87.741
106.237
-24.6154
-374.166
-14.3052
373.442
200.573
-9.20824
521.279
-190.709
314.296
-462.414
-205.343
335.778
-473.195
355.355
-14.577
141.579
23.8958
548.285
-131.236
148.142
480.9
430.745
-247.911
413.477
479.83
-669.652
74.9345
1.82321
-446.869
225.222
-3.91161
25.9943
26.9022
116.71
76.6145
13.6193
-9.08229
-463.191
225.555
140.28
126.252
167.48
70.9571
-20.2591
-102.849
282.996
-540.877
-47.2449
-64.4398
-518.454
342.115
505.533
97.3264
396.259
431.331
-30.3072
-27.9567
223.366
393.465
-40.5437
255.301
-155.259
-446.755
291.318
-70.015
372.714
518.522
471.528
-415.764
320.875
147.122
-83.8931
10.8428
53.336
-1.48055
-405.233
387.69
-387.262
378.149
67.0222
-155.257
-206.918
68.7712
266.372
450.179
131.903
602.445
298.342
358.474
-486.807
328.767
278.356
373.517
-32.464
-77.0833
-545.116
102.515
580.882
397.837
-359.514
-136.657
-394.861
-32.744
113.687
-161.684
728.25
27.0066
-134.704
-346.231
196.871
-71.6196
-504.991
81.2872
-7.37464
1.80973
10.5812
14.5606
-341.171
-155.557
-443.313
-5.40738
294.727
214.12
412.76
372.351
-46.675
-101.424
-466.702
-15.787
265.657
440.921
297.224
315.823
-198.594
-524.69
-126.531
-563.911
289.426
309.974
-101.124
351.531
282.457
415.146
180.198
142.331
134.596
-46.6886
-475.84
-116.036
-419.362
-174.013
10.9333
-24.8889
-306.63
-419.573
251.445
583.924
520.793
471.618
127.685
242.938
232.347
101.201
9.15212
101.973
-84.6075
65.4966
67.9791
-416.347
280.127
45.0494
-135.213
-316.556
-12.5353
121.588
118.576
-23.9259
-313.911
454.044
193.996
-0.754344
514.99
-74.4697
-439.395
212.314
66.3165
69.781
70.0481
-16.3519
-543.598
65.028
62.3034
-383.039
434.036
35.2428
-765.131
9.77604
110.023
128.462
-17.9078
-406.597
-57.4755
-43.3517
-217.016
82.6548
-463.402
95.0399
78.9459
-240.321
505.646
60.7774
-335.271
562.285
103.913
103.577
-321.033
79.0879
-389.507
)
;
    }
}


// ************************************************************************* //
