/*--------------------------------*- C++ -*----------------------------------*\
| =========                 |                                                 |
| \\      /  F ield         | OpenFOAM: The Open Source CFD Toolbox           |
|  \\    /   O peration     | Version:  v1906                                 |
|   \\  /    A nd           | Web:      www.OpenFOAM.com                      |
|    \\/     M anipulation  |                                                 |
\*---------------------------------------------------------------------------*/
FoamFile
{
    version     2.0;
    format      ascii;
    class       volScalarField;
    location    "89.2/sphere";
    object      T;
}
// * * * * * * * * * * * * * * * * * * * * * * * * * * * * * * * * * * * * * //

dimensions      [0 0 0 1 0 0 0];


internalField   nonuniform List<scalar> 
304
(
454.185
454.213
454.206
454.223
454.182
454.172
454.185
454.214
454.184
454.32
454.32
454.224
454.206
454.313
454.313
454.247
454.206
454.238
454.168
454.213
454.229
454.185
454.213
454.321
454.32
454.252
454.224
454.314
454.314
454.272
454.169
454.237
454.265
454.202
454.186
454.226
454.252
454.189
454.185
454.247
454.272
454.21
454.168
454.202
454.158
454.173
454.186
454.187
454.188
454.218
454.186
454.186
454.219
454.188
454.173
454.185
454.188
454.185
454.217
454.213
454.212
454.226
454.225
454.253
454.251
454.275
454.185
454.226
454.212
454.253
454.225
454.275
454.252
454.185
454.188
454.217
454.186
454.178
454.178
454.209
454.17
454.222
454.17
454.201
454.245
454.271
454.209
454.241
454.208
454.203
454.173
454.272
454.247
454.242
454.211
454.212
454.181
454.172
454.155
454.17
454.166
454.201
454.166
454.201
454.167
454.166
454.155
454.187
454.185
454.185
454.217
454.214
454.225
454.254
454.213
454.229
454.253
454.278
454.186
454.254
454.225
454.229
454.214
454.278
454.253
454.187
454.186
454.218
454.186
454.224
454.211
454.251
454.212
454.253
454.226
454.275
454.184
454.251
454.212
454.253
454.213
454.275
454.227
454.245
454.171
454.21
454.223
454.271
454.202
454.241
454.208
454.212
454.173
454.272
454.223
454.242
454.203
454.168
454.17
454.201
454.167
454.237
454.165
454.195
454.238
454.264
454.195
454.213
454.206
454.196
454.164
454.264
454.238
454.213
454.196
454.201
454.17
454.166
454.184
454.186
454.218
454.189
454.229
454.253
454.278
454.185
454.213
454.226
454.253
454.213
454.278
454.253
454.213
454.183
454.253
454.223
454.217
454.185
454.186
454.254
454.227
454.275
454.187
454.227
454.213
454.252
454.213
454.275
454.227
454.224
454.186
454.251
454.212
454.272
454.203
454.242
454.21
454.248
454.174
454.212
454.224
454.242
454.203
454.247
454.208
454.212
454.173
454.201
454.167
454.168
454.264
454.195
454.213
454.207
454.238
454.165
454.196
454.238
454.214
454.197
454.239
454.209
454.197
454.168
454.171
454.167
454.169
454.176
454.185
454.188
454.217
454.185
454.217
454.186
454.184
454.172
454.191
454.186
454.218
454.187
454.253
454.252
454.276
454.187
454.213
454.213
454.227
454.224
454.275
454.251
454.212
454.184
454.226
454.211
454.217
454.185
454.184
454.213
454.174
454.181
454.272
454.212
454.242
454.208
454.223
454.172
454.203
454.246
454.242
454.212
454.223
454.207
454.203
454.173
454.18
454.173
454.179
454.158
454.202
454.168
454.171
454.169
454.168
454.171
)
;

boundaryField
{
    sphere_to_oil
    {
        type            compressible::turbulentTemperatureCoupledBaffleMixed;
        refValue        nonuniform List<scalar> 
360
(
331.223
331.223
321.871
354.405
361.273
324.782
362.27
362.27
362.27
341.316
341.316
328.775
333.469
320.836
340.834
348.864
344.883
344.883
344.883
322.297
343.821
323.714
327.553
357.113
317.418
357.342
322.991
357.344
357.344
357.344
362.773
355.997
321.772
321.442
328.515
328.607
345.766
345.766
345.766
345.104
345.992
322.048
323.639
331.677
331.677
322.804
331.131
314.806
330.859
357.665
324.713
324.842
332.735
333.301
322.049
323.474
345.254
322.386
323.695
332.645
316.752
358.44
358.44
358.44
314.854
357.037
330.768
323.063
360.805
360.805
360.805
361.717
360.516
319.989
344.798
340.229
321.867
326.85
345.939
345.809
328.296
319.965
327.984
316.639
321.761
324.351
328.699
333.172
321.373
322.528
322.001
332.174
328.336
322.106
331.818
328.311
328.934
329.226
325.157
316.651
316.761
322.048
324.726
328.328
332.081
321.975
320.723
333.37
324.799
329.183
328.974
329.057
325.134
322.299
315.01
314.97
327.616
323.263
328.625
331.139
331.139
354.405
354.405
357.113
357.113
354.847
354.847
354.847
356.47
356.47
356.47
328.003
323.501
327.556
322.977
361.273
361.273
338.281
338.281
362.773
362.773
337.735
337.735
362.176
362.176
362.176
322.655
322.426
349.391
349.391
349.391
349.213
349.213
349.213
348.864
343.821
340.834
348.864
349.071
322.244
349.071
349.071
327.599
328.412
320.088
323.806
323.806
347.19
347.19
347.19
316.709
343.821
323.714
346.393
346.393
316.6
346.393
328.395
320.011
314.884
323.014
323.345
331.742
317.303
331.194
323.27
314.933
316.868
357.342
357.342
355.997
355.997
332.065
332.065
354.433
354.433
354.433
330.599
330.599
316.522
327.805
325.132
332.261
328.053
324.455
332.094
324.855
333.428
329.253
324.654
345.104
333.216
329.315
322.437
346.631
346.631
346.631
324.199
324.199
316.644
323.826
323.65
332.42
345.992
321.969
332.353
323.945
345.104
345.992
323.989
322.369
323.989
316.946
314.917
331.057
317.339
323.156
323.05
323.297
317.171
316.453
358.383
353.424
358.383
358.383
353.424
353.424
357.665
357.037
330.859
355.64
316.691
357.665
355.64
355.64
331.48
321.567
328.104
332.02
322.122
361.717
328.135
328.883
328.742
324.955
345.254
344.798
329.206
328.828
325.102
344.858
348.883
323.474
346.27
316.742
345.254
346.27
346.27
332.852
321.944
345.939
323.75
323.929
323.622
346.314
321.927
346.049
323.848
344.858
323.848
346.314
344.858
346.314
314.756
323.331
327.148
327.309
331.124
354.534
331.124
354.534
354.534
316.503
357.037
355.606
330.768
355.606
316.535
355.606
328.125
327.869
321.487
359.831
338.415
359.831
359.831
338.415
322.027
324.384
327.869
331.972
360.516
361.717
337.936
322.65
360.516
337.936
321.924
344.798
349.337
340.229
349.337
321.201
349.337
333.454
345.809
324.964
329.452
348.644
345.467
348.883
339.826
348.883
348.644
339.826
348.644
319.908
327.879
345.939
323.811
316.693
345.809
323.811
322.643
346.049
345.467
346.049
323.864
345.467
323.864
)
;
        refGradient     uniform 0;
        valueFraction   nonuniform List<scalar> 
360
(
0.000140344
0.00013464
8.61984e-05
0.000307932
0.000315812
0.000181093
0.000317774
0.000272769
0.000424571
0.000135184
0.000131802
0.000176816
0.000269473
7.70489e-05
0.000137828
0.000267924
0.000307036
0.000286883
0.000402561
7.05051e-05
0.000264316
0.000129941
0.000119761
0.000317792
9.22683e-05
0.000326653
0.000184131
0.000322435
0.000421966
0.000282269
0.000322489
0.000325267
8.73421e-05
8.63663e-05
0.000181245
0.000178362
0.000301811
0.000409168
0.000280969
0.000422462
0.000417305
8.91077e-05
0.000176745
0.000128992
0.000128837
0.000181939
0.000272196
7.26218e-05
0.000129943
0.000275538
0.000179481
0.000180647
0.000269272
0.000266655
7.53385e-05
0.000137822
0.000281053
7.21723e-05
0.000178795
0.000266619
7.06444e-05
0.000313866
0.000277069
0.000433639
7.28294e-05
0.000283293
0.000132145
0.000127811
0.000321119
0.00041891
0.000281792
0.000403962
0.000409617
7.82341e-05
0.000273123
0.000138557
7.21296e-05
0.000129342
0.000408767
0.000424634
0.000126859
0.000124466
0.000122252
7.26567e-05
8.76135e-05
0.000177625
0.000178621
0.000270501
8.16544e-05
6.89462e-05
8.6709e-05
0.000270059
0.000178282
8.85738e-05
0.000269613
0.000180318
0.000179252
0.000179529
8.75468e-05
7.01727e-05
7.11571e-05
7.02102e-05
0.000180496
0.000177403
0.000269855
7.94497e-05
6.90109e-05
0.00026966
8.56677e-05
0.000177684
0.000177717
0.000181343
8.86751e-05
7.10075e-05
6.92491e-05
7.05869e-05
0.000122866
0.000123014
0.000127793
0.000138573
0.000130239
0.000269104
0.00042392
0.000283519
0.000427819
0.000274236
0.000421612
0.000313917
0.000274457
0.000412436
0.000309157
0.000126102
0.000119254
0.000122146
6.74298e-05
0.000279649
0.00042104
0.000130271
0.000130866
0.000425499
0.000282909
0.000136561
0.000143929
0.000420261
0.000288705
0.000332671
7.42104e-05
6.90612e-05
0.000291491
0.000403935
0.000320179
0.000300127
0.00041792
0.000320146
0.000330541
0.000304469
0.000142422
0.000424515
0.00027421
7.64512e-05
0.000412601
0.000308762
0.000117833
0.000124142
0.000122813
0.00012956
0.000135433
0.000422398
0.000278127
0.000326463
7.82767e-05
0.000406328
0.00013933
0.000427265
0.000273523
7.64594e-05
0.000324316
0.000118879
0.000119982
7.00992e-05
0.000183738
0.000183665
0.000271576
9.05633e-05
0.000271986
0.000178964
6.93794e-05
6.73698e-05
0.000425006
0.000270047
0.000420017
0.000280033
0.000133576
0.000124919
0.000421976
0.000263733
0.00030485
0.000123477
0.000143272
7.20793e-05
0.000180509
0.000180345
0.000269449
0.000176428
0.000177336
0.000268387
9.19926e-05
0.000269309
0.000182604
8.94601e-05
0.000303127
0.000269011
0.00018151
7.23379e-05
0.000412775
0.000267596
0.000313089
0.000130437
0.000121216
7.00178e-05
0.000179111
0.000182123
0.000270029
0.000307012
8.5866e-05
0.000267467
0.000174685
0.000265697
0.000281282
0.000127683
7.17177e-05
0.000141685
7.2605e-05
6.83415e-05
0.000273035
9.11184e-05
0.000183559
0.000181436
0.000179274
8.9973e-05
6.87274e-05
0.000279165
0.000261585
0.000439137
0.000326873
0.000409691
0.000294365
0.000315505
0.000323033
0.000143589
0.000277124
7.46644e-05
0.000421708
0.000410049
0.000311553
0.000271739
8.65867e-05
0.000176816
0.000268615
8.7362e-05
0.00032007
0.000177581
0.000178853
0.000177204
8.68344e-05
0.00031769
0.000297703
0.000180793
0.000176118
8.85063e-05
0.000298289
0.000328337
0.000130217
0.000294747
7.00021e-05
0.000419921
0.000407116
0.000307623
0.000266628
8.75908e-05
0.000308106
0.000177412
0.000177685
0.000178697
0.000309784
8.84115e-05
0.000316508
0.000133179
0.000272886
0.000134291
0.000278082
0.000423773
0.000416025
6.99668e-05
0.000140206
0.00013855
0.000135514
0.000123411
0.000412879
0.000134789
0.000274489
0.000323224
6.89472e-05
0.000416909
0.000416406
0.000136319
0.000296077
7.22539e-05
0.000317416
0.000120854
0.000118726
7.21945e-05
0.000408343
0.00012204
0.000267799
0.000315396
0.000130839
7.13257e-05
0.000177475
0.000177415
0.000267712
0.000306326
0.000265697
0.000128461
6.91484e-05
0.000270147
0.000142676
7.98614e-05
0.00039149
0.00042038
0.000124242
0.000267037
7.40363e-05
0.00033584
0.000269765
0.000323215
8.84198e-05
0.000178241
0.000311619
0.000302109
0.000284217
0.000127038
0.000416335
0.00041544
0.000150804
0.000277696
0.000122183
0.000124057
0.000279573
0.000138395
7.48267e-05
0.000282749
0.000133261
6.9101e-05
0.000411524
0.000416462
0.000274021
0.000132984
0.000269163
0.000137368
)
;
        value           nonuniform List<scalar> 
360
(
454.187
454.188
454.192
454.173
454.174
454.208
454.174
454.178
454.168
454.182
454.182
454.202
454.209
454.19
454.185
454.172
454.155
454.157
454.141
454.181
454.161
454.173
454.158
454.173
454.191
454.172
454.208
454.173
454.165
454.177
454.173
454.17
454.191
454.191
454.201
454.204
454.157
454.142
454.158
454.14
454.141
454.171
454.191
454.187
454.188
454.207
454.214
454.193
454.187
454.177
454.208
454.208
454.209
454.21
454.178
454.17
454.157
454.18
454.191
454.2
454.176
454.173
454.176
454.165
454.194
454.177
454.188
454.174
454.176
454.17
454.178
454.17
454.169
454.193
454.173
454.187
454.189
454.16
454.142
454.141
454.16
454.16
454.161
454.176
454.194
454.207
454.204
454.209
454.186
454.18
454.192
454.212
454.208
454.19
454.212
454.207
454.203
454.199
454.18
454.195
454.195
454.194
454.208
454.208
454.212
454.193
454.188
454.208
454.177
454.198
454.204
454.198
454.18
454.179
454.195
454.195
454.176
454.176
454.176
454.187
454.189
454.177
454.164
454.178
454.164
454.177
454.164
454.172
454.178
454.166
454.175
454.176
454.176
454.176
454.195
454.177
454.168
454.188
454.188
454.168
454.178
454.188
454.187
454.168
454.178
454.172
454.194
454.188
454.166
454.147
454.155
454.165
454.145
454.156
454.157
454.158
454.183
454.146
454.171
454.189
454.147
454.159
454.159
454.158
454.157
454.172
454.167
454.139
454.155
454.148
454.174
454.141
454.166
454.14
454.155
454.174
454.148
454.159
454.157
454.193
454.208
454.207
454.214
454.192
454.214
454.209
454.195
454.194
454.164
454.177
454.164
454.176
454.187
454.188
454.164
454.178
454.172
454.189
454.187
454.195
454.207
454.207
454.212
454.208
454.208
454.212
454.177
454.209
454.197
454.18
454.158
454.209
454.199
454.179
454.142
454.156
454.149
454.172
454.169
454.175
454.191
454.19
454.199
454.149
454.171
454.199
454.191
454.159
454.154
454.172
454.179
454.166
454.175
454.193
454.214
454.191
454.207
454.207
454.208
454.189
454.195
454.176
454.178
454.166
454.172
454.167
454.176
454.171
454.17
454.186
454.176
454.193
454.163
454.164
454.173
454.212
454.194
454.209
454.212
454.192
454.174
454.208
454.199
454.206
454.181
454.158
454.16
454.199
454.204
454.18
454.159
454.157
454.168
454.153
454.175
454.141
454.143
454.15
454.199
454.172
454.15
454.192
454.192
454.192
454.153
454.175
454.152
454.172
454.16
454.168
454.156
454.142
454.143
454.193
454.176
454.177
454.178
454.188
454.166
454.187
454.176
454.174
454.194
454.164
454.164
454.186
454.174
454.193
454.171
454.176
454.176
454.195
454.171
454.191
454.18
454.176
454.19
454.196
454.209
454.209
454.212
454.173
454.179
454.189
454.195
454.177
454.186
454.192
454.15
454.149
454.185
454.171
454.19
454.155
454.209
454.156
454.179
454.199
454.159
454.159
454.168
454.184
454.147
454.147
454.18
454.168
454.16
454.161
454.156
454.168
454.176
454.159
454.172
454.181
454.143
454.143
454.157
454.169
454.16
454.171
)
;
        Tnbr            T;
        thicknessLayers 0();
        kappaLayers     0();
        kappaMethod     solidThermo;
        kappa           none;
        alphaAni        none;
    }
}


// ************************************************************************* //
