/*--------------------------------*- C++ -*----------------------------------*\
| =========                 |                                                 |
| \\      /  F ield         | OpenFOAM: The Open Source CFD Toolbox           |
|  \\    /   O peration     | Version:  v1906                                 |
|   \\  /    A nd           | Web:      www.OpenFOAM.com                      |
|    \\/     M anipulation  |                                                 |
\*---------------------------------------------------------------------------*/
FoamFile
{
    version     2.0;
    format      ascii;
    class       volScalarField;
    location    "44.2/sphere";
    object      T;
}
// * * * * * * * * * * * * * * * * * * * * * * * * * * * * * * * * * * * * * //

dimensions      [0 0 0 1 0 0 0];


internalField   nonuniform List<scalar> 
304
(
475.598
475.627
475.624
475.64
475.599
475.595
475.596
475.626
475.597
475.746
475.746
475.64
475.624
475.744
475.744
475.669
475.636
475.668
475.596
475.625
475.641
475.596
475.627
475.746
475.745
475.671
475.641
475.744
475.744
475.696
475.593
475.668
475.695
475.63
475.597
475.642
475.67
475.603
475.602
475.67
475.696
475.63
475.596
475.63
475.583
475.586
475.599
475.599
475.601
475.633
475.599
475.598
475.634
475.601
475.586
475.6
475.603
475.6
475.634
475.627
475.627
475.641
475.642
475.672
475.671
475.697
475.598
475.642
475.627
475.672
475.641
475.697
475.671
475.599
475.603
475.634
475.6
475.596
475.596
475.63
475.594
475.64
475.59
475.622
475.668
475.695
475.634
475.667
475.626
475.623
475.593
475.696
475.67
475.668
475.636
475.632
475.597
475.595
475.581
475.593
475.594
475.629
475.594
475.629
475.596
475.594
475.58
475.6
475.596
475.597
475.632
475.626
475.64
475.671
475.625
475.641
475.67
475.697
475.597
475.671
475.641
475.642
475.626
475.697
475.671
475.6
475.597
475.632
475.598
475.641
475.627
475.671
475.626
475.671
475.642
475.697
475.596
475.671
475.627
475.671
475.627
475.697
475.642
475.669
475.591
475.636
475.641
475.696
475.623
475.668
475.625
475.637
475.593
475.696
475.641
475.668
475.623
475.597
475.593
475.629
475.594
475.668
475.594
475.624
475.668
475.695
475.624
475.64
475.636
475.624
475.594
475.695
475.668
475.64
475.624
475.629
475.593
475.594
475.596
475.598
475.633
475.602
475.641
475.671
475.697
475.596
475.625
475.641
475.671
475.625
475.697
475.67
475.625
475.594
475.67
475.638
475.632
475.597
475.598
475.672
475.642
475.697
475.6
475.643
475.628
475.672
475.627
475.697
475.642
475.64
475.598
475.671
475.627
475.696
475.624
475.668
475.627
475.671
475.594
475.638
475.641
475.668
475.624
475.669
475.625
475.637
475.593
475.629
475.594
475.597
475.695
475.624
475.64
475.637
475.668
475.595
475.625
475.669
475.641
475.625
475.669
475.638
475.625
475.597
475.595
475.595
475.598
475.589
475.596
475.601
475.632
475.597
475.632
475.599
475.597
475.584
475.605
475.601
475.636
475.601
475.671
475.672
475.697
475.6
475.627
475.628
475.642
475.64
475.697
475.671
475.626
475.596
475.642
475.626
475.634
475.6
475.598
475.634
475.598
475.598
475.696
475.637
475.668
475.625
475.641
475.592
475.623
475.669
475.668
475.637
475.64
475.624
475.623
475.593
475.596
475.595
475.595
475.583
475.629
475.595
475.594
475.597
475.595
475.594
)
;

boundaryField
{
    sphere_to_oil
    {
        type            compressible::turbulentTemperatureCoupledBaffleMixed;
        refValue        nonuniform List<scalar> 
360
(
340.075
340.075
320.058
362.395
371.077
322.186
372.194
372.194
372.194
346.591
346.591
324.213
327.414
317.104
344.551
361.597
357.693
357.693
357.693
319.377
356.204
333.482
335.004
365.323
315.86
365.759
320.561
365.533
365.533
365.533
372.986
364.443
320.072
319.743
323.978
324.14
358.668
358.668
358.668
357.92
366.298
324.375
324.053
340.316
340.316
320.417
326.568
313.331
338.429
366.156
322.205
322.219
326.956
327.364
319.166
333.425
358.558
319.463
324.132
328.226
317.002
366.844
366.844
366.844
313.356
365.366
338.358
326.319
370.83
370.83
370.83
371.567
369.99
316.428
356.161
343.866
317.883
333.812
366.239
358.76
335.981
325.677
335.408
316.891
320.031
321.942
324.349
327.241
317.539
319.555
320.107
326.825
324.013
320.367
326.615
324.032
324.382
324.399
320.826
315.141
315.22
318.453
322.162
324.043
326.823
318.288
317.096
327.405
320.716
324.483
324.439
324.344
320.844
319.285
313.639
313.591
330.177
326.263
331.578
339.797
339.797
362.395
362.395
365.323
365.323
363.285
363.285
363.285
364.812
364.812
364.812
330.807
326.434
330.165
319.279
371.077
371.077
342.994
342.994
372.986
372.986
341.465
341.465
372.163
372.163
372.163
319.139
318.416
362.072
362.072
362.072
361.993
361.993
361.993
361.597
356.204
344.551
361.597
360.553
318.191
360.553
360.553
335.055
335.779
325.864
333.326
333.326
367.818
367.818
367.818
317.065
356.204
333.482
366.769
366.769
316.969
366.769
335.676
325.779
313.412
320.519
320.807
327.014
315.755
326.592
320.782
313.432
315.062
365.759
365.759
364.443
364.443
340.449
340.449
362.488
362.488
362.488
338.458
338.458
315.022
323.646
322.39
327.01
323.816
321.976
326.963
320.615
327.462
324.467
320.61
357.92
327.445
324.67
319.439
367.197
367.197
367.197
334.37
334.37
316.887
324.218
324.151
328.12
366.298
324.277
327.984
324.307
357.92
366.298
334.31
319.408
334.31
317.292
313.604
326.5
315.828
320.709
320.594
320.846
315.64
314.736
366.811
361.216
366.811
366.811
361.216
361.216
366.156
365.366
338.429
363.969
315.083
366.156
363.969
363.969
326.417
319.664
323.946
326.769
320.318
371.567
323.809
324.34
324.438
320.82
358.558
356.161
324.5
324.249
320.764
358.042
360.794
333.425
366.713
317.18
358.558
366.713
366.713
328.59
324.274
366.239
324.203
324.088
324.014
366.537
323.997
366.251
334.309
358.042
334.309
366.537
358.042
366.537
313.302
326.27
329.539
329.835
339.058
362.538
339.058
362.538
362.538
315.021
365.366
363.634
338.358
363.634
315.017
363.634
330.909
330.477
317.891
369.646
342.124
369.646
369.646
342.124
318.244
321.936
323.804
326.814
369.99
371.567
341.798
318.954
369.99
341.798
318.332
356.161
361.688
343.866
361.688
317.195
361.688
327.517
358.76
320.902
324.603
360.638
358.364
360.794
343.768
360.794
360.638
343.768
360.638
325.239
335.244
366.239
333.52
316.984
358.76
333.52
319.628
366.251
358.364
366.251
334.229
358.364
334.229
)
;
        refGradient     uniform 0;
        valueFraction   nonuniform List<scalar> 
360
(
0.000134154
0.000128702
8.23963e-05
0.000294354
0.000301886
0.000173106
0.000303762
0.000260739
0.000405851
0.00012922
0.000125987
0.000169016
0.000257588
7.36497e-05
0.000131748
0.000256107
0.000293492
0.000274226
0.0003848
6.73937e-05
0.000252655
0.000124207
0.000114475
0.000303781
8.81989e-05
0.000312251
0.000176011
0.000308219
0.000403363
0.000269823
0.000308269
0.000310924
8.34896e-05
8.25569e-05
0.00017325
0.000170494
0.000288497
0.000391115
0.000268573
0.000403822
0.000398891
8.51743e-05
0.000168944
0.000123302
0.000123155
0.000173915
0.000260194
6.94186e-05
0.000124212
0.000263388
0.000171565
0.000172679
0.000257396
0.000254895
7.20138e-05
0.00013174
0.000268653
6.89873e-05
0.000170904
0.000254855
6.75262e-05
0.000300027
0.000264852
0.000414521
6.96171e-05
0.000270801
0.000126317
0.000122174
0.000306959
0.000400439
0.000269364
0.00038615
0.000391556
7.47826e-05
0.000261076
0.000132444
6.89475e-05
0.000123634
0.000390729
0.000405899
0.000121261
0.000118973
0.000116857
6.94497e-05
8.37489e-05
0.000169791
0.000170742
0.000258571
7.80521e-05
6.59037e-05
8.28844e-05
0.000258149
0.000170418
8.4667e-05
0.000257723
0.000172365
0.000171345
0.000171609
8.36841e-05
6.70774e-05
6.80184e-05
6.7113e-05
0.000172535
0.000169578
0.000257954
7.5945e-05
6.59662e-05
0.000257767
8.18879e-05
0.000169845
0.000169877
0.000173343
8.47626e-05
6.78739e-05
6.61946e-05
6.74734e-05
0.000117447
0.000117588
0.000122157
0.000132461
0.000124495
0.000257237
0.000405231
0.000271017
0.000408958
0.000262142
0.000403024
0.000300075
0.000262354
0.000394252
0.000295526
0.000120541
0.000113994
0.000116759
6.44551e-05
0.000267316
0.000402476
0.000124525
0.000125094
0.000406737
0.000270432
0.000130538
0.00013758
0.000401731
0.000275973
0.000318003
7.09368e-05
6.60144e-05
0.000278634
0.000386117
0.000306056
0.000286889
0.000399485
0.000306024
0.000315961
0.000291039
0.00013614
0.000405789
0.000262116
7.30784e-05
0.000394401
0.000295142
0.000112633
0.000118664
0.000117393
0.000123843
0.000129456
0.000403759
0.000265853
0.000312055
7.48216e-05
0.000388401
0.000133181
0.000408412
0.000261451
7.30845e-05
0.000310003
0.000113633
0.000114687
6.70073e-05
0.000175635
0.000175565
0.000259601
8.6569e-05
0.000259993
0.000171071
6.63192e-05
6.43982e-05
0.000406269
0.00025814
0.0004015
0.000267684
0.000127685
0.000119409
0.000403372
0.000252103
0.000291407
0.000118031
0.000136953
6.89e-05
0.000172547
0.000172391
0.000257566
0.000168646
0.000169515
0.000256552
8.79337e-05
0.000257431
0.000174548
8.5513e-05
0.000289756
0.000257146
0.000173503
6.91456e-05
0.00039456
0.000255786
0.000299271
0.000124681
0.000115866
6.69273e-05
0.000171206
0.000174085
0.000258115
0.000293462
8.20758e-05
0.000255665
0.000166976
0.000253975
0.000268869
0.000122049
6.85528e-05
0.000135432
6.94003e-05
6.53271e-05
0.000260996
8.70997e-05
0.000175463
0.000173435
0.000171368
8.60049e-05
6.56958e-05
0.000266855
0.000250049
0.000419777
0.000312461
0.000391628
0.000281385
0.000301595
0.000308791
0.000137256
0.000264903
7.13711e-05
0.000403117
0.000391971
0.000297815
0.000259755
8.27674e-05
0.000169017
0.000256769
8.35087e-05
0.000305957
0.000169749
0.000170962
0.000169387
8.30031e-05
0.000303676
0.000284571
0.000172817
0.000168349
8.46013e-05
0.000285131
0.000313854
0.00012447
0.000281739
6.69123e-05
0.000401393
0.00038915
0.000294046
0.000254864
8.37244e-05
0.000294508
0.000169582
0.000169843
0.00017081
0.000296112
8.45089e-05
0.000302539
0.000127302
0.000260846
0.000128364
0.00026581
0.000405075
0.000397667
6.68807e-05
0.000134022
0.000132439
0.000129538
0.000117968
0.000394676
0.000128844
0.000262385
0.000308972
6.5906e-05
0.000398529
0.000398048
0.000130306
0.000283022
6.90668e-05
0.00030342
0.000115524
0.00011349
6.90097e-05
0.000390338
0.000116657
0.000255989
0.000301488
0.000125067
6.81793e-05
0.000169647
0.000169589
0.000255906
0.000292818
0.000253979
0.000122795
6.60981e-05
0.000258233
0.000136383
7.63386e-05
0.00037422
0.000401837
0.000118761
0.000255258
7.077e-05
0.000321026
0.000257867
0.000308958
8.45186e-05
0.000170377
0.000297874
0.000288783
0.000271682
0.000121434
0.000397971
0.000397115
0.000144152
0.000265448
0.000116791
0.000118583
0.000267235
0.000132287
7.1524e-05
0.000270274
0.000127381
6.60516e-05
0.000393364
0.000398088
0.000261928
0.000127114
0.000257287
0.000131306
)
;
        value           nonuniform List<scalar> 
360
(
475.6
475.601
475.605
475.585
475.586
475.62
475.586
475.592
475.58
475.599
475.599
475.618
475.622
475.607
475.601
475.589
475.575
475.581
475.569
475.604
475.584
475.597
475.584
475.582
475.602
475.582
475.618
475.583
475.575
475.587
475.585
475.582
475.603
475.603
475.617
475.619
475.577
475.571
475.582
475.568
475.572
475.601
475.618
475.599
475.601
475.617
475.622
475.605
475.599
475.587
475.621
475.62
475.623
475.623
475.601
475.594
475.581
475.603
475.618
475.623
475.604
475.583
475.587
475.576
475.606
475.587
475.6
475.586
475.588
475.583
475.592
475.582
475.581
475.609
475.59
475.604
475.605
475.585
475.573
475.569
475.586
475.585
475.586
475.604
475.607
475.619
475.619
475.622
475.602
475.603
475.604
475.623
475.621
475.603
475.623
475.62
475.618
475.617
475.599
475.607
475.607
475.609
475.62
475.621
475.623
475.607
475.605
475.621
475.597
475.616
475.62
475.617
475.599
475.602
475.607
475.607
475.588
475.588
475.588
475.6
475.601
475.589
475.574
475.588
475.575
475.589
475.575
475.584
475.589
475.577
475.584
475.588
475.588
475.588
475.61
475.591
475.581
475.603
475.603
475.581
475.592
475.602
475.601
475.581
475.591
475.583
475.609
475.605
475.584
475.57
475.575
475.583
475.568
475.576
475.577
475.578
475.599
475.568
475.587
475.606
475.569
475.578
475.585
475.584
475.583
475.595
475.595
475.57
475.585
475.58
475.602
475.569
475.595
475.571
475.585
475.602
475.58
475.584
475.583
475.605
475.619
475.618
475.622
475.603
475.622
475.619
475.606
475.607
475.575
475.588
475.575
475.587
475.599
475.601
475.574
475.589
475.583
475.601
475.599
475.607
475.62
475.62
475.623
475.621
475.62
475.623
475.597
475.622
475.616
475.599
475.578
475.622
475.617
475.602
475.574
475.586
475.582
475.596
475.598
475.603
475.618
475.617
475.622
475.581
475.601
475.622
475.618
475.583
475.584
475.595
475.602
475.594
475.602
475.605
475.622
475.602
475.618
475.618
475.618
475.6
475.607
475.587
475.589
475.576
475.582
475.577
475.588
475.58
475.579
475.598
475.587
475.605
475.574
475.574
475.585
475.623
475.607
475.622
475.623
475.605
475.586
475.621
475.617
475.621
475.601
475.578
475.58
475.617
475.619
475.599
475.579
475.576
475.596
475.583
475.603
475.569
475.574
475.582
475.622
475.602
475.582
475.619
475.619
475.619
475.584
475.604
475.584
475.596
475.584
475.596
475.585
475.57
475.574
475.605
475.588
475.589
475.589
475.6
475.576
475.599
475.587
475.585
475.606
475.574
475.574
475.598
475.585
475.605
475.582
475.587
475.587
475.61
475.584
475.605
475.594
475.588
475.604
475.61
475.621
475.622
475.623
475.585
475.593
475.603
475.609
475.591
475.6
475.606
475.573
475.572
475.602
475.588
475.606
475.575
475.622
475.576
475.599
475.617
475.578
475.578
475.585
475.6
475.569
475.569
475.596
475.584
475.585
475.586
475.585
475.596
475.603
475.582
475.596
475.603
475.574
475.57
475.586
475.597
475.583
475.595
)
;
        Tnbr            T;
        thicknessLayers 0();
        kappaLayers     0();
        kappaMethod     solidThermo;
        kappa           none;
        alphaAni        none;
    }
}


// ************************************************************************* //
