/*--------------------------------*- C++ -*----------------------------------*\
| =========                 |                                                 |
| \\      /  F ield         | OpenFOAM: The Open Source CFD Toolbox           |
|  \\    /   O peration     | Version:  v1906                                 |
|   \\  /    A nd           | Web:      www.OpenFOAM.com                      |
|    \\/     M anipulation  |                                                 |
\*---------------------------------------------------------------------------*/
FoamFile
{
    version     2.0;
    format      ascii;
    class       surfaceScalarField;
    location    "94.4/oil";
    object      phi;
}
// * * * * * * * * * * * * * * * * * * * * * * * * * * * * * * * * * * * * * //

dimensions      [1 0 -1 0 0 0 0];
oriented        oriented;


internalField   nonuniform List<scalar> 
80688
(
-2.0473e-06
-2.07471e-06
-2.04729e-06
-9.22449e-07
-5.77939e-07
-5.46909e-07
-2.73445e-07
-3.26427e-07
-3.22577e-07
-1.23798e-07
-7.51074e-08
-7.45395e-08
-3.98087e-08
-4.19519e-08
-4.20377e-08
2.44703e-09
-2.07027e-08
-2.15532e-08
2.60646e-08
-1.09902e-08
-1.26275e-08
3.93567e-08
-5.5211e-09
-7.77114e-09
4.58257e-08
-1.91719e-09
-4.55187e-09
4.69604e-08
8.27113e-10
-1.9619e-09
4.35396e-08
3.09908e-09
3.21603e-10
3.62508e-08
4.99018e-09
2.29858e-09
2.5835e-08
6.4799e-09
3.9358e-09
1.31964e-08
7.52297e-09
5.11565e-09
-6.21154e-10
8.07343e-09
5.74405e-09
-1.45004e-08
8.1038e-09
5.77537e-09
-2.73388e-08
7.62157e-09
5.21688e-09
-3.81428e-08
6.67175e-09
4.13218e-09
-4.61154e-08
5.32954e-09
2.64305e-09
-5.07273e-08
3.69476e-09
9.17076e-10
-5.1746e-08
1.89526e-09
-8.76594e-10
-4.92521e-08
4.65392e-11
-2.54044e-09
-4.36885e-08
-1.6883e-09
-3.87531e-09
-3.5764e-08
-3.21186e-09
-4.7127e-09
-2.64494e-08
-4.37718e-09
-4.93748e-09
-1.69212e-08
-5.02202e-09
-4.5062e-09
-8.47832e-09
-4.94689e-09
-3.49603e-09
-2.39479e-09
-3.92299e-09
-2.16058e-09
3.98736e-10
-1.78239e-09
-1.01118e-09
7.93963e-10
-3.95257e-10
-5.52114e-07
-9.7049e-07
-5.52107e-07
-3.38376e-07
-3.76918e-07
-4.14759e-07
-2.22264e-07
-2.56136e-07
-1.86403e-07
-9.39961e-08
-1.26433e-07
-7.69426e-08
-1.49379e-08
-8.39314e-08
-3.70788e-08
3.5585e-08
-5.78615e-08
-1.33642e-08
6.87841e-08
-4.36832e-08
-5.06169e-10
8.93265e-08
-3.37947e-08
7.73108e-09
9.93601e-08
-2.5918e-08
1.39671e-08
9.99192e-08
-1.90102e-08
1.92781e-08
9.18199e-08
-1.28201e-08
2.40184e-08
7.60647e-08
-7.43148e-09
2.81768e-08
5.40364e-08
-3.06396e-09
3.15721e-08
2.7526e-08
2.61504e-11
3.40071e-08
-1.3784e-09
1.67726e-09
3.53005e-08
-3.04047e-08
1.76062e-09
3.53694e-08
-5.73051e-08
2.94386e-10
3.42276e-08
-8.00679e-08
-2.55725e-09
3.19917e-08
-9.70639e-08
-6.56692e-09
2.88925e-08
-1.07204e-07
-1.13829e-08
2.52177e-08
-1.10026e-07
-1.65982e-08
2.13151e-08
-1.05734e-07
-2.17682e-08
1.75228e-08
-9.51563e-08
-2.64313e-08
1.41655e-08
-7.97219e-08
-3.01231e-08
1.14768e-08
-6.13344e-08
-3.23608e-08
9.59599e-09
-4.22276e-08
-3.26269e-08
8.49804e-09
-2.4753e-08
-3.03563e-08
7.93482e-09
-1.10708e-08
-2.49734e-08
7.36811e-09
-2.69283e-09
-1.60606e-08
5.90022e-09
-4.59735e-09
2.69845e-09
-3.24443e-07
-3.21612e-07
-3.24435e-07
-2.18302e-07
-2.97427e-07
-1.85632e-07
-1.3086e-07
-2.32157e-07
-1.11422e-07
-4.3085e-08
-1.64924e-07
-4.92835e-08
2.21121e-08
-1.33673e-07
-1.54553e-08
7.08488e-08
-1.12189e-07
5.59039e-09
1.05689e-07
-9.73205e-08
1.87973e-08
1.28102e-07
-8.45753e-08
2.83668e-08
1.38633e-07
-7.26443e-08
3.61959e-08
1.37587e-07
-6.11056e-08
4.31408e-08
1.25539e-07
-5.01871e-08
4.94157e-08
1.03568e-07
-4.03936e-08
5.49322e-08
7.3402e-08
-3.23276e-08
5.943e-08
3.7333e-08
-2.65503e-08
6.26454e-08
-1.86785e-09
-2.34809e-08
6.4359e-08
-4.12173e-08
-2.33395e-08
6.44496e-08
-7.77556e-08
-2.61007e-08
6.29333e-08
-1.08793e-07
-3.14883e-08
5.99685e-08
-1.32189e-07
-3.90005e-08
5.58292e-08
-1.46495e-07
-4.79499e-08
5.08737e-08
-1.51106e-07
-5.75145e-08
4.55265e-08
-1.46262e-07
-6.67949e-08
4.01828e-08
-1.33051e-07
-7.48574e-08
3.52154e-08
-1.13284e-07
-8.0759e-08
3.08692e-08
-8.9354e-08
-8.35469e-08
2.72557e-08
-6.40154e-08
-8.22441e-08
2.42786e-08
-4.00923e-08
-7.58475e-08
2.1568e-08
-2.01457e-08
-6.33389e-08
1.84189e-08
-6.16399e-09
-4.37652e-08
1.37228e-08
-1.69317e-08
6.1703e-09
-6.78796e-08
-1.85862e-07
-6.78702e-08
-7.34604e-08
-2.24009e-07
-6.78377e-08
-3.76947e-08
-2.24327e-07
-4.35963e-08
1.53883e-08
-2.06158e-07
-1.18494e-08
6.54255e-08
-1.93858e-07
1.01477e-08
1.08295e-07
-1.81237e-07
2.61787e-08
1.41341e-07
-1.68478e-07
3.81118e-08
1.63142e-07
-1.54298e-07
4.79215e-08
1.72657e-07
-1.388e-07
5.66405e-08
1.69387e-07
-1.22548e-07
6.47117e-08
1.53556e-07
-1.06493e-07
7.21378e-08
1.26211e-07
-9.17558e-08
7.8707e-08
8.92678e-08
-7.94619e-08
8.40771e-08
4.53977e-08
-7.05992e-08
8.7919e-08
-2.15938e-09
-6.58836e-08
8.99598e-08
-4.98663e-08
-6.56916e-08
9.00589e-08
-9.4208e-08
-6.99919e-08
8.82329e-08
-1.32007e-07
-7.83478e-08
8.46589e-08
-1.6071e-07
-8.99516e-08
7.96533e-08
-1.78606e-07
-1.03686e-07
7.36321e-08
-1.8496e-07
-1.18222e-07
6.70612e-08
-1.8005e-07
-1.32102e-07
6.03973e-08
-1.65105e-07
-1.4383e-07
5.40272e-08
-1.4219e-07
-1.51881e-07
4.82067e-08
-1.13995e-07
-1.54764e-07
4.30224e-08
-8.35868e-08
-1.50978e-07
3.8325e-08
-5.41083e-08
-1.38993e-07
3.36669e-08
-2.84721e-08
-1.17199e-07
2.82237e-08
-9.29642e-09
-8.36432e-08
2.07023e-08
-3.55312e-08
9.30305e-09
-2.79647e-08
-1.29943e-07
-2.79549e-08
-1.84846e-08
-2.1269e-07
-2.07996e-08
1.35313e-08
-2.52377e-07
-3.96607e-09
5.76421e-08
-2.65801e-07
1.55323e-08
1.02474e-07
-2.69981e-07
3.12907e-08
1.42943e-07
-2.65985e-07
4.42785e-08
1.75123e-07
-2.55982e-07
5.53236e-08
1.96328e-07
-2.40865e-07
6.5362e-08
2.04656e-07
-2.22007e-07
7.48789e-08
1.99087e-07
-2.00978e-07
8.4e-08
1.79583e-07
-1.79533e-07
9.25437e-08
1.47184e-07
-1.59511e-07
1.00153e-07
1.03964e-07
-1.42649e-07
1.06408e-07
5.29122e-08
-1.30429e-07
1.10882e-07
-2.3001e-09
-1.23927e-07
1.13256e-07
-5.7651e-08
-1.23698e-07
1.13357e-07
-1.09129e-07
-1.2971e-07
1.11196e-07
-1.53113e-07
-1.41344e-07
1.06979e-07
-1.86689e-07
-1.57443e-07
1.01068e-07
-2.0791e-07
-1.76404e-07
9.39395e-08
-2.1593e-07
-1.96327e-07
8.61264e-08
-2.11038e-07
-2.15131e-07
7.81363e-08
-1.9459e-07
-2.30659e-07
7.03819e-08
-1.68844e-07
-2.40777e-07
6.31496e-08
-1.36732e-07
-2.43389e-07
5.6513e-08
-1.01594e-07
-2.36404e-07
5.02884e-08
-6.68773e-08
-2.17674e-07
4.39641e-08
-3.59091e-08
-1.84765e-07
3.65983e-08
-1.20034e-08
-1.34251e-07
2.67019e-08
-5.95449e-08
1.20104e-08
-3.30992e-09
-1.23334e-07
-3.29926e-09
1.55903e-08
-2.39613e-07
8.02312e-09
4.88967e-08
-3.07375e-07
2.16917e-08
9.12722e-08
-3.44031e-07
3.58537e-08
1.35201e-07
-3.62347e-07
4.84373e-08
1.75551e-07
-3.66221e-07
5.98865e-08
2.07951e-07
-3.59058e-07
7.06761e-08
2.29047e-07
-3.43208e-07
8.12475e-08
2.36403e-07
-3.21124e-07
9.17607e-08
2.2863e-07
-2.95318e-07
1.02112e-07
2.05523e-07
-2.68378e-07
1.11952e-07
1.68123e-07
-2.42895e-07
1.20784e-07
1.1867e-07
-2.2127e-07
1.28074e-07
6.04874e-08
-2.05542e-07
1.33295e-07
-2.32597e-09
-1.9717e-07
1.36056e-07
-6.52561e-08
-1.96918e-07
1.36151e-07
-1.23798e-07
-2.04757e-07
1.3359e-07
-1.73877e-07
-2.19868e-07
1.28604e-07
-2.12226e-07
-2.40711e-07
1.21616e-07
-2.36664e-07
-2.65156e-07
1.13191e-07
-2.46244e-07
-2.90689e-07
1.03942e-07
-2.41271e-07
-3.14539e-07
9.44364e-08
-2.23232e-07
-3.33881e-07
8.51819e-08
-1.94575e-07
-3.45907e-07
7.64727e-08
-1.58493e-07
-3.47867e-07
6.83954e-08
-1.18613e-07
-3.37024e-07
6.07405e-08
-7.87407e-08
-3.10484e-07
5.29376e-08
-4.26584e-08
-2.64769e-07
4.39215e-08
-1.43864e-08
-1.94498e-07
3.19747e-08
-8.83254e-08
1.4394e-08
8.19793e-09
-1.39741e-07
8.20946e-09
3.46445e-08
-2.90359e-07
2.42995e-08
7.275e-08
-3.83689e-07
3.8209e-08
1.1784e-07
-4.39983e-07
5.08623e-08
1.6401e-07
-4.70958e-07
6.24411e-08
2.06292e-07
-4.82114e-07
7.36109e-08
2.40154e-07
-4.77764e-07
8.48438e-08
2.61876e-07
-4.61334e-07
9.64037e-08
2.68687e-07
-4.36208e-07
1.08273e-07
2.58928e-07
-4.05741e-07
1.20182e-07
2.32274e-07
-3.73355e-07
1.31631e-07
1.89802e-07
-3.42401e-07
1.41978e-07
1.3396e-07
-3.15968e-07
1.50539e-07
6.84118e-08
-2.96675e-07
1.56682e-07
-2.27069e-09
-2.86412e-07
1.59924e-07
-7.30457e-08
-2.86152e-07
1.60009e-07
-1.38878e-07
-2.95871e-07
1.56946e-07
-1.9521e-07
-3.14544e-07
1.51007e-07
-2.384e-07
-3.40222e-07
1.427e-07
-2.66024e-07
-3.70217e-07
1.32685e-07
-2.77043e-07
-4.01358e-07
1.21687e-07
-2.71801e-07
-4.30182e-07
1.10401e-07
-2.51937e-07
-4.53146e-07
9.94003e-08
-2.20129e-07
-4.66753e-07
8.9039e-08
-1.79861e-07
-4.67564e-07
7.94286e-08
-1.351e-07
-4.5212e-07
7.03362e-08
-9.0048e-08
-4.16661e-07
6.11248e-08
-4.8978e-08
-3.56441e-07
5.06023e-08
-1.65738e-08
-2.63707e-07
3.68056e-08
-1.21482e-07
1.65823e-08
1.45489e-08
-1.68851e-07
1.45615e-08
4.72693e-08
-3.57777e-07
3.4697e-08
9.08338e-08
-4.77149e-07
4.98951e-08
1.40318e-07
-5.52155e-07
6.26874e-08
1.90311e-07
-5.95404e-07
7.4453e-08
2.35793e-07
-6.13786e-07
8.61899e-08
2.72042e-07
-6.12481e-07
9.8468e-08
2.95062e-07
-5.95857e-07
1.11502e-07
3.01754e-07
-5.68066e-07
1.25167e-07
2.90258e-07
-5.33287e-07
1.39042e-07
2.60126e-07
-4.95713e-07
1.52491e-07
2.1249e-07
-4.59481e-07
1.64716e-07
1.5002e-07
-4.28365e-07
1.74868e-07
7.67762e-08
-4.05584e-07
1.82152e-07
-2.16265e-09
-3.93457e-07
1.85984e-07
-8.1172e-08
-3.932e-07
1.86058e-07
-1.5463e-07
-4.04793e-07
1.8238e-07
-2.17457e-07
-4.26983e-07
1.75267e-07
-2.65604e-07
-4.57395e-07
1.6532e-07
-2.96398e-07
-4.9278e-07
1.53356e-07
-3.08721e-07
-5.29281e-07
1.40247e-07
-3.02998e-07
-5.62725e-07
1.26819e-07
-2.81034e-07
-5.88852e-07
1.13743e-07
-2.45797e-07
-6.03458e-07
1.01467e-07
-2.01108e-07
-6.02397e-07
9.01428e-08
-1.51313e-07
-5.81438e-07
7.95237e-08
-1.01036e-07
-5.35834e-07
6.88961e-08
-5.50484e-08
-4.59351e-07
5.69215e-08
-1.86568e-08
-3.41479e-07
4.13804e-08
-1.58805e-07
1.86666e-08
1.8557e-08
-2.05979e-07
1.85706e-08
5.65258e-08
-4.37833e-07
4.20874e-08
1.05528e-07
-5.85066e-07
5.89146e-08
1.60058e-07
-6.79279e-07
7.25938e-08
2.14681e-07
-7.35253e-07
8.52265e-08
2.64137e-07
-7.61362e-07
9.81205e-08
3.03453e-07
-7.63748e-07
1.11951e-07
3.2831e-07
-7.47633e-07
1.26919e-07
3.35316e-07
-7.1792e-07
1.42848e-07
3.22345e-07
-6.79497e-07
1.59181e-07
2.8887e-07
-6.37341e-07
1.75102e-07
2.36037e-07
-5.96279e-07
1.8963e-07
1.66758e-07
-5.60792e-07
2.01706e-07
8.55204e-08
-5.34716e-07
2.10369e-07
-2.02599e-09
-5.20835e-07
2.14924e-07
-8.96212e-08
-5.20589e-07
2.14984e-07
-1.71001e-07
-5.33967e-07
2.10554e-07
-2.40521e-07
-5.59481e-07
2.02017e-07
-2.93697e-07
-5.9433e-07
1.90112e-07
-3.27605e-07
-6.34664e-07
1.75793e-07
-3.41069e-07
-6.75927e-07
1.60109e-07
-3.34617e-07
-7.13275e-07
1.44098e-07
-3.10289e-07
-7.41749e-07
1.2857e-07
-2.71394e-07
-7.56435e-07
1.14082e-07
-2.22114e-07
-7.52483e-07
1.00807e-07
-1.67206e-07
-7.24845e-07
8.84986e-08
-1.11725e-07
-6.6772e-07
7.64047e-08
-6.09197e-08
-5.73156e-07
6.2999e-08
-2.06659e-08
-4.27507e-07
4.57739e-08
-2.00148e-07
2.06768e-08
2.14455e-08
-2.48885e-07
2.14602e-08
6.39103e-08
-5.28114e-07
4.78166e-08
1.18016e-07
-7.05445e-07
6.62728e-08
1.77668e-07
-8.20083e-07
8.11522e-08
2.37148e-07
-8.89788e-07
9.50553e-08
2.90916e-07
-9.2465e-07
1.09519e-07
3.33712e-07
-9.31885e-07
1.25341e-07
3.60809e-07
-9.17462e-07
1.42732e-07
3.68516e-07
-8.87037e-07
1.6141e-07
3.5443e-07
-8.46135e-07
1.80724e-07
3.17823e-07
-8.00379e-07
1.99646e-07
2.59892e-07
-7.55304e-07
2.16956e-07
1.83791e-07
-7.16067e-07
2.31376e-07
9.44482e-08
-6.87111e-07
2.41738e-07
-1.87905e-09
-6.71664e-07
2.47157e-07
-9.82371e-08
-6.71436e-07
2.47204e-07
-1.87672e-07
-6.86416e-07
2.41884e-07
-2.63921e-07
-7.14864e-07
2.31632e-07
-3.22044e-07
-7.53535e-07
2.17328e-07
-3.58898e-07
-7.97976e-07
2.00165e-07
-3.7326e-07
-8.43004e-07
1.81439e-07
-3.65825e-07
-8.8307e-07
1.6236e-07
-3.38934e-07
-9.12575e-07
1.43935e-07
-2.96237e-07
-9.25979e-07
1.26847e-07
-2.42331e-07
-9.1774e-07
1.11351e-07
-1.82384e-07
-8.82005e-07
9.7213e-08
-1.21889e-07
-8.11771e-07
8.35555e-08
-6.64939e-08
-6.97264e-07
6.87135e-08
-2.25798e-08
-5.21343e-07
4.99214e-08
-2.45319e-07
2.25919e-08
2.36763e-08
-2.96252e-07
2.36908e-08
6.99299e-08
-6.26763e-07
5.23947e-08
1.28529e-07
-8.36411e-07
7.23678e-08
1.929e-07
-9.72989e-07
8.85343e-08
2.57043e-07
-1.05782e-06
1.03885e-07
3.15117e-07
-1.10294e-06
1.20212e-07
3.61495e-07
-1.11666e-06
1.38402e-07
3.91121e-07
-1.10574e-06
1.58656e-07
3.99901e-07
-1.07643e-06
1.80616e-07
3.85098e-07
-1.0348e-06
2.03472e-07
3.45778e-07
-9.87026e-07
2.25966e-07
2.83122e-07
-9.39273e-07
2.46625e-07
2.00476e-07
-8.9729e-07
2.63869e-07
1.03226e-07
-8.66132e-07
2.76271e-07
-1.73619e-09
-8.49446e-07
2.82744e-07
-1.06713e-07
-8.49235e-07
2.82776e-07
-2.04011e-07
-8.65477e-07
2.76359e-07
-2.86714e-07
-8.96201e-07
2.64041e-07
-3.49464e-07
-9.37687e-07
2.46902e-07
-3.889e-07
-9.84906e-07
2.26366e-07
-4.03795e-07
-1.0321e-06
2.0399e-07
-3.951e-07
-1.07306e-06
1.81293e-07
-3.65502e-07
-1.10169e-06
1.59517e-07
-3.19036e-07
-1.1119e-06
1.39456e-07
-2.60713e-07
-1.09753e-06
1.21464e-07
-1.96101e-07
-1.05192e-06
1.05308e-07
-1.3102e-07
-9.66913e-07
9.00615e-08
-7.14966e-08
-8.30655e-07
7.38678e-08
-2.43151e-08
-6.22164e-07
5.36397e-08
-2.93963e-07
2.43282e-08
2.53368e-08
-3.46941e-07
2.5352e-08
7.45121e-08
-7.31753e-07
5.58152e-08
1.3668e-07
-9.7559e-07
7.70113e-08
2.0493e-07
-1.13565e-06
9.44065e-08
2.73073e-07
-1.23728e-06
1.1132e-07
3.34987e-07
-1.29456e-06
1.29706e-07
3.84769e-07
-1.31698e-06
1.5053e-07
4.17029e-07
-1.31204e-06
1.74037e-07
4.27219e-07
-1.28639e-06
1.9977e-07
4.12266e-07
-1.2466e-06
2.26751e-07
3.70953e-07
-1.19919e-06
2.5348e-07
3.04293e-07
-1.15077e-06
2.78155e-07
2.15844e-07
-1.10767e-06
2.98826e-07
1.11354e-07
-1.07537e-06
3.13726e-07
-1.60369e-09
-1.058e-06
3.21515e-07
-1.14564e-07
-1.05781e-06
3.21538e-07
-2.19051e-07
-1.07479e-06
3.13801e-07
-3.07532e-07
-1.10668e-06
2.98959e-07
-3.74192e-07
-1.14936e-06
2.78336e-07
-4.15511e-07
-1.19732e-06
2.53735e-07
-4.30462e-07
-1.24423e-06
2.27087e-07
-4.2022e-07
-1.28353e-06
2.00233e-07
-3.87876e-07
-1.30867e-06
1.74637e-07
-3.37912e-07
-1.31312e-06
1.5126e-07
-2.75709e-07
-1.29029e-06
1.30557e-07
-2.07138e-07
-1.23276e-06
1.12267e-07
-1.38326e-07
-1.13112e-06
9.53954e-08
-7.55163e-08
-9.71418e-07
7.79529e-08
-2.57135e-08
-7.28542e-07
5.65754e-08
-3.45403e-07
2.57271e-08
2.6349e-08
-3.99656e-07
2.63666e-08
7.72831e-08
-8.40547e-07
5.78595e-08
1.41607e-07
-1.11976e-06
7.98446e-08
2.12362e-07
-1.30462e-06
9.82198e-08
2.83233e-07
-1.42473e-06
1.16579e-07
3.48044e-07
-1.49642e-06
1.3705e-07
4.00688e-07
-1.53027e-06
1.60644e-07
4.35447e-07
-1.53446e-06
1.87656e-07
4.47414e-07
-1.51593e-06
2.17568e-07
4.3305e-07
-1.48146e-06
2.49221e-07
3.9076e-07
-1.43777e-06
2.80864e-07
3.21379e-07
-1.39164e-06
3.10251e-07
2.28462e-07
-1.34976e-06
3.35009e-07
1.18108e-07
-1.31795e-06
3.52935e-07
-1.4882e-09
-1.30075e-06
3.62341e-07
-1.21078e-07
-1.30057e-06
3.62351e-07
-2.31418e-07
-1.31742e-06
3.52967e-07
-3.24299e-07
-1.34886e-06
3.35066e-07
-3.93606e-07
-1.39039e-06
3.10331e-07
-4.3583e-07
-1.4361e-06
2.81003e-07
-4.50115e-07
-1.47941e-06
2.49458e-07
-4.38045e-07
-1.51351e-06
2.17904e-07
-4.03134e-07
-1.53164e-06
1.88059e-07
-3.50284e-07
-1.52711e-06
1.61139e-07
-2.8516e-07
-1.49301e-06
1.37602e-07
-2.13911e-07
-1.42121e-06
1.17197e-07
-1.42732e-07
-1.30117e-06
9.88657e-08
-7.79134e-08
-1.11668e-06
8.04477e-08
-2.65831e-08
-8.38209e-07
5.83367e-08
-3.98584e-07
2.65973e-08
2.65075e-08
-4.52679e-07
2.65152e-08
7.75696e-08
-9.49624e-07
5.80156e-08
1.42102e-07
-1.26441e-06
8.01227e-08
2.13286e-07
-1.47488e-06
9.90716e-08
2.85026e-07
-1.61506e-06
1.18591e-07
3.51187e-07
-1.7035e-06
1.40924e-07
4.05631e-07
-1.75194e-06
1.67236e-07
4.42444e-07
-1.76905e-06
1.9778e-07
4.5641e-07
-1.76193e-06
2.32043e-07
4.43537e-07
-1.73727e-06
2.68682e-07
4.0177e-07
-1.70166e-06
3.05659e-07
3.31589e-07
-1.66185e-06
3.40396e-07
2.36379e-07
-1.62452e-06
3.6997e-07
1.22491e-07
-1.59561e-06
3.91544e-07
-1.38796e-09
-1.57979e-06
4.02923e-07
-1.25252e-07
-1.57963e-06
4.02924e-07
-2.39085e-07
-1.59513e-06
3.91547e-07
-3.34222e-07
-1.62371e-06
3.69982e-07
-4.04316e-07
-1.66074e-06
3.40449e-07
-4.45978e-07
-1.70019e-06
3.05755e-07
-4.58703e-07
-1.73546e-06
2.68782e-07
-4.44581e-07
-1.75985e-06
2.32219e-07
-4.07569e-07
-1.76669e-06
1.98041e-07
-3.52899e-07
-1.74934e-06
1.6756e-07
-2.86475e-07
-1.70076e-06
1.41321e-07
-2.14433e-07
-1.61228e-06
1.1903e-07
-1.42882e-07
-1.47221e-06
9.94966e-08
-7.80008e-08
-1.26208e-06
8.05173e-08
-2.66482e-08
-9.47884e-07
5.83219e-08
-4.51894e-07
2.66621e-08
2.55365e-08
-5.03762e-07
2.55464e-08
7.45818e-08
-1.05438e-06
5.57123e-08
1.36715e-07
-1.40364e-06
7.70922e-08
2.05563e-07
-1.63967e-06
9.59428e-08
2.75477e-07
-1.80104e-06
1.16062e-07
3.40679e-07
-1.90846e-06
1.39758e-07
3.95228e-07
-1.97474e-06
1.68243e-07
4.33215e-07
-2.00886e-06
2.01825e-07
4.49235e-07
-2.01797e-06
2.40012e-07
4.38851e-07
-2.00833e-06
2.81447e-07
3.99484e-07
-1.98612e-06
3.2383e-07
3.31164e-07
-1.95765e-06
3.64118e-07
2.36936e-07
-1.92906e-06
3.98765e-07
1.23106e-07
-1.90612e-06
4.24343e-07
-1.30356e-09
-1.89332e-06
4.3794e-07
-1.25692e-07
-1.89318e-06
4.37932e-07
-2.39465e-07
-1.90568e-06
4.24325e-07
-3.33596e-07
-1.92832e-06
3.98742e-07
-4.01795e-07
-1.95662e-06
3.6408e-07
-4.40986e-07
-1.98483e-06
3.23823e-07
-4.51172e-07
-2.0068e-06
2.81516e-07
-4.34988e-07
-2.01618e-06
2.40143e-07
-3.9681e-07
-2.00685e-06
2.01978e-07
-3.42006e-07
-1.9726e-06
1.68447e-07
-2.76567e-07
-1.9062e-06
1.40003e-07
-2.0637e-07
-1.79881e-06
1.16335e-07
-1.37269e-07
-1.63753e-06
9.62177e-08
-7.48946e-08
-1.40181e-06
7.7348e-08
-2.56302e-08
-1.05306e-06
5.59126e-08
-5.03168e-07
2.56437e-08
2.3156e-08
-5.50081e-07
2.3163e-08
6.75696e-08
-1.14914e-06
5.03457e-08
1.23935e-07
-1.52986e-06
6.98541e-08
1.86875e-07
-1.79029e-06
8.76838e-08
2.51469e-07
-1.97313e-06
1.07499e-07
3.12602e-07
-2.10117e-06
1.31572e-07
3.64828e-07
-2.18812e-06
1.61155e-07
4.02516e-07
-2.24324e-06
1.96688e-07
4.2022e-07
-2.27337e-06
2.377e-07
4.1328e-07
-2.28417e-06
2.82782e-07
3.78658e-07
-2.281e-06
3.29499e-07
3.15674e-07
-2.26925e-06
3.74577e-07
2.26873e-07
-2.25416e-06
4.13905e-07
1.18241e-07
-2.24074e-06
4.43252e-07
-1.2292e-09
-2.23284e-06
4.58992e-07
-1.20671e-07
-2.23272e-06
4.58982e-07
-2.29225e-07
-2.24036e-06
4.43226e-07
-3.17895e-07
-2.25352e-06
4.13867e-07
-3.80747e-07
-2.26833e-06
3.7456e-07
-4.15203e-07
-2.27988e-06
3.29509e-07
-4.21984e-07
-2.2828e-06
2.82786e-07
-4.04078e-07
-2.27182e-06
2.37741e-07
-3.66147e-07
-2.24155e-06
1.96766e-07
-3.13729e-07
-2.18628e-06
1.61271e-07
-2.5235e-07
-2.0993e-06
1.3172e-07
-1.87535e-07
-1.9713e-06
1.0767e-07
-1.24342e-07
-1.78859e-06
8.78609e-08
-6.77588e-08
-1.52841e-06
7.0021e-08
-2.32173e-08
-1.14808e-06
5.04793e-08
-5.49615e-07
2.32299e-08
1.91126e-08
-5.88317e-07
1.9123e-08
5.57191e-08
-1.22714e-06
4.13879e-08
1.02499e-07
-1.63433e-06
5.76924e-08
1.55275e-07
-1.91639e-06
7.33216e-08
2.1034e-07
-2.11976e-06
9.15683e-08
2.63496e-07
-2.2689e-06
1.14573e-07
3.1018e-07
-2.3783e-06
1.43502e-07
3.45374e-07
-2.4573e-06
1.78867e-07
3.63949e-07
-2.51229e-06
2.2035e-07
3.61215e-07
-2.54811e-06
2.66676e-07
3.33743e-07
-2.56897e-06
3.15441e-07
2.80276e-07
-2.57885e-06
3.63073e-07
2.0259e-07
-2.58161e-06
4.05139e-07
1.05952e-07
-2.58098e-06
4.36879e-07
-1.16354e-09
-2.57973e-06
4.54004e-07
-1.08255e-07
-2.57965e-06
4.54023e-07
-2.0483e-07
-2.58066e-06
4.36873e-07
-2.82372e-07
-2.58106e-06
4.05087e-07
-3.35673e-07
-2.57804e-06
3.63011e-07
-3.62962e-07
-2.56798e-06
3.1539e-07
-3.65494e-07
-2.54691e-06
2.6664e-07
-3.46713e-07
-2.51095e-06
2.2034e-07
-3.11306e-07
-2.45584e-06
1.78889e-07
-2.64409e-07
-2.37673e-06
1.43554e-07
-2.11025e-07
-2.26734e-06
1.14652e-07
-1.55771e-07
-2.11822e-06
9.16668e-08
-1.02805e-07
-1.91498e-06
7.34294e-08
-5.5867e-08
-1.63314e-06
5.77965e-08
-1.91591e-08
-1.22626e-06
4.14752e-08
-5.87945e-07
1.91709e-08
1.32611e-08
-6.14835e-07
1.3257e-08
3.86804e-08
-1.28108e-06
2.85295e-08
7.16195e-08
-1.70737e-06
4.00999e-08
1.09612e-07
-2.00654e-06
5.21581e-08
1.50323e-07
-2.22774e-06
6.7266e-08
1.91034e-07
-2.39681e-06
8.72058e-08
2.28321e-07
-2.52874e-06
1.13144e-07
2.58234e-07
-2.63272e-06
1.45511e-07
2.76333e-07
-2.71455e-06
1.84153e-07
2.78218e-07
-2.77797e-06
2.27968e-07
2.6042e-07
-2.82588e-06
2.74707e-07
2.21067e-07
-2.86053e-06
3.2103e-07
1.61131e-07
-2.8841e-06
3.62426e-07
8.46525e-08
-2.8985e-06
3.93994e-07
-1.10384e-09
-2.9052e-06
4.11227e-07
-8.68322e-08
-2.90514e-06
4.11215e-07
-1.6323e-07
-2.89821e-06
3.93948e-07
-2.23031e-07
-2.88362e-06
3.62359e-07
-2.62202e-07
-2.85986e-06
3.20989e-07
-2.79828e-07
-2.82501e-06
2.74658e-07
-2.77716e-07
-2.77692e-06
2.279e-07
-2.59409e-07
-2.71336e-06
1.84105e-07
-2.29307e-07
-2.63144e-06
1.45492e-07
-1.91794e-07
-2.5274e-06
1.13149e-07
-1.50922e-07
-2.39544e-06
8.72334e-08
-1.1001e-07
-2.22644e-06
6.73142e-08
-7.18579e-08
-2.00535e-06
5.22185e-08
-3.88123e-08
-1.70636e-06
4.01664e-08
-1.32817e-08
-1.28038e-06
2.85892e-08
-6.14519e-07
1.32926e-08
5.60167e-09
-6.26036e-07
5.6e-09
1.6516e-08
-1.30384e-06
1.18441e-08
3.14034e-08
-1.73947e-06
1.72129e-08
4.9907e-08
-2.04923e-06
2.41898e-08
7.14437e-08
-2.28369e-06
3.44149e-08
9.49826e-08
-2.46944e-06
4.90865e-08
1.18722e-07
-2.62158e-06
6.91073e-08
1.40137e-07
-2.74912e-06
9.4978e-08
1.55931e-07
-2.85692e-06
1.26582e-07
1.62603e-07
-2.9478e-06
1.63161e-07
1.5678e-07
-3.02298e-06
2.02925e-07
1.36313e-07
-3.08296e-06
2.42903e-07
1.01046e-07
-3.12787e-06
2.79037e-07
5.34981e-08
-3.15779e-06
3.06845e-07
-1.04681e-09
-3.17272e-06
3.2206e-07
-5.55554e-08
-3.17263e-06
3.22e-07
-1.02989e-07
-3.15752e-06
3.06747e-07
-1.38143e-07
-3.12742e-06
2.78949e-07
-1.58463e-07
-3.0823e-06
2.42762e-07
-1.64088e-07
-3.02217e-06
2.02778e-07
-1.57217e-07
-2.94685e-06
1.63063e-07
-1.41196e-07
-2.85588e-06
1.26504e-07
-1.19597e-07
-2.74795e-06
9.49195e-08
-9.56449e-08
-2.62042e-06
6.90751e-08
-7.19233e-08
-2.46824e-06
4.90774e-08
-5.02414e-08
-2.28255e-06
3.44241e-08
-3.15962e-08
-2.04821e-06
2.42159e-08
-1.65759e-08
-1.73863e-06
1.72504e-08
-5.61824e-09
-1.30323e-06
1.18842e-08
-6.25766e-07
5.62853e-09
-3.64874e-09
-6.18738e-07
-3.64957e-09
-1.01664e-08
-1.28907e-06
-8.25629e-09
-1.69441e-08
-1.72226e-06
-1.04335e-08
-2.20835e-08
-2.03422e-06
-9.87309e-09
-2.40933e-08
-2.27549e-06
-6.18776e-09
-2.2104e-08
-2.47245e-06
1.01708e-09
-1.58662e-08
-2.64004e-06
1.22235e-08
-6.15027e-09
-2.78669e-06
2.78564e-08
5.48025e-09
-2.91663e-06
4.80738e-08
1.66677e-08
-3.03147e-06
7.24853e-08
2.47192e-08
-3.1309e-06
9.98699e-08
2.73202e-08
-3.21366e-06
1.28093e-07
2.32506e-08
-3.27795e-06
1.54142e-07
1.30129e-08
-3.32205e-06
1.74492e-07
-9.81304e-10
-3.34449e-06
1.85764e-07
-1.49485e-08
-3.3444e-06
1.85736e-07
-2.51199e-08
-3.32177e-06
1.7442e-07
-2.90287e-08
-3.27755e-06
1.54039e-07
-2.6264e-08
-3.21303e-06
1.27967e-07
-1.80245e-08
-3.13015e-06
9.97418e-08
-6.64355e-09
-3.0306e-06
7.23655e-08
5.16354e-09
-2.91566e-06
4.79717e-08
1.50917e-08
-2.78566e-06
2.77756e-08
2.14924e-08
-2.63899e-06
1.21669e-08
2.36539e-08
-2.47138e-06
9.83392e-10
2.18124e-08
-2.27451e-06
-6.20112e-09
1.67994e-08
-2.03333e-06
-9.86808e-09
1.00898e-08
-1.7215e-06
-1.04152e-08
3.63692e-09
-1.28854e-06
-8.22954e-09
-6.18503e-07
-3.62685e-09
-1.3982e-08
-5.90771e-07
-1.39853e-08
-3.99284e-08
-1.2325e-06
-3.06212e-08
-7.09871e-08
-1.64996e-06
-4.12411e-08
-1.02736e-07
-1.95429e-06
-4.81827e-08
-1.31605e-07
-2.19407e-06
-5.25593e-08
-1.54554e-07
-2.39471e-06
-5.47869e-08
-1.69137e-07
-2.57057e-06
-5.48929e-08
-1.73866e-07
-2.72933e-06
-5.26315e-08
-1.68244e-07
-2.87457e-06
-4.76758e-08
-1.53e-07
-3.00671e-06
-4.00064e-08
-1.2978e-07
-3.12422e-06
-2.98958e-08
-1.00904e-07
-3.22432e-06
-1.82132e-08
-6.86784e-08
-3.30356e-06
-6.6155e-09
-3.49982e-08
-3.35866e-06
2.93155e-09
-9.08371e-10
-3.38693e-06
8.3534e-09
3.32181e-08
-3.38685e-06
8.32375e-09
6.69943e-08
-3.35844e-06
2.89607e-09
9.93161e-08
-3.30318e-06
-6.68734e-09
1.2835e-07
-3.22372e-06
-1.83452e-08
1.51746e-07
-3.12351e-06
-3.0031e-08
1.6717e-07
-3.00589e-06
-4.0135e-08
1.72953e-07
-2.87365e-06
-4.7788e-08
1.68426e-07
-2.72841e-06
-5.27214e-08
1.53994e-07
-2.5696e-06
-5.4963e-08
1.31221e-07
-2.39378e-06
-5.48334e-08
1.02479e-07
-2.19318e-06
-5.2584e-08
7.08475e-08
-1.95351e-06
-4.819e-08
3.98846e-08
-1.64931e-06
-4.12322e-08
1.39745e-08
-1.23203e-06
-3.05993e-08
-5.90564e-07
-1.39637e-08
-2.46902e-08
-5.41389e-07
-2.46919e-08
-7.07213e-08
-1.13275e-06
-5.37195e-08
-1.26924e-07
-1.52058e-06
-7.31824e-08
-1.86548e-07
-1.80652e-06
-8.81385e-08
-2.43887e-07
-2.03539e-06
-1.01341e-07
-2.9364e-07
-2.23069e-06
-1.14271e-07
-3.31069e-07
-2.40565e-06
-1.27484e-07
-3.52144e-07
-2.56736e-06
-1.40898e-07
-3.54077e-07
-2.71851e-06
-1.54133e-07
-3.35533e-07
-2.85879e-06
-1.66468e-07
-2.96892e-07
-2.98573e-06
-1.77135e-07
-2.40219e-07
-3.09533e-06
-1.85663e-07
-1.68901e-07
-3.18313e-06
-1.91744e-07
-8.74328e-08
-3.24467e-06
-1.9546e-07
-8.23281e-10
-3.27639e-06
-1.97146e-07
8.58069e-08
-3.2763e-06
-1.97172e-07
1.67348e-07
-3.24441e-06
-1.95574e-07
2.38753e-07
-3.1827e-06
-1.91886e-07
2.95608e-07
-3.09479e-06
-1.85782e-07
3.34378e-07
-2.98503e-06
-1.77257e-07
3.53063e-07
-2.85799e-06
-1.66581e-07
3.51314e-07
-2.71767e-06
-1.54236e-07
3.30368e-07
-2.56648e-06
-1.40984e-07
2.93116e-07
-2.40479e-06
-1.2755e-07
2.43496e-07
-2.22984e-06
-1.14319e-07
1.86293e-07
-2.03461e-06
-1.01372e-07
1.26794e-07
-1.80588e-06
-8.81293e-08
7.06584e-08
-1.52001e-06
-7.31564e-08
2.46827e-08
-1.13236e-06
-5.37018e-08
-5.4121e-07
-2.4672e-08
-3.47887e-08
-4.7181e-07
-3.47905e-08
-9.97428e-08
-9.92364e-07
-7.54333e-08
-1.7989e-07
-1.33725e-06
-1.03183e-07
-2.66365e-07
-1.59414e-06
-1.25911e-07
-3.51593e-07
-1.80216e-06
-1.48e-07
-4.28125e-07
-1.98223e-06
-1.71919e-07
-4.88748e-07
-2.1462e-06
-1.98831e-07
-5.26939e-07
-2.30022e-06
-2.28941e-07
-5.37405e-07
-2.44647e-06
-2.61574e-07
-5.16629e-07
-2.58415e-06
-2.95413e-07
-4.63527e-07
-2.71015e-06
-3.28684e-07
-3.79595e-07
-2.82008e-06
-3.59178e-07
-2.69451e-07
-2.90873e-06
-3.84546e-07
-1.4015e-07
-2.97118e-06
-4.02791e-07
-7.2033e-10
-3.00344e-06
-4.12385e-07
1.38729e-07
-3.00335e-06
-4.12404e-07
2.68076e-07
-2.97091e-06
-4.02843e-07
3.7833e-07
-2.90833e-06
-3.8462e-07
4.623e-07
-2.8195e-06
-3.59263e-07
5.15569e-07
-2.70952e-06
-3.28776e-07
5.36479e-07
-2.58341e-06
-2.95495e-07
5.26166e-07
-2.44571e-06
-2.61652e-07
4.88117e-07
-2.29942e-06
-2.29008e-07
4.27623e-07
-2.14542e-06
-1.98883e-07
3.51248e-07
-1.98151e-06
-1.71958e-07
2.66157e-07
-1.80149e-06
-1.48025e-07
1.79765e-07
-1.59354e-06
-1.25945e-07
9.96953e-08
-1.33675e-06
-1.03193e-07
3.4782e-08
-9.92029e-07
-7.54148e-08
-4.71658e-07
-3.47697e-08
-4.30906e-08
-3.85633e-07
-4.3086e-08
-1.2376e-07
-8.18443e-07
-9.3252e-08
-2.24207e-07
-1.10893e-06
-1.27866e-07
-3.34034e-07
-1.32712e-06
-1.5719e-07
-4.44057e-07
-1.50502e-06
-1.87116e-07
-5.44913e-07
-1.6603e-06
-2.2108e-07
-6.27168e-07
-1.80316e-06
-2.60785e-07
-6.81869e-07
-1.93887e-06
-3.06655e-07
-7.01226e-07
-2.06922e-06
-3.57886e-07
-6.79562e-07
-2.1932e-06
-4.12617e-07
-6.14212e-07
-2.30764e-06
-4.67862e-07
-5.06294e-07
-2.40815e-06
-5.19854e-07
-3.61144e-07
-2.48961e-06
-5.64265e-07
-1.8828e-07
-2.5472e-06
-5.96845e-07
-6.07638e-10
-2.57703e-06
-6.1408e-07
1.87073e-07
-2.57694e-06
-6.14085e-07
3.59968e-07
-2.54695e-06
-5.96862e-07
5.05154e-07
-2.48922e-06
-5.64294e-07
6.13162e-07
-2.40763e-06
-5.19881e-07
6.78601e-07
-2.30706e-06
-4.67899e-07
7.00371e-07
-2.19253e-06
-4.12647e-07
6.81112e-07
-2.06853e-06
-3.57917e-07
6.26577e-07
-1.93821e-06
-3.06683e-07
5.44428e-07
-1.80246e-06
-2.60806e-07
4.43705e-07
-1.65968e-06
-2.21099e-07
3.33791e-07
-1.50445e-06
-1.87128e-07
2.24069e-07
-1.32663e-06
-1.57191e-07
1.23717e-07
-1.10855e-06
-1.27854e-07
4.30772e-08
-8.1816e-07
-9.32296e-08
-3.85516e-07
-4.30649e-08
-4.82871e-08
-2.89056e-07
-4.82902e-08
-1.39277e-07
-6.23108e-07
-1.04345e-07
-2.538e-07
-8.5117e-07
-1.43241e-07
-3.80823e-07
-1.0232e-06
-1.76901e-07
-5.09991e-07
-1.16348e-06
-2.12373e-07
-6.30367e-07
-1.286e-06
-2.53919e-07
-7.30628e-07
-1.39914e-06
-3.03754e-07
-7.99593e-07
-1.50743e-06
-3.6247e-07
-8.27433e-07
-1.61222e-06
-4.29165e-07
-8.06484e-07
-1.71266e-06
-5.01481e-07
-7.32646e-07
-1.80599e-06
-5.75484e-07
-6.06477e-07
-1.88838e-06
-6.45939e-07
-4.33977e-07
-1.95545e-06
-7.06661e-07
-2.26615e-07
-2.00298e-06
-7.51583e-07
-4.86893e-10
-2.02762e-06
-7.75538e-07
2.25644e-07
-2.02755e-06
-7.75528e-07
4.33013e-07
-2.00276e-06
-7.51557e-07
6.05549e-07
-1.95515e-06
-7.06608e-07
7.31745e-07
-1.88798e-06
-6.45845e-07
8.05603e-07
-1.8055e-06
-5.75415e-07
8.26629e-07
-1.71211e-06
-5.01449e-07
7.98914e-07
-1.61167e-06
-4.29145e-07
7.30024e-07
-1.50686e-06
-3.62459e-07
6.2992e-07
-1.39861e-06
-3.03745e-07
5.09656e-07
-1.2855e-06
-2.53917e-07
3.80594e-07
-1.16302e-06
-2.12366e-07
2.5368e-07
-1.02283e-06
-1.76893e-07
1.39217e-07
-8.50861e-07
-1.43223e-07
4.82809e-08
-6.22904e-07
-1.0432e-07
-2.88967e-07
-4.82683e-08
-4.90807e-08
-1.90896e-07
-4.90785e-08
-1.42839e-07
-4.23465e-07
-1.05885e-07
-2.62988e-07
-5.858e-07
-1.45221e-07
-3.98647e-07
-7.07823e-07
-1.79715e-07
-5.38863e-07
-8.06177e-07
-2.17085e-07
-6.71567e-07
-8.91168e-07
-2.62131e-07
-7.83963e-07
-9.69296e-07
-3.17453e-07
-8.63425e-07
-1.04414e-06
-3.83828e-07
-8.98412e-07
-1.11695e-06
-4.60277e-07
-8.79874e-07
-1.18712e-06
-5.44087e-07
-8.02574e-07
-1.25266e-06
-6.30631e-07
-6.66581e-07
-1.31074e-06
-7.13634e-07
-4.78131e-07
-1.35817e-06
-7.85728e-07
-2.49976e-07
-1.39182e-06
-8.39313e-07
-3.69711e-10
-1.40929e-06
-8.6794e-07
2.49229e-07
-1.40923e-06
-8.67915e-07
4.77368e-07
-1.39165e-06
-8.39245e-07
6.658e-07
-1.35791e-06
-7.85671e-07
8.01805e-07
-1.31041e-06
-7.13578e-07
8.79106e-07
-1.25226e-06
-6.30539e-07
8.97697e-07
-1.1867e-06
-5.43995e-07
8.62755e-07
-1.11652e-06
-4.60206e-07
7.83407e-07
-1.04374e-06
-3.83773e-07
6.71111e-07
-9.68902e-07
-3.17415e-07
5.38523e-07
-8.90808e-07
-2.62106e-07
3.98426e-07
-8.05859e-07
-2.17064e-07
2.62862e-07
-7.07562e-07
-1.797e-07
1.4279e-07
-5.85591e-07
-1.45198e-07
4.90695e-08
-4.23325e-07
-1.05858e-07
-1.9084e-07
-4.90575e-08
-4.43139e-08
-1.02271e-07
-4.43115e-08
-1.31765e-07
-2.4068e-07
-9.53337e-08
-2.4734e-07
-3.40109e-07
-1.30116e-07
-3.81163e-07
-4.13316e-07
-1.60685e-07
-5.22162e-07
-4.70266e-07
-1.94912e-07
-6.57686e-07
-5.17882e-07