/*--------------------------------*- C++ -*----------------------------------*\
| =========                 |                                                 |
| \\      /  F ield         | OpenFOAM: The Open Source CFD Toolbox           |
|  \\    /   O peration     | Version:  v1912                                 |
|   \\  /    A nd           | Website:  www.openfoam.com                      |
|    \\/     M anipulation  |                                                 |
\*---------------------------------------------------------------------------*/
FoamFile
{
    version     2.0;
    format      ascii;
    class       volScalarField;
    location    "172/oil";
    object      wallHeatFlux;
}
// * * * * * * * * * * * * * * * * * * * * * * * * * * * * * * * * * * * * * //

dimensions      [1 0 -3 0 0 0 0];


internalField   uniform 0;

boundaryField
{
    maxY
    {
        type            calculated;
        value           uniform 0;
    }
    minX
    {
        type            calculated;
        value           uniform 0;
    }
    maxX
    {
        type            calculated;
        value           uniform 0;
    }
    minY
    {
        type            calculated;
        value           uniform 0;
    }
    minZ
    {
        type            calculated;
        value           uniform 0;
    }
    maxZ
    {
        type            calculated;
        value           uniform 0;
    }
    oil_to_sphere
    {
        type            calculated;
        value           nonuniform List<scalar> 
1536
(
2685.28
2823.19
2594.87
2558.16
2160.76
2246.52
2217.53
1582
1493.2
2932.53
2136.01
2964.55
3020.62
2966.74
2541.73
2146.55
1606.31
1503.98
-26.5772
3014.04
2934.3
2269.22
2229
2166.96
2296.45
2295.56
2296.66
2174.34
2830.1
2789.67
2598.21
1994.52
1809.04
2308.13
2154.7
2139.01
2037.95
2418.71
2262.94
2404.16
2263.36
2139.32
2754.35
2972.26
2805.69
2950.22
2247.1
2251.48
2499.31
2304.96
2263.54
2267.86
2208.33
2246.34
1897.61
1766.65
2235.37
2227.45
1515.39
877.524
1020.9
857.194
991.006
3009.9
3028.07
2960.57
2819.46
2957.92
2674.12
2794.44
2315.82
2240.22
2591.65
2271.76
2155.78
1816.45
1739.01
1681.1
2150.59
1504.67
851.32
992.74
688.941
672.687
1094.01
1017.14
717.576
1597.4
1502.73
873.581
1005.9
-29.5559
-25.8355
3023.42
3031.06
2975.44
2856.2
2906.57
2967.95
2659.07
2831.95
2304.64
2669.95
2603.03
2256.32
2271.15
2169.9
1694.02
2125.97
1829.85
1727.44
1802.77
873.354
1026.89
701.937
726.528
699.168
1083.51
1016.67
1108.7
1512.73
1008.14
-26.4605
2960.55
2660.91
2791.98
2676.79
2778.6
2260.47
2269.54
2290.02
2260.08
2268.79
2244.48
2284.28
2296.76
2246.1
1767.41
2213.42
2205.4
878.533
1014.27
1599.33
1513.55
995.266
1487.21
2513.78
2513.82
2210.94
2332.46
2593.33
2510.48
2243.13
2285.31
2272.51
2040.66
1900.13
1929.02
2521.58
2475.67
2530.13
2724.78
2380.8
2285.78
2141.33
2044.11
2247.46
2088.3
1910.56
1939.26
2736.14
2438.34
2799.73
2401.68
1960.6
1723.09
2530.45
2556.58
2655.24
2497.88
2374.13
2277
2048.21
2269.5
1980.8
1942.96
1936.73
2872.4
2484.85
2597.98
2722.85
2533.99
2693.91
2583.32
1993.3
2009.59
2074.43
2094.06
1969.61
2026.32
2078.74
2155.46
1503.41
1451.31
1396.93
1539.24
1610.26
1580.66
1688.29
1653.59
1457.1
1350.51
1293.37
2890.3
3090.4
3032.73
2905.92
2903.64
2925.72
2895.99
2873.47
2981.68
2815.6
2883.47
2889.7
2542.69
2537.22
2807.31
2654.24
2332.67
2056.04
1983.25
2243.91
2003.87
1468.86
1523.03
1412.81
1544.89
1597.91
1425.96
1339.08
582.738
465.203
2992.02
2894.29
2939.64
2883.24
2959.01
3098.85
2969.15
2879.59
2468.63
2296.78
2476.77
2511.32
2019.5
2158.61
1472.24
1361.84
1619.11
1749.48
1679.96
1309.32
455.261
565.997
227.684
227.784
572.247
2936.13
2871.79
2857.56
2818.56
2883.65
2894.37
2845.24
2945.49
3139.25
3005.62
2871.71
2692.91
2517.28
2525.66
2634.94
2828.67
2663.7
2523.28
2519.63
2042.37
2062.17
2161.64
2187.92
2080.35
2153.7
1414.83
1354.55
1441.51
1569.01
1520.5
1602.69
1587.02
1588.54
1402.29
1323.81
1549.57
1446.76
2331.26
2207.18
2240.69
2042.91
1980.91
1946.49
1876.35
2755.53
2641.07
2809.54
2727.07
2640.74
2744.2
2777.54
2827.79
2913.02
2773.39
2805.94
2765.33
3077.6
2939.19
2890.4
2804.78
2909.56
2997.5
2897.71
2696.16
2730.05
2794.12
2641.88
2791.82
2833.69
2911.49
2892.62
2974.5
2942.46
2916.41
2845.24
2843.52
2821.87
2848.71
2749.84
2758.58
2661.86
2741.96
2612.25
2655.36
2830.91
2514.17
2756.86
2540.6
2580.22
2490.48
2336.07
2740.32
2522.52
2507.67
2630
2342.3
2449.21
2527.43
2315.89
2400.33
2254.18
2545.67
2737.47
2527.13
2545.09
2579.69
2372.76
2462.15
2439.6
2050.51
2117.32
2032.82
1916.4
1843.03
1923.89
1765.59
1706.87
2065.83
2123.28
2055.85
1945.49
1864.31
1982.57
1762.48
1707.26
1661.14
2003.02
1697.6
1939.25
1874.64
1946.91
1758.21
2058.3
2139.11
2049.37
2124.39
1734.08
1667.96
1941.14
1871.77
1966.13
1738.94
1686.01
1570.99
1508.53
1563.97
1503.2
1407.53
1412.36
1333.18
1482.09
1366.17
1620.53
1314.18
1347.12
1286.48
1201.37
1314.16
1271.35
1139.52
1093.91
962.636
1527.49
1472.71
1401.17
1548.43
1354.3
1410.97
1141.44
1077.99
1049.99
963.89
1291.3
1215.17
1318.23
1274.95
1250.24
1561.48
1500.45
1575.09
1580.77
1410.54
1323.61
1517.34
1437.89
3342.12
3192.42
3058.62
3304.68
3072.88
3110.64
3196.25
2984.11
3024.97
3081.42
3066.14
2885.72
2996.45
2846.23
2829.45
2797.39
2789.63
2850.9
2828.35
2907.24
2987.94
2726.28
2931.54
2758.75
2848.05
2773.41
2939.32
2807.12
2926
2868.31
2956.87
2881.81
2733.82
2825.38
2664.45
2874.85
2498.29
2593.69
2555.52
2266.89
2392.09
2377.34
2541.13
2266.82
2506.06
2253.68
2388.89
2291.05
2170.08
2243.1
2057.76
2009.19
1877.73
1953.7
1917.58
1836.49
1724.61
1973.13
1711.76
2141.99
2036.42
1902.01
1353.55
1277.35
1214.72
1333.91
1283.89
1462.03
1354.72
1616.66
1301.7
1130.06
1111.91
977.25
788.966
657.174
799.437
663.241
908.182
1023.14
903.473
765.526
796.688
1451.52
1516.21
1395.41
1538.46
1311.88
1219.95
1335.28
1257.77
1449.14
1344.6
1570.29
1668.89
1306.29
1133.59
1256
1093.81
963.821
1207.91
570.076
462.508
598.648
463.424
236.427
232.22
233.72
231.092
442.193
3252.31
3029.04
3114.42
3083.6
3038.67
3256.86
3124.24
3077.05
3016.89
2890.11
3063.6
3097.88
3159.95
2902.47
2910.04
2993.95
3003.11
2726.87
2887.56
2737.76
2939.97
2851.87
2840.07
2794.38
2876.72
2790.13
2868.05
2956.38
2810.45
2717.58
2672.75
2858.78
2936.02
2726.23
2912.42
2758.17
2658.49
2968.7
2845.24
2829.52
2870.05
2768.13
2766.59
2840.47
2935.7
2780.01
2671.81
2548.45
2511.23
2399.95
2286.21
2422.61
2693.16
2590.22
2549.69
2443.84
2428.13
2350.17
2375.17
2389.03
2269.29
2269.71
2048.28
2233.03
1982.05
2089.83
1949.9
1881.6
2312.88
2159.57
1760.34
2004.92
1707.64
1985.68
1829.3
1718.91
1918.78
1947.19
1931.29
1918.1
1887.42
2261.11
2022.53
1130.13
1120.34
1060.07
981.902
1517.68
1453.62
1400.75
1544.51
1356.26
1415.01
1227.29
1338.59
1330
1270.36
1240.48
920.182
920.118
1037.21
780.08
791.487
655.355
801.579
804.023
651.247
1010.18
894.05
902.041
1027.8
770.419
1451.59
1349.18
1599.23
1666.98
1307.84
1139.58
1260.35
1079.67
1057.26
1214.12
1422.44
1330.99
1507.52
1468.3
1400.42
1545.54
1592.32
1214.88
1290.88
1328.93
1264.4
1247.57
233.946
234.907
590.051
577.356
466.94
441.506
712.741
574.235
449.355
2633.12
2785.78
2769.3
2626.51
2764.07
2633.83
2626.22
2927.16
2872.74
2995.62
2877.29
2735.34
2835.41
2782.99
2910.59
2808.26
2859.21
2741.53
2740.58
2935.86
2846.71
2801.06
2815.46
2769.01
2766.18
2824.83
2678.2
2658.82
2741.31
2812.96
2735.67
2865.7
2781.56
3003.9
2749.01
2680.97
2719.86
2741.35
2659.28
2628.49
2836.43
2525.1
2392.15
2397.22
2481.52
2281.78
2718.69
2521.13
2511.18
2596.96
2453.33
2456.79
2375.66
2649.31
2494.32
2520.42
2593.91
2351.37
2374.26
2505.46
2476.67
2281.35
2571.49
2716.4
2559.13
2585.09
2467.55
2459.73
2392.71
2390.29
2269.5
1935.14
1866.65
1954.7
1759.59
1731.27
1675.03
2105.81
2006.14
2123.67
2056.72
1867.5
1942.55
1937.79
1733.4
1682.49
1697.84
2058.97
2053.46
2139.55
2045.92
2134.11
1723.5
1758.34
1928.9
1854.73
1938.43
1726.86
1680.39
2163.94
2037.51
2039.4
2088.63
2149.71
1755.01
1691.05
1873.28
1953.58
1953.1
1501.96
1574.6
1409.61
1399
1319.4
1564.25
1508.89
1571.5
1292.78
1213.61
1326.17
1258.22
1160.2
1288.41
1104.29
971.421
1225.45
1463.1
1504.49
1392.18
1547.25
1671.34
1823.37
1512.91
1391.75
1326.1
1360.67
1469.74
1137.75
1246.53
1089.63
1069.84
1198.32
1299.77
1223.27
1308.09
1289.28
1250.13
1573.74
1674.59
1463.49
1352.13
1300.16
1540.96
1601.38
1462.73
1520.68
1410.75
2608.65
2534.47
1734.2
1630.7
2965.42
2849.19
2928.17
2954.09
2927.52
2494.83
2700.9
2615.53
2679.9
2131.53
2278.27
1633.01
672.299
626.954
2599.66
2596.26
1589.57
676.613
604.558
877.308
2959
2526.47
2229.18
858.343
2682.79
2577.36
2653.18
2120.48
2294.29
2273.38
1581.1
2614.94
2684.56
2262.5
2284.34
2654.02
2248.18
2276.17
2076.87
2157.54
1681.28
1805.15
1906.76
2535.68
2636.37
2228.59
2384.44
2114.21
2215.55
1681.52
1801.3
1835.11
2513.36
2684.74
2241.84
2450.79
1873.06
1695.31
1844.34
2056.55
2384.45
2355.43
2653.76
2693.76
2279.04
2259.38
2228.59
2278.52
1824.59
1698.08
1824.52
1602.19
3092.4
3015.5
2656.39
2909.13
2644.97
2975.94
2938.84
2272.36
2547.6
2539.67
2594.47
2530.27
2248.14
1861.11
1802.77
1805.53
1818.08
1811.41
1778.32
1164.88
1627.82
1114.05
1176.84
3030.18
2938.62
3065.78
2959.05
3035.77
2984.97
3034.67
3006.67
3067.88
2989.37
2654.06
2918.08
2655.9
2796.29
2660.46
2236.92
2416.63
2507.72
2745.53
2300.93
2632.9
2238.86
1697.4
1827.01
1867.87
1720.24
1804.1
1793.03
1607.25
1174.02
1056.46
1017.84
1070.36
1626.01
1153.82
634.222
658.568
604.341
3090.66
3029.94
2984.59
3144.03
2998.46
3060.21
2987.54
3108
3051.41
2666.06
2908.97
2610.13
2949.61
2930.16
2843.48
2925.75
2840.23
2630.21
2726.63
2227.26
2508.34
2720.7
2528.19
2697.6
2282.04
1682.4
1838.03
2108.66
2254.35
1773.32
1901.75
1711.76
1816
2223.07
1638.1
1166.89
995.943
1061.53
1012.45
1617.25
1153.14
633.953
606.328
620.671
3017.68
2777.15
2679.64
2963.29
2632
2273.13
2595.13
2550.59
2547.96
2535.03
1790.26
1916.91
1783.6
1784.5
1788.3
1159.51
1660.54
1184.75
1650.08
2647.98
2506.17
2364.29
2491.18
2687.54
2524.77
1947.67
2050.24
1941.87
2572.93
2687.51
2556.29
2415.2
2712.03
2326.63
2483.93
2465.06
2335.54
2551.24
2440.38
2689.84
2375.61
2446.47
2457.23
2387.46
2147.65
2129.8
1959.33
1954.66
1853.07
1723.63
1941.16
1824.91
1888.42
2661.35
2480.9
2395.29
2483.86
2660.56
2324.4
2365.01
2381.92
2186.52
2480.44
2046.19
2204.11
2161.55
1972.47
1987.59
1872.92
1722.37
1918.43
1809.05
1891.39
2494.24
2648.64
2322.94
2344.33
2403.54
2165.02
2471.23
2127.94
1959.5
1805.31
1973.95
1904.47
1960.16
2840.26
2846.21
2822.87
2863.79
2368.96
2673.44
2561.74
2063.94
2067.85
2160.88
2144.91
2128.61
1578.89
1698.38
1678.71
1440.16
1395.31
1715.89
1606.11
1603.31
2861.27
2893.27
2951.81
2822.32
2422.15
2551.68
2346.74
2739.75
2536.36
2126.28
2124.43
1974.31
1593.79
1759.45
1676.32
1449.76
918.251
939.879
776.319
793.675
653.661
584.872
2865.84
2850.06
2846.34
2801.65
2918.77
2494.51
2635.41
2565.9
2033.66
1399.04
1693.94
789.778
651.773
595.537
422.792
963.103
2863.35
2872.46
2949.81
2866.69
2917.45
2914.76
2872.31
2843.55
2928.41
2329.7
2449.93
2856.39
2531.89
2139.6
2147.58
1601.54
1698.75
1583.6
1525.52
1659.45
1438.16
972.589
2131.2
1669.27
2735.45
2678.14
2497.13
2511.48
2132.59
2025.93
2093.62
1915.77
1799.84
1953.45
1833.04
1821
1778.65
3085.05
3028.2
2580.34
2601.23
2766.87
2845.59
2808.73
2833.05
2616.55
2755.41
2692.38
2804.33
2631.32
2726.39
2890.76
2816.63
2834.59
2818.3
2599.42
2684.39
2723.37
2788.15
2858.55
2927.99
2887.2
2912.2
2761.14
2608.45
2708.25
2925.68
2866.04
2930.08
2885.55
2625.36
2847.18
2907.56
2809.15
2693.35
2743.59
2689.04
2495.16
2416.99
2773.3
2490.96
2385.67
2383.81
2236.67
2257.9
2249.77
2403.65
2704.7
2550.49
2283.6
2268.48
2387.19
2286.67
2407.53
2654.16
2461.68
2266.23
2176.35
2151.35
1910.82
1957.57
1719.23
2154
1910.04
1982.62
1740.64
2077.79
2157.19
1928.91
1734.01
2141.64
1849.74
1928.06
1589.35
1585.82
1398.32
1415.31
1245.65
1261.02
1420.65
1263.47
1222.23
1074.46
1041.57
1030.28
1105.59
1568.54
1442.07
1255.34
1201.84
1091.36
1093.15
1021
1526.3
1597.49
1254.74
3115.61
2965.14
3044.57
2888.15
2953.14
3110.67
2839.39
3258.65
2965.24
3003.68
2984.3
3117.43
2991.14
3096.11
3264.87
3123
2962.47
3068.91
2760.91
2857.15
3012.31
2918.42
2650.28
2837.58
2729.37
2877.23
2815.41
2860.69
2817.66
2931.02
2736.32
2590.22
2667.47
2780.01
2919.28
2844.94
2831.27
2763.91
2351.63
2446.34
2257.16
2498.83
2642.97
2355.09
2446.72
2483.05
2516.16
2522.67
2639.15
2375.29
2055.98
1952.86
1875.1
2005.63
2139.35
1804.27
1828.08
1946.95
2062.04
1952.58
1845.38
1733.25
1098.78
1072.53
1046.26
1392.52
1253.95
1203.24
1084.88
1568.03
1628.21
1083.88
1053.74
1397.93
1094.42
595.826
600.646
446.047
712.135
427.968
598.801
738.655
3146.63
2966.51
3193.34
3057.39
3044.39
2930.47
2960.09
2841.34
3085.08
3192.94
3097.75
2970.2
2936.49
2905.31
2997.66
3001.26
2998.24
2761.91
2936.05
2718.22
2905.5
2932.53
2859
2567.61
2930.19
2788.47
2851.52
2823.48
2755.08
2821.64
2824.56
2658.48
2731.37
2660.51
2459.31
2657.76
2503.35
2366.15
2320.82
2173.85
2390.99
2683.39
2469.2
2483.93
2091.92
1830.17
1862.66
2029.73
2023.75
1895.76
1990.87
1984.33
1942.91
1846.19
2115.94
2132.46
1255.29
1207.39
1090.05
1590.63
1453.81
1086.58
1043.51
1406.19
1100.95
1571.22
1074.12
439.256
594.174
740.687
3111.5
2862.55
2644.77
2818.85
2641.1
2639.84
2735.45
2919.81
2859.37
2836.96
2652.84
2736.45
2800.65
2762.55
2871.76
2830.68
2856.14
2820.75
2760.28
2606.67
2823.45
2724.83
2692.87
2523.33
2280.5
2433.22
2781.43
2484.29
2378.43
2254.39
2253.44
2397.06
2689.66
2260.09
2389.64
2680.38
2281.7
1895.17
1756.52
2091.2
2151.81
2085.3
1896.72
1994.44
2124.39
1854.25
2137.98
1854.77
1239.47
1593.97
1079.24
1050.04
1117.29
1574.46
1708.3
1418.36
1086.59
1112.73
1390.04
1580.46
)
;
    }
}


// ************************************************************************* //
