/*--------------------------------*- C++ -*----------------------------------*\
| =========                 |                                                 |
| \\      /  F ield         | OpenFOAM: The Open Source CFD Toolbox           |
|  \\    /   O peration     | Version:  v1906                                 |
|   \\  /    A nd           | Web:      www.OpenFOAM.com                      |
|    \\/     M anipulation  |                                                 |
\*---------------------------------------------------------------------------*/
FoamFile
{
    version     2.0;
    format      ascii;
    class       volVectorField;
    location    "63.6/oil";
    object      U;
}
// * * * * * * * * * * * * * * * * * * * * * * * * * * * * * * * * * * * * * //

dimensions      [0 1 -1 0 0 0 0];


internalField   nonuniform List<vector> 
27760
(
(-2.50406e-05 -2.55226e-05 -2.50406e-05)
(-4.94281e-05 -1.91463e-05 -1.80382e-05)
(-3.60557e-06 -4.96472e-06 -4.93503e-06)
(-5.88018e-06 -8.09021e-07 -9.02762e-07)
(-1.2129e-06 -2.57223e-07 -3.67338e-07)
(-4.58936e-07 -1.04707e-07 -2.24648e-07)
(2.18629e-07 -1.21533e-08 -1.41535e-07)
(5.56891e-07 2.82417e-08 -1.08848e-07)
(7.45391e-07 5.16437e-08 -9.09281e-08)
(8.19085e-07 6.65968e-08 -7.9406e-08)
(8.02632e-07 7.75032e-08 -7.0085e-08)
(7.09589e-07 8.57123e-08 -6.23051e-08)
(5.52852e-07 9.18929e-08 -5.59706e-08)
(3.47461e-07 9.61184e-08 -5.14044e-08)
(1.11011e-07 9.83312e-08 -4.89501e-08)
(-1.36941e-07 9.84894e-08 -4.87953e-08)
(-3.76326e-07 9.66384e-08 -5.08949e-08)
(-5.88247e-07 9.29312e-08 -5.49459e-08)
(-7.56703e-07 8.7622e-08 -6.04069e-08)
(-8.69938e-07 8.10215e-08 -6.65445e-08)
(-9.21365e-07 7.34578e-08 -7.25282e-08)
(-9.10138e-07 6.50719e-08 -7.73613e-08)
(-8.40729e-07 5.63289e-08 -8.00152e-08)
(-7.22721e-07 4.7349e-08 -7.97872e-08)
(-5.7043e-07 3.83693e-08 -7.58759e-08)
(-4.0187e-07 2.97822e-08 -6.77668e-08)
(-2.38026e-07 2.23928e-08 -5.55241e-08)
(-1.01698e-07 1.76726e-08 -4.02068e-08)
(-1.35017e-08 1.75615e-08 -2.47801e-08)
(9.75788e-09 1.91148e-08 -9.69359e-09)
(-1.81655e-05 -5.07924e-05 -1.81654e-05)
(-5.9435e-06 -6.60018e-06 -8.13484e-06)
(-8.00286e-06 -7.99525e-06 -2.84511e-06)
(-3.58635e-06 -2.33104e-06 -8.18254e-07)
(-1.20929e-06 -1.42336e-06 -4.11137e-07)
(-3.51135e-08 -7.76597e-07 -2.06631e-07)
(8.14623e-07 -4.88113e-07 -1.05738e-07)
(1.32847e-06 -3.20828e-07 -5.49858e-08)
(1.62555e-06 -2.12146e-07 -2.31623e-08)
(1.73472e-06 -1.3044e-07 1.67236e-11)
(1.67839e-06 -6.38855e-08 1.92818e-08)
(1.47428e-06 -8.97021e-09 3.56881e-08)
(1.14438e-06 3.44171e-08 4.89756e-08)
(7.17115e-07 6.49485e-08 5.84772e-08)
(2.27376e-07 8.12258e-08 6.35553e-08)
(-2.8555e-07 8.25039e-08 6.38553e-08)
(-7.8111e-07 6.90602e-08 5.94527e-08)
(-1.22107e-06 4.23052e-08 5.08902e-08)
(-1.57304e-06 4.6768e-09 3.91288e-08)
(-1.81324e-06 -4.06233e-08 2.54483e-08)
(-1.92858e-06 -8.9951e-08 1.12967e-08)
(-1.91709e-06 -1.39574e-07 -1.63646e-09)
(-1.78789e-06 -1.85555e-07 -1.20362e-08)
(-1.56053e-06 -2.24205e-07 -1.87487e-08)
(-1.26318e-06 -2.51414e-07 -2.08756e-08)
(-9.30773e-07 -2.62335e-07 -1.80835e-08)
(-6.02422e-07 -2.50712e-07 -1.0958e-08)
(-3.1768e-07 -2.08948e-07 -1.52882e-09)
(-1.10794e-07 -1.29875e-07 5.73732e-09)
(-5.85714e-09 -2.61426e-08 5.95441e-09)
(-5.02234e-06 -4.79193e-06 -5.02226e-06)
(-7.8727e-06 -9.01735e-06 -2.89827e-06)
(-4.01721e-06 -5.16314e-06 -1.26996e-06)
(-2.21208e-06 -3.05385e-06 -5.91352e-07)
(-5.22603e-07 -2.18083e-06 -2.68746e-07)
(5.75257e-07 -1.62273e-06 -1.09604e-07)
(1.39909e-06 -1.30969e-06 -2.44032e-08)
(1.94465e-06 -1.09402e-06 2.45741e-08)
(2.2641e-06 -9.2718e-07 5.87534e-08)
(2.36792e-06 -7.84664e-07 8.59414e-08)
(2.26876e-06 -6.5886e-07 1.0947e-07)
(1.98243e-06 -5.49891e-07 1.29835e-07)
(1.53413e-06 -4.6152e-07 1.46449e-07)
(9.59481e-07 -3.98427e-07 1.58351e-07)
(3.03463e-07 -3.6454e-07 1.64705e-07)
(-3.8268e-07 -3.61885e-07 1.65052e-07)
(-1.0458e-06 -3.89972e-07 1.59468e-07)
(-1.63575e-06 -4.45645e-07 1.48595e-07)
(-2.11001e-06 -5.23337e-07 1.33571e-07)
(-2.43749e-06 -6.1563e-07 1.15916e-07)
(-2.60098e-06 -7.13985e-07 9.73125e-08)
(-2.59811e-06 -8.09183e-07 7.95121e-08)
(-2.44087e-06 -8.92021e-07 6.40181e-08)
(-2.15433e-06 -9.53082e-07 5.20455e-08)
(-1.77414e-06 -9.82317e-07 4.43328e-08)
(-1.34364e-06 -9.68432e-07 4.09423e-08)
(-9.1016e-07 -8.97989e-07 4.09281e-08)
(-5.19515e-07 -7.55448e-07 4.17005e-08)
(-2.13033e-07 -5.24072e-07 3.82155e-08)
(-2.12509e-08 -2.00756e-07 2.13716e-08)
(-8.9925e-07 -6.97464e-06 -8.99153e-07)
(-2.01771e-06 -5.47566e-06 -8.03993e-07)
(-1.5773e-06 -4.68095e-06 -5.71361e-07)
(-6.91051e-07 -3.66974e-06 -2.82866e-07)
(3.83042e-07 -3.11673e-06 -1.12632e-07)
(1.26234e-06 -2.72075e-06 -1.3712e-08)
(1.98301e-06 -2.44611e-06 4.79447e-08)
(2.4956e-06 -2.21792e-06 8.96955e-08)
(2.79618e-06 -2.0112e-06 1.22752e-07)
(2.87386e-06 -1.81514e-06 1.51447e-07)
(2.72904e-06 -1.6309e-06 1.77378e-07)
(2.37309e-06 -1.46552e-06 2.0028e-07)
(1.83155e-06 -1.32861e-06 2.19131e-07)
(1.14409e-06 -1.22976e-06 2.32686e-07)
(3.62338e-07 -1.17642e-06 2.39917e-07)
(-4.54098e-07 -1.17243e-06 2.40269e-07)
(-1.2431e-06 -1.21716e-06 2.33807e-07)
(-1.94596e-06 -1.30533e-06 2.21242e-07)
(-2.51294e-06 -1.42752e-06 2.0385e-07)
(-2.90786e-06 -1.57108e-06 1.8331e-07)
(-3.11075e-06 -1.72134e-06 1.61473e-07)
(-3.11899e-06 -1.86261e-06 1.40166e-07)
(-2.94648e-06 -1.97884e-06 1.20974e-07)
(-2.62173e-06 -2.05378e-06 1.05107e-07)
(-2.18477e-06 -2.0704e-06 9.32034e-08)
(-1.68352e-06 -2.01009e-06 8.5183e-08)
(-1.16963e-06 -1.85133e-06 7.99468e-08)
(-6.92486e-07 -1.56852e-06 7.45574e-08)
(-3.00354e-07 -1.12823e-06 6.34923e-08)
(-3.3674e-08 -4.85189e-07 3.3823e-08)
(-2.88176e-07 -2.6514e-06 -2.88057e-07)
(-9.02271e-07 -4.12903e-06 -3.38838e-07)
(-4.47177e-07 -4.47653e-06 -2.22419e-07)
(2.39895e-07 -4.33562e-06 -9.36261e-08)
(1.07532e-06 -4.18737e-06 -2.92353e-09)
(1.84145e-06 -4.00636e-06 5.82145e-08)
(2.49627e-06 -3.81884e-06 1.02785e-07)
(2.97758e-06 -3.61119e-06 1.38277e-07)
(3.25462e-06 -3.38541e-06 1.70002e-07)
(3.30351e-06 -3.14811e-06 1.99769e-07)
(3.11592e-06 -2.91206e-06 2.2777e-07)
(2.69946e-06 -2.69337e-06 2.53021e-07)
(2.07946e-06 -2.50907e-06 2.74021e-07)
(1.29834e-06 -2.37474e-06 2.892e-07)
(4.12898e-07 -2.30204e-06 2.97294e-07)
(-5.10602e-07 -2.29699e-06 2.97626e-07)
(-1.40276e-06 -2.35891e-06 2.90248e-07)
(-2.19794e-06 -2.4803e-06 2.75952e-07)
(-2.84064e-06 -2.64747e-06 2.56192e-07)
(-3.29067e-06 -2.84203e-06 2.32832e-07)
(-3.52613e-06 -3.04259e-06 2.07926e-07)
(-3.54438e-06 -3.2263e-06 1.83455e-07)
(-3.36079e-06 -3.36977e-06 1.61088e-07)
(-3.0064e-06 -3.44948e-06 1.4206e-07)
(-2.5243e-06 -3.44105e-06 1.2698e-07)
(-1.96541e-06 -3.31809e-06 1.15692e-07)
(-1.38451e-06 -3.04991e-06 1.07007e-07)
(-8.34195e-07 -2.59782e-06 9.77076e-08)
(-3.69993e-07 -1.90377e-06 8.17598e-08)
(-4.29293e-08 -8.58664e-07 4.31107e-08)
(-1.11907e-07 -2.40046e-06 -1.11764e-07)
(-1.53169e-07 -4.15339e-06 -1.04199e-07)
(2.68026e-07 -5.00732e-06 -4.62709e-08)
(8.81408e-07 -5.35723e-06 1.6161e-08)
(1.61248e-06 -5.5044e-06 6.72156e-08)
(2.32001e-06 -5.50415e-06 1.07404e-07)
(2.93708e-06 -5.40656e-06 1.42012e-07)
(3.39671e-06 -5.23106e-06 1.74091e-07)
(3.65434e-06 -4.99883e-06 2.05798e-07)
(3.67787e-06 -4.73107e-06 2.37377e-07)
(3.45284e-06 -4.45165e-06 2.6804e-07)
(2.98386e-06 -4.18584e-06 2.96178e-07)
(2.29596e-06 -3.95848e-06 3.19807e-07)
(1.4338e-06 -3.79138e-06 3.36966e-07)
(4.58677e-07 -3.70078e-06 3.46112e-07)
(-5.57275e-07 -3.69504e-06 3.46416e-07)
(-1.5382e-06 -3.77349e-06 3.37914e-07)
(-2.41233e-06 -3.92637e-06 3.21517e-07)
(-3.11913e-06 -4.13568e-06 2.98906e-07)
(-3.61508e-06 -4.37715e-06 2.72234e-07)
(-3.87695e-06 -4.62266e-06 2.43838e-07)
(-3.90225e-06 -4.84204e-06 2.15916e-07)
(-3.70791e-06 -5.00459e-06 1.90277e-07)
(-3.32728e-06 -5.07951e-06 1.68241e-07)
(-2.8059e-06 -5.03496e-06 1.50435e-07)
(-2.1973e-06 -4.83631e-06 1.36657e-07)
(-1.55908e-06 -4.44244e-06 1.25638e-07)
(-9.47178e-07 -3.79826e-06 1.13889e-07)
(-4.23913e-07 -2.814e-06 9.48292e-08)
(-4.97154e-08 -1.30075e-06 4.99322e-08)
(-1.24427e-08 -2.32828e-06 -1.22758e-08)
(1.7754e-07 -4.59126e-06 1.11418e-08)
(6.56849e-07 -5.88995e-06 4.54184e-08)
(1.28569e-06 -6.61759e-06 7.9842e-08)
(1.99709e-06 -7.01681e-06 1.11581e-07)
(2.69084e-06 -7.18074e-06 1.41023e-07)
(3.29676e-06 -7.17571e-06 1.70696e-07)
(3.74834e-06 -7.04235e-06 2.01775e-07)
(3.99503e-06 -6.81638e-06 2.34816e-07)
(4.00001e-06 -6.53096e-06 2.69139e-07)
(3.74479e-06 -6.21978e-06 3.03244e-07)
(3.23175e-06 -5.91672e-06 3.34974e-07)
(2.48569e-06 -5.65392e-06 3.61838e-07)
(1.55341e-06 -5.45936e-06 3.81421e-07)
(5.00249e-07 -5.3537e-06 3.91847e-07)
(-5.96181e-07 -5.34762e-06 3.9212e-07)
(-1.6541e-06 -5.44056e-06 3.82265e-07)
(-2.59606e-06 -5.62058e-06 3.63328e-07)
(-3.35704e-06 -5.86562e-06 3.37276e-07)
(-3.8907e-06 -6.1458e-06 3.06654e-07)
(-4.17283e-06 -6.42653e-06 2.74154e-07)
(-4.20158e-06 -6.67084e-06 2.42266e-07)
(-3.99565e-06 -6.8412e-06 2.13028e-07)
(-3.5906e-06 -6.89983e-06 1.87854e-07)
(-3.03446e-06 -6.8075e-06 1.67419e-07)
(-2.38311e-06 -6.52098e-06 1.51485e-07)
(-1.69682e-06 -5.98735e-06 1.38702e-07)
(-1.03468e-06 -5.1323e-06 1.2532e-07)
(-4.64691e-07 -3.8283e-06 1.04198e-07)
(-5.46633e-08 -1.795e-06 5.49185e-08)
(2.69887e-08 -2.62141e-06 2.7178e-08)
(3.47723e-07 -5.38261e-06 6.48835e-08)
(8.84041e-07 -7.05827e-06 9.19832e-08)
(1.54617e-06 -8.08768e-06 1.15558e-07)
(2.26694e-06 -8.70191e-06 1.38857e-07)
(2.96621e-06 -9.01426e-06 1.63728e-07)
(3.57469e-06 -9.10222e-06 1.91869e-07)
(4.02711e-06 -9.01998e-06 2.23815e-07)
(4.26999e-06 -8.81358e-06 2.59341e-07)
(4.26349e-06 -8.52541e-06 2.97248e-07)
(3.9862e-06 -8.1972e-06 3.35518e-07)
(3.43859e-06 -7.87e-06 3.71456e-07)
(2.64528e-06 -7.5825e-06 4.02066e-07)
(1.65486e-06 -7.36815e-06 4.24454e-07)
(5.36432e-07 -7.25154e-06 4.3636e-07)
(-6.27441e-07 -7.24547e-06 4.36599e-07)
(-1.74961e-06 -7.34947e-06 4.25184e-07)
(-2.74751e-06 -7.54975e-06 4.03336e-07)
(-3.55205e-06 -7.82056e-06 3.73368e-07)
(-4.11466e-06 -8.12711e-06 3.38258e-07)
(-4.41068e-06 -8.42917e-06 3.01114e-07)
(-4.43931e-06 -8.68375e-06 2.64806e-07)
(-4.22121e-06 -8.84722e-06 2.31643e-07)
(-3.79416e-06 -8.87539e-06 2.03149e-07)
(-3.20863e-06 -8.72213e-06 1.80059e-07)
(-2.52264e-06 -8.33524e-06 1.62089e-07)
(-1.79868e-06 -7.64885e-06 1.4782e-07)
(-1.09841e-06 -6.5671e-06 1.33249e-07)
(-4.93916e-07 -4.92028e-06 1.10744e-07)
(-5.81593e-08 -2.32784e-06 5.84537e-08)
(4.56635e-08 -3.05277e-06 4.58753e-08)
(4.33859e-07 -6.35157e-06 9.17702e-08)
(1.01202e-06 -8.39438e-06 1.164e-07)
(1.70372e-06 -9.69906e-06 1.35628e-07)
(2.43984e-06 -1.05133e-05 1.55468e-07)
(3.14957e-06 -1.09693e-05 1.78877e-07)
(3.76507e-06 -1.11555e-05 2.07352e-07)
(4.22222e-06 -1.11361e-05 2.41228e-07)
(4.46603e-06 -1.09652e-05 2.7991e-07)
(4.45448e-06 -1.0692e-05 3.21845e-07)
(4.16383e-06 -1.03644e-05 3.64622e-07)
(3.59281e-06 -1.00294e-05 4.05071e-07)
(2.76563e-06 -9.73059e-06 4.39689e-07)
(1.73225e-06 -9.50596e-06 4.65063e-07)
(5.64858e-07 -9.38348e-06 4.78518e-07)
(-6.4981e-07 -9.37768e-06 4.78725e-07)
(-1.82002e-06 -9.48817e-06 4.65692e-07)
(-2.8589e-06 -9.69963e-06 4.4077e-07)
(-3.69416e-06 -9.98341e-06 4.06645e-07)
(-4.27562e-06 -1.03006e-05 3.668e-07)
(-4.5786e-06 -1.06063e-05 3.2481e-07)
(-4.60378e-06 -1.08528e-05 2.83924e-07)
(-4.37394e-06 -1.09914e-05 2.46697e-07)
(-3.92913e-06 -1.09725e-05 2.14824e-07)
(-3.32183e-06 -1.07435e-05 1.89082e-07)
(-2.61168e-06 -1.02433e-05 1.69178e-07)
(-1.86266e-06 -9.39234e-06 1.5359e-07)
(-1.13794e-06 -8.07133e-06 1.38112e-07)
(-5.11932e-07 -6.06512e-06 1.1477e-07)
(-6.03469e-08 -2.8869e-06 6.0681e-08)
(5.38837e-08 -3.55848e-06 5.41176e-08)
(4.74337e-07 -7.42047e-06 1.04144e-07)
(1.07441e-06 -9.82867e-06 1.27992e-07)
(1.78146e-06 -1.13969e-05 1.45646e-07)
(2.52516e-06 -1.24051e-05 1.6437e-07)
(3.23956e-06 -1.30058e-05 1.87819e-07)
(3.85856e-06 -1.32985e-05 2.17515e-07)
(4.31906e-06 -1.33562e-05 2.53714e-07)
(4.56551e-06 -1.32389e-05 2.95704e-07)
(4.55437e-06 -1.30009e-05 3.41678e-07)
(4.25978e-06 -1.26943e-05 3.88894e-07)
(3.67864e-06 -1.23698e-05 4.33765e-07)
(2.83439e-06 -1.20749e-05 4.72272e-07)
(1.77754e-06 -1.1851e-05 5.00522e-07)
(5.82443e-07 -1.17284e-05 5.15479e-07)
(-6.61092e-07 -1.1723e-05 5.15653e-07)
(-1.8582e-06 -1.18347e-05 5.01047e-07)
(-2.9189e-06 -1.20468e-05 4.73153e-07)
(-3.76863e-06 -1.23283e-05 4.3503e-07)
(-4.35652e-06 -1.26377e-05 3.90622e-07)
(-4.65868e-06 -1.29265e-05 3.43938e-07)
(-4.67751e-06 -1.31438e-05 2.98649e-07)
(-4.43792e-06 -1.32372e-05 2.57566e-07)
(-3.98193e-06 -1.31529e-05 2.22528e-07)
(-3.36332e-06 -1.28324e-05 1.94331e-07)
(-2.64262e-06 -1.2206e-05 1.72662e-07)
(-1.88408e-06 -1.11803e-05 1.55958e-07)
(-1.1509e-06 -9.6114e-06 1.39873e-07)
(-5.17889e-07 -7.23686e-06 1.16193e-07)
(-6.11681e-08 -3.45957e-06 6.1543e-08)
(5.66851e-08 -4.09321e-06 5.69321e-08)
(4.84827e-07 -8.52735e-06 1.08089e-07)
(1.08544e-06 -1.12983e-05 1.31338e-07)
(1.78817e-06 -1.31239e-05 1.48331e-07)
(2.52358e-06 -1.43244e-05 1.66838e-07)
(3.22949e-06 -1.50739e-05 1.90819e-07)
(3.84216e-06 -1.54839e-05 2.21848e-07)
(4.30014e-06 -1.56345e-05 2.60211e-07)
(4.54818e-06 -1.55905e-05 3.05095e-07)
(4.54182e-06 -1.54092e-05 3.54567e-07)
(4.25339e-06 -1.51451e-05 4.05615e-07)
(3.67789e-06 -1.48508e-05 4.54288e-07)
(2.83729e-06 -1.45763e-05 4.96168e-07)
(1.78161e-06 -1.43647e-05 5.26908e-07)
(5.8587e-07 -1.42479e-05 5.4313e-07)
(-6.5869e-07 -1.42431e-05 5.43276e-07)
(-1.85573e-06 -1.435e-05 5.27345e-07)
(-2.91386e-06 -1.45514e-05 4.96891e-07)
(-3.75783e-06 -1.48146e-05 4.55293e-07)
(-4.33729e-06 -1.50962e-05 4.06916e-07)
(-4.62978e-06 -1.53462e-05 3.56241e-07)
(-4.63968e-06 -1.55116e-05 3.07233e-07)
(-4.39392e-06 -1.55381e-05 2.62905e-07)
(-3.93589e-06 -1.53691e-05 2.25222e-07)
(-3.31975e-06 -1.49413e-05 1.95025e-07)
(-2.60551e-06 -1.41773e-05 1.71973e-07)
(-1.85624e-06 -1.29696e-05 1.54439e-07)
(-1.13354e-06 -1.11496e-05 1.38079e-07)
(-5.10251e-07 -8.40663e-06 1.14671e-07)
(-6.04364e-08 -4.03193e-06 6.08543e-08)
(5.58783e-08 -4.62713e-06 5.61481e-08)
(4.71534e-07 -9.62236e-06 1.05973e-07)
(1.05021e-06 -1.27457e-05 1.28227e-07)
(1.72545e-06 -1.48211e-05 1.44661e-07)
(2.43128e-06 -1.6212e-05 1.63037e-07)
(3.10995e-06 -1.71149e-05 1.87438e-07)
(3.70143e-06 -1.76531e-05 2.19428e-07)
(4.14723e-06 -1.79129e-05 2.59322e-07)
(4.39335e-06 -1.79623e-05 3.06286e-07)
(4.39536e-06 -1.78598e-05 3.58321e-07)
(4.12423e-06 -1.76602e-05 4.12252e-07)
(3.5728e-06 -1.74166e-05 4.63849e-07)
(2.76061e-06 -1.71791e-05 5.08347e-07)
(1.73575e-06 -1.69915e-05 5.41062e-07)
(5.72047e-07 -1.68867e-05 5.58283e-07)
(-6.39878e-07 -1.68825e-05 5.58397e-07)
(-1.80429e-06 -1.69788e-05 5.41386e-07)
(-2.83049e-06 -1.71575e-05 5.08876e-07)
(-3.64436e-06 -1.73856e-05 4.64591e-07)
(-4.19752e-06 -1.76188e-05 4.13201e-07)
(-4.47009e-06 -1.78071e-05 3.59532e-07)
(-4.46875e-06 -1.78976e-05 3.07798e-07)
(-4.22205e-06 -1.78356e-05 2.61182e-07)
(-3.77366e-06 -1.75633e-05 2.21701e-07)
(-3.17692e-06 -1.70139e-05 1.90182e-07)
(-2.48968e-06 -1.61031e-05 1.6628e-07)
(-1.77187e-06 -1.47103e-05 1.48368e-07)
(-1.08149e-06 -1.26424e-05 1.32194e-07)
(-4.8703e-07 -9.54124e-06 1.09741e-07)
(-5.78938e-08 -4.58786e-06 5.83532e-08)
(5.21922e-08 -5.1348e-06 5.24645e-08)
(4.36469e-07 -1.06584e-05 9.86332e-08)
(9.69442e-07 -1.41128e-05 1.19167e-07)
(1.59126e-06 -1.6425e-05 1.34741e-07)
(2.24228e-06 -1.80015e-05 1.52686e-07)
(2.8708e-06 -1.90605e-05 1.7694e-07)
(3.42231e-06 -1.9736e-05 2.09062e-07)
(3.84288e-06 -2.01199e-05 2.49394e-07)
(4.08145e-06 -2.02817e-05 2.97136e-07)
(4.09475e-06 -2.02796e-05 3.5031e-07)
(3.85292e-06 -2.01667e-05 4.05712e-07)
(3.34636e-06 -1.9994e-05 4.59015e-07)
(2.5912e-06 -1.98103e-05 5.0513e-07)
(1.63169e-06 -1.96586e-05 5.39126e-07)
(5.38062e-07 -1.95719e-05 5.57019e-07)
(-6.02083e-07 -1.95683e-05 5.57088e-07)
(-1.6959e-06 -1.96478e-05 5.39337e-07)
(-2.65576e-06 -1.9792e-05 5.05475e-07)
(-3.41118e-06 -1.99678e-05 4.59491e-07)
(-3.91773e-06 -2.01321e-05 4.06343e-07)
(-4.15907e-06 -2.02362e-05 3.51108e-07)
(-4.14453e-06 -2.02293e-05 2.98115e-07)
(-3.90355e-06 -2.00584e-05 2.50619e-07)
(-3.47896e-06 -1.9666e-05 2.10551e-07)
(-2.92152e-06 -1.89836e-05 1.78724e-07)
(-2.28488e-06 -1.79206e-05 1.54748e-07)
(-1.62379e-06 -1.63448e-05 1.37042e-07)
(-9.90429e-07 -1.40402e-05 1.21582e-07)
(-4.46249e-07 -1.0603e-05 1.00888e-07)
(-5.32931e-08 -5.10904e-06 5.37988e-08)
(4.57894e-08 -5.59226e-06 4.60818e-08)
(3.79944e-07 -1.15886e-05 8.63337e-08)
(8.42492e-07 -1.53398e-05 1.04299e-07)
(1.38312e-06 -1.78679e-05 1.1844e-07)
(1.95135e-06 -1.96196e-05 1.35345e-07)
(2.50371e-06 -2.08329e-05 1.58608e-07)
(2.99337e-06 -2.16517e-05 1.89672e-07)
(3.373e-06 -2.21721e-05 2.28988e-07)
(3.59652e-06 -2.24637e-05 2.75918e-07)
(3.62315e-06 -2.25824e-05 3.28641e-07)
(3.42328e-06 -2.25777e-05 3.84046e-07)
(2.98459e-06 -2.24967e-05 4.37829e-07)
(2.3184e-06 -2.23845e-05 4.84742e-07)
(1.46281e-06 -2.22813e-05 5.1965e-07)
(4.81704e-07 -2.22193e-05 5.38143e-07)
(-5.43064e-07 -2.22163e-05 5.3817e-07)
(-1.52391e-06 -2.22722e-05 5.1974e-07)
(-2.37897e-06 -2.2369e-05 4.84895e-07)
(-3.04428e-06 -2.24748e-05 4.38044e-07)
(-3.48168e-06 -2.2549e-05 3.8436e-07)
(-3.67963e-06 -2.25469e-05 3.29109e-07)
(-3.65026e-06 -2.24215e-05 2.76526e-07)
(-3.42313e-06 -2.21235e-05 2.29755e-07)
(-3.03872e-06 -2.15974e-05 1.906e-07)
(-2.54296e-06 -2.07744e-05 1.59707e-07)
(-1.98323e-06 -1.95595e-05 1.36621e-07)
(-1.40655e-06 -1.78097e-05 1.19875e-07)
(-8.56997e-07 -1.52884e-05 1.05812e-07)
(-3.8632e-07 -1.15502e-05 8.77395e-08)
(-4.63985e-08 -5.57507e-06 4.69439e-08)
(3.67434e-08 -5.97554e-06 3.7036e-08)
(3.0214e-07 -1.23652e-05 6.9088e-08)
(6.69161e-07 -1.6365e-05 8.35168e-08)
(1.09984e-06 -1.90787e-05 9.55035e-08)
(1.55583e-06 -2.0988e-05 1.10497e-07)
(2.00395e-06 -2.2348e-05 1.31547e-07)
(2.40749e-06 -2.33106e-05 1.6003e-07)
(2.72807e-06 -2.39749e-05 1.96455e-07)
(2.92681e-06 -2.44094e-05 2.4036e-07)
(2.96746e-06 -2.46664e-05 2.90275e-07)
(2.8216e-06 -2.47901e-05 3.43399e-07)
(2.47439e-06 -2.48214e-05 3.95731e-07)
(1.93131e-06 -2.47991e-05 4.42074e-07)
(1.222e-06 -2.47587e-05 4.7711e-07)
(4.005e-07 -2.47289e-05 4.95909e-07)
(-4.60317e-07 -2.47264e-05 4.95885e-07)
(-1.28116e-06 -2.47509e-05 4.77063e-07)
(-1.98922e-06 -2.4786e-05 4.42027e-07)
(-2.53041e-06 -2.48029e-05 3.95722e-07)
(-2.87514e-06 -2.47663e-05 3.43442e-07)
(-3.01796e-06 -2.46373e-05 2.90392e-07)
(-2.97366e-06 -2.43754e-05 2.40583e-07)
(-2.77052e-06 -2.39364e-05 1.96807e-07)
(-2.44473e-06 -2.32685e-05 1.60523e-07)
(-2.03517e-06 -2.23035e-05 1.32177e-07)
(-1.58031e-06 -2.09432e-05 1.1125e-07)
(-1.11715e-06 -1.90361e-05 9.63585e-08)
(-6.79424e-07 -1.63282e-05 8.44507e-08)
(-3.06368e-07 -1.23384e-05 6.99966e-08)
(-3.70554e-08 -5.96392e-06 3.76402e-08)
(2.51509e-08 -6.26117e-06 2.54424e-08)
(2.03843e-07 -1.29413e-05 4.70881e-08)
(4.51028e-07 -1.71269e-05 5.70058e-08)
(7.4367e-07 -1.99856e-05 6.59886e-08)
(1.05813e-06 -2.2026e-05 7.80375e-08)
(1.37353e-06 -2.35167e-05 9.54607e-08)
(1.66557e-06 -2.46157e-05 1.19418e-07)
(1.9072e-06 -2.54237e-05 1.50493e-07)
(2.06903e-06 -2.60071e-05 1.88567e-07)
(2.12175e-06 -2.6414e-05 2.32677e-07)
(2.03996e-06 -2.66817e-05 2.80586e-07)
(1.80713e-06 -2.68428e-05 3.28803e-07)
(1.42204e-06 -2.69278e-05 3.72416e-07)
(9.03544e-07 -2.69645e-05 4.06162e-07)
(2.92455e-07 -2.6975e-05 4.24649e-07)
(-3.51519e-07 -2.69727e-05 4.24597e-07)
(-9.616e-07 -2.69577e-05 4.06043e-07)
(-1.47822e-06 -2.69167e-05 3.72224e-07)
(-1.86066e-06 -2.68271e-05 3.28585e-07)
(-2.09021e-06 -2.66617e-05 2.80394e-07)
(-2.16806e-06 -2.63901e-05 2.32559e-07)
(-2.11088e-06 -2.59797e-05 1.88532e-07)
(-1.94406e-06 -2.5393e-05 1.50545e-07)
(-1.69699e-06 -2.45828e-05 1.19578e-07)
(-1.39906e-06 -2.34825e-05 9.57352e-08)
(-1.0775e-06 -2.19923e-05 7.84257e-08)
(-7.56857e-07 -1.99542e-05 6.64821e-08)
(-4.58492e-07 -1.71004e-05 5.75725e-08)
(-2.06694e-07 -1.29225e-05 4.76941e-08)
(-2.52755e-08 -6.25327e-06 2.58953e-08)
(1.1222e-08 -6.42714e-06 1.15042e-08)
(8.71498e-08 -1.32729e-05 2.07276e-08)
(1.92733e-07 -1.75679e-05 2.51653e-08)
(3.21916e-07 -2.05198e-05 3.02653e-08)
(4.67802e-07 -2.2655e-05 3.81617e-08)
(6.235e-07 -2.42503e-05 5.02091e-08)
(7.78982e-07 -2.54672e-05 6.7286e-08)
(9.20694e-07 -2.64068e-05 8.9982e-08)
(1.03141e-06 -2.71331e-05 1.18466e-07)
(1.09113e-06 -2.7689e-05 1.52288e-07)
(1.07971e-06 -2.81047e-05 1.90027e-07)
(9.80543e-07 -2.84038e-05 2.2916e-07)
(7.86215e-07 -2.86061e-05 2.65569e-07)
(5.0333e-07 -2.87286e-05 2.94513e-07)
(1.55942e-07 -2.87847e-05 3.10753e-07)
(-2.14847e-07 -2.87828e-05 3.10652e-07)
(-5.60995e-07 -2.87228e-05 2.94292e-07)
(-8.41512e-07 -2.85964e-05 2.6523e-07)
(-1.0325e-06 -2.83903e-05 2.28784e-07)
(-1.12764e-06 -2.80879e-05 1.89636e-07)
(-1.13443e-06 -2.76691e-05 1.51941e-07)
(-1.06969e-06 -2.71106e-05 1.18169e-07)
(-9.53612e-07 -2.63821e-05 8.978e-08)
(-8.06281e-07 -2.54412e-05 6.71908e-08)
(-6.45047e-07 -2.42238e-05 5.02123e-08)
(-4.83617e-07 -2.26294e-05 3.82729e-08)
(-3.3226e-07 -2.04965e-05 3.04848e-08)
(-1.9827e-07 -1.75485e-05 2.54784e-08)
(-8.90615e-08 -1.32596e-05 2.11336e-08)
(-1.1222e-08 -6.42174e-06 1.18723e-08)
(-4.60236e-09 -6.45451e-06 -4.31303e-09)
(-4.41264e-08 -1.33226e-05 -9.1367e-09)
(-9.72534e-08 -1.76383e-05 -1.09775e-08)
(-1.51604e-07 -2.06221e-05 -1.0579e-08)
(-1.96121e-07 -2.28055e-05 -7.99178e-09)
(-2.22506e-07 -2.44678e-05 -3.00758e-09)
(-2.25211e-07 -2.57709e-05 4.74427e-09)
(-2.02622e-07 -2.68145e-05 1.57912e-08)
(-1.57721e-07 -2.76599e-05 3.05335e-08)
(-9.86842e-08 -2.83451e-05 4.91039e-08)
(-3.76568e-08 -2.88935e-05 7.10026e-08)
(1.09762e-08 -2.93191e-05 9.49251e-08)
(3.46881e-08 -2.96316e-05 1.1819e-07)
(2.73632e-08 -2.98364e-05 1.3747e-07)
(-7.05735e-09 -2.99369e-05 1.48635e-07)
(-5.19394e-08 -2.99353e-05 1.48522e-07)
(-8.48892e-08 -2.98313e-05 1.37197e-07)
(-8.94793e-08 -2.9623e-05 1.1776e-07)
(-6.19554e-08 -2.93075e-05 9.44051e-08)
(-8.80089e-09 -2.8879e-05 7.04316e-08)
(5.736e-08 -2.83282e-05 4.8588e-08)
(1.21874e-07 -2.7641e-05 3.00622e-08)
(1.72447e-07 -2.67943e-05 1.54159e-08)
(2.0078e-07 -2.575e-05 4.46431e-09)
(2.03739e-07 -2.44469e-05 -3.20267e-09)
(1.82774e-07 -2.27858e-05 -8.0742e-09)
(1.43198e-07 -2.06046e-05 -1.05481e-08)
(9.29988e-08 -1.7624e-05 -1.08064e-08)
(4.28264e-08 -1.3313e-05 -8.85381e-09)
(4.674e-09 -6.45079e-06 -3.99991e-09)
(-2.16116e-08 -6.32983e-06 -2.1348e-08)
(-1.8419e-07 -1.30639e-05 -4.12515e-08)
(-4.06152e-07 -1.73032e-05 -4.99163e-08)
(-6.56148e-07 -2.02495e-05 -5.48527e-08)
(-9.04513e-07 -2.24256e-05 -5.85005e-08)
(-1.12754e-06 -2.41065e-05 -6.20162e-08)
(-1.30328e-06 -2.54511e-05 -6.55488e-08)
(-1.41391e-06 -2.65557e-05 -6.88752e-08)
(-1.44676e-06 -2.7478e-05 -7.15058e-08)
(-1.39611e-06 -2.82514e-05 -7.27512e-08)
(-1.264e-06 -2.88934e-05 -7.22003e-08)
(-1.06036e-06 -2.9411e-05 -6.95236e-08)
(-8.01052e-07 -2.98047e-05 -6.53628e-08)
(-5.04867e-07 -3.00709e-05 -6.07535e-08)
(-1.89927e-07 -3.02048e-05 -5.75824e-08)
(1.30847e-07 -3.02033e-05 -5.77045e-08)
(4.47413e-07 -3.0066e-05 -6.10765e-08)
(7.46542e-07 -2.97968e-05 -6.58691e-08)
(1.00997e-06 -2.94005e-05 -7.01323e-08)
(1.21858e-06 -2.88805e-05 -7.28604e-08)
(1.35618e-06 -2.82366e-05 -7.34075e-08)
(1.41259e-06 -2.74618e-05 -7.21081e-08)
(1.38561e-06 -2.65387e-05 -6.94169e-08)
(1.2808e-06 -2.5434e-05 -6.59819e-08)
(1.11065e-06 -2.40898e-05 -6.2347e-08)
(8.92831e-07 -2.24102e-05 -5.87414e-08)
(6.49038e-07 -2.0236e-05 -5.49575e-08)
(4.02764e-07 -1.72925e-05 -4.98721e-08)
(1.83325e-07 -1.30569e-05 -4.10556e-08)
(2.17508e-08 -6.32722e-06 -2.10611e-08)
(-3.89609e-08 -6.04682e-06 -3.87005e-08)
(-3.25681e-07 -1.24851e-05 -7.38937e-08)
(-7.17488e-07 -1.65473e-05 -8.95169e-08)
(-1.16462e-06 -1.93827e-05 -1.00069e-07)
(-1.6192e-06 -2.14912e-05 -1.10392e-07)
(-2.04231e-06 -2.31354e-05 -1.23016e-07)
(-2.39572e-06 -2.44673e-05 -1.38748e-07)
(-2.645e-06 -2.55781e-05 -1.57705e-07)
(-2.76127e-06 -2.65211e-05 -1.7935e-07)
(-2.72415e-06 -2.7326e-05 -2.02535e-07)
(-2.52419e-06 -2.80059e-05 -2.25749e-07)
(-2.16544e-06 -2.85631e-05 -2.46999e-07)
(-1.66602e-06 -2.89927e-05 -2.64585e-07)
(-1.05713e-06 -2.92867e-05 -2.7687e-07)
(-3.7982e-07 -2.9436e-05 -2.83033e-07)
(3.20987e-07 -2.94344e-05 -2.83165e-07)
(9.99943e-07 -2.92822e-05 -2.77218e-07)
(1.61193e-06 -2.89854e-05 -2.65108e-07)
(2.11562e-06 -2.85533e-05 -2.4765e-07)
(2.47951e-06 -2.79941e-05 -2.2645e-07)
(2.68515e-06 -2.73128e-05 -2.0325e-07)
(2.72824e-06 -2.6507e-05 -1.80022e-07)
(2.61797e-06 -2.55636e-05 -1.5832e-07)
(2.37453e-06 -2.4453e-05 -1.39269e-07)
(2.02666e-06 -2.31218e-05 -1.23433e-07)
(1.60861e-06 -2.14787e-05 -1.10701e-07)
(1.1584e-06 -1.93722e-05 -1.00247e-07)
(7.14687e-07 -1.65392e-05 -8.95451e-08)
(3.25083e-07 -1.248e-05 -7.37458e-08)
(3.9131e-08 -6.045e-06 -3.84351e-08)
(-5.55382e-08 -5.60839e-06 -5.53052e-08)
(-4.5998e-07 -1.15932e-05 -1.05122e-07)
(-1.01251e-06 -1.53799e-05 -1.2741e-07)
(-1.64647e-06 -1.80317e-05 -1.4336e-07)
(-2.29704e-06 -2.00115e-05 -1.60149e-07)
(-2.91105e-06 -2.15626e-05 -1.81646e-07)
(-3.43481e-06 -2.28256e-05 -2.09314e-07)
(-3.81802e-06 -2.38846e-05 -2.43528e-07)
(-4.01602e-06 -2.47887e-05 -2.83663e-07)
(-3.99388e-06 -2.55639e-05 -3.28154e-07)
(-3.73083e-06 -2.62211e-05 -3.74444e-07)
(-3.22498e-06 -2.67611e-05 -4.18979e-07)
(-2.4963e-06 -2.7178e-05 -4.57682e-07)
(-1.58766e-06 -2.74633e-05 -4.8636e-07)
(-5.62212e-07 -2.76082e-05 -5.01568e-07)
(5.04071e-07 -2.76068e-05 -5.01683e-07)
(1.53114e-06 -2.74591e-05 -4.86694e-07)
(2.44285e-06 -2.71713e-05 -4.58205e-07)
(3.17582e-06 -2.67521e-05 -4.19611e-07)
(3.68689e-06 -2.62105e-05 -3.75136e-07)
(3.9557e-06 -2.55522e-05 -3.28886e-07)
(3.98385e-06 -2.47763e-05 -2.84367e-07)
(3.79189e-06 -2.38721e-05 -2.44161e-07)
(3.41454e-06 -2.28135e-05 -2.0989e-07)
(2.89624e-06 -2.15513e-05 -1.8212e-07)
(2.28717e-06 -2.00015e-05 -1.60498e-07)
(1.64081e-06 -1.80233e-05 -1.43588e-07)
(1.01006e-06 -1.53736e-05 -1.27481e-07)
(4.59557e-07 -1.15894e-05 -1.04996e-07)
(5.57359e-08 -5.60711e-06 -5.50429e-08)
(-7.02523e-08 -5.02741e-06 -7.00338e-08)
(-5.78156e-07 -1.04149e-05 -1.32813e-07)
(-1.27168e-06 -1.38364e-05 -1.60969e-07)
(-2.06998e-06 -1.62381e-05 -1.8168e-07)
(-2.89377e-06 -1.8033e-05 -2.04162e-07)
(-3.6773e-06 -1.94387e-05 -2.33432e-07)
(-4.35279e-06 -2.05813e-05 -2.71446e-07)
(-4.85549e-06 -2.15365e-05 -3.18813e-07)
(-5.12639e-06 -2.23483e-05 -3.74774e-07)
(-5.11747e-06 -2.304e-05 -4.37308e-07)
(-4.79816e-06 -2.3622e-05 -5.02958e-07)
(-4.16147e-06 -2.4096e-05 -5.66757e-07)
(-3.2294e-06 -2.44588e-05 -6.22765e-07)
(-2.05558e-06 -2.47053e-05 -6.64743e-07)
(-7.22782e-07 -2.48297e-05 -6.87261e-07)
(6.65822e-07 -2.48284e-05 -6.87354e-07)
(2.00019e-06 -2.47015e-05 -6.65022e-07)
(3.17707e-06 -2.44528e-05 -6.23209e-07)
(4.11332e-06 -2.40879e-05 -5.6733e-07)
(4.75515e-06 -2.36125e-05 -5.03602e-07)
(5.08012e-06 -2.30295e-05 -4.37983e-07)
(5.095e-06 -2.23374e-05 -3.75453e-07)
(4.83012e-06 -2.15258e-05 -3.1944e-07)
(4.3332e-06 -2.0571e-05 -2.72022e-07)
(3.6631e-06 -1.94293e-05 -2.33927e-07)
(2.8844e-06 -1.80249e-05 -2.04558e-07)
(2.06468e-06 -1.62316e-05 -1.81945e-07)
(1.26944e-06 -1.38316e-05 -1.6107e-07)
(5.77813e-07 -1.04121e-05 -1.32707e-07)
(7.04543e-08 -5.02654e-06 -6.97801e-08)
(-8.1955e-08 -4.32662e-06 -8.17588e-08)
(-6.71236e-07 -8.99678e-06 -1.54834e-07)
(-1.47602e-06 -1.19782e-05 -1.87635e-07)
(-2.40533e-06 -1.40742e-05 -2.12049e-07)
(-3.36866e-06 -1.56374e-05 -2.38932e-07)
(-4.28988e-06 -1.68548e-05 -2.74219e-07)
(-5.0893e-06 -1.78361e-05 -3.20188e-07)
(-5.68967e-06 -1.86472e-05 -3.77533e-07)
(-6.01982e-06 -1.93271e-05 -4.45382e-07)
(-6.02126e-06 -1.98974e-05 -5.2124e-07)
(-5.65553e-06 -2.03685e-05 -6.0087e-07)
(-4.9122e-06 -2.0745e-05 -6.7832e-07)
(-3.8158e-06 -2.10279e-05 -7.46378e-07)
(-2.42908e-06 -2.12168e-05 -7.9743e-07)
(-8.50553e-07 -2.1311e-05 -8.24848e-07)
(7.95448e-07 -2.13098e-05 -8.24933e-07)
(2.37544e-06 -2.12133e-05 -7.97698e-07)
(3.76503e-06 -2.10224e-05 -7.46783e-07)
(4.86545e-06 -2.07379e-05 -6.78838e-07)
(5.61374e-06 -2.03602e-05 -6.01474e-07)
(5.98497e-06 -1.98883e-05 -5.21877e-07)
(5.98938e-06 -1.93179e-05 -4.46024e-07)
(5.66508e-06 -1.86381e-05 -3.78157e-07)
(5.07034e-06 -1.78275e-05 -3.2076e-07)
(4.2762e-06 -1.68471e-05 -2.74718e-07)
(3.35966e-06 -1.56308e-05 -2.3934e-07)
(2.40027e-06 -1.40691e-05 -2.12309e-07)
(1.47396e-06 -1.19747e-05 -1.87743e-07)
(6.70963e-07 -8.99477e-06 -1.54746e-07)
(8.21603e-08 -4.32609e-06 -8.15142e-08)
(-8.94994e-08 -3.53867e-06 -8.93272e-08)
(-7.30767e-07 -7.40462e-06 -1.69006e-07)
(-1.60817e-06 -9.89142e-06 -2.04667e-07)
(-2.62585e-06 -1.16404e-05 -2.31298e-07)
(-3.68641e-06 -1.29372e-05 -2.60884e-07)
(-4.70588e-06 -1.39358e-05 -2.9994e-07)
(-5.59514e-06 -1.47283e-05 -3.50986e-07)
(-6.26698e-06 -1.53706e-05 -4.14709e-07)
(-6.64089e-06 -1.58965e-05 -4.89998e-07)
(-6.65046e-06 -1.63257e-05 -5.7395e-07)
(-6.25203e-06 -1.66698e-05 -6.61819e-07)
(-5.43347e-06 -1.69358e-05 -7.47014e-07)
(-4.22183e-06 -1.71292e-05 -8.21615e-07)
(-2.68684e-06 -1.72546e-05 -8.77427e-07)
(-9.38178e-07 -1.73158e-05 -9.07386e-07)
(8.85537e-07 -1.73148e-05 -9.07457e-07)
(2.63557e-06 -1.72517e-05 -8.77656e-07)
(4.17326e-06 -1.71246e-05 -8.21971e-07)
(5.3887e-06 -1.69298e-05 -7.47476e-07)
(6.21193e-06 -1.66628e-05 -6.62359e-07)
(6.61561e-06 -1.63181e-05 -5.74533e-07)
(6.61162e-06 -1.58887e-05 -4.90601e-07)
(6.24333e-06 -1.5363e-05 -4.15297e-07)
(5.57694e-06 -1.47213e-05 -3.51529e-07)
(4.69278e-06 -1.39297e-05 -3.00419e-07)
(3.67782e-06 -1.2932e-05 -2.61294e-07)
(2.62103e-06 -1.16365e-05 -2.31576e-07)
(1.6062e-06 -9.88879e-06 -2.04789e-07)
(7.30507e-07 -7.4033e-06 -1.68933e-07)
(8.96952e-08 -3.53842e-06 -8.90983e-08)
(-9.16434e-08 -2.7058e-06 -9.14935e-08)
(-7.48338e-07 -5.72202e-06 -1.72912e-07)
(-1.6521e-06 -7.68363e-06 -2.09003e-07)
(-2.70844e-06 -9.06124e-06 -2.35804e-07)
(-3.81788e-06 -1.00714e-05 -2.65896e-07)
(-4.89125e-06 -1.08348e-05 -3.06093e-07)
(-5.83267e-06 -1.14255e-05 -3.59054e-07)
(-6.54779e-06 -1.18897e-05 -4.25357e-07)
(-6.94984e-06 -1.22561e-05 -5.03674e-07)
(-6.96751e-06 -1.25425e-05 -5.90797e-07)
(-6.55433e-06 -1.27605e-05 -6.8165e-07)
(-5.69785e-06 -1.29194e-05 -7.69367e-07)
(-4.42728e-06 -1.30279e-05 -8.45866e-07)
(-2.81665e-06 -1.30941e-05 -9.02876e-07)
(-9.8161e-07 -1.31248e-05 -9.33404e-07)
(9.32198e-07 -1.3124e-05 -9.33464e-07)
(2.7685e-06 -1.30917e-05 -9.03074e-07)