/*--------------------------------*- C++ -*----------------------------------*\
| =========                 |                                                 |
| \\      /  F ield         | OpenFOAM: The Open Source CFD Toolbox           |
|  \\    /   O peration     | Version:  v1906                                 |
|   \\  /    A nd           | Web:      www.OpenFOAM.com                      |
|    \\/     M anipulation  |                                                 |
\*---------------------------------------------------------------------------*/
FoamFile
{
    version     2.0;
    format      ascii;
    class       surfaceScalarField;
    location    "95.4/oil";
    object      phi;
}
// * * * * * * * * * * * * * * * * * * * * * * * * * * * * * * * * * * * * * //

dimensions      [1 0 -1 0 0 0 0];
oriented        oriented;


internalField   nonuniform List<scalar> 
80688
(
-2.04291e-06
-2.07023e-06
-2.04291e-06
-9.20496e-07
-5.76662e-07
-5.45756e-07
-2.72893e-07
-3.25691e-07
-3.21911e-07
-1.23567e-07
-7.49142e-08
-7.44126e-08
-3.97479e-08
-4.1832e-08
-4.1987e-08
2.43291e-09
-2.06288e-08
-2.15521e-08
2.6018e-08
-1.09353e-08
-1.26499e-08
3.92986e-08
-5.47434e-09
-7.80633e-09
4.57668e-08
-1.8735e-09
-4.59481e-09
4.6906e-08
8.71059e-10
-2.01038e-09
4.34933e-08
3.14269e-09
2.6997e-10
3.62142e-08
5.03438e-09
2.24466e-09
2.58094e-08
6.52477e-09
3.87996e-09
1.31825e-08
7.5683e-09
5.05857e-09
-6.22806e-10
8.11896e-09
5.68628e-09
-1.44895e-08
8.1492e-09
5.71746e-09
-2.73156e-08
7.6669e-09
5.15921e-09
-3.81073e-08
6.71596e-09
4.07564e-09
-4.6068e-08
5.37271e-09
2.58801e-09
-5.06694e-08
3.73648e-09
8.64859e-10
-5.16775e-08
1.93637e-09
-9.28308e-10
-4.91756e-08
8.59858e-11
-2.58797e-09
-4.36066e-08
-1.65007e-09
-3.91896e-09
-3.56807e-08
-3.17387e-09
-4.75204e-09
-2.637e-08
-4.33861e-09
-4.9721e-09
-1.6852e-08
-4.98197e-09
-4.53607e-09
-8.4255e-09
-4.90494e-09
-3.52162e-09
-2.36271e-09
-3.88014e-09
-2.18269e-09
4.10557e-10
-1.7434e-09
-1.0299e-09
8.17647e-10
-4.07118e-10
-5.50945e-07
-9.68348e-07
-5.50938e-07
-3.37682e-07
-3.7603e-07
-4.13895e-07
-2.21823e-07
-2.55517e-07
-1.86033e-07
-9.38181e-08
-1.26106e-07
-7.68131e-08
-1.4903e-08
-8.37053e-08
-3.70421e-08
3.5547e-08
-5.76921e-08
-1.33868e-08
6.87126e-08
-4.35357e-08
-5.65168e-10
8.92438e-08
-3.36519e-08
7.64619e-09
9.92786e-08
-2.57698e-08
1.38614e-08
9.98461e-08
-1.88512e-08
1.91547e-08
9.17582e-08
-1.26486e-08
2.38791e-08
7.60163e-08
-7.24775e-09
2.8024e-08
5.40024e-08
-2.86995e-09
3.14086e-08
2.75071e-08
2.27572e-10
3.38359e-08
-1.38149e-09
1.88241e-09
3.51251e-08
-3.03912e-08
1.96532e-09
3.51936e-08
-5.7277e-08
4.98337e-10
3.40543e-08
-8.00223e-08
-2.36524e-09
3.18265e-08
-9.7001e-08
-6.38601e-09
2.87374e-08
-1.07124e-07
-1.12155e-08
2.50749e-08
-1.09929e-07
-1.64453e-08
2.11865e-08
-1.05622e-07
-2.16296e-08
1.74089e-08
-9.50336e-08
-2.6305e-08
1.40664e-08
-7.9594e-08
-3.00053e-08
1.13918e-08
-6.12097e-08
-3.22469e-08
9.5239e-09
-4.21163e-08
-3.25121e-08
8.43676e-09
-2.46657e-08
-3.02376e-08
7.88197e-09
-1.10154e-08
-2.48523e-08
7.3219e-09
-2.67099e-09
-1.59496e-08
5.86168e-09
-4.52992e-09
2.67655e-09
-3.23758e-07
-3.2084e-07
-3.2375e-07
-2.17849e-07
-2.96693e-07
-1.85246e-07
-1.30581e-07
-2.31592e-07
-1.11193e-07
-4.29632e-08
-1.64537e-07
-4.91871e-08
2.21403e-08
-1.33374e-07
-1.5435e-08
7.08264e-08
-1.11936e-07
5.55805e-09
1.05644e-07
-9.70798e-08
1.87262e-08
1.28053e-07
-8.43232e-08
2.82628e-08
1.38586e-07
-7.23654e-08
3.60618e-08
1.37548e-07
-6.07914e-08
4.29785e-08
1.25507e-07
-4.98349e-08
4.92272e-08
1.03544e-07
-4.00054e-08
5.47204e-08
7.33846e-08
-3.19093e-08
5.9199e-08
3.73218e-08
-2.61105e-08
6.24009e-08
-1.87291e-09
-2.30302e-08
6.41073e-08
-4.12159e-08
-2.28894e-08
6.41977e-08
-7.77444e-08
-2.56622e-08
6.2689e-08
-1.08773e-07
-3.10729e-08
5.97359e-08
-1.32157e-07
-3.86167e-08
5.56145e-08
-1.46449e-07
-4.76041e-08
5.0681e-08
-1.51043e-07
-5.72096e-08
4.53581e-08
-1.46182e-07
-6.653e-08
4.00394e-08
-1.32955e-07
-7.46276e-08
3.5096e-08
-1.13177e-07
-8.05551e-08
3.07715e-08
-8.92428e-08
-8.33575e-08
2.71762e-08
-6.39108e-08
-8.20572e-08
2.4213e-08
-4.0006e-08
-7.56542e-08
2.15118e-08
-2.00879e-08
-6.31393e-08
1.83689e-08
-6.1396e-09
-4.35781e-08
1.36801e-08
-1.68154e-08
6.14584e-09
-6.77348e-08
-1.8538e-07
-6.77256e-08
-7.32869e-08
-2.2346e-07
-6.76808e-08
-3.75587e-08
-2.23843e-07
-4.34773e-08
1.54699e-08
-2.05777e-07
-1.17894e-08
6.54728e-08
-1.93539e-07
1.01626e-08
1.08327e-07
-1.80946e-07
2.61547e-08
1.41372e-07
-1.68176e-07
3.80521e-08
1.63178e-07
-1.53956e-07
4.78265e-08
1.72699e-07
-1.38396e-07
5.65097e-08
1.69432e-07
-1.22069e-07
6.45451e-08
1.53598e-07
-1.05938e-07
7.19366e-08
1.26246e-07
-9.11279e-08
7.84745e-08
8.92915e-08
-7.87737e-08
8.38187e-08
4.54071e-08
-6.98681e-08
8.76419e-08
-2.16538e-09
-6.51305e-08
8.96727e-08
-4.98871e-08
-6.49392e-08
8.97715e-08
-9.42411e-08
-6.92629e-08
8.79547e-08
-1.32049e-07
-7.76637e-08
8.43984e-08
-1.60753e-07
-8.93298e-08
7.94177e-08
-1.78646e-07
-1.03138e-07
7.34264e-08
-1.84988e-07
-1.17755e-07
6.68882e-08
-1.8006e-07
-1.31715e-07
6.02573e-08
-1.65094e-07
-1.43512e-07
5.3918e-08
-1.42157e-07
-1.51617e-07
4.81244e-08
-1.13944e-07
-1.54532e-07
4.29611e-08
-8.35255e-08
-1.50754e-07
3.82783e-08
-5.40491e-08
-1.38759e-07
3.36279e-08
-2.84272e-08
-1.16949e-07
2.81875e-08
-9.27525e-09
-8.33985e-08
2.06685e-08
-3.53725e-08
9.28181e-09
-2.78918e-08
-1.29606e-07
-2.78821e-08
-1.83861e-08
-2.12256e-07
-2.07106e-08
1.36366e-08
-2.51982e-07
-3.88407e-09
5.77512e-08
-2.65483e-07
1.55918e-08
1.02597e-07
-2.69711e-07
3.13262e-08
1.43087e-07
-2.65723e-07
4.42864e-08
1.7529e-07
-2.5568e-07
5.52999e-08
1.96513e-07
-2.40481e-07
6.53025e-08
2.04849e-07
-2.21513e-07
7.47801e-08
1.99274e-07
-2.00354e-07
8.38599e-08
1.79751e-07
-1.78777e-07
9.23626e-08
1.4732e-07
-1.58632e-07
9.99344e-08
1.04058e-07
-1.41668e-07
1.06157e-07
5.29571e-08
-1.29375e-07
1.10608e-07
-2.30733e-09
-1.22836e-07
1.1297e-07
-5.77097e-08
-1.22607e-07
1.1307e-07
-1.09235e-07
-1.28659e-07
1.10921e-07
-1.53257e-07
-1.40367e-07
1.06726e-07
-1.86861e-07
-1.56572e-07
1.00845e-07
-2.08095e-07
-1.75658e-07
9.37539e-08
-2.16113e-07
-1.95717e-07
8.59801e-08
-2.11203e-07
-2.14654e-07
7.80289e-08
-1.94725e-07
-2.30301e-07
7.03102e-08
-1.6894e-07
-2.4051e-07
6.31077e-08
-1.36786e-07
-2.43178e-07
5.64931e-08
-1.01612e-07
-2.36209e-07
5.02815e-08
-6.68698e-08
-2.17462e-07
4.3961e-08
-3.58911e-08
-1.84519e-07
3.65915e-08
-1.19903e-08
-1.33988e-07
2.66882e-08
-5.93601e-08
1.19973e-08
-3.27153e-09
-1.23073e-07
-3.26103e-09
1.56718e-08
-2.39292e-07
8.09341e-09
4.90306e-08
-3.0712e-07
2.17794e-08
9.14655e-08
-3.43862e-07
3.59443e-08
1.3546e-07
-3.62226e-07
4.85204e-08
1.75873e-07
-3.66088e-07
5.99523e-08
2.08327e-07
-3.58849e-07
7.07154e-08
2.29457e-07
-3.42864e-07
8.12523e-08
2.36822e-07
-3.20603e-07
9.17246e-08
2.29032e-07
-2.94595e-07
1.02031e-07
2.0588e-07
-2.6745e-07
1.11825e-07
1.68411e-07
-2.41777e-07
1.20615e-07
1.1887e-07
-2.19995e-07
1.27868e-07
6.05863e-08
-2.04153e-07
1.33061e-07
-2.33435e-09
-1.95724e-07
1.35808e-07
-6.53712e-08
-1.95473e-07
1.35902e-07
-1.24013e-07
-2.03372e-07
1.33355e-07
-1.74177e-07
-2.18598e-07
1.28395e-07
-2.1259e-07
-2.39602e-07
1.21443e-07
-2.37068e-07
-2.6424e-07
1.13059e-07
-2.46658e-07
-2.89981e-07
1.03855e-07
-2.41669e-07
-3.14036e-07
9.43926e-08
-2.23585e-07
-3.33561e-07
8.51763e-08
-1.94864e-07
-3.45728e-07
7.64977e-08
-1.58707e-07
-3.47777e-07
6.8441e-08
-1.18751e-07
-3.3696e-07
6.07953e-08
-7.88121e-08
-3.10391e-07
5.29897e-08
-4.26821e-08
-2.64609e-07
4.39601e-08
-1.43866e-08
-1.94276e-07
3.19928e-08
-8.81409e-08
1.43941e-08
8.23514e-09
-1.39555e-07
8.2465e-09
3.47574e-08
-2.90205e-07
2.439e-08
7.29675e-08
-3.8367e-07
3.83392e-08
1.18179e-07
-4.40089e-07
5.10155e-08
1.64475e-07
-4.71124e-07
6.26019e-08
2.06872e-07
-4.82251e-07
7.3765e-08
2.40825e-07
-4.7778e-07
8.49784e-08
2.62603e-07
-4.61149e-07
9.65076e-08
2.69426e-07
-4.35763e-07
1.08337e-07
2.59632e-07
-4.05002e-07
1.20201e-07
2.32897e-07
-3.72317e-07
1.31602e-07
1.90304e-07
-3.41086e-07
1.41902e-07
1.3431e-07
-3.14423e-07
1.50423e-07
6.85874e-08
-2.94966e-07
1.56536e-07
-2.28015e-09
-2.84618e-07
1.59762e-07
-7.32396e-08
-2.84359e-07
1.59846e-07
-1.39244e-07
-2.94166e-07
1.56798e-07
-1.95726e-07
-3.13005e-07
1.50888e-07
-2.39033e-07
-3.38915e-07
1.42621e-07
-2.66733e-07
-3.6919e-07
1.32651e-07
-2.77781e-07
-4.00633e-07
1.217e-07
-2.72521e-07
-4.29755e-07
1.10459e-07
-2.52594e-07
-4.52983e-07
9.94953e-08
-2.20687e-07
-4.66797e-07
8.91621e-08
-1.80296e-07
-4.67736e-07
7.95679e-08
-1.35405e-07
-4.52329e-07
7.04779e-08
-9.02298e-08
-4.1682e-07
6.1254e-08
-4.90605e-08
-3.56483e-07
5.07045e-08
-1.65929e-08
-2.63612e-07
3.68686e-08
-1.21335e-07
1.66014e-08
1.46028e-08
-1.68773e-07
1.46152e-08
4.7447e-08
-3.57884e-07
3.48351e-08
9.11833e-08
-4.77504e-07
5.00985e-08
1.40865e-07
-5.52706e-07
6.29347e-08
1.91059e-07
-5.96042e-07
7.47246e-08
2.36723e-07
-6.14383e-07
8.64682e-08
2.73113e-07
-6.12908e-07
9.87373e-08
2.96217e-07
-5.96003e-07
1.11749e-07
3.02923e-07
-5.67849e-07
1.25379e-07
2.91369e-07
-5.32661e-07
1.39213e-07
2.61108e-07
-4.94671e-07
1.52615e-07
2.13283e-07
-4.58054e-07
1.64794e-07
1.50573e-07
-4.26618e-07
1.74904e-07
7.7056e-08
-4.03607e-07
1.82158e-07
-2.17307e-09
-3.91362e-07
1.85972e-07
-8.14721e-08
-3.91106e-07
1.86046e-07
-1.55201e-07
-4.0282e-07
1.82383e-07
-2.18265e-07
-4.25242e-07
1.753e-07
-2.66598e-07
-4.55976e-07
1.65394e-07
-2.97516e-07
-4.91749e-07
1.53476e-07
-3.09893e-07
-5.28669e-07
1.40412e-07
-3.04149e-07
-5.62524e-07
1.27026e-07
-2.82097e-07
-5.89017e-07
1.13982e-07
-2.46713e-07
-6.03908e-07
1.01727e-07
-2.01838e-07
-6.03021e-07
9.041e-08
-1.5184e-07
-5.8211e-07
7.97821e-08
-1.01365e-07
-5.36423e-07
6.9128e-08
-5.52097e-08
-4.59747e-07
5.71083e-08
-1.87018e-08
-3.41623e-07
4.15034e-08
-1.58749e-07
1.87115e-08
1.86402e-08
-2.06067e-07
1.86537e-08
5.67982e-08
-4.38339e-07
4.22964e-08
1.06058e-07
-5.85985e-07
5.92203e-08
1.60882e-07
-6.80498e-07
7.29684e-08
2.158e-07
-7.36606e-07
8.56464e-08
2.6552e-07
-7.62668e-07
9.85654e-08
3.0504e-07
-7.64831e-07
1.12403e-07
3.30017e-07
-7.48343e-07
1.27364e-07
3.37043e-07
-7.18147e-07
1.43272e-07
3.23985e-07
-6.79178e-07
1.59575e-07
2.90322e-07
-6.36465e-07
1.75457e-07
2.37209e-07
-5.94886e-07
1.89945e-07
1.67577e-07
-5.58969e-07
2.01983e-07
8.59372e-08
-5.32584e-07
2.10617e-07
-2.03719e-09
-5.18543e-07
2.15156e-07
-9.00598e-08
-5.18299e-07
2.15215e-07
-1.7184e-07
-5.31839e-07
2.108e-07
-2.4171e-07
-5.57664e-07
2.02291e-07
-2.95162e-07
-5.92946e-07
1.90423e-07
-3.29255e-07
-6.33799e-07
1.76144e-07
-3.42801e-07
-6.7562e-07
1.60497e-07
-3.36325e-07
-7.13517e-07
1.44516e-07
-3.11873e-07
-7.42476e-07
1.29008e-07
-2.72769e-07
-7.57538e-07
1.14527e-07
-2.23222e-07
-7.53811e-07
1.01243e-07
-1.68017e-07
-7.26223e-07
8.89087e-08
-1.12244e-07
-6.68965e-07
7.67689e-08
-6.1183e-08
-5.74102e-07
6.32944e-08
-2.07445e-08
-4.28036e-07
4.59743e-08
-2.00248e-07
2.07553e-08
2.1569e-08
-2.49219e-07
2.15835e-08
6.43058e-08
-5.29194e-07
4.81186e-08
1.18777e-07
-7.07165e-07
6.67097e-08
1.7884e-07
-8.22249e-07
8.16886e-08
2.38731e-07
-8.92162e-07
9.56641e-08
2.92867e-07
-9.26983e-07
1.10179e-07
3.35945e-07
-9.33944e-07
1.26034e-07
3.63209e-07
-9.1905e-07
1.43444e-07
3.70943e-07
-8.88007e-07
1.62126e-07
3.56738e-07
-8.46404e-07
1.81432e-07
3.19867e-07
-7.9993e-07
2.00335e-07
2.61545e-07
-7.54185e-07
2.1762e-07
1.84949e-07
-7.14387e-07
2.32014e-07
9.50397e-08
-6.85029e-07
2.42354e-07
-1.89085e-09
-6.69373e-07
2.47761e-07
-9.88516e-08
-6.69145e-07
2.47807e-07
-1.88852e-07
-6.84337e-07
2.42498e-07
-2.65593e-07
-7.1319e-07
2.32267e-07
-3.24103e-07
-7.52424e-07
2.17988e-07
-3.61216e-07
-7.97536e-07
2.0085e-07
-3.75694e-07
-8.43284e-07
1.82141e-07
-3.68227e-07
-8.84053e-07
1.6307e-07
-3.41166e-07
-9.14178e-07
1.4464e-07
-2.98183e-07
-9.28054e-07
1.27533e-07
-2.43907e-07
-9.2009e-07
1.12003e-07
-1.83548e-07
-8.84397e-07
9.78142e-08
-1.22642e-07
-8.13956e-07
8.40844e-08
-6.6884e-08
-6.99003e-07
6.91434e-08
-2.27007e-08
-5.22438e-07
5.0218e-08
-2.45662e-07
2.27127e-08
2.38499e-08
-2.96934e-07
2.38644e-08
7.04756e-08
-6.2863e-07
5.28102e-08
1.29567e-07
-8.3922e-07
7.29637e-08
1.94489e-07
-9.76439e-07
8.92671e-08
2.59182e-07
-1.06158e-06
1.04725e-07
3.17748e-07
-1.10669e-06
1.21139e-07
3.64507e-07
-1.1201e-06
1.39402e-07
3.94358e-07
-1.10862e-06
1.59715e-07
4.03179e-07
-1.07855e-06
1.8172e-07
3.88219e-07
-1.03605e-06
2.04608e-07
3.48549e-07
-9.87379e-07
2.2712e-07
2.85366e-07
-9.38788e-07
2.47785e-07
2.02053e-07
-8.961e-07
2.65027e-07
1.04034e-07
-8.64434e-07
2.77423e-07
-1.74834e-09
-8.47482e-07
2.83892e-07
-1.07544e-07
-8.47273e-07
2.83923e-07
-2.05609e-07
-8.63781e-07
2.77509e-07
-2.88978e-07
-8.95016e-07
2.65195e-07
-3.52251e-07
-9.37208e-07
2.48057e-07
-3.92034e-07
-9.85267e-07
2.27515e-07
-4.07081e-07
-1.03336e-06
2.0512e-07
-3.98341e-07
-1.07519e-06
1.82391e-07
-3.68514e-07
-1.10457e-06
1.6057e-07
-3.21665e-07
-1.11535e-06
1.4045e-07
-2.62849e-07
-1.10129e-06
1.22385e-07
-1.97686e-07
-1.0557e-06
1.06142e-07
-1.32053e-07
-9.70376e-07
9.07885e-08
-7.20389e-08
-8.33476e-07
7.44585e-08
-2.44871e-08
-6.24041e-07
5.40515e-08
-2.94649e-07
2.45002e-08
2.55691e-08
-3.48087e-07
2.55842e-08
7.52312e-08
-7.34654e-07
5.63614e-08
1.38037e-07
-9.79816e-07
7.779e-08
2.06999e-07
-1.14077e-06
9.53667e-08
2.75852e-07
-1.24287e-06
1.12433e-07
3.38403e-07
-1.30019e-06
1.30955e-07
3.88681e-07
-1.32229e-06
1.51905e-07
4.21241e-07
-1.31671e-06
1.75532e-07
4.31493e-07
-1.29018e-06
2.01374e-07
4.16346e-07
-1.24936e-06
2.2845e-07
3.74584e-07
-1.20087e-06
2.55258e-07
3.07242e-07
-1.15144e-06
2.79991e-07
2.17919e-07
-1.10748e-06
3.00702e-07
1.12421e-07
-1.07456e-06
3.15625e-07
-1.61592e-09
-1.05687e-06
3.23425e-07
-1.15655e-07
-1.05668e-06
3.23448e-07
-2.21149e-07
-1.07399e-06
3.15699e-07
-3.10501e-07
-1.1065e-06
3.00832e-07
-3.77839e-07
-1.15004e-06
2.80168e-07
-4.19604e-07
-1.19901e-06
2.55507e-07
-4.34745e-07
-1.247e-06
2.2878e-07
-4.24436e-07
-1.28733e-06
2.01831e-07
-3.91789e-07
-1.31335e-06
1.76126e-07
-3.41328e-07
-1.31844e-06
1.52629e-07
-2.78486e-07
-1.29593e-06
1.318e-07
-2.09204e-07
-1.23836e-06
1.13375e-07
-1.3968e-07
-1.13625e-06
9.63508e-08
-7.62332e-08
-9.75651e-07
7.87275e-08
-2.59447e-08
-7.31448e-07
5.71189e-08
-3.46552e-07
2.59583e-08
2.66458e-08
-4.01396e-07
2.66633e-08
7.81914e-08
-8.44748e-07
5.85483e-08
1.43312e-07
-1.12576e-06
8.08225e-08
2.14953e-07
-1.31184e-06
9.94301e-08
2.8671e-07
-1.43262e-06
1.17996e-07
3.52319e-07
-1.50447e-06
1.38666e-07
4.05593e-07
-1.53802e-06
1.6246e-07
4.40741e-07
-1.54153e-06
1.89675e-07
4.52803e-07
-1.52202e-06
2.19787e-07
4.38212e-07
-1.48639e-06
2.5163e-07
3.95368e-07
-1.44147e-06
2.83442e-07
3.25132e-07
-1.39417e-06
3.1297e-07
2.3111e-07
-1.35129e-06
3.37835e-07
1.19473e-07
-1.31876e-06
3.55833e-07
-1.50019e-09
-1.30117e-06
3.65273e-07
-1.22466e-07
-1.301e-06
3.65283e-07
-2.34088e-07
-1.31823e-06
3.55861e-07
-3.28071e-07
-1.3504e-06
3.37889e-07
-3.98229e-07
-1.39292e-06
3.13045e-07
-4.41004e-07
-1.43981e-06
2.83575e-07
-4.55513e-07
-1.48435e-06
2.51861e-07
-4.43344e-07
-1.51961e-06
2.20117e-07
-4.08041e-07
-1.53872e-06
1.90072e-07
-3.5456e-07
-1.53488e-06
1.6295e-07
-2.88635e-07
-1.50107e-06
1.39212e-07
-2.16499e-07
-1.4291e-06
1.18608e-07
-1.44434e-07
-1.30839e-06
1.00072e-07
-7.882e-08
-1.12269e-06
8.14222e-08
-2.68791e-08
-8.42413e-07
5.90233e-08
-4.00324e-07
2.68933e-08
2.68702e-08
-4.55144e-07
2.6878e-08
7.86698e-08
-9.55396e-07
5.88485e-08
1.44158e-07
-1.27255e-06
8.13022e-08
2.16405e-07
-1.48462e-06
1.00539e-07
2.89215e-07
-1.62576e-06
1.20327e-07
3.56347e-07
-1.71454e-06
1.42937e-07
4.11566e-07
-1.76278e-06
1.69542e-07
4.48872e-07
-1.77924e-06
2.00398e-07
4.62979e-07
-1.77111e-06
2.34984e-07
4.49853e-07
-1.74521e-06
2.71942e-07
4.0743e-07
-1.70827e-06
3.09216e-07
3.36216e-07
-1.66717e-06
3.44213e-07
2.39653e-07
-1.62872e-06
3.73993e-07
1.24183e-07
-1.59899e-06
3.95709e-07
-1.3994e-09
-1.58275e-06
4.0716e-07
-1.26966e-07
-1.58259e-06
4.0716e-07
-2.4238e-07
-1.59852e-06
3.9571e-07
-3.38866e-07
-1.62792e-06
3.74001e-07
-4.09992e-07
-1.66606e-06
3.44262e-07
-4.52306e-07
-1.7068e-06
3.09308e-07
-4.6528e-07
-1.74341e-06
2.72036e-07
-4.51014e-07
-1.76903e-06
2.35155e-07
-4.13507e-07
-1.77688e-06
2.00654e-07
-3.58059e-07
-1.76018e-06
1.69861e-07
-2.90663e-07
-1.7118e-06
1.43328e-07
-2.17551e-07
-1.62298e-06
1.20763e-07
-1.44936e-07
-1.48196e-06
1.0096e-07
-7.90998e-08
-1.27022e-06
8.16938e-08
-2.70103e-08
-9.53655e-07
5.91529e-08
-4.54359e-07
2.70242e-08
2.59601e-08
-5.07074e-07
2.597e-08
7.58573e-08
-1.06197e-06
5.66762e-08
1.39092e-07
-1.41424e-06
7.84558e-08
2.09169e-07
-1.65235e-06
9.76489e-08
2.80324e-07
-1.81502e-06
1.18106e-07
3.46666e-07
-1.92305e-06
1.42167e-07
4.0214e-07
-1.98931e-06
1.71057e-07
4.40734e-07
-2.02291e-06
2.05085e-07
4.56955e-07
-2.03108e-06
2.43748e-07
4.46311e-07
-2.02023e-06
2.85668e-07
4.062e-07
-1.99667e-06
3.28518e-07
3.36676e-07
-1.96687e-06
3.69224e-07
2.40849e-07
-1.93711e-06
4.04212e-07
1.25133e-07
-1.91331e-06
4.3003e-07
-1.31411e-09
-1.90005e-06
4.4375e-07
-1.27739e-07
-1.89991e-06
4.43742e-07
-2.43398e-07
-1.91287e-06
4.3001e-07
-3.39125e-07
-1.93637e-06
4.04185e-07
-4.08526e-07
-1.96584e-06
3.69181e-07
-4.48456e-07
-1.99538e-06
3.28506e-07
-4.58899e-07
-2.0187e-06
2.85732e-07
-4.42511e-07
-2.0293e-06
2.43874e-07
-4.03724e-07
-2.0209e-06
2.05233e-07
-3.47993e-07
-1.98717e-06
1.71256e-07
-2.81413e-07
-1.92078e-06
1.42407e-07
-2.09974e-07
-1.81279e-06
1.18374e-07
-1.39645e-07
-1.65021e-06
9.79204e-08
-7.61691e-08
-1.4124e-06
7.8709e-08
-2.60533e-08
-1.06065e-06
5.68748e-08
-5.06479e-07
2.60668e-08
2.36263e-08
-5.54334e-07
2.36334e-08
6.89783e-08
-1.15873e-06
5.1408e-08
1.26556e-07
-1.54317e-06
7.13573e-08
1.90853e-07
-1.80623e-06
8.95781e-08
2.56831e-07
-1.99079e-06
1.09798e-07
3.1925e-07
-2.1198e-06
1.3433e-07
3.72541e-07
-2.20704e-06
1.64439e-07
4.10951e-07
-2.2619e-06
2.00571e-07
4.28932e-07
-2.2913e-06
2.42239e-07
4.21747e-07
-2.30105e-06
2.88004e-07
3.86323e-07
-2.29664e-06
3.35394e-07
3.21994e-07
-2.28363e-06
3.81087e-07
2.31377e-07
-2.26742e-06
4.20926e-07
1.20581e-07
-2.25315e-06
4.5064e-07
-1.23854e-09
-2.2448e-06
4.6657e-07
-1.2303e-07
-2.24468e-06
4.66559e-07
-2.33746e-07
-2.25277e-06
4.50612e-07
-3.2423e-07
-2.26677e-06
4.20886e-07
-3.88424e-07
-2.28271e-06
3.81066e-07
-4.23679e-07
-2.29552e-06
3.35399e-07
-4.30703e-07
-2.29968e-06
2.88004e-07
-4.12517e-07
-2.28976e-06
2.42275e-07
-3.73861e-07
-2.2602e-06
2.00644e-07
-3.20378e-07
-2.20521e-06
1.64551e-07
-2.57712e-07
-2.11792e-06
1.34473e-07
-1.91512e-07
-1.98896e-06
1.09966e-07
-1.26961e-07
-1.80451e-06
8.97523e-08
-6.91665e-08
-1.54172e-06
7.15219e-08
-2.36872e-08
-1.15766e-06
5.15402e-08
-5.53866e-07
2.36999e-08
1.9605e-08
-5.93555e-07
1.96156e-08
5.71877e-08
-1.2388e-06
4.24927e-08
1.05231e-07
-1.65048e-06
5.92583e-08
1.59431e-07
-1.93574e-06
7.53128e-08
2.15963e-07
-2.14135e-06
9.4022e-08
2.70504e-07
-2.29191e-06
1.17571e-07
3.1836e-07
-2.40205e-06
1.47149e-07
3.54381e-07
-2.48119e-06
1.83268e-07
3.73318e-07
-2.53584e-06
2.25597e-07
3.70384e-07
-2.57094e-06
2.72822e-07
3.42098e-07
-2.59085e-06
3.2249e-07
2.87204e-07
-2.5997e-06
3.70964e-07
2.0755e-07
-2.6015e-06
4.13741e-07
1.08537e-07
-2.60014e-06
4.45997e-07
-1.17141e-09
-2.59849e-06
4.63392e-07
-1.10855e-07
-2.5984e-06
4.63411e-07
-2.09804e-07
-2.59981e-06
4.45989e-07
-2.89312e-07
-2.60095e-06
4.13687e-07
-3.44038e-07
-2.59889e-06
3.70899e-07
-3.72139e-07
-2.58986e-06
3.22436e-07
-3.74868e-07
-2.56973e-06
2.72782e-07
-3.55723e-07
-2.53448e-06
2.25582e-07
-3.19487e-07
-2.47972e-06
1.83286e-07
-2.71417e-07
-2.40047e-06
1.47197e-07
-2.16647e-07
-2.29034e-06
1.17647e-07
-1.59926e-07
-2.1398e-06
9.41175e-08
-1.05536e-07
-1.93432e-06
7.54181e-08
-5.73348e-08
-1.64928e-06
5.93604e-08
-1.96512e-08
-1.23793e-06
4.25787e-08
-5.9318e-07
1.9663e-08
1.37392e-08
-6.21029e-07
1.37352e-08
4.0103e-08
-1.29476e-06
2.95961e-08
7.42697e-08
-1.72626e-06
4.16163e-08
1.1366e-07
-2.02924e-06
5.41092e-08
1.55833e-07
-2.25324e-06
6.97142e-08
1.97949e-07
-2.42429e-06
9.02636e-08
2.36459e-07
-2.55751e-06
1.1695e-07
2.67274e-07
-2.66221e-06
1.50211e-07
2.8582e-07
-2.74426e-06
1.89873e-07
2.87583e-07
-2.8075e-06
2.34797e-07
2.69022e-07
-2.85495e-06
2.82668e-07
2.2825e-07
-2.88899e-06
3.30066e-07
1.663e-07
-2.91194e-06
3.72382e-07
8.73564e-08
-2.92582e-06
4.04626e-07
-1.11005e-09
-2.93224e-06
4.22217e-07
-8.95482e-08
-2.93217e-06
4.22205e-07
-1.6841e-07
-2.92553e-06
4.04579e-07
-2.30222e-07
-2.91145e-06
3.72313e-07
-2.70811e-07
-2.88832e-06
3.30022e-07
-2.89198e-07
-2.85409e-06
2.82616e-07
-2.87205e-07
-2.80645e-06
2.34725e-07
-2.6845e-07
-2.74306e-06
1.89822e-07
-2.37445e-07
-2.66092e-06
1.50188e-07
-1.98709e-07
-2.55616e-06
1.16953e-07
-1.5643e-07
-2.42291e-06
9.02884e-08
-1.14057e-07
-2.25193e-06
6.976e-08
-7.4507e-08
-2.02804e-06
5.41676e-08
-4.02344e-08
-1.72523e-06
4.16812e-08
-1.37595e-08
-1.29406e-06
2.96548e-08
-6.2071e-07
1.37704e-08
6.0188e-09
-6.33065e-07
6.01722e-09
1.77572e-08
-1.31927e-06
1.27699e-08
3.37252e-08
-1.76076e-06
1.85368e-08
5.3479e-08
-2.07491e-06
2.59214e-08
7.63495e-08
-2.31275e-06
3.66412e-08
1.01207e-07
-2.50109e-06
5.19458e-08
1.26132e-07
-2.6552e-06
7.2769e-08
1.48469e-07
-2.78417e-06
9.96217e-08
1.6478e-07
-2.89294e-06
1.32373e-07
1.71441e-07
-2.98438e-06
1.70221e-07
1.64983e-07
-3.0598e-06
2.1131e-07
1.43224e-07
-3.11979e-06
2.52563e-07
1.06055e-07
-3.16457e-06
2.89808e-07
5.61303e-08
-3.19433e-06
3.18441e-07
-1.05124e-09
-3.20915e-06
3.34097e-07
-5.81961e-08
-3.20906e-06
3.34036e-07
-1.08005e-07
-3.19406e-06
3.18341e-07
-1.45061e-07
-3.16412e-06
2.89718e-07
-1.66671e-07
-3.11913e-06
2.52419e-07
-1.72929e-07
-3.05899e-06
2.11158e-07
-1.66067e-07
-2.98343e-06
1.70121e-07
-1.49526e-07
-2.89189e-06
1.32291e-07
-1.27006e-07
-2.783e-06
9.95603e-08
-1.01867e-07
-2.65403e-06
7.27343e-08
-7.68272e-08
-2.49988e-06
5.19345e-08
-5.3812e-08
-2.31159e-06
3.66485e-08
-3.3917e-08
-2.07388e-06
2.5946e-08
-1.78162e-08
-1.75991e-06
1.85731e-08
-6.03513e-09
-1.31865e-06
1.28092e-08
-6.32791e-07
6.0454e-09
-3.34668e-09
-6.26371e-07
-3.34743e-09
-9.26266e-09
-1.30577e-06
-7.58974e-09
-1.52344e-08
-1.74532e-06
-9.46823e-09
-1.94142e-08
-2.06216e-06
-8.57267e-09
-2.03634e-08
-2.30735e-06
-4.44652e-09
-1.72824e-08
-2.50753e-06
3.35297e-09
-1.00122e-08
-2.67781e-06
1.53402e-08
5.6169e-10
-2.8267e-06
3.19562e-08
1.27467e-08
-2.95848e-06
5.33514e-08
2.40545e-08
-3.07479e-06
7.90982e-08
3.16843e-08
-3.17534e-06
1.07902e-07
3.32663e-08
-3.2589e-06
1.3752e-07
2.76038e-08
-3.32372e-06
1.64804e-07
1.53157e-08
-3.36813e-06
1.86083e-07
-9.8378e-10
-3.39071e-06
1.97856e-07
-1.7256e-08
-3.39062e-06
1.97827e-07
-2.94769e-08
-3.36785e-06
1.86009e-07
-3.49771e-08
-3.32331e-06
1.64698e-07
-3.32298e-08
-3.25827e-06
1.37391e-07
-2.54105e-08
-3.17458e-06
1.07771e-07
-1.39082e-08
-3.07391e-06
7.89755e-08
-1.5463e-09
-2.9575e-06
5.32466e-08
9.24033e-09
-2.82566e-06
3.1873e-08
1.6673e-08
-2.67675e-06
1.52817e-08
1.99259e-08
-2.50645e-06
3.31767e-09
1.91448e-08
-2.30635e-06
-4.46122e-09
1.50909e-08
-2.06126e-06
-8.56875e-09
9.18644e-09
-1.74455e-06
-9.45089e-09
3.33503e-09
-1.30523e-06
-7.56366e-09
-6.26131e-07
-3.32502e-09
-1.38492e-08
-5.9867e-07
-1.38525e-08
-3.95187e-08
-1.24977e-06
-3.03315e-08
-7.01777e-08
-1.67386e-06
-4.08009e-08
-1.01407e-07
-1.9834e-06
-4.75315e-08
-1.29647e-07
-2.22753e-06
-5.15859e-08
-1.51887e-07
-2.43195e-06
-5.33391e-08
-1.65732e-07
-2.61118e-06
-5.2787e-08
-1.69775e-07
-2.77299e-06
-4.96636e-08
-1.63622e-07
-2.92099e-06
-4.36402e-08
-1.48121e-07
-3.05557e-06
-3.47256e-08
-1.2503e-07
-3.17517e-06
-2.32565e-08
-9.67425e-08
-3.27698e-06
-1.02074e-08
-6.55715e-08
-3.35751e-06
2.6222e-09
-3.33358e-08
-3.41348e-06
1.31176e-08
-9.08779e-10
-3.44218e-06
1.90491e-08
3.15554e-08
-3.4421e-06
1.90187e-08
6.38882e-08
-3.41326e-06
1.30811e-08
9.5156e-08
-3.35713e-06
2.54814e-09
1.23603e-07
-3.27637e-06
-1.03426e-08
1.46871e-07
-3.17445e-06
-2.33947e-08
1.62552e-07
-3.05473e-06
-3.4857e-08
1.68865e-07
-2.92006e-06
-4.37547e-08
1.65026e-07
-2.77206e-06
-4.97553e-08
1.5133e-07
-2.61019e-06
-5.28586e-08
1.29265e-07
-2.431e-06
-5.33867e-08
1.01151e-07
-2.22662e-06
-5.16113e-08
7.00389e-08
-1.98261e-06
-4.75393e-08
3.94754e-08
-1.6732e-06
-4.07924e-08
1.38418e-08
-1.24929e-06
-3.031e-08
-5.98458e-07
-1.38311e-08
-2.47723e-08
-5.49123e-07
-2.4774e-08
-7.09371e-08
-1.1497e-06
-5.39046e-08
-1.27258e-07
-1.54413e-06
-7.34089e-08
-1.86936e-07
-1.83539e-06
-8.83277e-08
-2.44229e-07
-2.06884e-06
-1.01392e-07
-2.93811e-07
-2.26831e-06
-1.14059e-07
-3.30946e-07
-2.44719e-06
-1.26856e-07
-3.51631e-07
-2.61263e-06
-1.3968e-07
-3.53139e-07
-2.76734e-06
-1.52138e-07
-3.34222e-07
-2.91096e-06
-1.63519e-07
-2.95359e-07
-3.04093e-06
-1.73103e-07
-2.38699e-07
-3.15313e-06
-1.80503e-07
-1.6767e-07
-3.243e-06
-1.85536e-07
-8.67418e-08
-3.30598e-06
-1.88432e-07
-8.21394e-10
-3.33844e-06
-1.89666e-07
8.512e-08
-3.33835e-06
-1.89693e-07
1.66123e-07
-3.30571e-06
-1.8855e-07
2.37238e-07
-3.24256e-06
-1.85681e-07
2.94081e-07
-3.15259e-06
-1.80625e-07
3.33073e-07
-3.04022e-06
-1.73227e-07
3.5213e-07
-2.91016e-06
-1.63635e-07
3.50806e-07
-2.76649e-06
-1.52241e-07
3.30249e-07
-2.61174e-06
-1.39766e-07
2.9329e-07
-2.44631e-06
-1.26923e-07
2.43839e-07
-2.26744e-06
-1.14107e-07
1.86683e-07
-2.06804e-06
-1.01423e-07
1.27129e-07
-1.83473e-06
-8.83181e-08
7.08742e-08
-1.54356e-06
-7.33826e-08
2.47647e-08
-1.14929e-06
-5.38869e-08
-5.48939e-07
-2.47541e-08
-3.51102e-08
-4.78901e-07
-3.5112e-08
-1.00656e-07
-1.00801e-06
-7.61453e-08
-1.81508e-07
-1.35913e-06
-1.04153e-07
-2.68701e-07
-1.62115e-06
-1.27053e-07
-3.54577e-07
-1.83372e-06
-1.49245e-07
-4.31605e-07
-2.01808e-06
-1.73195e-07
-4.92511e-07
-2.18623e-06
-2.0005e-07
-5.30733e-07
-2.34441e-06
-2.29994e-07
-5.40977e-07
-2.49477e-06
-2.62332e-07
-5.19758e-07
-2.63645e-06
-2.95734e-07
-4.66061e-07
-2.76619e-06
-3.28443e-07
-3.81461e-07
-2.87944e-06
-3.58295e-07
-2.70652e-07
-2.97079e-06
-3.83026e-07
-1.40729e-07
-3.03515e-06
-4.0075e-07
-7.15742e-10
-3.0684e-06
-4.10048e-07
1.39317e-07
-3.06831e-06
-4.10068e-07
2.69287e-07
-3.03488e-06
-4.00804e-07
3.80207e-07
-2.97038e-06
-3.83103e-07
4.64843e-07
-2.87884e-06
-3.58383e-07
5.18707e-07
-2.76554e-06
-3.28537e-07
5.40058e-07
-2.63569e-06
-2.95818e-07
5.29967e-07
-2.49399e-06
-2.6241e-07
4.91885e-07
-2.34359e-06
-2.30061e-07
4.31106e-07
-2.18543e-06
-2.00101e-07
3.54234e-07
-2.01734e-06
-1.73233e-07
2.68495e-07
-1.83304e-06
-1.49269e-07
1.81383e-07
-1.62054e-06
-1.27087e-07
1.00608e-07
-1.35862e-06
-1.04163e-07
3.51033e-08
-1.00766e-06
-7.61265e-08
-4.78745e-07
-3.50911e-08
-4.36426e-08
-3.91621e-07
-4.3638e-08
-1.2535e-07
-8.31828e-07
-9.44708e-08
-2.27087e-07
-1.12784e-06
-1.29556e-07
-3.38316e-07
-1.35064e-06
-1.59272e-07
-4.4972e-07
-1.53275e-06
-1.89569e-07
-5.51806e-07
-1.69209e-06
-2.2391e-07
-6.35008e-07
-1.83903e-06
-2.63999e-07
-6.90259e-07
-1.97892e-06
-3.10245e-07
-7.0969e-07
-2.11352e-06
-3.61819e-07
-6.87582e-07
-2.24173e-06
-4.16825e-07
-6.2129e-07
-2.36023e-06
-4.72253e-07
-5.11992e-07
-2.46441e-06
-5.24328e-07
-3.65124e-07
-2.54892e-06
-5.68736e-07
-1.9032e-07
-2.60869e-06
-6.01269e-07
-6.00039e-10
-2.63966e-06
-6.18459e-07
1.89128e-07
-2.63958e-06
-6.18465e-07
3.63963e-07
-2.60843e-06
-6.01287e-07
5.10865e-07
-2.54851e-06
-5.68767e-07
6.20252e-07
-2.46387e-06
-5.24357e-07
6.86632e-07
-2.35963e-06
-4.72291e-07
7.08842e-07
-2.24105e-06
-4.16854e-07
6.89508e-07
-2.11281e-06
-3.61848e-07
6.34421e-07
-1.97824e-06
-3.10272e-07
5.51323e-07
-1.83832e-06
-2.64018e-07
4.49369e-07
-1.69146e-06
-2.23927e-07
3.38072e-07
-1.53216e-06
-1.8958e-07
2.26949e-07
-1.35014e-06
-1.59272e-07
1.25306e-07
-1.12744e-06
-1.29543e-07
4.36289e-08
-8.31536e-07
-9.44477e-08
-3.91499e-07
-4.36168e-08
-4.90177e-08
-2.93582e-07
-4.9021e-08
-1.41405e-07
-6.33484e-07
-1.05957e-07
-2.57712e-07
-8.66033e-07
-1.45496e-07
-3.86739e-07
-1.04188e-06
-1.79736e-07
-5.17969e-07
-1.18569e-06
-2.15827e-07
-6.40282e-07
-1.31169e-06
-2.58088e-07
-7.4216e-07
-1.4284e-06
-3.0876e-07
-8.1223e-07
-1.54042e-06
-3.68431e-07
-8.40501e-07
-1.64908e-06
-4.36171e-07
-8.19188e-07
-1.75347e-06
-5.09571e-07
-7.44141e-07
-1.85064e-06
-5.8463e-07
-6.15946e-07
-1.93657e-06
-6.56037e-07
-4.40718e-07
-2.00661e-06
-7.17534e-07
-2.30115e-07
-2.05629e-06
-7.63e-07
-4.76112e-10
-2.08207e-06
-7.87234e-07
2.29165e-07
-2.08199e-06
-7.87224e-07
4.39774e-07
-2.05606e-06
-7.62974e-07
6.15036e-07
-2.0063e-06
-7.17479e-07
7.43255e-07
-1.93615e-06
-6.5594e-07
8.18318e-07
-1.85014e-06
-5.84557e-07
8.39704e-07
-1.7529e-06
-5.09536e-07
8.11556e-07
-1.64851e-06
-4.36147e-07
7.41558e-07
-1.53982e-06
-3.68416e-07
6.39836e-07
-1.42785e-06
-3.08748e-07
5.17634e-07
-1.31117e-06
-2.58083e-07
3.86509e-07
-1.18522e-06
-2.15817e-07
2.57591e-07
-1.0415e-06
-1.79726e-07
1.41344e-07
-8.65713e-07
-1.45476e-07
4.90112e-08
-6.33272e-07
-1.0593e-07
-2.93489e-07
-4.89987e-08
-4.98918e-08
-1.938e-07
-4.98896e-08
-1.45239e-07
-4.30463e-07
-1.07674e-07
-2.67478e-07
-5.96057e-07
-1.47737e-07
-4.05561e-07
-7.2088e-07
-1.82918e-07
-5.48352e-07
-8.21829e-07
-2.21071e-07
-6.83558e-07
-9.09398e-07
-2.67083e-07
-7.98137e-07
-9.90213e-07
-3.23604e-07
-8.79208e-07
-1.06792e-06
-3.91423e-07
-9.14988e-07
-1.14376e-06
-4.69536e-07
-8.96233e-07
-1.21706e-06
-5.55167e-07
-8.17586e-07
-1.28571e-06
-6.43585e-07
-6.79102e-07
-1.34667e-06
-7.28377e-07
-4.87135e-07
-1.39656e-06
-8.02015e-07
-2.54681e-07
-1.432e-06
-8.5674e-07
-3.56171e-10
-1.45042e-06
-8.85973e-07
2.5396e-07
-1.45036e-06
-8.85947e-07
4.86395e-07
-1.43183e-06
-8.56669e-07
6.7834e-07
-1.39629e-06
-8.01954e-07
8.16832e-07
-1.34633e-06
-7.28316e-07
8.95475e-07
-1.28529e-06
-6.43487e-07
9.1428e-07
-1.21663e-06
-5.55069e-07
8.78541e-07
-1.14332e-06
-4.69459e-07
7.97581e-07
-1.0675e-06
-3.91363e-07
6.83101e-07
-9.89806e-07
-3.23561e-07
5.48009e-07
-9.09026e-07
-2.67054e-07
4.05338e-07
-8.215e-07
-2.21047e-07
2.6735e-07
-7.20609e-07
-1.829e-07
1.45189e-07
-5.9584e-07
-1.47712e-07
4.988e-08
-4.30317e-07
-1.07647e-07
-1.93741e-07
-4.98682e-08
-4.50683e-08
-1.03666e-07
-4.5066e-08
-1.3407e-07
-2.4446e-07
-9.70013e-08
-2.51777e-07
-3.45889e-07
-1.32461e-07
-3.88166e-07
-4.208e-07
-1.63691e-07
-5.31974e-07
-4.79305e-07
-1.98716e-07
-6.70305e-07
-5.28459e-07
-2.42608e-07