/*--------------------------------*- C++ -*----------------------------------*\
| =========                 |                                                 |
| \\      /  F ield         | OpenFOAM: The Open Source CFD Toolbox           |
|  \\    /   O peration     | Version:  v1906                                 |
|   \\  /    A nd           | Web:      www.OpenFOAM.com                      |
|    \\/     M anipulation  |                                                 |
\*---------------------------------------------------------------------------*/
FoamFile
{
    version     2.0;
    format      ascii;
    class       surfaceScalarField;
    location    "34.2/oil";
    object      phi;
}
// * * * * * * * * * * * * * * * * * * * * * * * * * * * * * * * * * * * * * //

dimensions      [1 0 -1 0 0 0 0];
oriented        oriented;


internalField   nonuniform List<scalar> 
80688
(
-2.38646e-06
-2.42761e-06
-2.38646e-06
-1.07831e-06
-6.76375e-07
-6.31784e-07
-2.9462e-07
-3.9423e-07
-3.89455e-07
-1.47096e-07
-7.40089e-08
-7.35154e-08
-6.24105e-08
-4.26648e-08
-4.20204e-08
-2.29255e-08
-2.01683e-08
-1.93168e-08
-2.72354e-09
-1.05664e-08
-9.6356e-09
7.89906e-09
-5.80869e-09
-4.81394e-09
1.32537e-08
-3.23802e-09
-2.11667e-09
1.52607e-08
-1.66518e-09
-3.41851e-10
1.48753e-08
-5.85024e-10
9.70394e-10
1.26519e-08
2.06741e-10
2.01671e-09
9.02004e-09
8.00304e-10
2.83152e-09
4.40848e-09
1.20377e-09
3.40778e-09
-7.34829e-10
1.42251e-09
3.7208e-09
-5.95034e-09
1.45786e-09
3.75765e-09
-1.0795e-08
1.31815e-09
3.52648e-09
-1.48774e-08
1.02247e-09
3.05996e-09
-1.78925e-08
6.00611e-10
2.41446e-09
-1.96416e-08
8.81663e-11
1.66095e-09
-2.00558e-08
-4.63095e-10
8.77333e-10
-1.91824e-08
-1.02179e-09
1.48348e-10
-1.71691e-08
-1.54742e-09
-4.659e-10
-1.42709e-08
-2.00427e-09
-8.93925e-10
-1.08242e-08
-2.35459e-09
-1.09209e-09
-7.2315e-09
-2.54872e-09
-1.04397e-09
-3.94482e-09
-2.51496e-09
-7.7173e-10
-1.43019e-09
-2.15311e-09
-3.61529e-10
-8.24764e-11
-1.33906e-09
-8.66148e-12
-1.71952e-10
8.94707e-11
-6.43137e-07
-1.14134e-06
-6.43137e-07
-3.86838e-07
-4.15642e-07
-5.17032e-07
-2.79111e-07
-2.79025e-07
-2.22933e-07
-1.41321e-07
-1.20578e-07
-9.12206e-08
-6.4337e-08
-7.21404e-08
-4.75082e-08
-2.04818e-08
-4.28547e-08
-2.11687e-08
5.64723e-09
-2.89258e-08
-7.76967e-09
2.09614e-08
-2.10954e-08
-2.7454e-11
2.91351e-08
-1.63686e-08
4.9568e-09
3.20135e-08
-1.31631e-08
8.61951e-09
3.06628e-08
-1.07866e-08
1.15522e-08
2.58541e-08
-8.94691e-09
1.39624e-08
1.83242e-08
-7.54187e-09
1.58721e-08
8.86403e-09
-6.56228e-09
1.72262e-08
-1.65372e-09
-6.02064e-09
1.79609e-08
-1.23149e-08
-5.92342e-09
1.80425e-08
-2.22321e-08
-6.25137e-09
1.74867e-08
-3.06211e-08
-6.9529e-09
1.63644e-08
-3.68706e-08
-7.947e-09
1.47971e-08
-4.05893e-08
-9.13032e-09
1.29371e-08
-4.16242e-08
-1.03888e-08
1.09606e-08
-4.00686e-08
-1.16067e-08
9.02934e-09
-3.62374e-08
-1.2669e-08
7.29038e-09
-3.06336e-08
-1.34621e-08
5.85405e-09
-2.39134e-08
-1.38607e-08
4.78596e-09
-1.68403e-08
-1.37094e-08
4.08758e-09
-1.02274e-08
-1.28023e-08
3.6744e-09
-4.85261e-09
-1.08694e-08
3.34146e-09
-1.32982e-09
-7.57715e-09
2.71529e-09
-2.8393e-09
1.33752e-09
-4.01124e-07
-3.39088e-07
-4.01123e-07
-2.7056e-07
-3.17345e-07
-2.2886e-07
-1.8437e-07
-2.22251e-07
-1.42964e-07
-9.99651e-08
-1.32451e-07
-7.25327e-08
-4.45613e-08
-9.17485e-08
-3.57957e-08
-7.30694e-09
-6.64932e-08
-1.3616e-08
1.71619e-08
-5.26019e-08
-7.92745e-10
3.25372e-08
-4.39177e-08
7.44705e-09
4.09051e-08
-3.80816e-08
1.33451e-08
4.34672e-08
-3.37409e-08
1.80157e-08
4.10406e-08
-3.02933e-08
2.19333e-08
3.43574e-08
-2.74968e-08
2.52331e-08
2.4243e-08
-2.53011e-08
2.78737e-08
1.16663e-08
-2.37411e-08
2.97555e-08
-2.26285e-09
-2.28674e-08
3.07759e-08
-1.63669e-08
-2.27028e-08
3.08833e-08
-2.94956e-08
-2.32185e-08
3.00959e-08
-4.06287e-08
-2.43274e-08
2.85076e-08
-4.89733e-08
-2.58856e-08
2.62832e-08
-5.40195e-08
-2.77124e-08
2.36282e-08
-5.55798e-08
-2.96035e-08
2.0775e-08
-5.37746e-08
-3.13489e-08
1.79371e-08
-4.90117e-08
-3.27389e-08
1.53069e-08
-4.19308e-08
-3.35589e-08
1.3016e-08
-3.33519e-08
-3.35735e-08
1.11338e-08
-2.42063e-08
-3.2498e-08
9.64304e-09
-1.54528e-08
-2.99701e-08
8.41431e-09
-7.98504e-09
-2.55082e-08
7.17114e-09
-2.55464e-09
-1.84503e-08
5.44275e-09
-7.9563e-09
2.56236e-09
-7.79655e-08
-1.83158e-07
-7.79646e-08
-1.05655e-07
-1.97089e-07
-9.25664e-08
-8.68064e-08
-1.68955e-07
-7.21451e-08
-4.92563e-08
-1.301e-07
-3.99011e-08
-1.60265e-08
-1.06719e-07
-1.82589e-08
1.0758e-08
-9.01514e-08
-3.12624e-09
3.04895e-08
-7.94754e-08
7.14197e-09
4.37329e-08
-7.18497e-08
1.46885e-08
5.09512e-08
-6.60189e-08
2.0719e-08
5.25365e-08
-6.12031e-08
2.5877e-08
4.89134e-08
-5.70752e-08
3.0405e-08
4.06584e-08
-5.35559e-08
3.4314e-08
2.85817e-08
-5.07071e-08
3.74826e-08
1.3733e-08
-4.86469e-08
3.97546e-08
-2.64106e-09
-4.748e-08
4.09866e-08
-1.91929e-08
-4.72566e-08
4.11056e-08
-3.45977e-08
-4.79433e-08
4.01296e-08
-4.76799e-08
-4.94169e-08
3.81717e-08
-5.75232e-08
-5.14713e-08
3.5429e-08
-6.35484e-08
-5.38391e-08
3.21518e-08
-6.55429e-08
-5.62205e-08
2.86115e-08
-6.36539e-08
-5.83048e-08
2.50669e-08
-5.83445e-08
-5.9782e-08
2.17337e-08
-5.03373e-08
-6.03266e-08
1.87606e-08
-4.05381e-08
-5.95901e-08
1.62173e-08
-2.99573e-08
-5.71515e-08
1.40727e-08
-1.96262e-08
-5.24721e-08
1.21709e-08
-1.05127e-08
-4.48134e-08
1.01917e-08
-3.53214e-09
-3.30276e-08
7.59675e-09
-1.50297e-08
3.54121e-09
-4.02488e-08
-1.02662e-07
-4.02474e-08
-5.04923e-08
-1.41609e-07
-4.52366e-08
-3.92946e-08
-1.45847e-07
-3.43059e-08
-1.6947e-08
-1.3462e-07
-1.78273e-08
5.87585e-09
-1.24918e-07
-4.62414e-09
2.62098e-08
-1.16294e-07
5.80874e-09
4.22957e-08
-1.09513e-07
1.39517e-08
5.3472e-08
-1.0374e-07
2.07144e-08
5.93783e-08
-9.85973e-08
2.66721e-08
5.9896e-08
-9.38354e-08
3.21146e-08
5.51536e-08
-8.94212e-08
3.70883e-08
4.55875e-08
-8.54685e-08
4.14787e-08
3.19666e-08
-8.2173e-08
4.50868e-08
1.53778e-08
-7.97461e-08
4.76879e-08
-2.84048e-09
-7.83594e-08
4.90978e-08
-2.1223e-08
-7.80935e-08
4.92195e-08
-3.83187e-08
-7.89146e-08
4.8067e-08
-5.28393e-08
-8.0668e-08
4.57718e-08
-6.37856e-08
-8.30888e-08
4.25637e-08
-7.05318e-08
-8.5828e-08
3.87352e-08
-7.28561e-08
-8.84979e-08
3.46017e-08
-7.09258e-08
-9.06907e-08
3.04555e-08
-6.52491e-08
-9.19916e-08
2.65329e-08
-5.65976e-08
-9.19789e-08
2.30009e-08
-4.59272e-08
-9.01895e-08
1.9929e-08
-3.42934e-08
-8.60625e-08
1.72772e-08
-2.27695e-08
-7.88678e-08
1.48718e-08
-1.23948e-08
-6.75474e-08
1.23592e-08
-4.24114e-09
-5.0329e-08
9.1477e-09
-2.35231e-08
4.25231e-09
-1.50601e-08
-7.25438e-08
-1.50581e-08
-1.75835e-08
-1.21854e-07
-1.72319e-08
-9.77174e-09
-1.41886e-07
-1.17724e-08
5.3692e-09
-1.46732e-07
-3.0293e-09
2.23687e-08
-1.47129e-07
5.21186e-09
3.85553e-08
-1.45104e-07
1.26231e-08
5.19698e-08
-1.42175e-07
1.92477e-08
6.14337e-08
-1.38604e-07
2.54e-08
6.61603e-08
-1.34611e-07
3.12873e-08
6.57165e-08
-1.30355e-07
3.69638e-08
6.00284e-08
-1.26059e-07
4.23258e-08
4.94153e-08
-1.2201e-07
4.71542e-08
3.46016e-08
-1.18528e-07
5.11683e-08
1.66957e-08
-1.15918e-07
5.40777e-08
-2.90261e-09
-1.14412e-07
5.56508e-08
-2.26415e-08
-1.14122e-07
5.57677e-08
-4.09781e-08
-1.15018e-07
5.44399e-08
-5.6539e-08
-1.1692e-07
5.1813e-08
-6.82675e-08
-1.19514e-07
4.81534e-08
-7.55108e-08
-1.22385e-07
4.38e-08
-7.8049e-08
-1.25072e-07
3.91121e-08
-7.60723e-08
-1.2708e-07
3.44127e-08
-7.01235e-08
-1.27916e-07
2.99755e-08
-6.10094e-08
-1.27064e-07
2.59709e-08
-4.97178e-08
-1.23953e-07
2.2472e-08
-3.73292e-08
-1.17883e-07
1.94321e-08
-2.4951e-08
-1.07911e-07
1.66648e-08
-1.36783e-08
-9.26115e-08
1.37914e-08
-4.71145e-09
-6.94693e-08
1.01734e-08
-3.29594e-08
4.72481e-09
-4.44405e-09
-6.36582e-08
-4.44161e-09
-2.19781e-09
-1.20496e-07
-3.60433e-09
6.03472e-09
-1.5044e-07
3.20923e-10
1.88533e-08
-1.65387e-07
5.83695e-09
3.32519e-08
-1.73099e-07
1.15705e-08
4.71925e-08
-1.7634e-07
1.72955e-08
5.89302e-08
-1.76915e-07
2.30025e-08
6.71872e-08
-1.75647e-07
2.87857e-08
7.10238e-08
-1.7312e-07
3.46724e-08
6.9847e-08
-1.69759e-07
4.05806e-08
6.34603e-08
-1.65978e-07
4.63059e-08
5.21034e-08
-1.62197e-07
5.15441e-08
3.64676e-08
-1.58829e-07
5.59376e-08
1.76627e-08
-1.56253e-07
5.91396e-08
-2.86661e-09
-1.54751e-07
6.08679e-08
-2.35098e-08
-1.54455e-07
6.09759e-08
-4.26603e-08
-1.5534e-07
5.94729e-08
-5.88859e-08
-1.57216e-07
5.65219e-08
-7.10946e-08
-1.59735e-07
5.24298e-08
-7.86192e-08
-1.62437e-07
4.75767e-08
-8.12534e-08
-1.64806e-07
4.23684e-08
-7.92122e-08
-1.66295e-07
3.71733e-08
-7.30694e-08
-1.66341e-07
3.22824e-08
-6.36554e-08
-1.64358e-07
2.78802e-08
-5.19771e-08
-1.59674e-07
2.40426e-08
-3.91274e-08
-1.51448e-07
2.07149e-08
-2.62309e-08
-1.38507e-07
1.76997e-08
-1.44212e-08
-1.19024e-07
1.46026e-08
-4.97753e-09
-8.96653e-08
1.07524e-08
-4.29296e-08
4.99271e-09
4.07993e-10
-6.44768e-08
4.10617e-10
5.60438e-09
-1.28921e-07
3.2294e-09
1.46768e-08
-1.66255e-07
6.74244e-09
2.67006e-08
-1.88291e-07
1.08796e-08
3.98214e-08
-2.01568e-07
1.53484e-08
5.24506e-08
-2.09122e-07
2.01532e-08
6.30845e-08
-2.1288e-07
2.53309e-08
7.04935e-08
-2.13964e-07
3.09082e-08
7.36908e-08
-2.13149e-07
3.68316e-08
7.2025e-08
-2.11036e-07
4.29426e-08
6.52235e-08
-2.08151e-07
4.89744e-08
5.34712e-08
-2.05009e-07
5.45646e-08
3.74246e-08
-2.02075e-07
5.92925e-08
1.81925e-08
-1.9977e-07
6.27493e-08
-2.76656e-09
-1.98399e-07
6.46071e-08
-2.38139e-08
-1.98113e-07
6.47051e-08
-4.33115e-08
-1.9889e-07
6.30476e-08
-5.97969e-08
-2.00539e-07
5.98074e-08
-7.21649e-08
-2.02695e-07
5.53278e-08
-7.97509e-08
-2.04891e-07
5.00403e-08
-8.23697e-08
-2.06582e-07
4.43942e-08
-8.02638e-08
-2.07189e-07
3.87888e-08
-7.40244e-08
-2.06113e-07
3.35322e-08
-6.44982e-08
-2.02708e-07
2.88237e-08
-5.26954e-08
-1.96218e-07
2.47415e-08
-3.97044e-08
-1.85664e-07
2.12256e-08
-2.66445e-08
-1.69635e-07
1.80683e-08
-1.46604e-08
-1.45873e-07
1.48653e-08
-5.06186e-09
-1.10195e-07
1.09314e-08
-5.30697e-08
5.07819e-09
2.5638e-09
-6.9607e-08
2.56638e-09
9.26297e-09
-1.42087e-07
6.46658e-09
1.88662e-08
-1.85744e-07
9.8859e-09
3.04971e-08
-2.13313e-07
1.33914e-08
4.28236e-08
-2.31093e-07
1.71987e-08
5.45395e-08
-2.42316e-07
2.14781e-08
6.43496e-08
-2.49009e-07
2.63187e-08
7.1108e-08
-2.52457e-07
3.17349e-08
7.38596e-08
-2.53555e-07
3.76542e-08
7.19276e-08
-2.52985e-07
4.38813e-08
6.5018e-08
-2.51348e-07
5.01069e-08
5.32612e-08
-2.49179e-07
5.59273e-08
3.72837e-08
-2.46968e-07
6.08704e-08
1.81698e-08
-2.45146e-07
6.44902e-08
-2.6318e-09
-2.4403e-07
6.6433e-08
-2.34978e-08
-2.43765e-07
6.65186e-08
-4.28009e-08
-2.44336e-07
6.47491e-08
-5.90884e-08
-2.45558e-07
6.1307e-08
-7.12628e-08
-2.47086e-07
5.65655e-08
-7.86826e-08
-2.48451e-07
5.098e-08
-8.11855e-08
-2.49109e-07
4.50305e-08
-7.90354e-08
-2.48494e-07
3.9155e-08
-7.28323e-08
-2.45992e-07
3.36765e-08
-6.34266e-08
-2.40913e-07
2.87996e-08
-5.18057e-08
-2.32432e-07
2.45931e-08
-3.90316e-08
-2.19435e-07
2.09961e-08
-2.6193e-08
-2.00281e-07
1.78076e-08
-1.44099e-08
-1.72272e-07
1.46154e-08
-4.97283e-09
-1.30367e-07
1.07343e-08
-6.3032e-08
4.98947e-09
3.40931e-09
-7.64278e-08
3.41156e-09
1.06258e-08
-1.57023e-07
7.7197e-09
2.02315e-08
-2.06372e-07
1.10226e-08
3.13336e-08
-2.3857e-07
1.41553e-08
4.28493e-08
-2.60155e-07
1.7546e-08
5.36771e-08
-2.74591e-07
2.1447e-08
6.26996e-08
-2.84021e-07
2.59894e-08
6.88586e-08
-2.89813e-07
3.11971e-08
7.1269e-08
-2.92948e-07
3.69825e-08
6.92734e-08
-2.94141e-07
4.31514e-08
6.25511e-08
-2.94e-07
4.93738e-08
5.12138e-08
-2.93063e-07
5.52203e-08
3.58456e-08
-2.91804e-07
6.02042e-08
1.74809e-08
-2.90643e-07
6.38615e-08
-2.48553e-09
-2.89871e-07
6.58077e-08
-2.2496e-08
-2.89635e-07
6.58804e-08
-4.0989e-08
-2.89924e-07
6.40804e-08
-5.65586e-08
-2.90562e-07
6.05736e-08
-6.81519e-08
-2.91234e-07
5.57411e-08
-7.51669e-08
-2.915e-07
5.00642e-08
-7.74635e-08
-2.90859e-07
4.40464e-08
-7.53195e-08
-2.88756e-07
3.81174e-08
-6.93335e-08
-2.84591e-07
3.26125e-08
-6.03206e-08
-2.77662e-07
2.77361e-08
-4.92297e-08
-2.67082e-07
2.35591e-08
-3.7065e-08
-2.51622e-07
2.00229e-08
-2.48622e-08
-2.294e-07
1.69158e-08
-1.36709e-08
-1.9731e-07
1.38467e-08
-4.71432e-09
-1.49489e-07
1.01657e-08
-7.24768e-08
4.73043e-09
3.54796e-09
-8.35251e-08
3.5493e-09
1.05675e-08
-1.71827e-07
7.78363e-09
1.9616e-08
-2.26277e-07
1.08564e-08
2.98253e-08
-2.62433e-07
1.36536e-08
4.02836e-08
-2.87279e-07
1.66665e-08
5.00497e-08
-3.04546e-07
2.01887e-08
5.81494e-08
-3.16486e-07
2.43655e-08
6.36584e-08
-3.24545e-07
2.92222e-08
6.57642e-08
-3.29733e-07
3.46794e-08
6.38543e-08
-3.32774e-07
4.05423e-08
5.7621e-08
-3.3425e-07
4.64836e-08
4.71516e-08
-3.3468e-07
5.20865e-08
3.29732e-08
-3.34492e-07
5.68657e-08
1.60439e-08
-3.34079e-07
6.03659e-08
-2.3455e-09
-3.33697e-07
6.22153e-08
-2.07611e-08
-3.33494e-07
6.22738e-08
-3.77668e-08
-3.33454e-07
6.05362e-08
-5.20518e-08
-3.33429e-07
5.71521e-08
-6.26525e-08
-3.33128e-07
5.2495e-08
-6.90182e-08
-3.32151e-07
4.70167e-08
-7.1025e-08
-3.3006e-07
4.12076e-08
-6.89622e-08
-3.26322e-07
3.55029e-08
-6.33979e-08
-3.20384e-07
3.02289e-08
-5.50904e-08
-3.11544e-07
2.55747e-08
-4.49123e-08
-2.9887e-07
2.16097e-08
-3.37867e-08
-2.81027e-07
1.82797e-08
-2.26428e-08
-2.55937e-07
1.53928e-08
-1.24399e-08
-2.20092e-07
1.25789e-08
-4.28767e-09
-1.66872e-07
9.23052e-09
-8.1067e-08
4.30252e-09
3.25721e-09
-9.004e-08
3.2577e-09
9.53478e-09
-1.85159e-07
7.05459e-09
1.75112e-08
-2.43997e-07
9.74368e-09
2.63995e-08
-2.83474e-07
1.2153e-08
3.54455e-08
-3.1108e-07
1.47542e-08
4.38546e-08
-3.30778e-07
1.78229e-08
5.0816e-08
-3.44944e-07
2.1496e-08
5.55492e-08
-3.5509e-07
2.58121e-08
5.73338e-08
-3.62214e-07
3.06961e-08
5.56417e-08
-3.67048e-07
3.59664e-08
5.01922e-08
-3.70128e-07
4.13271e-08
4.10318e-08
-3.71911e-07
4.63913e-08
2.86393e-08
-3.72803e-07
5.07043e-08
1.38386e-08
-3.73132e-07
5.38535e-08
-2.22261e-09
-3.73142e-07
5.55063e-08
-1.82947e-08
-3.72972e-07
5.55503e-08
-3.3122e-08
-3.72613e-07
5.39867e-08
-4.55583e-08
-3.71913e-07
5.09202e-08
-5.47452e-08
-3.70623e-07
4.66819e-08
-6.02004e-08
-3.68396e-07
4.16993e-08
-6.18556e-08
-3.64829e-07
3.64247e-08
-5.99607e-08
-3.59476e-07
3.12595e-08
-5.50331e-08
-3.51807e-07
2.64959e-08
-4.7752e-08
-3.41131e-07
2.23055e-08
-3.88795e-08
-3.265e-07
1.87571e-08
-2.92094e-08
-3.06492e-07
1.57939e-08
-1.95549e-08
-2.78841e-07
1.32497e-08
-1.07355e-08
-2.39717e-07
1.08063e-08
-3.69448e-09
-1.81844e-07
7.93157e-09
-8.84689e-08
3.7074e-09
2.68266e-09
-9.54053e-08
2.68261e-09
7.79408e-09
-1.96043e-07
5.77277e-09
1.42369e-08
-2.58376e-07
7.93589e-09
2.13833e-08
-3.00484e-07
9.86323e-09
2.86257e-08
-3.30281e-07
1.1959e-08
3.53565e-08
-3.51966e-07
1.44574e-08
4.09372e-08
-3.67993e-07
1.74691e-08
4.4735e-08
-3.79926e-07
2.10377e-08
4.61757e-08
-3.88753e-07
2.50986e-08
4.4811e-08
-3.95182e-07
2.94982e-08
4.03987e-08
-3.99703e-07
3.39873e-08
3.29767e-08
-4.02709e-07
3.82204e-08
2.29223e-08
-4.04562e-07
4.18127e-08
1.09063e-08
-4.05543e-07
4.44264e-08
-2.12369e-09
-4.05898e-07
4.57855e-08
-1.51516e-08
-4.05756e-07
4.5812e-08
-2.71602e-08
-4.0511e-07
4.45049e-08
-3.71894e-08
-4.03824e-07
4.19398e-08
-4.45529e-08
-4.01649e-07
3.83894e-08
-4.88749e-08
-3.98281e-07
3.42072e-08
-5.01023e-08
-3.93386e-07
2.97841e-08
-4.84601e-08
-3.86571e-07
2.54527e-08
-4.43834e-08
-3.77347e-07
2.14624e-08
-3.84366e-08
-3.65053e-07
1.7975e-08
-3.12338e-08
-3.48739e-07
1.50366e-08
-2.34293e-08
-3.26898e-07
1.26023e-08
-1.56618e-08
-2.97149e-07
1.05408e-08
-8.58137e-09
-2.55386e-07
8.58812e-09
-2.95047e-09
-1.93785e-07
6.31029e-09
-9.43806e-08
2.96124e-09
1.90746e-09
-9.92168e-08
1.90402e-09
5.51592e-09
-2.03727e-07
4.07538e-09
1.00536e-08
-2.68497e-07
5.58358e-09
1.50767e-08
-3.1245e-07
6.94313e-09
2.01799e-08
-3.43827e-07
8.44279e-09
2.49364e-08
-3.66976e-07
1.02534e-08
2.88987e-08
-3.84428e-07
1.24726e-08
3.16148e-08
-3.97762e-07
1.51203e-08
3.26721e-08
-4.07966e-07
1.81555e-08
3.17315e-08
-4.15698e-07
2.1457e-08
2.86005e-08
-4.21404e-07
2.48325e-08
2.32892e-08
-4.25435e-07
2.80378e-08
1.60469e-08
-4.28093e-07
3.07742e-08
7.37052e-09
-4.29634e-07
3.27673e-08
-2.049e-09
-4.30276e-07
3.37979e-08
-1.1454e-08
-4.30157e-07
3.38062e-08
-2.00829e-08
-4.29273e-07
3.27922e-08
-2.72456e-08
-4.27476e-07
3.0815e-08
-3.24409e-08
-4.24556e-07
2.81026e-08
-3.5409e-08
-4.20235e-07
2.49226e-08
-3.61342e-08
-4.14231e-07
2.157e-08
-3.48089e-08
-4.0621e-07
1.83137e-08
-3.17636e-08
-3.95727e-07
1.53355e-08
-2.7413e-08
-3.82148e-07
1.2744e-08
-2.22113e-08
-3.64525e-07
1.05838e-08
-1.66149e-08
-3.41313e-07
8.81818e-09
-1.10731e-08
-3.1003e-07
7.33887e-09
-6.05272e-09
-2.66377e-07
5.97124e-09
-2.07264e-09
-2.02168e-07
4.40197e-09
-9.85343e-08
2.08105e-09
9.90516e-10
-1.01194e-07
9.86614e-10
2.84945e-09
-2.0767e-07
2.08431e-09
5.19933e-09
-2.73695e-07
2.84847e-09
7.81318e-09
-3.18626e-07
3.56198e-09
1.04949e-08
-3.50896e-07
4.38752e-09
1.30289e-08
-3.74934e-07
5.4233e-09
1.51788e-08
-3.93301e-07
6.72243e-09
1.66937e-08
-4.07573e-07
8.29601e-09
1.73393e-08
-4.18739e-07
1.01272e-08
1.68965e-08
-4.27413e-07
1.2158e-08
1.52239e-08
-4.34005e-07
1.42737e-08
1.23096e-08
-4.3883e-07
1.63085e-08
8.26359e-09
-4.42113e-07
1.80657e-08
3.35798e-09
-4.44102e-07
1.93738e-08
-1.99572e-09
-4.44979e-07
2.00564e-08
-7.32381e-09
-4.44875e-07
2.00456e-08
-1.21558e-08
-4.43786e-07
1.93447e-08
-1.60762e-08
-4.41577e-07
1.80217e-08
-1.8818e-08
-4.38067e-07
1.62533e-08
-2.0261e-08
-4.33017e-07
1.42242e-08
-2.043e-08
-4.26199e-07
1.21374e-08
-1.94765e-08
-4.17301e-07
1.01376e-08
-1.76113e-08
-4.05933e-07
8.34061e-09
-1.50641e-08
-3.91507e-07
6.81208e-09
-1.21099e-08
-3.73037e-07
5.55775e-09
-8.98622e-09
-3.48998e-07
4.56103e-09
-5.94881e-09
-3.1683e-07
3.76288e-09
-3.2256e-09
-2.7216e-07
3.05905e-09
-1.09445e-09
-2.06574e-07
2.27488e-09
-1.0073e-07
1.10081e-09
-1.35019e-11
-1.01162e-07
-1.87894e-11
-4.88565e-11
-2.07546e-07
-8.91267e-11
-8.36849e-11
-2.73527e-07
-1.33377e-10
-7.201e-11
-3.18522e-07
-1.15971e-10
5.0246e-12
-3.50956e-07
-1.68753e-11
1.54005e-10
-3.7526e-07
1.77637e-10
3.6154e-10
-3.93986e-07
4.78253e-10
5.92275e-10
-4.08703e-07
8.99183e-10
7.90388e-10
-4.20376e-07
1.43929e-09
8.8511e-10
-4.29596e-07
2.08784e-09
8.04818e-10
-4.36745e-07
2.81997e-09
4.75708e-10
-4.42101e-07
3.60027e-09
-1.28854e-10
-4.45854e-07
4.34517e-09
-9.74018e-10
-4.482e-07
4.94351e-09
-1.95617e-09
-4.4927e-07
5.27356e-09
-2.90318e-09
-4.49174e-07
5.24672e-09
-3.64746e-09
-4.47911e-07
4.86934e-09
-4.08533e-09
-4.45369e-07
4.22956e-09
-4.19938e-09
-4.41418e-07
3.46443e-09
-4.0126e-09
-4.35878e-07
2.67464e-09
-3.61601e-09
-4.28541e-07
1.94476e-09
-3.0765e-09
-4.19159e-07
1.31859e-09
-2.47185e-09
-4.07349e-07
8.11512e-10
-1.88229e-09
-3.92527e-07
4.30057e-10
-1.3322e-09
-3.73757e-07
1.7076e-10
-8.64378e-10
-3.49481e-07
1.54297e-11
-4.8322e-10
-3.17162e-07
-4.97756e-11
-2.11825e-10
-2.72389e-07
-4.20654e-11
-5.05998e-11
-2.06747e-07
1.21203e-11
-1.00835e-07
5.53099e-11
-1.05446e-09
-9.90474e-08
-1.05981e-09
-3.05819e-09
-2.03204e-07
-2.33787e-09
-5.53974e-09
-2.67834e-07
-3.21177e-09
-8.21032e-09
-3.11941e-07
-3.91036e-09
-1.08091e-08
-3.43797e-07
-4.56091e-09
-1.31178e-08
-3.67716e-07
-5.23516e-09
-1.49192e-08
-3.86208e-07
-5.97699e-09
-1.60303e-08
-4.00807e-07
-6.78505e-09
-1.63122e-08
-4.12459e-07
-7.63484e-09
-1.56904e-08
-4.21748e-07
-8.46956e-09
-1.41699e-08
-4.29044e-07
-9.22173e-09
-1.18444e-08
-4.34594e-07
-9.83251e-09
-8.88654e-09
-4.3856e-07
-1.0252e-08
-5.50763e-09
-4.41095e-07
-1.04839e-08
-1.92359e-09
-4.42274e-07
-1.05804e-08
1.70153e-09
-4.42185e-07
-1.06143e-08
5.19593e-09
-4.40817e-07
-1.0588e-08
8.3489e-09
-4.38099e-07
-1.04232e-08
1.09264e-08
-4.33951e-07
-1.00439e-08
1.27473e-08
-4.28245e-07
-9.45404e-09
1.37043e-08
-4.20796e-07
-8.70139e-09
1.3782e-08
-4.11387e-07
-7.84985e-09
1.30458e-08
-3.99643e-07
-6.97038e-09
1.16253e-08
-3.84981e-07
-6.1249e-09
9.6953e-09
-3.66485e-07
-5.34268e-09
7.45083e-09
-3.42609e-07
-4.62748e-09
5.09768e-09
-3.10871e-07
-3.93707e-09
2.86658e-09
-2.66957e-07
-3.20109e-09
1.01515e-09
-2.026e-07
-2.29581e-09
-9.88089e-08
-1.01147e-09
-2.08045e-09
-9.48783e-08
-2.08861e-09
-6.02059e-09
-1.94711e-07
-4.55286e-09
-1.09144e-08
-2.56692e-07
-6.2478e-09
-1.62141e-08
-2.98996e-07
-7.64519e-09
-2.14544e-08
-3.29525e-07
-9.03129e-09
-2.61809e-08
-3.5242e-07
-1.057e-08
-2.997e-08
-3.70083e-07
-1.2336e-08
-3.24211e-08
-3.83993e-07
-1.43629e-08
-3.32072e-08
-3.95067e-07
-1.66066e-08
-3.21114e-08
-4.03876e-07
-1.8968e-08
-2.90476e-08
-4.10806e-07
-2.13022e-08
-2.41328e-08
-4.16094e-07
-2.34144e-08
-1.76494e-08
-4.19915e-07
-2.51283e-08
-1.00547e-08
-4.22378e-07
-2.63121e-08
-1.89099e-09
-4.23544e-07
-2.68942e-08
6.31858e-09
-4.23454e-07
-2.69406e-08
1.40431e-08
-4.221e-07
-2.64415e-08
2.07368e-08
-4.19462e-07
-2.53309e-08
2.59281e-08
-4.1548e-07
-2.36625e-08
2.93085e-08
-4.10047e-07
-2.15783e-08
3.07602e-08
-4.02993e-07
-1.92549e-08
3.03444e-08
-3.9409e-07
-1.68811e-08
2.82677e-08
-3.82955e-07
-1.46111e-08
2.48544e-08
-3.69019e-07
-1.25493e-08
2.04806e-08
-3.51367e-07
-1.07439e-08
1.55724e-08
-3.28538e-07
-9.16274e-09
1.05559e-08
-2.98123e-07
-7.73236e-09
5.87307e-09
-2.55986e-07
-6.28841e-09
2.05977e-09
-1.94238e-07
-4.54825e-09
-9.46927e-08
-2.05646e-09
-3.04424e-09
-8.87821e-08
-3.05205e-09
-8.7944e-09
-1.82336e-07
-6.62449e-09
-1.59477e-08
-2.40459e-07
-9.08023e-09
-2.37114e-08
-2.80101e-07
-1.11317e-08
-3.14177e-08
-3.08621e-07
-1.3198e-08
-3.84129e-08
-3.29893e-07
-1.55315e-08
-4.40703e-08
-3.46165e-07
-1.82605e-08
-4.77943e-08
-3.58843e-07
-2.1426e-08
-4.90851e-08
-3.68787e-07
-2.49889e-08
-4.75663e-08
-3.76586e-07
-2.88083e-08
-4.3088e-08
-3.82625e-07
-3.26591e-08
-3.57547e-08
-3.87171e-07
-3.62567e-08
-2.59666e-08
-3.90412e-07
-3.92911e-08
-1.43838e-08
-3.92483e-07
-4.14782e-08
-1.85404e-09
-3.93457e-07
-4.26163e-08
1.07242e-08
-3.93363e-07
-4.26697e-08
2.24483e-08
-3.92204e-07
-4.16199e-08
3.24519e-08
-3.8996e-07
-3.9505e-08
4.00665e-08
-3.86563e-07
-3.65318e-08
4.48754e-08
-3.8189e-07
-3.2966e-08
4.67546e-08
-3.75751e-07
-2.91214e-08
4.58405e-08
-3.67883e-07
-2.52934e-08
4.24888e-08
-3.57895e-07
-2.17083e-08
3.71994e-08
-3.45218e-07
-1.85108e-08
3.05478e-08
-3.28972e-07
-1.57436e-08
2.31486e-08
-3.0777e-07
-1.33685e-08
1.56436e-08
-2.79362e-07
-1.12553e-08
8.68409e-09
-2.39874e-07
-9.15217e-09
3.03279e-09
-1.81945e-07
-6.6423e-09
-8.86306e-08
-3.02932e-09
-3.90141e-09
-8.09716e-08
-3.90904e-09
-1.12577e-08
-1.66511e-07
-8.46876e-09
-2.04034e-08
-2.19718e-07
-1.15954e-08
-3.03458e-08
-2.55949e-07
-1.42095e-08
-4.02261e-08
-2.8189e-07
-1.68509e-08
-4.92229e-08
-3.01042e-07
-1.98548e-08
-5.65206e-08
-3.15471e-07
-2.33968e-08
-6.13655e-08
-3.26463e-07
-2.75347e-08
-6.3091e-08
-3.34853e-07
-3.22082e-08
-6.12082e-08
-3.41217e-07
-3.72526e-08
-5.54888e-08
-3.4595e-07
-4.23941e-08
-4.6032e-08
-3.49365e-07
-4.72631e-08
-3.3325e-08
-3.51694e-07
-5.14246e-08
-1.82067e-08
-3.53127e-07
-5.44745e-08
-1.80926e-09
-3.53773e-07
-5.60816e-08
1.46354e-08
-3.5368e-07
-5.61277e-08
2.98896e-08
-3.52852e-07
-5.4607e-08
4.28209e-08
-3.51258e-07
-5.16331e-08
5.25615e-08
-3.48776e-07
-4.75273e-08
5.86121e-08
-3.45248e-07
-4.26927e-08
6.0855e-08
-3.40428e-07
-3.75655e-08
5.94996e-08
-3.3401e-07
-3.25173e-08
5.50275e-08
-3.25597e-07
-2.78261e-08
4.80839e-08
-3.14614e-07
-2.36606e-08
3.94192e-08
-3.00224e-07
-2.00834e-08
2.9835e-08
-2.81147e-07
-1.70389e-08
2.01356e-08
-2.55312e-07
-1.43508e-08
1.11606e-08
-2.19216e-07
-1.16832e-08
3.89537e-09
-1.66181e-07
-8.49808e-09
-8.08438e-08
-3.89141e-09
-4.60935e-09
-7.17453e-08
-4.61702e-09
-1.32913e-08
-1.47842e-07
-9.98738e-09
-2.40861e-08
-1.95267e-07
-1.36559e-08
-3.58191e-08
-2.27495e-07
-1.67209e-08
-4.74891e-08
-2.50398e-07
-1.98215e-08
-5.8124e-08
-2.67067e-07
-2.33396e-08
-6.6764e-08
-2.79344e-07
-2.74869e-08
-7.25103e-08
-2.88382e-07
-3.23343e-08
-7.45718e-08
-2.94973e-07
-3.78191e-08
-7.23665e-08
-2.99657e-07
-4.37647e-08
-6.56077e-08
-3.02866e-07
-4.98433e-08
-5.44032e-08
-3.04948e-07
-5.5621e-08
-3.93053e-08
-3.062e-07
-6.05916e-08
-2.13076e-08
-3.06866e-07
-6.42583e-08
-1.75598e-09
-3.07114e-07
-6.62101e-08
1.78427e-08
-3.07026e-07
-6.6252e-08
3.59777e-08
-3.0661e-07
-6.43764e-08
5.12867e-08
-3.05789e-07
-6.0779e-08
6.27716e-08
-3.04396e-07
-5.58654e-08
6.98557e-08
-3.02208e-07
-5.01234e-08
7.24144e-08
-2.98926e-07
-4.40613e-08
7.07154e-08
-2.94195e-07
-3.81157e-08
6.53338e-08
-2.87598e-07
-3.26176e-08
5.70389e-08
-2.78572e-07
-2.77473e-08
4.67269e-08
-2.66343e-07
-2.35687e-08
3.53383e-08
-2.49746e-07
-2.00127e-08
2.38364e-08
-2.26943e-07
-1.68671e-08
1.32067e-08
-1.94837e-07
-1.37486e-08
4.60584e-09
-1.4756e-07
-1.00206e-08
-7.16367e-08
-4.60127e-09
-5.14117e-09
-6.14559e-08
-5.14827e-09
-1.48145e-08
-1.27046e-07
-1.11229e-08
-2.68352e-08
-1.68053e-07
-1.51929e-08
-3.99075e-08
-1.9585e-07
-1.85722e-08
-5.29152e-08
-2.1542e-07
-2.19709e-08
-6.47663e-08
-2.29397e-07
-2.58191e-08
-7.43963e-08
-2.3937e-07
-3.03443e-08
-8.07912e-08
-2.46368e-07
-3.56193e-08
-8.30755e-08
-2.51099e-07
-4.15894e-08
-8.05958e-08
-2.54091e-07
-4.80461e-08
-7.30393e-08
-2.55784e-07
-5.46385e-08
-6.05227e-08
-2.56552e-07
-6.09127e-08
-4.36584e-08
-2.56753e-07
-6.63121e-08
-2.35473e-08
-2.56676e-07
-7.03014e-08
-1.69348e-09
-2.56542e-07
-7.24265e-08
2.02041e-08
-2.56461e-07
-7.24631e-08
4.04453e-08
-2.56439e-07
-7.0413e-08
5.75136e-08
-2.56372e-07
-6.64848e-08
7.03024e-08
-2.56054e-07
-6.11312e-08
7.81705e-08
-2.55186e-07
-5.48904e-08
8.09901e-08
-2.5343e-07
-4.83155e-08
7.90609e-08
-2.50404e-07
-4.18624e-08
7.30139e-08
-2.45667e-07
-3.58838e-08
6.37224e-08
-2.3869e-07
-3.05901e-08
5.21801e-08
-2.28763e-07
-2.60382e-08
3.94456e-08
-2.14856e-07
-2.21561e-08
2.6597e-08
-1.95382e-07
-1.87126e-08
1.47313e-08
-1.6769e-07
-1.52814e-08
5.13786e-09
-1.26811e-07
-1.1156e-08
-6.13658e-08
-5.13308e-09
-5.47182e-09
-5.05056e-08
-5.47842e-09
-1.5756e-08
-1.0494e-07
-1.18218e-08
-2.85432e-08
-1.39148e-07
-1.61181e-08
-4.24594e-08
-1.62271e-07
-1.96628e-08
-5.63216e-08
-1.78351e-07
-2.32062e-08
-6.89582e-08
-1.89563e-07
-2.7197e-08
-7.92151e-08
-1.9724e-07
-3.18732e-08
-8.60095e-08
-2.02261e-07
-3.73128e-08
-8.84084e-08
-2.05258e-07
-4.34418e-08
-8.57241e-08
-2.0673e-07
-5.0045e-08
-7.76372e-08
-2.07096e-07
-5.67741e-08
-6.42709e-08
-2.0676e-07
-6.3158e-08
-4.62988e-08
-2.06087e-07
-6.86383e-08
-2.48853e-08
-2.05405e-07
-7.26842e-08
-1.62045e-09
-2.04962e-07
-7.48448e-08
2.16859e-08
-2.04891e-07
-7.48763e-08
4.3221e-08
-2.05197e-07
-7.27767e-08
6.13896e-08
-2.05756e-07
-6.87851e-08
7.5004e-08
-2.0632e-07
-6.33483e-08
8.33925e-08
-2.06579e-07
-5.69961e-08
8.64025e-08
-2.06155e-07
-5.02842e-08
8.43438e-08
-2.04658e-07
-4.36873e-08
7.78863e-08
-2.01656e-07
-3.75533e-08
6.79517e-08
-1.96657e-07
-3.2099e-08
5.56157e-08
-1.89026e-07
-2.74005e-08
4.20172e-08
-1.77878e-07
-2.33795e-08
2.83122e-08
-1.61877e-07
-1.97996e-08
1.56759e-08
-1.38849e-07
-1.62054e-08
5.46775e-09
-1.0475e-07
-1.18523e-08
-5.04349e-08
-5.46318e-09
-5.57839e-09
-3.93435e-08
-5.58378e-09
-1.60648e-08
-8.2415e-08
-1.20385e-08
-2.91315e-08
-1.09697e-07
-1.6384e-08
-4.33898e-08
-1.28076e-07
-1.99372e-08
-5.76217e-08
-1.40655e-07
-2.34647e-08
-7.0611e-08
-1.49153e-07
-2.74215e-08
-8.1155e-08
-1.54653e-07
-3.20422e-08
-8.81287e-08
-1.57888e-07
-3.73993e-08
-9.05666e-08
-1.59407e-07
-4.34132e-08
-8.77731e-08
-1.59651e-07
-4.98725e-08
-7.94338e-08
-1.59013e-07
-5.6423e-08
-6.57056e-08
-1.57875e-07
-6.26131e-08
-4.72768e-08
-1.56602e-07
-6.7913e-08
-2.53466e-08
-1.55521e-07
-7.18142e-08
-1.53578e-09
-1.54884e-07
-7.38888e-08
2.23134e-08
-1.54825e-07
-7.39155e-08
4.4357e-08
-1.55348e-07
-7.18928e-08
6.29658e-08
-1.56326e-07
-6.80387e-08
7.69326e-08
-1.5751e-07
-6.27763e-08
8.55516e-08
-1.58582e-07
-5.66155e-08
8.86527e-08
-1.59175e-07
-5.00818e-08
8.65337e-08
-1.58909e-07
-4.36301e-08
7.9884e-08
-1.57392e-07
-3.7614e-08
6.96464e-08
-1.54173e-07
-3.22459e-08
5.69426e-08
-1.48715e-07
-2.76071e-08
4.29601e-08
-1.40271e-07
-2.36239e-08
2.89063e-08
-1.27763e-07
-2.0061e-08
1.59862e-08
-1.09465e-07
-1.64631e-08
5.57248e-09
-8.22703e-08
-1.20662e-08
-3.92934e-08
-5.56905e-09
-5.43516e-09
-2.84676e-08
-5.44076e-09
-1.56871e-08
-6.04485e-08
-1.17147e-08
-2.85251e-08
-8.09513e-08
-1.59082e-08
-4.26197e-08
-9.46795e-08
-1.93018e-08
-5.67554e-08
-1.03869e-07
-2.265e-08
-6.96984e-08
-1.09808e-07
-2.64018e-08
-8.02262e-08
-1.13341e-07
-3.07849e-08
-8.71874e-08
-1.15066e-07
-3.58606e-08
-8.96247e-08
-1.15424e-07
-4.15465e-08
-8.68486e-08
-1.14793e-07
-4.76346e-08
-7.85619e-08
-1.13513e-07
-5.37867e-08
-6.49411e-08
-1.11922e-07
-5.95741e-08
-4.66848e-08
-1.10352e-07
-6.45068e-08
-2.49843e-08
-1.09095e-07
-6.81269e-08
-1.43623e-09
-1.0838e-07
-7.00516e-08
2.21474e-08
-1.08334e-07
-7.00743e-08
4.39522e-08
-1.08959e-07
-6.81936e-08
6.23764e-08
-1.10137e-07
-6.46128e-08
7.6216e-08
-1.11639e-07
-5.97107e-08
8.47599e-08
-1.13176e-07
-5.395e-08
8.78224e-08
-1.1442e-07
-4.7817e-08
8.56872e-08
-1.15036e-07
-4.17374e-08
7.90238e-08
-1.14678e-07
-3.60514e-08
6.87892e-08
-1.12971e-07
-3.09675e-08
5.61138e-08
-1.0947e-07
-2.65695e-08
4.22132e-08
-1.03576e-07
-2.27944e-08
2.83117e-08
-9.44459e-08
-1.94152e-08
1.5609e-08
-8.07818e-08
-1.5981e-08
5.42898e-09
-6.03498e-08
-1.17405e-08
-2.8437e-08
-5.42743e-09
-5.00946e-09
-1.84442e-08
-5.01398e-09
-1.45496e-08
-4.01325e-08
-1.07759e-08
-2.66443e-08
-5.42777e-08
-1.45788e-08
-4.00738e-08
-6.36325e-08
-1.76175e-08
-5.36609e-08
-6.96728e-08
-2.0609e-08
-6.61779e-08
-7.33089e-08
-2.39819e-08
-7.63992e-08
-7.51676e-08
-2.79519e-08
-8.31944e-08
-7.56995e-08
-3.25717e-08
-8.56144e-08
-7.52481e-08
-3.77555e-08
-8.30023e-08
-7.41044e-08
-4.33007e-08
-7.50849e-08
-7.25394e-08
-4.88906e-08
-6.20514e-08
-7.08251e-08
-5.41306e-08
-4.45832e-08
-6.92311e-08
-5.85891e-08
-2.38297e-08
-6.79957e-08
-6.18525e-08
-1.31698e-09
-6.73103e-08
-6.35828e-08
2.12278e-08
-6.72769e-08
-6.36021e-08
4.20757e-08
-6.78976e-08
-6.19092e-08
5.96953e-08
-6.90741e-08
-5.86827e-08
7.2929e-08
-7.0619e-08
-5.4254e-08
8.10815e-08
-7.22945e-08
-4.90342e-08
8.39561e-08
-7.38354e-08
-4.34594e-08
8.18095e-08
-7.49668e-08
-3.79229e-08
7.52925e-08
-7.54206e-08
-3.27401e-08
6.53377e-08
-7.4902e-08
-2.81146e-08
5.30681e-08
-7.30686e-08
-2.41322e-08
3.96991e-08
-6.94678e-08
-2.07395e-08
2.64462e-08
-6.34721e-08
-1.77209e-08
1.44775e-08
-5.4167e-08
-1.46461e-08
5.00243e-09
-4.00736e-08
-1.08011e-08
-1.84312e-08
-5.00339e-09
-4.25448e-09
-9.93121e-09
-4.2585e-09
-1.25768e-08