/*--------------------------------*- C++ -*----------------------------------*\
| =========                 |                                                 |
| \\      /  F ield         | OpenFOAM: The Open Source CFD Toolbox           |
|  \\    /   O peration     | Version:  v1906                                 |
|   \\  /    A nd           | Web:      www.OpenFOAM.com                      |
|    \\/     M anipulation  |                                                 |
\*---------------------------------------------------------------------------*/
FoamFile
{
    version     2.0;
    format      ascii;
    class       surfaceScalarField;
    location    "28";
    object      phi;
}
// * * * * * * * * * * * * * * * * * * * * * * * * * * * * * * * * * * * * * //

dimensions      [1 0 -1 0 0 0 0];
oriented        oriented;


internalField   nonuniform List<scalar> 
228225
(
-6.66754e-09
1.04019e-08
-3.9811e-09
-2.51124e-08
2.86146e-08
-1.01714e-08
-5.21218e-08
3.94892e-08
-1.24798e-08
-8.61856e-08
4.76952e-08
-1.36286e-08
-1.25555e-07
5.36773e-08
-1.43092e-08
-1.68345e-07
5.75613e-08
-1.47701e-08
-2.12911e-07
5.96881e-08
-1.51218e-08
-2.57753e-07
6.02935e-08
-1.54528e-08
-3.01619e-07
5.96795e-08
-1.58113e-08
-3.43429e-07
5.80551e-08
-1.62473e-08
-3.82349e-07
5.57135e-08
-1.67909e-08
-4.17656e-07
5.27847e-08
-1.7482e-08
-4.4876e-07
4.94377e-08
-1.83311e-08
-4.7512e-07
4.57068e-08
-1.93486e-08
-4.96289e-07
4.17043e-08
-2.05326e-08
-5.11977e-07
3.75129e-08
-2.18275e-08
-5.22017e-07
3.32417e-08
-2.3201e-08
-5.26261e-07
2.89167e-08
-2.46735e-08
-5.24702e-07
2.46276e-08
-2.61848e-08
-5.17419e-07
2.04134e-08
-2.7695e-08
-5.04577e-07
1.63225e-08
-2.91659e-08
-4.86398e-07
1.23834e-08
-3.05624e-08
-4.63176e-07
8.62613e-09
-3.18497e-08
-4.35249e-07
5.07105e-09
-3.29951e-08
-4.03021e-07
1.7386e-09
-3.39685e-08
-3.6693e-07
-1.35285e-09
-3.47398e-08
-3.27458e-07
-4.18809e-09
-3.52817e-08
-2.85157e-07
-6.73437e-09
-3.5564e-08
-2.40643e-07
-8.96127e-09
-3.55568e-08
-1.94605e-07
-1.08178e-08
-3.52163e-08
-1.47898e-07
-1.22386e-08
-3.44699e-08
-1.01644e-07
-1.3107e-08
-3.31462e-08
-5.76471e-08
-1.32093e-08
-3.07892e-08
-1.93614e-08
-1.21965e-08
-2.60868e-08
-7.62197e-09
-1.17407e-08
-2.24696e-08
5.42768e-08
-2.14066e-08
-6.96526e-08
9.82622e-08
-2.24623e-08
-1.24806e-07
1.17768e-07
-2.31263e-08
-1.82876e-07
1.30138e-07
-2.4373e-08
-2.4004e-07
1.36524e-07
-2.56835e-08
-2.93351e-07
1.37803e-07
-2.69296e-08
-3.40857e-07
1.35364e-07
-2.81688e-08
-3.81599e-07
1.30451e-07
-2.94137e-08
-4.15245e-07
1.23967e-07
-3.06458e-08
-4.41915e-07
1.16536e-07
-3.18074e-08
-4.61963e-07
1.08618e-07
-3.28578e-08
-4.7584e-07
1.00428e-07
-3.37668e-08
-4.8393e-07
9.20737e-08
-3.45461e-08
-4.86624e-07
8.36249e-08
-3.52234e-08
-4.84356e-07
7.5258e-08
-3.5821e-08
-4.77602e-07
6.7095e-08
-3.63377e-08
-4.668e-07
5.92189e-08
-3.67791e-08
-4.52412e-07
5.16792e-08
-3.71501e-08
-4.34874e-07
4.45451e-08
-3.74569e-08
-4.14605e-07
3.78458e-08
-3.77002e-08
-3.92e-07
3.15995e-08
-3.78822e-08
-3.67426e-07
2.58133e-08
-3.80035e-08
-3.41224e-07
2.04872e-08
-3.80642e-08
-3.13703e-07
1.56145e-08
-3.80638e-08
-2.85152e-07
1.11849e-08
-3.79991e-08
-2.55824e-07
7.18646e-09
-3.78662e-08
-2.25965e-07
3.60788e-09
-3.76559e-08
-1.9578e-07
4.36346e-10
-3.73555e-08
-1.65489e-07
-2.31191e-09
-3.69405e-08
-1.35288e-07
-4.6411e-09
-3.63769e-08
-1.0539e-07
-6.51671e-09
-3.56215e-08
-7.60136e-08
-7.86915e-09
-3.46135e-08
-4.75359e-08
-8.56906e-09
-3.3119e-08
-2.10598e-08
-8.23015e-09
-3.04399e-08
-4.39651e-09
-2.4287e-08
-2.32965e-08
7.77434e-08
-1.69014e-10
-5.60333e-08
1.31334e-07
-3.35824e-10
-9.07329e-08
1.53027e-07
-5.60643e-10
-1.25338e-07
1.65952e-07
-1.20784e-09
-1.5817e-07
1.71577e-07
-2.22173e-09
-1.87888e-07
1.71224e-07
-3.705e-09
-2.13708e-07
1.66937e-07
-5.75323e-09
-2.35152e-07
1.60306e-07
-8.41027e-09
-2.52003e-07
1.5229e-07
-1.14723e-08
-2.64233e-07
1.43463e-07
-1.46978e-08
-2.72024e-07
1.34157e-07
-1.7748e-08
-2.75744e-07
1.24551e-07
-2.04031e-08
-2.75873e-07
1.1476e-07
-2.25573e-08
-2.72957e-07
1.04979e-07
-2.427e-08
-2.67492e-07
9.54292e-08
-2.5638e-08
-2.59884e-07
8.62348e-08
-2.67461e-08
-2.50503e-07
7.74809e-08
-2.76428e-08
-2.3967e-07
6.92216e-08
-2.83757e-08
-2.27678e-07
6.1511e-08
-2.8959e-08
-2.14771e-07
5.43562e-08
-2.94169e-08
-2.01153e-07
4.7741e-08
-2.97611e-08
-1.86986e-07
4.16549e-08
-3.00065e-08
-1.72438e-07
3.60991e-08
-3.0161e-08
-1.57641e-07
3.10506e-08
-3.02338e-08
-1.4271e-07
2.6485e-08
-3.02303e-08
-1.27743e-07
2.23722e-08
-3.01542e-08
-1.12813e-07
1.86853e-08
-3.00064e-08
-9.79894e-08
1.53954e-08
-2.97817e-08
-8.33132e-08
1.24813e-08
-2.94703e-08
-6.88276e-08
9.92435e-09
-2.9051e-08
-5.45704e-08
7.7174e-09
-2.8493e-08
-4.05718e-08
5.86362e-09
-2.77294e-08
-2.69111e-08
4.38141e-09
-2.66118e-08
-1.36675e-08
3.29759e-09
-2.47719e-08
2.4431e-09
-2.05069e-08
-2.03266e-08
7.56253e-08
2.24463e-08
-3.36481e-08
1.21473e-07
2.31803e-08
-4.4245e-08
1.40909e-07
2.27166e-08
-5.39161e-08
1.53409e-07
2.22114e-08
-6.39605e-08
1.60132e-07
2.1491e-08
-7.531e-08
1.6216e-07
2.04139e-08
-8.77864e-08
1.60932e-07
1.84816e-08
-1.00462e-07
1.57403e-07
1.5576e-08
-1.12187e-07
1.52199e-07
1.18162e-08
-1.22024e-07
1.45691e-07
7.60914e-09
-1.29284e-07
1.38179e-07
3.23914e-09
-1.33663e-07
1.29895e-07
-9.67705e-10
-1.35242e-07
1.21122e-07
-4.78192e-09
-1.34386e-07
1.12145e-07
-8.02298e-09
-1.3152e-07
1.03262e-07
-1.06982e-08
-1.2708e-07
9.46996e-08
-1.29048e-08
-1.21426e-07
8.66118e-08
-1.47854e-08
-1.14908e-07
7.90837e-08
-1.63791e-08
-1.07825e-07
7.2165e-08
-1.77383e-08
-1.00435e-07
6.58577e-08
-1.8891e-08
-9.29369e-08
6.01172e-08
-1.98737e-08
-8.54957e-08
5.49097e-08
-2.06968e-08
-7.82325e-08
5.02107e-08
-2.13755e-08
-7.124e-08
4.59784e-08
-2.19197e-08
-6.45802e-08
4.21666e-08
-2.23417e-08
-5.82884e-08
3.87306e-08
-2.26497e-08
-5.23663e-08
3.56152e-08
-2.28525e-08
-4.67854e-08
3.27692e-08
-2.29559e-08
-4.14619e-08
3.01219e-08
-2.29633e-08
-3.62708e-08
2.76068e-08
-2.28728e-08
-3.1015e-08
2.51352e-08
-2.26752e-08
-2.5386e-08
2.26143e-08
-2.23789e-08
-1.88426e-08
1.99017e-08
-2.20621e-08
-1.07842e-08
1.69315e-08
-2.1696e-08
1.14647e-08
-1.9804e-08
-1.40077e-08
6.12162e-08
2.84171e-08
-1.4741e-08
9.30322e-08
2.91742e-08
-1.04682e-08
1.07844e-07
2.87925e-08
-4.27303e-09
1.18656e-07
2.85573e-08
1.98631e-09
1.25915e-07
2.79576e-08
7.14881e-09
1.30208e-07
2.67906e-08
1.08657e-08
1.32115e-07
2.5099e-08
1.32983e-08
1.3206e-07
2.29107e-08
1.47948e-08
1.30388e-07
2.03154e-08
1.57275e-08
1.27381e-07
1.73777e-08
1.64038e-08
1.23274e-07
1.42277e-08
1.7026e-08
1.18295e-07
1.09773e-08
1.77048e-08
1.12673e-07
7.77099e-09
1.84811e-08
1.06657e-07
4.71231e-09
1.93503e-08
1.00494e-07
1.89875e-09
2.02653e-08
9.44134e-08
-6.29328e-10
2.1116e-08
8.85943e-08
-2.83203e-09
2.17901e-08
8.31539e-08
-4.74599e-09
2.21901e-08
7.81593e-08
-6.39349e-09
2.22194e-08
7.36399e-08
-7.81251e-09
2.17936e-08
6.95783e-08
-9.03448e-09
2.08482e-08
6.59368e-08
-1.00815e-08
1.93507e-08
6.26706e-08
-1.09639e-08
1.73003e-08
5.97301e-08
-1.17003e-08
1.4708e-08
5.70623e-08
-1.23034e-08
1.16274e-08
5.46029e-08
-1.27912e-08
8.1377e-09
5.22828e-08
-1.31783e-08
4.37129e-09
5.00167e-08
-1.34813e-08
5.03808e-10
4.77035e-08
-1.37133e-08
-3.21982e-09
4.52211e-08
-1.38913e-08
-6.48968e-09
4.24214e-08
-1.40163e-08
-8.8579e-09
3.91135e-08
-1.4131e-08
-9.54437e-09
3.50501e-08
-1.44628e-08
-7.39161e-09
2.9971e-08
-1.51919e-08
1.92895e-08
-1.52159e-08
-6.02387e-09
4.61368e-08
2.11021e-08
-3.23194e-09
6.87516e-08
2.14896e-08
3.76127e-09
7.98872e-08
2.09628e-08
1.324e-08
8.85233e-08
2.06548e-08
2.41204e-08
9.48854e-08
2.01493e-08
3.56418e-08
9.93439e-08
1.93438e-08
4.72088e-08
1.02279e-07
1.82679e-08
5.83672e-08
1.03915e-07
1.69857e-08
6.87603e-08
1.04476e-07
1.55208e-08
7.81016e-08
1.04121e-07
1.39181e-08
8.61562e-08
1.03012e-07
1.22072e-08
9.27343e-08
1.0128e-07
1.04387e-08
9.76905e-08
9.90687e-08
8.64623e-09
1.00967e-07
9.65067e-08
6.87341e-09
1.02587e-07
9.37277e-08
5.14822e-09
1.02639e-07
9.08578e-08
3.50284e-09
1.01264e-07
8.80053e-08
1.96371e-09
9.8615e-08
8.5254e-08
5.47229e-10
9.48451e-08
8.26614e-08
-7.29611e-10
9.00794e-08
8.02645e-08
-1.86052e-09
8.44574e-08
7.80638e-08
-2.86199e-09
7.80822e-08
7.60448e-08
-3.73504e-09
7.10686e-08
7.41756e-08
-4.4898e-09
6.35127e-08
7.24195e-08
-5.13405e-09
5.55309e-08
7.07227e-08
-5.67945e-09
4.72428e-08
6.90276e-08
-6.13633e-09
3.87886e-08
6.72554e-08
-6.51826e-09
3.03285e-08
6.53172e-08
-6.83974e-09
2.20597e-08
6.30929e-08
-7.12211e-09
1.42275e-08
6.04393e-08
-7.38536e-09
7.12855e-09
5.71619e-08
-7.64164e-09
1.1638e-09
5.30138e-08
-7.93419e-09
-2.95324e-09
4.76631e-08
-8.4997e-09
-4.12664e-09
4.0694e-08
-9.5485e-09
2.54956e-08
-1.03323e-08
-2.82537e-09
3.65355e-08
1.24259e-08
-1.03649e-09
5.55098e-08
1.14537e-08
3.69986e-09
6.46726e-08
1.04781e-08
1.03558e-08
7.18771e-08
9.9917e-09
1.82375e-08
7.74395e-08
9.56191e-09
2.68615e-08
8.16983e-08
9.02271e-09
3.58138e-08
8.49309e-08
8.39572e-09
4.4716e-08
8.73197e-08
7.6934e-09
5.32523e-08
8.90098e-08
6.92861e-09
6.11606e-08
9.01149e-08
6.09899e-09
6.82204e-08
9.07301e-08
5.21995e-09
7.42647e-08
9.09374e-08
4.2993e-09
7.91627e-08
9.08126e-08
3.35824e-09
8.28305e-08
9.0428e-08
2.41141e-09
8.522e-08
8.98541e-08
1.48414e-09
8.63361e-08
8.91532e-08
5.88759e-10
8.62221e-08
8.83756e-08
-2.56556e-10
8.49378e-08
8.75653e-08
-1.02744e-09
8.25666e-08
8.6761e-08
-1.72773e-09
7.92129e-08
8.59747e-08
-2.35561e-09
7.49791e-08
8.52056e-08
-2.90877e-09
6.99766e-08
8.44371e-08
-3.39018e-09
6.43024e-08
8.36501e-08
-3.79944e-09
5.80572e-08
8.28081e-08
-4.14342e-09
5.13384e-08
8.18694e-08
-4.42676e-09
4.42517e-08
8.07713e-08
-4.65949e-09
3.69183e-08
7.94407e-08
-4.84998e-09
2.94738e-08
7.77735e-08
-5.01198e-09
2.20822e-08
7.56417e-08
-5.15775e-09
1.49564e-08
7.28675e-08
-5.30211e-09
8.35666e-09
6.92206e-08
-5.45755e-09
2.66551e-09
6.43865e-08
-5.68309e-09
-1.4426e-09
5.79438e-08
-6.1724e-09
-3.0085e-09
4.93354e-08
-7.07409e-09
3.02526e-08
-7.76652e-09
-7.10498e-10
3.0682e-08
6.56528e-09
-9.07382e-10
5.01542e-08
5.552e-09
-8.83659e-11
5.92089e-08
4.643e-09
1.51974e-09
6.61704e-08
4.10079e-09
3.68874e-09
7.15761e-08
3.69354e-09
6.31591e-09
7.57881e-08
3.28222e-09
9.33551e-09
7.90785e-08
2.83337e-09
1.26479e-08
8.16511e-08
2.35637e-09
1.61436e-08
8.36588e-08
1.85469e-09
1.96994e-08
8.52203e-08
1.33815e-09
2.31942e-08
8.6426e-08
8.09923e-10
2.65039e-08
8.73497e-08
2.78177e-10
2.951e-08
8.8049e-08
-2.43403e-10
3.21085e-08
8.8573e-08
-7.43156e-10
3.42274e-08
8.89606e-08
-1.22562e-09
3.58119e-08
8.92455e-08
-1.6764e-09
3.68263e-08
8.94521e-08
-2.09207e-09
3.72558e-08
8.96036e-08
-2.46739e-09
3.71085e-08
8.97088e-08
-2.80056e-09
3.63957e-08
8.97688e-08
-3.08204e-09
3.5141e-08
8.97756e-08
-3.3133e-09
3.33539e-08
8.97161e-08
-3.4932e-09
3.10688e-08
8.95627e-08
-3.6278e-09
2.83155e-08
8.92814e-08
-3.71979e-09
2.51438e-08
8.88198e-08
-3.77776e-09
2.16047e-08
8.81153e-08
-3.80718e-09
1.77875e-08
8.70782e-08
-3.81892e-09
1.37823e-08
8.55983e-08
-3.82103e-09
9.7301e-09
8.35215e-08
-3.82654e-09
5.78819e-09
8.06528e-08
-3.84316e-09
2.17104e-09
7.67203e-08
-3.88281e-09
-8.36166e-10
7.13741e-08
-3.98018e-09
-2.75602e-09
6.41236e-08
-4.26094e-09
-2.93155e-09
5.43225e-08
-4.81046e-09
3.24874e-08
-5.16711e-09
-1.21851e-09
2.79604e-08
3.93901e-09
-2.30869e-09
4.77885e-08
3.45778e-09
-3.09482e-09
5.69744e-08
3.02005e-09
-3.67571e-09
6.40145e-08
2.7367e-09
-4.03828e-09
6.94464e-08
2.49238e-09
-4.14026e-09
7.36657e-08
2.22419e-09
-3.95095e-09
7.69632e-08
1.92582e-09
-3.45992e-09
7.9559e-08
1.60073e-09
-2.67721e-09
8.16178e-08
1.26002e-09
-1.63162e-09
8.32659e-08
9.08168e-10
-3.63343e-10
8.46001e-08
5.56751e-10
1.08268e-09
8.56951e-08
2.08955e-10
2.63883e-09
8.66092e-08
-1.16965e-10
4.24278e-09
8.73873e-08
-4.1692e-10
5.82515e-09
8.80645e-08
-6.85764e-10
7.32338e-09
8.86659e-08
-9.19733e-10
8.67729e-09
8.92091e-08
-1.11101e-09
9.83951e-09
8.97035e-08
-1.26093e-09
1.07615e-08
9.01521e-08
-1.36524e-09
1.14087e-08
9.05492e-08
-1.42804e-09
1.17496e-08
9.08824e-08
-1.44811e-09
1.17687e-08
9.11296e-08
-1.4326e-09
1.14557e-08
9.12603e-08
-1.3833e-09
1.0814e-08
9.12322e-08
-1.3099e-09
9.85871e-09
9.09911e-08
-1.21643e-09
8.62428e-09
9.0466e-08
-1.11493e-09
7.14931e-09
8.95641e-08
-1.01086e-09
5.49921e-09
8.8164e-08
-9.16934e-10
3.7548e-09
8.61057e-08
-8.39606e-10
2.02128e-09
8.31789e-08
-7.9143e-10
4.15502e-10
7.91034e-08
-7.78273e-10
-8.90929e-10
7.35095e-08
-8.28852e-10
-1.6462e-09
6.58941e-08
-1.01515e-09
-1.52166e-09
5.5584e-08
-1.38688e-09
3.26715e-08
-1.7048e-09
-2.16912e-09
2.64831e-08
3.64383e-09
-4.41171e-09
4.62591e-08
3.77466e-09
-6.55905e-09
5.53744e-08
3.74696e-09
-8.56422e-09
6.2317e-08
3.70247e-09
-1.03594e-08
6.76367e-08
3.60456e-09
-1.18841e-08
7.17358e-08
3.45568e-09
-1.30945e-08
7.49124e-08
3.2604e-09
-1.39595e-08
7.73916e-08
3.03357e-09
-1.44683e-08
7.93433e-08
2.78222e-09
-1.46184e-08
8.08968e-08
2.52037e-09
-1.44244e-08
8.21521e-08
2.25417e-09
-1.39113e-08
8.31849e-08
1.99708e-09
-1.3113e-08
8.40555e-08
1.75419e-09
-1.20705e-08
8.48081e-08
1.53745e-09
-1.08345e-08
8.5478e-08
1.34969e-09
-9.4568e-09
8.60884e-08
1.20032e-09
-7.9925e-09
8.66568e-08
1.08886e-09
-6.50085e-09
8.71885e-08
1.02273e-09
-5.03226e-09
8.76853e-08
9.97923e-10
-3.63804e-09
8.81381e-08
1.01733e-09
-2.36237e-09
8.85332e-08
1.07369e-09
-1.24498e-09
8.8845e-08
1.16676e-09
-3.11484e-10
8.90417e-08
1.28624e-09
4.13929e-10
8.90775e-08
1.42925e-09
9.2429e-10
8.88966e-08
1.583e-09
1.22385e-09
8.84237e-08
1.74293e-09
1.32819e-09
8.75655e-08
1.89473e-09
1.26334e-09
8.61985e-08
2.03124e-09
1.06448e-09
8.41659e-08
2.1371e-09
7.78427e-10
8.12595e-08
2.2063e-09
4.5011e-10
7.7208e-08
2.22307e-09
1.37618e-10
7.16501e-08
2.17287e-09
-7.50977e-11
6.41054e-08
2.00004e-09
-8.62377e-11
5.39242e-08
1.67315e-09
3.13924e-08
1.19164e-09
-3.05465e-09
2.55549e-08
3.98229e-09
-6.03211e-09
4.46532e-08
4.5837e-09
-8.92068e-09
5.3429e-08
4.83432e-09
-1.16358e-08
6.0085e-08
4.94661e-09
-1.40939e-08
6.5147e-08
4.94814e-09
-1.62326e-08
6.9007e-08
4.86766e-09
-1.80053e-08
7.19566e-08
4.72836e-09
-1.93744e-08
7.42192e-08
4.54168e-09
-2.03182e-08
7.59614e-08
4.32512e-09
-2.08234e-08
7.73147e-08
4.08796e-09
-2.08963e-08
7.83771e-08
3.84644e-09
-2.05474e-08
7.92292e-08
3.60817e-09
-1.98095e-08
7.99295e-08
3.38765e-09
-1.87198e-08
8.05278e-08
3.19004e-09
-1.73267e-08
8.10574e-08
3.02728e-09
-1.56847e-08
8.15466e-08
2.90133e-09
-1.38604e-08
8.20099e-08
2.82082e-09
-1.19127e-08
8.24579e-08
2.78396e-09
-9.91235e-09
8.28882e-08
2.79561e-09
-7.91927e-09
8.32953e-08
2.84998e-09
-5.99226e-09
8.36599e-08
2.94813e-09
-4.18998e-09
8.39596e-08
3.08039e-09
-2.54824e-09
8.4157e-08
3.2444e-09
-1.1061e-09
8.42094e-08
3.42726e-09
1.09703e-10
8.40549e-08
3.62407e-09
1.09078e-09
8.36223e-08
3.81982e-09
1.83395e-09
8.28151e-08
4.00766e-09
2.34389e-09
8.15176e-08
4.17098e-09
2.63304e-09
7.95755e-08
4.30163e-09
2.71193e-09
7.67961e-08
4.38226e-09
2.5964e-09
7.29211e-08
4.40367e-09
2.29036e-09
6.76164e-08
4.34014e-09
1.80954e-09
6.04352e-08
4.15097e-09
1.16567e-09
5.07797e-08
3.78691e-09
2.94766e-08
3.08244e-09
-3.15182e-09
2.48335e-08
3.873e-09
-6.31803e-09
4.31044e-08
4.71578e-09
-9.45754e-09
5.147e-08
5.09775e-09
-1.24305e-08
5.77756e-08
5.28179e-09
-1.51307e-08
6.25291e-08
5.31936e-09
-1.74871e-08
6.61012e-08
5.26227e-09
-1.94425e-08
6.87783e-08
5.13173e-09
-2.09433e-08
7.07739e-08
4.94815e-09
-2.1961e-08
7.22557e-08
4.72359e-09
-2.24758e-08
7.33514e-08
4.47665e-09
-2.24803e-08
7.41643e-08
4.2184e-09
-2.19915e-08
7.47736e-08
3.96602e-09
-2.10351e-08
7.52456e-08
3.72836e-09
-1.96569e-08
7.56294e-08
3.51989e-09
-1.79118e-08
7.59667e-08
3.34613e-09
-1.58675e-08
7.62847e-08
3.21806e-09
-1.36006e-08
7.66051e-08
3.13724e-09
-1.11893e-08
7.69358e-08
3.11053e-09
-8.7159e-09
7.72803e-08
3.13498e-09
-6.26157e-09
7.7628e-08
3.21299e-09
-3.90291e-09
7.79639e-08
3.33699e-09
-1.70563e-09
7.82585e-08
3.50508e-09
2.69005e-10
7.84774e-08
3.70555e-09
1.97284e-09
7.85701e-08
3.93283e-09
3.37781e-09
7.84793e-08
4.17179e-09
4.45876e-09
7.81276e-08
4.41397e-09
5.20675e-09
7.74259e-08
4.64178e-09
5.62299e-09
7.6256e-08
4.84512e-09
5.716e-09
7.44765e-08
5.00539e-09
5.50025e-09
7.1899e-08
5.11218e-09
4.98952e-09
6.82884e-08
5.14564e-09
4.19041e-09
6.33276e-08
5.08703e-09
3.12781e-09
5.66106e-08
4.88601e-09
1.84014e-09
4.75801e-08
4.49047e-09
2.76735e-08
3.64175e-09
-2.72136e-09
2.46499e-08
2.90398e-09
-5.75241e-09
4.23929e-08
3.74428e-09
-8.90302e-09
5.0481e-08
4.13826e-09
-1.19686e-08
5.65308e-08
4.31115e-09
-1.48038e-08
6.10314e-08
4.33207e-09
-1.72996e-08
6.43466e-08
4.25087e-09
-1.93726e-08
6.67562e-08
4.09483e-09
-2.09525e-08
6.84755e-08
3.8781e-09
-2.19859e-08
6.9671e-08
3.61892e-09
-2.24432e-08
7.04771e-08
3.33085e-09
-2.231e-08
7.09989e-08
3.03258e-09
-2.15993e-08
7.13252e-08
2.73693e-09
-2.03393e-08
7.15254e-08
2.46134e-09
-1.85862e-08
7.16594e-08
2.21615e-09
-1.6407e-08
7.17717e-08
2.01554e-09
-1.38859e-08
7.18994e-08
1.86575e-09
-1.11223e-08
7.20643e-08
1.77638e-09
-8.21669e-09
7.22816e-08
1.74851e-09
-5.27447e-09
7.25522e-08
1.78637e-09
-2.40259e-09
7.28698e-08
1.88538e-09
3.04858e-10
7.32133e-08
2.04417e-09
2.75634e-09
7.35549e-08
2.25265e-09
4.87727e-09
7.38512e-08
2.50433e-09
6.61041e-09
7.40521e-08
2.78452e-09
7.91782e-09
7.40906e-08
3.08277e-09
8.77334e-09
7.38909e-08
3.38125e-09
9.17578e-09
7.33557e-08
3.66751e-09
9.13767e-09
7.23717e-08
3.92285e-09
8.68739e-09
7.07929e-08
4.13457e-09
7.86002e-09
6.84409e-08
4.28484e-09
6.70283e-09
6.50843e-08
4.3607e-09
5.26801e-09
6.04248e-08
4.33688e-09
3.63593e-09
5.40738e-08
4.17023e-09
1.90708e-09
4.55112e-08
3.7964e-09
2.66025e-08
2.97864e-09
-1.94568e-09
2.5292e-08
1.30367e-09
-4.68355e-09
4.31665e-08
1.9631e-09
-7.75182e-09
5.12704e-08
2.2797e-09
-1.08765e-08
5.72675e-08
2.387e-09
-1.3847e-08
6.16559e-08
2.34708e-09
-1.65152e-08
6.48037e-08
2.2108e-09
-1.87579e-08
6.70012e-08
1.9977e-09
-2.04785e-08
6.84694e-08
1.72479e-09
-2.15969e-08
6.93874e-08
1.40443e-09
-2.20709e-08
6.98955e-08
1.0549e-09
-2.18757e-08
7.01123e-08
6.90488e-10
-2.10133e-08
7.01334e-08
3.30555e-10
-1.95203e-08
7.00419e-08
-9.48796e-12
-1.74566e-08
6.99048e-08
-3.11135e-10
-1.4902e-08
6.97792e-08
-5.6035e-10
-1.19667e-08
6.97063e-08
-7.42829e-10
-8.76666e-09
6.9718e-08
-8.53682e-10
-5.42934e-09
6.98304e-08
-8.8564e-10
-2.08909e-09
7.00502e-08
-8.38802e-10
1.12709e-09
7.03669e-08
-7.12645e-10
4.09322e-09
7.07608e-08
-5.14406e-10
6.70254e-09
7.11953e-08
-2.50417e-10
8.86397e-09
7.16249e-08
6.51503e-11
1.05131e-08
7.19872e-08
4.16933e-10
1.16053e-08
7.22109e-08
7.86832e-10
1.21296e-08
7.22076e-08
1.15863e-09
1.20951e-08
7.1877e-08
1.51433e-09
1.15315e-08
7.10947e-08
1.83959e-09
1.0493e-08
6.97139e-08
2.11609e-09
9.05491e-09
6.75478e-08
2.33191e-09
7.30419e-09
6.43654e-08
2.4706e-09
5.34719e-09
5.98644e-08
2.51498e-09
3.34008e-09
5.36614e-08
2.42145e-09
1.47594e-09
4.52395e-08
2.13487e-09
2.65753e-08
1.503e-09
-1.19313e-09
2.6901e-08
-4.17894e-10
-3.60906e-09
4.56116e-08
-2.57109e-11
-6.55969e-09
5.40486e-08
1.71239e-10
-9.70437e-09
6.02264e-08
1.85796e-10
-1.27863e-08
6.46667e-08
7.03399e-11
-1.56093e-08
6.77657e-08
-1.3731e-10
-1.8021e-08
6.98298e-08
-4.17655e-10
-1.98925e-08
7.11022e-08
-7.60161e-10
-2.11298e-08
7.17746e-08
-1.15055e-09
-2.16662e-08
7.20071e-08
-1.57582e-09
-2.14618e-08
7.19287e-08
-2.01928e-09
-2.05187e-08
7.16522e-08
-2.46407e-09
-1.88601e-08
7.12704e-08
-2.88472e-09
-1.65641e-08
7.08657e-08
-3.25857e-09
-1.37224e-08
7.05036e-08
-3.56474e-09
-1.04653e-08
7.02388e-08
-3.79155e-09
-6.92429e-09
7.01072e-08
-3.92786e-09
-3.25563e-09
7.01326e-08
-3.97098e-09
3.91538e-10
7.03197e-08
-3.91804e-09
3.87136e-09
7.06612e-08
-3.77209e-09
7.03592e-09
7.11306e-08
-3.53578e-09
9.75996e-09
7.16896e-08
-3.21839e-09
1.19374e-08
7.22806e-08
-2.83106e-09
1.3483e-08
7.28351e-08
-2.39535e-09
1.43614e-08
7.32675e-08
-1.93489e-09
1.45648e-08
7.34813e-08
-1.47623e-09
1.41197e-08
7.33606e-08
-1.03872e-09
1.30792e-08
7.27725e-08
-6.38464e-10
1.15302e-08
7.15529e-08
-2.87927e-10
9.57072e-09
6.95052e-08
-6.25298e-14
7.34575e-09
6.63807e-08
2.12014e-10
5.00709e-09
6.18659e-08
3.34994e-10
2.77655e-09
5.55564e-08
3.35523e-10
9.30957e-10
4.69198e-08
1.67497e-10
2.76968e-08
-1.91856e-10
-6.49676e-10
2.93448e-08
-1.79244e-09
-2.80419e-09
4.9404e-08
-1.64111e-09
-5.60852e-09
5.84144e-08
-1.55977e-09
-8.70237e-09
6.49526e-08
-1.63341e-09
-1.17966e-08
6.95843e-08
-1.82275e-09
-1.46731e-08
7.27381e-08
-2.09535e-09
-1.7156e-08
7.47509e-08
-2.44009e-09
-1.9094e-08
7.58881e-08
-2.84643e-09
-2.03792e-08
7.63654e-08
-3.30548e-09
-2.09289e-08
7.63592e-08
-3.80465e-09
-2.06881e-08
7.60191e-08
-4.32889e-09
-1.96564e-08
7.54711e-08
-4.85029e-09
-1.78757e-08
7.48259e-08
-5.33774e-09
-1.54235e-08
7.41767e-08
-5.76145e-09
-1.24204e-08
7.36035e-08
-6.10329e-09
-8.99897e-09
7.3168e-08
-6.35171e-09
-5.30526e-09
7.29158e-08
-6.5021e-09
-1.49391e-09
7.28716e-08
-6.54985e-09
2.27506e-09
7.30449e-08
-6.49471e-09
5.84999e-09
7.34245e-08
-6.33651e-09
9.07503e-09
7.39836e-08
-6.07941e-09
1.18183e-08
7.46752e-08
-5.72774e-09
1.39548e-08
7.54365e-08
-5.29335e-09
1.53994e-08
7.61859e-08
-4.79474e-09
1.61007e-08
7.68283e-08
-4.2619e-09
1.6057e-08
7.7251e-08
-3.72693e-09
1.53118e-08
7.73257e-08
-3.21863e-09
1.39361e-08
7.69004e-08
-2.75222e-09
1.20341e-08
7.57952e-08
-2.33932e-09
9.73561e-09
7.37916e-08
-1.98856e-09
7.20473e-09
7.06214e-08
-1.71014e-09
4.64115e-09
6.59444e-08
-1.51398e-09
2.298e-09
5.93271e-08
-1.4275e-09
5.03551e-10
5.01992e-08
-1.48465e-09
2.98136e-08
-1.61345e-09
-4.31849e-10
3.23281e-08
-2.55182e-09
-2.41948e-09
5.39555e-08
-2.56482e-09
-5.08542e-09
6.36468e-08
-2.56512e-09
-8.07031e-09
7.06364e-08
-2.69841e-09
-1.10856e-08
7.5533e-08
-2.93402e-09
-1.39054e-08
7.88062e-08
-3.24863e-09
-1.63438e-08
8.08218e-08
-3.63311e-09
-1.82466e-08
8.18738e-08
-4.08151e-09
-1.94949e-08
8.21988e-08
-4.58654e-09
-1.99929e-08
8.19956e-08
-5.13802e-09
-1.96889e-08
8.14299e-08
-5.71437e-09
-1.85829e-08
8.06472e-08
-6.28259e-09
-1.67234e-08
7.97715e-08
-6.80526e-09
-1.4205e-08
7.89117e-08
-7.25402e-09
-1.11457e-08
7.81566e-08
-7.61103e-09
-7.68806e-09
7.75786e-08
-7.8694e-09
-3.97449e-09
7.72268e-08
-8.02503e-09
-1.58802e-10
7.71327e-08
-8.07641e-09
3.60342e-09
7.73046e-08
-8.02191e-09
7.15708e-09
7.77334e-08
-7.86292e-09
1.03553e-08
7.83865e-08
-7.60069e-09
1.30555e-08
7.92136e-08
-7.23898e-09
1.51341e-08
8.01416e-08
-6.78449e-09
1.6495e-08
8.10805e-08
-6.25498e-09
1.70819e-08
8.19202e-08
-5.67917e-09
1.68936e-08
8.25353e-08
-5.09494e-09
1.59756e-08
8.27791e-08
-4.5361e-09
1.44161e-08
8.24846e-08
-4.02478e-09
1.23287e-08
8.14514e-08
-3.57105e-09
9.86278e-09
7.94413e-08
-3.18174e-09
7.18778e-09
7.61586e-08
-2.86266e-09
4.51836e-09
7.12353e-08
-2.62186e-09
2.12552e-09
6.41998e-08
-2.47949e-09
3.4603e-10
5.44402e-08
-2.46242e-09
3.25936e-08
-2.43356e-09
-4.53559e-10
3.54985e-08
-2.7173e-09
-2.40308e-09
5.86921e-08
-2.78703e-09
-5.0051e-09
6.90698e-08
-2.81971e-09
-7.91456e-09
7.65192e-08
-2.97443e-09
-1.08509e-08
8.16948e-08
-3.22636e-09
-1.35916e-08
8.51019e-08
-3.55479e-09
-1.59539e-08
8.71383e-08
-3.95332e-09
-1.77848e-08
8.81226e-08
-4.41673e-09
-1.8961e-08
8.83154e-08
-4.94135e-09
-1.93849e-08
8.79341e-08
-5.51537e-09
-1.90053e-08
8.71642e-08
-6.11335e-09
-1.7829e-08
8.61662e-08
-6.69618e-09
-1.59113e-08
8.50806e-08
-7.22581e-09
-1.33535e-08
8.40278e-08
-7.67417e-09
-1.02786e-08
8.31089e-08
-8.02813e-09
-6.81878e-09
8.2403e-08
-8.28266e-09
-3.12185e-09
8.19667e-08
-8.43651e-09
6.64043e-10
8.18335e-08
-8.4877e-09
4.38931e-09
8.20146e-08
-8.43612e-09
7.90872e-09
8.24983e-08
-8.28173e-09
1.10688e-08
8.32505e-08
-8.02629e-09
1.37397e-08
8.4214e-08
-7.67081e-09
1.57925e-08
8.53092e-08
-7.22009e-09
1.71255e-08
8.64342e-08
-6.68725e-09
1.76795e-08
8.74679e-08
-6.10047e-09
1.74421e-08
8.8269e-08
-5.49818e-09
1.64664e-08
8.86763e-08
-4.91992e-09
1.48387e-08
8.85031e-08
-4.39155e-09
1.26834e-08
8.75315e-08
-3.92486e-09
1.01501e-08
8.54997e-08
-3.52327e-09
7.41018e-09
8.2088e-08
-3.19175e-09
4.68536e-09
7.68976e-08
-2.93618e-09
2.23796e-09
6.94214e-08
-2.77513e-09
4.03855e-10
5.90039e-08
-2.73121e-09
3.56494e-08
-2.64995e-09
-6.45595e-10
3.8558e-08
-2.41376e-09
-2.67093e-09
6.31618e-08
-2.44479e-09
-5.29281e-09
7.41558e-08
-2.46391e-09
-8.18042e-09
8.20158e-08
-2.60765e-09
-1.1071e-08
8.74345e-08
-2.84986e-09
-1.37501e-08
9.09515e-08
-3.17027e-09
-1.60409e-08
9.29914e-08
-3.56175e-09
-1.77964e-08
9.38973e-08
-4.02069e-09
-1.88867e-08
9.39505e-08
-4.54351e-09
-1.92223e-08
9.33879e-08
-5.1174e-09
-1.8759e-08
9.24118e-08
-5.71273e-09
-1.75032e-08
9.11999e-08
-6.28833e-09
-1.55233e-08
8.99061e-08
-6.80569e-09
-1.29206e-08
8.86643e-08
-7.23994e-09
-9.81504e-09
8.75853e-08
-7.58052e-09
-6.34364e-09
8.6757e-08
-7.82513e-09
-2.64652e-09
8.62412e-08
-7.97279e-09
1.13483e-09
8.60757e-08
-8.02253e-09
4.85007e-09
8.6272e-08
-7.97386e-09
8.35862e-09
8.68184e-08
-7.82718e-09
1.15145e-08
8.76766e-08
-7.58331e-09
1.41879e-08
8.87847e-08
-7.24305e-09
1.62515e-08
9.00541e-08
-6.80859e-09
1.76014e-08
9.13739e-08
-6.29042e-09
1.81738e-08
9.26096e-08
-5.7135e-09
1.79526e-08
9.36067e-08
-5.11653e-09
1.69829e-08
9.4187e-08
-4.54089e-09
1.53549e-08
9.41477e-08
-4.01636e-09
1.31915e-08
9.32512e-08
-3.55582e-09
1.06382e-08
9.12156e-08
-3.16273e-09
7.86882e-09
8.76971e-08
-2.8405e-09
5.09235e-09
8.22704e-08
-2.5958e-09
2.56586e-09
7.43949e-08
-2.44754e-09
6.14069e-10
6.33771e-08
-2.42031e-09
3.8643e-08
-2.37989e-09
-9.42673e-10
4.13008e-08
-1.80041e-09
-3.12062e-09
6.70641e-08
-1.72484e-09
-5.82543e-09
7.85596e-08
-1.69808e-09
-8.74532e-09
8.67431e-08
-1.80782e-09
-1.16266e-08
9.23395e-08
-2.02308e-09
-1.42714e-08
9.59156e-08
-2.32026e-09
-1.65087e-08
9.79195e-08
-2.69125e-09
-1.81926e-08
9.87148e-08
-3.13235e-09
-1.92056e-08
9.86021e-08
-3.63947e-09
-1.94561e-08
9.78358e-08
-4.19763e-09
-1.89022e-08
9.66352e-08
-4.77549e-09
-1.75656e-08
9.51932e-08
-5.33098e-09
-1.55109e-08
9.36783e-08
-5.82689e-09
-1.28436e-08
9.22367e-08
-6.24063e-09
-9.68374e-09
9.09902e-08
-6.56422e-09
-6.16422e-09
9.00346e-08
-6.79632e-09
-2.42415e-09
8.9438e-08
-6.93655e-09
1.39258e-09
8.92415e-08
-6.98393e-09
5.14538e-09
8.94585e-08
-6.93823e-09
8.68678e-09
9.00755e-08
-6.79961e-09
1.18826e-08
9.10512e-08
-6.56897e-09
1.45948e-08
9.23173e-08
-6.2466e-09
1.6705e-08
9.37777e-08
-5.83374e-09
1.81069e-08
9.53104e-08
-5.33833e-09
1.87312e-08
9.67689e-08
-4.783e-09
1.85578e-08
9.79843e-08
-4.20504e-09
1.76287e-08
9.87633e-08
-3.64662e-09
1.60291e-08
9.88862e-08
-3.13915e-09
1.3878e-08
9.80984e-08
-2.69759e-09
1.13218e-08
9.60986e-08
-2.32593e-09
8.52431e-09
9.25229e-08
-2.02771e-09
5.6827e-09
8.69226e-08
-1.8107e-09
3.04274e-09
7.87306e-08
-1.69747e-09
9.18702e-10
6.72213e-08
-1.71783e-09
4.13462e-08
-1.78522e-09
-1.27881e-09
4.36331e-08
-1.0554e-09
-3.64196e-09
7.02714e-08
-8.41862e-10
-6.46462e-09
8.21364e-08
-7.53588e-10
-9.44673e-09
9.0543e-08
-8.18603e-10
-1.23478e-08
9.62395e-08
-9.98795e-10
-1.49792e-08
9.9813e-08
-1.26593e-09
-1.71796e-08
1.0173e-07
-1.60982e-09
-1.88126e-08
1.02373e-07
-2.02621e-09
-1.97575e-08
1.02058e-07
-2.50999e-09
-1.99309e-08
1.01055e-07
-3.04459e-09
-1.93007e-08
9.96e-08
-3.59783e-09
-1.78781e-08
9.79012e-08
-4.12797e-09
-1.57422e-08
9.61413e-08
-4.59945e-09
-1.29925e-08
9.44793e-08
-4.99174e-09
-9.75376e-09
9.30486e-08
-5.29829e-09
-6.15324e-09
9.19534e-08
-5.51823e-09
-2.33323e-09
9.12691e-08
-5.65117e-09
1.56244e-09
9.10406e-08
-5.69615e-09
5.39214e-09
9.1283e-08
-5.65292e-09
9.00892e-09
9.1981e-08
-5.5217e-09
1.22727e-08
9.30898e-08
-5.30338e-09
1.50545e-08
9.45339e-08
-4.99833e-09
1.72321e-08
9.62089e-08
-4.60733e-09
1.8696e-08
9.7981e-08
-4.13692e-09
1.93835e-08
9.96915e-08
-3.60761e-09
1.92643e-08
1.01157e-07
-3.05501e-09
1.83794e-08
1.02169e-07
-2.52089e-09
1.68132e-08
1.02492e-07
-2.03743e-09
1.46761e-08
1.01855e-07
-1.62116e-09
1.21102e-08
9.99416e-08
-1.27709e-09
9.27314e-09
9.63696e-08
-1.00938e-09
6.35318e-09
9.0672e-08
-8.27902e-10
3.57998e-09
8.22614e-08
-7.60102e-10
1.25753e-09
7.03894e-08
-8.43162e-10
4.36523e-08
-1.04978e-09
-1.56896e-09
4.55506e-08
-3.47477e-10
-4.11305e-09
7.2816e-08
-2.62334e-12
-7.05358e-09
8.49341e-08
1.44544e-10
-1.01095e-08
9.34741e-08
1.23684e-10
-1.30486e-08
9.91998e-08
-2.1139e-11
-1.56901e-08
1.02713e-07
-2.59229e-10
-1.78805e-08
1.04496e-07
-5.75998e-10
-1.94826e-08
1.04943e-07
-9.67067e-10
-2.03842e-08
1.04386e-07
-1.42607e-09
-2.05047e-08
1.0311e-07
-1.93553e-09
-1.98075e-08
1.01366e-07
-2.46289e-09
-1.83158e-08
9.93765e-08
-2.9676e-09
-1.60992e-08
9.73405e-08
-3.41576e-09
-1.32605e-08
9.54308e-08
-3.78845e-09
-9.9258e-09
9.37931e-08
-4.07952e-09
-6.22617e-09
9.2542e-08
-4.28889e-09
-2.30015e-09
9.17602e-08
-4.41556e-09
1.70064e-09
9.1497e-08
-4.45846e-09
5.63181e-09
9.17693e-08
-4.41714e-09
9.34484e-09
9.25603e-08
-4.29203e-09
1.26984e-08
9.38204e-08
-4.08419e-09
1.55583e-08
9.5467e-08
-3.79456e-09
1.78069e-08
9.73856e-08
-3.42321e-09
1.93338e-08
9.94301e-08
-2.97625e-09
2.00718e-08
1.01427e-07
-2.4726e-09
1.9994e-08
1.03179e-07
-1.94615e-09
1.91393e-08
1.04462e-07
-1.43744e-09
1.75853e-08
1.05025e-07
-9.79016e-10
1.54474e-08
1.04582e-07
-5.88293e-10
1.28593e-08
1.02803e-07
-2.71584e-10
9.96868e-09
9.92913e-08
-3.31448e-11
6.96215e-09
9.35666e-08
1.12659e-10
4.06104e-09
8.50261e-08
1.3575e-10
1.55283e-09
7.2906e-08
-7.22068e-12
4.55517e-08
-3.46725e-10
-1.7637e-09
4.71165e-08
1.97589e-10
-4.43339e-09
7.48408e-08
6.44504e-10
-7.47336e-09
8.71319e-08
8.4302e-10
-1.05988e-08
9.5742e-08
8.57711e-10
-1.35872e-08
1.01447e-07
7.4034e-10
-1.62601e-08
1.04859e-07
5.27589e-10
-1.84659e-08
1.06469e-07
2.33621e-10
-2.00752e-08
1.06686e-07
-1.35576e-10
-2.09678e-08
1.05853e-07
-5.72918e-10
-2.10653e-08
1.04268e-07
-1.05974e-09
-2.0336e-08
1.02198e-07
-1.56402e-09
-1.87955e-08
9.98827e-08
-2.04661e-09
-1.65141e-08
9.75363e-08
-2.47556e-09
-1.35972e-08
9.53469e-08
-2.83382e-09
-1.01646e-08
9.34751e-08
-3.11579e-09
-6.35e-09
9.20469e-08
-3.31872e-09
-2.30282e-09
9.11545e-08
-3.44162e-09
1.82494e-09
9.08523e-08
-3.48318e-09
5.87707e-09
9.11602e-08
-3.44299e-09
9.69986e-09
9.20583e-08
-3.32147e-09
1.31487e-08
9.34922e-08
-3.11986e-09
1.60859e-08
9.53696e-08
-2.83918e-09
1.83881e-08
9.75647e-08
-2.48213e-09
1.99549e-08
9.99165e-08
-2.05432e-09
2.07177e-08
1.02238e-07
-1.57275e-09
2.06553e-08
1.04312e-07
-1.0694e-09