/*--------------------------------*- C++ -*----------------------------------*\
| =========                 |                                                 |
| \\      /  F ield         | OpenFOAM: The Open Source CFD Toolbox           |
|  \\    /   O peration     | Version:  v1906                                 |
|   \\  /    A nd           | Web:      www.OpenFOAM.com                      |
|    \\/     M anipulation  |                                                 |
\*---------------------------------------------------------------------------*/
FoamFile
{
    version     2.0;
    format      ascii;
    class       volVectorField;
    location    "28";
    object      U;
}
// * * * * * * * * * * * * * * * * * * * * * * * * * * * * * * * * * * * * * //

dimensions      [0 1 -1 0 0 0 0];


internalField   nonuniform List<vector> 
78750
(
(-5.16573e-06 -0.000101764 2.9324e-05)
(-2.23713e-05 -0.000104997 5.21079e-05)
(-6.04489e-05 -7.62406e-05 7.26846e-05)
(-0.000112886 -3.48635e-05 9.8392e-05)
(-0.000175169 9.68354e-06 0.000129455)
(-0.000244422 5.34682e-05 0.000165067)
(-0.000317954 9.44317e-05 0.000202707)
(-0.000393115 0.000131404 0.000239507)
(-0.000467629 0.00016292 0.00027245)
(-0.000539538 0.000188492 0.000298762)
(-0.000607227 0.000207557 0.000316024)
(-0.000669445 0.000220181 0.000322566)
(-0.000725094 0.000226325 0.000317285)
(-0.000773235 0.000226421 0.000299923)
(-0.000813034 0.00022092 0.000270863)
(-0.000844058 0.000210555 0.000231136)
(-0.000865345 0.000196288 0.000183317)
(-0.000877409 0.00017823 0.000126886)
(-0.000879624 0.000157408 6.49696e-05)
(-0.000872187 0.000134505 -3.74359e-07)
(-0.000855296 0.000110088 -6.70781e-05)
(-0.000829295 8.4728e-05 -0.000133086)
(-0.0007946 5.89137e-05 -0.000196417)
(-0.000751753 3.31177e-05 -0.000255176)
(-0.000701367 7.78882e-06 -0.000307558)
(-0.000644146 -1.66231e-05 -0.000351858)
(-0.000580853 -3.96141e-05 -0.000386424)
(-0.00051236 -6.06254e-05 -0.000409686)
(-0.000439662 -7.893e-05 -0.000420117)
(-0.000363849 -9.36388e-05 -0.000416308)
(-0.00028588 -0.000103547 -0.000396891)
(-0.00020648 -0.000107068 -0.000360769)
(-0.000128157 -0.000101972 -0.000307056)
(-6.5489e-05 -8.55324e-05 -0.000235796)
(-2.10594e-05 -4.6205e-05 -0.000114141)
(-2.58068e-05 0.000404909 -0.000425715)
(-8.33945e-05 0.000792969 -0.000549134)
(-0.000156801 0.000991688 -0.000578025)
(-0.000254697 0.00112862 -0.000609339)
(-0.000353905 0.00121408 -0.000638653)
(-0.000447513 0.0012537 -0.000660859)
(-0.000532466 0.00125688 -0.000677089)
(-0.000606076 0.00123015 -0.00068994)
(-0.000668225 0.00118191 -0.000700073)
(-0.000718397 0.00111738 -0.000707384)
(-0.000757245 0.00104375 -0.000710906)
(-0.000785361 0.000963881 -0.000710952)
(-0.000803391 0.000881636 -0.000707738)
(-0.000812279 0.000797223 -0.000703181)
(-0.000812405 0.000712622 -0.000698002)
(-0.000804704 0.000628893 -0.000692633)
(-0.000789861 0.000547542 -0.000687263)
(-0.000768643 0.000468961 -0.000682321)
(-0.000741819 0.000394069 -0.000677794)
(-0.000710082 0.000323071 -0.000673789)
(-0.000674144 0.000256459 -0.00067011)
(-0.000634609 0.000194278 -0.000666671)
(-0.000592098 0.000136702 -0.000663209)
(-0.000547128 8.37001e-05 -0.000659458)
(-0.000500216 3.52532e-05 -0.000655042)
(-0.000451801 -8.664e-06 -0.000649444)
(-0.000402305 -4.81322e-05 -0.000642022)
(-0.000352099 -8.309e-05 -0.000631752)
(-0.000301571 -0.000113551 -0.000617267)
(-0.000251086 -0.000139247 -0.000596469)
(-0.000200749 -0.000159861 -0.00056667)
(-0.000150021 -0.000174307 -0.000522435)
(-9.92831e-05 -0.000180317 -0.000450405)
(-5.95616e-05 -0.000171597 -0.000333143)
(-3.00104e-05 -0.00010442 -9.92208e-05)
(-2.85472e-05 0.00081069 -3.05869e-05)
(-7.26202e-05 0.00140821 -3.77216e-05)
(-0.00011853 0.00164789 -3.62309e-05)
(-0.000179294 0.00178952 -4.02674e-05)
(-0.000238283 0.00184815 -5.36446e-05)
(-0.000290942 0.00183821 -7.59192e-05)
(-0.000337259 0.00178143 -0.000111041)
(-0.000376657 0.00169906 -0.00015883)
(-0.00040863 0.00160278 -0.000218315)
(-0.000432843 0.0015012 -0.000284324)
(-0.000449561 0.0013974 -0.000351669)
(-0.000459074 0.00129335 -0.000412686)
(-0.00046215 0.00118772 -0.00046219)
(-0.000459114 0.00108213 -0.00049636)
(-0.000452074 0.000978548 -0.000518108)
(-0.000441029 0.000878535 -0.00053018)
(-0.000426695 0.000782508 -0.000535764)
(-0.000409647 0.000691261 -0.000536823)
(-0.000390495 0.000605418 -0.000534641)
(-0.000369623 0.000525437 -0.000529952)
(-0.000347398 0.000451246 -0.000523575)
(-0.000324136 0.00038296 -0.000515839)
(-0.000300105 0.000320406 -0.000507153)
(-0.000275559 0.000263473 -0.000497621)
(-0.000250703 0.000211953 -0.000487369)
(-0.000225712 0.000165605 -0.000476288)
(-0.00020073 0.000124259 -0.000464167)
(-0.00017587 8.76879e-05 -0.000450502)
(-0.000151246 5.58768e-05 -0.000434469)
(-0.000126939 2.88007e-05 -0.000414732)
(-0.000102941 6.79088e-06 -0.000389094)
(-7.88746e-05 -9.73174e-06 -0.000353492)
(-5.45173e-05 -1.99044e-05 -0.000300555)
(-3.39944e-05 -2.2239e-05 -0.000222302)
(-1.94948e-05 -7.47454e-06 -5.44728e-05)
(-2.59328e-05 0.000925845 0.000345963)
(-4.93675e-05 0.00152706 0.000448214)
(-6.29905e-05 0.00177251 0.0004597)
(-8.13492e-05 0.00191938 0.000462644)
(-9.92531e-05 0.00198551 0.000467889)
(-0.000116694 0.00198627 0.000469471)
(-0.000136233 0.00194596 0.000460501)
(-0.000157482 0.00187914 0.00043201)
(-0.00017815 0.0017957 0.000382358)
(-0.000196478 0.00169983 0.000312189)
(-0.000210936 0.00159587 0.000226356)
(-0.000220822 0.00148572 0.000130528)
(-0.000225729 0.00137312 3.41974e-05)
(-0.000226226 0.00126056 -5.3869e-05)
(-0.000222746 0.00115118 -0.000126251)
(-0.000216228 0.00104634 -0.000181893)
(-0.000207846 0.000947453 -0.000224554)
(-0.000197555 0.000854808 -0.000257244)
(-0.000186038 0.00076899 -0.000282047)
(-0.000173888 0.000689707 -0.000301017)
(-0.000161411 0.000616649 -0.000315446)
(-0.000148832 0.000549476 -0.00032619)
(-0.000136521 0.000488401 -0.000333561)
(-0.000124602 0.000433005 -0.000338131)
(-0.000113179 0.000382944 -0.000340128)
(-0.00010237 0.000337789 -0.000339894)
(-9.21745e-05 0.000297108 -0.000337507)
(-8.26029e-05 0.000260489 -0.000333122)
(-7.35453e-05 0.000227472 -0.000326572)
(-6.48858e-05 0.000197676 -0.000317639)
(-5.62927e-05 0.000170626 -0.000305849)
(-4.70753e-05 0.000145989 -0.000291725)
(-3.60606e-05 0.000123211 -0.000276638)
(-2.49356e-05 0.00010215 -0.000253892)
(-1.5961e-05 7.1119e-05 -0.000148761)
(-1.85384e-05 0.000759174 0.000441333)
(-2.58253e-05 0.00118489 0.000569193)
(-2.14467e-05 0.00137461 0.000582836)
(-1.27915e-05 0.0015075 0.000596708)
(-2.18571e-06 0.00159244 0.000611069)
(7.77368e-06 0.00163812 0.000617376)
(1.5349e-05 0.00165203 0.000613506)
(2.04564e-05 0.0016407 0.000599011)
(2.35719e-05 0.00160815 0.000573041)
(2.54816e-05 0.00155857 0.000535197)
(2.6703e-05 0.00149441 0.00048602)
(2.77702e-05 0.00141911 0.000427179)
(2.87854e-05 0.00133535 0.000361491)
(3.0087e-05 0.00124707 0.00029317)
(3.15203e-05 0.0011577 0.000226366)
(3.30812e-05 0.00107079 0.000164638)
(3.45883e-05 0.000988488 0.000110301)
(3.5946e-05 0.000912471 6.42289e-05)
(3.68325e-05 0.000843254 2.61751e-05)
(3.72888e-05 0.000781188 -4.31955e-06)
(3.69948e-05 0.000725596 -2.86311e-05)
(3.58322e-05 0.000676038 -4.7897e-05)
(3.38119e-05 0.000631746 -6.28598e-05)
(3.08697e-05 0.000592239 -7.41439e-05)
(2.69713e-05 0.000556829 -8.24282e-05)
(2.22116e-05 0.000524949 -8.81517e-05)
(1.66852e-05 0.000495795 -9.18665e-05)
(1.05623e-05 0.000468632 -9.41616e-05)
(4.10777e-06 0.000442335 -9.58174e-05)
(-2.35096e-06 0.000415793 -9.72734e-05)
(-8.42301e-06 0.000387487 -9.91399e-05)
(-1.34258e-05 0.000355657 -0.000104845)
(-1.56166e-05 0.000317745 -0.000123074)
(-1.38607e-05 0.000271774 -0.000148685)
(-1.07556e-05 0.000178199 -0.000114617)
(-9.27487e-06 0.000588702 0.000404349)
(-8.20995e-06 0.000881437 0.000503309)
(-6.98587e-07 0.00102465 0.000509398)
(1.31938e-05 0.00113347 0.000514565)
(3.05824e-05 0.00121111 0.000520416)
(4.96542e-05 0.00126187 0.000521185)
(6.9149e-05 0.00129127 0.00051604)
(8.82838e-05 0.00130219 0.000505849)
(0.000106381 0.0012983 0.000490827)
(0.000122948 0.00128162 0.000471115)
(0.000137561 0.0012549 0.000446899)
(0.000149849 0.00121976 0.000418688)
(0.00015955 0.0011786 0.00038709)
(0.00016642 0.00113301 0.000353103)
(0.000170547 0.00108516 0.000317935)
(0.00017188 0.00103662 0.000282851)
(0.00017075 0.000989282 0.000249334)
(0.000167326 0.000944067 0.000218331)
(0.000161933 0.00090198 0.000190528)
(0.000154764 0.000863323 0.000166145)
(0.000146058 0.000828383 0.000145265)
(0.000135994 0.000796783 0.000127654)
(0.00012478 0.000768286 0.000113049)
(0.000112571 0.00074224 0.000101022)
(9.95577e-05 0.000718153 9.12197e-05)
(8.59203e-05 0.000695156 8.31139e-05)
(7.18822e-05 0.00067251 7.62484e-05)
(5.76877e-05 0.00064905 6.98871e-05)
(4.36416e-05 0.000623649 6.3233e-05)
(3.00951e-05 0.000594687 5.5409e-05)
(1.7411e-05 0.000560389 4.54955e-05)
(6.11759e-06 0.000518236 2.97854e-05)
(-2.28704e-06 0.000465252 -1.08666e-06)
(-5.49583e-06 0.000397526 -4.42378e-05)
(-5.80189e-06 0.00025202 -5.00027e-05)
(-5.20682e-06 0.000437776 0.000317542)
(-3.30436e-06 0.000652115 0.000347905)
(1.29502e-06 0.000758082 0.000326959)
(1.09089e-05 0.000842037 0.000313555)
(2.33649e-05 0.000906279 0.000306793)
(3.73924e-05 0.000954792 0.000300245)
(5.22208e-05 0.00099063 0.000292478)
(6.72543e-05 0.00101598 0.00028364)
(8.19115e-05 0.00103221 0.000273547)
(9.57439e-05 0.00104084 0.000261869)
(0.000108314 0.00104276 0.000248426)
(0.000119317 0.00103926 0.00023323)
(0.000128499 0.00103109 0.000216432)
(0.000135692 0.00101958 0.000198487)
(0.000140763 0.00100552 0.000179972)
(0.00014372 0.000990148 0.000161558)
(0.000144503 0.000973962 0.000143548)
(0.000143318 0.000957902 0.000126709)
(0.000140265 0.000942258 0.000111443)
(0.000135456 0.000927567 9.80651e-05)
(0.000129074 0.000913536 8.64325e-05)
(0.000121321 0.000900216 7.65224e-05)
(0.000112373 0.000887127 6.81761e-05)
(0.000102385 0.000874116 6.13313e-05)
(9.15251e-05 0.000860469 5.56597e-05)
(7.99507e-05 0.000845767 5.09741e-05)
(6.78675e-05 0.00082899 4.67981e-05)
(5.5459e-05 0.000809309 4.27714e-05)
(4.30138e-05 0.000785165 3.82436e-05)
(3.07732e-05 0.00075498 3.26721e-05)
(1.91474e-05 0.000716186 2.48098e-05)
(8.5597e-06 0.000665797 1.13427e-05)
(3.35802e-07 0.000599351 -1.44882e-05)
(-3.47622e-06 0.000511278 -4.95053e-05)
(-4.38493e-06 0.00031664 -5.3795e-05)
(-2.37673e-06 0.000371281 0.000212934)
(-1.19656e-06 0.000583723 0.000215738)
(-1.0583e-06 0.000683219 0.000190109)
(8.66037e-07 0.000760204 0.000169157)
(4.08619e-06 0.000820223 0.00015574)
(8.14288e-06 0.000866841 0.000144892)
(1.28914e-05 0.000903223 0.000134499)
(1.82109e-05 0.000931261 0.000124001)
(2.39433e-05 0.000952854 0.00011346)
(2.98739e-05 0.000968993 0.000102745)
(3.58192e-05 0.000980938 9.19929e-05)
(4.15469e-05 0.000989214 8.11511e-05)
(4.68741e-05 0.000994764 7.04244e-05)
(5.1592e-05 0.000997875 5.98261e-05)
(5.55627e-05 0.000999326 4.96455e-05)
(5.86671e-05 0.000999257 3.99603e-05)
(6.08887e-05 0.000998314 3.10636e-05)
(6.21026e-05 0.000996534 2.27948e-05)
(6.23084e-05 0.000994448 1.54486e-05)
(6.15993e-05 0.000991778 9.2299e-06)
(5.99592e-05 0.000988816 4.31217e-06)
(5.74139e-05 0.000985138 5.22782e-07)
(5.40073e-05 0.000980803 -2.08305e-06)
(4.97858e-05 0.000975139 -3.81063e-06)
(4.48211e-05 0.000967934 -4.6917e-06)
(3.91907e-05 0.0009582 -5.13996e-06)
(3.30121e-05 0.000945327 -5.28233e-06)
(2.64348e-05 0.000927817 -5.64874e-06)
(1.96447e-05 0.000904371 -6.46998e-06)
(1.28888e-05 0.000872591 -8.35469e-06)
(6.43516e-06 0.000829903 -1.18724e-05)
(7.35228e-07 0.000772256 -1.93292e-05)
(-3.38219e-06 0.000694684 -3.46262e-05)
(-4.79175e-06 0.000590037 -5.52082e-05)
(-4.28806e-06 0.000357114 -5.14565e-05)
(-2.50923e-06 0.000323927 0.000129107)
(-2.88143e-06 0.000542988 0.000134294)
(-4.42901e-06 0.000644855 0.000122667)
(-5.73232e-06 0.000723446 0.000111806)
(-6.57612e-06 0.000784193 0.000103327)
(-6.96773e-06 0.000831639 9.54074e-05)
(-6.90754e-06 0.000868699 8.70534e-05)
(-6.33637e-06 0.000898036 7.8363e-05)
(-5.27275e-06 0.000921169 6.93317e-05)
(-3.72784e-06 0.00093976 6.02819e-05)
(-1.78016e-06 0.000954577 5.12596e-05)
(5.15472e-07 0.000966746 4.26276e-05)
(3.04774e-06 0.000976612 3.44362e-05)
(5.72058e-06 0.000984997 2.70382e-05)
(8.41231e-06 0.000991983 2.04596e-05)
(1.10205e-05 0.000998194 1.49991e-05)
(1.34198e-05 0.00100352 1.0604e-05)
(1.55507e-05 0.00100844 7.43769e-06)
(1.73146e-05 0.00101265 5.35735e-06)
(1.86445e-05 0.00101645 4.49604e-06)
(1.94841e-05 0.00101938 4.61768e-06)
(1.97952e-05 0.00102155 5.77226e-06)
(1.95539e-05 0.00102229 7.63413e-06)
(1.87562e-05 0.00102151 1.01789e-05)
(1.74136e-05 0.00101825 1.30044e-05)
(1.55699e-05 0.00101211 1.60039e-05)
(1.32886e-05 0.00100168 1.87031e-05)
(1.06464e-05 0.000986014 2.09894e-05)
(7.77256e-06 0.000962951 2.23326e-05)
(4.81398e-06 0.000930535 2.25334e-05)
(1.95025e-06 0.000885266 2.08564e-05)
(-5.78289e-07 0.00082337 1.60437e-05)
(-2.31541e-06 0.000738855 5.40788e-06)
(-2.75422e-06 0.000624571 -9.36191e-06)
(-2.19378e-06 0.000370004 -1.38387e-05)
(-3.49306e-06 0.000304459 8.7963e-05)
(-5.66102e-06 0.000527021 0.000107231)
(-8.87014e-06 0.000630039 0.00011041)
(-1.26229e-05 0.000708788 0.000110103)
(-1.59247e-05 0.000769433 0.00010791)
(-1.87234e-05 0.000816267 0.000103922)
(-2.1016e-05 0.000852874 9.85422e-05)
(-2.27573e-05 0.000881513 9.20168e-05)
(-2.39089e-05 0.000904349 8.48466e-05)
(-2.44564e-05 0.00092254 7.7227e-05)
(-2.44118e-05 0.000937484 6.96071e-05)
(-2.38059e-05 0.000949726 6.21341e-05)
(-2.26925e-05 0.000960229 5.52128e-05)
(-2.1131e-05 0.000969177 4.89313e-05)
(-1.92047e-05 0.00097727 4.36262e-05)
(-1.69967e-05 0.000984448 3.93005e-05)
(-1.45859e-05 0.000991226 3.61972e-05)
(-1.20916e-05 0.00099733 3.42686e-05)
(-9.59503e-06 0.00100312 3.36621e-05)
(-7.17837e-06 0.00100817 3.418e-05)
(-4.92801e-06 0.00101267 3.58782e-05)
(-2.91038e-06 0.001016 3.8466e-05)
(-1.18587e-06 0.00101816 4.19152e-05)
(2.08193e-07 0.00101829 4.58513e-05)
(1.2421e-06 0.00101614 5.01656e-05)
(1.91584e-06 0.00101053 5.442e-05)
(2.23853e-06 0.00100078 5.84421e-05)
(2.25783e-06 0.00098514 6.16683e-05)
(2.01773e-06 0.000962182 6.38585e-05)
(1.59188e-06 0.000929171 6.44395e-05)
(1.04971e-06 0.000883342 6.29899e-05)
(4.66704e-07 0.000820206 5.8335e-05)
(-4.93041e-08 0.000734511 4.87564e-05)
(-2.45484e-07 0.000618541 3.43446e-05)
(-7.60026e-08 0.00036169 1.65508e-05)
(-4.5067e-06 0.00029088 6.57474e-05)
(-7.86798e-06 0.000508867 9.82864e-05)
(-1.2093e-05 0.000609193 0.000111789)
(-1.71428e-05 0.000685609 0.000118935)
(-2.16235e-05 0.00074385 0.000121171)
(-2.54996e-05 0.000788614 0.000120097)
(-2.87675e-05 0.000822984 0.000116581)
(-3.14085e-05 0.000849729 0.000111397)
(-3.33437e-05 0.000870485 0.00010499)
(-3.45615e-05 0.000886979 9.79394e-05)
(-3.50343e-05 0.000900051 9.05696e-05)
(-3.4797e-05 0.00091085 8.33637e-05)
(-3.38671e-05 0.000919757 7.65547e-05)
(-3.23229e-05 0.000927579 7.05331e-05)
(-3.02184e-05 0.000934406 6.54333e-05)
(-2.76577e-05 0.000940815 6.15442e-05)
(-2.47269e-05 0.000946678 5.88906e-05)
(-2.15478e-05 0.000952393 5.76506e-05)
(-1.82144e-05 0.00095764 5.77308e-05)
(-1.48521e-05 0.000962648 5.91929e-05)
(-1.15474e-05 0.000966911 6.1825e-05)
(-8.41163e-06 0.000970487 6.5575e-05)
(-5.51341e-06 0.000972666 7.01207e-05)
(-2.92579e-06 0.000973282 7.53111e-05)
(-6.96388e-07 0.000971339 8.07397e-05)
(1.13969e-06 0.000966335 8.61838e-05)
(2.57703e-06 0.000956869 9.1152e-05)
(3.61562e-06 0.000941926 9.53405e-05)
(4.27358e-06 0.00091943 9.81689e-05)
(4.57634e-06 0.000887461 9.92355e-05)
(4.53861e-06 0.000842727 9.77601e-05)
(4.13468e-06 0.000781638 9.27534e-05)
(3.31378e-06 0.000698718 8.22534e-05)
(2.4297e-06 0.000587319 6.55823e-05)
(1.74554e-06 0.000341221 3.50263e-05)
(-4.52786e-06 0.000280956 4.77059e-05)
(-8.1748e-06 0.000489476 8.5896e-05)
(-1.27505e-05 0.000585195 0.000104203)
(-1.82411e-05 0.000657528 0.000114723)
(-2.31669e-05 0.000712412 0.000118978)
(-2.74214e-05 0.000753909 0.000119007)
(-3.10406e-05 0.000785455 0.000116148)
(-3.39384e-05 0.00080927 0.000111144)
(-3.60632e-05 0.000827441 0.000104693)
(-3.73437e-05 0.000841183 9.72864e-05)
(-3.77791e-05 0.000851847 8.94993e-05)
(-3.73567e-05 0.000860082 8.17215e-05)
(-3.61364e-05 0.00086682 7.44262e-05)
(-3.41557e-05 0.00087236 6.78932e-05)
(-3.1522e-05 0.000877363 6.24788e-05)
(-2.83164e-05 0.000881881 5.83429e-05)
(-2.46823e-05 0.000886364 5.57144e-05)
(-2.07308e-05 0.000890657 5.4622e-05)
(-1.6615e-05 0.000895023 5.51574e-05)
(-1.24577e-05 0.000899109 5.72102e-05)
(-8.40627e-06 0.00090299 6.07335e-05)
(-4.56738e-06 0.00090611 6.54824e-05)
(-1.06112e-06 0.000908341 7.12817e-05)
(2.03309e-06 0.000908895 7.77661e-05)
(4.64043e-06 0.000907387 8.46468e-05)
(6.72457e-06 0.000902727 9.14542e-05)
(8.24893e-06 0.000894155 9.7803e-05)
(9.21306e-06 0.000880107 0.000103141)
(9.62876e-06 0.000859204 0.000107)
(9.52241e-06 0.000829065 0.000108734)
(8.90908e-06 0.000787206 0.000107654)
(7.733e-06 0.000729752 0.000102518)
(5.94685e-06 0.000652196 9.14112e-05)
(4.13853e-06 0.000547914 7.3111e-05)
(2.68592e-06 0.000318261 3.64968e-05)
(-3.79266e-06 0.000274251 2.42485e-05)
(-7.28527e-06 0.000473952 5.84883e-05)
(-1.18136e-05 0.000565157 7.63057e-05)
(-1.73815e-05 0.000633733 8.66064e-05)
(-2.24927e-05 0.000685071 9.04045e-05)
(-2.7e-05 0.000723395 8.99071e-05)
(-3.08359e-05 0.00075167 8.63546e-05)
(-3.39197e-05 0.000772445 8.05885e-05)
(-3.61217e-05 0.000787384 7.31831e-05)
(-3.7383e-05 0.000798123 6.47593e-05)
(-3.7648e-05 0.000805621 5.58112e-05)
(-3.69348e-05 0.000810999 4.68927e-05)
(-3.52625e-05 0.000814806 3.84328e-05)
(-3.272e-05 0.000817842 3.09002e-05)
(-2.93937e-05 0.000820375 2.46171e-05)
(-2.54277e-05 0.000822962 1.99183e-05)
(-2.0962e-05 0.000825636 1.69758e-05)
(-1.61798e-05 0.000828733 1.59586e-05)
(-1.12415e-05 0.000832065 1.68682e-05)
(-6.33977e-06 0.000835749 1.96936e-05)
(-1.63213e-06 0.000839375 2.42596e-05)
(2.71295e-06 0.000842839 3.03788e-05)
(6.56601e-06 0.000845501 3.77117e-05)
(9.80724e-06 0.00084702 4.59199e-05)
(1.23634e-05 0.000846499 5.45368e-05)
(1.41737e-05 0.000843305 6.31218e-05)
(1.52182e-05 0.000836199 7.11445e-05)
(1.55057e-05 0.000824112 7.81145e-05)
(1.5078e-05 0.000805254 8.34506e-05)
(1.39965e-05 0.000777801 8.66028e-05)
(1.23127e-05 0.000738983 8.68046e-05)
(1.0037e-05 0.000685588 8.29377e-05)
(7.20661e-06 0.000613051 7.30544e-05)
(4.65009e-06 0.000515575 5.61758e-05)
(2.6888e-06 0.000300516 2.27191e-05)
(-2.55699e-06 0.000276219 -2.87902e-06)
(-5.68214e-06 0.000473188 2.0112e-05)
(-9.97695e-06 0.000562765 3.37536e-05)
(-1.54755e-05 0.000629368 4.11679e-05)
(-2.07608e-05 0.000678592 4.27556e-05)
(-2.55358e-05 0.00071434 4.03636e-05)
(-2.96826e-05 0.000739899 3.5124e-05)
(-3.3028e-05 0.000757533 2.76786e-05)
(-3.54359e-05 0.000769296 1.85928e-05)
(-3.67828e-05 0.000776556 8.37395e-06)
(-3.70245e-05 0.0007807 -2.42448e-06)
(-3.61279e-05 0.000782594 -1.32912e-05)
(-3.41385e-05 0.00078324 -2.36372e-05)
(-3.11277e-05 0.000783182 -3.29389e-05)
(-2.72249e-05 0.000783145 -4.06465e-05)
(-2.25836e-05 0.000783404 -4.6373e-05)
(-1.74014e-05 0.000784408 -4.98864e-05)
(-1.18777e-05 0.00078617 -5.10449e-05)
(-6.23917e-06 0.00078889 -4.97433e-05)
(-7.01538e-07 0.000792315 -4.60585e-05)
(4.51707e-06 0.000796381 -4.01271e-05)
(9.22419e-06 0.000800572 -3.22515e-05)
(1.32486e-05 0.000804555 -2.28306e-05)
(1.64578e-05 0.000807556 -1.23926e-05)
(1.87599e-05 0.000808965 -1.51345e-06)
(2.01086e-05 0.000807723 9.21841e-06)
(2.05034e-05 0.000802896 1.93626e-05)
(1.99749e-05 0.000793015 2.83793e-05)
(1.86069e-05 0.000776612 3.57501e-05)
(1.65023e-05 0.000751525 4.09528e-05)
(1.37927e-05 0.000715348 4.33775e-05)
(1.05558e-05 0.000664634 4.20431e-05)
(6.98554e-06 0.000595261 3.53451e-05)
(4.04719e-06 0.000501377 2.28343e-05)
(1.944e-06 0.000293797 3.06947e-08)
(-1.32476e-06 0.000288849 -2.83367e-05)
(-4.13323e-06 0.000491389 -1.9152e-05)
(-8.09941e-06 0.000582919 -1.1298e-05)
(-1.34741e-05 0.000650319 -7.8768e-06)
(-1.88643e-05 0.000699144 -9.27023e-06)
(-2.38857e-05 0.000733722 -1.40733e-05)
(-2.83125e-05 0.000757251 -2.1465e-05)
(-3.19438e-05 0.00077241 -3.09628e-05)
(-3.45819e-05 0.000781139 -4.21617e-05)
(-3.6093e-05 0.000785215 -5.46426e-05)
(-3.63776e-05 0.000785898 -6.79624e-05)
(-3.54117e-05 0.000784457 -8.15294e-05)
(-3.32125e-05 0.00078175 -9.45582e-05)
(-2.98684e-05 0.000778727 -0.000106221)
(-2.55183e-05 0.000775946 -0.000115872)
(-2.03573e-05 0.000774049 -0.00012306)
(-1.46113e-05 0.000773305 -0.000127456)
(-8.52032e-06 0.000774058 -0.000128931)
(-2.34018e-06 0.000776255 -0.000127462)
(3.68203e-06 0.000779915 -0.000123081)
(9.3005e-06 0.000784666 -0.000115911)
(1.42797e-05 0.000790205 -0.000106183)
(1.8418e-05 0.000795841 -9.43117e-05)
(2.15568e-05 0.000800956 -8.09745e-05)
(2.35932e-05 0.000804566 -6.70298e-05)
(2.44916e-05 0.000805754 -5.33159e-05)
(2.42643e-05 0.000803213 -4.05368e-05)
(2.29862e-05 0.00079563 -2.91257e-05)
(2.07752e-05 0.000781198 -1.94655e-05)
(1.77965e-05 0.000757898 -1.19386e-05)
(1.4226e-05 0.000722979 -6.9545e-06)
(1.02604e-05 0.000673127 -5.21596e-06)
(6.20298e-06 0.000603899 -7.88696e-06)
(3.14317e-06 0.000509579 -1.4682e-05)
(1.00257e-06 0.000300035 -2.38826e-05)
(-4.05885e-07 0.000312525 -4.61008e-05)
(-3.02546e-06 0.00052804 -4.89791e-05)
(-6.65472e-06 0.00062503 -4.66548e-05)
(-1.18184e-05 0.00069568 -4.71538e-05)
(-1.71806e-05 0.000746077 -5.14438e-05)
(-2.22656e-05 0.000780744 -5.86036e-05)
(-2.68119e-05 0.000803329 -6.8112e-05)
(-3.05642e-05 0.000816593 -7.96809e-05)
(-3.33142e-05 0.000822877 -9.30761e-05)
(-3.48779e-05 0.000823983 -0.000108029)
(-3.51439e-05 0.000821538 -0.000124064)
(-3.40644e-05 0.000816794 -0.000140297)
(-3.16867e-05 0.000810962 -0.000155589)
(-2.81024e-05 0.00080494 -0.000168919)
(-2.34844e-05 0.000799627 -0.00017963)
(-1.80458e-05 0.000795603 -0.000187412)
(-1.20316e-05 0.000793403 -0.000192126)
(-5.6913e-06 0.000793218 -0.000193692)
(7.12053e-07 0.000795202 -0.000192077)
(6.91865e-06 0.000799176 -0.00018729)
(1.26719e-05 0.000804918 -0.000179386)
(1.77201e-05 0.000811874 -0.00016849)
(2.18466e-05 0.000819448 -0.00015493)
(2.48683e-05 0.000826733 -0.000139378)
(2.66802e-05 0.000832794 -0.000122867)
(2.72241e-05 0.000836401 -0.000106571)
(2.65387e-05 0.000836263 -9.14133e-05)
(2.47123e-05 0.000830721 -7.78635e-05)
(2.1918e-05 0.000817914 -6.61538e-05)
(1.83438e-05 0.000795468 -5.64885e-05)
(1.42225e-05 0.000760573 -4.91339e-05)
(9.79713e-06 0.000709542 -4.45213e-05)
(5.48683e-06 0.000637778 -4.34071e-05)
(2.43349e-06 0.000539126 -4.49071e-05)
(2.38146e-07 0.00031919 -4.20996e-05)
(2.16456e-08 0.000343822 -5.41153e-05)
(-2.58474e-06 0.000576362 -6.42553e-05)
(-5.91382e-06 0.000680672 -6.55386e-05)
(-1.08491e-05 0.000756137 -6.86184e-05)
(-1.6045e-05 0.000809249 -7.47612e-05)
(-2.10254e-05 0.000845062 -8.34117e-05)
(-2.54882e-05 0.00086746 -9.42717e-05)
(-2.91885e-05 0.00087961 -0.000107232)
(-3.18794e-05 0.000883992 -0.000122211)
(-3.33694e-05 0.00088275 -0.000138993)
(-3.35311e-05 0.000877598 -0.000156928)
(-3.2337e-05 0.000870098 -0.000174863)
(-2.98253e-05 0.000861517 -0.000191453)
(-2.61185e-05 0.000853034 -0.000205653)
(-2.1394e-05 0.000845543 -0.000216874)
(-1.58791e-05 0.00083984 -0.000224926)
(-9.81857e-06 0.000836406 -0.000229766)
(-3.46014e-06 0.000835606 -0.000231392)
(2.93862e-06 0.000837493 -0.000229782)
(9.12148e-06 0.000842 -0.000224946)
(1.48332e-05 0.000848751 -0.00021687)
(1.98268e-05 0.000857246 -0.000205583)
(2.38699e-05 0.00086668 -0.000191264)
(2.67788e-05 0.000876139 -0.000174499)
(2.84236e-05 0.00088443 -0.000156347)
(2.87589e-05 0.000890267 -0.000138177)
(2.78055e-05 0.000892072 -0.000121174)
(2.56805e-05 0.000888107 -0.000106012)
(2.25614e-05 0.000876216 -9.28929e-05)
(1.86908e-05 0.000853886 -8.18811e-05)
(1.42957e-05 0.000817934 -7.30611e-05)
(9.66163e-06 0.000764443 -6.66698e-05)
(5.23259e-06 0.000688327 -6.31519e-05)
(2.2401e-06 0.000583052 -6.13045e-05)
(-1.12929e-07 0.000347646 -5.12019e-05)
(3.79415e-08 0.00037908 -5.35448e-05)
(-2.65875e-06 0.000629684 -6.55596e-05)
(-5.84676e-06 0.000741907 -6.8043e-05)
(-1.06503e-05 0.000822648 -7.20116e-05)
(-1.57193e-05 0.000878973 -7.87774e-05)
(-2.05642e-05 0.000916315 -8.79253e-05)
(-2.4903e-05 0.00093897 -9.9276e-05)
(-2.84827e-05 0.000950339 -0.000112802)
(-3.10542e-05 0.000953228 -0.000128538)
(-3.24136e-05 0.00094994 -0.000146245)
(-3.24488e-05 0.000942463 -0.000165094)
(-3.11291e-05 0.000932482 -0.000183692)
(-2.85097e-05 0.000921503 -0.000200616)
(-2.47187e-05 0.000910782 -0.000214845)
(-1.99483e-05 0.000901407 -0.000225944)
(-1.44201e-05 0.0008942 -0.00023383)
(-8.37406e-06 0.000889777 -0.00023856)
(-2.05801e-06 0.000888476 -0.000240147)
(4.28243e-06 0.000890432 -0.000238605)
(1.0402e-05 0.000895504 -0.000233913)
(1.60519e-05 0.000903344 -0.000226046)
(2.09886e-05 0.000913328 -0.000214936)
(2.49884e-05 0.000924625 -0.000200655)
(2.78518e-05 0.00093614 -0.000183637)
(2.94493e-05 0.000946604 -0.000164911)
(2.97167e-05 0.000954503 -0.000145914)
(2.86827e-05 0.000958138 -0.000128062)
(2.64496e-05 0.000955511 -0.000112197)
(2.32142e-05 0.000944306 -9.85575e-05)
(1.92228e-05 0.000921705 -8.70967e-05)
(1.47189e-05 0.000884289 -7.78233e-05)
(9.97545e-06 0.000827751 -7.08798e-05)
(5.46416e-06 0.000746633 -6.66106e-05)
(2.46718e-06 0.000633853 -6.37461e-05)
(-8.82972e-08 0.000381233 -5.16927e-05)
(-2.43615e-07 0.000414498 -4.68522e-05)
(-3.10829e-06 0.000682111 -5.62251e-05)
(-6.31152e-06 0.000801781 -5.77735e-05)
(-1.11188e-05 0.000887524 -6.11468e-05)
(-1.61305e-05 0.000946866 -6.74668e-05)
(-2.08864e-05 0.000985671 -7.62985e-05)
(-2.51133e-05 0.00100853 -8.74372e-05)
(-2.85722e-05 0.00101917 -0.000100905)
(-3.10007e-05 0.0010206 -0.00011674)
(-3.22112e-05 0.00101537 -0.000134642)
(-3.20994e-05 0.00100566 -0.000153612)
(-3.06442e-05 0.000993341 -0.000172134)
(-2.79038e-05 0.000980068 -0.000188754)
(-2.40237e-05 0.000967268 -0.000202557)
(-1.91905e-05 0.000956114 -0.000213217)
(-1.36296e-05 0.00094755 -0.000220759)
(-7.57612e-06 0.000942225 -0.000225264)
(-1.2657e-06 0.00094055 -0.000226783)
(5.05988e-06 0.000942641 -0.000225322)
(1.11598e-05 0.000948377 -0.000220868)
(1.67942e-05 0.000957345 -0.000213368)
(2.17289e-05 0.000968888 -0.000202729)
(2.57386e-05 0.00098206 -0.000188921)
(2.86285e-05 0.000995679 -0.000172269)
(3.02534e-05 0.00100831 -0.000153692)
(3.0553e-05 0.0010183 -0.00013465)
(2.95395e-05 0.00102376 -0.000116673)
(2.73196e-05 0.00102251 -0.000100767)
(2.40747e-05 0.00101199 -8.72324e-05)
(2.00599e-05 0.00098918 -7.60247e-05)
(1.55123e-05 0.000950346 -6.71086e-05)
(1.06992e-05 0.000890885 -6.06608e-05)
(6.07013e-06 0.000804923 -5.70697e-05)
(2.98944e-06 0.000684921 -5.52365e-05)
(2.10777e-07 0.000415732 -4.57465e-05)
(-7.13447e-07 0.000447285 -3.64637e-05)
(-3.78086e-06 0.000729472 -4.00925e-05)
(-7.126e-06 0.000855488 -3.92273e-05)
(-1.20428e-05 0.000945404 -4.09643e-05)
(-1.70787e-05 0.00100716 -4.61204e-05)
(-2.17942e-05 0.00104696 -5.40701e-05)
(-2.59486e-05 0.00106969 -6.45355e-05)
(-2.92973e-05 0.00107931 -7.74986e-05)
(-3.15969e-05 0.00107908 -9.29731e-05)
(-3.26673e-05 0.00107174 -0.000110546)
(-3.24096e-05 0.00105965 -0.000129122)
(-3.081e-05 0.00104489 -0.000147116)
(-2.79399e-05 0.00102925 -0.000163116)
(-2.39424e-05 0.00101431 -0.000176287)
(-1.90114e-05 0.00100135 -0.000186408)
(-1.33662e-05 0.000991409 -0.000193543)
(-7.23853e-06 0.000985207 -0.000197807)
(-8.6357e-07 0.000983185 -0.00019924)
(5.52189e-06 0.000985481 -0.000197866)
(1.16786e-05 0.000991955 -0.000193659)
(1.73728e-05 0.00100216 -0.000186574)
(2.23711e-05 0.00101538 -0.000176491)
(2.64531e-05 0.00103058 -0.000163342)
(2.94241e-05 0.00104645 -0.000147348)
(3.11374e-05 0.00106143 -0.000129343)
(3.15188e-05 0.00107371 -0.000110746)
(3.05833e-05 0.00108121 -9.31452e-05)
(2.84251e-05 0.00108158 -7.76418e-05)
(2.52197e-05 0.00107205 -6.46476e-05)
(2.12119e-05 0.00104937 -5.41427e-05)
(1.66416e-05 0.00100956 -4.61349e-05)
(1.17444e-05 0.000947743 -4.08819e-05)
(6.95145e-06 0.000857701 -3.89723e-05)
(3.69458e-06 0.000731486 -3.96022e-05)
(6.86812e-07 0.00044797 -3.58113e-05)
(-1.25775e-06 0.000475705 -2.48592e-05)
(-4.53002e-06 0.000769269 -2.13739e-05)
(-8.08388e-06 0.000900154 -1.7408e-05)
(-1.31718e-05 0.000993126 -1.70352e-05)
(-1.82805e-05 0.00105644 -2.06946e-05)
(-2.29983e-05 0.00109656 -2.75155e-05)
(-2.71079e-05 0.00111862 -3.70767e-05)
(-3.03786e-05 0.00112678 -4.93029e-05)
(-3.25741e-05 0.0011245 -6.41434e-05)
(-3.35218e-05 0.00111472 -8.10993e-05)
(-3.31359e-05 0.00109998 -9.90029e-05)
(-3.14013e-05 0.00108252 -0.000116269)
(-2.83921e-05 0.00106431 -0.000131534)
(-2.42577e-05 0.00104704 -0.000144046)
(-1.91932e-05 0.00103214 -0.000153636)
(-1.34148e-05 0.00102073 -0.000160395)
(-7.15298e-06 0.0010136 -0.000164431)
(-6.45341e-07 0.00101123 -0.000165789)
(5.87084e-06 0.00101378 -0.000164486)
(1.21543e-05 0.0010211 -0.000160504)
(1.79672e-05 0.00103269 -0.000153795)
(2.30799e-05 0.00104777 -0.000144248)
(2.72758e-05 0.00106521 -0.000131769)
(3.03547e-05 0.00108359 -0.000116529)
(3.21719e-05 0.0011012 -9.92753e-05)
(3.26509e-05 0.00111608 -8.13767e-05)
(3.1799e-05 0.00112598 -6.442e-05)
(2.97099e-05 0.00112835 -4.9574e-05)
(2.65486e-05 0.00112027 -3.73365e-05)
(2.2547e-05 0.00109825 -2.77528e-05)
(1.79387e-05 0.00105814 -2.08911e-05)
(1.29374e-05 0.000994805 -1.71551e-05)
(7.94613e-06 0.000901767 -1.73864e-05)
(4.46172e-06 0.000770772 -2.11519e-05)
(1.2322e-06 0.000476041 -2.44718e-05)
(-1.74458e-06 0.000499273 -1.4398e-05)
(-5.18116e-06 0.000801069 -4.12361e-06)
(-8.95646e-06 0.000935357 2.85191e-06)
(-1.42247e-05 0.00103026 5.2769e-06)
(-1.94311e-05 0.00109425 3.06557e-06)
(-2.41861e-05 0.00113399 -2.66049e-06)
(-2.82932e-05 0.00115479 -1.13338e-05)
(-3.15261e-05 0.00116099 -2.28053e-05)
(-3.36562e-05 0.00115622 -3.69507e-05)
(-3.45237e-05 0.0011436 -5.32075e-05)
(-3.40387e-05 0.00112583 -7.03687e-05)
(-3.21914e-05 0.00110532 -8.68797e-05)
(-2.90572e-05 0.00108421 -0.000101434)
(-2.47817e-05 0.00106434 -0.000113341)
(-1.95627e-05 0.00104726 -0.000122449)
(-1.36217e-05 0.0010342 -0.000128886)
(-7.18717e-06 0.00102604 -0.000132735)
(-5.01795e-07 0.0010233 -0.000134031)
(6.18808e-06 0.00102616 -0.000132783)