/*--------------------------------*- C++ -*----------------------------------*\
| =========                 |                                                 |
| \\      /  F ield         | OpenFOAM: The Open Source CFD Toolbox           |
|  \\    /   O peration     | Version:  v1906                                 |
|   \\  /    A nd           | Web:      www.OpenFOAM.com                      |
|    \\/     M anipulation  |                                                 |
\*---------------------------------------------------------------------------*/
FoamFile
{
    version     2.0;
    format      ascii;
    class       volScalarField;
    location    "0.68/oil";
    object      alphat;
}
// * * * * * * * * * * * * * * * * * * * * * * * * * * * * * * * * * * * * * //

dimensions      [1 -1 -1 0 0 0 0];


internalField   nonuniform List<scalar> 
168664
(
0.0025915
0.000283079
0.000290428
8.0235e-05
6.98876e-05
3.40765e-05
2.34115e-05
1.78708e-05
1.19668e-05
1.28596e-05
1.15041e-05
1.37782e-05
1.27434e-05
1.31568e-05
1.18292e-05
1.18386e-05
1.07776e-05
9.9544e-06
8.94885e-06
8.08117e-06
7.47447e-06
7.56167e-06
7.3468e-06
6.79607e-06
5.82986e-06
4.64359e-06
3.48279e-06
2.5688e-06
1.79879e-06
5.55866e-07
0.000282192
0.000332241
7.38054e-05
6.40647e-05
2.77167e-05
2.11279e-05
1.40799e-05
1.18866e-05
9.57724e-06
1.00437e-05
1.0211e-05
1.14088e-05
1.10328e-05
1.14091e-05
1.06733e-05
1.0731e-05
9.87627e-06
9.29667e-06
8.43088e-06
7.88802e-06
7.48061e-06
7.49244e-06
7.21569e-06
6.70413e-06
6.12417e-06
5.32711e-06
4.57885e-06
3.64922e-06
3.69208e-06
2.19708e-06
0.000287817
7.38263e-05
6.77596e-05
4.36006e-05
3.29612e-05
2.36786e-05
1.79766e-05
1.40943e-05
1.20237e-05
1.11408e-05
1.10787e-05
1.12152e-05
1.06686e-05
1.10078e-05
1.03535e-05
1.03238e-05
9.5451e-06
9.05653e-06
8.24549e-06
7.82773e-06
7.63417e-06
7.71138e-06
7.57404e-06
7.19716e-06
6.69318e-06
6.06785e-06
5.51054e-06
5.09416e-06
5.93082e-06
4.80844e-06
8.4058e-05
6.62193e-05
4.58741e-05
3.46564e-05
2.46727e-05
1.89354e-05
1.59071e-05
1.30839e-05
1.22899e-05
1.12329e-05
1.12101e-05
1.07968e-05
1.06737e-05
1.09773e-05
1.04188e-05
1.01953e-05
9.48967e-06
9.01359e-06
8.34378e-06
7.99701e-06
7.7762e-06
7.85957e-06
7.94261e-06
7.72843e-06
7.19233e-06
6.55831e-06
6.13378e-06
6.40717e-06
7.49835e-06
6.85666e-06
7.18578e-05
3.15902e-05
3.48526e-05
2.49649e-05
2.34348e-05
1.92523e-05
1.72686e-05
1.50095e-05
1.3897e-05
1.27871e-05
1.22165e-05
1.15006e-05
1.12144e-05
1.13363e-05
1.06431e-05
1.02045e-05
9.48606e-06
9.06057e-06
8.64523e-06
8.65724e-06
8.41332e-06
8.49109e-06
8.53425e-06
8.45937e-06
8.02509e-06
7.55814e-06
7.32611e-06
7.91792e-06
9.1626e-06
9.06776e-06
4.47981e-05
2.99775e-05
3.06747e-05
2.30015e-05
2.20596e-05
1.72492e-05
1.65708e-05
1.3949e-05
1.36622e-05
1.24904e-05
1.23258e-05
1.13843e-05
1.10545e-05
1.12326e-05
1.07024e-05
9.98266e-06
9.32139e-06
8.79214e-06
8.73257e-06
8.98121e-06
8.77261e-06
8.69563e-06
8.63886e-06
8.62261e-06
8.32042e-06
8.2138e-06
8.23505e-06
9.0762e-06
1.03481e-05
1.07191e-05
3.33717e-05
2.33382e-05
2.39791e-05
1.95702e-05
1.95102e-05
1.666e-05
1.6096e-05
1.43009e-05
1.37574e-05
1.29167e-05
1.26106e-05
1.18431e-05
1.15544e-05
1.2031e-05
1.13601e-05
1.03001e-05
9.38371e-06
8.76648e-06
8.67509e-06
8.95597e-06
8.74584e-06
8.77268e-06
8.79501e-06
8.96308e-06
8.95119e-06
9.22029e-06
9.57347e-06
1.05725e-05
1.18668e-05
1.27336e-05
3.28783e-05
2.46404e-05
2.46193e-05
2.02618e-05
1.99472e-05
1.64678e-05
1.60416e-05
1.36243e-05
1.32513e-05
1.20641e-05
1.21414e-05
1.16297e-05
1.20204e-05
1.27338e-05
1.22327e-05
1.08264e-05
9.93705e-06
9.06725e-06
8.82518e-06
8.68544e-06
8.41522e-06
8.45786e-06
8.61486e-06
9.02098e-06
9.39955e-06
1.00783e-05
1.07169e-05
1.17915e-05
1.30144e-05
1.42366e-05
2.69651e-05
2.16105e-05
2.11907e-05
1.86298e-05
1.80792e-05
1.57224e-05
1.50297e-05
1.31436e-05
1.25265e-05
1.15677e-05
1.17774e-05
1.20537e-05
1.27566e-05
1.34843e-05
1.28569e-05
1.14466e-05
1.02886e-05
9.26915e-06
8.78176e-06
8.47556e-06
8.15646e-06
8.4507e-06
8.81371e-06
9.56506e-06
1.02895e-05
1.12269e-05
1.21147e-05
1.31835e-05
1.42399e-05
1.57763e-05
2.86909e-05
2.30492e-05
2.26151e-05
1.99763e-05
1.91116e-05
1.62886e-05
1.53269e-05
1.29839e-05
1.21988e-05
1.09624e-05
1.14435e-05
1.18908e-05
1.26135e-05
1.27334e-05
1.23612e-05
1.13286e-05
1.01514e-05
9.11743e-06
8.67616e-06
8.26748e-06
8.01997e-06
8.45638e-06
9.01084e-06
9.9132e-06
1.07069e-05
1.18456e-05
1.29524e-05
1.39711e-05
1.49255e-05
1.66858e-05
2.60323e-05
2.15041e-05
2.08191e-05
1.89796e-05
1.79888e-05
1.59637e-05
1.49659e-05
1.29514e-05
1.20476e-05
1.11009e-05
1.15479e-05
1.1928e-05
1.17476e-05
1.10001e-05
1.03183e-05
9.70698e-06
8.85847e-06
8.36413e-06
8.19666e-06
8.21627e-06
8.27389e-06
9.05136e-06
9.80032e-06
1.08852e-05
1.17131e-05
1.29809e-05
1.41453e-05
1.4993e-05
1.58329e-05
1.77704e-05
2.77039e-05
2.27582e-05
2.19519e-05
2.00973e-05
1.92838e-05
1.74518e-05
1.65505e-05
1.42272e-05
1.28798e-05
1.12461e-05
1.09499e-05
1.04718e-05
9.44698e-06
8.0841e-06
7.38836e-06
6.86708e-06
6.45402e-06
6.81735e-06
7.2815e-06
7.86047e-06
8.47733e-06
9.63974e-06
1.06224e-05
1.1978e-05
1.29008e-05
1.41271e-05
1.50672e-05
1.57004e-05
1.64403e-05
1.85264e-05
2.58415e-05
2.18357e-05
2.12184e-05
2.00932e-05
1.93896e-05
1.80112e-05
1.71474e-05
1.49949e-05
1.34243e-05
1.10638e-05
9.77621e-06
8.39672e-06
6.78883e-06
5.72994e-06
4.84583e-06
4.37324e-06
4.21442e-06
4.85258e-06
5.78357e-06
7.0023e-06
8.33099e-06
1.03582e-05
1.16612e-05
1.30786e-05
1.40019e-05
1.51625e-05
1.59302e-05
1.65566e-05
1.73795e-05
1.9848e-05
2.58135e-05
2.17565e-05
2.12925e-05
2.03745e-05
1.97243e-05
1.83027e-05
1.74825e-05
1.56633e-05
1.43086e-05
1.1153e-05
8.62922e-06
5.92172e-06
4.02452e-06
2.68972e-06
2.19614e-06
1.78204e-06
2.1129e-06
3.42494e-06
4.40035e-06
6.34729e-06
8.23947e-06
1.09141e-05
1.24795e-05
1.39232e-05
1.46684e-05
1.57768e-05
1.65397e-05
1.72689e-05
1.81838e-05
2.10696e-05
2.4478e-05
2.07997e-05
2.0279e-05
1.95149e-05
1.89105e-05
1.77411e-05
1.69378e-05
1.54491e-05
1.43389e-05
1.1486e-05
8.93458e-06
6.49292e-06
4.87144e-06
3.1604e-06
1.88665e-06
1.81927e-06
2.92024e-06
4.25132e-06
5.08925e-06
6.93303e-06
8.72284e-06
1.14596e-05
1.32353e-05
1.48025e-05
1.55659e-05
1.66277e-05
1.7404e-05
1.81641e-05
1.90364e-05
2.22281e-05
2.45862e-05
2.07818e-05
2.01817e-05
1.93996e-05
1.88411e-05
1.77025e-05
1.68828e-05
1.52227e-05
1.38354e-05
1.12007e-05
9.0493e-06
6.88526e-06
5.4449e-06
3.45524e-06
1.46148e-06
1.89135e-06
3.25582e-06
4.84541e-06
5.55937e-06
7.37161e-06
9.01707e-06
1.17437e-05
1.3317e-05
1.48898e-05
1.56009e-05
1.67144e-05
1.747e-05
1.82729e-05
1.89947e-05
2.20772e-05
2.28007e-05
1.95289e-05
1.88827e-05
1.82161e-05
1.76621e-05
1.66376e-05
1.58931e-05
1.44959e-05
1.29773e-05
1.0272e-05
7.69108e-06
5.49887e-06
4.2193e-06
2.6751e-06
1.64875e-06
2.02462e-06
3.10701e-06
5.11876e-06
6.16502e-06
7.9921e-06
9.68291e-06
1.21744e-05
1.35463e-05
1.48911e-05
1.56403e-05
1.6806e-05
1.76353e-05
1.83605e-05
1.89634e-05
2.19084e-05
2.19746e-05
1.89659e-05
1.82899e-05
1.75821e-05
1.69631e-05
1.58068e-05
1.49625e-05
1.34879e-05
1.22027e-05
9.89035e-06
8.0101e-06
6.46594e-06
5.17849e-06
4.36996e-06
4.1225e-06
3.98767e-06
4.08247e-06
6.03816e-06
7.63259e-06
9.39097e-06
1.01445e-05
1.20924e-05
1.31079e-05
1.45786e-05
1.54367e-05
1.66421e-05
1.751e-05
1.84128e-05
1.91739e-05
2.21577e-05
2.05741e-05
1.80519e-05
1.73011e-05
1.65264e-05
1.57647e-05
1.46123e-05
1.36802e-05
1.22775e-05
1.1171e-05
9.84313e-06
9.01891e-06
8.14725e-06
7.09519e-06
6.39547e-06
6.3939e-06
6.1016e-06
6.0328e-06
7.30821e-06
8.64787e-06
9.74889e-06
1.00095e-05
1.09997e-05
1.17976e-05
1.32601e-05
1.41411e-05
1.51618e-05
1.60584e-05
1.73278e-05
1.85116e-05
2.15863e-05
1.96056e-05
1.71434e-05
1.62686e-05
1.52564e-05
1.43265e-05
1.3117e-05
1.23126e-05
1.1154e-05
1.03609e-05
9.45956e-06
9.29394e-06
8.9919e-06
8.58374e-06
8.51654e-06
8.80557e-06
8.64196e-06
8.62246e-06
9.14712e-06
9.29757e-06
9.50165e-06
9.26559e-06
9.94119e-06
1.05139e-05
1.17967e-05
1.25898e-05
1.36455e-05
1.45827e-05
1.59373e-05
1.71637e-05
1.9982e-05
1.79465e-05
1.58045e-05
1.50373e-05
1.3963e-05
1.29802e-05
1.19817e-05
1.12684e-05
1.03209e-05
9.62863e-06
9.05947e-06
9.09159e-06
9.02472e-06
9.10738e-06
9.68971e-06
1.06242e-05
1.10026e-05
1.09756e-05
1.04956e-05
9.90135e-06
9.43777e-06
8.88105e-06
9.2615e-06
9.75953e-06
1.09019e-05
1.16246e-05
1.26783e-05
1.3566e-05
1.47762e-05
1.58469e-05
1.79796e-05
1.6792e-05
1.50387e-05
1.43641e-05
1.32473e-05
1.22899e-05
1.14194e-05
1.0826e-05
1.0059e-05
9.5299e-06
9.10913e-06
8.89131e-06
8.47438e-06
8.71015e-06
9.66062e-06
1.08299e-05
1.17132e-05
1.16518e-05
1.04028e-05
9.4356e-06
9.14753e-06
8.79661e-06
9.17473e-06
9.48416e-06
1.03449e-05
1.08203e-05
1.17056e-05
1.24156e-05
1.3576e-05
1.46667e-05
1.63748e-05
1.50929e-05
1.3766e-05
1.28993e-05
1.1836e-05
1.1156e-05
1.05044e-05
1.0108e-05
9.64552e-06
9.37626e-06
9.20589e-06
8.86285e-06
8.14498e-06
8.15073e-06
9.08954e-06
1.02224e-05
1.10907e-05
1.09571e-05
9.74742e-06
9.07489e-06
9.18748e-06
9.05207e-06
9.21578e-06
9.2343e-06
9.71251e-06
9.89989e-06
1.05437e-05
1.11067e-05
1.22294e-05
1.33355e-05
1.45844e-05
1.35521e-05
1.24954e-05
1.14132e-05
1.05326e-05
1.01249e-05
9.76198e-06
9.65346e-06
9.49998e-06
9.42012e-06
9.25948e-06
8.75062e-06
8.00875e-06
7.74376e-06
8.30479e-06
9.18826e-06
9.85236e-06
9.82228e-06
9.15774e-06
8.84255e-06
9.17216e-06
9.17999e-06
9.34036e-06
9.20235e-06
9.4001e-06
9.32428e-06
9.62284e-06
9.91039e-06
1.09677e-05
1.21031e-05
1.30167e-05
1.12858e-05
1.07451e-05
9.67798e-06
9.07333e-06
8.88553e-06
8.75276e-06
8.90537e-06
9.04552e-06
9.21983e-06
9.07432e-06
8.44349e-06
7.84975e-06
7.85975e-06
8.14566e-06
8.65422e-06
8.94481e-06
9.23085e-06
9.0383e-06
8.74019e-06
8.79243e-06
8.9097e-06
9.13944e-06
8.97825e-06
9.03767e-06
8.76204e-06
8.72189e-06
8.63643e-06
9.58495e-06
1.07373e-05
1.1208e-05
9.43914e-06
9.26668e-06
8.15668e-06
7.76959e-06
7.93607e-06
8.14708e-06
8.41102e-06
8.71974e-06
9.02115e-06
9.01692e-06
8.41038e-06
7.9071e-06
8.10479e-06
8.325e-06
8.43696e-06
8.39172e-06
8.85676e-06
8.97596e-06
8.55336e-06
8.36217e-06
8.36097e-06
8.67245e-06
8.61207e-06
8.64341e-06
8.28248e-06
7.87058e-06
7.54582e-06
8.30471e-06
9.50047e-06
9.57107e-06
7.24037e-06
7.56082e-06
6.3623e-06
6.21577e-06
6.7261e-06
7.13065e-06
7.54061e-06
8.00179e-06
8.39417e-06
8.62384e-06
8.23716e-06
8.02393e-06
8.35685e-06
8.46876e-06
8.30785e-06
8.01026e-06
8.47735e-06
8.61802e-06
8.39375e-06
8.08474e-06
7.84015e-06
7.85988e-06
7.72639e-06
7.68349e-06
7.33782e-06
6.89204e-06
6.41773e-06
6.84779e-06
7.92545e-06
7.48987e-06
5.15037e-06
6.04071e-06
4.95535e-06
5.39575e-06
5.92331e-06
6.48606e-06
7.05081e-06
7.61672e-06
8.10899e-06
8.39723e-06
8.20719e-06
8.20271e-06
8.53291e-06
8.51764e-06
8.3391e-06
7.96675e-06
8.14151e-06
8.314e-06
8.28479e-06
8.12201e-06
7.63332e-06
7.44639e-06
7.16578e-06
7.09018e-06
6.84146e-06
6.43735e-06
5.8484e-06
5.42156e-06
6.29738e-06
5.35578e-06
2.65561e-06
4.04442e-06
3.85739e-06
4.66569e-06
5.25176e-06
6.04578e-06
6.72661e-06
7.46678e-06
8.14629e-06
8.62568e-06
8.74853e-06
8.78824e-06
8.99396e-06
9.00752e-06
9.08889e-06
8.732e-06
8.73304e-06
8.7997e-06
8.72156e-06
8.33698e-06
7.59164e-06
7.23315e-06
6.85773e-06
6.68758e-06
6.26451e-06
5.56419e-06
4.80531e-06
3.75577e-06
3.90588e-06
2.54143e-06
1.22365e-06
2.43063e-06
3.39304e-06
4.29725e-06
5.21845e-06
6.15742e-06
6.98133e-06
7.86785e-06
8.73712e-06
9.23894e-06
9.47082e-06
9.61264e-06
9.65984e-06
9.88157e-06
9.81006e-06
9.34508e-06
9.40299e-06
9.54358e-06
9.44051e-06
8.68183e-06
7.66637e-06
7.20272e-06
6.67309e-06
6.3933e-06
5.63635e-06
4.6111e-06
3.43741e-06
2.38337e-06
1.68777e-06
6.44644e-07
0.000281714
0.000340096
7.58859e-05
6.60259e-05
2.78984e-05
2.14862e-05
1.38833e-05
1.21888e-05
8.99663e-06
1.00103e-05
9.19657e-06
1.10447e-05
1.02645e-05
1.14605e-05
1.07197e-05
1.09763e-05
1.01722e-05
9.24936e-06
8.81077e-06
7.8221e-06
7.46831e-06
6.89644e-06
6.95549e-06
6.40246e-06
6.09438e-06
5.10814e-06
4.36302e-06
3.29801e-06
2.81617e-06
1.78653e-06
0.000337478
6.63405e-05
5.45728e-05
2.55285e-05
1.30562e-05
9.97037e-06
6.96216e-06
5.22109e-06
4.58201e-06
4.47708e-06
4.90389e-06
4.3039e-06
3.61559e-06
3.60737e-06
3.81592e-06
3.92681e-06
3.70529e-06
3.64205e-06
3.29211e-06
3.11609e-06
2.95622e-06
3.54937e-06
4.02159e-06
4.47509e-06
4.33925e-06
3.95552e-06
3.41826e-06
3.031e-06
4.19076e-06
3.73035e-06
7.36554e-05
5.55427e-05
2.80879e-05
2.55008e-05
1.37629e-05
1.21894e-05
8.65928e-06
6.61931e-06
5.60528e-06
5.68423e-06
6.39706e-06
6.3569e-06
4.8637e-06
3.7477e-06
3.43297e-06
3.27705e-06
2.69857e-06
2.23767e-06
2.168e-06
2.79414e-06
3.16168e-06
4.34199e-06
5.11698e-06
5.30824e-06
5.24988e-06
5.05204e-06
4.19927e-06
3.96456e-06
4.73267e-06
5.99134e-06
6.63204e-05
2.31735e-05
2.34604e-05
1.47977e-05
8.25675e-06
7.92879e-06
5.05532e-06
5.19952e-06
4.90688e-06
5.31037e-06
5.81231e-06
6.10541e-06
4.58805e-06
3.39404e-06
2.93306e-06
2.83678e-06
2.80878e-06
2.18315e-06
2.48453e-06
3.61207e-06
4.39548e-06
5.06074e-06
4.80043e-06
4.75206e-06
5.10649e-06
5.22039e-06
4.56988e-06
4.56345e-06
4.46723e-06
7.56686e-06
3.12578e-05
1.11826e-05
1.11502e-05
8.81493e-06
5.60642e-06
6.02872e-06
4.17853e-06
4.28386e-06
3.83308e-06
3.7798e-06
3.7713e-06
4.15015e-06
2.88452e-06
2.6178e-06
2.53908e-06
2.60223e-06
2.7475e-06
2.11854e-06
2.68877e-06
3.92395e-06
4.35563e-06
3.72812e-06
2.72158e-06
2.81965e-06
3.42362e-06
4.05454e-06
4.31063e-06
4.69826e-06
4.19468e-06
9.28255e-06
2.95484e-05
6.96153e-06
9.92378e-06
7.96675e-06
5.42272e-06
5.26168e-06
3.06638e-06
3.18491e-06
2.23913e-06
2.44328e-06
2.67106e-06
3.16386e-06
2.57986e-06
2.57297e-06
2.6671e-06
2.79474e-06
2.96078e-06
2.63447e-06
3.26785e-06
3.68428e-06
3.29671e-06
2.23065e-06
1.39774e-06
1.67365e-06
2.12919e-06
3.08565e-06
3.90884e-06
4.55382e-06
3.92461e-06
1.0463e-05
2.33442e-05
4.41535e-06
6.45252e-06
4.82719e-06
3.9535e-06
3.82007e-06
2.75743e-06
2.78275e-06
2.04834e-06
2.20778e-06
2.41459e-06
3.02269e-06
2.58742e-06
2.73465e-06
3.02235e-06
2.96285e-06
3.11078e-06
3.194e-06
3.71988e-06
3.13853e-06
2.3731e-06
1.70678e-06
1.35759e-06
1.4778e-06
1.87331e-06
3.0298e-06
3.90461e-06
4.44485e-06
3.91983e-06
1.19419e-05
2.45766e-05
2.37741e-06
5.4351e-06
5.34218e-06
4.52973e-06
4.29604e-06
3.29235e-06
3.17489e-06
2.38993e-06
2.39605e-06
2.47789e-06
2.77573e-06
2.25248e-06
2.40216e-06
2.93325e-06
2.73319e-06
2.76353e-06
3.23496e-06
3.50377e-06
2.71956e-06
1.88529e-06
1.63433e-06
1.40275e-06
1.60586e-06
2.14287e-06
3.25495e-06
3.90509e-06
4.30037e-06
3.86605e-06
1.30439e-05
2.1661e-05
2.73699e-06
3.85739e-06
3.82858e-06
3.80744e-06
3.63659e-06
3.13727e-06
3.06225e-06
2.72611e-06
2.72433e-06
2.63877e-06
2.12835e-06
1.13613e-06
2.57408e-06
3.50419e-06
3.01188e-06
2.12297e-06
2.40219e-06
2.89282e-06
2.57366e-06
2.0292e-06
1.94285e-06
1.77519e-06
2.10369e-06
2.6039e-06
3.39993e-06
3.71482e-06
3.86415e-06
3.64252e-06
1.43078e-05
2.29145e-05
2.12397e-06
3.03853e-06
3.41282e-06
3.65336e-06
3.80159e-06
3.4718e-06
3.44162e-06
3.29833e-06
3.1611e-06
2.90068e-06
1.75943e-06
1.68489e-06
3.79106e-06
4.6788e-06
3.93208e-06
2.51998e-06
1.12049e-06
1.97612e-06
2.50528e-06
2.20023e-06
2.27906e-06
2.17536e-06
2.5097e-06
2.70533e-06
3.12348e-06
3.13461e-06
3.05796e-06
3.16416e-06
1.51238e-05
2.15569e-05
2.56982e-06
2.34819e-06
2.347e-06
2.46018e-06
2.92643e-06
3.10885e-06
3.42325e-06
3.58232e-06
3.39608e-06
3.06527e-06
2.30067e-06
3.4277e-06
5.18713e-06
5.90584e-06
5.54747e-06
4.53782e-06
2.02449e-06
1.48882e-06
2.47391e-06
2.65822e-06
2.93028e-06
2.86663e-06
3.07211e-06
3.062e-06
3.11633e-06
2.84881e-06
2.62345e-06
2.83945e-06
1.59084e-05
2.2768e-05
2.61582e-06
1.99815e-06
2.00298e-06
2.088e-06
2.69067e-06
3.07039e-06
3.59595e-06
4.15155e-06
4.10996e-06
3.35278e-06
3.19421e-06
4.13746e-06
4.68124e-06
4.96287e-06
4.9049e-06
4.17641e-06
2.79511e-06
1.81934e-06
2.46211e-06
3.1149e-06
3.44645e-06
3.30977e-06
3.27363e-06
3.14436e-06
3.06131e-06
2.64143e-06
2.53225e-06
2.61923e-06
1.64196e-05
2.16109e-05
2.7196e-06
1.87812e-06
1.75865e-06
1.68102e-06
2.01294e-06
2.25971e-06
2.93515e-06
3.766e-06
3.74957e-06
2.87377e-06
4.16655e-06
4.59507e-06
4.53426e-06
4.38868e-06
4.14069e-06
3.78422e-06
3.0833e-06
2.58527e-06
1.98907e-06
3.06031e-06
3.45376e-06
3.13783e-06
2.81858e-06
2.58706e-06
2.53436e-06
2.29116e-06
2.43922e-06
2.70018e-06
1.74575e-05
2.16847e-05
2.42286e-06
1.84944e-06
1.83887e-06
1.86003e-06
1.83261e-06
1.94697e-06
2.61307e-06
3.48341e-06
3.5834e-06
3.63e-06
4.13584e-06
3.84595e-06
3.6096e-06
3.11077e-06
2.761e-06
2.10076e-06
2.12272e-06
2.0743e-06
1.98128e-06
2.47036e-06
3.10093e-06
2.77892e-06
2.31187e-06
2.07814e-06
2.11443e-06
2.04495e-06
2.26399e-06
2.73648e-06
1.83222e-05
2.07437e-05
2.68227e-06
2.02994e-06
1.95485e-06
1.94216e-06
2.00028e-06
2.10928e-06
2.65913e-06
3.22329e-06
3.77794e-06
3.88493e-06
3.52193e-06
2.93049e-06
2.46794e-06
2.67035e-06
2.38171e-06
1.93049e-06
2.17782e-06
2.25642e-06
2.77725e-06
3.21899e-06
3.30931e-06
2.70369e-06
2.05363e-06
1.89229e-06
1.92537e-06
1.92356e-06
2.10782e-06
2.77546e-06
1.91043e-05
2.08276e-05
2.89828e-06
2.24086e-06
2.0967e-06
2.1728e-06
2.33753e-06
2.50419e-06
2.91733e-06
3.48261e-06
3.80554e-06
3.26247e-06
2.31516e-06
1.94307e-06
1.95008e-06
2.56295e-06
2.62279e-06
2.24862e-06
2.45279e-06
2.73371e-06
3.33545e-06
3.50492e-06
3.33952e-06
2.52775e-06
1.70966e-06
1.50024e-06
1.63546e-06
1.70404e-06
1.81879e-06
2.39038e-06
1.89586e-05
1.96871e-05
2.9835e-06
2.53757e-06
2.35511e-06
2.46728e-06
2.60222e-06
2.74124e-06
3.17675e-06
3.66135e-06
3.37245e-06
2.84338e-06
2.597e-06
2.40759e-06
2.47229e-06
3.07798e-06
3.05533e-06
2.77658e-06
2.92056e-06
2.95787e-06
2.78177e-06
2.90925e-06
3.59452e-06
2.79018e-06
1.85815e-06
1.62391e-06
1.8512e-06
2.06591e-06
2.04159e-06
2.39705e-06
1.89148e-05
1.91141e-05
2.93484e-06
2.79178e-06
2.55471e-06
2.75228e-06
2.86285e-06
3.10829e-06
3.3708e-06
3.74873e-06
3.33477e-06
2.67808e-06
2.67184e-06
2.93416e-06
3.27238e-06
3.79683e-06
3.82249e-06
3.96421e-06
3.72153e-06
2.86798e-06
1.73552e-06
3.36897e-06
4.29911e-06
3.42441e-06
2.80475e-06
2.45748e-06
2.4598e-06
2.68098e-06
2.6499e-06
2.85814e-06
1.89391e-05
1.79716e-05
3.23282e-06
3.26956e-06
3.21784e-06
3.55582e-06
3.59348e-06
3.67513e-06
3.64338e-06
3.85301e-06
3.58525e-06
3.3446e-06
2.29738e-06
2.51182e-06
3.37841e-06
4.2347e-06
4.21602e-06
4.09351e-06
3.37948e-06
1.91632e-06
2.02538e-06
3.68877e-06
4.50271e-06
3.84859e-06
3.441e-06
3.07626e-06
3.08053e-06
3.27843e-06
3.33747e-06
3.41457e-06
1.84855e-05
1.72151e-05
3.34619e-06
3.22825e-06
3.45652e-06
3.77627e-06
3.39129e-06
3.21841e-06
2.93629e-06
3.20026e-06
2.93986e-06
3.08041e-06
1.68772e-06
1.33296e-06
3.21576e-06
4.57628e-06
4.8064e-06
4.52881e-06
2.6953e-06
1.11102e-06
2.44173e-06
3.11175e-06
3.74241e-06
3.27126e-06
3.19425e-06
3.01625e-06
3.32465e-06
3.39335e-06
3.26695e-06
3.40987e-06
1.73797e-05
1.61124e-05
3.69183e-06
3.38828e-06
3.83672e-06
4.07115e-06
3.19537e-06
2.77926e-06
2.39177e-06
2.64656e-06
2.52225e-06
2.94199e-06
2.19137e-06
1.12531e-06
1.25152e-06
3.01214e-06
3.83854e-06
3.53913e-06
1.15058e-06
1.61679e-06
2.95228e-06
2.87125e-06
3.13289e-06
2.7342e-06
2.95979e-06
3.14266e-06
3.86431e-06
3.82162e-06
3.61329e-06
3.47609e-06
1.58004e-05
1.50951e-05
3.82412e-06
3.94987e-06
4.32466e-06
4.07935e-06
2.96574e-06
2.49995e-06
1.92056e-06
2.12844e-06
2.12389e-06
2.80613e-06
2.90272e-06
2.46267e-06
1.58616e-06
2.10965e-06
2.57259e-06
2.08157e-06
1.71422e-06
2.34893e-06
2.80947e-06
2.29027e-06
2.44205e-06
2.08325e-06
2.48033e-06
2.78336e-06
3.82404e-06
4.10805e-06
4.07994e-06
3.51428e-06
1.45366e-05
1.37843e-05
3.87322e-06
4.55973e-06
4.43495e-06
3.75136e-06
2.61732e-06
2.19963e-06
1.5463e-06
1.84616e-06
1.93175e-06
2.74454e-06
3.20306e-06
3.04114e-06
2.93367e-06
3.05175e-06
3.06907e-06
2.05019e-06
2.65622e-06
3.23467e-06
3.04618e-06
2.03213e-06
2.0052e-06
1.65321e-06
2.09412e-06
2.29833e-06
3.54145e-06
4.19699e-06
4.40746e-06
3.71179e-06
1.32796e-05
1.26657e-05
3.87243e-06
4.61322e-06
3.83923e-06
3.13526e-06
2.20224e-06
1.97503e-06
1.32177e-06
1.67317e-06
1.94042e-06
2.89097e-06
3.04303e-06
2.87424e-06
3.512e-06
3.61159e-06
3.1804e-06
2.32974e-06
3.29865e-06
3.8719e-06
3.88007e-06
2.62547e-06
1.89646e-06
1.37117e-06
1.7829e-06
1.88117e-06
3.10079e-06
4.04406e-06
4.55893e-06
3.77606e-06
1.2121e-05
1.0936e-05
3.96722e-06
4.53901e-06
3.38184e-06
2.69006e-06
1.9798e-06
2.23757e-06
1.85335e-06
2.08418e-06
2.30096e-06
3.13808e-06
2.80052e-06
2.55011e-06
3.57533e-06
3.68901e-06
3.08637e-06
2.69787e-06
3.36962e-06
3.99974e-06
4.69247e-06
3.85583e-06
2.73789e-06
1.81596e-06
2.17186e-06
2.31604e-06
3.45557e-06
4.21259e-06
4.95057e-06
4.0815e-06
1.08067e-05
9.55219e-06
3.9398e-06
4.29265e-06
3.10667e-06
2.67593e-06
2.37005e-06
2.86059e-06
2.7805e-06
3.20925e-06
3.20702e-06
3.39217e-06
2.38511e-06
2.34433e-06
3.40243e-06
3.60887e-06
3.12068e-06
2.82799e-06
3.14148e-06
3.7338e-06
4.80975e-06
4.72447e-06
4.27531e-06
3.34333e-06
3.54481e-06
3.7777e-06
4.55628e-06
4.49531e-06
5.10681e-06
4.42978e-06
9.57287e-06
7.98596e-06
4.19109e-06
4.27007e-06
3.35377e-06
3.63993e-06
3.64512e-06
4.08938e-06
4.13538e-06
4.82937e-06
4.88861e-06
4.44261e-06
2.43073e-06
2.208e-06
3.32069e-06
4.04865e-06
3.65085e-06
3.4881e-06
3.90131e-06
4.28031e-06
5.13215e-06
5.19254e-06
5.64259e-06
5.49658e-06
5.84518e-06
5.82566e-06
5.86567e-06
4.79142e-06
4.99781e-06
4.83345e-06
7.97477e-06
6.58459e-06
4.67693e-06
4.18824e-06
3.89962e-06
4.25649e-06
4.04087e-06
4.27734e-06
4.25253e-06
4.95682e-06
5.23712e-06
4.93324e-06
2.83527e-06
2.25927e-06
3.28612e-06
3.95644e-06
3.45439e-06
3.28662e-06
3.87848e-06
4.04384e-06
4.27463e-06
4.00221e-06
4.7128e-06
5.14967e-06
6.01366e-06
5.81624e-06
5.48599e-06
4.19421e-06
4.07109e-06
4.90483e-06
6.37229e-06
4.52478e-06
4.68291e-06
3.67891e-06
3.95258e-06
4.00632e-06
3.82682e-06
4.1211e-06
4.21581e-06
4.86009e-06
5.20633e-06
5.22079e-06
4.14825e-06
3.93059e-06
3.65428e-06
3.44458e-06
2.79657e-06
2.93408e-06
3.41225e-06
3.37564e-06
3.48012e-06
3.10576e-06
3.70938e-06
3.83073e-06
4.56418e-06
4.38183e-06
4.08114e-06
3.34964e-06
3.0178e-06
4.18157e-06
3.97775e-06
2.79213e-06
3.72744e-06
4.11889e-06
4.85987e-06
5.43739e-06
6.23324e-06
6.9212e-06
8.04043e-06
8.82556e-06
9.9305e-06
9.78774e-06
9.85701e-06
9.25134e-06
9.37369e-06
9.19019e-06
8.86622e-06
8.98655e-06
8.79625e-06
9.07198e-06
8.4063e-06
7.88711e-06
7.17297e-06
6.81248e-06
6.42338e-06
6.02596e-06
5.12363e-06
4.23499e-06
3.12031e-06
2.6778e-06
1.89925e-06
0.000291071
7.59674e-05
6.77688e-05
4.2488e-05
2.98635e-05
2.30004e-05
1.55135e-05
1.31334e-05
8.74691e-06
8.81922e-06
7.98598e-06
8.45095e-06
8.49005e-06
7.67331e-06
7.81187e-06
7.9671e-06
7.43833e-06
8.16651e-06
6.99597e-06
7.74832e-06
5.84081e-06
6.72718e-06
6.11112e-06
7.26026e-06
6.56919e-06
6.18953e-06
5.04898e-06
3.96277e-06
3.03009e-06
2.51868e-06
7.34981e-05
5.57866e-05
2.88023e-05
2.6202e-05
1.22724e-05
1.05453e-05
7.40329e-06
6.26078e-06
5.9131e-06
5.30692e-06
4.28779e-06
3.29587e-06
2.62103e-06
2.91111e-06
3.33922e-06
2.89854e-06
3.17454e-06
3.23558e-06
3.26687e-06
2.49779e-06
1.72311e-06
2.13295e-06
3.09403e-06
3.55697e-06
3.32281e-06
2.73677e-06
2.60771e-06
2.69652e-06
3.24275e-06
3.54219e-06
6.62665e-05
2.95747e-05
2.57957e-05
2.45177e-05
1.54081e-05
1.28002e-05
8.68051e-06
7.16164e-06
6.90201e-06
7.17833e-06
6.49926e-06
5.60775e-06
4.37111e-06
3.98568e-06
3.83711e-06
3.57887e-06
3.96015e-06
3.48716e-06
3.50046e-06
2.98932e-06
2.76429e-06
3.38696e-06
4.93662e-06
5.48572e-06
4.29894e-06
3.15077e-06
3.35194e-06
4.36554e-06
4.07014e-06
5.27307e-06
4.52582e-05
2.43343e-05
2.28927e-05
1.7963e-05
1.12861e-05
9.92177e-06
6.356e-06
5.57901e-06
4.91835e-06
6.13775e-06
6.96367e-06
7.21443e-06
6.18347e-06
5.27206e-06
4.48627e-06
4.18204e-06
3.99435e-06
3.20174e-06
3.50363e-06
3.1442e-06
2.74358e-06
4.63615e-06
6.63307e-06
6.69146e-06
5.44469e-06
3.9259e-06
3.92516e-06
4.66009e-06
4.36863e-06
6.76912e-06
3.3815e-05
1.18856e-05
1.32485e-05
1.06853e-05
8.1686e-06
7.95255e-06
5.95065e-06
5.36361e-06
4.65617e-06
5.81275e-06
7.50514e-06
7.80597e-06
5.89297e-06
4.84688e-06
4.12449e-06
3.84274e-06
3.36068e-06
2.79243e-06
3.36553e-06
3.57437e-06
4.83455e-06
6.17913e-06
6.65541e-06
6.42265e-06
5.90298e-06
4.67502e-06
4.58755e-06
4.12357e-06
4.47253e-06
8.36629e-06
3.04897e-05
9.61937e-06
1.17182e-05
9.23514e-06
7.14268e-06
6.03374e-06
4.19997e-06
3.47835e-06
2.78063e-06
3.75646e-06
5.17795e-06
5.2712e-06
3.59588e-06
3.01272e-06
2.41854e-06
2.50762e-06
2.4495e-06
2.45657e-06
2.75816e-06
3.6476e-06
4.30086e-06
4.08741e-06
3.4969e-06
3.73987e-06
4.43659e-06
4.62802e-06
4.79161e-06
3.47741e-06
4.41665e-06
9.52739e-06
2.42588e-05
5.69613e-06
7.04495e-06
5.39033e-06
4.67401e-06
4.14392e-06
2.95605e-06
2.69759e-06
2.31447e-06
2.8846e-06
3.7265e-06
4.07147e-06
2.76706e-06
2.5485e-06
2.18286e-06
2.27991e-06
2.28679e-06
2.27739e-06
3.03849e-06
3.44318e-06
2.84442e-06
1.97972e-06
1.38955e-06
1.97116e-06
3.51542e-06
4.47304e-06
4.4367e-06
2.95103e-06
4.38903e-06
1.09075e-05
2.46983e-05
4.10941e-06
5.60361e-06
5.71287e-06
5.30144e-06
4.70689e-06
3.47849e-06
3.15985e-06
2.45053e-06
2.52878e-06
2.95681e-06
3.5592e-06
2.61331e-06
2.77106e-06
1.91906e-06
1.60049e-06
1.47885e-06
2.20145e-06
3.1761e-06
2.82541e-06
1.70563e-06
1.18442e-06
1.05463e-06
1.80165e-06
3.28094e-06
4.04147e-06
3.85155e-06
2.78741e-06
4.23868e-06
1.20091e-05
2.12414e-05
3.55116e-06
3.21169e-06
2.97762e-06
3.42384e-06
3.7247e-06
3.11576e-06
2.92012e-06
2.43528e-06
2.48612e-06
2.57806e-06
2.84414e-06
2.5584e-06
3.1457e-06
2.05517e-06
1.42518e-06
1.47487e-06
1.53808e-06
2.448e-06
2.22791e-06
1.62317e-06
1.39136e-06
1.54476e-06
2.21849e-06
3.12753e-06
3.46218e-06
3.41458e-06
2.74228e-06
3.92958e-06
1.33597e-05
2.19218e-05
3.2648e-06
2.77172e-06
2.28922e-06
2.60756e-06
3.40134e-06
3.40369e-06
3.27363e-06
2.69706e-06
2.59961e-06
2.31714e-06
2.56871e-06
2.62147e-06
3.12048e-06
3.02963e-06
2.2284e-06
2.52545e-06
1.94654e-06
1.59054e-06
1.49567e-06
1.5521e-06
1.53916e-06
1.92426e-06
2.47305e-06
2.68335e-06
2.72451e-06
2.63217e-06
2.13494e-06
3.36402e-06
1.44272e-05
2.02974e-05
3.07667e-06
2.04155e-06
1.68297e-06
1.41679e-06
1.83875e-06
2.49267e-06
3.06505e-06
2.79743e-06
2.68706e-06
2.98496e-06
3.95352e-06
4.18559e-06
5.03693e-06
5.36869e-06
4.75892e-06
4.54629e-06
3.5337e-06
2.96472e-06
2.26228e-06
2.14047e-06
2.14108e-06
2.42056e-06
2.55406e-06
2.31643e-06
2.2457e-06
2.11028e-06
1.7106e-06
2.8475e-06
1.53439e-05
2.1574e-05
2.82834e-06
1.60406e-06
1.50319e-06
1.10534e-06
1.23336e-06
2.12337e-06
2.98451e-06
2.83829e-06
3.40731e-06
4.41393e-06
4.47851e-06
5.08714e-06
5.95321e-06
6.34199e-06
6.30971e-06
5.47647e-06
4.04635e-06
3.57789e-06
3.28824e-06
2.75468e-06
2.32038e-06
2.25144e-06
2.1457e-06
1.94706e-06
1.98128e-06
1.89799e-06
1.57244e-06
2.29372e-06
1.58841e-05
2.06183e-05
2.34607e-06
1.12715e-06
1.21055e-06
8.97996e-07
6.18683e-07
1.4395e-06
2.72656e-06
2.35319e-06
3.57377e-06
4.81517e-06
5.16018e-06
6.47345e-06
7.1872e-06
7.27471e-06
7.03076e-06
6.50004e-06
5.18237e-06
4.23513e-06
3.69204e-06
3.17538e-06
2.01995e-06
1.84463e-06
1.68343e-06
1.44442e-06
1.46145e-06
1.47555e-06
1.22262e-06
2.24748e-06
1.68668e-05
2.09401e-05
2.16254e-06
8.84495e-07
9.11812e-07
9.68984e-07
8.70353e-07
1.49852e-06
2.74495e-06
2.71313e-06
3.29025e-06
4.05819e-06
5.51879e-06
6.26442e-06
7.12217e-06
7.09526e-06
6.8548e-06
6.23827e-06
5.24283e-06
4.81167e-06
3.03798e-06
2.84173e-06
2.05915e-06
1.363e-06
1.07879e-06
1.0803e-06
1.02296e-06
9.12515e-07
6.49992e-07
2.2296e-06
1.75778e-05
1.98642e-05
2.56065e-06
1.12666e-06
1.00833e-06
1.02361e-06
1.12511e-06
1.42079e-06
1.84201e-06
2.57943e-06
3.69588e-06
4.36909e-06
5.14902e-06
4.69008e-06
5.50303e-06
6.28587e-06
6.39805e-06
5.52292e-06
4.85772e-06
4.98845e-06
4.18259e-06
3.76259e-06
2.69362e-06
1.65565e-06
1.06359e-06
1.07805e-06
9.21237e-07
7.31175e-07
6.56929e-07
2.25644e-06
1.82279e-05
1.98843e-05
2.82474e-06
1.06405e-06
9.83153e-07
1.15331e-06
1.47523e-06
1.58502e-06
1.93182e-06
2.93091e-06
4.04436e-06
4.28754e-06
4.65991e-06
4.0621e-06
5.04695e-06
6.13121e-06
6.31497e-06
5.5114e-06
4.86874e-06
5.33407e-06
4.57341e-06
3.88593e-06
2.90831e-06
1.58969e-06
9.67572e-07
9.66803e-07
7.97075e-07
7.81947e-07
5.98917e-07
1.97813e-06
1.8124e-05
1.88929e-05
3.01236e-06
1.25015e-06
1.40641e-06
1.40053e-06
1.74585e-06
1.68808e-06
1.93117e-06
2.56625e-06
3.35636e-06
3.56016e-06
4.86245e-06
4.89708e-06
5.8562e-06
6.51886e-06
6.70077e-06
6.3994e-06
5.36884e-06
5.13726e-06
3.32003e-06
3.56054e-06
2.82687e-06
1.69145e-06
1.19548e-06
9.57174e-07
7.88682e-07
1.3375e-06
1.22533e-06
1.99901e-06
1.81566e-05
1.84988e-05
3.02259e-06
1.73668e-06
1.89335e-06
1.64133e-06
1.82978e-06
2.0438e-06
2.20296e-06
2.35815e-06
3.534e-06
4.19436e-06
4.43687e-06
4.99901e-06
6.01862e-06
6.76738e-06
7.02043e-06
6.48252e-06
5.21033e-06
4.2679e-06
3.28596e-06
3.74008e-06
2.57156e-06
2.28688e-06
1.9075e-06
1.34182e-06
1.36423e-06
2.22136e-06
2.1508e-06
2.63902e-06
1.79475e-05
1.71748e-05
3.25893e-06
2.17874e-06
2.28017e-06
2.37935e-06
2.71693e-06
2.82688e-06
2.79367e-06
2.70186e-06
3.20834e-06
3.76676e-06
3.81676e-06
3.75408e-06
4.93834e-06
6.11934e-06
6.61467e-06
5.54952e-06
4.27918e-06
3.56264e-06
3.4121e-06
3.38913e-06
3.04746e-06
2.6311e-06
2.28795e-06
1.94039e-06
1.88937e-06
2.49752e-06
2.37927e-06
3.33288e-06
1.72656e-05
1.62345e-05
3.43055e-06
2.21212e-06
2.1859e-06
2.86904e-06
3.26977e-06
2.86512e-06
2.51839e-06
2.26398e-06
2.34439e-06
2.42563e-06
3.04934e-06
2.8389e-06
3.73843e-06
4.80609e-06
5.84436e-06
5.1392e-06
3.93345e-06
3.22763e-06
2.70076e-06
2.77865e-06
2.7938e-06
2.70201e-06
2.67167e-06
2.78357e-06
2.46176e-06
2.26865e-06
2.00911e-06
3.56688e-06
1.60545e-05
1.50879e-05
3.91695e-06
2.62871e-06
2.47441e-06
3.62094e-06
3.94166e-06
2.90984e-06
2.1421e-06
1.80161e-06
1.78181e-06
1.71549e-06
2.16632e-06
2.17379e-06
2.89985e-06
2.54874e-06
3.40759e-06
3.17697e-06
3.08385e-06
2.52099e-06
2.18434e-06
2.4824e-06
2.37401e-06
2.46109e-06
3.01145e-06
3.79479e-06
3.51141e-06
2.53328e-06
1.9474e-06
3.56118e-06
1.44574e-05
1.4014e-05
3.96637e-06
2.64991e-06
3.35451e-06
4.36911e-06
3.91657e-06
2.68837e-06
1.93604e-06
1.56471e-06
1.57331e-06
2.09158e-06
2.84052e-06
2.0461e-06
2.32942e-06
2.96067e-06
3.08237e-06
2.94578e-06
3.20354e-06