/*--------------------------------*- C++ -*----------------------------------*\
| =========                 |                                                 |
| \\      /  F ield         | OpenFOAM: The Open Source CFD Toolbox           |
|  \\    /   O peration     | Version:  v1912                                 |
|   \\  /    A nd           | Website:  www.openfoam.com                      |
|    \\/     M anipulation  |                                                 |
\*---------------------------------------------------------------------------*/
FoamFile
{
    version     2.0;
    format      ascii;
    class       volVectorField;
    location    "306/oil";
    object      U;
}
// * * * * * * * * * * * * * * * * * * * * * * * * * * * * * * * * * * * * * //

dimensions      [0 1 -1 0 0 0 0];


internalField   nonuniform List<vector> 
35580
(
(-1.19945e-09 2.39501e-09 -1.22321e-09)
(1.23691e-09 2.17322e-09 -2.94372e-09)
(1.13182e-08 2.14228e-09 -4.73624e-09)
(2.71933e-08 2.67597e-09 -6.55091e-09)
(4.64912e-08 3.52852e-09 -8.01216e-09)
(6.65105e-08 4.53259e-09 -8.99574e-09)
(8.47528e-08 5.59251e-09 -9.49213e-09)
(9.90489e-08 6.6632e-09 -9.55726e-09)
(1.07626e-07 7.71703e-09 -9.2757e-09)
(1.09306e-07 8.7266e-09 -8.72604e-09)
(1.03442e-07 9.63834e-09 -7.98174e-09)
(9.00842e-08 1.04099e-08 -7.23871e-09)
(7.00434e-08 1.10145e-08 -6.54847e-09)
(4.45759e-08 1.1474e-08 -6.05631e-09)
(1.5643e-08 1.17269e-08 -5.79885e-09)
(-1.45546e-08 1.17574e-08 -5.80399e-09)
(-4.35759e-08 1.14931e-08 -6.05598e-09)
(-6.90988e-08 1.10258e-08 -6.53354e-09)
(-8.92663e-08 1.03831e-08 -7.1938e-09)
(-1.02751e-07 9.62628e-09 -7.94712e-09)
(-1.08828e-07 8.72968e-09 -8.68362e-09)
(-1.07318e-07 7.7079e-09 -9.25796e-09)
(-9.88441e-08 6.65343e-09 -9.53877e-09)
(-8.46446e-08 5.58553e-09 -9.48275e-09)
(-6.64732e-08 4.52527e-09 -8.98836e-09)
(-4.65111e-08 3.5242e-09 -8.00531e-09)
(-2.72482e-08 2.67192e-09 -6.54031e-09)
(-1.13817e-08 2.13174e-09 -4.7155e-09)
(-1.28951e-09 2.15027e-09 -2.91819e-09)
(1.17669e-09 2.34673e-09 -1.20644e-09)
(6.20958e-10 -2.25761e-09 6.06742e-10)
(1.24214e-08 -1.37541e-08 5.25039e-10)
(3.61743e-08 -2.29243e-08 -3.05843e-10)
(6.92634e-08 -2.78987e-08 -1.39223e-09)
(1.07761e-07 -2.9475e-08 -2.19359e-09)
(1.47048e-07 -2.85032e-08 -2.46961e-09)
(1.8249e-07 -2.56849e-08 -2.16448e-09)
(2.09911e-07 -2.15457e-08 -1.31971e-09)
(2.25853e-07 -1.65313e-08 -3.57308e-11)
(2.27882e-07 -1.10597e-08 1.53977e-09)
(2.1466e-07 -5.56914e-09 3.38351e-09)
(1.86217e-07 -5.33772e-10 5.11255e-09)
(1.44317e-07 3.62087e-09 6.63193e-09)
(9.17123e-08 6.65546e-09 7.72284e-09)
(3.21607e-08 8.26569e-09 8.29876e-09)
(-2.99643e-08 8.30023e-09 8.31754e-09)
(-8.97162e-08 6.62458e-09 7.74978e-09)
(-1.42417e-07 3.53028e-09 6.69248e-09)
(-1.84336e-07 -7.14903e-10 5.21172e-09)
(-2.12872e-07 -5.6936e-09 3.48422e-09)
(-2.26458e-07 -1.11764e-08 1.67135e-09)
(-2.24739e-07 -1.6639e-08 5.59685e-11)
(-2.09051e-07 -2.16185e-08 -1.23319e-09)
(-1.81909e-07 -2.57303e-08 -2.0961e-09)
(-1.4671e-07 -2.85484e-08 -2.41236e-09)
(-1.07621e-07 -2.95372e-08 -2.14216e-09)
(-6.92635e-08 -2.79952e-08 -1.35047e-09)
(-3.62271e-08 -2.3058e-08 -2.70048e-10)
(-1.24534e-08 -1.38933e-08 5.44714e-10)
(-6.26782e-10 -2.37767e-09 5.96329e-10)
(2.42656e-09 -2.21712e-08 2.42384e-09)
(2.43659e-08 -5.86727e-08 4.29276e-09)
(5.96364e-08 -8.56996e-08 4.68708e-09)
(1.04989e-07 -1.02885e-07 4.62852e-09)
(1.55652e-07 -1.12031e-07 4.72094e-09)
(2.06333e-07 -1.14875e-07 5.24271e-09)
(2.51467e-07 -1.12912e-07 6.2931e-09)
(2.85887e-07 -1.07363e-07 7.86303e-09)
(3.05248e-07 -9.92846e-08 9.85444e-09)
(3.0646e-07 -8.96588e-08 1.20919e-08)
(2.87743e-07 -7.94705e-08 1.45608e-08)
(2.49045e-07 -6.97806e-08 1.68476e-08)
(1.92678e-07 -6.16512e-08 1.87815e-08)
(1.22308e-07 -5.5763e-08 2.01799e-08)
(4.2859e-08 -5.26483e-08 2.09226e-08)
(-4.00292e-08 -5.26606e-08 2.09718e-08)
(-1.198e-07 -5.59162e-08 2.02181e-08)
(-1.90293e-07 -6.19837e-08 1.88385e-08)
(-2.46614e-07 -7.02351e-08 1.69048e-08)
(-2.85515e-07 -7.98594e-08 1.4659e-08)
(-3.04702e-07 -9.00102e-08 1.22153e-08)
(-3.0386e-07 -9.95463e-08 9.93559e-09)
(-2.84825e-07 -1.07542e-07 7.94058e-09)
(-2.50738e-07 -1.13037e-07 6.364e-09)
(-2.05905e-07 -1.14985e-07 5.30657e-09)
(-1.55468e-07 -1.12169e-07 4.78373e-09)
(-1.04967e-07 -1.03082e-07 4.68182e-09)
(-5.96834e-08 -8.59594e-08 4.72356e-09)
(-2.4415e-08 -5.89202e-08 4.2977e-09)
(-2.44725e-09 -2.23264e-08 2.39958e-09)
(3.87758e-09 -5.49406e-08 3.86776e-09)
(3.43788e-08 -1.28034e-07 7.16767e-09)
(7.92849e-08 -1.79492e-07 8.40098e-09)
(1.34291e-07 -2.13654e-07 9.03118e-09)
(1.93891e-07 -2.34142e-07 9.76602e-09)
(2.52408e-07 -2.43775e-07 1.08785e-08)
(3.03835e-07 -2.44928e-07 1.2477e-08)
(3.42529e-07 -2.39583e-07 1.45628e-08)
(3.6366e-07 -2.29514e-07 1.70457e-08)
(3.63718e-07 -2.16377e-07 1.97449e-08)
(3.40613e-07 -2.01844e-07 2.2598e-08)
(2.94301e-07 -1.87514e-07 2.52458e-08)
(2.27466e-07 -1.75199e-07 2.75025e-08)
(1.44226e-07 -1.66144e-07 2.90956e-08)
(5.04945e-08 -1.61374e-07 2.99296e-08)
(-4.72952e-08 -1.61445e-07 2.99923e-08)
(-1.41446e-07 -1.66344e-07 2.91131e-08)
(-2.2475e-07 -1.75532e-07 2.75149e-08)
(-2.91545e-07 -1.87877e-07 2.52729e-08)
(-3.38083e-07 -2.02151e-07 2.26641e-08)
(-3.61635e-07 -2.16654e-07 1.98045e-08)
(-3.61974e-07 -2.29714e-07 1.70795e-08)
(-3.41226e-07 -2.39722e-07 1.46003e-08)
(-3.02903e-07 -2.45023e-07 1.25158e-08)
(-2.51816e-07 -2.43873e-07 1.09221e-08)
(-1.93603e-07 -2.34296e-07 9.81731e-09)
(-1.34222e-07 -2.13898e-07 9.07009e-09)
(-7.93139e-08 -1.79797e-07 8.41154e-09)
(-3.44417e-08 -1.28294e-07 7.14395e-09)
(-3.91267e-09 -5.51417e-08 3.82842e-09)
(4.90517e-09 -9.782e-08 4.89365e-09)
(4.19375e-08 -2.16655e-07 9.15522e-09)
(9.44306e-08 -2.97517e-07 1.09192e-08)
(1.56993e-07 -3.51944e-07 1.19799e-08)
(2.23401e-07 -3.8636e-07 1.31138e-08)
(2.87692e-07 -4.04983e-07 1.4632e-08)
(3.436e-07 -4.11157e-07 1.66267e-08)
(3.85235e-07 -4.07646e-07 1.9113e-08)
(4.07489e-07 -3.96945e-07 2.1998e-08)
(4.06602e-07 -3.814e-07 2.51042e-08)
(3.80286e-07 -3.63365e-07 2.82861e-08)
(3.28391e-07 -3.44986e-07 3.12672e-08)
(2.53671e-07 -3.2878e-07 3.38339e-08)
(1.60729e-07 -3.16608e-07 3.56073e-08)
(5.62476e-08 -3.10217e-07 3.65347e-08)
(-5.27614e-08 -3.1032e-07 3.66108e-08)
(-1.57725e-07 -3.16769e-07 3.56306e-08)
(-2.50613e-07 -3.28897e-07 3.38383e-08)
(-3.25337e-07 -3.45079e-07 3.13236e-08)
(-3.77519e-07 -3.63422e-07 2.83525e-08)
(-4.04304e-07 -3.81454e-07 2.51532e-08)
(-4.05638e-07 -3.96986e-07 2.20348e-08)
(-3.83798e-07 -4.07692e-07 1.9154e-08)
(-3.42553e-07 -4.11208e-07 1.66677e-08)
(-2.86993e-07 -4.05071e-07 1.46684e-08)
(-2.23017e-07 -3.86511e-07 1.31499e-08)
(-1.56865e-07 -3.5219e-07 1.19924e-08)
(-9.44451e-08 -2.97797e-07 1.08915e-08)
(-4.20218e-08 -2.16809e-07 9.08189e-09)
(-4.96127e-09 -9.80553e-08 4.8313e-09)
(5.56192e-09 -1.47887e-07 5.57598e-09)
(4.71144e-08 -3.19139e-07 1.04325e-08)
(1.05102e-07 -4.33117e-07 1.24954e-08)
(1.73191e-07 -5.10174e-07 1.38073e-08)
(2.4455e-07 -5.60337e-07 1.51876e-08)
(3.13019e-07 -5.89608e-07 1.69778e-08)
(3.72173e-07 -6.02413e-07 1.92744e-08)
(4.1598e-07 -6.02313e-07 2.2104e-08)
(4.39154e-07 -5.92494e-07 2.53637e-08)
(4.37734e-07 -5.75945e-07 2.88813e-08)
(4.09356e-07 -5.55668e-07 3.24316e-08)
(3.5366e-07 -5.34397e-07 3.5809e-08)
(2.73155e-07 -5.15087e-07 3.87126e-08)
(1.73025e-07 -5.00242e-07 4.07106e-08)
(6.05107e-08 -4.92417e-07 4.17394e-08)
(-5.68296e-08 -4.92506e-07 4.1811e-08)
(-1.69879e-07 -5.0038e-07 4.07188e-08)
(-2.69858e-07 -5.14995e-07 3.87126e-08)
(-3.50386e-07 -5.34343e-07 3.58987e-08)
(-4.06422e-07 -5.55598e-07 3.25173e-08)
(-4.35306e-07 -5.75881e-07 2.89487e-08)
(-4.37206e-07 -5.92449e-07 2.54219e-08)
(-4.14469e-07 -6.0231e-07 2.21606e-08)
(-3.71068e-07 -6.02446e-07 1.9336e-08)
(-3.12262e-07 -5.89692e-07 1.70247e-08)
(-2.44101e-07 -5.60471e-07 1.52247e-08)
(-1.73008e-07 -5.10371e-07 1.38047e-08)
(-1.05101e-07 -4.33304e-07 1.24345e-08)
(-4.72322e-08 -3.19143e-07 1.0314e-08)
(-5.6447e-09 -1.48147e-07 5.4923e-09)
(5.93727e-09 -2.02521e-07 5.95803e-09)
(5.01744e-08 -4.30701e-07 1.11366e-08)
(1.11521e-07 -5.80318e-07 1.33782e-08)
(1.83003e-07 -6.81619e-07 1.48293e-08)
(2.57415e-07 -7.48879e-07 1.63638e-08)
(3.2847e-07 -7.90177e-07 1.83615e-08)
(3.89694e-07 -8.11146e-07 2.09119e-08)
(4.3499e-07 -8.16159e-07 2.40572e-08)
(4.58963e-07 -8.09039e-07 2.76811e-08)
(4.57498e-07 -7.93329e-07 3.16119e-08)
(4.28138e-07 -7.72561e-07 3.55708e-08)
(3.70297e-07 -7.50046e-07 3.93537e-08)
(2.86149e-07 -7.28985e-07 4.26337e-08)
(1.81258e-07 -7.1221e-07 4.48766e-08)
(6.33455e-08 -7.03246e-07 4.59848e-08)
(-5.95271e-08 -7.03287e-07 4.60585e-08)
(-1.78035e-07 -7.12399e-07 4.48631e-08)
(-2.82749e-07 -7.28809e-07 4.265e-08)
(-3.66914e-07 -7.49985e-07 3.9482e-08)
(-4.25122e-07 -7.72497e-07 3.56912e-08)
(-4.55013e-07 -7.93263e-07 3.17098e-08)
(-4.56981e-07 -8.09003e-07 2.77653e-08)
(-4.33452e-07 -8.16175e-07 2.41319e-08)
(-3.88568e-07 -8.11199e-07 2.09877e-08)
(-3.2769e-07 -7.90263e-07 1.84135e-08)
(-2.5693e-07 -7.48982e-07 1.64036e-08)
(-1.82779e-07 -6.81722e-07 1.481e-08)
(-1.11496e-07 -5.80305e-07 1.32781e-08)
(-5.03029e-08 -4.30465e-07 1.09886e-08)
(-6.02828e-09 -2.02847e-07 5.86904e-09)
(6.051e-09 -2.59373e-07 6.09649e-09)
(5.12363e-08 -5.46856e-07 1.13882e-08)
(1.13769e-07 -7.33439e-07 1.37048e-08)
(1.8638e-07 -8.59915e-07 1.52311e-08)
(2.61743e-07 -9.45248e-07 1.68564e-08)
(3.33586e-07 -9.99811e-07 1.90004e-08)
(3.95499e-07 -1.03051e-06 2.17705e-08)
(4.41445e-07 -1.04254e-06 2.52022e-08)
(4.66002e-07 -1.04027e-06 2.91738e-08)
(4.64941e-07 -1.02768e-06 3.35168e-08)
(4.35686e-07 -1.00875e-06 3.79171e-08)
(3.77431e-07 -9.87148e-07 4.20874e-08)
(2.91865e-07 -9.66117e-07 4.57653e-08)
(1.84767e-07 -9.48319e-07 4.82753e-08)
(6.45122e-08 -9.38798e-07 4.94962e-08)
(-6.07595e-08 -9.39002e-07 4.96178e-08)
(-1.81642e-07 -9.48828e-07 4.82822e-08)
(-2.88526e-07 -9.66078e-07 4.58248e-08)
(-3.74044e-07 -9.872e-07 4.22218e-08)
(-4.32674e-07 -1.00879e-06 3.803e-08)
(-4.62443e-07 -1.0277e-06 3.36122e-08)
(-4.64006e-07 -1.0403e-06 2.92574e-08)
(-4.3989e-07 -1.04262e-06 2.52748e-08)
(-3.94344e-07 -1.03064e-06 2.18473e-08)
(-3.32766e-07 -9.99955e-07 1.90546e-08)
(-2.61215e-07 -9.45371e-07 1.68778e-08)
(-1.86111e-07 -8.59941e-07 1.51742e-08)
(-1.13717e-07 -7.33199e-07 1.35754e-08)
(-5.13583e-08 -5.46366e-07 1.12387e-08)
(-6.14988e-09 -2.59857e-07 6.01835e-09)
(5.95311e-09 -3.16345e-07 5.99787e-09)
(5.03887e-08 -6.63251e-07 1.11959e-08)
(1.1181e-07 -8.87e-07 1.34989e-08)
(1.83051e-07 -1.03891e-06 1.50787e-08)
(2.56959e-07 -1.14277e-06 1.67633e-08)
(3.27465e-07 -1.21154e-06 1.89681e-08)
(3.8836e-07 -1.25345e-06 2.18737e-08)
(4.33803e-07 -1.27443e-06 2.55109e-08)
(4.5848e-07 -1.27932e-06 2.97505e-08)
(4.58106e-07 -1.2724e-06 3.44332e-08)
(4.29988e-07 -1.25785e-06 3.92179e-08)
(3.73192e-07 -1.23945e-06 4.37234e-08)
(2.88879e-07 -1.22047e-06 4.76972e-08)
(1.82732e-07 -1.20326e-06 5.0501e-08)
(6.38209e-08 -1.1943e-06 5.19243e-08)
(-6.01698e-08 -1.19453e-06 5.20421e-08)
(-1.79699e-07 -1.20367e-06 5.04501e-08)
(-2.85622e-07 -1.22037e-06 4.77425e-08)
(-3.69832e-07 -1.23956e-06 4.38444e-08)
(-4.27042e-07 -1.258e-06 3.9321e-08)
(-4.55647e-07 -1.27251e-06 3.45318e-08)
(-4.56525e-07 -1.27944e-06 2.98379e-08)
(-4.32282e-07 -1.27462e-06 2.55832e-08)
(-3.87208e-07 -1.25371e-06 2.19447e-08)
(-3.26628e-07 -1.21178e-06 1.89988e-08)
(-2.56416e-07 -1.14287e-06 1.67141e-08)
(-1.82748e-07 -1.03867e-06 1.49588e-08)
(-1.1171e-07 -8.86326e-07 1.33514e-08)
(-5.0461e-08 -6.62442e-07 1.1052e-08)
(-6.03317e-09 -3.16917e-07 5.918e-09)
(5.63985e-09 -3.7127e-07 5.63309e-09)
(4.75912e-08 -7.7548e-07 1.05178e-08)
(1.05538e-07 -1.03533e-06 1.26906e-08)
(1.7272e-07 -1.21224e-06 1.427e-08)
(2.42481e-07 -1.33454e-06 1.60074e-08)
(3.09158e-07 -1.41787e-06 1.82241e-08)
(3.66965e-07 -1.47208e-06 2.11446e-08)
(4.1042e-07 -1.50368e-06 2.485e-08)
(4.34485e-07 -1.51784e-06 2.9192e-08)
(4.34943e-07 -1.51898e-06 3.40369e-08)
(4.08992e-07 -1.51132e-06 3.90394e-08)
(3.55568e-07 -1.49841e-06 4.37763e-08)
(2.75481e-07 -1.48326e-06 4.78234e-08)
(1.74104e-07 -1.46835e-06 5.08182e-08)
(6.08351e-08 -1.46111e-06 5.24684e-08)
(-5.75008e-08 -1.46132e-06 5.2589e-08)
(-1.71319e-07 -1.46842e-06 5.07629e-08)
(-2.72274e-07 -1.48244e-06 4.78461e-08)
(-3.52216e-07 -1.49798e-06 4.38976e-08)
(-4.06135e-07 -1.51137e-06 3.91339e-08)
(-4.32517e-07 -1.51916e-06 3.41391e-08)
(-4.32585e-07 -1.51805e-06 2.9278e-08)
(-4.08961e-07 -1.50402e-06 2.49162e-08)
(-3.65834e-07 -1.4725e-06 2.12215e-08)
(-3.08303e-07 -1.41819e-06 1.82476e-08)
(-2.41888e-07 -1.33439e-06 1.59598e-08)
(-1.72325e-07 -1.21149e-06 1.42428e-08)
(-1.05305e-07 -1.03415e-06 1.27017e-08)
(-4.7558e-08 -7.74448e-07 1.05298e-08)
(-5.67805e-09 -3.71949e-07 5.62653e-09)
(5.10615e-09 -4.21872e-07 5.02617e-09)
(4.2788e-08 -8.78753e-07 9.42583e-09)
(9.48525e-08 -1.17211e-06 1.13613e-08)
(1.55154e-07 -1.37283e-06 1.28144e-08)
(2.1784e-07 -1.51297e-06 1.45331e-08)
(2.77926e-07 -1.61057e-06 1.67045e-08)
(3.30312e-07 -1.67746e-06 1.95113e-08)
(3.70008e-07 -1.72076e-06 2.30764e-08)
(3.92454e-07 -1.74566e-06 2.72487e-08)
(3.93637e-07 -1.75661e-06 3.19849e-08)
(3.70653e-07 -1.75757e-06 3.69437e-08)
(3.22549e-07 -1.75155e-06 4.16706e-08)
(2.5017e-07 -1.74194e-06 4.55783e-08)
(1.58311e-07 -1.73168e-06 4.8594e-08)
(5.53838e-08 -1.7269e-06 5.03111e-08)
(-5.23901e-08 -1.72717e-06 5.04645e-08)
(-1.55773e-07 -1.73164e-06 4.86083e-08)
(-2.47119e-07 -1.74096e-06 4.55066e-08)
(-3.19575e-07 -1.75131e-06 4.16805e-08)
(-3.68158e-07 -1.75776e-06 3.69497e-08)
(-3.9135e-07 -1.75691e-06 3.20749e-08)
(-3.90663e-07 -1.74593e-06 2.73413e-08)
(-3.68676e-07 -1.72119e-06 2.31335e-08)
(-3.2929e-07 -1.67807e-06 1.96016e-08)
(-2.77192e-07 -1.6108e-06 1.6731e-08)
(-2.17319e-07 -1.51211e-06 1.44817e-08)
(-1.54716e-07 -1.3711e-06 1.27554e-08)
(-9.44768e-08 -1.17019e-06 1.12544e-08)
(-4.26275e-08 -8.77306e-07 9.30597e-09)
(-5.06007e-09 -4.22458e-07 5.00047e-09)
(4.32492e-09 -4.65909e-07 4.18276e-09)
(3.59147e-08 -9.68173e-07 7.87144e-09)
(7.95678e-08 -1.29033e-06 9.53201e-09)
(1.30349e-07 -1.51235e-06 1.08391e-08)
(1.83158e-07 -1.66923e-06 1.24194e-08)
(2.338e-07 -1.7805e-06 1.44625e-08)
(2.7823e-07 -1.8597e-06 1.70283e-08)
(3.12198e-07 -1.91484e-06 2.02003e-08)
(3.31829e-07 -1.95101e-06 2.38524e-08)
(3.33433e-07 -1.97214e-06 2.8058e-08)
(3.14262e-07 -1.98165e-06 3.24486e-08)
(2.73539e-07 -1.98316e-06 3.66402e-08)
(2.12254e-07 -1.98077e-06 4.02923e-08)
(1.34705e-07 -1.97697e-06 4.3222e-08)
(4.71963e-08 -1.97523e-06 4.48615e-08)
(-4.46298e-08 -1.97537e-06 4.50239e-08)
(-1.32596e-07 -1.97672e-06 4.3425e-08)
(-2.09782e-07 -1.98063e-06 4.05518e-08)
(-2.71212e-07 -1.98516e-06 3.71279e-08)
(-3.12108e-07 -1.98327e-06 3.27496e-08)
(-3.31308e-07 -1.97281e-06 2.82571e-08)
(-3.30198e-07 -1.9512e-06 2.38972e-08)
(-3.11076e-07 -1.91521e-06 2.00015e-08)
(-2.77343e-07 -1.86027e-06 1.67364e-08)
(-2.33094e-07 -1.78032e-06 1.41136e-08)
(-1.82488e-07 -1.66762e-06 1.21162e-08)
(-1.29767e-07 -1.51006e-06 1.06467e-08)
(-7.92262e-08 -1.28827e-06 9.4289e-09)
(-3.57995e-08 -9.66472e-07 7.83617e-09)
(-4.26825e-09 -4.66301e-07 4.24282e-09)
(3.38391e-09 -5.01018e-07 3.04972e-09)
(2.74519e-08 -1.03916e-06 5.70321e-09)
(6.03568e-08 -1.38402e-06 6.97772e-09)
(9.88937e-08 -1.62313e-06 7.98887e-09)
(1.39105e-07 -1.79418e-06 9.14485e-09)
(1.7775e-07 -1.91787e-06 1.07306e-08)
(2.11703e-07 -2.00824e-06 1.2844e-08)
(2.37793e-07 -2.07407e-06 1.55674e-08)
(2.53372e-07 -2.12048e-06 1.86978e-08)
(2.5519e-07 -2.15059e-06 2.21319e-08)
(2.40534e-07 -2.1683e-06 2.54829e-08)
(2.09162e-07 -2.17867e-06 2.88392e-08)
(1.6266e-07 -2.18467e-06 3.20829e-08)
(1.03731e-07 -2.18653e-06 3.45187e-08)
(3.66001e-08 -2.18716e-06 3.57708e-08)
(-3.38533e-08 -2.18655e-06 3.56687e-08)
(-1.01592e-07 -2.18482e-06 3.4311e-08)
(-1.60783e-07 -2.18343e-06 3.18827e-08)
(-2.07755e-07 -2.18098e-06 2.89604e-08)
(-2.3874e-07 -2.17019e-06 2.548e-08)
(-2.53085e-07 -2.1511e-06 2.19587e-08)
(-2.51894e-07 -2.12024e-06 1.85471e-08)
(-2.3693e-07 -2.07408e-06 1.54707e-08)
(-2.10923e-07 -2.00836e-06 1.28587e-08)
(-1.77143e-07 -1.91728e-06 1.07699e-08)
(-1.38676e-07 -1.79284e-06 9.20618e-09)
(-9.86493e-08 -1.62209e-06 8.08397e-09)
(-6.02226e-08 -1.38382e-06 7.16538e-09)
(-2.71833e-08 -1.03879e-06 5.951e-09)
(-3.25062e-09 -5.01895e-07 3.19953e-09)
(2.14495e-09 -5.26082e-07 1.98137e-09)
(1.73539e-08 -1.08933e-06 3.66924e-09)
(3.8109e-08 -1.45027e-06 4.38573e-09)
(6.24847e-08 -1.70053e-06 4.91101e-09)
(8.77085e-08 -1.881e-06 5.58949e-09)
(1.11917e-07 -2.0138e-06 6.62835e-09)
(1.33222e-07 -2.11274e-06 8.0473e-09)
(1.49533e-07 -2.18683e-06 9.89531e-09)
(1.59543e-07 -2.24126e-06 1.20715e-08)
(1.61128e-07 -2.2786e-06 1.43782e-08)
(1.52064e-07 -2.30418e-06 1.66605e-08)
(1.32478e-07 -2.32266e-06 1.90517e-08)
(1.03359e-07 -2.3354e-06 2.12701e-08)
(6.61372e-08 -2.34164e-06 2.29226e-08)
(2.36502e-08 -2.34391e-06 2.36774e-08)
(-2.0852e-08 -2.34168e-06 2.32898e-08)
(-6.39216e-08 -2.33681e-06 2.22336e-08)
(-1.0127e-07 -2.33072e-06 2.04295e-08)
(-1.30829e-07 -2.32124e-06 1.81652e-08)
(-1.50673e-07 -2.30258e-06 1.57016e-08)
(-1.59956e-07 -2.27601e-06 1.33854e-08)
(-1.5915e-07 -2.23775e-06 1.13636e-08)
(-1.49554e-07 -2.18458e-06 9.59234e-09)
(-1.32996e-07 -2.1124e-06 8.12114e-09)
(-1.11505e-07 -2.01443e-06 6.92301e-09)
(-8.71191e-08 -1.8818e-06 5.95545e-09)
(-6.18837e-08 -1.70132e-06 5.24293e-09)
(-3.77353e-08 -1.451e-06 4.63778e-09)
(-1.70246e-08 -1.08943e-06 3.82731e-09)
(-2.05302e-09 -5.26756e-07 2.01256e-09)
(7.9136e-10 -5.39185e-07 6.26065e-10)
(6.07989e-09 -1.11512e-06 1.24779e-09)
(1.32802e-08 -1.48502e-06 1.56807e-09)
(2.19369e-08 -1.74164e-06 1.77915e-09)
(3.08393e-08 -1.92732e-06 2.0569e-09)
(3.94344e-08 -2.0645e-06 2.49107e-09)
(4.72206e-08 -2.16683e-06 3.00591e-09)
(5.32579e-08 -2.24359e-06 3.52656e-09)
(5.68846e-08 -2.30162e-06 4.19903e-09)
(5.74254e-08 -2.34443e-06 5.12086e-09)
(5.4184e-08 -2.3761e-06 6.08048e-09)
(4.73861e-08 -2.39939e-06 6.96767e-09)
(3.70048e-08 -2.41506e-06 7.651e-09)
(2.37955e-08 -2.42396e-06 8.37296e-09)
(8.94525e-09 -2.42824e-06 8.71968e-09)
(-6.76161e-09 -2.426e-06 8.44256e-09)
(-2.2525e-08 -2.4199e-06 8.09644e-09)
(-3.56725e-08 -2.41148e-06 7.43912e-09)
(-4.58862e-08 -2.39847e-06 6.50503e-09)
(-5.28535e-08 -2.37524e-06 5.58803e-09)
(-5.61114e-08 -2.34307e-06 4.74649e-09)
(-5.59567e-08 -2.29931e-06 4.00788e-09)
(-5.27413e-08 -2.24182e-06 3.32309e-09)
(-4.70299e-08 -2.16641e-06 2.7738e-09)
(-3.94583e-08 -2.06516e-06 2.37262e-09)
(-3.0754e-08 -1.92841e-06 2.04179e-09)
(-2.17722e-08 -1.74282e-06 1.79028e-09)
(-1.32224e-08 -1.48616e-06 1.58096e-09)
(-5.92165e-09 -1.11588e-06 1.34155e-09)
(-6.78561e-10 -5.39732e-07 7.19016e-10)
(-5.68699e-10 -5.39727e-07 -6.70109e-10)
(-5.27837e-09 -1.11609e-06 -1.21455e-09)
(-1.18654e-08 -1.48653e-06 -1.426e-09)
(-1.93604e-08 -1.7434e-06 -1.60459e-09)
(-2.72115e-08 -1.92927e-06 -1.83357e-09)
(-3.47731e-08 -2.06677e-06 -2.15842e-09)
(-4.14492e-08 -2.16948e-06 -2.58145e-09)
(-4.67149e-08 -2.24655e-06 -3.10646e-09)
(-4.97885e-08 -2.30457e-06 -3.76795e-09)
(-4.99485e-08 -2.34702e-06 -4.50165e-09)
(-4.68298e-08 -2.37855e-06 -5.41789e-09)
(-4.06778e-08 -2.4018e-06 -6.4303e-09)
(-3.20258e-08 -2.41718e-06 -7.2738e-09)
(-2.08814e-08 -2.42635e-06 -7.60414e-09)
(-7.42834e-09 -2.43055e-06 -7.63392e-09)
(7.00009e-09 -2.42804e-06 -7.5289e-09)
(2.02189e-08 -2.42278e-06 -7.02614e-09)
(3.24494e-08 -2.41461e-06 -6.41298e-09)
(4.18011e-08 -2.40096e-06 -5.87759e-09)
(4.75173e-08 -2.37759e-06 -5.03241e-09)
(5.05039e-08 -2.34545e-06 -4.14173e-09)
(5.04588e-08 -2.30155e-06 -3.30677e-09)
(4.76196e-08 -2.24388e-06 -2.78209e-09)
(4.2412e-08 -2.16811e-06 -2.45228e-09)
(3.54607e-08 -2.06647e-06 -2.11575e-09)
(2.77283e-08 -1.92943e-06 -1.85038e-09)
(1.97191e-08 -1.7436e-06 -1.62725e-09)
(1.20521e-08 -1.48682e-06 -1.41114e-09)
(5.49574e-09 -1.11639e-06 -1.09125e-09)
(7.10273e-10 -5.40023e-07 -5.49086e-10)
(-1.975e-09 -5.27492e-07 -1.95397e-09)
(-1.64755e-08 -1.0911e-06 -3.70103e-09)
(-3.65158e-08 -1.45344e-06 -4.49802e-09)
(-5.9802e-08 -1.70437e-06 -5.09589e-09)
(-8.4156e-08 -1.88553e-06 -5.79476e-09)
(-1.07659e-07 -2.01924e-06 -6.73332e-09)
(-1.28263e-07 -2.11882e-06 -7.97214e-09)
(-1.44034e-07 -2.1929e-06 -9.58765e-09)
(-1.53254e-07 -2.24747e-06 -1.15959e-08)
(-1.5429e-07 -2.28516e-06 -1.37013e-08)
(-1.45422e-07 -2.31125e-06 -1.603e-08)
(-1.26581e-07 -2.33004e-06 -1.84918e-08)
(-9.90044e-08 -2.34285e-06 -2.06161e-08)
(-6.36096e-08 -2.35042e-06 -2.19716e-08)
(-2.2249e-08 -2.35337e-06 -2.24955e-08)
(2.12478e-08 -2.35019e-06 -2.21922e-08)
(6.2305e-08 -2.3463e-06 -2.11965e-08)
(9.89397e-08 -2.34081e-06 -1.95861e-08)
(1.27163e-07 -2.32944e-06 -1.77731e-08)
(1.4548e-07 -2.30993e-06 -1.54288e-08)
(1.54727e-07 -2.28296e-06 -1.31991e-08)
(1.5392e-07 -2.24433e-06 -1.10422e-08)
(1.44332e-07 -2.19019e-06 -9.18457e-09)
(1.28398e-07 -2.11685e-06 -7.63643e-09)
(1.07804e-07 -2.01837e-06 -6.37246e-09)
(8.45439e-08 -1.88544e-06 -5.42987e-09)
(6.02384e-08 -1.70459e-06 -4.7144e-09)
(3.68648e-08 -1.45399e-06 -4.1576e-09)
(1.68131e-08 -1.09182e-06 -3.42047e-09)
(2.12073e-09 -5.27692e-07 -1.85021e-09)
(-3.22934e-09 -5.0323e-07 -3.1103e-09)
(-2.67396e-08 -1.04174e-06 -5.80999e-09)
(-5.91301e-08 -1.38799e-06 -7.0409e-09)
(-9.68417e-08 -1.62715e-06 -7.95089e-09)
(-1.36147e-07 -1.79872e-06 -9.04438e-09)
(-1.73976e-07 -1.92405e-06 -1.05465e-08)
(-2.07217e-07 -2.01611e-06 -1.2548e-08)
(-2.32789e-07 -2.08293e-06 -1.51404e-08)
(-2.47688e-07 -2.13035e-06 -1.82961e-08)
(-2.49199e-07 -2.16127e-06 -2.16254e-08)
(-2.34917e-07 -2.17958e-06 -2.50488e-08)
(-2.04242e-07 -2.19023e-06 -2.8344e-08)
(-1.59084e-07 -2.19683e-06 -3.13838e-08)
(-1.01835e-07 -2.20031e-06 -3.36697e-08)
(-3.56613e-08 -2.20174e-06 -3.48301e-08)
(3.38872e-08 -2.19925e-06 -3.4552e-08)
(1.00198e-07 -2.19782e-06 -3.32345e-08)
(1.59061e-07 -2.19697e-06 -3.0976e-08)
(2.04672e-07 -2.19073e-06 -2.81978e-08)
(2.34797e-07 -2.17858e-06 -2.48044e-08)
(2.49552e-07 -2.15962e-06 -2.14461e-08)
(2.4851e-07 -2.12936e-06 -1.81458e-08)
(2.3346e-07 -2.08302e-06 -1.52035e-08)
(2.07806e-07 -2.01673e-06 -1.26126e-08)
(1.74406e-07 -1.92535e-06 -1.05337e-08)
(1.36405e-07 -1.80032e-06 -8.96353e-09)
(9.69313e-08 -1.62842e-06 -7.69411e-09)
(5.93115e-08 -1.38917e-06 -6.71443e-09)
(2.70626e-08 -1.04293e-06 -5.49501e-09)
(3.38537e-09 -5.03144e-07 -2.96128e-09)
(-4.30175e-09 -4.68221e-07 -4.10641e-09)
(-3.55391e-08 -9.70687e-07 -7.66235e-09)
(-7.8447e-08 -1.29385e-06 -9.31537e-09)
(-1.2848e-07 -1.51657e-06 -1.05657e-08)
(-1.80654e-07 -1.67505e-06 -1.20257e-08)
(-2.30822e-07 -1.78872e-06 -1.4003e-08)
(-2.74765e-07 -1.86965e-06 -1.65998e-08)
(-3.08298e-07 -1.92567e-06 -1.98125e-08)
(-3.27514e-07 -1.96288e-06 -2.36189e-08)
(-3.29018e-07 -1.98521e-06 -2.77658e-08)
(-3.10098e-07 -1.99573e-06 -3.21489e-08)
(-2.69735e-07 -1.9979e-06 -3.62504e-08)
(-2.09494e-07 -1.99637e-06 -3.98282e-08)
(-1.33325e-07 -1.99449e-06 -4.27045e-08)
(-4.62381e-08 -1.99397e-06 -4.44286e-08)
(4.48122e-08 -1.99244e-06 -4.42905e-08)
(1.31842e-07 -1.99383e-06 -4.26739e-08)
(2.09319e-07 -1.99814e-06 -3.97879e-08)
(2.69833e-07 -1.99887e-06 -3.62145e-08)
(3.09816e-07 -1.99535e-06 -3.21997e-08)
(3.28888e-07 -1.9846e-06 -2.785e-08)
(3.27929e-07 -1.96302e-06 -2.35729e-08)
(3.08836e-07 -1.92628e-06 -1.99137e-08)
(2.7531e-07 -1.87024e-06 -1.68065e-08)
(2.31317e-07 -1.78969e-06 -1.43049e-08)
(1.81125e-07 -1.67698e-06 -1.2349e-08)
(1.2887e-07 -1.51955e-06 -1.0739e-08)
(7.86655e-08 -1.29755e-06 -9.41303e-09)
(3.55888e-08 -9.73787e-07 -7.73105e-09)
(4.30038e-09 -4.6833e-07 -4.11183e-09)
(-5.07123e-09 -4.24519e-07 -4.98486e-09)
(-4.24228e-08 -8.82242e-07 -9.31155e-09)
(-9.3889e-08 -1.17645e-06 -1.12631e-08)
(-1.5386e-07 -1.3784e-06 -1.27286e-08)
(-2.16225e-07 -1.5205e-06 -1.44064e-08)
(-2.75999e-07 -1.62028e-06 -1.66349e-08)
(-3.28069e-07 -1.68867e-06 -1.94896e-08)
(-3.67495e-07 -1.73299e-06 -2.30126e-08)
(-3.8969e-07 -1.75901e-06 -2.72193e-08)
(-3.90794e-07 -1.77113e-06 -3.18987e-08)
(-3.6795e-07 -1.77307e-06 -3.68477e-08)
(-3.20077e-07 -1.76796e-06 -4.15208e-08)
(-2.48434e-07 -1.75921e-06 -4.54251e-08)
(-1.57531e-07 -1.75094e-06 -4.84505e-08)
(-5.42928e-08 -1.74704e-06 -5.0417e-08)
(5.30444e-08 -1.74592e-06 -5.03888e-08)
(1.55924e-07 -1.75045e-06 -4.87361e-08)
(2.47543e-07 -1.76048e-06 -4.56811e-08)
(3.19494e-07 -1.7687e-06 -4.15478e-08)
(3.67522e-07 -1.77345e-06 -3.68997e-08)
(3.90627e-07 -1.77139e-06 -3.19431e-08)
(3.89919e-07 -1.75947e-06 -2.71768e-08)
(3.67839e-07 -1.73364e-06 -2.29951e-08)
(3.28488e-07 -1.68939e-06 -1.94346e-08)
(2.76427e-07 -1.62126e-06 -1.65953e-08)
(2.16666e-07 -1.52227e-06 -1.44648e-08)
(1.54368e-07 -1.38156e-06 -1.27925e-08)
(9.43663e-08 -1.18061e-06 -1.12892e-08)
(4.27196e-08 -8.85587e-07 -9.31842e-09)
(5.13729e-09 -4.24551e-07 -4.97099e-09)
(-5.64681e-09 -3.73966e-07 -5.6438e-09)
(-4.74394e-08 -7.79655e-07 -1.05372e-08)
(-1.05113e-07 -1.04064e-06 -1.27034e-08)
(-1.72109e-07 -1.21913e-06 -1.42429e-08)
(-2.41678e-07 -1.34325e-06 -1.59442e-08)
(-3.08221e-07 -1.4282e-06 -1.82179e-08)
(-3.65922e-07 -1.48364e-06 -2.1195e-08)
(-4.09281e-07 -1.51631e-06 -2.48923e-08)
(-4.33223e-07 -1.53152e-06 -2.92616e-08)
(-4.33595e-07 -1.53373e-06 -3.40971e-08)
(-4.07593e-07 -1.52705e-06 -3.91328e-08)
(-3.54231e-07 -1.51533e-06 -4.39262e-08)
(-2.74816e-07 -1.50154e-06 -4.80324e-08)
(-1.74065e-07 -1.48848e-06 -5.10182e-08)
(-5.99465e-08 -1.48113e-06 -5.27805e-08)
(5.83775e-08 -1.48015e-06 -5.26173e-08)
(1.72248e-07 -1.48729e-06 -5.10303e-08)
(2.73504e-07 -1.5013e-06 -4.80481e-08)
(3.53328e-07 -1.51527e-06 -4.38427e-08)
(4.06978e-07 -1.52723e-06 -3.91201e-08)
(4.33273e-07 -1.53398e-06 -3.41066e-08)
(4.33221e-07 -1.53196e-06 -2.92548e-08)
(4.09467e-07 -1.5169e-06 -2.48928e-08)
(3.66269e-07 -1.48436e-06 -2.11716e-08)
(3.08681e-07 -1.42906e-06 -1.82009e-08)
(2.42185e-07 -1.34439e-06 -1.59763e-08)
(1.72555e-07 -1.22099e-06 -1.43153e-08)
(1.05379e-07 -1.04334e-06 -1.27757e-08)
(4.75503e-08 -7.82129e-07 -1.05796e-08)
(5.62278e-09 -3.74023e-07 -5.64832e-09)
(-5.98745e-09 -3.19039e-07 -5.99162e-09)
(-5.0441e-08 -6.67535e-07 -1.11278e-08)
(-1.11907e-07 -8.92793e-07 -1.33819e-08)
(-1.83144e-07 -1.04632e-06 -1.49851e-08)
(-2.57036e-07 -1.15167e-06 -1.67405e-08)
(-3.27568e-07 -1.22166e-06 -1.90295e-08)
(-3.88505e-07 -1.26462e-06 -2.19908e-08)
(-4.3397e-07 -1.28659e-06 -2.56451e-08)
(-4.58611e-07 -1.29244e-06 -2.99267e-08)
(-4.58147e-07 -1.28648e-06 -3.46314e-08)
(-4.29843e-07 -1.27282e-06 -3.94639e-08)
(-3.72932e-07 -1.25543e-06 -4.40485e-08)
(-2.89054e-07 -1.23754e-06 -4.80538e-08)
(-1.83063e-07 -1.22185e-06 -5.08851e-08)
(-6.30367e-08 -1.21266e-06 -5.24427e-08)
(6.13076e-08 -1.21216e-06 -5.23276e-08)
(1.81202e-07 -1.22117e-06 -5.09366e-08)
(2.87558e-07 -1.23749e-06 -4.80845e-08)
(3.71879e-07 -1.25557e-06 -4.40447e-08)
(4.29112e-07 -1.27307e-06 -3.95049e-08)
(4.57721e-07 -1.28679e-06 -3.46738e-08)
(4.58469e-07 -1.29288e-06 -2.99569e-08)
(4.34031e-07 -1.28716e-06 -2.56741e-08)
(3.88722e-07 -1.26532e-06 -2.20089e-08)
(3.27888e-07 -1.2225e-06 -1.90516e-08)
(2.57405e-07 -1.15269e-06 -1.67933e-08)
(1.83431e-07 -1.04765e-06 -1.51322e-08)
(1.12004e-07 -8.94614e-07 -1.36311e-08)
(5.04436e-08 -6.69487e-07 -1.13539e-08)
(5.92335e-09 -3.1904e-07 -6.05583e-09)
(-6.09516e-09 -2.61939e-07 -6.12177e-09)
(-5.14301e-08 -5.50943e-07 -1.13681e-08)
(-1.14175e-07 -7.39221e-07 -1.36423e-08)
(-1.86968e-07 -8.67108e-07 -1.52282e-08)
(-2.62515e-07 -9.5356e-07 -1.69378e-08)
(-3.3457e-07 -1.00909e-06 -1.9135e-08)
(-3.96662e-07 -1.04067e-06 -2.19476e-08)
(-4.42726e-07 -1.05355e-06 -2.5402e-08)
(-4.6732e-07 -1.0521e-06 -2.9424e-08)
(-4.66166e-07 -1.04033e-06 -3.38062e-08)
(-4.3661e-07 -1.02213e-06 -3.82687e-08)
(-3.78062e-07 -1.00125e-06 -4.25369e-08)
(-2.92635e-07 -9.80853e-07 -4.62326e-08)
(-1.85461e-07 -9.64269e-07 -4.88276e-08)
(-6.39998e-08 -9.54754e-07 -5.01929e-08)
(6.20645e-08 -9.54492e-07 -5.01419e-08)
(1.83408e-07 -9.63861e-07 -4.88819e-08)
(2.91077e-07 -9.80944e-07 -4.62136e-08)
(3.7705e-07 -1.00137e-06 -4.25067e-08)
(4.35868e-07 -1.02229e-06 -3.83107e-08)
(4.65663e-07 -1.04055e-06 -3.38598e-08)
(4.67077e-07 -1.05244e-06 -2.94687e-08)
(4.42691e-07 -1.05401e-06 -2.54431e-08)
(3.96774e-07 -1.04125e-06 -2.19783e-08)
(3.34769e-07 -1.00978e-06 -1.91647e-08)
(2.62766e-07 -9.5436e-07 -1.69793e-08)
(1.87185e-07 -8.68036e-07 -1.53224e-08)
(1.14292e-07 -7.40375e-07 -1.38267e-08)
(5.14586e-08 -5.52333e-07 -1.15427e-08)
(6.06616e-09 -2.61888e-07 -6.16385e-09)
(-6.00476e-09 -2.04664e-07 -5.96905e-09)
(-5.04967e-08 -4.3435e-07 -1.11135e-08)
(-1.12149e-07 -5.85538e-07 -1.33661e-08)
(-1.8398e-07 -6.87979e-07 -1.48951e-08)
(-2.58741e-07 -7.56117e-07 -1.65012e-08)
(-3.30147e-07 -7.98179e-07 -1.85364e-08)
(-3.91661e-07 -8.19849e-07 -2.1134e-08)
(-4.37161e-07 -8.25521e-07 -2.43111e-08)
(-4.61238e-07 -8.1903e-07 -2.79914e-08)
(-4.59679e-07 -8.03937e-07 -3.19769e-08)
(-4.29928e-07 -7.83738e-07 -3.6034e-08)
(-3.71641e-07 -7.61712e-07 -3.99236e-08)
(-2.87414e-07 -7.41111e-07 -4.32265e-08)
(-1.82263e-07 -7.25224e-07 -4.55445e-08)
(-6.29868e-08 -7.1639e-07 -4.67603e-08)
(6.10583e-08 -7.16043e-07 -4.67246e-08)
(1.80113e-07 -7.24685e-07 -4.55371e-08)
(2.85814e-07 -7.41047e-07 -4.31557e-08)
(3.70595e-07 -7.617e-07 -3.98447e-08)
(4.29127e-07 -7.83781e-07 -3.60418e-08)
(4.59089e-07 -8.0408e-07 -3.20248e-08)
(4.60906e-07 -8.19289e-07 -2.8035e-08)
(4.37053e-07 -8.25883e-07 -2.43511e-08)
(3.917e-07 -8.20292e-07 -2.11632e-08)
(3.30275e-07 -7.98701e-07 -1.8563e-08)
(2.58931e-07 -7.56715e-07 -1.65285e-08)
(1.84177e-07 -6.8865e-07 -1.49371e-08)
(1.12303e-07 -5.86298e-07 -1.34529e-08)
(5.05129e-08 -4.35254e-07 -1.12383e-08)
(5.96761e-09 -2.04732e-07 -6.01101e-09)
(-5.65428e-09 -1.49587e-07 -5.55966e-09)
(-4.75357e-08 -3.22229e-07 -1.04021e-08)
(-1.05912e-07 -4.37523e-07 -1.2518e-08)
(-1.74449e-07 -5.15439e-07 -1.38972e-08)
(-2.46236e-07 -5.66231e-07 -1.53353e-08)
(-3.15133e-07 -5.96052e-07 -1.7156e-08)
(-3.74658e-07 -6.09361e-07 -1.94984e-08)
(-4.18721e-07 -6.09731e-07 -2.23546e-08)
(-4.42038e-07 -6.00344e-07 -2.56605e-08)
(-4.40536e-07 -5.84221e-07 -2.92264e-08)
(-4.11738e-07 -5.64284e-07 -3.28917e-08)
(-3.55548e-07 -5.43351e-07 -3.63644e-08)
(-2.74867e-07 -5.24432e-07 -3.93009e-08)
(-1.7428e-07 -5.10095e-07 -4.13784e-08)
(-6.02754e-08 -5.02325e-07 -4.25058e-08)
(5.83944e-08 -5.01993e-07 -4.24678e-08)