/*--------------------------------*- C++ -*----------------------------------*\
| =========                 |                                                 |
| \\      /  F ield         | OpenFOAM: The Open Source CFD Toolbox           |
|  \\    /   O peration     | Version:  v1912                                 |
|   \\  /    A nd           | Website:  www.openfoam.com                      |
|    \\/     M anipulation  |                                                 |
\*---------------------------------------------------------------------------*/
FoamFile
{
    version     2.0;
    format      ascii;
    class       surfaceScalarField;
    location    "24/oil";
    object      phi;
}
// * * * * * * * * * * * * * * * * * * * * * * * * * * * * * * * * * * * * * //

dimensions      [1 0 -1 0 0 0 0];
oriented        oriented;


internalField   nonuniform List<scalar> 
104676
(
-5.18248e-12
1.42279e-11
-6.88385e-12
1.53262e-10
-1.26761e-10
-3.17426e-11
4.76099e-10
-2.35821e-10
-8.69809e-11
9.13148e-10
-2.87133e-10
-1.49903e-10
1.40015e-09
-2.93472e-10
-1.93511e-10
1.87322e-09
-2.6722e-10
-2.05838e-10
2.2748e-09
-2.17947e-10
-1.83621e-10
2.5568e-09
-1.5272e-10
-1.29259e-10
2.68165e-09
-7.69653e-11
-4.78701e-11
2.62919e-09
2.54031e-12
4.99476e-11
2.38926e-09
8.44628e-11
1.55495e-10
1.97849e-09
1.51467e-10
2.59346e-10
1.41828e-09
2.1241e-10
3.47837e-10
7.48798e-10
2.566e-10
4.1292e-10
2.12178e-11
2.80017e-10
4.47608e-10
-7.08856e-10
2.81385e-10
4.48735e-10
-1.38084e-09
2.57183e-10
4.1484e-10
-1.94435e-09
2.12771e-10
3.50776e-10
-2.36046e-09
1.53106e-10
2.63046e-10
-2.6049e-09
8.33469e-11
1.61118e-10
-2.66546e-09
3.97324e-12
5.66085e-11
-2.54505e-09
-7.76558e-11
-4.2725e-11
-2.26693e-09
-1.53133e-10
-1.24957e-10
-1.86857e-09
-2.18348e-10
-1.79998e-10
-1.39825e-09
-2.67513e-10
-2.02776e-10
-9.13434e-10
-2.94433e-10
-1.9037e-10
-4.77641e-10
-2.89077e-10
-1.46705e-10
-1.55057e-10
-2.38595e-10
-8.39808e-11
4.13892e-12
-1.29899e-10
-2.92941e-11
9.89248e-12
-5.75736e-12
1.5608e-10
-2.9789e-10
1.55979e-10
5.98729e-10
-8.88367e-10
3.18958e-10
1.30048e-09
-1.33195e-09
3.94392e-10
2.18299e-09
-1.6015e-09
4.31881e-10
3.14026e-09
-1.73025e-09
4.79536e-10
4.0584e-09
-1.75051e-09
5.65173e-10
4.82996e-09
-1.68964e-09
7.00174e-10
5.36198e-09
-1.56913e-09
8.84436e-10
5.58203e-09
-1.40692e-09
1.10994e-09
5.4437e-09
-1.2191e-09
1.36002e-09
4.92521e-09
-1.02156e-09
1.62457e-09
4.0552e-09
-8.48514e-10
1.87005e-09
2.89863e-09
-6.96203e-10
2.06524e-09
1.52866e-09
-5.85909e-10
2.21256e-09
4.29845e-11
-5.2808e-10
2.29385e-09
-1.44889e-09
-5.28187e-10
2.30152e-09
-2.8239e-09
-5.87805e-10
2.22006e-09
-3.98356e-09
-6.9959e-10
2.07209e-09
-4.84894e-09
-8.51894e-10
1.87044e-09
-5.37189e-09
-1.02812e-09
1.63447e-09
-5.52161e-09
-1.2229e-09
1.37665e-09
-5.3121e-09
-1.40942e-09
1.12231e-09
-4.7921e-09
-1.57019e-09
8.97115e-10
-4.03301e-09
-1.69043e-09
7.13038e-10
-3.1253e-09
-1.75217e-09
5.76992e-10
-2.17719e-09
-1.73321e-09
4.90708e-10
-1.30074e-09
-1.60734e-09
4.41843e-10
-6.00494e-10
-1.34045e-09
4.01626e-10
-1.56599e-10
-8.96174e-10
3.22392e-10
-3.02852e-10
1.56147e-10
3.26001e-10
-9.5281e-10
3.28946e-10
1.0341e-09
-2.29856e-09
7.02101e-10
2.02592e-09
-3.25711e-09
9.3337e-10
3.20374e-09
-3.8811e-09
1.10182e-09
4.44586e-09
-4.23883e-09
1.2665e-09
5.61844e-09
-4.38647e-09
1.46343e-09
6.59082e-09
-4.37198e-09
1.71e-09
7.24725e-09
-4.23471e-09
2.00919e-09
7.49739e-09
-4.01034e-09
2.35334e-09
7.2834e-09
-3.72875e-09
2.7237e-09
6.57683e-09
-3.42241e-09
3.10748e-09
5.40749e-09
-3.13274e-09
3.45365e-09
3.85995e-09
-2.87858e-09
3.73e-09
2.03389e-09
-2.69287e-09
3.93311e-09
5.58369e-11
-2.59693e-09
4.04699e-09
-1.93224e-09
-2.60114e-09
4.06112e-09
-3.7657e-09
-2.69809e-09
3.94381e-09
-5.31611e-09
-2.88421e-09
3.73511e-09
-6.48203e-09
-3.13608e-09
3.45018e-09
-7.2017e-09
-3.42812e-09
3.11974e-09
-7.43176e-09
-3.73377e-09
2.741e-09
-7.19456e-09
-4.01347e-09
2.36692e-09
-6.55133e-09
-4.23703e-09
2.02368e-09
-5.59224e-09
-4.37375e-09
1.72429e-09
-4.43175e-09
-4.38956e-09
1.47696e-09
-3.1984e-09
-4.2451e-09
1.27859e-09
-2.02667e-09
-3.89065e-09
1.11161e-09
-1.03707e-09
-3.26936e-09
9.39345e-10
-3.27679e-10
-2.30892e-09
7.03375e-10
-9.58897e-10
3.28373e-10
4.66155e-10
-1.8906e-09
4.7165e-10
1.39701e-09
-4.24512e-09
1.01573e-09
2.62364e-09
-5.8556e-09
1.3719e-09
4.0261e-09
-6.92963e-09
1.64611e-09
5.47064e-09
-7.59226e-09
1.90894e-09
6.81324e-09
-7.92927e-09
2.20024e-09
7.91254e-09
-8.01149e-09
2.54027e-09
8.64198e-09
-7.89722e-09
2.93314e-09
8.89883e-09
-7.6392e-09
3.37207e-09
8.61642e-09
-7.28572e-09
3.83945e-09
7.76138e-09
-6.88549e-09
4.31821e-09
6.37385e-09
-6.4862e-09
4.74107e-09
4.54593e-09
-6.1383e-09
5.08773e-09
2.39352e-09
-5.86992e-09
5.32957e-09
6.37779e-11
-5.73296e-09
5.46588e-09
-2.27917e-09
-5.74222e-09
5.48414e-09
-4.44106e-09
-5.87543e-09
5.33933e-09
-6.2734e-09
-6.13599e-09
5.08421e-09
-7.65884e-09
-6.48534e-09
4.73481e-09
-8.52603e-09
-6.88611e-09
4.32527e-09
-8.82419e-09
-7.28664e-09
3.85112e-09
-8.58196e-09
-7.63966e-09
3.38407e-09
-7.86779e-09
-7.89792e-09
2.9468e-09
-6.7824e-09
-8.01265e-09
2.55359e-09
-5.4529e-09
-7.93259e-09
2.21359e-09
-4.01948e-09
-7.59947e-09
1.92101e-09
-2.62335e-09
-6.94166e-09
1.65493e-09
-1.39975e-09
-5.86791e-09
1.37499e-09
-4.69421e-10
-4.25078e-09
1.01156e-09
-1.89836e-09
4.70049e-10
5.71761e-10
-3.03922e-09
5.7688e-10
1.67428e-09
-6.59227e-09
1.24467e-09
3.08471e-09
-8.96006e-09
1.69407e-09
4.66048e-09
-1.05518e-08
2.04644e-09
6.25674e-09
-1.15714e-08
2.38294e-09
7.72245e-09
-1.21432e-08
2.74828e-09
8.91045e-09
-1.23633e-08
3.16385e-09
9.6873e-09
-1.23095e-08
3.63546e-09
9.94561e-09
-1.20517e-08
4.15427e-09
9.61187e-09
-1.16553e-08
4.70343e-09
8.65036e-09
-1.11875e-08
5.26362e-09
7.10262e-09
-1.07067e-08
5.76834e-09
5.06157e-09
-1.02747e-08
6.17761e-09
2.66321e-09
-9.92353e-09
6.4521e-09
6.90704e-11
-9.74568e-09
6.60699e-09
-2.54052e-09
-9.75846e-09
6.62596e-09
-4.94648e-09
-9.93079e-09
6.46143e-09
-6.98855e-09
-1.02602e-08
6.16638e-09
-8.54008e-09
-1.07011e-08
5.76741e-09
-9.51525e-09
-1.11849e-08
5.27406e-09
-9.86554e-09
-1.16537e-08
4.71747e-09
-9.62332e-09
-1.20507e-08
4.16896e-09
-8.86169e-09
-1.23099e-08
3.65044e-09
-7.6876e-09
-1.23651e-08
3.17848e-09
-6.235e-09
-1.21471e-08
2.76203e-09
-4.65058e-09
-1.15786e-08
2.39478e-09
-3.08329e-09
-1.05633e-08
2.05437e-09
-1.67599e-09
-8.97065e-09
1.69548e-09
-5.74653e-10
-6.59028e-09
1.23821e-09
-3.04854e-09
5.75543e-10
6.42619e-10
-4.33053e-09
6.48718e-10
1.86696e-09
-9.21395e-09
1.39738e-09
3.41099e-09
-1.2415e-08
1.91095e-09
5.11255e-09
-1.45725e-08
2.31919e-09
6.8183e-09
-1.59865e-08
2.7094e-09
8.37258e-09
-1.68291e-08
3.13169e-09
9.62493e-09
-1.72242e-08
3.60864e-09
1.04381e-08
-1.72699e-08
4.14737e-09
1.07006e-08
-1.70522e-08
4.73806e-09
1.03363e-08
-1.66517e-08
5.36076e-09
9.30764e-09
-1.61503e-08
5.99158e-09
7.64272e-09
-1.56285e-08
6.58683e-09
5.44394e-09
-1.51368e-08
7.06095e-09
2.86254e-09
-1.47089e-08
7.36694e-09
7.05472e-11
-1.44852e-08
7.53168e-09
-2.73825e-09
-1.44992e-08
7.54969e-09
-5.32228e-09
-1.47276e-08
7.38099e-09
-7.51795e-09
-1.51109e-08
7.04651e-09
-9.19034e-09
-1.56194e-08
6.59084e-09
-1.02349e-08
-1.61468e-08
6.0066e-09
-1.06174e-08
-1.66493e-08
5.37833e-09
-1.03721e-08
-1.70518e-08
4.75578e-09
-9.57461e-09
-1.72718e-08
4.16462e-09
-8.33652e-09
-1.7228e-08
3.62487e-09
-6.79461e-09
-1.68349e-08
3.14591e-09
-5.10012e-09
-1.59945e-08
2.72144e-09
-3.40766e-09
-1.45823e-08
2.32668e-09
-1.86904e-09
-1.24203e-08
1.91108e-09
-6.45982e-10
-9.20417e-09
1.39088e-09
-4.34269e-09
6.48198e-10
6.78228e-10
-5.70163e-09
6.92904e-10
1.97757e-09
-1.20098e-08
1.49657e-09
3.60592e-09
-1.60871e-08
2.04385e-09
5.38563e-09
-1.88351e-08
2.48299e-09
7.15879e-09
-2.06692e-08
2.90967e-09
8.76813e-09
-2.18128e-08
3.37449e-09
1.00625e-08
-2.24196e-08
3.90109e-09
1.09021e-08
-2.26074e-08
4.498e-09
1.11736e-08
-2.24774e-08
5.15376e-09
1.07966e-08
-2.21211e-08
5.84652e-09
9.73244e-09
-2.16346e-08
6.54856e-09
7.99038e-09
-2.11115e-08
7.22526e-09
5.69407e-09
-2.06081e-08
7.76775e-09
2.99344e-09
-2.01109e-08
8.10278e-09
7.50491e-11
-1.98455e-08
8.27887e-09
-2.85772e-09
-1.98673e-08
8.30099e-09
-5.57015e-09
-2.01477e-08
8.13261e-09
-7.8627e-09
-2.05783e-08
7.76006e-09
-9.61246e-09
-2.11042e-08
7.23462e-09
-1.06936e-08
-2.16348e-08
6.56924e-09
-1.10891e-08
-2.21228e-08
5.86918e-09
-1.08355e-08
-2.24807e-08
5.17545e-09
-1.00118e-08
-2.26133e-08
4.51799e-09
-8.73189e-09
-2.24277e-08
3.91993e-09
-7.13446e-09
-2.18223e-08
3.39007e-09
-5.37215e-09
-2.0679e-08
2.92228e-09
-3.60195e-09
-1.88422e-08
2.48975e-09
-1.98194e-09
-1.60803e-08
2.04004e-09
-6.86672e-10
-1.19821e-08
1.48277e-09
-5.7208e-09
6.9146e-10
6.91594e-10
-7.10072e-09
7.07532e-10
2.01284e-09
-1.48656e-08
1.53462e-09
3.66923e-09
-1.98415e-08
2.09807e-09
5.47592e-09
-2.31922e-08
2.55045e-09
7.26969e-09
-2.5458e-08
2.99507e-09
8.89571e-09
-2.69273e-08
3.48855e-09
1.02052e-08
-2.77821e-08
4.05313e-09
1.10592e-08
-2.81583e-08
4.69706e-09
1.13418e-08
-2.81691e-08
5.40922e-09
1.09711e-08
-2.79159e-08
6.1657e-09
9.90159e-09
-2.75004e-08
6.93552e-09
8.1326e-09
-2.70289e-08
7.68648e-09
5.79227e-09
-2.65734e-08
8.30575e-09
3.04056e-09
-2.60195e-08
8.66046e-09
7.49613e-11
-2.57365e-08
8.85671e-09
-2.90922e-09
-2.57635e-08
8.88054e-09
-5.68355e-09
-2.60584e-08
8.68517e-09
-8.0103e-09
-2.65434e-08
8.292e-09
-9.78283e-09
-2.70255e-08
7.69398e-09
-1.08688e-08
-2.75058e-08
6.95705e-09
-1.12586e-08
-2.79226e-08
6.18976e-09
-1.09937e-08
-2.81779e-08
5.43243e-09
-1.01554e-08
-2.81704e-08
4.71882e-09
-8.85975e-09
-2.77969e-08
4.0736e-09
-7.2453e-09
-2.69427e-08
3.50606e-09
-5.46246e-09
-2.54701e-08
3.00843e-09
-3.66772e-09
-2.31901e-08
2.55325e-09
-2.02063e-09
-1.98135e-08
2.08623e-09
-6.99431e-10
-1.48191e-08
1.51585e-09
-7.12771e-09
7.07505e-10
6.79705e-10
-8.47521e-09
6.9482e-10
1.96976e-09
-1.76699e-08
1.51429e-09
3.59278e-09
-2.35477e-08
2.08324e-09
5.36879e-09
-2.75046e-08
2.53646e-09
7.13327e-09
-3.01996e-08
2.97719e-09
8.73081e-09
-3.20007e-08
3.47596e-09
1.0021e-08
-3.31322e-08
4.05993e-09
1.08701e-08
-3.37403e-08
4.7331e-09
1.11622e-08
-3.39444e-08
5.48326e-09
1.08136e-08
-3.38532e-08
6.286e-09
9.78105e-09
-3.35703e-08
7.10247e-09
8.05621e-09
-3.31981e-08
7.89413e-09
5.72845e-09
-3.28224e-08
8.57692e-09
3.00324e-09
-3.22526e-08
8.95849e-09
7.22427e-11
-3.1995e-08
9.18965e-09
-2.88109e-09
-3.20194e-08
9.2094e-09
-5.63667e-09
-3.22691e-08
8.96646e-09
-7.94797e-09
-3.27784e-08
8.54648e-09
-9.66714e-09
-3.31981e-08
7.89191e-09
-1.07141e-08
-3.35814e-08
7.12261e-09
-1.10809e-08
-3.38669e-08
6.31123e-09
-1.08062e-08
-3.39603e-08
5.50794e-09
-9.97275e-09
-3.37598e-08
4.75611e-09
-8.69586e-09
-3.3155e-08
4.08134e-09
-7.11042e-09
-3.20207e-08
3.49267e-09
-5.3617e-09
-3.01999e-08
2.98108e-09
-3.60071e-09
-2.74704e-08
2.5193e-09
-1.98362e-09
-2.34837e-08
2.05312e-09
-6.84779e-10
-1.76106e-08
1.49263e-09
-8.50833e-09
6.95854e-10
6.45107e-10
-9.77207e-09
6.51783e-10
1.86336e-09
-2.03105e-08
1.42232e-09
3.38051e-09
-2.70414e-08
1.97662e-09
5.05261e-09
-3.16045e-08
2.42791e-09
6.72767e-09
-3.4731e-08
2.85642e-09
8.24563e-09
-3.68519e-08
3.33333e-09
9.47461e-09
-3.82698e-08
3.90878e-09
1.02912e-08
-3.91411e-08
4.58426e-09
1.05867e-08
-3.95835e-08
5.34372e-09
1.02754e-08
-3.97042e-08
6.16247e-09
9.31607e-09
-3.96062e-08
6.99536e-09
7.70033e-09
-3.93814e-08
7.79922e-09
5.45854e-09
-3.9096e-08
8.51562e-09
2.86033e-09
-3.85845e-08
8.93019e-09
6.8302e-11
-3.83782e-08
9.17534e-09
-2.74125e-09
-3.84019e-08
9.19217e-09
-5.36075e-09
-3.85745e-08
8.92504e-09
-7.59533e-09
-3.90071e-08
8.46337e-09
-9.20875e-09
-3.93778e-08
7.79323e-09
-1.01799e-08
-3.96248e-08
7.01478e-09
-1.05089e-08
-3.97258e-08
6.18793e-09
-1.02309e-08
-3.9607e-08
5.36878e-09
-9.42855e-09
-3.91695e-08
4.60748e-09
-8.21114e-09
-3.83013e-08
3.92904e-09
-6.70928e-09
-3.68643e-08
3.34183e-09
-5.05594e-09
-3.46895e-08
2.83634e-09
-3.39081e-09
-3.15206e-08
2.38514e-09
-1.86525e-09
-2.69459e-08
1.93672e-09
-6.43335e-10
-2.02376e-08
1.40512e-09
-9.80746e-09
6.55821e-10
5.82542e-10
-1.09335e-08
5.78874e-10
1.6865e-09
-2.26611e-08
1.24671e-09
3.04715e-09
-3.01459e-08
1.74385e-09
4.53383e-09
-3.52769e-08
2.18575e-09
6.04173e-09
-3.88389e-08
2.60007e-09
7.41725e-09
-4.12689e-08
3.04151e-09
8.53705e-09
-4.29684e-08
3.57884e-09
9.2901e-09
-4.41177e-08
4.22368e-09
9.57586e-09
-4.48223e-08
4.95312e-09
9.31613e-09
-4.51818e-08
5.73737e-09
8.48047e-09
-4.52868e-08
6.51636e-09
7.04654e-09
-4.52032e-08
7.25584e-09
4.97957e-09
-4.4986e-08
7.9571e-09
2.60513e-09
-4.46547e-08
8.4448e-09
6.31761e-11
-4.4537e-08
8.7009e-09
-2.48999e-09
-4.45616e-08
8.71294e-09
-4.85537e-09
-4.46496e-08
8.44057e-09
-6.88961e-09
-4.49489e-08
7.97606e-09
-8.34972e-09
-4.52743e-08
7.3567e-09
-9.22109e-09
-4.53298e-08
6.57644e-09
-9.5011e-09
-4.52126e-08
5.76686e-09
-9.23344e-09
-4.48501e-08
4.97548e-09
-8.4929e-09
-4.41534e-08
4.24342e-09
-7.38178e-09
-4.30062e-08
3.59386e-09
-6.02289e-09
-4.12585e-08
3.03538e-09
-4.53076e-09
-3.8738e-08
2.55648e-09
-3.02705e-09
-3.51551e-08
2.13086e-09
-1.65697e-09
-3.0036e-08
1.71999e-09
-5.66039e-10
-2.25734e-08
1.24494e-09
-1.09572e-08
5.83737e-10
4.91382e-10
-1.19031e-08
4.78276e-10
1.43304e-09
-2.46059e-08
1.00319e-09
2.58412e-09
-3.26757e-08
1.37874e-09
3.83261e-09
-3.82814e-08
1.75606e-09
5.07656e-09
-4.22379e-08
2.1551e-09
6.23242e-09
-4.49915e-08
2.56681e-09
7.18879e-09
-4.69661e-08
3.04142e-09
7.84764e-09
-4.83934e-08
3.6169e-09
8.11771e-09
-4.93627e-08
4.27042e-09
7.92751e-09
-4.99436e-08
4.95214e-09
7.2291e-09
-5.02093e-08
5.62099e-09
5.97818e-09
-5.02821e-08
6.3299e-09
4.23131e-09
-5.02382e-08
6.99914e-09
2.22138e-09
-5.00956e-08
7.45096e-09
5.52889e-11
-5.00527e-08
7.68196e-09
-2.12749e-09
-5.00426e-08
7.6639e-09
-4.1442e-09
-5.00246e-08
7.39178e-09
-5.87072e-09
-5.0181e-08
6.95866e-09
-7.10452e-09
-5.0443e-08
6.40249e-09
-7.82464e-09
-5.02823e-08
5.67267e-09
-8.03887e-09
-4.99617e-08
4.96349e-09
-7.79188e-09
-4.93721e-08
4.27511e-09
-7.14631e-09
-4.84252e-08
3.6263e-09
-6.18825e-09
-4.70095e-08
3.04526e-09
-5.03619e-09
-4.49634e-08
2.55286e-09
-3.78585e-09
-4.21318e-08
2.14353e-09
-2.5429e-09
-3.81957e-08
1.79768e-09
-1.40112e-09
-3.26399e-08
1.46218e-09
-4.83852e-10
-2.45509e-08
1.06021e-09
-1.1936e-08
4.94917e-10
3.77692e-10
-1.2642e-08
3.61263e-10
1.08772e-09
-2.60845e-08
7.6859e-10
1.97825e-09
-3.46031e-08
1.03686e-09
2.93226e-09
-4.05038e-08
1.26842e-09
3.85753e-09
-4.47188e-08
1.55567e-09
4.71927e-09
-4.7757e-08
1.90387e-09
5.44678e-09
-4.99907e-08
2.29715e-09
5.97394e-09
-5.16649e-08
2.74441e-09
6.23299e-09
-5.28679e-08
3.24622e-09
6.0994e-09
-5.36004e-08
3.79037e-09
5.50015e-09
-5.40055e-08
4.39551e-09
4.49302e-09
-5.42922e-08
5.0173e-09
3.22471e-09
-5.45122e-08
5.54241e-09
1.71453e-09
-5.44894e-08
5.9041e-09
4.9112e-11
-5.44662e-08
6.07897e-09
-1.64505e-09
-5.43892e-08
6.04089e-09
-3.18902e-09
-5.43008e-08
5.82016e-09
-4.48919e-09
-5.43279e-08
5.44712e-09
-5.47092e-09
-5.43802e-08
4.91901e-09
-6.01619e-09
-5.40082e-08
4.27122e-09
-6.15026e-09
-5.35389e-08
3.7113e-09
-5.94123e-09
-5.27742e-08
3.19314e-09
-5.44642e-09
-5.16371e-08
2.71716e-09
-4.72647e-09
-5.00457e-08
2.31634e-09
-3.84899e-09
-4.78118e-08
1.97098e-09
-2.89535e-09
-4.47427e-08
1.65729e-09
-1.94462e-09
-4.05264e-08
1.37999e-09
-1.07122e-09
-3.46268e-08
1.11351e-09
-3.70488e-10
-2.60566e-08
8.05019e-10
-1.26815e-08
3.75053e-10
2.56033e-10
-1.31187e-08
2.20663e-10
6.9083e-10
-2.69825e-08
4.63179e-10
1.24911e-09
-3.58303e-08
6.6894e-10
1.85532e-09
-4.19448e-08
8.34783e-10
2.45061e-09
-4.63399e-08
1.02585e-09
3.00819e-09
-4.95608e-08
1.24623e-09
3.47709e-09
-5.19406e-08
1.48103e-09
3.79662e-09
-5.37017e-08
1.71729e-09
3.96979e-09
-5.50163e-08
1.97524e-09
3.87272e-09
-5.58567e-08
2.35339e-09
3.47862e-09
-5.64294e-08
2.818e-09
2.86647e-09
-5.6926e-08
3.24601e-09
2.06385e-09
-5.72914e-08
3.58185e-09
1.10363e-09
-5.7345e-08
3.81579e-09
5.17273e-11
-5.73606e-08
3.94637e-09
-1.01688e-09
-5.72572e-08
3.93664e-09
-1.99692e-09
-5.71271e-08
3.80641e-09
-2.80627e-09
-5.70866e-08
3.5681e-09
-3.43855e-09
-5.69904e-08
3.24251e-09
-3.82775e-09
-5.64321e-08
2.81308e-09
-3.9734e-09
-5.57531e-08
2.35978e-09
-3.86187e-09
-5.4823e-08
1.93725e-09
-3.52168e-09
-5.35896e-08
1.61231e-09
-3.01849e-09
-5.1938e-08
1.38906e-09
-2.43724e-09
-4.9605e-08
1.21201e-09
-1.82636e-09
-4.63936e-08
1.03995e-09
-1.22336e-09
-4.19991e-08
8.69706e-10
-6.72005e-10
-3.58793e-08
7.01189e-10
-2.32691e-10
-2.70016e-08
5.05707e-10
-1.31496e-08
2.35345e-10
9.5073e-11
-1.32904e-08
7.65348e-11
2.44835e-10
-2.72956e-08
1.63359e-10
4.45524e-10
-3.6274e-08
2.43033e-10
6.66207e-10
-4.24689e-08
3.03411e-10
8.89378e-10
-4.69273e-08
3.64204e-10
1.11523e-09
-5.02024e-08
4.15782e-10
1.3251e-09
-5.26122e-08
4.61809e-10
1.45188e-09
-5.43638e-08
5.35383e-10
1.47255e-09
-5.56862e-08
6.49265e-10
1.39723e-09
-5.65915e-08
8.10117e-10
1.27392e-09
-5.7285e-08
9.78916e-10
1.09071e-09
-5.78657e-08
1.12285e-09
7.46817e-10
-5.81695e-08
1.22193e-09
3.80131e-10
-5.82707e-08
1.29249e-09
3.51412e-11
-5.83774e-08
1.36179e-09
-3.48029e-10
-5.8293e-08
1.41901e-09
-7.06527e-10
-5.81834e-08
1.41487e-09
-9.9081e-10
-5.81248e-08
1.3225e-09
-1.21464e-09
-5.79662e-08
1.19956e-09
-1.35331e-09
-5.73422e-08
1.04873e-09
-1.40997e-09
-5.6586e-08
8.89556e-10
-1.37598e-09
-5.55929e-08
7.35919e-10
-1.25608e-09
-5.43196e-08
6.10097e-10
-1.07572e-09
-5.26323e-08
5.13944e-10
-8.65638e-10
-5.0249e-08
4.33931e-10
-6.45562e-10
-4.69759e-08
3.62258e-10
-4.29138e-10
-4.25151e-08
2.9952e-10
-2.33303e-10
-3.63161e-08
2.40888e-10
-8.04431e-11
-2.73264e-08
1.719e-10
-1.33125e-08
8.25203e-11
-6.31278e-11
-1.31576e-08
-6.9654e-11
-1.96241e-10
-2.7022e-08
-1.40467e-10
-3.59482e-10
-3.59193e-08
-1.91441e-10
-5.37763e-10
-4.20523e-08
-2.38312e-10
-7.21532e-10
-4.64621e-08
-2.81457e-10
-9.06551e-10
-4.97064e-08
-3.11091e-10
-1.07963e-09
-5.21071e-08
-3.32074e-10
-1.1886e-09
-5.38791e-08
-3.7576e-10
-1.18801e-09
-5.52053e-08
-4.81565e-10
-1.10429e-09
-5.60333e-08
-6.41935e-10
-9.98838e-10
-5.65965e-08
-7.93937e-10
-9.11053e-10
-5.70595e-08
-8.93987e-10
-7.71581e-10
-5.73514e-08
-9.57627e-10
-4.73232e-10
-5.75434e-08
-1.02577e-09
-3.43956e-11
-5.76832e-08
-1.13304e-09
3.23875e-10
-5.74757e-08
-1.17548e-09
6.31471e-10
-5.73633e-08
-1.12767e-09
9.08261e-10
-5.7349e-08
-1.05263e-09
1.05856e-09
-5.716e-08
-9.56576e-10
1.15504e-09
-5.65948e-08
-8.43956e-10
1.20316e-09
-5.59164e-08
-7.17756e-10
1.17597e-09
-5.49777e-08
-5.88065e-10
1.08349e-09
-5.37401e-08
-4.87046e-10
9.28307e-10
-5.20622e-08
-4.14932e-10
7.48918e-10
-4.97096e-08
-3.60036e-10
5.63197e-10
-4.64825e-08
-3.07704e-10
3.77801e-10
-4.20745e-08
-2.55189e-10
2.09902e-10
-3.59458e-08
-2.02385e-10
7.56471e-11
-2.70514e-08
-1.40699e-10
-1.31711e-08
-6.57738e-11
-2.19872e-10
-1.27158e-08
-2.21952e-10
-6.38175e-10
-2.6129e-08
-4.74786e-10
-1.15987e-09
-3.47387e-08
-6.58944e-10
-1.73081e-09
-4.06635e-08
-8.17897e-10
-2.30422e-09
-4.49051e-08
-9.83642e-10
-2.83557e-09
-4.80063e-08
-1.16875e-09
-3.27685e-09
-5.029e-08
-1.37591e-09
-3.58916e-09
-5.19576e-08
-1.60923e-09
-3.73347e-09
-5.319e-08
-1.87104e-09
-3.62085e-09
-5.39348e-08
-2.21114e-09
-3.24719e-09
-5.43321e-08
-2.63805e-09
-2.71039e-09
-5.45739e-08
-3.02249e-09
-1.98035e-09
-5.47638e-08
-3.3177e-09
-1.06158e-09
-5.49122e-08
-3.54995e-09
-9.36048e-12
-5.50341e-08
-3.70125e-09
1.00692e-09
-5.48041e-08
-3.6879e-09
1.96268e-09
-5.47587e-08
-3.56042e-09
2.79902e-09
-5.48556e-08
-3.32979e-09
3.299e-09
-5.46483e-08
-3.01176e-09
3.62397e-09
-5.42702e-08
-2.6496e-09
3.76778e-09
-5.38277e-08
-2.23255e-09
3.65881e-09
-5.30715e-08
-1.79726e-09
3.34533e-09
-5.19147e-08
-1.51193e-09
2.86612e-09
-5.026e-08
-1.323e-09
2.31626e-09
-4.80067e-08
-1.15314e-09
1.74724e-09
-4.49306e-08
-9.82925e-10
1.17626e-09
-4.06937e-08
-8.09876e-10
6.57621e-10
-3.47866e-08
-6.40619e-10
2.39062e-10
-2.6187e-08
-4.4589e-10
-1.27191e-08
-2.13024e-10
-3.61507e-10
-1.1992e-08
-3.62353e-10
-1.04123e-09
-2.46713e-08
-7.77992e-10
-1.88965e-09
-3.28109e-08
-1.07942e-09
-2.81391e-09
-3.83997e-08
-1.33953e-09
-3.73782e-09
-4.23702e-08
-1.61099e-09
-4.58143e-09
-4.52373e-08
-1.92549e-09
-5.2691e-09
-4.73144e-08
-2.28801e-09
-5.75613e-09
-4.87627e-08
-2.70793e-09
-6.00009e-09
-4.97646e-08
-3.18148e-09
-5.88049e-09
-5.03789e-08
-3.67554e-09
-5.31063e-09
-5.06574e-08
-4.24469e-09
-4.36423e-09
-5.06857e-08
-4.83469e-09
-3.12578e-09
-5.06681e-08
-5.33424e-09
-1.6492e-09
-5.06904e-08
-5.6985e-09
-1.40325e-11
-5.07741e-08
-5.89518e-09
1.61325e-09
-5.05799e-08
-5.85146e-09
3.12902e-09
-5.06097e-08
-5.66475e-09
4.44151e-09
-5.08568e-08
-5.31133e-09
5.33298e-09
-5.07411e-08
-4.79881e-09
5.87141e-09
-5.05746e-08
-4.23411e-09
6.03352e-09
-5.03238e-08
-3.66604e-09
5.82563e-09
-4.97669e-08
-3.09671e-09
5.31384e-09
-4.87972e-08
-2.60572e-09
4.58901e-09
-4.73376e-08
-2.19763e-09
3.73113e-09
-4.53003e-08
-1.84855e-09
2.82246e-09
-4.24844e-08
-1.53764e-09
1.91443e-09
-3.85201e-08
-1.26567e-09
1.07537e-09
-3.29411e-08
-1.00651e-09
3.8441e-10
-2.47878e-08
-7.08349e-10
-1.19923e-08
-3.42341e-10
-4.83695e-10
-1.10281e-08
-4.80282e-10
-1.38049e-09
-2.27415e-08
-1.03304e-09
-2.50215e-09
-3.02488e-08
-1.44044e-09
-3.72605e-09
-3.53981e-08
-1.77778e-09
-4.95528e-09
-3.90191e-08
-2.12195e-09
-6.09409e-09
-4.15746e-08
-2.52396e-09
-7.04228e-09
-4.33585e-08
-3.00783e-09
-7.68304e-09
-4.45441e-08
-3.57794e-09
-7.94497e-09
-4.52877e-08
-4.215e-09
-7.75946e-09
-4.56895e-08
-4.87496e-09
-7.06157e-09
-4.58241e-08
-5.53125e-09
-5.81168e-09
-4.57321e-08
-6.20354e-09
-4.127e-09
-4.55124e-08
-6.84039e-09
-2.16016e-09
-4.53501e-08
-7.30713e-09
-1.22402e-11
-4.53671e-08
-7.55493e-09
2.13114e-09
-4.52297e-08
-7.49359e-09
4.11865e-09
-4.53366e-08
-7.2607e-09
5.83097e-09
-4.57203e-08
-6.84896e-09
7.06002e-09
-4.57963e-08
-6.17389e-09
7.76674e-09
-4.58259e-08
-5.45555e-09
7.97108e-09
-4.5709e-08
-4.81922e-09
7.72104e-09
-4.53306e-08
-4.18631e-09
7.07836e-09
-4.4597e-08
-3.55751e-09
6.13914e-09
-4.34087e-08
-2.98967e-09
5.0011e-09
-4.16494e-08
-2.51297e-09
3.77733e-09
-3.91616e-08
-2.09913e-09
2.56533e-09
-3.56153e-08
-1.69282e-09
1.43495e-09
-3.05008e-08
-1.30995e-09
5.07348e-10
-2.29348e-08
-9.25415e-10
-1.10309e-08
-4.54107e-10
-5.7885e-10
-9.87637e-09
-5.72925e-10
-1.64732e-09
-2.04472e-08
-1.22588e-09
-2.99838e-09
-2.71855e-08
-1.71231e-09
-4.48881e-09
-3.1787e-08
-2.12067e-09
-5.97593e-09
-3.49953e-08
-2.53673e-09
-7.33264e-09
-3.72105e-08
-3.00744e-09
-8.44308e-09
-3.86872e-08
-3.56093e-09
-9.18616e-09
-3.95979e-08
-4.20325e-09
-9.46446e-09
-4.00806e-08
-4.92892e-09
-9.20411e-09
-4.02429e-08
-5.70705e-09
-8.36815e-09
-4.0179e-08
-6.48113e-09
-6.9312e-09
-3.99724e-08
-7.1968e-09
-4.91485e-09
-3.96715e-08
-7.85734e-09
-2.55009e-09
-3.93292e-08
-8.38571e-09
-9.37699e-12
-3.92197e-08
-8.6882e-09
2.5229e-09
-3.91217e-08
-8.64035e-09
4.88178e-09
-3.93134e-08
-8.38217e-09
6.89744e-09
-3.97977e-08
-7.93834e-09
8.35487e-09
-4.0018e-08
-7.23591e-09
9.21278e-09
-4.02083e-08
-6.47568e-09
9.48276e-09
-4.0277e-08
-5.70206e-09
9.20877e-09
-4.01239e-08
-4.93278e-09
8.46762e-09
-3.96476e-08
-4.20833e-09
7.36182e-09
-3.87396e-08
-3.56343e-09
6.00021e-09
-3.72698e-08
-3.018e-09
4.50086e-09
-3.50871e-08
-2.57519e-09
3.01053e-09
-3.19436e-08
-2.18149e-09
1.66564e-09
-2.7387e-08
-1.76894e-09
5.83679e-10
-2.05976e-08
-1.25523e-09
-9.8749e-09
-5.72345e-10
-6.4341e-10
-8.58042e-09
-6.52605e-10
-1.85979e-09
-1.78246e-08
-1.40637e-09
-3.38234e-09
-2.37283e-08
-1.9347e-09
-5.04552e-09
-2.77467e-08
-2.37716e-09
-6.70089e-09
-3.05168e-08
-2.82323e-09
-8.20811e-09
-3.23769e-08
-3.32644e-09
-9.43127e-09
-3.35513e-08
-3.9128e-09
-1.02424e-08
-3.41972e-08
-4.58972e-09
-1.05318e-08
-3.44393e-08
-5.35203e-09
-1.02178e-08
-3.43847e-08
-6.17244e-09
-9.25667e-09
-3.41358e-08
-7.0045e-09
-7.64961e-09
-3.37943e-08
-7.78528e-09
-5.43301e-09
-3.34294e-08
-8.4588e-09
-2.79994e-09
-3.30154e-08
-8.94687e-09
-6.56581e-12
-3.27731e-08
-9.23997e-09
2.79337e-09
-3.2711e-08
-9.2107e-09
5.41963e-09
-3.29767e-08
-8.96302e-09
7.6268e-09
-3.34737e-08
-8.53132e-09
9.24672e-09
-3.38186e-08
-7.81954e-09
1.02192e-08
-3.41625e-08
-7.01841e-09
1.0542e-08
-3.44159e-08
-6.18401e-09
1.02578e-08
-3.44764e-08
-5.36327e-09
9.44982e-09
-3.42398e-08
-4.59993e-09
8.22896e-09
-3.35985e-08
-3.92028e-09
6.72108e-09
-3.24277e-08
-3.33434e-09
5.0535e-09
-3.05754e-08
-2.84429e-09
3.37106e-09
-2.78325e-08
-2.42874e-09
1.8434e-09
-2.38501e-08
-2.00931e-09
6.39753e-10
-1.79385e-08
-1.45557e-09
-8.57957e-09
-6.55598e-10
-6.7336e-10
-7.20469e-09
-7.02435e-10
-1.98234e-09
-1.50023e-08
-1.51334e-09
-3.61041e-09
-2.00417e-08
-2.05863e-09
-5.37892e-09
-2.34591e-08
-2.51924e-09
-7.13745e-09
-2.57775e-08
-2.98084e-09
-8.73402e-09
-2.72865e-08
-3.49401e-09
-1.00238e-08
-2.81762e-08
-4.08541e-09
-1.08714e-08
-2.85857e-08
-4.76402e-09
-1.11603e-08
-2.86289e-08
-5.52157e-09
-1.08059e-08
-2.84082e-08
-6.33106e-09
-9.76584e-09
-2.80219e-08
-7.15414e-09
-8.0416e-09
-2.75741e-08
-7.94455e-09
-5.71967e-09
-2.71249e-08
-8.62653e-09
-2.94431e-09
-2.67021e-08
-9.0888e-09
-3.70743e-12
-2.64031e-08
-9.3106e-09
2.94663e-09
-2.63782e-08
-9.28315e-09
5.71148e-09
-2.66786e-08
-9.06306e-09
8.02604e-09
-2.71524e-08
-8.63607e-09
9.75415e-09
-2.75926e-08
-7.95428e-09
1.08026e-08
-2.80428e-08
-7.16825e-09
1.11648e-08
-2.8433e-08
-6.34529e-09
1.0882e-08
-2.86593e-08
-5.53446e-09
1.00388e-08
-2.86209e-08
-4.77569e-09
8.75032e-09
-2.82155e-08
-4.09461e-09
7.1536e-09
-2.73291e-08
-3.502e-09
5.39164e-09
-2.58231e-08
-2.99037e-09
3.61083e-09
-2.35121e-08
-2.5397e-09
1.97646e-09
-2.01198e-08
-2.096e-09
6.79607e-10
-1.51037e-08
-1.538e-09
-7.2001e-09
-6.99883e-10
-6.95409e-10
-5.79419e-09
-7.15155e-10
-2.03057e-09
-1.21367e-08
-1.53051e-09
-3.6921e-09
-1.62857e-08
-2.09454e-09
-5.50196e-09
-1.90874e-08
-2.56187e-09
-7.30185e-09
-2.09583e-08
-3.01939e-09
-8.93414e-09
-2.21333e-08
-3.52097e-09
-1.02481e-08
-2.27683e-08
-4.09401e-09
-1.1104e-08
-2.29833e-08
-4.74649e-09
-1.13841e-08
-2.28801e-08
-5.46879e-09
-1.10058e-08
-2.25498e-08
-6.23682e-09
-9.92275e-09
-2.20875e-08
-7.01756e-09
-8.14819e-09
-2.15793e-08
-7.76961e-09
-5.81344e-09
-2.10721e-08
-8.38769e-09
-3.03321e-09
-2.06722e-08
-8.81017e-09
-2.41918e-11
-2.04116e-08
-9.00053e-09
2.97106e-09
-2.03841e-08
-8.98939e-09
5.74121e-09
-2.06416e-08
-8.80723e-09
8.11421e-09
-2.1104e-08
-8.42152e-09
9.90878e-09
-2.15952e-08
-7.7922e-09
1.09988e-08
-2.21006e-08
-7.03247e-09
1.13849e-08
-2.25678e-08
-6.25133e-09
1.11104e-08
-2.29028e-08
-5.48203e-09
1.02585e-08
-2.3011e-08
-4.75814e-09
8.94655e-09
-2.27992e-08
-4.10439e-09
7.31437e-09
-2.21666e-08
-3.53042e-09
5.51299e-09
-2.09939e-08
-3.02801e-09
3.69852e-09
-1.91249e-08
-2.57279e-09
2.02758e-09
-1.63311e-08
-2.11783e-09
6.89188e-10
-1.22014e-08
-1.56391e-09
-5.7932e-09
-7.17726e-10
-6.90068e-10
-4.40426e-09
-6.99924e-10
-1.99882e-09
-9.33211e-09
-1.49591e-09
-3.63687e-09
-1.2594e-08
-2.05365e-09
-5.42812e-09
-1.47902e-08
-2.50603e-09
-7.21322e-09
-1.62307e-08
-2.94256e-09
-8.83404e-09
-1.70965e-08
-3.41612e-09
-1.01364e-08
-1.75133e-08
-3.9528e-09
-1.09806e-08
-1.75796e-08
-4.5596e-09
-1.12511e-08
-1.73809e-08
-5.22875e-09
-1.08645e-08
-1.69995e-08
-5.93701e-09
-9.78159e-09
-1.65157e-08
-6.65495e-09
-8.03515e-09
-1.59978e-08
-7.32814e-09
-5.73619e-09
-1.5506e-08
-7.86529e-09
-3.00802e-09
-1.51398e-08
-8.26077e-09
-2.81331e-11
-1.49363e-08
-8.45529e-09
2.93414e-09
-1.49055e-08
-8.44083e-09
5.66681e-09
-1.51157e-08
-8.25861e-09
7.99811e-09
-1.55326e-08
-7.90288e-09
9.76579e-09
-1.60125e-08
-7.35052e-09
1.08547e-08
-1.65236e-08
-6.66604e-09
1.12471e-08
-1.70111e-08
-5.94935e-09
1.09836e-08
-1.73975e-08
-5.24186e-09
1.01435e-08
-1.75991e-08
-4.57175e-09
8.84314e-09
-1.7536e-08
-3.96293e-09
7.22325e-09
-1.71216e-08
-3.42519e-09
5.43789e-09
-1.62575e-08
-2.95107e-09
3.64379e-09
-1.48167e-08
-2.51418e-09
2.00024e-09
-1.26229e-08
-2.06473e-09
6.82675e-10
-9.36809e-09
-1.51578e-09
-4.40857e-09
-7.01964e-10
-6.52351e-10
-3.09592e-09
-6.56049e-10
-1.89075e-09
-6.68983e-09
-1.40393e-09
-3.45025e-09
-9.10694e-09
-1.92761e-09
-5.16713e-09
-1.07263e-08
-2.34709e-09
-6.88785e-09
-1.1763e-08
-2.7471e-09
-8.45656e-09
-1.23503e-08
-3.17761e-09
-9.71944e-09
-1.25853e-08
-3.66519e-09
-1.05392e-08
-1.25454e-08
-4.21451e-09
-1.08014e-08
-1.23006e-08
-4.81809e-09
-1.04261e-08
-1.1917e-08
-5.45791e-09
-9.37542e-09
-1.14574e-08
-6.10906e-09
-7.70317e-09
-1.09779e-08
-6.69226e-09
-5.49453e-09
-1.0549e-08
-7.16583e-09
-2.87825e-09
-1.02326e-08
-7.52358e-09
-2.51375e-11
-1.00702e-08
-7.71929e-09
2.81269e-09
-1.00451e-08
-7.69833e-09
5.43478e-09
-1.02171e-08
-7.52077e-09
7.66808e-09
-1.05651e-08
-7.20089e-09
9.35875e-09
-1.09889e-08
-6.71442e-09
1.04139e-08
-1.14641e-08
-6.11482e-09
1.07952e-08
-1.19242e-08
-5.46827e-09
1.05391e-08
-1.2311e-08
-4.83042e-09
9.72421e-09
-1.25584e-08
-4.22588e-09
8.46366e-09
-1.26005e-08
-3.67495e-09
6.89601e-09
-1.23677e-08
-3.18637e-09
5.17387e-09
-1.1781e-08
-2.75446e-09
3.45545e-09
-1.07444e-08
-2.35398e-09
1.89406e-09
-9.12687e-09
-1.93472e-09
6.51254e-10
-6.71196e-09
-1.41336e-09
-3.09996e-09
-6.57369e-10
-5.82261e-10
-1.93076e-09
-5.82959e-10
-1.6997e-09
-4.32102e-09
-1.25142e-09
-3.12951e-09
-5.96463e-09
-1.71254e-09
-4.72205e-09
-7.05784e-09
-2.07595e-09
-6.33405e-09
-7.72942e-09
-2.42168e-09
-7.8155e-09
-8.07412e-09
-2.79479e-09
-9.01522e-09
-8.16523e-09
-3.22046e-09
-9.7992e-09
-8.05947e-09
-3.70195e-09
-1.00577e-08
-7.80912e-09
-4.23306e-09
-9.71368e-09
-7.46309e-09
-4.79789e-09
-8.73704e-09
-7.06665e-09
-5.36746e-09
-7.17985e-09
-6.67081e-09
-5.8645e-09
-5.11769e-09
-6.32453e-09
-6.28685e-09
-2.67665e-09
-6.06962e-09
-6.60418e-09
-2.192e-11
-5.93906e-09
-6.78592e-09
2.6203e-09
-5.92419e-09
-6.7631e-09
5.06263e-09
-6.06044e-09
-6.599e-09
7.14003e-09
-6.32985e-09
-6.31272e-09
8.7147e-09
-6.67541e-09
-5.88837e-09
9.70021e-09
-7.07078e-09
-5.37901e-09
1.00499e-08
-7.46716e-09
-4.80684e-09
9.79736e-09
-7.81489e-09
-4.24364e-09
9.01775e-09
-8.06697e-09
-3.71188e-09
7.82022e-09
-8.17437e-09
-3.22862e-09
6.33963e-09
-8.0844e-09
-2.80271e-09
4.72696e-09
-7.74046e-09
-2.42793e-09
3.13422e-09
-7.07038e-09
-2.08137e-09
1.70475e-09
-5.98096e-09
-1.7165e-09
5.83922e-10
-4.33699e-09
-1.25417e-09
-1.93328e-09
-5.82771e-10
-4.76952e-10
-9.7769e-10
-4.76157e-10
-1.423e-09
-2.35193e-09
-1.02308e-09
-2.66911e-09
-3.32931e-09