/*--------------------------------*- C++ -*----------------------------------*\
| =========                 |                                                 |
| \\      /  F ield         | OpenFOAM: The Open Source CFD Toolbox           |
|  \\    /   O peration     | Version:  v1912                                 |
|   \\  /    A nd           | Website:  www.openfoam.com                      |
|    \\/     M anipulation  |                                                 |
\*---------------------------------------------------------------------------*/
FoamFile
{
    version     2.0;
    format      ascii;
    class       volVectorField;
    location    "24/oil";
    object      U;
}
// * * * * * * * * * * * * * * * * * * * * * * * * * * * * * * * * * * * * * //

dimensions      [0 1 -1 0 0 0 0];


internalField   nonuniform List<vector> 
35580
(
(-6.37018e-10 1.29914e-09 -6.49243e-10)
(7.15496e-10 1.15389e-09 -1.57461e-09)
(6.20114e-09 1.12388e-09 -2.53971e-09)
(1.48317e-08 1.40613e-09 -3.5153e-09)
(2.52999e-08 1.86423e-09 -4.29983e-09)
(3.61482e-08 2.40528e-09 -4.82663e-09)
(4.60263e-08 2.97717e-09 -5.09095e-09)
(5.37647e-08 3.55542e-09 -5.1231e-09)
(5.84055e-08 4.12475e-09 -4.96912e-09)
(5.93152e-08 4.67272e-09 -4.66775e-09)
(5.61459e-08 5.16752e-09 -4.26506e-09)
(4.89208e-08 5.58627e-09 -3.8629e-09)
(3.80784e-08 5.91489e-09 -3.48933e-09)
(2.42973e-08 6.16492e-09 -3.22282e-09)
(8.6368e-09 6.30305e-09 -3.08318e-09)
(-7.7127e-09 6.32033e-09 -3.08562e-09)
(-2.34313e-08 6.17782e-09 -3.22177e-09)
(-3.72625e-08 5.92495e-09 -3.48006e-09)
(-4.82014e-08 5.57694e-09 -3.8373e-09)
(-5.55289e-08 5.16692e-09 -4.24501e-09)
(-5.88502e-08 4.68077e-09 -4.64373e-09)
(-5.80701e-08 4.12651e-09 -4.95887e-09)
(-5.35228e-08 3.55704e-09 -5.11228e-09)
(-4.58716e-08 2.98013e-09 -5.08512e-09)
(-3.60643e-08 2.40754e-09 -4.82191e-09)
(-2.52759e-08 1.86712e-09 -4.29522e-09)
(-1.48502e-08 1.40728e-09 -3.50813e-09)
(-6.24354e-09 1.11644e-09 -2.52651e-09)
(-7.47754e-10 1.1298e-09 -1.55952e-09)
(6.24015e-10 1.24611e-09 -6.41387e-10)
(3.57043e-10 -1.27588e-09 3.50511e-10)
(6.79669e-09 -7.56996e-09 3.11969e-10)
(1.97018e-08 -1.2552e-08 -1.35917e-10)
(3.76507e-08 -1.52488e-08 -7.19825e-10)
(5.85081e-08 -1.60987e-08 -1.14897e-09)
(7.97774e-08 -1.55702e-08 -1.2936e-09)
(9.89563e-08 -1.40449e-08 -1.12404e-09)
(1.13793e-07 -1.18072e-08 -6.62745e-10)
(1.22421e-07 -9.09778e-09 3.59096e-11)
(1.23529e-07 -6.13928e-09 8.92352e-10)
(1.16392e-07 -3.17143e-09 1.89188e-09)
(1.01026e-07 -4.48328e-10 2.82995e-09)
(7.83803e-08 1.80008e-09 3.65421e-09)
(4.99427e-08 3.44408e-09 4.2465e-09)
(1.77401e-08 4.31889e-09 4.55986e-09)
(-1.58637e-08 4.34178e-09 4.57127e-09)
(-4.81954e-08 3.44034e-09 4.26438e-09)
(-7.67257e-08 1.77126e-09 3.69182e-09)
(-9.94368e-08 -5.20363e-10 2.88964e-09)
(-1.14921e-07 -3.20958e-09 1.95332e-09)
(-1.22328e-07 -6.17179e-09 9.70903e-10)
(-1.21463e-07 -9.12587e-09 9.29109e-11)
(-1.13047e-07 -1.18181e-08 -6.08514e-10)
(-9.84314e-08 -1.40441e-08 -1.07976e-09)
(-7.9447e-08 -1.55738e-08 -1.2557e-09)
(-5.83393e-08 -1.61177e-08 -1.11471e-09)
(-3.76022e-08 -1.52954e-08 -6.91559e-10)
(-1.97123e-08 -1.26349e-08 -1.1256e-10)
(-6.80955e-09 -7.67193e-09 3.22576e-10)
(-3.55629e-10 -1.38914e-09 3.37501e-10)
(1.32994e-09 -1.21566e-08 1.33018e-09)
(1.32597e-08 -3.19888e-08 2.35201e-09)
(3.23896e-08 -4.66192e-08 2.56612e-09)
(5.69624e-08 -5.58979e-08 2.53599e-09)
(8.43881e-08 -6.08213e-08 2.58792e-09)
(1.1181e-07 -6.23412e-08 2.87312e-09)
(1.36225e-07 -6.12708e-08 3.44472e-09)
(1.54845e-07 -5.82698e-08 4.29778e-09)
(1.65327e-07 -5.39078e-08 5.37905e-09)
(1.66004e-07 -4.87127e-08 6.59387e-09)
(1.55914e-07 -4.32151e-08 7.9335e-09)
(1.35025e-07 -3.79843e-08 9.17483e-09)
(1.04582e-07 -3.35936e-08 1.02248e-08)
(6.65632e-08 -3.04103e-08 1.09846e-08)
(2.36259e-08 -2.87223e-08 1.13892e-08)
(-2.11833e-08 -2.87216e-08 1.14177e-08)
(-6.43224e-08 -3.04711e-08 1.10103e-08)
(-1.02461e-07 -3.37391e-08 1.02632e-08)
(-1.32953e-07 -3.81869e-08 9.21543e-09)
(-1.54041e-07 -4.33778e-08 7.99781e-09)
(-1.64482e-07 -4.88544e-08 6.6728e-09)
(-1.64105e-07 -5.4004e-08 5.43553e-09)
(-1.53896e-07 -5.83271e-08 4.35232e-09)
(-1.35546e-07 -6.13062e-08 3.49536e-09)
(-1.11375e-07 -6.23785e-08 2.91924e-09)
(-8.41542e-08 -6.08852e-08 2.63227e-09)
(-5.6873e-08 -5.60081e-08 2.5733e-09)
(-3.23795e-08 -4.67815e-08 2.5912e-09)
(-1.32754e-08 -3.21594e-08 2.35548e-09)
(-1.3411e-09 -1.22708e-08 1.3132e-09)
(2.11199e-09 -2.99617e-08 2.10911e-09)
(1.86602e-08 -6.96074e-08 3.9043e-09)
(4.29882e-08 -9.74234e-08 4.57036e-09)
(7.27678e-08 -1.15846e-07 4.91104e-09)
(1.05014e-07 -1.26869e-07 5.3085e-09)
(1.36665e-07 -1.32038e-07 5.91171e-09)
(1.64479e-07 -1.3264e-07 6.77888e-09)
(1.85413e-07 -1.29748e-07 7.91071e-09)
(1.9686e-07 -1.24316e-07 9.25818e-09)
(1.96926e-07 -1.17236e-07 1.07235e-08)
(1.84481e-07 -1.09403e-07 1.22724e-08)
(1.59495e-07 -1.01679e-07 1.37103e-08)
(1.23414e-07 -9.50373e-08 1.49364e-08)
(7.84595e-08 -9.01503e-08 1.58028e-08)
(2.78203e-08 -8.75702e-08 1.62577e-08)
(-2.50276e-08 -8.75986e-08 1.6294e-08)
(-7.59263e-08 -9.02298e-08 1.58189e-08)
(-1.20979e-07 -9.51737e-08 1.4953e-08)
(-1.57125e-07 -1.01821e-07 1.37378e-08)
(-1.82337e-07 -1.09512e-07 1.23228e-08)
(-1.95138e-07 -1.1733e-07 1.07717e-08)
(-1.95403e-07 -1.24376e-07 9.29292e-09)
(-1.84274e-07 -1.29784e-07 7.9474e-09)
(-1.63644e-07 -1.32666e-07 6.81576e-09)
(-1.36107e-07 -1.3208e-07 5.95015e-09)
(-1.047e-07 -1.26957e-07 5.34941e-09)
(-7.26375e-08 -1.15997e-07 4.94269e-09)
(-4.2961e-08 -9.76232e-08 4.58282e-09)
(-1.86835e-08 -6.97907e-08 3.89297e-09)
(-2.13252e-09 -3.01021e-08 2.08418e-09)
(2.66547e-09 -5.32184e-08 2.66233e-09)
(2.27315e-08 -1.17601e-07 4.9764e-09)
(5.11472e-08 -1.61277e-07 5.92802e-09)
(8.49997e-08 -1.9061e-07 6.50049e-09)
(1.20918e-07 -2.09125e-07 7.11275e-09)
(1.55686e-07 -2.19125e-07 7.93458e-09)
(1.85923e-07 -2.22428e-07 9.01565e-09)
(2.08452e-07 -2.20526e-07 1.0364e-08)
(2.20516e-07 -2.14761e-07 1.19294e-08)
(2.20084e-07 -2.06395e-07 1.36157e-08)
(2.05917e-07 -1.9669e-07 1.53437e-08)
(1.77929e-07 -1.86797e-07 1.69636e-08)
(1.37602e-07 -1.78069e-07 1.8359e-08)
(8.74162e-08 -1.71509e-07 1.93241e-08)
(3.09767e-08 -1.68058e-07 1.98305e-08)
(-2.79276e-08 -1.68103e-07 1.98746e-08)
(-8.46642e-08 -1.71565e-07 1.93447e-08)
(-1.34892e-07 -1.78086e-07 1.83733e-08)
(-1.75321e-07 -1.86792e-07 1.70098e-08)
(-2.03579e-07 -1.96664e-07 1.53977e-08)
(-2.18126e-07 -2.06374e-07 1.36617e-08)
(-2.18927e-07 -2.14744e-07 1.19691e-08)
(-2.07209e-07 -2.20527e-07 1.04057e-08)
(-1.85003e-07 -2.2245e-07 9.05646e-09)
(-1.55055e-07 -2.19186e-07 7.9716e-09)
(-1.20543e-07 -2.09236e-07 7.14756e-09)
(-8.48343e-08 -1.90788e-07 6.51963e-09)
(-5.11124e-08 -1.61483e-07 5.92119e-09)
(-2.27689e-08 -1.17736e-07 4.939e-09)
(-2.69856e-09 -5.33766e-08 2.62489e-09)
(3.01863e-09 -8.03437e-08 3.02983e-09)
(2.55173e-08 -1.73057e-07 5.66471e-09)
(5.68925e-08 -2.34593e-07 6.77723e-09)
(9.37249e-08 -2.76109e-07 7.48501e-09)
(1.32315e-07 -3.03093e-07 8.23013e-09)
(1.69342e-07 -3.18821e-07 9.19891e-09)
(2.01338e-07 -3.25693e-07 1.04433e-08)
(2.25048e-07 -3.25635e-07 1.19777e-08)
(2.3762e-07 -3.2036e-07 1.37465e-08)
(2.36911e-07 -3.11471e-07 1.56563e-08)
(2.21642e-07 -3.00578e-07 1.75851e-08)
(1.9161e-07 -2.89147e-07 1.9421e-08)
(1.48163e-07 -2.78763e-07 2.10003e-08)
(9.40961e-08 -2.70773e-07 2.20882e-08)
(3.3315e-08 -2.66556e-07 2.26506e-08)
(-3.00952e-08 -2.66594e-07 2.26928e-08)
(-9.12059e-08 -2.7082e-07 2.21025e-08)
(-1.4527e-07 -2.78672e-07 2.10147e-08)
(-1.88837e-07 -2.89072e-07 1.94882e-08)
(-2.1918e-07 -3.00498e-07 1.7653e-08)
(-2.34858e-07 -3.11406e-07 1.57157e-08)
(-2.35962e-07 -3.20323e-07 1.38011e-08)
(-2.23756e-07 -3.25642e-07 1.20309e-08)
(-2.00383e-07 -3.25742e-07 1.04979e-08)
(-1.6868e-07 -3.18918e-07 9.24386e-09)
(-1.31909e-07 -3.03234e-07 8.26745e-09)
(-9.35341e-08 -2.76294e-07 7.49769e-09)
(-5.68548e-08 -2.34775e-07 6.75376e-09)
(-2.55773e-08 -1.73128e-07 5.60392e-09)
(-3.0674e-09 -8.05197e-08 2.98116e-09)
(3.22038e-09 -1.09926e-07 3.23558e-09)
(2.7164e-08 -2.334e-07 6.04423e-09)
(6.03498e-08 -3.14153e-07 7.25301e-09)
(9.90147e-08 -3.68724e-07 8.03602e-09)
(1.39257e-07 -4.04908e-07 8.86452e-09)
(1.77686e-07 -4.27109e-07 9.94562e-09)
(2.10809e-07 -4.38382e-07 1.13277e-08)
(2.35335e-07 -4.4109e-07 1.30335e-08)
(2.48349e-07 -4.37289e-07 1.50002e-08)
(2.47626e-07 -4.28876e-07 1.71348e-08)
(2.31833e-07 -4.17746e-07 1.92862e-08)
(2.00646e-07 -4.05671e-07 2.13434e-08)
(1.55229e-07 -3.94367e-07 2.31283e-08)
(9.85821e-08 -3.85353e-07 2.43502e-08)
(3.48722e-08 -3.80531e-07 2.49568e-08)
(-3.15427e-08 -3.80546e-07 2.50005e-08)
(-9.56176e-08 -3.85436e-07 2.43544e-08)
(-1.52254e-07 -3.94247e-07 2.31542e-08)
(-1.97795e-07 -4.05617e-07 2.14349e-08)
(-2.29317e-07 -4.17702e-07 1.93766e-08)
(-2.4554e-07 -4.2885e-07 1.72144e-08)
(-2.46677e-07 -4.37302e-07 1.50724e-08)
(-2.34036e-07 -4.41158e-07 1.30995e-08)
(-2.09853e-07 -4.38496e-07 1.13927e-08)
(-1.77023e-07 -4.27261e-07 9.99563e-09)
(-1.38842e-07 -4.05085e-07 8.90519e-09)
(-9.88119e-08 -3.68906e-07 8.0412e-09)
(-6.03073e-08 -3.14265e-07 7.20969e-09)
(-2.7235e-08 -2.33366e-07 5.9685e-09)
(-3.27471e-09 -1.10149e-07 3.18452e-09)
(3.28144e-09 -1.40702e-07 3.31019e-09)
(2.77367e-08 -2.96218e-07 6.18004e-09)
(6.15649e-08 -3.96908e-07 7.42951e-09)
(1.00844e-07 -4.65038e-07 8.25344e-09)
(1.41609e-07 -5.10953e-07 9.13135e-09)
(1.80474e-07 -5.40299e-07 1.02919e-08)
(2.13981e-07 -5.56821e-07 1.17934e-08)
(2.3887e-07 -5.63328e-07 1.36548e-08)
(2.52211e-07 -5.62164e-07 1.58107e-08)
(2.51715e-07 -5.5547e-07 1.81696e-08)
(2.35983e-07 -5.45362e-07 2.05615e-08)
(2.04568e-07 -5.33814e-07 2.283e-08)
(1.58376e-07 -5.22555e-07 2.48325e-08)
(1.0052e-07 -5.1301e-07 2.62004e-08)
(3.55212e-08 -5.07902e-07 2.68691e-08)
(-3.2216e-08 -5.08012e-07 2.69394e-08)
(-9.76e-08 -5.13285e-07 2.62177e-08)
(-1.55431e-07 -5.22539e-07 2.48849e-08)
(-2.0172e-07 -5.33861e-07 2.29288e-08)
(-2.33479e-07 -5.45426e-07 2.06519e-08)
(-2.49638e-07 -5.55547e-07 1.82519e-08)
(-2.50552e-07 -5.62282e-07 1.58862e-08)
(-2.37584e-07 -5.63505e-07 1.3723e-08)
(-2.13032e-07 -5.57052e-07 1.18616e-08)
(-1.79809e-07 -5.40555e-07 1.03453e-08)
(-1.41186e-07 -5.11208e-07 9.16375e-09)
(-1.00631e-07 -4.65239e-07 8.23966e-09)
(-6.15168e-08 -3.96947e-07 7.37154e-09)
(-2.7809e-08 -2.96083e-07 6.10451e-09)
(-3.34085e-09 -1.41026e-07 3.2655e-09)
(3.22865e-09 -1.71544e-07 3.25699e-09)
(2.72824e-08 -3.59173e-07 6.07652e-09)
(6.05177e-08 -4.79912e-07 7.31904e-09)
(9.90676e-08 -5.61747e-07 8.17242e-09)
(1.3906e-07 -6.17642e-07 9.08301e-09)
(1.77218e-07 -6.54649e-07 1.02771e-08)
(2.10191e-07 -6.77228e-07 1.18526e-08)
(2.34822e-07 -6.88583e-07 1.38262e-08)
(2.48239e-07 -6.91309e-07 1.61283e-08)
(2.4812e-07 -6.87706e-07 1.86724e-08)
(2.33001e-07 -6.80005e-07 2.12739e-08)
(2.02366e-07 -6.70221e-07 2.37258e-08)
(1.56833e-07 -6.60101e-07 2.58907e-08)
(9.94645e-08 -6.50905e-07 2.74194e-08)
(3.51597e-08 -6.4612e-07 2.8199e-08)
(-3.19207e-08 -6.46252e-07 2.82679e-08)
(-9.66088e-08 -6.51155e-07 2.74075e-08)
(-1.53951e-07 -6.60099e-07 2.59387e-08)
(-1.99554e-07 -6.70359e-07 2.38213e-08)
(-2.30559e-07 -6.80201e-07 2.1363e-08)
(-2.46093e-07 -6.8792e-07 1.876e-08)
(-2.46631e-07 -6.91564e-07 1.62092e-08)
(-2.33583e-07 -6.8891e-07 1.3897e-08)
(-2.09269e-07 -6.77616e-07 1.19199e-08)
(-1.76566e-07 -6.55048e-07 1.03196e-08)
(-1.38648e-07 -6.17971e-07 9.07873e-09)
(-9.88492e-08 -5.61881e-07 8.12592e-09)
(-6.04525e-08 -4.79779e-07 7.25263e-09)
(-2.73323e-08 -3.5891e-07 6.00513e-09)
(-3.27853e-09 -1.71938e-07 3.21205e-09)
(3.05982e-09 -2.01288e-07 3.06016e-09)
(2.57786e-08 -4.19893e-07 5.71074e-09)
(5.71488e-08 -5.60116e-07 6.88354e-09)
(9.35221e-08 -6.55434e-07 7.73731e-09)
(1.31291e-07 -7.21271e-07 8.67721e-09)
(1.67401e-07 -7.66135e-07 9.87863e-09)
(1.98724e-07 -7.95362e-07 1.14631e-08)
(2.22296e-07 -8.12472e-07 1.34747e-08)
(2.35392e-07 -8.20234e-07 1.58337e-08)
(2.35726e-07 -8.2102e-07 1.84671e-08)
(2.21774e-07 -8.17079e-07 2.11883e-08)
(1.92946e-07 -8.10305e-07 2.37672e-08)
(1.49672e-07 -8.02294e-07 2.59741e-08)
(9.48467e-08 -7.94365e-07 2.7608e-08)
(3.35509e-08 -7.90532e-07 2.8512e-08)
(-3.05166e-08 -7.9067e-07 2.8583e-08)
(-9.216e-08 -7.94473e-07 2.75952e-08)
(-1.46853e-07 -8.0196e-07 2.60123e-08)
(-1.90176e-07 -8.10235e-07 2.38659e-08)
(-2.19418e-07 -8.1732e-07 2.12759e-08)
(-2.33755e-07 -8.21377e-07 1.85596e-08)
(-2.33849e-07 -8.2065e-07 1.59163e-08)
(-2.21122e-07 -8.12988e-07 1.35444e-08)
(-1.9784e-07 -7.95951e-07 1.15354e-08)
(-1.66761e-07 -7.66678e-07 9.91846e-09)
(-1.3087e-07 -7.21562e-07 8.67479e-09)
(-9.32661e-08 -6.55377e-07 7.74168e-09)
(-5.70194e-08 -5.59784e-07 6.90352e-09)
(-2.57746e-08 -4.19563e-07 5.72419e-09)
(-3.08731e-09 -2.01764e-07 3.05522e-09)
(2.77199e-09 -2.28705e-07 2.73252e-09)
(2.31934e-08 -4.758e-07 5.12133e-09)
(5.14013e-08 -6.34123e-07 6.16664e-09)
(8.40766e-08 -7.42287e-07 6.95288e-09)
(1.18046e-07 -8.17755e-07 7.88366e-09)
(1.50616e-07 -8.70325e-07 9.06181e-09)
(1.79029e-07 -9.0642e-07 1.0586e-08)
(2.00587e-07 -9.29868e-07 1.25229e-08)
(2.12817e-07 -9.43472e-07 1.47917e-08)
(2.13544e-07 -9.49595e-07 1.73679e-08)
(2.01187e-07 -9.50356e-07 2.00674e-08)
(1.75214e-07 -9.47351e-07 2.2643e-08)
(1.36073e-07 -9.42371e-07 2.47765e-08)
(8.63516e-08 -9.36996e-07 2.64235e-08)
(3.06002e-08 -9.34516e-07 2.7365e-08)
(-2.78068e-08 -9.34699e-07 2.74542e-08)
(-8.38554e-08 -9.37084e-07 2.64491e-08)
(-1.33393e-07 -9.4203e-07 2.47649e-08)
(-1.72699e-07 -9.47477e-07 2.26829e-08)
(-1.99073e-07 -9.50783e-07 2.01088e-08)
(-2.1169e-07 -9.50137e-07 1.74551e-08)
(-2.1137e-07 -9.4404e-07 1.48787e-08)
(-1.99512e-07 -9.30562e-07 1.25881e-08)
(-1.78229e-07 -9.07229e-07 1.06655e-08)
(-1.50059e-07 -8.70941e-07 9.10325e-09)
(-1.17675e-07 -8.17766e-07 7.87958e-09)
(-8.38049e-08 -7.41796e-07 6.94078e-09)
(-5.11989e-08 -6.33467e-07 6.1238e-09)
(-2.31226e-08 -4.75305e-07 5.06438e-09)
(-2.75411e-09 -2.2916e-07 2.71783e-09)
(2.35024e-09 -2.52586e-07 2.27678e-09)
(1.94905e-08 -5.24252e-07 4.28143e-09)
(4.31707e-08 -6.9814e-07 5.179e-09)
(7.07224e-08 -8.17818e-07 5.88684e-09)
(9.93785e-08 -9.02329e-07 6.7436e-09)
(1.2687e-07 -9.62299e-07 7.85339e-09)
(1.51004e-07 -1.00506e-06 9.24875e-09)
(1.69481e-07 -1.03494e-06 1.09747e-08)
(1.80198e-07 -1.05467e-06 1.29639e-08)
(1.81152e-07 -1.06635e-06 1.5255e-08)
(1.70841e-07 -1.07178e-06 1.76492e-08)
(1.48833e-07 -1.07289e-06 1.99371e-08)
(1.15654e-07 -1.07186e-06 2.19337e-08)
(7.36242e-08 -1.07001e-06 2.35358e-08)
(2.61594e-08 -1.06921e-06 2.44362e-08)
(-2.36759e-08 -1.06934e-06 2.45303e-08)
(-7.14356e-08 -1.07004e-06 2.36629e-08)
(-1.13356e-07 -1.07205e-06 2.21004e-08)
(-1.4673e-07 -1.07433e-06 2.02339e-08)
(-1.68963e-07 -1.07309e-06 1.78487e-08)
(-1.79427e-07 -1.06722e-06 1.54e-08)
(-1.78871e-07 -1.05534e-06 1.30241e-08)
(-1.68544e-07 -1.03574e-06 1.0901e-08)
(-1.50294e-07 -1.00598e-06 9.12159e-09)
(-1.26339e-07 -9.62813e-07 7.69218e-09)
(-9.8935e-08 -9.02049e-07 6.60357e-09)
(-7.03775e-08 -8.17123e-07 5.80234e-09)
(-4.2988e-08 -6.97497e-07 5.13753e-09)
(-1.94435e-08 -5.23681e-07 4.26964e-09)
(-2.32613e-09 -2.52966e-07 2.30845e-09)
(1.84178e-09 -2.71655e-07 1.66434e-09)
(1.49271e-08 -5.62776e-07 3.10934e-09)
(3.28165e-08 -7.4896e-07 3.79917e-09)
(5.37728e-08 -8.77887e-07 4.34814e-09)
(7.56437e-08 -9.7007e-07 4.97694e-09)
(9.66732e-08 -1.03678e-06 5.84082e-09)
(1.15164e-07 -1.08561e-06 6.99276e-09)
(1.29396e-07 -1.1213e-06 8.47721e-09)
(1.37927e-07 -1.14661e-06 1.01854e-08)
(1.3899e-07 -1.16319e-06 1.20603e-08)
(1.31104e-07 -1.17311e-06 1.38936e-08)
(1.14125e-07 -1.17906e-06 1.57311e-08)
(8.8901e-08 -1.18262e-06 1.7508e-08)
(5.68953e-08 -1.18388e-06 1.8844e-08)
(2.04026e-08 -1.18438e-06 1.95349e-08)
(-1.79224e-08 -1.18412e-06 1.94855e-08)
(-5.47854e-08 -1.18316e-06 1.87469e-08)
(-8.70085e-08 -1.18229e-06 1.74233e-08)
(-1.12589e-07 -1.18077e-06 1.58267e-08)
(-1.29478e-07 -1.17468e-06 1.39255e-08)
(-1.3732e-07 -1.1641e-06 1.20002e-08)
(-1.36712e-07 -1.14717e-06 1.01353e-08)
(-1.28617e-07 -1.12202e-06 8.45379e-09)
(-1.1452e-07 -1.0864e-06 7.02642e-09)
(-9.61977e-08 -1.03717e-06 5.88504e-09)
(-7.53268e-08 -9.70035e-07 5.03043e-09)
(-5.36044e-08 -8.77955e-07 4.4168e-09)
(-3.27411e-08 -7.49391e-07 3.9138e-09)
(-1.47945e-08 -5.62978e-07 3.25002e-09)
(-1.77576e-09 -2.72324e-07 1.74446e-09)
(1.17149e-09 -2.85304e-07 1.08591e-09)
(9.4755e-09 -5.90074e-07 2.00828e-09)
(2.0811e-08 -7.84995e-07 2.39743e-09)
(3.41294e-08 -9.19974e-07 2.684e-09)
(4.79188e-08 -1.01728e-06 3.0549e-09)
(6.11643e-08 -1.08894e-06 3.62342e-09)
(7.28346e-08 -1.14244e-06 4.40059e-09)
(8.17916e-08 -1.18266e-06 5.41271e-09)
(8.73135e-08 -1.21235e-06 6.6062e-09)
(8.82397e-08 -1.2329e-06 7.87285e-09)
(8.33577e-08 -1.24713e-06 9.12876e-09)
(7.2724e-08 -1.25753e-06 1.04444e-08)
(5.68658e-08 -1.26478e-06 1.1667e-08)
(3.65601e-08 -1.26845e-06 1.25792e-08)
(1.33565e-08 -1.26989e-06 1.29999e-08)
(-1.09694e-08 -1.26877e-06 1.27944e-08)
(-3.45209e-08 -1.2661e-06 1.22169e-08)
(-5.49541e-08 -1.26266e-06 1.12297e-08)
(-7.11326e-08 -1.25731e-06 9.98784e-09)
(-8.20031e-08 -1.24693e-06 8.63637e-09)
(-8.71068e-08 -1.23224e-06 7.36332e-09)
(-8.67008e-08 -1.21125e-06 6.25007e-09)
(-8.14959e-08 -1.18226e-06 5.27422e-09)
(-7.24898e-08 -1.14309e-06 4.4634e-09)
(-6.0791e-08 -1.0901e-06 3.80326e-09)
(-4.75103e-08 -1.01849e-06 3.27077e-09)
(-3.37631e-08 -9.21104e-07 2.87836e-09)
(-2.06012e-08 -7.85989e-07 2.54484e-09)
(-9.30628e-09 -5.90582e-07 2.09926e-09)
(-1.12702e-09 -2.85887e-07 1.10169e-09)
(4.38771e-10 -2.92493e-07 3.52011e-10)
(3.38346e-09 -6.04222e-07 6.96994e-10)
(7.40043e-09 -8.04039e-07 8.72737e-10)
(1.2232e-08 -9.42502e-07 9.89839e-10)
(1.72104e-08 -1.04267e-06 1.14455e-09)
(2.20259e-08 -1.11674e-06 1.38648e-09)
(2.63949e-08 -1.17213e-06 1.67519e-09)
(2.97983e-08 -1.21384e-06 1.97008e-09)
(3.18644e-08 -1.24555e-06 2.34986e-09)
(3.22155e-08 -1.26911e-06 2.86644e-09)
(3.04643e-08 -1.2867e-06 3.406e-09)
(2.67214e-08 -1.29976e-06 3.90752e-09)
(2.09683e-08 -1.30866e-06 4.29841e-09)
(1.36206e-08 -1.31381e-06 4.70518e-09)
(5.34017e-09 -1.31636e-06 4.90248e-09)
(-3.42721e-09 -1.31524e-06 4.75433e-09)
(-1.22192e-08 -1.3119e-06 4.56024e-09)
(-1.95695e-08 -1.30718e-06 4.19298e-09)
(-2.52894e-08 -1.29987e-06 3.6704e-09)
(-2.91962e-08 -1.28696e-06 3.15512e-09)
(-3.10376e-08 -1.26918e-06 2.68017e-09)
(-3.0976e-08 -1.24516e-06 2.26237e-09)
(-2.92112e-08 -1.21377e-06 1.87575e-09)
(-2.60588e-08 -1.1728e-06 1.56503e-09)
(-2.18733e-08 -1.11798e-06 1.33707e-09)
(-1.70589e-08 -1.04409e-06 1.14964e-09)
(-1.20877e-08 -9.43899e-07 1.00691e-09)
(-7.35082e-09 -8.05307e-07 8.87899e-10)
(-3.3006e-09 -6.05115e-07 7.51213e-10)
(-3.81743e-10 -2.93023e-07 4.00581e-10)
(-2.9888e-10 -2.92891e-07 -3.51343e-10)
(-2.76299e-09 -6.04955e-07 -6.39054e-10)
(-6.19992e-09 -8.05139e-07 -7.50535e-10)
(-1.01001e-08 -9.43788e-07 -8.44344e-10)
(-1.41781e-08 -1.04411e-06 -9.63904e-10)
(-1.80977e-08 -1.11841e-06 -1.13319e-09)
(-2.15494e-08 -1.17406e-06 -1.35319e-09)
(-2.42619e-08 -1.21599e-06 -1.62606e-09)
(-2.58282e-08 -1.24776e-06 -1.9696e-09)
(-2.58721e-08 -1.27119e-06 -2.34999e-09)
(-2.42045e-08 -1.28877e-06 -2.82815e-09)
(-2.09636e-08 -1.30187e-06 -3.35914e-09)
(-1.6438e-08 -1.31066e-06 -3.80026e-09)
(-1.06207e-08 -1.316e-06 -3.96782e-09)
(-3.59085e-09 -1.31852e-06 -3.97764e-09)
(3.95123e-09 -1.31726e-06 -3.92007e-09)
(1.08487e-08 -1.31435e-06 -3.6535e-09)
(1.72376e-08 -1.30973e-06 -3.33124e-09)
(2.21113e-08 -1.30203e-06 -3.05554e-09)
(2.50736e-08 -1.28899e-06 -2.61349e-09)
(2.66155e-08 -1.27117e-06 -2.14703e-09)
(2.65715e-08 -1.24701e-06 -1.71039e-09)
(2.50635e-08 -1.21547e-06 -1.44029e-09)
(2.23132e-08 -1.17424e-06 -1.27344e-09)
(1.86484e-08 -1.11915e-06 -1.10058e-09)
(1.45773e-08 -1.04506e-06 -9.64052e-10)
(1.03624e-08 -9.44685e-07 -8.49076e-10)
(6.3293e-09 -8.05964e-07 -7.37099e-10)
(2.88387e-09 -6.05621e-07 -5.70741e-10)
(3.72711e-10 -2.93292e-07 -2.88112e-10)
(-1.06217e-09 -2.86369e-07 -1.04874e-09)
(-8.82959e-09 -5.91647e-07 -1.98941e-09)
(-1.95496e-08 -7.87522e-07 -2.41744e-09)
(-3.19982e-08 -9.23026e-07 -2.73841e-09)
(-4.50096e-08 -1.02085e-06 -3.11273e-09)
(-5.75602e-08 -1.09315e-06 -3.61525e-09)
(-6.85569e-08 -1.14716e-06 -4.2784e-09)
(-7.69673e-08 -1.18754e-06 -5.1437e-09)
(-8.18757e-08 -1.21749e-06 -6.21962e-09)
(-8.24115e-08 -1.23841e-06 -7.34745e-09)
(-7.76504e-08 -1.25309e-06 -8.59547e-09)
(-6.75565e-08 -1.26382e-06 -9.91682e-09)
(-5.27931e-08 -1.27126e-06 -1.10576e-08)
(-3.38451e-08 -1.27576e-06 -1.17859e-08)
(-1.16943e-08 -1.27761e-06 -1.20681e-08)
(1.1607e-08 -1.27598e-06 -1.19056e-08)
(3.36009e-08 -1.2738e-06 -1.13707e-08)
(5.32231e-08 -1.2706e-06 -1.05058e-08)
(6.83301e-08 -1.26409e-06 -9.5335e-09)
(7.81242e-08 -1.2531e-06 -8.2743e-09)
(8.30595e-08 -1.23803e-06 -7.07752e-09)
(8.26047e-08 -1.21667e-06 -5.92046e-09)
(7.74437e-08 -1.18698e-06 -4.92417e-09)
(6.88857e-08 -1.14702e-06 -4.09393e-09)
(5.78335e-08 -1.09359e-06 -3.4159e-09)
(4.53544e-08 -1.02167e-06 -2.91058e-09)
(3.23156e-08 -9.2393e-07 -2.52789e-09)
(1.97768e-08 -7.88489e-07 -2.23036e-09)
(9.02175e-09 -5.92532e-07 -1.83751e-09)
(1.13953e-09 -2.86717e-07 -9.95177e-10)
(-1.74447e-09 -2.73326e-07 -1.67811e-09)
(-1.44004e-08 -5.65134e-07 -3.13735e-09)
(-3.18168e-08 -7.52388e-07 -3.80067e-09)
(-5.2087e-08 -8.81593e-07 -4.29156e-09)
(-7.32056e-08 -9.74291e-07 -4.88066e-09)
(-9.35269e-08 -1.04211e-06 -5.69028e-09)
(-1.11382e-07 -1.09209e-06 -6.76933e-09)
(-1.25117e-07 -1.12858e-06 -8.16741e-09)
(-1.33121e-07 -1.1547e-06 -9.86931e-09)
(-1.33933e-07 -1.17199e-06 -1.16657e-08)
(-1.26255e-07 -1.18249e-06 -1.35137e-08)
(-1.09758e-07 -1.18884e-06 -1.52945e-08)
(-8.54657e-08 -1.19292e-06 -1.69393e-08)
(-5.46589e-08 -1.19522e-06 -1.81783e-08)
(-1.90362e-08 -1.19624e-06 -1.88097e-08)
(1.84144e-08 -1.19498e-06 -1.8662e-08)
(5.41258e-08 -1.19412e-06 -1.79508e-08)
(8.58219e-08 -1.19341e-06 -1.67304e-08)
(1.10373e-07 -1.18966e-06 -1.52284e-08)
(1.26578e-07 -1.18261e-06 -1.33936e-08)
(1.34501e-07 -1.17185e-06 -1.1578e-08)
(1.33917e-07 -1.15499e-06 -9.79461e-09)
(1.2579e-07 -1.12949e-06 -8.2053e-09)
(1.11959e-07 -1.09331e-06 -6.80652e-09)
(9.39622e-08 -1.04368e-06 -5.68422e-09)
(7.34902e-08 -9.75984e-07 -4.83662e-09)
(5.2227e-08 -8.83036e-07 -4.15209e-09)
(3.19613e-08 -7.53674e-07 -3.62387e-09)
(1.45893e-08 -5.66261e-07 -2.96883e-09)
(1.82835e-09 -2.7351e-07 -1.60076e-09)
(-2.32874e-09 -2.54444e-07 -2.22132e-09)
(-1.91852e-08 -5.26845e-07 -4.14735e-09)
(-4.23157e-08 -7.01692e-07 -5.03977e-09)
(-6.92802e-08 -8.22068e-07 -5.71601e-09)
(-9.73904e-08 -9.07734e-07 -6.5051e-09)
(-1.24418e-07 -9.69282e-07 -7.57456e-09)
(-1.48095e-07 -1.01327e-06 -8.97948e-09)
(-1.66168e-07 -1.04394e-06 -1.07183e-08)
(-1.76532e-07 -1.06454e-06 -1.27791e-08)
(-1.77356e-07 -1.07719e-06 -1.50258e-08)
(-1.67173e-07 -1.08348e-06 -1.7402e-08)
(-1.45423e-07 -1.08522e-06 -1.96278e-08)
(-1.1294e-07 -1.0849e-06 -2.15718e-08)
(-7.1847e-08 -1.08427e-06 -2.31375e-08)
(-2.48452e-08 -1.08423e-06 -2.40791e-08)
(2.43091e-08 -1.08348e-06 -2.40085e-08)
(7.12993e-08 -1.08413e-06 -2.31328e-08)
(1.13127e-07 -1.08622e-06 -2.15673e-08)
(1.45787e-07 -1.08623e-06 -1.96271e-08)
(1.67354e-07 -1.08386e-06 -1.74472e-08)
(1.77626e-07 -1.07754e-06 -1.50863e-08)
(1.77085e-07 -1.06536e-06 -1.27661e-08)
(1.66758e-07 -1.04505e-06 -1.07817e-08)
(1.48647e-07 -1.0144e-06 -9.09737e-09)
(1.24892e-07 -9.70609e-07 -7.74193e-09)
(9.77955e-08 -9.09543e-07 -6.68266e-09)
(6.95878e-08 -8.24384e-07 -5.8122e-09)
(4.24853e-08 -7.04296e-07 -5.09535e-09)
(1.923e-08 -5.28975e-07 -4.18833e-09)
(2.32833e-09 -2.54717e-07 -2.22804e-09)
(-2.74958e-09 -2.3083e-07 -2.70139e-09)
(-2.29385e-08 -4.79097e-07 -5.04848e-09)
(-5.07296e-08 -6.38347e-07 -6.10356e-09)
(-8.31063e-08 -7.47541e-07 -6.89722e-09)
(-1.16768e-07 -8.24388e-07 -7.8057e-09)
(-1.49031e-07 -8.78446e-07 -9.01367e-09)
(-1.77142e-07 -9.15661e-07 -1.05622e-08)
(-1.98436e-07 -9.39992e-07 -1.24741e-08)
(-2.10436e-07 -9.54533e-07 -1.4758e-08)
(-2.11056e-07 -9.61625e-07 -1.73003e-08)
(-1.98747e-07 -9.6324e-07 -1.9991e-08)
(-1.72913e-07 -9.61013e-07 -2.25346e-08)
(-1.34221e-07 -9.5674e-07 -2.46627e-08)
(-8.50979e-08 -9.52618e-07 -2.63142e-08)
(-2.92851e-08 -9.50728e-07 -2.73896e-08)
(2.87591e-08 -9.50179e-07 -2.73782e-08)
(8.44004e-08 -9.52538e-07 -2.64806e-08)
(1.33945e-07 -9.57732e-07 -2.48191e-08)
(1.72843e-07 -9.61817e-07 -2.2569e-08)
(1.98795e-07 -9.63947e-07 -2.00386e-08)
(2.11263e-07 -9.62349e-07 -1.73419e-08)
(2.10856e-07 -9.55428e-07 -1.47498e-08)
(1.989e-07 -9.41037e-07 -1.24763e-08)
(1.77614e-07 -9.16769e-07 -1.05414e-08)
(1.49464e-07 -8.79692e-07 -8.99946e-09)
(1.17158e-07 -8.26037e-07 -7.84302e-09)
(8.34812e-08 -7.49886e-07 -6.93673e-09)
(5.10424e-08 -6.41147e-07 -6.12228e-09)
(2.3119e-08 -4.81317e-07 -5.05718e-09)
(2.78605e-09 -2.31039e-07 -2.69797e-09)
(-3.06542e-09 -2.03474e-07 -3.0627e-09)
(-2.56838e-08 -4.23637e-07 -5.72014e-09)
(-5.6868e-08 -5.64967e-07 -6.89224e-09)
(-9.30858e-08 -6.61513e-07 -7.72699e-09)
(-1.30686e-07 -7.28662e-07 -8.64982e-09)
(-1.66653e-07 -7.74711e-07 -9.88485e-09)
(-1.97849e-07 -8.04914e-07 -1.15031e-08)
(-2.21301e-07 -8.22912e-07 -1.3514e-08)
(-2.34269e-07 -8.31564e-07 -1.58917e-08)
(-2.34501e-07 -8.33244e-07 -1.85248e-08)
(-2.20473e-07 -8.30136e-07 -2.12689e-08)
(-1.91642e-07 -8.24269e-07 -2.38838e-08)
(-1.487e-07 -8.17221e-07 -2.61268e-08)
(-9.41889e-08 -8.10458e-07 -2.77606e-08)
(-3.24178e-08 -8.06658e-07 -2.87268e-08)
(3.16474e-08 -8.06172e-07 -2.86417e-08)
(9.3309e-08 -8.0995e-07 -2.77778e-08)
(1.48132e-07 -8.17323e-07 -2.61524e-08)
(1.91339e-07 -8.2456e-07 -2.38583e-08)
(2.20367e-07 -8.3064e-07 -2.12821e-08)
(2.34579e-07 -8.3386e-07 -1.85486e-08)
(2.34529e-07 -8.32345e-07 -1.59043e-08)
(2.21654e-07 -8.23822e-07 -1.35278e-08)
(1.98263e-07 -8.05912e-07 -1.15014e-08)
(1.67092e-07 -7.75793e-07 -9.88466e-09)
(1.31106e-07 -7.29878e-07 -8.67506e-09)
(9.3425e-08 -6.63075e-07 -7.77341e-09)
(5.70669e-08 -5.66904e-07 -6.93807e-09)
(2.5765e-08 -4.25331e-07 -5.74923e-09)
(3.05351e-09 -2.03671e-07 -3.06931e-09)
(-3.25408e-09 -1.73717e-07 -3.25546e-09)
(-2.73394e-08 -3.62951e-07 -6.04768e-09)
(-6.06113e-08 -4.84993e-07 -7.26832e-09)
(-9.91646e-08 -5.68069e-07 -8.13837e-09)
(-1.39146e-07 -6.2508e-07 -9.09176e-09)
(-1.77312e-07 -6.63033e-07 -1.03371e-08)
(-2.10294e-07 -6.86463e-07 -1.19496e-08)
(-2.34914e-07 -6.98633e-07 -1.39409e-08)
(-2.48275e-07 -7.02161e-07 -1.62752e-08)
(-2.48057e-07 -6.99348e-07 -1.8842e-08)
(-2.3277e-07 -6.92382e-07 -2.14805e-08)
(-2.01988e-07 -6.83378e-07 -2.39861e-08)
(-1.56587e-07 -6.74037e-07 -2.61775e-08)
(-9.91843e-08 -6.65796e-07 -2.77295e-08)
(-3.41516e-08 -6.60965e-07 -2.85851e-08)
(3.32396e-08 -6.60726e-07 -2.85255e-08)
(9.82253e-08 -6.6553e-07 -2.7767e-08)
(1.55865e-07 -6.74187e-07 -2.62096e-08)
(2.01552e-07 -6.83697e-07 -2.40023e-08)
(2.32551e-07 -6.92834e-07 -2.15217e-08)
(2.48033e-07 -6.99895e-07 -1.88831e-08)
(2.4842e-07 -7.02833e-07 -1.6308e-08)
(2.35167e-07 -6.99417e-07 -1.39707e-08)
(2.10613e-07 -6.87348e-07 -1.19714e-08)
(1.77658e-07 -6.64001e-07 -1.03593e-08)
(1.3948e-07 -6.2613e-07 -9.1294e-09)
(9.94122e-08 -5.6925e-07 -8.2265e-09)
(6.07168e-08 -4.86375e-07 -7.41105e-09)
(2.73616e-08 -3.64303e-07 -6.17685e-09)
(3.22049e-09 -1.73854e-07 -3.29427e-09)
(-3.31614e-09 -1.4275e-07 -3.32982e-09)
(-2.79046e-08 -2.9978e-07 -6.18459e-09)
(-6.19035e-08 -4.01836e-07 -7.41711e-09)
(-1.01338e-07 -4.71065e-07 -8.27861e-09)
(-1.42255e-07 -5.17862e-07 -9.20825e-09)
(-1.81282e-07 -5.47981e-07 -1.04054e-08)
(-2.14919e-07 -5.65224e-07 -1.19393e-08)
(-2.39886e-07 -5.7242e-07 -1.38246e-08)
(-2.53233e-07 -5.71929e-07 -1.6021e-08)
(-2.52638e-07 -5.65894e-07 -1.84157e-08)
(-2.36657e-07 -5.5639e-07 -2.08561e-08)
(-2.04959e-07 -5.45409e-07 -2.31922e-08)
(-1.58678e-07 -5.34638e-07 -2.52169e-08)
(-1.00585e-07 -5.25856e-07 -2.66412e-08)
(-3.47216e-08 -5.20816e-07 -2.73922e-08)
(3.36565e-08 -5.20696e-07 -2.73672e-08)
(9.9479e-08 -5.25708e-07 -2.66788e-08)
(1.57877e-07 -5.34814e-07 -2.52198e-08)
(2.04499e-07 -5.45654e-07 -2.31917e-08)
(2.36386e-07 -5.56707e-07 -2.08959e-08)
(2.52529e-07 -5.663e-07 -1.84615e-08)
(2.53283e-07 -5.7245e-07 -1.60607e-08)
(2.40052e-07 -5.73044e-07 -1.38606e-08)
(2.15154e-07 -5.65936e-07 -1.19679e-08)
(1.8154e-07 -5.48761e-07 -1.04319e-08)
(1.42509e-07 -5.18695e-07 -9.24013e-09)
(1.01539e-07 -4.71937e-07 -8.33845e-09)
(6.2015e-08 -4.02779e-07 -7.52512e-09)
(2.79397e-08 -3.00769e-07 -6.28608e-09)
(3.30175e-09 -1.4283e-07 -3.35644e-09)
(-3.27056e-09 -1.11655e-07 -3.2504e-09)
(-2.74268e-08 -2.36546e-07 -6.0525e-09)
(-6.08666e-08 -3.1854e-07 -7.27442e-09)
(-9.98161e-08 -3.74014e-07 -8.10586e-09)
(-1.40343e-07 -4.10906e-07 -8.98013e-09)
(-1.7905e-07 -4.33724e-07 -1.00903e-08)
(-2.124e-07 -4.45566e-07 -1.15088e-08)
(-2.37077e-07 -4.48811e-07 -1.3245e-08)
(-2.5015e-07 -4.45522e-07 -1.52574e-08)
(-2.4933e-07 -4.37607e-07 -1.74381e-08)
(-2.33225e-07 -4.26932e-07 -1.96595e-08)
(-2.01641e-07 -4.1525e-07 -2.17907e-08)
(-1.55973e-07 -4.04298e-07 -2.36021e-08)
(-9.89345e-08 -3.95841e-07 -2.48757e-08)
(-3.42105e-08 -3.9114e-07 -2.55453e-08)
(3.31176e-08 -3.90966e-07 -2.55282e-08)
(9.7742e-08 -3.95597e-07 -2.48785e-08)
(1.55114e-07 -4.04349e-07 -2.3575e-08)
(2.01124e-07 -4.15367e-07 -2.17616e-08)
(2.32882e-07 -4.2712e-07 -1.96787e-08)
(2.49133e-07 -4.3789e-07 -1.7479e-08)
(2.50113e-07 -4.45907e-07 -1.52951e-08)
(2.37169e-07 -4.49284e-07 -1.32795e-08)
(2.12566e-07 -4.46105e-07 -1.1536e-08)
(1.79247e-07 -4.34316e-07 -1.01149e-08)
(1.40547e-07 -4.11535e-07 -9.0041e-09)
(9.99942e-08 -3.74661e-07 -8.13711e-09)
(6.09921e-08 -3.19195e-07 -7.32931e-09)
(2.74533e-08 -2.37215e-07 -6.12678e-09)
(3.25179e-09 -1.11773e-07 -3.27667e-09)
(-3.08355e-09 -8.17217e-08 -3.03137e-09)
(-2.58478e-08 -1.75676e-07 -5.67195e-09)
(-5.75427e-08 -2.38239e-07 -6.82095e-09)
(-9.47405e-08 -2.80447e-07 -7.57186e-09)
(-1.33688e-07 -3.07951e-07 -8.35553e-09)
(-1.71063e-07 -3.24128e-07 -9.34989e-09)
(-2.03356e-07 -3.31411e-07 -1.06304e-08)
(-2.27266e-07 -3.31734e-07 -1.21929e-08)
(-2.39928e-07 -3.26812e-07 -1.40023e-08)
(-2.39131e-07 -3.18263e-07 -1.59554e-08)
(-2.23524e-07 -3.07652e-07 -1.79639e-08)
(-1.9305e-07 -2.96487e-07 -1.98681e-08)
(-1.49271e-07 -2.86381e-07 -2.14794e-08)
(-9.46712e-08 -2.78718e-07 -2.26213e-08)
(-3.27694e-08 -2.74566e-07 -2.32423e-08)
(3.16798e-08 -2.74394e-07 -2.32233e-08)