/*--------------------------------*- C++ -*----------------------------------*\
| =========                 |                                                 |
| \\      /  F ield         | OpenFOAM: The Open Source CFD Toolbox           |
|  \\    /   O peration     | Version:  v1906                                 |
|   \\  /    A nd           | Web:      www.OpenFOAM.com                      |
|    \\/     M anipulation  |                                                 |
\*---------------------------------------------------------------------------*/
FoamFile
{
    version     2.0;
    format      ascii;
    class       volScalarField;
    location    "90";
    object      nut;
}
// * * * * * * * * * * * * * * * * * * * * * * * * * * * * * * * * * * * * * //

dimensions      [0 2 -1 0 0 0 0];


internalField   nonuniform List<scalar> 
78750
(
1.18599e-09
2.22786e-07
4.24273e-07
6.2891e-07
8.31498e-07
1.02902e-06
1.21927e-06
1.40029e-06
1.57033e-06
1.72795e-06
1.87207e-06
2.00187e-06
2.11685e-06
2.21679e-06
2.3012e-06
2.36933e-06
2.42112e-06
2.45642e-06
2.475e-06
2.47648e-06
2.46086e-06
2.42612e-06
2.3718e-06
2.29672e-06
2.1995e-06
2.07882e-06
1.93311e-06
1.76142e-06
1.56434e-06
1.34313e-06
1.09878e-06
8.34224e-07
5.64077e-07
3.19107e-07
4.62364e-09
3.46772e-09
2.06554e-06
4.49703e-06
6.7249e-06
8.39247e-06
9.65577e-06
1.07107e-05
1.16673e-05
1.25869e-05
1.3509e-05
1.44601e-05
1.54575e-05
1.65338e-05
1.77323e-05
1.85549e-05
1.86288e-05
1.86232e-05
1.85462e-05
1.84044e-05
1.82036e-05
1.79481e-05
1.7637e-05
1.727e-05
1.68428e-05
1.63478e-05
1.57764e-05
1.46182e-05
1.27789e-05
1.09507e-05
9.06225e-06
7.01881e-06
5.04825e-06
3.75766e-06
2.20667e-06
1.84934e-08
6.08139e-09
2.02446e-06
4.50137e-06
7.53483e-06
1.06938e-05
1.34569e-05
1.56262e-05
1.72796e-05
1.85533e-05
1.95541e-05
2.03522e-05
2.09892e-05
2.14903e-05
2.18829e-05
2.22007e-05
2.24233e-05
2.23382e-05
2.19736e-05
2.1552e-05
2.10882e-05
2.05965e-05
1.9753e-05
1.87655e-05
1.77038e-05
1.66096e-05
1.54982e-05
1.43536e-05
1.31193e-05
1.16826e-05
9.92448e-06
7.95107e-06
6.40099e-06
5.92362e-06
2.21944e-06
3.28684e-08
9.4751e-09
1.933e-06
4.44473e-06
8.01484e-06
1.23594e-05
1.64027e-05
1.9401e-05
2.1412e-05
2.26972e-05
2.34405e-05
2.37588e-05
2.37363e-05
2.34404e-05
2.29299e-05
2.22594e-05
2.14782e-05
2.06206e-05
1.9706e-05
1.87516e-05
1.77775e-05
1.68069e-05
1.58675e-05
1.499e-05
1.42008e-05
1.35143e-05
1.29193e-05
1.23543e-05
1.1684e-05
1.07211e-05
9.38036e-06
7.97053e-06
7.30633e-06
7.57171e-06
2.00612e-06
4.34211e-08
1.365e-08
1.89392e-06
4.51946e-06
8.66572e-06
1.41623e-05
1.93152e-05
2.28945e-05
2.50318e-05
2.60768e-05
2.62682e-05
2.5806e-05
2.48801e-05
2.36647e-05
2.23071e-05
2.09182e-05
1.95688e-05
1.82944e-05
1.71043e-05
1.59924e-05
1.4949e-05
1.39718e-05
1.30723e-05
1.22726e-05
1.15969e-05
1.10624e-05
1.06622e-05
1.0334e-05
9.9365e-06
9.29837e-06
8.41111e-06
7.67717e-06
7.92444e-06
8.00026e-06
1.86209e-06
5.04166e-08
1.77226e-08
1.91774e-06
4.70465e-06
9.41957e-06
1.60326e-05
2.21794e-05
2.608e-05
2.79903e-05
2.84397e-05
2.78143e-05
2.64497e-05
2.46576e-05
2.27071e-05
2.07991e-05
1.90535e-05
1.75197e-05
1.61974e-05
1.50581e-05
1.40618e-05
1.31707e-05
1.23611e-05
1.16266e-05
1.09669e-05
1.03845e-05
9.88882e-06
9.48014e-06
9.11765e-06
8.70578e-06
8.15715e-06
7.5581e-06
7.34855e-06
8.34988e-06
7.72464e-06
1.76713e-06
5.51677e-08
2.18427e-08
1.94126e-06
4.83492e-06
9.93383e-06
1.72791e-05
2.39343e-05
2.78342e-05
2.94156e-05
2.9306e-05
2.79784e-05
2.58914e-05
2.34765e-05
2.10768e-05
1.89057e-05
1.70513e-05
1.55146e-05
1.42539e-05
1.32148e-05
1.23449e-05
1.16033e-05
1.09694e-05
1.0432e-05
9.96348e-06
9.53125e-06
9.11603e-06
8.707e-06
8.28244e-06
7.80743e-06
7.28747e-06
6.87958e-06
7.02774e-06
8.53167e-06
7.20028e-06
1.70148e-06
5.90186e-08
2.52845e-08
1.97199e-06
4.94242e-06
1.03013e-05
1.81998e-05
2.52942e-05
2.91899e-05
3.04321e-05
2.97732e-05
2.78219e-05
2.51762e-05
2.23633e-05
1.97481e-05
1.75048e-05
1.56639e-05
1.41853e-05
1.30073e-05
1.20664e-05
1.13079e-05
1.06955e-05
1.02137e-05
9.83894e-06
9.51271e-06
9.1719e-06
8.77445e-06
8.30558e-06
7.77005e-06
7.19315e-06
6.65295e-06
6.34498e-06
6.70195e-06
8.49681e-06
6.7638e-06
1.66029e-06
6.30379e-08
2.86206e-08
1.99174e-06
4.99563e-06
1.04939e-05
1.86971e-05
2.5958e-05
2.97242e-05
3.06636e-05
2.96137e-05
2.72738e-05
2.43251e-05
2.13339e-05
1.8649e-05
1.64001e-05
1.45805e-05
1.31288e-05
1.19806e-05
1.10793e-05
1.03794e-05
9.85991e-06
9.51985e-06
9.32143e-06
9.17519e-06
8.97826e-06
8.64684e-06
8.14734e-06
7.51123e-06
6.82858e-06
6.24221e-06
5.97343e-06
6.44081e-06
8.38169e-06
6.39786e-06
1.63093e-06
6.761e-08
3.16924e-08
2.01274e-06
5.0416e-06
1.06356e-05
1.90661e-05
2.64864e-05
3.01795e-05
3.08829e-05
2.95221e-05
2.68916e-05
2.37434e-05
2.0659e-05
1.79556e-05
1.57216e-05
1.39231e-05
1.24885e-05
1.13488e-05
1.04524e-05
9.76603e-06
9.28308e-06
9.01716e-06
8.92401e-06
8.90107e-06
8.81999e-06
8.55948e-06
8.05795e-06
7.35569e-06
6.59157e-06
5.96052e-06
5.70297e-06
6.22803e-06
8.24574e-06
6.10961e-06
1.61075e-06
7.26179e-08
3.47646e-08
2.02679e-06
5.06539e-06
1.07176e-05
1.92852e-05
2.67504e-05
3.03206e-05
3.08186e-05
2.92358e-05
2.6427e-05
2.31799e-05
2.00691e-05
1.7379e-05
1.51678e-05
1.33857e-05
1.19568e-05
1.08148e-05
9.91244e-06
9.22631e-06
8.76602e-06
8.55683e-06
8.54908e-06
8.633e-06
8.66083e-06
8.47899e-06
7.99899e-06
7.26367e-06
6.4458e-06
5.78082e-06
5.52748e-06
6.09202e-06
8.16031e-06
5.86411e-06
1.59598e-06
7.78594e-08
3.79451e-08
2.04446e-06
5.10134e-06
1.08243e-05
1.95292e-05
2.70332e-05
3.04935e-05
3.08106e-05
2.90403e-05
2.60945e-05
2.27855e-05
1.96724e-05
1.7006e-05
1.48189e-05
1.30488e-05
1.16172e-05
1.04603e-05
9.53602e-06
8.82835e-06
8.35875e-06
8.16468e-06
8.19639e-06
8.34369e-06
8.44953e-06
8.33799e-06
7.89679e-06
7.16342e-06
6.32895e-06
5.65368e-06
5.41128e-06
6.01372e-06
8.12856e-06
5.66056e-06
1.58646e-06
8.31398e-08
4.112e-08
2.05837e-06
5.12867e-06
1.09098e-05
1.97176e-05
2.72165e-05
3.05512e-05
3.07027e-05
2.87813e-05
2.57414e-05
2.24062e-05
1.93126e-05
1.66804e-05
1.45216e-05
1.27657e-05
1.13337e-05
1.01642e-05
9.21983e-06
8.49124e-06
8.00971e-06
7.82023e-06
7.87378e-06
8.06193e-06
8.22312e-06
8.1681e-06
7.76873e-06
7.05689e-06
6.23208e-06
5.56783e-06
5.34895e-06
5.9982e-06
8.16022e-06
5.48519e-06
1.58092e-06
8.83262e-08
4.45147e-08
2.07625e-06
5.17005e-06
1.10318e-05
1.99608e-05
2.74427e-05
3.06426e-05
3.0635e-05
2.85822e-05
2.54738e-05
2.21332e-05
1.90698e-05
1.64742e-05
1.43412e-05
1.25948e-05
1.11561e-05
9.96714e-06
8.99479e-06
8.23503e-06
7.72668e-06
7.52319e-06
7.57545e-06
7.77783e-06
7.96937e-06
7.95584e-06
7.59967e-06
6.92598e-06
6.13404e-06
5.50111e-06
5.31877e-06
6.02387e-06
8.23501e-06
5.34188e-06
1.57958e-06
9.33825e-08
4.78565e-08
2.09178e-06
5.20679e-06
1.11411e-05
2.01701e-05
2.76178e-05
3.06852e-05
3.05327e-05
2.83692e-05
2.52127e-05
2.18814e-05
1.88563e-05
1.63013e-05
1.4197e-05
1.24627e-05
1.10204e-05
9.81463e-06
8.81626e-06
8.02593e-06
7.48866e-06
7.26551e-06
7.30812e-06
7.51195e-06
7.71849e-06
7.73347e-06
7.41608e-06
6.78716e-06
6.04165e-06
5.45408e-06
5.32012e-06
6.09217e-06
8.34986e-06
5.22135e-06
1.58137e-06
9.82733e-08
5.141e-08
2.11038e-06
5.25367e-06
1.12774e-05
2.04215e-05
2.78247e-05
3.07526e-05
3.04638e-05
2.82091e-05
2.50248e-05
2.17155e-05
1.87326e-05
1.62167e-05
1.41372e-05
1.24107e-05
1.09601e-05
9.73261e-06
8.70238e-06
7.87428e-06
7.29713e-06
7.04011e-06
7.05776e-06
7.24776e-06
7.45519e-06
7.48952e-06
7.21031e-06
6.6336e-06
5.94584e-06
5.41446e-06
5.33787e-06
6.1849e-06
8.48657e-06
5.12702e-06
1.58644e-06
1.03027e-07
5.48902e-08
2.12744e-06
5.29807e-06
1.14066e-05
2.06509e-05
2.80016e-05
3.07978e-05
3.03856e-05
2.80534e-05
2.48519e-05
2.15703e-05
1.86324e-05
1.61577e-05
1.41057e-05
1.23904e-05
1.09348e-05
9.68799e-06
8.62745e-06
7.76184e-06
7.14306e-06
6.8478e-06
6.83422e-06
7.00226e-06
7.20138e-06
7.24677e-06
7.00149e-06
6.47843e-06
5.85383e-06
5.38546e-06
5.37342e-06
6.30293e-06
8.6406e-06
5.0496e-06
1.59361e-06
1.0763e-07
5.85517e-08
2.14671e-06
5.34945e-06
1.15546e-05
2.09099e-05
2.82028e-05
3.08675e-05
3.0344e-05
2.79514e-05
2.47463e-05
2.14982e-05
1.86047e-05
1.61678e-05
1.41398e-05
1.24323e-05
1.09687e-05
9.69924e-06
8.60415e-06
7.69495e-06
7.02614e-06
6.68118e-06
6.6248e-06
6.75987e-06
6.94163e-06
6.99296e-06
6.78134e-06
6.3154e-06
5.75912e-06
5.35906e-06
5.41681e-06
6.43407e-06
8.80273e-06
4.99257e-06
1.60323e-06
1.12115e-07
6.21426e-08
2.16496e-06
5.39995e-06
1.17006e-05
2.11585e-05
2.83892e-05
3.09294e-05
3.03039e-05
2.78584e-05
2.46536e-05
2.14404e-05
1.85923e-05
1.61958e-05
1.41957e-05
1.25009e-05
1.10337e-05
9.74519e-06
8.6176e-06
7.66503e-06
6.94472e-06
6.54569e-06
6.44098e-06
6.53658e-06
6.694e-06
6.74514e-06
6.5635e-06
6.15383e-06
5.66704e-06
5.33777e-06
5.46908e-06
6.57847e-06
8.96817e-06
4.9468e-06
1.614e-06
1.16463e-07
6.58862e-08
2.18473e-06
5.45546e-06
1.18613e-05
2.14312e-05
2.85982e-05
3.10183e-05
3.03021e-05
2.78159e-05
2.46184e-05
2.14406e-05
1.86354e-05
1.6276e-05
1.43015e-05
1.2618e-05
1.11464e-05
9.83772e-06
8.6753e-06
7.67527e-06
6.89699e-06
6.43454e-06
6.27254e-06
6.32068e-06
6.44742e-06
6.49448e-06
6.34156e-06
5.9888e-06
5.57309e-06
5.31664e-06
5.52393e-06
6.7284e-06
9.1338e-06
4.91549e-06
1.62642e-06
1.207e-07
6.95684e-08
2.20361e-06
5.51062e-06
1.20236e-05
2.17033e-05
2.88051e-05
3.11098e-05
3.03071e-05
2.77814e-05
2.45902e-05
2.14474e-05
1.86863e-05
1.63677e-05
1.44242e-05
1.27582e-05
1.12883e-05
9.96425e-06
8.76959e-06
7.7223e-06
6.88421e-06
6.35377e-06
6.12922e-06
6.12446e-06
6.21512e-06
6.25328e-06
6.12539e-06
5.82712e-06
5.4813e-06
5.29802e-06
5.5835e-06
6.88559e-06
9.29729e-06
4.89203e-06
1.63945e-06
1.24803e-07
7.33797e-08
2.2233e-06
5.56914e-06
1.21982e-05
2.19995e-05
2.90396e-05
3.12334e-05
3.03496e-05
2.77883e-05
2.46045e-05
2.14949e-05
1.87754e-05
1.64957e-05
1.45825e-05
1.29347e-05
1.14681e-05
1.013e-05
8.90328e-06
7.80681e-06
6.90454e-06
6.29844e-06
6.00416e-06
5.94035e-06
5.99007e-06
6.01579e-06
5.91051e-06
5.66507e-06
5.3881e-06
5.27771e-06
5.642e-06
7.04279e-06
9.45486e-06
4.87626e-06
1.65305e-06
1.28778e-07
7.71407e-08
2.24202e-06
5.62686e-06
1.23744e-05
2.2299e-05
2.92753e-05
3.1362e-05
3.03986e-05
2.77977e-05
2.46185e-05
2.15426e-05
1.88674e-05
1.66311e-05
1.47541e-05
1.31313e-05
1.16748e-05
1.03286e-05
9.07337e-06
7.92849e-06
6.96007e-06
6.27375e-06
5.9047e-06
5.77695e-06
5.78122e-06
5.79036e-06
5.70384e-06
5.50792e-06
5.29753e-06
5.25938e-06
5.70395e-06
7.20634e-06
9.61149e-06
4.86723e-06
1.66719e-06
1.32606e-07
8.10074e-08
2.2612e-06
5.68651e-06
1.25564e-05
2.26035e-05
2.95061e-05
3.14884e-05
3.0459e-05
2.78281e-05
2.46579e-05
2.16158e-05
1.89835e-05
1.67894e-05
1.49489e-05
1.33531e-05
1.19102e-05
1.05597e-05
9.27903e-06
8.08645e-06
7.04961e-06
6.27774e-06
5.82798e-06
5.63093e-06
5.58522e-06
5.57388e-06
5.5026e-06
5.35296e-06
5.20653e-06
5.23897e-06
5.76301e-06
7.3658e-06
9.75638e-06
4.86029e-06
1.68095e-06
1.36274e-07
8.48333e-08
2.27978e-06
5.74634e-06
1.27396e-05
2.28997e-05
2.97241e-05
3.16031e-05
3.05091e-05
2.78586e-05
2.46968e-05
2.16876e-05
1.91001e-05
1.69523e-05
1.51536e-05
1.35912e-05
1.21686e-05
1.08205e-05
9.51947e-06
8.28164e-06
7.17581e-06
6.31521e-06
5.77989e-06
5.50889e-06
5.40878e-06
5.37258e-06
5.31197e-06
5.20426e-06
5.11852e-06
5.2201e-06
5.82455e-06
7.53071e-06
9.90175e-06
4.8584e-06
1.69496e-06
1.39775e-07
8.87349e-08
2.29847e-06
5.80828e-06
1.29328e-05
2.31966e-05
2.99376e-05
3.17142e-05
3.05589e-05
2.78932e-05
2.4744e-05
2.17703e-05
1.92286e-05
1.71274e-05
1.53717e-05
1.38453e-05
1.24475e-05
1.11073e-05
9.79136e-06
8.51199e-06
7.33793e-06
6.38637e-06
5.76054e-06
5.41062e-06
5.25144e-06
5.1858e-06
5.13113e-06
5.06075e-06
5.03188e-06
5.20015e-06
5.88405e-06
7.69433e-06
1.00442e-05
4.85913e-06
1.70857e-06
1.43093e-07
9.25844e-08
2.31606e-06
5.86751e-06
1.31194e-05
2.34811e-05
3.01355e-05
3.18113e-05
3.05968e-05
2.79186e-05
2.47869e-05
2.18512e-05
1.9357e-05
1.73053e-05
1.55967e-05
1.41117e-05
1.27448e-05
1.1419e-05
1.00943e-05
8.77793e-06
7.53781e-06
6.49522e-06
5.77482e-06
5.34141e-06
5.11846e-06
5.01832e-06
4.96403e-06
4.92542e-06
4.94891e-06
5.18139e-06
5.94555e-06
7.86447e-06
1.01851e-05
4.86434e-06
1.72226e-06
1.46225e-07
9.6479e-08
2.33393e-06
5.92823e-06
1.33102e-05
2.37662e-05
3.03293e-05
3.19039e-05
3.0631e-05
2.79421e-05
2.48363e-05
2.19369e-05
1.94882e-05
1.74866e-05
1.58275e-05
1.43874e-05
1.30563e-05
1.1751e-05
1.04243e-05
9.07692e-06
7.77465e-06
6.64252e-06
5.82363e-06
5.30205e-06
5.01052e-06
4.87062e-06
4.81092e-06
4.79838e-06
4.86975e-06
5.16428e-06
6.00997e-06
8.04224e-06
1.03281e-05
4.8764e-06
1.73659e-06
1.49178e-07
1.00317e-07
2.35097e-06
5.98714e-06
1.34966e-05
2.40395e-05
3.05078e-05
3.19815e-05
3.06502e-05
2.79503e-05
2.48703e-05
2.20111e-05
1.96135e-05
1.76671e-05
1.60622e-05
1.46718e-05
1.33819e-05
1.21033e-05
1.07811e-05
9.40852e-06
8.04849e-06
6.82936e-06
5.90932e-06
5.29575e-06
4.93117e-06
4.74615e-06
4.67478e-06
4.68188e-06
4.79581e-06
5.14929e-06
6.07644e-06
8.22438e-06
1.04703e-05
4.89264e-06
1.75131e-06
1.51948e-07
1.04169e-07
2.36823e-06
6.04708e-06
1.36855e-05
2.43117e-05
3.06808e-05
3.20526e-05
3.06627e-05
2.79523e-05
2.48992e-05
2.20817e-05
1.97362e-05
1.78465e-05
1.6298e-05
1.49606e-05
1.37167e-05
1.24711e-05
1.11604e-05
9.76961e-06
8.35714e-06
7.05397e-06
6.03109e-06
5.32247e-06
4.88086e-06
4.64559e-06
4.55636e-06
4.57673e-06
4.72802e-06
5.1375e-06
6.14571e-06
8.41007e-06
1.06125e-05
4.91281e-06
1.76634e-06
1.54542e-07
1.07968e-07
2.38506e-06
6.10618e-06
1.38711e-05
2.45729e-05
3.08388e-05
3.21077e-05
3.06584e-05
2.79375e-05
2.49127e-05
2.21404e-05
1.98512e-05
1.8022e-05
1.65337e-05
1.52536e-05
1.40606e-05
1.28537e-05
1.15611e-05
1.01587e-05
8.69901e-06
7.31493e-06
6.18881e-06
5.38313e-06
4.86122e-06
4.57094e-06
4.45767e-06
4.48451e-06
4.66703e-06
5.12794e-06
6.21491e-06
8.59625e-06
1.07521e-05
4.9357e-06
1.78151e-06
1.56965e-07
1.1176e-07
2.40219e-06
6.16671e-06
1.40581e-05
2.48305e-05
3.09886e-05
3.21527e-05
3.06426e-05
2.79107e-05
2.49151e-05
2.21902e-05
1.99588e-05
1.81916e-05
1.67657e-05
1.55461e-05
1.44085e-05
1.32463e-05
1.19791e-05
1.05723e-05
9.0715e-06
7.61015e-06
6.3813e-06
5.47707e-06
4.87195e-06
4.52232e-06
4.37911e-06
4.40578e-06
4.61353e-06
5.12204e-06
6.2869e-06
8.78219e-06
1.08895e-05
4.96094e-06
1.79668e-06
1.59228e-07
1.15507e-07
2.41919e-06
6.22852e-06
1.42416e-05
2.50768e-05
3.11229e-05
3.21805e-05
3.06085e-05
2.78654e-05
2.49008e-05
2.22284e-05
2.00574e-05
1.83543e-05
1.69935e-05
1.58377e-05
1.47597e-05
1.36475e-05
1.2412e-05
1.10077e-05
9.47212e-06
7.93777e-06
6.60781e-06
5.60439e-06
4.91371e-06
4.50072e-06
4.32199e-06
4.34202e-06
4.56906e-06
5.12116e-06
6.36237e-06
8.96821e-06
1.10253e-05
4.9883e-06
1.81181e-06
1.61338e-07
1.19213e-07
2.4354e-06
6.28869e-06
1.44239e-05
2.53169e-05
3.1246e-05
3.21954e-05
3.05601e-05
2.78053e-05
2.48716e-05
2.22542e-05
2.01445e-05
1.8507e-05
1.72137e-05
1.61249e-05
1.51105e-05
1.40534e-05
1.28558e-05
1.14614e-05
9.89763e-06
8.29527e-06
6.8668e-06
5.76419e-06
4.98607e-06
4.50613e-06
4.28667e-06
4.29388e-06
4.53427e-06
5.12536e-06
6.43988e-06
9.15355e-06
1.11597e-05
5.0175e-06
1.82682e-06
1.63303e-07
1.22854e-07
2.45129e-06
6.34797e-06
1.46029e-05
2.55472e-05
3.13552e-05
3.21933e-05
3.0493e-05
2.7727e-05
2.4826e-05
2.22651e-05
2.02195e-05
1.86504e-05
1.74273e-05
1.64082e-05
1.54604e-05
1.44622e-05
1.33079e-05
1.19295e-05
1.03444e-05
8.67974e-06
7.15655e-06
5.9557e-06
5.08891e-06
4.5389e-06
4.27389e-06
4.26239e-06
4.5102e-06
5.13524e-06
6.51925e-06
9.33774e-06
1.12932e-05
5.04841e-06
1.8417e-06
1.65132e-07
1.26423e-07
2.46626e-06
6.40523e-06
1.47796e-05
2.57707e-05
3.14525e-05
3.21773e-05
3.04106e-05
2.76307e-05
2.47606e-05
2.22583e-05
2.02807e-05
1.8783e-05
1.7632e-05
1.66845e-05
1.5806e-05
1.48704e-05
1.37643e-05
1.24082e-05
1.08082e-05
9.08738e-06
7.47418e-06
6.17695e-06
5.22103e-06
4.59847e-06
4.2837e-06
4.24808e-06
4.49757e-06
5.15139e-06
6.6006e-06
9.52045e-06
1.14256e-05
5.08072e-06
1.85642e-06
1.6683e-07
1.29947e-07
2.48101e-06
6.46247e-06
1.49565e-05
2.59871e-05
3.15378e-05
3.21476e-05
3.03142e-05
2.75228e-05
2.46858e-05
2.22407e-05
2.03286e-05
1.89032e-05
1.78272e-05
1.69538e-05
1.61468e-05
1.52767e-05
1.42226e-05
1.28941e-05
1.12857e-05
9.51492e-06
7.81706e-06
6.42601e-06
5.38118e-06
4.68429e-06
4.31618e-06
4.25151e-06
4.49723e-06
5.17464e-06
6.68456e-06
9.70203e-06
1.15573e-05
5.11442e-06
1.87098e-06
1.68407e-07
1.33399e-07
2.49505e-06
6.51789e-06
1.51292e-05
2.61924e-05
3.16086e-05
3.21013e-05
3.01991e-05
2.73949e-05
2.45918e-05
2.22077e-05
2.03658e-05
1.90132e-05
1.8012e-05
1.72146e-05
1.64816e-05
1.56795e-05
1.4681e-05
1.33847e-05
1.17736e-05
9.95921e-06
8.18247e-06
6.70065e-06
5.56765e-06
4.79519e-06
4.37082e-06
4.2728e-06
4.50973e-06
5.20573e-06
6.77181e-06
9.88294e-06
1.16889e-05
5.14934e-06
1.88536e-06
1.69871e-07
1.36778e-07
2.50858e-06
6.57219e-06
1.52992e-05
2.63884e-05
3.16662e-05
3.20408e-05
3.00698e-05
2.72537e-05
2.44852e-05
2.21621e-05
2.03915e-05
1.91144e-05
1.81891e-05
1.74674e-05
1.68093e-05
1.60772e-05
1.51367e-05
1.38767e-05
1.22684e-05
1.04167e-05
8.56738e-06
6.99852e-06
5.77869e-06
4.93001e-06
4.44704e-06
4.31198e-06
4.5356e-06
5.24548e-06
6.8632e-06
1.00638e-05
1.1821e-05
5.18556e-06
1.89961e-06
1.71237e-07
1.40085e-07
2.52148e-06
6.62488e-06
1.54653e-05
2.65733e-05
3.17091e-05
3.1963e-05
2.99214e-05
2.70935e-05
2.4361e-05
2.21012e-05
2.04045e-05
1.92048e-05
1.83575e-05
1.77126e-05
1.71296e-05
1.64689e-05
1.55891e-05
1.43687e-05
1.2768e-05
1.08851e-05
8.96946e-06
7.31759e-06
6.01261e-06
5.08743e-06
4.54398e-06
4.3687e-06
4.57499e-06
5.29441e-06
6.95938e-06
1.02451e-05
1.1954e-05
5.2231e-06
1.91374e-06
1.72515e-07
1.43312e-07
2.53381e-06
6.67606e-06
1.56277e-05
2.67479e-05
3.17384e-05
3.187e-05
2.97574e-05
2.69184e-05
2.4223e-05
2.20275e-05
2.04058e-05
1.92849e-05
1.85167e-05
1.79499e-05
1.74425e-05
1.68529e-05
1.60349e-05
1.48569e-05
1.32685e-05
1.13605e-05
9.38552e-06
7.65552e-06
6.26772e-06
5.26626e-06
4.66092e-06
4.44277e-06
4.62819e-06
5.35316e-06
7.06118e-06
1.04277e-05
1.20888e-05
5.26208e-06
1.92779e-06
1.73721e-07
1.46448e-07
2.54541e-06
6.72529e-06
1.57856e-05
2.69113e-05
3.17525e-05
3.17591e-05
2.95742e-05
2.67249e-05
2.40682e-05
2.19389e-05
2.03946e-05
1.93541e-05
1.86664e-05
1.81788e-05
1.77481e-05
1.72302e-05
1.64744e-05
1.53407e-05
1.37681e-05
1.18406e-05
9.81301e-06
8.01016e-06
6.54234e-06
5.4652e-06
4.79694e-06
4.53367e-06
4.69511e-06
5.42204e-06
7.16913e-06
1.0612e-05
1.2226e-05
5.30268e-06
1.94184e-06
1.74868e-07
1.49506e-07
2.5565e-06
6.77323e-06
1.59404e-05
2.70647e-05
3.17525e-05
3.1632e-05
2.93745e-05
2.65161e-05
2.38999e-05
2.1838e-05
2.0372e-05
1.94127e-05
1.88059e-05
1.83979e-05
1.80442e-05
1.75982e-05
1.69042e-05
1.58161e-05
1.42628e-05
1.23215e-05
1.02486e-05
8.37907e-06
6.83483e-06
5.68321e-06
4.9514e-06
4.64111e-06
4.77583e-06
5.50145e-06
7.2839e-06
1.07988e-05
1.23662e-05
5.34497e-06
1.95592e-06
1.7597e-07
1.5247e-07
2.56689e-06
6.81921e-06
1.60905e-05
2.72062e-05
3.17367e-05
3.14868e-05
2.91563e-05
2.62906e-05
2.37169e-05
2.17241e-05
2.0338e-05
1.94609e-05
1.89358e-05
1.86078e-05
1.83314e-05
1.79571e-05
1.7325e-05
1.62819e-05
1.47507e-05
1.28007e-05
1.06895e-05
8.75983e-06
7.14335e-06
5.919e-06
5.12346e-06
4.76465e-06
4.87029e-06
5.59168e-06
7.40606e-06
1.09888e-05
1.25106e-05
5.38924e-06
1.97011e-06
1.77043e-07
1.55355e-07
2.57679e-06
6.86397e-06
1.62375e-05
2.73373e-05
3.17061e-05
3.13248e-05
2.89218e-05
2.60508e-05
2.35218e-05
2.15995e-05
2.02939e-05
1.94992e-05
1.90554e-05
1.8807e-05
1.86073e-05
1.83044e-05
1.77336e-05
1.67352e-05
1.52254e-05
1.32718e-05
1.11309e-05
9.14899e-06
7.46568e-06
6.17131e-06
5.31251e-06
4.90408e-06
4.97858e-06
5.69315e-06
7.53634e-06
1.11829e-05
1.26594e-05
5.43547e-06
1.98445e-06
1.78098e-07
1.58146e-07
2.58598e-06
6.90671e-06
1.63793e-05
2.74557e-05
3.16592e-05
3.1145e-05
2.86703e-05
2.57969e-05
2.33151e-05
2.14649e-05
2.0241e-05
1.95289e-05
1.91661e-05
1.89966e-05
1.88727e-05
1.86399e-05
1.81292e-05
1.71753e-05
1.56888e-05
1.37347e-05
1.15706e-05
9.54345e-06
7.79903e-06
6.43819e-06
5.51746e-06
5.059e-06
5.10081e-06
5.80637e-06
7.67562e-06
1.13822e-05
1.28133e-05
5.48387e-06
1.99901e-06
1.79147e-07
1.60853e-07
2.5946e-06
6.94791e-06
1.65173e-05
2.75628e-05
3.1597e-05
3.0948e-05
2.84029e-05
2.553e-05
2.30983e-05
2.13218e-05
2.01803e-05
1.95506e-05
1.9268e-05
1.91761e-05
1.91264e-05
1.89619e-05
1.85095e-05
1.75987e-05
1.61362e-05
1.41855e-05
1.20055e-05
9.94026e-06
8.14076e-06
6.71762e-06
5.73707e-06
5.22891e-06
5.23713e-06
5.93205e-06
7.82509e-06
1.1588e-05
1.29726e-05
5.53438e-06
2.0138e-06
1.80197e-07
1.63466e-07
2.6025e-06
6.987e-06
1.66498e-05
2.76568e-05
3.1518e-05
3.07332e-05
2.81195e-05
2.52508e-05
2.28723e-05
2.11715e-05
2.01137e-05
1.95666e-05
1.93633e-05
1.93476e-05
1.93699e-05
1.92712e-05
1.88744e-05
1.80046e-05
1.65658e-05
1.46213e-05
1.24317e-05
1.03356e-05
8.48766e-06
7.00718e-06
5.96972e-06
5.41295e-06
5.38727e-06
6.07042e-06
7.9858e-06
1.18017e-05
1.31376e-05
5.58717e-06
2.0289e-06
1.81257e-07
1.65996e-07
2.60974e-06
7.02427e-06
1.67778e-05
2.77387e-05
3.14229e-05
3.05007e-05
2.78202e-05
2.49595e-05
2.26376e-05
2.10148e-05
2.00417e-05
1.95774e-05
1.94528e-05
1.95116e-05
1.96037e-05
1.95678e-05
1.92233e-05
1.83918e-05
1.69757e-05
1.504e-05
1.28469e-05
1.07264e-05
8.83657e-06
7.30424e-06
6.21364e-06
5.61026e-06
5.5514e-06
6.22296e-06
8.15924e-06
1.20249e-05
1.33083e-05
5.64212e-06
2.04433e-06
1.82331e-07
1.68442e-07
2.61629e-06
7.0596e-06
1.69008e-05
2.78078e-05
3.13107e-05
3.02496e-05
2.75047e-05
2.46563e-05
2.23949e-05
2.08526e-05
1.99661e-05
1.95853e-05
1.9539e-05
1.96708e-05
1.98301e-05
1.98534e-05
1.95571e-05
1.87602e-05
1.73649e-05
1.54395e-05
1.32484e-05
1.11099e-05
9.18465e-06
7.60618e-06
6.46672e-06
5.81949e-06
5.72909e-06
6.39005e-06
8.34687e-06
1.22595e-05
1.34848e-05
5.69939e-06
2.06016e-06
1.83426e-07
1.70815e-07
2.62222e-06
7.09324e-06
1.70198e-05
2.78649e-05
3.11813e-05
2.99793e-05
2.71725e-05
2.43411e-05
2.21442e-05
2.06851e-05
1.98871e-05
1.95907e-05
1.96226e-05
1.98263e-05
2.00503e-05
2.01293e-05
1.98768e-05
1.91103e-05
1.77334e-05
1.58191e-05
1.36345e-05
1.14838e-05
9.5294e-06
7.91073e-06
6.72719e-06
6.03949e-06
5.91976e-06
6.5716e-06
8.5497e-06
1.25066e-05
1.3667e-05
5.7589e-06
2.07641e-06
1.84542e-07
1.73119e-07
2.62755e-06
7.12535e-06
1.7135e-05
2.79098e-05
3.10338e-05
2.96891e-05
2.68233e-05
2.40139e-05
2.18858e-05
2.05131e-05
1.98058e-05
1.95952e-05
1.97057e-05
1.99805e-05
2.02669e-05
2.03978e-05
2.01843e-05
1.94431e-05
1.80813e-05
1.6178e-05
1.40035e-05
1.18459e-05
9.8685e-06
8.21567e-06
6.99332e-06
6.26916e-06
6.1229e-06
6.76777e-06
8.76882e-06
1.27677e-05
1.38549e-05
5.82074e-06
2.09316e-06
1.85682e-07
1.75364e-07
2.63236e-06
7.15615e-06
1.7247e-05
2.79426e-05
3.08679e-05
2.93783e-05
2.64567e-05
2.36747e-05
2.16197e-05
2.03364e-05
1.97219e-05
1.95986e-05
1.97885e-05
2.01339e-05
2.04811e-05
2.06605e-05
2.04813e-05
1.97603e-05
1.84097e-05
1.65168e-05
1.43551e-05
1.21952e-05
1.02005e-05
8.51949e-06
7.26348e-06
6.507e-06
6.33749e-06
6.97832e-06
9.00485e-06
1.30436e-05
1.40478e-05
5.88491e-06
2.11043e-06
1.86848e-07
1.77557e-07
2.6367e-06
7.18586e-06
1.73562e-05
2.79632e-05
3.06828e-05
2.90463e-05
2.60728e-05
2.33239e-05
2.13467e-05
2.01559e-05
1.96366e-05
1.96022e-05
1.98722e-05
2.02882e-05
2.06945e-05
2.09193e-05
2.07695e-05
2.00635e-05
1.87199e-05
1.68359e-05
1.46889e-05
1.25304e-05
1.05238e-05
8.82036e-06
7.53616e-06
6.75208e-06
6.56312e-06
7.20334e-06
9.25827e-06
1.3335e-05
1.42457e-05
5.95134e-06
2.12825e-06
1.88042e-07
1.797e-07
2.64058e-06
7.21455e-06
1.74628e-05
2.79713e-05
3.04779e-05
2.8693e-05
2.56719e-05
2.29619e-05
2.1067e-05
1.99719e-05
1.95497e-05
1.96052e-05
1.99561e-05
2.04429e-05
2.09076e-05
2.11751e-05
2.10506e-05
2.03545e-05
1.90139e-05
1.71371e-05
1.50058e-05
1.28517e-05
1.08375e-05
9.11697e-06
7.80996e-06
7.00287e-06
6.79877e-06
7.44266e-06
9.52986e-06
1.36429e-05
1.44484e-05
6.02002e-06
2.14667e-06
1.89263e-07
1.81798e-07
2.64406e-06
7.24237e-06
1.7567e-05
2.79666e-05
3.02532e-05
2.83189e-05
2.52552e-05
2.25902e-05
2.0782e-05
1.97864e-05
1.94623e-05
1.96081e-05
2.00404e-05
2.05981e-05
2.11203e-05
2.14283e-05
2.13253e-05
2.06345e-05
1.92931e-05
1.74219e-05
1.53066e-05
1.31591e-05
1.11412e-05
9.40835e-06
8.08362e-06
7.25838e-06
7.04373e-06
7.69587e-06
9.81939e-06
1.39668e-05
1.46552e-05
6.09082e-06
2.16568e-06
1.90516e-07
1.83848e-07
2.64712e-06
7.26927e-06
1.76685e-05
2.79486e-05
3.00082e-05
2.79242e-05
2.48237e-05
2.22093e-05
2.04916e-05
1.95992e-05
1.93736e-05
1.96098e-05
2.01239e-05
2.0753e-05
2.13324e-05
2.16792e-05
2.15945e-05
2.09053e-05
1.95599e-05
1.76931e-05
1.55933e-05
1.34535e-05
1.14347e-05
9.69384e-06
8.35625e-06
7.51777e-06
7.29701e-06
7.96244e-06
1.01269e-05
1.4307e-05
1.48658e-05
6.16361e-06
2.18527e-06
1.918e-07
1.85852e-07
2.64981e-06
7.29536e-06
1.77675e-05
2.79173e-05
2.97435e-05
2.75107e-05
2.43798e-05
2.18218e-05
2.0197e-05
1.94083e-05
1.92818e-05
1.96092e-05
2.0206e-05
2.09069e-05
2.15431e-05
2.1927e-05
2.18578e-05
2.11672e-05
1.98158e-05
1.7953e-05
1.58676e-05
1.37357e-05
1.17182e-05
9.97276e-06
8.62666e-06
7.77971e-06
7.55794e-06
8.24202e-06
1.04523e-05
1.46628e-05
1.50796e-05
6.23825e-06
2.20546e-06
1.9312e-07
1.87807e-07
2.65208e-06
7.32052e-06
1.78635e-05
2.78722e-05
2.9459e-05
2.70793e-05
2.39251e-05
2.14293e-05
1.99002e-05
1.92162e-05
1.91888e-05
1.96073e-05
2.02867e-05
2.10591e-05
2.17515e-05
2.21711e-05
2.21153e-05
2.1421e-05
2.0063e-05
1.82052e-05
1.61322e-05
1.40077e-05
1.19927e-05
1.02456e-05
8.89479e-06
8.04363e-06
7.8254e-06
8.53299e-06
1.0794e-05
1.50327e-05
1.52955e-05
6.31432e-06
2.22614e-06
1.94476e-07
1.8971e-07
2.65396e-06
7.34469e-06
1.79562e-05
2.78129e-05
2.91558e-05
2.66322e-05
2.34624e-05
2.1034e-05
1.96023e-05
1.90228e-05
1.90938e-05
1.96028e-05
2.03645e-05
2.12083e-05
2.1956e-05
2.24097e-05
2.23652e-05
2.1666e-05
2.03017e-05
1.84507e-05
1.63881e-05
1.42701e-05
1.22585e-05
1.0512e-05
9.15997e-06
8.30884e-06
8.09915e-06
8.83586e-06
1.11517e-05
1.54157e-05
1.55132e-05
6.39178e-06
2.24735e-06
1.95873e-07
1.91553e-07
2.65534e-06
7.36747e-06
1.80444e-05
2.77389e-05
2.88341e-05
2.61709e-05
2.29935e-05
2.06377e-05
1.93048e-05
1.88293e-05
1.89976e-05
1.9596e-05
2.04391e-05
2.13535e-05
2.21555e-05
2.2642e-05
2.26069e-05
2.19015e-05
2.05317e-05
1.86894e-05
1.66358e-05
1.45236e-05
1.2516e-05
1.07722e-05
9.42182e-06
8.57451e-06
8.37795e-06
9.14927e-06
1.15242e-05
1.58097e-05
1.57308e-05
6.46993e-06
2.26892e-06
1.97309e-07
1.93331e-07
2.65618e-06
7.38863e-06
1.81276e-05
2.76504e-05
2.84951e-05
2.56974e-05
2.25208e-05
2.02423e-05
1.90094e-05
1.8637e-05
1.89009e-05
1.9587e-05
2.051e-05
2.14935e-05
2.23486e-05
2.2866e-05
2.28388e-05
2.21262e-05
2.07513e-05
1.89192e-05
1.68742e-05
1.4768e-05
1.27656e-05
1.10264e-05
9.6806e-06
8.84059e-06
8.66147e-06
9.47264e-06
1.1911e-05
1.62135e-05
1.59481e-05
6.54844e-06
2.29079e-06
1.98783e-07
1.95035e-07
2.65637e-06
7.40765e-06
1.82045e-05
2.75466e-05
2.81387e-05
2.52121e-05
2.20448e-05
1.98487e-05
1.87168e-05
1.84469e-05
1.88049e-05
1.95767e-05
2.05776e-05
2.16287e-05
2.2535e-05
2.30816e-05
2.30606e-05
2.23399e-05
2.09602e-05
1.91391e-05
1.71022e-05
1.50022e-05
1.30063e-05
1.1274e-05
9.93558e-06
9.10632e-06
8.94884e-06
9.805e-06
1.23109e-05
1.66261e-05
1.61636e-05
6.62665e-06
2.31281e-06
2.0029e-07
1.96666e-07
2.65587e-06
7.4244e-06
1.82752e-05
2.74281e-05
2.77652e-05
2.47157e-05
2.15665e-05
1.94577e-05
1.84284e-05
1.82603e-05
1.87108e-05
1.95664e-05
2.06429e-05
2.1759e-05
2.27142e-05
2.32879e-05
2.32714e-05
2.25422e-05
2.11582e-05
1.93484e-05
1.73194e-05
1.52257e-05
1.32375e-05
1.15142e-05
1.01862e-05
9.3715e-06
9.24021e-06
1.01466e-05
1.27238e-05
1.70468e-05
1.63758e-05
6.70416e-06
2.33491e-06
2.01835e-07
1.98225e-07
2.65465e-06
7.43875e-06
1.83396e-05
2.72942e-05
2.73732e-05
2.4207e-05
2.10847e-05
1.90686e-05
1.8144e-05
1.80782e-05
1.86207e-05
1.95584e-05
2.07084e-05
2.18868e-05
2.28881e-05
2.34864e-05
2.34727e-05
2.27344e-05
2.13471e-05
1.95485e-05
1.75266e-05
1.54392e-05
1.34593e-05
1.17466e-05
1.04315e-05
9.63459e-06
9.53371e-06
1.04956e-05
1.31474e-05
1.74725e-05
1.65837e-05
6.7804e-06
2.35692e-06
2.0341e-07
1.99726e-07
2.65281e-06
7.45109e-06
1.83986e-05
2.71452e-05
2.69623e-05
2.36856e-05
2.05993e-05
1.86812e-05
1.78639e-05
1.79014e-05
1.85357e-05
1.95547e-05
2.07762e-05
2.20144e-05
2.30587e-05
2.36785e-05
2.36657e-05
2.29185e-05
2.15291e-05
1.97407e-05
1.7725e-05
1.56435e-05
1.36726e-05
1.1972e-05
1.06722e-05
9.89639e-06
9.82994e-06
1.0852e-05
1.35809e-05
1.79016e-05
1.67872e-05
6.85528e-06
2.37882e-06
2.05014e-07
2.01185e-07
2.65046e-06
7.46192e-06
1.84533e-05
2.69802e-05
2.65306e-05
2.31505e-05
2.01093e-05
1.82949e-05
1.7588e-05
1.77301e-05
1.8457e-05
1.95574e-05
2.08496e-05
2.21453e-05
2.32294e-05
2.38676e-05
2.38538e-05
2.3098e-05
2.17084e-05
1.9928e-05
1.79166e-05
1.58402e-05
1.38783e-05
1.21908e-05
1.09081e-05
1.01559e-05
1.01276e-05
1.12143e-05
1.40222e-05
1.83315e-05
1.69851e-05
6.92837e-06
2.40051e-06
2.0664e-07
2.0262e-07
2.64782e-06
7.47194e-06
1.85047e-05
2.67988e-05
2.60785e-05
2.26032e-05
1.96159e-05
1.79094e-05
1.73167e-05
1.75637e-05
1.83834e-05
1.95661e-05
2.09294e-05
2.22815e-05
2.34027e-05
2.40561e-05
2.40393e-05
2.32754e-05
2.18878e-05
2.01123e-05
1.81026e-05
1.603e-05
1.40768e-05
1.24031e-05
1.11389e-05
1.04126e-05
1.04258e-05
1.15815e-05
1.447e-05
1.87611e-05
1.71773e-05
6.99968e-06
2.42198e-06
2.08286e-07
2.04035e-07
2.64497e-06
7.48144e-06
1.85527e-05
2.65998e-05
2.56067e-05
2.20462e-05
1.91208e-05
1.75246e-05
1.70478e-05
1.73991e-05
1.83124e-05
1.95795e-05
2.10156e-05
2.24242e-05
2.35809e-05
2.42466e-05
2.42248e-05
2.34532e-05
2.20691e-05
2.02955e-05
1.82847e-05
1.62143e-05
1.42694e-05
1.26099e-05
1.13657e-05
1.06685e-05
1.07278e-05
1.19531e-05
1.49219e-05
1.91872e-05
1.73625e-05
7.06858e-06
2.44304e-06
2.09938e-07
2.05429e-07
2.64201e-06
7.49038e-06
1.85964e-05
2.63833e-05
2.51184e-05
2.14845e-05
1.86283e-05
1.71424e-05
1.67786e-05
1.72328e-05
1.82405e-05
1.95941e-05
2.11054e-05
2.2572e-05
2.37636e-05
2.44396e-05
2.4411e-05
2.36314e-05
2.22515e-05
2.04772e-05
1.84632e-05
1.63939e-05
1.44569e-05
1.2812e-05
1.15894e-05
1.09239e-05
1.10327e-05
1.23296e-05
1.53779e-05
1.96099e-05
1.75412e-05
7.13518e-06
2.46369e-06
2.11594e-07