/*--------------------------------*- C++ -*----------------------------------*\
| =========                 |                                                 |
| \\      /  F ield         | OpenFOAM: The Open Source CFD Toolbox           |
|  \\    /   O peration     | Version:  v1906                                 |
|   \\  /    A nd           | Web:      www.OpenFOAM.com                      |
|    \\/     M anipulation  |                                                 |
\*---------------------------------------------------------------------------*/
FoamFile
{
    version     2.0;
    format      ascii;
    class       volScalarField;
    location    "90";
    object      omega;
}
// * * * * * * * * * * * * * * * * * * * * * * * * * * * * * * * * * * * * * //

dimensions      [0 0 -1 0 0 0 0];


internalField   nonuniform List<scalar> 
78750
(
352.358
13.5455
13.5699
13.5946
13.619
13.6428
13.6657
13.6876
13.7082
13.7273
13.7449
13.7608
13.775
13.7874
13.798
13.8067
13.8136
13.8185
13.8216
13.8226
13.8217
13.8186
13.8133
13.8056
13.7954
13.7825
13.7667
13.7479
13.7263
13.7024
13.6776
13.6547
13.6397
13.64
356.315
517.049
4.15971
4.25189
4.33301
4.40393
4.46562
4.51877
4.56403
4.60205
4.63349
4.65893
4.67895
4.69404
4.70466
4.71133
4.71456
4.71475
4.71218
4.70713
4.6998
4.69037
4.67881
4.66513
4.64917
4.63067
4.60934
4.58476
4.556
4.52171
4.48021
4.42907
4.36585
4.29285
4.22009
523.144
517.061
4.22636
4.36636
4.48556
4.5833
4.66192
4.72461
4.7741
4.81244
4.84119
4.86159
4.87469
4.88139
4.88252
4.87884
4.87109
4.85995
4.84602
4.82987
4.81209
4.79323
4.77376
4.7539
4.73368
4.71287
4.69093
4.66698
4.63973
4.60733
4.56712
4.51542
4.44925
4.37251
4.29226
523.489
517.076
4.28571
4.46185
4.60627
4.71787
4.80165
4.86426
4.91076
4.9444
4.96734
4.98114
4.98697
4.98579
4.97841
4.96559
4.94808
4.92668
4.90225
4.87571
4.84808
4.82043
4.79378
4.76894
4.74625
4.72549
4.7058
4.68572
4.66322
4.63567
4.59973
4.55146
4.48902
4.41783
4.34069
523.84
517.095
4.34122
4.54539
4.70639
4.82427
4.90798
4.96766
5.01005
5.03904
5.05695
5.06528
5.065
5.05684
5.04143
5.01943
4.99165
4.95904
4.92276
4.88417
4.84486
4.80665
4.77147
4.74094
4.71588
4.69616
4.68072
4.66752
4.65362
4.63527
4.6081
4.56778
4.51321
4.44917
4.37524
524.183
517.113
4.3886
4.61471
4.78839
4.91101
4.99514
5.05367
5.09439
5.12132
5.13661
5.14146
5.13655
5.12235
5.09936
5.06827
5.03006
4.98604
4.93783
4.88734
4.83681
4.78883
4.74609
4.71049
4.6827
4.66252
4.64893
4.63994
4.63239
4.62199
4.60359
4.57226
4.5268
4.47
4.39915
524.507
517.131
4.4319
4.67615
4.85976
4.98588
5.07032
5.12798
5.16726
5.1922
5.20479
5.206
5.19624
5.1758
5.14513
5.10507
5.0569
5.00234
4.94348
4.88278
4.82316
4.76804
4.72059
4.68223
4.65307
4.6327
4.62022
4.61391
4.61088
4.60682
4.59613
4.57322
4.53606
4.4855
4.4174
524.82
517.146
4.46777
4.72744
4.9203
5.05062
5.13649
5.19445
5.23341
5.25743
5.26836
5.2669
5.25328
5.22767
5.19059
5.14311
5.08682
5.02382
4.95659
4.88805
4.82171
4.76169
4.711
4.67014
4.63879
4.6165
4.60265
4.59609
4.59456
4.59419
4.58929
4.57351
4.54354
4.49854
4.43372
525.107
517.161
4.50152
4.77519
4.97627
5.11027
5.19745
5.25562
5.29412
5.31701
5.32601
5.32168
5.3041
5.27343
5.23033
5.17608
5.11261
5.04234
4.96816
4.89349
4.82257
4.76017
4.70847
4.66696
4.63477
4.61125
4.59588
4.58801
4.58617
4.58728
4.586
4.57556
4.55137
4.51128
4.4502
525.376
517.175
4.53268
4.81932
5.02827
5.16613
5.25491
5.31362
5.35198
5.3741
5.3816
5.37487
5.35387
5.31879
5.2704
5.21021
5.1404
5.06371
4.9834
4.90336
4.82856
4.76438
4.71207
4.67034
4.63787
4.61366
4.59715
4.58789
4.585
4.58623
4.58689
4.58017
4.56052
4.52474
4.46759
525.625
517.188
4.5624
4.86094
5.07692
5.21811
5.30825
5.36734
5.40543
5.42664
5.43247
5.42322
5.39879
5.3594
5.30598
5.24022
5.16457
5.08205
4.9963
4.9117
4.83399
4.76904
4.71708
4.67615
4.64442
4.62057
4.60385
4.59385
4.59007
4.59089
4.59236
4.58796
4.57166
4.53945
4.48593
525.859
517.202
4.59252
4.90262
5.12522
5.26944
5.36078
5.4202
5.45804
5.47841
5.4827
5.47108
5.44342
5.39997
5.34177
5.27071
5.18946
5.10131
5.01024
4.9211
4.84036
4.77445
4.72283
4.68294
4.65247
4.62968
4.61355
4.60362
4.59949
4.59998
4.60175
4.59876
4.58486
4.55551
4.50504
526.079
517.216
4.62084
4.94129
5.16977
5.31667
5.40908
5.46883
5.50643
5.52598
5.52877
5.51487
5.48413
5.43685
5.37421
5.29826
5.21183
5.11848
5.02249
4.92916
4.84569
4.77902
4.72799
4.6895
4.66077
4.63968
4.62492
4.61586
4.6121
4.61264
4.6146
4.61244
4.60015
4.57289
4.52467
526.289
517.231
4.65043
4.9812
5.21523
5.36445
5.45773
5.51769
5.55502
5.57375
5.57506
5.55895
5.52524
5.47431
5.40743
5.32679
5.23539
5.13699
5.03612
4.93848
4.85191
4.78405
4.73327
4.69604
4.66909
4.64995
4.637
4.62938
4.62661
4.62769
4.63
4.62842
4.61722
4.59142
4.54467
526.489
517.246
4.67796
5.01786
5.25682
5.40817
5.50234
5.5626
5.59977
5.61781
5.61781
5.59969
5.56328
5.50902
5.4383
5.35341
5.25747
5.1544
5.04897
4.94719
4.85752
4.78837
4.73783
4.70191
4.67694
4.66007
4.64938
4.64376
4.64253
4.64465
4.64753
4.6464
4.63586
4.61093
4.56488
526.682
517.262
4.70675
5.05586
5.29957
5.45284
5.54774
5.60825
5.64523
5.66258
5.6613
5.64124
5.60226
5.54488
5.47056
5.38168
5.28146
5.1739
5.06393
4.95787
4.86457
4.79342
4.74252
4.70753
4.68437
4.6698
4.66158
4.65833
4.65912
4.66273
4.66652
4.66588
4.65578
4.63128
4.58525
526.867
517.277
4.7336
5.0909
5.33886
5.49394
5.58966
5.65052
5.68746
5.70427
5.70188
5.6801
5.63883
5.57865
5.50111
5.40866
5.30455
5.19286
5.07864
4.96846
4.87152
4.79815
4.74667
4.71247
4.69112
4.67899
4.67348
4.67295
4.67618
4.68166
4.68663
4.68653
4.67666
4.6522
4.60563
527.046
517.293
4.76149
5.12708
5.37926
5.53605
5.63253
5.69374
5.73061
5.74689
5.74343
5.72002
5.67661
5.61385
5.53336
5.43763
5.32992
5.21429
5.09589
4.98141
4.88033
4.80392
4.75112
4.71715
4.69726
4.68746
4.68478
4.68721
4.69324
4.70101
4.70749
4.70812
4.69842
4.6737
4.62608
527.219
517.308
4.7877
5.16076
5.4168
5.57528
5.67263
5.7343
5.77123
5.78708
5.78267
5.7578
5.71247
5.64743
5.56434
5.46572
5.35479
5.23562
5.11337
4.9948
4.88961
4.80986
4.75538
4.72134
4.70274
4.69523
4.69547
4.70109
4.71019
4.72054
4.72878
4.73022
4.72062
4.69542
4.64637
527.388
517.324
4.81468
5.19532
5.45527
5.61548
5.71373
5.77587
5.81282
5.82821
5.82285
5.79659
5.7495
5.6824
5.597
5.49581
5.38197
5.25952
5.13355
5.0108
4.90107
4.81715
4.7602
4.72543
4.70766
4.70221
4.70537
4.71434
4.7268
4.74006
4.75034
4.75279
4.74331
4.71747
4.66663
527.552
517.34
4.84022
5.22776
5.49144
5.6535
5.75285
5.81556
5.85254
5.86746
5.86117
5.83363
5.78496
5.71608
5.62871
5.52532
5.40902
5.28372
5.1544
5.02773
4.91353
4.82514
4.76527
4.72934
4.71208
4.70853
4.71458
4.72702
4.74303
4.75941
4.77196
4.77553
4.76618
4.73955
4.68663
527.713
517.357
4.8662
5.26069
5.52822
5.6924
5.79314
5.85641
5.89317
5.90743
5.90015
5.87136
5.82128
5.75085
5.66181
5.55656
5.43813
5.31028
5.17782
5.04725
4.92835
4.83475
4.77121
4.73343
4.71613
4.71416
4.72301
4.73897
4.7587
4.77844
4.79344
4.79825
4.78904
4.76155
4.70636
527.87
517.373
4.89085
5.29166
5.56291
5.72957
5.83191
5.89586
5.93236
5.94575
5.93747
5.90756
5.85627
5.78457
5.69419
5.58747
5.46734
5.33739
5.2022
5.06806
4.94457
4.84553
4.77786
4.73771
4.71996
4.71927
4.7308
4.75033
4.77392
4.79721
4.81486
4.8211
4.81209
4.7836
4.72584
528.023
517.39
4.91568
5.32268
5.59752
5.76662
5.87019
5.93488
5.97154
5.98416
5.97498
5.94407
5.89174
5.819
5.72755
5.61968
5.4982
5.36649
5.22888
5.09133
4.96322
4.85827
4.78581
4.7426
4.72376
4.72393
4.73791
4.76097
4.7885
4.81544
4.83583
4.84346
4.83458
4.80513
4.74477
528.174
517.406
4.9394
5.3521
5.63035
5.80162
5.90642
5.97193
6.00896
6.02134
6.01114
5.97929
5.9261
5.85255
5.76035
5.6517
5.52928
5.39627
5.2567
5.11618
4.9837
4.8728
4.79513
4.74829
4.72782
4.7284
4.74458
4.77107
4.80259
4.83332
4.85661
4.86583
4.8573
4.82661
4.76334
528.321
517.423
4.96303
5.38136
5.66333
5.83616
5.94198
6.00825
6.0457
6.05797
6.04693
6.01435
5.96052
5.88643
5.79373
5.68459
5.56157
5.42762
5.28649
5.14333
5.00671
4.8898
4.80642
4.75528
4.73246
4.73287
4.75087
4.78063
4.8161
4.85065
4.87686
4.88773
4.8799
4.84765
4.7813
528.465
517.439
4.98545
5.40873
5.69404
5.86849
5.97547
6.04268
6.08074
6.09314
6.08154
6.04838
5.99405
5.91959
5.82666
5.71736
5.59411
5.45966
5.31745
5.17218
5.03189
4.90929
4.81992
4.76395
4.73811
4.73774
4.75708
4.78982
4.82914
4.86752
4.89681
4.90972
4.90247
4.86864
4.79883
528.606
517.456
5.0077
5.43576
5.72424
5.90014
6.00817
6.07626
6.11495
6.12767
6.11596
6.08209
6.02733
5.9527
5.85979
5.75061
5.62746
5.49289
5.35002
5.20312
5.05966
4.93177
4.83613
4.77476
4.74519
4.7433
4.76342
4.79879
4.84181
4.88405
4.91663
4.93195
4.92517
4.88982
4.81608
528.742
517.472
5.0289
5.46123
5.7526
5.92989
6.03899
6.10803
6.14743
6.16052
6.14879
6.11448
6.05958
5.98507
5.89247
5.78374
5.66103
5.52674
5.38368
5.23569
5.08966
4.9571
4.85519
4.78805
4.75413
4.74998
4.77021
4.80774
4.85419
4.90021
4.93615
4.95403
4.94778
4.91088
4.83295
528.875
517.489
5.04983
5.48622
5.78027
5.95878
6.06887
6.13883
6.17897
6.19251
6.1809
6.14627
6.09139
6.01717
5.92509
5.81704
5.69506
5.56138
5.41854
5.26995
5.12192
4.98528
4.87721
4.80409
4.76525
4.75812
4.77775
4.81689
4.86646
4.9162
4.95554
4.976
4.97025
4.93173
4.84942
529.004
517.505
5.06994
5.50998
5.8064
5.98602
6.09707
6.16796
6.20888
6.22298
6.21161
6.17688
6.12221
6.04849
5.95717
5.85006
5.72912
5.5964
5.45419
5.30551
5.15608
5.016
4.9021
4.82299
4.77885
4.76807
4.78634
4.82644
4.87869
4.93183
4.97443
4.99754
4.99236
4.95222
4.86542
529.129
517.521
5.08975
5.53331
5.83175
6.01227
6.12419
6.19598
6.23771
6.2524
6.24138
6.2067
6.15237
6.07928
5.98887
5.8829
5.76324
5.63177
5.49057
5.34225
5.19197
5.04907
4.92981
4.84481
4.79511
4.78009
4.79627
4.83663
4.89103
4.94735
4.99327
5.01874
5.01405
4.97226
4.88091
529.249
517.537
5.1089
5.55596
5.85577
6.03702
6.14976
6.22246
6.26502
6.28039
6.26986
6.23547
6.18153
6.10919
6.01987
5.91525
5.7971
5.66719
5.52734
5.37983
5.22927
5.0842
4.96017
4.86959
4.81422
4.79447
4.80784
4.84773
4.90372
4.96291
5.01212
5.03963
5.0353
4.99182
4.89588
529.366
517.553
5.12732
5.57756
5.87868
6.06061
6.17416
6.24773
6.2911
6.30715
6.29717
6.26325
6.20974
6.13824
6.05013
5.94704
5.83063
5.70252
5.56434
5.41804
5.26772
5.12115
4.993
4.89725
4.83626
4.81142
4.82131
4.85999
4.91695
4.9786
5.03085
5.06017
5.05607
5.01085
4.91031
529.48
517.568
5.14508
5.59821
5.90042
6.08292
6.19718
6.2716
6.31577
6.33252
6.32311
6.28971
6.23677
6.16627
6.07955
5.97815
5.86365
5.73755
5.60131
5.45659
5.307
5.15957
5.02808
4.9277
4.86127
4.83112
4.83695
4.87367
4.93091
4.9945
5.04943
5.08034
5.07635
5.02934
4.92422
529.59
517.583
5.16206
5.61786
5.92102
6.10401
6.21895
6.29417
6.33913
6.35656
6.34777
6.315
6.26274
6.19336
6.10813
6.00853
5.89607
5.77216
5.63809
5.49525
5.34682
5.19915
5.06508
4.96071
4.88919
4.85364
4.85494
4.88899
4.94578
5.01071
5.06789
5.10011
5.0961
5.04727
4.93759
529.697
517.598
5.1785
5.63665
5.94051
6.12388
6.23945
6.31549
6.36124
6.37937
6.3712
6.33905
6.28755
6.21942
6.13581
6.03815
5.92787
5.80629
5.67457
5.53387
5.38698
5.23962
5.10375
4.99605
4.91988
4.87901
4.87542
4.90617
4.96178
5.02739
5.0863
5.11952
5.11534
5.06465
4.95044
529.801
517.613
5.19419
5.65437
5.95881
6.1425
6.25868
6.33549
6.38203
6.40088
6.39337
6.36193
6.31129
6.24443
6.16253
6.06692
5.95894
5.83981
5.71059
5.57225
5.42724
5.28071
5.14377
5.03342
4.95312
4.90713
4.89845
4.92533
4.97903
5.04465
5.10473
5.1386
5.13409
5.08148
4.96279
529.903
517.627
5.20919
5.67117
5.97602
6.15997
6.27671
6.35427
6.40157
6.42114
6.41431
6.38363
6.33396
6.26849
6.18835
6.09486
5.98927
5.87271
5.74612
5.61031
5.46746
5.32219
5.18487
5.07256
4.9887
4.93787
4.92401
4.94656
4.99769
5.06261
5.12328
5.15742
5.15237
5.09779
4.97468
530.002
517.641
5.22349
5.68699
5.9921
6.17623
6.2935
6.37178
6.41983
6.4401
6.43397
6.40409
6.35547
6.29147
6.21318
6.12185
6.01872
5.90483
5.78099
5.64787
5.50743
5.36385
5.22678
5.11316
5.02633
4.97104
4.95201
4.96988
5.01782
5.08136
5.14203
5.17604
5.17024
5.11361
4.98612
530.1
517.655
5.23712
5.7019
6.00716
6.1914
6.30914
6.38811
6.43687
6.45783
6.45239
6.42336
6.37586
6.31341
6.23704
6.14796
6.04733
5.93615
5.81516
5.68487
5.54704
5.40549
5.26925
5.15498
5.06577
5.00645
4.98238
4.9953
5.0395
5.10101
5.16105
5.19452
5.18775
5.129
4.99718
530.196
517.668
5.25001
5.71585
6.02112
6.2054
6.32358
6.40319
6.45265
6.47427
6.46952
6.44134
6.39503
6.33419
6.25982
6.17305
6.07499
5.96657
5.8485
5.72116
5.58613
5.44693
5.31205
5.19774
5.10675
5.04386
5.01494
5.02276
5.06276
5.12161
5.18044
5.21294
5.20496
5.14401
5.00791
530.29
517.681
5.2623
5.72898
6.03413
6.21838
6.33693
6.41715
6.46725
6.4895
6.48543
6.45812
6.41305
6.35386
6.28151
6.19709
6.10165
5.99605
5.88092
5.75664
5.62457
5.48798
5.35495
5.2412
5.14903
5.08307
5.04956
5.0522
5.0876
5.14322
5.20025
5.23137
5.22195
5.1587
5.01835
530.383
517.694
5.27388
5.74117
6.04607
6.23024
6.34912
6.4299
6.48062
6.50347
6.50005
6.47362
6.42984
6.37234
6.30205
6.22002
6.12722
6.02448
5.91236
5.79117
5.66225
5.52851
5.39776
5.28511
5.19235
5.12385
5.08606
5.08353
5.11401
5.16589
5.22057
5.2499
5.2388
5.17314
5.02859
530.474
517.706
5.28489
5.75259
6.0571
6.2411
6.36027
6.44157
6.49286
6.51629
6.5135
6.48795
6.44547
6.38968
6.32145
6.2418
6.15166
6.05179
5.94269
5.82462
5.69882
5.56822
5.44019
5.3292
5.23644
5.16596
5.12429
5.11666
5.14199
5.18964
5.24144
5.26858
5.25557
5.18741
5.03866
530.564
517.718
5.29521
5.76307
6.06709
6.25087
6.37029
6.45209
6.50393
6.52791
6.52575
6.50107
6.45994
6.40587
6.33971
6.26243
6.17494
6.07794
5.97189
5.857
5.73447
5.60712
5.48216
5.37327
5.28104
5.20914
5.16404
5.1515
5.17151
5.21454
5.26297
5.28753
5.27236
5.20158
5.04864
530.653
517.729
5.30493
5.77276
6.07616
6.25968
6.3793
6.46156
6.51393
6.53844
6.53688
6.51309
6.47333
6.42097
6.35685
6.28193
6.19705
6.10289
5.99987
5.88818
5.76897
5.64505
5.52351
5.41712
5.32589
5.25311
5.20507
5.18789
5.20253
5.2406
5.28521
5.30681
5.28923
5.21571
5.05856
530.741
517.74
5.31397
5.78155
6.08423
6.26743
6.38724
6.46995
6.52283
6.54785
6.54691
6.52403
6.48567
6.43502
6.37294
6.30032
6.21801
6.12665
6.02663
5.91811
5.80227
5.68189
5.56404
5.4605
5.37073
5.2976
5.24713
5.22566
5.23497
5.26781
5.30822
5.32652
5.3063
5.22988
5.06849
530.828
517.751
5.32241
5.78955
6.09141
6.27424
6.39421
6.47734
6.53071
6.55623
6.5559
6.53394
6.49702
6.4481
6.38802
6.31767
6.23786
6.14923
6.05215
5.94677
5.83431
5.71757
5.60367
5.50323
5.41531
5.34233
5.28996
5.26462
5.26876
5.29629
5.33207
5.34672
5.3236
5.24416
5.07846
530.915
517.762
5.33023
5.79672
6.09765
6.28007
6.40016
6.4837
6.53755
6.56357
6.56386
6.54286
6.50742
6.46025
6.40215
6.33403
6.25667
6.17069
6.07647
5.97418
5.86507
5.75203
5.64228
5.54519
5.45944
5.38704
5.33329
5.30453
5.30377
5.326
5.35683
5.3675
5.34126
5.25862
5.08853
531.002
517.772
5.33749
5.80314
6.10304
6.28499
6.40517
6.48909
6.5434
6.56991
6.57084
6.55082
6.51692
6.47151
6.4154
6.34946
6.27448
6.19107
6.09963
6.00036
5.89456
5.78525
5.6798
5.58624
5.50294
5.43152
5.37687
5.34518
5.33983
5.35682
5.3825
5.38891
5.35932
5.2733
5.09873
531.089
517.782
5.34421
5.80882
6.10758
6.28899
6.40923
6.49349
6.54825
6.57525
6.57682
6.55785
6.52554
6.48194
6.42781
6.36403
6.29137
6.21047
6.12171
6.02537
5.92282
5.81725
5.7162
5.62631
5.54569
5.47561
5.42054
5.38639
5.37681
5.38865
5.40907
5.411
5.37785
5.2883
5.1091
531.175
517.792
5.35044
5.81382
6.1113
6.2921
6.41235
6.49693
6.5521
6.57958
6.58183
6.56394
6.5333
6.49153
6.4394
6.37776
6.30738
6.22891
6.14277
6.04926
5.9499
5.84805
5.75147
5.66536
5.58761
5.51918
5.46408
5.42794
5.4145
5.42138
5.43649
5.43379
5.3969
5.30363
5.11968
531.262
517.801
5.3562
5.81815
6.11422
6.29434
6.41453
6.4994
6.55496
6.58292
6.58587
6.56912
6.54022
6.50033
6.4502
6.39069
6.32257
6.24647
6.16287
6.07212
5.97588
5.87771
5.78564
5.70336
5.62863
5.56209
5.50735
5.46967
5.45278
5.45492
5.46472
5.45728
5.41649
5.31935
5.1305
531.35
517.81
5.36151
5.82183
6.11636
6.2957
6.41579
6.50088
6.55681
6.58525
6.58895
6.57341
6.5463
6.50831
6.46021
6.40283
6.33694
6.26319
6.18206
6.09402
6.00084
5.90633
5.81877
5.74035
5.66872
5.60428
5.55022
5.51138
5.49145
5.48916
5.49374
5.48147
5.43667
5.3355
5.14159
531.438
517.819
5.36639
5.82488
6.11772
6.2962
6.41612
6.5014
6.55767
6.58659
6.5911
6.57693
6.55159
6.5155
6.46942
6.41417
6.35052
6.27909
6.20041
6.11503
6.02486
5.934
5.85092
5.77636
5.70789
5.64569
5.59257
5.55295
5.53038
5.52397
5.52344
5.50635
5.45743
5.35209
5.15295
531.527
517.828
5.37083
5.82728
6.1183
6.29584
6.41552
6.50094
6.55749
6.58687
6.59226
6.57964
6.55602
6.52182
6.47778
6.4247
6.36329
6.29419
6.21796
6.13521
6.04806
5.96087
5.88222
5.81147
5.74615
5.68628
5.63432
5.59427
5.5694
5.55922
5.55378
5.53188
5.47878
5.36915
5.16462
531.617
517.837
5.37485
5.82908
6.11814
6.29464
6.41404
6.49953
6.55631
6.58611
6.59234
6.58128
6.55944
6.5272
6.48527
6.43438
6.37524
6.30849
6.23472
6.15464
6.07053
5.98709
5.91278
5.84575
5.78355
5.72605
5.67541
5.6352
5.60842
5.59481
5.58465
5.55803
5.50073
5.38668
5.17661
531.707
517.846
5.37844
5.83024
6.11721
6.2926
6.41165
6.49717
6.55415
6.58436
6.59146
6.58203
6.562
6.53173
6.49191
6.44323
6.38639
6.32202
6.25074
6.17337
6.0924
6.01286
5.94275
5.87933
5.82017
5.76504
5.71581
5.67567
5.64729
5.63053
5.61592
5.5847
5.5232
5.40466
5.18889
531.798
517.854
5.38159
5.83078
6.11554
6.28975
6.4084
6.49391
6.55104
6.58162
6.58959
6.58181
6.56362
6.53535
6.49766
6.45122
6.3967
6.33473
6.26599
6.19141
6.1137
6.03826
5.97222
5.91227
5.85605
5.80326
5.7555
5.71561
5.68594
5.66641
5.64755
5.61187
5.54621
5.4231
5.20151
531.89
517.862
5.38426
5.83065
6.11309
6.28607
6.40429
6.48976
6.54701
6.57796
6.58681
6.58072
6.56437
6.5381
6.50254
6.45834
6.40615
6.34662
6.28046
6.20873
6.13441
6.06326
6.00118
5.94461
5.89125
5.84073
5.79448
5.75496
5.72423
5.70225
5.6794
5.63941
5.56963
5.44193
5.2144
531.982
517.87
5.38645
5.82986
6.10991
6.28162
6.39938
6.48478
6.54214
6.57345
6.5832
6.57882
6.56431
6.54003
6.50658
6.4646
6.41474
6.35764
6.29409
6.22528
6.15444
6.0877
6.02953
5.97628
5.92572
5.87746
5.83273
5.79371
5.76215
5.73801
5.71144
5.6673
5.59347
5.46114
5.22757
532.075
517.877
5.38811
5.82838
6.10595
6.27635
6.39365
6.47898
6.53645
6.56814
6.57882
6.57618
6.56351
6.54119
6.50982
6.47005
6.42249
6.36782
6.30689
6.24102
6.17372
6.11147
6.05717
6.00719
5.9594
5.91338
5.8702
5.83176
5.79954
5.7735
5.74349
5.69543
5.61764
5.48067
5.24097
532.168
517.885
5.38928
5.82625
6.10129
6.27036
6.38717
6.47242
6.53002
6.56212
6.57378
6.57292
6.56209
6.54169
6.51236
6.47473
6.42944
6.37718
6.31886
6.25596
6.19227
6.13452
6.08405
6.03729
5.99223
5.94846
5.90688
5.86914
5.83646
5.80878
5.77556
5.72376
5.64208
5.50044
5.25454
532.261
517.892
5.38995
5.82349
6.09592
6.26362
6.37992
6.4651
6.52284
6.55541
6.56814
6.56912
6.56014
6.54165
6.5143
6.47876
6.43569
6.3858
6.33009
6.27019
6.21016
6.15688
6.11017
6.06657
6.02419
5.9826
5.94263
5.90566
5.87267
5.8436
5.80744
5.75211
5.66667
5.52037
5.26823
532.355
517.898
5.39021
5.8202
6.08994
6.25621
6.37197
6.45706
6.51496
6.54808
6.56196
6.56486
6.55775
6.54114
6.51574
6.48225
6.44134
6.3938
6.34069
6.28382
6.22754
6.17865
6.13561
6.09509
6.05531
6.0159
5.97754
5.94142
5.90826
5.87802
5.83914
5.78047
5.69137
5.54046
5.28206
532.449
517.905
5.39014
5.81643
6.08336
6.24812
6.36328
6.44824
6.50632
6.54008
6.55528
6.56017
6.55497
6.54025
6.51678
6.4853
6.44653
6.40131
6.35081
6.29703
6.24462
6.19997
6.16044
6.12288
6.08562
6.04829
6.01153
5.97628
5.94307
5.91187
5.87052
5.8087
5.71608
5.5606
5.29596
532.542
517.911
5.38982
5.81226
6.07625
6.23941
6.35388
6.43864
6.49689
6.5314
6.54819
6.55502
6.55174
6.53896
6.51745
6.488
6.45136
6.40846
6.3606
6.31
6.26161
6.22099
6.18479
6.15003
6.11515
6.07983
6.04459
6.01021
5.97703
5.94509
5.90151
5.83679
5.74078
5.58081
5.30994
532.635
517.918
5.38926
5.80767
6.0686
6.23005
6.34375
6.42824
6.48658
6.52188
6.54048
6.5492
6.54791
6.53717
6.51772
6.49034
6.45588
6.41533
6.37015
6.32281
6.27859
6.24179
6.20874
6.17662
6.14399
6.11057
6.07682
6.04339
6.01061
5.97775
5.93204
5.86457
5.76531
5.60094
5.32389
532.727
517.924
5.38848
5.80267
6.0604
6.22007
6.33295
6.41707
6.47543
6.51143
6.53183
6.54256
6.54339
6.5348
6.51752
6.49232
6.46009
6.42194
6.3795
6.33551
6.29553
6.26239
6.23234
6.20272
6.17223
6.14063
6.10833
6.07592
6.04367
6.00992
5.96217
5.89211
5.78972
5.62101
5.33781
532.819
517.93
5.38739
5.79714
6.05159
6.20946
6.32147
6.40518
6.4635
6.5002
6.5224
6.53514
6.53813
6.53179
6.51677
6.49385
6.46395
6.42829
6.38867
6.34809
6.31238
6.28279
6.2556
6.22836
6.1999
6.17001
6.13911
6.10771
6.07605
6.04147
5.9918
5.91927
5.81388
5.64096
5.35176
532.91
517.936
5.38585
5.791
6.04217
6.19824
6.30938
6.39265
6.45089
6.48825
6.51221
6.52692
6.53207
6.52803
6.51537
6.49484
6.46739
6.43432
6.39762
6.36058
6.32912
6.30297
6.27855
6.2536
6.22707
6.19882
6.16927
6.13885
6.10782
6.07247
6.02099
5.94614
5.83788
5.66086
5.36576
533
517.941
5.38373
5.78419
6.03209
6.18639
6.2967
6.37956
6.43775
6.47577
6.50148
6.5181
6.52537
6.5236
6.51333
6.49527
6.47037
6.44002
6.40639
6.37304
6.34576
6.32295
6.30119
6.27843
6.25374
6.22705
6.19876
6.1693
6.13888
6.10281
6.04962
5.97258
5.86156
5.68054
5.37965
533.088
517.946
5.38107
5.77677
6.02139
6.17395
6.28346
6.36595
6.42416
6.46292
6.49037
6.50885
6.51815
6.5186
6.5107
6.49513
6.47287
6.44538
6.415
6.38555
6.36236
6.34276
6.32357
6.30292
6.28
6.2548
6.22772
6.19915
6.16935
6.1326
6.07779
5.99868
5.88501
5.70007
5.39347
533.176
517.951
5.37792
5.76877
6.01008
6.16089
6.26962
6.35182
6.41017
6.44981
6.47911
6.49945
6.51072
6.51329
6.50768
6.49459
6.47501
6.45048
6.42353
6.39822
6.37894
6.36241
6.34567
6.32702
6.3058
6.28202
6.25609
6.22838
6.19917
6.16174
6.10539
6.02429
5.90806
5.7193
5.40707
533.262
517.955
5.37448
5.76037
5.99825
6.14722
6.25512
6.33706
6.3957
6.43644
6.46777
6.49004
6.50325
6.50787
6.50448
6.4938
6.47689
6.4554
6.43201
6.41103
6.39553
6.38194
6.36754
6.35082
6.33121
6.30879
6.28397
6.25708
6.22845
6.19038
6.13256
6.04957
5.93086
5.73836
5.42057
533.348
517.96
5.37092
5.75166
5.98588
6.13285
6.23983
6.32151
6.3806
6.42273
6.45632
6.48068
6.49592
6.50258
6.50134
6.49301
6.47872
6.46026
6.44051
6.42392
6.41204
6.40127
6.38912
6.37425
6.3562
6.33508
6.31131
6.2852
6.25711
6.2184
6.15915
6.07435
5.95322
5.75705
5.43384
533.431
517.965
5.36736
5.74272
5.97301
6.11774
6.22362
6.30496
6.36464
6.40855
6.44458
6.47124
6.48868
6.49749
6.49843
6.49241
6.48071
6.46527
6.44919
6.43696
6.42855
6.42048
6.41049
6.39739
6.38082
6.36096
6.33819
6.31285
6.28529
6.24597
6.18537
6.09882
5.97535
5.77559
5.447
533.514
517.969
5.36384
5.73353
5.95959
6.10181
6.20636
6.2872
6.34755
6.39375
6.43223
6.46144
6.48136
6.49254
6.49578
6.49213
6.48303
6.47062
6.45823
6.45019
6.44506
6.43954
6.43159
6.42018
6.40504
6.38638
6.36458
6.33995
6.3129
6.27296
6.21103
6.12278
5.99702
5.79374
5.4599
533.594
517.974
5.3603
5.72405
5.94558
6.08502
6.18797
6.26805
6.32894
6.37747
6.41874
6.4509
6.47368
6.48753
6.49331
6.4922
6.48581
6.47653
6.46793
6.46385
6.46176
6.4586
6.45255
6.44272
6.42891
6.41138
6.39048
6.36655
6.34002
6.29952
6.23636
6.14649
6.01851
5.81176
5.4727
533.673
517.98
5.35665
5.7142
5.93094
6.06736
6.16844
6.24755
6.30891
6.35986
6.40411
6.43947
6.4654
6.48221
6.49079
6.49244
6.48897
6.483
6.47836
6.47795
6.47865
6.47766
6.47335
6.46497
6.45242
6.43596
6.41602
6.39302
6.36666
6.3255
6.26111
6.16967
6.03952
5.82937
5.4852
533.751
517.985
5.35286
5.704
5.91571
6.04883
6.14775
6.22564
6.28736
6.34078
6.38815
6.42693
6.45627
6.47634
6.48802
6.4927
6.4924
6.48998
6.48947
6.49253
6.4958
6.4968
6.49409
6.48707
6.47569
6.46029
6.44133
6.41933
6.39304
6.35118
6.28559
6.19263
6.06037
5.84687
5.4976
533.827
517.99
5.34899
5.69351
5.89992
6.02947
6.12592
6.20234
6.26435
6.32031
6.37092
6.41327
6.44621
6.46976
6.48477
6.49273
6.49584
6.4972
6.50096
6.50734
6.51306
6.51593
6.51471
6.50894
6.49865
6.48425
6.46623
6.44519
6.41892
6.37631
6.30952
6.21508
6.08074
5.86395
5.50968
533.901
517.995
5.34522
5.68289
5.88367
6.00928
6.10288
6.17756
6.23982
6.29846
6.35249
6.39858
6.43529
6.4625
6.48103
6.4925
6.49924
6.5046
6.51268
6.52228
6.53037
6.53502
6.53523
6.53064
6.52141
6.50797
6.49088
6.47079
6.44451
6.40115
6.3332
6.23732
6.10097
5.88093
5.52166
533.975
518
5.34171
5.67225
5.86701
5.98826
6.07855
6.15113
6.21358
6.27507
6.33276
6.38282
6.42349
6.45453
6.47678
6.49195
6.50255
6.51214
6.52449
6.53721
6.54759
6.55397
6.55554
6.55208
6.54384
6.5313
6.51508
6.49588
6.46953
6.4254
6.3563
6.25902
6.12068
5.89744
5.53326
534.046
518.007
5.33862
5.6617
5.85003
5.96643
6.05286
6.1229
6.18543
6.24991
6.31155
6.36589
6.4108
6.44589
6.47206
6.49114
6.50585
6.51991
6.53638
6.55211
6.5647
6.57276
6.57566
6.5733
6.56602
6.55437
6.539
6.52068
6.49426
6.44937
6.37916
6.28052
6.14024
5.91383
5.54473
534.117
518.013
5.33587
5.65116
5.83269
5.94379
6.02576
6.09274
6.15511
6.22258
6.28838
6.34735
6.39684
6.43631
6.46667
6.48993
6.50901
6.52781
6.54824
6.56685
6.58158
6.59128
6.59548
6.59419
6.58782
6.57701
6.56243
6.54491
6.51836
6.4727
6.40139
6.30142
6.15922
5.92969
5.55576
534.186
518.021
5.33331
5.64058
5.81507
5.92046
5.99738
6.06074
6.12273
6.19281
6.26282
6.32671
6.38117
6.42538
6.46028
6.48803
6.51177
6.5355
6.5598
6.58126
6.59811
6.60945
6.61495
6.61474
6.60931
6.59932
6.58554
6.56881
6.54214
6.49573
6.42337
6.32211
6.17804
5.94543
5.56663
534.255
518.028
5.33065
5.62978
5.79714
5.89654
5.96784
6.02697
6.0883
6.16034
6.23442
6.30342
6.3632
6.41254
6.45236
6.48495
6.51369
6.54252
6.57069
6.59501
6.61404
6.62708
6.63392
6.63481
6.6303
6.62113
6.60808
6.59209
6.56523
6.51806
6.44466
6.34212
6.19622
5.96056
5.57699
534.322
518.035
5.32775
5.61877
5.77902
5.87222
5.93742
5.99167
6.05162
6.12521
6.20318
6.27733
6.34263
6.3974
6.44248
6.48027
6.51435
6.54838
6.58047
6.60775
6.62908
6.64393
6.65224
6.65433
6.65082
6.6425
6.63024
6.61498
6.58798
6.54008
6.46569
6.36194
6.21424
5.97558
5.58722
534.389
518.041
5.32469
5.60766
5.76078
5.84755
5.90628
5.95528
6.01345
6.0881
6.16957
6.24867
6.3195
6.37987
6.43047
6.47379
6.51354
6.5528
6.58885
6.61921
6.64297
6.6598
6.66971
6.6731
6.67066
6.66324
6.65171
6.63714
6.60995
6.56131
6.48594
6.381
6.23153
5.98993
5.59688
534.454
518.048
5.32179
5.59671
5.7425
5.8225
5.87427
5.91765
5.97382
6.04932
6.13404
6.21787
6.2941
6.36008
6.41633
6.4654
6.51112
6.55554
6.59559
6.62913
6.65549
6.67447
6.68616
6.69104
6.68982
6.6834
6.67278
6.65887
6.63155
6.58224
6.50595
6.39987
6.24868
6.00416
5.60643
534.52
518.055
5.31938
5.58609
5.7242
5.79694
5.84116
5.87865
5.93282
6.00928
6.09719
6.18554
6.26696
6.33842
6.40032
6.45526
6.5071
6.55656
6.60061
6.63741
6.66651
6.68779
6.70143
6.70793
6.70806
6.70279
6.69327
6.67977
6.65223
6.60223
6.52506
6.41786
6.26499
6.01762
5.61532
534.584
518.063
5.31789
5.57607
5.70596
5.77071
5.80661
5.83772
5.89001
5.96782
6.05913
6.15198
6.23841
6.31518
6.38262
6.44341
6.50133
6.55572
6.60376
6.64392
6.67591
6.69969
6.7155
6.72385
6.72557
6.72167
6.71342
6.70035
6.67258
6.62193
6.54391
6.43564
6.28113
6.03094
5.62407
534.65
518.073
5.31737
5.56668
5.68781
5.74374
5.77024
5.79427
5.84472
5.92439
6.01962
6.11724
6.20874
6.29071
6.36358
6.43014
6.49393
6.55306
6.60504
6.64859
6.68356
6.70999
6.72811
6.73848
6.74192
6.73951
6.73257
6.71993
6.69191
6.6406
6.56175
6.45244
6.29632
6.04337
5.63206
534.712
518.083
5.3178
5.55801
5.66999
5.71633
5.73225
5.74824
5.79631
5.87806
5.9778
6.08067
6.17749
6.26477
6.34307
6.41539
6.48476
6.54844
6.60431
6.65131
6.68941
6.71866
6.73933
6.75195
6.75736
6.75665
6.75119
6.73906
6.71084
6.65893
6.5793
6.46898
6.31128
6.0556
5.63982
534.778
518.094
5.31883
5.54993
5.65263
5.68878
5.69289
5.69942
5.74428
5.82809
5.93279
6.04151
6.14411
6.23699
6.32089
6.39904
6.47371
6.54176
6.60145
6.65191
6.69321
6.72541
6.74877
6.76381
6.77133
6.77243
6.7685
6.75694
6.72856
6.67609
6.59573
6.48445
6.32522
6.06687
5.64674
534.84
518.105
5.32017
5.54243
5.63603
5.66176
5.65311
5.64868
5.6889
5.7739
5.88359
5.99858
6.10747
6.20636
6.29618
6.38037
6.46021
6.53261
6.59617
6.65022
6.69488
6.73025
6.75654
6.77425
6.78413
6.78728
6.78508
6.7742
6.74577
6.69281
6.61178
6.49959
6.33887
6.0779
5.6534
534.906
518.116
5.32153
5.53542
5.62036
5.63568
5.6136
5.59673
5.63047
5.7155
5.82979
5.95125
6.06682
6.17213
6.26819
6.35865
6.44369
6.52052
6.58807
6.64584
6.69403
6.73272
6.76212
6.78267
6.79509
6.80043
6.80005
6.78997
6.76158
6.70824
6.62663
6.5136
6.35147
6.08795
5.65922
534.968
518.126
5.32282
5.5289
5.60573
5.61095
5.5752
5.54464
5.57005
5.65347
5.77139
5.89906
6.02149
6.13354
6.23618
6.33316
6.42359
6.50508
6.57688
6.63865
6.69063
6.73294
6.76574
6.78942
6.80465
6.81242
6.81407
6.80495
6.77673
6.72311
6.641
6.52721
6.36371
6.0977
5.66477
535.034
518.135
5.32408
5.52284
5.59205
5.58758
5.53822
5.49326
5.50873
5.58874
5.70905
5.84236
5.97154
6.09046
6.19988
6.30353
6.39952
6.4859
6.56219
6.6282
6.68422
6.73036
6.76677
6.79378
6.81202
6.8224
6.82622
6.8182
6.7903
6.73655
6.65408
6.53962
6.37486
6.10647
5.66949
535.096
518.145
5.32554
5.51723
5.57914
5.56525
5.50247
5.4429
5.44737
5.52243
5.64378
5.78188
5.91743
6.04312
6.1594
6.26977
6.37148
6.46299
6.54407
6.61463
6.67501
6.7253
6.76562
6.79627
6.81779
6.83102
6.83722
6.83048
6.80307
6.74932
6.66658
6.55154
6.38559
6.11488
5.67393
535.164
518.155
5.32739
5.51206
5.56678
5.54361
5.46756
5.39337
5.38637
5.45549
5.57673
5.71871
5.86001
5.99215
6.11514
6.23205
6.33947
6.43622
6.52227
6.59758
6.66253
6.71718
6.76164
6.79613
6.82112
6.83739
6.84611
6.84084
6.81408
6.76051
6.67766
6.56217
6.39513
6.12224
5.67751
535.226
518.166
5.32973
5.50727
5.55479
5.52233
5.43298
5.3442
5.32549
5.38809
5.50839
5.65344
5.79996
5.93819
6.06769
6.19086
6.30395
6.40604
6.49722
6.57752
6.64729
6.70659
6.75545
6.79404
6.82275
6.84228
6.85372
6.85009
6.82416
6.77091
6.68808
6.57222
6.40419
6.12918
5.68073
535.295
518.177
5.33238
5.5027
5.54315
5.50148
5.39883
5.29536
5.26453
5.32015
5.43899
5.58651
5.73767
5.88152
6.01717
6.14625
6.26486
6.37227
6.46866
6.55405
6.62879
6.69288
6.7463
6.78916
6.82177
6.84472
6.85902
6.85721
6.83228
6.77954
6.69688
6.58081
6.4119
6.13493
5.68295
535.357
518.189
5.33502
5.49818
5.53183
5.48123
5.36545
5.24717
5.20325
5.2511
5.36792
5.51748
5.67288
5.82207
5.96363
6.09843
6.22255
6.33538
6.43711
6.52779
6.60769
6.6768