/*--------------------------------*- C++ -*----------------------------------*\
| =========                 |                                                 |
| \\      /  F ield         | OpenFOAM: The Open Source CFD Toolbox           |
|  \\    /   O peration     | Version:  v1906                                 |
|   \\  /    A nd           | Web:      www.OpenFOAM.com                      |
|    \\/     M anipulation  |                                                 |
\*---------------------------------------------------------------------------*/
FoamFile
{
    version     2.0;
    format      ascii;
    class       surfaceScalarField;
    location    "90";
    object      phi;
}
// * * * * * * * * * * * * * * * * * * * * * * * * * * * * * * * * * * * * * //

dimensions      [1 0 -1 0 0 0 0];
oriented        oriented;


internalField   nonuniform List<scalar> 
228225
(
2.13599e-07
-2.18939e-07
7.82825e-09
7.19513e-07
-5.24154e-07
1.82621e-08
1.41687e-06
-7.2882e-07
3.1485e-08
2.23642e-06
-8.66987e-07
4.74385e-08
3.13115e-06
-9.58932e-07
6.41812e-08
4.06789e-06
-1.01687e-06
8.00579e-08
5.0216e-06
-1.04798e-06
9.41666e-08
5.97198e-06
-1.05673e-06
1.06195e-07
6.9016e-06
-1.04599e-06
1.16164e-07
7.79496e-06
-1.01786e-06
1.24239e-07
8.638e-06
-9.73968e-07
1.30625e-07
9.41793e-06
-9.15794e-07
1.35512e-07
1.01233e-05
-8.44778e-07
1.39065e-07
1.07441e-05
-7.62678e-07
1.41405e-07
1.12722e-05
-6.71188e-07
1.42632e-07
1.17002e-05
-5.71245e-07
1.42827e-07
1.20214e-05
-4.63824e-07
1.42048e-07
1.22309e-05
-3.5035e-07
1.40362e-07
1.23248e-05
-2.32281e-07
1.37864e-07
1.23009e-05
-1.11267e-07
1.34595e-07
1.21609e-05
8.92126e-09
1.30575e-07
1.18985e-05
1.36087e-07
1.25797e-07
1.15187e-05
2.58991e-07
1.20292e-07
1.10256e-05
3.78514e-07
1.14091e-07
1.04251e-05
4.92859e-07
1.07246e-07
9.72541e-06
5.99399e-07
9.98632e-08
8.93773e-06
6.95227e-07
9.21046e-08
8.07468e-06
7.78542e-07
8.42308e-08
7.14868e-06
8.49209e-07
7.66016e-08
6.16652e-06
9.1263e-07
6.94459e-08
5.11486e-06
9.89386e-07
6.23245e-08
3.94044e-06
1.12101e-06
5.36576e-08
2.56782e-06
1.332e-06
4.11957e-08
1.06173e-06
1.48254e-06
2.46844e-08
1.05598e-06
7.67573e-09
1.30361e-07
-3.77036e-07
2.77096e-08
5.16796e-07
-9.77501e-07
6.69232e-08
1.11902e-06
-1.42784e-06
9.68375e-08
1.8867e-06
-1.75507e-06
1.20462e-07
2.77194e-06
-1.98319e-06
1.39105e-07
3.73365e-06
-2.13227e-06
1.53789e-07
4.7377e-06
-2.21735e-06
1.65423e-07
5.75545e-06
-2.24917e-06
1.74788e-07
6.76267e-06
-2.2356e-06
1.82491e-07
7.73866e-06
-2.18273e-06
1.88968e-07
8.66569e-06
-2.09544e-06
1.94515e-07
9.52847e-06
-1.97786e-06
1.99329e-07
1.03138e-05
-1.83364e-06
2.03512e-07
1.10107e-05
-1.66651e-06
2.07004e-07
1.161e-05
-1.48029e-06
2.0971e-07
1.21049e-05
-1.27796e-06
2.11758e-07
1.24892e-05
-1.0616e-06
2.13306e-07
1.27575e-05
-8.33175e-07
2.144e-07
1.29049e-05
-5.9492e-07
2.15064e-07
1.29276e-05
-3.49457e-07
2.1527e-07
1.28221e-05
-1.009e-07
2.14973e-07
1.25909e-05
1.5287e-07
2.14094e-07
1.22293e-05
4.07754e-07
2.125e-07
1.17384e-05
6.58937e-07
2.10025e-07
1.11202e-05
9.04258e-07
2.06449e-07
1.03774e-05
1.14022e-06
2.01485e-07
9.51361e-06
1.36366e-06
1.94967e-07
8.53201e-06
1.5728e-06
1.86944e-07
7.4353e-06
1.76821e-06
1.77374e-07
6.22329e-06
1.95848e-06
1.65924e-07
4.89292e-06
2.16791e-06
1.51729e-07
3.45451e-06
2.42656e-06
1.3296e-07
1.985e-06
2.69453e-06
1.0743e-07
6.81758e-07
2.7127e-06
7.40511e-08
1.70881e-06
3.06565e-08
1.4775e-07
-5.61309e-07
3.65368e-08
5.57544e-07
-1.47069e-06
8.34145e-08
1.1784e-06
-2.16235e-06
1.13693e-07
1.94655e-06
-2.65695e-06
1.33784e-07
2.79946e-06
-2.98353e-06
1.47519e-07
3.69009e-06
-3.18032e-06
1.5751e-07
4.58712e-06
-3.27968e-06
1.65392e-07
5.46922e-06
-3.30327e-06
1.7209e-07
6.32075e-06
-3.26514e-06
1.78088e-07
7.12947e-06
-3.17499e-06
1.83619e-07
7.88532e-06
-3.04e-06
1.88788e-07
8.57972e-06
-2.86582e-06
1.93633e-07
9.20511e-06
-2.65713e-06
1.9817e-07
9.75432e-06
-2.41807e-06
2.02405e-07
1.02204e-05
-2.15263e-06
2.06317e-07
1.05975e-05
-1.86485e-06
2.09857e-07
1.08811e-05
-1.55821e-06
2.13055e-07
1.10674e-05
-1.23555e-06
2.16019e-07
1.11535e-05
-8.99724e-07
2.18776e-07
1.11364e-05
-5.53701e-07
2.21306e-07
1.10128e-05
-2.00856e-07
2.23527e-07
1.07834e-05
1.56795e-07
2.25378e-07
1.04464e-05
5.17785e-07
2.26799e-07
9.99991e-06
8.77678e-07
2.27635e-07
9.44281e-06
1.23355e-06
2.27639e-07
8.77502e-06
1.58135e-06
2.26463e-07
7.99798e-06
1.9168e-06
2.23683e-07
7.11475e-06
2.23702e-06
2.18801e-07
6.12765e-06
2.54392e-06
2.11198e-07
5.03707e-06
2.84897e-06
1.99967e-07
3.84906e-06
3.17236e-06
1.83519e-07
2.60343e-06
3.51262e-06
1.59722e-07
1.40853e-06
3.76205e-06
1.27821e-07
4.34874e-07
3.59963e-06
8.76393e-08
2.10979e-06
3.54767e-08
1.74809e-07
-7.75492e-07
3.93594e-08
6.26105e-07
-2.00436e-06
8.23423e-08
1.26348e-06
-2.90576e-06
1.06e-07
2.00119e-06
-3.51501e-06
1.20317e-07
2.77249e-06
-3.88502e-06
1.3015e-07
3.53862e-06
-4.08434e-06
1.37849e-07
4.28094e-06
-4.16643e-06
1.44391e-07
4.99033e-06
-4.1628e-06
1.501e-07
5.66127e-06
-4.09123e-06
1.55101e-07
6.28934e-06
-3.96262e-06
1.59513e-07
6.87003e-06
-3.78425e-06
1.63496e-07
7.39838e-06
-3.56146e-06
1.67235e-07
7.86888e-06
-3.29861e-06
1.70922e-07
8.27578e-06
-2.99977e-06
1.74744e-07
8.61332e-06
-2.66909e-06
1.78868e-07
8.876e-06
-2.31102e-06
1.83433e-07
9.05943e-06
-1.93023e-06
1.88532e-07
9.16098e-06
-1.53136e-06
1.94206e-07
9.17945e-06
-1.11871e-06
2.00462e-07
9.11443e-06
-6.95997e-07
2.0725e-07
8.96535e-06
-2.66287e-07
2.14435e-07
8.73211e-06
1.68161e-07
2.218e-07
8.4151e-06
6.05669e-07
2.29038e-07
8.01322e-06
1.04373e-06
2.35732e-07
7.5257e-06
1.47961e-06
2.41344e-07
6.95236e-06
1.90934e-06
2.45222e-07
6.29406e-06
2.32834e-06
2.46632e-07
5.55219e-06
2.73395e-06
2.44818e-07
4.72737e-06
3.12968e-06
2.38967e-07
3.82084e-06
3.52755e-06
2.2788e-07
2.84664e-06
3.93713e-06
2.09476e-07
1.85819e-06
4.31961e-06
1.81645e-07
9.53683e-07
4.52198e-06
1.45015e-07
2.6422e-07
4.1901e-06
9.98229e-08
2.33518e-06
4.0335e-08
1.71142e-07
-9.78299e-07
3.16419e-08
5.87321e-07
-2.48412e-06
6.35654e-08
1.14887e-06
-3.54793e-06
8.06034e-08
1.77324e-06
-4.23082e-06
9.14079e-08
2.4068e-06
-4.61762e-06
9.9022e-08
3.02589e-06
-4.80765e-06
1.04209e-07
3.6234e-06
-4.87096e-06
1.06999e-07
4.19732e-06
-4.84424e-06
1.075e-07
4.74583e-06
-4.74592e-06
1.06153e-07
5.26572e-06
-4.58611e-06
1.03581e-07
5.75189e-06
-4.37084e-06
1.00406e-07
6.19745e-06
-4.10423e-06
9.71968e-08
6.59426e-06
-3.78991e-06
9.44671e-08
6.93385e-06
-3.43208e-06
9.27146e-08
7.20841e-06
-3.03606e-06
9.23862e-08
7.41183e-06
-2.60834e-06
9.38749e-08
7.54027e-06
-2.15619e-06
9.74966e-08
7.5924e-06
-1.68699e-06
1.03485e-07
7.56921e-06
-1.20752e-06
1.11969e-07
7.47344e-06
-7.23206e-07
1.22955e-07
7.30869e-06
-2.37855e-07
1.36291e-07
7.07871e-06
2.46471e-07
1.5164e-07
6.78683e-06
7.29057e-07
1.68453e-07
6.43473e-06
1.20985e-06
1.85935e-07
6.02259e-06
1.68866e-06
2.03046e-07
5.54909e-06
2.16427e-06
2.18513e-07
5.01163e-06
2.63483e-06
2.30913e-07
4.40645e-06
3.10028e-06
2.38799e-07
3.72958e-06
3.56579e-06
2.40715e-07
2.98209e-06
4.04018e-06
2.34864e-07
2.18461e-06
4.51578e-06
2.18889e-07
1.39588e-06
4.91729e-06
1.9124e-07
6.94198e-07
5.0708e-06
1.53266e-07
1.8237e-07
4.59767e-06
1.05015e-07
2.47807e-06
4.0883e-08
1.56712e-07
-1.15704e-06
2.19983e-08
5.17143e-07
-2.89008e-06
4.54963e-08
9.85871e-07
-4.07689e-06
6.02059e-08
1.49524e-06
-4.81111e-06
7.08791e-08
2.00655e-06
-5.20713e-06
7.81656e-08
2.50637e-06
-5.38933e-06
8.18193e-08
2.9925e-06
-5.43896e-06
8.18274e-08
3.46447e-06
-5.3949e-06
7.86456e-08
3.92041e-06
-5.27488e-06
7.29736e-08
4.35628e-06
-5.08752e-06
6.54996e-08
4.76569e-06
-4.83715e-06
5.68454e-08
5.14022e-06
-4.52644e-06
4.76378e-08
5.47022e-06
-4.15847e-06
3.85166e-08
5.74615e-06
-3.73819e-06
3.01191e-08
5.96001e-06
-3.27303e-06
2.30627e-08
6.10637e-06
-2.77269e-06
1.79474e-08
6.18294e-06
-2.24814e-06
1.5342e-08
6.19052e-06
-1.71037e-06
1.57633e-08
6.13253e-06
-1.16918e-06
1.96124e-08
6.01428e-06
-6.32177e-07
2.71799e-08
5.8417e-06
-1.03976e-07
3.86712e-08
5.62187e-06
4.12117e-07
5.41627e-08
5.36005e-06
9.174e-07
7.34473e-08
5.05999e-06
1.41401e-06
9.58745e-08
4.72295e-06
1.90536e-06
1.20303e-07
4.34697e-06
2.3951e-06
1.45124e-07
3.92642e-06
2.88698e-06
1.68377e-07
3.45256e-06
3.38623e-06
1.87896e-07
2.91662e-06
3.90045e-06
2.01275e-07
2.31807e-06
4.43314e-06
2.05608e-07
1.67942e-06
4.95692e-06
1.97584e-07
1.05629e-06
5.36532e-06
1.75297e-07
5.11319e-07
5.47599e-06
1.40152e-07
1.29527e-07
4.88704e-06
9.31341e-08
2.57595e-06
3.2996e-08
1.25951e-07
-1.29917e-06
1.61637e-08
4.16559e-07
-3.21705e-06
3.63527e-08
7.97134e-07
-4.50892e-06
5.14306e-08
1.21427e-06
-5.29161e-06
6.33436e-08
1.63735e-06
-5.7019e-06
7.16707e-08
2.05535e-06
-5.88335e-06
7.6004e-08
2.46575e-06
-5.92576e-06
7.63923e-08
2.86711e-06
-5.8696e-06
7.33114e-08
3.25673e-06
-5.73193e-06
6.74029e-08
3.62989e-06
-5.51997e-06
5.92553e-08
3.97982e-06
-5.23641e-06
4.93035e-08
4.29809e-06
-4.88272e-06
3.79799e-08
4.57553e-06
-4.46185e-06
2.59031e-08
4.8036e-06
-3.98011e-06
1.38194e-08
4.97579e-06
-3.44757e-06
2.32425e-09
5.08754e-06
-2.87729e-06
-7.18714e-09
5.13821e-06
-2.28385e-06
-1.49921e-08
5.12999e-06
-1.68175e-06
-2.04275e-08
5.06726e-06
-1.0837e-06
-2.27806e-08
4.95598e-06
-4.99459e-07
-2.14555e-08
4.80291e-06
6.50082e-08
-1.5944e-08
4.61475e-06
6.0602e-07
-5.75622e-09
4.39724e-06
1.12575e-06
9.14147e-09
4.15412e-06
1.62837e-06
2.87512e-08
3.88588e-06
2.12092e-06
5.26642e-08
3.5893e-06
2.61211e-06
7.95573e-08
3.25684e-06
3.11193e-06
1.07487e-07
2.87751e-06
3.63164e-06
1.33904e-07
2.44079e-06
4.18157e-06
1.55607e-07
1.94562e-06
4.75968e-06
1.68667e-07
1.41345e-06
5.32051e-06
1.68664e-07
8.92944e-07
5.73334e-06
1.52665e-07
4.36219e-07
5.81121e-06
1.21862e-07
1.15489e-07
5.13e-06
7.84455e-08
2.66729e-06
2.54539e-08
1.06634e-07
-1.41756e-06
1.17266e-08
3.50894e-07
-3.49155e-06
3.0213e-08
6.71737e-07
-4.87587e-06
4.60719e-08
1.02617e-06
-5.70512e-06
5.90519e-08
1.38849e-06
-6.1324e-06
6.81468e-08
1.74875e-06
-6.31665e-06
7.29951e-08
2.10403e-06
-6.3549e-06
7.38328e-08
2.45231e-06
-6.28915e-06
7.12375e-08
2.79048e-06
-6.13595e-06
6.58147e-08
3.11377e-06
-5.90131e-06
5.80173e-08
3.41581e-06
-5.5866e-06
4.81052e-08
3.6892e-06
-5.19249e-06
3.63554e-08
3.92633e-06
-4.72229e-06
2.32778e-08
4.1205e-06
-4.1838e-06
9.48344e-09
4.26653e-06
-3.58936e-06
-4.27616e-09
4.36131e-06
-2.95466e-06
-1.74443e-08
4.4038e-06
-2.29711e-06
-2.92576e-08
4.39545e-06
-1.63421e-06
-3.92236e-08
4.34003e-06
-9.81505e-07
-4.67992e-08
4.24305e-06
-3.51223e-07
-5.1284e-08
4.11165e-06
2.48335e-07
-5.19497e-08
3.95238e-06
8.13389e-07
-4.81311e-08
3.77194e-06
1.34543e-06
-3.92587e-08
3.57421e-06
1.85091e-06
-2.48295e-08
3.35893e-06
2.3405e-06
-4.32499e-09
3.12269e-06
2.82806e-06
2.02663e-08
2.85603e-06
3.32974e-06
4.88375e-08
2.54609e-06
3.86267e-06
7.89013e-08
2.18079e-06
4.44011e-06
1.0677e-07
1.75749e-06
5.05548e-06
1.27534e-07
1.29415e-06
5.64827e-06
1.35661e-07
8.32176e-07
6.06862e-06
1.26866e-07
4.18306e-07
6.12365e-06
1.01757e-07
1.17971e-07
5.36741e-06
6.35868e-08
2.76777e-06
1.87751e-08
8.97504e-08
-1.51863e-06
1.13037e-08
3.02322e-07
-3.73521e-06
3.107e-08
5.87543e-07
-5.20935e-06
4.82528e-08
9.07002e-07
-6.08676e-06
6.21628e-08
1.23638e-06
-6.53385e-06
7.20616e-08
1.56519e-06
-6.72335e-06
7.78775e-08
1.88952e-06
-6.75921e-06
7.99599e-08
2.20663e-06
-6.68516e-06
7.88777e-08
2.51311e-06
-6.51762e-06
7.51763e-08
2.80436e-06
-6.26179e-06
6.9201e-08
3.07479e-06
-5.91816e-06
6.11043e-08
3.31835e-06
-5.48711e-06
5.10389e-08
3.52925e-06
-4.97254e-06
3.9318e-08
3.70263e-06
-4.38355e-06
2.63445e-08
3.83474e-06
-3.73415e-06
1.26415e-08
3.9226e-06
-3.04182e-06
-7.18818e-10
3.96659e-06
-2.32583e-06
-1.5311e-08
3.96651e-06
-1.60564e-06
-2.85093e-08
3.92452e-06
-8.9916e-07
-4.03914e-08
3.84464e-06
-2.21038e-07
-5.03328e-08
3.73245e-06
4.17968e-07
-5.74615e-08
3.59446e-06
1.01221e-06
-6.08517e-08
3.437e-06
1.5625e-06
-5.9631e-08
3.26454e-06
2.07639e-06
-5.30463e-08
3.07804e-06
2.56737e-06
-4.03876e-08
2.87351e-06
3.05372e-06
-2.1143e-08
2.64133e-06
3.55726e-06
4.63386e-09
2.36993e-06
4.10084e-06
3.32287e-08
2.0459e-06
4.70071e-06
6.34261e-08
1.66478e-06
5.34731e-06
8.9314e-08
1.24068e-06
5.96822e-06
1.04223e-07
8.09259e-07
6.39771e-06
1.02468e-07
4.14784e-07
6.43475e-06
8.36834e-08
1.20879e-07
5.61026e-06
5.1684e-08
2.87543e-06
1.44662e-08
8.24497e-08
-1.61216e-06
1.10605e-08
2.77898e-07
-3.96215e-06
3.14645e-08
5.40583e-07
-5.52136e-06
4.92992e-08
8.35118e-07
-6.44499e-06
6.36813e-08
1.13881e-06
-6.91154e-06
7.3972e-08
1.44173e-06
-7.1065e-06
8.01982e-08
1.73998e-06
-7.14031e-06
8.28347e-08
2.03069e-06
-7.05846e-06
8.25547e-08
2.31044e-06
-6.87734e-06
7.9941e-08
2.57485e-06
-6.60156e-06
7.53307e-08
2.81891e-06
-6.23111e-06
6.88564e-08
3.03756e-06
-5.76641e-06
6.06204e-08
3.22632e-06
-5.21213e-06
5.07954e-08
3.38169e-06
-4.57856e-06
3.96016e-08
3.50117e-06
-3.88098e-06
2.73257e-08
3.58311e-06
-3.13815e-06
1.43577e-08
3.62631e-06
-2.37059e-06
1.52888e-09
3.6321e-06
-1.59896e-06
-1.25095e-08
3.60144e-06
-8.42731e-07
-2.58048e-08
3.53716e-06
-1.18589e-07
-3.81956e-08
3.44365e-06
5.60415e-07
-4.89662e-08
3.32636e-06
1.18665e-06
-5.7183e-08
3.19066e-06
1.76e-06
-6.18299e-08
3.04049e-06
2.28846e-06
-6.19364e-08
2.87689e-06
2.78751e-06
-5.65703e-08
2.69648e-06
3.27883e-06
-4.47286e-08
2.49064e-06
3.7888e-06
-2.57272e-08
2.24543e-06
4.34504e-06
9.76797e-10
1.95047e-06
4.96681e-06
2.88552e-08
1.59897e-06
5.64221e-06
5.66139e-08
1.20197e-06
6.2891e-06
7.61543e-08
7.91269e-07
6.72802e-06
8.05189e-08
4.09717e-07
6.74856e-06
6.8013e-08
1.20787e-07
5.85752e-06
4.22638e-08
2.98583e-06
1.15995e-08
7.74874e-08
-1.70177e-06
1.21086e-08
2.63949e-07
-4.18266e-06
3.40407e-08
5.15463e-07
-5.82551e-06
5.2621e-08
7.97076e-07
-6.79387e-06
6.72465e-08
1.08665e-06
-7.27881e-06
7.76828e-08
1.3746e-06
-7.47867e-06
8.4208e-08
1.65698e-06
-7.51008e-06
8.73802e-08
1.93084e-06
-7.42022e-06
8.7876e-08
2.19275e-06
-7.22554e-06
8.62653e-08
2.43856e-06
-6.93029e-06
8.28931e-08
2.66378e-06
-6.53424e-06
7.7892e-08
2.86416e-06
-6.03815e-06
7.13304e-08
3.03626e-06
-5.44756e-06
6.33003e-08
3.17764e-06
-4.77386e-06
5.39012e-08
3.28673e-06
-4.03336e-06
4.3262e-08
3.36259e-06
-3.2456e-06
3.15677e-08
3.40467e-06
-2.43178e-06
1.90956e-08
3.41277e-06
-1.61339e-06
6.30706e-09
3.38791e-06
-8.10853e-07
-7.05243e-09
3.33242e-06
-4.24819e-08
-2.06363e-08
3.24945e-06
6.76738e-07
-3.33803e-08
3.1436e-06
1.33702e-06
-4.45605e-08
3.01957e-06
1.9372e-06
-5.32041e-08
2.88093e-06
2.48535e-06
-5.82797e-08
2.72878e-06
2.9984e-06
-5.87759e-08
2.56035e-06
3.50077e-06
-5.35389e-08
2.36807e-06
4.02243e-06
-4.13819e-08
2.13998e-06
4.5948e-06
-2.16861e-08
1.86274e-06
5.23945e-06
4.58177e-09
1.53173e-06
5.94242e-06
3.07916e-08
1.15557e-06
6.61292e-06
5.23685e-08
7.63153e-07
7.05927e-06
6.12396e-08
3.95736e-07
7.0619e-06
5.43088e-08
1.16455e-07
6.10296e-06
3.44006e-08
3.09402e-06
9.43396e-09
7.56476e-08
-1.79062e-06
1.31789e-08
2.55886e-07
-4.39904e-06
3.6124e-08
4.97005e-07
-6.12162e-06
5.49749e-08
7.64873e-07
-7.13133e-06
6.95728e-08
1.03862e-06
-7.63252e-06
7.99426e-08
1.30964e-06
-7.83618e-06
8.64729e-08
1.57439e-06
-7.86466e-06
8.9804e-08
1.83009e-06
-7.76661e-06
9.06738e-08
2.07341e-06
-7.55856e-06
8.96752e-08
2.30042e-06
-7.24449e-06
8.71664e-08
2.50705e-06
-6.82418e-06
8.32988e-08
2.68968e-06
-6.29895e-06
7.81395e-08
2.84568e-06
-5.67532e-06
7.17432e-08
2.97344e-06
-4.96579e-06
6.41448e-08
3.07219e-06
-4.18751e-06
5.53721e-08
3.14163e-06
-3.36055e-06
4.54722e-08
3.18169e-06
-2.50642e-06
3.45454e-08
3.19241e-06
-1.64691e-06
2.2768e-08
3.17409e-06
-8.02958e-07
1.03914e-08
3.12767e-06
6.1134e-09
-2.20615e-09
3.0565e-06
7.63683e-07
-1.58031e-08
2.96359e-06
1.45827e-06
-2.83727e-08
2.85253e-06
2.08754e-06
-3.93197e-08
2.72611e-06
2.6594e-06
-4.76576e-08
2.58509e-06
3.19177e-06
-5.2391e-08
2.42704e-06
3.71115e-06
-5.2362e-08
2.24533e-06
4.25029e-06
-4.61886e-08
2.0294e-06
4.84342e-06
-3.27192e-08
1.76731e-06
5.51347e-06
-1.1965e-08
1.45343e-06
6.24403e-06
1.22305e-08
1.09688e-06
6.93601e-06
3.34516e-08
7.24231e-07
7.387e-06
4.4971e-08
3.74512e-07
7.36934e-06
4.24811e-08
1.09374e-07
6.34096e-06
2.76714e-08
3.1969e-06
7.62907e-09
7.36164e-08
-1.87853e-06
1.42792e-08
2.49047e-07
-4.61261e-06
3.81262e-08
4.82607e-07
-6.41229e-06
5.71027e-08
7.40384e-07
-7.46061e-06
7.14956e-08
1.00236e-06
-7.97615e-06
8.16398e-08
1.26062e-06
-8.18254e-06
8.80899e-08
1.51191e-06
-8.20751e-06
9.15367e-08
1.7535e-06
-8.10094e-06
9.27163e-08
1.98215e-06
-7.87944e-06
9.22089e-08
2.19414e-06
-7.54688e-06
9.03728e-08
2.38579e-06
-7.10323e-06
8.73748e-08
2.55407e-06
-6.55054e-06
8.32877e-08
2.697e-06
-5.89643e-06
7.81505e-08
2.81361e-06
-5.15439e-06
7.19659e-08
2.90366e-06
-4.3423e-06
6.47102e-08
2.96729e-06
-3.48056e-06
5.63568e-08
3.00468e-06
-2.59075e-06
4.69089e-08
3.01596e-06
-1.69464e-06
3.64253e-08
3.00134e-06
-8.13376e-07
2.50119e-08
2.96148e-06
3.3072e-08
1.28807e-08
2.89758e-06
8.26786e-07
7.68758e-10
2.81338e-06
1.55494e-06
-1.25046e-08
2.7112e-06
2.21417e-06
-2.44756e-08
2.59304e-06
2.81216e-06
-3.46449e-08
2.45931e-06
3.36759e-06
-4.21162e-08
2.30765e-06
3.90857e-06
-4.58014e-08
2.13222e-06
4.47e-06
-4.43177e-08
1.92381e-06
5.08804e-06
-3.626e-08
1.67229e-06
5.786e-06
-2.10587e-08
1.37164e-06
6.54421e-06
4.15613e-10
1.03312e-06
7.25544e-06
1.90534e-08
6.80684e-07
7.70792e-06
3.15355e-08
3.50494e-07
7.66744e-06
3.22548e-08
1.01567e-07
6.56865e-06
2.17311e-08
3.29356e-06
6.01651e-09
7.23248e-08
-1.96627e-06
1.53904e-08
2.42817e-07
-4.82315e-06
4.00314e-08
4.67718e-07
-6.69624e-06
5.90265e-08
7.13787e-07
-7.77986e-06
7.31563e-08
9.62227e-07
-8.30762e-06
8.30136e-08
1.20607e-06
-8.51567e-06
8.92673e-08
1.44248e-06
-8.5366e-06
9.26713e-08
1.66888e-06
-8.42136e-06
9.39928e-08
1.88218e-06
-8.18658e-06
9.38177e-08
2.07891e-06
-7.83613e-06
9.2509e-08
2.25576e-06
-7.37036e-06
9.02441e-08
2.41026e-06
-6.79217e-06
8.71016e-08
2.54099e-06
-6.11029e-06
8.3109e-08
2.64756e-06
-5.33923e-06
7.82422e-08
2.73021e-06
-4.49741e-06
7.24324e-08
2.78944e-06
-3.6054e-06
6.55872e-08
2.82564e-06
-2.6846e-06
5.76241e-08
2.83897e-06
-1.7565e-06
4.85032e-08
2.82943e-06
-8.42105e-07
3.82383e-08
2.79719e-06
3.83458e-08
2.69431e-08
2.74314e-06
8.65903e-07
1.4899e-08
2.6687e-06
1.62664e-06
2.71781e-09
2.57619e-06
2.3163e-06
-9.66346e-09
2.46684e-06
2.94234e-06
-2.08625e-08
2.34054e-06
3.52394e-06
-3.00908e-08
2.19494e-06
4.09049e-06
-3.6367e-08
2.02477e-06
4.67852e-06
-3.84058e-08
1.82215e-06
5.32536e-06
-3.47588e-08
1.57886e-06
6.0537e-06
-2.44862e-08
1.29157e-06
6.8398e-06
-8.37148e-09
9.69796e-07
7.56827e-06
8.88104e-09
6.37254e-07
8.01945e-06
2.09962e-08
3.26855e-07
7.95421e-06
2.37606e-08
9.41626e-08
6.78513e-06
1.66641e-08
3.38415e-06
4.63584e-09
7.02297e-08
-2.05273e-06
1.62115e-08
2.35331e-07
-5.0295e-06
4.12371e-08
4.5197e-07
-6.97288e-06
5.9994e-08
6.87579e-07
-8.08917e-06
7.36965e-08
9.2434e-07
-8.62758e-06
8.3183e-08
1.15595e-06
-8.83652e-06
8.92289e-08
1.37979e-06
-8.85308e-06
9.26098e-08
1.5934e-06
-8.72907e-06
9.40808e-08
1.7938e-06
-8.48121e-06
9.42101e-08
1.97774e-06
-8.11346e-06
9.33584e-08
2.14233e-06
-7.62668e-06
9.17128e-08
2.28552e-06
-7.02474e-06
8.93572e-08
2.40639e-06
-6.31751e-06
8.63204e-08
2.50497e-06
-5.5204e-06
8.25707e-08
2.58183e-06
-4.65232e-06
7.80203e-08
2.63772e-06
-3.73386e-06
7.25421e-08
2.67318e-06
-2.78608e-06
6.59972e-08
2.68835e-06
-1.82996e-06
5.82693e-08
2.68305e-06
-8.8612e-07
4.92892e-08
2.65708e-06
2.52119e-08
3.90851e-08
2.6106e-06
8.84507e-07
2.78456e-08
2.54445e-06
1.67681e-06
1.59476e-08
2.45963e-06
2.39707e-06
4.01736e-09
2.35708e-06
3.05246e-06
-7.59675e-09
2.23634e-06
3.66255e-06
-1.79091e-08
2.09501e-06
4.25773e-06
-2.59468e-08
1.92833e-06
4.87571e-06
-3.05668e-08
1.72963e-06
5.55437e-06
-3.03824e-08
1.49257e-06
6.31496e-06
-2.42801e-08
1.21587e-06
7.12892e-06
-1.25247e-08
9.09197e-07
7.87267e-06
2.17465e-09
5.95463e-07
8.32017e-06
1.29692e-08
3.04209e-07
8.22873e-06
1.68345e-08
8.72082e-08
6.99017e-06
1.23924e-08
3.46893e-06
3.46776e-09
6.86182e-08
-2.13842e-06
1.70588e-08
2.28688e-07
-5.23212e-06
4.253e-08
4.37218e-07
-7.24252e-06
6.10942e-08
6.6238e-07
-8.38875e-06
7.43921e-08
8.87426e-07
-8.93614e-06
8.34937e-08
1.10679e-06
-9.14518e-06
8.92752e-08
1.31817e-06
-9.15703e-06
9.25544e-08
1.51922e-06
-9.02424e-06
9.40939e-08
1.70712e-06
-8.76359e-06
9.44538e-08
1.87888e-06
-8.37925e-06
9.39931e-08
2.03195e-06
-7.87269e-06
9.2905e-08
2.16474e-06
-7.24882e-06
9.12747e-08
2.27672e-06
-6.51864e-06
8.91231e-08
2.36832e-06
-5.69843e-06
8.6407e-08
2.44045e-06
-4.8075e-06
8.3019e-08
2.4941e-06
-3.86634e-06
7.88007e-08
2.52993e-06
-2.8955e-06
7.35681e-08
2.54807e-06
-1.91527e-06
6.71453e-08
2.54809e-06
-9.45566e-07
5.93957e-08
2.52931e-06
-6.30178e-09
5.02749e-08
2.4912e-06
8.82691e-07
3.98953e-08
2.43375e-06
1.70568e-06
2.85568e-08
2.35726e-06
2.4568e-06
1.67371e-08
2.26177e-06
3.14283e-06
5.07848e-09
2.14653e-06
3.78358e-06
-5.82626e-09
2.00917e-06
4.41015e-06
-1.51186e-08
1.84542e-06
5.06107e-06
-2.16615e-08
1.64971e-06
5.77419e-06
-2.41919e-08
1.41749e-06
6.56864e-06
-2.15523e-08
1.14948e-06
7.41045e-06
-1.36307e-08
8.5639e-07
8.16786e-06
-2.21344e-09
5.59322e-07
8.60992e-06
7.24289e-09
2.85092e-07
8.49155e-06
1.14796e-08
8.1615e-08
7.18504e-06
8.99756e-09
3.54898e-06
2.56878e-09
6.65305e-08
-2.2226e-06
1.76277e-08
2.21253e-07
-5.42995e-06
4.3097e-08
4.21827e-07
-7.50427e-06
6.11616e-08
6.37248e-07
-8.67806e-06
7.38794e-08
8.517e-07
-9.23314e-06
8.25338e-08
1.06016e-06
-9.44173e-06
8.80642e-08
1.26053e-06
-9.4487e-06
9.12817e-08
1.45056e-06
-9.30721e-06
9.29209e-08
1.62757e-06
-9.03416e-06
9.35189e-08
1.78884e-06
-8.63397e-06
9.34282e-08
1.93211e-06
-8.10884e-06
9.28484e-08
2.05613e-06
-7.46474e-06
9.18711e-08
2.1607e-06
-6.71377e-06
9.05197e-08
2.24654e-06
-5.87304e-06
8.87502e-08
2.3148e-06
-4.96223e-06
8.64488e-08
2.36667e-06
-4.00167e-06
8.34408e-08
2.40293e-06
-3.01129e-06
7.95102e-08
2.4237e-06
-2.01048e-06
7.44282e-08
2.42839e-06
-1.01827e-06
6.79893e-08
2.41593e-06
-5.39244e-08
6.00683e-08
2.38515e-06
8.62756e-07
5.06906e-08
2.33528e-06
1.71545e-06
4.00792e-08
2.2659e-06
2.4975e-06
2.86493e-08
2.17652e-06
3.21521e-06
1.69601e-08
2.06597e-06
3.8884e-06
5.68262e-09
1.93183e-06
4.54865e-06
-4.42078e-09
1.77033e-06
5.23492e-06
-1.24168e-08
1.57693e-06
5.98457e-06
-1.70777e-08
1.34873e-06
6.81401e-06
-1.72733e-08
1.0883e-06
7.68339e-06
-1.26517e-08
8.07551e-07
8.45299e-06
-4.5347e-09
5.2568e-07
8.88827e-06
3.43106e-09
2.67175e-07
8.74257e-06
7.52484e-09
7.63069e-08
7.36985e-06
6.42365e-09
3.62433e-06
1.92994e-09
6.4846e-08
-2.30565e-06
1.81795e-08
2.14926e-07
-5.62373e-06
4.36824e-08
4.08446e-07
-7.75911e-06
6.12964e-08
6.1508e-07
-8.95818e-06
7.34632e-08
8.19883e-07
-9.51963e-06
8.16659e-08
1.01838e-06
-9.72716e-06
8.69135e-08
1.20868e-06
-9.72905e-06
9.00278e-08
1.38864e-06
-9.57893e-06
9.17263e-08
1.55574e-06
-9.29381e-06
9.25253e-08
1.70747e-06
-8.8785e-06
9.27688e-08
1.84187e-06
-8.33593e-06
9.26563e-08
1.95798e-06
-7.67316e-06
9.228e-08
2.05591e-06
-6.90339e-06
9.16608e-08
2.13663e-06
-6.04454e-06
9.07516e-08
2.20158e-06
-5.11664e-06
8.94337e-08
2.25215e-06
-4.13979e-06
8.75216e-08
2.28927e-06
-3.13322e-06
8.47781e-08
2.31308e-06
-2.11525e-06
8.09389e-08
2.32285e-06
-1.1038e-06
7.57461e-08
2.31708e-06
-1.17179e-07
6.90043e-08
2.29395e-06
8.252e-07
6.06553e-08
2.2519e-06
1.70664e-06
5.0841e-08
2.18971e-06
2.51975e-06
3.99124e-08
2.1063e-06
3.2702e-06
2.83834e-08
2.00017e-06
3.97761e-06
1.68785e-08
1.8689e-06
4.67373e-06
6.12726e-09
1.70914e-06
5.39759e-06
-2.97783e-09
1.51736e-06
6.1856e-06
-9.3492e-09
1.29216e-06
7.05097e-06
-1.18891e-08
1.0378e-06
7.94769e-06
-1.00952e-08
7.67182e-07
8.7283e-06
-4.85887e-09
4.98153e-07
9.15589e-06
1.27604e-09
2.52897e-07
8.98295e-06
4.88681e-09
7.22994e-08
7.54611e-06
4.67582e-09
3.69601e-06
1.56936e-09
6.31516e-08
-2.38729e-06
1.84766e-08
2.08776e-07
-5.81297e-06
4.35977e-08
3.95639e-07
-8.00646e-06
6.04718e-08
5.94125e-07
-9.22861e-06
7.19274e-08
7.90091e-07
-9.79524e-06
7.96253e-08
9.79529e-07
-1.00012e-05
8.45979e-08
1.1607e-06
-9.99788e-06
8.76339e-08
1.33159e-06
-9.83925e-06
8.94097e-08
1.48983e-06
-9.5425e-06
9.04129e-08
1.6331e-06
-9.11278e-06
9.09769e-08
1.75968e-06
-8.55383e-06
9.13037e-08
1.8688e-06
-7.8738e-06
9.14888e-08
1.9608e-06
-7.08697e-06
9.15562e-08
2.03685e-06
-6.21208e-06
9.14622e-08
2.0986e-06
-5.2695e-06
9.10896e-08
2.14765e-06
-4.27911e-06
9.02487e-08
2.18512e-06
-3.25939e-06
8.86867e-08
2.21123e-06
-2.22749e-06
8.61077e-08
2.22518e-06
-1.19997e-06
8.22037e-08
2.22518e-06
-1.93908e-07
7.67088e-08
2.20887e-06
7.72015e-07
6.94788e-08
2.17391e-06
1.681e-06
6.05697e-08
2.11838e-06
2.52499e-06
5.02637e-08
2.04058e-06
3.30894e-06
3.90303e-08
1.93864e-06
4.05204e-06
2.74655e-08
1.81015e-06
4.78588e-06
1.62663e-08
1.65217e-06
5.54923e-06
6.26302e-09
1.46208e-06
6.37709e-06
-1.51728e-09
1.23976e-06
7.27907e-06
-5.91903e-09
9.90981e-07
8.2028e-06
-6.50616e-09
7.2951e-07
8.99339e-06
-3.80846e-09
4.72229e-07
9.41265e-06
3.64711e-10
2.39177e-07
9.21265e-06
3.33572e-09
6.82786e-08
7.71367e-06
3.64425e-09
3.76373e-06
1.4655e-09
6.16546e-08
-2.46767e-06
1.87013e-08
2.03427e-07
-5.99817e-06
4.34116e-08
3.84628e-07
-8.24725e-06
5.95661e-08
5.76154e-07
-9.49049e-06
7.0331e-08
7.64518e-07
-1.00611e-05
7.75242e-08
9.46115e-07
-1.0265e-05
8.2206e-08
1.11937e-06
-1.02563e-05
8.51424e-08
1.28238e-06
-1.00893e-05
8.69735e-08
1.43291e-06
-9.78122e-06
8.81581e-08
1.5688e-06
-9.33771e-06
8.90161e-08
1.68849e-06
-8.7633e-06
8.97466e-08
1.79143e-06
-8.06721e-06
9.04445e-08
1.87813e-06
-7.26483e-06
9.1133e-08
1.94999e-06
-6.37573e-06
9.17703e-08
2.00887e-06
-5.42065e-06
9.22431e-08
2.0566e-06
-4.41924e-06
9.23644e-08
2.09451e-06
-3.38919e-06
9.18776e-08
2.12291e-06
-2.34639e-06
9.04701e-08
2.14097e-06
-1.30584e-06
8.77977e-08
2.14663e-06
-2.83112e-07
8.3534e-08
2.13695e-06
7.04224e-07
7.74506e-08
2.10887e-06
1.63955e-06
6.95102e-08
2.0597e-06
2.51421e-06
5.99155e-08
1.98714e-06
3.33237e-06
4.90822e-08
1.889e-06
4.11256e-06
3.75755e-08
1.76283e-06
4.88591e-06
2.60701e-08
1.6061e-06
5.6905e-06
1.53669e-08
1.41709e-06
6.55956e-06
6.41213e-09
1.19725e-06
7.49872e-06
2.52767e-11
9.53042e-07
8.44909e-06
-2.29275e-09
6.99116e-07
9.24879e-06
-1.69604e-09
4.51646e-07
9.65936e-06
5.82815e-10
2.28642e-07
9.43275e-06
2.86492e-09
6.54162e-08
7.87379e-06
3.37945e-09
3.82834e-06
1.68855e-09
6.05526e-08
-2.54692e-06
1.868e-08
1.99126e-07
-6.17938e-06
4.26172e-08
3.75335e-07
-8.48129e-06
5.78126e-08
5.60589e-07
-9.74352e-06
6.77574e-08
7.42018e-07
-1.0317e-05
7.44001e-08
9.16396e-07
-1.05182e-05
7.87861e-08
1.08236e-06
-1.05039e-05
8.16269e-08
1.23816e-06
-1.03286e-05
8.35126e-08
1.38166e-06
-1.00096e-05
8.48691e-08
1.51081e-06
-9.5529e-06
8.60028e-08
1.62417e-06
-8.96382e-06
8.71117e-08
1.72133e-06
-8.25269e-06
8.82927e-08
1.80293e-06
-7.43603e-06
8.95706e-08
1.87053e-06
-6.53427e-06
9.09079e-08
1.92619e-06
-5.56853e-06
9.21966e-08
1.97198e-06
-4.55831e-06
9.32546e-08
2.00944e-06
-3.5205e-06
9.3825e-08
2.03911e-06
-2.46966e-06
9.35837e-08
2.06021e-06
-1.41911e-06
9.21567e-08
2.07053e-06
-3.82612e-07
8.9163e-08
2.0667e-06
6.23754e-07
8.42919e-08
2.04493e-06
1.5839e-06
7.74092e-08
2.0018e-06
2.48868e-06
6.86301e-08
1.93439e-06
3.34144e-06
5.83092e-08
1.84009e-06
4.15983e-06
4.69792e-08
1.71644e-06
4.9742e-06
3.52984e-08
1.56122e-06
5.82157e-06
2.40505e-08
1.37353e-06
6.73296e-06
1.41629e-08
1.15572e-06
7.70973e-06
6.62125e-09
9.16076e-07
8.68635e-06
2.16141e-09
6.69434e-07
9.49437e-06
8.08581e-10
4.31035e-07
9.89596e-06
1.58967e-09
2.17644e-07
9.64311e-06
2.9472e-09
6.21762e-08
8.02611e-06
3.39339e-09
3.88943e-06
1.93866e-09
5.94807e-08
-2.62498e-06
1.8556e-08
1.95215e-07
-6.35679e-06
4.16531e-08
3.67198e-07
-8.70918e-06
5.58848e-08
5.47214e-07
-9.98858e-06
6.50202e-08
7.22845e-07
-1.05638e-05
7.11171e-08
8.91186e-07
-1.07618e-05
7.5204e-08
1.05103e-06
-1.07417e-05
7.79398e-08
1.20073e-06
-1.05582e-05
7.98657e-08
1.33827e-06
-1.02286e-05
8.13748e-08
1.46166e-06
-9.75907e-06
8.27576e-08
1.56955e-06
-9.15595e-06
8.42083e-08
1.66164e-06
-8.43064e-06
8.58228e-08
1.73873e-06
-7.60078e-06
8.76254e-08
1.80252e-06
-6.68767e-06
8.9582e-08
1.85524e-06
-5.71287e-06
9.15923e-08
1.89918e-06
-4.69575e-06
9.3484e-08
1.93609e-06
-3.65244e-06
9.50096e-08
1.96675e-06
-2.59618e-06
9.58455e-08
1.99046e-06
-1.53844e-06
9.56014e-08
2.00494e-06
-4.90959e-07
9.38527e-08
2.00641e-06
5.32062e-07
9.02121e-08
1.99043e-06
1.51541e-06
8.44445e-08
1.95286e-06
2.44967e-06
7.65652e-08
1.89012e-06
3.33729e-06
6.68541e-08
1.79923e-06
4.19486e-06
5.58029e-08
1.67765e-06
5.05164e-06
4.40535e-08
1.52353e-06
5.94319e-06
3.23811e-08
1.3367e-06
6.89794e-06
2.17029e-08
1.12058e-06
7.91263e-06
1.30088e-08
8.84485e-07
8.9151e-06
7.09962e-09
6.43807e-07
9.73068e-06
4.09699e-09
4.1325e-07
1.0123e-05
3.25727e-09
2.08262e-07
9.84441e-06
3.58456e-09
5.94916e-08
8.17134e-06
3.74553e-09
3.94747e-06
2.2731e-09
5.89532e-08
-2.70215e-06
1.82014e-08
1.92564e-07
-6.53057e-06
4.01472e-08
3.609e-07
-8.93076e-06
5.32196e-08
5.3621e-07
-1.02254e-05
6.14444e-08
7.06617e-07
-1.08012e-05
6.69609e-08
8.69611e-07
-1.09956e-05
7.07412e-08
1.02398e-06
-1.09695e-05
7.33657e-08
1.16807e-06
-1.07777e-05
7.53195e-08
1.30001e-06
-1.04375e-05
7.69637e-08
1.41789e-06
-9.95556e-06
7.85743e-08
1.52046e-06
-9.3389e-06
8.03428e-08
1.60752e-06
-8.60009e-06
8.23657e-08
1.67995e-06
-7.75792e-06
8.46671e-08
1.73959e-06
-6.83455e-06
8.72155e-08
1.7888e-06
-5.85202e-06
8.99168e-08
1.83005e-06
-4.82963e-06
9.26087e-08
1.8654e-06
-3.78286e-06
9.5054e-08
1.89587e-06
-2.7236e-06
9.69347e-08
1.92101e-06
-1.66145e-06
9.78529e-08
1.93857e-06
-6.05877e-07
9.73513e-08
1.9445e-06
4.31151e-07
9.49754e-08
1.93378e-06
1.43572e-06
9.03907e-08
1.90154e-06
2.39838e-06
8.3506e-08
1.84352e-06
3.32076e-06
7.45149e-08
1.75625e-06
4.21821e-06
6.38575e-08
1.6371e-06
5.11856e-06
5.2156e-08
1.4845e-06
6.05549e-06
4.01825e-08
1.29897e-06
7.05444e-06
2.8855e-08
1.08493e-06
8.10727e-06
1.91744e-08
8.52657e-07
9.1351e-06
1.19943e-08
6.17955e-07
9.95752e-06
7.55008e-09
3.94985e-07
1.03404e-05
5.30623e-09
1.98258e-07
1.00364e-05
4.59992e-09
5.64205e-08
8.30904e-06
4.31974e-09
4.00204e-06
2.64293e-09
5.82114e-08
-2.77812e-06
1.77392e-08
1.89676e-07
-6.70051e-06
3.84513e-08
3.54683e-07
-9.14614e-06
5.03467e-08
5.25871e-07