/*--------------------------------*- C++ -*----------------------------------*\
| =========                 |                                                 |
| \\      /  F ield         | OpenFOAM: The Open Source CFD Toolbox           |
|  \\    /   O peration     | Version:  v1906                                 |
|   \\  /    A nd           | Web:      www.OpenFOAM.com                      |
|    \\/     M anipulation  |                                                 |
\*---------------------------------------------------------------------------*/
FoamFile
{
    version     2.0;
    format      ascii;
    class       volScalarField;
    location    "90";
    object      T;
}
// * * * * * * * * * * * * * * * * * * * * * * * * * * * * * * * * * * * * * //

dimensions      [0 0 0 1 0 0 0];


internalField   nonuniform List<scalar> 
78750
(
300.026
300.077
300.126
300.175
300.221
300.266
300.308
300.348
300.387
300.423
300.457
300.489
300.519
300.548
300.574
300.599
300.622
300.644
300.664
300.683
300.7
300.716
300.731
300.745
300.757
300.767
300.775
300.781
300.786
300.8
300.848
300.99
301.321
301.932
302.83
300.055
300.162
300.258
300.344
300.42
300.488
300.549
300.604
300.654
300.698
300.737
300.772
300.803
300.831
300.854
300.875
300.893
300.908
300.921
300.931
300.94
300.946
300.951
300.954
300.955
300.955
300.953
300.95
300.95
300.962
301.015
301.164
301.495
302.082
302.957
300.074
300.216
300.345
300.46
300.56
300.646
300.721
300.787
300.845
300.897
300.942
300.982
301.016
301.046
301.071
301.092
301.109
301.123
301.132
301.138
301.14
301.14
301.136
301.129
301.119
301.107
301.094
301.081
301.074
301.087
301.151
301.321
301.662
302.244
303.122
300.088
300.256
300.41
300.544
300.658
300.753
300.833
300.903
300.964
301.017
301.064
301.106
301.143
301.175
301.202
301.225
301.243
301.258
301.268
301.275
301.277
301.276
301.27
301.261
301.247
301.229
301.209
301.191
301.183
301.204
301.286
301.481
301.832
302.413
303.3
300.099
300.289
300.462
300.611
300.734
300.833
300.916
300.986
301.048
301.102
301.151
301.193
301.231
301.263
301.29
301.313
301.33
301.343
301.352
301.356
301.357
301.354
301.348
301.338
301.324
301.307
301.288
301.273
301.273
301.309
301.414
301.633
301.997
302.586
303.481
300.108
300.317
300.506
300.667
300.796
300.899
300.983
301.056
301.12
301.176
301.227
301.272
301.311
301.345
301.372
301.394
301.41
301.42
301.424
301.424
301.421
301.413
301.403
301.39
301.375
301.358
301.343
301.335
301.348
301.403
301.534
301.774
302.154
302.756
303.657
300.116
300.34
300.54
300.71
300.844
300.95
301.036
301.111
301.177
301.236
301.288
301.336
301.377
301.411
301.439
301.459
301.473
301.479
301.48
301.476
301.467
301.456
301.442
301.427
301.411
301.396
301.386
301.388
301.416
301.492
301.647
301.908
302.305
302.923
303.83
300.123
300.358
300.569
300.746
300.886
300.994
301.083
301.16
301.229
301.291
301.347
301.397
301.44
301.476
301.504
301.523
301.534
301.538
301.534
301.525
301.511
301.494
301.476
301.457
301.441
301.428
301.423
301.434
301.476
301.571
301.748
302.028
302.441
303.074
303.986
300.128
300.373
300.593
300.777
300.921
301.033
301.124
301.204
301.275
301.339
301.398
301.45
301.495
301.533
301.562
301.581
301.592
301.593
301.586
301.573
301.555
301.534
301.511
301.49
301.471
301.459
301.459
301.478
301.533
301.645
301.841
302.138
302.567
303.214
304.131
300.133
300.388
300.615
300.806
300.954
301.069
301.163
301.245
301.319
301.386
301.447
301.502
301.549
301.588
301.618
301.637
301.647
301.647
301.638
301.621
301.6
301.575
301.549
301.524
301.504
301.492
301.495
301.521
301.586
301.712
301.925
302.238
302.681
303.341
304.262
300.138
300.401
300.636
300.832
300.985
301.102
301.199
301.284
301.36
301.429
301.493
301.55
301.599
301.64
301.67
301.69
301.7
301.699
301.688
301.67
301.645
301.617
301.588
301.561
301.539
301.528
301.532
301.564
301.638
301.777
302.005
302.331
302.788
303.46
304.385
300.142
300.414
300.656
300.858
301.015
301.135
301.235
301.322
301.4
301.472
301.538
301.597
301.648
301.69
301.721
301.741
301.75
301.749
301.737
301.717
301.69
301.66
301.628
301.599
301.576
301.565
301.571
301.607
301.689
301.84
302.08
302.42
302.888
303.57
304.5
300.146
300.426
300.675
300.883
301.043
301.166
301.268
301.357
301.438
301.512
301.58
301.641
301.694
301.737
301.769
301.79
301.799
301.797
301.784
301.763
301.735
301.702
301.669
301.638
301.615
301.604
301.612
301.653
301.742
301.902
302.155
302.505
302.984
303.676
304.609
300.151
300.438
300.694
300.907
301.07
301.196
301.3
301.392
301.475
301.552
301.622
301.685
301.739
301.783
301.816
301.837
301.846
301.844
301.831
301.808
301.778
301.744
301.71
301.678
301.654
301.644
301.654
301.699
301.795
301.965
302.228
302.588
303.076
303.777
304.713
300.155
300.449
300.712
300.93
301.096
301.225
301.331
301.425
301.51
301.589
301.661
301.726
301.781
301.827
301.861
301.882
301.892
301.889
301.875
301.852
301.821
301.786
301.75
301.718
301.694
301.685
301.698
301.747
301.85
302.029
302.301
302.669
303.166
303.874
304.813
300.159
300.461
300.73
300.952
301.122
301.253
301.361
301.457
301.545
301.626
301.7
301.766
301.823
301.87
301.904
301.927
301.936
301.934
301.92
301.896
301.864
301.828
301.791
301.759
301.735
301.726
301.742
301.796
301.905
302.092
302.373
302.749
303.252
303.967
304.908
300.162
300.472
300.747
300.974
301.147
301.28
301.39
301.488
301.578
301.66
301.736
301.804
301.863
301.911
301.946
301.969
301.979
301.977
301.963
301.938
301.906
301.869
301.832
301.799
301.776
301.769
301.788
301.846
301.962
302.156
302.445
302.827
303.337
304.058
305.001
300.166
300.483
300.764
300.995
301.171
301.306
301.418
301.518
301.61
301.695
301.772
301.842
301.902
301.951
301.987
302.011
302.022
302.02
302.006
301.981
301.949
301.911
301.874
301.841
301.818
301.812
301.834
301.896
302.018
302.22
302.516
302.903
303.418
304.145
305.091
300.17
300.494
300.781
301.016
301.194
301.331
301.445
301.547
301.641
301.728
301.807
301.878
301.94
301.99
302.027
302.052
302.063
302.062
302.048
302.023
301.991
301.953
301.915
301.882
301.86
301.856
301.88
301.947
302.075
302.284
302.587
302.979
303.499
304.231
305.178
300.174
300.504
300.797
301.036
301.217
301.356
301.472
301.576
301.671
301.76
301.841
301.914
301.976
302.028
302.066
302.092
302.104
302.103
302.09
302.065
302.033
301.995
301.957
301.924
301.903
301.9
301.927
301.999
302.133
302.348
302.657
303.053
303.577
304.313
305.263
300.177
300.515
300.813
301.055
301.239
301.38
301.498
301.604
301.701
301.791
301.874
301.948
302.012
302.065
302.104
302.131
302.144
302.144
302.131
302.107
302.075
302.037
302
301.967
301.946
301.945
301.975
302.051
302.19
302.412
302.727
303.127
303.655
304.395
305.346
300.181
300.525
300.828
301.075
301.26
301.403
301.523
301.631
301.73
301.822
301.907
301.982
302.047
302.101
302.142
302.169
302.183
302.184
302.172
302.149
302.117
302.08
302.042
302.01
301.99
301.991
302.024
302.104
302.248
302.476
302.796
303.199
303.73
304.475
305.427
300.185
300.535
300.844
301.094
301.282
301.426
301.548
301.658
301.759
301.852
301.938
302.016
302.082
302.137
302.178
302.207
302.222
302.223
302.213
302.19
302.159
302.123
302.085
302.053
302.034
302.037
302.073
302.157
302.307
302.54
302.865
303.271
303.806
304.553
305.507
300.188
300.545
300.859
301.113
301.303
301.449
301.573
301.684
301.787
301.882
301.97
302.048
302.116
302.172
302.214
302.244
302.26
302.263
302.253
302.232
302.201
302.165
302.129
302.097
302.079
302.084
302.122
302.21
302.366
302.604
302.933
303.342
303.88
304.63
305.585
300.191
300.555
300.874
301.131
301.324
301.472
301.597
301.71
301.815
301.912
302.001
302.081
302.15
302.206
302.25
302.28
302.297
302.301
302.293
302.273
302.244
302.208
302.172
302.142
302.125
302.131
302.172
302.265
302.425
302.669
303.001
303.413
303.953
304.706
305.662
300.195
300.564
300.889
301.15
301.344
301.494
301.621
301.736
301.842
301.941
302.032
302.113
302.183
302.24
302.285
302.316
302.335
302.34
302.332
302.314
302.285
302.251
302.216
302.187
302.171
302.179
302.223
302.319
302.484
302.733
303.07
303.484
304.025
304.781
305.737
300.198
300.574
300.904
301.168
301.364
301.516
301.645
301.762
301.87
301.97
302.062
302.144
302.216
302.274
302.32
302.352
302.371
302.377
302.371
302.354
302.327
302.294
302.26
302.232
302.217
302.227
302.274
302.374
302.544
302.798
303.137
303.553
304.097
304.854
305.811
300.202
300.584
300.918
301.186
301.385
301.538
301.669
301.787
301.897
301.999
302.092
302.176
302.248
302.308
302.354
302.387
302.408
302.415
302.41
302.394
302.369
302.337
302.304
302.277
302.264
302.276
302.326
302.43
302.604
302.862
303.205
303.622
304.167
304.926
305.883
300.205
300.593
300.933
301.204
301.405
301.56
301.693
301.813
301.924
302.028
302.123
302.207
302.281
302.341
302.388
302.422
302.443
302.452
302.448
302.434
302.41
302.38
302.348
302.322
302.311
302.325
302.378
302.485
302.664
302.926
303.272
303.691
304.237
304.997
305.953
300.208
300.603
300.948
301.222
301.425
301.582
301.716
301.838
301.951
302.056
302.153
302.239
302.313
302.374
302.422
302.457
302.479
302.489
302.486
302.473
302.451
302.423
302.393
302.368
302.358
302.374
302.43
302.541
302.724
302.99
303.338
303.758
304.305
305.065
306.022
300.212
300.612
300.962
301.24
301.445
301.604
301.74
301.863
301.978
302.085
302.183
302.27
302.345
302.407
302.456
302.492
302.514
302.525
302.524
302.512
302.492
302.465
302.437
302.414
302.405
302.423
302.482
302.596
302.783
303.054
303.404
303.824
304.371
305.132
306.088
300.215
300.622
300.977
301.258
301.465
301.626
301.763
301.889
302.005
302.114
302.213
302.301
302.377
302.44
302.49
302.526
302.55
302.561
302.561
302.551
302.533
302.507
302.481
302.459
302.453
302.473
302.534
302.652
302.843
303.116
303.468
303.889
304.436
305.197
306.152
300.219
300.631
300.991
301.276
301.485
301.647
301.787
301.914
302.032
302.142
302.243
302.332
302.409
302.473
302.523
302.56
302.584
302.597
302.598
302.59
302.573
302.55
302.525
302.505
302.5
302.522
302.586
302.707
302.901
303.178
303.532
303.952
304.5
305.26
306.215
300.222
300.641
301.006
301.293
301.505
301.669
301.81
301.939
302.059
302.171
302.273
302.363
302.441
302.506
302.556
302.594
302.619
302.633
302.635
302.628
302.613
302.591
302.568
302.551
302.548
302.572
302.638
302.762
302.959
303.239
303.594
304.014
304.561
305.322
306.276
300.225
300.651
301.02
301.311
301.524
301.691
301.834
301.965
302.087
302.2
302.303
302.395
302.473
302.538
302.59
302.628
302.654
302.668
302.672
302.666
302.652
302.633
302.612
302.596
302.595
302.621
302.689
302.817
303.017
303.299
303.655
304.075
304.622
305.382
306.335
300.229
300.66
301.035
301.329
301.544
301.712
301.857
301.99
302.114
302.229
302.333
302.426
302.505
302.571
302.623
302.662
302.688
302.703
302.708
302.704
302.692
302.674
302.655
302.641
302.642
302.67
302.741
302.871
303.074
303.359
303.715
304.135
304.681
305.44
306.392
300.232
300.67
301.05
301.347
301.564
301.734
301.881
302.016
302.141
302.257
302.363
302.457
302.538
302.604
302.656
302.696
302.723
302.739
302.744
302.741
302.731
302.715
302.698
302.686
302.689
302.72
302.793
302.925
303.131
303.417
303.774
304.193
304.738
305.497
306.449
300.235
300.679
301.064
301.365
301.584
301.756
301.905
302.041
302.168
302.286
302.394
302.489
302.57
302.637
302.69
302.73
302.757
302.774
302.78
302.779
302.77
302.756
302.741
302.731
302.736
302.769
302.844
302.978
303.187
303.475
303.832
304.25
304.795
305.553
306.504
300.239
300.689
301.079
301.382
301.604
301.777
301.928
302.067
302.196
302.315
302.424
302.52
302.602
302.67
302.723
302.763
302.791
302.809
302.816
302.816
302.808
302.796
302.783
302.776
302.783
302.817
302.895
303.032
303.242
303.532
303.889
304.307
304.85
305.608
306.558
300.242
300.699
301.093
301.4
301.623
301.799
301.952
302.092
302.223
302.345
302.455
302.552
302.634
302.702
302.756
302.797
302.826
302.843
302.852
302.853
302.847
302.836
302.825
302.82
302.829
302.866
302.946
303.085
303.297
303.588
303.946
304.362
304.905
305.662
306.611
300.246
300.708
301.108
301.418
301.643
301.82
301.975
302.118
302.251
302.374
302.485
302.583
302.667
302.735
302.79
302.831
302.86
302.878
302.888
302.889
302.885
302.876
302.867
302.864
302.876
302.915
302.996
303.137
303.352
303.644
304.001
304.417
304.959
305.715
306.664
300.249
300.718
301.122
301.435
301.663
301.842
301.999
302.144
302.279
302.403
302.516
302.615
302.699
302.768
302.823
302.864
302.894
302.913
302.923
302.926
302.923
302.916
302.909
302.908
302.922
302.963
303.047
303.19
303.406
303.699
304.056
304.471
305.011
305.767
306.715
300.252
300.727
301.137
301.453
301.683
301.864
302.023
302.17
302.306
302.433
302.547
302.647
302.732
302.801
302.856
302.898
302.928
302.948
302.958
302.962
302.96
302.955
302.95
302.951
302.967
303.011
303.097
303.242
303.46
303.754
304.111
304.524
305.063
305.818
306.766
300.256
300.737
301.151
301.471
301.703
301.886
302.047
302.196
302.335
302.463
302.578
302.679
302.765
302.834
302.89
302.932
302.962
302.982
302.994
302.999
302.998
302.994
302.991
302.995
303.013
303.058
303.146
303.293
303.513
303.808
304.164
304.576
305.115
305.869
306.816
300.259
300.746
301.166
301.489
301.722
301.908
302.071
302.222
302.363
302.493
302.61
302.711
302.797
302.868
302.923
302.965
302.996
303.017
303.029
303.035
303.035
303.033
303.032
303.037
303.058
303.106
303.196
303.345
303.565
303.861
304.217
304.628
305.165
305.918
306.865
300.263
300.756
301.181
301.506
301.742
301.929
302.095
302.248
302.391
302.523
302.641
302.744
302.83
302.901
302.957
302.999
303.03
303.051
303.064
303.071
303.073
303.072
303.073
303.08
303.103
303.153
303.245
303.395
303.618
303.914
304.27
304.679
305.215
305.968
306.914
300.266
300.766
301.195
301.524
301.762
301.951
302.119
302.274
302.42
302.553
302.673
302.776
302.864
302.935
302.99
303.033
303.064
303.086
303.099
303.107
303.11
303.111
303.113
303.122
303.147
303.199
303.293
303.446
303.669
303.967
304.321
304.73
305.264
306.016
306.962
300.269
300.775
301.21
301.542
301.782
301.973
302.143
302.301
302.448
302.584
302.705
302.809
302.897
302.968
303.024
303.067
303.098
303.12
303.135
303.143
303.147
303.149
303.153
303.165
303.191
303.246
303.342
303.496
303.721
304.018
304.373
304.78
305.313
306.064
307.01
300.273
300.785
301.224
301.559
301.802
301.996
302.168
302.328
302.477
302.615
302.737
302.842
302.93
303.002
303.058
303.101
303.133
303.155
303.17
303.179
303.184
303.188
303.194
303.207
303.236
303.292
303.39
303.546
303.772
304.07
304.423
304.829
305.361
306.112
307.058
300.276
300.794
301.239
301.577
301.822
302.018
302.192
302.355
302.507
302.646
302.769
302.875
302.964
303.035
303.092
303.135
303.167
303.189
303.205
303.215
303.221
303.226
303.234
303.249
303.28
303.338
303.438
303.595
303.822
304.121
304.474
304.878
305.409
306.159
307.105
300.279
300.804
301.254
301.595
301.842
302.04
302.217
302.382
302.536
302.677
302.802
302.908
302.997
303.069
303.125
303.169
303.201
303.224
303.24
303.251
303.258
303.264
303.273
303.29
303.323
303.384
303.486
303.645
303.873
304.171
304.523
304.927
305.457
306.206
307.152
300.283
300.814
301.268
301.613
301.863
302.063
302.242
302.41
302.566
302.709
302.834
302.942
303.031
303.103
303.159
303.203
303.235
303.258
303.275
303.286
303.295
303.303
303.313
303.332
303.367
303.43
303.533
303.694
303.923
304.222
304.573
304.975
305.504
306.253
307.199
300.286
300.824
301.283
301.631
301.883
302.086
302.268
302.438
302.597
302.741
302.868
302.976
303.065
303.137
303.193
303.237
303.269
303.293
303.31
303.322
303.332
303.341
303.353
303.374
303.411
303.475
303.581
303.743
303.973
304.272
304.623
305.023
305.551
306.3
307.247
300.29
300.833
301.298
301.65
301.904
302.109
302.294
302.466
302.627
302.773
302.901
303.01
303.099
303.171
303.228
303.271
303.303
303.327
303.345
303.358
303.368
303.379
303.393
303.415
303.455
303.521
303.629
303.793
304.024
304.323
304.672
305.072
305.599
306.348
307.294
300.293
300.843
301.314
301.668
301.925
302.132
302.32
302.495
302.659
302.806
302.935
303.044
303.134
303.206
303.262
303.305
303.337
303.362
303.38
303.394
303.405
303.417
303.432
303.457
303.499
303.567
303.677
303.843
304.075
304.374
304.722
305.12
305.646
306.395
307.342
300.297
300.853
301.329
301.687
301.946
302.156
302.346
302.525
302.69
302.84
302.97
303.079
303.169
303.24
303.296
303.339
303.372
303.396
303.415
303.429
303.442
303.455
303.472
303.499
303.542
303.614
303.726
303.893
304.126
304.425
304.772
305.168
305.694
306.443
307.39
300.3
300.864
301.344
301.706
301.967
302.18
302.373
302.554
302.722
302.873
303.004
303.114
303.204
303.275
303.331
303.374
303.406
303.431
303.45
303.465
303.478
303.493
303.512
303.54
303.586
303.66
303.774
303.943
304.177
304.476
304.822
305.217
305.742
306.491
307.439
300.304
300.874
301.36
301.725
301.989
302.204
302.4
302.584
302.755
302.908
303.039
303.15
303.239
303.31
303.365
303.408
303.44
303.465
303.485
303.501
303.515
303.531
303.551
303.582
303.63
303.706
303.823
303.994
304.229
304.528
304.872
305.266
305.79
306.539
307.488
300.308
300.884
301.376
301.744
302.01
302.229
302.428
302.615
302.788
302.942
303.075
303.185
303.274
303.345
303.4
303.442
303.475
303.5
303.52
303.536
303.552
303.569
303.591
303.624
303.674
303.753
303.872
304.044
304.281
304.579
304.923
305.315
305.839
306.588
307.537
300.311
300.895
301.392
301.763
302.032
302.253
302.455
302.645
302.821
302.977
303.11
303.221
303.31
303.38
303.435
303.477
303.509
303.534
303.555
303.572
303.588
303.607
303.631
303.665
303.718
303.799
303.921
304.095
304.333
304.632
304.974
305.365
305.887
306.637
307.586
300.315
300.905
301.408
301.782
302.054
302.278
302.483
302.676
302.854
303.012
303.146
303.257
303.345
303.415
303.47
303.511
303.544
303.569
303.59
303.607
303.625
303.645
303.67
303.707
303.762
303.846
303.97
304.147
304.386
304.684
305.025
305.415
305.937
306.686
307.636
300.319
300.916
301.424
301.802
302.076
302.303
302.512
302.708
302.888
303.047
303.182
303.293
303.381
303.45
303.504
303.546
303.578
303.604
303.624
303.643
303.661
303.682
303.71
303.749
303.806
303.893
304.019
304.198
304.438
304.737
305.076
305.465
305.986
306.736
307.686
300.322
300.927
301.44
301.821
302.099
302.328
302.54
302.739
302.922
303.083
303.218
303.329
303.417
303.486
303.539
303.58
303.613
303.638
303.659
303.679
303.698
303.72
303.749
303.79
303.85
303.939
304.068
304.25
304.491
304.789
305.128
305.515
306.036
306.785
307.736
300.326
300.937
301.456
301.841
302.121
302.354
302.569
302.771
302.956
303.118
303.254
303.365
303.452
303.521
303.574
303.615
303.647
303.673
303.694
303.714
303.734
303.758
303.789
303.832
303.895
303.986
304.118
304.302
304.544
304.842
305.179
305.565
306.085
306.835
307.786
300.33
300.948
301.472
301.86
302.143
302.379
302.598
302.804
302.991
303.154
303.291
303.401
303.488
303.556
303.609
303.649
303.681
303.707
303.729
303.75
303.771
303.796
303.828
303.874
303.939
304.033
304.168
304.353
304.597
304.895
305.231
305.616
306.135
306.885
307.837
300.334
300.959
301.488
301.88
302.166
302.406
302.628
302.837
303.027
303.191
303.328
303.438
303.524
303.592
303.643
303.684
303.716
303.742
303.764
303.785
303.807
303.834
303.868
303.915
303.983
304.08
304.217
304.405
304.651
304.949
305.283
305.667
306.185
306.935
307.887
300.337
300.969
301.505
301.9
302.189
302.432
302.658
302.871
303.063
303.228
303.365
303.474
303.56
303.627
303.678
303.718
303.75
303.776
303.799
303.821
303.844
303.871
303.907
303.957
304.027
304.127
304.267
304.457
304.704
305.002
305.335
305.717
306.235
306.985
307.937
300.341
300.98
301.522
301.921
302.213
302.459
302.689
302.905
303.099
303.266
303.403
303.512
303.597
303.663
303.713
303.753
303.784
303.81
303.833
303.856
303.88
303.909
303.947
303.998
304.071
304.173
304.316
304.509
304.757
305.054
305.386
305.767
306.285
307.035
307.987
300.345
300.992
301.539
301.942
302.237
302.487
302.721
302.94
303.137
303.304
303.441
303.549
303.633
303.698
303.748
303.787
303.819
303.845
303.868
303.891
303.916
303.947
303.986
304.039
304.115
304.22
304.366
304.561
304.81
305.107
305.437
305.817
306.335
307.084
308.036
300.349
301.003
301.556
301.963
302.261
302.515
302.753
302.976
303.174
303.343
303.479
303.587
303.67
303.734
303.784
303.822
303.853
303.879
303.903
303.927
303.953
303.984
304.025
304.081
304.158
304.266
304.415
304.612
304.863
305.159
305.488
305.867
306.384
307.133
308.085
300.353
301.015
301.573
301.984
302.286
302.544
302.786
303.012
303.213
303.382
303.518
303.625
303.707
303.771
303.819
303.857
303.888
303.914
303.938
303.962
303.989
304.022
304.064
304.122
304.202
304.313
304.464
304.663
304.915
305.211
305.539
305.917
306.433
307.182
308.133
300.357
301.026
301.591
302.006
302.311
302.573
302.819
303.048
303.251
303.421
303.557
303.663
303.745
303.807
303.855
303.892
303.922
303.948
303.973
303.997
304.025
304.059
304.103
304.163
304.246
304.359
304.513
304.714
304.967
305.263
305.589
305.966
306.482
307.23
308.181
300.361
301.038
301.609
302.028
302.336
302.602
302.853
303.085
303.29
303.46
303.596
303.701
303.782
303.843
303.89
303.927
303.957
303.983
304.007
304.033
304.061
304.096
304.142
304.204
304.289
304.405
304.561
304.765
305.019
305.314
305.639
306.015
306.53
307.278
308.228
300.366
301.05
301.627
302.05
302.362
302.632
302.887
303.123
303.329
303.499
303.635
303.739
303.819
303.879
303.926
303.962
303.992
304.018
304.042
304.068
304.097
304.134
304.181
304.245
304.332
304.451
304.609
304.815
305.07
305.364
305.688
306.063
306.578
307.325
308.275
300.37
301.062
301.645
302.072
302.389
302.663
302.922
303.161
303.369
303.539
303.674
303.778
303.856
303.916
303.961
303.997
304.026
304.052
304.077
304.103
304.133
304.171
304.22
304.286
304.375
304.496
304.657
304.865
305.12
305.414
305.736
306.11
306.625
307.371
308.321
300.374
301.074
301.664
302.096
302.416
302.695
302.959
303.201
303.41
303.58
303.714
303.816
303.894
303.952
303.997
304.032
304.061
304.087
304.112
304.139
304.17
304.208
304.259
304.326
304.418
304.541
304.705
304.914
305.17
305.464
305.784
306.157
306.671
307.417
308.367
300.378
301.086
301.684
302.12
302.445
302.729
302.998
303.243
303.453
303.622
303.755
303.856
303.932
303.989
304.033
304.067
304.096
304.122
304.147
304.174
304.206
304.245
304.297
304.367
304.46
304.586
304.752
304.963
305.219
305.512
305.832
306.203
306.717
307.462
308.411
300.383
301.1
301.704
302.146
302.475
302.764
303.038
303.286
303.497
303.666
303.797
303.896
303.97
304.026
304.069
304.102
304.131
304.156
304.182
304.209
304.242
304.282
304.336
304.407
304.503
304.631
304.799
305.011
305.268
305.56
305.878
306.249
306.762
307.506
308.455
300.388
301.114
301.726
302.172
302.506
302.801
303.079
303.331
303.542
303.711
303.84
303.937
304.009
304.064
304.105
304.138
304.166
304.191
304.217
304.245
304.278
304.319
304.374
304.447
304.545
304.675
304.845
305.059
305.316
305.607
305.924
306.294
306.806
307.55
308.497
300.393
301.128
301.748
302.199
302.539
302.839
303.123
303.377
303.589
303.756
303.884
303.979
304.049
304.102
304.142
304.174
304.201
304.227
304.252
304.28
304.314
304.356
304.412
304.487
304.587
304.719
304.891
305.106
305.364
305.654
305.969
306.338
306.85
307.593
308.54
300.398
301.143
301.771
302.228
302.572
302.878
303.167
303.424
303.637
303.803
303.928
304.021
304.09
304.14
304.179
304.21
304.237
304.262
304.287
304.316
304.35
304.393
304.45
304.527
304.628
304.763
304.936
305.153
305.411
305.7
306.014
306.381
306.892
307.635
308.581
300.403
301.158
301.794
302.257
302.607
302.919
303.213
303.473
303.686
303.851
303.974
304.064
304.13
304.18
304.217
304.247
304.273
304.298
304.323
304.352
304.386
304.431
304.489
304.566
304.67
304.806
304.981
305.199
305.457
305.745
306.057
306.424
306.935
307.676
308.621
300.408
301.174
301.819
302.287
302.642
302.961
303.261
303.523
303.736
303.899
304.02
304.108
304.172
304.219
304.255
304.284
304.309
304.334
304.359
304.387
304.423
304.468
304.527
304.606
304.711
304.849
305.026
305.244
305.502
305.789
306.1
306.466
306.976
307.716
308.661
300.414
301.19
301.844
302.318
302.68
303.005
303.311
303.575
303.787
303.948
304.066
304.152
304.213
304.259
304.294
304.322
304.346
304.37
304.395
304.424
304.459
304.505
304.565
304.646
304.752
304.892
305.07
305.289
305.547
305.833
306.142
306.507
307.017
307.756
308.7
300.42
301.207
301.87
302.351
302.719
303.052
303.362
303.629
303.841
303.999
304.114
304.197
304.256
304.299
304.332
304.359
304.383
304.406
304.431
304.46
304.496
304.542
304.604
304.685
304.793
304.934
305.114
305.334
305.591
305.875
306.184
306.547
307.056
307.795
308.738
300.426
301.225
301.897
302.385
302.759
303.1
303.416
303.685
303.895
304.051
304.163
304.242
304.299
304.34
304.372
304.397
304.42
304.443
304.468
304.497
304.533
304.58
304.642
304.725
304.835
304.977
305.157
305.378
305.634
305.918
306.225
306.588
307.096
307.834
308.776
300.432
301.243
301.925
302.42
302.801
303.149
303.471
303.742
303.951
304.104
304.213
304.289
304.343
304.382
304.412
304.436
304.458
304.48
304.505
304.534
304.57
304.618
304.681
304.765
304.875
305.019
305.2
305.421
305.677
305.959
306.265
306.627
307.134
307.872
308.813
300.439
301.262
301.954
302.455
302.844
303.2
303.527
303.799
304.008
304.158
304.263
304.336
304.387
304.424
304.452
304.475
304.497
304.518
304.542
304.571
304.608
304.656
304.72
304.805
304.917
305.062
305.244
305.465
305.72
306.001
306.305
306.666
307.173
307.91
308.851
300.446
301.282
301.984
302.492
302.887
303.251
303.584
303.857
304.064
304.212
304.314
304.384
304.432
304.467
304.493
304.515
304.535
304.556
304.58
304.609
304.646
304.695
304.759
304.845
304.958
305.103
305.286
305.507
305.762
306.041
306.344
306.704
307.21
307.946
308.887
300.453
301.301
302.013
302.529
302.932
303.303
303.64
303.915
304.121
304.266
304.365
304.431
304.477
304.51
304.534
304.555
304.574
304.595
304.618
304.647
304.685
304.734
304.799
304.886
304.999
305.146
305.33
305.55
305.804
306.082
306.383
306.742
307.248
307.984
308.924
300.46
301.321
302.043
302.566
302.977
303.356
303.698
303.974
304.177
304.32
304.416
304.479
304.522
304.553
304.576
304.595
304.614
304.634
304.657
304.686
304.723
304.773
304.839
304.926
305.041
305.188
305.372
305.592
305.845
306.121
306.421
306.779
307.285
308.019
308.959
300.467
301.341
302.074
302.605
303.024
303.411
303.757
304.033
304.235
304.374
304.467
304.528
304.568
304.596
304.618
304.636
304.654
304.673
304.696
304.725
304.763
304.812
304.879
304.967
305.083
305.231
305.415
305.635
305.887
306.161
306.46
306.817
307.322
308.056
308.996
300.474
301.362
302.106
302.646
303.073
303.468
303.819
304.095
304.294
304.43
304.519
304.576
304.614
304.64
304.66
304.678
304.694
304.713
304.736
304.764
304.802
304.852
304.919
305.008
305.124
305.273
305.457
305.677
305.927
306.2
306.497
306.854
307.358
308.092
309.031
300.481
301.383
302.14
302.688
303.124
303.529
303.884
304.16
304.356
304.487
304.572
304.626
304.661
304.685
304.703
304.719
304.735
304.753
304.776
304.804
304.842
304.893
304.961
305.05
305.167
305.316
305.501
305.72
305.969
306.24
306.536
306.892
307.396
308.129
309.068
300.489
301.406
302.175
302.733
303.178
303.592
303.951
304.226
304.419
304.546
304.626
304.676
304.708
304.73
304.747
304.762
304.777
304.794
304.816
304.845
304.883
304.934
305.002
305.092
305.209
305.359
305.543
305.762
306.009
306.279
306.573
306.928
307.432
308.164
309.103
300.498
301.431
302.212
302.779
303.234
303.657
304.02
304.295
304.484
304.606
304.682
304.728
304.757
304.776
304.791
304.804
304.819
304.836
304.857
304.886
304.924
304.975
305.044
305.135
305.253
305.403
305.587
305.805
306.051
306.319
306.612
306.966
307.47
308.202
309.141
300.506
301.456
302.25
302.826
303.291
303.722
304.09
304.364
304.55
304.667
304.738
304.78
304.806
304.823
304.836
304.848
304.861
304.877
304.898
304.927
304.965
305.017
305.086
305.177
305.296
305.446
305.63
305.847
306.092
306.358
306.649
307.003
307.506
308.238
309.176
300.515
301.481
302.288
302.874
303.348
303.788
304.16
304.434
304.616
304.729
304.795
304.833
304.855
304.87
304.881
304.892
304.904
304.92
304.941
304.969
305.008
305.06
305.129
305.222
305.341
305.491
305.675
305.891
306.134
306.399
306.689
307.042
307.544
308.276
309.215
300.525
301.507
302.326
302.921
303.405
303.853
304.229
304.503
304.682
304.791
304.852
304.886
304.906
304.918
304.927
304.936
304.948
304.963
304.983
305.011
305.05
305.102
305.172
305.265
305.384
305.535
305.718
305.933
306.175
306.438
306.726
307.078
307.581
308.312
309.251
300.534
301.532
302.364
302.97
303.462
303.919
304.298
304.571
304.748
304.852
304.91
304.94
304.956
304.966
304.974
304.982
304.992
305.006
305.026
305.054
305.093
305.146
305.217
305.31
305.43
305.581
305.764
305.978
306.218
306.479
306.767
307.118
307.62
308.352
309.29
300.543
301.558
302.403
303.018
303.521
303.985
304.368
304.641
304.815
304.915
304.968
304.995
305.008
305.015
305.021
305.027
305.036
305.05
305.07
305.098
305.136
305.189
305.261
305.354
305.474
305.625
305.808
306.021
306.259
306.519
306.805
307.155
307.657
308.388
309.327
300.552
301.584
302.443
303.069
303.581
304.054
304.44
304.712
304.882
304.978
305.027
305.05
305.06
305.064
305.068
305.074
305.082
305.095
305.114
305.142
305.181
305.234
305.306
305.4
305.521
305.672
305.854
306.066
306.303
306.561
306.846
307.196
307.698
308.429
309.367
300.562
301.611
302.484
303.122
303.645
304.126
304.515
304.786
304.952
305.043
305.087
305.106
305.112
305.115
305.116
305.12
305.127
305.139
305.158
305.186
305.225
305.279
305.351
305.445
305.566
305.717
305.899
306.109
306.345
306.601
306.884
307.234
307.735
308.466
309.405
300.572
301.64
302.527
303.177
303.711
304.201
304.593
304.863
305.025
305.11
305.149
305.163
305.166
305.166
305.165
305.168
305.174
305.185
305.204
305.231
305.27
305.325
305.397
305.492
305.614
305.765
305.946
306.156
306.39
306.644
306.927
307.276
307.777
308.508
309.447
300.582
301.67
302.572
303.234
303.779
304.278
304.674
304.942
305.099
305.179
305.212
305.221
305.221
305.217
305.215
305.216
305.22
305.231
305.249
305.276
305.315
305.37
305.442
305.538
305.66
305.81
305.991
306.199
306.432
306.685
306.966
307.314
307.816
308.546
309.485
300.593
301.701
302.619
303.293
303.85
304.358
304.757
305.024
305.176
305.25
305.277
305.281
305.277
305.27
305.266
305.264