/*--------------------------------*- C++ -*----------------------------------*\
| =========                 |                                                 |
| \\      /  F ield         | OpenFOAM: The Open Source CFD Toolbox           |
|  \\    /   O peration     | Version:  v1912                                 |
|   \\  /    A nd           | Website:  www.openfoam.com                      |
|    \\/     M anipulation  |                                                 |
\*---------------------------------------------------------------------------*/
FoamFile
{
    version     2.0;
    format      ascii;
    class       volScalarField;
    location    "490/oil";
    object      wallHeatFlux;
}
// * * * * * * * * * * * * * * * * * * * * * * * * * * * * * * * * * * * * * //

dimensions      [1 0 -3 0 0 0 0];


internalField   uniform 0;

boundaryField
{
    maxY
    {
        type            calculated;
        value           uniform 0;
    }
    minX
    {
        type            calculated;
        value           uniform 0;
    }
    maxX
    {
        type            calculated;
        value           uniform 0;
    }
    minY
    {
        type            calculated;
        value           uniform 0;
    }
    minZ
    {
        type            calculated;
        value           uniform 0;
    }
    maxZ
    {
        type            calculated;
        value           uniform 0;
    }
    oil_to_sphere
    {
        type            calculated;
        value           nonuniform List<scalar> 
1536
(
615.719
332.708
325.465
-188.371
-199.939
319.774
90.7523
186.183
152.28
-142.901
-351.19
-103.809
147.372
-93.6568
-416.538
60.4241
320.229
339.121
45.4584
132.448
251.889
157.045
176.606
57.3695
84.811
71.0406
84.1927
22.8292
302.572
165.697
387.38
334.873
344.405
63.8108
80.2953
25.5667
51.9876
-31.1082
20.7792
82.8863
9.42587
50.3728
142.565
200.068
269.413
79.3515
244.513
171.02
-394.118
69.2272
225.403
156.099
165.636
57.421
293.437
486.741
173.652
133.025
247.093
221.323
135.262
144.444
129.513
49.8295
77.1914
122.916
131.774
231.668
229.75
292.506
48.4459
-201.984
-110.081
71.7151
70.632
505.537
348.149
-29.5702
61.0475
329.048
255.693
213.498
-185.462
-192.709
301.184
560.615
-259.297
107.837
221.46
220.198
151.309
35.0547
30.1886
43.0904
70.0653
197.773
248.74
268.352
368.888
213.69
257.519
44.4628
619.83
227.58
-122.465
65.0379
88.4916
-168.573
-171.565
626.651
345.354
184.364
142.347
176.957
-226.027
-199.342
-282.006
434.753
589.075
360.752
164.479
176.983
17.5564
245.474
384.436
198.513
162.914
-1.05185
262.896
246.594
123.999
235.117
289.845
91.7294
109.049
307.026
178.608
331.159
4.13693
323.108
155.07
243.231
246.17
146.505
114.055
140.182
203.621
420.024
107.466
631.773
281.407
319.385
173.662
189.119
72.4864
197.506
305.681
237.576
677.366
364.696
344.658
432.891
-71.1677
-26.3913
38.8353
34.3791
290.409
408.859
369.516
486.201
21.2057
38.7203
-27.1813
249.091
161.277
188.043
536.226
-60.677
-128.72
560.984
28.9808
-21.948
-33.1015
-6.3356
217.151
561.032
366.596
8.03053
-82.3262
334.378
-64.2638
285.655
286.589
412.305
-107.085
-478.577
401.362
440.609
82.4971
69.0678
157.071
94.3491
338.467
397.939
274.015
214.166
39.8599
419.954
370.658
182.082
-1.10744
77.1032
65.6334
96.6505
253.823
495.301
-86.531
-98.3155
-89.487
-517.478
318.462
250.907
211.425
154.252
166.172
420.007
283.496
70.633
319.874
-141.083
26.3741
-466.303
145.823
299.276
402.762
373.059
320.359
261.207
360.108
-109.805
-69.02
-38.2271
447.444
-16.0008
-472.577
-271.264
253.505
130.883
539.756
665.173
181.646
-193.852
-509.417
220.358
360.207
43.8536
52.4954
-238.21
33.4209
419.377
571.309
128.463
51.5164
472.994
367.561
74.816
-118.142
107.461
504.407
437.202
261.845
287.384
390.975
-33.6499
63.8465
405.666
286.904
324.38
142.266
320.102
487.426
270.704
247.646
457.381
45.28
42.0768
65.9827
21.2075
37.3615
416.142
513.688
-112.363
100.875
85.7522
96.136
7.33303
166.066
138.987
-22.2357
-234.822
30.186
-100.681
6.07837
561.554
464.062
458.518
636.993
-51.0256
-30.5576
153.058
633.16
566.259
26.2096
144.079
11.5816
281.515
56.8993
245.917
269.406
348.436
295.46
79.5518
304.957
27.3503
392.466
428.877
330.017
306.734
-13.7358
520.857
506.879
272.83
-113.418
42.1699
91.5977
270.45
242.682
285.192
-22.9421
387.81
390.174
351.747
456.832
234.088
198.352
132.182
-69.8785
199.237
275.552
-72.1295
-92.1695
-42.1146
601.48
381.28
456.592
240.56
193.184
408.367
-85.3151
540.328
348.633
199.574
193.277
-103.855
344.273
374.977
-3.56778
200.37
126.108
52.2055
281.998
383.106
142.281
72.4835
-49.5143
495.999
394.592
-94.9422
410.893
370.697
318.429
495.435
196.005
296.804
-150.513
-104.239
268.036
626.679
330.794
536.423
235.949
89.2934
367.297
-44.5486
9.44569
242.579
377.964
286.174
243.799
-33.0577
-30.1007
406.708
385.884
395.305
188.815
33.8769
251.191
307.393
375.064
205.33
107.682
-14.1237
180.776
-58.411
-167.829
41.4785
-10.9641
185.526
-140.268
92.8988
519.478
86.4234
82.9593
374.478
371.487
277.015
127.121
-74.7958
328.005
460.55
262.688
208.095
339.583
144.757
175.033
235.478
-188.504
256.19
390.973
453.586
363.875
300.006
288.898
208.208
114.016
-44.0772
162.356
-13.0489
-102.971
12.7465
-168.898
570.142
531.328
431.032
608.085
-56.9974
574.207
-24.9395
30.5957
318.677
-78.3007
-33.8148
96.3168
87.715
540.999
461.372
236.501
256.137
490.924
408.373
205.333
305.051
3.52763
378.776
-113.358
450.285
-190.985
290.929
326.128
363.415
77.8948
-45.9067
121.862
372.395
135.117
-133.819
375.685
398.677
428.884
650.886
199.287
482.881
-53.5292
-18.0378
-382.183
-269.926
204.689
95.8816
58.9795
12.913
594.336
-36.7665
-83.7879
-122.932
93.4845
-146.989
673.356
-0.228885
20.8357
163.691
-344.212
-243.109
43.5989
36.1591
143.078
71.6809
396.823
362.454
290.269
202.424
-160.527
57.4632
351.228
-44.63
-2.33474
328.794
499.608
1.62448
-386.255
-69.4722
-352.476
158.209
78.817
21.7715
-116.066
-344.37
282.007
322.135
244.798
152.441
506.426
291.261
271.905
193.539
-15.7915
67.7536
395.467
290.486
104.143
-280.497
213.04
337.014
522.695
222.547
37.9516
525.951
161.479
486.782
0.964236
80.3722
-35.8094
86.3838
218.406
500.82
-62.8401
20.2916
-17.2282
92.5597
682.826
-118.202
63.7063
-87.7724
163.177
216.98
397.696
507.67
-165.759
-111.628
502.845
535.775
-215.376
483.172
412.153
329.843
401.529
271.113
180.387
196.479
493.162
203.548
276.951
179.794
376.266
223.454
158.624
139.071
-69.3678
329.404
148.945
371.245
298.197
303.905
289.302
205.567
-104.733
403.558
401.062
280.235
155.557
229.566
617.526
-153.637
-3.86691
-58.3715
208.787
1.67346
620.792
86.8218
115.548
169.341
-376.754
-329.086
52.2838
46.6653
196.296
-35.6369
15.5522
216.139
19.6367
510.289
-76.1311
603.709
77.4388
201.341
-475.905
-340.092
-385.992
21.8536
330.514
61.9652
22.7129
-348.419
185.502
343.152
191.005
748.461
1.15506
396.113
269.721
341.238
419.936
407.453
337.334
164.011
107.177
161.287
340.973
127.177
248.581
218.188
242.713
365.076
290.765
327.781
-76.1496
-11.5691
-486.406
-234.418
-174.947
-651.513
42.2689
72.3306
127.936
157.528
-168.244
-64.253
103.267
438.743
405.403
97.8821
-126.801
146.176
356.183
274.488
172.612
-147.447
1.0179
284.365
228.638
167.418
51.3176
310.663
314.62
495.368
319.152
210.12
72.0895
11.168
-73.8095
31.9838
129.662
636.228
205.08
559.797
-3.40811
658.232
43.2574
137.82
-54.6803
-27.4001
74.8469
-81.9971
122.022
-142.357
55.9442
390.095
92.2429
-98.1762
513.805
301.787
253.815
148.211
481.194
789.292
-229.789
294.296
234.48
275.979
-83.7626
153.252
9.89615
239.076
318.161
410.667
-18.8727
282.44
191.006
314.7
297.065
270.135
98.2613
131.635
58.8487
-131.053
-161.618
-39.6456
471.972
56.9532
-85.8793
64.9761
398.057
118.996
468.901
360.435
261.171
209.403
255.123
529.456
-38.9986
289.954
412.15
443.005
203.655
7.88093
111.344
255.798
451.072
-59.107
134.924
194.7
391.18
258.02
250.612
479.299
-53.6857
19.6249
-16.4089
530.551
407.013
198.674
388.576
23.0315
55.1414
387.575
247.756
497.794
-25.9459
344.082
377.572
218.073
241.243
327.747
-21.953
-177.14
177.51
249.752
537.486
142.095
36.947
161.217
259.078
339.325
210.127
13.7451
144.518
375.858
-57.3584
15.7125
145.268
52.0161
233.326
208.194
436.969
273.887
362.82
63.2119
163.097
232.842
154.242
111.265
71.3669
68.0311
-47.8166
306.955
225.627
226.422
262.302
-111.68
87.5971
519.667
526.836
14.5371
394.65
257.771
305.62
63.2423
446.131
427.528
-31.5439
118.787
83.1745
71.2004
-122.75
-62.8835
83.2916
420.154
615.819
38.0966
325.163
305.798
252.319
127.643
234.876
434.694
222.056
-23.1036
89.6445
64.8571
75.7671
276.086
302.099
308.26
322.544
319.643
15.5304
337.323
96.3386
290.954
-344.662
263.262
464.384
110.141
-230.191
170.024
130.917
560.335
-11.7625
337.682
158.553
-181.591
508.436
-99.2456
135.466
181.765
-115.161
394.758
238.308
127.101
195.434
236.281
135.551
576.716
-92.726
77.8335
-419.416
94.1358
112.322
191.067
392.281
806.713
-140.364
80.23
714.77
-97.3851
316.106
7.77681
304.94
-254.729
-11.1579
705.264
-199.923
639.682
-153.734
545.239
-179.069
-15.2029
-390.803
-93.2383
665.637
-314.498
152.451
-201.536
478.095
669.482
-299.572
110.048
44.9143
-22.1769
-31.0187
85.515
184.834
183.396
297.823
161.789
487.799
737.992
-306.024
179.293
263.778
184.661
217.721
147.213
110.009
146.202
354.047
152.608
359.974
73.8016
224.591
464.265
108.327
287.336
399.926
72.849
224.576
159.335
294.21
136.791
201.473
115.468
385.946
91.3801
251.202
-157.422
499.341
-286.004
246.306
373.358
513.448
-5.09785
212.501
162.834
212.814
189.669
151.863
349.482
-37.8624
-487.408
106.353
-226.863
408.087
-0.0989033
176.934
307.334
-451.481
443.886
-50.8739
-361.183
-21.2635
318.332
300.756
187.971
-308.887
182.686
223.514
35.3891
1.9941
416.807
378.048
57.7489
195.682
418.467
-302.493
347.046
-4.09092
287.768
-276.194
612.202
592.984
378.053
182.19
109.65
307.924
98.4278
-312.974
-58.3266
327.218
8.6416
266.065
-232.096
400.796
285.493
-587.686
184.264
238.673
-432.838
452.735
-164.288
412.755
503.312
343.355
-350.876
199.575
121.328
187.613
205.405
269.128
-297.767
67.5858
15.8889
17.1293
392.598
172.426
240.497
301.554
287.196
117.425
209.178
130.934
249.046
424.773
57.4213
105.471
42.9272
201.578
370.442
53.8614
98.7062
76.6938
176.333
14.0014
34.1669
96.3032
115.438
204.398
87.1639
497.837
349.169
-209.281
-203.566
454.21
-649.646
333.822
221.527
12.6063
115.931
464.008
-452.666
408.455
241.136
-330.029
79.7573
33.7514
173.273
-479.044
454.635
247.908
-442.988
433.976
437.002
-262.917
516.156
376.805
-256.042
40.7363
14.8115
-446.711
183.104
211.829
-56.2458
-3.88758
-28.6373
-570.887
-9.58653
-474.001
-604.746
388.411
42.9507
666.671
55.6064
-300.913
459.852
129.53
-393.507
56.443
43.522
-399.608
-202.672
436.466
-732.136
-56.2972
-107.565
-652.581
407.213
358.768
181.122
93.3746
38.4688
-53.8775
-518.454
189.394
98.159
109.412
181.944
-359.989
319.209
58.4434
151.747
35.1517
143.023
202.831
-70.4296
-337.112
84.3433
210.417
53.2267
92.3128
159.36
-4.95006
103.761
-372.754
57.2705
237.556
39.1139
117.973
2.60597
-328.908
461.905
451.506
431.654
514.704
-265.697
-428.911
61.6298
331.294
210.678
313.322
353.287
-55.3967
-109.689
-422.26
-301.37
-6.04195
155.348
139.183
127.658
-109.147
392.542
243.871
-250.621
-15.8557
-66.338
347.974
0.48131
-521.516
150.447
170.13
405.86
-381.824
37.3299
203.24
73.2223
117.026
303.66
148.881
-48.168
543.006
-609.667
-154.848
120.945
-2.63064
86.3594
511.702
252.601
171.57
-141.649
466.973
67.1928
202.008
352.726
405.75
385.184
403.978
492.193
550.279
482.351
483.279
172.787
364.905
56.7031
115.78
-117.726
-183.542
-562.956
522.562
505.827
430.464
104.452
204.344
187.157
5.83062
218.098
361.139
-39.8924
130.383
291.411
38.9902
62.5041
49.7314
100.879
-6.47091
92.8212
71.1067
-274.614
200.899
-36.0042
128.468
-399.153
519.372
139.899
23.3457
-16.2742
-245.176
168.11
30.3988
-442.639
-150.98
133.875
-193.787
-128.24
562.389
590.629
73.3428
75.861
325.071
507.955
-449.109
-0.158344
-6.95316
87.9991
85.9788
107.733
146.193
-115.116
-319.934
451.745
79.7885
-166.915
-120.037
73.5856
176.248
-240.632
110.571
3.75628
56.6235
512.654
-159.262
-311.098
85.0889
37.2819
-7.80119
-313.314
407.108
69.0659
58.7508
71.3459
-439.038
72.1231
85.3271
-301.027
65.4922
-152.314
245.498
445.775
4.35111
365.163
234.477
14.3647
23.9585
93.8355
-312.858
227.555
263.327
46.6272
-382.684
-72.7859
121.256
139.733
8.99229
-340.413
19.3068
406.774
234.086
24.4593
554.555
-157.059
347.89
-428.573
-171.638
369.396
-439.249
388.747
19.1881
175.056
57.4452
581.634
-97.6043
181.586
514.123
464.18
-214.326
446.804
513.138
-635.587
108.93
35.3524
-413.049
259.045
29.619
59.513
60.4242
150.186
110.121
47.1599
24.5026
-429.38
259.259
173.827
159.733
200.921
104.455
13.3028
-69.198
316.688
-506.956
-13.6675
-30.4367
-484.446
375.535
538.766
131.196
429.626
464.772
3.1465
6.17805
256.822
426.837
-6.94988
288.764
-121.566
-412.812
324.927
-36.5362
406.044
551.897
504.805
-381.98
354.445
180.784
-50.237
44.3878
86.875
32.0713
-371.463
421.315
-353.53
411.782
100.524
-121.555
-172.922
102.521
299.772
483.631
165.358
635.562
331.911
391.82
-452.652
362.202
311.769
406.902
1.14695
-43.4617
-511.093
135.986
614.031
431.288
-325.87
-102.986
-360.869
0.858023
147.157
-128.014
761.487
60.5457
-101.064
-312.561
230.405
-37.9735
-471.207
114.951
26.2141
35.3427
44.1339
48.112
-307.496
-121.94
-409.499
28.2707
328.408
247.583
446.158
405.768
-13.0954
-67.8257
-432.792
17.6637
299.3
474.195
330.784
349.217
-164.902
-490.653
-92.9023
-529.889
322.884
343.458
-67.4941
384.862
316.026
448.437
213.915
175.812
168.071
-13.111
-442.072
-82.3681
-385.489
-140.128
44.4848
8.71099
-272.943
-385.774
284.888
617.034
554.18
504.908
161.167
276.327
265.758
134.779
42.7335
135.49
-50.9956
99.019
101.498
-382.579
313.798
78.6205
-101.528
-282.837
21.1536
155.06
152.048
9.69006
-280.19
487.373
227.456
32.8101
548.256
-40.8909
-405.598
246.025
99.8883
103.303
103.551
17.216
-509.743
98.8613
95.8238
-349.306
467.61
68.803
-730.91
43.3246
143.49
161.921
15.6494
-372.811
-23.8375
-9.71829
-183.373
116.133
-429.556
128.545
112.464
-206.698
539.105
94.2894
-301.505
595.841
137.402
137.08
-287.324
112.591
-355.748
)
;
    }
}


// ************************************************************************* //
