/*--------------------------------*- C++ -*----------------------------------*\
| =========                 |                                                 |
| \\      /  F ield         | OpenFOAM: The Open Source CFD Toolbox           |
|  \\    /   O peration     | Version:  v1906                                 |
|   \\  /    A nd           | Web:      www.OpenFOAM.com                      |
|    \\/     M anipulation  |                                                 |
\*---------------------------------------------------------------------------*/
FoamFile
{
    version     2.0;
    format      ascii;
    class       volVectorField;
    location    "45";
    object      U;
}
// * * * * * * * * * * * * * * * * * * * * * * * * * * * * * * * * * * * * * //

dimensions      [0 1 -1 0 0 0 0];


internalField   nonuniform List<vector> 
78750
(
(-3.02665e-06 -9.09017e-05 9.61806e-05)
(-1.18438e-05 -0.000113031 0.000166356)
(-3.27573e-05 -0.000103728 0.00020442)
(-6.20907e-05 -8.13018e-05 0.000233461)
(-9.83585e-05 -5.25597e-05 0.000255915)
(-0.000140145 -2.13089e-05 0.000273502)
(-0.000185988 9.55647e-06 0.00028704)
(-0.000234252 3.83621e-05 0.000296914)
(-0.00028346 6.37387e-05 0.000303016)
(-0.000332229 8.51591e-05 0.000305123)
(-0.000379326 0.000102142 0.00030281)
(-0.000423646 0.00011477 0.000295739)
(-0.000464227 0.000123014 0.000283603)
(-0.000500265 0.000127194 0.000266286)
(-0.000531051 0.000127506 0.000243863)
(-0.000556092 0.000124407 0.000216584)
(-0.000574919 0.000118262 0.000185074)
(-0.000587146 0.000109651 0.000150352)
(-0.000592801 9.86645e-05 0.000112272)
(-0.000591679 8.58944e-05 7.23631e-05)
(-0.000583824 7.16486e-05 3.17266e-05)
(-0.000569395 5.63013e-05 -8.50646e-06)
(-0.000548596 4.01367e-05 -4.71586e-05)
(-0.000521734 2.34961e-05 -8.30621e-05)
(-0.000489171 6.67344e-06 -0.000115074)
(-0.00045136 -9.96825e-06 -0.0001421)
(-0.000408794 -2.60531e-05 -0.000163118)
(-0.000362064 -4.11069e-05 -0.000177175)
(-0.000311856 -5.45597e-05 -0.000183432)
(-0.000258936 -6.56684e-05 -0.000181251)
(-0.000203969 -7.34821e-05 -0.000170215)
(-0.000147462 -7.67199e-05 -0.000150337)
(-9.12614e-05 -7.36212e-05 -0.000122099)
(-4.6007e-05 -6.20241e-05 -8.71152e-05)
(-1.39758e-05 -3.3635e-05 -3.41655e-05)
(-1.16833e-05 0.000245484 -0.000323544)
(-4.59023e-05 0.000491168 -0.000441709)
(-8.69727e-05 0.000613661 -0.000477424)
(-0.000144611 0.000705608 -0.000510868)
(-0.000204514 0.000770356 -0.000539051)
(-0.000263105 0.000810717 -0.000559876)
(-0.000318781 0.00083117 -0.00057439)
(-0.00037051 0.000833826 -0.000584717)
(-0.000417027 0.000822609 -0.00059141)
(-0.000457681 0.000799009 -0.000595709)
(-0.000492119 0.000766047 -0.000597858)
(-0.000520068 0.00072498 -0.000598713)
(-0.000541456 0.000678426 -0.000598391)
(-0.000556404 0.000627264 -0.000597511)
(-0.000565038 0.000573671 -0.000595917)
(-0.000567823 0.000517949 -0.000594258)
(-0.000564981 0.000461685 -0.000592447)
(-0.000556878 0.000405375 -0.000590685)
(-0.000543937 0.000350183 -0.000588802)
(-0.000526568 0.000296368 -0.000586915)
(-0.000505208 0.000244698 -0.000584896)
(-0.000480277 0.000195281 -0.000582708)
(-0.000452199 0.000148605 -0.000580063)
(-0.000421382 0.000104696 -0.000576835)
(-0.000388225 6.38573e-05 -0.000572679)
(-0.000353108 2.61043e-05 -0.000567266)
(-0.000316406 -8.35199e-06 -0.000560016)
(-0.000278485 -3.94488e-05 -0.00055018)
(-0.000239723 -6.69776e-05 -0.000536579)
(-0.000200492 -9.07442e-05 -0.000517547)
(-0.000160959 -0.000110344 -0.00049075)
(-0.000120782 -0.000124996 -0.000451706)
(-8.02956e-05 -0.000132811 -0.000389459)
(-4.83266e-05 -0.000128786 -0.000290077)
(-2.47297e-05 -7.97849e-05 -9.1427e-05)
(-9.96615e-06 0.000505333 -0.000150078)
(-3.18108e-05 0.000878416 -0.000229849)
(-5.27345e-05 0.00103771 -0.000262562)
(-8.21088e-05 0.00114485 -0.000286012)
(-0.000111353 0.00120973 -0.000304819)
(-0.000138992 0.00124255 -0.000320544)
(-0.000164561 0.00124867 -0.000334925)
(-0.000187753 0.00123472 -0.000348127)
(-0.000208132 0.00120389 -0.000360962)
(-0.00022543 0.00116084 -0.000372976)
(-0.000239544 0.00110761 -0.000384597)
(-0.000250429 0.00104765 -0.000395204)
(-0.00025817 0.00098232 -0.000405091)
(-0.000262826 0.000914251 -0.000413629)
(-0.000264671 0.00084423 -0.000421202)
(-0.000263766 0.000774273 -0.000427411)
(-0.000260442 0.00070479 -0.000432519)
(-0.00025493 0.000637033 -0.000436203)
(-0.000247439 0.000571174 -0.000438747)
(-0.000238257 0.000508282 -0.000439827)
(-0.00022758 0.000448367 -0.000439709)
(-0.000215607 0.000391928 -0.0004383)
(-0.00020255 0.000338881 -0.000435801)
(-0.000188565 0.000289512 -0.000432107)
(-0.000173811 0.000243719 -0.000427295)
(-0.000158427 0.000201642 -0.000421177)
(-0.000142562 0.000163223 -0.000413592)
(-0.000126302 0.00012861 -0.000404029)
(-0.000109787 9.77869e-05 -0.000391847)
(-9.31127e-05 7.08709e-05 -0.000375892)
(-7.6312e-05 4.79953e-05 -0.000354346)
(-5.91157e-05 2.94805e-05 -0.000323743)
(-4.13196e-05 1.56215e-05 -0.000277899)
(-2.5925e-05 7.22186e-06 -0.000209908)
(-1.53295e-05 5.28437e-06 -6.19788e-05)
(-1.31418e-05 0.000617615 0.000150473)
(-2.779e-05 0.00102035 0.000144397)
(-3.67753e-05 0.00119478 0.00011687)
(-4.87939e-05 0.0013122 9.23418e-05)
(-5.92231e-05 0.00138528 7.32179e-05)
(-6.83574e-05 0.00142262 5.41949e-05)
(-7.64334e-05 0.0014323 3.37678e-05)
(-8.35531e-05 0.00141927 1.09686e-05)
(-8.95825e-05 0.00138918 -1.34162e-05)
(-9.44796e-05 0.00134509 -3.95814e-05)
(-9.81619e-05 0.00129121 -6.64813e-05)
(-0.000100654 0.00122953 -9.40665e-05)
(-0.000101931 0.0011632 -0.000121237)
(-0.000102123 0.0010934 -0.000148021)
(-0.00010137 0.00102248 -0.000173472)
(-9.96327e-05 0.000951452 -0.000197019)
(-9.71189e-05 0.000881841 -0.000218201)
(-9.40224e-05 0.000813888 -0.000237318)
(-9.04208e-05 0.000748582 -0.000254081)
(-8.64599e-05 0.000685973 -0.000268734)
(-8.22162e-05 0.000626687 -0.000281097)
(-7.78339e-05 0.000570654 -0.000291381)
(-7.33288e-05 0.000518007 -0.000299594)
(-6.88129e-05 0.000468594 -0.000305914)
(-6.43012e-05 0.000422542 -0.000310273)
(-5.98824e-05 0.000379766 -0.000312716)
(-5.55453e-05 0.000340231 -0.000313126)
(-5.12942e-05 0.000303594 -0.000311515)
(-4.70417e-05 0.00026971 -0.000307547)
(-4.26997e-05 0.000238236 -0.000300833)
(-3.8047e-05 0.000208819 -0.000290676)
(-3.25873e-05 0.000180935 -0.000276875)
(-2.54536e-05 0.000153884 -0.000259336)
(-1.76023e-05 0.000127024 -0.00023196)
(-1.1854e-05 8.15959e-05 -0.000130578)
(-1.4321e-05 0.000602986 0.000294408)
(-2.39183e-05 0.000948775 0.000325094)
(-2.53126e-05 0.00110128 0.000299554)
(-2.53125e-05 0.00120765 0.000275485)
(-2.22117e-05 0.00127707 0.000257809)
(-1.74841e-05 0.00131757 0.000240927)
(-1.18832e-05 0.0013343 0.000221715)
(-5.96975e-06 0.00133265 0.000200122)
(5.62795e-08 0.00131574 0.000175948)
(5.92898e-06 0.00128749 0.000149892)
(1.15476e-05 0.00125002 0.00012211)
(1.67427e-05 0.00120634 9.35887e-05)
(2.14344e-05 0.0011579 6.47468e-05)
(2.55272e-05 0.00110695 3.65456e-05)
(2.90119e-05 0.00105441 9.29116e-06)
(3.16757e-05 0.00100178 -1.67545e-05)
(3.36675e-05 0.000949477 -4.12849e-05)
(3.49542e-05 0.000898527 -6.38947e-05)
(3.55155e-05 0.000849049 -8.46233e-05)
(3.53755e-05 0.000801689 -0.000103243)
(3.45136e-05 0.000756385 -0.000119866)
(3.297e-05 0.000713511 -0.000134372)
(3.07326e-05 0.00067288 -0.000146899)
(2.78359e-05 0.000634652 -0.000157401)
(2.42843e-05 0.000598534 -0.000166021)
(2.01565e-05 0.000564545 -0.0001727)
(1.5512e-05 0.00053226 -0.000177575)
(1.04996e-05 0.000501186 -0.000180794)
(5.27124e-06 0.00047055 -0.000182534)
(4.62492e-08 0.000439626 -0.000182773)
(-4.86326e-06 0.000407137 -0.000181838)
(-8.90918e-06 0.000371658 -0.000181434)
(-1.08925e-05 0.000330887 -0.000185326)
(-9.6873e-06 0.000282102 -0.000188246)
(-8.2219e-06 0.000182445 -0.000130461)
(-8.91115e-06 0.000542776 0.00030844)
(-1.16393e-05 0.000820088 0.000336695)
(-8.94461e-06 0.000945537 0.000309469)
(-3.16976e-06 0.00103588 0.000284905)
(5.30977e-06 0.00109931 0.000268312)
(1.51014e-05 0.00114056 0.000253573)
(2.54175e-05 0.00116468 0.000237765)
(3.57344e-05 0.00117448 0.000220399)
(4.56588e-05 0.00117337 0.000201593)
(5.48714e-05 0.00116312 0.000181428)
(6.31402e-05 0.00114622 0.000160257)
(7.02925e-05 0.00112381 0.000138315)
(7.62377e-05 0.00109777 0.000116062)
(8.09003e-05 0.00106881 9.37589e-05)
(8.4309e-05 0.00103827 7.18906e-05)
(8.64926e-05 0.00100657 5.07069e-05)
(8.74392e-05 0.000974711 3.0451e-05)
(8.7197e-05 0.000942866 1.12482e-05)
(8.58447e-05 0.000911716 -6.63845e-06)
(8.33959e-05 0.000881281 -2.31675e-05)
(7.99369e-05 0.000851999 -3.81629e-05)
(7.54893e-05 0.000823715 -5.16648e-05)
(7.01461e-05 0.000796637 -6.35723e-05)
(6.39486e-05 0.000770451 -7.39895e-05)
(5.70062e-05 0.000745129 -8.28812e-05)
(4.93987e-05 0.000720146 -9.04201e-05)
(4.12885e-05 0.000695163 -9.66539e-05)
(3.28211e-05 0.000669315 -0.000101864)
(2.42294e-05 0.000641775 -0.00010618)
(1.57508e-05 0.000611093 -0.000109924)
(7.72189e-06 0.000575595 -0.000113561)
(6.48197e-07 0.000532776 -0.000119477)
(-4.31723e-06 0.000479398 -0.000132203)
(-5.65188e-06 0.000411059 -0.000147373)
(-5.76231e-06 0.00026423 -0.000114095)
(-3.86891e-06 0.000462465 0.000241913)
(-2.65498e-06 0.000697997 0.00025327)
(7.6149e-07 0.000806539 0.000227061)
(6.92318e-06 0.000887839 0.000204683)
(1.46509e-05 0.000947855 0.000190029)
(2.30323e-05 0.000991288 0.000178011)
(3.16276e-05 0.00102137 0.000166124)
(4.01074e-05 0.00104112 0.000153877)
(4.82181e-05 0.00105234 0.000141099)
(5.57216e-05 0.00105707 0.00012783)
(6.24512e-05 0.00105633 0.000114041)
(6.82919e-05 0.00105161 9.99053e-05)
(7.31504e-05 0.0010435 8.55161e-05)
(7.69817e-05 0.00103309 7.11423e-05)
(7.97449e-05 0.00102073 5.68807e-05)
(8.14182e-05 0.00100724 4.30002e-05)
(8.20318e-05 0.000992769 2.96183e-05)
(8.15836e-05 0.000977949 1.69492e-05)
(8.00939e-05 0.000962777 5.03031e-06)
(7.76225e-05 0.000947677 -5.95705e-06)
(7.4195e-05 0.000932498 -1.6035e-05)
(6.9884e-05 0.000917476 -2.50788e-05)
(6.47347e-05 0.000902295 -3.31678e-05)
(5.88379e-05 0.000886974 -4.02336e-05)
(5.22725e-05 0.000870979 -4.64149e-05)
(4.5157e-05 0.00085404 -5.17018e-05)
(3.76134e-05 0.000835291 -5.63041e-05)
(2.98127e-05 0.000813998 -6.03037e-05)
(2.1953e-05 0.000788701 -6.39885e-05)
(1.42803e-05 0.000757872 -6.74834e-05)
(7.0839e-06 0.000718999 -7.13632e-05)
(8.06116e-07 0.000669151 -7.74485e-05)
(-3.61473e-06 0.0006039 -8.96036e-05)
(-4.94947e-06 0.000517763 -0.000104233)
(-4.78519e-06 0.000328764 -8.2276e-05)
(-1.70398e-06 0.000402762 0.00016423)
(-1.57013e-07 0.000624475 0.000165336)
(1.73086e-06 0.00072791 0.000145539)
(5.19623e-06 0.000806726 0.000128839)
(9.36872e-06 0.00086691 0.000117646)
(1.38692e-05 0.000912397 0.000108491)
(1.84827e-05 0.000946727 9.97975e-05)
(2.31014e-05 0.000972071 9.10984e-05)
(2.75853e-05 0.000990611 8.23713e-05)
(3.18232e-05 0.00100353 7.34921e-05)
(3.57139e-05 0.00101227 6.45465e-05)
(3.91774e-05 0.00101746 5.55037e-05)
(4.21515e-05 0.0010201 4.65352e-05)
(4.45658e-05 0.00102051 3.76508e-05)
(4.63707e-05 0.00101941 2.90676e-05)
(4.75879e-05 0.00101691 2.07898e-05)
(4.81104e-05 0.00101357 1.29679e-05)
(4.79816e-05 0.00100934 5.62726e-06)
(4.72003e-05 0.00100461 -1.0734e-06)
(4.57545e-05 0.000999193 -7.19828e-06)
(4.36796e-05 0.000993329 -1.26228e-05)
(4.09929e-05 0.000986694 -1.7454e-05)
(3.77437e-05 0.000979352 -2.16056e-05)
(3.39782e-05 0.00097078 -2.52267e-05)
(2.97681e-05 0.000960792 -2.82682e-05)
(2.51896e-05 0.000948569 -3.09226e-05)
(2.035e-05 0.000933525 -3.31864e-05)
(1.53763e-05 0.000914339 -3.53085e-05)
(1.04222e-05 0.00088974 -3.73265e-05)
(5.67237e-06 0.000857528 -3.95e-05)
(1.33882e-06 0.000815212 -4.20371e-05)
(-2.24306e-06 0.00075903 -4.62908e-05)
(-4.45404e-06 0.000684278 -5.46145e-05)
(-4.71689e-06 0.000584358 -6.45336e-05)
(-3.83993e-06 0.000364375 -4.91037e-05)
(-1.34648e-06 0.000364866 0.000108384)
(-8.00693e-07 0.000585066 0.000110492)
(-5.5332e-07 0.000687809 0.000100135)
(2.73523e-07 0.000766821 9.09687e-05)
(1.4645e-06 0.000827647 8.43646e-05)
(2.87289e-06 0.000874808 7.86922e-05)
(4.42403e-06 0.000911311 7.30831e-05)
(6.08427e-06 0.000939817 6.74696e-05)
(7.798e-06 0.000961926 6.17631e-05)
(9.51836e-06 0.000979273 5.60747e-05)
(1.11881e-05 0.000992685 5.03493e-05)
(1.27704e-05 0.00100323 4.47485e-05)
(1.4215e-05 0.00101128 3.92441e-05)
(1.54863e-05 0.00101758 3.40147e-05)
(1.65427e-05 0.00102226 2.90331e-05)
(1.73347e-05 0.00102586 2.44428e-05)
(1.78604e-05 0.00102833 2.01972e-05)
(1.80925e-05 0.00103005 1.64508e-05)
(1.8011e-05 0.00103082 1.31098e-05)
(1.76225e-05 0.0010309 1.02849e-05)
(1.68983e-05 0.00102996 7.89962e-06)
(1.58591e-05 0.00102811 6.03273e-06)
(1.45097e-05 0.00102483 4.51732e-06)
(1.28794e-05 0.00102004 3.4087e-06)
(1.10043e-05 0.00101299 2.51107e-06)
(8.92946e-06 0.00100326 1.85245e-06)
(6.71724e-06 0.0009897 1.20496e-06)
(4.44543e-06 0.000971356 5.6218e-07)
(2.2083e-06 0.000946361 -3.31565e-07)
(1.09612e-07 0.000912824 -1.49272e-06)
(-1.72158e-06 0.000867605 -3.28347e-06)
(-3.10719e-06 0.000807134 -6.38877e-06)
(-3.70784e-06 0.000725973 -1.24568e-05)
(-3.33975e-06 0.000617493 -1.99401e-05)
(-2.36717e-06 0.000378651 -1.44854e-05)
(-2.02096e-06 0.000343061 7.60414e-05)
(-2.78357e-06 0.000563628 8.64061e-05)
(-3.99965e-06 0.000666447 8.58251e-05)
(-5.2608e-06 0.00074533 8.39454e-05)
(-6.22174e-06 0.000806287 8.19735e-05)
(-6.91569e-06 0.000853545 7.95333e-05)
(-7.38965e-06 0.000890576 7.66436e-05)
(-7.6396e-06 0.000919635 7.33233e-05)
(-7.68131e-06 0.000942779 6.97939e-05)
(-7.52543e-06 0.000961181 6.60687e-05)
(-7.19707e-06 0.00097612 6.23447e-05)
(-6.7144e-06 0.000988162 5.86178e-05)
(-6.11427e-06 0.000998147 5.50773e-05)
(-5.42403e-06 0.00100629 5.17008e-05)
(-4.66666e-06 0.00101317 4.86574e-05)
(-3.89278e-06 0.00101877 4.5936e-05)
(-3.12853e-06 0.00102349 4.36851e-05)
(-2.40067e-06 0.00102717 4.18325e-05)
(-1.74627e-06 0.0010301 4.05049e-05)
(-1.19514e-06 0.00103201 3.95648e-05)
(-7.46208e-07 0.00103305 3.90436e-05)
(-4.22537e-07 0.00103278 3.88029e-05)
(-2.32112e-07 0.00103116 3.8898e-05)
(-1.6805e-07 0.00102754 3.91474e-05)
(-2.25218e-07 0.00102165 3.95723e-05)
(-3.86682e-07 0.00101253 3.99587e-05)
(-6.28409e-07 0.000999504 4.0295e-05)
(-9.16539e-07 0.000981077 4.03316e-05)
(-1.21805e-06 0.000955863 4.00186e-05)
(-1.48893e-06 0.000921443 3.90717e-05)
(-1.68567e-06 0.000875157 3.73284e-05)
(-1.75472e-06 0.000812933 3.40616e-05)
(-1.60695e-06 0.000729795 2.82401e-05)
(-1.18912e-06 0.000618685 2.0141e-05)
(-6.33116e-07 0.00037508 1.34492e-05)
(-2.72694e-06 0.000328309 5.83706e-05)
(-4.4138e-06 0.000545519 7.78901e-05)
(-6.50167e-06 0.000646396 8.48225e-05)
(-8.92727e-06 0.000723742 8.85068e-05)
(-1.09875e-05 0.000783215 9.00107e-05)
(-1.27056e-05 0.000829378 9.00646e-05)
(-1.41144e-05 0.000865295 8.90266e-05)
(-1.52335e-05 0.000893614 8.72891e-05)
(-1.60403e-05 0.000915964 8.50152e-05)
(-1.65466e-05 0.000933936 8.24764e-05)
(-1.67476e-05 0.000948364 7.9751e-05)
(-1.66728e-05 0.00096025 7.70564e-05)
(-1.63278e-05 0.000969973 7.44272e-05)
(-1.57505e-05 0.0009782 7.2046e-05)
(-1.49596e-05 0.000985037 6.9912e-05)
(-1.39983e-05 0.00099094 6.81733e-05)
(-1.28985e-05 0.000995832 6.67891e-05)
(-1.17032e-05 0.00100002 6.58652e-05)
(-1.04433e-05 0.00100329 6.53161e-05)
(-9.16817e-06 0.00100578 6.52436e-05)
(-7.89845e-06 0.00100711 6.55265e-05)
(-6.66708e-06 0.00100733 6.61902e-05)
(-5.49764e-06 0.00100591 6.70725e-05)
(-4.40713e-06 0.00100269 6.81689e-05)
(-3.40426e-06 0.000996895 6.92825e-05)
(-2.50163e-06 0.000988069 7.03771e-05)
(-1.69721e-06 0.000975045 7.12198e-05)
(-9.9177e-07 0.000956853 7.1731e-05)
(-3.83614e-07 0.000931657 7.16238e-05)
(1.30552e-07 0.000897592 7.07475e-05)
(5.3889e-07 0.000851628 6.86746e-05)
(8.06658e-07 0.000790291 6.48657e-05)
(8.88542e-07 0.000708399 5.81643e-05)
(8.91235e-07 0.000599567 4.82014e-05)
(8.18211e-07 0.000361515 3.08484e-05)
(-2.92285e-06 0.000316842 4.40321e-05)
(-4.96593e-06 0.000526986 6.79296e-05)
(-7.40323e-06 0.000624455 7.86582e-05)
(-1.02568e-05 0.000698853 8.50992e-05)
(-1.27407e-05 0.000756001 8.83831e-05)
(-1.48279e-05 0.000799983 8.95882e-05)
(-1.65843e-05 0.000834138 8.94428e-05)
(-1.79923e-05 0.000860682 8.83126e-05)
(-1.90501e-05 0.000881587 8.65571e-05)
(-1.97317e-05 0.000898035 8.43593e-05)
(-2.0057e-05 0.00091124 8.19771e-05)
(-2.00161e-05 0.0009218 7.95174e-05)
(-1.96427e-05 0.000930498 7.71824e-05)
(-1.89467e-05 0.00093759 7.50314e-05)
(-1.7974e-05 0.000943597 7.32242e-05)
(-1.67496e-05 0.000948557 7.17773e-05)
(-1.53295e-05 0.000952815 7.08067e-05)
(-1.37453e-05 0.000956248 7.02833e-05)
(-1.20548e-05 0.000959063 7.02756e-05)
(-1.02978e-05 0.000960994 7.07069e-05)
(-8.5269e-06 0.00096211 7.1598e-05)
(-6.78052e-06 0.000961997 7.28251e-05)
(-5.10269e-06 0.000960562 7.43648e-05)
(-3.52265e-06 0.0009572 7.60515e-05)
(-2.07233e-06 0.000951587 7.78219e-05)
(-7.69579e-07 0.000942833 7.9472e-05)
(3.70852e-07 0.000930248 8.08956e-05)
(1.33328e-06 0.000912468 8.18398e-05)
(2.10539e-06 0.000888175 8.21315e-05)
(2.67455e-06 0.000855178 8.14344e-05)
(3.01902e-06 0.00081104 7.9411e-05)
(3.06004e-06 0.000752091 7.5361e-05)
(2.72493e-06 0.00067387 6.82369e-05)
(2.21125e-06 0.000570025 5.71673e-05)
(1.62491e-06 0.000343665 3.45312e-05)
(-2.44641e-06 0.000308448 2.70376e-05)
(-4.36442e-06 0.00051122 4.84624e-05)
(-6.70452e-06 0.000604999 5.89725e-05)
(-9.50978e-06 0.00067646 6.54192e-05)
(-1.19991e-05 0.000730987 6.85806e-05)
(-1.41459e-05 0.000772785 6.96684e-05)
(-1.59525e-05 0.000804807 6.93338e-05)
(-1.74174e-05 0.000829514 6.80348e-05)
(-1.84912e-05 0.000848525 6.60336e-05)
(-1.9173e-05 0.000863329 6.36223e-05)
(-1.94391e-05 0.000874804 6.09749e-05)
(-1.93097e-05 0.00088389 5.83136e-05)
(-1.87895e-05 0.000891034 5.5759e-05)
(-1.79173e-05 0.000896855 5.34862e-05)
(-1.67173e-05 0.000901535 5.15713e-05)
(-1.52496e-05 0.000905478 5.01431e-05)
(-1.35524e-05 0.000908683 4.92287e-05)
(-1.1695e-05 0.000911394 4.89044e-05)
(-9.72852e-06 0.00091346 4.9143e-05)
(-7.72179e-06 0.000914982 4.99648e-05)
(-5.72679e-06 0.000915663 5.12874e-05)
(-3.80389e-06 0.000915454 5.30774e-05)
(-2.00124e-06 0.000913891 5.5202e-05)
(-3.61881e-07 0.000910738 5.758e-05)
(1.0798e-06 0.000905307 6.00354e-05)
(2.29653e-06 0.000897089 6.24458e-05)
(3.26833e-06 0.00088505 6.45944e-05)
(3.9843e-06 0.000868232 6.63122e-05)
(4.4342e-06 0.000845023 6.73248e-05)
(4.62446e-06 0.000813684 6.73885e-05)
(4.53556e-06 0.000771576 6.60889e-05)
(4.12057e-06 0.000715559 6.28644e-05)
(3.325e-06 0.000641149 5.66813e-05)
(2.44933e-06 0.000542652 4.68044e-05)
(1.63682e-06 0.000328014 2.59858e-05)
(-1.51983e-06 0.000305407 6.67947e-06)
(-3.03939e-06 0.000504086 1.97464e-05)
(-5.04915e-06 0.000595822 2.70041e-05)
(-7.55179e-06 0.000665356 3.12749e-05)
(-9.90613e-06 0.000718182 3.28992e-05)
(-1.19966e-05 0.000758202 3.27841e-05)
(-1.38136e-05 0.000788576 3.14942e-05)
(-1.52878e-05 0.000811496 2.93462e-05)
(-1.63875e-05 0.000828842 2.66178e-05)
(-1.70651e-05 0.000841853 2.35312e-05)
(-1.73209e-05 0.000851697 2.03287e-05)
(-1.71399e-05 0.000859067 1.71143e-05)
(-1.65475e-05 0.000864716 1.40888e-05)
(-1.55634e-05 0.000869008 1.13924e-05)
(-1.4239e-05 0.000872435 9.17552e-06)
(-1.26208e-05 0.00087514 7.5245e-06)
(-1.07796e-05 0.000877426 6.53493e-06)
(-8.77585e-06 0.000879264 6.23251e-06)
(-6.69031e-06 0.000880799 6.65113e-06)
(-4.59098e-06 0.000881847 7.75257e-06)
(-2.5522e-06 0.000882397 9.50739e-06)
(-6.37603e-07 0.000882106 1.18169e-05)
(1.09036e-06 0.000880789 1.45939e-05)
(2.58257e-06 0.00087791 1.76891e-05)
(3.80544e-06 0.00087306 2.09689e-05)
(4.72273e-06 0.000865433 2.42454e-05)
(5.32733e-06 0.000854283 2.73503e-05)
(5.61156e-06 0.000838377 3.00644e-05)
(5.59206e-06 0.000816408 3.21849e-05)
(5.28168e-06 0.000786408 3.34589e-05)
(4.71439e-06 0.000746082 3.36035e-05)
(3.87913e-06 0.000692139 3.21597e-05)
(2.81348e-06 0.000620517 2.84064e-05)
(1.82129e-06 0.000525518 2.19704e-05)
(1.05782e-06 0.000318598 9.05746e-06)
(-4.82485e-07 0.000309632 -1.35251e-05)
(-1.58792e-06 0.00050979 -1.13176e-05)
(-3.18138e-06 0.000601915 -8.67138e-06)
(-5.34664e-06 0.000671478 -7.48964e-06)
(-7.53441e-06 0.000723863 -8.03781e-06)
(-9.58811e-06 0.000763215 -9.77572e-06)
(-1.14129e-05 0.000792562 -1.2394e-05)
(-1.29387e-05 0.000814353 -1.56845e-05)
(-1.40821e-05 0.000830326 -1.9485e-05)
(-1.4804e-05 0.000841967 -2.35853e-05)
(-1.50699e-05 0.000850272 -2.77905e-05)
(-1.48823e-05 0.0008562 -3.1839e-05)
(-1.42519e-05 0.000860343 -3.55775e-05)
(-1.32168e-05 0.000863327 -3.88491e-05)
(-1.18202e-05 0.000865468 -4.15254e-05)
(-1.01312e-05 0.000867162 -4.34902e-05)
(-8.2146e-06 0.00086852 -4.46678e-05)
(-6.15301e-06 0.000869751 -4.5002e-05)
(-4.03038e-06 0.00087079 -4.44841e-05)
(-1.92915e-06 0.000871674 -4.3127e-05)
(6.99067e-08 0.000872168 -4.09921e-05)
(1.88972e-06 0.000872131 -3.81598e-05)
(3.46509e-06 0.000871142 -3.47534e-05)
(4.74535e-06 0.000868855 -3.09085e-05)
(5.68564e-06 0.000864615 -2.67936e-05)
(6.26511e-06 0.000857797 -2.25798e-05)
(6.47379e-06 0.00084741 -1.84592e-05)
(6.32786e-06 0.000832398 -1.46149e-05)
(5.85065e-06 0.000811218 -1.12393e-05)
(5.0962e-06 0.00078208 -8.49824e-06)
(4.11592e-06 0.000742477 -6.58043e-06)
(2.98175e-06 0.000689301 -5.71994e-06)
(1.79329e-06 0.000618314 -6.29513e-06)
(8.68862e-07 0.000524013 -8.12267e-06)
(2.45705e-07 0.00031825 -1.02717e-05)
(3.70518e-07 0.000321728 -2.99399e-05)
(-4.23047e-07 0.000528874 -3.78389e-05)
(-1.63738e-06 0.000623999 -3.96675e-05)
(-3.471e-06 0.00069541 -4.15543e-05)
(-5.48494e-06 0.000748822 -4.42498e-05)
(-7.45092e-06 0.000788441 -4.75962e-05)
(-9.25484e-06 0.000817575 -5.14813e-05)
(-1.07763e-05 0.000838653 -5.58056e-05)
(-1.19422e-05 0.000853659 -6.0443e-05)
(-1.26829e-05 0.00086405 -6.52509e-05)
(-1.29734e-05 0.000871086 -7.00705e-05)
(-1.27998e-05 0.000875644 -7.4716e-05)
(-1.21814e-05 0.000878528 -7.89987e-05)
(-1.11454e-05 0.000880263 -8.2748e-05)
(-9.74745e-06 0.000881363 -8.58124e-05)
(-8.05374e-06 0.000882104 -8.80683e-05)
(-6.14134e-06 0.000882781 -8.94238e-05)
(-4.0941e-06 0.000883465 -8.98226e-05)
(-2.00377e-06 0.000884254 -8.92465e-05)
(3.83498e-08 0.00088503 -8.77151e-05)
(1.94439e-06 0.000885702 -8.52864e-05)
(3.63546e-06 0.000885954 -8.20526e-05)
(5.04523e-06 0.00088549 -7.81391e-05)
(6.11133e-06 0.000883774 -7.36949e-05)
(6.7992e-06 0.000880257 -6.88913e-05)
(7.08579e-06 0.000874113 -6.39088e-05)
(6.97471e-06 0.000864439 -5.89332e-05)
(6.48143e-06 0.000849967 -5.41383e-05)
(5.66186e-06 0.000829222 -4.96804e-05)
(4.5727e-06 0.000800188 -4.56679e-05)
(3.31693e-06 0.000760393 -4.21783e-05)
(1.9931e-06 0.000706487 -3.9258e-05)
(7.87979e-07 0.000634203 -3.69428e-05)
(9.29061e-10 0.00053776 -3.45466e-05)
(-4.8193e-07 0.000326971 -2.67804e-05)
(8.48338e-07 0.000340049 -3.96637e-05)
(1.92948e-07 0.000557959 -5.42193e-05)
(-7.33286e-07 0.000657784 -5.9105e-05)
(-2.33106e-06 0.000732427 -6.31124e-05)
(-4.17569e-06 0.000787844 -6.7298e-05)
(-6.03756e-06 0.000828603 -7.17736e-05)
(-7.76162e-06 0.000858124 -7.6574e-05)
(-9.23482e-06 0.000879111 -8.16877e-05)
(-1.03614e-05 0.000893593 -8.70386e-05)
(-1.10862e-05 0.000903237 -9.24954e-05)
(-1.13623e-05 0.000909288 -9.78883e-05)
(-1.11839e-05 0.000912817 -0.000103038)
(-1.05586e-05 0.000914604 -0.000107758)
(-9.52375e-06 0.000915342 -0.000111878)
(-8.12919e-06 0.0009155 -0.000115239)
(-6.44365e-06 0.000915499 -0.000117718)
(-4.54514e-06 0.000915565 -0.000119215)
(-2.52726e-06 0.000915891 -0.000119677)
(-4.82298e-07 0.000916484 -0.000119078)
(1.50037e-06 0.000917325 -0.000117445)
(3.32607e-06 0.000918207 -0.00011483)
(4.91475e-06 0.000918892 -0.000111336)
(6.19311e-06 0.000918946 -0.000107087)
(7.10781e-06 0.000917887 -0.000102241)
(7.61655e-06 0.00091501 -9.69689e-05)
(7.70766e-06 0.000909519 -9.14588e-05)
(7.38173e-06 0.000900335 -8.58885e-05)
(6.67213e-06 0.000886192 -8.04273e-05)
(5.62859e-06 0.000865414 -7.52027e-05)
(4.3414e-06 0.000835948 -7.02877e-05)
(2.9071e-06 0.000795075 -6.56813e-05)
(1.47604e-06 0.000739347 -6.13084e-05)
(2.51658e-07 0.000664169 -5.69736e-05)
(-4.30964e-07 0.000563547 -5.1677e-05)
(-9.03824e-07 0.000343175 -3.72123e-05)
(9.49539e-07 0.000362097 -4.2499e-05)
(2.64178e-07 0.0005922 -5.93828e-05)
(-5.51406e-07 0.00069745 -6.54524e-05)
(-2.04126e-06 0.000775854 -7.03144e-05)
(-3.79444e-06 0.000833772 -7.51172e-05)
(-5.56595e-06 0.000876016 -8.00699e-05)
(-7.21034e-06 0.000906289 -8.52713e-05)
(-8.60691e-06 0.000927421 -9.07311e-05)
(-9.6677e-06 0.000941649 -9.63963e-05)
(-1.0326e-05 0.000950705 -0.000102135)
(-1.05477e-05 0.000956006 -0.000107789)
(-1.03168e-05 0.000958648 -0.000113171)
(-9.64888e-06 0.000959554 -0.000118099)
(-8.57648e-06 0.000959419 -0.000122394)
(-7.15655e-06 0.000958829 -0.000125904)
(-5.45248e-06 0.000958186 -0.000128495)
(-3.54888e-06 0.000957808 -0.000130075)
(-1.53436e-06 0.000957848 -0.00013058)
(4.99221e-07 0.000958382 -0.000129993)
(2.4552e-06 0.000959325 -0.000128331)
(4.24528e-06 0.000960518 -0.000125659)
(5.78666e-06 0.000961633 -0.000122066)
(7.00962e-06 0.00096226 -0.000117689)
(7.85533e-06 0.000961806 -0.00011268)
(8.29118e-06 0.000959566 -0.000107218)
(8.2969e-06 0.000954612 -0.000101484)
(7.88286e-06 0.000945837 -9.56657e-05)
(7.07858e-06 0.000931817 -8.99199e-05)
(5.94754e-06 0.000910811 -8.4377e-05)
(4.56865e-06 0.000880573 -7.90872e-05)
(3.05811e-06 0.00083826 -7.40338e-05)
(1.55327e-06 0.000780159 -6.90917e-05)
(2.83108e-07 0.00070144 -6.3998e-05)
(-3.89256e-07 0.000595726 -5.76443e-05)
(-9.69768e-07 0.000363879 -4.07961e-05)
(7.58367e-07 0.000384992 -3.96708e-05)
(-6.00695e-08 0.000626743 -5.49713e-05)
(-8.91621e-07 0.000737178 -6.04848e-05)
(-2.38713e-06 0.000819231 -6.50239e-05)
(-4.09923e-06 0.000879575 -6.96209e-05)
(-5.80516e-06 0.000923323 -7.44482e-05)
(-7.36112e-06 0.000954359 -7.95677e-05)
(-8.66844e-06 0.000975717 -8.49793e-05)
(-9.63309e-06 0.000989746 -9.06094e-05)
(-1.01993e-05 0.00099833 -9.63288e-05)
(-1.03323e-05 0.00100295 -0.000101966)
(-1.00214e-05 0.00100484 -0.000107339)
(-9.28009e-06 0.00100494 -0.000112258)
(-8.14626e-06 0.00100406 -0.000116553)
(-6.67057e-06 0.00100279 -0.000120062)
(-4.9235e-06 0.00100162 -0.000122662)
(-2.9827e-06 0.00100086 -0.000124252)
(-9.38115e-07 0.00100071 -0.000124777)
(1.11705e-06 0.00100123 -0.000124213)
(3.09016e-06 0.00100235 -0.000122583)
(4.89165e-06 0.00100388 -0.000119943)
(6.44426e-06 0.00100548 -0.000116392)
(7.67283e-06 0.00100668 -0.000112055)
(8.5254e-06 0.00100687 -0.000107091)
(8.96223e-06 0.00100525 -0.000101672)
(8.97007e-06 0.00100085 -9.59878e-05)
(8.55502e-06 0.000992445 -9.02186e-05)
(7.74888e-06 0.000978554 -8.45357e-05)
(6.60484e-06 0.000957282 -7.90672e-05)
(5.20969e-06 0.000926275 -7.38846e-05)
(3.66229e-06 0.000882494 -6.89832e-05)
(2.10053e-06 0.000822046 -6.42831e-05)
(7.34593e-07 0.000739812 -5.95767e-05)
(-1.20038e-08 0.000629107 -5.38582e-05)
(-7.70281e-07 0.000386011 -3.8538e-05)
(3.93504e-07 0.000406214 -3.3196e-05)
(-6.09923e-07 0.000657621 -4.41505e-05)
(-1.56657e-06 0.00077236 -4.78645e-05)
(-3.14531e-06 0.000857414 -5.122e-05)
(-4.86539e-06 0.000919741 -5.50171e-05)
(-6.5243e-06 0.000964665 -5.92684e-05)
(-8.00702e-06 0.000996258 -6.3954e-05)
(-9.2178e-06 0.00101769 -6.90162e-05)
(-1.00797e-05 0.00103144 -7.43582e-05)
(-1.05391e-05 0.0010395 -7.98265e-05)
(-1.05646e-05 0.00104344 -8.5247e-05)
(-1.01549e-05 0.00104455 -9.04272e-05)
(-9.32234e-06 0.00104388 -9.51847e-05)
(-8.10168e-06 0.00104227 -9.93421e-05)
(-6.548e-06 0.00104037 -0.000102748)
(-4.73042e-06 0.0010387 -0.000105273)
(-2.72724e-06 0.00103761 -0.000106826)
(-6.24506e-07 0.0010373 -0.000107346)
(1.48451e-06 0.00103785 -0.000106817)
(3.51059e-06 0.00103918 -0.000105255)
(5.3656e-06 0.00104109 -0.000102719)
(6.96791e-06 0.00104321 -9.93014e-05)
(8.25163e-06 0.00104503 -9.51303e-05)
(9.15917e-06 0.0010459 -9.03565e-05)
(9.65456e-06 0.00104496 -8.51573e-05)
(9.72096e-06 0.00104117 -7.9715e-05)
(9.36279e-06 0.00103324 -7.42213e-05)
(8.60532e-06 0.00101958 -6.88498e-05)
(7.50117e-06 0.000998213 -6.37522e-05)
(6.1272e-06 0.000966649 -5.90241e-05)
(4.574e-06 0.000921714 -5.47188e-05)
(2.95284e-06 0.000859334 -5.08432e-05)
(1.45983e-06 0.00077418 -4.73582e-05)
(5.63238e-07 0.000659288 -4.34809e-05)
(-4.00504e-07 0.000406766 -3.24621e-05)
(-4.52373e-08 0.000424136 -2.52135e-05)
(-1.22399e-06 0.000682483 -3.05055e-05)
(-2.34337e-06 0.000800287 -3.18021e-05)
(-4.04326e-06 0.000887434 -3.35404e-05)
(-5.79363e-06 0.000951067 -3.62204e-05)
(-7.42432e-06 0.000996677 -3.9654e-05)
(-8.84054e-06 0.00102846 -4.37007e-05)
(-9.9625e-06 0.0010497 -4.82407e-05)
(-1.07249e-05 0.00106299 -5.31352e-05)
(-1.10781e-05 0.00107038 -5.82126e-05)
(-1.09992e-05 0.00107353 -6.32845e-05)
(-1.04858e-05 0.00107382 -6.81588e-05)
(-9.55315e-06 0.00107233 -7.26499e-05)
(-8.24029e-06 0.00106996 -7.65858e-05)
(-6.60264e-06 0.00106742 -7.98157e-05)
(-4.70613e-06 0.00106525 -8.22161e-05)
(-2.62723e-06 0.00106383 -8.36959e-05)
(-4.55176e-07 0.00106339 -8.41983e-05)
(1.72279e-06 0.001064 -8.37043e-05)
(3.81851e-06 0.00106558 -8.22326e-05)
(5.74205e-06 0.00106791 -7.98392e-05)
(7.41373e-06 0.0010706 -7.66148e-05)
(8.77095e-06 0.00107311 -7.26822e-05)
(9.75652e-06 0.00107474 -6.81921e-05)
(1.03329e-05 0.00107457 -6.33157e-05)
(1.0479e-05 0.00107152 -5.82388e-05)
(1.01973e-05 0.00106422 -5.31522e-05)
(9.51228e-06 0.00105101 -4.82436e-05)
(8.46702e-06 0.00102981 -4.36834e-05)
(7.12856e-06 0.000998059 -3.96084e-05)
(5.57455e-06 0.000952453 -3.6135e-05)
(3.89651e-06 0.000888798 -3.33927e-05)
(2.26226e-06 0.000801603 -3.15491e-05)
(1.18927e-06 0.00068372 -3.0114e-05)
(3.47834e-08 0.0004244 -2.47368e-05)
(-4.44279e-07 0.000438058 -1.76462e-05)
(-1.75938e-06 0.000700565 -1.73336e-05)
(-3.04114e-06 0.000820162 -1.62049e-05)
(-4.85703e-06 0.000908443 -1.62965e-05)
(-6.64329e-06 0.00097267 -1.78215e-05)
(-8.25559e-06 0.00101842 -2.03894e-05)
(-9.62047e-06 0.00104999 -2.37433e-05)
(-1.06738e-05 0.00107073 -2.77009e-05)
(-1.13508e-05 0.00108331 -3.20854e-05)
(-1.1616e-05 0.00108985 -3.67073e-05)
(-1.14446e-05 0.00109209 -4.13678e-05)
(-1.08392e-05 0.00109143 -4.58771e-05)
(-9.82337e-06 0.00108904 -5.00482e-05)
(-8.42979e-06 0.00108586 -5.37157e-05)
(-6.7136e-06 0.00108264 -5.67312e-05)
(-4.74361e-06 0.00107994 -5.89776e-05)
(-2.5957e-06 0.00107819 -6.03643e-05)
(-3.5543e-07 0.00107762 -6.0839e-05)
(1.89e-06 0.0010783 -6.03809e-05)