/*--------------------------------*- C++ -*----------------------------------*\
| =========                 |                                                 |
| \\      /  F ield         | OpenFOAM: The Open Source CFD Toolbox           |
|  \\    /   O peration     | Version:  v1906                                 |
|   \\  /    A nd           | Web:      www.OpenFOAM.com                      |
|    \\/     M anipulation  |                                                 |
\*---------------------------------------------------------------------------*/
FoamFile
{
    version     2.0;
    format      ascii;
    class       surfaceScalarField;
    location    "19.6/oil";
    object      phi;
}
// * * * * * * * * * * * * * * * * * * * * * * * * * * * * * * * * * * * * * //

dimensions      [1 0 -1 0 0 0 0];
oriented        oriented;


internalField   nonuniform List<scalar> 
80688
(
-2.6258e-06
-2.67108e-06
-2.6258e-06
-1.18727e-06
-7.43495e-07
-6.95035e-07
-3.26398e-07
-4.32611e-07
-4.28263e-07
-1.66163e-07
-7.99549e-08
-8.028e-08
-7.52768e-08
-4.54452e-08
-4.54411e-08
-3.40402e-08
-2.0821e-08
-2.04156e-08
-1.36789e-08
-1.04862e-08
-9.87501e-09
-3.2939e-09
-5.55588e-09
-4.82912e-09
2.02294e-09
-3.07287e-09
-2.24394e-09
4.49524e-09
-1.71083e-09
-7.61454e-10
5.18895e-09
-8.90588e-10
1.96904e-10
4.67728e-09
-3.53975e-10
8.65663e-10
3.31823e-09
7.25277e-12
1.3518e-09
1.38876e-09
2.47453e-10
1.68204e-09
-8.57468e-10
3.81528e-10
1.86471e-09
-3.1807e-09
4.19539e-10
1.90371e-09
-5.36e-09
3.71282e-10
1.80803e-09
-7.2042e-09
2.48032e-10
1.59617e-09
-8.56637e-09
6.56378e-11
1.29655e-09
-9.35335e-09
-1.55882e-10
9.42866e-10
-9.53064e-09
-3.96224e-10
5.73531e-10
-9.11655e-09
-6.42111e-10
2.2802e-10
-8.18059e-09
-8.74043e-10
-6.19064e-11
-6.83418e-09
-1.07472e-09
-2.71678e-10
-5.22841e-09
-1.22929e-09
-3.76473e-10
-3.54378e-09
-1.31586e-09
-3.68758e-10
-1.98476e-09
-1.30135e-09
-2.5766e-10
-7.67173e-10
-1.13709e-09
-8.04859e-11
-8.10778e-11
-7.54407e-10
6.83244e-11
-1.70451e-10
8.93808e-11
-7.08405e-07
-1.25428e-06
-7.08405e-07
-4.2852e-07
-4.5276e-07
-5.7062e-07
-3.13354e-07
-3.00409e-07
-2.47368e-07
-1.65913e-07
-1.2478e-07
-1.02616e-07
-8.57072e-08
-7.08914e-08
-5.47594e-08
-4.17582e-08
-3.85736e-08
-2.61963e-08
-1.66114e-08
-2.35261e-08
-1.21069e-08
-2.22138e-09
-1.54554e-08
-4.49053e-09
5.7691e-09
-1.09923e-08
-7.10054e-11
9.6132e-09
-8.30495e-09
2.75005e-09
1.05441e-08
-6.5625e-09
4.74106e-09
9.32233e-09
-5.36094e-09
6.22873e-09
6.50793e-09
-4.51662e-09
7.33829e-09
2.59684e-09
-3.9486e-09
8.10715e-09
-1.93371e-09
-3.62226e-09
8.53436e-09
-6.61721e-09
-3.51738e-09
8.62044e-09
-1.10163e-08
-3.61255e-09
8.38293e-09
-1.47522e-08
-3.87818e-09
7.86214e-09
-1.75332e-08
-4.2748e-09
7.12138e-09
-1.91713e-08
-4.75524e-09
6.23755e-09
-1.95936e-08
-5.26976e-09
5.29579e-09
-1.88407e-08
-5.76888e-09
4.3739e-09
-1.70529e-08
-6.20425e-09
3.54243e-09
-1.44543e-08
-6.52753e-09
2.85426e-09
-1.13378e-08
-6.6858e-09
2.34002e-09
-8.04492e-09
-6.61016e-09
2.00139e-09
-4.94228e-09
-6.20456e-09
1.80058e-09
-2.38747e-09
-5.33475e-09
1.64287e-09
-6.75368e-10
-3.81651e-09
1.35002e-09
-1.52982e-09
6.84004e-10
-4.43015e-07
-3.68246e-07
-4.43015e-07
-3.02694e-07
-3.37801e-07
-2.5528e-07
-2.12563e-07
-2.28655e-07
-1.61884e-07
-1.25242e-07
-1.26931e-07
-8.51701e-08
-7.01219e-08
-8.04945e-08
-4.55172e-08
-3.46325e-08
-5.20219e-08
-2.2041e-08
-1.22556e-08
-3.67936e-08
-9.1093e-09
1.60695e-09
-2.78534e-08
-1.46459e-09
9.67469e-09
-2.24441e-08
3.38409e-09
1.35412e-08
-1.89266e-08
6.75523e-09
1.41881e-08
-1.64954e-08
9.28596e-09
1.23079e-08
-1.47382e-08
1.12575e-08
8.49001e-09
-1.34627e-08
1.2764e-08
3.30676e-09
-1.25844e-08
1.38191e-08
-2.65327e-09
-1.20682e-08
1.4406e-08
-8.7996e-09
-1.18899e-08
1.45189e-08
-1.45723e-08
-1.20178e-08
1.4178e-08
-1.94823e-08
-1.24046e-08
1.34364e-08
-2.31537e-08
-1.29832e-08
1.23799e-08
-2.53455e-08
-1.36757e-08
1.11122e-08
-2.5968e-08
-1.43959e-08
9.74869e-09
-2.50732e-08
-1.50576e-08
8.3939e-09
-2.28432e-08
-1.55753e-08
7.14109e-09
-1.95636e-08
-1.58612e-08
6.05405e-09
-1.56e-08
-1.58159e-08
5.16651e-09
-1.13685e-08
-1.53136e-08
4.47188e-09
-7.30007e-09
-1.41842e-08
3.91125e-09
-3.80278e-09
-1.21873e-08
3.35524e-09
-1.23067e-09
-8.96595e-09
2.57733e-09
-3.99962e-09
1.23914e-09
-8.79946e-08
-1.92257e-07
-8.7994e-08
-1.22909e-07
-1.96179e-07
-1.06707e-07
-1.07989e-07
-1.57625e-07
-8.59503e-08
-7.32886e-08
-1.09869e-07
-5.17624e-08
-4.35223e-08
-8.10876e-08
-2.91731e-08
-2.03564e-08
-6.13026e-08
-1.38852e-08
-3.79476e-09
-4.91661e-08
-4.18917e-09
7.37853e-09
-4.12764e-08
2.24983e-09
1.41477e-08
-3.60134e-08
6.80008e-09
1.72525e-08
-3.2293e-08
1.02615e-08
1.72589e-08
-2.95372e-08
1.30355e-08
1.46724e-08
-2.744e-08
1.52883e-08
1.00191e-08
-2.58615e-08
1.70522e-08
3.87983e-09
-2.47479e-08
1.83028e-08
-3.10827e-09
-2.40794e-08
1.89993e-08
-1.02852e-08
-2.3837e-08
1.9124e-08
-1.70159e-08
-2.39839e-08
1.86967e-08
-2.2743e-08
-2.44573e-08
1.77799e-08
-2.70363e-08
-2.5166e-08
1.6476e-08
-2.96241e-08
-2.5999e-08
1.49111e-08
-3.04066e-08
-2.68345e-08
1.3221e-08
-2.94482e-08
-2.75491e-08
1.15331e-08
-2.69565e-08
-2.802e-08
9.95295e-09
-2.32544e-08
-2.81164e-08
8.55318e-09
-1.87457e-08
-2.76931e-08
7.36849e-09
-1.3881e-08
-2.65643e-08
6.38605e-09
-9.12209e-09
-2.44777e-08
5.5346e-09
-4.90717e-09
-2.10661e-08
4.66388e-09
-1.65895e-09
-1.57296e-08
3.5154e-09
-7.32755e-09
1.66899e-09
-4.69986e-08
-9.82604e-08
-4.69979e-08
-6.3499e-08
-1.24001e-07
-5.56772e-08
-5.78567e-08
-1.17491e-07
-4.57771e-08
-4.07016e-08
-9.77182e-08
-2.93056e-08
-2.31046e-08
-8.23375e-08
-1.63471e-08
-7.62389e-09
-7.02118e-08
-6.5715e-09
4.49752e-09
-6.17246e-08
4.37185e-10
1.3162e-08
-5.55893e-08
5.64847e-09
1.84784e-08
-5.10711e-08
9.74133e-09
2.06502e-08
-4.75962e-08
1.31314e-08
1.9933e-08
-4.48378e-08
1.60178e-08
1.66677e-08
-4.26281e-08
1.84534e-08
1.13055e-08
-4.09048e-08
2.04056e-08
4.4107e-09
-3.96578e-08
2.18047e-08
-3.35773e-09
-3.88941e-08
2.25832e-08
-1.12992e-08
-3.86051e-08
2.27095e-08
-1.873e-08
-3.87531e-08
2.22001e-08
-2.50472e-08
-3.9265e-08
2.11249e-08
-2.97861e-08
-4.00293e-08
1.96023e-08
-3.26567e-08
-4.09071e-08
1.77787e-08
-3.3556e-08
-4.17469e-08
1.58117e-08
-3.25589e-08
-4.23915e-08
1.38454e-08
-2.98938e-08
-4.26809e-08
1.19958e-08
-2.59058e-08
-4.24491e-08
1.03447e-08
-2.10207e-08
-4.15052e-08
8.92695e-09
-1.57078e-08
-3.9603e-08
7.72582e-09
-1.04456e-08
-3.64017e-08
6.66181e-09
-5.70004e-09
-3.1381e-08
5.56946e-09
-1.95811e-09
-2.3638e-08
4.16649e-09
-1.12563e-08
1.97067e-09
-1.96022e-08
-5.90567e-08
-1.96015e-08
-2.81834e-08
-8.98488e-08
-2.55714e-08
-2.69037e-08
-9.67936e-08
-2.19768e-08
-1.8285e-08
-9.2063e-08
-1.42737e-08
-7.63045e-09
-8.59642e-08
-7.02783e-09
2.85107e-09
-7.98504e-08
-8.42844e-10
1.1714e-08
-7.47935e-08
4.20599e-09
1.83121e-08
-7.06208e-08
8.43333e-09
2.23092e-08
-6.71783e-08
1.21101e-08
2.35851e-08
-6.42728e-08
1.54008e-08
2.21854e-08
-6.17929e-08
1.83547e-08
1.83227e-08
-5.9698e-08
2.09326e-08
1.23804e-08
-5.80023e-08
2.30398e-08
4.90152e-09
-5.67428e-08
2.45639e-08
-3.44798e-09
-5.59532e-08
2.54086e-08
-1.19443e-08
-5.56378e-08
2.5529e-08
-1.98741e-08
-5.57618e-08
2.49385e-08
-2.66028e-08
-5.62474e-08
2.37111e-08
-3.16452e-08
-5.69692e-08
2.19822e-08
-3.47013e-08
-5.77701e-08
1.99192e-08
-3.5671e-08
-5.84776e-08
1.77004e-08
-3.46403e-08
-5.8907e-08
1.54848e-08
-3.18536e-08
-5.88737e-08
1.34062e-08
-2.76716e-08
-5.81789e-08
1.15478e-08
-2.25333e-08
-5.65899e-08
9.94648e-09
-1.69174e-08
-5.38012e-08
8.58234e-09
-1.13144e-08
-4.93751e-08
7.37038e-09
-6.21112e-09
-4.26189e-08
6.13453e-09
-2.14516e-09
-3.22767e-08
4.57276e-09
-1.55618e-08
2.16031e-09
-8.1218e-09
-4.28138e-08
-8.12113e-09
-1.18122e-08
-7.51511e-08
-1.10072e-08
-1.04705e-08
-8.88525e-08
-9.28278e-09
-4.80304e-09
-9.24473e-08
-5.28313e-09
2.64033e-09
-9.24329e-08
-9.7472e-10
1.03579e-08
-9.07196e-08
3.15165e-09
1.7153e-08
-8.85449e-08
6.9563e-09
2.22836e-08
-8.62578e-08
1.05065e-08
2.52606e-08
-8.40315e-08
1.38762e-08
2.58099e-08
-8.19105e-08
1.70884e-08
2.38582e-08
-7.99374e-08
2.00963e-08
1.95357e-08
-7.81674e-08
2.27919e-08
1.31778e-08
-7.66723e-08
2.50279e-08
5.30271e-09
-7.55258e-08
2.66581e-08
-3.42236e-09
-7.47855e-08
2.75574e-08
-1.22648e-08
-7.44628e-08
2.76675e-08
-2.04966e-08
-7.45288e-08
2.69988e-08
-2.74654e-08
-7.49082e-08
2.56295e-08
-3.26759e-08
-7.54712e-08
2.37124e-08
-3.58242e-08
-7.60534e-08
2.14316e-08
-3.68178e-08
-7.6471e-08
1.8987e-08
-3.57541e-08
-7.65285e-08
1.65578e-08
-3.28911e-08
-7.60224e-08
1.42856e-08
-2.85988e-08
-7.47313e-08
1.22602e-08
-2.33233e-08
-7.23849e-08
1.05194e-08
-1.75462e-08
-6.86183e-08
9.03999e-09
-1.17621e-08
-6.28914e-08
7.7323e-09
-6.47049e-09
-5.43251e-08
6.41459e-09
-2.23725e-09
-4.12825e-08
4.77263e-09
-2.00535e-08
2.25449e-09
-2.86874e-09
-3.70768e-08
-2.86822e-09
-3.46194e-09
-7.08913e-08
-3.66658e-09
-1.37152e-09
-8.84832e-08
-2.4597e-09
3.25512e-09
-9.70006e-08
-7.33243e-11
9.14329e-09
-1.01054e-07
2.73257e-09
1.52874e-08
-1.02569e-07
5.70573e-09
2.07599e-08
-1.02767e-07
8.74957e-09
2.48702e-08
-1.02221e-07
1.18533e-08
2.7096e-08
-1.01261e-07
1.50035e-08
2.71084e-08
-1.00072e-07
1.81491e-08
2.47716e-08
-9.87869e-08
2.11864e-08
2.01658e-08
-9.75255e-08
2.39639e-08
1.35902e-08
-9.63918e-08
2.62951e-08
5.54343e-09
-9.54808e-08
2.80018e-08
-3.31857e-09
-9.4859e-08
2.89355e-08
-1.22694e-08
-9.45455e-08
2.90335e-08
-2.05835e-08
-9.45164e-08
2.83018e-08
-2.76045e-08
-9.47042e-08
2.6817e-08
-3.2838e-08
-9.49834e-08
2.47458e-08
-3.59833e-08
-9.51998e-08
2.22917e-08
-3.69579e-08
-9.51694e-08
1.9673e-08
-3.58705e-08
-9.46973e-08
1.70814e-08
-3.29854e-08
-9.35737e-08
1.46663e-08
-2.8678e-08
-9.15621e-08
1.25233e-08
-2.3393e-08
-8.83611e-08
1.06913e-08
-1.76071e-08
-8.35491e-08
9.14488e-09
-1.18087e-08
-7.64803e-08
7.79052e-09
-6.49717e-09
-6.60806e-08
6.44403e-09
-2.24528e-09
-5.03229e-08
4.78844e-09
-2.45626e-08
2.26379e-09
-4.67319e-10
-3.61424e-08
-4.67078e-10
6.40766e-10
-7.19608e-08
-3.86219e-11
3.38448e-09
-9.23016e-08
1.07467e-09
7.66113e-09
-1.0403e-07
2.75273e-09
1.27525e-08
-1.10937e-07
4.79211e-09
1.79541e-08
-1.14885e-07
7.11407e-09
2.25519e-08
-1.17045e-07
9.68021e-09
2.59415e-08
-1.18076e-07
1.24656e-08
2.76329e-08
-1.18383e-07
1.54303e-08
2.72852e-08
-1.18213e-07
1.84884e-08
2.47456e-08
-1.1775e-07
2.15032e-08
2.00598e-08
-1.17136e-07
2.42961e-08
1.35028e-08
-1.16488e-07
2.66529e-08
5.54799e-09
-1.15906e-07
2.83804e-08
-3.16879e-09
-1.15462e-07
2.93194e-08
-1.19485e-08
-1.15169e-07
2.94036e-08
-2.00892e-08
-1.15012e-07
2.86363e-08
-2.695e-08
-1.14933e-07
2.70899e-08
-3.20466e-08
-1.14826e-07
2.49394e-08
-3.50901e-08
-1.14549e-07
2.23925e-08
-3.60074e-08
-1.1393e-07
1.96783e-08
-3.49147e-08
-1.12794e-07
1.70037e-08
-3.20773e-08
-1.10935e-07
1.45236e-08
-2.78689e-08
-1.08106e-07
1.23354e-08
-2.27207e-08
-1.03983e-07
1.04736e-08
-1.70937e-08
-9.80887e-08
8.91262e-09
-1.14588e-08
-8.96787e-08
7.56341e-09
-6.29957e-09
-7.74806e-08
6.2408e-09
-2.17376e-09
-5.90811e-08
4.63247e-09
-2.89289e-08
2.19254e-09
5.98148e-10
-3.73385e-08
5.97959e-10
2.53733e-09
-7.55413e-08
1.64132e-09
5.60514e-09
-9.81069e-08
2.73758e-09
9.64475e-09
-1.12141e-07
4.07106e-09
1.41808e-08
-1.21157e-07
5.6844e-09
1.86941e-08
-1.26998e-07
7.5995e-09
2.26284e-08
-1.30802e-07
9.82288e-09
2.54625e-08
-1.33248e-07
1.23379e-08
2.67626e-08
-1.34776e-07
1.50929e-08
2.62081e-08
-1.35654e-07
1.79959e-08
2.36383e-08
-1.36076e-07
2.08956e-08
1.909e-08
-1.36187e-07
2.35998e-08
1.28145e-08
-1.36101e-07
2.58884e-08
5.25245e-09
-1.35911e-07
2.75663e-08
-2.99866e-09
-1.35675e-07
2.84649e-08
-1.12906e-08
-1.35412e-07
2.85349e-08
-1.89718e-08
-1.35109e-07
2.77778e-08
-2.54337e-08
-1.34718e-07
2.62465e-08
-3.0219e-08
-1.34154e-07
2.41126e-08
-3.30568e-08
-1.33297e-07
2.15857e-08
-3.38826e-08
-1.32006e-07
1.89011e-08
-3.28149e-08
-1.30119e-07
1.62578e-08
-3.01141e-08
-1.2745e-07
1.38146e-08
-2.6134e-08
-1.23754e-07
1.16677e-08
-2.12842e-08
-1.18685e-07
9.85253e-09
-1.5996e-08
-1.11722e-07
8.34526e-09
-1.07125e-08
-1.02016e-07
7.05367e-09
-5.88176e-09
-8.81167e-08
5.80535e-09
-2.02559e-09
-6.72465e-08
4.30926e-09
-3.29981e-08
2.04369e-09
9.9685e-10
-3.93313e-08
9.95919e-10
3.1909e-09
-7.99916e-08
2.25631e-09
6.23231e-09
-1.04445e-07
3.29624e-09
9.92042e-09
-1.20235e-07
4.40674e-09
1.39044e-08
-1.30868e-07
5.7261e-09
1.7783e-08
-1.38207e-07
7.33019e-09
2.11111e-08
-1.43379e-07
9.24876e-09
2.34616e-08
-1.4707e-07
1.14715e-08
2.44563e-08
-1.49721e-07
1.39512e-08
2.38101e-08
-1.51602e-07
1.65941e-08
2.13778e-08
-1.52894e-07
1.92498e-08
1.71892e-08
-1.53733e-07
2.17339e-08
1.14695e-08
-1.54213e-07
2.38319e-08
4.61798e-09
-1.5442e-07
2.53612e-08
-2.82759e-09
-1.54397e-07
2.61676e-08
-1.02956e-08
-1.54167e-07
2.62229e-08
-1.72109e-08
-1.53718e-07
2.55247e-08
-2.30195e-08
-1.53015e-07
2.41054e-08
-2.73106e-08
-1.51986e-07
2.21237e-08
-2.9837e-08
-1.50535e-07
1.97643e-08
-3.05385e-08
-1.48554e-07
1.72503e-08
-2.95343e-08
-1.45902e-07
1.47781e-08
-2.7066e-08
-1.42418e-07
1.24995e-08
-2.34569e-08
-1.37866e-07
1.05029e-08
-1.90778e-08
-1.31887e-07
8.82259e-09
-1.43197e-08
-1.23918e-07
7.4377e-09
-9.57476e-09
-1.13028e-07
6.26712e-09
-5.24713e-09
-9.75957e-08
5.15138e-09
-1.8031e-09
-7.45154e-08
3.82481e-09
-3.66209e-08
1.8197e-09
1.03522e-09
-4.14e-08
1.03351e-09
3.09574e-09
-8.42952e-08
2.24311e-09
5.80572e-09
-1.10307e-07
3.15276e-09
8.95704e-09
-1.27449e-07
4.06216e-09
1.22823e-08
-1.39323e-07
5.13008e-09
1.54668e-08
-1.47834e-07
6.44257e-09
1.81661e-08
-1.54114e-07
8.0355e-09
2.00407e-08
-1.58855e-07
9.90962e-09
2.07733e-08
-1.62476e-07
1.20216e-08
2.01316e-08
-1.65245e-07
1.4285e-08
1.79928e-08
-1.67321e-07
1.65662e-08
1.43745e-08
-1.68813e-07
1.86991e-08
9.48089e-09
-1.69808e-07
2.04892e-08
3.64562e-09
-1.70368e-07
2.17831e-08
-2.66861e-09
-1.70536e-07
2.24533e-08
-8.98966e-09
-1.7034e-07
2.24936e-08
-1.48405e-08
-1.69771e-07
2.19039e-08
-1.97517e-08
-1.68789e-07
2.06853e-08
-2.33658e-08
-1.6734e-07
1.89677e-08
-2.54671e-08
-1.65348e-07
1.69145e-08
-2.60184e-08
-1.62727e-07
1.47237e-08
-2.51166e-08
-1.59374e-07
1.25705e-08
-2.29753e-08
-1.55147e-07
1.05878e-08
-1.98769e-08
-1.49818e-07
8.85394e-09
-1.61384e-08
-1.43028e-07
7.40274e-09
-1.20893e-08
-1.3418e-07
6.21309e-09
-8.0669e-09
-1.22268e-07
5.21747e-09
-4.41079e-09
-1.05535e-07
4.28355e-09
-1.5094e-09
-8.06024e-08
3.18566e-09
-3.96542e-08
1.52387e-09
8.66052e-10
-4.31297e-08
8.63664e-10
2.52492e-09
-8.77994e-08
1.84531e-09
4.6511e-09
-1.14988e-07
2.55406e-09
7.07573e-09
-1.33114e-07
3.24066e-09
9.59571e-09
-1.45889e-07
4.04586e-09
1.19882e-08
-1.55272e-07
5.04554e-09
1.40004e-08
-1.62395e-07
6.2696e-09
1.53742e-08
-1.67953e-07
7.7243e-09
1.58729e-08
-1.72347e-07
9.37318e-09
1.53122e-08
-1.7583e-07
1.11455e-08
1.35958e-08
-1.78537e-07
1.29327e-08
1.07432e-08
-1.80554e-07
1.45929e-08
6.91326e-09
-1.8195e-07
1.59714e-08
2.36752e-09
-1.82778e-07
1.6956e-08
-2.52963e-09
-1.83092e-07
1.74533e-08
-7.42063e-09
-1.82926e-07
1.74769e-08
-1.19456e-08
-1.82272e-07
1.70255e-08
-1.57278e-08
-1.81089e-07
1.60823e-08
-1.84923e-08
-1.79317e-07
1.47423e-08
-2.00741e-08
-1.76893e-07
1.31275e-08
-2.0441e-08
-1.73759e-07
1.13995e-08
-1.96754e-08
-1.69836e-07
9.69612e-09
-1.79491e-08
-1.64999e-07
8.12633e-09
-1.54883e-08
-1.5904e-07
6.76146e-09
-1.254e-08
-1.51601e-07
5.62441e-09
-9.36821e-09
-1.42052e-07
4.70016e-09
-6.23096e-09
-1.29344e-07
3.93889e-09
-3.391e-09
-1.11611e-07
3.23619e-09
-1.15424e-09
-8.52554e-08
2.41623e-09
-4.19747e-08
1.16631e-09
5.70443e-10
-4.42662e-08
5.66047e-10
1.63935e-09
-9.00655e-08
1.1972e-09
2.99442e-09
-1.17987e-07
1.64408e-09
4.52547e-09
-1.36727e-07
2.08146e-09
6.11353e-09
-1.5008e-07
2.60298e-09
7.61733e-09
-1.60036e-07
3.26026e-09
8.87642e-09
-1.67735e-07
4.08047e-09
9.7228e-09
-1.73861e-07
5.06209e-09
1.00019e-08
-1.78808e-07
6.1818e-09
9.58754e-09
-1.82803e-07
7.38738e-09
8.41203e-09
-1.85963e-07
8.6013e-09
6.48548e-09
-1.8836e-07
9.73282e-09
3.90778e-09
-1.90046e-07
1.06736e-08
8.60264e-10
-1.91072e-07
1.13416e-08
-2.41286e-09
-1.91491e-07
1.16721e-08
-5.6682e-09
-1.91349e-07
1.16784e-08
-8.65943e-09
-1.9064e-07
1.13601e-08
-1.11374e-08
-1.89312e-07
1.07015e-08
-1.29151e-08
-1.87314e-07
9.77465e-09
-1.38841e-08
-1.84586e-07
8.6613e-09
-1.40304e-08
-1.81085e-07
7.47186e-09
-1.342e-08
-1.76755e-07
6.30898e-09
-1.21744e-08
-1.7149e-07
5.24522e-09
-1.04495e-08
-1.6509e-07
4.32483e-09
-8.4178e-09
-1.57201e-07
3.56828e-09
-6.25372e-09
-1.47181e-07
2.96446e-09
-4.13039e-09
-1.33943e-07
2.47534e-09
-2.22931e-09
-1.15552e-07
2.03909e-09
-7.48179e-10
-8.82752e-08
1.53873e-09
-4.34807e-08
7.57763e-10
1.97492e-10
-4.46561e-08
1.92418e-10
5.53291e-10
-9.08147e-08
3.93448e-10
1.00746e-09
-1.1898e-07
5.39069e-10
1.52853e-09
-1.37949e-07
7.01143e-10
2.08218e-09
-1.51552e-07
9.18672e-10
2.6182e-09
-1.61785e-07
1.21303e-09
3.07186e-09
-1.69782e-07
1.59326e-09
3.36915e-09
-1.76214e-07
2.05575e-09
3.44054e-09
-1.8147e-07
2.59062e-09
3.21897e-09
-1.85758e-07
3.17691e-09
2.66301e-09
-1.89185e-07
3.77754e-09
1.77434e-09
-1.91813e-07
4.34162e-09
5.87947e-10
-1.93673e-07
4.81357e-09
-8.15251e-10
-1.94824e-07
5.15476e-09
-2.31686e-09
-1.95311e-07
5.32149e-09
-3.79045e-09
-1.95185e-07
5.30992e-09
-5.111e-09
-1.94442e-07
5.1224e-09
-6.15476e-09
-1.93029e-07
4.7609e-09
-6.84237e-09
-1.90901e-07
4.27398e-09
-7.13395e-09
-1.88002e-07
3.70787e-09
-7.03545e-09
-1.84307e-07
3.12407e-09
-6.59492e-09
-1.7976e-07
2.56445e-09
-5.87901e-09
-1.74272e-07
2.06598e-09
-4.9594e-09
-1.6766e-07
1.65022e-09
-3.92763e-09
-1.59552e-07
1.31905e-09
-2.86113e-09
-1.49317e-07
1.07009e-09
-1.84805e-09
-1.35844e-07
8.88206e-10
-9.66191e-10
-1.17178e-07
7.44991e-10
-3.08459e-10
-8.95216e-08
5.88671e-10
-4.4105e-08
3.15887e-10
-2.16043e-10
-4.42178e-08
-2.22162e-10
-6.36093e-10
-8.99011e-08
-4.93565e-10
-1.16162e-09
-1.1778e-07
-6.73966e-10
-1.71815e-09
-1.36592e-07
-8.00572e-10
-2.25388e-09
-1.5012e-07
-8.96247e-10
-2.72602e-09
-1.60337e-07
-9.75467e-10
-3.1024e-09
-1.68359e-07
-1.04634e-09
-3.36117e-09
-1.74846e-07
-1.10941e-09
-3.49114e-09
-1.80175e-07
-1.16488e-09
-3.49202e-09
-1.84548e-07
-1.20944e-09
-3.37429e-09
-1.88067e-07
-1.23575e-09
-3.16433e-09
-1.90789e-07
-1.23415e-09
-2.89106e-09
-1.9274e-07
-1.20648e-09
-2.57678e-09
-1.93967e-07
-1.17148e-09
-2.23572e-09
-1.945e-07
-1.15254e-09
-1.85816e-09
-1.94383e-07
-1.17931e-09
-1.43751e-09
-1.93616e-07
-1.24666e-09
-9.86148e-10
-1.92154e-07
-1.32692e-09
-5.36335e-10
-1.89967e-07
-1.3839e-09
-1.18045e-10
-1.87018e-07
-1.40239e-09
2.29993e-10
-1.83278e-07
-1.37744e-09
4.94195e-10
-1.78709e-07
-1.31568e-09
6.66068e-10
-1.73214e-07
-1.22977e-09
7.39871e-10
-1.66606e-07
-1.12738e-09
7.33467e-10
-1.58532e-07
-1.01295e-09
6.53933e-10
-1.48348e-07
-8.90077e-10
5.20898e-10
-1.34957e-07
-7.53818e-10
3.43678e-10
-1.16408e-07
-5.93281e-10
1.47585e-10
-8.89325e-08
-3.93081e-10
-4.38156e-08
-1.41812e-10
-6.4187e-10
-4.29276e-08
-6.48372e-10
-1.86116e-09
-8.72768e-08
-1.40499e-09
-3.37911e-09
-1.14347e-07
-1.91554e-09
-5.0274e-09
-1.32612e-07
-2.33136e-09
-6.65758e-09
-1.45752e-07
-2.73812e-09
-8.14049e-09
-1.55668e-07
-3.18634e-09
-9.34731e-09
-1.63446e-07
-3.70641e-09
-1.01632e-08
-1.69727e-07
-4.30313e-09
-1.04934e-08
-1.74881e-07
-4.96398e-09
-1.02751e-08
-1.79112e-07
-5.6542e-09
-9.49145e-09
-1.82527e-07
-6.3236e-09
-8.17913e-09
-1.85181e-07
-6.91994e-09
-6.43286e-09
-1.87101e-07
-7.38523e-09
-4.3786e-09
-1.88323e-07
-7.69775e-09
-2.16383e-09
-1.88861e-07
-7.85323e-09
9.32603e-11
-1.88751e-07
-7.88945e-09
2.26901e-09
-1.87988e-07
-7.80388e-09
4.21818e-09
-1.86546e-07
-7.55735e-09
5.80011e-09
-1.84411e-07
-7.1372e-09
6.91117e-09
-1.81561e-07
-6.56784e-09
7.50178e-09
-1.77964e-07
-5.90451e-09
7.57738e-09
-1.73581e-07
-5.20283e-09
7.18931e-09
-1.6831e-07
-4.51615e-09
6.42077e-09
-1.61954e-07
-3.88375e-09
5.37391e-09
-1.54163e-07
-3.32256e-09
4.15608e-09
-1.44299e-07
-2.83035e-09
2.87478e-09
-1.31297e-07
-2.37824e-09
1.64522e-09
-1.13261e-07
-1.91705e-09
6.00153e-10
-8.65217e-08
-1.36571e-09
-4.26201e-08
-5.95374e-10
-1.05449e-09
-4.08106e-08
-1.06244e-09
-3.04656e-09
-8.29968e-08
-2.28791e-09
-5.52474e-09
-1.0875e-07
-3.11881e-09
-8.21983e-09
-1.26109e-07
-3.80815e-09
-1.09035e-08
-1.3856e-07
-4.50766e-09
-1.3352e-08
-1.47914e-07
-5.3055e-09
-1.53529e-08
-1.55201e-07
-6.24372e-09
-1.67024e-08
-1.61037e-07
-7.34048e-09
-1.72287e-08
-1.65782e-07
-8.57318e-09
-1.68116e-08
-1.69641e-07
-9.88794e-09
-1.53988e-08
-1.72739e-07
-1.12006e-08
-1.30393e-08
-1.75139e-07
-1.24019e-08
-9.87599e-09
-1.76882e-07
-1.33819e-08
-6.13508e-09
-1.77995e-07
-1.40689e-08
-2.09477e-09
-1.7849e-07
-1.44113e-08
1.99174e-09
-1.78382e-07
-1.44559e-08
5.86547e-09
-1.77667e-07
-1.4195e-08
9.24518e-09
-1.76344e-07
-1.35814e-08
1.18921e-08
-1.74405e-07
-1.2653e-08
1.36453e-08
-1.71829e-07
-1.14849e-08
1.44466e-08
-1.68579e-07
-1.01861e-08
1.43295e-08
-1.646e-07
-8.86443e-09
1.34015e-08
-1.59772e-07
-7.60987e-09
1.18249e-08
-1.53897e-07
-6.48085e-09
9.78386e-09
-1.46618e-07
-5.50356e-09
7.48055e-09
-1.37334e-07
-4.66166e-09
5.11234e-09
-1.25016e-07
-3.91365e-09
2.88023e-09
-1.07858e-07
-3.1712e-09
1.0308e-09
-8.23858e-08
-2.2864e-09
-4.05629e-08
-1.02634e-09
-1.43352e-09
-3.79357e-08
-1.4414e-09
-4.13187e-09
-7.7203e-08
-3.0954e-09
-7.48878e-09
-1.01177e-07
-4.21567e-09
-1.11405e-08
-1.17304e-07
-5.15271e-09
-1.47807e-08
-1.28809e-07
-6.11146e-09
-1.81079e-08
-1.37372e-07
-7.21508e-09
-2.08305e-08
-1.43952e-07
-8.52639e-09
-2.26678e-08
-1.49134e-07
-1.00653e-08
-2.33809e-08
-1.53258e-07
-1.18103e-08
-2.27879e-08
-1.56544e-07
-1.369e-08
-2.08139e-08
-1.59125e-07
-1.55878e-08
-1.75049e-08
-1.61087e-07
-1.73603e-08
-1.30521e-08
-1.62488e-07
-1.88465e-08
-7.76048e-09
-1.63369e-07
-1.99175e-08
-2.0251e-09
-1.63752e-07
-2.04735e-08
3.75827e-09
-1.63643e-07
-2.05216e-08
9.1896e-09
-1.63047e-07
-2.00509e-08
1.38633e-08
-1.61964e-07
-1.90539e-08
1.74638e-08
-1.60379e-07
-1.76271e-08
1.97844e-08
-1.58259e-07
-1.58909e-08
2.07618e-08
-1.5555e-07
-1.40067e-08
2.04559e-08
-1.5217e-07
-1.2124e-08
1.90311e-08
-1.47986e-07
-1.03613e-08
1.6718e-08
-1.4279e-07
-8.79379e-09
1.37793e-08
-1.36234e-07
-7.44585e-09
1.04912e-08
-1.27747e-07
-6.29957e-09
7.13698e-09
-1.1637e-07
-5.29109e-09
4.00096e-09
-1.00425e-07
-4.29706e-09
1.41969e-09
-7.66891e-08
-3.11541e-09
-3.77282e-08
-1.41501e-09
-1.76157e-09
-3.44048e-08
-1.7693e-09
-5.06997e-09
-7.00994e-08
-3.79521e-09
-9.18008e-09
-9.19041e-08
-5.16307e-09
-1.3653e-08
-1.06527e-07
-6.30437e-09
-1.81097e-08
-1.16881e-07
-7.4708e-09
-2.21859e-08
-1.24478e-07
-8.81703e-09
-2.55179e-08
-1.30197e-07
-1.04236e-08
-2.77667e-08
-1.34569e-07
-1.23159e-08
-2.86311e-08
-1.37931e-07
-1.44633e-08
-2.78887e-08
-1.40501e-07
-1.67856e-08
-2.54371e-08
-1.42427e-07
-1.91495e-08
-2.13217e-08
-1.43822e-07
-2.13812e-08
-1.57668e-08
-1.44768e-07
-2.32755e-08
-9.14358e-09
-1.45332e-07
-2.46601e-08
-1.95198e-09
-1.45556e-07
-2.53883e-08
5.28679e-09
-1.4545e-07
-2.54318e-08
1.20469e-08
-1.45021e-07
-2.47858e-08
1.78247e-08
-1.44267e-07
-2.34746e-08
2.22298e-08
-1.43147e-07
-2.16364e-08
2.50242e-08
-1.41611e-07
-1.9442e-08
2.61451e-08
-1.39574e-07
-1.70964e-08
2.56779e-08
-1.36928e-07
-1.4775e-08
2.38325e-08
-1.33526e-07
-1.26143e-08
2.08928e-08
-1.29152e-07
-1.06979e-08
1.71875e-08
-1.2347e-07
-9.05837e-09
1.3064e-08
-1.15952e-07
-7.67165e-09
8.8679e-09
-1.05718e-07
-6.45649e-09
4.95653e-09
-9.12562e-08
-5.25741e-09
1.75315e-09
-6.96604e-08
-3.8253e-09
-3.42271e-08
-1.74792e-09
-2.02357e-09
-3.03502e-08
-2.03109e-09
-5.81891e-09
-6.19519e-08
-4.35219e-09
-1.05316e-08
-8.12791e-08
-5.91224e-09
-1.56552e-08
-9.41943e-08
-7.20927e-09
-2.07586e-08
-1.03246e-07
-8.53142e-09
-2.54224e-08
-1.09765e-07
-1.00496e-08
-2.92311e-08
-1.14531e-07
-1.18571e-08
-3.17938e-08
-1.18023e-07
-1.39837e-08
-3.27661e-08
-1.2056e-07
-1.6398e-08
-3.18944e-08
-1.22356e-07
-1.90172e-08
-2.90567e-08
-1.23575e-07
-2.169e-08
-2.43029e-08
-1.24353e-07
-2.42224e-08
-1.78791e-08
-1.24803e-07
-2.63881e-08
-1.02115e-08
-1.25018e-07
-2.79819e-08
-1.87453e-09
-1.25063e-07
-2.88299e-08
6.50855e-09
-1.24964e-07
-2.88691e-08
1.43109e-08
-1.24729e-07
-2.80945e-08
2.09476e-08
-1.24336e-07
-2.65673e-08
2.59836e-08
-1.23728e-07
-2.44556e-08
2.91542e-08
-1.22822e-07
-2.196e-08
3.03932e-08
-1.21507e-07
-1.93068e-08
2.98054e-08
-1.19648e-07
-1.66917e-08
2.76325e-08
-1.17085e-07
-1.42683e-08
2.42013e-08
-1.13599e-07
-1.21222e-08
1.98928e-08
-1.08875e-07
-1.0286e-08
1.5105e-08
-1.02433e-07
-8.73068e-09
1.02425e-08
-9.34928e-08
-7.36224e-09
5.71735e-09
-8.07223e-08
-6.00868e-09
2.01742e-09
-6.15757e-08
-4.38477e-09
-3.01981e-08
-2.01158e-09
-2.21173e-09
-2.59198e-08
-2.21863e-09
-6.35482e-09
-5.3059e-08
-4.74978e-09
-1.1494e-08
-6.96949e-08
-6.44498e-09
-1.70801e-08
-8.07662e-08
-7.84199e-09
-2.26414e-08
-8.84316e-08
-9.2534e-09
-2.77164e-08
-9.38232e-08
-1.08668e-08
-3.18544e-08
-9.7613e-08
-1.27799e-08
-3.46257e-08
-1.00229e-07
-1.50224e-08
-3.56597e-08
-1.01959e-07
-1.75673e-08
-3.46804e-08
-1.03014e-07
-2.03212e-08
-3.15592e-08
-1.03568e-07
-2.31283e-08
-2.63497e-08
-1.0377e-07
-2.57926e-08
-1.93169e-08
-1.03761e-07
-2.80751e-08
-1.09222e-08
-1.03654e-07
-2.97587e-08
-1.79187e-09
-1.03536e-07
-3.06569e-08
7.38174e-09
-1.03447e-07
-3.06909e-08
1.59043e-08
-1.03392e-07
-2.986e-08
2.31406e-08
-1.03338e-07
-2.82347e-08
2.86204e-08
-1.03209e-07
-2.59983e-08
3.20593e-08
-1.02893e-07
-2.33681e-08
3.33897e-08
-1.02256e-07
-2.05808e-08
3.27263e-08
-1.01151e-07
-1.78337e-08
3.03267e-08
-9.94017e-08
-1.52838e-08
2.65523e-08
-9.67983e-08
-1.30259e-08
2.1816e-08
-9.30506e-08
-1.10886e-08
1.65567e-08
-8.77316e-08
-9.4422e-09
1.12196e-08
-8.01689e-08
-7.98687e-09
6.25723e-09
-6.92238e-08
-6.53605e-09
2.20567e-09
-5.27435e-08
-4.78069e-09
-2.57929e-08
-2.19954e-09
-2.31928e-09
-2.12751e-08
-2.32545e-09
-6.65817e-09
-4.37466e-08
-4.97349e-09
-1.20407e-08
-5.75768e-08
-6.7355e-09
-1.78918e-08
-6.67402e-08
-8.17495e-09
-2.37181e-08
-7.2989e-08
-9.61626e-09
-2.90324e-08
-7.72573e-08
-1.12516e-08
-3.3355e-08
-8.0109e-08
-1.31814e-08
-3.62362e-08
-8.19109e-08
-1.54371e-08
-3.72896e-08
-8.29207e-08
-1.79849e-08
-3.62318e-08
-8.33402e-08
-2.07315e-08
-3.29346e-08
-8.33382e-08
-2.3527e-08
-2.74538e-08
-8.30768e-08
-2.61737e-08
-2.00736e-08
-8.27025e-08
-2.84387e-08
-1.12731e-08
-8.23453e-08
-3.01093e-08
-1.70258e-09
-8.21026e-08
-3.10039e-08
7.90863e-09
-8.20253e-08
-3.10328e-08
1.68287e-08
-8.21177e-08
-3.01942e-08
2.44019e-08
-8.23372e-08
-2.85741e-08
3.01335e-08
-8.259e-08
-2.63508e-08
3.3733e-08
-8.27568e-08
-2.37354e-08
3.51242e-08
-8.26883e-08
-2.09591e-08
3.4423e-08
-8.22284e-08
-1.82211e-08
3.1897e-08
-8.12044e-08
-1.56713e-08
2.79198e-08
-7.9417e-08
-1.34041e-08
2.29299e-08
-7.66065e-08
-1.14542e-08
1.73919e-08
-7.24037e-08
-9.78988e-09
1.17767e-08
-6.62432e-08
-8.31051e-09
6.56359e-09
-5.71899e-08
-6.82082e-09
2.31225e-09
-4.34913e-08
-5.00082e-09
-2.11743e-08
-2.30633e-09
-2.34001e-09
-1.659e-08
-2.34506e-09
-6.71703e-09
-3.4358e-08
-5.01158e-09
-1.21554e-08
-4.53646e-08
-6.77392e-09
-1.80782e-08
-5.26198e-08
-8.19754e-09
-2.39833e-08
-5.74745e-08
-9.60947e-09
-2.93707e-08
-6.06681e-08
-1.12018e-08
-3.3748e-08
-6.26595e-08
-1.30723e-08
-3.66556e-08
-6.37533e-08
-1.525e-08
-3.77006e-08
-6.41756e-08
-1.77001e-08
-3.66018e-08
-6.41056e-08
-2.03334e-08
-3.32354e-08
-6.37026e-08
-2.30019e-08
-2.76702e-08
-6.31219e-08
-2.55201e-08
-2.0191e-08
-6.251e-08
-2.76716e-08
-1.12846e-08
-6.19965e-08
-2.92552e-08
-1.60471e-09
-6.1682e-08
-3.01004e-08
8.11286e-09
-6.16182e-08
-3.01247e-08
1.71304e-08
-6.18086e-08
-2.93266e-08
2.47876e-08
-6.2208e-08
-2.77863e-08
3.05893e-08
-6.2721e-08
-2.56707e-08
3.42369e-08
-6.32236e-08
-2.31808e-08
3.56488e-08
-6.35696e-08
-2.05305e-08
3.49341e-08
-6.36071e-08
-1.79066e-08
3.23635e-08
-6.3177e-08
-1.54567e-08
2.83126e-08
-6.20954e-08
-1.32708e-08
2.32318e-08
-6.01416e-08
-1.1384e-08
1.75989e-08
-5.70042e-08
-9.76655e-09
1.19008e-08
-5.22255e-08
-8.31953e-09
6.62445e-09
-4.50631e-08
-6.85043e-09
2.3314e-09
-3.41629e-08
-5.03536e-09
-1.65165e-08
-2.32649e-09
-2.26596e-09
-1.20536e-08
-2.27038e-09
-6.51624e-09
-2.52622e-08
-4.8455e-09
-1.18191e-08
-3.35279e-08
-6.53385e-09
-1.76246e-08
-3.89334e-08
-7.88083e-09
-2.34347e-08
-4.24592e-08
-9.20508e-09
-2.87476e-08
-4.4661e-08
-1.06942e-08
-3.30682e-08
-4.58968e-08
-1.24421e-08
-3.59322e-08
-4.64158e-08
-1.44734e-08
-3.69558e-08
-4.63988e-08
-1.67533e-08
-3.58641e-08
-4.60011e-08
-1.91961e-08
-3.25424e-08
-4.53608e-08
-2.16635e-08
-2.70663e-08
-4.46154e-08
-2.39826e-08
-1.97209e-08
-4.38987e-08
-2.59567e-08
-1.09844e-08
-4.33269e-08
-2.74061e-08
-1.49458e-09
-4.29917e-08
-2.81802e-08
8.02998e-09
-4.29422e-08
-2.82006e-08
1.68685e-08
-4.31808e-08
-2.74663e-08
2.43785e-08
-4.36647e-08
-2.60533e-08
3.0072e-08
-4.43051e-08
-2.41094e-08
3.3653e-08
-4.49889e-08
-2.18156e-08
3.50351e-08
-4.55854e-08
-1.93665e-08
3.43206e-08
-4.59592e-08
-1.69334e-08
3.17685e-08
-4.59695e-08
-1.46554e-08
2.77552e-08
-4.54638e-08
-1.26183e-08
2.27287e-08
-4.42581e-08
-1.08571e-08
1.71732e-08
-4.21026e-08
-9.3461e-09
1.15783e-08
-3.86395e-08
-7.99105e-09
6.42618e-09
-3.33079e-08
-6.60316e-09
2.25661e-09
-2.51262e-08
-4.86709e-09
-1.20064e-08
-2.25346e-09
-2.08516e-09
-7.88004e-09
-2.08842e-09
-6.02953e-09
-1.68699e-08
-4.44787e-09
-1.10057e-08
-2.2578e-08
-5.97376e-09
-1.65089e-08
-2.62569e-08
-7.17327e-09
-2.2059e-08
-2.85619e-08
-8.34714e-09
-2.71599e-08
-2.98871e-08
-9.6731e-09
-3.13196e-08
-3.04977e-08
-1.12394e-08
-3.40868e-08
-3.05814e-08
-1.30672e-08
-3.50848e-08
-3.02795e-08
-1.51212e-08
-3.40554e-08
-2.97111e-08
-1.73195e-08
-3.08943e-08
-2.89869e-08
-1.95349e-08
-2.56817e-08
-2.82176e-08
-2.16104e-08
-1.86931e-08
-2.75122e-08
-2.33751e-08
-1.03863e-08
-2.69658e-08
-2.46679e-08
-1.36647e-09
-2.66547e-08
-2.53568e-08
7.68466e-09
-2.66192e-08
-2.53741e-08
1.60839e-08
-2.6861e-08
-2.4719e-08
2.32214e-08
-2.73437e-08
-2.34586e-08
2.8632e-08
-2.79943e-08
-2.17213e-08
3.20294e-08
-2.87196e-08
-1.96668e-08
3.33243e-08
-2.94131e-08
-1.74671e-08
3.26075e-08
-2.9964e-08
-1.52783e-08
3.0128e-08
-3.02629e-08
-1.3227e-08
2.62489e-08
-3.01893e-08
-1.13953e-08
2.14111e-08
-2.96021e-08
-9.81817e-09
1.60949e-08
-2.83129e-08
-8.47363e-09
1.07838e-08
-2.60555e-08
-7.2729e-09
5.94615e-09
-2.24329e-08
-6.03728e-09
2.07542e-09
-1.67865e-08
-4.46896e-09
-7.85635e-09