/*--------------------------------*- C++ -*----------------------------------*\
| =========                 |                                                 |
| \\      /  F ield         | OpenFOAM: The Open Source CFD Toolbox           |
|  \\    /   O peration     | Version:  v1906                                 |
|   \\  /    A nd           | Web:      www.OpenFOAM.com                      |
|    \\/     M anipulation  |                                                 |
\*---------------------------------------------------------------------------*/
FoamFile
{
    version     2.0;
    format      ascii;
    class       volVectorField;
    location    "19.6/oil";
    object      U;
}
// * * * * * * * * * * * * * * * * * * * * * * * * * * * * * * * * * * * * * //

dimensions      [0 1 -1 0 0 0 0];


internalField   nonuniform List<vector> 
27760
(
(-3.00469e-05 -3.06578e-05 -3.00469e-05)
(-5.93495e-05 -2.30104e-05 -2.16336e-05)
(-4.41405e-06 -5.98225e-06 -5.88472e-06)
(-7.28401e-06 -9.95736e-07 -1.02707e-06)
(-1.84123e-06 -3.40156e-07 -3.71485e-07)
(-1.10358e-06 -1.6596e-07 -1.92341e-07)
(-4.41715e-07 -6.35528e-08 -8.83675e-08)
(-1.52968e-07 -2.39547e-08 -4.90082e-08)
(3.70945e-09 -4.43179e-09 -3.02472e-08)
(8.05213e-08 5.40089e-09 -2.11036e-08)
(1.11248e-07 1.10116e-08 -1.60293e-08)
(1.11162e-07 1.45408e-08 -1.28137e-08)
(8.95604e-08 1.68659e-08 -1.06729e-08)
(5.28666e-08 1.8314e-08 -9.2937e-09)
(6.67397e-09 1.9083e-08 -8.54309e-09)
(-4.36946e-08 1.92557e-08 -8.36617e-09)
(-9.32277e-08 1.88839e-08 -8.71031e-09)
(-1.37417e-07 1.80346e-08 -9.48484e-09)
(-1.72558e-07 1.67872e-08 -1.05606e-08)
(-1.96027e-07 1.52083e-08 -1.17904e-08)
(-2.06454e-07 1.33922e-08 -1.29975e-08)
(-2.03679e-07 1.14688e-08 -1.39845e-08)
(-1.88685e-07 9.50802e-09 -1.45619e-08)
(-1.63447e-07 7.57037e-09 -1.45387e-08)
(-1.30825e-07 5.67565e-09 -1.38219e-08)
(-9.44326e-08 3.89387e-09 -1.23012e-08)
(-5.84491e-08 2.37902e-09 -9.96271e-09)
(-2.75324e-08 1.43623e-09 -6.98988e-09)
(-6.159e-09 1.57812e-09 -3.96911e-09)
(1.34143e-09 2.50998e-09 -1.21335e-09)
(-2.18172e-05 -6.096e-05 -2.18172e-05)
(-7.2342e-06 -7.80008e-06 -9.77287e-06)
(-9.91176e-06 -9.40303e-06 -3.41311e-06)
(-4.88862e-06 -2.55988e-06 -9.69108e-07)
(-2.35916e-06 -1.45873e-06 -4.72824e-07)
(-1.27941e-06 -6.94056e-07 -2.24113e-07)
(-5.5488e-07 -3.75494e-07 -1.045e-07)
(-1.64216e-07 -2.14691e-07 -4.99137e-08)
(6.35033e-08 -1.31728e-07 -2.16381e-08)
(1.82817e-07 -8.47543e-08 -6.03175e-09)
(2.29746e-07 -5.5831e-08 3.64231e-09)
(2.2347e-07 -3.65978e-08 1.02216e-08)
(1.77398e-07 -2.34271e-08 1.48626e-08)
(1.02478e-07 -1.47503e-08 1.79989e-08)
(9.10118e-09 -9.86633e-09 1.97173e-08)
(-9.25144e-08 -8.40575e-09 2.00572e-08)
(-1.92497e-07 -1.00347e-08 1.91116e-08)
(-2.81893e-07 -1.43145e-08 1.7058e-08)
(-3.5335e-07 -2.06709e-08 1.41734e-08)
(-4.0163e-07 -2.84484e-08 1.08084e-08)
(-4.23904e-07 -3.69334e-08 7.32797e-09)
(-4.19867e-07 -4.54061e-08 4.06272e-09)
(-3.91544e-07 -5.32049e-08 1.34351e-09)
(-3.42947e-07 -5.96847e-08 -5.57967e-10)
(-2.79736e-07 -6.4181e-08 -1.46443e-09)
(-2.08848e-07 -6.57989e-08 -1.29597e-09)
(-1.38059e-07 -6.32339e-08 -1.50787e-10)
(-7.53578e-08 -5.46396e-08 1.56157e-09)
(-2.81273e-08 -3.75939e-08 2.8658e-09)
(-2.12424e-09 -1.23763e-08 2.31508e-09)
(-6.05118e-06 -5.5592e-06 -6.0512e-06)
(-9.65957e-06 -1.03231e-05 -3.51701e-06)
(-5.33068e-06 -5.46723e-06 -1.56465e-06)
(-3.54953e-06 -2.79283e-06 -7.48647e-07)
(-1.95106e-06 -1.67527e-06 -3.60694e-07)
(-1.06096e-06 -9.93497e-07 -1.72179e-07)
(-4.50359e-07 -6.50412e-07 -7.70618e-08)
(-8.08056e-08 -4.57542e-07 -2.94044e-08)
(1.46324e-07 -3.45955e-07 -2.85933e-09)
(2.68692e-07 -2.76265e-07 1.31255e-08)
(3.134e-07 -2.29761e-07 2.39284e-08)
(2.9697e-07 -1.9705e-07 3.17827e-08)
(2.32649e-07 -1.73769e-07 3.75721e-08)
(1.32666e-07 -1.5795e-07 4.15515e-08)
(9.52188e-09 -1.4877e-07 4.37323e-08)
(-1.23946e-07 -1.45708e-07 4.41189e-08)
(-2.55134e-07 -1.48173e-07 4.28027e-08)
(-3.72517e-07 -1.55329e-07 3.99999e-08)
(-4.66597e-07 -1.66039e-07 3.60563e-08)
(-5.30632e-07 -1.78951e-07 3.13989e-08)
(-5.61041e-07 -1.92617e-07 2.64852e-08)
(-5.57479e-07 -2.05608e-07 2.17492e-08)
(-5.22572e-07 -2.16498e-07 1.75725e-08)
(-4.61496e-07 -2.23844e-07 1.42508e-08)
(-3.81406e-07 -2.26025e-07 1.19594e-08)
(-2.90878e-07 -2.20983e-07 1.07297e-08)
(-1.9925e-07 -2.05882e-07 1.03825e-08)
(-1.1565e-07 -1.76818e-07 1.03658e-08)
(-4.87613e-08 -1.28346e-07 9.54039e-09)
(-5.2634e-09 -5.48258e-08 5.50781e-09)
(-1.11175e-06 -7.90663e-06 -1.11177e-06)
(-2.71731e-06 -5.47523e-06 -1.02704e-06)
(-2.57818e-06 -4.08405e-06 -7.58864e-07)
(-1.98922e-06 -2.58768e-06 -4.17605e-07)
(-1.21217e-06 -1.76678e-06 -2.17782e-07)
(-6.56957e-07 -1.2355e-06 -1.06474e-07)
(-2.28244e-07 -9.30019e-07 -4.35126e-08)
(6.3133e-08 -7.41243e-07 -8.14792e-09)
(2.52639e-07 -6.21432e-07 1.36542e-08)
(3.55723e-07 -5.40389e-07 2.82499e-08)
(3.86637e-07 -4.82564e-07 3.90232e-08)
(3.5623e-07 -4.39797e-07 4.73641e-08)
(2.75372e-07 -4.08256e-07 5.37482e-08)
(1.55892e-07 -3.86307e-07 5.82175e-08)
(1.1016e-08 -3.73282e-07 6.06692e-08)
(-1.45046e-07 -3.68671e-07 6.10564e-08)
(-2.98071e-07 -3.71709e-07 5.94583e-08)
(-4.34921e-07 -3.81182e-07 5.61106e-08)
(-5.44738e-07 -3.95374e-07 5.14126e-08)
(-6.19856e-07 -4.12233e-07 4.58492e-08)
(-6.56247e-07 -4.29512e-07 3.99454e-08)
(-6.53613e-07 -4.44943e-07 3.41913e-08)
(-6.1502e-07 -4.56258e-07 2.90028e-08)
(-5.46358e-07 -4.61118e-07 2.4688e-08)
(-4.55626e-07 -4.56864e-07 2.14144e-08)
(-3.52212e-07 -4.40168e-07 1.91875e-08)
(-2.46173e-07 -4.06504e-07 1.77931e-08)
(-1.47128e-07 -3.49474e-07 1.65996e-08)
(-6.48629e-08 -2.59134e-07 1.43634e-08)
(-7.60363e-09 -1.18542e-07 7.91285e-09)
(-3.88205e-07 -2.34619e-06 -3.88223e-07)
(-1.45144e-06 -3.08716e-06 -4.87483e-07)
(-1.36935e-06 -2.81145e-06 -3.63636e-07)
(-1.09615e-06 -2.18985e-06 -2.18159e-07)
(-6.76228e-07 -1.74622e-06 -1.17547e-07)
(-3.17584e-07 -1.41338e-06 -5.4777e-08)
(-1.51935e-08 -1.19224e-06 -1.53981e-08)
(2.07824e-07 -1.03949e-06 9.41517e-09)
(3.57909e-07 -9.31953e-07 2.65917e-08)
(4.37403e-07 -8.52488e-07 3.94803e-08)
(4.51598e-07 -7.91526e-07 4.98757e-08)
(4.06651e-07 -7.43937e-07 5.84236e-08)
(3.11029e-07 -7.07488e-07 6.5199e-08)
(1.75717e-07 -6.81456e-07 7.00294e-08)
(1.40958e-08 -6.65686e-07 7.26786e-08)
(-1.58872e-07 -6.59856e-07 7.30401e-08)
(-3.27951e-07 -6.63143e-07 7.11761e-08)
(-4.78936e-07 -6.74054e-07 6.73364e-08)
(-6.00066e-07 -6.9036e-07 6.19783e-08)
(-6.83086e-07 -7.0935e-07 5.56413e-08)
(-7.23749e-07 -7.28032e-07 4.89186e-08)
(-7.21875e-07 -7.43359e-07 4.23498e-08)
(-6.80877e-07 -7.52242e-07 3.63822e-08)
(-6.07134e-07 -7.51479e-07 3.13338e-08)
(-5.09154e-07 -7.37409e-07 2.73703e-08)
(-3.96753e-07 -7.05408e-07 2.44811e-08)
(-2.80358e-07 -6.49113e-07 2.24337e-08)
(-1.69922e-07 -5.59103e-07 2.05449e-08)
(-7.62489e-08 -4.19466e-07 1.74872e-08)
(-9.15231e-09 -1.97898e-07 9.52961e-09)
(-1.83615e-07 -1.60512e-06 -1.83635e-07)
(-6.09133e-07 -2.20385e-06 -2.19416e-07)
(-6.31482e-07 -2.2416e-06 -1.69243e-07)
(-5.13412e-07 -2.0149e-06 -1.06055e-07)
(-2.8103e-07 -1.80056e-06 -5.54689e-08)
(-4.67457e-08 -1.61187e-06 -2.03726e-08)
(1.67737e-07 -1.46798e-06 4.3087e-09)
(3.36399e-07 -1.35665e-06 2.20213e-08)
(4.51833e-07 -1.2697e-06 3.59364e-08)
(5.08827e-07 -1.19954e-06 4.76003e-08)
(5.06852e-07 -1.14177e-06 5.7775e-08)
(4.48579e-07 -1.09425e-06 6.65728e-08)
(3.40479e-07 -1.05649e-06 7.37469e-08)
(1.92639e-07 -1.02882e-06 7.8936e-08)
(1.83546e-08 -1.0117e-06 8.17738e-08)
(-1.67019e-07 -1.00508e-06 8.21002e-08)
(-3.47638e-07 -1.00816e-06 7.99599e-08)
(-5.08589e-07 -1.01929e-06 7.56161e-08)
(-6.37519e-07 -1.03585e-06 6.95909e-08)
(-7.25825e-07 -1.05463e-06 6.24895e-08)
(-7.69205e-07 -1.07205e-06 5.49833e-08)
(-7.67639e-07 -1.08439e-06 4.76629e-08)
(-7.24869e-07 -1.08789e-06 4.1009e-08)
(-6.47641e-07 -1.07859e-06 3.53557e-08)
(-5.44772e-07 -1.05189e-06 3.08681e-08)
(-4.26319e-07 -1.00187e-06 2.75245e-08)
(-3.02913e-07 -9.20155e-07 2.50778e-08)
(-1.84754e-07 -7.93794e-07 2.28082e-08)
(-8.34536e-08 -5.9972e-07 1.9319e-08)
(-1.00711e-08 -2.87614e-07 1.05131e-08)
(-6.97258e-08 -1.02059e-06 -6.9747e-08)
(-2.57487e-07 -1.70342e-06 -9.14772e-08)
(-2.62253e-07 -1.94864e-06 -7.18735e-08)
(-1.82042e-07 -1.96065e-06 -4.40383e-08)
(-2.75179e-08 -1.90851e-06 -1.84988e-08)
(1.41855e-07 -1.83163e-06 1.43432e-09)
(3.0362e-07 -1.75674e-06 1.74464e-08)
(4.35154e-07 -1.68793e-06 3.07068e-08)
(5.24564e-07 -1.62647e-06 4.25142e-08)
(5.63464e-07 -1.57141e-06 5.34199e-08)
(5.48241e-07 -1.52238e-06 6.35528e-08)
(4.79414e-07 -1.47973e-06 7.26634e-08)
(3.62041e-07 -1.44449e-06 8.02526e-08)
(2.05483e-07 -1.41791e-06 8.58001e-08)
(2.28355e-08 -1.40104e-06 8.8817e-08)
(-1.70394e-07 -1.39406e-06 8.91048e-08)
(-3.58105e-07 -1.3963e-06 8.6693e-08)
(-5.24987e-07 -1.40604e-06 8.18477e-08)
(-6.58352e-07 -1.4205e-06 7.5161e-08)
(-7.49456e-07 -1.43617e-06 6.73107e-08)
(-7.94037e-07 -1.44909e-06 5.90486e-08)
(-7.923e-07 -1.45514e-06 5.10206e-08)
(-7.48284e-07 -1.45007e-06 4.37498e-08)
(-6.68994e-07 -1.42933e-06 3.75793e-08)
(-5.63435e-07 -1.38744e-06 3.26759e-08)
(-4.41744e-07 -1.3172e-06 2.90065e-08)
(-3.14612e-07 -1.2081e-06 2.63119e-08)
(-1.92354e-07 -1.04325e-06 2.38494e-08)
(-8.70437e-08 -7.9159e-07 2.01724e-08)
(-1.04943e-08 -3.83269e-07 1.09939e-08)
(-2.66278e-08 -8.309e-07 -2.66495e-08)
(-8.79112e-08 -1.53871e-06 -3.47957e-08)
(-6.52075e-08 -1.88349e-06 -2.54136e-08)
(9.41194e-09 -2.02504e-06 -1.19548e-08)
(1.30007e-07 -2.07627e-06 1.82385e-09)
(2.6438e-07 -2.07899e-06 1.40532e-08)
(3.94014e-07 -2.06008e-06 2.53411e-08)
(5.00407e-07 -2.03042e-06 3.60452e-08)
(5.70966e-07 -1.99602e-06 4.66162e-08)
(5.96339e-07 -1.9598e-06 5.71143e-08)
(5.71482e-07 -1.92393e-06 6.73126e-08)
(4.95679e-07 -1.89042e-06 7.67267e-08)
(3.73052e-07 -1.86137e-06 8.46766e-08)
(2.12355e-07 -1.83864e-06 9.05291e-08)
(2.63877e-08 -1.82362e-06 9.36878e-08)
(-1.69472e-07 -1.81669e-06 9.39369e-08)
(-3.59263e-07 -1.81727e-06 9.12931e-08)
(-5.27628e-07 -1.82378e-06 8.60135e-08)
(-6.61802e-07 -1.83344e-06 7.87585e-08)
(-7.5309e-07 -1.84275e-06 7.02609e-08)
(-7.9738e-07 -1.84767e-06 6.13499e-08)
(-7.95117e-07 -1.84392e-06 5.27281e-08)
(-7.50562e-07 -1.82702e-06 4.49574e-08)
(-6.70853e-07 -1.79196e-06 3.83856e-08)
(-5.65042e-07 -1.73258e-06 3.31785e-08)
(-4.43176e-07 -1.64039e-06 2.92896e-08)
(-3.15809e-07 -1.5026e-06 2.64552e-08)
(-1.93168e-07 -1.29819e-06 2.39215e-08)
(-8.73864e-08 -9.87686e-07 2.02281e-08)
(-1.05026e-08 -4.81051e-07 1.10512e-08)
(-7.21042e-09 -7.7424e-07 -7.23252e-09)
(-8.85914e-09 -1.5211e-06 -8.04967e-09)
(3.51461e-08 -1.93326e-06 -2.717e-09)
(1.12363e-07 -2.15735e-06 4.44621e-09)
(2.17666e-07 -2.28025e-06 1.25237e-08)
(3.32199e-07 -2.3425e-06 2.07573e-08)
(4.41399e-07 -2.36987e-06 2.94173e-08)
(5.30378e-07 -2.37601e-06 3.85881e-08)
(5.8738e-07 -2.36919e-06 4.83481e-08)
(6.03221e-07 -2.35434e-06 5.85196e-08)
(5.72433e-07 -2.33506e-06 6.86868e-08)
(4.93696e-07 -2.31429e-06 7.82314e-08)
(3.70534e-07 -2.29462e-06 8.63533e-08)
(2.11142e-07 -2.27815e-06 9.23521e-08)
(2.7849e-08 -2.26642e-06 9.55513e-08)
(-1.64477e-07 -2.25984e-06 9.57631e-08)
(-3.50483e-07 -2.25796e-06 9.2996e-08)
(-5.15197e-07 -2.25942e-06 8.7456e-08)
(-6.46115e-07 -2.26171e-06 7.98543e-08)
(-7.34793e-07 -2.26155e-06 7.09578e-08)
(-7.77311e-07 -2.25511e-06 6.16575e-08)
(-7.74339e-07 -2.23828e-06 5.26883e-08)
(-7.30249e-07 -2.20657e-06 4.46324e-08)
(-6.52162e-07 -2.15473e-06 3.78462e-08)
(-5.48947e-07 -2.076e-06 3.2489e-08)
(-4.30344e-07 -1.96066e-06 2.85092e-08)
(-3.06531e-07 -1.79369e-06 2.5637e-08)
(-1.87381e-07 -1.54982e-06 2.31308e-08)
(-8.46662e-08 -1.18109e-06 1.95663e-08)
(-1.01355e-08 -5.77451e-07 1.0724e-08)
(9.46092e-10 -7.85783e-07 9.2416e-10)
(2.68911e-08 -1.58187e-06 3.78211e-09)
(8.22046e-08 -2.04603e-06 7.51202e-09)
(1.60205e-07 -2.32698e-06 1.19219e-08)
(2.55505e-07 -2.50161e-06 1.72383e-08)
(3.55883e-07 -2.60948e-06 2.33504e-08)
(4.49839e-07 -2.67536e-06 3.04527e-08)
(5.25333e-07 -2.71383e-06 3.85547e-08)
(5.71969e-07 -2.73406e-06 4.75985e-08)
(5.81305e-07 -2.74188e-06 5.73033e-08)
(5.48004e-07 -2.74141e-06 6.71643e-08)
(4.70543e-07 -2.73584e-06 7.65071e-08)
(3.52044e-07 -2.7278e-06 8.44686e-08)
(2.00079e-07 -2.71938e-06 9.03447e-08)
(2.62454e-08 -2.71197e-06 9.34336e-08)
(-1.55537e-07 -2.70595e-06 9.36092e-08)
(-3.31133e-07 -2.701e-06 9.08726e-08)
(-4.86455e-07 -2.69603e-06 8.53496e-08)
(-6.09613e-07 -2.68891e-06 7.77666e-08)
(-6.9264e-07 -2.67685e-06 6.88712e-08)
(-7.31912e-07 -2.65647e-06 5.95747e-08)
(-7.28241e-07 -2.62405e-06 5.06276e-08)
(-6.85937e-07 -2.57532e-06 4.26161e-08)
(-6.11879e-07 -2.50501e-06 3.58914e-08)
(-5.14481e-07 -2.40585e-06 3.06007e-08)
(-4.02922e-07 -2.26702e-06 2.66884e-08)
(-2.86712e-07 -2.07132e-06 2.38981e-08)
(-1.75052e-07 -1.78937e-06 2.15243e-08)
(-7.89525e-08 -1.36503e-06 1.82203e-08)
(-9.40793e-09 -6.69101e-07 1.0028e-08)
(4.10481e-09 -8.245e-07 4.08055e-09)
(4.00542e-08 -1.67463e-06 8.35825e-09)
(9.75809e-08 -2.1829e-06 1.12988e-08)
(1.71477e-07 -2.50662e-06 1.43599e-08)
(2.56248e-07 -2.72061e-06 1.81948e-08)
(3.43224e-07 -2.86453e-06 2.30011e-08)
(4.2325e-07 -2.96274e-06 2.89564e-08)
(4.86621e-07 -3.03003e-06 3.60663e-08)
(5.24481e-07 -3.07583e-06 4.42169e-08)
(5.29424e-07 -3.10614e-06 5.31036e-08)
(4.96616e-07 -3.12504e-06 6.22018e-08)
(4.24594e-07 -3.13556e-06 7.08423e-08)
(3.16146e-07 -3.14009e-06 7.81797e-08)
(1.78093e-07 -3.14042e-06 8.35677e-08)
(2.09434e-08 -3.13775e-06 8.63362e-08)
(-1.42861e-07 -3.13242e-06 8.64757e-08)
(-3.00975e-07 -3.12419e-06 8.39824e-08)
(-4.40762e-07 -3.11223e-06 7.88537e-08)
(-5.5139e-07 -3.09484e-06 7.17716e-08)
(-6.25631e-07 -3.06977e-06 6.3412e-08)
(-6.60203e-07 -3.03424e-06 5.4668e-08)
(-6.55959e-07 -2.98507e-06 4.62483e-08)
(-6.16965e-07 -2.91843e-06 3.87156e-08)
(-5.49576e-07 -2.82915e-06 3.2405e-08)
(-4.6146e-07 -2.70964e-06 2.7457e-08)
(-3.609e-07 -2.54811e-06 2.38175e-08)
(-2.56436e-07 -2.32536e-06 2.12465e-08)
(-1.56306e-07 -2.00817e-06 1.91137e-08)
(-7.03321e-08 -1.53288e-06 1.62094e-08)
(-8.32902e-09 -7.5271e-07 8.97304e-09)
(4.77819e-09 -8.70796e-07 4.75257e-09)
(4.06478e-08 -1.77303e-06 9.11809e-09)
(9.30431e-08 -2.31867e-06 1.14821e-08)
(1.57447e-07 -2.67557e-06 1.37374e-08)
(2.2879e-07 -2.92002e-06 1.66132e-08)
(3.00681e-07 -3.09255e-06 2.04227e-08)
(3.65973e-07 -3.21748e-06 2.53233e-08)
(4.17041e-07 -3.30966e-06 3.13234e-08)
(4.46655e-07 -3.37839e-06 3.82999e-08)
(4.48672e-07 -3.42947e-06 4.59662e-08)
(4.19e-07 -3.46662e-06 5.38332e-08)
(3.56377e-07 -3.49248e-06 6.12911e-08)
(2.63207e-07 -3.50903e-06 6.75749e-08)
(1.45353e-07 -3.51773e-06 7.21512e-08)
(1.18286e-08 -3.51956e-06 7.44333e-08)
(-1.2689e-07 -3.51497e-06 7.45333e-08)
(-2.60713e-07 -3.50376e-06 7.24414e-08)
(-3.78983e-07 -3.48518e-06 6.80288e-08)
(-4.72361e-07 -3.4579e-06 6.18981e-08)
(-5.34636e-07 -3.42016e-06 5.45992e-08)
(-5.63018e-07 -3.36985e-06 4.69376e-08)
(-5.58334e-07 -3.30444e-06 3.95478e-08)
(-5.24184e-07 -3.22059e-06 3.29395e-08)
(-4.66086e-07 -3.11332e-06 2.74121e-08)
(-3.90661e-07 -2.97489e-06 2.30898e-08)
(-3.04976e-07 -2.79271e-06 1.99296e-08)
(-2.16268e-07 -2.54584e-06 1.77267e-08)
(-1.31508e-07 -2.19775e-06 1.59497e-08)
(-5.89735e-08 -1.6782e-06 1.35736e-08)
(-6.91803e-09 -8.25095e-07 7.57857e-09)
(4.15718e-09 -9.13253e-07 4.1258e-09)
(3.37212e-08 -1.85984e-06 7.75595e-09)
(7.53069e-08 -2.43534e-06 9.52872e-09)
(1.25332e-07 -2.8174e-06 1.1153e-08)
(1.79739e-07 -3.08487e-06 1.32485e-08)
(2.33984e-07 -3.2794e-06 1.61125e-08)
(2.82835e-07 -3.42544e-06 1.98744e-08)
(3.20664e-07 -3.53785e-06 2.45374e-08)
(3.41996e-07 -3.62564e-06 2.99893e-08)
(3.42118e-07 -3.69423e-06 3.59863e-08)
(3.17829e-07 -3.74688e-06 4.2122e-08)
(2.68135e-07 -3.78571e-06 4.79051e-08)
(1.94966e-07 -3.81224e-06 5.27075e-08)
(1.02944e-07 -3.82778e-06 5.61472e-08)
(-8.26766e-10 -3.83328e-06 5.77908e-08)
(-1.08243e-07 -3.82938e-06 5.78427e-08)
(-2.11744e-07 -3.81594e-06 5.62987e-08)
(-3.03074e-07 -3.7921e-06 5.29287e-08)
(-3.74863e-07 -3.75666e-06 4.81851e-08)
(-4.22236e-07 -3.70822e-06 4.24695e-08)
(-4.43026e-07 -3.64524e-06 3.64346e-08)
(-4.37984e-07 -3.56578e-06 3.05921e-08)
(-4.10039e-07 -3.46702e-06 2.53664e-08)
(-3.63616e-07 -3.34431e-06 2.09956e-08)
(-3.03969e-07 -3.1898e-06 1.75897e-08)
(-2.3664e-07 -2.99031e-06 1.51174e-08)
(-1.67286e-07 -2.72357e-06 1.3425e-08)
(-1.01333e-07 -2.35037e-06 1.21066e-08)
(-4.51871e-08 -1.79512e-06 1.03774e-08)
(-5.21377e-09 -8.83345e-07 5.8853e-09)
(2.80587e-09 -9.45094e-07 2.77091e-09)
(2.2096e-08 -1.92378e-06 5.15759e-09)
(4.87097e-08 -2.52023e-06 6.27401e-09)
(8.04456e-08 -2.91957e-06 7.30162e-09)
(1.1474e-07 -3.20301e-06 8.66274e-09)
(1.48857e-07 -3.41312e-06 1.0568e-08)
(1.79508e-07 -3.57452e-06 1.30972e-08)
(2.03088e-07 -3.70198e-06 1.62591e-08)
(2.16009e-07 -3.80421e-06 1.99797e-08)
(2.15092e-07 -3.88616e-06 2.40887e-08)
(1.98151e-07 -3.95062e-06 2.82994e-08)
(1.64415e-07 -3.99928e-06 3.22681e-08)
(1.1511e-07 -4.03329e-06 3.55515e-08)
(5.3305e-08 -4.05387e-06 3.78966e-08)
(-1.61865e-08 -4.06204e-06 3.89936e-08)
(-8.78484e-08 -4.05873e-06 3.89928e-08)
(-1.56579e-07 -4.04384e-06 3.7895e-08)
(-2.16752e-07 -4.01629e-06 3.55246e-08)
(-2.63385e-07 -3.97489e-06 3.22184e-08)
(-2.93294e-07 -3.91843e-06 2.82462e-08)
(-3.05133e-07 -3.84582e-06 2.40778e-08)
(-2.996e-07 -3.75562e-06 2.00583e-08)
(-2.7883e-07 -3.64545e-06 1.64815e-08)
(-2.45934e-07 -3.51096e-06 1.35131e-08)
(-2.04514e-07 -3.34436e-06 1.12222e-08)
(-1.58348e-07 -3.13205e-06 9.58662e-09)
(-1.11243e-07 -2.8508e-06 8.513e-09)
(-6.6849e-08 -2.45949e-06 7.73768e-09)
(-2.94546e-08 -1.87869e-06 6.74173e-09)
(-3.27386e-09 -9.25005e-07 3.95e-09)
(1.03951e-09 -9.62094e-07 9.97101e-10)
(7.58094e-09 -1.95735e-06 1.82557e-09)
(1.64004e-08 -2.56455e-06 2.21443e-09)
(2.70537e-08 -2.97306e-06 2.63401e-09)
(3.8851e-08 -3.26543e-06 3.24736e-09)
(5.08962e-08 -3.48471e-06 4.13651e-09)
(6.19281e-08 -3.65553e-06 5.33788e-09)
(7.0428e-08 -3.79249e-06 6.85168e-09)
(7.47752e-08 -3.90398e-06 8.63797e-09)
(7.34246e-08 -3.99465e-06 1.06216e-08)
(6.52134e-08 -4.06689e-06 1.26671e-08)
(4.95692e-08 -4.12203e-06 1.4616e-08)
(2.68752e-08 -4.161e-06 1.62521e-08)
(-1.58114e-09 -4.18495e-06 1.74378e-08)
(-3.3577e-08 -4.19493e-06 1.79859e-08)
(-6.63202e-08 -4.19207e-06 1.79244e-08)
(-9.71261e-08 -4.17627e-06 1.727e-08)
(-1.2316e-07 -4.14634e-06 1.59671e-08)
(-1.42123e-07 -4.10116e-06 1.42464e-08)
(-1.5275e-07 -4.03962e-06 1.22431e-08)
(-1.54697e-07 -3.96091e-06 1.01957e-08)
(-1.48611e-07 -3.86396e-06 8.2679e-09)
(-1.35715e-07 -3.74671e-06 6.59057e-09)
(-1.17654e-07 -3.60502e-06 5.23e-09)
(-9.6196e-08 -3.43114e-06 4.2165e-09)
(-7.31455e-08 -3.21129e-06 3.54078e-09)
(-5.03007e-08 -2.92169e-06 3.1642e-09)
(-2.93881e-08 -2.52019e-06 2.98975e-09)
(-1.23782e-08 -1.92517e-06 2.79639e-09)
(-1.16887e-09 -9.4821e-07 1.84515e-09)
(-9.36401e-10 -9.6182e-07 -9.86543e-10)
(-8.47994e-09 -1.95606e-06 -1.87958e-09)
(-1.90288e-08 -2.5629e-06 -2.25423e-09)
(-3.10153e-08 -2.9722e-06 -2.44773e-09)
(-4.30339e-08 -3.26643e-06 -2.5731e-09)
(-5.40976e-08 -3.48849e-06 -2.69363e-09)
(-6.33875e-08 -3.66278e-06 -2.82909e-09)
(-7.03246e-08 -3.80362e-06 -2.97995e-09)
(-7.45519e-08 -3.91921e-06 -3.12509e-09)
(-7.59374e-08 -4.01398e-06 -3.22773e-09)
(-7.46066e-08 -4.09012e-06 -3.25185e-09)
(-7.0953e-08 -4.14875e-06 -3.17747e-09)
(-6.55819e-08 -4.19061e-06 -3.00875e-09)
(-5.91244e-08 -4.21671e-06 -2.80455e-09)
(-5.20521e-08 -4.22793e-06 -2.67955e-09)
(-4.43495e-08 -4.22533e-06 -2.7906e-09)
(-3.5735e-08 -4.20888e-06 -3.1059e-09)
(-2.62176e-08 -4.17751e-06 -3.5073e-09)
(-1.62986e-08 -4.13028e-06 -3.81557e-09)
(-6.76433e-09 -4.06631e-06 -3.97779e-09)
(1.65231e-09 -3.98499e-06 -3.9727e-09)
(8.35172e-09 -3.88541e-06 -3.83073e-09)
(1.30356e-08 -3.76564e-06 -3.59566e-09)
(1.56475e-08 -3.62167e-06 -3.31303e-09)
(1.6324e-08 -3.44575e-06 -3.01316e-09)
(1.53168e-08 -3.22409e-06 -2.70116e-09)
(1.29421e-08 -2.93282e-06 -2.35364e-09)
(9.46688e-09 -2.52958e-06 -1.91008e-09)
(5.32084e-09 -1.93238e-06 -1.28231e-09)
(1.00822e-09 -9.5188e-07 -3.36096e-10)
(-2.97829e-09 -9.43183e-07 -3.03713e-09)
(-2.49994e-08 -1.91789e-06 -5.7012e-09)
(-5.53409e-08 -2.5129e-06 -6.8505e-09)
(-9.03224e-08 -2.91454e-06 -7.65027e-09)
(-1.26378e-07 -3.20367e-06 -8.50786e-09)
(-1.60648e-07 -3.42226e-06 -9.64108e-09)
(-1.90281e-07 -3.59412e-06 -1.11256e-08)
(-2.12652e-07 -3.7333e-06 -1.29727e-08)
(-2.25446e-07 -3.8478e-06 -1.51198e-08)
(-2.2689e-07 -3.94201e-06 -1.74422e-08)
(-2.16068e-07 -4.01811e-06 -1.97353e-08)
(-1.9314e-07 -4.07721e-06 -2.17816e-08)
(-1.59568e-07 -4.11992e-06 -2.33476e-08)
(-1.17823e-07 -4.14694e-06 -2.43736e-08)
(-7.10722e-08 -4.15882e-06 -2.48217e-08)
(-2.22377e-08 -4.15637e-06 -2.49756e-08)
(2.63156e-08 -4.13957e-06 -2.47874e-08)
(7.1591e-08 -4.10768e-06 -2.40131e-08)
(1.10308e-07 -4.0602e-06 -2.26189e-08)
(1.39734e-07 -3.99654e-06 -2.06834e-08)
(1.58174e-07 -3.9162e-06 -1.84209e-08)
(1.6518e-07 -3.81828e-06 -1.60681e-08)
(1.61434e-07 -3.70079e-06 -1.38344e-08)
(1.48465e-07 -3.55963e-06 -1.18628e-08)
(1.28325e-07 -3.38711e-06 -1.02255e-08)
(1.03312e-07 -3.16952e-06 -8.91095e-09)
(7.58172e-08 -2.88336e-06 -7.83631e-09)
(4.8081e-08 -2.48698e-06 -6.77637e-09)
(2.29042e-08 -1.89978e-06 -5.33412e-09)
(3.17076e-09 -9.35744e-07 -2.50654e-09)
(-4.96087e-09 -9.06222e-07 -5.02555e-09)
(-4.10225e-08 -1.84298e-06 -9.40552e-09)
(-9.05026e-08 -2.41486e-06 -1.12948e-08)
(-1.47634e-07 -2.8007e-06 -1.26607e-08)
(-2.06768e-07 -3.07805e-06 -1.41949e-08)
(-2.63247e-07 -3.28718e-06 -1.62641e-08)
(-3.12321e-07 -3.45097e-06 -1.90118e-08)
(-3.4946e-07 -3.58296e-06 -2.24574e-08)
(-3.70523e-07 -3.69103e-06 -2.65072e-08)
(-3.72196e-07 -3.77966e-06 -3.09567e-08)
(-3.52515e-07 -3.8512e-06 -3.54633e-08)
(-3.11329e-07 -3.90687e-06 -3.96437e-08)
(-2.50796e-07 -3.94741e-06 -4.3035e-08)
(-1.74992e-07 -3.97331e-06 -4.54124e-08)
(-8.9647e-08 -3.98486e-06 -4.65379e-08)
(-6.90273e-10 -3.98248e-06 -4.67051e-08)
(8.66224e-08 -3.96616e-06 -4.58722e-08)
(1.66244e-07 -3.93561e-06 -4.37697e-08)
(2.32277e-07 -3.89071e-06 -4.05737e-08)
(2.80307e-07 -3.83101e-06 -3.65193e-08)
(3.07886e-07 -3.75596e-06 -3.20494e-08)
(3.14826e-07 -3.66444e-06 -2.75777e-08)
(3.028e-07 -3.55426e-06 -2.34494e-08)
(2.74849e-07 -3.42113e-06 -1.98896e-08)
(2.34831e-07 -3.25734e-06 -1.70007e-08)
(1.86959e-07 -3.04958e-06 -1.47581e-08)
(1.35563e-07 -2.77514e-06 -1.30116e-08)
(8.47683e-08 -2.39393e-06 -1.13763e-08)
(3.96037e-08 -1.82855e-06 -9.17393e-09)
(5.22088e-09 -9.00367e-07 -4.56824e-09)
(-6.77935e-09 -8.52e-07 -6.85308e-09)
(-5.57213e-08 -1.73352e-06 -1.28094e-08)
(-1.22726e-07 -2.27171e-06 -1.53721e-08)
(-2.00094e-07 -2.63423e-06 -1.72425e-08)
(-2.80244e-07 -2.89373e-06 -1.93692e-08)
(-3.56915e-07 -3.08801e-06 -2.22638e-08)
(-4.23645e-07 -3.23862e-06 -2.61194e-08)
(-4.74204e-07 -3.35846e-06 -3.09844e-08)
(-5.0285e-07 -3.45519e-06 -3.67529e-08)
(-5.04874e-07 -3.53336e-06 -4.31606e-08)
(-4.77363e-07 -3.59568e-06 -4.9773e-08)
(-4.19817e-07 -3.64374e-06 -5.60487e-08)
(-3.34844e-07 -3.67854e-06 -6.13198e-08)
(-2.27858e-07 -3.7007e-06 -6.51529e-08)
(-1.06804e-07 -3.71053e-06 -6.70712e-08)
(1.94681e-08 -3.70816e-06 -6.72373e-08)
(1.42565e-07 -3.69365e-06 -6.56194e-08)
(2.5349e-07 -3.66703e-06 -6.20613e-08)
(3.44101e-07 -3.62816e-06 -5.69888e-08)
(4.0863e-07 -3.5765e-06 -5.08411e-08)
(4.44111e-07 -3.51122e-06 -4.42775e-08)
(4.50687e-07 -3.43076e-06 -3.78544e-08)
(4.30955e-07 -3.33257e-06 -3.20225e-08)
(3.89327e-07 -3.21217e-06 -2.70529e-08)
(3.31262e-07 -3.06199e-06 -2.30655e-08)
(2.62675e-07 -2.8693e-06 -2.00108e-08)
(1.89649e-07 -2.61261e-06 -1.76763e-08)
(1.17978e-07 -2.25422e-06 -1.55384e-08)
(5.47199e-08 -1.72156e-06 -1.26521e-08)
(7.07542e-09 -8.47167e-07 -6.43829e-09)
(-8.35598e-09 -7.8239e-07 -8.43433e-09)
(-6.84171e-08 -1.5933e-06 -1.57502e-08)
(-1.50501e-07 -2.08851e-06 -1.88828e-08)
(-2.45239e-07 -2.42121e-06 -2.11663e-08)
(-3.43379e-07 -2.65778e-06 -2.37598e-08)
(-4.37275e-07 -2.8328e-06 -2.7289e-08)
(-5.19003e-07 -2.96613e-06 -3.19961e-08)
(-5.80897e-07 -3.06981e-06 -3.79506e-08)
(-6.15876e-07 -3.1512e-06 -4.50353e-08)
(-6.18114e-07 -3.215e-06 -5.295e-08)
(-5.83894e-07 -3.26423e-06 -6.11814e-08)
(-5.12408e-07 -3.30099e-06 -6.90779e-08)
(-4.06591e-07 -3.32683e-06 -7.58256e-08)
(-2.72954e-07 -3.3428e-06 -8.08111e-08)
(-1.21261e-07 -3.34953e-06 -8.33828e-08)
(3.70773e-08 -3.3472e-06 -8.35361e-08)
(1.90801e-07 -3.33592e-06 -8.12466e-08)
(3.28372e-07 -3.31568e-06 -7.65147e-08)
(4.39787e-07 -3.28603e-06 -6.99579e-08)
(5.18189e-07 -3.24601e-06 -6.21852e-08)
(5.6028e-07 -3.19423e-06 -5.401e-08)
(5.66497e-07 -3.12862e-06 -4.6091e-08)
(5.40221e-07 -3.04622e-06 -3.89571e-08)
(4.86975e-07 -2.94238e-06 -3.29151e-08)
(4.13556e-07 -2.80976e-06 -2.80904e-08)
(3.27326e-07 -2.63643e-06 -2.44118e-08)
(2.35854e-07 -2.40253e-06 -2.16222e-08)
(1.46363e-07 -2.07354e-06 -1.90794e-08)
(6.76467e-08 -1.58311e-06 -1.56249e-08)
(8.66168e-09 -7.78274e-07 -8.0445e-09)
(-9.62123e-09 -6.99957e-07 -9.70526e-09)
(-7.85819e-08 -1.42749e-06 -1.81168e-08)
(-1.72693e-07 -1.87213e-06 -2.16981e-08)
(-2.81249e-07 -2.16984e-06 -2.42812e-08)
(-3.9365e-07 -2.37962e-06 -2.7192e-08)
(-5.01124e-07 -2.53226e-06 -3.11459e-08)
(-5.9458e-07 -2.64562e-06 -3.64211e-08)
(-6.6523e-07 -2.73068e-06 -4.30931e-08)
(-7.04971e-07 -2.79447e-06 -5.10319e-08)
(-7.07122e-07 -2.84168e-06 -5.9917e-08)
(-6.67399e-07 -2.87572e-06 -6.91903e-08)
(-5.84816e-07 -2.89923e-06 -7.81379e-08)
(-4.62559e-07 -2.91438e-06 -8.58546e-08)
(-3.07972e-07 -2.92283e-06 -9.15999e-08)
(-1.32202e-07 -2.92574e-06 -9.46164e-08)
(5.13622e-08 -2.92353e-06 -9.47495e-08)
(2.29102e-07 -2.91631e-06 -9.19843e-08)
(3.87503e-07 -2.90385e-06 -8.6465e-08)
(5.15189e-07 -2.88515e-06 -7.89196e-08)
(6.04491e-07 -2.85871e-06 -7.00884e-08)
(6.51854e-07 -2.82246e-06 -6.08761e-08)
(6.57899e-07 -2.77377e-06 -5.19979e-08)
(6.2658e-07 -2.70927e-06 -4.40222e-08)
(5.64273e-07 -2.6243e-06 -3.72829e-08)
(4.78788e-07 -2.51182e-06 -3.19063e-08)
(3.78627e-07 -2.36087e-06 -2.78155e-08)
(2.72541e-07 -2.15359e-06 -2.47227e-08)
(1.68908e-07 -1.8592e-06 -2.18917e-08)
(7.79203e-08 -1.41873e-06 -1.79979e-08)
(9.9212e-09 -6.96414e-07 -9.32898e-09)
(-1.05352e-08 -6.07759e-07 -1.0621e-08)
(-8.58586e-08 -1.24225e-06 -1.98248e-08)
(-1.88522e-07 -1.63067e-06 -2.3716e-08)
(-3.06887e-07 -1.88971e-06 -2.64822e-08)
(-4.29397e-07 -2.07017e-06 -2.9561e-08)
(-5.46454e-07 -2.19869e-06 -3.37224e-08)
(-6.48089e-07 -2.29091e-06 -3.92595e-08)
(-7.24704e-07 -2.35664e-06 -4.62501e-08)
(-7.67483e-07 -2.4024e-06 -5.45519e-08)
(-7.69196e-07 -2.43282e-06 -6.38295e-08)
(-7.25268e-07 -2.45158e-06 -7.35117e-08)
(-6.34656e-07 -2.4618e-06 -8.28558e-08)
(-5.00779e-07 -2.46623e-06 -9.09422e-08)
(-3.31583e-07 -2.46715e-06 -9.69745e-08)
(-1.39133e-07 -2.46622e-06 -1.00173e-07)
(6.1863e-08 -2.46418e-06 -1.00284e-07)
(2.56187e-07 -2.46115e-06 -9.72982e-08)
(4.29022e-07 -2.45656e-06 -9.14581e-08)
(5.6807e-07 -2.44892e-06 -8.35238e-08)
(6.65098e-07 -2.4361e-06 -7.42868e-08)
(7.16334e-07 -2.41541e-06 -6.46645e-08)
(7.2248e-07 -2.38378e-06 -5.54048e-08)
(6.87789e-07 -2.33755e-06 -4.70806e-08)
(6.19178e-07 -2.27204e-06 -4.00386e-08)
(5.25181e-07 -2.18076e-06 -3.44179e-08)
(4.15113e-07 -2.05387e-06 -3.01373e-08)
(2.9862e-07 -1.87571e-06 -2.689e-08)
(1.84929e-07 -1.6196e-06 -2.389e-08)
(8.52247e-08 -1.2348e-06 -1.97015e-08)
(1.08166e-08 -6.04752e-07 -1.0256e-08)
(-1.1066e-08 -5.09154e-07 -1.11517e-08)
(-8.99903e-08 -1.04437e-06 -2.08164e-08)
(-1.97491e-07 -1.373e-06 -2.48764e-08)
(-3.21471e-07 -1.59125e-06 -2.77111e-08)
(-4.49827e-07 -1.74121e-06 -3.0818e-08)
(-5.72434e-07 -1.84519e-06 -3.49956e-08)
(-6.78748e-07 -1.9165e-06 -4.05349e-08)
(-7.58634e-07 -1.96369e-06 -4.75053e-08)
(-8.02857e-07 -1.99269e-06 -5.57618e-08)
(-8.03953e-07 -2.00795e-06 -6.49585e-08)
(-7.57245e-07 -2.01323e-06 -7.45277e-08)
(-6.61771e-07 -2.01194e-06 -8.37421e-08)
(-5.21169e-07 -2.00724e-06 -9.17198e-08)
(-3.43743e-07 -2.0018e-06 -9.76616e-08)
(-1.42026e-07 -1.99768e-06 -1.00826e-07)
(6.86153e-08 -1.99587e-06 -1.00918e-07)
(2.72086e-07 -1.99648e-06 -9.7933e-08)
(4.52922e-07 -1.99868e-06 -9.21511e-08)
(5.98389e-07 -2.00058e-06 -8.43039e-08)
(6.99914e-07 -1.99962e-06 -7.51867e-08)
(7.53541e-07 -1.99269e-06 -6.56756e-08)
(7.59909e-07 -1.97645e-06 -5.6502e-08)
(7.2338e-07 -1.94712e-06 -4.82369e-08)
(6.51121e-07 -1.90022e-06 -4.12277e-08)
(5.52097e-07 -1.82983e-06 -3.56196e-08)
(4.36154e-07 -1.72735e-06 -3.13379e-08)
(3.13533e-07 -1.57944e-06 -2.80752e-08)
(1.94016e-07 -1.36376e-06 -2.50246e-08)
(8.9346e-08 -1.03821e-06 -2.06877e-08)
(1.13222e-08 -5.06696e-07 -1.08001e-08)
(-1.11818e-08 -4.07745e-07 -1.12646e-08)
(-9.07759e-08 -8.41042e-07 -2.10286e-08)
(-1.99261e-07 -1.10849e-06 -2.50969e-08)
(-3.24622e-07 -1.28525e-06 -2.78815e-08)
(-4.54654e-07 -1.40469e-06 -3.08901e-08)
(-5.78975e-07 -1.48476e-06 -3.4919e-08)
(-6.86736e-07 -1.53648e-06 -4.02547e-08)
(-7.67518e-07 -1.5671e-06 -4.69551e-08)
(-8.11926e-07 -1.58183e-06 -5.48646e-08)
(-8.12462e-07 -1.58479e-06 -6.36353e-08)
(-7.64541e-07 -1.57962e-06 -7.27253e-08)
(-6.67376e-07 -1.56975e-06 -8.14436e-08)
(-5.24759e-07 -1.55845e-06 -8.89727e-08)
(-3.45125e-07 -1.54856e-06 -9.45636e-08)
(-1.41085e-07 -1.54228e-06 -9.75484e-08)
(7.19026e-08 -1.54076e-06 -9.76245e-08)
(2.77568e-07 -1.54406e-06 -9.47882e-08)
(4.60369e-07 -1.55122e-06 -8.93316e-08)
(6.07513e-07 -1.56015e-06 -8.19147e-08)
(7.10323e-07 -1.56813e-06 -7.32825e-08)
(7.64723e-07 -1.57195e-06 -6.42487e-08)
(7.71202e-07 -1.56819e-06 -5.55058e-08)
(7.34048e-07 -1.55324e-06 -4.75959e-08)
(6.60479e-07 -1.52294e-06 -4.08675e-08)
(5.59619e-07 -1.47206e-06 -3.54755e-08)
(4.41609e-07 -1.39331e-06 -3.13575e-08)
(3.17013e-07 -1.27565e-06 -2.8209e-08)
(1.95886e-07 -1.10108e-06 -2.52251e-08)
(9.01062e-08 -8.36191e-07 -2.09008e-08)
(1.14081e-08 -4.05865e-07 -1.09336e-08)
(-1.08293e-08 -3.07413e-07 -1.09058e-08)
(-8.79246e-08 -6.39908e-07 -2.03523e-08)
(-1.93431e-07 -8.46851e-07 -2.42352e-08)
(-3.15989e-07 -9.82786e-07 -2.68265e-08)
(-4.43725e-07 -1.07264e-06 -2.96024e-08)
(-5.66235e-07 -1.13028e-06 -3.33374e-08)
(-6.72574e-07 -1.16447e-06 -3.83101e-08)
(-7.52254e-07 -1.18115e-06 -4.45618e-08)
(-7.95932e-07 -1.18475e-06 -5.19304e-08)
(-7.96253e-07 -1.17888e-06 -6.00737e-08)
(-7.48839e-07 -1.16683e-06 -6.848e-08)
(-6.53106e-07 -1.15177e-06 -7.65073e-08)
(-5.12924e-07 -1.13681e-06 -8.34202e-08)