/*--------------------------------*- C++ -*----------------------------------*\
| =========                 |                                                 |
| \\      /  F ield         | OpenFOAM: The Open Source CFD Toolbox           |
|  \\    /   O peration     | Version:  v1912                                 |
|   \\  /    A nd           | Website:  www.openfoam.com                      |
|    \\/     M anipulation  |                                                 |
\*---------------------------------------------------------------------------*/
FoamFile
{
    version     2.0;
    format      ascii;
    class       volScalarField;
    location    "52/oil";
    object      wallHeatFlux;
}
// * * * * * * * * * * * * * * * * * * * * * * * * * * * * * * * * * * * * * //

dimensions      [1 0 -3 0 0 0 0];


internalField   uniform 0;

boundaryField
{
    maxY
    {
        type            calculated;
        value           uniform 0;
    }
    minX
    {
        type            calculated;
        value           uniform 0;
    }
    maxX
    {
        type            calculated;
        value           uniform 0;
    }
    minY
    {
        type            calculated;
        value           uniform 0;
    }
    minZ
    {
        type            calculated;
        value           uniform 0;
    }
    maxZ
    {
        type            calculated;
        value           uniform 0;
    }
    oil_to_sphere
    {
        type            calculated;
        value           nonuniform List<scalar> 
1536
(
17938.3
17770.5
17792.4
17426.7
17369.2
17738.1
17618.2
17638
17616.5
17429.3
17325
17441.7
17606.6
17476.8
17236
17580.2
17747.5
17801.2
17566
17602.6
17691.4
17609.6
17636.5
17579.3
17603.1
17588.5
17584.7
17554.4
17755.5
17639.9
17806.3
17764.3
17780.2
17564.5
17581.6
17542.7
17546.6
17489.8
17538
17573.5
17524.7
17560.1
17612.2
17667.7
17716.7
17571.8
17765.6
17704.2
17221.7
17599.8
17677
17625.2
17695
17562.9
17747.3
17881.2
17623.3
17605.1
17700.5
17660.1
17618.5
17600.9
17623.5
17562.3
17592
17606.1
17599.5
17689.8
17670.4
17729.6
17561.6
17454
17480.8
17590.9
17579.1
17886.6
17775.6
17541.6
17581.7
17807.4
17692.9
17687.5
17388.5
17375.7
17753.2
17922.1
17397.9
17584.6
17670.3
17663.7
17652.9
17545.8
17552.6
17555.8
17586.5
17660.2
17728.9
17730.3
17779.9
17659
17700
17555.5
17960.3
17689.6
17477.5
17582.9
17585.1
17448.4
17463.9
17983.8
17769.6
17654.7
17602.1
17653.5
17373.7
17429.4
17355.8
17848.6
17939.3
17795.7
17628.4
17650.7
17536.4
17719.6
17792.5
17719.1
17609.5
17520.7
17729.5
17673.3
17612.3
17669.1
17739.9
17571
17596
17727.1
17650.1
17814.6
17528.8
17747.6
17610.7
17678.2
17677
17612.3
17585.2
17610.5
17621.4
18036.4
17818.2
17965.5
17707.5
17958.4
17618.9
17636.4
17537.2
17807.6
17700.7
17870.1
18041.5
18022.9
17767.3
18078.5
17415.5
17450.5
17549.4
17531.3
17698.9
17925.3
17739.4
17993.2
17579.4
17594.5
17559.8
17752.2
17730.7
17710.6
17906.4
17742.5
17841.7
17906.5
17490.5
17437.8
17446.9
17456
17863.9
17931.2
18031
17566.6
17533
17801.6
17555.2
17768.6
17741.3
17824.5
17444.4
17250.6
17830.7
17841.2
17720.6
17556.7
17638.9
17603.8
17821.9
17834.4
17724.7
17694.8
17643.2
17883.9
17804
17851.4
17509.5
17587.4
17581.3
17699.3
17767.2
17924.4
17750.6
17469.3
17465.2
17252.9
17781.6
17739.1
17680.3
17653.8
17673.1
17916.9
17778.5
17691.6
17791.5
17459.3
17554.7
17284.2
17588.4
17861.4
17831.8
17839.2
17756.9
17712.5
17778.2
17454
17472.6
17764.7
17830.3
17530.4
17347.7
17341.4
17721.1
17852.9
17982.7
18196.8
17664.7
17403.7
17237.4
17660.7
17970.5
17552.6
17558.6
17335.4
17545.1
17908.8
17965.7
17698.6
17576.2
17837.9
18078.1
17575.4
17381.7
17709.1
17929.1
17877
17713.9
17749.2
17818.6
17470.8
17559.9
17838.2
17749.5
17925.9
17629.6
17807.8
17925.5
17755.2
17735.4
17851.1
17595.5
17575.1
17631.2
17504.4
17545.4
17833.8
17912.4
17788.2
17600.4
17594.7
17626.7
17569.8
17699.8
17651.4
17516.2
17357.1
17534.2
17441.1
17516
17941.3
17859.5
17869.8
18236.8
17429.6
17444
17805.3
17952.3
18138.9
17581.5
17649.7
17564.5
17745.5
17585.5
17724.5
17740.6
17831.5
17734.7
17632.5
17768.7
17520.7
17827.8
17855.1
17768.5
17767.3
17477.2
17939.9
17995.4
17853.3
17428.7
17597.9
17658.3
17745.8
17723.9
17716.6
17475.2
17826.4
18012.5
17799.6
17866.2
17680.6
17684.2
17642.5
17487.6
17722.9
17772.6
17474.3
17448.3
17484.4
17976.9
17853.2
17886.2
17696.7
17695
17903.5
17455.1
17943.4
17809.9
17668.7
17685.2
17459.4
17874.2
17842.5
17507
17662.6
17620.1
17589.2
17761.7
17822.7
17614.4
17607
17462.8
17918.3
17821.5
17461.8
17913.7
17920.2
17791.7
17906.9
17662.6
17767.4
17491.8
17417.7
17751.9
18160.8
17807.7
18041.6
17737.1
17608.6
17781
17530.5
17629.6
17786.9
17819.4
17767.2
17684.1
17551.8
17466.9
17849
18005.2
17825
17693.6
17588.1
17720.9
17759.8
17790.2
17696.1
17633.5
17566.7
17670.4
17538.7
17453.4
17555
17552.1
17657.5
17404.2
17598.2
18028.5
17596.3
17594.3
17832.3
17812.6
17732.1
17625.3
17446.8
17802.4
17863.1
17737.8
17723
17769.4
17672.6
17662.2
17699.1
17394.3
17856.9
17997.2
17897.9
17805
17784.2
17727.8
17689.5
17648.2
17526
17660.8
17522.1
17455.7
17527.9
17419.3
17948.5
17929.5
17838.2
18169.8
17726
17930.7
17458.7
17485.9
17742.2
17767.9
17461.4
17598.4
17549.7
17939.2
17891
17694.9
17724.2
17917.5
17857.3
17680.6
17768.8
17494.1
17811.7
17409.1
17900.7
17388.5
17836.6
17832.2
17822.5
17628.7
17460.2
17607.9
17821.6
17616.4
17409
17858.1
17837.1
18019.2
17977
17864
17852.1
17426.6
17454.1
17252
17292.1
17637.8
17565.2
17564
17538.4
17931.7
17753.4
17407
17369.8
17727.1
17614.6
18054.2
17562.7
17568.1
17688.3
17318.9
17311.1
17553.4
17550.1
17590.7
17594.7
17833
17806
17730
17677
17407.1
17581.8
17860.3
17515.5
17495.8
17775.1
17895.8
17526
17338.6
17473.3
17339
17637.6
17608.9
17563.4
17457.2
17240.5
17802.1
17799.6
17702
17682
17941
17794.9
17715
17707
17475.5
17556.7
17841.4
17754.9
17594.9
17323.3
17676.5
17971.5
17944.9
17684.5
17752.1
17882.7
17844.4
17846.7
17477.1
17533.7
17451.6
17584.8
17643.9
17854.5
18000.6
17480.7
17467.2
17792
18000.8
17598.9
17570.3
17407.3
17762.2
17646.1
17872
17900.9
17658.1
17411.2
17930.3
18015.1
17352.3
18007.3
17903.4
17813.6
17960.5
17760.1
17720.4
17686.8
17937.2
17699.4
17727.1
17682.2
17793.7
17713.1
17666.4
17663.3
17447.5
17783.5
17769.2
17803.9
17796.7
17819
17756.4
17711.8
17435.9
17872.5
17891.5
17763.2
17664.4
17713.9
17974.5
17678.2
17467.9
17427.2
17838.7
17764.3
17961.6
17620.3
17646.1
17726.6
17304
17253.4
17560.8
17552.1
17629.3
17442.1
17482
17884.5
17714.9
17888.4
17729.4
17932.7
17862.2
17840.8
17517.6
17262.9
17230.9
17583.8
17803.5
17601.9
17569.1
17312.3
17629.1
17899.7
17624.9
18222.8
17507.5
17827.1
17931.8
17769.7
17892.3
17933.5
17829.8
17706.3
17656.6
17667.3
17793.1
17638.5
17698.6
17733
17714.4
17818.3
17762.6
17800.2
17508.5
17520
17256
17313.4
17434.7
17145.4
17602.1
17598.4
17632.8
17673.7
17432.2
17452.5
17596.4
17883.2
17937
17595.7
17411.4
17622.3
17845.6
17876.9
17642.3
17433.5
17505.8
17759.3
17774
17641.1
17615.4
17772.2
17805.9
17920.5
17780.9
17684.8
17596
17474.6
17417.9
17770.5
17811.4
17975.2
17632.6
17984.4
17775.3
18025.7
17576.2
17628.9
17502.7
17545.2
17587.7
17501.9
17634.1
17403.9
17564.3
17883.9
17602
17475.7
17951.7
17793.7
17702.7
17681.4
18056.3
18162
17354.9
17761
17806.7
17734.1
17520.6
17661
17571.3
17745.5
17889.8
17821.2
17504.2
17773.8
17717.1
17754.9
17758.1
17698.7
17646.5
17663.7
17599.6
17431.2
17412.8
17491.2
17878
17571.8
17436.3
17572.8
17859
17616.3
17902.2
17842.1
17745.4
17687
17759.4
17927.8
17487.6
17742.5
17901
17860.5
17708.6
17546.7
17653.8
17772.2
17870.1
17497.4
17664
17721.5
17844.4
17707.2
17802
17905.6
17488.5
17566.2
17542.9
17946.4
17832.7
17661.5
17848.9
17553.1
17588.8
17847.3
17835.4
17896.7
17482.1
17798
17840
17678
17742.3
17798.3
17537.4
17385.4
17656.1
17817.6
18048.9
17645.3
17595.4
17651.7
17731
17807.7
17657
17566.9
17637.9
17818.7
17628.2
17503.5
17620.4
17560.6
17705.1
17682.7
17857.9
17756.8
17784.9
17589.2
17676.4
17702
17639.4
17607.3
17603.7
17582.6
17505.2
17770.4
17700.4
17675.8
17757.7
17405
17588.9
17953.8
17935.5
17546
17849.8
17732.6
17736.8
17610.6
17882.8
17837.7
17464.5
17605.3
17592.2
17593.7
17467.8
17443.4
17588
17869.6
18122.8
17567.2
17806.3
17768.7
17712.8
17637.6
17703.3
17873.5
17821.7
17476.7
17590.8
17580.6
17645.1
17743.4
17830.6
17778.8
17774.4
17814
17579.3
17769.8
17606
17804.2
17255.3
17763.7
17855.3
17607.3
17360
17749
17692
17926.1
17551.9
17772
17680.2
17388.4
17962.3
17484.8
17639.8
17640.6
17431.6
17859.9
17673.1
17659.1
17778.1
17674.5
17605.7
17920.9
17514.1
17594.3
17276.7
17805.8
17583.3
17646.3
17858.3
18125.1
17475.6
17617.7
18036.8
17497.5
17775.4
17562.1
17738.8
17417.5
17577.4
18030
17376.6
18109.5
17398.8
17940.3
17448.4
17547.2
17364.5
17567.1
17999.3
17328.8
17755.9
17392
17997.4
17998.1
17347.4
17771.5
17505.9
17469.7
17446.9
17562.2
17644.5
17654.7
17719.1
17631.9
17926.3
18041.8
17357.6
17828.5
17685.5
17637.6
17661.8
17638.3
17664
17631.2
17795.4
17661.6
17778.7
17605.6
17718.4
17873.7
17595.6
17710.1
17823.2
17589.1
17719.4
17664.1
17725.6
17628.2
17705.8
17612.9
17808.2
17594.8
17689.6
17418.6
17982.2
17339
17865.8
17848.6
17875.8
17542.9
17671.1
17619.6
17645.2
17737.4
17673
17801.7
17515.1
17230.1
17920.8
17370.3
17899.1
17558.2
17656.6
17936.9
17222.8
18110.1
17624.7
17320.5
17685.1
17755.1
17732
17697.7
17299
17734.1
17755.4
17566.2
17544.6
17893.5
17876
17609.3
17636.8
17892.1
17323.4
17889
17548.2
17733.3
17344.2
18183.5
17949.5
17802.9
17706.1
17698.4
17824.9
17670.4
17296.5
17497.9
17764.7
17554.4
17867.4
17345.9
17907.3
17825.4
17104.9
17742.5
17716.3
17241.3
18071.4
17403.3
17883.6
17971.1
17832.6
17231.1
17695.5
17638.2
17732.6
17718.2
17798.6
17305.8
17649.5
17535
17544.6
17912.8
17686.8
17839.2
17730.1
17743.1
17635.6
17673.3
17646.7
17688.5
17843.9
17581.1
17630.9
17560.2
17754.1
17852.2
17588
17600.6
17585.2
17682.9
17549.4
17546.6
17611.4
17626.1
17674.2
17681.2
17890.7
17852.3
17338.4
17430.3
17983.7
17123.1
17756.4
17759.5
17579.2
17642.7
18056.2
17253.7
17817.9
17806.7
17256.3
17612.2
17611.1
17775.5
17229.7
17853.4
17883.3
17198.6
17829.6
17916.3
17303.9
17870.8
17879.4
17311.3
17590.4
17565.5
17268.2
17660
17687.6
17597
17541.3
17695.6
17218.7
17513.9
17430.1
17220.8
17839.3
17506
17982.4
17660.2
17297.1
17824.3
17790
17258.7
17597.2
17602.6
17255.4
17397
18104.5
17072.9
17506.9
17718.3
17194
17854.1
17803.7
17661.3
17595.9
17624.1
17486.6
17195.7
17664.8
17580.4
17605.5
17663.4
17258.4
17860.2
17568.9
17641.6
17538.5
17630.2
17673.6
17506.4
17282.7
17622.5
17837
17557.6
17610.9
17677.1
17538.3
17628.7
17282.4
17631.4
17878.3
17540.8
17642.8
17544.1
17302.9
17974.8
18002
17835.9
17974.1
17295.8
17225.8
17669.9
17943.5
17684.6
17771.7
17802.7
17503.9
17445.3
17358.1
17432.9
17511.6
17642.6
17628.9
17620.1
17497.1
17808.9
17755
17312.8
17457.5
17502.7
17795.9
17528
17221.1
17894.7
17641.5
17824
17251.7
17662
17808.6
17587.5
17617.2
17776.8
17647.5
17484.4
17927.9
17136.2
17637.4
17756.3
17549
17591.8
17922.6
17781.4
17710.7
17460.7
17886
17612.6
17681.5
17796.4
17835
17811
17832.4
17927.8
17952.2
17891.2
17891.2
17849.9
17824.5
17576.1
17633.6
17530.8
17409.3
17179.7
17927.1
17909.3
17845.9
17605.5
17676.3
17667.3
17546.1
17704.9
17809.8
17513.4
17636.1
17763.9
17604.3
17583.5
17563
17605
17516.3
17594.3
17582.8
17337.1
17803.8
17537
17628
17233.3
18008
17644.4
17548.4
17522.3
17350.7
17679.3
17557.9
17249.8
17504.5
17629.4
17446.5
17431.9
17940.6
17973.4
17595.7
17591.4
17795.7
17900.4
17237.7
17680.1
17530.3
17587.3
17592.5
17606
17636.7
17476.9
17266
17946.8
17594.3
17436.8
17470.4
17572.2
17661
17369.6
17742.2
17589.5
17573.4
17901.4
17452.3
17310.7
17623.4
17567.6
17543.7
17275.2
17884.2
17603.3
17558.1
17581.3
17246.3
17641.4
17591.2
17322.4
17629.6
17496.7
17721
17837.5
17576.8
17786.2
17686.7
17551.5
17543.4
17597.9
17291.2
17788.4
17824.3
17570.4
17271.3
17503.9
17626
17634.6
17560.5
17281.8
17573.2
17820.1
17739.4
17607.4
17940.7
17414.5
17897.1
17238.3
17428.2
17931.8
17282.6
17832.8
17653
17660.3
17579.2
18006.3
17464.7
17649.8
17872.1
17931.8
17321.9
17857.7
17915.2
17145.2
17864.6
17546.3
17243.5
17926.8
17541.2
17565.3
17567.9
17635.4
17610.4
17564.2
17564.3
17221.5
17864.6
17695.6
17647.3
17667.9
17600.1
17540.9
17503.8
17917.1
17200.8
17521.7
17727.1
17268.6
17834
17902
17821.2
17861.5
17936
17474.1
17833
17732.5
17861.4
17537.1
17769
17472.6
17307.7
17881.7
17446.9
17818.1
17989.6
17890.8
17256
17891.6
17763.3
17525.8
17563.7
17603.7
17554.8
17259.4
17987.8
17258
17982.7
17598
17477.2
17578.8
17729.5
17747.1
17960.9
17639.1
17939.9
17867.8
17812.2
17378.1
17829.1
17766
17848
17554.2
17514.5
17249.8
17618.4
17934.4
17907.3
17239.9
17480.2
17386.2
17549.2
17628.4
17454.4
18130.5
17577
17465.8
17267.2
17746.4
17532.9
17165.6
17697.4
17568.1
17548.1
17567.4
17570.7
17274.5
17432.4
17244
17616.8
17922.8
17727
17894.6
17863.4
17523.4
17477.5
17270.1
17487.3
17873.6
17858.2
17861.9
17794.4
17428
17278
17467.9
17230.2
17800.8
17835.1
17494.7
17797.4
17851.6
17841.2
17825.2
17664
17652.5
17522.4
17186.8
17499.6
17299
17553.8
17567.1
17556.1
17315.9
17259.8
17754.5
17917.5
17998.2
17898.1
17649.3
17717.8
17718.5
17672.8
17581
17641.3
17501.9
17607.3
17608.1
17247.1
17903.3
17612.1
17488.3
17322.4
17615.2
17637.7
17634.7
17565.5
17326.4
17899.9
17705.4
17562
17929.4
17494.8
17239
17855.1
17634.1
17611.6
17601.7
17548.1
17163.2
17769.5
17602.9
17262.3
18007.9
17596.3
17130.2
17564.5
17623.2
17638.1
17540.9
17266.5
17543.1
17554.9
17383.4
17601.4
17240.2
17628.3
17618.9
17349.9
18021
17597
17328.3
18128.6
17628.4
17635.6
17312.7
17610.8
17269.8
)
;
    }
}


// ************************************************************************* //
