/*--------------------------------*- C++ -*----------------------------------*\
| =========                 |                                                 |
| \\      /  F ield         | OpenFOAM: The Open Source CFD Toolbox           |
|  \\    /   O peration     | Version:  v1906                                 |
|   \\  /    A nd           | Web:      www.OpenFOAM.com                      |
|    \\/     M anipulation  |                                                 |
\*---------------------------------------------------------------------------*/
FoamFile
{
    version     2.0;
    format      ascii;
    class       volScalarField;
    location    "3.5/oil";
    object      wallHeatFlux;
}
// * * * * * * * * * * * * * * * * * * * * * * * * * * * * * * * * * * * * * //

dimensions      [1 0 -3 0 0 0 0];


internalField   uniform 0;

boundaryField
{
    maxY
    {
        type            calculated;
        value           uniform 0;
    }
    minX
    {
        type            calculated;
        value           uniform 0;
    }
    maxX
    {
        type            calculated;
        value           uniform 0;
    }
    minY
    {
        type            calculated;
        value           uniform 0;
    }
    minZ
    {
        type            calculated;
        value           uniform 0;
    }
    maxZ
    {
        type            calculated;
        value           uniform 0;
    }
    oil_to_sphere
    {
        type            calculated;
        value           nonuniform List<scalar> 
360
(
12931.2
13003.9
9013.74
21667.4
22982.6
10445
23533.3
21239.3
22859.8
12785.7
12854.1
10449.3
11561.4
8117.6
12549.3
20291.4
23347.3
21635.2
22628.9
8112.53
19002.6
12822
11374.5
22344.2
9032.38
23088
10426.9
22746.8
22573.9
21349.6
24201.8
23686
9046.8
8946.57
10350.6
10391.9
22444
22278.6
21681
22055.2
22563.9
9037.31
10330.2
13265.9
13296.8
10403.3
11512.1
8046.63
12770.1
21154.3
10472.8
10433.4
11462.7
11511.2
8054.16
12887.7
21667.1
8116.61
10378.1
11503.9
8133.23
22712
21571
22510
8049.98
19593.4
12887.9
11024.3
23596.7
22424
21610.7
22202.5
22164.2
8035.94
16973.1
12517.2
8144.95
10922.7
22305.5
22879.1
11177.5
10985
11018.2
8130
8978.57
10365
10412.4
11535.7
8095.53
8175.86
9006.88
11521
10415.4
9000.93
11471.6
10388.9
10399.8
10409.8
8985.96
8182.09
8185.33
8071.11
10450.3
10468.6
11546.7
8071.23
8149.52
11582.8
9006.47
10428
10438.5
10417
8994.79
8078.09
8212.7
8202.53
11255.5
11221.4
11180.5
13169.9
13191.9
20925.7
22288.5
20086.8
22391.5
20895.5
22434.8
22727.3
21141.4
22088.5
21718.2
11173.6
11130.9
11136.9
8195.06
20721.8
22559.2
12927.9
12958.7
22690.6
20969
12670.6
12482.1
23007.5
21108.2
24323.2
8188.56
8181.57
22153.6
22692.9
24212.9
22945.7
22949.7
23934.8
24223.2
21349
12454
22899.6
21788.4
8119.62
22712.7
23296.6
10944.7
10802.8
11211.8
12709.2
12857.2
23075.6
21234.6
24009.2
8052.68
21803.5
12901.3
22810
21790
8058.34
23515.5
11109.8
11079.9
8166.99
10412.7
10448.2
11555.4
9008.97
11502.2
10407.4
8068.48
8170.43
22573.7
21170.3
22711.5
21848.3
13180.3
13189.7
22332.9
20432.4
21965.2
12943.5
13021.7
8169.61
10378.7
10494.6
11550.3
10435.8
10384.7
11583.6
9005.06
11493.2
10358.7
8934.17
21161.7
11571.3
10370.9
8129.24
22232.6
21057
22232.6
13171.9
13172.3
8057.1
10385.1
10406.3
11498.6
22797.4
8959.61
11447
10370.6
21521.9
21646.9
13092.3
8093.18
12990.9
8107.85
8211.58
11494.2
9010.43
10416.6
10391.9
10449.1
8985.34
8108.71
21530.3
20483.7
22665.3
23762.6
21566.2
20393.1
23054.8
23399.6
12925.6
21889.3
8192.36
23012.6
22749.2
22863.4
11455.4
9020.81
10440
11504.5
9070.26
22858.8
10380.4
10346.2
10436
8981.49
23123.5
21530.7
10363.2
10372
8983.56
21495.1
24038
12844.3
21813.8
8131.81
22688.5
22343.6
22919
11558.4
8989.1
22594
10359.3
10384.3
10346.9
22409.2
9027.1
22103.4
13026.6
20474
13090.8
21503.8
21985.4
22323.3
8068.34
10882.2
10701.9
10804.8
13279.4
22405.1
13243.4
21700.9
22345.3
8142.38
22625.6
22895.7
12862.9
21941.7
8170.7
24128.3
11034.3
10979.2
7996.91
21773.1
12985.1
19360.9
21856.4
12972.9
8080.06
10363.8
10393.3
11541.7
22477.4
20819.1
12742.1
8186.88
20992.3
12941.4
8119.56
21343.4
22703.7
12681.1
21915.3
7984.78
23668.6
11597.2
23416.9
8985.27
10422.8
23441.4
22066.5
21484.7
12783.9
22802.8
22627.1
12885
21654.4
10865.4
11142.8
21385.1
12920.7
8083.3
21289.3
12950.9
8155.25
22082.6
22192.1
21007.4
13005.3
21695.1
13035.7
)
;
    }
}


// ************************************************************************* //
