/*--------------------------------*- C++ -*----------------------------------*\
| =========                 |                                                 |
| \\      /  F ield         | OpenFOAM: The Open Source CFD Toolbox           |
|  \\    /   O peration     | Version:  v1912                                 |
|   \\  /    A nd           | Website:  www.openfoam.com                      |
|    \\/     M anipulation  |                                                 |
\*---------------------------------------------------------------------------*/
FoamFile
{
    version     2.0;
    format      ascii;
    class       volScalarField;
    location    "242/oil";
    object      wallHeatFlux;
}
// * * * * * * * * * * * * * * * * * * * * * * * * * * * * * * * * * * * * * //

dimensions      [1 0 -3 0 0 0 0];


internalField   uniform 0;

boundaryField
{
    maxY
    {
        type            calculated;
        value           uniform 0;
    }
    minX
    {
        type            calculated;
        value           uniform 0;
    }
    maxX
    {
        type            calculated;
        value           uniform 0;
    }
    minY
    {
        type            calculated;
        value           uniform 0;
    }
    minZ
    {
        type            calculated;
        value           uniform 0;
    }
    maxZ
    {
        type            calculated;
        value           uniform 0;
    }
    oil_to_sphere
    {
        type            calculated;
        value           nonuniform List<scalar> 
1536
(
2809.65
2541.71
2538.18
2043.98
2026.62
2526.34
2311.54
2397.21
2364.94
2083.95
1889.19
2119.58
2359.42
2132.89
1820.95
2280.29
2527.91
2551.18
2265.44
2345.9
2461.26
2368.22
2388.67
2277.51
2304.43
2290.58
2301.57
2244.24
2513.55
2379.6
2593.91
2542.83
2553.14
2281.24
2297.77
2245.14
2268.66
2189.04
2240.38
2299
2228.8
2268.97
2355.94
2413.08
2479.74
2295.71
2464.22
2392.38
1838.69
2290.45
2436.35
2369.39
2386.53
2275.47
2504.55
2690
2384.44
2346.72
2458.22
2430.65
2350.37
2356.14
2345.99
2268.77
2296.39
2338.03
2344.91
2443.43
2439.3
2501.5
2267.47
2035.59
2119.08
2291.48
2289.03
2707.07
2555.84
2196.96
2281.03
2543.2
2464.75
2427.29
2041.68
2033.73
2512.06
2759.57
1978.52
2322.17
2432.06
2430.12
2368.72
2253.81
2250.43
2262.07
2289.48
2410.13
2463.25
2480.53
2574.44
2423.86
2467.25
2263.23
2816.03
2439.85
2107.87
2284.66
2305.35
2064
2063.36
2824.95
2552.64
2397.75
2354.46
2391.14
2004.45
2034.77
1953.4
2640.56
2786.56
2569.35
2377.09
2390.82
2237.37
2459.23
2589.59
2418.23
2373.32
2219.17
2475.67
2454.34
2339.76
2443.81
2500.49
2306.41
2324.67
2513.82
2392.14
2545.95
2224.72
2530.46
2366.64
2452.03
2454.45
2359.38
2327.67
2353.64
2410.3
2651.52
2351.44
2827.07
2489.01
2553.92
2383.88
2399.57
2285.34
2428.58
2509.31
2471.42
2876.44
2601.57
2551.72
2668.06
2144.71
2188.18
2257.56
2251.37
2495.78
2627.71
2569.85
2703.72
2246
2263.18
2201.35
2466.52
2387.26
2408.04
2736.32
2195.29
2148.54
2757.9
2241.5
2190.43
2181.87
2206.35
2452.83
2761.08
2604.26
2232.89
2149.88
2547.12
2168.45
2500.48
2497.83
2617.94
2117.08
1768.74
2609.19
2644.73
2317.32
2284.84
2371.96
2312.85
2553.25
2606.67
2484.76
2428.8
2270.35
2632.13
2579.04
2420.69
2217.7
2295.74
2284.97
2326.95
2472.55
2702.93
2173.79
2127.88
2135.05
1735.13
2530.71
2466.45
2424.58
2371.4
2384.23
2636.35
2499.83
2303.3
2533.19
2089.34
2247.37
1783.68
2355.75
2524.1
2610.54
2585.59
2529.23
2472.04
2566.58
2115.93
2153.84
2217.67
2649.29
2207.35
1786.26
1960.93
2466.43
2376.24
2749.06
2885.51
2396.65
2036.28
1740.17
2429.88
2591.04
2262.35
2270.63
1988.97
2252.29
2634.77
2774.41
2354.58
2272.02
2672.52
2611.07
2292.21
2099.49
2337.62
2711.46
2646.29
2472.77
2499.52
2598.61
2184.43
2280.69
2613.89
2499.13
2554.15
2357.88
2535.45
2696.2
2485.73
2463.13
2660.6
2269.04
2263.65
2291.59
2236.49
2255.76
2622.45
2717.43
2156.03
2318.09
2304.2
2317.31
2232.69
2387.53
2357.8
2200.14
1994.7
2248.11
2122.25
2224.79
2762.84
2667.49
2663.95
2866.02
2164.05
2183.72
2389.54
2826.62
2791.96
2250.63
2362.01
2235.73
2493.93
2277.89
2460.25
2482.76
2563.16
2504.71
2303.58
2517.3
2243.91
2601.06
2636.25
2539.12
2518.68
2202.59
2727.17
2722.02
2500.02
2109.57
2266.62
2317.37
2484.32
2457.36
2493.47
2194.31
2596.83
2622.48
2562
2662.04
2444.37
2413.69
2350.73
2154.98
2419.37
2492.19
2151.34
2130.58
2178.78
2802.14
2594.53
2664.35
2452.04
2410.54
2624.51
2137.4
2744.59
2560.59
2412.77
2409.39
2121.78
2564.94
2587.69
2215.24
2412.71
2342.6
2274.27
2496.41
2592.27
2355.97
2294.2
2169.59
2702.78
2602.12
2129.86
2628
2593.79
2531.96
2700.83
2408.88
2510.04
2085.24
2116.17
2482.98
2847.39
2544.76
2753.63
2453.14
2309.04
2573.2
2182.49
2242.12
2465.24
2587.37
2500.75
2453.28
2195.21
2187.03
2616.17
2617.82
2603.19
2406.56
2258.16
2464.38
2518.3
2581.14
2421.28
2328.24
2213.6
2396.62
2171.45
2065.28
2260.58
2214.51
2399.12
2083.05
2310.87
2737.2
2304.99
2301.72
2585.96
2580.85
2488.3
2344.13
2145.52
2541.67
2664.88
2476.55
2427.09
2547.58
2365.51
2390.58
2447.93
2039.76
2485.98
2621.23
2663.22
2573.26
2514.96
2498.13
2422.95
2335.62
2182.35
2379.35
2208.89
2122.11
2232.11
2060.03
2771.23
2734.99
2635.99
2832.34
2196.4
2772.49
2190.48
2242.32
2525.91
2183.16
2183.08
2313.88
2300.21
2744.64
2669.13
2448.28
2469.12
2698.24
2618.66
2419.31
2517.39
2219.78
2587.09
2107.12
2660.69
2036.87
2513.69
2543.81
2575.08
2301.66
2172.4
2337.34
2582.79
2349.98
2089.29
2590.28
2607.66
2657.05
2845.19
2437.27
2682.93
2161.48
2195.9
1852.93
1955.85
2413.32
2309.29
2276.97
2233.58
2790.15
2217.5
2132.62
2093.79
2327.71
2103.84
2874.55
2225.22
2244.26
2384
1894.5
1981.63
2262.23
2255.32
2353.66
2291.94
2605.52
2572.14
2499.59
2416.32
2065.76
2277.9
2569.22
2180.52
2214.88
2538.88
2703.06
2222.17
1860.35
2153.52
1889.85
2372.78
2299.95
2244.46
2110.88
1884.43
2501.54
2536.19
2456.43
2373.4
2714.74
2508.69
2481.7
2412.38
2200.59
2283.7
2605.4
2502.94
2320.26
1950.59
2425.51
2570.95
2729.4
2434.81
2282.48
2724.36
2401.84
2685.65
2215.38
2291.77
2180.11
2303.49
2426.04
2698.87
2226.11
2232.68
2198.27
2335.12
2876.06
2126.96
2281.89
2129.2
2392.91
2425.08
2611.23
2710.73
2093.01
2108.9
2710.26
2749.7
2011.01
2702.85
2627.79
2544.67
2625.78
2486.7
2402.61
2412.38
2702.68
2420.12
2487.61
2397.25
2582.62
2439.23
2376.79
2359.37
2150.35
2540.49
2381.39
2579.55
2514.96
2522.77
2502.1
2423.47
2118.06
2616.4
2616.63
2495.06
2373.88
2444.66
2815.8
2106.12
2210
2157.33
2442.34
2252.39
2817.01
2308.38
2336.68
2393.77
1864.25
1899.38
2270.74
2264.74
2404.93
2179.03
2228.7
2454.55
2261.79
2711.41
2180.15
2798.46
2330.83
2436.12
1804.88
1891
1846.94
2247.13
2544
2284.38
2246.01
1890
2395.5
2567.19
2399.76
2961.4
2219.4
2604.14
2507.25
2549.05
2633.17
2627.51
2553.26
2386.54
2330.72
2379.23
2551.78
2345.85
2459.28
2437.15
2456.18
2575.99
2504.16
2541.19
2152.17
2209.9
1762.59
1989.5
2056.71
1604.68
2267.23
2292.97
2345.79
2376.78
2062.23
2155.44
2319.68
2648.43
2626.19
2314.9
2095.71
2360.37
2571.7
2504.46
2385.94
2080.52
2219.08
2498.17
2451.46
2381.26
2276.82
2522.73
2530.44
2702.51
2531.22
2424.01
2292.46
2223.97
2142.71
2279.6
2369.92
2832.2
2413
2766.75
2249.37
2857.77
2264.82
2353.91
2170.15
2199.3
2293.81
2146.24
2340.81
2081.2
2274.37
2606.1
2310.78
2128.81
2722.53
2517.7
2464.37
2369.62
2707.34
2989.28
1998.78
2507.04
2460.7
2487.67
2147.07
2371.44
2235.13
2456.95
2544.16
2616.09
2201.54
2498.33
2411.45
2524.05
2509.08
2478.08
2321.68
2352.94
2281.38
2094.52
2065.55
2181.79
2676.73
2276.19
2134.52
2283.3
2609.88
2335.91
2677.11
2574.95
2476.17
2423.66
2472.68
2733.13
2181.88
2500.91
2627.5
2649.25
2421.4
2230.24
2333.99
2474.91
2657.51
2165.61
2355.85
2415.23
2602.05
2468.6
2474.16
2686.61
2169.21
2242.95
2208.6
2736.44
2614.36
2411.08
2600.34
2244.26
2276.77
2599.26
2475.9
2701.6
2192.56
2555.11
2589.62
2430.07
2458.42
2540.92
2203.06
2048.55
2391.96
2475.38
2755.49
2359.73
2261.76
2377.2
2472.55
2552.21
2420.51
2237.92
2360.9
2585.44
2183.71
2231.59
2359.33
2270.49
2446.82
2422.07
2643.67
2488.73
2569.8
2283.86
2381.97
2446
2369.56
2328.03
2292.8
2287.22
2176.45
2519.27
2439.51
2437.07
2478.73
2108.07
2305.06
2727.9
2731.83
2235.96
2605.75
2471.6
2513.84
2286.59
2654.81
2632.87
2185.47
2334.33
2301.64
2291.4
2106.39
2155.48
2301.21
2630.49
2833.12
2259.18
2539.68
2518.04
2464.34
2346.15
2447.94
2643.66
2451.76
2194.37
2307.1
2284.2
2301.88
2488.94
2522.66
2521.46
2533.36
2535.84
2241.04
2545.64
2314.85
2509.6
1886.05
2480.33
2667.24
2327.06
1999.09
2397.2
2355.89
2759.84
2213.78
2546.25
2378.49
2045.04
2719.18
2129.03
2353.25
2393.71
2108.41
2607.12
2447.1
2348.4
2423.03
2445.52
2348.99
2773.44
2138.43
2297.23
1823.61
2338.24
2325.91
2402.52
2604.76
2999.79
2092.03
2302.31
2908.47
2132.26
2527.87
2232.11
2513.51
1984.99
2217.53
2899.32
2027.56
2852.22
2070.64
2748.47
2054.85
2210.18
1859.67
2144.68
2860.88
1921.65
2382.75
2028.11
2697.18
2864.09
1937.01
2347.77
2257.34
2194.27
2183.68
2299.87
2396.86
2396.89
2504.81
2375.18
2696.63
2929.34
1932.69
2415.35
2470.86
2395.84
2427.73
2363.29
2334.13
2361.51
2563.48
2370.95
2566.52
2295.16
2440.89
2669.47
2323.99
2494.52
2606.97
2292.24
2440.99
2377.13
2502.48
2352.93
2419.14
2332.4
2592.91
2309.12
2460.43
2069.94
2713.78
1947.77
2478.47
2587.04
2712.6
2218.45
2424.35
2374.54
2421.32
2412.86
2371.74
2560.29
2186.38
1758.43
2363.46
2003.28
2623.7
2224.75
2391.52
2540.68
1788.81
2681.64
2188.91
1879.9
2222.38
2527.24
2508.98
2406.34
1922.76
2406.35
2444.63
2256.69
2224.86
2630.61
2594.6
2281.64
2405.33
2631.86
1931.43
2569.23
2220
2497.83
1956.99
2837.65
2791.25
2585.33
2402.37
2338.17
2527.02
2324.84
1918.89
2166.36
2536.21
2231.89
2495.9
1995.63
2618.38
2507.52
1655.17
2408.79
2452.9
1807.41
2684.45
2062
2625.8
2715.83
2558.87
1877.56
2416.19
2340.72
2410.44
2424.13
2489.87
1933.32
2295.3
2235.75
2238.04
2611.95
2391.41
2470.06
2509.44
2498.57
2336.98
2421.74
2350.17
2458.4
2631.26
2277.78
2325.97
2262.5
2425.35
2584.96
2275.55
2316.25
2295.1
2394.32
2235.91
2253.15
2315.51
2334.05
2417.68
2316.4
2700.87
2566.42
2014.57
2031.2
2674.63
1603.47
2540.9
2443.42
2238.48
2336.58
2692.36
1791.71
2613.74
2466.5
1898.94
2301.19
2260.95
2403.39
1765.68
2658.5
2482.1
1793.17
2637.46
2651.1
1963.45
2714.32
2593.95
1970.39
2264.42
2238.67
1798.74
2397.33
2425.85
2180.73
2219.31
2217.28
1684.23
2210.87
1795.46
1654.99
2598.98
2255.64
2859.65
2286.22
1929.48
2659.34
2367.09
1843.91
2278.97
2268.39
1838.17
2027.76
2674.47
1525.22
2169.25
2151.36
1609.9
2617.24
2568.63
2395.75
2310.99
2266.72
2168.79
1727.02
2403.42
2313.2
2326.19
2396.75
1873.09
2541.32
2277.13
2367.66
2252.97
2358.62
2416.24
2156.88
1896.09
2306.49
2443.55
2271.14
2311.98
2378.8
2218.01
2324.22
1865
2284.03
2472.45
2256.73
2338.39
2225.32
1905.81
2680.22
2674.59
2636.25
2726.15
1960
1808.87
2292.69
2562.39
2424.48
2524.97
2563.74
2169.67
2114.92
1831.44
1946.28
2213.66
2370.92
2355.1
2343.94
2121.97
2598.73
2462.32
1975.3
2198.24
2159.97
2558.24
2221.42
1727.58
2398.59
2383.66
2612.25
1853.19
2270.52
2433.69
2292.37
2334.31
2517.21
2365.92
2173.51
2744.97
1639.98
2099.9
2355.35
2221.37
2304.35
2717.01
2473.28
2393.69
2089.02
2673.39
2290.3
2416.53
2562.45
2613.56
2592.59
2611.68
2700.65
2754.36
2687.44
2688.25
2412.39
2576.62
2276.52
2335.3
2118.76
2046
1686.21
2727.03
2710.19
2636.48
2321.87
2417.9
2401.78
2228.38
2433.52
2571.48
2184.39
2348.35
2504.89
2264.66
2282.52
2268.79
2318.69
2213.88
2310.32
2289.93
1957.47
2431.05
2190.77
2345.65
1835.77
2734.51
2357.69
2243.94
2206.1
1984.85
2386.71
2251.29
1799.96
2086.44
2350.54
2041.78
2097.06
2763.46
2792.24
2293.52
2295.16
2538.26
2710.91
1792.78
2240.13
2215.23
2305.22
2304.12
2324.78
2362.2
2114.19
1908.95
2667.81
2298.94
2063.96
2109.09
2290.75
2391.48
1991.2
2344.52
2232.07
2276.12
2715.14
2072.59
1922.31
2307.25
2258.51
2216.2
1915.88
2620.97
2290.74
2276.03
2289.95
1802.65
2298.24
2303.39
1932.59
2290.97
2084.29
2459.44
2648.76
2230.98
2572
2445.49
2236.51
2243.84
2311.66
1918.32
2452.34
2488.07
2267.02
1854.93
2154.51
2339.11
2356.31
2232.96
1893.11
2243.56
2612.57
2451.83
2252.4
2756.64
2069.73
2570.99
1810.76
2058.75
2594.13
1807.07
2598.45
2253.57
2390.35
2277.56
2788.56
2127.92
2394.71
2712.71
2676.75
2008.08
2652.22
2717.3
1618.53
2358.6
2254.13
1824.94
2497.32
2248.49
2277.6
2278.73
2365.52
2327.42
2266.69
2246.96
1807.93
2489.63
2393.75
2375.35
2413.85
2321.19
2234.24
2157.62
2546.32
1737.68
2208.29
2219.7
1765.89
2587.08
2737.98
2372.5
2637.72
2677.8
2216.91
2265.03
2470.76
2635.28
2216.1
2503.22
2108.02
1833.28
2549.03
2178.89
2611.67
2760.53
2706.95
1853.6
2576
2408.4
2176.93
2264.22
2306.31
2252.35
1863.21
2646.5
1878.66
2637.52
2317.5
2108.62
2076.71
2335.89
2510.04
2697.39
2379.2
2827.14
2553.35
2598.52
1807.47
2574.84
2522.9
2616.21
2225.33
2181.42
1740.3
2350.97
2807.68
2644.98
1900.47
2125.2
1888.51
2224.45
2361.99
2100.1
2961.04
2279.98
2125.02
1915.53
2449.5
2188.53
1764.38
2342.66
2248.94
2254.37
2264.47
2268.36
1920.87
2102.62
1828.11
2256.9
2557.27
2462
2656.32
2617.17
2209.01
2155.49
1811.1
2231.24
2525.66
2676.15
2551.62
2559.12
2064.59
1761.67
2132.41
1721.42
2536.99
2559.27
2157.95
2590.59
2537.47
2651.54
2445.11
2391.47
2383.27
2208.86
1792.46
2145.6
1855.99
2102.13
2264.73
2232.16
1956.24
1850.79
2498
2808.16
2763.61
2707.97
2376.85
2485.9
2476.78
2356.82
2264.97
2353.46
2173.25
2317.36
2319.62
1851.96
2542.05
2300.18
2127.49
1948.44
2250.5
2370.06
2367.05
2234.2
1951.25
2692.94
2441.74
2253.92
2749.71
2181.16
1830.86
2476.88
2321.5
2321.63
2320.59
2238.55
1730.5
2337.78
2314.02
1882.89
2689.39
2289.64
1533.54
2263.39
2358.13
2376.08
2236.28
1862.92
2202.13
2215.95
2042.87
2331.53
1810.14
2345.76
2330.54
2018.28
2753.35
2311.93
1932.91
2816.44
2353.49
2354.12
1943.3
2329.64
1878.22
)
;
    }
}


// ************************************************************************* //
