/*--------------------------------*- C++ -*----------------------------------*\
| =========                 |                                                 |
| \\      /  F ield         | OpenFOAM: The Open Source CFD Toolbox           |
|  \\    /   O peration     | Version:  v1906                                 |
|   \\  /    A nd           | Web:      www.OpenFOAM.com                      |
|    \\/     M anipulation  |                                                 |
\*---------------------------------------------------------------------------*/
FoamFile
{
    version     2.0;
    format      ascii;
    class       volVectorField;
    location    "41";
    object      U;
}
// * * * * * * * * * * * * * * * * * * * * * * * * * * * * * * * * * * * * * //

dimensions      [0 1 -1 0 0 0 0];


internalField   nonuniform List<vector> 
78750
(
(-3.58355e-06 -9.36514e-05 8.43548e-05)
(-1.42353e-05 -0.000112208 0.000145734)
(-3.87489e-05 -9.88939e-05 0.000180313)
(-7.28459e-05 -7.21601e-05 0.000208283)
(-0.000114544 -3.93666e-05 0.000231718)
(-0.000162202 -4.52946e-06 0.000251941)
(-0.000214143 2.92764e-05 0.000269332)
(-0.000268534 6.03263e-05 0.000283805)
(-0.000323695 8.7191e-05 0.00029477)
(-0.000378075 0.000109398 0.000301542)
(-0.000430293 0.000126514 0.000303257)
(-0.000479155 0.000138713 0.000299239)
(-0.000523606 0.000146015 0.000288904)
(-0.000562805 0.000148833 0.000272)
(-0.000595964 0.000147443 0.000248606)
(-0.000622676 0.000142376 0.000218926)
(-0.000642172 0.000134216 0.000184383)
(-0.000654485 0.000123379 0.000145219)
(-0.000659409 0.00011011 0.000102023)
(-0.000656878 9.50295e-05 5.64408e-05)
(-0.000646926 7.85405e-05 9.9939e-06)
(-0.000629805 6.10183e-05 -3.60782e-05)
(-0.000605753 4.27905e-05 -8.0378e-05)
(-0.000575139 2.42169e-05 -0.000121568)
(-0.00053839 5.61831e-06 -0.000158342)
(-0.000496022 -1.26223e-05 -0.000189446)
(-0.000448594 -3.01006e-05 -0.000213699)
(-0.000396756 -4.63223e-05 -0.000229983)
(-0.000341268 -6.06807e-05 -0.000237294)
(-0.000282995 -7.23947e-05 -0.000234808)
(-0.00022267 -8.04577e-05 -0.000221886)
(-0.000160862 -8.35284e-05 -0.000198291)
(-9.95761e-05 -7.97567e-05 -0.000164198)
(-5.03448e-05 -6.68955e-05 -0.000120886)
(-1.55434e-05 -3.60248e-05 -5.22458e-05)
(-1.38455e-05 0.000277844 -0.000350229)
(-5.23556e-05 0.000554231 -0.000471442)
(-9.89955e-05 0.000690554 -0.000506372)
(-0.000164092 0.00079147 -0.000539801)
(-0.000231496 0.000861097 -0.000568138)
(-0.000297144 0.00090269 -0.000588717)
(-0.000359309 0.000921509 -0.00060261)
(-0.000416735 0.000920074 -0.000612028)
(-0.000467794 0.000903027 -0.000617681)
(-0.000512178 0.000872024 -0.000620872)
(-0.000549045 0.000831057 -0.000621858)
(-0.000578337 0.000781609 -0.000621562)
(-0.000600114 0.000726788 -0.0006201)
(-0.000614484 0.000667684 -0.000618143)
(-0.000621996 0.000606143 -0.000616033)
(-0.000623005 0.000543144 -0.000613951)
(-0.000617924 0.000480394 -0.000611809)
(-0.000607242 0.000418337 -0.000609846)
(-0.000591454 0.000358123 -0.000607899)
(-0.000571054 0.000299965 -0.000606083)
(-0.000546538 0.000244566 -0.000604194)
(-0.000518374 0.000191999 -0.00060218)
(-0.000487029 0.000142671 -0.000599763)
(-0.000452947 9.65777e-05 -0.000596779)
(-0.000416556 5.39424e-05 -0.000592869)
(-0.000378253 1.47609e-05 -0.000587664)
(-0.000338438 -2.08171e-05 -0.000580566)
(-0.000297484 -5.27285e-05 -0.00057077)
(-0.000255768 -8.08024e-05 -0.000557051)
(-0.000213671 -0.000104819 -0.000537646)
(-0.000171354 -0.000124383 -0.000510137)
(-0.000128435 -0.000138636 -0.000469824)
(-8.52716e-05 -0.000145599 -0.000405192)
(-5.12784e-05 -0.00013999 -0.000301499)
(-2.61143e-05 -8.60653e-05 -9.43089e-05)
(-1.30323e-05 0.00056156 -0.000139313)
(-3.87442e-05 0.000978051 -0.000210791)
(-6.37854e-05 0.00115485 -0.000240055)
(-9.85306e-05 0.00127217 -0.000261868)
(-0.000132933 0.00134099 -0.000280584)
(-0.000165299 0.00137288 -0.000297433)
(-0.000195079 0.00137388 -0.000314172)
(-0.000221856 0.0013516 -0.0003309)
(-0.000245039 0.00130978 -0.000348517)
(-0.000264218 0.0012539 -0.00036635)
(-0.000279261 0.00118686 -0.000384273)
(-0.000290195 0.00111337 -0.000400715)
(-0.000297256 0.00103552 -0.000415208)
(-0.000300754 0.00095626 -0.000426997)
(-0.000300963 0.000876558 -0.000436772)
(-0.000298252 0.000798232 -0.000444266)
(-0.000292975 0.000721586 -0.000449928)
(-0.000285419 0.00064774 -0.000453643)
(-0.000275848 0.000576728 -0.000455849)
(-0.000264586 0.000509513 -0.00045633)
(-0.000251846 0.000446013 -0.000455434)
(-0.000237859 0.000386565 -0.000453179)
(-0.000222857 0.000331039 -0.000449797)
(-0.000206944 0.000279724 -0.000445157)
(-0.000190303 0.000232476 -0.000439365)
(-0.00017308 0.000189328 -0.000432287)
(-0.000155414 0.000150177 -0.000423772)
(-0.000137416 0.000115056 -0.000413348)
(-0.000119222 8.39631e-05 -0.000400342)
(-0.000100925 5.70279e-05 -0.000383557)
(-8.25426e-05 3.44505e-05 -0.000361102)
(-6.37939e-05 1.6608e-05 -0.000329383)
(-4.44785e-05 3.94832e-06 -0.000281961)
(-2.78823e-05 -2.56151e-06 -0.000211706)
(-1.6325e-05 1.99677e-07 -5.93828e-05)
(-1.60346e-05 0.000679821 0.000191823)
(-3.2917e-05 0.00112225 0.000202844)
(-4.33077e-05 0.00131273 0.000179869)
(-5.6901e-05 0.00143934 0.00015782)
(-6.85609e-05 0.001516 0.000140132)
(-7.89338e-05 0.00155194 0.000121264)
(-8.82084e-05 0.00155604 9.97235e-05)
(-9.70599e-05 0.00153361 7.40505e-05)
(-0.000105169 0.0014911 4.53064e-05)
(-0.00011129 0.00143272 1.2592e-05)
(-0.000115961 0.00136428 -2.43445e-05)
(-0.000119091 0.001289 -6.43052e-05)
(-0.000119957 0.00121058 -0.000102955)
(-0.000119447 0.00113038 -0.000138513)
(-0.000117934 0.00105087 -0.000169984)
(-0.000115178 0.000972537 -0.000197582)
(-0.000111643 0.00089673 -0.000221438)
(-0.000107435 0.000823551 -0.000242213)
(-0.000102738 0.000753852 -0.000259882)
(-9.77006e-05 0.000687579 -0.000274928)
(-9.24172e-05 0.000625262 -0.000287291)
(-8.70294e-05 0.000566776 -0.000297294)
(-8.15615e-05 0.00051206 -0.000305135)
(-7.6171e-05 0.000460742 -0.000311179)
(-7.08856e-05 0.000413161 -0.000315201)
(-6.57431e-05 0.000369171 -0.000317268)
(-6.07415e-05 0.000328724 -0.000317268)
(-5.58667e-05 0.000291515 -0.000315217)
(-5.10363e-05 0.000257344 -0.000310827)
(-4.61547e-05 0.000225863 -0.000303754)
(-4.09899e-05 0.000196716 -0.00029336)
(-3.50055e-05 0.000169453 -0.000279593)
(-2.72846e-05 0.000143423 -0.000262665)
(-1.88947e-05 0.000118189 -0.000236287)
(-1.25949e-05 7.68021e-05 -0.000133966)
(-1.54882e-05 0.0006428 0.000330951)
(-2.51443e-05 0.00100818 0.000375992)
(-2.53941e-05 0.00116931 0.000353181)
(-2.36463e-05 0.00128176 0.000332067)
(-1.87002e-05 0.00135499 0.000318465)
(-1.25301e-05 0.00139766 0.000307155)
(-5.73045e-06 0.00141533 0.000294581)
(8.98336e-07 0.0014127 0.000278461)
(7.0988e-06 0.00139207 0.000255704)
(1.28333e-05 0.00135734 0.000225957)
(1.81677e-05 0.00131106 0.000189882)
(2.3031e-05 0.0012571 0.000150308)
(2.73722e-05 0.00119837 0.000110349)
(3.14169e-05 0.00113852 7.33709e-05)
(3.46989e-05 0.00107846 3.9629e-05)
(3.70591e-05 0.00101942 8.5424e-06)
(3.88673e-05 0.000961756 -1.98669e-05)
(3.99692e-05 0.000906317 -4.54854e-05)
(4.03573e-05 0.000853136 -6.85524e-05)
(4.00607e-05 0.000802755 -8.89598e-05)
(3.90184e-05 0.000755027 -0.000106959)
(3.72771e-05 0.000710242 -0.0001225)
(3.48188e-05 0.000668248 -0.000135691)
(3.16718e-05 0.000629148 -0.000146529)
(2.78043e-05 0.000592581 -0.000155238)
(2.32748e-05 0.000558407 -0.000161891)
(1.81877e-05 0.000525955 -0.000166807)
(1.26664e-05 0.000494851 -0.000170106)
(6.89353e-06 0.000464332 -0.000172013)
(1.10332e-06 0.000433641 -0.000172613)
(-4.36352e-06 0.000401506 -0.000172374)
(-8.93399e-06 0.000366503 -0.000173386)
(-1.13075e-05 0.000326358 -0.000180123)
(-1.02471e-05 0.0002784 -0.000187228)
(-8.66365e-06 0.000180541 -0.000132766)
(-9.25899e-06 0.000561784 0.000335226)
(-1.15087e-05 0.000844433 0.000373436)
(-7.86996e-06 0.000974348 0.000350235)
(-3.91372e-07 0.00107051 0.000332495)
(9.94923e-06 0.00113853 0.000322074)
(2.17329e-05 0.00118272 0.000311454)
(3.41756e-05 0.00120838 0.000297896)
(4.66812e-05 0.00121796 0.000281109)
(5.87786e-05 0.00121492 0.000261216)
(6.99792e-05 0.00120115 0.000238428)
(7.99278e-05 0.00117973 0.000213627)
(8.83407e-05 0.00115253 0.000187762)
(9.50457e-05 0.00112186 0.000161705)
(9.99222e-05 0.00108849 0.00013567)
(0.000103201 0.00105388 0.000110221)
(0.000105051 0.00101855 8.58106e-05)
(0.000105459 0.000983524 6.26929e-05)
(0.000104516 0.000949006 4.09881e-05)
(0.000102351 0.000915663 2.09701e-05)
(9.89858e-05 0.000883498 2.66295e-06)
(9.45349e-05 0.000852902 -1.37846e-05)
(8.90225e-05 0.000823681 -2.84409e-05)
(8.25624e-05 0.000795989 -4.12454e-05)
(7.52024e-05 0.000769472 -5.23411e-05)
(6.70734e-05 0.000744047 -6.17447e-05)
(5.82645e-05 0.000719141 -6.96836e-05)
(4.89369e-05 0.000694362 -7.62707e-05)
(3.92372e-05 0.000668806 -8.18653e-05)
(2.94153e-05 0.000641602 -8.66856e-05)
(1.9723e-05 0.000611267 -9.1174e-05)
(1.05186e-05 0.000576088 -9.59709e-05)
(2.33564e-06 0.000533529 -0.000103899)
(-3.57554e-06 0.000480329 -0.000120236)
(-5.47571e-06 0.000412026 -0.000140634)
(-5.8041e-06 0.000264781 -0.000112775)
(-4.25386e-06 0.000468279 0.000264825)
(-2.90708e-06 0.000703202 0.000278267)
(7.12809e-07 0.000811622 0.000250002)
(7.63489e-06 0.00089321 0.000226686)
(1.66196e-05 0.000953867 0.00021243)
(2.65056e-05 0.000998181 0.00020145)
(3.6779e-05 0.00102925 0.000190804)
(4.69859e-05 0.00104997 0.000179837)
(5.67646e-05 0.00106197 0.000168133)
(6.57526e-05 0.00106718 0.000155522)
(7.37001e-05 0.00106653 0.000141812)
(8.04606e-05 0.00106153 0.000127209)
(8.59571e-05 0.00105286 0.000111927)
(9.01894e-05 0.00104173 9.64059e-05)
(9.31317e-05 0.00102858 8.08669e-05)
(9.4791e-05 0.0010143 6.56785e-05)
(9.52132e-05 0.000999094 5.10291e-05)
(9.44226e-05 0.00098365 3.719e-05)
(9.24554e-05 0.000967994 2.4229e-05)
(8.94006e-05 0.000952564 1.23546e-05)
(8.52917e-05 0.000937211 1.54652e-06)
(8.02227e-05 0.000922165 -8.07076e-06)
(7.42488e-05 0.000907093 -1.65923e-05)
(6.74756e-05 0.000891992 -2.39695e-05)
(5.99905e-05 0.000876298 -3.03727e-05)
(5.192e-05 0.000859712 -3.58265e-05)
(4.34024e-05 0.00084133 -4.05897e-05)
(3.46154e-05 0.000820384 -4.47957e-05)
(2.57805e-05 0.000795375 -4.88074e-05)
(1.71528e-05 0.000764733 -5.28264e-05)
(9.04552e-06 0.000725893 -5.75652e-05)
(1.92542e-06 0.00067586 -6.513e-05)
(-3.20007e-06 0.000610115 -7.99209e-05)
(-4.9426e-06 0.000523047 -9.8317e-05)
(-4.88037e-06 0.00033141 -8.03761e-05)
(-1.72106e-06 0.000404234 0.000177166)
(5.89689e-08 0.000627189 0.000178769)
(1.8719e-06 0.000731223 0.00015743)
(5.34419e-06 0.000810559 0.000139576)
(9.56637e-06 0.000871201 0.000127813)
(1.4167e-05 0.000917069 0.000118303)
(1.89529e-05 0.000951708 0.000109299)
(2.38257e-05 0.000977275 0.00010027)
(2.8644e-05 0.000995956 9.1192e-05)
(3.32799e-05 0.00100894 8.19212e-05)
(3.76108e-05 0.00101768 7.25571e-05)
(4.15234e-05 0.00102283 6.3068e-05)
(4.49349e-05 0.00102542 5.3658e-05)
(4.77447e-05 0.00102578 4.43456e-05)
(4.99188e-05 0.00102466 3.53889e-05)
(5.14093e-05 0.0010222 2.67979e-05)
(5.21513e-05 0.00101896 1.87213e-05)
(5.21678e-05 0.00101491 1.12135e-05)
(5.14616e-05 0.00101042 4.45345e-06)
(5.00142e-05 0.00100533 -1.63956e-06)
(4.78711e-05 0.000999865 -6.93482e-06)
(4.50448e-05 0.000993681 -1.15615e-05)
(4.15953e-05 0.000986837 -1.54388e-05)
(3.75665e-05 0.000978782 -1.87454e-05)
(3.30406e-05 0.000969317 -2.14468e-05)
(2.81015e-05 0.000957583 -2.37733e-05)
(2.28614e-05 0.000942978 -2.57443e-05)
(1.74583e-05 0.000924133 -2.76579e-05)
(1.20571e-05 0.000899748 -2.95851e-05)
(6.86048e-06 0.000867559 -3.18479e-05)
(2.09389e-06 0.000825024 -3.47196e-05)
(-1.8827e-06 0.000768283 -3.97288e-05)
(-4.41513e-06 0.000692538 -4.95115e-05)
(-4.85067e-06 0.000591017 -6.15632e-05)
(-3.96136e-06 0.000366973 -4.84039e-05)
(-1.48335e-06 0.000361621 0.00011431)
(-9.17622e-07 0.000583383 0.00011701)
(-7.90956e-07 0.000686837 0.000106218)
(-4.98209e-08 0.000766441 9.66196e-05)
(1.08081e-06 0.000827766 8.96703e-05)
(2.45434e-06 0.000875363 8.36712e-05)
(4.00283e-06 0.000912247 7.77036e-05)
(5.69662e-06 0.000941099 7.17103e-05)
(7.4805e-06 0.000963522 6.56006e-05)
(9.30703e-06 0.000981169 5.95065e-05)
(1.11128e-05 0.000994868 5.33758e-05)
(1.28558e-05 0.0010057 4.7396e-05)
(1.44789e-05 0.00101406 4.15453e-05)
(1.59446e-05 0.0010207 3.60307e-05)
(1.71864e-05 0.00102575 3.08243e-05)
(1.81813e-05 0.00102975 2.61215e-05)
(1.88929e-05 0.00103267 2.18494e-05)
(1.92963e-05 0.00103489 1.81833e-05)
(1.93604e-05 0.00103621 1.50223e-05)
(1.90851e-05 0.0010369 1.24863e-05)
(1.84625e-05 0.00103659 1.04222e-05)
(1.74779e-05 0.00103541 8.96308e-06)
(1.61492e-05 0.00103281 7.91368e-06)
(1.45023e-05 0.00102869 7.3129e-06)
(1.25663e-05 0.00102227 6.93133e-06)
(1.0395e-05 0.00101313 6.77752e-06)
(8.05126e-06 0.00100006 6.58321e-06)
(5.61333e-06 0.000982084 6.31747e-06)
(3.18687e-06 0.000957276 5.67769e-06)
(8.81634e-07 0.00092371 4.61602e-06)
(-1.16313e-06 0.000878157 2.70596e-06)
(-2.75799e-06 0.00081697 -8.33306e-07)
(-3.54849e-06 0.000734581 -7.83835e-06)
(-3.30622e-06 0.000624206 -1.67467e-05)
(-2.35677e-06 0.000380693 -1.32895e-05)
(-2.23616e-06 0.000339699 7.8936e-05)
(-3.15314e-06 0.0005624 9.07601e-05)
(-4.65117e-06 0.000666136 9.07138e-05)
(-6.24998e-06 0.000745675 8.90522e-05)
(-7.52066e-06 0.00080711 8.70605e-05)
(-8.48982e-06 0.000854699 8.44199e-05)
(-9.19436e-06 0.000891963 8.12049e-05)
(-9.62867e-06 0.000921175 7.74626e-05)
(-9.80076e-06 0.00094443 7.34547e-05)
(-9.71735e-06 0.000962911 6.92164e-05)
(-9.40158e-06 0.000977926 6.4981e-05)
(-8.87795e-06 0.000990049 6.07634e-05)
(-8.18459e-06 0.00100015 5.67857e-05)
(-7.34967e-06 0.00100844 5.3037e-05)
(-6.41547e-06 0.00101553 4.97168e-05)
(-5.41894e-06 0.0010214 4.67935e-05)
(-4.41616e-06 0.00102646 4.44567e-05)
(-3.43578e-06 0.00103055 4.2624e-05)
(-2.52176e-06 0.00103395 4.14282e-05)
(-1.70552e-06 0.00103635 4.07386e-05)
(-1.02693e-06 0.00103795 4.06209e-05)
(-4.81718e-07 0.00103827 4.08522e-05)
(-9.56364e-08 0.00103727 4.14811e-05)
(1.26122e-07 0.00103427 4.22989e-05)
(1.93298e-07 0.00102898 4.33087e-05)
(1.18859e-07 0.00102041 4.42613e-05)
(-7.14916e-08 0.00100785 4.51205e-05)
(-3.43767e-07 0.000989768 4.55954e-05)
(-6.61425e-07 0.000964746 4.56055e-05)
(-9.76178e-07 0.000930293 4.48198e-05)
(-1.24146e-06 0.000883709 4.30304e-05)
(-1.39884e-06 0.000820816 3.94226e-05)
(-1.35998e-06 0.000736565 3.28342e-05)
(-1.04406e-06 0.000623726 2.34983e-05)
(-5.31454e-07 0.000375916 1.47224e-05)
(-3.02967e-06 0.000324424 5.98086e-05)
(-4.96606e-06 0.000543385 8.15116e-05)
(-7.39197e-06 0.000644964 8.95532e-05)
(-1.02121e-05 0.000722772 9.38657e-05)
(-1.26289e-05 0.000782533 9.55779e-05)
(-1.46606e-05 0.00082885 9.55591e-05)
(-1.63353e-05 0.000864817 9.42443e-05)
(-1.7665e-05 0.000893115 9.20871e-05)
(-1.86218e-05 0.00091539 8.92898e-05)
(-1.92161e-05 0.000933269 8.61709e-05)
(-1.94405e-05 0.000947592 8.28411e-05)
(-1.93232e-05 0.000959397 7.95577e-05)
(-1.88725e-05 0.000969065 7.63814e-05)
(-1.81337e-05 0.000977294 7.35274e-05)
(-1.71314e-05 0.000984186 7.10128e-05)
(-1.59186e-05 0.000990227 6.90096e-05)
(-1.45326e-05 0.000995327 6.74855e-05)
(-1.30304e-05 0.000999816 6.65605e-05)
(-1.1454e-05 0.00100346 6.61443e-05)
(-9.85826e-06 0.00100642 6.63165e-05)
(-8.2826e-06 0.0010083 6.69595e-05)
(-6.76813e-06 0.00100911 6.80929e-05)
(-5.33976e-06 0.00100831 6.95235e-05)
(-4.02908e-06 0.00100572 7.12272e-05)
(-2.84885e-06 0.00100054 7.29714e-05)
(-1.81255e-06 0.000992296 7.46922e-05)
(-9.19498e-07 0.000979772 7.61153e-05)
(-1.70858e-07 0.000961986 7.71278e-05)
(4.38373e-07 0.000937044 7.73957e-05)
(9.13779e-07 0.000903053 7.67294e-05)
(1.24523e-06 0.00085692 7.46409e-05)
(1.39964e-06 0.00079512 7.05158e-05)
(1.32658e-06 0.000712393 6.30595e-05)
(1.1728e-06 0.000602242 5.18521e-05)
(1.00271e-06 0.000360958 3.20608e-05)
(-3.20281e-06 0.000313141 4.4377e-05)
(-5.50229e-06 0.000524553 7.07032e-05)
(-8.30916e-06 0.00062247 8.27693e-05)
(-1.15983e-05 0.000697086 8.99857e-05)
(-1.44805e-05 0.000754297 9.35387e-05)
(-1.69196e-05 0.000798197 9.46664e-05)
(-1.89756e-05 0.000832175 9.41997e-05)
(-2.06183e-05 0.000858458 9.25664e-05)
(-2.18443e-05 0.000879057 9.01809e-05)
(-2.26178e-05 0.000895167 8.72738e-05)
(-2.29553e-05 0.000908039 8.4151e-05)
(-2.28526e-05 0.000918281 8.09591e-05)
(-2.23426e-05 0.00092671 7.79407e-05)
(-2.14406e-05 0.00093359 7.5185e-05)
(-2.02036e-05 0.000939471 7.28829e-05)
(-1.86657e-05 0.000944392 7.10712e-05)
(-1.68947e-05 0.000948721 6.98852e-05)
(-1.49347e-05 0.000952325 6.93021e-05)
(-1.28618e-05 0.000955424 6.93961e-05)
(-1.07211e-05 0.000957735 7.00829e-05)
(-8.58362e-06 0.00095933 7.13747e-05)
(-6.4994e-06 0.000959767 7.31269e-05)
(-4.52215e-06 0.000958947 7.52947e-05)
(-2.68954e-06 0.000956227 7.76803e-05)
(-1.04282e-06 0.000951275 8.01888e-05)
(4.00094e-07 0.000943154 8.25754e-05)
(1.61692e-06 0.000931161 8.4695e-05)
(2.59322e-06 0.000913882 8.62491e-05)
(3.32516e-06 0.000889982 8.70193e-05)
(3.7984e-06 0.000857215 8.66154e-05)
(4.00086e-06 0.000813125 8.46406e-05)
(3.85449e-06 0.000753972 8.03027e-05)
(3.2851e-06 0.000675274 7.2412e-05)
(2.54762e-06 0.000570567 6.00401e-05)
(1.82721e-06 0.000341988 3.49154e-05)
(-2.68506e-06 0.000304916 2.60231e-05)
(-4.84799e-06 0.000508578 4.96115e-05)
(-7.56339e-06 0.000602593 6.14142e-05)
(-1.08258e-05 0.000674074 6.85889e-05)
(-1.37409e-05 0.000728455 7.19379e-05)
(-1.62678e-05 0.000769962 7.28421e-05)
(-1.83985e-05 0.000801576 7.20559e-05)
(-2.01172e-05 0.00082579 7.01072e-05)
(-2.13675e-05 0.000844243 6.73133e-05)
(-2.21347e-05 0.000858465 6.40233e-05)
(-2.23939e-05 0.000869352 6.0461e-05)
(-2.21697e-05 0.000877884 5.69001e-05)
(-2.14636e-05 0.000884527 5.35029e-05)
(-2.0324e-05 0.000889934 5.04859e-05)
(-1.8788e-05 0.0008943 4.79575e-05)
(-1.6927e-05 0.000898056 4.60751e-05)
(-1.47967e-05 0.000901206 4.48846e-05)
(-1.24807e-05 0.00090401 4.44753e-05)
(-1.00481e-05 0.000906307 4.48228e-05)
(-7.58557e-06 0.000908205 4.59434e-05)
(-5.16076e-06 0.000909384 4.77417e-05)
(-2.85185e-06 0.000909789 5.01632e-05)
(-7.16427e-07 0.000908924 5.30471e-05)
(1.18734e-06 0.000906537 5.6278e-05)
(2.8198e-06 0.000901898 5.96399e-05)
(4.14772e-06 0.000894474 6.29661e-05)
(5.14575e-06 0.00088319 6.59914e-05)
(5.80973e-06 0.000867061 6.84963e-05)
(6.13836e-06 0.000844429 7.01523e-05)
(6.13692e-06 0.000813528 7.06606e-05)
(5.80115e-06 0.000771678 6.95414e-05)
(5.0948e-06 0.000715698 6.61366e-05)
(3.97198e-06 0.000641077 5.92594e-05)
(2.80767e-06 0.000542042 4.81439e-05)
(1.82664e-06 0.000325836 2.51326e-05)
(-1.69105e-06 0.000302725 4.26677e-06)
(-3.44487e-06 0.000502431 1.89416e-05)
(-5.84287e-06 0.000594425 2.72985e-05)
(-8.83168e-06 0.000663929 3.21309e-05)
(-1.16582e-05 0.000716506 3.37707e-05)
(-1.4179e-05 0.000756072 3.32863e-05)
(-1.63644e-05 0.000785838 3.13482e-05)
(-1.81295e-05 0.000808019 2.83361e-05)
(-1.94258e-05 0.000824546 2.45918e-05)
(-2.01972e-05 0.000836688 2.03851e-05)
(-2.04375e-05 0.000845659 1.60214e-05)
(-2.01352e-05 0.000852188 1.17336e-05)
(-1.93208e-05 0.000857072 7.69865e-06)
(-1.80195e-05 0.000860701 4.09871e-06)
(-1.62985e-05 0.000863606 1.13823e-06)
(-1.42187e-05 0.000865948 -1.06933e-06)
(-1.18652e-05 0.000868054 -2.39754e-06)
(-9.32336e-06 0.000869901 -2.80873e-06)
(-6.69445e-06 0.000871641 -2.26182e-06)
(-4.06479e-06 0.000873079 -8.0056e-07)
(-1.53282e-06 0.000874198 1.53084e-06)
(8.17815e-07 0.000874625 4.60973e-06)
(2.91127e-06 0.000874157 8.31552e-06)
(4.68507e-06 0.000872215 1.24584e-05)
(6.09024e-06 0.000868359 1.68575e-05)
(7.09322e-06 0.000861737 2.1273e-05)
(7.68435e-06 0.000851564 2.54809e-05)
(7.85517e-06 0.00083656 2.92046e-05)
(7.63642e-06 0.000815379 3.21821e-05)
(7.05357e-06 0.000786002 3.41025e-05)
(6.15051e-06 0.000746103 3.46152e-05)
(4.93634e-06 0.000692335 3.31651e-05)
(3.46991e-06 0.000620613 2.88753e-05)
(2.14782e-06 0.000525153 2.13744e-05)
(1.20228e-06 0.000316756 6.83419e-06)
(-6.0594e-07 0.000308395 -1.70254e-05)
(-1.94927e-06 0.000510232 -1.37958e-05)
(-3.93904e-06 0.000602856 -1.02926e-05)
(-6.62092e-06 0.000672501 -8.75317e-06)
(-9.3194e-06 0.000724632 -9.48152e-06)
(-1.18447e-05 0.000763441 -1.17809e-05)
(-1.40798e-05 0.00079201 -1.52434e-05)
(-1.59316e-05 0.00081284 -1.95862e-05)
(-1.73021e-05 0.000827719 -2.45877e-05)
(-1.81364e-05 0.000838205 -2.99904e-05)
(-1.83922e-05 0.000845353 -3.5549e-05)
(-1.80729e-05 0.000850159 -4.09844e-05)
(-1.71906e-05 0.000853256 -4.59966e-05)
(-1.57944e-05 0.000855326 -5.03776e-05)
(-1.39441e-05 0.000856723 -5.39648e-05)
(-1.17257e-05 0.000857881 -5.6602e-05)
(-9.22896e-06 0.000858934 -5.81923e-05)
(-6.55878e-06 0.000860109 -5.86615e-05)
(-3.82075e-06 0.000861342 -5.79971e-05)
(-1.12587e-06 0.000862668 -5.62186e-05)
(1.42224e-06 0.000863832 -5.34024e-05)
(3.72753e-06 0.000864669 -4.96584e-05)
(5.70239e-06 0.000864719 -4.51452e-05)
(7.28036e-06 0.000863597 -4.00471e-05)
(8.40839e-06 0.000860593 -3.45845e-05)
(9.06146e-06 0.000855035 -2.89906e-05)
(9.22508e-06 0.00084587 -2.35202e-05)
(8.92187e-06 0.00083199 -1.84222e-05)
(8.18593e-06 0.000811793 -1.39516e-05)
(7.09147e-06 0.000783433 -1.03349e-05)
(5.70918e-06 0.000744346 -7.82372e-06)
(4.12841e-06 0.000691367 -6.74587e-06)
(2.47845e-06 0.000620206 -7.6202e-06)
(1.19424e-06 0.00052527 -1.02273e-05)
(3.62718e-07 0.000317536 -1.3424e-05)
(2.75025e-07 0.000322549 -3.38512e-05)
(-7.7436e-07 0.000532412 -4.11429e-05)
(-2.39287e-06 0.00062846 -4.23301e-05)
(-4.7635e-06 0.0007002 -4.40491e-05)
(-7.31184e-06 0.000753462 -4.71031e-05)
(-9.77473e-06 0.000792525 -5.11933e-05)
(-1.20097e-05 0.00082078 -5.61163e-05)
(-1.38745e-05 0.000840727 -6.17146e-05)
(-1.52752e-05 0.000854426 -6.78032e-05)
(-1.61282e-05 0.000863388 -7.41472e-05)
(-1.64033e-05 0.000868941 -8.05055e-05)
(-1.60824e-05 0.000872048 -8.66478e-05)
(-1.51874e-05 0.000873586 -9.23271e-05)
(-1.37617e-05 0.000874134 -9.73064e-05)
(-1.1876e-05 0.000874263 -0.000101383)
(-9.61177e-06 0.000874288 -0.000104391)
(-7.07499e-06 0.00087454 -0.000106208)
(-4.37509e-06 0.000875104 -0.000106761)
(-1.63059e-06 0.000876091 -0.000106024)
(1.04435e-06 0.000877369 -0.000104021)
(3.53764e-06 0.000878829 -0.000100831)
(5.73749e-06 0.00088012 -9.65717e-05)
(7.56428e-06 0.000880904 -9.14109e-05)
(8.93894e-06 0.000880587 -8.55485e-05)
(9.81359e-06 0.000878562 -7.92159e-05)
(1.01578e-05 0.000873932 -7.26614e-05)
(9.97779e-06 0.000865727 -6.61444e-05)
(9.29622e-06 0.000852603 -5.99096e-05)
(8.18147e-06 0.000833014 -5.41812e-05)
(6.71093e-06 0.000804869 -4.91272e-05)
(5.00562e-06 0.000765623 -4.48866e-05)
(3.19223e-06 0.000711843 -4.15928e-05)
(1.49124e-06 0.000639187 -3.94145e-05)
(3.2584e-07 0.000541757 -3.76213e-05)
(-3.93777e-07 0.000328104 -3.04823e-05)
(7.44895e-07 0.000343224 -4.34202e-05)
(-1.89735e-07 0.000564997 -5.75346e-05)
(-1.51324e-06 0.000666221 -6.1902e-05)
(-3.64855e-06 0.000741489 -6.58512e-05)
(-6.03115e-06 0.000796897 -7.0489e-05)
(-8.3919e-06 0.000837121 -7.57964e-05)
(-1.05438e-05 0.000865683 -8.17225e-05)
(-1.23582e-05 0.00088538 -8.81975e-05)
(-1.37157e-05 0.000898333 -9.50854e-05)
(-1.45435e-05 0.000906298 -0.000102186)
(-1.47905e-05 0.000910611 -0.000109252)
(-1.44498e-05 0.000912428 -0.000116028)
(-1.35357e-05 0.00091261 -0.000122253)
(-1.20943e-05 0.000911927 -0.000127695)
(-1.01916e-05 0.00091091 -0.000132142)
(-7.91929e-06 0.000910037 -0.000135429)
(-5.38246e-06 0.00090957 -0.000137423)
(-2.69159e-06 0.000909732 -0.000138052)
(2.90693e-08 0.000910533 -0.000137286)
(2.65702e-06 0.000911949 -0.000135155)
(5.07903e-06 0.000913745 -0.000131732)
(7.18764e-06 0.000915644 -0.00012715)
(8.88843e-06 0.000917157 -0.000121572)
(1.01136e-05 0.000917736 -0.000115215)
(1.08055e-05 0.000916601 -0.00010831)
(1.09478e-05 0.000912874 -0.000101118)
(1.05395e-05 0.000905388 -9.38959e-05)
(9.62483e-06 0.00089279 -8.689e-05)
(8.26828e-06 0.00087331 -8.02963e-05)
(6.57853e-06 0.000844805 -7.42477e-05)
(4.6762e-06 0.000804459 -6.87998e-05)
(2.73337e-06 0.000748723 -6.39606e-05)
(9.96015e-07 0.000672894 -5.96597e-05)
(-6.44173e-08 0.000570835 -5.48502e-05)
(-8.05529e-07 0.000346517 -4.08264e-05)
(8.29282e-07 0.000367703 -4.57439e-05)
(-1.53607e-07 0.000602767 -6.21356e-05)
(-1.35754e-06 0.000709879 -6.77072e-05)
(-3.37877e-06 0.000789198 -7.25333e-05)
(-5.66424e-06 0.000847257 -7.78054e-05)
(-7.92514e-06 0.000889001 -8.36046e-05)
(-9.98991e-06 0.000918254 -8.99484e-05)
(-1.17195e-05 0.000937963 -9.67883e-05)
(-1.30054e-05 0.000950476 -0.000104013)
(-1.37606e-05 0.000957631 -0.00011142)
(-1.39454e-05 0.000960949 -0.000118774)
(-1.35464e-05 0.000961628 -0.000125808)
(-1.25824e-05 0.000960687 -0.00013227)
(-1.10974e-05 0.000958909 -0.000137914)
(-9.16424e-06 0.000956957 -0.000142534)
(-6.87199e-06 0.000955296 -0.000145951)
(-4.32147e-06 0.000954293 -0.000148042)
(-1.63081e-06 0.000954129 -0.00014872)
(1.07657e-06 0.000954891 -0.000147966)
(3.68348e-06 0.000956483 -0.000145798)
(6.07047e-06 0.000958715 -0.000142304)
(8.13014e-06 0.000961214 -0.000137604)
(9.77544e-06 0.000963504 -0.000131879)
(1.09297e-05 0.000964917 -0.000125335)
(1.15476e-05 0.000964656 -0.000118218)
(1.16027e-05 0.000961699 -0.000110781)
(1.11065e-05 0.000954835 -0.00010329)
(1.00954e-05 0.000942539 -9.59814e-05)
(8.64702e-06 0.000922959 -8.90539e-05)
(6.86218e-06 0.00089374 -8.26165e-05)
(4.87726e-06 0.000851923 -7.67102e-05)
(2.857e-06 0.000793671 -7.12891e-05)
(1.06909e-06 0.000714021 -6.62154e-05)
(1.74925e-08 0.000606425 -6.03387e-05)
(-8.53593e-07 0.000369567 -4.39737e-05)
(6.29491e-07 0.000392906 -4.22627e-05)
(-4.98614e-07 0.000640599 -5.68826e-05)
(-1.7208e-06 0.00075331 -6.18379e-05)
(-3.74931e-06 0.000836538 -6.6297e-05)
(-5.98359e-06 0.000897153 -7.13219e-05)
(-8.17023e-06 0.000940427 -7.69573e-05)
(-1.01399e-05 0.000970383 -8.3182e-05)
(-1.17699e-05 0.000990189 -8.99392e-05)
(-1.29501e-05 0.00100232 -9.7095e-05)
(-1.36086e-05 0.00100879 -0.000104452)
(-1.36994e-05 0.00101119 -0.000111761)
(-1.32159e-05 0.00101087 -0.000118765)
(-1.21755e-05 0.00100889 -0.000125201)
(-1.06272e-05 0.00100615 -0.000130833)
(-8.64041e-06 0.00100334 -0.000135444)
(-6.30163e-06 0.00100102 -0.000138866)
(-3.71756e-06 0.000999546 -0.000140965)
(-1.00006e-06 0.000999162 -0.000141664)
(1.72851e-06 0.00099993 -0.000140933)
(4.34847e-06 0.00100178 -0.000138803)
(6.74677e-06 0.00100447 -0.000135347)
(8.81375e-06 0.00100763 -0.000130699)
(1.04622e-05 0.0010107 -0.000125028)
(1.16212e-05 0.00101298 -0.00011855)
(1.22401e-05 0.00101358 -0.0001115)
(1.22989e-05 0.00101141 -0.000104145)
(1.17997e-05 0.00100513 -9.67376e-05)
(1.07889e-05 0.000993145 -8.95283e-05)
(9.3291e-06 0.000973427 -8.27131e-05)
(7.53121e-06 0.0009435 -7.64232e-05)
(5.51295e-06 0.000900191 -7.07105e-05)
(3.43606e-06 0.000839467 -6.55765e-05)
(1.5507e-06 0.000756047 -6.09391e-05)
(4.22692e-07 0.000643054 -5.5763e-05)
(-6.42288e-07 0.000393972 -4.11082e-05)
(2.39941e-07 0.000416238 -3.51044e-05)
(-1.07624e-06 0.000674447 -4.5114e-05)
(-2.42008e-06 0.000791821 -4.81585e-05)
(-4.53114e-06 0.000878271 -5.13467e-05)
(-6.77016e-06 0.00094097 -5.54954e-05)
(-8.90611e-06 0.00098542 -6.04838e-05)
(-1.07938e-05 0.00101585 -6.62075e-05)
(-1.2322e-05 0.00103559 -7.25502e-05)
(-1.33954e-05 0.00104725 -7.93562e-05)
(-1.39407e-05 0.00105296 -8.64033e-05)
(-1.39223e-05 0.00105444 -9.34421e-05)
(-1.33361e-05 0.00105309 -0.000100208)
(-1.22017e-05 0.0010501 -0.000106443)
(-1.05671e-05 0.00104641 -0.000111907)
(-8.50162e-06 0.00104279 -0.000116391)
(-6.09351e-06 0.00103983 -0.000119721)
(-3.44545e-06 0.00103794 -0.000121773)
(-6.70914e-07 0.00103736 -0.000122465)
(2.11091e-06 0.00103819 -0.000121772)
(4.78184e-06 0.00104033 -0.000119719)
(7.22939e-06 0.00104354 -0.000116385)
(9.34894e-06 0.00104739 -0.000111895)
(1.10508e-05 0.0010513 -0.000106422)
(1.22645e-05 0.0010545 -0.000100173)
(1.29437e-05 0.00105602 -9.33907e-05)
(1.30603e-05 0.00105471 -8.63319e-05)
(1.26217e-05 0.00104913 -7.9261e-05)
(1.16619e-05 0.00103757 -7.24269e-05)
(1.0247e-05 0.0010179 -6.60499e-05)
(8.47321e-06 0.000987491 -6.02838e-05)
(6.45084e-06 0.000943027 -5.524e-05)
(4.31882e-06 0.000880272 -5.10091e-05)
(2.3021e-06 0.000793716 -4.76827e-05)
(1.02264e-06 0.00067618 -4.4461e-05)
(-2.54325e-07 0.000416813 -3.43702e-05)
(-2.16307e-07 0.000436036 -2.64995e-05)
(-1.717e-06 0.000701925 -3.05744e-05)
(-3.22377e-06 0.000822666 -3.10739e-05)
(-5.45524e-06 0.000911382 -3.25427e-05)
(-7.72426e-06 0.000975451 -3.54842e-05)
(-9.82876e-06 0.00102056 -3.95715e-05)
(-1.16492e-05 0.00105108 -4.45763e-05)
(-1.30889e-05 0.00107046 -5.03197e-05)
(-1.40563e-05 0.00108143 -5.6605e-05)
(-1.4493e-05 0.00108623 -6.31926e-05)
(-1.43653e-05 0.00108665 -6.98219e-05)
(-1.36733e-05 0.00108421 -7.62272e-05)
(-1.2437e-05 0.00108014 -8.21498e-05)
(-1.07075e-05 0.00107547 -8.73525e-05)
(-8.55491e-06 0.00107101 -9.16289e-05)
(-6.06478e-06 0.0010674 -9.4811e-05)
(-3.34057e-06 0.00106509 -9.67745e-05)
(-4.93409e-07 0.00106435 -9.7443e-05)
(2.35928e-06 0.00106526 -9.67906e-05)
(5.10044e-06 0.00106775 -9.48422e-05)
(7.61778e-06 0.00107152 -9.16733e-05)
(9.80979e-06 0.00107614 -8.74073e-05)
(1.15878e-05 0.00108096 -8.22121e-05)
(1.28819e-05 0.00108517 -7.62935e-05)
(1.3641e-05 0.00108774 -6.98887e-05)
(1.38401e-05 0.00108743 -6.32563e-05)
(1.34801e-05 0.00108272 -5.66619e-05)
(1.25938e-05 0.00107182 -5.03644e-05)
(1.12392e-05 0.00105249 -4.46023e-05)
(9.50472e-06 0.001022 -3.95702e-05)
(7.48244e-06 0.000976899 -3.5443e-05)
(5.29194e-06 0.000912807 -3.24367e-05)
(3.13114e-06 0.000824038 -3.08558e-05)
(1.67473e-06 0.000703211 -3.02059e-05)
(2.04285e-07 0.00043631 -2.60303e-05)
(-6.24157e-07 0.000451646 -1.84746e-05)
(-2.26667e-06 0.000722337 -1.67364e-05)
(-3.94152e-06 0.000845127 -1.47012e-05)
(-6.29327e-06 0.000935112 -1.44313e-05)
(-8.60053e-06 0.000999803 -1.61334e-05)
(-1.06891e-05 0.00104499 -1.92746e-05)
(-1.24588e-05 0.00107516 -2.35078e-05)
(-1.38284e-05 0.00109384 -2.85929e-05)
(-1.47123e-05 0.00110386 -3.42951e-05)
(-1.50583e-05 0.00110753 -4.03592e-05)
(-1.48381e-05 0.00110674 -4.65169e-05)
(-1.40538e-05 0.00110306 -5.25016e-05)
(-1.27281e-05 0.00109781 -5.80547e-05)
(-1.09128e-05 0.00109207 -6.29462e-05)
(-8.67675e-06 0.00108672 -6.6972e-05)
(-6.10699e-06 0.00108243 -6.9972e-05)
(-3.30653e-06 0.00107969 -7.18241e-05)
(-3.88063e-07 0.00107878 -7.24584e-05)