/*--------------------------------*- C++ -*----------------------------------*\
| =========                 |                                                 |
| \\      /  F ield         | OpenFOAM: The Open Source CFD Toolbox           |
|  \\    /   O peration     | Version:  v1906                                 |
|   \\  /    A nd           | Web:      www.OpenFOAM.com                      |
|    \\/     M anipulation  |                                                 |
\*---------------------------------------------------------------------------*/
FoamFile
{
    version     2.0;
    format      ascii;
    class       volVectorField;
    location    "41";
    object      U;
}
// * * * * * * * * * * * * * * * * * * * * * * * * * * * * * * * * * * * * * //

dimensions      [0 1 -1 0 0 0 0];


internalField   nonuniform List<vector> 
78750
(
(-0.635824 -0.262224 -0.210497)
(-0.553894 -0.226146 -0.210132)
(-0.541143 -0.177417 -0.199696)
(-0.45908 -0.135298 -0.184562)
(-0.36439 -0.103182 -0.160393)
(-0.343855 -0.092775 -0.135458)
(-0.314062 -0.0767676 -0.124543)
(-0.288219 -0.0708825 -0.113521)
(-0.26152 -0.0586364 -0.111184)
(-0.239198 -0.0539266 -0.105792)
(-0.21927 -0.0445643 -0.105463)
(-0.201179 -0.0405093 -0.102969)
(-0.185644 -0.0334801 -0.103428)
(-0.170443 -0.0298632 -0.102584)
(-0.157421 -0.0246937 -0.103396)
(-0.14457 -0.0213277 -0.103407)
(-0.133103 -0.0174425 -0.104249)
(-0.121938 -0.0143347 -0.104631)
(-0.111308 -0.011214 -0.105348)
(-0.101099 -0.00848172 -0.105738)
(-0.0911758 -0.00591133 -0.106193)
(-0.0816077 -0.00353703 -0.106457)
(-0.0722733 -0.00134399 -0.106628)
(-0.0632161 0.000701749 -0.106639)
(-0.0543742 0.00260349 -0.106491)
(-0.0457522 0.00438356 -0.106154)
(-0.0373266 0.00605976 -0.105604)
(-0.0290906 0.00765808 -0.104808)
(-0.0210365 0.00921949 -0.103718)
(-0.013158 0.0108196 -0.102267)
(-0.00543749 0.0126132 -0.10035)
(0.00219328 0.0149308 -0.097797)
(0.00825348 0.0187003 -0.0942795)
(0.0183107 0.0292533 -0.0895349)
(0.0158377 0.102675 -0.0234546)
(0.098949 -0.542964 0.104394)
(-0.132543 -0.312933 -0.0100797)
(-0.0306327 -0.287416 -0.103762)
(-0.0840547 -0.269954 -0.143991)
(-0.0745509 -0.200389 -0.166209)
(-0.0825978 -0.151986 -0.168959)
(-0.0809777 -0.113815 -0.165702)
(-0.0803165 -0.0867998 -0.160339)
(-0.0787355 -0.0653601 -0.154945)
(-0.076715 -0.0486287 -0.150809)
(-0.075266 -0.0348604 -0.146991)
(-0.0733997 -0.0233126 -0.144525)
(-0.0715979 -0.0137277 -0.142887)
(-0.0692831 -0.00540009 -0.142275)
(-0.0666771 0.00175208 -0.142333)
(-0.0634838 0.00798387 -0.143004)
(-0.0598256 0.0133749 -0.144044)
(-0.0556544 0.0180787 -0.145361)
(-0.0511286 0.0222028 -0.146819)
(-0.0463977 0.0257663 -0.148221)
(-0.0414591 0.0288301 -0.149494)
(-0.0363456 0.031456 -0.150602)
(-0.0311012 0.0336962 -0.151536)
(-0.0257699 0.0356067 -0.152298)
(-0.0203938 0.0372418 -0.152899)
(-0.0150184 0.0386554 -0.153344)
(-0.00969611 0.0398999 -0.153623)
(-0.00449404 0.0410298 -0.153698)
(0.000495113 0.0421092 -0.153482)
(0.00513398 0.0432391 -0.15281)
(0.00917725 0.044661 -0.151364)
(0.0121763 0.0471274 -0.1485)
(0.0137488 0.0536627 -0.142243)
(0.0143118 0.0869364 -0.121139)
(0.0066204 0.248721 -0.0277907)
(-0.0517466 0.228043 0.0124504)
(-0.072843 0.0649187 0.0128197)
(-0.107253 0.0651057 -0.014756)
(-0.112407 0.0500084 -0.0280062)
(-0.122006 0.0442506 -0.0474582)
(-0.120494 0.048221 -0.0624083)
(-0.119714 0.0528541 -0.0759636)
(-0.116738 0.0577833 -0.0859538)
(-0.113799 0.0620235 -0.0934999)
(-0.110008 0.0659504 -0.0988239)
(-0.105438 0.0698531 -0.102113)
(-0.100104 0.0732418 -0.104077)
(-0.0942871 0.0759577 -0.105033)
(-0.0883124 0.0778949 -0.105156)
(-0.0825486 0.0791743 -0.104622)
(-0.0772217 0.0800646 -0.103732)
(-0.0723699 0.0809129 -0.102774)
(-0.0678784 0.0819185 -0.101971)
(-0.0635754 0.0831346 -0.101449)
(-0.0593016 0.084568 -0.101266)
(-0.0549315 0.0862148 -0.101453)
(-0.0503702 0.0880679 -0.102016)
(-0.0455553 0.0901112 -0.102927)
(-0.0404588 0.092346 -0.104122)
(-0.0350878 0.0948194 -0.105512)
(-0.0294792 0.0976519 -0.107013)
(-0.0236919 0.101055 -0.108559)
(-0.0178046 0.10535 -0.110106)
(-0.0119196 0.111016 -0.111625)
(-0.00617386 0.118804 -0.11309)
(-0.000765275 0.130034 -0.114419)
(0.00399661 0.14756 -0.115267)
(0.00754096 0.17971 -0.113644)
(0.00810855 0.251608 -0.0964537)
(0.00165594 0.373358 -0.0208996)
(0.00140698 0.13831 0.0402722)
(0.0131047 0.0988337 0.0676417)
(-0.00110586 0.035939 0.0858834)
(0.000674791 -0.0329481 0.102599)
(-0.00527937 -0.0745131 0.110209)
(-0.00556006 -0.0766738 0.107862)
(-0.00642835 -0.0550555 0.102067)
(-0.0060732 -0.0258159 0.0966276)
(-0.00600011 -0.00139189 0.0927396)
(-0.00707595 0.0152045 0.0886539)
(-0.00943073 0.0247073 0.0827269)
(-0.0127812 0.0304829 0.0737993)
(-0.0168208 0.0361457 0.0607695)
(-0.0212702 0.0437105 0.042707)
(-0.025575 0.0536574 0.0207688)
(-0.0290879 0.0650132 -0.000655425)
(-0.0313162 0.0749232 -0.0180074)
(-0.0321928 0.081873 -0.031228)
(-0.0319981 0.0861975 -0.0415974)
(-0.0310689 0.0885722 -0.0499794)
(-0.0296606 0.0894982 -0.0567027)
(-0.0279379 0.0894404 -0.0618497)
(-0.0259683 0.0888891 -0.0654957)
(-0.0237418 0.0883377 -0.0678942)
(-0.0212084 0.088218 -0.0694854)
(-0.0183233 0.0888473 -0.0706942)
(-0.0150767 0.0904672 -0.0717776)
(-0.0115055 0.0933559 -0.0728429)
(-0.00770019 0.0979489 -0.0739068)
(-0.00383315 0.105015 -0.0749266)
(-0.000155988 0.116174 -0.0758233)
(0.00301388 0.136133 -0.0765034)
(0.00521233 0.181957 -0.076168)
(0.00621306 0.297665 -0.0650452)
(0.00114755 0.423861 -0.00896819)
(0.00272684 0.0442647 0.0425694)
(0.00992063 0.0321263 0.0506329)
(0.0131004 -0.00377047 0.0452876)
(0.0166069 -0.0386535 0.0360093)
(0.0184992 -0.0578367 0.0297155)
(0.0199593 -0.0654498 0.0272693)
(0.0223047 -0.0635259 0.0273593)
(0.0261289 -0.0510481 0.0292071)
(0.0309009 -0.0287172 0.0314393)
(0.0354788 6.91803e-05 0.0329185)
(0.0389327 0.0315671 0.0331532)
(0.040541 0.0625801 0.0323724)
(0.0401391 0.0900192 0.0322948)
(0.0377379 0.112816 0.0358012)
(0.0329677 0.12827 0.0459956)
(0.0264241 0.130582 0.0572433)
(0.0195197 0.123975 0.0626623)
(0.0127045 0.116664 0.0627449)
(0.00631568 0.112208 0.0593965)
(0.000888499 0.110947 0.0536218)
(-0.00321527 0.112072 0.0457239)
(-0.00597062 0.114497 0.0355854)
(-0.00758885 0.117208 0.0229824)
(-0.00841159 0.11952 0.00844595)
(-0.00872717 0.121177 -0.00621836)
(-0.00859439 0.122619 -0.0193366)
(-0.00796825 0.124748 -0.0304039)
(-0.00684715 0.128565 -0.0395108)
(-0.00528785 0.135159 -0.0468628)
(-0.00337073 0.146054 -0.0526996)
(-0.00119488 0.164207 -0.0572096)
(0.00102758 0.196894 -0.0601596)
(0.00220739 0.262586 -0.0593461)
(0.00241614 0.381873 -0.0460961)
(-0.000563084 0.470337 -0.00271782)
(-0.000180357 -0.00641904 0.0375066)
(0.00826187 -0.0588732 0.0539465)
(0.0204896 -0.114907 0.0601564)
(0.0339968 -0.157808 0.0642635)
(0.0459151 -0.181503 0.0668244)
(0.0553305 -0.189147 0.0681863)
(0.0626092 -0.185205 0.0688792)
(0.0679839 -0.172344 0.0694012)
(0.0716829 -0.152229 0.0701766)
(0.0742421 -0.125995 0.0712807)
(0.0762225 -0.0945033 0.0722156)
(0.0779717 -0.0586609 0.0719191)
(0.0795569 -0.0202221 0.0692927)
(0.0806503 0.0190686 0.0636291)
(0.0807029 0.0575055 0.0554144)
(0.0789228 0.0918928 0.0453392)
(0.074785 0.117379 0.033728)
(0.0685895 0.130794 0.0217979)
(0.0612868 0.133718 0.0106782)
(0.0533163 0.129438 0.00102018)
(0.0451582 0.121221 -0.00595586)
(0.0375447 0.113265 -0.00871975)
(0.0302223 0.109326 -0.00617084)
(0.0229734 0.110156 -1.23796e-05)
(0.0166865 0.112881 0.00446905)
(0.0117499 0.115882 0.00523519)
(0.0079664 0.1195 0.00309834)
(0.00521279 0.124491 -0.00126686)
(0.00344675 0.131665 -0.00752963)
(0.00253979 0.142361 -0.0151852)
(0.00229351 0.159917 -0.0236257)
(0.00250881 0.194481 -0.0321497)
(0.00269839 0.274715 -0.0375478)
(0.0026329 0.419688 -0.0289079)
(1.978e-05 0.492692 0.00241735)
(0.00521582 -0.0699911 0.0302151)
(0.0284329 -0.198426 0.0386803)
(0.0474114 -0.269113 0.0362755)
(0.0621706 -0.297274 0.0316338)
(0.0708187 -0.296063 0.0252657)
(0.0748022 -0.277595 0.0173547)
(0.0752496 -0.247748 0.00899213)
(0.0727799 -0.211542 0.002203)
(0.0687669 -0.173366 -0.00105916)
(0.0648111 -0.136061 0.000280731)
(0.06186 -0.101022 0.00642541)
(0.060134 -0.0682243 0.0167661)
(0.0594857 -0.0368455 0.0298822)
(0.0596422 -0.00613438 0.0436932)
(0.0607317 0.0241639 0.0562234)
(0.0623832 0.053493 0.0655434)
(0.0639856 0.0802614 0.0706024)
(0.064753 0.102428 0.0713223)
(0.0640999 0.119337 0.0685552)
(0.0617509 0.131971 0.0633779)
(0.0574747 0.141574 0.056555)
(0.051264 0.148887 0.0489336)
(0.0436945 0.154029 0.0417615)
(0.0357735 0.155889 0.0356557)
(0.0282887 0.152874 0.0298014)
(0.0218852 0.147329 0.0240613)
(0.0170011 0.144357 0.0189239)
(0.0132692 0.146108 0.0137511)
(0.010206 0.153412 0.00726097)
(0.00772757 0.167773 -0.00170998)
(0.00577367 0.192768 -0.0132484)
(0.00414737 0.239762 -0.0254871)
(0.00214273 0.334658 -0.0316129)
(0.00129337 0.47129 -0.0224729)
(-0.000445035 0.515157 0.00144902)
(0.00962923 -0.265781 0.0246245)
(0.0224534 -0.376502 0.0269553)
(0.0230923 -0.382252 0.0248609)
(0.0179967 -0.354444 0.0198954)
(0.00637579 -0.296571 0.00798227)
(-0.00800306 -0.225149 -0.011325)
(-0.018484 -0.158426 -0.0311463)
(-0.0248616 -0.109169 -0.0450569)
(-0.0283317 -0.0791932 -0.0511755)
(-0.0291615 -0.0605264 -0.0519271)
(-0.0281038 -0.0453014 -0.0498017)
(-0.025445 -0.030004 -0.045433)
(-0.0213771 -0.0135973 -0.0386836)
(-0.0164307 0.00394921 -0.0296301)
(-0.0108813 0.0224275 -0.018687)
(-0.00475482 0.0414248 -0.0070062)
(0.0019372 0.0604769 0.00436997)
(0.00855261 0.0787222 0.014413)
(0.0143546 0.095214 0.0222686)
(0.0188333 0.109033 0.0273548)
(0.0217259 0.11963 0.0296229)
(0.0231946 0.127096 0.0297)
(0.0235978 0.131705 0.0283834)
(0.0232115 0.133431 0.0261442)
(0.0221373 0.132125 0.0232078)
(0.0203467 0.128863 0.0199881)
(0.0181545 0.126626 0.0172645)
(0.0158047 0.128363 0.0155665)
(0.0133206 0.137232 0.0149015)
(0.0110857 0.156063 0.0131888)
(0.00920245 0.187407 0.00626154)
(0.00696485 0.243206 -0.00791472)
(0.00360217 0.355758 -0.0207187)
(0.00173672 0.503822 -0.0163864)
(-6.90154e-05 0.530538 0.00140867)
(-0.00954978 -0.272547 0.0442373)
(-0.0237193 -0.291704 0.0463242)
(-0.0360924 -0.256679 0.0428128)
(-0.0480753 -0.176235 0.0305941)
(-0.0478924 -0.114697 0.0102826)
(-0.0428913 -0.107032 -0.00168392)
(-0.0366742 -0.104737 -0.00619685)
(-0.0301532 -0.0970801 -0.011406)
(-0.025153 -0.0885379 -0.017578)
(-0.0223398 -0.0805776 -0.0234727)
(-0.0208948 -0.0716622 -0.0285373)
(-0.0197786 -0.0605866 -0.0324844)
(-0.0181462 -0.0477899 -0.0349968)
(-0.0155771 -0.0340502 -0.0359686)
(-0.0118921 -0.0195149 -0.0355061)
(-0.00736397 -0.00415876 -0.0338341)
(-0.00235809 0.0121277 -0.0310976)
(0.00299641 0.0291823 -0.0275562)
(0.00846812 0.0466707 -0.0235783)
(0.0137542 0.0639784 -0.0196111)
(0.0184115 0.0802699 -0.0161143)
(0.0220411 0.0944669 -0.0132853)
(0.0243862 0.105575 -0.0110475)
(0.0253503 0.113322 -0.00918161)
(0.0250363 0.118606 -0.00737546)
(0.0235863 0.122843 -0.00492651)
(0.0209421 0.127373 -0.000731684)
(0.017281 0.133782 0.00595335)
(0.013401 0.144947 0.013902)
(0.0098491 0.16536 0.0201837)
(0.00677315 0.204899 0.0204093)
(0.00448602 0.28444 0.00798428)
(0.000467106 0.417462 -0.0104932)
(-0.00107491 0.543486 -0.0113413)
(-0.000807349 0.542508 -1.56202e-05)
(-0.00664345 -0.154214 0.016179)
(-0.0121403 -0.27888 0.00701172)
(-0.011552 -0.329988 0.0059907)
(-0.00643989 -0.361706 0.0124449)
(0.0015955 -0.372203 0.0230963)
(0.0122545 -0.35444 0.0353677)
(0.0229463 -0.306402 0.0463201)
(0.0322163 -0.23719 0.05245)
(0.0393681 -0.165275 0.0505493)
(0.0429221 -0.107954 0.0410964)
(0.0426964 -0.0714217 0.0280497)
(0.0398771 -0.0506956 0.0151858)
(0.0358672 -0.0379444 0.00415595)
(0.0318291 -0.0281819 -0.00472534)
(0.0286046 -0.0193985 -0.0115927)
(0.026401 -0.0108034 -0.0167694)
(0.0251319 -0.00175234 -0.0206062)
(0.0248028 0.00825265 -0.0233948)
(0.0253383 0.0194711 -0.0253538)
(0.0265621 0.0319537 -0.0266543)
(0.0282042 0.0456003 -0.0274471)
(0.0298912 0.0601366 -0.0278431)
(0.031171 0.0750779 -0.0278488)
(0.0315932 0.0897547 -0.0272314)
(0.0308529 0.103462 -0.0254946)
(0.0288725 0.115685 -0.0219421)
(0.0257032 0.126251 -0.0157625)
(0.0215017 0.135612 -0.00638064)
(0.0168702 0.146655 0.00501347)
(0.0127219 0.166033 0.0150426)
(0.00899023 0.202278 0.0207187)
(0.00610908 0.283844 0.0184686)
(0.00348015 0.442226 0.00317542)
(0.00192501 0.564318 -0.00219133)
(0.000857802 0.548091 0.00310837)
(0.00179304 -0.194036 0.0122436)
(0.0062406 -0.303108 0.00570429)
(0.00670441 -0.329479 6.85819e-07)
(0.00493248 -0.333524 -0.00442449)
(0.00151279 -0.330598 -0.0073726)
(-0.00202841 -0.324787 -0.00677575)
(-0.00364813 -0.311843 0.000165342)
(-0.00133828 -0.279344 0.0147636)
(0.00578444 -0.223433 0.0316814)
(0.0157561 -0.155589 0.0440208)
(0.025725 -0.0904094 0.0482703)
(0.033393 -0.0396054 0.0442917)
(0.0374389 -0.00785493 0.0349661)
(0.0380472 0.00869847 0.024088)
(0.0363174 0.0172894 0.0137675)
(0.0334118 0.0228792 0.00467768)
(0.0303707 0.027721 -0.00287217)
(0.0277711 0.0328081 -0.00889786)
(0.0256977 0.0388519 -0.0136924)
(0.0240976 0.0464105 -0.017568)
(0.0229458 0.0558333 -0.0207437)
(0.0221829 0.0672662 -0.0233387)
(0.0216327 0.0806877 -0.0253727)
(0.0210518 0.095753 -0.026661)
(0.0201807 0.111596 -0.0267431)
(0.0188079 0.126811 -0.0249494)
(0.0168824 0.139869 -0.0206535)
(0.0144898 0.149892 -0.0134004)
(0.011739 0.157318 -0.00258413)
(0.0094225 0.167669 0.0124579)
(0.00900454 0.207568 0.0247812)
(0.00706604 0.290319 0.0245108)
(0.00412596 0.457543 0.0147101)
(0.00287564 0.584181 0.00896981)
(0.00138665 0.560679 0.00968805)
(-0.00231274 -0.199535 0.00365253)
(-0.00162522 -0.299125 -0.00813907)
(0.000366891 -0.321532 -0.0141122)
(0.00266732 -0.327188 -0.0183408)
(0.00512009 -0.325817 -0.0222867)
(0.00730382 -0.320137 -0.0261935)
(0.00889401 -0.312307 -0.0298703)
(0.0100426 -0.302741 -0.0320291)
(0.0116173 -0.286892 -0.0293001)
(0.0153916 -0.255979 -0.0181879)
(0.0221052 -0.208519 -0.00106367)
(0.0309737 -0.150725 0.0170432)
(0.0405698 -0.0896982 0.0321282)
(0.04885 -0.0342608 0.0404345)
(0.0536184 0.00551396 0.0400967)
(0.0542396 0.027129 0.0337925)
(0.0520812 0.0379676 0.0255091)
(0.0483826 0.0449276 0.017043)
(0.0441214 0.0509962 0.00912163)
(0.0401142 0.0572865 0.00222853)
(0.0365739 0.064563 -0.00357347)
(0.0334881 0.0734419 -0.00845555)
(0.0308572 0.0843122 -0.0125732)
(0.0286569 0.0972014 -0.0159295)
(0.0267872 0.111486 -0.0182856)
(0.0250889 0.12573 -0.0191779)
(0.0233892 0.138121 -0.0181606)
(0.0216006 0.14736 -0.0150116)
(0.0196974 0.153068 -0.00931812)
(0.0173452 0.154366 0.00160451)
(0.0158758 0.18336 0.022914)
(0.0143366 0.300112 0.0295458)
(0.00776128 0.480893 0.0214613)
(0.00463771 0.60832 0.01636)
(0.00204257 0.579208 0.013719)
(0.00230926 -0.206878 0.00419671)
(0.0113731 -0.338886 0.00325261)
(0.0184818 -0.379225 0.00294543)
(0.0240509 -0.390481 0.00312767)
(0.028544 -0.389923 0.00313678)
(0.0321276 -0.380742 0.00254705)
(0.0346277 -0.361708 0.000436945)
(0.035672 -0.331749 -0.00513873)
(0.035012 -0.296539 -0.0152716)
(0.0332946 -0.264911 -0.0267371)
(0.0318407 -0.237807 -0.0341343)
(0.031944 -0.209144 -0.0337228)
(0.0347634 -0.17193 -0.0235244)
(0.040454 -0.122245 -0.00473829)
(0.0476189 -0.0607469 0.0174947)
(0.0531182 0.000697996 0.0339149)
(0.0542493 0.0431903 0.038187)
(0.0522471 0.0647159 0.0343136)
(0.0491971 0.0756352 0.0278016)
(0.0458059 0.0825976 0.0206552)
(0.0424674 0.0882704 0.0136085)
(0.039467 0.0939948 0.00713612)
(0.0368413 0.100704 0.00135472)
(0.0345924 0.108993 -0.00376929)
(0.0327267 0.118905 -0.00817044)
(0.0311667 0.129621 -0.0115723)
(0.0297188 0.139657 -0.0135987)
(0.0281541 0.147838 -0.0139886)
(0.0263927 0.153854 -0.0124989)
(0.0241181 0.158292 -0.00784307)
(0.0198355 0.176385 0.00773661)
(0.0169325 0.317149 0.0298117)
(0.00855051 0.525043 0.0232869)
(0.00398836 0.639296 0.0180967)
(0.00190161 0.60127 0.0132327)
(0.00292918 -0.267549 -0.0017676)
(0.00601378 -0.370352 -0.0110891)
(0.00795775 -0.384783 -0.0159167)
(0.00977569 -0.382262 -0.0188543)
(0.0118296 -0.37219 -0.0209531)
(0.0138853 -0.356048 -0.0221843)
(0.0159379 -0.334209 -0.0221927)
(0.0181686 -0.306143 -0.0207087)
(0.0206136 -0.270478 -0.0188335)
(0.0226462 -0.2295 -0.0194454)
(0.0233422 -0.19222 -0.0236472)
(0.0228047 -0.165113 -0.0287665)
(0.0219428 -0.145076 -0.0317087)
(0.0217274 -0.123894 -0.0296858)
(0.0238516 -0.0907096 -0.0178097)
(0.0292147 -0.0386206 0.00415726)
(0.0346394 0.01926 0.0239186)
(0.0368094 0.0587762 0.0310467)
(0.036609 0.0776859 0.029613)
(0.0355349 0.0874679 0.025612)
(0.0340616 0.0945438 0.0207659)
(0.032413 0.10097 0.0154476)
(0.0308244 0.107526 0.0100229)
(0.0293541 0.11484 0.00469191)
(0.0280298 0.123267 -0.000423423)
(0.0268197 0.132739 -0.00516562)
(0.0255818 0.142627 -0.00923183)
(0.024097 0.152104 -0.012196)
(0.0222785 0.160981 -0.0135753)
(0.0199328 0.171242 -0.0123202)
(0.0150785 0.198387 -0.00265959)
(0.011508 0.345008 0.024728)
(0.00489159 0.578166 0.022861)
(0.000791536 0.665323 0.0179416)
(0.000753757 0.614571 0.0122062)
(-0.00165828 -0.265568 -0.00168052)
(-0.00383572 -0.375901 -0.000608959)
(-0.00317908 -0.399711 0.000199265)
(-0.00163748 -0.404899 -0.000248477)
(0.0006896 -0.402057 -0.00162825)
(0.00364627 -0.392107 -0.00415487)
(0.0069054 -0.374106 -0.0080421)
(0.010029 -0.347647 -0.0128649)
(0.0128286 -0.313662 -0.0170999)
(0.0156635 -0.272543 -0.0193851)
(0.0187305 -0.226168 -0.0205401)
(0.0213556 -0.18215 -0.0222424)
(0.0228239 -0.147733 -0.0244144)
(0.0232884 -0.122364 -0.0258663)
(0.0233768 -0.0995224 -0.0248682)
(0.0243562 -0.068748 -0.0169977)
(0.0281279 -0.0194588 0.00179638)
(0.0323397 0.0352065 0.0206147)
(0.0335803 0.0710994 0.0282702)
(0.0327053 0.0881138 0.0280397)
(0.0310683 0.0973796 0.0252057)
(0.02904 0.104561 0.0213734)
(0.0268388 0.111522 0.0169085)
(0.0246791 0.118914 0.012086)
(0.0226217 0.127203 0.00710347)
(0.0206481 0.136732 0.00206223)
(0.0186848 0.147551 -0.00291697)
(0.0165916 0.159365 -0.00753875)
(0.0142633 0.172078 -0.0112199)
(0.0115766 0.188156 -0.0128346)
(0.00731497 0.224103 -0.00785508)
(0.00494564 0.363971 0.0165067)
(0.00247318 0.615304 0.024858)
(-0.000302853 0.680525 0.0211097)
(0.000308267 0.616142 0.0152007)
(-0.00182175 -0.245406 0.00070115)
(-0.00147084 -0.370645 0.00346952)
(0.000982885 -0.402426 0.00522286)
(0.00401271 -0.410494 0.00573316)
(0.00755161 -0.408202 0.00544167)
(0.0115165 -0.396652 0.00415004)
(0.0156146 -0.374247 0.00125518)
(0.0192845 -0.341065 -0.00382122)
(0.0219303 -0.302328 -0.0103767)
(0.0235394 -0.264203 -0.0163442)
(0.0247211 -0.227575 -0.0200994)
(0.0261259 -0.190357 -0.0216565)
(0.0276885 -0.153707 -0.0221479)
(0.0287671 -0.121441 -0.0224278)
(0.0291041 -0.0946991 -0.0224196)
(0.0290215 -0.0699528 -0.0209831)
(0.029373 -0.0390998 -0.0146264)
(0.0314725 0.00680759 0.000729076)
(0.0336601 0.055535 0.0170953)
(0.0334301 0.0875205 0.0249952)
(0.0314301 0.103872 0.0261463)
(0.0287193 0.113494 0.0245313)
(0.0256388 0.121142 0.0216898)
(0.0224499 0.128558 0.0181028)
(0.0193636 0.136461 0.0140599)
(0.0164316 0.145357 0.00973765)
(0.0136446 0.155637 0.00521025)
(0.0109657 0.167525 0.000547021)
(0.00835449 0.181275 -0.00402085)
(0.00582839 0.198847 -0.00786608)
(0.00323213 0.233412 -0.00828936)
(0.0021948 0.354271 0.00820069)
(0.00229308 0.616791 0.0284517)
(0.00149123 0.680969 0.027722)
(0.00114083 0.613307 0.0219739)
(-0.0019438 -0.243435 -0.00295836)
(0.000874212 -0.393527 0.00174642)
(0.00594998 -0.438931 0.00532972)
(0.0115218 -0.453023 0.0068397)
(0.0173667 -0.454064 0.00720238)
(0.0233925 -0.444785 0.00654585)
(0.0292196 -0.422956 0.00435533)
(0.0342972 -0.385106 -0.000558219)
(0.0380107 -0.33391 -0.00845026)
(0.0402663 -0.279682 -0.0169388)
(0.0412548 -0.23156 -0.0231944)
(0.0414058 -0.191384 -0.0261502)
(0.0412576 -0.155829 -0.0262271)
(0.0410434 -0.122012 -0.024516)
(0.0405752 -0.0900971 -0.0222304)
(0.0397039 -0.0610041 -0.0199736)
(0.0385963 -0.0327373 -0.0170254)
(0.0378817 0.00127579 -0.0103629)
(0.0382341 0.0461943 0.00262842)
(0.0380357 0.088818 0.015502)
(0.0360567 0.115287 0.0219363)
(0.0331401 0.129076 0.0233747)
(0.0298653 0.13762 0.0225507)
(0.0263642 0.144665 0.0206032)
(0.0228499 0.151632 0.0179538)
(0.0194824 0.159164 0.0148601)
(0.0163103 0.167705 0.0114767)
(0.0133522 0.177655 0.00786786)
(0.0106413 0.189518 0.00406091)
(0.00826134 0.20497 9.04058e-05)
(0.00683352 0.2345 -0.00360196)
(0.00608501 0.347887 0.00341228)
(0.00494663 0.606355 0.0286945)
(0.00456643 0.683688 0.0323571)
(0.00251602 0.619761 0.0273012)
(0.00112576 -0.253512 -0.00391818)
(0.010167 -0.425466 0.00328385)
(0.0187764 -0.481648 0.00633326)
(0.0262843 -0.497916 0.00731475)
(0.0330909 -0.497566 0.00733572)
(0.0391274 -0.484466 0.00640863)
(0.0435675 -0.455627 0.00359398)
(0.0453493 -0.408394 -0.00323126)
(0.0443268 -0.348936 -0.0150081)
(0.0420006 -0.287919 -0.0283961)
(0.0397643 -0.23282 -0.0386771)
(0.0381122 -0.186382 -0.0438609)
(0.0370763 -0.147705 -0.0444591)
(0.0365858 -0.114015 -0.0417551)
(0.0364784 -0.082898 -0.037071)
(0.0364661 -0.0533895 -0.0316211)
(0.0362931 -0.0246971 -0.0260015)
(0.0358358 0.00604807 -0.0194459)
(0.0354605 0.0437265 -0.00972587)
(0.0352242 0.0857072 0.00239396)
(0.0341556 0.118959 0.0116536)
(0.0323275 0.138459 0.0159816)
(0.0302819 0.149432 0.017142)
(0.0281259 0.157002 0.0167636)
(0.0258596 0.16356 0.01555)
(0.0235824 0.170062 0.0137986)
(0.0213778 0.177014 0.0116915)
(0.0192824 0.184841 0.0093453)
(0.0173264 0.194084 0.00680805)
(0.0155659 0.206049 0.00402261)
(0.0143004 0.228272 0.000609007)
(0.0123719 0.344424 0.00199508)
(0.0077602 0.603077 0.0255374)
(0.0057951 0.695412 0.0323803)
(0.00316586 0.635426 0.0278891)
(0.00398216 -0.300845 -0.00280388)
(0.0133129 -0.482543 -0.000318684)
(0.0203474 -0.531643 -0.00130473)
(0.0260115 -0.540558 -0.00233988)
(0.0309723 -0.532252 -0.00340012)
(0.0349372 -0.506834 -0.00507112)
(0.0366992 -0.455534 -0.00910821)
(0.0347416 -0.379228 -0.0188621)
(0.0296999 -0.297701 -0.03494)
(0.0242939 -0.229746 -0.0521253)
(0.0203493 -0.181124 -0.0640295)
(0.0182099 -0.146641 -0.069092)
(0.0174966 -0.119055 -0.0689362)
(0.0177999 -0.0935778 -0.0650771)
(0.0187922 -0.0678938 -0.0585095)
(0.0201115 -0.0413084 -0.0502384)
(0.021385 -0.0133374 -0.0410572)
(0.0223744 0.0179346 -0.0308215)
(0.0231181 0.0555712 -0.0185699)
(0.0236973 0.0968193 -0.00535762)
(0.023841 0.128896 0.00431878)
(0.0237074 0.146777 0.00881775)
(0.0234851 0.156665 0.0102732)
(0.0231658 0.163673 0.0103687)
(0.0227343 0.16985 0.00973871)
(0.0222263 0.175899 0.00861182)
(0.0216827 0.182229 0.0071376)
(0.021128 0.189297 0.00544353)
(0.0205722 0.197851 0.00361968)
(0.0199512 0.21005 0.00166054)
(0.0188946 0.237734 -0.000385765)
(0.0157335 0.378181 0.000685197)
(0.00837641 0.631429 0.0201402)
(0.00487991 0.717632 0.0269505)
(0.00284086 0.65584 0.0229382)
(0.00338182 -0.35445 0.00148451)
(0.00628664 -0.522539 -0.00332745)
(0.0075795 -0.556431 -0.00628414)
(0.00835189 -0.557629 -0.00786543)
(0.00900917 -0.54157 -0.00937743)
(0.00913392 -0.500599 -0.0123885)
(0.00806055 -0.422385 -0.0201393)
(0.00485794 -0.326226 -0.0351099)
(0.000670336 -0.244532 -0.0528977)
(-0.00153679 -0.186493 -0.0675843)
(-0.00148108 -0.148327 -0.0763837)
(-0.000302918 -0.122391 -0.0799753)
(0.00142005 -0.101863 -0.0800382)
(0.00346283 -0.0825173 -0.0773641)
(0.00575224 -0.0619952 -0.0720471)
(0.00814716 -0.0391719 -0.0641972)
(0.0104413 -0.0135096 -0.0542309)
(0.0125111 0.0161299 -0.0423959)
(0.0143961 0.0514915 -0.028689)
(0.0161226 0.0900651 -0.0147319)
(0.017494 0.12112 -0.00451943)
(0.0185357 0.139498 0.000600167)
(0.0193641 0.150104 0.00263259)
(0.0200614 0.157608 0.00325443)
(0.0206645 0.164051 0.00314951)
(0.0211805 0.170171 0.00256564)
(0.0216176 0.176412 0.00164583)
(0.0219778 0.183332 0.000514372)
(0.0222306 0.191984 -0.000715551)
(0.0222241 0.205892 -0.00190988)
(0.0203759 0.246606 -0.002402)
(0.0156705 0.418272 -0.000330039)
(0.00699225 0.668568 0.0135091)
(0.00292782 0.741369 0.0180988)
(0.0016883 0.674182 0.0147367)
(-0.000262458 -0.355265 -0.00226739)
(-0.00282948 -0.508078 -0.00831522)
(-0.00415484 -0.538236 -0.00825663)
(-0.00529209 -0.539019 -0.0078884)
(-0.0062119 -0.520829 -0.00828815)
(-0.00648268 -0.471853 -0.0113701)
(-0.00490181 -0.382355 -0.0210399)
(-0.00208908 -0.279642 -0.0395723)
(-0.000724663 -0.204762 -0.0591273)
(-0.000385493 -0.161006 -0.0715993)
(-3.98008e-05 -0.13314 -0.0779816)
(0.000634881 -0.111792 -0.0807358)
(0.00164374 -0.092865 -0.0810256)
(0.00289394 -0.0742913 -0.0791906)
(0.00431702 -0.0547456 -0.0751724)
(0.00584968 -0.0332616 -0.0687842)
(0.0074081 -0.00897715 -0.0598698)
(0.00896012 0.0193097 -0.0482846)
(0.0105588 0.052912 -0.0340802)
(0.0121979 0.089622 -0.0191959)
(0.0135293 0.119429 -0.00836077)
(0.0143841 0.136856 -0.00320103)
(0.0149388 0.146866 -0.00125429)
(0.0153328 0.154006 -0.000704364)
(0.0156315 0.160178 -0.000876932)
(0.0158663 0.166092 -0.00151703)
(0.0160628 0.17227 -0.00245329)
(0.0162296 0.179532 -0.00351804)
(0.0163452 0.189783 -0.00452917)
(0.0161757 0.210164 -0.005115)
(0.0138832 0.277549 -0.00379862)
(0.00941582 0.483914 9.81454e-05)
(0.00195883 0.711507 0.00705477)
(-0.000911368 0.764028 0.00868319)
(-0.000731559 0.680669 0.00609651)
(-0.00363528 -0.332885 -0.00427939)
(-0.00493044 -0.501715 -0.00100976)
(-0.00384305 -0.540799 0.0034527)
(-0.00235905 -0.546734 0.00543349)
(-0.000928668 -0.534437 0.00572593)
(0.000414475 -0.498132 0.00402538)
(0.00305438 -0.429015 0.000734875)
(0.00905554 -0.32439 -0.00732435)
(0.0153886 -0.215379 -0.0276215)
(0.0176817 -0.143363 -0.0502999)
(0.0168028 -0.105324 -0.0648399)
(0.0149698 -0.0832373 -0.0723679)
(0.0131564 -0.0666856 -0.0757812)
(0.011702 -0.0513271 -0.0764264)
(0.0107369 -0.0352557 -0.0747124)
(0.0102894 -0.0174071 -0.0706588)
(0.0103303 0.00302332 -0.0641242)
(0.0107684 0.0269665 -0.054865)
(0.0115403 0.0554757 -0.0426511)
(0.0126318 0.0879014 -0.0283381)
(0.0136742 0.117868 -0.0156007)
(0.0140989 0.137884 -0.00793556)
(0.0139281 0.149335 -0.00439327)
(0.013364 0.156833 -0.00284651)
(0.0124805 0.162913 -0.00227014)
(0.0113273 0.168603 -0.00229272)
(0.00996577 0.174555 -0.00270393)
(0.00845888 0.181762 -0.0032882)
(0.00685978 0.192743 -0.00377408)
(0.0051543 0.217121 -0.00365649)
(0.00235835 0.297117 -0.00120626)
(0.00270179 0.523878 0.00452205)
(-0.000433414 0.74275 0.00540872)
(-0.00239112 0.77945 0.00475194)
(-0.00147169 0.670483 0.00283855)
(-0.0010135 -0.313974 -0.0113647)
(0.00714325 -0.509656 -0.000530259)
(0.0142047 -0.561388 0.00623736)
(0.020157 -0.568653 0.00775292)
(0.0245326 -0.551821 0.00439619)
(0.0259996 -0.509683 -0.00477136)
(0.0235231 -0.45114 -0.0132883)
(0.0200125 -0.372675 -0.00982752)
(0.0201533 -0.25735 -0.00677776)
(0.021008 -0.147541 -0.0241889)
(0.0190676 -0.0816654 -0.046178)
(0.0163002 -0.0486406 -0.0603663)
(0.0139835 -0.0299181 -0.0678363)
(0.0122208 -0.0161108 -0.0713423)
(0.010898 -0.00341278 -0.0722046)
(0.00996102 0.00998067 -0.0708383)
(0.00942365 0.0252272 -0.0672183)
(0.00928887 0.0433868 -0.0610722)
(0.00953072 0.0654565 -0.0520371)
(0.0101263 0.0915742 -0.0402639)
(0.010857 0.118766 -0.02773)
(0.0112071 0.141139 -0.0178254)
(0.0109289 0.156315 -0.0117654)
(0.0101267 0.166611 -0.00836123)
(0.00887212 0.174611 -0.0064109)
(0.00717364 0.181748 -0.005301)
(0.00503687 0.18884 -0.00470973)
(0.00248463 0.196782 -0.00437251)
(-0.000370171 0.207625 -0.00396971)
(-0.00342942 0.229045 -0.00293353)
(-0.00655161 0.294641 0.000608763)
(-0.00271481 0.499518 0.00995941)
(-0.000338088 0.745285 0.012208)
(-0.00123483 0.779014 0.0111097)
(-0.000200643 0.658421 0.00875214)
(0.00567104 -0.363601 -0.00614487)
(0.0215992 -0.573347 0.0200873)
(0.0304147 -0.619644 0.0293253)
(0.0347805 -0.613832 0.0294692)
(0.0355235 -0.567552 0.0184839)
(0.0300847 -0.48072 -0.00572999)
(0.0196678 -0.386559 -0.0331729)
(0.00688009 -0.307647 -0.042677)
(-0.00313889 -0.217927 -0.0317782)
(-0.00805033 -0.114778 -0.0334708)
(-0.0107957 -0.0457919 -0.0500413)
(-0.0113487 -0.0136877 -0.0623512)
(-0.0107856 0.00258832 -0.0682668)
(-0.00990477 0.0141801 -0.0708816)
(-0.00882092 0.0249548 -0.0716045)
(-0.00755183 0.036389 -0.070725)
(-0.00616275 0.0494364 -0.068137)
(-0.0046639 0.0650906 -0.0634536)
(-0.00308139 0.0841163 -0.0562224)
(-0.00140514 0.106657 -0.0463355)
(0.000364787 0.130704 -0.0350493)
(0.0019759 0.151715 -0.0252392)
(0.00311727 0.167013 -0.0187021)
(0.00376244 0.178044 -0.0148357)
(0.00395489 0.18706 -0.0125813)
(0.0036895 0.19546 -0.0113346)
(0.00294303 0.20406 -0.0107548)
(0.00169698 0.213632 -0.0105324)
(-1.33442e-05 0.225651 -0.0102928)
(-0.00204343 0.245148 -0.00940658)
(-0.00433983 0.294627 -0.00576848)
(-0.00294617 0.459293 0.00738647)
(0.000662159 0.723886 0.0207755)
(0.000909072 0.766901 0.0219078)
(0.00110567 0.656423 0.0184208)
(0.00979577 -0.48025 0.0235791)
(0.0195363 -0.648636 0.0541712)
(0.0204846 -0.660183 0.0596228)
(0.015147 -0.615347 0.0506705)
(0.00166196 -0.501232 0.0189723)
(-0.0166953 -0.372019 -0.0194096)
(-0.0311918 -0.263063 -0.0478106)
(-0.0429656 -0.181846 -0.0573968)
(-0.0511302 -0.112108 -0.0552984)
(-0.0534644 -0.0504178 -0.059815)
(-0.051248 -0.017293 -0.0685361)
(-0.0471435 -0.00173441 -0.0722585)
(-0.0426185 0.00944637 -0.0737019)
(-0.0378798 0.0197077 -0.0740463)
(-0.0332233 0.0301036 -0.073508)
(-0.0288145 0.0412184 -0.0720452)
(-0.0246142 0.0537031 -0.0694894)
(-0.0205553 0.0682806 -0.0655099)
(-0.0166037 0.0854798 -0.0597221)
(-0.012726 0.105239 -0.0519741)
(-0.00891093 0.126312 -0.0428665)
(-0.00531138 0.146078 -0.0340271)
(-0.00220314 0.162356 -0.0270368)
(0.00028681 0.175247 -0.0221721)
(0.00220536 0.186113 -0.0189442)
(0.00361928 0.196212 -0.0169208)
(0.00455762 0.206471 -0.0158466)
(0.00503077 0.217797 -0.0154956)
(0.00505502 0.231738 -0.0155501)
(0.00468393 0.252959 -0.0154324)
(0.00371127 0.300974 -0.0131841)
(0.00108121 0.450923 -0.000444548)
(0.000592459 0.704799 0.0220916)
(0.00114733 0.756171 0.026289)
(0.00102042 0.66155 0.022584)
(0.00249571 -0.555955 0.0657282)
(-0.0032211 -0.65312 0.084831)
(-0.0138907 -0.625486 0.0821515)
(-0.0304807 -0.497386 0.0516311)
(-0.0493263 -0.323569 -0.00548499)
(-0.0639015 -0.223268 -0.0413175)
(-0.0704937 -0.16381 -0.0518449)
(-0.0738314 -0.113776 -0.0569652)
(-0.0732324 -0.0745214 -0.0623753)