/*--------------------------------*- C++ -*----------------------------------*\
| =========                 |                                                 |
| \\      /  F ield         | OpenFOAM: The Open Source CFD Toolbox           |
|  \\    /   O peration     | Version:  v1912                                 |
|   \\  /    A nd           | Website:  www.openfoam.com                      |
|    \\/     M anipulation  |                                                 |
\*---------------------------------------------------------------------------*/
FoamFile
{
    version     2.0;
    format      ascii;
    class       volScalarField;
    location    "472/oil";
    object      heatTransferCoeff(T);
}
// * * * * * * * * * * * * * * * * * * * * * * * * * * * * * * * * * * * * * //

dimensions      [1 0 -3 -1 0 0 0];


internalField   uniform 0;

boundaryField
{
    maxY
    {
        type            calculated;
        value           uniform 0;
    }
    minX
    {
        type            calculated;
        value           uniform 0;
    }
    maxX
    {
        type            calculated;
        value           uniform 0;
    }
    minY
    {
        type            calculated;
        value           uniform 0;
    }
    minZ
    {
        type            calculated;
        value           uniform 0;
    }
    maxZ
    {
        type            calculated;
        value           uniform 0;
    }
    oil_to_sphere
    {
        type            calculated;
        value           nonuniform List<scalar> 
1536
(
-11.8707
-6.64524
-6.51226
2.97651
3.19153
-6.40572
-2.17767
-3.93855
-3.31257
2.13772
5.98265
1.41628
-3.22176
1.22801
7.19059
-1.61714
-6.41431
-6.76434
-1.34066
-2.94634
-5.15214
-3.40024
-3.76185
-1.56076
-2.06762
-1.8132
-2.05569
-0.922912
-6.08893
-3.56075
-7.65479
-6.68501
-6.86131
-1.67915
-1.98371
-0.973075
-1.46055
0.0738649
-0.884633
-2.03128
-0.674828
-1.43114
-3.13325
-4.19556
-5.47613
-1.96604
-5.01818
-3.66073
6.77751
-1.78009
-4.66318
-3.3833
-3.56117
-1.56123
-5.92018
-9.48981
-3.70702
-2.95708
-5.06391
-4.5874
-2.99871
-3.16757
-2.8928
-1.42119
-1.92677
-2.77061
-2.93382
-4.77913
-4.74319
-5.90251
-1.39563
3.22685
1.53086
-1.82572
-1.80537
-9.83672
-6.93025
0.0440104
-1.62868
-6.57871
-5.22232
-4.44383
2.92394
3.05798
-6.06323
-10.8537
4.28562
-2.49187
-4.59025
-4.56675
-3.29571
-1.14818
-1.05861
-1.29669
-1.79516
-4.15301
-5.0951
-5.45697
-7.31294
-4.44661
-5.25627
-1.32198
-11.9472
-4.7037
1.75939
-1.70233
-2.13498
2.61072
2.66547
-12.0737
-6.87853
-3.90552
-3.12892
-3.76881
3.67262
3.1788
4.70567
-8.52988
-11.3792
-7.16329
-3.53795
-3.76923
-0.825134
-5.03462
-7.60005
-4.16832
-3.50852
-0.481442
-5.35623
-5.05391
-2.79076
-4.84214
-5.8537
-2.19434
-2.51453
-6.17019
-3.79917
-6.61791
-0.577389
-6.46752
-3.36387
-4.99204
-5.04622
-3.20592
-2.60656
-3.08924
-4.25975
-8.26348
-2.49166
-12.1675
-5.69711
-6.40481
-3.70705
-3.99269
-1.83841
-4.15228
-6.14467
-4.89321
-13.0108
-7.24247
-6.86554
-8.50198
0.814926
-0.0120217
-1.21802
-1.1353
-5.8629
-8.05436
-7.3233
-9.48299
-0.893687
-1.2172
-0.000572708
-5.10226
-3.4818
-3.97495
-10.4033
0.612064
1.86435
-10.86
-1.03456
-0.0936181
0.111859
-0.382125
-4.51623
-10.8616
-7.27773
-0.650285
1.01739
-6.67695
0.683583
-5.77724
-5.7937
-8.11514
1.47662
8.33451
-7.91339
-8.63767
-2.02831
-1.77591
-3.40161
-2.24361
-6.75292
-7.85034
-5.56125
-4.45636
-1.2396
-8.25783
-7.34619
-3.86901
-0.480096
-1.92501
-1.71325
-2.28878
-5.18996
-9.64886
1.08873
1.31414
1.15142
9.05205
-6.38282
-5.13542
-4.40545
-3.35005
-3.57048
-8.25972
-5.73761
-1.80862
-6.409
2.10329
-0.9883
8.10709
-3.19269
-6.03115
-7.93922
-7.39147
-6.41703
-5.32461
-7.15084
1.52653
0.773682
0.197322
-8.76339
-0.205967
8.22106
4.50802
-5.18282
-2.92465
-10.4707
-12.7904
-3.85566
3.07826
8.90369
-4.56964
-7.15824
-1.31069
-1.47027
3.89844
-1.11802
-8.24784
-11.0521
-2.87555
-1.45269
-9.23491
-7.29687
-1.88247
1.68237
-2.48845
-9.81704
-8.57586
-5.33645
-5.80857
-7.72143
0.121291
-1.67969
-7.99302
-5.79971
-6.49605
-3.12823
-6.41374
-9.50363
-5.50102
-5.07512
-8.94731
-1.33823
-1.27856
-1.72114
-0.891567
-1.19072
-8.18604
-9.98763
1.56415
-2.36387
-2.08475
-2.27721
-0.637512
-3.56926
-3.06837
-0.090555
3.83537
-1.05805
1.3586
-0.612836
-10.8716
-9.07087
-8.96881
-12.2715
0.442979
0.0650165
-3.33229
-12.1928
-10.9639
-0.986047
-3.16224
-0.715731
-5.70017
-1.55227
-5.04291
-5.47668
-6.93711
-5.95714
-1.97147
-6.13328
-1.00535
-7.74922
-8.42168
-6.59557
-6.16603
-0.246229
-10.1208
-9.86456
-5.54307
1.5939
-1.28093
-2.19441
-5.4961
-4.98326
-5.76722
-0.0763519
-7.66331
-7.71221
-6.9973
-8.9377
-4.8235
-4.1644
-2.9426
0.78909
-4.18181
-5.59098
0.830991
1.2014
0.277044
-11.6092
-7.54356
-8.93378
-4.94332
-4.06934
-8.04465
1.07476
-10.4801
-6.9401
-4.18647
-4.07077
1.41661
-6.86149
-7.42704
-0.434644
-4.201
-2.8299
-1.4658
-5.7096
-7.57644
-3.1281
-1.84037
0.414157
-9.66168
-7.78827
1.25214
-8.09153
-7.35023
-6.38242
-9.65087
-4.12045
-5.9828
2.27633
1.42489
-5.45168
-12.0791
-6.61094
-10.4108
-4.85939
-2.15047
-7.28353
0.320622
-0.678194
-4.98312
-7.48146
-5.78677
-5.00273
0.108053
0.0559332
-8.01258
-7.63289
-7.80154
-3.98873
-1.12767
-5.14013
-6.17799
-7.42717
-4.29346
-2.49041
-0.24163
-3.83974
0.57609
2.59684
-1.26694
-0.299496
-3.92699
2.08987
-2.21668
-10.0979
-2.09718
-2.03323
-7.41751
-7.36177
-5.61679
-2.84872
0.880955
-6.55936
-9.00611
-5.35266
-4.3452
-6.77204
-3.17541
-3.7336
-4.84963
2.97991
-5.2362
-7.72648
-8.87864
-7.22117
-6.04239
-5.83588
-4.34634
-2.60764
0.312054
-3.4997
-0.260184
1.40042
-0.736177
2.61754
-11.0302
-10.3137
-8.46093
-11.7364
0.544668
-11.1047
-0.0390351
-1.06422
-6.38561
0.936428
0.124601
-2.27975
-2.11969
-10.4923
-9.02208
-4.8684
-5.23144
-9.568
-8.04344
-4.29304
-6.135
-0.565154
-7.49619
1.59336
-8.81782
3.02587
-5.87649
-6.52565
-7.21322
-1.9408
0.347687
-2.75124
-7.37883
-2.99599
1.97079
-7.44056
-7.86408
-8.42633
-12.5204
-4.1867
-9.41766
0.489249
-0.16621
6.55654
4.48474
-4.27996
-2.27078
-1.59003
-0.739549
-11.4759
0.170704
1.04795
1.77106
-2.23113
2.2078
-12.937
-0.497827
-0.886541
-3.52512
5.85423
3.98953
-1.30602
-1.16869
-3.14211
-1.82519
-7.8297
-7.19492
-5.86121
-4.23927
2.46347
-1.56255
-6.98936
0.322551
-0.457062
-6.57315
-9.72752
-0.530958
6.62909
0.781992
6.00601
-3.42253
-1.95723
-0.90366
1.64192
5.85934
-5.71091
-6.45105
-5.02168
-3.31743
-9.85465
-5.88137
-5.52208
-4.07625
-0.208263
-1.75167
-7.80498
-5.86596
-2.42402
4.67882
-4.43509
-6.73041
-10.1548
-4.61069
-1.20751
-10.2131
-3.48875
-9.48952
-0.51738
-1.98376
0.161672
-2.09612
-4.53313
-9.74872
0.64459
-0.873998
-0.181521
-2.21595
-13.1103
1.67727
-1.6774
1.12145
-3.51774
-4.50693
-7.84695
-9.87643
2.55283
1.56138
-9.78826
-10.3981
3.47679
-9.42754
-8.11449
-6.5936
-7.92016
-5.50873
-3.83401
-4.12989
-9.60979
-4.26065
-5.61546
-3.82197
-7.44936
-4.62823
-3.43103
-3.07026
0.780814
-6.58469
-3.25544
-7.35709
-6.00939
-6.11534
-5.84418
-4.29828
1.4335
-7.95514
-7.90964
-5.67712
-3.37441
-4.74104
-11.9049
2.32862
-0.427998
0.578551
-4.3612
-0.538667
-11.9648
-2.10523
-2.63585
-3.63044
6.45493
5.57708
-1.46643
-1.36254
-4.12489
0.158766
-0.786602
-4.49811
-0.868597
-9.92424
0.897498
-11.6488
-1.93902
-4.22392
8.27755
5.77983
6.62739
-0.905765
-6.60572
-1.64619
-0.921197
5.93203
-3.92577
-6.8416
-4.02717
-14.3275
-0.521768
-7.8164
-5.4879
-6.80251
-8.2577
-8.02863
-6.73223
-3.5315
-2.48172
-3.48015
-6.79829
-2.85012
-5.09131
-4.53164
-4.98352
-7.24359
-5.87125
-6.55517
0.904149
-0.287416
8.47876
3.82913
2.72866
11.5273
-1.28287
-1.83728
-2.86398
-3.41102
2.6051
0.686323
-2.4079
-8.60448
-7.991
-2.30855
1.84126
-3.20016
-7.08042
-5.57431
-3.68837
2.22148
-0.519197
-5.75317
-4.72563
-3.59254
-1.45017
-6.23864
-6.3126
-9.65011
-6.3955
-4.38148
-1.83278
-0.705528
0.863583
-1.09795
-2.9009
-12.25
-4.28699
-10.8404
-0.445252
-12.6573
-1.30036
-3.04618
0.508306
0.0038807
-1.88339
1.01221
-2.75491
2.12842
-1.53404
-7.70707
-2.20469
1.31141
-9.99105
-6.07549
-5.18801
-3.23937
-9.39248
-15.079
3.74257
-5.93642
-4.83433
-5.59777
1.04425
-3.33179
-0.68484
-4.91733
-6.38029
-8.08476
-0.152244
-5.71808
-4.02981
-6.31264
-5.9874
-5.48895
-2.31699
-2.93311
-1.58864
1.91912
2.48346
0.231305
-9.21732
-1.55287
1.0857
-1.70088
-7.85318
-2.69859
-9.1613
-7.15872
-5.3249
-4.36829
-5.21372
-10.279
0.219475
-5.85581
-8.11443
-8.68247
-4.2629
-0.646962
-2.55853
-5.22658
-8.83152
0.590113
-2.99379
-4.09809
-7.72598
-5.26571
-5.13175
-9.3532
0.490368
-0.86415
-0.198802
-10.2997
-8.01765
-4.16965
-7.67799
-0.926608
-1.51993
-7.65951
-5.07998
-9.69407
-0.0211381
-6.85581
-7.47476
-4.52796
-4.9572
-6.55448
-0.0963729
2.77054
-3.77912
-5.11635
-10.4307
-3.12553
-1.18452
-3.47845
-5.2859
-6.76839
-4.38083
-0.755714
-3.17002
-7.44259
0.554122
-0.790192
-3.18335
-1.46149
-4.81013
-4.3459
-8.57105
-5.55982
-7.20116
-1.66881
-3.51379
-4.80106
-3.3494
-2.55572
-1.81965
-1.75752
0.381626
-6.17017
-4.66796
-4.68193
-5.3461
1.56251
-2.11862
-10.0993
-10.231
-0.769721
-7.79011
-5.26181
-6.14459
-1.66998
-8.74072
-8.39624
0.0826242
-2.69443
-2.03713
-1.81631
1.76492
0.661319
-2.03918
-8.26115
-11.8778
-1.20491
-6.5071
-6.14879
-5.16071
-2.85872
-4.83866
-8.52947
-4.60556
-0.0734168
-2.15645
-1.69892
-1.90202
-5.6
-6.08233
-6.1945
-6.45787
-6.40549
-0.788997
-6.73033
-2.28035
-5.87594
5.86432
-5.36398
-9.0767
-2.53503
3.74982
-3.64363
-2.92063
-10.8487
-0.284765
-6.73705
-3.43007
2.85254
-9.89224
1.33087
-3.00309
-3.85716
1.62595
-7.79235
-4.9011
-2.84931
-4.11318
-4.86377
-3.00365
-11.1507
1.20976
-1.93867
7.2425
-2.24541
-2.57454
-4.02889
-7.74666
-15.3993
2.08959
-1.98355
-13.7007
1.29618
-6.3391
-0.645479
-6.13209
4.20079
-0.296644
-13.5251
3.19104
-12.3176
2.3384
-10.5705
2.80431
-0.221166
6.71222
1.2177
-12.7933
5.30579
-3.31968
3.22032
-9.33352
-12.8641
5.02993
-2.53797
-1.32892
-0.0903081
0.0734396
-2.07945
-3.91387
-3.88762
-6.00026
-3.4884
-9.51055
-14.1291
5.14865
-3.81689
-5.37126
-3.9105
-4.52102
-3.21972
-2.53418
-3.20088
-7.03962
-3.31992
-7.14837
-1.86462
-4.64933
-9.07505
-2.50122
-5.80649
-7.88665
-1.84658
-4.64906
-3.44408
-5.93383
-3.0272
-4.22253
-2.63342
-7.62839
-2.18858
-5.1394
2.40587
-9.72511
4.77993
-5.05412
-7.39731
-9.98236
-0.407445
-4.42501
-3.50736
-4.42999
-4.0057
-3.30648
-6.9556
0.197728
8.49794
-2.47404
3.68812
-8.03929
-0.500095
-3.76852
-6.18181
7.83547
-8.70564
0.434604
6.16714
-0.113312
-6.37963
-6.05467
-3.97324
5.20315
-3.87679
-4.63052
-1.15494
-0.538313
-8.20003
-7.48456
-1.56862
-4.11375
-8.23064
5.08452
-6.91308
-0.42617
-5.8152
4.59884
-11.8127
-11.4517
-7.48257
-3.86686
-2.52852
-6.18957
-2.32073
5.27863
0.575708
-6.54383
-0.661217
-5.4186
3.78535
-7.90505
-5.77578
10.3512
-3.90611
-4.90908
7.49106
-8.86777
2.53294
-8.12495
-9.7979
-6.84328
5.97957
-4.18727
-2.74225
-3.96761
-4.2954
-5.47314
4.99784
-1.75121
-0.794348
-0.817499
-7.754
-3.68618
-4.94619
-6.06938
-5.8049
-2.67017
-4.36378
-2.91968
-5.09958
-8.34561
-1.56177
-2.44954
-1.29382
-4.22582
-7.34361
-1.4963
-2.32389
-1.9174
-3.75814
-0.759931
-1.13184
-2.27987
-2.63324
-4.27558
-2.11324
-9.69474
-6.9512
3.36475
3.25666
-8.89251
11.4935
-6.66538
-4.594
-0.735051
-2.64281
-9.0754
7.85657
-8.04385
-4.95707
5.59438
-1.97467
-1.12601
-3.70434
8.34379
-8.89673
-5.08418
7.67961
-8.51497
-8.57325
4.3551
-10.0321
-7.46176
4.22806
-1.25426
-0.775338
7.74629
-3.88239
-4.41303
0.534479
-0.429721
0.0224021
10.0381
-0.323814
8.24499
10.6625
-7.67465
-1.2927
-12.8118
-1.53055
5.05614
-8.99213
-2.89786
6.76516
-1.54418
-1.30599
6.87783
3.24113
-8.56863
13.0165
0.538009
1.47764
11.5456
-8.0219
-7.12685
-3.84586
-2.22538
-1.21339
0.493954
9.07163
-3.99858
-2.31322
-2.5215
-3.86111
6.14699
-6.3988
-1.58029
-3.30343
-1.14976
-3.14218
-4.24664
0.798712
5.72428
-2.05955
-4.39129
-1.48373
-2.20624
-3.44491
-0.41004
-2.41792
6.38177
-1.56044
-4.89312
-1.22293
-2.6805
-0.549589
5.57241
-9.03437
-8.84332
-8.47237
-10.0083
4.40663
7.41913
-1.64192
-6.62401
-4.39174
-6.28762
-7.0257
0.521478
1.52463
7.29267
5.06068
-0.389132
-3.36989
-3.07133
-2.85847
1.51317
-7.7501
-5.00606
4.12804
-0.206563
0.723341
-6.92758
-0.509924
9.12736
-3.28667
-3.64253
-7.99617
6.54992
-1.19347
-4.25809
-1.85343
-2.66229
-6.1096
-3.25078
0.388705
-10.5291
10.7558
2.35213
-2.73852
-0.453124
-2.09586
-9.95146
-5.1678
-3.67106
2.11371
-9.12531
-1.74293
-4.23173
-7.01522
-7.99445
-7.61439
-7.96168
-9.59171
-10.6639
-9.40912
-9.42618
-3.69748
-7.24063
-1.54837
-2.63975
1.67043
2.88792
9.89291
-10.1518
-9.8427
-8.45069
-2.43
-4.27468
-3.95737
-0.609122
-4.5292
-7.1708
0.235224
-2.90921
-5.88324
-1.22245
-1.6556
-1.41941
-2.3641
-0.381356
-2.21515
-1.81427
4.56992
-4.21477
0.162827
-2.87367
6.87009
-10.0954
-3.085
-0.932277
-0.200694
4.02654
-3.60639
-1.06265
7.67177
2.2846
-2.97345
3.07587
1.86723
-10.8871
-11.4089
-1.85589
-1.90222
-6.5051
-9.88161
7.7914
-0.502474
-0.372858
-2.12598
-2.08887
-2.49052
-3.20084
1.62383
5.40788
-8.84605
-1.97474
2.58045
1.71479
-1.8597
-3.75598
3.94219
-2.5468
-0.572103
-1.54685
-9.9683
2.43885
5.24362
-2.07333
-1.18989
-0.357597
5.2855
-8.02081
-1.7772
-1.58565
-1.81864
7.60542
-1.8347
-2.07683
5.05755
-1.71204
2.30941
-5.03507
-8.73281
-0.582704
-7.24434
-4.83081
-0.766695
-0.943432
-2.23395
5.27664
-4.70602
-5.36691
-1.36235
6.5652
0.842251
-2.74056
-3.08163
-0.667851
5.78521
-0.858478
-8.01296
-4.82513
-0.954504
-10.7424
2.39928
-6.92888
7.41258
2.66781
-7.32657
7.6082
-7.68073
-0.858573
-3.73396
-1.56216
-11.2439
1.30117
-3.85411
-9.99471
-9.0751
3.4583
-8.75246
-9.97765
11.2337
-2.52001
-1.15369
7.12608
-5.29084
-1.04779
-1.5999
-1.61678
-3.27448
-2.53471
-1.372
-0.954063
7.42802
-5.29307
-3.7123
-3.45095
-4.21131
-2.42993
-0.746813
0.776057
-6.3538
8.85934
-0.248756
0.0546961
8.44222
-7.43695
-10.4501
-2.92951
-8.43571
-9.08614
-0.557557
-0.623717
-5.24423
-8.38405
-0.373108
-5.83446
1.74291
7.11976
-6.5049
0.175213
-7.99944
-10.6948
-9.82318
6.55263
-7.04962
-3.84254
0.425684
-1.32085
-2.10571
-1.0934
6.3586
-8.28596
6.02783
-8.10994
-2.35735
1.74261
2.68718
-2.3979
-6.03695
-9.43466
-3.55443
-12.2367
-6.63328
-7.73684
7.85271
-7.19092
-6.25882
-8.01603
-0.522954
0.301027
8.9343
-3.01207
-11.8395
-8.46765
5.51815
1.39998
6.15951
-0.517489
-3.21842
1.86239
-14.5651
-1.61928
1.36496
5.27186
-4.75739
0.199271
8.20104
-2.62628
-0.985746
-1.15357
-1.31629
-1.38976
5.17826
1.751
7.06064
-1.02508
-6.57014
-5.07365
-8.74145
-7.99547
-0.25936
0.751497
7.4894
-0.825721
-6.03194
-9.25776
-6.61237
-6.95033
2.54354
8.55638
1.21432
9.28148
-6.46477
-6.84524
0.744884
-7.6081
-6.33984
-8.78212
-4.45548
-3.74799
-3.60485
-0.259043
7.663
1.01912
6.61611
2.08301
-1.32275
-0.662541
4.53972
6.62255
-5.76259
-11.8943
-10.7372
-9.8254
-3.47745
-5.60368
-5.40875
-2.99134
-1.29083
-3.00356
0.440362
-2.32984
-2.37559
6.56396
-6.3002
-1.95369
1.37287
4.72203
-0.893753
-3.36447
-3.30881
-0.680868
4.67307
-9.50203
-4.70187
-1.10725
-10.6258
0.254172
6.98878
-5.04863
-2.34663
-2.40898
-2.41326
-0.81919
8.91202
-2.33158
-2.27078
5.94981
-9.14051
-1.77216
12.9922
-1.30126
-3.1506
-3.49102
-0.790088
6.38321
-0.0617723
-0.322559
2.8856
-2.64537
7.4307
-2.87508
-2.57818
3.31678
-10.4597
-2.2423
5.06618
-11.5094
-3.03846
-3.03272
4.80507
-2.58029
6.06841
)
;
    }
}


// ************************************************************************* //
