/*--------------------------------*- C++ -*----------------------------------*\
| =========                 |                                                 |
| \\      /  F ield         | OpenFOAM: The Open Source CFD Toolbox           |
|  \\    /   O peration     | Version:  v1906                                 |
|   \\  /    A nd           | Web:      www.OpenFOAM.com                      |
|    \\/     M anipulation  |                                                 |
\*---------------------------------------------------------------------------*/
FoamFile
{
    version     2.0;
    format      ascii;
    class       volScalarField;
    location    "58.4/sphere";
    object      T;
}
// * * * * * * * * * * * * * * * * * * * * * * * * * * * * * * * * * * * * * //

dimensions      [0 0 0 1 0 0 0];


internalField   nonuniform List<scalar> 
304
(
468.708
468.736
468.732
468.749
468.707
468.701
468.705
468.735
468.706
468.85
468.85
468.748
468.732
468.847
468.847
468.776
468.74
468.772
468.7
468.734
468.75
468.705
468.736
468.851
468.85
468.778
468.75
468.848
468.848
468.802
468.699
468.772
468.799
468.734
468.706
468.75
468.778
468.712
468.71
468.776
468.802
468.737
468.701
468.734
468.688
468.695
468.708
468.707
468.709
468.741
468.708
468.707
468.742
468.709
468.695
468.709
468.712
468.709
468.742
468.736
468.736
468.75
468.749
468.779
468.778
468.803
468.707
468.751
468.736
468.779
468.749
468.803
468.778
468.709
468.711
468.742
468.709
468.704
468.704
468.737
468.699
468.748
468.697
468.729
468.774
468.801
468.739
468.772
468.734
468.73
468.7
468.801
468.776
468.773
468.741
468.739
468.706
468.701
468.686
468.699
468.698
468.733
468.699
468.734
468.7
468.699
468.685
468.708
468.705
468.706
468.74
468.735
468.748
468.778
468.734
468.75
468.778
468.804
468.706
468.779
468.748
468.751
468.735
468.804
468.778
468.709
468.706
468.741
468.707
468.749
468.735
468.778
468.735
468.778
468.75
468.803
468.706
468.778
468.736
468.778
468.736
468.803
468.751
468.774
468.698
468.741
468.749
468.801
468.73
468.773
468.733
468.742
468.7
468.802
468.749
468.773
468.73
468.701
468.699
468.734
468.699
468.772
468.699
468.729
468.772
468.799
468.729
468.746
468.74
468.729
468.698
468.799
468.772
468.747
468.729
468.733
468.699
468.699
468.705
468.707
468.741
468.711
468.75
468.778
468.804
468.705
468.734
468.749
468.778
468.734
468.804
468.777
468.734
468.703
468.777
468.746
468.74
468.706
468.707
468.779
468.751
468.803
468.709
468.751
468.737
468.779
468.735
468.803
468.751
468.748
468.708
468.778
468.736
468.802
468.731
468.773
468.735
468.777
468.701
468.743
468.749
468.773
468.731
468.775
468.733
468.742
468.7
468.733
468.699
468.701
468.799
468.729
468.747
468.741
468.773
468.7
468.73
468.773
468.747
468.731
468.773
468.742
468.731
468.702
468.701
468.7
468.702
468.698
468.705
468.71
468.74
468.706
468.74
468.707
468.706
468.693
468.714
468.71
468.744
468.71
468.778
468.779
468.804
468.71
468.736
468.737
468.751
468.748
468.803
468.778
468.735
468.706
468.751
468.735
468.742
468.709
468.707
468.741
468.703
468.706
468.802
468.742
468.773
468.733
468.749
468.699
468.731
468.775
468.773
468.742
468.749
468.733
468.731
468.7
468.705
468.701
468.704
468.688
468.734
468.7
468.7
468.702
468.701
468.7
)
;

boundaryField
{
    sphere_to_oil
    {
        type            compressible::turbulentTemperatureCoupledBaffleMixed;
        refValue        nonuniform List<scalar> 
360
(
336.619
336.619
322.326
359.914
368.177
324.471
369.253
369.253
369.253
346.344
346.344
327.658
331.594
319.949
345.101
356.844
353.263
353.263
353.263
321.9
352.024
329.325
332.384
362.483
317.012
362.768
322.282
362.673
362.673
362.673
369.926
361.716
322.299
321.945
327.438
327.559
354.223
354.223
354.223
353.504
359.18
328.3
327.788
337.025
337.025
322.115
329.655
314.367
335.679
363.127
324.413
324.497
331.04
331.51
321.713
329.143
353.939
322.028
327.888
333.611
320.295
363.922
363.922
363.922
314.407
362.428
335.588
325.234
367.759
367.759
367.759
368.702
367.249
319.104
352.029
344.392
321.015
331.456
359.187
354.347
333.209
324.793
332.819
320.162
322.265
324.124
327.733
331.386
320.574
322.13
322.422
330.595
327.427
322.624
330.315
327.48
327.861
327.863
323.939
316.987
317.089
321.561
324.438
327.438
330.566
321.427
319.88
331.555
323.728
327.872
327.867
327.719
323.908
321.864
314.623
314.581
330.069
325.354
331.333
336.388
336.388
359.914
359.914
362.483
362.483
360.553
360.553
360.553
361.878
361.878
361.878
330.601
325.583
330.031
322.564
368.177
368.177
342.542
342.542
369.926
369.926
341.532
341.532
369.159
369.159
369.159
322.26
321.609
357.328
357.328
357.328
357.163
357.163
357.163
356.844
352.024
345.101
356.844
356.441
321.471
356.441
356.441
332.406
333.143
324.898
329.369
329.369
360.624
360.624
360.624
320.368
352.024
329.325
359.649
359.649
320.205
359.649
333.073
324.771
314.44
322.267
322.58
330.189
316.903
329.697
322.538
314.483
317.036
362.768
362.768
361.716
361.716
337.344
337.344
359.955
359.955
359.955
335.469
335.469
316.833
327.031
324.695
330.761
327.184
324.194
330.651
323.674
331.633
327.917
323.598
353.504
331.535
328.101
322.019
360.044
360.044
360.044
330.013
330.013
320.237
327.99
327.855
333.496
359.18
328.206
333.368
328.108
353.504
359.18
329.822
322.012
329.822
320.622
314.564
329.585
316.964
322.448
322.326
322.589
316.774
316.687
363.853
358.844
363.853
363.853
358.844
358.844
363.127
362.428
335.679
361.301
316.932
363.127
361.301
361.301
330.089
321.936
327.234
330.509
322.623
368.702
327.273
327.682
327.767
323.853
353.939
352.029
327.915
327.715
323.841
353.439
356.451
329.143
359.583
320.403
353.939
359.583
359.583
333.991
328.184
359.187
327.944
327.886
327.714
359.575
328.001
359.297
329.69
353.439
329.69
359.575
353.439
359.575
314.33
325.419
329.546
329.754
336.07
360.02
336.07
360.02
360.02
316.852
362.428
361.1
335.588
361.1
316.831
361.1
330.746
330.365
320.938
366.756
342.23
366.756
366.756
342.23
321.452
324.155
327.131
330.48
367.249
368.702
341.758
322.224
367.249
341.758
321.486
352.029
357.153
344.392
357.153
320.262
357.153
331.678
354.347
323.953
328.098
356.265
353.946
356.451
344.016
356.451
356.265
344.016
356.265
324.502
332.65
359.187
329.312
320.243
354.347
329.312
322.242
359.297
353.946
359.297
329.65
353.946
329.65
)
;
        refGradient     uniform 0;
        valueFraction   nonuniform List<scalar> 
360
(
0.00013615
0.000130617
8.36225e-05
0.000298733
0.000306377
0.000175682
0.000308281
0.000264619
0.000411888
0.000131143
0.000127862
0.000171532
0.00026142
7.47459e-05
0.000133709
0.000259918
0.00029786
0.000278308
0.000390528
6.83971e-05
0.000256416
0.000126056
0.00011618
0.0003083
8.95114e-05
0.000316896
0.00017863
0.000312804
0.000409363
0.000273837
0.000312855
0.00031555
8.4732e-05
8.37854e-05
0.000175828
0.000173032
0.000292791
0.000396937
0.000272571
0.000409834
0.00040483
8.64426e-05
0.000171459
0.000125137
0.000124988
0.000176503
0.000264065
7.04518e-05
0.000126061
0.000267307
0.000174118
0.000175249
0.000261226
0.000258687
7.3086e-05
0.000133701
0.000272652
7.00144e-05
0.000173448
0.000258647
6.85317e-05
0.000304491
0.000268792
0.000420688
7.06532e-05
0.00027483
0.000128197
0.000123992
0.000311525
0.000406396
0.000273372
0.000391895
0.000397381
7.58957e-05
0.000264961
0.000134416
6.99736e-05
0.000125475
0.000396547
0.000411941
0.000123066
0.000120745
0.000118597
7.04838e-05
8.49952e-05
0.000172318
0.000173283
0.000262418
7.92138e-05
6.68849e-05
8.41178e-05
0.00026199
0.000172954
8.59269e-05
0.000261557
0.000174929
0.000173894
0.000174163
8.49298e-05
6.80757e-05
6.90306e-05
6.81118e-05
0.000175102
0.000172101
0.000261792
7.70752e-05
6.69481e-05
0.000261602
8.31068e-05
0.000172373
0.000172405
0.000175923
8.60244e-05
6.88845e-05
6.71797e-05
6.84776e-05
0.000119195
0.000119338
0.000123974
0.000134432
0.000126348
0.000261065
0.000411259
0.00027505
0.000415041
0.000266043
0.00040902
0.000304539
0.000266258
0.000400117
0.000299923
0.000122335
0.000115691
0.000118497
6.54144e-05
0.000271293
0.000408463
0.000126378
0.000126955
0.000412788
0.000274456
0.00013248
0.000139628
0.000407707
0.000280079
0.000322733
7.19925e-05
6.69969e-05
0.00028278
0.000391864
0.000310611
0.000291158
0.000405431
0.000310578
0.000320663
0.00029537
0.000138166
0.000411829
0.000266016
7.41661e-05
0.000400271
0.000299534
0.00011431
0.000120431
0.000119141
0.000125687
0.000131383
0.00040977
0.000269811
0.000316701
7.59358e-05
0.000394183
0.000135164
0.000414493
0.000265344
7.41728e-05
0.000314619
0.000115325
0.000116395
6.80045e-05
0.000178248
0.000178177
0.000263463
8.78573e-05
0.000263861
0.000173617
6.73062e-05
6.53566e-05
0.000412312
0.00026198
0.000407472
0.000271667
0.000129585
0.000121186
0.000409373
0.000255854
0.000295742
0.000119788
0.000138991
6.99254e-05
0.000175114
0.000174956
0.000261398
0.000171155
0.000172037
0.000260368
8.92427e-05
0.000261261
0.000177146
8.67859e-05
0.000294068
0.000260972
0.000176085
7.01751e-05
0.000400434
0.000259595
0.000303727
0.000126537
0.000117591
6.79239e-05
0.000173755
0.000176676
0.000261956
0.000297831
8.32979e-05
0.00025947
0.000169461
0.000257755
0.000272872
0.000123866
6.95734e-05
0.000137449
7.04337e-05
6.62993e-05
0.000264879
8.83959e-05
0.000178074
0.000176015
0.000173918
8.72847e-05
6.66735e-05
0.000270825
0.00025377
0.000426021
0.00031711
0.000397454
0.000285571
0.000306081
0.000313384
0.000139299
0.000268845
7.24332e-05
0.000409113
0.000397802
0.000302245
0.000263619
8.39991e-05
0.000171532
0.000260589
8.47513e-05
0.000310508
0.000172275
0.000173507
0.000171908
8.42387e-05
0.000308196
0.000288807
0.000175389
0.000170854
8.58606e-05
0.000289375
0.000318525
0.000126323
0.000285934
6.79087e-05
0.000407369
0.000394945
0.000298424
0.000258656
8.49711e-05
0.000298893
0.000172107
0.000172372
0.000173353
0.000300521
8.57672e-05
0.000307044
0.000129198
0.000264729
0.000130276
0.000269767
0.000411106
0.000403588
6.7876e-05
0.000136017
0.00013441
0.000131465
0.000119723
0.000400547
0.000130761
0.000266289
0.000313568
6.68868e-05
0.000404457
0.000403969
0.000132245
0.000287232
7.00947e-05
0.000307934
0.000117243
0.000115179
7.00367e-05
0.000396145
0.000118393
0.000259797
0.000305973
0.000126929
6.91939e-05
0.000172172
0.000172113
0.000259713
0.000297174
0.000257758
0.000124622
6.70817e-05
0.000262075
0.000138412
7.74746e-05
0.00037979
0.000407818
0.000120529
0.000259057
7.18233e-05
0.000325804
0.000261704
0.000313556
8.57767e-05
0.000172913
0.000302307
0.000293081
0.000275724
0.000123241
0.000403894
0.000403025
0.000146297
0.000269398
0.00011853
0.000120348
0.000271214
0.000134257
7.2589e-05
0.000274297
0.000129277
6.7035e-05
0.000399221
0.000404014
0.000265828
0.000129007
0.000261117
0.000133261
)
;
        value           nonuniform List<scalar> 
360
(
468.709
468.709
468.715
468.694
468.696
468.729
468.696
468.701
468.69
468.707
468.707
468.727
468.732
468.715
468.71
468.697
468.682
468.686
468.673
468.71
468.69
468.703
468.689
468.692
468.711
468.691
468.728
468.692
468.685
468.697
468.694
468.691
468.713
468.713
468.726
468.728
468.684
468.674
468.687
468.672
468.675
468.706
468.725
468.708
468.71
468.727
468.733
468.714
468.708
468.696
468.73
468.729
468.733
468.733
468.707
468.699
468.687
468.709
468.724
468.731
468.709
468.692
468.696
468.685
468.715
468.696
468.709
468.695
468.697
468.692
468.702
468.692
468.691
468.718
468.698
468.712
468.714
468.69
468.676
468.673
468.691
468.69
468.691
468.709
468.716
468.729
468.728
468.732
468.711
468.709
468.714
468.734
468.731
468.712
468.734
468.73
468.727
468.725
468.707
468.716
468.716
468.718
468.73
468.731
468.733
468.716
468.713
468.731
468.704
468.724
468.729
468.725
468.707
468.708
468.716
468.716
468.697
468.697
468.697
468.709
468.71
468.698
468.684
468.697
468.684
468.698
468.684
468.693
468.698
468.686
468.693
468.697
468.697
468.697
468.719
468.7
468.69
468.712
468.712
468.69
468.701
468.711
468.711
468.69
468.701
468.693
468.718
468.713
468.691
468.675
468.681
468.69
468.673
468.683
468.683
468.685
468.708
468.674
468.695
468.714
468.675
468.685
468.689
468.689
468.688
468.701
468.7
468.673
468.689
468.684
468.707
468.673
468.699
468.674
468.689
468.707
468.683
468.689
468.688
468.714
468.728
468.727
468.733
468.712
468.733
468.729
468.715
468.716
468.684
468.697
468.684
468.697
468.708
468.71
468.683
468.699
468.693
468.71
468.708
468.716
468.73
468.729
468.734
468.731
468.73
468.734
468.704
468.732
468.724
468.706
468.685
468.732
468.725
468.708
468.676
468.69
468.685
468.701
468.702
468.708
468.724
468.723
468.73
468.685
468.706
468.731
468.725
468.689
468.688
468.701
468.708
468.699
468.707
468.714
468.733
468.711
468.727
468.727
468.728
468.709
468.716
468.696
468.699
468.686
468.691
468.687
468.697
468.69
468.689
468.707
468.697
468.715
468.683
468.683
468.694
468.734
468.716
468.732
468.734
468.714
468.696
468.731
468.725
468.73
468.708
468.685
468.687
468.725
468.728
468.707
468.686
468.683
468.701
468.687
468.708
468.673
468.677
468.686
468.731
468.707
468.686
468.725
468.725
468.726
468.688
468.709
468.688
468.702
468.689
468.701
468.69
468.674
468.677
468.714
468.697
468.698
468.699
468.709
468.685
468.708
468.696
468.695
468.715
468.684
468.683
468.707
468.694
468.714
468.692
468.697
468.697
468.719
468.693
468.714
468.703
468.698
468.713
468.719
468.73
468.732
468.734
468.695
468.702
468.712
468.718
468.7
468.709
468.715
468.678
468.677
468.71
468.696
468.715
468.682
468.732
468.682
468.706
468.725
468.685
468.685
468.693
468.708
468.675
468.675
468.705
468.693
468.69
468.691
468.69
468.701
468.709
468.688
468.701
468.71
468.677
468.675
468.691
468.702
468.689
468.701
)
;
        Tnbr            T;
        thicknessLayers 0();
        kappaLayers     0();
        kappaMethod     solidThermo;
        kappa           none;
        alphaAni        none;
    }
}


// ************************************************************************* //
