/*--------------------------------*- C++ -*----------------------------------*\
| =========                 |                                                 |
| \\      /  F ield         | OpenFOAM: The Open Source CFD Toolbox           |
|  \\    /   O peration     | Version:  v1912                                 |
|   \\  /    A nd           | Website:  www.openfoam.com                      |
|    \\/     M anipulation  |                                                 |
\*---------------------------------------------------------------------------*/
FoamFile
{
    version     2.0;
    format      ascii;
    class       volVectorField;
    location    "210/oil";
    object      U;
}
// * * * * * * * * * * * * * * * * * * * * * * * * * * * * * * * * * * * * * //

dimensions      [0 1 -1 0 0 0 0];


internalField   nonuniform List<vector> 
35580
(
(-1.10601e-09 2.23024e-09 -1.1278e-09)
(1.17638e-09 2.0134e-09 -2.72853e-09)
(1.0558e-08 1.98147e-09 -4.39586e-09)
(2.53322e-08 2.47672e-09 -6.08216e-09)
(4.32831e-08 3.26925e-09 -7.43951e-09)
(6.19e-08 4.20291e-09 -8.35284e-09)
(7.88605e-08 5.1886e-09 -8.81356e-09)
(9.21495e-08 6.1844e-09 -8.8737e-09)
(1.00119e-07 7.1645e-09 -8.61201e-09)
(1.01676e-07 8.10416e-09 -8.10041e-09)
(9.62199e-08 8.95258e-09 -7.40906e-09)
(8.37966e-08 9.67061e-09 -6.71884e-09)
(6.51601e-08 1.02333e-08 -6.07761e-09)
(4.14786e-08 1.0661e-08 -5.62038e-09)
(1.4575e-08 1.08965e-08 -5.38117e-09)
(-1.35051e-08 1.0925e-08 -5.38587e-09)
(-4.04929e-08 1.06792e-08 -5.61992e-09)
(-6.42297e-08 1.02445e-08 -6.06349e-09)
(-8.2989e-08 9.64655e-09 -6.67685e-09)
(-9.55366e-08 8.94234e-09 -7.37666e-09)
(-1.01197e-07 8.10804e-09 -8.06084e-09)
(-9.98037e-08 7.15711e-09 -8.59544e-09)
(-9.19358e-08 6.17643e-09 -8.85638e-09)
(-7.8742e-08 5.18323e-09 -8.80468e-09)
(-6.18525e-08 4.19714e-09 -8.34581e-09)
(-4.32935e-08 3.26608e-09 -7.43296e-09)
(-2.53789e-08 2.47335e-09 -6.07215e-09)
(-1.06157e-08 1.97092e-09 -4.37682e-09)
(-1.21679e-09 1.98886e-09 -2.70709e-09)
(1.09036e-09 2.17471e-09 -1.11789e-09)
(5.86577e-10 -2.12189e-09 5.73959e-10)
(1.15839e-08 -1.28411e-08 5.00319e-10)
(3.36947e-08 -2.1375e-08 -2.7166e-10)
(6.44808e-08 -2.59988e-08 -1.2807e-09)
(1.00287e-07 -2.74595e-08 -2.02469e-09)
(1.36818e-07 -2.65506e-08 -2.28039e-09)
(1.69768e-07 -2.39255e-08 -1.99603e-09)
(1.95257e-07 -2.0073e-08 -1.21025e-09)
(2.10071e-07 -1.54077e-08 -1.63936e-11)
(2.1195e-07 -1.03173e-08 1.44838e-09)
(1.99651e-07 -5.20992e-09 3.16202e-09)
(1.73202e-07 -5.26042e-10 4.76913e-09)
(1.34242e-07 3.33876e-09 6.18136e-09)
(8.53317e-08 6.16181e-09 7.19542e-09)
(2.99617e-08 7.66014e-09 7.73089e-09)
(-2.78022e-08 7.69289e-09 7.74859e-09)
(-8.33622e-08 6.13512e-09 7.22109e-09)
(-1.3237e-07 3.25772e-09 6.23854e-09)
(-1.71357e-07 -6.90255e-10 4.86242e-09)
(-1.97904e-07 -5.32087e-09 3.25684e-09)
(-2.10553e-07 -1.04207e-08 1.57196e-09)
(-2.08974e-07 -1.55029e-08 7.00674e-11)
(-1.94408e-07 -2.0136e-08 -1.12855e-09)
(-1.6919e-07 -2.39635e-08 -1.93118e-09)
(-1.36476e-07 -2.65892e-08 -2.22591e-09)
(-1.00138e-07 -2.7515e-08 -1.9757e-09)
(-6.44707e-08 -2.6088e-08 -1.24088e-09)
(-3.37387e-08 -2.15023e-08 -2.37921e-10)
(-1.16107e-08 -1.29781e-08 5.17654e-10)
(-5.8881e-10 -2.24884e-09 5.60736e-10)
(2.26408e-09 -2.0688e-08 2.26232e-09)
(2.26957e-08 -5.46736e-08 4.00561e-09)
(5.55188e-08 -7.98105e-08 4.37356e-09)
(9.77092e-08 -9.57802e-08 4.3201e-09)
(1.44826e-07 -1.0427e-07 4.40671e-09)
(1.91951e-07 -1.06899e-07 4.89241e-09)
(2.33911e-07 -1.05062e-07 5.86935e-09)
(2.65906e-07 -9.98929e-08 7.32916e-09)
(2.83899e-07 -9.2375e-08 9.18067e-09)
(2.85019e-07 -8.34201e-08 1.12609e-08)
(2.67613e-07 -7.39437e-08 1.35562e-08)
(2.3163e-07 -6.49314e-08 1.56822e-08)
(1.79222e-07 -5.73705e-08 1.74801e-08)
(1.13795e-07 -5.18937e-08 1.87803e-08)
(3.99267e-08 -4.89962e-08 1.9471e-08)
(-3.71411e-08 -4.90065e-08 1.95172e-08)
(-1.11314e-07 -5.20328e-08 1.88167e-08)
(-1.76864e-07 -5.76742e-08 1.75345e-08)
(-2.29243e-07 -6.53471e-08 1.57371e-08)
(-2.65428e-07 -7.42976e-08 1.36494e-08)
(-2.83288e-07 -8.37389e-08 1.13777e-08)
(-2.82529e-07 -9.26109e-08 9.25825e-09)
(-2.64855e-07 -1.00053e-07 7.40342e-09)
(-2.33184e-07 -1.05173e-07 5.93741e-09)
(-1.91517e-07 -1.06998e-07 4.95383e-09)
(-1.4463e-07 -1.04396e-07 4.46696e-09)
(-9.76743e-08 -9.59648e-08 4.37117e-09)
(-5.55552e-08 -8.00565e-08 4.40836e-09)
(-2.27382e-08 -5.49113e-08 4.01002e-09)
(-2.28274e-09 -2.084e-08 2.23862e-09)
(3.61336e-09 -5.12059e-08 3.60515e-09)
(3.20077e-08 -1.19239e-07 6.67979e-09)
(7.37912e-08 -1.6709e-07 7.82795e-09)
(1.24959e-07 -1.98835e-07 8.41479e-09)
(1.80386e-07 -2.17857e-07 9.09847e-09)
(2.34796e-07 -2.26788e-07 1.01332e-08)
(2.82609e-07 -2.2784e-07 1.16197e-08)
(3.18581e-07 -2.22855e-07 1.35593e-08)
(3.38221e-07 -2.13483e-07 1.58681e-08)
(3.3827e-07 -2.01262e-07 1.8378e-08)
(3.16785e-07 -1.87746e-07 2.10311e-08)
(2.73724e-07 -1.7442e-07 2.34933e-08)
(2.11583e-07 -1.62968e-07 2.55919e-08)
(1.34189e-07 -1.54548e-07 2.70736e-08)
(4.70395e-08 -1.50112e-07 2.78495e-08)
(-4.38856e-08 -1.50176e-07 2.79082e-08)
(-1.31431e-07 -1.5473e-07 2.70911e-08)
(-2.08895e-07 -1.63271e-07 2.56053e-08)
(-2.71013e-07 -1.74749e-07 2.35208e-08)
(-3.14302e-07 -1.88022e-07 2.10951e-08)
(-3.36222e-07 -2.01511e-07 1.84362e-08)
(-3.36561e-07 -2.13661e-07 1.59023e-08)
(-3.17295e-07 -2.22978e-07 1.3597e-08)
(-2.81686e-07 -2.27924e-07 1.16585e-08)
(-2.34205e-07 -2.26879e-07 1.01763e-08)
(-1.80089e-07 -2.18002e-07 9.1485e-09)
(-1.24877e-07 -1.99065e-07 8.45285e-09)
(-7.38102e-08 -1.67381e-07 7.83893e-09)
(-3.20636e-08 -1.19489e-07 6.65785e-09)
(-3.64596e-09 -5.13994e-08 3.56773e-09)
(4.5691e-09 -9.11259e-08 4.55943e-09)
(3.90374e-08 -2.01714e-07 8.52881e-09)
(8.78768e-08 -2.76903e-07 1.01705e-08)
(1.46071e-07 -3.27479e-07 1.11577e-08)
(2.0783e-07 -3.59439e-07 1.22124e-08)
(2.67614e-07 -3.76718e-07 1.36244e-08)
(3.19596e-07 -3.8243e-07 1.54796e-08)
(3.58306e-07 -3.79146e-07 1.77919e-08)
(3.78994e-07 -3.69184e-07 2.04751e-08)
(3.78167e-07 -3.54724e-07 2.33643e-08)
(3.53697e-07 -3.37954e-07 2.63238e-08)
(3.05445e-07 -3.20867e-07 2.90969e-08)
(2.3597e-07 -3.058e-07 3.14845e-08)
(1.49551e-07 -2.94484e-07 3.31344e-08)
(5.24001e-08 -2.88542e-07 3.39976e-08)
(-4.8963e-08 -2.88636e-07 3.40688e-08)
(-1.46568e-07 -2.9463e-07 3.31575e-08)
(-2.32949e-07 -3.05902e-07 3.14908e-08)
(-3.02445e-07 -3.20946e-07 2.91521e-08)
(-3.50983e-07 -3.37999e-07 2.63888e-08)
(-3.75911e-07 -3.54767e-07 2.34132e-08)
(-3.77174e-07 -3.69215e-07 2.05128e-08)
(-3.56891e-07 -3.79184e-07 1.78334e-08)
(-3.18562e-07 -3.82477e-07 1.55209e-08)
(-2.6692e-07 -3.76803e-07 1.36613e-08)
(-2.07445e-07 -3.59586e-07 1.22486e-08)
(-1.45936e-07 -3.27717e-07 1.11714e-08)
(-8.78826e-08 -2.77174e-07 1.01461e-08)
(-3.91139e-08 -2.01867e-07 8.4609e-09)
(-4.62155e-09 -9.1351e-08 4.50071e-09)
(5.18012e-09 -1.37732e-07 5.19433e-09)
(4.38532e-08 -2.97083e-07 9.71738e-09)
(9.78038e-08 -4.03063e-07 1.16373e-08)
(1.6114e-07 -4.74669e-07 1.28581e-08)
(2.27507e-07 -5.21259e-07 1.41421e-08)
(2.9118e-07 -5.48428e-07 1.58074e-08)
(3.46187e-07 -5.60299e-07 1.79438e-08)
(3.86921e-07 -5.60184e-07 2.0576e-08)
(4.0847e-07 -5.51044e-07 2.36085e-08)
(4.0715e-07 -5.35656e-07 2.68811e-08)
(3.80763e-07 -5.16806e-07 3.01845e-08)
(3.28974e-07 -4.97035e-07 3.3327e-08)
(2.54114e-07 -4.79088e-07 3.60289e-08)
(1.61004e-07 -4.6529e-07 3.78883e-08)
(5.63747e-08 -4.58016e-07 3.88461e-08)
(-5.27457e-08 -4.58098e-07 3.89133e-08)
(-1.5788e-07 -4.65414e-07 3.78977e-08)
(-2.50862e-07 -4.78997e-07 3.60315e-08)
(-3.25761e-07 -4.96978e-07 3.34137e-08)
(-3.77888e-07 -5.16735e-07 3.02679e-08)
(-4.04767e-07 -5.35591e-07 2.69477e-08)
(-4.06556e-07 -5.51e-07 2.36665e-08)
(-3.85435e-07 -5.60183e-07 2.06325e-08)
(-3.45098e-07 -5.60336e-07 1.80047e-08)
(-2.90433e-07 -5.48517e-07 1.58544e-08)
(-2.27062e-07 -5.21396e-07 1.41795e-08)
(-1.60954e-07 -4.74867e-07 1.28581e-08)
(-9.77964e-08 -4.03252e-07 1.15821e-08)
(-4.39617e-08 -2.97099e-07 9.60767e-09)
(-5.2576e-09 -1.3798e-07 5.11584e-09)
(5.52956e-09 -1.88586e-07 5.55007e-09)
(4.67014e-08 -4.00899e-07 1.03731e-08)
(1.03779e-07 -5.40017e-07 1.24593e-08)
(1.70275e-07 -6.34157e-07 1.38099e-08)
(2.39486e-07 -6.96634e-07 1.52375e-08)
(3.0557e-07 -7.34979e-07 1.70962e-08)
(3.62509e-07 -7.54438e-07 1.94692e-08)
(4.04634e-07 -7.59078e-07 2.23959e-08)
(4.26932e-07 -7.52452e-07 2.57681e-08)
(4.25573e-07 -7.3785e-07 2.94263e-08)
(3.98273e-07 -7.18553e-07 3.31109e-08)
(3.44485e-07 -6.97635e-07 3.66319e-08)
(2.6623e-07 -6.78068e-07 3.9685e-08)
(1.68682e-07 -6.62482e-07 4.17729e-08)
(5.90202e-08 -6.54153e-07 4.2805e-08)
(-5.52581e-08 -6.5419e-07 4.28743e-08)
(-1.6548e-07 -6.62655e-07 4.17624e-08)
(-2.62878e-07 -6.77902e-07 3.97031e-08)
(-3.41167e-07 -6.97577e-07 3.6755e-08)
(-3.95319e-07 -7.18494e-07 3.32272e-08)
(-4.23137e-07 -7.37792e-07 2.95218e-08)
(-4.24986e-07 -7.52425e-07 2.5851e-08)
(-4.03125e-07 -7.59103e-07 2.24697e-08)
(-3.61402e-07 -7.54502e-07 1.95438e-08)
(-3.04804e-07 -7.35078e-07 1.71483e-08)
(-2.39009e-07 -6.96751e-07 1.52778e-08)
(-1.70053e-07 -6.34275e-07 1.37945e-08)
(-1.03751e-07 -5.40026e-07 1.23679e-08)
(-4.68209e-08 -4.00697e-07 1.0236e-08)
(-5.61487e-09 -1.88899e-07 5.46671e-09)
(5.63571e-09 -2.41507e-07 5.67923e-09)
(4.7692e-08 -5.08994e-07 1.06079e-08)
(1.05876e-07 -6.82486e-07 1.27641e-08)
(1.73427e-07 -8.00028e-07 1.41849e-08)
(2.4353e-07 -8.79303e-07 1.56974e-08)
(3.10353e-07 -9.29979e-07 1.76925e-08)
(3.67941e-07 -9.58484e-07 2.02706e-08)
(4.10679e-07 -9.69655e-07 2.34645e-08)
(4.33526e-07 -9.67544e-07 2.71612e-08)
(4.32546e-07 -9.55863e-07 3.12041e-08)
(4.05343e-07 -9.38283e-07 3.53007e-08)
(3.51164e-07 -9.18228e-07 3.91833e-08)
(2.71581e-07 -8.98701e-07 4.26077e-08)
(1.71968e-07 -8.82171e-07 4.49449e-08)
(6.01136e-08 -8.73329e-07 4.60823e-08)
(-5.64113e-08 -8.7352e-07 4.61962e-08)
(-1.68857e-07 -8.82646e-07 4.49537e-08)
(-2.68286e-07 -8.98667e-07 4.26665e-08)
(-3.47844e-07 -9.18283e-07 3.93127e-08)
(-4.02393e-07 -9.3833e-07 3.54106e-08)
(-4.30099e-07 -9.55891e-07 3.1298e-08)
(-4.3157e-07 -9.67592e-07 2.72441e-08)
(-4.09157e-07 -9.69757e-07 2.3537e-08)
(-3.66812e-07 -9.58637e-07 2.03467e-08)
(-3.09554e-07 -9.30144e-07 1.77472e-08)
(-2.43016e-07 -8.79451e-07 1.57208e-08)
(-1.73167e-07 -8.00085e-07 1.41348e-08)
(-1.05824e-07 -6.82293e-07 1.26456e-08)
(-4.78063e-08 -5.08562e-07 1.04696e-08)
(-5.72846e-09 -2.41971e-07 5.60606e-09)
(5.54492e-09 -2.94544e-07 5.58774e-09)
(4.69064e-08 -6.1732e-07 1.04296e-08)
(1.04061e-07 -8.25376e-07 1.25733e-08)
(1.70343e-07 -9.66563e-07 1.40441e-08)
(2.39099e-07 -1.06306e-06 1.56121e-08)
(3.04688e-07 -1.12695e-06 1.76643e-08)
(3.61336e-07 -1.16589e-06 2.0369e-08)
(4.03615e-07 -1.18539e-06 2.37549e-08)
(4.2658e-07 -1.18995e-06 2.77022e-08)
(4.26243e-07 -1.18355e-06 3.20622e-08)
(4.00095e-07 -1.17007e-06 3.65177e-08)
(3.47269e-07 -1.153e-06 4.07136e-08)
(2.6884e-07 -1.13539e-06 4.44145e-08)
(1.70098e-07 -1.11943e-06 4.70258e-08)
(5.94771e-08 -1.11112e-06 4.83521e-08)
(-5.58725e-08 -1.11133e-06 4.84626e-08)
(-1.67075e-07 -1.11982e-06 4.69811e-08)
(-2.65624e-07 -1.13531e-06 4.44606e-08)
(-3.43975e-07 -1.15312e-06 4.08312e-08)
(-3.97211e-07 -1.17023e-06 3.66191e-08)
(-4.23835e-07 -1.18368e-06 3.21597e-08)
(-4.24666e-07 -1.19009e-06 2.77893e-08)
(-4.02129e-07 -1.18561e-06 2.38278e-08)
(-3.60215e-07 -1.16617e-06 2.04401e-08)
(-3.03877e-07 -1.12722e-06 1.76974e-08)
(-2.38575e-07 -1.0632e-06 1.55702e-08)
(-1.70054e-07 -9.66389e-07 1.39356e-08)
(-1.03967e-07 -8.2479e-07 1.24382e-08)
(-4.69753e-08 -6.16599e-07 1.02967e-08)
(-5.62028e-09 -2.95093e-07 5.51313e-09)
(5.25357e-09 -3.45679e-07 5.24839e-09)
(4.43063e-08 -7.21778e-07 9.7989e-09)
(9.82328e-08 -9.6341e-07 1.18216e-08)
(1.60746e-07 -1.12785e-06 1.32922e-08)
(2.2565e-07 -1.24149e-06 1.49096e-08)
(2.87686e-07 -1.31892e-06 1.69734e-08)
(3.41471e-07 -1.3693e-06 1.96925e-08)
(3.81909e-07 -1.3987e-06 2.31425e-08)
(4.04311e-07 -1.41189e-06 2.7186e-08)
(4.04749e-07 -1.41301e-06 3.16981e-08)
(3.80617e-07 -1.40595e-06 3.63575e-08)
(3.3092e-07 -1.39402e-06 4.07698e-08)
(2.56411e-07 -1.37999e-06 4.454e-08)
(1.62092e-07 -1.36617e-06 4.73298e-08)
(5.67036e-08 -1.35946e-06 4.88678e-08)
(-5.34014e-08 -1.35967e-06 4.89809e-08)
(-1.59306e-07 -1.36626e-06 4.72812e-08)
(-2.53247e-07 -1.37925e-06 4.45654e-08)
(-3.27638e-07 -1.39365e-06 4.08881e-08)
(-3.77819e-07 -1.40604e-06 3.64514e-08)
(-4.02378e-07 -1.41322e-06 3.17995e-08)
(-4.02452e-07 -1.41214e-06 2.72723e-08)
(-3.80485e-07 -1.39906e-06 2.32102e-08)
(-3.40374e-07 -1.36976e-06 1.97695e-08)
(-2.86862e-07 -1.31928e-06 1.70001e-08)
(-2.25084e-07 -1.24142e-06 1.48694e-08)
(-1.60373e-07 -1.12721e-06 1.32702e-08)
(-9.80164e-08 -9.6237e-07 1.18343e-08)
(-4.42776e-08 -7.20859e-07 9.81117e-09)
(-5.29002e-09 -3.46332e-07 5.24212e-09)
(4.75684e-09 -3.92795e-07 4.68345e-09)
(3.98387e-08 -8.17911e-07 8.78245e-09)
(8.82967e-08 -1.09072e-06 1.05844e-08)
(1.44414e-07 -1.27729e-06 1.19377e-08)
(2.02744e-07 -1.40753e-06 1.3538e-08)
(2.58656e-07 -1.49823e-06 1.55599e-08)
(3.07406e-07 -1.56043e-06 1.81736e-08)
(3.44355e-07 -1.60071e-06 2.14937e-08)
(3.65256e-07 -1.62392e-06 2.53799e-08)
(3.66372e-07 -1.63418e-06 2.97918e-08)
(3.44998e-07 -1.63516e-06 3.44114e-08)
(3.00243e-07 -1.62966e-06 3.88155e-08)
(2.32893e-07 -1.6208e-06 4.24569e-08)
(1.47414e-07 -1.61133e-06 4.52669e-08)
(5.1633e-08 -1.60692e-06 4.68672e-08)
(-4.866e-08 -1.60717e-06 4.70109e-08)
(-1.4487e-07 -1.61131e-06 4.52828e-08)
(-2.29882e-07 -1.61993e-06 4.23944e-08)
(-2.97319e-07 -1.62948e-06 3.88303e-08)
(-3.42542e-07 -1.6354e-06 3.44235e-08)
(-3.64135e-07 -1.63452e-06 2.98822e-08)
(-3.63505e-07 -1.62424e-06 2.54727e-08)
(-3.43054e-07 -1.60118e-06 2.1553e-08)
(-3.06415e-07 -1.56107e-06 1.82632e-08)
(-2.57948e-07 -1.49854e-06 1.55895e-08)
(-2.02247e-07 -1.40681e-06 1.34945e-08)
(-1.44002e-07 -1.27576e-06 1.18864e-08)
(-8.79482e-08 -1.089e-06 1.04878e-08)
(-3.96922e-08 -8.16615e-07 8.67245e-09)
(-4.71491e-09 -3.93366e-07 4.65964e-09)
(4.02943e-09 -4.33804e-07 3.89805e-09)
(3.34435e-08 -9.0116e-07 7.33504e-09)
(7.40784e-08 -1.20075e-06 8.88118e-09)
(1.21342e-07 -1.40715e-06 1.00985e-08)
(1.70489e-07 -1.55296e-06 1.15701e-08)
(2.17622e-07 -1.65639e-06 1.34729e-08)
(2.58979e-07 -1.73003e-06 1.58627e-08)
(2.90605e-07 -1.78135e-06 1.88173e-08)
(3.08893e-07 -1.81506e-06 2.22198e-08)
(3.10403e-07 -1.83481e-06 2.61384e-08)
(2.92573e-07 -1.84377e-06 3.023e-08)
(2.54677e-07 -1.8453e-06 3.41367e-08)
(1.97639e-07 -1.84318e-06 3.75409e-08)
(1.25461e-07 -1.83972e-06 4.02711e-08)
(4.40127e-08 -1.83816e-06 4.17992e-08)
(-4.14536e-08 -1.8383e-06 4.1951e-08)
(-1.2333e-07 -1.83952e-06 4.0462e-08)
(-1.95178e-07 -1.8431e-06 3.77859e-08)
(-2.52364e-07 -1.84723e-06 3.45956e-08)
(-2.9044e-07 -1.84536e-06 3.05164e-08)
(-3.08321e-07 -1.83553e-06 2.63305e-08)
(-3.07295e-07 -1.81533e-06 2.22683e-08)
(-2.89504e-07 -1.7818e-06 1.86387e-08)
(-2.58116e-07 -1.73067e-06 1.55969e-08)
(-2.16943e-07 -1.65632e-06 1.31536e-08)
(-1.69855e-07 -1.55156e-06 1.12928e-08)
(-1.20798e-07 -1.40512e-06 9.92346e-09)
(-7.37618e-08 -1.19893e-06 8.78821e-09)
(-3.33389e-08 -8.99639e-07 7.30383e-09)
(-3.97748e-09 -4.34199e-07 3.9542e-09)
(3.15305e-09 -4.66504e-07 2.84283e-09)
(2.55676e-08 -9.67261e-07 5.31592e-09)
(5.62035e-08 -1.28798e-06 6.50272e-09)
(9.2078e-08 -1.51028e-06 7.4447e-09)
(1.29509e-07 -1.66927e-06 8.52163e-09)
(1.65486e-07 -1.78427e-06 9.99897e-09)
(1.97102e-07 -1.86831e-06 1.19677e-08)
(2.21405e-07 -1.92959e-06 1.45049e-08)
(2.35927e-07 -1.97284e-06 1.74218e-08)
(2.37636e-07 -2.00097e-06 2.06224e-08)
(2.24003e-07 -2.01758e-06 2.37468e-08)
(1.948e-07 -2.02736e-06 2.68763e-08)
(1.51506e-07 -2.03307e-06 2.99004e-08)
(9.6643e-08 -2.03491e-06 3.21709e-08)
(3.41473e-08 -2.03555e-06 3.33383e-08)
(-3.14399e-08 -2.035e-06 3.3244e-08)
(-9.45017e-08 -2.03335e-06 3.19792e-08)
(-1.49613e-07 -2.03199e-06 2.97171e-08)
(-1.93353e-07 -2.0296e-06 2.69937e-08)
(-2.22212e-07 -2.01943e-06 2.37501e-08)
(-2.35578e-07 -2.00155e-06 2.04677e-08)
(-2.34474e-07 -1.97274e-06 1.72878e-08)
(-2.20547e-07 -1.92972e-06 1.44205e-08)
(-1.9634e-07 -1.86854e-06 1.19864e-08)
(-1.649e-07 -1.78383e-06 1.004e-08)
(-1.29099e-07 -1.66814e-06 8.58286e-09)
(-9.18466e-08 -1.50942e-06 7.53693e-09)
(-5.60786e-08 -1.28789e-06 6.68038e-09)
(-2.53193e-08 -9.66984e-07 5.54827e-09)
(-3.02959e-09 -4.67355e-07 2.98272e-09)
(1.99917e-09 -4.89853e-07 1.84749e-09)
(1.61681e-08 -1.01398e-06 3.42104e-09)
(3.54982e-08 -1.34968e-06 4.0885e-09)
(5.81969e-08 -1.58235e-06 4.57799e-09)
(8.16856e-08 -1.75012e-06 5.21025e-09)
(1.04235e-07 -1.87359e-06 6.17821e-09)
(1.2409e-07 -1.96562e-06 7.50062e-09)
(1.39301e-07 -2.0346e-06 9.2231e-09)
(1.48645e-07 -2.08533e-06 1.12521e-08)
(1.50136e-07 -2.1202e-06 1.34035e-08)
(1.417e-07 -2.14415e-06 1.55328e-08)
(1.23455e-07 -2.1615e-06 1.77634e-08)
(9.63261e-08 -2.1735e-06 1.98326e-08)
(6.1655e-08 -2.17942e-06 2.13736e-08)
(2.20873e-08 -2.18161e-06 2.20779e-08)
(-1.93544e-08 -2.17954e-06 2.17178e-08)
(-5.94644e-08 -2.17498e-06 2.07336e-08)
(-9.42543e-08 -2.16922e-06 1.90527e-08)
(-1.21796e-07 -2.16028e-06 1.69423e-08)
(-1.40292e-07 -2.14279e-06 1.46455e-08)
(-1.48948e-07 -2.11792e-06 1.24853e-08)
(-1.48201e-07 -2.0822e-06 1.05991e-08)
(-1.39264e-07 -2.03265e-06 8.94659e-09)
(-1.23843e-07 -1.96545e-06 7.57424e-09)
(-1.03832e-07 -1.87432e-06 6.45691e-09)
(-8.11275e-08 -1.75099e-06 5.5548e-09)
(-5.76337e-08 -1.5832e-06 4.89035e-09)
(-3.51494e-08 -1.35046e-06 4.32581e-09)
(-1.5862e-08 -1.01416e-06 3.5699e-09)
(-1.91377e-09 -4.9052e-07 1.87711e-09)
(7.38519e-10 -5.02068e-07 5.85012e-10)
(5.67312e-09 -1.03803e-06 1.16552e-09)
(1.23883e-08 -1.38206e-06 1.46395e-09)
(2.04591e-08 -1.62066e-06 1.6607e-09)
(2.87613e-08 -1.79328e-06 1.91945e-09)
(3.67855e-08 -1.92084e-06 2.32422e-09)
(4.40666e-08 -2.01604e-06 2.80485e-09)
(4.97253e-08 -2.08751e-06 3.29217e-09)
(5.31339e-08 -2.1416e-06 3.92169e-09)
(5.36521e-08 -2.18158e-06 4.78364e-09)
(5.06264e-08 -2.21121e-06 5.68094e-09)
(4.42701e-08 -2.23304e-06 6.51049e-09)
(3.45692e-08 -2.24779e-06 7.14968e-09)
(2.22384e-08 -2.25619e-06 7.82358e-09)
(8.389e-09 -2.26025e-06 8.14711e-09)
(-6.2536e-09 -2.25818e-06 7.89011e-09)
(-2.09517e-08 -2.25247e-06 7.56729e-09)
(-3.32223e-08 -2.24454e-06 6.95431e-09)
(-4.27665e-08 -2.2323e-06 6.08238e-09)
(-4.92829e-08 -2.21054e-06 5.22536e-09)
(-5.23324e-08 -2.18045e-06 4.43807e-09)
(-5.21888e-08 -2.1396e-06 3.74693e-09)
(-4.91843e-08 -2.08601e-06 3.10646e-09)
(-4.38513e-08 -2.01579e-06 2.59295e-09)
(-3.67873e-08 -1.92159e-06 2.21799e-09)
(-2.86718e-08 -1.79444e-06 1.909e-09)
(-2.03003e-08 -1.62188e-06 1.67402e-09)
(-1.2331e-08 -1.38324e-06 1.47828e-09)
(-5.52408e-09 -1.03881e-06 1.25415e-09)
(-6.33098e-10 -5.02619e-07 6.72069e-10)
(-5.28328e-10 -5.02585e-07 -6.22492e-10)
(-4.90188e-09 -1.03895e-06 -1.1286e-09)
(-1.10201e-08 -1.38351e-06 -1.32534e-09)
(-1.79826e-08 -1.62234e-06 -1.49188e-09)
(-2.52718e-08 -1.79515e-06 -1.7054e-09)
(-3.22805e-08 -1.92301e-06 -2.00792e-09)
(-3.84515e-08 -2.01858e-06 -2.40078e-09)
(-4.33031e-08 -2.09035e-06 -2.88731e-09)
(-4.61242e-08 -2.14444e-06 -3.49947e-09)
(-4.62597e-08 -2.18408e-06 -4.17847e-09)
(-4.33762e-08 -2.21359e-06 -5.02814e-09)
(-3.76939e-08 -2.23541e-06 -5.96855e-09)
(-2.96916e-08 -2.24988e-06 -6.75279e-09)
(-1.93602e-08 -2.25855e-06 -7.06006e-09)
(-6.86507e-09 -2.26254e-06 -7.08762e-09)
(6.5445e-09 -2.26022e-06 -6.98897e-09)
(1.8823e-08 -2.25528e-06 -6.5205e-09)
(3.01698e-08 -2.24758e-06 -5.94992e-09)
(3.88305e-08 -2.23474e-06 -5.45302e-09)
(4.41148e-08 -2.21284e-06 -4.66887e-09)
(4.6876e-08 -2.18277e-06 -3.84268e-09)
(4.68357e-08 -2.14178e-06 -3.06837e-09)
(4.42099e-08 -2.08801e-06 -2.58223e-09)
(3.93863e-08 -2.01745e-06 -2.27671e-09)
(3.29396e-08 -1.92288e-06 -1.96426e-09)
(2.57617e-08 -1.79545e-06 -1.71766e-09)
(1.83224e-08 -1.62267e-06 -1.51034e-09)
(1.11992e-08 -1.38389e-06 -1.30967e-09)
(5.10799e-09 -1.03933e-06 -1.01287e-09)
(6.61185e-10 -5.02905e-07 -5.09592e-10)
(-1.83808e-09 -4.91205e-07 -1.81847e-09)
(-1.53271e-08 -1.01572e-06 -3.44492e-09)
(-3.3969e-08 -1.35274e-06 -4.187e-09)
(-5.56313e-08 -1.58606e-06 -4.74433e-09)
(-7.8281e-08 -1.75449e-06 -5.39604e-09)
(-1.00124e-07 -1.87884e-06 -6.27065e-09)
(-1.19252e-07 -1.9715e-06 -7.42377e-09)
(-1.33874e-07 -2.04049e-06 -8.92567e-09)
(-1.42409e-07 -2.09138e-06 -1.07918e-08)
(-1.4336e-07 -2.1266e-06 -1.27485e-08)
(-1.35134e-07 -2.15104e-06 -1.4914e-08)
(-1.17656e-07 -2.1687e-06 -1.72053e-08)
(-9.2051e-08 -2.18079e-06 -1.91839e-08)
(-5.91522e-08 -2.18798e-06 -2.04475e-08)
(-2.06773e-08 -2.1908e-06 -2.09361e-08)
(1.97969e-08 -2.18787e-06 -2.06529e-08)
(5.79924e-08 -2.1842e-06 -1.97244e-08)
(9.20531e-08 -2.17898e-06 -1.82241e-08)
(1.18274e-07 -2.16826e-06 -1.65366e-08)
(1.35281e-07 -2.14995e-06 -1.43557e-08)
(1.43867e-07 -2.1247e-06 -1.22822e-08)
(1.43121e-07 -2.08861e-06 -1.02763e-08)
(1.34219e-07 -2.03812e-06 -8.5485e-09)
(1.19418e-07 -1.96982e-06 -7.10785e-09)
(1.00278e-07 -1.87818e-06 -5.93113e-09)
(7.86499e-08 -1.75456e-06 -5.05332e-09)
(5.60437e-08 -1.5864e-06 -4.38716e-09)
(3.43011e-08 -1.35337e-06 -3.86887e-09)
(1.56473e-08 -1.01648e-06 -3.18335e-09)
(1.97545e-09 -4.91436e-07 -1.72192e-09)
(-3.00622e-09 -4.68624e-07 -2.89541e-09)
(-2.48841e-08 -9.69797e-07 -5.40975e-09)
(-5.50237e-08 -1.29185e-06 -6.55613e-09)
(-9.0116e-08 -1.51423e-06 -7.40478e-09)
(-1.26684e-07 -1.67375e-06 -8.42468e-09)
(-1.61861e-07 -1.79031e-06 -9.82508e-09)
(-1.92747e-07 -1.87598e-06 -1.16892e-08)
(-2.16481e-07 -1.93821e-06 -1.41015e-08)
(-2.30295e-07 -1.98245e-06 -1.70361e-08)
(-2.31688e-07 -2.01136e-06 -2.01322e-08)
(-2.1843e-07 -2.02856e-06 -2.33175e-08)
(-1.8995e-07 -2.03864e-06 -2.6386e-08)
(-1.47993e-07 -2.04494e-06 -2.9219e-08)
(-9.47556e-08 -2.04832e-06 -3.13507e-08)
(-3.31789e-08 -2.04972e-06 -3.24329e-08)
(3.15552e-08 -2.04743e-06 -3.21729e-08)
(9.32651e-08 -2.04605e-06 -3.09435e-08)
(1.48016e-07 -2.04515e-06 -2.88383e-08)
(1.90416e-07 -2.03921e-06 -2.62506e-08)
(2.18407e-07 -2.02774e-06 -2.30919e-08)
(2.32117e-07 -2.00995e-06 -1.99666e-08)
(2.31154e-07 -1.98166e-06 -1.68957e-08)
(2.17174e-07 -1.93844e-06 -1.41574e-08)
(1.93332e-07 -1.8767e-06 -1.17454e-08)
(1.62277e-07 -1.79166e-06 -9.80934e-09)
(1.2693e-07 -1.67539e-06 -8.34663e-09)
(9.02059e-08 -1.51555e-06 -7.16422e-09)
(5.52017e-08 -1.29307e-06 -6.25171e-09)
(2.51925e-08 -9.70992e-07 -5.11694e-09)
(3.15386e-09 -4.68588e-07 -2.75752e-09)
(-4.00456e-09 -4.36034e-07 -3.82298e-09)
(-3.30766e-08 -9.0367e-07 -7.1351e-09)
(-7.30085e-08 -1.20426e-06 -8.67484e-09)
(-1.19574e-07 -1.41136e-06 -9.84092e-09)
(-1.68125e-07 -1.5587e-06 -1.12029e-08)
(-2.14788e-07 -1.66441e-06 -1.30467e-08)
(-2.55631e-07 -1.73973e-06 -1.54664e-08)
(-2.86767e-07 -1.79192e-06 -1.84572e-08)
(-3.04591e-07 -1.82663e-06 -2.19984e-08)
(-3.05973e-07 -1.84754e-06 -2.58557e-08)
(-2.88404e-07 -1.85748e-06 -2.99342e-08)
(-2.50919e-07 -1.85965e-06 -3.37539e-08)
(-1.94935e-07 -1.85838e-06 -3.70892e-08)
(-1.24091e-07 -1.85675e-06 -3.97722e-08)
(-4.30419e-08 -1.85634e-06 -4.13804e-08)
(4.17184e-08 -1.85494e-06 -4.12507e-08)
(1.22723e-07 -1.85618e-06 -3.9742e-08)
(1.94802e-07 -1.8601e-06 -3.70513e-08)
(2.51067e-07 -1.86064e-06 -3.37219e-08)
(2.88228e-07 -1.85723e-06 -2.99836e-08)
(3.05953e-07 -1.84709e-06 -2.5935e-08)
(3.0507e-07 -1.82688e-06 -2.19543e-08)
(2.87333e-07 -1.7926e-06 -1.85479e-08)
(2.56169e-07 -1.74041e-06 -1.56541e-08)
(2.15257e-07 -1.66545e-06 -1.33236e-08)
(1.68565e-07 -1.56063e-06 -1.1501e-08)
(1.19942e-07 -1.41425e-06 -1.00011e-08)
(7.32228e-08 -1.20781e-06 -8.76605e-09)
(3.31332e-08 -9.06637e-07 -7.20046e-09)
(4.00655e-09 -4.36177e-07 -3.82962e-09)
(-4.7203e-09 -3.95349e-07 -4.64069e-09)
(-3.94843e-08 -8.21352e-07 -8.67097e-09)
(-8.73847e-08 -1.09501e-06 -1.04889e-08)
(-1.43206e-07 -1.28279e-06 -1.18557e-08)
(-2.01248e-07 -1.4149e-06 -1.34211e-08)
(-2.56856e-07 -1.50769e-06 -1.55e-08)
(-3.0526e-07 -1.57133e-06 -1.81612e-08)
(-3.41874e-07 -1.61263e-06 -2.14421e-08)
(-3.62459e-07 -1.63693e-06 -2.53562e-08)
(-3.63462e-07 -1.64832e-06 -2.97086e-08)
(-3.42244e-07 -1.65025e-06 -3.43134e-08)
(-2.97781e-07 -1.64563e-06 -3.86654e-08)
(-2.31197e-07 -1.63762e-06 -4.23055e-08)
(-1.46645e-07 -1.63003e-06 -4.51282e-08)
(-5.05563e-08 -1.62647e-06 -4.69626e-08)
(4.93754e-08 -1.62544e-06 -4.69352e-08)
(1.45142e-07 -1.62962e-06 -4.53922e-08)
(2.30386e-07 -1.63886e-06 -4.25431e-08)
(2.97291e-07 -1.64639e-06 -3.86918e-08)
(3.41932e-07 -1.65069e-06 -3.43637e-08)
(3.63408e-07 -1.64865e-06 -2.97503e-08)
(3.62761e-07 -1.63745e-06 -2.53145e-08)
(3.42251e-07 -1.61334e-06 -2.14215e-08)
(3.05672e-07 -1.57212e-06 -1.81052e-08)
(2.57254e-07 -1.50873e-06 -1.54595e-08)
(2.01656e-07 -1.41668e-06 -1.34737e-08)
(1.43684e-07 -1.28585e-06 -1.19152e-08)
(8.78423e-08 -1.09899e-06 -1.05145e-08)
(3.97734e-08 -8.24541e-07 -8.67985e-09)
(4.78612e-09 -3.95416e-07 -4.6303e-09)
(-5.25474e-09 -3.48284e-07 -5.25403e-09)
(-4.41516e-08 -7.25867e-07 -9.81206e-09)
(-9.78321e-08 -9.68624e-07 -1.18297e-08)
(-1.60199e-07 -1.13458e-06 -1.32658e-08)
(-2.24954e-07 -1.24997e-06 -1.4854e-08)
(-2.86866e-07 -1.32897e-06 -1.69763e-08)
(-3.40509e-07 -1.38056e-06 -1.97529e-08)
(-3.80773e-07 -1.411e-06 -2.31967e-08)
(-4.02973e-07 -1.42523e-06 -2.7262e-08)
(-4.03288e-07 -1.42738e-06 -3.17587e-08)
(-3.79132e-07 -1.42127e-06 -3.6443e-08)
(-3.2957e-07 -1.41047e-06 -4.09064e-08)
(-2.55765e-07 -1.39775e-06 -4.47346e-08)
(-1.62053e-07 -1.38569e-06 -4.75209e-08)
(-5.5834e-08 -1.3789e-06 -4.91658e-08)
(5.43337e-08 -1.37801e-06 -4.90129e-08)
(1.60339e-07 -1.38461e-06 -4.75306e-08)
(2.54553e-07 -1.39757e-06 -4.47489e-08)
(3.28779e-07 -1.41047e-06 -4.08302e-08)
(3.78645e-07 -1.4215e-06 -3.6433e-08)
(4.03088e-07 -1.42768e-06 -3.17676e-08)
(4.03056e-07 -1.42572e-06 -2.72527e-08)
(3.80995e-07 -1.41164e-06 -2.31922e-08)
(3.40843e-07 -1.38132e-06 -1.9726e-08)
(2.87285e-07 -1.32988e-06 -1.69572e-08)
(2.25417e-07 -1.25115e-06 -1.48831e-08)
(1.60619e-07 -1.13642e-06 -1.33345e-08)
(9.80964e-08 -9.71229e-07 -1.18998e-08)
(4.42717e-08 -7.28237e-07 -9.85508e-09)
(5.23826e-09 -3.48369e-07 -5.26138e-09)
(-5.56968e-09 -2.97147e-07 -5.57778e-09)
(-4.6941e-08 -6.21507e-07 -1.03618e-08)
(-1.04154e-07 -8.31033e-07 -1.24611e-08)
(-1.70475e-07 -9.73775e-07 -1.39568e-08)
(-2.39263e-07 -1.07171e-06 -1.55963e-08)
(-3.04893e-07 -1.13679e-06 -1.77341e-08)
(-3.61544e-07 -1.17676e-06 -2.04969e-08)
(-4.03758e-07 -1.19724e-06 -2.39011e-08)
(-4.26596e-07 -1.20274e-06 -2.78839e-08)
(-4.26124e-07 -1.19726e-06 -3.22571e-08)
(-3.99827e-07 -1.18463e-06 -3.67505e-08)
(-3.46971e-07 -1.16854e-06 -4.10183e-08)
(-2.69024e-07 -1.15198e-06 -4.47521e-08)
(-1.70443e-07 -1.13745e-06 -4.73947e-08)
(-5.87232e-08 -1.12895e-06 -4.88492e-08)
(5.70552e-08 -1.12849e-06 -4.87414e-08)
(1.68673e-07 -1.13685e-06 -4.74416e-08)
(2.67633e-07 -1.15198e-06 -4.47808e-08)
(3.46039e-07 -1.16871e-06 -4.10166e-08)
(3.99233e-07 -1.18492e-06 -3.67906e-08)
(4.25827e-07 -1.1976e-06 -3.22962e-08)
(4.26543e-07 -1.20321e-06 -2.79083e-08)
(4.03853e-07 -1.19784e-06 -2.39224e-08)
(3.61744e-07 -1.1775e-06 -2.05085e-08)
(3.05169e-07 -1.13767e-06 -1.77518e-08)
(2.3959e-07 -1.07276e-06 -1.56456e-08)
(1.70747e-07 -9.75108e-07 -1.40963e-08)
(1.04266e-07 -8.32807e-07 -1.26969e-08)
(4.69653e-08 -6.23381e-07 -1.05764e-08)
(5.51792e-09 -2.97174e-07 -5.64104e-09)
(-5.66715e-09 -2.43986e-07 -5.69892e-09)
(-4.78556e-08 -5.12984e-07 -1.05853e-08)
(-1.06262e-07 -6.88112e-07 -1.27031e-08)
(-1.74039e-07 -8.07013e-07 -1.41831e-08)
(-2.44376e-07 -8.87376e-07 -1.57809e-08)
(-3.11429e-07 -9.39e-07 -1.78342e-08)
(-3.69152e-07 -9.68384e-07 -2.04594e-08)
(-4.11914e-07 -9.80383e-07 -2.36771e-08)
(-4.34694e-07 -9.79074e-07 -2.74171e-08)
(-4.33571e-07 -9.68174e-07 -3.1488e-08)
(-4.06108e-07 -9.51303e-07 -3.56348e-08)
(-3.51737e-07 -9.31935e-07 -3.9606e-08)
(-2.72359e-07 -9.13018e-07 -4.30506e-08)
(-1.72684e-07 -8.97644e-07 -4.54734e-08)
(-5.96301e-08 -8.88828e-07 -4.67489e-08)
(5.77536e-08 -8.88593e-07 -4.6701e-08)
(1.70724e-07 -8.97291e-07 -4.55233e-08)
(2.70905e-07 -9.13139e-07 -4.3034e-08)
(3.50842e-07 -9.32086e-07 -3.95805e-08)
(4.05505e-07 -9.51483e-07 -3.56759e-08)
(4.332e-07 -9.68417e-07 -3.15373e-08)
(4.34541e-07 -9.79436e-07 -2.74545e-08)
(4.11907e-07 -9.80869e-07 -2.37093e-08)
(3.69239e-07 -9.68988e-07 -2.04826e-08)
(3.11579e-07 -9.39717e-07 -1.78595e-08)
(2.44586e-07 -8.88202e-07 -1.58206e-08)
(1.74245e-07 -8.07956e-07 -1.42744e-08)
(1.06396e-07 -6.89252e-07 -1.28794e-08)
(4.79095e-08 -5.14325e-07 -1.07526e-08)
(5.65039e-09 -2.4396e-07 -5.74174e-09)
(-5.57998e-09 -1.90662e-07 -5.55684e-09)
(-4.69804e-08 -4.0446e-07 -1.03481e-08)
(-1.04373e-07 -5.45089e-07 -1.24457e-08)
(-1.71263e-07 -6.40328e-07 -1.38733e-08)
(-2.40877e-07 -7.0366e-07 -1.53757e-08)
(-3.0733e-07 -7.42759e-07 -1.72788e-08)
(-3.64513e-07 -7.62912e-07 -1.97039e-08)
(-4.0674e-07 -7.68203e-07 -2.26629e-08)
(-4.29027e-07 -7.6219e-07 -2.60831e-08)
(-4.27517e-07 -7.4818e-07 -2.97827e-08)
(-3.99871e-07 -7.29423e-07 -3.35495e-08)
(-3.4575e-07 -7.08969e-07 -3.71664e-08)
(-2.675e-07 -6.89846e-07 -4.02441e-08)
(-1.69715e-07 -6.75104e-07 -4.24086e-08)
(-5.86964e-08 -6.66913e-07 -4.35453e-08)
(5.68104e-08 -6.66599e-07 -4.35118e-08)
(1.67653e-07 -6.74625e-07 -4.24021e-08)
(2.66002e-07 -6.89816e-07 -4.01805e-08)
(3.44826e-07 -7.08989e-07 -3.70967e-08)
(3.99216e-07 -7.2949e-07 -3.35596e-08)
(4.27065e-07 -7.48338e-07 -2.98266e-08)
(4.28783e-07 -7.62461e-07 -2.61192e-08)
(4.06653e-07 -7.68579e-07 -2.26939e-08)
(3.64519e-07 -7.63376e-07 -1.97259e-08)
(3.07403e-07 -7.43305e-07 -1.73016e-08)
(2.41024e-07 -7.04283e-07 -1.54027e-08)
(1.7145e-07 -6.41015e-07 -1.39166e-08)
(1.04545e-07 -5.45849e-07 -1.25317e-08)
(4.7028e-08 -4.05338e-07 -1.04693e-08)
(5.55788e-09 -1.90742e-07 -5.59958e-09)
(-5.25091e-09 -1.39383e-07 -5.17609e-09)
(-4.42189e-08 -3.00095e-07 -9.68606e-09)
(-9.85664e-08 -4.07339e-07 -1.16565e-08)
(-1.62399e-07 -4.79775e-07 -1.29454e-08)
(-2.29254e-07 -5.26979e-07 -1.42921e-08)
(-2.93376e-07 -5.54691e-07 -1.59958e-08)
(-3.48707e-07 -5.67063e-07 -1.81825e-08)
(-3.89588e-07 -5.67413e-07 -2.08416e-08)
(-4.11157e-07 -5.58695e-07 -2.39118e-08)
(-4.09691e-07 -5.43713e-07 -2.7219e-08)
(-3.82929e-07 -5.25184e-07 -3.06192e-08)
(-3.30764e-07 -5.05732e-07 -3.38461e-08)
(-2.55821e-07 -4.88156e-07 -3.65813e-08)
(-1.62291e-07 -4.74843e-07 -3.85212e-08)
(-5.61809e-08 -4.67634e-07 -3.95757e-08)
(5.43247e-08 -4.67332e-07 -3.95407e-08)