/*--------------------------------*- C++ -*----------------------------------*\
| =========                 |                                                 |
| \\      /  F ield         | OpenFOAM: The Open Source CFD Toolbox           |
|  \\    /   O peration     | Version:  v1906                                 |
|   \\  /    A nd           | Web:      www.OpenFOAM.com                      |
|    \\/     M anipulation  |                                                 |
\*---------------------------------------------------------------------------*/
FoamFile
{
    version     2.0;
    format      ascii;
    class       volScalarField;
    location    "73";
    object      omega;
}
// * * * * * * * * * * * * * * * * * * * * * * * * * * * * * * * * * * * * * //

dimensions      [0 0 -1 0 0 0 0];


internalField   nonuniform List<scalar> 
78750
(
352.48
13.5761
13.6198
13.6616
13.7011
13.7381
13.7722
13.8032
13.8308
13.8551
13.8759
13.8934
13.9078
13.9189
13.9269
13.9321
13.9343
13.9338
13.9306
13.9247
13.9164
13.9056
13.8926
13.8772
13.8597
13.84
13.8184
13.7948
13.7692
13.7419
13.7134
13.6858
13.6646
13.657
356.214
517.221
4.16395
4.26063
4.35057
4.43416
4.50996
4.57676
4.63414
4.68228
4.7217
4.75303
4.77686
4.79379
4.80445
4.80932
4.80877
4.80316
4.79283
4.7781
4.75929
4.73672
4.71068
4.6814
4.64898
4.6137
4.57579
4.53565
4.4935
4.4492
4.40249
4.35256
4.299
4.24596
4.2034
523.321
517.229
4.19496
4.31643
4.42786
4.52698
4.61184
4.68199
4.73838
4.78258
4.8162
4.84067
4.85733
4.86712
4.87068
4.86859
4.86141
4.84976
4.83412
4.81493
4.79265
4.76782
4.74097
4.71251
4.68263
4.65124
4.61808
4.58281
4.54511
4.50451
4.46012
4.41061
4.35629
4.304
4.26273
523.886
517.246
4.26442
4.43141
4.57617
4.69453
4.78641
4.85547
4.9064
4.94305
4.9681
4.9834
4.99018
4.98934
4.98167
4.96778
4.94824
4.92371
4.89497
4.86298
4.82883
4.79374
4.75898
4.72562
4.69416
4.66427
4.635
4.60512
4.57339
4.53849
4.4988
4.45279
4.40161
4.35356
4.31501
524.351
517.262
4.31803
4.51276
4.67255
4.79377
4.88094
4.94259
4.98622
5.01644
5.03545
5.04451
5.04468
5.03673
5.02109
4.99818
4.96865
4.93344
4.89379
4.85122
4.80749
4.76467
4.72496
4.6901
4.66069
4.63611
4.61486
4.59487
4.57387
4.54952
4.51939
4.48164
4.43772
4.39564
4.35896
524.789
517.281
4.36991
4.589
4.76251
4.88842
4.97564
5.03607
5.07834
5.10669
5.12305
5.12884
5.12482
5.11123
5.08836
5.05673
5.01727
4.97134
4.9206
4.86699
4.81275
4.7605
4.71313
4.67283
4.64031
4.61516
4.59607
4.581
4.5673
4.5519
4.53152
4.50347
4.46822
4.43198
4.3962
525.153
517.297
4.40953
4.64565
4.828
4.95631
5.04296
5.10205
5.14267
5.16889
5.18274
5.18536
5.17708
5.15798
5.12836
5.08897
5.04106
4.98636
4.92691
4.86511
4.80372
4.74604
4.69539
4.65346
4.62041
4.59579
4.5786
4.56716
4.55905
4.55112
4.53956
4.52077
4.49397
4.4631
4.42831
525.503
517.313
4.44895
4.70199
4.89414
5.02664
5.11463
5.17403
5.21415
5.23939
5.25176
5.25203
5.24032
5.21667
5.18143
5.13556
5.08053
5.01832
4.95124
4.88197
4.81369
4.75031
4.69543
4.65024
4.61461
4.58808
4.56996
4.5591
4.55362
4.55064
4.54612
4.53552
4.51639
4.49045
4.45704
525.814
517.326
4.47917
4.74526
4.94531
5.08157
5.17111
5.23108
5.27119
5.29579
5.30679
5.3048
5.28984
5.26194
5.22161
5.17001
5.10887
5.04042
4.96726
4.8924
4.81957
4.75333
4.69706
4.651
4.61456
4.58718
4.56834
4.5574
4.55312
4.55319
4.5537
4.5495
4.53668
4.51511
4.48366
526.108
517.34
4.51348
4.79391
5.00231
5.14234
5.23326
5.29356
5.33335
5.35706
5.3665
5.36217
5.34401
5.31205
5.26691
5.20991
5.14301
5.06866
4.9897
4.90947
4.83216
4.76298
4.70511
4.65809
4.62087
4.59264
4.57291
4.5613
4.55715
4.55879
4.56267
4.5633
4.5556
4.53796
4.50887
526.38
517.353
4.54162
4.83364
5.04914
5.19278
5.28538
5.34639
5.38625
5.40939
5.41756
5.41113
5.38999
5.35421
5.30452
5.24246
5.17021
5.09048
5.00639
4.92163
4.84095
4.77028
4.71225
4.66565
4.62896
4.60107
4.58136
4.5696
4.56551
4.56799
4.57396
4.57796
4.57413
4.55977
4.53306
526.635
517.368
4.57356
4.87806
5.1006
5.2473
5.34101
5.40227
5.44181
5.46408
5.47071
5.46201
5.43779
5.39818
5.344
5.27696
5.19944
5.11437
5.02515
4.93576
4.8515
4.779
4.72056
4.67438
4.63844
4.6113
4.59212
4.58063
4.57675
4.57978
4.5871
4.59343
4.59248
4.58085
4.5563
526.872
517.382
4.60177
4.91685
5.14552
5.29513
5.39013
5.45191
5.49141
5.51305
5.5184
5.50765
5.48058
5.43735
5.37893
5.30718
5.22467
5.13457
5.04055
4.94695
4.85959
4.78582
4.72754
4.68235
4.64781
4.62211
4.60417
4.59361
4.59039
4.59403
4.60229
4.61014
4.61121
4.60162
4.57876
527.096
517.397
4.63202
4.95793
5.19249
5.34456
5.44047
5.50251
5.54177
5.56267
5.56666
5.55385
5.52399
5.47728
5.41479
5.3385
5.25117
5.15616
5.05734
4.95938
4.86862
4.79311
4.73459
4.69019
4.65705
4.633
4.61666
4.60747
4.60533
4.6098
4.61887
4.62779
4.63024
4.62214
4.60041
527.305
517.411
4.66007
4.99559
5.23541
5.38981
5.48674
5.5492
5.58843
5.60878
5.61161
5.59694
5.56453
5.51461
5.44834
5.36785
5.27602
5.17639
5.07306
4.97097
4.87696
4.79979
4.74112
4.69762
4.66603
4.64386
4.62947
4.62207
4.6214
4.62697
4.63684
4.6465
4.6498
4.64261
4.6214
527.503
517.427
4.68886
5.03385
5.27866
5.43511
5.53288
5.59567
5.63484
5.65464
5.65637
5.63998
5.60519
5.5523
5.48255
5.39815
5.30209
5.19802
5.09023
4.98393
4.88638
4.80704
4.74778
4.7049
4.67475
4.65448
4.64218
4.63683
4.63796
4.6449
4.65569
4.66595
4.66975
4.663
4.64175
527.688
517.442
4.7163
5.06998
5.31938
5.47781
5.57649
5.63975
5.67898
5.6984
5.6992
5.68127
5.64435
5.58879
5.51589
5.42793
5.32798
5.21977
5.10774
4.99738
4.89626
4.81452
4.75446
4.71203
4.68327
4.66496
4.65489
4.6518
4.65499
4.66357
4.6754
4.68617
4.69018
4.68345
4.66161
527.863
517.458
4.7438
5.10591
5.35966
5.5199
5.61944
5.68316
5.7225
5.74159
5.74155
5.72224
5.68341
5.62545
5.54973
5.45856
5.35503
5.24292
5.12678
5.01232
4.90738
4.8227
4.76132
4.71898
4.69138
4.67497
4.66723
4.66659
4.67208
4.68252
4.69557
4.70686
4.7109
4.70388
4.68099
528.029
517.473
4.7704
5.1404
5.39828
5.56032
5.6608
5.72509
5.76464
5.7835
5.78276
5.76223
5.72171
5.66164
5.58344
5.48942
5.38268
5.26699
5.14699
5.02849
4.91964
4.8316
4.76847
4.72587
4.69922
4.68464
4.67927
4.68124
4.68924
4.70178
4.7162
4.72804
4.73199
4.72438
4.7
528.186
517.489
4.79675
5.17438
5.4362
5.59999
5.70143
5.76633
5.80611
5.8248
5.82341
5.8018
5.75978
5.69788
5.61751
5.52101
5.41141
5.29247
5.16881
5.04631
4.93332
4.84139
4.77596
4.73264
4.70662
4.69372
4.69073
4.69544
4.70615
4.721
4.73698
4.74945
4.75324
4.74485
4.71864
528.336
517.504
4.82239
5.20725
5.47292
5.63857
5.74111
5.80671
5.84677
5.86529
5.86331
5.84072
5.79741
5.73393
5.65174
5.55313
5.44105
5.31921
5.19216
5.06577
4.9485
4.85222
4.78394
4.73942
4.7137
4.70231
4.70169
4.70923
4.72284
4.74021
4.75794
4.77115
4.77476
4.7654
4.737
528.479
517.52
4.8476
5.2394
5.50887
5.67649
5.78032
5.84668
5.88694
5.90522
5.90263
5.87914
5.83471
5.76993
5.68625
5.58591
5.47177
5.34741
5.21726
5.0871
4.96541
4.86429
4.79256
4.74628
4.72042
4.71028
4.71194
4.72237
4.73902
4.7591
4.77875
4.79277
4.79615
4.78577
4.75498
528.616
517.535
4.87209
5.27049
5.54374
5.71364
5.81927
5.88649
5.92665
5.94446
5.94123
5.91693
5.87157
5.80577
5.72096
5.61927
5.50349
5.37701
5.24409
5.11034
4.9842
4.87785
4.80207
4.75343
4.72696
4.71778
4.7216
4.73497
4.75481
4.77778
4.79953
4.81453
4.81797
4.80617
4.77272
528.748
517.551
4.89599
5.30062
5.57752
5.74991
5.85698
5.9251
5.96561
5.98289
5.97905
5.95408
5.90802
5.84148
5.75587
5.65324
5.53624
5.40808
5.27278
5.13573
5.00518
4.89331
4.81283
4.76114
4.73347
4.72481
4.73059
4.74684
4.76995
4.79598
4.82004
4.83628
4.84003
4.8267
4.79014
528.876
517.567
4.91921
5.32967
5.60998
5.78473
5.89315
5.96222
6.00325
6.02044
6.01602
5.99051
5.94394
5.87693
5.79084
5.68764
5.56984
5.44044
5.30321
5.1632
5.02844
4.91097
4.82519
4.76977
4.74025
4.73165
4.73912
4.75818
4.7846
4.8138
4.84028
4.85787
4.86218
4.84749
4.80741
529
517.582
4.94187
5.35791
5.64152
5.81836
5.92805
5.99808
6.03974
6.0571
6.05215
6.02624
5.97937
5.91214
5.82589
5.7225
5.60432
5.47416
5.33547
5.19297
5.05432
4.93133
4.83966
4.77974
4.74761
4.73845
4.74719
4.76888
4.79861
4.83111
4.86028
4.8798
4.88448
4.86838
4.82452
529.12
517.598
4.9638
5.38515
5.67226
5.85062
5.9614
6.03238
6.07476
6.09245
6.08725
6.06112
6.01412
5.9469
5.86075
5.7575
5.63935
5.50887
5.36924
5.22475
5.08266
4.95444
4.8565
4.79146
4.75598
4.74558
4.75512
4.77918
4.81219
4.84809
4.88018
4.9019
4.90696
4.88936
4.84149
529.237
517.613
4.98498
5.41115
5.70146
5.88138
5.99334
6.06539
6.10862
6.12686
6.1218
6.09537
6.04832
5.98129
5.89552
5.79273
5.67499
5.54465
5.40457
5.25864
5.11362
4.98053
4.87605
4.80531
4.76571
4.7533
4.76303
4.7891
4.82523
4.86458
4.89979
4.92392
4.92941
4.91029
4.85826
529.352
517.628
5.00549
5.43615
5.72943
5.91076
6.02381
6.09687
6.14095
6.15977
6.15496
6.12839
6.08152
6.01493
5.92981
5.82779
5.7108
5.581
5.44097
5.29415
5.14678
5.00929
4.89832
4.82151
4.77716
4.76202
4.77129
4.79893
4.83797
4.88076
4.91917
4.94582
4.9518
4.93114
4.87483
529.464
517.643
5.02537
5.46018
5.75621
5.93886
6.05302
6.12714
6.17213
6.19163
6.18721
6.16066
6.11412
6.04813
5.96385
5.86284
5.74691
5.61804
5.4785
5.33133
5.18218
5.04082
4.92351
4.84041
4.79073
4.77207
4.78013
4.80876
4.85042
4.89657
4.93827
4.96751
4.97403
4.95184
4.8912
529.573
517.658
5.04459
5.48318
5.78172
5.96556
6.08074
6.15588
6.20179
6.22202
6.21807
6.19168
6.14562
6.08041
5.99717
5.8974
5.78279
5.65518
5.51656
5.36957
5.21927
5.07468
4.95147
4.86211
4.80672
4.78386
4.78995
4.81896
4.86282
4.91212
4.957
4.98893
4.99607
4.97238
4.90735
529.68
517.673
5.06335
5.50544
5.80625
5.99116
6.10731
6.18347
6.23033
6.25135
6.24799
6.22192
6.17644
6.11212
6.03005
5.93169
5.81865
5.69258
5.55526
5.40892
5.25805
5.11089
4.98231
4.88682
4.82545
4.79777
4.80109
4.82972
4.87527
4.92751
4.97575
5.01012
5.01786
4.99271
4.9233
529.785
517.688
5.08152
5.52678
5.82954
6.01535
6.13239
6.20952
6.25731
6.27917
6.2765
6.25096
6.20608
6.14271
6.06195
5.96518
5.85391
5.72966
5.59398
5.44875
5.29791
5.1489
5.0157
4.91448
4.8471
4.81414
4.81396
4.84146
4.88811
4.94299
4.99454
5.03117
5.03945
5.01284
4.93903
529.889
517.702
5.0994
5.54771
5.85203
6.03854
6.15639
6.23445
6.28317
6.30586
6.30393
6.27906
6.2348
6.17249
6.09316
5.99813
5.88882
5.7666
5.63284
5.4891
5.33882
5.18865
5.05161
4.94514
4.87186
4.83328
4.82891
4.85448
4.90155
4.95864
5.01331
5.05204
5.0608
5.03273
4.95456
529.991
517.717
5.11658
5.56788
5.87324
6.0603
6.17887
6.25783
6.30745
6.33098
6.32981
6.30564
6.26213
6.20098
6.12321
6.03005
5.92284
5.80284
5.67125
5.52936
5.38014
5.22953
5.08957
4.97852
4.89967
4.85539
4.84631
4.86918
4.91595
4.97472
5.03217
5.0728
5.08196
5.05242
4.96989
530.093
517.731
5.13315
5.58714
5.89349
6.08104
6.20031
6.28013
6.33062
6.35496
6.35452
6.33113
6.28845
6.22855
6.15241
6.06122
5.95623
5.83859
5.70936
5.56959
5.42184
5.27142
5.12943
5.01445
4.9305
4.88056
4.86638
4.88587
4.93157
4.99139
5.05121
5.09348
5.10291
5.07187
4.985
530.193
517.745
5.1491
5.60544
5.91249
6.10039
6.22029
6.30094
6.3523
6.37744
6.37776
6.35511
6.31326
6.25471
6.18032
6.09119
5.98852
5.87337
5.74667
5.60927
5.46339
5.31374
5.17061
5.05249
4.96406
4.90875
4.8893
4.90484
4.94874
5.00895
5.0706
5.11418
5.12372
5.09111
4.99989
530.294
517.759
5.16461
5.623
5.93059
6.11877
6.23925
6.32069
6.37288
6.3988
6.39987
6.37801
6.33706
6.27983
6.20719
6.12022
6.01991
5.90733
5.78328
5.64842
5.5047
5.35632
5.21279
5.0923
5.00006
4.9398
4.91509
4.92625
4.96766
5.02753
5.09045
5.13496
5.14441
5.11015
5.01456
530.394
517.773
5.17936
5.63946
5.94741
6.13578
6.25679
6.33898
6.39195
6.41864
6.42044
6.39937
6.35939
6.30355
6.23268
6.14781
6.05001
5.94007
5.81876
5.6866
5.5453
5.39861
5.25538
5.1333
5.03804
4.97342
4.94368
4.95025
4.9886
5.04743
5.11096
5.15594
5.16503
5.12899
5.02899
530.495
517.787
5.19371
5.65527
5.96341
6.15188
6.27337
6.35625
6.40997
6.43737
6.43988
6.41959
6.3806
6.32618
6.25711
6.17437
6.07896
5.97175
5.85324
5.72387
5.58514
5.44046
5.29809
5.17515
5.0776
5.00923
4.97481
4.97675
5.01163
5.06878
5.1323
5.17722
5.18563
5.14765
5.04318
530.596
517.801
5.20727
5.66997
5.97815
6.16665
6.28855
6.37209
6.42651
6.45459
6.45779
6.43829
6.40032
6.34735
6.28011
6.19954
6.10657
6.002
5.8864
5.75989
5.62389
5.48151
5.34049
5.21742
5.11833
5.0469
5.00822
5.00561
5.03673
5.09168
5.15454
5.19889
5.2063
5.16616
5.05712
530.698
517.814
5.22043
5.68406
5.99213
6.18056
6.30282
6.38695
6.44202
6.47073
6.47457
6.45584
6.4189
6.36737
6.30195
6.22353
6.13299
6.03106
5.91822
5.7947
5.66153
5.52165
5.3824
5.25985
5.15994
5.08613
5.0437
5.0367
5.06385
5.11609
5.1777
5.22099
5.22703
5.18453
5.07081
530.8
517.828
5.23279
5.69706
6.00487
6.19318
6.31574
6.40042
6.4561
6.48541
6.48987
6.4719
6.43602
6.38595
6.32236
6.24609
6.15797
6.05867
5.94862
5.82794
5.69772
5.56053
5.42344
5.30206
5.20204
5.12657
5.081
5.0699
5.09299
5.14211
5.2019
5.24358
5.24789
5.20276
5.08423
530.903
517.841
5.24473
5.70945
6.01688
6.20498
6.32778
6.41295
6.46917
6.49902
6.50406
6.48682
6.452
6.40338
6.34159
6.26744
6.18169
6.08499
5.97771
5.85991
5.73258
5.59821
5.46354
5.34385
5.24432
5.16786
5.11974
5.10492
5.12396
5.16961
5.22706
5.26665
5.26887
5.22087
5.0974
531.007
517.854
5.2559
5.7208
6.02772
6.21554
6.33854
6.42416
6.48089
6.51124
6.51682
6.50032
6.46658
6.41942
6.35943
6.28737
6.20398
6.10984
6.00529
5.89035
5.76594
5.63447
5.5025
5.38497
5.28649
5.20964
5.15957
5.14149
5.15664
5.19864
5.25328
5.29026
5.29
5.23888
5.11034
531.112
517.867
5.26663
5.73155
6.03784
6.22532
6.34845
6.43446
6.49164
6.52244
6.52853
6.51272
6.48007
6.43436
6.37613
6.30613
6.22503
6.13339
6.03151
5.91938
5.79787
5.66936
5.5403
5.42533
5.32835
5.25163
5.20013
5.17921
5.19063
5.22885
5.28037
5.31436
5.3113
5.25681
5.12307
531.216
517.879
5.27662
5.74132
6.04687
6.23393
6.35715
6.44351
6.5011
6.53232
6.53889
6.52379
6.49225
6.44799
6.39153
6.32354
6.2447
6.15552
6.05626
5.94689
5.82827
5.70274
5.57672
5.4647
5.36964
5.29352
5.2411
5.21777
5.22573
5.2602
5.30826
5.33889
5.33275
5.27468
5.13563
531.32
517.891
5.28617
5.7505
6.0552
6.24178
6.36503
6.45169
6.50964
6.54123
6.54824
6.53382
6.5034
6.46058
6.40585
6.33985
6.26321
6.17641
6.0797
5.97302
5.85726
5.73474
5.61192
5.50309
5.41027
5.33515
5.28225
5.25692
5.26174
5.29265
5.3369
5.36383
5.35433
5.29248
5.14803
531.425
517.903
5.29502
5.75875
6.06249
6.24854
6.37179
6.4587
6.51698
6.54891
6.55635
6.54262
6.51335
6.47198
6.41897
6.35493
6.28046
6.196
6.10178
5.99776
5.88482
5.76535
5.64586
5.54043
5.45011
5.37632
5.32333
5.29641
5.2984
5.32589
5.36615
5.38912
5.37605
5.31025
5.16032
531.529
517.914
5.30341
5.76642
6.0691
6.25456
6.37774
6.46487
6.52344
6.55566
6.5635
6.55045
6.52234
6.48242
6.4311
6.36899
6.29663
6.21445
6.12268
6.02126
5.91112
5.79473
5.67872
5.57682
5.48915
5.41693
5.36417
5.33601
5.33545
5.35965
5.39584
5.41467
5.39785
5.32795
5.17244
531.632
517.925
5.31115
5.77323
6.07474
6.25955
6.38264
6.46995
6.52877
6.56127
6.5695
6.55715
6.53025
6.49178
6.44216
6.38194
6.31167
6.23175
6.14238
6.04354
5.9362
5.82296
5.71061
5.6123
5.52738
5.45686
5.40457
5.37547
5.37266
5.39373
5.42582
5.4404
5.41971
5.34561
5.18454
531.734
517.936
5.31843
5.77945
6.07971
6.26381
6.38676
6.47421
6.53326
6.566
6.5746
6.56295
6.53727
6.50027
6.45232
6.39396
6.32573
6.24801
6.161
6.06471
5.96019
5.85017
5.7417
5.647
5.56487
5.49617
5.44451
5.4147
5.40985
5.42793
5.45594
5.46622
5.4416
5.36325
5.19664
531.836
517.947
5.32509
5.78486
6.08378
6.26713
6.3899
6.47746
6.5367
6.56968
6.57865
6.56773
6.54333
6.5078
6.46152
6.40502
6.33879
6.26323
6.17855
6.08479
5.98309
5.87638
5.77198
5.68092
5.60161
5.53478
5.48383
5.45349
5.44682
5.46207
5.48607
5.49204
5.46346
5.38083
5.20867
531.936
517.957
5.3313
5.7897
6.08719
6.26974
6.3923
6.47993
6.53934
6.57253
6.58186
6.57168
6.54857
6.51453
6.4699
6.41522
6.35096
6.27752
6.19512
6.10387
6.005
5.90165
5.80147
5.71409
5.63764
5.57274
5.52264
5.49187
5.48352
5.49608
5.51612
5.51781
5.48528
5.39835
5.22063
532.035
517.966
5.33691
5.79378
6.08977
6.27147
6.39378
6.48147
6.54102
6.57441
6.58413
6.57472
6.55296
6.52042
6.47745
6.42456
6.36225
6.29089
6.21075
6.12197
6.02594
5.92601
5.83018
5.74651
5.67294
5.61001
5.5608
5.52967
5.51977
5.52976
5.54593
5.54342
5.50696
5.41574
5.23248
532.132
517.976
5.34209
5.79732
6.09172
6.27253
6.39455
6.48227
6.54194
6.57552
6.58563
6.57701
6.55662
6.52558
6.48425
6.43314
6.37273
6.30343
6.22551
6.13918
6.04598
5.94952
5.85813
5.77821
5.70757
5.64665
5.5984
5.56705
5.55566
5.56318
5.57554
5.56888
5.52853
5.43303
5.24423
532.228
517.985
5.34672
5.80016
6.09291
6.27278
6.39449
6.4822
6.54199
6.57577
6.5863
6.57852
6.55955
6.53001
6.49031
6.44095
6.38244
6.31516
6.23943
6.15554
6.06518
5.97222
5.88535
5.8092
5.74151
5.68264
5.63538
5.60384
5.59102
5.59614
5.60479
5.59406
5.54989
5.45015
5.25585
532.323
517.993
5.35094
5.80249
6.09351
6.2724
6.39376
6.48144
6.54131
6.57529
6.58627
6.57941
6.56184
6.53379
6.49569
6.44807
6.39142
6.32615
6.25259
6.17113
6.08361
5.9942
5.91189
5.83954
5.77482
5.71801
5.6718
5.64014
5.626
5.62875
5.63376
5.61904
5.57108
5.46714
5.26738
532.416
518.002
5.35466
5.80418
6.09341
6.27129
6.39227
6.47989
6.53983
6.57401
6.58553
6.57975
6.56351
6.53691
6.5004
6.45451
6.39972
6.33645
6.26505
6.18602
6.10137
6.01556
5.93782
5.86925
5.80749
5.75275
5.7076
5.67585
5.66045
5.66093
5.66235
5.64372
5.59206
5.48396
5.27878
532.507
518.01
5.35797
5.80537
6.09274
6.26956
6.39015
6.47769
6.53767
6.57203
6.58408
6.57945
6.56451
6.53937
6.50446
6.46032
6.4074
6.34612
6.2769
6.20031
6.11857
6.03645
5.96326
5.89843
5.83961
5.78694
5.74286
5.71106
5.69443
5.69268
5.69056
5.66813
5.61285
5.50063
5.29008
532.597
518.017
5.36082
5.80596
6.09141
6.26716
6.38733
6.47478
6.5348
6.56935
6.58196
6.57854
6.56493
6.54125
6.50795
6.46554
6.41449
6.35522
6.28821
6.21412
6.13538
6.0571
5.98836
5.92716
5.87119
5.82056
5.77755
5.74571
5.72788
5.72398
5.71841
5.69224
5.63341
5.51714
5.30128
532.685
518.025
5.36327
5.80605
6.08953
6.26417
6.38391
6.47125
6.53129
6.56603
6.57921
6.57702
6.56477
6.54257
6.51088
6.4702
6.42103
6.36379
6.29902
6.22752
6.15194
6.07774
6.01329
5.9556
5.90241
5.85376
5.81181
5.77994
5.76093
5.75489
5.74595
5.71612
5.65379
5.53354
5.3124
532.771
518.032
5.36527
5.80559
6.08705
6.26057
6.37986
6.4671
6.52717
6.56211
6.57591
6.57501
6.56414
6.54342
6.51333
6.47438
6.42707
6.37187
6.30937
6.24052
6.16825
6.09838
6.03806
5.98374
5.93321
5.8865
5.84561
5.81373
5.79358
5.78542
5.77317
5.73978
5.67401
5.54981
5.32346
532.855
518.039
5.36687
5.80464
6.08403
6.25641
6.37526
6.46238
6.52248
6.55763
6.57208
6.57252
6.56306
6.54384
6.51535
6.47813
6.43267
6.37949
6.31928
6.25315
6.18428
6.11893
6.06262
6.01157
5.96365
5.91883
5.879
5.84715
5.82589
5.81565
5.80015
5.76326
5.69413
5.56603
5.33451
532.937
518.045
5.36807
5.80318
6.08046
6.25169
6.37009
6.45711
6.51725
6.55265
6.5678
6.56965
6.56163
6.54393
6.51704
6.48152
6.43789
6.38673
6.3288
6.26539
6.19998
6.13921
6.08682
6.03898
5.9936
5.95066
5.9119
5.88012
5.85782
5.84559
5.82693
5.78663
5.71418
5.58222
5.34559
533.017
518.051
5.36894
5.80129
6.0764
6.24646
6.36439
6.45131
6.5115
6.54719
6.5631
6.56643
6.5599
6.54373
6.51845
6.48464
6.44284
6.39369
6.33803
6.27736
6.21545
6.15926
6.11071
6.06599
6.02312
5.98203
5.94434
5.91268
5.8894
5.87527
5.85354
5.80991
5.73421
5.59845
5.35672
533.096
518.057
5.36948
5.79898
6.07186
6.24069
6.35816
6.44497
6.50524
6.54126
6.55802
6.56291
6.55793
6.54333
6.51967
6.48755
6.44758
6.40042
6.34704
6.28912
6.23073
6.17906
6.13425
6.09256
6.05211
6.01284
5.97623
5.94474
5.92067
5.90467
5.87999
5.83314
5.75426
5.61472
5.36792
533.172
518.063
5.36978
5.7963
6.06685
6.23442
6.35138
6.43808
6.49844
6.53487
6.55256
6.55911
6.55574
6.54275
6.52074
6.49035
6.45222
6.40707
6.356
6.30087
6.24608
6.19882
6.1576
6.11882
6.0807
6.04316
6.00762
5.97638
5.95175
5.93382
5.90626
5.85632
5.77433
5.63106
5.3792
533.248
518.068
5.36982
5.79325
6.06136
6.22761
6.34404
6.43062
6.4911
6.52799
6.54673
6.55503
6.55334
6.542
6.52169
6.49305
6.45678
6.41369
6.36498
6.31272
6.26165
6.21862
6.18081
6.1448
6.1089
6.07305
6.03858
6.00768
5.98261
5.96281
5.93244
5.87948
5.79445
5.64749
5.39057
533.321
518.074
5.36966
5.78984
6.05541
6.22025
6.33612
6.42255
6.48317
6.52064
6.54059
6.5507
6.55072
6.54111
6.52254
6.49572
6.46138
6.4204
6.37414
6.32489
6.27774
6.23869
6.20407
6.17064
6.13681
6.10255
6.0691
6.03855
6.01315
5.99155
5.95848
5.90261
5.81464
5.66404
5.40207
533.394
518.079
5.36926
5.78605
6.04896
6.21232
6.32756
6.41381
6.47458
6.51276
6.53428
6.54608
6.54782
6.53997
6.52323
6.49829
6.46594
6.42715
6.38342
6.33733
6.29429
6.259
6.22739
6.19639
6.16453
6.13177
6.09931
6.06914
6.04345
6.02012
5.98444
5.92576
5.8349
5.6807
5.41367
533.465
518.084
5.36867
5.78191
6.04201
6.20382
6.31836
6.40437
6.46524
6.50413
6.52732
6.54091
6.54452
6.5386
6.52379
6.50083
6.47054
6.43401
6.3929
6.35007
6.31124
6.27953
6.25077
6.22206
6.19202
6.16068
6.12916
6.09936
6.07344
6.04849
6.01031
5.94893
5.85525
5.69748
5.42539
533.536
518.089
5.36785
5.77737
6.03454
6.1947
6.30849
6.39422
6.45517
6.49483
6.5198
6.53528
6.54086
6.53694
6.52417
6.50326
6.47512
6.44092
6.40251
6.36303
6.32845
6.30023
6.27421
6.2477
6.21942
6.18942
6.15879
6.12935
6.10323
6.0767
6.0361
5.97211
5.87569
5.71439
5.43721
533.605
518.095
5.36683
5.77244
6.02653
6.18495
6.29792
6.38329
6.4443
6.48475
6.51159
6.52906
6.53673
6.53496
6.52434
6.50562
6.47972
6.44795
6.41232
6.37627
6.3459
6.32102
6.29763
6.27321
6.24661
6.2179
6.18813
6.15907
6.1328
6.10477
6.06186
5.99535
5.89624
5.73143
5.44916
533.674
518.1
5.36556
5.76708
6.01795
6.17453
6.28661
6.37159
6.43262
6.4739
6.50269
6.52224
6.5321
6.53257
6.52423
6.50781
6.48429
6.45507
6.42238
6.3899
6.36368
6.34203
6.32117
6.29876
6.27376
6.24626
6.2173
6.18859
6.16218
6.1327
6.08757
6.01863
5.91689
5.7486
5.46121
533.742
518.105
5.36406
5.76127
6.00876
6.16341
6.27454
6.35905
6.4201
6.46225
6.49308
6.51481
6.52696
6.52978
6.52383
6.50984
6.48883
6.46231
6.43271
6.40398
6.38175
6.36318
6.34472
6.32421
6.30073
6.27441
6.24626
6.21791
6.19142
6.16057
6.11329
6.04199
5.93767
5.7659
5.47337
533.811
518.109
5.36229
5.75496
5.9989
6.15152
6.26163
6.34564
6.4067
6.44977
6.48273
6.5067
6.52121
6.52648
6.52303
6.51161
6.49328
6.46968
6.44341
6.41871
6.40031
6.38467
6.36847
6.34974
6.32769
6.30246
6.27505
6.24704
6.22049
6.18832
6.13897
6.0654
5.95854
5.78331
5.48561
533.879
518.114
5.3603
5.74812
5.98835
6.13885
6.24787
6.33133
6.39242
6.43649
6.47166
6.49794
6.51487
6.52266
6.5218
6.51304
6.49752
6.47699
6.45427
6.43383
6.41912
6.40628
6.39225
6.37525
6.35455
6.33038
6.30369
6.27604
6.24945
6.21601
6.16468
6.08889
5.97952
5.80084
5.49795
533.948
518.119
5.3579
5.74067
5.97703
6.1253
6.23316
6.31604
6.37721
6.42239
6.45984
6.48849
6.5079
6.51829
6.52011
6.51414
6.50157
6.48428
6.46531
6.4493
6.43819
6.42808
6.41614
6.40077
6.38137
6.35818
6.33217
6.30485
6.27825
6.24361
6.19036
6.11242
6.00059
5.81847
5.51035
534.017
518.124
5.35514
5.73262
5.96495
6.11087
6.21747
6.29974
6.36108
6.40757
6.44731
6.47833
6.50028
6.51331
6.51788
6.51477
6.50525
6.49134
6.47627
6.46477
6.45722
6.44981
6.43996
6.42622
6.4081
6.38588
6.36053
6.33354
6.30694
6.27113
6.21602
6.13599
6.02172
5.83615
5.5228
534.087
518.128
5.35206
5.72402
5.95211
6.09551
6.20071
6.28228
6.34392
6.39224
6.43403
6.46742
6.49197
6.50776
6.51518
6.51505
6.5087
6.49831
6.48731
6.48032
6.47624
6.47147
6.46366
6.45153
6.43467
6.41341
6.38871
6.36206
6.3355
6.29857
6.24167
6.15961
6.04292
5.85391
5.53529
534.156
518.133
5.34868
5.71485
5.9385
6.0792
6.18282
6.26351
6.32534
6.37548
6.41957
6.45556
6.48289
6.50155
6.51194
6.51488
6.51183
6.50511
6.49838
6.49583
6.49515
6.49299
6.48722
6.47669
6.46109
6.44078
6.41673
6.39047
6.3639
6.3259
6.26728
6.18322
6.06414
5.87167
5.54778
534.227
518.137
5.34506
5.70517
5.92414
6.06194
6.16378
6.24345
6.30548
6.35758
6.40409
6.44284
6.47311
6.49479
6.50826
6.51441
6.5148
6.51194
6.50967
6.51137
6.51395
6.51429
6.51049
6.50155
6.48721
6.46789
6.4446
6.41898
6.3922
6.35311
6.29282
6.20683
6.08538
5.88947
5.56029
534.296
518.142
5.34117
5.69495
5.90901
6.04371
6.14352
6.22194
6.28403
6.33813
6.3872
6.4289
6.4623
6.48718
6.50391
6.51344
6.51747
6.51869
6.52111
6.52692
6.53263
6.53543
6.53357
6.5262
6.51315
6.49486
6.4724
6.44751
6.42046
6.38024
6.31828
6.23039
6.10659
5.90723
5.57277
534.368
518.147
5.33704
5.6842
5.89315
6.02454
6.12209
6.19904
6.26111
6.31724
6.36897
6.41377
6.45048
6.47874
6.49888
6.51194
6.51976
6.52523
6.53249
6.54226
6.55102
6.55619
6.55626
6.55046
6.53872
6.52152
6.49997
6.47588
6.44857
6.40723
6.34365
6.2539
6.12777
5.92497
5.58521
534.438
518.151
5.33254
5.67284
5.87651
6.0044
6.09945
6.17466
6.23653
6.29463
6.34906
6.3971
6.43732
6.46917
6.49294
6.50973
6.52155
6.53148
6.54366
6.55732
6.56908
6.57662
6.57861
6.5744
6.56398
6.54791
6.52733
6.50409
6.47654
6.4341
6.36892
6.27733
6.14889
5.94263
5.59759
534.511
518.156
5.3277
5.66093
5.85918
5.98342
6.07577
6.14902
6.21055
6.27052
6.32762
6.37894
6.42277
6.45836
6.48593
6.50665
6.52265
6.53725
6.55435
6.57183
6.58655
6.59646
6.60039
6.5978
6.58876
6.57387
6.5543
6.53197
6.50423
6.46074
6.39402
6.30064
6.1699
5.96021
5.60989
534.582
518.16
5.32244
5.6484
5.84111
5.96154
6.05096
6.12207
6.18312
6.24486
6.30458
6.35922
6.40676
6.44624
6.47779
6.50264
6.52309
6.54261
6.56454
6.58577
6.60344
6.61574
6.62164
6.62072
6.6131
6.59944
6.58094
6.55956
6.53167
6.48717
6.41897
6.32383
6.19083
5.97772
5.62212
534.655
518.165
5.31689
5.63542
5.82244
5.93887
6.02515
6.09399
6.15454
6.2179
6.28018
6.3381
6.38935
6.43276
6.46841
6.49757
6.52269
6.5474
6.57403
6.59892
6.61951
6.63421
6.64212
6.64293
6.6368
6.62442
6.60705
6.58668
6.55869
6.51323
6.44361
6.34678
6.21154
5.99504
5.63421
534.727
518.169
5.31121
5.62209
5.80315
5.9153
5.99817
6.06467
6.12492
6.1898
6.25457
6.31572
6.37067
6.41804
6.45787
6.49149
6.52148
6.55158
6.58278
6.61126
6.63476
6.65189
6.66188
6.66449
6.65992
6.64891
6.63273
6.61343
6.58539
6.53905
6.46807
6.3696
6.23217
6.01228
5.64622
534.8
518.174
5.30558
5.60855
5.78333
5.8908
5.96986
6.03385
6.09415
6.1604
6.2277
6.29215
6.35081
6.40215
6.44618
6.48432
6.51931
6.55487
6.59053
6.62255
6.64896
6.66856
6.68068
6.68515
6.68221
6.67261
6.65768
6.6395
6.61146
6.5643
6.49205
6.392
6.2524
6.02917
5.65795
534.872
518.179
5.30025
5.59501
5.76308
5.86536
5.94003
6.0011
6.06137
6.12931
6.19951
6.26748
6.32997
6.38532
6.43358
6.47628
6.51635
6.55731
6.59728
6.63278
6.66212
6.68423
6.69858
6.705
6.70381
6.69577
6.6822
6.6652
6.63721
6.58929
6.51582
6.41425
6.27254
6.04598
5.66959
534.946
518.184
5.29529
5.58151
5.74242
5.83893
5.90858
5.96634
6.02661
6.09646
6.16986
6.24164
6.30813
6.36759
6.42013
6.46747
6.51268
6.55883
6.60293
6.64183
6.67406
6.69872
6.71532
6.72377
6.72435
6.71786
6.70563
6.68993
6.6621
6.61349
6.53889
6.43585
6.29207
6.06223
5.68076
535.017
518.19
5.29081
5.56819
5.72145
5.81154
5.87535
5.92916
5.98925
6.06124
6.13827
6.21427
6.2851
6.34889
6.40588
6.45798
6.50848
6.55953
6.60755
6.64973
6.68482
6.71205
6.73099
6.74155
6.74407
6.73935
6.72888
6.71427
6.68658
6.63738
6.56174
6.45731
6.31151
6.07841
5.69182
535.091
518.197
5.28675
5.55504
5.70026
5.78327
5.84039
5.88959
5.94923
6.02342
6.10439
6.18499
6.26048
6.32888
6.39053
6.44759
6.50351
6.5592
6.61097
6.65633
6.69425
6.72405
6.74537
6.75812
6.76268
6.75988
6.75129
6.73767
6.71007
6.66028
6.58364
6.47789
6.33012
6.09381
5.70225
535.161
518.205
5.28317
5.54222
5.67903
5.75424
5.80369
5.84745
5.90624
5.98268
6.06787
6.15343
6.23391
6.30718
6.37373
6.43595
6.49738
6.55757
6.61301
6.66153
6.70232
6.73477
6.75856
6.77366
6.78042
6.77972
6.7732
6.76064
6.73318
6.68287
6.60533
6.49833
6.34865
6.10918
5.71258
535.235
518.212
5.28018
5.52988
5.65794
5.72473
5.76543
5.80286
5.86024
5.93894
6.02857
6.11936
6.20512
6.28351
6.35516
6.4227
6.48966
6.55426
6.61332
6.66502
6.7087
6.74386
6.77021
6.78772
6.79677
6.79826
6.79384
6.78235
6.75504
6.70424
6.62586
6.51767
6.36613
6.12357
5.72211
535.305
518.221
5.27784
5.51811
5.63704
5.69468
5.72576
5.75586
5.81132
5.89214
5.98633
6.08259
6.17388
6.25764
6.33462
6.4077
6.48014
6.54908
6.61179
6.66674
6.71342
6.75142
6.78047
6.80057
6.8121
6.81595
6.81379
6.8035
6.77644
6.72528
6.64616
6.53687
6.38355
6.13794
5.73154
535.378
518.229
5.27634
5.50713
5.61658
5.66429
5.68454
5.7064
5.75931
5.84211
5.94099
6.04295
6.14001
6.22938
6.31192
6.39075
6.4685
6.54171
6.60807
6.66631
6.71607
6.75699
6.78885
6.81163
6.82571
6.83199
6.83213
6.82307
6.79632
6.74485
6.66506
6.55475
6.39972
6.15114
5.74001
535.446
518.239
5.27574
5.49704
5.59673
5.63379
5.64204
5.65454
5.70411
5.78866
5.89235
6.00024
6.10334
6.19856
6.28691
6.3717
6.45461
6.53205
6.60211
6.66376
6.71674
6.76076
6.7956
6.82127
6.83811
6.84701
6.84962
6.84194
6.81563
6.76399
6.68366
6.57244
6.41579
6.1643
5.74838
535.519
518.249
5.27598
5.4879
5.57768
5.60344
5.59849
5.60034
5.64573
5.73159
5.8401
5.95413
6.06348
6.16478
6.25912
6.35003
6.438
6.51967
6.59349
6.65863
6.71494
6.76217
6.80011
6.82876
6.84845
6.86005
6.86517
6.85892
6.83313
6.78142
6.70066
6.58861
6.43044
6.17616
5.75564
535.585
518.26
5.27707
5.47985
5.55969
5.57364
5.55437
5.54417
5.58412
5.67066
5.78394
5.90426
6.0201
6.12769
6.22822
6.32537
6.41845
6.50445
6.58219
6.65102
6.71087
6.76152
6.80277
6.83462
6.85737
6.87186
6.87968
6.87503
6.84993
6.7983
6.71725
6.60451
6.44492
6.18792
5.7628
535.657
518.271
5.27891
5.47291
5.54294
5.54473
5.51015
5.48644
5.51962
5.60612
5.72371
5.85029
5.97275
6.0868
6.19368
6.29714
6.39538
6.48586
6.56769
6.64038
6.70393
6.75816
6.80287
6.83804
6.86397
6.88145
6.892
6.889
6.86468
6.81326
6.73205
6.61875
6.45786
6.19828
5.76877
535.721
518.283
5.28162
5.46728
5.52765
5.51703
5.46634
5.42794
5.45262
5.53789
5.65938
5.79217
5.92137
6.04204
6.15543
6.26526
6.3688
6.46395
6.55012
6.62692
6.69444
6.75249
6.8009
6.83963
6.86892
6.88955
6.90305
6.90193
6.87858
6.82754
6.74633
6.6326
6.47054
6.20849
5.77459
535.792
518.295
5.2853
5.46303
5.51393
5.49068
5.42308
5.36872
5.38344
5.46636
5.59114
5.72991
5.86585
5.99323
6.11325
6.22939
6.3383
6.43828
6.52896
6.61007
6.68173
6.74379
6.79606
6.83849
6.87134
6.8954
6.91169
6.91246
6.89021
6.8397
6.75865
6.64464
6.48155
6.21718
5.77913
535.854
518.307
5.29016
5.46034
5.50193
5.46588
5.38066
5.30915
5.3126
5.39212
5.51952
5.66396
5.80653
5.94065
6.06736
6.18976
6.30413
6.40914
6.50459
6.59029