/*--------------------------------*- C++ -*----------------------------------*\
| =========                 |                                                 |
| \\      /  F ield         | OpenFOAM: The Open Source CFD Toolbox           |
|  \\    /   O peration     | Version:  v1906                                 |
|   \\  /    A nd           | Web:      www.OpenFOAM.com                      |
|    \\/     M anipulation  |                                                 |
\*---------------------------------------------------------------------------*/
FoamFile
{
    version     2.0;
    format      ascii;
    class       surfaceScalarField;
    location    "73";
    object      phi;
}
// * * * * * * * * * * * * * * * * * * * * * * * * * * * * * * * * * * * * * //

dimensions      [1 0 -1 0 0 0 0];
oriented        oriented;


internalField   nonuniform List<scalar> 
228225
(
9.81414e-08
-1.45391e-07
5.65807e-08
2.80094e-07
-3.28979e-07
1.46876e-07
5.60633e-07
-4.90689e-07
2.09928e-07
9.6635e-07
-6.55058e-07
2.49103e-07
1.51387e-06
-8.18594e-07
2.70852e-07
2.2018e-06
-9.69796e-07
2.81692e-07
3.01408e-06
-1.09872e-06
2.86308e-07
3.92614e-06
-1.19965e-06
2.87499e-07
4.90977e-06
-1.27042e-06
2.86736e-07
5.93616e-06
-1.31111e-06
2.84709e-07
6.97743e-06
-1.32293e-06
2.81693e-07
8.00737e-06
-1.30765e-06
2.77757e-07
9.002e-06
-1.2674e-06
2.72873e-07
9.93923e-06
-1.20411e-06
2.67006e-07
1.0799e-05
-1.11974e-06
2.60095e-07
1.15636e-05
-1.01651e-06
2.52103e-07
1.22174e-05
-8.96593e-07
2.43032e-07
1.27469e-05
-7.62097e-07
2.32919e-07
1.31407e-05
-6.15345e-07
2.2185e-07
1.33901e-05
-4.58996e-07
2.09956e-07
1.34893e-05
-2.96205e-07
1.97423e-07
1.34365e-05
-1.31296e-07
1.8448e-07
1.32332e-05
3.23355e-08
1.714e-07
1.28657e-05
2.09491e-07
1.58518e-07
1.23451e-05
3.74898e-07
1.46214e-07
1.16796e-05
5.31088e-07
1.34858e-07
1.0879e-05
6.764e-07
1.24787e-07
9.95302e-06
8.10132e-07
1.1628e-07
8.90999e-06
9.33942e-07
1.0953e-07
7.75126e-06
1.05454e-06
1.04581e-07
6.45778e-06
1.19264e-06
1.01157e-07
4.96938e-06
1.39069e-06
9.78873e-08
3.2131e-06
1.66586e-06
9.02935e-08
1.30397e-06
1.83854e-06
6.97902e-08
1.27244e-06
2.96993e-08
1.1116e-07
-3.06771e-07
5.01467e-08
4.18653e-07
-7.61012e-07
1.2448e-07
8.9354e-07
-1.13999e-06
1.74285e-07
1.51154e-06
-1.47929e-06
2.06037e-07
2.24348e-06
-1.77594e-06
2.25152e-07
3.05665e-06
-2.01941e-06
2.36137e-07
3.91922e-06
-2.20385e-06
2.42223e-07
4.8032e-06
-2.32944e-06
2.45449e-07
5.68527e-06
-2.39984e-06
2.46987e-07
6.54628e-06
-2.41994e-06
2.47459e-07
7.37043e-06
-2.3946e-06
2.47168e-07
8.14434e-06
-2.32809e-06
2.46214e-07
8.85622e-06
-2.22412e-06
2.44526e-07
9.49588e-06
-2.08612e-06
2.42072e-07
1.00539e-05
-1.91683e-06
2.38826e-07
1.05218e-05
-1.71935e-06
2.34682e-07
1.08926e-05
-1.49705e-06
2.2954e-07
1.11596e-05
-1.25253e-06
2.233e-07
1.13164e-05
-9.88036e-07
2.15869e-07
1.13571e-05
-7.06854e-07
2.07139e-07
1.1277e-05
-4.13034e-07
1.97039e-07
1.10717e-05
-1.11373e-07
1.85558e-07
1.07389e-05
1.9256e-07
1.72796e-07
1.02972e-05
4.92515e-07
1.59015e-07
9.74616e-06
7.81727e-07
1.4453e-07
9.09367e-06
1.05417e-06
1.2983e-07
8.34946e-06
1.30555e-06
1.15494e-07
7.5218e-06
1.53596e-06
1.02275e-07
6.61297e-06
1.75225e-06
9.09329e-08
5.61258e-06
1.97337e-06
8.18951e-08
4.49205e-06
2.23828e-06
7.51115e-08
3.22309e-06
2.59033e-06
6.93177e-08
1.8604e-06
2.96735e-06
6.07835e-08
6.2801e-07
3.02576e-06
4.40697e-08
1.88161e-06
1.68128e-08
1.39601e-07
-4.9485e-07
4.85035e-08
5.62715e-07
-1.29706e-06
1.12934e-07
1.21661e-06
-1.94669e-06
1.52801e-07
2.02688e-06
-2.46616e-06
1.76588e-07
2.91931e-06
-2.85875e-06
1.90346e-07
3.83424e-06
-3.13273e-06
1.98342e-07
4.7312e-06
-3.30412e-06
2.03245e-07
5.58555e-06
-3.39041e-06
2.06552e-07
6.38286e-06
-3.40624e-06
2.09016e-07
7.11468e-06
-3.36281e-06
2.10978e-07
7.77582e-06
-3.26841e-06
2.12589e-07
8.36273e-06
-3.12909e-06
2.1401e-07
8.87231e-06
-2.94919e-06
2.15392e-07
9.30137e-06
-2.73202e-06
2.16751e-07
9.64677e-06
-2.48037e-06
2.18039e-07
9.90572e-06
-2.19753e-06
2.19137e-07
1.00759e-05
-1.88724e-06
2.19872e-07
1.01558e-05
-1.55265e-06
2.20146e-07
1.01443e-05
-1.19649e-06
2.19879e-07
1.00411e-05
-8.22404e-07
2.18741e-07
9.84651e-06
-4.34846e-07
2.16316e-07
9.56652e-06
-4.35056e-08
2.12116e-07
9.19013e-06
3.63376e-07
2.05624e-07
8.72472e-06
7.61572e-07
1.96445e-07
8.17577e-06
1.14645e-06
1.84381e-07
7.55065e-06
1.50993e-06
1.69564e-07
6.85765e-06
1.84624e-06
1.52544e-07
6.10332e-06
2.15627e-06
1.3428e-07
5.28745e-06
2.45239e-06
1.1596e-07
4.39823e-06
2.76409e-06
9.86739e-08
3.41659e-06
3.13697e-06
8.29861e-08
2.34962e-06
3.58857e-06
6.85285e-08
1.29158e-06
3.97093e-06
5.3833e-08
4.08047e-07
3.87154e-06
3.64712e-08
2.27322e-06
1.4303e-08
1.82354e-07
-7.23464e-07
4.63431e-08
6.5512e-07
-1.87054e-06
1.00741e-07
1.327e-06
-2.7484e-06
1.29885e-07
2.10334e-06
-3.38719e-06
1.4477e-07
2.90463e-06
-3.81203e-06
1.52058e-07
3.68207e-06
-4.06563e-06
1.55515e-07
4.41417e-06
-4.19314e-06
1.56967e-07
5.09445e-06
-4.22784e-06
1.57206e-07
5.72138e-06
-4.18967e-06
1.56552e-07
6.29382e-06
-4.09041e-06
1.55211e-07
6.81e-06
-3.93804e-06
1.53504e-07
7.26769e-06
-3.73847e-06
1.51753e-07
7.66387e-06
-3.4956e-06
1.50293e-07
7.99399e-06
-3.21155e-06
1.49479e-07
8.25315e-06
-2.88912e-06
1.49655e-07
8.43682e-06
-2.53221e-06
1.51065e-07
8.54148e-06
-2.14569e-06
1.53853e-07
8.56587e-06
-1.73502e-06
1.58034e-07
8.51152e-06
-1.3056e-06
1.63503e-07
8.38153e-06
-8.62335e-07
1.69975e-07
8.17919e-06
-4.094e-07
1.76953e-07
7.90257e-06
4.94756e-08
1.83708e-07
7.56633e-06
5.10386e-07
1.89297e-07
7.16788e-06
9.67554e-07
1.9256e-07
6.70829e-06
1.41379e-06
1.92345e-07
6.18944e-06
1.84112e-06
1.87781e-07
5.61325e-06
2.24399e-06
1.78572e-07
4.97968e-06
2.62482e-06
1.65146e-07
4.28347e-06
3.00023e-06
1.48489e-07
3.51352e-06
3.40444e-06
1.29657e-07
2.66423e-06
3.87682e-06
1.09379e-07
1.76964e-06
4.3946e-06
8.82501e-08
9.29819e-07
4.74285e-06
6.71959e-08
2.70709e-07
4.4839e-06
4.54578e-08
2.52285e-06
1.89445e-08
1.68157e-07
-9.26132e-07
3.454e-08
5.82112e-07
-2.3558e-06
7.13524e-08
1.13884e-06
-3.39527e-06
9.01843e-08
1.74957e-06
-4.09806e-06
1.0018e-07
2.35441e-06
-4.52225e-06
1.05405e-07
2.9287e-06
-4.74724e-06
1.07327e-07
3.46946e-06
-4.84025e-06
1.06346e-07
3.97997e-06
-4.84116e-06
1.028e-07
4.46188e-06
-4.76883e-06
9.72335e-08
4.91443e-06
-4.63329e-06
9.03205e-08
5.33466e-06
-4.44102e-06
8.27436e-08
5.71667e-06
-4.19557e-06
7.50836e-08
6.05246e-06
-3.89935e-06
6.79537e-08
6.33333e-06
-3.5544e-06
6.1973e-08
6.55184e-06
-3.16533e-06
5.76933e-08
6.70291e-06
-2.7389e-06
5.56142e-08
6.78452e-06
-2.28343e-06
5.61382e-08
6.79761e-06
-1.80761e-06
5.95221e-08
6.74551e-06
-1.31938e-06
6.59068e-08
6.63311e-06
-8.25151e-07
7.52422e-08
6.46587e-06
-3.29385e-07
8.72538e-08
6.24897e-06
1.65004e-07
1.0142e-07
5.98742e-06
6.55106e-07
1.16877e-07
5.68323e-06
1.13945e-06
1.32353e-07
5.33664e-06
1.61424e-06
1.46209e-07
4.94581e-06
2.07536e-06
1.56669e-07
4.50659e-06
2.52107e-06
1.62219e-07
4.01178e-06
2.95772e-06
1.61978e-07
3.45062e-06
3.4057e-06
1.55731e-07
2.81222e-06
3.89926e-06
1.43571e-07
2.10087e-06
4.46226e-06
1.2578e-07
1.36501e-06
5.02656e-06
1.03539e-07
6.95044e-07
5.33262e-06
7.94515e-08
1.91043e-07
4.93295e-06
5.36703e-08
2.69017e-06
2.16328e-08
1.46203e-07
-1.09935e-06
2.7011e-08
4.90588e-07
-2.75809e-06
5.79588e-08
9.41909e-07
-3.923e-06
7.64659e-08
1.42998e-06
-4.67429e-06
8.82116e-08
1.91405e-06
-5.10133e-06
9.50506e-08
2.38122e-06
-5.31194e-06
9.7549e-08
2.83123e-06
-5.38627e-06
9.604e-08
3.26489e-06
-5.36585e-06
9.10537e-08
3.68126e-06
-5.26839e-06
8.32249e-08
4.07835e-06
-5.10361e-06
7.32701e-08
4.45133e-06
-4.8758e-06
6.18396e-08
4.79178e-06
-4.58553e-06
4.9553e-08
5.08986e-06
-4.23443e-06
3.70381e-08
5.33702e-06
-3.82654e-06
2.50122e-08
5.52692e-06
-3.36936e-06
1.41661e-08
5.65635e-06
-2.87335e-06
5.065e-09
5.72479e-06
-2.35053e-06
-1.31043e-09
5.73383e-06
-1.81282e-06
-3.79614e-09
5.68831e-06
-1.27059e-06
-3.22847e-09
5.59424e-06
-7.31782e-07
7.34526e-10
5.4567e-06
-2.01561e-07
9.75385e-09
5.28202e-06
3.17597e-07
2.21192e-08
5.07419e-06
8.25004e-07
3.79667e-08
4.83592e-06
1.32113e-06
5.6622e-08
4.56655e-06
1.8069e-06
7.67543e-08
4.26154e-06
2.28386e-06
9.65392e-08
3.91218e-06
2.75653e-06
1.13933e-07
3.50591e-06
3.23701e-06
1.26999e-07
3.02832e-06
3.74925e-06
1.34023e-07
2.46994e-06
4.3241e-06
1.33476e-07
1.84265e-06
4.9651e-06
1.24251e-07
1.20047e-06
5.56171e-06
1.06618e-07
6.17508e-07
5.83152e-06
8.33033e-08
1.76612e-07
5.317e-06
5.55825e-08
2.84395e-06
2.07748e-08
1.22599e-07
-1.24181e-06
1.98998e-08
4.04588e-07
-3.08416e-06
4.41222e-08
7.70392e-07
-4.34888e-06
6.01105e-08
1.1667e-06
-5.14165e-06
7.10834e-08
1.56355e-06
-5.5759e-06
7.7733e-08
1.95166e-06
-5.78034e-06
8.03079e-08
2.33016e-06
-5.84393e-06
7.91676e-08
2.69865e-06
-5.80918e-06
7.48634e-08
3.0558e-06
-5.69354e-06
6.80151e-08
3.39799e-06
-5.50488e-06
5.90895e-08
3.719e-06
-5.24523e-06
4.84367e-08
4.01174e-06
-4.91466e-06
3.64177e-08
4.26869e-06
-4.51482e-06
2.34634e-08
4.48313e-06
-4.05113e-06
1.01677e-08
4.64996e-06
-3.53355e-06
-2.61328e-09
4.76577e-06
-2.97544e-06
-1.36897e-08
4.83038e-06
-2.39167e-06
-2.34448e-08
4.84537e-06
-1.79683e-06
-3.09488e-08
4.81396e-06
-1.20362e-06
-3.5521e-08
4.74059e-06
-6.21794e-07
-3.65765e-08
4.62944e-06
-5.67387e-08
-3.36378e-08
4.48836e-06
4.85093e-07
-2.63807e-08
4.32122e-06
1.00685e-06
-1.46687e-08
4.1305e-06
1.51047e-06
1.40708e-09
3.91538e-06
2.00098e-06
2.10656e-08
3.67032e-06
2.48585e-06
4.31e-08
3.38475e-06
2.97652e-06
6.55893e-08
3.04386e-06
3.49162e-06
8.6293e-08
2.63208e-06
4.05834e-06
1.02661e-07
2.14193e-06
4.70231e-06
1.11849e-07
1.58978e-06
5.40582e-06
1.11217e-07
1.02906e-06
6.02233e-06
9.96612e-08
5.22722e-07
6.25791e-06
7.91792e-08
1.47501e-07
5.63906e-06
5.1934e-08
2.97144e-06
1.79896e-08
9.49114e-08
-1.35359e-06
1.69235e-08
3.21885e-07
-3.35206e-06
4.09361e-08
6.25567e-07
-4.71157e-06
5.90369e-08
9.63467e-07
-5.55195e-06
7.24249e-08
1.31e-06
-6.0034e-06
8.09881e-08
1.65533e-06
-6.21051e-06
8.48558e-08
1.99662e-06
-6.26976e-06
8.45548e-08
2.33207e-06
-6.22546e-06
8.08334e-08
2.65931e-06
-6.09524e-06
7.44663e-08
2.97387e-06
-5.88537e-06
6.59507e-08
3.26989e-06
-5.59682e-06
5.55941e-08
3.5409e-06
-5.22929e-06
4.36404e-08
3.78051e-06
-4.78485e-06
3.04483e-08
3.98329e-06
-4.27043e-06
1.65394e-08
4.14525e-06
-3.69793e-06
2.44348e-09
4.26363e-06
-3.08283e-06
-1.09661e-08
4.33755e-06
-2.44211e-06
-2.34465e-08
4.36761e-06
-1.79247e-06
-3.43968e-08
4.35588e-06
-1.14858e-06
-4.32753e-08
4.30565e-06
-5.22109e-07
-4.94184e-08
4.22248e-06
7.86138e-08
-5.2157e-08
4.10881e-06
6.49672e-07
-5.0875e-08
3.97039e-06
1.19038e-06
-4.5068e-08
3.80999e-06
1.70525e-06
-3.43599e-08
3.6267e-06
2.20295e-06
-1.86464e-08
3.41444e-06
2.69638e-06
1.75205e-09
3.16267e-06
3.20364e-06
2.46569e-08
2.85571e-06
3.74963e-06
4.89326e-08
2.47818e-06
4.36444e-06
7.13746e-08
2.02416e-06
5.06808e-06
8.81323e-08
1.51144e-06
5.82315e-06
9.51307e-08
9.89618e-07
6.45393e-06
8.9746e-08
5.12889e-07
6.66093e-06
7.29291e-08
1.51961e-07
5.95134e-06
4.74095e-08
3.1058e-06
1.55936e-08
9.0754e-08
-1.45918e-06
1.48716e-08
3.02166e-07
-3.60109e-06
3.76608e-08
5.82573e-07
-5.04737e-06
5.54183e-08
8.94182e-07
-5.93224e-06
6.87122e-08
1.21377e-06
-6.40049e-06
7.75161e-08
1.53208e-06
-6.61095e-06
8.21376e-08
1.84604e-06
-6.66685e-06
8.31346e-08
2.15346e-06
-6.61402e-06
8.11539e-08
2.45149e-06
-6.47001e-06
7.67577e-08
2.73618e-06
-6.2404e-06
7.03516e-08
3.00269e-06
-5.92544e-06
6.21272e-08
3.24573e-06
-5.52451e-06
5.22032e-08
3.46033e-06
-5.04023e-06
4.08058e-08
3.64235e-06
-4.4807e-06
2.82804e-08
3.7887e-06
-3.85933e-06
1.50825e-08
3.89707e-06
-3.19309e-06
1.92964e-09
3.96679e-06
-2.50043e-06
-1.13593e-08
3.99762e-06
-1.79952e-06
-2.37359e-08
3.99072e-06
-1.10671e-06
-3.49219e-08
3.94837e-06
-4.35351e-07
-4.43686e-08
3.87389e-06
2.04535e-07
-5.13982e-08
3.77215e-06
8.06732e-07
-5.52846e-08
3.6474e-06
1.37049e-06
-5.53179e-08
3.50255e-06
1.90098e-06
-5.0845e-08
3.33713e-06
2.40962e-06
-4.12294e-08
3.14573e-06
2.91391e-06
-2.61085e-08
2.9171e-06
3.43784e-06
-5.56617e-09
2.6368e-06
4.01196e-06
1.79454e-08
2.28986e-06
4.66878e-06
4.25257e-08
1.87113e-06
5.42283e-06
6.38429e-08
1.39803e-06
6.21936e-06
7.6628e-08
9.15739e-07
6.85894e-06
7.68017e-08
4.73381e-07
7.03841e-06
6.4108e-08
1.3984e-07
6.24222e-06
4.14323e-08
3.2307e-06
1.29553e-08
7.74441e-08
-1.55158e-06
1.49595e-08
2.66973e-07
-3.82956e-06
3.8972e-08
5.24697e-07
-5.36315e-06
5.80947e-08
8.15127e-07
-6.29515e-06
7.25063e-08
1.11581e-06
-6.78323e-06
8.20711e-08
1.41709e-06
-6.99937e-06
8.71662e-08
1.71517e-06
-7.05348e-06
8.8567e-08
2.00733e-06
-6.99331e-06
8.71444e-08
2.2903e-06
-6.83655e-06
8.35827e-08
2.56e-06
-6.58838e-06
7.83113e-08
2.81172e-06
-6.24863e-06
7.14887e-08
3.04076e-06
-5.81669e-06
6.31687e-08
3.2429e-06
-5.29583e-06
5.3481e-08
3.41487e-06
-4.69526e-06
4.26153e-08
3.55434e-06
-4.02959e-06
3.0822e-08
3.65976e-06
-3.31693e-06
1.84497e-08
3.73009e-06
-2.57673e-06
6.01092e-09
3.76514e-06
-1.82813e-06
-6.40634e-09
3.7655e-06
-1.08858e-06
-1.84534e-08
3.73252e-06
-3.72837e-07
-2.94951e-08
3.66871e-06
3.07378e-07
-3.8994e-08
3.57747e-06
9.4428e-07
-4.62747e-08
3.46267e-06
1.53592e-06
-5.05979e-08
3.32703e-06
2.08787e-06
-5.12243e-08
3.17053e-06
2.61349e-06
-4.73407e-08
2.98865e-06
3.13389e-06
-3.80923e-08
2.77157e-06
3.67785e-06
-2.293e-08
2.50456e-06
4.28061e-06
-1.66291e-09
2.17546e-06
4.97651e-06
2.13036e-08
1.77931e-06
5.77482e-06
4.40106e-08
1.33255e-06
6.60562e-06
6.02154e-08
8.76177e-07
7.25019e-06
6.46406e-08
4.55196e-07
7.4028e-06
5.58255e-08
1.3583e-07
6.52398e-06
3.63936e-08
3.3533e-06
1.12436e-08
8.00276e-08
-1.64632e-06
1.47408e-08
2.68176e-07
-4.05658e-06
3.88937e-08
5.18943e-07
-5.67199e-06
5.80901e-08
7.98033e-07
-6.64672e-06
7.24907e-08
1.08441e-06
-7.15175e-06
8.21605e-08
1.36954e-06
-7.37207e-06
8.75848e-08
1.65021e-06
-7.42368e-06
8.95361e-08
1.92395e-06
-7.35588e-06
8.88484e-08
2.1877e-06
-7.18646e-06
8.61822e-08
2.43763e-06
-6.92026e-06
8.1965e-08
2.66944e-06
-6.5568e-06
7.63778e-08
2.87893e-06
-6.09565e-06
6.94902e-08
3.06254e-06
-5.54081e-06
6.13989e-08
3.21767e-06
-4.90256e-06
5.22148e-08
3.34265e-06
-4.19662e-06
4.20812e-08
3.43656e-06
-3.442e-06
3.12003e-08
3.49894e-06
-2.65892e-06
1.9858e-08
3.52958e-06
-1.86718e-06
8.44748e-09
3.52871e-06
-1.08488e-06
-2.79188e-09
3.49786e-06
-3.27699e-07
-1.42386e-08
3.43863e-06
3.91299e-07
-2.46594e-08
3.35376e-06
1.06285e-06
-3.36536e-08
3.24617e-06
1.68411e-06
-4.05614e-08
3.11805e-06
2.26071e-06
-4.46756e-08
2.96936e-06
2.80739e-06
-4.5174e-08
2.79628e-06
3.34801e-06
-4.10252e-08
2.5902e-06
3.91512e-06
-3.11973e-08
2.33839e-06
4.54755e-06
-1.51545e-08
2.02819e-06
5.2807e-06
5.9341e-09
1.65679e-06
6.11861e-06
2.74582e-08
1.2393e-06
6.97782e-06
4.50108e-08
8.13111e-07
7.6235e-06
5.24029e-08
4.19998e-07
7.74809e-06
4.70575e-08
1.23972e-07
6.78777e-06
3.10251e-08
3.46587e-06
9.4475e-09
7.44573e-08
-1.73626e-06
1.55263e-08
2.53793e-07
-4.27662e-06
4.07313e-08
4.94536e-07
-5.97323e-06
6.05188e-08
7.62471e-07
-6.98984e-06
7.52043e-08
1.03705e-06
-7.51131e-06
8.49994e-08
1.31006e-06
-7.73559e-06
9.05247e-08
1.57827e-06
-7.78455e-06
9.26768e-08
1.83913e-06
-7.70908e-06
9.23632e-08
2.08953e-06
-7.52711e-06
9.02619e-08
2.32575e-06
-7.24324e-06
8.67959e-08
2.54375e-06
-6.85693e-06
8.21449e-08
2.7398e-06
-6.36803e-06
7.6372e-08
2.91086e-06
-5.78139e-06
6.95434e-08
3.05489e-06
-5.10828e-06
6.17175e-08
3.17069e-06
-4.36536e-06
5.29633e-08
3.2577e-06
-3.57236e-06
4.33894e-08
3.31569e-06
-2.75005e-06
3.31719e-08
3.34465e-06
-1.91866e-06
2.25579e-08
3.34475e-06
-1.09677e-06
1.18251e-08
3.31627e-06
-3.00702e-07
1.51936e-09
3.26137e-06
4.55515e-07
-9.26776e-09
3.18177e-06
1.16144e-06
-1.8959e-08
3.07966e-06
1.81346e-06
-2.71996e-08
2.95663e-06
2.41722e-06
-3.34421e-08
2.8125e-06
2.98851e-06
-3.69698e-08
2.644e-06
3.55331e-06
-3.67754e-08
2.44378e-06
4.147e-06
-3.16549e-08
2.20091e-06
4.81099e-06
-2.06029e-08
1.90414e-06
5.5808e-06
-3.40415e-09
1.55191e-06
6.45511e-06
1.55707e-08
1.15881e-06
7.33804e-06
3.26031e-08
7.58945e-07
7.98136e-06
4.15356e-08
3.90691e-07
8.07668e-06
3.8918e-08
1.14773e-07
7.03645e-06
2.60457e-08
3.57083e-06
7.87035e-09
7.61477e-08
-1.82819e-06
1.58122e-08
2.53456e-07
-4.49522e-06
4.13114e-08
4.86964e-07
-6.2678e-06
6.10799e-08
7.43449e-07
-7.32191e-06
7.56101e-08
1.00389e-06
-7.85704e-06
8.52946e-08
1.26133e-06
-8.08385e-06
9.08362e-08
1.51317e-06
-8.12953e-06
9.31515e-08
1.75713e-06
-8.04617e-06
9.31493e-08
1.99033e-06
-7.85179e-06
9.15039e-08
2.20926e-06
-7.55079e-06
8.86409e-08
2.41024e-06
-7.14263e-06
8.47567e-08
2.58996e-06
-6.62766e-06
7.99289e-08
2.74593e-06
-6.01154e-06
7.42178e-08
2.87658e-06
-5.30655e-06
6.76552e-08
2.98115e-06
-4.53015e-06
6.02572e-08
3.05939e-06
-3.70262e-06
5.20543e-08
3.11131e-06
-2.84506e-06
4.31249e-08
3.13704e-06
-1.97796e-06
3.36125e-08
3.13676e-06
-1.12015e-06
2.36996e-08
3.11086e-06
-2.88392e-07
1.36353e-08
3.06007e-06
5.02491e-07
3.8447e-09
2.98613e-06
1.24125e-06
-5.82829e-09
2.89058e-06
1.92375e-06
-1.47019e-08
2.77429e-06
2.55567e-06
-2.21253e-08
2.63671e-06
3.15367e-06
-2.75393e-08
2.47472e-06
3.74539e-06
-3.00729e-08
2.28192e-06
4.36837e-06
-2.85619e-08
2.04905e-06
5.06564e-06
-2.18021e-08
1.76712e-06
5.87191e-06
-9.24382e-09
1.43486e-06
6.78017e-06
7.06098e-09
1.0674e-06
7.68289e-06
2.23568e-08
6.95941e-07
8.32065e-06
3.17187e-08
3.55505e-07
8.38526e-06
3.11256e-08
1.0315e-07
7.26652e-06
2.11189e-08
3.66581e-06
6.26291e-09
7.25152e-08
-1.91723e-06
1.65438e-08
2.43063e-07
-4.7084e-06
4.26553e-08
4.67716e-07
-6.55493e-06
6.24993e-08
7.13508e-07
-7.64456e-06
7.68787e-08
9.62111e-07
-8.19203e-06
8.64074e-08
1.20705e-06
-8.42069e-06
9.19148e-08
1.44591e-06
-8.46272e-06
9.43611e-08
1.67645e-06
-8.37134e-06
9.46507e-08
1.89588e-06
-8.16464e-06
9.34376e-08
2.10091e-06
-7.84693e-06
9.11341e-08
2.28825e-06
-7.41788e-06
8.79384e-08
2.45508e-06
-6.87839e-06
8.39317e-08
2.59943e-06
-6.23503e-06
7.9166e-08
2.72019e-06
-5.50094e-06
7.36541e-08
2.81692e-06
-4.69422e-06
6.73803e-08
2.88952e-06
-3.83551e-06
6.03282e-08
2.93804e-06
-2.94606e-06
5.2514e-08
2.96251e-06
-2.04641e-06
4.40104e-08
2.96298e-06
-1.15552e-06
3.49378e-08
2.93963e-06
-2.90478e-07
2.54818e-08
2.89295e-06
5.33299e-07
1.59115e-08
2.82382e-06
1.30383e-06
6.58114e-09
2.73318e-06
2.01661e-06
-2.18189e-09
2.62187e-06
2.67747e-06
-1.04567e-08
2.4889e-06
3.30381e-06
-1.7124e-08
2.33126e-06
3.92465e-06
-2.15913e-08
2.14336e-06
4.57913e-06
-2.28389e-08
1.91753e-06
5.31112e-06
-1.96584e-08
1.64689e-06
6.15373e-06
-1.12239e-08
1.33121e-06
7.09385e-06
1.87411e-09
9.86292e-07
8.01296e-06
1.4617e-08
6.40557e-07
8.64246e-06
2.35065e-08
3.25473e-07
8.67543e-06
2.42274e-08
9.3829e-08
7.48036e-06
1.66685e-08
3.75293e-06
4.84154e-09
7.23262e-08
-2.00643e-06
1.6908e-08
2.38543e-07
-4.91773e-06
4.31407e-08
4.54433e-07
-6.83353e-06
6.27327e-08
6.88174e-07
-7.95505e-06
7.67593e-08
9.22843e-07
-8.5127e-06
8.60186e-08
1.15295e-06
-8.74219e-06
9.14145e-08
1.37652e-06
-8.7802e-06
9.39238e-08
1.59153e-06
-8.68077e-06
9.44417e-08
1.79537e-06
-8.46205e-06
9.36046e-08
1.98501e-06
-8.12836e-06
9.18154e-08
2.15753e-06
-7.67965e-06
8.92778e-08
2.31061e-06
-7.11751e-06
8.60768e-08
2.44275e-06
-6.4494e-06
8.22585e-08
2.5533e-06
-5.68927e-06
7.78178e-08
2.6421e-06
-4.8557e-06
7.27055e-08
2.70928e-06
-3.9695e-06
6.68549e-08
2.7549e-06
-3.05186e-06
6.02176e-08
2.77891e-06
-2.12317e-06
5.27944e-08
2.78112e-06
-1.20233e-06
4.46429e-08
2.76135e-06
-3.06572e-07
3.58976e-08
2.71971e-06
5.48194e-07
2.67816e-08
2.65664e-06
1.34936e-06
1.75814e-08
2.5726e-06
2.09205e-06
8.6392e-09
2.46729e-06
2.78225e-06
5.68733e-10
2.3402e-06
3.43809e-06
-7.1461e-09
2.18813e-06
4.08972e-06
-1.29725e-08
2.00611e-06
4.77742e-06
-1.62518e-08
1.78784e-06
5.54528e-06
-1.58951e-08
1.52841e-06
6.42409e-06
-1.0967e-08
1.22931e-06
7.39425e-06
-1.39637e-09
9.06336e-07
8.32686e-06
8.87201e-09
5.85774e-07
8.94592e-06
1.67183e-08
2.9568e-07
8.94668e-06
1.81857e-08
8.45035e-08
7.67777e-06
1.26722e-08
3.83205e-06
3.56822e-09
6.90684e-08
-2.09291e-06
1.74397e-08
2.28511e-07
-5.12101e-06
4.38522e-08
4.35285e-07
-7.10344e-06
6.31547e-08
6.58205e-07
-8.25472e-06
7.67698e-08
8.81123e-07
-8.82132e-06
8.57193e-08
1.09901e-06
-9.05107e-06
9.09992e-08
1.31004e-06
-9.08479e-06
9.35858e-08
1.51225e-06
-8.9773e-06
9.43419e-08
1.70318e-06
-8.74683e-06
9.38748e-08
1.88007e-06
-8.39779e-06
9.25725e-08
2.04036e-06
-7.93056e-06
9.06429e-08
2.1822e-06
-7.34748e-06
8.81744e-08
2.30455e-06
-6.65692e-06
8.52071e-08
2.40713e-06
-5.87353e-06
8.17253e-08
2.49007e-06
-5.01626e-06
7.76625e-08
2.5536e-06
-4.10591e-06
7.29206e-08
2.59777e-06
-3.1634e-06
6.74026e-08
2.62237e-06
-2.20877e-06
6.10466e-08
2.62692e-06
-1.26068e-06
5.38441e-08
2.61087e-06
-3.3635e-07
4.58667e-08
2.57385e-06
5.47966e-07
3.72847e-08
2.51584e-06
1.37906e-06
2.83511e-08
2.43692e-06
2.15163e-06
1.93744e-08
2.33676e-06
2.87174e-06
1.07052e-08
2.21397e-06
3.55812e-06
2.80533e-09
2.06582e-06
4.24189e-06
-3.99016e-09
1.88803e-06
4.96413e-06
-8.88581e-09
1.67554e-06
5.76861e-06
-1.08157e-08
1.42524e-06
6.68324e-06
-8.86734e-09
1.14053e-06
7.6817e-06
-2.80956e-09
8.36907e-07
8.62524e-06
5.07802e-09
5.38724e-07
9.23224e-06
1.15212e-08
2.70744e-07
9.20079e-06
1.32598e-08
7.70735e-08
7.86103e-06
9.36923e-09
3.90479e-06
2.56383e-09
6.77921e-08
-2.17839e-06
1.77151e-08
2.22074e-07
-5.31923e-06
4.3964e-08
4.20216e-07
-7.36432e-06
6.27598e-08
6.32107e-07
-8.54243e-06
7.5838e-08
8.42738e-07
-9.11634e-06
8.44043e-08
1.04778e-06
-9.3456e-06
8.95118e-08
1.24568e-06
-9.3748e-06
9.21287e-08
1.43464e-06
-9.25932e-06
9.30871e-08
1.61235e-06
-9.01748e-06
9.29654e-08
1.77632e-06
-8.65386e-06
9.21363e-08
1.92436e-06
-8.16937e-06
9.08093e-08
2.05501e-06
-7.56717e-06
8.90762e-08
2.16765e-06
-6.8565e-06
8.69704e-08
2.26236e-06
-6.05267e-06
8.44637e-08
2.33958e-06
-5.1749e-06
8.14684e-08
2.39972e-06
-4.24386e-06
7.78558e-08
2.44289e-06
-3.28002e-06
7.34853e-08
2.46876e-06
-2.30284e-06
6.8237e-08
2.47655e-06
-1.33048e-06
6.20391e-08
2.46528e-06
-3.79942e-07
5.49005e-08
2.434e-06
5.32344e-07
4.69375e-08
2.38208e-06
1.39264e-06
3.83706e-08
2.30912e-06
2.19513e-06
2.94972e-08
2.21444e-06
2.9458e-06
2.06565e-08
2.09659e-06
3.66378e-06
1.2227e-08
1.95292e-06
4.38092e-06
4.68599e-09
1.77958e-06
5.1388e-06
-1.28782e-09
1.57287e-06
5.98044e-06
-5.08151e-09
1.33126e-06
6.93046e-06
-5.59986e-09
1.05974e-06
7.95569e-06
-2.49581e-09
7.73912e-07
8.90805e-06
2.88652e-09
4.96172e-07
9.50191e-06
7.78215e-09
2.48324e-07
9.43864e-06
9.44301e-09
7.04146e-08
8.03117e-06
6.77882e-09
3.97167e-06
1.81776e-09
6.49242e-08
-2.26131e-06
1.80232e-08
2.13018e-07
-5.51135e-06
4.40542e-08
4.02799e-07
-7.61634e-06
6.22667e-08
6.04888e-07
-8.81924e-06
7.47438e-08
8.05011e-07
-9.39933e-06
8.28922e-08
9.99234e-07
-9.62762e-06
8.78163e-08
1.18612e-06
-9.65211e-06
9.04555e-08
1.36394e-06
-9.52871e-06
9.15971e-08
1.53056e-06
-9.27584e-06
9.1787e-08
1.6837e-06
-8.89836e-06
9.13826e-08
1.8215e-06
-8.39773e-06
9.05956e-08
1.94284e-06
-7.778e-06
8.95224e-08
2.04745e-06
-7.04927e-06
8.8194e-08
2.13573e-06
-6.22748e-06
8.65784e-08
2.20834e-06
-5.33205e-06
8.45787e-08
2.26588e-06
-4.38341e-06
8.2047e-08
2.30854e-06
-3.40145e-06
7.88084e-08
2.3359e-06
-2.40485e-06
7.46917e-08
2.34695e-06
-1.41105e-06
6.95599e-08
2.34028e-06
-4.36588e-07
6.3349e-08
2.31439e-06
5.02168e-07
5.6106e-08
2.26803e-06
1.39103e-06
4.80038e-08
2.20029e-06
2.22358e-06
3.93224e-08
2.11021e-06
3.00552e-06
3.04044e-08
1.99626e-06
3.75615e-06
2.1627e-08
1.85602e-06
4.50779e-06
1.34215e-08
1.68634e-06
5.30219e-06
6.33858e-09
1.48441e-06
6.1813e-06
1.11698e-09
1.25017e-06
7.16616e-06
-1.42931e-09
9.9e-07
8.21671e-06
-8.44609e-10
7.19755e-07
9.17611e-06
2.09604e-09
4.59853e-07
9.75613e-06
5.4287e-09
2.29482e-07
9.66175e-06
6.75187e-09
6.49654e-08
8.1898e-06
4.9404e-09
4.03362e-06
1.34892e-09
6.33403e-08
-2.34275e-06
1.81346e-08
2.06585e-07
-5.69826e-06
4.36833e-08
3.88904e-07
-7.85978e-06
6.11453e-08
5.8178e-07
-9.08502e-06
7.29269e-08
7.7181e-07
-9.66995e-06
8.06086e-08
9.55553e-07
-9.89666e-06
8.53219e-08
1.13176e-06
-9.91625e-06
8.79667e-08
1.29881e-06
-9.78502e-06
8.9281e-08
1.45473e-06
-9.5215e-06
8.97754e-08
1.59747e-06
-9.13084e-06
8.97894e-08
1.72542e-06
-8.61519e-06
8.95339e-08
1.83779e-06
-7.97943e-06
8.91078e-08
1.9346e-06
-7.23458e-06
8.85382e-08
2.01654e-06
-6.39717e-06
8.77876e-08
2.08458e-06
-5.4868e-06
8.67513e-08
2.13954e-06
-4.5236e-06
8.52678e-08
2.18173e-06
-3.52674e-06
8.31374e-08
2.21075e-06
-2.51398e-06
8.01498e-08
2.22539e-06
-1.50177e-06
7.61126e-08
2.22383e-06
-5.05886e-07
7.08937e-08
2.20393e-06
4.57628e-07
6.44667e-08
2.16377e-06
1.37428e-06
5.6944e-08
2.10184e-06
2.23698e-06
4.8573e-08
2.01679e-06
3.05092e-06
3.96915e-08
1.907e-06
3.8353e-06
3.06823e-08
1.7703e-06
4.62258e-06
2.1968e-08
1.60413e-06
5.45437e-06
1.40563e-08
1.40668e-06
6.37123e-06
7.59274e-09
1.1792e-06
7.3904e-06
3.31129e-09
9.29241e-07
8.46497e-06
1.73357e-09
6.72775e-07
9.42999e-06
2.54241e-09
4.28524e-07
9.99586e-06
4.32099e-09
2.13386e-07
9.8713e-06
5.12424e-09
6.03633e-08
8.33807e-06
3.84722e-09
4.09118e-06
1.17925e-09
6.10446e-08
-2.42198e-06
1.82126e-08
1.9921e-07
-5.87957e-06
4.31753e-08
3.746e-07
-8.09495e-06
5.97972e-08
5.59332e-07
-9.34055e-06
7.08215e-08
7.40627e-07
-9.92922e-06
7.80016e-08
9.15378e-07
-1.01539e-05
8.24815e-08
1.08244e-06
-1.01684e-05
8.51068e-08
1.24031e-06
-1.00294e-05
8.65612e-08
1.3871e-06
-9.75558e-06
8.7319e-08
1.52097e-06
-9.35238e-06
8.77025e-08
1.64053e-06
-8.82263e-06
8.79221e-08
1.7452e-06
-8.17214e-06
8.80805e-08
1.83526e-06
-7.4128e-06
8.82036e-08
1.91164e-06
-6.56177e-06
8.82538e-08
1.97556e-06
-5.6388e-06
8.81243e-08
2.02806e-06
-4.6637e-06
8.76463e-08
2.06965e-06
-3.65489e-06
8.66024e-08
2.09998e-06
-2.62902e-06
8.47492e-08
2.11776e-06
-1.60135e-06
8.18437e-08
2.12084e-06
-5.86618e-07
7.76856e-08
2.10653e-06
3.99801e-07
7.21696e-08
2.07221e-06
1.3433e-06
6.53354e-08
2.01577e-06
2.23607e-06
5.7384e-08
1.93545e-06
3.08263e-06
4.86392e-08
1.82954e-06
3.90178e-06
3.94895e-08
1.69606e-06
4.72576e-06
3.03617e-08
1.53304e-06
5.59572e-06
2.17441e-08
1.33958e-06
6.55055e-06
1.42309e-08
1.11807e-06
7.6035e-06
8.50204e-09
8.77028e-07
8.70095e-06
5.11766e-09
6.32514e-07
9.67043e-06
4.06201e-09
4.01777e-07
1.02221e-05
4.35021e-09
1.99751e-07
1.00684e-05
4.49289e-09
5.65125e-08
8.47701e-06
3.43852e-09
4.14484e-06
1.26224e-09
5.95437e-08
-2.49962e-06
1.8124e-08
1.93628e-07
-6.05591e-06
4.2275e-08
3.63011e-07
-8.32222e-06
5.79135e-08
5.40453e-07
-9.58607e-06
6.81031e-08
7.13795e-07
-1.01773e-05
7.47505e-08
8.80275e-07
-1.03993e-05
7.89897e-08
1.0389e-06
-1.04086e-05
8.15969e-08
1.18827e-06
-1.02619e-05
8.31938e-08
1.32664e-06
-9.97812e-06
8.42153e-08
1.45229e-06
-9.56295e-06
8.49634e-08
1.56401e-06
-9.01995e-06
8.56456e-08
1.66141e-06
-8.35587e-06
8.63667e-08
1.74501e-06
-7.5835e-06
8.71504e-08
1.81597e-06
-6.72064e-06
8.79581e-08
1.87576e-06
-5.78723e-06
8.86831e-08
1.92571e-06
-4.80276e-06
8.91543e-08
1.96652e-06
-3.78481e-06
8.91464e-08
1.99801e-06
-2.74886e-06
8.83951e-08
2.01882e-06
-1.70875e-06
8.66198e-08
2.02654e-06
-6.77871e-07
8.35611e-08
2.01794e-06
3.29394e-07
7.90358e-08
1.9897e-06
1.29858e-06
7.30022e-08
1.93901e-06
2.22119e-06
6.55988e-08
1.86367e-06
3.10089e-06
5.71191e-08
1.76179e-06
3.95576e-06
4.795e-08
1.63159e-06
4.81751e-06
3.85272e-08
1.47161e-06
5.72645e-06
2.93357e-08
1.2818e-06
6.71951e-06
2.09433e-08
1.06558e-06
7.80583e-06
1.39948e-08
8.32315e-07
8.92524e-06
9.07076e-09
5.98123e-07
9.89831e-06
6.33796e-09
3.78978e-07
1.04359e-05
5.18922e-09
1.88196e-07
1.02543e-05
4.5472e-09
5.32891e-08
8.60764e-06
3.45305e-09
4.19509e-06
1.47845e-09
5.78537e-08
-2.5754e-06
1.79555e-08
1.88046e-07
-6.22723e-06
4.116e-08
3.52056e-07
-8.54192e-06
5.57222e-08
5.23152e-07
-9.82216e-06
6.50209e-08
6.89632e-07
-1.04148e-05
7.11004e-08
8.48947e-07
-1.06337e-05
7.5067e-08
1.00027e-06
-1.06375e-05
7.7621e-08
1.14235e-06
-1.04833e-05
7.93213e-08
1.27349e-06
-1.01898e-05
8.05638e-08
1.39207e-06
-9.76311e-06
8.1631e-08
1.49697e-06
-9.20753e-06
8.27278e-08
1.58795e-06
-8.53077e-06
8.39618e-08
1.6657e-06
-7.74656e-06
8.53565e-08
1.73159e-06
-6.87336e-06
8.68745e-08
1.78731e-06
-5.93132e-06
8.84111e-08
1.83444e-06
-4.93964e-06
8.97958e-08
1.87397e-06
-3.9151e-06
9.07986e-08
1.90589e-06
-2.87189e-06
9.114e-08
1.92896e-06
-1.8223e-06
9.05077e-08
1.94062e-06
-7.78081e-07
8.85884e-08
1.93718e-06
2.47732e-07
8.51236e-08
1.91467e-06
1.24114e-06
7.99852e-08
1.8696e-06
2.19306e-06
7.32384e-08
1.79922e-06
3.10618e-06
6.51353e-08
1.70141e-06
3.99757e-06
5.60545e-08
1.5745e-06
4.89805e-06
4.64421e-08
1.41751e-06
5.84674e-06
3.67925e-08
1.23114e-06
6.87833e-06
2.76664e-08
1.0197e-06
7.99771e-06
1.96913e-08
7.93295e-07
9.1383e-06
1.34644e-08
5.68097e-07
1.01143e-05
9.27786e-09
3.5907e-07
1.0638e-05
6.79428e-09
1.78071e-07
1.04296e-05
5.29305e-09
5.04371e-08
8.73052e-06
3.94625e-09
4.24212e-06
1.86692e-09
5.65875e-08
-2.64959e-06
1.76352e-08
1.83506e-07
-6.39382e-06
3.96959e-08
3.42848e-07
-8.7543e-06
5.30633e-08
5.08418e-07
-1.00491e-05
6.14138e-08
6.68923e-07
-1.06422e-05
6.69097e-08
8.22099e-07
-1.08574e-05
7.06051e-08
9.67145e-07
-1.08556e-05
7.31065e-08
1.10281e-06
-1.06938e-05
7.49045e-08
1.22755e-06
-1.03908e-05
7.63559e-08
1.33976e-06
-9.95301e-06
7.77226e-08
1.43846e-06
-9.38539e-06
7.92062e-08
1.52352e-06
-8.6967e-06
8.0916e-08
1.59579e-06
-7.90166e-06
8.28746e-08
1.65684e-06
-7.0194e-06
8.50461e-08
1.70856e-06
-6.07033e-06
8.73301e-08
1.75275e-06
-5.07336e-06
8.95616e-08
1.79069e-06
-4.04451e-06
9.15134e-08
1.82261e-06
-2.99668e-06
9.2901e-08
1.84743e-06
-1.94047e-06
9.33915e-08
1.86252e-06
-8.85776e-07
9.26279e-08
1.8639e-06
1.56102e-07
9.0281e-08
1.84695e-06
1.17199e-06
8.61322e-08
1.80746e-06
2.15242e-06
8.01611e-08
1.7421e-06
3.09901e-06
7.25625e-08
1.64844e-06
4.0276e-06
6.36949e-08
1.52485e-06
4.9677e-06
5.40119e-08
1.37076e-06
5.95691e-06
4.40242e-08
1.18758e-06
7.02734e-06
3.43021e-08
9.80405e-07
8.17955e-06
2.54736e-08
7.59977e-07
9.34071e-06
1.81548e-08
5.42538e-07
1.03191e-05
1.27254e-08
3.42255e-07
1.08292e-05
9.03464e-09
1.69637e-07
1.05953e-05
6.64193e-09
4.80991e-08
8.84643e-06
4.8589e-09
4.2863e-06
2.39771e-09
5.5332e-08
-2.72211e-06
1.72156e-08
1.7927e-07
-6.55573e-06
3.7994e-08
3.34494e-07
-8.95958e-06
5.00845e-08
4.95309e-07