/*--------------------------------*- C++ -*----------------------------------*\
| =========                 |                                                 |
| \\      /  F ield         | OpenFOAM: The Open Source CFD Toolbox           |
|  \\    /   O peration     | Version:  v1906                                 |
|   \\  /    A nd           | Web:      www.OpenFOAM.com                      |
|    \\/     M anipulation  |                                                 |
\*---------------------------------------------------------------------------*/
FoamFile
{
    version     2.0;
    format      ascii;
    class       volVectorField;
    location    "73";
    object      U;
}
// * * * * * * * * * * * * * * * * * * * * * * * * * * * * * * * * * * * * * //

dimensions      [0 1 -1 0 0 0 0];


internalField   nonuniform List<vector> 
78750
(
(4.17459e-05 -0.00073381 0.00162769)
(0.000276224 -0.0016705 0.00421939)
(0.000646216 -0.00256202 0.00592187)
(0.00120736 -0.00354895 0.00685207)
(0.00199431 -0.00459224 0.00724975)
(0.00301859 -0.00560452 0.00733969)
(0.0042637 -0.00650912 0.00727555)
(0.00569427 -0.0072563 0.00714444)
(0.00726584 -0.00782105 0.00698959)
(0.00893118 -0.00819582 0.00683006)
(0.0106437 -0.00838369 0.00667292)
(0.0123592 -0.00839363 0.00651971)
(0.0140364 -0.00823693 0.00636964)
(0.0156368 -0.00792361 0.00622231)
(0.0171264 -0.00746888 0.00607605)
(0.0184738 -0.0068884 0.00592972)
(0.0196514 -0.0061975 0.00578281)
(0.0206349 -0.00541107 0.00563548)
(0.0214039 -0.00454412 0.0054884)
(0.0219414 -0.00361237 0.00534272)
(0.0222352 -0.00263239 0.00520005)
(0.0222781 -0.00162149 0.00506228)
(0.0220687 -0.000597714 0.00493142)
(0.021603 0.000417218 0.00481107)
(0.0208743 0.00140792 0.00470362)
(0.0198945 0.00236076 0.00461202)
(0.0186814 0.00326348 0.00453869)
(0.0172523 0.00410276 0.00448475)
(0.0156246 0.00487036 0.00445036)
(0.0138113 0.00557263 0.00443362)
(0.0118076 0.00628603 0.00442219)
(0.00954181 0.00728717 0.00435434)
(0.00683815 0.00893057 0.0040254)
(0.00372677 0.0103614 0.00305955)
(0.000902021 0.00742289 0.00123509)
(1.15467e-05 -0.00238129 0.00126727)
(0.000381082 -0.0056584 0.00305763)
(0.00102732 -0.00846508 0.00409481)
(0.00193382 -0.0112073 0.00463507)
(0.00305976 -0.0138549 0.00486726)
(0.00434815 -0.0162444 0.00492012)
(0.00574195 -0.018237 0.00487646)
(0.00719182 -0.0197593 0.00478469)
(0.00865641 -0.0207907 0.00467089)
(0.0101014 -0.0213408 0.00454825)
(0.011499 -0.021433 0.00442321)
(0.0128249 -0.0210976 0.00429783)
(0.0140541 -0.0203737 0.00416868)
(0.0151727 -0.0192963 0.00403659)
(0.0161678 -0.0178911 0.0039049)
(0.0170202 -0.0161897 0.00377313)
(0.0177174 -0.0142237 0.00364136)
(0.0182478 -0.0120252 0.00351029)
(0.0186016 -0.0096295 0.00338026)
(0.0187685 -0.00707658 0.00325135)
(0.0187392 -0.00441062 0.00312389)
(0.0185056 -0.00167968 0.00299892)
(0.0180623 0.00106528 0.00287935)
(0.0174211 0.00376865 0.0027711)
(0.0165975 0.00637871 0.00268005)
(0.0155982 0.00884973 0.00261338)
(0.0144423 0.0111414 0.00257566)
(0.0131446 0.0132471 0.00257509)
(0.0117098 0.0152105 0.00262189)
(0.0101437 0.0171697 0.00271694)
(0.00841508 0.0194815 0.00284888)
(0.0064396 0.0227145 0.00295127)
(0.00422214 0.0267036 0.00282096)
(0.00200016 0.028245 0.00216224)
(0.000222371 0.0184015 0.000852814)
(4.21175e-06 -0.00425483 0.00119957)
(0.000498233 -0.0109267 0.00281132)
(0.00140501 -0.0164804 0.00374316)
(0.00263483 -0.0212365 0.00424514)
(0.00406163 -0.0251602 0.00449614)
(0.00557101 -0.028179 0.00460979)
(0.00707804 -0.0302956 0.00465247)
(0.00853017 -0.0315817 0.00465895)
(0.00989802 -0.0321368 0.00464447)
(0.0111646 -0.0320581 0.00461398)
(0.0123148 -0.0314306 0.0045677)
(0.0133464 -0.0303188 0.00450972)
(0.014257 -0.0287629 0.00444642)
(0.0150359 -0.026802 0.00437857)
(0.0156782 -0.0244725 0.00430556)
(0.0161798 -0.0218136 0.00422607)
(0.0165355 -0.018869 0.00413814)
(0.016744 -0.0156642 0.00404677)
(0.0168031 -0.0122127 0.00395948)
(0.0167104 -0.00854732 0.00387678)
(0.0164661 -0.00471389 0.00379502)
(0.0160745 -0.000772261 0.0037068)
(0.0155336 0.00320421 0.00360235)
(0.0148389 0.00713177 0.00347254)
(0.0139983 0.0109164 0.00331249)
(0.0130241 0.0144705 0.0031251)
(0.0119303 0.0177376 0.00292302)
(0.0107325 0.0207244 0.00272763)
(0.00944006 0.0235402 0.00256416)
(0.00804673 0.0264665 0.00245686)
(0.00651169 0.0300049 0.00241466)
(0.00477636 0.0345458 0.00238587)
(0.00298947 0.0389099 0.00220889)
(0.00133312 0.038765 0.00166442)
(0.000136824 0.0234037 0.000659409)
(3.8137e-05 -0.00685086 0.00110719)
(0.000618409 -0.017926 0.00243132)
(0.00158892 -0.0266996 0.00306858)
(0.00281286 -0.0334155 0.00332038)
(0.00413643 -0.0381737 0.00338308)
(0.00544984 -0.0412231 0.00336477)
(0.00669794 -0.0429112 0.00331767)
(0.00786444 -0.0435507 0.00326407)
(0.00894519 -0.0433653 0.00320881)
(0.00993634 -0.0425049 0.00314949)
(0.0108386 -0.0410661 0.00308686)
(0.0116483 -0.039116 0.00302064)
(0.0123553 -0.0367112 0.00295062)
(0.0129573 -0.0338883 0.00287995)
(0.0134478 -0.0306719 0.00281535)
(0.013817 -0.0270942 0.00276326)
(0.0140577 -0.0231932 0.0027306)
(0.0141662 -0.0190133 0.00272412)
(0.0141425 -0.0145999 0.00275074)
(0.0139905 -0.00999749 0.00281588)
(0.0137155 -0.00524952 0.00292054)
(0.0133198 -0.000401537 0.00305842)
(0.0128129 0.00448769 0.00321345)
(0.0122045 0.00934094 0.00335784)
(0.0114948 0.0140618 0.00345757)
(0.0106846 0.0185467 0.00348212)
(0.00977745 0.0227203 0.00341622)
(0.00877825 0.0265926 0.00326703)
(0.00768694 0.0303256 0.00306202)
(0.00648892 0.0342921 0.00283894)
(0.0051498 0.0390104 0.00262669)
(0.00364417 0.0445054 0.00241017)
(0.00219634 0.0487078 0.00210417)
(0.000929785 0.0468063 0.00154834)
(6.48091e-05 0.0269196 0.000627043)
(4.19795e-05 -0.00909935 0.00082972)
(0.000566215 -0.0233503 0.001724)
(0.00139155 -0.0339694 0.00212155)
(0.00238087 -0.0413821 0.00228757)
(0.00339938 -0.0460315 0.00235473)
(0.0043754 -0.0486055 0.00237746)
(0.00529057 -0.0497518 0.00237606)
(0.0061536 -0.0498938 0.0023591)
(0.00697593 -0.0492476 0.0023281)
(0.00775444 -0.0479212 0.00228125)
(0.00847955 -0.0459946 0.00221629)
(0.00914277 -0.0435352 0.00212935)
(0.0097375 -0.0405739 0.00202215)
(0.0102526 -0.0371193 0.00190019)
(0.0106701 -0.0332075 0.00176966)
(0.0109789 -0.0288931 0.00163964)
(0.0111733 -0.0242461 0.00152201)
(0.0112523 -0.0193436 0.00143117)
(0.0112199 -0.0142605 0.00138369)
(0.0110831 -0.00906096 0.00139689)
(0.0108508 -0.00379397 0.00148663)
(0.0105321 0.00150398 0.00166346)
(0.0101356 0.00679953 0.00192642)
(0.00966737 0.012048 0.00225633)
(0.00912927 0.0171864 0.0026126)
(0.00851965 0.0221415 0.00293914)
(0.00783422 0.0268659 0.00318022)
(0.00706593 0.0314038 0.00329917)
(0.00620224 0.0359623 0.00328697)
(0.00522144 0.0409318 0.00315611)
(0.00409588 0.0466792 0.0029267)
(0.0028327 0.0527072 0.00261112)
(0.00166668 0.0563537 0.00220152)
(0.000679777 0.0527041 0.0015888)
(3.4177e-05 0.0292017 0.000635961)
(4.135e-05 -0.0113028 0.000622952)
(0.00048435 -0.0285952 0.00131156)
(0.00115832 -0.0409548 0.00165567)
(0.00195576 -0.0491005 0.00183189)
(0.00277098 -0.0538555 0.00191647)
(0.00355564 -0.0562803 0.0019456)
(0.00430554 -0.0572116 0.00193867)
(0.00503383 -0.0571074 0.00190534)
(0.00574366 -0.0561685 0.0018478)
(0.00641817 -0.0545099 0.00176916)
(0.00705396 -0.0521964 0.00167042)
(0.00764732 -0.0492364 0.00155261)
(0.00818021 -0.0456496 0.00141501)
(0.00863546 -0.0414736 0.00126074)
(0.00900041 -0.0367749 0.00109466)
(0.00926685 -0.0316497 0.00092341)
(0.00943163 -0.0262131 0.00075579)
(0.00949586 -0.0205807 0.000603354)
(0.00946491 -0.0148538 0.000480565)
(0.00934788 -0.00911126 0.000405326)
(0.00915471 -0.00340564 0.000398397)
(0.00889498 0.002235 0.000481105)
(0.00857742 0.00779698 0.000670244)
(0.00820804 0.0132702 0.000970305)
(0.00778865 0.0186393 0.00136496)
(0.00731512 0.0238872 0.0018132)
(0.00677706 0.0290249 0.00225558)
(0.00615826 0.0341512 0.00263024)
(0.00543731 0.0395152 0.00288725)
(0.00458938 0.0454928 0.00299081)
(0.00359411 0.0522588 0.00291657)
(0.00248284 0.0588272 0.00265905)
(0.00147254 0.0621479 0.00223868)
(0.000615466 0.0571989 0.00159496)
(4.47066e-05 0.0309516 0.000608749)
(3.85656e-05 -0.0129107 0.00044529)
(0.00040113 -0.0322221 0.000957292)
(0.000948131 -0.0456116 0.00124652)
(0.00159724 -0.0541031 0.00142068)
(0.00226309 -0.058827 0.00151826)
(0.00290894 -0.0610958 0.0015618)
(0.00353536 -0.0618419 0.00156739)
(0.00415401 -0.0615249 0.00154405)
(0.00475826 -0.0603358 0.0014978)
(0.00533644 -0.0583745 0.00142889)
(0.00588704 -0.0556695 0.00133512)
(0.00639821 -0.0522248 0.00121768)
(0.00685667 -0.0480571 0.00107825)
(0.00725014 -0.0432186 0.000919034)
(0.00756836 -0.0378083 0.000743292)
(0.00780422 -0.0319619 0.000555768)
(0.0079545 -0.0258306 0.000363266)
(0.00802042 -0.0195637 0.000175559)
(0.00800613 -0.0132905 6.0569e-06)
(0.00791798 -0.00710861 -0.000127975)
(0.00776358 -0.00107976 -0.000205739)
(0.00755294 0.00476755 -0.000204478)
(0.00729624 0.010432 -0.000102965)
(0.00699962 0.0159345 0.000113105)
(0.00666464 0.0213109 0.000444236)
(0.00628636 0.026613 0.000870872)
(0.00585189 0.0319306 0.00135239)
(0.00534087 0.0374352 0.00183315)
(0.0047279 0.0434127 0.00224995)
(0.00398773 0.0501815 0.00253484)
(0.00310596 0.0576683 0.00262107)
(0.0021347 0.0644458 0.00246957)
(0.0012589 0.0673151 0.00209633)
(0.00051865 0.0611029 0.00147454)
(3.34631e-05 0.0325036 0.000533049)
(2.5556e-05 -0.0143838 0.000354819)
(0.000311352 -0.0357053 0.000827539)
(0.000758829 -0.0502916 0.00114863)
(0.00130825 -0.0593766 0.00136702)
(0.00188443 -0.0643087 0.001498)
(0.0024529 -0.0666074 0.00156328)
(0.00301602 -0.0673049 0.0015834)
(0.00357585 -0.0668838 0.00156894)
(0.00412559 -0.0655402 0.00152805)
(0.00465841 -0.0633482 0.00146144)
(0.00516596 -0.0603234 0.0013705)
(0.00563817 -0.0564643 0.00125673)
(0.00606397 -0.0517901 0.00112115)
(0.00643299 -0.0463691 0.000964662)
(0.00673708 -0.0403227 0.000788222)
(0.00697065 -0.0338122 0.000593377)
(0.00713069 -0.0270162 0.000383274)
(0.00721698 -0.0201097 0.000164171)
(0.00723161 -0.0132458 -5.33239e-05)
(0.00717923 -0.0065443 -0.000253213)
(0.0070671 -8.65169e-05 -0.000414085)
(0.00690234 0.00608675 -0.000510624)
(0.00669226 0.0119755 -0.00051669)
(0.00644416 0.0176202 -0.00041026)
(0.00616045 0.0230986 -0.000179273)
(0.0058359 0.028525 0.000172779)
(0.00545703 0.0340651 0.000623271)
(0.00500238 0.039963 0.00112968)
(0.00444538 0.0465417 0.0016292)
(0.00376162 0.0540633 0.00203717)
(0.00293974 0.0622322 0.00225568)
(0.00204106 0.069261 0.0022118)
(0.00122498 0.0718457 0.00190683)
(0.000520114 0.0646099 0.00133453)
(4.51852e-05 0.0339715 0.000465318)
(2.78489e-05 -0.0154726 0.00029519)
(0.000292602 -0.038264 0.000732447)
(0.000708053 -0.0537322 0.00105266)
(0.00121704 -0.063263 0.00127534)
(0.00174882 -0.0683585 0.00140855)
(0.00227226 -0.0706833 0.00147435)
(0.00279042 -0.071336 0.00149447)
(0.00330457 -0.0708131 0.00148105)
(0.00380724 -0.0693082 0.00143993)
(0.00429123 -0.0668858 0.00137491)
(0.00474964 -0.0635514 0.0012886)
(0.00517412 -0.059299 0.00118279)
(0.00555567 -0.0541547 0.00105855)
(0.00588627 -0.0482027 0.000916446)
(0.00615976 -0.0415853 0.000756674)
(0.00637184 -0.0344843 0.000579416)
(0.00651996 -0.0270977 0.000385461)
(0.00660346 -0.0196214 0.000177221)
(0.00662306 -0.0122285 -3.97337e-05)
(0.00658139 -0.0050582 -0.000254982)
(0.00648317 0.00178883 -0.000451997)
(0.00633542 0.00825505 -0.00060815)
(0.00614619 0.0143363 -0.000696769)
(0.00592225 0.0200884 -0.000690976)
(0.00566623 0.0256258 -0.000568934)
(0.00537375 0.0311203 -0.000319194)
(0.00503143 0.036809 5.41504e-05)
(0.00461795 0.0430028 0.000525885)
(0.00410769 0.0500538 0.00104218)
(0.00347707 0.05816 0.00151371)
(0.00271582 0.0668185 0.0018235)
(0.00189064 0.0739515 0.00187152)
(0.00113679 0.0762137 0.00164274)
(0.000479669 0.0679821 0.00114374)
(3.90367e-05 0.0354285 0.000383327)
(1.9054e-05 -0.0166357 0.000292766)
(0.000252691 -0.0411002 0.000756932)
(0.000631006 -0.0576262 0.00110983)
(0.00110384 -0.0677202 0.00135726)
(0.00160254 -0.0730445 0.00150572)
(0.0020962 -0.0754306 0.001581)
(0.00258729 -0.0760609 0.00160805)
(0.00307589 -0.0754547 0.0016007)
(0.00355363 -0.0738074 0.00156586)
(0.00401294 -0.0711783 0.00150758)
(0.00444686 -0.0675671 0.0014285)
(0.00484751 -0.0629655 0.00133023)
(0.00520696 -0.057405 0.00121338)
(0.0055186 -0.0509802 0.00107783)
(0.00577776 -0.043846 0.000923085)
(0.00598141 -0.0361969 0.000748852)
(0.00612753 -0.0282445 0.000555645)
(0.00621502 -0.0201969 0.000345378)
(0.00624429 -0.0122444 0.000122267)
(0.00621669 -0.00454498 -0.00010597)
(0.00613539 0.00277864 -0.000326695)
(0.00600537 0.00964833 -0.000521645)
(0.00583311 0.0160482 -0.000667582)
(0.00562489 0.0220386 -0.00073861)
(0.00538366 0.0277585 -0.000709776)
(0.00510629 0.0334246 -0.000561111)
(0.0047811 0.0393337 -0.00028275)
(0.00438784 0.0458563 0.000116858)
(0.00390273 0.0533699 0.000598082)
(0.00330464 0.0620176 0.00107724)
(0.00258346 0.07112 0.00143091)
(0.00180755 0.0783611 0.00154177)
(0.00109306 0.0803526 0.00138108)
(0.000462546 0.0712047 0.000961086)
(3.96092e-05 0.0368342 0.000313946)
(2.30748e-05 -0.0175944 0.000284099)
(0.00025705 -0.0434193 0.0007496)
(0.00062914 -0.0608054 0.0011041)
(0.00108679 -0.0713662 0.00134866)
(0.00156353 -0.0768908 0.00149258)
(0.00203164 -0.0793366 0.00156408)
(0.00249501 -0.0799493 0.00158864)
(0.00295402 -0.0792657 0.0015804)
(0.00340065 -0.077482 0.00154672)
(0.00382778 -0.0746529 0.00149224)
(0.0042289 -0.0707741 0.00142015)
(0.0045968 -0.0658392 0.00133242)
(0.00492449 -0.0598886 0.00122961)
(0.00520655 -0.0530307 0.00111107)
(0.00543949 -0.0454343 0.000975311)
(0.00562139 -0.0373062 0.000820794)
(0.00575121 -0.0288673 0.000646631)
(0.0058284 -0.0203343 0.000453215)
(0.00585304 -0.0119052 0.000242877)
(0.00582633 -0.00374971 2.08995e-05)
(0.00575079 0.00399338 -0.00020318)
(0.00563011 0.0112287 -0.000414504)
(0.00546929 0.0179301 -0.000592937)
(0.00527331 0.0241603 -0.000714474)
(0.00504469 0.0300768 -0.000753709)
(0.00478082 0.0359317 -0.000686598)
(0.00447174 0.0420686 -0.00049464)
(0.00409957 0.0489034 -0.000173668)
(0.00364207 0.0568307 0.00025057)
(0.00307951 0.0659352 0.00070517)
(0.00240305 0.0753796 0.00106961)
(0.00168182 0.0826528 0.00121929)
(0.00101458 0.0843418 0.0011164)
(0.00042349 0.0742794 0.000776014)
(3.36247e-05 0.038166 0.000245227)
(1.87183e-05 -0.0186653 0.000304747)
(0.000241392 -0.0460336 0.000802874)
(0.000597981 -0.0643858 0.00117634)
(0.00103789 -0.0754455 0.00142848)
(0.00149529 -0.081163 0.00157398)
(0.00194348 -0.0836537 0.00164572)
(0.00238668 -0.0842359 0.00167108)
(0.00282489 -0.0834657 0.00166487)
(0.00324993 -0.081541 0.00163478)
(0.00365474 -0.0785138 0.00158568)
(0.00403311 -0.0743776 0.00152084)
(0.00437835 -0.069128 0.00144203)
(0.00468435 -0.0628126 0.0013493)
(0.00494664 -0.0555501 0.0012412)
(0.00516265 -0.0475197 0.00111542)
(0.00533112 -0.0389369 0.000969728)
(0.00545153 -0.0300301 0.000802878)
(0.00552372 -0.0210226 0.000615277)
(0.00554777 -0.0121196 0.00040928)
(0.00552398 -0.00350017 0.000189574)
(0.00545418 0.00468409 -3.60157e-05)
(0.00534157 0.0123224 -0.000255642)
(0.00518984 0.0193781 -0.000452915)
(0.00500271 0.0259134 -0.000607448)
(0.00478198 0.0320988 -0.000696056)
(0.00452542 0.0382127 -0.000694184)
(0.00422451 0.0446354 -0.000579047)
(0.00386396 0.0518182 -0.000337891)
(0.00342426 0.0601639 1.57136e-05)
(0.00288798 0.0697009 0.000421973)
(0.00224783 0.0794502 0.000769822)
(0.00157307 0.086735 0.000935663)
(0.0009473 0.0881228 0.000876967)
(0.000391442 0.0771729 0.000609454)
(3.05154e-05 0.0394021 0.000186405)
(2.14439e-05 -0.0196272 0.000311738)
(0.000244373 -0.0483431 0.000817274)
(0.000593544 -0.0675205 0.00118797)
(0.00101732 -0.0790037 0.00143175)
(0.00145267 -0.0848888 0.00156914)
(0.00187611 -0.087421 0.00163548)
(0.00229307 -0.0879762 0.00165815)
(0.00270383 -0.0871248 0.00165189)
(0.00310065 -0.0850657 0.00162462)
(0.00347693 -0.0818484 0.00158165)
(0.00382684 -0.0774659 0.0015267)
(0.00414432 -0.0719187 0.00146181)
(0.00442409 -0.0652647 0.00138683)
(0.00466262 -0.0576348 0.00129949)
(0.00485811 -0.0492186 0.001196)
(0.00500993 -0.0402389 0.00107221)
(0.005118 -0.0309289 0.000924872)
(0.00518246 -0.0215151 0.000752811)
(0.00520359 -0.012206 0.000557595)
(0.0051817 -0.00318581 0.000343819)
(0.00511762 0.00538445 0.00011925)
(0.00501338 0.013384 -0.00010488)
(0.00487196 0.0207697 -0.000313876)
(0.00469596 0.0276045 -0.000489899)
(0.00448624 0.034069 -0.000612268)
(0.0042403 0.0404626 -0.000657867)
(0.00395048 0.0471927 -0.00060309)
(0.00360372 0.0547334 -0.000430883)
(0.00318371 0.0634835 -0.000146176)
(0.00267549 0.0734112 0.000203607)
(0.00207356 0.0834044 0.00052015)
(0.00144746 0.0906489 0.000687024)
(0.000867158 0.091708 0.00066106)
(0.000352478 0.0798758 0.000458352)
(2.56033e-05 0.0405361 0.00013358)
(1.88921e-05 -0.0206553 0.000332185)
(0.000233971 -0.0508114 0.000860119)
(0.000570224 -0.0708562 0.00123684)
(0.000977372 -0.0827613 0.00147723)
(0.00139356 -0.0887941 0.00160879)
(0.00179681 -0.0913501 0.00167072)
(0.00219292 -0.0918658 0.00169125)
(0.00258197 -0.0909252 0.00168518)
(0.00295633 -0.0887283 0.00166064)
(0.00330971 -0.085323 0.00162319)
(0.00363674 -0.0807034 0.00157683)
(0.00393207 -0.0748752 0.00152369)
(0.00419135 -0.0679053 0.00146343)
(0.00441192 -0.0599339 0.00139323)
(0.00459266 -0.0511585 0.0013084)
(0.0047333 -0.0418069 0.00120351)
(0.0048339 -0.0321154 0.0010738)
(0.00489455 -0.0223131 0.000916569)
(0.00491531 -0.0126112 0.000732138)
(0.00489624 -0.00319878 0.000524453)
(0.00483781 0.00575548 0.000301072)
(0.00474112 0.0141221 7.28909e-05)
(0.00460794 0.021853 -0.000146297)
(0.00444021 0.029012 -0.000340187)
(0.0042384 0.0357888 -0.000490059)
(0.00399971 0.0424996 -0.000574543)
(0.00371714 0.0495731 -0.000570722)
(0.00337959 0.0574974 -0.000459827)
(0.00297388 0.0666589 -0.000241039)
(0.00248791 0.0769615 4.88535e-05)
(0.00191882 0.0871677 0.000325141)
(0.00133597 0.094348 0.000482036)
(0.00079716 0.0950711 0.000478455)
(0.000320093 0.0823822 0.000330619)
(2.26815e-05 0.0415703 9.05518e-05)
(2.00444e-05 -0.021617 0.000342969)
(0.000231874 -0.0530854 0.000876478)
(0.000557313 -0.0738994 0.00124567)
(0.000946431 -0.0861702 0.00147373)
(0.00134031 -0.0923297 0.00159488)
(0.00171972 -0.0949046 0.00165033)
(0.00209118 -0.0953816 0.00166781)
(0.00245481 -0.0943553 0.00166184)
(0.00280339 -0.0920261 0.00164068)
(0.00313109 -0.0884415 0.00161028)
(0.003433 -0.0835983 0.00157507)
(0.00370449 -0.0775096 0.0015375)
(0.00394207 -0.0702527 0.00149716)
(0.00414389 -0.0619778 0.00145065)
(0.0043095 -0.0528887 0.0013921)
(0.00443905 -0.0432161 0.00131431)
(0.00453278 -0.0331966 0.00121034)
(0.00459072 -0.0230585 0.00107517)
(0.00461263 -0.013013 0.000907177)
(0.00459811 -0.00325168 0.000709112)
(0.00454699 0.0060508 0.000488311)
(0.00445971 0.0147578 0.000256161)
(0.00433718 0.0228174 2.69426e-05)
(0.00418004 0.030296 -0.000183168)
(0.00398809 0.0373912 -0.000356323)
(0.00375867 0.0444331 -0.000472757)
(0.0034852 0.0518654 -0.000511051)
(0.00315814 0.0601822 -0.000452463)
(0.00276712 0.0697482 -0.000292774)
(0.00230326 0.0803981 -6.0247e-05)
(0.00176654 0.0907754 0.000173392)
(0.00122558 0.0978573 0.000314538)
(0.000727618 0.0982304 0.000325848)
(0.000288154 0.0847056 0.000223838)
(1.94791e-05 0.0425144 5.55774e-05)
(1.81457e-05 -0.0226009 0.000358701)
(0.000222062 -0.0554063 0.000902496)
(0.000534306 -0.0769929 0.00126689)
(0.000906403 -0.0896153 0.00148408)
(0.00128107 -0.0958837 0.00159519)
(0.00164066 -0.0984654 0.00164392)
(0.00199189 -0.0988968 0.00165786)
(0.00233468 -0.0977815 0.00165124)
(0.00266199 -0.095321 0.00163239)
(0.0029684 -0.0915631 0.00160756)
(0.0032495 -0.0865085 0.00158156)
(0.00350138 -0.080178 0.00155711)
(0.00372135 -0.0726583 0.00153398)
(0.00390833 -0.0641077 0.00150862)
(0.0040624 -0.0547347 0.00147464)
(0.00418404 -0.0447709 0.00142382)
(0.00427357 -0.0344515 0.00134749)
(0.00433088 -0.0240024 0.00123835)
(0.00435535 -0.0136337 0.00109222)
(0.004346 -0.003538 0.000909514)
(0.00430193 0.00610503 0.000696071)
(0.00422281 0.0151518 0.000462955)
(0.00410889 0.0235462 0.000225034)
(0.00396033 0.0313559 -8.16802e-07)
(0.00377621 0.0387869 -0.000196619)
(0.00355348 0.0461812 -0.000343144)
(0.00328636 0.0539934 -0.000420024)
(0.00296694 0.0627175 -0.000409028)
(0.00258742 0.0726899 -0.000303905)
(0.00214218 0.0836722 -0.000126183)
(0.00163396 0.0941952 6.41294e-05)
(0.00112997 0.101161 0.000185798)
(0.000668382 0.101183 0.000205805)
(0.000262111 0.0868556 0.000140668)
(1.75135e-05 0.0433773 3.02351e-05)
(1.82812e-05 -0.0235384 0.000368439)
(0.000217111 -0.0575936 0.000912319)
(0.000517937 -0.0798852 0.00126406)
(0.000873065 -0.0928191 0.00146561)
(0.00122777 -0.0991803 0.00156459)
(0.00156658 -0.101764 0.00160586)
(0.00189659 -0.102149 0.00161612)
(0.00221762 -0.100948 0.00160907)
(0.00252301 -0.098361 0.00159312)
(0.00280772 -0.0944388 0.00157481)
(0.00306786 -0.0891873 0.00155931)
(0.00330014 -0.082636 0.00154969)
(0.00350261 -0.0748819 0.0015458)
(0.00367488 -0.066091 0.00154395)
(0.00381759 -0.0564752 0.00153721)
(0.00393163 -0.0462651 0.0015163)
(0.00401753 -0.0356916 0.00147095)
(0.00407513 -0.0249755 0.00139166)
(0.00410348 -0.0143225 0.00127169)
(0.00410098 -0.00392418 0.00110887)
(0.00406585 0.00603678 0.000907089)
(0.00399675 0.0154104 0.000676559)
(0.00389296 0.0241354 0.000432518)
(0.00375398 0.0322794 0.000192823)
(0.0035785 0.0400543 -2.37491e-05)
(0.00336341 0.0478117 -0.000197874)
(0.00310334 0.0560138 -0.00030973)
(0.00279178 0.0651488 -0.000341507)
(0.00242339 0.0755192 -0.000285631)
(0.00199547 0.0868118 -0.000158309)
(0.00151353 0.0974505 -9.35072e-06)
(0.00104325 0.104282 9.16269e-05)
(0.0006149 0.103953 0.000115823)
(0.000238914 0.0888546 7.93545e-05)
(1.57031e-05 0.0441719 1.33536e-05)
(1.67947e-05 -0.024474 0.000378582)
(0.000208259 -0.0597691 0.000921419)
(0.00049702 -0.08275 0.00125961)
(0.000836618 -0.095976 0.00144499)
(0.00117403 -0.102414 0.00153132)
(0.00149523 -0.104991 0.00156455)
(0.00180742 -0.105327 0.00157038)
(0.00211022 -0.104038 0.00156199)
(0.0023972 -0.101328 0.00154773)
(0.00266371 -0.0972485 0.00153439)
(0.00290628 -0.0918123 0.00152748)
(0.00312221 -0.0850577 0.00153043)
(0.00331018 -0.0770914 0.00154342)
(0.00347035 -0.0680863 0.001563)
(0.00360381 -0.0582569 0.00158218)
(0.00371182 -0.047832 0.0015912)
(0.00379513 -0.0370368 0.00157864)
(0.00385358 -0.0260847 0.00153299)
(0.00388598 -0.0151751 0.00144467)
(0.00389019 -0.00449593 0.00130832)
(0.00386356 0.00576945 0.00112477)
(0.00380375 0.0154654 0.000902365)
(0.00370908 0.0245245 0.000656019)
(0.00357831 0.0330127 0.000404548)
(0.00340983 0.0411454 0.000168106)
(0.00320066 0.0492812 -3.29871e-05)
(0.00294612 0.0578864 -0.000178599)
(0.002641 0.0674397 -0.000250831)
(0.0022819 0.078206 -0.000240828)
(0.00186875 0.0897956 -0.000160353)
(0.00140973 0.100531 -5.04898e-05)
(0.000968834 0.107221 2.94328e-05)
(0.000569491 0.106547 5.4135e-05)
(0.000219748 0.0907138 3.86665e-05)
(1.44844e-05 0.0449051 4.42632e-06)
(1.6483e-05 -0.0253749 0.000384577)
(0.000202693 -0.0618475 0.000919984)
(0.000481296 -0.0854694 0.00124025)
(0.000806546 -0.0989578 0.00140715)
(0.00112744 -0.10546 0.00148001)
(0.00143165 -0.108026 0.00150501)
(0.00172658 -0.108311 0.00150647)
(0.00201171 -0.106937 0.00149691)
(0.0022809 -0.104109 0.0014846)
(0.00252988 -0.0998813 0.0014765)
(0.00275557 -0.0942738 0.0014784)
(0.00295577 -0.0873348 0.00149399)
(0.00312969 -0.0791805 0.00152371)
(0.00327802 -0.0699907 0.00156425)
(0.00340235 -0.0599818 0.00160867)
(0.00350434 -0.0493794 0.00164695)
(0.00358507 -0.0384014 0.00166693)
(0.00364454 -0.0272516 0.00165563)
(0.00368139 -0.0161199 0.00160119)
(0.00369301 -0.00518761 0.00149514)
(0.00367584 0.00536371 0.00133504)
(0.00362642 0.0153739 0.00112648)
(0.00354191 0.0247682 0.000883127)
(0.00342022 0.0336082 0.000624099)
(0.00325934 0.0421098 0.000370792)
(0.00305637 0.050635 0.000144892)
(0.00280733 0.059651 -3.2494e-05)
(0.0025083 0.0696234 -0.000142702)
(0.0021578 0.0807766 -0.00017531)
(0.00175802 0.0926449 -0.000138071)
(0.00131951 0.103457 -6.45496e-05)
(0.000904453 0.109996 -5.23538e-06)
(0.000530483 0.108987 1.71634e-05)
(0.000203545 0.0924527 1.58917e-05)
(1.3548e-05 0.0455868 2.13982e-06)
(1.54076e-05 -0.026264 0.000388684)
(0.000195513 -0.0638902 0.000912744)
(0.000464193 -0.0881294 0.00121245)
(0.000776544 -0.101859 0.00135943)
(0.00108304 -0.108411 0.00141802)
(0.00137263 -0.110958 0.00143414)
(0.00165278 -0.111189 0.00143055)
(0.00192281 -0.109729 0.00141899)
(0.00217683 -0.106786 0.00140761)
(0.00241087 -0.102416 0.00140349)
(0.00262217 -0.0966478 0.00141266)
(0.00280892 -0.0895383 0.00143914)
(0.00297076 -0.081214 0.00148377)
(0.00310878 -0.0718614 0.00154363)
(0.00322499 -0.061699 0.00161209)
(0.00332144 -0.0509489 0.00167917)
(0.00339957 -0.0398211 0.00173226)
(0.00345961 -0.0285078 0.00175718)
(0.00350023 -0.017187 0.00173989)
(0.00351846 -0.00603005 0.00166884)
(0.00351001 0.00478699 0.00153788)
(0.00347034 0.0151016 0.00134919)
(0.00339545 0.0248311 0.00111436)
(0.00328236 0.0340308 0.000852187)
(0.00312859 0.0429137 0.000585106)
(0.00293134 0.051842 0.0003364)
(0.00268726 0.0612799 0.000128706)
(0.00239367 0.0716763 -1.78908e-05)
(0.00205077 0.0832129 -9.09393e-05)
(0.0016627 0.0953489 -9.42913e-05)
(0.00124211 0.106225 -5.48869e-05)
(0.000849384 0.112613 -1.5765e-05)
(0.000497279 0.111278 1.86449e-06)
(0.000189943 0.0940798 8.67906e-06)
(1.28825e-05 0.0462212 5.54746e-06)
(1.49845e-05 -0.0271262 0.000389436)
(0.000190437 -0.0658584 0.00089769)
(0.000450825 -0.0906777 0.00117443)
(0.000751764 -0.104624 0.00130063)
(0.00104521 -0.111214 0.00134484)
(0.0013214 -0.113738 0.00135216)
(0.00158794 -0.113914 0.00134361)
(0.00184403 -0.112371 0.0013301)
(0.00208403 -0.109317 0.00131957)
(0.00230425 -0.104814 0.00131915)
(0.00250217 -0.0988951 0.00133501)
(0.00267631 -0.09163 0.00137143)
(0.00282666 -0.0831544 0.00142954)
(0.00295473 -0.0736615 0.00150682)
(0.00306291 -0.0633717 0.00159701)
(0.00315373 -0.0525035 0.00169043)
(0.00322902 -0.0412578 0.00177448)
(0.00328933 -0.0298144 0.00183435)
(0.00333345 -0.0183366 0.00185447)
(0.0033582 -0.00698268 0.00182061)
(0.00335858 0.00408006 0.00172293)
(0.00332898 0.0146889 0.0015597)
(0.00326416 0.0247531 0.00133951)
(0.00316012 0.0343193 0.00107993)
(0.00301382 0.0435943 0.000803823)
(0.00282247 0.0529365 0.000535912)
(0.00258332 0.0628035 0.000300619)
(0.00229483 0.0736245 0.000119938)
(0.00195876 0.0855368 8.80251e-06)
(0.00158096 0.0979264 -3.26539e-05)
(0.00117594 0.108852 -2.53254e-05)
(0.000802418 0.115088 -5.92964e-06)
(0.000469055 0.11344 4.89555e-06)
(0.000178496 0.0956098 1.45323e-05)
(1.24099e-05 0.0468152 1.35973e-05)
(1.43121e-05 -0.0279736 0.000387225)
(0.000185066 -0.0677828 0.000874816)
(0.000437824 -0.0931562 0.00112556)
(0.000728739 -0.107297 0.00122949)
(0.00101087 -0.113912 0.00125862)
(0.00127549 -0.116406 0.00125666)
(0.00153027 -0.116524 0.00124261)
(0.00177435 -0.114897 0.0012265)
(0.00200233 -0.111735 0.00121599)
(0.00221068 -0.107102 0.00121824)
(0.00239703 -0.101041 0.00123955)
(0.00256012 -0.09363 0.00128453)
(0.00270022 -0.0850165 0.00135469)
(0.00281915 -0.0754006 0.00144797)
(0.00291967 -0.065005 0.00155864)
(0.00300467 -0.054045 0.00167742)
(0.00307646 -0.0427123 0.00179187)
(0.00313599 -0.0311727 0.00188682)
(0.00318234 -0.0195731 0.00194546)
(0.00321231 -0.00805507 0.00195117)
(0.00322044 0.0032273 0.00189054)
(0.00320018 0.0141144 0.00175764)
(0.00314506 0.0245084 0.00155748)
(0.00304997 0.0344454 0.00130567)
(0.00291119 0.044123 0.00102499)
(0.00272582 0.0538917 0.000741418)
(0.0024916 0.0641982 0.000481289)
(0.00220802 0.0754489 0.000268843)
(0.00187822 0.0877353 0.000121832)
(0.00150957 0.100371 4.44395e-05)
(0.00111824 0.111341 2.13839e-05)
(0.000761426 0.117429 2.13669e-05)
(0.000444345 0.115479 2.34618e-05)
(0.000168447 0.0970487 3.11839e-05)
(1.20032e-05 0.0473714 2.52517e-05)
(1.39705e-05 -0.0287993 0.000382029)
(0.000180835 -0.0696462 0.000845516)
(0.000427052 -0.0955428 0.00106897)
(0.000709234 -0.109858 0.00115063)
(0.000981502 -0.116487 0.00116512)
(0.00123614 -0.118944 0.00115418)
(0.00148085 -0.119003 0.00113471)
(0.00171452 -0.117295 0.00111579)
(0.00193189 -0.114028 0.00110484)
(0.00212963 -0.109272 0.00110899)
(0.00230553 -0.103075 0.00113464)
(0.0024585 -0.0955295 0.0011866)
(0.00258909 -0.0867909 0.00126673)
(0.00269938 -0.0770676 0.00137342)
(0.00279247 -0.0665849 0.00150151)
(0.00287162 -0.0555548 0.00164242)
(0.00293955 -0.0441603 0.00178422)
(0.00299767 -0.032553 0.00191193)
(0.00304541 -0.0208618 0.00200805)
(0.00307974 -0.00920871 0.0020541)
(0.0030949 0.00226889 0.00203334)
(0.00308352 0.0134183 0.00193539)
(0.00303795 0.0241358 0.00176097)
(0.00295188 0.034446 0.00152284)
(0.00282076 0.0445341 0.00124296)
(0.00264147 0.0547387 0.000948177)
(0.00241216 0.0654919 0.000666762)
(0.00213327 0.077174 0.000425456)
(0.00180914 0.0898293 0.000245132)
(0.00144849 0.102702 0.000134121)
(0.00106905 0.113706 8.2417e-05)
(0.000726687 0.119645 6.3355e-05)
(0.000423587 0.117408 5.49817e-05)
(0.000160152 0.0984064 5.65658e-05)
(1.18088e-05 0.047894 3.96338e-05)
(1.36016e-05 -0.0296089 0.000373624)
(0.000176758 -0.0714628 0.000808323)
(0.000417105 -0.0978566 0.00100182)
(0.000691711 -0.112328 0.00106007)
(0.000955621 -0.118958 0.00105954)
(0.00120207 -0.121376 0.00103944)
(0.00143865 -0.121372 0.0010142)
(0.00166379 -0.11958 0.000991933)
(0.00187219 -0.11621 0.000979821)
(0.00206074 -0.111331 0.00098499)
(0.00222741 -0.105004 0.00101398)
(0.00237131 -0.0973294 0.00107178)
(0.00249316 -0.0884753 0.00116058)
(0.00259527 -0.0786576 0.00127924)
(0.00268098 -0.0681043 0.00142319)
(0.00275388 -0.0570252 0.0015845)
(0.00281711 -0.0455947 0.00175195)
(0.00287256 -0.0339502 0.00191093)
(0.00292017 -0.022201 0.00204375)
(0.00295723 -0.0104475 0.00213053)
(0.00297801 0.00119452 0.00215164)
(0.00297452 0.0125836 0.0020923)
(0.00293802 0.0236131 0.00194845)
(0.00286094 0.0342956 0.00172929)
(0.00273773 0.044801 0.00145522)
(0.00256488 0.0554521 0.00115355)
(0.00234079 0.0666617 0.000854382)
(0.00206671 0.0787808 0.0005871)
(0.00174808 0.0918053 0.000375916)
(0.00139476 0.10491 0.000233382)