/*--------------------------------*- C++ -*----------------------------------*\
| =========                 |                                                 |
| \\      /  F ield         | OpenFOAM: The Open Source CFD Toolbox           |
|  \\    /   O peration     | Version:  v1912                                 |
|   \\  /    A nd           | Website:  www.openfoam.com                      |
|    \\/     M anipulation  |                                                 |
\*---------------------------------------------------------------------------*/
FoamFile
{
    version     2.0;
    format      ascii;
    class       volScalarField;
    location    "376/oil";
    object      heatTransferCoeff(T);
}
// * * * * * * * * * * * * * * * * * * * * * * * * * * * * * * * * * * * * * //

dimensions      [1 0 -3 -1 0 0 0];


internalField   uniform 0;

boundaryField
{
    maxY
    {
        type            calculated;
        value           uniform 0;
    }
    minX
    {
        type            calculated;
        value           uniform 0;
    }
    maxX
    {
        type            calculated;
        value           uniform 0;
    }
    minY
    {
        type            calculated;
        value           uniform 0;
    }
    minZ
    {
        type            calculated;
        value           uniform 0;
    }
    maxZ
    {
        type            calculated;
        value           uniform 0;
    }
    oil_to_sphere
    {
        type            calculated;
        value           nonuniform List<scalar> 
1536
(
-17.14
-12.0818
-11.9615
-2.75676
-2.53234
-11.842
-7.75442
-9.44705
-8.84067
-3.56091
0.154923
-4.25576
-8.75058
-4.4474
1.34034
-7.20539
-11.8532
-12.2057
-6.93598
-8.48551
-10.6265
-8.92238
-9.27733
-7.15105
-7.6441
-7.39575
-7.62676
-6.53218
-11.5443
-9.0859
-13.0602
-12.118
-12.2919
-7.25966
-7.55682
-6.57646
-7.04454
-5.55683
-6.49028
-7.59978
-6.28506
-7.02073
-8.66761
-9.7028
-10.9449
-7.53681
-10.522
-9.20226
0.94927
-7.36775
-10.1536
-8.91129
-9.10399
-7.14619
-11.38
-14.8416
-9.22067
-8.49663
-10.5449
-10.0756
-8.54076
-8.69679
-8.44094
-7.01193
-7.50566
-8.31832
-8.47247
-10.2688
-10.2281
-11.3574
-6.98713
-2.52584
-4.15866
-7.40858
-7.38517
-15.1756
-12.3565
-5.60215
-7.21694
-12.0299
-10.6941
-9.94688
-2.7948
-2.66229
-11.5189
-16.1609
-1.49381
-8.04451
-10.0816
-10.057
-8.83627
-6.74515
-6.66155
-6.8906
-7.37785
-9.65959
-10.5839
-10.931
-12.7243
-9.94045
-10.729
-6.91466
-17.2204
-10.1965
-3.93875
-7.28786
-7.70273
-3.11409
-3.06666
-17.3491
-12.305
-9.42087
-8.66015
-9.28949
-2.07305
-2.56393
-1.07798
-13.9118
-16.6697
-12.5861
-9.06041
-9.28906
-6.43276
-10.523
-13.0033
-9.6932
-9.02608
-6.0986
-10.8342
-10.5266
-8.33959
-10.3225
-11.314
-7.75519
-8.06986
-11.6129
-9.31746
-12.0698
-6.19312
-11.9043
-8.88793
-10.4689
-10.5204
-8.73722
-8.15452
-8.62489
-9.74932
-13.7171
-8.11938
-17.433
-11.1536
-11.912
-9.21923
-9.49842
-7.40342
-9.70634
-11.58
-10.436
-18.2651
-12.7349
-12.2917
-13.959
-4.82323
-5.62642
-6.81321
-6.72814
-11.3096
-13.4811
-12.7212
-14.8711
-6.51228
-6.82695
-5.65066
-10.5983
-9.0395
-9.50531
-15.7245
-5.12266
-3.95529
-16.1618
-6.61853
-5.70047
-5.50663
-5.98263
-10.0729
-16.1714
-12.7713
-6.27503
-4.66714
-12.1222
-4.99403
-11.25
-11.257
-13.5069
-4.19882
2.4311
-13.3157
-14.0127
-7.64432
-7.34986
-8.93319
-7.81293
-12.2015
-13.2565
-11.029
-9.96123
-6.86404
-13.6626
-12.7639
-9.44916
-6.09371
-7.50252
-7.29774
-7.88688
-10.6871
-15.0078
-4.66882
-4.36246
-4.517
3.11746
-11.8341
-10.6259
-9.90789
-8.88866
-9.10595
-13.675
-11.2151
-7.42453
-11.8623
-3.60344
-6.59484
2.20257
-8.71688
-11.523
-13.3407
-12.8185
-11.8589
-10.7984
-12.5685
-4.15421
-4.88117
-5.52702
-14.1295
-5.83785
2.29125
-1.26269
-10.6655
-8.54525
-15.8136
-18.104
-9.37634
-2.65185
2.9805
-10.0588
-12.6375
-6.90305
-7.05777
-1.84444
-6.71601
-13.661
-16.3648
-8.44851
-7.04653
-14.5835
-12.8048
-7.45789
-3.98162
-8.08123
-15.1704
-13.965
-10.8102
-11.2737
-13.128
-5.50535
-7.25873
-13.3944
-11.2653
-11.989
-8.66838
-11.8721
-14.869
-10.9811
-10.5669
-14.3124
-6.94323
-6.87951
-7.32138
-6.48605
-6.78573
-13.5777
-15.3283
-4.22557
-7.92692
-7.65783
-7.85245
-6.26385
-9.11336
-8.61812
-5.72284
-1.91195
-6.65518
-4.31088
-6.22295
-16.1843
-14.4335
-14.339
-17.6199
-5.18396
-5.55056
-8.92025
-17.453
-16.3361
-6.6014
-8.70742
-6.33706
-11.1687
-7.14495
-10.5325
-10.9531
-12.381
-11.4114
-7.5615
-11.591
-6.60032
-13.1575
-13.8103
-12.0337
-11.6219
-5.85936
-15.4648
-15.2373
-11.053
-4.08154
-6.88911
-7.78336
-10.9734
-10.4753
-11.2237
-5.69604
-13.0748
-13.1815
-12.4284
-14.3081
-10.3083
-9.67831
-8.4948
-4.87124
-9.70743
-11.0729
-4.82683
-4.46375
-5.3606
-16.9021
-12.9687
-14.3107
-10.4282
-9.59068
-13.4648
-4.58712
-15.8099
-12.3769
-9.69437
-9.5889
-4.26111
-12.3223
-12.8537
-6.04941
-9.7064
-8.37966
-7.06338
-11.183
-12.9904
-8.66343
-7.42781
-5.22233
-15.0182
-13.1929
-4.4194
-13.5129
-12.8051
-11.8369
-15.0041
-9.62916
-11.4464
-3.44825
-4.23977
-10.9327
-17.4111
-12.0609
-15.7752
-10.3608
-7.72521
-12.6964
-5.33359
-6.32206
-10.4953
-12.8984
-11.2587
-10.4811
-5.54408
-5.5667
-13.4166
-13.1032
-13.2068
-9.51307
-6.7392
-10.6245
-11.631
-12.8371
-9.80572
-8.05886
-5.88369
-9.36285
-5.09158
-3.12896
-6.86185
-5.93444
-9.44227
-3.59863
-7.78529
-15.4713
-7.67025
-7.60838
-12.8413
-12.7816
-11.0845
-8.39931
-4.77008
-12.0099
-14.3725
-10.8335
-9.86389
-12.2029
-8.72741
-9.25864
-10.3393
-2.74308
-10.7602
-13.1902
-14.2617
-12.6445
-11.5089
-11.293
-9.85422
-8.17583
-5.34043
-9.03419
-5.88718
-4.27555
-6.3449
-3.09821
-16.3385
-15.6462
-13.8425
-17.086
-5.18193
-16.404
-5.65496
-6.64547
-11.8241
-4.82028
-5.49911
-7.8458
-7.67687
-15.8204
-14.3968
-10.3559
-10.713
-14.9282
-13.4488
-9.80029
-11.5926
-6.17019
-12.91
-4.07568
-14.2043
-2.69729
-11.367
-11.9872
-12.6426
-7.53096
-5.28514
-8.3004
-12.8009
-8.53754
-3.71427
-12.8717
-13.2706
-13.8675
-17.7746
-9.75736
-14.7631
-5.13861
-5.77519
0.727873
-1.26913
-9.77401
-7.82655
-7.17422
-6.35151
-16.7597
-5.54879
-4.59725
-3.89278
-7.84049
-3.55325
-18.1984
-6.12784
-6.50183
-9.06739
0.0337677
-1.74948
-6.89883
-6.76623
-8.6692
-7.40926
-13.2363
-12.6197
-11.3179
-9.74762
-3.24174
-7.15353
-12.4402
-5.32689
-6.0672
-12.0142
-15.0739
-6.14769
0.769578
-4.87334
0.172728
-8.95276
-7.54027
-6.51666
-4.04467
0.0639266
-11.1973
-11.9052
-10.505
-8.86648
-15.2103
-11.3582
-10.9884
-9.60118
-5.82248
-7.32666
-13.2153
-11.3306
-7.98285
-1.09328
-9.93503
-12.2281
-15.499
-10.1058
-6.86833
-15.5347
-9.08268
-14.8302
-6.11893
-7.54146
-5.46044
-7.66551
-10.0184
-15.0809
-5.17458
-6.46163
-5.79413
-7.84688
-18.3473
-4.05638
-7.25991
-4.52707
-9.08406
-9.99404
-13.2654
-15.2182
-3.23696
-4.107
-15.1432
-15.7545
-2.25369
-14.8225
-13.5316
-12.0462
-13.3639
-10.9901
-9.37348
-9.64603
-14.9745
-9.77528
-11.0817
-9.34963
-12.8593
-10.1317
-8.9702
-8.62373
-4.86626
-12.0281
-8.83514
-12.7743
-11.4813
-11.59
-11.3102
-9.81537
-4.23749
-13.3691
-13.3317
-11.1524
-8.91537
-10.2401
-17.1844
-3.45806
-6.03033
-5.05329
-9.91634
-6.23168
-17.2376
-7.68571
-8.20217
-9.18055
0.613835
-0.210564
-7.05484
-6.95255
-9.62277
-5.46007
-6.37827
-10.0621
-6.5317
-15.2598
-4.84504
-16.9257
-7.60424
-9.78556
2.29073
-0.019463
0.802507
-6.52528
-12.0546
-7.24018
-6.53533
0.110397
-9.43202
-12.3115
-9.52778
-19.5844
-6.13291
-13.2216
-11.0253
-12.2321
-13.6651
-13.459
-12.1842
-9.07918
-8.05789
-9.01749
-12.2356
-8.40488
-10.5705
-10.0456
-10.4724
-12.6702
-11.338
-12.0051
-4.76767
-5.9125
2.56753
-1.90381
-2.9967
5.5226
-6.89227
-7.42202
-8.41632
-8.95339
-3.11422
-4.95837
-7.96787
-13.9944
-13.4242
-7.87252
-3.83907
-8.73494
-12.5228
-11.0905
-9.20891
-3.48208
-6.12999
-11.224
-10.2447
-9.11678
-7.05682
-11.693
-11.7747
-15.0078
-11.846
-9.88635
-7.41699
-6.29832
-4.77737
-6.76929
-8.5091
-17.5151
-9.77905
-16.1682
-6.14581
-17.9214
-6.90071
-8.58956
-5.14495
-5.64167
-7.46275
-4.66212
-8.31229
-3.56164
-7.12066
-13.1352
-7.77505
-4.36716
-15.3443
-11.5436
-10.6645
-8.79146
-14.8047
-20.2845
-2.00003
-11.4
-10.3593
-11.067
-4.6375
-8.87347
-6.3097
-10.419
-11.8665
-13.4767
-5.77803
-11.195
-9.55997
-11.7583
-11.4479
-10.9514
-7.89696
-8.49252
-7.18435
-3.7709
-3.22453
-5.40657
-14.5797
-7.1411
-4.57059
-7.28312
-13.2671
-8.2526
-14.5337
-12.5966
-10.8093
-9.87437
-10.7073
-15.6124
-5.41665
-11.3168
-13.5309
-14.0618
-9.78047
-6.26549
-8.13058
-10.7238
-14.2077
-5.06492
-8.55073
-9.62679
-13.1406
-10.7404
-10.6426
-14.7186
-5.15758
-6.47976
-5.8351
-15.6381
-13.4161
-9.67594
-13.096
-6.53532
-7.115
-13.0778
-10.6037
-15.0422
-5.64531
-12.2923
-12.8986
-10.0244
-10.4561
-12.0038
-5.73518
-2.94078
-9.30025
-10.6328
-15.7967
-8.67089
-6.796
-9.01091
-10.7674
-12.2118
-9.87682
-6.37617
-8.71111
-12.861
-5.14147
-6.38876
-8.71822
-7.05003
-10.3034
-9.8516
-13.9543
-11.038
-12.6189
-7.25771
-9.05265
-10.2937
-8.88331
-8.11291
-7.40683
-7.34054
-5.26706
-11.6269
-10.1657
-10.1712
-10.8336
-4.10392
-7.68839
-15.4486
-15.5688
-6.38282
-13.2037
-10.7448
-11.5915
-7.26572
-14.1247
-13.7803
-5.54033
-8.24512
-7.61143
-7.40049
-3.93034
-4.97936
-7.61206
-13.6612
-17.2062
-6.80638
-11.9611
-11.6058
-10.6416
-8.41287
-10.3301
-13.9194
-10.145
-5.69371
-7.72526
-7.2838
-7.49907
-11.0722
-11.5621
-11.6528
-11.9037
-11.8662
-6.412
-12.1631
-7.84875
-11.3559
0.0639244
-10.8526
-14.4377
-8.09317
-1.99472
-9.20031
-8.48957
-16.1575
-5.92031
-12.1703
-8.97366
-2.86314
-15.253
-4.35148
-8.55185
-9.37004
-4.0517
-13.2091
-10.3802
-8.41074
-9.65934
-10.3449
-8.54136
-16.4449
-4.47683
-7.51777
1.37695
-7.87953
-8.12324
-9.53625
-13.1649
-20.5794
-3.62188
-7.56833
-18.9243
-4.38875
-11.7902
-6.26901
-11.5802
-1.58134
-5.93983
-18.754
-2.53518
-17.6231
-3.35887
-15.8955
-2.92866
-5.85784
0.840848
-4.48625
-18.0432
-0.494567
-8.8923
-2.51205
-14.7292
-18.1107
-0.764722
-8.1487
-6.90543
-5.70758
-5.54344
-7.64231
-9.42555
-9.40363
-11.4477
-9.014
-14.8759
-19.3362
-0.654311
-9.39181
-10.8344
-9.42011
-10.0126
-8.7588
-8.11054
-8.73849
-12.4676
-8.8623
-12.5662
-7.45051
-10.1536
-14.442
-8.05701
-11.2591
-13.2876
-7.42792
-10.1536
-8.98196
-11.3861
-8.5712
-9.74085
-8.18914
-13.0355
-7.75732
-10.6137
-3.30067
-15.0995
-1.00144
-10.5887
-12.8272
-15.3116
-6.03489
-9.92365
-9.02828
-9.91998
-9.54336
-8.85299
-12.3891
-5.44643
2.59428
-8.13545
-2.05707
-13.4582
-6.12856
-9.29027
-11.6914
1.96223
-14.1641
-5.25469
0.333038
-5.79886
-11.8225
-11.5038
-9.49948
-0.58328
-9.41884
-10.1475
-6.75825
-6.16077
-13.6104
-12.9195
-7.16824
-9.61445
-13.6392
-0.704737
-12.3764
-6.05452
-11.275
-1.17658
-17.1634
-16.7424
-12.8941
-9.40034
-8.11615
-11.663
-7.90815
-0.51022
-5.0789
-11.9829
-6.28165
-10.9382
-1.9561
-13.3322
-11.2668
4.40932
-9.44957
-10.4018
1.62644
-14.307
-3.17395
-13.5352
-15.1655
-12.2914
0.182159
-9.70384
-8.30152
-9.50526
-9.81458
-10.9683
-0.782097
-7.35599
-6.40291
-6.42813
-13.1894
-9.2211
-10.4768
-11.5173
-11.2682
-8.23162
-9.86573
-8.47417
-10.5752
-13.7338
-7.15261
-8.01885
-6.8893
-9.75947
-12.7769
-7.09211
-7.8888
-7.49453
-9.28873
-6.37449
-6.72982
-7.85008
-8.19317
-9.78147
-7.7129
-15.0409
-12.4011
-2.35657
-2.48958
-14.3025
5.49744
-12.0966
-10.1139
-6.36027
-8.20771
-14.501
1.97236
-13.4365
-10.4768
-0.194925
-7.55803
-6.74494
-9.26702
2.44667
-14.2647
-10.6231
1.82059
-13.8914
-13.9751
-1.39704
-15.3576
-12.8988
-1.52109
-6.86112
-6.39446
1.86209
-9.40038
-9.91741
-5.15018
-6.05567
-5.67229
4.07285
-5.94542
2.28765
4.67019
-13.0897
-6.87077
-18.0556
-7.14816
-0.7235
-14.3467
-8.49932
0.925555
-7.14093
-6.91457
1.0345
-2.49377
-14.0312
6.97205
-5.11778
-4.28593
5.52453
-13.427
-12.5537
-9.36577
-7.79287
-6.83277
-5.15346
3.15469
-9.51324
-7.87208
-8.07961
-9.38112
0.333587
-11.8747
-7.16648
-8.83999
-6.7443
-8.6819
-9.75355
-4.86805
-0.078976
-7.64261
-9.94466
-7.07031
-7.7794
-8.98694
-6.0359
-7.98788
0.550714
-7.16758
-10.4386
-6.81523
-8.24388
-6.17143
-0.230981
-14.4356
-14.2614
-13.8527
-15.3681
-1.34511
1.56249
-7.25785
-12.1171
-9.89609
-11.7397
-12.4565
-5.13268
-4.15315
1.39879
-0.762785
-6.00725
-8.90394
-8.61363
-8.40696
-4.18086
-13.1523
-10.5071
-1.6174
-5.81503
-4.93894
-12.3604
-6.12814
3.19989
-8.90531
-9.1647
-13.3928
0.721682
-6.82592
-9.80796
-7.43401
-8.21819
-11.5709
-8.79154
-5.25366
-15.852
4.78669
-3.42246
-8.33587
-6.08055
-7.66749
-15.2971
-10.6704
-9.21424
-3.59395
-14.4941
-7.3363
-9.74189
-12.4445
-13.3947
-13.023
-13.3624
-14.9542
-15.9887
-14.7676
-14.7839
-9.28436
-12.6694
-7.13813
-8.20182
-4.04102
-2.83597
3.94634
-15.4904
-15.1886
-13.8351
-7.99196
-9.78132
-9.47455
-6.22904
-10.0343
-12.5978
-5.40991
-8.46071
-11.3499
-6.83513
-7.24324
-7.01047
-7.9287
-6.00135
-7.78262
-7.39501
-1.20201
-9.76497
-5.48686
-8.4241
1.03418
-15.4623
-8.63176
-6.53929
-5.83026
-1.72678
-9.14232
-6.6672
1.79659
-3.44446
-8.52012
-2.66802
-3.82083
-16.1989
-16.7092
-7.43906
-7.48202
-11.9558
-15.2229
1.91511
-6.16997
-5.99769
-7.69492
-7.66104
-8.05001
-8.74016
-4.06831
-0.376609
-14.2462
-7.55234
-3.13927
-3.97919
-7.43513
-9.27969
-1.81365
-8.14782
-6.20759
-7.1359
-15.3063
-3.27987
-0.548289
-7.6561
-6.7921
-5.98735
-0.496723
-13.4357
-7.36603
-7.16813
-7.39871
1.73422
-7.43343
-7.64917
-0.730319
-7.31216
-3.41814
-10.5239
-14.1026
-6.21358
-12.6606
-10.3172
-6.38168
-6.54832
-7.80175
-0.51041
-10.2305
-10.8749
-6.95818
0.729997
-4.82555
-8.29596
-8.62536
-6.28989
-0.0203741
-6.47656
-13.4077
-10.3288
-6.57955
-16.0603
-3.30563
-12.3942
1.55212
-3.05285
-12.7862
1.72522
-13.0935
-6.50234
-9.25834
-7.15241
-16.5617
-4.37345
-9.37004
-15.3222
-14.4608
-2.2617
-14.128
-15.3197
5.24143
-8.16146
-6.75063
1.27611
-10.835
-6.64757
-7.18404
-7.20105
-8.81029
-8.09376
-6.96543
-6.56521
1.57225
-10.8172
-9.24897
-8.98317
-9.71797
-7.99018
-6.35928
-4.8888
-11.8498
2.94981
-5.876
-5.65146
2.52851
-12.8604
-15.768
-8.53972
-13.8258
-14.4727
-6.15653
-6.3352
-10.7278
-13.7762
-6.00002
-11.3048
-3.95281
1.2495
-11.9832
-5.44604
-13.3941
-16.0305
-15.1639
0.722924
-12.508
-9.39544
-5.23142
-6.91626
-7.68074
-6.69557
0.535923
-13.7231
0.219643
-13.5528
-7.92001
-3.95469
-3.08272
-8.00104
-11.4917
-14.8144
-9.07956
-17.4911
-12.1017
-13.1406
1.92871
-12.6232
-11.7103
-13.4195
-6.14908
-5.34723
3.00575
-8.55352
-17.1089
-13.8711
-0.262643
-4.28378
0.304519
-6.14232
-8.75438
-3.83265
-19.7822
-7.20636
-4.31264
-0.507276
-10.2661
-5.45063
2.33064
-8.20943
-6.59679
-6.75114
-6.91316
-6.9846
-0.599306
-3.9323
1.21319
-6.65015
-12.0588
-10.5627
-14.1292
-13.4047
-5.8867
-4.90387
1.61555
-6.41758
-11.5277
-14.612
-12.0798
-12.3816
-3.1717
2.63485
-4.45753
3.34461
-11.9187
-12.2941
-4.91569
-13.0126
-11.8155
-14.151
-10.0024
-9.27292
-9.13214
-5.88611
1.80858
-4.6547
0.769899
-3.65329
-6.91924
-6.28342
-1.22415
0.788578
-11.2313
-17.156
-16.0738
-15.1684
-9.00915
-11.0674
-10.8809
-8.55115
-6.89311
-8.55274
-5.20975
-7.8966
-7.94067
0.736599
-11.7941
-7.53788
-4.31235
-1.05162
-6.5239
-8.89723
-8.84294
-6.30399
-1.09979
-14.8594
-10.1998
-6.71123
-15.945
-5.38575
1.14607
-10.58
-7.92126
-7.97374
-7.97465
-6.43081
3.0122
-7.95048
-7.83867
0.14351
-14.5479
-7.35902
6.93043
-6.89776
-8.68771
-9.01851
-6.40064
0.55729
-5.70385
-5.95746
-2.82997
-8.1969
1.56884
-8.42551
-8.13813
-2.40619
-15.8154
-7.80945
-0.723901
-16.8552
-8.58203
-8.57883
-0.968981
-8.1376
0.254712
)
;
    }
}


// ************************************************************************* //
