/*--------------------------------*- C++ -*----------------------------------*\
| =========                 |                                                 |
| \\      /  F ield         | OpenFOAM: The Open Source CFD Toolbox           |
|  \\    /   O peration     | Version:  v1912                                 |
|   \\  /    A nd           | Website:  www.openfoam.com                      |
|    \\/     M anipulation  |                                                 |
\*---------------------------------------------------------------------------*/
FoamFile
{
    version     2.0;
    format      ascii;
    class       volVectorField;
    location    "376/oil";
    object      U;
}
// * * * * * * * * * * * * * * * * * * * * * * * * * * * * * * * * * * * * * //

dimensions      [0 1 -1 0 0 0 0];


internalField   nonuniform List<vector> 
35580
(
(-1.2266e-09 2.44077e-09 -1.25092e-09)
(1.25138e-09 2.21846e-09 -3.00362e-09)
(1.15249e-08 2.18801e-09 -4.8311e-09)
(2.77036e-08 2.73244e-09 -6.68151e-09)
(4.73733e-08 3.60176e-09 -8.17172e-09)
(6.778e-08 4.6255e-09 -9.17494e-09)
(8.63764e-08 5.70613e-09 -9.68141e-09)
(1.00951e-07 6.79769e-09 -9.74809e-09)
(1.09696e-07 7.87203e-09 -9.46113e-09)
(1.1141e-07 8.90086e-09 -8.9013e-09)
(1.05434e-07 9.83015e-09 -8.14245e-09)
(9.18187e-08 1.06166e-08 -7.38491e-09)
(7.13904e-08 1.12328e-08 -6.68121e-09)
(4.543e-08 1.17011e-08 -6.17947e-09)
(1.59371e-08 1.19588e-08 -5.917e-09)
(-1.48446e-08 1.19898e-08 -5.92227e-09)
(-4.44267e-08 1.17204e-08 -6.17919e-09)
(-7.04421e-08 1.12441e-08 -6.66606e-09)
(-9.0998e-08 1.0589e-08 -7.3392e-09)
(-1.04741e-07 9.81757e-09 -8.1072e-09)
(-1.10933e-07 8.90369e-09 -8.85806e-09)
(-1.0939e-07 7.86244e-09 -9.44304e-09)
(-1.00748e-07 6.78742e-09 -9.72923e-09)
(-8.62705e-08 5.69874e-09 -9.67183e-09)
(-6.77449e-08 4.61781e-09 -9.16738e-09)
(-4.73953e-08 3.59722e-09 -8.16468e-09)
(-2.77604e-08 2.72831e-09 -6.67065e-09)
(-1.15901e-08 2.17755e-09 -4.80983e-09)
(-1.30775e-09 2.19613e-09 -2.97708e-09)
(1.20095e-09 2.39526e-09 -1.23123e-09)
(6.3042e-10 -2.2924e-09 6.15769e-10)
(1.26512e-08 -1.4002e-08 5.31725e-10)
(3.68578e-08 -2.33482e-08 -3.15546e-10)
(7.05833e-08 -2.84196e-08 -1.42339e-09)
(1.09826e-07 -3.00275e-08 -2.24075e-09)
(1.49875e-07 -2.90376e-08 -2.52261e-09)
(1.86006e-07 -2.6165e-08 -2.21195e-09)
(2.13963e-07 -2.19455e-08 -1.35112e-09)
(2.30217e-07 -1.68335e-08 -4.24466e-11)
(2.32287e-07 -1.12558e-08 1.5634e-09)
(2.1881e-07 -5.6584e-09 3.44289e-09)
(1.89816e-07 -5.25072e-10 5.2054e-09)
(1.47102e-07 3.71033e-09 6.75418e-09)
(9.34757e-08 6.80375e-09 7.8662e-09)
(3.27678e-08 8.44501e-09 8.45321e-09)
(-3.05629e-08 8.47991e-09 8.47229e-09)
(-9.14735e-08 6.7714e-09 7.89348e-09)
(-1.45195e-07 3.61675e-09 6.81565e-09)
(-1.87925e-07 -7.11115e-10 5.30617e-09)
(-2.17011e-07 -5.78672e-09 3.54521e-09)
(-2.30855e-07 -1.13762e-08 1.69719e-09)
(-2.29097e-07 -1.69448e-08 5.06749e-11)
(-2.13098e-07 -2.20209e-08 -1.26324e-09)
(-1.85424e-07 -2.62123e-08 -2.14256e-09)
(-1.49537e-07 -2.90845e-08 -2.46452e-09)
(-1.09687e-07 -3.00912e-08 -2.18856e-09)
(-7.05859e-08 -2.85178e-08 -1.381e-09)
(-3.69128e-08 -2.34835e-08 -2.79104e-10)
(-1.26849e-08 -1.41416e-08 5.52045e-10)
(-6.37028e-10 -2.40966e-09 6.05996e-10)
(2.47157e-09 -2.25769e-08 2.46863e-09)
(2.48284e-08 -5.97738e-08 4.37279e-09)
(6.0777e-08 -8.73251e-08 4.77467e-09)
(1.07006e-07 -1.04848e-07 4.71493e-09)
(1.58652e-07 -1.14176e-07 4.80904e-09)
(2.10318e-07 -1.17077e-07 5.34075e-09)
(2.56331e-07 -1.15078e-07 6.41131e-09)
(2.91423e-07 -1.09422e-07 8.0115e-09)
(3.11162e-07 -1.01186e-07 1.00414e-08)
(3.12399e-07 -9.13721e-08 1.2322e-08)
(2.9332e-07 -8.09844e-08 1.48387e-08)
(2.53869e-07 -7.11049e-08 1.71697e-08)
(1.96405e-07 -6.28166e-08 1.91409e-08)
(1.24665e-07 -5.68134e-08 2.05663e-08)
(4.367e-08 -5.36382e-08 2.13232e-08)
(-4.08301e-08 -5.36512e-08 2.13733e-08)
(-1.22152e-07 -5.6971e-08 2.06049e-08)
(-1.94013e-07 -6.31575e-08 1.91986e-08)
(-2.51426e-07 -7.15706e-08 1.72275e-08)
(-2.91079e-07 -8.13832e-08 1.49382e-08)
(-3.10633e-07 -9.17326e-08 1.24472e-08)
(-3.09769e-07 -1.01455e-07 1.01235e-08)
(-2.90358e-07 -1.09606e-07 8.08994e-09)
(-2.55601e-07 -1.15207e-07 6.48299e-09)
(-2.09891e-07 -1.17191e-07 5.4053e-09)
(-1.5847e-07 -1.14316e-07 4.87257e-09)
(-1.06988e-07 -1.05048e-07 4.7689e-09)
(-6.08268e-08 -8.75883e-08 4.81167e-09)
(-2.48793e-08 -6.00238e-08 4.37791e-09)
(-2.49281e-09 -2.27329e-08 2.44426e-09)
(3.95107e-09 -5.59713e-08 3.94089e-09)
(3.50379e-08 -1.30468e-07 7.30407e-09)
(8.08114e-08 -1.82928e-07 8.56149e-09)
(1.36884e-07 -2.17761e-07 9.20416e-09)
(1.97642e-07 -2.38655e-07 9.95344e-09)
(2.57298e-07 -2.48482e-07 1.10876e-08)
(3.09727e-07 -2.49661e-07 1.2717e-08)
(3.49176e-07 -2.44213e-07 1.48432e-08)
(3.70719e-07 -2.33947e-07 1.73741e-08)
(3.7078e-07 -2.20552e-07 2.01254e-08)
(3.47225e-07 -2.05733e-07 2.30336e-08)
(3.00009e-07 -1.91121e-07 2.57324e-08)
(2.31871e-07 -1.78564e-07 2.80326e-08)
(1.47009e-07 -1.69332e-07 2.96563e-08)
(5.14515e-08 -1.64468e-07 3.05062e-08)
(-4.82422e-08 -1.64541e-07 3.057e-08)
(-1.44225e-07 -1.69537e-07 2.96738e-08)
(-2.29149e-07 -1.78906e-07 2.80448e-08)
(-2.97241e-07 -1.91494e-07 2.57594e-08)
(-3.44681e-07 -2.06049e-07 2.31002e-08)
(-3.68687e-07 -2.20837e-07 2.01853e-08)
(-3.69026e-07 -2.34153e-07 1.74077e-08)
(-3.47868e-07 -2.44356e-07 1.48806e-08)
(-3.08792e-07 -2.49759e-07 1.27558e-08)
(-2.56706e-07 -2.48582e-07 1.11313e-08)
(-1.97355e-07 -2.38812e-07 1.00051e-08)
(-1.36817e-07 -2.18008e-07 9.24332e-09)
(-8.08431e-08 -1.83236e-07 8.57196e-09)
(-3.51027e-08 -1.3073e-07 7.2799e-09)
(-3.98686e-09 -5.61742e-08 3.90107e-09)
(4.99894e-09 -9.96748e-08 4.98701e-09)
(4.27457e-08 -2.20801e-07 9.3308e-09)
(9.62559e-08 -3.03241e-07 1.11294e-08)
(1.60033e-07 -3.58739e-07 1.22111e-08)
(2.27733e-07 -3.93838e-07 1.33674e-08)
(2.93277e-07 -4.12832e-07 1.49152e-08)
(3.50275e-07 -4.19132e-07 1.69487e-08)
(3.92721e-07 -4.15554e-07 1.94831e-08)
(4.15409e-07 -4.04641e-07 2.24238e-08)
(4.14504e-07 -3.88789e-07 2.559e-08)
(3.87674e-07 -3.70397e-07 2.88331e-08)
(3.34765e-07 -3.51654e-07 3.18716e-08)
(2.58588e-07 -3.35128e-07 3.44877e-08)
(1.63833e-07 -3.22716e-07 3.62951e-08)
(5.73146e-08 -3.16199e-07 3.72402e-08)
(-5.38179e-08 -3.16305e-07 3.73176e-08)
(-1.60825e-07 -3.22883e-07 3.63184e-08)
(-2.5552e-07 -3.3525e-07 3.44915e-08)
(-3.31697e-07 -3.51753e-07 3.19283e-08)
(-3.84891e-07 -3.70458e-07 2.88999e-08)
(-4.12195e-07 -3.88846e-07 2.56389e-08)
(-4.13549e-07 -4.04684e-07 2.24603e-08)
(-3.91278e-07 -4.156e-07 1.95239e-08)
(-3.49223e-07 -4.19183e-07 1.69895e-08)
(-2.92576e-07 -4.12921e-07 1.49515e-08)
(-2.2735e-07 -3.93989e-07 1.34034e-08)
(-1.59908e-07 -3.58987e-07 1.22232e-08)
(-9.62726e-08 -3.03523e-07 1.11008e-08)
(-4.2832e-08 -2.20955e-07 9.25598e-09)
(-5.05602e-09 -9.99125e-08 4.92369e-09)
(5.66872e-09 -1.50708e-07 5.68282e-09)
(4.80251e-08 -3.25271e-07 1.06333e-08)
(1.07138e-07 -4.41477e-07 1.27368e-08)
(1.76551e-07 -5.20051e-07 1.40747e-08)
(2.493e-07 -5.71208e-07 1.54822e-08)
(3.19103e-07 -6.01061e-07 1.73074e-08)
(3.7941e-07 -6.14122e-07 1.96486e-08)
(4.2407e-07 -6.1402e-07 2.2533e-08)
(4.47694e-07 -6.04006e-07 2.58555e-08)
(4.46244e-07 -5.87127e-07 2.94408e-08)
(4.1731e-07 -5.66445e-07 3.30595e-08)
(3.60527e-07 -5.4475e-07 3.65017e-08)
(2.7845e-07 -5.25056e-07 3.9461e-08)
(1.76367e-07 -5.09916e-07 4.14971e-08)
(6.1659e-08 -5.01937e-07 4.25455e-08)
(-5.79668e-08 -5.02028e-07 4.26183e-08)
(-1.73217e-07 -5.10059e-07 4.15051e-08)
(-2.75141e-07 -5.24965e-07 3.94603e-08)
(-3.57235e-07 -5.44698e-07 3.65921e-08)
(-4.1436e-07 -5.66376e-07 3.31457e-08)
(-4.43803e-07 -5.87062e-07 2.95084e-08)
(-4.45736e-07 -6.03959e-07 2.59137e-08)
(-4.22551e-07 -6.14016e-07 2.25896e-08)
(-3.78299e-07 -6.14153e-07 1.97103e-08)
(-3.18343e-07 -6.01144e-07 1.73543e-08)
(-2.4885e-07 -5.7134e-07 1.55192e-08)
(-1.76369e-07 -5.20247e-07 1.40714e-08)
(-1.07139e-07 -4.41662e-07 1.26742e-08)
(-4.81452e-08 -3.2527e-07 1.05125e-08)
(-5.75288e-09 -1.5097e-07 5.59773e-09)
(6.05155e-09 -2.06399e-07 6.07244e-09)
(5.11457e-08 -4.38998e-07 1.13514e-08)
(1.13684e-07 -5.91542e-07 1.36371e-08)
(1.86557e-07 -6.9484e-07 1.5117e-08)
(2.62418e-07 -7.63431e-07 1.66817e-08)
(3.34858e-07 -8.05547e-07 1.87183e-08)
(3.97274e-07 -8.26933e-07 2.13181e-08)
(4.43451e-07 -8.32042e-07 2.45242e-08)
(4.67889e-07 -8.24776e-07 2.82179e-08)
(4.66392e-07 -8.08747e-07 3.22243e-08)
(4.36456e-07 -7.8756e-07 3.62592e-08)
(3.77484e-07 -7.64592e-07 4.01146e-08)
(2.91694e-07 -7.43109e-07 4.34574e-08)
(1.84757e-07 -7.25999e-07 4.57431e-08)
(6.45473e-08 -7.16857e-07 4.68722e-08)
(-6.07171e-08 -7.16898e-07 4.69471e-08)
(-1.8153e-07 -7.26192e-07 4.57286e-08)
(-2.88281e-07 -7.42931e-07 4.3473e-08)
(-3.74082e-07 -7.64531e-07 4.02441e-08)
(-4.33421e-07 -7.87495e-07 3.63807e-08)
(-4.63892e-07 -8.08679e-07 3.23228e-08)
(-4.65894e-07 -8.24736e-07 2.83025e-08)
(-4.41904e-07 -8.32053e-07 2.45992e-08)
(-3.96141e-07 -8.26981e-07 2.13943e-08)
(-3.34073e-07 -8.05629e-07 1.87703e-08)
(-2.6193e-07 -7.63528e-07 1.67213e-08)
(-1.86333e-07 -6.94937e-07 1.50965e-08)
(-1.1366e-07 -5.91522e-07 1.35345e-08)
(-5.12765e-08 -4.38753e-07 1.12003e-08)
(-6.14402e-09 -2.06728e-07 5.98191e-09)
(6.1676e-09 -2.64351e-07 6.21366e-09)
(5.22289e-08 -5.57411e-07 1.1608e-08)
(1.15977e-07 -7.47646e-07 1.39702e-08)
(1.9e-07 -8.76613e-07 1.55267e-08)
(2.66831e-07 -9.63634e-07 1.71839e-08)
(3.40072e-07 -1.01928e-06 1.93697e-08)
(4.0319e-07 -1.05058e-06 2.21934e-08)
(4.50028e-07 -1.06284e-06 2.56913e-08)
(4.75061e-07 -1.06051e-06 2.97392e-08)
(4.73974e-07 -1.04766e-06 3.41656e-08)
(4.44145e-07 -1.02834e-06 3.86502e-08)
(3.8475e-07 -1.0063e-06 4.29001e-08)
(2.97515e-07 -9.84841e-07 4.66483e-08)
(1.88331e-07 -9.66684e-07 4.92061e-08)
(6.57351e-08 -9.56971e-07 5.045e-08)
(-6.19727e-08 -9.5718e-07 5.05737e-08)
(-1.85204e-07 -9.67203e-07 4.92124e-08)
(-2.94166e-07 -9.84801e-07 4.67079e-08)
(-3.81345e-07 -1.00635e-06 4.30358e-08)
(-4.41114e-07 -1.02838e-06 3.87637e-08)
(-4.7146e-07 -1.04768e-06 3.42613e-08)
(-4.73052e-07 -1.06054e-06 2.98229e-08)
(-4.48463e-07 -1.06292e-06 2.57639e-08)
(-4.02027e-07 -1.05071e-06 2.22705e-08)
(-3.39246e-07 -1.01941e-06 1.94238e-08)
(-2.66298e-07 -9.63748e-07 1.72048e-08)
(-1.8973e-07 -8.76628e-07 1.54679e-08)
(-1.15924e-07 -7.47391e-07 1.38377e-08)
(-5.23527e-08 -5.56903e-07 1.14554e-08)
(-6.26805e-09 -2.64841e-07 6.13417e-09)
(6.06786e-09 -3.22426e-07 6.11318e-09)
(5.13649e-08 -6.76068e-07 1.14121e-08)
(1.1398e-07 -9.04197e-07 1.37603e-08)
(1.86606e-07 -1.0591e-06 1.53712e-08)
(2.61952e-07 -1.16501e-06 1.70889e-08)
(3.3383e-07 -1.23514e-06 1.93365e-08)
(3.95907e-07 -1.27787e-06 2.22982e-08)
(4.42232e-07 -1.29925e-06 2.60054e-08)
(4.67385e-07 -1.30422e-06 3.03264e-08)
(4.66999e-07 -1.29714e-06 3.50988e-08)
(4.38328e-07 -1.28228e-06 3.99751e-08)
(3.80422e-07 -1.26349e-06 4.45666e-08)
(2.94465e-07 -1.24411e-06 4.8616e-08)
(1.86252e-07 -1.22656e-06 5.14731e-08)
(6.50286e-08 -1.21742e-06 5.29231e-08)
(-6.13702e-08 -1.21765e-06 5.30429e-08)
(-1.83219e-07 -1.22698e-06 5.14203e-08)
(-2.91198e-07 -1.24401e-06 4.86608e-08)
(-3.77042e-07 -1.2636e-06 4.46883e-08)
(-4.35363e-07 -1.28243e-06 4.00784e-08)
(-4.64522e-07 -1.29724e-06 3.51976e-08)
(-4.65416e-07 -1.30433e-06 3.0414e-08)
(-4.407e-07 -1.29944e-06 2.60777e-08)
(-3.94746e-07 -1.27812e-06 2.23693e-08)
(-3.32985e-07 -1.23537e-06 1.93667e-08)
(-2.61403e-07 -1.1651e-06 1.70377e-08)
(-1.863e-07 -1.05884e-06 1.52482e-08)
(-1.13878e-07 -9.03497e-07 1.36093e-08)
(-5.1438e-08 -6.75233e-07 1.12651e-08)
(-6.14913e-09 -3.23005e-07 6.03188e-09)
(5.74853e-09 -3.78415e-07 5.74137e-09)
(4.85128e-08 -7.90476e-07 1.07208e-08)
(1.07585e-07 -1.05541e-06 1.29363e-08)
(1.76073e-07 -1.23581e-06 1.45467e-08)
(2.47189e-07 -1.36052e-06 1.63181e-08)
(3.15162e-07 -1.44549e-06 1.85778e-08)
(3.7409e-07 -1.50076e-06 2.15545e-08)
(4.18387e-07 -1.53297e-06 2.5331e-08)
(4.42915e-07 -1.54737e-06 2.97562e-08)
(4.43375e-07 -1.5485e-06 3.46938e-08)
(4.16915e-07 -1.54066e-06 3.97919e-08)
(3.62447e-07 -1.52746e-06 4.46191e-08)
(2.808e-07 -1.51199e-06 4.87431e-08)
(1.77452e-07 -1.49676e-06 5.17945e-08)
(6.19832e-08 -1.48937e-06 5.34758e-08)
(-5.86475e-08 -1.48959e-06 5.35982e-08)
(-1.74671e-07 -1.49684e-06 5.17371e-08)
(-2.77582e-07 -1.51114e-06 4.87646e-08)
(-3.59072e-07 -1.52702e-06 4.47409e-08)
(-4.14037e-07 -1.5407e-06 3.98864e-08)
(-4.40932e-07 -1.54868e-06 3.47962e-08)
(-4.41e-07 -1.54757e-06 2.98423e-08)
(-4.16916e-07 -1.53329e-06 2.5397e-08)
(-3.72949e-07 -1.50117e-06 2.16315e-08)
(-3.14297e-07 -1.44579e-06 1.86004e-08)
(-2.46589e-07 -1.36035e-06 1.62684e-08)
(-1.75672e-07 -1.23502e-06 1.45181e-08)
(-1.07348e-07 -1.0542e-06 1.29469e-08)
(-4.84783e-08 -7.89412e-07 1.07327e-08)
(-5.78716e-09 -3.791e-07 5.73474e-09)
(5.20442e-09 -4.29995e-07 5.12268e-09)
(4.36157e-08 -8.95754e-07 9.60759e-09)
(9.66903e-08 -1.19486e-06 1.1581e-08)
(1.58162e-07 -1.39952e-06 1.30627e-08)
(2.22066e-07 -1.54243e-06 1.48149e-08)
(2.83317e-07 -1.64194e-06 1.70283e-08)
(3.36717e-07 -1.71014e-06 1.9889e-08)
(3.7718e-07 -1.75426e-06 2.35224e-08)
(4.00056e-07 -1.77962e-06 2.77744e-08)
(4.01256e-07 -1.79074e-06 3.26011e-08)
(3.77822e-07 -1.79167e-06 3.76545e-08)
(3.28779e-07 -1.7855e-06 4.24715e-08)
(2.54991e-07 -1.77566e-06 4.64533e-08)
(1.61348e-07 -1.76517e-06 4.95259e-08)
(5.64248e-08 -1.76028e-06 5.1275e-08)
(-5.34355e-08 -1.76055e-06 5.14308e-08)
(-1.58817e-07 -1.76512e-06 4.9539e-08)
(-2.51928e-07 -1.77465e-06 4.63782e-08)
(-3.25786e-07 -1.78524e-06 4.24795e-08)
(-3.7531e-07 -1.79185e-06 3.76588e-08)
(-3.98952e-07 -1.79102e-06 3.26911e-08)
(-3.98252e-07 -1.77986e-06 2.78672e-08)
(-3.75838e-07 -1.75467e-06 2.35789e-08)
(-3.35687e-07 -1.71073e-06 1.99795e-08)
(-2.82575e-07 -1.64216e-06 1.70539e-08)
(-2.21538e-07 -1.54153e-06 1.47614e-08)
(-1.57718e-07 -1.39774e-06 1.30016e-08)
(-9.63073e-08 -1.19288e-06 1.14713e-08)
(-4.34515e-08 -8.94263e-07 9.48503e-09)
(-5.15721e-09 -4.30585e-07 5.09653e-09)
(4.40802e-09 -4.74884e-07 4.26295e-09)
(3.66083e-08 -9.86908e-07 8.02301e-09)
(8.1107e-08 -1.31537e-06 9.7161e-09)
(1.32872e-07 -1.54176e-06 1.10488e-08)
(1.86704e-07 -1.70173e-06 1.26599e-08)
(2.38327e-07 -1.81518e-06 1.47424e-08)
(2.83614e-07 -1.89592e-06 1.73574e-08)
(3.18236e-07 -1.95211e-06 2.05899e-08)
(3.38243e-07 -1.98894e-06 2.43115e-08)
(3.39874e-07 -2.01044e-06 2.85973e-08)
(3.20328e-07 -2.02007e-06 3.30715e-08)
(2.78812e-07 -2.02156e-06 3.73429e-08)
(2.16336e-07 -2.01908e-06 4.10643e-08)
(1.37282e-07 -2.01517e-06 4.40493e-08)
(4.80777e-08 -2.01338e-06 4.57191e-08)
(-4.55224e-08 -2.01352e-06 4.58838e-08)
(-1.35185e-07 -2.01491e-06 4.42542e-08)
(-2.13858e-07 -2.01893e-06 4.13264e-08)
(-2.76473e-07 -2.02359e-06 3.78378e-08)
(-3.1816e-07 -2.02171e-06 3.33765e-08)
(-3.37732e-07 -2.01109e-06 2.87987e-08)
(-3.36602e-07 -1.98911e-06 2.43558e-08)
(-3.17109e-07 -1.95246e-06 2.03857e-08)
(-2.82721e-07 -1.89647e-06 1.70583e-08)
(-2.37613e-07 -1.81496e-06 1.43852e-08)
(-1.86024e-07 -1.70005e-06 1.23496e-08)
(-1.3228e-07 -1.5394e-06 1.08517e-08)
(-8.07586e-08 -1.31325e-06 9.61034e-09)
(-3.64903e-08 -9.85155e-07 7.98672e-09)
(-4.35004e-09 -4.75273e-07 4.32423e-09)
(3.44879e-09 -5.1067e-07 3.10795e-09)
(2.79807e-08 -1.05927e-06 5.81267e-09)
(6.15213e-08 -1.41088e-06 7.11209e-09)
(1.00803e-07 -1.65469e-06 8.14302e-09)
(1.41791e-07 -1.8291e-06 9.32139e-09)
(1.81182e-07 -1.95522e-06 1.09376e-08)
(2.15789e-07 -2.04734e-06 1.30913e-08)
(2.42379e-07 -2.11442e-06 1.58665e-08)
(2.58254e-07 -2.16169e-06 1.90564e-08)
(2.60105e-07 -2.19233e-06 2.25558e-08)
(2.45163e-07 -2.21032e-06 2.59706e-08)
(2.13181e-07 -2.22083e-06 2.93907e-08)
(1.65776e-07 -2.22689e-06 3.2696e-08)
(1.05706e-07 -2.22875e-06 3.51776e-08)
(3.72768e-08 -2.22937e-06 3.64526e-08)
(-3.45342e-08 -2.22874e-06 3.63475e-08)
(-1.03574e-07 -2.22699e-06 3.49635e-08)
(-1.63902e-07 -2.22562e-06 3.24892e-08)
(-2.11776e-07 -2.22316e-06 2.95119e-08)
(-2.43357e-07 -2.21221e-06 2.59659e-08)
(-2.57981e-07 -2.19281e-06 2.23781e-08)
(-2.56767e-07 -2.16141e-06 1.89017e-08)
(-2.41515e-07 -2.11439e-06 1.57669e-08)
(-2.15003e-07 -2.04742e-06 1.31051e-08)
(-1.80569e-07 -1.95457e-06 1.09765e-08)
(-1.41357e-07 -1.8277e-06 9.38289e-09)
(-1.00555e-07 -1.6536e-06 8.23916e-09)
(-6.13846e-08 -1.41064e-06 7.30284e-09)
(-2.77065e-08 -1.05887e-06 6.06502e-09)
(-3.3127e-09 -5.11552e-07 3.26077e-09)
(2.1859e-09 -5.36216e-07 2.01895e-09)
(1.76865e-08 -1.1104e-06 3.73926e-09)
(3.88403e-08 -1.47841e-06 4.4697e-09)
(6.36843e-08 -1.73358e-06 5.0052e-09)
(8.93924e-08 -1.9176e-06 5.69673e-09)
(1.14065e-07 -2.053e-06 6.75543e-09)
(1.35778e-07 -2.15385e-06 8.20131e-09)
(1.524e-07 -2.22935e-06 1.00843e-08)
(1.62599e-07 -2.28478e-06 1.23017e-08)
(1.64212e-07 -2.32279e-06 1.4652e-08)
(1.54971e-07 -2.34879e-06 1.69775e-08)
(1.35007e-07 -2.36757e-06 1.94141e-08)
(1.05325e-07 -2.3805e-06 2.16744e-08)
(6.73843e-08 -2.38682e-06 2.33579e-08)
(2.40787e-08 -2.38911e-06 2.41262e-08)
(-2.12772e-08 -2.38683e-06 2.37301e-08)
(-6.51696e-08 -2.38188e-06 2.26534e-08)
(-1.0323e-07 -2.3757e-06 2.08151e-08)
(-1.33352e-07 -2.36609e-06 1.85082e-08)
(-1.53575e-07 -2.34714e-06 1.59985e-08)
(-1.63037e-07 -2.32011e-06 1.36388e-08)
(-1.62216e-07 -2.28117e-06 1.15792e-08)
(-1.52435e-07 -2.22701e-06 9.77463e-09)
(-1.35558e-07 -2.15346e-06 8.27572e-09)
(-1.13653e-07 -2.0536e-06 7.05495e-09)
(-8.87958e-08 -1.91838e-06 6.06904e-09)
(-6.30736e-08 -1.73435e-06 5.34297e-09)
(-3.84597e-08 -1.47912e-06 4.72625e-09)
(-1.73504e-08 -1.11048e-06 3.90026e-09)
(-2.09195e-09 -5.36891e-07 2.05091e-09)
(8.06243e-10 -5.49569e-07 6.37475e-10)
(6.19383e-09 -1.13669e-06 1.2709e-09)
(1.35287e-08 -1.51382e-06 1.59731e-09)
(2.23472e-08 -1.77549e-06 1.81238e-09)
(3.14158e-08 -1.96481e-06 2.09533e-09)
(4.01714e-08 -2.10467e-06 2.53764e-09)
(4.8103e-08 -2.20898e-06 3.06205e-09)
(5.42528e-08 -2.28719e-06 3.59224e-09)
(5.79464e-08 -2.34629e-06 4.27708e-09)
(5.84958e-08 -2.38987e-06 5.21605e-09)
(5.51917e-08 -2.42208e-06 6.19342e-09)
(4.82641e-08 -2.44575e-06 7.09689e-09)
(3.76854e-08 -2.46167e-06 7.7926e-09)
(2.42253e-08 -2.47069e-06 8.52784e-09)
(9.09363e-09 -2.47503e-06 8.88083e-09)
(-6.90912e-09 -2.47273e-06 8.59777e-09)
(-2.29674e-08 -2.46654e-06 8.24493e-09)
(-3.63586e-08 -2.45799e-06 7.57521e-09)
(-4.67603e-08 -2.44478e-06 6.62383e-09)
(-5.38557e-08 -2.42117e-06 5.69018e-09)
(-5.71735e-08 -2.38844e-06 4.8335e-09)
(-5.70155e-08 -2.34389e-06 4.08159e-09)
(-5.37393e-08 -2.28534e-06 3.38433e-09)
(-4.79197e-08 -2.20849e-06 2.82499e-09)
(-4.02044e-08 -2.10529e-06 2.41647e-09)
(-3.13347e-08 -1.96588e-06 2.07954e-09)
(-2.21826e-08 -1.77664e-06 1.8234e-09)
(-1.34708e-08 -1.51496e-06 1.61026e-09)
(-6.03224e-09 -1.13744e-06 1.3665e-09)
(-6.90969e-10 -5.50113e-07 7.32456e-10)
(-5.79963e-10 -5.50116e-07 -6.83659e-10)
(-5.38444e-09 -1.13767e-06 -1.23899e-09)
(-1.21051e-08 -1.51535e-06 -1.45474e-09)
(-1.97528e-08 -1.77726e-06 -1.63702e-09)
(-2.77636e-08 -1.96678e-06 -1.8707e-09)
(-3.54782e-08 -2.10696e-06 -2.20207e-09)
(-4.22886e-08 -2.21166e-06 -2.63345e-09)
(-4.76597e-08 -2.29018e-06 -3.16872e-09)
(-5.07952e-08 -2.34927e-06 -3.84321e-09)
(-5.09593e-08 -2.39247e-06 -4.59153e-09)
(-4.77795e-08 -2.42455e-06 -5.52627e-09)
(-4.15054e-08 -2.44818e-06 -6.55909e-09)
(-3.26801e-08 -2.46379e-06 -7.41956e-09)
(-2.13126e-08 -2.47309e-06 -7.75648e-09)
(-7.59151e-09 -2.47734e-06 -7.78658e-09)
(7.12385e-09 -2.47478e-06 -7.67935e-09)
(2.06069e-08 -2.46944e-06 -7.16677e-09)
(3.30836e-08 -2.46114e-06 -6.5418e-09)
(4.26259e-08 -2.44729e-06 -5.99588e-09)
(4.84607e-08 -2.42353e-06 -5.13397e-09)
(5.151e-08 -2.39083e-06 -4.22553e-09)
(5.14656e-08 -2.34615e-06 -3.37384e-09)
(4.85704e-08 -2.28742e-06 -2.83852e-09)
(4.32591e-08 -2.21021e-06 -2.50192e-09)
(3.61693e-08 -2.10661e-06 -2.15859e-09)
(2.82827e-08 -1.9669e-06 -1.88788e-09)
(2.01138e-08 -1.77743e-06 -1.66019e-09)
(1.22936e-08 -1.51561e-06 -1.43963e-09)
(5.60602e-09 -1.13795e-06 -1.11319e-09)
(7.24548e-10 -5.50405e-07 -5.60024e-10)
(-2.01329e-09 -5.37639e-07 -1.99219e-09)
(-1.67981e-08 -1.11219e-06 -3.77343e-09)
(-3.72334e-08 -1.4816e-06 -4.58617e-09)
(-6.09791e-08 -1.73745e-06 -5.19597e-09)
(-8.58134e-08 -1.92217e-06 -5.90865e-09)
(-1.09778e-07 -2.05849e-06 -6.86554e-09)
(-1.30786e-07 -2.15999e-06 -8.12827e-09)
(-1.46865e-07 -2.23547e-06 -9.7748e-09)
(-1.56263e-07 -2.29104e-06 -1.18216e-08)
(-1.57319e-07 -2.32939e-06 -1.39679e-08)
(-1.48278e-07 -2.35592e-06 -1.63419e-08)
(-1.29069e-07 -2.375e-06 -1.88518e-08)
(-1.00951e-07 -2.38799e-06 -2.10174e-08)
(-6.48632e-08 -2.39567e-06 -2.23989e-08)
(-2.26944e-08 -2.39864e-06 -2.29321e-08)
(2.16507e-08 -2.3954e-06 -2.26224e-08)
(6.35091e-08 -2.39145e-06 -2.16073e-08)
(1.00861e-07 -2.38589e-06 -1.99661e-08)
(1.2964e-07 -2.37436e-06 -1.81185e-08)
(1.48319e-07 -2.35454e-06 -1.57292e-08)
(1.57752e-07 -2.32712e-06 -1.34565e-08)
(1.56932e-07 -2.2878e-06 -1.12579e-08)
(1.47157e-07 -2.23266e-06 -9.36412e-09)
(1.30912e-07 -2.15794e-06 -7.78588e-09)
(1.09915e-07 -2.05756e-06 -6.49734e-09)
(8.61997e-08 -1.92203e-06 -5.53642e-09)
(6.1418e-08 -1.73764e-06 -4.80691e-09)
(3.75865e-08 -1.48213e-06 -4.23906e-09)
(1.71419e-08 -1.11289e-06 -3.48727e-09)
(2.16206e-09 -5.37831e-07 -1.88616e-09)
(-3.29174e-09 -5.12905e-07 -3.17068e-09)
(-2.72606e-08 -1.06186e-06 -5.92295e-09)
(-6.02853e-08 -1.41487e-06 -7.17808e-09)
(-9.87362e-08 -1.65872e-06 -8.10607e-09)
(-1.38812e-07 -1.83366e-06 -9.221e-09)
(-1.7738e-07 -1.96143e-06 -1.07522e-08)
(-2.1127e-07 -2.05526e-06 -1.27922e-08)
(-2.37337e-07 -2.12334e-06 -1.54344e-08)
(-2.52524e-07 -2.17163e-06 -1.86506e-08)
(-2.54062e-07 -2.20309e-06 -2.20438e-08)
(-2.395e-07 -2.22168e-06 -2.55331e-08)
(-2.08226e-07 -2.23247e-06 -2.88916e-08)
(-1.62188e-07 -2.23913e-06 -3.19898e-08)
(-1.03824e-07 -2.24264e-06 -3.43193e-08)
(-3.63636e-08 -2.24406e-06 -3.55013e-08)
(3.45361e-08 -2.24153e-06 -3.52173e-08)
(1.02136e-07 -2.24009e-06 -3.38744e-08)
(1.62144e-07 -2.23926e-06 -3.15728e-08)
(2.08647e-07 -2.23295e-06 -2.87419e-08)
(2.39363e-07 -2.22062e-06 -2.52839e-08)
(2.54411e-07 -2.20137e-06 -2.18615e-08)
(2.53353e-07 -2.17058e-06 -1.84978e-08)
(2.38011e-07 -2.12339e-06 -1.54988e-08)
(2.11859e-07 -2.05586e-06 -1.28579e-08)
(1.77808e-07 -1.96271e-06 -1.07387e-08)
(1.39065e-07 -1.83525e-06 -9.13816e-09)
(9.88209e-08 -1.65998e-06 -7.84402e-09)
(6.0467e-08 -1.41604e-06 -6.8451e-09)
(2.7589e-08 -1.06305e-06 -5.60166e-09)
(3.45089e-09 -5.12805e-07 -3.01851e-09)
(-4.38475e-09 -4.77215e-07 -4.18584e-09)
(-3.62298e-08 -9.89419e-07 -7.81087e-09)
(-7.99753e-08 -1.31889e-06 -9.49635e-09)
(-1.30986e-07 -1.54598e-06 -1.07713e-08)
(-1.84179e-07 -1.70757e-06 -1.22597e-08)
(-2.35325e-07 -1.82346e-06 -1.42753e-08)
(-2.80124e-07 -1.90594e-06 -1.6922e-08)
(-3.14307e-07 -1.96302e-06 -2.01963e-08)
(-3.33893e-07 -2.0009e-06 -2.40756e-08)
(-3.35422e-07 -2.0236e-06 -2.83017e-08)
(-3.16129e-07 -2.03426e-06 -3.27685e-08)
(-2.7498e-07 -2.03641e-06 -3.6948e-08)
(-2.13567e-07 -2.0348e-06 -4.05939e-08)
(-1.3592e-07 -2.03283e-06 -4.35248e-08)
(-4.71432e-08 -2.03228e-06 -4.52816e-08)
(4.56729e-08 -2.03072e-06 -4.51407e-08)
(1.34391e-07 -2.03215e-06 -4.34933e-08)
(2.13373e-07 -2.03659e-06 -4.05524e-08)
(2.75067e-07 -2.03737e-06 -3.69112e-08)
(3.15831e-07 -2.03385e-06 -3.28202e-08)
(3.3528e-07 -2.02295e-06 -2.83876e-08)
(3.34307e-07 -2.001e-06 -2.40287e-08)
(3.14845e-07 -1.9636e-06 -2.02993e-08)
(2.80668e-07 -1.90651e-06 -1.71324e-08)
(2.35819e-07 -1.82441e-06 -1.45826e-08)
(1.8465e-07 -1.70949e-06 -1.25889e-08)
(1.31377e-07 -1.54898e-06 -1.09475e-08)
(8.01946e-08 -1.32263e-06 -9.59561e-09)
(3.62794e-08 -9.92556e-07 -7.88063e-09)
(4.38333e-09 -4.77315e-07 -4.19111e-09)
(-5.16897e-09 -4.32665e-07 -5.08107e-09)
(-4.3246e-08 -8.99252e-07 -9.49169e-09)
(-9.57148e-08 -1.1992e-06 -1.14815e-08)
(-1.56856e-07 -1.40511e-06 -1.29757e-08)
(-2.20436e-07 -1.55e-06 -1.46862e-08)
(-2.81374e-07 -1.65172e-06 -1.69578e-08)
(-3.34457e-07 -1.72143e-06 -1.98673e-08)
(-3.74648e-07 -1.76658e-06 -2.34579e-08)
(-3.97269e-07 -1.79307e-06 -2.77451e-08)
(-3.98388e-07 -1.80537e-06 -3.25136e-08)
(-3.75095e-07 -1.80729e-06 -3.75567e-08)
(-3.26289e-07 -1.80203e-06 -4.23182e-08)
(-2.53255e-07 -1.79305e-06 -4.62963e-08)
(-1.60591e-07 -1.78459e-06 -4.9379e-08)
(-5.53521e-08 -1.78059e-06 -5.13829e-08)
(5.40645e-08 -1.77945e-06 -5.13543e-08)
(1.58938e-07 -1.78408e-06 -4.96705e-08)
(2.52336e-07 -1.79434e-06 -4.65575e-08)
(3.25687e-07 -1.80275e-06 -4.23458e-08)
(3.74652e-07 -1.80765e-06 -3.76095e-08)
(3.9821e-07 -1.8056e-06 -3.25585e-08)
(3.97493e-07 -1.7935e-06 -2.77012e-08)
(3.74987e-07 -1.76721e-06 -2.34396e-08)
(3.34873e-07 -1.72213e-06 -1.98108e-08)
(2.818e-07 -1.65269e-06 -1.69169e-08)
(2.20877e-07 -1.55177e-06 -1.47452e-08)
(1.57367e-07 -1.4083e-06 -1.30405e-08)
(9.61979e-08 -1.20342e-06 -1.15077e-08)
(4.35471e-08 -9.02642e-07 -9.49833e-09)
(5.23622e-09 -4.32688e-07 -5.06665e-09)
(-5.7556e-09 -3.81132e-07 -5.75255e-09)
(-4.83588e-08 -7.94671e-07 -1.07408e-08)
(-1.07154e-07 -1.06074e-06 -1.29494e-08)
(-1.75455e-07 -1.24273e-06 -1.45192e-08)
(-2.46378e-07 -1.36928e-06 -1.62536e-08)
(-3.14216e-07 -1.4559e-06 -1.85711e-08)
(-3.73039e-07 -1.51241e-06 -2.16054e-08)
(-4.17238e-07 -1.54568e-06 -2.53736e-08)
(-4.4164e-07 -1.56115e-06 -2.98264e-08)
(-4.42013e-07 -1.56336e-06 -3.47539e-08)
(-4.155e-07 -1.55651e-06 -3.9885e-08)
(-3.61099e-07 -1.54451e-06 -4.47689e-08)
(-2.80143e-07 -1.53042e-06 -4.89526e-08)
(-1.7744e-07 -1.51708e-06 -5.19948e-08)
(-6.11131e-08 -1.50956e-06 -5.37907e-08)
(5.95016e-08 -1.50856e-06 -5.36246e-08)
(1.75578e-07 -1.51585e-06 -5.20079e-08)
(2.788e-07 -1.53016e-06 -4.89692e-08)
(3.60174e-07 -1.54443e-06 -4.4684e-08)
(4.14869e-07 -1.55667e-06 -3.98718e-08)
(4.41679e-07 -1.5636e-06 -3.47629e-08)
(4.41631e-07 -1.56158e-06 -2.98186e-08)
(4.17418e-07 -1.54627e-06 -2.53734e-08)
(3.73382e-07 -1.51311e-06 -2.1581e-08)
(3.14676e-07 -1.45674e-06 -1.85532e-08)
(2.46887e-07 -1.37042e-06 -1.62857e-08)
(1.75903e-07 -1.2446e-06 -1.45923e-08)
(1.07422e-07 -1.06348e-06 -1.30226e-08)
(4.84703e-08 -7.97175e-07 -1.07836e-08)
(5.7309e-09 -3.81183e-07 -5.75684e-09)
(-6.10269e-09 -3.25143e-07 -6.10688e-09)
(-5.14174e-08 -6.80373e-07 -1.13424e-08)
(-1.14077e-07 -9.10021e-07 -1.36407e-08)
(-1.86699e-07 -1.06655e-06 -1.52753e-08)
(-2.62028e-07 -1.17397e-06 -1.70649e-08)
(-3.33932e-07 -1.24533e-06 -1.93981e-08)
(-3.96053e-07 -1.28912e-06 -2.24163e-08)
(-4.424e-07 -1.3115e-06 -2.61406e-08)
(-4.67515e-07 -1.31744e-06 -3.05039e-08)
(-4.67037e-07 -1.31132e-06 -3.5298e-08)
(-4.38177e-07 -1.29736e-06 -4.0222e-08)
(-3.80158e-07 -1.2796e-06 -4.48932e-08)
(-2.94653e-07 -1.26133e-06 -4.89742e-08)
(-1.8661e-07 -1.24532e-06 -5.18589e-08)
(-6.42608e-08 -1.23593e-06 -5.3446e-08)
(6.24896e-08 -1.23542e-06 -5.3329e-08)
(1.84707e-07 -1.24461e-06 -5.1912e-08)
(2.93125e-07 -1.26127e-06 -4.90059e-08)
(3.79084e-07 -1.27972e-06 -4.48894e-08)
(4.3743e-07 -1.2976e-06 -4.02635e-08)
(4.66598e-07 -1.31162e-06 -3.53405e-08)
(4.67363e-07 -1.31786e-06 -3.05338e-08)
(4.42453e-07 -1.31206e-06 -2.61693e-08)
(3.96265e-07 -1.28982e-06 -2.24341e-08)
(3.34251e-07 -1.24617e-06 -1.94201e-08)
(2.62398e-07 -1.17499e-06 -1.71182e-08)
(1.86987e-07 -1.06789e-06 -1.54248e-08)
(1.14173e-07 -9.11859e-07 -1.38942e-08)
(5.14185e-08 -6.82348e-07 -1.15724e-08)
(6.03712e-09 -3.25137e-07 -6.17204e-09)
(-6.21231e-09 -2.66939e-07 -6.23933e-09)
(-5.24243e-08 -5.6152e-07 -1.15871e-08)
(-1.16386e-07 -7.53464e-07 -1.39058e-08)
(-1.90593e-07 -8.83856e-07 -1.55228e-08)
(-2.67608e-07 -9.72006e-07 -1.72657e-08)
(-3.41063e-07 -1.02862e-06 -1.95053e-08)
(-4.04362e-07 -1.06082e-06 -2.2372e-08)
(-4.51319e-07 -1.07393e-06 -2.58925e-08)
(-4.76388e-07 -1.07243e-06 -2.99912e-08)
(-4.75207e-07 -1.0604e-06 -3.44566e-08)
(-4.45072e-07 -1.04183e-06 -3.90037e-08)
(-3.85385e-07 -1.02052e-06 -4.33525e-08)
(-2.983e-07 -9.99697e-07 -4.7118e-08)
(-1.89051e-07 -9.82773e-07 -4.97621e-08)
(-6.52402e-08 -9.73063e-07 -5.11532e-08)
(6.32628e-08 -9.72793e-07 -5.11014e-08)
(1.86956e-07 -9.82352e-07 -4.98178e-08)
(2.96712e-07 -9.9978e-07 -4.7099e-08)
(3.84353e-07 -1.02063e-06 -4.33217e-08)
(4.44315e-07 -1.04197e-06 -3.90461e-08)
(4.7469e-07 -1.06061e-06 -3.45106e-08)
(4.76134e-07 -1.07276e-06 -3.00359e-08)
(4.51276e-07 -1.07439e-06 -2.59336e-08)
(4.04467e-07 -1.06139e-06 -2.24026e-08)
(3.41259e-07 -1.0293e-06 -1.9535e-08)
(2.67858e-07 -9.72802e-07 -1.73075e-08)
(1.9081e-07 -8.84785e-07 -1.56183e-08)
(1.16503e-07 -7.54625e-07 -1.40932e-08)
(5.24519e-08 -5.62926e-07 -1.17646e-08)
(6.18252e-09 -2.66882e-07 -6.28197e-09)
(-6.11996e-09 -2.08559e-07 -6.08344e-09)
(-5.14711e-08 -4.42669e-07 -1.13271e-08)
(-1.14318e-07 -5.96798e-07 -1.36238e-08)
(-1.87542e-07 -7.01245e-07 -1.51827e-08)
(-2.63754e-07 -7.70722e-07 -1.68202e-08)
(-3.36546e-07 -8.1361e-07 -1.88947e-08)
(-3.99255e-07 -8.357e-07 -2.15423e-08)
(-4.45638e-07 -8.41474e-07 -2.47802e-08)
(-4.70181e-07 -8.34842e-07 -2.85307e-08)
(-4.68589e-07 -8.19437e-07 -3.25918e-08)
(-4.38257e-07 -7.98826e-07 -3.67257e-08)
(-3.78837e-07 -7.76352e-07 -4.0689e-08)
(-2.92976e-07 -7.55335e-07 -4.40543e-08)
(-1.85789e-07 -7.39126e-07 -4.64162e-08)
(-6.42056e-08 -7.30114e-07 -4.7655e-08)
(6.22384e-08 -7.29758e-07 -4.76187e-08)
(1.83597e-07 -7.38572e-07 -4.64089e-08)
(2.91346e-07 -7.55262e-07 -4.39824e-08)
(3.77772e-07 -7.76332e-07 -4.06086e-08)
(4.3744e-07 -7.9886e-07 -3.67334e-08)
(4.67985e-07 -8.19573e-07 -3.26401e-08)
(4.69838e-07 -8.35095e-07 -2.85743e-08)
(4.45523e-07 -8.4183e-07 -2.48201e-08)
(3.99289e-07 -8.36138e-07 -2.15713e-08)
(3.36672e-07 -8.14127e-07 -1.89212e-08)
(2.63943e-07 -7.71317e-07 -1.68474e-08)
(1.87739e-07 -7.01916e-07 -1.5225e-08)
(1.14472e-07 -5.97561e-07 -1.37117e-08)
(5.14864e-08 -4.43583e-07 -1.14539e-08)
(6.08186e-09 -2.08625e-07 -6.12597e-09)
(-5.76243e-09 -1.52421e-07 -5.66588e-09)
(-4.84508e-08 -3.2838e-07 -1.06015e-08)
(-1.07956e-07 -4.45914e-07 -1.27587e-08)
(-1.7782e-07 -5.25356e-07 -1.41649e-08)
(-2.50999e-07 -5.77146e-07 -1.5631e-08)
(-3.21233e-07 -6.07554e-07 -1.74869e-08)
(-3.81913e-07 -6.21123e-07 -1.98744e-08)
(-4.26832e-07 -6.21495e-07 -2.27852e-08)
(-4.50601e-07 -6.11916e-07 -2.61541e-08)
(-4.49068e-07 -5.95468e-07 -2.97878e-08)
(-4.19709e-07 -5.75129e-07 -3.35227e-08)
(-3.62429e-07 -5.53777e-07 -3.70611e-08)
(-2.80183e-07 -5.34479e-07 -4.00532e-08)
(-1.77649e-07 -5.19856e-07 -4.217e-08)
(-6.14401e-08 -5.11929e-07 -4.33188e-08)
(5.95239e-08 -5.1159e-07 -4.32801e-08)