/*--------------------------------*- C++ -*----------------------------------*\
| =========                 |                                                 |
| \\      /  F ield         | OpenFOAM: The Open Source CFD Toolbox           |
|  \\    /   O peration     | Version:  v1912                                 |
|   \\  /    A nd           | Website:  www.openfoam.com                      |
|    \\/     M anipulation  |                                                 |
\*---------------------------------------------------------------------------*/
FoamFile
{
    version     2.0;
    format      ascii;
    class       volScalarField;
    location    "248/oil";
    object      heatTransferCoeff(T);
}
// * * * * * * * * * * * * * * * * * * * * * * * * * * * * * * * * * * * * * //

dimensions      [1 0 -3 -1 0 0 0];


internalField   uniform 0;

boundaryField
{
    maxY
    {
        type            calculated;
        value           uniform 0;
    }
    minX
    {
        type            calculated;
        value           uniform 0;
    }
    maxX
    {
        type            calculated;
        value           uniform 0;
    }
    minY
    {
        type            calculated;
        value           uniform 0;
    }
    minZ
    {
        type            calculated;
        value           uniform 0;
    }
    maxZ
    {
        type            calculated;
        value           uniform 0;
    }
    oil_to_sphere
    {
        type            calculated;
        value           nonuniform List<scalar> 
1536
(
-127.224
-135.064
-121.574
-119.528
-95.0218
-100.203
-98.6917
-58.559
-52.713
-142.082
-93.4529
-144.042
-147.35
-144.121
-118.626
-94.3279
-60.0632
-53.4339
45.3732
-146.938
-142.209
-101.549
-99.2058
-95.6388
-103.509
-103.422
-103.473
-96.0524
-135.221
-132.878
-121.844
-83.5051
-72.8767
-104.112
-94.9007
-93.8943
-87.6193
-111.211
-101.46
-110.106
-101.438
-93.9651
-131.221
-144.351
-134.241
-143.079
-100.814
-101.122
-116.029
-104.305
-101.693
-102.025
-97.8871
-100.214
-78.2331
-70.2125
-99.507
-99.054
-54.0815
-12.0747
-21.2918
-10.863
-19.5515
-146.808
-147.865
-143.712
-134.989
-143.614
-126.541
-133.606
-104.658
-100.064
-121.484
-102.002
-94.9968
-73.6295
-68.6185
-65.0088
-94.578
-53.4172
-10.5238
-19.6093
-0.263488
0.707243
-25.9969
-20.8512
-1.89711
-59.4423
-53.2677
-11.8804
-20.4247
45.5333
45.2818
-147.592
-148.035
-144.612
-137.154
-140.558
-144.174
-125.745
-135.753
-103.989
-126.281
-122.285
-100.97
-101.94
-95.7656
-65.8816
-93.1335
-74.4382
-67.8349
-72.5308
-11.7889
-21.4777
-1.04278
-2.40842
-0.785067
-25.4185
-20.8554
-26.8797
-53.9206
-20.5721
45.4197
-143.722
-125.752
-133.363
-126.661
-132.621
-101.542
-102.064
-103.292
-101.549
-102.149
-100.671
-102.922
-103.133
-100.298
-70.3342
-98.3682
-97.9453
-12.2206
-21.0265
-59.6916
-54.0483
-19.7854
-52.3584
-116.917
-116.86
-98.3807
-105.928
-121.53
-116.511
-100.687
-103.146
-101.811
-87.6855
-79.048
-80.5894
-117.248
-114.456
-117.3
-126.63
-108.739
-103.04
-93.991
-88.0199
-100.185
-90.4926
-79.7201
-81.459
-129.58
-112.506
-133.232
-110.604
-81.8183
-67.4467
-117.952
-118.996
-123.045
-115.552
-108.29
-102.484
-88.27
-101.533
-83.9122
-81.7285
-80.5034
-137.504
-115.318
-121.976
-128.741
-117.892
-126.927
-120.736
-84.9955
-85.3067
-90.0988
-91.2242
-83.4329
-86.7249
-89.8811
-94.744
-53.137
-49.749
-46.2378
-55.6547
-60.1398
-58.2614
-65.3495
-62.5205
-50.3113
-43.3097
-39.5658
-139.927
-151.39
-148.064
-140.545
-140.802
-141.98
-140.116
-138.68
-144.795
-135.281
-139.162
-139.342
-118.737
-118.114
-133.974
-125.073
-105.941
-88.5386
-83.7911
-100.051
-85.5311
-50.7806
-54.3365
-47.2334
-55.946
-59.3593
-48.2106
-42.5517
7.79317
15.0231
-145.935
-139.918
-142.184
-139.013
-143.599
-151.728
-144.109
-138.868
-114.18
-104.24
-114.583
-116.509
-86.4871
-95.0487
-51.2813
-44.0194
-60.5871
-68.7324
-64.5343
-40.5703
15.5731
8.66476
29.3256
29.5207
7.98781
-142.209
-138.389
-137.613
-135.502
-139.067
-139.486
-136.795
-142.827
-154.128
-146.274
-138.4
-126.712
-116.862
-117.319
-124.124
-134.862
-125.775
-117.614
-117.444
-87.7541
-88.9158
-95.1831
-96.8809
-90.1405
-94.76
-47.3647
-43.4651
-49.1704
-57.7171
-54.4601
-59.8506
-58.2556
-58.5876
-46.7365
-41.6154
-55.7553
-49.1762
-105.879
-98.0723
-99.9039
-87.885
-84.0807
-81.9213
-77.4157
-131.292
-124.394
-134.631
-129.792
-124.461
-130.256
-132.727
-135.424
-140.274
-132.124
-134.29
-132.234
-150.403
-142.365
-139.546
-134.474
-140.457
-145.804
-139.46
-127.714
-130.108
-133.254
-124.798
-133.544
-135.826
-140.351
-139.465
-144.465
-142.653
-141.055
-136.849
-136.768
-135.627
-136.898
-130.938
-131.212
-125.832
-130.598
-123.009
-125.501
-135.787
-116.923
-130.365
-118.331
-121.046
-115.339
-106.021
-129.575
-117.369
-116.257
-123.885
-106.34
-112.943
-117.191
-104.982
-109.854
-100.864
-118.86
-129.169
-117.508
-118.484
-120.913
-108.191
-113.632
-112.314
-88.2335
-92.4613
-87.1554
-79.9839
-75.3256
-80.471
-70.0868
-66.496
-89.2113
-93.0326
-88.6677
-81.8219
-76.6995
-84.0523
-70.0434
-66.473
-63.7086
-84.0211
-65.8378
-81.541
-77.3799
-82.0952
-69.9776
-88.7123
-93.8038
-88.0412
-92.8003
-68.444
-64.1578
-81.545
-77.1309
-83.1427
-68.6613
-65.1684
-57.7787
-53.658
-57.3111
-53.3491
-46.8851
-47.1765
-42.0141
-51.8677
-44.2654
-60.6712
-40.837
-43.0183
-38.6514
-33.3093
-40.766
-37.7984
-29.4313
-25.8331
-17.4254
-54.4818
-51.0536
-46.4925
-56.2997
-43.5272
-47.2097
-29.5098
-25.0066
-22.7409
-17.5204
-39.027
-34.1632
-41.0148
-38.0419
-36.3397
-57.2588
-53.2307
-57.6646
-58.3153
-47.112
-41.5336
-53.8925
-48.6775
-165.89
-157.009
-149.183
-163.698
-150.537
-152.745
-157.313
-145.169
-147.682
-151.012
-150.146
-139.37
-145.607
-136.997
-136.032
-133.68
-133.395
-136.869
-135.181
-140.372
-145.339
-129.943
-141.427
-131.633
-136.684
-132.527
-141.924
-134.25
-141.448
-138.203
-143.489
-139.03
-130.279
-135.321
-126.011
-135.539
-115.74
-121.164
-119.62
-101.951
-109.546
-108.239
-118.445
-101.966
-116.441
-100.908
-109.198
-103.449
-95.7723
-100.029
-88.8289
-85.727
-77.5535
-82.3901
-80.0515
-74.4963
-67.4428
-82.3958
-66.9716
-94.0235
-87.4938
-79.1534
-43.4068
-38.215
-34.1378
-42.0057
-38.5537
-50.6461
-43.5549
-60.3053
-40.0548
-28.8639
-26.768
-18.2591
-6.46712
1.88432
-7.21251
1.54777
-13.9019
-21.3172
-13.5963
-4.93106
-6.99583
-49.755
-53.8412
-46.1376
-55.6298
-39.9085
-34.3476
-41.9789
-37.0138
-49.8266
-42.8907
-57.6211
-64.1563
-40.3357
-29.0493
-36.9403
-25.8278
-17.4974
-33.7951
8.41143
15.1322
7.14378
15.0271
28.8546
28.9774
29.0696
29.1242
15.867
-160.638
-147.687
-152.933
-151.124
-148.253
-160.796
-153.229
-150.739
-147.176
-139.831
-149.982
-151.833
-155.239
-140.482
-140.414
-145.733
-146.378
-129.979
-138.954
-130.396
-142.269
-137.378
-136.709
-133.868
-138.629
-133.535
-138.003
-143.048
-134.441
-129.266
-126.76
-137.767
-142.321
-129.893
-140.235
-131.575
-125.954
-144.05
-137.089
-136.078
-138.497
-132.144
-132.162
-136.29
-141.709
-132.711
-126.461
-119.029
-116.135
-109.927
-103.094
-111.287
-124.906
-120.99
-119.066
-112.627
-111.881
-107.57
-108.145
-109.121
-101.835
-102.2
-88.2848
-99.4946
-84.0795
-90.1309
-82.2444
-77.7907
-105.028
-95.32
-69.9268
-84.8753
-66.801
-84.4192
-74.0674
-67.1517
-80.0977
-81.349
-80.0339
-80.2794
-78.0822
-101.074
-86.5701
-28.9229
-27.1953
-23.2541
-18.5225
-54.145
-49.9429
-46.5714
-55.9234
-43.5423
-47.2724
-34.8886
-41.5841
-41.6884
-37.789
-35.8124
-14.4144
-14.4711
-22.0616
-5.60907
-6.71653
1.99244
-7.21057
-7.39823
2.22051
-20.574
-13.0293
-13.6425
-21.7266
-5.16824
-50.02
-43.2355
-59.3396
-63.4552
-40.4648
-29.3989
-37.254
-25.0526
-22.8299
-34.1899
-48.0364
-42.0755
-53.3221
-50.6638
-46.4199
-55.9799
-59.0254
-34.0209
-38.7824
-41.5871
-37.348
-36.3206
29.1741
28.892
7.43594
8.13722
14.7729
15.8856
-0.496011
8.36969
15.7103
-124.159
-132.934
-131.45
-123.707
-131.589
-123.946
-123.575
-141.461
-138.453
-145.751
-138.737
-130.395
-136.076
-133.087
-140.36
-134.228
-137.28
-130.634
-130.745
-142.013
-137.035
-134.487
-135.26
-132.231
-132.031
-135.188
-126.898
-125.662
-130.641
-134.603
-130.134
-138.076
-133.037
-145.729
-130.797
-126.929
-129.047
-130.529
-125.81
-124.016
-136.07
-117.725
-109.254
-109.536
-114.626
-102.512
-128.319
-117.259
-116.784
-121.961
-113.083
-113.333
-108.334
-124.314
-115.615
-117.02
-121.674
-106.947
-108.2
-116.092
-114.358
-102.424
-120.284
-127.853
-119.282
-120.815
-113.84
-113.463
-109.376
-109.254
-101.784
-81.2286
-76.8109
-82.3758
-69.9101
-68.1346
-64.5199
-91.9379
-85.6247
-92.9985
-88.3776
-76.8147
-81.5803
-81.3379
-68.3952
-64.9956
-65.952
-88.6952
-88.3351
-93.8177
-87.9738
-93.5729
-67.8364
-69.9808
-80.7452
-76.0791
-81.5057
-67.9053
-64.7877
-95.3171
-87.4525
-87.6482
-90.424
-94.45
-69.8367
-65.6777
-77.3511
-82.546
-82.406
-53.2041
-57.8746
-47.0058
-46.4205
-41.2117
-57.3394
-53.6285
-57.8302
-39.0037
-34.0341
-41.4339
-37.0649
-30.7243
-39.0043
-26.57
-18.0221
-34.9405
-50.4405
-53.2594
-46.0105
-56.0995
-63.6804
-73.2233
-53.7488
-45.8191
-41.6
-43.8711
-50.8045
-29.3175
-36.4313
-25.6073
-23.9799
-33.2169
-39.5329
-34.6741
-40.4441
-38.9398
-36.3963
-57.7646
-63.588
-50.6372
-43.3834
-39.9794
-55.9173
-59.7873
-50.5416
-54.1658
-47.1086
-122.569
-118.094
-68.3661
-61.6661
-144.094
-136.933
-141.764
-143.352
-141.677
-115.991
-127.267
-123.108
-126.755
-93.4682
-102.239
-61.7027
0.790455
4.92154
-121.875
-121.688
-59.0382
0.4
5.79409
-12.1075
-143.539
-117.825
-99.1452
-10.9618
-127.019
-120.662
-124.853
-92.7479
-103.608
-101.7
-58.4908
-122.564
-127.07
-101.163
-102.959
-125.284
-100.608
-102.363
-90.2433
-95.119
-65.0602
-72.9898
-79.2325
-118.189
-123.7
-99.4876
-108.555
-92.4348
-98.5129
-65.0859
-72.7822
-74.6948
-116.909
-126.369
-100.147
-112.434
-77.0149
-66.0306
-75.4114
-88.6609
-109
-107.095
-125.258
-127.685
-102.849
-101.71
-99.1974
-102.292
-74.2148
-66.1007
-74.2373
-59.7895
-151.607
-147.018
-125.641
-140.593
-125.002
-144.59
-142.313
-102.465
-118.88
-118.522
-121.692
-117.993
-100.343
-76.1381
-72.7148
-72.7044
-73.6892
-73.279
-71.0714
-30.7664
-61.5136
-27.1449
-31.5878
-147.964
-142.46
-149.71
-143.661
-147.976
-145.004
-148.027
-146.59
-150.184
-145.538
-125.452
-141.032
-125.366
-133.375
-125.814
-99.8505
-110.506
-116.64
-129.847
-104.044
-123.75
-99.8843
-65.9573
-74.3889
-76.9397
-67.5479
-72.4926
-72.2236
-60.0307
-31.3849
-24.0302
-20.5005
-22.9689
-61.3894
-30.3261
4.39355
3.60387
5.57913
-151.533
-147.697
-145.122
-154.346
-146.114
-149.755
-145.297
-152.167
-149.129
-126.282
-140.579
-122.735
-143.043
-142.054
-136.703
-141.583
-135.791
-124.098
-129.003
-99.2443
-115.899
-129.196
-117.888
-127.531
-102.935
-65.2396
-75.106
-91.9165
-101.303
-70.9869
-78.9638
-67.0758
-73.7096
-98.9304
-62.0369
-30.9256
-19.3944
-24.2986
-20.2667
-60.7964
-30.3059
4.17941
5.46945
4.85826
-147.178
-132.355
-127.034
-143.76
-124.26
-102.491
-121.652
-119.043
-118.816
-118.054
-71.821
-79.473
-71.3714
-71.3873
-71.9095
-30.5033
-63.2268
-32.1222
-63.0214
-124.782
-116.336
-107.893
-115.718
-126.702
-117.56
-82.0766
-88.5718
-81.5573
-120.338
-126.48
-119.364
-110.951
-126.947
-106.212
-114.929
-113.531
-105.684
-119.116
-112.512
-125.876
-109.045
-112.789
-113.243
-108.907
-94.4728
-92.9388
-82.6313
-82.5512
-76.0188
-67.5987
-81.1432
-73.7898
-77.8289
-125.573
-114.86
-109.783
-114.973
-123.908
-105.665
-107.722
-108.703
-97.7202
-114.517
-88.0841
-97.6644
-95.0491
-83.6069
-84.5579
-77.3082
-67.6028
-79.992
-72.8325
-78.0832
-115.648
-123.436
-105.627
-106.466
-109.839
-96.2986
-114.08
-93.3271
-82.2836
-72.6639
-82.8134
-77.9289
-81.0602
-136.394
-136.821
-135.419
-137.914
-108.197
-124.736
-119.825
-88.9426
-89.1233
-94.9835
-94.0128
-93.3659
-58.2427
-65.9435
-64.2414
-49.0851
-46.2803
-67.168
-60.0903
-59.8643
-137.817
-139.887
-143.037
-135.385
-111.403
-119.139
-107.291
-128.355
-117.915
-93.223
-93.1069
-83.7833
-59.2621
-69.6835
-64.194
-49.6305
-14.3093
-15.6272
-5.4626
-6.6915
2.13621
7.41272
-138.083
-137.06
-136.908
-134.145
-141.159
-115.654
-123.948
-119.907
-87.3656
-46.5689
-65.4947
-6.57747
2.22843
7.41677
17.4903
-17.4147
-137.766
-138.851
-143.048
-137.676
-141.048
-140.926
-138.475
-136.55
-141.565
-106.205
-113.574
-134.582
-117.996
-93.9993
-94.2514
-59.5701
-65.9891
-58.6123
-54.1518
-63.6471
-48.7188
-18.0887
-93.3816
-64.0949
-130.129
-126.768
-115.967
-116.429
-93.5227
-87.1332
-91.2835
-80.0577
-72.3303
-81.7448
-73.6108
-73.5004
-70.6675
-151.094
-147.571
-121.104
-122.501
-131.187
-136.505
-134.598
-136.446
-123.221
-130.685
-127.569
-134.309
-123.582
-129.584
-139.361
-135.199
-136.063
-135.277
-122.288
-127.204
-129.565
-133.428
-137.486
-141.799
-138.737
-140.663
-131.827
-122.724
-128.688
-141.517
-138.098
-142.06
-138.731
-123.545
-136.744
-140.365
-134.454
-127.277
-130.213
-127.538
-115.784
-111.099
-130.918
-115.783
-108.849
-108.553
-99.8117
-100.996
-100.549
-110.446
-127.017
-119.069
-102.537
-101.584
-108.909
-102.768
-110.539
-123.998
-113.97
-101.662
-96.2221
-94.5501
-78.9965
-81.7745
-67.5302
-94.8409
-79.0771
-83.4298
-68.8686
-89.782
-94.9626
-79.8897
-68.5638
-94.0881
-75.7291
-80.1794
-58.9661
-58.7784
-46.3918
-47.4145
-36.0608
-36.9806
-47.8205
-37.4867
-34.6736
-25.2339
-22.1576
-21.6292
-27.0776
-57.5451
-49.3051
-36.9631
-33.4111
-26.1484
-26.4235
-21.2593
-54.2563
-59.3932
-36.6768
-152.762
-144.321
-148.696
-139.549
-143.625
-152.756
-136.772
-161.085
-144.185
-146.407
-145.129
-152.923
-145.666
-151.772
-161.661
-153.187
-143.919
-150.072
-131.849
-137.437
-146.842
-140.704
-125.247
-136.206
-130.019
-138.756
-135.048
-137.784
-135.104
-141.875
-130.375
-121.653
-126.199
-132.019
-141.224
-136.731
-135.974
-131.966
-106.945
-112.989
-101.596
-115.927
-123.195
-107.4
-112.83
-114.838
-116.615
-117.381
-123.97
-108.4
-88.4983
-82.596
-76.9103
-84.6029
-93.9679
-72.1108
-73.9778
-81.4297
-88.9603
-82.2906
-75.5069
-67.6559
-26.733
-23.9997
-22.6104
-46.1506
-36.8873
-33.4765
-25.7745
-57.5786
-61.169
-25.8299
-22.9114
-46.438
-26.3511
7.2097
6.92451
16.3897
-0.448477
17.1348
6.40444
-2.42925
-154.645
-144.154
-157.213
-149.508
-148.653
-142.364
-144.005
-136.843
-151.096
-157.366
-151.797
-144.42
-142.657
-140.638
-145.923
-146.31
-146.11
-131.867
-142.09
-129.339
-140.246
-142.125
-137.249
-120.439
-140.614
-133.396
-137.054
-135.489
-131.458
-135.537
-135.498
-125.448
-129.622
-123.858
-113.408
-125.369
-116.267
-107.942
-105.063
-96.8693
-109.199
-125.339
-114.057
-114.853
-91.2315
-73.7559
-75.9205
-86.9405
-85.9376
-78.5489
-84.6494
-83.4662
-81.7917
-75.6272
-92.6313
-93.4248
-36.9833
-33.7606
-26.1486
-59.1293
-49.9418
-26.0677
-22.2714
-46.9616
-26.7483
-57.8002
-25.298
16.8281
6.5999
-2.51528
-152.581
-137.606
-124.774
-135.168
-124.131
-124.707
-129.43
-141.201
-137.556
-136.279
-125.306
-130.44
-133.574
-131.895
-138.421
-135.633
-137.322
-135.312
-131.727
-122.436
-135.248
-129.072
-127.457
-117.214
-102.472
-111.957
-131.003
-115.182
-108.535
-100.972
-100.941
-109.952
-125.684
-101.255
-109.336
-125.18
-102.55
-78.3977
-69.6993
-90.6389
-94.5916
-90.8057
-78.2282
-83.8411
-93.0655
-76.0775
-93.8977
-76.1019
-35.6958
-59.1397
-25.5842
-22.7292
-27.7908
-58.0414
-65.9141
-47.7385
-25.8722
-27.5903
-45.9587
-58.3539
)
;
    }
}


// ************************************************************************* //
