/*--------------------------------*- C++ -*----------------------------------*\
| =========                 |                                                 |
| \\      /  F ield         | OpenFOAM: The Open Source CFD Toolbox           |
|  \\    /   O peration     | Version:  v1912                                 |
|   \\  /    A nd           | Website:  www.openfoam.com                      |
|    \\/     M anipulation  |                                                 |
\*---------------------------------------------------------------------------*/
FoamFile
{
    version     2.0;
    format      ascii;
    class       volScalarField;
    location    "70/oil";
    object      heatTransferCoeff(T);
}
// * * * * * * * * * * * * * * * * * * * * * * * * * * * * * * * * * * * * * //

dimensions      [1 0 -3 -1 0 0 0];


internalField   uniform 0;

boundaryField
{
    maxY
    {
        type            calculated;
        value           uniform 0;
    }
    minX
    {
        type            calculated;
        value           uniform 0;
    }
    maxX
    {
        type            calculated;
        value           uniform 0;
    }
    minY
    {
        type            calculated;
        value           uniform 0;
    }
    minZ
    {
        type            calculated;
        value           uniform 0;
    }
    maxZ
    {
        type            calculated;
        value           uniform 0;
    }
    oil_to_sphere
    {
        type            calculated;
        value           nonuniform List<scalar> 
360
(
-77.1115
-77.5441
-52.3143
-136.191
-145.338
-60.77
-149.215
-134.658
-144.968
-75.8447
-76.2504
-60.6377
-67.2178
-47.1189
-74.2609
-128.834
-147.119
-136.319
-142.61
-46.9389
-118.588
-75.8484
-66.815
-140.978
-52.435
-146.196
-60.5225
-143.942
-142.871
-135.09
-153.653
-149.973
-52.4934
-51.8831
-60.0407
-60.2603
-141.18
-140.159
-136.37
-138.457
-142.097
-52.1936
-59.6812
-79.1069
-79.2902
-60.3842
-66.3633
-46.5418
-74.6623
-133.642
-60.9663
-60.6047
-66.6433
-66.865
-46.5884
-76.1172
-136.728
-46.9285
-59.7241
-65.1424
-46.9425
-143.698
-136.468
-142.442
-46.5753
-123.304
-74.5576
-64.6759
-149.484
-142.076
-136.893
-140.143
-139.63
-46.6338
-105.76
-73.8337
-47.1987
-64.0765
-140.418
-144.418
-65.6113
-64.3972
-64.6224
-46.9487
-52.077
-60.3175
-60.4035
-67.1125
-46.8913
-47.3479
-52.2294
-67.0149
-60.4429
-52.121
-66.7623
-60.2087
-60.2353
-60.4723
-51.9269
-47.5658
-47.5604
-46.8501
-60.8285
-60.8048
-67.1912
-46.8467
-47.3168
-67.3569
-52.1513
-60.546
-60.547
-60.4711
-52.0541
-46.7344
-47.7249
-47.6268
-66.3149
-65.8234
-65.8277
-78.5482
-78.678
-131.518
-140.119
-126.723
-141.298
-131.592
-141.32
-143.141
-133.158
-139.156
-136.801
-65.8
-65.3159
-65.5736
-47.551
-131.031
-142.684
-76.9381
-77.1214
-144.079
-133.115
-75.1822
-74.0639
-146.042
-133.954
-154.374
-47.5221
-47.4438
-140.856
-144.314
-153.962
-146.295
-146.351
-152.61
-153.817
-133.245
-73.6979
-145.434
-137.881
-47.0766
-143.765
-147.437
-64.2685
-63.3356
-65.8192
-75.1319
-76.0074
-145.961
-134.284
-151.844
-46.5026
-136.102
-76.3204
-144.184
-137.703
-46.5409
-148.622
-65.2331
-65.0501
-47.3979
-60.4571
-60.6241
-67.0369
-52.232
-66.626
-60.1815
-46.7934
-47.5002
-142.962
-134.04
-143.822
-138.323
-78.6841
-78.7394
-140.455
-128.468
-138.122
-75.5186
-75.9758
-47.45
-60.2474
-61.0864
-67.2101
-60.563
-60.4173
-67.4079
-52.1243
-66.8319
-60.1338
-51.686
-132.825
-67.2946
-60.226
-47.0338
-139.896
-132.468
-139.877
-77.8797
-77.8813
-46.5008
-59.9923
-60.0216
-65.1731
-143.545
-51.7366
-64.5824
-59.8685
-135.076
-136.292
-77.4532
-46.8289
-76.8548
-46.8032
-47.6897
-66.5827
-52.2511
-60.2565
-59.7583
-60.1705
-51.7932
-47.1298
-136.505
-128.071
-143.733
-150.671
-134.869
-127.511
-145.663
-147.273
-75.5717
-138.037
-47.4914
-145.418
-143.494
-144.19
-66.6361
-52.3482
-60.6331
-66.8406
-52.5453
-144.266
-60.1669
-60.0658
-60.5661
-51.997
-145.926
-134.171
-60.1131
-60.0885
-51.92
-134.689
-152.23
-75.8601
-137.49
-46.9672
-143.204
-140.854
-144.462
-64.7494
-51.9244
-142.214
-59.6556
-59.9576
-59.726
-141.093
-52.107
-138.829
-77.0775
-128.281
-77.4579
-135.385
-137.783
-140.575
-46.8219
-63.8397
-62.8808
-63.4897
-78.0312
-141.054
-77.8197
-136.591
-140.655
-47.3583
-142.42
-144.467
-74.4142
-138.418
-47.4548
-152.223
-64.8923
-64.499
-46.3949
-136.684
-77.0013
-121.512
-137.187
-76.9293
-46.8517
-60.3608
-60.3292
-67.2033
-141.583
-131.38
-75.7217
-47.4633
-132.218
-76.9081
-47.0582
-133.022
-144.01
-74.8017
-138.978
-46.273
-150.116
-67.4795
-147.793
-51.9921
-60.5353
-148.168
-138.654
-136.049
-75.697
-144.427
-143.043
-76.2985
-136.865
-63.7286
-65.3946
-134.595
-76.5753
-46.6802
-134.352
-76.7534
-47.2088
-138.719
-139.464
-131.936
-77.1517
-136.31
-77.3331
)
;
    }
}


// ************************************************************************* //
