/*--------------------------------*- C++ -*----------------------------------*\
| =========                 |                                                 |
| \\      /  F ield         | OpenFOAM: The Open Source CFD Toolbox           |
|  \\    /   O peration     | Version:  v1906                                 |
|   \\  /    A nd           | Web:      www.OpenFOAM.com                      |
|    \\/     M anipulation  |                                                 |
\*---------------------------------------------------------------------------*/
FoamFile
{
    version     2.0;
    format      ascii;
    class       volVectorField;
    location    "40";
    object      U;
}
// * * * * * * * * * * * * * * * * * * * * * * * * * * * * * * * * * * * * * //

dimensions      [0 1 -1 0 0 0 0];


internalField   nonuniform List<vector> 
78750
(
(-3.75351e-06 -9.42133e-05 8.09647e-05)
(-1.4958e-05 -0.000111651 0.000139904)
(-4.0478e-05 -9.7218e-05 0.000173533)
(-7.59231e-05 -6.93472e-05 0.000201236)
(-0.00011913 -3.55314e-05 0.000225)
(-0.000168397 1.83292e-07 0.000246023)
(-0.000221994 3.46816e-05 0.000264561)
(-0.000278031 6.62407e-05 0.000280382)
(-0.000334771 9.34233e-05 0.000292756)
(-0.000390618 0.000115771 0.00030086)
(-0.000444163 0.000132865 0.000303705)
(-0.000494177 0.000144905 0.000300518)
(-0.000539595 0.00015193 0.000290649)
(-0.000579547 0.000154384 0.000273849)
(-0.000613287 0.000152539 0.00025014)
(-0.000640364 0.000146998 0.000219939)
(-0.000659939 0.000138317 0.000184581)
(-0.000672302 0.000126769 0.000143744)
(-0.000676966 0.000112925 9.92212e-05)
(-0.000673997 9.72877e-05 5.23033e-05)
(-0.000663482 8.0216e-05 4.34874e-06)
(-0.000645626 6.21344e-05 -4.32108e-05)
(-0.000620709 4.33689e-05 -8.89653e-05)
(-0.000589105 2.4291e-05 -0.000131508)
(-0.000551252 5.22887e-06 -0.000169492)
(-0.000507686 -1.34321e-05 -0.000201626)
(-0.00045898 -3.12806e-05 -0.000226691)
(-0.000405808 -4.78156e-05 -0.000243531)
(-0.000348951 -6.24197e-05 -0.000251099)
(-0.000289286 -7.43008e-05 -0.000248526)
(-0.000227567 -8.24376e-05 -0.000235117)
(-0.000164378 -8.54702e-05 -0.00021057)
(-0.000101764 -8.15238e-05 -0.000174984)
(-5.14945e-05 -6.8322e-05 -0.000129547)
(-1.59611e-05 -3.67565e-05 -5.68957e-05)
(-1.44719e-05 0.000286822 -0.0003572)
(-5.41934e-05 0.000571649 -0.000479076)
(-0.000102409 0.000711705 -0.00051373)
(-0.000169604 0.000814967 -0.000547123)
(-0.000239104 0.000885797 -0.000575497)
(-0.000306718 0.000927572 -0.000596013)
(-0.000370666 0.00094578 -0.000609758)
(-0.000429635 0.000943036 -0.000618965)
(-0.000481925 0.000924214 -0.000624378)
(-0.000527212 0.000891058 -0.000627319)
(-0.000564636 0.000847774 -0.000628055)
(-0.000594157 0.000795946 -0.000627517)
(-0.000615888 0.000738815 -0.000625826)
(-0.000629985 0.000677521 -0.000623668)
(-0.000637051 0.000613959 -0.000621399)
(-0.000637483 0.000549132 -0.000619187)
(-0.00063172 0.000484755 -0.00061694)
(-0.000620285 0.000421281 -0.000614906)
(-0.000603696 0.000359835 -0.000612908)
(-0.000582461 0.000300618 -0.000611085)
(-0.000557081 0.000244318 -0.000609205)
(-0.000528045 0.000190991 -0.000607206)
(-0.000495831 0.000141024 -0.000604813)
(-0.000460895 9.44017e-05 -0.000601857)
(-0.00042367 5.13269e-05 -0.00059798)
(-0.000384558 1.17943e-05 -0.000592798)
(-0.000343956 -2.40615e-05 -0.000585716)
(-0.000302235 -5.61762e-05 -0.000575911)
(-0.000259775 -8.43891e-05 -0.000562146)
(-0.000216957 -0.000108474 -0.000542636)
(-0.000173944 -0.000128037 -0.000514941)
(-0.000130342 -0.000142199 -0.000474305)
(-8.65117e-05 -0.000148959 -0.000409072)
(-5.20165e-05 -0.000142956 -0.000304296)
(-2.64634e-05 -8.77832e-05 -9.49713e-05)
(-1.39916e-05 0.000577793 -0.000135145)
(-4.08392e-05 0.00100636 -0.000203909)
(-6.71171e-05 0.0011879 -0.000231993)
(-0.00010345 0.00130787 -0.000253178)
(-0.000139377 0.00137757 -0.00027174)
(-0.000173139 0.00140892 -0.000288853)
(-0.000204153 0.00140818 -0.000306293)
(-0.000231971 0.00138318 -0.000324265)
(-0.000255917 0.00133775 -0.000343817)
(-0.000275545 0.00127767 -0.000364134)
(-0.000290734 0.00120632 -0.000384687)
(-0.000301557 0.00112885 -0.000403335)
(-0.000308309 0.00104759 -0.000419365)
(-0.00031136 0.000965466 -0.00043203)
(-0.000311046 0.000883381 -0.00044224)
(-0.00030776 0.000803064 -0.000449894)
(-0.000301888 0.000724766 -0.000455519)
(-0.000293721 0.000649531 -0.000459079)
(-0.00028355 0.000577353 -0.000461046)
(-0.000271684 0.000509167 -0.000461235)
(-0.000258376 0.000444826 -0.000460048)
(-0.000243856 0.000384673 -0.000457497)
(-0.00022828 0.000328685 -0.000453726)
(-0.00021182 0.000277004 -0.000448718)
(-0.000194662 0.000229449 -0.000442607)
(-0.00017693 0.000186063 -0.000435238)
(-0.000158777 0.000146738 -0.000426458)
(-0.000140312 0.000111498 -0.000415792)
(-0.000121672 8.03506e-05 -0.000402554)
(-0.000102945 5.34204e-05 -0.00038554)
(-8.41507e-05 3.09249e-05 -0.000362838)
(-6.50013e-05 1.32538e-05 -0.000330824)
(-4.52934e-05 8.91179e-07 -0.000282989)
(-2.83876e-05 -5.14957e-06 -0.000212148)
(-1.65848e-05 -1.20089e-06 -5.87084e-05)
(-1.66491e-05 0.000697051 0.000202343)
(-3.39574e-05 0.00115028 0.000218189)
(-4.45605e-05 0.001345 0.00019669)
(-5.8311e-05 0.00147394 0.000175508)
(-7.01904e-05 0.00155132 0.000158372)
(-8.0673e-05 0.00158646 0.000139776)
(-9.02823e-05 0.00158857 0.000118308)
(-9.97816e-05 0.00156301 9.30195e-05)
(-0.000107907 0.00151658 6.46979e-05)
(-0.000114584 0.00145428 3.04896e-05)
(-0.000119737 0.00138222 -9.98058e-06)
(-0.000123069 0.00130353 -5.46094e-05)
(-0.000124279 0.00122207 -9.77922e-05)
(-0.000123617 0.00113928 -0.00013645)
(-0.000122011 0.00105761 -0.000169746)
(-0.000119123 0.000977468 -0.000198426)
(-0.000115363 0.00090012 -0.000222877)
(-0.000110936 0.000825668 -0.000243962)
(-0.000105977 0.000754899 -0.000261749)
(-0.000100697 0.000687747 -0.000276766)
(-9.51288e-05 0.000624748 -0.00028898)
(-8.94787e-05 0.000565621 -0.000298885)
(-8.38126e-05 0.000510225 -0.000306736)
(-7.8185e-05 0.000458355 -0.000312741)
(-7.26768e-05 0.000410431 -0.000316626)
(-6.73336e-05 0.000366208 -0.000318537)
(-6.21407e-05 0.000325595 -0.000318383)
(-5.70925e-05 0.000288295 -0.000316182)
(-5.21003e-05 0.000254087 -0.000311661)
(-4.70706e-05 0.000222628 -0.000304479)
(-4.1765e-05 0.000193564 -0.000294014)
(-3.56375e-05 0.000166463 -0.000280251)
(-2.77599e-05 0.000140696 -0.000263476)
(-1.92282e-05 0.00011587 -0.000237355)
(-1.27858e-05 7.55024e-05 -0.000134812)
(-1.56202e-05 0.00065233 0.000338663)
(-2.51275e-05 0.00102267 0.00038784)
(-2.4886e-05 0.00118608 0.000366267)
(-2.25496e-05 0.00130014 0.000346791)
(-1.71099e-05 0.00137459 0.000335631)
(-1.03622e-05 0.00141822 0.00032718)
(-3.22159e-06 0.00143601 0.00031629)
(3.53478e-06 0.00143267 0.000300319)
(9.73716e-06 0.0014109 0.000276885)
(1.53053e-05 0.00137485 0.000246226)
(2.03195e-05 0.00132701 0.000209011)
(2.48567e-05 0.00127112 0.000167753)
(2.89307e-05 0.00120989 0.000125224)
(3.26483e-05 0.00114722 8.51406e-05)
(3.58849e-05 0.00108484 4.89778e-05)
(3.81501e-05 0.00102392 1.61953e-05)
(3.98568e-05 0.000964678 -1.35092e-05)
(4.0945e-05 0.000907953 -4.00743e-05)
(4.12984e-05 0.000853731 -6.38623e-05)
(4.09981e-05 0.000802511 -8.48266e-05)
(3.99293e-05 0.000754131 -0.000103242)
(3.81963e-05 0.000708924 -0.000118993)
(3.57263e-05 0.000666667 -0.000132268)
(3.25282e-05 0.000627376 -0.00014316)
(2.85908e-05 0.000590693 -0.000151889)
(2.39751e-05 0.000556457 -0.000158547)
(1.87863e-05 0.000524002 -0.000163454)
(1.31475e-05 0.000492928 -0.000166759)
(7.24827e-06 0.000462478 -0.0001687)
(1.32688e-06 0.00043188 -0.000169391)
(-4.27301e-06 0.000399862 -0.000169342)
(-8.97304e-06 0.000365 -0.000170748)
(-1.14392e-05 0.000325029 -0.000178276)
(-1.04071e-05 0.000277283 -0.000186558)
(-8.78092e-06 0.000179887 -0.000133132)
(-9.24273e-06 0.000565256 0.000340322)
(-1.13184e-05 0.000849051 0.00038189)
(-7.38234e-06 0.000980516 0.000360837)
(5.92127e-07 0.00107824 0.000345293)
(1.14728e-05 0.00114746 0.000336475)
(2.38682e-05 0.00119244 0.000326722)
(3.69578e-05 0.00121862 0.000313702)
(5.00959e-05 0.00122849 0.00029739)
(6.27418e-05 0.00122556 0.000277974)
(7.44151e-05 0.00121168 0.000255544)
(8.47361e-05 0.00118968 0.000230584)
(9.3398e-05 0.00116117 0.000203702)
(0.000100309 0.00112881 0.000176126)
(0.000105371 0.00109395 0.000148743)
(0.000108634 0.00105801 0.000122133)
(0.000110348 0.00102148 9.66301e-05)
(0.000110617 0.000985454 7.26009e-05)
(0.000109461 0.000950115 5.01244e-05)
(0.000107053 0.000916119 2.9461e-05)
(0.000103418 0.000883456 1.06338e-05)
(9.86701e-05 0.000852496 -6.22694e-06)
(9.28489e-05 0.000823032 -2.11982e-05)
(8.60689e-05 0.0007952 -3.42387e-05)
(7.83826e-05 0.000768628 -4.55033e-05)
(6.99179e-05 0.000743213 -5.5029e-05)
(6.07688e-05 0.000718366 -6.30565e-05)
(5.10974e-05 0.000693678 -6.972e-05)
(4.10524e-05 0.000668233 -7.54012e-05)
(3.08856e-05 0.000641149 -8.03441e-05)
(2.08544e-05 0.000610932 -8.50283e-05)
(1.13278e-05 0.000575861 -9.01441e-05)
(2.83447e-06 0.000533394 -9.86384e-05)
(-3.34115e-06 0.00048026 -0.000116002)
(-5.40198e-06 0.000411984 -0.000137903)
(-5.7987e-06 0.000264684 -0.000111741)
(-4.43385e-06 0.000468636 0.000270384)
(-3.16118e-06 0.000702991 0.000284364)
(4.63383e-07 0.000811237 0.000255604)
(7.53852e-06 0.000892829 0.000232078)
(1.67983e-05 0.000953629 0.000217938)
(2.70327e-05 0.000998189 0.000207229)
(3.77098e-05 0.00102955 0.000196895)
(4.83499e-05 0.00105059 0.000186264)
(5.85845e-05 0.0010629 0.000174899)
(6.80348e-05 0.00106838 0.000162638)
(7.64336e-05 0.00106795 0.000149241)
(8.3591e-05 0.00106307 0.000134811)
(8.93768e-05 0.00105441 0.000119505)
(9.37845e-05 0.00104318 0.000103794)
(9.68111e-05 0.00102988 8.7958e-05)
(9.8495e-05 0.00101543 7.2429e-05)
(9.88756e-05 0.00100006 5.74201e-05)
(9.7996e-05 0.000984467 4.32423e-05)
(9.5895e-05 0.000968698 2.99707e-05)
(9.26753e-05 0.000953193 1.78293e-05)
(8.83724e-05 0.000937809 6.80192e-06)
(8.30877e-05 0.00092277 -2.98747e-06)
(7.68827e-05 0.000907741 -1.16364e-05)
(6.9864e-05 0.000892713 -1.91034e-05)
(6.21229e-05 0.000877111 -2.55673e-05)
(5.3789e-05 0.00086063 -3.10634e-05)
(4.50064e-05 0.000842353 -3.58647e-05)
(3.59516e-05 0.000821506 -4.01203e-05)
(2.68508e-05 0.00079658 -4.42143e-05)
(1.7963e-05 0.000765996 -4.83707e-05)
(9.60617e-06 0.000727176 -5.33412e-05)
(2.2532e-06 0.000677115 -6.13098e-05)
(-3.06578e-06 0.000611272 -7.68225e-05)
(-4.92126e-06 0.000524004 -9.62594e-05)
(-4.89506e-06 0.000331778 -7.95108e-05)
(-1.71814e-06 0.000404114 0.000180375)
(1.07172e-07 0.000627172 0.000182096)
(1.87284e-06 0.000731256 0.000160367)
(5.3035e-06 0.000810656 0.000142223)
(9.50014e-06 0.000871381 0.00013031)
(1.40914e-05 0.000917339 0.000120694)
(1.88884e-05 0.00095207 0.000111588)
(2.38007e-05 0.000977725 0.000102453)
(2.86818e-05 0.000996481 9.32645e-05)
(3.34041e-05 0.00100953 8.38824e-05)
(3.78445e-05 0.00101831 7.4409e-05)
(4.18769e-05 0.00102349 6.48123e-05)
(4.54197e-05 0.0010261 5.52989e-05)
(4.83529e-05 0.00102647 4.58861e-05)
(5.06426e-05 0.00102537 3.6846e-05)
(5.22307e-05 0.00102293 2.81847e-05)
(5.30576e-05 0.00101973 2.00573e-05)
(5.31323e-05 0.00101572 1.25194e-05)
(5.24699e-05 0.00101132 5.76119e-06)
(5.10412e-05 0.00100632 -3.07372e-07)
(4.88976e-05 0.00100096 -5.55257e-06)
(4.60485e-05 0.000994908 -1.01097e-05)
(4.25607e-05 0.000988204 -1.39001e-05)
(3.84765e-05 0.000980291 -1.71093e-05)
(3.38788e-05 0.000970971 -1.97071e-05)
(2.88545e-05 0.000959372 -2.19338e-05)
(2.3518e-05 0.000944889 -2.3815e-05)
(1.80091e-05 0.00092614 -2.56623e-05)
(1.24952e-05 0.000901821 -2.75553e-05)
(7.18438e-06 0.00086965 -2.98327e-05)
(2.3046e-06 0.000827074 -3.27849e-05)
(-1.77814e-06 0.000770211 -3.79866e-05)
(-4.39657e-06 0.00069424 -4.81522e-05)
(-4.87667e-06 0.000592341 -6.07661e-05)
(-3.98999e-06 0.000367344 -4.82159e-05)
(-1.53516e-06 0.00036027 0.000115694)
(-9.81669e-07 0.000582292 0.000118547)
(-9.03099e-07 0.00068586 0.000107652)
(-2.10912e-07 0.000765561 9.79446e-05)
(8.79479e-07 0.000826976 9.0902e-05)
(2.22109e-06 0.000874657 8.48105e-05)
(3.74846e-06 0.000911623 7.87398e-05)
(5.43508e-06 0.000940555 7.26373e-05)
(7.22538e-06 0.000963057 6.64123e-05)
(9.07229e-06 0.000980785 6.02044e-05)
(1.09144e-05 0.000994566 5.39627e-05)
(1.27056e-05 0.00100549 4.78814e-05)
(1.43801e-05 0.00101394 4.19402e-05)
(1.5909e-05 0.00102068 3.63491e-05)
(1.7222e-05 0.00102583 3.10836e-05)
(1.82806e-05 0.00102995 2.63584e-05)
(1.90506e-05 0.001033 2.20873e-05)
(1.95192e-05 0.00103537 1.84473e-05)
(1.96368e-05 0.00103685 1.53393e-05)
(1.94073e-05 0.00103771 1.28841e-05)
(1.88221e-05 0.00103759 1.0925e-05)
(1.78675e-05 0.00103659 9.59189e-06)
(1.65574e-05 0.00103418 8.68349e-06)
(1.49165e-05 0.00103026 8.23437e-06)
(1.29767e-05 0.00102403 8.00684e-06)
(1.07874e-05 0.00101505 8.00362e-06)
(8.41398e-06 0.00100212 7.94592e-06)
(5.93832e-06 0.000984263 7.79552e-06)
(3.46421e-06 0.000959524 7.23672e-06)
(1.10583e-06 0.000925974 6.21329e-06)
(-9.96105e-07 0.00088036 4.2802e-06)
(-2.64984e-06 0.00081902 6.30735e-07)
(-3.49244e-06 0.000736352 -6.62404e-06)
(-3.28496e-06 0.000625531 -1.59191e-05)
(-2.34899e-06 0.000380924 -1.3e-05)
(-2.29657e-06 0.000338459 7.96336e-05)
(-3.26658e-06 0.000561585 9.18668e-05)
(-4.84717e-06 0.000665495 9.19775e-05)
(-6.5488e-06 0.00074515 9.038e-05)
(-7.91706e-06 0.000806665 8.83807e-05)
(-8.97153e-06 0.000854306 8.5679e-05)
(-9.74952e-06 0.000891604 8.23654e-05)
(-1.02423e-05 0.000920835 7.84959e-05)
(-1.04565e-05 0.000944102 7.43439e-05)
(-1.03987e-05 0.00096259 6.99511e-05)
(-1.00915e-05 0.000977616 6.55617e-05)
(-9.55823e-06 0.000989754 6.1196e-05)
(-8.83673e-06 0.000999879 5.70855e-05)
(-7.96206e-06 0.00100821 5.3227e-05)
(-6.979e-06 0.00101535 4.98251e-05)
(-5.91403e-06 0.00102129 4.68376e-05)
(-4.83895e-06 0.00102645 4.44708e-05)
(-3.78472e-06 0.00103065 4.26444e-05)
(-2.79028e-06 0.00103419 4.14878e-05)
(-1.89668e-06 0.00103673 4.0873e-05)
(-1.14331e-06 0.00103849 4.08655e-05)
(-5.30338e-07 0.00103896 4.12304e-05)
(-8.57736e-08 0.00103814 4.20122e-05)
(1.87513e-07 0.00103531 4.29949e-05)
(2.96363e-07 0.0010302 4.41752e-05)
(2.51474e-07 0.00102178 4.5294e-05)
(7.76593e-08 0.00100937 4.63078e-05)
(-1.87339e-07 0.000991396 4.69138e-05)
(-5.0757e-07 0.000966447 4.70234e-05)
(-8.31295e-07 0.000932011 4.62921e-05)
(-1.11453e-06 0.000885381 4.45e-05)
(-1.29753e-06 0.000822351 4.08091e-05)
(-1.28762e-06 0.000737857 3.40216e-05)
(-1.0006e-06 0.00062462 2.43599e-05)
(-5.04161e-07 0.00037585 1.50163e-05)
(-3.11449e-06 0.000323082 6.0164e-05)
(-5.12561e-06 0.000542361 8.24794e-05)
(-7.64733e-06 0.000644063 9.08328e-05)
(-1.05818e-05 0.000721938 9.53188e-05)
(-1.31052e-05 0.00078173 9.70829e-05)
(-1.52289e-05 0.000828052 9.70346e-05)
(-1.69822e-05 0.000864 9.56311e-05)
(-1.83747e-05 0.000892268 9.33437e-05)
(-1.93764e-05 0.000914501 9.03861e-05)
(-1.99993e-05 0.000932336 8.70904e-05)
(-2.02305e-05 0.000946616 8.35771e-05)
(-2.01011e-05 0.000958386 8.0115e-05)
(-1.96214e-05 0.000968028 7.67725e-05)
(-1.88365e-05 0.000976249 7.37746e-05)
(-1.77731e-05 0.00098315 7.11437e-05)
(-1.64871e-05 0.000989223 6.90586e-05)
(-1.50176e-05 0.000994376 6.74899e-05)
(-1.34266e-05 0.000998944 6.65613e-05)
(-1.17567e-05 0.00100268 6.61824e-05)
(-1.00677e-05 0.00100578 6.64273e-05)
(-8.40172e-06 0.0010078 6.71727e-05)
(-6.8045e-06 0.00100879 6.84412e-05)
(-5.30174e-06 0.00100816 7.00321e-05)
(-3.92676e-06 0.00100575 7.1914e-05)
(-2.69414e-06 0.00100075 7.38447e-05)
(-1.61769e-06 0.000992676 7.57513e-05)
(-6.988e-07 0.000980304 7.73481e-05)
(6.2011e-08 0.000962648 7.8512e-05)
(6.70813e-07 0.000937798 7.88963e-05)
(1.13472e-06 0.000903858 7.82996e-05)
(1.44356e-06 0.000857714 7.62175e-05)
(1.56559e-06 0.000795833 7.2014e-05)
(1.44957e-06 0.000712936 6.43571e-05)
(1.24987e-06 0.000602496 5.28122e-05)
(1.0486e-06 0.00036052 3.23529e-05)
(-3.28363e-06 0.000311874 4.44814e-05)
(-5.65444e-06 0.000523469 7.14952e-05)
(-8.56249e-06 0.000621444 8.39363e-05)
(-1.19768e-05 0.000696064 9.1365e-05)
(-1.49728e-05 0.000753247 9.49842e-05)
(-1.75128e-05 0.000797091 9.6078e-05)
(-1.96552e-05 0.00083099 9.55067e-05)
(-2.13655e-05 0.000857177 9.37164e-05)
(-2.26393e-05 0.000877671 9.11377e-05)
(-2.34403e-05 0.000893671 8.80145e-05)
(-2.37829e-05 0.000906436 8.4667e-05)
(-2.36599e-05 0.000916578 8.12528e-05)
(-2.31111e-05 0.000924923 7.80262e-05)
(-2.21491e-05 0.000931737 7.50871e-05)
(-2.08356e-05 0.000937576 7.26351e-05)
(-1.92072e-05 0.000942481 7.07126e-05)
(-1.73359e-05 0.000946825 6.94597e-05)
(-1.52685e-05 0.000950473 6.88566e-05)
(-1.30814e-05 0.000953649 6.89784e-05)
(-1.08322e-05 0.000956065 6.97389e-05)
(-8.59266e-06 0.000957794 7.11478e-05)
(-6.40866e-06 0.000958386 7.30546e-05)
(-4.34492e-06 0.00095774 7.54078e-05)
(-2.44221e-06 0.000955205 7.8001e-05)
(-7.38116e-07 0.000950443 8.07291e-05)
(7.42288e-07 0.000942508 8.33361e-05)
(1.97909e-06 0.000930691 8.56663e-05)
(2.96075e-06 0.000913568 8.74067e-05)
(3.67839e-06 0.000889799 8.83251e-05)
(4.12133e-06 0.000857124 8.80164e-05)
(4.28146e-06 0.000813081 8.6067e-05)
(4.08076e-06 0.000753917 8.16582e-05)
(3.4425e-06 0.000675142 7.35591e-05)
(2.64126e-06 0.000570268 6.08252e-05)
(1.88368e-06 0.00034126 3.50075e-05)
(-2.75246e-06 0.000303699 2.5792e-05)
(-4.98412e-06 0.000507451 5.00064e-05)
(-7.80697e-06 0.00060147 6.21751e-05)
(-1.12003e-05 0.000672906 6.95495e-05)
(-1.42382e-05 0.000727205 7.29409e-05)
(-1.68745e-05 0.0007686 7.37799e-05)
(-1.90987e-05 0.000800074 7.28505e-05)
(-2.08911e-05 0.000824129 7.0701e-05)
(-2.21905e-05 0.00084241 6.76651e-05)
(-2.29829e-05 0.000856454 6.41082e-05)
(-2.32417e-05 0.000867164 6.02692e-05)
(-2.29871e-05 0.000875531 5.64367e-05)
(-2.22246e-05 0.000882025 5.27852e-05)
(-2.10108e-05 0.000887308 4.95439e-05)
(-1.93778e-05 0.000891579 4.68307e-05)
(-1.74012e-05 0.000895279 4.48111e-05)
(-1.5145e-05 0.000898408 4.35367e-05)
(-1.26966e-05 0.000901235 4.31004e-05)
(-1.01286e-05 0.000903596 4.34789e-05)
(-7.53333e-06 0.000905598 4.46874e-05)
(-4.98416e-06 0.000906918 4.66261e-05)
(-2.56401e-06 0.000907497 4.9235e-05)
(-3.3397e-07 0.000906831 5.23451e-05)
(1.64595e-06 0.000904662 5.58306e-05)
(3.33287e-06 0.000900252 5.94638e-05)
(4.68942e-06 0.00089306 6.3065e-05)
(5.69545e-06 0.000881998 6.63548e-05)
(6.34553e-06 0.000866077 6.90984e-05)
(6.63472e-06 0.000843626 7.09518e-05)
(6.57494e-06 0.000812872 7.16003e-05)
(6.16809e-06 0.000771125 7.05448e-05)
(5.37648e-06 0.000715198 6.7099e-05)
(4.15643e-06 0.000640567 6.00312e-05)
(2.91066e-06 0.00054145 4.85645e-05)
(1.88105e-06 0.000324974 2.49257e-05)
(-1.73781e-06 0.000301738 3.69181e-06)
(-3.56267e-06 0.000501583 1.88545e-05)
(-6.07356e-06 0.000593589 2.75293e-05)
(-9.20349e-06 0.000663038 3.25168e-05)
(-1.21679e-05 0.000715507 3.41511e-05)
(-1.48121e-05 0.000754917 3.35492e-05)
(-1.71035e-05 0.000784488 3.14112e-05)
(-1.89534e-05 0.000806444 2.81372e-05)
(-2.03065e-05 0.000822725 2.40864e-05)
(-2.11063e-05 0.000834608 1.95449e-05)
(-2.13427e-05 0.000843323 1.48402e-05)
(-2.10041e-05 0.000849606 1.02163e-05)
(-2.01241e-05 0.000854265 5.8729e-06)
(-1.87297e-05 0.000857701 1.99839e-06)
(-1.68918e-05 0.000860453 -1.18507e-06)
(-1.46757e-05 0.000862687 -3.55879e-06)
(-1.21733e-05 0.00086474 -4.98832e-06)
(-9.47333e-06 0.000866586 -5.43176e-06)
(-6.68431e-06 0.000868384 -4.84759e-06)
(-3.90145e-06 0.000869932 -3.27962e-06)
(-1.22628e-06 0.000871213 -7.7699e-07)
(1.25168e-06 0.000871846 2.53144e-06)
(3.45023e-06 0.000871621 6.51491e-06)
(5.30627e-06 0.000869948 1.09719e-05)
(6.76674e-06 0.00086638 1.57072e-05)
(7.79176e-06 0.000860049 2.04654e-05)
(8.37636e-06 0.000850164 2.50054e-05)
(8.51513e-06 0.000835426 2.9033e-05)
(8.23685e-06 0.000814485 3.22696e-05)
(7.57182e-06 0.000785306 3.43865e-05)
(6.57155e-06 0.000745557 3.50152e-05)
(5.24654e-06 0.000691878 3.35728e-05)
(3.66304e-06 0.000620174 2.91361e-05)
(2.24765e-06 0.000524649 2.13338e-05)
(1.24423e-06 0.000315987 6.30347e-06)
(-6.42679e-07 0.000307793 -1.78589e-05)
(-2.06109e-06 0.000509958 -1.42976e-05)
(-4.16473e-06 0.000602661 -1.05445e-05)
(-6.99707e-06 0.000672284 -8.90749e-06)
(-9.8453e-06 0.000724307 -9.69462e-06)
(-1.25069e-05 0.000762936 -1.21645e-05)
(-1.48611e-05 0.000791264 -1.58796e-05)
(-1.68054e-05 0.000811807 -2.05398e-05)
(-1.82405e-05 0.000826364 -2.59057e-05)
(-1.91083e-05 0.000836509 -3.16991e-05)
(-1.93613e-05 0.000843316 -3.7669e-05)
(-1.90033e-05 0.000847796 -4.35117e-05)
(-1.80469e-05 0.00085059 -4.8904e-05)
(-1.65456e-05 0.000852395 -5.36157e-05)
(-1.45617e-05 0.000853575 -5.74767e-05)
(-1.21881e-05 0.000854577 -6.03161e-05)
(-9.52042e-06 0.000855539 -6.20309e-05)
(-6.66865e-06 0.000856696 -6.25421e-05)
(-3.75095e-06 0.000857984 -6.18353e-05)
(-8.8237e-07 0.000859437 -5.99319e-05)
(1.82782e-06 0.000860792 -5.69134e-05)
(4.27418e-06 0.000861881 -5.28971e-05)
(6.36497e-06 0.000862231 -4.80526e-05)
(8.03057e-06 0.000861444 -4.25781e-05)
(9.21434e-06 0.000858797 -3.67099e-05)
(9.88719e-06 0.000853603 -3.07004e-05)
(1.00365e-05 0.000844794 -2.48244e-05)
(9.68944e-06 0.000831247 -1.93504e-05)
(8.87841e-06 0.000811343 -1.45526e-05)
(7.68165e-06 0.000783223 -1.06733e-05)
(6.17983e-06 0.000744308 -7.98223e-06)
(4.46911e-06 0.000691421 -6.8353e-06)
(2.68549e-06 0.000620256 -7.79099e-06)
(1.298e-06 0.000525206 -1.06318e-05)
(4.00309e-07 0.000317062 -1.41696e-05)
(2.39091e-07 0.000322492 -3.47895e-05)
(-8.8728e-07 0.000532975 -4.18696e-05)
(-2.61761e-06 0.000629218 -4.28706e-05)
(-5.14391e-06 0.000701003 -4.45433e-05)
(-7.84798e-06 0.000754186 -4.77006e-05)
(-1.04534e-05 0.000793065 -5.20034e-05)
(-1.28136e-05 0.00082105 -5.72241e-05)
(-1.47778e-05 0.00084066 -6.3189e-05)
(-1.6247e-05 0.000853974 -6.96985e-05)
(-1.71342e-05 0.000862523 -7.64987e-05)
(-1.74031e-05 0.00086765 -8.33181e-05)
(-1.70369e-05 0.000870335 -8.99034e-05)
(-1.60609e-05 0.000871482 -9.59967e-05)
(-1.45215e-05 0.000871685 -0.000101341)
(-1.24931e-05 0.000871532 -0.000105719)
(-1.00639e-05 0.000871349 -0.00010895)
(-7.34502e-06 0.000871476 -0.000110906)
(-4.45326e-06 0.000872005 -0.000111504)
(-1.514e-06 0.000873047 -0.00011072)
(1.34568e-06 0.000874469 -0.000108578)
(4.00772e-06 0.000876156 -0.000105162)
(6.3578e-06 0.000877748 -0.000100599)
(8.307e-06 0.000878892 -9.50685e-05)
(9.76993e-06 0.000878979 -8.87857e-05)
(1.06994e-05 0.000877384 -8.20004e-05)
(1.10616e-05 0.000873193 -7.49819e-05)
(1.08599e-05 0.000865414 -6.80127e-05)
(1.0123e-05 0.000852685 -6.13588e-05)
(8.92248e-06 0.000833439 -5.52642e-05)
(7.33975e-06 0.000805567 -4.99121e-05)
(5.50433e-06 0.000766504 -4.54577e-05)
(3.54771e-06 0.000712798 -4.20575e-05)
(1.70339e-06 0.000640085 -3.99195e-05)
(4.31625e-07 0.000542446 -3.83036e-05)
(-3.64942e-07 0.000328121 -3.13729e-05)
(7.12703e-07 0.000343793 -4.43364e-05)
(-3.08346e-07 0.000566504 -5.82912e-05)
(-1.74507e-06 0.000668051 -6.25059e-05)
(-4.0353e-06 0.000743445 -6.64348e-05)
(-6.57164e-06 0.000798813 -7.1196e-05)
(-9.07376e-06 0.000838857 -7.67346e-05)
(-1.13494e-05 0.000867126 -8.29759e-05)
(-1.32628e-05 0.000886442 -8.98354e-05)
(-1.46864e-05 0.000898948 -9.71603e-05)
(-1.55436e-05 0.000906426 -0.000104732)
(-1.57838e-05 0.000910236 -0.000112281)
(-1.53951e-05 0.000911557 -0.000119529)
(-1.43954e-05 0.000911274 -0.000126194)
(-1.28374e-05 0.000910178 -0.000132026)
(-1.07889e-05 0.000908819 -0.000136796)
(-8.34731e-06 0.000907692 -0.000140322)
(-5.6223e-06 0.000907071 -0.000142465)
(-2.73672e-06 0.000907183 -0.000143145)
(1.79168e-07 0.000908045 -0.000142329)
(2.99649e-06 0.000909626 -0.000140051)
(5.59038e-06 0.000911687 -0.000136388)
(7.85072e-06 0.000913937 -0.000131483)
(9.67376e-06 0.000915872 -0.000125515)
(1.09865e-05 0.000916925 -0.000118715)
(1.17321e-05 0.000916294 -0.000111337)
(1.1889e-05 0.000913077 -0.000103661)
(1.14558e-05 0.000906084 -9.59668e-05)
(1.04807e-05 0.000893936 -8.85226e-05)
(9.03427e-06 0.000874839 -8.1543e-05)
(7.22771e-06 0.000846627 -7.51774e-05)
(5.1884e-06 0.000806459 -6.94964e-05)
(3.10124e-06 0.000750759 -6.45303e-05)
(1.21659e-06 0.000674797 -6.02442e-05)
(4.72537e-08 0.000572405 -5.55793e-05)
(-7.74791e-07 0.000347119 -4.17135e-05)
(7.93523e-07 0.00036892 -4.65279e-05)
(-2.78529e-07 0.00060522 -6.27428e-05)
(-1.59482e-06 0.00071278 -6.81637e-05)
(-3.77049e-06 0.000792304 -7.29714e-05)
(-6.2052e-06 0.000850362 -7.83675e-05)
(-8.60499e-06 0.000891934 -8.43983e-05)
(-1.07921e-05 0.000920876 -9.10592e-05)
(-1.26167e-05 0.000940165 -9.82856e-05)
(-1.39652e-05 0.000952177 -0.00010595)
(-1.47502e-05 0.00095878 -0.000113833)
(-1.49274e-05 0.000961524 -0.000121676)
(-1.44771e-05 0.000961635 -0.000129191)
(-1.34279e-05 0.000960157 -0.000136104)
(-1.18272e-05 0.000957902 -0.000142149)
(-9.74527e-06 0.000955554 -0.0001471)
(-7.2802e-06 0.000953597 -0.000150766)
(-4.54361e-06 0.000952412 -0.000153011)
(-1.65808e-06 0.000952188 -0.000153742)
(1.24637e-06 0.000953016 -0.000152937)
(4.04146e-06 0.000954796 -0.000150618)
(6.60126e-06 0.00095733 -0.000146877)
(8.81104e-06 0.000960231 -0.000141846)
(1.05779e-05 0.000963003 -0.000135721)
(1.18214e-05 0.000964956 -0.000128725)
(1.249e-05 0.000965268 -0.000121127)
(1.2558e-05 0.000962889 -0.000113199)
(1.20379e-05 0.00095658 -0.000105232)
(1.09652e-05 0.000944786 -9.74816e-05)
(9.42611e-06 0.000925628 -9.01664e-05)
(7.52533e-06 0.000896719 -8.34109e-05)
(5.40513e-06 0.000855073 -7.72717e-05)
(3.23797e-06 0.00079682 -7.17245e-05)
(1.30115e-06 0.000716963 -6.66657e-05)
(1.41037e-07 0.000608913 -6.09349e-05)
(-8.1848e-07 0.000370797 -4.47443e-05)
(5.9063e-07 0.000394739 -4.28672e-05)
(-6.3145e-07 0.000643931 -5.72527e-05)
(-1.96329e-06 0.000757202 -6.20361e-05)
(-4.1433e-06 0.000840705 -6.64611e-05)
(-6.5269e-06 0.000901353 -7.15957e-05)
(-8.85233e-06 0.000944459 -7.74498e-05)
(-1.09407e-05 0.000974085 -8.398e-05)
(-1.26646e-05 0.000993434 -9.11149e-05)
(-1.39081e-05 0.00100501 -9.87047e-05)
(-1.45921e-05 0.00101087 -0.000106533)
(-1.46718e-05 0.00101263 -0.000114329)
(-1.414e-05 0.00101166 -0.000121815)
(-1.30147e-05 0.00100908 -0.000128703)
(-1.13458e-05 0.0010058 -0.000134738)
(-9.21092e-06 0.00100255 -0.000139683)
(-6.70155e-06 0.000999886 -0.000143355)
(-3.92869e-06 0.000998205 -0.000145609)
(-1.01585e-06 0.000997752 -0.000146363)
(1.90834e-06 0.000998593 -0.000145581)
(4.71578e-06 0.00100066 -0.000143298)
(7.28561e-06 0.00100369 -0.000139594)
(9.50364e-06 0.0010073 -0.000134613)
(1.12723e-05 0.00101091 -0.00012854)
(1.25177e-05 0.0010138 -0.000121609)
(1.31895e-05 0.00101504 -0.000114077)
(1.32614e-05 0.00101351 -0.000106234)
(1.2737e-05 0.00100786 -9.83548e-05)
(1.16668e-05 0.00099642 -9.07111e-05)
(1.01152e-05 0.000977161 -8.3518e-05)
(8.20153e-06 0.000947564 -7.69221e-05)
(6.04893e-06 0.000904421 -7.09904e-05)
(3.82434e-06 0.000843662 -6.57458e-05)
(1.78786e-06 0.000759968 -6.11401e-05)
(5.50743e-07 0.00064641 -5.61319e-05)
(-6.05198e-07 0.000395813 -4.17077e-05)
(1.92938e-07 0.000418637 -3.55097e-05)
(-1.21786e-06 0.000678575 -4.52073e-05)
(-2.66984e-06 0.000796608 -4.80462e-05)
(-4.93238e-06 0.000883388 -5.11744e-05)
(-7.32074e-06 0.000946146 -5.54099e-05)
(-9.59363e-06 0.000990428 -6.05967e-05)
(-1.1599e-05 0.00102051 -6.66084e-05)
(-1.32211e-05 0.00103974 -7.33137e-05)
(-1.43571e-05 0.0010508 -8.05421e-05)
(-1.49282e-05 0.00105583 -8.80521e-05)
(-1.48989e-05 0.00105659 -9.55732e-05)
(-1.42614e-05 0.00105453 -0.000102817)
(-1.30399e-05 0.00105086 -0.000109503)
(-1.12844e-05 0.00104657 -0.000115366)
(-9.0689e-06 0.00104245 -0.000120182)
(-6.4897e-06 0.00103911 -0.00012376)
(-3.65363e-06 0.00103698 -0.000125966)
(-6.8313e-07 0.00103633 -0.000126711)
(2.29531e-06 0.00103724 -0.000125969)
(5.1552e-06 0.00103962 -0.000123765)
(7.77433e-06 0.00104321 -0.000120185)
(1.0044e-05 0.00104757 -0.000115364)
(1.18685e-05 0.00105208 -0.000109491)
(1.31698e-05 0.00105595 -0.000102792)
(1.3901e-05 0.00105819 -9.55311e-05)
(1.4032e-05 0.00105759 -8.79894e-05)
(1.35682e-05 0.0010527 -8.04554e-05)
(1.25476e-05 0.00104174 -7.31986e-05)
(1.10423e-05 0.00102257 -6.6459e-05)
(9.15209e-06 0.000992522 -6.04051e-05)
(6.99446e-06 0.000948226 -5.5163e-05)
(4.71624e-06 0.000885411 -5.08445e-05)
(2.54808e-06 0.000798522 -4.75765e-05)
(1.1619e-06 0.000680326 -4.45571e-05)
(-2.06571e-07 0.000419219 -3.47744e-05)
(-2.66538e-07 0.000438942 -2.67195e-05)
(-1.86269e-06 0.000706757 -3.04043e-05)
(-3.48098e-06 0.000828239 -3.06609e-05)
(-5.86797e-06 0.000917332 -3.20396e-05)
(-8.28694e-06 0.000981475 -3.50418e-05)
(-1.05295e-05 0.0010264 -3.93037e-05)
(-1.24672e-05 0.00105654 -4.4575e-05)
(-1.39986e-05 0.00107537 -5.06634e-05)
(-1.50281e-05 0.00108567 -5.73566e-05)
(-1.54921e-05 0.00108972 -6.43962e-05)
(-1.53524e-05 0.00108935 -7.15018e-05)
(-1.46078e-05 0.00108611 -7.83808e-05)
(-1.32831e-05 0.00108129 -8.4749e-05)
(-1.14318e-05 0.00107595 -9.03472e-05)
(-9.12729e-06 0.00107093 -9.49493e-05)
(-6.46161e-06 0.0010669 -9.83733e-05)
(-3.54812e-06 0.00106433 -0.000100486)
(-5.0295e-07 0.0010635 -0.000101206)
(2.54824e-06 0.00106451 -0.000100505)
(5.47962e-06 0.00106725 -9.841e-05)
(8.17157e-06 0.00107145 -9.5001e-05)
(1.05164e-05 0.00107663 -9.04105e-05)
(1.24176e-05 0.00108212 -8.48204e-05)
(1.37999e-05 0.00108708 -7.84559e-05)
(1.46123e-05 0.00109045 -7.15771e-05)
(1.48253e-05 0.00109093 -6.4468e-05)
(1.44412e-05 0.00108698 -5.7421e-05)
(1.34946e-05 0.00107675 -5.07158e-05)
(1.20467e-05 0.00105797 -4.46091e-05)
(1.01951e-05 0.00102787 -3.93109e-05)
(8.03737e-06 0.00098294 -3.5009e-05)
(5.69808e-06 0.000918772 -3.19415e-05)
(3.38574e-06 0.000829625 -3.0449e-05)
(1.8215e-06 0.000708057 -3.00395e-05)
(2.53359e-07 0.000439219 -2.62507e-05)
(-6.80268e-07 0.000455006 -1.8556e-05)
(-2.42283e-06 0.000727799 -1.63672e-05)
(-4.20549e-06 0.000851401 -1.40567e-05)
(-6.71382e-06 0.0009418 -1.367e-05)
(-9.17504e-06 0.00100657 -1.54083e-05)
(-1.14017e-05 0.00105156 -1.87016e-05)
(-1.32916e-05 0.0010813 -2.318e-05)
(-1.47547e-05 0.00109938 -2.85911e-05)
(-1.57013e-05 0.00110866 -3.46867e-05)
(-1.60738e-05 0.00111149 -4.11932e-05)
(-1.5841e-05 0.00110982 -4.78199e-05)
(-1.50033e-05 0.00110526 -5.42732e-05)
(-1.35865e-05 0.00109918 -6.02671e-05)
(-1.16462e-05 0.00109269 -6.5547e-05)
(-9.25582e-06 0.00108672 -6.98897e-05)
(-6.51015e-06 0.00108196 -7.31227e-05)
(-3.5157e-06 0.00107893 -7.51169e-05)
(-3.95035e-07 0.00107792 -7.57997e-05)
(2.7295e-06 0.00107905 -7.51424e-05)
(5.73738e-06 0.0010822 -7.31723e-05)