/*--------------------------------*- C++ -*----------------------------------*\
| =========                 |                                                 |
| \\      /  F ield         | OpenFOAM: The Open Source CFD Toolbox           |
|  \\    /   O peration     | Version:  v1906                                 |
|   \\  /    A nd           | Web:      www.OpenFOAM.com                      |
|    \\/     M anipulation  |                                                 |
\*---------------------------------------------------------------------------*/
FoamFile
{
    version     2.0;
    format      ascii;
    class       surfaceScalarField;
    location    "1.2/oil";
    object      phi;
}
// * * * * * * * * * * * * * * * * * * * * * * * * * * * * * * * * * * * * * //

dimensions      [1 0 -1 0 0 0 0];
oriented        oriented;


internalField   nonuniform List<scalar> 
80688
(
-3.35498e-06
-3.41198e-06
-3.35497e-06
-1.51909e-06
-9.47241e-07
-8.88644e-07
-4.21461e-07
-5.49306e-07
-5.48323e-07
-2.1933e-07
-9.84906e-08
-1.0364e-07
-1.0542e-07
-5.46755e-08
-5.9235e-08
-5.45583e-08
-2.34883e-08
-2.73735e-08
-2.99493e-08
-1.05228e-08
-1.40862e-08
-1.75705e-08
-4.46966e-09
-7.90913e-09
-1.10292e-08
-1.57705e-09
-4.96421e-09
-7.39082e-09
-1.39373e-10
-3.49901e-09
-5.24162e-09
5.8808e-10
-2.73727e-09
-3.88908e-09
9.73919e-10
-2.32645e-09
-2.97937e-09
1.18562e-09
-2.09532e-09
-2.3275e-09
1.30797e-09
-1.95984e-09
-1.83525e-09
1.38441e-09
-1.87665e-09
-1.44919e-09
1.43734e-09
-1.8234e-09
-1.13831e-09
1.47794e-09
-1.78882e-09
-8.80481e-10
1.51058e-09
-1.76841e-09
-6.54377e-10
1.53532e-09
-1.76142e-09
-4.33113e-10
1.54828e-09
-1.76955e-09
-1.80968e-10
1.54258e-09
-1.79472e-09
1.45256e-10
1.51074e-09
-1.83696e-09
5.82883e-10
1.45195e-09
-1.88958e-09
1.12885e-09
1.38734e-09
-1.9333e-09
1.68468e-09
1.37548e-09
-1.9313e-09
2.0175e-09
1.49861e-09
-1.83143e-09
1.83687e-09
1.76788e-09
-1.58724e-09
1.06671e-09
1.95968e-09
-1.18951e-09
1.87548e-10
1.56273e-09
-6.83564e-10
3.60584e-10
-1.73034e-10
-9.07012e-07
-1.59796e-06
-9.07006e-07
-5.53835e-07
-5.66505e-07
-7.33913e-07
-4.12095e-07
-3.6858e-07
-3.22467e-07
-2.28791e-07
-1.43327e-07
-1.38468e-07
-1.30705e-07
-7.47303e-08
-7.80313e-08
-7.81596e-08
-3.38315e-08
-4.22021e-08
-4.87336e-08
-1.49635e-08
-2.49853e-08
-3.19481e-08
-5.04168e-09
-1.62135e-08
-2.20027e-08
1.71686e-10
-1.16942e-08
-1.5845e-08
3.01226e-09
-9.30932e-09
-1.18306e-08
4.59154e-09
-8.01783e-09
-9.05454e-09
5.49447e-09
-7.29658e-09
-7.01589e-09
6.02562e-09
-6.87865e-09
-5.43382e-09
6.35123e-09
-6.62533e-09
-4.14975e-09
6.56132e-09
-6.46097e-09
-3.07383e-09
6.70582e-09
-6.34441e-09
-2.15172e-09
6.81045e-09
-6.25462e-09
-1.34343e-09
6.88523e-09
-6.18294e-09
-6.09607e-10
6.9298e-09
-6.1283e-09
9.82856e-11
6.93474e-09
-6.09435e-09
8.41864e-10
6.88546e-09
-6.08645e-09
1.69041e-09
6.77034e-09
-6.10814e-09
2.69475e-09
6.60266e-09
-6.15504e-09
3.82697e-09
6.45815e-09
-6.20304e-09
4.89006e-09
6.50518e-09
-6.19279e-09
5.45845e-09
6.94516e-09
-6.01493e-09
5.00346e-09
7.74146e-09
-5.51859e-09
3.33625e-09
8.18345e-09
-4.55657e-09
1.17098e-09
6.80822e-09
-3.08022e-09
2.69675e-09
-1.16519e-09
-5.69373e-07
-4.59222e-07
-5.69366e-07
-3.96024e-07
-4.06316e-07
-3.33538e-07
-2.87791e-07
-2.5998e-07
-2.16832e-07
-1.82839e-07
-1.27841e-07
-1.20438e-07
-1.1825e-07
-6.83366e-08
-7.09823e-08
-7.77329e-08
-3.21932e-08
-4.21559e-08
-5.27336e-08
-1.29907e-08
-2.69721e-08
-3.70929e-08
-1.91038e-09
-1.8772e-08
-2.70482e-08
4.46528e-09
-1.43383e-08
-2.03493e-08
8.22154e-09
-1.19082e-08
-1.56701e-08
1.04615e-08
-1.05492e-08
-1.22247e-08
1.18213e-08
-9.77224e-09
-9.55058e-09
1.26639e-08
-9.31234e-09
-7.37395e-09
1.32008e-08
-9.02621e-09
-5.53635e-09
1.35555e-08
-8.83178e-09
-3.94608e-09
1.37992e-08
-8.68365e-09
-2.54743e-09
1.39697e-08
-8.55793e-09
-1.29878e-09
1.4082e-08
-8.44541e-09
-1.5835e-10
1.41347e-08
-8.34536e-09
9.2435e-10
1.41156e-08
-8.26358e-09
2.01055e-09
1.40071e-08
-8.20785e-09
3.16306e-09
1.38033e-08
-8.18545e-09
4.41615e-09
1.35464e-08
-8.19685e-09
5.71386e-09
1.33834e-08
-8.22297e-09
6.82399e-09
1.35993e-08
-8.20422e-09
7.29123e-09
1.44914e-08
-8.01343e-09
6.56985e-09
1.59106e-08
-7.44772e-09
4.46202e-09
1.65594e-08
-6.26813e-09
1.68907e-09
1.392e-08
-4.33886e-09
6.07786e-09
-1.69203e-09
-1.15998e-07
-2.27232e-07
-1.15992e-07
-1.67373e-07
-2.10347e-07
-1.44595e-07
-1.56064e-07
-1.50217e-07
-1.21073e-07
-1.19339e-07
-8.52325e-08
-7.93325e-08
-8.82006e-08
-4.74873e-08
-5.19881e-08
-6.44015e-08
-2.20075e-08
-3.39848e-08
-4.75937e-08
-6.44054e-09
-2.3358e-08
-3.58537e-08
3.52298e-09
-1.71733e-08
-2.75867e-08
9.82545e-09
-1.36272e-08
-2.16107e-08
1.38411e-08
-1.15955e-08
-1.71292e-08
1.64013e-08
-1.04213e-08
-1.36194e-08
1.80455e-08
-9.73397e-09
-1.07493e-08
1.91133e-08
-9.31958e-09
-8.31334e-09
1.982e-08
-9.05516e-09
-6.18891e-09
2.0298e-08
-8.86691e-09
-4.30694e-09
2.0629e-08
-8.71178e-09
-2.62672e-09
2.08571e-08
-8.56764e-09
-1.1165e-09
2.09997e-08
-8.42792e-09
2.55237e-10
2.10568e-08
-8.29375e-09
1.52924e-09
2.1015e-08
-8.17334e-09
2.75266e-09
2.08601e-08
-8.07636e-09
3.96829e-09
2.06014e-08
-8.01374e-09
5.18726e-09
2.03177e-08
-7.99022e-09
6.33876e-09
2.02251e-08
-7.99315e-09
7.20632e-09
2.07035e-08
-7.97173e-09
7.40261e-09
2.21e-08
-7.80494e-09
6.49417e-09
2.41066e-08
-7.28756e-09
4.35888e-09
2.486e-08
-6.1653e-09
1.66155e-09
2.08998e-08
-4.28238e-09
9.40698e-09
-1.66757e-09
-6.37127e-08
-9.98129e-08
-6.37064e-08
-9.15937e-08
-1.03075e-07
-7.93903e-08
-9.2403e-08
-7.9697e-08
-6.97103e-08
-7.86286e-08
-4.83384e-08
-5.06685e-08
-6.37423e-08
-2.66054e-08
-3.57682e-08
-5.04919e-08
-1.02288e-08
-2.5029e-08
-3.99851e-08
1.18228e-09
-1.81297e-08
-3.18911e-08
9.2915e-09
-1.38625e-08
-2.56846e-08
1.49113e-08
-1.12924e-08
-2.08442e-08
1.87658e-08
-9.76513e-09
-1.69602e-08
2.13786e-08
-8.86123e-09
-1.37351e-08
2.31449e-08
-8.3245e-09
-1.09646e-08
2.43421e-08
-7.99935e-09
-8.51929e-09
2.51614e-08
-7.78667e-09
-6.32434e-09
2.57293e-08
-7.62622e-09
-4.34227e-09
2.61268e-08
-7.47989e-09
-2.55562e-09
2.63998e-08
-7.32931e-09
-9.50717e-10
2.65663e-08
-7.17155e-09
4.89778e-10
2.66276e-08
-7.01132e-09
1.79184e-09
2.65726e-08
-6.85972e-09
2.98414e-09
2.63975e-08
-6.72971e-09
4.09012e-09
2.61291e-08
-6.63365e-09
5.10437e-09
2.58819e-08
-6.57849e-09
5.95742e-09
2.59305e-08
-6.55852e-09
6.47916e-09
2.67154e-08
-6.53365e-09
6.39434e-09
2.8587e-08
-6.40224e-09
5.42468e-09
3.1062e-08
-5.98573e-09
3.5481e-09
3.17964e-08
-5.05984e-09
1.32746e-09
2.66117e-08
-3.49131e-09
1.20677e-08
-1.33324e-09
-2.85552e-08
-4.27085e-08
-2.85491e-08
-4.61588e-08
-4.4921e-08
-4.05506e-08
-5.25441e-08
-3.45152e-08
-3.87966e-08
-4.99039e-08
-2.00451e-08
-3.09335e-08
-4.42911e-08
-8.8234e-09
-2.33949e-08
-3.79011e-08
7.58802e-10
-1.73776e-08
-3.20095e-08
8.46754e-09
-1.31768e-08
-2.69159e-08
1.46182e-08
-1.04203e-08
-2.26184e-08
1.92985e-08
-8.68475e-09
-1.89781e-08
2.27499e-08
-7.62431e-09
-1.58399e-08
2.52309e-08
-6.99046e-09
-1.30689e-08
2.6991e-08
-6.61708e-09
-1.05636e-08
2.8232e-08
-6.39511e-09
-8.26345e-09
2.91087e-08
-6.24748e-09
-6.13898e-09
2.97298e-08
-6.125e-09
-4.18738e-09
3.01701e-08
-5.99486e-09
-2.41733e-09
3.04726e-08
-5.84283e-09
-8.33987e-10
3.06541e-08
-5.67105e-09
5.63686e-10
3.07176e-08
-5.48771e-09
1.78749e-09
3.06575e-08
-5.30868e-09
2.85224e-09
3.04816e-08
-5.14884e-09
3.76792e-09
3.02355e-08
-5.02207e-09
4.5223e-09
3.00662e-08
-4.93867e-09
5.06204e-09
3.02864e-08
-4.8956e-09
5.27236e-09
3.13677e-08
-4.86265e-09
4.98804e-09
3.36306e-08
-4.75926e-09
4.06978e-09
3.64227e-08
-4.44247e-09
2.56873e-09
3.70322e-08
-3.7347e-09
9.27713e-10
3.07902e-08
-2.53747e-09
1.39279e-08
-9.32482e-10
-1.37298e-08
-1.52546e-08
-1.37241e-08
-2.48414e-08
-1.22721e-08
-2.15373e-08
-3.09911e-08
-6.33491e-09
-2.20306e-08
-3.21212e-08
-5.44542e-11
-1.88606e-08
-3.07451e-08
4.90985e-09
-1.51093e-08
-2.81096e-08
9.92855e-09
-1.18053e-08
-2.51134e-08
1.47943e-08
-9.32288e-09
-2.21339e-08
1.92492e-08
-7.61059e-09
-1.93306e-08
2.29933e-08
-6.49805e-09
-1.67293e-08
2.59607e-08
-5.81209e-09
-1.43058e-08
2.82183e-08
-5.41091e-09
-1.20215e-08
2.98952e-08
-5.1885e-09
-9.8441e-09
3.11223e-08
-5.06776e-09
-7.76129e-09
3.20141e-08
-4.98819e-09
-5.78184e-09
3.26584e-08
-4.90804e-09
-3.93388e-09
3.31185e-08
-4.79635e-09
-2.25101e-09
3.34323e-08
-4.64252e-09
-7.55927e-10
3.36149e-08
-4.45597e-09
5.38872e-10
3.36724e-08
-4.2496e-09
1.63412e-09
3.36056e-08
-4.04332e-09
2.53658e-09
3.34336e-08
-3.85449e-09
3.25052e-09
3.32213e-08
-3.6998e-09
3.76697e-09
3.31389e-08
-3.5891e-09
4.05191e-09
3.35234e-08
-3.52196e-09
4.04303e-09
3.48523e-08
-3.47569e-09
3.65989e-09
3.74008e-08
-3.38703e-09
2.85912e-09
4.03683e-08
-3.14485e-09
1.72866e-09
4.07785e-08
-2.61582e-09
5.94414e-10
3.3659e-08
-1.73458e-09
1.51212e-08
-5.98878e-10
-6.85458e-09
-1.55069e-09
-6.84932e-09
-1.37275e-08
6.364e-09
-1.17631e-08
-1.865e-08
1.13783e-08
-1.27908e-08
-2.09171e-08
1.38591e-08
-1.16465e-08
-2.143e-08
1.52499e-08
-9.82711e-09
-2.07917e-08
1.73311e-08
-8.04075e-09
-1.9538e-08
2.01446e-08
-6.60402e-09
-1.79684e-08
2.32535e-08
-5.57388e-09
-1.6255e-08
2.61767e-08
-4.89677e-09
-1.44783e-08
2.86734e-08
-4.48943e-09
-1.26691e-08
3.0682e-08
-4.27293e-09
-1.08379e-08
3.2243e-08
-4.17886e-09
-8.9909e-09
3.34264e-08
-4.15113e-09
-7.14936e-09
3.43092e-08
-4.13664e-09
-5.3478e-09
3.49547e-08
-4.09791e-09
-3.64013e-09
3.54148e-08
-4.00401e-09
-2.08093e-09
3.57207e-08
-3.84766e-09
-7.07334e-10
3.58862e-08
-3.64489e-09
4.58548e-10
3.59202e-08
-3.41363e-09
1.41154e-09
3.58334e-08
-3.18077e-09
2.15503e-09
3.56559e-08
-2.96581e-09
2.69367e-09
3.54686e-08
-2.78586e-09
3.02547e-09
3.54574e-08
-2.65037e-09
3.13664e-09
3.59723e-08
-2.55999e-09
3.00321e-09
3.74832e-08
-2.49746e-09
2.60155e-09
4.02154e-08
-2.4129e-09
1.94169e-09
4.32476e-08
-2.21947e-09
1.11909e-09
4.34183e-08
-1.81725e-09
3.62291e-10
3.55815e-08
-1.16564e-09
1.5851e-08
-3.67586e-10
-3.60118e-09
5.64691e-09
-3.59642e-09
-7.94642e-09
1.7406e-08
-6.69675e-09
-1.163e-08
2.27657e-08
-7.70381e-09
-1.39585e-08
2.35909e-08
-7.40338e-09
-1.51655e-08
2.30029e-08
-6.54606e-09
-1.54899e-08
2.32448e-08
-5.58927e-09
-1.52117e-08
2.46372e-08
-4.77089e-09
-1.45235e-08
2.67361e-08
-4.17081e-09
-1.35586e-08
2.89967e-08
-3.78493e-09
-1.23958e-08
3.10866e-08
-3.57593e-09
-1.10815e-08
3.28664e-08
-3.49868e-09
-9.6427e-09
3.43107e-08
-3.50663e-09
-8.10346e-09
3.54429e-08
-3.55575e-09
-6.5029e-09
3.63059e-08
-3.59731e-09
-4.89237e-09
3.69411e-08
-3.59694e-09
-3.34403e-09
3.73857e-08
-3.5192e-09
-1.92919e-09
3.76648e-08
-3.35893e-09
-6.92324e-10
3.77916e-08
-3.14227e-09
3.36555e-10
3.77822e-08
-2.89093e-09
1.15212e-09
3.76546e-08
-2.63681e-09
1.75703e-09
3.74509e-08
-2.39985e-09
2.15943e-09
3.7266e-08
-2.19979e-09
2.36429e-09
3.72981e-08
-2.04557e-09
2.37489e-09
3.78993e-08
-1.93761e-09
2.19148e-09
3.95269e-08
-1.86037e-09
1.82265e-09
4.23582e-08
-1.77404e-09
1.30208e-09
4.53798e-08
-1.61157e-09
7.15192e-10
4.53011e-08
-1.29585e-09
2.1665e-10
3.68797e-08
-7.99694e-10
1.62915e-08
-2.23789e-10
-1.99789e-09
9.63852e-09
-1.99371e-09
-4.81605e-09
2.42269e-08
-4.00279e-09
-7.51784e-09
3.03153e-08
-4.84776e-09
-9.55964e-09
3.05154e-08
-4.88265e-09
-1.09176e-08
2.88613e-08
-4.50036e-09
-1.16493e-08
2.79702e-08
-3.99363e-09
-1.18799e-08
2.84031e-08
-3.5353e-09
-1.17146e-08
2.97706e-08
-3.19985e-09
-1.12413e-08
3.15238e-08
-3.00033e-09
-1.05198e-08
3.32881e-08
-2.92297e-09
-9.58921e-09
3.4877e-08
-2.94116e-09
-8.4799e-09
3.6222e-08
-3.0206e-09
-7.22044e-09
3.731e-08
-3.12659e-09
-5.85659e-09
3.81544e-08
-3.21232e-09
-4.44641e-09
3.87736e-08
-3.24265e-09
-3.07305e-09
3.91915e-08
-3.17918e-09
-1.81781e-09
3.94279e-08
-3.01834e-09
-7.28484e-10
3.94969e-08
-2.79463e-09
1.63703e-10
3.94219e-08
-2.53181e-09
8.53825e-10
3.92319e-08
-2.26744e-09
1.34584e-09
3.89815e-08
-2.02269e-09
1.65106e-09
3.87749e-08
-1.81412e-09
1.78139e-09
3.88182e-08
-1.65036e-09
1.74831e-09
3.94641e-08
-1.53178e-09
1.56691e-09
4.11536e-08
-1.44529e-09
1.25928e-09
4.40249e-08
-1.35908e-09
8.67233e-10
4.69891e-08
-1.21721e-09
4.57175e-10
4.66714e-08
-9.60304e-10
1.30318e-10
3.77789e-08
-5.723e-10
1.65619e-08
-1.40049e-10
-1.17505e-09
1.19851e-08
-1.1715e-09
-3.05924e-09
2.86279e-08
-2.51674e-09
-5.03555e-09
3.54804e-08
-3.1888e-09
-6.71149e-09
3.55315e-08
-3.34016e-09
-7.98364e-09
3.3321e-08
-3.18753e-09
-8.82982e-09
3.17394e-08
-2.92303e-09
-9.28909e-09
3.15331e-08
-2.67075e-09
-9.4108e-09
3.23841e-08
-2.49173e-09
-9.24417e-09
3.37611e-08
-2.40397e-09
-8.82777e-09
3.52754e-08
-2.40369e-09
-8.19002e-09
3.67142e-08
-2.47503e-09
-7.35654e-09
3.79813e-08
-2.59272e-09
-6.35275e-09
3.90347e-08
-2.72846e-09
-5.22391e-09
3.98634e-08
-2.83788e-09
-4.02647e-09
4.04647e-08
-2.88851e-09
-2.84671e-09
4.08492e-08
-2.83747e-09
-1.76767e-09
4.1031e-08
-2.68211e-09
-8.35353e-10
4.10299e-08
-2.46522e-09
-7.84311e-11
4.08764e-08
-2.21149e-09
5.00291e-10
4.06105e-08
-1.95724e-09
9.04303e-10
4.02986e-08
-1.7211e-09
1.14797e-09
4.00515e-08
-1.52031e-09
1.2452e-09
4.0082e-08
-1.36107e-09
1.212e-09
4.07406e-08
-1.24322e-09
1.06774e-09
4.24531e-08
-1.15525e-09
8.39733e-10
4.53247e-08
-1.07172e-09
5.63361e-10
4.82146e-08
-9.49152e-10
2.88807e-10
4.76852e-08
-7.39264e-10
7.96544e-11
3.84165e-08
-4.285e-10
1.67339e-08
-9.23982e-11
-7.30455e-10
1.34431e-08
-7.27592e-10
-2.02332e-09
3.15753e-08
-1.65451e-09
-3.47077e-09
3.91022e-08
-2.17431e-09
-4.79726e-09
3.92065e-08
-2.3485e-09
-5.89099e-09
3.67178e-08
-2.30307e-09
-6.70089e-09
3.47151e-08
-2.16581e-09
-7.22535e-09
3.40833e-08
-2.02569e-09
-7.48135e-09
3.4571e-08
-1.93095e-09
-7.49135e-09
3.56695e-08
-1.89846e-09
-7.27923e-09
3.69918e-08
-1.92851e-09
-6.86379e-09
3.83111e-08
-2.01233e-09
-6.26256e-09
3.95115e-08
-2.13145e-09
-5.49816e-09
4.05344e-08
-2.2641e-09
-4.60773e-09
4.13451e-08
-2.37205e-09
-3.64141e-09
4.19265e-08
-2.42809e-09
-2.67816e-09
4.22741e-08
-2.38815e-09
-1.79485e-09
4.2399e-08
-2.25127e-09
-1.02831e-09
4.23258e-08
-2.06245e-09
-4.04272e-10
4.20937e-08
-1.84128e-09
7.52836e-11
4.17536e-08
-1.62266e-09
4.16226e-10
4.13778e-08
-1.42013e-09
6.28771e-10
4.10869e-08
-1.24792e-09
7.26265e-10
4.10945e-08
-1.10995e-09
7.24707e-10
4.17477e-08
-1.00563e-09
6.4276e-10
4.34617e-08
-9.26591e-10
5.03169e-10
4.6316e-08
-8.51716e-10
3.35603e-10
4.91295e-08
-7.47308e-10
1.72286e-10
4.8425e-08
-5.76444e-10
4.78033e-11
3.88693e-08
-3.28261e-10
1.68454e-08
-6.36808e-11
-4.7581e-10
1.43927e-08
-4.73738e-10
-1.37834e-09
3.36022e-08
-1.12445e-09
-2.43313e-09
4.16735e-08
-1.51655e-09
-3.45219e-09
4.18978e-08
-1.67225e-09
-4.33742e-09
3.92725e-08
-1.66948e-09
-5.0372e-09
3.70096e-08
-1.59474e-09
-5.5338e-09
3.60903e-08
-1.51039e-09
-5.8272e-09
3.63174e-08
-1.45302e-09
-5.92722e-09
3.72061e-08
-1.43654e-09
-5.84692e-09
3.83741e-08
-1.46257e-09
-5.5989e-09
3.959e-08
-1.52691e-09
-5.19755e-09
4.07261e-08
-1.61596e-09
-4.65913e-09
4.17117e-08
-1.71573e-09
-4.01213e-09
4.24964e-08
-1.79835e-09
-3.29483e-09
4.30529e-08
-1.84375e-09
-2.56983e-09
4.33631e-08
-1.814e-09
-1.89762e-09
4.3435e-08
-1.70825e-09
-1.30586e-09
4.33019e-08
-1.56794e-09
-8.1268e-10
4.30058e-08
-1.4053e-09
-4.18587e-10
4.26052e-08
-1.24577e-09
-1.22193e-10
4.21792e-08
-1.09776e-09
8.30621e-11
4.18517e-08
-9.70045e-10
2.06194e-10
4.18368e-08
-8.65415e-10
2.59172e-10
4.24799e-08
-7.85089e-10
2.55256e-10
4.4188e-08
-7.22373e-10
2.12754e-10
4.70203e-08
-6.61815e-10
1.4926e-10
4.97722e-08
-5.79266e-10
8.13836e-11
4.8939e-08
-4.4616e-10
2.63234e-11
3.91769e-08
-2.52535e-10
1.69169e-08
-4.52144e-11
-3.20224e-10
1.50313e-08
-3.18385e-10
-9.50544e-10
3.50069e-08
-7.74341e-10
-1.70596e-09
4.34868e-08
-1.05792e-09
-2.45832e-09
4.38289e-08
-1.17879e-09
-3.1347e-09
4.11342e-08
-1.18532e-09
-3.69087e-09
3.87012e-08
-1.13547e-09
-4.10708e-09
3.75797e-08
-1.07325e-09
-4.3782e-09
3.76112e-08
-1.0226e-09
-4.50936e-09
3.83311e-08
-9.93858e-10
-4.50964e-09
3.93624e-08
-9.88073e-10
-4.38979e-09
4.04734e-08
-1.00317e-09
-4.16238e-09
4.15322e-08
-1.03352e-09
-3.83897e-09
4.24613e-08
-1.07303e-09
-3.43963e-09
4.32035e-08
-1.10641e-09
-2.98693e-09
4.37242e-08
-1.12394e-09
-2.51856e-09
4.39985e-08
-1.10374e-09
-2.07155e-09
4.40331e-08
-1.0451e-09
-1.65789e-09
4.38627e-08
-9.7437e-10
-1.29047e-09
4.35323e-08
-8.93947e-10
-9.71869e-10
4.31021e-08
-8.15476e-10
-7.05116e-10
4.26518e-08
-7.39388e-10
-4.89497e-10
4.23077e-08
-6.71633e-10
-3.22761e-10
4.22835e-08
-6.13454e-10
-1.99922e-10
4.29224e-08
-5.65431e-10
-1.13235e-10
4.46269e-08
-5.25604e-10
-5.42646e-11
4.74458e-08
-4.84482e-10
-1.6418e-11
5.01587e-08
-4.24307e-10
5.34071e-12
4.92447e-08
-3.27428e-10
9.18498e-12
3.9359e-08
-1.85938e-10
1.69568e-08
-3.07089e-11
-2.18623e-10
1.54673e-08
-2.17388e-10
-6.48865e-10
3.59643e-08
-5.27103e-10
-1.16798e-09
4.47242e-08
-7.18295e-10
-1.69075e-09
4.51493e-08
-7.97556e-10
-2.16822e-09
4.24085e-08
-7.96802e-10
-2.5699e-09
3.98562e-08
-7.53348e-10
-2.88134e-09
3.85857e-08
-6.94516e-10
-3.09906e-09
3.8464e-08
-6.35133e-10
-3.22867e-09
3.90427e-08
-5.81957e-10
-3.27879e-09
3.99498e-08
-5.37245e-10
-3.26042e-09
4.0956e-08
-5.01051e-10
-3.18646e-09
4.19303e-08
-4.71975e-10
-3.06536e-09
4.27904e-08
-4.50177e-10
-2.90619e-09
4.34795e-08
-4.35125e-10
-2.71608e-09
4.39589e-08
-4.24831e-10
-2.50411e-09
4.42013e-08
-4.14719e-10
-2.27945e-09
4.42113e-08
-4.02886e-10
-2.04175e-09
4.40237e-08
-3.98752e-10
-1.79641e-09
4.36823e-08
-3.95329e-10
-1.54778e-09
4.32462e-08
-3.92693e-10
-1.304e-09
4.27947e-08
-3.86694e-10
-1.07028e-09
4.24506e-08
-3.7667e-10
-8.51663e-10
4.24284e-08
-3.63584e-10
-6.52494e-10
4.30727e-08
-3.49404e-10
-4.71238e-10
4.47786e-08
-3.3292e-10
-3.10074e-10
4.75957e-08
-3.11068e-10
-1.70639e-10
5.02948e-08
-2.75523e-10
-6.42901e-11
4.93535e-08
-2.15102e-10
-5.12227e-12
3.94231e-08
-1.23295e-10
1.69702e-08
-1.84751e-11
-1.47931e-10
1.57622e-08
-1.46962e-10
-4.25022e-10
3.65819e-08
-3.40496e-10
-7.4799e-10
4.54967e-08
-4.49476e-10
-1.06992e-09
4.59564e-08
-4.85203e-10
-1.36289e-09
4.31699e-08
-4.68464e-10
-1.6112e-09
4.05245e-08
-4.19965e-10
-1.80892e-09
3.91368e-08
-3.53394e-10
-1.95778e-09
3.8889e-08
-2.76139e-10
-2.06583e-09
3.9341e-08
-1.90208e-10
-2.14524e-09
4.01256e-08
-9.64274e-11
-2.21034e-09
4.10175e-08
3.6114e-12
-2.27245e-09
4.18883e-08
1.0404e-10
-2.33956e-09
4.26597e-08
1.97855e-10
-2.41109e-09
4.32777e-08
2.73227e-10
-2.47748e-09
4.37063e-08
3.18986e-10
-2.51751e-09
4.39211e-08
3.20213e-10
-2.51144e-09
4.39251e-08
2.80168e-10
-2.44459e-09
4.37477e-08
2.09167e-10
-2.31557e-09
4.34268e-08
1.26518e-10
-2.13214e-09
4.3017e-08
4.58006e-11
-1.90512e-09
4.25903e-08
-2.2612e-11
-1.64965e-09
4.22698e-08
-7.46209e-11
-1.37814e-09
4.22662e-08
-1.09301e-10
-1.09881e-09
4.29226e-08
-1.29297e-10
-8.22643e-10
4.46403e-08
-1.37922e-10
-5.57813e-10
4.74677e-08
-1.36794e-10
-3.20602e-10
5.01835e-08
-1.25941e-10
-1.31186e-10
4.92663e-08
-1.02286e-10
-1.86637e-11
3.93714e-08
-6.08525e-11
1.69578e-08
-6.22732e-12
-9.55997e-11
1.59526e-08
-9.48528e-11
-2.46508e-10
3.69235e-08
-1.90749e-10
-4.04504e-10
4.58805e-08
-2.25769e-10
-5.48837e-10
4.63194e-08
-2.18658e-10
-6.74715e-10
4.34789e-08
-1.83112e-10
-7.79521e-10
4.0756e-08
-1.26696e-10
-8.67727e-10
3.92754e-08
-5.03364e-11
-9.47312e-10
3.89229e-08
4.56707e-11
-1.03061e-09
3.92623e-08
1.61926e-10
-1.13274e-09
3.9931e-08
2.96797e-10
-1.26996e-09
4.0708e-08
4.4675e-10
-1.45438e-09
4.14698e-08
6.02932e-10
-1.69137e-09
4.21441e-08
7.52537e-10
-1.9702e-09
4.26845e-08
8.72131e-10
-2.26716e-09
4.30593e-08
9.43988e-10
-2.53445e-09
4.32517e-08
9.36631e-10
-2.72662e-09
4.32616e-08
8.55657e-10
-2.81845e-09
4.31104e-08
7.29165e-10
-2.80136e-09
4.28279e-08
5.81741e-10
-2.68293e-09
4.24612e-08
4.37346e-10
-2.47862e-09
4.20753e-08
3.10747e-10
-2.20743e-09
4.17894e-08
2.09217e-10
-1.8876e-09
4.18121e-08
1.34317e-10
-1.53593e-09
4.24864e-08
8.45364e-11
-1.16895e-09
4.42187e-08
5.4606e-11
-8.0527e-10
4.70661e-08
3.78988e-11
-4.69483e-10
4.98223e-08
2.53753e-11
-1.98011e-10
4.89823e-08
1.25834e-11
-3.20297e-11
3.92018e-08
3.68015e-12
1.69191e-08
6.64898e-12
-5.36382e-11
1.60586e-08
-5.2352e-11
-9.53612e-11
3.70267e-08
-6.14801e-11
-1.05954e-10
4.5917e-08
-2.59116e-11
-9.15769e-11
4.62825e-08
2.25373e-11
-6.53589e-11
4.33752e-08
7.74314e-11
-4.11928e-11
4.05884e-08
1.43419e-10
-3.11966e-11
3.90369e-08
2.28479e-10
-4.96825e-11
3.86006e-08
3.40876e-10
-1.12228e-10
3.88412e-08
4.83719e-10
-2.357e-10
3.93985e-08
6.55978e-10
-4.38912e-10
4.00582e-08
8.53067e-10
-7.32384e-10
4.07035e-08
1.05982e-09
-1.12015e-09
4.12727e-08
1.25925e-09
-1.5811e-09
4.17277e-08
1.41766e-09
-2.0791e-09
4.20467e-08
1.51051e-09
-2.54599e-09
4.22193e-08
1.49934e-09
-2.91633e-09
4.22436e-08
1.3884e-09
-3.1542e-09
4.21328e-08
1.21545e-09
-3.24355e-09
4.19061e-08
1.01117e-09
-3.19153e-09
4.15991e-08
8.1011e-10
-3.01566e-09
4.12689e-08
6.30474e-10
-2.73834e-09
4.10275e-08
4.84558e-10
-2.38136e-09
4.10798e-08
3.75281e-10
-1.96688e-09
4.17714e-08
3.00579e-10
-1.51617e-09
4.35145e-08
2.53495e-10
-1.05722e-09
4.6387e-08
2.20176e-10
-6.25438e-10
4.92052e-08
1.85411e-10
-2.68886e-10
4.84894e-08
1.36367e-10
-4.74987e-11
3.89064e-08
7.39995e-11
1.68492e-08
2.24018e-11
-1.52124e-11
1.60876e-08
-1.37088e-11
4.53934e-11
3.69058e-08
6.03452e-11
1.73744e-10
4.56239e-08
1.64683e-10
3.34825e-10
4.58666e-08
2.54872e-10
4.95958e-10
4.28866e-08
3.27518e-10
6.30606e-10
4.00544e-08
3.99362e-10
7.19382e-10
3.8459e-08
4.89093e-10
7.44606e-10
3.79656e-08
6.0971e-10
6.89896e-10
3.81279e-08
7.67932e-10
5.36423e-10
3.85898e-08
9.62097e-10
2.6801e-10
3.91415e-08
1.18507e-09
-1.24884e-10
3.96766e-08
1.41983e-09
-6.40543e-10
4.01425e-08
1.64582e-09
-1.25096e-09
4.05143e-08
1.82386e-09
-1.9107e-09
4.07791e-08
1.9274e-09
-2.53926e-09
4.09331e-08
1.9147e-09
-3.05887e-09
4.09749e-08
1.78832e-09
-3.42495e-09
4.09072e-08
1.5917e-09
-3.61602e-09
4.07394e-08
1.35783e-09
-3.63634e-09
4.04947e-08
1.12466e-09
-3.50174e-09
4.0221e-08
9.1335e-10
-3.23457e-09
4.00205e-08
7.39855e-10
-2.85857e-09
4.00951e-08
6.0877e-10
-2.39769e-09
4.07915e-08
5.1898e-10
-1.87703e-09
4.25334e-08
4.6045e-10
-1.32853e-09
4.54226e-08
4.15889e-10
-7.99384e-10
4.83149e-08
3.61142e-10
-3.53203e-10
4.77691e-08
2.74093e-10
-6.6886e-11
3.84649e-08
1.55139e-10
1.67396e-08
4.27095e-11
2.77064e-11
1.60302e-08
2.97011e-11
1.98044e-10
3.65405e-08
1.94921e-10
4.6682e-10
4.49823e-08
3.72822e-10
7.68684e-10
4.50596e-08
5.05092e-10
1.0488e-09
4.20137e-08
5.92819e-10
1.27169e-09
3.91657e-08
6.65815e-10
1.41326e-09
3.75639e-08
7.5355e-10
1.45797e-09
3.70465e-08
8.74447e-10
1.39021e-09
3.71599e-08
1.0358e-09
1.19512e-09
3.75489e-08
1.23605e-09
8.59089e-10
3.80102e-08
1.46736e-09
3.76364e-10
3.84484e-08
1.71088e-09
-2.46612e-10
3.88225e-08
1.94298e-09
-9.76178e-10
3.91196e-08
2.12426e-09
-1.75965e-09
3.93355e-08
2.22709e-09
-2.51267e-09
3.94721e-08
2.21406e-09
-3.1532e-09
3.95275e-08
2.08789e-09
-3.63209e-09
3.9498e-08
1.88801e-09
-3.92063e-09
3.93822e-08
1.64576e-09
-4.01931e-09
3.91923e-08
1.40112e-09
-3.94094e-09
3.89647e-08
1.17791e-09
-3.70537e-09
3.87915e-08
9.9341e-10
-3.33449e-09
3.88706e-08
8.53553e-10
-2.8493e-09
3.95489e-08
7.57403e-10
-2.27431e-09
4.12634e-08
6.95036e-10
-1.64506e-09
4.41487e-08
6.44702e-10
-1.01412e-09
4.7111e-08
5.72953e-10
-4.62847e-10
4.67715e-08
4.46322e-10
-9.65733e-11
3.78364e-08
2.62229e-10
1.65692e-08
7.37898e-11
8.56564e-11
1.58562e-08
8.83123e-11
3.90178e-10
3.5871e-08
3.64947e-10
8.17907e-10
4.39258e-08
6.28825e-10
1.26023e-09
4.38074e-08
8.09905e-10
1.64303e-09
4.07165e-08
9.14379e-10
1.92545e-09
3.7899e-08
9.84296e-10
2.08731e-09
3.63405e-08
1.06154e-09
2.119e-09
3.58436e-08
1.17114e-09
2.01166e-09
3.59452e-08
1.32209e-09
1.75704e-09
3.62902e-08
1.51332e-09
1.34647e-09
3.6686e-08
1.73473e-09
7.79794e-10
3.70488e-08
1.96628e-09
6.79281e-11
3.73491e-08
2.18528e-09
-7.52037e-10
3.75847e-08
2.35486e-09
-1.6252e-09
3.77591e-08
2.4496e-09
-2.46969e-09
3.78787e-08
2.43789e-09
-3.20529e-09
3.79419e-08
2.32125e-09
-3.77964e-09
3.79381e-08
2.13431e-09
-4.16243e-09
3.78596e-08
1.9054e-09
-4.34882e-09
3.77075e-08
1.67116e-09
-4.34611e-09
3.75072e-08
1.45486e-09
-4.16934e-09
3.73395e-08
1.27525e-09
-3.83406e-09
3.73944e-08
1.14094e-09
-3.35436e-09
3.80183e-08
1.05098e-09
-2.74871e-09
3.96636e-08
9.94163e-10
-2.04675e-09
4.25038e-08
9.42897e-10
-1.30606e-09
4.55179e-08
8.52412e-10
-6.24961e-10
4.54121e-08
6.7834e-10
-1.45327e-10
3.69429e-08
4.13934e-10
1.62997e-08
1.24178e-10
1.76927e-10
1.5499e-08
1.80244e-10
6.6611e-10
3.47694e-08
6.12462e-10
1.28713e-09
4.23133e-08
9.91427e-10
1.87676e-09
4.19834e-08
1.23437e-09
2.3414e-09
3.88945e-08
1.35737e-09
2.64494e-09
3.61739e-08
1.42154e-09
2.78335e-09
3.47196e-08
1.48256e-09
2.76091e-09
3.42935e-08
1.57253e-09
2.5819e-09
3.44202e-08
1.70394e-09
2.24622e-09
3.47519e-08
1.87394e-09
1.75231e-09
3.51083e-08
2.07164e-09
1.10493e-09
3.54174e-08
2.2788e-09
3.18189e-10
3.56632e-08
2.47262e-09
-5.70406e-10
3.58517e-08
2.6216e-09
-1.50696e-09
3.59926e-08
2.70298e-09
-2.41656e-09
3.60952e-08
2.69311e-09
-3.22584e-09
3.61573e-08
2.59381e-09
-3.88379e-09
3.61662e-08
2.42985e-09
-4.35933e-09
3.6109e-08
2.22608e-09
-4.6429e-09
3.59756e-08
2.01548e-09
-4.73743e-09
3.57809e-08
1.82074e-09
-4.65139e-09
3.55944e-08
1.65903e-09
-4.38999e-09
3.55929e-08
1.54016e-09
-3.95678e-09
3.61196e-08
1.46547e-09
-3.35348e-09
3.76397e-08
1.42066e-09
-2.59476e-09
4.03734e-08
1.37173e-09
-1.7314e-09
4.33941e-08
1.2604e-09
-8.78035e-10
4.35337e-08
1.02502e-09
-2.30268e-10
3.56454e-08
6.4965e-10
1.58587e-08
2.10784e-10
3.26157e-10
1.48427e-08
3.30157e-10
1.08263e-09
3.3019e-08
9.93936e-10
1.95281e-09
3.9909e-08
1.53414e-09
2.6965e-09
3.93748e-08
1.8649e-09
3.21044e-09
3.63631e-08
2.01741e-09
3.48191e-09
3.38257e-08
2.07676e-09
3.53803e-09
3.25455e-08
2.11798e-09
3.41052e-09
3.22371e-08
2.18395e-09
3.12121e-09
3.24208e-08
2.28875e-09
2.68044e-09
3.27626e-08
2.43007e-09
2.09321e-09
3.30978e-08
2.59774e-09
1.36551e-09
3.33716e-08
2.77346e-09
5.14814e-10
3.35775e-08
2.93639e-09
-4.24619e-10
3.373e-08
3.0611e-09
-1.40434e-09
3.38434e-08
3.12894e-09
-2.35911e-09
3.3929e-08
3.12099e-09
-3.2247e-09
3.39847e-08
3.0382e-09
-3.95601e-09
3.39964e-08
2.90114e-09
-4.52223e-09
3.39453e-08
2.72998e-09
-4.91388e-09
3.38165e-08
2.55074e-09
-5.12945e-09
3.36121e-08
2.38444e-09
-5.17076e-09
3.33868e-08
2.24894e-09
-5.03327e-09
3.3302e-08
2.15339e-09
-4.70121e-09
3.36885e-08
2.09898e-09
-4.15063e-09
3.50186e-08
2.07047e-09
-3.36309e-09
3.75623e-08
2.02347e-09
-2.36414e-09
4.05132e-08
1.88195e-09
-1.2788e-09
4.08894e-08
1.55891e-09
-3.75259e-10
3.37184e-08
1.02352e-09
1.51262e-08
3.57173e-10
5.61438e-10
1.37154e-08
5.6592e-10
1.70221e-09
3.03031e-08
1.57509e-09
2.89087e-09
3.63705e-08
2.34983e-09
3.78786e-09
3.56687e-08
2.80912e-09
4.29592e-09
3.28454e-08
3.00963e-09
4.45719e-09
3.05938e-08
3.07063e-09
4.35601e-09
2.95545e-08
3.09211e-09
4.06396e-09
2.93985e-08
3.13071e-09
3.62393e-09
2.9655e-08
3.20582e-09
3.05587e-09
3.00142e-08
3.3165e-09
2.36723e-09
3.03348e-08
3.45158e-09
1.56497e-09
3.05793e-08
3.5946e-09
6.62447e-10
3.07526e-08
3.72747e-09
-3.11482e-10
3.08753e-08
3.82866e-09
-1.31563e-09
3.09654e-08
3.88222e-09
-2.29664e-09
3.1034e-08
3.87597e-09
-3.20212e-09
3.10797e-08
3.81055e-09
-3.9933e-09
3.10881e-08
3.69943e-09
-4.64621e-09
3.10386e-08
3.55963e-09
-5.15186e-09
3.09088e-08
3.41332e-09
-5.50926e-09
3.06909e-08
3.2786e-09
-5.71639e-09
3.04222e-08
3.17174e-09
-5.7602e-09
3.02424e-08
3.10334e-09
-5.60192e-09
3.04568e-08
3.07342e-09
-5.17819e-09
3.15331e-08
3.06183e-09
-4.41262e-09
3.3786e-08
3.01074e-09
-3.27658e-09
3.6558e-08
2.81923e-09
-1.88663e-09
3.71319e-08
2.3676e-09
-6.07499e-10
3.08398e-08
1.59948e-09
1.39284e-08
5.90364e-10
8.97397e-10
1.19151e-08
9.0282e-10
2.55138e-09
2.62608e-08
2.38838e-09
4.11649e-09
3.13214e-08
3.48405e-09
5.13912e-09
3.05219e-08
4.1242e-09
5.55731e-09
2.80278e-08
4.39941e-09
5.50957e-09
2.61679e-08
4.47368e-09
5.167e-09
2.54174e-08
4.47965e-09
4.6517e-09
2.54222e-08
4.49154e-09
4.02979e-09
2.57404e-08
4.53649e-09
3.3251e-09
2.61029e-08
4.61595e-09
2.5418e-09
2.63986e-08
4.71953e-09
1.68057e-09
2.66088e-08
4.83175e-09
7.48528e-10
2.67489e-08
4.93569e-09
-2.34316e-10
2.68431e-08
5.01502e-09
-1.23676e-09
2.69107e-08
5.05708e-09
-2.21775e-09
2.69629e-08
5.0521e-09
-3.13714e-09
2.69984e-08
5.00063e-09
-3.96615e-09
2.70041e-08
4.91299e-09
-4.68798e-09
2.69576e-08
4.80284e-09
-5.2999e-09
2.68331e-08
4.68768e-09
-5.80719e-09
2.66141e-08
4.58409e-09
-6.21099e-09
2.63191e-08
4.50695e-09
-6.49146e-09
2.60563e-08
4.46665e-09
-6.59039e-09
2.60946e-08
4.46115e-09
-6.39022e-09
2.68701e-08
4.46282e-09
-5.72904e-09
2.87284e-08
4.39649e-09
-4.48118e-09
3.11809e-08
4.12919e-09
-2.72529e-09
3.18796e-08
3.49641e-09
-9.41544e-10
2.66478e-08
2.40824e-09
1.20621e-08
9.24714e-10
1.30064e-09
9.30806e-09
1.30645e-09
3.53731e-09
2.06706e-08
3.35351e-09
5.48144e-09
2.45503e-08
4.82696e-09
6.55752e-09
2.3757e-08
5.68874e-09
6.77911e-09
2.17414e-08
6.06483e-09
6.42344e-09
2.03568e-08
6.16682e-09
5.77145e-09
1.99057e-08
6.16375e-09
5.0036e-09
2.00386e-08
6.15145e-09
4.2e-09
2.03773e-08
6.16676e-09
3.38079e-09
2.07071e-08
6.21504e-09
2.53769e-09
2.09544e-08
6.28737e-09
1.66007e-09
2.11165e-08
6.36993e-09
7.43091e-10
2.12171e-08
6.44884e-09
-2.03392e-10
2.12802e-08
6.5094e-09
-1.15876e-09
2.1325e-08
6.54104e-09
-2.09432e-09
2.13616e-08
6.53688e-09
-2.98204e-09
2.13889e-08
6.49728e-09
-3.8031e-09
2.13951e-08
6.43011e-09
-4.5514e-09
2.13597e-08
6.34614e-09
-5.23497e-09
2.12568e-08
6.25987e-09
-5.86981e-09
2.10628e-08
6.18615e-09
-6.46804e-09
2.07784e-08
6.13886e-09
-7.01617e-09
2.04779e-08
6.12652e-09
-7.43819e-09
2.03733e-08
6.14338e-09
-7.56061e-09
2.08403e-08
6.1522e-09
-7.11079e-09
2.22219e-08
6.05665e-09
-5.82283e-09
2.42054e-08
5.68755e-09
-3.7006e-09
2.49244e-08
4.83296e-09
-1.342e-09
2.09214e-08
3.36783e-09
9.39518e-09
1.32493e-09
1.63857e-09
6.02472e-09
1.64478e-09
4.35298e-09
1.37948e-08
4.16139e-09
6.55237e-09
1.63913e-08
5.9596e-09
7.56132e-09
1.57239e-08
7.02421e-09
7.49447e-09
1.43039e-08
7.50439e-09
6.78557e-09
1.34224e-08
7.64323e-09
5.8273e-09
1.32264e-08
7.63758e-09
4.84624e-09
1.34169e-08
7.60278e-09
3.92514e-09
1.37104e-08
7.58796e-09
3.06633e-09
1.39621e-08
7.60384e-09
2.24345e-09
1.41333e-08
7.64391e-09
1.42817e-09
1.42347e-08
7.69706e-09
6.04112e-10
1.42902e-08
7.75094e-09
-2.30566e-10
1.43218e-08
7.79306e-09
-1.06514e-09
1.43448e-08
7.81482e-09