/*--------------------------------*- C++ -*----------------------------------*\
| =========                 |                                                 |
| \\      /  F ield         | OpenFOAM: The Open Source CFD Toolbox           |
|  \\    /   O peration     | Version:  v1912                                 |
|   \\  /    A nd           | Website:  www.openfoam.com                      |
|    \\/     M anipulation  |                                                 |
\*---------------------------------------------------------------------------*/
FoamFile
{
    version     2.0;
    format      ascii;
    class       volScalarField;
    location    "124/oil";
    object      heatTransferCoeff(T);
}
// * * * * * * * * * * * * * * * * * * * * * * * * * * * * * * * * * * * * * //

dimensions      [1 0 -3 -1 0 0 0];


internalField   uniform 0;

boundaryField
{
    maxY
    {
        type            calculated;
        value           uniform 0;
    }
    minX
    {
        type            calculated;
        value           uniform 0;
    }
    maxX
    {
        type            calculated;
        value           uniform 0;
    }
    minY
    {
        type            calculated;
        value           uniform 0;
    }
    minZ
    {
        type            calculated;
        value           uniform 0;
    }
    maxZ
    {
        type            calculated;
        value           uniform 0;
    }
    oil_to_sphere
    {
        type            calculated;
        value           nonuniform List<scalar> 
1536
(
-97.4113
-95.069
-95.1467
-90.573
-90.2114
-94.8315
-93.0198
-93.6159
-93.3282
-90.8212
-89.198
-91.0886
-93.2515
-91.3249
-88.3933
-92.6635
-94.884
-95.2633
-92.5117
-93.1532
-94.2364
-93.3171
-93.5591
-92.6434
-92.9097
-92.762
-92.8101
-92.334
-94.8347
-93.5206
-95.5392
-95.0478
-95.1803
-92.5991
-92.7738
-92.2866
-92.4437
-91.7166
-92.2376
-92.7447
-92.109
-92.5063
-93.256
-93.8443
-94.4599
-92.7172
-94.5878
-93.8856
-88.434
-92.8122
-94.0236
-93.3942
-93.81
-92.5571
-94.7443
-96.4455
-93.4745
-93.1692
-94.2591
-93.9139
-93.2511
-93.2058
-93.2476
-92.5152
-92.8121
-93.1225
-93.1337
-94.1237
-94.0119
-94.6465
-92.504
-90.6457
-91.2609
-92.7778
-92.7109
-96.5708
-95.1755
-91.9961
-92.6748
-95.2442
-94.2637
-94.0175
-90.3869
-90.2825
-94.8153
-97.0416
-90.0552
-92.9315
-93.9681
-93.9268
-93.5148
-92.352
-92.3622
-92.446
-92.7464
-93.7931
-94.4174
-94.5257
-95.3051
-93.8689
-94.3103
-92.4518
-97.5483
-94.1016
-91.1801
-92.7018
-92.8342
-90.7888
-90.855
-97.7064
-95.1295
-93.6946
-93.2019
-93.6502
-90.0998
-90.5305
-89.7167
-96.0058
-97.2792
-95.3459
-93.4539
-93.6359
-92.2124
-94.3513
-95.4519
-94.1061
-93.3465
-92.0339
-94.4934
-94.1139
-93.1605
-94.0324
-94.6872
-92.7768
-92.9974
-94.708
-93.6408
-95.2926
-92.1031
-94.8991
-93.3123
-94.1221
-94.131
-93.2769
-92.9668
-93.2344
-93.6195
-96.9166
-94.1568
-97.6374
-94.474
-95.9874
-93.4515
-93.6236
-92.5002
-94.566
-94.5633
-95.101
-98.2725
-96.5599
-95.1142
-97.2034
-91.1197
-91.5346
-92.3907
-92.2726
-94.4748
-96.2754
-95.0962
-97.0314
-92.457
-92.6266
-92.1041
-94.5408
-93.9743
-94.0071
-96.8338
-92.8905
-93.0608
-96.9623
-92.0304
-91.4911
-91.4812
-91.6674
-94.9626
-97.0922
-96.6119
-92.3213
-91.6786
-95.2406
-91.8886
-94.8163
-94.6776
-95.7637
-91.0851
-88.1496
-95.7395
-95.9974
-93.5151
-92.5846
-93.4707
-92.9624
-95.3688
-95.7415
-94.5257
-94.059
-92.8881
-96.1146
-95.4407
-94.7162
-91.9746
-92.7876
-92.6957
-93.4761
-94.6439
-96.7159
-92.7999
-91.2612
-91.2851
-87.9609
-95.0538
-94.4817
-93.9693
-93.535
-93.6975
-96.2882
-94.8561
-93.3014
-95.1121
-90.9875
-92.3535
-88.3892
-93.148
-95.374
-95.7525
-95.638
-94.934
-94.3948
-95.2504
-91.1219
-91.4303
-93.1232
-95.9752
-92.0072
-88.6902
-89.697
-94.4003
-94.4599
-97.2527
-99.0247
-93.7329
-90.4233
-87.9205
-93.9121
-96.2617
-92.4334
-92.5091
-89.836
-92.3396
-96.2429
-97.3261
-93.6368
-92.5963
-96.1475
-96.8646
-92.7129
-90.6991
-93.5833
-96.7884
-96.168
-94.4061
-94.7233
-95.6225
-91.6036
-92.5744
-95.8011
-94.7218
-95.842
-93.3454
-95.2
-96.6818
-94.6689
-94.4454
-96.1359
-92.6658
-92.5421
-92.9599
-92.0628
-92.3615
-95.8318
-96.7483
-92.864
-92.9781
-92.8703
-93.0923
-92.3348
-93.8368
-93.4429
-91.9003
-89.9674
-92.2655
-91.101
-92.0455
-97.1475
-96.2144
-96.2408
-99.0893
-91.2978
-91.4792
-94.3238
-97.5756
-98.2094
-92.4935
-93.4602
-92.3288
-94.6728
-92.6731
-94.379
-94.5851
-95.4707
-94.6887
-93.0369
-94.9161
-92.1803
-95.6784
-96.0099
-95.0451
-94.918
-91.7402
-96.9305
-97.1498
-95.195
-90.9709
-92.6623
-93.2347
-94.6175
-94.3596
-94.5406
-91.6817
-95.6472
-96.6367
-95.3199
-96.2128
-94.0879
-93.9223
-93.3612
-91.5041
-94.1295
-94.7844
-91.4228
-91.1828
-91.6311
-97.5406
-95.7538
-96.3161
-94.2055
-93.9518
-96.1582
-91.254
-97.0488
-95.3583
-93.8469
-93.901
-91.1809
-95.6737
-95.6655
-91.949
-93.8191
-93.212
-92.6684
-94.7608
-95.6031
-93.2663
-92.8666
-91.4795
-96.6885
-95.656
-91.2397
-96.2247
-96.0512
-95.1067
-96.6253
-93.7964
-94.8671
-91.1101
-90.96
-94.6372
-98.6364
-95.2545
-97.5448
-94.394
-92.9616
-95.3021
-91.8598
-92.6599
-94.6894
-95.5592
-94.8113
-94.1561
-92.0315
-91.6013
-95.8636
-96.5765
-95.6786
-93.9218
-92.568
-94.3873
-94.8821
-95.3915
-94.0205
-93.1875
-92.2069
-93.7579
-91.8313
-90.8188
-92.4328
-92.1471
-93.7148
-90.703
-92.9256
-97.3886
-92.8821
-92.8543
-95.6094
-95.4902
-94.5797
-93.2448
-91.2647
-95.2122
-96.2151
-94.5355
-94.1757
-95.0988
-93.5841
-93.686
-94.1913
-90.4016
-95.1279
-96.5603
-96.362
-95.4109
-94.9718
-94.6185
-94.0006
-93.2971
-91.839
-93.6127
-91.9786
-91.1662
-92.1425
-90.6344
-97.2294
-96.9293
-95.9331
-98.5884
-92.8237
-97.1578
-91.5854
-92.0149
-94.8483
-92.9335
-91.5532
-92.945
-92.6452
-97.0306
-96.3661
-94.1755
-94.4305
-96.6579
-95.9155
-93.9396
-94.9169
-91.9179
-95.5234
-90.8677
-96.3602
-90.359
-95.2006
-95.3591
-95.5011
-93.0083
-91.4846
-93.1263
-95.5427
-93.2394
-90.7616
-95.7511
-95.7596
-96.8719
-97.7966
-94.8714
-96.2733
-91.2688
-91.5968
-88.6546
-89.445
-93.7111
-92.7683
-92.5712
-92.199
-97.2664
-93.0715
-91.0097
-90.6122
-93.6057
-91.7735
-98.3182
-92.2585
-92.3956
-93.7644
-89.2021
-89.683
-92.4363
-92.3803
-93.1459
-92.798
-95.7284
-95.4091
-94.6373
-93.9052
-90.6137
-92.6563
-95.6362
-91.7808
-91.8963
-95.0729
-96.5888
-92.075
-89.0878
-91.4312
-89.2649
-93.4693
-92.9088
-92.3753
-91.106
-88.7894
-94.973
-95.1669
-94.2557
-93.6735
-96.8612
-94.983
-94.4638
-94.0165
-91.7204
-92.578
-95.7652
-94.7689
-92.9665
-89.5543
-93.9574
-96.1473
-96.9657
-94.0481
-93.4506
-96.6561
-94.5732
-96.2651
-91.8151
-92.5229
-91.4914
-92.8218
-93.814
-96.3786
-94.236
-91.9343
-91.6694
-93.9414
-98.0866
-91.8399
-92.6292
-90.9908
-94.1503
-93.8185
-95.938
-96.6579
-91.9055
-90.8879
-96.7872
-97.4024
-90.043
-97.0902
-96.1776
-95.2807
-96.4226
-94.6965
-94.0194
-93.9259
-96.7728
-94.0285
-94.5533
-93.8153
-95.4151
-94.2031
-93.6232
-93.5062
-91.2965
-95.1201
-94.1132
-95.4434
-95.0283
-95.1752
-94.7711
-94.1041
-91.0534
-95.9704
-96.0576
-94.7602
-93.597
-94.2391
-97.6113
-92.0736
-91.7422
-91.247
-94.7871
-93.3277
-97.5607
-93.0103
-93.2941
-93.9947
-88.9558
-88.9361
-92.52
-92.4454
-93.6233
-91.4425
-91.9164
-95.0654
-93.16
-96.6052
-92.7424
-97.3207
-94.2329
-94.7598
-89.5655
-88.929
-88.5242
-92.4831
-95.2307
-92.7852
-92.4103
-89.1457
-93.5665
-95.8014
-93.5729
-99.591
-91.9756
-95.6932
-95.5907
-95.1086
-96.1588
-96.3108
-95.4046
-93.8605
-93.3062
-93.6415
-95.23
-93.3146
-94.2573
-94.2805
-94.3093
-95.4864
-94.8104
-95.1994
-91.581
-91.9751
-88.137
-89.7402
-90.6835
-86.7036
-92.6844
-92.8202
-93.2878
-93.6561
-90.7051
-91.3493
-92.9695
-96.2084
-96.3189
-92.9382
-90.8104
-93.3274
-95.5845
-95.3271
-93.5686
-90.8198
-91.966
-94.7603
-94.5499
-93.5362
-92.8013
-94.9636
-95.1613
-96.6968
-95.0535
-93.9855
-92.8067
-91.8552
-91.118
-93.5159
-94.2354
-97.7115
-93.6863
-97.3647
-93.3588
-98.0898
-92.5539
-93.3185
-91.6622
-92.0259
-92.7772
-91.5168
-93.2643
-90.691
-92.557
-95.9608
-92.9421
-91.296
-96.9557
-95.0311
-94.3061
-93.6483
-97.3372
-99.4831
-89.9822
-94.8209
-94.7521
-94.5853
-91.6064
-93.5675
-92.3558
-94.4545
-95.6204
-95.7376
-91.855
-94.8267
-94.0567
-94.8942
-94.8195
-94.369
-93.2068
-93.4694
-92.7573
-90.8922
-90.6378
-91.6793
-96.3527
-92.6018
-91.1525
-92.6481
-95.871
-93.1554
-96.464
-95.588
-94.5679
-93.9934
-94.6102
-96.9109
-91.6638
-94.7013
-96.1649
-96.1113
-94.0775
-92.2166
-93.313
-94.6813
-96.2035
-91.6111
-93.4884
-94.0993
-95.7589
-94.3512
-94.8107
-96.5351
-91.5928
-92.3795
-92.0708
-97.0136
-95.7791
-93.8047
-95.7686
-92.3283
-92.6811
-95.7554
-94.9713
-96.5841
-91.7024
-95.272
-95.6654
-93.9913
-94.4484
-95.1889
-92.0135
-90.414
-93.6664
-94.888
-97.5884
-93.4271
-92.6222
-93.5592
-94.4812
-95.2982
-93.8403
-92.3526
-93.4004
-95.5449
-92.3075
-92.0298
-93.3125
-92.5172
-94.2125
-93.9645
-96.0662
-94.6935
-95.3003
-92.725
-93.6986
-94.1932
-93.4583
-93.0681
-92.843
-92.7149
-91.7106
-94.9356
-94.1479
-94.0227
-94.6378
-90.8548
-92.8492
-96.9975
-96.9383
-92.2469
-95.8049
-94.4827
-94.7522
-92.8375
-96.2447
-95.9114
-91.5814
-93.0967
-92.8437
-92.7902
-91.1275
-91.3086
-92.8225
-96.0407
-98.3808
-92.4795
-95.2179
-94.9203
-94.3507
-93.312
-94.2106
-96.1363
-94.7664
-91.6889
-92.87
-92.6881
-93.0834
-94.634
-95.2265
-94.986
-95.0371
-95.2301
-92.427
-95.0889
-92.9842
-95.0298
-88.8654
-94.674
-96.1943
-93.063
-90.0064
-94.1156
-93.6141
-97.0618
-92.1421
-95.1028
-93.695
-90.4062
-96.9832
-91.3379
-93.364
-93.6074
-90.9767
-95.8587
-94.0699
-93.4221
-94.3993
-94.0669
-93.1849
-97.1185
-91.5256
-92.8274
-88.592
-94.0225
-92.9476
-93.6848
-95.8382
-99.3787
-91.0773
-92.9628
-98.4401
-91.414
-95.0086
-92.2964
-94.7592
-90.1817
-92.2794
-98.3552
-90.25
-98.4351
-90.6054
-97.0583
-90.7344
-92.0996
-89.2006
-91.8013
-97.9893
-89.4073
-94.0614
-90.3223
-97.0115
-98.0033
-89.5817
-93.9245
-92.194
-91.657
-91.4919
-92.6987
-93.6437
-93.6898
-94.6189
-93.4588
-96.6884
-98.5865
-89.6022
-94.5815
-94.2662
-93.6067
-93.9045
-93.417
-93.3597
-93.3744
-95.3101
-93.5673
-95.2528
-92.866
-94.2369
-96.2905
-92.9917
-94.5175
-95.6925
-92.7745
-94.2415
-93.6146
-94.6342
-93.3097
-94.0512
-93.1191
-95.542
-92.9
-94.2236
-90.6904
-97.0416
-89.6082
-95.1237
-95.6889
-96.5555
-92.1294
-93.9267
-93.3997
-93.7918
-94.1561
-93.6225
-95.3193
-91.8144
-87.9961
-94.69
-90.078
-96.1337
-92.2358
-93.6664
-95.812
-88.1431
-97.4269
-92.322
-89.1221
-92.7924
-94.9137
-94.7021
-93.9387
-89.2795
-94.1027
-94.4252
-92.4605
-92.175
-96.1492
-95.8575
-92.8027
-93.6593
-96.1506
-89.4409
-95.7655
-92.1625
-94.6418
-89.686
-98.6813
-97.3528
-95.4735
-93.9535
-93.5382
-95.2266
-93.3331
-89.2457
-91.6185
-95.0104
-92.2609
-95.2339
-89.9228
-96.139
-95.1126
-86.8203
-94.1546
-94.299
-88.3367
-97.2691
-90.5741
-96.0764
-97.0027
-95.4492
-88.706
-93.9878
-93.2826
-94.12
-94.1361
-94.8874
-89.3727
-93.0639
-92.1963
-92.2529
-96.1257
-93.8018
-94.9538
-94.6958
-94.69
-93.2488
-93.9208
-93.3769
-94.2063
-95.9297
-92.6531
-93.1623
-92.468
-94.3051
-95.6931
-92.6708
-92.9682
-92.7736
-93.8009
-92.2618
-92.3516
-93.0126
-93.1884
-93.9005
-93.3313
-96.5533
-95.5836
-90.0013
-90.5126
-96.8154
-86.5963
-95.0012
-94.4375
-92.4111
-93.2781
-97.2474
-88.2998
-95.7093
-94.7864
-88.9467
-92.9311
-92.6877
-94.272
-88.0376
-96.1344
-95.2235
-88.0604
-95.9022
-96.373
-89.5427
-96.5435
-95.8686
-89.6175
-92.6152
-92.3507
-88.4065
-93.716
-94.0089
-92.1486
-92.1271
-92.8097
-87.5053
-91.9538
-89.116
-87.3412
-95.7175
-92.1845
-97.9067
-93.0591
-89.3112
-96.0084
-94.1223
-88.6313
-92.7319
-92.6938
-88.5828
-90.3427
-97.3583
-85.9068
-91.6752
-92.5215
-86.9536
-95.8926
-95.3779
-93.7121
-92.9159
-92.78
-91.5811
-87.655
-93.7739
-92.8597
-93.0494
-93.7278
-88.8033
-95.4702
-92.594
-93.4577
-92.314
-93.3525
-93.8888
-91.6
-89.0488
-93.009
-94.7869
-92.5078
-92.9894
-93.6828
-92.1058
-93.1416
-88.8631
-92.9165
-95.1443
-92.3471
-93.2896
-92.1756
-89.1975
-96.8096
-96.8985
-95.9238
-97.0782
-89.486
-88.2754
-93.1403
-95.97
-93.9878
-94.9744
-95.344
-91.6643
-91.0761
-89.0043
-90.0217
-91.9604
-93.4813
-93.3259
-93.2203
-91.3516
-95.5796
-94.5287
-89.6532
-91.6255
-91.6018
-95.2809
-92.0792
-87.7728
-94.7797
-93.5521
-95.7274
-88.6548
-92.9739
-94.6005
-92.7684
-93.1502
-94.9518
-93.4738
-91.5998
-96.9813
-86.8721
-91.8525
-93.9011
-92.1741
-92.8582
-96.7922
-94.7121
-93.9221
-90.9923
-96.3685
-92.8685
-93.926
-95.3082
-95.7847
-95.5527
-95.7617
-96.7185
-97.1464
-96.4754
-96.4805
-94.6605
-95.5192
-92.6224
-93.2294
-91.4835
-90.5058
-87.3412
-96.8717
-96.692
-95.9695
-93.0237
-93.9113
-93.7754
-92.2024
-94.1324
-95.4217
-91.7946
-93.3182
-94.8205
-92.6793
-92.6913
-92.518
-93.003
-91.9828
-92.9051
-92.7326
-89.6573
-94.5633
-91.939
-93.2661
-88.4692
-97.2802
-93.4114
-92.3053
-91.9634
-89.8807
-93.7399
-92.3915
-88.3313
-91.1746
-93.3011
-90.6485
-90.9107
-97.1481
-97.466
-92.8117
-92.8018
-95.1613
-96.6561
-88.2341
-92.8755
-92.0536
-92.8432
-92.8601
-93.0427
-93.4028
-91.2146
-89.0499
-96.6098
-92.8375
-90.7364
-91.1551
-92.6896
-93.6858
-90.0031
-93.7734
-92.4199
-92.6082
-96.6855
-90.8573
-89.33
-93.0177
-92.4775
-92.1195
-89.1319
-96.0497
-92.8293
-92.5389
-92.7253
-88.3309
-93.0453
-92.8499
-89.4436
-92.9489
-91.1262
-94.3582
-96.0039
-92.3557
-95.3184
-94.1214
-92.275
-92.2819
-92.9287
-89.2185
-94.62
-94.9932
-92.5404
-88.7533
-91.5749
-93.218
-93.3585
-92.294
-89.0269
-92.4144
-95.7118
-94.3961
-92.6206
-97.1083
-90.6702
-95.8123
-88.3434
-90.6667
-96.1055
-88.5209
-95.6862
-92.8333
-93.6758
-92.6428
-97.5927
-91.2409
-93.655
-96.5396
-96.5955
-89.8887
-96.1164
-96.7606
-86.7853
-94.4078
-92.3562
-88.4506
-95.5099
-92.3
-92.5808
-92.5992
-93.417
-93.0785
-92.5111
-92.3949
-88.2509
-95.1838
-93.8549
-93.5287
-93.8496
-92.9953
-92.2139
-91.5927
-95.756
-87.741
-91.9735
-92.9661
-88.2136
-95.6239
-96.824
-94.295
-96.048
-96.6205
-91.8113
-93.7114
-94.4769
-96.0318
-92.0887
-94.8342
-91.1584
-88.7886
-95.6129
-91.4635
-95.6979
-97.3516
-96.5896
-88.6764
-95.8169
-94.2466
-91.8061
-92.4941
-92.923
-92.3835
-88.7489
-96.6677
-88.834
-96.5915
-92.9642
-91.1827
-91.4511
-93.6648
-94.7756
-96.848
-93.5148
-97.5223
-95.5758
-95.5937
-88.953
-95.5286
-94.9369
-95.8586
-92.2204
-91.7819
-87.9774
-93.2546
-97.3827
-96.297
-88.882
-91.2944
-89.4693
-92.1935
-93.3646
-91.0298
-99.1739
-92.6475
-91.229
-89.0944
-94.4144
-91.9075
-87.7412
-93.5606
-92.4236
-92.3657
-92.512
-92.5502
-89.1588
-90.9461
-88.4717
-92.6894
-95.8464
-94.4011
-96.3061
-95.9335
-91.9851
-91.4619
-88.4881
-91.9551
-95.438
-96.2606
-95.539
-95.2795
-90.7001
-88.2307
-91.2817
-87.7772
-95.1768
-95.4629
-91.5531
-95.4799
-95.4089
-96.0381
-94.743
-93.6994
-93.5988
-91.9801
-88.003
-91.5028
-88.884
-91.489
-92.5121
-92.2697
-89.5545
-88.6772
-94.7376
-97.3094
-97.4087
-96.6283
-93.5467
-94.5007
-94.4497
-93.5333
-92.5764
-93.372
-91.6768
-93.0053
-93.0219
-88.6272
-95.6692
-92.9248
-91.3449
-89.5376
-92.6449
-93.4542
-93.4225
-92.3243
-89.5723
-96.5471
-94.1833
-92.4254
-97.0161
-91.6921
-88.4657
-95.0656
-93.1502
-93.0499
-92.9988
-92.2716
-87.53
-93.8565
-92.9656
-88.8789
-97.0124
-92.7912
-86.2142
-92.4927
-93.3185
-93.4916
-92.2259
-88.7791
-92.0334
-92.1682
-90.3714
-93.0623
-88.3479
-93.2677
-93.1349
-90.0749
-97.4504
-92.9265
-89.472
-98.3081
-93.3143
-93.3499
-89.4635
-93.0936
-88.8845
)
;
    }
}


// ************************************************************************* //
