/*--------------------------------*- C++ -*----------------------------------*\
| =========                 |                                                 |
| \\      /  F ield         | OpenFOAM: The Open Source CFD Toolbox           |
|  \\    /   O peration     | Version:  v1906                                 |
|   \\  /    A nd           | Web:      www.OpenFOAM.com                      |
|    \\/     M anipulation  |                                                 |
\*---------------------------------------------------------------------------*/
FoamFile
{
    version     2.0;
    format      ascii;
    class       surfaceScalarField;
    location    "80.8/oil";
    object      phi;
}
// * * * * * * * * * * * * * * * * * * * * * * * * * * * * * * * * * * * * * //

dimensions      [1 0 -1 0 0 0 0];
oriented        oriented;


internalField   nonuniform List<scalar> 
80688
(
-2.10318e-06
-2.13852e-06
-2.10317e-06
-9.48715e-07
-5.97035e-07
-5.57426e-07
-2.5434e-07
-3.49771e-07
-3.44604e-07
-1.18958e-07
-6.82835e-08
-6.70989e-08
-3.82117e-08
-4.07154e-08
-4.00305e-08
2.51781e-09
-2.04241e-08
-2.03054e-08
2.53854e-08
-1.11871e-08
-1.16804e-08
3.82708e-08
-5.96476e-09
-6.92058e-09
4.4531e-08
-2.52637e-09
-3.7338e-09
4.56123e-08
7.38899e-11
-1.15511e-09
4.22825e-08
2.2355e-09
1.09435e-09
3.51995e-08
4.02324e-09
3.05979e-09
2.5087e-08
5.43185e-09
4.68065e-09
1.28194e-08
6.42013e-09
5.84751e-09
-5.92548e-10
6.94174e-09
6.47024e-09
-1.40687e-08
6.97328e-09
6.50287e-09
-2.65434e-08
6.52212e-09
5.95266e-09
-3.70563e-08
5.62949e-09
4.88337e-09
-4.48394e-08
4.37012e-09
3.41302e-09
-4.93785e-08
2.83929e-09
1.69983e-09
-5.04606e-08
1.14813e-09
-6.59512e-11
-4.81557e-08
-5.75781e-10
-1.72913e-09
-4.28789e-08
-2.19709e-09
-3.07968e-09
-3.52977e-08
-3.62646e-09
-3.95475e-09
-2.63277e-08
-4.72566e-09
-4.24426e-09
-1.70818e-08
-5.3432e-09
-3.90269e-09
-8.79937e-09
-5.28464e-09
-2.99779e-09
-2.7163e-09
-4.31446e-09
-1.76859e-09
2.18891e-10
-2.22266e-09
-7.125e-10
4.33378e-10
-2.14467e-10
-5.65031e-07
-1.00847e-06
-5.65023e-07
-3.33868e-07
-3.76392e-07
-4.51806e-07
-2.3019e-07
-2.6171e-07
-1.91739e-07
-9.75661e-08
-1.25557e-07
-7.53512e-08
-1.74878e-08
-8.42612e-08
-3.65324e-08
3.29261e-08
-5.81384e-08
-1.26996e-08
6.57709e-08
-4.42514e-08
2.19634e-10
8.59615e-08
-3.47411e-08
8.58578e-09
9.58054e-08
-2.73341e-08
1.49639e-08
9.64087e-08
-2.09432e-08
2.04138e-08
8.86222e-08
-1.52658e-08
2.52878e-08
7.34313e-08
-1.03465e-08
2.95607e-08
5.21775e-08
-6.36357e-09
3.30492e-08
2.65843e-08
-3.53538e-09
3.55488e-08
-1.32261e-09
-2.03265e-09
3.68813e-08
-2.93571e-08
-1.94578e-09
3.69535e-08
-5.53569e-08
-3.25749e-09
3.57795e-08
-7.73751e-08
-5.83774e-09
3.34855e-08
-9.38513e-08
-9.45391e-09
3.03002e-08
-1.03741e-07
-1.37893e-08
2.65188e-08
-1.06607e-07
-1.84771e-08
2.24907e-08
-1.02635e-07
-2.31124e-08
1.85643e-08
-9.26082e-08
-2.72851e-08
1.50617e-08
-7.78754e-08
-3.05801e-08
1.22208e-08
-6.02298e-08
-3.25591e-08
1.0188e-08
-4.17836e-08
-3.27381e-08
8.94866e-09
-2.47761e-08
-3.0563e-08
8.27086e-09
-1.12945e-08
-2.54271e-08
7.63113e-09
-2.85963e-09
-1.67917e-08
6.13426e-09
-5.2927e-09
2.86647e-09
-3.4947e-07
-3.09533e-07
-3.49462e-07
-2.25475e-07
-3.07595e-07
-1.92793e-07
-1.36681e-07
-2.36436e-07
-1.14067e-07
-4.69169e-08
-1.65312e-07
-5.00096e-08
1.81852e-08
-1.33391e-07
-1.59721e-08
6.63517e-08
-1.11668e-07
5.36349e-09
1.00523e-07
-9.72177e-08
1.87946e-08
1.22422e-07
-8.52611e-08
2.86216e-08
1.32738e-07
-7.43784e-08
3.67283e-08
1.31858e-07
-6.40197e-08
4.39564e-08
1.20376e-07
-5.42911e-08
5.0507e-08
9.9347e-08
-4.559e-08
5.6273e-08
7.04293e-08
-3.84253e-08
6.09794e-08
3.58315e-08
-3.32858e-08
6.43483e-08
-1.7952e-09
-3.05462e-08
6.61403e-08
-3.95776e-08
-3.03987e-08
6.62354e-08
-7.46674e-08
-3.28175e-08
6.46498e-08
-1.04494e-07
-3.75534e-08
6.15418e-08
-1.27003e-07
-4.41484e-08
5.72044e-08
-1.40819e-07
-5.19857e-08
5.20117e-08
-1.45366e-07
-6.03336e-08
4.64037e-08
-1.40877e-07
-6.83959e-08
4.07945e-08
-1.2838e-07
-7.53525e-08
3.55707e-08
-1.09582e-07
-8.03708e-08
3.09931e-08
-8.67354e-08
-8.25952e-08
2.7189e-08
-6.2436e-08
-8.11175e-08
2.408e-08
-3.936e-08
-7.49553e-08
2.13164e-08
-1.99607e-08
-6.30319e-08
1.82055e-08
-6.19763e-09
-4.41899e-08
1.36351e-08
-1.76956e-08
6.20531e-09
-6.27092e-08
-1.84124e-07
-6.26998e-08
-7.46684e-08
-2.27524e-07
-6.81116e-08
-4.14508e-08
-2.24436e-07
-4.52175e-08
1.0705e-08
-2.04164e-07
-1.33033e-08
5.96123e-08
-1.90994e-07
8.6952e-09
1.01355e-07
-1.78323e-07
2.49126e-08
1.33404e-07
-1.66358e-07
3.70908e-08
1.54534e-07
-1.53604e-07
4.72127e-08
1.63845e-07
-1.39978e-07
5.62881e-08
1.60917e-07
-1.25831e-07
6.47388e-08
1.45987e-07
-1.11905e-07
7.25449e-08
1.20056e-07
-9.91265e-08
7.94672e-08
8.49474e-08
-8.84528e-08
8.51363e-08
4.3206e-08
-8.07416e-08
8.91972e-08
-2.0748e-09
-7.66208e-08
9.13554e-08
-4.75136e-08
-7.642e-08
9.14601e-08
-8.97513e-08
-8.01078e-08
8.95281e-08
-1.25759e-07
-8.72932e-08
8.5747e-08
-1.53107e-07
-9.7255e-08
8.04553e-08
-1.70184e-07
-1.09004e-07
7.40956e-08
-1.76305e-07
-1.21375e-07
6.71628e-08
-1.71744e-07
-1.331e-07
6.01425e-08
-1.57666e-07
-1.42878e-07
5.34474e-08
-1.36012e-07
-1.49383e-07
4.73578e-08
-1.09302e-07
-1.51288e-07
4.1984e-08
-8.04092e-08
-1.47212e-07
3.72011e-08
-5.22839e-08
-1.35666e-07
3.25853e-08
-2.76808e-08
-1.14963e-07
2.73278e-08
-9.12463e-09
-8.28825e-08
2.01365e-08
-3.5953e-08
9.13282e-09
-2.76227e-08
-1.28889e-07
-2.76123e-08
-2.10589e-08
-2.11705e-07
-2.23829e-08
8.99374e-09
-2.48217e-07
-6.27146e-09
5.12762e-08
-2.59463e-07
1.30166e-08
9.41919e-08
-2.62585e-07
2.86756e-08
1.32875e-07
-2.58763e-07
4.17572e-08
1.63603e-07
-2.50098e-07
5.30116e-08
1.83902e-07
-2.37261e-07
6.33587e-08
1.92021e-07
-2.21354e-07
7.32568e-08
1.87016e-07
-2.03631e-07
8.28047e-08
1.68848e-07
-1.85528e-07
9.17904e-08
1.38484e-07
-1.68583e-07
9.98216e-08
9.78646e-08
-1.54272e-07
1.06439e-07
4.98102e-08
-1.43868e-07
1.11181e-07
-2.20529e-09
-1.38306e-07
1.137e-07
-5.43679e-08
-1.38065e-07
1.13808e-07
-1.02874e-07
-1.43116e-07
1.11515e-07
-1.44299e-07
-1.52911e-07
1.07043e-07
-1.75901e-07
-1.66435e-07
1.00782e-07
-1.95865e-07
-1.82289e-07
9.32482e-08
-2.0342e-07
-1.98831e-07
8.50115e-08
-1.98862e-07
-2.14276e-07
7.66179e-08
-1.83477e-07
-2.26778e-07
6.85144e-08
-1.59376e-07
-2.34501e-07
6.10175e-08
-1.29285e-07
-2.35609e-07
5.42302e-08
-9.63003e-08
-2.28195e-07
4.79982e-08
-6.36145e-08
-2.10192e-07
4.18403e-08
-3.43261e-08
-1.7909e-07
3.4839e-08
-1.15657e-08
-1.31166e-07
2.55228e-08
-5.90932e-08
1.15745e-08
-3.80628e-09
-1.21288e-07
-3.7948e-09
1.25439e-08
-2.33941e-07
5.88616e-09
4.31078e-08
-2.97333e-07
1.8552e-08
8.25608e-08
-3.31057e-07
3.21405e-08
1.23586e-07
-3.48039e-07
4.44289e-08
1.61326e-07
-3.52322e-07
5.58187e-08
1.91687e-07
-3.47175e-07
6.67163e-08
2.11564e-07
-3.34668e-07
7.75304e-08
2.18695e-07
-3.16874e-07
8.83894e-08
2.11772e-07
-2.95866e-07
9.91581e-08
1.90571e-07
-2.73779e-07
1.09452e-07
1.56024e-07
-2.52769e-07
1.18732e-07
1.10192e-07
-2.34857e-07
1.26417e-07
5.6165e-08
-2.21775e-07
1.31934e-07
-2.22189e-09
-2.14775e-07
1.34856e-07
-6.07341e-08
-2.14511e-07
1.34958e-07
-1.15146e-07
-2.20954e-07
1.3225e-07
-1.61646e-07
-2.33393e-07
1.26981e-07
-1.97199e-07
-2.50497e-07
1.19614e-07
-2.19804e-07
-2.70439e-07
1.10755e-07
-2.28622e-07
-2.91082e-07
1.01069e-07
-2.23979e-07
-3.10086e-07
9.11672e-08
-2.07277e-07
-3.25072e-07
8.1593e-08
-1.80791e-07
-3.33663e-07
7.26755e-08
-1.47452e-07
-3.33481e-07
6.45326e-08
-1.10574e-07
-3.22062e-07
5.69892e-08
-7.36262e-08
-2.96654e-07
4.95141e-08
-4.00644e-08
-2.53734e-07
4.10824e-08
-1.36112e-08
-1.87641e-07
3.00226e-08
-8.63252e-08
1.36208e-08
7.06893e-09
-1.35438e-07
7.08157e-09
3.04871e-08
-2.78597e-07
2.12376e-08
6.48746e-08
-3.6553e-07
3.38101e-08
1.05863e-07
-4.17641e-07
4.55959e-08
1.4797e-07
-4.46795e-07
5.66491e-08
1.86633e-07
-4.58545e-07
6.75605e-08
2.17707e-07
-4.56985e-07
7.87353e-08
2.37796e-07
-4.45154e-07
9.0398e-08
2.44344e-07
-4.25922e-07
1.025e-07
2.35789e-07
-4.02051e-07
1.1474e-07
2.11773e-07
-3.76346e-07
1.26584e-07
1.73221e-07
-3.51562e-07
1.37344e-07
1.22339e-07
-3.30259e-07
1.46285e-07
6.24733e-08
-3.1463e-07
1.52721e-07
-2.15808e-09
-3.06269e-07
1.56125e-07
-6.68905e-08
-3.05996e-07
1.56217e-07
-1.27065e-07
-3.13787e-07
1.53007e-07
-1.78479e-07
-3.2877e-07
1.46791e-07
-2.17803e-07
-3.49292e-07
1.38119e-07
-2.42856e-07
-3.7309e-07
1.27705e-07
-2.52746e-07
-3.97518e-07
1.16326e-07
-2.47852e-07
-4.19707e-07
1.04726e-07
-2.2971e-07
-4.36726e-07
9.35119e-08
-2.00779e-07
-4.45667e-07
8.3072e-08
-1.64207e-07
-4.436e-07
7.35476e-08
-1.23556e-07
-4.27457e-07
6.47439e-08
-8.25797e-08
-3.93705e-07
5.60752e-08
-4.51033e-08
-3.37624e-07
4.6413e-08
-1.5371e-08
-2.51255e-07
3.38819e-08
-1.17078e-07
1.53816e-08
1.28149e-08
-1.61082e-07
1.28286e-08
4.16252e-08
-3.37869e-07
3.04619e-08
8.0176e-08
-4.47964e-07
4.38829e-08
1.24104e-07
-5.17023e-07
5.54544e-08
1.686e-07
-5.57685e-07
6.63944e-08
2.09206e-07
-5.76748e-07
7.75966e-08
2.41718e-07
-5.79053e-07
8.9556e-08
2.6256e-07
-5.68442e-07
1.02445e-07
2.68917e-07
-5.48391e-07
1.16112e-07
2.59053e-07
-5.22304e-07
1.30117e-07
2.32476e-07
-4.93561e-07
1.43792e-07
1.9012e-07
-4.65507e-07
1.56301e-07
1.34328e-07
-4.41208e-07
1.66741e-07
6.87406e-08
-4.23307e-07
1.74264e-07
-2.04255e-09
-4.13717e-07
1.78231e-07
-7.29046e-08
-4.13448e-07
1.78314e-07
-1.38731e-07
-4.22477e-07
1.74516e-07
-1.94919e-07
-4.39763e-07
1.67182e-07
-2.37839e-07
-4.63334e-07
1.56961e-07
-2.65138e-07
-4.90517e-07
1.44727e-07
-2.75897e-07
-5.18163e-07
1.31403e-07
-2.70577e-07
-5.42885e-07
1.17859e-07
-2.5086e-07
-5.61235e-07
1.04793e-07
-2.19421e-07
-5.69782e-07
9.26773e-08
-1.79653e-07
-5.65055e-07
8.16875e-08
-1.35375e-07
-5.43354e-07
7.16184e-08
-9.06239e-08
-5.00278e-07
6.18222e-08
-4.95723e-08
-4.29732e-07
5.10566e-08
-1.69172e-08
-3.21158e-07
3.72471e-08
-1.50924e-07
1.6929e-08
1.61433e-08
-1.93383e-07
1.61578e-08
4.89846e-08
-4.07112e-07
3.64013e-08
9.13623e-08
-5.41241e-07
5.08989e-08
1.38565e-07
-6.27145e-07
6.29193e-08
1.85942e-07
-6.79396e-07
7.43344e-08
2.28974e-07
-7.06087e-07
8.6307e-08
2.63362e-07
-7.12866e-07
9.94239e-08
2.85336e-07
-7.0426e-07
1.13844e-07
2.91879e-07
-6.8431e-07
1.29376e-07
2.81036e-07
-6.56921e-07
1.4546e-07
2.52234e-07
-6.26028e-07
1.6127e-07
2.06365e-07
-5.9544e-07
1.75802e-07
1.45919e-07
-5.68715e-07
1.87953e-07
7.48273e-08
-5.48928e-07
1.96713e-07
-1.90002e-09
-5.38324e-07
2.01334e-07
-7.86845e-08
-5.38067e-07
2.01404e-07
-1.49943e-07
-5.48143e-07
1.96925e-07
-2.10669e-07
-5.67347e-07
1.8831e-07
-2.56929e-07
-5.93416e-07
1.76343e-07
-2.86223e-07
-6.23256e-07
1.62032e-07
-2.97618e-07
-6.53237e-07
1.4647e-07
-2.91688e-07
-6.79532e-07
1.30717e-07
-2.70298e-07
-6.98219e-07
1.15594e-07
-2.36374e-07
-7.05368e-07
1.01661e-07
-1.93546e-07
-6.96991e-07
8.91078e-08
-1.45891e-07
-6.68737e-07
7.77276e-08
-9.77138e-08
-6.15305e-07
6.68499e-08
-5.3483e-08
-5.29053e-07
5.50902e-08
-1.82651e-08
-3.96539e-07
4.01631e-08
-1.87467e-07
1.8278e-08
1.82381e-08
-2.29874e-07
1.82534e-08
5.40751e-08
-4.83344e-07
4.03952e-08
9.96322e-08
-6.42659e-07
5.58609e-08
1.4985e-07
-7.45907e-07
6.85438e-08
1.99999e-07
-8.10263e-07
8.07187e-08
2.45479e-07
-8.45294e-07
9.37275e-08
2.81884e-07
-8.57528e-07
1.08257e-07
3.05201e-07
-8.52056e-07
1.2448e-07
3.12231e-07
-8.33459e-07
1.42119e-07
3.00815e-07
-8.06056e-07
1.6055e-07
2.70191e-07
-7.74177e-07
1.78774e-07
2.21253e-07
-7.42081e-07
1.95579e-07
1.56612e-07
-7.13748e-07
2.09673e-07
8.04737e-08
-6.92647e-07
2.19857e-07
-1.74955e-09
-6.81304e-07
2.25204e-07
-8.4012e-08
-6.81066e-07
2.25261e-07
-1.60267e-07
-6.91922e-07
2.20034e-07
-2.25094e-07
-7.12499e-07
2.09979e-07
-2.74273e-07
-7.4025e-07
1.96014e-07
-3.05196e-07
-7.717e-07
1.79368e-07
-3.16942e-07
-8.02839e-07
1.61348e-07
-3.10235e-07
-8.29396e-07
1.43156e-07
-2.87169e-07
-8.4706e-07
1.25775e-07
-2.50895e-07
-8.515e-07
1.09858e-07
-2.05298e-07
-8.38244e-07
9.56561e-08
-1.54686e-07
-8.02322e-07
8.29728e-08
-1.03605e-07
-7.37424e-07
7.10384e-08
-5.67254e-08
-6.34315e-07
5.8382e-08
-1.93879e-08
-4.76433e-07
4.25566e-08
-2.26257e-07
1.94017e-08
1.95583e-08
-2.69005e-07
1.95729e-08
5.74449e-08
-5.6421e-07
4.29788e-08
1.05292e-07
-7.49704e-07
5.91981e-08
1.57814e-07
-8.70954e-07
7.25247e-08
2.10219e-07
-9.48171e-07
8.55026e-08
2.57822e-07
-9.92555e-07
9.9658e-08
2.96065e-07
-1.01151e-06
1.15744e-07
3.2079e-07
-1.01071e-06
1.33925e-07
3.28558e-07
-9.95108e-07
1.53881e-07
3.16978e-07
-9.69349e-07
1.74873e-07
2.85118e-07
-9.38049e-07
1.95731e-07
2.33806e-07
-9.0582e-07
2.15052e-07
1.6572e-07
-8.76959e-07
2.31297e-07
8.53198e-08
-8.55292e-07
2.43046e-07
-1.60629e-09
-8.43582e-07
2.49203e-07
-8.85551e-08
-8.43364e-07
2.49247e-07
-1.69028e-07
-8.54617e-07
2.43167e-07
-2.37209e-07
-8.75838e-07
2.3152e-07
-2.88661e-07
-9.04194e-07
2.15396e-07
-3.20688e-07
-9.35881e-07
1.96207e-07
-3.32411e-07
-9.66592e-07
1.75475e-07
-3.24773e-07
-9.91679e-07
1.54646e-07
-3.00113e-07
-1.00659e-06
1.34874e-07
-2.61809e-07
-1.00669e-06
1.16885e-07
-2.13971e-07
-9.87077e-07
1.00995e-07
-1.61098e-07
-9.42201e-07
8.70061e-08
-1.07852e-07
-8.64796e-07
7.4126e-08
-5.90574e-08
-7.4387e-07
6.07607e-08
-2.02107e-08
-5.59547e-07
4.42676e-08
-2.66693e-07
2.02253e-08
2.02193e-08
-3.09458e-07
2.02338e-08
5.91235e-08
-6.47336e-07
4.42218e-08
1.08136e-07
-8.59543e-07
6.08269e-08
1.61892e-07
-9.99349e-07
7.46393e-08
2.15631e-07
-1.0903e-06
8.83857e-08
2.6462e-07
-1.14522e-06
1.03677e-07
3.04253e-07
-1.17246e-06
1.2131e-07
3.30259e-07
-1.17821e-06
1.41498e-07
3.38941e-07
-1.16765e-06
1.6386e-07
3.27715e-07
-1.14567e-06
1.87552e-07
2.95433e-07
-1.11702e-06
2.1125e-07
2.4273e-07
-1.08643e-06
2.33316e-07
1.72357e-07
-1.05852e-06
2.51938e-07
8.89027e-08
-1.03728e-06
2.65437e-07
-1.47744e-09
-1.02572e-06
2.72522e-07
-9.18683e-08
-1.02553e-06
2.72557e-07
-1.75344e-07
-1.03669e-06
2.65547e-07
-2.45784e-07
-1.05752e-06
2.52124e-07
-2.98532e-07
-1.08501e-06
2.33566e-07
-3.30869e-07
-1.11513e-06
2.11584e-07
-3.4214e-07
-1.1433e-06
1.87974e-07
-3.33447e-07
-1.16478e-06
1.64408e-07
-3.0739e-07
-1.17483e-06
1.42181e-07
-2.67597e-07
-1.1686e-06
1.2212e-07
-2.18329e-07
-1.14095e-06
1.04602e-07
-1.64161e-07
-1.08577e-06
8.94018e-08
-1.09833e-07
-9.94814e-07
7.56895e-08
-6.01589e-08
-8.55363e-07
6.18194e-08
-2.06072e-08
-6.44115e-07
4.5017e-08
-3.07922e-07
2.06218e-08
2.01994e-08
-3.49873e-07
2.02153e-08
5.89102e-08
-7.30078e-07
4.40319e-08
1.0762e-07
-9.68813e-07
6.05593e-08
1.6115e-07
-1.12742e-06
7.4539e-08
2.14832e-07
-1.23278e-06
8.88076e-08
2.64095e-07
-1.29953e-06
1.0505e-07
3.0437e-07
-1.33681e-06
1.24077e-07
3.31301e-07
-1.35129e-06
1.46147e-07
3.41064e-07
-1.34827e-06
1.70862e-07
3.30803e-07
-1.3327e-06
1.97282e-07
2.99101e-07
-1.30926e-06
2.23943e-07
2.46416e-07
-1.28266e-06
2.48915e-07
1.75369e-07
-1.25758e-06
2.70104e-07
9.06364e-08
-1.23808e-06
2.85533e-07
-1.37015e-09
-1.22737e-06
2.93657e-07
-9.3378e-08
-1.2272e-06
2.93678e-07
-1.78118e-07
-1.23755e-06
2.85598e-07
-2.49164e-07
-1.25669e-06
2.70216e-07
-3.01819e-07
-1.28142e-06
2.49065e-07
-3.33501e-07
-1.30761e-06
2.24161e-07
-3.43727e-07
-1.33067e-06
1.976e-07
-3.33895e-07
-1.34589e-06
1.71275e-07
-3.06839e-07
-1.34852e-06
1.46628e-07
-2.66376e-07
-1.33371e-06
1.24644e-07
-2.16809e-07
-1.29619e-06
1.05671e-07
-1.62748e-07
-1.22932e-06
8.94851e-08
-1.08783e-07
-1.12402e-06
7.52363e-08
-5.95672e-08
-9.65783e-07
6.12043e-08
-2.04423e-08
-7.27778e-07
4.45378e-08
-3.48821e-07
2.0457e-08
1.93839e-08
-3.88648e-07
1.93905e-08
5.64016e-08
-8.09198e-07
4.21028e-08
1.03018e-07
-1.07336e-06
5.79329e-08
1.54391e-07
-1.25044e-06
7.16536e-08
2.06243e-07
-1.3707e-06
8.60666e-08
2.54245e-07
-1.45041e-06
1.0287e-07
2.9402e-07
-1.49955e-06
1.22967e-07
3.21272e-07
-1.52513e-06
1.46585e-07
3.32126e-07
-1.53249e-06
1.73364e-07
3.23508e-07
-1.52636e-06
2.02285e-07
2.93708e-07
-1.5112e-06
2.31746e-07
2.42875e-07
-1.4915e-06
2.59664e-07
1.73356e-07
-1.47167e-06
2.83608e-07
8.98032e-08
-1.4557e-06
3.01176e-07
-1.28337e-09
-1.44676e-06
3.10474e-07
-9.23618e-08
-1.44661e-06
3.10486e-07
-1.75881e-07
-1.45524e-06
3.01211e-07
-2.45359e-07
-1.47088e-06
2.8367e-07
-2.96145e-07
-1.49042e-06
2.5978e-07
-3.25878e-07
-1.50979e-06
2.31913e-07
-3.34389e-07
-1.52462e-06
2.02465e-07
-3.2341e-07
-1.53048e-06
1.73615e-07
-2.95984e-07
-1.52286e-06
1.46915e-07
-2.55996e-07
-1.49705e-06
1.23356e-07
-2.07736e-07
-1.44777e-06
1.03321e-07
-1.55576e-07
-1.36803e-06
8.65523e-08
-1.03829e-07
-1.24788e-06
7.2121e-08
-5.68528e-08
-1.07112e-06
5.83612e-08
-1.95328e-08
-8.07531e-07
4.24328e-08
-3.879e-07
1.95467e-08
1.76222e-08
-4.239e-07
1.76299e-08
5.11685e-08
-8.80878e-07
3.81332e-08
9.35264e-08
-1.16828e-06
5.25573e-08
1.40431e-07
-1.36276e-06
6.54155e-08
1.88156e-07
-1.49783e-06
7.94046e-08
2.3287e-07
-1.5913e-06
9.61809e-08
2.7058e-07
-1.6539e-06
1.16641e-07
2.97232e-07
-1.69283e-06
1.41051e-07
3.0903e-07
-1.7134e-06
1.69111e-07
3.02737e-07
-1.71995e-06
1.99878e-07
2.76337e-07
-1.71647e-06
2.31666e-07
2.29627e-07
-1.70695e-06
2.62162e-07
1.64551e-07
-1.69519e-06
2.88601e-07
8.54667e-08
-1.68487e-06
3.08253e-07
-1.21737e-09
-1.67882e-06
3.18745e-07
-8.78857e-08
-1.67869e-06
3.18746e-07
-1.66932e-07
-1.68445e-06
3.08262e-07
-2.31938e-07
-1.6945e-06
2.88621e-07
-2.78561e-07
-1.70597e-06
2.62183e-07
-3.04824e-07
-1.71525e-06
2.31724e-07
-3.10956e-07
-1.7185e-06
2.00011e-07
-2.99016e-07
-1.71172e-06
1.693e-07
-2.7219e-07
-1.69095e-06
1.41263e-07
-2.34241e-07
-1.6519e-06
1.16898e-07
-1.89289e-07
-1.58919e-06
9.64722e-08
-1.41278e-07
-1.49576e-06
7.97167e-08
-9.41083e-08
-1.36078e-06
6.57249e-08
-5.1495e-08
-1.16657e-06
5.28404e-08
-1.7722e-08
-8.79657e-07
3.83527e-08
-4.23358e-07
1.77353e-08
1.47856e-08
-4.53475e-07
1.47902e-08
4.28866e-08
-9.40826e-07
3.1847e-08
7.84297e-08
-1.24781e-06
4.39951e-08
1.18136e-07
-1.45772e-06
5.52499e-08
1.59026e-07
-1.60676e-06
6.80325e-08
1.97981e-07
-1.71412e-06
8.38671e-08
2.31619e-07
-1.79116e-06
1.03624e-07
2.56352e-07
-1.84523e-06
1.27669e-07
2.68606e-07
-1.88141e-06
1.55754e-07
2.65199e-07
-1.90352e-06
1.86982e-07
2.43914e-07
-1.91489e-06
2.19711e-07
2.04022e-07
-1.9187e-06
2.51645e-07
1.46964e-07
-1.91793e-06
2.79789e-07
7.65722e-08
-1.91545e-06
3.00974e-07
-1.1661e-09
-1.91349e-06
3.12403e-07
-7.88815e-08
-1.91337e-06
3.12399e-07
-1.49211e-07
-1.91509e-06
3.00968e-07
-2.06164e-07
-1.91733e-06
2.79785e-07
-2.4595e-07
-1.91786e-06
2.5167e-07
-2.67096e-07
-1.91387e-06
2.19764e-07
-2.70367e-07
-1.90227e-06
1.87038e-07
-2.57932e-07
-1.88e-06
1.55844e-07
-2.32974e-07
-1.8437e-06
1.27793e-07
-1.99145e-07
-1.78951e-06
1.03782e-07
-1.59946e-07
-1.71244e-06
8.40508e-08
-1.18825e-07
-1.60511e-06
6.82339e-08
-7.88612e-08
-1.4562e-06
5.54528e-08
-4.30927e-08
-1.24653e-06
4.41827e-08
-1.48517e-08
-9.39893e-07
3.19955e-08
-4.53073e-07
1.4864e-08
1.07883e-08
-4.75059e-07
1.07952e-08
3.12364e-08
-9.84348e-07
2.30745e-08
5.73241e-08
-1.30593e-06
3.2024e-08
8.68524e-08
-1.52807e-06
4.08181e-08
1.1792e-07
-1.68925e-06
5.14231e-08
1.48276e-07
-1.80963e-06
6.51465e-08
1.75418e-07
-1.90104e-06
8.27291e-08
1.96474e-07
-1.97085e-06
1.04563e-07
2.0838e-07
-2.02386e-06
1.30546e-07
2.08186e-07
-2.06331e-06
1.5998e-07
1.93577e-07
-2.09169e-06
1.91405e-07
1.63461e-07
-2.11111e-06
2.22523e-07
1.18607e-07
-2.12343e-06
2.50357e-07
6.20214e-08
-2.13046e-06
2.71599e-07
-1.12713e-09
-2.13349e-06
2.83149e-07
-6.42537e-08
-2.13341e-06
2.83166e-07
-1.20786e-07
-2.13016e-06
2.71602e-07
-1.65517e-07
-2.12293e-06
2.50327e-07
-1.95491e-07
-2.11038e-06
2.22493e-07
-2.09938e-07
-2.09081e-06
1.91389e-07
-2.0995e-07
-2.06224e-06
1.59981e-07
-1.97853e-07
-2.02267e-06
1.30572e-07
-1.76591e-07
-1.96958e-06
1.04618e-07
-1.49235e-07
-1.89967e-06
8.28098e-08
-1.1865e-07
-1.80828e-06
6.525e-08
-8.73814e-08
-1.68792e-06
5.15422e-08
-5.76523e-08
-1.52687e-06
4.09435e-08
-3.13962e-08
-1.30492e-06
3.2143e-08
-1.08373e-08
-9.83625e-07
2.31733e-08
-4.74759e-07
1.08487e-08
5.64353e-09
-4.86341e-07
5.63849e-09
1.63098e-08
-1.00686e-06
1.18456e-08
3.02484e-08
-1.33649e-06
1.66252e-08
4.66636e-08
-1.56654e-06
2.2061e-08
6.47786e-08
-1.73677e-06
2.94062e-08
8.35797e-08
-1.86801e-06
3.95842e-08
1.01588e-07
-1.9723e-06
5.32611e-08
1.16948e-07
-2.05693e-06
7.07229e-08
1.27372e-07
-2.12628e-06
9.19958e-08
1.30402e-07
-2.18292e-06
1.16585e-07
1.23927e-07
-2.22851e-06
1.43299e-07
1.06523e-07
-2.26398e-06
1.70273e-07
7.83252e-08
-2.29001e-06
1.94785e-07
4.11755e-08
-2.30708e-06
2.13769e-07
-1.09648e-09
-2.31547e-06
2.24259e-07
-4.33421e-08
-2.31541e-06
2.24247e-07
-8.04204e-08
-2.30682e-06
2.13732e-07
-1.08497e-07
-2.28958e-06
1.94733e-07
-1.25736e-07
-2.26338e-06
1.70244e-07
-1.32051e-07
-2.22776e-06
1.43269e-07
-1.28811e-07
-2.18202e-06
1.16542e-07
-1.18185e-07
-2.12527e-06
9.19717e-08
-1.02632e-07
-2.05585e-06
7.07231e-08
-8.4398e-08
-1.97119e-06
5.32837e-08
-6.54188e-08
-1.86688e-06
3.9626e-08
-4.70957e-08
-1.73571e-06
2.94656e-08
-3.05073e-08
-1.56559e-06
2.21311e-08
-1.64469e-08
-1.33568e-06
1.67001e-08
-5.6679e-09
-1.00632e-06
1.19128e-08
-4.86106e-07
5.6787e-09
-5.24818e-10
-4.85288e-07
-5.2787e-10
-1.49285e-09
-1.00437e-06
-1.51926e-09
-2.06888e-09
-1.33419e-06
-1.72161e-09
-1.43707e-09
-1.56664e-06
-5.29591e-10
9.58142e-10
-1.74166e-06
2.4974e-09
5.41302e-09
-1.88022e-06
7.74863e-09
1.17514e-08
-1.99425e-06
1.56086e-08
1.93372e-08
-2.09087e-06
2.63545e-08
2.69431e-08
-2.17391e-06
4.00201e-08
3.30344e-08
-2.24542e-06
5.64024e-08
3.58179e-08
-2.30608e-06
7.47872e-08
3.38433e-08
-2.35582e-06
9.38147e-08
2.64354e-08
-2.39405e-06
1.11442e-07
1.41365e-08
-2.4201e-06
1.25319e-07
-1.06953e-09
-2.4333e-06
1.3303e-07
-1.62423e-08
-2.43322e-06
1.3298e-07
-2.84394e-08
-2.41986e-06
1.25238e-07
-3.57399e-08
-2.39365e-06
1.11367e-07
-3.75706e-08
-2.35525e-06
9.36974e-08
-3.45992e-08
-2.3054e-06
7.46676e-08
-2.83099e-08
-2.24463e-06
5.63208e-08
-2.04808e-08
-2.17305e-06
3.9955e-08
-1.27013e-08
-2.08994e-06
2.63072e-08
-6.14221e-09
-1.99333e-06
1.55837e-08
-1.49073e-09
-1.87928e-06
7.74448e-09
1.07009e-09
-1.74078e-06
2.50958e-09
1.8568e-09
-1.56587e-06
-5.01091e-10
1.4195e-09
-1.33357e-06
-1.68126e-09
5.06403e-10
-1.00393e-06
-1.47521e-09
-4.85103e-07
-4.95882e-10
-7.44916e-09
-4.70387e-07
-7.45151e-09
-2.14208e-08
-9.73908e-07
-1.64934e-08
-3.81798e-08
-1.29513e-06
-2.23034e-08
-5.52918e-08
-1.52354e-06
-2.5989e-08
-7.07126e-08
-1.69813e-06
-2.81042e-08
-8.27733e-08
-1.83923e-06
-2.89229e-08
-9.01278e-08
-1.95846e-06
-2.84419e-08
-9.20584e-08
-2.06243e-06
-2.65099e-08
-8.83875e-08
-2.15464e-06
-2.29349e-08
-7.96255e-08
-2.23653e-06
-1.76531e-08
-6.68512e-08
-2.30797e-06
-1.08847e-08
-5.14427e-08
-2.36804e-06
-3.1899e-09
-3.47705e-08
-2.41519e-06
4.46651e-09
-1.78381e-08
-2.44785e-06
1.08125e-08
-1.03651e-09
-2.46457e-06
1.44721e-08
1.5791e-08
-2.46449e-06
1.44484e-08
3.27896e-08
-2.44761e-06
1.07517e-08
4.96119e-08
-2.41485e-06
4.37634e-09
6.51801e-08
-2.36752e-06
-3.29819e-09
7.81415e-08
-2.30736e-06
-1.09966e-08
8.71034e-08
-2.23583e-06
-1.77607e-08
9.09675e-08
-2.15389e-06
-2.30298e-08
8.92592e-08
-2.06164e-06
-2.65879e-08
8.20908e-08
-1.95766e-06
-2.85003e-08
7.02212e-08
-1.83845e-06
-2.89606e-08
5.49822e-08
-1.69742e-06
-2.81227e-08
3.80129e-08
-1.52291e-06
-2.59888e-08
2.13401e-08
-1.29461e-06
-2.22876e-08
7.43675e-09
-9.7356e-07
-1.64658e-08
-4.70241e-07
-7.42606e-09
-1.4692e-08
-4.40999e-07
-1.4696e-08
-4.22362e-08
-9.14266e-07
-3.20971e-08
-7.59591e-08
-1.21766e-06
-4.37486e-08
-1.11699e-07
-1.43513e-06
-5.26726e-08
-1.46007e-07
-1.60331e-06
-6.05142e-08
-1.75736e-07
-1.74135e-06
-6.81571e-08
-1.98023e-07
-1.86015e-06
-7.60133e-08
-2.10559e-07
-1.96578e-06
-8.41172e-08
-2.11662e-07
-2.06132e-06
-9.22207e-08
-2.00591e-07
-2.14759e-06
-1.00006e-07
-1.77539e-07
-2.22403e-06
-1.06994e-07
-1.43732e-07
-2.2891e-06
-1.12747e-07
-1.01195e-07
-2.34067e-06
-1.17057e-07
-5.26288e-08
-2.37661e-06
-1.19798e-07
-9.97468e-10
-2.39509e-06
-1.21113e-07
5.06668e-08
-2.39502e-06
-1.21137e-07
9.93237e-08
-2.37643e-06
-1.19832e-07
1.41962e-07
-2.34036e-06
-1.17122e-07
1.75932e-07
-2.28863e-06
-1.12859e-07
1.99168e-07
-2.22348e-06
-1.07116e-07
2.10436e-07
-2.14697e-06
-1.00127e-07
2.0952e-07
-2.06064e-06
-9.23324e-08
1.97205e-07
-1.96511e-06
-8.42134e-08
1.75098e-07
-1.85946e-06
-7.60936e-08
1.45565e-07
-1.7407e-06
-6.82168e-08
1.11408e-07
-1.60271e-06
-6.05531e-08
7.58029e-08
-1.43462e-06
-5.26921e-08
4.21848e-08
-1.21724e-06
-4.37479e-08
1.46847e-08
-9.13981e-07
-3.20786e-08
-4.40883e-07
-1.46732e-08
-2.17428e-08
-3.97511e-07
-2.17452e-08
-6.24604e-08
-8.26316e-07
-4.72324e-08
-1.12645e-07
-1.10288e-06
-6.45945e-08
-1.66624e-07
-1.30249e-06
-7.86659e-08
-2.19573e-07
-1.45818e-06
-9.21852e-08
-2.66881e-07
-1.58727e-06
-1.06765e-07
-3.04216e-07
-1.69963e-06
-1.23191e-07
-3.27611e-07
-1.80074e-06
-1.41648e-07
-3.3388e-07
-1.89314e-06
-1.61909e-07
-3.20889e-07
-1.97736e-06
-1.83225e-07
-2.87933e-07
-2.05253e-06
-2.04453e-07
-2.35982e-07
-2.1168e-06
-2.24247e-07
-1.67703e-07
-2.16795e-06
-2.40999e-07
-8.74797e-08
-2.20365e-06
-2.53185e-07
-9.48978e-10
-2.22202e-06
-2.59601e-07
8.56033e-08
-2.22195e-06
-2.5962e-07
1.65902e-07
-2.20346e-06
-2.53272e-07
2.3428e-07
-2.16763e-06
-2.41111e-07
2.86412e-07
-2.11641e-06
-2.24352e-07
3.19526e-07
-2.05203e-06
-2.04568e-07
3.32692e-07
-1.9768e-06
-1.83341e-07
3.26632e-07
-1.89256e-06
-1.62021e-07
3.03409e-07
-1.80014e-06
-1.41751e-07
2.66277e-07
-1.69905e-06
-1.23279e-07
2.19134e-07
-1.58672e-06
-1.06836e-07
1.66344e-07
-1.45768e-06
-9.22393e-08
1.12502e-07
-1.30209e-06
-7.8683e-08
6.23988e-08
-1.10255e-06
-6.45886e-08
2.17371e-08
-8.26097e-07
-4.72219e-08
-3.9742e-07
-2.17254e-08
-2.7977e-08
-3.41555e-07
-2.79793e-08
-8.03163e-08
-7.13415e-07
-6.05622e-08
-1.4516e-07
-9.55152e-07
-8.28839e-08
-2.15522e-07
-1.1306e-06
-1.0152e-07
-2.85434e-07
-1.26807e-06
-1.202e-07
-3.48972e-07
-1.3826e-06
-1.41135e-07
-4.003e-07
-1.48282e-06
-1.65485e-07
-4.33959e-07
-1.57346e-06
-1.93623e-07
-4.45274e-07
-1.65667e-06
-2.25155e-07
-4.30815e-07
-1.73281e-06
-2.59008e-07
-3.89016e-07
-1.80085e-06
-2.9348e-07
-3.20495e-07
-1.85912e-06
-3.26205e-07
-2.28669e-07
-1.90541e-06
-3.54367e-07
-1.19446e-07
-1.93768e-06
-3.75196e-07
-8.86948e-10
-1.95424e-06
-3.86339e-07
1.17693e-07
-1.95418e-06
-3.86353e-07
2.26975e-07
-1.9375e-06
-3.75239e-07
3.1892e-07
-1.90514e-06
-3.54435e-07
3.87528e-07
-1.85873e-06
-3.26291e-07
4.29516e-07
-1.80044e-06
-2.93581e-07
4.44149e-07
-1.73232e-06
-2.5911e-07
4.33027e-07
-1.65617e-06
-2.25261e-07
3.99552e-07
-1.57294e-06
-1.93723e-07
3.48394e-07
-1.48232e-06
-1.65573e-07
2.85038e-07
-1.38215e-06
-1.4121e-07
2.15284e-07
-1.26767e-06
-1.20259e-07
1.45027e-07
-1.13026e-06
-1.01576e-07
8.02699e-08
-9.54879e-07
-8.2911e-08
2.79734e-08
-7.13245e-07
-6.05557e-08
-3.41486e-07
-2.79607e-08
-3.27146e-08
-2.76128e-07
-3.27121e-08
-9.39702e-08
-5.81501e-07
-7.06578e-08
-1.70296e-07
-7.82105e-07
-9.67212e-08
-2.53818e-07
-9.2826e-07
-1.1882e-07
-3.37622e-07
-1.04274e-06
-1.41522e-07
-4.14677e-07
-1.13799e-06
-1.67555e-07
-4.77883e-07
-1.22126e-06
-1.98351e-07
-5.20437e-07
-1.29652e-06
-2.34379e-07
-5.36313e-07
-1.36563e-06
-2.75162e-07
-5.20964e-07
-1.42881e-06
-3.19352e-07
-4.72043e-07
-1.48516e-06
-3.64614e-07
-3.90064e-07
-1.53326e-06
-4.07834e-07
-2.78878e-07
-1.57134e-06
-4.45251e-07
-1.4575e-07
-1.59779e-06
-4.73018e-07
-8.15875e-10
-1.61134e-06
-4.87833e-07
1.44134e-07
-1.61129e-06
-4.8784e-07
2.77313e-07
-1.59764e-06
-4.73043e-07
3.88574e-07
-1.5711e-06
-4.45297e-07
4.7068e-07
-1.53294e-06
-4.07891e-07
5.19742e-07
-1.48481e-06
-3.6469e-07
5.3525e-07
-1.4284e-06
-3.19431e-07
5.19532e-07
-1.36521e-06
-2.75248e-07
4.77179e-07
-1.29612e-06
-2.34464e-07
4.14126e-07
-1.22084e-06
-1.98429e-07
3.37234e-07
-1.13763e-06
-1.67626e-07
2.53565e-07
-1.04242e-06
-1.41581e-07
1.70161e-07
-9.27996e-07
-1.1886e-07
9.39308e-08
-7.8191e-07
-9.67387e-08
3.27076e-08
-5.81369e-07
-7.06531e-08
-2.76083e-07
-3.26954e-08
-3.52556e-08
-2.05614e-07
-3.52588e-08
-1.01586e-07
-4.39166e-07
-7.60049e-08
-1.84903e-07
-5.94805e-07
-1.03983e-07
-2.77052e-07
-7.08203e-07
-1.27909e-07
-3.70473e-07
-7.96412e-07
-1.52907e-07
-4.57269e-07
-8.69103e-07
-1.82091e-07
-5.29333e-07
-9.32092e-07
-2.17103e-07
-5.78701e-07
-9.88719e-07
-2.58436e-07
-5.9839e-07
-1.04041e-06
-3.05528e-07
-5.82952e-07
-1.08747e-06
-3.56777e-07
-5.29461e-07
-1.12922e-06
-4.09436e-07
-4.38301e-07
-1.16463e-06
-4.59787e-07
-3.13746e-07
-1.19253e-06
-5.03366e-07
-1.64024e-07
-1.21179e-06
-5.35723e-07
-7.34283e-10
-1.22161e-06
-5.53022e-07
1.62569e-07
-1.22157e-06
-5.53024e-07
3.12331e-07
-1.21167e-06
-5.35732e-07
4.36965e-07
-1.19236e-06
-5.03375e-07
5.28218e-07
-1.16441e-06
-4.59783e-07
5.81808e-07
-1.12894e-06
-4.09459e-07
5.97389e-07
-1.08715e-06
-3.56832e-07
5.77874e-07
-1.0401e-06
-3.05594e-07
5.28644e-07
-9.88387e-07
-2.58508e-07
4.56766e-07
-9.3179e-07
-2.17171e-07
3.70115e-07
-8.68824e-07
-1.82156e-07
2.76822e-07
-7.96164e-07
-1.52959e-07
1.84789e-07
-7.08015e-07
-1.27949e-07
1.01539e-07
-5.94658e-07
-1.04001e-07
3.52551e-08
-4.39082e-07
-7.60022e-08
-2.05584e-07
-3.52436e-08
-3.49288e-08
-1.35757e-07
-3.49282e-08
-1.01413e-07
-2.97546e-07
-7.51355e-08
-1.86218e-07
-4.07448e-07
-1.02552e-07
-2.81411e-07
-4.86937e-07
-1.26073e-07
-3.79155e-07
-5.47608e-07
-1.51059e-07
-4.70966e-07
-5.96482e-07
-1.8081e-07
-5.47993e-07
-6.37986e-07
-2.17079e-07
-6.01637e-07
-6.74697e-07
-2.60378e-07
-6.24166e-07
-7.0783e-07
-3.10054e-07
-6.09646e-07
-7.37658e-07
-3.64328e-07
-5.548e-07
-7.63858e-07
-4.20203e-07
-4.59947e-07
-7.85838e-07
-4.73649e-07
-3.29537e-07
-8.02973e-07
-5.19965e-07
-1.72317e-07
-8.14678e-07
-5.54333e-07
-6.45076e-10
-8.20606e-07
-5.72674e-07
1.71035e-07
-8.20577e-07
-5.72671e-07
3.28285e-07
-8.14592e-07
-5.54327e-07
4.58745e-07
-8.02836e-07
-5.19986e-07
5.53684e-07
-7.85663e-07
-4.73687e-07
6.08618e-07
-7.63643e-07
-4.20229e-07
6.23265e-07
-7.37433e-07
-3.6436e-07
6.00855e-07
-7.07591e-07
-3.101e-07
5.47371e-07
-6.74471e-07
-2.60431e-07
4.70485e-07
-6.37769e-07
-2.17135e-07
3.78814e-07
-5.96288e-07
-1.80865e-07
2.81201e-07
-5.47443e-07
-1.51107e-07
1.86109e-07
-4.86812e-07
-1.26112e-07
1.01378e-07
-4.07357e-07
-1.0257e-07
3.49255e-08
-2.97495e-07
-7.5135e-08
-1.35743e-07
-3.49157e-08
-3.11116e-08
-7.35341e-08
-3.11111e-08
-9.21138e-08
-1.69861e-07
-6.66827e-08
-1.72138e-07
-2.36965e-07
-9.04586e-08
-2.64011e-07
-2.84339e-07