/*--------------------------------*- C++ -*----------------------------------*\
| =========                 |                                                 |
| \\      /  F ield         | OpenFOAM: The Open Source CFD Toolbox           |
|  \\    /   O peration     | Version:  v1906                                 |
|   \\  /    A nd           | Web:      www.OpenFOAM.com                      |
|    \\/     M anipulation  |                                                 |
\*---------------------------------------------------------------------------*/
FoamFile
{
    version     2.0;
    format      ascii;
    class       volVectorField;
    location    "30.2/oil";
    object      U;
}
// * * * * * * * * * * * * * * * * * * * * * * * * * * * * * * * * * * * * * //

dimensions      [0 1 -1 0 0 0 0];


internalField   nonuniform List<vector> 
27760
(
(-2.78631e-05 -2.84241e-05 -2.78631e-05)
(-5.50252e-05 -2.13296e-05 -2.0061e-05)
(-4.07674e-06 -5.54284e-06 -5.46293e-06)
(-6.7088e-06 -9.19351e-07 -9.62627e-07)
(-1.63147e-06 -3.10158e-07 -3.57167e-07)
(-9.14996e-07 -1.46907e-07 -1.92542e-07)
(-2.7207e-07 -5.02071e-08 -9.6918e-08)
(1.84205e-08 -1.17105e-08 -6.0513e-08)
(1.77279e-07 8.11667e-09 -4.26529e-08)
(2.50931e-07 1.89153e-08 -3.33607e-08)
(2.69786e-07 2.57261e-08 -2.75101e-08)
(2.48184e-07 3.04023e-08 -2.33856e-08)
(1.95752e-07 3.36054e-08 -2.04091e-08)
(1.20644e-07 3.57263e-08 -1.83628e-08)
(3.11773e-08 3.68562e-08 -1.72472e-08)
(-6.41059e-08 3.70234e-08 -1.70785e-08)
(-1.5674e-07 3.6277e-08 -1.78074e-08)
(-2.38918e-07 3.47093e-08 -1.92932e-08)
(-3.04149e-07 3.24623e-08 -2.1304e-08)
(-3.47758e-07 2.96674e-08 -2.35615e-08)
(-3.67302e-07 2.64194e-08 -2.57734e-08)
(-3.62637e-07 2.29297e-08 -2.75817e-08)
(-3.35567e-07 1.93835e-08 -2.85397e-08)
(-2.89766e-07 1.58258e-08 -2.84087e-08)
(-2.30654e-07 1.23181e-08 -2.69621e-08)
(-1.64962e-07 9.00037e-09 -2.39978e-08)
(-1.00474e-07 6.16387e-09 -1.95134e-08)
(-4.57497e-08 4.36889e-09 -1.38709e-08)
(-8.84304e-09 4.46482e-09 -8.19234e-09)
(2.94842e-09 5.69377e-09 -2.83777e-09)
(-2.02254e-05 -5.65271e-05 -2.02254e-05)
(-6.68869e-06 -7.26101e-06 -9.0586e-06)
(-9.12981e-06 -8.75913e-06 -3.1641e-06)
(-4.41867e-06 -2.42296e-06 -9.00279e-07)
(-2.01115e-06 -1.40432e-06 -4.41371e-07)
(-9.46752e-07 -6.9381e-07 -2.11146e-07)
(-2.1824e-07 -3.94062e-07 -9.96609e-08)
(1.8761e-07 -2.3857e-07 -4.75588e-08)
(4.23929e-07 -1.53922e-07 -1.90457e-08)
(5.37391e-07 -1.01961e-07 -1.87159e-09)
(5.5937e-07 -6.66194e-08 1.00677e-08)
(5.07801e-07 -4.08884e-08 1.90441e-08)
(3.97485e-07 -2.20849e-08 2.58923e-08)
(2.43037e-07 -9.24148e-09 3.06591e-08)
(6.01861e-08 -2.17703e-09 3.32356e-08)
(-1.3425e-07 -7.97565e-10 3.35599e-08)
(-3.23377e-07 -4.79453e-09 3.17169e-08)
(-4.91553e-07 -1.35235e-08 2.79803e-08)
(-6.25777e-07 -2.60041e-08 2.28021e-08)
(-7.1677e-07 -4.1047e-08 1.67799e-08)
(-7.59532e-07 -5.73821e-08 1.05862e-08)
(-7.53595e-07 -7.36753e-08 4.81818e-09)
(-7.02781e-07 -8.86082e-08 7.21853e-11)
(-6.14633e-07 -1.01011e-07 -3.18229e-09)
(-4.99782e-07 -1.09574e-07 -4.61234e-09)
(-3.71222e-07 -1.12617e-07 -4.08074e-09)
(-2.43457e-07 -1.07774e-07 -1.78879e-09)
(-1.31247e-07 -9.18521e-08 1.49866e-09)
(-4.787e-08 -6.10727e-08 4.01695e-09)
(-3.26793e-09 -1.75864e-08 3.43293e-09)
(-5.60565e-06 -5.19814e-06 -5.60563e-06)
(-8.91495e-06 -9.67419e-06 -3.25292e-06)
(-4.84421e-06 -5.21525e-06 -1.44235e-06)
(-3.11935e-06 -2.76275e-06 -6.85934e-07)
(-1.5559e-06 -1.74087e-06 -3.261e-07)
(-6.49432e-07 -1.11328e-06 -1.50417e-07)
(-1.12733e-08 -7.92329e-07 -6.04237e-08)
(3.86055e-07 -6.05229e-07 -1.35224e-08)
(6.27178e-07 -4.89652e-07 1.45615e-08)
(7.42029e-07 -4.10671e-07 3.33205e-08)
(7.53151e-07 -3.52345e-07 4.74549e-08)
(6.76014e-07 -3.07475e-07 5.86578e-08)
(5.2591e-07 -2.73386e-07 6.7395e-08)
(3.19947e-07 -2.49579e-07 7.35474e-08)
(7.77617e-08 -2.36224e-07 7.6876e-08)
(-1.79153e-07 -2.33347e-07 7.72483e-08)
(-4.28981e-07 -2.40403e-07 7.47479e-08)
(-6.51438e-07 -2.56108e-07 6.97128e-08)
(-8.29634e-07 -2.78467e-07 6.27141e-08)
(-9.51527e-07 -3.04968e-07 5.4484e-08)
(-1.01074e-06 -3.32823e-07 4.58208e-08)
(-1.00677e-06 -3.59244e-07 3.74891e-08)
(-9.44574e-07 -3.81424e-07 3.01641e-08)
(-8.3387e-07 -3.96533e-07 2.43676e-08)
(-6.88085e-07 -4.01421e-07 2.04111e-08)
(-5.23295e-07 -3.92233e-07 1.834e-08)
(-3.5694e-07 -3.63867e-07 1.78095e-08)
(-2.05942e-07 -3.09657e-07 1.78115e-08)
(-8.60292e-08 -2.20972e-07 1.63154e-08)
(-9.07368e-09 -9.0929e-08 9.2849e-09)
(-1.02452e-06 -7.42638e-06 -1.0245e-06)
(-2.46332e-06 -5.29393e-06 -9.40206e-07)
(-2.26124e-06 -4.08613e-06 -6.8935e-07)
(-1.62658e-06 -2.75248e-06 -3.71831e-07)
(-8.10665e-07 -2.02334e-06 -1.85358e-07)
(-2.02423e-07 -1.54593e-06 -8.03011e-08)
(2.76965e-07 -1.26497e-06 -1.92168e-08)
(6.08534e-07 -1.0824e-06 1.71656e-08)
(8.17557e-07 -9.56696e-07 4.16987e-08)
(9.12716e-07 -8.62379e-07 6.00159e-08)
(9.04248e-07 -7.87478e-07 7.49227e-08)
(8.0233e-07 -7.2689e-07 8.7304e-08)
(6.20474e-07 -6.79394e-07 9.71879e-08)
(3.763e-07 -6.45551e-07 1.04228e-07)
(9.14104e-08 -6.26283e-07 1.08038e-07)
(-2.09856e-07 -6.21959e-07 1.08413e-07)
(-5.02509e-07 -6.31873e-07 1.05427e-07)
(-7.63194e-07 -6.54069e-07 9.9455e-08)
(-9.72462e-07 -6.85413e-07 9.11592e-08)
(-1.11652e-06 -7.21941e-07 8.13712e-08)
(-1.18815e-06 -7.59226e-07 7.09917e-08)
(-1.18692e-06 -7.92715e-07 6.08752e-08)
(-1.11858e-06 -8.17834e-07 5.17494e-08)
(-9.94176e-07 -8.29898e-07 4.41547e-08)
(-8.28698e-07 -8.23713e-07 3.83822e-08)
(-6.39754e-07 -7.93032e-07 3.44286e-08)
(-4.46156e-07 -7.29739e-07 3.18892e-08)
(-2.65809e-07 -6.22898e-07 2.96173e-08)
(-1.16605e-07 -4.56334e-07 2.54007e-08)
(-1.35113e-08 -2.04151e-07 1.37787e-08)
(-3.51958e-07 -2.34098e-06 -3.51933e-07)
(-1.27764e-06 -3.22365e-06 -4.3678e-07)
(-1.11689e-06 -3.09696e-06 -3.18953e-07)
(-7.63269e-07 -2.60609e-06 -1.82203e-07)
(-2.67887e-07 -2.24836e-06 -8.70412e-08)
(1.67056e-07 -1.96898e-06 -2.63338e-08)
(5.36328e-07 -1.77423e-06 1.35577e-08)
(8.09149e-07 -1.62834e-06 4.08067e-08)
(9.83386e-07 -1.51362e-06 6.17253e-08)
(1.05517e-06 -1.41772e-06 7.91513e-08)
(1.02612e-06 -1.33522e-06 9.43878e-08)
(9.01992e-07 -1.26483e-06 1.07597e-07)
(6.94322e-07 -1.20776e-06 1.18386e-07)
(4.20555e-07 -1.16626e-06 1.26161e-07)
(1.03395e-07 -1.14235e-06 1.30367e-07)
(-2.30937e-07 -1.13689e-06 1.3072e-07)
(-5.55237e-07 -1.14913e-06 1.27277e-07)
(-8.43971e-07 -1.17652e-06 1.20451e-07)
(-1.0759e-06 -1.21484e-06 1.11003e-07)
(-1.23606e-06 -1.25868e-06 9.98629e-08)
(-1.31678e-06 -1.30196e-06 8.80429e-08)
(-1.31781e-06 -1.33842e-06 7.64812e-08)
(-1.24552e-06 -1.36169e-06 6.59542e-08)
(-1.11183e-06 -1.36527e-06 5.7018e-08)
(-9.3269e-07 -1.34194e-06 4.99573e-08)
(-7.26517e-07 -1.283e-06 4.4739e-08)
(-5.12857e-07 -1.17701e-06 4.09273e-08)
(-3.10312e-07 -1.00778e-06 3.72817e-08)
(-1.38822e-07 -7.48785e-07 3.14336e-08)
(-1.65371e-08 -3.47436e-07 1.68641e-08)
(-1.61266e-07 -1.73391e-06 -1.61236e-07)
(-4.8886e-07 -2.56947e-06 -1.86284e-07)
(-4.16428e-07 -2.78591e-06 -1.36268e-07)
(-1.98068e-07 -2.6966e-06 -7.53815e-08)
(1.31142e-07 -2.57596e-06 -2.6181e-08)
(4.5729e-07 -2.44682e-06 9.34376e-09)
(7.50134e-07 -2.33418e-06 3.61061e-08)
(9.75945e-07 -2.23238e-06 5.73341e-08)
(1.11947e-06 -2.13868e-06 7.58456e-08)
(1.16953e-06 -2.05055e-06 9.28e-08)
(1.12204e-06 -1.96831e-06 1.08517e-07)
(9.79434e-07 -1.89435e-06 1.2262e-07)
(7.51498e-07 -1.83242e-06 1.34359e-07)
(4.55254e-07 -1.78646e-06 1.42899e-07)
(1.14059e-07 -1.75967e-06 1.47513e-07)
(-2.44578e-07 -1.75347e-06 1.47835e-07)
(-5.91883e-07 -1.76715e-06 1.43905e-07)
(-9.00737e-07 -1.79769e-06 1.36182e-07)
(-1.14863e-06 -1.83992e-06 1.25536e-07)
(-1.31985e-06 -1.88719e-06 1.13026e-07)
(-1.40657e-06 -1.93202e-06 9.97962e-08)
(-1.40879e-06 -1.96658e-06 8.6875e-08)
(-1.33348e-06 -1.98293e-06 7.50938e-08)
(-1.19323e-06 -1.97291e-06 6.50371e-08)
(-1.00455e-06 -1.92736e-06 5.69875e-08)
(-7.86335e-07 -1.8351e-06 5.08922e-08)
(-5.58571e-07 -1.68105e-06 4.62887e-08)
(-3.40415e-07 -1.4427e-06 4.18656e-08)
(-1.53465e-07 -1.08092e-06 3.5117e-08)
(-1.8422e-08 -5.1126e-07 1.88066e-08)
(-5.50875e-08 -1.2794e-06 -5.5051e-08)
(-1.58123e-07 -2.28406e-06 -6.65668e-08)
(-6.4239e-08 -2.749e-06 -4.46477e-08)
(1.24289e-07 -2.9189e-06 -1.62935e-08)
(3.86124e-07 -2.9752e-06 9.97399e-09)
(6.56194e-07 -2.96839e-06 3.17764e-08)
(9.0343e-07 -2.93252e-06 5.09149e-08)
(1.09714e-06 -2.87837e-06 6.85174e-08)
(1.21774e-06 -2.81295e-06 8.56617e-08)
(1.25083e-06 -2.74073e-06 1.02575e-07)
(1.18923e-06 -2.66656e-06 1.18959e-07)
(1.03319e-06 -2.59591e-06 1.3405e-07)
(7.91168e-07 -2.53461e-06 1.46796e-07)
(4.79772e-07 -2.48814e-06 1.56138e-07)
(1.22675e-07 -2.46069e-06 1.61169e-07)
(-2.51774e-07 -2.45418e-06 1.61458e-07)
(-6.1381e-07 -2.46797e-06 1.57028e-07)
(-9.35243e-07 -2.49876e-06 1.48373e-07)
(-1.19275e-06 -2.54076e-06 1.36493e-07)
(-1.37024e-06 -2.58639e-06 1.22592e-07)
(-1.45993e-06 -2.62709e-06 1.07956e-07)
(-1.4622e-06 -2.65391e-06 9.37148e-08)
(-1.38457e-06 -2.65768e-06 8.0775e-08)
(-1.24011e-06 -2.62882e-06 6.97367e-08)
(-1.04572e-06 -2.55639e-06 6.0886e-08)
(-8.20456e-07 -2.4267e-06 5.41494e-08)
(-5.84493e-07 -2.2207e-06 4.90412e-08)
(-3.57296e-07 -1.9088e-06 4.42001e-08)
(-1.61495e-07 -1.43757e-06 3.70128e-08)
(-1.94021e-08 -6.87566e-07 1.98396e-08)
(-1.49281e-08 -1.19444e-06 -1.48871e-08)
(8.10384e-10 -2.31679e-06 -1.3622e-08)
(1.22105e-07 -2.93217e-06 -1.08415e-09)
(3.07366e-07 -3.26152e-06 1.4061e-08)
(5.39426e-07 -3.4417e-06 2.9592e-08)
(7.78484e-07 -3.52916e-06 4.4499e-08)
(9.97162e-07 -3.56021e-06 5.95915e-08)
(1.16862e-06 -3.55323e-06 7.52557e-08)
(1.27256e-06 -3.52056e-06 9.17807e-08)
(1.29351e-06 -3.47093e-06 1.08933e-07)
(1.22275e-06 -3.41214e-06 1.26053e-07)
(1.05912e-06 -3.3517e-06 1.42103e-07)
(8.10127e-07 -3.29694e-06 1.55794e-07)
(4.91861e-07 -3.25432e-06 1.65883e-07)
(1.28005e-07 -3.22867e-06 1.71297e-07)
(-2.52792e-07 -3.22222e-06 1.71551e-07)
(-6.20438e-07 -3.23444e-06 1.66657e-07)
(-9.46282e-07 -3.26198e-06 1.57138e-07)
(-1.20664e-06 -3.29875e-06 1.44122e-07)
(-1.38542e-06 -3.33675e-06 1.28945e-07)
(-1.47508e-06 -3.3669e-06 1.13031e-07)
(-1.47647e-06 -3.37952e-06 9.76213e-08)
(-1.39755e-06 -3.36468e-06 8.36913e-08)
(-1.25165e-06 -3.31167e-06 7.18509e-08)
(-1.05581e-06 -3.20801e-06 6.23839e-08)
(-8.28982e-07 -3.0375e-06 5.51924e-08)
(-5.91147e-07 -2.77687e-06 4.97792e-08)
(-3.61703e-07 -2.38897e-06 4.47528e-08)
(-1.63554e-07 -1.80512e-06 3.74531e-08)
(-1.96237e-08 -8.69377e-07 2.01076e-08)
(2.98843e-09 -1.23319e-06 3.03323e-09)
(7.30694e-08 -2.48652e-06 1.09508e-08)
(2.12733e-07 -3.22268e-06 1.96658e-08)
(3.98745e-07 -3.66833e-06 2.89793e-08)
(6.14867e-07 -3.94381e-06 3.93176e-08)
(8.33914e-07 -4.1083e-06 5.06735e-08)
(1.03243e-06 -4.19925e-06 6.35545e-08)
(1.18716e-06 -4.23894e-06 7.81036e-08)
(1.27865e-06 -4.24254e-06 9.42692e-08)
(1.29157e-06 -4.22118e-06 1.1159e-07)
(1.21662e-06 -4.18434e-06 1.29212e-07)
(1.05187e-06 -4.14068e-06 1.45929e-07)
(8.04018e-07 -4.09816e-06 1.60281e-07)
(4.88522e-07 -4.06361e-06 1.7089e-07)
(1.28612e-07 -4.04214e-06 1.76545e-07)
(-2.47481e-07 -4.03603e-06 1.76764e-07)
(-6.10146e-07 -4.04489e-06 1.71555e-07)
(-9.3103e-07 -4.06552e-06 1.61413e-07)
(-1.18671e-06 -4.09197e-06 1.47574e-07)
(-1.36147e-06 -4.11628e-06 1.31481e-07)
(-1.44816e-06 -4.12933e-06 1.14677e-07)
(-1.44807e-06 -4.12138e-06 9.84756e-08)
(-1.36944e-06 -4.08212e-06 8.38878e-08)
(-1.22564e-06 -4.00009e-06 7.15425e-08)
(-1.03342e-06 -3.86149e-06 6.17106e-08)
(-8.11241e-07 -3.64767e-06 5.42832e-08)
(-5.78462e-07 -3.33116e-06 4.87474e-08)
(-3.53908e-07 -2.86694e-06 4.37206e-08)
(-1.59958e-07 -2.17081e-06 3.65838e-08)
(-1.91579e-08 -1.05026e-06 1.96813e-08)
(1.01061e-08 -1.33239e-06 1.01536e-08)
(1.02355e-07 -2.72326e-06 2.10262e-08)
(2.47802e-07 -3.56426e-06 2.80977e-08)
(4.29149e-07 -4.10159e-06 3.47879e-08)
(6.30494e-07 -4.45388e-06 4.25542e-08)
(8.31349e-07 -4.68327e-06 5.19672e-08)
(1.01164e-06 -4.82843e-06 6.34678e-08)
(1.1512e-06 -4.91368e-06 7.71287e-08)
(1.23218e-06 -4.95576e-06 9.27894e-08)
(1.24005e-06 -4.96694e-06 1.09891e-07)
(1.16561e-06 -4.9573e-06 1.27489e-07)
(1.00652e-06 -4.93569e-06 1.44302e-07)
(7.68792e-07 -4.91007e-06 1.58771e-07)
(4.66946e-07 -4.88714e-06 1.69472e-07)
(1.23177e-07 -4.8718e-06 1.75133e-07)
(-2.35541e-07 -4.86626e-06 1.75319e-07)
(-5.81168e-07 -4.87022e-06 1.70028e-07)
(-8.86553e-07 -4.88078e-06 1.59695e-07)
(-1.1292e-06 -4.89243e-06 1.45609e-07)
(-1.2942e-06 -4.89778e-06 1.29239e-07)
(-1.375e-06 -4.88819e-06 1.12176e-07)
(-1.37324e-06 -4.85429e-06 9.57824e-08)
(-1.29714e-06 -4.78586e-06 8.10785e-08)
(-1.15972e-06 -4.67112e-06 6.86863e-08)
(-9.76965e-07 -4.49508e-06 5.88536e-08)
(-7.66372e-07 -4.23689e-06 5.14617e-08)
(-5.46141e-07 -3.86489e-06 4.60155e-08)
(-3.33918e-07 -3.32641e-06 4.11831e-08)
(-1.5079e-07 -2.52209e-06 3.44586e-08)
(-1.80278e-08 -1.22399e-06 1.85843e-08)
(1.22558e-08 -1.45103e-06 1.23019e-08)
(1.07921e-07 -2.97773e-06 2.37719e-08)
(2.47342e-07 -3.9126e-06 2.98076e-08)
(4.1561e-07 -4.52638e-06 3.50736e-08)
(5.97729e-07 -4.94297e-06 4.13372e-08)
(7.77354e-07 -5.22825e-06 4.94029e-08)
(9.37429e-07 -5.42255e-06 5.96853e-08)
(1.06068e-06 -5.55148e-06 7.22579e-08)
(1.13127e-06 -5.63253e-06 8.69148e-08)
(1.13605e-06 -5.67831e-06 1.0309e-07)
(1.06635e-06 -5.69874e-06 1.19832e-07)
(9.19775e-07 -5.70229e-06 1.3587e-07)
(7.01649e-07 -5.69642e-06 1.49666e-07)
(4.25177e-07 -5.68724e-06 1.59845e-07)
(1.10782e-07 -5.67918e-06 1.65164e-07)
(-2.16843e-07 -5.67431e-06 1.65315e-07)
(-5.32322e-07 -5.6724e-06 1.60294e-07)
(-8.10773e-07 -5.67096e-06 1.50395e-07)
(-1.03146e-06 -5.66505e-06 1.36865e-07)
(-1.18077e-06 -5.64814e-06 1.21109e-07)
(-1.25286e-06 -5.61244e-06 1.0471e-07)
(-1.24953e-06 -5.54928e-06 8.8976e-08)
(-1.17869e-06 -5.44897e-06 7.48911e-08)
(-1.05247e-06 -5.29968e-06 6.30518e-08)
(-8.85598e-07 -5.08561e-06 5.3693e-08)
(-6.93979e-07 -4.78391e-06 4.66937e-08)
(-4.94079e-07 -4.35903e-06 4.15812e-08)
(-3.0181e-07 -3.75107e-06 3.71441e-08)
(-1.36144e-07 -2.8465e-06 3.10968e-08)
(-1.62421e-08 -1.38445e-06 1.68261e-08)
(1.17751e-08 -1.5678e-06 1.18218e-08)
(9.91084e-08 -3.2192e-06 2.23746e-08)
(2.22379e-07 -4.23606e-06 2.74405e-08)
(3.68737e-07 -4.91381e-06 3.16778e-08)
(5.24962e-07 -5.38421e-06 3.6785e-08)
(6.77974e-07 -5.71728e-06 4.3608e-08)
(8.13733e-07 -5.9551e-06 5.25135e-08)
(9.17949e-07 -6.12429e-06 6.35739e-08)
(9.7717e-07 -6.24257e-06 7.65845e-08)
(9.80045e-07 -6.32235e-06 9.1023e-08)
(9.1895e-07 -6.37297e-06 1.06005e-07)
(7.9159e-07 -6.40217e-06 1.20355e-07)
(6.02485e-07 -6.41655e-06 1.3266e-07)
(3.63089e-07 -6.42148e-06 1.41703e-07)
(9.12341e-08 -6.42087e-06 1.46353e-07)
(-1.91672e-07 -6.41673e-06 1.46465e-07)
(-4.63953e-07 -6.40887e-06 1.42023e-07)
(-7.04045e-07 -6.395e-06 1.33165e-07)
(-8.93792e-07 -6.3709e-06 1.21032e-07)
(-1.0214e-06 -6.33085e-06 1.06851e-07)
(-1.08195e-06 -6.26817e-06 9.20759e-08)
(-1.07731e-06 -6.17524e-06 7.79028e-08)
(-1.01461e-06 -6.04304e-06 6.52341e-08)
(-9.0458e-07 -5.85991e-06 5.46077e-08)
(-7.60077e-07 -5.60954e-06 4.6229e-08)
(-5.9484e-07 -5.26742e-06 3.99949e-08)
(-4.22967e-07 -4.7946e-06 3.54894e-08)
(-2.58044e-07 -4.12477e-06 3.16654e-08)
(-1.16232e-07 -3.1318e-06 2.65461e-08)
(-1.38223e-08 -1.5256e-06 1.44277e-08)
(9.79179e-09 -1.66919e-06 9.83146e-09)
(8.07815e-08 -3.4257e-06 1.84319e-08)
(1.7953e-07 -4.50999e-06 2.23866e-08)
(2.95834e-07 -5.23925e-06 2.56549e-08)
(4.19144e-07 -5.75312e-06 2.96423e-08)
(5.39526e-07 -6.12547e-06 3.50802e-08)
(6.46164e-07 -6.39998e-06 4.22759e-08)
(7.27972e-07 -6.604e-06 5.12841e-08)
(7.74306e-07 -6.75522e-06 6.19233e-08)
(7.76056e-07 -6.86558e-06 7.3748e-08)
(7.26944e-07 -6.94366e-06 8.60114e-08)
(6.2495e-07 -6.99617e-06 9.77388e-08)
(4.7363e-07 -7.02879e-06 1.07725e-07)
(2.82159e-07 -7.04631e-06 1.15004e-07)
(6.49554e-08 -7.05232e-06 1.1867e-07)
(-1.60762e-07 -7.04886e-06 1.18729e-07)
(-3.77814e-07 -7.03579e-06 1.15178e-07)
(-5.68859e-07 -7.01086e-06 1.0799e-07)
(-7.19229e-07 -6.97023e-06 9.80814e-08)
(-8.19506e-07 -6.90902e-06 8.64402e-08)
(-8.65908e-07 -6.82155e-06 7.42851e-08)
(-8.60199e-07 -6.70127e-06 6.2612e-08)
(-8.08367e-07 -6.53999e-06 5.21894e-08)
(-7.19212e-07 -6.32646e-06 4.34518e-08)
(-6.03152e-07 -6.04407e-06 3.65827e-08)
(-4.71155e-07 -5.66702e-06 3.14965e-08)
(-3.34413e-07 -5.15365e-06 2.78633e-08)
(-2.03634e-07 -4.43235e-06 2.48507e-08)
(-9.15173e-08 -3.3665e-06 2.08962e-08)
(-1.08255e-08 -1.6418e-06 1.14484e-08)
(6.85888e-09 -1.74623e-06 6.8961e-09)
(5.58686e-08 -3.58136e-06 1.28399e-08)
(1.23539e-07 -4.71545e-06 1.55174e-08)
(2.03024e-07 -5.48254e-06 1.77525e-08)
(2.8717e-07 -6.02872e-06 2.0545e-08)
(3.69425e-07 -6.43088e-06 2.4424e-08)
(4.42478e-07 -6.73394e-06 2.95958e-08)
(4.98739e-07 -6.96574e-06 3.61168e-08)
(5.3078e-07 -7.14374e-06 4.38657e-08)
(5.32056e-07 -7.27921e-06 5.25193e-08)
(4.97959e-07 -7.37991e-06 6.15225e-08)
(4.2675e-07 -7.45166e-06 7.01536e-08)
(3.20685e-07 -7.49925e-06 7.75033e-08)
(1.86099e-07 -7.52697e-06 8.28737e-08)
(3.32532e-08 -7.53825e-06 8.55574e-08)
(-1.25443e-07 -7.53537e-06 8.55599e-08)
(-2.77625e-07 -7.51818e-06 8.28827e-08)
(-4.10805e-07 -7.48432e-06 7.75049e-08)
(-5.14591e-07 -7.43017e-06 7.01493e-08)
(-5.82557e-07 -7.35145e-06 6.15366e-08)
(-6.12316e-07 -7.24342e-06 5.25959e-08)
(-6.05518e-07 -7.10046e-06 4.40403e-08)
(-5.66715e-07 -6.91523e-06 3.64328e-08)
(-5.02349e-07 -6.67698e-06 3.00924e-08)
(-4.19829e-07 -6.36907e-06 2.51377e-08)
(-3.26876e-07 -5.96479e-06 2.15021e-08)
(-2.31245e-07 -5.42047e-06 1.89631e-08)
(-1.40301e-07 -4.66055e-06 1.69389e-08)
(-6.2769e-08 -3.54057e-06 1.43351e-08)
(-7.33952e-09 -1.72808e-06 7.97357e-09)
(3.32501e-09 -1.79276e-06 3.35296e-09)
(2.65167e-08 -3.67464e-06 6.15988e-09)
(5.83697e-08 -4.83827e-06 7.40655e-09)
(9.59618e-08 -5.62821e-06 8.52372e-09)
(1.36129e-07 -6.19458e-06 1.00102e-08)
(1.75906e-07 -6.61613e-06 1.2136e-08)
(2.1179e-07 -6.93854e-06 1.50233e-08)
(2.39974e-07 -7.1897e-06 1.87054e-08)
(2.56545e-07 -7.38681e-06 2.31148e-08)
(2.57826e-07 -7.54062e-06 2.80913e-08)
(2.41001e-07 -7.65807e-06 3.33271e-08)
(2.04626e-07 -7.74419e-06 3.84271e-08)
(1.49461e-07 -7.80307e-06 4.2849e-08)
(7.85629e-08 -7.8386e-06 4.61519e-08)
(-2.60267e-09 -7.85393e-06 4.782e-08)
(-8.68785e-08 -7.85145e-06 4.77574e-08)
(-1.66925e-07 -7.83106e-06 4.5982e-08)
(-2.35582e-07 -7.79034e-06 4.25758e-08)
(-2.87345e-07 -7.726e-06 3.80879e-08)
(-3.19205e-07 -7.63423e-06 3.29552e-08)
(-3.30462e-07 -7.51102e-06 2.77345e-08)
(-3.22619e-07 -7.35159e-06 2.28276e-08)
(-2.98515e-07 -7.1493e-06 1.85333e-08)
(-2.61898e-07 -6.89383e-06 1.50027e-08)
(-2.16784e-07 -6.56861e-06 1.2293e-08)
(-1.67216e-07 -6.14645e-06 1.03613e-08)
(-1.17159e-07 -5.58247e-06 9.08234e-09)
(-7.03184e-08 -4.79876e-06 8.17433e-09)
(-3.10101e-08 -3.646e-06 7.0789e-09)
(-3.48215e-09 -1.78045e-06 4.12351e-09)
(-5.48655e-10 -1.80487e-06 -5.30465e-10)
(-5.44078e-09 -3.69807e-06 -1.13664e-09)
(-1.22651e-08 -4.8691e-06 -1.409e-09)
(-1.9646e-08 -5.66582e-06 -1.4679e-09)
(-2.64047e-08 -6.2395e-06 -1.34366e-09)
(-3.17716e-08 -6.66935e-06 -1.05146e-09)
(-3.52421e-08 -7.00109e-06 -5.81426e-10)
(-3.6689e-08 -7.26249e-06 8.93535e-11)
(-3.6363e-08 -7.47041e-06 9.92312e-10)
(-3.48654e-08 -7.63522e-06 2.15901e-09)
(-3.30853e-08 -7.76332e-06 3.56882e-09)
(-3.21186e-08 -7.8591e-06 5.1519e-09)
(-3.29335e-08 -7.92603e-06 6.72867e-09)
(-3.60262e-08 -7.96744e-06 8.08464e-09)
(-4.10296e-08 -7.98595e-06 8.84916e-09)
(-4.63339e-08 -7.9837e-06 8.73491e-09)
(-4.9839e-08 -7.96065e-06 7.77609e-09)
(-5.00006e-08 -7.91468e-06 6.22865e-09)
(-4.65305e-08 -7.84306e-06 4.52494e-09)
(-4.01156e-08 -7.74262e-06 2.87568e-09)
(-3.185e-08 -7.61001e-06 1.46864e-09)
(-2.30372e-08 -7.44097e-06 3.57879e-10)
(-1.47136e-08 -7.22934e-06 -4.46814e-10)
(-7.63327e-09 -6.96515e-06 -9.83353e-10)
(-2.21696e-09 -6.63192e-06 -1.29329e-09)
(1.38765e-09 -6.20239e-06 -1.40617e-09)
(3.25555e-09 -5.63129e-06 -1.32996e-09)
(3.52274e-09 -4.83994e-06 -1.05549e-09)
(2.49512e-09 -3.67741e-06 -5.71428e-10)
(5.87673e-10 -1.79628e-06 5.66127e-11)
(-4.55014e-09 -1.7806e-06 -4.54375e-09)
(-3.83103e-08 -3.64792e-06 -8.66332e-09)
(-8.47666e-08 -4.80328e-06 -1.04929e-08)
(-1.38114e-07 -5.59016e-06 -1.17464e-08)
(-1.92738e-07 -6.15789e-06 -1.30201e-08)
(-2.44103e-07 -6.58456e-06 -1.46297e-08)
(-2.87712e-07 -6.91518e-06 -1.66747e-08)
(-3.19489e-07 -7.17711e-06 -1.91575e-08)
(-3.35943e-07 -7.38694e-06 -2.1977e-08)
(-3.34556e-07 -7.55477e-06 -2.49447e-08)
(-3.14206e-07 -7.68679e-06 -2.7786e-08)
(-2.75499e-07 -7.78706e-06 -3.0201e-08)
(-2.20917e-07 -7.85853e-06 -3.1953e-08)
(-1.54441e-07 -7.90368e-06 -3.29766e-08)
(-8.09074e-08 -7.92437e-06 -3.33695e-08)
(-4.65529e-09 -7.92225e-06 -3.35301e-08)
(7.06519e-08 -7.89725e-06 -3.34033e-08)
(1.40574e-07 -7.84785e-06 -3.26292e-08)
(2.00112e-07 -7.77225e-06 -3.10374e-08)
(2.44978e-07 -7.66805e-06 -2.87173e-08)
(2.72447e-07 -7.53237e-06 -2.58875e-08)
(2.81619e-07 -7.36135e-06 -2.28747e-08)
(2.73412e-07 -7.14895e-06 -1.99556e-08)
(2.50136e-07 -6.88532e-06 -1.73414e-08)
(2.1506e-07 -6.55414e-06 -1.51448e-08)
(1.71992e-07 -6.12837e-06 -1.33619e-08)
(1.25036e-07 -5.56326e-06 -1.18884e-08)
(7.81875e-08 -4.78099e-06 -1.0405e-08)
(3.63805e-08 -3.63246e-06 -8.31986e-09)
(4.7102e-09 -1.77435e-06 -4.06698e-09)
(-8.47296e-09 -1.71984e-06 -8.47349e-09)
(-7.04591e-08 -3.52408e-06 -1.60304e-08)
(-1.5559e-07 -4.64077e-06 -1.93732e-08)
(-2.53711e-07 -5.40141e-06 -2.17796e-08)
(-3.5493e-07 -5.95003e-06 -2.44016e-08)
(-4.51058e-07 -6.36205e-06 -2.78497e-08)
(-5.33796e-07 -6.68091e-06 -3.23612e-08)
(-5.95298e-07 -6.93315e-06 -3.79617e-08)
(-6.28479e-07 -7.13506e-06 -4.45003e-08)
(-6.27784e-07 -7.29671e-06 -5.16445e-08)
(-5.89979e-07 -7.42434e-06 -5.88674e-08)
(-5.14991e-07 -7.52194e-06 -6.55453e-08)
(-4.06541e-07 -7.59232e-06 -7.10032e-08)
(-2.71728e-07 -7.63742e-06 -7.47981e-08)
(-1.20476e-07 -7.65846e-06 -7.66253e-08)
(3.67056e-08 -7.65637e-06 -7.67997e-08)
(1.89921e-07 -7.63113e-06 -7.52745e-08)
(3.28505e-07 -7.58192e-06 -7.17567e-08)
(4.42327e-07 -7.50776e-06 -6.64896e-08)
(5.23899e-07 -7.4067e-06 -5.99272e-08)
(5.692e-07 -7.27606e-06 -5.27201e-08)
(5.77959e-07 -7.11199e-06 -4.5539e-08)
(5.53132e-07 -6.90834e-06 -3.89064e-08)
(5.00036e-07 -6.6552e-06 -3.31831e-08)
(4.25514e-07 -6.33641e-06 -2.85301e-08)
(3.37148e-07 -5.92568e-06 -2.49127e-08)
(2.4288e-07 -5.37964e-06 -2.20921e-08)
(1.5044e-07 -4.62306e-06 -1.94391e-08)
(6.91773e-08 -3.512e-06 -1.58187e-08)
(8.70215e-09 -1.71505e-06 -8.06424e-09)
(-1.21222e-08 -1.6243e-06 -1.2137e-08)
(-1.00336e-07 -3.3301e-06 -2.28958e-08)
(-2.21349e-07 -4.38634e-06 -2.76408e-08)
(-3.60969e-07 -5.10524e-06 -3.11051e-08)
(-5.05313e-07 -5.62237e-06 -3.49533e-08)
(-6.42887e-07 -6.00883e-06 -4.00863e-08)
(-7.61889e-07 -6.3058e-06 -4.68449e-08)
(-8.51028e-07 -6.53854e-06 -5.53177e-08)
(-8.99961e-07 -6.72281e-06 -6.53349e-08)
(-9.00291e-07 -6.86864e-06 -7.64485e-08)
(-8.46817e-07 -6.98261e-06 -8.79511e-08)
(-7.38692e-07 -7.06914e-06 -9.88974e-08)
(-5.80487e-07 -7.13127e-06 -1.08195e-07)
(-3.81992e-07 -7.17104e-06 -1.14963e-07)
(-1.57686e-07 -7.18959e-06 -1.18409e-07)
(7.5871e-08 -7.18747e-06 -1.18582e-07)
(3.0223e-07 -7.16471e-06 -1.15449e-07)
(5.04645e-07 -7.12097e-06 -1.08962e-07)
(6.68413e-07 -7.0553e-06 -9.9861e-08)
(7.83343e-07 -6.96567e-06 -8.9034e-08)
(8.44478e-07 -6.8492e-06 -7.7567e-08)
(8.52298e-07 -6.70149e-06 -6.64223e-08)
(8.11708e-07 -6.5161e-06 -5.63303e-08)
(7.3083e-07 -6.28301e-06 -4.77407e-08)
(6.19762e-07 -5.98655e-06 -4.08457e-08)
(4.89534e-07 -5.60159e-06 -3.55572e-08)
(3.51618e-07 -5.08697e-06 -3.15102e-08)
(2.17119e-07 -4.37171e-06 -2.77979e-08)
(9.94595e-08 -3.32023e-06 -2.27589e-08)
(1.23932e-08 -1.62042e-06 -1.17653e-08)
(-1.53435e-08 -1.49728e-06 -1.53654e-08)
(-1.26578e-07 -3.07274e-06 -2.89362e-08)
(-2.78994e-07 -4.04901e-06 -3.48966e-08)
(-4.54885e-07 -4.71241e-06 -3.92617e-08)
(-6.36878e-07 -5.18727e-06 -4.41262e-08)
(-8.10572e-07 -5.53886e-06 -5.0628e-08)
(-9.61119e-07 -5.80526e-06 -5.9212e-08)
(-1.07422e-06 -6.01006e-06 -7.00153e-08)
(-1.13673e-06 -6.16827e-06 -8.28479e-08)
(-1.13788e-06 -6.29003e-06 -9.71875e-08)
(-1.07074e-06 -6.38224e-06 -1.12156e-07)
(-9.33766e-07 -6.45e-06 -1.26571e-07)
(-7.3221e-07 -6.49717e-06 -1.39013e-07)
(-4.78164e-07 -6.52653e-06 -1.48228e-07)
(-1.89978e-07 -6.53982e-06 -1.53041e-07)
(1.10416e-07 -6.53769e-06 -1.53202e-07)
(4.0065e-07 -6.52028e-06 -1.48687e-07)
(6.5864e-07 -6.48707e-06 -1.39732e-07)
(8.65757e-07 -6.43651e-06 -1.27483e-07)
(1.00952e-06 -6.36593e-06 -1.13184e-07)
(1.0843e-06 -6.2716e-06 -9.82623e-08)
(1.09126e-06 -6.14841e-06 -8.39043e-08)
(1.03698e-06 -5.98946e-06 -7.10111e-08)
(9.31953e-07 -5.78471e-06 -6.0109e-08)
(7.89086e-07 -5.51911e-06 -5.14006e-08)
(6.22413e-07 -5.16911e-06 -4.47503e-08)
(4.46482e-07 -4.69668e-06 -3.96971e-08)
(2.75327e-07 -4.03656e-06 -3.509e-08)
(1.25926e-07 -3.0644e-06 -2.88322e-08)
(1.56283e-08 -1.49401e-06 -1.50155e-08)
(-1.79854e-08 -1.34351e-06 -1.80184e-08)
(-1.48036e-07 -2.76164e-06 -3.39048e-08)
(-3.26044e-07 -3.6416e-06 -4.08483e-08)
(-5.31454e-07 -4.23819e-06 -4.59e-08)
(-7.44027e-07 -4.66219e-06 -5.15047e-08)
(-9.46961e-07 -4.97185e-06 -5.89914e-08)
(-1.1229e-06 -5.20144e-06 -6.88856e-08)
(-1.25514e-06 -5.37252e-06 -8.13399e-08)
(-1.32826e-06 -5.4993e-06 -9.6137e-08)
(-1.32962e-06 -5.5917e-06 -1.12705e-07)
(-1.25103e-06 -5.65709e-06 -1.30053e-07)
(-1.09051e-06 -5.70146e-06 -1.46849e-07)
(-8.53889e-07 -5.72967e-06 -1.61448e-07)
(-5.55103e-07 -5.74562e-06 -1.72338e-07)
(-2.15558e-07 -5.75199e-06 -1.78099e-07)
(1.38587e-07 -5.74995e-06 -1.78239e-07)
(4.80122e-07 -5.73962e-06 -1.72746e-07)
(7.82745e-07 -5.72002e-06 -1.62091e-07)
(1.02478e-06 -5.68862e-06 -1.47665e-07)
(1.19195e-06 -5.64171e-06 -1.30981e-07)
(1.27802e-06 -5.57447e-06 -1.13688e-07)
(1.28457e-06 -5.48093e-06 -9.71157e-08)
(1.21948e-06 -5.3537e-06 -8.22686e-08)
(1.09512e-06 -5.18289e-06 -6.97394e-08)
(9.26603e-07 -4.95425e-06 -5.97365e-08)
(7.30422e-07 -4.64622e-06 -5.211e-08)
(5.23631e-07 -4.2245e-06 -4.63298e-08)
(3.2269e-07 -3.63086e-06 -4.10446e-08)
(1.4749e-07 -2.75449e-06 -3.38077e-08)
(1.827e-08 -1.34071e-06 -1.7678e-08)
(-1.99497e-08 -1.16886e-06 -1.99884e-08)
(-1.63851e-07 -2.4087e-06 -3.75984e-08)
(-3.60625e-07 -3.17983e-06 -4.52485e-08)
(-5.87682e-07 -3.70121e-06 -5.0755e-08)
(-8.22704e-07 -4.06828e-06 -5.68085e-08)
(-1.04707e-06 -4.33153e-06 -6.48619e-08)
(-1.24149e-06 -4.52097e-06 -7.54773e-08)
(-1.38741e-06 -4.65585e-06 -8.88158e-08)
(-1.46778e-06 -4.74928e-06 -1.04631e-07)
(-1.46865e-06 -4.81083e-06 -1.22308e-07)
(-1.38109e-06 -4.8483e-06 -1.40801e-07)
(-1.20298e-06 -4.86836e-06 -1.58697e-07)
(-9.40723e-07 -4.87692e-06 -1.74273e-07)
(-6.09645e-07 -4.87899e-06 -1.85907e-07)
(-2.33294e-07 -4.8782e-06 -1.92101e-07)
(1.59266e-07 -4.8763e-06 -1.92219e-07)
(5.37515e-07 -4.87343e-06 -1.86251e-07)
(8.72272e-07 -4.86799e-06 -1.74818e-07)
(1.13971e-06 -4.85651e-06 -1.59399e-07)
(1.3242e-06 -4.83417e-06 -1.41609e-07)
(1.41894e-06 -4.79507e-06 -1.23169e-07)
(1.42571e-06 -4.73259e-06 -1.05503e-07)
(1.35311e-06 -4.63893e-06 -8.96545e-08)
(1.2148e-06 -4.50443e-06 -7.62571e-08)
(1.02756e-06 -4.31599e-06 -6.55522e-08)
(8.0969e-07 -4.05433e-06 -5.73785e-08)
(5.80216e-07 -3.68938e-06 -5.11602e-08)
(3.57428e-07 -3.17063e-06 -4.54307e-08)
(1.63328e-07 -2.40262e-06 -3.7498e-08)
(2.02194e-08 -1.16649e-06 -1.96563e-08)
(-2.11502e-08 -9.79974e-07 -2.11937e-08)
(-1.73345e-07 -2.0274e-06 -3.98596e-08)
(-3.81386e-07 -2.6814e-06 -4.79238e-08)
(-6.21633e-07 -3.12226e-06 -5.3645e-08)
(-8.70516e-07 -3.42907e-06 -5.98578e-08)
(-1.10821e-06 -3.64406e-06 -6.80861e-08)
(-1.31406e-06 -3.79277e-06 -7.88954e-08)
(-1.46824e-06 -3.89196e-06 -9.24314e-08)
(-1.55265e-06 -3.95346e-06 -1.08435e-07)
(-1.55265e-06 -3.9864e-06 -1.26257e-07)
(-1.45899e-06 -3.99857e-06 -1.44832e-07)
(-1.26967e-06 -3.99706e-06 -1.62751e-07)
(-9.91642e-07 -3.9885e-06 -1.78328e-07)
(-6.41155e-07 -3.97858e-06 -1.89936e-07)
(-2.42969e-07 -3.97166e-06 -1.96127e-07)
(1.72299e-07 -3.96997e-06 -1.96226e-07)
(5.72262e-07 -3.97359e-06 -1.90229e-07)
(9.26197e-07 -3.98051e-06 -1.78788e-07)
(1.20911e-06 -3.98652e-06 -1.63347e-07)
(1.40447e-06 -3.98603e-06 -1.45525e-07)
(1.50496e-06 -3.97249e-06 -1.27004e-07)
(1.51225e-06 -3.9388e-06 -1.09198e-07)
(1.43528e-06 -3.87717e-06 -9.31788e-08)
(1.28839e-06 -3.7784e-06 -7.95964e-08)
(1.08943e-06 -3.63067e-06 -6.87128e-08)
(8.57976e-07 -3.41715e-06 -6.03788e-08)
(6.14416e-07 -3.11225e-06 -5.40106e-08)
(3.7828e-07 -2.6737e-06 -4.80831e-08)
(1.72811e-07 -2.02237e-06 -3.97547e-08)
(2.1399e-08 -9.78036e-07 -2.0872e-08)
(-2.15026e-08 -7.84169e-07 -2.15483e-08)
(-1.7596e-07 -1.63248e-06 -4.05237e-08)
(-3.87326e-07 -2.16551e-06 -4.86604e-08)
(-6.32023e-07 -2.52358e-06 -5.43382e-08)
(-8.86159e-07 -2.76917e-06 -6.04347e-08)
(-1.12925e-06 -2.93626e-06 -6.8483e-08)
(-1.33988e-06 -3.04594e-06 -7.9045e-08)
(-1.49741e-06 -3.11239e-06 -9.22442e-08)
(-1.58325e-06 -3.14601e-06 -1.07793e-07)
(-1.58249e-06 -3.15513e-06 -1.25025e-07)
(-1.48597e-06 -3.14719e-06 -1.42902e-07)
(-1.29201e-06 -3.12927e-06 -1.60069e-07)
(-1.00798e-06 -3.10809e-06 -1.74932e-07)
(-6.50552e-07 -3.08963e-06 -1.8597e-07)
(-2.44882e-07 -3.07846e-06 -1.91861e-07)
(1.78031e-07 -3.07702e-06 -1.91943e-07)
(5.8535e-07 -3.08539e-06 -1.86213e-07)
(9.45982e-07 -3.10131e-06 -1.75318e-07)
(1.23458e-06 -3.1203e-06 -1.60571e-07)
(1.43417e-06 -3.13655e-06 -1.43492e-07)
(1.53711e-06 -3.14333e-06 -1.25668e-07)
(1.54474e-06 -3.13362e-06 -1.08459e-07)
(1.46594e-06 -3.09993e-06 -9.29038e-08)
(1.31533e-06 -3.03391e-06 -7.96697e-08)
(1.11128e-06 -2.92513e-06 -6.90462e-08)
(8.74125e-07 -2.75933e-06 -6.09087e-08)
(6.25064e-07 -2.51541e-06 -5.46727e-08)
(3.84287e-07 -2.15931e-06 -4.88024e-08)
(1.75396e-07 -1.62853e-06 -4.04192e-08)
(2.17244e-08 -7.827e-07 -2.12442e-08)
(-2.08837e-08 -5.89488e-07 -2.09284e-08)
(-1.70996e-07 -1.23982e-06 -3.9341e-08)
(-3.77391e-07 -1.65244e-06 -4.71346e-08)
(-6.17754e-07 -1.92833e-06 -5.24531e-08)
(-8.68782e-07 -2.11392e-06 -5.81315e-08)
(-1.10984e-06 -2.23532e-06 -6.56707e-08)
(-1.31916e-06 -2.30933e-06 -7.56218e-08)
(-1.47581e-06 -2.34755e-06 -8.80749e-08)
(-1.56111e-06 -2.35879e-06 -1.02723e-07)
(-1.56032e-06 -2.3503e-06 -1.18899e-07)
(-1.46457e-06 -2.32875e-06 -1.35607e-07)
(-1.27259e-06 -2.30065e-06 -1.51572e-07)
(-9.91971e-07 -2.2723e-06 -1.65343e-07)
(-6.39375e-07 -2.24932e-06 -1.75528e-07)