/*--------------------------------*- C++ -*----------------------------------*\
| =========                 |                                                 |
| \\      /  F ield         | OpenFOAM: The Open Source CFD Toolbox           |
|  \\    /   O peration     | Version:  v1912                                 |
|   \\  /    A nd           | Website:  www.openfoam.com                      |
|    \\/     M anipulation  |                                                 |
\*---------------------------------------------------------------------------*/
FoamFile
{
    version     2.0;
    format      ascii;
    class       volScalarField;
    location    "280/sphere";
    object      T;
}
// * * * * * * * * * * * * * * * * * * * * * * * * * * * * * * * * * * * * * //

dimensions      [0 0 0 1 0 0 0];


internalField   nonuniform List<scalar> 
304
(
341.607
341.624
341.623
341.632
341.61
341.61
341.607
341.624
341.606
341.677
341.677
341.625
341.622
341.677
341.677
341.642
341.626
341.643
341.605
341.624
341.633
341.609
341.625
341.678
341.677
341.643
341.633
341.678
341.678
341.656
341.609
341.643
341.656
341.625
341.61
341.627
341.643
341.605
341.612
341.643
341.656
341.624
341.606
341.625
341.601
341.6
341.61
341.611
341.606
341.625
341.61
341.611
341.625
341.606
341.6
341.609
341.605
341.609
341.624
341.624
341.623
341.632
341.626
341.643
341.642
341.656
341.607
341.632
341.624
341.643
341.626
341.656
341.643
341.609
341.605
341.624
341.609
341.608
341.608
341.623
341.604
341.632
341.605
341.623
341.642
341.655
341.625
341.642
341.624
341.623
341.607
341.656
341.643
341.643
341.626
341.624
341.609
341.604
341.6
341.609
341.604
341.624
341.609
341.624
341.605
341.609
341.6
341.605
341.609
341.61
341.625
341.624
341.626
341.643
341.624
341.633
341.643
341.656
341.608
341.643
341.627
341.633
341.624
341.656
341.643
341.605
341.61
341.625
341.61
341.626
341.623
341.642
341.624
341.643
341.632
341.656
341.606
341.642
341.624
341.643
341.624
341.656
341.632
341.642
341.606
341.625
341.632
341.656
341.623
341.642
341.623
341.626
341.607
341.656
341.632
341.643
341.623
341.605
341.609
341.624
341.609
341.642
341.607
341.624
341.643
341.656
341.624
341.633
341.626
341.624
341.607
341.656
341.643
341.633
341.624
341.624
341.609
341.609
341.609
341.61
341.625
341.607
341.633
341.643
341.656
341.607
341.624
341.627
341.643
341.624
341.656
341.643
341.624
341.606
341.643
341.625
341.624
341.609
341.605
341.644
341.633
341.656
341.609
341.628
341.625
341.644
341.624
341.656
341.632
341.626
341.608
341.643
341.624
341.656
341.624
341.643
341.625
341.644
341.608
341.627
341.632
341.643
341.624
341.642
341.624
341.626
341.607
341.624
341.609
341.606
341.656
341.624
341.633
341.627
341.643
341.608
341.624
341.643
341.633
341.625
341.643
341.627
341.625
341.609
341.61
341.61
341.606
341.602
341.609
341.606
341.625
341.61
341.624
341.605
341.609
341.6
341.607
341.611
341.626
341.611
341.643
341.644
341.656
341.609
341.624
341.625
341.633
341.626
341.656
341.643
341.624
341.606
341.632
341.623
341.624
341.609
341.609
341.626
341.607
341.61
341.656
341.627
341.643
341.624
341.633
341.607
341.624
341.642
341.643
341.626
341.632
341.623
341.624
341.607
341.609
341.605
341.608
341.602
341.625
341.61
341.61
341.606
341.61
341.61
)
;

boundaryField
{
    sphere_to_oil
    {
        type            compressible::turbulentTemperatureCoupledBaffleMixed;
        refValue        nonuniform List<scalar> 
360
(
303.558
303.558
300.839
301.385
301.468
300.984
301.504
301.504
301.504
301.568
301.568
301.039
301.13
300.742
301.466
301.345
301.461
301.461
301.461
301.08
301.44
301.337
301.08
301.501
300.67
301.527
301.04
301.514
301.514
301.514
301.539
301.422
300.851
300.862
301.053
301.065
301.516
301.516
301.516
301.485
301.724
301.335
301.411
303.221
303.221
301.019
302.27
300.704
302.052
301.635
300.858
300.908
301.02
301.062
300.999
301.266
301.482
301.037
301.428
301.975
301.162
301.634
301.634
301.634
300.722
301.638
302.348
300.8
301.544
301.544
301.544
301.54
301.506
300.744
301.299
301.547
300.858
301.063
301.707
301.495
301.134
300.972
301.111
301.149
300.872
300.924
301.069
301.071
300.822
301.042
300.873
301.087
301.015
300.912
301.029
301.048
301.103
301.078
301.11
300.743
300.867
300.761
300.884
300.99
301.002
300.751
300.749
301.06
301.044
301.07
301.062
301.126
301.06
301.03
300.371
300.374
300.726
300.715
300.776
303.139
303.139
301.385
301.385
301.501
301.501
301.452
301.452
301.452
301.543
301.543
301.543
300.757
300.745
300.757
300.828
301.468
301.468
301.259
301.259
301.539
301.539
301.19
301.19
301.495
301.495
301.495
300.796
300.859
301.368
301.368
301.368
301.43
301.43
301.43
301.345
301.44
301.466
301.345
301.356
300.832
301.356
301.356
301.092
301.161
300.983
301.289
301.289
301.746
301.746
301.746
301.131
301.44
301.337
301.713
301.713
301.144
301.713
301.123
300.965
300.348
301.034
301.026
301.378
300.764
301.655
301.689
300.628
300.833
301.527
301.527
301.422
301.422
303.462
303.462
301.402
301.402
301.402
302.359
302.359
300.794
300.992
300.954
301.058
301.008
300.916
301.027
301.06
301.101
301.107
301.073
301.485
301.07
301.082
301.066
301.763
301.763
301.763
301.361
301.361
301.164
301.414
301.444
301.961
301.724
301.318
301.975
301.449
301.485
301.724
301.343
301.039
301.343
301.176
300.369
301.618
300.862
301.665
301.689
301.739
300.967
300.707
301.587
301.402
301.587
301.587
301.402
301.402
301.635
301.638
302.052
301.486
300.779
301.635
301.486
301.486
300.965
300.854
301.002
301.015
300.916
301.54
301.048
301.039
301.051
301.052
301.482
301.299
301.075
301.102
301.109
301.508
301.358
301.266
301.735
301.132
301.482
301.735
301.735
302.268
301.313
301.707
301.427
301.424
301.424
301.735
301.324
301.725
301.312
301.508
301.312
301.735
301.508
301.735
300.61
300.717
300.777
300.804
302.233
301.416
302.233
301.416
301.416
300.747
301.638
301.474
302.348
301.474
300.812
301.474
300.821
300.84
300.779
301.552
301.264
301.552
301.552
301.264
300.843
300.875
301.009
300.997
301.506
301.54
301.165
300.848
301.506
301.165
300.801
301.299
301.399
301.547
301.399
300.835
301.399
301.051
301.495
301.084
301.069
301.348
301.5
301.358
301.414
301.358
301.348
301.414
301.348
300.957
301.125
301.707
301.288
301.143
301.495
301.288
301.039
301.725
301.5
301.725
301.309
301.5
301.309
)
;
        refGradient     uniform 0;
        valueFraction   nonuniform List<scalar> 
360
(
0.000193861
0.000185984
0.000119072
0.000425322
0.000436206
0.000250153
0.000438916
0.000376762
0.000586399
0.000186732
0.000182061
0.000244244
0.000372224
0.000106433
0.000190386
0.000370066
0.000424069
0.000396238
0.000555974
9.73919e-05
0.000365074
0.000179487
0.000165422
0.00043894
0.000127457
0.000451176
0.00025435
0.000445352
0.000582798
0.000389882
0.000445427
0.00044926
0.000120652
0.000119304
0.000250361
0.00024638
0.000416855
0.000565099
0.000388071
0.000583453
0.000576333
0.000123086
0.000244139
0.000178181
0.000177968
0.000251321
0.000375989
0.000100318
0.000179495
0.000380585
0.000247927
0.000249537
0.000371947
0.000368333
0.000104068
0.000190371
0.000388186
9.96947e-05
0.00024697
0.000368275
9.75834e-05
0.000433518
0.000382699
0.000598918
0.000100605
0.000391295
0.000182537
0.000176547
0.000443536
0.000578583
0.000389223
0.000557941
0.000565749
0.000108071
0.000377246
0.000191393
9.96376e-05
0.000178656
0.000564544
0.000586453
0.000175227
0.000171921
0.000168864
0.000100363
0.000121027
0.000245363
0.000246737
0.000373644
0.000112794
9.52386e-05
0.000119778
0.000373036
0.000246271
0.000122353
0.00037242
0.000249082
0.000247608
0.000247989
0.000120932
9.69356e-05
9.82953e-05
9.69874e-05
0.000249329
0.000245056
0.000372754
0.00010975
9.53295e-05
0.000372483
0.000118336
0.00024544
0.000245488
0.000250494
0.00012249
9.80856e-05
9.56597e-05
9.75078e-05
0.000169718
0.000169922
0.000176523
0.000191415
0.000179905
0.000371699
0.000585495
0.000391608
0.00059088
0.000378786
0.000582309
0.000433588
0.000379092
0.000569638
0.000427015
0.000174188
0.000164728
0.000168724
9.31466e-05
0.000386263
0.000581523
0.000179949
0.000180771
0.000587681
0.000390766
0.000188637
0.000198814
0.000580448
0.000398771
0.000459488
0.000102513
9.5399e-05
0.00040261
0.000557878
0.000442221
0.000414535
0.000577189
0.000442175
0.000456531
0.000420527
0.000196731
0.000586296
0.000378747
0.000105607
0.000569845
0.000426456
0.00016276
0.000171474
0.000169637
0.000178961
0.000187071
0.000583365
0.000384144
0.000450893
0.000108125
0.000561176
0.000192453
0.000590086
0.000377785
0.000105615
0.000447927
0.000164204
0.000165728
9.68338e-05
0.000253807
0.000253706
0.000375133
0.000125102
0.000375699
0.000247213
9.58397e-05
9.30637e-05
0.000586995
0.000373002
0.000580106
0.000386792
0.000184513
0.000172556
0.00058281
0.000364282
0.000421064
0.000170565
0.000197906
9.95692e-05
0.000249346
0.00024912
0.000372193
0.00024371
0.000244964
0.000370728
0.000127072
0.000371998
0.000252236
0.000123575
0.000418673
0.000371586
0.000250725
9.99233e-05
0.000570078
0.000369601
0.000432424
0.000180171
0.000167434
9.67179e-05
0.000247407
0.000251567
0.000372984
0.000424031
0.000118608
0.000369446
0.000241294
0.000366981
0.0003885
0.000176368
9.90665e-05
0.000195706
0.000100291
9.44058e-05
0.000377148
0.000125868
0.000253559
0.000250627
0.000247641
0.000124286
9.4939e-05
0.000385593
0.000361314
0.00060651
0.00045148
0.000565848
0.000406587
0.00043578
0.000446176
0.000198344
0.000382774
0.00010314
0.000582441
0.00056634
0.000430323
0.000375356
0.000119609
0.000244246
0.000371041
0.00012068
0.000442087
0.000245303
0.000247055
0.000244781
0.000119948
0.000438785
0.000411184
0.000249735
0.00024328
0.000122257
0.000411993
0.000453487
0.000179867
0.000407095
9.66961e-05
0.000579945
0.000562264
0.000424875
0.000368288
0.000120991
0.000425543
0.000245061
0.000245438
0.000246835
0.000427861
0.000122125
0.000437147
0.00018396
0.000376909
0.000185494
0.000384082
0.000585264
0.000574568
9.66508e-05
0.000193668
0.000191381
0.000187188
0.000170472
0.00057025
0.000186188
0.000379135
0.000446441
9.52425e-05
0.000575814
0.000575119
0.000188301
0.000408949
9.98101e-05
0.000438419
0.000166939
0.000164
9.97283e-05
0.000563992
0.00016858
0.000369899
0.000435632
0.000180733
9.85283e-05
0.000245156
0.000245073
0.000369795
0.000423104
0.000366995
0.000177449
9.55207e-05
0.00037314
0.000197082
0.000110319
0.000540694
0.000580588
0.00017162
0.00036884
0.000102271
0.000463848
0.000372627
0.000446413
0.000122138
0.000246209
0.000430402
0.000417268
0.000392566
0.000175482
0.000575002
0.000573765
0.000208307
0.000383559
0.000168768
0.000171357
0.000386141
0.000191162
0.00010336
0.000390529
0.000184073
9.54524e-05
0.000568352
0.000575171
0.000378474
0.000183688
0.000371767
0.000189745
)
;
        value           nonuniform List<scalar> 
360
(
341.611
341.612
341.611
341.599
341.598
341.622
341.598
341.602
341.589
341.609
341.609
341.621
341.625
341.614
341.611
341.603
341.597
341.601
341.59
341.614
341.604
341.611
341.601
341.598
341.61
341.598
341.622
341.599
341.59
341.603
341.597
341.596
341.61
341.61
341.621
341.622
341.598
341.591
341.602
341.59
341.591
341.61
341.622
341.611
341.612
341.622
341.627
341.614
341.611
341.602
341.623
341.622
341.626
341.626
341.613
341.61
341.602
341.614
341.622
341.627
341.614
341.598
341.602
341.591
341.614
341.603
341.611
341.601
341.6
341.592
341.603
341.591
341.591
341.616
341.605
341.613
341.613
341.603
341.592
341.591
341.603
341.603
341.603
341.614
341.613
341.622
341.622
341.626
341.612
341.614
341.61
341.625
341.622
341.61
341.626
341.622
341.622
341.622
341.611
341.615
341.615
341.613
341.622
341.622
341.625
341.613
341.612
341.625
341.609
341.621
341.622
341.622
341.61
341.613
341.615
341.615
341.602
341.602
341.601
341.611
341.612
341.604
341.591
341.604
341.59
341.603
341.591
341.598
341.604
341.591
341.599
341.602
341.602
341.602
341.614
341.602
341.59
341.61
341.61
341.59
341.602
341.61
341.61
341.59
341.602
341.596
341.614
341.612
341.6
341.59
341.596
341.6
341.589
341.596
341.597
341.598
341.609
341.589
341.602
341.613
341.59
341.598
341.601
341.601
341.601
341.61
341.61
341.589
341.602
341.597
341.613
341.591
341.609
341.59
341.602
341.613
341.597
341.601
341.601
341.614
341.623
341.622
341.626
341.611
341.626
341.623
341.615
341.614
341.59
341.603
341.59
341.603
341.611
341.612
341.59
341.604
341.597
341.612
341.611
341.615
341.621
341.622
341.626
341.622
341.622
341.626
341.609
341.626
341.621
341.61
341.598
341.626
341.622
341.614
341.591
341.603
341.598
341.61
341.611
341.614
341.622
341.622
341.626
341.598
341.61
341.627
341.623
341.603
341.602
341.61
341.613
341.61
341.613
341.614
341.626
341.61
341.622
341.622
341.623
341.609
341.615
341.602
341.604
341.591
341.598
341.593
341.601
341.597
341.597
341.61
341.602
341.614
341.59
341.59
341.599
341.626
341.613
341.623
341.626
341.611
341.598
341.622
341.622
341.624
341.612
341.599
341.6
341.622
341.622
341.611
341.599
341.597
341.611
341.602
341.614
341.591
341.592
341.599
341.627
341.611
341.599
341.623
341.623
341.623
341.6
341.612
341.6
341.611
341.603
341.611
341.603
341.591
341.592
341.614
341.603
341.603
341.603
341.611
341.592
341.611
341.603
341.6
341.614
341.59
341.59
341.61
341.601
341.614
341.597
341.601
341.602
341.615
341.593
341.612
341.605
341.6
341.612
341.615
341.623
341.623
341.626
341.598
341.603
341.611
341.614
341.602
341.609
341.613
341.593
341.592
341.611
341.603
341.614
341.597
341.626
341.597
341.61
341.622
341.598
341.599
341.601
341.61
341.59
341.59
341.608
341.601
341.603
341.603
341.603
341.611
341.614
341.603
341.611
341.614
341.592
341.592
341.603
341.611
341.603
341.61
)
;
        Tnbr            T;
        thicknessLayers 0();
        kappaLayers     0();
        kappaMethod     solidThermo;
        kappa           none;
        alphaAni        none;
        alpha           none;
    }
}


// ************************************************************************* //
