/*--------------------------------*- C++ -*----------------------------------*\
| =========                 |                                                 |
| \\      /  F ield         | OpenFOAM: The Open Source CFD Toolbox           |
|  \\    /   O peration     | Version:  v1906                                 |
|   \\  /    A nd           | Web:      www.OpenFOAM.com                      |
|    \\/     M anipulation  |                                                 |
\*---------------------------------------------------------------------------*/
FoamFile
{
    version     2.0;
    format      ascii;
    class       volScalarField;
    location    "41.6/sphere";
    object      T;
}
// * * * * * * * * * * * * * * * * * * * * * * * * * * * * * * * * * * * * * //

dimensions      [0 0 0 1 0 0 0];


internalField   nonuniform List<scalar> 
304
(
476.878
476.907
476.904
476.92
476.879
476.875
476.876
476.906
476.876
477.026
477.026
476.92
476.904
477.025
477.025
476.95
476.917
476.949
476.876
476.905
476.921
476.876
476.907
477.027
477.026
476.951
476.921
477.025
477.025
476.976
476.873
476.948
476.976
476.91
476.877
476.922
476.951
476.883
476.882
476.951
476.976
476.911
476.877
476.91
476.863
476.865
476.878
476.878
476.88
476.914
476.878
476.878
476.914
476.881
476.865
476.879
476.883
476.88
476.914
476.907
476.907
476.921
476.922
476.952
476.951
476.977
476.877
476.922
476.907
476.952
476.921
476.977
476.952
476.879
476.882
476.914
476.88
476.876
476.876
476.91
476.875
476.92
476.87
476.902
476.949
476.976
476.915
476.948
476.906
476.903
476.873
476.976
476.95
476.949
476.917
476.912
476.877
476.875
476.861
476.873
476.875
476.909
476.874
476.91
476.876
476.874
476.861
476.879
476.876
476.877
476.912
476.906
476.92
476.952
476.905
476.921
476.951
476.978
476.877
476.952
476.921
476.921
476.906
476.977
476.951
476.88
476.877
476.913
476.878
476.921
476.906
476.951
476.906
476.951
476.922
476.977
476.876
476.951
476.907
476.951
476.907
476.977
476.922
476.949
476.872
476.916
476.921
476.976
476.903
476.948
476.905
476.917
476.873
476.976
476.921
476.949
476.904
476.877
476.874
476.91
476.875
476.948
476.875
476.904
476.949
476.976
476.904
476.92
476.917
476.904
476.874
476.976
476.948
476.92
476.904
476.909
476.873
476.874
476.876
476.878
476.913
476.882
476.921
476.951
476.977
476.876
476.905
476.921
476.951
476.905
476.977
476.95
476.905
476.874
476.95
476.918
476.912
476.877
476.878
476.952
476.922
476.978
476.88
476.923
476.908
476.953
476.906
476.977
476.922
476.921
476.878
476.951
476.907
476.977
476.904
476.949
476.907
476.951
476.874
476.918
476.921
476.949
476.904
476.95
476.905
476.917
476.873
476.909
476.875
476.877
476.976
476.904
476.92
476.918
476.949
476.875
476.905
476.949
476.921
476.905
476.95
476.919
476.905
476.877
476.875
476.875
476.878
476.869
476.876
476.881
476.912
476.877
476.912
476.879
476.876
476.864
476.885
476.881
476.916
476.881
476.951
476.952
476.977
476.88
476.907
476.908
476.922
476.92
476.977
476.951
476.906
476.876
476.921
476.906
476.914
476.879
476.878
476.914
476.878
476.878
476.977
476.917
476.949
476.905
476.92
476.872
476.904
476.949
476.949
476.918
476.92
476.904
476.904
476.873
476.876
476.876
476.875
476.863
476.91
476.875
476.874
476.878
476.876
476.874
)
;

boundaryField
{
    sphere_to_oil
    {
        type            compressible::turbulentTemperatureCoupledBaffleMixed;
        refValue        nonuniform List<scalar> 
360
(
340.559
340.559
319.371
362.669
371.379
321.567
372.502
372.502
372.502
346.276
346.276
323.351
326.378
316.459
344.074
362.434
358.357
358.357
358.357
318.671
356.79
334.231
335.272
365.733
315.522
366.217
320.072
365.958
365.958
365.958
373.316
364.774
319.391
319.072
323.116
323.283
359.31
359.31
359.31
358.566
367.289
323.094
323.141
340.754
340.754
319.934
325.735
313.035
338.765
366.62
321.608
321.6
325.937
326.333
318.452
334.213
359.256
318.744
323.211
326.981
316.068
367.275
367.275
367.275
313.056
365.806
338.694
326.405
371.187
371.187
371.187
371.849
370.258
315.829
356.833
343.395
317.164
334.012
367.215
359.404
336.286
325.453
335.663
315.952
319.349
321.345
323.497
326.21
316.84
318.84
319.411
325.867
323.149
319.671
325.669
323.154
323.514
323.519
320.055
314.651
314.728
317.652
321.545
323.18
325.87
317.489
316.469
326.374
319.962
323.617
323.579
323.483
320.078
318.568
313.354
313.305
329.971
326.303
331.38
340.29
340.29
362.669
362.669
365.733
365.733
363.621
363.621
363.621
365.245
365.245
365.245
330.613
326.455
329.964
318.433
371.379
371.379
342.737
342.737
373.316
373.316
341.091
341.091
372.493
372.493
372.493
318.325
317.676
362.904
362.904
362.904
362.867
362.867
362.867
362.434
356.79
344.074
362.434
361.254
317.421
361.254
361.254
335.326
336.059
325.682
334.019
334.019
368.824
368.824
368.824
316.089
356.79
334.231
367.769
367.769
316.019
367.769
335.966
325.598
313.118
320.026
320.307
326.16
315.417
325.754
320.285
313.132
314.564
366.217
366.217
364.774
364.774
340.846
340.846
362.777
362.777
362.777
338.86
338.86
314.54
322.782
321.77
326.053
322.96
321.373
326.016
319.858
326.423
323.588
319.859
358.566
326.42
323.793
318.722
368.176
368.176
368.176
335.149
335.149
315.905
323.301
323.247
326.882
367.289
322.99
326.748
323.382
358.566
367.289
335.122
318.681
335.122
316.331
313.323
325.668
315.492
320.215
320.103
320.351
315.307
314.235
367.255
361.458
367.255
367.255
361.458
361.458
366.62
365.806
338.765
364.284
314.6
366.62
364.284
364.284
325.474
318.991
323.109
325.815
319.618
371.849
322.933
323.482
323.591
320.053
359.256
356.833
323.625
323.386
320.001
358.72
361.537
334.213
367.702
316.244
359.256
367.702
367.702
327.336
322.988
367.215
323.287
323.166
323.111
367.477
322.731
367.19
335.175
358.72
335.175
367.477
358.72
367.477
313.008
326.29
329.299
329.618
339.45
362.827
339.45
362.827
362.827
314.531
365.806
363.932
338.694
363.932
314.538
363.932
330.695
330.263
317.118
369.934
341.745
369.934
369.934
341.745
317.437
321.331
322.952
325.874
370.258
371.849
341.465
318.115
370.258
341.465
317.53
356.833
362.467
343.395
362.467
316.496
362.467
326.48
359.404
320.137
323.716
361.384
359.007
361.537
343.386
361.537
361.384
343.386
361.384
325.027
335.504
367.215
334.304
316.034
359.404
334.304
318.905
367.19
359.007
367.19
335.095
359.007
335.095
)
;
        refGradient     uniform 0;
        valueFraction   nonuniform List<scalar> 
360
(
0.000133783
0.000128346
8.21683e-05
0.000293539
0.000301051
0.000172627
0.000302922
0.000260018
0.000404728
0.000128863
0.000125639
0.000168549
0.000256876
7.34459e-05
0.000131384
0.000255398
0.00029268
0.000273467
0.000383735
6.72071e-05
0.000251955
0.000123863
0.000114159
0.00030294
8.79549e-05
0.000311387
0.000175524
0.000307366
0.000402247
0.000269076
0.000307416
0.000310064
8.32586e-05
8.23285e-05
0.000172771
0.000170023
0.000287699
0.000390032
0.000267829
0.000402705
0.000397786
8.49386e-05
0.000168477
0.000122961
0.000122814
0.000173434
0.000259475
6.92266e-05
0.000123868
0.00026266
0.00017109
0.000172201
0.000256684
0.00025419
7.18145e-05
0.000131375
0.000267909
6.87963e-05
0.000170431
0.00025415
6.73393e-05
0.000299197
0.000264119
0.000413375
6.94245e-05
0.000270052
0.000125967
0.000121836
0.00030611
0.000399331
0.000268619
0.000385083
0.000390473
7.45757e-05
0.000260354
0.000132078
6.87567e-05
0.000123292
0.000389648
0.000404775
0.000120925
0.000118644
0.000116533
6.92574e-05
8.35172e-05
0.000169321
0.00017027
0.000257856
7.78362e-05
6.57212e-05
8.2655e-05
0.000257435
0.000169947
8.44328e-05
0.00025701
0.000171888
0.00017087
0.000171134
8.34525e-05
6.68918e-05
6.78302e-05
6.69273e-05
0.000172058
0.000169109
0.000257241
7.57349e-05
6.57837e-05
0.000257054
8.16612e-05
0.000169375
0.000169407
0.000172863
8.4528e-05
6.76861e-05
6.60114e-05
6.72867e-05
0.000117122
0.000117263
0.000121819
0.000132095
0.000124151
0.000256526
0.00040411
0.000270268
0.000407827
0.000261417
0.00040191
0.000299245
0.000261629
0.000393162
0.000294709
0.000120207
0.000113679
0.000116436
6.42768e-05
0.000266576
0.000401362
0.00012418
0.000124748
0.000405613
0.000269684
0.000130177
0.0001372
0.00040062
0.00027521
0.000317123
7.07405e-05
6.58317e-05
0.000277863
0.000385048
0.000305209
0.000286095
0.000398379
0.000305177
0.000315086
0.000290234
0.000135763
0.000404667
0.000261391
7.28762e-05
0.00039331
0.000294325
0.000112321
0.000118335
0.000117068
0.0001235
0.000129097
0.000402641
0.000265117
0.000311192
7.46145e-05
0.000387326
0.000132812
0.000407281
0.000260728
7.28822e-05
0.000309145
0.000113318
0.00011437
6.68218e-05
0.000175149
0.000175079
0.000258883
8.63295e-05
0.000259274
0.000170598
6.61357e-05
6.422e-05
0.000405145
0.000257425
0.000400389
0.000266944
0.000127331
0.000119079
0.000402257
0.000251406
0.000290601
0.000117705
0.000136574
6.87093e-05
0.00017207
0.000171914
0.000256854
0.00016818
0.000169046
0.000255842
8.76903e-05
0.000256719
0.000174065
8.52764e-05
0.000288954
0.000256435
0.000173023
6.89542e-05
0.000393467
0.000255078
0.000298443
0.000124336
0.000115545
6.6742e-05
0.000170732
0.000173603
0.000257401
0.00029265
8.18486e-05
0.000254958
0.000166513
0.000253272
0.000268124
0.000121711
6.8363e-05
0.000135057
6.92082e-05
6.51463e-05
0.000260274
8.68587e-05
0.000174978
0.000172955
0.000170893
8.57669e-05
6.5514e-05
0.000266117
0.000249358
0.000418616
0.000311597
0.000390545
0.000280606
0.00030076
0.000307936
0.000136877
0.000264171
7.11736e-05
0.000402002
0.000390887
0.000296991
0.000259037
8.25384e-05
0.000168549
0.000256059
8.32776e-05
0.00030511
0.000169279
0.000170489
0.000168919
8.27734e-05
0.000302836
0.000283784
0.000172339
0.000167883
8.43672e-05
0.000284342
0.000312986
0.000124125
0.000280959
6.67271e-05
0.000400282
0.000388073
0.000293232
0.000254159
8.34926e-05
0.000293693
0.000169113
0.000169373
0.000170337
0.000295292
8.4275e-05
0.000301702
0.00012695
0.000260125
0.000128009
0.000265074
0.000403954
0.000396567
6.66956e-05
0.000133652
0.000132073
0.000129179
0.000117641
0.000393585
0.000128487
0.000261659
0.000308117
6.57236e-05
0.000397427
0.000396947
0.000129946
0.000282239
6.88757e-05
0.000302581
0.000115205
0.000113176
6.88188e-05
0.000389259
0.000116334
0.000255281
0.000300654
0.000124721
6.79906e-05
0.000169178
0.00016912
0.000255198
0.000292008
0.000253277
0.000122455
6.59152e-05
0.000257519
0.000136005
7.61274e-05
0.000373185
0.000400725
0.000118432
0.000254552
7.05742e-05
0.000320138
0.000257154
0.000308103
8.42847e-05
0.000169906
0.00029705
0.000287984
0.00027093
0.000121098
0.00039687
0.000396016
0.000143753
0.000264714
0.000116468
0.000118254
0.000266495
0.000131921
7.1326e-05
0.000269526
0.000127028
6.58688e-05
0.000392276
0.000396986
0.000261203
0.000126762
0.000256575
0.000130943
)
;
        value           nonuniform List<scalar> 
360
(
476.88
476.881
476.885
476.864
476.866
476.899
476.866
476.872
476.86
476.879
476.879
476.898
476.901
476.887
476.881
476.869
476.855
476.861
476.849
476.884
476.865
476.877
476.864
476.862
476.882
476.861
476.898
476.863
476.855
476.867
476.864
476.861
476.883
476.883
476.897
476.899
476.857
476.851
476.862
476.849
476.853
476.881
476.898
476.879
476.881
476.897
476.902
476.885
476.879
476.867
476.9
476.899
476.902
476.902
476.881
476.874
476.861
476.884
476.898
476.902
476.884
476.863
476.867
476.855
476.886
476.867
476.88
476.865
476.867
476.863
476.872
476.862
476.861
476.889
476.87
476.884
476.885
476.866
476.854
476.849
476.866
476.865
476.867
476.884
476.887
476.899
476.899
476.901
476.882
476.883
476.884
476.902
476.901
476.882
476.902
476.899
476.898
476.897
476.879
476.887
476.887
476.889
476.9
476.9
476.902
476.887
476.885
476.901
476.877
476.896
476.9
476.897
476.88
476.883
476.887
476.887
476.868
476.867
476.867
476.88
476.881
476.869
476.854
476.868
476.855
476.869
476.855
476.863
476.869
476.856
476.864
476.868
476.868
476.868
476.889
476.871
476.86
476.883
476.883
476.861
476.872
476.881
476.881
476.86
476.871
476.863
476.888
476.885
476.864
476.85
476.855
476.863
476.849
476.856
476.857
476.858
476.879
476.849
476.867
476.885
476.85
476.858
476.865
476.864
476.863
476.876
476.876
476.851
476.866
476.861
476.882
476.849
476.875
476.851
476.865
476.882
476.86
476.864
476.863
476.885
476.898
476.897
476.902
476.883
476.902
476.899
476.886
476.887
476.854
476.868
476.854
476.867
476.879
476.881
476.854
476.869
476.863
476.881
476.879
476.887
476.9
476.899
476.903
476.901
476.9
476.903
476.878
476.902
476.896
476.879
476.858
476.902
476.897
476.883
476.854
476.867
476.862
476.876
476.878
476.884
476.898
476.897
476.901
476.862
476.881
476.902
476.898
476.863
476.864
476.876
476.882
476.874
476.883
476.885
476.901
476.881
476.897
476.897
476.898
476.879
476.887
476.867
476.869
476.856
476.861
476.857
476.867
476.86
476.859
476.878
476.867
476.885
476.853
476.854
476.864
476.903
476.887
476.902
476.903
476.885
476.866
476.9
476.897
476.901
476.881
476.858
476.86
476.897
476.899
476.879
476.859
476.857
476.877
476.864
476.884
476.85
476.855
476.863
476.902
476.882
476.862
476.899
476.899
476.899
476.865
476.884
476.864
476.877
476.864
476.877
476.866
476.85
476.854
476.885
476.868
476.869
476.869
476.88
476.856
476.879
476.867
476.865
476.886
476.854
476.853
476.878
476.864
476.885
476.861
476.867
476.867
476.889
476.863
476.885
476.873
476.868
476.884
476.89
476.9
476.902
476.903
476.864
476.873
476.883
476.889
476.87
476.879
476.886
476.853
476.852
476.881
476.868
476.886
476.855
476.902
476.856
476.879
476.897
476.858
476.859
476.865
476.88
476.85
476.85
476.876
476.864
476.866
476.866
476.866
476.876
476.884
476.862
476.876
476.884
476.855
476.851
476.867
476.877
476.864
476.875
)
;
        Tnbr            T;
        thicknessLayers 0();
        kappaLayers     0();
        kappaMethod     solidThermo;
        kappa           none;
        alphaAni        none;
    }
}


// ************************************************************************* //
