/*--------------------------------*- C++ -*----------------------------------*\
| =========                 |                                                 |
| \\      /  F ield         | OpenFOAM: The Open Source CFD Toolbox           |
|  \\    /   O peration     | Version:  v1906                                 |
|   \\  /    A nd           | Web:      www.OpenFOAM.com                      |
|    \\/     M anipulation  |                                                 |
\*---------------------------------------------------------------------------*/
FoamFile
{
    version     2.0;
    format      ascii;
    class       volVectorField;
    location    "53/oil";
    object      U;
}
// * * * * * * * * * * * * * * * * * * * * * * * * * * * * * * * * * * * * * //

dimensions      [0 1 -1 0 0 0 0];


internalField   nonuniform List<vector> 
27760
(
(-2.56738e-05 -2.61761e-05 -2.56737e-05)
(-5.06838e-05 -1.96379e-05 -1.84904e-05)
(-3.7138e-06 -5.09638e-06 -5.05101e-06)
(-6.07358e-06 -8.35683e-07 -9.13068e-07)
(-1.32113e-06 -2.71277e-07 -3.61298e-07)
(-5.82853e-07 -1.16751e-07 -2.1333e-07)
(8.02648e-08 -2.35403e-08 -1.27143e-07)
(4.02712e-07 1.60946e-08 -9.37129e-08)
(5.81517e-07 3.84075e-08 -7.60145e-08)
(6.5468e-07 5.2181e-08 -6.5296e-08)
(6.48358e-07 6.20671e-08 -5.70407e-08)
(5.76117e-07 6.92884e-08 -5.04437e-08)
(4.49655e-07 7.46865e-08 -4.51565e-08)
(2.82055e-07 7.83722e-08 -4.13641e-08)
(8.81817e-08 8.03101e-08 -3.9319e-08)
(-1.15572e-07 8.04719e-08 -3.91602e-08)
(-3.12451e-07 7.89036e-08 -4.08419e-08)
(-4.86736e-07 7.57467e-08 -4.41074e-08)
(-6.25188e-07 7.12347e-08 -4.85031e-08)
(-7.18134e-07 6.56575e-08 -5.3419e-08)
(-7.60218e-07 5.92486e-08 -5.81984e-08)
(-7.50984e-07 5.21476e-08 -6.2125e-08)
(-6.94173e-07 4.48593e-08 -6.4195e-08)
(-5.97564e-07 3.74176e-08 -6.39478e-08)
(-4.72869e-07 3.00107e-08 -6.07537e-08)
(-3.34672e-07 2.29521e-08 -5.41934e-08)
(-1.9994e-07 1.68874e-08 -4.4304e-08)
(-8.71645e-08 1.30161e-08 -3.1923e-08)
(-1.32781e-08 1.29848e-08 -1.94772e-08)
(7.47669e-09 1.46256e-08 -7.39442e-09)
(-1.86275e-05 -5.20816e-05 -1.86275e-05)
(-6.11415e-06 -6.74755e-06 -8.34156e-06)
(-8.26672e-06 -8.16174e-06 -2.91576e-06)
(-3.79594e-06 -2.34495e-06 -8.35189e-07)
(-1.42629e-06 -1.41211e-06 -4.15887e-07)
(-2.9148e-07 -7.52336e-07 -2.05178e-07)
(5.17813e-07 -4.63459e-07 -1.01663e-07)
(9.97385e-07 -3.01911e-07 -5.0625e-08)
(1.27526e-06 -2.02149e-07 -1.96396e-08)
(1.38518e-06 -1.30816e-07 2.02099e-09)
(1.3517e-06 -7.47675e-08 1.93913e-08)
(1.19235e-06 -2.96141e-08 3.39422e-08)
(9.2684e-07 5.67251e-09 4.5613e-08)
(5.79365e-07 3.04209e-08 5.39261e-08)
(1.79228e-07 4.36987e-08 5.83791e-08)
(-2.40769e-07 4.50044e-08 5.86872e-08)
(-6.46864e-07 3.46215e-08 5.4928e-08)
(-1.00734e-06 1.37314e-08 4.75788e-08)
(-1.29542e-06 -1.56686e-08 3.74743e-08)
(-1.49169e-06 -5.09862e-08 2.5716e-08)
(-1.58554e-06 -8.93491e-08 1.35764e-08)
(-1.57561e-06 -1.27858e-07 2.42116e-09)
(-1.46959e-06 -1.63348e-07 -6.62913e-09)
(-1.28356e-06 -1.93056e-07 -1.26172e-08)
(-1.04045e-06 -2.13809e-07 -1.48065e-08)
(-7.68537e-07 -2.21786e-07 -1.29183e-08)
(-4.99441e-07 -2.11912e-07 -7.41569e-09)
(-2.65188e-07 -1.77804e-07 5.12385e-11)
(-9.38165e-08 -1.12956e-07 5.79708e-09)
(-5.42786e-09 -2.59884e-08 5.55235e-09)
(-5.15376e-06 -4.88e-06 -5.15368e-06)
(-8.11461e-06 -9.14918e-06 -2.9789e-06)
(-4.22407e-06 -5.14875e-06 -1.30976e-06)
(-2.45453e-06 -2.95605e-06 -6.13461e-07)
(-8.13396e-07 -2.0476e-06 -2.8213e-07)
(2.21583e-07 -1.47568e-06 -1.18868e-07)
(9.86213e-07 -1.16584e-06 -3.25211e-08)
(1.48547e-06 -9.64017e-07 1.60821e-08)
(1.78062e-06 -8.17668e-07 4.89442e-08)
(1.88749e-06 -6.99099e-07 7.42525e-08)
(1.82123e-06 -5.98036e-07 9.56564e-08)
(1.59718e-06 -5.12114e-07 1.1396e-07)
(1.23734e-06 -4.43046e-07 1.28804e-07)
(7.71712e-07 -3.93816e-07 1.39419e-07)
(2.37811e-07 -3.67149e-07 1.451e-07)
(-3.21769e-07 -3.64439e-07 1.45457e-07)
(-8.62941e-07 -3.85187e-07 1.40567e-07)
(-1.34422e-06 -4.2684e-07 1.31007e-07)
(-1.7306e-06 -4.84995e-07 1.17792e-07)
(-1.99672e-06 -5.53863e-07 1.02263e-07)
(-2.12877e-06 -6.26836e-07 8.59015e-08)
(-2.12516e-06 -6.9693e-07 7.02104e-08)
(-1.99601e-06 -7.572e-07 5.64869e-08)
(-1.76194e-06 -8.00556e-07 4.57668e-08)
(-1.45193e-06 -8.19332e-07 3.86795e-08)
(-1.10104e-06 -8.04684e-07 3.52939e-08)
(-7.47443e-07 -7.4571e-07 3.48513e-08)
(-4.28087e-07 -6.29274e-07 3.52266e-08)
(-1.76595e-07 -4.40276e-07 3.22378e-08)
(-1.79502e-08 -1.72558e-07 1.81078e-08)
(-9.28643e-07 -7.06134e-06 -9.28549e-07)
(-2.13112e-06 -5.39309e-06 -8.37065e-07)
(-1.76314e-06 -4.48479e-06 -6.00788e-07)
(-9.57016e-07 -3.38836e-06 -3.05824e-07)
(3.3461e-08 -2.79083e-06 -1.31703e-07)
(8.26984e-07 -2.37872e-06 -3.12995e-08)
(1.47198e-06 -2.11096e-06 3.03688e-08)
(1.9285e-06 -1.90592e-06 7.10615e-08)
(2.20106e-06 -1.73344e-06 1.02337e-07)
(2.28434e-06 -1.57783e-06 1.28828e-07)
(2.18125e-06 -1.43572e-06 1.5241e-07)
(1.90241e-06 -1.30995e-06 1.73076e-07)
(1.46941e-06 -1.20639e-06 1.90033e-07)
(9.15158e-07 -1.13159e-06 2.02222e-07)
(2.8233e-07 -1.0908e-06 2.08741e-07)
(-3.79837e-07 -1.08673e-06 2.09103e-07)
(-1.02008e-06 -1.11874e-06 2.03375e-07)
(-1.59007e-06 -1.18265e-06 1.92203e-07)
(-2.04908e-06 -1.27119e-06 1.76739e-07)
(-2.36773e-06 -1.37467e-06 1.5849e-07)
(-2.53014e-06 -1.48202e-06 1.391e-07)
(-2.53468e-06 -1.58153e-06 1.20176e-07)
(-2.39306e-06 -1.66131e-06 1.03103e-07)
(-2.12872e-06 -1.70927e-06 8.89294e-08)
(-1.77415e-06 -1.71256e-06 7.82167e-08)
(-1.36793e-06 -1.65669e-06 7.09227e-08)
(-9.51547e-07 -1.52428e-06 6.6165e-08)
(-5.64532e-07 -1.29372e-06 6.1533e-08)
(-2.45791e-07 -9.35534e-07 5.246e-08)
(-2.78752e-08 -4.07256e-07 2.80728e-08)
(-3.0447e-07 -2.54955e-06 -3.04354e-07)
(-1.0055e-06 -3.84556e-06 -3.64643e-07)
(-6.41719e-07 -4.05197e-06 -2.48692e-07)
(-5.98515e-08 -3.81123e-06 -1.18391e-07)
(6.67124e-07 -3.60703e-06 -2.66859e-08)
(1.3283e-06 -3.40632e-06 3.44305e-08)
(1.89317e-06 -3.22902e-06 7.80626e-08)
(2.30949e-06 -3.05454e-06 1.1183e-07)
(2.55514e-06 -2.87811e-06 1.41264e-07)
(2.61205e-06 -2.69963e-06 1.68412e-07)
(2.47448e-06 -2.52531e-06 1.93718e-07)
(2.14898e-06 -2.36499e-06 2.16448e-07)
(1.65628e-06 -2.23006e-06 2.35331e-07)
(1.031e-06 -2.13142e-06 2.4899e-07)
(3.19559e-07 -2.07741e-06 2.56294e-07)
(-4.23732e-07 -2.07227e-06 2.56636e-07)
(-1.14204e-06 -2.11532e-06 2.50071e-07)
(-1.78169e-06 -2.20078e-06 2.3732e-07)
(-2.29757e-06 -2.31825e-06 2.19706e-07)
(-2.65733e-06 -2.45395e-06 1.98911e-07)
(-2.84376e-06 -2.592e-06 1.76773e-07)
(-2.85535e-06 -2.71564e-06 1.55046e-07)
(-2.70511e-06 -2.80778e-06 1.35196e-07)
(-2.41845e-06 -2.85116e-06 1.18298e-07)
(-2.03015e-06 -2.82758e-06 1.04895e-07)
(-1.58097e-06 -2.71665e-06 9.48815e-08)
(-1.11453e-06 -2.49369e-06 8.73073e-08)
(-6.72525e-07 -2.12628e-06 7.95452e-08)
(-2.99196e-07 -1.56428e-06 6.6645e-08)
(-3.50468e-08 -7.11638e-07 3.52886e-08)
(-1.25704e-07 -2.19464e-06 -1.25565e-07)
(-2.53459e-07 -3.6662e-06 -1.27728e-07)
(5.71844e-08 -4.32491e-06 -7.27956e-08)
(5.43738e-07 -4.54432e-06 -1.11085e-08)
(1.14496e-06 -4.61748e-06 3.93993e-08)
(1.72955e-06 -4.5904e-06 7.85074e-08)
(2.24266e-06 -4.5051e-06 1.11361e-07)
(2.62814e-06 -4.37252e-06 1.41027e-07)
(2.85059e-06 -4.20525e-06 1.69812e-07)
(2.88415e-06 -4.0157e-06 1.98178e-07)
(2.71709e-06 -3.81893e-06 2.25595e-07)
(2.35278e-06 -3.63167e-06 2.50723e-07)
(1.811e-06 -3.471e-06 2.71836e-07)
(1.12755e-06 -3.35227e-06 2.87195e-07)
(3.51899e-07 -3.28703e-06 2.95404e-07)
(-4.57475e-07 -3.2812e-06 2.95719e-07)
(-1.23906e-06 -3.33411e-06 2.88177e-07)
(-1.93474e-06 -3.4384e-06 2.73605e-07)
(-2.4958e-06 -3.58071e-06 2.53535e-07)
(-2.88761e-06 -3.74318e-06 2.29904e-07)
(-3.09217e-06 -3.90535e-06 2.04805e-07)
(-3.10831e-06 -4.04545e-06 1.80176e-07)
(-2.95031e-06 -4.14141e-06 1.57603e-07)
(-2.64528e-06 -4.17095e-06 1.38227e-07)
(-2.2297e-06 -4.11054e-06 1.22597e-07)
(-1.74598e-06 -3.93367e-06 1.10572e-07)
(-1.23944e-06 -3.60745e-06 1.0114e-07)
(-7.539e-07 -3.08616e-06 9.14795e-08)
(-3.38324e-07 -2.29349e-06 7.62544e-08)
(-4.00241e-08 -1.06749e-06 4.03115e-08)
(-2.57011e-08 -2.006e-06 -2.55397e-08)
(7.04642e-08 -3.87612e-06 -1.29129e-08)
(4.23282e-07 -4.91393e-06 1.71676e-08)
(9.06252e-07 -5.4713e-06 4.96106e-08)
(1.46822e-06 -5.7732e-06 7.98302e-08)
(2.02147e-06 -5.89999e-06 1.0736e-07)
(2.50913e-06 -5.90743e-06 1.34485e-07)
(2.87671e-06 -5.82569e-06 1.62349e-07)
(3.08366e-06 -5.67981e-06 1.91637e-07)
(3.10008e-06 -5.49196e-06 2.21901e-07)
(2.91056e-06 -5.28466e-06 2.51935e-07)
(2.5161e-06 -5.08087e-06 2.79903e-07)
(1.9357e-06 -4.90269e-06 3.03624e-07)
(1.20613e-06 -4.76967e-06 3.20959e-07)
(3.79341e-07 -4.69635e-06 3.30215e-07)
(-4.82602e-07 -4.69021e-06 3.305e-07)
(-1.31426e-06 -4.75066e-06 3.21839e-07)
(-2.05372e-06 -4.86897e-06 3.05172e-07)
(-2.64932e-06 -5.02912e-06 2.82285e-07)
(-3.06474e-06 -5.20967e-06 2.55448e-07)
(-3.28158e-06 -5.38596e-06 2.2705e-07)
(-3.29935e-06 -5.53187e-06 1.9927e-07)
(-3.13369e-06 -5.62089e-06 1.73869e-07)
(-2.81323e-06 -5.62613e-06 1.52051e-07)
(-2.37594e-06 -5.51891e-06 1.34394e-07)
(-1.86552e-06 -5.26639e-06 1.20719e-07)
(-1.32871e-06 -4.82658e-06 1.09955e-07)
(-8.11063e-07 -4.13834e-06 9.91102e-08)
(-3.65166e-07 -3.09482e-06 8.24825e-08)
(-4.33069e-08 -1.45969e-06 4.36402e-08)
(1.32257e-08 -2.17596e-06 1.34065e-08)
(2.30956e-07 -4.41595e-06 3.89731e-08)
(6.25092e-07 -5.75342e-06 6.1106e-08)
(1.1231e-06 -6.56449e-06 8.19664e-08)
(1.67543e-06 -7.05256e-06 1.03026e-07)
(2.2165e-06 -7.31352e-06 1.25214e-07)
(2.69183e-06 -7.4112e-06 1.49934e-07)
(3.04947e-06 -7.38696e-06 1.77668e-07)
(3.24709e-06 -7.27398e-06 2.08342e-07)
(3.25268e-06 -7.10139e-06 2.41024e-07)
(3.04843e-06 -6.89736e-06 2.74055e-07)
(2.63353e-06 -6.68958e-06 3.0515e-07)
(2.02623e-06 -6.50436e-06 3.31708e-07)
(1.2639e-06 -6.36462e-06 3.51193e-07)
(4.005e-07 -6.28732e-06 3.61584e-07)
(-4.99084e-07 -6.28122e-06 3.61837e-07)
(-1.36631e-06 -6.34583e-06 3.51963e-07)
(-2.13627e-06 -6.47139e-06 3.3304e-07)
(-2.755e-06 -6.63977e-06 3.07142e-07)
(-3.1851e-06 -6.82664e-06 2.76889e-07)
(-3.40826e-06 -7.00412e-06 2.45e-07)
(-3.42493e-06 -7.1425e-06 2.13945e-07)
(-3.25215e-06 -7.21165e-06 1.85679e-07)
(-2.91989e-06 -7.18059e-06 1.61472e-07)
(-2.46739e-06 -7.01602e-06 1.41926e-07)
(-1.93922e-06 -6.67857e-06 1.26819e-07)
(-1.38298e-06 -6.1164e-06 1.15034e-07)
(-8.45313e-07 -5.25141e-06 1.0343e-07)
(-3.80974e-07 -3.94317e-06 8.60271e-08)
(-4.51996e-08 -1.8754e-06 4.55771e-08)
(3.0792e-08 -2.47207e-06 3.0991e-08)
(3.05958e-07 -5.10699e-06 6.35195e-08)
(7.26956e-07 -6.72446e-06 8.25328e-08)
(1.23693e-06 -7.75542e-06 9.84603e-08)
(1.78613e-06 -8.40908e-06 1.15394e-07)
(2.32e-06 -8.79475e-06 1.35284e-07)
(2.78699e-06 -8.98367e-06 1.59296e-07)
(3.13774e-06 -9.02489e-06 1.87707e-07)
(3.32975e-06 -8.95726e-06 2.20103e-07)
(3.32998e-06 -8.81456e-06 2.55265e-07)
(3.11908e-06 -8.62894e-06 2.91233e-07)
(2.69474e-06 -8.43145e-06 3.25366e-07)
(2.07435e-06 -8.25117e-06 3.54677e-07)
(1.29544e-06 -8.11335e-06 3.76239e-07)
(4.13144e-07 -8.03672e-06 3.877e-07)
(-5.05859e-07 -8.03093e-06 3.87922e-07)
(-1.39103e-06 -8.09558e-06 3.7691e-07)
(-2.17555e-06 -8.22025e-06 3.55821e-07)
(-2.80413e-06 -8.38546e-06 3.27019e-07)
(-3.23897e-06 -8.56491e-06 2.93498e-07)
(-3.46221e-06 -8.72842e-06 2.58322e-07)
(-3.4755e-06 -8.84398e-06 2.24217e-07)
(-3.29721e-06 -8.87873e-06 1.93295e-07)
(-2.95842e-06 -8.79848e-06 1.66922e-07)
(-2.49908e-06 -8.56568e-06 1.45707e-07)
(-1.96403e-06 -8.13458e-06 1.29412e-07)
(-1.40092e-06 -7.44316e-06 1.16854e-07)
(-8.56511e-07 -6.39516e-06 1.04801e-07)
(-3.86108e-07 -4.81478e-06 8.71431e-08)
(-4.58236e-08 -2.3027e-06 4.62431e-08)
(3.77269e-08 -2.83028e-06 3.79424e-08)
(3.35423e-07 -5.87185e-06 7.34308e-08)
(7.64489e-07 -7.7586e-06 9.10748e-08)
(1.27349e-06 -8.99071e-06 1.04882e-07)
(1.81294e-06 -9.79786e-06 1.20001e-07)
(2.33449e-06 -1.03035e-05 1.38976e-07)
(2.7897e-06 -1.05863e-05 1.62956e-07)
(3.1317e-06 -1.07014e-05 1.92148e-07)
(3.31886e-06 -1.06917e-05 2.26048e-07)
(3.31798e-06 -1.05939e-05 2.6327e-07)
(3.10866e-06 -1.04423e-05 3.01644e-07)
(2.68727e-06 -1.02697e-05 3.38266e-07)
(2.07015e-06 -1.01066e-05 3.69811e-07)
(1.29421e-06 -9.97972e-06 3.9304e-07)
(4.14688e-07 -9.90855e-06 4.05361e-07)
(-5.0127e-07 -9.90327e-06 4.05551e-07)
(-1.38284e-06 -9.96361e-06 3.93609e-07)
(-2.1627e-06 -1.00788e-05 3.70758e-07)
(-2.78532e-06 -1.02286e-05 3.39609e-07)
(-3.21342e-06 -1.0386e-05 3.03447e-07)
(-3.43015e-06 -1.05197e-05 2.65601e-07)
(-3.43842e-06 -1.05965e-05 2.29061e-07)
(-3.25764e-06 -1.0582e-05 1.96068e-07)
(-2.91953e-06 -1.04398e-05 1.68049e-07)
(-2.46392e-06 -1.01285e-05 1.45599e-07)
(-1.93511e-06 -9.59639e-06 1.28453e-07)
(-1.37973e-06 -8.77114e-06 1.15422e-07)
(-8.4335e-07 -7.53805e-06 1.03251e-07)
(-3.80155e-07 -5.6853e-06 8.58195e-08)
(-4.51608e-08 -2.72968e-06 4.56208e-08)
(3.93157e-08 -3.20573e-06 3.95396e-08)
(3.36282e-07 -6.65086e-06 7.512e-08)
(7.54251e-07 -8.79633e-06 9.16534e-08)
(1.24512e-06 -1.02168e-05 1.04264e-07)
(1.76131e-06 -1.11693e-05 1.18401e-07)
(2.25922e-06 -1.17922e-05 1.3682e-07)
(2.69388e-06 -1.21723e-05 1.60672e-07)
(3.02141e-06 -1.23693e-05 1.9019e-07)
(3.20195e-06 -1.2429e-05 2.24812e-07)
(3.20291e-06 -1.23898e-05 2.63109e-07)
(3.00341e-06 -1.22865e-05 3.02791e-07)
(2.59873e-06 -1.21523e-05 3.40791e-07)
(2.00371e-06 -1.2018e-05 3.73597e-07)
(1.25373e-06 -1.19103e-05 3.9776e-07)
(4.02697e-07 -1.18489e-05 4.10517e-07)
(-4.83626e-07 -1.18442e-05 4.10677e-07)
(-1.33598e-06 -1.1896e-05 3.98236e-07)
(-2.08841e-06 -1.19937e-05 3.74378e-07)
(-2.68675e-06 -1.21168e-05 3.41859e-07)
(-3.09524e-06 -1.22386e-05 3.04157e-07)
(-3.2985e-06 -1.23277e-05 2.64835e-07)
(-3.30062e-06 -1.23508e-05 2.26984e-07)
(-3.12174e-06 -1.22734e-05 1.9291e-07)
(-2.79338e-06 -1.20577e-05 1.64072e-07)
(-2.35432e-06 -1.16594e-05 1.41063e-07)
(-1.84706e-06 -1.10215e-05 1.236e-07)
(-1.31592e-06 -1.00614e-05 1.10475e-07)
(-8.03989e-07 -8.64635e-06 9.85458e-08)
(-3.62408e-07 -6.52895e-06 8.1893e-08)
(-4.31209e-08 -3.14381e-06 4.36207e-08)
(3.75764e-08 -3.57082e-06 3.7815e-08)
(3.1617e-07 -7.39921e-06 7.13007e-08)
(7.04255e-07 -9.78683e-06 8.64393e-08)
(1.15801e-06 -1.13822e-05 9.79811e-08)
(1.63377e-06 -1.24716e-05 1.11195e-07)
(2.09278e-06 -1.32086e-05 1.28849e-07)
(2.49452e-06 -1.36877e-05 1.52041e-07)
(2.79906e-06 -1.39728e-05 1.81019e-07)
(2.96923e-06 -1.41113e-05 2.15229e-07)
(2.97401e-06 -1.41418e-05 2.53268e-07)
(2.79276e-06 -1.40988e-05 2.92842e-07)
(2.41969e-06 -1.40143e-05 3.30841e-07)
(1.86763e-06 -1.39183e-05 3.63691e-07)
(1.16927e-06 -1.38365e-05 3.879e-07)
(3.75409e-07 -1.37884e-05 4.00621e-07)
(-4.51567e-07 -1.37844e-05 4.00746e-07)
(-1.24612e-06 -1.38244e-05 3.88256e-07)
(-1.94576e-06 -1.38976e-05 3.64265e-07)
(-2.49936e-06 -1.39845e-05 3.31626e-07)
(-2.87389e-06 -1.40588e-05 2.93827e-07)
(-3.05617e-06 -1.40906e-05 2.54494e-07)
(-3.05148e-06 -1.4048e-05 2.16737e-07)
(-2.87998e-06 -1.38967e-05 1.82861e-07)
(-2.57196e-06 -1.35989e-05 1.54288e-07)
(-2.16398e-06 -1.31083e-05 1.31571e-07)
(-1.69535e-06 -1.23631e-05 1.14432e-07)
(-1.20657e-06 -1.12715e-05 1.01715e-07)
(-7.36717e-07 -9.6835e-06 9.04726e-08)
(-3.32089e-07 -7.31799e-06 7.51766e-08)
(-3.95954e-08 -3.53152e-06 4.01318e-08)
(3.3444e-08 -3.904e-06 3.36806e-08)
(2.78691e-07 -8.07805e-06 6.32032e-08)
(6.18653e-07 -1.06829e-05 7.64083e-08)
(1.01566e-06 -1.24357e-05 8.66541e-08)
(1.43203e-06 -1.36509e-05 9.86668e-08)
(1.83484e-06 -1.44962e-05 1.1499e-07)
(2.1892e-06 -1.50732e-05 1.36657e-07)
(2.46032e-06 -1.54491e-05 1.63913e-07)
(2.61502e-06 -1.56722e-05 1.96253e-07)
(2.62493e-06 -1.57804e-05 2.32368e-07)
(2.47028e-06 -1.58063e-05 2.70089e-07)
(2.14436e-06 -1.57798e-05 3.0646e-07)
(1.65738e-06 -1.57288e-05 3.37943e-07)
(1.03794e-06 -1.56778e-05 3.61161e-07)
(3.31759e-07 -1.56456e-05 3.73322e-07)
(-4.04351e-07 -1.56422e-05 3.73397e-07)
(-1.11067e-06 -1.56677e-05 3.61388e-07)
(-1.73031e-06 -1.57117e-05 3.38306e-07)
(-2.21732e-06 -1.5755e-05 3.06946e-07)
(-2.54285e-06 -1.57734e-05 2.70712e-07)
(-2.69648e-06 -1.57389e-05 2.33135e-07)
(-2.68461e-06 -1.56216e-05 1.97186e-07)
(-2.52665e-06 -1.53894e-05 1.65072e-07)
(-2.25058e-06 -1.50049e-05 1.38071e-07)
(-1.88927e-06 -1.44207e-05 1.16699e-07)
(-1.47732e-06 -1.35711e-05 1.00668e-07)
(-1.0499e-06 -1.23565e-05 8.89241e-08)
(-6.40508e-07 -1.0611e-05 7.88318e-08)
(-2.88727e-07 -8.0232e-06 6.55147e-08)
(-3.45224e-08 -3.87855e-06 3.50969e-08)
(2.73163e-08 -4.18709e-06 2.75634e-08)
(2.2589e-07 -8.65253e-06 5.15005e-08)
(5.00494e-07 -1.14404e-05 6.21881e-08)
(8.21562e-07 -1.33273e-05 7.07275e-08)
(1.15931e-06 -1.46528e-05 8.10687e-08)
(1.48798e-06 -1.55968e-05 9.53676e-08)
(1.7797e-06 -1.62668e-05 1.14498e-07)
(2.00613e-06 -1.67326e-05 1.38752e-07)
(2.13958e-06 -1.70425e-05 1.67756e-07)
(2.15539e-06 -1.72325e-05 2.00402e-07)
(2.03559e-06 -1.73327e-05 2.34755e-07)
(1.77255e-06 -1.737e-05 2.68133e-07)
(1.37304e-06 -1.73693e-05 2.97219e-07)
(8.5996e-07 -1.73529e-05 3.18849e-07)
(2.71872e-07 -1.73383e-05 3.30231e-07)
(-3.42081e-07 -1.73355e-05 3.30256e-07)
(-9.29809e-07 -1.73445e-05 3.18927e-07)
(-1.44213e-06 -1.73552e-05 2.97349e-07)
(-1.8404e-06 -1.73497e-05 2.68309e-07)
(-2.10162e-06 -1.7306e-05 2.35007e-07)
(-2.21884e-06 -1.71991e-05 2.00775e-07)
(-2.1995e-06 -1.70023e-05 1.68252e-07)
(-2.06153e-06 -1.6686e-05 1.39393e-07)
(-1.82933e-06 -1.62144e-05 1.153e-07)
(-1.53052e-06 -1.554e-05 9.63482e-08)
(-1.19348e-06 -1.45942e-05 8.22427e-08)
(-8.46381e-07 -1.32704e-05 7.20862e-08)
(-5.15638e-07 -1.139e-05 6.36643e-08)
(-2.32402e-07 -8.61507e-06 5.29276e-08)
(-2.78837e-08 -4.17038e-06 2.84896e-08)
(1.94827e-08 -4.40388e-06 1.97246e-08)
(1.59586e-07 -9.0907e-06 3.66222e-08)
(3.53132e-07 -1.20182e-05 4.41873e-08)
(5.80377e-07 -1.40101e-05 5.05615e-08)
(8.2126e-07 -1.54254e-05 5.86497e-08)
(1.05837e-06 -1.64538e-05 7.00807e-08)
(1.27229e-06 -1.72074e-05 8.56032e-08)
(1.44258e-06 -1.77576e-05 1.05503e-07)
(1.54841e-06 -1.81519e-05 1.29539e-07)
(1.57019e-06 -1.84242e-05 1.56926e-07)
(1.49245e-06 -1.86012e-05 1.86123e-07)
(1.30688e-06 -1.8706e-05 2.14942e-07)
(1.01623e-06 -1.87597e-05 2.40471e-07)
(6.3627e-07 -1.87813e-05 2.59803e-07)
(1.96075e-07 -1.87863e-05 2.70125e-07)
(-2.65e-07 -1.8784e-05 2.70089e-07)
(-7.04382e-07 -1.87743e-05 2.59716e-07)
(-1.08278e-06 -1.87478e-05 2.40353e-07)
(-1.37105e-06 -1.86891e-05 2.1483e-07)
(-1.55351e-06 -1.85793e-05 1.86037e-07)
(-1.62743e-06 -1.83971e-05 1.56893e-07)
(-1.6011e-06 -1.81198e-05 1.29599e-07)
(-1.4899e-06 -1.77211e-05 1.05684e-07)
(-1.31341e-06 -1.71671e-05 8.59249e-08)
(-1.09249e-06 -1.6411e-05 7.05503e-08)
(-8.477e-07 -1.53821e-05 5.92634e-08)
(-5.9882e-07 -1.39689e-05 5.13099e-08)
(-3.63869e-07 -1.19827e-05 4.50565e-08)
(-1.63872e-07 -9.06492e-06 3.75254e-08)
(-1.97429e-08 -4.3928e-06 2.03784e-08)
(1.02214e-08 -4.5404e-06 1.04566e-08)
(8.19008e-08 -9.3648e-06 1.90905e-08)
(1.81008e-07 -1.23803e-05 2.30044e-08)
(2.99042e-07 -1.44416e-05 2.67437e-08)
(4.27087e-07 -1.59209e-05 3.2004e-08)
(5.57094e-07 -1.70145e-05 3.9771e-08)
(6.79335e-07 -1.78372e-05 5.05658e-08)
(7.82516e-07 -1.8461e-05 6.46821e-08)
(8.53929e-07 -1.89324e-05 8.21182e-08)
(8.80409e-07 -1.92829e-05 1.02511e-07)
(8.50076e-07 -1.95357e-05 1.24868e-07)
(7.54494e-07 -1.97092e-05 1.47608e-07)
(5.91897e-07 -1.982e-05 1.68362e-07)
(3.69604e-07 -1.98829e-05 1.84613e-07)
(1.05328e-07 -1.99097e-05 1.93558e-07)
(-1.73706e-07 -1.99076e-05 1.93479e-07)
(-4.36776e-07 -1.98768e-05 1.84414e-07)
(-6.56789e-07 -1.98099e-05 1.68045e-07)
(-8.1613e-07 -1.96949e-05 1.47229e-07)
(-9.07664e-07 -1.95172e-05 1.24485e-07)
(-9.33184e-07 -1.92607e-05 1.02178e-07)
(-9.01282e-07 -1.89065e-05 8.18614e-08)
(-8.23899e-07 -1.8432e-05 6.45179e-08)
(-7.14277e-07 -1.78058e-05 5.05189e-08)
(-5.85194e-07 -1.69818e-05 3.98548e-08)
(-4.48142e-07 -1.58886e-05 3.22239e-08)
(-3.13161e-07 -1.44115e-05 2.71014e-08)
(-1.88817e-07 -1.23549e-05 2.34848e-08)
(-8.47494e-08 -9.34686e-06 1.96711e-08)
(-1.02886e-08 -4.53299e-06 1.09491e-08)
(-1.48509e-10 -4.58532e-06 7.41844e-11)
(-4.39055e-09 -9.45236e-06 -5.01247e-10)
(-9.81379e-09 -1.24971e-05 -6.92378e-10)
(-1.27404e-08 -1.4587e-05 1.34902e-12)
(-1.0042e-08 -1.60996e-05 1.84852e-09)
(3.3079e-10 -1.72337e-05 5.08479e-09)
(1.91163e-08 -1.81049e-05 9.97758e-09)
(4.51506e-08 -1.87851e-05 1.67811e-08)
(7.5103e-08 -1.93194e-05 2.56801e-08)
(1.03391e-07 -1.97371e-05 3.67001e-08)
(1.22842e-07 -2.00578e-05 4.95247e-08)
(1.25804e-07 -2.02957e-05 6.34324e-08)
(1.06485e-07 -2.04622e-05 7.6887e-08)
(6.32071e-08 -2.05664e-05 8.80232e-08)
(6.45727e-10 -2.06152e-05 9.44524e-08)
(-6.89536e-08 -2.06134e-05 9.432e-08)
(-1.30029e-07 -2.05609e-05 8.77012e-08)
(-1.70466e-07 -2.04531e-05 7.63897e-08)
(-1.85774e-07 -2.02831e-05 6.28492e-08)
(-1.7794e-07 -2.00419e-05 4.88985e-08)
(-1.52918e-07 -1.97182e-05 3.61014e-08)
(-1.18609e-07 -1.92979e-05 2.5135e-08)
(-8.22796e-08 -1.87615e-05 1.63377e-08)
(-4.96468e-08 -1.80799e-05 9.65337e-09)
(-2.41895e-08 -1.72082e-05 4.88173e-09)
(-7.25527e-09 -1.6075e-05 1.77901e-09)
(1.6085e-09 -1.45646e-05 7.44225e-11)
(4.00914e-09 -1.24787e-05 -4.75223e-10)
(2.51284e-09 -9.43967e-06 -1.30943e-10)
(2.07564e-10 -4.58031e-06 4.73252e-10)
(-1.11975e-08 -4.53077e-06 -1.09759e-08)
(-9.57295e-08 -9.33792e-06 -2.13299e-08)
(-2.11482e-07 -1.23484e-05 -2.59035e-08)
(-3.42153e-07 -1.44219e-05 -2.85555e-08)
(-4.72293e-07 -1.59327e-05 -3.05656e-08)
(-5.89409e-07 -1.70775e-05 -3.2523e-08)
(-6.81972e-07 -1.79705e-05 -3.45442e-08)
(-7.4052e-07 -1.86823e-05 -3.64458e-08)
(-7.5827e-07 -1.92565e-05 -3.79071e-08)
(-7.32247e-07 -1.97203e-05 -3.85022e-08)
(-6.63614e-07 -2.00906e-05 -3.787e-08)
(-5.58018e-07 -2.03777e-05 -3.58124e-08)
(-4.24509e-07 -2.05883e-05 -3.27098e-08)
(-2.73531e-07 -2.07262e-05 -2.92872e-08)
(-1.14742e-07 -2.07937e-05 -2.6931e-08)
(4.63976e-08 -2.07921e-05 -2.70801e-08)
(2.06914e-07 -2.07212e-05 -2.96712e-08)
(3.61133e-07 -2.05798e-05 -3.3309e-08)
(4.99177e-07 -2.03662e-05 -3.65458e-08)
(6.10192e-07 -2.00764e-05 -3.86784e-08)
(6.84931e-07 -1.97037e-05 -3.92781e-08)
(7.17446e-07 -1.9238e-05 -3.86347e-08)
(7.06371e-07 -1.86625e-05 -3.70714e-08)
(6.54522e-07 -1.795e-05 -3.50579e-08)
(5.68505e-07 -1.70571e-05 -3.29251e-08)
(4.57594e-07 -1.59134e-05 -3.08303e-08)
(3.33049e-07 -1.44048e-05 -2.86722e-08)
(2.07011e-07 -1.23347e-05 -2.58387e-08)
(9.44821e-08 -9.32874e-06 -2.10884e-08)
(1.13308e-08 -4.5273e-06 -1.06357e-08)
(-2.23845e-08 -4.37342e-06 -2.21865e-08)
(-1.87758e-07 -9.01525e-06 -4.24375e-08)
(-4.14414e-07 -1.19259e-05 -5.14704e-08)
(-6.73618e-07 -1.3936e-05 -5.76026e-08)
(-9.37707e-07 -1.54068e-05 -6.36922e-08)
(-1.18408e-06 -1.65287e-05 -7.12351e-08)
(-1.39045e-06 -1.7412e-05 -8.06974e-08)
(-1.53669e-06 -1.81245e-05 -9.21104e-08)
(-1.60574e-06 -1.87077e-05 -1.05111e-07)
(-1.58546e-06 -1.9187e-05 -1.18918e-07)
(-1.47033e-06 -1.95773e-05 -1.32579e-07)
(-1.26301e-06 -1.98868e-05 -1.44816e-07)
(-9.74657e-07 -2.01188e-05 -1.54619e-07)
(-6.2397e-07 -2.0274e-05 -1.61167e-07)
(-2.35116e-07 -2.03513e-05 -1.64254e-07)
(1.66883e-07 -2.03496e-05 -1.64409e-07)
(5.57612e-07 -2.0269e-05 -1.6159e-07)
(9.11764e-07 -2.01107e-05 -1.55278e-07)
(1.20497e-06 -1.98759e-05 -1.45623e-07)
(1.41814e-06 -1.95641e-05 -1.33465e-07)
(1.53972e-06 -1.91719e-05 -1.19812e-07)
(1.56677e-06 -1.86912e-05 -1.05952e-07)
(1.50459e-06 -1.81073e-05 -9.28781e-08)
(1.36509e-06 -1.73947e-05 -8.13457e-08)
(1.16517e-06 -1.65119e-05 -7.17618e-08)
(9.24745e-07 -1.53913e-05 -6.40985e-08)
(6.65853e-07 -1.39225e-05 -5.78453e-08)
(4.10823e-07 -1.19153e-05 -5.15232e-08)
(1.86939e-07 -9.00837e-06 -4.22803e-08)
(2.25782e-08 -4.37092e-06 -2.18759e-08)
(-3.31609e-08 -4.11492e-06 -3.29706e-08)
(-2.75712e-07 -8.48823e-06 -6.27013e-08)
(-6.07944e-07 -1.12349e-05 -7.59993e-08)
(-9.89577e-07 -1.31351e-05 -8.5507e-08)
(-1.38152e-06 -1.45283e-05 -9.55623e-08)
(-1.75163e-06 -1.55929e-05 -1.08503e-07)
(-2.06748e-06 -1.64331e-05 -1.25193e-07)
(-2.29868e-06 -1.71125e-05 -1.45872e-07)
(-2.41823e-06 -1.76701e-05 -1.70143e-07)
(-2.40516e-06 -1.813e-05 -1.96957e-07)
(-2.24712e-06 -1.8506e-05 -2.24704e-07)
(-1.94338e-06 -1.88052e-05 -2.51131e-07)
(-1.50668e-06 -1.90303e-05 -2.73838e-07)
(-9.63397e-07 -1.91815e-05 -2.90435e-07)
(-3.51671e-07 -1.92571e-05 -2.99082e-07)
(2.83952e-07 -1.92554e-05 -2.99237e-07)
(8.97573e-07 -1.91766e-05 -2.90863e-07)
(1.44445e-06 -1.90225e-05 -2.74493e-07)
(1.88615e-06 -1.87947e-05 -2.51949e-07)
(2.19588e-06 -1.84935e-05 -2.25601e-07)
(2.36055e-06 -1.81161e-05 -1.97878e-07)
(2.38055e-06 -1.76552e-05 -1.71024e-07)
(2.26796e-06 -1.70972e-05 -1.46687e-07)
(2.0435e-06 -1.6418e-05 -1.25904e-07)
(1.73402e-06 -1.55786e-05 -1.09094e-07)
(1.36967e-06 -1.45153e-05 -9.60251e-08)
(9.8269e-07 -1.31242e-05 -8.58115e-08)
(6.04921e-07 -1.12265e-05 -7.61139e-08)
(2.75145e-07 -8.4829e-06 -6.25875e-08)
(3.33816e-08 -4.11306e-06 -3.26803e-08)
(-4.28832e-08 -3.76253e-06 -4.27163e-08)
(-3.54638e-07 -7.77203e-06 -8.10147e-08)
(-7.81316e-07 -1.02957e-05 -9.81455e-08)
(-1.27252e-06 -1.20433e-05 -1.10639e-07)
(-1.77903e-06 -1.33236e-05 -1.24179e-07)
(-2.26016e-06 -1.42995e-05 -1.41867e-07)
(-2.67435e-06 -1.50658e-05 -1.64925e-07)
(-2.98197e-06 -1.56812e-05 -1.93718e-07)
(-3.14705e-06 -1.61819e-05 -2.27783e-07)
(-3.14051e-06 -1.65906e-05 -2.65844e-07)
(-2.94394e-06 -1.69206e-05 -3.05727e-07)
(-2.55366e-06 -1.71801e-05 -3.44373e-07)
(-1.98385e-06 -1.73731e-05 -3.78136e-07)
(-1.26776e-06 -1.75014e-05 -4.03314e-07)
(-4.56038e-07 -1.75651e-05 -4.16705e-07)
(3.89327e-07 -1.75635e-05 -4.16843e-07)
(1.20292e-06 -1.74968e-05 -4.03714e-07)
(1.92257e-06 -1.73657e-05 -3.7876e-07)
(2.49734e-06 -1.71703e-05 -3.45143e-07)
(2.89365e-06 -1.69089e-05 -3.06582e-07)
(3.09689e-06 -1.65777e-05 -2.66742e-07)
(3.11036e-06 -1.61684e-05 -2.28658e-07)
(2.95223e-06 -1.56675e-05 -1.94524e-07)
(2.65133e-06 -1.50526e-05 -1.65658e-07)
(2.2434e-06 -1.42871e-05 -1.42488e-07)
(1.7679e-06 -1.33128e-05 -1.24664e-07)
(1.26618e-06 -1.20343e-05 -1.10975e-07)
(7.78621e-07 -1.0289e-05 -9.82897e-08)
(3.54218e-07 -7.76783e-06 -8.09179e-08)
(4.31224e-08 -3.76111e-06 -4.24306e-08)
(-5.09948e-08 -3.32891e-06 -5.08419e-08)
(-4.19926e-07 -6.89267e-06 -9.62825e-08)
(-9.24451e-07 -9.1429e-06 -1.16559e-07)
(-1.50615e-06 -1.07014e-05 -1.31457e-07)
(-2.1076e-06 -1.18393e-05 -1.47753e-07)
(-2.681e-06 -1.27002e-05 -1.69141e-07)
(-3.17686e-06 -1.33683e-05 -1.9708e-07)
(-3.54771e-06 -1.38961e-05 -2.32031e-07)
(-3.74996e-06 -1.43166e-05 -2.73434e-07)
(-3.74786e-06 -1.4651e-05 -3.19779e-07)
(-3.51832e-06 -1.49132e-05 -3.68467e-07)
(-3.05556e-06 -1.5113e-05 -4.15794e-07)
(-2.37535e-06 -1.52569e-05 -4.57299e-07)
(-1.51691e-06 -1.535e-05 -4.88403e-07)
(-5.41139e-07 -1.53953e-05 -5.05057e-07)
(4.75962e-07 -1.53938e-05 -5.05173e-07)
(1.45354e-06 -1.53457e-05 -4.88744e-07)
(2.31549e-06 -1.525e-05 -4.57838e-07)
(3.00052e-06 -1.51038e-05 -4.16484e-07)
(3.46918e-06 -1.49025e-05 -3.69246e-07)
(3.70524e-06 -1.46392e-05 -3.20598e-07)
(3.71418e-06 -1.43044e-05 -2.74254e-07)
(3.5188e-06 -1.3884e-05 -2.328e-07)
(3.15456e-06 -1.33567e-05 -1.97787e-07)
(2.66484e-06 -1.26896e-05 -1.69756e-07)
(2.09695e-06 -1.18301e-05 -1.48254e-07)
(1.50013e-06 -1.06939e-05 -1.31808e-07)
(9.21931e-07 -9.13743e-06 -1.16717e-07)
(4.19563e-07 -6.88936e-06 -9.61962e-08)
(5.12323e-08 -3.32784e-06 -5.05634e-08)
(-5.69488e-08 -2.83157e-06 -5.68144e-08)
(-4.67301e-07 -5.88586e-06 -1.07494e-07)
(-1.02842e-06 -7.82349e-06 -1.30046e-07)
(-1.67665e-06 -9.16484e-06 -1.46599e-07)
(-2.34869e-06 -1.01383e-05 -1.6473e-07)
(-2.99123e-06 -1.08658e-05 -1.88566e-07)
(-3.54852e-06 -1.14196e-05 -2.19686e-07)
(-3.96668e-06 -1.18455e-05 -2.58552e-07)
(-4.19621e-06 -1.2173e-05 -3.04538e-07)
(-4.19656e-06 -1.24221e-05 -3.55901e-07)
(-3.94135e-06 -1.26071e-05 -4.09716e-07)
(-3.42379e-06 -1.27395e-05 -4.61935e-07)
(-2.66148e-06 -1.28286e-05 -5.07678e-07)
(-1.69832e-06 -1.28826e-05 -5.41914e-07)
(-6.0267e-07 -1.29075e-05 -5.60254e-07)
(5.39682e-07 -1.29061e-05 -5.60357e-07)
(1.63703e-06 -1.28787e-05 -5.42226e-07)
(2.6035e-06 -1.28224e-05 -5.08156e-07)
(3.37044e-06 -1.27313e-05 -4.62547e-07)
(3.89367e-06 -1.25976e-05 -4.10423e-07)
(4.15519e-06 -1.24117e-05 -3.56649e-07)
(4.16149e-06 -1.21623e-05 -3.05291e-07)
(3.93863e-06 -1.18349e-05 -2.59282e-07)
(3.52689e-06 -1.14096e-05 -2.20359e-07)
(2.97559e-06 -1.08568e-05 -1.89159e-07)
(2.33839e-06 -1.01307e-05 -1.6522e-07)
(1.67083e-06 -9.15875e-06 -1.46933e-07)
(1.02602e-06 -7.81913e-06 -1.302e-07)
(4.66971e-07 -5.88331e-06 -1.07416e-07)
(5.71806e-08 -2.8308e-06 -5.65443e-08)
(-6.02174e-08 -2.29255e-06 -6.01019e-08)
(-4.92955e-07 -4.79601e-06 -1.1364e-07)
(-1.08558e-06 -6.39557e-06 -1.37335e-07)
(-1.77265e-06 -7.50152e-06 -1.54622e-07)
(-2.48781e-06 -8.29663e-06 -1.73553e-07)
(-3.17392e-06 -8.88003e-06 -1.98475e-07)
(-3.77068e-06 -9.31204e-06 -2.31045e-07)
(-4.2195e-06 -9.63134e-06 -2.71683e-07)
(-4.46671e-06 -9.86384e-06 -3.19624e-07)
(-4.4686e-06 -1.00279e-05 -3.72951e-07)
(-4.1971e-06 -1.01377e-05 -4.28584e-07)
(-3.64536e-06 -1.02059e-05 -4.82329e-07)
(-2.83265e-06 -1.02439e-05 -5.29203e-07)
(-1.80609e-06 -1.02621e-05 -5.64164e-07)
(-6.38609e-07 -1.02684e-05 -5.8288e-07)
(5.78451e-07 -1.02672e-05 -5.82968e-07)
(1.74752e-06 -1.02587e-05 -5.64431e-07)
(2.77719e-06 -1.02386e-05 -5.29621e-07)
(3.59428e-06 -1.01989e-05 -4.82868e-07)
(4.15136e-06 -1.01296e-05 -4.29209e-07)
(4.42886e-06 -1.0019e-05 -3.73624e-07)
(4.43331e-06 -9.85477e-06 -3.20314e-07)
(4.19249e-06 -9.62245e-06 -2.72355e-07)
(3.74987e-06 -9.30374e-06 -2.3167e-07)
(3.15888e-06 -8.87264e-06 -1.99031e-07)
(2.4779e-06 -8.29039e-06 -1.74025e-07)
(1.76705e-06 -7.49666e-06 -1.54954e-07)
(1.08325e-06 -6.3922e-06 -1.3749e-07)
(4.92617e-07 -4.79417e-06 -1.13571e-07)
(6.04331e-08 -2.29208e-06 -5.98473e-08)
(-6.02e-08 -1.73828e-06 -6.01017e-08)
(-4.93009e-07 -3.67546e-06 -1.1354e-07)
(-1.08895e-06 -4.92642e-06 -1.36922e-07)
(-1.78467e-06 -5.78894e-06 -1.53757e-07)
(-2.51379e-06 -6.40014e-06 -1.72258e-07)
(-3.21699e-06 -6.83686e-06 -1.96836e-07)
(-3.831e-06 -7.14747e-06 -2.29173e-07)
(-4.29419e-06 -7.36373e-06 -2.696e-07)
(-4.55057e-06 -7.50767e-06 -3.17237e-07)
(-4.55489e-06 -7.59547e-06 -3.70051e-07)
(-4.27861e-06 -7.6406e-06 -4.24903e-07)
(-3.71547e-06 -7.65559e-06 -4.77632e-07)
(-2.88597e-06 -7.6526e-06 -5.23413e-07)
(-1.83883e-06 -7.64274e-06 -5.57413e-07)
(-6.48564e-07 -7.6349e-06 -5.75575e-07)
(5.92021e-07 -7.63397e-06 -5.7565e-07)
(1.78376e-06 -7.64001e-06 -5.57645e-07)