/*--------------------------------*- C++ -*----------------------------------*\
| =========                 |                                                 |
| \\      /  F ield         | OpenFOAM: The Open Source CFD Toolbox           |
|  \\    /   O peration     | Version:  v1912                                 |
|   \\  /    A nd           | Website:  www.openfoam.com                      |
|    \\/     M anipulation  |                                                 |
\*---------------------------------------------------------------------------*/
FoamFile
{
    version     2.0;
    format      ascii;
    class       volScalarField;
    location    "19/sphere";
    object      ddt0((betavSolid*thermo:rho),h);
}
// * * * * * * * * * * * * * * * * * * * * * * * * * * * * * * * * * * * * * //

dimensions      [1 -1 -3 0 0 0 0];


internalField   nonuniform List<scalar> 
1992
(
-4.84448e+06
-4.84698e+06
-4.84672e+06
-4.85188e+06
-4.84528e+06
-4.84516e+06
-4.84696e+06
-4.86245e+06
-4.86575e+06
-4.85638e+06
-4.84658e+06
-4.86559e+06
-4.86879e+06
-4.85981e+06
-4.85489e+06
-4.8596e+06
-4.85234e+06
-4.84679e+06
-4.8518e+06
-4.84539e+06
-4.84667e+06
-4.86561e+06
-4.86882e+06
-4.85984e+06
-4.85123e+06
-4.86866e+06
-4.87186e+06
-4.86297e+06
-4.8467e+06
-4.8449e+06
-4.85946e+06
-4.86269e+06
-4.85713e+06
-4.84629e+06
-4.84527e+06
-4.85607e+06
-4.85971e+06
-4.85162e+06
-4.84499e+06
-4.85951e+06
-4.8628e+06
-4.85713e+06
-4.85121e+06
-4.85702e+06
-4.84857e+06
-4.84645e+06
-4.84646e+06
-4.84645e+06
-4.84626e+06
-4.84645e+06
-4.84469e+06
-4.8519e+06
-4.84708e+06
-4.85975e+06
-4.85633e+06
-4.86284e+06
-4.85978e+06
-4.85629e+06
-4.86282e+06
-4.85976e+06
-4.84698e+06
-4.8446e+06
-4.85188e+06
-4.84703e+06
-4.85974e+06
-4.85967e+06
-4.85623e+06
-4.85187e+06
-4.84701e+06
-4.84695e+06
-4.8446e+06
-4.84625e+06
-4.84625e+06
-4.84618e+06
-4.84606e+06
-4.84555e+06
-4.84606e+06
-4.84619e+06
-4.84555e+06
-4.84606e+06
-4.84619e+06
-4.84555e+06
-4.84626e+06
-4.84798e+06
-4.84522e+06
-4.84527e+06
-4.85139e+06
-4.85709e+06
-4.84524e+06
-4.84533e+06
-4.85713e+06
-4.85165e+06
-4.84867e+06
-4.8451e+06
-4.85134e+06
-4.84501e+06
-4.85696e+06
-4.84686e+06
-4.84674e+06
-4.85159e+06
-4.8561e+06
-4.85965e+06
-4.85957e+06
-4.86269e+06
-4.84637e+06
-4.84891e+06
-4.84824e+06
-4.85376e+06
-4.85221e+06
-4.85092e+06
-4.85442e+06
-4.84528e+06
-4.85163e+06
-4.85717e+06
-4.8453e+06
-4.84509e+06
-4.84501e+06
-4.85694e+06
-4.8513e+06
-4.85157e+06
-4.84444e+06
-4.84681e+06
-4.85953e+06
-4.86265e+06
-4.85605e+06
-4.85956e+06
-4.84705e+06
-4.84692e+06
-4.84457e+06
-4.86281e+06
-4.85977e+06
-4.85967e+06
-4.85626e+06
-4.85716e+06
-4.84529e+06
-4.85157e+06
-4.84784e+06
-4.84511e+06
-4.85122e+06
-4.85699e+06
-4.84511e+06
-4.85702e+06
-4.85153e+06
-4.84515e+06
-4.84854e+06
-4.84639e+06
-4.84651e+06
-4.85133e+06
-4.84517e+06
-4.84505e+06
-4.85699e+06
-4.8469e+06
-4.855e+06
-4.85961e+06
-4.8468e+06
-4.85161e+06
-4.85956e+06
-4.86267e+06
-4.84475e+06
-4.85973e+06
-4.85637e+06
-4.8518e+06
-4.84714e+06
-4.86281e+06
-4.85982e+06
-4.85244e+06
-4.84536e+06
-4.85723e+06
-4.84534e+06
-4.84603e+06
-4.85497e+06
-4.8466e+06
-4.85947e+06
-4.84666e+06
-4.8595e+06
-4.85125e+06
-4.8625e+06
-4.8447e+06
-4.85983e+06
-4.8471e+06
-4.85986e+06
-4.84712e+06
-4.86299e+06
-4.85222e+06
-4.84672e+06
-4.84602e+06
-4.85945e+06
-4.85492e+06
-4.85123e+06
-4.86248e+06
-4.84656e+06
-4.85944e+06
-4.84706e+06
-4.85634e+06
-4.84463e+06
-4.86297e+06
-4.85222e+06
-4.8598e+06
-4.84706e+06
-4.84671e+06
-4.85125e+06
-4.84492e+06
-4.8569e+06
-4.845e+06
-4.8595e+06
-4.84673e+06
-4.85946e+06
-4.86255e+06
-4.84663e+06
-4.85143e+06
-4.85625e+06
-4.84679e+06
-4.84456e+06
-4.86269e+06
-4.85969e+06
-4.85162e+06
-4.84698e+06
-4.85712e+06
-4.84526e+06
-4.8452e+06
-4.8462e+06
-4.84631e+06
-4.8464e+06
-4.84651e+06
-4.84516e+06
-4.84501e+06
-4.85698e+06
-4.85128e+06
-4.85162e+06
-4.85955e+06
-4.86266e+06
-4.84688e+06
-4.85495e+06
-4.8596e+06
-4.84713e+06
-4.86281e+06
-4.8598e+06
-4.84693e+06
-4.84465e+06
-4.85971e+06
-4.85634e+06
-4.85722e+06
-4.84535e+06
-4.85241e+06
-4.84604e+06
-4.85948e+06
-4.85125e+06
-4.8625e+06
-4.85495e+06
-4.84662e+06
-4.85947e+06
-4.84715e+06
-4.86298e+06
-4.85222e+06
-4.85634e+06
-4.84469e+06
-4.85981e+06
-4.84708e+06
-4.84671e+06
-4.846e+06
-4.86247e+06
-4.84656e+06
-4.85942e+06
-4.8466e+06
-4.85945e+06
-4.85486e+06
-4.85221e+06
-4.8598e+06
-4.84707e+06
-4.8598e+06
-4.84709e+06
-4.85632e+06
-4.84458e+06
-4.85689e+06
-4.84501e+06
-4.85117e+06
-4.86255e+06
-4.84662e+06
-4.8514e+06
-4.85486e+06
-4.8595e+06
-4.84671e+06
-4.8597e+06
-4.8516e+06
-4.84697e+06
-4.85961e+06
-4.85624e+06
-4.84678e+06
-4.84453e+06
-4.84526e+06
-4.84519e+06
-4.85235e+06
-4.84617e+06
-4.84789e+06
-4.84524e+06
-4.8513e+06
-4.85707e+06
-4.84517e+06
-4.8571e+06
-4.85163e+06
-4.84525e+06
-4.84864e+06
-4.85134e+06
-4.845e+06
-4.85694e+06
-4.8451e+06
-4.85961e+06
-4.85953e+06
-4.86266e+06
-4.84445e+06
-4.84688e+06
-4.84673e+06
-4.85158e+06
-4.85714e+06
-4.84527e+06
-4.84527e+06
-4.85693e+06
-4.85123e+06
-4.84508e+06
-4.86264e+06
-4.85601e+06
-4.85956e+06
-4.84672e+06
-4.85155e+06
-4.84447e+06
-4.84681e+06
-4.8453e+06
-4.85158e+06
-4.84524e+06
-4.84779e+06
-4.85699e+06
-4.84507e+06
-4.84512e+06
-4.85153e+06
-4.84513e+06
-4.84518e+06
-4.84496e+06
-4.84447e+06
-4.84433e+06
-4.84492e+06
-4.84451e+06
-4.8451e+06
-4.84454e+06
-4.84507e+06
-4.84449e+06
-4.84508e+06
-4.84447e+06
-4.84496e+06
-4.84448e+06
-4.84442e+06
-4.84439e+06
-4.84559e+06
-4.84548e+06
-4.84454e+06
-4.84617e+06
-4.84602e+06
-4.84551e+06
-4.84507e+06
-4.84445e+06
-4.8449e+06
-4.84442e+06
-4.84554e+06
-4.84552e+06
-4.84708e+06
-4.85228e+06
-4.84738e+06
-4.84945e+06
-4.84947e+06
-4.84637e+06
-4.8491e+06
-4.84827e+06
-4.8538e+06
-4.85231e+06
-4.85091e+06
-4.85457e+06
-4.84634e+06
-4.84889e+06
-4.84819e+06
-4.8537e+06
-4.85218e+06
-4.85088e+06
-4.85439e+06
-4.8455e+06
-4.84551e+06
-4.84705e+06
-4.85221e+06
-4.84732e+06
-4.84941e+06
-4.84938e+06
-4.84634e+06
-4.84903e+06
-4.84825e+06
-4.85374e+06
-4.85225e+06
-4.85089e+06
-4.85451e+06
-4.84899e+06
-4.84634e+06
-4.84821e+06
-4.85372e+06
-4.85224e+06
-4.8545e+06
-4.8509e+06
-4.84892e+06
-4.84629e+06
-4.84819e+06
-4.85367e+06
-4.85212e+06
-4.85435e+06
-4.85083e+06
-4.84548e+06
-4.84547e+06
-4.84699e+06
-4.85218e+06
-4.8473e+06
-4.84943e+06
-4.84938e+06
-4.84451e+06
-4.84432e+06
-4.84559e+06
-4.84547e+06
-4.84453e+06
-4.84559e+06
-4.84546e+06
-4.8445e+06
-4.84449e+06
-4.84531e+06
-4.8453e+06
-4.84671e+06
-4.8519e+06
-4.84716e+06
-4.84925e+06
-4.84922e+06
-4.84513e+06
-4.84661e+06
-4.84474e+06
-4.84826e+06
-4.85324e+06
-4.84606e+06
-4.85196e+06
-4.8475e+06
-4.85405e+06
-4.85059e+06
-4.8447e+06
-4.84891e+06
-4.84547e+06
-4.84576e+06
-4.84805e+06
-4.84455e+06
-4.84496e+06
-4.84639e+06
-4.84464e+06
-4.84541e+06
-4.84875e+06
-4.84798e+06
-4.84564e+06
-4.85089e+06
-4.84484e+06
-4.84656e+06
-4.84484e+06
-4.84862e+06
-4.84629e+06
-4.84864e+06
-4.85355e+06
-4.84633e+06
-4.85214e+06
-4.8485e+06
-4.85088e+06
-4.84783e+06
-4.85424e+06
-4.84483e+06
-4.84516e+06
-4.84669e+06
-4.85079e+06
-4.84645e+06
-4.84467e+06
-4.84465e+06
-4.84846e+06
-4.84854e+06
-4.84614e+06
-4.85296e+06
-4.8518e+06
-4.84583e+06
-4.84812e+06
-4.85036e+06
-4.85386e+06
-4.84725e+06
-4.84515e+06
-4.84455e+06
-4.84445e+06
-4.84462e+06
-4.84617e+06
-4.84726e+06
-4.84835e+06
-4.84828e+06
-4.85467e+06
-4.84563e+06
-4.8507e+06
-4.85064e+06
-4.84445e+06
-4.85311e+06
-4.84837e+06
-4.85195e+06
-4.84605e+06
-4.85404e+06
-4.84748e+06
-4.85049e+06
-4.85512e+06
-4.85117e+06
-4.8567e+06
-4.85031e+06
-4.85603e+06
-4.84955e+06
-4.8558e+06
-4.84559e+06
-4.84897e+06
-4.84477e+06
-4.84584e+06
-4.84815e+06
-4.853e+06
-4.85186e+06
-4.84818e+06
-4.84594e+06
-4.85393e+06
-4.85041e+06
-4.84732e+06
-4.84522e+06
-4.84466e+06
-4.85445e+06
-4.85621e+06
-4.84981e+06
-4.84981e+06
-4.85534e+06
-4.85534e+06
-4.84855e+06
-4.84632e+06
-4.84631e+06
-4.84566e+06
-4.84521e+06
-4.84855e+06
-4.84435e+06
-4.84549e+06
-4.84769e+06
-4.8443e+06
-4.84601e+06
-4.84556e+06
-4.84506e+06
-4.84464e+06
-4.84481e+06
-4.84633e+06
-4.84555e+06
-4.84478e+06
-4.84883e+06
-4.84808e+06
-4.84576e+06
-4.84454e+06
-4.84476e+06
-4.84626e+06
-4.85459e+06
-4.84795e+06
-4.85067e+06
-4.84726e+06
-4.84804e+06
-4.85067e+06
-4.84514e+06
-4.84526e+06
-4.84857e+06
-4.84448e+06
-4.84779e+06
-4.84554e+06
-4.84702e+06
-4.8544e+06
-4.84755e+06
-4.84766e+06
-4.85033e+06
-4.85045e+06
-4.84486e+06
-4.84524e+06
-4.84586e+06
-4.84588e+06
-4.84459e+06
-4.84438e+06
-4.84546e+06
-4.84556e+06
-4.84451e+06
-4.84443e+06
-4.84513e+06
-4.84512e+06
-4.84507e+06
-4.84471e+06
-4.845e+06
-4.84654e+06
-4.84467e+06
-4.84879e+06
-4.84547e+06
-4.84574e+06
-4.84799e+06
-4.84464e+06
-4.84488e+06
-4.84637e+06
-4.84546e+06
-4.84466e+06
-4.84881e+06
-4.84577e+06
-4.84793e+06
-4.84714e+06
-4.84779e+06
-4.84769e+06
-4.85452e+06
-4.84503e+06
-4.85056e+06
-4.85045e+06
-4.84468e+06
-4.84885e+06
-4.84809e+06
-4.84552e+06
-4.84576e+06
-4.84517e+06
-4.84666e+06
-4.84477e+06
-4.84557e+06
-4.84483e+06
-4.84887e+06
-4.84579e+06
-4.84812e+06
-4.84481e+06
-4.84519e+06
-4.84668e+06
-4.84797e+06
-4.85462e+06
-4.85069e+06
-4.84731e+06
-4.84808e+06
-4.84519e+06
-4.85071e+06
-4.84531e+06
-4.84594e+06
-4.84596e+06
-4.84471e+06
-4.8446e+06
-4.84498e+06
-4.84648e+06
-4.84455e+06
-4.84535e+06
-4.84872e+06
-4.84792e+06
-4.84559e+06
-4.84456e+06
-4.84474e+06
-4.84625e+06
-4.84706e+06
-4.84774e+06
-4.84763e+06
-4.85446e+06
-4.84493e+06
-4.85048e+06
-4.85036e+06
-4.84531e+06
-4.84445e+06
-4.84864e+06
-4.84558e+06
-4.8478e+06
-4.84842e+06
-4.84618e+06
-4.8521e+06
-4.84759e+06
-4.85422e+06
-4.85334e+06
-4.85071e+06
-4.8461e+06
-4.84827e+06
-4.8475e+06
-4.8533e+06
-4.85198e+06
-4.85067e+06
-4.85407e+06
-4.84469e+06
-4.84891e+06
-4.84808e+06
-4.8455e+06
-4.84576e+06
-4.84795e+06
-4.85461e+06
-4.85063e+06
-4.84727e+06
-4.84803e+06
-4.84513e+06
-4.8507e+06
-4.84476e+06
-4.84516e+06
-4.84666e+06
-4.84551e+06
-4.84475e+06
-4.84888e+06
-4.84576e+06
-4.8481e+06
-4.8453e+06
-4.84451e+06
-4.8487e+06
-4.84558e+06
-4.84787e+06
-4.84454e+06
-4.84493e+06
-4.84639e+06
-4.84528e+06
-4.8486e+06
-4.84443e+06
-4.84556e+06
-4.84773e+06
-4.84452e+06
-4.8446e+06
-4.84616e+06
-4.84699e+06
-4.84769e+06
-4.85441e+06
-4.84757e+06
-4.85042e+06
-4.84484e+06
-4.85031e+06
-4.85001e+06
-4.85015e+06
-4.85656e+06
-4.85473e+06
-4.8488e+06
-4.85558e+06
-4.85568e+06
-4.85183e+06
-4.84527e+06
-4.84526e+06
-4.84709e+06
-4.84668e+06
-4.84913e+06
-4.84917e+06
-4.84842e+06
-4.85328e+06
-4.84611e+06
-4.85204e+06
-4.84753e+06
-4.85416e+06
-4.85062e+06
-4.84906e+06
-4.84634e+06
-4.8523e+06
-4.84822e+06
-4.85455e+06
-4.85375e+06
-4.85094e+06
-4.8489e+06
-4.84626e+06
-4.84817e+06
-4.85368e+06
-4.85213e+06
-4.85435e+06
-4.85084e+06
-4.84548e+06
-4.84543e+06
-4.84699e+06
-4.8522e+06
-4.8473e+06
-4.84942e+06
-4.84938e+06
-4.84471e+06
-4.84509e+06
-4.8466e+06
-4.8455e+06
-4.84887e+06
-4.84475e+06
-4.84576e+06
-4.84806e+06
-4.84724e+06
-4.84791e+06
-4.85458e+06
-4.84802e+06
-4.85065e+06
-4.84508e+06
-4.85066e+06
-4.84473e+06
-4.84513e+06
-4.8466e+06
-4.84506e+06
-4.84501e+06
-4.84499e+06
-4.84534e+06
-4.84454e+06
-4.84872e+06
-4.84789e+06
-4.84562e+06
-4.84699e+06
-4.84769e+06
-4.85437e+06
-4.84756e+06
-4.85039e+06
-4.84481e+06
-4.8503e+06
-4.84454e+06
-4.84471e+06
-4.84624e+06
-4.84534e+06
-4.84867e+06
-4.84453e+06
-4.84562e+06
-4.84781e+06
-4.8447e+06
-4.84508e+06
-4.84654e+06
-4.84717e+06
-4.84789e+06
-4.85451e+06
-4.84796e+06
-4.8506e+06
-4.84502e+06
-4.85056e+06
-4.84541e+06
-4.84872e+06
-4.84461e+06
-4.84564e+06
-4.84797e+06
-4.84466e+06
-4.84506e+06
-4.8465e+06
-4.84525e+06
-4.84586e+06
-4.84589e+06
-4.84459e+06
-4.84459e+06
-4.84447e+06
-4.84566e+06
-4.84559e+06
-4.84461e+06
-4.84466e+06
-4.84578e+06
-4.84623e+06
-4.84528e+06
-4.84518e+06
-4.84461e+06
-4.8446e+06
-4.84482e+06
-4.84632e+06
-4.84458e+06
-4.84478e+06
-4.84627e+06
-4.84706e+06
-4.84766e+06
-4.84765e+06
-4.85444e+06
-4.84495e+06
-4.8504e+06
-4.85037e+06
-4.8454e+06
-4.84464e+06
-4.84872e+06
-4.84791e+06
-4.84567e+06
-4.84536e+06
-4.84452e+06
-4.84864e+06
-4.84783e+06
-4.84562e+06
-4.85315e+06
-4.84614e+06
-4.85205e+06
-4.84844e+06
-4.85056e+06
-4.84753e+06
-4.85414e+06
-4.85314e+06
-4.84606e+06
-4.84833e+06
-4.85197e+06
-4.84748e+06
-4.8506e+06
-4.85405e+06
-4.8547e+06
-4.85014e+06
-4.85007e+06
-4.85656e+06
-4.84882e+06
-4.85567e+06
-4.85559e+06
-4.85218e+06
-4.84556e+06
-4.8474e+06
-4.8456e+06
-4.84944e+06
-4.84701e+06
-4.84948e+06
-4.85512e+06
-4.85031e+06
-4.85116e+06
-4.8567e+06
-4.84953e+06
-4.8558e+06
-4.85603e+06
-4.85372e+06
-4.84642e+06
-4.84906e+06
-4.85233e+06
-4.84816e+06
-4.85099e+06
-4.85454e+06
-4.84741e+06
-4.84841e+06
-4.84842e+06
-4.85478e+06
-4.84573e+06
-4.85077e+06
-4.85081e+06
-4.84487e+06
-4.84515e+06
-4.8467e+06
-4.84558e+06
-4.84481e+06
-4.84893e+06
-4.84815e+06
-4.84583e+06
-4.84557e+06
-4.84479e+06
-4.84892e+06
-4.84812e+06
-4.84581e+06
-4.84419e+06
-4.84429e+06
-4.84532e+06
-4.84537e+06
-4.84437e+06
-4.85297e+06
-4.84591e+06
-4.85182e+06
-4.84812e+06
-4.8504e+06
-4.84731e+06
-4.85386e+06
-4.853e+06
-4.84592e+06
-4.85186e+06
-4.84817e+06
-4.85046e+06
-4.84731e+06
-4.85391e+06
-4.8545e+06
-4.8498e+06
-4.84986e+06
-4.85622e+06
-4.84861e+06
-4.85535e+06
-4.85539e+06
-4.85232e+06
-4.8474e+06
-4.84556e+06
-4.84559e+06
-4.84951e+06
-4.84952e+06
-4.84711e+06
-4.85385e+06
-4.84643e+06
-4.85231e+06
-4.84916e+06
-4.85098e+06
-4.84834e+06
-4.85463e+06
-4.85384e+06
-4.84643e+06
-4.85235e+06
-4.84915e+06
-4.85099e+06
-4.84829e+06
-4.85464e+06
-4.85544e+06
-4.85143e+06
-4.85143e+06
-4.85709e+06
-4.85009e+06
-4.85627e+06
-4.85628e+06
-4.84518e+06
-4.84458e+06
-4.8452e+06
-4.84457e+06
-4.84633e+06
-4.84635e+06
-4.84569e+06
-4.84422e+06
-4.84534e+06
-4.8453e+06
-4.84438e+06
-4.84409e+06
-4.8508e+06
-4.84462e+06
-4.84636e+06
-4.84461e+06
-4.84842e+06
-4.84606e+06
-4.84849e+06
-4.85448e+06
-4.84986e+06
-4.85621e+06
-4.84979e+06
-4.85536e+06
-4.8486e+06
-4.85534e+06
-4.85295e+06
-4.84583e+06
-4.8481e+06
-4.8518e+06
-4.84723e+06
-4.8504e+06
-4.85386e+06
-4.85381e+06
-4.8523e+06
-4.84636e+06
-4.84909e+06
-4.85094e+06
-4.85461e+06
-4.84828e+06
-4.85226e+06
-4.84553e+06
-4.84734e+06
-4.84553e+06
-4.84944e+06
-4.84708e+06
-4.84943e+06
-4.85542e+06
-4.85141e+06
-4.85709e+06
-4.85141e+06
-4.85626e+06
-4.85007e+06
-4.85626e+06
-4.8538e+06
-4.84635e+06
-4.84911e+06
-4.85228e+06
-4.84827e+06
-4.85091e+06
-4.8546e+06
-4.84633e+06
-4.84633e+06
-4.84569e+06
-4.84516e+06
-4.84456e+06
-4.84695e+06
-4.84754e+06
-4.8476e+06
-4.85437e+06
-4.84483e+06
-4.85027e+06
-4.85031e+06
-4.84449e+06
-4.84471e+06
-4.84623e+06
-4.84525e+06
-4.84442e+06
-4.84858e+06
-4.84778e+06
-4.84551e+06
-4.84527e+06
-4.84446e+06
-4.84858e+06
-4.84775e+06
-4.84553e+06
-4.85078e+06
-4.84641e+06
-4.84466e+06
-4.84465e+06
-4.8485e+06
-4.84848e+06
-4.84613e+06
-4.85301e+06
-4.85192e+06
-4.84598e+06
-4.8483e+06
-4.85046e+06
-4.854e+06
-4.84736e+06
-4.85298e+06
-4.84591e+06
-4.85182e+06
-4.84815e+06
-4.85042e+06
-4.84732e+06
-4.8539e+06
-4.85456e+06
-4.85003e+06
-4.85639e+06
-4.84992e+06
-4.85552e+06
-4.84873e+06
-4.85543e+06
-4.85338e+06
-4.85199e+06
-4.84614e+06
-4.84838e+06
-4.85067e+06
-4.8541e+06
-4.84766e+06
-4.85201e+06
-4.84724e+06
-4.84536e+06
-4.8454e+06
-4.84925e+06
-4.84931e+06
-4.84682e+06
-4.85497e+06
-4.85016e+06
-4.85654e+06
-4.851e+06
-4.85565e+06
-4.84934e+06
-4.85588e+06
-4.85355e+06
-4.84624e+06
-4.85218e+06
-4.84894e+06
-4.85077e+06
-4.84801e+06
-4.85439e+06
-4.84474e+06
-4.84508e+06
-4.84659e+06
-4.84467e+06
-4.84504e+06
-4.84651e+06
-4.84545e+06
-4.84472e+06
-4.84882e+06
-4.84801e+06
-4.8457e+06
-4.84542e+06
-4.84461e+06
-4.84881e+06
-4.84798e+06
-4.84568e+06
-4.84442e+06
-4.84432e+06
-4.84554e+06
-4.84544e+06
-4.84451e+06
-4.8456e+06
-4.84602e+06
-4.84508e+06
-4.84498e+06
-4.84441e+06
-4.84449e+06
-4.84561e+06
-4.8457e+06
-4.84468e+06
-4.84453e+06
-4.84622e+06
-4.84579e+06
-4.84528e+06
-4.84516e+06
-4.84458e+06
-4.84456e+06
-4.84538e+06
-4.8487e+06
-4.84458e+06
-4.84566e+06
-4.84787e+06
-4.84533e+06
-4.84864e+06
-4.8444e+06
-4.84561e+06
-4.8478e+06
-4.84463e+06
-4.84485e+06
-4.84632e+06
-4.84455e+06
-4.84479e+06
-4.84628e+06
-4.84704e+06
-4.85442e+06
-4.84762e+06
-4.84764e+06
-4.85038e+06
-4.85035e+06
-4.84488e+06
-4.8547e+06
-4.85012e+06
-4.85656e+06
-4.85018e+06
-4.85559e+06
-4.84888e+06
-4.85566e+06
-4.85091e+06
-4.84479e+06
-4.84482e+06
-4.84652e+06
-4.84629e+06
-4.84859e+06
-4.84862e+06
-4.85315e+06
-4.84842e+06
-4.84614e+06
-4.85206e+06
-4.84752e+06
-4.85414e+06
-4.85059e+06
-4.8537e+06
-4.84906e+06
-4.85233e+06
-4.84638e+06
-4.85454e+06
-4.84815e+06
-4.8509e+06
-4.85355e+06
-4.84851e+06
-4.84631e+06
-4.85212e+06
-4.8478e+06
-4.85425e+06
-4.85085e+06
-4.85216e+06
-4.84553e+06
-4.84553e+06
-4.84738e+06
-4.84696e+06
-4.84946e+06
-4.84942e+06
-4.84557e+06
-4.84892e+06
-4.84481e+06
-4.84582e+06
-4.84813e+06
-4.84484e+06
-4.84513e+06
-4.84667e+06
-4.84737e+06
-4.85474e+06
-4.8484e+06
-4.84837e+06
-4.85076e+06
-4.85074e+06
-4.84573e+06
-4.84481e+06
-4.84511e+06
-4.84667e+06
-4.84427e+06
-4.84537e+06
-4.84535e+06
-4.8444e+06
-4.84423e+06
-4.85453e+06
-4.84988e+06
-4.85623e+06
-4.84984e+06
-4.8554e+06
-4.84867e+06
-4.85537e+06
-4.85079e+06
-4.84463e+06
-4.84644e+06
-4.84471e+06
-4.84851e+06
-4.84612e+06
-4.84853e+06
-4.853e+06
-4.84811e+06
-4.84595e+06
-4.85184e+06
-4.84732e+06
-4.85388e+06
-4.85047e+06
-4.85384e+06
-4.85235e+06
-4.84918e+06
-4.84645e+06
-4.85464e+06
-4.85099e+06
-4.84835e+06
-4.85544e+06
-4.85144e+06
-4.85709e+06
-4.85142e+06
-4.85628e+06
-4.85012e+06
-4.85627e+06
-4.85229e+06
-4.84558e+06
-4.84735e+06
-4.84555e+06
-4.84951e+06
-4.84712e+06
-4.84947e+06
-4.85382e+06
-4.84912e+06
-4.84637e+06
-4.8523e+06
-4.84831e+06
-4.85461e+06
-4.85094e+06
-4.84636e+06
-4.84633e+06
-4.84571e+06
-4.84517e+06
-4.8446e+06
-4.8453e+06
-4.84531e+06
-4.84434e+06
-4.84412e+06
-4.84424e+06
-4.85292e+06
-4.84806e+06
-4.85179e+06
-4.84586e+06
-4.85384e+06
-4.84723e+06
-4.85034e+06
-4.85294e+06
-4.84811e+06
-4.85181e+06
-4.84588e+06
-4.85386e+06
-4.84725e+06
-4.85046e+06
-4.85069e+06
-4.84458e+06
-4.84465e+06
-4.84637e+06
-4.84602e+06
-4.84841e+06
-4.84848e+06
-4.85542e+06
-4.85709e+06
-4.85141e+06
-4.85141e+06
-4.85626e+06
-4.85626e+06
-4.85008e+06
-4.85381e+06
-4.84913e+06
-4.85228e+06
-4.84636e+06
-4.8546e+06
-4.84828e+06
-4.85089e+06
-4.85381e+06
-4.84914e+06
-4.8523e+06
-4.84638e+06
-4.85461e+06
-4.84831e+06
-4.8509e+06
-4.85227e+06
-4.84551e+06
-4.84552e+06
-4.84735e+06
-4.84707e+06
-4.84945e+06
-4.84943e+06
-4.84517e+06
-4.84459e+06
-4.84517e+06
-4.84458e+06
-4.84524e+06
-4.84858e+06
-4.84448e+06
-4.84552e+06
-4.84779e+06
-4.84445e+06
-4.84466e+06
-4.84613e+06
-4.84692e+06
-4.85432e+06
-4.84751e+06
-4.84755e+06
-4.85024e+06
-4.85027e+06
-4.84478e+06
-4.84445e+06
-4.84473e+06
-4.84619e+06
-4.85301e+06
-4.85183e+06
-4.84814e+06
-4.84591e+06
-4.85391e+06
-4.85046e+06
-4.84731e+06
-4.85455e+06
-4.85637e+06
-4.84991e+06
-4.84997e+06
-4.85544e+06
-4.85548e+06
-4.84866e+06
-4.85081e+06
-4.84466e+06
-4.84641e+06
-4.84464e+06
-4.84851e+06
-4.84615e+06
-4.84846e+06
-4.853e+06
-4.84824e+06
-4.8519e+06
-4.84593e+06
-4.85397e+06
-4.84732e+06
-4.8504e+06
-4.85495e+06
-4.85652e+06
-4.85098e+06
-4.85009e+06
-4.85586e+06
-4.85561e+06
-4.8493e+06
-4.85355e+06
-4.85217e+06
-4.84891e+06
-4.84624e+06
-4.85438e+06
-4.85081e+06
-4.848e+06
-4.85337e+06
-4.84832e+06
-4.85196e+06
-4.84614e+06
-4.85407e+06
-4.8476e+06
-4.85067e+06
-4.85202e+06
-4.84541e+06
-4.84724e+06
-4.84537e+06
-4.84931e+06
-4.84683e+06
-4.84926e+06
-4.84545e+06
-4.84883e+06
-4.8447e+06
-4.8457e+06
-4.84801e+06
-4.84543e+06
-4.84879e+06
-4.84464e+06
-4.84568e+06
-4.84799e+06
-4.84727e+06
-4.85468e+06
-4.84832e+06
-4.84827e+06
-4.85072e+06
-4.85063e+06
-4.84563e+06
-4.84473e+06
-4.84506e+06
-4.84659e+06
-4.84467e+06
-4.84499e+06
-4.84652e+06
-4.8454e+06
-4.84548e+06
-4.84445e+06
-4.84438e+06
-4.84496e+06
-4.8444e+06
-4.8444e+06
-4.84502e+06
-4.84505e+06
-4.84515e+06
-4.84545e+06
-4.84467e+06
-4.84881e+06
-4.84795e+06
-4.84574e+06
-4.8471e+06
-4.84765e+06
-4.85447e+06
-4.84776e+06
-4.85039e+06
-4.84494e+06
-4.85052e+06
-4.84469e+06
-4.84502e+06
-4.84649e+06
-4.84881e+06
-4.84458e+06
-4.84544e+06
-4.84571e+06
-4.84796e+06
-4.84486e+06
-4.84518e+06
-4.84669e+06
-4.85459e+06
-4.84795e+06
-4.85063e+06
-4.84728e+06
-4.84806e+06
-4.85073e+06
-4.84515e+06
-4.84473e+06
-4.84884e+06
-4.84806e+06
-4.8455e+06
-4.84574e+06
-4.84512e+06
-4.84662e+06
-4.84475e+06
-4.8453e+06
-4.84593e+06
-4.84597e+06
-4.84468e+06
-4.84705e+06
-4.84765e+06
-4.85444e+06
-4.84776e+06
-4.85036e+06
-4.84495e+06
-4.85045e+06
-4.8453e+06
-4.84448e+06
-4.8486e+06
-4.84781e+06
-4.84555e+06
-4.84459e+06
-4.84496e+06
-4.84642e+06
-4.84457e+06
-4.84533e+06
-4.84867e+06
-4.84789e+06
-4.84558e+06
-4.84533e+06
-4.84528e+06
-4.84667e+06
-4.85184e+06
-4.84716e+06
-4.84918e+06
-4.84917e+06
-4.84844e+06
-4.85209e+06
-4.84616e+06
-4.8542e+06
-4.84755e+06
-4.8533e+06
-4.85066e+06
-4.84608e+06
-4.84828e+06
-4.84748e+06
-4.85324e+06
-4.85194e+06
-4.85061e+06
-4.85403e+06
-4.84472e+06
-4.84512e+06
-4.84662e+06
-4.84547e+06
-4.84472e+06
-4.84886e+06
-4.84808e+06
-4.84574e+06
-4.84512e+06
-4.84659e+06
-4.84474e+06
-4.8447e+06
-4.84883e+06
-4.84803e+06
-4.84547e+06
-4.84573e+06
-4.84446e+06
-4.8447e+06
-4.84619e+06
-4.84697e+06
-4.85437e+06
-4.84754e+06
-4.84764e+06
-4.85027e+06
-4.85039e+06
-4.84482e+06
-4.84454e+06
-4.84531e+06
-4.84864e+06
-4.84557e+06
-4.84784e+06
-4.84453e+06
-4.84488e+06
-4.84637e+06
-4.84824e+06
-4.84606e+06
-4.84748e+06
-4.8532e+06
-4.8519e+06
-4.85399e+06
-4.85055e+06
-4.84525e+06
-4.84528e+06
-4.84665e+06
-4.8518e+06
-4.8471e+06
-4.84913e+06
-4.84914e+06
-4.84839e+06
-4.85201e+06
-4.84606e+06
-4.85413e+06
-4.84749e+06
-4.85324e+06
-4.8506e+06
-4.84548e+06
-4.84888e+06
-4.84474e+06
-4.84807e+06
-4.84574e+06
-4.85456e+06
-4.84786e+06
-4.85057e+06
-4.84723e+06
-4.84797e+06
-4.85066e+06
-4.84511e+06
-4.84472e+06
-4.84511e+06
-4.84661e+06
-4.8447e+06
-4.84881e+06
-4.84802e+06
-4.84546e+06
-4.84572e+06
-4.84506e+06
-4.84655e+06
-4.8447e+06
-4.84493e+06
-4.84489e+06
-4.84504e+06
-4.84454e+06
-4.84472e+06
-4.84623e+06
-4.84533e+06
-4.84865e+06
-4.84446e+06
-4.84777e+06
-4.84563e+06
-4.84457e+06
-4.84494e+06
-4.84644e+06
-4.84869e+06
-4.84457e+06
-4.84536e+06
-4.84789e+06
-4.84564e+06
-4.8545e+06
-4.84787e+06
-4.85058e+06
-4.84719e+06
-4.84796e+06
-4.85058e+06
-4.84505e+06
-4.84542e+06
-4.84869e+06
-4.84463e+06
-4.84793e+06
-4.84566e+06
-4.84469e+06
-4.84506e+06
-4.84653e+06
-4.84464e+06
-4.84873e+06
-4.84796e+06
-4.84542e+06
-4.84566e+06
-4.84509e+06
-4.84654e+06
-4.84472e+06
-4.85125e+06
-4.85104e+06
-4.85677e+06
-4.84991e+06
-4.8561e+06
-4.85526e+06
-4.85594e+06
-4.86568e+06
-4.86561e+06
-4.86875e+06
-4.86562e+06
-4.86876e+06
-4.86868e+06
-4.87182e+06
-4.86262e+06
-4.86882e+06
-4.86579e+06
-4.86883e+06
-4.86582e+06
-4.87187e+06
-4.86888e+06
-4.86873e+06
-4.86238e+06
-4.86561e+06
-4.86866e+06
-4.8718e+06
-4.86555e+06
-4.86869e+06
-4.86577e+06
-4.86568e+06
-4.86255e+06
-4.87185e+06
-4.86886e+06
-4.86876e+06
-4.86576e+06
-4.85587e+06
-4.85737e+06
-4.85065e+06
-4.85736e+06
-4.85359e+06
-4.85953e+06
-4.85359e+06
-4.86875e+06
-4.86868e+06
-4.87182e+06
-4.86243e+06
-4.86567e+06
-4.8656e+06
-4.86874e+06
-4.86581e+06
-4.87187e+06
-4.86888e+06
-4.86574e+06
-4.8626e+06
-4.86881e+06
-4.86578e+06
-4.8718e+06
-4.86555e+06
-4.8687e+06
-4.86558e+06
-4.86873e+06
-4.86237e+06
-4.86561e+06
-4.86886e+06
-4.86877e+06
-4.86576e+06
-4.86879e+06
-4.86577e+06
-4.86569e+06
-4.86255e+06
-4.84877e+06
-4.85351e+06
-4.85348e+06
-4.85635e+06
-4.84923e+06
-4.85277e+06
-4.85274e+06
-4.85631e+06
-4.8535e+06
-4.85272e+06
-4.84876e+06
-4.85353e+06
-4.85275e+06
-4.84927e+06
-4.85623e+06
-4.85343e+06
-4.85268e+06
-4.84872e+06
-4.85341e+06
-4.85266e+06
-4.84921e+06
-4.85108e+06
-4.85128e+06
-4.84999e+06
-4.85533e+06
-4.85679e+06
-4.85599e+06
-4.85613e+06
-4.85107e+06
-4.85125e+06
-4.84995e+06
-4.85528e+06
-4.85676e+06
-4.85596e+06
-4.85609e+06
-4.85124e+06
-4.85106e+06
-4.84994e+06
-4.85525e+06
-4.85675e+06
-4.85608e+06
-4.85593e+06
-4.85349e+06
-4.84876e+06
-4.85349e+06
-4.85625e+06
-4.84928e+06
-4.8527e+06
-4.85265e+06
-4.85353e+06
-4.85634e+06
-4.85279e+06
-4.84883e+06
-4.85353e+06
-4.8493e+06
-4.8528e+06
-4.84863e+06
-4.85337e+06
-4.85615e+06
-4.85333e+06
-4.85261e+06
-4.84911e+06
-4.85254e+06
-4.85019e+06
-4.85005e+06
-4.85658e+06
-4.84887e+06
-4.85573e+06
-4.8548e+06
-4.85561e+06
-4.85356e+06
-4.85636e+06
-4.85278e+06
-4.84881e+06
-4.85356e+06
-4.84931e+06
-4.8528e+06
-4.84859e+06
-4.85335e+06
-4.85331e+06
-4.85612e+06
-4.84909e+06
-4.85257e+06
-4.8525e+06
-4.85356e+06
-4.84881e+06
-4.85355e+06
-4.85634e+06
-4.8493e+06
-4.85278e+06
-4.85278e+06
-4.84863e+06
-4.8534e+06
-4.85613e+06
-4.85337e+06
-4.85258e+06
-4.84916e+06
-4.85253e+06
-4.84873e+06
-4.85343e+06
-4.85623e+06
-4.8534e+06
-4.8527e+06
-4.84919e+06
-4.85266e+06
-4.84866e+06
-4.85616e+06
-4.8534e+06
-4.85336e+06
-4.8526e+06
-4.85256e+06
-4.84917e+06
-4.85597e+06
-4.8508e+06
-4.85748e+06
-4.85745e+06
-4.85371e+06
-4.8537e+06
-4.85963e+06
-4.84889e+06
-4.85645e+06
-4.85361e+06
-4.85361e+06
-4.85287e+06
-4.85287e+06
-4.84937e+06
-4.85589e+06
-4.85075e+06
-4.85742e+06
-4.85742e+06
-4.85363e+06
-4.85365e+06
-4.85957e+06
-4.85588e+06
-4.85739e+06
-4.85066e+06
-4.85737e+06
-4.8536e+06
-4.85953e+06
-4.8536e+06
-4.84857e+06
-4.85608e+06
-4.85329e+06
-4.85329e+06
-4.8525e+06
-4.8525e+06
-4.84908e+06
-4.84875e+06
-4.85634e+06
-4.85351e+06
-4.85348e+06
-4.85276e+06
-4.85272e+06
-4.84922e+06
-4.84863e+06
-4.85338e+06
-4.85335e+06
-4.85614e+06
-4.84914e+06
-4.85257e+06
-4.85254e+06
-4.85597e+06
-4.85742e+06
-4.85074e+06
-4.85745e+06
-4.85367e+06
-4.85961e+06
-4.85369e+06
-4.8489e+06
-4.85362e+06
-4.85361e+06
-4.85643e+06
-4.84938e+06
-4.85287e+06
-4.85285e+06
-4.85589e+06
-4.8574e+06
-4.8507e+06
-4.85741e+06
-4.85362e+06
-4.85956e+06
-4.85363e+06
-4.85582e+06
-4.85732e+06
-4.85735e+06
-4.85065e+06
-4.8595e+06
-4.85355e+06
-4.85357e+06
-4.84852e+06
-4.85327e+06
-4.85328e+06
-4.85605e+06
-4.84905e+06
-4.85245e+06
-4.85247e+06
-4.85588e+06
-4.85734e+06
-4.85737e+06
-4.85064e+06
-4.85953e+06
-4.85358e+06
-4.85359e+06
-4.85346e+06
-4.84873e+06
-4.85348e+06
-4.85621e+06
-4.85263e+06
-4.84926e+06
-4.85266e+06
-4.85631e+06
-4.85349e+06
-4.85274e+06
-4.84882e+06
-4.85351e+06
-4.85279e+06
-4.84928e+06
-4.84862e+06
-4.85614e+06
-4.85331e+06
-4.85334e+06
-4.85253e+06
-4.85258e+06
-4.8491e+06
-4.8502e+06
-4.85655e+06
-4.85004e+06
-4.85571e+06
-4.84884e+06
-4.85475e+06
-4.85557e+06
-4.85633e+06
-4.85352e+06
-4.85276e+06
-4.84883e+06
-4.85355e+06
-4.85279e+06
-4.84932e+06
-4.84857e+06
-4.8533e+06
-4.8561e+06
-4.85332e+06
-4.85249e+06
-4.84908e+06
-4.85254e+06
-4.85016e+06
-4.85653e+06
-4.84997e+06
-4.85566e+06
-4.84876e+06
-4.85469e+06
-4.85554e+06
-4.85339e+06
-4.84863e+06
-4.85614e+06
-4.85337e+06
-4.85253e+06
-4.85259e+06
-4.84918e+06
)
;

boundaryField
{
    sphere_to_oil
    {
        type            calculated;
        value           nonuniform List<scalar> 
1536
(
-4.8438e+06
-4.84362e+06
-4.84352e+06
-4.8437e+06
-4.8436e+06
-4.8438e+06
-4.84359e+06
-4.84376e+06
-4.84362e+06
-4.84384e+06
-4.84346e+06
-4.84371e+06
-4.84393e+06
-4.84378e+06
-4.84353e+06
-4.84383e+06
-4.84338e+06
-4.84316e+06
-4.84365e+06
-4.84393e+06
-4.8438e+06
-4.84365e+06
-4.84354e+06
-4.84367e+06
-4.84367e+06
-4.84367e+06
-4.84365e+06
-4.84366e+06
-4.84357e+06
-4.84384e+06
-4.84372e+06
-4.84368e+06
-4.84366e+06
-4.84386e+06
-4.84371e+06
-4.84368e+06
-4.84371e+06
-4.84371e+06
-4.84362e+06
-4.84385e+06
-4.84372e+06
-4.84368e+06
-4.84363e+06
-4.84364e+06
-4.84372e+06
-4.84364e+06
-4.84369e+06
-4.84369e+06
-4.84371e+06
-4.84372e+06
-4.84367e+06
-4.84372e+06
-4.84373e+06
-4.84364e+06
-4.84389e+06
-4.8438e+06
-4.84389e+06
-4.84374e+06
-4.84381e+06
-4.84363e+06
-4.84395e+06
-4.84383e+06
-4.84358e+06
-4.8433e+06
-4.84356e+06
-4.8433e+06
-4.8437e+06
-4.84361e+06
-4.84383e+06
-4.84381e+06
-4.84362e+06
-4.84389e+06
-4.84377e+06
-4.8436e+06
-4.84333e+06
-4.84362e+06
-4.84349e+06
-4.84356e+06
-4.84373e+06
-4.84349e+06
-4.8436e+06
-4.84368e+06
-4.84358e+06
-4.84382e+06
-4.84365e+06
-4.84366e+06
-4.84388e+06
-4.84377e+06
-4.84368e+06
-4.8435e+06
-4.84372e+06
-4.8436e+06
-4.84374e+06
-4.84356e+06
-4.84381e+06
-4.84386e+06
-4.84383e+06
-4.8437e+06
-4.84361e+06
-4.84351e+06
-4.84382e+06
-4.84369e+06
-4.84391e+06
-4.84387e+06
-4.84409e+06
-4.84384e+06
-4.84393e+06
-4.84383e+06
-4.84389e+06
-4.84373e+06
-4.8435e+06
-4.84347e+06
-4.84355e+06
-4.84397e+06
-4.84376e+06
-4.84371e+06
-4.84372e+06
-4.84381e+06
-4.84383e+06
-4.84347e+06
-4.8434e+06
-4.84373e+06
-4.84383e+06
-4.84396e+06
-4.84377e+06
-4.84374e+06
-4.84383e+06
-4.8434e+06
-4.84314e+06
-4.8436e+06
-4.84342e+06
-4.84362e+06
-4.84353e+06
-4.84366e+06
-4.84368e+06
-4.84364e+06
-4.84387e+06
-4.84362e+06
-4.84386e+06
-4.84374e+06
-4.84371e+06
-4.84348e+06
-4.84362e+06
-4.84364e+06
-4.84381e+06
-4.84386e+06
-4.84381e+06
-4.84367e+06
-4.84347e+06
-4.84334e+06
-4.84375e+06
-4.84382e+06
-4.84381e+06
-4.84396e+06
-4.84376e+06
-4.84387e+06
-4.84392e+06
-4.84378e+06
-4.8435e+06
-4.8435e+06
-4.84381e+06
-4.84378e+06
-4.84397e+06
-4.84381e+06
-4.84371e+06
-4.84383e+06
-4.84346e+06
-4.84341e+06
-4.8435e+06
-4.84374e+06
-4.84372e+06
-4.84387e+06
-4.84372e+06
-4.84375e+06
-4.84365e+06
-4.84345e+06
-4.84352e+06
-4.84359e+06
-4.84363e+06
-4.84364e+06
-4.84362e+06
-4.84384e+06
-4.84364e+06
-4.84386e+06
-4.84376e+06
-4.84374e+06
-4.84359e+06
-4.84363e+06
-4.84381e+06
-4.8436e+06
-4.84364e+06
-4.84342e+06
-4.84383e+06
-4.8437e+06
-4.84359e+06
-4.8434e+06
-4.84371e+06
-4.84358e+06
-4.84379e+06
-4.84359e+06
-4.84354e+06
-4.84365e+06
-4.84359e+06
-4.8438e+06
-4.84365e+06
-4.84388e+06
-4.84374e+06
-4.8437e+06
-4.84356e+06
-4.84357e+06
-4.84374e+06
-4.84339e+06
-4.84351e+06
-4.84363e+06
-4.84383e+06
-4.84369e+06
-4.84384e+06
-4.84372e+06
-4.84372e+06
-4.8436e+06
-4.84376e+06
-4.84366e+06
-4.84382e+06
-4.84373e+06
-4.84378e+06
-4.84367e+06
-4.8435e+06
-4.84377e+06
-4.84376e+06
-4.84349e+06
-4.84307e+06
-4.84319e+06
-4.84305e+06
-4.84367e+06
-4.84333e+06
-4.84368e+06
-4.84381e+06
-4.84347e+06
-4.84311e+06
-4.84356e+06
-4.84383e+06
-4.84313e+06
-4.84382e+06
-4.84344e+06
-4.84349e+06
-4.84381e+06
-4.84326e+06
-4.84378e+06
-4.84326e+06
-4.84369e+06
-4.84387e+06
-4.8438e+06
-4.84343e+06
-4.84327e+06
-4.84338e+06