/*--------------------------------*- C++ -*----------------------------------*\
| =========                 |                                                 |
| \\      /  F ield         | OpenFOAM: The Open Source CFD Toolbox           |
|  \\    /   O peration     | Version:  v1906                                 |
|   \\  /    A nd           | Web:      www.OpenFOAM.com                      |
|    \\/     M anipulation  |                                                 |
\*---------------------------------------------------------------------------*/
FoamFile
{
    version     2.0;
    format      ascii;
    class       volScalarField;
    location    "46";
    object      nut;
}
// * * * * * * * * * * * * * * * * * * * * * * * * * * * * * * * * * * * * * //

dimensions      [0 2 -1 0 0 0 0];


internalField   nonuniform List<scalar> 
78750
(
0.000856619
0.00187452
0.00128357
0.000486542
8.68659e-05
5.18384e-06
1.54439e-05
9.04619e-06
1.37977e-05
1.18994e-05
1.44133e-05
1.36496e-05
1.59596e-05
1.55284e-05
1.72946e-05
1.72486e-05
1.86196e-05
1.89798e-05
1.98054e-05
2.04752e-05
2.0971e-05
2.09084e-05
2.04428e-05
2.10311e-05
2.45017e-05
3.06964e-05
3.60746e-05
3.80647e-05
3.7795e-05
3.66904e-05
3.51842e-05
3.30063e-05
2.62633e-05
9.48592e-06
8.00069e-07
9.81988e-05
5.71257e-05
0.000140092
1.33439e-05
9.42288e-06
1.70431e-05
1.75418e-05
2.36273e-05
2.67049e-05
3.24464e-05
3.63872e-05
4.13619e-05
4.47225e-05
4.81952e-05
5.05359e-05
5.2682e-05
5.4291e-05
5.57573e-05
5.71068e-05
5.8418e-05
5.97828e-05
6.13373e-05
6.32537e-05
6.57572e-05
6.90273e-05
7.30945e-05
7.79125e-05
8.34516e-05
8.97639e-05
9.62864e-05
9.67743e-05
7.35384e-05
2.73546e-05
6.19209e-06
1.28254e-06
8.305e-06
6.72474e-07
1.79215e-05
3.71703e-05
4.82134e-05
4.27775e-05
4.98191e-05
4.99063e-05
5.02061e-05
5.11573e-05
5.36013e-05
5.67251e-05
6.05968e-05
6.50144e-05
6.95936e-05
7.39104e-05
7.75748e-05
8.05769e-05
8.32174e-05
8.58307e-05
8.8521e-05
9.11944e-05
9.3725e-05
9.60519e-05
9.82002e-05
0.000100131
0.000101412
0.000100615
9.49257e-05
8.04273e-05
5.4728e-05
2.5485e-05
9.89149e-06
7.40376e-06
3.12036e-06
1.23806e-06
9.48637e-06
3.96799e-05
2.82698e-05
1.9416e-05
2.21913e-05
3.39912e-05
5.51343e-05
7.25454e-05
7.64041e-05
7.37442e-05
7.12166e-05
7.04937e-05
7.18354e-05
7.62698e-05
8.55307e-05
9.99334e-05
0.000115806
0.000127885
0.000134969
0.000137581
0.000137464
0.000137282
0.000137045
0.000136777
0.000136509
0.000136273
0.000136083
0.000135918
0.0001169
8.33749e-05
3.91471e-05
9.38591e-06
4.99244e-06
3.7351e-06
1.00918e-06
2.23038e-05
2.6996e-05
4.41004e-05
5.59484e-05
5.88727e-05
6.80254e-05
8.28612e-05
0.00010007
0.000115473
0.00012449
0.000126043
0.000122935
0.000118543
0.00011489
0.000112957
0.000113129
0.000115324
0.000119243
0.000124631
0.000131379
0.000139162
0.000143834
0.000143541
0.000143231
0.000142924
0.000142644
0.000142418
0.000112325
6.99098e-05
3.72514e-05
1.75069e-05
1.01866e-05
1.10127e-05
5.23424e-06
1.89062e-06
3.19171e-05
4.96217e-05
3.23448e-05
2.34406e-05
2.22044e-05
3.04926e-05
5.35706e-05
9.15632e-05
0.000134156
0.000142549
0.000143247
0.000143956
0.000144652
0.000139549
0.000134585
0.000131951
0.000130785
0.000131117
0.00013285
0.000136065
0.000140958
0.000147278
0.000152174
0.000152571
0.000152643
0.0001523
0.000151456
0.000150114
0.000108304
5.76783e-05
1.91577e-05
7.43165e-06
8.65194e-06
5.74438e-06
2.17099e-06
5.90222e-05
2.11567e-05
1.8124e-05
3.11361e-05
6.5874e-05
8.0101e-05
8.65688e-05
9.798e-05
0.000117609
0.00014054
0.000142922
0.00014372
0.000144644
0.000145689
0.00014685
0.000148118
0.000149489
0.00015095
0.000152489
0.00015408
0.000155695
0.000157295
0.000158826
0.00016022
0.000161386
0.000161929
0.000137401
0.000105619
7.20557e-05
3.92895e-05
1.64095e-05
9.13689e-06
1.41557e-05
6.82028e-06
2.76653e-06
6.51815e-05
2.28828e-05
1.78716e-05
2.898e-05
7.48728e-05
0.000129435
0.000143293
0.000143942
0.000144573
0.000145165
0.000145729
0.000146296
0.000146905
0.000147589
0.000148377
0.000149289
0.00015034
0.000151534
0.000152873
0.000154342
0.00015592
0.000157565
0.000159223
0.000160816
0.00016224
0.000163363
0.000147081
0.000115772
8.1901e-05
4.50289e-05
1.63973e-05
8.07641e-06
1.369e-05
7.33102e-06
2.58714e-06
2.77128e-05
1.7588e-05
2.65708e-05
8.42899e-05
0.0001405
0.00014426
0.0001454
0.000146547
0.000147587
0.000148518
0.000149367
0.000150167
0.000150958
0.000151775
0.00015265
0.000153605
0.000154658
0.00015582
0.000157094
0.000158476
0.000159952
0.000161496
0.000163065
0.000164594
0.000164408
0.000141481
0.000116877
9.27535e-05
6.62517e-05
3.70619e-05
1.55546e-05
9.32202e-06
1.85835e-05
8.12155e-06
2.46866e-06
2.40995e-05
2.29959e-05
4.3964e-05
6.6121e-05
7.64264e-05
8.40135e-05
9.15907e-05
9.94621e-05
0.000107145
0.000114305
0.000120992
0.0001274
0.000133792
0.000140337
0.000146597
0.00015199
0.00015524
0.000156332
0.000157486
0.000158701
0.000159968
0.000161263
0.000161396
0.000151502
0.000137276
0.000121093
0.000103619
8.39395e-05
6.02198e-05
3.3337e-05
1.41315e-05
9.28255e-06
2.09095e-05
8.55827e-06
2.14622e-06
4.75518e-05
2.82054e-05
2.71647e-05
3.11328e-05
3.49783e-05
3.85142e-05
4.25545e-05
4.76581e-05
5.40606e-05
6.15687e-05
6.94515e-05
7.66923e-05
8.28039e-05
8.82978e-05
9.41662e-05
0.000101055
0.000108746
0.000116399
0.000123004
0.000127635
0.000129947
0.000129897
0.000127299
0.000121948
0.000113838
0.000103165
8.99357e-05
7.33689e-05
5.20823e-05
2.82191e-05
1.2645e-05
9.77988e-06
2.60158e-05
9.24244e-06
3.05815e-06
2.85744e-05
4.89081e-05
3.62225e-05
3.04114e-05
2.74944e-05
2.51867e-05
2.32143e-05
2.16301e-05
2.06307e-05
2.05338e-05
2.18033e-05
2.5164e-05
3.16179e-05
4.15888e-05
5.21202e-05
5.8006e-05
6.05979e-05
6.40694e-05
7.01557e-05
7.82881e-05
8.61854e-05
9.20595e-05
9.53924e-05
9.59539e-05
9.34129e-05
8.75326e-05
7.79673e-05
6.36151e-05
4.35203e-05
2.25686e-05
1.11445e-05
1.02883e-05
3.22542e-05
9.58997e-06
2.7771e-06
2.13595e-05
4.67708e-05
6.64566e-05
7.01775e-05
6.47805e-05
5.77751e-05
5.09553e-05
4.43376e-05
3.79389e-05
3.19183e-05
2.64555e-05
2.17171e-05
1.78455e-05
1.50561e-05
1.39249e-05
1.58529e-05
2.40448e-05
3.99215e-05
4.51661e-05
4.52853e-05
4.93591e-05
5.63775e-05
6.39304e-05
6.9591e-05
7.21387e-05
7.12367e-05
6.6686e-05
5.70208e-05
3.91942e-05
1.86407e-05
9.48314e-06
1.19776e-05
4.6928e-05
9.72114e-06
2.08108e-06
1.63294e-05
3.51627e-05
6.35056e-05
9.62931e-05
0.000119139
0.000126243
0.000121149
0.000109039
9.39395e-05
7.85844e-05
6.46966e-05
5.29622e-05
4.32545e-05
3.50237e-05
2.7742e-05
2.12342e-05
1.54853e-05
1.10131e-05
9.5e-06
1.62454e-05
3.17225e-05
3.34798e-05
4.07874e-05
5.03151e-05
5.72506e-05
6.07254e-05
6.03527e-05
5.50638e-05
4.21756e-05
2.14561e-05
8.85017e-06
1.02894e-05
4.33091e-05
9.66677e-06
1.8111e-06
1.01502e-05
2.40058e-05
4.62687e-05
7.56618e-05
0.00010111
0.000114416
0.000117027
0.000111728
0.000100572
8.65331e-05
7.33905e-05
6.36026e-05
5.82134e-05
5.70336e-05
5.68958e-05
5.18418e-05
4.08765e-05
2.92017e-05
1.87026e-05
1.06775e-05
7.24511e-06
1.32279e-05
2.90969e-05
3.41245e-05
4.40625e-05
5.44433e-05
5.87083e-05
5.53465e-05
4.04991e-05
1.83298e-05
9.0427e-06
1.25537e-05
5.55104e-05
9.78314e-06
3.9018e-06
1.53146e-05
3.93318e-05
7.14077e-05
9.79385e-05
0.000113807
0.00011965
0.000116291
0.000104481
8.72445e-05
7.04453e-05
5.74017e-05
4.75849e-05
4.0983e-05
3.98497e-05
4.68566e-05
6.27064e-05
7.78659e-05
7.00845e-05
4.68603e-05
2.55491e-05
1.28611e-05
8.02632e-06
1.24479e-05
3.37915e-05
4.30066e-05
5.07063e-05
5.83861e-05
6.01658e-05
5.39064e-05
2.78698e-05
7.58511e-06
9.36249e-06
4.39143e-05
1.01477e-05
5.59365e-06
2.57267e-05
8.25322e-05
0.000135634
0.000152701
0.000155943
0.000149081
0.000130723
0.000104113
8.03341e-05
6.68036e-05
6.1247e-05
5.67825e-05
5.0297e-05
4.65436e-05
5.07811e-05
6.49056e-05
8.312e-05
8.76682e-05
6.88061e-05
4.02518e-05
1.85281e-05
8.13255e-06
5.31221e-06
1.45947e-05
3.8795e-05
5.03752e-05
5.95545e-05
5.77804e-05
3.94264e-05
1.83468e-05
8.79828e-06
1.19261e-05
5.74292e-05
1.04531e-05
6.3006e-06
3.18694e-05
9.88078e-05
0.000129802
0.000136087
0.000129448
0.000111245
8.72471e-05
6.57953e-05
5.19518e-05
4.70434e-05
5.07723e-05
6.12555e-05
7.16512e-05
7.38346e-05
7.16002e-05
7.26583e-05
7.69504e-05
7.78509e-05
6.79511e-05
4.6989e-05
2.43032e-05
1.08409e-05
4.82989e-06
6.31324e-06
2.17716e-05
3.84458e-05
4.82683e-05
5.34398e-05
5.04305e-05
1.79844e-05
7.00852e-06
1.11568e-05
6.12315e-05
1.06563e-05
5.75501e-06
2.75732e-05
8.7487e-05
0.000129095
0.000135442
0.000124503
0.00010605
8.95106e-05
7.78702e-05
6.8063e-05
5.80556e-05
5.04016e-05
4.84236e-05
5.32666e-05
6.35919e-05
7.49412e-05
8.28095e-05
8.73308e-05
8.92167e-05
8.41668e-05
6.64635e-05
3.9308e-05
1.62988e-05
5.62879e-06
1.3771e-06
6.00965e-06
2.28214e-05
3.25687e-05
3.35119e-05
2.44283e-05
9.69267e-06
5.49706e-06
1.33855e-05
8.1249e-05
1.08492e-05
5.43268e-06
2.46061e-05
8.33689e-05
0.000132539
0.00013021
0.000106916
8.37656e-05
7.16516e-05
7.10512e-05
7.77089e-05
8.11207e-05
7.27623e-05
6.06244e-05
5.44521e-05
5.72578e-05
6.91278e-05
8.79107e-05
0.000108332
0.000123343
0.00012557
0.000107718
6.97667e-05
2.97771e-05
9.59855e-06
1.9834e-06
3.80861e-06
9.13393e-06
2.79293e-05
2.95993e-05
1.67817e-05
9.17094e-06
8.39157e-06
2.13892e-05
0.000117294
1.11595e-05
5.58637e-06
2.3684e-05
7.70056e-05
0.000123564
0.000113834
8.2948e-05
6.03171e-05
5.01e-05
4.83771e-05
5.38808e-05
6.63965e-05
7.98076e-05
8.15934e-05
7.39713e-05
7.06228e-05
7.84516e-05
9.88858e-05
0.000128648
0.000157658
0.000171949
0.000160487
0.000120286
6.44856e-05
2.32913e-05
6.63084e-06
4.58941e-07
9.63442e-07
1.80912e-06
1.01192e-05
7.19687e-06
6.51043e-06
1.15198e-05
3.45907e-05
0.000112049
1.13504e-05
6.32305e-06
2.96335e-05
0.000100235
0.000127696
9.03543e-05
5.77384e-05
4.58259e-05
4.6772e-05
5.51259e-05
6.60022e-05
7.50522e-05
8.06109e-05
8.29301e-05
8.40368e-05
8.8231e-05
0.000100616
0.000124597
0.00015827
0.000191649
0.000210645
0.000203684
0.000164284
0.000101303
4.42304e-05
1.44166e-05
2.31593e-06
4.45726e-07
1.63099e-06
2.95748e-06
5.81408e-06
6.59002e-06
1.21958e-05
4.22048e-05
8.31283e-05
1.12805e-05
7.15162e-06
3.90658e-05
0.000122635
9.81655e-05
5.26001e-05
3.38121e-05
3.17376e-05
4.2173e-05
6.65631e-05
9.48738e-05
0.000105632
0.000100423
9.35139e-05
9.39551e-05
0.000104614
0.000125408
0.000154025
0.000185914
0.000213666
0.00021784
0.000213517
0.000196102
0.000137091
7.15119e-05
2.82982e-05
8.75147e-06
3.40327e-06
1.4833e-06
3.32238e-07
4.35678e-06
9.64047e-06
1.99913e-05
6.44338e-05
6.41779e-05
1.09538e-05
7.31051e-06
4.35915e-05
0.000110317
7.059e-05
3.83336e-05
2.82162e-05
3.08484e-05
4.55444e-05
7.21132e-05
9.766e-05
0.000108882
0.000109077
0.000107479
0.000110707
0.000120974
0.000136693
0.000154366
0.000170645
0.000182561
0.000187407
0.000183938
0.000171431
0.00014772
0.000109307
6.19429e-05
2.68686e-05
9.0824e-06
2.72972e-07
5.19477e-07
2.48704e-06
7.63124e-06
2.34468e-05
9.61174e-05
4.88125e-05
1.02796e-05
6.75694e-06
3.78748e-05
0.000115325
8.31859e-05
4.6241e-05
3.22643e-05
3.05847e-05
3.78138e-05
5.43708e-05
7.55946e-05
9.25005e-05
0.000103599
0.000112483
0.000121494
0.00013095
0.000139979
0.000147261
0.000151809
0.000152993
0.000150339
0.000143938
0.000134343
0.000122255
0.000108198
9.11185e-05
6.79499e-05
4.13874e-05
2.13809e-05
9.36734e-06
1.6173e-06
2.33323e-06
9.43351e-06
3.7588e-05
5.43231e-05
9.62584e-06
6.61968e-06
3.15483e-05
0.000104952
9.79567e-05
5.74915e-05
3.64232e-05
2.77907e-05
2.65789e-05
3.35141e-05
5.15967e-05
7.99854e-05
0.000109111
0.000131366
0.000146615
0.00015683
0.000163174
0.000166044
0.000165502
0.000161711
0.000155255
0.000146556
0.000136037
0.00012429
0.00011176
9.88344e-05
8.60477e-05
7.37883e-05
6.07332e-05
4.40885e-05
2.39812e-05
9.91487e-06
1.8555e-06
7.06911e-06
4.90607e-05
9.35392e-06
7.47698e-06
3.75457e-05
0.000115667
6.72363e-05
3.77582e-05
3.21903e-05
3.13164e-05
2.87242e-05
3.11072e-05
4.49102e-05
7.59146e-05
0.000120241
0.00015859
0.000178631
0.000184258
0.000183102
0.000179237
0.000173802
0.000167398
0.000160356
0.000152518
0.000143779
0.00013413
0.000123421
0.000111505
0.00010001
9.3124e-05
8.98109e-05
6.99135e-05
3.87576e-05
2.0536e-05
3.34086e-06
1.76136e-06
1.22404e-05
1.03517e-05
8.09464e-06
5.71081e-05
8.30628e-05
3.37589e-05
2.10113e-05
2.49089e-05
3.83304e-05
4.53341e-05
4.96436e-05
6.35354e-05
8.64206e-05
0.000107329
0.000121556
0.000130587
0.000136159
0.000139153
0.000140097
0.000139477
0.000137801
0.000135455
0.000132559
0.000129002
0.00012459
0.000118893
0.000111139
0.000103771
0.000103927
0.000106114
5.71333e-05
2.45124e-05
1.12785e-05
2.35304e-06
2.44869e-06
2.42371e-05
1.13928e-05
7.4561e-06
5.30793e-05
6.99416e-05
3.73458e-05
2.63687e-05
2.722e-05
3.51094e-05
4.46657e-05
5.31087e-05
6.35724e-05
7.89056e-05
9.66766e-05
0.000113141
0.000126022
0.000134368
0.000138477
0.000139444
0.000138193
0.000135273
0.000131315
0.000127024
0.000122799
0.000118552
0.000114024
0.000109168
0.000106702
0.000114728
7.0851e-05
2.03888e-05
9.14734e-06
8.87692e-06
1.01516e-05
2.14006e-05
0.000103482
1.21724e-05
6.56654e-06
3.63204e-05
9.37544e-05
9.61433e-05
5.98006e-05
3.31364e-05
2.4327e-05
2.42478e-05
2.95886e-05
4.01182e-05
5.63044e-05
7.88655e-05
0.000108909
0.000147129
0.000186574
0.000206513
0.00020781
0.000209359
0.000200189
0.00018037
0.00015982
0.00014148
0.000125897
0.000112998
0.000100169
7.90499e-05
4.22394e-05
1.73817e-05
8.60695e-06
1.06485e-05
1.73309e-05
3.16184e-05
8.02927e-05
0.000116984
1.28942e-05
6.13429e-06
2.8911e-05
8.05473e-05
0.000109063
0.000105736
7.06421e-05
3.85335e-05
2.53047e-05
2.15407e-05
2.39697e-05
3.42747e-05
5.58523e-05
8.85509e-05
0.000129214
0.000177982
0.000194964
0.000194148
0.000193289
0.000192491
0.000191773
0.000191043
0.00019012
0.000184073
0.000111364
5.32207e-05
2.31851e-05
1.27524e-05
1.10167e-05
1.51973e-05
3.0804e-05
4.72625e-05
6.7699e-05
0.000124563
6.80848e-05
1.18039e-05
6.18055e-06
2.97929e-05
9.50335e-05
0.000119017
0.00010933
9.88446e-05
8.05552e-05
4.98176e-05
2.97074e-05
2.09525e-05
1.95849e-05
2.70888e-05
5.04661e-05
8.94857e-05
0.000117169
0.000126831
0.000127961
0.000124313
0.000118445
0.000112045
0.000106342
0.000101642
9.11641e-05
5.65514e-05
2.29097e-05
1.10424e-05
9.29063e-06
1.27263e-05
2.49945e-05
6.74969e-05
0.000124572
0.000122996
8.93336e-05
3.55283e-05
9.64447e-06
6.27181e-06
2.85128e-05
8.8105e-05
0.00011753
9.08332e-05
6.27021e-05
5.781e-05
6.89119e-05
6.5749e-05
3.95778e-05
2.34364e-05
1.83854e-05
2.23216e-05
3.83728e-05
6.53821e-05
8.43837e-05
9.01067e-05
8.90286e-05
8.3826e-05
7.63767e-05
6.80504e-05
5.93965e-05
5.03621e-05
3.9934e-05
2.64892e-05
1.41188e-05
9.25261e-06
1.05347e-05
1.77462e-05
3.49369e-05
5.89918e-05
8.68848e-05
9.46848e-05
3.78475e-05
9.20595e-06
6.71027e-06
2.8237e-05
8.58403e-05
0.000114288
8.20228e-05
5.0012e-05
3.83935e-05
4.1569e-05
5.74554e-05
6.78481e-05
4.40637e-05
2.48981e-05
1.96228e-05
2.44693e-05
4.0831e-05
6.81269e-05
9.18779e-05
9.97954e-05
9.58458e-05
8.70822e-05
7.71757e-05
6.73858e-05
5.80236e-05
4.90467e-05
4.00926e-05
3.07158e-05
2.16511e-05
1.55748e-05
1.42171e-05
1.71919e-05
2.4356e-05
2.90276e-05
4.90774e-05
6.48594e-05
8.71826e-06
7.38118e-06
3.16032e-05
9.87217e-05
9.98143e-05
5.56753e-05
3.68408e-05
3.5232e-05
4.17144e-05
5.3525e-05
6.52232e-05
5.77713e-05
3.53338e-05
2.36174e-05
2.41397e-05
3.6757e-05
6.29205e-05
9.17949e-05
0.000106264
0.000105758
9.82223e-05
8.84652e-05
7.83058e-05
6.85427e-05
5.95576e-05
5.10969e-05
4.28878e-05
3.75212e-05
3.69742e-05
3.49015e-05
2.26598e-05
2.46283e-05
1.68943e-05
4.1373e-06
1.02259e-05
9.59459e-06
7.74231e-06
3.4034e-05
0.000102952
7.7127e-05
3.75462e-05
2.63686e-05
3.03752e-05
4.33382e-05
5.76454e-05
6.42976e-05
5.76594e-05
4.13682e-05
3.0146e-05
3.07974e-05
4.67733e-05
7.52592e-05
9.49599e-05
0.0001003
9.82795e-05
9.24878e-05
8.4406e-05
7.54389e-05
6.66408e-05
5.84833e-05
5.19967e-05
5.06052e-05
5.77455e-05
4.81171e-05
2.2556e-05
1.62262e-05
1.54335e-05
5.30848e-06
5.08602e-06
2.79307e-05
1.24241e-05
7.67586e-06
3.41045e-05
9.53095e-05
6.99512e-05
3.54122e-05
2.36626e-05
2.59314e-05
3.81408e-05
5.21275e-05
5.59305e-05
4.93387e-05
4.03389e-05
3.64582e-05
4.54941e-05
8.0643e-05
0.000132234
0.00015229
0.00014876
0.000136588
0.000119866
0.000102489
8.72645e-05
7.6164e-05
7.0221e-05
6.34654e-05
3.00933e-05
1.61551e-05
1.70054e-05
2.38975e-05
2.91356e-05
2.01146e-05
1.3059e-05
2.83385e-05
0.000128784
1.2859e-05
7.43885e-06
3.35543e-05
9.08627e-05
8.20057e-05
4.68368e-05
2.42642e-05
1.76939e-05
2.19009e-05
3.41387e-05
4.48471e-05
4.53939e-05
4.27638e-05
4.66135e-05
6.84944e-05
0.000135743
0.000189347
0.000187265
0.000184427
0.000180456
0.000174945
0.000167468
0.000157754
0.000146878
5.27546e-05
1.76242e-05
1.34801e-05
1.80933e-05
3.09882e-05
5.70989e-05
7.56513e-05
6.32191e-05
5.77406e-05
8.95008e-05
5.21462e-05
1.0889e-05
7.02792e-06
3.06125e-05
8.34901e-05
9.65216e-05
7.51576e-05
3.68056e-05
1.77748e-05
1.30997e-05
1.63333e-05
2.49381e-05
3.52535e-05
4.42446e-05
5.46815e-05
7.19654e-05
9.82393e-05
0.000126374
0.000142796
0.000143326
0.000132155
0.00011431
9.37383e-05
7.26174e-05
5.18102e-05
3.13068e-05
1.66317e-05
1.23798e-05
1.53808e-05
2.46241e-05
4.20432e-05
6.27514e-05
7.63716e-05
9.12237e-05
9.24152e-05
3.84515e-05
8.07679e-06
7.09127e-06
3.12777e-05
8.39227e-05
0.000102744
9.62629e-05
6.8718e-05
3.42216e-05
1.75296e-05
1.25504e-05
1.33706e-05
1.81806e-05
2.67373e-05
3.88984e-05
5.33672e-05
6.7091e-05
7.69983e-05
8.21279e-05
8.30117e-05
8.06642e-05
7.59868e-05
6.94781e-05
6.15325e-05
5.23968e-05
4.21588e-05
3.12555e-05
2.16979e-05
1.6561e-05
1.68239e-05
2.08612e-05
2.69316e-05
3.67982e-05
4.98292e-05
6.89893e-05
4.65133e-05
6.56834e-06
7.27797e-06
3.31262e-05
9.25092e-05
0.000115524
0.000118426
0.000113613
8.77069e-05
4.68782e-05
2.4459e-05
1.53432e-05
1.19084e-05
1.21869e-05
1.65091e-05
2.60448e-05
4.03315e-05
5.43475e-05
6.32062e-05
6.70915e-05
6.78047e-05
6.64234e-05
6.35488e-05
5.9643e-05
5.51764e-05
5.00252e-05
4.30719e-05
3.52787e-05
3.09509e-05
3.12465e-05
3.29435e-05
2.57889e-05
1.69872e-05
2.47335e-05
3.36082e-05
6.22438e-05
5.70273e-06
7.06628e-06
2.98394e-05
8.61786e-05
0.000123808
0.000132382
0.00013239
0.000131562
0.000120904
8.08854e-05
4.39211e-05
2.52208e-05
1.57237e-05
1.09516e-05
9.87759e-06
1.31391e-05
2.24468e-05
3.82357e-05
5.52346e-05
6.5686e-05
6.81613e-05
6.58768e-05
6.18019e-05
5.7675e-05
5.20363e-05
4.39427e-05
4.04359e-05
4.61458e-05
5.43278e-05
4.72668e-05
2.47213e-05
1.08866e-05
2.13763e-05
1.04273e-05
1.02172e-05
7.57107e-06
6.97915e-06
2.81111e-05
8.27141e-05
0.000125444
0.000130665
0.000122486
0.000114112
0.000114819
0.000124538
0.000119686
7.98382e-05
4.36105e-05
2.40066e-05
1.36942e-05
8.97618e-06
9.09708e-06
1.54509e-05
3.09824e-05
5.17173e-05
6.32965e-05
6.34936e-05
5.89117e-05
5.04502e-05
4.39123e-05
5.17316e-05
6.52173e-05
3.30638e-05
1.32096e-05
1.45357e-05
2.05351e-05
2.47121e-05
2.41773e-05
7.26976e-06
6.08792e-06
1.13662e-05
7.13503e-06
2.94162e-05
8.5829e-05
0.000129976
0.000139757
0.000134614
0.000119517
0.00010026
8.80482e-05
9.0166e-05
0.000102866
9.61808e-05
5.68955e-05
2.7555e-05
1.31097e-05
7.034e-06
7.41579e-06
1.75276e-05
3.95691e-05
4.79326e-05
4.33043e-05
3.871e-05
3.84512e-05
5.18697e-05
2.9224e-06
5.12014e-06
1.5319e-05
2.91591e-05
3.97189e-05
4.44131e-05
4.18053e-05
3.2186e-05
2.79623e-05
6.44333e-05
1.35222e-05
7.44344e-06
3.26866e-05
9.35305e-05
0.000134264
0.000142555
0.000138918
0.000128476
0.000111446
8.99376e-05
7.46792e-05
7.44605e-05
8.91575e-05
9.25076e-05
5.22985e-05
2.11761e-05
7.44384e-06
2.41391e-06
6.45861e-06
4.44231e-05
3.35496e-05
2.61499e-05
2.55886e-05
7.77958e-06
2.48251e-06
9.37829e-06
2.9255e-05
6.10869e-05
6.17094e-05
5.26844e-05
5.75123e-05
6.72061e-05
7.30248e-05
9.57335e-05
0.000108077
1.38901e-05
7.78436e-06
3.61946e-05
0.000102694
0.000133954
0.000135538
0.000126548
0.000113469
0.000101092
8.93284e-05
7.62115e-05
6.76551e-05
7.21113e-05
8.7958e-05
8.00855e-05
3.68438e-05
1.19768e-05
1.01713e-06
1.32664e-06
2.20615e-06
7.29277e-06
4.79993e-06
6.81299e-06
1.30858e-06
3.7539e-06
1.36043e-05
4.65752e-05
0.000127056
0.000112631
7.61684e-05
6.73868e-05
8.33266e-05
0.000111072
0.000131129
6.18044e-05
1.22074e-05
7.8863e-06
3.78369e-05
0.000107159
0.000133334
0.000130181
0.000115626
9.7774e-05
8.41316e-05
7.79044e-05
7.65591e-05
7.40947e-05
7.17134e-05
7.62414e-05
8.04266e-05
5.7096e-05
2.32801e-05
6.07808e-06
7.32088e-07
3.75601e-07
6.06843e-06
9.15343e-06
3.99282e-06
6.36846e-07
1.80052e-06
7.3299e-06
2.19241e-05
5.89849e-05
0.000133203
0.000158869
0.000140436
0.000127291
0.000134307
0.000131328
4.97211e-05
1.04544e-05
7.89551e-06
3.86277e-05
0.000112885
0.000134699
0.000125635
0.000107072
8.93419e-05
7.6006e-05
6.78777e-05
6.69198e-05
7.28919e-05
7.95328e-05
8.09355e-05
7.80772e-05
6.62935e-05
4.00029e-05
1.63356e-05
3.46232e-06
2.05456e-06
4.00152e-06
7.17359e-06
9.62425e-06
4.72527e-06
1.74668e-06
2.53791e-06
7.32194e-06
1.70497e-05
3.3917e-05
6.6411e-05
0.000140218
0.000167022
0.000155188
0.000124792
4.74749e-05
1.00683e-05
7.81294e-06
3.74429e-05
0.000112458
0.000133269
0.00011725
9.4455e-05
7.99993e-05
7.38654e-05
6.99755e-05
6.59081e-05
6.57359e-05
7.24657e-05
8.21158e-05
8.52833e-05
7.62182e-05
5.57426e-05
3.15186e-05
1.43553e-05
5.12284e-06
2.42815e-06
4.63777e-06
6.54674e-06
5.39985e-06
2.02265e-06
6.29539e-06
2.96341e-06
2.43577e-06
8.21307e-06
1.58188e-05
2.97717e-05
7.56759e-05
0.000138243
0.000116406
4.85156e-05
1.04701e-05
7.84874e-06
3.66081e-05
0.000111893
0.000130533
0.000106181
7.99896e-05
6.72915e-05
6.50137e-05
6.73165e-05
6.92703e-05
6.94947e-05
7.14216e-05
7.76902e-05
8.50281e-05
8.48503e-05
7.10158e-05
4.82184e-05
2.81925e-05
1.63401e-05
1.22084e-05
1.5274e-05
2.18141e-05
2.45442e-05
2.2468e-05
1.75352e-05
1.11056e-05
4.98284e-06
2.66851e-06
3.32654e-06
6.05965e-06
1.28826e-05
4.23166e-05
0.000113061
5.5508e-05
1.10034e-05
8.0556e-06
3.76464e-05
0.000115493
0.000125653
9.09149e-05
6.63122e-05
5.95337e-05
6.22578e-05
6.69918e-05
7.00342e-05
7.19411e-05
7.49789e-05
8.0557e-05
8.70869e-05
8.90483e-05
8.03311e-05
6.1561e-05
4.17488e-05
2.88215e-05
2.45205e-05
2.92619e-05
4.07536e-05
4.97089e-05
5.03793e-05
4.56319e-05
3.84932e-05
2.99678e-05
2.06568e-05
1.18274e-05
5.60083e-06
1.47891e-06
9.33131e-06
3.57223e-05
7.66187e-05
1.18953e-05
8.3282e-06
3.99697e-05
0.000119708
0.000111014
6.9621e-05
5.10993e-05
5.09607e-05
6.02936e-05
7.07949e-05
7.63844e-05
7.80929e-05
8.04515e-05
8.56485e-05
9.17355e-05
9.34819e-05
8.60354e-05
7.02993e-05
5.34102e-05
4.24296e-05
4.09959e-05
5.08734e-05
6.77475e-05
7.87915e-05
7.95868e-05
7.43006e-05
6.60831e-05
5.58824e-05
4.3312e-05
2.66078e-05
1.2241e-05
2.37166e-06
3.56738e-06
2.20928e-05
9.32735e-05
1.31077e-05
8.61319e-06
4.43787e-05
0.000121324
9.02595e-05
5.32877e-05
4.27321e-05
4.83622e-05
6.21807e-05
7.5109e-05
8.15948e-05
8.36207e-05
8.58239e-05
9.02845e-05
9.50315e-05
9.55494e-05
8.87168e-05
7.64702e-05
6.48012e-05
5.96975e-05
6.61287e-05
8.64206e-05
0.000110895
0.000122875
0.000120927
0.000111251
9.66049e-05
7.56228e-05
4.62402e-05
2.07473e-05
9.79523e-06
5.03566e-06
7.70277e-06
3.69923e-05
7.75746e-05
1.35551e-05
8.71064e-06
4.85757e-05
0.000115217
7.46418e-05
4.53008e-05
3.96753e-05
4.84977e-05
6.39239e-05
7.62644e-05
8.19181e-05
8.38716e-05
8.60422e-05
8.98554e-05
9.35872e-05
9.40185e-05
8.97149e-05
8.30159e-05
7.8687e-05
8.19295e-05
9.7827e-05
0.00012802
0.000161419
0.000177787
0.000170971
0.000148537
0.00011536
7.28974e-05
3.41782e-05
1.47335e-05
9.21842e-06
9.87651e-06
1.95532e-05
7.78458e-05
5.66713e-05
1.27176e-05
8.56228e-06
4.86819e-05
0.000109497
7.69226e-05
4.86962e-05
3.98679e-05
4.37453e-05
5.47955e-05
6.65206e-05
7.42998e-05
7.84335e-05
8.15787e-05
8.52481e-05
8.88023e-05
9.05899e-05
9.00822e-05
8.90342e-05
9.06609e-05
9.84441e-05
0.000114803
0.000138162
0.000158988
0.000164903
0.00015387
0.00013177
0.000102308
6.65774e-05
3.3274e-05
1.47662e-05
9.34774e-06
1.34467e-05
3.53001e-05
0.00011382
4.74245e-05
1.14737e-05
8.21935e-06
4.37758e-05
0.000106953
9.76827e-05
6.63926e-05
4.40157e-05
3.64536e-05
3.9068e-05
4.81374e-05
5.93274e-05
6.84547e-05
7.47078e-05
7.9575e-05
8.39166e-05
8.74735e-05
9.00935e-05
9.26436e-05
9.6798e-05
0.000104095
0.000114726
0.000126077
0.000133099
0.00013209
0.000123402
0.000109543
9.20891e-05
7.04233e-05
4.42816e-05
2.16823e-05
1.10088e-05
1.19986e-05
3.29853e-05
0.000111524
4.62329e-05
1.08159e-05
7.8495e-06
3.81254e-05
9.99776e-05
0.000112571
9.46243e-05
6.06811e-05
3.864e-05
3.0995e-05
3.23969e-05
4.0417e-05
5.25417e-05
6.45119e-05
7.36492e-05
8.0357e-05
8.58188e-05
9.07343e-05
9.55773e-05
0.000100947
0.000107213
0.000113958
0.000119489
0.000121562
0.00011892
0.000111838
0.000101416
8.8709e-05
7.4212e-05
5.70915e-05
3.62569e-05
1.8017e-05
1.15858e-05
2.196e-05
7.89317e-05
5.39711e-05
1.09097e-05
7.55401e-06
3.44942e-05
9.60195e-05
0.000119926
0.000113388
8.87792e-05
5.66817e-05
3.64006e-05
2.82694e-05
2.82848e-05
3.53179e-05
4.82343e-05
6.30595e-05
7.55958e-05
8.51273e-05
9.30349e-05
0.000100466
0.00010778
0.000114654
0.000120152
0.000123077
0.000122653
0.00011869
0.000111448
0.000101347
8.89004e-05
7.51146e-05
6.11489e-05
4.58746e-05
2.74476e-05
1.46006e-05
1.75131e-05
4.99804e-05
6.77473e-05
1.1399e-05
7.46212e-06
3.31333e-05
9.67673e-05
0.000124949
0.000114732
9.56053e-05
7.71352e-05
5.55801e-05
3.70267e-05
2.76152e-05
2.66729e-05
3.37513e-05
4.816e-05
6.60759e-05
8.25322e-05
9.60442e-05
0.000107751
0.000118424
0.000127307
0.000132702
0.000133577
0.000130463
0.000124314
0.000115458
0.000103564
8.837e-05
7.12443e-05
5.58629e-05
4.32398e-05
2.95032e-05
1.79352e-05
1.95063e-05
5.1209e-05
7.33421e-05
1.18245e-05
7.64604e-06
3.34831e-05
9.63811e-05
0.000122746
0.000102568
7.50897e-05
6.42336e-05
6.50351e-05
5.6693e-05
3.82678e-05
2.78503e-05
2.77292e-05
3.72129e-05
5.52984e-05
7.76151e-05
9.87896e-05
0.000116954
0.000132241
0.000143379
0.000147973
0.000145493
0.00013827
0.00012883
0.000117485
0.000102707
8.32759e-05
6.17852e-05
4.53637e-05
3.60549e-05
2.80863e-05
2.16174e-05
2.75281e-05
7.27549e-05
6.65097e-05
1.18115e-05
8.09016e-06
3.60609e-05
0.00010054
0.000119094
9.063e-05
5.96843e-05
4.774e-05
5.18494e-05
6.25226e-05
5.50992e-05
3.67799e-05
2.92712e-05
3.3858e-05
4.98837e-05
7.50742e-05
0.000103036
0.000127953
0.000147135
0.000158193
0.000158914
0.000150714
0.000138448
0.00012587
0.000112864
9.65084e-05
7.48031e-05
5.17801e-05
3.62398e-05
3.05066e-05
2.85327e-05
2.80771e-05
4.2091e-05
0.000102083
5.74071e-05
1.13979e-05
8.58017e-06
4.13396e-05
0.000112771
0.000108734
7.09396e-05
4.8315e-05
4.22722e-05
4.67644e-05
5.73023e-05
5.99997e-05
4.633e-05
3.56967e-05
3.74724e-05
5.24096e-05
7.82824e-05
0.00010828
0.000134934
0.000153551
0.00016113
0.000156827
0.000144173
0.000129212
0.000115919
0.000103893
8.93419e-05
6.91129e-05
4.67053e-05
3.11955e-05
2.64304e-05
2.93464e-05
3.68702e-05
6.08188e-05
0.000116957
5.14944e-05
1.09107e-05
8.777e-06
4.69112e-05
0.000115867
8.64345e-05
5.04545e-05
3.76344e-05
3.97461e-05
4.87563e-05
5.63617e-05
5.66007e-05
4.95372e-05
4.36413e-05
4.68508e-05
6.20791e-05
8.60812e-05
0.000111581
0.000132702
0.00014599
0.000149386
0.000143023
0.000130255
0.000116139
0.000104222
9.45795e-05
8.3847e-05
6.78041e-05
4.72259e-05
3.03626e-05
2.35537e-05
2.75508e-05
4.30145e-05
7.7535e-05
0.000118409
4.8293e-05
1.05767e-05
8.54409e-06
4.71478e-05
0.000108278
7.89334e-05
4.63162e-05
3.34521e-05
3.45172e-05
4.36258e-05
5.15516e-05
5.31339e-05
5.17852e-05
5.24665e-05
5.90896e-05
7.31806e-05
9.18099e-05
0.000110093
0.000124636
0.00013336
0.000134888
0.000129206
0.000118453
0.000106296
9.58886e-05
8.81368e-05
8.10294e-05
7.03228e-05
5.32334e-05
3.45348e-05
2.32894e-05
2.33976e-05
3.87559e-05
7.98964e-05
0.000114697
4.70134e-05
1.04516e-05
8.1709e-06
4.31809e-05
0.000107217
9.63345e-05
6.13913e-05
3.60153e-05
2.7036e-05
2.93079e-05
3.83761e-05
4.7789e-05
5.45508e-05
6.10359e-05
7.00162e-05
8.23515e-05
9.65908e-05
0.000110077
0.000120564
0.000126516
0.000126968
0.000121876
0.000112604
0.000101757
9.19996e-05
8.47741e-05
7.95653e-05
7.36416e-05
6.26803e-05
4.51982e-05
2.86339e-05
2.18614e-05
2.96064e-05
6.28476e-05
0.000109621
4.82696e-05
1.05211e-05
7.9933e-06
3.96587e-05
0.000105724
0.000113379
8.75604e-05
4.89248e-05
2.74256e-05
2.13585e-05
2.52746e-05
3.63572e-05
5.04163e-05
6.37947e-05
7.63162e-05
8.90272e-05
0.000101752
0.00011309
0.000121414
0.000125539
0.00012486
0.000119619
0.000111081
0.000101215
9.20442e-05
8.48997e-05
8.00005e-05
7.62177e-05
7.05755e-05
5.87895e-05
4.07272e-05
2.62133e-05
2.48033e-05
4.36156e-05
9.75018e-05
5.36516e-05
1.08059e-05
8.02185e-06
3.85959e-05
0.00010782
0.000118701
9.88927e-05
6.76821e-05
3.77617e-05
2.25744e-05
1.93582e-05
2.50746e-05
3.84356e-05
5.65514e-05
7.51465e-05
9.17031e-05
0.000105503
0.000116098
0.00012283
0.00012516
0.000123046
0.000117283
0.000109349
0.00010082
9.29359e-05
8.64159e-05
8.15772e-05
7.82646e-05
7.51398e-05
6.8658e-05
5.43366e-05
3.53945e-05
2.57156e-05
3.45226e-05
7.99864e-05
6.26464e-05
1.12045e-05
8.13976e-06
3.9382e-05
0.000110677
0.00011696
9.33008e-05
7.05417e-05
5.03744e-05
3.09386e-05
2.05789e-05
1.9814e-05
2.72658e-05
4.23454e-05
6.26492e-05
8.35259e-05
0.000100794
0.000112425
0.000118167
0.00011868
0.000115099
0.000109031
0.000102313
9.63492e-05
9.15239e-05
8.73517e-05
8.34131e-05
7.99319e-05
7.70082e-05
7.27343e-05
6.23264e-05
4.38694e-05
2.96915e-05
3.36222e-05
7.35281e-05
7.12834e-05
1.15904e-05
8.17597e-06
3.90655e-05
0.000108688
0.000116641
9.04678e-05
6.58382e-05
5.27486e-05
4.0606e-05
2.69233e-05
2.00052e-05
2.13264e-05
3.05416e-05
4.72298e-05
6.82937e-05
8.79632e-05
0.000101193
0.000106369
0.000105092
0.000100116
9.40009e-05
8.89626e-05
8.6487e-05
8.6452e-05
8.69983e-05
8.59572e-05
8.29359e-05
7.90789e-05
7.40361e-05
6.42211e-05
4.75463e-05
3.39346e-05
3.80669e-05
8.04123e-05
7.47019e-05
1.18595e-05
8.1486e-06
3.76523e-05
0.000106818
0.000117863
9.00299e-05
6.42992e-05
5.30621e-05
4.73603e-05
3.6062e-05
2.4322e-05
1.98149e-05
2.31681e-05
3.45502e-05
5.29841e-05
7.31593e-05
8.69807e-05
9.01547e-05
8.5431e-05
7.83144e-05
7.29208e-05
7.18498e-05
7.60072e-05
8.35812e-05
9.01017e-05
9.12477e-05
8.69875e-05
8.07003e-05
7.37348e-05
6.33973e-05
4.88789e-05
3.89885e-05
4.77009e-05
9.80728e-05
7.20609e-05
1.1972e-05
8.24315e-06
3.74365e-05