/*--------------------------------*- C++ -*----------------------------------*\
| =========                 |                                                 |
| \\      /  F ield         | OpenFOAM: The Open Source CFD Toolbox           |
|  \\    /   O peration     | Version:  v1906                                 |
|   \\  /    A nd           | Web:      www.OpenFOAM.com                      |
|    \\/     M anipulation  |                                                 |
\*---------------------------------------------------------------------------*/
FoamFile
{
    version     2.0;
    format      ascii;
    class       volVectorField;
    location    "87.4/oil";
    object      U;
}
// * * * * * * * * * * * * * * * * * * * * * * * * * * * * * * * * * * * * * //

dimensions      [0 1 -1 0 0 0 0];


internalField   nonuniform List<vector> 
27760
(
(-2.37257e-05 -2.4168e-05 -2.37257e-05)
(-4.68285e-05 -1.81263e-05 -1.70979e-05)
(-3.40355e-06 -4.69209e-06 -4.69035e-06)
(-5.52432e-06 -7.54145e-07 -8.75576e-07)
(-1.05865e-06 -2.29593e-07 -3.72556e-07)
(-2.96495e-07 -8.27937e-08 -2.39993e-07)
(3.90127e-07 7.1723e-09 -1.62518e-07)
(7.45956e-07 4.7536e-08 -1.31386e-07)
(9.46115e-07 7.16476e-08 -1.13187e-07)
(1.02099e-06 8.75467e-08 -1.00291e-07)
(9.92343e-07 9.90147e-08 -8.95049e-08)
(8.73565e-07 1.07986e-07 -7.97648e-08)
(6.79432e-07 1.14704e-07 -7.17548e-08)
(4.27286e-07 1.19264e-07 -6.59641e-08)
(1.38216e-07 1.21614e-07 -6.28594e-08)
(-1.64288e-07 1.21759e-07 -6.27148e-08)
(-4.56073e-07 1.19743e-07 -6.54866e-08)
(-7.14279e-07 1.15667e-07 -7.07902e-08)
(-9.1938e-07 1.09778e-07 -7.79614e-08)
(-1.0569e-06 1.02355e-07 -8.60964e-08)
(-1.11868e-06 9.37678e-08 -9.4006e-08)
(-1.10296e-06 8.44353e-08 -1.00233e-07)
(-1.01524e-06 7.41555e-08 -1.04017e-07)
(-8.67946e-07 6.34943e-08 -1.03962e-07)
(-6.78915e-07 5.27196e-08 -9.90611e-08)
(-4.71199e-07 4.2336e-08 -8.8698e-08)
(-2.71518e-07 3.33755e-08 -7.30368e-08)
(-1.08529e-07 2.76468e-08 -5.35201e-08)
(-7.2134e-09 2.72487e-08 -3.38473e-08)
(1.41065e-08 2.76345e-08 -1.40806e-08)
(-1.72091e-05 -4.81032e-05 -1.72091e-05)
(-5.61261e-06 -6.26097e-06 -7.70914e-06)
(-7.51368e-06 -7.60402e-06 -2.7012e-06)
(-3.25402e-06 -2.25095e-06 -7.84921e-07)
(-9.09419e-07 -1.39394e-06 -4.02683e-07)
(3.00176e-07 -7.75309e-07 -2.11299e-07)
(1.19392e-06 -4.89293e-07 -1.17002e-07)
(1.74946e-06 -3.13208e-07 -6.86879e-08)
(2.07082e-06 -1.89627e-07 -3.73914e-08)
(2.17924e-06 -9.0349e-08 -1.35979e-08)
(2.09373e-06 -6.24521e-09 6.87471e-09)
(1.83223e-06 6.50084e-08 2.4631e-08)
(1.41985e-06 1.21787e-07 3.91464e-08)
(8.90581e-07 1.61795e-07 4.95749e-08)
(2.86601e-07 1.82974e-07 5.51725e-08)
(-3.44567e-07 1.84162e-07 5.54487e-08)
(-9.53926e-07 1.65627e-07 5.04771e-08)
(-1.49497e-06 1.29164e-07 4.09248e-08)
(-1.92793e-06 7.78229e-08 2.78443e-08)
(-2.22329e-06 1.57158e-08 1.26795e-08)
(-2.36425e-06 -5.22894e-08 -2.89588e-09)
(-2.34799e-06 -1.20869e-07 -1.70529e-08)
(-2.1855e-06 -1.8507e-07 -2.80204e-08)
(-1.90103e-06 -2.39254e-07 -3.44843e-08)
(-1.53039e-06 -2.77714e-07 -3.53803e-08)
(-1.11815e-06 -2.93979e-07 -3.03479e-08)
(-7.14179e-07 -2.80288e-07 -2.02044e-08)
(-3.68434e-07 -2.28115e-07 -7.513e-09)
(-1.22682e-07 -1.31446e-07 2.33774e-09)
(-4.49025e-09 -1.28531e-08 4.52933e-09)
(-4.75419e-06 -4.56077e-06 -4.75416e-06)
(-7.40804e-06 -8.64051e-06 -2.73902e-06)
(-3.67228e-06 -5.05635e-06 -1.19629e-06)
(-1.84972e-06 -3.10076e-06 -5.54782e-07)
(-1.19811e-07 -2.29061e-06 -2.50903e-07)
(1.05161e-06 -1.75522e-06 -1.01438e-07)
(1.94931e-06 -1.43267e-06 -2.16944e-08)
(2.55459e-06 -1.18741e-06 2.46981e-08)
(2.90561e-06 -9.78608e-07 5.77618e-08)
(3.0047e-06 -7.88037e-07 8.46881e-08)
(2.86092e-06 -6.13419e-07 1.08408e-07)
(2.49092e-06 -4.59563e-07 1.29142e-07)
(1.92453e-06 -3.34039e-07 1.46137e-07)
(1.20509e-06 -2.44515e-07 1.58314e-07)
(3.87427e-07 -1.96944e-07 1.64768e-07)
(-4.65998e-07 -1.94466e-07 1.65084e-07)
(-1.29022e-06 -2.3661e-07 1.59336e-07)
(-2.02382e-06 -3.19152e-07 1.48114e-07)
(-2.61436e-06 -4.34577e-07 1.32613e-07)
(-3.02285e-06 -5.72617e-07 1.1444e-07)
(-3.22708e-06 -7.21136e-07 9.53957e-08)
(-3.22316e-06 -8.66872e-07 7.73475e-08)
(-3.02543e-06 -9.96005e-07 6.1991e-08)
(-2.66516e-06 -1.09465e-06 5.06504e-08)
(-2.18763e-06 -1.14835e-06 4.41137e-08)
(-1.64838e-06 -1.14179e-06 4.23539e-08)
(-1.10813e-06 -1.05831e-06 4.41111e-08)
(-6.25426e-07 -8.80799e-07 4.62057e-08)
(-2.51544e-07 -5.94747e-07 4.26425e-08)
(-2.35878e-08 -2.11345e-07 2.3633e-08)
(-8.44132e-07 -6.69903e-06 -8.44106e-07)
(-1.82824e-06 -5.44999e-06 -7.46313e-07)
(-1.2915e-06 -4.83054e-06 -5.23111e-07)
(-3.01709e-07 -3.95863e-06 -2.49284e-07)
(8.81215e-07 -3.47338e-06 -8.83748e-08)
(1.87714e-06 -3.09354e-06 4.59724e-09)
(2.70184e-06 -2.79213e-06 6.25464e-08)
(3.29194e-06 -2.50599e-06 1.0211e-07)
(3.63044e-06 -2.22052e-06 1.33847e-07)
(3.69838e-06 -1.93488e-06 1.61748e-07)
(3.49292e-06 -1.65956e-06 1.87175e-07)
(3.02713e-06 -1.41008e-06 2.09731e-07)
(2.33266e-06 -1.20331e-06 2.28323e-07)
(1.45893e-06 -1.05464e-06 2.41683e-07)
(4.69934e-07 -9.75525e-07 2.48788e-07)
(-5.6073e-07 -9.7179e-07 2.49105e-07)
(-1.55639e-06 -1.04283e-06 2.427e-07)
(-2.44432e-06 -1.18144e-06 2.30252e-07)
(-3.16236e-06 -1.37426e-06 2.13024e-07)
(-3.66448e-06 -1.60302e-06 1.92697e-07)
(-3.92436e-06 -1.84605e-06 1.71143e-07)
(-3.9373e-06 -2.07965e-06 1.50244e-07)
(-3.7197e-06 -2.27926e-06 1.31645e-07)
(-3.30722e-06 -2.42008e-06 1.16604e-07)
(-2.75107e-06 -2.47704e-06 1.05732e-07)
(-2.11326e-06 -2.4245e-06 9.87918e-08)
(-1.46103e-06 -2.23551e-06 9.43286e-08)
(-8.58676e-07 -1.88172e-06 8.87395e-08)
(-3.67739e-07 -1.33131e-06 7.5422e-08)
(-3.97173e-08 -5.51436e-07 3.97696e-08)
(-2.61059e-07 -2.71208e-06 -2.6103e-07)
(-7.37311e-07 -4.41456e-06 -2.9757e-07)
(-1.47961e-07 -4.96522e-06 -1.82473e-07)
(6.94738e-07 -4.97373e-06 -5.85454e-08)
(1.69129e-06 -4.9003e-06 2.78148e-08)
(2.61469e-06 -4.72815e-06 8.56784e-08)
(3.40414e-06 -4.49201e-06 1.27868e-07)
(3.98177e-06 -4.19111e-06 1.61682e-07)
(4.30345e-06 -3.84111e-06 1.92166e-07)
(4.33687e-06 -3.46293e-06 2.20958e-07)
(4.07073e-06 -3.08345e-06 2.4813e-07)
(3.51528e-06 -2.73199e-06 2.72648e-07)
(2.70359e-06 -2.43715e-06 2.93015e-07)
(1.69009e-06 -2.22381e-06 3.07707e-07)
(5.46705e-07 -2.1101e-06 3.15521e-07)
(-6.4328e-07 -2.10536e-06 3.15816e-07)
(-1.79279e-06 -2.20895e-06 3.08644e-07)
(-2.81915e-06 -2.41007e-06 2.94756e-07)
(-3.65175e-06 -2.68865e-06 2.75542e-07)
(-4.23833e-06 -3.01714e-06 2.52804e-07)
(-4.54916e-06 -3.36282e-06 2.28559e-07)
(-4.57877e-06 -3.69003e-06 2.04788e-07)
(-4.34518e-06 -3.96183e-06 1.83176e-07)
(-3.88747e-06 -4.14132e-06 1.64967e-07)
(-3.26147e-06 -4.19171e-06 1.50711e-07)
(-2.53435e-06 -4.07587e-06 1.40057e-07)
(-1.77898e-06 -3.75477e-06 1.31422e-07)
(-1.06577e-06 -3.18461e-06 1.20802e-07)
(-4.67796e-07 -2.30586e-06 1.00835e-07)
(-5.26115e-08 -1.01352e-06 5.26744e-08)
(-9.0028e-08 -2.62117e-06 -8.999e-08)
(8.13792e-09 -4.75632e-06 -6.71021e-08)
(6.08403e-07 -5.89809e-06 -5.68323e-09)
(1.42862e-06 -6.44097e-06 5.63035e-08)
(2.37238e-06 -6.68277e-06 1.05799e-07)
(3.2813e-06 -6.68776e-06 1.44422e-07)
(4.06745e-06 -6.51778e-06 1.77696e-07)
(4.64561e-06 -6.20828e-06 2.0873e-07)
(4.95638e-06 -5.79861e-06 2.39586e-07)
(4.95837e-06 -5.32956e-06 2.70405e-07)
(4.63418e-06 -4.8448e-06 3.00325e-07)
(3.99202e-06 -4.38846e-06 3.2772e-07)
(3.06657e-06 -4.00215e-06 3.50651e-07)
(1.9172e-06 -3.72121e-06 3.67244e-07)
(6.23689e-07 -3.5714e-06 3.7606e-07)
(-7.21127e-07 -3.566e-06 3.76324e-07)
(-2.01987e-06 -3.70436e-06 3.68074e-07)
(-3.18005e-06 -3.97182e-06 3.52164e-07)
(-4.12274e-06 -4.34096e-06 3.3017e-07)
(-4.7897e-06 -4.77406e-06 3.04148e-07)
(-5.14807e-06 -5.22645e-06 2.76372e-07)
(-5.19173e-06 -5.64937e-06 2.49025e-07)
(-4.94046e-06 -5.99271e-06 2.23928e-07)
(-4.43684e-06 -6.20664e-06 2.0242e-07)
(-3.74121e-06 -6.24175e-06 1.8507e-07)
(-2.92601e-06 -6.04825e-06 1.71471e-07)
(-2.0703e-06 -5.57279e-06 1.59907e-07)
(-1.25154e-06 -4.75129e-06 1.45926e-07)
(-5.54827e-07 -3.48649e-06 1.21246e-07)
(-6.32094e-08 -1.57894e-06 6.32877e-08)
(8.84848e-09 -2.74093e-06 8.90072e-09)
(3.61042e-07 -5.57505e-06 5.06681e-08)
(1.06441e-06 -7.27533e-06 9.1523e-08)
(1.95363e-06 -8.26089e-06 1.27979e-07)
(2.93288e-06 -8.78505e-06 1.59923e-07)
(3.87785e-06 -8.95465e-06 1.89123e-07)
(4.69315e-06 -8.85255e-06 2.18551e-07)
(5.2903e-06 -8.54003e-06 2.49539e-07)
(5.60138e-06 -8.07652e-06 2.82592e-07)
(5.57871e-06 -7.52093e-06 3.16917e-07)
(5.20048e-06 -6.93338e-06 3.50912e-07)
(4.47362e-06 -6.37319e-06 3.82389e-07)
(3.43473e-06 -5.89535e-06 4.08897e-07)
(2.14864e-06 -5.54648e-06 4.28118e-07)
(7.03338e-07 -5.36041e-06 4.38308e-07)
(-7.98159e-07 -5.35467e-06 4.38537e-07)
(-2.24767e-06 -5.52869e-06 4.28833e-07)
(-3.54235e-06 -5.86372e-06 4.10176e-07)
(-4.59462e-06 -6.32458e-06 3.84405e-07)
(-5.34021e-06 -6.86283e-06 3.53962e-07)
(-5.74314e-06 -7.42118e-06 3.21483e-07)
(-5.79711e-06 -7.93742e-06 2.89473e-07)
(-5.52419e-06 -8.34784e-06 2.60041e-07)
(-4.97086e-06 -8.5892e-06 2.34663e-07)
(-4.20264e-06 -8.59881e-06 2.14002e-07)
(-3.29792e-06 -8.31296e-06 1.97611e-07)
(-2.34263e-06 -7.66155e-06 1.83631e-07)
(-1.42204e-06 -6.55556e-06 1.67114e-07)
(-6.32934e-07 -4.8508e-06 1.38723e-07)
(-7.24101e-08 -2.23495e-06 7.25096e-08)
(5.12954e-08 -3.25254e-06 5.13648e-08)
(5.66603e-07 -6.82375e-06 1.11228e-07)
(1.37848e-06 -9.04785e-06 1.47212e-07)
(2.36152e-06 -1.04223e-05 1.74509e-07)
(3.41268e-06 -1.12045e-05 1.99418e-07)
(4.42107e-06 -1.15292e-05 2.25409e-07)
(5.28682e-06 -1.14967e-05 2.54746e-07)
(5.91806e-06 -1.11879e-05 2.88145e-07)
(6.24032e-06 -1.06788e-05 3.25281e-07)
(6.20053e-06 -1.00446e-05 3.64766e-07)
(5.77305e-06 -9.361e-06 4.04378e-07)
(4.96364e-06 -8.70198e-06 4.41294e-07)
(3.81118e-06 -8.13615e-06 4.72498e-07)
(2.38631e-06 -7.7216e-06 4.95158e-07)
(7.85954e-07 -7.50046e-06 5.07144e-07)
(-8.75912e-07 -7.49469e-06 5.07333e-07)
(-2.47947e-06 -7.70378e-06 4.95743e-07)
(-3.9108e-06 -8.10484e-06 4.73537e-07)
(-5.07308e-06 -8.65459e-06 4.42901e-07)
(-5.8958e-06 -9.29367e-06 4.06755e-07)
(-6.34019e-06 -9.95206e-06 3.68208e-07)
(-6.40027e-06 -1.05539e-05 3.3025e-07)
(-6.10104e-06 -1.10218e-05 2.95375e-07)
(-5.49362e-06 -1.1279e-05 2.65273e-07)
(-4.64961e-06 -1.12493e-05 2.40743e-07)
(-3.65399e-06 -1.08538e-05 2.21305e-07)
(-2.60006e-06 -1.00034e-05 2.04957e-07)
(-1.58116e-06 -8.57976e-06 1.86199e-07)
(-7.04936e-07 -6.38367e-06 1.54579e-07)
(-8.08153e-08 -2.97345e-06 8.09403e-08)
(7.47874e-08 -3.94706e-06 7.48789e-08)
(6.97966e-07 -8.34757e-06 1.47654e-07)
(1.61051e-06 -1.11198e-05 1.83464e-07)
(2.69186e-06 -1.28796e-05 2.08017e-07)
(3.82959e-06 -1.39198e-05 2.31002e-07)
(4.91537e-06 -1.4404e-05 2.57316e-07)
(5.84462e-06 -1.44512e-05 2.89124e-07)
(6.52103e-06 -1.4159e-05 3.2693e-07)
(6.86395e-06 -1.36187e-05 3.69933e-07)
(6.81472e-06 -1.29198e-05 4.16226e-07)
(6.34378e-06 -1.21523e-05 4.63004e-07)
(5.45556e-06 -1.14047e-05 5.06781e-07)
(4.1911e-06 -1.07585e-05 5.43881e-07)
(2.62716e-06 -1.02833e-05 5.70832e-07)
(8.70207e-07 -1.00296e-05 5.85033e-07)
(-9.54092e-07 -1.0024e-05 5.85184e-07)
(-2.71335e-06 -1.0266e-05 5.71301e-07)
(-4.28181e-06 -1.07285e-05 5.44711e-07)
(-5.55303e-06 -1.13601e-05 5.08029e-07)
(-6.45022e-06 -1.20903e-05 4.64804e-07)
(-6.93196e-06 -1.28364e-05 4.18777e-07)
(-6.9934e-06 -1.35094e-05 3.73499e-07)
(-6.66332e-06 -1.40186e-05 3.31907e-07)
(-5.99846e-06 -1.4274e-05 2.96032e-07)
(-5.07706e-06 -1.41859e-05 2.66838e-07)
(-3.99114e-06 -1.36597e-05 2.43868e-07)
(-2.84156e-06 -1.25849e-05 2.2492e-07)
(-1.72931e-06 -1.08101e-05 2.03924e-07)
(-7.71732e-07 -8.07344e-06 1.69341e-07)
(-8.86893e-08 -3.78862e-06 8.88436e-08)
(8.90672e-08 -4.76999e-06 8.9185e-08)
(7.90961e-07 -1.00847e-05 1.71592e-07)
(1.79092e-06 -1.34408e-05 2.09121e-07)
(2.96402e-06 -1.56004e-05 2.33912e-07)
(4.18883e-06 -1.69112e-05 2.57733e-07)
(5.35505e-06 -1.75697e-05 2.86586e-07)
(6.353e-06 -1.7715e-05 3.22783e-07)
(7.0809e-06 -1.74606e-05 3.66695e-07)
(7.45181e-06 -1.69113e-05 4.17269e-07)
(7.4011e-06 -1.61695e-05 4.72084e-07)
(6.89438e-06 -1.53381e-05 5.27704e-07)
(5.93406e-06 -1.45182e-05 5.79897e-07)
(4.56303e-06 -1.38042e-05 6.24167e-07)
(2.864e-06 -1.32767e-05 6.56308e-07)
(9.5336e-07 -1.29949e-05 6.73214e-07)
(-1.03077e-06 -1.29896e-05 6.73327e-07)
(-2.94294e-06 -1.32607e-05 6.56656e-07)
(-4.6449e-06 -1.37764e-05 6.24769e-07)
(-6.02017e-06 -1.44773e-05 5.80813e-07)
(-6.98592e-06 -1.52821e-05 5.29045e-07)
(-7.49893e-06 -1.6096e-05 4.73934e-07)
(-7.55628e-06 -1.68173e-05 4.19795e-07)
(-7.19151e-06 -1.73434e-05 3.70126e-07)
(-6.46782e-06 -1.7572e-05 3.27352e-07)
(-5.47041e-06 -1.74001e-05 2.92611e-07)
(-4.29859e-06 -1.67171e-05 2.65465e-07)
(-3.0602e-06 -1.539e-05 2.43569e-07)
(-1.8628e-06 -1.32304e-05 2.20272e-07)
(-8.31999e-07 -9.90733e-06 1.82905e-07)
(-9.59621e-08 -4.67462e-06 9.61504e-08)
(9.87222e-08 -5.6833e-06 9.88585e-08)
(8.58615e-07 -1.19857e-05 1.88451e-07)
(1.92893e-06 -1.59636e-05 2.28112e-07)
(3.17925e-06 -1.85462e-05 2.54406e-07)
(4.48129e-06 -2.01492e-05 2.80586e-07)
(5.72172e-06 -2.10059e-05 3.13429e-07)
(6.78613e-06 -2.12773e-05 3.5545e-07)
(7.56715e-06 -2.10919e-05 4.07008e-07)
(7.9714e-06 -2.05663e-05 4.66753e-07)
(7.92755e-06 -1.98136e-05 5.3181e-07)
(7.39548e-06 -1.89473e-05 5.98024e-07)
(6.37456e-06 -1.80799e-05 6.60277e-07)
(4.90849e-06 -1.73173e-05 7.13173e-07)
(3.08537e-06 -1.67504e-05 7.51575e-07)
(1.03139e-06 -1.64468e-05 7.71723e-07)
(-1.10257e-06 -1.64419e-05 7.71805e-07)
(-3.15738e-06 -1.67355e-05 7.51827e-07)
(-4.98209e-06 -1.72918e-05 7.13606e-07)
(-6.45042e-06 -1.8043e-05 6.60922e-07)
(-7.47415e-06 -1.88977e-05 5.98921e-07)
(-8.00924e-06 -1.97498e-05 5.33078e-07)
(-8.05584e-06 -2.04865e-05 4.68505e-07)
(-7.65347e-06 -2.09949e-05 4.09331e-07)
(-6.87243e-06 -2.11623e-05 3.58463e-07)
(-5.80503e-06 -2.08739e-05 3.17273e-07)
(-4.55716e-06 -2.00032e-05 2.85339e-07)
(-3.24256e-06 -1.83937e-05 2.60097e-07)
(-1.97386e-06 -1.58173e-05 2.34403e-07)
(-8.82468e-07 -1.18672e-05 1.94591e-07)
(-1.02273e-07 -5.62323e-06 1.02501e-07)
(1.05067e-07 -6.6608e-06 1.05241e-07)
(9.03341e-07 -1.40064e-05 1.99742e-07)
(2.02167e-06 -1.86381e-05 2.41291e-07)
(3.32655e-06 -2.16684e-05 2.69567e-07)
(4.68601e-06 -2.35901e-05 2.98877e-07)
(5.98495e-06 -2.46769e-05 3.36697e-07)
(7.10564e-06 -2.5112e-05 3.85696e-07)
(7.9362e-06 -2.5038e-05 4.46248e-07)
(8.37682e-06 -2.4581e-05 5.16762e-07)
(8.34913e-06 -2.38621e-05 5.93887e-07)
(7.80625e-06 -2.30025e-05 6.72704e-07)
(6.74291e-06 -2.21234e-05 7.47064e-07)
(5.20194e-06 -2.13402e-05 8.10413e-07)
(3.27552e-06 -2.07531e-05 8.56511e-07)
(1.09889e-06 -2.04372e-05 8.80683e-07)
(-1.16435e-06 -2.04328e-05 8.80733e-07)
(-3.34128e-06 -2.07396e-05 8.56646e-07)
(-5.26829e-06 -2.13173e-05 8.10648e-07)
(-6.81e-06 -2.20907e-05 7.47452e-07)
(-7.87407e-06 -2.29589e-05 6.73268e-07)
(-8.41755e-06 -2.38068e-05 5.94727e-07)
(-8.44539e-06 -2.45135e-05 5.1793e-07)
(-8.00408e-06 -2.49579e-05 4.47795e-07)
(-7.17119e-06 -2.50194e-05 3.87687e-07)
(-6.04594e-06 -2.45735e-05 3.39177e-07)
(-4.73944e-06 -2.34793e-05 3.01861e-07)
(-3.36926e-06 -2.15561e-05 2.72997e-07)
(-2.05064e-06 -1.85339e-05 2.44965e-07)
(-9.17802e-07 -1.39247e-05 2.03222e-07)
(-1.06982e-07 -6.62123e-06 1.07252e-07)
(1.08193e-07 -7.67568e-06 1.08378e-07)
(9.21843e-07 -1.60955e-05 2.0507e-07)
(2.05828e-06 -2.14012e-05 2.47722e-07)
(3.3852e-06 -2.49003e-05 2.77985e-07)
(4.7713e-06 -2.71691e-05 3.108e-07)
(6.10247e-06 -2.85232e-05 3.54083e-07)
(7.26024e-06 -2.91683e-05 4.10751e-07)
(8.13013e-06 -2.92597e-05 4.81228e-07)
(8.60709e-06 -2.89301e-05 5.63755e-07)
(8.60575e-06 -2.83049e-05 6.54529e-07)
(8.07147e-06 -2.75092e-05 7.47875e-07)
(6.99233e-06 -2.66687e-05 8.36538e-07)
(5.40801e-06 -2.59049e-05 9.12434e-07)
(3.41248e-06 -2.53252e-05 9.67912e-07)
(1.14836e-06 -2.50112e-05 9.9708e-07)
(-1.20894e-06 -2.50071e-05 9.9709e-07)
(-3.47293e-06 -2.5313e-05 9.67953e-07)
(-5.4682e-06 -2.58844e-05 9.12516e-07)
(-7.05201e-06 -2.66395e-05 8.36696e-07)
(-8.13035e-06 -2.74709e-05 7.4817e-07)
(-8.66359e-06 -2.82573e-05 6.55013e-07)
(-8.66342e-06 -2.8873e-05 5.64441e-07)
(-8.18418e-06 -2.91934e-05 4.82211e-07)
(-7.31075e-06 -2.90934e-05 4.12037e-07)
(-6.14786e-06 -2.84415e-05 3.55697e-07)
(-4.80964e-06 -2.70837e-05 3.12702e-07)
(-3.41471e-06 -2.48162e-05 2.80118e-07)
(-2.0775e-06 -2.13252e-05 2.49954e-07)
(-9.30904e-07 -1.60375e-05 2.07129e-07)
(-1.09247e-07 -7.64862e-06 1.09568e-07)
(1.07381e-07 -8.69578e-06 1.07608e-07)
(9.07415e-07 -1.81884e-05 2.03105e-07)
(2.02283e-06 -2.41701e-05 2.45658e-07)
(3.32797e-06 -2.81503e-05 2.77403e-07)
(4.69738e-06 -3.07916e-05 3.1354e-07)
(6.02219e-06 -3.24529e-05 3.62224e-07)
(7.18701e-06 -3.33614e-05 4.26522e-07)
(8.07777e-06 -3.36833e-05 5.0711e-07)
(8.58658e-06 -3.35543e-05 6.0226e-07)
(8.62173e-06 -3.30994e-05 7.07859e-07)
(8.12062e-06 -3.24424e-05 8.1747e-07)
(7.0626e-06 -3.17084e-05 9.22592e-07)
(5.48085e-06 -3.10198e-05 1.01342e-06)
(3.4677e-06 -3.04868e-05 1.08045e-06)
(1.17011e-06 -3.0195e-05 1.11596e-06)
(-1.2266e-06 -3.01913e-05 1.11594e-06)
(-3.52371e-06 -3.04758e-05 1.08042e-06)
(-5.53592e-06 -3.10014e-05 1.01337e-06)
(-7.11625e-06 -3.16825e-05 9.22562e-07)
(-8.17255e-06 -3.24089e-05 8.17525e-07)
(-8.67149e-06 -3.30584e-05 7.08116e-07)
(-8.63355e-06 -3.3506e-05 6.02682e-07)
(-8.12149e-06 -3.36282e-05 5.0774e-07)
(-7.22661e-06 -3.33005e-05 4.27343e-07)
(-6.05661e-06 -3.23877e-05 3.63234e-07)
(-4.72556e-06 -3.07251e-05 3.14738e-07)
(-3.34891e-06 -2.80863e-05 2.78759e-07)
(-2.03596e-06 -2.41135e-05 2.47074e-07)
(-9.13296e-07 -1.81461e-05 2.04377e-07)
(-1.07986e-07 -8.67658e-06 1.08352e-07)
(1.01663e-07 -9.68017e-06 1.01905e-07)
(8.51882e-07 -2.0202e-05 1.9187e-07)
(1.89685e-06 -2.68372e-05 2.32563e-07)
(3.12387e-06 -3.12968e-05 2.64785e-07)
(4.41974e-06 -3.43289e-05 3.03332e-07)
(5.68572e-06 -3.63348e-05 3.56325e-07)
(6.81461e-06 -3.75628e-05 4.2714e-07)
(7.69717e-06 -3.81865e-05 5.1669e-07)
(8.22625e-06 -3.83415e-05 6.23378e-07)
(8.30624e-06 -3.81475e-05 7.43082e-07)
(7.86664e-06 -3.77208e-05 8.68803e-07)
(6.87665e-06 -3.71788e-05 9.90948e-07)
(5.35995e-06 -3.66378e-05 1.09788e-06)
(3.40264e-06 -3.62043e-05 1.17782e-06)
(1.15091e-06 -3.59623e-05 1.22058e-06)
(-1.20413e-06 -3.5959e-05 1.22054e-06)
(-3.45512e-06 -3.61943e-05 1.17771e-06)
(-5.41101e-06 -3.66213e-05 1.09773e-06)
(-6.9256e-06 -3.71557e-05 9.90819e-07)
(-7.91295e-06 -3.76913e-05 8.68722e-07)
(-8.34958e-06 -3.81118e-05 7.43096e-07)
(-8.26625e-06 -3.83002e-05 6.23521e-07)
(-7.73337e-06 -3.81404e-05 5.17002e-07)
(-6.84642e-06 -3.75129e-05 4.27623e-07)
(-5.71253e-06 -3.62824e-05 3.56967e-07)
(-4.44095e-06 -3.42764e-05 3.04095e-07)
(-3.13904e-06 -3.1247e-05 2.65627e-07)
(-1.90602e-06 -2.67942e-05 2.33458e-07)
(-8.55775e-07 -2.01703e-05 1.92695e-07)
(-1.01999e-07 -9.66606e-06 1.0241e-07)
(8.99835e-08 -1.05785e-05 9.02381e-08)
(7.4698e-07 -2.20342e-05 1.6941e-07)
(1.6622e-06 -2.92695e-05 2.05989e-07)
(2.7429e-06 -3.41858e-05 2.37022e-07)
(3.89512e-06 -3.76128e-05 2.76223e-07)
(5.03584e-06 -3.99916e-05 3.31303e-07)
(6.07204e-06 -4.15891e-05 4.05742e-07)
(6.90492e-06 -4.25839e-05 5.00825e-07)
(7.43293e-06 -4.31079e-05 6.15425e-07)
(7.56077e-06 -4.32709e-05 7.45729e-07)
(7.21242e-06 -4.31752e-05 8.84569e-07)
(6.34691e-06 -4.29222e-05 1.02144e-06)
(4.97519e-06 -4.26131e-05 1.143e-06)
(3.17168e-06 -4.2342e-05 1.23519e-06)
(1.07498e-06 -4.21836e-05 1.28513e-06)
(-1.12551e-06 -4.21806e-05 1.28509e-06)
(-3.22124e-06 -4.2333e-05 1.23509e-06)
(-5.02295e-06 -4.25984e-05 1.14282e-06)
(-6.39214e-06 -4.29016e-05 1.02123e-06)
(-7.25464e-06 -4.31492e-05 8.84392e-07)
(-7.59947e-06 -4.32402e-05 7.45662e-07)
(-7.46776e-06 -4.30728e-05 6.15457e-07)
(-6.93557e-06 -4.25451e-05 5.00953e-07)
(-6.09824e-06 -4.15476e-05 4.05994e-07)
(-5.05726e-06 -3.99489e-05 3.31675e-07)
(-3.91156e-06 -3.75707e-05 2.76703e-07)
(-2.75427e-06 -3.41465e-05 2.37583e-07)
(-1.66881e-06 -2.92361e-05 2.06572e-07)
(-7.49631e-07 -2.20099e-05 1.69975e-07)
(-9.01522e-08 -1.05679e-05 9.06057e-08)
(7.14282e-08 -1.13318e-05 7.16831e-08)
(5.86334e-07 -2.35659e-05 1.34016e-07)
(1.30512e-06 -3.13106e-05 1.63689e-07)
(2.16212e-06 -3.66342e-05 1.91258e-07)
(3.08971e-06 -4.04383e-05 2.28296e-07)
(4.02654e-06 -4.31992e-05 2.816e-07)
(4.90003e-06 -4.51984e-05 3.54655e-07)
(5.62853e-06 -4.66178e-05 4.49083e-07)
(6.12293e-06 -4.7582e-05 5.64297e-07)
(6.29397e-06 -4.81866e-05 6.96963e-07)
(6.06444e-06 -4.85137e-05 8.40296e-07)
(5.38509e-06 -4.86416e-05 9.83742e-07)
(4.2531e-06 -4.8647e-05 1.11297e-06)
(2.72577e-06 -4.86007e-05 1.21222e-06)
(9.25051e-07 -4.85595e-05 1.26656e-06)
(-9.73429e-07 -4.8557e-05 1.26649e-06)
(-2.77311e-06 -4.85928e-05 1.21208e-06)
(-4.29837e-06 -4.86339e-05 1.11275e-06)
(-5.42746e-06 -4.86236e-05 9.83514e-07)
(-6.10339e-06 -4.84912e-05 8.40065e-07)
(-6.32903e-06 -4.81599e-05 6.96794e-07)
(-6.1539e-06 -4.7552e-05 5.6417e-07)
(-5.65518e-06 -4.65849e-05 4.49061e-07)
(-4.92222e-06 -4.51638e-05 3.54748e-07)
(-4.04419e-06 -4.3164e-05 2.81775e-07)
(-3.10284e-06 -4.04041e-05 2.28562e-07)
(-2.17088e-06 -3.66027e-05 1.91595e-07)
(-1.30996e-06 -3.1284e-05 1.64056e-07)
(-5.88135e-07 -2.35468e-05 1.3441e-07)
(-7.14889e-08 -1.13236e-05 7.19787e-08)
(4.55596e-08 -1.18753e-05 4.58465e-08)
(3.67379e-07 -2.4667e-05 8.49339e-08)
(8.20342e-07 -3.27889e-05 1.04633e-07)
(1.37269e-06 -3.84388e-05 1.25925e-07)
(1.98954e-06 -4.25733e-05 1.57138e-07)
(2.63709e-06 -4.56961e-05 2.03557e-07)
(3.26949e-06 -4.80993e-05 2.68214e-07)
(3.82913e-06 -4.9964e-05 3.52999e-07)
(4.24707e-06 -5.14058e-05 4.57944e-07)
(4.44771e-06 -5.25027e-05 5.80587e-07)
(4.35953e-06 -5.33127e-05 7.15032e-07)
(3.92939e-06 -5.3884e-05 8.51458e-07)
(3.14071e-06 -5.42618e-05 9.75894e-07)
(2.02901e-06 -5.44855e-05 1.07253e-06)
(6.88451e-07 -5.4587e-05 1.12589e-06)
(-7.34994e-07 -5.45851e-05 1.12582e-06)
(-2.07437e-06 -5.44789e-05 1.0724e-06)
(-3.18381e-06 -5.42504e-05 9.75644e-07)
(-3.96943e-06 -5.38685e-05 8.51153e-07)
(-4.39601e-06 -5.32931e-05 7.14689e-07)
(-4.48009e-06 -5.24795e-05 5.80333e-07)
(-4.27517e-06 -5.13798e-05 4.57731e-07)
(-3.85284e-06 -4.99359e-05 3.52891e-07)
(-3.28878e-06 -4.807e-05 2.68191e-07)
(-2.65204e-06 -4.56666e-05 2.03588e-07)
(-2.00034e-06 -4.25451e-05 1.5726e-07)
(-1.37967e-06 -3.8413e-05 1.26114e-07)
(-8.24031e-07 -3.27674e-05 1.04912e-07)
(-3.68652e-07 -2.46517e-05 8.52297e-08)
(-4.55723e-08 -1.18688e-05 4.60905e-08)
(1.271e-08 -1.21445e-05 1.29667e-08)
(9.34829e-08 -2.52086e-05 2.26446e-08)
(2.15472e-07 -3.35337e-05 2.92771e-08)
(3.86436e-07 -3.93937e-05 4.11927e-08)
(6.10018e-07 -4.37776e-05 6.23936e-08)
(8.84315e-07 -4.72048e-05 9.58591e-08)
(1.19638e-06 -4.99727e-05 1.44006e-07)
(1.51961e-06 -5.22583e-05 2.08536e-07)
(1.81294e-06 -5.41652e-05 2.89981e-07)
(2.02325e-06 -5.5752e-05 3.87022e-07)
(2.09242e-06 -5.70504e-05 4.95126e-07)
(1.96934e-06 -5.80769e-05 6.0662e-07)
(1.62574e-06 -5.88404e-05 7.09634e-07)
(1.0712e-06 -5.93461e-05 7.90509e-07)
(3.61194e-07 -5.95972e-05 8.35535e-07)
(-4.06055e-07 -5.95953e-05 8.3546e-07)
(-1.11474e-06 -5.934e-05 7.90316e-07)
(-1.66699e-06 -5.88301e-05 7.09303e-07)
(-2.00744e-06 -5.8063e-05 6.06247e-07)
(-2.12669e-06 -5.7033e-05 4.9474e-07)
(-2.05339e-06 -5.57317e-05 3.86648e-07)
(-1.83881e-06 -5.41425e-05 2.89676e-07)
(-1.54112e-06 -5.22341e-05 2.08276e-07)
(-1.21359e-06 -4.99477e-05 1.43855e-07)
(-8.9736e-07 -4.71799e-05 9.57924e-08)
(-6.19201e-07 -4.3754e-05 6.2368e-08)
(-3.92202e-07 -3.93723e-05 4.12675e-08)
(-2.18374e-07 -3.3516e-05 2.94379e-08)
(-9.43532e-08 -2.51961e-05 2.28625e-08)
(-1.26551e-08 -1.21391e-05 1.31915e-08)
(-2.60642e-08 -1.20815e-05 -2.57943e-08)
(-2.2513e-07 -2.50763e-05 -5.05909e-08)
(-4.86302e-07 -3.33931e-05 -5.9671e-08)
(-7.58974e-07 -3.93142e-05 -6.0081e-08)
(-9.97148e-07 -4.38324e-05 -5.29972e-08)
(-1.16736e-06 -4.74675e-05 -3.82787e-08)
(-1.24503e-06 -5.05147e-05 -1.46526e-08)
(-1.21955e-06 -5.31437e-05 1.9194e-08)
(-1.09663e-06 -5.54444e-05 6.42187e-08)
(-8.99144e-07 -5.7457e-05 1.20353e-07)
(-6.63488e-07 -5.91869e-05 1.85367e-07)
(-4.3248e-07 -6.06193e-05 2.54696e-07)
(-2.43566e-07 -6.17291e-05 3.20363e-07)
(-1.16794e-07 -6.24891e-05 3.72929e-07)
(-4.58288e-08 -6.28752e-05 4.0256e-07)
(2.94807e-09 -6.28732e-05 4.02446e-07)
(7.51789e-08 -6.24832e-05 3.72677e-07)
(2.04288e-07 -6.17197e-05 3.19999e-07)
(3.96348e-07 -6.06064e-05 2.54255e-07)
(6.31073e-07 -5.91709e-05 1.84935e-07)
(8.70794e-07 -5.74388e-05 1.19925e-07)
(1.07252e-06 -5.54243e-05 6.38528e-08)
(1.1997e-06 -5.31224e-05 1.88807e-08)
(1.22932e-06 -5.04931e-05 -1.48746e-08)
(1.15562e-06 -4.74461e-05 -3.84083e-08)
(9.89068e-07 -4.38122e-05 -5.30521e-08)
(7.54084e-07 -3.92962e-05 -6.0051e-08)
(4.83964e-07 -3.33784e-05 -5.95693e-08)
(2.2449e-07 -2.50658e-05 -5.04095e-08)
(2.6138e-08 -1.2077e-05 -2.55943e-08)
(-6.84904e-08 -1.16444e-05 -6.82564e-08)
(-5.70322e-07 -2.4188e-05 -1.30779e-07)
(-1.2455e-06 -3.22577e-05 -1.57412e-07)
(-1.99974e-06 -3.80644e-05 -1.72315e-07)
(-2.74328e-06 -4.25712e-05 -1.82586e-07)
(-3.40556e-06 -4.62823e-05 -1.91419e-07)
(-3.92169e-06 -4.94817e-05 -1.99054e-07)
(-4.23958e-06 -5.23279e-05 -2.04633e-07)
(-4.32389e-06 -5.48982e-05 -2.06722e-07)
(-4.16028e-06 -5.72143e-05 -2.04036e-07)
(-3.75681e-06 -5.92595e-05 -1.95977e-07)
(-3.14283e-06 -6.09936e-05 -1.83114e-07)
(-2.36269e-06 -6.23631e-05 -1.67845e-07)
(-1.46811e-06 -6.33143e-05 -1.53745e-07)
(-5.0968e-07 -6.38022e-05 -1.45101e-07)
(4.69181e-07 -6.38004e-05 -1.45202e-07)
(1.4288e-06 -6.3309e-05 -1.54009e-07)
(2.32552e-06 -6.23545e-05 -1.68253e-07)
(3.10863e-06 -6.09816e-05 -1.83553e-07)
(3.72621e-06 -5.9245e-05 -1.96413e-07)
(4.1336e-06 -5.71978e-05 -2.04498e-07)
(4.30123e-06 -5.48803e-05 -2.07131e-07)
(4.22101e-06 -5.2309e-05 -2.04941e-07)
(3.90712e-06 -4.94627e-05 -1.99331e-07)
(3.39474e-06 -4.62638e-05 -1.916e-07)
(2.73593e-06 -4.2554e-05 -1.82657e-07)
(1.99542e-06 -3.8049e-05 -1.72323e-07)
(1.24349e-06 -3.22452e-05 -1.57343e-07)
(5.69844e-07 -2.41791e-05 -1.30603e-07)
(6.85943e-08 -1.16406e-05 -6.80511e-08)
(-1.11528e-07 -1.08159e-05 -1.11302e-07)
(-9.17065e-07 -2.25106e-05 -2.12039e-07)
(-2.00742e-06 -3.00818e-05 -2.56723e-07)
(-3.24743e-06 -3.55832e-05 -2.87224e-07)
(-4.50559e-06 -3.99125e-05 -3.16759e-07)
(-5.67494e-06 -4.35414e-05 -3.52013e-07)
(-6.64914e-06 -4.67345e-05 -3.94793e-07)
(-7.33258e-06 -4.96365e-05 -4.44942e-07)
(-7.6456e-06 -5.23112e-05 -5.00576e-07)
(-7.53254e-06 -5.47656e-05 -5.58801e-07)
(-6.9694e-06 -5.69675e-05 -6.15924e-07)
(-5.96815e-06 -5.88584e-05 -6.67686e-07)
(-4.57811e-06 -6.03666e-05 -7.1026e-07)
(-2.8836e-06 -6.14216e-05 -7.40339e-07)
(-9.95866e-07 -6.1965e-05 -7.55824e-07)
(9.58207e-07 -6.19632e-05 -7.55894e-07)
(2.84699e-06 -6.14167e-05 -7.40509e-07)
(4.54355e-06 -6.03585e-05 -7.10539e-07)
(5.93622e-06 -5.88472e-05 -6.68045e-07)
(6.94071e-06 -5.6954e-05 -6.16291e-07)
(7.50739e-06 -5.47503e-05 -5.59157e-07)
(7.62418e-06 -5.22948e-05 -5.00924e-07)
(7.31506e-06 -4.96198e-05 -4.45219e-07)
(6.63541e-06 -4.67177e-05 -3.9504e-07)
(5.66478e-06 -4.35252e-05 -3.522e-07)
(4.49875e-06 -3.98977e-05 -3.16884e-07)
(3.24343e-06 -3.55703e-05 -2.87268e-07)
(2.00558e-06 -3.00713e-05 -2.56676e-07)
(9.16632e-07 -2.25032e-05 -2.11875e-07)
(1.11627e-07 -1.08127e-05 -1.11104e-07)
(-1.51191e-07 -9.60963e-06 -1.5099e-07)
(-1.234e-06 -2.00739e-05 -2.86909e-07)
(-2.70508e-06 -2.69023e-05 -3.48519e-07)
(-4.3955e-06 -3.1907e-05 -3.94132e-07)
(-6.13719e-06 -3.58866e-05 -4.42834e-07)
(-7.78959e-06 -3.92639e-05 -5.0476e-07)
(-9.20674e-06 -4.2277e-05 -5.83233e-07)
(-1.02498e-05 -4.50541e-05 -6.78722e-07)
(-1.07945e-05 -4.76475e-05 -7.89064e-07)
(-1.07439e-05 -5.00547e-05 -9.096e-07)
(-1.00402e-05 -5.22341e-05 -1.03332e-06)
(-8.67675e-06 -5.41189e-05 -1.15111e-06)
(-6.70677e-06 -5.563e-05 -1.25278e-06)
(-4.24568e-06 -5.66901e-05 -1.32785e-06)
(-1.46385e-06 -5.72369e-05 -1.36779e-06)
(1.42979e-06 -5.72352e-05 -1.36784e-06)
(4.2124e-06 -5.6685e-05 -1.32801e-06)
(6.67506e-06 -5.5622e-05 -1.25299e-06)
(8.64724e-06 -5.41084e-05 -1.15136e-06)
(1.00135e-05 -5.22218e-05 -1.03361e-06)
(1.07203e-05 -5.00409e-05 -9.09882e-07)
(1.07744e-05 -4.76329e-05 -7.89336e-07)
(1.02331e-05 -4.50393e-05 -6.78987e-07)
(9.1936e-06 -4.22623e-05 -5.83455e-07)
(7.77989e-06 -3.92499e-05 -5.04935e-07)
(6.13062e-06 -3.58739e-05 -4.42958e-07)
(4.39164e-06 -3.18962e-05 -3.94135e-07)
(2.7034e-06 -2.68936e-05 -3.48457e-07)
(1.23364e-06 -2.00677e-05 -2.86757e-07)
(1.51296e-07 -9.60699e-06 -1.50794e-07)
(-1.82818e-07 -8.07738e-06 -1.82643e-07)
(-1.48591e-06 -1.69822e-05 -3.46538e-07)
(-3.26431e-06 -2.2853e-05 -4.21668e-07)
(-5.3269e-06 -2.71863e-05 -4.7983e-07)
(-7.47814e-06 -3.06531e-05 -5.45171e-07)
(-9.54861e-06 -3.36148e-05 -6.30774e-07)
(-1.13568e-05 -3.62782e-05 -7.415e-07)
(-1.2724e-05 -3.87536e-05 -8.78413e-07)
(-1.3485e-05 -4.10836e-05 -1.03883e-06)
(-1.35037e-05 -4.3261e-05 -1.2164e-06)
(-1.2691e-05 -4.52425e-05 -1.40109e-06)
(-1.10228e-05 -4.69621e-05 -1.5792e-06)
(-8.55476e-06 -4.83434e-05 -1.73455e-06)
(-5.42953e-06 -4.93136e-05 -1.85038e-06)
(-1.87047e-06 -4.9814e-05 -1.9125e-06)
(1.8404e-06 -4.98124e-05 -1.91251e-06)
(5.39998e-06 -4.9309e-05 -1.85044e-06)
(8.52636e-06 -4.83363e-05 -1.73463e-06)
(1.09961e-05 -4.69525e-05 -1.5793e-06)
(1.26665e-05 -4.52313e-05 -1.40121e-06)
(1.34818e-05 -4.32487e-05 -1.21654e-06)
(1.3466e-05 -4.10708e-05 -1.03899e-06)
(1.27082e-05 -3.87407e-05 -8.78575e-07)
(1.13442e-05 -3.62657e-05 -7.41637e-07)
(9.5393e-06 -3.36031e-05 -6.30881e-07)
(7.47181e-06 -3.06425e-05 -5.4528e-07)
(5.32317e-06 -2.71773e-05 -4.79845e-07)
(3.26263e-06 -2.28458e-05 -4.21606e-07)
(1.48553e-06 -1.69773e-05 -3.46384e-07)
(1.82911e-07 -8.07532e-06 -1.82454e-07)
(-2.0115e-07 -6.3129e-06 -2.00995e-07)
(-1.6351e-06 -1.34204e-05 -3.808e-07)
(-3.60857e-06 -1.81703e-05 -4.63301e-07)
(-5.92379e-06 -2.16919e-05 -5.28729e-07)
(-8.36956e-06 -2.45103e-05 -6.05059e-07)
(-1.07539e-05 -2.6918e-05 -7.07688e-07)
(-1.28658e-05 -2.90867e-05 -8.42828e-07)
(-1.44933e-05 -3.11088e-05 -1.01193e-06)
(-1.54369e-05 -3.30198e-05 -1.21189e-06)
(-1.55279e-05 -3.4812e-05 -1.43487e-06)
(-1.46511e-05 -3.64469e-05 -1.66821e-06)
(-1.27675e-05 -3.78675e-05 -1.89439e-06)
(-9.93436e-06 -3.90092e-05 -2.09254e-06)
(-6.3153e-06 -3.98105e-05 -2.24073e-06)
(-2.17469e-06 -4.02236e-05 -2.32034e-06)
(2.14898e-06 -4.02223e-05 -2.3203e-06)
(6.28985e-06 -3.98065e-05 -2.24067e-06)
(9.90959e-06 -3.90031e-05 -2.09249e-06)