/*--------------------------------*- C++ -*----------------------------------*\
| =========                 |                                                 |
| \\      /  F ield         | OpenFOAM: The Open Source CFD Toolbox           |
|  \\    /   O peration     | Version:  v1912                                 |
|   \\  /    A nd           | Website:  www.openfoam.com                      |
|    \\/     M anipulation  |                                                 |
\*---------------------------------------------------------------------------*/
FoamFile
{
    version     2.0;
    format      ascii;
    class       volScalarField;
    location    "62/oil";
    object      heatTransferCoeff(T);
}
// * * * * * * * * * * * * * * * * * * * * * * * * * * * * * * * * * * * * * //

dimensions      [1 0 -3 -1 0 0 0];


internalField   uniform 0;

boundaryField
{
    maxY
    {
        type            calculated;
        value           uniform 0;
    }
    minX
    {
        type            calculated;
        value           uniform 0;
    }
    maxX
    {
        type            calculated;
        value           uniform 0;
    }
    minY
    {
        type            calculated;
        value           uniform 0;
    }
    minZ
    {
        type            calculated;
        value           uniform 0;
    }
    maxZ
    {
        type            calculated;
        value           uniform 0;
    }
    oil_to_sphere
    {
        type            calculated;
        value           nonuniform List<scalar> 
1536
(
-121.985
-120.677
-120.821
-118.032
-117.636
-120.448
-119.498
-119.689
-119.524
-118.077
-117.245
-118.186
-119.454
-118.428
-116.603
-119.222
-120.515
-120.89
-119.118
-119.418
-120.092
-119.481
-119.675
-119.215
-119.393
-119.286
-119.268
-119.025
-120.557
-119.69
-120.952
-120.636
-120.749
-119.12
-119.245
-118.948
-118.991
-118.556
-118.913
-119.192
-118.816
-119.081
-119.489
-119.9
-120.274
-119.177
-120.591
-120.13
-116.519
-119.361
-119.977
-119.585
-120.065
-119.104
-120.496
-121.52
-119.582
-119.435
-120.15
-119.861
-119.527
-119.413
-119.557
-119.096
-119.313
-119.436
-119.397
-120.069
-119.936
-120.375
-119.09
-118.208
-118.445
-119.301
-119.223
-121.567
-120.72
-118.906
-119.233
-120.926
-120.105
-120.043
-117.774
-117.684
-120.54
-121.841
-117.794
-119.281
-119.93
-119.884
-119.77
-118.975
-119.017
-119.047
-119.271
-119.848
-120.345
-120.365
-120.762
-119.849
-120.153
-119.047
-122.136
-120.065
-118.416
-119.244
-119.274
-118.19
-118.294
-122.299
-120.678
-119.801
-119.421
-119.79
-117.65
-118.044
-117.495
-121.267
-121.975
-120.864
-119.611
-119.771
-118.901
-120.279
-120.858
-120.248
-119.483
-118.782
-120.357
-119.966
-119.479
-119.93
-120.443
-119.179
-119.358
-120.367
-119.768
-120.975
-118.84
-120.515
-119.486
-119.997
-119.991
-119.492
-119.289
-119.476
-119.589
-122.532
-120.865
-122.18
-120.221
-121.943
-119.553
-119.682
-118.939
-120.847
-120.188
-121.295
-122.723
-122.408
-120.663
-122.825
-118.028
-118.292
-119.002
-118.877
-120.167
-121.772
-120.489
-122.279
-119.193
-119.306
-119.031
-120.501
-120.303
-120.183
-121.721
-120.25
-120.882
-121.738
-118.597
-118.21
-118.264
-118.342
-121.24
-121.905
-122.463
-119.098
-118.816
-120.888
-118.977
-120.635
-120.451
-121.091
-118.201
-116.663
-121.126
-121.221
-120.187
-119.068
-119.678
-119.402
-121.029
-121.149
-120.331
-120.092
-119.637
-121.497
-120.927
-121.134
-118.706
-119.281
-119.232
-120.051
-120.606
-121.817
-120.289
-118.375
-118.352
-116.655
-120.743
-120.414
-119.992
-119.778
-119.915
-121.721
-120.7
-119.984
-120.81
-118.281
-119.029
-116.899
-119.33
-121.273
-121.134
-121.167
-120.578
-120.24
-120.745
-118.264
-118.415
-120.414
-121.151
-118.839
-117.325
-117.404
-120.293
-121.114
-122.24
-123.767
-119.867
-117.873
-116.555
-119.864
-122.049
-119.026
-119.071
-117.384
-118.968
-121.667
-122.145
-120.067
-119.19
-121.219
-122.783
-119.199
-117.77
-120.124
-121.855
-121.462
-120.251
-120.505
-121.038
-118.424
-119.086
-121.179
-120.506
-121.725
-119.606
-120.922
-121.821
-120.537
-120.388
-121.298
-119.316
-119.176
-119.571
-118.685
-118.973
-121.156
-121.748
-120.529
-119.384
-119.336
-119.559
-119.12
-120.096
-119.751
-118.738
-117.531
-118.891
-118.182
-118.754
-121.972
-121.358
-121.427
-124.022
-118.136
-118.246
-120.804
-122.092
-123.315
-119.21
-119.743
-119.086
-120.475
-119.256
-120.312
-120.436
-121.1
-120.412
-119.588
-120.648
-118.799
-121.101
-121.308
-120.662
-120.639
-118.48
-121.939
-122.307
-121.202
-118.091
-119.331
-119.77
-120.471
-120.306
-120.282
-118.46
-121.089
-122.351
-120.885
-121.4
-120.008
-120.011
-119.687
-118.515
-120.272
-120.655
-118.424
-118.235
-118.511
-122.237
-121.266
-121.535
-120.121
-120.08
-121.624
-118.287
-121.974
-120.954
-119.907
-120.014
-118.305
-121.388
-121.19
-118.688
-119.865
-119.532
-119.278
-120.586
-121.06
-119.504
-119.411
-118.36
-121.777
-121.059
-118.327
-121.695
-121.714
-120.812
-121.699
-119.863
-120.634
-118.496
-118.022
-120.512
-123.5
-120.928
-122.638
-120.392
-119.432
-120.768
-118.821
-119.526
-120.733
-121.035
-120.626
-120.037
-118.973
-118.4
-121.254
-122.3
-121.084
-120.068
-119.259
-120.291
-120.588
-120.836
-120.095
-119.612
-119.084
-119.905
-118.868
-118.225
-119.039
-118.988
-119.821
-117.909
-119.364
-122.539
-119.347
-119.332
-121.121
-120.985
-120.383
-119.568
-118.237
-120.89
-121.381
-120.412
-120.279
-120.673
-119.899
-119.847
-120.133
-117.812
-121.216
-122.248
-121.613
-120.929
-120.749
-120.361
-120.052
-119.715
-118.791
-119.829
-118.783
-118.28
-118.838
-117.993
-122.025
-121.873
-121.196
-123.55
-120.141
-121.91
-118.349
-118.567
-120.477
-120.412
-118.361
-119.368
-119.033
-121.946
-121.571
-120.107
-120.317
-121.769
-121.311
-119.991
-120.648
-118.605
-120.984
-117.958
-121.631
-117.771
-121.099
-121.091
-121.048
-119.561
-118.345
-119.447
-121.047
-119.513
-117.945
-121.296
-121.168
-122.422
-122.27
-121.231
-121.322
-118.114
-118.323
-116.731
-117.07
-119.7
-119.143
-119.112
-118.911
-121.928
-120.339
-117.963
-117.688
-120.239
-119.332
-122.807
-119.067
-119.116
-120.017
-117.207
-117.215
-119.031
-119.004
-119.344
-119.328
-121.139
-120.936
-120.377
-119.964
-117.916
-119.231
-121.297
-118.72
-118.613
-120.706
-121.627
-118.819
-117.315
-118.419
-117.339
-119.67
-119.427
-119.084
-118.282
-116.676
-120.86
-120.867
-120.16
-119.968
-121.937
-120.817
-120.264
-120.161
-118.467
-119.067
-121.195
-120.545
-119.348
-117.276
-119.967
-122.042
-121.973
-120.026
-120.375
-121.554
-121.075
-121.287
-118.488
-118.921
-118.293
-119.27
-119.75
-121.349
-121.999
-118.525
-118.411
-120.677
-122.45
-119.242
-119.158
-117.962
-120.519
-119.764
-121.404
-121.667
-119.615
-117.974
-121.863
-122.458
-117.512
-122.374
-121.627
-120.968
-122.007
-120.57
-120.245
-120.027
-121.903
-120.117
-120.349
-119.985
-120.859
-120.221
-119.866
-119.833
-118.244
-120.762
-120.556
-120.926
-120.833
-120.988
-120.555
-120.201
-118.145
-121.41
-121.538
-120.596
-119.85
-120.23
-122.233
-119.759
-118.424
-118.116
-121.065
-120.437
-122.148
-119.51
-119.702
-120.28
-117.086
-116.772
-119.086
-119.024
-119.638
-118.23
-118.532
-121.379
-120.111
-121.585
-120.153
-121.942
-121.146
-121.074
-118.475
-116.83
-116.585
-119.223
-120.898
-119.37
-119.124
-117.16
-119.63
-121.558
-119.605
-123.993
-118.694
-121.098
-121.732
-120.677
-121.555
-121.827
-121.082
-120.14
-119.769
-119.873
-120.835
-119.658
-120.139
-120.353
-120.242
-121.019
-120.597
-120.875
-118.653
-118.77
-116.695
-117.237
-118.093
-115.845
-119.359
-119.352
-119.619
-119.915
-118.08
-118.281
-119.357
-121.504
-121.849
-119.349
-117.965
-119.559
-121.2
-121.362
-119.71
-118.102
-118.682
-120.571
-120.637
-119.7
-119.455
-120.674
-120.905
-121.791
-120.739
-120.021
-119.336
-118.479
-118.042
-120.495
-120.832
-122.248
-119.666
-122.263
-120.507
-122.603
-119.185
-119.598
-118.627
-118.932
-119.281
-118.605
-119.624
-117.906
-119.112
-121.48
-119.389
-118.419
-122.014
-120.815
-120.17
-119.961
-122.705
-123.607
-117.521
-120.589
-120.863
-120.396
-118.731
-119.826
-119.131
-120.451
-121.476
-121.067
-118.659
-120.668
-120.229
-120.56
-120.571
-120.152
-119.694
-119.83
-119.352
-118.096
-117.953
-118.558
-121.489
-119.164
-118.159
-119.175
-121.316
-119.502
-121.652
-121.179
-120.464
-120.036
-120.555
-121.862
-118.535
-120.461
-121.609
-121.353
-120.179
-118.964
-119.752
-120.642
-121.423
-118.588
-119.835
-120.261
-121.212
-120.203
-120.841
-121.68
-118.532
-119.103
-118.923
-121.988
-121.143
-119.858
-121.241
-119.016
-119.277
-121.23
-121.066
-121.632
-118.506
-120.87
-121.175
-119.981
-120.43
-120.862
-118.883
-117.759
-119.807
-120.946
-122.687
-119.712
-119.311
-119.767
-120.364
-120.932
-119.833
-119.103
-119.663
-121.029
-119.476
-118.675
-119.545
-119.084
-120.173
-120.005
-121.331
-120.548
-120.792
-119.285
-119.936
-120.152
-119.679
-119.436
-119.387
-119.242
-118.648
-120.661
-120.137
-119.97
-120.547
-117.931
-119.297
-122.033
-121.913
-118.963
-121.251
-120.374
-120.432
-119.43
-121.507
-121.189
-118.383
-119.428
-119.317
-119.32
-118.35
-118.221
-119.289
-121.401
-123.235
-119.12
-120.914
-120.648
-120.237
-119.651
-120.161
-121.436
-120.957
-118.471
-119.312
-119.227
-119.671
-120.458
-121.065
-120.718
-120.697
-120.964
-119.189
-120.675
-119.419
-120.879
-116.775
-120.588
-121.331
-119.436
-117.554
-120.432
-120.022
-121.869
-118.987
-120.69
-119.959
-117.776
-122.082
-118.479
-119.671
-119.705
-118.11
-121.321
-119.959
-119.797
-120.644
-119.968
-119.44
-121.843
-118.682
-119.329
-116.876
-120.773
-119.274
-119.749
-121.309
-123.366
-118.392
-119.489
-122.712
-118.566
-120.699
-119.067
-120.445
-117.929
-119.161
-122.66
-117.686
-123.161
-117.865
-121.957
-118.184
-118.953
-117.488
-119.041
-122.428
-117.292
-120.469
-117.789
-122.303
-122.423
-117.427
-120.549
-118.711
-118.425
-118.265
-119.116
-119.734
-119.802
-120.307
-119.635
-121.827
-122.76
-117.492
-120.978
-120.059
-119.687
-119.871
-119.669
-119.82
-119.62
-120.858
-119.83
-120.749
-119.403
-120.258
-121.455
-119.355
-120.241
-121.074
-119.29
-120.264
-119.85
-120.348
-119.593
-120.158
-119.476
-120.964
-119.34
-120.08
-117.996
-122.213
-117.379
-121.272
-121.23
-121.5
-118.93
-119.931
-119.552
-119.756
-120.365
-119.906
-120.898
-118.722
-116.519
-121.561
-117.627
-121.595
-119.037
-119.81
-121.79
-116.492
-123.047
-119.456
-117.207
-119.884
-120.563
-120.398
-120.095
-117.093
-120.339
-120.508
-119.111
-118.946
-121.561
-121.42
-119.418
-119.688
-121.554
-117.263
-121.489
-118.967
-120.398
-117.42
-123.645
-122.046
-120.925
-120.149
-120.053
-121.03
-119.856
-117.074
-118.593
-120.634
-119.016
-121.294
-117.459
-121.646
-121.019
-115.609
-120.396
-120.253
-116.629
-122.79
-117.888
-121.493
-122.139
-121.103
-116.608
-120.088
-119.652
-120.332
-120.244
-120.828
-117.146
-119.696
-118.889
-118.954
-121.678
-120.013
-121.087
-120.384
-120.464
-119.632
-119.943
-119.715
-120.071
-121.23
-119.227
-119.593
-119.076
-120.486
-121.254
-119.272
-119.383
-119.265
-119.988
-118.985
-118.979
-119.455
-119.566
-119.946
-119.922
-121.592
-121.241
-117.421
-118.046
-122.195
-115.695
-120.583
-120.536
-119.186
-119.679
-122.692
-116.7
-121.044
-120.867
-116.792
-119.45
-119.415
-120.615
-116.521
-121.313
-121.39
-116.332
-121.139
-121.728
-117.154
-121.468
-121.442
-117.209
-119.279
-119.095
-116.802
-119.837
-120.041
-119.265
-118.92
-119.951
-116.391
-118.731
-117.883
-116.385
-121.177
-118.711
-122.316
-119.762
-117.086
-121.119
-120.687
-116.769
-119.335
-119.364
-116.744
-117.822
-123.003
-115.305
-118.655
-120.058
-116.174
-121.289
-120.918
-119.844
-119.348
-119.506
-118.518
-116.267
-119.874
-119.247
-119.423
-119.859
-116.788
-121.276
-119.144
-119.694
-118.925
-119.611
-119.941
-118.642
-116.967
-119.523
-121.054
-119.065
-119.45
-119.938
-118.898
-119.576
-116.942
-119.568
-121.35
-118.943
-119.681
-118.943
-117.108
-122.14
-122.318
-121.18
-122.167
-117.098
-116.525
-119.831
-121.849
-120.021
-120.672
-120.907
-118.635
-118.205
-117.425
-118.006
-118.718
-119.703
-119.6
-119.534
-118.556
-120.973
-120.518
-117.222
-118.345
-118.621
-120.857
-118.832
-116.437
-121.408
-119.705
-121.083
-116.729
-119.763
-120.857
-119.28
-119.507
-120.701
-119.732
-118.507
-121.87
-115.809
-119.481
-120.453
-118.973
-119.317
-121.816
-120.702
-120.173
-118.29
-121.539
-119.445
-119.993
-120.864
-121.157
-120.983
-121.139
-121.839
-122.04
-121.585
-121.586
-121.119
-121.063
-119.192
-119.617
-118.779
-117.916
-116.131
-121.853
-121.722
-121.246
-119.42
-119.96
-119.889
-118.958
-120.162
-120.959
-118.709
-119.643
-120.606
-119.372
-119.245
-119.099
-119.415
-118.749
-119.338
-119.247
-117.373
-120.823
-118.872
-119.588
-116.594
-122.399
-119.706
-118.985
-118.784
-117.483
-119.958
-119.053
-116.68
-118.582
-119.6
-118.162
-118.103
-121.967
-122.207
-119.335
-119.307
-120.841
-121.664
-116.594
-119.863
-118.844
-119.287
-119.321
-119.425
-119.657
-118.416
-116.864
-121.944
-119.329
-118.113
-118.369
-119.176
-119.839
-117.613
-120.35
-119.251
-119.174
-121.673
-118.223
-117.172
-119.53
-119.123
-118.934
-116.93
-121.492
-119.384
-119.071
-119.235
-116.657
-119.644
-119.311
-117.257
-119.559
-118.527
-120.288
-121.198
-119.165
-120.802
-120.049
-119
-118.951
-119.362
-117.038
-120.735
-120.999
-119.147
-116.861
-118.624
-119.569
-119.638
-119.057
-116.958
-119.15
-121.057
-120.405
-119.384
-121.964
-117.968
-121.544
-116.61
-118.052
-121.792
-116.904
-121.134
-119.691
-119.834
-119.213
-122.425
-118.344
-119.768
-121.475
-121.85
-117.306
-121.337
-121.767
-115.854
-121.18
-118.978
-116.655
-121.693
-118.94
-119.121
-119.14
-119.651
-119.457
-119.106
-119.094
-116.495
-121.27
-120.072
-119.737
-119.901
-119.383
-118.927
-118.626
-121.661
-116.308
-118.781
-120.164
-116.782
-121.134
-121.693
-120.899
-121.353
-121.879
-118.47
-120.904
-120.373
-121.349
-118.889
-120.641
-118.384
-117.09
-121.426
-118.261
-121.044
-122.294
-121.597
-116.758
-121.51
-120.536
-118.787
-119.101
-119.397
-119.033
-116.787
-122.203
-116.788
-122.162
-119.367
-118.414
-119.072
-120.26
-120.498
-122.058
-119.685
-122.008
-121.336
-120.996
-117.543
-121.092
-120.633
-121.246
-119.01
-118.714
-116.638
-119.528
-121.958
-121.664
-116.683
-118.445
-117.653
-118.977
-119.601
-118.256
-123.377
-119.201
-118.35
-116.877
-120.452
-118.843
-116.092
-120.05
-119.12
-118.99
-119.125
-119.15
-116.929
-118.111
-116.66
-119.45
-121.707
-120.332
-121.586
-121.35
-118.793
-118.449
-116.823
-118.567
-121.355
-121.357
-121.295
-120.85
-118.055
-116.842
-118.369
-116.494
-120.876
-121.12
-118.565
-120.891
-121.216
-121.226
-120.976
-119.86
-119.777
-118.786
-116.253
-118.59
-117.047
-118.922
-119.123
-119.027
-117.23
-116.781
-120.539
-121.845
-122.354
-121.646
-119.751
-120.285
-120.283
-119.894
-119.217
-119.682
-118.624
-119.43
-119.436
-116.698
-121.566
-119.449
-118.502
-117.268
-119.436
-119.669
-119.646
-119.092
-117.297
-121.646
-120.171
-119.082
-121.884
-118.583
-116.629
-121.198
-119.611
-119.461
-119.394
-118.979
-116.052
-120.529
-119.397
-116.821
-122.367
-119.336
-115.695
-119.106
-119.565
-119.676
-118.929
-116.835
-118.92
-119.008
-117.741
-119.399
-116.622
-119.589
-119.515
-117.5
-122.499
-119.356
-117.297
-123.262
-119.596
-119.643
-117.2
-119.461
-116.867
)
;
    }
}


// ************************************************************************* //
