/*--------------------------------*- C++ -*----------------------------------*\
| =========                 |                                                 |
| \\      /  F ield         | OpenFOAM: The Open Source CFD Toolbox           |
|  \\    /   O peration     | Version:  v1912                                 |
|   \\  /    A nd           | Website:  www.openfoam.com                      |
|    \\/     M anipulation  |                                                 |
\*---------------------------------------------------------------------------*/
FoamFile
{
    version     2.0;
    format      ascii;
    class       surfaceScalarField;
    location    "62/oil";
    object      phi;
}
// * * * * * * * * * * * * * * * * * * * * * * * * * * * * * * * * * * * * * //

dimensions      [1 0 -1 0 0 0 0];
oriented        oriented;


internalField   nonuniform List<scalar> 
104676
(
-5.87588e-12
1.71072e-11
-7.91484e-12
1.80294e-10
-1.48592e-10
-3.75698e-11
5.60119e-10
-2.76931e-10
-1.0288e-10
1.07462e-09
-3.37312e-10
-1.77175e-10
1.64811e-09
-3.44782e-10
-2.28686e-10
2.20529e-09
-3.13857e-10
-2.43306e-10
2.6783e-09
-2.55802e-10
-2.17188e-10
3.01042e-09
-1.78947e-10
-1.5316e-10
3.1574e-09
-8.97013e-11
-5.72631e-11
3.09543e-09
3.93831e-12
5.80584e-11
2.81257e-09
1.00507e-10
1.82376e-10
2.32842e-09
1.79441e-10
3.04739e-10
1.66823e-09
2.51213e-10
4.09e-10
8.79366e-10
3.03238e-10
4.85664e-10
2.21204e-11
3.30782e-10
5.26499e-10
-8.37974e-10
3.32352e-10
5.27782e-10
-1.62952e-09
3.03792e-10
4.87796e-10
-2.29317e-09
2.51431e-10
4.12264e-10
-2.78308e-09
1.81104e-10
3.08847e-10
-3.07065e-09
9.8896e-11
1.88714e-10
-3.14152e-09
5.31671e-12
6.55914e-11
-2.99913e-09
-9.08201e-11
-5.15366e-11
-2.67095e-09
-1.79735e-10
-1.48407e-10
-2.20114e-09
-2.56551e-10
-2.13222e-10
-1.64667e-09
-3.14441e-10
-2.39988e-10
-1.07528e-09
-3.46097e-10
-2.25265e-10
-5.61845e-10
-3.39704e-10
-1.73691e-10
-1.82022e-10
-2.80147e-10
-9.96438e-11
5.17332e-12
-1.52094e-10
-3.50714e-11
1.22833e-11
-7.09106e-12
1.83529e-10
-3.49815e-10
1.83404e-10
7.04541e-10
-1.04488e-09
3.75287e-10
1.53079e-09
-1.56736e-09
4.64201e-10
2.57014e-09
-1.88502e-09
5.08385e-10
3.69772e-09
-2.03687e-09
5.64541e-10
4.7793e-09
-2.06085e-09
6.65445e-10
5.68819e-09
-1.98918e-09
8.24513e-10
6.31481e-09
-1.84716e-09
1.04162e-09
6.57377e-09
-1.65595e-09
1.30732e-09
6.41035e-09
-1.43455e-09
1.60195e-09
5.79895e-09
-1.20168e-09
1.91362e-09
4.77334e-09
-9.97705e-10
2.2028e-09
3.41011e-09
-8.18214e-10
2.4327e-09
1.79552e-09
-6.88278e-10
2.60616e-09
4.47515e-11
-6.20206e-10
2.70181e-09
-1.71315e-09
-6.20429e-10
2.71074e-09
-3.33313e-09
-6.90812e-10
2.61464e-09
-4.69918e-09
-8.22672e-10
2.44021e-09
-5.71829e-09
-1.00228e-09
2.20254e-09
-6.33374e-09
-1.21005e-09
1.92446e-09
-6.5093e-09
-1.4397e-09
1.62063e-09
-6.26148e-09
-1.65954e-09
1.32095e-09
-5.64778e-09
-1.849e-09
1.05562e-09
-4.75241e-09
-1.99062e-09
8.3875e-10
-3.6821e-09
-2.0632e-09
6.78497e-10
-2.56445e-09
-2.0406e-09
5.76897e-10
-1.53156e-09
-1.89195e-09
5.19405e-10
-7.06662e-10
-1.57714e-09
4.72141e-10
-1.84067e-10
-1.0536e-09
3.78947e-10
-3.55249e-10
1.8349e-10
3.83672e-10
-1.12063e-09
3.87156e-10
1.21745e-09
-2.70539e-09
8.2676e-10
2.38558e-09
-3.83495e-09
1.09949e-09
3.77301e-09
-4.57061e-09
1.29819e-09
5.23634e-09
-4.99259e-09
1.49243e-09
6.61778e-09
-5.16687e-09
1.72461e-09
7.76329e-09
-5.14992e-09
2.01526e-09
8.53642e-09
-4.98811e-09
2.36786e-09
8.83066e-09
-4.72353e-09
2.77339e-09
8.57786e-09
-4.39144e-09
3.20973e-09
7.74452e-09
-4.03015e-09
3.66186e-09
6.36585e-09
-3.68856e-09
4.06958e-09
4.54157e-09
-3.3889e-09
4.39502e-09
2.38921e-09
-3.16999e-09
4.63413e-09
5.7965e-11
-3.057e-09
4.7681e-09
-2.28487e-09
-3.0621e-09
4.78457e-09
-4.44522e-09
-3.17658e-09
4.64619e-09
-6.2718e-09
-3.3962e-09
4.40017e-09
-7.64506e-09
-3.69332e-09
4.06437e-09
-8.49224e-09
-4.03778e-09
3.67498e-09
-8.7623e-09
-4.39825e-09
3.22868e-09
-8.48163e-09
-4.72804e-09
2.78789e-09
-7.72244e-09
-4.99156e-09
2.38343e-09
-6.59111e-09
-5.15254e-09
2.03065e-09
-5.22259e-09
-5.17085e-09
1.7392e-09
-3.76849e-09
-5.00008e-09
1.50544e-09
-2.38736e-09
-4.58172e-09
1.30868e-09
-1.22126e-09
-3.84893e-09
1.10575e-09
-3.85668e-10
-2.71697e-09
8.27826e-10
-1.12731e-09
3.86424e-10
5.48896e-10
-2.22488e-09
5.55387e-10
1.64528e-09
-4.99828e-09
1.19654e-09
3.09021e-09
-6.8965e-09
1.61666e-09
4.74248e-09
-8.163e-09
1.94016e-09
6.44439e-09
-8.94469e-09
2.25023e-09
8.0262e-09
-9.3424e-09
2.59375e-09
9.32122e-09
-9.43951e-09
2.99462e-09
1.01803e-08
-9.30475e-09
3.45766e-09
1.04822e-08
-9.00033e-09
3.97489e-09
1.01486e-08
-8.58325e-09
4.52553e-09
9.14002e-09
-8.11103e-09
5.0895e-09
7.50397e-09
-7.63996e-09
5.58752e-09
5.34903e-09
-7.22959e-09
5.9957e-09
2.81189e-09
-6.91312e-09
6.28035e-09
6.60253e-11
-6.75172e-09
6.44067e-09
-2.69512e-09
-6.7628e-09
6.46193e-09
-5.24261e-09
-6.92014e-09
6.29112e-09
-7.40146e-09
-7.22767e-09
5.99039e-09
-9.03343e-09
-7.63991e-09
5.57862e-09
-1.00544e-08
-8.11277e-09
5.09606e-09
-1.04047e-08
-8.58529e-09
4.53736e-09
-1.0118e-08
-9.00168e-09
3.98703e-09
-9.2751e-09
-9.30618e-09
3.47179e-09
-7.99477e-09
-9.44123e-09
3.00841e-09
-6.4269e-09
-9.34638e-09
2.60773e-09
-4.7368e-09
-8.95299e-09
2.26287e-09
-3.09099e-09
-8.17671e-09
1.94924e-09
-1.64892e-09
-6.9103e-09
1.61935e-09
-5.52776e-10
-5.00418e-09
1.19113e-09
-2.23351e-09
5.53453e-10
6.73424e-10
-3.57774e-09
6.79471e-10
1.97223e-09
-7.76358e-09
1.46654e-09
3.63386e-09
-1.05547e-08
1.99667e-09
5.49042e-09
-1.24319e-08
2.4124e-09
7.37114e-09
-1.36347e-08
2.80939e-09
9.09798e-09
-1.43094e-08
3.24026e-09
1.04974e-08
-1.45691e-08
3.7302e-09
1.14122e-08
-1.45055e-08
4.28605e-09
1.17157e-08
-1.42012e-08
4.89739e-09
1.13214e-08
-1.37332e-08
5.54438e-09
1.01872e-08
-1.3181e-08
6.20423e-09
8.36217e-09
-1.26135e-08
6.79861e-09
5.95595e-09
-1.21038e-08
7.28047e-09
3.12888e-09
-1.16895e-08
7.6035e-09
7.13973e-11
-1.14798e-08
7.78562e-09
-3.00398e-09
-1.1495e-08
7.80766e-09
-5.83907e-09
-1.16985e-08
7.61358e-09
-8.24504e-09
-1.20874e-08
7.2658e-09
-1.00727e-08
-1.26078e-08
6.79564e-09
-1.12209e-08
-1.31788e-08
6.21435e-09
-1.16326e-08
-1.37321e-08
5.55855e-09
-1.13459e-08
-1.42006e-08
4.91228e-09
-1.04471e-08
-1.45063e-08
4.30131e-09
-9.06218e-09
-1.45712e-08
3.74515e-09
-7.34917e-09
-1.43137e-08
3.25435e-09
-5.48102e-09
-1.36425e-08
2.82146e-09
-3.63337e-09
-1.24445e-08
2.4202e-09
-1.97465e-09
-1.05662e-08
1.99721e-09
-6.76846e-10
-7.76027e-09
1.45834e-09
-3.58816e-09
6.77838e-10
7.56996e-10
-5.09888e-09
7.64192e-10
2.19945e-09
-1.08526e-08
1.64665e-09
4.01855e-09
-1.46263e-08
2.25247e-09
6.02335e-09
-1.71708e-08
2.73411e-09
8.03305e-09
-1.88388e-08
3.19446e-09
9.86416e-09
-1.9833e-08
3.69248e-09
1.13393e-08
-2.0299e-08
4.25477e-09
1.22967e-08
-2.03526e-08
4.88972e-09
1.26051e-08
-2.00952e-08
5.58574e-09
1.21746e-08
-1.9622e-08
6.31932e-09
1.09611e-08
-1.90297e-08
7.06233e-09
8.99793e-09
-1.84135e-08
7.76331e-09
6.40583e-09
-1.7833e-08
8.32147e-09
3.36312e-09
-1.73281e-08
8.6815e-09
7.26008e-11
-1.70643e-08
8.87514e-09
-3.23737e-09
-1.70809e-08
8.89599e-09
-6.28216e-09
-1.73506e-08
8.69697e-09
-8.86901e-09
-1.78032e-08
8.30272e-09
-1.0839e-08
-1.84035e-08
7.76578e-09
-1.20689e-08
-1.90262e-08
7.07743e-09
-1.25186e-08
-1.96195e-08
6.33722e-09
-1.22282e-08
-2.00946e-08
5.60377e-09
-1.12872e-08
-2.03544e-08
4.90725e-09
-9.82696e-09
-2.03026e-08
4.27125e-09
-8.00875e-09
-1.98386e-08
3.70681e-09
-6.01091e-09
-1.88468e-08
3.20651e-09
-4.01573e-09
-1.71808e-08
2.74118e-09
-2.20222e-09
-1.46309e-08
2.25134e-09
-7.60926e-10
-1.08398e-08
1.63829e-09
-5.11253e-09
7.63487e-10
7.98988e-10
-6.71409e-09
8.1628e-10
2.32983e-09
-1.4147e-08
1.76357e-09
4.24827e-09
-1.89538e-08
2.40914e-09
6.34506e-09
-2.21947e-08
2.9272e-09
8.43407e-09
-2.43583e-08
3.43054e-09
1.03299e-08
-2.57074e-08
3.97868e-09
1.18544e-08
-2.64229e-08
4.59947e-09
1.28428e-08
-2.66438e-08
5.30294e-09
1.31616e-08
-2.64895e-08
6.07559e-09
1.2716e-08
-2.6068e-08
6.89165e-09
1.14607e-08
-2.54928e-08
7.7185e-09
9.40669e-09
-2.48747e-08
8.51534e-09
6.69981e-09
-2.428e-08
9.15395e-09
3.51683e-09
-2.36931e-08
9.54808e-09
7.76485e-11
-2.338e-08
9.75499e-09
-3.37809e-09
-2.34057e-08
9.78062e-09
-6.57389e-09
-2.37367e-08
9.58195e-09
-9.27467e-09
-2.42451e-08
9.14283e-09
-1.13356e-08
-2.48662e-08
8.52372e-09
-1.26085e-08
-2.5493e-08
7.73981e-09
-1.30735e-08
-2.60695e-08
6.91511e-09
-1.27735e-08
-2.64925e-08
6.09787e-09
-1.18017e-08
-2.66494e-08
5.32331e-09
-1.02923e-08
-2.64307e-08
4.61868e-09
-8.40881e-09
-2.57163e-08
3.99431e-09
-6.3312e-09
-2.43673e-08
3.44301e-09
-4.24453e-09
-2.22006e-08
2.93321e-09
-2.33519e-09
-1.89434e-08
2.40322e-09
-8.08851e-10
-1.41126e-08
1.7465e-09
-6.73579e-09
8.14442e-10
8.14713e-10
-8.36224e-09
8.33487e-10
2.37129e-09
-1.75118e-08
1.80832e-09
4.32264e-09
-2.3378e-08
2.47292e-09
6.45105e-09
-2.73296e-08
3.00655e-09
8.56414e-09
-3.00023e-08
3.53099e-09
1.04794e-08
-3.17354e-08
4.11285e-09
1.20215e-08
-3.27433e-08
4.77834e-09
1.30267e-08
-3.3186e-08
5.53715e-09
1.33584e-08
-3.31973e-08
6.37618e-09
1.29203e-08
-3.28969e-08
7.26724e-09
1.16587e-08
-3.2405e-08
8.17384e-09
9.57314e-09
-3.18471e-08
9.05807e-09
6.81467e-09
-3.13084e-08
9.787e-09
3.57189e-09
-3.06545e-08
1.02042e-08
7.7526e-11
-3.03203e-08
1.04348e-08
-3.43835e-09
-3.03521e-08
1.04623e-08
-6.70666e-09
-3.07001e-08
1.02318e-08
-9.44735e-09
-3.12728e-08
9.76844e-09
-1.15349e-08
-3.18424e-08
9.06385e-09
-1.28133e-08
-3.24102e-08
8.19573e-09
-1.32716e-08
-3.29031e-08
7.29192e-09
-1.29584e-08
-3.32054e-08
6.39984e-09
-1.19695e-08
-3.31975e-08
5.55925e-09
-1.04418e-08
-3.27574e-08
4.79915e-09
-8.53849e-09
-3.175e-08
4.1305e-09
-6.43695e-09
-3.00129e-08
3.54413e-09
-4.3216e-09
-2.73236e-08
3.00771e-09
-2.38056e-09
-2.33418e-08
2.45739e-09
-8.23812e-10
-1.74546e-08
1.78531e-09
-8.39284e-09
8.33273e-10
8.00632e-10
-9.98125e-09
8.18436e-10
2.32031e-09
-2.08156e-08
1.78418e-09
4.2321e-09
-2.77449e-08
2.45518e-09
6.32409e-09
-3.24112e-08
2.98971e-09
8.40238e-09
-3.559e-08
3.50946e-09
1.02838e-08
-3.77142e-08
4.09748e-09
1.18029e-08
-3.9048e-08
4.78572e-09
1.28021e-08
-3.97639e-08
5.57888e-09
1.3145e-08
-4.00027e-08
6.46256e-09
1.27328e-08
-3.98927e-08
7.40802e-09
1.1515e-08
-3.95566e-08
8.36946e-09
9.48174e-09
-3.91153e-08
9.30149e-09
6.73852e-09
-3.86702e-08
1.01051e-08
3.52748e-09
-3.79972e-08
1.05539e-08
7.44863e-11
-3.76926e-08
1.08254e-08
-3.40441e-09
-3.77212e-08
1.08481e-08
-6.65005e-09
-3.80159e-08
1.05615e-08
-9.37206e-09
-3.86172e-08
1.00666e-08
-1.13964e-08
-3.91135e-08
9.29545e-09
-1.26287e-08
-3.95671e-08
8.38931e-09
-1.30597e-08
-3.99057e-08
7.43369e-09
-1.27351e-08
-4.00176e-08
6.48761e-09
-1.17522e-08
-3.97824e-08
5.60214e-09
-1.02469e-08
-3.907e-08
4.80738e-09
-8.37817e-09
-3.77326e-08
4.11397e-09
-6.31722e-09
-3.55851e-08
3.51127e-09
-4.24199e-09
-3.23659e-08
2.9672e-09
-2.33661e-09
-2.76651e-08
2.41799e-09
-8.06435e-10
-2.07424e-08
1.75768e-09
-1.00187e-08
8.19425e-10
7.59754e-10
-1.15086e-08
7.67617e-10
2.19459e-09
-2.39259e-08
1.67555e-09
3.98134e-09
-3.18607e-08
2.32913e-09
5.95054e-09
-3.72416e-08
2.86126e-09
7.92309e-09
-4.0929e-08
3.36649e-09
9.71041e-09
-4.34301e-08
3.9286e-09
1.11571e-08
-4.51013e-08
4.60666e-09
1.21178e-08
-4.6127e-08
5.40239e-09
1.24646e-08
-4.66462e-08
6.29686e-09
1.20965e-08
-4.67855e-08
7.26101e-09
1.09652e-08
-4.66667e-08
8.24161e-09
9.06084e-09
-4.63987e-08
9.18783e-09
6.41948e-09
-4.60596e-08
1.00309e-08
3.35872e-09
-4.54547e-08
1.05184e-08
7.01846e-11
-4.52103e-08
1.08063e-08
-3.23857e-09
-4.52378e-08
1.08255e-08
-6.32316e-09
-4.54416e-08
1.05104e-08
-8.95419e-09
-4.59525e-08
9.96642e-09
-1.08535e-08
-4.63911e-08
9.17708e-09
-1.19964e-08
-4.66845e-08
8.26034e-09
-1.23828e-08
-4.68058e-08
7.28668e-09
-1.20544e-08
-4.6668e-08
6.32213e-09
-1.11084e-08
-4.6154e-08
5.42569e-09
-9.67357e-09
-4.51316e-08
4.6268e-09
-7.90377e-09
-4.34376e-08
3.93528e-09
-5.95566e-09
-4.08731e-08
3.33994e-09
-3.99384e-09
-3.71362e-08
2.8085e-09
-2.1967e-09
-3.17425e-08
2.28035e-09
-7.57463e-10
-2.38358e-08
1.65425e-09
-1.15482e-08
7.72114e-10
6.85899e-10
-1.2876e-08
6.81579e-10
1.98578e-09
-2.6694e-08
1.4683e-09
3.58776e-09
-3.5517e-08
2.05434e-09
5.33807e-09
-4.15671e-08
2.57524e-09
7.11325e-09
-4.57677e-08
3.06357e-09
8.73235e-09
-4.86328e-08
3.58371e-09
1.00501e-08
-5.06356e-08
4.21664e-09
1.09357e-08
-5.19886e-08
4.97605e-09
1.1271e-08
-5.28163e-08
5.83493e-09
1.09638e-08
-5.32364e-08
6.75819e-09
9.97843e-09
-5.33564e-08
7.67504e-09
8.28882e-09
-5.32541e-08
8.54517e-09
5.85409e-09
-5.2995e-08
9.37019e-09
3.05774e-09
-5.26019e-08
9.9437e-09
6.46694e-11
-5.24616e-08
1.02444e-08
-2.94117e-09
-5.24898e-08
1.02579e-08
-5.72561e-09
-5.25938e-08
9.93672e-09
-8.11997e-09
-5.29476e-08
9.38951e-09
-9.83824e-09
-5.3333e-08
8.66019e-09
-1.08633e-08
-5.34009e-08
7.74156e-09
-1.1192e-08
-5.32655e-08
6.78852e-09
-1.0876e-08
-5.2841e-08
5.85694e-09
-1.00031e-08
-5.2022e-08
4.99522e-09
-8.69395e-09
-5.06712e-08
4.23058e-09
-7.09311e-09
-4.86115e-08
3.57313e-09
-5.33546e-09
-4.564e-08
3.00929e-09
-3.56433e-09
-4.14154e-08
2.50816e-09
-1.95082e-09
-3.53804e-08
2.02442e-09
-6.66239e-10
-2.65855e-08
1.46514e-09
-1.29014e-08
6.87018e-10
5.78343e-10
-1.40172e-08
5.6291e-10
1.68668e-09
-2.89834e-08
1.18102e-09
3.04137e-09
-3.84952e-08
1.62357e-09
4.51059e-09
-4.51044e-08
2.06817e-09
5.97431e-09
-4.97696e-08
2.53829e-09
7.33418e-09
-5.30158e-08
3.02318e-09
8.45903e-09
-5.53424e-08
3.58196e-09
9.2335e-09
-5.70224e-08
4.25939e-09
9.55022e-09
-5.81614e-08
5.0285e-09
9.32509e-09
-5.88419e-08
5.83065e-09
8.50186e-09
-5.91505e-08
6.6174e-09
7.02843e-09
-5.92319e-08
7.45126e-09
4.97152e-09
-5.91763e-08
8.23835e-09
2.60544e-09
-5.90052e-08
8.7694e-09
5.60695e-11
-5.89525e-08
9.04042e-09
-2.51253e-09
-5.89396e-08
9.01844e-09
-4.88541e-09
-5.89185e-08
8.6977e-09
-6.91662e-09
-5.9104e-08
8.18768e-09
-8.36783e-09
-5.94148e-08
7.53308e-09
-9.21447e-09
-5.92284e-08
6.67419e-09
-9.46576e-09
-5.88539e-08
5.83977e-09
-9.17424e-09
-5.81623e-08
5.02984e-09
-8.41363e-09
-5.70491e-08
4.26649e-09
-7.28525e-09
-5.53824e-08
3.58285e-09
-5.9286e-09
-5.29716e-08
3.00349e-09
-4.45636e-09
-4.9634e-08
2.52185e-09
-2.99298e-09
-4.49937e-08
2.11491e-09
-1.64889e-09
-3.84446e-08
1.72015e-09
-5.69256e-10
-2.89122e-08
1.24716e-09
-1.40529e-08
5.82226e-10
4.44255e-10
-1.48863e-08
4.24898e-10
1.27939e-09
-3.07227e-08
9.04243e-10
2.32669e-09
-4.07626e-08
1.22017e-09
3.44852e-09
-4.7719e-08
1.49281e-09
4.53634e-09
-5.26883e-08
1.83095e-09
5.54928e-09
-5.62695e-08
2.24075e-09
6.4042e-09
-5.89007e-08
2.70343e-09
7.02336e-09
-6.0871e-08
3.22947e-09
7.32711e-09
-6.22846e-08
3.81951e-09
7.1689e-09
-6.31429e-08
4.45923e-09
6.46288e-09
-6.3615e-08
5.17061e-09
5.27724e-09
-6.39478e-08
5.90154e-09
3.78484e-09
-6.42024e-08
6.51853e-09
2.00834e-09
-6.41718e-08
6.9432e-09
4.9664e-11
-6.41418e-08
7.14803e-09
-1.94248e-09
-6.40499e-08
7.1025e-09
-3.75774e-09
-6.39457e-08
6.84249e-09
-5.28615e-09
-6.3979e-08
6.40351e-09
-6.44e-09
-6.40432e-08
5.7823e-09
-7.08048e-09
-6.36084e-08
5.02047e-09
-7.23737e-09
-6.30593e-08
4.36228e-09
-6.99079e-09
-6.21621e-08
3.75326e-09
-6.40818e-09
-6.08255e-08
3.19384e-09
-5.56079e-09
-5.89526e-08
2.72282e-09
-4.52815e-09
-5.63212e-08
2.31694e-09
-3.40597e-09
-5.27043e-08
1.94818e-09
-2.28732e-09
-4.77345e-08
1.62218e-09
-1.2598e-09
-4.0781e-08
1.30891e-09
-4.35573e-10
-3.06827e-08
9.46222e-10
-1.49294e-08
4.40886e-10
3.00815e-10
-1.54462e-08
2.59148e-10
8.11458e-10
-3.17774e-08
5.44139e-10
1.46702e-09
-4.22043e-08
7.86196e-10
2.17875e-09
-4.94119e-08
9.81217e-10
2.87744e-09
-5.45928e-08
1.20585e-09
3.53171e-09
-5.83885e-08
1.46479e-09
4.08169e-09
-6.11911e-08
1.74048e-09
4.45607e-09
-6.32629e-08
2.0176e-09
4.65867e-09
-6.48072e-08
2.31996e-09
4.54371e-09
-6.57917e-08
2.76378e-09
4.07978e-09
-6.64604e-08
3.3093e-09
3.35998e-09
-6.70396e-08
3.81159e-09
2.41686e-09
-6.74646e-08
4.20534e-09
1.28898e-09
-6.75233e-08
4.47937e-09
5.37733e-11
-6.75387e-08
4.63205e-09
-1.20081e-09
-6.74153e-08
4.62008e-09
-2.35124e-09
-6.72622e-08
4.46694e-09
-3.30107e-09
-6.72161e-08
4.18697e-09
-4.04304e-09
-6.71059e-08
3.8047e-09
-4.4996e-09
-6.64523e-08
3.30048e-09
-4.67018e-09
-6.56569e-08
2.76823e-09
-4.53867e-09
-6.45657e-08
2.27219e-09
-4.13849e-09
-6.31166e-08
1.89099e-09
-3.54683e-09
-6.11736e-08
1.62938e-09
-2.86358e-09
-5.84264e-08
1.42199e-09
-2.14561e-09
-5.46426e-08
1.22028e-09
-1.43699e-09
-4.94636e-08
1.02055e-09
-7.89188e-10
-4.22516e-08
8.22822e-10
-2.73161e-10
-3.17921e-08
5.93429e-10
-1.54787e-08
2.76229e-10
1.11126e-10
-1.56466e-08
8.92756e-11
2.85792e-10
-3.21428e-08
1.90702e-10
5.19867e-10
-4.27224e-08
2.84019e-10
7.77151e-10
-5.00238e-08
3.54613e-10
1.03722e-09
-5.52785e-08
4.25572e-10
1.30052e-09
-5.91372e-08
4.85448e-10
1.54526e-09
-6.19743e-08
5.3851e-10
1.69257e-09
-6.4034e-08
6.23741e-10
1.71558e-09
-6.55863e-08
7.56139e-10
1.62641e-09
-6.66462e-08
9.43704e-10
1.48175e-09
-6.74562e-08
1.14045e-09
1.2677e-09
-6.81333e-08
1.30782e-09
8.65559e-10
-6.8485e-08
1.42251e-09
4.37442e-10
-6.85993e-08
1.50409e-09
3.54171e-11
-6.87214e-08
1.58475e-09
-4.11412e-10
-6.86204e-08
1.65191e-09
-8.29463e-10
-6.84917e-08
1.64756e-09
-1.16062e-09
-6.84247e-08
1.53977e-09
-1.42139e-09
-6.82416e-08
1.3965e-09
-1.58285e-09
-6.75115e-08
1.22076e-09
-1.64872e-09
-6.66262e-08
1.03523e-09
-1.60872e-09
-6.54619e-08
8.5614e-10
-1.46826e-09
-6.39667e-08
7.09633e-10
-1.25713e-09
-6.19826e-08
5.97858e-10
-1.01138e-09
-5.9177e-08
5.04893e-10
-7.54045e-10
-5.53214e-08
4.21553e-10
-5.01064e-10
-5.00652e-08
3.48581e-10
-2.72249e-10
-4.27609e-08
2.80404e-10
-9.37916e-11
-3.21707e-08
2.00137e-10
-1.56687e-08
9.61835e-11
-7.52267e-11
-1.54884e-08
-8.29459e-11
-2.33847e-10
-3.18168e-08
-1.67299e-10
-4.28558e-10
-4.22996e-08
-2.28035e-10
-6.41344e-10
-4.95271e-08
-2.83909e-10
-8.6072e-10
-5.47235e-08
-3.35521e-10
-1.08147e-09
-5.8545e-08
-3.71432e-10
-1.28783e-09
-6.13706e-08
-3.97408e-10
-1.41815e-09
-6.34533e-08
-4.50404e-10
-1.41863e-09
-6.5009e-08
-5.76903e-10
-1.32022e-09
-6.59768e-08
-7.67835e-10
-1.19509e-09
-6.66323e-08
-9.49035e-10
-1.08953e-09
-6.71699e-08
-1.06905e-09
-9.21969e-10
-6.75067e-08
-1.14592e-09
-5.66553e-10
-6.77272e-08
-1.22755e-09
-4.531e-11
-6.7888e-08
-1.35459e-09
3.8111e-10
-6.76423e-08
-1.40448e-09
7.47549e-10
-6.75106e-08
-1.34753e-09
1.07716e-09
-6.74963e-08
-1.25806e-09
1.25699e-09
-6.72781e-08
-1.14334e-09
1.37242e-09
-6.66182e-08
-1.00875e-09
1.42988e-09
-6.58256e-08
-8.58141e-10
1.39774e-09
-6.47262e-08
-7.03503e-10
1.28794e-09
-6.32741e-08
-5.82803e-10
1.10372e-09
-6.1302e-08
-4.96347e-10
8.90603e-10
-5.85335e-08
-4.30379e-10
6.69836e-10
-5.47331e-08
-3.67628e-10
4.49427e-10
-4.954e-08
-3.04805e-10
2.49758e-10
-4.23195e-08
-2.41681e-10
9.00119e-11
-3.1843e-08
-1.67981e-10
-1.55003e-08
-7.84357e-11
-2.59793e-10
-1.49663e-08
-2.62279e-10
-7.54279e-10
-3.07613e-08
-5.6104e-10
-1.37113e-09
-4.0904e-08
-7.78748e-10
-2.04634e-09
-4.78852e-08
-9.66716e-10
-2.72456e-09
-5.28825e-08
-1.16279e-09
-3.3531e-09
-5.65347e-08
-1.38184e-09
-3.87519e-09
-5.92214e-08
-1.62708e-09
-4.24478e-09
-6.11803e-08
-1.90339e-09
-4.41566e-09
-6.26246e-08
-2.21353e-09
-4.28294e-09
-6.34936e-08
-2.616e-09
-3.8417e-09
-6.39529e-08
-3.1207e-09
-3.20719e-09
-6.42292e-08
-3.57528e-09
-2.34411e-09
-6.44453e-08
-3.92449e-09
-1.25814e-09
-6.46141e-08
-4.19908e-09
-1.47379e-11
-6.47537e-08
-4.37774e-09
1.18626e-09
-6.44816e-08
-4.36174e-09
2.31566e-09
-6.4429e-08
-4.21098e-09
3.30391e-09
-6.45462e-08
-3.93838e-09
3.89538e-09
-6.43072e-08
-3.5624e-09
4.27977e-09
-6.38685e-08
-3.13418e-09
4.44988e-09
-6.33543e-08
-2.64134e-09
4.32138e-09
-6.24707e-08
-2.127e-09
3.95128e-09
-6.11146e-08
-1.78937e-09
3.38548e-09
-5.91708e-08
-1.56543e-09
2.7361e-09
-5.652e-08
-1.36416e-09
2.06399e-09
-5.28983e-08
-1.16263e-09
1.38952e-09
-4.79077e-08
-9.57868e-10
7.76859e-10
-4.09493e-08
-7.57612e-10
2.82365e-10
-3.08213e-08
-5.27233e-10
-1.49662e-08
-2.51758e-10
-4.26476e-10
-1.41124e-08
-4.27517e-10
-1.22867e-09
-2.90411e-08
-9.17955e-10
-2.23009e-09
-3.86288e-08
-1.2738e-09
-3.32118e-09
-4.52132e-08
-1.58091e-09
-4.41192e-09
-4.98904e-08
-1.90145e-09
-5.40792e-09
-5.32659e-08
-2.27281e-09
-6.21988e-09
-5.57086e-08
-2.70087e-09
-6.79492e-09
-5.74086e-08
-3.19669e-09
-7.08284e-09
-5.85809e-08
-3.75585e-09
-6.94162e-09
-5.92956e-08
-4.33927e-09
-6.26916e-09
-5.96144e-08
-5.01102e-09
-5.15239e-09
-5.9639e-08
-5.70703e-09
-3.69096e-09
-5.96105e-08
-6.29625e-09
-1.94862e-09
-5.96307e-08
-6.7258e-09
-1.93664e-11
-5.97254e-08
-6.95764e-09
1.90047e-09
-5.94956e-08
-6.90584e-09
3.68872e-09
-5.95319e-08
-6.68543e-09
5.23714e-09
-5.98261e-08
-6.2685e-09
6.28924e-09
-5.96955e-08
-5.66388e-09
6.92479e-09
-5.95064e-08
-4.99765e-09
7.1164e-09
-5.92186e-08
-4.32743e-09
6.8715e-09
-5.85702e-08
-3.65565e-09
6.26805e-09
-5.7435e-08
-3.07621e-09
5.41319e-09
-5.57215e-08
-2.59449e-09
4.40128e-09
-5.33258e-08
-2.18238e-09
3.32937e-09
-5.00112e-08
-1.81532e-09
2.2582e-09
-4.53424e-08
-1.49417e-09
1.26843e-09
-3.87714e-08
-1.18811e-09
4.53364e-10
-2.91702e-08
-8.35981e-10
-1.41089e-08
-4.03869e-10
-5.70192e-10
-1.2976e-08
-5.66225e-10
-1.62774e-09
-2.67656e-08
-1.21802e-09
-2.95057e-09
-3.56073e-08
-1.69863e-09
-4.39411e-09
-4.1673e-08
-2.09663e-09
-5.84397e-09
-4.59378e-08
-2.5027e-09
-7.18714e-09
-4.89458e-08
-2.97692e-09
-8.30541e-09
-5.10428e-08
-3.5476e-09
-9.06106e-09
-5.24331e-08
-4.21988e-09
-9.36982e-09
-5.33011e-08
-4.97104e-09
-9.15083e-09
-5.37654e-08
-5.74918e-09
-8.3276e-09
-5.39147e-08
-6.52296e-09
-6.8537e-09
-5.37977e-08
-7.31524e-09
-4.86739e-09
-5.35315e-08
-8.06541e-09
-2.54857e-09
-5.33346e-08
-8.61503e-09
-1.64886e-11
-5.33508e-08
-8.90672e-09
2.51009e-09
-5.31881e-08
-8.83417e-09
4.85295e-09
-5.33153e-08
-8.55957e-09
6.87145e-09
-5.37704e-08
-8.07434e-09
8.32048e-09
-5.38657e-08
-7.27888e-09
9.15392e-09
-5.39075e-08
-6.43238e-09
9.39517e-09
-5.37776e-08
-5.68231e-09
9.10072e-09
-5.33396e-08
-4.93622e-09
8.34338e-09
-5.24827e-08
-4.19506e-09
7.2364e-09
-5.10889e-08
-3.5257e-09
5.89501e-09
-4.90208e-08
-2.96367e-09
4.45249e-09
-4.6093e-08
-2.47567e-09
3.02379e-09
-4.19172e-08
-1.99649e-09
1.69133e-09
-3.58941e-08
-1.54491e-09
5.97913e-10
-2.69857e-08
-1.09118e-09
-1.29758e-08
-5.35266e-10
-6.82019e-10
-1.16189e-08
-6.75109e-10
-1.94135e-09
-2.40616e-08
-1.44471e-09
-3.53384e-09
-3.19966e-08
-2.01829e-09
-5.29069e-09
-3.74164e-08
-2.49982e-09
-7.04364e-09
-4.11946e-08
-2.99038e-09
-8.64283e-09
-4.38015e-08
-3.54526e-09
-9.95163e-09
-4.55365e-08
-4.19756e-09
-1.08273e-08
-4.66032e-08
-4.95439e-09
-1.1155e-08
-4.71642e-08
-5.80931e-09
-1.08478e-08
-4.73469e-08
-6.72589e-09
-9.86216e-09
-4.72629e-08
-7.63755e-09
-8.16841e-09
-4.70113e-08
-8.48025e-09
-5.7923e-09
-4.665e-08
-9.25772e-09
-3.00594e-09
-4.62417e-08
-9.87929e-09
-1.249e-11
-4.61094e-08
-1.0235e-08
2.97086e-09
-4.59933e-08
-1.01783e-08
5.74992e-09
-4.62203e-08
-9.87411e-09
8.12476e-09
-4.67938e-08
-9.35156e-09
9.84213e-09
-4.70587e-08
-8.52447e-09
1.08533e-08
-4.72894e-08
-7.62928e-09
1.11717e-08
-4.73778e-08
-6.71829e-09
1.08492e-08
-4.72048e-08
-5.81237e-09
9.97616e-09
-4.66505e-08
-4.95917e-09
8.67346e-09
-4.55867e-08
-4.19956e-09
7.06929e-09
-4.38597e-08
-3.55697e-09
5.30281e-09
-4.12915e-08
-3.03513e-09
3.54692e-09
-3.75904e-08
-2.57098e-09
1.96237e-09
-3.2225e-08
-2.08458e-09
6.87574e-10
-2.4232e-08
-1.47891e-09
-1.1614e-08
-6.74204e-10
-7.57796e-10
-1.00924e-08
-7.68682e-10
-2.19083e-09
-2.09718e-08
-1.65675e-09
-3.98468e-09
-2.79232e-08
-2.27957e-09
-5.94434e-09
-3.26557e-08
-2.80112e-09
-7.89478e-09
-3.59174e-08
-3.32684e-09
-9.67057e-09
-3.8106e-08
-3.91971e-09
-1.11115e-08
-3.94853e-08
-4.61035e-09
-1.20669e-08
-4.02404e-08
-5.40746e-09
-1.24075e-08
-4.05188e-08
-6.30493e-09
-1.2037e-08
-4.04468e-08
-7.27062e-09
-1.09043e-08
-4.01459e-08
-8.2498e-09
-9.01079e-09
-3.97364e-08
-9.16845e-09
-6.39969e-09
-3.93005e-08
-9.96068e-09
-3.29847e-09
-3.88086e-08
-1.05344e-08
-8.67802e-12
-3.85205e-08
-1.08788e-08
3.28863e-09
-3.84468e-08
-1.08439e-08
6.38142e-09
-3.87608e-08
-1.05523e-08
8.98091e-09
-3.93489e-08
-1.00444e-08
1.0889e-08
-3.976e-08
-9.20684e-09
1.20346e-08
-4.0171e-08
-8.26417e-09
1.24152e-08
-4.0476e-08
-7.2823e-09
1.20807e-08
-4.05539e-08
-6.31644e-09
1.11293e-08
-4.02812e-08
-5.41802e-09
9.69157e-09
-3.9531e-08
-4.61796e-09
7.91571e-09
-3.81559e-08
-3.92803e-09
5.95172e-09
-3.59767e-08
-3.35083e-09
3.9702e-09
-3.27478e-08
-2.86116e-09
2.17099e-09
-2.8059e-08
-2.36682e-09
7.53349e-10
-2.11003e-08
-1.71419e-09
-1.00888e-08
-7.71939e-10
-7.92814e-10
-8.47254e-09
-8.27095e-10
-2.3344e-09
-1.76481e-08
-1.78219e-09
-4.25193e-09
-2.35809e-08
-2.42483e-09
-6.33496e-09
-2.76051e-08
-2.96761e-09
-8.40622e-09
-3.03347e-08
-3.51144e-09
-1.02866e-08
-3.21099e-08
-4.1158e-09
-1.18055e-08
-3.31544e-08
-4.81204e-09
-1.28034e-08
-3.36319e-08
-5.61072e-09
-1.31432e-08
-3.36769e-08
-6.50209e-09
-1.27253e-08
-3.34105e-08
-7.45437e-09
-1.14999e-08
-3.2949e-08
-8.42241e-09
-9.46904e-09
-3.24156e-08
-9.35182e-09
-6.73472e-09
-3.18814e-08
-1.01535e-08
-3.46697e-09
-3.13798e-08
-1.06966e-08
-4.9253e-12
-3.10257e-08
-1.09569e-08
3.46838e-09
-3.09959e-08
-1.09243e-08
6.72335e-09
-3.13505e-08
-1.06654e-08
9.44845e-09
-3.19109e-08
-1.01633e-08
1.14833e-08
-3.24334e-08
-9.36144e-09
1.27179e-08
-3.29688e-08
-8.43704e-09
1.31447e-08
-3.34338e-08
-7.46917e-09
1.28121e-08
-3.37059e-08
-6.51547e-09
1.18195e-08
-3.36658e-08
-5.62288e-09
1.03025e-08
-3.31926e-08
-4.82152e-09
8.42257e-09
-3.2152e-08
-4.12407e-09
6.34802e-09
-3.03805e-08
-3.52171e-09
4.25124e-09
-2.76602e-08
-2.99089e-09
2.32694e-09
-2.36667e-08
-2.46813e-09
8.00017e-10
-1.77627e-08
-1.81066e-09
-8.465e-09
-8.23802e-10
-8.18516e-10
-6.81223e-09
-8.41829e-10
-2.39047e-09
-1.42743e-08
-1.80192e-09
-4.34683e-09
-1.91581e-08
-2.46646e-09
-6.47794e-09
-2.2457e-08
-3.017e-09
-8.59728e-09
-2.46596e-08
-3.55586e-09
-1.05192e-08
-2.60418e-08
-4.14636e-09
-1.2066e-08
-2.67869e-08
-4.82072e-09
-1.30735e-08
-2.70362e-08
-5.58831e-09
-1.34028e-08
-2.69099e-08
-6.43781e-09
-1.29569e-08
-2.65157e-08
-7.34087e-09
-1.16812e-08
-2.59661e-08
-8.25868e-09
-9.59171e-09
-2.53627e-08
-9.14255e-09
-6.84297e-09
-2.47615e-08
-9.86875e-09
-3.5703e-09
-2.42877e-08
-1.03649e-08
-2.86888e-11
-2.39792e-08
-1.05882e-08
3.49656e-09
-2.39464e-08
-1.05748e-08
6.75698e-09
-2.42505e-08
-1.03606e-08
9.55009e-09
-2.47969e-08
-9.90717e-09
1.16625e-08
-2.53786e-08
-9.16745e-09
1.29459e-08
-2.59778e-08
-8.27438e-09
1.34006e-08
-2.65325e-08
-7.35609e-09
1.30777e-08
-2.69314e-08
-6.45164e-09
1.20751e-08
-2.70629e-08
-5.60044e-09
1.05309e-08
-2.68169e-08
-4.83154e-09
8.60963e-09
-2.60745e-08
-4.15628e-09
6.48917e-09
-2.46952e-08
-3.56498e-09
4.35329e-09
-2.24954e-08
-3.02896e-09
2.38643e-09
-1.92068e-08
-2.49311e-09
8.11062e-10
-1.43468e-08
-1.84064e-09
-6.80941e-09
-8.44556e-10
-8.11983e-10
-5.17661e-09
-8.23673e-10
-2.35243e-09
-1.09732e-08
-1.76072e-09
-4.28061e-09
-1.48123e-08
-2.41768e-09
-6.38926e-09
-1.7398e-08
-2.95048e-09
-8.49066e-09
-1.90938e-08
-3.46449e-09
-1.03986e-08
-2.01121e-08
-4.02183e-09
-1.19314e-08
-2.06009e-08
-4.65318e-09
-1.29249e-08
-2.0676e-08
-5.36678e-09
-1.32429e-08
-2.04385e-08
-6.15347e-09
-1.27873e-08
-1.99854e-08
-6.98593e-09
-1.15122e-08
-1.94118e-08
-7.82959e-09
-9.45626e-09
-1.87983e-08
-8.62046e-09
-6.7503e-09
-1.82163e-08
-9.25128e-09
-3.53959e-09
-1.77829e-08
-9.71558e-09
-3.30656e-11
-1.75421e-08
-9.94376e-09
3.4526e-09
-1.75057e-08
-9.92649e-09
6.66815e-09
-1.77538e-08
-9.71228e-09
9.41157e-09
-1.82462e-08
-9.29431e-09
1.14919e-08
-1.88137e-08
-8.6453e-09
1.27735e-08
-1.94185e-08
-7.84098e-09
1.32356e-08
-1.99959e-08
-6.99876e-09
1.29257e-08
-2.04543e-08
-6.16726e-09
1.19371e-08
-2.06948e-08
-5.37958e-09
1.04068e-08
-2.06229e-08
-4.66376e-09
8.50038e-09
-2.01369e-08
-4.03131e-09
6.39921e-09
-1.91206e-08
-3.47347e-09
4.28778e-09
-1.74249e-08
-2.95916e-09
2.35363e-09
-1.48427e-08
-2.42995e-09
8.03165e-10
-1.10128e-08
-1.78351e-09
-5.18049e-09
-8.2578e-10
-7.6737e-10
-3.63746e-09
-7.71815e-10
-2.2246e-09
-7.86398e-09
-1.652e-09
-4.05985e-09
-1.07085e-08
-2.26868e-09
-6.08046e-09
-1.26148e-08
-2.76263e-09
-8.1056e-09
-1.38352e-08
-3.2335e-09
-9.95178e-09
-1.45259e-08
-3.74005e-09
-1.14379e-08
-1.48013e-08
-4.31349e-09
-1.24024e-08
-1.47523e-08
-4.95931e-09
-1.27107e-08
-1.44616e-08
-5.6687e-09
-1.22686e-08
-1.40071e-08
-6.42049e-09
-1.10318e-08
-1.34632e-08
-7.18543e-09
-9.06365e-09
-1.28963e-08
-7.87034e-09
-6.46453e-09
-1.23892e-08
-8.42633e-09
-3.3861e-09
-1.20152e-08
-8.84624e-09
-2.93522e-11
-1.18231e-08
-9.07583e-09
3.30926e-09
-1.17935e-08
-9.05097e-09
6.3941e-09
-1.19965e-08
-8.84231e-09
9.02166e-09
-1.24073e-08
-8.46656e-09
1.1011e-08
-1.2908e-08
-7.89514e-09
1.22527e-08
-1.34695e-08
-7.19078e-09
1.27014e-08
-1.40135e-08
-6.4312e-09
1.24001e-08
-1.44713e-08
-5.68175e-09
1.14413e-08
-1.47648e-08
-4.97132e-09
9.95808e-09
-1.4816e-08
-4.32374e-09
8.11346e-09
-1.45431e-08
-3.74927e-09
6.08708e-09
-1.38531e-08
-3.24119e-09
4.06514e-09
-1.26331e-08
-2.76988e-09
2.2281e-09
-1.07294e-08
-2.27633e-09
7.65975e-10
-7.88822e-09
-1.66254e-09
-3.64145e-09
-7.73103e-10
-6.84686e-10
-2.26721e-09
-6.85597e-10
-1.99919e-09
-5.07746e-09
-1.47207e-09
-3.68136e-09
-7.0114e-09
-2.01496e-09
-5.55521e-09
-8.29827e-09
-2.44276e-09
-7.452e-09
-9.08886e-09
-2.84965e-09
-9.19517e-09
-9.4943e-09
-3.28855e-09
-1.06068e-08
-9.60074e-09
-3.78905e-09
-1.15291e-08
-9.47499e-09
-4.355e-09
-1.18331e-08
-9.17868e-09
-4.97908e-09
-1.14281e-08
-8.76959e-09
-5.64261e-09
-1.02787e-08
-8.30112e-09
-6.31157e-09
-8.44631e-09
-7.8336e-09
-6.89515e-09
-6.02002e-09
-7.42469e-09
-7.39093e-09
-3.14826e-09
-7.1237e-09
-7.76335e-09
-2.54205e-11
-6.96948e-09
-7.97655e-09
3.08255e-09
-6.95195e-09
-7.94956e-09
5.95542e-09
-7.11268e-09
-7.75675e-09
8.39912e-09
-7.4305e-09
-7.42054e-09
1.02516e-08
-7.83836e-09
-6.92217e-09
1.1411e-08
-8.30511e-09
-6.32396e-09
1.18225e-08
-8.7732e-09
-5.65188e-09
1.15253e-08
-9.184e-09
-4.99029e-09
1.06081e-08
-9.48205e-09
-4.36551e-09
9.1991e-09
-9.60952e-09
-3.7976e-09
7.45716e-09
-9.5043e-09
-3.29691e-09
5.55992e-09
-9.09978e-09
-2.85615e-09
3.68625e-09
-8.31114e-09
-2.44839e-09
2.00482e-09
-7.02905e-09
-2.01897e-09
6.8656e-10
-5.09517e-09
-1.47484e-09
-2.26977e-09
-6.85147e-10
-5.60604e-10
-1.1469e-09
-5.59745e-10
-1.67309e-09
-2.76203e-09
-1.203e-09
-3.13872e-09
-3.91186e-09