/*--------------------------------*- C++ -*----------------------------------*\
| =========                 |                                                 |
| \\      /  F ield         | OpenFOAM: The Open Source CFD Toolbox           |
|  \\    /   O peration     | Version:  v1906                                 |
|   \\  /    A nd           | Web:      www.OpenFOAM.com                      |
|    \\/     M anipulation  |                                                 |
\*---------------------------------------------------------------------------*/
FoamFile
{
    version     2.0;
    format      ascii;
    class       volScalarField;
    location    "26";
    object      alphat;
}
// * * * * * * * * * * * * * * * * * * * * * * * * * * * * * * * * * * * * * //

dimensions      [1 -1 -1 0 0 0 0];


internalField   nonuniform List<scalar> 
78750
(
0.00136068
0.00298408
0.00204434
0.00073717
0.000209265
1.5843e-05
4.12408e-05
1.84374e-05
3.70049e-05
2.67069e-05
3.99139e-05
3.19905e-05
4.26681e-05
3.84911e-05
4.66532e-05
4.41803e-05
4.99539e-05
5.04761e-05
5.35327e-05
5.56022e-05
5.78026e-05
5.99549e-05
6.19778e-05
6.39324e-05
6.57823e-05
6.75441e-05
6.92336e-05
7.08701e-05
7.24981e-05
7.41206e-05
7.58323e-05
7.84221e-05
7.22562e-05
1.57005e-05
3.50075e-07
3.205e-05
1.14421e-05
0.000114247
1.81464e-05
4.10945e-05
4.66611e-05
5.98342e-05
7.34215e-05
8.37354e-05
9.39947e-05
0.000100974
0.000107822
0.000113122
0.000117907
0.000122067
0.000125854
0.000129273
0.000132345
0.000135176
0.000137688
0.000139964
0.000141995
0.000143832
0.00014552
0.000147115
0.000148679
0.000150362
0.000152289
0.000154292
0.000155888
0.000155035
0.000141722
8.49448e-05
1.79163e-05
1.73725e-06
9.5894e-06
1.37863e-05
4.64508e-05
5.58383e-05
7.23598e-05
0.000102559
0.000117649
0.000126022
0.000130844
0.000133796
0.000136854
0.000139922
0.000143077
0.000146339
0.00014965
0.000152921
0.000156065
0.000158989
0.000161593
0.000163809
0.000165633
0.000167095
0.000168271
0.000169293
0.000170336
0.00017119
0.000171187
0.000169671
0.000165268
0.000154428
0.000129547
8.32544e-05
3.48674e-05
1.47064e-05
3.40399e-06
3.1129e-06
2.8667e-05
5.0657e-05
8.50815e-05
7.01608e-05
7.94596e-05
0.000107154
0.000138932
0.000163611
0.000178733
0.000190741
0.00020331
0.000214073
0.000221874
0.000227935
0.000232724
0.000235954
0.000237723
0.000238734
0.000239358
0.000239214
0.000238027
0.000236097
0.0002338
0.000230988
0.000227259
0.000222317
0.000213612
0.000196643
0.000167951
0.000124194
6.84701e-05
2.60967e-05
1.2704e-05
4.3431e-06
9.1984e-07
3.83846e-05
5.24867e-05
6.14603e-05
7.79061e-05
0.000105491
0.000128494
0.000125279
0.000115127
0.000117794
0.00013298
0.000155134
0.000181793
0.000209408
0.000232246
0.000235344
0.000236827
0.000238356
0.000234678
0.000222211
0.000215882
0.000214362
0.000214566
0.000215682
0.000216208
0.000212939
0.000201288
0.000179231
0.000149399
0.000114124
7.61267e-05
4.22287e-05
2.14785e-05
1.58264e-05
5.52865e-06
5.45308e-07
2.20578e-05
2.67183e-05
2.87985e-05
3.08676e-05
3.32702e-05
3.64408e-05
4.20233e-05
5.309e-05
7.13266e-05
8.83005e-05
9.38011e-05
9.62496e-05
0.000101946
0.000110654
0.000121714
0.000135016
0.000150024
0.000166199
0.000182574
0.000197108
0.000207249
0.000211018
0.00020781
0.000199023
0.000186929
0.000171956
0.000152627
0.000127896
9.80564e-05
6.46162e-05
3.42447e-05
1.7692e-05
1.6165e-05
6.22184e-06
1.36729e-06
2.543e-05
4.65256e-05
5.29241e-05
5.13599e-05
4.63643e-05
4.02776e-05
3.48818e-05
3.11882e-05
2.95773e-05
3.14861e-05
4.04657e-05
5.8741e-05
7.60866e-05
8.37808e-05
8.60594e-05
8.6094e-05
8.57734e-05
8.63945e-05
8.84635e-05
9.21949e-05
9.79204e-05
0.000106477
0.000120099
0.000142843
0.000176589
0.000206601
0.000194608
0.000139731
8.69091e-05
5.0947e-05
2.84473e-05
1.78746e-05
2.10615e-05
6.92606e-06
2.54373e-06
2.827e-05
6.58655e-05
8.97987e-05
9.43569e-05
8.59162e-05
7.04907e-05
5.53111e-05
4.41054e-05
3.64419e-05
3.14272e-05
3.07447e-05
4.02651e-05
7.69054e-05
0.000141927
0.000136985
0.000124889
0.000126913
0.000132112
0.000136492
0.00014069
0.000143761
0.00014466
0.000143871
0.000143556
0.000146544
0.000153565
0.000157868
0.000142274
9.81955e-05
5.18022e-05
2.54203e-05
1.61384e-05
2.24674e-05
7.4183e-06
3.03393e-06
2.46964e-05
6.05357e-05
9.16954e-05
9.86428e-05
8.90742e-05
7.47194e-05
6.24655e-05
5.32989e-05
4.59925e-05
3.95568e-05
3.39978e-05
3.01929e-05
3.00547e-05
3.86755e-05
7.12349e-05
0.000132009
0.000123649
0.00010609
0.000103712
0.000107743
0.000114014
0.000121864
0.000129931
0.000136457
0.000140499
0.000141917
0.000138011
0.000119859
8.24861e-05
4.41979e-05
2.33456e-05
1.73369e-05
2.90439e-05
8.00872e-06
3.58887e-06
2.0304e-05
5.26868e-05
9.13886e-05
9.66635e-05
8.05819e-05
6.73637e-05
6.16544e-05
6.1155e-05
6.35712e-05
6.5909e-05
6.42121e-05
5.75372e-05
4.96525e-05
4.33602e-05
3.97913e-05
4.35013e-05
6.59941e-05
0.000117267
0.000133584
0.000118237
0.000108479
0.000105869
0.000107949
0.000112925
0.00011798
0.000119908
0.000116335
0.000103167
7.42513e-05
3.95528e-05
2.03662e-05
1.63615e-05
3.28024e-05
8.5049e-06
6.86188e-06
2.7989e-05
9.10855e-05
0.000142565
8.15757e-05
5.02334e-05
4.18719e-05
4.28563e-05
4.85122e-05
5.94015e-05
7.7679e-05
0.00010029
0.000113293
0.000104417
8.15651e-05
6.00775e-05
4.6077e-05
4.29503e-05
5.99205e-05
0.000127031
0.000171104
0.000170257
0.000170663
0.000153426
0.000147848
0.000146818
0.000140806
0.000124643
9.65772e-05
5.96431e-05
3.02895e-05
1.80134e-05
1.79488e-05
4.4429e-05
9.04798e-06
9.39598e-06
5.93737e-05
0.000123146
6.11661e-05
3.29481e-05
2.83999e-05
4.18956e-05
7.78428e-05
0.000116909
0.000128997
0.00012521
0.000119741
0.000113331
0.000102228
8.52328e-05
6.62379e-05
5.05512e-05
4.11652e-05
3.96709e-05
5.04346e-05
8.38998e-05
0.000135921
0.000167765
0.000169946
0.000169658
0.000152357
0.000129371
0.000105022
7.81869e-05
4.7338e-05
2.37022e-05
1.473e-05
1.7779e-05
5.72941e-05
9.18641e-06
8.9455e-06
6.01345e-05
0.000119745
9.13332e-05
6.74298e-05
5.60279e-05
5.095e-05
5.28958e-05
6.03982e-05
7.03332e-05
8.07965e-05
9.04619e-05
9.75033e-05
9.9584e-05
9.47503e-05
8.29296e-05
6.70849e-05
5.21274e-05
4.18859e-05
3.84333e-05
4.43176e-05
6.35238e-05
8.96245e-05
0.000101547
9.87091e-05
8.96221e-05
7.76302e-05
6.40112e-05
4.79346e-05
2.8758e-05
1.64238e-05
1.40317e-05
2.13975e-05
8.1033e-05
9.18696e-06
7.01595e-06
3.43597e-05
8.4034e-05
0.000121649
0.00013781
9.769e-05
5.63938e-05
4.23237e-05
3.99482e-05
4.18646e-05
4.71089e-05
5.63331e-05
6.95654e-05
8.44176e-05
9.60003e-05
0.000100756
9.74263e-05
8.55466e-05
6.83005e-05
5.28025e-05
4.41259e-05
4.45089e-05
5.6184e-05
7.34524e-05
7.77969e-05
7.0455e-05
5.98248e-05
4.84394e-05
3.71163e-05
2.47418e-05
1.24255e-05
1.01343e-05
1.949e-05
8.47874e-05
9.15351e-06
6.91267e-06
3.28302e-05
9.4183e-05
0.000153541
0.00016992
0.000171464
0.00015262
0.000105374
7.03386e-05
5.33227e-05
4.47763e-05
4.09012e-05
4.09065e-05
4.56786e-05
5.73115e-05
7.62777e-05
9.52828e-05
0.000104908
0.000103207
8.98478e-05
7.04893e-05
5.49745e-05
4.73531e-05
4.7345e-05
5.149e-05
5.10718e-05
4.36122e-05
3.34313e-05
2.25844e-05
1.29547e-05
6.19073e-06
7.15229e-06
1.71225e-05
8.11804e-05
9.21925e-06
6.13426e-06
2.68324e-05
7.4399e-05
0.000134098
0.000165016
0.0001708
0.000167295
0.000160612
0.000143596
0.000113421
8.49159e-05
6.54277e-05
5.2192e-05
4.29767e-05
3.77117e-05
3.7984e-05
4.73035e-05
6.92348e-05
9.63842e-05
0.000114267
0.000116821
0.0001008
7.79966e-05
6.20714e-05
5.45174e-05
5.08137e-05
4.39913e-05
3.17204e-05
1.8234e-05
6.32939e-06
7.14178e-07
4.54416e-06
1.60124e-05
8.48764e-05
9.38016e-06
6.00924e-06
2.37561e-05
6.47817e-05
0.000127299
0.000160941
0.00015425
0.000122664
9.02468e-05
7.3396e-05
7.2034e-05
8.3319e-05
0.000102736
0.000113231
9.46213e-05
6.54668e-05
4.51448e-05
3.60166e-05
3.83177e-05
5.6502e-05
9.49533e-05
0.000137026
0.000157367
0.00014453
0.000109993
8.0435e-05
6.33594e-05
5.23774e-05
3.84131e-05
1.77576e-05
2.63378e-06
3.26207e-06
6.50542e-06
2.02233e-05
0.000102889
9.62699e-06
7.85104e-06
3.39911e-05
0.00010529
0.000171012
0.000182137
0.000166817
0.000137845
0.000108408
8.52149e-05
6.83874e-05
6.01491e-05
6.4913e-05
8.85169e-05
0.000129322
0.00014308
9.00065e-05
4.95414e-05
3.62871e-05
4.05289e-05
6.62899e-05
0.000122734
0.000182033
0.000191765
0.000158162
0.000112879
7.75192e-05
5.42826e-05
3.34886e-05
4.76745e-06
3.83918e-06
7.57774e-07
5.7058e-06
2.49018e-05
0.000109503
9.76113e-06
9.43074e-06
4.44741e-05
0.000141414
0.000184166
0.000171525
0.000130283
8.63477e-05
6.40044e-05
6.24072e-05
7.44588e-05
8.42022e-05
8.26103e-05
8.656e-05
0.0001066
0.000129421
0.000115174
6.8461e-05
4.26243e-05
3.90537e-05
5.66902e-05
0.0001083
0.00018358
0.00020746
0.000174493
0.000126992
8.56345e-05
5.49471e-05
2.89524e-05
1.38211e-05
1.78656e-06
4.82877e-07
6.38303e-06
2.82965e-05
9.60317e-05
9.72185e-06
9.54301e-06
4.6173e-05
0.000139833
0.000172565
0.000151285
0.000104073
6.56301e-05
4.74968e-05
4.559e-05
5.95386e-05
8.92729e-05
0.000117951
0.000126192
0.000120899
0.00011086
9.13409e-05
6.49386e-05
4.70358e-05
4.47882e-05
6.30844e-05
0.000112452
0.000179356
0.0002062
0.0001844
0.000145396
0.000106297
7.26752e-05
4.35209e-05
1.47379e-05
1.66653e-06
2.85012e-06
5.35684e-06
2.67189e-05
8.14758e-05
9.56757e-06
9.06974e-06
4.45422e-05
0.000141769
0.000175982
0.000147557
9.99014e-05
6.6581e-05
5.01064e-05
4.48874e-05
5.05068e-05
7.07627e-05
0.000104368
0.000130672
0.000131202
0.000110071
8.25101e-05
6.08796e-05
5.02504e-05
5.291e-05
7.28344e-05
0.000112229
0.000155097
0.000174863
0.000168431
0.000148043
0.000122146
9.45663e-05
6.75541e-05
3.94804e-05
1.00745e-05
2.84543e-06
3.35512e-06
2.22392e-05
7.61836e-05
9.46549e-06
8.64709e-06
3.70608e-05
0.000114788
0.000165181
0.00014959
0.000109454
7.60706e-05
5.67128e-05
4.58891e-05
4.17178e-05
4.61021e-05
6.21972e-05
8.97037e-05
0.000113992
0.000115214
9.35734e-05
7.01737e-05
6.01651e-05
6.65728e-05
9.05804e-05
0.000126502
0.000154796
0.000162688
0.000155662
0.000141593
0.000124002
0.000104439
8.43989e-05
6.46719e-05
3.86422e-05
6.31807e-06
2.8185e-06
1.59026e-05
9.44002e-05
9.49484e-06
8.7333e-06
3.43114e-05
0.000105471
0.000161769
0.000132898
8.41576e-05
5.74746e-05
4.86872e-05
4.5946e-05
4.32115e-05
4.40433e-05
5.40062e-05
7.71337e-05
0.000109467
0.000129039
0.000118367
9.33048e-05
7.94308e-05
8.69067e-05
0.000117799
0.000156921
0.000174561
0.000168111
0.000152417
0.000135459
0.000118732
0.000102056
8.63799e-05
7.45599e-05
6.42481e-05
2.39393e-05
1.08585e-06
8.11064e-06
6.60405e-05
9.75639e-06
1.01192e-05
4.29296e-05
0.000137585
0.000161682
0.000101541
5.53232e-05
3.82358e-05
3.60922e-05
4.05105e-05
4.5285e-05
5.10771e-05
6.4909e-05
9.02006e-05
0.000115635
0.000121228
0.000110326
0.000104898
0.000118
0.000145503
0.000165455
0.000168999
0.000162941
0.000152161
0.000138387
0.000123266
0.000108006
9.2905e-05
7.94984e-05
7.30086e-05
6.01419e-05
1.81786e-05
1.83829e-07
6.13961e-06
5.30369e-05
1.0436e-05
1.08796e-05
5.47942e-05
0.000157795
0.000118648
5.86582e-05
3.28506e-05
2.74687e-05
3.40033e-05
4.63895e-05
5.6758e-05
6.72524e-05
8.33731e-05
0.000101106
0.000110147
0.00011209
0.000119472
0.000139073
0.000159763
0.000167443
0.000166398
0.000162149
0.000154813
0.000144371
0.00013174
0.000117685
0.000102828
8.79395e-05
7.31384e-05
5.52934e-05
2.20852e-05
6.21214e-06
3.02969e-06
1.47866e-05
0.000101189
1.12003e-05
1.06787e-05
5.79751e-05
0.000147056
0.000100069
5.06114e-05
2.96924e-05
2.5418e-05
3.33349e-05
4.9709e-05
6.42909e-05
7.60587e-05
8.87499e-05
9.93933e-05
0.000103784
0.000107856
0.000124633
0.000160355
0.000195382
0.000207774
0.000206718
0.000200719
0.000190487
0.000176955
0.000160993
0.000142881
0.000122616
9.76011e-05
6.02633e-05
2.19727e-05
8.10323e-06
7.06897e-06
1.16008e-05
3.58257e-05
0.000128113
1.13364e-05
1.02832e-05
5.67239e-05
0.000142376
0.000119758
7.16255e-05
3.94922e-05
2.61946e-05
2.57358e-05
3.61805e-05
5.39595e-05
7.32853e-05
9.18893e-05
0.000107443
0.000117042
0.000126406
0.000153186
0.000213726
0.000227453
0.000224918
0.000223658
0.000223295
0.000223358
0.00022332
0.000222614
0.000220681
0.00016943
9.78466e-05
3.68626e-05
1.21424e-05
6.72328e-06
1.0984e-05
2.84556e-05
8.75437e-05
7.23087e-05
1.04453e-05
9.69103e-06
4.95142e-05
0.000135182
0.000151276
0.000121562
6.82307e-05
3.56754e-05
2.35199e-05
2.32767e-05
3.29724e-05
5.21697e-05
7.65798e-05
0.000100175
0.000119845
0.000136425
0.000157849
0.000197223
0.000235283
0.000231014
0.000227822
0.000225572
0.000224001
0.000222754
0.000221397
0.000195473
0.000142416
8.62966e-05
3.73822e-05
1.35388e-05
7.02895e-06
9.79505e-06
3.14352e-05
0.000115168
4.84094e-05
9.30798e-06
9.34175e-06
4.5205e-05
0.000129336
0.000161179
0.000153517
0.000120166
6.93075e-05
3.63776e-05
2.27846e-05
2.00363e-05
2.60852e-05
4.32662e-05
7.15674e-05
0.00010258
0.000130144
0.0001574
0.000187753
0.000216908
0.000235449
0.000239946
0.000233749
0.000220341
0.000201359
0.000177756
0.00015084
0.000122037
9.09213e-05
5.58842e-05
2.5276e-05
1.04769e-05
7.74089e-06
1.74186e-05
7.01625e-05
4.64087e-05
8.85564e-06
9.1024e-06
4.19009e-05
0.000125126
0.000167062
0.000161407
0.000142124
0.000118276
8.02568e-05
4.4813e-05
2.64751e-05
1.95034e-05
2.04784e-05
3.10674e-05
5.45392e-05
8.89941e-05
0.000128787
0.000169858
0.000204016
0.000223259
0.00022859
0.000225491
0.000217253
0.000204446
0.000186884
0.00016485
0.000139511
0.000112299
8.28976e-05
5.04203e-05
2.28572e-05
9.83625e-06
9.97912e-06
3.02303e-05
5.92959e-05
9.05225e-06
9.03169e-06
3.94809e-05
0.000116738
0.000165395
0.000157242
0.000123089
9.58922e-05
8.88926e-05
8.62003e-05
6.07304e-05
3.48088e-05
2.19985e-05
1.85585e-05
2.42761e-05
4.33508e-05
7.94884e-05
0.00012968
0.00018064
0.000215748
0.00023241
0.000237663
0.000236187
0.00022835
0.000213567
0.000192516
0.000167189
0.000139711
0.000110474
7.70714e-05
4.08315e-05
1.61927e-05
9.10429e-06
2.16624e-05
8.5933e-05
9.50611e-06
9.40581e-06
3.96705e-05
0.000113859
0.000164511
0.000160601
0.000125285
8.50504e-05
6.4964e-05
6.65933e-05
8.38776e-05
8.06549e-05
4.65682e-05
2.5771e-05
1.86961e-05
2.18658e-05
3.99963e-05
8.38135e-05
0.000151122
0.000207336
0.00022935
0.000234777
0.000239856
0.000237909
0.000222371
0.000200723
0.000175957
0.000149826
0.000122568
9.12453e-05
5.2827e-05
2.17329e-05
1.10843e-05
2.14109e-05
0.00010838
9.91888e-06
9.91882e-06
4.124e-05
0.000120791
0.000166502
0.000149807
0.000108263
7.6819e-05
6.16823e-05
5.77099e-05
6.69724e-05
9.16124e-05
9.84337e-05
5.53477e-05
2.79869e-05
1.9645e-05
2.37927e-05
4.84691e-05
0.000118344
0.000206041
0.000211802
0.000217721
0.000223618
0.000229348
0.000212399
0.00018639
0.000161269
0.000137887
0.000114893
8.89169e-05
5.54807e-05
2.44472e-05
1.30388e-05
2.27118e-05
0.00011502
1.0238e-05
1.05432e-05
4.49913e-05
0.000133048
0.000164394
0.000129683
7.98819e-05
5.61662e-05
5.39917e-05
6.24055e-05
7.34014e-05
8.83856e-05
0.000104902
9.13832e-05
4.81729e-05
2.63131e-05
2.23773e-05
3.53879e-05
8.76864e-05
0.000199737
0.000203725
0.000208354
0.000213236
0.000218167
0.000204912
0.000172406
0.000144132
0.000120831
9.93978e-05
7.33451e-05
4.4475e-05
2.20967e-05
1.41874e-05
2.59054e-05
0.000121033
1.06758e-05
1.09413e-05
4.89004e-05
0.000141297
0.000154228
0.000107553
6.12688e-05
4.36719e-05
4.61484e-05
6.41802e-05
9.00299e-05
0.000107062
0.000108576
9.26837e-05
5.93489e-05
3.40134e-05
2.60443e-05
3.70377e-05
9.14302e-05
0.000205012
0.000207493
0.0002107
0.000214148
0.000217618
0.000213701
0.000177585
0.000143633
0.000112405
8.00595e-05
4.57098e-05
2.73405e-05
1.85757e-05
1.72111e-05
3.65471e-05
0.000133963
1.12093e-05
1.07857e-05
4.8325e-05
0.000140576
0.000148738
9.87505e-05
5.48437e-05
3.87083e-05
4.09285e-05
5.81958e-05
8.65569e-05
0.000109843
0.000111326
9.10246e-05
6.20559e-05
3.98966e-05
3.21819e-05
4.56834e-05
0.000114815
0.000217229
0.000219001
0.000221357
0.000223796
0.000226025
0.000227918
0.000226907
0.0001713
0.000108963
5.40928e-05
2.56878e-05
1.88057e-05
2.07196e-05
2.76555e-05
6.22337e-05
0.000111786
1.1268e-05
1.0604e-05
4.58736e-05
0.000133157
0.00014916
0.000105753
5.69485e-05
3.54818e-05
3.32556e-05
4.50888e-05
6.87323e-05
9.36819e-05
0.000101826
8.7279e-05
6.32901e-05
4.53465e-05
4.08854e-05
6.07922e-05
0.000148207
0.00023283
0.000234254
0.000236129
0.000238004
0.000239531
0.00024047
0.000240703
0.000176906
9.77072e-05
4.32444e-05
2.01485e-05
1.50996e-05
2.28167e-05
4.80655e-05
0.000112445
7.25132e-05
1.05935e-05
1.06176e-05
4.44579e-05
0.000128526
0.000148807
0.000109182
5.81931e-05
3.27341e-05
2.7016e-05
3.46306e-05
5.40155e-05
7.81022e-05
9.05732e-05
8.30803e-05
6.54019e-05
5.19431e-05
5.16748e-05
7.69882e-05
0.000159401
0.000249566
0.000250945
0.000252636
0.000254295
0.000255632
0.000236436
0.000188963
0.000144204
9.92636e-05
5.57354e-05
2.62039e-05
1.46599e-05
1.70249e-05
4.07541e-05
0.000122064
5.87843e-05
9.9602e-06
1.08238e-05
4.55273e-05
0.000131499
0.000147084
0.000103381
5.48589e-05
3.05384e-05
2.37249e-05
2.88691e-05
4.47634e-05
6.5802e-05
7.86741e-05
7.66371e-05
6.67385e-05
6.02989e-05
6.69127e-05
9.83521e-05
0.000165023
0.000238921
0.000266517
0.000268248
0.000255828
0.000228777
0.000197735
0.000166411
0.000136394
0.000107315
7.7797e-05
4.78158e-05
2.38496e-05
1.43586e-05
2.26092e-05
6.24632e-05
7.20757e-05
9.99989e-06
1.09869e-05
4.74684e-05
0.000134047
0.00014295
9.85689e-05
5.19974e-05
2.85501e-05
2.13147e-05
2.52158e-05
3.92805e-05
5.89492e-05
7.288e-05
7.46362e-05
6.98919e-05
6.94677e-05
8.39353e-05
0.00012323
0.000181622
0.000226738
0.000244568
0.000244948
0.000234809
0.000216562
0.000193091
0.00016764
0.000142029
0.000115189
8.48878e-05
5.78756e-05
3.45712e-05
1.62686e-05
1.53025e-05
3.51686e-05
9.2622e-05
1.08154e-05
1.09508e-05
4.79416e-05
0.000133634
0.000144159
0.000106138
5.80598e-05
2.96299e-05
1.89625e-05
1.98551e-05
3.07692e-05
4.88248e-05
6.57179e-05
7.46185e-05
7.76926e-05
8.47895e-05
0.000109598
0.000164974
0.000236629
0.000280516
0.000289051
0.000291644
0.000281356
0.000257851
0.000227578
0.000194111
0.000154621
0.000102113
5.7764e-05
3.95635e-05
2.85825e-05
1.77068e-05
1.91335e-05
4.87768e-05
9.2566e-05
1.1603e-05
1.09255e-05
4.827e-05
0.000133999
0.000147241
0.000115854
7.00871e-05
3.57301e-05
1.94491e-05
1.5826e-05
2.25042e-05
3.8216e-05
5.70963e-05
7.19685e-05
8.24923e-05
9.65327e-05
0.00013045
0.000206429
0.000289301
0.000292878
0.000296244
0.000299142
0.000301336
0.000302648
0.000302996
0.000233977
0.000134456
5.99275e-05
3.24593e-05
2.90981e-05
3.08888e-05
2.67075e-05
3.55572e-05
9.55672e-05
7.09348e-05
1.12468e-05
1.08624e-05
4.80274e-05
0.000134561
0.000149938
0.00012224
8.12581e-05
4.52566e-05
2.29957e-05
1.3803e-05
1.46221e-05
2.48074e-05
4.2652e-05
6.3087e-05
8.27516e-05
0.0001042
0.000138047
0.000203548
0.000291859
0.000296594
0.000300713
0.000304053
0.00030641
0.000307561
0.000291567
0.000198364
0.000101396
4.4815e-05
2.49442e-05
2.37736e-05
3.55295e-05
5.17831e-05
7.60535e-05
0.000135276
5.28313e-05
9.9892e-06
1.09334e-05
4.84044e-05
0.000135137
0.000152843
0.000128051
9.13079e-05
5.71189e-05
3.06333e-05
1.55741e-05
1.05346e-05
1.39756e-05
2.52086e-05
4.23896e-05
6.40788e-05
9.08548e-05
0.000125416
0.000170267
0.000218872
0.000254101
0.000267728
0.000265327
0.000252969
0.00023276
0.000204482
0.000164578
0.00010924
5.66684e-05
2.90508e-05
2.11504e-05
2.66255e-05
5.28118e-05
0.000112049
0.000123522
4.38261e-05
9.04769e-06
1.10031e-05
4.88926e-05
0.000136641
0.000153743
0.000128032
9.34452e-05
6.43637e-05
3.97827e-05
2.02483e-05
9.74216e-06
7.43135e-06
1.21377e-05
2.36925e-05
4.20212e-05
6.70091e-05
9.67894e-05
0.000126324
0.000152341
0.000175723
0.00019637
0.000210429
0.00021403
0.000206765
0.000190597
0.000167147
0.000135803
9.54629e-05
5.56908e-05
3.18447e-05
2.44025e-05
3.12497e-05
6.62831e-05
0.000118471
4.74696e-05
9.05356e-06
1.11085e-05
5.00012e-05
0.000139334
0.000155606
0.000128822
9.43008e-05
6.77989e-05
4.69325e-05
2.64895e-05
1.16139e-05
4.34634e-06
3.55301e-06
8.41363e-06
2.18999e-05
4.40832e-05
7.2639e-05
0.000106948
0.000147103
0.000188336
0.000220299
0.000235521
0.000235039
0.000224151
0.000207364
0.000187149
0.000164391
0.000138371
0.000106811
7.11723e-05
4.25326e-05
2.8825e-05
3.32789e-05
6.77435e-05
6.64791e-05
9.78539e-06
1.12299e-05
5.21156e-05
0.000142646
0.000153787
0.000124046
8.99622e-05
6.66746e-05
5.00594e-05
3.19265e-05
1.44928e-05
3.51694e-06
5.52801e-07
4.70143e-07
1.04397e-05
3.54071e-05
7.62749e-05
0.000135868
0.000205559
0.000258646
0.000281043
0.000281088
0.000269604
0.000252179
0.000231372
0.000208628
0.000184913
0.000160869
0.000135802
0.000105273
6.61224e-05
3.38443e-05
2.6124e-05
4.85394e-05
9.13123e-05
1.08734e-05
1.13028e-05
5.43493e-05
0.000146252
0.000151533
0.000119358
8.6251e-05
6.52033e-05
5.13661e-05
3.58726e-05
1.76183e-05
4.61215e-06
9.32563e-07
6.39685e-07
9.83788e-06
4.26726e-05
0.000107585
0.000208235
0.000301259
0.000339181
0.000351354
0.000346137
0.000327685
0.00029945
0.000265909
0.000228708
0.000187478
0.000144287
0.000108005
8.29999e-05
5.89709e-05
3.66626e-05
3.34528e-05
6.91007e-05
9.40766e-05
1.14276e-05
1.13489e-05
5.6673e-05
0.000148954
0.000147084
0.000112091
8.12781e-05
6.37658e-05
5.31013e-05
4.01817e-05
2.21294e-05
7.22139e-06
2.03647e-07
1.27465e-06
9.13438e-06
4.10669e-05
0.000125149
0.000267272
0.000336148
0.000351463
0.000364733
0.000376043
0.000385368
0.000355897
0.000301663
0.000239046
0.000171763
0.000111742
7.40019e-05
5.912e-05
5.4593e-05
4.91999e-05
5.83381e-05
0.00011779
7.42947e-05
1.095e-05
1.13365e-05
5.82173e-05
0.000150158
0.000141773
0.000105026
7.66816e-05
6.21606e-05
5.41493e-05
4.38223e-05
2.68701e-05
1.02592e-05
2.91482e-06
2.56826e-07
4.64179e-06
3.41196e-05
0.000117498
0.000268117
0.000341335
0.000356797
0.000370522
0.000382526
0.000388055
0.000348437
0.000297202
0.000234555
0.000164582
0.000102715
6.35887e-05
4.77104e-05
4.95547e-05
6.45561e-05
9.62283e-05
0.000144086
5.82634e-05
1.00486e-05
1.13068e-05
5.93962e-05
0.000150435
0.000136585
9.88772e-05
7.30594e-05
6.11581e-05
5.54096e-05
4.74603e-05
3.20292e-05
1.37076e-05
1.05429e-06
3.1219e-07
4.77285e-06
2.24822e-05
8.42269e-05
0.000225289
0.000332712
0.000357456
0.000360277
0.000343902
0.000322994
0.000299271
0.000270383
0.000232168
0.000182199
0.000126145
7.94424e-05
5.27795e-05
4.60194e-05
6.00927e-05
0.000102277
0.000138097
5.46082e-05
9.66602e-06
1.12363e-05
5.96812e-05
0.000150178
0.000131161
9.27632e-05
6.95021e-05
6.01779e-05
5.66904e-05
5.11173e-05
3.78626e-05
1.9897e-05
5.95336e-06
1.40367e-06
3.22091e-06
1.00199e-05
5.27496e-05
0.000172676
0.000300651
0.000341417
0.000330366
0.000305722
0.000281589
0.000261114
0.000242914
0.000223244
0.00019714
0.000160757
0.000116803
7.78846e-05
5.57263e-05
5.39789e-05
7.82646e-05
0.000128011
6.26267e-05
1.00384e-05
1.11935e-05
6.01022e-05
0.000149548
0.00012552
8.6975e-05
6.65569e-05
5.99101e-05
5.86063e-05
5.5282e-05
4.39048e-05
2.54211e-05
8.99617e-06
2.86763e-06
4.85191e-07
5.60904e-06
3.02667e-05
0.000112201
0.000267088
0.000342846
0.000335352
0.000303836
0.00027158
0.000244707
0.000224488
0.000209602
0.00019591
0.000177075
0.000147281
0.000107666
7.20256e-05
5.54397e-05
6.51268e-05
0.000114036
7.65046e-05
1.07687e-05
1.11153e-05
6.01804e-05
0.00014768
0.000117127
7.90774e-05
6.22324e-05
5.89805e-05
6.04796e-05
5.9576e-05
5.04713e-05
3.26054e-05
1.32027e-05
1.84375e-07
1.28354e-06
5.99724e-07
1.38014e-05
6.45374e-05
0.000217874
0.000342711
0.000356361
0.00032324
0.000280721
0.000241483
0.000210907
0.000190616
0.000178001
0.000166086
0.00014577
0.000112916
7.81969e-05
6.0183e-05
7.05804e-05
0.000124998
8.20482e-05
1.12228e-05
1.10586e-05
6.04074e-05
0.000145328
0.000108797
7.21477e-05
5.87351e-05
5.86254e-05
6.26976e-05
6.37367e-05
5.65097e-05
4.02059e-05
2.05102e-05
5.49994e-06
2.94561e-06
3.76933e-06
3.92286e-06
3.17901e-05
0.000125188
0.000305109
0.000361932
0.000336887
0.000288317
0.000237398
0.000196014
0.000169241
0.000154795
0.0001447
0.00012911
0.000104465
7.9863e-05
7.03272e-05
9.01085e-05
0.000147103
7.4618e-05
1.10856e-05
1.09341e-05
5.95655e-05
0.000141152
9.90604e-05
6.43105e-05
5.41016e-05
5.7107e-05
6.42055e-05
6.78885e-05
6.31667e-05
4.85732e-05
2.81338e-05
1.00373e-05
2.4125e-07
6.76851e-07
2.76301e-07
9.10084e-06
5.32568e-05
0.00020071
0.000321844
0.000326724
0.00028647
0.000233887
0.000186149
0.000152979
0.000134885
0.000125593
0.000115793
0.000100596
8.64298e-05
8.6622e-05
0.000114836
0.000157539
6.58528e-05
1.06425e-05
1.08454e-05
5.80477e-05
0.000137257
9.24044e-05
5.88655e-05
5.04272e-05
5.53359e-05
6.46832e-05
7.07488e-05
6.8733e-05
5.71491e-05
3.83256e-05
1.80343e-05
2.98129e-06
2.91666e-07
4.30828e-07
2.32802e-06
1.79964e-05
7.79041e-05
0.000230776
0.000282247
0.000265979
0.000227174
0.000184765
0.000150086
0.000127691
0.000116195
0.000109817
0.000102837
9.76613e-05
0.000105193
0.000134329
0.000159518
6.22528e-05
1.03319e-05
1.07091e-05
5.55818e-05
0.000132163
8.56516e-05
5.29419e-05
4.55969e-05
5.1884e-05
6.35677e-05
7.2719e-05
7.40471e-05
6.58328e-05
4.93698e-05
2.88266e-05
1.03416e-05
1.06296e-06
2.69963e-06
1.04502e-07
2.91943e-06
2.50847e-05
0.000102114
0.000235863
0.000247398
0.000218374
0.000182887
0.000152315
0.000128533
0.000112262
0.000104349
0.000102795
0.00010644
0.000119913
0.000145705
0.000159193
6.19065e-05
1.02984e-05
1.06466e-05
5.32971e-05
0.000128694
8.29901e-05
4.95856e-05
4.19821e-05
4.85291e-05
6.15564e-05
7.32745e-05
7.81649e-05
7.42167e-05
6.16035e-05
4.29143e-05
2.21914e-05
4.97388e-06
1.19154e-06
1.24877e-06
2.42527e-06
4.68427e-06
3.29931e-05
0.000127031
0.000237611
0.00021874
0.000174556
0.000142036
0.000125837
0.000115173
0.000106008
0.000103623
0.00011134
0.00012938
0.000152691
0.000158993
6.24799e-05
1.04483e-05
1.05741e-05
5.15533e-05
0.000125244
8.05495e-05
4.61643e-05
3.7814e-05
4.41625e-05
5.86251e-05
7.34355e-05
8.21045e-05
8.22329e-05
7.38185e-05
5.82942e-05
3.84743e-05
1.74019e-05
8.93913e-07
4.14876e-06
1.9651e-06
1.0483e-06
7.01695e-06
3.95552e-05
0.000143243
0.000235694
0.000188504
0.000129905
0.000103255
0.000102348
0.000108885
0.000113657
0.000123176
0.000141436
0.000161
0.000159609
6.09608e-05
1.0474e-05
1.05659e-05
5.05869e-05
0.00012494
8.41777e-05
4.66283e-05
3.57023e-05
4.02081e-05
5.41331e-05
7.05376e-05
8.26014e-05
8.72544e-05
8.40597e-05
7.36156e-05
5.75645e-05
3.79248e-05
1.64525e-05
8.68424e-06
1.10272e-06
1.67476e-06
1.06225e-06
8.34582e-06
3.92759e-05
0.000130449
0.000219068
0.000159408
9.86121e-05
8.12947e-05
9.33331e-05
0.00011781
0.000139752
0.000158267
0.000170044
0.000154344
5.50393e-05
1.013e-05
1.0557e-05
5.01375e-05
0.000125886
9.0474e-05
4.88418e-05
3.41849e-05
3.59238e-05
4.84971e-05
6.61291e-05
8.13172e-05
8.98991e-05
9.13178e-05
8.62098e-05
7.55275e-05
6.05137e-05
4.20726e-05
2.07926e-05
2.87303e-06
5.57639e-06
1.84657e-06
2.14768e-06
8.51946e-06
2.88865e-05
8.11563e-05
0.000168826
0.000150669
9.89916e-05
8.47842e-05
0.0001022
0.000135783
0.000161591
0.000169503
0.000141655
4.8028e-05
9.56234e-06
1.05921e-05
4.97809e-05
0.000129114
0.000103169
5.6471e-05
3.55925e-05
3.28047e-05
4.16257e-05
5.79891e-05
7.53555e-05
8.79445e-05
9.39698e-05
9.39128e-05
8.87859e-05
7.96065e-05
6.70467e-05
5.13033e-05
3.19256e-05
1.1822e-05
7.24965e-06
2.65838e-06
1.67828e-06
4.23347e-06
1.65569e-05
4.18001e-05
9.56007e-05
0.000143885
0.000125773
0.000114939
0.000127968
0.000152501
0.000164091
0.000134976
4.47252e-05
9.1966e-06
1.06404e-05
4.9098e-05
0.000131591
0.000113857
6.50198e-05
3.88311e-05
3.18368e-05
3.66287e-05
5.02978e-05
6.8452e-05
8.47262e-05
9.53118e-05
9.98239e-05
9.92565e-05
9.47109e-05
8.7143e-05
7.70336e-05
6.41226e-05
4.77855e-05
2.82927e-05
9.84402e-06
5.9461e-06
1.88414e-06
9.74074e-07
7.69903e-06
2.02441e-05
5.00982e-05
0.000109073
0.000136571
0.000144754
0.000155801
0.000162866
0.000138237
4.67695e-05
9.31843e-06
1.0737e-05
4.82277e-05
0.000132904
0.000118841
6.99194e-05
4.23325e-05
3.30587e-05
3.46255e-05
4.50412e-05
6.22425e-05
8.11142e-05
9.6308e-05
0.000105656
0.000109537
0.000109051
0.000105269
9.89947e-05
9.04792e-05
7.94533e-05
6.54823e-05
4.82809e-05
2.8741e-05
1.05868e-05
6.19638e-06
2.54829e-06
3.05766e-06
7.19416e-06
2.68109e-05
7.19583e-05
0.000119418
0.000144161
0.00015281
0.000138565
5.16949e-05
9.80819e-06
1.08872e-05
4.76182e-05
0.000132407
0.000114889
6.58265e-05
4.21273e-05
3.46966e-05
3.56815e-05
4.42972e-05
6.04243e-05
8.07675e-05
9.98682e-05
0.000114064
0.000122614
0.000126234
0.000125949
0.000122625
0.000116717
0.000108275
9.73022e-05
8.36923e-05
6.73245e-05
4.81045e-05
2.66031e-05
7.83575e-06
1.5867e-06
3.13301e-06
6.07534e-06
2.5483e-05
6.01432e-05
0.0001022
0.000128591
0.00013032
5.45173e-05
1.03799e-05
1.1137e-05
4.84069e-05
0.00013332
0.00010383
5.60319e-05
3.82533e-05
3.51521e-05
3.84935e-05
4.77591e-05
6.40685e-05
8.54579e-05
0.000107077
0.000124944
0.000137697
0.000145557
0.000149207
0.00014913
0.000145544
0.000138451
0.000128096
0.000114997
9.9673e-05
8.20456e-05
6.12639e-05
3.59019e-05
1.02e-05
6.9401e-07
3.7268e-06
1.23514e-05
3.55343e-05
7.04583e-05
0.000107976
0.000124391
5.29412e-05
1.07349e-05
1.14947e-05
5.17315e-05
0.000135972
8.63931e-05
4.50039e-05
3.38728e-05
3.55818e-05
4.29796e-05
5.50346e-05
7.27325e-05
9.45974e-05
0.000116689
0.000135843
0.000150921
0.000161901
0.000168986
0.000172117
0.000170839
0.000164752
0.000154162
0.000139831
0.000123251
0.000105361
8.50098e-05
5.90216e-05
2.65647e-05
2.71229e-06
5.24423e-07
5.3716e-06
3.08819e-05
6.48769e-05
0.000103437
0.000124953
4.89378e-05
1.06766e-05
1.18481e-05
5.82586e-05
0.000132761
6.66257e-05
3.58373e-05
3.10829e-05
3.78838e-05
5.01495e-05
6.56352e-05
8.41958e-05
0.000104546
0.000124331
0.000141941
0.000156826
0.000168878
0.000177842
0.000183052
0.000183383
0.000177697
0.000165963
0.000149739
0.000131734
0.000113911
9.57061e-05
7.25756e-05
4.01971e-05
9.84247e-06
1.62271e-06
8.19377e-07
2.78558e-05
8.36115e-05
0.000117445
0.000125058
4.39735e-05
1.02361e-05
1.19814e-05
6.61021e-05
0.000118492
5.41627e-05
3.13652e-05
3.06394e-05
4.1427e-05
5.7115e-05
7.37082e-05
9.06955e-05
0.000107778
0.000124137
0.000139118
0.000152401
0.000163738
0.000172567
0.000177806
0.00017792
0.000171481
0.000158531
0.000141239
0.000123188
0.000107516
9.44345e-05
7.92469e-05
5.4168e-05
2.1642e-05
2.89959e-06
1.7602e-06
1.44605e-05
7.63714e-05
0.000124895
0.000108252
3.89434e-05
9.7573e-06
1.17695e-05
6.91481e-05