/*--------------------------------*- C++ -*----------------------------------*\
| =========                 |                                                 |
| \\      /  F ield         | OpenFOAM: The Open Source CFD Toolbox           |
|  \\    /   O peration     | Version:  v1906                                 |
|   \\  /    A nd           | Web:      www.OpenFOAM.com                      |
|    \\/     M anipulation  |                                                 |
\*---------------------------------------------------------------------------*/
FoamFile
{
    version     2.0;
    format      ascii;
    class       volScalarField;
    location    "26";
    object      T;
}
// * * * * * * * * * * * * * * * * * * * * * * * * * * * * * * * * * * * * * //

dimensions      [0 0 0 1 0 0 0];


internalField   nonuniform List<scalar> 
78750
(
272.868
270.418
268.153
264.898
261.368
261.172
260.287
260.294
259.548
259.514
258.877
258.757
258.271
258.083
257.726
257.495
257.226
256.995
256.768
256.556
256.354
256.16
255.972
255.784
255.595
255.399
255.19
254.961
254.703
254.405
254.055
253.644
253.191
253.025
391.75
331.709
323.624
318.264
313.288
306.363
302.488
299.043
296.958
295.159
293.787
292.565
291.536
290.606
289.792
289.049
288.391
287.795
287.259
286.776
286.338
285.938
285.57
285.226
284.899
284.583
284.272
283.962
283.657
283.373
283.152
283.1
283.481
285.322
297.474
418.789
283.276
294.276
296.574
298.524
299.302
299.289
299.166
298.89
298.571
298.228
297.889
297.561
297.248
296.949
296.664
296.393
296.133
295.883
295.639
295.398
295.155
294.906
294.647
294.375
294.086
293.783
293.472
293.173
292.932
292.837
293.098
294.373
299.767
327.377
446.653
294.335
300.541
305.391
307.75
308.592
308.615
308.446
308.281
308.106
307.905
307.676
307.433
307.185
306.932
306.673
306.411
306.146
305.879
305.606
305.325
305.036
304.736
304.421
304.084
303.72
303.328
302.907
302.462
302.012
301.597
301.332
301.715
305.96
335.078
457.09
299.584
301.479
303.643
306.075
308.448
310.321
311.612
312.465
312.955
313.129
313.122
313.064
313.007
312.953
312.893
312.813
312.702
312.552
312.363
312.125
311.834
311.498
311.123
310.718
310.291
309.858
309.435
309.055
308.787
308.793
309.52
312.438
323.127
360.215
472.614
303.343
307.206
309.303
310.741
311.752
312.379
312.618
312.502
312.174
311.872
311.841
312.229
313.027
314.044
315.051
315.907
316.549
316.979
317.225
317.321
317.291
317.157
316.929
316.611
316.208
315.724
315.173
314.579
313.998
313.579
313.762
316.205
327.911
369.251
480.022
308.866
318.59
323.102
325.74
327.514
328.746
329.545
329.902
329.743
328.961
327.469
325.481
323.639
322.336
321.528
321.058
320.826
320.746
320.747
320.77
320.771
320.718
320.593
320.398
320.153
319.894
319.651
319.434
319.273
319.357
320.43
325.048
341.388
385.614
488.004
309.171
318.229
322.267
324.68
326.558
328.281
329.995
331.707
333.297
334.576
335.293
335.05
333.692
331.945
330.514
329.363
328.337
327.457
326.747
326.174
325.696
325.275
324.88
324.487
324.08
323.66
323.257
322.918
322.698
322.723
323.564
327.822
344.972
391.446
491.506
308.241
317.406
322.324
325.349
327.539
329.319
330.805
332.013
332.995
333.87
334.756
335.641
336.347
336.61
336.201
335.309
334.345
333.371
332.287
331.181
330.168
329.286
328.52
327.838
327.21
326.623
326.097
325.686
325.497
325.791
327.504
334.065
355.033
401.864
494.861
307.063
318.039
325.023
329.3
332.363
334.943
337.074
338.534
339.125
338.852
338.028
337.12
336.478
336.208
336.215
336.338
336.421
336.286
335.935
335.433
334.742
333.863
332.883
331.89
330.938
330.045
329.227
328.527
328.057
328.082
329.527
336.153
358.852
406.807
496.53
309.629
322.633
329.447
333.291
336.517
339.8
342.622
344.712
345.942
346.12
345.318
343.98
342.528
341.142
339.886
338.83
338.053
337.495
337
336.558
336.122
335.601
334.952
334.183
333.332
332.458
331.597
330.802
330.213
330.239
332.409
341.833
368.833
415.888
497.974
315.683
328.756
333.447
336.902
341.029
344.298
345.666
345.852
345.682
345.418
345.077
344.63
344.068
343.39
342.581
341.63
340.581
339.539
338.584
337.753
337.099
336.589
336.12
335.617
335.062
334.454
333.778
333.067
332.463
332.422
334.733
345.662
376.916
423.676
499.137
317.942
328.994
333.008
336
338.779
340.924
342.63
343.851
344.581
344.951
345.071
345.014
344.827
344.531
344.127
343.584
342.858
341.921
340.791
339.56
338.408
337.515
336.87
336.34
335.824
335.272
334.662
334.006
333.445
333.634
337.356
352.531
388.984
432.331
498.225
312.636
322.739
326.534
328.646
330.502
332.84
335.954
339.02
341.352
342.982
344.045
344.663
344.948
345.001
344.9
344.685
344.36
343.889
343.204
342.223
340.935
339.518
338.304
337.448
336.838
336.325
335.82
335.277
334.71
334.38
336.113
349.401
389.522
433.329
497.038
310.711
321.035
326.573
329.915
332.315
334.159
335.686
337.325
339.171
340.943
342.463
343.655
344.492
344.981
345.165
345.129
344.963
344.716
344.383
343.91
343.195
342.13
340.733
339.24
337.946
336.941
336.157
335.521
335.01
334.762
335.795
346.178
386.039
431.106
495.73
310.105
320.242
326.047
329.583
332.113
334.212
336.05
337.651
339.087
340.468
341.79
342.955
343.931
344.723
345.297
345.584
345.563
345.334
345.023
344.682
344.289
343.772
343.009
341.904
340.541
339.135
337.836
336.666
335.629
334.686
335.996
346.739
386.395
430.035
492.673
307.29
317.84
325.223
329.81
332.941
335.482
337.862
340.261
342.517
344.249
345.282
345.751
345.933
346.05
346.206
346.385
346.466
346.301
345.91
345.447
344.995
344.541
344.026
343.343
342.378
341.133
339.761
338.392
337.038
335.832
338.842
354.884
394.367
433.603
490.402
309.399
323.43
330.71
334.63
337.353
339.665
341.834
343.945
345.943
347.711
349.036
349.647
349.56
349.134
348.643
348.145
347.67
347.209
346.651
346.033
345.469
344.979
344.497
343.931
343.168
342.097
340.723
339.174
337.465
336.591
342.324
365.865
405.977
441.758
494.375
314.182
328.071
333.307
336.085
338.308
340.548
343.097
345.842
348.068
349.37
350.089
350.54
350.692
350.513
350.149
349.667
349
348.139
347.239
346.4
345.732
345.234
344.798
344.309
343.658
342.728
341.436
339.799
337.928
337.48
345.573
375.506
417.142
452.059
503.092
314.875
327.499
332.665
335.752
338.437
341.291
344.563
347.945
350.528
351.668
351.754
351.466
351.115
350.753
350.355
349.879
349.25
348.402
347.442
346.585
345.959
345.519
345.15
344.76
344.266
343.584
342.621
341.311
339.707
338.992
345.963
377.453
426.955
461.324
510.036
315.329
328.215
333.151
336.012
338.489
341.102
343.981
346.929
349.641
351.615
352.523
352.625
352.316
351.8
351.132
350.315
349.342
348.257
347.213
346.386
345.807
345.391
345.046
344.706
344.321
343.837
343.18
342.262
341.044
339.947
343.039
368.04
430.558
464.003
509.452
313.11
325.221
331.104
334.521
337.211
339.783
342.296
344.544
346.603
348.734
350.689
351.96
352.453
352.395
351.954
351.152
349.977
348.598
347.363
346.473
345.877
345.447
345.093
344.759
344.412
344.014
343.513
342.837
341.907
340.746
340.195
350.473
411.23
451.602
501.71
311.097
324.659
331.986
336.232
339.612
343.066
346.428
348.792
349.897
350.436
351.141
351.948
352.426
352.451
352.103
351.406
350.301
348.85
347.449
346.452
345.828
345.407
345.082
344.799
344.529
344.248
343.926
343.513
342.939
342.099
340.922
340.048
379.552
429.013
496.084
313.502
328.535
335.276
339.265
342.977
347.24
351.197
353.489
354.109
353.864
353.498
353.257
352.972
352.498
351.749
350.603
349.05
347.472
346.291
345.485
344.905
344.457
344.099
343.807
343.566
343.363
343.188
343.024
342.824
342.281
342.275
340.671
369.304
416.348
487.68
316.865
331.694
337.51
341.496
346.129
351.463
355.266
356.381
356.01
355.301
354.567
353.81
352.972
351.969
350.712
349.242
347.837
346.714
345.831
345.103
344.487
343.966
343.526
343.16
342.865
342.65
342.543
342.59
342.815
344.148
347.86
352.629
385
423.792
481.262
318.406
332.611
338.141
342.237
347.166
352.523
356.204
357.173
356.67
355.863
355.032
354.147
353.131
351.909
350.455
348.938
347.684
346.762
346.024
345.381
344.817
344.329
343.915
343.576
343.328
343.214
343.337
344.002
346.476
354.534
365.078
375.071
407.066
441.861
493.952
318.42
332.025
337.194
340.824
344.86
349.669
354.416
357.181
357.606
356.917
355.905
354.794
353.579
352.194
350.614
349.005
347.711
346.731
345.919
345.231
344.658
344.193
343.831
343.579
343.468
343.565
344.136
346.187
352.97
369.946
393.566
408.324
430.517
460.127
516.631
316.866
330.116
335.144
338.225
341.128
344.699
349.462
354.298
357.209
357.94
357.436
356.43
355.199
353.791
352.205
350.511
348.919
347.627
346.565
345.645
344.862
344.209
343.681
343.278
343.016
342.993
343.507
345.521
352.161
370.299
405.009
438.744
454.792
478.56
531.642
315.533
328.845
334.377
337.64
340.291
342.83
345.824
349.886
354.206
357.13
358.138
357.786
356.782
355.486
354.012
352.446
350.923
349.555
348.364
347.313
346.369
345.517
344.756
344.089
343.534
343.144
343.055
343.672
346.418
355.835
381.61
428.329
460.604
487.202
532.771
314.144
327.614
333.814
337.519
340.511
343.203
345.612
347.947
350.855
354.248
357.016
358.331
358.224
357.263
355.933
354.5
353.13
351.9
350.792
349.763
348.79
347.876
347.032
346.26
345.561
344.947
344.46
344.226
344.642
347.252
357.778
390.697
443.011
476.236
520.848
313.489
327.272
333.835
337.67
340.742
343.754
346.81
349.422
351.232
352.837
354.926
357.104
358.419
358.449
357.555
356.291
355.029
353.919
352.945
352.042
351.173
350.339
349.555
348.825
348.146
347.516
346.949
346.486
346.259
346.783
350.626
369.063
420.929
457.495
504.969
313.227
327.116
334.029
338.075
341.222
344.259
347.579
351.049
353.773
355.212
355.927
356.784
358.01
358.782
358.439
357.311
356.056
355.004
354.152
353.394
352.669
351.98
351.345
350.761
350.217
349.713
349.256
348.87
348.61
348.719
350.726
363.218
407.083
443.688
493.641
313.702
328.438
335.602
339.798
343.185
346.602
350.207
353.541
356.228
357.969
358.713
358.892
359.026
359.444
359.425
358.336
356.798
355.587
354.723
353.988
353.294
352.666
352.122
351.657
351.254
350.914
350.651
350.486
350.454
350.664
352.015
362.073
400.077
436.05
487.837
315.245
330.499
337.315
341.355
344.916
348.966
353.518
357.227
359.424
360.567
361.07
361.15
360.98
360.727
360.471
359.452
357.668
356.177
355.184
354.373
353.602
352.913
352.336
351.879
351.526
351.279
351.176
351.263
351.619
352.492
354.131
364.33
400.161
434.435
485.083
316.897
331.981
338.31
342.225
346.015
350.624
355.801
359.838
361.949
362.745
362.946
362.873
362.618
362.159
361.471
360.217
358.234
356.678
355.662
354.814
353.983
353.222
352.572
352.063
351.694
351.478
351.494
351.92
353.285
356.664
360.375
373.457
408.513
440.586
488.304
317.613
332.509
338.619
342.473
346.321
351.045
356.299
360.444
362.74
363.698
363.982
363.936
363.669
363.155
362.273
360.819
358.808
357.284
356.286
355.433
354.585
353.789
353.086
352.516
352.123
351.934
352.108
353.306
357.578
367.532
377.635
392.178
422.046
453.071
502.401
316.941
331.582
337.849
341.748
345.45
349.896
355.2
359.86
362.73
364.075
364.562
364.612
364.377
363.847
362.911
361.424
359.561
358.166
357.233
356.417
355.594
354.798
354.068
353.437
352.944
352.635
352.788
354.498
361.017
377.871
402.287
420.557
441.187
467.258
518.987
316.245
331.07
337.673
341.743
345.493
349.886
355.149
359.988
363.13
364.64
365.178
365.22
364.949
364.371
363.41
362.017
360.445
359.235
358.409
357.691
356.962
356.248
355.577
354.943
354.335
353.813
353.554
354.145
357.693
370.237
399.814
434.386
453.029
474.768
524.545
316.325
331.383
338.086
342.306
346.349
351.17
356.686
361.387
364.272
365.59
365.995
365.937
365.583
364.94
363.961
362.688
361.42
360.442
359.708
359.079
358.475
357.877
357.289
356.719
356.18
355.688
355.274
355.021
355.356
358.461
372.44
408.813
440.331
468.442
517.739
316.859
331.83
338.322
342.497
346.645
351.736
357.739
362.823
365.603
366.643
366.819
366.598
366.134
365.435
364.476
363.349
362.328
361.546
360.918
360.351
359.806
359.281
358.789
358.341
357.955
357.65
357.435
357.29
357.239
357.241
360.739
385.691
426.973
461.719
510.827
317.074
331.836
338.183
342.252
346.192
350.918
356.881
362.819
366.399
367.661
367.789
367.455
366.884
366.113
365.146
364.093
363.193
362.513
361.939
361.389
360.858
360.379
359.979
359.679
359.515
359.556
359.974
361.352
363.383
363.716
368.366
393.331
432.339
465.77
513.151
316.878
331.598
338.042
342.16
346.01
350.339
355.67
361.764
366.411
368.323
368.604
368.256
367.663
366.918
366.035
365.079
364.243
363.598
363.025
362.462
361.932
361.471
361.131
360.976
361.091
361.771
364.115
370.252
378.147
381.11
388.068
413.412
443.577
473.556
523.546
316.725
331.628
338.188
342.353
346.169
350.255
354.955
360.479
365.891
368.925
369.672
369.365
368.707
367.939
367.126
366.294
365.513
364.866
364.298
363.742
363.206
362.714
362.324
362.131
362.349
363.646
367.952
378.717
395.829
409.48
418.056
434.731
455.668
482.592
534.02
316.549
331.599
338.351
342.615
346.439
350.375
354.609
359.305
364.527
368.648
370.314
370.364
369.78
369.021
368.26
367.544
366.887
366.288
365.728
365.176
364.617
364.058
363.535
363.14
363.082
363.893
367.03
375.852
394.304
420.029
442.325
456.366
469.71
490.217
536.838
316.614
332.02
339.009
343.426
347.38
351.39
355.461
359.518
363.861
368.276
370.879
371.415
370.9
370.075
369.266
368.555
367.92
367.318
366.731
366.162
365.619
365.101
364.61
364.165
363.838
363.831
364.698
367.911
376.682
395.032
422.744
449.54
465.518
484.212
529.531
316.798
332.589
339.774
344.319
348.393
352.513
356.591
360.337
363.903
367.811
371.026
372.173
371.816
370.876
369.905
369.037
368.262
367.58
367.001
366.513
366.091
365.713
365.366
365.048
364.763
364.535
364.464
364.866
366.677
372.246
386.214
413.555
442.316
469.214
516.558
317.407
333.581
340.878
345.555
349.84
354.224
358.488
362.148
365.209
368.27
371.397
372.833
372.465
371.231
369.928
368.828
367.982
367.373
366.927
366.579
366.297
366.072
365.906
365.803
365.766
365.784
365.823
365.825
365.842
366.615
371.746
392.827
428.268
459.823
507.126
318.192
334.647
341.937
346.669
351.095
355.642
360.007
363.646
366.477
368.978
371.694
373.311
372.926
371.364
369.703
368.521
367.785
367.317
366.977
366.719
366.546
366.466
366.496
366.67
367.039
367.679
368.692
370.102
371.467
372.66
378.104
398.682
430.734
461.498
509.66
319.085
335.759
343.048
347.865
352.49
357.253
361.702
365.263
367.871
369.923
371.976
373.671
373.488
371.832
369.851
368.598
367.95
367.55
367.252
367.038
366.93
366.952
367.141
367.577
368.418
369.966
372.801
377.659
384.031
389.839
398.273
417.282
441.449
469.295
520.543
319.858
336.661
343.916
348.786
353.564
358.471
362.949
366.453
368.963
370.814
372.426
373.967
374.14
372.626
370.431
369.072
368.442
368.071
367.794
367.584
367.461
367.454
367.624
368.088
369.064
370.993
374.804
382.063
393.759
407.544
420.832
436.339
453.689
477.619
528.421
320.482
337.411
344.695
349.659
354.61
359.654
364.137
367.566
369.98
371.694
373.049
374.289
374.744
373.648
371.49
369.843
369.173
368.83
368.597
368.418
368.287
368.223
368.27
368.519
369.144
370.492
373.29
379.016
389.888
406.827
426.304
443.187
457.899
478.452
527.165
320.897
337.955
345.27
350.316
355.418
360.551
364.979
368.31
370.665
372.348
373.62
374.64
375.246
374.672
372.839
370.84
370.025
369.692
369.515
369.408
369.348
369.33
369.353
369.442
369.674
370.238
371.525
374.364
380.437
392.337
411.236
432.438
450.188
471.596
519.888
321.244
338.464
345.889
351.098
356.448
361.722
366.059
369.196
371.377
372.933
374.113
375.047
375.669
375.47
374.195
372.132
370.951
370.598
370.485
370.478
370.555
370.712
370.928
371.17
371.41
371.682
372.162
373.286
376.046
382.723
397.15
419.623
441.275
465.276
513.694
321.63
338.971
346.461
351.842
357.511
362.987
367.245
370.169
372.153
373.562
374.629
375.465
376.052
376.094
375.327
373.65
371.983
371.521
371.449
371.542
371.781
372.186
372.77
373.503
374.293
375.019
375.676
376.546
378.457
383.549
396.076
417.691
439.456
464.241
513.811
322.001
339.373
346.923
352.514
358.579
364.305
368.5
371.208
372.97
374.205
375.142
375.878
376.399
376.56
376.172
375.154
373.447
372.451
372.337
372.485
372.845
373.482
374.478
375.892
377.654
379.52
381.278
383.134
386.016
392.079
404.73
424.169
443.55
467.71
518.974
322.177
339.447
346.987
352.755
359.248
365.319
369.58
372.184
373.798
374.887
375.694
376.323
376.777
376.964
376.786
376.294
375.278
373.794
373.265
373.34
373.709
374.438
375.677
377.604
380.314
383.626
387.159
390.877
395.616
403.225
415.797
432.391
449.211
472.204
523.795
322.035
339.107
346.615
352.507
359.36
365.795
370.226
372.854
374.425
375.448
376.18
376.736
377.14
377.341
377.266
377.019
376.695
375.855
374.63
374.295
374.485
375.085
376.262
378.263
381.332
385.532
390.602
396.236
402.797
411.539
423.567
437.871
452.834
474.573
525.505
321.584
338.411
345.873
351.856
359.061
365.958
370.688
373.444
375.044
376.042
376.721
377.21
377.556
377.741
377.707
377.521
377.452
377.503
376.966
375.92
375.628
375.863
376.648
378.275
381.085
385.313
391.018
398.038
406.189
415.82
427.38
440.309
454.238
475.183
525.484
320.914
337.519
344.949
350.953
358.356
365.664
370.726
373.665
375.361
376.41
377.109
377.598
377.937
378.132
378.148
377.985
377.877
378.18
378.797
378.74
377.9
377.554
377.772
378.751
381.037
385.083
390.875
398.406
407.649
418.243
429.822
442.115
455.568
476.222
526.03
320.333
336.786
344.197
350.206
357.761
365.527
370.994
374.112
375.853
376.897
377.575
378.038
378.353
378.539
378.585
378.466
378.279
378.408
379.273
380.723
381.574
381.242
380.883
381.109
382.504
386.179
392.523
400.623
410.141
420.965
432.558
444.655
458.091
479.1
529.059
319.832
336.239
343.581
349.405
356.704
364.686
370.651
374.122
376.043
377.175
377.9
378.389
378.721
378.926
379.009
378.958
378.778
378.652
379.07
380.585
383.148
385.587
386.661
386.829
387.404
389.862
395.981
405.163
415.176
425.536
436.456
448.177
461.819
483.761
534.19
319.549
336.042
343.319
348.879
355.714
363.701
370.234
374.176
376.313
377.518
378.261
378.754
379.089
379.308
379.424
379.432
379.327
379.131
379.045
379.618
381.562
385.102
389.491
393.437
395.963
398.069
402.146
410.236
420.792
431.318
441.709
452.858
466.399
488.759
538.409
319.412
336.019
343.178
348.324
354.332
361.783
368.774
373.5
376.168
377.64
378.505
379.053
379.42
379.666
379.819
379.886
379.863
379.747
379.555
379.425
379.818
381.52
385.235
391.006
398.004
404.933
410.545
416.513
424.967
435.25
445.838
456.749
469.667
490.941
538.635
319.275
336.007
343.192
348.14
353.599
360.329
367.238
372.55
375.816
377.652
378.701
379.339
379.751
380.026
380.207
380.315
380.356
380.327
380.225
380.053
379.87
379.926
380.851
383.609
389.082
397.543
408.385
418.242
426.814
435.82
445.668
456.177
468.249
487.7
534.467
319.179
335.977
343.269
348.227
353.537
359.799
366.209
371.607
375.307
377.524
378.81
379.582
380.069
380.389
380.604
380.744
380.826
380.857
380.835
380.756
380.617
380.429
380.281
380.497
381.89
385.791
393.89
407.45
420.226
430.888
440.806
451.132
462.926
481.708
529.433
318.985
335.927
343.515
348.77
354.451
360.799
366.703
371.627
375.25
377.584
378.997
379.86
380.408
380.769
381.015
381.182
381.295
381.363
381.393
381.383
381.328
381.221
381.058
380.861
380.77
381.362
384.38
394.253
408.291
422.784
435.384
447.168
459.799
479.228
527.675
319.074
336.54
344.574
350.316
356.678
363.268
368.694
372.878
375.981
378.084
379.422
380.27
380.823
381.198
381.459
381.644
381.776
381.871
381.935
381.972
381.979
381.949
381.87
381.739
381.575
381.531
382.685
388.973
401.822
417.346
433.171
447.51
461.326
481.374
529.389
319.797
338.196
346.816
353.286
360.605
367.169
371.791
375.033
377.377
379.013
380.107
380.835
381.333
381.684
381.938
382.126
382.27
382.384
382.476
382.553
382.612
382.648
382.65
382.607
382.537
382.58
383.649
389.392
402.53
415.514
431.227
446.794
461.928
483.365
532.583
321.639
340.892
350.039
357.392
365.744
371.871
375.331
377.499
379.039
380.152
380.943
381.507
381.916
382.218
382.448
382.627
382.774
382.901
383.018
383.132
383.247
383.358
383.449
383.501
383.526
383.687
384.882
390.717
405.814
419.93
430.968
444.315
459.956
484.089
535.9
324.147
343.416
352.771
360.819
369.798
375.561
378.185
379.58
380.534
381.25
381.793
382.208
382.526
382.773
382.971
383.135
383.278
383.413
383.552
383.707
383.885
384.091
384.305
384.487
384.612
384.81
385.822
390.695
405.644
427.698
439.855
449.433
462.57
486.493
537.443
325.89
344.429
353.242
361.01
369.829
376.235
379.359
380.822
381.638
382.182
382.582
382.892
383.137
383.334
383.499
383.642
383.776
383.915
384.074
384.273
384.532
384.867
385.262
385.642
385.913
386.093
386.612
389.249
399.215
421.965
445.175
457.26
468.257
487.907
535.757
325.524
343.09
350.635
356.796
364.25
371.871
377.28
380.305
381.872
382.701
383.179
383.486
383.705
383.874
384.013
384.137
384.261
384.401
384.58
384.833
385.21
385.76
386.457
387.145
387.624
387.824
387.946
388.742
392.699
405.634
429.607
452.205
466.835
485.694
532.295
323.467
340.308
347.098
351.801
357.022
363.812
371
376.607
380.192
382.215
383.281
383.841
384.153
384.348
384.486
384.6
384.715
384.853
385.051
385.375
385.941
386.882
388.107
389.189
389.84
390.038
389.954
389.942
390.947
396
411.59
438.876
460.514
483.223
529.534
321.482
338.691
346.041
350.713
354.855
359.249
364.721
370.739
376.039
379.92
382.336
383.655
384.33
384.679
384.875
385.005
385.116
385.248
385.455
385.85
386.666
388.221
390.307
391.845
392.552
392.779
392.751
392.7
393.17
396.113
407.513
433.43
457.291
481.965
528.761
320.883
339.506
347.95
353.48
358.206
361.92
364.819
368.023
372.052
376.344
380.032
382.579
384.03
384.766
385.133
385.328
385.454
385.576
385.766
386.171
387.137
389.255
392.54
395.079
395.828
396.107
396.425
397
398.36
402.271
413.43
435.899
457.217
481.369
529.92
322.044
341.882
351.043
357.416
363.313
367.777
370.129
371.217
372.314
374.366
377.402
380.594
383.036
384.47
385.193
385.549
385.735
385.86
386.008
386.321
387.145
389.237
393.33
398.014
400.043
400.316
400.875
402.272
405.169
410.999
422.563
440.914
458.912
482.047
532.212
325.365
345.723
355.424
362.58
369.079
373.642
375.898
376.548
376.493
376.404
377.052
378.963
381.548
383.694
384.969
385.617
385.941
386.116
386.245
386.436
386.93
388.339
391.8
397.794
403.537
405.763
406.438
408.006
411.673
418.756
430.414
445.713
461.461
483.838
534.299
331.028
351.127
361.752
370.296
376.399
379.33
380.49
380.757
380.57
380.161
379.699
379.674
380.84
382.82
384.503
385.506
386.038
386.323
386.491
386.629
386.865
387.519
389.411
393.905
401.323
408.6
412.433
414.406
417.675
424.191
434.866
448.378
463.044
484.937
535.043
336.255
355.552
367.411
377.928
382.652
383.694
383.74
383.548
383.263
382.913
382.503
382.068
381.968
382.828
384.233
385.371
386.07
386.476
386.724
386.89
387.041
387.301
388.012
390.059
394.93
403.261
412.639
419.309
423.536
428.902
437.495
449.219
463.185
484.843
534.631
336.243
355.791
368.428
379.96
384.143
385.128
385.281
385.158
384.923
384.644
384.349
384.058
383.848
384.01
384.732
385.589
386.244
386.682
386.977
387.187
387.352
387.515
387.776
388.432
390.296
394.925
403.648
415.214
425.366
432.611
440.231
450.252
463.171
484.159
533.25
330.81
350.782
363.189
374.54
380.924
383.75
385.039
385.587
385.744
385.701
385.574
385.444
385.394
385.516
385.867
386.334
386.762
387.102
387.367
387.582
387.765
387.936
388.126
388.405
388.992
390.559
394.685
403.503
417.076
430.592
441.27
451.394
463.272
482.835
530.934
325.752
344.616
355.127
365.087
374.215
379.858
383.17
385.017
385.955
386.376
386.542
386.621
386.718
386.877
387.087
387.316
387.541
387.751
387.944
388.125
388.304
388.492
388.704
388.968
389.329
389.911
391.274
395.094
404.306
419.476
434.863
447.799
460.401
479.503
527.438
324.33
341.374
349.073
356.009
364.561
372.132
378.018
382.181
384.826
386.357
387.181
387.61
387.844
387.992
388.113
388.231
388.355
388.487
388.629
388.788
388.976
389.21
389.519
389.942
390.497
391.078
391.678
392.975
397.08
407.632
423.759
440.556
456.353
477.54
526.465
322.988
338.248
344.115
348.34
353.42
359.962
366.939
373.384
378.727
382.746
385.485
387.164
388.089
388.559
388.796
388.935
389.041
389.148
389.272
389.434
389.663
390.013
390.589
391.495
392.598
393.616
394.395
395.289
397.726
405.292
420.607
439.793
457.681
480.949
531.507
319.414
335.161
342.361
346.607
349.978
353.488
357.809
362.873
368.256
373.601
378.571
382.782
385.882
387.788
388.78
389.254
389.491
389.638
389.773
389.949
390.235
390.782
391.918
393.89
395.942
397.486
398.833
400.456
403.779
412.212
428.218
447.267
464.845
488.887
539.791
317.192
336.542
346.715
352.774
357.366
361.043
363.838
365.994
367.974
370.305
373.377
377.274
381.579
385.344
387.813
389.082
389.664
389.944
390.121
390.307
390.625
391.348
393.118
396.543
400.315
402.81
405.27
408.821
414.612
424.889
440.549
457.032
473.297
497.406
545.963
318.734
339.774
350.112
356.615
362.341
368.149
373.598
377.399
378.943
379.008
378.679
378.942
380.596
383.581
386.679
388.724
389.726
390.182
390.422
390.623
390.948
391.733
393.796
398.251
404.332
408.791
412.247
417.454
425.633
437.114
450.999
464.586
479.267
502.444
548.002
322.149
341.597
350.008
355.391
360.385
365.945
372.578
379.417
384.201
386.072
386.114
385.287
384.271
384.334
386.029
388.207
389.64
390.324
390.651
390.864
391.142
391.786
393.544
397.823
405.397
413.503
419.074
424.89
433.844
445.686
457.989
469.534
482.706
504.304
547.715
323.976
343.497
351.809
357.133
361.92
366.577
371.372
376.853
382.514
386.52
388.354
388.823
388.478
387.473
386.808
387.642
389.189
390.258
390.785
391.061
391.289
391.684
392.722
395.544
401.919
412.084
422.239
429.796
438.002
448.788
460.222
470.975
483.107
503.037
545.658
324.62
346.016
355.212
361.347
367.257
372.88
377.269
380.409
383.303
386.25
388.502
389.753
390.264
390.225
389.502
388.523
388.757
389.86
390.709
391.163
391.431
391.688
392.186
393.532
397.146
405.072
417.442
430.05
439.65
449.047
459.234
469.598
481.313
500.349
543.237
325.651
347.005
356.093
362.358
368.839
375.616
381.298
384.895
386.867
388.212
389.45
390.503
391.206
391.551
391.54
390.932
389.815
389.707
390.468
391.143
391.553
391.825
392.108
392.656
394.137
398.165
407.168
421.651
436.585
447.455
457.034
466.896
478.297
496.809
540.339
326.36
346.884
355.711
361.958
368.497
375.167
380.995
385.357
388.14
389.757
390.751
391.471
392.031
392.418
392.595
392.479
391.779
390.774
390.679
391.198
391.696
392.052
392.343
392.684
393.323
394.956
399.364
409.518
426.189
442.289
453.999
464.159
475.352
493.587
537.801
326.585
347.432
356.607
363.441
370.964
377.98
383.049
386.514
388.936
390.575
391.636
392.318
392.769
393.064
393.214
393.159
392.771
392.007
391.526
391.677
392.056
392.399
392.69
392.983
393.383
394.156
396.106
401.397
413.757
432.536
448.409
460.571
472.281
490.464
535.398
327.038
348.102
357.527
364.968
373.799
382.015
387.217
389.973
391.511
392.483
393.135
393.56
393.813
393.918
393.864
393.604
393.144
392.648
392.416
392.535
392.803
393.083
393.359
393.655
394.009
394.519
395.497
398.031
405.262
421.421
440.76
456.13
469.253
488.048
533.984
326.986
347.497
356.767
364.24
373.326
382.36
388.468
391.685
393.288
394.133
394.609
394.869
394.968
394.887
394.552
393.99
393.497
393.285
393.306
393.446
393.637
393.858
394.115
394.432
394.852
395.446
396.383
398.205
402.812
414.782
434.403
452.639
467.412
487.095
533.804
325.991
346.222
355.241
362.176
370.399
379.482
386.717
391.062
393.371
394.597
395.268
395.623
395.748
395.616
395.157
394.551
394.215
394.157
394.229
394.365
394.545
394.766
395.038
395.378
395.816
396.4
397.244
398.723
402.226
411.701
430.315
450.339
466.263
486.781
534.326
325.149
345.973
355.097
361.552
368.649
376.904
384.582
389.913
392.983
394.65
395.565
396.065
396.296
396.292
396.002
395.447
394.985
394.833
394.87
394.995
395.18
395.426
395.753
396.197
396.82
397.715
399.027
401.06
404.807
413.34
430.551
450.883
467.217
488.108
535.87
325.45
347.471
357.211
363.871
370.571
377.543
384.238
389.522
392.91
394.855
395.944
396.555
396.884
397.021
396.968
396.626
396.023
395.587
395.48
395.568
395.764
396.048
396.429
396.927
397.57
398.409
399.585
401.508
405.316
413.823
430.515
450.825
467.112
487.968
536.232
327.06
350.126
360.505
367.874
375.146
381.397
386.473
390.614
393.561
395.405
396.498
397.136
397.495
397.672
397.71
397.584
397.169
396.485
396.005
395.91
396.057
396.368
396.859
397.601
398.702
400.256
402.322
405.126
409.692
418.674
434.89
453.892
469.66
490.633
538.743
329.41
352.855
363.735
372.129
380.618
386.7
390.442
393.11
395.091
396.446
397.321
397.869
398.196
398.37
398.43
398.39
398.211
397.757
397.016
396.514
396.489
396.766
397.231
397.888
398.836
400.294
402.565
406.036
411.632
421.558
437.763
455.614
470.702
491.26
539.212
331.33
354.673
366.273
376.061
385.833
391.646
394.392
395.913
396.973
397.743
398.286
398.654
398.886
399.012
399.052
399.018
398.895
398.617
398.035
397.19
396.721
396.901
397.614
398.85
400.608
402.858
405.717
409.73
416.151
426.928
442.657
458.649
472.984
493.675
541.207
332.135
355.074
367.343
378.466
389.168
394.799
397.021
397.965
398.505
398.892
399.186
399.405
399.554
399.639
399.665
399.635
399.549
399.385
399.079
398.52
397.846
397.658
397.976
398.786
400.479
403.391
407.479
412.84
420.469
431.95
447.007
461.487
475.197
495.811
542.534
331.36
353.604
365.717
377.18
388.826
395.4
398.074
399.077
399.49
399.706
399.853
399.964
400.046
400.093
400.102
400.068
399.983
399.83
399.551
399.018
398.076
397.205
397.764
399.113
400.935
403.849
408.417
414.737
423.377
435.336
449.619
462.914
476.018
496.296
542.536
328.919
350.272
361.308
371.649
383.994
392.972
397.437
399.234
399.874
400.098
400.197
400.268
400.332
400.389
400.429
400.442
400.419
400.348
400.203
399.92
399.384
398.601
398.384
399.716
402.209
405.676
410.706
417.755
427.133
439.164
452.468
464.799
477.596
497.955
543.6
326.254
347.03
356.902
365.294
376.378
387.502
394.964
398.669
400.091
400.481
400.516
400.477
400.456
400.47
400.509
400.559
400.604
400.631
400.626
400.572
400.439
400.192
399.933
400.333
402.335
406.086
411.59
419.284
429.355
441.514
454.176
465.926
478.457
498.637
543.83
324.567
345.939
355.696
362.7
370.798
380.954
390.478
396.825
399.95
401.053
401.2
401.02
400.805
400.647
400.557
400.517
400.509
400.515
400.518
400.504
400.458