/*--------------------------------*- C++ -*----------------------------------*\
| =========                 |                                                 |
| \\      /  F ield         | OpenFOAM: The Open Source CFD Toolbox           |
|  \\    /   O peration     | Version:  v1906                                 |
|   \\  /    A nd           | Web:      www.OpenFOAM.com                      |
|    \\/     M anipulation  |                                                 |
\*---------------------------------------------------------------------------*/
FoamFile
{
    version     2.0;
    format      ascii;
    class       volVectorField;
    location    "26";
    object      U;
}
// * * * * * * * * * * * * * * * * * * * * * * * * * * * * * * * * * * * * * //

dimensions      [0 1 -1 0 0 0 0];


internalField   nonuniform List<vector> 
78750
(
(-5.48873e-06 -0.000100143 2.27275e-05)
(-2.36316e-05 -0.000100247 4.18828e-05)
(-6.35451e-05 -6.92586e-05 6.1554e-05)
(-0.000118592 -2.63287e-05 8.76066e-05)
(-0.000183658 1.90753e-05 0.000119933)
(-0.000255282 6.3037e-05 0.000157429)
(-0.000330499 0.000103858 0.000197317)
(-0.000406919 0.000140842 0.000236685)
(-0.00048273 0.000172837 0.000272341)
(-0.0005562 0.000199212 0.000301154)
(-0.000625644 0.000219165 0.000320303)
(-0.000689596 0.000232497 0.000327971)
(-0.000746895 0.000239133 0.000323071)
(-0.000796531 0.000239445 0.000305303)
(-0.000837586 0.000233853 0.000275104)
(-0.000869615 0.000223128 0.000233581)
(-0.000891575 0.000208253 0.000183507)
(-0.000904033 0.000189353 0.00012431)
(-0.000906305 0.000167516 5.93525e-05)
(-0.000898605 0.00014348 -9.17561e-06)
(-0.000881139 0.000117857 -7.90851e-05)
(-0.000854268 9.12617e-05 -0.000148215)
(-0.000818434 6.4223e-05 -0.000214492)
(-0.000774205 3.72441e-05 -0.000275943)
(-0.000722218 1.08019e-05 -0.000330693)
(-0.000663204 -1.46368e-05 -0.000376978)
(-0.000597964 -3.85508e-05 -0.00041309)
(-0.000527401 -6.03746e-05 -0.000437397)
(-0.000452527 -7.93727e-05 -0.000448299)
(-0.000374481 -9.46527e-05 -0.000444302)
(-0.000294244 -0.000104995 -0.000423924)
(-0.000212553 -0.000108798 -0.000385925)
(-0.000131987 -0.0001038 -0.000329237)
(-6.75296e-05 -8.72174e-05 -0.000253686)
(-2.18041e-05 -4.72619e-05 -0.000123819)
(-2.69395e-05 0.000420822 -0.000426697)
(-8.62853e-05 0.00082139 -0.000548178)
(-0.000162692 0.00102909 -0.000575787)
(-0.000264179 0.0011715 -0.00060647)
(-0.000366668 0.00125552 -0.000636303)
(-0.000462864 0.00128779 -0.000659822)
(-0.000549618 0.00128381 -0.000677603)
(-0.000625628 0.0012558 -0.000692346)
(-0.000690159 0.00121126 -0.000704834)
(-0.000741651 0.00114958 -0.000714719)
(-0.000780976 0.00107594 -0.000720356)
(-0.000809661 0.000994965 -0.000721994)
(-0.000827615 0.000910705 -0.000719627)
(-0.00083615 0.000823819 -0.000715348)
(-0.0008356 0.000736507 -0.000710068)
(-0.000826912 0.000649966 -0.000704368)
(-0.000810914 0.000565898 -0.000698544)
(-0.000788328 0.000484729 -0.000693127)
(-0.000760053 0.000407446 -0.000688101)
(-0.000726775 0.000334276 -0.000683584)
(-0.000689289 0.000265711 -0.000679434)
(-0.000648214 0.000201819 -0.000675564)
(-0.000604205 0.000142739 -0.00067174)
(-0.000557801 8.84555e-05 -0.000667683)
(-0.000509536 3.89057e-05 -0.000663032)
(-0.00045985 -5.935e-06 -0.00065725)
(-0.000409176 -4.61912e-05 -0.000649693)
(-0.000357881 -8.18057e-05 -0.000639307)
(-0.000306349 -0.000112835 -0.000624703)
(-0.000254936 -0.000139016 -0.000603729)
(-0.000203732 -0.000160068 -0.000573655)
(-0.000152178 -0.0001749 -0.000528931)
(-0.000100654 -0.000181236 -0.000455922)
(-6.03439e-05 -0.000172673 -0.00033676)
(-3.0376e-05 -0.00010472 -9.90786e-05)
(-3.17169e-05 0.000834383 2.94707e-08)
(-7.9314e-05 0.00145206 1.02479e-05)
(-0.000130416 0.00170212 1.96923e-05)
(-0.00019709 0.00184382 2.02513e-05)
(-0.000260614 0.00189713 8.08992e-06)
(-0.000317798 0.00188541 -1.61801e-05)
(-0.000368447 0.00182927 -5.56384e-05)
(-0.000411436 0.00174687 -0.000109311)
(-0.000446043 0.00164931 -0.000176547)
(-0.000471636 0.00154512 -0.000251994)
(-0.000488672 0.00143785 -0.000330171)
(-0.000497739 0.00133004 -0.000402437)
(-0.000499832 0.00122095 -0.000461569)
(-0.000495024 0.00111131 -0.000502479)
(-0.000485897 0.00100383 -0.000527876)
(-0.000472632 0.000900122 -0.000541859)
(-0.000455949 0.000800561 -0.000548424)
(-0.00043646 0.000706136 -0.000549783)
(-0.000414828 0.00061754 -0.000547417)
(-0.000391523 0.000535229 -0.000542256)
(-0.000366912 0.000459127 -0.000535223)
(-0.000341376 0.000389291 -0.000526745)
(-0.000315192 0.000325539 -0.000517288)
(-0.000288636 0.000267694 -0.000506997)
(-0.000261919 0.000215529 -0.000496018)
(-0.000235224 0.000168733 -0.000484251)
(-0.000208692 0.00012711 -0.000471487)
(-0.000182436 9.03662e-05 -0.000457224)
(-0.000156568 5.84667e-05 -0.000440631)
(-0.000131152 3.13353e-05 -0.000420364)
(-0.000106168 9.29587e-06 -0.000394188)
(-8.12192e-05 -7.25873e-06 -0.000357985)
(-5.60594e-05 -1.74395e-05 -0.000304254)
(-3.49248e-05 -1.97534e-05 -0.000224884)
(-1.99874e-05 -4.56849e-06 -5.47239e-05)
(-2.94701e-05 0.000964722 0.000377912)
(-5.59227e-05 0.00159328 0.000502363)
(-7.25771e-05 0.00184641 0.00052388)
(-9.52655e-05 0.00199266 0.000535181)
(-0.000117045 0.00205068 0.000547464)
(-0.000138979 0.00204341 0.000552238)
(-0.000162539 0.00199655 0.000542191)
(-0.000187004 0.00192395 0.000509195)
(-0.000210051 0.00183558 0.000453121)
(-0.000229897 0.00173507 0.000375114)
(-0.000245138 0.00162685 0.000280555)
(-0.000254963 0.00151245 0.000175083)
(-0.000259414 0.00139531 6.76883e-05)
(-0.000258705 0.00127811 -3.11472e-05)
(-0.000253733 0.00116408 -0.000112885)
(-0.000245209 0.00105506 -0.000175005)
(-0.000234795 0.000952676 -0.000222052)
(-0.000222385 0.000857035 -0.000257895)
(-0.000208739 0.000768738 -0.000285003)
(-0.00019443 0.000687582 -0.000305388)
(-0.000179773 0.000613229 -0.000320418)
(-0.000165106 0.000545423 -0.000331173)
(-0.000150837 0.000484108 -0.000338382)
(-0.000137103 0.00042884 -0.000342674)
(-0.000123991 0.000379184 -0.000344279)
(-0.000111641 0.000334655 -0.000343584)
(-0.000100055 0.000294757 -0.00034067)
(-8.9234e-05 0.000259017 -0.000335724)
(-7.90643e-05 0.000226896 -0.000328621)
(-6.94154e-05 0.00019796 -0.000319193)
(-5.9932e-05 0.000171672 -0.000307015)
(-4.98811e-05 0.00014767 -0.000292738)
(-3.80557e-05 0.000125355 -0.000277948)
(-2.62793e-05 0.000104581 -0.000255934)
(-1.66729e-05 7.3978e-05 -0.000150733)
(-1.97604e-05 0.000772593 0.000461298)
(-2.70616e-05 0.00120504 0.000606514)
(-2.26726e-05 0.00139807 0.000627524)
(-1.38291e-05 0.00153304 0.000646263)
(-3.38421e-06 0.00161872 0.000664313)
(5.89491e-06 0.00166421 0.000673334)
(1.23479e-05 0.00167718 0.000671325)
(1.61464e-05 0.00166442 0.000657652)
(1.79863e-05 0.00162995 0.000631557)
(1.87678e-05 0.00157799 0.000592321)
(1.91406e-05 0.00151102 0.000540484)
(1.96326e-05 0.00143258 0.000477704)
(2.04665e-05 0.00134542 0.000407366)
(2.19371e-05 0.00125361 0.000333936)
(2.35544e-05 0.00116068 0.000261676)
(2.54584e-05 0.00107054 0.000195106)
(2.75078e-05 0.000985522 0.00013716)
(2.93186e-05 0.000907453 8.84687e-05)
(3.0705e-05 0.000836737 4.86248e-05)
(3.15718e-05 0.000773531 1.6561e-05)
(3.16718e-05 0.000717326 -8.9817e-06)
(3.08612e-05 0.000667669 -2.90856e-05)
(2.91651e-05 0.000623807 -4.44835e-05)
(2.65398e-05 0.000585156 -5.58523e-05)
(2.29347e-05 0.000550871 -6.39928e-05)
(1.8489e-05 0.000520215 -6.94459e-05)
(1.32453e-05 0.000492402 -7.28143e-05)
(7.41276e-06 0.000466537 -7.46955e-05)
(1.2611e-06 0.000441431 -7.60427e-05)
(-4.88928e-06 0.000415925 -7.743e-05)
(-1.06155e-05 0.000388443 -7.96391e-05)
(-1.5255e-05 0.000357177 -8.59346e-05)
(-1.70292e-05 0.000319473 -0.000105808)
(-1.48087e-05 0.000273389 -0.000134663)
(-1.12078e-05 0.00017963 -0.000105356)
(-9.59161e-06 0.000589992 0.000417343)
(-8.15661e-06 0.00088273 0.000527676)
(-4.02101e-07 0.00102633 0.000538785)
(1.40583e-05 0.0011355 0.000547471)
(3.214e-05 0.00121325 0.000555931)
(5.1952e-05 0.00126379 0.000558699)
(7.21428e-05 0.00129268 0.000554966)
(9.19029e-05 0.00130284 0.000545692)
(0.000110578 0.001298 0.000531086)
(0.000127649 0.00128024 0.000511358)
(0.000142699 0.00125232 0.000486691)
(0.000155321 0.00121583 0.000457679)
(0.000165288 0.00117313 0.000424983)
(0.000172358 0.00112595 0.000389727)
(0.000176511 0.00107665 0.000353138)
(0.000177763 0.00102689 0.000316669)
(0.000176322 0.000978614 0.000281817)
(0.000172554 0.000932785 0.000249859)
(0.00016671 0.000890378 0.000221416)
(0.000158993 0.000851661 0.000196582)
(0.000149702 0.000816887 0.000175465)
(0.000139034 0.000785713 0.000157862)
(0.000127212 0.000757842 0.000143465)
(0.000114404 0.000732542 0.000131739)
(0.000100833 0.000709243 0.000122274)
(8.66954e-05 0.000687032 0.000114482)
(7.2229e-05 0.000665125 0.000107846)
(5.76848e-05 0.000642333 0.000101543)
(4.33772e-05 0.000617511 9.47007e-05)
(2.96577e-05 0.000589028 8.63442e-05)
(1.68873e-05 0.000555127 7.54624e-05)
(5.5756e-06 0.000513302 5.82051e-05)
(-2.76276e-06 0.000460588 2.4955e-05)
(-5.90269e-06 0.000393136 -2.14972e-05)
(-5.88998e-06 0.00024842 -3.43821e-05)
(-5.03585e-06 0.000426167 0.000323846)
(-2.70067e-06 0.000634672 0.00035993)
(2.30218e-06 0.00073862 0.000341018)
(1.25949e-05 0.000821605 0.000328792)
(2.58067e-05 0.000885617 0.00032283)
(4.06246e-05 0.000934378 0.000316879)
(5.62352e-05 0.000970825 0.000309628)
(7.2038e-05 0.000997026 0.000301266)
(8.73845e-05 0.00101426 0.000291659)
(0.00010182 0.00102394 0.000280414)
(0.000114921 0.00102681 0.000267259)
(0.000126367 0.00102413 0.000252163)
(0.000135883 0.00101668 0.000235299)
(0.000143291 0.0010058 0.000217204)
(0.000148441 0.000992376 0.000198521)
(0.000151361 0.000977646 0.000180006)
(0.000152036 0.00096214 0.000162001)
(0.000150572 0.00094679 0.000145088)
(0.000147199 0.000931796 0.000129839)
(0.000142005 0.000917641 0.000116494)
(0.000135187 0.000904123 0.000105014)
(0.000126963 0.000891315 9.54488e-05)
(0.000117498 0.000878715 8.75326e-05)
(0.000106983 0.000866129 8.11587e-05)
(9.55865e-05 0.000852817 7.59299e-05)
(8.34821e-05 0.000838341 7.16226e-05)
(7.08741e-05 0.000821675 6.77279e-05)
(5.79501e-05 0.000802012 6.38169e-05)
(4.50123e-05 0.000777818 5.91673e-05)
(3.23047e-05 0.000747572 5.31898e-05)
(2.02246e-05 0.000708733 4.48151e-05)
(9.19205e-06 0.000658423 3.03706e-05)
(6.49242e-07 0.000592313 2.27186e-06)
(-3.41399e-06 0.000504599 -3.5728e-05)
(-4.35426e-06 0.000310476 -4.48002e-05)
(-2.59758e-06 0.00035894 0.000218725)
(-1.61904e-06 0.000567158 0.000221955)
(-1.92282e-06 0.000664802 0.000195681)
(-5.10615e-07 0.000740606 0.000174028)
(2.25008e-06 0.000799989 0.000159974)
(5.93562e-06 0.000846398 0.00014845)
(1.04063e-05 0.000882907 0.000137342)
(1.55582e-05 0.000911338 0.000126123)
(2.12451e-05 0.000933531 0.000114918)
(2.72458e-05 0.000950426 0.000103627)
(3.33617e-05 0.000963235 9.24207e-05)
(3.93371e-05 0.000972436 8.12177e-05)
(4.49773e-05 0.000978932 7.02176e-05)
(5.00429e-05 0.000982989 5.93971e-05)
(5.44097e-05 0.000985371 4.90571e-05)
(5.79216e-05 0.000986216 3.923e-05)
(6.05085e-05 0.000986169 3.02618e-05)
(6.22068e-05 0.000985209 2.2248e-05)
(6.28252e-05 0.000983912 1.52028e-05)
(6.24909e-05 0.000981989 9.32123e-06)
(6.12011e-05 0.000979725 4.81294e-06)
(5.89477e-05 0.000976683 1.48104e-06)
(5.57894e-05 0.000972922 -5.86203e-07)
(5.17507e-05 0.000967756 -1.71685e-06)
(4.69038e-05 0.000960977 -1.94413e-06)
(4.13142e-05 0.00095158 -1.72166e-06)
(3.50986e-05 0.000938968 -1.20475e-06)
(2.84009e-05 0.000921637 -9.84875e-07)
(2.14115e-05 0.000898309 -1.33777e-06)
(1.43793e-05 0.000866587 -2.93678e-06)
(7.59412e-06 0.000823919 -6.41054e-06)
(1.52312e-06 0.000766262 -1.42203e-05)
(-2.95266e-06 0.000688676 -3.05369e-05)
(-4.6115e-06 0.000584031 -5.28201e-05)
(-4.25688e-06 0.000350913 -5.1273e-05)
(-2.77642e-06 0.000312567 0.000131732)
(-3.45213e-06 0.000529477 0.000137802)
(-5.4838e-06 0.000630242 0.000126277)
(-7.40471e-06 0.000708038 0.000115244)
(-8.85764e-06 0.000768228 0.000106363)
(-9.81131e-06 0.000815324 9.78403e-05)
(-1.02485e-05 0.000852193 8.8713e-05)
(-1.00859e-05 0.000881478 7.9133e-05)
(-9.33205e-06 0.000904667 6.91374e-05)
(-7.98406e-06 0.000923413 5.91029e-05)
(-6.11516e-06 0.000938462 4.91104e-05)
(-3.78075e-06 0.000950939 3.95699e-05)
(-1.1072e-06 0.000961177 3.05602e-05)
(1.80755e-06 0.000969999 2.24787e-05)
(4.81718e-06 0.000977477 1.53595e-05)
(7.82084e-06 0.000984233 9.5358e-06)
(1.06832e-05 0.000990137 4.94767e-06)
(1.32692e-05 0.000995692 1.73278e-06)
(1.55227e-05 0.00100058 -2.30407e-07)
(1.73472e-05 0.00100508 -8.02391e-07)
(1.86576e-05 0.00100871 -2.56657e-07)
(1.94126e-05 0.0010116 1.44832e-06)
(1.95667e-05 0.00101305 3.95119e-06)
(1.91096e-05 0.00101295 7.21144e-06)
(1.80459e-05 0.00101035 1.07918e-05)
(1.64055e-05 0.00100482 1.45837e-05)
(1.42489e-05 0.000994948 1.80752e-05)
(1.16635e-05 0.000979788 2.10787e-05)
(8.7711e-06 0.000957168 2.30104e-05)
(5.72499e-06 0.000925143 2.36321e-05)
(2.71617e-06 0.000880181 2.21397e-05)
(-6.73745e-09 0.000818515 1.72281e-05)
(-1.96251e-06 0.000734102 6.0108e-06)
(-2.56824e-06 0.00061978 -9.8209e-06)
(-2.14267e-06 0.000364614 -1.56795e-05)
(-3.80995e-06 0.000294056 8.99693e-05)
(-6.31878e-06 0.00051502 0.000111083)
(-9.95745e-06 0.000617135 0.000115084)
(-1.42576e-05 0.00069515 0.000115095)
(-1.80805e-05 0.000755201 0.000112796)
(-2.1356e-05 0.000801555 0.000108394)
(-2.40689e-05 0.000837786 0.00010238)
(-2.61622e-05 0.000866131 9.50584e-05)
(-2.75881e-05 0.000888755 8.69899e-05)
(-2.83234e-05 0.000906802 7.84201e-05)
(-2.83804e-05 0.000921677 6.98537e-05)
(-2.77882e-05 0.000933915 6.14791e-05)
(-2.65993e-05 0.000944491 5.37441e-05)
(-2.48834e-05 0.000953581 4.67627e-05)
(-2.27325e-05 0.000961897 4.09018e-05)
(-2.02406e-05 0.000969372 3.6174e-05)
(-1.74982e-05 0.000976528 3.28409e-05)
(-1.46335e-05 0.000983078 3.08529e-05)
(-1.17454e-05 0.000989384 3.03643e-05)
(-8.92919e-06 0.000994999 3.11605e-05)
(-6.28357e-06 0.00100013 3.32908e-05)
(-3.88766e-06 0.00100412 3.64365e-05)
(-1.81377e-06 0.00100699 4.0549e-05)
(-1.06348e-07 0.00100783 4.52198e-05)
(1.1967e-06 0.0010064 5.03191e-05)
(2.09186e-06 0.00100147 5.53507e-05)
(2.58196e-06 0.000992379 6.01022e-05)
(2.70856e-06 0.000977345 6.40045e-05)
(2.52511e-06 0.000954954 6.67772e-05)
(2.10571e-06 0.000922452 6.77919e-05)
(1.52271e-06 0.000877071 6.65847e-05)
(8.57387e-07 0.000814289 6.18471e-05)
(2.25067e-07 0.00072885 5.1735e-05)
(-7.69523e-08 0.000612999 3.63134e-05)
(9.67048e-09 0.000355905 1.66837e-05)
(-4.83059e-06 0.000281283 6.74003e-05)
(-8.53207e-06 0.000497535 0.000102295)
(-1.31558e-05 0.000596865 0.000116932)
(-1.87166e-05 0.000672438 0.000124616)
(-2.36751e-05 0.000729951 0.000126876)
(-2.79844e-05 0.000774086 0.000125468)
(-3.16312e-05 0.0008079 0.000121353)
(-3.45902e-05 0.000834157 0.000115373)
(-3.67694e-05 0.000854479 0.00010803)
(-3.81526e-05 0.000870597 9.99604e-05)
(-3.87029e-05 0.000883345 9.15475e-05)
(-3.84584e-05 0.000893886 8.33281e-05)
(-3.74407e-05 0.0009026 7.55806e-05)
(-3.57308e-05 0.000910308 6.87352e-05)
(-3.33912e-05 0.000917099 6.29562e-05)
(-3.05367e-05 0.000923568 5.85577e-05)
(-2.72627e-05 0.00092958 5.55793e-05)
(-2.37076e-05 0.000935542 5.42099e-05)
(-1.99804e-05 0.000941122 5.43559e-05)
(-1.62167e-05 0.000946555 5.60749e-05)
(-1.25228e-05 0.000951312 5.91406e-05)
(-9.01619e-06 0.000955448 6.34852e-05)
(-5.78016e-06 0.000958222 6.87604e-05)
(-2.89958e-06 0.000959471 7.47838e-05)
(-4.20681e-07 0.000958185 8.10989e-05)
(1.61036e-06 0.000953868 8.74372e-05)
(3.18613e-06 0.000945088 9.32577e-05)
(4.30433e-06 0.000930835 9.8209e-05)
(4.98994e-06 0.000909003 0.000101662)
(5.2743e-06 0.000877674 0.000103175)
(5.17375e-06 0.000833546 0.000101907)
(4.66445e-06 0.000773044 9.67907e-05)
(3.70051e-06 0.000690678 8.57361e-05)
(2.68245e-06 0.000579806 6.80199e-05)
(1.88572e-06 0.000334348 3.53761e-05)
(-4.79248e-06 0.000271783 4.87084e-05)
(-8.73548e-06 0.000478263 8.92584e-05)
(-1.36681e-05 0.00057284 0.000108768)
(-1.96183e-05 0.000644197 0.000119906)
(-2.498e-05 0.00069823 0.000124261)
(-2.96285e-05 0.000738966 0.000124029)
(-3.35899e-05 0.000769823 0.000120636)
(-3.67693e-05 0.000792998 0.000114888)
(-3.91057e-05 0.000810576 0.000107532)
(-4.05116e-05 0.000823765 9.91118e-05)
(-4.09853e-05 0.000833925 9.02534e-05)
(-4.05104e-05 0.000841707 8.14009e-05)
(-3.91514e-05 0.000848062 7.30816e-05)
(-3.69506e-05 0.000853297 6.56275e-05)
(-3.40194e-05 0.000858092 5.94404e-05)
(-3.04567e-05 0.000862506 5.47177e-05)
(-2.64176e-05 0.000867005 5.17157e-05)
(-2.20297e-05 0.000871431 5.04792e-05)
(-1.74676e-05 0.000876054 5.11049e-05)
(-1.28671e-05 0.000880509 5.34756e-05)
(-8.39669e-06 0.000884867 5.75261e-05)
(-4.1776e-06 0.000888553 6.29832e-05)
(-3.45301e-07 0.000891425 6.96322e-05)
(3.01452e-06 0.000892674 7.70618e-05)
(5.81728e-06 0.000891899 8.49308e-05)
(8.02329e-06 0.000887988 9.27154e-05)
(9.5983e-06 0.000880174 9.99803e-05)
(1.05454e-05 0.000866876 0.000106124)
(1.0883e-05 0.000846718 0.000110634)
(1.06486e-05 0.000817309 0.000112819)
(9.86063e-06 0.00077618 0.000111938)
(8.47108e-06 0.000719456 0.000106671)
(6.4456e-06 0.000642659 9.49636e-05)
(4.43847e-06 0.000539171 7.55409e-05)
(2.83035e-06 0.000310784 3.67569e-05)
(-4.00547e-06 0.000265491 2.41289e-05)
(-7.78995e-06 0.000463045 6.04271e-05)
(-1.26778e-05 0.000553043 7.94174e-05)
(-1.87233e-05 0.000620561 9.03453e-05)
(-2.43018e-05 0.000670939 9.42648e-05)
(-2.9236e-05 0.00070837 9.35329e-05)
(-3.34486e-05 0.000735788 8.94745e-05)
(-3.6841e-05 0.000755735 8.29811e-05)
(-3.92677e-05 0.000769863 7.46629e-05)
(-4.06592e-05 0.000779816 6.51794e-05)
(-4.09533e-05 0.000786556 5.50599e-05)
(-4.01586e-05 0.000791226 4.49009e-05)
(-3.8295e-05 0.000794391 3.51928e-05)
(-3.54575e-05 0.000796881 2.649e-05)
(-3.17401e-05 0.000798986 1.92016e-05)
(-2.73085e-05 0.000801288 1.37329e-05)
(-2.23229e-05 0.000803834 1.03029e-05)
(-1.69853e-05 0.000806974 9.10525e-06)
(-1.1485e-05 0.000810517 1.01513e-05)
(-6.03802e-06 0.000814579 1.34229e-05)
(-8.23655e-07 0.000818733 1.87236e-05)
(3.96558e-06 0.000822859 2.58193e-05)
(8.18746e-06 0.000826288 3.42972e-05)
(1.17054e-05 0.000828652 4.37256e-05)
(1.4437e-05 0.000829025 5.35485e-05)
(1.63233e-05 0.000826751 6.32623e-05)
(1.73536e-05 0.000820568 7.22959e-05)
(1.75371e-05 0.000809396 8.01265e-05)
(1.69293e-05 0.000791435 8.61388e-05)
(1.56053e-05 0.000764864 8.97505e-05)
(1.36297e-05 0.000726915 9.01519e-05)
(1.10243e-05 0.000674394 8.6146e-05)
(7.84433e-06 0.000602761 7.56459e-05)
(5.01832e-06 0.000506248 5.76388e-05)
(2.84424e-06 0.000292795 2.22133e-05)
(-2.72832e-06 0.000268435 -4.09738e-06)
(-6.15957e-06 0.000463667 2.05281e-05)
(-1.08516e-05 0.000552191 3.52526e-05)
(-1.68948e-05 0.000617784 4.32446e-05)
(-2.27284e-05 0.000666003 4.49051e-05)
(-2.80124e-05 0.000700727 4.22246e-05)
(-3.26085e-05 0.000725235 3.64192e-05)
(-3.63256e-05 0.000741787 2.81514e-05)
(-3.90088e-05 0.000752452 1.80007e-05)
(-4.05171e-05 0.000758609 6.45255e-06)
(-4.07896e-05 0.000761672 -5.94991e-06)
(-3.97897e-05 0.000762529 -1.86294e-05)
(-3.75567e-05 0.000762218 -3.08273e-05)
(-3.41616e-05 0.000761311 -4.17974e-05)
(-2.9754e-05 0.000760578 -5.08795e-05)
(-2.4516e-05 0.000760325 -5.765e-05)
(-1.86721e-05 0.000761051 -6.17762e-05)
(-1.24555e-05 0.000762781 -6.31065e-05)
(-6.11825e-06 0.000765709 -6.16325e-05)
(9.71915e-08 0.000769572 -5.74236e-05)
(5.94934e-06 0.000774293 -5.05936e-05)
(1.12095e-05 0.000779326 -4.14276e-05)
(1.56729e-05 0.000784303 -3.03515e-05)
(1.91945e-05 0.0007884 -1.80514e-05)
(2.16794e-05 0.000790977 -5.31542e-06)
(2.30781e-05 0.000790938 7.11546e-06)
(2.33981e-05 0.000787317 1.86372e-05)
(2.26843e-05 0.000778614 2.8728e-05)
(2.10364e-05 0.000763345 3.69142e-05)
(1.8575e-05 0.000739333 4.26647e-05)
(1.54466e-05 0.000704167 4.53626e-05)
(1.1752e-05 0.000654403 4.39505e-05)
(7.7226e-06 0.000585937 3.66925e-05)
(4.4456e-06 0.000492942 2.31428e-05)
(2.08449e-06 0.000286729 -1.25403e-06)
(-1.48893e-06 0.000282746 -3.04043e-05)
(-4.63678e-06 0.000484454 -2.00005e-05)
(-9.0443e-06 0.000575285 -1.12191e-05)
(-1.50279e-05 0.00064185 -7.35974e-06)
(-2.1036e-05 0.000689685 -8.84208e-06)
(-2.66344e-05 0.00072313 -1.41168e-05)
(-3.15733e-05 0.000745391 -2.23071e-05)
(-3.56255e-05 0.000759177 -3.29221e-05)
(-3.85722e-05 0.000766455 -4.5606e-05)
(-4.02443e-05 0.000769047 -5.99965e-05)
(-4.05288e-05 0.000768247 -7.55839e-05)
(-3.93941e-05 0.000765377 -9.15182e-05)
(-3.68691e-05 0.000761343 -0.00010671)
(-3.30599e-05 0.00075715 -0.000120147)
(-2.81293e-05 0.000753412 -0.000131112)
(-2.22978e-05 0.000750826 -0.000139178)
(-1.58204e-05 0.000749678 -0.000144139)
(-8.96519e-06 0.000750324 -0.000145884)
(-2.00973e-06 0.000752722 -0.000144315)
(4.76621e-06 0.000756887 -0.000139441)
(1.10852e-05 0.000762425 -0.000131363)
(1.66815e-05 0.000768997 -0.00012028)
(2.13248e-05 0.000775868 -0.000106606)
(2.48371e-05 0.000782373 -9.10622e-05)
(2.70941e-05 0.000787471 -7.46947e-05)
(2.80483e-05 0.000790195 -5.87179e-05)
(2.77191e-05 0.000789196 -4.40404e-05)
(2.62003e-05 0.000783125 -3.11668e-05)
(2.36382e-05 0.000770114 -2.04096e-05)
(2.02222e-05 0.000748106 -1.20892e-05)
(1.61489e-05 0.000714321 -6.63072e-06)
(1.16384e-05 0.000665429 -4.78863e-06)
(7.0402e-06 0.00059698 -7.86419e-06)
(3.58324e-06 0.000503262 -1.55344e-05)
(1.14199e-06 0.00029434 -2.59171e-05)
(-5.76907e-07 0.000308649 -4.81562e-05)
(-3.55605e-06 0.000524482 -5.00521e-05)
(-7.63652e-06 0.000621244 -4.69562e-05)
(-1.34305e-05 0.000691314 -4.71601e-05)
(-1.94312e-05 0.000740804 -5.16718e-05)
(-2.51119e-05 0.000774274 -5.94546e-05)
(-3.01858e-05 0.000795416 -6.996e-05)
(-3.43741e-05 0.000807039 -8.29311e-05)
(-3.74303e-05 0.000811546 -9.82223e-05)
(-3.91373e-05 0.000810795 -0.000115544)
(-3.93759e-05 0.000806485 -0.00013422)
(-3.81011e-05 0.000799938 -0.000153042)
(-3.53614e-05 0.000792444 -0.000170629)
(-3.12752e-05 0.000784967 -0.000185832)
(-2.60394e-05 0.000778455 -0.000197947)
(-1.98933e-05 0.000773528 -0.000206656)
(-1.31106e-05 0.000770772 -0.000211883)
(-5.97235e-06 0.000770406 -0.000213615)
(1.2328e-06 0.0007726 -0.000211847)
(8.21768e-06 0.00077716 -0.000206561)
(1.46956e-05 0.000783843 -0.000197763)
(2.03851e-05 0.000792051 -0.00018552)
(2.50427e-05 0.000801142 -0.000170147)
(2.84615e-05 0.000810144 -0.000152338)
(3.05086e-05 0.00081806 -0.00013326)
(3.11199e-05 0.000823578 -0.000114319)
(3.03311e-05 0.000825325 -9.67506e-05)
(2.82433e-05 0.000821569 -8.12526e-05)
(2.50563e-05 0.000810404 -6.8098e-05)
(2.09981e-05 0.000789401 -5.74108e-05)
(1.63275e-05 0.000755698 -4.94163e-05)
(1.13071e-05 0.000705558 -4.45641e-05)
(6.40757e-06 0.000634344 -4.37166e-05)
(2.9276e-06 0.000535873 -4.59499e-05)
(3.93627e-07 0.000315515 -4.41002e-05)
(-1.66699e-07 0.000342282 -5.56904e-05)
(-3.13822e-06 0.000576235 -6.48863e-05)
(-6.91285e-06 0.000680767 -6.54806e-05)
(-1.24685e-05 0.000755911 -6.83475e-05)
(-1.82861e-05 0.000808214 -7.47821e-05)
(-2.38439e-05 0.000842796 -8.41419e-05)
(-2.88185e-05 0.000863609 -9.61017e-05)
(-3.29368e-05 0.000873894 -0.000110605)
(-3.59068e-05 0.000876214 -0.00012765)
(-3.75158e-05 0.000872793 -0.000146969)
(-3.76295e-05 0.000865435 -0.000167625)
(-3.62209e-05 0.000855796 -0.000188127)
(-3.33374e-05 0.000845231 -0.000206915)
(-2.9124e-05 0.000834998 -0.000222854)
(-2.37843e-05 0.000826065 -0.000235351)
(-1.75709e-05 0.000819285 -0.000244254)
(-1.07566e-05 0.00081519 -0.000249572)
(-3.61949e-06 0.00081417 -0.000251363)
(3.55797e-06 0.00081629 -0.000249619)
(1.04991e-05 0.000821473 -0.000244333)
(1.69157e-05 0.000829315 -0.000235434)
(2.25367e-05 0.000839269 -0.000222896)
(2.71042e-05 0.000850471 -0.000206859)
(3.04068e-05 0.000861932 -0.000187912)
(3.22904e-05 0.000872383 -0.000167201)
(3.26997e-05 0.000880445 -0.000146307)
(3.16556e-05 0.000884448 -0.000126752)
(2.92797e-05 0.000882562 -0.0001095)
(2.57713e-05 0.000872549 -9.48191e-05)
(2.14122e-05 0.000851814 -8.2695e-05)
(1.64607e-05 0.000817097 -7.31542e-05)
(1.1227e-05 0.00076441 -6.64606e-05)
(6.20006e-06 0.000688603 -6.31388e-05)
(2.77753e-06 0.000583083 -6.19576e-05)
(6.92361e-08 0.000346211 -5.27794e-05)
(-1.62167e-07 0.000379823 -5.44429e-05)
(-3.22434e-06 0.000632832 -6.54112e-05)
(-6.85311e-06 0.000745687 -6.72023e-05)
(-1.22646e-05 0.000826341 -7.09585e-05)
(-1.79422e-05 0.000881944 -7.80165e-05)
(-2.33513e-05 0.00091802 -8.78867e-05)
(-2.81896e-05 0.000938955 -0.000100383)
(-3.21647e-05 0.000948248 -0.00011555)
(-3.49876e-05 0.000948808 -0.000133449)
(-3.64428e-05 0.000943038 -0.000153703)
(-3.64125e-05 0.000933039 -0.000175189)
(-3.48643e-05 0.000920607 -0.000196214)
(-3.18698e-05 0.000907349 -0.000215176)
(-2.75749e-05 0.000894619 -0.000230995)
(-2.2198e-05 0.000883584 -0.000243239)
(-1.59887e-05 0.000875138 -0.000251881)
(-9.21391e-06 0.00086995 -0.00025703)
(-2.14242e-06 0.000868392 -0.000258761)
(4.95523e-06 0.000870608 -0.000257094)
(1.18076e-05 0.000876446 -0.000252002)
(1.81439e-05 0.000885529 -0.000243397)
(2.36928e-05 0.00089718 -0.000231157)
(2.82041e-05 0.000910495 -0.000215303)
(3.14553e-05 0.000924299 -0.000196264)
(3.32909e-05 0.000937227 -0.000175121)
(3.36349e-05 0.000947662 -0.000153493)
(3.2518e-05 0.000953793 -0.000133091)
(3.00462e-05 0.00095351 -0.000115054)
(2.64309e-05 0.000944393 -9.97647e-05)
(2.19518e-05 0.000923522 -8.71526e-05)
(1.68962e-05 0.000887377 -7.71523e-05)
(1.1556e-05 0.000831562 -6.99101e-05)
(6.44845e-06 0.000750525 -6.5843e-05)
(3.02229e-06 0.000637101 -6.36558e-05)
(1.07618e-07 0.000382039 -5.26277e-05)
(-4.57906e-07 0.000417372 -4.70687e-05)
(-3.68515e-06 0.000688313 -5.52077e-05)
(-7.33349e-06 0.00080899 -5.59975e-05)
(-1.27523e-05 0.000894853 -5.91223e-05)
(-1.8372e-05 0.000953536 -6.57135e-05)
(-2.36908e-05 0.000991019 -7.52549e-05)
(-2.84126e-05 0.00101201 -8.75418e-05)
(-3.2252e-05 0.00102034 -0.000102662)
(-3.49236e-05 0.00101916 -0.000120656)
(-3.62261e-05 0.00101113 -0.00014105)
(-3.60409e-05 0.000998564 -0.00016255)
(-3.43507e-05 0.000983473 -0.000183376)
(-3.12289e-05 0.000967617 -0.00020191)
(-2.68409e-05 0.000952537 -0.000217188)
(-2.14022e-05 0.0009395 -0.000228895)
(-1.5162e-05 0.000929533 -0.000237117)
(-8.37832e-06 0.000923343 -0.000242003)
(-1.31521e-06 0.000921375 -0.000243652)
(5.76171e-06 0.000923757 -0.000242073)
(1.25913e-05 0.000930359 -0.000237252)
(1.89092e-05 0.00094073 -0.000229082)
(2.44545e-05 0.000954158 -0.000217409)
(2.89729e-05 0.000969614 -0.000202139)
(3.22502e-05 0.000985823 -0.000183586)
(3.41166e-05 0.00100124 -0.000162716)
(3.44952e-05 0.0010141 -0.000141152)
(3.33998e-05 0.00102236 -0.000120686)
(3.09436e-05 0.00102374 -0.000102622)
(2.73247e-05 0.00101554 -8.74353e-05)
(2.28229e-05 0.000994608 -7.50778e-05)
(1.77214e-05 0.000957102 -6.54485e-05)
(1.23091e-05 0.000898302 -5.87241e-05)
(7.07887e-06 0.000812217 -5.53724e-05)
(3.55979e-06 0.000691199 -5.42845e-05)
(4.20086e-07 0.000418647 -4.60074e-05)
(-9.46411e-07 0.00045213 -3.59255e-05)
(-4.37855e-06 0.000738519 -3.80642e-05)
(-8.17904e-06 0.000865889 -3.63388e-05)
(-1.37162e-05 0.000956108 -3.7772e-05)
(-1.93681e-05 0.00101725 -4.3172e-05)
(-2.46527e-05 0.00105565 -5.18184e-05)
(-2.93053e-05 0.00107633 -6.34184e-05)
(-3.30408e-05 0.00108339 -7.80154e-05)
(-3.55858e-05 0.00108023 -9.56151e-05)
(-3.67468e-05 0.00106975 -0.000115621)
(-3.64167e-05 0.00105445 -0.000136645)
(-3.45795e-05 0.00103655 -0.000156851)
(-3.13225e-05 0.00101799 -0.000174677)
(-2.681e-05 0.00100046 -0.00018925)
(-2.12592e-05 0.00098537 -0.00020037)
(-1.49192e-05 0.000973839 -0.000208162)
(-8.04632e-06 0.000966655 -0.000212798)
(-8.98814e-07 0.000964302 -0.000214355)
(6.25786e-06 0.000966928 -0.000212866)
(1.31614e-05 0.000974383 -0.000208295)
(1.95533e-05 0.00098618 -0.000200562)
(2.51724e-05 0.00100153 -0.000189489)
(2.97716e-05 0.00101931 -0.000174947)
(3.3132e-05 0.00103811 -0.000157136)
(3.50877e-05 0.00105623 -0.000136929)
(3.5546e-05 0.00107174 -0.000115891)
(3.45235e-05 0.0010824 -9.58624e-05)
(3.21249e-05 0.0010857 -7.82373e-05)
(2.85398e-05 0.00107874 -6.36104e-05)
(2.40397e-05 0.00105811 -5.19715e-05)
(1.89067e-05 0.00101971 -4.32657e-05)
(1.33979e-05 0.000958517 -3.77649e-05)
(7.99181e-06 0.00086817 -3.61511e-05)
(4.28704e-06 0.000740594 -3.76291e-05)
(9.1575e-07 0.000452843 -3.531e-05)
(-1.51327e-06 0.000482344 -2.34997e-05)
(-5.15926e-06 0.000780915 -1.82393e-05)
(-9.18301e-06 0.000913472 -1.33049e-05)
(-1.49055e-05 0.0010069 -1.25766e-05)
(-2.06462e-05 0.00106962 -1.64614e-05)
(-2.59457e-05 0.00110824 -2.398e-05)
(-3.05685e-05 0.00112805 -3.46835e-05)
(-3.4239e-05 0.00113338 -4.85465e-05)
(-3.66915e-05 0.00112784 -6.54966e-05)
(-3.77429e-05 0.00111453 -8.48569e-05)
(-3.72881e-05 0.00109616 -0.000105168)
(-3.53159e-05 0.00107515 -0.000124603)
(-3.1916e-05 0.00105362 -0.000141664)
(-2.72522e-05 0.00103342 -0.000155569)
(-2.15447e-05 0.00101609 -0.00016617)
(-1.5039e-05 0.00100287 -0.000173606)
(-7.99425e-06 0.000994619 -0.000178034)
(-6.71406e-07 0.000991873 -0.000179521)
(6.65918e-06 0.000994802 -0.000178095)
(1.37255e-05 0.00100323 -0.000173726)
(2.02665e-05 0.00101664 -0.000166346)
(2.60226e-05 0.00103415 -0.000155793)
(3.07493e-05 0.00105453 -0.000141929)
(3.42241e-05 0.00107622 -0.000124899)
(3.62801e-05 0.00109739 -0.000105484)
(3.68287e-05 0.0011159 -8.51849e-05)
(3.58809e-05 0.00112934 -6.58286e-05)
(3.35368e-05 0.00113499 -4.88765e-05)
(2.99783e-05 0.00112974 -3.50039e-05)
(2.54695e-05 0.00110998 -2.42788e-05)
(2.02843e-05 0.00107137 -1.6718e-05)
(1.46556e-05 0.00100863 -1.27532e-05)
(9.03363e-06 0.000915136 -1.33335e-05)
(5.0849e-06 0.000782465 -1.80572e-05)
(1.484e-06 0.000482697 -2.31389e-05)
(-2.02792e-06 0.000507549 -1.21964e-05)
(-5.83527e-06 0.000815086 1.18765e-07)
(-1.00912e-05 0.000951333 8.14914e-06)
(-1.60083e-05 0.00104684 1.09591e-05)
(-2.186e-05 0.00111025 8.51639e-06)
(-2.72152e-05 0.0011484 2.06111e-06)
(-3.18537e-05 0.00116675 -7.79716e-06)
(-3.55117e-05 0.00116984 -2.09509e-05)
(-3.79279e-05 0.00116144 -3.72411e-05)
(-3.8919e-05 0.00114486 -5.5929e-05)
(-3.83858e-05 0.00112301 -7.5521e-05)
(-3.631e-05 0.00109849 -9.42359e-05)
(-3.27782e-05 0.0010736 -0.000110645)
(-2.79577e-05 0.00105037 -0.00012402)
(-2.20678e-05 0.0010305 -0.000134227)
(-1.53538e-05 0.00101535 -0.000141417)
(-8.07949e-06 0.0010059 -0.000145711)
(-5.2066e-07 0.00100272 -0.000147155)