/*--------------------------------*- C++ -*----------------------------------*\
| =========                 |                                                 |
| \\      /  F ield         | OpenFOAM: The Open Source CFD Toolbox           |
|  \\    /   O peration     | Version:  v1906                                 |
|   \\  /    A nd           | Web:      www.OpenFOAM.com                      |
|    \\/     M anipulation  |                                                 |
\*---------------------------------------------------------------------------*/
FoamFile
{
    version     2.0;
    format      ascii;
    class       volVectorField;
    location    "40/oil";
    object      U;
}
// * * * * * * * * * * * * * * * * * * * * * * * * * * * * * * * * * * * * * //

dimensions      [0 1 -1 0 0 0 0];


internalField   nonuniform List<vector> 
27760
(
(-2.6678e-05 -2.72092e-05 -2.6678e-05)
(-5.26761e-05 -2.04153e-05 -1.92094e-05)
(-3.88478e-06 -5.30251e-06 -5.23764e-06)
(-6.37589e-06 -8.75657e-07 -9.3268e-07)
(-1.48256e-06 -2.91041e-07 -3.55585e-07)
(-7.62742e-07 -1.32957e-07 -1.99559e-07)
(-1.16615e-07 -3.8562e-08 -1.08822e-07)
(1.85214e-07 1.18227e-10 -7.40446e-08)
(3.5138e-07 2.08836e-08 -5.64363e-08)
(4.24227e-07 3.29146e-08 -4.6656e-08)
(4.32064e-07 4.10853e-08 -3.98127e-08)
(3.88753e-07 4.68754e-08 -3.46777e-08)
(3.0463e-07 5.10323e-08 -3.07514e-08)
(1.89929e-07 5.38493e-08 -2.79761e-08)
(5.5763e-08 5.53399e-08 -2.6471e-08)
(-8.59626e-08 5.55045e-08 -2.63074e-08)
(-2.23212e-07 5.43904e-08 -2.74375e-08)
(-3.44776e-07 5.21136e-08 -2.96704e-08)
(-4.41284e-07 4.88615e-08 -3.2677e-08)
(-5.0591e-07 4.48617e-08 -3.60261e-08)
(-5.35017e-07 4.01978e-08 -3.93075e-08)
(-5.28413e-07 3.51174e-08 -4.19961e-08)
(-4.88726e-07 2.99469e-08 -4.33976e-08)
(-4.21387e-07 2.47151e-08 -4.31985e-08)
(-3.34483e-07 1.95369e-08 -4.10053e-08)
(-2.38037e-07 1.46227e-08 -3.65271e-08)
(-1.43679e-07 1.04106e-08 -2.97757e-08)
(-6.41301e-08 7.73054e-09 -2.1308e-08)
(-1.12032e-08 7.7836e-09 -1.27952e-08)
(4.75664e-09 9.25955e-09 -4.65689e-09)
(-1.93607e-05 -5.41216e-05 -1.93607e-05)
(-6.38283e-06 -6.97872e-06 -8.67046e-06)
(-8.67761e-06 -8.42713e-06 -3.02922e-06)
(-4.11076e-06 -2.36993e-06 -8.64066e-07)
(-1.7404e-06 -1.39718e-06 -4.26129e-07)
(-6.5486e-07 -7.15002e-07 -2.06233e-07)
(1.0217e-07 -4.22936e-07 -9.89889e-08)
(5.3635e-07 -2.66729e-07 -4.77005e-08)
(7.88695e-07 -1.76878e-07 -1.82092e-08)
(8.99857e-07 -1.17605e-07 9.09031e-10)
(8.97873e-07 -7.41475e-08 1.52465e-08)
(8.00258e-07 -4.07174e-08 2.67141e-08)
(6.23764e-07 -1.53267e-08 3.5737e-08)
(3.86988e-07 2.30669e-09 4.21016e-08)
(1.11414e-07 1.18746e-08 4.55244e-08)
(-1.79286e-07 1.32137e-08 4.5841e-08)
(-4.6097e-07 6.61858e-09 4.31318e-08)
(-7.11092e-07 -7.04024e-09 3.7764e-08)
(-9.10766e-07 -2.63563e-08 3.03623e-08)
(-1.04645e-06 -4.954e-08 2.17437e-08)
(-1.11082e-06 -7.47124e-08 1.28874e-08)
(-1.10308e-06 -9.9874e-08 4.68934e-09)
(-1.0288e-06 -1.22963e-07 -2.01998e-09)
(-8.99189e-07 -1.42194e-07 -6.558e-09)
(-7.30064e-07 -1.55517e-07 -8.42023e-09)
(-5.40837e-07 -1.60384e-07 -7.40926e-09)
(-3.53171e-07 -1.53297e-07 -3.83489e-09)
(-1.89054e-07 -1.29677e-07 1.16471e-09)
(-6.79985e-08 -8.44477e-08 5.00499e-09)
(-4.32146e-09 -2.21272e-08 4.4696e-09)
(-5.36196e-06 -5.0185e-06 -5.36192e-06)
(-8.49205e-06 -9.36671e-06 -3.10628e-06)
(-4.53437e-06 -5.14392e-06 -1.3724e-06)
(-2.80542e-06 -2.82466e-06 -6.48417e-07)
(-1.22243e-06 -1.86094e-06 -3.03887e-07)
(-2.68769e-07 -1.26374e-06 -1.34922e-07)
(4.18129e-07 -9.5184e-07 -4.70952e-08)
(8.55903e-07 -7.61852e-07 3.97734e-10)
(1.11844e-06 -6.36068e-07 3.05932e-08)
(1.22922e-06 -5.42829e-07 5.23284e-08)
(1.20729e-06 -4.68609e-07 6.97983e-08)
(1.06782e-06 -4.08201e-07 8.42779e-08)
(8.28728e-07 -3.60736e-07 9.58452e-08)
(5.12514e-07 -3.27154e-07 1.0407e-07)
(1.46385e-07 -3.08674e-07 1.08493e-07)
(-2.39148e-07 -3.0589e-07 1.08858e-07)
(-6.12724e-07 -3.18284e-07 1.05246e-07)
(-9.44983e-07 -3.44058e-07 9.8107e-08)
(-1.21133e-06 -3.80241e-07 8.82219e-08)
(-1.39411e-06 -4.23018e-07 7.66042e-08)
(-1.48388e-06 -4.6806e-07 6.43764e-08)
(-1.47981e-06 -5.10964e-07 5.26295e-08)
(-1.38916e-06 -5.4732e-07 4.23199e-08)
(-1.22629e-06 -5.72651e-07 3.41977e-08)
(-1.01123e-06 -5.82039e-07 2.87153e-08)
(-7.67993e-07 -5.6962e-07 2.5931e-08)
(-5.22673e-07 -5.27871e-07 2.53274e-08)
(-3.00542e-07 -4.47296e-07 2.54208e-08)
(-1.24836e-07 -3.16216e-07 2.32576e-08)
(-1.29562e-08 -1.27253e-07 1.31454e-08)
(-9.7425e-07 -7.20714e-06 -9.74194e-07)
(-2.29889e-06 -5.29365e-06 -8.87503e-07)
(-2.0277e-06 -4.22477e-06 -6.45081e-07)
(-1.32563e-06 -3.0048e-06 -3.39985e-07)
(-4.42698e-07 -2.33945e-06 -1.60355e-07)
(2.39065e-07 -1.89627e-06 -5.80367e-08)
(7.84923e-07 -1.62636e-06 3.06623e-09)
(1.16718e-06 -1.43939e-06 4.13224e-08)
(1.40196e-06 -1.29881e-06 6.89281e-08)
(1.49176e-06 -1.18326e-06 9.10244e-08)
(1.44345e-06 -1.08424e-06 1.0997e-07)
(1.26711e-06 -9.99818e-07 1.26227e-07)
(9.79489e-07 -9.31583e-07 1.39431e-07)
(6.04546e-07 -8.82487e-07 1.48896e-07)
(1.72781e-07 -8.55194e-07 1.53983e-07)
(-2.80873e-07 -8.51016e-07 1.54353e-07)
(-7.2022e-07 -8.69282e-07 1.50075e-07)
(-1.11126e-06 -9.07164e-07 1.41653e-07)
(-1.42554e-06 -9.59877e-07 1.29987e-07)
(-1.64274e-06 -1.02123e-06 1.16228e-07)
(-1.75211e-06 -1.0842e-06 1.01628e-07)
(-1.75286e-06 -1.1415e-06 8.7388e-08)
(-1.65342e-06 -1.18578e-06 7.45373e-08)
(-1.47011e-06 -1.20953e-06 6.3846e-08)
(-1.2253e-06 -1.20459e-06 5.57282e-08)
(-9.45366e-07 -1.16142e-06 5.0169e-08)
(-6.58507e-07 -1.06806e-06 4.65643e-08)
(-3.91583e-07 -9.08897e-07 4.32298e-08)
(-1.71214e-07 -6.61672e-07 3.69464e-08)
(-1.96606e-08 -2.92267e-07 1.98999e-08)
(-3.28473e-07 -2.41276e-06 -3.28403e-07)
(-1.15027e-06 -3.465e-06 -4.0201e-07)
(-9.05228e-07 -3.48141e-06 -2.86036e-07)
(-4.58504e-07 -3.10208e-06 -1.53222e-07)
(1.29935e-07 -2.81478e-06 -6.03836e-08)
(6.56383e-07 -2.57472e-06 2.95775e-10)
(1.1052e-06 -2.39384e-06 4.17659e-08)
(1.43667e-06 -2.2429e-06 7.19509e-08)
(1.64021e-06 -2.10947e-06 9.67816e-08)
(1.70583e-06 -1.98603e-06 1.18715e-07)
(1.63179e-06 -1.87168e-06 1.38648e-07)
(1.42393e-06 -1.76942e-06 1.56319e-07)
(1.09742e-06 -1.68439e-06 1.70917e-07)
(6.76806e-07 -1.62221e-06 1.81469e-07)
(1.94722e-07 -1.58738e-06 1.87141e-07)
(-3.1074e-07 -1.58211e-06 1.87491e-07)
(-7.99822e-07 -1.60568e-06 1.82573e-07)
(-1.23509e-06 -1.65428e-06 1.72949e-07)
(-1.58526e-06 -1.7213e-06 1.59655e-07)
(-1.82818e-06 -1.7981e-06 1.43981e-07)
(-1.95233e-06 -1.87487e-06 1.27329e-07)
(-1.95712e-06 -1.94139e-06 1.11018e-07)
(-1.85188e-06 -1.98729e-06 9.61407e-08)
(-1.65429e-06 -2.00199e-06 8.34897e-08)
(-1.38816e-06 -1.9741e-06 7.34675e-08)
(-1.08117e-06 -1.89026e-06 6.60159e-08)
(-7.62762e-07 -1.73358e-06 6.04845e-08)
(-4.60986e-07 -1.48083e-06 5.50471e-08)
(-2.0575e-07 -1.09491e-06 4.6241e-08)
(-2.43434e-08 -5.0334e-07 2.46366e-08)
(-1.44712e-07 -1.91792e-06 -1.44627e-07)
(-3.85508e-07 -3.01685e-06 -1.59845e-07)
(-2.14443e-07 -3.41879e-06 -1.08193e-07)
(1.13562e-07 -3.46203e-06 -4.75093e-08)
(5.5293e-07 -3.42736e-06 1.93222e-09)
(9.83841e-07 -3.34738e-06 3.89112e-08)
(1.36617e-06 -3.25414e-06 6.83494e-08)
(1.65715e-06 -3.14863e-06 9.33867e-08)
(1.83318e-06 -3.03407e-06 1.1659e-07)
(1.87684e-06 -2.91361e-06 1.38795e-07)
(1.78067e-06 -2.7931e-06 1.59927e-07)
(1.54718e-06 -2.6803e-06 1.79158e-07)
(1.1901e-06 -2.584e-06 1.95277e-07)
(7.3409e-07 -2.51249e-06 2.07015e-07)
(2.1336e-07 -2.47216e-06 2.13319e-07)
(-3.31635e-07 -2.46618e-06 2.1364e-07)
(-8.58387e-07 -2.49387e-06 2.08015e-07)
(-1.3268e-06 -2.55054e-06 1.97081e-07)
(-1.70347e-06 -2.62792e-06 1.8203e-07)
(-1.96494e-06 -2.71511e-06 1.6434e-07)
(-2.09937e-06 -2.7998e-06 1.45602e-07)
(-2.1065e-06 -2.86896e-06 1.27267e-07)
(-1.99652e-06 -2.90949e-06 1.1051e-07)
(-1.78819e-06 -2.90795e-06 9.61664e-08)
(-1.50626e-06 -2.84976e-06 8.46382e-08)
(-1.17927e-06 -2.7177e-06 7.58392e-08)
(-8.37494e-07 -2.48938e-06 6.90788e-08)
(-5.10015e-07 -2.13235e-06 6.24155e-08)
(-2.29508e-07 -1.59114e-06 5.21598e-08)
(-2.7394e-08 -7.46878e-07 2.77405e-08)
(-4.22375e-08 -1.57856e-06 -4.2138e-08)
(-6.22372e-08 -2.93977e-06 -4.37698e-08)
(1.36845e-07 -3.64154e-06 -1.85852e-08)
(4.44237e-07 -3.97428e-06 1.1277e-08)
(8.2656e-07 -4.13714e-06 3.91025e-08)
(1.21033e-06 -4.19309e-06 6.33492e-08)
(1.55432e-06 -4.18488e-06 8.60006e-08)
(1.81836e-06 -4.13086e-06 1.08182e-07)
(1.97434e-06 -4.04486e-06 1.30789e-07)
(2.0014e-06 -3.93787e-06 1.53748e-07)
(1.88875e-06 -3.8212e-06 1.76349e-07)
(1.63666e-06 -3.70669e-06 1.97338e-07)
(1.25765e-06 -3.60619e-06 2.15135e-07)
(7.76416e-07 -3.53037e-06 2.28172e-07)
(2.28212e-07 -3.48732e-06 2.35162e-07)
(-3.44709e-07 -3.48104e-06 2.35452e-07)
(-8.97821e-07 -3.51093e-06 2.29065e-07)
(-1.38901e-06 -3.57166e-06 2.16709e-07)
(-1.78335e-06 -3.65363e-06 1.99762e-07)
(-2.0566e-06 -3.74415e-06 1.7993e-07)
(-2.19686e-06 -3.82876e-06 1.59014e-07)
(-2.20443e-06 -3.89228e-06 1.38623e-07)
(-2.09038e-06 -3.91928e-06 1.20044e-07)
(-1.87426e-06 -3.89384e-06 1.04145e-07)
(-1.58159e-06 -3.79837e-06 9.13373e-08)
(-1.24136e-06 -3.61171e-06 8.1506e-08)
(-8.8433e-07 -3.30546e-06 7.3923e-08)
(-5.40318e-07 -2.83667e-06 6.65572e-08)
(-2.43862e-07 -2.12876e-06 5.55258e-08)
(-2.91565e-08 -1.01141e-06 2.95536e-08)
(-3.28095e-09 -1.59867e-06 -3.17139e-09)
(9.38301e-08 -3.1788e-06 7.88679e-09)
(3.23597e-07 -4.0899e-06 2.42116e-08)
(6.32676e-07 -4.61906e-06 4.16081e-08)
(9.91163e-07 -4.9309e-06 5.94086e-08)
(1.34951e-06 -5.09821e-06 7.74135e-08)
(1.66982e-06 -5.16829e-06 9.66699e-08)
(1.91543e-06 -5.16839e-06 1.17603e-07)
(2.05725e-06 -5.11855e-06 1.40346e-07)
(2.07306e-06 -5.03488e-06 1.64366e-07)
(1.95023e-06 -4.9324e-06 1.88566e-07)
(1.68746e-06 -4.82584e-06 2.11352e-07)
(1.29627e-06 -4.72929e-06 2.30834e-07)
(8.01146e-07 -4.65516e-06 2.45172e-07)
(2.3793e-07 -4.61268e-06 2.52843e-07)
(-3.50047e-07 -4.60646e-06 2.531e-07)
(-9.17074e-07 -4.636e-06 2.45953e-07)
(-1.41981e-06 -4.69564e-06 2.32186e-07)
(-1.82239e-06 -4.77492e-06 2.13373e-07)
(-2.10031e-06 -4.85997e-06 1.91443e-07)
(-2.24196e-06 -4.93501e-06 1.68411e-07)
(-2.24834e-06 -4.98328e-06 1.46066e-07)
(-2.13129e-06 -4.98765e-06 1.25812e-07)
(-1.91096e-06 -4.93013e-06 1.08539e-07)
(-1.61327e-06 -4.79054e-06 9.46612e-08)
(-1.26731e-06 -4.5437e-06 8.40303e-08)
(-9.03847e-07 -4.15478e-06 7.58954e-08)
(-5.52877e-07 -3.56946e-06 6.81587e-08)
(-2.49712e-07 -2.68844e-06 5.68238e-08)
(-2.98429e-08 -1.28704e-06 3.02859e-08)
(1.40079e-08 -1.73998e-06 1.41271e-08)
(1.64152e-07 -3.55448e-06 3.16869e-08)
(4.12828e-07 -4.64829e-06 4.43982e-08)
(7.24043e-07 -5.33407e-06 5.63198e-08)
(1.06871e-06 -5.76923e-06 6.93436e-08)
(1.40937e-06 -6.03357e-06 8.42501e-08)
(1.71189e-06 -6.17802e-06 1.01811e-07)
(1.94301e-06 -6.23507e-06 1.2223e-07)
(2.07431e-06 -6.22856e-06 1.45309e-07)
(2.08338e-06 -6.17762e-06 1.70278e-07)
(1.95676e-06 -6.09961e-06 1.95814e-07)
(1.69206e-06 -6.01093e-06 2.20093e-07)
(1.29989e-06 -5.92685e-06 2.40976e-07)
(8.04194e-07 -5.86063e-06 2.56392e-07)
(2.40722e-07 -5.82214e-06 2.64603e-07)
(-3.47086e-07 -5.81627e-06 2.64828e-07)
(-9.13378e-07 -5.84261e-06 2.57071e-07)
(-1.41458e-06 -5.89546e-06 2.42131e-07)
(-1.81476e-06 -5.96413e-06 2.2176e-07)
(-2.08969e-06 -6.03428e-06 1.98098e-07)
(-2.22829e-06 -6.08951e-06 1.7336e-07)
(-2.23229e-06 -6.1124e-06 1.49472e-07)
(-2.11415e-06 -6.08482e-06 1.27908e-07)
(-1.89432e-06 -5.98725e-06 1.09599e-07)
(-1.5986e-06 -5.79719e-06 9.49482e-08)
(-1.25563e-06 -5.4856e-06 8.37904e-08)
(-8.95582e-07 -5.0111e-06 7.53425e-08)
(-5.47878e-07 -4.30745e-06 6.74927e-08)
(-2.47429e-07 -3.25189e-06 5.62521e-08)
(-2.95487e-08 -1.56458e-06 3.00328e-08)
(2.06422e-08 -1.93898e-06 2.07694e-08)
(1.90514e-07 -3.99365e-06 4.09746e-08)
(4.42632e-07 -5.25476e-06 5.20434e-08)
(7.47009e-07 -6.07399e-06 6.14786e-08)
(1.07523e-06 -6.61585e-06 7.21553e-08)
(1.39655e-06 -6.96747e-06 8.54095e-08)
(1.68041e-06 -7.18343e-06 1.01961e-07)
(1.89666e-06 -7.2997e-06 1.21945e-07)
(2.01846e-06 -7.34249e-06 1.45074e-07)
(2.0241e-06 -7.33261e-06 1.70465e-07)
(1.89987e-06 -7.28832e-06 1.96678e-07)
(1.64267e-06 -7.22647e-06 2.21758e-07)
(1.26219e-06 -7.16261e-06 2.43394e-07)
(7.81288e-07 -7.11008e-06 2.5938e-07)
(2.34769e-07 -7.07871e-06 2.67859e-07)
(-3.3498e-07 -7.07339e-06 2.68052e-07)
(-8.83456e-07 -7.09383e-06 2.59955e-07)
(-1.36809e-06 -7.1345e-06 2.44347e-07)
(-1.75379e-06 -7.18495e-06 2.23102e-07)
(-2.01726e-06 -7.23124e-06 1.98471e-07)
(-2.14831e-06 -7.25715e-06 1.72784e-07)
(-2.14933e-06 -7.24533e-06 1.48081e-07)
(-2.03303e-06 -7.17737e-06 1.25874e-07)
(-1.81964e-06 -7.03291e-06 1.07103e-07)
(-1.5342e-06 -6.78738e-06 9.21407e-08)
(-1.20424e-06 -6.40817e-06 8.08049e-08)
(-8.58515e-07 -5.84739e-06 7.23272e-08)
(-5.24977e-07 -5.02696e-06 6.46381e-08)
(-2.3698e-07 -3.80089e-06 5.38562e-08)
(-2.82898e-08 -1.83503e-06 2.88105e-08)
(2.21737e-08 -2.15313e-06 2.2303e-08)
(1.9116e-07 -4.44253e-06 4.25777e-08)
(4.31738e-07 -5.85826e-06 5.24474e-08)
(7.17029e-07 -6.79542e-06 6.04463e-08)
(1.02029e-06 -7.43214e-06 6.9699e-08)
(1.31543e-06 -7.86357e-06 8.1736e-08)
(1.5754e-06 -8.14834e-06 9.72533e-08)
(1.77331e-06 -8.32495e-06 1.16395e-07)
(1.88459e-06 -8.42106e-06 1.38833e-07)
(1.88885e-06 -8.45809e-06 1.63679e-07)
(1.77282e-06 -8.45423e-06 1.89467e-07)
(1.53298e-06 -8.42594e-06 2.14216e-07)
(1.17794e-06 -8.38818e-06 2.35595e-07)
(7.28922e-07 -8.35365e-06 2.51377e-07)
(2.18634e-07 -8.33169e-06 2.59683e-07)
(-3.13056e-07 -8.32703e-06 2.59842e-07)
(-8.24544e-07 -8.33943e-06 2.51849e-07)
(-1.27578e-06 -8.3638e-06 2.36365e-07)
(-1.63374e-06 -8.3903e-06 2.15264e-07)
(-1.8768e-06 -8.40586e-06 1.90802e-07)
(-1.99585e-06 -8.39515e-06 1.65359e-07)
(-1.99374e-06 -8.34154e-06 1.40949e-07)
(-1.88303e-06 -8.22706e-06 1.19064e-07)
(-1.68308e-06 -8.031e-06 1.00622e-07)
(-1.41736e-06 -7.72732e-06 8.59819e-08)
(-1.1114e-06 -7.28014e-06 7.49519e-08)
(-7.9167e-07 -6.63544e-06 6.67797e-08)
(-4.8379e-07 -5.70376e-06 5.95396e-08)
(-2.18276e-07 -4.31692e-06 4.96129e-08)
(-2.60514e-08 -2.08935e-06 2.6605e-08)
(2.0809e-08 -2.35862e-06 2.09437e-08)
(1.74852e-07 -4.86465e-06 3.95071e-08)
(3.90306e-07 -6.4192e-06 4.80929e-08)
(6.43573e-07 -7.45985e-06 5.49193e-08)
(9.10876e-07 -8.18038e-06 6.29406e-08)
(1.17031e-06 -8.68411e-06 7.36843e-08)
(1.3987e-06 -9.03356e-06 8.77834e-08)
(1.57289e-06 -9.26936e-06 1.05383e-07)
(1.67118e-06 -9.41988e-06 1.26165e-07)
(1.6753e-06 -9.50642e-06 1.49297e-07)
(1.57294e-06 -9.54638e-06 1.73384e-07)
(1.36044e-06 -9.55518e-06 1.96531e-07)
(1.0451e-06 -9.54665e-06 2.16512e-07)
(6.45723e-07 -9.53235e-06 2.31241e-07)
(1.91703e-07 -9.52095e-06 2.3892e-07)
(-2.81139e-07 -9.51701e-06 2.3904e-07)
(-7.3571e-07 -9.52033e-06 2.31586e-07)
(-1.13605e-06 -9.52612e-06 2.17061e-07)
(-1.45244e-06 -9.52542e-06 1.9727e-07)
(-1.66573e-06 -9.5063e-06 1.74304e-07)
(-1.76824e-06 -9.45485e-06 1.50434e-07)
(-1.76316e-06 -9.35581e-06 1.27569e-07)
(-1.66232e-06 -9.19206e-06 1.07119e-07)
(-1.48332e-06 -8.94296e-06 8.99336e-08)
(-1.24728e-06 -8.58152e-06 7.63316e-08)
(-9.76787e-07 -8.06913e-06 6.61385e-08)
(-6.95033e-07 -7.34622e-06 5.86688e-08)
(-4.24364e-07 -6.31304e-06 5.22043e-08)
(-1.9134e-07 -4.7812e-06 4.35228e-08)
(-2.28283e-08 -2.31829e-06 2.34096e-08)
(1.76196e-08 -2.53888e-06 1.77484e-08)
(1.46172e-07 -5.23158e-06 3.32601e-08)
(3.245e-07 -6.90426e-06 4.02661e-08)
(5.33329e-07 -8.03231e-06 4.5855e-08)
(7.53161e-07 -8.82441e-06 5.25332e-08)
(9.66532e-07 -9.3913e-06 6.16368e-08)
(1.15475e-06 -9.79897e-06 7.37206e-08)
(1.29896e-06 -1.00897e-05 8.89096e-08)
(1.38112e-06 -1.02922e-05 1.06922e-07)
(1.38576e-06 -1.0427e-05 1.27027e-07)
(1.30212e-06 -1.05104e-05 1.47998e-07)
(1.12657e-06 -1.05563e-05 1.68179e-07)
(8.64819e-07 -1.05768e-05 1.85556e-07)
(5.32419e-07 -1.05826e-05 1.98323e-07)
(1.54146e-07 -1.05817e-05 2.0491e-07)
(-2.39705e-07 -1.05784e-05 2.04978e-07)
(-6.17951e-07 -1.05727e-05 1.98523e-07)
(-9.50192e-07 -1.05599e-05 1.85869e-07)
(-1.21142e-06 -1.05317e-05 1.68589e-07)
(-1.38581e-06 -1.04777e-05 1.48514e-07)
(-1.46747e-06 -1.03854e-05 1.27663e-07)
(-1.45971e-06 -1.02412e-05 1.07712e-07)
(-1.37301e-06 -1.00292e-05 8.99158e-08)
(-1.22247e-06 -9.72939e-06 7.49861e-08)
(-1.02591e-06 -9.3142e-06 6.32109e-08)
(-8.02021e-07 -8.74279e-06 5.44303e-08)
(-5.69829e-07 -7.95111e-06 4.80677e-08)
(-3.47492e-07 -6.83055e-06 4.26909e-08)
(-1.56535e-07 -5.17534e-06 3.56407e-08)
(-1.86633e-08 -2.51284e-06 1.92706e-08)
(1.31315e-08 -2.68174e-06 1.32617e-08)
(1.07991e-07 -5.52081e-06 2.47106e-08)
(2.39051e-07 -7.2856e-06 2.98257e-08)
(3.92474e-07 -8.48202e-06 3.39829e-08)
(5.54148e-07 -9.33117e-06 3.90867e-08)
(7.11658e-07 -9.9498e-06 4.61665e-08)
(8.51428e-07 -1.04067e-05 5.56346e-08)
(9.59569e-07 -1.07453e-05 6.76238e-08)
(1.02249e-06 -1.09942e-05 8.19402e-08)
(1.02816e-06 -1.11728e-05 9.80205e-08)
(9.67892e-07 -1.12962e-05 1.14882e-07)
(8.38176e-07 -1.13763e-05 1.31192e-07)
(6.42652e-07 -1.14238e-05 1.45286e-07)
(3.92719e-07 -1.14482e-05 1.557e-07)
(1.07285e-07 -1.14568e-05 1.61072e-07)
(-1.90067e-07 -1.14541e-05 1.61083e-07)
(-4.74952e-07 -1.144e-05 1.55735e-07)
(-7.23731e-07 -1.14099e-05 1.45337e-07)
(-9.17387e-07 -1.13562e-05 1.31257e-07)
(-1.04443e-06 -1.12695e-05 1.14987e-07)
(-1.10107e-06 -1.11393e-05 9.821e-08)
(-1.09071e-06 -1.09536e-05 8.22366e-08)
(-1.02196e-06 -1.0698e-05 6.8061e-08)
(-9.06704e-07 -1.03532e-05 5.62421e-08)
(-7.58486e-07 -9.89173e-06 4.69739e-08)
(-5.91295e-07 -9.27106e-06 4.01154e-08)
(-4.19085e-07 -8.42362e-06 3.52358e-08)
(-2.55016e-07 -7.23391e-06 3.12515e-08)
(-1.14673e-07 -5.4824e-06 2.61625e-08)
(-1.36423e-08 -2.66465e-06 1.42689e-08)
(7.70907e-09 -2.77782e-06 7.83036e-09)
(6.26379e-08 -5.71429e-06 1.44424e-08)
(1.38377e-07 -7.54044e-06 1.73738e-08)
(2.27425e-07 -8.78331e-06 1.98941e-08)
(3.22019e-07 -9.67261e-06 2.3156e-08)
(4.15283e-07 -1.03293e-05 2.77989e-08)
(4.99413e-07 -1.0824e-05 3.41166e-08)
(5.66124e-07 -1.12007e-05 4.22134e-08)
(6.06938e-07 -1.14875e-05 5.19752e-08)
(6.13873e-07 -1.17031e-05 6.30749e-08)
(5.80688e-07 -1.18607e-05 7.48649e-08)
(5.04059e-07 -1.19708e-05 8.64626e-08)
(3.85282e-07 -1.20422e-05 9.66663e-08)
(2.30839e-07 -1.20833e-05 1.04368e-07)
(5.25899e-08 -1.21005e-05 1.08402e-07)
(-1.33575e-07 -1.20983e-05 1.08347e-07)
(-3.10807e-07 -1.20764e-05 1.0422e-07)
(-4.63243e-07 -1.20305e-05 9.64402e-08)
(-5.78993e-07 -1.1954e-05 8.61956e-08)
(-6.51632e-07 -1.18387e-05 7.45877e-08)
(-6.79924e-07 -1.16757e-05 6.28275e-08)
(-6.67224e-07 -1.14549e-05 5.18074e-08)
(-6.19754e-07 -1.11633e-05 4.21636e-08)
(-5.45538e-07 -1.07825e-05 3.42144e-08)
(-4.53117e-07 -1.02852e-05 2.80628e-08)
(-3.50977e-07 -9.62792e-06 2.35944e-08)
(-2.47329e-07 -8.74078e-06 2.05114e-08)
(-1.49727e-07 -7.50371e-06 1.81657e-08)
(-6.70006e-08 -5.68769e-06 1.53412e-08)
(-7.90378e-09 -2.76642e-06 8.54656e-09)
(1.65709e-09 -2.82036e-06 1.76856e-09)
(1.23474e-08 -5.7988e-06 3.01613e-09)
(2.71067e-08 -7.65179e-06 3.55863e-09)
(4.54162e-08 -8.91661e-06 4.2706e-09)
(6.64913e-08 -9.82707e-06 5.4905e-09)
(8.9373e-08 -1.0506e-05 7.41738e-09)
(1.12511e-07 -1.10249e-05 1.01746e-08)
(1.33664e-07 -1.14278e-05 1.38514e-08)
(1.49913e-07 -1.17423e-05 1.84807e-08)
(1.57876e-07 -1.1986e-05 2.40201e-08)
(1.54144e-07 -1.21709e-05 3.02322e-08)
(1.358e-07 -1.23059e-05 3.6711e-08)
(1.01472e-07 -1.23981e-05 4.27545e-08)
(5.21699e-08 -1.24543e-05 4.76209e-08)
(-8.03017e-09 -1.24795e-05 5.03203e-08)
(-7.17878e-08 -1.24774e-05 5.02135e-08)
(-1.30572e-07 -1.24481e-05 4.73371e-08)
(-1.77141e-07 -1.23878e-05 4.22999e-08)
(-2.0752e-07 -1.22912e-05 3.61501e-08)
(-2.20902e-07 -1.21521e-05 2.96281e-08)
(-2.18756e-07 -1.1963e-05 2.34378e-08)
(-2.04195e-07 -1.17154e-05 1.79646e-08)
(-1.80745e-07 -1.13976e-05 1.34344e-08)
(-1.51911e-07 -1.09921e-05 9.88812e-09)
(-1.20738e-07 -1.04718e-05 7.28191e-09)
(-8.97057e-08 -9.79315e-06 5.51926e-09)
(-6.07413e-08 -8.88504e-06 4.47675e-09)
(-3.53807e-08 -7.62517e-06 3.94557e-09)
(-1.52131e-08 -5.77999e-06 3.57375e-09)
(-1.65671e-09 -2.81259e-06 2.31106e-09)
(-4.74302e-09 -2.8051e-06 -4.64489e-09)
(-4.0559e-08 -5.76599e-06 -9.04967e-09)
(-8.97489e-08 -7.60895e-06 -1.10275e-08)
(-1.45552e-07 -8.86944e-06 -1.22308e-08)
(-2.01516e-07 -9.78049e-06 -1.32176e-08)
(-2.525e-07 -1.04644e-05 -1.42653e-08)
(-2.93653e-07 -1.0992e-05 -1.54225e-08)
(-3.20937e-07 -1.1407e-05 -1.66391e-08)
(-3.31352e-07 -1.17364e-05 -1.77748e-08)
(-3.23379e-07 -1.19971e-05 -1.86286e-08)
(-2.97263e-07 -1.22002e-05 -1.89897e-08)
(-2.55167e-07 -1.23532e-05 -1.86879e-08)
(-2.00809e-07 -1.24617e-05 -1.78097e-08)
(-1.38701e-07 -1.25303e-05 -1.663e-08)
(-7.30159e-08 -1.25624e-05 -1.57533e-08)
(-5.97291e-09 -1.25605e-05 -1.59106e-08)
(6.14178e-08 -1.25245e-05 -1.70385e-08)
(1.26811e-07 -1.24521e-05 -1.84496e-08)
(1.85851e-07 -1.23399e-05 -1.94659e-08)
(2.33698e-07 -1.21834e-05 -1.98446e-08)
(2.66408e-07 -1.1977e-05 -1.94788e-08)
(2.81531e-07 -1.17134e-05 -1.85729e-08)
(2.78655e-07 -1.13817e-05 -1.73326e-08)
(2.59122e-07 -1.09651e-05 -1.59851e-08)
(2.25743e-07 -1.0437e-05 -1.4684e-08)
(1.82326e-07 -9.754e-06 -1.34755e-08)
(1.33384e-07 -8.84534e-06 -1.23085e-08)
(8.35614e-08 -7.58904e-06 -1.09063e-08)
(3.86877e-08 -5.75228e-06 -8.70951e-09)
(4.86707e-09 -2.79964e-06 -4.20547e-09)
(-1.11865e-08 -2.73042e-06 -1.10945e-08)
(-9.36208e-08 -5.61285e-06 -2.11758e-08)
(-2.068e-07 -7.408e-06 -2.568e-08)
(-3.36707e-07 -8.6373e-06 -2.88156e-08)
(-4.69785e-07 -9.52753e-06 -3.20501e-08)
(-5.94852e-07 -1.01978e-05 -3.61465e-08)
(-7.00793e-07 -1.07171e-05 -4.13823e-08)
(-7.77371e-07 -1.1128e-05 -4.77517e-08)
(-8.15675e-07 -1.14568e-05 -5.50389e-08)
(-8.09164e-07 -1.17201e-05 -6.28117e-08)
(-7.54548e-07 -1.19284e-05 -7.04547e-08)
(-6.52786e-07 -1.20882e-05 -7.72573e-08)
(-5.09506e-07 -1.22042e-05 -8.25938e-08)
(-3.34309e-07 -1.22793e-05 -8.60708e-08)
(-1.39755e-07 -1.23153e-05 -8.76386e-08)
(6.15991e-08 -1.23135e-05 -8.78118e-08)
(2.58075e-07 -1.22737e-05 -8.65364e-08)
(4.36926e-07 -1.21949e-05 -8.33244e-08)
(5.85369e-07 -1.20755e-05 -7.81644e-08)
(6.9338e-07 -1.19126e-05 -7.14642e-08)
(7.55054e-07 -1.17017e-05 -6.38175e-08)
(7.69095e-07 -1.14363e-05 -5.59997e-08)
(7.38536e-07 -1.1106e-05 -4.86105e-08)
(6.69712e-07 -1.06944e-05 -4.21174e-08)
(5.71323e-07 -1.01751e-05 -3.67468e-08)
(4.53376e-07 -9.50608e-06 -3.24897e-08)
(3.26675e-07 -8.6182e-06 -2.9073e-08)
(2.01993e-07 -7.39257e-06 -2.57132e-08)
(9.23877e-08 -5.60244e-06 -2.09664e-08)
(1.13824e-08 -2.7264e-06 -1.07185e-08)
(-1.73527e-08 -2.5976e-06 -1.72796e-08)
(-1.44277e-07 -5.34215e-06 -3.27967e-08)
(-3.18433e-07 -7.05268e-06 -3.97168e-08)
(-5.18942e-07 -8.22446e-06 -4.47041e-08)
(-7.25488e-07 -9.07274e-06 -5.00936e-08)
(-9.21297e-07 -9.71077e-06 -5.71441e-08)
(-1.08932e-06 -1.02043e-05 -6.63173e-08)
(-1.21347e-06 -1.05941e-05 -7.77214e-08)
(-1.27924e-06 -1.09053e-05 -9.11147e-08)
(-1.27519e-06 -1.11542e-05 -1.05873e-07)
(-1.19451e-06 -1.13513e-05 -1.21066e-07)
(-1.03669e-06 -1.1503e-05 -1.35418e-07)
(-8.08647e-07 -1.16138e-05 -1.47564e-07)
(-5.24528e-07 -1.16862e-05 -1.56314e-07)
(-2.04743e-07 -1.17212e-05 -1.60757e-07)
(1.27633e-07 -1.17193e-05 -1.60931e-07)
(4.49455e-07 -1.16805e-05 -1.56799e-07)
(7.37414e-07 -1.16046e-05 -1.48324e-07)
(9.7087e-07 -1.14907e-05 -1.36365e-07)
(1.13526e-06 -1.13361e-05 -1.2212e-07)
(1.22325e-06 -1.1137e-05 -1.0695e-07)
(1.23502e-06 -1.08865e-05 -9.21503e-08)
(1.17707e-06 -1.05743e-05 -7.86774e-08)
(1.06063e-06 -1.01844e-05 -6.71505e-08)
(8.99963e-07 -9.69132e-06 -5.78419e-08)
(7.10938e-07 -9.05473e-06 -5.06452e-08)
(5.10311e-07 -8.20873e-06 -4.50673e-08)
(3.14518e-07 -7.04022e-06 -3.98514e-08)
(1.43454e-07 -5.33388e-06 -3.26653e-08)
(1.75979e-08 -2.59446e-06 -1.69374e-08)
(-2.29636e-08 -2.41064e-06 -2.28992e-08)
(-1.9009e-07 -4.96218e-06 -4.33361e-08)
(-4.19189e-07 -6.55413e-06 -5.24238e-08)
(-6.83278e-07 -7.64415e-06 -5.9064e-08)
(-9.55993e-07 -8.43119e-06 -6.63494e-08)
(-1.21552e-06 -9.01993e-06 -7.5962e-08)
(-1.43949e-06 -9.47159e-06 -8.85563e-08)
(-1.60654e-06 -9.82415e-06 -1.04335e-07)
(-1.69713e-06 -1.01017e-05 -1.2303e-07)
(-1.69549e-06 -1.03202e-05 -1.43882e-07)
(-1.59158e-06 -1.04901e-05 -1.65646e-07)
(-1.38345e-06 -1.06189e-05 -1.86592e-07)
(-1.07906e-06 -1.07114e-05 -2.0472e-07)
(-6.96578e-07 -1.07711e-05 -2.18126e-07)
(-2.63393e-07 -1.07997e-05 -2.25153e-07)
(1.87716e-07 -1.07978e-05 -2.25319e-07)
(6.22943e-07 -1.07654e-05 -2.18594e-07)
(1.00934e-06 -1.07023e-05 -2.05446e-07)
(1.3192e-06 -1.06067e-05 -1.87508e-07)
(1.53395e-06 -1.04755e-05 -1.66668e-07)
(1.64524e-06 -1.03038e-05 -1.44941e-07)
(1.65464e-06 -1.00841e-05 -1.24059e-07)
(1.57185e-06 -9.80606e-06 -1.05298e-07)
(1.41242e-06 -9.45367e-06 -8.94134e-08)
(1.19563e-06 -9.00282e-06 -7.66922e-08)
(9.4264e-07 -8.4156e-06 -6.69348e-08)
(6.7554e-07 -7.6308e-06 -5.94692e-08)
(4.15824e-07 -6.54371e-06 -5.26037e-08)
(1.89498e-07 -4.95535e-06 -4.32408e-08)
(2.32278e-08 -2.40807e-06 -2.25773e-08)
(-2.77266e-08 -2.1762e-06 -2.76788e-08)
(-2.28826e-07 -4.48667e-06 -5.23049e-08)
(-5.04234e-07 -5.9306e-06 -6.32139e-08)
(-8.21878e-07 -6.9181e-06 -7.11879e-08)
(-1.15029e-06 -7.62759e-06 -7.99619e-08)
(-1.46337e-06 -8.15311e-06 -9.1574e-08)
(-1.73424e-06 -8.55001e-06 -1.06836e-07)
(-1.93705e-06 -8.85303e-06 -1.25991e-07)
(-2.04812e-06 -9.08484e-06 -1.48727e-07)
(-2.04799e-06 -9.26087e-06 -1.74185e-07)
(-1.92408e-06 -9.3921e-06 -2.00883e-07)
(-1.67342e-06 -9.487e-06 -2.26774e-07)
(-1.30491e-06 -9.55204e-06 -2.49363e-07)
(-8.4007e-07 -9.59217e-06 -2.66229e-07)
(-3.12087e-07 -9.61063e-06 -2.75183e-07)
(2.38286e-07 -9.60876e-06 -2.75329e-07)
(7.68265e-07 -9.58671e-06 -2.66652e-07)
(1.23693e-06 -9.54327e-06 -2.50027e-07)
(1.61082e-06 -9.47538e-06 -2.27607e-07)
(1.86803e-06 -9.37827e-06 -2.01821e-07)
(1.99923e-06 -9.24548e-06 -1.75173e-07)
(2.00701e-06 -9.06857e-06 -1.49701e-07)
(1.90364e-06 -8.83649e-06 -1.26905e-07)
(1.70831e-06 -8.53386e-06 -1.07671e-07)
(1.44445e-06 -8.13793e-06 -9.22962e-08)
(1.1377e-06 -7.61398e-06 -8.05427e-08)
(8.14677e-07 -6.90658e-06 -7.16004e-08)
(5.01172e-07 -5.92172e-06 -6.34056e-08)
(2.2835e-07 -4.48091e-06 -5.2219e-08)
(2.79975e-08 -2.17405e-06 -2.73636e-08)
(-3.14265e-08 -1.90328e-06 -3.13886e-08)
(-2.58657e-07 -3.93389e-06 -5.92692e-08)
(-5.6957e-07 -5.20631e-06 -7.15561e-08)
(-9.28321e-07 -6.07501e-06 -8.04887e-08)
(-1.29958e-06 -6.69459e-06 -9.02794e-08)
(-1.65388e-06 -7.14697e-06 -1.03215e-07)
(-1.96067e-06 -7.48077e-06 -1.20191e-07)
(-2.19059e-06 -7.72706e-06 -1.41476e-07)
(-2.31668e-06 -7.90666e-06 -1.66706e-07)
(-2.3168e-06 -8.03431e-06 -1.94928e-07)
(-2.17669e-06 -8.12159e-06 -2.24516e-07)
(-1.89283e-06 -8.17803e-06 -2.5321e-07)
(-1.47511e-06 -8.21176e-06 -2.78279e-07)
(-9.4776e-07 -8.22965e-06 -2.97032e-07)
(-3.48269e-07 -8.23654e-06 -3.07043e-07)
(2.76802e-07 -8.23479e-06 -3.07165e-07)
(8.78208e-07 -8.22456e-06 -2.97391e-07)
(1.40926e-06 -8.2036e-06 -2.78847e-07)
(1.83215e-06 -8.16722e-06 -2.53937e-07)
(2.12234e-06 -8.1088e-06 -2.25345e-07)
(2.26951e-06 -8.02016e-06 -1.95806e-07)
(2.27683e-06 -7.8918e-06 -1.67589e-07)
(2.15826e-06 -7.71217e-06 -1.42317e-07)
(1.93562e-06 -7.46635e-06 -1.20967e-07)
(1.63565e-06 -7.13358e-06 -1.03898e-07)
(1.2875e-06 -6.68274e-06 -9.08418e-08)
(9.21437e-07 -6.06513e-06 -8.08895e-08)
(5.66657e-07 -5.19878e-06 -7.17424e-08)
(2.58211e-07 -3.92905e-06 -5.91838e-08)
(3.16873e-08 -1.90149e-06 -3.10802e-08)
(-3.38657e-08 -1.60262e-06 -3.38386e-08)
(-2.78034e-07 -3.32571e-06 -6.38667e-08)
(-6.12044e-07 -4.41004e-06 -7.7036e-08)
(-9.97895e-07 -5.14878e-06 -8.6512e-08)
(-1.39777e-06 -5.67062e-06 -9.68155e-08)
(-1.7798e-06 -6.04435e-06 -1.10392e-07)
(-2.11077e-06 -6.31146e-06 -1.28161e-07)
(-2.35869e-06 -6.49903e-06 -1.50374e-07)
(-2.4943e-06 -6.62575e-06 -1.76636e-07)
(-2.49384e-06 -6.70568e-06 -2.0591e-07)
(-2.34209e-06 -6.75039e-06 -2.36485e-07)
(-2.03552e-06 -6.77023e-06 -2.66048e-07)
(-1.58503e-06 -6.77466e-06 -2.91831e-07)
(-1.01677e-06 -6.77187e-06 -3.11074e-07)
(-3.70956e-07 -6.76808e-06 -3.21354e-07)
(3.02359e-07 -6.76651e-06 -3.2146e-07)
(9.49966e-07 -6.76725e-06 -3.11387e-07)
(1.52171e-06 -6.7673e-06 -2.92318e-07)
(1.9771e-06 -6.76057e-06 -2.66675e-07)
(2.28969e-06 -6.73899e-06 -2.3721e-07)
(2.4482e-06 -6.69312e-06 -2.06685e-07)
(2.45583e-06 -6.61265e-06 -1.77421e-07)
(2.32745e-06 -6.48595e-06 -1.51138e-07)
(2.08655e-06 -6.29891e-06 -1.28872e-07)
(1.76218e-06 -6.03279e-06 -1.11024e-07)
(1.38607e-06 -5.66049e-06 -9.73407e-08)
(9.91219e-07 -5.14044e-06 -8.68799e-08)
(6.09218e-07 -4.40378e-06 -7.72049e-08)
(2.77588e-07 -3.32175e-06 -6.37801e-08)
(3.41108e-08 -1.60118e-06 -3.35388e-08)
(-3.48547e-08 -1.28654e-06 -3.48368e-08)
(-2.8565e-07 -2.68699e-06 -6.5731e-08)
(-6.29163e-07 -3.57422e-06 -7.91859e-08)
(-1.02714e-06 -4.17709e-06 -8.87405e-08)
(-1.44082e-06 -4.59757e-06 -9.90505e-08)
(-1.83692e-06 -4.89117e-06 -1.12611e-07)
(-2.18046e-06 -5.09223e-06 -1.30351e-07)
(-2.43774e-06 -5.22364e-06 -1.52488e-07)
(-2.57815e-06 -5.30182e-06 -1.78565e-07)
(-2.57706e-06 -5.33964e-06 -2.07495e-07)
(-2.41907e-06 -5.34826e-06 -2.37567e-07)
(-2.10105e-06 -5.33813e-06 -2.66503e-07)
(-1.63468e-06 -5.31922e-06 -2.91628e-07)
(-1.04724e-06 -5.30038e-06 -3.1031e-07)
(-3.80197e-07 -5.28845e-06 -3.20289e-07)
(3.15026e-07 -5.28711e-06 -3.20377e-07)
(9.83743e-07 -5.29644e-06 -3.10573e-07)
(1.57443e-06 -5.31293e-06 -2.92042e-07)
(2.04539e-06 -5.32986e-06 -2.6704e-07)
(2.36906e-06 -5.33851e-06 -2.38192e-07)
(2.53342e-06 -5.32894e-06 -2.08172e-07)
(2.54129e-06 -5.29069e-06 -1.79261e-07)
(2.40777e-06 -5.21257e-06 -1.53172e-07)
(2.15721e-06 -5.08168e-06 -1.30994e-07)
(1.81998e-06 -4.88155e-06 -1.13187e-07)
(1.42956e-06 -4.58921e-06 -9.95375e-08)
(1.02068e-06 -4.17029e-06 -8.90861e-08)
(6.26392e-07 -3.5692e-06 -7.93426e-08)
(2.85177e-07 -2.68392e-06 -6.56464e-08)
(3.50764e-08 -1.28549e-06 -3.4553e-08)
(-3.4149e-08 -9.68984e-07 -3.41378e-08)
(-2.80039e-07 -2.04526e-06 -6.43732e-08)
(-6.18533e-07 -2.73413e-06 -7.73766e-08)
(-1.01319e-06 -3.20039e-06 -8.64343e-08)
(-1.4259e-06 -3.51992e-06 -9.61833e-08)
(-1.82279e-06 -3.73546e-06 -1.09094e-07)
(-2.168e-06 -3.87441e-06 -1.26086e-07)
(-2.42687e-06 -3.95553e-06 -1.47321e-07)
(-2.56832e-06 -3.99272e-06 -1.723e-07)
(-2.56759e-06 -3.99722e-06 -1.99913e-07)
(-2.40961e-06 -3.97914e-06 -2.28481e-07)
(-2.09178e-06 -3.94829e-06 -2.55833e-07)
(-1.62636e-06 -3.91419e-06 -2.79479e-07)
(-1.04087e-06 -3.88541e-06 -2.96987e-07)
(-3.76592e-07 -3.86867e-06 -3.06323e-07)