/*--------------------------------*- C++ -*----------------------------------*\
| =========                 |                                                 |
| \\      /  F ield         | OpenFOAM: The Open Source CFD Toolbox           |
|  \\    /   O peration     | Version:  v1906                                 |
|   \\  /    A nd           | Web:      www.OpenFOAM.com                      |
|    \\/     M anipulation  |                                                 |
\*---------------------------------------------------------------------------*/
FoamFile
{
    version     2.0;
    format      ascii;
    class       surfaceScalarField;
    location    "53.4/oil";
    object      phi;
}
// * * * * * * * * * * * * * * * * * * * * * * * * * * * * * * * * * * * * * //

dimensions      [1 0 -1 0 0 0 0];
oriented        oriented;


internalField   nonuniform List<scalar> 
80688
(
-2.24086e-06
-2.27932e-06
-2.24085e-06
-1.01154e-06
-6.35881e-07
-5.93436e-07
-2.73716e-07
-3.71623e-07
-3.662e-07
-1.32455e-07
-7.12938e-08
-6.9967e-08
-4.98756e-08
-4.18946e-08
-4.0685e-08
-9.8499e-09
-2.05693e-08
-1.94565e-08
1.16143e-08
-1.1209e-08
-1.02553e-08
2.33213e-08
-6.28933e-09
-5.41768e-09
2.90978e-08
-3.35551e-09
-2.4211e-09
3.06161e-08
-1.3349e-09
-1.83375e-10
2.8752e-08
2.11821e-10
1.65223e-09
2.40773e-08
1.46078e-09
3.21385e-09
1.71749e-08
2.42144e-09
4.48097e-09
8.69403e-09
3.09148e-09
5.38932e-09
-6.32492e-10
3.44927e-09
5.87722e-09
-1.00283e-08
3.48321e-09
5.91262e-09
-1.87326e-08
3.20106e-09
5.50315e-09
-2.60654e-08
2.63325e-09
4.69952e-09
-3.14909e-08
1.83227e-09
3.59325e-09
-3.46554e-08
8.60871e-10
2.3036e-09
-3.54208e-08
-2.03972e-10
9.69335e-10
-3.38716e-08
-1.26916e-09
-2.80053e-10
-3.02673e-08
-2.27792e-09
-1.32637e-09
-2.50723e-08
-3.15974e-09
-2.0353e-09
-1.88998e-08
-3.83668e-09
-2.33587e-09
-1.24896e-08
-4.21414e-09
-2.19607e-09
-6.67068e-09
-4.16111e-09
-1.65783e-09
-2.28684e-09
-3.50395e-09
-8.79924e-10
-2.84931e-11
-2.05022e-09
-2.08151e-10
-6.35567e-11
3.50451e-11
-6.02915e-07
-1.07349e-06
-6.02912e-07
-3.59458e-07
-3.95979e-07
-4.83359e-07
-2.53841e-07
-2.70514e-07
-2.06726e-07
-1.18851e-07
-1.23453e-07
-8.28305e-08
-4.04997e-08
-7.87191e-08
-4.15264e-08
6.4756e-09
-5.12169e-08
-1.63278e-08
3.58441e-08
-3.75759e-08
-3.00167e-09
5.35142e-08
-2.92385e-08
5.27903e-09
6.24833e-08
-2.35428e-08
1.12181e-08
6.42254e-08
-1.91236e-08
1.60465e-08
5.96725e-08
-1.54564e-08
2.02212e-08
4.96996e-08
-1.23899e-08
2.38235e-08
3.53241e-08
-9.94576e-09
2.67426e-08
1.77992e-08
-8.21425e-09
2.88306e-08
-1.42269e-09
-7.27927e-09
2.99504e-08
-2.07823e-08
-7.18623e-09
3.00291e-08
-3.87456e-08
-7.9171e-09
2.90814e-08
-5.3943e-08
-9.38435e-09
2.72149e-08
-6.52923e-08
-1.14392e-08
2.46208e-08
-7.20884e-08
-1.38853e-08
2.15423e-08
-7.40538e-08
-1.6502e-08
1.82634e-08
-7.13317e-08
-1.90534e-08
1.50621e-08
-6.44831e-08
-2.13081e-08
1.21816e-08
-5.44197e-08
-2.30332e-08
9.81001e-09
-4.23421e-08
-2.39758e-08
8.06151e-09
-2.96547e-08
-2.38374e-08
6.93578e-09
-1.78511e-08
-2.22438e-08
6.27913e-09
-8.34645e-09
-1.8735e-08
5.72634e-09
-2.22357e-09
-1.27997e-08
4.62652e-09
-4.51888e-09
2.23173e-09
-3.74538e-07
-3.24422e-07
-3.74534e-07
-2.47425e-07
-3.12752e-07
-2.1034e-07
-1.60115e-07
-2.29648e-07
-1.28176e-07
-7.32997e-08
-1.49268e-07
-6.10013e-08
-1.33231e-08
-1.13151e-07
-2.55448e-08
2.91314e-08
-9.00667e-08
-3.60473e-09
5.8256e-08
-7.64997e-08
9.79917e-09
7.67785e-08
-6.6952e-08
1.9191e-08
8.60975e-08
-5.94707e-08
2.66088e-08
8.69984e-08
-5.30339e-08
3.30093e-08
8.01645e-08
-4.73233e-08
3.87007e-08
6.6462e-08
-4.23517e-08
4.36643e-08
4.71099e-08
-3.82978e-08
4.77041e-08
2.36829e-08
-3.5385e-08
5.05977e-08
-1.94136e-09
-3.38019e-08
5.21469e-08
-2.7734e-08
-3.36446e-08
5.22509e-08
-5.16916e-08
-3.48861e-08
5.09265e-08
-7.20204e-08
-3.73702e-08
4.83146e-08
-8.73099e-08
-4.08204e-08
4.46706e-08
-9.6637e-08
-4.48765e-08
4.03183e-08
-9.9646e-08
-4.91227e-08
3.56296e-08
-9.6532e-08
-5.31197e-08
3.09523e-08
-8.8018e-08
-5.64252e-08
2.66031e-08
-7.52635e-08
-5.8588e-08
2.28003e-08
-5.97703e-08
-5.91269e-08
1.96579e-08
-4.32561e-08
-5.74909e-08
1.71393e-08
-2.74897e-08
-5.30209e-08
1.50107e-08
-1.41096e-08
-4.48983e-08
1.27832e-08
-4.46656e-09
-3.20835e-08
9.64078e-09
-1.34606e-08
4.47517e-09
-7.02156e-08
-1.83995e-07
-7.02111e-08
-9.01369e-08
-2.12523e-07
-8.0308e-08
-6.44212e-08
-1.96585e-07
-5.8778e-08
-2.00189e-08
-1.66915e-07
-2.67555e-08
2.05674e-08
-1.48885e-07
-4.85234e-09
5.43939e-08
-1.34929e-07
1.10357e-08
7.99593e-08
-1.24661e-07
2.25959e-08
9.69762e-08
-1.15841e-07
3.18716e-08
1.05244e-07
-1.07686e-07
3.99479e-08
1.04739e-07
-9.98561e-08
4.73272e-08
9.57609e-08
-9.24285e-08
5.40829e-08
7.90608e-08
-8.57073e-08
6.00557e-08
5.59155e-08
-8.01037e-08
6.49512e-08
2.80931e-08
-7.60304e-08
6.84679e-08
-2.25479e-09
-7.38041e-08
7.035e-08
-3.27741e-08
-7.35907e-08
7.04654e-08
-6.11329e-08
-7.53582e-08
6.88309e-08
-8.5246e-08
-7.88742e-08
6.56171e-08
-1.03468e-07
-8.37253e-08
6.11274e-08
-1.14741e-07
-8.93586e-08
5.57545e-08
-1.18652e-07
-9.51411e-08
4.99295e-08
-1.15439e-07
-1.00402e-07
4.40698e-08
-1.05924e-07
-1.04468e-07
3.85268e-08
-9.1417e-08
-1.06639e-07
3.35441e-08
-7.35853e-08
-1.06192e-07
2.9233e-08
-5.43024e-08
-1.02304e-07
2.553e-08
-3.54865e-08
-9.39902e-08
2.21534e-08
-1.89331e-08
-7.99874e-08
1.85357e-08
-6.32029e-09
-5.84353e-08
1.37389e-08
-2.6111e-08
6.33003e-09
-3.40319e-08
-1.15937e-07
-3.40262e-08
-3.63132e-08
-1.76023e-07
-3.42189e-08
-1.63832e-08
-1.95564e-07
-2.09508e-08
1.50925e-08
-1.95211e-07
-3.17909e-09
4.71097e-08
-1.92197e-07
1.12946e-08
7.58684e-08
-1.86941e-07
2.32532e-08
9.87284e-08
-1.80821e-07
3.32996e-08
1.1419e-07
-1.73631e-07
4.2329e-08
1.21229e-07
-1.65559e-07
5.08338e-08
1.19306e-07
-1.56908e-07
5.89749e-08
1.08426e-07
-1.48175e-07
6.66256e-08
8.92339e-08
-1.39994e-07
7.34791e-08
6.30218e-08
-1.33039e-07
7.91469e-08
3.16872e-08
-1.27925e-07
8.32293e-08
-2.40889e-09
-1.25122e-07
8.5414e-08
-3.66647e-08
-1.24868e-07
8.55328e-08
-6.84905e-08
-1.27131e-07
8.35981e-08
-9.55734e-08
-1.31602e-07
7.9811e-08
-1.16097e-07
-1.37729e-07
7.45267e-08
-1.289e-07
-1.44761e-07
6.82059e-08
-1.33542e-07
-1.51849e-07
6.13507e-08
-1.30292e-07
-1.58086e-07
5.44332e-08
-1.20051e-07
-1.62547e-07
4.78386e-08
-1.04229e-07
-1.64303e-07
4.18419e-08
-8.45971e-08
-1.62377e-07
3.65531e-08
-6.31321e-08
-1.55661e-07
3.18924e-08
-4.18542e-08
-1.42812e-07
2.7544e-08
-2.27207e-08
-1.21997e-07
2.28758e-08
-7.73579e-09
-9.0265e-08
1.68448e-08
-4.15939e-08
7.74716e-09
-9.80338e-09
-9.63371e-08
-9.79645e-09
-3.79005e-09
-1.75392e-07
-6.64408e-09
1.41486e-08
-2.15497e-07
1.99434e-09
4.00278e-08
-2.34009e-07
1.29189e-08
6.76336e-08
-2.42947e-07
2.31443e-08
9.3374e-08
-2.45367e-07
3.26854e-08
1.14371e-07
-2.43569e-07
4.17504e-08
1.28589e-07
-2.38531e-07
5.06819e-08
1.34555e-07
-2.3115e-07
5.96244e-08
1.31399e-07
-2.22255e-07
6.85036e-08
1.1892e-07
-2.12727e-07
7.70303e-08
9.76655e-08
-2.03506e-07
8.47669e-08
6.89304e-08
-1.95518e-07
9.12142e-08
3.47188e-08
-1.89588e-07
9.5874e-08
-2.44109e-09
-1.86325e-07
9.83631e-08
-3.97384e-08
-1.86048e-07
9.84774e-08
-7.43711e-08
-1.88726e-07
9.62279e-08
-1.03834e-07
-1.93982e-07
9.1842e-08
-1.26174e-07
-2.01125e-07
8.57367e-08
-1.40159e-07
-2.09229e-07
7.84528e-08
-1.45337e-07
-2.1724e-07
7.0568e-08
-1.42013e-07
-2.2402e-07
6.26093e-08
-1.31159e-07
-2.28432e-07
5.50305e-08
-1.14263e-07
-2.29314e-07
4.81149e-08
-9.31775e-08
-2.25443e-07
4.19813e-08
-6.9955e-08
-2.15422e-07
3.65378e-08
-4.67134e-08
-1.97497e-07
3.14427e-08
-2.55534e-08
-1.69167e-07
2.60098e-08
-8.76453e-09
-1.26148e-07
1.90939e-08
-5.91361e-08
8.77764e-09
6.25517e-10
-9.7596e-08
6.3334e-10
1.1939e-08
-1.93846e-07
7.14053e-09
3.12534e-08
-2.49512e-07
1.47002e-08
5.59404e-08
-2.81642e-07
2.29452e-08
8.20193e-08
-3.00183e-07
3.11578e-08
1.06437e-07
-3.09277e-07
3.94927e-08
1.26461e-07
-3.11716e-07
4.81236e-08
1.39912e-07
-3.09172e-07
5.71909e-08
1.45129e-07
-3.03031e-07
6.66645e-08
1.41047e-07
-2.94497e-07
7.63242e-08
1.27331e-07
-2.8477e-07
8.57589e-08
1.04455e-07
-2.75043e-07
9.44131e-08
7.37259e-08
-2.66457e-07
1.01668e-07
3.7219e-08
-2.60015e-07
1.06934e-07
-2.38729e-09
-2.56464e-07
1.09745e-07
-4.21062e-08
-2.56179e-07
1.09851e-07
-7.89544e-08
-2.59139e-07
1.07261e-07
-1.10266e-07
-2.6491e-07
1.0224e-07
-1.33982e-07
-2.72688e-07
9.5278e-08
-1.48815e-07
-2.8139e-07
8.69937e-08
-1.54322e-07
-2.89784e-07
7.80521e-08
-1.50856e-07
-2.96554e-07
6.90676e-08
-1.39458e-07
-3.00362e-07
6.05323e-08
-1.21683e-07
-2.99849e-07
5.27612e-08
-9.94544e-08
-2.93555e-07
4.5883e-08
-7.48856e-08
-2.79782e-07
3.97921e-08
-5.01719e-08
-2.56332e-07
3.41214e-08
-2.75347e-08
-2.19947e-07
2.81432e-08
-9.46831e-09
-1.64841e-07
2.06272e-08
-7.80875e-08
9.48301e-09
5.50859e-09
-1.08622e-07
5.51741e-09
2.02313e-08
-2.22848e-07
1.42785e-08
4.10876e-08
-2.92113e-07
2.17444e-08
6.58193e-08
-3.35321e-07
2.89475e-08
9.1456e-08
-3.62082e-07
3.62622e-08
1.15316e-07
-3.77215e-07
4.40786e-08
1.34842e-07
-3.83871e-07
5.26286e-08
1.47861e-07
-3.84186e-07
6.19944e-08
1.52609e-07
-3.79841e-07
7.20608e-08
1.47931e-07
-3.72331e-07
8.25121e-08
1.33383e-07
-3.63072e-07
9.28497e-08
1.09386e-07
-3.53469e-07
1.02423e-07
7.72395e-08
-3.44811e-07
1.10501e-07
3.90897e-08
-3.38244e-07
1.16379e-07
-2.2788e-09
-3.34603e-07
1.19508e-07
-4.37362e-08
-3.34327e-07
1.19605e-07
-8.21543e-08
-3.37395e-07
1.16674e-07
-1.14741e-07
-3.43333e-07
1.1101e-07
-1.39358e-07
-3.51245e-07
1.03174e-07
-1.54691e-07
-3.59952e-07
9.38949e-08
-1.60324e-07
-3.68078e-07
8.39277e-08
-1.56668e-07
-3.74168e-07
7.39581e-08
-1.4482e-07
-3.76732e-07
6.45219e-08
-1.26403e-07
-3.74239e-07
5.59722e-08
-1.03389e-07
-3.65017e-07
4.84482e-08
-7.79349e-08
-3.47072e-07
4.18356e-08
-5.22806e-08
-3.17727e-07
3.57412e-08
-2.87245e-08
-2.72904e-07
2.94007e-08
-9.88563e-09
-2.05204e-07
2.15238e-08
-9.78746e-08
9.9015e-09
7.75862e-09
-1.24148e-07
7.76771e-09
2.43053e-08
-2.57184e-07
1.77896e-08
4.61688e-08
-3.3933e-07
2.53535e-08
7.10764e-08
-3.92383e-07
3.21547e-08
9.65153e-08
-4.26606e-07
3.9085e-08
1.20028e-07
-4.47446e-07
4.67176e-08
1.39222e-07
-4.58409e-07
5.53438e-08
1.51958e-07
-4.61956e-07
6.50344e-08
1.5646e-07
-4.6e-07
7.56572e-08
1.51493e-07
-4.54202e-07
8.68384e-08
1.36569e-07
-4.46149e-07
9.80016e-08
1.12029e-07
-4.37339e-07
1.0841e-07
7.91646e-08
-4.2917e-07
1.17223e-07
4.01529e-08
-4.22878e-07
1.23646e-07
-2.14289e-09
-4.19374e-07
1.27067e-07
-4.45052e-08
-4.19118e-07
1.27153e-07
-8.37112e-08
-4.22094e-07
1.23905e-07
-1.16896e-07
-4.27803e-07
1.17656e-07
-1.41871e-07
-4.35315e-07
1.09044e-07
-1.57328e-07
-4.43364e-07
9.88697e-08
-1.6289e-07
-4.50487e-07
8.79707e-08
-1.59024e-07
-4.55163e-07
7.71286e-08
-1.46881e-07
-4.55801e-07
6.69265e-08
-1.28141e-07
-4.50724e-07
5.77439e-08
-1.0479e-07
-4.38078e-07
4.97101e-08
-7.89963e-08
-4.15574e-07
4.27086e-08
-5.30036e-08
-3.80069e-07
3.63494e-08
-2.91273e-08
-3.26609e-07
2.98285e-08
-1.00249e-08
-2.46119e-07
2.18123e-08
-1.17941e-07
1.00413e-08
8.64999e-09
-1.41457e-07
8.65895e-09
2.58551e-08
-2.93546e-07
1.91571e-08
4.79399e-08
-3.881e-07
2.66853e-08
7.26019e-08
-4.50293e-07
3.32473e-08
9.75471e-08
-4.91514e-07
3.9963e-08
1.20508e-07
-5.17901e-07
4.74941e-08
1.39251e-07
-5.33337e-07
5.61849e-08
1.51676e-07
-5.405e-07
6.61195e-08
1.56046e-07
-5.41506e-07
7.71355e-08
1.51099e-07
-5.38109e-07
8.88532e-08
1.36264e-07
-5.31952e-07
1.00638e-07
1.11848e-07
-5.24597e-07
1.11674e-07
7.91028e-08
-5.17483e-07
1.21058e-07
4.01939e-08
-5.11885e-07
1.27915e-07
-2.00106e-09
-5.08726e-07
1.31547e-07
-4.42435e-08
-5.08496e-07
1.3162e-07
-8.32913e-08
-5.11183e-07
1.28137e-07
-1.16256e-07
-5.16273e-07
1.21434e-07
-1.40954e-07
-5.22819e-07
1.12202e-07
-1.56117e-07
-5.29535e-07
1.01335e-07
-1.61412e-07
-5.34949e-07
8.97568e-08
-1.57364e-07
-5.37486e-07
7.82751e-08
-1.45174e-07
-5.35516e-07
6.75242e-08
-1.26518e-07
-5.27282e-07
5.79021e-08
-1.03379e-07
-5.10768e-07
4.95514e-08
-7.78852e-08
-4.83427e-07
4.23586e-08
-5.22444e-08
-4.41608e-07
3.5898e-08
-2.87064e-08
-3.79522e-07
2.93756e-08
-9.87987e-09
-2.86417e-07
2.14718e-08
-1.37717e-07
9.89613e-09
8.73264e-09
-1.5893e-07
8.74046e-09
2.56454e-08
-3.29545e-07
1.90862e-08
4.7075e-08
-4.35887e-07
2.63573e-08
7.07774e-08
-5.06615e-07
3.26195e-08
9.46518e-08
-5.54453e-07
3.90643e-08
1.16606e-07
-5.86265e-07
4.64102e-08
1.34543e-07
-6.06293e-07
5.50193e-08
1.46497e-07
-6.17428e-07
6.49744e-08
1.50764e-07
-6.21891e-07
7.6118e-08
1.46085e-07
-6.21482e-07
8.8052e-08
1.31859e-07
-6.17838e-07
1.00112e-07
1.08331e-07
-6.12526e-07
1.11458e-07
7.66774e-08
-6.06955e-07
1.21125e-07
3.9006e-08
-6.02405e-07
1.28192e-07
-1.87025e-09
-5.99772e-07
1.31922e-07
-4.27767e-08
-5.99572e-07
1.31983e-07
-8.05391e-08
-6.01785e-07
1.28364e-07
-1.12319e-07
-6.05914e-07
1.21421e-07
-1.36013e-07
-6.11011e-07
1.11886e-07
-1.50421e-07
-6.158e-07
1.00673e-07
-1.55251e-07
-6.18863e-07
8.87436e-08
-1.51096e-07
-6.18608e-07
7.69672e-08
-1.39169e-07
-6.13445e-07
6.60018e-08
-1.21112e-07
-6.01576e-07
5.6238e-08
-9.8843e-08
-5.80863e-07
4.78253e-08
-7.44061e-08
-5.48516e-07
4.06525e-08
-4.98757e-08
-5.00452e-07
3.43137e-08
-2.73943e-08
-4.30022e-07
2.80179e-08
-9.43205e-09
-3.24845e-07
2.04658e-08
-1.56597e-07
9.44757e-09
8.23905e-09
-1.75415e-07
8.24585e-09
2.40184e-08
-3.63213e-07
1.7889e-08
4.39036e-08
-4.80386e-07
2.46135e-08
6.58071e-08
-5.58935e-07
3.04164e-08
8.78557e-08
-6.12964e-07
3.64619e-08
1.08147e-07
-6.49998e-07
4.34412e-08
1.2479e-07
-6.74641e-07
5.17052e-08
1.35984e-07
-6.89984e-07
6.13621e-08
1.40096e-07
-6.98256e-07
7.22527e-08
1.35933e-07
-7.013e-07
8.39808e-08
1.22875e-07
-7.00677e-07
9.58965e-08
1.01061e-07
-6.97863e-07
1.0715e-07
7.16e-08
-6.94249e-07
1.16756e-07
3.64315e-08
-6.91016e-07
1.2378e-07
-1.75999e-09
-6.89064e-07
1.27484e-07
-3.99673e-08
-6.88896e-07
1.27532e-07
-7.51757e-08
-6.90504e-07
1.23927e-07
-1.04715e-07
-6.93372e-07
1.16996e-07
-1.26593e-07
-6.96603e-07
1.0747e-07
-1.39711e-07
-6.98988e-07
9.63058e-08
-1.43905e-07
-6.99147e-07
8.44784e-08
-1.39756e-07
-6.95619e-07
7.2861e-08
-1.28457e-07
-6.86837e-07
6.20924e-08
-1.11587e-07
-6.71001e-07
5.25549e-08
-9.09306e-08
-6.45924e-07
4.44046e-08
-6.83579e-08
-6.08606e-07
3.75169e-08
-4.5784e-08
-5.54538e-07
3.15114e-08
-2.51428e-08
-4.7632e-07
2.56577e-08
-8.65507e-09
-3.60069e-07
1.87362e-08
-1.73921e-07
8.6691e-09
7.28498e-09
-1.89992e-07
7.29145e-09
2.1163e-08
-3.92846e-07
1.57546e-08
3.85997e-08
-5.19464e-07
2.16415e-08
5.78095e-08
-6.04903e-07
2.67582e-08
7.71586e-08
-6.64487e-07
3.21743e-08
9.50431e-08
-7.06407e-07
3.85246e-08
1.0982e-07
-7.35539e-07
4.61217e-08
1.19881e-07
-7.55134e-07
5.50891e-08
1.23771e-07
-7.67429e-07
6.52827e-08
1.20354e-07
-7.74215e-07
7.63328e-08
1.09005e-07
-7.76959e-07
8.76313e-08
8.98056e-08
-7.76995e-07
9.8331e-08
6.36865e-08
-7.75613e-07
1.07483e-07
3.23773e-08
-7.73893e-07
1.14186e-07
-1.67744e-09
-7.72728e-07
1.17719e-07
-3.57361e-08
-7.72588e-07
1.1775e-07
-6.70578e-08
-7.73463e-07
1.14281e-07
-9.31833e-08
-7.74884e-07
1.07638e-07
-1.12363e-07
-7.75959e-07
9.85361e-08
-1.23681e-07
-7.75569e-07
8.78997e-08
-1.27036e-07
-7.72476e-07
7.6684e-08
-1.23028e-07
-7.65336e-07
6.57097e-08
-1.12779e-07
-7.52667e-07
5.55815e-08
-9.77327e-08
-7.32739e-07
4.66915e-08
-7.94663e-08
-7.03344e-07
3.9154e-08
-5.96465e-08
-6.61283e-07
3.2857e-08
-3.99046e-08
-6.01743e-07
2.74629e-08
-2.18938e-08
-5.16635e-07
2.23035e-08
-7.54314e-09
-3.90705e-07
1.62855e-08
-1.89019e-07
7.55551e-09
5.92855e-09
-2.01849e-07
5.92891e-09
1.71775e-08
-4.16856e-07
1.27607e-08
3.13139e-08
-5.51109e-07
1.75091e-08
4.69097e-08
-6.4221e-07
2.17122e-08
6.27041e-08
-7.06537e-07
2.62552e-08
7.74057e-08
-7.52785e-07
3.16758e-08
8.96853e-08
-7.86098e-07
3.82792e-08
9.82096e-08
-8.09809e-07
4.61508e-08
1.0175e-07
-8.26159e-07
5.51897e-08
9.92907e-08
-8.3682e-07
6.50636e-08
9.02273e-08
-8.43121e-07
7.52253e-08
7.45419e-08
-8.46257e-07
8.49477e-08
5.29276e-08
-8.47341e-07
9.3343e-08
2.68463e-08
-8.47341e-07
9.95295e-08
-1.62214e-09
-8.47057e-07
1.02797e-07
-3.00822e-08
-8.4694e-07
1.02813e-07
-5.61324e-08
-8.46989e-07
9.95763e-08
-7.77007e-08
-8.46737e-07
9.34214e-08
-9.3322e-08
-8.45408e-07
8.50707e-08
-1.02287e-07
-8.41992e-07
7.53884e-08
-1.04604e-07
-8.35408e-07
6.52488e-08
-1.00879e-07
-8.24489e-07
5.54283e-08
-9.21129e-08
-8.07886e-07
4.64517e-08
-7.9537e-08
-7.83947e-07
3.86322e-08
-6.44837e-08
-7.50481e-07
3.20837e-08
-4.82848e-08
-7.04179e-07
2.66973e-08
-3.22404e-08
-6.39941e-07
2.21544e-08
-1.76782e-08
-5.49122e-07
1.79252e-08
-6.08841e-09
-4.1539e-07
1.30953e-08
-2.01206e-07
6.09866e-09
4.21358e-09
-2.10277e-07
4.21362e-09
1.21772e-08
-4.33827e-07
9.00736e-09
2.2225e-08
-5.73517e-07
1.23595e-08
3.33669e-08
-6.68761e-07
1.5409e-08
4.47535e-08
-7.3675e-07
1.88271e-08
5.5496e-08
-7.86557e-07
2.303e-08
6.46474e-08
-8.23502e-07
2.82526e-08
7.12195e-08
-8.50954e-07
3.45724e-08
7.42695e-08
-8.71145e-07
4.19356e-08
7.29419e-08
-8.85611e-07
5.01187e-08
6.6667e-08
-8.95528e-07
5.86812e-08
5.53399e-08
-9.01914e-07
6.69842e-08
3.93819e-08
-9.05624e-07
7.42411e-08
1.98602e-08
-9.07503e-07
7.96832e-08
-1.59191e-09
-9.08196e-07
8.25905e-08
-2.30246e-08
-9.08096e-07
8.25882e-08
-4.24941e-08
-9.07201e-07
7.96809e-08
-5.8362e-08
-9.05112e-07
7.4243e-08
-6.95692e-08
-9.01188e-07
6.69871e-08
-7.56718e-08
-8.94596e-07
5.8706e-08
-7.67943e-08
-8.84479e-07
5.01933e-08
-7.35234e-08
-8.69808e-07
4.20486e-08
-6.6691e-08
-8.49432e-07
3.47139e-08
-5.72235e-08
-8.2185e-07
2.84354e-08
-4.61484e-08
-7.84806e-07
2.32496e-08
-3.43948e-08
-7.35007e-07
1.90741e-08
-2.29008e-08
-6.67103e-07
1.56675e-08
-1.25319e-08
-5.721e-07
1.2609e-08
-4.31697e-09
-4.3282e-07
9.21495e-09
-2.09849e-07
4.32534e-09
2.19777e-09
-2.1467e-07
2.19548e-09
6.34176e-09
-4.42585e-07
4.61398e-09
1.15886e-08
-5.85092e-07
6.32834e-09
1.75255e-08
-6.82709e-07
8.01066e-09
2.37532e-08
-7.53041e-07
1.00631e-08
2.9836e-08
-8.05385e-07
1.2745e-08
3.52682e-08
-8.45151e-07
1.62167e-08
3.94716e-08
-8.75728e-07
2.0571e-08
4.1825e-08
-8.99283e-07
2.5785e-08
4.17253e-08
-9.1723e-07
3.17187e-08
3.86979e-08
-9.30583e-07
3.80822e-08
3.24784e-08
-9.40149e-07
4.44539e-08
2.32091e-08
-9.46559e-07
5.02041e-08
1.14996e-08
-9.50419e-07
5.46264e-08
-1.57855e-09
-9.52159e-07
5.7042e-08
-1.46274e-08
-9.52073e-07
5.70254e-08
-2.62551e-08
-9.50157e-07
5.45839e-08
-3.53897e-08
-9.46119e-07
5.01415e-08
-4.14483e-08
-9.39525e-07
4.43956e-08
-4.42725e-08
-9.29803e-07
3.8031e-08
-4.41497e-08
-9.16275e-07
3.16735e-08
-4.15337e-08
-8.98192e-07
2.57673e-08
-3.70315e-08
-8.7452e-07
2.05858e-08
-3.13052e-08
-8.43843e-07
1.62665e-08
-2.48954e-08
-8.04043e-07
1.28278e-08
-1.83498e-08
-7.51726e-07
1.01737e-08
-1.2096e-08
-6.81497e-07
8.14007e-09
-6.58046e-09
-5.8408e-07
6.46402e-09
-2.26336e-09
-4.41875e-07
4.73736e-09
-2.14382e-07
2.27005e-09
-4.86919e-11
-2.14571e-07
-5.06321e-11
-1.68566e-10
-4.42199e-07
-2.6564e-10
-2.2056e-10
-5.84677e-07
-3.63472e-10
-7.43263e-11
-6.82634e-07
-2.21104e-10
4.06111e-10
-7.53779e-07
2.56961e-10
1.24696e-09
-8.07381e-07
1.15566e-09
2.43721e-09
-8.48865e-07
2.5238e-09
3.85649e-09
-8.81579e-07
4.43172e-09
5.28285e-09
-9.07624e-07
6.9143e-09
6.40086e-09
-9.28316e-07
9.96872e-09
6.85505e-09
-9.44524e-07
1.34877e-08
6.31972e-09
-9.56836e-07
1.7223e-08
4.62259e-09
-9.6565e-07
2.07877e-08
1.85216e-09
-9.71322e-07
2.36729e-08
-1.57563e-09
-9.7403e-07
2.52987e-08
-4.96901e-09
-9.73961e-07
2.52816e-08
-7.64736e-09
-9.71086e-07
2.3607e-08
-9.17946e-09
-9.65257e-07
2.06693e-08
-9.50999e-09
-9.56278e-07
1.70831e-08
-8.81517e-09
-9.43839e-07
1.33418e-08
-7.43031e-09
-9.27493e-07
9.83269e-09
-5.71841e-09
-9.06703e-07
6.79916e-09
-3.99989e-09
-8.80585e-07
4.34607e-09
-2.50361e-09
-8.4781e-07
2.47134e-09
-1.35156e-09
-8.06331e-07
1.13585e-09
-5.83072e-10
-7.52762e-07
2.67312e-10
-1.71049e-10
-6.81724e-07
-1.84997e-10
-8.89938e-12
-5.83934e-07
-3.08068e-10
5.78124e-12
-4.41689e-07
-2.00217e-10
-2.14376e-07
-3.13532e-13
-2.43051e-09
-2.09702e-07
-2.43826e-09
-7.0579e-09
-4.32142e-07
-5.42957e-09
-1.27287e-08
-5.71545e-07
-7.46069e-09
-1.87054e-08
-6.67694e-07
-8.96374e-09
-2.43695e-08
-7.37908e-07
-1.02061e-08
-2.91475e-08
-7.9129e-07
-1.13138e-08
-3.25719e-08
-8.33131e-07
-1.23096e-08
-3.42606e-08
-8.66689e-07
-1.32018e-08
-3.4003e-08
-8.93969e-07
-1.39122e-08
-3.1786e-08
-9.16188e-07
-1.43456e-08
-2.77549e-08
-9.34122e-07
-1.44336e-08
-2.22871e-08
-9.48187e-07
-1.41171e-08
-1.58043e-08
-9.58633e-07
-1.34996e-08
-8.78855e-09
-9.65561e-07
-1.27771e-08
-1.57557e-09
-9.68982e-07
-1.22617e-08
5.67776e-09
-9.68915e-07
-1.22994e-08
1.28042e-08
-9.65333e-07
-1.28788e-08
1.9467e-08
-9.58263e-07
-1.36559e-08
2.51716e-08
-9.47687e-07
-1.42953e-08
2.94605e-08
-9.33502e-07
-1.46268e-08
3.19755e-08
-9.15461e-07
-1.45468e-08
3.25361e-08
-8.93166e-07
-1.4097e-08
3.11495e-08
-8.65838e-07
-1.33597e-08
2.80368e-08
-8.32262e-07
-1.2436e-08
2.3541e-08
-7.90428e-07
-1.14076e-08
1.81551e-08
-7.37109e-07
-1.02666e-08
1.2415e-08
-6.66991e-07
-8.99251e-09
6.91847e-09
-5.70979e-07
-7.45867e-09
2.40873e-09
-4.31777e-07
-5.40228e-09
-2.09564e-07
-2.40375e-09
-4.83895e-09
-2.00017e-07
-4.84591e-09
-1.39987e-08
-4.12358e-07
-1.06246e-08
-2.53348e-08
-5.45618e-07
-1.45909e-08
-3.75019e-08
-6.37748e-07
-1.77786e-08
-4.93792e-08
-7.05241e-07
-2.07905e-08
-5.98962e-08
-7.56794e-07
-2.39788e-08
-6.80782e-08
-7.97447e-07
-2.75019e-08
-7.30499e-08
-8.30323e-07
-3.13941e-08
-7.41543e-08
-8.57273e-07
-3.55913e-08
-7.09635e-08
-8.79487e-07
-3.98918e-08
-6.34359e-08
-8.97629e-07
-4.40209e-08
-5.18986e-08
-9.12053e-07
-4.76716e-08
-3.70543e-08
-9.22891e-07
-5.05862e-08
-1.99032e-08
-9.30163e-07
-5.25483e-08
-1.57241e-09
-9.33797e-07
-5.35157e-08
1.68033e-08
-9.33721e-07
-5.35697e-08
3.40853e-08
-9.2994e-07
-5.26759e-08
4.91141e-08
-9.22528e-07
-5.07645e-08
6.08918e-08
-9.11561e-07
-4.79042e-08
6.87029e-08
-8.9704e-07
-4.42731e-08
7.21994e-08
-8.78822e-07
-4.0136e-08
7.14154e-08
-8.56561e-07
-3.58219e-08
6.67509e-08
-8.29572e-07
-3.16017e-08
5.88797e-08
-7.96711e-07
-2.76794e-08
4.86486e-08
-7.56074e-07
-2.41225e-08
3.70236e-08
-7.04584e-07
-2.09006e-08
2.50725e-08
-6.37188e-07
-1.78518e-08
1.39047e-08
-5.45185e-07
-1.46258e-08
4.82607e-09
-4.12076e-07
-1.06227e-08
-1.99917e-07
-4.82109e-09
-7.15009e-09
-1.8571e-07
-7.15676e-09
-2.06461e-08
-3.83253e-07
-1.56089e-08
-3.7377e-08
-5.07464e-07
-2.14228e-08
-5.54646e-08
-5.93455e-07
-2.62055e-08
-7.32888e-08
-6.56521e-07
-3.08954e-08
-8.9329e-08
-7.04679e-07
-3.60744e-08
-1.02103e-07
-7.42635e-07
-4.20386e-08
-1.10289e-07
-7.7326e-07
-4.88766e-08
-1.12757e-07
-7.98327e-07
-5.64783e-08
-1.08733e-07
-8.18941e-07
-6.45696e-08
-9.79215e-08
-8.35721e-07
-7.272e-08
-8.06008e-08
-8.49021e-07
-8.03523e-08
-5.76919e-08
-8.58984e-07
-8.68162e-08
-3.06976e-08
-8.65659e-07
-9.14986e-08
-1.56006e-09
-8.68991e-07
-9.39437e-08
2.762e-08
-8.68915e-07
-9.39856e-08
5.47343e-08
-8.65437e-07
-9.16172e-08
7.7851e-08
-8.58644e-07
-8.70009e-08
9.5423e-08
-8.48551e-07
-8.05821e-08
1.06526e-07
-8.35168e-07
-7.29743e-08
1.10863e-07
-8.18327e-07
-6.48314e-08
1.0871e-07
-7.97676e-07
-5.67317e-08
1.00845e-07
-7.72597e-07
-4.91103e-08
8.83682e-08
-7.41989e-07
-4.22455e-08
7.2609e-08
-7.04066e-07
-3.62487e-08
5.50364e-08
-6.55977e-07
-3.10344e-08
3.71528e-08
-5.92999e-07
-2.63057e-08
2.05603e-08
-5.07112e-07
-2.14808e-08
7.14353e-09
-3.83037e-07
-1.56226e-08
-1.85635e-07
-7.13816e-09
-9.2252e-09
-1.67253e-07
-9.23235e-09
-2.66097e-08
-3.45799e-07
-2.00695e-08
-4.81929e-08
-4.58364e-07
-2.75167e-08
-7.15854e-08
-5.36344e-07
-3.37188e-08
-9.47602e-08
-5.93428e-07
-3.99186e-08
-1.15766e-07
-6.36816e-07
-4.68579e-08
-1.32692e-07
-6.70759e-07
-5.495e-08
-1.43776e-07
-6.97842e-07
-6.43349e-08
-1.4748e-07
-7.19726e-07
-7.48967e-08
-1.42704e-07
-7.37408e-07
-8.63095e-08
-1.28926e-07
-7.51539e-07
-9.79595e-08
-1.06402e-07
-7.62523e-07
-1.09023e-07
-7.62352e-08
-7.70598e-07
-1.18553e-07
-4.03996e-08
-7.75917e-07
-1.25578e-07
-1.53732e-09
-7.78537e-07
-1.29316e-07
3.73697e-08
-7.78466e-07
-1.29356e-07
7.33352e-08
-7.75719e-07
-1.25683e-07
1.03691e-07
-7.70279e-07
-1.1872e-07
1.26471e-07
-7.62086e-07
-1.09246e-07
1.40541e-07
-7.51026e-07
-9.82117e-08
1.45631e-07
-7.36844e-07
-8.65728e-08
1.42241e-07
-7.19131e-07
-7.51555e-08
1.3148e-07
-6.97258e-07
-6.45778e-08
1.14847e-07
-6.70187e-07
-5.51695e-08
9.41202e-08
-6.36292e-07
-4.7047e-08
7.1182e-08
-5.92966e-07
-4.0073e-08
4.79846e-08
-5.35968e-07
-3.3834e-08
2.65416e-08
-4.58082e-07
-2.75869e-08
9.22261e-09
-3.45626e-07
-2.00914e-08
-1.67196e-07
-9.2166e-09
-1.09497e-08
-1.45347e-07
-1.09562e-08
-3.15538e-08
-3.01434e-07
-2.37615e-08
-5.71403e-08
-4.00221e-07
-3.25567e-08
-8.49386e-08
-4.68649e-07
-3.98964e-08
-1.12567e-07
-5.18527e-07
-4.72727e-08
-1.37701e-07
-5.56087e-07
-5.55948e-08
-1.58081e-07
-5.85031e-07
-6.53483e-08
-1.71553e-07
-6.07675e-07
-7.6695e-08
-1.7626e-07
-6.25484e-07
-8.95347e-08
-1.70812e-07
-6.39418e-07
-1.03437e-07
-1.54536e-07
-6.50148e-07
-1.17667e-07
-1.27668e-07
-6.58134e-07
-1.31256e-07
-9.14917e-08
-6.63773e-07
-1.43001e-07
-4.83603e-08
-6.67347e-07
-1.51701e-07
-1.50241e-09
-6.69054e-07
-1.5634e-07
4.53959e-08
-6.68989e-07
-1.56376e-07
8.86501e-08
-6.67157e-07
-1.51816e-07
1.25014e-07
-6.6347e-07
-1.43173e-07
1.5214e-07
-6.57747e-07
-1.31464e-07
1.68698e-07
-6.4968e-07
-1.17904e-07
1.7445e-07
-6.38909e-07
-1.03687e-07
1.70063e-07
-6.24959e-07
-8.97853e-08
1.56894e-07
-6.07154e-07
-7.69347e-08
1.36813e-07
-5.84539e-07
-6.55675e-08
1.11944e-07
-5.55636e-07
-5.57873e-08
8.455e-08
-5.18139e-07
-4.74333e-08
5.6944e-08
-4.68349e-07
-4.00127e-08
3.14849e-08
-3.99996e-07
-3.26268e-08
1.09484e-08
-3.01302e-07
-2.37879e-08
-1.45305e-07
-1.09423e-08
-1.2209e-08
-1.20923e-07
-1.22151e-08
-3.51518e-08
-2.52051e-07
-2.64397e-08
-6.36795e-08
-3.35525e-07
-3.61687e-08
-9.47382e-08
-3.93304e-07
-4.42868e-08
-1.25701e-07
-4.351e-07
-5.24635e-08
-1.53961e-07
-4.66124e-07
-6.17036e-08
-1.76936e-07
-4.89507e-07
-7.25484e-08
-1.92194e-07
-5.07231e-07
-8.51864e-08
-1.97618e-07
-5.20598e-07
-9.94617e-08
-1.91624e-07
-5.30517e-07
-1.14895e-07
-1.73443e-07
-5.37635e-07
-1.30694e-07
-1.43296e-07
-5.42524e-07
-1.45757e-07
-1.02661e-07
-5.45652e-07
-1.58757e-07
-5.41691e-08
-5.47449e-07
-1.68389e-07
-1.45293e-09
-5.48229e-07
-1.73541e-07
5.13026e-08
-5.48172e-07
-1.73572e-07
9.99092e-08
-5.47281e-07
-1.68483e-07
1.40733e-07
-5.4539e-07
-1.58904e-07
1.71104e-07
-5.42172e-07
-1.45945e-07
1.89571e-07
-5.37235e-07
-1.30913e-07
1.95862e-07
-5.30074e-07
-1.15127e-07
1.9075e-07
-5.20148e-07
-9.96979e-08
1.75793e-07
-5.06782e-07
-8.54149e-08
1.531e-07
-4.89086e-07
-7.276e-08
1.25106e-07
-4.6575e-07
-6.18918e-08
9.43731e-08
-4.34783e-07
-5.26224e-08
6.3491e-08
-3.93052e-07
-4.4415e-08
3.50898e-08
-3.35345e-07
-3.625e-08
1.22082e-08
-2.51952e-07
-2.64677e-08
-1.20895e-07
-1.22022e-08
-1.28954e-08
-9.51275e-08
-1.28998e-08
-3.7133e-08
-1.9993e-07
-2.78836e-08
-6.73559e-08
-2.67218e-07
-3.80837e-08
-1.00384e-07
-3.13716e-07
-4.65592e-08
-1.33426e-07
-3.46966e-07
-5.5092e-08
-1.63676e-07
-3.71127e-07
-6.4747e-08
-1.88336e-07
-3.88764e-07
-7.60823e-08
-2.04764e-07
-4.01525e-07
-8.92796e-08
-2.10655e-07
-4.10547e-07
-1.0416e-07
-2.04313e-07
-4.16641e-07
-1.20219e-07
-1.84914e-07
-4.2044e-07
-1.36594e-07
-1.52749e-07
-4.22536e-07
-1.52154e-07
-1.09378e-07
-4.2347e-07
-1.65552e-07
-5.76313e-08
-4.23743e-07
-1.75453e-07
-1.38849e-09
-4.23749e-07
-1.80723e-07
5.48907e-08
-4.23701e-07
-1.8075e-07
1.06746e-07
-4.23602e-07
-1.75535e-07
1.50286e-07
-4.23248e-07
-1.65683e-07
1.8268e-07
-4.22245e-07
-1.52321e-07
2.02341e-07
-4.20105e-07
-1.3679e-07
2.08969e-07
-4.16272e-07
-1.20429e-07
2.03367e-07
-4.1017e-07
-1.04376e-07
1.87238e-07
-4.01163e-07
-8.94912e-08
1.62848e-07
-3.88415e-07
-7.62805e-08
1.3285e-07
-3.70826e-07
-6.49263e-08
1.00024e-07
-3.46712e-07
-5.52448e-08
6.71711e-08
-3.13522e-07
-4.66775e-08
3.70742e-08
-2.67089e-07
-3.81595e-08
1.28929e-08
-1.99859e-07
-2.79117e-08
-9.51133e-08
-1.28884e-08
-1.29024e-08
-6.93164e-08
-1.29087e-08
-3.7243e-08
-1.47732e-07
-2.78576e-08
-6.77662e-08
-1.98723e-07
-3.79723e-08
-1.0136e-07
-2.33799e-07
-4.63238e-08
-1.35165e-07
-2.58437e-07
-5.47235e-08
-1.66256e-07
-2.75778e-07
-6.42581e-08
-1.91698e-07
-2.87834e-07
-7.54875e-08
-2.08693e-07
-2.95961e-07
-8.85687e-08
-2.1487e-07
-3.01067e-07
-1.03303e-07
-2.08473e-07
-3.03869e-07
-1.19168e-07
-1.88677e-07
-3.04941e-07
-1.35295e-07
-1.55814e-07
-3.04845e-07
-1.50554e-07
-1.1152e-07
-3.04131e-07
-1.63632e-07
-5.86986e-08
-3.03298e-07
-1.73266e-07
-1.3058e-09
-3.0275e-07
-1.78392e-07
5.61213e-08
-3.02712e-07
-1.78416e-07
1.09044e-07
-3.03188e-07
-1.73337e-07
1.53501e-07
-3.03962e-07
-1.63743e-07
1.86572e-07
-3.04624e-07
-1.50693e-07
2.06607e-07
-3.04678e-07
-1.35462e-07
2.13272e-07
-3.0358e-07
-1.19357e-07
2.07378e-07
-3.00776e-07
-1.035e-07
1.9065e-07
-2.95671e-07
-8.87633e-08
1.65477e-07
-2.8757e-07
-7.56713e-08
1.34622e-07
-2.75546e-07
-6.4426e-08
1.01021e-07
-2.58244e-07
-5.48666e-08
6.75948e-08
-2.33659e-07
-4.64368e-08
3.71831e-08
-1.98631e-07
-3.80457e-08
1.29015e-08
-1.47692e-07
-2.78861e-08
-6.93127e-08
-1.28991e-08
-1.21188e-08
-4.50737e-08
-1.21239e-08
-3.52153e-08
-9.85226e-08
-2.61127e-08
-6.45615e-08
-1.33908e-07
-3.54689e-08
-9.72544e-08
-1.57981e-07
-4.31246e-08
-1.30471e-07
-1.74377e-07
-5.08429e-08
-1.61236e-07
-1.85327e-07
-5.96868e-08
-1.8654e-07
-1.92332e-07
-7.01988e-08
-2.03565e-07
-1.96419e-07
-8.25164e-08
-2.09897e-07
-1.98313e-07
-9.64217e-08
-2.03812e-07
-1.9857e-07
-1.11385e-07
-1.84516e-07
-1.97676e-07
-1.26561e-07
-1.52379e-07
-1.96112e-07
-1.4087e-07
-1.09033e-07
-1.94367e-07
-1.5311e-07
-5.73475e-08
-1.92882e-07
-1.62101e-07
-1.20126e-09
-1.92025e-07
-1.66871e-07
5.49759e-08
-1.91998e-07
-1.66891e-07
1.06752e-07
-1.92802e-07
-1.62163e-07
1.50244e-07
-1.94239e-07
-1.53215e-07
1.82575e-07
-1.95947e-07
-1.41007e-07
2.02092e-07
-1.9748e-07
-1.26715e-07
2.08424e-07
-1.9836e-07
-1.11553e-07
2.02342e-07
-1.98096e-07
-9.65976e-08
1.85575e-07
-1.96212e-07
-8.26915e-08
1.60511e-07
-1.9214e-07
-7.03665e-08
1.29967e-07
-1.85161e-07
-5.98406e-08
9.69429e-08
-1.74244e-07
-5.09756e-08
6.4402e-08
-1.57887e-07
-4.32308e-08
3.51624e-08
-1.33853e-07
-3.5539e-08
1.21166e-08
-9.85042e-08
-2.61419e-08
-4.5079e-08
-1.21171e-08
-1.04146e-08
-2.42394e-08
-1.04198e-08
-3.08232e-08
-5.57534e-08
-2.23605e-08