/*--------------------------------*- C++ -*----------------------------------*\
| =========                 |                                                 |
| \\      /  F ield         | OpenFOAM: The Open Source CFD Toolbox           |
|  \\    /   O peration     | Version:  v1912                                 |
|   \\  /    A nd           | Website:  www.openfoam.com                      |
|    \\/     M anipulation  |                                                 |
\*---------------------------------------------------------------------------*/
FoamFile
{
    version     2.0;
    format      ascii;
    class       volScalarField;
    location    "60/oil";
    object      heatTransferCoeff(T);
}
// * * * * * * * * * * * * * * * * * * * * * * * * * * * * * * * * * * * * * //

dimensions      [1 0 -3 -1 0 0 0];


internalField   uniform 0;

boundaryField
{
    maxY
    {
        type            calculated;
        value           uniform 0;
    }
    minX
    {
        type            calculated;
        value           uniform 0;
    }
    maxX
    {
        type            calculated;
        value           uniform 0;
    }
    minY
    {
        type            calculated;
        value           uniform 0;
    }
    minZ
    {
        type            calculated;
        value           uniform 0;
    }
    maxZ
    {
        type            calculated;
        value           uniform 0;
    }
    oil_to_sphere
    {
        type            calculated;
        value           nonuniform List<scalar> 
1536
(
-336.72
-351.244
-330.975
-326.407
-282.8
-289.322
-285.078
-221.809
-213.542
-369.389
-281.179
-373.064
-377.2
-371.61
-323.727
-279.49
-224.439
-215.38
-75.3103
-376.864
-368.512
-292.071
-287.512
-281.333
-296.481
-296.161
-295.897
-282.367
-352.879
-349.555
-329.392
-266.197
-245.074
-297.399
-280.398
-278.616
-267.571
-308.478
-292.523
-308.208
-292.376
-278.797
-347.792
-373.316
-352.395
-370.234
-289.365
-289.327
-320.041
-294.375
-291.71
-291.289
-285.735
-289.002
-253.806
-240.432
-288.735
-287.588
-216.36
-157.878
-170.614
-155.797
-167.812
-376.748
-378.682
-371.845
-354.198
-370.462
-338.6
-351.236
-298.018
-290.696
-329.616
-293.457
-280.636
-243.085
-237.091
-231.592
-279.855
-215.839
-155.603
-168.142
-140.901
-139.483
-176.996
-170.1
-143.083
-222.906
-214.274
-157.16
-168.942
-75.1088
-75.3502
-378.437
-379.077
-373.333
-357.522
-364.491
-370.826
-336.798
-355.179
-297.181
-334.703
-329.261
-292.609
-293.41
-282.385
-232.589
-277.718
-244.534
-236.747
-244.041
-157.559
-170.871
-142.181
-144.002
-141.448
-175.96
-170.18
-178.635
-215.156
-169.314
-75.5999
-371.577
-337.152
-351.843
-338.942
-349.974
-291.705
-292.904
-294.192
-291.293
-291.05
-289.703
-293.334
-294.681
-288.308
-241.073
-285.232
-284.185
-158.165
-170.43
-223.852
-216.189
-167.996
-213.114
-319.253
-317.764
-285.666
-297.101
-327.431
-318.037
-288.921
-292.845
-291.176
-268.225
-252.979
-257.798
-319.261
-313.866
-319.586
-345.005
-305.45
-294.782
-279.298
-268.19
-290.089
-273.422
-254.032
-258.931
-346.409
-310.746
-352.221
-305.688
-266.053
-238.084
-318.952
-323.675
-336.882
-314.635
-305.51
-294.355
-268.15
-292.926
-266.57
-256.058
-261.923
-359.583
-315.487
-328.264
-344.544
-320.7
-338.983
-327.319
-262.877
-272.397
-269.41
-271.443
-261.709
-267.422
-272.222
-280.871
-214.76
-209.5
-205.126
-218.977
-225.075
-223.19
-231.577
-232.78
-211.482
-201.543
-195.209
-361.237
-383.183
-376.742
-364.855
-362.588
-365.175
-364.243
-359.329
-371.762
-353.198
-361.222
-362.843
-319.941
-321.163
-351.934
-335.093
-302.9
-270.388
-269.917
-289.31
-265.219
-211.598
-216.801
-207.272
-220.256
-224.179
-207.919
-200.517
-131.25
-120.463
-372.437
-365.369
-370.299
-362.597
-370.938
-385.631
-372.513
-361.876
-317.697
-296.256
-316.189
-319.175
-265.578
-280.799
-213.315
-202.779
-227.32
-239.453
-231.86
-196.872
-119.505
-129.653
-98.5014
-98.5881
-130.587
-366.379
-359.905
-357.838
-352.892
-360.793
-365.657
-358.08
-369.13
-388.511
-375.957
-361.013
-339.421
-319.368
-322.004
-332.771
-354.307
-336.268
-320.684
-319.941
-268.961
-270.718
-278.983
-281.199
-272.346
-279.876
-206.566
-202.04
-210.111
-221.179
-217.056
-224.365
-226.212
-225.003
-206.175
-199.369
-219.1
-210.549
-297.473
-286.436
-289.465
-267.644
-263.574
-256.338
-250.71
-347.291
-335.815
-352.397
-343.948
-334.354
-347.998
-349.941
-356.43
-366.886
-350.145
-352.088
-347.946
-380.954
-366.842
-361.438
-353.107
-367.53
-374.804
-360.829
-341.161
-343.897
-352.491
-333.496
-350.593
-356.179
-364.505
-364.766
-371.584
-368.316
-364.261
-356.41
-356.045
-354.126
-359.236
-347.975
-349.232
-335.736
-347.01
-332.037
-336.772
-354.905
-317.625
-345.157
-322.253
-325.685
-314.024
-301.788
-343.307
-319.276
-320.592
-331.293
-302.907
-310.088
-319.641
-298.89
-307.453
-292.089
-323.882
-344.94
-320.831
-324.198
-327.142
-305.482
-311.716
-309.897
-269.073
-274.68
-267.929
-254.127
-247.673
-255.265
-242.799
-236.164
-270.555
-274.739
-269.718
-256.606
-249.786
-260.446
-241.532
-236.3
-230.143
-270.49
-236.023
-255.445
-250.284
-257.175
-241.134
-270.153
-276.894
-270.087
-276.639
-238.562
-231.216
-256.474
-250.621
-259.003
-239.626
-234.293
-220.689
-215.976
-220.035
-215.625
-205.943
-206.2
-199.611
-213.988
-202.924
-227.509
-197.599
-201.128
-194.097
-186.879
-197.083
-193.207
-181.966
-176.983
-165.542
-217.904
-211.491
-206.412
-219.337
-201.54
-206.779
-182.011
-175.799
-172.994
-165.728
-194.515
-188.215
-197.9
-193.494
-191.644
-220.668
-215.749
-223.826
-223.818
-206.82
-199.406
-216.136
-209.277
-414.339
-399.708
-386.185
-410.473
-384.074
-388.248
-398.495
-374.706
-378.541
-384.491
-382.858
-360.119
-373.226
-356.6
-354.526
-352.95
-350.732
-358.78
-356.107
-366.764
-373.417
-343.594
-365.064
-348.468
-358.029
-348.889
-367.749
-353.011
-368.534
-360.573
-370.5
-361.809
-345.1
-354.077
-336.265
-355.369
-314.717
-328.855
-320.976
-292.964
-306.53
-307.103
-324.402
-292.051
-318.409
-291.454
-306.371
-293.702
-283.411
-289.844
-269.249
-266.277
-251.155
-257.235
-253.283
-249.328
-238.796
-268.456
-236.41
-279.152
-267.231
-253.061
-201.962
-193.78
-188.249
-199.169
-194.478
-212.357
-201.886
-227.37
-196.255
-181.254
-178.62
-167.08
-150.23
-138.571
-151.694
-139.004
-160.771
-170.932
-160.306
-148.132
-150.71
-209.749
-216.197
-205.444
-218.642
-199.082
-189.469
-198.936
-192.526
-210.273
-200.447
-221.41
-229.663
-196.17
-181.406
-192.152
-176.956
-165.788
-187.177
-129.886
-120.174
-133.138
-121.437
-99.78
-99.3404
-99.272
-98.7847
-118.005
-404.935
-380.661
-388.883
-385.509
-381.075
-406.043
-390.473
-384.108
-377.806
-363.384
-382.55
-385.389
-394.18
-365.301
-368.004
-373.957
-374.525
-343.765
-360.21
-343.015
-368.338
-356.541
-355.527
-351.902
-360.457
-350.493
-359.432
-368.936
-353.158
-341.597
-337.197
-360.621
-368.369
-344.234
-364.08
-345.927
-335.006
-370.004
-355.82
-354.354
-358.926
-349.589
-348.11
-357.025
-367.578
-350.16
-337.082
-321.321
-321.741
-307.802
-294.882
-307.188
-342.289
-323.164
-324.443
-312.616
-310.151
-300.922
-306.736
-306.589
-293.103
-291.828
-268.367
-288.529
-263.842
-278.714
-256.803
-251.815
-292.978
-281.423
-240.317
-268.126
-235.594
-263.532
-247.828
-237.083
-253.817
-261.238
-263.472
-253.735
-254.766
-290.919
-267.109
-181.631
-179.756
-179.241
-168.642
-217.589
-210.274
-206.581
-220.027
-202.889
-208.299
-190.248
-202.417
-198.843
-193.978
-190.753
-162.636
-161.739
-171.633
-149.593
-150.576
-138.306
-151.319
-151.507
-138.228
-169.96
-159.422
-160.419
-171.565
-148.453
-210.709
-201.017
-224.018
-229.914
-196.537
-181.805
-192.57
-175.792
-177.587
-187.862
-207.914
-199.846
-215.184
-210.925
-205.757
-219.11
-223.335
-188.354
-194.477
-198.426
-192.769
-191.205
-99.6218
-99.5599
-131.835
-130.578
-120.722
-117.98
-142.75
-130.711
-118.71
-335.791
-352.471
-351.1
-332.439
-349.516
-335.453
-334.172
-369.226
-361.286
-374.212
-361.917
-344.693
-355.585
-349.895
-364.6
-353.078
-358.143
-343.702
-345.745
-367.752
-356.239
-350.838
-354.22
-349.039
-348.778
-354.656
-337.046
-335.795
-346.18
-353.39
-344.741
-357.51
-349.464
-373.541
-347.903
-338.383
-343.701
-347.606
-336.825
-333.748
-355.692
-320.417
-307.611
-307.834
-315.426
-294.515
-341.358
-318.595
-318.068
-328.195
-311.922
-312.309
-305.423
-334.816
-316.669
-321.112
-328.775
-302.826
-305.579
-316.549
-314.613
-294.724
-327.07
-343.091
-324.166
-327.622
-313.013
-312.529
-307.482
-306.809
-293.672
-255.862
-250.316
-258.252
-242.351
-239.063
-233.065
-272.338
-265.055
-274.255
-271.042
-250.179
-256.843
-256.256
-238.438
-233.667
-234.778
-270.416
-269.998
-276.35
-268.876
-278.132
-235.716
-240.183
-255.241
-248.658
-256.111
-236.978
-233.47
-278.468
-268.303
-268.285
-273.434
-280.133
-237.933
-233.451
-250.164
-256.817
-257.575
-216.435
-221.72
-206.869
-205.255
-198.92
-221.029
-215.906
-222.19
-194.881
-188.084
-197.945
-192.438
-184.282
-196.18
-178.477
-166.589
-189.546
-211.323
-215.138
-205.091
-221.341
-233.915
-248.283
-218.127
-206.098
-198.627
-203.919
-215.275
-181.775
-191.775
-176.565
-174.903
-186.371
-196.334
-189.098
-196.843
-195.916
-191.413
-223.414
-236.428
-212.228
-201.725
-195.682
-219.407
-224.42
-210.772
-216.622
-206.64
-329.961
-322.912
-237.157
-226.549
-370.251
-360.853
-367.659
-369.227
-366.738
-318.748
-340.4
-329.814
-336.453
-278.248
-291.139
-228.548
-139.23
-134.688
-330.943
-328.401
-222.432
-139.762
-132.774
-157.686
-368.728
-320.661
-288.117
-155.783
-336.599
-328.068
-335.187
-278.289
-292.419
-292.466
-221.484
-331.81
-336.407
-294.016
-293.055
-333.425
-290.906
-292.988
-272.856
-279.474
-231.52
-243.713
-250.151
-323.23
-332.766
-290.013
-306.216
-276.522
-285.311
-231.715
-243.424
-244.702
-321.239
-338.685
-292.123
-311.816
-248.21
-233.626
-247.767
-269.424
-306.009
-303.751
-336.712
-340.5
-292.219
-290.003
-287.701
-294.163
-243.535
-235.151
-245.222
-224.64
-384.016
-376.224
-334.354
-363.712
-333.213
-371.651
-367.785
-290.936
-323.915
-322.256
-328.923
-322.153
-289.515
-249.566
-244.928
-245.262
-246.999
-244.597
-242.175
-183.963
-226.815
-178.925
-185.296
-377.958
-370.913
-386.33
-372.939
-383.056
-376.33
-378.105
-376.373
-382.832
-373.912
-336.048
-365.464
-336.592
-349.693
-336.106
-291.636
-308.997
-320.101
-344.062
-294.524
-332.523
-291.468
-236.108
-246.093
-251.454
-238.913
-247.418
-242.522
-225.25
-184.772
-174.829
-172.919
-181.953
-226.025
-183.529
-135.442
-141.199
-132.701
-384.003
-381.498
-376.152
-393.397
-375.412
-381.809
-375.854
-388.931
-378.875
-336.543
-364.093
-331.761
-369.741
-366.359
-359.582
-366.298
-354.318
-332.748
-340.962
-290.444
-316.936
-340.874
-322.473
-337.764
-292.351
-233.596
-246.756
-277.601
-288.234
-240.862
-254.162
-236.261
-244.071
-286.245
-227.794
-184.352
-168.424
-175.199
-169.63
-225.594
-183.43
-135.613
-132.947
-133.99
-377.319
-347.377
-337.025
-370.478
-332.56
-292.242
-329.851
-324.532
-325.137
-323.73
-243.608
-254.502
-243.806
-242.902
-243.002
-183.661
-234.364
-186.174
-229.298
-335.194
-318.644
-305.409
-314.471
-337.7
-322.257
-259.332
-273.114
-265.243
-323.947
-338.593
-325.297
-309.738
-341.572
-298.4
-314.171
-313.67
-303.677
-325.118
-311.791
-338.708
-303.907
-310.474
-311.748
-307.605
-276.998
-276.769
-262.255
-257.323
-248.843
-238.891
-257.366
-247.53
-257.74
-336.814
-316.507
-308.333
-319.503
-335.799
-300.089
-304.435
-305.239
-283.9
-314.566
-268.623
-283.432
-279.229
-262.292
-259.291
-250.004
-238.592
-253.894
-246.351
-258.245
-320.524
-335.582
-300.505
-302.588
-307.749
-282.546
-312.867
-275.716
-258.603
-245.022
-263.793
-260.007
-272.854
-357.089
-358.228
-355.745
-360.222
-305.548
-338.09
-325.278
-270.63
-271.769
-281.386
-280.448
-276.733
-222.821
-234.392
-231.416
-209.015
-204.512
-236.827
-224.798
-224.735
-360.924
-363.233
-371.254
-355.904
-310.249
-324.989
-300.918
-344.842
-321.216
-275.126
-273.684
-262.092
-225.091
-241.968
-231.694
-210.439
-162.136
-165.655
-149.786
-150.556
-138.063
-131.476
-360.29
-358.184
-358.898
-354.079
-367.044
-316.669
-331.301
-327.4
-266.95
-205.464
-232.092
-150.932
-138.14
-132.442
-116.828
-166.495
-361.965
-359.443
-369.815
-360.92
-366.882
-364.554
-360.7
-358.482
-364.764
-299.809
-309.189
-358.061
-321.762
-278.331
-278.245
-225.35
-235.794
-225.325
-217.858
-230.749
-208.389
-166.659
-275.935
-230.94
-343.523
-338.057
-314.126
-317.316
-275.844
-270.25
-271.831
-252.86
-244.281
-261.199
-251.536
-253.779
-242.682
-382.906
-377.638
-327.882
-328.562
-348.243
-358.021
-353.95
-353.198
-330.964
-347
-340.242
-352.398
-334.519
-345.738
-362.513
-355.506
-357.184
-355.798
-331.684
-338.747
-344.308
-350.696
-361.739
-367.872
-364.32
-367.451
-348.152
-332.79
-342.719
-367.708
-360.951
-366.766
-362.25
-333.888
-358.855
-362.637
-352.642
-339.726
-345.165
-338.543
-313.687
-309.93
-345.54
-316.911
-306.497
-307.903
-289.924
-292.834
-291.173
-308.145
-339.143
-324.058
-294.95
-293.755
-307.629
-295.348
-309.258
-335.323
-312.786
-292.569
-279.469
-279.78
-260.142
-264.438
-235.179
-279.685
-259.745
-266.363
-238.407
-272.695
-280.306
-263.251
-236.497
-278.721
-252.644
-260.037
-223.894
-223.671
-205.352
-206.567
-190.863
-192.035
-207.325
-193.35
-189.055
-176.065
-172.054
-171.46
-178.679
-224.263
-209.067
-192.503
-186.723
-176.833
-177.919
-170.793
-217.206
-224.137
-191.909
-386.628
-369.815
-381.968
-365.654
-368.402
-386.849
-359.975
-405.271
-371.741
-374.235
-373.71
-388.796
-374.585
-386.164
-403.52
-390.391
-372.672
-382.03
-345.608
-361.581
-375.3
-365.383
-336.616
-353.569
-344.191
-361.219
-354.503
-360.009
-355.492
-368.438
-345.665
-330.981
-336.748
-350.819
-366.738
-357.717
-356.287
-348.675
-302.983
-307.52
-291.196
-321.206
-335.162
-304.413
-309.877
-314.817
-318.427
-319.163
-332.411
-304.998
-272.975
-257.286
-251.942
-267.965
-276.327
-247.595
-253.922
-261.53
-270.018
-257.436
-247.998
-237.945
-178.133
-174.701
-172.401
-205.163
-192.538
-187.206
-176.708
-223.159
-228.221
-177.319
-173.386
-204.75
-177.044
-132.507
-133.021
-119.648
-142.84
-117.421
-132.748
-144.996
-389.845
-372.879
-398.422
-379.441
-378.54
-365.148
-369.205
-359.84
-384.98
-396.531
-386.849
-372.919
-366.057
-364.651
-374.961
-373.758
-374.587
-345.624
-369.717
-343.667
-366.758
-367.517
-359.407
-327.992
-365.157
-350.12
-359.064
-355.787
-347.771
-356.727
-355.975
-339.318
-344.513
-337.631
-311.847
-335.478
-316.668
-306.123
-300.02
-282.6
-307.352
-339.247
-313.054
-314.081
-271.267
-249.933
-257.923
-267.789
-274.783
-252.116
-260.158
-265.337
-256.133
-247.345
-274.167
-275.76
-192.899
-187.599
-177.298
-226.886
-210.716
-177.91
-175.488
-205.533
-177.731
-222.644
-176.545
-118.844
-132.451
-145.268
-385.696
-359.377
-334.458
-353.418
-335.473
-333.488
-346.16
-367.493
-359.6
-357.32
-337.697
-342.733
-351.414
-348.7
-362.321
-357.277
-358.905
-355.531
-348.35
-334.086
-354.938
-343.633
-339.968
-319.072
-294.13
-311.886
-347.185
-315.461
-305.115
-290.9
-290.608
-307.903
-339.683
-292.019
-308.303
-338.943
-294.345
-257.526
-241.893
-272.843
-279.52
-272.732
-258.736
-267.596
-276.813
-252.571
-278.305
-253.378
-190.521
-223.797
-176.561
-172.854
-179.722
-223.205
-235.706
-207.221
-176.333
-179.589
-204.044
-224.253
)
;
    }
}


// ************************************************************************* //
