/*--------------------------------*- C++ -*----------------------------------*\
| =========                 |                                                 |
| \\      /  F ield         | OpenFOAM: The Open Source CFD Toolbox           |
|  \\    /   O peration     | Version:  v1912                                 |
|   \\  /    A nd           | Website:  www.openfoam.com                      |
|    \\/     M anipulation  |                                                 |
\*---------------------------------------------------------------------------*/
FoamFile
{
    version     2.0;
    format      ascii;
    class       volScalarField;
    location    "35/oil";
    object      heatTransferCoeff(T);
}
// * * * * * * * * * * * * * * * * * * * * * * * * * * * * * * * * * * * * * //

dimensions      [1 0 -3 -1 0 0 0];


internalField   uniform 0;

boundaryField
{
    maxY
    {
        type            calculated;
        value           uniform 0;
    }
    minX
    {
        type            calculated;
        value           uniform 0;
    }
    maxX
    {
        type            calculated;
        value           uniform 0;
    }
    minY
    {
        type            calculated;
        value           uniform 0;
    }
    minZ
    {
        type            calculated;
        value           uniform 0;
    }
    maxZ
    {
        type            calculated;
        value           uniform 0;
    }
    oil_to_sphere
    {
        type            calculated;
        value           nonuniform List<scalar> 
360
(
-73.0747
-73.4846
-49.5553
-129.124
-137.795
-57.5501
-141.471
-127.668
-137.446
-71.9169
-72.3015
-57.4561
-63.6786
-44.6214
-70.4038
-122.122
-139.479
-129.24
-135.207
-44.4656
-112.42
-71.8751
-63.3069
-133.658
-49.6444
-138.614
-57.312
-136.443
-135.429
-128.052
-145.685
-142.2
-49.7258
-49.1285
-56.8906
-57.0799
-133.859
-132.891
-129.297
-131.252
-134.741
-49.4698
-56.5196
-74.9687
-75.1423
-57.1882
-62.9869
-44.0905
-71.0362
-126.774
-57.7349
-57.4749
-63.1322
-63.4075
-44.1321
-72.0854
-129.626
-44.4895
-56.6744
-61.7704
-44.4912
-136.246
-129.391
-135.056
-44.1316
-116.963
-72.0704
-61.2396
-141.734
-134.711
-129.795
-132.875
-132.384
-44.163
-100.244
-70.0086
-44.7071
-60.7109
-133.171
-136.93
-62.1709
-61.0083
-61.2423
-44.4849
-49.331
-57.1586
-57.2359
-63.5899
-44.4233
-44.8533
-49.4739
-63.4797
-57.2672
-49.3833
-63.2622
-57.0557
-57.0866
-57.2937
-49.2126
-45.031
-45.0269
-44.369
-57.605
-57.6112
-63.6462
-44.3639
-44.8109
-63.8115
-49.4141
-57.361
-57.3679
-57.2884
-49.3189
-44.2731
-45.1769
-45.0807
-62.8044
-62.3229
-62.3419
-74.4563
-74.5792
-124.693
-132.85
-120.143
-133.963
-124.768
-133.993
-135.719
-126.235
-131.922
-129.689
-62.315
-61.8543
-62.0825
-45.0379
-124.231
-135.281
-72.9199
-73.0936
-136.609
-126.211
-71.2445
-70.1847
-138.426
-126.967
-146.323
-45.0016
-44.9386
-133.526
-136.806
-145.951
-138.694
-138.749
-144.682
-145.805
-126.315
-69.8701
-137.86
-130.687
-44.5814
-136.266
-139.746
-60.8971
-60.0188
-62.3536
-71.1969
-72.0265
-138.436
-127.358
-144.014
-44.0629
-129.024
-72.3225
-136.737
-130.589
-44.0968
-140.944
-61.8057
-61.6187
-44.8782
-57.2708
-57.4388
-63.5312
-49.4238
-63.1405
-57.0628
-44.3149
-44.9668
-135.549
-127.088
-136.369
-131.153
-74.5667
-74.619
-133.076
-121.717
-130.865
-72.0566
-72.4929
-44.9693
-57.0833
-57.8479
-63.664
-57.3612
-57.2585
-63.8888
-49.3889
-63.3126
-56.9697
-48.961
-125.912
-63.7802
-57.0781
-44.5562
-132.683
-125.636
-132.664
-73.783
-73.7845
-44.0616
-56.8603
-56.8696
-62.0662
-136.113
-49.0306
-61.4426
-56.7453
-128.044
-129.235
-73.3818
-44.3761
-72.8149
-44.3476
-45.146
-63.1135
-49.4449
-57.169
-56.7626
-57.1954
-49.0798
-44.6165
-129.414
-121.414
-136.268
-142.845
-127.861
-120.884
-138.178
-139.701
-71.9015
-130.864
-45.0416
-137.947
-136.039
-136.697
-63.1179
-49.5841
-57.4451
-63.3893
-49.7755
-136.783
-57.0061
-56.9034
-57.3847
-49.2644
-138.346
-127.174
-56.9984
-56.9382
-49.2001
-127.708
-144.3
-71.8418
-130.393
-44.5024
-135.767
-133.586
-137.006
-62.4102
-49.2129
-134.873
-56.6013
-56.8396
-56.5656
-133.815
-49.3905
-131.679
-73.0456
-121.631
-73.4062
-128.401
-130.643
-133.325
-44.3481
-60.4489
-59.5506
-60.1308
-74.5417
-133.716
-74.3397
-129.484
-133.337
-44.8176
-135.099
-136.961
-71.9318
-131.225
-44.9785
-144.312
-61.4613
-61.0928
-43.9391
-129.6
-72.98
-115.214
-130.077
-72.9119
-44.3784
-57.1411
-57.1601
-63.6376
-134.235
-124.564
-71.7512
-44.9574
-125.355
-72.8755
-44.5788
-126.086
-136.527
-70.9265
-131.753
-43.8301
-142.314
-63.9083
-140.128
-49.2664
-57.3365
-140.467
-131.48
-128.962
-71.7538
-136.905
-135.61
-72.3241
-129.751
-60.3706
-61.9682
-127.647
-72.5467
-44.2288
-127.383
-72.7153
-44.7122
-131.576
-132.249
-125.14
-73.0912
-129.256
-73.2631
)
;
    }
}


// ************************************************************************* //
