/*--------------------------------*- C++ -*----------------------------------*\
| =========                 |                                                 |
| \\      /  F ield         | OpenFOAM: The Open Source CFD Toolbox           |
|  \\    /   O peration     | Version:  v1912                                 |
|   \\  /    A nd           | Website:  www.openfoam.com                      |
|    \\/     M anipulation  |                                                 |
\*---------------------------------------------------------------------------*/
FoamFile
{
    version     2.0;
    format      ascii;
    class       volScalarField;
    location    "216/sphere";
    object      ddt0((betavSolid*thermo:rho),h);
}
// * * * * * * * * * * * * * * * * * * * * * * * * * * * * * * * * * * * * * //

dimensions      [1 -1 -3 0 0 0 0];


internalField   nonuniform List<scalar> 
6600
(
-637454
-637568
-637557
-637813
-637492
-637488
-637564
-638318
-638478
-638016
-637554
-638473
-638631
-638191
-637951
-638184
-637818
-637553
-637803
-637493
-637554
-638468
-638630
-638192
-637780
-638626
-638783
-638350
-637565
-637470
-638179
-638337
-638060
-637545
-637486
-637999
-638191
-637788
-637477
-638178
-638342
-638059
-637768
-638053
-637635
-637549
-637551
-637549
-637539
-637550
-637461
-637814
-637578
-638189
-638022
-638345
-638199
-638020
-638342
-638190
-637569
-637461
-637812
-637575
-638192
-638187
-638018
-637812
-637573
-637572
-637462
-637537
-637537
-637533
-637526
-637496
-637527
-637536
-637499
-637526
-637534
-637497
-637539
-637604
-637486
-637484
-637775
-638052
-637485
-637488
-638054
-637789
-637637
-637480
-637772
-637477
-638050
-637561
-637558
-637798
-638010
-638186
-638182
-638336
-637538
-637665
-637631
-637897
-637819
-637759
-637932
-637492
-637787
-638061
-637493
-637481
-637479
-638049
-637775
-637798
-637452
-637567
-638184
-638334
-638011
-638183
-637578
-637575
-637461
-638343
-638197
-638189
-638024
-638061
-637493
-637791
-637603
-637484
-637771
-638053
-637486
-638055
-637788
-637488
-637637
-637538
-637545
-637768
-637480
-637475
-638046
-637560
-637952
-638180
-637556
-637793
-638181
-638330
-637462
-638187
-638020
-637803
-637572
-638336
-638191
-637818
-637490
-638059
-637490
-637526
-637951
-637555
-638174
-637552
-638176
-637781
-638321
-637464
-638194
-637580
-638189
-637577
-638349
-637831
-637564
-637527
-638175
-637951
-637781
-638327
-637554
-638182
-637576
-638022
-637468
-638347
-637831
-638195
-637577
-637565
-637770
-637471
-638049
-637478
-638182
-637561
-638178
-638330
-637554
-637793
-638019
-637565
-637461
-638337
-638193
-637803
-637576
-638060
-637493
-637490
-637539
-637546
-637539
-637546
-637477
-637471
-638047
-637767
-637794
-638176
-638329
-637562
-637950
-638184
-637572
-638336
-638191
-637564
-637461
-638188
-638019
-638060
-637491
-637817
-637527
-638175
-637780
-638322
-637948
-637552
-638180
-637579
-638349
-637831
-638018
-637465
-638192
-637577
-637564
-637525
-638326
-637554
-638175
-637551
-638183
-637951
-637831
-638198
-637579
-638194
-637579
-638022
-637467
-638048
-637480
-637769
-638328
-637554
-637793
-637948
-638180
-637561
-638194
-637802
-637574
-638184
-638019
-637566
-637460
-637494
-637489
-637819
-637538
-637600
-637482
-637768
-638052
-637480
-638054
-637789
-637488
-637636
-637772
-637475
-638046
-637481
-638182
-638174
-638331
-637452
-637565
-637558
-637797
-638059
-637490
-637493
-638046
-637768
-637480
-638333
-638002
-638181
-637559
-637796
-637453
-637565
-637494
-637785
-637490
-637600
-638051
-637483
-637484
-637787
-637488
-637487
-637472
-637447
-637442
-637466
-637450
-637484
-637453
-637479
-637453
-637479
-637452
-637474
-637449
-637436
-637441
-637501
-637497
-637456
-637533
-637525
-637493
-637481
-637450
-637471
-637449
-637500
-637498
-637575
-637822
-637582
-637685
-637685
-637539
-637679
-637634
-637900
-637829
-637759
-637944
-637535
-637664
-637628
-637895
-637819
-637757
-637931
-637499
-637500
-637575
-637820
-637579
-637684
-637683
-637541
-637674
-637634
-637898
-637825
-637760
-637939
-637671
-637540
-637632
-637898
-637823
-637938
-637761
-637668
-637538
-637631
-637895
-637819
-637932
-637758
-637500
-637499
-637574
-637821
-637581
-637687
-637686
-637451
-637438
-637501
-637494
-637452
-637500
-637493
-637451
-637449
-637491
-637489
-637560
-637805
-637571
-637677
-637675
-637489
-637551
-637466
-637635
-637876
-637525
-637806
-637601
-637915
-637745
-637467
-637670
-637500
-637518
-637624
-637461
-637482
-637544
-637464
-637499
-637662
-637621
-637513
-637759
-637475
-637551
-637472
-637650
-637533
-637655
-637888
-637535
-637812
-637643
-637757
-637612
-637922
-637468
-637489
-637553
-637758
-637546
-637467
-637471
-637644
-637650
-637531
-637863
-637801
-637515
-637633
-637735
-637909
-637590
-637483
-637456
-637456
-637471
-637534
-637577
-637637
-637630
-637941
-637505
-637752
-637742
-637452
-637863
-637636
-637800
-637516
-637910
-637593
-637734
-637963
-637768
-638040
-637732
-638005
-637691
-637998
-637503
-637669
-637460
-637518
-637626
-637862
-637800
-637632
-637518
-637909
-637734
-637591
-637487
-637460
-637938
-638020
-637713
-637711
-637981
-637978
-637653
-637543
-637542
-637505
-637492
-637652
-637449
-637506
-637609
-637438
-637528
-637505
-637477
-637457
-637473
-637537
-637498
-637464
-637658
-637617
-637510
-637456
-637473
-637539
-637936
-637615
-637747
-637573
-637614
-637741
-637490
-637489
-637649
-637456
-637613
-637503
-637564
-637927
-637599
-637598
-637732
-637731
-637482
-637498
-637514
-637513
-637467
-637439
-637496
-637500
-637451
-637444
-637490
-637487
-637487
-637463
-637481
-637546
-637463
-637658
-637495
-637510
-637617
-637458
-637476
-637537
-637494
-637454
-637657
-637511
-637610
-637565
-637607
-637596
-637929
-637483
-637740
-637726
-637459
-637660
-637621
-637497
-637511
-637489
-637551
-637468
-637498
-637464
-637660
-637511
-637621
-637466
-637489
-637551
-637616
-637936
-637745
-637574
-637615
-637491
-637741
-637500
-637513
-637511
-637465
-637460
-637481
-637546
-637456
-637494
-637659
-637618
-637509
-637458
-637472
-637532
-637564
-637604
-637594
-637928
-637481
-637738
-637723
-637493
-637450
-637655
-637509
-637610
-637642
-637528
-637811
-637604
-637922
-637880
-637749
-637525
-637635
-637601
-637878
-637807
-637747
-637916
-637463
-637669
-637623
-637499
-637519
-637615
-637935
-637743
-637572
-637611
-637491
-637742
-637469
-637490
-637553
-637501
-637469
-637667
-637515
-637625
-637492
-637454
-637659
-637509
-637616
-637458
-637482
-637543
-637492
-637653
-637449
-637507
-637606
-637455
-637470
-637531
-637562
-637607
-637928
-637595
-637736
-637482
-637723
-637723
-637729
-638038
-637952
-637665
-637992
-637996
-637804
-637490
-637491
-637571
-637561
-637672
-637676
-637648
-637879
-637531
-637814
-637605
-637924
-637749
-637677
-637542
-637830
-637633
-637943
-637901
-637765
-637671
-637542
-637634
-637899
-637822
-637935
-637761
-637500
-637497
-637576
-637824
-637581
-637689
-637686
-637469
-637491
-637554
-637501
-637666
-637465
-637516
-637623
-637576
-637617
-637939
-637618
-637749
-637490
-637743
-637468
-637490
-637552
-637496
-637490
-637488
-637496
-637456
-637660
-637617
-637512
-637563
-637607
-637926
-637595
-637734
-637477
-637724
-637460
-637474
-637536
-637496
-637659
-637460
-637512
-637614
-637468
-637490
-637551
-637572
-637615
-637936
-637615
-637746
-637488
-637739
-637501
-637662
-637463
-637513
-637623
-637467
-637488
-637549
-637499
-637514
-637514
-637467
-637444
-637441
-637497
-637492
-637450
-637454
-637506
-637528
-637480
-637476
-637449
-637457
-637475
-637539
-637457
-637473
-637534
-637561
-637598
-637595
-637924
-637480
-637731
-637723
-637491
-637456
-637652
-637612
-637505
-637491
-637450
-637650
-637608
-637505
-637864
-637523
-637806
-637638
-637738
-637594
-637914
-637866
-637524
-637633
-637804
-637593
-637746
-637910
-637943
-637721
-637717
-638032
-637658
-637989
-637986
-637815
-637497
-637583
-637498
-637684
-637567
-637684
-637964
-637732
-637767
-638040
-637690
-637998
-638005
-637891
-637536
-637666
-637823
-637622
-637760
-637934
-637578
-637633
-637632
-637942
-637504
-637748
-637748
-637469
-637492
-637554
-637499
-637463
-637664
-637623
-637513
-637500
-637465
-637665
-637623
-637514
-637431
-637436
-637488
-637488
-637446
-637860
-637518
-637802
-637631
-637735
-637590
-637907
-637863
-637517
-637800
-637630
-637737
-637590
-637908
-637939
-637711
-637714
-638020
-637654
-637979
-637981
-637825
-637584
-637502
-637501
-637689
-637689
-637577
-637904
-637545
-637829
-637681
-637765
-637639
-637946
-637901
-637540
-637827
-637678
-637762
-637633
-637944
-637980
-637786
-637787
-638066
-637720
-638023
-638022
-637485
-637454
-637487
-637452
-637540
-637542
-637502
-637437
-637491
-637488
-637451
-637432
-637762
-637469
-637547
-637469
-637646
-637529
-637651
-637941
-637716
-638020
-637712
-637982
-637657
-637981
-637864
-637519
-637634
-637802
-637589
-637740
-637909
-637902
-637827
-637541
-637677
-637763
-637944
-637636
-637826
-637505
-637587
-637503
-637688
-637579
-637690
-637980
-637787
-638066
-637788
-638022
-637722
-638022
-637902
-637541
-637679
-637827
-637635
-637762
-637944
-637541
-637542
-637505
-637485
-637455
-637561
-637594
-637602
-637925
-637480
-637723
-637731
-637458
-637475
-637537
-637493
-637449
-637653
-637612
-637508
-637492
-637454
-637653
-637610
-637506
-637759
-637547
-637472
-637470
-637650
-637650
-637532
-637867
-637808
-637523
-637642
-637741
-637917
-637596
-637863
-637520
-637802
-637631
-637739
-637592
-637908
-637945
-637726
-638031
-637718
-637992
-637665
-637985
-637885
-637812
-637532
-637647
-637751
-637923
-637611
-637813
-637582
-637493
-637497
-637679
-637684
-637566
-637964
-637733
-638039
-637768
-637999
-637690
-638005
-637892
-637537
-637825
-637671
-637757
-637624
-637936
-637469
-637492
-637555
-637466
-637490
-637550
-637500
-637466
-637664
-637622
-637513
-637501
-637459
-637667
-637623
-637515
-637451
-637443
-637501
-637494
-637460
-637506
-637529
-637482
-637476
-637450
-637441
-637495
-637500
-637461
-637446
-637528
-637506
-637480
-637474
-637447
-637447
-637491
-637651
-637452
-637504
-637608
-637489
-637650
-637443
-637504
-637607
-637456
-637472
-637533
-637457
-637475
-637535
-637561
-637923
-637593
-637598
-637723
-637728
-637479
-637946
-637721
-638032
-637725
-637987
-637664
-637991
-637759
-637468
-637473
-637546
-637532
-637647
-637651
-637868
-637641
-637524
-637809
-637597
-637917
-637742
-637890
-637666
-637823
-637534
-637934
-637621
-637756
-637886
-637646
-637534
-637811
-637609
-637923
-637753
-637813
-637497
-637494
-637580
-637564
-637683
-637680
-637502
-637665
-637470
-637516
-637623
-637466
-637488
-637552
-637576
-637940
-637633
-637628
-637748
-637742
-637503
-637465
-637489
-637552
-637439
-637489
-637488
-637451
-637434
-637941
-637715
-638020
-637712
-637982
-637658
-637979
-637757
-637465
-637546
-637470
-637647
-637529
-637651
-637864
-637627
-637519
-637801
-637591
-637906
-637741
-637902
-637828
-637680
-637543
-637945
-637764
-637638
-637980
-637788
-638066
-637787
-638022
-637724
-638022
-637825
-637503
-637582
-637500
-637691
-637578
-637687
-637902
-637678
-637541
-637827
-637636
-637944
-637762
-637542
-637541
-637505
-637484
-637456
-637487
-637486
-637446
-637432
-637433
-637861
-637630
-637801
-637518
-637908
-637589
-637736
-637863
-637627
-637800
-637521
-637905
-637590
-637746
-637756
-637463
-637472
-637546
-637528
-637646
-637653
-637981
-638066
-637789
-637788
-638023
-638022
-637723
-637903
-637681
-637828
-637543
-637946
-637637
-637761
-637903
-637680
-637829
-637543
-637945
-637638
-637763
-637825
-637502
-637504
-637585
-637578
-637689
-637689
-637486
-637457
-637485
-637455
-637490
-637653
-637458
-637506
-637613
-637453
-637470
-637532
-637561
-637925
-637595
-637600
-637723
-637730
-637478
-637459
-637474
-637537
-637867
-637802
-637629
-637522
-637908
-637744
-637594
-637945
-638031
-637719
-637724
-637985
-637990
-637661
-637763
-637475
-637546
-637471
-637654
-637536
-637647
-637865
-637639
-637807
-637520
-637916
-637595
-637736
-637962
-638038
-637767
-637730
-638004
-637996
-637687
-637892
-637824
-637669
-637536
-637935
-637760
-637623
-637886
-637645
-637812
-637537
-637922
-637611
-637753
-637815
-637498
-637579
-637496
-637684
-637568
-637679
-637502
-637665
-637466
-637515
-637622
-637501
-637665
-637464
-637514
-637623
-637579
-637944
-637636
-637629
-637753
-637743
-637505
-637471
-637491
-637554
-637466
-637489
-637551
-637495
-637500
-637454
-637445
-637475
-637445
-637449
-637485
-637486
-637491
-637496
-637459
-637658
-637615
-637512
-637562
-637599
-637925
-637599
-637730
-637479
-637729
-637460
-637481
-637542
-637660
-637449
-637496
-637511
-637616
-637467
-637488
-637550
-637935
-637612
-637738
-637572
-637617
-637746
-637490
-637464
-637662
-637621
-637497
-637512
-637484
-637549
-637465
-637498
-637512
-637513
-637467
-637561
-637600
-637926
-637601
-637732
-637479
-637728
-637490
-637454
-637651
-637611
-637504
-637456
-637478
-637540
-637457
-637491
-637653
-637612
-637506
-637489
-637486
-637556
-637801
-637569
-637672
-637671
-637646
-637814
-637530
-637924
-637605
-637879
-637748
-637525
-637638
-637600
-637875
-637804
-637744
-637914
-637464
-637486
-637552
-637499
-637465
-637666
-637623
-637516
-637488
-637551
-637467
-637464
-637665
-637623
-637501
-637517
-637456
-637473
-637539
-637559
-637923
-637599
-637598
-637729
-637727
-637479
-637457
-637490
-637653
-637505
-637611
-637458
-637477
-637541
-637637
-637528
-637602
-637875
-637805
-637915
-637744
-637488
-637490
-637557
-637801
-637573
-637672
-637674
-637645
-637812
-637527
-637922
-637601
-637876
-637746
-637503
-637669
-637467
-637627
-637517
-637934
-637611
-637742
-637574
-637613
-637742
-637492
-637470
-637493
-637553
-637468
-637663
-637621
-637499
-637514
-637486
-637552
-637467
-637487
-637483
-637489
-637462
-637474
-637536
-637494
-637656
-637451
-637610
-637511
-637462
-637483
-637544
-637657
-637456
-637494
-637614
-637510
-637935
-637613
-637745
-637573
-637615
-637739
-637491
-637499
-637658
-637463
-637618
-637512
-637467
-637488
-637549
-637462
-637659
-637618
-637498
-637512
-637488
-637551
-637466
-637779
-637768
-638049
-637712
-638015
-637973
-638007
-638477
-638470
-638627
-638469
-638623
-638619
-638773
-638320
-638635
-638484
-638627
-638476
-638781
-638634
-638624
-638317
-638472
-638627
-638775
-638475
-638624
-638481
-638476
-638325
-638782
-638634
-638631
-638484
-638009
-638075
-637749
-638079
-637892
-638187
-637894
-638622
-638618
-638772
-638315
-638475
-638469
-638622
-638479
-638782
-638634
-638482
-638324
-638634
-638481
-638774
-638472
-638622
-638477
-638626
-638319
-638471
-638636
-638631
-638486
-638634
-638483
-638477
-638325
-637647
-637886
-637886
-638022
-637674
-637846
-637843
-638017
-637884
-637841
-637646
-637887
-637843
-637675
-638013
-637881
-637839
-637643
-637880
-637837
-637672
-637770
-637781
-637718
-637975
-638050
-638007
-638015
-637769
-637778
-637715
-637972
-638048
-638006
-638013
-637778
-637769
-637715
-637971
-638048
-638012
-638006
-637879
-637638
-637879
-638009
-637670
-637836
-637829
-637881
-638015
-637840
-637643
-637881
-637670
-637839
-637638
-637879
-638008
-637876
-637836
-637667
-637828
-637730
-637725
-638039
-637669
-637997
-637955
-637994
-637888
-638018
-637842
-637645
-637887
-637677
-637842
-637635
-637878
-637875
-638007
-637666
-637834
-637826
-637888
-637647
-637887
-638019
-637677
-637844
-637843
-637639
-637880
-638009
-637881
-637835
-637671
-637832
-637645
-637882
-638015
-637883
-637841
-637673
-637840
-637633
-638004
-637874
-637872
-637831
-637826
-637664
-638010
-637753
-638076
-638081
-637893
-637898
-638189
-637646
-638019
-637886
-637885
-637844
-637844
-637674
-638008
-637750
-638076
-638075
-637890
-637892
-638187
-638010
-638076
-637749
-638076
-637892
-638186
-637893
-637636
-638006
-637876
-637876
-637830
-637831
-637667
-637645
-638020
-637886
-637886
-637845
-637842
-637674
-637632
-637873
-637872
-638004
-637662
-637826
-637827
-638008
-638073
-637748
-638080
-637889
-638186
-637895
-637648
-637889
-637885
-638019
-637677
-637847
-637841
-638007
-638076
-637746
-638077
-637891
-638184
-637893
-638009
-638076
-638080
-637752
-638187
-637891
-637897
-637634
-637875
-637875
-638004
-637665
-637828
-637830
-638010
-638077
-638079
-637747
-638186
-637894
-637893
-637880
-637639
-637879
-638009
-637833
-637670
-637833
-638014
-637881
-637838
-637642
-637880
-637839
-637671
-637635
-638006
-637874
-637874
-637831
-637829
-637663
-637731
-638037
-637723
-637997
-637667
-637952
-637990
-638017
-637885
-637843
-637648
-637886
-637842
-637677
-637633
-637873
-638004
-637873
-637830
-637663
-637828
-637729
-638036
-637718
-637995
-637662
-637949
-637988
-637879
-637637
-638008
-637878
-637831
-637832
-637670
-637170
-636745
-636389
-637180
-636752
-636392
-637181
-636753
-636393
-637193
-636765
-636397
-637187
-636759
-636391
-637183
-636758
-636399
-637193
-636766
-636403
-637184
-636759
-636397
-637188
-636760
-636398
-637195
-636768
-636402
-637190
-636762
-636394
-637181
-636755
-636388
-637186
-636760
-636397
-637197
-636769
-636404
-637190
-636762
-636392
-637194
-636767
-636402
-637158
-636734
-636375
-637164
-636738
-636379
-637185
-636757
-636391
-637185
-636759
-636396
-637185
-636758
-636396
-637174
-636748
-636384
-637178
-636750
-636387
-637181
-636753
-636388
-637182
-636754
-636390
-637181
-636753
-636388
-637178
-636750
-636385
-637183
-636755
-636389
-637181
-636754
-636395
-637188
-636760
-636398
-637184
-636756
-636397
-637185
-636757
-636397
-637186
-636757
-636397
-637176
-636748
-636382
-637176
-636748
-636383
-637183
-636755
-636389
-637176
-636749
-636383
-637180
-636752
-636385
-637184
-636756
-636390
-637177
-636749
-636383
-637183
-636755
-636389
-637179
-636751
-636384
-637188
-636760
-636397
-637185
-636758
-636395
-637182
-636755
-636394
-637191
-636763
-636399
-637176
-636749
-636388
-637178
-636751
-636389
-637197
-636770
-636400
-637194
-636767
-636403
-637189
-636764
-636403
-637193
-636766
-636404
-637179
-636752
-636390
-637182
-636754
-636390
-637185
-636757
-636397
-637180
-636753
-636395
-637188
-636763
-636401
-637193
-636766
-636402
-637181
-636755
-636393
-637182
-636756
-636394
-637189
-636761
-636398
-637184
-636758
-636396
-637190
-636762
-636399
-637181
-636753
-636387
-637184
-636757
-636392
-637182
-636754
-636391
-637175
-636747
-636384
-637188
-636760
-636399
-637185
-636760
-636398
-637186
-636760
-636399
-637170
-636741
-636374
-637205
-636777
-636411
-637202
-636774
-636407
-637193
-636766
-636402
-637169
-636740
-636374
-637187
-636760
-636403
-637193
-636765
-636404
-637200
-636773
-636408
-637194
-636767
-636403
-637165
-636739
-636379
-637173
-636747
-636386
-637178
-636751
-636389
-637193
-636766
-636399
-637186
-636759
-636391
-637187
-636759
-636399
-637178
-636752
-636395
-637203
-636774
-636406
-637191
-636766
-636403
-637191
-636764
-636402
-637181
-636756
-636395
-637188
-636761
-636399
-637181
-636754
-636387
-637185
-636757
-636391
-637181
-636754
-636387
-637184
-636757
-636391
-637179
-636751
-636388
-637167
-636740
-636379
-637188
-636760
-636399
-637186
-636757
-636398
-637187
-636762
-636400
-637189
-636762
-636401
-637170
-636741
-636374
-637179
-636754
-636398
-637190
-636762
-636401
-637200
-636772
-636406
-637193
-636766
-636402
-637167
-636738
-636372
-637205
-636778
-636411
-637204
-636776
-636409
-637183
-636758
-636402
-637191
-636763
-636403
-637196
-636767
-636405
-637176
-636751
-636387
-637181
-636753
-636390
-637193
-636766
-636399
-637200
-636771
-636404
-637200
-636773
-636405
-637186
-636758
-636400
-637178
-636752
-636396
-637185
-636757
-636398
-637193
-636766
-636403
-637188
-636761
-636399
-637183
-636755
-636388
-637182
-636755
-636394
-637167
-636743
-636384
-637177
-636751
-636390
-637181
-636755
-636393
-637191
-636763
-636398
-637175
-636747
-636386
-637175
-636749
-636388
-637183
-636755
-636392
-637183
-636758
-636397
-637186
-636760
-636399
-637191
-636765
-636402
-637194
-636767
-636404
-637174
-636749
-636389
-637181
-636754
-636391
-637178
-636751
-636391
-637196
-636769
-636404
-637188
-636761
-636400
-637181
-636756
-636393
-637182
-636755
-636393
-637180
-636755
-636394
-637186
-636758
-636395
-637191
-636763
-636399
-637188
-636761
-636398
-637169
-636744
-636381
-637174
-636747
-636390
-637180
-636751
-636389
-637150
-636726
-636371
-637160
-636735
-636374
-637178
-636750
-636391
-637178
-636752
-636389
-637174
-636749
-636386
-637179
-636753
-636389
-637184
-636756
-636395
-637165
-636740
-636379
-637179
-636751
-636391
-637147
-636724
-636370
-637169
-636743
-636385
-637163
-636738
-636379
-637173
-636747
-636390
-637172
-636747
-636380
-637173
-636747
-636380
-637180
-636753
-636387
-637175
-636747
-636380
-637173
-636747
-636386
-637176
-636748
-636388
-637159
-636735
-636375
-637173
-636745
-636386
-637195
-636766
-636403
-637194
-636766
-636403
-637198
-636769
-636405
-637191
-636763
-636403
-637196
-636768
-636406
-637193
-636765
-636403
-637162
-636738
-636381
-637186
-636759
-636398
-637174
-636748
-636387
-637147
-636725
-636369
-637169
-636744
-636378
-637166
-636741
-636373
-637171
-636745
-636379
-637167
-636741
-636374
-637179
-636751
-636391
-637157
-636733
-636378
-637174
-636747
-636390
-637194
-636765
-636401
-637195
-636766
-636401
-637193
-636765
-636405
-637203
-636774
-636410
-637190
-636762
-636401
-637191
-636763
-636402
-637183
-636757
-636398
-637190
-636764
-636398
-637200
-636773
-636404
-637184
-636758
-636399
-637182
-636756
-636397
-637196
-636768
-636405
-637190
-636764
-636401
-637192
-636765
-636403
-637198
-636772
-636408
-637182
-636754
-636394
-637181
-636752
-636393
-637179
-636751
-636391
-637188
-636759
-636397
-637196
-636767
-636403
-637180
-636753
-636395
-637179
-636753
-636395
-637188
-636760
-636400
-637189
-636763
-636399
-637192
-636765
-636402
-637194
-636768
-636404
-637191
-636763
-636401
-637188
-636761
-636401
-637179
-636754
-636397
-637192
-636765
-636404
-637196
-636770
-636404
-637198
-636772
-636406
-637212
-636783
-636414
-637191
-636762
-636401
-637191
-636763
-636402
-637186
-636759
-636398
-637198
-636768
-636406
-637201
-636770
-636408
-637177
-636750
-636392
-637180
-636754
-636395
-637188
-636760
-636398
-637183
-636756
-636397
-637195
-636768
-636403
-637182
-636756
-636392
-637192
-636764
-636396
-637180
-636755
-636392
-637185
-636757
-636397
-637177
-636749
-636390
-637178
-636750
-636391
-637174
-636747
-636387
-637184
-636756
-636396
-637185
-636757
-636398
-637199
-636772
-636407
-637198
-636771
-636406
-637189
-636760
-636397
-637168
-636743
-636385
-637186
-636759
-636395
-637200
-636772
-636405
-637197
-636770
-636403
-637191
-636764
-636402
-637181
-636754
-636395
-637170
-636745
-636389
-637174
-636747
-636393
-637196
-636769
-636407
-637188
-636761
-636394
-637197
-636769
-636400
-637183
-636757
-636395
-637184
-636757
-636398
-637191
-636764
-636399
-637189
-636763
-636397
-637186
-636759
-636391
-637185
-636758
-636393
-637166
-636740
-636382
-637160
-636735
-636379
-637176
-636748
-636386
-637188
-636761
-636397
-637157
-636733
-636376
-637173
-636746
-636388
-637180
-636753
-636388
-637179
-636753
-636385
-637190
-636762
-636401
-637177
-636750
-636392
-637178
-636750
-636392
-637177
-636750
-636390
-637186
-636757
-636397
-637185
-636757
-636398
-637191
-636765
-636400
-637193
-636765
-636401
-637183
-636756
-636396
-637185
-636759
-636399
-637187
-636759
-636400
-637191
-636764
-636402
-637177
-636749
-636389
-637174
-636746
-636388
-637172
-636745
-636385
-637184
-636755
-636395
-637181
-636753
-636395
-637203
-636774
-636410
-637197
-636768
-636405
-637197
-636769
-636406
-637180
-636753
-636389
-637185
-636757
-636393
-637172
-636745
-636386
-637169
-636743
-636386
-637185
-636757
-636395
-637186
-636758
-636395
-637195
-636767
-636403
-637191
-636763
-636401
-637193
-636765
-636402
-637206
-636777
-636414
-637206
-636776
-636413
-637205
-636776
-636412
-637211
-636782
-636415
-637203
-636775
-636411
-637207
-636778
-636412
-637202
-636774
-636409
-637190
-636762
-636404
-637191
-636762
-636403
-637157
-636732
-636375
-637164
-636738
-636383
-637171
-636745
-636378
-637169
-636743
-636377
-637178
-636753
-636393
-637151
-636728
-636373
-637170
-636744
-636387
-637199
-636770
-636406
-637196
-636768
-636405
-637197
-636769
-636406
-637191
-636763
-636403
-637197
-636769
-636405
-637192
-636764
-636403
-637185
-636757
-636396
-637185
-636756
-636396
-637180
-636752
-636392
-637192
-636763
-636400
-637183
-636755
-636395
-637187
-636761
-636397
-637179
-636752
-636392
-637179
-636751
-636393
-637178
-636751
-636391
-637186
-636759
-636399
-637185
-636759
-636394
-637172
-636746
-636388
-637173
-636747
-636390
-637183
-636755
-636395
-637190
-636764
-636398
-637200
-636770
-636407
-637201
-636772
-636409
-637190
-636762
-636401
-637194
-636764
-636403
-637186
-636758
-636397
-637191
-636765
-636400
-637183
-636756
-636396
-637187
-636760
-636401
-637188
-636761
-636401
-637187
-636758
-636399
-637186
-636759
-636397
-637195
-636766
-636404
-637199
-636770
-636406
-637205
-636776
-636411
-637204
-636775
-636413
-637203
-636774
-636413
-637205
-636776
-636411
-637205
-636777
-636411
-637203
-636775
-636410
-637187
-636759
-636401
-637183
-636754
-636395
-637180
-636752
-636393
-637179
-636751
-636391
-637188
-636760
-636398
-637171
-636745
-636387
-637185
-636759
-636394
-637178
-636750
-636392
-637179
-636751
-636391
-637179
-636752
-636390
-637189
-636760
-636399
-637185
-636758
-636393
-637171
-636744
-636385
-637181
-636755
-636396
-637191
-636765
-636401
-637190
-636764
-636402
-637197
-636771
-636408
-637201
-636773
-636409
-637195
-636766
-636405
-637191
-636763
-636403
-637191
-636764
-636401
-637202
-636772
-636409
-637195
-636769
-636404
-637185
-636758
-636400
-637186
-636760
-636401
-637184
-636757
-636392
-637171
-636744
-636386
-637178
-636750
-636390
-637180
-636752
-636392
-637179
-636751
-636393
-637175
-636749
-636388
-637188
-636759
-636399
-637200
-636771
-636405
-637185
-636758
-636392
-637173
-636745
-636385
-637167
-636741
-636385
-637174
-636747
-636387
-637172
-636746
-636390
-637173
-636746
-636386
-637188
-636760
-636398
-637185
-636757
-636398
-637200
-636772
-636407
-637198
-636770
-636406
-637189
-636761
-636401
-637189
-636762
-636403
-637193
-636764
-636403
-637187
-636760
-636399
-637201
-636772
-636408
-637193
-636767
-636401
-637183
-636756
-636397
-637188
-636760
-636402
-637181
-636756
-636397
-637195
-636767
-636406
-637203
-636774
-636410
-637191
-636764
-636402
-637191
-636762
-636402
-637185
-636758
-636398
-637196
-636767
-636405
-637200
-636771
-636408
-637203
-636774
-636410
-637197
-636768
-636406
-637203
-636775
-636411
-637204
-636776
-636410
-637197
-636769
-636405
-637200
-636771
-636407
-637193
-636765
-636403
-637188
-636762
-636396
-637190
-636763
-636399
-637170
-636744
-636388
-637194
-636767
-636403
-637189
-636761
-636398
-637181
-636753
-636393
-637181
-636753
-636394
-637179
-636752
-636391
-637190
-636761
-636399
-637190
-636764
-636398
-637182
-636754
-636394
-637176
-636750
-636392
-637189
-636762
-636401
-637194
-636765
-636404
-637184
-636757
-636397
-637199
-636770
-636407
-637195
-636767
-636405
-637199
-636770
-636408
-637195
-636768
-636402
-637181
-636755
-636396
-637182
-636755
-636397
-637175
-636750
-636393
-637189
-636760
-636400
-637190
-636762
-636401
-637184
-636757
-636397
-637195
-636766
-636404
-637200
-636770
-636407
-637208
-636779
-636414
-637203
-636774
-636412
-637205
-636776
-636412
-637205
-636776
-636411
-637203
-636775
-636411
-637207
-636778
-636412
-637189
-636761
-636404
-637191
-636762
-636404
-637162
-636737
-636379
-637168
-636741
-636385
-637177
-636749
-636387
-637152
-636728
-636372
-637175
-636749
-636382
-637167
-636742
-636376
-637172
-636747
-636387
-637192
-636763
-636400
-637181
-636755
-636388
-637183
-636756
-636392
-637179
-636753
-636389
-637177
-636749
-636392
-637178
-636751
-636392
-637178
-636751
-636390
-637188
-636760
-636399
-637178
-636750
-636392
-637179
-636751
-636391
-637179
-636751
-636390
-637186
-636758
-636398
-637183
-636757
-636392
-637175
-636749
-636389
-637184
-636757
-636391
-637167
-636740
-636382
-637201
-636773
-636407
-637190
-636762
-636402
-637189
-636762
-636402
-637182
-636756
-636397
-637201
-636772
-636409
-637191
-636765
-636400
-637192
-636765
-636401
-637182
-636755
-636396
-637194
-636767
-636404
-637194
-636768
-636402
-637183
-636756
-636397
-637181
-636755
-636396
-637162
-636735
-636377
-637140
-636717
-636363
-637171
-636743
-636383
-637151
-636727
-636369
-637163
-636736
-636368
-637164
-636738
-636371
-637202
-636776
-636407
-637196
-636771
-636402
-637179
-636754
-636392
-637185
-636759
-636395
-637188
-636762
-636397
-637192
-636765
-636399
-637145
-636722
-636366
-637172
-636744
-636382
-637165
-636738
-636370
-637164
-636737
-636369
-637172
-636745
-636384
-637169
-636741
-636378
-637137
-636714
-636360
-637200
-636773
-636409
-637199
-636772
-636409
-637200
-636771
-636409
-637204
-636777
-636410
-637197
-636772
-636404
-637190
-636763
-636398
-637191
-636764
-636399
-637182
-636757
-636394
-637190
-636761
-636398
-637180
-636752
-636392
-637179
-636752
-636392
-637176
-636748
-636388
-637189
-636760
-636398
-637184
-636757
-636391
-637187
-636759
-636395
-637167
-636740
-636381
-637191
-636764
-636399
-637182
-636756
-636391
-637175
-636747
-636387
-637170
-636744
-636386
-637190
-636765
-636400
-637203
-636774
-636406
-637188
-636762
-636396
-637198
-636770
-636402
-637188
-636763
-636400
-637196
-636767
-636404
-637195
-636768
-636403
-637196
-636770
-636404
-637195
-636769
-636400
-637191
-636763
-636403
-637190
-636762
-636402
-637186
-636759
-636398
-637199
-636770
-636408
-637186
-636758
-636400
-637190
-636762
-636401
-637184
-636757
-636397
-637197
-636768
-636406
-637192
-636766
-636401
-637194
-636766
-636402
-637184
-636757
-636398
-637185
-636759
-636399
-637195
-636768