/*--------------------------------*- C++ -*----------------------------------*\
| =========                 |                                                 |
| \\      /  F ield         | OpenFOAM: The Open Source CFD Toolbox           |
|  \\    /   O peration     | Version:  v1906                                 |
|   \\  /    A nd           | Web:      www.OpenFOAM.com                      |
|    \\/     M anipulation  |                                                 |
\*---------------------------------------------------------------------------*/
FoamFile
{
    version     2.0;
    format      ascii;
    class       volVectorField;
    location    "16.2/oil";
    object      U;
}
// * * * * * * * * * * * * * * * * * * * * * * * * * * * * * * * * * * * * * //

dimensions      [0 1 -1 0 0 0 0];


internalField   nonuniform List<vector> 
27760
(
(-3.1058e-05 -3.1691e-05 -3.1058e-05)
(-6.13505e-05 -2.37878e-05 -2.23622e-05)
(-4.56697e-06 -6.18509e-06 -6.08119e-06)
(-7.54272e-06 -1.03039e-06 -1.05862e-06)
(-1.92563e-06 -3.53121e-07 -3.80238e-07)
(-1.1729e-06 -1.7358e-07 -1.94621e-07)
(-4.97479e-07 -6.82501e-08 -8.69088e-08)
(-2.05847e-07 -2.78558e-08 -4.61908e-08)
(-4.7985e-08 -8.21788e-09 -2.69174e-08)
(3.06297e-08 1.44974e-09 -1.77227e-08)
(6.52066e-08 6.77414e-09 -1.2796e-08)
(7.15304e-08 9.99082e-09 -9.82054e-09)
(5.88511e-08 1.20507e-08 -7.91514e-09)
(3.31919e-08 1.33255e-08 -6.71141e-09)
(-5.85352e-10 1.39957e-08 -6.05998e-09)
(-3.80955e-08 1.41705e-08 -5.88026e-09)
(-7.5307e-08 1.39096e-08 -6.1141e-09)
(-1.08644e-07 1.32712e-08 -6.68632e-09)
(-1.35211e-07 1.23001e-08 -7.50564e-09)
(-1.52976e-07 1.10727e-08 -8.44823e-09)
(-1.60831e-07 9.6856e-09 -9.3689e-09)
(-1.58613e-07 8.21534e-09 -1.01303e-08)
(-1.47059e-07 6.71523e-09 -1.05998e-08)
(-1.27657e-07 5.23905e-09 -1.0622e-08)
(-1.02544e-07 3.80609e-09 -1.01173e-08)
(-7.44411e-08 2.46289e-09 -9.00885e-09)
(-4.65206e-08 1.32536e-09 -7.27863e-09)
(-2.23379e-08 6.29546e-10 -5.05458e-09)
(-5.36624e-09 7.85307e-10 -2.78474e-09)
(8.97099e-10 1.62942e-09 -7.64335e-10)
(-2.25538e-05 -6.30127e-05 -2.25538e-05)
(-7.48319e-06 -8.05373e-06 -1.01033e-05)
(-1.02637e-05 -9.70768e-06 -3.52841e-06)
(-5.08715e-06 -2.6312e-06 -1.00129e-06)
(-2.49093e-06 -1.49224e-06 -4.87927e-07)
(-1.39363e-06 -7.02182e-07 -2.30735e-07)
(-6.6161e-07 -3.74099e-07 -1.07283e-07)
(-2.70878e-07 -2.0967e-07 -5.13185e-08)
(-4.30479e-08 -1.2608e-07 -2.27411e-08)
(7.9368e-08 -7.99103e-08 -7.51133e-09)
(1.34167e-07 -5.24192e-08 1.55748e-09)
(1.41238e-07 -3.47914e-08 7.45838e-09)
(1.1375e-07 -2.30726e-08 1.14718e-08)
(6.16851e-08 -1.54666e-08 1.41234e-08)
(-6.06612e-09 -1.11446e-08 1.55885e-08)
(-8.11297e-08 -9.64493e-09 1.59367e-08)
(-1.55643e-07 -1.06191e-08 1.526e-08)
(-2.22572e-07 -1.36836e-08 1.37088e-08)
(-2.76163e-07 -1.8386e-08 1.15149e-08)
(-3.1231e-07 -2.41996e-08 8.93997e-09)
(-3.28804e-07 -3.05601e-08 6.25593e-09)
(-3.2536e-07 -3.69333e-08 3.73076e-09)
(-3.03455e-07 -4.28214e-08 1.61439e-09)
(-2.66088e-07 -4.7733e-08 1.16247e-10)
(-2.17504e-07 -5.1164e-08 -6.24751e-10)
(-1.62925e-07 -5.24403e-08 -5.45942e-10)
(-1.08233e-07 -5.05532e-08 2.8443e-10)
(-5.95191e-08 -4.4035e-08 1.55889e-09)
(-2.25096e-08 -3.08669e-08 2.52343e-09)
(-1.78944e-09 -1.08298e-08 1.98762e-09)
(-6.25673e-06 -5.7327e-06 -6.25675e-06)
(-9.99751e-06 -1.064e-05 -3.63803e-06)
(-5.53951e-06 -5.60769e-06 -1.61993e-06)
(-3.72006e-06 -2.83508e-06 -7.76368e-07)
(-2.0918e-06 -1.67551e-06 -3.7539e-07)
(-1.19578e-06 -9.692e-07 -1.80811e-07)
(-5.86012e-07 -6.15093e-07 -8.30616e-08)
(-2.20337e-07 -4.17806e-07 -3.46498e-08)
(5.26144e-09 -3.05595e-07 -8.28899e-09)
(1.31204e-07 -2.37418e-07 6.98359e-09)
(1.86299e-07 -1.93443e-07 1.68524e-08)
(1.87633e-07 -1.63577e-07 2.37328e-08)
(1.48023e-07 -1.42914e-07 2.8654e-08)
(7.84002e-08 -1.29072e-07 3.1985e-08)
(-1.07223e-08 -1.20916e-07 3.38238e-08)
(-1.08956e-07 -1.17766e-07 3.42183e-08)
(-2.06322e-07 -1.19012e-07 3.32623e-08)
(-2.93799e-07 -1.23934e-07 3.11357e-08)
(-3.63986e-07 -1.31616e-07 2.81164e-08)
(-4.11636e-07 -1.41025e-07 2.45357e-08)
(-4.33939e-07 -1.51068e-07 2.07477e-08)
(-4.30562e-07 -1.60665e-07 1.70912e-08)
(-4.03436e-07 -1.68754e-07 1.38604e-08)
(-3.56431e-07 -1.7426e-07 1.1284e-08)
(-2.94917e-07 -1.75968e-07 9.49961e-09)
(-2.25347e-07 -1.72311e-07 8.53471e-09)
(-1.54784e-07 -1.61083e-07 8.25728e-09)
(-9.01735e-08 -1.39167e-07 8.24573e-09)
(-3.8227e-08 -1.02046e-07 7.61388e-09)
(-4.17841e-09 -4.45064e-08 4.43259e-09)
(-1.15108e-06 -8.14425e-06 -1.1511e-06)
(-2.82548e-06 -5.59465e-06 -1.06523e-06)
(-2.70323e-06 -4.13239e-06 -7.88696e-07)
(-2.12056e-06 -2.56961e-06 -4.3627e-07)
(-1.34546e-06 -1.71136e-06 -2.30088e-07)
(-7.99147e-07 -1.15725e-06 -1.15613e-07)
(-3.8024e-07 -8.40213e-07 -5.13796e-08)
(-9.73058e-08 -6.46562e-07 -1.59515e-08)
(8.85876e-08 -5.26203e-07 5.23293e-09)
(1.95102e-07 -4.47248e-07 1.88115e-08)
(2.379e-07 -3.92938e-07 2.83964e-08)
(2.28198e-07 -3.54178e-07 3.55482e-08)
(1.76244e-07 -3.26366e-07 4.08911e-08)
(9.23015e-08 -3.07244e-07 4.45906e-08)
(-1.27412e-08 -2.9569e-07 4.6636e-08)
(-1.27539e-07 -2.90946e-07 4.70303e-08)
(-2.40927e-07 -2.92217e-07 4.58556e-08)
(-3.42677e-07 -2.98479e-07 4.33048e-08)
(-4.24363e-07 -3.08385e-07 3.96963e-08)
(-4.80038e-07 -3.2038e-07 3.54089e-08)
(-5.0655e-07 -3.32784e-07 3.08534e-08)
(-5.03606e-07 -3.43918e-07 2.6411e-08)
(-4.73471e-07 -3.5211e-07 2.24051e-08)
(-4.20558e-07 -3.55632e-07 1.90754e-08)
(-3.50881e-07 -3.52497e-07 1.6554e-08)
(-2.71509e-07 -3.40167e-07 1.4849e-08)
(-1.90049e-07 -3.15115e-07 1.38005e-08)
(-1.13808e-07 -2.72232e-07 1.29231e-08)
(-5.0318e-08 -2.03375e-07 1.12485e-08)
(-5.93428e-09 -9.42479e-08 6.25618e-09)
(-4.03638e-07 -2.37558e-06 -4.03668e-07)
(-1.52039e-06 -3.08362e-06 -5.08401e-07)
(-1.46035e-06 -2.76062e-06 -3.81272e-07)
(-1.20735e-06 -2.09274e-06 -2.31454e-07)
(-8.04366e-07 -1.61796e-06 -1.2803e-07)
(-4.63724e-07 -1.26461e-06 -6.39221e-08)
(-1.77315e-07 -1.03204e-06 -2.42528e-08)
(3.3697e-08 -8.7424e-07 6.38344e-11)
(1.78359e-07 -7.66206e-07 1.62594e-08)
(2.60915e-07 -6.89256e-07 2.78675e-08)
(2.87848e-07 -6.32576e-07 3.68568e-08)
(2.65546e-07 -5.89936e-07 4.40303e-08)
(2.01709e-07 -5.58144e-07 4.96129e-08)
(1.05562e-07 -5.35667e-07 5.3564e-08)
(-1.21145e-08 -5.21754e-07 5.57486e-08)
(-1.3953e-07 -5.15754e-07 5.61159e-08)
(-2.64834e-07 -5.16815e-07 5.47303e-08)
(-3.77024e-07 -5.23704e-07 5.17923e-08)
(-4.67012e-07 -5.34705e-07 4.76657e-08)
(-5.28412e-07 -5.478e-07 4.27714e-08)
(-5.57912e-07 -5.6078e-07 3.75753e-08)
(-5.55316e-07 -5.71421e-07 3.24984e-08)
(-5.23166e-07 -5.77467e-07 2.78905e-08)
(-4.66255e-07 -5.76572e-07 2.4e-08)
(-3.90994e-07 -5.66005e-07 2.09584e-08)
(-3.04789e-07 -5.42247e-07 1.87613e-08)
(-2.15527e-07 -5.0034e-07 1.72342e-08)
(-1.30763e-07 -4.32783e-07 1.58513e-08)
(-5.87753e-08 -3.26704e-07 1.3579e-08)
(-7.08042e-09 -1.55669e-07 7.47328e-09)
(-1.92429e-07 -1.58614e-06 -1.92462e-07)
(-6.51796e-07 -2.12232e-06 -2.31827e-07)
(-7.01999e-07 -2.10799e-06 -1.80993e-07)
(-6.11621e-07 -1.83789e-06 -1.16361e-07)
(-4.0451e-07 -1.59281e-06 -6.47728e-08)
(-1.9408e-07 -1.38336e-06 -2.94042e-08)
(1.79119e-10 -1.2272e-06 -5.07981e-09)
(1.54161e-07 -1.11009e-06 1.1748e-08)
(2.62673e-07 -1.02225e-06 2.4401e-08)
(3.22219e-07 -9.54607e-07 3.45576e-08)
(3.33337e-07 -9.01463e-07 4.31258e-08)
(2.98854e-07 -8.59442e-07 5.03699e-08)
(2.24376e-07 -8.26949e-07 5.61996e-08)
(1.18101e-07 -8.0333e-07 6.03974e-08)
(-9.46861e-09 -7.88335e-07 6.27104e-08)
(-1.46379e-07 -7.81519e-07 6.30407e-08)
(-2.8041e-07 -7.82058e-07 6.14352e-08)
(-4.00074e-07 -7.88621e-07 5.80994e-08)
(-4.95855e-07 -7.99242e-07 5.34479e-08)
(-5.61117e-07 -8.11568e-07 4.79511e-08)
(-5.92514e-07 -8.23e-07 4.21381e-08)
(-5.89981e-07 -8.30861e-07 3.64706e-08)
(-5.56325e-07 -8.32434e-07 3.13263e-08)
(-4.96639e-07 -8.24839e-07 2.69671e-08)
(-4.17582e-07 -8.04657e-07 2.35248e-08)
(-3.26759e-07 -7.67391e-07 2.09864e-08)
(-2.32218e-07 -7.06533e-07 1.91658e-08)
(-1.41697e-07 -6.11809e-07 1.75091e-08)
(-6.40658e-08 -4.64731e-07 1.49297e-08)
(-7.74828e-09 -2.2475e-07 8.2082e-09)
(-7.48461e-08 -9.56496e-07 -7.48818e-08)
(-2.89433e-07 -1.55324e-06 -9.98401e-08)
(-3.22677e-07 -1.7371e-06 -8.06669e-08)
(-2.72644e-07 -1.70274e-06 -5.26406e-08)
(-1.47073e-07 -1.61746e-06 -2.7018e-08)
(-4.60639e-09 -1.51791e-06 -7.41665e-09)
(1.34491e-07 -1.429e-06 7.83964e-09)
(2.49636e-07 -1.35301e-06 1.99384e-08)
(3.31021e-07 -1.28964e-06 3.02617e-08)
(3.71922e-07 -1.23649e-06 3.94635e-08)
(3.69749e-07 -1.19182e-06 4.78043e-08)
(3.25154e-07 -1.15466e-06 5.51877e-08)
(2.42296e-07 -1.12481e-06 6.12813e-08)
(1.28571e-07 -1.10244e-06 6.57244e-08)
(-5.83676e-09 -1.08779e-06 6.81553e-08)
(-1.48975e-07 -1.08061e-06 6.84449e-08)
(-2.88528e-07 -1.08018e-06 6.66242e-08)
(-4.12755e-07 -1.0852e-06 6.28941e-08)
(-5.1191e-07 -1.0936e-06 5.77235e-08)
(-5.79258e-07 -1.10287e-06 5.16362e-08)
(-6.11486e-07 -1.11021e-06 4.52265e-08)
(-6.08715e-07 -1.11268e-06 3.89996e-08)
(-5.7399e-07 -1.10727e-06 3.33685e-08)
(-5.12623e-07 -1.09068e-06 2.86033e-08)
(-4.31439e-07 -1.05888e-06 2.48376e-08)
(-3.38118e-07 -1.0064e-06 2.205e-08)
(-2.40764e-07 -9.25082e-07 2.00447e-08)
(-1.47204e-07 -8.01596e-07 1.82504e-08)
(-6.66413e-08 -6.11215e-07 1.5543e-08)
(-8.04302e-09 -2.98158e-07 8.56234e-09)
(-3.0325e-08 -7.34336e-07 -3.0362e-08)
(-1.14353e-07 -1.32981e-06 -4.12891e-08)
(-1.19414e-07 -1.59993e-06 -3.2695e-08)
(-7.53045e-08 -1.68812e-06 -1.95426e-08)
(1.51294e-08 -1.70152e-06 -6.12814e-09)
(1.21407e-07 -1.67815e-06 5.4571e-09)
(2.27299e-07 -1.64247e-06 1.57541e-08)
(3.16432e-07 -1.60341e-06 2.51139e-08)
(3.78264e-07 -1.56533e-06 3.40399e-08)
(4.05087e-07 -1.52965e-06 4.26784e-08)
(3.9288e-07 -1.49714e-06 5.09286e-08)
(3.41072e-07 -1.46842e-06 5.84649e-08)
(2.52901e-07 -1.44429e-06 6.47855e-08)
(1.35141e-07 -1.4255e-06 6.94316e-08)
(-2.36335e-09 -1.41258e-06 7.19488e-08)
(-1.47855e-07 -1.40544e-06 7.21974e-08)
(-2.89221e-07 -1.40349e-06 7.01962e-08)
(-4.14735e-07 -1.40554e-06 6.61279e-08)
(-5.14608e-07 -1.40965e-06 6.0515e-08)
(-5.82146e-07 -1.41335e-06 5.39191e-08)
(-6.14148e-07 -1.41386e-06 4.6997e-08)
(-6.10925e-07 -1.4082e-06 4.02989e-08)
(-5.75708e-07 -1.39323e-06 3.42705e-08)
(-5.1393e-07 -1.36539e-06 2.91864e-08)
(-4.32474e-07 -1.32015e-06 2.51805e-08)
(-3.38971e-07 -1.25107e-06 2.22211e-08)
(-2.41432e-07 -1.14827e-06 2.0109e-08)
(-1.47623e-07 -9.95217e-07 1.82648e-08)
(-6.67801e-08 -7.60627e-07 1.55549e-08)
(-8.02557e-09 -3.73032e-07 8.59492e-09)
(-1.01797e-08 -6.49898e-07 -1.02172e-08)
(-3.19904e-08 -1.25896e-06 -1.34661e-08)
(-1.42371e-08 -1.58223e-06 -9.04859e-09)
(3.34845e-08 -1.74446e-06 -2.40902e-09)
(1.09103e-07 -1.82369e-06 5.11512e-09)
(1.95821e-07 -1.85547e-06 1.25498e-08)
(2.81374e-07 -1.86257e-06 2.00971e-08)
(3.53021e-07 -1.85635e-06 2.78241e-08)
(4.01017e-07 -1.84333e-06 3.58467e-08)
(4.17804e-07 -1.8269e-06 4.40656e-08)
(3.98936e-07 -1.80921e-06 5.21873e-08)
(3.43272e-07 -1.79181e-06 5.97562e-08)
(2.53499e-07 -1.77599e-06 6.61588e-08)
(1.35883e-07 -1.76274e-06 7.08817e-08)
(-1.59242e-10 -1.75274e-06 7.34027e-08)
(-1.43335e-07 -1.74596e-06 7.36123e-08)
(-2.82093e-07 -1.74191e-06 7.152e-08)
(-4.05043e-07 -1.73967e-06 6.72555e-08)
(-5.02603e-07 -1.73752e-06 6.13797e-08)
(-5.68269e-07 -1.73328e-06 5.44737e-08)
(-5.98978e-07 -1.72437e-06 4.72452e-08)
(-5.95213e-07 -1.70803e-06 4.02702e-08)
(-5.60305e-07 -1.68119e-06 3.40124e-08)
(-4.99692e-07 -1.64015e-06 2.87548e-08)
(-4.2014e-07 -1.57999e-06 2.46268e-08)
(-3.29066e-07 -1.49336e-06 2.15931e-08)
(-2.34208e-07 -1.36866e-06 1.94498e-08)
(-1.4307e-07 -1.18608e-06 1.76276e-08)
(-6.46112e-08 -9.07771e-07 1.50222e-08)
(-7.72411e-09 -4.46728e-07 8.3339e-09)
(-1.58875e-09 -6.37154e-07 -1.62682e-09)
(6.41159e-09 -1.27153e-06 -9.24175e-10)
(3.76388e-08 -1.63282e-06 1.92282e-09)
(8.82196e-08 -1.84296e-06 5.75428e-09)
(1.55603e-07 -1.96755e-06 1.04526e-08)
(2.29669e-07 -2.04008e-06 1.57173e-08)
(3.01115e-07 -2.08165e-06 2.16762e-08)
(3.59976e-07 -2.10427e-06 2.83199e-08)
(3.97773e-07 -2.1152e-06 3.56181e-08)
(4.07626e-07 -2.11867e-06 4.33633e-08)
(3.85202e-07 -2.11736e-06 5.1169e-08)
(3.29189e-07 -2.11311e-06 5.85226e-08)
(2.41943e-07 -2.10733e-06 6.47506e-08)
(1.29226e-07 -2.10101e-06 6.93391e-08)
(-1.39235e-10 -2.09476e-06 7.17438e-08)
(-1.35638e-07 -2.08854e-06 7.19157e-08)
(-2.66742e-07 -2.08201e-06 6.98571e-08)
(-3.82772e-07 -2.07448e-06 6.56176e-08)
(-4.74617e-07 -2.06459e-06 5.97691e-08)
(-5.36128e-07 -2.05058e-06 5.28697e-08)
(-5.64455e-07 -2.03031e-06 4.56453e-08)
(-5.60191e-07 -2.00138e-06 3.86844e-08)
(-5.26629e-07 -1.96097e-06 3.24565e-08)
(-4.69039e-07 -1.90542e-06 2.72415e-08)
(-3.9386e-07 -1.82946e-06 2.31602e-08)
(-3.08098e-07 -1.72497e-06 2.01747e-08)
(-2.18999e-07 -1.57866e-06 1.80913e-08)
(-1.33563e-07 -1.36758e-06 1.63696e-08)
(-6.01732e-08 -1.04754e-06 1.39667e-08)
(-7.14813e-09 -5.16692e-07 7.78932e-09)
(1.95374e-09 -6.54578e-07 1.91372e-09)
(2.22768e-08 -1.32141e-06 4.31059e-09)
(5.8511e-08 -1.71383e-06 6.45203e-09)
(1.07996e-07 -1.95814e-06 8.95659e-09)
(1.67727e-07 -2.11581e-06 1.21841e-08)
(2.30982e-07 -2.21944e-06 1.61714e-08)
(2.90606e-07 -2.28912e-06 2.10341e-08)
(3.38792e-07 -2.33681e-06 2.6759e-08)
(3.68433e-07 -2.36988e-06 3.32558e-08)
(3.73567e-07 -2.3927e-06 4.02862e-08)
(3.50302e-07 -2.40795e-06 4.74365e-08)
(2.97398e-07 -2.41737e-06 5.41912e-08)
(2.1697e-07 -2.42221e-06 5.98848e-08)
(1.14207e-07 -2.4233e-06 6.40528e-08)
(-2.90773e-09 -2.42109e-06 6.61764e-08)
(-1.25029e-07 -2.41556e-06 6.63113e-08)
(-2.43068e-07 -2.40646e-06 6.44545e-08)
(-3.47488e-07 -2.39333e-06 6.05384e-08)
(-4.29977e-07 -2.37515e-06 5.50978e-08)
(-4.84946e-07 -2.35064e-06 4.86273e-08)
(-5.09791e-07 -2.31817e-06 4.18402e-08)
(-5.05142e-07 -2.27582e-06 3.52928e-08)
(-4.74107e-07 -2.22118e-06 2.94382e-08)
(-4.21575e-07 -2.15075e-06 2.45443e-08)
(-3.53428e-07 -2.05906e-06 2.07276e-08)
(-2.76006e-07 -1.93727e-06 1.7951e-08)
(-1.95827e-07 -1.7706e-06 1.60342e-08)
(-1.19171e-07 -1.53313e-06 1.44956e-08)
(-5.35201e-08 -1.17489e-06 1.24003e-08)
(-6.30297e-09 -5.80417e-07 6.96739e-09)
(3.00702e-09 -6.82731e-07 2.9657e-09)
(2.58772e-08 -1.38307e-06 5.76883e-09)
(6.04307e-08 -1.80153e-06 7.45584e-09)
(1.04285e-07 -2.07131e-06 9.22383e-09)
(1.54445e-07 -2.25369e-06 1.15588e-08)
(2.06186e-07 -2.38128e-06 1.46393e-08)
(2.54069e-07 -2.47364e-06 1.85708e-08)
(2.92095e-07 -2.54255e-06 2.33454e-08)
(3.14545e-07 -2.59514e-06 2.88605e-08)
(3.16528e-07 -2.63555e-06 3.48872e-08)
(2.94784e-07 -2.66618e-06 4.10349e-08)
(2.48265e-07 -2.68846e-06 4.68303e-08)
(1.78817e-07 -2.70333e-06 5.16685e-08)
(9.09073e-08 -2.71138e-06 5.51742e-08)
(-8.61842e-09 -2.71297e-06 5.68953e-08)
(-1.11934e-07 -2.70819e-06 5.69907e-08)
(-2.11713e-07 -2.69683e-06 5.54521e-08)
(-2.99944e-07 -2.67849e-06 5.21019e-08)
(-3.69452e-07 -2.65247e-06 4.74114e-08)
(-4.15425e-07 -2.61785e-06 4.17739e-08)
(-4.35634e-07 -2.57358e-06 3.58355e-08)
(-4.30692e-07 -2.51831e-06 3.00943e-08)
(-4.03363e-07 -2.45006e-06 2.49626e-08)
(-3.57902e-07 -2.36554e-06 2.06804e-08)
(-2.99405e-07 -2.25923e-06 1.73508e-08)
(-2.33292e-07 -2.12171e-06 1.49453e-08)
(-1.65101e-07 -1.93689e-06 1.33109e-08)
(-1.00156e-07 -1.67631e-06 1.20433e-08)
(-4.47739e-08 -1.28492e-06 1.03528e-08)
(-5.20286e-09 -6.35465e-07 5.88271e-09)
(2.79799e-09 -7.10616e-07 2.75186e-09)
(2.2353e-08 -1.44029e-06 5.18245e-09)
(5.01505e-08 -1.87938e-06 6.43124e-09)
(8.42446e-08 -2.16794e-06 7.66942e-09)
(1.2217e-07 -2.36851e-06 9.32994e-09)
(1.60683e-07 -2.5141e-06 1.16064e-08)
(1.95883e-07 -2.62406e-06 1.45872e-08)
(2.23421e-07 -2.70995e-06 1.82638e-08)
(2.3902e-07 -2.77854e-06 2.25416e-08)
(2.38965e-07 -2.83362e-06 2.72243e-08)
(2.2073e-07 -2.87716e-06 3.19851e-08)
(1.8351e-07 -2.91019e-06 3.64421e-08)
(1.288e-07 -2.93328e-06 4.00992e-08)
(6.01319e-08 -2.94698e-06 4.26957e-08)
(-1.71036e-08 -2.95162e-06 4.39038e-08)
(-9.68894e-08 -2.94754e-06 4.39525e-08)
(-1.73813e-07 -2.93459e-06 4.28376e-08)
(-2.41694e-07 -2.91222e-06 4.03027e-08)
(-2.94871e-07 -2.87983e-06 3.66986e-08)
(-3.29561e-07 -2.83679e-06 3.23046e-08)
(-3.44027e-07 -2.78251e-06 2.76449e-08)
(-3.38839e-07 -2.71615e-06 2.31216e-08)
(-3.16253e-07 -2.63619e-06 1.9078e-08)
(-2.79694e-07 -2.53963e-06 1.57053e-08)
(-2.33216e-07 -2.42093e-06 1.30947e-08)
(-1.81084e-07 -2.27025e-06 1.1226e-08)
(-1.27636e-07 -2.0705e-06 9.98622e-09)
(-7.70323e-08 -1.79119e-06 9.06938e-09)
(-3.41704e-08 -1.37315e-06 7.87404e-09)
(-3.8775e-09 -6.79605e-07 4.56672e-09)
(1.89844e-09 -7.31875e-07 1.84898e-09)
(1.45005e-08 -1.48274e-06 3.43689e-09)
(3.18808e-08 -1.93605e-06 4.20444e-09)
(5.29184e-08 -2.23719e-06 4.97041e-09)
(7.61083e-08 -2.4501e-06 6.03058e-09)
(9.95805e-08 -2.60823e-06 7.52605e-09)
(1.20943e-07 -2.73081e-06 9.51028e-09)
(1.37458e-07 -2.82919e-06 1.1983e-08)
(1.46357e-07 -2.90979e-06 1.48814e-08)
(1.4516e-07 -2.97596e-06 1.80687e-08)
(1.32154e-07 -3.02928e-06 2.13156e-08)
(1.06729e-07 -3.0704e-06 2.43553e-08)
(6.98325e-08 -3.09963e-06 2.68397e-08)
(2.3804e-08 -3.11745e-06 2.85956e-08)
(-2.77179e-08 -3.12431e-06 2.93917e-08)
(-8.06568e-08 -3.12083e-06 2.93894e-08)
(-1.31382e-07 -3.10689e-06 2.85898e-08)
(-1.75697e-07 -3.08175e-06 2.68022e-08)
(-2.09781e-07 -3.04479e-06 2.42897e-08)
(-2.31178e-07 -2.99552e-06 2.12401e-08)
(-2.38817e-07 -2.93372e-06 1.80312e-08)
(-2.33246e-07 -2.85895e-06 1.49333e-08)
(-2.16126e-07 -2.7701e-06 1.21826e-08)
(-1.89878e-07 -2.66445e-06 9.91066e-09)
(-1.57292e-07 -2.53651e-06 8.17391e-09)
(-1.21285e-07 -2.37614e-06 6.95839e-09)
(-8.47906e-08 -2.16555e-06 6.1971e-09)
(-5.06264e-08 -1.8728e-06 5.69534e-09)
(-2.20848e-08 -1.43579e-06 5.05979e-09)
(-2.37257e-09 -7.1096e-07 3.06474e-09)
(6.15655e-10 -7.42656e-07 5.59767e-10)
(4.0361e-09 -1.5037e-06 1.01978e-09)
(8.53553e-09 -1.9638e-06 1.25073e-09)
(1.41603e-08 -2.27132e-06 1.54778e-09)
(2.07031e-08 -2.49096e-06 2.01385e-09)
(2.76623e-08 -2.65635e-06 2.6976e-09)
(3.41917e-08 -2.78659e-06 3.62092e-09)
(3.91809e-08 -2.89277e-06 4.77915e-09)
(4.14056e-08 -2.98101e-06 6.13844e-09)
(3.96781e-08 -3.05435e-06 7.63865e-09)
(3.3098e-08 -3.11403e-06 9.17401e-09)
(2.12166e-08 -3.16044e-06 1.06235e-08)
(4.31872e-09 -3.19369e-06 1.1824e-08)
(-1.66316e-08 -3.21425e-06 1.268e-08)
(-3.99803e-08 -3.22262e-06 1.30588e-08)
(-6.36799e-08 -3.2196e-06 1.29979e-08)
(-8.58129e-08 -3.20509e-06 1.25137e-08)
(-1.04277e-07 -3.17824e-06 1.15366e-08)
(-1.17329e-07 -3.13846e-06 1.02459e-08)
(-1.24017e-07 -3.08535e-06 8.7354e-09)
(-1.24093e-07 -3.01891e-06 7.19366e-09)
(-1.18085e-07 -2.93899e-06 5.74622e-09)
(-1.06964e-07 -2.84476e-06 4.49577e-09)
(-9.20248e-08 -2.73367e-06 3.49318e-09)
(-7.46533e-08 -2.60027e-06 2.76246e-09)
(-5.62577e-08 -2.43431e-06 2.29891e-09)
(-3.82437e-08 -2.2176e-06 2.07842e-09)
(-2.19745e-08 -1.91741e-06 2.03635e-09)
(-8.98667e-09 -1.47004e-06 2.01228e-09)
(-7.43433e-10 -7.28118e-07 1.43388e-09)
(-8.59232e-10 -7.40762e-07 -9.21829e-10)
(-7.8261e-09 -1.49917e-06 -1.7376e-09)
(-1.7595e-08 -1.95792e-06 -2.07197e-09)
(-2.87145e-08 -2.26549e-06 -2.24089e-09)
(-3.98916e-08 -2.48634e-06 -2.35079e-09)
(-5.02344e-08 -2.65387e-06 -2.46143e-09)
(-5.90165e-08 -2.78689e-06 -2.59239e-09)
(-6.57337e-08 -2.89624e-06 -2.74647e-09)
(-7.00745e-08 -2.98779e-06 -2.90677e-09)
(-7.19165e-08 -3.06444e-06 -3.04266e-09)
(-7.13527e-08 -3.12723e-06 -3.11967e-09)
(-6.86944e-08 -3.1764e-06 -3.11811e-09)
(-6.44427e-08 -3.21194e-06 -3.03019e-09)
(-5.91198e-08 -3.23421e-06 -2.90742e-09)
(-5.31325e-08 -3.24361e-06 -2.83045e-09)
(-4.64861e-08 -3.24087e-06 -2.93973e-09)
(-3.89409e-08 -3.22596e-06 -3.20409e-09)
(-3.0514e-08 -3.19813e-06 -3.52488e-09)
(-2.16249e-08 -3.15694e-06 -3.75584e-09)
(-1.29388e-08 -3.10215e-06 -3.85179e-09)
(-5.08415e-09 -3.03392e-06 -3.80019e-09)
(1.4214e-09 -2.95222e-06 -3.62969e-09)
(6.30318e-09 -2.8563e-06 -3.38136e-09)
(9.48422e-09 -2.74369e-06 -3.09548e-09)
(1.10407e-08 -2.60897e-06 -2.7982e-09)
(1.11347e-08 -2.44187e-06 -2.4923e-09)
(9.96706e-09 -2.22413e-06 -2.15424e-09)
(7.68131e-09 -1.92291e-06 -1.72615e-09)
(4.5562e-09 -1.47426e-06 -1.12781e-09)
(9.35774e-10 -7.30279e-07 -2.5139e-10)
(-2.39939e-09 -7.2519e-07 -2.46943e-09)
(-2.01503e-08 -1.46731e-06 -4.61037e-09)
(-4.46166e-08 -1.91625e-06 -5.52007e-09)
(-7.28349e-08 -2.21752e-06 -6.14699e-09)
(-1.01941e-07 -2.43423e-06 -6.82262e-09)
(-1.29658e-07 -2.59897e-06 -7.72412e-09)
(-1.53733e-07 -2.73004e-06 -8.91361e-09)
(-1.72102e-07 -2.83801e-06 -1.04012e-08)
(-1.82946e-07 -2.92862e-06 -1.21359e-08)
(-1.84874e-07 -3.00471e-06 -1.40163e-08)
(-1.77176e-07 -3.06734e-06 -1.58722e-08)
(-1.59981e-07 -3.11676e-06 -1.75285e-08)
(-1.34471e-07 -3.15289e-06 -1.87853e-08)
(-1.02582e-07 -3.17584e-06 -1.96118e-08)
(-6.6778e-08 -3.18576e-06 -1.99678e-08)
(-2.92474e-08 -3.18319e-06 -2.01188e-08)
(8.36822e-09 -3.1681e-06 -2.00187e-08)
(4.38158e-08 -3.14003e-06 -1.94429e-08)
(7.45348e-08 -3.09888e-06 -1.83607e-08)
(9.83392e-08 -3.04466e-06 -1.68201e-08)
(1.13823e-07 -2.97756e-06 -1.50006e-08)
(1.20568e-07 -2.89755e-06 -1.30943e-08)
(1.19042e-07 -2.80379e-06 -1.12769e-08)
(1.10381e-07 -2.69373e-06 -9.6668e-09)
(9.6126e-08 -2.56195e-06 -8.32423e-09)
(7.7997e-08 -2.39825e-06 -7.23942e-09)
(5.77676e-08 -2.18466e-06 -6.34245e-09)
(3.70687e-08 -1.88889e-06 -5.44763e-09)
(1.79682e-08 -1.44816e-06 -4.23512e-09)
(2.59731e-09 -7.17285e-07 -1.9227e-09)
(-3.89875e-09 -6.95891e-07 -3.97396e-09)
(-3.21425e-08 -1.40808e-06 -7.40182e-09)
(-7.08572e-08 -1.83886e-06 -8.85987e-09)
(-1.15566e-07 -2.12776e-06 -9.91011e-09)
(-1.61877e-07 -2.33525e-06 -1.11011e-08)
(-2.06188e-07 -2.49254e-06 -1.27232e-08)
(-2.44824e-07 -2.61719e-06 -1.48897e-08)
(-2.74279e-07 -2.71936e-06 -1.76153e-08)
(-2.91345e-07 -2.80471e-06 -2.08231e-08)
(-2.93451e-07 -2.87614e-06 -2.4348e-08)
(-2.79085e-07 -2.93492e-06 -2.7909e-08)
(-2.48144e-07 -2.98141e-06 -3.12021e-08)
(-2.02352e-07 -3.01566e-06 -3.38476e-08)
(-1.44872e-07 -3.03763e-06 -3.56971e-08)
(-8.01099e-08 -3.04727e-06 -3.65579e-08)
(-1.24932e-08 -3.04477e-06 -3.67222e-08)
(5.42391e-08 -3.03016e-06 -3.61493e-08)
(1.15552e-07 -3.00332e-06 -3.45725e-08)
(1.66883e-07 -2.9645e-06 -3.21227e-08)
(2.04752e-07 -2.91378e-06 -2.89586e-08)
(2.27147e-07 -2.85128e-06 -2.54404e-08)
(2.33836e-07 -2.77677e-06 -2.1898e-08)
(2.26033e-07 -2.68918e-06 -1.86162e-08)
(2.06027e-07 -2.58576e-06 -1.57792e-08)
(1.76731e-07 -2.46108e-06 -1.34722e-08)
(1.41314e-07 -2.30519e-06 -1.16762e-08)
(1.03014e-07 -2.10074e-06 -1.02697e-08)
(6.48784e-08 -1.81668e-06 -8.94466e-09)
(3.06516e-08 -1.39274e-06 -7.16417e-09)
(4.16414e-09 -6.89629e-07 -3.50288e-09)
(-5.27286e-09 -6.53649e-07 -5.35545e-09)
(-4.31393e-08 -1.32308e-06 -9.96434e-09)
(-9.48922e-08 -1.7279e-06 -1.19196e-08)
(-1.54645e-07 -1.99887e-06 -1.33434e-08)
(-2.16585e-07 -2.19258e-06 -1.49802e-08)
(-2.75929e-07 -2.3383e-06 -1.72303e-08)
(-3.27727e-07 -2.45257e-06 -2.02443e-08)
(-3.67201e-07 -2.54504e-06 -2.40585e-08)
(-3.89934e-07 -2.62122e-06 -2.85858e-08)
(-3.92299e-07 -2.68415e-06 -3.36142e-08)
(-3.72066e-07 -2.73538e-06 -3.87912e-08)
(-3.28864e-07 -2.77562e-06 -4.36917e-08)
(-2.64756e-07 -2.80516e-06 -4.7778e-08)
(-1.83911e-07 -2.82408e-06 -5.07436e-08)
(-9.23926e-08 -2.83234e-06 -5.22126e-08)
(3.18458e-09 -2.82988e-06 -5.2376e-08)
(9.67427e-08 -2.81677e-06 -5.12022e-08)
(1.81532e-07 -2.7932e-06 -4.85086e-08)
(2.51301e-07 -2.7594e-06 -4.46204e-08)
(3.0154e-07 -2.71538e-06 -3.98499e-08)
(3.29843e-07 -2.661e-06 -3.47257e-08)
(3.36222e-07 -2.59564e-06 -2.96866e-08)
(3.22589e-07 -2.51786e-06 -2.50996e-08)
(2.92266e-07 -2.42475e-06 -2.11845e-08)
(2.49373e-07 -2.31089e-06 -1.80407e-08)
(1.98361e-07 -2.16678e-06 -1.563e-08)
(1.43781e-07 -1.97599e-06 -1.37839e-08)
(8.99305e-08 -1.70934e-06 -1.20879e-08)
(4.20735e-08 -1.31033e-06 -9.8015e-09)
(5.57288e-09 -6.48462e-07 -4.92876e-09)
(-6.46018e-09 -5.99894e-07 -6.5465e-09)
(-5.26098e-08 -1.21518e-06 -1.217e-08)
(-1.15546e-07 -1.58724e-06 -1.45429e-08)
(-1.88163e-07 -1.83549e-06 -1.62678e-08)
(-2.6342e-07 -2.01166e-06 -1.82486e-08)
(-3.35513e-07 -2.1425e-06 -2.09716e-08)
(-3.98415e-07 -2.24326e-06 -2.46238e-08)
(-4.46282e-07 -2.32293e-06 -2.92573e-08)
(-4.73701e-07 -2.38685e-06 -3.47757e-08)
(-4.76208e-07 -2.43819e-06 -4.09399e-08)
(-4.50971e-07 -2.47884e-06 -4.73387e-08)
(-3.97382e-07 -2.50993e-06 -5.3464e-08)
(-3.17738e-07 -2.53223e-06 -5.86702e-08)
(-2.17016e-07 -2.54615e-06 -6.25115e-08)
(-1.02624e-07 -2.55193e-06 -6.44807e-08)
(1.69042e-08 -2.54953e-06 -6.46311e-08)
(1.33322e-07 -2.53906e-06 -6.29387e-08)
(2.37974e-07 -2.52071e-06 -5.9348e-08)
(3.23226e-07 -2.49444e-06 -5.43312e-08)
(3.83765e-07 -2.45994e-06 -4.83312e-08)
(4.16945e-07 -2.41659e-06 -4.19912e-08)
(4.23002e-07 -2.36329e-06 -3.58268e-08)
(4.04436e-07 -2.29824e-06 -3.02628e-08)
(3.65399e-07 -2.21833e-06 -2.55453e-08)
(3.11009e-07 -2.11827e-06 -2.17779e-08)
(2.46793e-07 -1.98913e-06 -1.89062e-08)
(1.7841e-07 -1.81573e-06 -1.67282e-08)
(1.11218e-07 -1.57134e-06 -1.47402e-08)
(5.17806e-08 -1.20432e-06 -1.20393e-08)
(6.76874e-09 -5.9547e-07 -6.146e-09)
(-7.40841e-09 -5.36586e-07 -7.4989e-09)
(-6.0157e-08 -1.08833e-06 -1.39357e-08)
(-1.31969e-07 -1.42206e-06 -1.66341e-08)
(-2.14759e-07 -1.64386e-06 -1.85727e-08)
(-3.00496e-07 -1.79968e-06 -2.07805e-08)
(-3.82556e-07 -1.91337e-06 -2.38106e-08)
(-4.54057e-07 -1.99863e-06 -2.78769e-08)
(-5.08334e-07 -2.06368e-06 -3.30354e-08)
(-5.39223e-07 -2.11363e-06 -3.91805e-08)
(-5.41636e-07 -2.15173e-06 -4.60591e-08)
(-5.12316e-07 -2.18018e-06 -5.32291e-08)
(-4.50519e-07 -2.20062e-06 -6.01369e-08)
(-3.58706e-07 -2.21432e-06 -6.60722e-08)
(-2.42456e-07 -2.22222e-06 -7.04882e-08)
(-1.10185e-07 -2.22495e-06 -7.27992e-08)
(2.8091e-08 -2.22268e-06 -7.29298e-08)
(1.62324e-07 -2.21552e-06 -7.08647e-08)
(2.8238e-07 -2.20348e-06 -6.6671e-08)
(3.79621e-07 -2.1861e-06 -6.09057e-08)
(4.48155e-07 -2.16261e-06 -5.41151e-08)
(4.85163e-07 -2.13181e-06 -4.70076e-08)
(4.91031e-07 -2.09211e-06 -4.0139e-08)
(4.68681e-07 -2.04136e-06 -3.39606e-08)
(4.22896e-07 -1.97633e-06 -2.87375e-08)
(3.59536e-07 -1.89193e-06 -2.45723e-08)
(2.84968e-07 -1.77994e-06 -2.14069e-08)
(2.05722e-07 -1.62669e-06 -1.90164e-08)
(1.28011e-07 -1.40835e-06 -1.68271e-08)
(5.944e-08 -1.07899e-06 -1.38115e-08)
(7.70979e-09 -5.32779e-07 -7.11333e-09)
(-8.08915e-09 -4.66047e-07 -8.18039e-09)
(-6.55244e-08 -9.47166e-07 -1.5201e-08)
(-1.43598e-07 -1.23851e-06 -1.8121e-08)
(-2.33544e-07 -1.43123e-06 -2.01851e-08)
(-3.2663e-07 -1.56493e-06 -2.25048e-08)
(-4.15634e-07 -1.66027e-06 -2.56735e-08)
(-4.93039e-07 -1.72924e-06 -2.99152e-08)
(-5.51595e-07 -1.77922e-06 -3.52876e-08)
(-5.84632e-07 -1.81496e-06 -4.16769e-08)
(-5.86669e-07 -1.8397e-06 -4.88202e-08)
(-5.5424e-07 -1.85594e-06 -5.62694e-08)
(-4.86554e-07 -1.86572e-06 -6.34518e-08)
(-3.86223e-07 -1.87081e-06 -6.96522e-08)
(-2.59248e-07 -1.87267e-06 -7.42767e-08)
(-1.14704e-07 -1.87235e-06 -7.67256e-08)
(3.64117e-08 -1.87026e-06 -7.68347e-08)
(1.8282e-07 -1.86654e-06 -7.45936e-08)
(3.1342e-07 -1.86091e-06 -7.01579e-08)
(4.18915e-07 -1.85249e-06 -6.41077e-08)
(4.93023e-07 -1.84e-06 -5.70323e-08)
(5.32793e-07 -1.82173e-06 -4.96442e-08)
(5.38677e-07 -1.79568e-06 -4.25208e-08)
(5.13819e-07 -1.75938e-06 -3.61123e-08)
(4.63386e-07 -1.70956e-06 -3.06908e-08)
(3.93762e-07 -1.6415e-06 -2.63676e-08)
(3.119e-07 -1.5478e-06 -2.3081e-08)
(2.24983e-07 -1.41645e-06 -2.05928e-08)
(1.39849e-07 -1.22679e-06 -1.8293e-08)
(6.48384e-08 -9.39229e-07 -1.50722e-08)
(8.37088e-09 -4.62817e-07 -7.80706e-09)
(-8.4813e-09 -3.90802e-07 -8.57136e-09)
(-6.85399e-08 -7.96778e-07 -1.5928e-08)
(-1.50106e-07 -1.04321e-06 -1.8966e-08)
(-2.44077e-07 -1.20539e-06 -2.10709e-08)
(-3.41325e-07 -1.31622e-06 -2.33978e-08)
(-4.34248e-07 -1.39303e-06 -2.656e-08)
(-5.14921e-07 -1.44603e-06 -3.07793e-08)
(-5.75721e-07 -1.48166e-06 -3.61067e-08)
(-6.09692e-07 -1.50426e-06 -4.24275e-08)
(-6.11199e-07 -1.51699e-06 -4.9473e-08)
(-5.76713e-07 -1.52246e-06 -5.68018e-08)
(-5.05504e-07 -1.52299e-06 -6.38561e-08)
(-4.00323e-07 -1.52073e-06 -6.99541e-08)
(-2.67413e-07 -1.51747e-06 -7.4497e-08)
(-1.16171e-07 -1.5146e-06 -7.69162e-08)
(4.19213e-08 -1.51276e-06 -7.70065e-08)
(1.94907e-07 -1.51205e-06 -7.47617e-08)
(3.31213e-07 -1.51199e-06 -7.03756e-08)
(4.41246e-07 -1.51136e-06 -6.44063e-08)
(5.18506e-07 -1.50849e-06 -5.74486e-08)
(5.5993e-07 -1.50129e-06 -5.01787e-08)
(5.65931e-07 -1.48749e-06 -4.3158e-08)
(5.39727e-07 -1.46448e-06 -3.68307e-08)
(4.86652e-07 -1.4291e-06 -3.14669e-08)
(4.13386e-07 -1.37699e-06 -2.71808e-08)
(3.27258e-07 -1.30169e-06 -2.39158e-08)
(2.35877e-07 -1.19295e-06 -2.14339e-08)
(1.46487e-07 -1.03343e-06 -1.91114e-08)
(6.78456e-08 -7.90221e-07 -1.57938e-08)
(8.73683e-09 -3.88164e-07 -8.21249e-09)
(-8.56417e-09 -3.13539e-07 -8.65033e-09)
(-6.90756e-08 -6.42518e-07 -1.60758e-08)
(-1.51285e-07 -8.43099e-07 -1.91151e-08)
(-2.46151e-07 -9.74346e-07 -2.11755e-08)
(-3.4447e-07 -1.06242e-06 -2.34177e-08)
(-4.38464e-07 -1.12131e-06 -2.6452e-08)
(-5.19998e-07 -1.15946e-06 -3.04956e-08)
(-5.81265e-07 -1.18236e-06 -3.55911e-08)
(-6.15214e-07 -1.19384e-06 -4.16167e-08)
(-6.16213e-07 -1.19684e-06 -4.83043e-08)
(-5.80814e-07 -1.19395e-06 -5.52362e-08)
(-5.0842e-07 -1.18754e-06 -6.18842e-08)
(-4.01881e-07 -1.1799e-06 -6.76208e-08)
(-2.67514e-07 -1.17302e-06 -7.18828e-08)
(-1.14751e-07 -1.16841e-06 -7.41602e-08)
(4.48711e-08 -1.16686e-06 -7.42345e-08)
(1.9925e-07 -1.16844e-06 -7.21015e-08)
(3.36769e-07 -1.17253e-06 -6.79708e-08)
(4.47821e-07 -1.17774e-06 -6.23447e-08)
(5.25854e-07 -1.18219e-06 -5.57819e-08)
(5.67743e-07 -1.18366e-06 -4.89068e-08)
(5.73792e-07 -1.1798e-06 -4.2248e-08)
(5.47154e-07 -1.16803e-06 -3.62238e-08)
(4.9318e-07 -1.14541e-06 -3.11025e-08)
(4.18646e-07 -1.10807e-06 -2.70044e-08)
(3.31076e-07 -1.05051e-06 -2.38819e-08)
(2.38306e-07 -9.64254e-07 -2.15007e-08)
(1.4778e-07 -8.35264e-07 -1.924e-08)
(6.83587e-08 -6.37356e-07 -1.59427e-08)
(8.78904e-09 -3.11517e-07 -8.31299e-09)
(-8.30056e-09 -2.37122e-07 -8.3797e-09)
(-6.69321e-08 -4.90004e-07 -1.55679e-08)
(-1.46874e-07 -6.45314e-07 -1.84688e-08)
(-2.39561e-07 -7.46208e-07 -2.03829e-08)
(-3.36036e-07 -8.12338e-07 -2.24452e-08)
(-4.28507e-07 -8.54527e-07 -2.52479e-08)
(-5.0879e-07 -8.79519e-07 -2.90018e-08)
(-5.69044e-07 -8.91808e-07 -3.37365e-08)
(-6.02287e-07 -8.94659e-07 -3.93265e-08)
(-6.03015e-07 -8.90678e-07 -4.551e-08)
(-5.6795e-07 -8.82217e-07 -5.18949e-08)
(-4.96652e-07 -8.71533e-07 -5.79933e-08)