/*--------------------------------*- C++ -*----------------------------------*\
| =========                 |                                                 |
| \\      /  F ield         | OpenFOAM: The Open Source CFD Toolbox           |
|  \\    /   O peration     | Version:  v1912                                 |
|   \\  /    A nd           | Website:  www.openfoam.com                      |
|    \\/     M anipulation  |                                                 |
\*---------------------------------------------------------------------------*/
FoamFile
{
    version     2.0;
    format      ascii;
    class       volScalarField;
    location    "286/oil";
    object      heatTransferCoeff(T);
}
// * * * * * * * * * * * * * * * * * * * * * * * * * * * * * * * * * * * * * //

dimensions      [1 0 -3 -1 0 0 0];


internalField   uniform 0;

boundaryField
{
    maxY
    {
        type            calculated;
        value           uniform 0;
    }
    minX
    {
        type            calculated;
        value           uniform 0;
    }
    maxX
    {
        type            calculated;
        value           uniform 0;
    }
    minY
    {
        type            calculated;
        value           uniform 0;
    }
    minZ
    {
        type            calculated;
        value           uniform 0;
    }
    maxZ
    {
        type            calculated;
        value           uniform 0;
    }
    oil_to_sphere
    {
        type            calculated;
        value           nonuniform List<scalar> 
1536
(
-31.1785
-26.5698
-26.4833
-18.0422
-17.7928
-26.3293
-22.619
-24.1285
-23.5748
-18.7534
-15.3844
-19.3769
-23.4867
-19.5774
-14.2599
-22.101
-26.3474
-26.7062
-21.8507
-23.2494
-25.2162
-23.6406
-23.9776
-22.0522
-22.5081
-22.2761
-22.4763
-21.4843
-26.0825
-23.812
-27.4642
-26.5961
-26.7637
-22.1347
-22.4119
-21.5129
-21.929
-20.5668
-21.4328
-22.4425
-21.24
-21.9201
-23.4185
-24.3807
-25.5195
-22.3856
-25.1904
-23.972
-14.5919
-22.2617
-24.7864
-23.6451
-23.8773
-22.0331
-25.9304
-29.1015
-23.916
-23.2615
-25.1523
-24.7024
-23.3123
-23.434
-23.2288
-21.9144
-22.3762
-23.1051
-23.235
-24.8995
-24.8463
-25.8947
-21.8916
-17.8632
-19.3264
-22.2897
-22.2582
-29.4008
-26.8165
-20.6533
-22.1126
-26.5569
-25.2769
-24.6135
-18.0414
-17.9131
-26.0581
-30.301
-16.9032
-22.8446
-24.717
-24.6892
-23.6037
-21.6644
-21.5967
-21.8015
-22.2586
-24.3358
-25.212
-25.5194
-27.1446
-24.5825
-25.3142
-21.8224
-31.2693
-24.8356
-19.1297
-22.1762
-22.5434
-18.3767
-18.3488
-31.4037
-26.7658
-24.1206
-23.4028
-24.0035
-17.392
-17.8747
-16.4989
-28.2528
-30.765
-27.0368
-23.7793
-24.0008
-21.3806
-25.1502
-27.4017
-24.4182
-23.732
-21.0721
-25.4332
-25.1117
-23.1294
-24.9282
-25.8657
-22.5774
-22.8771
-26.1174
-24.0252
-26.5986
-21.1627
-26.3928
-23.6113
-25.0653
-25.1097
-23.48
-22.9421
-23.3793
-24.3801
-28.2494
-23.1197
-31.461
-25.6951
-26.5884
-23.9107
-24.1725
-22.237
-24.5092
-26.0648
-25.2082
-32.2627
-27.3714
-26.7518
-28.5001
-19.8536
-20.5929
-21.7276
-21.6364
-25.8249
-27.9418
-27.1054
-29.2278
-21.4893
-21.7802
-20.7123
-25.2457
-23.8524
-24.245
-29.9022
-20.4104
-19.4702
-30.2878
-21.5032
-20.6468
-20.4841
-20.9118
-24.8826
-30.3184
-27.4107
-21.2687
-19.8213
-26.6333
-20.1295
-25.835
-25.8167
-27.8744
-19.329
-13.3116
-27.7113
-28.3351
-22.6137
-22.2073
-23.6766
-22.6577
-26.7213
-27.6624
-25.6008
-24.6327
-21.8565
-28.0647
-27.2009
-24.3217
-21.0578
-22.3694
-22.1833
-22.8083
-25.3373
-29.2865
-20.0177
-19.4957
-19.6283
-12.7088
-26.3615
-25.2584
-24.5729
-23.6508
-23.8595
-28.1051
-25.8127
-22.3938
-26.3948
-18.8175
-21.5397
-13.543
-23.4407
-26.1587
-27.7343
-27.2805
-26.361
-25.3864
-27.0055
-19.2986
-19.956
-20.7867
-28.4281
-20.8508
-13.5218
-16.6489
-25.2771
-23.5263
-30.0492
-32.2599
-24.0903
-17.9289
-12.8153
-24.6882
-27.2388
-21.8098
-21.9515
-17.1561
-21.638
-28.0855
-30.5197
-23.3026
-21.9572
-28.8351
-27.4825
-22.3192
-19.0815
-22.9884
-29.4342
-28.3251
-25.3982
-25.8384
-27.535
-20.5045
-22.1298
-27.7873
-25.8312
-26.6271
-23.4348
-26.4183
-29.1653
-25.5858
-25.2029
-28.608
-21.8837
-21.8092
-22.2489
-21.3988
-21.6997
-27.9448
-29.5583
-19.6605
-22.7549
-22.5127
-22.713
-21.2617
-23.89
-23.4101
-20.7369
-17.2354
-21.5749
-19.4251
-21.1776
-30.339
-28.7224
-28.6482
-31.8689
-20.1842
-20.5202
-23.814
-31.4669
-30.6496
-21.5698
-23.4872
-21.3215
-25.7425
-22.0525
-25.163
-25.5481
-26.8881
-25.9467
-22.4617
-26.1355
-21.5143
-27.5692
-28.1691
-26.5256
-26.1615
-20.8223
-29.7035
-29.5526
-25.7371
-19.2119
-21.8381
-22.6805
-25.5706
-25.1121
-25.7651
-20.6765
-27.4952
-27.7559
-26.9013
-28.618
-24.9261
-24.374
-23.2934
-19.9607
-24.4343
-25.6824
-19.9096
-19.5663
-20.3892
-31.0036
-27.4255
-28.638
-25.046
-24.3063
-27.9078
-19.6809
-30.0107
-26.8651
-24.3741
-24.296
-19.3974
-26.8745
-27.3147
-21.0165
-24.3794
-23.1718
-21.984
-25.7697
-27.4175
-23.417
-22.3212
-20.248
-29.2905
-27.5948
-19.5391
-27.9594
-27.3413
-26.3728
-29.2677
-24.3111
-26.0069
-18.71
-19.3413
-25.5401
-31.6167
-26.5845
-30.0681
-25.0227
-22.5845
-27.1208
-20.4064
-21.3666
-25.186
-27.3334
-25.8413
-25.0815
-20.6112
-20.5551
-27.8167
-27.6805
-27.6103
-24.2367
-21.6972
-25.2408
-26.1629
-27.2533
-24.497
-22.9011
-20.9238
-24.0834
-20.2005
-18.3942
-21.7755
-20.9555
-24.1418
-18.7641
-22.6282
-29.7885
-22.5251
-22.4688
-27.2946
-27.2242
-25.6563
-23.1937
-19.8348
-26.5349
-28.6718
-25.4401
-24.5722
-26.6756
-23.5254
-23.9843
-24.9698
-18.0011
-25.4823
-27.7498
-28.6053
-27.0967
-26.077
-25.8363
-24.5338
-23.0173
-20.4086
-23.7852
-20.887
-19.4071
-21.2957
-18.3367
-30.4813
-29.854
-28.1824
-31.3384
-20.4479
-30.5229
-20.6255
-21.5229
-26.3173
-20.1668
-20.4905
-22.6818
-22.4893
-30.0162
-28.7182
-24.9807
-25.3218
-29.2103
-27.8523
-24.4782
-26.137
-21.1113
-27.3366
-19.1889
-28.5572
-17.9558
-25.999
-26.5417
-27.1108
-22.4315
-20.301
-23.0911
-27.2495
-23.3077
-18.8705
-27.3446
-27.6773
-28.3663
-31.7723
-24.6045
-29.006
-20.1413
-20.7272
-14.8143
-16.6105
-24.4167
-22.6352
-22.059
-21.3109
-30.8372
-20.7956
-19.6466
-18.9923
-22.7921
-18.9123
-32.2151
-21.1356
-21.4701
-23.8392
-15.4861
-17.0509
-21.8068
-21.687
-23.4007
-22.2937
-27.6433
-27.0756
-25.8601
-24.4285
-18.452
-22.0565
-26.9659
-20.387
-21.022
-26.5142
-29.3193
-21.12
-14.8549
-19.9495
-15.3814
-23.6925
-22.4218
-21.4788
-19.2047
-15.3891
-25.8184
-26.4402
-25.1186
-23.6565
-29.4801
-25.9538
-25.5564
-24.3263
-20.7883
-22.1869
-27.6324
-25.8936
-22.7995
-16.4834
-24.5933
-26.8788
-29.738
-24.7509
-21.9578
-29.7137
-23.9923
-29.0605
-21.0508
-22.3555
-20.4476
-22.5106
-24.6375
-29.2885
-20.6874
-21.3562
-20.7557
-22.856
-32.2987
-19.342
-22.1402
-19.5853
-23.92
-24.6181
-27.704
-29.4511
-18.6728
-19.2185
-29.4114
-30.0262
-17.5321
-29.1976
-27.9666
-26.5769
-27.8701
-25.5981
-24.1376
-24.3478
-29.2687
-24.4729
-25.6492
-24.0823
-27.2758
-24.7994
-23.7338
-23.4256
-19.9204
-26.5341
-23.7069
-27.2102
-26.064
-26.1798
-25.8771
-24.5195
-19.3558
-27.7959
-27.78
-25.7441
-23.6837
-24.8958
-31.2499
-18.8855
-20.9644
-20.0667
-24.7219
-21.4074
-31.2853
-22.5603
-23.0386
-23.9732
-14.9614
-15.6427
-21.951
-21.853
-24.2758
-20.4385
-21.2837
-24.8913
-21.6275
-29.4763
-20.1538
-30.9845
-22.7049
-24.6085
-13.6743
-15.4828
-14.7296
-21.5047
-26.5754
-22.1511
-21.5004
-15.4126
-24.1075
-26.888
-24.1881
-33.5881
-21.0904
-27.6249
-25.7829
-26.7014
-28.0743
-27.9296
-26.713
-23.8655
-22.9208
-23.7762
-26.7255
-23.2104
-25.1732
-24.7413
-25.1008
-27.131
-25.907
-26.5287
-19.8878
-20.9073
-13.1961
-17.1889
-18.2608
-10.4924
-21.8445
-22.3082
-23.2154
-23.7255
-18.3622
-20.006
-22.7876
-28.3567
-27.9023
-22.703
-18.9826
-23.487
-27.0257
-25.7913
-23.9226
-18.6878
-21.0865
-25.8036
-24.9536
-23.8404
-22.0016
-26.2287
-26.3308
-29.2833
-26.3713
-24.5578
-22.3017
-21.2067
-19.8152
-21.8869
-23.4571
-31.5422
-24.4164
-30.3632
-21.3417
-31.9455
-21.8288
-23.3646
-20.2154
-20.6912
-22.3345
-19.7891
-23.1249
-18.7313
-22.012
-27.5998
-22.6226
-19.5056
-29.6078
-26.1161
-25.2598
-23.5896
-29.2258
-34.1507
-17.3109
-25.9603
-25.0839
-25.6428
-19.7842
-23.6438
-21.3036
-25.0818
-26.4868
-27.8447
-20.7747
-25.7911
-24.2991
-26.2707
-25.9998
-25.5091
-22.77
-23.3104
-22.0999
-18.9403
-18.4422
-20.4358
-28.8679
-22.0368
-19.6495
-22.1627
-27.6936
-23.0563
-28.8489
-27.0875
-25.4255
-24.5491
-25.3482
-29.8225
-20.4412
-25.8705
-27.964
-28.3957
-24.4859
-21.2425
-22.9824
-25.3744
-28.5329
-20.1401
-23.362
-24.362
-27.5693
-25.3307
-25.3294
-29.015
-20.2138
-21.4489
-20.8598
-29.8618
-27.8015
-24.3514
-27.5338
-21.486
-22.0289
-27.5164
-25.325
-29.2921
-20.6379
-26.7799
-27.3518
-24.6733
-25.1115
-26.5258
-20.7667
-18.1675
-24.0155
-25.3348
-30.0936
-23.4511
-21.7539
-23.7566
-25.3758
-26.7177
-24.5246
-21.3582
-23.4799
-27.2998
-20.3248
-21.3125
-23.4705
-21.9466
-24.9437
-24.5253
-28.2986
-25.6375
-27.0562
-22.1551
-23.8154
-24.9322
-23.6329
-22.9251
-22.2995
-22.2222
-20.3252
-26.1687
-24.818
-24.8007
-25.458
-19.2102
-22.5344
-29.7016
-29.7912
-21.3453
-27.6297
-25.3572
-26.1074
-22.1813
-28.4711
-28.127
-20.5297
-23.0399
-22.4696
-22.2851
-19.1136
-20.0163
-22.4664
-28.0507
-31.4022
-21.7376
-26.4955
-26.1486
-25.2486
-23.2168
-24.9656
-28.2818
-24.9084
-20.6758
-22.5687
-22.1704
-22.418
-25.6556
-26.1656
-26.199
-26.4163
-26.4187
-21.4009
-26.6406
-22.6911
-25.9601
-15.4024
-25.4801
-28.7224
-22.9079
-17.3107
-24.0105
-23.3329
-30.3018
-20.9429
-26.6492
-23.749
-18.1016
-29.5367
-19.5
-23.3413
-24.0632
-19.1879
-27.6433
-24.9826
-23.2341
-24.4411
-24.9528
-23.3013
-30.5502
-19.6366
-22.3888
-14.2641
-22.8971
-22.9128
-24.2146
-27.603
-34.3776
-18.8486
-22.4545
-32.8396
-19.5441
-26.3171
-21.2594
-26.0992
-16.9979
-20.9829
-32.6834
-17.802
-31.7578
-18.5479
-30.0834
-18.2132
-20.8836
-14.8153
-19.6923
-32.0293
-15.9604
-23.7452
-17.7953
-29.1064
-32.0877
-16.2152
-23.1037
-21.77
-20.6817
-20.5166
-22.4699
-24.1155
-24.1052
-25.9648
-23.7414
-29.1721
-33.2071
-16.127
-24.2505
-25.3939
-24.1046
-24.6485
-23.5223
-22.9739
-23.4981
-26.9322
-23.6345
-27.0039
-22.3397
-24.8234
-28.7427
-22.8655
-25.7903
-27.6797
-22.305
-24.8242
-23.7421
-25.9164
-23.3479
-24.4483
-22.9974
-27.4442
-22.6006
-25.2032
-18.5144
-29.4193
-16.4164
-25.3389
-27.2967
-29.5111
-21.0359
-24.5785
-23.7431
-24.5518
-24.3025
-23.6362
-26.8687
-20.4924
-13.1492
-23.2256
-17.3748
-27.8979
-21.1322
-24.0072
-26.3745
-13.6997
-28.7092
-20.4212
-15.2234
-20.955
-26.3275
-26.0256
-24.2282
-16.012
-24.1898
-24.8511
-21.6944
-21.1484
-28.0272
-27.4026
-22.0943
-24.275
-28.0513
-16.1409
-26.9355
-21.0579
-25.8253
-16.5755
-31.4188
-30.8382
-27.3146
-24.1485
-23.0095
-26.2493
-22.8011
-15.9454
-20.153
-26.4775
-21.2638
-25.6483
-17.2639
-27.7942
-25.9003
-11.4373
-24.2243
-25.0404
-14.0123
-28.8004
-18.3888
-27.9519
-29.4673
-26.8098
-15.2763
-24.4066
-23.1191
-24.2645
-24.5243
-25.6133
-16.1933
-22.2956
-21.3533
-21.384
-27.6734
-23.9732
-25.2165
-26.036
-25.828
-23.0551
-24.5294
-23.2789
-25.1681
-28.0916
-22.0552
-22.8635
-21.8044
-24.5078
-27.2556
-22.0081
-22.7217
-22.3603
-24.0292
-21.3409
-21.6517
-22.6972
-23.0126
-24.4557
-22.6386
-29.2857
-26.9244
-17.6104
-17.8098
-28.7179
-10.4945
-26.5701
-24.8253
-21.3551
-23.0404
-28.9581
-13.7188
-27.8063
-25.1874
-15.6315
-22.4404
-21.7227
-24.0931
-13.2792
-28.5681
-25.385
-13.8033
-28.2177
-28.3692
-16.7337
-29.547
-27.3874
-16.8497
-21.8066
-21.373
-13.829
-24.1072
-24.5876
-20.3043
-21.0527
-20.8529
-11.8359
-20.9309
-13.5988
-11.3112
-27.5196
-21.7395
-32.0251
-22.1222
-16.134
-28.6142
-23.4293
-14.646
-22.0593
-21.8646
-14.547
-17.7837
-28.587
-9.14977
-20.195
-19.6511
-10.5341
-27.8302
-27.0153
-24.0777
-22.6328
-21.8117
-20.2083
-12.6246
-24.2111
-22.6889
-22.8943
-24.0933
-15.1676
-26.4676
-22.0567
-23.5967
-21.6571
-23.4472
-24.4306
-19.9746
-15.5529
-22.5241
-24.7455
-21.9616
-22.6344
-23.7581
-21.0327
-22.8342
-14.9977
-22.1136
-25.2181
-21.7219
-23.0725
-21.1573
-15.7051
-28.8276
-28.6983
-28.1894
-29.6489
-16.6807
-14.0549
-22.2273
-26.7556
-24.5662
-26.2691
-26.9288
-20.2055
-19.2896
-14.3178
-16.2901
-20.9834
-23.6539
-23.3858
-23.1958
-19.3606
-27.5478
-25.1679
-16.936
-20.7655
-20.0336
-26.8381
-21.1044
-12.6075
-23.8809
-23.8828
-27.7732
-14.8194
-21.8397
-24.5995
-22.3091
-23.0269
-26.1251
-23.5595
-20.2949
-30.034
-11.1328
-18.8176
-23.2551
-21.0815
-22.5185
-29.5402
-25.3353
-23.9884
-18.8105
-28.7996
-22.2455
-24.4275
-26.9126
-27.7848
-27.4356
-27.7539
-29.2425
-30.1761
-29.0452
-29.0595
-24.175
-27.1359
-22.0379
-23.027
-19.2673
-18.0963
-11.9125
-29.7144
-29.4326
-28.1828
-22.817
-24.4576
-24.1792
-21.2098
-24.7062
-27.0597
-20.4585
-23.2575
-25.9187
-21.7962
-22.1373
-21.9138
-22.7608
-20.9825
-22.6225
-22.2705
-16.5916
-24.5574
-20.5475
-23.2181
-14.5275
-29.7622
-23.4158
-21.4854
-20.837
-17.0664
-23.8971
-21.6067
-13.8704
-18.7182
-23.304
-17.9818
-18.985
-30.3512
-30.8304
-22.321
-22.3549
-26.4813
-29.4547
-13.7549
-21.2777
-20.9917
-22.5388
-22.5135
-22.8684
-23.5043
-19.2432
-15.8003
-28.6354
-22.4194
-18.3883
-19.159
-22.2964
-24.0018
-17.1599
-23.0769
-21.2299
-22.0337
-29.529
-18.5261
-15.9916
-22.5369
-21.7253
-20.9945
-15.9143
-27.8648
-22.2632
-22.0484
-22.2724
-13.9221
-22.3569
-22.5021
-16.1627
-22.2394
-18.6878
-25.1521
-28.4109
-21.2236
-27.0939
-24.9393
-21.3492
-21.4888
-22.6425
-15.9408
-24.9539
-25.5541
-21.8742
-14.8297
-19.935
-23.1033
-23.4013
-21.2763
-15.5005
-21.4523
-27.783
-24.9968
-21.5738
-30.229
-18.5151
-26.9584
-14.0754
-18.3044
-27.335
-13.9625
-27.5173
-21.5465
-23.9823
-22.0534
-30.7298
-19.5013
-24.0714
-29.5171
-28.8113
-17.5121
-28.4515
-29.5532
-10.74
-23.1984
-21.6698
-14.3233
-25.6107
-21.5744
-22.0688
-22.0861
-23.565
-22.911
-21.8751
-21.5224
-14.0428
-25.5394
-24.0057
-23.7282
-24.3943
-22.8106
-21.3201
-19.9904
-26.4963
-12.8096
-20.8766
-20.8626
-13.2417
-27.3127
-29.9368
-23.493
-28.1886
-28.8255
-21.0815
-21.5601
-25.342
-28.1445
-20.9996
-25.8832
-19.1373
-14.404
-26.5825
-20.4309
-27.7691
-30.2467
-29.394
-14.8221
-27.0538
-24.1953
-20.3121
-21.8313
-22.5409
-21.6287
-14.9902
-28.2112
-15.2676
-28.0564
-22.7469
-19.1434
-18.4656
-22.9359
-26.0285
-29.1489
-23.8056
-31.4894
-26.6743
-27.5404
-13.8686
-27.0993
-26.2382
-27.8182
-21.1465
-20.4042
-12.8044
-23.3235
-31.1477
-28.2696
-15.6765
-19.4361
-15.3076
-21.1362
-23.5095
-19.0154
-33.6795
-22.0989
-19.4486
-15.9166
-24.9477
-20.5119
-13.324
-23.0908
-21.5537
-21.6719
-21.832
-21.898
-16.0043
-19.0837
-14.3794
-21.6444
-26.6857
-25.1915
-28.4854
-27.8188
-20.8875
-19.9801
-14.0478
-21.3234
-26.1737
-28.8787
-26.6499
-26.8551
-18.4088
-13.1563
-19.578
-12.488
-26.4528
-26.8144
-20.0058
-27.4144
-26.4077
-28.457
-24.7859
-23.9984
-23.864
-20.8862
-13.8031
-19.7804
-14.8191
-18.9462
-21.837
-21.2667
-16.5922
-14.7678
-25.8055
-31.1741
-30.2924
-29.4047
-23.7528
-25.6283
-25.4646
-23.37
-21.8264
-23.3433
-20.2717
-22.7345
-22.774
-14.8021
-26.4351
-22.4225
-19.4686
-16.4459
-21.5317
-23.6438
-23.5932
-21.2932
-16.4919
-29.1341
-24.8526
-21.6492
-30.1171
-20.4205
-14.4339
-25.3216
-22.7801
-22.8063
-22.7982
-21.3893
-12.7213
-22.9274
-22.6796
-15.3386
-28.9562
-22.2509
-9.23768
-21.8157
-23.446
-23.7509
-21.3563
-14.9775
-20.7441
-20.9783
-18.0681
-22.994
-14.0624
-23.2195
-22.9577
-17.6644
-30.0851
-22.6484
-16.1622
-31.098
-23.3576
-23.3612
-16.3644
-22.9501
-15.2472
)
;
    }
}


// ************************************************************************* //
