/*--------------------------------*- C++ -*----------------------------------*\
| =========                 |                                                 |
| \\      /  F ield         | OpenFOAM: The Open Source CFD Toolbox           |
|  \\    /   O peration     | Version:  v1912                                 |
|   \\  /    A nd           | Website:  www.openfoam.com                      |
|    \\/     M anipulation  |                                                 |
\*---------------------------------------------------------------------------*/
FoamFile
{
    version     2.0;
    format      ascii;
    class       volScalarField;
    location    "286/oil";
    object      wallHeatFlux;
}
// * * * * * * * * * * * * * * * * * * * * * * * * * * * * * * * * * * * * * //

dimensions      [1 0 -3 0 0 0 0];


internalField   uniform 0;

boundaryField
{
    maxY
    {
        type            calculated;
        value           uniform 0;
    }
    minX
    {
        type            calculated;
        value           uniform 0;
    }
    maxX
    {
        type            calculated;
        value           uniform 0;
    }
    minY
    {
        type            calculated;
        value           uniform 0;
    }
    minZ
    {
        type            calculated;
        value           uniform 0;
    }
    maxZ
    {
        type            calculated;
        value           uniform 0;
    }
    oil_to_sphere
    {
        type            calculated;
        value           nonuniform List<scalar> 
1536
(
1856.88
1582.41
1577.27
1074.56
1059.72
1568.1
1347.13
1437.04
1404.06
1116.92
916.286
1154.05
1398.8
1165.99
849.307
1316.28
1569.19
1590.55
1301.39
1384.68
1501.8
1407.98
1428.05
1313.38
1340.53
1326.72
1338.64
1279.56
1553.39
1418.18
1635.68
1583.98
1593.96
1318.29
1334.8
1281.26
1306.04
1224.92
1276.49
1336.62
1265.01
1305.52
1394.75
1452.05
1519.87
1333.23
1500.28
1427.72
869.078
1325.85
1476.21
1408.24
1422.07
1312.25
1544.34
1733.19
1424.37
1385.39
1498
1471.22
1388.43
1395.68
1383.46
1305.17
1332.67
1376.08
1383.82
1482.94
1479.77
1542.21
1303.83
1063.9
1151.04
1327.52
1325.66
1751.01
1597.11
1230.07
1316.97
1581.66
1505.43
1465.92
1074.52
1066.88
1551.95
1804.63
1006.73
1360.57
1472.07
1470.42
1405.78
1290.29
1286.26
1298.45
1325.67
1449.38
1501.56
1519.86
1616.64
1464.06
1507.64
1299.7
1862.28
1479.13
1139.33
1320.76
1342.65
1094.48
1092.82
1870.29
1594.08
1436.55
1393.82
1429.6
1035.85
1064.59
982.658
1682.64
1832.26
1610.23
1416.23
1429.43
1273.39
1497.87
1631.96
1454.28
1413.42
1255.01
1514.74
1495.59
1377.53
1484.65
1540.48
1344.66
1362.51
1555.48
1430.88
1584.14
1260.4
1571.88
1406.23
1492.82
1495.47
1398.41
1366.38
1392.41
1452.01
1682.45
1376.96
1873.71
1530.32
1583.54
1424.06
1439.65
1324.38
1459.7
1552.35
1501.34
1921.44
1630.17
1593.26
1697.4
1182.44
1226.47
1294.05
1288.62
1538.06
1664.13
1614.31
1740.72
1279.86
1297.18
1233.58
1503.57
1420.59
1443.97
1780.89
1215.61
1159.62
1803.84
1280.68
1229.68
1219.99
1245.46
1481.95
1805.66
1632.51
1266.72
1180.52
1586.2
1198.87
1538.65
1537.56
1660.1
1151.21
792.831
1650.4
1687.55
1346.82
1322.61
1410.11
1349.44
1591.44
1647.49
1524.71
1467.06
1301.73
1671.45
1620.01
1448.54
1254.15
1332.27
1321.19
1358.41
1509.03
1744.22
1192.22
1161.13
1169.02
756.926
1570.01
1504.31
1463.48
1408.57
1421.01
1673.86
1537.35
1333.73
1572.02
1120.75
1282.87
806.616
1396.06
1557.93
1651.77
1624.76
1569.99
1511.95
1608.38
1149.38
1188.54
1238.02
1693.1
1241.84
805.347
991.582
1505.43
1401.16
1789.63
1921.28
1434.75
1067.83
763.278
1470.36
1622.26
1298.94
1307.38
1021.8
1288.72
1672.7
1817.66
1387.85
1307.73
1717.33
1636.79
1329.28
1136.46
1369.14
1753
1686.95
1512.64
1538.86
1639.9
1221.2
1318
1654.93
1538.43
1585.83
1395.72
1573.4
1737
1523.82
1501.02
1703.81
1303.34
1298.9
1325.09
1274.47
1292.39
1664.32
1760.41
1170.96
1355.24
1340.81
1352.73
1266.3
1422.83
1394.25
1235.04
1026.51
1284.95
1156.92
1261.29
1806.88
1710.61
1706.2
1898.01
1202.13
1222.14
1418.31
1874.06
1825.4
1284.65
1398.84
1269.87
1533.15
1313.4
1498.64
1521.57
1601.38
1545.3
1337.76
1556.55
1281.34
1641.93
1677.66
1579.78
1558.1
1240.13
1769.03
1760.05
1532.83
1144.22
1300.63
1350.8
1522.91
1495.6
1534.49
1231.44
1637.52
1653.06
1602.16
1704.39
1484.52
1451.65
1387.29
1188.81
1455.24
1529.58
1185.77
1165.33
1214.33
1846.45
1633.38
1705.59
1491.67
1447.62
1662.11
1172.16
1787.34
1600.01
1451.65
1447.01
1155.28
1600.57
1626.78
1251.69
1451.97
1380.06
1309.31
1534.77
1632.9
1394.64
1329.39
1205.92
1744.44
1643.46
1163.71
1665.18
1628.37
1570.7
1743.09
1447.91
1548.9
1114.34
1151.93
1521.1
1883
1583.3
1790.76
1490.29
1345.08
1615.24
1215.37
1272.55
1500.01
1627.89
1539.03
1493.78
1227.56
1224.21
1656.67
1648.56
1644.38
1443.47
1292.24
1503.27
1558.18
1623.11
1458.97
1363.93
1246.18
1434.35
1203.11
1095.53
1296.9
1248.07
1437.83
1117.55
1347.68
1774.11
1341.55
1338.19
1625.58
1621.39
1528.01
1381.36
1181.32
1580.34
1707.61
1515.15
1463.46
1588.72
1401.11
1428.44
1487.14
1072.12
1517.66
1652.7
1703.64
1613.79
1553.08
1538.73
1461.16
1370.86
1215.5
1416.59
1243.99
1155.84
1268.33
1092.1
1815.36
1778
1678.45
1866.41
1217.84
1817.84
1228.41
1281.85
1567.38
1201.09
1220.37
1350.87
1339.4
1787.66
1710.37
1487.78
1508.1
1739.67
1658.8
1457.85
1556.65
1257.34
1628.09
1142.86
1700.78
1069.4
1548.42
1580.74
1614.62
1335.96
1209.08
1375.24
1622.89
1388.14
1123.88
1628.55
1648.37
1689.43
1892.26
1465.39
1727.52
1199.59
1234.47
882.32
989.292
1454.19
1348.09
1313.78
1269.23
1836.57
1238.56
1170.12
1131.16
1357.46
1126.39
1918.63
1258.79
1278.71
1419.8
922.326
1015.52
1298.76
1291.62
1393.68
1327.76
1646.35
1612.55
1540.15
1454.9
1098.97
1313.64
1606.02
1214.22
1252.03
1579.11
1746.17
1257.87
884.747
1188.16
916.104
1411.07
1335.39
1279.23
1143.8
916.558
1537.67
1574.7
1495.99
1408.92
1755.74
1545.73
1522.06
1448.81
1238.1
1321.39
1645.7
1542.15
1357.88
981.724
1464.71
1600.82
1771.09
1474.1
1307.76
1769.66
1428.93
1730.75
1253.75
1331.44
1217.82
1340.68
1467.34
1744.32
1232.1
1271.93
1236.17
1361.26
1923.59
1151.97
1318.62
1166.46
1424.61
1466.18
1649.96
1754.01
1112.12
1144.61
1751.64
1788.26
1044.18
1738.91
1665.61
1582.84
1659.86
1524.55
1437.57
1450.09
1743.15
1457.54
1527.59
1434.28
1624.47
1476.99
1413.52
1395.17
1186.41
1580.29
1411.92
1620.55
1552.29
1559.19
1541.15
1460.31
1152.79
1655.43
1654.48
1533.24
1410.54
1482.72
1861.15
1124.79
1248.6
1195.14
1472.39
1274.99
1863.25
1343.64
1372.12
1427.78
891.078
931.655
1307.35
1301.51
1445.8
1217.29
1267.62
1482.49
1288.1
1755.53
1200.34
1845.34
1352.27
1465.63
814.437
922.133
877.276
1280.77
1582.75
1319.27
1280.52
917.95
1435.77
1601.37
1440.58
2000.38
1256.1
1645.27
1535.57
1590.27
1672.03
1663.41
1590.95
1421.37
1365.11
1416.06
1591.7
1382.36
1499.25
1473.53
1494.94
1615.86
1542.96
1579.98
1184.5
1245.2
785.953
1023.75
1087.59
624.925
1301.01
1328.63
1382.66
1413.03
1093.62
1191.51
1357.17
1688.83
1661.77
1352.13
1130.56
1398.82
1609.57
1536.06
1424.77
1113
1255.86
1536.79
1486.17
1419.87
1310.36
1562.1
1568.18
1744.01
1570.59
1462.6
1328.24
1263.03
1180.16
1303.55
1397.06
1878.55
1454.18
1808.34
1271.07
1902.57
1300.08
1391.54
1203.99
1232.33
1330.2
1178.6
1377.27
1115.6
1310.99
1643.76
1347.35
1161.71
1763.34
1555.4
1504.4
1404.94
1740.59
2033.88
1031.01
1546.12
1493.93
1527.21
1178.31
1408.16
1268.79
1493.8
1577.48
1658.34
1237.3
1536.04
1447.19
1564.6
1548.47
1519.24
1356.13
1388.31
1316.22
1128.04
1098.38
1217.11
1719.27
1312.46
1170.29
1319.97
1649.35
1373.18
1718.15
1613.25
1514.27
1462.08
1509.67
1776.14
1217.44
1540.76
1665.44
1691.15
1458.31
1265.15
1368.77
1511.22
1699.32
1199.5
1391.38
1450.93
1641.94
1508.62
1508.55
1728.04
1203.89
1277.45
1242.37
1778.49
1655.78
1450.31
1639.84
1279.66
1312
1638.8
1508.29
1744.55
1229.15
1594.93
1629
1469.48
1495.58
1579.81
1236.82
1082.02
1430.3
1508.87
1792.27
1396.69
1295.61
1414.87
1511.31
1591.22
1460.61
1272.05
1398.4
1625.89
1210.5
1269.32
1397.84
1307.09
1485.58
1460.66
1685.37
1526.9
1611.38
1319.51
1418.39
1484.9
1407.52
1365.37
1328.11
1323.51
1210.53
1558.53
1478.09
1477.06
1516.21
1144.12
1342.1
1768.93
1774.26
1271.28
1645.54
1510.21
1554.88
1321.07
1695.65
1675.16
1222.7
1372.2
1338.24
1327.25
1138.37
1192.13
1338.05
1670.61
1870.21
1294.64
1577.99
1557.33
1503.73
1382.73
1486.88
1684.37
1483.48
1231.41
1344.14
1320.42
1335.16
1527.97
1558.34
1560.34
1573.27
1573.42
1274.59
1586.64
1351.43
1546.12
917.348
1517.53
1710.61
1364.33
1031
1430.01
1389.66
1804.66
1247.31
1587.14
1414.45
1078.11
1759.12
1161.38
1390.14
1433.14
1142.8
1646.36
1487.9
1383.77
1455.66
1486.12
1387.77
1819.47
1169.52
1333.43
849.56
1363.7
1364.63
1442.16
1643.95
2047.39
1122.59
1337.34
1955.8
1164.01
1567.37
1266.16
1554.4
1012.37
1249.7
1946.5
1060.26
1891.38
1104.68
1791.67
1084.75
1243.78
882.389
1172.84
1907.55
950.586
1414.21
1059.86
1733.5
1911.03
965.76
1376.01
1296.57
1231.75
1221.92
1338.26
1436.25
1435.65
1546.39
1413.98
1737.4
1977.69
960.511
1444.3
1512.4
1435.6
1468
1400.93
1368.27
1399.48
1603.99
1407.6
1608.29
1330.5
1478.43
1711.81
1361.81
1536.01
1648.52
1328.44
1478.48
1414.02
1543.5
1390.54
1456.08
1369.67
1634.49
1346.04
1501.04
1102.69
1752.12
977.736
1509.12
1625.71
1757.57
1252.85
1463.82
1414.07
1462.24
1447.4
1407.72
1600.21
1220.48
783.164
1383.28
1034.82
1661.53
1258.58
1429.8
1570.81
815.95
1709.85
1216.26
906.694
1248.05
1567.98
1550.02
1442.98
953.653
1440.69
1480.08
1292.06
1259.55
1669.22
1632.02
1315.89
1445.76
1670.65
961.33
1604.21
1254.16
1538.07
987.212
1871.2
1836.61
1626.78
1438.22
1370.4
1563.34
1357.99
949.687
1200.26
1576.92
1266.42
1527.56
1028.22
1655.35
1542.57
681.202
1442.75
1491.34
834.568
1715.28
1095.21
1664.74
1755
1596.74
909.846
1453.59
1376.92
1445.15
1460.61
1525.47
964.455
1327.89
1271.75
1273.58
1648.16
1427.78
1501.83
1550.63
1538.24
1373.11
1460.9
1386.43
1498.95
1673.05
1313.56
1361.69
1298.62
1459.64
1623.26
1310.75
1353.25
1331.72
1431.13
1271.02
1289.53
1351.79
1370.58
1456.53
1348.32
1744.16
1603.54
1048.85
1060.73
1710.37
625.052
1582.44
1478.53
1271.86
1372.23
1724.66
817.077
1656.06
1500.1
930.992
1336.5
1293.76
1434.93
790.897
1701.43
1511.87
822.108
1680.56
1689.58
996.633
1759.72
1631.11
1003.54
1298.76
1272.93
823.639
1435.77
1464.38
1209.3
1253.86
1241.96
704.941
1246.61
809.932
673.693
1639
1294.75
1907.3
1317.55
960.918
1704.17
1395.4
872.3
1313.81
1302.21
866.402
1059.18
1702.58
544.962
1202.78
1170.39
627.411
1657.49
1608.96
1434.02
1347.96
1299.07
1203.57
751.912
1441.94
1351.29
1363.52
1434.93
903.359
1576.33
1313.64
1405.37
1289.85
1396.46
1455.03
1189.65
926.308
1341.49
1473.78
1307.98
1348.06
1414.98
1252.66
1359.95
893.239
1317.03
1501.91
1293.7
1374.14
1260.08
935.368
1716.87
1709.17
1678.86
1765.79
993.475
837.098
1323.82
1593.5
1463.1
1564.52
1603.81
1203.41
1148.86
852.756
970.219
1249.73
1408.77
1392.8
1381.49
1153.08
1640.65
1498.93
1008.68
1236.74
1193.17
1598.4
1256.95
750.898
1422.3
1422.4
1654.08
882.621
1300.73
1465.08
1328.67
1371.42
1555.94
1403.14
1208.72
1788.72
663.063
1120.75
1385.03
1255.57
1341.16
1759.31
1508.91
1428.7
1120.33
1715.21
1324.89
1454.84
1602.84
1654.78
1633.99
1652.94
1741.58
1797.19
1729.84
1730.7
1439.81
1616.14
1312.53
1371.44
1147.54
1077.8
709.503
1769.7
1752.9
1678.47
1358.93
1456.63
1440.05
1263.21
1471.43
1611.6
1218.47
1385.16
1543.65
1298.13
1318.45
1305.13
1355.58
1249.67
1347.34
1326.38
988.167
1462.57
1223.76
1382.81
865.24
1772.54
1394.58
1279.62
1241
1016.44
1423.25
1286.84
826.099
1114.82
1387.92
1070.96
1130.7
1807.6
1836.14
1329.38
1331.4
1577.14
1754.23
819.227
1267.26
1250.22
1342.36
1340.86
1362
1399.87
1146.09
941.043
1705.44
1335.25
1095.18
1141.07
1327.92
1429.48
1022.01
1374.4
1264.4
1312.27
1758.66
1103.39
952.438
1342.25
1293.91
1250.4
947.834
1659.56
1325.95
1313.15
1326.49
829.182
1331.52
1340.17
962.624
1324.52
1113.02
1498
1692.07
1264.04
1613.64
1485.32
1271.51
1279.83
1348.54
949.411
1486.19
1521.94
1302.78
883.235
1187.28
1375.98
1393.73
1267.17
923.187
1277.65
1654.66
1488.74
1284.89
1800.34
1102.73
1605.57
838.318
1090.18
1628
831.595
1638.85
1283.26
1428.32
1313.45
1830.15
1161.46
1433.63
1757.93
1715.9
1042.98
1694.47
1760.1
639.67
1381.65
1290.6
853.08
1525.31
1284.92
1314.37
1315.4
1403.48
1364.53
1302.83
1281.83
836.365
1521.05
1429.71
1413.18
1452.85
1358.54
1269.77
1190.6
1578.07
762.934
1243.38
1242.55
788.673
1626.68
1782.92
1399.18
1678.82
1716.75
1255.56
1284.09
1509.32
1676.22
1250.71
1541.55
1139.8
857.899
1583.17
1216.81
1653.83
1801.39
1750.62
882.785
1611.25
1441.02
1209.75
1300.23
1342.49
1288.16
892.791
1680.17
909.316
1670.95
1354.75
1140.14
1099.79
1366.02
1550.19
1736.02
1417.81
1875.4
1588.65
1640.22
825.999
1613.96
1562.68
1656.78
1259.45
1215.24
762.621
1389.08
1855.04
1683.64
933.666
1157.58
911.702
1258.83
1400.17
1132.52
2005.83
1316.16
1158.32
947.966
1485.82
1221.64
793.563
1375.24
1283.69
1290.73
1300.26
1304.19
953.188
1136.58
856.414
1289.09
1589.35
1500.35
1696.52
1656.83
1244.03
1189.99
836.68
1269.96
1558.83
1719.91
1587.18
1599.43
1096.41
783.59
1166.05
743.782
1575.47
1597.02
1191.53
1632.71
1572.77
1694.8
1476.18
1429.29
1421.29
1243.94
822.099
1178.08
882.613
1128.41
1300.56
1266.6
988.201
879.548
1536.92
1856.61
1804.12
1751.25
1414.66
1526.36
1516.6
1391.87
1299.93
1390.27
1207.34
1354.01
1356.37
881.595
1574.39
1335.44
1159.51
979.489
1282.38
1408.16
1405.15
1268.18
982.232
1735.13
1480.15
1289.37
1793.68
1216.21
859.666
1508.09
1356.73
1358.29
1357.81
1273.91
757.661
1365.5
1350.74
913.545
1724.54
1325.21
550.197
1299.29
1396.39
1414.55
1271.94
892.041
1235.48
1249.42
1076.1
1369.46
837.539
1382.9
1367.31
1052.06
1791.77
1348.89
962.599
1852.09
1391.12
1391.34
974.634
1366.85
908.103
)
;
    }
}


// ************************************************************************* //
