/*--------------------------------*- C++ -*----------------------------------*\
| =========                 |                                                 |
| \\      /  F ield         | OpenFOAM: The Open Source CFD Toolbox           |
|  \\    /   O peration     | Version:  v1912                                 |
|   \\  /    A nd           | Website:  www.openfoam.com                      |
|    \\/     M anipulation  |                                                 |
\*---------------------------------------------------------------------------*/
FoamFile
{
    version     2.0;
    format      ascii;
    class       surfaceScalarField;
    location    "7/oil";
    object      phi;
}
// * * * * * * * * * * * * * * * * * * * * * * * * * * * * * * * * * * * * * //

dimensions      [1 0 -1 0 0 0 0];
oriented        oriented;


internalField   nonuniform List<scalar> 
104676
(
-1.82015e-06
-1.82264e-06
-1.84093e-06
-1.0174e-06
-3.98403e-07
-4.0435e-07
-3.72605e-07
-3.20051e-07
-3.24746e-07
-1.96855e-07
-8.72475e-08
-8.85022e-08
-8.10833e-08
-5.75391e-08
-5.82329e-08
-4.30014e-08
-1.89335e-08
-1.91483e-08
-1.99214e-08
-1.14929e-08
-1.1587e-08
-1.10149e-08
-4.44854e-09
-4.45802e-09
-5.75059e-09
-2.6464e-09
-2.6179e-09
-3.40529e-09
-1.19853e-09
-1.14677e-09
-2.01491e-09
-7.29353e-10
-6.61029e-10
-1.32164e-09
-3.85146e-10
-3.08125e-10
-9.12791e-10
-2.48974e-10
-1.59872e-10
-6.949e-10
-1.58505e-10
-5.93861e-11
-5.70799e-10
-1.14082e-10
-1.00192e-11
-5.05413e-10
-8.52078e-11
1.98224e-11
-4.71091e-10
-6.81266e-11
3.38043e-11
-4.51875e-10
-5.72967e-11
3.80801e-11
-4.37488e-10
-5.01377e-11
3.57507e-11
-4.20064e-10
-4.57656e-11
2.83418e-11
-3.94403e-10
-4.38155e-11
1.81552e-11
-3.5653e-10
-4.41636e-11
6.29016e-12
-3.06217e-10
-4.5277e-11
-5.03571e-12
-2.45209e-10
-4.66592e-11
-1.43489e-11
-1.77869e-10
-4.72526e-11
-2.00876e-11
-1.11096e-10
-4.58852e-11
-2.08876e-11
-5.2887e-11
-4.11485e-11
-1.70609e-11
-1.26543e-11
-3.12178e-11
-9.01488e-12
4.6316e-12
-1.54468e-11
-1.83915e-12
2.549e-12
2.08256e-12
-3.97707e-07
-1.01928e-06
-4.05652e-07
-2.98222e-07
-2.9867e-07
-1.99218e-07
-1.77632e-07
-2.60795e-07
-1.79847e-07
-1.091e-07
-8.40044e-08
-7.1775e-08
-5.94174e-08
-5.85799e-08
-4.8642e-08
-3.6189e-08
-2.17992e-08
-2.03627e-08
-2.05148e-08
-1.45575e-08
-1.26096e-08
-1.29067e-08
-6.33592e-09
-5.72075e-09
-7.86618e-09
-4.28392e-09
-3.40298e-09
-5.21801e-09
-2.2138e-09
-1.63289e-09
-3.46504e-09
-1.57261e-09
-9.09714e-10
-2.48332e-09
-9.65653e-10
-4.01212e-10
-1.85065e-09
-7.33972e-10
-1.4768e-10
-1.48815e-09
-5.39406e-10
1.84057e-11
-1.26063e-09
-4.50708e-10
1.09099e-10
-1.13214e-09
-3.79189e-10
1.65497e-10
-1.05367e-09
-3.40589e-10
1.93988e-10
-1.00499e-09
-3.11214e-10
2.05238e-10
-9.64494e-10
-2.94701e-10
2.0407e-10
-9.20412e-10
-2.83153e-10
1.93305e-10
-8.60454e-10
-2.78764e-10
1.7499e-10
-7.79386e-10
-2.76778e-10
1.51547e-10
-6.758e-10
-2.75891e-10
1.27028e-10
-5.52828e-10
-2.73177e-10
1.03546e-10
-4.17727e-10
-2.65698e-10
8.33436e-11
-2.82797e-10
-2.4949e-10
6.86752e-11
-1.61864e-10
-2.2126e-10
5.91783e-11
-6.98959e-11
-1.76789e-10
5.36032e-11
-1.52519e-11
-1.14105e-10
4.40138e-11
-3.73252e-11
2.46224e-11
-3.20188e-07
-3.73692e-07
-3.25402e-07
-2.60852e-07
-1.78136e-07
-1.7987e-07
-1.78422e-07
-1.78929e-07
-1.64295e-07
-1.16335e-07
-7.35157e-08
-7.25758e-08
-6.91279e-08
-5.69531e-08
-4.88337e-08
-4.34212e-08
-2.52634e-08
-2.22426e-08
-2.6079e-08
-1.82606e-08
-1.3639e-08
-1.67126e-08
-9.12164e-09
-6.58067e-09
-1.05831e-08
-6.54828e-09
-3.86519e-09
-7.11897e-09
-3.76256e-09
-1.91534e-09
-4.85384e-09
-2.80342e-09
-1.03432e-09
-3.51695e-09
-1.86734e-09
-4.35209e-10
-2.65366e-09
-1.47946e-09
-1.17794e-10
-2.13596e-09
-1.14346e-09
8.63533e-11
-1.8058e-09
-9.84469e-10
2.03597e-10
-1.6078e-09
-8.55143e-10
2.77956e-10
-1.48124e-09
-7.85057e-10
3.17905e-10
-1.39752e-09
-7.32077e-10
3.37151e-10
-1.32957e-09
-7.0339e-10
3.40739e-10
-1.2613e-09
-6.84337e-10
3.32906e-10
-1.17636e-09
-6.76186e-10
3.12491e-10
-1.06753e-09
-6.70849e-10
2.85237e-10
-9.32128e-10
-6.65651e-10
2.54359e-10
-7.72968e-10
-6.54381e-10
2.22044e-10
-5.98228e-10
-6.3148e-10
1.91042e-10
-4.21354e-10
-5.9014e-10
1.63775e-10
-2.5831e-10
-5.2423e-10
1.39926e-10
-1.26418e-10
-4.27448e-10
1.18767e-10
-3.64297e-11
-2.94648e-10
9.05552e-11
-1.20526e-10
4.6771e-11
-8.74116e-08
-1.97611e-07
-8.86695e-08
-8.38433e-08
-1.09977e-07
-7.17272e-08
-7.27946e-08
-1.17406e-07
-7.25724e-08
-5.31825e-08
-5.44784e-08
-3.86494e-08
-3.73803e-08
-4.48562e-08
-2.78992e-08
-2.59818e-08
-2.2203e-08
-1.44589e-08
-1.7752e-08
-1.71005e-08
-9.38989e-09
-1.2437e-08
-9.47464e-09
-4.96201e-09
-8.70651e-09
-7.24784e-09
-3.03092e-09
-6.31423e-09
-4.57954e-09
-1.5753e-09
-4.6554e-09
-3.61532e-09
-8.4692e-10
-3.58086e-09
-2.60778e-09
-3.34103e-10
-2.84961e-09
-2.16666e-09
-4.40463e-11
-2.37936e-09
-1.76071e-09
1.46987e-10
-2.06546e-09
-1.56155e-09
2.63176e-10
-1.86412e-09
-1.39632e-09
3.39838e-10
-1.72799e-09
-1.30568e-09
3.84499e-10
-1.63151e-09
-1.23816e-09
4.09597e-10
-1.55059e-09
-1.20354e-09
4.19233e-10
-1.46946e-09
-1.1824e-09
4.16947e-10
-1.37139e-09
-1.17414e-09
3.9988e-10
-1.24855e-09
-1.16865e-09
3.74958e-10
-1.09742e-09
-1.16064e-09
3.4386e-10
-9.1995e-10
-1.14042e-09
3.08573e-10
-7.23979e-10
-1.09949e-09
2.72042e-10
-5.22797e-10
-1.02809e-09
2.36766e-10
-3.32246e-10
-9.17535e-10
2.02755e-10
-1.71419e-10
-7.58323e-10
1.70047e-10
-5.37403e-11
-5.39659e-10
1.27332e-10
-2.39244e-10
6.49773e-11
-5.75552e-08
-8.17913e-08
-5.82647e-08
-5.82941e-08
-6.06265e-08
-4.86116e-08
-5.61384e-08
-7.07305e-08
-4.88309e-08
-4.34385e-08
-3.92655e-08
-2.79127e-08
-3.28281e-08
-3.4875e-08
-2.05915e-08
-2.37475e-08
-1.98979e-08
-1.13858e-08
-1.70505e-08
-1.62496e-08
-7.54788e-09
-1.22728e-08
-1.00669e-08
-4.18539e-09
-8.88863e-09
-8.04712e-09
-2.58494e-09
-6.57715e-09
-5.51154e-09
-1.37949e-09
-4.96702e-09
-4.48918e-09
-7.36271e-10
-3.87114e-09
-3.41702e-09
-2.86623e-10
-3.11907e-09
-2.8982e-09
-2.0537e-11
-2.61685e-09
-2.41773e-09
1.54808e-10
-2.27483e-09
-2.16896e-09
2.65393e-10
-2.04531e-09
-1.96641e-09
3.40566e-10
-1.88508e-09
-1.85594e-09
3.90034e-10
-1.76796e-09
-1.77626e-09
4.20978e-10
-1.67114e-09
-1.73971e-09
4.39336e-10
-1.57742e-09
-1.71976e-09
4.43636e-10
-1.47023e-09
-1.71543e-09
4.34103e-10
-1.34053e-09
-1.71375e-09
4.15401e-10
-1.18344e-09
-1.70608e-09
3.88344e-10
-9.99341e-10
-1.67903e-09
3.54515e-10
-7.94786e-10
-1.62096e-09
3.16913e-10
-5.82083e-10
-1.51915e-09
2.78357e-10
-3.76833e-10
-1.36217e-09
2.39385e-10
-1.98689e-10
-1.13703e-09
2.00568e-10
-6.39877e-11
-8.24033e-10
1.49673e-10
-3.79609e-10
7.63775e-11
-1.88672e-08
-4.37917e-08
-1.91323e-08
-2.14153e-08
-3.77514e-08
-2.03271e-08
-2.4378e-08
-4.552e-08
-2.22478e-08
-2.0716e-08
-2.84275e-08
-1.45001e-08
-1.77761e-08
-2.63921e-08
-1.14228e-08
-1.39918e-08
-1.6721e-08
-6.96118e-09
-1.10955e-08
-1.42822e-08
-4.86368e-09
-8.59966e-09
-9.67311e-09
-2.88968e-09
-6.74081e-09
-8.0579e-09
-1.84807e-09
-5.31178e-09
-5.91336e-09
-1.02721e-09
-4.26811e-09
-4.97785e-09
-5.55007e-10
-3.49492e-09
-3.97138e-09
-2.18839e-10
-2.93853e-09
-3.44705e-09
-7.53802e-12
-2.53938e-09
-2.94751e-09
1.3062e-10
-2.25333e-09
-2.67882e-09
2.23815e-10
-2.04791e-09
-2.46379e-09
2.91961e-10
-1.89549e-09
-2.35397e-09
3.45608e-10
-1.77814e-09
-2.2749e-09
3.81286e-10
-1.67888e-09
-2.2466e-09
4.07637e-10
-1.58214e-09
-2.23621e-09
4.19706e-10
-1.47459e-09
-2.24431e-09
4.21328e-10
-1.34706e-09
-2.25367e-09
4.12395e-10
-1.19386e-09
-2.25242e-09
3.93141e-10
-1.01404e-09
-2.22374e-09
3.64881e-10
-8.12523e-10
-2.15283e-09
3.30361e-10
-6.00409e-10
-2.02416e-09
2.92896e-10
-3.92664e-10
-1.82323e-09
2.53318e-10
-2.09343e-10
-1.5331e-09
2.12742e-10
-6.807e-11
-1.12442e-09
1.59114e-10
-5.29571e-10
8.18918e-11
-1.14215e-08
-2.08421e-08
-1.15281e-08
-1.41674e-08
-2.24313e-08
-1.25741e-08
-1.73706e-08
-2.8637e-08
-1.36797e-08
-1.56144e-08
-2.07032e-08
-9.48057e-09
-1.41368e-08
-2.023e-08
-7.63975e-09
-1.15722e-08
-1.43633e-08
-4.92235e-09
-9.54888e-09
-1.2786e-08
-3.51943e-09
-7.6205e-09
-9.41921e-09
-2.18228e-09
-6.1586e-09
-8.09628e-09
-1.42352e-09
-4.96655e-09
-6.28366e-09
-8.21748e-10
-4.08239e-09
-5.4017e-09
-4.60305e-10
-3.39958e-09
-4.4486e-09
-2.05592e-10
-2.89131e-09
-3.91234e-09
-4.298e-11
-2.50925e-09
-3.39108e-09
6.15191e-11
-2.22692e-09
-3.1021e-09
1.4095e-10
-2.01447e-09
-2.88009e-09
2.03844e-10
-1.85561e-09
-2.7725e-09
2.59683e-10
-1.72741e-09
-2.70216e-09
2.99057e-10
-1.62015e-09
-2.68657e-09
3.32699e-10
-1.51834e-09
-2.69364e-09
3.55628e-10
-1.41113e-09
-2.72154e-09
3.70029e-10
-1.28871e-09
-2.74918e-09
3.73088e-10
-1.14443e-09
-2.76106e-09
3.64361e-10
-9.75619e-10
-2.73722e-09
3.44668e-10
-7.85471e-10
-2.65948e-09
3.16498e-10
-5.8342e-10
-2.50978e-09
2.83566e-10
-3.83337e-10
-2.27041e-09
2.47092e-10
-2.04974e-10
-1.92035e-09
2.08886e-10
-6.66073e-11
-1.42005e-09
1.57264e-10
-6.77899e-10
8.17207e-11
-4.37484e-09
-1.20773e-08
-4.38994e-09
-5.96329e-09
-1.51185e-08
-5.72443e-09
-8.2636e-09
-1.96556e-08
-6.68113e-09
-8.03473e-09
-1.58099e-08
-5.12218e-09
-8.02009e-09
-1.58883e-08
-4.35633e-09
-7.05288e-09
-1.23023e-08
-3.02817e-09
-6.29864e-09
-1.12788e-08
-2.26147e-09
-5.35809e-09
-8.87324e-09
-1.48652e-09
-4.62133e-09
-7.82347e-09
-1.00957e-09
-3.93527e-09
-6.3489e-09
-6.20821e-10
-3.40405e-09
-5.55594e-09
-3.7699e-10
-2.95264e-09
-4.69325e-09
-2.06753e-10
-2.58685e-09
-4.17733e-09
-1.00802e-10
-2.28683e-09
-3.66453e-09
-2.65733e-11
-2.05391e-09
-3.37222e-09
3.72115e-11
-1.86762e-09
-3.15595e-09
8.95731e-11
-1.7214e-09
-3.05869e-09
1.39962e-10
-1.59491e-09
-3.01376e-09
1.85116e-10
-1.48827e-09
-3.02012e-09
2.26915e-10
-1.38847e-09
-3.0554e-09
2.61962e-10
-1.28712e-09
-3.11285e-09
2.89951e-10
-1.17496e-09
-3.16778e-09
3.06437e-10
-1.04492e-09
-3.20121e-09
3.10106e-10
-8.93211e-10
-3.19003e-09
3.01105e-10
-7.21519e-10
-3.11301e-09
2.81837e-10
-5.37504e-10
-2.94978e-09
2.55994e-10
-3.53769e-10
-2.67956e-09
2.25416e-10
-1.89045e-10
-2.27747e-09
1.92395e-10
-6.0995e-11
-1.69464e-09
1.46535e-10
-8.16184e-10
7.72902e-11
-2.57508e-09
-6.92948e-09
-2.57277e-09
-3.93596e-09
-1.03004e-08
-3.45716e-09
-5.74642e-09
-1.38136e-08
-4.03147e-09
-5.88976e-09
-1.24029e-08
-3.26366e-09
-6.10954e-09
-1.28324e-08
-2.83612e-09
-5.57899e-09
-1.07627e-08
-2.07017e-09
-5.15183e-09
-1.01195e-08
-1.5865e-09
-4.51837e-09
-8.41352e-09
-1.09319e-09
-4.00934e-09
-7.55895e-09
-7.7354e-10
-3.49843e-09
-6.34511e-09
-5.14702e-10
-3.08911e-09
-5.6138e-09
-3.5146e-10
-2.71762e-09
-4.81985e-09
-2.44892e-10
-2.40388e-09
-4.30778e-09
-1.83283e-10
-2.13307e-09
-3.80797e-09
-1.27378e-10
-1.91213e-09
-3.51317e-09
-7.99899e-11
-1.72638e-09
-3.30251e-09
-3.91904e-11
-1.57622e-09
-3.21349e-09
4.64678e-12
-1.44507e-09
-3.1993e-09
5.43845e-11
-1.33229e-09
-3.23721e-09
1.04298e-10
-1.23083e-09
-3.30907e-09
1.52214e-10
-1.13387e-09
-3.40346e-09
1.93645e-10
-1.0317e-09
-3.4932e-09
2.23254e-10
-9.16881e-10
-3.5556e-09
2.39573e-10
-7.8442e-10
-3.56446e-09
2.41967e-10
-6.34501e-10
-3.49568e-09
2.32747e-10
-4.73019e-10
-3.32675e-09
2.1548e-10
-3.10919e-10
-3.03424e-09
1.92579e-10
-1.65357e-10
-2.58977e-09
1.66743e-10
-5.25471e-11
-1.93665e-09
1.29209e-10
-9.3818e-10
6.94487e-11
-1.13262e-09
-4.66505e-09
-1.13182e-09
-1.88767e-09
-7.80138e-09
-1.74399e-09
-3.02206e-09
-1.05328e-08
-2.14645e-09
-3.32011e-09
-1.02238e-08
-1.881e-09
-3.70451e-09
-1.07393e-08
-1.70865e-09
-3.59958e-09
-9.53688e-09
-1.33077e-09
-3.54228e-09
-9.11139e-09
-1.06536e-09
-3.28465e-09
-7.88731e-09
-7.83834e-10
-3.07212e-09
-7.17895e-09
-5.92538e-10
-2.80314e-09
-6.17488e-09
-4.39201e-10
-2.56967e-09
-5.50136e-09
-3.45907e-10
-2.32197e-09
-4.77438e-09
-2.93182e-10
-2.09757e-09
-4.27003e-09
-2.62147e-10
-1.8878e-09
-3.79457e-09
-2.23163e-10
-1.70132e-09
-3.50639e-09
-1.93263e-10
-1.53119e-09
-3.31087e-09
-1.61777e-10
-1.38688e-09
-3.23678e-09
-1.2102e-10
-1.26272e-09
-3.25206e-09
-7.1399e-11
-1.15179e-09
-3.33325e-09
-1.48796e-11
-1.05313e-09
-3.44964e-09
4.1909e-11
-9.62902e-10
-3.58781e-09
9.41204e-11
-8.71894e-10
-3.71905e-09
1.34842e-10
-7.72995e-10
-3.81698e-09
1.6248e-10
-6.60432e-10
-3.85257e-09
1.75547e-10
-5.33697e-10
-3.79872e-09
1.76311e-10
-3.96879e-10
-3.6316e-09
1.68033e-10
-2.59234e-10
-3.32542e-09
1.53533e-10
-1.36378e-10
-2.84836e-09
1.35735e-10
-4.24955e-11
-2.1381e-09
1.07561e-10
-1.04033e-09
5.96499e-11
-6.72375e-10
-3.31853e-09
-6.74145e-10
-1.26691e-09
-6.12593e-09
-1.08092e-09
-2.10981e-09
-8.35156e-09
-1.33834e-09
-2.44376e-09
-8.66285e-09
-1.22701e-09
-2.80765e-09
-9.23309e-09
-1.14235e-09
-2.82522e-09
-8.5855e-09
-9.33808e-10
-2.85864e-09
-8.30346e-09
-7.74514e-10
-2.72795e-09
-7.4123e-09
-6.05702e-10
-2.61338e-09
-6.80417e-09
-4.89349e-10
-2.43495e-09
-5.95051e-09
-4.02809e-10
-2.26372e-09
-5.31229e-09
-3.60294e-10
-2.06355e-09
-4.63062e-09
-3.43934e-10
-1.88193e-09
-4.1281e-09
-3.23554e-10
-1.69985e-09
-3.67894e-09
-2.977e-10
-1.52765e-09
-3.3985e-09
-2.80097e-10
-1.36361e-09
-3.21865e-09
-2.56256e-10
-1.21879e-09
-3.16283e-09
-2.18774e-10
-1.0943e-09
-3.20603e-09
-1.70515e-10
-9.84312e-10
-3.33317e-09
-1.10064e-10
-8.87692e-10
-3.49426e-09
-5.20019e-11
-8.01778e-10
-3.67888e-09
5.1528e-12
-7.19188e-10
-3.85422e-09
5.25822e-11
-6.33009e-10
-3.991e-09
8.78349e-11
-5.37525e-10
-4.05687e-09
1.08818e-10
-4.32045e-10
-4.02201e-09
1.17812e-10
-3.18817e-10
-3.8621e-09
1.17275e-10
-2.05089e-10
-3.54933e-09
1.10183e-10
-1.05199e-10
-3.04872e-09
1.0047e-10
-3.10697e-11
-2.2949e-09
8.26679e-11
-1.11978e-09
4.83859e-11
-3.42621e-10
-2.62898e-09
-3.46928e-10
-6.92855e-10
-5.14705e-09
-6.28647e-10
-1.22668e-09
-7.0005e-09
-8.17235e-10
-1.51642e-09
-7.57516e-09
-7.97959e-10
-1.85023e-09
-8.13208e-09
-7.67196e-10
-1.96481e-09
-7.80915e-09
-6.61776e-10
-2.08323e-09
-7.60917e-09
-5.75868e-10
-2.07367e-09
-6.93978e-09
-4.82081e-10
-2.05939e-09
-6.4005e-09
-4.17953e-10
-1.97608e-09
-5.65326e-09
-3.80555e-10
-1.87827e-09
-5.0396e-09
-3.70502e-10
-1.74754e-09
-4.40124e-09
-3.60111e-10
-1.61941e-09
-3.91182e-09
-3.444e-10
-1.47598e-09
-3.48662e-09
-3.35738e-10
-1.3313e-09
-3.21623e-09
-3.26956e-10
-1.18751e-09
-3.0516e-09
-3.10847e-10
-1.0553e-09
-3.01691e-09
-2.78124e-10
-9.37745e-10
-3.08938e-09
-2.34213e-10
-8.33112e-10
-3.25932e-09
-1.78485e-10
-7.39953e-10
-3.46278e-09
-1.24639e-10
-6.57636e-10
-3.69409e-09
-6.71042e-11
-5.8078e-10
-3.91402e-09
-1.70572e-11
-5.03709e-10
-4.08963e-09
2.15666e-11
-4.2106e-10
-4.18614e-09
4.66179e-11
-3.33308e-10
-4.17118e-09
6.14137e-11
-2.42205e-10
-4.02171e-09
6.85087e-11
-1.54094e-10
-3.70869e-09
7.12505e-11
-7.76556e-11
-3.19602e-09
7.08644e-11
-2.2171e-11
-2.41251e-09
6.21331e-11
-1.18036e-09
3.84112e-11
-2.13484e-10
-2.19753e-09
-2.17964e-10
-4.89965e-10
-4.46142e-09
-4.09146e-10
-8.87025e-10
-6.0601e-09
-5.43341e-10
-1.14839e-09
-6.7477e-09
-5.66095e-10
-1.43746e-09
-7.27752e-09
-5.6549e-10
-1.57579e-09
-7.16043e-09
-5.1039e-10
-1.70246e-09
-7.02136e-09
-4.61148e-10
-1.72567e-09
-6.50766e-09
-4.08904e-10
-1.73109e-09
-6.02073e-09
-3.74346e-10
-1.67896e-09
-5.34671e-09
-3.58677e-10
-1.61614e-09
-4.75575e-09
-3.46665e-10
-1.52355e-09
-4.1592e-09
-3.34634e-10
-1.41683e-09
-3.68919e-09
-3.29349e-10
-1.29454e-09
-3.28129e-09
-3.27616e-10
-1.17009e-09
-3.01805e-09
-3.22625e-10
-1.04444e-09
-2.86571e-09
-3.11541e-10
-9.25027e-10
-2.85254e-09
-2.83788e-10
-8.1415e-10
-2.95045e-09
-2.49803e-10
-7.16603e-10
-3.14753e-09
-2.09344e-10
-6.26168e-10
-3.38575e-09
-1.67466e-10
-5.44398e-10
-3.65763e-09
-1.18234e-10
-4.69534e-10
-3.91609e-09
-7.27938e-11
-3.98701e-10
-4.12615e-09
-3.43133e-11
-3.27402e-10
-4.25328e-09
-4.15176e-12
-2.53845e-10
-4.26196e-09
1.72196e-11
-1.79889e-10
-4.12494e-09
2.92746e-11
-1.10406e-10
-3.81468e-09
3.65099e-11
-5.25549e-11
-3.29534e-09
4.14637e-11
-1.33634e-11
-2.49262e-09
4.09117e-11
-1.22196e-09
2.82342e-11
-1.26777e-10
-1.93645e-09
-1.34309e-10
-3.15392e-10
-3.9999e-09
-2.72904e-10
-5.87085e-10
-5.42087e-09
-3.67543e-10
-7.93992e-10
-6.14248e-09
-3.98315e-10
-1.02445e-09
-6.63783e-09
-4.09231e-10
-1.16282e-09
-6.63318e-09
-3.88869e-10
-1.29233e-09
-6.52306e-09
-3.68785e-10
-1.35134e-09
-6.0993e-09
-3.49344e-10
-1.38444e-09
-5.65144e-09
-3.36192e-10
-1.36658e-09
-5.04415e-09
-3.20417e-10
-1.33536e-09
-4.48633e-09
-3.00643e-10
-1.27332e-09
-3.93115e-09
-2.90088e-10
-1.19828e-09
-3.47938e-09
-2.84857e-10
-1.10725e-09
-3.09244e-09
-2.7988e-10
-1.00967e-09
-2.84359e-09
-2.72029e-10
-9.06122e-10
-2.70877e-09
-2.60495e-10
-8.06613e-10
-2.71425e-09
-2.37799e-10
-7.09291e-10
-2.83338e-09
-2.14393e-10
-6.20689e-10
-3.05076e-09
-1.85368e-10
-5.38267e-10
-3.31114e-09
-1.5703e-10
-4.6307e-10
-3.60415e-09
-1.28668e-10
-3.90823e-10
-3.88607e-09
-1.02263e-10
-3.19899e-10
-4.12271e-09
-7.43655e-11
-2.49625e-10
-4.27629e-09
-4.72679e-11
-1.83098e-10
-4.30443e-09
-2.40577e-11
-1.21804e-10
-4.17859e-09
-7.64168e-12
-6.85518e-11
-3.87233e-09
4.39277e-12
-2.81142e-11
-3.35058e-09
1.48056e-11
-4.74812e-12
-2.53756e-09
2.1578e-11
-1.24562e-09
1.89102e-11
-9.09948e-11
-1.75088e-09
-9.45729e-11
-2.4769e-10
-3.64464e-09
-1.98565e-10
-4.62349e-10
-4.93205e-09
-2.74153e-10
-6.40579e-10
-5.65566e-09
-3.08585e-10
-8.2826e-10
-6.12272e-09
-3.27431e-10
-9.49347e-10
-6.18508e-09
-3.27023e-10
-1.0545e-09
-6.09685e-09
-3.21055e-10
-1.10796e-09
-5.7392e-09
-3.0664e-10
-1.14652e-09
-5.32477e-09
-2.88119e-10
-1.14467e-09
-4.78085e-09
-2.6516e-10
-1.12327e-09
-4.26394e-09
-2.43789e-10
-1.07564e-09
-3.74953e-09
-2.29254e-10
-1.02349e-09
-3.31482e-09
-2.16712e-10
-9.57049e-10
-2.95521e-09
-2.03677e-10
-8.82113e-10
-2.7288e-09
-1.89732e-10
-8.00982e-10
-2.613e-09
-1.76901e-10
-7.20337e-10
-2.63221e-09
-1.6268e-10
-6.36458e-10
-2.7643e-09
-1.52961e-10
-5.5373e-10
-2.99284e-09
-1.40644e-10
-4.71494e-10
-3.26489e-09
-1.28486e-10
-3.93298e-10
-3.56816e-09
-1.14191e-10
-3.18606e-10
-3.86077e-09
-9.9997e-11
-2.47997e-10
-4.1091e-09
-8.422e-11
-1.81727e-10
-4.27359e-09
-6.89658e-11
-1.22122e-10
-4.30995e-09
-5.4086e-11
-7.11306e-11
-4.18946e-09
-4.01236e-11
-3.14405e-11
-3.88634e-09
-2.56796e-11
-6.11151e-12
-3.36534e-09
-1.05677e-11
3.21324e-12
-2.54991e-09
3.02335e-12
-1.25255e-09
1.01489e-11
-6.91714e-11
-1.61139e-09
-7.03197e-11
-1.91793e-10
-3.36852e-09
-1.53505e-10
-3.57251e-10
-4.54804e-09
-2.18555e-10
-5.05961e-10
-5.25242e-09
-2.54536e-10
-6.59947e-10
-5.69338e-09
-2.75353e-10
-7.7118e-10
-5.79797e-09
-2.75875e-10
-8.68518e-10
-5.73582e-09
-2.63694e-10
-9.18976e-10
-5.44509e-09
-2.43652e-10
-9.45203e-10
-5.07503e-09
-2.23509e-10
-9.38259e-10
-4.58482e-09
-2.02976e-10
-9.23296e-10
-4.10097e-09
-1.77935e-10
-8.97244e-10
-3.62559e-09
-1.49993e-10
-8.66346e-10
-3.2245e-09
-1.21213e-10
-8.21883e-10
-2.90121e-09
-9.84639e-11
-7.67513e-10
-2.697e-09
-8.61726e-11
-7.09896e-10
-2.58981e-09
-8.08002e-11
-6.47728e-10
-2.61483e-09
-7.95543e-11
-5.76347e-10
-2.75161e-09
-8.40668e-11
-5.01645e-10
-2.97768e-09
-8.98688e-11
-4.2041e-10
-3.24897e-09
-9.71572e-11
-3.3684e-10
-3.5515e-09
-1.00225e-10
-2.5527e-10
-3.84266e-09
-9.96766e-11
-1.80611e-10
-4.08818e-09
-9.55764e-11
-1.16499e-10
-4.24788e-09
-8.98215e-11
-6.33493e-11
-4.28228e-09
-8.08174e-11
-2.23592e-11
-4.16236e-09
-6.80944e-11
3.88526e-12
-3.86135e-09
-5.12343e-11
1.46687e-11
-3.34424e-09
-3.18831e-11
1.09143e-11
-2.53436e-09
-1.17926e-11
-1.24425e-09
2.61113e-12
-5.98749e-11
-1.49214e-09
-5.93724e-11
-1.71876e-10
-3.12266e-09
-1.33854e-10
-3.15812e-10
-4.21029e-09
-1.93815e-10
-4.50082e-10
-4.88686e-09
-2.31289e-10
-5.81798e-10
-5.30622e-09
-2.55444e-10
-6.77787e-10
-5.4394e-09
-2.62583e-10
-7.54368e-10
-5.40363e-09
-2.55608e-10
-7.93716e-10
-5.17052e-09
-2.35223e-10
-8.14295e-10
-4.84983e-09
-2.04618e-10
-8.0542e-10
-4.42285e-09
-1.70845e-10
-7.86084e-10
-3.98418e-09
-1.36122e-10
-7.61642e-10
-3.55165e-09
-9.83765e-11
-7.36703e-10
-3.18914e-09
-6.0304e-11
-7.06508e-10
-2.90098e-09
-3.04254e-11
-6.7205e-10
-2.71936e-09
-1.20937e-11
-6.32213e-10
-2.62376e-09
-5.8877e-12
-5.81844e-10
-2.65264e-09
-1.25575e-11
-5.17314e-10
-2.78781e-09
-2.83343e-11
-4.47449e-10
-2.99783e-09
-4.97133e-11
-3.6525e-10
-3.25758e-09
-7.35894e-11
-2.77301e-10
-3.55005e-09
-8.94037e-11
-1.91425e-10
-3.82968e-09
-9.88577e-11
-1.14271e-10
-4.05739e-09
-1.07947e-10
-5.2217e-11
-4.19576e-09
-1.14179e-10
-4.52414e-12
-4.21836e-09
-1.11612e-10
2.77565e-11
-4.09498e-09
-9.96539e-11
4.10252e-11
-3.79536e-09
-7.92539e-11
3.72863e-11
-3.28577e-09
-5.4731e-11
1.98012e-11
-2.48946e-09
-2.74204e-11
-1.21891e-09
-5.53782e-12
-5.66179e-11
-1.37976e-09
-5.57606e-11
-1.61185e-10
-2.89066e-09
-1.27437e-10
-2.90878e-10
-3.8946e-09
-1.85992e-10
-4.14816e-10
-4.53707e-09
-2.25852e-10
-5.31409e-10
-4.93595e-09
-2.53681e-10
-6.16607e-10
-5.08781e-09
-2.66385e-10
-6.79237e-10
-5.07704e-09
-2.63965e-10
-7.1058e-10
-4.89285e-09
-2.46329e-10
-7.25851e-10
-4.61962e-09
-2.14937e-10
-7.16931e-10
-4.26048e-09
-1.71289e-10
-6.94445e-10
-3.88221e-09
-1.2446e-10
-6.66386e-10
-3.50142e-09
-7.82909e-11
-6.42956e-10
-3.1786e-09
-3.3972e-11
-6.19775e-10
-2.92593e-09
1.76783e-12
-5.94967e-10
-2.76879e-09
2.46166e-11
-5.62193e-10
-2.68734e-09
3.08068e-11
-5.16516e-10
-2.71688e-09
1.85604e-11
-4.54128e-10
-2.84484e-09
-5.3545e-12
-3.81734e-10
-3.03188e-09
-3.83409e-11
-2.95637e-10
-3.26918e-09
-7.45007e-11
-2.05175e-10
-3.5344e-09
-1.06107e-10
-1.17173e-10
-3.78564e-09
-1.32038e-10
-4.05002e-11
-3.98634e-09
-1.47725e-10
2.03908e-11
-4.10381e-09
-1.52843e-10
6.17645e-11
-4.11315e-09
-1.46581e-10
8.30116e-11
-3.98651e-09
-1.29722e-10
8.24065e-11
-3.6896e-09
-1.05153e-10
6.25245e-11
-3.19007e-09
-7.58248e-11
2.88977e-11
-2.41358e-09
-4.22499e-11
-1.17652e-09
-1.34984e-11
-5.78508e-11
-1.26585e-09
-5.60603e-11
-1.6414e-10
-2.65548e-09
-1.28883e-10
-2.91789e-10
-3.57701e-09
-1.89947e-10
-4.15383e-10
-4.1808e-09
-2.32668e-10
-5.28332e-10
-4.55932e-09
-2.63678e-10
-6.13046e-10
-4.7222e-09
-2.80895e-10
-6.72856e-10
-4.73271e-09
-2.84521e-10
-6.98671e-10
-4.59456e-09
-2.72471e-10
-7.03054e-10
-4.37121e-09
-2.4403e-10
-6.87581e-10
-4.0762e-09
-1.9975e-10
-6.62152e-10
-3.76255e-09
-1.45084e-10
-6.26909e-10
-3.44461e-09
-9.20533e-11
-5.93467e-10
-3.16547e-09
-4.65716e-11
-5.63521e-10
-2.94606e-09
-9.81655e-12
-5.3393e-10
-2.81274e-09
1.43581e-11
-4.96025e-10
-2.74565e-09
2.0401e-11
-4.44375e-10
-2.77337e-09
4.84378e-12
-3.75431e-10
-2.88932e-09
-2.44641e-11
-2.93809e-10
-3.05093e-09
-6.25687e-11
-2.01421e-10
-3.25633e-09
-1.05236e-10
-1.06266e-10
-3.48043e-09
-1.49129e-10
-1.54178e-11
-3.6911e-09
-1.85388e-10
6.06342e-11
-3.85855e-09
-2.03842e-10
1.15854e-10
-3.95234e-09
-2.06689e-10
1.45329e-10
-3.94609e-09
-1.96534e-10
1.49383e-10
-3.81623e-09
-1.74332e-10
1.29768e-10
-3.53093e-09
-1.39062e-10
8.95876e-11
-3.05072e-09
-9.91682e-11
3.82764e-11
-2.30365e-09
-5.86206e-11
-1.11571e-09
-2.25342e-11
-6.17756e-11
-1.14415e-09
-5.99211e-11
-1.72867e-10
-2.40819e-09
-1.36206e-10
-3.05684e-10
-3.24297e-09
-2.01223e-10
-4.38053e-10
-3.79893e-09
-2.49506e-10
-5.56436e-10
-4.15345e-09
-2.87486e-10
-6.45029e-10
-4.32187e-09
-3.11738e-10
-7.04272e-10
-4.35161e-09
-3.21852e-10
-7.28642e-10
-4.25441e-09
-3.15787e-10
-7.26888e-10
-4.07909e-09
-2.9387e-10
-7.02967e-10
-3.84309e-09
-2.57035e-10
-6.68365e-10
-3.58938e-09
-2.07768e-10
-6.25084e-10
-3.33478e-09
-1.53113e-10
-5.75989e-10
-3.10844e-09
-1.06119e-10
-5.28021e-10
-2.92129e-09
-7.27371e-11
-4.8122e-10
-2.80698e-09
-5.25545e-11
-4.26806e-10
-2.75131e-09
-4.87513e-11
-3.59523e-10
-2.77583e-09
-6.48212e-11
-2.78094e-10
-2.8761e-09
-9.4644e-11
-1.8444e-10
-3.00781e-09
-1.36775e-10
-8.23537e-11
-3.17477e-09
-1.83645e-10
1.90091e-11
-3.35678e-09
-2.25013e-10
1.10617e-10
-3.52755e-09
-2.55159e-10
1.82187e-10
-3.66118e-09
-2.68942e-10
2.26712e-10
-3.72974e-09
-2.67126e-10
2.38967e-10
-3.70706e-09
-2.51284e-10
2.1912e-10
-3.57045e-09
-2.25932e-10
1.73726e-10
-3.29485e-09
-1.90678e-10
1.13102e-10
-2.84324e-09
-1.46859e-10
4.62115e-11
-2.14435e-09
-9.24096e-11
-1.03451e-09
-3.49877e-11
-6.67091e-11
-1.01083e-09
-6.66158e-11
-1.89823e-10
-2.13339e-09
-1.51679e-10
-3.34238e-10
-2.87819e-09
-2.20366e-10
-4.78148e-10
-3.38192e-09
-2.731e-10
-6.06356e-10
-3.70864e-09
-3.16607e-10
-7.04438e-10
-3.87568e-09
-3.4811e-10
-7.69131e-10
-3.92032e-09
-3.66596e-10
-7.96421e-10
-3.8574e-09
-3.69718e-10
-7.92536e-10
-3.72536e-09
-3.5762e-10
-7.61837e-10
-3.54246e-09
-3.31323e-10
-7.13963e-10
-3.3434e-09
-2.93854e-10
-6.53866e-10
-3.14497e-09
-2.49905e-10
-5.84999e-10
-2.96969e-09
-2.07622e-10
-5.11435e-10
-2.81902e-09
-1.75838e-10
-4.39192e-10
-2.71988e-09
-1.59348e-10
-3.58817e-10
-2.67422e-09
-1.5747e-10
-2.66373e-10
-2.69553e-09
-1.7275e-10
-1.65326e-10
-2.77465e-09
-2.02503e-10
-5.52659e-11
-2.87623e-09
-2.41639e-10
5.75607e-11
-3.00617e-09
-2.81424e-10
1.63317e-10
-3.14884e-09
-3.13692e-10
2.52516e-10
-3.28232e-09
-3.34426e-10
3.15322e-10
-3.38408e-09
-3.39901e-10
3.45221e-10
-3.42949e-09
-3.30147e-10
3.38537e-10
-3.39451e-09
-3.05872e-10
2.9629e-10
-3.25655e-09
-2.7165e-10
2.2493e-10
-2.99325e-09
-2.30241e-10
1.39285e-10
-2.57533e-09
-1.82263e-10
5.45941e-11
-1.93976e-09
-1.19896e-10
-9.33106e-10
-4.68065e-11
-7.12581e-11
-8.65647e-10
-7.39226e-11
-2.06428e-10
-1.83127e-09
-1.66955e-10
-3.63994e-10
-2.48159e-09
-2.39036e-10
-5.21893e-10
-2.92736e-09
-2.96663e-10
-6.63707e-10
-3.22013e-09
-3.46693e-10
-7.74977e-10
-3.37829e-09
-3.86122e-10
-8.4983e-10
-3.43125e-09
-4.14217e-10
-8.83852e-10
-3.39461e-09
-4.28767e-10
-8.80629e-10
-3.29917e-09
-4.29409e-10
-8.44194e-10
-3.1623e-09
-4.16594e-10
-7.82988e-10
-3.01129e-09
-3.93324e-10
-7.0238e-10
-2.86111e-09
-3.64471e-10
-6.0977e-10
-2.72719e-09
-3.35111e-10
-5.06593e-10
-2.61252e-09
-3.09668e-10
-4.02832e-10
-2.53049e-09
-2.93149e-10
-2.91206e-10
-2.49493e-09
-2.90913e-10
-1.70229e-10
-2.51236e-09
-3.04142e-10
-4.50247e-11
-2.56983e-09
-3.30017e-10
8.44477e-11
-2.64523e-09
-3.60478e-10
2.08603e-10
-2.74146e-09
-3.88863e-10
3.17701e-10
-2.84873e-09
-4.09213e-10
4.02354e-10
-2.94884e-09
-4.18142e-10
4.53487e-10
-3.0229e-09
-4.12318e-10
4.65657e-10
-3.04966e-09
-3.92002e-10
4.37161e-10
-3.00789e-09
-3.58122e-10
3.71677e-10
-2.87669e-09
-3.14375e-10
2.76722e-10
-2.63499e-09
-2.63309e-10
1.67773e-10
-2.25853e-09
-2.07854e-10
6.35801e-11
-1.69573e-09
-1.39833e-10
-8.12761e-10
-5.67649e-11
-7.70413e-11
-7.09827e-10
-7.87797e-11
-2.21429e-10
-1.51101e-09
-1.75874e-10
-3.90394e-10
-2.05937e-09
-2.53256e-10
-5.625e-10
-2.43966e-09
-3.15593e-10
-7.19215e-10
-2.69238e-09
-3.71039e-10
-8.45411e-10
-2.83443e-09
-4.17661e-10
-9.32584e-10
-2.88891e-09
-4.55177e-10
-9.75174e-10
-2.87066e-09
-4.81356e-10
-9.74474e-10
-2.8044e-09
-4.95471e-10
-9.33881e-10
-2.70537e-09
-4.97527e-10
-8.59862e-10
-2.59533e-09
-4.89975e-10
-7.59027e-10
-2.48516e-09
-4.76786e-10
-6.43138e-10
-2.38395e-09
-4.59129e-10
-5.12863e-10
-2.30124e-09
-4.41559e-10
-3.7373e-10
-2.24123e-09
-4.28397e-10
-2.29146e-10
-2.21194e-09
-4.27576e-10
-8.09056e-11
-2.22081e-09
-4.39788e-10
7.15208e-11
-2.26165e-09
-4.60614e-10
2.21497e-10
-2.31631e-09
-4.789e-10
3.5608e-10
-2.38396e-09
-4.92091e-10
4.66611e-10
-2.46091e-09
-4.98345e-10
5.44665e-10
-2.5331e-09
-4.93794e-10
5.82343e-10
-2.58493e-09
-4.75649e-10
5.75782e-10
-2.59855e-09
-4.44547e-10
5.25147e-10
-2.55572e-09
-4.01539e-10
4.36451e-10
-2.43799e-09
-3.50009e-10
3.1976e-10
-2.2267e-09
-2.91595e-10
1.9111e-10
-1.90032e-09
-2.2956e-10
7.03828e-11
-1.41851e-09
-1.56496e-10
-6.77074e-10
-6.53043e-11
-8.05241e-11
-5.47828e-10
-8.14741e-11
-2.2985e-10
-1.18113e-09
-1.80554e-10
-4.06729e-10
-1.6219e-09
-2.60591e-10
-5.89952e-10
-1.93122e-09
-3.2521e-10
-7.59562e-10
-2.13857e-09
-3.84196e-10
-8.99652e-10
-2.25799e-09
-4.36349e-10
-9.99125e-10
-2.30754e-09
-4.81898e-10
-1.05092e-09
-2.30027e-09
-5.18589e-10
-1.05421e-09
-2.25544e-09
-5.45677e-10
-1.01089e-09
-2.18627e-09
-5.62427e-10
-9.26878e-10
-2.10894e-09
-5.70398e-10
-8.10646e-10
-2.03054e-09
-5.70846e-10
-6.72061e-10
-1.95871e-09
-5.63824e-10
-5.15358e-10
-1.90161e-09
-5.56335e-10
-3.44505e-10
-1.86222e-09
-5.4986e-10
-1.68735e-10
-1.83849e-09
-5.49218e-10
7.67843e-12
-1.84052e-09
-5.56703e-10
1.81494e-10
-1.86668e-09
-5.68784e-10
3.44786e-10
-1.90355e-09
-5.76048e-10
4.86245e-10
-1.94927e-09
-5.76149e-10
5.95924e-10
-2.00218e-09
-5.68418e-10
6.65856e-10
-2.0525e-09
-5.50526e-10
6.89439e-10
-2.08792e-09
-5.20595e-10
6.64556e-10
-2.09405e-09
-4.79614e-10
5.93499e-10
-2.05574e-09
-4.28921e-10
4.84584e-10
-1.95737e-09
-3.71708e-10
3.49703e-10
-1.78307e-09
-3.08753e-10
2.06771e-10
-1.51517e-09
-2.42216e-10
7.55613e-11
-1.12261e-09
-1.64693e-10
-5.31291e-10
-7.02223e-11
-7.97541e-11
-3.88004e-10
-8.00707e-11
-2.28621e-10
-8.55337e-10
-1.76922e-10
-4.07292e-10
-1.18785e-09
-2.55377e-10
-5.95772e-10
-1.42355e-09
-3.1919e-10
-7.73611e-10
-1.58188e-09
-3.7885e-10
-9.24035e-10
-1.67389e-09
-4.33676e-10
-1.03373e-09
-1.71318e-09
-4.84661e-10
-1.0941e-09
-1.71061e-09
-5.29292e-10
-1.10208e-09
-1.68075e-09
-5.66714e-10
-1.05831e-09
-1.63411e-09
-5.95922e-10
-9.67607e-10
-1.58177e-09
-6.17879e-10
-8.40427e-10
-1.52815e-09
-6.29573e-10
-6.84609e-10
-1.48109e-09
-6.33436e-10
-5.07044e-10
-1.44395e-09
-6.35225e-10
-3.13847e-10
-1.41941e-09
-6.36004e-10
-1.15794e-10
-1.40166e-09
-6.34881e-10
8.094e-11
-1.40031e-09
-6.36946e-10
2.6968e-10
-1.415e-09
-6.40412e-10
4.40817e-10
-1.43741e-09
-6.37281e-10
5.85129e-10
-1.46771e-09
-6.25872e-10
6.91002e-10
-1.50252e-09
-6.05528e-10
7.5119e-10
-1.53648e-09
-5.76212e-10
7.60875e-10
-1.56077e-09
-5.3683e-10
7.19695e-10
-1.56421e-09
-4.88656e-10
6.31929e-10
-1.53493e-09
-4.33047e-10
5.0784e-10
-1.46012e-09
-3.73155e-10
3.61356e-10
-1.32738e-09
-3.09208e-10
2.11372e-10
-1.12267e-09
-2.42509e-10
7.71315e-11
-8.23862e-10
-1.64507e-10
-3.83012e-10
-7.11476e-11
-7.3601e-11
-2.40748e-10
-7.36547e-11
-2.13498e-10
-5.52706e-10
-1.62734e-10
-3.85658e-10
-7.81419e-10
-2.34272e-10
-5.71456e-10
-9.44971e-10
-2.92785e-10
-7.50729e-10
-1.05356e-09
-3.49049e-10
-9.06094e-10
-1.11567e-09
-4.0286e-10
-1.02239e-09
-1.14133e-09
-4.55563e-10
-1.08944e-09
-1.13891e-09
-5.04638e-10
-1.10249e-09
-1.11863e-09
-5.49073e-10
-1.06092e-09
-1.08825e-09
-5.87428e-10
-9.69192e-10
-1.05443e-09
-6.19063e-10
-8.37052e-10
-1.02106e-09
-6.39232e-10
-6.72569e-10
-9.92662e-10
-6.52912e-10
-4.83955e-10
-9.70457e-10
-6.62105e-10
-2.7951e-10
-9.5579e-10
-6.68067e-10
-7.05533e-11
-9.44107e-10
-6.66512e-10
1.35022e-10
-9.41824e-10
-6.64063e-10
3.2875e-10
-9.48723e-10
-6.6001e-10