/*--------------------------------*- C++ -*----------------------------------*\
| =========                 |                                                 |
| \\      /  F ield         | OpenFOAM: The Open Source CFD Toolbox           |
|  \\    /   O peration     | Version:  v1906                                 |
|   \\  /    A nd           | Web:      www.OpenFOAM.com                      |
|    \\/     M anipulation  |                                                 |
\*---------------------------------------------------------------------------*/
FoamFile
{
    version     2.0;
    format      ascii;
    class       surfaceScalarField;
    location    "72.2/oil";
    object      phi;
}
// * * * * * * * * * * * * * * * * * * * * * * * * * * * * * * * * * * * * * //

dimensions      [1 0 -1 0 0 0 0];
oriented        oriented;


internalField   nonuniform List<scalar> 
80688
(
-2.14504e-06
-2.18141e-06
-2.14504e-06
-9.67682e-07
-6.09007e-07
-5.68352e-07
-2.59888e-07
-3.56632e-07
-3.51161e-07
-1.22474e-07
-6.94366e-08
-6.79774e-08
-4.09179e-08
-4.13117e-08
-4.02448e-08
-1.87749e-10
-2.06836e-08
-2.00465e-08
2.24594e-08
-1.14057e-08
-1.12414e-08
3.51122e-08
-6.2422e-09
-6.41061e-09
4.12701e-08
-2.92697e-09
-3.23082e-09
4.24381e-08
-4.76875e-10
-6.91086e-10
3.94195e-08
1.53665e-09
1.48199e-09
3.28481e-08
3.18879e-09
3.38263e-09
2.34184e-08
4.48605e-09
4.94368e-09
1.19559e-08
5.3959e-09
6.06662e-09
-5.88208e-10
5.87749e-09
6.66667e-09
-1.31985e-08
5.90996e-09
6.70032e-09
-2.48742e-08
5.50078e-09
6.17495e-09
-3.47153e-08
4.68897e-09
5.15214e-09
-4.20049e-08
3.5444e-09
3.74522e-09
-4.62645e-08
2.15514e-09
2.10455e-09
-4.72967e-08
6.15455e-10
4.16707e-10
-4.51842e-08
-9.2978e-10
-1.1827e-09
-4.02966e-08
-2.39734e-09
-2.49025e-09
-3.32568e-08
-3.68644e-09
-3.3533e-09
-2.49082e-08
-4.67834e-09
-3.6702e-09
-1.62748e-08
-5.23608e-09
-3.39737e-09
-8.50042e-09
-5.17921e-09
-2.59511e-09
-2.73531e-09
-4.28196e-09
-1.48313e-09
1.16158e-10
-2.32459e-09
-5.26848e-10
2.27035e-10
-1.10859e-10
-5.7643e-07
-1.02855e-06
-5.76424e-07
-3.41238e-07
-3.8304e-07
-4.61159e-07
-2.36563e-07
-2.65311e-07
-1.95996e-07
-1.02744e-07
-1.25969e-07
-7.7287e-08
-2.27037e-08
-8.36888e-08
-3.76626e-08
2.71158e-08
-5.71663e-08
-1.33368e-08
5.92559e-08
-4.33611e-08
-1.84608e-10
7.89134e-08
-3.41863e-08
8.28664e-09
8.85687e-08
-2.72714e-08
1.46892e-08
8.94182e-08
-2.14448e-08
2.01184e-08
8.23391e-08
-1.63364e-08
2.49522e-08
6.82887e-08
-1.19394e-08
2.91787e-08
4.85359e-08
-8.38716e-09
3.26261e-08
2.47001e-08
-5.86406e-09
3.50958e-08
-1.31793e-09
-4.51821e-09
3.64138e-08
-2.74674e-08
-4.42893e-09
3.64884e-08
-5.17218e-08
-5.57883e-09
3.5334e-08
-7.22601e-08
-7.84814e-09
3.30755e-08
-8.76285e-08
-1.1026e-08
2.99387e-08
-9.686e-08
-1.48274e-08
2.62141e-08
-9.95601e-08
-1.89267e-08
2.22422e-08
-9.58969e-08
-2.29628e-08
1.83699e-08
-8.66124e-08
-2.65806e-08
1.48987e-08
-7.29483e-08
-2.94153e-08
1.20649e-08
-5.6557e-08
-3.10809e-08
1.00112e-08
-3.93815e-08
-3.11411e-08
8.72959e-09
-2.34871e-08
-2.90811e-08
8.0075e-09
-1.08109e-08
-2.43134e-08
7.35528e-09
-2.79109e-09
-1.62666e-08
5.92225e-09
-5.363e-09
2.79896e-09
-3.56885e-07
-3.1479e-07
-3.56878e-07
-2.3153e-07
-3.10695e-07
-1.977e-07
-1.42653e-07
-2.36388e-07
-1.17801e-07
-5.31845e-08
-1.62744e-07
-5.26941e-08
1.09652e-08
-1.29724e-07
-1.81146e-08
5.79474e-08
-1.07699e-07
3.55083e-09
9.10252e-08
-9.35896e-08
1.71507e-08
1.12182e-07
-8.24066e-08
2.7064e-08
1.22283e-07
-7.258e-08
3.5207e-08
1.21813e-07
-6.34187e-08
4.24437e-08
1.11387e-07
-5.49021e-08
4.8992e-08
9.20117e-08
-4.73161e-08
5.47521e-08
6.52444e-08
-4.10745e-08
5.94546e-08
3.315e-08
-3.65918e-08
6.28222e-08
-1.79217e-09
-3.41917e-08
6.46157e-08
-3.68949e-08
-3.40404e-08
6.47143e-08
-6.94961e-08
-3.61118e-08
6.31341e-08
-9.71975e-08
-4.01817e-08
6.0035e-08
-1.18092e-07
-4.58419e-08
5.57109e-08
-1.30909e-07
-5.25473e-08
5.05367e-08
-1.35129e-07
-5.96569e-08
4.49502e-08
-1.3098e-07
-6.64774e-08
3.93649e-08
-1.1942e-07
-7.23019e-08
3.41618e-08
-1.02028e-07
-7.64097e-08
2.96022e-08
-8.08744e-08
-7.80522e-08
2.58179e-08
-5.83448e-08
-7.64156e-08
2.27449e-08
-3.68981e-08
-7.05893e-08
2.00616e-08
-1.87995e-08
-5.95294e-08
1.71174e-08
-5.8806e-09
-4.2037e-08
1.28514e-08
-1.71329e-08
5.88932e-09
-6.47291e-08
-1.85341e-07
-6.47205e-08
-7.86221e-08
-2.25527e-07
-7.12749e-08
-4.70805e-08
-2.19309e-07
-4.8621e-08
3.37592e-09
-1.96672e-07
-1.65281e-08
5.04149e-08
-1.8236e-07
5.59719e-09
9.03475e-08
-1.69541e-07
2.19087e-08
1.20902e-07
-1.58282e-07
3.41384e-08
1.41087e-07
-1.46878e-07
4.42862e-08
1.50175e-07
-1.35042e-07
5.3374e-08
1.47838e-07
-1.22914e-07
6.18327e-08
1.34321e-07
-1.11035e-07
6.965e-08
1.1056e-07
-1.00143e-07
7.65877e-08
7.82466e-08
-9.10364e-08
8.22757e-08
3.97428e-08
-8.44424e-08
8.63543e-08
-2.07305e-09
-8.09007e-08
8.85248e-08
-4.40523e-08
-8.06948e-08
8.86336e-08
-8.30682e-08
-8.37933e-08
8.66974e-08
-1.16307e-07
-8.98498e-08
8.29074e-08
-1.41525e-07
-9.82308e-08
7.76069e-08
-1.57244e-07
-1.08073e-07
7.12445e-08
-1.6285e-07
-1.1837e-07
6.43189e-08
-1.58616e-07
-1.2803e-07
5.73188e-08
-1.45631e-07
-1.35945e-07
5.06582e-08
-1.25686e-07
-1.40978e-07
4.46225e-08
-1.01091e-07
-1.41979e-07
3.93318e-08
-7.44715e-08
-1.37717e-07
3.46819e-08
-4.85235e-08
-1.26821e-07
3.02837e-08
-2.57685e-08
-1.07663e-07
2.53787e-08
-8.53589e-09
-7.80086e-08
1.8739e-08
-3.42141e-08
8.54533e-09
-2.92834e-08
-1.26784e-07
-2.92736e-08
-2.48983e-08
-2.04522e-07
-2.53907e-08
2.69902e-09
-2.36952e-07
-9.95424e-09
4.23573e-08
-2.45374e-07
9.04373e-09
8.26129e-08
-2.47142e-07
2.45267e-08
1.18869e-07
-2.43295e-07
3.74981e-08
1.47679e-07
-2.35761e-07
4.86693e-08
1.66815e-07
-2.24965e-07
5.89511e-08
1.74705e-07
-2.11732e-07
6.88006e-08
1.70496e-07
-1.97023e-07
7.83176e-08
1.54149e-07
-1.8198e-07
8.72917e-08
1.2654e-07
-1.67864e-07
9.53288e-08
8.94468e-08
-1.55905e-07
1.01962e-07
4.54622e-08
-1.47183e-07
1.06725e-07
-2.20392e-09
-1.42493e-07
1.09258e-07
-5.00224e-08
-1.42247e-07
1.0937e-07
-9.44749e-08
-1.46413e-07
1.07072e-07
-1.32401e-07
-1.54514e-07
1.0259e-07
-1.61284e-07
-1.6567e-07
9.63226e-08
-1.79476e-07
-1.78676e-07
8.87949e-08
-1.86299e-07
-1.92132e-07
8.05853e-08
-1.82053e-07
-2.04521e-07
7.22448e-08
-1.67938e-07
-2.14286e-07
6.42254e-08
-1.45893e-07
-2.19872e-07
5.68494e-08
-1.18404e-07
-2.197e-07
5.0233e-08
-8.82784e-08
-2.12089e-07
4.42466e-08
-5.84063e-08
-1.95144e-07
3.84507e-08
-3.15929e-08
-1.66467e-07
3.19902e-08
-1.06884e-08
-1.22391e-07
2.34779e-08
-5.56012e-08
1.06987e-08
-5.3511e-09
-1.16092e-07
-5.34007e-09
8.336e-09
-2.20854e-07
2.64537e-09
3.56325e-08
-2.78512e-07
1.42641e-08
7.15612e-08
-3.08515e-07
2.72123e-08
1.09097e-07
-3.2375e-07
3.90715e-08
1.43724e-07
-3.28074e-07
5.01525e-08
1.71673e-07
-3.2452e-07
6.08092e-08
1.9012e-07
-3.1484e-07
7.14275e-08
1.97003e-07
-3.00743e-07
8.21288e-08
1.91112e-07
-2.83908e-07
9.27759e-08
1.72213e-07
-2.66067e-07
1.02986e-07
1.41123e-07
-2.48992e-07
1.12218e-07
9.96965e-08
-2.34361e-07
1.19882e-07
5.07459e-08
-2.23628e-07
1.25396e-07
-2.22003e-09
-2.1785e-07
1.28323e-07
-5.53165e-08
-2.1758e-07
1.2843e-07
-1.04668e-07
-2.22789e-07
1.25728e-07
-1.46787e-07
-2.32866e-07
1.20472e-07
-1.78917e-07
-2.46675e-07
1.13135e-07
-1.99263e-07
-2.62665e-07
1.04335e-07
-2.07101e-07
-2.79039e-07
9.47448e-08
-2.02768e-07
-2.93836e-07
8.49816e-08
-1.87567e-07
-3.05076e-07
7.55897e-08
-1.63576e-07
-3.10767e-07
6.69042e-08
-1.33441e-07
-3.08891e-07
5.90553e-08
-1.00136e-07
-2.9729e-07
5.18959e-08
-6.67629e-08
-2.73461e-07
4.49441e-08
-3.64087e-08
-2.34075e-07
3.7254e-08
-1.2416e-08
-1.73652e-07
2.72681e-08
-8.04445e-08
1.24274e-08
5.34421e-09
-1.26793e-07
5.35651e-09
2.54741e-08
-2.584e-07
1.74163e-08
5.57278e-08
-3.37378e-07
2.86118e-08
9.22275e-08
-3.84483e-07
3.94687e-08
1.29919e-07
-4.11291e-07
4.98508e-08
1.64672e-07
-4.23066e-07
6.02383e-08
1.92741e-07
-4.23562e-07
7.09732e-08
2.11064e-07
-4.15413e-07
8.22513e-08
2.1732e-07
-4.01017e-07
9.40168e-08
2.10066e-07
-3.82626e-07
1.05972e-07
1.88924e-07
-3.62515e-07
1.1759e-07
1.5468e-07
-3.42932e-07
1.28185e-07
1.09281e-07
-3.25978e-07
1.37016e-07
5.57314e-08
-3.13469e-07
1.43391e-07
-2.15524e-09
-3.06735e-07
1.46771e-07
-6.01481e-08
-3.06456e-07
1.46868e-07
-1.14021e-07
-3.1261e-07
1.43694e-07
-1.59975e-07
-3.24461e-07
1.37549e-07
-1.95024e-07
-3.40623e-07
1.28996e-07
-2.17239e-07
-3.59206e-07
1.18756e-07
-2.25871e-07
-3.78021e-07
1.07614e-07
-2.21312e-07
-3.94705e-07
9.63106e-08
-2.04984e-07
-4.06852e-07
8.54486e-08
-1.79106e-07
-4.12061e-07
7.54155e-08
-1.46487e-07
-4.07871e-07
6.63615e-08
-1.1028e-07
-3.91619e-07
5.81217e-08
-7.37916e-08
-3.60119e-07
5.01698e-08
-4.03849e-08
-3.08959e-07
4.1477e-08
-1.38125e-08
-2.30545e-07
3.03213e-08
-1.08082e-07
1.38251e-08
1.07515e-08
-1.48309e-07
1.07648e-08
3.551e-08
-3.08987e-07
2.58286e-08
6.89274e-08
-4.08314e-07
3.75187e-08
1.07266e-07
-4.70688e-07
4.78668e-08
1.46271e-07
-5.08167e-07
5.78705e-08
1.82023e-07
-5.27106e-07
6.8288e-08
2.10808e-07
-5.31887e-07
7.95403e-08
2.29455e-07
-5.2583e-07
9.17695e-08
2.35442e-07
-5.11825e-07
1.04822e-07
2.27175e-07
-4.92632e-07
1.18274e-07
2.04147e-07
-4.70964e-07
1.31477e-07
1.6712e-07
-4.49514e-07
1.43609e-07
1.18124e-07
-4.30756e-07
1.53775e-07
6.03716e-08
-4.16841e-07
1.61124e-07
-2.03883e-09
-4.09334e-07
1.6501e-07
-6.4533e-08
-4.0906e-07
1.65099e-07
-1.22539e-07
-4.15998e-07
1.61394e-07
-1.71953e-07
-4.2929e-07
1.54244e-07
-2.09572e-07
-4.47311e-07
1.44307e-07
-2.33355e-07
-4.67881e-07
1.32457e-07
-2.4255e-07
-4.88439e-07
1.19614e-07
-2.37633e-07
-5.06252e-07
1.0663e-07
-2.20141e-07
-5.18532e-07
9.41878e-08
-1.92457e-07
-5.22491e-07
8.27452e-08
-1.5756e-07
-5.15246e-07
7.24789e-08
-1.18773e-07
-4.93619e-07
6.32143e-08
-7.9592e-08
-4.53676e-07
5.43753e-08
-4.36203e-08
-3.89777e-07
4.4847e-08
-1.49371e-08
-2.91986e-07
3.27577e-08
-1.3797e-07
1.49509e-08
1.36333e-08
-1.7559e-07
1.36473e-08
4.15192e-08
-3.67638e-07
3.07647e-08
7.76121e-08
-4.87542e-07
4.31356e-08
1.17965e-07
-5.64645e-07
5.36045e-08
1.58607e-07
-6.12578e-07
6.37687e-08
1.95674e-07
-6.38796e-07
7.46231e-08
2.25465e-07
-6.48346e-07
8.66681e-08
2.44706e-07
-6.45105e-07
1.00033e-07
2.50744e-07
-6.32397e-07
1.14534e-07
2.41814e-07
-6.1335e-07
1.29648e-07
2.17333e-07
-5.91075e-07
1.44592e-07
1.77997e-07
-5.68579e-07
1.58401e-07
1.25914e-07
-5.48674e-07
1.7e-07
6.44887e-08
-5.33809e-07
1.78393e-07
-1.89621e-09
-5.25783e-07
1.82834e-07
-6.83431e-08
-5.25524e-07
1.8291e-07
-1.29949e-07
-5.33017e-07
1.78625e-07
-1.82334e-07
-5.47294e-07
1.70388e-07
-2.22087e-07
-5.6654e-07
1.58982e-07
-2.47086e-07
-5.88283e-07
1.45402e-07
-2.56598e-07
-6.09639e-07
1.30711e-07
-2.51196e-07
-6.27585e-07
1.15932e-07
-2.32558e-07
-6.39015e-07
1.01844e-07
-2.03244e-07
-6.40778e-07
8.89731e-08
-1.66383e-07
-6.29607e-07
7.74993e-08
-1.25452e-07
-6.01797e-07
6.72471e-08
-8.41016e-08
-5.52655e-07
5.76279e-08
-4.61136e-08
-4.75187e-07
4.74221e-08
-1.57994e-08
-3.56911e-07
3.46104e-08
-1.69584e-07
1.58142e-08
1.5201e-08
-2.06006e-07
1.52154e-08
4.50593e-08
-4.31099e-07
3.36031e-08
8.30399e-08
-5.72027e-07
4.65041e-08
1.24992e-07
-6.63858e-07
5.7261e-08
1.66998e-07
-7.22386e-07
6.78022e-08
2.05237e-07
-7.56299e-07
7.9264e-08
2.36018e-07
-7.71356e-07
9.22292e-08
2.5594e-07
-7.71868e-07
1.06842e-07
2.62257e-07
-7.61567e-07
1.22853e-07
2.53063e-07
-7.43854e-07
1.39698e-07
2.27615e-07
-7.22088e-07
1.5646e-07
1.86585e-07
-6.99555e-07
1.72006e-07
1.3213e-07
-6.79329e-07
1.8511e-07
6.78089e-08
-6.64105e-07
1.94617e-07
-1.74716e-09
-6.5585e-07
1.99623e-07
-7.1347e-08
-6.55611e-07
1.99687e-07
-1.35797e-07
-6.6338e-07
1.94814e-07
-1.90458e-07
-6.78081e-07
1.85448e-07
-2.31755e-07
-6.97726e-07
1.72483e-07
-2.57526e-07
-7.19614e-07
1.57102e-07
-2.67073e-07
-7.4064e-07
1.40548e-07
-2.61096e-07
-7.57504e-07
1.23942e-07
-2.41437e-07
-7.66865e-07
1.08191e-07
-2.1079e-07
-7.6531e-07
9.38858e-08
-1.7243e-07
-7.49217e-07
8.12508e-08
-1.29946e-07
-7.14398e-07
7.01165e-08
-8.71057e-08
-6.55312e-07
5.98172e-08
-4.77692e-08
-5.63611e-07
4.90868e-08
-1.63759e-08
-4.24121e-07
3.58165e-08
-2.02351e-07
1.63913e-08
1.59406e-08
-2.37901e-07
1.59542e-08
4.67441e-08
-4.96833e-07
3.49308e-08
8.56275e-08
-6.59021e-07
4.81106e-08
1.28357e-07
-7.65678e-07
5.90897e-08
1.71083e-07
-8.35092e-07
6.99799e-08
2.10025e-07
-8.7729e-07
8.20494e-08
2.41473e-07
-8.98731e-07
9.59274e-08
2.6201e-07
-9.04159e-07
1.11754e-07
2.6876e-07
-8.97575e-07
1.29258e-07
2.59675e-07
-8.82567e-07
1.47798e-07
2.33889e-07
-8.6264e-07
1.66339e-07
1.91992e-07
-8.41272e-07
1.83614e-07
1.36136e-07
-8.21686e-07
1.98214e-07
6.9995e-08
-8.0678e-07
2.08816e-07
-1.60749e-09
-7.98635e-07
2.14388e-07
-7.32371e-08
-7.9842e-07
2.14439e-07
-1.39462e-07
-8.06115e-07
2.0896e-07
-1.95434e-07
-8.2058e-07
1.98471e-07
-2.37492e-07
-8.39668e-07
1.84e-07
-2.63467e-07
-8.605e-07
1.6686e-07
-2.72714e-07
-8.79842e-07
1.48449e-07
-2.66106e-07
-8.94183e-07
1.30071e-07
-2.4564e-07
-9.00081e-07
1.1275e-07
-2.14129e-07
-8.93936e-07
9.71148e-08
-1.74941e-07
-8.71836e-07
8.34307e-08
-1.31731e-07
-8.29136e-07
7.15277e-08
-8.82543e-08
-7.59523e-07
6.07347e-08
-4.83972e-08
-6.53182e-07
4.97143e-08
-1.66085e-08
-4.92163e-07
3.62535e-08
-2.35583e-07
1.66242e-08
1.60071e-08
-2.69928e-07
1.60201e-08
4.67101e-08
-5.62437e-07
3.49005e-08
8.53541e-08
-7.45648e-07
4.79828e-08
1.27761e-07
-8.67075e-07
5.89903e-08
1.70229e-07
-9.4768e-07
7.01207e-08
2.09057e-07
-9.98793e-07
8.2674e-08
2.4062e-07
-1.02759e-06
9.73001e-08
2.6152e-07
-1.03924e-06
1.14182e-07
2.68768e-07
-1.03784e-06
1.33014e-07
2.6023e-07
-1.02713e-06
1.53096e-07
2.34893e-07
-1.01061e-06
1.73309e-07
1.93171e-07
-9.91787e-07
1.92238e-07
1.37208e-07
-9.74012e-07
2.08289e-07
7.0666e-08
-9.60206e-07
2.19968e-07
-1.48517e-09
-9.52596e-07
2.26112e-07
-7.36509e-08
-9.52408e-07
2.26154e-07
-1.40227e-07
-9.59638e-07
2.20098e-07
-1.96271e-07
-9.73042e-07
2.08506e-07
-2.38059e-07
-9.90407e-07
1.92527e-07
-2.63468e-07
-1.00878e-06
1.73689e-07
-2.72065e-07
-1.02481e-06
1.53566e-07
-2.64816e-07
-1.03504e-06
1.33606e-07
-2.43865e-07
-1.03594e-06
1.14904e-07
-2.12138e-07
-1.02381e-06
9.81464e-08
-1.73018e-07
-9.94589e-07
8.36338e-08
-1.30103e-07
-9.43219e-07
7.11685e-08
-8.71017e-08
-8.62596e-07
6.00707e-08
-4.77725e-08
-7.41514e-07
4.90033e-08
-1.64049e-08
-5.59249e-07
3.57186e-08
-2.68408e-07
1.64202e-08
1.54308e-08
-3.00803e-07
1.54445e-08
4.49061e-08
-6.25442e-07
3.35294e-08
8.19498e-08
-8.2877e-07
4.60784e-08
1.22671e-07
-9.64588e-07
5.67917e-08
1.63562e-07
-1.05645e-06
6.78741e-08
2.01187e-07
-1.11705e-06
8.06362e-08
2.3208e-07
-1.1542e-06
9.5717e-08
2.52905e-07
-1.1734e-06
1.13336e-07
2.60693e-07
-1.17882e-06
1.33192e-07
2.5318e-07
-1.17416e-06
1.54545e-07
2.29185e-07
-1.16283e-06
1.76217e-07
1.88975e-07
-1.1482e-06
1.96619e-07
1.34515e-07
-1.13356e-06
2.14004e-07
6.93979e-08
-1.12179e-06
2.26704e-07
-1.38761e-09
-1.11521e-06
2.33403e-07
-7.21776e-08
-1.11505e-06
2.33431e-07
-1.37311e-07
-1.12129e-06
2.26788e-07
-1.91783e-07
-1.13271e-06
2.14144e-07
-2.31981e-07
-1.14702e-06
1.96807e-07
-2.55969e-07
-1.16127e-06
1.76474e-07
-2.63458e-07
-1.17222e-06
1.54901e-07
-2.55603e-07
-1.17653e-06
1.33637e-07
-2.34651e-07
-1.17074e-06
1.13848e-07
-2.03559e-07
-1.15121e-06
9.63108e-08
-1.6562e-07
-1.11381e-06
8.12838e-08
-1.24331e-07
-1.05308e-06
6.85739e-08
-8.31525e-08
-9.61283e-07
5.75087e-08
-4.55863e-08
-8.25822e-07
4.67416e-08
-1.56798e-08
-6.23206e-07
3.40506e-08
-2.99783e-07
1.56947e-08
1.41681e-08
-3.29145e-07
1.41732e-08
4.11352e-08
-6.83077e-07
3.06686e-08
7.50518e-08
-9.04838e-07
4.21517e-08
1.12434e-07
-1.05415e-06
5.21828e-08
1.50213e-07
-1.15706e-06
6.284e-08
1.85274e-07
-1.2275e-06
7.53861e-08
2.14445e-07
-1.27388e-06
9.05094e-08
2.34582e-07
-1.30193e-06
1.08395e-07
2.42815e-07
-1.31584e-06
1.28792e-07
2.36822e-07
-1.31911e-06
1.50943e-07
2.1526e-07
-1.3149e-06
1.73624e-07
1.78155e-07
-1.30631e-06
1.95223e-07
1.27174e-07
-1.2964e-06
2.13826e-07
6.57397e-08
-1.28788e-06
2.27518e-07
-1.31406e-09
-1.28293e-06
2.34775e-07
-6.83619e-08
-1.28279e-06
2.34791e-07
-1.29771e-07
-1.28745e-06
2.27567e-07
-1.8072e-07
-1.29568e-06
2.1391e-07
-2.17788e-07
-1.30531e-06
1.95364e-07
-2.39291e-07
-1.31358e-06
1.73816e-07
-2.45184e-07
-1.31748e-06
1.51153e-07
-2.36825e-07
-1.31396e-06
1.29069e-07
-2.16509e-07
-1.2998e-06
1.08745e-07
-1.87113e-07
-1.27152e-06
9.09136e-08
-1.51777e-07
-1.225e-06
7.58485e-08
-1.13669e-07
-1.15452e-06
6.33334e-08
-7.58962e-08
-1.05172e-06
5.26602e-08
-4.16028e-08
-9.02705e-07
4.25895e-08
-1.4322e-08
-6.81495e-07
3.10081e-08
-3.28441e-07
1.43357e-08
1.21549e-08
-3.5346e-07
1.21606e-08
3.52132e-08
-7.32334e-07
2.61985e-08
6.42999e-08
-9.6998e-07
3.60557e-08
9.65167e-08
-1.13128e-06
4.49077e-08
1.2935e-07
-1.24454e-06
5.46447e-08
1.60203e-07
-1.32479e-06
6.64341e-08
1.86348e-07
-1.38095e-06
8.09204e-08
2.04983e-07
-1.41888e-06
9.83106e-08
2.13454e-07
-1.44273e-06
1.1842e-07
2.09445e-07
-1.4557e-06
1.40599e-07
1.9146e-07
-1.46056e-06
1.63648e-07
1.59272e-07
-1.46e-06
1.85877e-07
1.14159e-07
-1.45653e-06
2.05237e-07
5.91407e-08
-1.45255e-06
2.19688e-07
-1.26428e-09
-1.44995e-06
2.2742e-07
-6.16546e-08
-1.44982e-06
2.27423e-07
-1.16638e-07
-1.45217e-06
2.19705e-07
-1.61685e-07
-1.4559e-06
2.05269e-07
-1.93792e-07
-1.45912e-06
1.85916e-07
-2.11645e-07
-1.45945e-06
1.63723e-07
-2.15498e-07
-1.45437e-06
1.40745e-07
-2.06876e-07
-1.44119e-06
1.18615e-07
-1.88055e-07
-1.41715e-06
9.85294e-08
-1.6166e-07
-1.3791e-06
8.11808e-08
-1.3055e-07
-1.32283e-06
6.67272e-08
-9.74137e-08
-1.24262e-06
5.49576e-08
-6.49096e-08
-1.12944e-06
4.52188e-08
-3.55498e-08
-9.68407e-07
3.63416e-08
-1.22575e-08
-7.3121e-07
2.64224e-08
-3.52968e-07
1.22702e-08
9.35472e-09
-3.72172e-07
9.35744e-09
2.70696e-08
-7.70088e-07
2.00396e-08
4.94564e-08
-1.02e-06
2.76331e-08
7.45087e-08
-1.19108e-06
3.4748e-08
1.00398e-07
-1.31339e-06
4.29544e-08
1.25196e-07
-1.40283e-06
5.32491e-08
1.46783e-07
-1.46875e-06
6.6217e-08
1.62871e-07
-1.5171e-06
8.21292e-08
1.71131e-07
-1.55185e-06
1.00853e-07
1.6944e-07
-1.57583e-06
1.21824e-07
1.56257e-07
-1.59134e-06
1.43962e-07
1.30974e-07
-1.60045e-06
1.65728e-07
9.4421e-08
-1.60502e-06
1.85046e-07
4.90402e-08
-1.60684e-06
1.99678e-07
-1.23156e-09
-1.60728e-06
2.07605e-07
-5.14805e-08
-1.60718e-06
2.07601e-07
-9.67997e-08
-1.60652e-06
1.99672e-07
-1.3325e-07
-1.60449e-06
1.85041e-07
-1.58424e-07
-1.5997e-06
1.65751e-07
-1.71463e-07
-1.59042e-06
1.44009e-07
-1.73007e-07
-1.57471e-06
1.21877e-07
-1.64555e-07
-1.55058e-06
1.00939e-07
-1.48233e-07
-1.51572e-06
8.22469e-08
-1.26434e-07
-1.46726e-06
6.63662e-08
-1.01375e-07
-1.40132e-06
5.34241e-08
-7.52352e-08
-1.3119e-06
4.31471e-08
-4.99112e-08
-1.18971e-06
3.49444e-08
-2.72879e-08
-1.01885e-06
2.7817e-08
-9.4223e-09
-7.69263e-07
2.01881e-08
-3.71824e-07
9.43376e-09
5.76955e-09
-3.83716e-07
5.77376e-09
1.66476e-08
-7.93173e-07
1.22068e-08
3.05635e-08
-1.05083e-06
1.69162e-08
4.64333e-08
-1.22865e-06
2.17016e-08
6.33417e-08
-1.35798e-06
2.76872e-08
8.01211e-08
-1.45525e-06
3.56375e-08
9.54418e-08
-1.53007e-06
4.5994e-08
1.07698e-07
-1.58838e-06
5.90278e-08
1.15104e-07
-1.63398e-06
7.47217e-08
1.15862e-07
-1.6693e-06
9.27113e-08
1.08472e-07
-1.69609e-06
1.12143e-07
9.21031e-08
-1.71568e-06
1.31603e-07
6.70267e-08
-1.72914e-06
1.49198e-07
3.49019e-08
-1.73748e-06
1.62762e-07
-1.21231e-09
-1.74135e-06
1.70187e-07
-3.73024e-08
-1.74128e-06
1.70196e-07
-6.93679e-08
-1.73721e-06
1.62753e-07
-9.43182e-08
-1.72869e-06
1.49157e-07
-1.10539e-07
-1.71504e-06
1.3156e-07
-1.17757e-07
-1.69531e-06
1.12111e-07
-1.16805e-07
-1.66836e-06
9.26961e-08
-1.0919e-07
-1.63293e-06
7.47296e-08
-9.67105e-08
-1.58726e-06
5.9063e-08
-8.11575e-08
-1.52887e-06
4.60559e-08
-6.41307e-08
-1.45407e-06
3.57226e-08
-4.6999e-08
-1.35682e-06
2.77898e-08
-3.09116e-08
-1.22761e-06
2.18136e-08
-1.68147e-08
-1.04997e-06
1.70265e-08
-5.81803e-09
-7.92562e-07
1.23023e-08
-3.83471e-07
5.82851e-09
1.47763e-09
-3.86665e-07
1.47196e-09
4.21402e-09
-7.98777e-07
2.86736e-09
7.99928e-09
-1.05871e-06
4.0902e-09
1.28811e-08
-1.23951e-06
5.98434e-09
1.88489e-08
-1.373e-06
9.05074e-09
2.57426e-08
-1.47585e-06
1.37041e-08
3.30907e-08
-1.55771e-06
2.02912e-08
4.01655e-08
-1.62443e-06
2.89709e-08
4.58969e-08
-1.67953e-06
3.98218e-08
4.89883e-08
-1.72505e-06
5.26568e-08
4.82159e-08
-1.76221e-06
6.6896e-08
4.25628e-08
-1.79161e-06
8.15827e-08
3.18101e-08
-1.81357e-06
9.51805e-08
1.66135e-08
-1.82818e-06
1.05898e-07
-1.20119e-09
-1.83545e-06
1.11905e-07
-1.89867e-08
-1.83538e-06
1.11887e-07
-3.41052e-08
-1.82794e-06
1.0585e-07
-4.4727e-08
-1.81318e-06
9.51094e-08
-5.02032e-08
-1.79109e-06
8.15242e-08
-5.07974e-08
-1.76155e-06
6.68352e-08
-4.74804e-08
-1.72426e-06
5.25867e-08
-4.15263e-08
-1.67865e-06
3.97695e-08
-3.42328e-08
-1.62349e-06
2.89423e-08
-2.66406e-08
-1.55675e-06
2.0286e-08
-1.95413e-08
-1.47489e-06
1.37203e-08
-1.33479e-08
-1.37211e-06
9.087e-09
-8.27561e-09
-1.23872e-06
6.03549e-09
-4.35285e-09
-1.05804e-06
4.15154e-09
-1.50248e-09
-7.98341e-07
2.92803e-09
-3.86486e-07
1.51236e-09
-3.36935e-09
-3.79922e-07
-3.37346e-09
-9.76269e-09
-7.84771e-07
-7.61213e-09
-1.73802e-08
-1.04079e-06
-1.03036e-08
-2.49365e-08
-1.22016e-06
-1.17963e-08
-3.14193e-08
-1.35427e-06
-1.22512e-08
-3.59774e-08
-1.4596e-06
-1.16949e-08
-3.80604e-08
-1.54559e-06
-1.003e-08
-3.74153e-08
-1.61794e-06
-7.13088e-09
-3.42345e-08
-1.67978e-06
-2.92935e-09
-2.90198e-08
-1.73288e-06
2.61436e-09
-2.26626e-08
-1.7779e-06
9.32342e-09
-1.61266e-08
-1.81486e-06
1.67094e-08
-1.02241e-08
-1.84336e-06
2.38854e-08
-5.34131e-09
-1.86284e-06
2.97778e-08
-1.19272e-09
-1.87273e-06
3.31404e-08
2.99127e-09
-1.87266e-06
3.30924e-08
7.97975e-09
-1.86262e-06
2.96905e-08
1.40074e-08
-1.843e-06
2.37891e-08
2.07098e-08
-1.81436e-06
1.65714e-08
2.7275e-08
-1.7773e-06
9.18037e-09
3.27127e-08
-1.7322e-06
2.49909e-09
3.61384e-08
-1.67905e-06
-3.02939e-09
3.70064e-08
-1.61715e-06
-7.21249e-09
3.51666e-08
-1.54482e-06
-1.00885e-08
3.08289e-08
-1.45882e-06
-1.17301e-08
2.45367e-08
-1.35355e-06
-1.22666e-08
1.71524e-08
-1.21954e-06
-1.17908e-08
9.68142e-09
-1.04029e-06
-1.02799e-08
3.35184e-09
-7.84434e-07
-7.57669e-09
-3.79792e-07
-3.34215e-09
-8.53121e-09
-3.62856e-07
-8.53477e-09
-2.46097e-08
-7.49936e-07
-1.8757e-08
-4.42851e-08
-9.95494e-07
-2.56166e-08
-6.50835e-08
-1.16861e-06
-3.07546e-08
-8.48953e-08
-1.29937e-06
-3.50873e-08
-1.0186e-07
-1.40348e-06
-3.91525e-08
-1.14295e-07
-1.49e-06
-4.31571e-08
-1.20934e-07
-1.56421e-06
-4.70912e-08
-1.20895e-07
-1.62903e-06
-5.07853e-08
-1.13878e-07
-1.68588e-06
-5.40133e-08
-1.00187e-07
-1.73501e-06
-5.65747e-08
-8.06767e-08
-1.77604e-06
-5.83227e-08
-5.66443e-08
-1.80813e-06
-5.92591e-08
-2.96291e-08
-1.83031e-06
-5.95463e-08
-1.17814e-09
-1.84166e-06
-5.95288e-08
2.73028e-08
-1.84159e-06
-5.9556e-08
5.43982e-08
-1.8301e-06
-5.9619e-08
7.85934e-08
-1.80782e-06
-5.937e-08
9.82859e-08
-1.77559e-06
-5.84576e-08
1.1219e-07
-1.73448e-06
-5.67185e-08
1.19437e-07
-1.68529e-06
-5.41567e-08
1.19703e-07
-1.6284e-06
-5.09182e-08
1.13313e-07
-1.56355e-06
-4.72075e-08
1.01096e-07
-1.48935e-06
-4.3253e-08
8.43485e-08
-1.40285e-06
-3.92252e-08
6.4738e-08
-1.2988e-06
-3.51369e-08
4.41004e-08
-1.16812e-06
-3.07804e-08
2.45276e-08
-9.95101e-07
-2.56196e-08
8.52029e-09
-7.49688e-07
-1.87394e-08
-3.62761e-07
-8.51038e-09
-1.36715e-08
-3.35509e-07
-1.36762e-08
-3.93759e-08
-6.94416e-07
-2.98152e-08
-7.10801e-08
-9.22997e-07
-4.07926e-08
-1.05084e-07
-1.08499e-06
-4.96124e-08
-1.3829e-07
-1.20819e-06
-5.79689e-08
-1.67791e-07
-1.30714e-06
-6.68338e-08
-1.90838e-07
-1.39024e-06
-7.67192e-08
-2.05035e-07
-1.46226e-06
-8.77587e-08
-2.08437e-07
-1.52587e-06
-9.97608e-08
-1.99847e-07
-1.58213e-06
-1.12337e-07
-1.78924e-07
-1.63114e-06
-1.24794e-07
-1.46391e-07
-1.6723e-06
-1.36274e-07
-1.03985e-07
-1.70462e-06
-1.45919e-07
-5.44437e-08
-1.727e-06
-1.52855e-07
-1.15673e-09
-1.73845e-06
-1.56493e-07
5.21657e-08
-1.73839e-06
-1.56519e-07
1.01807e-07
-1.72683e-06
-1.52908e-07
1.4434e-07
-1.70435e-06
-1.46011e-07
1.77063e-07
-1.6719e-06
-1.36414e-07
1.98202e-07
-1.63067e-06
-1.24949e-07
2.07023e-07
-1.58161e-06
-1.12496e-07
2.03847e-07
-1.52531e-06
-9.99129e-08
1.89899e-07
-1.46171e-06
-8.78964e-08
1.67069e-07
-1.38968e-06
-7.68396e-08
1.37788e-07
-1.30663e-06
-6.69313e-08
1.04761e-07
-1.20773e-06
-5.80419e-08
7.0909e-08
-1.08461e-06
-4.96602e-08
3.93197e-08
-9.22699e-07
-4.08127e-08
1.36658e-08
-6.94226e-07
-2.98083e-08
-3.3544e-07
-1.36552e-08
-1.84387e-08
-2.98628e-07
-1.84422e-08
-5.30419e-08
-6.1978e-07
-4.00328e-08
-9.58507e-08
-8.25358e-07
-5.48303e-08
-1.42142e-07
-9.71653e-07
-6.70481e-08
-1.8788e-07
-1.08334e-06
-7.91122e-08
-2.29165e-07
-1.17337e-06
-9.24846e-08
-2.62266e-07
-1.24921e-06
-1.07925e-07
-2.83677e-07
-1.31518e-06
-1.25664e-07
-2.90462e-07
-1.37354e-06
-1.4554e-07
-2.80504e-07
-1.42521e-06
-1.66878e-07
-2.52881e-07
-1.4702e-06
-1.8856e-07
-2.08155e-07
-1.50788e-06
-2.09153e-07
-1.48498e-07
-1.53739e-06
-2.26881e-07
-7.77651e-08
-1.55776e-06
-2.39966e-07
-1.12544e-09
-1.56816e-06
-2.46927e-07
7.55416e-08
-1.56811e-06
-2.4695e-07
1.46364e-07
-1.5576e-06
-2.40057e-07
2.06149e-07
-1.53712e-06
-2.27007e-07
2.5108e-07
-1.50755e-06
-2.09288e-07
2.78901e-07
-1.46978e-06
-1.88712e-07
2.89078e-07
-1.42475e-06
-1.67036e-07
2.82538e-07
-1.37307e-06
-1.45697e-07
2.61342e-07
-1.3147e-06
-1.25812e-07
2.28475e-07
-1.24876e-06
-1.08056e-07
1.87387e-07
-1.17295e-06
-9.25966e-08
1.41832e-07
-1.08297e-06
-7.9202e-08
9.56944e-08
-9.71374e-07
-6.70992e-08
5.29804e-08
-8.25135e-07
-5.48505e-08
1.84352e-08
-6.19646e-07
-4.00347e-08
-2.9858e-07
-1.84245e-08
-2.24348e-08
-2.53755e-07
-2.24381e-08
-6.44748e-08
-5.29181e-07
-4.8559e-08
-1.16651e-07
-7.06708e-07
-6.64741e-08
-1.73383e-07
-8.33423e-07
-8.14979e-08
-2.29895e-07
-9.30155e-07
-9.66754e-08
-2.81436e-07
-1.008e-06
-1.13833e-07
-3.23302e-07
-1.07339e-06
-1.33956e-07
-3.51055e-07
-1.13004e-06
-1.57388e-07
-3.60838e-07
-1.17992e-06
-1.83844e-07
-3.49756e-07
-1.22384e-06
-2.12457e-07
-3.16394e-07
-1.26177e-06
-2.4179e-07
-2.61128e-07
-1.29333e-06
-2.69812e-07
-1.86641e-07
-1.31782e-06
-2.94062e-07
-9.774e-08
-1.33459e-06
-3.12074e-07
-1.08053e-09
-1.34309e-06
-3.2173e-07
9.56063e-08
-1.34304e-06
-3.21749e-07
1.84587e-07
-1.33444e-06
-3.12134e-07
2.59216e-07
-1.3176e-06
-2.94157e-07
3.14621e-07
-1.29302e-06
-2.69935e-07
3.48205e-07
-1.26143e-06
-2.41934e-07
3.59506e-07
-1.22345e-06
-2.12607e-07
3.49959e-07
-1.17952e-06
-1.83999e-07
3.2243e-07
-1.12964e-06
-1.57537e-07
2.80773e-07
-1.07301e-06
-1.34091e-07
2.2944e-07
-1.00766e-06
-1.13952e-07
1.73109e-07
-9.29868e-07
-9.67726e-08
1.16505e-07
-8.33188e-07
-8.15814e-08
6.44265e-08
-7.06534e-07
-6.65219e-08
2.24333e-08
-5.29086e-07
-4.85661e-08
-2.53725e-07
-2.24223e-08
-2.52519e-08
-2.03251e-07
-2.52518e-08
-7.25887e-08
-4.27303e-07
-5.45415e-08
-1.31593e-07
-5.73093e-07
-7.46115e-08
-1.96152e-07
-6.77308e-07
-9.15553e-08
-2.60903e-07
-7.56501e-07
-1.08903e-07
-3.20412e-07
-8.19718e-07
-1.28772e-07
-3.69204e-07
-8.72312e-07
-1.52284e-07
-4.02041e-07
-9.17384e-07
-1.79819e-07
-4.14287e-07
-9.56642e-07
-2.11029e-07
-4.02441e-07
-9.90792e-07
-2.44892e-07
-3.64691e-07
-1.0199e-06
-2.79622e-07
-3.0143e-07
-1.04377e-06
-3.12821e-07
-2.15627e-07
-1.06204e-06
-3.41582e-07
-1.12884e-07
-1.0744e-06
-3.62937e-07
-1.02382e-09
-1.08062e-06
-3.74337e-07
1.1086e-07
-1.08057e-06
-3.74352e-07
2.13677e-07
-1.07427e-06
-3.62986e-07
2.99593e-07
-1.06185e-06
-3.41664e-07
3.63021e-07
-1.04352e-06
-3.12925e-07
4.0096e-07
-1.01962e-06
-2.79751e-07
4.13014e-07
-9.90472e-07
-2.45029e-07
4.00976e-07
-9.56314e-07
-2.11172e-07
3.68375e-07
-9.17077e-07
-1.79959e-07
3.19779e-07
-8.71998e-07
-1.52414e-07
2.60463e-07
-8.19457e-07
-1.2889e-07
1.95873e-07
-7.56276e-07
-1.09002e-07
1.31449e-07
-6.77135e-07
-9.16291e-08
7.25471e-08
-5.72978e-07
-7.46545e-08
2.52484e-08
-4.27236e-07
-5.45517e-08
-2.03238e-07
-2.52384e-08
-2.64845e-08
-1.50278e-07
-2.64886e-08
-7.63401e-08
-3.20348e-07
-5.70994e-08
-1.38915e-07
-4.32507e-07
-7.80109e-08
-2.08001e-07
-5.1252e-07
-9.57018e-08
-2.77867e-07
-5.7265e-07
-1.13984e-07
-3.4257e-07
-6.19848e-07
-1.35167e-07
-3.96056e-07
-6.58366e-07
-1.60461e-07
-4.32427e-07
-6.90784e-07
-1.90229e-07
-4.46561e-07
-7.18449e-07
-2.24059e-07
-4.34511e-07
-7.42047e-07
-2.60795e-07
-3.94224e-07
-7.61731e-07
-2.98458e-07
-3.26091e-07
-7.77511e-07
-3.34393e-07
-2.33358e-07
-7.89339e-07
-3.65432e-07
-1.22132e-07
-7.97183e-07
-3.8844e-07
-9.5226e-10
-8.0107e-07
-4.00726e-07
1.2025e-07
-8.01038e-07
-4.00738e-07
2.31543e-07
-7.97089e-07
-3.88479e-07
3.24392e-07
-7.89206e-07
-3.65491e-07
3.92667e-07
-7.77334e-07
-3.34458e-07
4.33113e-07
-7.61513e-07
-2.98552e-07
4.45357e-07
-7.418e-07
-2.60916e-07
4.3144e-07
-7.18208e-07
-2.2419e-07
3.95257e-07
-6.90533e-07
-1.9036e-07
3.41986e-07
-6.58143e-07
-1.60585e-07
2.77459e-07
-6.19649e-07
-1.35281e-07
2.07745e-07
-5.72482e-07
-1.1408e-07
1.3879e-07
-5.12404e-07
-9.57766e-08
7.62946e-08
-4.32426e-07
-7.80559e-08
2.64859e-08
-3.20315e-07
-5.71126e-08
-1.50274e-07
-2.64774e-08
-2.57441e-08
-9.8788e-08
-2.57457e-08
-7.47375e-08
-2.15975e-07
-5.5379e-08
-1.37117e-07
-2.94689e-07
-7.54383e-08
-2.06926e-07
-3.50336e-07
-9.23753e-08
-2.78322e-07
-3.91187e-07
-1.10068e-07
-3.45041e-07
-4.22247e-07
-1.30883e-07
-4.00624e-07
-4.46723e-07
-1.5606e-07
-4.38872e-07
-4.66592e-07
-1.85943e-07
-4.54302e-07
-4.82965e-07
-2.20055e-07
-4.42793e-07
-4.96407e-07
-2.57148e-07
-4.02191e-07
-5.07173e-07
-2.9516e-07
-3.32918e-07
-5.15425e-07
-3.31359e-07
-2.38316e-07
-5.21338e-07
-3.62603e-07
-1.247e-07
-5.25086e-07
-3.85713e-07
-8.65162e-10
-5.26885e-07
-3.9802e-07
1.22989e-07
-5.26862e-07
-3.9803e-07
2.36663e-07
-5.25019e-07
-3.85743e-07
3.3136e-07
-5.21232e-07
-3.62672e-07
4.00768e-07
-5.15288e-07
-3.31453e-07
4.41518e-07
-5.07007e-07
-2.95256e-07
4.53204e-07
-4.96232e-07
-2.57254e-07
4.37949e-07
-4.82782e-07
-2.2017e-07
3.99898e-07
-4.66421e-07
-1.86061e-07
3.44492e-07
-4.46563e-07
-1.56175e-07
2.77941e-07
-4.22109e-07
-1.30989e-07
2.06695e-07
-3.91077e-07
-1.10159e-07
1.37001e-07
-3.50261e-07
-9.24484e-08
7.47023e-08
-2.94644e-07
-7.54836e-08
2.57437e-08
-2.15961e-07
-5.53948e-08
-9.8793e-08
-2.57376e-08
-2.26522e-08
-5.34817e-08
-2.2654e-08
-6.70177e-08
-1.23064e-07
-4.8546e-08
-1.25053e-07
-1.70959e-07
-6.56943e-08
-1.91418e-07
-2.0396e-07
-8.00118e-08
-2.60346e-07