/*--------------------------------*- C++ -*----------------------------------*\
| =========                 |                                                 |
| \\      /  F ield         | OpenFOAM: The Open Source CFD Toolbox           |
|  \\    /   O peration     | Version:  v1906                                 |
|   \\  /    A nd           | Web:      www.OpenFOAM.com                      |
|    \\/     M anipulation  |                                                 |
\*---------------------------------------------------------------------------*/
FoamFile
{
    version     2.0;
    format      ascii;
    class       volScalarField;
    location    "0.31/oil";
    object      alphat;
}
// * * * * * * * * * * * * * * * * * * * * * * * * * * * * * * * * * * * * * //

dimensions      [1 -1 -1 0 0 0 0];


internalField   nonuniform List<scalar> 
168664
(
0.00390297
0.000410558
0.000415108
0.000125675
0.000100243
5.49018e-05
3.54981e-05
2.86056e-05
1.90802e-05
1.86758e-05
1.59301e-05
1.72156e-05
1.57416e-05
1.50739e-05
1.32748e-05
1.26559e-05
1.14074e-05
1.01867e-05
8.99622e-06
7.93932e-06
7.32547e-06
7.32043e-06
7.14095e-06
6.54173e-06
5.51157e-06
4.35022e-06
3.05558e-06
2.29508e-06
1.45259e-06
2.48399e-07
0.000409383
0.000470886
0.000112594
9.53385e-05
4.20949e-05
3.39887e-05
2.14555e-05
1.85047e-05
1.3508e-05
1.31927e-05
1.23025e-05
1.31961e-05
1.26237e-05
1.24077e-05
1.13313e-05
1.10248e-05
1.00934e-05
9.22452e-06
8.23001e-06
7.49256e-06
7.1076e-06
7.04463e-06
6.78446e-06
6.23821e-06
5.6173e-06
4.85913e-06
4.06681e-06
3.23716e-06
3.26541e-06
1.80109e-06
0.000412663
0.000112384
9.43362e-05
6.55758e-05
4.48337e-05
3.51252e-05
2.41247e-05
1.99423e-05
1.52438e-05
1.39674e-05
1.28804e-05
1.2985e-05
1.22533e-05
1.21111e-05
1.11675e-05
1.08024e-05
9.92237e-06
9.11644e-06
8.17261e-06
7.52037e-06
7.33752e-06
7.32034e-06
7.1873e-06
6.77291e-06
6.19921e-06
5.56972e-06
4.96293e-06
4.58183e-06
5.47014e-06
4.26299e-06
0.000128173
9.7145e-05
6.73733e-05
5.16745e-05
3.47572e-05
2.83618e-05
2.14291e-05
1.83511e-05
1.54173e-05
1.39651e-05
1.29102e-05
1.24678e-05
1.20443e-05
1.19051e-05
1.09998e-05
1.04504e-05
9.50535e-06
8.72655e-06
7.89538e-06
7.363e-06
7.14343e-06
7.14629e-06
7.21143e-06
6.9406e-06
6.34056e-06
5.66311e-06
5.21156e-06
5.52185e-06
6.70279e-06
5.80711e-06
0.000101749
4.50531e-05
4.64475e-05
3.50974e-05
2.99893e-05
2.6065e-05
2.15217e-05
1.92651e-05
1.66233e-05
1.52519e-05
1.38208e-05
1.29787e-05
1.2456e-05
1.21928e-05
1.11988e-05
1.04423e-05
9.49746e-06
8.78603e-06
8.26166e-06
8.09516e-06
7.85296e-06
7.82322e-06
7.8341e-06
7.6579e-06
7.20035e-06
6.63414e-06
6.37637e-06
6.95641e-06
8.30258e-06
7.9311e-06
6.33528e-05
4.13612e-05
4.08461e-05
3.15867e-05
2.79731e-05
2.30043e-05
2.01997e-05
1.76313e-05
1.59753e-05
1.46729e-05
1.36755e-05
1.26371e-05
1.19937e-05
1.18189e-05
1.08583e-05
9.83883e-06
8.85692e-06
8.10033e-06
7.92362e-06
8.06244e-06
7.78951e-06
7.61237e-06
7.49556e-06
7.39035e-06
7.07789e-06
6.89245e-06
6.90471e-06
7.74321e-06
9.12592e-06
9.09158e-06
4.37361e-05
2.92986e-05
2.94428e-05
2.45962e-05
2.32069e-05
2.04906e-05
1.86614e-05
1.69754e-05
1.55435e-05
1.46324e-05
1.38039e-05
1.29055e-05
1.23995e-05
1.24893e-05
1.14243e-05
1.00069e-05
8.78234e-06
7.92407e-06
7.79023e-06
7.94059e-06
7.68102e-06
7.54834e-06
7.54454e-06
7.57966e-06
7.57794e-06
7.74284e-06
8.11001e-06
9.09751e-06
1.05029e-05
1.09368e-05
4.07051e-05
2.93916e-05
2.8779e-05
2.40964e-05
2.26128e-05
1.92542e-05
1.7708e-05
1.5531e-05
1.43527e-05
1.33013e-05
1.28965e-05
1.24108e-05
1.25314e-05
1.29224e-05
1.19202e-05
1.01724e-05
8.83662e-06
7.76837e-06
7.40304e-06
7.18776e-06
6.84183e-06
6.75753e-06
6.90531e-06
7.20946e-06
7.62816e-06
8.23413e-06
8.91871e-06
9.98936e-06
1.13274e-05
1.20161e-05
3.15339e-05
2.42634e-05
2.35174e-05
2.08257e-05
1.96197e-05
1.73571e-05
1.59311e-05
1.42187e-05
1.30598e-05
1.22316e-05
1.21862e-05
1.25255e-05
1.32149e-05
1.36572e-05
1.26824e-05
1.09402e-05
9.34247e-06
7.92157e-06
7.19344e-06
6.68887e-06
6.33439e-06
6.44612e-06
6.86105e-06
7.49083e-06
8.30035e-06
9.16164e-06
1.01189e-05
1.1172e-05
1.2335e-05
1.32805e-05
3.14865e-05
2.45868e-05
2.37531e-05
2.10992e-05
1.95577e-05
1.686e-05
1.51968e-05
1.30962e-05
1.17911e-05
1.0884e-05
1.12179e-05
1.20598e-05
1.28922e-05
1.28404e-05
1.21237e-05
1.08739e-05
9.20552e-06
7.66736e-06
6.67319e-06
5.97075e-06
5.63607e-06
5.93826e-06
6.60039e-06
7.43111e-06
8.35617e-06
9.45537e-06
1.06776e-05
1.16856e-05
1.27598e-05
1.38412e-05
2.76077e-05
2.21995e-05
2.12555e-05
1.93553e-05
1.78523e-05
1.58088e-05
1.42603e-05
1.23476e-05
1.10639e-05
1.04781e-05
1.1091e-05
1.19997e-05
1.21881e-05
1.12322e-05
1.04403e-05
9.67169e-06
8.40872e-06
7.24667e-06
6.33462e-06
5.69716e-06
5.60835e-06
6.21373e-06
7.13213e-06
8.12661e-06
9.11381e-06
1.03465e-05
1.16512e-05
1.24729e-05
1.34348e-05
1.46154e-05
2.7892e-05
2.25463e-05
2.14465e-05
1.96059e-05
1.82685e-05
1.64766e-05
1.49703e-05
1.27253e-05
1.10187e-05
1.00338e-05
1.02203e-05
1.05476e-05
9.78694e-06
8.27494e-06
7.5396e-06
7.0026e-06
6.06059e-06
5.73949e-06
5.45111e-06
5.10928e-06
5.43683e-06
6.4476e-06
7.65761e-06
8.94494e-06
1.00759e-05
1.12718e-05
1.23829e-05
1.29878e-05
1.38641e-05
1.51272e-05
2.55312e-05
2.13016e-05
2.04431e-05
1.92912e-05
1.81908e-05
1.68029e-05
1.54221e-05
1.32311e-05
1.13572e-05
9.64966e-06
9.04187e-06
8.47817e-06
7.24819e-06
6.30997e-06
5.78168e-06
5.37658e-06
4.65958e-06
4.16829e-06
4.47697e-06
4.44571e-06
5.16987e-06
6.9365e-06
8.47413e-06
9.81036e-06
1.0964e-05
1.2095e-05
1.30328e-05
1.36348e-05
1.46007e-05
1.62107e-05
2.44123e-05
2.04972e-05
1.98014e-05
1.89307e-05
1.79063e-05
1.65464e-05
1.52237e-05
1.34586e-05
1.18794e-05
9.33622e-06
7.22655e-06
5.27176e-06
4.08973e-06
3.62849e-06
3.53771e-06
3.53524e-06
2.82019e-06
2.13314e-06
2.36255e-06
3.31301e-06
4.91078e-06
7.27598e-06
9.09831e-06
1.04623e-05
1.14942e-05
1.25744e-05
1.3546e-05
1.42536e-05
1.53285e-05
1.73363e-05
2.29037e-05
1.9397e-05
1.86762e-05
1.7901e-05
1.69761e-05
1.57955e-05
1.45609e-05
1.30781e-05
1.17246e-05
9.16556e-06
6.47302e-06
4.15352e-06
2.76827e-06
2.71374e-06
3.19437e-06
2.9299e-06
2.18697e-06
1.66495e-06
2.20175e-06
3.55279e-06
5.41129e-06
7.80986e-06
9.7683e-06
1.12507e-05
1.22913e-05
1.3332e-05
1.43087e-05
1.50487e-05
1.60717e-05
1.83781e-05
2.23366e-05
1.89303e-05
1.81354e-05
1.73717e-05
1.65157e-05
1.54001e-05
1.41574e-05
1.2486e-05
1.07501e-05
8.31782e-06
5.994e-06
3.95145e-06
2.5774e-06
2.45803e-06
3.49034e-06
2.99988e-06
2.11226e-06
2.0789e-06
2.93113e-06
4.35052e-06
5.97674e-06
8.15988e-06
9.84052e-06
1.12832e-05
1.23042e-05
1.33863e-05
1.43708e-05
1.51498e-05
1.60273e-05
1.82e-05
2.05704e-05
1.76942e-05
1.68722e-05
1.61818e-05
1.53719e-05
1.4309e-05
1.32022e-05
1.17585e-05
9.87702e-06
7.30749e-06
4.7891e-06
3.1715e-06
2.49255e-06
2.88725e-06
3.8827e-06
3.5553e-06
2.9063e-06
3.16469e-06
4.34864e-06
5.72105e-06
6.95182e-06
8.71613e-06
1.00854e-05
1.13021e-05
1.23429e-05
1.3506e-05
1.45401e-05
1.52396e-05
1.5978e-05
1.80109e-05
1.9334e-05
1.68686e-05
1.60261e-05
1.53165e-05
1.44666e-05
1.33044e-05
1.21532e-05
1.06927e-05
9.05663e-06
6.75636e-06
4.93702e-06
4.22193e-06
3.52527e-06
3.75622e-06
4.54243e-06
4.22927e-06
4.10433e-06
4.76742e-06
6.08944e-06
7.08065e-06
7.3221e-06
8.70554e-06
9.78905e-06
1.11062e-05
1.22648e-05
1.34581e-05
1.45436e-05
1.54156e-05
1.63208e-05
1.84255e-05
1.81174e-05
1.60999e-05
1.52032e-05
1.43949e-05
1.34431e-05
1.22435e-05
1.10578e-05
9.61701e-06
8.20373e-06
6.85473e-06
6.01637e-06
5.82173e-06
5.42044e-06
5.33034e-06
5.79806e-06
5.35159e-06
5.45281e-06
6.26956e-06
7.02929e-06
7.25773e-06
7.17514e-06
7.76826e-06
8.62831e-06
9.97368e-06
1.10756e-05
1.20883e-05
1.31693e-05
1.44515e-05
1.57731e-05
1.80194e-05
1.70317e-05
1.51271e-05
1.41178e-05
1.30753e-05
1.19719e-05
1.07343e-05
9.7031e-06
8.53838e-06
7.47925e-06
6.60273e-06
6.40573e-06
6.57979e-06
6.86297e-06
7.33191e-06
7.97622e-06
7.7457e-06
7.89016e-06
8.17714e-06
7.76959e-06
7.22358e-06
6.69978e-06
6.95603e-06
7.58819e-06
8.74452e-06
9.74356e-06
1.07598e-05
1.18684e-05
1.32438e-05
1.46035e-05
1.66366e-05
1.56221e-05
1.39676e-05
1.30963e-05
1.19543e-05
1.08277e-05
9.78944e-06
8.90844e-06
7.94174e-06
7.04965e-06
6.50002e-06
6.47438e-06
6.63985e-06
7.08992e-06
8.10323e-06
9.39941e-06
9.88263e-06
1.00358e-05
9.34301e-06
8.30666e-06
7.3289e-06
6.52268e-06
6.56994e-06
7.10468e-06
8.14736e-06
9.0088e-06
1.00236e-05
1.10405e-05
1.22783e-05
1.34619e-05
1.48321e-05
1.4561e-05
1.32957e-05
1.25427e-05
1.136e-05
1.02863e-05
9.40583e-06
8.68539e-06
7.95034e-06
7.29002e-06
6.93943e-06
6.63527e-06
6.31351e-06
6.63842e-06
7.81418e-06
9.32572e-06
1.04408e-05
1.05412e-05
9.18599e-06
7.94674e-06
7.33611e-06
6.84904e-06
6.94591e-06
7.26438e-06
7.97551e-06
8.54204e-06
9.35688e-06
1.01623e-05
1.13477e-05
1.25514e-05
1.35541e-05
1.312e-05
1.22326e-05
1.12867e-05
1.01523e-05
9.39592e-06
8.73681e-06
8.25827e-06
7.83317e-06
7.48989e-06
7.39364e-06
6.97881e-06
6.30402e-06
6.26631e-06
7.29685e-06
8.61252e-06
9.70262e-06
9.69973e-06
8.51465e-06
7.69813e-06
7.63901e-06
7.42708e-06
7.35639e-06
7.33965e-06
7.67138e-06
7.89945e-06
8.46424e-06
9.08157e-06
1.0229e-05
1.14395e-05
1.2023e-05
1.18301e-05
1.11585e-05
9.99067e-06
9.05774e-06
8.60567e-06
8.25803e-06
8.10759e-06
8.02132e-06
7.90508e-06
7.82003e-06
7.2416e-06
6.55102e-06
6.26848e-06
6.87447e-06
7.83927e-06
8.62851e-06
8.71926e-06
8.08186e-06
7.65435e-06
7.8672e-06
7.88371e-06
7.88119e-06
7.71479e-06
7.76842e-06
7.70512e-06
7.90702e-06
8.21309e-06
9.28638e-06
1.05183e-05
1.08679e-05
9.74879e-06
9.57534e-06
8.41965e-06
7.77834e-06
7.56556e-06
7.43955e-06
7.57329e-06
7.77628e-06
7.95007e-06
7.86633e-06
7.17526e-06
6.62837e-06
6.67685e-06
7.0301e-06
7.55106e-06
7.88721e-06
8.24296e-06
8.08149e-06
7.63111e-06
7.51727e-06
7.69343e-06
7.86019e-06
7.69531e-06
7.6486e-06
7.37007e-06
7.23677e-06
7.14053e-06
8.10719e-06
9.34956e-06
9.293e-06
8.26809e-06
8.36541e-06
7.16873e-06
6.76052e-06
6.93188e-06
7.15721e-06
7.41545e-06
7.78384e-06
8.09854e-06
8.16583e-06
7.52415e-06
7.08262e-06
7.34066e-06
7.63991e-06
7.72564e-06
7.66162e-06
8.1506e-06
8.3157e-06
7.777e-06
7.35255e-06
7.36578e-06
7.66321e-06
7.66601e-06
7.63568e-06
7.25642e-06
6.7441e-06
6.3972e-06
7.18412e-06
8.46507e-06
8.15348e-06
6.19644e-06
6.77606e-06
5.4665e-06
5.27535e-06
5.8111e-06
6.19951e-06
6.62219e-06
7.11626e-06
7.52156e-06
7.80614e-06
7.40168e-06
7.31161e-06
7.6898e-06
7.88147e-06
7.63703e-06
7.3048e-06
7.78588e-06
8.00237e-06
7.7141e-06
7.18527e-06
6.83491e-06
6.80222e-06
6.73801e-06
6.69994e-06
6.32347e-06
5.84223e-06
5.36774e-06
5.88064e-06
7.03621e-06
6.25646e-06
4.53405e-06
5.55531e-06
4.36489e-06
4.77269e-06
5.32035e-06
5.84402e-06
6.43068e-06
7.01456e-06
7.50117e-06
7.8422e-06
7.64722e-06
7.81045e-06
8.17067e-06
8.21282e-06
7.91757e-06
7.51387e-06
7.7279e-06
7.93876e-06
7.91256e-06
7.58774e-06
6.98864e-06
6.66853e-06
6.39428e-06
6.34484e-06
6.09325e-06
5.74359e-06
5.13461e-06
4.80149e-06
5.73802e-06
4.66613e-06
2.12466e-06
3.60821e-06
3.34217e-06
4.06979e-06
4.68676e-06
5.43806e-06
6.14132e-06
6.90139e-06
7.57154e-06
8.14811e-06
8.26221e-06
8.40653e-06
8.58477e-06
8.6571e-06
8.64872e-06
8.28199e-06
8.31205e-06
8.41433e-06
8.37663e-06
7.91819e-06
7.13375e-06
6.62386e-06
6.20766e-06
6.00592e-06
5.57753e-06
4.95208e-06
4.15752e-06
3.24115e-06
3.43348e-06
2.10134e-06
9.6909e-07
2.10521e-06
3.08995e-06
3.84249e-06
4.84084e-06
5.73599e-06
6.61957e-06
7.55616e-06
8.47569e-06
9.116e-06
9.38775e-06
9.52844e-06
9.53162e-06
9.76543e-06
9.67206e-06
9.21087e-06
9.31612e-06
9.59208e-06
9.56406e-06
8.78812e-06
7.72248e-06
7.04867e-06
6.41956e-06
6.02861e-06
5.2047e-06
4.1947e-06
2.86048e-06
1.91895e-06
1.19769e-06
3.20517e-07
0.000408401
0.000481227
0.00011447
9.74568e-05
4.21721e-05
3.44424e-05
2.14352e-05
1.88549e-05
1.30641e-05
1.28387e-05
1.09431e-05
1.21535e-05
1.14601e-05
1.19707e-05
1.09733e-05
1.08372e-05
9.92076e-06
8.83e-06
8.23722e-06
7.29337e-06
6.77837e-06
6.41914e-06
6.32306e-06
5.95017e-06
5.51514e-06
4.7082e-06
3.87631e-06
2.99804e-06
2.39673e-06
1.36945e-06
0.000478021
0.000103505
7.86758e-05
3.94773e-05
1.92145e-05
1.56768e-05
9.81565e-06
7.6967e-06
5.87105e-06
5.33035e-06
4.97815e-06
4.05401e-06
3.01456e-06
3.28923e-06
3.4332e-06
3.43457e-06
3.33729e-06
3.2543e-06
2.93335e-06
2.49701e-06
2.5902e-06
3.08236e-06
3.66051e-06
4.00234e-06
3.9744e-06
3.54659e-06
3.14748e-06
2.70934e-06
3.93609e-06
3.3222e-06
0.000112191
7.96827e-05
4.06421e-05
3.72579e-05
1.86564e-05
1.7377e-05
1.10516e-05
8.85222e-06
6.64063e-06
6.30168e-06
6.27257e-06
6.0609e-06
4.37e-06
3.44861e-06
3.06994e-06
2.84959e-06
2.51181e-06
2.03838e-06
1.86613e-06
2.20889e-06
2.74099e-06
3.93596e-06
4.84654e-06
4.93021e-06
4.9918e-06
4.7531e-06
3.95672e-06
3.60306e-06
4.45906e-06
5.54953e-06
9.73629e-05
3.74544e-05
3.54693e-05
2.33299e-05
1.29201e-05
1.21977e-05
7.0754e-06
6.95527e-06
5.60085e-06
5.74858e-06
5.62392e-06
5.85348e-06
4.21844e-06
3.3382e-06
2.83543e-06
2.75135e-06
2.96724e-06
2.21827e-06
2.33797e-06
3.16445e-06
4.12622e-06
4.73706e-06
4.54709e-06
4.35991e-06
4.89014e-06
4.92458e-06
4.29502e-06
4.1713e-06
4.14425e-06
6.79812e-06
4.45693e-05
1.76766e-05
1.62494e-05
1.33535e-05
8.20636e-06
8.78849e-06
5.62571e-06
5.65547e-06
4.45105e-06
4.32921e-06
3.844e-06
4.04547e-06
2.76015e-06
3.03731e-06
2.92544e-06
2.97124e-06
3.17436e-06
2.29668e-06
2.58184e-06
3.60612e-06
4.20301e-06
3.48793e-06
2.53194e-06
2.48145e-06
3.23809e-06
3.74281e-06
4.03905e-06
4.37446e-06
3.93703e-06
8.45688e-06
4.07767e-05
1.32043e-05
1.52593e-05
1.23158e-05
8.3804e-06
7.92214e-06
4.802e-06
4.65741e-06
3.14665e-06
3.26758e-06
3.07916e-06
3.28283e-06
2.58986e-06
3.05848e-06
3.11131e-06
3.20091e-06
3.33911e-06
2.69929e-06
3.14302e-06
3.46632e-06
3.23827e-06
2.07524e-06
1.34105e-06
1.39572e-06
1.89986e-06
2.66397e-06
3.56358e-06
4.20538e-06
3.63525e-06
9.27651e-06
2.92516e-05
7.69977e-06
8.96788e-06
6.99558e-06
5.50779e-06
5.41082e-06
3.87707e-06
3.91353e-06
2.90864e-06
3.0982e-06
2.97749e-06
3.35037e-06
2.71554e-06
3.32539e-06
3.61446e-06
3.47771e-06
3.51843e-06
3.2491e-06
3.81352e-06
3.2123e-06
2.62404e-06
1.79909e-06
1.51409e-06
1.28323e-06
1.60234e-06
2.61144e-06
3.58706e-06
4.12384e-06
3.66499e-06
1.0608e-05
2.93154e-05
5.08508e-06
7.50896e-06
7.13485e-06
5.84129e-06
5.60372e-06
4.28491e-06
4.16744e-06
3.179e-06
3.19576e-06
2.96807e-06
3.04177e-06
2.15757e-06
2.94551e-06
3.5032e-06
3.14841e-06
3.01082e-06
3.13855e-06
3.5897e-06
2.86306e-06
2.18723e-06
1.68385e-06
1.48321e-06
1.3035e-06
1.78233e-06
2.8053e-06
3.54871e-06
3.93736e-06
3.5638e-06
1.13835e-05
2.43789e-05
4.1061e-06
5.01475e-06
4.67092e-06
4.41386e-06
4.39918e-06
3.77884e-06
3.83382e-06
3.32553e-06
3.37025e-06
3.0229e-06
2.41424e-06
1.41509e-06
3.6536e-06
4.54876e-06
3.8857e-06
2.93481e-06
2.42713e-06
3.1027e-06
2.6671e-06
2.24948e-06
1.83718e-06
1.71027e-06
1.75377e-06
2.28753e-06
3.00405e-06
3.37424e-06
3.51066e-06
3.33023e-06
1.24342e-05
2.44941e-05
2.78257e-06
3.83493e-06
3.95679e-06
4.04374e-06
4.28071e-06
3.85468e-06
3.92937e-06
3.63926e-06
3.46429e-06
2.94763e-06
1.97939e-06
2.60606e-06
5.08467e-06
5.91161e-06
5.11559e-06
3.74689e-06
1.85254e-06
2.17687e-06
2.36387e-06
2.07644e-06
1.95187e-06
1.92342e-06
2.1089e-06
2.38178e-06
2.7219e-06
2.76832e-06
2.6845e-06
2.81769e-06
1.29912e-05
2.22832e-05
2.69561e-06
2.78721e-06
2.53902e-06
2.56127e-06
2.9824e-06
3.16161e-06
3.668e-06
3.76369e-06
3.57723e-06
3.18295e-06
3.101e-06
4.66278e-06
6.59261e-06
7.27739e-06
6.90178e-06
5.90858e-06
3.18063e-06
2.20319e-06
2.24494e-06
2.43743e-06
2.54561e-06
2.59985e-06
2.67845e-06
2.7349e-06
2.73472e-06
2.48464e-06
2.25501e-06
2.47516e-06
1.3527e-05
2.25541e-05
2.33783e-06
1.92478e-06
1.76636e-06
1.79628e-06
2.3524e-06
2.83914e-06
3.53563e-06
4.11324e-06
4.12346e-06
3.65512e-06
4.1833e-06
5.301e-06
5.92288e-06
6.18317e-06
6.12896e-06
5.35788e-06
3.81115e-06
2.57545e-06
2.31553e-06
2.77782e-06
3.023e-06
2.97743e-06
2.89667e-06
2.8331e-06
2.74634e-06
2.34878e-06
2.23422e-06
2.26043e-06
1.38629e-05
2.10432e-05
2.48725e-06
1.84145e-06
1.58015e-06
1.45748e-06
1.61419e-06
2.01998e-06
2.7409e-06
3.61789e-06
3.80161e-06
3.58399e-06
5.30066e-06
5.74117e-06
5.72658e-06
5.61743e-06
5.32362e-06
4.93865e-06
4.03658e-06
3.51473e-06
2.2214e-06
2.8092e-06
3.02249e-06
2.77527e-06
2.443e-06
2.26128e-06
2.23677e-06
2.0072e-06
2.15973e-06
2.32384e-06
1.47121e-05
2.04076e-05
2.28781e-06
2.02175e-06
1.96844e-06
1.96113e-06
1.85157e-06
2.02727e-06
2.50916e-06
3.4079e-06
3.66106e-06
4.2234e-06
4.88459e-06
4.63745e-06
4.43749e-06
3.96865e-06
3.62652e-06
2.90117e-06
2.76175e-06
2.68643e-06
2.28361e-06
2.30478e-06
2.81027e-06
2.44118e-06
1.99933e-06
1.80086e-06
1.89404e-06
1.80672e-06
2.02612e-06
2.39166e-06
1.55033e-05
1.93324e-05
2.42634e-06
2.08131e-06
2.01772e-06
2.01925e-06
2.06006e-06
2.26247e-06
2.71635e-06
3.49827e-06
4.21138e-06
4.51888e-06
4.09091e-06
3.54017e-06
3.10501e-06
3.42939e-06
3.02002e-06
2.39281e-06
2.50453e-06
2.68358e-06
3.1278e-06
3.41437e-06
3.33996e-06
2.53753e-06
1.85512e-06
1.62433e-06
1.71239e-06
1.65453e-06
1.85351e-06
2.3997e-06
1.61623e-05
1.89719e-05
2.67826e-06
2.25759e-06
2.12098e-06
2.21515e-06
2.36805e-06
2.60413e-06
2.96333e-06
3.77605e-06
4.19072e-06
3.86086e-06
2.88277e-06
2.51967e-06
2.47023e-06
3.13942e-06
3.15665e-06
2.54301e-06
2.79264e-06
3.09168e-06
3.75373e-06
3.76132e-06
3.4684e-06
2.41582e-06
1.58758e-06
1.27549e-06
1.48284e-06
1.50342e-06
1.62634e-06
2.03241e-06
1.60002e-05
1.78678e-05
2.70817e-06
2.4451e-06
2.27302e-06
2.42261e-06
2.55708e-06
2.71516e-06
3.0937e-06
3.73841e-06
3.53114e-06
3.39282e-06
3.23933e-06
3.08362e-06
3.11845e-06
3.771e-06
3.73777e-06
3.30997e-06
3.41627e-06
3.49712e-06
3.31331e-06
3.02988e-06
3.57605e-06
2.5479e-06
1.6088e-06
1.30407e-06
1.65724e-06
1.83689e-06
1.82926e-06
2.00694e-06
1.59353e-05
1.70442e-05
2.69603e-06
2.68765e-06
2.43616e-06
2.62697e-06
2.73649e-06
2.97787e-06
3.20216e-06
3.60537e-06
3.17911e-06
2.92706e-06
3.22831e-06
3.64758e-06
3.97081e-06
4.55449e-06
4.58925e-06
4.64332e-06
4.34431e-06
3.47682e-06
2.2198e-06
3.2318e-06
4.10599e-06
3.12034e-06
2.49273e-06
2.09331e-06
2.16473e-06
2.41395e-06
2.41412e-06
2.51385e-06
1.6074e-05
1.60332e-05
2.95872e-06
3.08017e-06
3.01177e-06
3.35648e-06
3.42481e-06
3.52842e-06
3.51337e-06
3.74851e-06
3.41487e-06
3.37218e-06
2.67197e-06
3.3518e-06
4.23815e-06
5.14771e-06
5.0951e-06
4.94873e-06
4.1875e-06
2.60442e-06
1.9972e-06
3.42792e-06
4.289e-06
3.59525e-06
3.12672e-06
2.68691e-06
2.70058e-06
2.94606e-06
3.02943e-06
3.03955e-06
1.57278e-05
1.52194e-05
3.10733e-06
2.98908e-06
3.22395e-06
3.5207e-06
3.17175e-06
2.98459e-06
2.73174e-06
2.98491e-06
2.6502e-06
2.8368e-06
1.61815e-06
2.21571e-06
4.12077e-06
5.52772e-06
5.76745e-06
5.47972e-06
3.60817e-06
1.66647e-06
2.18051e-06
2.78299e-06
3.46793e-06
3.00297e-06
2.85949e-06
2.66012e-06
2.97776e-06
3.12187e-06
2.95923e-06
3.06702e-06
1.48281e-05
1.43427e-05
3.4496e-06
3.12261e-06
3.6218e-06
3.8051e-06
2.93449e-06
2.49089e-06
2.18583e-06
2.45866e-06
2.3168e-06
2.73182e-06
1.784e-06
1.0177e-06
2.14901e-06
3.92924e-06
4.82239e-06
4.53502e-06
2.03136e-06
1.51794e-06
2.76891e-06
2.64755e-06
2.90497e-06
2.47534e-06
2.60677e-06
2.80311e-06
3.54003e-06
3.56423e-06
3.2909e-06
3.11884e-06
1.34154e-05
1.3414e-05
3.60732e-06
3.70675e-06
4.15354e-06
3.80346e-06
2.68747e-06
2.14669e-06
1.66653e-06
1.93883e-06
2.00117e-06
2.66745e-06
2.57416e-06
2.08207e-06
1.54611e-06
2.45449e-06
3.11136e-06
2.66382e-06
1.44999e-06
1.98619e-06
2.66009e-06
2.17339e-06
2.2628e-06
1.83918e-06
2.08866e-06
2.43638e-06
3.47415e-06
3.86248e-06
3.78851e-06
3.20372e-06
1.24047e-05
1.23047e-05
3.62247e-06
4.31019e-06
4.23226e-06
3.42272e-06
2.30051e-06
1.8161e-06
1.30163e-06
1.72942e-06
1.89468e-06
2.70065e-06
3.05919e-06
2.99571e-06
2.99689e-06
3.16244e-06
3.03099e-06
1.85922e-06
2.21473e-06
2.86032e-06
2.92115e-06
1.97833e-06
1.91502e-06
1.48322e-06
1.73943e-06
1.96187e-06
3.16334e-06
3.92867e-06
4.10475e-06
3.40533e-06
1.13641e-05
1.13747e-05
3.61801e-06
4.35923e-06
3.5804e-06
2.73735e-06
1.83087e-06
1.5011e-06
9.67269e-07
1.49013e-06
1.85574e-06
2.80848e-06
2.91388e-06
3.00128e-06
3.7155e-06
3.78177e-06
3.00853e-06
1.95121e-06
2.93991e-06
3.41809e-06
3.60221e-06
2.39257e-06
1.7102e-06
1.18604e-06
1.44886e-06
1.57752e-06
2.70184e-06
3.76481e-06
4.26342e-06
3.49552e-06
1.05118e-05
9.79094e-06
3.7061e-06
4.26474e-06
3.06158e-06
2.2498e-06
1.5973e-06
1.80214e-06
1.50368e-06
1.81227e-06
2.15766e-06
3.06533e-06
2.74111e-06
2.84875e-06
3.87011e-06
3.86348e-06
2.88354e-06
2.43507e-06
3.15236e-06
3.59242e-06
4.3875e-06
3.54267e-06
2.42347e-06
1.48364e-06
1.81389e-06
2.04697e-06
3.07299e-06
3.92085e-06
4.64788e-06
3.79302e-06
9.39153e-06
8.65054e-06
3.66369e-06
3.97635e-06
2.74652e-06
2.21996e-06
1.99153e-06
2.43159e-06
2.42116e-06
2.84952e-06
2.88395e-06
3.15547e-06
2.32118e-06
2.67926e-06
3.61063e-06
3.55588e-06
2.76767e-06
2.54035e-06
2.90281e-06
3.33069e-06
4.43494e-06
4.30511e-06
3.88264e-06
2.91091e-06
3.09364e-06
3.48236e-06
4.21483e-06
4.20159e-06
4.77224e-06
4.12868e-06
8.50431e-06
7.18688e-06
3.88574e-06
3.91878e-06
3.00732e-06
3.24098e-06
3.32481e-06
3.71298e-06
3.8122e-06
4.51119e-06
4.51715e-06
4.08319e-06
2.11975e-06
2.32243e-06
3.23195e-06
3.7569e-06
3.22412e-06
3.13487e-06
3.64229e-06
3.89673e-06
4.81e-06
4.80446e-06
5.28386e-06
5.13174e-06
5.46312e-06
5.58877e-06
5.58458e-06
4.52192e-06
4.614e-06
4.5006e-06
7.04296e-06
6.07007e-06
4.3698e-06
3.81188e-06
3.5721e-06
3.86483e-06
3.67958e-06
3.85602e-06
3.81875e-06
4.53221e-06
4.70185e-06
4.40052e-06
2.14176e-06
1.81985e-06
2.83013e-06
3.41912e-06
2.8626e-06
2.64971e-06
3.38894e-06
3.48071e-06
3.81279e-06
3.47849e-06
4.23361e-06
4.70401e-06
5.60737e-06
5.51734e-06
5.14981e-06
3.8916e-06
3.6312e-06
4.55992e-06
5.77458e-06
4.06713e-06
4.4121e-06
3.27761e-06
3.62978e-06
3.57174e-06
3.41781e-06
3.65276e-06
3.74201e-06
4.37102e-06
4.67852e-06
4.67376e-06
3.53753e-06
3.41152e-06
3.07707e-06
2.78318e-06
2.08563e-06
2.12812e-06
2.7015e-06
2.67338e-06
2.8762e-06
2.56874e-06
3.2268e-06
3.40066e-06
4.12278e-06
4.03658e-06
3.70169e-06
3.08006e-06
2.64236e-06
3.87263e-06
3.4752e-06
2.38316e-06
3.31637e-06
3.72916e-06
4.36253e-06
4.98466e-06
5.60785e-06
6.4442e-06
7.31702e-06
8.36261e-06
9.16332e-06
9.34952e-06
9.05046e-06
8.62888e-06
8.51511e-06
8.39871e-06
8.04156e-06
8.12806e-06
8.16262e-06
8.24203e-06
7.95215e-06
7.14769e-06
6.74935e-06
6.09362e-06
5.9237e-06
5.33243e-06
4.60319e-06
3.59892e-06
2.62689e-06
2.11883e-06
1.40527e-06
0.000416178
0.000114725
9.40102e-05
6.45311e-05
4.21017e-05
3.46275e-05
2.24455e-05
1.90877e-05
1.2429e-05
1.16105e-05
9.49572e-06
9.99895e-06
9.72214e-06
8.37239e-06
8.10021e-06
7.74054e-06
7.13144e-06
7.51429e-06
6.4554e-06
6.928e-06
5.38949e-06
5.93122e-06
5.80717e-06
6.57911e-06
6.26922e-06
5.6379e-06
4.66776e-06
3.52142e-06
2.60232e-06
2.09401e-06
0.00011248
8.02247e-05
4.2155e-05
3.81383e-05
1.73936e-05
1.55732e-05
9.79853e-06
8.25686e-06
7.01004e-06
6.05517e-06
4.61381e-06
2.99178e-06
2.70443e-06
3.01344e-06
3.50096e-06
2.92825e-06
2.85448e-06
2.98713e-06
2.81938e-06
2.22714e-06
1.31025e-06
1.77484e-06
2.7084e-06
3.24959e-06
3.03581e-06
2.55289e-06
2.3354e-06
2.37532e-06
2.90168e-06
3.0343e-06
9.27135e-05
4.24865e-05
3.25623e-05
3.34819e-05
1.88219e-05
1.69805e-05
1.05271e-05
8.93097e-06
7.82961e-06
7.80226e-06
6.69644e-06
5.14397e-06
4.05568e-06
3.68825e-06
3.73636e-06
3.4401e-06
3.76603e-06
3.51563e-06
3.29799e-06
3.09015e-06
2.71633e-06
3.21712e-06
4.63862e-06
5.22316e-06
4.02216e-06
2.91712e-06
3.17372e-06
4.1356e-06
3.73139e-06
4.76019e-06
6.66726e-05
3.65596e-05
3.22397e-05
2.55198e-05
1.50644e-05
1.34863e-05
8.23143e-06
7.16965e-06
5.83966e-06
6.57687e-06
6.86095e-06
6.57731e-06
5.58197e-06
4.64223e-06
3.95416e-06
3.64504e-06
3.60937e-06
3.1985e-06
3.21965e-06
2.94541e-06
2.22815e-06
4.18973e-06
6.27651e-06
6.36439e-06
5.13666e-06
3.58683e-06
3.55023e-06
4.32073e-06
4.01851e-06
5.94409e-06
4.52432e-05
1.73082e-05
1.70616e-05
1.42108e-05
9.76961e-06
9.75743e-06
6.84191e-06
6.13396e-06
4.99141e-06
5.85858e-06
7.27763e-06
7.20208e-06
5.24768e-06
4.17312e-06
3.55228e-06
3.2839e-06
3.04101e-06
2.94033e-06
3.03567e-06
3.13246e-06
4.38028e-06
5.83742e-06
6.25611e-06
6.12875e-06
5.6428e-06
4.35928e-06
4.22411e-06
3.75795e-06
4.20074e-06
7.48897e-06
4.04822e-05
1.51847e-05
1.6272e-05
1.28711e-05
9.37908e-06
8.11105e-06
5.49922e-06
4.43842e-06
3.38821e-06
3.9802e-06
5.08782e-06
4.62114e-06
2.89565e-06
2.42979e-06
2.19669e-06
2.33537e-06
2.47258e-06
2.73333e-06
2.1936e-06
3.11192e-06
3.7974e-06
3.65261e-06
2.90905e-06
3.29874e-06
4.04569e-06
4.22717e-06
4.4478e-06
3.04956e-06
4.12407e-06
8.28461e-06
2.96818e-05
8.56921e-06
9.36453e-06
7.27256e-06
5.95018e-06
5.4112e-06
3.88848e-06
3.45687e-06
3.05131e-06
3.28874e-06
3.9904e-06
3.69978e-06
2.42206e-06
2.36721e-06
2.56131e-06
2.56036e-06
2.39897e-06
2.35713e-06
2.42529e-06
3.12026e-06
2.46279e-06
1.79735e-06
9.7239e-07
1.54911e-06
3.09814e-06
4.10356e-06
4.13311e-06
2.56638e-06
4.11956e-06
9.51218e-06
2.89177e-05
6.49249e-06
7.68923e-06
7.34074e-06
6.3892e-06
5.70452e-06
4.32737e-06
3.87923e-06
3.28715e-06
3.04244e-06
3.44695e-06
3.21411e-06
2.20295e-06
2.52912e-06
2.28735e-06
1.83273e-06
1.38734e-06
1.94782e-06
2.66727e-06
2.83777e-06
1.59661e-06
1.34735e-06
8.59232e-07
1.33968e-06
2.7967e-06
3.61096e-06
3.49037e-06
2.36769e-06
3.90825e-06
1.02706e-05
2.3707e-05
4.79945e-06
4.69381e-06
4.03614e-06
4.11756e-06
4.33717e-06
3.78971e-06
3.56422e-06
3.24097e-06
2.97073e-06
3.17661e-06
2.52439e-06
2.33399e-06
3.16756e-06
2.46943e-06
1.41321e-06
1.30814e-06
1.28877e-06
2.14702e-06
2.56753e-06
1.69956e-06
1.63688e-06
1.33255e-06
1.83101e-06
2.68936e-06
3.06285e-06
3.08101e-06
2.35401e-06
3.59209e-06
1.14038e-05
2.31536e-05
4.01169e-06
3.93714e-06
3.25593e-06
3.20717e-06
3.76254e-06
3.80441e-06
3.65181e-06
3.30095e-06
2.85444e-06
2.76364e-06
2.36893e-06
3.08263e-06
3.74651e-06
3.9245e-06
2.88997e-06
2.76887e-06
2.38013e-06
1.5579e-06
1.88033e-06
1.45795e-06
1.534e-06
1.60096e-06
2.11534e-06
2.29686e-06
2.31221e-06
2.24098e-06
1.69026e-06
3.0237e-06
1.21964e-05
2.07629e-05
3.37366e-06
2.96826e-06
2.58293e-06
2.13414e-06
2.15704e-06
2.84909e-06
3.44964e-06
3.4918e-06
3.04769e-06
3.59035e-06
4.35649e-06
5.38772e-06
6.1244e-06
6.66396e-06
6.04185e-06
5.51423e-06
4.43251e-06
3.27674e-06
2.62031e-06
2.03539e-06
2.07225e-06
2.17819e-06
2.30705e-06
2.001e-06
1.85593e-06
1.72252e-06
1.32959e-06
2.54177e-06
1.28567e-05
2.10426e-05
2.85392e-06
2.15245e-06
2.03345e-06
1.66142e-06
1.48262e-06
2.42525e-06
3.28348e-06
3.40751e-06
3.64479e-06
4.88964e-06
5.10226e-06
6.37446e-06
7.04819e-06
7.58678e-06
7.55809e-06
6.50003e-06
5.06752e-06
3.95181e-06
3.48762e-06
2.59681e-06
2.17012e-06
1.98289e-06
1.95225e-06
1.72928e-06
1.70916e-06
1.66528e-06
1.34145e-06
1.98073e-06
1.31979e-05
1.98069e-05
2.3476e-06
1.56866e-06
1.46287e-06
1.28176e-06
1.09814e-06
1.85573e-06
2.96349e-06
2.76026e-06
3.9031e-06
5.48329e-06
6.21168e-06
7.81233e-06
8.38911e-06
8.58007e-06
8.31317e-06
7.64647e-06
6.33378e-06
5.073e-06
4.10898e-06
3.14815e-06
1.82435e-06
1.61824e-06
1.57128e-06
1.36096e-06
1.35824e-06
1.38578e-06
1.08173e-06
1.9573e-06
1.3992e-05
1.94398e-05
2.28041e-06
1.52394e-06
1.43931e-06
1.49615e-06
1.51725e-06
2.04985e-06
2.99502e-06
2.92387e-06
3.60782e-06
4.89462e-06
6.47845e-06
7.38331e-06
8.13701e-06
8.14216e-06
7.89201e-06
7.14621e-06
6.1773e-06
5.58048e-06
3.67923e-06
2.98538e-06
2.00415e-06
1.33688e-06
1.18577e-06
1.21335e-06
1.17629e-06
9.77649e-07
5.58877e-07
2.0023e-06
1.46091e-05
1.82523e-05
2.60358e-06
1.56872e-06
1.51566e-06
1.53813e-06
1.7119e-06
1.96628e-06
2.2833e-06
2.9814e-06
4.35525e-06
5.30331e-06
6.032e-06
5.68626e-06
6.49788e-06
7.35567e-06
7.41524e-06
6.4649e-06
5.69966e-06
5.80088e-06
4.89469e-06
4.22472e-06
2.83967e-06
1.81341e-06
1.24585e-06
1.24821e-06
1.07375e-06
7.92556e-07
5.41679e-07
2.03565e-06
1.5144e-05
1.78167e-05
2.84328e-06
1.39125e-06
1.40924e-06
1.57254e-06
1.89723e-06
2.03663e-06
2.36636e-06
3.34047e-06
4.67309e-06
5.11844e-06
5.48345e-06
4.90631e-06
5.85424e-06
7.02608e-06
7.17645e-06
6.31645e-06
5.5991e-06
6.05569e-06
5.26509e-06
4.35938e-06
3.04405e-06
1.78478e-06
1.21397e-06
1.24217e-06
1.07136e-06
9.49968e-07
6.62536e-07
1.79948e-06
1.50223e-05
1.68846e-05
2.92353e-06
1.39662e-06
1.6297e-06
1.66648e-06
2.0338e-06
2.02564e-06
2.25981e-06
2.83568e-06
3.84377e-06
4.34806e-06
5.81677e-06
5.892e-06
6.83148e-06
7.57768e-06
7.72727e-06
7.41232e-06
6.23085e-06
6.01582e-06
4.0336e-06
3.88087e-06
2.77801e-06
1.6777e-06
1.27286e-06
1.19292e-06
1.01161e-06
1.41415e-06
1.23933e-06
1.78008e-06
1.50489e-05
1.62596e-05
2.91873e-06
1.82925e-06
1.97834e-06
1.67243e-06
1.91641e-06
2.13031e-06
2.34008e-06
2.49103e-06
3.81884e-06
4.61549e-06
5.24611e-06
6.00061e-06
7.03034e-06
7.87224e-06
8.10803e-06
7.52898e-06
6.14509e-06
5.1833e-06
3.84307e-06
3.91325e-06
2.41271e-06
2.13079e-06
1.73441e-06
1.17932e-06
1.12151e-06
2.11903e-06
2.07084e-06
2.41689e-06
1.49382e-05
1.50831e-05
3.0868e-06
2.12265e-06
2.13898e-06
2.19622e-06
2.65695e-06
2.83939e-06
2.92689e-06
2.87051e-06
3.48312e-06
4.02552e-06
4.33872e-06
4.71309e-06
5.97707e-06
7.37671e-06
7.83804e-06
6.69277e-06
5.35245e-06
4.43541e-06
3.87056e-06
3.60971e-06
3.07748e-06
2.63077e-06
2.10659e-06
1.65362e-06
1.55401e-06
2.28933e-06
2.16778e-06
3.03357e-06
1.43693e-05
1.40728e-05
3.26004e-06
2.08487e-06
1.92594e-06
2.64429e-06
3.13235e-06
2.74884e-06
2.55695e-06
2.32034e-06
2.5012e-06
2.60091e-06
3.26866e-06
3.46017e-06
4.56125e-06
5.99485e-06
7.08448e-06
6.24768e-06
4.9428e-06
3.78218e-06
3.00923e-06
2.91749e-06
2.77113e-06
2.62847e-06
2.41132e-06
2.52411e-06
2.20496e-06
2.04534e-06
1.75102e-06
3.26953e-06
1.33625e-05
1.31611e-05
3.70543e-06
2.42623e-06
2.16027e-06
3.43978e-06
3.80583e-06
2.71523e-06
2.1046e-06
1.84674e-06
1.92868e-06
1.84397e-06
1.97884e-06
2.03918e-06
3.09605e-06
3.31904e-06
4.39764e-06
4.14139e-06
3.6611e-06
2.60562e-06
2.24396e-06
2.54666e-06
2.31399e-06
2.32367e-06
2.70968e-06
3.56453e-06
3.25271e-06
2.21163e-06
1.55455e-06
3.20481e-06
1.19308e-05
1.21822e-05
3.72256e-06
2.37135e-06
3.13796e-06
4.22584e-06
3.75058e-06
2.44716e-06
1.8784e-06
1.653e-06
1.67948e-06
2.06209e-06
2.55768e-06
1.59108e-06
2.05133e-06
2.87454e-06
2.97625e-06
2.85268e-06
2.83142e-06
2.37784e-06
2.01577e-06
2.15398e-06