/*--------------------------------*- C++ -*----------------------------------*\
| =========                 |                                                 |
| \\      /  F ield         | OpenFOAM: The Open Source CFD Toolbox           |
|  \\    /   O peration     | Version:  v1906                                 |
|   \\  /    A nd           | Web:      www.OpenFOAM.com                      |
|    \\/     M anipulation  |                                                 |
\*---------------------------------------------------------------------------*/
FoamFile
{
    version     2.0;
    format      ascii;
    class       volScalarField;
    location    "23.6/sphere";
    object      T;
}
// * * * * * * * * * * * * * * * * * * * * * * * * * * * * * * * * * * * * * //

dimensions      [0 0 0 1 0 0 0];


internalField   nonuniform List<scalar> 
304
(
486.003
486.034
486.032
486.049
486.005
486.004
486.003
486.035
486.001
486.163
486.163
486.048
486.032
486.163
486.163
486.082
486.048
486.082
486.005
486.033
486.05
486.003
486.035
486.164
486.163
486.082
486.05
486.163
486.163
486.11
486.002
486.081
486.11
486.041
486.004
486.051
486.082
486.007
486.008
486.082
486.11
486.04
486.005
486.041
485.991
485.99
486.005
486.005
486.006
486.042
486.005
486.005
486.043
486.006
485.99
486.005
486.008
486.005
486.042
486.034
486.034
486.05
486.05
486.083
486.083
486.11
486.002
486.05
486.034
486.083
486.05
486.11
486.083
486.004
486.007
486.042
486.005
486.002
486.002
486.04
486.004
486.049
485.998
486.032
486.081
486.11
486.046
486.08
486.034
486.033
486.001
486.11
486.082
486.082
486.048
486.041
486.004
486.004
485.989
486.002
486.004
486.04
486.003
486.041
486.005
486.003
485.988
486.005
486.003
486.003
486.041
486.035
486.049
486.083
486.033
486.05
486.082
486.111
486.004
486.083
486.05
486.051
486.034
486.111
486.082
486.006
486.004
486.041
486.004
486.049
486.034
486.082
486.034
486.083
486.05
486.111
486.001
486.082
486.034
486.082
486.034
486.11
486.05
486.081
485.999
486.048
486.05
486.11
486.032
486.081
486.033
486.048
486
486.11
486.05
486.082
486.033
486.006
486.002
486.041
486.003
486.082
486.002
486.034
486.082
486.11
486.033
486.05
486.048
486.034
486.002
486.11
486.081
486.05
486.034
486.04
486.002
486.002
486.003
486.004
486.042
486.008
486.05
486.082
486.111
486.002
486.033
486.05
486.082
486.033
486.111
486.082
486.034
486
486.082
486.047
486.041
486.003
486.004
486.084
486.051
486.111
486.005
486.052
486.036
486.084
486.034
486.11
486.05
486.049
486.003
486.082
486.034
486.111
486.033
486.082
486.036
486.083
486.002
486.049
486.05
486.082
486.033
486.081
486.033
486.048
486
486.04
486.003
486.006
486.11
486.034
486.05
486.049
486.082
486.003
486.034
486.082
486.051
486.035
486.083
486.05
486.035
486.005
486.003
486.003
486.007
485.993
486.003
486.007
486.041
486.003
486.04
486.004
486.002
485.989
486.01
486.006
486.044
486.006
486.082
486.083
486.111
486.005
486.034
486.035
486.05
486.049
486.11
486.082
486.033
486
486.05
486.033
486.042
486.005
486.003
486.043
486.007
486.004
486.11
486.048
486.081
486.033
486.049
486
486.033
486.081
486.082
486.048
486.049
486.033
486.033
486
486.002
486.004
486.001
485.991
486.041
486.004
486.003
486.006
486.004
486.002
)
;

boundaryField
{
    sphere_to_oil
    {
        type            compressible::turbulentTemperatureCoupledBaffleMixed;
        refValue        nonuniform List<scalar> 
360
(
337.501
337.501
312.529
359.538
367.107
314.985
368.294
368.294
368.294
337.895
337.895
315.356
317.071
310.989
335.096
363.719
358.274
358.274
358.274
311.909
355.708
333.589
330.447
363.661
311.512
364.756
314.518
364.249
364.249
364.249
369.201
362.079
312.556
312.373
315.181
315.334
358.617
358.617
358.617
357.981
366.388
313.209
315.333
337.422
337.422
314.427
317.118
309.643
335.362
365.17
315.156
315.013
316.771
317.04
311.657
333.762
359.362
311.878
315.311
316.645
310.017
365.399
365.399
365.399
309.639
364.093
335.108
323.28
367.62
367.62
367.62
367.319
365.857
310.691
356.529
334.346
311.177
328.817
366.138
359.079
331.514
320.999
330.619
309.914
312.528
314.887
315.538
316.946
310.969
312.028
312.552
316.915
315.312
312.67
316.787
315.239
315.497
315.362
313.007
310.408
310.494
310.911
314.982
315.338
316.932
310.823
311.134
317.087
313.021
315.505
315.565
315.411
313.037
311.765
310.009
309.957
324.712
322.929
325.747
337.506
337.506
359.538
359.538
363.661
363.661
360.956
360.956
360.956
363.37
363.37
363.37
325.229
322.874
324.697
311.383
367.107
367.107
335.534
335.534
369.201
369.201
333.219
333.219
368.501
368.501
368.501
311.369
311.476
364.165
364.165
364.165
364.773
364.773
364.773
363.719
355.708
335.096
363.719
361.709
311.133
361.709
361.709
330.537
331.045
321.627
333.046
333.046
368.099
368.099
368.099
309.691
355.708
333.589
367.182
367.182
309.762
367.182
331.32
321.455
309.743
314.455
314.661
317.353
311.425
317.107
314.654
309.708
310.443
364.756
364.756
362.079
362.079
337.406
337.406
359.773
359.773
359.773
335.779
335.779
310.358
314.978
315.142
317.074
315.171
314.91
317.08
312.925
317.079
315.403
312.909
357.981
317.125
315.594
311.904
366.92
366.92
366.92
334.506
334.506
309.613
315.462
315.468
316.612
366.388
313.02
316.525
315.436
357.981
366.388
334.579
311.777
334.579
310.045
310.003
317.056
311.494
314.606
314.537
314.715
311.365
310.097
365.621
357.911
365.621
365.621
357.911
357.911
365.17
364.093
335.362
361.426
310.438
365.17
361.426
361.426
316.601
312.394
315.401
316.884
312.676
367.319
315.063
315.417
315.589
312.987
359.362
356.529
315.448
315.413
312.987
358.163
362.205
333.762
366.709
310.102
359.362
366.709
366.709
316.891
313.058
366.138
315.421
315.258
315.303
366.272
313.017
365.805
334.924
358.163
334.924
366.272
358.163
366.272
309.635
322.669
323.738
324.164
336.22
359.872
336.22
359.872
359.872
310.289
364.093
361.177
335.108
361.177
310.396
361.177
325.111
324.834
310.655
365.341
333.829
365.341
365.341
333.829
310.863
314.87
315.198
316.998
365.857
367.319
333.984
311.168
365.857
333.984
310.879
356.529
363.349
334.346
363.349
310.682
363.349
317.129
359.079
313.091
315.481
361.994
358.469
362.205
335.111
362.205
361.994
335.111
361.994
320.818
330.612
366.138
334.191
309.805
359.079
334.191
312.043
365.805
358.469
365.805
335.103
358.469
335.103
)
;
        refGradient     uniform 0;
        valueFraction   nonuniform List<scalar> 
360
(
0.000131132
0.000125803
8.05406e-05
0.000287727
0.00029509
0.000169207
0.000296924
0.000254869
0.000396717
0.00012631
0.00012315
0.000165209
0.000251787
7.19907e-05
0.000128781
0.000250339
0.000286882
0.000268049
0.000376134
6.58752e-05
0.000246964
0.000121409
0.000111897
0.000296941
8.62122e-05
0.00030522
0.000172046
0.000301279
0.000394283
0.000263747
0.000301329
0.000303925
8.16093e-05
8.06976e-05
0.000169347
0.000166654
0.000282
0.000382307
0.000262524
0.000394729
0.000389908
8.32555e-05
0.000165138
0.000120525
0.000120381
0.000169997
0.000254334
6.78549e-05
0.000121414
0.000257457
0.0001677
0.00016879
0.000251599
0.000249154
7.03912e-05
0.000128772
0.000262602
6.74329e-05
0.000167054
0.000249115
6.60048e-05
0.000293272
0.000258888
0.000405191
6.80488e-05
0.000264703
0.000123472
0.000119423
0.000300049
0.000391426
0.0002633
0.00037746
0.000382744
7.3098e-05
0.000255197
0.000129462
6.73944e-05
0.000120849
0.00038193
0.000396758
0.000118529
0.000116293
0.000114224
6.78849e-05
8.18627e-05
0.000165967
0.000166896
0.000252748
7.6294e-05
6.44188e-05
8.10177e-05
0.000252336
0.00016658
8.27603e-05
0.000251919
0.000168482
0.000167485
0.000167743
8.17989e-05
6.55664e-05
6.64862e-05
6.56013e-05
0.000168649
0.000165759
0.000252145
7.42345e-05
6.44802e-05
0.000251962
8.0043e-05
0.000166019
0.000166051
0.000169438
8.2853e-05
6.63446e-05
6.47034e-05
6.59534e-05
0.000114803
0.00011494
0.000119406
0.000129478
0.000121691
0.000251445
0.00039611
0.000264915
0.000399752
0.00025624
0.000393953
0.00029332
0.000256447
0.000385377
0.000288872
0.000117826
0.000111427
0.00011413
6.30033e-05
0.000261297
0.000393418
0.000121721
0.000122277
0.000397584
0.000264343
0.000127598
0.000134482
0.00039269
0.00026976
0.000310845
6.93391e-05
6.45272e-05
0.000272359
0.000377421
0.000299163
0.000280428
0.000390488
0.000299131
0.000308845
0.000284485
0.000133074
0.000396651
0.000256213
7.14323e-05
0.000385519
0.000288495
0.000110095
0.000115991
0.000114748
0.000121053
0.000126539
0.000394667
0.000259865
0.000305028
7.31358e-05
0.000379655
0.00013018
0.000399215
0.000255562
7.14378e-05
0.000303022
0.000111073
0.000112104
6.54978e-05
0.000171678
0.00017161
0.000253755
8.4619e-05
0.000254138
0.000167218
6.48252e-05
6.29475e-05
0.000397123
0.000252327
0.000392462
0.000261657
0.000124809
0.00011672
0.000394293
0.000246427
0.000284847
0.000115373
0.000133869
6.73479e-05
0.000168661
0.000168508
0.000251765
0.000164848
0.000165696
0.000250774
8.59526e-05
0.000251634
0.000170616
8.35866e-05
0.00028323
0.000251355
0.000169594
6.75877e-05
0.000385674
0.000250025
0.000292532
0.000121872
0.000113255
6.54193e-05
0.000167349
0.000170163
0.000252301
0.000286853
8.02268e-05
0.000249907
0.000163214
0.000248254
0.000262813
0.000119299
6.70082e-05
0.000132381
6.78367e-05
6.38554e-05
0.000255118
8.51378e-05
0.000171511
0.000169528
0.000167507
8.40676e-05
6.42159e-05
0.000260846
0.000244419
0.000410328
0.000305426
0.000382813
0.00027505
0.000294804
0.000301838
0.000134165
0.000258939
6.97634e-05
0.000394043
0.000383148
0.000291111
0.000253905
8.09032e-05
0.00016521
0.000250986
8.16279e-05
0.000299069
0.000165926
0.000167111
0.000165572
8.11332e-05
0.000296837
0.000278162
0.000168924
0.000164557
8.26954e-05
0.00027871
0.000306786
0.000121665
0.000275393
6.54046e-05
0.000392354
0.000380387
0.000287424
0.000249124
8.18383e-05
0.000287876
0.000165762
0.000166017
0.000166962
0.000289443
8.26051e-05
0.000295726
0.000124434
0.000254971
0.000125472
0.000259823
0.000395954
0.000388713
6.53741e-05
0.000131004
0.000129457
0.000126621
0.00011531
0.000385793
0.000125942
0.000256477
0.000302016
6.44214e-05
0.000389558
0.000389088
0.000127371
0.00027665
6.75111e-05
0.00029659
0.000112923
0.000110934
6.74554e-05
0.000381553
0.00011403
0.000250225
0.000294701
0.000122251
6.66436e-05
0.000165826
0.00016577
0.000250143
0.000286227
0.000248261
0.000120029
6.46093e-05
0.00025242
0.000133312
7.46193e-05
0.000365793
0.000392788
0.000116086
0.00024951
6.91759e-05
0.000313797
0.00025206
0.000302
8.26146e-05
0.000166539
0.000291166
0.00028228
0.000265564
0.000118699
0.000389009
0.000388172
0.000140905
0.000259471
0.00011416
0.000115911
0.000261216
0.000129306
6.99125e-05
0.000264187
0.000124511
6.45634e-05
0.000384507
0.000389123
0.000256029
0.00012425
0.000251492
0.000128348
)
;
        value           nonuniform List<scalar> 
360
(
486.006
486.007
486.01
485.988
485.989
486.026
485.988
485.995
485.981
486.005
486.005
486.025
486.028
486.013
486.007
485.995
485.982
485.989
485.977
486.013
485.993
486.006
485.992
485.987
486.009
485.987
486.026
485.988
485.979
485.993
485.987
485.985
486.008
486.008
486.025
486.026
485.985
485.978
485.99
485.976
485.979
486.009
486.027
486.006
486.007
486.025
486.028
486.012
486.006
485.993
486.027
486.026
486.029
486.029
486.01
486.003
485.989
486.012
486.026
486.029
486.013
485.988
485.992
485.979
486.013
485.993
486.006
485.99
485.991
485.985
485.996
485.983
485.982
486.016
485.996
486.01
486.012
485.993
485.981
485.976
485.993
485.993
485.994
486.013
486.012
486.026
486.026
486.028
486.009
486.012
486.009
486.028
486.027
486.007
486.028
486.025
486.025
486.025
486.007
486.014
486.014
486.014
486.027
486.027
486.028
486.012
486.012
486.027
486.005
486.024
486.027
486.025
486.007
486.011
486.015
486.015
485.993
485.992
485.992
486.006
486.008
485.994
485.977
485.994
485.978
485.994
485.978
485.987
485.995
485.98
485.989
485.992
485.993
485.993
486.015
485.995
485.982
486.008
486.008
485.982
485.995
486.006
486.005
485.982
485.994
485.985
486.014
486.012
485.99
485.979
485.983
485.989
485.977
485.984
485.984
485.985
486.005
485.977
485.993
486.012
485.977
485.986
485.993
485.992
485.991
486.005
486.005
485.978
485.993
485.987
486.011
485.976
486.004
485.978
485.993
486.011
485.987
485.992
485.991
486.012
486.026
486.025
486.028
486.01
486.029
486.027
486.014
486.013
485.978
485.993
485.978
485.992
486.005
486.007
485.977
485.994
485.986
486.008
486.005
486.014
486.026
486.026
486.029
486.027
486.027
486.029
486.006
486.028
486.024
486.007
485.985
486.028
486.025
486.012
485.981
485.994
485.989
486.005
486.007
486.013
486.026
486.026
486.028
485.988
486.009
486.029
486.027
485.991
485.992
486.005
486.011
486.003
486.011
486.012
486.028
486.008
486.025
486.025
486.026
486.006
486.014
485.992
485.994
485.98
485.986
485.98
485.991
485.985
485.984
486.004
485.992
486.012
485.977
485.977
485.988
486.029
486.012
486.029
486.029
486.01
485.988
486.027
486.026
486.029
486.009
485.985
485.987
486.025
486.026
486.007
485.986
485.983
486.006
485.991
486.013
485.977
485.982
485.989
486.029
486.009
485.989
486.027
486.027
486.028
485.991
486.012
485.99
486.005
485.992
486.006
485.993
485.977
485.981
486.012
485.993
485.993
485.994
486.006
485.979
486.005
485.992
485.988
486.013
485.978
485.977
486.004
485.989
486.012
485.985
485.991
485.992
486.015
485.985
486.01
485.997
485.991
486.009
486.016
486.027
486.028
486.029
485.987
485.996
486.007
486.014
485.994
486.004
486.011
485.98
485.98
486.007
485.994
486.013
485.982
486.028
485.982
486.006
486.025
485.985
485.985
485.99
486.005
485.977
485.977
486.001
485.99
485.993
485.994
485.994
486.005
486.013
485.99
486.005
486.013
485.981
485.978
485.994
486.006
485.991
486.004
)
;
        Tnbr            T;
        thicknessLayers 0();
        kappaLayers     0();
        kappaMethod     solidThermo;
        kappa           none;
        alphaAni        none;
    }
}


// ************************************************************************* //
