/*--------------------------------*- C++ -*----------------------------------*\
| =========                 |                                                 |
| \\      /  F ield         | OpenFOAM: The Open Source CFD Toolbox           |
|  \\    /   O peration     | Version:  v1906                                 |
|   \\  /    A nd           | Web:      www.OpenFOAM.com                      |
|    \\/     M anipulation  |                                                 |
\*---------------------------------------------------------------------------*/
FoamFile
{
    version     2.0;
    format      ascii;
    class       volVectorField;
    location    "90.8/oil";
    object      U;
}
// * * * * * * * * * * * * * * * * * * * * * * * * * * * * * * * * * * * * * //

dimensions      [0 1 -1 0 0 0 0];


internalField   nonuniform List<vector> 
27760
(
(-2.35523e-05 -2.39898e-05 -2.35523e-05)
(-4.64866e-05 -1.79922e-05 -1.69734e-05)
(-3.38014e-06 -4.65637e-06 -4.65727e-06)
(-5.48413e-06 -7.47239e-07 -8.7084e-07)
(-1.04904e-06 -2.26442e-07 -3.7182e-07)
(-2.89758e-07 -8.06195e-08 -2.4045e-07)
(3.94638e-07 8.79826e-09 -1.63632e-07)
(7.50315e-07 4.89381e-08 -1.32727e-07)
(9.50731e-07 7.29255e-08 -1.14566e-07)
(1.02581e-06 8.87101e-08 -1.01613e-07)
(9.97023e-07 1.00126e-07 -9.07154e-08)
(8.77723e-07 1.09036e-07 -8.08513e-08)
(6.82669e-07 1.157e-07 -7.27263e-08)
(4.293e-07 1.20217e-07 -6.68512e-08)
(1.38808e-07 1.22568e-07 -6.37126e-08)
(-1.65184e-07 1.22711e-07 -6.35697e-08)
(-4.58356e-07 1.20686e-07 -6.63775e-08)
(-7.17716e-07 1.16652e-07 -7.17715e-08)
(-9.23615e-07 1.10811e-07 -7.90667e-08)
(-1.06149e-06 1.03433e-07 -8.73525e-08)
(-1.12312e-06 9.48999e-08 -9.53796e-08)
(-1.1067e-06 8.56158e-08 -1.01708e-07)
(-1.01785e-06 7.53605e-08 -1.0556e-07)
(-8.6914e-07 6.46971e-08 -1.05512e-07)
(-6.78646e-07 5.39043e-08 -1.00544e-07)
(-4.69692e-07 4.34937e-08 -9.004e-08)
(-2.69276e-07 3.45071e-08 -7.41828e-08)
(-1.06274e-07 2.87585e-08 -5.44466e-08)
(-5.68499e-09 2.83071e-08 -3.45581e-08)
(1.4517e-08 2.84359e-08 -1.44932e-08)
(-1.70833e-05 -4.77475e-05 -1.70833e-05)
(-5.57236e-06 -6.21188e-06 -7.65335e-06)
(-7.45803e-06 -7.54613e-06 -2.68241e-06)
(-3.2262e-06 -2.23322e-06 -7.80517e-07)
(-8.93785e-07 -1.3828e-06 -4.01404e-07)
(3.12772e-07 -7.68399e-07 -2.117e-07)
(1.20572e-06 -4.83602e-07 -1.18293e-07)
(1.76201e-06 -3.07529e-07 -7.04531e-08)
(2.08419e-06 -1.83296e-07 -3.94276e-08)
(2.19288e-06 -8.30869e-08 -1.57761e-08)
(2.10673e-06 2.05421e-09 4.57881e-09)
(1.84356e-06 7.42682e-08 2.22656e-08)
(1.42858e-06 1.31838e-07 3.67399e-08)
(8.96027e-07 1.72404e-07 4.71411e-08)
(2.88284e-07 1.93822e-07 5.2681e-08)
(-3.46857e-07 1.94995e-07 5.29538e-08)
(-9.59907e-07 1.76199e-07 4.80393e-08)
(-1.50409e-06 1.39138e-07 3.84997e-08)
(-1.93942e-06 8.69562e-08 2.54453e-08)
(-2.23611e-06 2.38092e-08 1.03228e-08)
(-2.37722e-06 -4.53374e-08 -5.18144e-09)
(-2.3599e-06 -1.15082e-07 -1.92497e-08)
(-2.19532e-06 -1.80367e-07 -3.00953e-08)
(-1.90802e-06 -2.35437e-07 -3.63913e-08)
(-1.53424e-06 -2.74473e-07 -3.7078e-08)
(-1.11911e-06 -2.90926e-07 -3.18049e-08)
(-7.13025e-07 -2.77017e-07 -2.14124e-08)
(-3.66357e-07 -2.24336e-07 -8.4896e-09)
(-1.20943e-07 -1.27307e-07 1.56261e-09)
(-4.05692e-09 -9.72006e-09 4.09279e-09)
(-4.71948e-06 -4.52388e-06 -4.71947e-06)
(-7.35266e-06 -8.5757e-06 -2.71917e-06)
(-3.64056e-06 -5.02153e-06 -1.18784e-06)
(-1.82533e-06 -3.08319e-06 -5.51217e-07)
(-1.00397e-07 -2.28025e-06 -2.49808e-07)
(1.07083e-06 -1.74825e-06 -1.01701e-07)
(1.96988e-06 -1.42587e-06 -2.27953e-08)
(2.57708e-06 -1.17886e-06 2.3032e-08)
(2.92942e-06 -9.67113e-07 5.56631e-08)
(3.02859e-06 -7.7299e-07 8.22386e-08)
(2.88332e-06 -5.94727e-07 1.05653e-07)
(2.51022e-06 -4.3749e-07 1.26132e-07)
(1.93931e-06 -3.09172e-07 1.42925e-07)
(1.21422e-06 -2.17666e-07 1.5496e-07)
(3.90251e-07 -1.69121e-07 1.6138e-07)
(-4.69604e-07 -1.66673e-07 1.61692e-07)
(-1.30005e-06 -2.09845e-07 1.55962e-07)
(-2.03913e-06 -2.94445e-07 1.44877e-07)
(-2.63391e-06 -4.12756e-07 1.29565e-07)
(-3.04509e-06 -5.54304e-07 1.11625e-07)
(-3.25023e-06 -7.06672e-07 9.28486e-08)
(-3.2454e-06 -8.56276e-07 7.50896e-08)
(-3.04509e-06 -9.8893e-07 6.00361e-08)
(-2.68097e-06 -1.09039e-06 4.90047e-08)
(-2.19887e-06 -1.14588e-06 4.27701e-08)
(-1.65507e-06 -1.1399e-06 4.12885e-08)
(-1.11098e-06 -1.05574e-06 4.32765e-08)
(-6.25707e-07 -8.76616e-07 4.55381e-08)
(-2.50774e-07 -5.8894e-07 4.20809e-08)
(-2.32533e-08 -2.06337e-07 2.32945e-08)
(-8.37807e-07 -6.64857e-06 -8.37795e-07)
(-1.81124e-06 -5.41559e-06 -7.40482e-07)
(-1.27169e-06 -4.80876e-06 -5.1882e-07)
(-2.7985e-07 -3.94925e-06 -2.47051e-07)
(9.05322e-07 -3.47032e-06 -8.74904e-08)
(1.9052e-06 -3.09249e-06 4.5534e-09)
(2.73406e-06 -2.78926e-06 6.17926e-08)
(3.32764e-06 -2.49851e-06 1.00765e-07)
(3.66804e-06 -2.20654e-06 1.31971e-07)
(3.73572e-06 -1.9134e-06 1.59379e-07)
(3.5276e-06 -1.63044e-06 1.84353e-07)
(3.0568e-06 -1.3739e-06 2.06509e-07)
(2.35529e-06 -1.16129e-06 2.24773e-07)
(1.47295e-06 -1.00848e-06 2.37898e-07)
(4.74391e-07 -9.27192e-07 2.44888e-07)
(-5.66116e-07 -9.23503e-07 2.45201e-07)
(-1.57124e-06 -9.96808e-07 2.389e-07)
(-2.46759e-06 -1.13966e-06 2.26677e-07)
(-3.19239e-06 -1.33844e-06 2.09764e-07)
(-3.6991e-06 -1.57443e-06 1.89818e-07)
(-3.96109e-06 -1.82535e-06 1.68688e-07)
(-3.97352e-06 -2.06682e-06 1.48229e-07)
(-3.75298e-06 -2.27355e-06 1.30065e-07)
(-3.33555e-06 -2.42004e-06 1.15436e-07)
(-2.77312e-06 -2.4806e-06 1.0493e-07)
(-2.1286e-06 -2.42919e-06 9.82889e-08)
(-1.47013e-06 -2.23881e-06 9.4033e-08)
(-8.62796e-07 -1.88159e-06 8.85448e-08)
(-3.68655e-07 -1.32712e-06 7.52219e-08)
(-3.95586e-08 -5.46049e-07 3.9606e-08)
(-2.58677e-07 -2.69603e-06 -2.58663e-07)
(-7.25257e-07 -4.40125e-06 -2.94344e-07)
(-1.29746e-07 -4.96236e-06 -1.79877e-07)
(7.20235e-07 -4.9811e-06 -5.67767e-08)
(1.72448e-06 -4.91296e-06 2.88346e-08)
(2.65599e-06 -4.74103e-06 8.6041e-08)
(3.45267e-06 -4.50022e-06 1.27613e-07)
(4.03569e-06 -4.19074e-06 1.60826e-07)
(4.35995e-06 -3.82938e-06 1.9071e-07)
(4.39262e-06 -3.43835e-06 2.18907e-07)
(4.12219e-06 -3.04585e-06 2.45509e-07)
(3.55912e-06 -2.68239e-06 2.6951e-07)
(2.73693e-06 -2.37762e-06 2.89446e-07)
(1.71077e-06 -2.15721e-06 3.03827e-07)
(5.53384e-07 -2.03985e-06 3.11478e-07)
(-6.51014e-07 -2.03518e-06 3.11767e-07)
(-1.81442e-06 -2.14253e-06 3.04749e-07)
(-2.85326e-06 -2.35084e-06 2.91162e-07)
(-3.69607e-06 -2.6395e-06 2.72366e-07)
(-4.28989e-06 -2.98018e-06 2.50129e-07)
(-4.60448e-06 -3.33914e-06 2.26431e-07)
(-4.6342e-06 -3.67956e-06 2.03217e-07)
(-4.39719e-06 -3.96328e-06 1.82141e-07)
(-3.93305e-06 -4.15223e-06 1.6442e-07)
(-3.29845e-06 -4.20861e-06 1.50578e-07)
(-2.56164e-06 -4.09464e-06 1.40238e-07)
(-1.7967e-06 -3.77111e-06 1.31791e-07)
(-1.07516e-06 -3.19483e-06 1.21209e-07)
(-4.71029e-07 -2.30802e-06 1.01115e-07)
(-5.26922e-08 -1.00992e-06 5.2749e-08)
(-8.85252e-08 -2.61463e-06 -8.85058e-08)
(1.83901e-08 -4.76176e-06 -6.48065e-08)
(6.294e-07 -5.91857e-06 -3.39619e-09)
(1.46231e-06 -6.47346e-06 5.82757e-08)
(2.41937e-06 -6.72086e-06 1.0733e-07)
(3.34119e-06 -6.72447e-06 1.45448e-07)
(4.13833e-06 -6.54642e-06 1.78161e-07)
(4.72426e-06 -6.22332e-06 2.08583e-07)
(5.03851e-06 -5.7961e-06 2.38787e-07)
(5.0391e-06 -5.30738e-06 2.68934e-07)
(4.70846e-06 -4.80272e-06 2.98191e-07)
(4.05514e-06 -4.32807e-06 3.24974e-07)
(3.11453e-06 -3.92657e-06 3.47387e-07)
(1.94698e-06 -3.63482e-06 3.63603e-07)
(6.33423e-07 -3.47942e-06 3.72218e-07)
(-7.32035e-07 -3.47409e-06 3.72477e-07)
(-2.05073e-06 -3.61817e-06 3.64417e-07)
(-3.22891e-06 -3.8966e-06 3.48874e-07)
(-4.18649e-06 -4.28109e-06 3.27386e-07)
(-4.86423e-06 -4.73269e-06 3.01964e-07)
(-5.22859e-06 -5.20521e-06 2.74833e-07)
(-5.27311e-06 -5.64813e-06 2.48132e-07)
(-5.01772e-06 -6.00949e-06 2.23645e-07)
(-4.50561e-06 -6.23769e-06 2.02679e-07)
(-3.79815e-06 -6.28183e-06 1.85777e-07)
(-2.96922e-06 -6.09106e-06 1.72502e-07)
(-2.09944e-06 -5.61169e-06 1.61106e-07)
(-1.26789e-06 -4.78017e-06 1.47098e-07)
(-5.611e-07 -3.50123e-06 1.22149e-07)
(-6.36055e-08 -1.58002e-06 6.36765e-08)
(1.01271e-08 -2.74676e-06 1.0159e-08)
(3.73229e-07 -5.60516e-06 5.30299e-08)
(1.09229e-06 -7.3284e-06 9.42394e-08)
(2.00028e-06 -8.33026e-06 1.30662e-07)
(2.9992e-06 -8.86143e-06 1.62342e-07)
(3.96284e-06 -9.0282e-06 1.91136e-07)
(4.79376e-06 -8.91408e-06 2.20045e-07)
(5.40174e-06 -8.58188e-06 2.50428e-07)
(5.7175e-06 -8.0932e-06 2.82807e-07)
(5.69262e-06 -7.5095e-06 3.16416e-07)
(5.30515e-06 -6.89353e-06 3.49688e-07)
(4.5625e-06 -6.30715e-06 3.80481e-07)
(3.50226e-06 -5.80757e-06 4.06404e-07)
(2.19062e-06 -5.4432e-06 4.25193e-07)
(7.17185e-07 -5.24911e-06 4.35151e-07)
(-8.13291e-07 -5.24344e-06 4.35375e-07)
(-2.29084e-06 -5.42564e-06 4.25891e-07)
(-3.61088e-06 -5.77633e-06 4.07656e-07)
(-4.68424e-06 -6.25909e-06 3.82459e-07)
(-5.44528e-06 -6.82371e-06 3.52688e-07)
(-5.85706e-06 -7.41069e-06 3.2092e-07)
(-5.91279e-06 -7.95531e-06 2.89609e-07)
(-5.63469e-06 -8.39126e-06 2.60824e-07)
(-5.07002e-06 -8.65278e-06 2.36013e-07)
(-4.28566e-06 -8.67506e-06 2.15808e-07)
(-3.36183e-06 -8.39285e-06 1.99733e-07)
(-2.38657e-06 -7.73533e-06 1.85889e-07)
(-1.44736e-06 -6.61389e-06 1.69267e-07)
(-6.43137e-07 -4.88621e-06 1.40434e-07)
(-7.32195e-08 -2.24446e-06 7.33108e-08)
(5.28648e-08 -3.2733e-06 5.29126e-08)
(5.82813e-07 -6.88698e-06 1.14303e-07)
(1.41661e-06 -9.146e-06 1.50922e-07)
(2.42584e-06 -1.05437e-05 1.78373e-07)
(3.50439e-06 -1.13357e-05 2.03146e-07)
(4.53857e-06 -1.16565e-05 2.28821e-07)
(5.42578e-06 -1.16076e-05 2.57708e-07)
(6.07178e-06 -1.1272e-05 2.90553e-07)
(6.40036e-06 -1.07287e-05 3.27049e-07)
(6.35743e-06 -1.00563e-05 3.65833e-07)
(5.9172e-06 -9.33393e-06 4.04716e-07)
(5.08607e-06 -8.63915e-06 4.40927e-07)
(3.90426e-06 -8.04358e-06 4.71514e-07)
(2.44426e-06 -7.60779e-06 4.93713e-07)
(8.05204e-07 -7.37564e-06 5.05448e-07)
(-8.96547e-07 -7.36994e-06 5.05631e-07)
(-2.53871e-06 -7.59022e-06 4.94279e-07)
(-4.00499e-06 -8.01267e-06 4.72523e-07)
(-5.19636e-06 -8.59231e-06 4.42494e-07)
(-6.04049e-06 -9.26731e-06 4.07043e-07)
(-6.49728e-06 -9.96461e-06 3.69216e-07)
(-6.56011e-06 -1.06049e-05 3.31948e-07)
(-6.25419e-06 -1.11073e-05 2.97697e-07)
(-5.63162e-06 -1.13916e-05 2.68127e-07)
(-4.76582e-06 -1.13787e-05 2.44014e-07)
(-3.74416e-06 -1.09876e-05 2.24848e-07)
(-2.66275e-06 -1.01279e-05 2.08578e-07)
(-1.61786e-06 -8.6813e-06 1.89611e-07)
(-7.20134e-07 -6.45008e-06 1.57332e-07)
(-8.21617e-08 -2.99622e-06 8.22774e-08)
(7.69271e-08 -3.98809e-06 7.69962e-08)
(7.1992e-07 -8.456e-06 1.51889e-07)
(1.6621e-06 -1.12795e-05 1.88629e-07)
(2.77871e-06 -1.30726e-05 2.13519e-07)
(3.95322e-06 -1.41269e-05 2.36507e-07)
(5.07357e-06 -1.46068e-05 2.62635e-07)
(6.03154e-06 -1.4633e-05 2.9413e-07)
(6.72773e-06 -1.43062e-05 3.31523e-07)
(7.07917e-06 -1.37213e-05 3.74024e-07)
(7.02582e-06 -1.29724e-05 4.19739e-07)
(6.53789e-06 -1.21541e-05 4.65887e-07)
(5.62059e-06 -1.13594e-05 5.09027e-07)
(4.31672e-06 -1.0674e-05 5.45551e-07)
(2.7055e-06 -1.01707e-05 5.72059e-07)
(8.96373e-07 -9.90243e-06 5.86018e-07)
(-9.81728e-07 -9.8969e-06 5.86162e-07)
(-2.79306e-06 -1.01537e-05 5.72508e-07)
(-4.40862e-06 -1.06444e-05 5.46348e-07)
(-5.71902e-06 -1.13153e-05 5.10232e-07)
(-6.64498e-06 -1.20927e-05 4.67635e-07)
(-7.14339e-06 -1.28898e-05 4.22231e-07)
(-7.20861e-06 -1.36129e-05 3.77524e-07)
(-6.8697e-06 -1.41669e-05 3.36425e-07)
(-6.18476e-06 -1.44572e-05 3.00951e-07)
(-5.23441e-06 -1.43903e-05 2.72056e-07)
(-4.1138e-06 -1.38686e-05 2.49251e-07)
(-2.92741e-06 -1.27799e-05 2.30275e-07)
(-1.78005e-06 -1.0972e-05 2.08925e-07)
(-7.93138e-07 -8.1838e-06 1.73411e-07)
(-9.07191e-08 -3.83077e-06 9.08632e-08)
(9.20003e-08 -4.8384e-06 9.20956e-08)
(8.2017e-07 -1.02537e-05 1.7737e-07)
(1.85904e-06 -1.36827e-05 2.16173e-07)
(3.07824e-06 -1.58888e-05 2.41516e-07)
(4.35107e-06 -1.72204e-05 2.65532e-07)
(5.56241e-06 -1.78754e-05 2.94415e-07)
(6.59797e-06 -1.79954e-05 3.30553e-07)
(7.35193e-06 -1.76982e-05 3.74342e-07)
(7.73431e-06 -1.70931e-05 4.24721e-07)
(7.6786e-06 -1.62883e-05 4.79258e-07)
(7.14996e-06 -1.53925e-05 5.3452e-07)
(6.15173e-06 -1.45127e-05 5.86303e-07)
(4.72898e-06 -1.37486e-05 6.30166e-07)
(2.96768e-06 -1.31851e-05 6.61975e-07)
(9.88149e-07 -1.28845e-05 6.78692e-07)
(-1.06709e-06 -1.28793e-05 6.78798e-07)
(-3.04805e-06 -1.31692e-05 6.623e-07)
(-4.81211e-06 -1.37211e-05 6.30732e-07)
(-6.23885e-06 -1.44722e-05 5.87171e-07)
(-7.24223e-06 -1.53371e-05 5.35806e-07)
(-7.77685e-06 -1.62154e-05 4.81047e-07)
(-7.8389e-06 -1.69999e-05 4.27182e-07)
(-7.46238e-06 -1.75818e-05 3.77704e-07)
(-6.7124e-06 -1.78535e-05 3.3505e-07)
(-5.67722e-06 -1.77069e-05 3.0036e-07)
(-4.46019e-06 -1.70275e-05 2.73176e-07)
(-3.17379e-06 -1.56798e-05 2.51078e-07)
(-1.9304e-06 -1.34737e-05 2.27225e-07)
(-8.60891e-07 -1.00774e-05 1.88593e-07)
(-9.88359e-08 -4.74366e-06 9.9013e-08)
(1.02635e-07 -5.78785e-06 1.02748e-07)
(8.96404e-07 -1.22335e-05 1.96105e-07)
(2.01635e-06 -1.63121e-05 2.37444e-07)
(3.32528e-06 -1.89587e-05 2.64566e-07)
(4.68833e-06 -2.05919e-05 2.9122e-07)
(5.98624e-06 -2.14478e-05 3.2444e-07)
(7.0988e-06 -2.1691e-05 3.66832e-07)
(7.91356e-06 -2.14551e-05 4.18772e-07)
(8.33317e-06 -2.08624e-05 4.78876e-07)
(8.28373e-06 -2.00332e-05 5.44225e-07)
(7.72432e-06 -1.90881e-05 6.10624e-07)
(6.65526e-06 -1.8147e-05 6.72943e-07)
(5.12295e-06 -1.73223e-05 7.25811e-07)
(3.21961e-06 -1.67108e-05 7.64141e-07)
(1.07662e-06 -1.63837e-05 7.84232e-07)
(-1.14934e-06 -1.63789e-05 7.84306e-07)
(-3.29309e-06 -1.6696e-05 7.64367e-07)
(-5.19783e-06 -1.72972e-05 7.26204e-07)
(-6.73216e-06 -1.81105e-05 6.73536e-07)
(-7.80375e-06 -1.9039e-05 6.11461e-07)
(-8.3659e-06 -1.99699e-05 5.45429e-07)
(-8.41781e-06 -2.07832e-05 4.80562e-07)
(-7.99985e-06 -2.13586e-05 4.21027e-07)
(-7.18486e-06 -2.15767e-05 3.69778e-07)
(-6.06917e-06 -2.13164e-05 3.28217e-07)
(-4.76377e-06 -2.04467e-05 2.95905e-07)
(-3.38816e-06 -1.88071e-05 2.70189e-07)
(-2.06094e-06 -1.61666e-05 2.4367e-07)
(-9.2006e-07 -1.21156e-05 2.02191e-07)
(-1.06149e-07 -5.72812e-06 1.06366e-07)
(1.10105e-07 -6.81162e-06 1.10257e-07)
(9.5071e-07 -1.4354e-05 2.09538e-07)
(2.13046e-06 -1.9121e-05 2.53226e-07)
(3.50774e-06 -2.22377e-05 2.82679e-07)
(4.94265e-06 -2.42028e-05 3.12858e-07)
(6.31295e-06 -2.52943e-05 3.51572e-07)
(7.4939e-06 -2.57006e-05 4.01603e-07)
(8.36732e-06 -2.55703e-05 4.63328e-07)
(8.82827e-06 -2.50365e-05 5.35097e-07)
(8.79497e-06 -2.42285e-05 6.13457e-07)
(8.21913e-06 -2.32761e-05 6.93384e-07)
(7.09638e-06 -2.23094e-05 7.68648e-07)
(5.47269e-06 -2.14521e-05 8.32658e-07)
(3.44536e-06 -2.08114e-05 8.7917e-07)
(1.1563e-06 -2.04673e-05 9.03538e-07)
(-1.2233e-06 -2.04629e-05 9.03578e-07)
(-3.51257e-06 -2.0798e-05 8.79277e-07)
(-5.54031e-06 -2.14294e-05 8.32849e-07)
(-7.16451e-06 -2.22769e-05 7.6898e-07)
(-8.28772e-06 -2.32328e-05 6.93884e-07)
(-8.86387e-06 -2.41735e-05 6.1423e-07)
(-8.89707e-06 -2.49693e-05 5.36199e-07)
(-8.4352e-06 -2.54905e-05 4.64811e-07)
(-7.55929e-06 -2.56085e-05 4.03531e-07)
(-6.37367e-06 -2.51913e-05 3.53992e-07)
(-4.99577e-06 -2.40923e-05 3.15785e-07)
(-3.55016e-06 -2.21258e-05 2.86056e-07)
(-2.1592e-06 -1.90172e-05 2.56852e-07)
(-9.65038e-07 -1.42726e-05 2.12981e-07)
(-1.11996e-07 -6.77219e-06 1.12254e-07)
(1.1444e-07 -7.88379e-06 1.14605e-07)
(9.7924e-07 -1.65655e-05 2.17151e-07)
(2.18931e-06 -2.20484e-05 2.62444e-07)
(3.60297e-06 -2.5662e-05 2.94312e-07)
(5.07967e-06 -2.79919e-05 3.28522e-07)
(6.49703e-06 -2.93607e-05 3.73417e-07)
(7.72831e-06 -2.99804e-05 4.3205e-07)
(8.65143e-06 -3.00134e-05 5.04847e-07)
(9.1549e-06 -2.96005e-05 5.89942e-07)
(9.1488e-06 -2.88764e-05 6.83365e-07)
(8.57628e-06 -2.79763e-05 7.79245e-07)
(7.42603e-06 -2.70362e-05 8.70139e-07)
(5.74121e-06 -2.61874e-05 9.47808e-07)
(3.62202e-06 -2.55457e-05 1.0045e-06)
(1.2194e-06 -2.51991e-05 1.03429e-06)
(-1.28146e-06 -2.51951e-05 1.03429e-06)
(-3.68385e-06 -2.55336e-05 1.00451e-06)
(-5.80261e-06 -2.6167e-05 9.47846e-07)
(-7.48669e-06 -2.70071e-05 8.70239e-07)
(-8.63589e-06 -2.79381e-05 7.79475e-07)
(-9.2071e-06 -2.88289e-05 6.83782e-07)
(-9.21146e-06 -2.95435e-05 5.90561e-07)
(-8.7055e-06 -2.99472e-05 5.05766e-07)
(-7.77871e-06 -2.99056e-05 4.33278e-07)
(-6.54221e-06 -2.9279e-05 3.74978e-07)
(-5.11775e-06 -2.79065e-05 3.30376e-07)
(-3.63225e-06 -2.55778e-05 2.96402e-07)
(-2.20835e-06 -2.19725e-05 2.64638e-07)
(-9.88202e-07 -1.65075e-05 2.19182e-07)
(-1.15477e-07 -7.85673e-06 1.15785e-07)
(1.14821e-07 -8.97235e-06 1.1503e-07)
(9.74434e-07 -1.88033e-05 2.17429e-07)
(2.17508e-06 -2.50118e-05 2.63134e-07)
(3.58067e-06 -2.91404e-05 2.96974e-07)
(5.05541e-06 -3.18664e-05 3.35163e-07)
(6.4812e-06 -3.35579e-05 3.86379e-07)
(7.73315e-06 -3.44503e-05 4.53865e-07)
(8.68831e-06 -3.47177e-05 5.38291e-07)
(9.23093e-06 -3.4505e-05 6.3779e-07)
(9.26338e-06 -3.39469e-05 7.47995e-07)
(8.71977e-06 -3.31788e-05 8.62153e-07)
(7.57946e-06 -3.23371e-05 9.71414e-07)
(5.87934e-06 -3.15557e-05 1.06565e-06)
(3.71897e-06 -3.09546e-05 1.1351e-06)
(1.25556e-06 -3.06267e-05 1.17185e-06)
(-1.3134e-06 -3.0623e-05 1.17183e-06)
(-3.77625e-06 -3.09436e-05 1.13503e-06)
(-5.93552e-06 -3.15373e-05 1.06556e-06)
(-7.63402e-06 -3.23112e-05 9.71327e-07)
(-8.77235e-06 -3.31452e-05 8.62144e-07)
(-9.31355e-06 -3.39058e-05 7.48188e-07)
(-9.27809e-06 -3.44564e-05 6.3815e-07)
(-8.73204e-06 -3.46625e-05 5.38864e-07)
(-7.77264e-06 -3.43892e-05 4.54633e-07)
(-6.51543e-06 -3.34925e-05 3.87342e-07)
(-5.08338e-06 -3.17995e-05 3.36318e-07)
(-3.60142e-06 -2.9076e-05 2.98293e-07)
(-2.18807e-06 -2.49549e-05 2.64518e-07)
(-9.8024e-07 -1.87608e-05 2.18679e-07)
(-1.15413e-07 -8.95303e-06 1.15765e-07)
(1.10141e-07 -1.00354e-05 1.10366e-07)
(9.26951e-07 -2.09823e-05 2.08129e-07)
(2.06673e-06 -2.79006e-05 2.52436e-07)
(3.4057e-06 -3.25486e-05 2.87274e-07)
(4.81958e-06 -3.56951e-05 3.28626e-07)
(6.19972e-06 -3.77541e-05 3.85243e-07)
(7.42851e-06 -3.89831e-05 4.60719e-07)
(8.38661e-06 -3.95647e-05 5.55976e-07)
(8.95761e-06 -3.96441e-05 6.69235e-07)
(9.03841e-06 -3.93516e-05 7.96034e-07)
(8.55388e-06 -3.88152e-05 9.28914e-07)
(7.47234e-06 -3.81645e-05 1.05773e-06)
(5.82105e-06 -3.75284e-05 1.17028e-06)
(3.69428e-06 -3.70244e-05 1.25427e-06)
(1.25036e-06 -3.67449e-05 1.29915e-06)
(-1.30476e-06 -3.67416e-05 1.2991e-06)
(-3.74786e-06 -3.70144e-05 1.25413e-06)
(-5.87307e-06 -3.75118e-05 1.17009e-06)
(-7.52205e-06 -3.81413e-05 1.05755e-06)
(-8.60073e-06 -3.87854e-05 9.28774e-07)
(-9.08208e-06 -3.93157e-05 7.9599e-07)
(-8.99775e-06 -3.96025e-05 6.6932e-07)
(-8.42279e-06 -3.95182e-05 5.56236e-07)
(-7.46021e-06 -3.89327e-05 4.61155e-07)
(-6.22635e-06 -3.77012e-05 3.85844e-07)
(-4.8406e-06 -3.56421e-05 3.29353e-07)
(-3.4207e-06 -3.24982e-05 2.88084e-07)
(-2.07578e-06 -2.78571e-05 2.53305e-07)
(-9.30781e-07 -2.09502e-05 2.08934e-07)
(-1.10467e-07 -1.00211e-05 1.10864e-07)
(9.91662e-08 -1.10201e-05 9.94058e-08)
(8.27067e-07 -2.2995e-05 1.86958e-07)
(1.84292e-06 -3.05751e-05 2.27496e-07)
(3.04283e-06 -3.57253e-05 2.61632e-07)
(4.32162e-06 -3.93031e-05 3.0442e-07)
(5.58613e-06 -4.17657e-05 3.64296e-07)
(6.73242e-06 -4.33908e-05 4.4501e-07)
(7.65068e-06 -4.43669e-05 5.47881e-07)
(8.2288e-06 -4.48353e-05 6.7158e-07)
(8.36247e-06 -4.49162e-05 8.11875e-07)
(7.96945e-06 -4.47235e-05 9.60975e-07)
(7.00669e-06 -4.43711e-05 1.10758e-06)
(5.48824e-06 -4.39731e-05 1.23746e-06)
(3.4973e-06 -4.3635e-05 1.33575e-06)
(1.18633e-06 -4.34406e-05 1.38891e-06)
(-1.23781e-06 -4.34376e-05 1.38886e-06)
(-3.54774e-06 -4.36259e-05 1.33563e-06)
(-5.53677e-06 -4.39582e-05 1.23725e-06)
(-7.05251e-06 -4.43503e-05 1.10732e-06)
(-8.01208e-06 -4.46972e-05 9.60747e-07)
(-8.40139e-06 -4.4885e-05 8.11758e-07)
(-8.26368e-06 -4.47997e-05 6.71564e-07)
(-7.68125e-06 -4.43275e-05 5.47964e-07)
(-6.75846e-06 -4.33486e-05 4.45223e-07)
(-5.60736e-06 -4.17222e-05 3.64633e-07)
(-4.33788e-06 -3.92602e-05 3.04872e-07)
(-3.05405e-06 -3.56852e-05 2.62168e-07)
(-1.84943e-06 -3.0541e-05 2.28057e-07)
(-8.29667e-07 -2.29701e-05 1.87507e-07)
(-9.93274e-08 -1.10091e-05 9.97664e-08)
(8.0777e-08 -1.18633e-05 8.1018e-08)
(6.66782e-07 -2.47136e-05 1.5182e-07)
(1.48635e-06 -3.28674e-05 1.85585e-07)
(2.46334e-06 -3.84744e-05 2.16627e-07)
(3.5195e-06 -4.24717e-05 2.57949e-07)
(4.58381e-06 -4.53553e-05 3.17144e-07)
(5.57282e-06 -4.74193e-05 3.98032e-07)
(6.39347e-06 -4.88557e-05 5.0231e-07)
(6.94522e-06 -4.97981e-05 6.29193e-07)
(7.1284e-06 -5.03516e-05 7.7486e-07)
(6.85795e-06 -5.06089e-05 9.31749e-07)
(6.08108e-06 -5.06599e-05 1.08825e-06)
(4.79719e-06 -5.05934e-05 1.22882e-06)
(3.07243e-06 -5.04915e-05 1.33647e-06)
(1.04393e-06 -5.042e-05 1.39529e-06)
(-1.093e-06 -5.04175e-05 1.39522e-06)
(-3.12041e-06 -5.04835e-05 1.33632e-06)
(-4.84299e-06 -5.05801e-05 1.22857e-06)
(-6.12383e-06 -5.06415e-05 1.08799e-06)
(-6.89713e-06 -5.05859e-05 9.3148e-07)
(-7.16353e-06 -5.03244e-05 7.74652e-07)
(-6.97614e-06 -4.97673e-05 6.29027e-07)
(-6.41998e-06 -4.8822e-05 5.02253e-07)
(-5.59481e-06 -4.73837e-05 3.98095e-07)
(-4.60126e-06 -4.5319e-05 3.17292e-07)
(-3.53246e-06 -4.24365e-05 2.58193e-07)
(-2.47195e-06 -3.84419e-05 2.16944e-07)
(-1.4911e-06 -3.28399e-05 1.85934e-07)
(-6.68541e-07 -2.46938e-05 1.522e-07)
(-8.08324e-08 -1.18547e-05 8.1307e-08)
(5.43276e-08 -1.24941e-05 5.46038e-08)
(4.41934e-07 -2.59955e-05 1.01572e-07)
(9.88247e-07 -3.45896e-05 1.25188e-07)
(1.65266e-06 -4.05737e-05 1.50098e-07)
(2.39114e-06 -4.49481e-05 1.86054e-07)
(3.16138e-06 -4.82397e-05 2.3917e-07)
(3.90754e-06 -5.0755e-05 3.12873e-07)
(4.56097e-06 -5.2685e-05 4.09188e-07)
(5.04101e-06 -5.41534e-05 5.27987e-07)
(5.26075e-06 -5.52461e-05 6.66296e-07)
(5.13943e-06 -5.60297e-05 8.17322e-07)
(4.61877e-06 -5.65615e-05 9.6995e-07)
(3.68309e-06 -5.68972e-05 1.10864e-06)
(2.37622e-06 -5.7086e-05 1.21596e-06)
(8.07899e-07 -5.71678e-05 1.27505e-06)
(-8.54842e-07 -5.71658e-05 1.27499e-06)
(-2.42194e-06 -5.70793e-05 1.21582e-06)
(-3.72645e-06 -5.68855e-05 1.10837e-06)
(-4.65896e-06 -5.65455e-05 9.69617e-07)
(-5.17594e-06 -5.60094e-05 8.16948e-07)
(-5.29304e-06 -5.52223e-05 6.66011e-07)
(-5.06894e-06 -5.41265e-05 5.27745e-07)
(-4.58446e-06 -5.26559e-05 4.09055e-07)
(-3.92659e-06 -5.07246e-05 3.1283e-07)
(-3.1761e-06 -4.82091e-05 2.39183e-07)
(-2.40175e-06 -4.49187e-05 1.8616e-07)
(-1.6595e-06 -4.05468e-05 1.50273e-07)
(-9.91857e-07 -3.45671e-05 1.25455e-07)
(-4.43175e-07 -2.59794e-05 1.01856e-07)
(-5.43386e-08 -1.24871e-05 5.48406e-08)
(1.99817e-08 -1.28402e-05 2.02272e-08)
(1.54628e-07 -2.66962e-05 3.63698e-08)
(3.53493e-07 -3.55501e-05 4.63443e-08)
(6.18053e-07 -4.17929e-05 6.16766e-08)
(9.45252e-07 -4.64646e-05 8.76637e-08)
(1.32669e-06 -5.01114e-05 1.28085e-07)
(1.74124e-06 -5.30463e-05 1.85805e-07)
(2.15252e-06 -5.54562e-05 2.62717e-07)
(2.50846e-06 -5.74514e-05 3.59276e-07)
(2.74449e-06 -5.90957e-05 4.73679e-07)
(2.7924e-06 -6.04265e-05 6.00439e-07)
(2.59449e-06 -6.14661e-05 7.3044e-07)
(2.12176e-06 -6.22304e-05 8.49961e-07)
(1.39068e-06 -6.27315e-05 9.4334e-07)
(4.71532e-07 -6.29786e-05 9.95139e-07)
(-5.16487e-07 -6.29766e-05 9.9506e-07)
(-1.43427e-06 -6.27252e-05 9.43136e-07)
(-2.16298e-06 -6.22198e-05 8.49608e-07)
(-2.63249e-06 -6.14518e-05 7.30042e-07)
(-2.82648e-06 -6.04084e-05 6.00029e-07)
(-2.77435e-06 -5.90747e-05 4.73279e-07)
(-2.53401e-06 -5.74277e-05 3.58947e-07)
(-2.17371e-06 -5.54309e-05 2.62438e-07)
(-1.75814e-06 -5.30201e-05 1.85638e-07)
(-1.33947e-06 -5.00851e-05 1.28007e-07)
(-9.54234e-07 -4.64396e-05 8.76266e-08)
(-6.23687e-07 -4.17702e-05 6.17419e-08)
(-3.56324e-07 -3.55313e-05 4.64956e-08)
(-1.55472e-07 -2.66828e-05 3.65773e-08)
(-1.99261e-08 -1.28343e-05 2.04449e-08)
(-2.13058e-08 -1.28349e-05 -2.10448e-08)
(-1.85513e-07 -2.66831e-05 -4.16975e-08)
(-3.95992e-07 -3.55732e-05 -4.84721e-08)
(-6.04994e-07 -4.19186e-05 -4.61222e-08)
(-7.69861e-07 -4.67692e-05 -3.47991e-08)
(-8.60812e-07 -5.06748e-05 -1.36711e-08)
(-8.58675e-07 -5.39474e-05 1.89976e-08)
(-7.60173e-07 -5.6766e-05 6.47642e-08)
(-5.80239e-07 -5.92254e-05 1.24629e-07)
(-3.52095e-07 -6.13682e-05 1.98129e-07)
(-1.22223e-07 -6.32014e-05 2.82144e-07)
(5.90053e-08 -6.47116e-05 3.70641e-07)
(1.51612e-07 -6.5876e-05 4.53657e-07)
(1.40161e-07 -6.66701e-05 5.19526e-07)
(4.34513e-08 -6.70724e-05 5.56422e-07)
(-8.6092e-08 -6.70703e-05 5.56301e-07)
(-1.81497e-07 -6.66641e-05 5.19257e-07)
(-1.90544e-07 -6.58663e-05 4.53268e-07)
(-9.47476e-08 -6.46982e-05 3.70163e-07)
(9.02496e-08 -6.31846e-05 2.81695e-07)
(3.24232e-07 -6.1349e-05 1.97679e-07)
(5.56597e-07 -5.92041e-05 1.24246e-07)
(7.40762e-07 -5.67434e-05 6.44377e-08)
(8.43333e-07 -5.39244e-05 1.87692e-08)
(8.49363e-07 -5.0652e-05 -1.38049e-08)
(7.61991e-07 -4.67475e-05 -3.48567e-08)
(6.00234e-07 -4.18992e-05 -4.60949e-08)
(3.93717e-07 -3.55572e-05 -4.83758e-08)
(1.8489e-07 -2.66717e-05 -4.15238e-08)
(2.13772e-08 -1.28299e-05 -2.08525e-08)
(-6.72161e-08 -1.24272e-05 -6.69917e-08)
(-5.59867e-07 -2.58559e-05 -1.28563e-07)
(-1.21969e-06 -3.45249e-05 -1.54402e-07)
(-1.9512e-06 -4.07848e-05 -1.67712e-07)
(-2.66388e-06 -4.566e-05 -1.75003e-07)
(-3.28737e-06 -4.96868e-05 -1.78988e-07)
(-3.75849e-06 -5.31665e-05 -1.79493e-07)
(-4.02894e-06 -5.62666e-05 -1.75339e-07)
(-4.06939e-06 -5.90673e-05 -1.64953e-07)
(-3.87341e-06 -6.15896e-05 -1.47268e-07)
(-3.45785e-06 -6.38142e-05 -1.22385e-07)
(-2.85976e-06 -6.5697e-05 -9.21772e-08)
(-2.12773e-06 -6.7181e-05 -6.09054e-08)
(-1.31194e-06 -6.82098e-05 -3.43482e-08)
(-4.54679e-07 -6.87368e-05 -1.8831e-08)
(4.14781e-07 -6.87349e-05 -1.89411e-08)
(1.27326e-06 -6.82043e-05 -3.46355e-08)
(2.09122e-06 -6.7172e-05 -6.13462e-08)
(2.82626e-06 -6.56844e-05 -9.26481e-08)
(3.42796e-06 -6.37988e-05 -1.22846e-07)
(3.84741e-06 -6.1572e-05 -1.47753e-07)
(4.04733e-06 -5.9048e-05 -1.65377e-07)
(4.0109e-06 -5.62463e-05 -1.75653e-07)
(3.74435e-06 -5.3146e-05 -1.79773e-07)
(3.27686e-06 -4.96668e-05 -1.79167e-07)
(2.65675e-06 -4.56413e-05 -1.75067e-07)
(1.947e-06 -4.0768e-05 -1.67717e-07)
(1.21773e-06 -3.4511e-05 -1.54333e-07)
(5.59397e-07 -2.58461e-05 -1.28391e-07)
(6.73158e-08 -1.24229e-05 -6.67931e-08)
(-1.14498e-07 -1.15919e-05 -1.1428e-07)
(-9.41568e-07 -2.41657e-05 -2.17936e-07)
(-2.05892e-06 -3.23382e-05 -2.63736e-07)
(-3.32586e-06 -3.83038e-05 -2.94309e-07)
(-4.60572e-06 -4.30227e-05 -3.22863e-07)
(-5.7878e-06 -4.69994e-05 -3.55917e-07)
(-6.76305e-06 -5.05162e-05 -3.94967e-07)
(-7.43502e-06 -5.37259e-05 -4.39531e-07)
(-7.72555e-06 -5.6694e-05 -4.87471e-07)
(-7.58299e-06 -5.94236e-05 -5.3588e-07)
(-6.98931e-06 -6.18758e-05 -5.81439e-07)
(-5.96322e-06 -6.39828e-05 -6.20779e-07)
(-4.55952e-06 -6.56634e-05 -6.51514e-07)
(-2.86477e-06 -6.68389e-05 -6.72145e-07)
(-9.8783e-07 -6.74441e-05 -6.82331e-07)
(9.51168e-07 -6.74423e-05 -6.82411e-07)
(2.82918e-06 -6.68337e-05 -6.72333e-07)
(4.526e-06 -6.56548e-05 -6.51819e-07)
(5.9323e-06 -6.39708e-05 -6.21167e-07)
(6.96157e-06 -6.18613e-05 -5.81827e-07)
(7.55869e-06 -5.94071e-05 -5.36248e-07)
(7.70488e-06 -5.66762e-05 -4.87823e-07)
(7.4181e-06 -5.37077e-05 -4.39804e-07)
(6.74977e-06 -5.04978e-05 -3.95206e-07)
(5.77795e-06 -4.69816e-05 -3.56093e-07)
(4.59907e-06 -4.30063e-05 -3.22977e-07)
(3.32195e-06 -3.82894e-05 -2.94344e-07)
(2.0571e-06 -3.23264e-05 -2.63683e-07)
(9.41127e-07 -2.41573e-05 -2.17772e-07)
(1.14589e-07 -1.15882e-05 -1.14088e-07)
(-1.58741e-07 -1.03376e-05 -1.58548e-07)
(-1.29584e-06 -2.16324e-05 -3.0155e-07)
(-2.83937e-06 -2.9036e-05 -3.66414e-07)
(-4.61087e-06 -3.44935e-05 -4.14126e-07)
(-6.43278e-06 -3.88634e-05 -4.64449e-07)
(-8.15677e-06 -4.26005e-05 -5.27761e-07)
(-9.62932e-06 -4.59603e-05 -6.0725e-07)
(-1.07053e-05 -4.90788e-05 -7.03115e-07)
(-1.12565e-05 -5.20082e-05 -8.12861e-07)
(-1.11846e-05 -5.47403e-05 -9.31551e-07)
(-1.04335e-05 -5.72232e-05 -1.05209e-06)
(-9.00114e-06 -5.93764e-05 -1.16563e-06)
(-6.94681e-06 -6.11061e-05 -1.26263e-06)
(-4.39219e-06 -6.23211e-05 -1.33363e-06)
(-1.51257e-06 -6.29484e-05 -1.37114e-06)
(1.47998e-06 -6.29465e-05 -1.37121e-06)
(4.36035e-06 -6.23156e-05 -1.33381e-06)
(6.9165e-06 -6.10974e-05 -1.26286e-06)
(8.97294e-06 -5.93649e-05 -1.1659e-06)
(1.0408e-05 -5.72096e-05 -1.05239e-06)
(1.1162e-05 -5.47251e-05 -9.3183e-07)
(1.12372e-05 -5.19921e-05 -8.13121e-07)
(1.06893e-05 -4.90624e-05 -7.03364e-07)
(9.61661e-06 -4.5944e-05 -6.07452e-07)
(8.14735e-06 -4.25849e-05 -5.27914e-07)
(6.42636e-06 -3.88492e-05 -4.64552e-07)
(4.60706e-06 -3.44812e-05 -4.14107e-07)
(2.8377e-06 -2.9026e-05 -3.66339e-07)
(1.29546e-06 -2.16254e-05 -3.01393e-07)
(1.58836e-07 -1.03345e-05 -1.58356e-07)
(-1.94655e-07 -8.71593e-06 -1.94488e-07)
(-1.58261e-06 -1.83598e-05 -3.69351e-07)
(-3.47655e-06 -2.47503e-05 -4.49792e-07)
(-5.67277e-06 -2.95e-05 -5.12147e-07)
(-7.9626e-06 -3.33333e-05 -5.81972e-07)
(-1.0165e-05 -3.66413e-05 -6.73043e-07)
(-1.2086e-05 -3.9647e-05 -7.90349e-07)
(-1.35351e-05 -4.2468e-05 -9.34808e-07)
(-1.43368e-05 -4.51463e-05 -1.10335e-06)
(-1.43474e-05 -4.76676e-05 -1.2891e-06)
(-1.34743e-05 -4.99763e-05 -1.4814e-06)
(-1.16946e-05 -5.19899e-05 -1.666e-06)
(-9.06993e-06 -5.36139e-05 -1.82632e-06)
(-5.75297e-06 -5.47578e-05 -1.94541e-06)
(-1.98012e-06 -5.53489e-05 -2.0091e-06)
(1.95199e-06 -5.53472e-05 -2.00911e-06)
(5.72529e-06 -5.47527e-05 -1.94546e-06)
(9.04329e-06 -5.36059e-05 -1.8264e-06)
(1.16695e-05 -5.19792e-05 -1.66609e-06)
(1.34511e-05 -4.99638e-05 -1.48151e-06)
(1.43265e-05 -4.76538e-05 -1.2892e-06)
(1.43186e-05 -4.51319e-05 -1.10348e-06)
(1.35199e-05 -4.24535e-05 -9.3493e-07)
(1.20738e-05 -3.96329e-05 -7.90444e-07)
(1.01559e-05 -3.6628e-05 -6.73109e-07)
(7.95635e-06 -3.33212e-05 -5.82048e-07)
(5.66904e-06 -2.94896e-05 -5.12133e-07)
(3.47484e-06 -2.47419e-05 -4.49709e-07)
(1.58218e-06 -1.8354e-05 -3.69187e-07)
(1.94735e-07 -8.71343e-06 -1.943e-07)
(-2.1618e-07 -6.82645e-06 -2.16031e-07)
(-1.75822e-06 -1.4544e-05 -4.09669e-07)
(-3.8815e-06 -1.97315e-05 -4.99018e-07)
(-6.37406e-06 -2.36088e-05 -5.7034e-07)
(-9.00907e-06 -2.67447e-05 -6.53694e-07)
(-1.15797e-05 -2.94573e-05 -7.65629e-07)
(-1.38581e-05 -3.19332e-05 -9.12789e-07)
(-1.56149e-05 -3.42712e-05 -1.09666e-06)
(-1.66344e-05 -3.65063e-05 -1.31373e-06)
(-1.67341e-05 -3.86235e-05 -1.55544e-06)
(-1.57896e-05 -4.05719e-05 -1.80796e-06)
(-1.37591e-05 -4.22775e-05 -2.05235e-06)
(-1.07049e-05 -4.36565e-05 -2.26611e-06)
(-6.80393e-06 -4.46289e-05 -2.42576e-06)
(-2.34141e-06 -4.51318e-05 -2.51144e-06)
(2.3181e-06 -4.51303e-05 -2.51139e-06)
(6.78078e-06 -4.46244e-05 -2.42568e-06)
(1.06822e-05 -4.36495e-05 -2.26602e-06)