/*--------------------------------*- C++ -*----------------------------------*\
| =========                 |                                                 |
| \\      /  F ield         | OpenFOAM: The Open Source CFD Toolbox           |
|  \\    /   O peration     | Version:  v1906                                 |
|   \\  /    A nd           | Web:      www.OpenFOAM.com                      |
|    \\/     M anipulation  |                                                 |
\*---------------------------------------------------------------------------*/
FoamFile
{
    version     2.0;
    format      ascii;
    class       volScalarField;
    location    "37.4/sphere";
    object      T;
}
// * * * * * * * * * * * * * * * * * * * * * * * * * * * * * * * * * * * * * //

dimensions      [0 0 0 1 0 0 0];


internalField   nonuniform List<scalar> 
304
(
478.961
478.99
478.987
479.004
478.962
478.959
478.959
478.989
478.959
479.111
479.111
479.003
478.987
479.109
479.11
479.034
479.001
479.033
478.96
478.988
479.004
478.959
478.99
479.111
479.111
479.034
479.005
479.11
479.11
479.06
478.957
479.033
479.06
478.994
478.96
479.006
479.034
478.966
478.965
479.034
479.06
478.994
478.961
478.994
478.947
478.948
478.961
478.962
478.963
478.997
478.961
478.961
478.997
478.964
478.948
478.962
478.966
478.963
478.998
478.99
478.99
479.004
479.005
479.036
479.035
479.061
478.96
479.005
478.99
479.035
479.005
479.061
479.035
478.962
478.965
478.998
478.963
478.959
478.959
478.994
478.959
479.003
478.954
478.986
479.033
479.06
478.999
479.032
478.989
478.987
478.956
479.06
479.034
479.033
479.001
478.996
478.96
478.959
478.945
478.957
478.959
478.993
478.958
478.994
478.96
478.958
478.944
478.962
478.959
478.96
478.996
478.989
479.003
479.035
478.988
479.004
479.034
479.062
478.96
479.035
479.004
479.005
478.989
479.061
479.035
478.963
478.96
478.996
478.961
479.004
478.989
479.035
478.989
479.035
479.005
479.061
478.959
479.035
478.99
479.035
478.99
479.061
479.005
479.033
478.955
479.001
479.004
479.06
478.987
479.033
478.988
479.001
478.956
479.061
479.004
479.033
478.987
478.961
478.957
478.994
478.958
479.033
478.958
478.988
479.033
479.06
478.988
479.004
479.001
478.988
478.958
479.06
479.033
479.004
478.988
478.993
478.957
478.958
478.959
478.961
478.996
478.965
479.004
479.035
479.061
478.959
478.988
479.004
479.035
478.988
479.061
479.034
478.988
478.957
479.034
479.001
478.995
478.96
478.961
479.036
479.005
479.062
478.963
479.007
478.991
479.036
478.989
479.061
479.005
479.004
478.961
479.035
478.99
479.061
478.987
479.033
478.991
479.035
478.958
479.002
479.004
479.033
478.987
479.033
478.988
479.001
478.956
478.993
478.958
478.961
479.06
478.988
479.004
479.002
479.033
478.959
478.989
479.034
479.004
478.989
479.034
479.003
478.989
478.961
478.958
478.959
478.962
478.951
478.959
478.964
478.996
478.96
478.995
478.961
478.959
478.947
478.968
478.963
478.999
478.964
479.035
479.036
479.061
478.963
478.99
478.991
479.005
479.004
479.061
479.035
478.989
478.958
479.004
478.989
478.997
478.962
478.961
478.997
478.962
478.96
479.061
479.001
479.033
478.988
479.004
478.955
478.987
479.033
479.033
479.002
479.004
478.988
478.987
478.956
478.959
478.96
478.958
478.947
478.994
478.959
478.958
478.962
478.959
478.958
)
;

boundaryField
{
    sphere_to_oil
    {
        type            compressible::turbulentTemperatureCoupledBaffleMixed;
        refValue        nonuniform List<scalar> 
360
(
341.05
341.05
318.081
362.875
371.567
320.41
372.702
372.702
372.702
345.405
345.405
321.803
324.533
315.348
342.956
363.634
359.221
359.221
359.221
317.37
357.496
335.223
335.375
366.2
314.866
366.782
319.139
366.466
366.466
366.466
373.55
365.076
318.109
317.809
321.572
321.744
360.109
360.109
360.109
359.38
368.499
320.848
321.566
341.162
341.162
319.01
324.183
312.468
339.039
367.195
320.488
320.444
324.12
324.493
317.137
335.279
360.176
317.419
321.62
324.829
314.532
367.781
367.781
367.781
312.482
366.334
338.957
326.371
371.49
371.49
371.49
371.998
370.394
314.798
357.726
342.279
315.928
333.996
368.396
360.226
336.448
324.846
335.737
314.406
318.065
320.222
321.963
324.372
315.634
317.526
318.11
324.136
321.606
318.358
323.956
321.587
321.959
321.934
318.675
313.792
313.869
316.237
320.391
321.638
324.145
316.084
315.39
324.536
318.61
322.051
322.033
321.927
318.702
317.251
312.804
312.753
329.419
326.19
330.815
340.82
340.82
362.875
362.875
366.2
366.2
363.936
363.936
363.936
365.756
365.756
365.756
330.069
326.303
329.417
316.942
371.567
371.567
341.991
341.991
373.55
373.55
340.152
340.152
372.735
372.735
372.735
316.878
316.399
364.095
364.095
364.095
364.149
364.149
364.149
363.634
357.496
342.956
363.634
362.229
316.097
362.229
362.229
335.436
336.176
325.161
334.92
334.92
370.065
370.065
370.065
314.465
357.496
335.223
369.008
369.008
314.438
369.008
336.12
325.069
312.555
319.086
319.354
324.571
314.764
324.195
319.336
312.558
313.71
366.782
366.782
365.076
365.076
341.2
341.2
363.009
363.009
363.009
339.248
339.248
313.694
321.239
320.61
324.323
321.428
320.242
324.3
318.502
324.571
322.001
318.506
359.38
324.586
322.209
317.404
369.35
369.35
369.35
336.177
336.177
314.282
321.72
321.686
324.742
368.499
320.729
324.613
321.782
359.38
368.499
336.192
317.344
336.192
314.741
312.78
324.117
314.84
319.271
319.166
319.404
314.663
313.373
367.793
361.598
367.793
367.793
361.598
361.598
367.195
366.334
339.039
364.557
313.757
367.195
364.557
364.557
323.764
317.736
321.609
324.091
318.304
371.998
321.372
321.928
322.058
318.673
360.176
357.726
322.043
321.841
318.633
359.575
362.576
335.279
368.905
314.695
360.176
368.905
368.905
325.165
320.729
368.396
321.703
321.573
321.547
368.6
320.521
368.306
336.361
359.575
336.361
368.6
359.575
368.6
312.444
326.135
328.682
329.037
339.811
363.062
339.811
363.062
363.062
313.67
366.334
364.189
338.957
364.189
313.701
364.189
330.108
329.686
315.759
370.086
340.798
370.086
370.086
340.798
316.03
320.198
321.429
324.17
370.394
371.998
340.605
316.639
370.394
340.605
316.123
357.726
363.565
342.279
363.565
315.294
363.565
324.628
360.226
318.763
322.115
362.427
359.817
362.576
342.437
362.576
362.427
342.437
362.427
324.466
335.592
368.396
335.377
314.457
360.226
335.377
317.576
368.306
359.817
368.306
336.292
359.817
336.292
)
;
        refGradient     uniform 0;
        valueFraction   nonuniform List<scalar> 
360
(
0.000133178
0.000127766
8.17972e-05
0.000292214
0.000299691
0.000171847
0.000301554
0.000258844
0.000402901
0.00012828
0.000125071
0.000167787
0.000255715
7.31141e-05
0.00013079
0.000254244
0.000291358
0.000272231
0.000382001
6.69034e-05
0.000250817
0.000123303
0.000113643
0.000301572
8.75575e-05
0.000309981
0.000174731
0.000305978
0.000400431
0.000267861
0.000306028
0.000308664
8.28825e-05
8.19566e-05
0.00017199
0.000169255
0.000286399
0.00038827
0.000266619
0.000400885
0.000395989
8.45547e-05
0.000167716
0.000122406
0.000122259
0.00017265
0.000258303
6.89138e-05
0.000123309
0.000261473
0.000170317
0.000171424
0.000255525
0.000253042
7.14899e-05
0.000130782
0.000266699
6.84854e-05
0.000169661
0.000253002
6.7035e-05
0.000297846
0.000262926
0.000411508
6.91108e-05
0.000268832
0.000125398
0.000121285
0.000304727
0.000397528
0.000267406
0.000383344
0.00038871
7.42388e-05
0.000259178
0.000131481
6.8446e-05
0.000122734
0.000387887
0.000402947
0.000120379
0.000118108
0.000116007
6.89444e-05
8.31399e-05
0.000168557
0.0001695
0.000256691
7.74845e-05
6.54242e-05
8.22817e-05
0.000256272
0.000169179
8.40514e-05
0.000255849
0.000171111
0.000170099
0.000170361
8.30754e-05
6.65896e-05
6.75237e-05
6.66249e-05
0.00017128
0.000168345
0.000256079
7.53928e-05
6.54864e-05
0.000255893
8.12922e-05
0.00016861
0.000168642
0.000172082
8.41461e-05
6.73801e-05
6.57131e-05
6.69827e-05
0.000116593
0.000116733
0.000121268
0.000131498
0.00012359
0.000255367
0.000402285
0.000269047
0.000405985
0.000260237
0.000400095
0.000297894
0.000260447
0.000391386
0.000293378
0.000119664
0.000113165
0.00011591
6.39864e-05
0.000265372
0.00039955
0.00012362
0.000124184
0.000403781
0.000268466
0.000129589
0.00013658
0.000398811
0.000273967
0.000315691
7.0421e-05
6.55342e-05
0.000276608
0.000383308
0.00030383
0.000284803
0.000396579
0.000303798
0.000313663
0.000288922
0.00013515
0.000402838
0.00026021
7.2547e-05
0.000391533
0.000292996
0.000111813
0.000117801
0.000116539
0.000122942
0.000128514
0.000400822
0.000263919
0.000309785
7.42773e-05
0.000385576
0.000132212
0.000405441
0.00025955
7.25528e-05
0.000307748
0.000112806
0.000113853
6.65199e-05
0.000174357
0.000174288
0.000257714
8.59394e-05
0.000258103
0.000169827
6.58369e-05
6.39298e-05
0.000403315
0.000256263
0.000398581
0.000265738
0.000126756
0.000118541
0.00040044
0.00025027
0.000289289
0.000117173
0.000135957
6.83989e-05
0.000171292
0.000171137
0.000255693
0.00016742
0.000168282
0.000254687
8.7294e-05
0.00025556
0.000173279
8.4891e-05
0.000287648
0.000255277
0.000172241
6.86426e-05
0.00039169
0.000253926
0.000297094
0.000123774
0.000115023
6.64404e-05
0.000169961
0.000172819
0.000256238
0.000291328
8.14787e-05
0.000253806
0.000165761
0.000252127
0.000266913
0.000121161
6.80541e-05
0.000134447
6.88954e-05
6.4852e-05
0.000259099
8.64663e-05
0.000174187
0.000172173
0.000170121
8.53794e-05
6.5218e-05
0.000264915
0.000248231
0.000416725
0.00031019
0.000388782
0.000279339
0.000299402
0.000306546
0.000136258
0.000262978
7.0852e-05
0.000400186
0.000389122
0.00029565
0.000257867
8.21655e-05
0.000167788
0.000254902
8.29014e-05
0.000303733
0.000168515
0.000169719
0.000168156
8.23994e-05
0.000301468
0.000282502
0.00017156
0.000167125
8.3986e-05
0.000283058
0.000311572
0.000123564
0.00027969
6.64255e-05
0.000398474
0.00038632
0.000291907
0.000253011
8.31153e-05
0.000292366
0.000168349
0.000168608
0.000169568
0.000293958
8.38942e-05
0.000300339
0.000126376
0.000258949
0.00012743
0.000263876
0.000402129
0.000394775
6.63943e-05
0.000133048
0.000131476
0.000128596
0.00011711
0.000391808
0.000127907
0.000260477
0.000306726
6.54267e-05
0.000395632
0.000395155
0.000129359
0.000280964
6.85646e-05
0.000301215
0.000114684
0.000112665
6.85079e-05
0.000387501
0.000115809
0.000254128
0.000299297
0.000124158
6.76835e-05
0.000168414
0.000168356
0.000254046
0.00029069
0.000252133
0.000121902
6.56174e-05
0.000256356
0.000135391
7.57835e-05
0.000371499
0.000398915
0.000117897
0.000253402
7.02553e-05
0.000318692
0.000255993
0.000306711
8.39038e-05
0.000169138
0.000295708
0.000286683
0.000269706
0.000120551
0.000395077
0.000394227
0.000143103
0.000263518
0.000115941
0.00011772
0.000265291
0.000131324
7.10036e-05
0.000268308
0.000126454
6.55711e-05
0.000390503
0.000395193
0.000260023
0.00012619
0.000255416
0.000130351
)
;
        value           nonuniform List<scalar> 
360
(
478.963
478.964
478.968
478.947
478.949
478.982
478.948
478.954
478.942
478.962
478.962
478.981
478.984
478.97
478.964
478.952
478.939
478.944
478.933
478.968
478.948
478.961
478.948
478.945
478.965
478.944
478.981
478.945
478.938
478.95
478.947
478.944
478.966
478.965
478.98
478.982
478.941
478.935
478.946
478.932
478.937
478.965
478.982
478.962
478.964
478.98
478.984
478.968
478.962
478.95
478.983
478.982
478.985
478.985
478.965
478.958
478.945
478.967
478.981
478.985
478.968
478.945
478.95
478.938
478.969
478.95
478.963
478.948
478.95
478.945
478.955
478.944
478.943
478.972
478.953
478.967
478.968
478.949
478.938
478.933
478.95
478.949
478.95
478.968
478.969
478.982
478.982
478.984
478.965
478.967
478.967
478.985
478.983
478.965
478.985
478.982
478.981
478.98
478.963
478.97
478.97
478.971
478.983
478.983
478.985
478.97
478.968
478.983
478.96
478.979
478.982
478.98
478.963
478.966
478.971
478.97
478.951
478.95
478.95
478.963
478.964
478.952
478.937
478.951
478.938
478.951
478.937
478.946
478.952
478.939
478.947
478.95
478.951
478.951
478.972
478.954
478.943
478.965
478.965
478.943
478.954
478.964
478.963
478.943
478.953
478.945
478.971
478.968
478.947
478.934
478.939
478.946
478.933
478.94
478.94
478.941
478.962
478.933
478.95
478.968
478.933
478.942
478.949
478.948
478.947
478.959
478.96
478.935
478.949
478.945
478.966
478.933
478.959
478.935
478.949
478.966
478.944
478.948
478.947
478.968
478.981
478.98
478.984
478.966
478.985
478.982
478.969
478.97
478.937
478.951
478.937
478.95
478.962
478.964
478.936
478.952
478.945
478.964
478.962
478.97
478.982
478.982
478.985
478.984
478.983
478.985
478.961
478.984
478.979
478.962
478.942
478.984
478.98
478.966
478.938
478.951
478.946
478.96
478.962
478.967
478.981
478.98
478.984
478.945
478.965
478.985
478.982
478.947
478.948
478.96
478.966
478.958
478.966
478.968
478.984
478.964
478.98
478.98
478.981
478.962
478.97
478.949
478.952
478.939
478.944
478.94
478.95
478.943
478.942
478.961
478.95
478.968
478.936
478.936
478.947
478.985
478.969
478.985
478.985
478.967
478.948
478.983
478.981
478.984
478.964
478.942
478.943
478.98
478.982
478.963
478.942
478.94
478.96
478.947
478.967
478.934
478.939
478.946
478.985
478.965
478.946
478.982
478.982
478.982
478.948
478.968
478.948
478.96
478.947
478.961
478.95
478.934
478.938
478.968
478.951
478.951
478.952
478.963
478.938
478.962
478.949
478.947
478.969
478.937
478.936
478.961
478.947
478.968
478.944
478.95
478.95
478.972
478.946
478.967
478.956
478.95
478.966
478.973
478.983
478.984
478.985
478.947
478.955
478.965
478.971
478.953
478.962
478.968
478.937
478.936
478.964
478.951
478.969
478.939
478.984
478.939
478.962
478.98
478.941
478.942
478.948
478.963
478.934
478.934
478.958
478.947
478.949
478.95
478.95
478.96
478.967
478.946
478.96
478.967
478.939
478.935
478.951
478.961
478.947
478.959
)
;
        Tnbr            T;
        thicknessLayers 0();
        kappaLayers     0();
        kappaMethod     solidThermo;
        kappa           none;
        alphaAni        none;
    }
}


// ************************************************************************* //
