/*--------------------------------*- C++ -*----------------------------------*\
| =========                 |                                                 |
| \\      /  F ield         | OpenFOAM: The Open Source CFD Toolbox           |
|  \\    /   O peration     | Version:  v1906                                 |
|   \\  /    A nd           | Web:      www.OpenFOAM.com                      |
|    \\/     M anipulation  |                                                 |
\*---------------------------------------------------------------------------*/
FoamFile
{
    version     2.0;
    format      ascii;
    class       volScalarField;
    location    "900";
    object      k;
}
// * * * * * * * * * * * * * * * * * * * * * * * * * * * * * * * * * * * * * //

dimensions      [0 2 -2 0 0 0 0];


internalField   nonuniform List<scalar> 
78750
(
5.0004e-05
0.000183616
0.000258242
0.000307918
0.00035242
0.000392517
0.000427937
0.000457405
0.000481575
0.000500824
0.000516538
0.000528402
0.000537131
0.000544891
0.000556173
0.000564366
0.000570741
0.00057316
0.000572942
0.000570285
0.000565792
0.000560225
0.000553567
0.000545877
0.000537162
0.000527105
0.000516458
0.000504908
0.000492178
0.000477604
0.000460587
0.000439784
0.000411107
0.000345058
0.000118979
2.43739e-05
0.000111413
0.000195597
0.000290392
0.000388275
0.000479767
0.000559765
0.000621033
0.000669754
0.000707259
0.000735077
0.000754579
0.000766967
0.000767024
0.000760008
0.000746041
0.000729686
0.000712989
0.000696175
0.000679023
0.00066173
0.000644947
0.000629177
0.000614859
0.000601486
0.000586916
0.00057158
0.000555825
0.00053875
0.000519897
0.000498499
0.00047206
0.000431231
0.000358987
0.000234975
2.94713e-05
0.00018638
0.000352273
0.0004903
0.000598283
0.000673948
0.000724192
0.000761024
0.000785181
0.000799476
0.00080568
0.000804949
0.000797675
0.000785599
0.000769839
0.000751556
0.000731221
0.000709608
0.000687235
0.000664295
0.000640819
0.000617254
0.000593884
0.000569344
0.000544918
0.000526827
0.000513919
0.000504969
0.000499316
0.000494289
0.000485546
0.00046617
0.000427429
0.000372978
0.000309084
4.87928e-05
0.000270555
0.000437104
0.000560143
0.000639922
0.000696428
0.000740487
0.000776134
0.000805197
0.00082792
0.000844163
0.000853875
0.000856976
0.000853569
0.000843579
0.000827147
0.000805029
0.000778106
0.00074735
0.000713914
0.000678895
0.000643021
0.00060669
0.000569641
0.000532036
0.000497788
0.00047114
0.0004521
0.000441539
0.000439555
0.000440268
0.000435131
0.00041026
0.000370992
0.000313979
5.9714e-05
0.000278125
0.000446203
0.000568524
0.000656849
0.000722764
0.000774549
0.000816382
0.000850075
0.000876601
0.000896589
0.000910473
0.000918505
0.000920682
0.000917403
0.000908769
0.000895028
0.000875708
0.000850575
0.000819722
0.000783587
0.000742906
0.0006987
0.000652089
0.000603626
0.000553308
0.000504792
0.000463935
0.000435108
0.000416402
0.000407795
0.000404732
0.000391159
0.000360973
0.000306887
6.45478e-05
0.00029713
0.000471744
0.000595514
0.000681382
0.000744372
0.00079413
0.000835199
0.000869662
0.000898689
0.000922853
0.000942299
0.000956948
0.000966602
0.000971008
0.000970115
0.000963955
0.000952656
0.000936178
0.000914409
0.000887174
0.000854284
0.00081557
0.000771317
0.000722936
0.000671035
0.000613835
0.000553159
0.000492008
0.000438403
0.000408994
0.000391648
0.000374698
0.000349852
0.000308475
6.51288e-05
0.000301371
0.000484785
0.000617653
0.000711527
0.000781727
0.000837288
0.000882377
0.000919401
0.000950038
0.000975289
0.000995725
0.00101159
0.00102283
0.00102922
0.00103042
0.0010272
0.00101788
0.00100323
0.000983967
0.000959994
0.000931282
0.000897681
0.00085891
0.000815026
0.000767017
0.000714489
0.000657097
0.00059772
0.000531949
0.000455989
0.000401686
0.000374919
0.000350912
0.000332092
7.59942e-05
0.000332576
0.000535802
0.000677638
0.000771907
0.000838812
0.000890549
0.000932734
0.000968021
0.000997656
0.00102249
0.00104302
0.0010594
0.00107158
0.0010791
0.00108125
0.00107869
0.00106986
0.00105525
0.00103521
0.00100968
0.000978676
0.000942267
0.00090047
0.000853752
0.000803617
0.000750497
0.000696177
0.000642249
0.000582196
0.000509646
0.000436537
0.000385603
0.000362845
0.000366429
9.29181e-05
0.000379243
0.000605739
0.000754619
0.000848243
0.000913108
0.000963412
0.00100487
0.00103973
0.00106914
0.00109371
0.00111384
0.00112967
0.00114091
0.00114728
0.00114832
0.0011449
0.0011348
0.0011185
0.0010962
0.00106775
0.00103319
0.000992851
0.000947498
0.000898081
0.000844939
0.000787523
0.000728893
0.000672433
0.000612326
0.00054173
0.000465362
0.000406685
0.000380661
0.000387972
0.000110196
0.000418147
0.000662259
0.000811909
0.000901352
0.000962319
0.00101014
0.00105042
0.00108573
0.00111735
0.00114516
0.00116871
0.00118775
0.00120187
0.00121068
0.00121356
0.00121099
0.001201
0.0011837
0.00115896
0.00112655
0.00108694
0.0010418
0.000991878
0.000938014
0.000880605
0.000818367
0.000755066
0.0006952
0.000633641
0.000564116
0.000488597
0.000427549
0.000399254
0.000406369
0.000146814
0.000491102
0.000746071
0.000887445
0.000966863
0.00102066
0.00106373
0.00110147
0.00113708
0.00117216
0.0012039
0.00123147
0.00125425
0.00127095
0.00128079
0.00128333
0.00127968
0.00126796
0.00124868
0.0012215
0.00118653
0.00114411
0.00109452
0.00103829
0.000976517
0.000911108
0.000841638
0.00077256
0.000708458
0.000644704
0.000576513
0.000505011
0.00044693
0.000418718
0.000421133
0.000191597
0.000552961
0.00080402
0.000933063
0.00100247
0.0010481
0.00108437
0.00111755
0.00115145
0.00118643
0.00122505
0.00126143
0.00129049
0.00131117
0.00132316
0.0013257
0.00132097
0.00130783
0.00128629
0.00125637
0.00121897
0.00117506
0.00112526
0.00106982
0.00100855
0.000939979
0.000862968
0.00078682
0.000717011
0.000649434
0.000581635
0.000515083
0.000462354
0.000433713
0.000424417
0.000242234
0.000617927
0.000858615
0.000976493
0.00103922
0.00107868
0.00110634
0.00112931
0.00115301
0.00118708
0.00122635
0.00126424
0.00129599
0.00131977
0.00133582
0.00134536
0.00134581
0.0013366
0.00131578
0.0012857
0.00124784
0.00120365
0.00115377
0.00109851
0.00103795
0.000970714
0.000894514
0.000812627
0.000731823
0.000654424
0.00058253
0.00051974
0.000473466
0.000444144
0.000419642
0.000265767
0.000640404
0.000877106
0.000995141
0.00105931
0.00109838
0.00112015
0.00113133
0.00114328
0.00115886
0.00119287
0.00123496
0.0012767
0.0013103
0.00133362
0.00134643
0.00135017
0.00134503
0.00133131
0.00130709
0.0012733
0.00123289
0.00118664
0.00113498
0.00107803
0.00101431
0.000941081
0.000858965
0.000769717
0.000674846
0.000589972
0.000523875
0.000480785
0.000448964
0.000408594
0.000270494
0.000648398
0.000892352
0.00101742
0.00108687
0.00112974
0.00115227
0.00115571
0.00114633
0.0011405
0.00114473
0.00116944
0.00121233
0.00125683
0.00129423
0.00132138
0.00133746
0.00134215
0.00133533
0.00131824
0.00129313
0.00125961
0.00121923
0.00117338
0.00112165
0.00106153
0.000990278
0.000907817
0.000813481
0.000705696
0.000605813
0.00053161
0.000486172
0.000448999
0.000394625
0.000271715
0.000649415
0.0008965
0.00102901
0.00110543
0.0011548
0.00118414
0.00119359
0.00118538
0.00116257
0.00114174
0.00114172
0.00115969
0.00120054
0.00124295
0.00127877
0.00130453
0.00131974
0.00132395
0.00131702
0.00129939
0.00127372
0.00124114
0.00120154
0.00115429
0.00109737
0.00102776
0.00094454
0.00084586
0.0007299
0.000618931
0.000539198
0.000491387
0.000449747
0.000388565
0.000280915
0.000655406
0.000905688
0.00104199
0.00112199
0.0011751
0.00120884
0.00122346
0.00122203
0.0012049
0.00117487
0.00114272
0.00113188
0.00114492
0.00118162
0.00122136
0.00125518
0.00127978
0.00129415
0.0012978
0.00129074
0.00127356
0.00124796
0.00121502
0.00117432
0.00112263
0.00105821
0.00097994
0.000881848
0.000760873
0.000637455
0.000547892
0.000495534
0.000450984
0.000390648
0.00028569
0.000655971
0.00090663
0.00104816
0.00113234
0.00118987
0.00122872
0.00125053
0.00125473
0.0012446
0.00122111
0.00118655
0.00114728
0.00112355
0.00112515
0.0011479
0.00118527
0.00121713
0.00124132
0.00125587
0.0012598
0.00125333
0.00123687
0.00121164
0.00117758
0.00113296
0.00107662
0.00100632
0.000915626
0.000799694
0.000670008
0.000567419
0.000506347
0.000458644
0.000401523
0.000284644
0.000651656
0.000906011
0.00105046
0.00114043
0.00120265
0.00124695
0.00127552
0.00128744
0.00128661
0.0012725
0.00124639
0.00120959
0.00116511
0.00112424
0.00110561
0.0011077
0.0011291
0.00116004
0.00118403
0.00119919
0.00120385
0.00119776
0.00118108
0.00115433
0.00111631
0.00106606
0.00100147
0.000916135
0.000809141
0.000688434
0.000584625
0.000518979
0.000466606
0.000402741
0.00026644
0.000628845
0.000890944
0.0010467
0.00114193
0.00121045
0.00126045
0.00129522
0.00131611
0.00132246
0.00131765
0.00130137
0.00127442
0.00123728
0.0011908
0.00113967
0.00109725
0.00107421
0.00107338
0.00108817
0.00110812
0.0011241
0.00112898
0.00112291
0.00110469
0.0010743
0.00103156
0.000974074
0.000898219
0.000800775
0.000690004
0.000594342
0.000530131
0.000474943
0.000402994
0.0002395
0.000601184
0.000868944
0.00103573
0.0011409
0.00121471
0.00127002
0.00131057
0.00133758
0.00135162
0.00135347
0.00134494
0.00132675
0.00129995
0.00126505
0.00122177
0.00117029
0.00111543
0.00106638
0.00103348
0.00102567
0.00102719
0.00103301
0.00103566
0.00102935
0.00101123
0.000980396
0.000933236
0.000866325
0.000780235
0.000687434
0.00060081
0.000538589
0.000480997
0.00040593
0.000217926
0.000582677
0.000857454
0.00103334
0.00114291
0.00122041
0.00127936
0.0013241
0.00135609
0.00137575
0.00138298
0.00137959
0.00136629
0.00134435
0.00131527
0.00128045
0.00124051
0.00119496
0.00114379
0.00108765
0.00103141
0.000985881
0.000958175
0.000946793
0.000940773
0.000930901
0.000912598
0.000881814
0.000834149
0.000768151
0.000688133
0.000610245
0.000550064
0.000493674
0.000430391
0.000209648
0.000573711
0.000854846
0.00103841
0.00115424
0.00123477
0.00129583
0.00134262
0.00137688
0.00139917
0.00140959
0.00140892
0.00139839
0.00137894
0.00135218
0.00131965
0.00128283
0.00124278
0.00119984
0.00115402
0.00110306
0.00104553
0.000984238
0.000927507
0.000885215
0.000857329
0.000836216
0.000813454
0.000785131
0.000744832
0.00068651
0.000618661
0.000562189
0.000509096
0.000458207
0.000209539
0.000573056
0.000860582
0.00105191
0.00117186
0.00125453
0.00131703
0.00136501
0.00140027
0.00142338
0.00143436
0.00143378
0.00142334
0.00140368
0.0013774
0.00134661
0.00131302
0.00127717
0.00123756
0.00119436
0.00114616
0.00109179
0.00103115
0.00096658
0.000907133
0.000860916
0.000823231
0.000790637
0.000760364
0.000726902
0.000682397
0.000626173
0.000575444
0.000526909
0.000486859
0.000225186
0.000589699
0.000881417
0.00107348
0.00119433
0.00127784
0.00134081
0.00138894
0.00142403
0.00144665
0.00145681
0.00145511
0.00144212
0.0014203
0.0013924
0.00136174
0.00133168
0.00130412
0.00127066
0.0012318
0.00118599
0.00113021
0.00106311
0.000990761
0.000926554
0.000872705
0.0008262
0.000785787
0.000750244
0.000715813
0.000677055
0.00063122
0.000587185
0.000544342
0.000514189
0.00025294
0.00062103
0.000910149
0.00109712
0.00121572
0.00129844
0.00136107
0.001409
0.00144381
0.00146581
0.00147484
0.00147153
0.00145633
0.00143222
0.0014029
0.00137328
0.00134955
0.00133046
0.00131311
0.00128936
0.00125172
0.00119446
0.00111553
0.00102908
0.00095286
0.000888037
0.000832979
0.000787222
0.000748284
0.00071276
0.000677194
0.000638009
0.000600305
0.000563293
0.000535318
0.000281769
0.000647518
0.000933953
0.00111711
0.00123313
0.0013151
0.00137738
0.0014253
0.00146014
0.00148202
0.00149056
0.00148609
0.00146909
0.00144281
0.0014118
0.00138299
0.00135709
0.00133893
0.00132546
0.00131351
0.00129134
0.0012488
0.00118257
0.00109657
0.00100616
0.000919087
0.000844585
0.000788846
0.000745294
0.000708391
0.000676914
0.000643588
0.000611695
0.000577954
0.000539203
0.000308224
0.000672257
0.000952569
0.00113128
0.00124563
0.00132755
0.00139054
0.00143913
0.00147464
0.00149707
0.001506
0.00150128
0.00148337
0.00145497
0.00142123
0.00138678
0.00135657
0.00133647
0.00132424
0.00131506
0.00129921
0.00126972
0.00122021
0.0011507
0.00106939
0.000979256
0.000889341
0.000810593
0.000750566
0.000709289
0.00067819
0.000649745
0.000622057
0.000588212
0.000531017
0.000323581
0.000680652
0.000956743
0.00113427
0.00124973
0.0013336
0.00139875
0.00144945
0.001487
0.00151151
0.0015225
0.00151932
0.00150212
0.00147182
0.00143102
0.00138716
0.00134771
0.00131353
0.0012965
0.00129119
0.00128704
0.00127228
0.00124004
0.00118977
0.00112317
0.00104142
0.000949562
0.000858498
0.000779567
0.000720737
0.000683438
0.000655572
0.000629658
0.000592371
0.000513352
0.000335034
0.00068513
0.000957712
0.00113504
0.00125168
0.00133795
0.00140541
0.00145785
0.0014976
0.00152483
0.00153903
0.00153939
0.00152601
0.00149869
0.00145791
0.0014055
0.00134903
0.00130285
0.00126842
0.0012568
0.00125538
0.00125281
0.00123871
0.00120753
0.00115886
0.00109067
0.00100503
0.000909988
0.00081811
0.000744729
0.000696326
0.00066376
0.000635873
0.000593225
0.000498563
0.000337092
0.000685061
0.000957368
0.00113493
0.00125179
0.00133876
0.00140876
0.00146478
0.00150746
0.00153794
0.00155581
0.00156016
0.00155117
0.00152844
0.00149178
0.00144153
0.00137938
0.00131193
0.00125708
0.00121964
0.00120563
0.00120922
0.00120964
0.001198
0.00116887
0.00111953
0.00104766
0.000957813
0.000860968
0.000775771
0.000714845
0.000674393
0.000641745
0.000593292
0.000488432
0.000330312
0.000672174
0.00094448
0.00112572
0.00124664
0.00133661
0.00140897
0.00146802
0.0015144
0.00154934
0.00157267
0.00158308
0.00158107
0.00156574
0.00153654
0.00149296
0.00143498
0.00136392
0.00128527
0.00121574
0.00117289
0.00115139
0.00115377
0.00115742
0.00114977
0.00111906
0.00106638
0.00098975
0.000897185
0.000807603
0.000737295
0.000688262
0.000648875
0.000593589
0.000478814
0.000314193
0.000656158
0.000931002
0.00111586
0.00123978
0.00133328
0.00140835
0.00147041
0.00152067
0.00155983
0.00158851
0.0016057
0.00161082
0.00160393
0.001584
0.00154981
0.00150059
0.00143627
0.00135782
0.00126975
0.00118295
0.00111849
0.00109045
0.00109311
0.00110262
0.00109805
0.00106454
0.00100579
0.000924377
0.000836129
0.000759698
0.000702771
0.000656879
0.000595766
0.00047877
0.000302324
0.000647504
0.000924986
0.00111384
0.00123913
0.0013333
0.00141079
0.00147557
0.00152952
0.00157335
0.00160662
0.00162869
0.00163911
0.00163864
0.00162635
0.00160014
0.00155884
0.00150199
0.00143011
0.0013451
0.00125034
0.00115418
0.00107623
0.00104
0.00104261
0.00105181
0.00104426
0.00100524
0.000940856
0.000860444
0.000782323
0.000719289
0.000667514
0.00060076
0.000482845
0.000298509
0.000646518
0.000924442
0.00111388
0.0012409
0.00133693
0.00141561
0.00148169
0.00153711
0.00158295
0.00161983
0.00164761
0.00166699
0.0016768
0.00167466
0.00165817
0.00162542
0.00157449
0.0015059
0.00142223
0.00132565
0.00121917
0.00111375
0.00103347
0.000999822
0.00100076
0.00100357
0.000987528
0.000940521
0.000874147
0.000800171
0.000734743
0.000678792
0.000608284
0.000495987
0.000301071
0.000654236
0.000935678
0.00112376
0.00124871
0.00134313
0.00142054
0.00148559
0.00154037
0.00158643
0.00162538
0.00165852
0.00168681
0.0017092
0.00172244
0.00172149
0.00170157
0.00165986
0.00159644
0.00151562
0.00141863
0.00130602
0.00118482
0.00107585
0.00100573
0.000979202
0.000976633
0.000969009
0.000939188
0.000884401
0.000815676
0.000750593
0.000693376
0.000622251
0.000514582
0.000320363
0.000678795
0.000959508
0.0011407
0.00126182
0.00135463
0.00143117
0.00149533
0.00154891
0.00159328
0.00162974
0.00166114
0.00168951
0.00171558
0.00173735
0.00175029
0.00174888
0.00172768
0.00168303
0.00161498
0.00152146
0.00140246
0.00126407
0.00113073
0.0010314
0.00097811
0.000957394
0.000948578
0.000930077
0.000888146
0.000827427
0.000764865
0.000706842
0.000633546
0.000527492
0.00035548
0.000710026
0.000982931
0.00115548
0.00127277
0.00136287
0.0014374
0.00149921
0.00155095
0.00159378
0.00162953
0.00166059
0.00168888
0.00171515
0.00173807
0.00175321
0.0017563
0.00174694
0.00172021
0.00167259
0.00160019
0.00150136
0.00137471
0.00123309
0.00110525
0.00100876
0.00096153
0.000943462
0.000924435
0.000890041
0.000837086
0.000778328
0.000721307
0.000648275
0.000541357
0.000403843
0.000741597
0.000998787
0.00116153
0.00127432
0.0013638
0.00143832
0.00150014
0.00154959
0.00158778
0.00161697
0.00164103
0.0016648
0.00169125
0.00171875
0.00174151
0.0017527
0.0017475
0.00172492
0.00168401
0.00162416
0.00154042
0.00143278
0.00130814
0.00118285
0.00107283
0.000996622
0.00095293
0.000926382
0.000892928
0.000844516
0.000790166
0.000734468
0.000658881
0.000540293
0.000423412
0.000746855
0.000999976
0.00116101
0.00127149
0.00135794
0.00142959
0.00148818
0.00153419
0.00156832
0.0015922
0.00160962
0.00162564
0.0016445
0.00166769
0.00169207
0.00171085
0.00171741
0.0017076
0.00167766
0.00162594
0.00155238
0.00145619
0.0013428
0.00122254
0.0011111
0.00102639
0.000972964
0.000937392
0.000900078
0.000852158
0.000799749
0.000742905
0.000658906
0.000517277
0.000422416
0.000743678
0.000990627
0.00114614
0.00125325
0.00133946
0.00141274
0.00147371
0.00152169
0.00155665
0.00157995
0.0015932
0.00160012
0.00160544
0.00161405
0.00162848
0.00164633
0.0016604
0.00166324
0.00164949
0.00161568
0.00155937
0.00148094
0.00138121
0.00126711
0.00115265
0.00105698
0.000990886
0.000946768
0.000906447
0.000859227
0.000808277
0.000750085
0.000658698
0.00049757
0.000397238
0.000711379
0.000961327
0.0011227
0.00123473
0.00132446
0.00139983
0.00146191
0.00151037
0.00154561
0.00156829
0.0015788
0.00157942
0.00157429
0.00156907
0.0015688
0.00157557
0.00158644
0.00159522
0.001594
0.00157755
0.0015425
0.00148621
0.00140764
0.00131002
0.00120175
0.00109987
0.00102076
0.000965289
0.000918222
0.000868955
0.00081742
0.000756849
0.000658468
0.000488597
0.000364822
0.000685748
0.000936352
0.00110007
0.00121376
0.00130465
0.00138209
0.00144776
0.00150168
0.0015421
0.00156701
0.00157737
0.00157656
0.00156745
0.00155404
0.00153922
0.00152663
0.00152269
0.00152553
0.00152568
0.00151699
0.00149475
0.00145562
0.00139733
0.00131977
0.00122716
0.00113094
0.0010484
0.000985507
0.000932789
0.000880116
0.000826605
0.000763449
0.000659689
0.000487508
0.000345074
0.000664964
0.000917326
0.00108536
0.00120206
0.0012953
0.00137517
0.0014438
0.00150109
0.00154659
0.00157779
0.00159477
0.00159727
0.00158637
0.00156496
0.00153896
0.00151548
0.00149719
0.00148043
0.00146935
0.0014587
0.00144157
0.001414
0.00137298
0.00131511
0.00123821
0.00115081
0.00107006
0.00100464
0.000948953
0.000893682
0.000837321
0.00077097
0.000662654
0.000490179
0.000337224
0.000652078
0.00090471
0.0010755
0.00119424
0.00128902
0.00137029
0.0014407
0.00150068
0.00154986
0.00159038
0.00161917
0.00163371
0.00163301
0.00161588
0.00158376
0.0015421
0.00150026
0.00146605
0.00143735
0.00141264
0.00139192
0.00136951
0.00134168
0.00130176
0.00124231
0.00116952
0.00109254
0.0010242
0.000965132
0.000908218
0.00085052
0.000781614
0.000672203
0.00050891
0.000318233
0.000627899
0.00088228
0.00105864
0.00118161
0.00127977
0.00136345
0.0014357
0.00149764
0.00154957
0.00159168
0.00162336
0.00164454
0.00165388
0.00164943
0.00162906
0.00159232
0.00154282
0.00148836
0.00143708
0.00139337
0.001356
0.00132652
0.001302
0.00127508
0.00123525
0.00117459
0.00110977
0.00104405
0.000982717
0.00092345
0.00086424
0.000793441
0.000682594
0.00051706
0.000301226
0.000614456
0.000870634
0.00104951
0.00117428
0.00127345
0.00135875
0.001433
0.00149708
0.00155196
0.00159755
0.00163345
0.00165949
0.00167483
0.00167755
0.00166656
0.00163954
0.00159668
0.00154015
0.00147434
0.00140769
0.00134789
0.00129946
0.00126379
0.0012343
0.00120378
0.00116459
0.0011125
0.00105551
0.000996416
0.000936762
0.000876577
0.00080355
0.000688577
0.00051877
0.000296303
0.000607157
0.000863836
0.00104455
0.00117055
0.00127087
0.00135764
0.00143279
0.00149801
0.0015537
0.00160034
0.00163864
0.00166949
0.00169243
0.00170587
0.00170694
0.0016938
0.00166245
0.00161342
0.00154813
0.00147263
0.00139606
0.00132863
0.00127477
0.00123214
0.00119256
0.00115313
0.00111176
0.00106301
0.00100881
0.000950928
0.000891004
0.000817799
0.000702567
0.000540433
0.000292356
0.000605054
0.000862601
0.00104385
0.00117011
0.0012707
0.00135889
0.00143522
0.00149999
0.0015553
0.00160291
0.00164415
0.00168047
0.00171238
0.00173653
0.00175074
0.00175016
0.00173242
0.00169321
0.00163306
0.0015567
0.00147377
0.0013958
0.00132584
0.0012606
0.00120503
0.00115749
0.00111482
0.00107059
0.00102032
0.000964376
0.000905387
0.000834001
0.000723608
0.000572533
0.000292895
0.000606373
0.000865621
0.00104669
0.0011724
0.00127276
0.00136005
0.00143593
0.0015003
0.00155533
0.00160292
0.00164467
0.00168241
0.00171795
0.00175258
0.00177916
0.00179305
0.00178947
0.00176297
0.00171134
0.00163785
0.00155313
0.00146893
0.00138728
0.00130975
0.00124086
0.00118284
0.0011345
0.00108779
0.00103674
0.000980479
0.000921535
0.000850365
0.000740608
0.000584355
0.000303004
0.000618073
0.000875894
0.00105322
0.00117628
0.00127596
0.00136245
0.00143676
0.0015002
0.001554
0.00159955
0.00163957
0.00167746
0.00171611
0.0017557
0.00179445
0.00182402
0.00183691
0.00182757
0.00178968
0.00172548
0.00164394
0.00155566
0.0014617
0.00136632
0.00127841
0.00120624
0.00115143
0.00110338
0.00105207
0.000995428
0.000936309
0.000864693
0.000751907
0.00059083
0.00031917
0.000633674
0.00088684
0.00105922
0.00117962
0.00127746
0.00136295
0.00143643
0.00149659
0.00154554
0.00158628
0.00162232
0.00165842
0.00169938
0.00174691
0.0017969
0.0018419
0.0018736
0.00188004
0.00186191
0.00181581
0.00174974
0.00166955
0.00157412
0.00146623
0.00135599
0.00125769
0.00118228
0.00112477
0.00107146
0.00101439
0.000954587
0.000883363
0.000773992
0.000622935
0.000340205
0.000650245
0.000897408
0.00106309
0.00118012
0.00127783
0.0013614
0.00143107
0.00148756
0.00153276
0.00156917
0.00160055
0.00163292
0.00167326
0.00172532
0.00178537
0.00184332
0.00188721
0.00191184
0.00191119
0.00188726
0.00184254
0.00177807
0.00169219
0.00158714
0.00146918
0.00135126
0.00124905
0.00116878
0.0011027
0.00103951
0.000976498
0.000903329
0.000794138
0.000643747
0.000361375
0.000663556
0.000900805
0.001063
0.00117874
0.00127296
0.00135325
0.00142024
0.00147349
0.00151397
0.00154404
0.00156798
0.00159325
0.00162936
0.00168297
0.00175133
0.00182248
0.00188089
0.00191769
0.00193126
0.00192361
0.00189565
0.0018463
0.00177424
0.00168011
0.00156721
0.00144551
0.00132814
0.00122726
0.00114372
0.00106982
0.00100134
0.000923708
0.000809473
0.000643558
0.000364537
0.000665084
0.000902418
0.00105892
0.00117011
0.00126279
0.00134243
0.0014083
0.00145898
0.00149513
0.00151866
0.00153334
0.00154668
0.00156996
0.00161439
0.00168225
0.00176182
0.00183395
0.00188675
0.00191636
0.00192338
0.0019094
0.00187344
0.0018139
0.00173108
0.0016276
0.00151092
0.00139121
0.00128067
0.00118521
0.00110237
0.00102683
0.000940367
0.000811168
0.000617376
0.000363003
0.000663259
0.00089429
0.00104808
0.00115904
0.00125151
0.00133048
0.00139546
0.00144499
0.00147888
0.00149821
0.00150572
0.00150747
0.00151416
0.00154
0.00159508
0.00167357
0.00175521
0.00182289
0.00186964
0.00189454
0.00189664
0.00187349
0.00182688
0.00175529
0.00166233
0.00155374
0.00143768
0.00132497
0.00122326
0.00113353
0.00105079
0.000954311
0.000808571
0.00058557
0.000351629
0.000651457
0.000883938
0.0010376
0.00114785
0.00124015
0.00131973
0.0013858
0.00143648
0.00147077
0.00148886
0.00149293
0.00148705
0.00148006
0.00148557
0.00151846
0.0015823
0.00166235
0.00173887
0.00180046
0.0018434
0.00186325
0.00185808
0.00182448
0.00176522
0.00168428
0.00158586
0.00147634
0.00136502
0.00125993
0.00116448
0.0010747
0.000968578
0.000809188
0.000574123
0.000346552
0.000646127
0.00087574
0.00102862
0.00113949
0.00123294
0.00131359
0.00138052
0.0014319
0.00146653
0.00148388
0.00148496
0.001473
0.00145533
0.00144742
0.00146143
0.00150723
0.00157787
0.00165602
0.00172718
0.00178392
0.00181934
0.00182912
0.00181146
0.00176667
0.00169942
0.00161238
0.00151093
0.00140309
0.00129674
0.00119702
0.00110115
0.00098666
0.000814119
0.000575298
0.000340884
0.000637334
0.000866402
0.00101985
0.00113185
0.00122672
0.001309
0.00137768
0.00143066
0.00146614
0.00148359
0.00148422
0.00146981
0.00144444
0.00141477
0.0014074
0.00143524
0.00149567
0.00157367
0.00165274
0.00172162
0.00177104
0.0017957
0.00179368
0.0017646
0.00171032
0.00163359
0.00153934
0.001435
0.00132853
0.00122589
0.00112491
0.00100307
0.000821449
0.000580101
0.000335076
0.000629277
0.000857305
0.00101092
0.0011241
0.00122087
0.00130569
0.00137721
0.00143411
0.00147302
0.00149241
0.00149299
0.00147572
0.00144441
0.00140761
0.00137776
0.00138004
0.00142221
0.00149364
0.00157678
0.00165586
0.00171796
0.00175663
0.00176836
0.00175309
0.00171103
0.00164603
0.00156015
0.00146081
0.00135635
0.00125307
0.00114908
0.00102229
0.000833155
0.000581944
0.000327076
0.000619028
0.000846865
0.00100157
0.00111647
0.00121553
0.00130332
0.00137842
0.00143831
0.00148078
0.00150438
0.00150819
0.00149284
0.00145984
0.00141389
0.00136742
0.00133949
0.0013515
0.00140934
0.00149276
0.00158128
0.00165635
0.00170927
0.00173533
0.00173561
0.00170781
0.00165171
0.0015734
0.00147919
0.00137745
0.00127454
0.00116828
0.00103629
0.000838166
0.000577063
0.000317049
0.00060922
0.000837028
0.000992243
0.0011084
0.0012095
0.00130017
0.0013789
0.00144318
0.00149045
0.0015188
0.0015273
0.00151652
0.00148696
0.00144062
0.00138393
0.00133314
0.00131224
0.0013349
0.00140535
0.00149683
0.00158266
0.0016497
0.0016925
0.00170808
0.0016947
0.00165107
0.00158184
0.00149374
0.00139546
0.00129332
0.00118559
0.00104988
0.000845668
0.000573947
0.000306956
0.000598998
0.000826973
0.000983313
0.00110129
0.00120494
0.00129881
0.00138127
0.00144979
0.00150192
0.00153567
0.00155018
0.00154587
0.00152292
0.00148186
0.00142518
0.00136236
0.00131047
0.00129716
0.00133466
0.00141215
0.00149866
0.00157512
0.00163278
0.00166628
0.00166977
0.00164111
0.00158179
0.00150213
0.00140845
0.00130796
0.00120051
0.00106457
0.000856451
0.000575015
0.000299492
0.000590911
0.000818172
0.000974922
0.00109426
0.00120025
0.00129716
0.00138315
0.0014556
0.00151196
0.00155009
0.00156949
0.00157039
0.0015536
0.00152004
0.00147136
0.00141202
0.00135144
0.00131054
0.00131351
0.00136153
0.00143173
0.00150424
0.00156716
0.00161268
0.00163249
0.00162116
0.00157791
0.00150758
0.00141999
0.0013223
0.001216
0.00108059
0.000870829
0.00059104
0.000294195
0.000584415
0.00081066
0.00096739
0.00108793
0.00119624
0.00129618
0.00138585
0.0014624
0.00152318
0.00156589
0.00158995
0.00159527
0.00158259
0.00155272
0.00150752
0.00145116
0.00139029
0.00134048
0.00132362
0.00134782
0.00139946
0.00146101
0.00152046
0.00156941
0.00159902
0.00160139
0.00157355
0.00151507
0.00143486
0.00134091
0.00123689
0.00110427
0.000898488
0.000629778
0.000291976
0.000578863
0.000803723
0.000960247
0.00108182
0.00119229
0.00129484
0.00138761
0.00146773
0.00153245
0.00157944
0.00160814
0.00161843
0.00161097
0.00158607
0.00154463
0.00148957
0.00142809
0.0013738
0.00134651
0.00135653
0.00139437
0.00144363
0.00149397
0.00153894
0.00156981
0.00157913
0.00156203
0.00151552
0.00144404
0.00135578
0.00125567
0.00112639
0.000924617
0.000656061
0.000290833
0.000575208
0.000797788
0.000953247
0.00107545
0.00118788
0.00129276
0.00138782
0.00147182
0.00154012
0.00159066
0.00162296
0.00163676
0.0016325
0.00161047
0.0015712
0.00151645
0.00145194
0.0013925
0.0013595
0.00136528
0.00139885
0.00144564
0.00149448
0.00153521
0.00156407
0.00157422
0.0015599
0.00151737
0.00145095
0.00136774
0.00127184
0.00114561
0.000944203
0.00066248
0.00028689
0.000568502
0.000789437
0.000944197
0.00106713
0.00118128
0.00128883
0.00138727
0.00147327
0.00154582
0.00160098
0.00163843
0.00165766
0.00165867
0.00164121
0.00160452
0.00154836
0.00147672
0.00140481
0.00135909
0.00136072
0.00139604
0.00144361
0.00149295
0.00153679
0.00156703
0.00157853
0.00156437
0.00152338
0.00145888
0.00137795
0.00128339
0.00115668
0.000951003
0.000657203
0.000281939
0.000562899
0.000781977
0.000935303
0.00105832
0.00117351
0.00128293
0.00138394
0.00147306
0.00154822
0.00160778
0.00164997
0.00167508
0.00168298
0.00167307
0.00164381
0.00159224
0.00151815
0.00143226
0.00136301
0.00134432
0.00137189
0.00142712
0.00148638
0.00153531
0.00156678
0.00157792
0.00156568
0.00152759
0.00146567
0.0013866
0.00129307
0.00116632
0.000956343
0.000646849
0.000275107
0.000555421
0.000772516
0.000924297
0.0010473
0.00116343
0.00127465
0.00137813
0.00147026
0.00154771
0.00160991
0.00165778
0.00168919
0.0017045
0.00170391
0.00168603
0.00164646
0.00158144
0.00149358
0.00140345
0.00134995
0.00135174
0.00139001
0.00145167
0.00151218
0.00155661
0.00157532
0.00156529
0.00152913
0.00146993
0.00139325
0.00130128
0.00117499
0.00096189
0.000647547
0.000270885
0.000550311
0.0007648
0.000914342
0.00103674
0.00115315
0.00126534
0.00137031
0.00146448
0.00154468
0.00160981
0.00165958
0.00169575
0.00171873
0.00172784
0.00172172
0.00169805
0.00165225
0.00158154
0.00149534
0.00141983
0.00137637
0.00138752
0.00142837
0.00148216
0.00153074
0.00155943
0.00156012
0.00153266
0.00147867
0.00140564
0.00131558
0.00119035
0.000978093
0.000674696
0.000270123
0.000546906
0.000757969
0.000904969
0.00102674
0.00114341
0.00125633
0.00136222
0.0014574
0.00153877
0.00160578
0.00165814
0.00169611
0.00172113
0.00173441
0.00173668
0.00172567
0.00169699
0.00164689
0.00157996
0.0015094
0.00144742
0.00141578
0.00143166
0.00147752
0.00152242
0.0015539
0.00156124
0.00154095
0.00149194
0.0014219
0.00133363
0.00121029
0.00100326
0.000715052
0.000272185
0.000545864
0.000752315
0.000896196
0.00101714
0.00113381
0.00124702
0.0013532
0.00144848
0.0015302
0.0015978
0.00165118
0.00169102
0.0017184
0.00173439
0.00173893
0.00173197
0.0017119
0.00167875
0.00163218
0.00157839
0.00152113
0.00147808
0.00146989
0.00148881
0.00152535
0.00155567
0.00156595
0.00154924
0.00150425
0.00143726
0.00135075
0.00122733
0.00102043
0.00072882
0.000276696
0.000545471
0.000746935
0.000887659
0.00100761
0.0011242
0.00123759
0.00134381
0.00143874
0.00152007
0.00158709
0.00163967
0.00167873
0.00170569
0.00172204
0.00172806
0.00172419
0.00170983
0.00168507
0.00165309
0.00161677
0.00157592
0.00153966
0.00152398
0.00152994
0.00155094
0.00157154
0.00157726
0.00155908
0.00151549
0.00145024
0.0013643
0.00123905
0.00102826
0.00072852
0.000283088
0.000546275
0.000741548