/*--------------------------------*- C++ -*----------------------------------*\
| =========                 |                                                 |
| \\      /  F ield         | OpenFOAM: The Open Source CFD Toolbox           |
|  \\    /   O peration     | Version:  v1912                                 |
|   \\  /    A nd           | Website:  www.openfoam.com                      |
|    \\/     M anipulation  |                                                 |
\*---------------------------------------------------------------------------*/
FoamFile
{
    version     2.0;
    format      ascii;
    class       volScalarField;
    location    "198/oil";
    object      heatTransferCoeff(T);
}
// * * * * * * * * * * * * * * * * * * * * * * * * * * * * * * * * * * * * * //

dimensions      [1 0 -3 -1 0 0 0];


internalField   uniform 0;

boundaryField
{
    maxY
    {
        type            calculated;
        value           uniform 0;
    }
    minX
    {
        type            calculated;
        value           uniform 0;
    }
    maxX
    {
        type            calculated;
        value           uniform 0;
    }
    minY
    {
        type            calculated;
        value           uniform 0;
    }
    minZ
    {
        type            calculated;
        value           uniform 0;
    }
    maxZ
    {
        type            calculated;
        value           uniform 0;
    }
    oil_to_sphere
    {
        type            calculated;
        value           nonuniform List<scalar> 
1536
(
-61.5306
-57.9197
-57.9073
-51.1648
-50.8625
-57.679
-54.8057
-55.9104
-55.4738
-51.6706
-49.0713
-52.1364
-55.3903
-52.3548
-48.0842
-54.3575
-57.7125
-58.0833
-54.15
-55.2145
-56.7934
-55.5049
-55.8011
-54.3212
-54.6941
-54.4988
-54.6312
-53.8668
-57.5441
-55.6924
-58.6277
-57.9247
-58.0775
-54.3465
-54.5791
-53.8611
-54.1622
-53.0792
-53.7946
-54.5828
-53.6295
-54.1858
-55.3546
-56.1537
-57.0626
-54.5391
-56.9389
-55.9466
-48.2863
-54.5139
-56.4594
-55.5427
-55.8599
-54.2714
-57.419
-59.9442
-55.7289
-55.2285
-56.7684
-56.363
-55.2937
-55.3403
-55.246
-54.1867
-54.5769
-55.1207
-55.1975
-56.5673
-56.4871
-57.3548
-54.1689
-51.0992
-52.1872
-54.5137
-54.4654
-60.1666
-58.1046
-53.2545
-54.3691
-57.9921
-56.8392
-56.3609
-51.0797
-50.9613
-57.5219
-60.8778
-50.3003
-54.8902
-56.3958
-56.3615
-55.5747
-53.9744
-53.9417
-54.0929
-54.4821
-56.1055
-56.8732
-57.0926
-58.3447
-56.2764
-56.8813
-54.1068
-61.6432
-56.522
-52.0417
-54.4164
-54.679
-51.4479
-51.4626
-61.7893
-58.0557
-55.942
-55.3212
-55.8569
-50.5905
-51.053
-49.923
-59.2755
-61.2422
-58.3037
-55.6441
-55.8491
-53.7542
-56.8092
-58.5532
-56.2934
-55.5689
-53.5028
-57.03
-56.6799
-55.1514
-56.5416
-57.3573
-54.6722
-54.9381
-57.5055
-55.8646
-58.0373
-53.5844
-57.7448
-55.4866
-56.6581
-56.6866
-55.3981
-54.96
-55.3231
-56.0509
-59.6877
-55.5992
-61.7892
-57.1658
-58.3478
-55.7153
-55.9381
-54.3582
-56.5529
-57.4106
-57.1823
-62.5208
-59.0405
-58.0406
-59.9566
-52.4137
-53.0108
-54.027
-53.9228
-57.238
-59.2262
-58.2277
-60.2803
-53.9257
-54.1636
-53.3361
-56.9483
-55.9211
-56.1529
-60.5628
-53.5269
-53.085
-60.8341
-53.739
-53.0207
-52.9264
-53.2472
-56.9394
-60.9102
-59.0859
-53.7421
-52.6504
-58.033
-52.9163
-57.3991
-57.3259
-58.9564
-52.1084
-47.4498
-58.8553
-59.3171
-55.0281
-54.3803
-55.5949
-54.801
-58.1397
-58.8291
-57.1374
-56.3905
-54.3246
-59.221
-58.4374
-56.5177
-53.4679
-54.5621
-54.4176
-55.1178
-57.0457
-60.1693
-53.2689
-52.2807
-52.3649
-47.0312
-57.7979
-56.9284
-56.3167
-55.61
-55.7992
-59.3222
-57.4047
-54.8093
-57.8427
-51.7816
-53.9063
-47.6864
-55.3177
-57.8315
-58.8737
-58.571
-57.7429
-56.9595
-58.2429
-52.1086
-52.612
-53.8407
-59.3582
-53.3684
-47.8118
-49.997
-56.9017
-55.9618
-60.8347
-62.8618
-55.9427
-51.034
-47.0714
-56.3544
-58.8319
-54.092
-54.2047
-50.3401
-53.9543
-59.2906
-61.1277
-55.4636
-54.2474
-59.6612
-59.2404
-54.5002
-51.796
-55.2659
-60.2838
-59.3891
-56.9711
-57.3586
-58.7046
-52.9937
-54.3329
-58.9252
-57.354
-58.3031
-55.4044
-57.8956
-60.0867
-57.1942
-56.8812
-59.5308
-54.2387
-54.1412
-54.5741
-53.6963
-53.9983
-59.026
-60.334
-53.1007
-54.8616
-54.679
-54.8905
-53.7444
-55.8794
-55.4352
-53.2571
-50.444
-53.886
-52.169
-53.5665
-60.9471
-59.6298
-59.6004
-62.675
-52.6773
-52.9454
-56.0587
-61.7643
-61.6014
-53.9868
-55.4856
-53.7748
-57.2827
-54.3351
-56.829
-57.1354
-58.2783
-57.4027
-54.7266
-57.6103
-53.8137
-58.7489
-59.2311
-57.8844
-57.6256
-53.2312
-60.4972
-60.5137
-57.5172
-51.9919
-54.2119
-54.9375
-57.1626
-56.7921
-57.2351
-53.1242
-58.6939
-59.288
-58.2171
-59.5714
-56.5657
-56.1856
-55.3336
-52.6482
-56.3132
-57.3005
-52.583
-52.2842
-52.9426
-61.4929
-58.7038
-59.6293
-56.6853
-56.1615
-59.1541
-52.3796
-60.7207
-58.2144
-56.1511
-56.1327
-52.1897
-58.363
-58.6025
-53.4336
-56.1416
-55.1985
-54.2953
-57.3379
-58.631
-55.3586
-54.5716
-52.7956
-60.1592
-58.753
-52.2948
-59.2128
-58.7925
-57.828
-60.1177
-56.0933
-57.517
-51.7781
-52.0582
-57.1545
-62.3297
-58.0121
-60.9779
-56.7581
-54.7601
-58.3301
-53.0561
-53.9503
-56.9829
-58.5646
-57.4003
-56.6826
-53.2473
-53.0206
-58.97
-59.219
-58.7718
-56.1095
-54.0912
-56.8758
-57.6101
-58.444
-56.2982
-55.0379
-53.4997
-55.9502
-52.9293
-51.4712
-54.0728
-53.49
-55.9629
-51.6227
-54.7678
-60.7525
-54.6912
-54.6474
-58.5659
-58.4728
-57.1926
-55.2254
-52.4695
-57.9656
-59.602
-57.0532
-56.4103
-57.9918
-55.563
-55.8629
-56.637
-51.0643
-57.3459
-59.2498
-59.6321
-58.3663
-57.6034
-57.3098
-56.3094
-55.1519
-53.0479
-55.7196
-53.3756
-52.1887
-53.6759
-51.3556
-61.0629
-60.58
-59.2033
-62.1542
-53.5172
-61.053
-53.0519
-53.7428
-57.6798
-53.412
-52.9628
-54.8062
-54.5635
-60.7155
-59.6963
-56.6356
-56.9401
-60.1008
-59.0131
-56.2508
-57.6115
-53.4716
-58.5499
-51.9321
-59.6045
-51.02
-57.6645
-58.0363
-58.4152
-54.697
-52.8271
-55.1149
-58.5107
-55.286
-51.7082
-58.658
-58.8457
-59.7318
-62.0334
-56.7442
-59.8127
-52.6402
-53.113
-48.5096
-49.8611
-56.1129
-54.7002
-54.2923
-53.7098
-61.2757
-53.8218
-52.2492
-51.707
-55.1674
-52.1912
-62.5151
-53.6402
-53.8873
-55.8184
-49.1297
-50.2126
-54.0916
-54
-55.2947
-54.525
-58.8126
-58.3537
-57.3313
-56.2077
-51.4095
-54.3295
-58.3963
-53.0092
-53.4125
-57.8907
-60.1295
-53.5479
-48.729
-52.6085
-49.1002
-55.603
-54.6463
-53.8827
-52.0494
-48.8883
-57.4613
-57.8928
-56.7484
-55.6761
-60.3424
-57.5405
-57.0848
-56.2021
-53.2036
-54.3661
-58.8234
-57.4099
-54.8812
-49.8406
-56.3226
-58.5809
-60.5322
-56.4509
-54.6363
-60.3779
-56.2705
-59.8392
-53.3913
-54.4338
-52.9109
-54.6556
-56.2815
-60.0167
-54.2919
-53.6141
-53.162
-55.3556
-62.4563
-52.4589
-54.3634
-52.207
-56.0384
-56.2729
-58.9414
-60.2337
-52.1192
-51.9576
-60.2706
-60.89
-50.6419
-60.2902
-59.1953
-58.0199
-59.2536
-57.2135
-56.0991
-56.1726
-60.1852
-56.2883
-57.1766
-55.9756
-58.4671
-56.5481
-55.6959
-55.4725
-52.5314
-57.9234
-55.904
-58.4439
-57.622
-57.7528
-57.4017
-56.3486
-52.109
-59.007
-59.0379
-57.3233
-55.6564
-56.6179
-61.6607
-52.3129
-53.3102
-52.5892
-56.7707
-54.2762
-61.6571
-54.769
-55.1623
-55.9971
-48.7279
-49.0951
-54.2094
-54.1213
-55.9952
-52.8834
-53.5657
-56.9908
-54.3215
-60.2234
-53.3176
-61.3819
-55.4046
-56.6957
-48.2941
-49.0037
-48.4035
-53.9462
-57.9966
-54.4406
-53.9107
-49.0635
-55.8764
-58.4287
-55.9238
-63.853
-53.4862
-58.7863
-57.7223
-58.0103
-59.2463
-59.2355
-58.1514
-55.8763
-55.1025
-55.7275
-58.0789
-55.2663
-56.779
-56.5512
-56.7629
-58.4196
-57.436
-57.9563
-52.6427
-53.385
-47.3803
-50.3148
-51.336
-45.2352
-54.2254
-54.5432
-55.257
-55.7063
-51.4017
-52.6027
-54.876
-59.425
-59.2244
-54.815
-51.7923
-55.425
-58.4061
-57.6073
-55.7754
-51.6338
-53.48
-57.3563
-56.7912
-55.7152
-54.3654
-57.6836
-57.8298
-60.159
-57.8032
-56.3159
-54.5336
-53.4956
-52.3918
-54.6268
-55.8213
-61.8678
-56.1013
-61.0591
-54.2544
-62.2627
-54.1574
-55.3534
-52.8606
-53.2889
-54.5382
-52.5591
-55.1963
-51.5991
-54.2599
-58.8943
-54.7723
-52.3021
-60.4558
-57.6519
-56.8491
-55.6276
-60.4183
-64.1143
-50.4921
-57.4704
-56.9551
-57.1878
-52.5972
-55.6209
-53.7773
-56.8184
-58.1248
-58.9279
-53.2572
-57.3796
-56.2053
-57.6751
-57.4916
-57.0156
-54.9743
-55.3922
-54.3997
-51.8063
-51.4155
-52.9903
-59.7731
-54.2939
-52.316
-54.3844
-58.9051
-55.1087
-59.813
-58.4417
-57.0597
-56.3145
-57.0362
-60.5539
-52.9859
-57.3663
-59.1883
-59.4023
-56.318
-53.6801
-55.1398
-57.0832
-59.52
-52.7959
-55.4293
-56.2594
-58.7856
-56.909
-57.1173
-59.9371
-52.8282
-53.8682
-53.4025
-60.6224
-58.923
-56.1193
-58.7703
-53.8653
-54.3257
-58.7547
-57.1877
-60.1124
-53.1121
-58.1281
-58.6229
-56.382
-56.832
-57.95
-53.3248
-51.1619
-55.8712
-57.1554
-61.0121
-55.4506
-54.1472
-55.6794
-56.9931
-58.1059
-56.2314
-53.806
-55.4545
-58.5395
-53.2146
-53.6338
-55.4092
-54.2057
-56.6322
-56.2883
-59.3283
-57.2342
-58.2937
-54.4153
-55.7752
-56.617
-55.5651
-54.9967
-54.5488
-54.4478
-52.9433
-57.6375
-56.5332
-56.4667
-57.1096
-51.9381
-54.6813
-60.5266
-60.5491
-53.7506
-58.8399
-56.9833
-57.5203
-54.481
-59.5046
-59.1629
-52.9974
-55.0731
-54.6431
-54.5169
-52.009
-52.5898
-54.6317
-59.1796
-62.0952
-54.0731
-57.9466
-57.6195
-56.8634
-55.2688
-56.6435
-59.3508
-56.8645
-53.1271
-54.7098
-54.407
-54.7237
-57.2171
-57.7683
-57.6773
-57.8205
-57.9097
-53.8633
-57.9679
-54.8292
-57.5652
-48.9303
-57.1383
-59.6206
-54.985
-50.5032
-56.0725
-55.4702
-60.8875
-53.4808
-57.979
-55.7368
-51.1218
-60.429
-52.3181
-55.3612
-55.8706
-51.9811
-58.8717
-56.5887
-55.3284
-56.4395
-56.571
-55.2576
-61.0503
-52.4788
-54.5909
-48.177
-55.4151
-54.9351
-55.9894
-58.8401
-64.1923
-51.8397
-54.6888
-62.916
-52.377
-57.7527
-53.7257
-57.5189
-50.4101
-53.5651
-62.7911
-50.8852
-62.316
-51.4588
-60.765
-51.3328
-53.4285
-48.7584
-52.6348
-62.2634
-49.4848
-55.9013
-50.9143
-60.2041
-62.302
-49.7049
-55.4847
-53.9609
-53.1155
-52.9492
-54.5772
-55.9159
-55.931
-57.3809
-55.625
-60.0935
-63.1854
-49.6655
-56.4169
-56.9051
-55.893
-56.3289
-55.4852
-55.1563
-55.4525
-58.2297
-55.6156
-58.2429
-54.5814
-56.5767
-59.6756
-54.9291
-57.2382
-58.8163
-54.5206
-56.5792
-55.6966
-57.3612
-55.3402
-56.2851
-55.0599
-58.6179
-54.741
-56.7803
-51.4791
-60.3908
-49.8279
-57.2646
-58.6032
-60.2205
-53.5263
-56.3004
-55.5993
-56.224
-56.2523
-55.6416
-58.1988
-53.083
-47.2902
-55.9001
-50.5709
-59.1373
-53.6279
-55.8665
-58.1496
-47.661
-60.1735
-53.2743
-48.948
-53.7831
-57.7153
-57.452
-56.1124
-49.4552
-56.1658
-56.6777
-54.0407
-53.6092
-59.2159
-58.7382
-54.417
-56.011
-59.2298
-49.5998
-58.4385
-53.5535
-57.3142
-49.9513
-62.2409
-61.3161
-58.5148
-56.0751
-55.2571
-57.8144
-55.0488
-49.4031
-52.8063
-57.8422
-53.7121
-57.4856
-50.439
-59.0824
-57.5698
-45.81
-56.2083
-56.7249
-47.9217
-60.1521
-51.3565
-59.141
-60.3995
-58.2251
-48.7879
-56.2333
-55.2015
-56.2147
-56.3657
-57.3089
-49.5978
-54.6471
-53.7322
-53.7748
-59.0098
-55.9092
-57.1198
-57.4551
-57.3376
-55.1507
-56.2707
-55.3326
-56.753
-59.1517
-54.3274
-55.0056
-54.1048
-56.4334
-58.5823
-54.3094
-54.8391
-54.5509
-55.9398
-53.7549
-53.9676
-54.8456
-55.0996
-56.2206
-54.9581
-60.0947
-58.3496
-50.6663
-51.009
-59.9004
-45.1874
-57.8889
-56.6689
-53.8307
-55.1559
-60.2297
-47.7431
-58.8938
-57.0277
-49.0937
-54.6667
-54.1596
-56.1893
-47.381
-59.5079
-57.3356
-47.6808
-59.2088
-59.5067
-49.9736
-60.2346
-58.735
-50.0716
-54.1729
-53.8131
-47.8525
-55.9442
-56.3428
-53.131
-53.5344
-53.7345
-46.3417
-53.3883
-48.048
-45.9773
-58.7392
-53.9397
-62.2234
-54.549
-49.537
-59.476
-55.7545
-48.4059
-54.3655
-54.2407
-48.3292
-50.9173
-60.0751
-44.1311
-52.8551
-52.9397
-45.3718
-58.9903
-58.3061
-55.9261
-54.7659
-54.2507
-52.8197
-46.8454
-56.028
-54.7715
-54.9712
-55.942
-48.7724
-58.0459
-54.3015
-55.5447
-53.9532
-55.4143
-56.2014
-52.6994
-49.0967
-54.7483
-56.7838
-54.2097
-54.8004
-55.7365
-53.5139
-54.9801
-48.7058
-54.4796
-57.2076
-54.0043
-55.179
-53.6144
-49.2485
-59.9585
-59.9275
-59.2031
-60.5343
-49.9186
-47.9175
-54.644
-58.432
-56.3213
-57.7107
-58.2431
-52.8561
-52.0827
-48.3944
-49.9464
-53.4203
-55.587
-55.3683
-55.2153
-52.2474
-58.6922
-56.8998
-50.1356
-53.1477
-52.7325
-58.1644
-53.5412
-46.8895
-56.303
-55.7456
-58.8839
-48.5124
-54.3544
-56.6185
-54.5201
-55.0902
-57.621
-55.5317
-52.8763
-60.7031
-45.6653
-52.1751
-55.5577
-53.5717
-54.6765
-60.3442
-57.0755
-55.9724
-51.78
-59.7426
-54.5307
-56.2169
-58.218
-58.9164
-58.618
-58.8889
-60.1462
-60.8564
-59.9267
-59.9367
-56.4112
-58.437
-54.3038
-55.1263
-52.2557
-51.1642
-46.3094
-60.4764
-60.2391
-59.2203
-54.9168
-56.2266
-56.011
-53.6556
-56.4645
-58.3509
-53.0551
-55.294
-57.4471
-54.1964
-54.3902
-54.1879
-54.8763
-53.4301
-54.7554
-54.4826
-49.9472
-56.5783
-53.17
-55.2486
-48.2668
-60.6888
-55.4239
-53.8546
-53.341
-50.3111
-55.8392
-53.9608
-47.8413
-51.812
-55.312
-51.1661
-51.8393
-60.9541
-61.3634
-54.5466
-54.5608
-57.9131
-60.2348
-47.7331
-53.9991
-53.4674
-54.6809
-54.6747
-54.9537
-55.4687
-52.12
-49.2338
-59.7613
-54.6125
-51.4303
-52.0466
-54.4774
-55.8724
-50.4185
-55.4014
-53.7657
-54.2953
-60.2892
-51.5614
-49.4669
-54.7593
-54.0653
-53.4988
-49.334
-59.081
-54.5224
-54.2718
-54.4804
-47.8696
-54.6726
-54.6639
-49.6133
-54.5639
-51.7732
-56.8135
-59.3619
-53.7329
-58.3228
-56.5882
-53.7655
-53.8458
-54.7772
-49.3882
-56.8231
-57.3243
-54.1763
-48.563
-52.6661
-55.1633
-55.3918
-53.7339
-49.0579
-53.8859
-58.8823
-56.7451
-54.0469
-60.8682
-51.4703
-58.4724
-47.9598
-51.3522
-58.8137
-47.9782
-58.7236
-54.1285
-55.8571
-54.3219
-61.3653
-52.2747
-55.8967
-60.2164
-59.8521
-50.5608
-59.4355
-60.3368
-45.4091
-55.7569
-53.9795
-48.1455
-57.5905
-53.9013
-54.302
-54.3199
-55.5087
-54.9935
-54.1633
-53.9156
-47.8999
-57.4031
-55.9515
-55.6498
-56.1637
-54.9005
-53.7218
-52.7045
-58.1914
-46.9866
-53.3672
-53.8109
-47.4402
-58.5821
-60.5776
-55.8684
-59.2592
-59.8713
-53.4067
-54.5351
-56.9722
-59.2273
-53.4876
-57.4334
-52.0358
-48.3436
-58.1742
-52.8892
-58.8682
-60.9889
-60.171
-48.5237
-58.5272
-56.2343
-52.9793
-54.1314
-54.7184
-53.9692
-48.6497
-59.5537
-48.8415
-59.4334
-54.8511
-52.0505
-51.7981
-55.2739
-57.4872
-60.1534
-55.686
-61.7527
-58.2079
-58.6944
-48.1228
-58.4211
-57.6765
-58.9684
-53.6287
-53.0193
-47.0914
-55.3014
-61.5005
-59.4171
-49.0891
-52.263
-49.1526
-53.6109
-55.4544
-51.9102
-63.7134
-54.349
-52.2399
-49.3183
-56.7261
-53.1359
-47.2708
-55.3121
-53.946
-53.9852
-54.1401
-54.1939
-49.3962
-51.91
-48.1863
-54.1172
-58.3371
-56.8544
-59.5403
-59.0027
-53.3785
-52.6393
-48.0102
-53.6057
-57.8689
-59.7369
-58.1778
-58.1727
-51.4249
-47.4008
-52.3353
-46.8254
-57.904
-58.2339
-52.695
-58.5731
-57.9849
-59.4029
-56.7862
-55.8765
-55.7565
-53.3756
-47.6544
-52.5477
-48.6165
-52.0808
-54.143
-53.7177
-49.9009
-48.4942
-57.3467
-61.4817
-61.0399
-60.1947
-55.6715
-57.1413
-57.0277
-55.454
-54.1662
-55.3659
-52.8984
-54.8628
-54.8922
-48.4903
-58.1182
-54.6539
-52.3038
-49.8123
-54.0347
-55.5692
-55.5269
-53.7571
-49.8536
-60.0085
-56.5686
-53.9998
-60.7644
-52.9873
-48.2134
-57.2288
-54.9539
-54.9226
-54.8949
-53.7861
-46.8421
-55.3566
-54.8145
-48.9012
-60.1218
-54.4984
-44.3194
-54.1221
-55.3982
-55.6453
-53.7471
-48.6562
-53.3214
-53.5122
-51.0876
-55.0322
-47.9549
-55.2501
-55.0451
-50.7296
-60.9444
-54.7794
-49.6258
-61.894
-55.3475
-55.3657
-49.7336
-55.0221
-48.8532
)
;
    }
}


// ************************************************************************* //
