/*--------------------------------*- C++ -*----------------------------------*\
| =========                 |                                                 |
| \\      /  F ield         | OpenFOAM: The Open Source CFD Toolbox           |
|  \\    /   O peration     | Version:  v1906                                 |
|   \\  /    A nd           | Web:      www.OpenFOAM.com                      |
|    \\/     M anipulation  |                                                 |
\*---------------------------------------------------------------------------*/
FoamFile
{
    version     2.0;
    format      ascii;
    class       volScalarField;
    location    "0.75/sphere";
    object      T;
}
// * * * * * * * * * * * * * * * * * * * * * * * * * * * * * * * * * * * * * //

dimensions      [0 0 0 1 0 0 0];


internalField   nonuniform List<scalar> 
7664
(
474.619
475.057
475.05
475.977
474.831
475.523
475.949
477.199
478.207
476.7
475.032
478.081
478.998
477.601
477.329
478.304
476.852
475.906
476.921
475.57
474.974
478.158
479.193
477.684
475.843
478.958
480.013
478.564
475.07
475.459
478.264
479.239
477.782
477.29
475.563
476.633
477.659
475.99
474.758
477.526
478.517
477.059
476.669
477.754
476.207
475.011
474.906
474.934
474.863
474.989
474.67
475.901
475.05
477.607
476.675
478.339
477.515
476.694
478.457
477.589
475.084
474.694
475.965
475.073
477.651
478.091
477.199
476.04
475.163
475.606
475.193
474.89
474.964
474.959
475.047
474.946
474.778
474.856
474.685
474.819
474.881
474.718
474.944
475.391
474.839
475.536
476.04
477.13
474.842
475.556
477.144
476.12
475.518
474.693
475.893
474.681
476.855
475.026
474.973
475.842
476.594
477.592
477.457
478.335
474.947
475.34
475.222
476.245
476.027
475.818
476.371
474.745
475.983
476.927
474.772
474.781
474.762
476.919
476.392
475.916
475.16
475.572
477.515
478.389
477.068
478.018
475.129
475.599
475.195
478.396
477.577
478.035
477.132
476.991
474.849
476.475
476.058
475.515
476.67
477.687
476.553
477.699
476.738
476.566
476.178
476.212
476.234
476.047
475.519
474.785
477.101
475.934
476.753
477.769
475.912
476.889
477.739
478.722
475.428
477.78
476.846
476.92
475.959
478.736
477.827
476.234
475.576
477.2
474.892
474.816
476.588
474.952
477.434
474.973
477.539
475.771
478.273
474.69
477.541
475.068
477.688
475.112
478.493
476.032
474.986
474.895
477.494
477.052
475.844
478.333
475.517
477.979
475.148
477.162
475.206
478.556
476.11
478.124
475.658
475.07
476.659
475.458
477.66
476.538
478.293
476.922
478.261
479.205
476.905
477.794
477.42
476.935
476.424
479.224
478.368
477.818
476.948
477.774
475.554
476.579
477.272
477.288
476.213
476.235
475.507
474.78
477.087
476.047
476.891
477.738
478.721
475.927
476.746
477.793
475.957
478.739
477.827
475.934
475.435
477.806
476.844
477.195
474.89
476.247
474.815
477.54
475.768
478.281
476.589
474.95
477.44
475.115
478.499
476.034
476.728
474.687
477.602
475.079
474.988
474.895
478.338
475.512
477.974
475.024
477.496
477.058
476.112
478.131
475.649
477.671
475.158
477.208
475.216
477.668
476.524
476.667
479.213
476.909
477.795
477.332
478.325
476.921
478.379
477.822
476.947
478.348
477.46
476.927
476.426
475.552
476.583
476.883
477.273
475.41
475.553
476.06
477.163
474.861
477.174
476.127
474.868
475.531
475.914
474.682
476.848
474.705
477.645
477.466
478.447
474.632
475.062
474.986
475.901
476.988
474.771
474.769
476.914
476.391
474.769
478.504
477.079
478.071
475.06
475.977
475.147
475.579
474.851
476.525
474.849
476.049
477.73
476.561
475.514
476.776
476.568
475.526
474.622
474.553
474.588
474.592
474.531
474.675
474.559
474.686
474.567
474.766
474.775
474.995
474.918
474.519
474.558
474.693
474.71
474.545
474.938
475.032
474.931
474.757
474.759
474.993
474.915
474.81
474.764
475.032
475.968
475.136
475.54
475.459
474.897
475.392
475.228
476.229
475.987
475.726
476.398
474.967
475.385
475.257
476.306
476.076
475.849
476.438
474.82
474.778
475.053
476.021
475.155
475.575
475.5
474.91
475.434
475.25
476.296
476.042
475.777
476.474
475.522
475.157
475.488
476.514
476.124
476.554
476.006
475.763
475.496
475.628
476.654
476.566
476.784
476.351
475.166
475.334
475.428
476.38
475.697
475.883
476.083
474.537
474.566
474.722
474.733
474.567
474.956
474.799
474.762
474.907
474.747
474.69
474.94
475.873
475.082
475.497
475.375
474.793
474.972
474.66
475.329
476.338
475.048
475.979
475.313
476.372
475.874
474.879
475.48
475.017
474.936
475.467
475.73
475.528
475.794
475.444
475.873
476.201
476.061
475.935
476.466
475.555
475.591
475.564
476.019
475.862
476.006
476.945
475.808
476.628
476.33
476.403
476.171
477.097
475.197
475.309
475.577
475.711
475.001
474.614
474.658
475.303
475.364
474.836
476.288
475.952
475.025
475.302
475.847
476.338
475.279
474.777
474.794
475.703
475.505
475.749
476.241
476.153
476.445
477.323
475.942
476.589
476.866
476.922
476.872
476.287
476.585
475.751
477.054
476.118
476.339
477.264
476.764
477.58
476.672
477.426
476.498
477.413
475.333
476.024
475.464
475.398
475.869
476.099
475.938
475.198
474.851
476.262
475.703
475.064
474.672
474.587
476.566
476.753
475.723
475.595
476.72
476.595
475.509
475.114
474.989
474.985
475.839
476.15
475.37
475.892
476.001
476.911
477.19
477.147
477.042
475.175
475.261
475.531
475.337
475.456
476.01
475.861
475.392
474.61
474.711
474.896
476.524
475.296
475.74
475.099
475.338
475.771
474.853
474.948
475.398
474.777
475.369
474.87
476.184
477.246
476.328
476.043
476.798
476.53
475.868
475.661
475.728
475.996
475.751
474.601
474.781
474.938
474.751
474.909
474.935
475.112
474.94
474.943
474.862
475.13
474.758
475.539
475.073
475.136
475.392
475.14
475.27
475.52
475.318
475.441
475.996
475.388
475.825
475.397
475.372
475.546
476.647
475.066
475.89
476.054
474.77
475.551
475.415
475.081
475.139
474.9
475.155
474.964
475.326
475.464
476.002
475.387
475.848
475.195
475.297
475.56
475.417
476.701
475.908
475.428
475.626
475.107
476.114
474.986
475.197
475.033
474.977
474.609
474.742
474.919
474.548
474.723
475.357
475.168
474.817
474.6
474.72
474.882
475.01
475.244
475.213
476.405
474.78
475.67
475.617
474.721
474.55
475.332
474.807
475.143
475.252
474.903
475.997
475.112
476.331
476.168
475.778
474.805
475.269
475.087
476.125
475.908
475.629
476.309
474.634
475.406
475.23
474.772
474.862
475.288
476.486
475.701
475.07
475.32
474.831
475.74
474.678
474.801
474.993
474.781
474.647
475.422
474.862
475.23
474.955
474.804
475.43
474.893
475.401
475.003
475.272
475.316
474.948
475.404
474.782
474.884
475.372
474.988
475.257
475.284
475.397
475.774
476.743
475.741
476.034
475.323
475.992
475.636
475.8
476.831
476.623
475.546
476.651
476.798
476.235
475.091
475.293
475.611
475.327
475.769
476
475.648
476.514
475.445
476.498
475.496
476.684
476.268
475.472
475.136
476.063
475.447
476.473
476.445
475.972
475.731
475.486
475.598
476.589
476.52
476.718
476.316
475.15
475.33
475.402
476.324
475.664
475.856
476.049
475.051
475.318
475.375
475.013
475.495
474.864
474.941
475.459
475.451
475.808
476.821
475.844
476.071
475.368
476.102
475.05
475.339
475.374
475.611
475.603
475.912
475.865
475.414
476.195
476.04
475.934
476.172
476.019
477.23
476.34
476.49
475.872
476.806
476.068
476.18
476.419
476.217
476.857
476.45
476.289
476.704
475.744
475.56
475.817
476.201
476.067
477.275
476.404
476.523
475.911
476.85
476.221
476.86
476.468
476.286
476.72
476.085
476.209
476.455
475.663
475.706
475.993
475.745
475.801
475.803
476.048
476.032
475.881
475.839
476.068
476.127
475.947
475.885
475.762
475.142
475.26
475.507
474.92
474.836
475.059
475.389
475.561
475.353
476.636
475.058
476.055
475.83
475.289
475.415
475.962
475.802
475.353
475.031
474.681
475.497
475.331
475.1
476.883
475.772
476.613
476.3
476.361
476.125
477.072
476.878
475.77
476.288
476.589
476.13
476.348
477.057
477.211
476.635
476.625
477.556
476.419
477.384
477.378
476.635
475.614
475.695
475.64
476.105
475.944
476.128
477.263
476.667
476.764
477.579
476.494
477.413
477.426
476.951
475.812
476.369
476.665
476.196
476.429
477.124
475.455
475.673
475.492
476.743
475.154
476.125
475.963
474.982
474.906
475.183
475.338
475.471
476.025
475.868
475.398
475.11
474.81
475.608
475.45
475.166
474.5
474.457
474.686
474.635
474.503
476.074
474.779
475.878
475.227
475.611
475.039
476.268
476.095
474.843
475.936
475.191
475.693
475.052
476.259
476.357
475.517
475.483
476.688
475.262
476.536
476.51
476.022
475.153
474.778
474.824
475.508
475.575
475.053
476.291
474.907
476.025
475.436
475.755
475.258
476.469
476.325
474.982
476.11
475.43
475.869
475.271
476.488
476.601
475.862
475.838
476.961
475.595
476.78
476.769
474.697
474.567
474.661
474.566
474.906
474.869
474.736
474.593
474.759
474.873
474.72
474.848
476.085
475.013
475.545
475.208
475.686
475.229
475.901
476.561
475.596
476.757
475.712
476.603
475.497
476.716
476.444
475.394
475.573
476.438
475.433
476.215
476.608
476.501
476.098
475.134
475.521
475.977
476.542
475.487
476.371
475.154
475.679
475.34
475.851
475.437
476.085
476.81
475.94
477.034
476.07
476.852
475.833
476.979
476.674
475.519
475.829
476.606
475.673
476.373
476.837
474.988
475.112
474.982
475.061
474.96
476.164
476.013
476.322
477.213
475.862
476.484
476.781
476.059
476.168
476.407
475.835
475.369
476.15
476.002
475.894
476.204
476.429
476.838
476.689
476.266
477.317
476.496
476.59
476.576
476.901
476.884
476.869
477.687
477.428
476.779
477.269
477.208
477.856
477.113
477.677
476.767
477.407
477.251
477.185
477.11
477.836
477.988
477.572
478.309
477.558
478.152
477.38
478.136
477.739
477.44
476.809
477.288
477.242
477.873
477.15
477.455
476.589
476.624
476.643
476.969
476.989
476.944
478.035
477.591
478.331
477.676
478.171
477.446
478.189
477.746
476.815
477.484
477.324
477.265
477.174
477.909
475.779
475.575
475.85
476.096
476.225
476.474
475.905
475.466
476.253
476.095
475.96
476.244
476.471
476.894
476.744
476.309
476.911
476.884
477.125
477.117
476.992
477.139
477.188
477.034
476.968
476.855
475.802
476.034
476.052
475.887
475.803
476.127
476.07
475.952
475.884
475.772
475.838
475.289
475.965
475.404
475.354
475.803
475.028
475.5
474.697
475.104
475.33
475.149
475.26
475.506
474.899
474.837
475.067
475.371
476.626
475.558
475.341
476.058
475.818
475.064
477.213
476.629
477.557
476.641
477.378
476.419
477.386
476.471
475.546
475.566
475.591
475.858
476.002
476.025
476.891
476.296
475.778
476.614
476.132
477.069
476.372
476.953
476.366
476.665
475.809
477.124
476.198
476.431
476.937
476.317
475.795
476.625
476.161
477.089
476.395
476.634
475.642
475.615
475.688
475.941
476.138
476.1
475.11
475.607
474.794
475.167
475.444
475.199
475.316
475.59
475.455
476.75
475.682
475.493
476.151
475.943
475.157
474.984
474.919
475.177
474.47
474.642
474.675
474.514
474.496
476.368
475.497
476.687
475.515
476.517
475.288
476.532
475.706
474.664
475
474.622
475.377
474.836
475.315
476.084
475.223
474.801
475.875
475.054
476.265
475.637
476.331
476.111
475.432
474.983
476.488
475.862
475.283
476.611
475.841
476.964
475.869
476.771
475.606
476.792
476.032
474.829
475.164
474.782
475.576
475.064
475.502
476.307
475.447
474.912
476.049
475.269
476.489
475.772
474.874
474.909
474.748
474.702
474.582
474.881
474.753
474.739
474.859
474.567
476.451
475.585
476.435
475.389
476.611
475.452
476.214
476.283
475.298
475.945
475.025
476.329
475.282
475.84
476.074
475.208
475.004
475.548
475.235
475.889
475.69
476.825
477.038
476.072
475.946
476.984
476.866
475.841
476.683
475.825
476.604
475.512
476.839
475.667
476.36
476.525
475.527
476.126
475.145
476.565
475.5
475.994
476.389
475.351
475.157
475.688
475.447
476.086
475.864
475.054
474.965
474.783
474.801
476.206
476.84
476.431
476.264
476.699
475.706
475.51
475.747
476.18
477.22
476.011
476.336
476.465
476.806
475.86
476.05
476.173
476.411
477.68
477.41
477.26
476.774
477.843
477.199
477.11
477.989
478.312
477.567
477.576
478.143
478.156
477.375
477.304
476.579
476.493
476.578
476.887
476.847
476.892
477.685
477.268
477.437
476.783
477.861
477.11
477.21
478.055
478.338
477.68
477.61
478.197
478.19
477.453
477.761
477.489
477.322
476.815
477.914
477.28
477.176
477.756
477.286
477.452
476.802
477.888
477.156
477.247
477.47
476.652
476.595
476.624
477.006
476.944
476.976
475.902
476.25
475.443
475.96
476.083
476.248
476.899
476.483
476.31
476.757
476.244
477.349
476.165
476.471
476.604
476.891
475.958
475.77
475.578
475.847
476.1
476.226
476.487
477.118
477.129
476.984
476.912
476.965
476.854
476.93
475.121
474.941
474.948
475.313
475.442
475.998
475.835
475.386
475.407
475.566
476.675
475.384
476.087
475.072
475.884
474.948
474.866
475.131
475.576
474.767
475.084
475.149
475.405
475.201
475.3
475.568
476.719
475.413
475.916
475.432
475.635
476.129
475.12
474.792
475.582
475.424
475.095
475.152
474.9
475.168
474.959
474.987
475.197
475.033
474.982
475.003
475.219
476.41
475.259
475.625
474.785
475.672
474.708
474.568
475.32
475.146
474.789
474.611
474.749
474.928
474.578
474.72
475.345
475.166
474.799
474.766
474.71
474.97
475.918
475.093
475.511
475.403
475.301
476.054
474.928
476.4
475.145
476.223
475.805
474.832
475.295
475.125
476.178
475.927
475.667
476.355
474.696
474.813
475.004
474.801
474.648
475.445
475.261
474.88
474.798
474.997
474.681
474.649
475.431
475.246
474.787
474.871
474.992
475.264
475.284
475.396
476.745
475.761
475.753
476.012
476.015
475.314
474.798
474.959
475.431
474.885
475.41
474.992
475.284
475.318
475.344
475.07
475.34
476.385
476.003
476.415
475.908
475.103
475.3
475.354
476.275
475.631
475.798
476.011
475.686
476.538
475.449
476.751
475.519
476.57
476.292
475.032
475.521
474.857
475.477
474.961
476.873
475.848
476.11
475.476
475.877
476.131
475.383
475.06
475.338
475.381
474.858
475.514
475.484
475.027
474.953
475.342
475.389
475.053
475.612
475.916
475.606
476.067
476.176
476.421
476.217
476.864
476.452
476.707
476.289
475.74
475.533
475.803
476.218
475.407
475.875
476.053
475.934
477.33
476.13
476.601
476.247
476.402
476.873
475.926
476.239
476.877
476.468
476.738
476.295
476.103
476.208
476.463
475.443
476.235
476.08
475.885
475.943
475.59
475.843
475.763
475.853
475.939
476.875
475.745
476.742
476.707
476.834
478.196
478.026
478.939
478.159
479.178
478.898
479.944
477.289
478.942
478.097
479.191
478.272
479.953
479.07
477.108
476.857
475.916
477.208
476.4
476.488
477.573
478.995
477.643
478.598
478.954
479.993
478.562
479.543
478.152
478.609
477.724
480.005
479.128
479.56
478.691
477.322
476.916
477.568
478.065
476.879
477.361
478.023
477.863
477.823
476.9
477.802
477.427
478.272
477.407
478.214
478.171
477.911
478.758
477.778
478.622
478.348
479.177
478.903
479.947
477.211
478.237
478.028
479.046
478.271
479.959
479.077
478.25
477.311
479.052
478.166
477.182
476.966
478.063
477.526
477.335
476.807
477.907
479.999
478.561
479.551
478.081
479.102
477.649
478.646
479.14
479.573
478.701
479.112
478.229
478.668
477.784
477.657
477.863
478.518
478.413
477.811
477.701
478.369
478.168
478.729
477.88
478.121
478.319
478.582
477.733
478.543
479.094
478.822
479.098
478.682
478.952
478.683
476.504
477.096
477.391
477.634
476.609
476.944
477.241
476.777
477.143
477.04
475.866
477.515
476.419
476.324
477.161
477.511
478.034
476.935
477.893
476.791
477.294
477.238
477.993
477.484
476.836
477.955
477.268
476.807
477.626
478.387
478.476
477.797
478.342
477.668
477.755
477.016
476.374
476.329
475.58
476.377
476.331
475.568
477.618
477.083
476.941
476.5
477.37
477.223
476.596
475.707
475.776
475.519
476.501
476.805
476.625
476.669
477.086
476.882
477.462
477.954
476.745
477.217
477.816
476.794
475.895
477.158
477.069
476.435
476.353
477.52
477.334
477.627
478.196
478.207
477.469
477.494
478.054
477.054
476.81
477.34
477.935
476.638
477.218
477.77
476.86
477.19
477.119
475.905
477.584
476.471
476.405
477.426
478.298
478.32
477.737
478.154
477.565
477.598
477.143
477.413
478.033
476.881
477.864
476.709
477.311
475.768
475.835
475.563
476.576
476.897
476.707
476.757
477.343
478.094
477.602
476.953
478.047
477.383
476.914
477.489
478.336
477.964
477.396
478.207
477.615
477.263
477.199
477.458
477.674
476.446
477.911
476.761
476.969
475.913
475.996
475.794
476.788
476.965
476.83
476.918
476.415
475.681
476.628
476.968
475.799
476.26
476.45
476.43
477
476.28
475.694
476.639
475.806
476.482
475.256
476.195
476.684
476.172
476.01
475.401
475.981
475.567
475.574
476.765
475.339
476.593
476.429
476.595
476.723
475.834
477.106
477.008
476.394
476.291
477.456
476.86
477.939
477.192
477.035
477.437
476.714
477.782
476.976
476.752
477.29
477.885
476.57
477.152
477.718
477.608
478.186
477.45
477.288
478.185
477.455
478.025
476.244
476.756
476.063
475.319
476.258
475.451
476.076
475.485
476.264
476.241
476.882
475.477
476.224
476.195
477.18
476.817
477.943
477.481
477.212
476.785
477.906
477.667
477.468
478.234
478.359
477.504
477.636
478.194
477.063
476.336
477.343
477.545
476.649
476.854
477.781
477.35
477.316
478.235
477.85
477.512
477.156
478.072
477.69
478.273
477.561
477.527
478.368
477.654
478.244
476.88
478.003
477.288
477.265
477.544
476.857
477.977
477.404
477.333
478.25
477.897
477.531
477.2
478.122
477.132
476.387
477.396
477.598
476.708
476.904
477.839
476.313
475.542
476.328
476.959
475.529
476.279
476.289
476.44
477.008
477.529
477.322
476.848
476.556
477.16
476.453
477.016
477.563
477.329
476.873
476.558
477.186
475.677
476.954
476.6
476.38
476.44
476.22
475.776
477.188
476.161
477.255
477.261
476.717
476.716
477.74
477.524
477.241
477.594
478.247
477.065
477.7
478.075
477.507
477.578
477.214
478.225
477.048
478.055
477.68
477.845
478.566
478.178
478.561
478.019
478.392
478.014
477.64
477.575
477.254
478.262
477.108
477.719
478.119
477.335
477.265
476.249
477.347
476.794
476.808
477.812
477.892
478.585
478.197
478.587
478.042
478.434
478.047
477.582
477.667
477.294
478.288
477.134
478.129
477.743
475.73
477.052
476.676
476.491
476.514
476.34
475.835
476.677
475.797
476.984
477.073
476.247
476.319
477.436
476.945
477.262
476.717
477.861
476.541
477.699
477.118
476.969
477.378
476.802
477.88
476.641
477.73
477.121
477.228
478.143
478.126
477.532
477.983
477.398
477.375
477.379
477.127
476.849
478.005
476.679
477.844
477.295
477.181
477.538
476.968
478.067
476.817
477.909
477.336
477.443
478.321
478.331
477.79
478.162
477.612
477.613
477.143
476.784
477.448
477.919
476.748
477.184
477.876
477.016
477.306
476.308
477.535
476.598
477.749
476.818
477.42
478.202
477.596
478.306
477.462
478.16
477.567
477.296
477.831
478.186
477.265
478.036
477.117
477.447
477.18
477.423
476.415
477.645
476.729
477.877
476.952
477.633
478.379
477.857
478.511
477.678
478.335
477.805
477.497
477.96
478.371
477.425
478.203
477.267
477.657
476.426
477.511
476.979
477.303
476.833
477.143
476.531
478.173
478.136
477.9
478.746
477.743
478.587
478.333
478.157
478.105
478.72
477.876
478.568
477.716
478.311
478.474
479.056
479.037
478.79
478.888
478.641
478.623
477.924
477.878
476.981
477.89
477.485
478.329
477.496
478.514
479.068
479.081
478.811
478.92
478.657
478.671
478.222
478.192
478.797
477.963
478.625
477.798
478.386
476.498
477.612
477.093
477.385
476.934
477.222
476.607
475.64
476.593
476.371
476.933
475.758
476.429
476.202
477.506
477.213
478.222
477.578
477.677
477.046
478.055
477.848
478.179
478.56
478.565
478.014
478.018
478.396
477.191
477.252
476.154
477.286
476.711
477.739
476.737
477.536
478.256
477.252
477.634
477.701
478.094
477.088
477.892
478.199
478.589
478.587
478.047
478.042
478.438
477.591
477.294
478.29
477.682
477.744
477.143
478.143
477.661
477.568
478.27
477.264
477.716
478.122
477.113
477.345
477.266
477.358
476.231
476.818
477.816
476.794
475.72
476.672
476.484
477.048
475.83
476.517
476.323
476.97
476.802
477.883
477.38
477.122
476.644
477.732
477.233
478.134
477.538
478.143
477.383
477.989
477.396
476.681
477.071
475.796
476.991
476.327
477.44
476.256
476.955
477.865
477.276
476.722
477.71
477.117
476.558
477.453
478.331
477.794
478.343
477.614
478.172
477.629
477.151
476.877
477.218
475.941
476.491
477.607
476.426
477.434
477.155
478.051
476.895
477.882
477.327
476.718
477.415
477.599
478.307
478.197
477.569
477.455
478.155
477.294
478.183
477.262
477.814
477.446
478.029
477.108
477.13
477.917
476.784
477.46
477.174
477.874
476.746
477.005
477.515
477.326
476.311
477.745
476.796
476.604
477.514
478.376
477.429
477.984
477.662
478.229
477.276
477.63
477.361
478.118
476.965
477.399
478.076
476.92
477.478
477.212
477.681
476.442
477.923
476.977
476.763
476.459
476.982
477.308
477.527
476.544
476.835
477.164
478.476
479.046
478.794
479.064
478.63
478.89
478.647
477.862
477.815
477.825
476.905
478.276
477.42
477.422
478.171
478.764
478.143
477.921
478.584
478.346
477.745
478.251
478.809
477.973
478.224
478.397
478.657
477.827
478.206
478.24
478.795
477.941
478.656
478.374
477.8
477.914
477.952
477.924
476.999
478.363
477.525
477.506
476.452
475.69
476.645
477.001
476.475
475.812
476.28
477.028
476.46
476.303
475.706
476.654
476.498
475.816
475.248
476.683
476.169
476.182
475.984
476.008
475.382
478.017
476.919
477.271
477.103
477.474
477.846
476.753
477.039
477.308
477.939
476.766
477.775
476.6
477.208
478.285
477.712
477.543
477.368
478.275
478.108
477.537
475.615
476.85
475.611
476.666
475.382
476.49
476.659
476.815
476.296
476.109
475.353
476.305
476.124
475.489
475.477
476.241
476.88
476.257
476.2
475.461
476.219
478.464
477.773
477.739
477.553
478.322
478.28
477.59
477.108
477.343
477.588
476.354
477.822
476.663
476.893
478.316
477.373
477.591
477.416
477.903
478.142
477.202
475.865
476.919
475.676
476.885
475.591
476.693
476.72
477.059
476.459
477.557
477.351
477.172
476.886
476.582
477.707
477.599
477.702
478.064
478.189
478.054
478.536
478.077
478.558
478.421
478.7
478.56
478.899
479.04
478.539
478.048
478.526
478.503
478.485
478.963
479.002
478.869
478.967
478.839
479.304
479.476
479.341
479.442
478.662
478.509
478.012
478.506
478.359
478.853
479.004
479.044
479.038
478.892
479.242
479.55
479.401
479.391
478.923
478.814
478.778
479.262
479.446
479.411
479.298
479.666
479.878
479.965
479.854
479.826
479.717
479.804
478.548
478.041
478.687
478.392
478.519
478.866
479.028
477.876
478.483
478.472
478.329
478.316
478.796
478.949
478.793
478.785
478.635
479.11
479.413
479.269
479.259
478.013
478.664
478.507
478.504
478.356
478.848
479.003
479.017
479.007
478.843
479.192
479.535
479.369
479.356
478.76
478.751
478.608
479.094
479.384
479.243
479.24
479.44
479.755
479.787
479.741
479.614
479.591
479.598
477.773
477.681
478.119
477.796
478.253
478.157
478.594
478.8
478.807
478.661
479.136
479.422
479.279
479.283
477.945
478.53
478.369
478.579
478.421
478.845
479.002
479.033
479.042
478.884
479.234
479.548
479.384
479.398
478.125
478.737
478.651
478.576
478.493
478.93
479.094
479.478
479.767
479.8
479.803
479.627
479.625
479.649
478.905
478.913
478.749
479.183
479.511
479.34
479.352
478.84
478.961
478.803
479.277
479.468
479.315
479.434
477.906
478.132
478.122
478.367
478.352
478.592
478.822
478.83
478.444
479.066
478.669
478.91
479.137
479.296
478.815
478.918
478.776
479.259
479.44
479.296
479.402
479.598
479.805
479.797
479.938
479.645
479.765
479.753
478.422
478.79
479.04
478.647
478.892
479.124
479.268
479.386
479.368
479.219
479.453
479.788
479.623
479.608
478.59
478.129
478.632
478.559
478.594
479.023
479.059
478.84
478.481
479.076
478.706
478.94
479.166
479.305
477.985
478.187
478.21
478.419
478.447
478.646
478.877
479.632
479.817
479.862
479.953
479.68
479.776
479.81
478.956
479.09
478.915
479.349
479.571
479.394
479.527
479.396
479.412
479.246
479.485
479.804
479.633
479.659
478.525
478.947
479.129
478.773
478.954
479.2
479.377
479.007
479.021
478.851
479.204
479.535
479.359
479.379
478.756
478.762
478.612
479.097
479.39
479.245
479.248
479.449
479.791
479.745
479.791
479.603
479.634
479.601
477.699
477.74
477.612
478.195
478.057
478.104
478.545
478.613
478.71
478.083
478.547
478.444
478.899
479.069
478.474
477.881
478.518
478.318
478.365
478.799
478.954
478.883
478.865
478.706
479.149
479.493
479.33
479.306
478.74
478.65
478.132
478.593
478.499
478.946
479.097
479.498
479.805
479.816
479.802
479.658
479.645
479.659
478.918
478.928
478.767
479.208
479.523
479.361
479.368
478.114
478.626
478.48
478.722
478.577
478.93
479.077
477.799
477.728
478.173
477.815
478.271
478.194
478.632
478.893
478.911
478.748
479.192
479.502
479.341
479.357
478.009
478.616
478.449
478.629
478.467
478.901
479.064
479.599
479.801
479.948
479.84
479.76
479.647
479.786
478.79
479.048
478.422
478.644
478.901
479.127
479.275
479.376
479.394
479.217
479.454
479.797
479.616
479.637
478.525
478.569
478.052
478.488
478.528
478.965
479.003
479.057
478.912
478.868
479.304
479.544
479.351
479.495
478.121
477.917
478.155
478.355
478.597
478.393
478.826
478.903
479.096
478.478
478.914
478.725
479.157
479.343
479.102
478.992
478.952
479.385
479.586
479.542
479.43
479.425
479.425
479.278
479.518
479.819
479.674
479.662
478.957
479.138
478.556
478.808
478.983
479.234
479.39
478.975
479.069
478.93
479.37
479.557
479.419
479.51
478.677
478.196
478.631
478.692
478.654
479.083
479.126
478.922
478.545
478.79
479.124
478.985
479.223
479.364
478.05
478.25
478.491
478.251
478.501
478.688
478.931
473.537
471.945
470.61
473.626
472.068
470.784
473.609
472.037
470.752
473.623
472.014
470.646
473.679
472.109
470.784
473.695
472.141
470.832
473.711
472.162
470.871
474.481
473.119
471.984
474.677
473.364
472.29
474.901
473.648
472.579
473.683
472.113
470.787
474.855
473.598
472.524
474.665
473.345
472.215
474.529
473.162
472.026
473.558
471.941
470.55
473.636
472.013
470.635
474.396
473.027
471.884
474.605
473.291
472.216
476.578
475.81
475.22
474.663
473.347
472.22
474.533
473.166
472.021
473.632
472.064
470.735
473.663
472.097
470.799
473.591
471.966
470.582
473.496
471.841
470.422
473.5
471.846
470.428
473.482
471.831
470.416
473.597
471.973
470.587
473.688
472.139
470.862
473.713
472.156
470.859
473.668
472.103
470.823
474.24
472.843
471.705
474.343
472.977
471.855
473.483
471.834
470.417
473.571
471.95
470.568
473.609
472
470.632
473.732
472.168
470.848
473.422
471.77
470.357
473.515
471.878
470.484
473.467
471.821
470.414
473.52
471.885
470.489
473.58
471.962
470.582
473.804
472.248
470.944
474.5
473.135
471.989
473.802
472.251
470.954
474.525
473.159
472.014
473.572
471.991
470.686
473.574
471.988
470.677
473.629
472.033
470.649
473.608
472.035
470.725
473.623
472.042
470.709
473.643
472.068
470.766
473.681
472.12
470.827
473.664
472.1
470.805
474.256
472.859
471.722
474.372
473.011
471.912
473.711
472.152
470.841
473.738
472.184
470.889
474.671
473.356
472.283
475.861
474.839
473.982
475.689
474.611
473.734
475.88
474.857
473.999
475.703
474.625
473.745
475.3
474.291
473.528
475.308
474.296
473.529
474.493
473.121
471.973
473.736
472.179
470.878
474.533
473.167
472.035
473.724
472.145
470.805
473.831
472.283
470.99
473.456
471.805
470.386
473.632
472.036
470.691
473.651
472.038
470.657
473.537
471.884
470.474
473.553
471.934
470.55
474.213
472.802
471.643
474.395
473.038
471.952
474.319
472.91
471.743
473.637
472.015
470.636
474.606
473.294
472.227
475.842
474.819
473.958
475.673
474.59
473.708
476.117
475.154
474.343
476.102
475.142
474.335
475.643
474.558
473.687
475.768
474.72
473.855
476.101
475.132
474.326
474.494
473.135
472.004
474.683
473.372
472.299
475.88
474.857
474.001
475.704
474.626
473.751
476.574
475.813
475.234
476.578
475.812
475.227
475.299
474.29
473.526
475.307
474.296
473.528
474.467
473.093
471.942
473.727
472.172
470.87
474.515
473.162
472.059
474.504
473.149
472.03
473.718
472.14
470.805
473.82
472.27
470.971
473.457
471.807
470.387
473.596
472.019
470.709
473.653
472.089
470.801
473.628
472.033
470.696
473.538
471.885
470.473
473.551
471.932
470.547
474.309
472.897
471.724
473.727
472.158
470.85
474.214
472.801
471.646
474.416
473.052
471.953
474.276
472.875
471.734
475.818
474.794
473.931
475.643
474.561
473.677
476.111
475.152
474.346
476.095
475.126
474.321
476.101
475.143
474.34
475.649
474.568
473.7
475.781
474.739
473.884
475.631
474.549
473.673
474.688
473.377
472.313
475.71
474.634
473.76
476.573
475.81
475.228
474.518
473.15
472.007
473.685
472.108
470.773
473.814
472.262
470.958
473.707
472.133
470.795
473.824
472.277
470.989
473.578
471.987
470.669
473.561
471.969
470.623
473.579
471.991
470.683
473.611
472.028
470.691
473.633
472.057
470.751
473.621
472.04
470.705
473.631
472.054
470.75
473.613
472.048
470.718
473.647
472.088
470.794
474.334
472.973
471.872
473.73
472.178
470.891
473.724
472.17
470.872
475.878
474.858
474.006
475.697
474.618
473.739
474.455
473.087
471.942
474.659
473.344
472.275
475.692
474.614
473.739
474.671
473.359
472.291
473.448
471.835
470.484
473.53
471.939
470.675
473.637
472.106
470.895
473.503
471.937
470.62
473.425
471.802
470.428
473.522
471.928
470.66
473.53
471.926
470.581
473.521
471.917
470.573
473.598
472.018
470.688
473.864
472.372
471.193
473.888
472.402
471.177
473.953
472.489
471.349
473.428
471.816
470.479
473.497
471.895
470.635
473.443
471.857
470.543
473.507
471.922
470.666
473.425
471.789
470.389
473.458
471.841
470.457
473.619
472.009
470.641
473.742
472.182
470.863
473.629
472.046
470.712
473.84
472.357
471.19
473.895
472.414
471.199
473.952
472.494
471.362
473.757
472.2
470.912
473.635
472.053
470.759
473.736
472.178
470.895
473.649
472.069
470.787
474.11
472.664
471.502
474.421
473.058
471.961
473.418
471.812
470.486
473.499
471.901
470.632
473.529
471.942
470.679
473.443
471.856
470.538
473.442
471.81
470.413
473.468
471.851
470.468
473.698
472.151
470.84
473.55
471.957
470.587
473.874
472.396
471.228
473.841
472.369
471.171
473.951
472.499
471.374
473.684
472.119
470.822
473.571
471.974
470.669
473.72
472.179
470.905
473.803
472.276
471.005
473.609
472.029
470.694
473.652
472.098
470.837
473.593
472.022
470.712
473.814
472.28
470.964
473.846
472.329
471.073
473.85
472.344
471.111
473.817
472.304
471.042
474.007
472.535
471.358
473.917
472.417
471.158
473.909
472.402
471.14
473.77
472.221
470.918
474.81
473.531
472.474
474.879
473.627
472.623
475.006
473.781
472.782
474.749
473.467
472.424
474.59
473.278
472.214
474.647
473.336
472.274
474.452
473.097
471.99
474.557
473.227
472.18
474.856
473.584
472.518
475.07
473.845
472.828
475.096
473.872
472.851
474.575