/*--------------------------------*- C++ -*----------------------------------*\
| =========                 |                                                 |
| \\      /  F ield         | OpenFOAM: The Open Source CFD Toolbox           |
|  \\    /   O peration     | Version:  v1906                                 |
|   \\  /    A nd           | Web:      www.OpenFOAM.com                      |
|    \\/     M anipulation  |                                                 |
\*---------------------------------------------------------------------------*/
FoamFile
{
    version     2.0;
    format      ascii;
    class       volScalarField;
    location    "73";
    object      k;
}
// * * * * * * * * * * * * * * * * * * * * * * * * * * * * * * * * * * * * * //

dimensions      [0 2 -2 0 0 0 0];


internalField   nonuniform List<scalar> 
78750
(
0.00535985
0.0202328
0.0370417
0.0481444
0.0537743
0.0563201
0.0568573
0.0558829
0.0529778
0.0489649
0.0449809
0.0415969
0.0384249
0.0359726
0.0344966
0.0339357
0.0338602
0.0325521
0.0330538
0.0263885
0.0145866
0.00766467
0.00521594
0.00603088
0.00614743
0.00534418
0.00490031
0.00418844
0.00435629
0.00300417
0.00496278
0.0141665
0.0184225
0.0184298
0.0181808
0.0274198
0.0403703
0.026594
0.0256146
0.0261518
0.0248126
0.0219274
0.017675
0.0142963
0.0135563
0.0126181
0.01167
0.0119136
0.0129293
0.0125305
0.0118627
0.00883534
0.00838561
0.00679779
0.00596317
0.00481913
0.00669198
0.00763968
0.0100791
0.00865535
0.00836169
0.00660566
0.00705073
0.00376813
0.00578739
0.00465666
0.00413708
0.00556234
0.00148608
0.000814434
0.0411293
0.0603165
0.0630327
0.0619101
0.0589194
0.0558406
0.0534155
0.0514469
0.0489824
0.0459953
0.0421514
0.0354786
0.0235966
0.0159376
0.0134574
0.0160677
0.0188479
0.0197861
0.019561
0.0189351
0.0186378
0.0183043
0.018306
0.0185001
0.0178127
0.0174084
0.0172163
0.0165945
0.0123652
0.00975141
0.0062602
0.00513874
0.00354234
0.00721137
0.0142442
0.0419213
0.0563276
0.0600679
0.0601375
0.0571228
0.052196
0.046337
0.0395709
0.0313045
0.0217067
0.00995519
0.00110198
0.00113007
0.001905
0.00201697
0.00720511
0.0111489
0.0133992
0.01435
0.0138701
0.0125755
0.0102498
0.00754318
0.00401918
0.00581575
0.00820929
0.00882084
0.00778113
0.00492129
0.00495376
0.00429895
0.00190599
0.00108456
0.00435248
0.00832236
0.0382939
0.0489377
0.0532646
0.0563001
0.0576958
0.0573799
0.055868
0.0534311
0.0505136
0.0474394
0.0441606
0.0404593
0.0365463
0.0329628
0.0304236
0.0290654
0.0287401
0.029243
0.0303675
0.0314948
0.0318104
0.0302254
0.0268535
0.0220165
0.0168146
0.0121545
0.0104407
0.0100435
0.00856189
0.00604082
0.00176701
5.75715e-05
0.00389096
2.31024e-05
0.00031078
0.03063
0.0397666
0.0431906
0.0457413
0.048418
0.0490535
0.0482314
0.0475094
0.0465514
0.0455023
0.0443989
0.0432171
0.0418988
0.0405299
0.0392618
0.0383067
0.0377508
0.0375497
0.0376067
0.0378543
0.0383018
0.0380328
0.036143
0.0324735
0.0282184
0.020776
0.0139193
0.00825787
0.00529421
0.00776738
0.00952199
0.00874601
0.0109513
0.0146734
0.0259752
0.0410654
0.0487925
0.0521642
0.0527248
0.0360534
0.0402436
0.0416651
0.0400033
0.0395384
0.0396236
0.0392195
0.0387655
0.0381665
0.0375653
0.0369633
0.0368071
0.0367553
0.0369891
0.0371017
0.0371971
0.036773
0.0350902
0.0307237
0.0257982
0.021512
0.015788
0.00831728
0.00989826
0.0168216
0.0204153
0.0219119
0.0222008
0.0212776
0.0200857
0.0247692
0.0233511
0.0379899
0.0396531
0.0236643
0.0162939
0.0316831
0.0329323
0.0271573
0.0252574
0.0221558
0.01929
0.0163873
0.0147584
0.0127599
0.0111112
0.0102636
0.00917089
0.00901104
0.00822291
0.00804186
0.00641882
0.00540988
0.0045151
0.003135
0.00147081
0.00116192
0.000189122
0.00102872
0.00346518
0.00838646
0.0103792
0.0140038
0.0181263
0.0229092
0.0225747
0.017031
0.029428
0.0334841
0.0313706
0.0209207
0.01115
0.00202378
0.000430616
0.000136241
0.00339224
0.0117399
0.0169903
0.0179729
0.01887
0.0186732
0.0184656
0.0180287
0.017631
0.0169627
0.016004
0.0145935
0.0132574
0.0124365
0.0112827
0.0111751
0.0113819
0.0128688
0.0156928
0.0187443
0.0199903
0.0190591
0.015777
0.016166
0.0266075
0.0228042
0.0156481
0.0393335
0.0434591
0.0440678
0.0419831
0.0378333
0.031276
0.0232482
0.0187707
0.0163479
0.0153274
0.0169956
0.0203017
0.0242095
0.027508
0.030003
0.0319009
0.0333818
0.034511
0.0352063
0.0354984
0.0352471
0.0347827
0.0341519
0.0338096
0.0335094
0.0333614
0.0334714
0.0337132
0.0338835
0.0341058
0.0283699
0.0212322
0.0368181
0.0191862
0.0227177
0.0373126
0.0404556
0.0420608
0.0429487
0.0432981
0.0427897
0.0413294
0.0398327
0.0387786
0.0379869
0.0377445
0.0379738
0.0385607
0.0391696
0.0397829
0.0401451
0.0403122
0.0400379
0.0398498
0.0387879
0.037954
0.037319
0.0355656
0.0329456
0.0310268
0.026598
0.0171973
0.0092654
0.0136521
0.0230622
0.027237
0.0296393
0.0333623
0.0133229
0.0114292
0.0110026
0.0109884
0.0112281
0.0116536
0.0124729
0.0135701
0.0147494
0.0158044
0.0167207
0.0174707
0.0179849
0.0185333
0.0185743
0.0189211
0.01859
0.018349
0.0182339
0.0177567
0.0163377
0.0160558
0.0131272
0.00881457
0.00697824
0.00176917
0.00866183
0.0209964
0.0294272
0.0324433
0.0329786
0.0326719
0.0317697
0.0281276
0.021093
0.0179094
0.00352312
0.00471
0.00492255
0.00466989
0.00435732
0.00416614
0.00415342
0.00428467
0.00447955
0.0046915
0.00488271
0.00502658
0.00509433
0.0051187
0.00517402
0.00454018
0.00369289
0.00248679
0.00117668
0.00249839
0.0115238
0.0264829
0.0386709
0.0441811
0.0452718
0.0450061
0.0443287
0.0432536
0.041707
0.0393732
0.0345786
0.0266711
0.0158875
0.00711271
0.0637658
0.00492905
0.00624009
0.00572249
0.00489665
0.00458346
0.00478977
0.00525441
0.00560497
0.00563728
0.00543803
0.00508779
0.00463528
0.00406332
0.00322956
0.00204406
0.0011818
0.00238681
0.00687387
0.0156495
0.0292264
0.0438758
0.0544071
0.0593419
0.0607591
0.0604686
0.0590848
0.0569613
0.0543051
0.0507838
0.0452623
0.0367874
0.0281952
0.0245707
0.0325811
0.0844805
0.00902118
0.00633365
0.00415991
0.0034508
0.00508652
0.00604916
0.00596329
0.00575261
0.00547601
0.00511636
0.00465959
0.00409283
0.00339789
0.00259055
0.001844
0.00163898
0.00268458
0.00556751
0.0110586
0.0195609
0.029734
0.0388707
0.0456718
0.0508292
0.0550833
0.0584179
0.0603719
0.0604324
0.0584153
0.0545098
0.0492547
0.0448373
0.0448145
0.0511551
0.0696857
0.00742878
0.00485968
0.0037569
0.00457647
0.00568222
0.00566531
0.00567945
0.00563945
0.00548616
0.00521264
0.00482665
0.00432798
0.00371832
0.00302466
0.00234374
0.00187984
0.00187472
0.00245992
0.00379996
0.00626755
0.00997605
0.0144628
0.0192253
0.024283
0.0299102
0.0362568
0.0432384
0.0504048
0.0566339
0.0602425
0.0605394
0.0590769
0.0578684
0.0571655
0.0537351
0.00652677
0.00538336
0.00426624
0.00348747
0.00409694
0.00464102
0.00502791
0.00535036
0.00551897
0.00550412
0.00533872
0.00505592
0.0046716
0.00418681
0.0036068
0.00298226
0.00243683
0.00212975
0.00213109
0.00242323
0.003003
0.00390573
0.00516561
0.00688309
0.00928354
0.0127039
0.0175498
0.0241304
0.0322159
0.0406034
0.0472239
0.0505812
0.0509003
0.0484492
0.0372426
0.00547713
0.00553751
0.00491298
0.00397475
0.00297541
0.00299208
0.0031749
0.00382258
0.00464992
0.005202
0.00545573
0.00548514
0.00534835
0.00508518
0.0047176
0.00425186
0.0036951
0.00310135
0.00258086
0.00225085
0.00213838
0.00218013
0.00231144
0.00252367
0.00286697
0.00345295
0.00447719
0.00623953
0.00907685
0.0130757
0.0177011
0.0220792
0.0253388
0.0259196
0.0224523
0.00502749
0.00619946
0.00644148
0.00634181
0.00565087
0.00416835
0.00255004
0.00156258
0.00248661
0.00383086
0.00474028
0.00522575
0.00543942
0.00547617
0.00538561
0.00519508
0.00491614
0.00454595
0.00407584
0.00352383
0.00296888
0.00252598
0.00225431
0.00211698
0.00204983
0.00202102
0.00203728
0.00214586
0.00246446
0.00324347
0.00470782
0.00663007
0.00942953
0.0116922
0.0139762
0.00464551
0.0064643
0.00687691
0.00691966
0.00675475
0.00613444
0.00434767
0.00139392
0.00090688
0.00236614
0.00370868
0.00457657
0.00506142
0.00530295
0.00539481
0.0053803
0.00527849
0.0050991
0.00484371
0.00450206
0.00406063
0.00353399
0.00299674
0.00255209
0.00224323
0.00203413
0.00187123
0.00172095
0.00159606
0.00165967
0.00227091
0.0033638
0.00477313
0.006488
0.00917298
0.00549656
0.00661864
0.00683557
0.00681185
0.00659907
0.00609972
0.00511601
0.00346155
0.00227159
0.00273288
0.00342226
0.0041067
0.00463848
0.00499465
0.00520744
0.00531027
0.00532517
0.0052642
0.00513519
0.00494226
0.00468227
0.00434358
0.00391813
0.00343071
0.00295452
0.00256207
0.00226598
0.00203086
0.00181864
0.00165758
0.00178409
0.00253292
0.00359228
0.0047138
0.00661783
0.00556972
0.00653553
0.00691116
0.00717206
0.00737667
0.00751708
0.00754591
0.00726956
0.00627358
0.00509075
0.00439441
0.00414272
0.00420588
0.00444304
0.00472577
0.00496457
0.00511913
0.00518459
0.0051694
0.00508276
0.00493004
0.00471043
0.00441743
0.0040477
0.00361914
0.00318279
0.00279882
0.00249451
0.00225553
0.00205381
0.00192498
0.00213747
0.0029664
0.00385484
0.00545988
0.0044218
0.00675567
0.00752601
0.00793242
0.00825755
0.0085797
0.00890146
0.00918525
0.009316
0.00892841
0.00793715
0.00671448
0.00559235
0.00476402
0.00432859
0.00426392
0.00443356
0.00466179
0.00483324
0.00491142
0.00489611
0.00479438
0.00461061
0.00434606
0.00400488
0.00360733
0.00319623
0.00282105
0.00251325
0.00227673
0.00210299
0.00209195
0.0027033
0.0034972
0.0049819
0.00429514
0.00666949
0.00748724
0.00778706
0.00792123
0.00800409
0.00810531
0.00832499
0.00877244
0.00935806
0.00975865
0.00972926
0.00913494
0.00799688
0.00659546
0.00528928
0.00439554
0.00405969
0.00413689
0.00434478
0.00450737
0.00457384
0.00453937
0.00440893
0.00419081
0.00389861
0.00355587
0.00319528
0.00284939
0.00254091
0.00227188
0.00203898
0.00241666
0.0031975
0.00484676
0.0063826
0.00755297
0.00790394
0.00807123
0.00823238
0.00845267
0.00866843
0.00875578
0.00874204
0.00883434
0.00912976
0.0094639
0.0096613
0.00963398
0.0092536
0.00827613
0.00676332
0.00523311
0.00422967
0.00392418
0.00400508
0.00414878
0.00423325
0.00423306
0.00414802
0.00398684
0.00376376
0.00349805
0.00321283
0.00292501
0.00260511
0.00217247
0.0023975
0.00330097
0.00537812
0.00891484
0.00861674
0.00839879
0.00835578
0.00856779
0.00911811
0.00980474
0.0102975
0.0104595
0.0103439
0.0100905
0.00986672
0.0097276
0.00961818
0.00947924
0.0092467
0.00875632
0.00765177
0.00599446
0.0045643
0.00393259
0.0038728
0.00395539
0.00401101
0.00400079
0.00391712
0.00376256
0.00354525
0.00327363
0.00291939
0.00243639
0.00223981
0.00285509
0.00391275
0.0059504
0.008858
0.00795519
0.00763982
0.00759696
0.00795492
0.00873115
0.0096709
0.0104916
0.0110443
0.011323
0.011361
0.0111887
0.0108537
0.0104451
0.010044
0.00967128
0.00929349
0.00880667
0.00793963
0.00638334
0.00475034
0.00392325
0.00377649
0.00381956
0.00385217
0.0038255
0.00372948
0.00356683
0.00333826
0.00301485
0.00263123
0.00268451
0.00326946
0.00414935
0.00581716
0.00742144
0.00734123
0.00728253
0.00729869
0.00751959
0.00798429
0.00871383
0.00962528
0.010484
0.0111337
0.0115427
0.011727
0.0117046
0.0114869
0.0110994
0.0106078
0.0100882
0.00956496
0.0089803
0.00814491
0.00672126
0.00503662
0.00409238
0.00385885
0.00383824
0.00382277
0.0037501
0.00359561
0.0033438
0.00298322
0.00268881
0.00302257
0.00374692
0.00448617
0.00564805
0.00650274
0.00772278
0.00769226
0.00736719
0.00686714
0.00633579
0.00620819
0.00693577
0.00825369
0.00957726
0.0106112
0.0113085
0.0117082
0.0118584
0.0117942
0.0115384
0.0111163
0.0105704
0.00993984
0.0092052
0.00822425
0.00674968
0.00506316
0.00403945
0.00373532
0.00368996
0.00366745
0.00359281
0.00343587
0.00318718
0.00295927
0.00320202
0.00383386
0.00436111
0.00506187
0.00702532
0.00825182
0.00827051
0.00798613
0.007458
0.00651317
0.00511162
0.00427106
0.00499657
0.0066889
0.00847546
0.00993977
0.0109643
0.0115913
0.0119033
0.0119695
0.0118354
0.0115296
0.0110734
0.0104792
0.00972339
0.00869457
0.00722778
0.0056191
0.00464052
0.00426814
0.00411441
0.00398431
0.00381231
0.00358376
0.00332369
0.00324458
0.00367906
0.00417906
0.00500641
0.00798051
0.00817067
0.00819201
0.00818346
0.00809058
0.00772776
0.00665344
0.00479698
0.00369717
0.00436435
0.00604517
0.00798335
0.00967001
0.0108531
0.0115737
0.01195
0.0120743
0.0119995
0.0117534
0.0113492
0.0107835
0.0100127
0.00890718
0.00730243
0.00551077
0.00432289
0.00389032
0.00380438
0.00379159
0.00373222
0.00358852
0.00349515
0.00383603
0.00432851
0.00515556
0.00878813
0.00844504
0.00825254
0.00807293
0.00785371
0.00757747
0.00715307
0.00617579
0.00457792
0.00354698
0.00401003
0.00566076
0.00780661
0.00970314
0.0109886
0.0117493
0.0121603
0.0123305
0.0123161
0.0121463
0.0118361
0.0113872
0.0107724
0.00991111
0.00869805
0.00722225
0.00588794
0.00498124
0.00444645
0.0041104
0.00384856
0.00366721
0.00387498
0.00430961
0.0051665
0.00818431
0.00838251
0.0084105
0.00831462
0.00807775
0.00766018
0.00708285
0.00642424
0.0055209
0.00431321
0.00329797
0.00343383
0.005141
0.0075872
0.00954866
0.0107691
0.0114727
0.011865
0.0120393
0.0120333
0.0118614
0.011524
0.011005
0.0102633
0.00924955
0.00800572
0.00677475
0.00581406
0.00515555
0.00468349
0.00426766
0.0039121
0.0040575
0.00461381
0.00585013
0.00765811
0.00825953
0.00856443
0.0087232
0.00876212
0.00859263
0.00803913
0.00697713
0.00573798
0.00478091
0.0039224
0.00288218
0.00240552
0.00430543
0.00691852
0.00866941
0.00971057
0.0103491
0.0107483
0.0109552
0.0109746
0.0107989
0.0104153
0.00981297
0.009004
0.0080598
0.00711747
0.00630131
0.00564436
0.00510289
0.00460722
0.00422868
0.00438971
0.00502744
0.00642214
0.00784341
0.00831453
0.00854441
0.00867895
0.00877569
0.00879666
0.00858183
0.0077489
0.0060117
0.00432927
0.00366967
0.00350711
0.00308678
0.00316634
0.00564877
0.00746212
0.00852117
0.00917739
0.00961362
0.0098902
0.0100162
0.00998332
0.00978129
0.00940822
0.00888188
0.00824863
0.00757504
0.00691517
0.00627625
0.00562275
0.00498301
0.00462534
0.00480456
0.00540966
0.00669752
0.00857906
0.00862912
0.00864172
0.00863687
0.00861384
0.00854661
0.00833811
0.00773623
0.00633876
0.00418705
0.00265862
0.0028339
0.00415943
0.00554831
0.00679258
0.00786585
0.00863535
0.00917667
0.00954294
0.00974406
0.00978476
0.00967499
0.00942584
0.0090499
0.00856437
0.00799244
0.00736141
0.00670321
0.00607235
0.00556364
0.00523025
0.00508301
0.00517701
0.00550154
0.0060707
0.00835677
0.00841822
0.00855653
0.00867453
0.00877633
0.00884955
0.00888388
0.00886065
0.00863577
0.00776612
0.00600278
0.00398487
0.00224522
0.00111187
0.00110846
0.00260669
0.00479179
0.00662499
0.00775975
0.00846717
0.00891748
0.00916754
0.00923324
0.00912284
0.0088467
0.00841871
0.00785169
0.00715747
0.00638358
0.0057128
0.00539848
0.00533196
0.00532355
0.00538253
0.00554286
0.00794888
0.00833203
0.00856819
0.00872422
0.00885834
0.00895721
0.00891685
0.00858848
0.00798889
0.00729873
0.00653627
0.00563494
0.00470565
0.00382707
0.00293673
0.0018528
0.000910466
0.00303681
0.00510088
0.00655346
0.00756143
0.00822572
0.00862716
0.00881165
0.00880373
0.00861293
0.0082371
0.00765969
0.00686907
0.00598593
0.00541048
0.00532015
0.00538006
0.00550952
0.00585321
0.00837778
0.00852281
0.00859787
0.00867888
0.00882157
0.00908729
0.00943575
0.00959352
0.00921867
0.00814417
0.00656351
0.0049453
0.00356787
0.00238997
0.00126217
0.000358081
0.000942425
0.00385656
0.0059611
0.00707162
0.00776702
0.00831613
0.00876279
0.00905682
0.0091694
0.00910005
0.00884343
0.0083774
0.00767408
0.0067662
0.00591236
0.00546765
0.00532778
0.00531843
0.00549783
0.00923474
0.00864678
0.0085083
0.00846894
0.00847499
0.00853444
0.00867242
0.00887875
0.0090487
0.00901167
0.00859562
0.00770604
0.00652278
0.00535924
0.00432209
0.00327024
0.00200378
0.000827683
0.000755399
0.0023528
0.00458743
0.00580733
0.0066322
0.00734425
0.00790832
0.00824156
0.00834458
0.0082385
0.00791444
0.00736451
0.00668668
0.00612726
0.00580756
0.00567294
0.00598413
0.00798479
0.00815808
0.00833038
0.00848304
0.00868492
0.00897397
0.00926244
0.0093439
0.00917692
0.00886539
0.00847279
0.00796709
0.00727106
0.00637132
0.00534892
0.00432579
0.00334806
0.00226329
0.000947359
0.000307111
0.00136534
0.0046451
0.00649459
0.00736807
0.00787146
0.00820194
0.00832804
0.00821919
0.0078769
0.00731294
0.00667248
0.00624707
0.00611501
0.00618884
0.00656768
0.00882323
0.00856467
0.00840724
0.00831784
0.00830325
0.00851183
0.00908739
0.00976668
0.0101799
0.0102254
0.00993883
0.00939821
0.00868876
0.00787309
0.00699064
0.00607019
0.00511899
0.00413446
0.00300981
0.0015522
9.68988e-05
0.000263037
0.00245497
0.00537806
0.00732437
0.00831163
0.0088835
0.00907203
0.00883044
0.00821928
0.00742779
0.00675838
0.00633757
0.00600721
0.00543117
0.00896395
0.00836816
0.00824054
0.00820372
0.00820133
0.00824621
0.00843961
0.00884036
0.00930511
0.00968256
0.00991303
0.00997081
0.00983164
0.00948555
0.00895069
0.00827442
0.00750666
0.00667947
0.0057975
0.00483081
0.00371207
0.00241513
0.00129382
0.00110023
0.00288597
0.00540727
0.00679198
0.00762667
0.00809973
0.00819011
0.00791246
0.0074071
0.00681983
0.00610846
0.00536465
0.00786962
0.00803605
0.00810451
0.0081364
0.00817219
0.00827231
0.00854987
0.00901252
0.00948969
0.00986213
0.0101064
0.0102273
0.0102278
0.0101083
0.00986689
0.00950523
0.00903251
0.00846761
0.00782872
0.00712712
0.00635134
0.00544598
0.00436084
0.00302332
0.00104441
0.00162655
0.00373323
0.00517554
0.00609393
0.006652
0.00693521
0.00699607
0.00691787
0.00678751
0.00702933
0.00851549
0.00846276
0.00835578
0.00824343
0.00809324
0.00789848
0.00782169
0.00814283
0.00875945
0.00937246
0.00985066
0.0101809
0.0103723
0.0104281
0.0103474
0.0101314
0.00978751
0.00932971
0.00875799
0.00806379
0.0071846
0.00595885
0.00409193
0.0012987
0.00050897
0.00105011
0.00569691
0.00762528
0.00796385
0.00775105
0.00741176
0.00713219
0.00691988
0.00669992
0.00637237
0.00831745
0.00829023
0.00830235
0.00832659
0.00835481
0.00836142
0.00831629
0.00835058
0.00864077
0.00908874
0.00953887
0.00992257
0.010223
0.0104335
0.0105466
0.0105527
0.010442
0.0102014
0.00980852
0.00922582
0.00838656
0.00717278
0.0054435
0.00302974
0.00044531
0.000858808
0.00172361
0.00557504
0.00773006
0.00858982
0.00855096
0.00806397
0.00731724
0.00624123
0.00482569
0.00848165
0.00837526
0.00827284
0.00819386
0.00811999
0.0080628
0.00807133
0.00819032
0.00846515
0.00885576
0.00926429
0.00963566
0.0099546
0.0102178
0.0104227
0.0105656
0.0106411
0.0106405
0.0105495
0.0103448
0.00998804
0.0094284
0.00860554
0.00740999
0.00570312
0.00362265
0.00183435
0.00189312
0.00305545
0.00465624
0.00593059
0.00648759
0.00651832
0.00616562
0.00453189
0.00906775
0.00853968
0.00839023
0.0083225
0.0082657
0.00821048
0.0082151
0.00834998
0.00860342
0.00891814
0.00923454
0.00952112
0.00977229
0.0099891
0.0101729
0.0103244
0.0104443
0.0105311
0.0105826
0.0105922
0.0105435
0.0104029
0.0101169
0.00961433
0.00879628
0.00755841
0.00591826
0.00428048
0.00307758
0.00267757
0.00323181
0.0041962
0.00509794
0.00557466
0.00420638
0.00862132
0.00833378
0.00832241
0.0083173
0.00826781
0.00815245
0.00804588
0.00810776
0.0083497
0.00866202
0.00895973
0.00920862
0.00940676
0.00956216
0.00968439
0.00978286
0.00986676
0.00994541
0.0100317
0.0101486
0.0103305
0.0105939
0.0108764
0.0110141
0.0108566
0.0103455
0.00948024
0.00831356
0.00699187
0.00585278
0.00537024
0.00544805
0.00541912
0.0050094
0.00539601
0.00876225
0.00863884
0.00870255
0.00874761
0.00873269
0.00860099
0.00835796
0.00819979
0.00828117
0.00851511
0.00876477
0.00896137
0.00908833
0.00915105
0.00916324
0.00914304
0.00910895
0.00907834
0.00908218
0.00922569
0.00978073
0.0108026
0.0117503
0.0123147
0.0124887
0.0123292
0.0118766
0.0111626
0.01024
0.0092136
0.00818727
0.00707223
0.00626703
0.0066244
0.00922553
0.00847267
0.0085682
0.00874536
0.00887471
0.00895118
0.00890859
0.00867942
0.00838168
0.00828179
0.00841907
0.00863692
0.00881439
0.00890584
0.00890248
0.00881175
0.00865329
0.00845157
0.00822528
0.00801004
0.00801148
0.00890279
0.0107838
0.0121596
0.0128456
0.013108
0.0130458
0.0126837
0.0120358
0.0110992
0.00984629
0.00834001
0.0071057
0.00703833
0.00803009
0.0101582
0.0087171
0.00886126
0.00901881
0.00916609
0.00931867
0.00940068
0.00927039
0.00892154
0.00860927
0.00855851
0.00869551
0.00885672
0.00895306
0.00894959
0.00883364
0.00860718
0.00828347
0.00787987
0.00741608
0.00699554
0.00715243
0.00886876
0.011163
0.0122889
0.012704
0.0127421
0.0124636
0.0118821
0.0109933
0.00979547
0.00847165
0.00756247
0.00740838
0.00764784
0.00739141
0.00916776
0.00893618
0.00894986
0.00906322
0.00929086
0.00954354
0.00962351
0.00945433
0.00916072
0.00898785
0.0090117
0.00911964
0.00920831
0.0092238
0.00913837
0.00893702
0.00861541
0.00817949
0.00763648
0.00699482
0.0063638
0.00636037
0.00800918
0.0102135
0.0111952
0.0114796
0.0113802
0.0109911
0.0103717
0.00956516
0.00870093
0.00802535
0.00758835
0.00708482
0.00555232
0.00989796
0.0090911
0.00889519
0.00894691
0.00926423
0.00967034
0.00989668
0.0098935
0.00974584
0.00960067
0.00956179
0.00960038
0.00964503
0.00964285
0.00956096
0.00937767
0.00908177
0.00867195
0.0081486
0.00749861
0.0066945
0.00581099
0.00551406
0.00711248
0.00910681
0.00973174
0.00975256
0.0094187
0.00889889
0.00834468
0.00784732
0.00744119
0.00706348
0.00650482
0.00532006
0.0101759
0.00881069
0.00845465
0.00851729
0.00902907
0.00962187
0.00999027
0.0101533
0.0101935
0.0101857
0.0101881
0.0102084
0.0102196
0.0101863
0.0100784
0.00987244
0.00955409
0.00911876
0.00856193
0.00785739
0.00693507
0.00572731
0.00440346
0.00448352
0.00767703
0.00948915
0.00970998
0.0093637
0.00877317
0.0081606
0.00764817
0.00722958
0.00681104
0.00619832
0.00501752
0.00963226
0.00824109
0.007927
0.00810236
0.00876999
0.009461
0.00993308
0.0102374
0.0104349
0.0105663
0.0106607
0.0107293
0.010766
0.0107495
0.0106518
0.0104458
0.0101105
0.00963475
0.00900417
0.00817278
0.00702531
0.00542152
0.00337156
0.00211996
0.00538393
0.00997076
0.0112724
0.0113846
0.0109887
0.0103509
0.00962649
0.00885983
0.00793596
0.00649259
0.00399907
0.00849518
0.00759649
0.00745883
0.00761968
0.00812326
0.00880309
0.00943314
0.0099353
0.0103176
0.0106084
0.0108334
0.0110084
0.011139
0.0112157
0.0112159
0.0111085
0.0108605
0.0104456
0.00983933
0.00899464
0.00780545
0.00613263
0.00386568
0.00148953
0.00154653
0.00544338
0.00857845
0.0101662
0.0108507
0.0109053
0.0105102
0.00975891
0.00855469
0.00649787
0.00320333
0.00758641
0.00747939
0.00748766
0.00747556
0.00752556
0.00785488
0.0084743
0.00916047
0.00975257
0.0102295
0.010616
0.010938
0.0112112
0.0114374
0.0116052
0.0116895
0.0116559
0.0114723
0.0111078
0.0105261
0.00967324
0.00845311
0.00675218
0.0045616
0.00248063
0.00199094
0.00296852
0.00420881
0.00534213
0.00616916
0.0065812
0.00657012
0.00611821
0.00503526
0.00295144
0.00711114
0.00773205
0.0079313
0.0079578
0.00783649
0.00764215
0.0077289
0.00826808
0.00896672
0.00959355
0.0101146
0.0105567
0.0109461
0.0112983
0.0116137
0.0118802
0.0120756
0.0121692
0.0121281
0.0119233
0.0115266
0.0109014
0.00999329
0.00873615
0.00713013
0.00545326
0.00413725
0.00330613
0.00292003
0.00290133
0.00312422
0.00343499
0.00373289
0.00390429
0.00321693
0.00727999
0.00809923
0.00847095
0.0086989
0.0087989
0.00862126
0.00818429
0.00809582
0.00855726
0.00917358
0.00973148
0.0102131
0.0106433
0.0110418
0.0114183
0.0117749
0.0121032
0.0123824
0.0125806
0.0126704
0.0126309
0.0124412
0.0120804
0.0115217
0.0107401
0.00973908
0.00858457
0.00738739
0.00627341
0.00538601
0.00483791
0.00463947
0.00468608
0.00480276
0.00415629
0.00795053
0.00833584
0.00860298
0.00890537
0.00926169
0.00946432
0.0092636
0.00885436
0.00889873
0.00930843
0.00976967
0.01019
0.0105731
0.0109329
0.0112815
0.0116288
0.0119786
0.0123213
0.0126312
0.0128792
0.013043
0.0131077
0.013061
0.0128898
0.0125798
0.0121161
0.0114972
0.0107367
0.00987407
0.00897601
0.00812616
0.00741162
0.00689913
0.00648679
0.00544408
0.00880699
0.00853176
0.00850706
0.00872233
0.00918963
0.009636
0.00981607
0.00972228
0.00971068
0.00994318
0.0102482
0.0105424
0.010819
0.0110838
0.0113447
0.0116121
0.0118959
0.0121986
0.0125067
0.0127952
0.0130394
0.0132223
0.0133315
0.0133557
0.0132813
0.013093
0.0127777
0.0123283
0.0117404
0.0110043
0.0101171
0.00914565
0.00830135
0.00762183
0.00644046
0.00899217
0.00834678
0.00820711
0.00851198
0.0091214
0.00967004
0.010033
0.0102549
0.0104283
0.0106199
0.0108156
0.0110002
0.0111742
0.0113407
0.0115038
0.0116714
0.0118546
0.0120632
0.0122975
0.0125434
0.0127797
0.0129883
0.0131555
0.0132685
0.0133109
0.0132628
0.0131029
0.0128046
0.0123332
0.0116462
0.0107293
0.00970395
0.00882273
0.00805029
0.00672352
0.00813047
0.00753938
0.00757984
0.00825158
0.0090213
0.00962975
0.0101128
0.0104923
0.0107803
0.0109997
0.0111725
0.0113125
0.0114283
0.0115261
0.0116111
0.0116901
0.0117731
0.0118736
0.0120029
0.0121615
0.0123374
0.0125149
0.0126806
0.0128222
0.0129237
0.0129617
0.0129012
0.0126914
0.0122737
0.0116047
0.0107122
0.00975638
0.00892344
0.00806222
0.00644033
0.00661005
0.0063746
0.00657424
0.00724371
0.00795508
0.0086508
0.00931193
0.00989169
0.0103662
0.0107366
0.0110162
0.011222
0.0113681
0.0114671
0.0115292
0.0115633
0.0115796
0.0115921
0.0116191
0.0116763
0.0117681
0.0118872
0.0120222
0.0121626
0.0122971
0.0124032
0.0124337
0.0123085
0.0119496
0.0113318
0.0105222
0.00966924
0.00888073
0.0079635
0.00618684
0.005498
0.00560055
0.00554125
0.00554831
0.00578222
0.00628779
0.00701441
0.00786216
0.00871042
0.00946216
0.0100694
0.0105274
0.0108537
0.0110717
0.0112027
0.0112629
0.0112697
0.011238
0.0111874
0.0111429
0.0111297
0.0111634
0.0112451
0.0113668
0.0115252
0.0117094
0.0118676
0.0118731
0.0116137
0.0110819
0.0103737
0.00961767
0.00887719
0.0079566
0.006185
0.00517361
0.00586821
0.00580993
0.00553439
0.00516189
0.00483339
0.00473521
0.00503402
0.00577779
0.00683549
0.00795836
0.0089335
0.0096809
0.0102137
0.0105688
0.0107804
0.0108766
0.0108802
0.0108107
0.0106894
0.0105496
0.0104385
0.0103965
0.01044
0.0105791
0.010834
0.0111872
0.0114471
0.0113838
0.0109873
0.0103817
0.00969006
0.00895718
0.00797244
0.0060491
0.00548347
0.00695537
0.00755935
0.00775283
0.0076115
0.00708658
0.00620549
0.00518991
0.00443453
0.00434236
0.00510385
0.00643858
0.00777499
0.0088205
0.00956598
0.0100673
0.010373
0.0105187
0.0105298
0.010424
0.0102216
0.00996196
0.0097141
0.00955115
0.00953745
0.00974491
0.0102504
0.0108863
0.0111849
0.0110303
0.0105714
0.00993669
0.00915801
0.00798026
0.00564395
0.00606428
0.00752977
0.00844358
0.00907964
0.0095448
0.00976009
0.00957571
0.00881371
0.00741066
0.00565287
0.00423276
0.00421117
0.00552736
0.00707454
0.00830192
0.00916857
0.00975781
0.0101271
0.0103092
0.0103216
0.0101737
0.00987869
0.00947392
0.00903854
0.00869428
0.0085996
0.00895803
0.00978869
0.0105067
0.0106985
0.0104777
0.00997665
0.00920136
0.00783427
0.00516751
0.00676636
0.00744979
0.00790768
0.00834774
0.00888017
0.00949621
0.0100677
0.0104016
0.0102941
0.0094074
0.00727565
0.00468611
0.00423067
0.00556624
0.00710153
0.00829388
0.00913963
0.00972683
0.0101031
0.0102875
0.0102837
0.0100897
0.00970648
0.00915942
0.00852911
0.00798567
0.00781524
0.00827658
0.00905921
0.00951511
0.00954412
0.00924469
0.00860666
0.00730437
0.00488547
0.00742754
0.00752905
0.00763031
0.00777729
0.00802403
0.00840996
0.00890612
0.00940267
0.00977079
0.00989353
0.009459
0.00724767
0.00486087
0.00511186
0.00651461
0.00779966
0.00875739
0.009461
0.00996893
0.0102995
0.0104497
0.0104062
0.0101535
0.0096804
0.00900047
0.00819676
0.00748616
0.00720856
0.00747135
0.00784307
0.00798978
0.00788134
0.00749447
0.00657933
0.00491281
0.00788988
0.00778552
0.00792551
0.00815104
0.00847287
0.00881859
0.00905414
0.00914776
0.00912707
0.00899003
0.00864808
0.00766625
0.00578814
0.00556115
0.00666884
0.00781494
0.00871815
0.00942645
0.00998534
0.0104027
0.0106649
0.0107527
0.0106455
0.0103221
0.00976841
0.00899073
0.00807567
0.00725039
0.00678716
0.00667416
0.0066597
0.00658827
0.00639123
0.00591084
0.00503392
0.0079512
0.00750816
0.00758921
0.0078709
0.00842413
0.00912998
0.0095869
0.00965494
0.00940512
0.0088773
0.00802985
0.00689021
0.00592735
0.0061534
0.00711295
0.00806053
0.00886426
0.00954941
0.0101285
0.0105907
0.0109168
0.0110894
0.0110921
0.0109076
0.0105152
0.00989637
0.00906254
0.0081133
0.00725653
0.00667746
0.00636162
0.00618027
0.00602814
0.00579722
0.00536449
0.00792135
0.00727646
0.00718621
0.00727802
0.0077004
0.00854288
0.0092775
0.00957623
0.00946173
0.00893527
0.00792045
0.00663255
0.00602278
0.00648497
0.00731565
0.00814335
0.00891419
0.00962164
0.0102455
0.0107578
0.011138
0.0113735
0.0114552
0.0113735
0.0111126
0.010652
0.00997787
0.00911808
0.0081894
0.00738423
0.0068267
0.00648622
0.00626042
0.00603128
0.00557894
0.00808221
0.00763979
0.00759653
0.00760789
0.00774618
0.0083081
0.00901624
0.00941051
0.0094366
0.00909927
0.0083029
0.00706629
0.00618299
0.00639542
0.00709356
0.00788231
0.00868266
0.00945819
0.01016
0.0107444
0.0111902
0.0114915
0.0116469
0.0116537
0.011502
0.0111753
0.0106566
0.00994828
0.00911099
0.00828637
0.00762511
0.00716582
0.00683776
0.00649504
0.00577131
0.00830371
0.00807085
0.00819661
0.00835024
0.00850411
0.00881855
0.00933352
0.00969768
0.0097989
0.0096328
0.00913017
0.00812991
0.00680157
0.00624183
0.00659902
0.00729506
0.00811235
0.00897977
0.00980947
0.0105163
0.0110621
0.0114449
0.0116734
0.0117541
0.0116839
0.0114519
0.011044
0.0104575
0.00973063
0.00896737
0.00829755
0.00777729
0.0073593
0.00687185
0.00580673
0.00826457
0.00803697
0.00819496
0.00846972
0.00884769
0.00926276
0.00971902
0.0100669
0.0102239
0.0101775
0.00989522
0.00925938
0.00810295
0.00681097
0.00640132
0.00675204
0.00743108
0.00828535
0.00920506
0.0100485
0.0107254
0.0112183
0.0115401
0.0117053
0.0117178
0.0115716
0.0112575
0.0107751
0.0101559
0.00948033
0.00884806
0.00830812
0.00782637
0.00721159
0.00583577
0.00816039
0.00790337
0.00800596
0.00831368
0.00884934
0.00943252
0.00994
0.0103072
0.0105118
0.0105499
0.0104054
0.0100189
0.00925503
0.00803835
0.00695777
0.00669493
0.00702522
0.00768805
0.00856372
0.00948758
0.0102867
0.0108888
0.0112982
0.011537
0.0116168
0.0115377
0.011295
0.0108924
0.0103595
0.00976145
0.00917312
0.00863167
0.00810719
0.00739416
0.00579657
0.00806053
0.00772373
0.00778584
0.0081781
0.00888315
0.00956818
0.0101014
0.0104784
0.0107125
0.0108051
0.0107417
0.0104848
0.00995098
0.00904331
0.00791438
0.0071829
0.00707531
0.00740777
0.00806383
0.00893227
0.00980697
0.0105204
0.0110289
0.0113495