/*--------------------------------*- C++ -*----------------------------------*\
| =========                 |                                                 |
| \\      /  F ield         | OpenFOAM: The Open Source CFD Toolbox           |
|  \\    /   O peration     | Version:  v1906                                 |
|   \\  /    A nd           | Web:      www.OpenFOAM.com                      |
|    \\/     M anipulation  |                                                 |
\*---------------------------------------------------------------------------*/
FoamFile
{
    version     2.0;
    format      ascii;
    class       volVectorField;
    location    "87.8/oil";
    object      U;
}
// * * * * * * * * * * * * * * * * * * * * * * * * * * * * * * * * * * * * * //

dimensions      [0 1 -1 0 0 0 0];


internalField   nonuniform List<vector> 
27760
(
(-2.37051e-05 -2.41468e-05 -2.37051e-05)
(-4.67878e-05 -1.81103e-05 -1.70831e-05)
(-3.40073e-06 -4.68783e-06 -4.68643e-06)
(-5.51946e-06 -7.53314e-07 -8.75031e-07)
(-1.05737e-06 -2.29208e-07 -3.72491e-07)
(-2.95507e-07 -8.25216e-08 -2.40073e-07)
(3.90897e-07 7.38246e-09 -1.62676e-07)
(7.46744e-07 4.7722e-08 -1.31572e-07)
(9.4695e-07 7.18217e-08 -1.13376e-07)
(1.02186e-06 8.77126e-08 -1.0047e-07)
(9.93171e-07 9.9171e-08 -8.96733e-08)
(8.7429e-07 1.08137e-07 -7.99133e-08)
(6.79994e-07 1.1485e-07 -7.18874e-08)
(4.27637e-07 1.19406e-07 -6.60851e-08)
(1.38325e-07 1.21753e-07 -6.29745e-08)
(-1.64431e-07 1.21898e-07 -6.28301e-08)
(-4.56455e-07 1.19884e-07 -6.56082e-08)
(-7.14864e-07 1.15812e-07 -7.09238e-08)
(-9.20113e-07 1.09928e-07 -7.81115e-08)
(-1.05771e-06 1.02509e-07 -8.62664e-08)
(-1.1195e-06 9.39257e-08 -9.41923e-08)
(-1.10369e-06 8.45969e-08 -1.00433e-07)
(-1.01582e-06 7.43176e-08 -1.04227e-07)
(-8.6832e-07 6.36536e-08 -1.04173e-07)
(-6.79067e-07 5.28741e-08 -9.92632e-08)
(-4.7115e-07 4.24846e-08 -8.88809e-08)
(-2.71327e-07 3.35187e-08 -7.31926e-08)
(-1.08292e-07 2.77861e-08 -5.36447e-08)
(-7.03428e-09 2.73818e-08 -3.39411e-08)
(1.41591e-08 2.77373e-08 -1.41336e-08)
(-1.71942e-05 -4.80608e-05 -1.71941e-05)
(-5.60778e-06 -6.25516e-06 -7.7025e-06)
(-7.50695e-06 -7.59719e-06 -2.69896e-06)
(-3.2505e-06 -2.24892e-06 -7.84401e-07)
(-9.07246e-07 -1.39269e-06 -4.02539e-07)
(3.02094e-07 -7.74556e-07 -2.11357e-07)
(1.19584e-06 -4.88668e-07 -1.17166e-07)
(1.75154e-06 -3.12563e-07 -6.89083e-08)
(2.07303e-06 -1.8888e-07 -3.76432e-08)
(2.18148e-06 -8.94654e-08 -1.38665e-08)
(2.09584e-06 -5.21888e-09 6.59526e-09)
(1.83407e-06 6.61716e-08 2.43466e-08)
(1.42126e-06 1.23061e-07 3.88591e-08)
(8.9146e-07 1.63148e-07 4.92861e-08)
(2.86879e-07 1.84367e-07 5.48822e-08)
(-3.44913e-07 1.85553e-07 5.5158e-08)
(-9.54865e-07 1.66975e-07 5.01873e-08)
(-1.49643e-06 1.3043e-07 4.06352e-08)
(-1.92978e-06 7.89712e-08 2.75562e-08)
(-2.22538e-06 1.67194e-08 1.23944e-08)
(-2.3664e-06 -5.14453e-08 -3.17469e-09)
(-2.35002e-06 -1.20188e-07 -1.73231e-08)
(-2.18724e-06 -1.84542e-07 -2.82776e-08)
(-1.90237e-06 -2.38852e-07 -3.4722e-08)
(-1.53126e-06 -2.77397e-07 -3.55924e-08)
(-1.11857e-06 -2.93694e-07 -3.05294e-08)
(-7.14242e-07 -2.79977e-07 -2.03533e-08)
(-3.68292e-07 -2.27731e-07 -7.63078e-09)
(-1.22511e-07 -1.30993e-07 2.24652e-09)
(-4.44015e-09 -1.24851e-08 4.47877e-09)
(-4.75005e-06 -4.55643e-06 -4.75002e-06)
(-7.40137e-06 -8.63296e-06 -2.73664e-06)
(-3.66833e-06 -5.05245e-06 -1.19527e-06)
(-1.8465e-06 -3.09896e-06 -5.54344e-07)
(-1.17038e-07 -2.28968e-06 -2.50761e-07)
(1.0545e-06 -1.75468e-06 -1.01459e-07)
(1.95248e-06 -1.43212e-06 -2.18157e-08)
(2.55808e-06 -1.1866e-06 2.45099e-08)
(2.9093e-06 -9.7739e-07 5.7523e-08)
(3.00839e-06 -7.86337e-07 8.44084e-08)
(2.86437e-06 -6.11225e-07 1.08094e-07)
(2.49389e-06 -4.56913e-07 1.28799e-07)
(1.9268e-06 -3.31013e-07 1.45771e-07)
(1.2065e-06 -2.41222e-07 1.57932e-07)
(3.87878e-07 -1.93514e-07 1.64377e-07)
(-4.66538e-07 -1.9104e-07 1.64693e-07)
(-1.29171e-06 -2.33327e-07 1.58952e-07)
(-2.02615e-06 -3.16145e-07 1.47746e-07)
(-2.61735e-06 -4.31957e-07 1.32265e-07)
(-3.02628e-06 -5.70467e-07 1.14119e-07)
(-3.23068e-06 -7.19503e-07 9.5105e-08)
(-3.22666e-06 -8.6576e-07 7.70898e-08)
(-3.02858e-06 -9.95369e-07 6.17684e-08)
(-2.66777e-06 -1.0944e-06 5.04642e-08)
(-2.18956e-06 -1.14834e-06 4.39638e-08)
(-1.64963e-06 -1.14187e-06 4.22381e-08)
(-1.10879e-06 -1.05829e-06 4.40243e-08)
(-6.25639e-07 -8.80551e-07 4.61398e-08)
(-2.51525e-07 -5.94229e-07 4.25882e-08)
(-2.35549e-08 -2.10811e-07 2.35995e-08)
(-8.43366e-07 -6.69318e-06 -8.43343e-07)
(-1.82611e-06 -5.44627e-06 -7.45595e-07)
(-1.28889e-06 -4.82848e-06 -5.22574e-07)
(-2.98682e-07 -3.95814e-06 -2.48991e-07)
(8.8469e-07 -3.47367e-06 -8.82427e-08)
(1.88126e-06 -3.09404e-06 4.61851e-09)
(2.7066e-06 -2.79237e-06 6.24831e-08)
(3.29721e-06 -2.50559e-06 1.01976e-07)
(3.63598e-06 -2.21926e-06 1.33651e-07)
(3.70388e-06 -1.93262e-06 1.61494e-07)
(3.49801e-06 -1.65628e-06 1.86869e-07)
(3.03149e-06 -1.40586e-06 2.09378e-07)
(2.33599e-06 -1.19832e-06 2.27933e-07)
(1.461e-06 -1.04911e-06 2.41264e-07)
(4.70603e-07 -9.69707e-07 2.48355e-07)
(-5.61502e-07 -9.65978e-07 2.48672e-07)
(-1.55855e-06 -1.03731e-06 2.4228e-07)
(-2.44772e-06 -1.17648e-06 2.29859e-07)
(-3.16676e-06 -1.37009e-06 2.12667e-07)
(-3.66956e-06 -1.59981e-06 1.92385e-07)
(-3.92978e-06 -1.84388e-06 1.7088e-07)
(-3.94267e-06 -2.07852e-06 1.50032e-07)
(-3.72468e-06 -2.27907e-06 1.31483e-07)
(-3.31151e-06 -2.42065e-06 1.16491e-07)
(-2.75447e-06 -2.4781e-06 1.05663e-07)
(-2.11569e-06 -2.42571e-06 9.87586e-08)
(-1.46253e-06 -2.23653e-06 9.43203e-08)
(-8.59418e-07 -1.88224e-06 8.87425e-08)
(-3.67957e-07 -1.3312e-06 7.54206e-08)
(-3.97102e-08 -5.50956e-07 3.97618e-08)
(-2.60758e-07 -2.71046e-06 -2.6073e-07)
(-7.35734e-07 -4.41365e-06 -2.97146e-07)
(-1.45472e-07 -4.9658e-06 -1.8213e-07)
(6.98308e-07 -4.97567e-06 -5.82959e-08)
(1.69599e-06 -4.90292e-06 2.79755e-08)
(2.62056e-06 -4.73078e-06 8.57613e-08)
(3.41104e-06 -4.494e-06 1.27877e-07)
(3.98943e-06 -4.19196e-06 1.61621e-07)
(4.31146e-06 -3.84046e-06 1.92035e-07)
(4.34478e-06 -3.46059e-06 2.20757e-07)
(4.07802e-06 -3.07941e-06 2.47863e-07)
(3.52149e-06 -2.72638e-06 2.7232e-07)
(2.70832e-06 -2.43024e-06 2.92636e-07)
(1.69303e-06 -2.21597e-06 3.07292e-07)
(5.47666e-07 -2.10178e-06 3.15087e-07)
(-6.44358e-07 -2.09705e-06 3.15381e-07)
(-1.79583e-06 -2.20113e-06 3.08227e-07)
(-2.82396e-06 -2.40319e-06 2.94375e-07)
(-3.65801e-06 -2.68309e-06 2.75209e-07)
(-4.24563e-06 -3.01317e-06 2.5253e-07)
(-4.557e-06 -3.36059e-06 2.28349e-07)
(-4.58665e-06 -3.68953e-06 2.04643e-07)
(-4.3526e-06 -3.9629e-06 1.83093e-07)
(-3.89401e-06 -4.14363e-06 1.64942e-07)
(-3.26682e-06 -4.19481e-06 1.50734e-07)
(-2.53835e-06 -4.07921e-06 1.40118e-07)
(-1.78162e-06 -3.75777e-06 1.31505e-07)
(-1.06721e-06 -3.18674e-06 1.20887e-07)
(-4.68324e-07 -2.30679e-06 1.00899e-07)
(-5.26373e-08 -1.01339e-06 5.26994e-08)
(-8.98282e-08 -2.62087e-06 -8.97926e-08)
(9.53596e-09 -4.75801e-06 -6.67878e-08)
(6.113e-07 -5.90193e-06 -5.36465e-09)
(1.43328e-06 -6.44644e-06 5.65881e-08)
(2.37888e-06 -6.68898e-06 1.06032e-07)
(3.28957e-06 -6.69379e-06 1.44596e-07)
(4.07723e-06 -6.52275e-06 1.77804e-07)
(4.65645e-06 -6.21147e-06 2.08767e-07)
(4.96769e-06 -5.79952e-06 2.39547e-07)
(4.96948e-06 -5.32791e-06 2.70288e-07)
(4.6444e-06 -4.84056e-06 3.00131e-07)
(4.00071e-06 -4.38185e-06 3.27454e-07)
(3.07318e-06 -3.99356e-06 3.50325e-07)
(1.92131e-06 -3.71122e-06 3.66874e-07)
(6.25043e-07 -3.56069e-06 3.75666e-07)
(-7.22611e-07 -3.55529e-06 3.75929e-07)
(-2.0241e-06 -3.69439e-06 3.67701e-07)
(-3.18676e-06 -3.96328e-06 3.51835e-07)
(-4.1315e-06 -4.33441e-06 3.29899e-07)
(-4.79995e-06 -4.76991e-06 3.03948e-07)
(-5.15915e-06 -5.22491e-06 2.76247e-07)
(-5.20294e-06 -5.65043e-06 2.48975e-07)
(-4.95112e-06 -5.99611e-06 2.23949e-07)
(-4.44637e-06 -6.21189e-06 2.02503e-07)
(-3.74913e-06 -6.24818e-06 1.85206e-07)
(-2.93206e-06 -6.05502e-06 1.71645e-07)
(-2.07441e-06 -5.57902e-06 1.601e-07)
(-1.25388e-06 -4.75612e-06 1.46112e-07)
(-5.55751e-07 -3.48929e-06 1.21393e-07)
(-6.32772e-08 -1.57954e-06 6.33544e-08)
(9.02611e-09 -2.74232e-06 9.07587e-09)
(3.62708e-07 -5.58012e-06 5.09978e-08)
(1.0682e-06 -7.28362e-06 9.19029e-08)
(1.95996e-06 -8.2714e-06 1.28359e-07)
(2.94186e-06 -8.79651e-06 1.60273e-07)
(3.88933e-06 -8.96575e-06 1.89427e-07)
(4.70671e-06 -8.86211e-06 2.18795e-07)
(5.30531e-06 -8.54705e-06 2.49714e-07)
(5.61701e-06 -8.08029e-06 2.8269e-07)
(5.59404e-06 -7.52108e-06 3.16933e-07)
(5.21457e-06 -6.92986e-06 3.50846e-07)
(4.48559e-06 -6.3663e-06 3.82243e-07)
(3.44383e-06 -5.88565e-06 4.08684e-07)
(2.1543e-06 -5.53478e-06 4.27855e-07)
(7.05217e-07 -5.34768e-06 4.38018e-07)
(-8.0018e-07 -5.34195e-06 4.38246e-07)
(-2.25346e-06 -5.51702e-06 4.28567e-07)
(-3.55156e-06 -5.85407e-06 4.0996e-07)
(-4.60667e-06 -6.31775e-06 3.84255e-07)
(-5.35434e-06 -6.8594e-06 3.53889e-07)
(-5.75847e-06 -7.42144e-06 3.21492e-07)
(-5.81268e-06 -7.94133e-06 2.89562e-07)
(-5.53908e-06 -8.35504e-06 2.60203e-07)
(-4.98424e-06 -8.599e-06 2.3489e-07)
(-4.21388e-06 -8.61023e-06 2.14281e-07)
(-3.30661e-06 -8.32483e-06 1.97926e-07)
(-2.34863e-06 -7.67258e-06 1.8396e-07)
(-1.42553e-06 -6.56447e-06 1.67426e-07)
(-6.34363e-07 -4.8565e-06 1.38974e-07)
(-7.25316e-08 -2.23677e-06 7.263e-08)
(5.15125e-08 -3.25596e-06 5.15793e-08)
(5.68786e-07 -6.83329e-06 1.11651e-07)
(1.38358e-06 -9.06219e-06 1.47721e-07)
(2.37009e-06 -1.04398e-05 1.75041e-07)
(3.42487e-06 -1.12233e-05 1.99937e-07)
(4.43665e-06 -1.15475e-05 2.25894e-07)
(5.30522e-06 -1.1513e-05 2.55181e-07)
(5.9384e-06 -1.12007e-05 2.88519e-07)
(6.2615e-06 -1.06872e-05 3.25584e-07)
(6.22129e-06 -1.00482e-05 3.64993e-07)
(5.79213e-06 -9.3596e-06 4.04523e-07)
(4.97986e-06 -8.69601e-06 4.4136e-07)
(3.82351e-06 -8.12636e-06 4.72494e-07)
(2.394e-06 -7.70909e-06 4.95102e-07)
(7.88518e-07 -7.48655e-06 5.07059e-07)
(-8.78629e-07 -7.48078e-06 5.07247e-07)
(-2.4873e-06 -7.6913e-06 4.95684e-07)
(-3.92325e-06 -8.0951e-06 4.73529e-07)
(-5.08938e-06 -8.64868e-06 4.42962e-07)
(-5.91493e-06 -9.29235e-06 4.06894e-07)
(-6.36096e-06 -9.95572e-06 3.68427e-07)
(-6.42141e-06 -1.05625e-05 3.30545e-07)
(-6.12131e-06 -1.10348e-05 2.95739e-07)
(-5.5119e-06 -1.12954e-05 2.65695e-07)
(-4.66503e-06 -1.12679e-05 2.41211e-07)
(-3.66598e-06 -1.08729e-05 2.21801e-07)
(-2.60843e-06 -1.00212e-05 2.0546e-07)
(-1.58609e-06 -8.5945e-06 1.86672e-07)
(-7.06999e-07 -6.39358e-06 1.54963e-07)
(-8.10057e-08 -2.97711e-06 8.11295e-08)
(7.50777e-08 -3.9532e-06 7.51665e-08)
(7.00875e-07 -8.3631e-06 1.48225e-07)
(1.61731e-06 -1.11422e-05 1.84158e-07)
(2.70325e-06 -1.29065e-05 2.08757e-07)
(3.84577e-06 -1.39486e-05 2.31747e-07)
(4.93605e-06 -1.44323e-05 2.58043e-07)
(5.86903e-06 -1.44768e-05 2.89822e-07)
(6.54801e-06 -1.41803e-05 3.27586e-07)
(6.89204e-06 -1.36343e-05 3.70539e-07)
(6.84228e-06 -1.2929e-05 4.16774e-07)
(6.36914e-06 -1.21552e-05 4.63487e-07)
(5.47712e-06 -1.14015e-05 5.07196e-07)
(4.20753e-06 -1.07503e-05 5.44234e-07)
(2.63741e-06 -1.02715e-05 5.71137e-07)
(8.73642e-07 -1.0016e-05 5.85311e-07)
(-9.5769e-07 -1.00104e-05 5.85462e-07)
(-2.72375e-06 -1.02543e-05 5.71604e-07)
(-4.29836e-06 -1.07204e-05 5.4506e-07)
(-5.5747e-06 -1.1357e-05 5.08439e-07)
(-6.47564e-06 -1.20932e-05 4.65281e-07)
(-6.95955e-06 -1.28458e-05 4.19318e-07)
(-7.02148e-06 -1.35251e-05 3.74097e-07)
(-6.69026e-06 -1.404e-05 3.32554e-07)
(-6.02279e-06 -1.42998e-05 2.96719e-07)
(-5.09763e-06 -1.42144e-05 2.67554e-07)
(-4.00721e-06 -1.36887e-05 2.44598e-07)
(-2.85283e-06 -1.2612e-05 2.25642e-07)
(-1.736e-06 -1.08328e-05 2.04598e-07)
(-7.74576e-07 -8.0892e-06 1.69892e-07)
(-8.89665e-08 -3.79489e-06 8.91194e-08)
(8.94577e-08 -4.77974e-06 8.95728e-08)
(7.94777e-07 -1.01082e-05 1.72357e-07)
(1.79977e-06 -1.3474e-05 2.10051e-07)
(2.97882e-06 -1.56397e-05 2.34915e-07)
(4.20981e-06 -1.69532e-05 2.58766e-07)
(5.38184e-06 -1.76114e-05 2.87631e-07)
(6.38463e-06 -1.77535e-05 3.23832e-07)
(7.11589e-06 -1.74938e-05 3.67743e-07)
(7.48829e-06 -1.69374e-05 4.18309e-07)
(7.43694e-06 -1.61877e-05 4.73107e-07)
(6.92741e-06 -1.53482e-05 5.28701e-07)
(5.96221e-06 -1.45208e-05 5.80859e-07)
(4.5845e-06 -1.38004e-05 6.25092e-07)
(2.87743e-06 -1.32684e-05 6.57201e-07)
(9.57875e-07 -1.29842e-05 6.74089e-07)
(-1.03545e-06 -1.29789e-05 6.74201e-07)
(-2.95652e-06 -1.32523e-05 6.57546e-07)
(-4.6665e-06 -1.37726e-05 6.25689e-07)
(-6.04842e-06 -1.44798e-05 5.81768e-07)
(-7.01902e-06 -1.52923e-05 5.30035e-07)
(-7.53481e-06 -1.61142e-05 4.7495e-07)
(-7.59276e-06 -1.68436e-05 4.20827e-07)
(-7.22647e-06 -1.73767e-05 3.71165e-07)
(-6.4994e-06 -1.76107e-05 3.28393e-07)
(-5.49713e-06 -1.74419e-05 2.93646e-07)
(-4.31949e-06 -1.67593e-05 2.66488e-07)
(-3.07492e-06 -1.54294e-05 2.44561e-07)
(-1.87159e-06 -1.32637e-05 2.2119e-07)
(-8.35777e-07 -9.93091e-06 1.83659e-07)
(-9.63456e-08 -4.68445e-06 9.65323e-08)
(9.92349e-08 -5.69775e-06 9.93685e-08)
(8.63493e-07 -1.20194e-05 1.89449e-07)
(1.94017e-06 -1.60105e-05 2.29326e-07)
(3.19798e-06 -1.86014e-05 2.55728e-07)
(4.5078e-06 -2.02084e-05 2.81973e-07)
(5.75557e-06 -2.10652e-05 3.14873e-07)
(6.82612e-06 -2.13331e-05 3.56955e-07)
(7.61146e-06 -2.11414e-05 4.08579e-07)
(8.01769e-06 -2.06074e-05 4.68389e-07)
(7.97315e-06 -1.98451e-05 5.33506e-07)
(7.4376e-06 -1.8969e-05 5.99767e-07)
(6.41054e-06 -1.80924e-05 6.62051e-07)
(4.93599e-06 -1.73219e-05 7.14962e-07)
(3.1026e-06 -1.67495e-05 7.53369e-07)
(1.03721e-06 -1.64429e-05 7.73516e-07)
(-1.10855e-06 -1.6438e-05 7.73598e-07)
(-3.17477e-06 -1.67346e-05 7.53618e-07)
(-5.00973e-06 -1.72966e-05 7.1539e-07)
(-6.4865e-06 -1.80555e-05 6.62689e-07)
(-7.51634e-06 -1.89195e-05 6.00657e-07)
(-8.05488e-06 -1.97814e-05 5.34766e-07)
(-8.10214e-06 -2.05277e-05 4.70133e-07)
(-7.69777e-06 -2.10444e-05 4.10893e-07)
(-6.91238e-06 -2.12182e-05 3.59959e-07)
(-5.83882e-06 -2.09332e-05 3.18709e-07)
(-4.58362e-06 -2.00625e-05 2.86718e-07)
(-3.26123e-06 -1.84491e-05 2.61411e-07)
(-1.98505e-06 -1.58642e-05 2.35609e-07)
(-8.87323e-07 -1.19009e-05 1.95583e-07)
(-1.02781e-07 -5.63772e-06 1.03008e-07)
(1.05719e-07 -6.68121e-06 1.0589e-07)
(9.09395e-07 -1.40528e-05 2.01004e-07)
(2.03553e-06 -1.87021e-05 2.42826e-07)
(3.34958e-06 -2.17436e-05 2.71252e-07)
(4.71859e-06 -2.3671e-05 3.00679e-07)
(6.02657e-06 -2.47585e-05 3.38622e-07)
(7.1549e-06 -2.51901e-05 3.87767e-07)
(7.99091e-06 -2.51093e-05 4.48487e-07)
(8.43412e-06 -2.46428e-05 5.19184e-07)
(8.40576e-06 -2.39128e-05 5.96493e-07)
(7.85873e-06 -2.30417e-05 6.75479e-07)
(6.78787e-06 -2.21517e-05 7.4998e-07)
(5.2364e-06 -2.13593e-05 8.13437e-07)
(3.29715e-06 -2.07655e-05 8.59605e-07)
(1.10621e-06 -2.04461e-05 8.83811e-07)
(-1.17184e-06 -2.04417e-05 8.8386e-07)
(-3.36306e-06 -2.0752e-05 8.59737e-07)
(-5.30289e-06 -2.13364e-05 8.13667e-07)
(-6.85507e-06 -2.2119e-05 7.50362e-07)
(-7.92663e-06 -2.29982e-05 6.76035e-07)
(-8.47422e-06 -2.38576e-05 5.97324e-07)
(-8.50271e-06 -2.45752e-05 5.20345e-07)
(-8.05877e-06 -2.50292e-05 4.50027e-07)
(-7.22042e-06 -2.50977e-05 3.8975e-07)
(-6.08751e-06 -2.46552e-05 3.41095e-07)
(-4.77198e-06 -2.35602e-05 3.03656e-07)
(-3.39225e-06 -2.16314e-05 2.74676e-07)
(-2.06447e-06 -1.85979e-05 2.46493e-07)
(-9.23839e-07 -1.39711e-05 2.0448e-07)
(-1.07631e-07 -6.64165e-06 1.07899e-07)
(1.08993e-07 -7.70339e-06 1.09175e-07)
(9.29112e-07 -1.61574e-05 2.06611e-07)
(2.07483e-06 -2.1486e-05 2.49596e-07)
(3.41265e-06 -2.49999e-05 2.80063e-07)
(4.81014e-06 -2.72765e-05 3.1306e-07)
(6.15215e-06 -2.86327e-05 3.56558e-07)
(7.31917e-06 -2.92748e-05 4.1349e-07)
(8.19579e-06 -2.93592e-05 4.84282e-07)
(8.67612e-06 -2.90194e-05 5.67161e-07)
(8.67423e-06 -2.83821e-05 6.58301e-07)
(8.13518e-06 -2.75736e-05 7.52e-07)
(7.04711e-06 -2.67208e-05 8.40978e-07)
(5.45012e-06 -2.59465e-05 9.17127e-07)
(3.43898e-06 -2.53591e-05 9.72781e-07)
(1.15735e-06 -2.50411e-05 1.00204e-06)
(-1.2181e-06 -2.50371e-05 1.00205e-06)
(-3.49958e-06 -2.5347e-05 9.72819e-07)
(-5.51044e-06 -2.5926e-05 9.17204e-07)
(-7.10689e-06 -2.66916e-05 8.41129e-07)
(-8.19413e-06 -2.75353e-05 7.52288e-07)
(-8.73211e-06 -2.83345e-05 6.58776e-07)
(-8.73247e-06 -2.89623e-05 5.67839e-07)
(-8.24983e-06 -2.92928e-05 4.85257e-07)
(-7.36967e-06 -2.92e-05 4.1477e-07)
(-6.19751e-06 -2.8551e-05 3.58166e-07)
(-4.84844e-06 -2.71911e-05 3.14957e-07)
(-3.44214e-06 -2.49157e-05 2.82191e-07)
(-2.09402e-06 -2.141e-05 2.51823e-07)
(-9.38161e-07 -1.60994e-05 2.08666e-07)
(-1.10044e-07 -7.67632e-06 1.10364e-07)
(1.08324e-07 -8.73213e-06 1.08549e-07)
(9.15832e-07 -1.82686e-05 2.04915e-07)
(2.0419e-06 -2.42793e-05 2.47862e-07)
(3.35958e-06 -2.82785e-05 2.79872e-07)
(4.74214e-06 -3.09307e-05 3.16273e-07)
(6.07957e-06 -3.2596e-05 3.65285e-07)
(7.25528e-06 -3.35028e-05 4.30002e-07)
(8.15412e-06 -3.38183e-05 5.11096e-07)
(8.66721e-06 -3.36793e-05 6.06823e-07)
(8.70209e-06 -3.32118e-05 7.13036e-07)
(8.19572e-06 -3.25413e-05 8.23258e-07)
(7.12743e-06 -3.17942e-05 9.2894e-07)
(5.53088e-06 -3.10943e-05 1.02023e-06)
(3.49927e-06 -3.0553e-05 1.0876e-06)
(1.18086e-06 -3.02567e-05 1.12327e-06)
(-1.23749e-06 -3.02531e-05 1.12326e-06)
(-3.55541e-06 -3.0542e-05 1.08756e-06)
(-5.58606e-06 -3.10759e-05 1.02018e-06)
(-7.18118e-06 -3.17683e-05 9.28903e-07)
(-8.24771e-06 -3.25078e-05 8.23306e-07)
(-8.75188e-06 -3.31708e-05 7.13285e-07)
(-8.71419e-06 -3.36308e-05 6.07238e-07)
(-8.19784e-06 -3.37632e-05 5.11719e-07)
(-7.29486e-06 -3.34419e-05 4.30817e-07)
(-6.11396e-06 -3.25308e-05 3.6629e-07)
(-4.77029e-06 -3.08641e-05 3.17466e-07)
(-3.3805e-06 -2.82144e-05 2.81224e-07)
(-2.05501e-06 -2.42226e-05 2.49274e-07)
(-9.21704e-07 -1.82262e-05 2.06184e-07)
(-1.08928e-07 -8.71291e-06 1.09291e-07)
(1.02728e-07 -9.72636e-06 1.02967e-07)
(8.61234e-07 -2.03028e-05 1.93905e-07)
(1.91796e-06 -2.6974e-05 2.35048e-07)
(3.15886e-06 -3.14575e-05 2.67597e-07)
(4.46935e-06 -3.45042e-05 3.065e-07)
(5.74949e-06 -3.65171e-05 3.59957e-07)
(6.89079e-06 -3.77457e-05 4.31371e-07)
(7.78277e-06 -3.83646e-05 5.2166e-07)
(8.31712e-06 -3.85107e-05 6.29201e-07)
(8.39728e-06 -3.8305e-05 7.4983e-07)
(7.95218e-06 -3.78653e-05 8.7649e-07)
(6.95086e-06 -3.73103e-05 9.99514e-07)
(5.41744e-06 -3.67578e-05 1.10719e-06)
(3.43903e-06 -3.63158e-05 1.18767e-06)
(1.16333e-06 -3.60692e-05 1.23071e-06)
(-1.21667e-06 -3.60659e-05 1.23067e-06)
(-3.49161e-06 -3.63058e-05 1.18755e-06)
(-5.46859e-06 -3.67412e-05 1.10704e-06)
(-6.99987e-06 -3.72871e-05 9.99379e-07)
(-7.99853e-06 -3.78358e-05 8.76402e-07)
(-8.44065e-06 -3.82694e-05 7.49838e-07)
(-8.35712e-06 -3.84694e-05 6.29338e-07)
(-7.81895e-06 -3.83185e-05 5.21966e-07)
(-6.92258e-06 -3.76956e-05 4.31849e-07)
(-5.77627e-06 -3.64647e-05 3.60594e-07)
(-4.49054e-06 -3.44517e-05 3.07259e-07)
(-3.17401e-06 -3.14077e-05 2.68436e-07)
(-1.92712e-06 -2.69309e-05 2.3594e-07)
(-8.65119e-07 -2.0271e-05 1.94728e-07)
(-1.03062e-07 -9.71223e-06 1.03472e-07)
(9.11256e-08 -1.06355e-05 9.13786e-08)
(7.56873e-07 -2.21573e-05 1.71587e-07)
(1.68448e-06 -2.94363e-05 2.08654e-07)
(2.77984e-06 -3.43821e-05 2.40072e-07)
(3.94762e-06 -3.78281e-05 2.79723e-07)
(5.10358e-06 -4.02179e-05 3.35409e-07)
(6.15335e-06 -4.18193e-05 4.10643e-07)
(6.9968e-06 -4.28124e-05 5.06717e-07)
(7.53105e-06 -4.33302e-05 6.22478e-07)
(7.65969e-06 -4.34838e-05 7.54063e-07)
(7.30592e-06 -4.33768e-05 8.94224e-07)
(6.42847e-06 -4.31121e-05 1.03236e-06)
(5.03867e-06 -4.27926e-05 1.155e-06)
(3.212e-06 -4.25136e-05 1.24798e-06)
(1.08879e-06 -4.23509e-05 1.29834e-06)
(-1.1394e-06 -4.23479e-05 1.29829e-06)
(-3.26164e-06 -4.25045e-05 1.24788e-06)
(-5.0865e-06 -4.27778e-05 1.15481e-06)
(-6.47376e-06 -4.30915e-05 1.03214e-06)
(-7.34817e-06 -4.33508e-05 8.94041e-07)
(-7.69841e-06 -4.3453e-05 7.5399e-07)
(-7.56588e-06 -4.32951e-05 6.22505e-07)
(-7.02742e-06 -4.27735e-05 5.0684e-07)
(-6.17953e-06 -4.17777e-05 4.10891e-07)
(-5.12497e-06 -4.0175e-05 3.35777e-07)
(-3.96404e-06 -3.7786e-05 2.802e-07)
(-2.79119e-06 -3.43427e-05 2.40631e-07)
(-1.69107e-06 -2.94027e-05 2.09235e-07)
(-7.59518e-07 -2.2133e-05 1.72151e-07)
(-9.12936e-08 -1.06247e-05 9.17451e-08)
(7.25794e-08 -1.13998e-05 7.28327e-08)
(5.96178e-07 -2.37119e-05 1.36204e-07)
(1.32726e-06 -3.15081e-05 1.66376e-07)
(2.19888e-06 -3.68673e-05 1.94372e-07)
(3.14213e-06 -4.06958e-05 2.31941e-07)
(4.09452e-06 -4.34723e-05 2.85979e-07)
(4.98213e-06 -4.54802e-05 3.60012e-07)
(5.72193e-06 -4.69024e-05 4.55675e-07)
(6.22341e-06 -4.78648e-05 5.72356e-07)
(6.39603e-06 -4.8464e-05 7.06661e-07)
(6.16159e-06 -4.87835e-05 8.51711e-07)
(5.47038e-06 -4.89027e-05 9.96816e-07)
(4.31984e-06 -4.89e-05 1.12749e-06)
(2.76832e-06 -4.88473e-05 1.22781e-06)
(9.39658e-07 -4.88026e-05 1.28273e-06)
(-9.88092e-07 -4.88001e-05 1.28266e-06)
(-2.81571e-06 -4.88394e-05 1.22768e-06)
(-4.36514e-06 -4.88868e-05 1.12726e-06)
(-5.51277e-06 -4.88846e-05 9.96585e-07)
(-6.20055e-06 -4.87609e-05 8.51476e-07)
(-6.43108e-06 -4.84373e-05 7.06488e-07)
(-6.25437e-06 -4.78347e-05 5.72224e-07)
(-5.74855e-06 -4.68695e-05 4.55649e-07)
(-5.00429e-06 -4.54454e-05 3.60102e-07)
(-4.11214e-06 -4.3437e-05 2.86151e-07)
(-3.15525e-06 -4.06614e-05 2.32205e-07)
(-2.20762e-06 -3.68357e-05 1.94707e-07)
(-1.33209e-06 -3.14814e-05 1.66742e-07)
(-5.97975e-07 -2.36927e-05 1.36597e-07)
(-7.26396e-08 -1.13915e-05 7.31275e-08)
(4.66265e-08 -1.1954e-05 4.69122e-08)
(3.76398e-07 -2.4835e-05 8.69545e-08)
(8.40617e-07 -3.3016e-05 1.07127e-07)
(1.40647e-06 -3.87076e-05 1.28858e-07)
(2.03799e-06 -4.28722e-05 1.60651e-07)
(2.70034e-06 -4.60163e-05 2.07892e-07)
(3.34649e-06 -4.8434e-05 2.73663e-07)
(3.9175e-06 -5.03076e-05 3.59871e-07)
(4.34302e-06 -5.17537e-05 4.66529e-07)
(4.54606e-06 -5.28512e-05 5.91116e-07)
(4.45397e-06 -5.36591e-05 7.27625e-07)
(4.01295e-06 -5.42265e-05 8.66075e-07)
(3.20651e-06 -5.46e-05 9.92297e-07)
(2.07117e-06 -5.482e-05 1.09027e-06)
(7.02969e-07 -5.49195e-05 1.14435e-06)
(-7.49532e-07 -5.49175e-05 1.14429e-06)
(-2.11654e-06 -5.48135e-05 1.09014e-06)
(-3.24962e-06 -5.45885e-05 9.92046e-07)
(-4.05299e-06 -5.42109e-05 8.65767e-07)
(-4.49043e-06 -5.36393e-05 7.27279e-07)
(-4.57842e-06 -5.28279e-05 5.90859e-07)
(-4.37109e-06 -5.17275e-05 4.66313e-07)
(-3.94118e-06 -5.02794e-05 3.5976e-07)
(-3.36574e-06 -4.84046e-05 2.73638e-07)
(-2.71525e-06 -4.59867e-05 2.07921e-07)
(-2.04876e-06 -4.28438e-05 1.60772e-07)
(-1.41343e-06 -3.86817e-05 1.29046e-07)
(-8.44297e-07 -3.29944e-05 1.07404e-07)
(-3.77667e-07 -2.48196e-05 8.7249e-08)
(-4.66391e-08 -1.19473e-05 4.71552e-08)
(1.358e-08 -1.22323e-05 1.38354e-08)
(1.00756e-07 -2.53957e-05 2.42834e-08)
(2.31862e-07 -3.37866e-05 3.13131e-08)
(4.13924e-07 -3.96942e-05 4.36376e-08)
(6.49798e-07 -4.41139e-05 6.54147e-08)
(9.36824e-07 -4.75686e-05 9.97205e-08)
(1.26109e-06 -5.03576e-05 1.49027e-07)
(1.59484e-06 -5.26594e-05 2.15063e-07)
(1.89571e-06 -5.45781e-05 2.9834e-07)
(2.10916e-06 -5.61732e-05 3.97495e-07)
(2.1759e-06 -5.74767e-05 5.07877e-07)
(2.04397e-06 -5.8506e-05 6.21638e-07)
(1.68502e-06 -5.92707e-05 7.26679e-07)
(1.10942e-06 -5.97765e-05 8.09094e-07)
(3.74406e-07 -6.00275e-05 8.54956e-07)
(-4.1925e-07 -6.00256e-05 8.54881e-07)
(-1.15293e-06 -5.97703e-05 8.089e-07)
(-1.72624e-06 -5.92603e-05 7.26346e-07)
(-2.08204e-06 -5.84921e-05 6.21263e-07)
(-2.21013e-06 -5.74592e-05 5.07489e-07)
(-2.13925e-06 -5.61528e-05 3.97118e-07)
(-1.92152e-06 -5.45553e-05 2.98032e-07)
(-1.61631e-06 -5.26351e-05 2.14799e-07)
(-1.27826e-06 -5.03325e-05 1.48873e-07)
(-9.49833e-07 -4.75435e-05 9.96527e-08)
(-6.58954e-07 -4.40901e-05 6.53882e-08)
(-4.19673e-07 -3.96726e-05 4.37117e-08)
(-2.34755e-07 -3.37688e-05 3.1473e-08)
(-1.01623e-07 -2.5383e-05 2.45002e-08)
(-1.35252e-08 -1.22269e-05 1.40592e-08)
(-2.55142e-08 -1.21761e-05 -2.52453e-08)
(-2.20581e-07 -2.52773e-05 -4.95656e-08)
(-4.75942e-07 -3.36652e-05 -5.83799e-08)
(-7.41303e-07 -3.96387e-05 -5.84672e-08)
(-9.71037e-07 -4.4198e-05 -5.08838e-08)
(-1.13209e-06 -4.78667e-05 -3.54069e-08)
(-1.20051e-06 -5.09421e-05 -1.07058e-08)
(-1.16648e-06 -5.3595e-05 2.45828e-08)
(-1.03684e-06 -5.59161e-05 7.13445e-08)
(-8.35684e-07 -5.79457e-05 1.29541e-07)
(-6.00581e-07 -5.96894e-05 1.96822e-07)
(-3.75262e-07 -6.11324e-05 2.68445e-07)
(-1.97492e-07 -6.22499e-05 3.36192e-07)
(-8.67996e-08 -6.30148e-05 3.90357e-07)
(-3.53916e-08 -6.34033e-05 4.20863e-07)
(-7.43191e-09 -6.34013e-05 4.20748e-07)
(4.5245e-08 -6.3009e-05 3.90104e-07)
(1.58281e-07 -6.22405e-05 3.35827e-07)
(3.39201e-07 -6.11195e-05 2.68001e-07)
(5.6824e-07 -5.96733e-05 1.96388e-07)
(8.07408e-07 -5.79274e-05 1.29111e-07)
(1.01279e-06 -5.58959e-05 7.09749e-08)
(1.1467e-06 -5.35735e-05 2.42581e-08)
(1.18484e-06 -5.09202e-05 -1.09303e-08)
(1.12038e-06 -4.78451e-05 -3.5537e-08)
(9.62984e-07 -4.41776e-05 -5.09387e-08)
(7.3643e-07 -3.96205e-05 -5.84372e-08)
(4.73612e-07 -3.36503e-05 -5.82786e-08)
(2.19942e-07 -2.52667e-05 -4.9385e-08)
(2.55876e-08 -1.21715e-05 -2.50462e-08)
(-6.83755e-08 -1.17423e-05 -6.81425e-08)
(-5.69398e-07 -2.43957e-05 -1.30585e-07)
(-1.24315e-06 -3.25393e-05 -1.57141e-07)
(-1.99517e-06 -3.84017e-05 -1.71868e-07)
(-2.73555e-06 -4.29538e-05 -1.81802e-07)
(-3.39373e-06 -4.67038e-05 -1.90081e-07)
(-3.90497e-06 -4.99377e-05 -1.96899e-07)
(-4.21759e-06 -5.28155e-05 -2.01357e-07)
(-4.29692e-06 -5.54146e-05 -2.02016e-07)
(-4.1295e-06 -5.77567e-05 -1.97601e-07)
(-3.72444e-06 -5.98247e-05 -1.87599e-07)
(-3.11196e-06 -6.15778e-05 -1.72727e-07)
(-2.33693e-06 -6.29622e-05 -1.556e-07)
(-1.45092e-06 -6.39235e-05 -1.40051e-07)
(-5.03604e-07 -6.44165e-05 -1.30607e-07)
(4.63207e-07 -6.44147e-05 -1.30709e-07)
(1.41172e-06 -6.39182e-05 -1.40318e-07)
(2.29986e-06 -6.29535e-05 -1.56011e-07)
(3.07786e-06 -6.15658e-05 -1.73169e-07)
(3.69394e-06 -5.98101e-05 -1.88037e-07)
(4.10292e-06 -5.774e-05 -1.98066e-07)
(4.27433e-06 -5.53965e-05 -2.02426e-07)
(4.19909e-06 -5.27964e-05 -2.01667e-07)
(3.89046e-06 -4.99185e-05 -1.97177e-07)
(3.38295e-06 -4.6685e-05 -1.90262e-07)
(2.72823e-06 -4.29364e-05 -1.81871e-07)
(1.99086e-06 -3.83862e-05 -1.71876e-07)
(1.24115e-06 -3.25266e-05 -1.57071e-07)
(5.6892e-07 -2.43868e-05 -1.3041e-07)
(6.84787e-08 -1.17385e-05 -6.79381e-08)
(-1.11936e-07 -1.09125e-05 -1.11711e-07)
(-9.20431e-07 -2.27159e-05 -2.12843e-07)
(-2.01455e-06 -3.0361e-05 -2.57683e-07)
(-3.25842e-06 -3.59191e-05 -2.88213e-07)
(-4.51987e-06 -4.02959e-05 -3.17658e-07)
(-5.69145e-06 -4.39672e-05 -3.5269e-07)
(-6.66644e-06 -4.71999e-05 -3.95082e-07)
(-7.34906e-06 -5.01395e-05 -4.44641e-07)
(-7.65979e-06 -5.28503e-05 -4.99453e-07)
(-7.54336e-06 -5.53385e-05 -5.56621e-07)
(-6.97642e-06 -5.75714e-05 -6.1249e-07)
(-5.9717e-06 -5.94891e-05 -6.62896e-07)
(-4.57917e-06 -6.10188e-05 -7.04174e-07)
(-2.88346e-06 -6.20889e-05 -7.33214e-07)
(-9.95626e-07 -6.264e-05 -7.48115e-07)
(9.58116e-07 -6.26382e-05 -7.48186e-07)
(2.847e-06 -6.20839e-05 -7.33385e-07)
(4.54476e-06 -6.10106e-05 -7.04455e-07)
(5.93992e-06 -5.94778e-05 -6.63259e-07)
(6.94786e-06 -5.75578e-05 -6.12859e-07)
(7.51832e-06 -5.53231e-05 -5.56978e-07)
(7.63848e-06 -5.28337e-05 -4.99802e-07)
(7.33163e-06 -5.01226e-05 -4.44917e-07)
(6.65277e-06 -4.71829e-05 -3.95328e-07)
(5.68133e-06 -4.39509e-05 -3.52875e-07)
(4.51306e-06 -4.02809e-05 -3.17782e-07)
(3.25444e-06 -3.5906e-05 -2.88255e-07)
(2.01271e-06 -3.03503e-05 -2.57635e-07)
(9.19997e-07 -2.27084e-05 -2.12679e-07)
(1.12034e-07 -1.09093e-05 -1.11513e-07)
(-1.52156e-07 -9.69998e-06 -1.51956e-07)
(-1.2419e-06 -2.02666e-05 -2.88776e-07)
(-2.72225e-06 -2.71654e-05 -3.508e-07)
(-4.42309e-06 -3.22252e-05 -3.96687e-07)
(-6.17515e-06 -3.6252e-05 -4.45614e-07)
(-7.8369e-06 -3.96728e-05 -5.07754e-07)
(-9.26143e-06 -4.27279e-05 -5.86418e-07)
(-1.0309e-05 -4.55462e-05 -6.82047e-07)
(-1.0855e-05 -4.81802e-05 -7.9244e-07)
(-1.08021e-05 -5.06267e-05 -9.12902e-07)
(-1.00926e-05 -5.28429e-05 -1.0364e-06)
(-8.72034e-06 -5.47602e-05 -1.15387e-06)
(-6.7393e-06 -5.62979e-05 -1.25514e-06)
(-4.26567e-06 -5.73768e-05 -1.32985e-06)
(-1.47052e-06 -5.79334e-05 -1.36957e-06)
(1.43667e-06 -5.79316e-05 -1.36962e-06)
(4.2326e-06 -5.73717e-05 -1.33001e-06)
(6.70779e-06 -5.62898e-05 -1.25535e-06)
(8.69101e-06 -5.47497e-05 -1.15412e-06)
(1.0066e-05 -5.28304e-05 -1.0367e-06)
(1.07786e-05 -5.06128e-05 -9.13183e-07)
(1.0835e-05 -4.81655e-05 -7.92709e-07)
(1.02925e-05 -4.55312e-05 -6.82309e-07)
(9.24835e-06 -4.2713e-05 -5.86637e-07)
(7.82724e-06 -3.96587e-05 -5.07926e-07)
(6.1686e-06 -3.62392e-05 -4.45735e-07)
(4.41923e-06 -3.22141e-05 -3.96686e-07)
(2.72057e-06 -2.71565e-05 -3.50736e-07)
(1.24154e-06 -2.02603e-05 -2.88623e-07)
(1.5226e-07 -9.69728e-06 -1.51761e-07)
(-1.843e-07 -8.15646e-06 -1.84126e-07)
(-1.498e-06 -1.71521e-05 -3.49389e-07)
(-3.29084e-06 -2.30863e-05 -4.25178e-07)
(-5.37014e-06 -2.747e-05 -4.83862e-07)
(-7.53873e-06 -3.09809e-05 -5.49768e-07)
(-9.62577e-06 -3.39842e-05 -6.3607e-07)
(-1.14482e-05 -3.66886e-05 -7.47649e-07)
(-1.28258e-05 -3.92053e-05 -8.85554e-07)
(-1.35922e-05 -4.15768e-05 -1.04706e-06)
(-1.36101e-05 -4.37952e-05 -1.22575e-06)
(-1.279e-05 -4.58156e-05 -1.41152e-06)
(-1.11079e-05 -4.75702e-05 -1.59058e-06)
(-8.62019e-06 -4.89804e-05 -1.7467e-06)
(-5.47069e-06 -4.99712e-05 -1.86305e-06)
(-1.88443e-06 -5.04824e-05 -1.92543e-06)
(1.85462e-06 -5.04808e-05 -1.92544e-06)
(5.44138e-06 -4.99666e-05 -1.86311e-06)
(8.59203e-06 -4.89732e-05 -1.74678e-06)
(1.10814e-05 -4.75605e-05 -1.59068e-06)
(1.27656e-05 -4.58043e-05 -1.41164e-06)
(1.35883e-05 -4.37827e-05 -1.22589e-06)
(1.35733e-05 -4.15638e-05 -1.04722e-06)
(1.28101e-05 -3.91921e-05 -8.85711e-07)
(1.14356e-05 -3.66759e-05 -7.4778e-07)
(9.61649e-06 -3.39724e-05 -6.36171e-07)
(7.53241e-06 -3.09702e-05 -5.49872e-07)
(5.36641e-06 -2.74608e-05 -4.83873e-07)
(3.28915e-06 -2.30789e-05 -4.25114e-07)
(1.49761e-06 -1.71471e-05 -3.49234e-07)
(1.84392e-07 -8.15434e-06 -1.83937e-07)
(-2.03014e-07 -6.37644e-06 -2.02859e-07)
(-1.65033e-06 -1.35588e-05 -3.84373e-07)
(-3.64231e-06 -1.83619e-05 -4.67714e-07)
(-5.97941e-06 -2.19265e-05 -5.33861e-07)
(-8.44852e-06 -2.47829e-05 -6.11052e-07)
(-1.08558e-05 -2.72269e-05 -7.14826e-07)
(-1.29883e-05 -2.9432e-05 -8.51451e-07)
(-1.46318e-05 -3.14915e-05 -1.02239e-06)
(-1.55848e-05 -3.34407e-05 -1.22448e-06)
(-1.56769e-05 -3.52711e-05 -1.4498e-06)
(-1.47919e-05 -3.69428e-05 -1.68556e-06)
(-1.28902e-05 -3.83968e-05 -1.91406e-06)
(-1.00298e-05 -3.95662e-05 -2.1142e-06)
(-6.37586e-06 -4.03874e-05 -2.26386e-06)
(-2.19535e-06 -4.08111e-05 -2.34425e-06)
(2.16995e-06 -4.08097e-05 -2.34421e-06)
(6.35071e-06 -4.03834e-05 -2.2638e-06)
(1.00053e-05 -3.956e-05 -2.11414e-06)