/*--------------------------------*- C++ -*----------------------------------*\
| =========                 |                                                 |
| \\      /  F ield         | OpenFOAM: The Open Source CFD Toolbox           |
|  \\    /   O peration     | Version:  v1906                                 |
|   \\  /    A nd           | Web:      www.OpenFOAM.com                      |
|    \\/     M anipulation  |                                                 |
\*---------------------------------------------------------------------------*/
FoamFile
{
    version     2.0;
    format      ascii;
    class       volVectorField;
    location    "44.4/oil";
    object      U;
}
// * * * * * * * * * * * * * * * * * * * * * * * * * * * * * * * * * * * * * //

dimensions      [0 1 -1 0 0 0 0];


internalField   nonuniform List<vector> 
27760
(
(-2.62909e-05 -2.68115e-05 -2.62909e-05)
(-5.19083e-05 -2.0116e-05 -1.8932e-05)
(-3.8197e-06 -5.22339e-06 -5.16517e-06)
(-6.26149e-06 -8.60644e-07 -9.24416e-07)
(-1.42415e-06 -2.83887e-07 -3.5693e-07)
(-6.99006e-07 -1.27269e-07 -2.03916e-07)
(-4.79634e-08 -3.34112e-08 -1.14891e-07)
(2.60562e-07 5.55003e-09 -8.06366e-08)
(4.30863e-07 2.68334e-08 -6.30357e-08)
(5.03716e-07 3.94659e-08 -5.2957e-08)
(5.06649e-07 4.82476e-08 -4.56397e-08)
(4.53373e-07 5.45315e-08 -4.00212e-08)
(3.5466e-07 5.91321e-08 -3.56344e-08)
(2.21732e-07 6.22594e-08 -3.25142e-08)
(6.69819e-08 6.39102e-08 -3.08259e-08)
(-9.61312e-08 6.40741e-08 -3.0664e-08)
(-2.53938e-07 6.27981e-08 -3.19814e-08)
(-3.93666e-07 6.02085e-08 -3.45644e-08)
(-5.04622e-07 5.65118e-08 -3.80393e-08)
(-5.78983e-07 5.19739e-08 -4.19063e-08)
(-6.12527e-07 4.66895e-08 -4.56914e-08)
(-6.05025e-07 4.08821e-08 -4.88051e-08)
(-5.59482e-07 3.49706e-08 -5.04273e-08)
(-4.82126e-07 2.89719e-08 -5.02052e-08)
(-3.82287e-07 2.30241e-08 -4.76677e-08)
(-2.71537e-07 1.73717e-08 -4.24807e-08)
(-1.63318e-07 1.25226e-08 -3.46637e-08)
(-7.23118e-08 9.43298e-09 -2.48673e-08)
(-1.20849e-08 9.46117e-09 -1.50204e-08)
(5.64775e-09 1.10216e-08 -5.55373e-09)
(-1.90781e-05 -5.33357e-05 -1.90781e-05)
(-6.28025e-06 -6.88899e-06 -8.54364e-06)
(-8.52221e-06 -8.32329e-06 -2.98534e-06)
(-3.99534e-06 -2.3583e-06 -8.52663e-07)
(-1.62877e-06 -1.40083e-06 -4.21791e-07)
(-5.27844e-07 -7.27516e-07 -2.05349e-07)
(2.46105e-07 -4.37133e-07 -9.95453e-08)
(6.95339e-07 -2.79494e-07 -4.83599e-08)
(9.56166e-07 -1.86553e-07 -1.83496e-08)
(1.06679e-06 -1.23402e-07 1.67225e-09)
(1.05395e-06 -7.58346e-08 1.70879e-08)
(9.35133e-07 -3.85662e-08 2.96642e-08)
(7.28069e-07 -9.91048e-09 3.9635e-08)
(4.53244e-07 1.00759e-08 4.66987e-08)
(1.34833e-07 2.08724e-08 5.04918e-08)
(-2.0034e-07 2.21993e-08 5.08055e-08)
(-5.24805e-07 1.43466e-08 4.7719e-08)
(-8.12847e-07 -1.70855e-09 4.16395e-08)
(-1.04286e-06 -2.43584e-08 3.32657e-08)
(-1.19931e-06 -5.15326e-08 2.35105e-08)
(-1.27378e-06 -8.10452e-08 1.34803e-08)
(-1.26526e-06 -1.10595e-07 4.22651e-09)
(-1.1801e-06 -1.37738e-07 -3.33138e-09)
(-1.03118e-06 -1.60381e-07 -8.40972e-09)
(-8.36761e-07 -1.76107e-07 -1.04232e-08)
(-6.19252e-07 -1.81946e-07 -9.14611e-09)
(-4.03701e-07 -1.73867e-07 -4.93966e-09)
(-2.15499e-07 -1.46659e-07 8.83475e-10)
(-7.70724e-08 -9.47054e-08 5.35953e-09)
(-4.74817e-09 -2.37964e-08 4.88914e-09)
(-5.28188e-06 -4.9639e-06 -5.28183e-06)
(-8.34866e-06 -9.2784e-06 -3.05749e-06)
(-4.42014e-06 -5.13875e-06 -1.34859e-06)
(-2.67981e-06 -2.86673e-06 -6.35243e-07)
(-1.07923e-06 -1.92368e-06 -2.9575e-07)
(-9.90468e-08 -1.33646e-06 -1.28948e-07)
(6.13596e-07 -1.02623e-06 -4.16954e-08)
(1.07194e-06 -8.33067e-07 6.19154e-09)
(1.3454e-06 -7.01078e-07 3.73598e-08)
(1.45477e-06 -5.99958e-07 6.04046e-08)
(1.41769e-06 -5.17271e-07 7.9317e-08)
(1.2493e-06 -4.48742e-07 9.52029e-08)
(9.68888e-07 -3.9437e-07 1.07976e-07)
(6.01496e-07 -3.55768e-07 1.17081e-07)
(1.77861e-07 -3.34657e-07 1.21968e-07)
(-2.67341e-07 -3.31902e-07 1.22331e-07)
(-6.98359e-07 -3.46991e-07 1.18248e-07)
(-1.08165e-06 -3.77877e-07 1.10217e-07)
(-1.38905e-06 -4.21113e-07 9.91061e-08)
(-1.60028e-06 -4.72241e-07 8.60474e-08)
(-1.70442e-06 -5.26174e-07 7.23e-08)
(-1.70043e-06 -5.77675e-07 5.91016e-08)
(-1.59658e-06 -6.21532e-07 4.75279e-08)
(-1.40939e-06 -6.52424e-07 3.84321e-08)
(-1.16194e-06 -6.64543e-07 3.23295e-08)
(-8.81994e-07 -6.51041e-07 2.92837e-08)
(-5.99734e-07 -6.03252e-07 2.86956e-08)
(-3.44384e-07 -5.104e-07 2.88615e-08)
(-1.42713e-07 -3.59526e-07 2.64031e-08)
(-1.47088e-08 -1.43385e-07 1.48886e-08)
(-9.57003e-07 -7.14678e-06 -9.56932e-07)
(-2.2375e-06 -5.32105e-06 -8.68702e-07)
(-1.93351e-06 -4.30907e-06 -6.28756e-07)
(-1.19686e-06 -3.13363e-06 -3.27583e-07)
(-2.78493e-07 -2.49292e-06 -1.50095e-07)
(4.40482e-07 -2.06182e-06 -4.85112e-08)
(1.01952e-06 -1.79405e-06 1.27728e-08)
(1.42673e-06 -1.6024e-06 5.19227e-08)
(1.67425e-06 -1.45247e-06 8.08849e-08)
(1.76185e-06 -1.32477e-06 1.04609e-07)
(1.69497e-06 -1.21246e-06 1.25275e-07)
(1.48381e-06 -1.11516e-06 1.43172e-07)
(1.14672e-06 -1.03587e-06 1.57774e-07)
(7.10667e-07 -9.78687e-07 1.68255e-07)
(2.10323e-07 -9.47145e-07 1.73878e-07)
(-3.14472e-07 -9.43011e-07 1.74246e-07)
(-8.2234e-07 -9.65623e-07 1.69427e-07)
(-1.27436e-06 -1.01172e-06 1.59979e-07)
(-1.63788e-06 -1.07569e-06 1.46898e-07)
(-1.8895e-06 -1.15023e-06 1.31469e-07)
(-2.01678e-06 -1.22699e-06 1.15089e-07)
(-2.01867e-06 -1.29729e-06 9.91088e-08)
(-1.90478e-06 -1.35232e-06 8.46868e-08)
(-1.69388e-06 -1.38312e-06 7.26937e-08)
(-1.41179e-06 -1.38002e-06 6.35976e-08)
(-1.08901e-06 -1.33187e-06 5.73763e-08)
(-7.58207e-07 -1.22486e-06 5.33316e-08)
(-4.50517e-07 -1.0413e-06 4.95302e-08)
(-1.96704e-07 -7.56269e-07 4.22883e-08)
(-2.24954e-08 -3.32375e-07 2.27224e-08)
(-3.19695e-07 -2.45713e-06 -3.19606e-07)
(-1.09888e-06 -3.5917e-06 -3.88522e-07)
(-8.13872e-07 -3.67322e-06 -2.7272e-07)
(-3.21824e-07 -3.34217e-06 -1.40883e-07)
(3.12787e-07 -3.08442e-06 -4.86108e-08)
(8.84138e-07 -2.85935e-06 1.21901e-08)
(1.37182e-06 -2.68162e-06 5.44446e-08)
(1.7318e-06 -2.52487e-06 8.59472e-08)
(1.94958e-06 -2.37918e-06 1.12479e-07)
(2.01237e-06 -2.23943e-06 1.36345e-07)
(1.91702e-06 -2.10697e-06 1.58274e-07)
(1.66952e-06 -1.98697e-06 1.7783e-07)
(1.28688e-06 -1.8866e-06 1.94028e-07)
(7.96999e-07 -1.81316e-06 2.05745e-07)
(2.3722e-07 -1.77239e-06 2.12029e-07)
(-3.48836e-07 -1.76718e-06 2.12377e-07)
(-9.15569e-07 -1.7968e-06 2.06842e-07)
(-1.42e-06 -1.85683e-06 1.96048e-07)
(-1.82614e-06 -1.93942e-06 1.81141e-07)
(-2.1084e-06 -2.03428e-06 1.63558e-07)
(-2.25338e-06 -2.12969e-06 1.44867e-07)
(-2.26025e-06 -2.21334e-06 1.26544e-07)
(-2.13965e-06 -2.27275e-06 1.09822e-07)
(-1.9119e-06 -2.29525e-06 9.55944e-08)
(-1.60454e-06 -2.26726e-06 8.43156e-08)
(-1.24965e-06 -2.17314e-06 7.59136e-08)
(-8.814e-07 -1.99337e-06 6.96368e-08)
(-5.32413e-07 -1.70152e-06 6.33859e-08)
(-2.37378e-07 -1.25584e-06 5.31888e-08)
(-2.79946e-08 -5.75231e-07 2.82729e-08)
(-1.37982e-07 -2.0108e-06 -1.37874e-07)
(-3.40129e-07 -3.23559e-06 -1.48631e-07)
(-1.22322e-07 -3.72451e-06 -9.5938e-08)
(2.58557e-07 -3.82805e-06 -3.49823e-08)
(7.51696e-07 -3.83126e-06 1.47652e-08)
(1.23368e-06 -3.77112e-06 5.24928e-08)
(1.65958e-06 -3.6831e-06 8.31676e-08)
(1.98216e-06 -3.57145e-06 1.09895e-07)
(2.17385e-06 -3.44237e-06 1.35144e-07)
(2.21435e-06 -3.30195e-06 1.59616e-07)
(2.09469e-06 -3.1589e-06 1.83067e-07)
(1.81757e-06 -3.02381e-06 2.04483e-07)
(1.39869e-06 -2.90809e-06 2.22458e-07)
(8.66421e-07 -2.82225e-06 2.35545e-07)
(2.6011e-07 -2.77435e-06 2.42561e-07)
(-3.73679e-07 -2.76843e-06 2.42881e-07)
(-9.85985e-07 -2.80382e-06 2.36542e-07)
(-1.5306e-06 -2.87498e-06 2.24253e-07)
(-1.96897e-06 -2.97202e-06 2.07338e-07)
(-2.27389e-06 -3.08184e-06 1.87446e-07)
(-2.43153e-06 -3.18955e-06 1.66359e-07)
(-2.44139e-06 -3.27941e-06 1.45706e-07)
(-2.31511e-06 -3.33552e-06 1.2681e-07)
(-2.0743e-06 -3.34167e-06 1.1062e-07)
(-1.74767e-06 -3.28047e-06 9.75884e-08)
(-1.36837e-06 -3.13166e-06 8.76139e-08)
(-9.71663e-07 -2.86937e-06 7.98969e-08)
(-5.915e-07 -2.45653e-06 7.21988e-08)
(-2.65942e-07 -1.83035e-06 6.02719e-08)
(-3.16527e-08 -8.56633e-07 3.19823e-08)
(-3.65526e-08 -1.7228e-06 -3.64287e-08)
(-1.77008e-08 -3.25506e-06 -3.32809e-08)
(2.32192e-07 -4.06975e-06 -6.52079e-09)
(5.97488e-07 -4.47866e-06 2.41774e-08)
(1.03894e-06 -4.68978e-06 5.28139e-08)
(1.47853e-06 -4.77195e-06 7.8218e-08)
(1.86994e-06 -4.77226e-06 1.0247e-07)
(2.1683e-06 -4.71285e-06 1.26696e-07)
(2.34137e-06 -4.61109e-06 1.51719e-07)
(2.36522e-06 -4.48143e-06 1.77329e-07)
(2.22745e-06 -4.33864e-06 2.02638e-07)
(1.92847e-06 -4.19801e-06 2.26181e-07)
(1.48287e-06 -4.07456e-06 2.46154e-07)
(9.19316e-07 -3.98175e-06 2.60774e-07)
(2.78645e-07 -3.92968e-06 2.68601e-07)
(-3.90255e-07 -3.92346e-06 2.6889e-07)
(-1.03583e-06 -3.9625e-06 2.61666e-07)
(-1.60932e-06 -4.04039e-06 2.47723e-07)
(-2.07021e-06 -4.14553e-06 2.28595e-07)
(-2.39029e-06 -4.26248e-06 2.062e-07)
(-2.55556e-06 -4.37364e-06 1.82557e-07)
(-2.56616e-06 -4.46044e-06 1.59481e-07)
(-2.43476e-06 -4.50405e-06 1.38431e-07)
(-2.18398e-06 -4.48515e-06 1.20394e-07)
(-1.84348e-06 -4.38267e-06 1.05839e-07)
(-1.44711e-06 -4.17169e-06 9.46316e-08)
(-1.03085e-06 -3.8193e-06 8.5928e-08)
(-6.29662e-07 -3.27629e-06 7.73763e-08)
(-2.83969e-07 -2.45557e-06 6.44849e-08)
(-3.38654e-08 -1.16371e-06 3.42444e-08)
(2.2085e-09 -1.79265e-06 2.34681e-09)
(1.38851e-07 -3.59334e-06 1.81746e-08)
(4.22149e-07 -4.64679e-06 3.63868e-08)
(7.92659e-07 -5.27083e-06 5.49266e-08)
(1.21411e-06 -5.64332e-06 7.38373e-08)
(1.63188e-06 -5.84486e-06 9.32982e-08)
(2.00271e-06 -5.92819e-06 1.14474e-07)
(2.285e-06 -5.92507e-06 1.37809e-07)
(2.44532e-06 -5.85965e-06 1.63364e-07)
(2.45818e-06 -5.75199e-06 1.90468e-07)
(2.30916e-06 -5.62115e-06 2.17826e-07)
(1.99701e-06 -5.48578e-06 2.43597e-07)
(1.53537e-06 -5.3637e-06 2.65632e-07)
(9.52919e-07 -5.27054e-06 2.81835e-07)
(2.91442e-07 -5.21794e-06 2.90494e-07)
(-3.98588e-07 -5.21178e-06 2.90751e-07)
(-1.06389e-06 -5.25157e-06 2.82616e-07)
(-1.65397e-06 -5.33038e-06 2.66984e-07)
(-2.12703e-06 -5.43538e-06 2.45615e-07)
(-2.45435e-06 -5.54951e-06 2.20695e-07)
(-2.62223e-06 -5.65329e-06 1.94493e-07)
(-2.63158e-06 -5.72602e-06 1.69045e-07)
(-2.49604e-06 -5.74663e-06 1.45946e-07)
(-2.23903e-06 -5.69316e-06 1.26219e-07)
(-1.89086e-06 -5.54133e-06 1.10341e-07)
(-1.48563e-06 -5.26143e-06 9.81397e-08)
(-1.05956e-06 -4.813e-06 8.87424e-08)
(-6.47982e-07 -4.13363e-06 7.97071e-08)
(-2.92475e-07 -3.10986e-06 6.63836e-08)
(-3.48751e-08 -1.48538e-06 3.53e-08)
(1.94469e-08 -1.98435e-06 1.9598e-08)
(2.09756e-07 -4.07118e-06 4.19828e-08)
(5.13579e-07 -5.33862e-06 5.67182e-08)
(8.88335e-07 -6.13972e-06 6.99507e-08)
(1.29837e-06 -6.64946e-06 8.42876e-08)
(1.70085e-06 -6.95754e-06 1.00892e-07)
(2.05612e-06 -7.12155e-06 1.20667e-07)
(2.32579e-06 -7.17925e-06 1.43839e-07)
(2.47689e-06 -7.15912e-06 1.70142e-07)
(2.48355e-06 -7.0847e-06 1.98653e-07)
(2.3303e-06 -6.9778e-06 2.27832e-07)
(2.01466e-06 -6.85918e-06 2.55568e-07)
(1.54935e-06 -6.74827e-06 2.79422e-07)
(9.62638e-07 -6.6619e-06 2.97012e-07)
(2.96544e-07 -6.61265e-06 3.06376e-07)
(-3.97928e-07 -6.60682e-06 3.06602e-07)
(-1.06687e-06 -6.64403e-06 2.97694e-07)
(-1.65915e-06 -6.71715e-06 2.8058e-07)
(-2.13255e-06 -6.81283e-06 2.57239e-07)
(-2.45853e-06 -6.91314e-06 2.30118e-07)
(-2.62389e-06 -6.99756e-06 2.01734e-07)
(-2.63047e-06 -7.0443e-06 1.74293e-07)
(-2.49271e-06 -7.03084e-06 1.49487e-07)
(-2.23455e-06 -6.9332e-06 1.28394e-07)
(-1.88636e-06 -6.72425e-06 1.11486e-07)
(-1.48195e-06 -6.36961e-06 9.85694e-08)
(-1.05705e-06 -5.82113e-06 8.8731e-08)
(-6.46556e-07 -5.00244e-06 7.94954e-08)
(-2.91836e-07 -3.77273e-06 6.61869e-08)
(-3.47871e-08 -1.81135e-06 3.52537e-08)
(2.60459e-08 -2.23407e-06 2.62081e-08)
(2.36111e-07 -4.61377e-06 5.12319e-08)
(5.4373e-07 -6.08076e-06 6.43741e-08)
(9.12247e-07 -7.03683e-06 7.52136e-08)
(1.30668e-06 -7.66839e-06 8.73475e-08)
(1.69083e-06 -8.07469e-06 1.02498e-07)
(2.02858e-06 -8.31819e-06 1.21525e-07)
(2.28456e-06 -8.44087e-06 1.4459e-07)
(2.42725e-06 -8.47407e-06 1.71336e-07)
(2.43126e-06 -8.44335e-06 2.00719e-07)
(2.28068e-06 -8.37174e-06 2.31055e-07)
(1.97212e-06 -8.28072e-06 2.60067e-07)
(1.51729e-06 -8.19025e-06 2.85094e-07)
(9.4345e-07 -8.11755e-06 3.03567e-07)
(2.91873e-07 -8.07535e-06 3.1337e-07)
(-3.87157e-07 -8.07007e-06 3.13563e-07)
(-1.04073e-06 -8.10143e-06 3.04145e-07)
(-1.61839e-06 -8.16236e-06 2.86052e-07)
(-2.07855e-06 -8.23955e-06 2.61419e-07)
(-2.39356e-06 -8.3152e-06 2.3286e-07)
(-2.55118e-06 -8.36867e-06 2.03051e-07)
(-2.55409e-06 -8.37797e-06 1.74351e-07)
(-2.41721e-06 -8.31998e-06 1.48519e-07)
(-2.16445e-06 -8.16952e-06 1.2665e-07)
(-1.82552e-06 -7.89689e-06 1.09188e-07)
(-1.4332e-06 -7.46342e-06 9.59205e-08)
(-1.02181e-06 -6.81322e-06 8.5943e-08)
(-6.24776e-07 -5.856e-06 7.68087e-08)
(-2.8192e-07 -4.42358e-06 6.39267e-08)
(-3.36085e-08 -2.13149e-06 3.41133e-08)
(2.74575e-08 -2.49842e-06 2.76238e-08)
(2.35734e-07 -5.16518e-06 5.26067e-08)
(5.3068e-07 -6.81902e-06 6.45291e-08)
(8.78948e-07 -7.91496e-06 7.39719e-08)
(1.24745e-06 -8.65734e-06 8.47788e-08)
(1.60477e-06 -9.15559e-06 9.88623e-08)
(1.91842e-06 -9.4775e-06 1.17063e-07)
(2.15631e-06 -9.66824e-06 1.39557e-07)
(2.28916e-06 -9.76097e-06 1.65946e-07)
(2.29277e-06 -9.78215e-06 1.95172e-07)
(2.15146e-06 -9.7548e-06 2.25505e-07)
(1.86123e-06 -9.70018e-06 2.54607e-07)
(1.43254e-06 -9.63779e-06 2.79756e-07)
(8.90937e-07 -9.58432e-06 2.98312e-07)
(2.75689e-07 -9.5521e-06 3.08095e-07)
(-3.65287e-07 -9.54746e-06 3.08256e-07)
(-9.81784e-07 -9.57019e-06 2.9879e-07)
(-1.5257e-06 -9.61358e-06 2.80537e-07)
(-1.95747e-06 -9.66482e-06 2.55671e-07)
(-2.25114e-06 -9.70686e-06 2.26859e-07)
(-2.39575e-06 -9.71983e-06 1.96876e-07)
(-2.39462e-06 -9.6823e-06 1.68088e-07)
(-2.26272e-06 -9.57146e-06 1.42247e-07)
(-2.0232e-06 -9.36157e-06 1.20444e-07)
(-1.70427e-06 -9.02105e-06 1.03106e-07)
(-1.33663e-06 -8.50729e-06 9.00088e-08)
(-9.52195e-07 -7.75707e-06 8.02566e-08)
(-5.81882e-07 -6.66654e-06 7.15448e-08)
(-2.62478e-07 -5.0412e-06 5.95437e-08)
(-3.1305e-08 -2.43545e-06 3.18452e-08)
(2.58296e-08 -2.75231e-06 2.60042e-08)
(2.17068e-07 -5.68606e-06 4.90293e-08)
(4.84018e-07 -7.50995e-06 5.95769e-08)
(7.9707e-07 -8.73103e-06 6.78327e-08)
(1.12653e-06 -9.57352e-06 7.74467e-08)
(1.44552e-06 -1.01571e-05 9.03215e-08)
(1.72571e-06 -1.05547e-05 1.07233e-07)
(1.93896e-06 -1.08142e-05 1.28363e-07)
(2.05894e-06 -1.09698e-05 1.53324e-07)
(2.06353e-06 -1.10478e-05 1.81112e-07)
(1.93787e-06 -1.10704e-05 2.10053e-07)
(1.67759e-06 -1.10578e-05 2.37873e-07)
(1.29159e-06 -1.10284e-05 2.61917e-07)
(8.02806e-07 -1.09977e-05 2.79646e-07)
(2.47061e-07 -1.09773e-05 2.88923e-07)
(-3.31818e-07 -1.09734e-05 2.89046e-07)
(-8.88169e-07 -1.09857e-05 2.79999e-07)
(-1.37804e-06 -1.1008e-05 2.62482e-07)
(-1.76527e-06 -1.10283e-05 2.38636e-07)
(-2.02659e-06 -1.10306e-05 2.11004e-07)
(-2.15271e-06 -1.09967e-05 1.82286e-07)
(-2.14753e-06 -1.09064e-05 1.54769e-07)
(-2.02543e-06 -1.07378e-05 1.30138e-07)
(-1.80782e-06 -1.04652e-05 1.09418e-07)
(-1.52047e-06 -1.00559e-05 9.29935e-08)
(-1.19092e-06 -9.46371e-06 8.06555e-08)
(-8.47493e-07 -8.61889e-06 7.15731e-08)
(-5.17498e-07 -7.40518e-06 6.36571e-08)
(-2.33345e-07 -5.6037e-06 5.29931e-08)
(-2.7846e-08 -2.71248e-06 2.84171e-08)
(2.21983e-08 -2.97755e-06 2.2368e-08)
(1.84466e-07 -6.14463e-06 4.19287e-08)
(4.09456e-07 -8.11571e-06 5.07262e-08)
(6.72591e-07 -9.44477e-06 5.76721e-08)
(9.49135e-07 -1.03749e-05 6.59167e-08)
(1.21718e-06 -1.10352e-05 7.7148e-08)
(1.45339e-06 -1.15031e-05 9.20628e-08)
(1.63432e-06 -1.18287e-05 1.10824e-07)
(1.73755e-06 -1.20464e-05 1.33088e-07)
(1.74387e-06 -1.21821e-05 1.57956e-07)
(1.63988e-06 -1.22566e-05 1.83925e-07)
(1.42102e-06 -1.22881e-05 2.08948e-07)
(1.09427e-06 -1.22933e-05 2.30552e-07)
(6.78937e-07 -1.22864e-05 2.46456e-07)
(2.05871e-07 -1.22783e-05 2.54716e-07)
(-2.8694e-07 -1.2275e-05 2.54787e-07)
(-7.60039e-07 -1.22765e-05 2.46668e-07)
(-1.17534e-06 -1.22765e-05 2.30887e-07)
(-1.50177e-06 -1.22638e-05 2.09389e-07)
(-1.71974e-06 -1.22241e-05 1.84483e-07)
(-1.82208e-06 -1.21409e-05 1.58641e-07)
(-1.81304e-06 -1.1996e-05 1.3393e-07)
(-1.70571e-06 -1.17688e-05 1.11884e-07)
(-1.51892e-06 -1.14344e-05 9.33788e-08)
(-1.27485e-06 -1.09591e-05 7.87664e-08)
(-9.9675e-07 -1.02944e-05 6.78465e-08)
(-7.08295e-07 -9.36469e-06 5.99009e-08)
(-4.32041e-07 -8.04301e-06 5.31472e-08)
(-1.94706e-07 -6.08915e-06 4.42832e-08)
(-2.32521e-08 -2.95185e-06 2.38533e-08)
(1.70617e-08 -3.16014e-06 1.72355e-08)
(1.40639e-07 -6.5146e-06 3.21394e-08)
(3.11428e-07 -8.60347e-06 3.87928e-08)
(5.11235e-07 -1.00195e-05 4.4165e-08)
(7.21613e-07 -1.10217e-05 5.07284e-08)
(9.26467e-07 -1.17472e-05 5.9826e-08)
(1.10828e-06 -1.22769e-05 7.19997e-08)
(1.24917e-06 -1.26625e-05 8.74285e-08)
(1.33166e-06 -1.29385e-05 1.05872e-07)
(1.34021e-06 -1.31293e-05 1.26615e-07)
(1.26356e-06 -1.32539e-05 1.48408e-07)
(1.09703e-06 -1.33286e-05 1.69537e-07)
(8.45116e-07 -1.33679e-05 1.87867e-07)
(5.22394e-07 -1.33844e-05 2.01453e-07)
(1.5322e-07 -1.33883e-05 2.08522e-07)
(-2.31737e-07 -1.33857e-05 2.08538e-07)
(-6.00426e-07 -1.33762e-05 2.01503e-07)
(-9.22129e-07 -1.3354e-05 1.87946e-07)
(-1.17239e-06 -1.33087e-05 1.6964e-07)
(-1.33653e-06 -1.32276e-05 1.48564e-07)
(-1.40991e-06 -1.30962e-05 1.26867e-07)
(-1.39706e-06 -1.28985e-05 1.06235e-07)
(-1.30918e-06 -1.26159e-05 8.79332e-08)
(-1.16163e-06 -1.22243e-05 7.26702e-08)
(-9.71822e-07 -1.169e-05 6.06889e-08)
(-7.5773e-07 -1.09626e-05 5.18027e-08)
(-5.3722e-07 -9.96203e-06 4.54499e-08)
(-3.271e-07 -8.55259e-06 4.02322e-08)
(-1.47255e-07 -6.47679e-06 3.35806e-08)
(-1.75902e-08 -3.14331e-06 1.82148e-08)
(1.07755e-08 -3.28875e-06 1.09412e-08)
(8.78792e-08 -6.77394e-06 2.02249e-08)
(1.94283e-07 -8.94517e-06 2.43532e-08)
(3.19304e-07 -1.04233e-05 2.78725e-08)
(4.5198e-07 -1.14791e-05 3.23933e-08)
(5.82704e-07 -1.22551e-05 3.88137e-08)
(7.00658e-07 -1.2835e-05 4.75477e-08)
(7.94403e-07 -1.32713e-05 5.8749e-08)
(8.52244e-07 -1.35979e-05 7.22716e-08)
(8.63163e-07 -1.38381e-05 8.76702e-08)
(8.18499e-07 -1.40088e-05 1.04061e-07)
(7.13597e-07 -1.41238e-05 1.20218e-07)
(5.50116e-07 -1.41954e-05 1.34483e-07)
(3.36937e-07 -1.42346e-05 1.45271e-07)
(9.04186e-08 -1.42502e-05 1.50973e-07)
(-1.6741e-07 -1.4248e-05 1.50923e-07)
(-4.12975e-07 -1.42277e-05 1.45142e-07)
(-6.24283e-07 -1.41838e-05 1.3429e-07)
(-7.84948e-07 -1.41072e-05 1.2e-07)
(-8.86142e-07 -1.3987e-05 1.03844e-07)
(-9.26263e-07 -1.38111e-05 8.74904e-08)
(-9.09975e-07 -1.35659e-05 7.21757e-08)
(-8.45902e-07 -1.32346e-05 5.87721e-08)
(-7.45087e-07 -1.27943e-05 4.77157e-08)
(-6.19269e-07 -1.22118e-05 3.91415e-08)
(-4.80072e-07 -1.14353e-05 3.28855e-08)
(-3.38699e-07 -1.03817e-05 2.85292e-08)
(-2.05413e-07 -8.90917e-06 2.51671e-08)
(-9.22082e-08 -6.74786e-06 2.11226e-08)
(-1.09907e-08 -3.27757e-06 1.1636e-08)
(3.65127e-09 -3.35466e-06 3.8078e-09)
(2.85024e-08 -6.9055e-06 6.7621e-09)
(6.28509e-08 -9.11869e-06 8.07541e-09)
(1.04365e-07 -1.06306e-05 9.49057e-09)
(1.50405e-07 -1.17182e-05 1.16672e-08)
(1.98391e-07 -1.25272e-05 1.49909e-08)
(2.44884e-07 -1.31427e-05 1.96812e-08)
(2.85528e-07 -1.36172e-05 2.58791e-08)
(3.15087e-07 -1.39841e-05 3.3613e-08)
(3.27829e-07 -1.42652e-05 4.27683e-08)
(3.18276e-07 -1.44757e-05 5.29258e-08)
(2.82113e-07 -1.4627e-05 6.33964e-08)
(2.1779e-07 -1.47288e-05 7.30628e-08)
(1.27749e-07 -1.47899e-05 8.07484e-08)
(1.92974e-08 -1.48171e-05 8.49978e-08)
(-9.54263e-08 -1.48151e-05 8.48984e-08)
(-2.02522e-07 -1.47838e-05 8.04877e-08)
(-2.89962e-07 -1.47187e-05 7.2647e-08)
(-3.50545e-07 -1.46127e-05 6.28878e-08)
(-3.82027e-07 -1.44573e-05 5.23867e-08)
(-3.86034e-07 -1.42428e-05 4.22602e-08)
(-3.67068e-07 -1.39579e-05 3.31746e-08)
(-3.30705e-07 -1.35877e-05 2.55382e-08)
(-2.82783e-07 -1.31107e-05 1.94669e-08)
(-2.28647e-07 -1.24939e-05 1.49214e-08)
(-1.72879e-07 -1.16851e-05 1.17532e-08)
(-1.1927e-07 -1.05998e-05 9.74153e-09)
(-7.09555e-08 -9.09278e-06 8.48896e-09)
(-3.1354e-08 -6.8872e-06 7.32443e-09)
(-3.67176e-09 -3.34712e-06 4.33301e-09)
(-4.00507e-09 -3.35183e-06 -3.86202e-09)
(-3.49306e-08 -6.8974e-06 -7.68327e-09)
(-7.73166e-08 -9.1086e-06 -9.39439e-09)
(-1.24696e-07 -1.06231e-05 -1.02645e-08)
(-1.70983e-07 -1.17184e-05 -1.07011e-08)
(-2.11413e-07 -1.25404e-05 -1.08848e-08)
(-2.41752e-07 -1.31738e-05 -1.07978e-08)
(-2.58854e-07 -1.36708e-05 -1.0342e-08)
(-2.60916e-07 -1.4064e-05 -9.35942e-09)
(-2.47875e-07 -1.43742e-05 -7.67508e-09)
(-2.21488e-07 -1.46148e-05 -5.18343e-09)
(-1.85238e-07 -1.47954e-05 -1.89682e-09)
(-1.43501e-07 -1.49231e-05 1.77081e-09)
(-1.00441e-07 -1.50037e-05 5.19052e-09)
(-5.85577e-08 -1.50416e-05 7.32707e-09)
(-1.70846e-08 -1.50397e-05 7.1755e-09)
(2.6446e-08 -1.49981e-05 4.80365e-09)
(7.26706e-08 -1.49138e-05 1.16793e-09)
(1.189e-07 -1.47825e-05 -2.62262e-09)
(1.60644e-07 -1.45985e-05 -5.97551e-09)
(1.93318e-07 -1.43547e-05 -8.45484e-09)
(2.13163e-07 -1.40418e-05 -1.00856e-08)
(2.18274e-07 -1.36463e-05 -1.09635e-08)
(2.08556e-07 -1.31479e-05 -1.12913e-08)
(1.85633e-07 -1.2514e-05 -1.12408e-08)
(1.5244e-07 -1.16929e-05 -1.09043e-08)
(1.1289e-07 -1.05998e-05 -1.02988e-08)
(7.12706e-08 -9.08943e-06 -9.24653e-09)
(3.30661e-08 -6.88422e-06 -7.33645e-09)
(4.10948e-09 -3.34662e-06 -3.4367e-09)
(-1.18421e-08 -3.27724e-06 -1.17041e-08)
(-9.956e-08 -6.74378e-06 -2.24417e-08)
(-2.19938e-07 -8.90725e-06 -2.72413e-08)
(-3.57642e-07 -1.03918e-05 -3.04761e-08)
(-4.97912e-07 -1.14691e-05 -3.36577e-08)
(-6.28626e-07 -1.22819e-05 -3.7557e-08)
(-7.37915e-07 -1.29129e-05 -4.24341e-08)
(-8.15097e-07 -1.34131e-05 -4.82455e-08)
(-8.51176e-07 -1.38144e-05 -5.47419e-08)
(-8.39973e-07 -1.41366e-05 -6.1467e-08)
(-7.78932e-07 -1.43922e-05 -6.78262e-08)
(-6.70057e-07 -1.45891e-05 -7.31724e-08)
(-5.20014e-07 -1.47326e-05 -7.70616e-08)
(-3.39158e-07 -1.48259e-05 -7.92993e-08)
(-1.40197e-07 -1.48711e-05 -8.01429e-08)
(6.50212e-08 -1.48694e-05 -8.0311e-08)
(2.65858e-07 -1.48206e-05 -7.97463e-08)
(4.50264e-07 -1.47236e-05 -7.77609e-08)
(6.05304e-07 -1.4577e-05 -7.40365e-08)
(7.20198e-07 -1.43771e-05 -6.87846e-08)
(7.88022e-07 -1.4119e-05 -6.2412e-08)
(8.06448e-07 -1.37948e-05 -5.56398e-08)
(7.77788e-07 -1.33921e-05 -4.90402e-08)
(7.08031e-07 -1.28911e-05 -4.31074e-08)
(6.05973e-07 -1.22603e-05 -3.81017e-08)
(4.82084e-07 -1.14487e-05 -3.40482e-08)
(3.47933e-07 -1.03737e-05 -3.06942e-08)
(2.15256e-07 -8.89259e-06 -2.7248e-08)
(9.83317e-08 -6.73394e-06 -2.22253e-08)
(1.20195e-08 -3.27348e-06 -1.13406e-08)
(-1.94697e-08 -3.13126e-06 -1.93525e-08)
(-1.62263e-07 -6.44572e-06 -3.68237e-08)
(-3.58159e-07 -8.51612e-06 -4.46323e-08)
(-5.83337e-07 -9.93835e-06 -5.01899e-08)
(-8.1469e-07 -1.09714e-05 -5.60831e-08)
(-1.03318e-06 -1.17518e-05 -6.36983e-08)
(-1.21961e-06 -1.23587e-05 -7.35284e-08)
(-1.35604e-06 -1.28409e-05 -8.56741e-08)
(-1.42653e-06 -1.3229e-05 -9.98564e-08)
(-1.41873e-06 -1.35421e-05 -1.15381e-07)
(-1.32569e-06 -1.37922e-05 -1.31259e-07)
(-1.14746e-06 -1.39867e-05 -1.46128e-07)
(-8.92269e-07 -1.41301e-05 -1.58615e-07)
(-5.76068e-07 -1.42246e-05 -1.67507e-07)
(-2.21358e-07 -1.42709e-05 -1.71982e-07)
(1.46857e-07 -1.42691e-05 -1.72153e-07)
(5.0357e-07 -1.42192e-05 -1.6798e-07)
(8.23523e-07 -1.41213e-05 -1.59354e-07)
(1.08399e-06 -1.3975e-05 -1.47044e-07)
(1.26859e-06 -1.37778e-05 -1.32274e-07)
(1.36872e-06 -1.35257e-05 -1.16414e-07)
(1.38396e-06 -1.32111e-05 -1.00843e-07)
(1.32102e-06 -1.28222e-05 -8.65813e-08)
(1.192e-06 -1.23398e-05 -7.43125e-08)
(1.01265e-06 -1.17334e-05 -6.43501e-08)
(8.00672e-07 -1.09545e-05 -5.65956e-08)
(5.75004e-07 -9.92356e-06 -5.05208e-08)
(3.54363e-07 -8.50447e-06 -4.47457e-08)
(1.6145e-07 -6.43805e-06 -3.66873e-08)
(1.97003e-08 -3.12839e-06 -1.90213e-08)
(-2.65326e-08 -2.91768e-06 -2.64241e-08)
(-2.19936e-07 -6.01119e-06 -5.00963e-08)
(-4.8503e-07 -7.94595e-06 -6.0658e-08)
(-7.90349e-07 -9.27524e-06 -6.83435e-08)
(-1.10521e-06 -1.02396e-05 -7.66983e-08)
(-1.40426e-06 -1.09657e-05 -8.76488e-08)
(-1.66162e-06 -1.15275e-05 -1.01937e-07)
(-1.85267e-06 -1.19709e-05 -1.1979e-07)
(-1.95507e-06 -1.23245e-05 -1.40898e-07)
(-1.95092e-06 -1.26072e-05 -1.64397e-07)
(-1.82903e-06 -1.28308e-05 -1.88887e-07)
(-1.58751e-06 -1.30031e-05 -2.12414e-07)
(-1.23579e-06 -1.31291e-05 -2.3276e-07)
(-7.94885e-07 -1.32117e-05 -2.47773e-07)
(-2.96214e-07 -1.3252e-05 -2.55639e-07)
(2.22794e-07 -1.32502e-05 -2.55805e-07)
(7.23479e-07 -1.32063e-05 -2.48236e-07)
(1.16823e-06 -1.31205e-05 -2.33475e-07)
(1.52532e-06 -1.29916e-05 -2.13311e-07)
(1.7733e-06 -1.28169e-05 -1.89883e-07)
(1.90238e-06 -1.25917e-05 -1.65426e-07)
(1.91406e-06 -1.2308e-05 -1.41893e-07)
(1.81922e-06 -1.19539e-05 -1.20717e-07)
(1.63553e-06 -1.15107e-05 -1.02758e-07)
(1.38511e-06 -1.09497e-05 -8.83437e-08)
(1.09235e-06 -1.02251e-05 -7.72523e-08)
(7.82898e-07 -9.26285e-06 -6.8723e-08)
(4.81788e-07 -7.93635e-06 -6.08221e-08)
(2.1936e-07 -6.00496e-06 -4.99983e-08)
(2.67849e-08 -2.9154e-06 -2.61131e-08)
(-3.26438e-08 -2.64379e-06 -3.25545e-08)
(-2.69618e-07 -5.4552e-06 -6.16059e-08)
(-5.94136e-07 -7.21673e-06 -7.45302e-08)
(-9.68255e-07 -8.42631e-06 -8.39843e-08)
(-1.3548e-06 -9.3006e-06 -9.43453e-08)
(-1.72297e-06 -9.95385e-06 -1.08004e-07)
(-2.04108e-06 -1.04531e-05 -1.25912e-07)
(-2.27878e-06 -1.08404e-05 -1.48358e-07)
(-2.40827e-06 -1.11427e-05 -1.74981e-07)
(-2.4068e-06 -1.13779e-05 -2.04781e-07)
(-2.25973e-06 -1.15583e-05 -2.3604e-07)
(-1.96368e-06 -1.1693e-05 -2.66359e-07)
(-1.52918e-06 -1.17884e-05 -2.92838e-07)
(-9.81587e-07 -1.18491e-05 -3.12607e-07)
(-3.59883e-07 -1.18781e-05 -3.23112e-07)
(2.88018e-07 -1.18763e-05 -3.23258e-07)
(9.11697e-07 -1.18439e-05 -3.13029e-07)
(1.46308e-06 -1.178e-05 -2.93499e-07)
(1.90286e-06 -1.1682e-05 -2.67185e-07)
(2.20534e-06 -1.15453e-05 -2.36965e-07)
(2.35955e-06 -1.13634e-05 -2.05754e-07)
(2.36848e-06 -1.11274e-05 -1.75936e-07)
(2.2465e-06 -1.08249e-05 -1.49249e-07)
(2.01606e-06 -1.04381e-05 -1.26725e-07)
(1.70473e-06 -9.93974e-06 -1.08702e-07)
(1.34268e-06 -9.28802e-06 -9.4903e-08)
(9.61337e-07 -8.41572e-06 -8.43786e-08)
(5.91202e-07 -7.20865e-06 -7.47116e-08)
(2.69168e-07 -5.45003e-06 -6.15196e-08)
(3.29065e-08 -2.64192e-06 -3.22492e-08)
(-3.75023e-08 -2.31998e-06 -3.74246e-08)
(-3.08777e-07 -4.79895e-06 -7.07516e-08)
(-6.7994e-07 -6.35658e-06 -8.55114e-08)
(-1.10814e-06 -7.42488e-06 -9.62864e-08)
(-1.55119e-06 -8.19232e-06 -1.0809e-07)
(-1.97389e-06 -8.75876e-06 -1.2365e-07)
(-2.33981e-06 -9.1833e-06 -1.44038e-07)
(-2.6139e-06 -9.50344e-06 -1.69584e-07)
(-2.76398e-06 -9.74393e-06 -1.9986e-07)
(-2.76362e-06 -9.92185e-06 -2.33739e-07)
(-2.59578e-06 -1.00501e-05 -2.69286e-07)
(-2.25618e-06 -1.0139e-05 -3.03791e-07)
(-1.75654e-06 -1.0197e-05 -3.33981e-07)
(-1.12577e-06 -1.02311e-05 -3.56578e-07)
(-4.08701e-07 -1.02462e-05 -3.68654e-07)
(3.38885e-07 -1.02445e-05 -3.68777e-07)
(1.05786e-06 -1.02263e-05 -3.56937e-07)
(1.6923e-06 -1.01893e-05 -3.34548e-07)
(2.19704e-06 -1.01288e-05 -3.04518e-07)
(2.54288e-06 -1.0038e-05 -2.70111e-07)
(2.71767e-06 -9.9085e-06 -2.3461e-07)
(2.72532e-06 -9.72997e-06 -2.00734e-07)
(2.58259e-06 -9.48952e-06 -1.70412e-07)
(2.3156e-06 -9.16988e-06 -1.44802e-07)
(1.95631e-06 -8.74636e-06 -1.24319e-07)
(1.53955e-06 -8.18143e-06 -1.0864e-07)
(1.10154e-06 -7.41587e-06 -9.6677e-08)
(6.77159e-07 -6.34979e-06 -8.5693e-08)
(3.08364e-07 -4.79467e-06 -7.06686e-08)
(3.77576e-08 -2.31845e-06 -3.71259e-08)
(-4.08258e-08 -1.95915e-06 -4.07616e-08)
(-3.35203e-07 -4.06874e-06 -7.7014e-08)
(-7.37895e-07 -5.40011e-06 -9.30001e-08)
(-1.20312e-06 -6.31176e-06 -1.0458e-07)
(-1.68532e-06 -6.9611e-06 -1.17198e-07)
(-2.14612e-06 -7.4322e-06 -1.33805e-07)
(-2.54547e-06 -7.77561e-06 -1.5552e-07)
(-2.84476e-06 -8.02401e-06 -1.82654e-07)
(-3.00861e-06 -8.19961e-06 -2.1474e-07)
(-3.00821e-06 -8.31865e-06 -2.50531e-07)
(-2.82503e-06 -8.39415e-06 -2.8795e-07)
(-2.4546e-06 -8.43742e-06 -3.24173e-07)
(-1.90989e-06 -8.45869e-06 -3.5581e-07)
(-1.22244e-06 -8.46678e-06 -3.79444e-07)
(-4.40963e-07 -8.46834e-06 -3.9208e-07)
(3.73781e-07 -8.46684e-06 -3.92186e-07)
(1.15705e-06 -8.46237e-06 -3.79761e-07)
(1.84795e-06 -8.45168e-06 -3.56303e-07)
(2.39752e-06 -8.42824e-06 -3.24804e-07)
(2.77391e-06 -8.38335e-06 -2.8868e-07)
(2.96376e-06 -8.30681e-06 -2.51307e-07)
(2.9712e-06 -8.18731e-06 -2.15526e-07)
(2.81444e-06 -8.01179e-06 -1.83416e-07)
(2.52202e-06 -7.76394e-06 -1.56227e-07)
(2.1291e-06 -7.42153e-06 -1.34432e-07)
(1.67406e-06 -6.95183e-06 -1.17718e-07)
(1.19671e-06 -6.30421e-06 -1.04943e-07)
(7.35209e-07 -5.39452e-06 -9.31682e-08)
(3.34798e-07 -4.06529e-06 -7.69325e-08)
(4.10684e-08 -1.95795e-06 -4.04713e-08)
(-4.23439e-08 -1.57651e-06 -4.22925e-08)
(-3.46999e-07 -3.29521e-06 -7.98734e-08)
(-7.64313e-07 -4.38734e-06 -9.63361e-08)
(-1.24791e-06 -5.13352e-06 -1.08129e-07)
(-1.75082e-06 -5.6588e-06 -1.20908e-07)
(-2.23263e-06 -6.03119e-06 -1.37713e-07)
(-2.65085e-06 -6.29257e-06 -1.59684e-07)
(-2.96442e-06 -6.4706e-06 -1.87093e-07)
(-3.13596e-06 -6.58476e-06 -2.19394e-07)
(-3.1353e-06 -6.64995e-06 -2.55256e-07)
(-2.94337e-06 -6.67882e-06 -2.92574e-07)
(-2.55608e-06 -6.68302e-06 -3.28527e-07)
(-1.98745e-06 -6.6736e-06 -3.59787e-07)
(-1.27063e-06 -6.66045e-06 -3.83052e-07)
(-4.56334e-07 -6.65117e-06 -3.95487e-07)
(3.9238e-07 -6.64988e-06 -3.95577e-07)
(1.20835e-06 -6.65668e-06 -3.83321e-07)
(1.9284e-06 -6.66761e-06 -3.60209e-07)
(2.5016e-06 -6.67515e-06 -3.29072e-07)
(2.89448e-06 -6.66957e-06 -2.93208e-07)
(3.09271e-06 -6.63984e-06 -2.55941e-07)
(3.10007e-06 -6.57429e-06 -2.20097e-07)
(2.93529e-06 -6.46024e-06 -1.87782e-07)
(2.62831e-06 -6.28277e-06 -1.60328e-07)
(2.21625e-06 -6.02231e-06 -1.38289e-07)
(1.73997e-06 -5.65117e-06 -1.21396e-07)
(1.24172e-06 -5.1274e-06 -1.08475e-07)
(7.61681e-07 -4.38289e-06 -9.64958e-08)
(3.46571e-07 -3.29256e-06 -7.97956e-08)
(4.25653e-08 -1.57566e-06 -4.20178e-08)
(-4.17253e-08 -1.1895e-06 -4.16843e-08)
(-3.42123e-07 -2.51288e-06 -7.86703e-08)
(-7.55733e-07 -3.36257e-06 -9.46743e-08)
(-1.23818e-06 -3.94106e-06 -1.0594e-07)
(-1.74303e-06 -4.34156e-06 -1.18138e-07)
(-2.22895e-06 -4.61654e-06 -1.34299e-07)
(-2.65205e-06 -4.79948e-06 -1.55559e-07)
(-2.96986e-06 -4.91303e-06 -1.82126e-07)
(-3.14411e-06 -4.97374e-06 -2.13389e-07)
(-3.1442e-06 -4.99463e-06 -2.47977e-07)
(-2.9513e-06 -4.98728e-06 -2.83801e-07)
(-2.56191e-06 -4.96278e-06 -3.1814e-07)
(-1.99079e-06 -4.93195e-06 -3.47864e-07)
(-1.27163e-06 -4.90453e-06 -3.69892e-07)
(-4.55298e-07 -4.88822e-06 -3.81642e-07)