/*--------------------------------*- C++ -*----------------------------------*\
| =========                 |                                                 |
| \\      /  F ield         | OpenFOAM: The Open Source CFD Toolbox           |
|  \\    /   O peration     | Version:  v1912                                 |
|   \\  /    A nd           | Website:  www.openfoam.com                      |
|    \\/     M anipulation  |                                                 |
\*---------------------------------------------------------------------------*/
FoamFile
{
    version     2.0;
    format      ascii;
    class       surfaceScalarField;
    location    "85/oil";
    object      phi;
}
// * * * * * * * * * * * * * * * * * * * * * * * * * * * * * * * * * * * * * //

dimensions      [1 0 -1 0 0 0 0];
oriented        oriented;


internalField   nonuniform List<scalar> 
80688
(
-2.07896e-06
-2.07402e-06
-2.07553e-06
-1.42673e-06
-2.8436e-07
-3.67864e-07
3.79794e-07
-7.30379e-07
-1.07615e-06
-4.43146e-07
5.90358e-07
2.32583e-07
-3.2002e-07
1.05757e-07
-2.28883e-07
-4.84206e-07
2.3744e-07
-7.32533e-08
-4.70652e-07
1.35171e-07
-1.48725e-07
-4.94226e-07
1.40481e-07
-1.16907e-07
-4.6747e-07
1.01519e-07
-1.28274e-07
-4.41971e-07
8.92223e-08
-1.14721e-07
-3.91736e-07
6.47918e-08
-1.15027e-07
-3.37227e-07
5.2246e-08
-1.06755e-07
-2.69766e-07
3.76621e-08
-1.05123e-07
-1.96517e-07
2.84562e-08
-1.01706e-07
-1.21488e-07
2.49206e-08
-9.99487e-08
-4.0252e-08
2.06088e-08
-1.01845e-07
3.18222e-08
2.8267e-08
-1.00341e-07
1.10361e-07
2.89622e-08
-1.07501e-07
1.70165e-07
4.66795e-08
-1.06484e-07
2.35608e-07
5.21294e-08
-1.17573e-07
2.75584e-07
7.69685e-08
-1.16944e-07
3.18504e-07
8.65231e-08
-1.29443e-07
3.32313e-07
1.14679e-07
-1.28488e-07
3.44918e-07
1.26681e-07
-1.39286e-07
3.27654e-07
1.53838e-07
-1.36574e-07
3.03208e-07
1.67049e-07
-1.42603e-07
2.48904e-07
1.91431e-07
-1.37127e-07
1.78475e-07
2.08614e-07
-1.38185e-07
8.44637e-08
2.21916e-07
-1.27905e-07
1.79053e-07
-9.45898e-08
-4.58599e-07
-1.16129e-06
-4.54124e-07
8.13778e-08
8.01882e-07
-1.62622e-06
-8.09067e-07
2.41352e-07
-8.12863e-08
-5.01636e-07
5.04026e-07
-2.211e-07
-6.08317e-07
3.4373e-07
-1.31291e-07
-5.80465e-07
3.42227e-07
-1.3264e-07
-5.8523e-07
2.7022e-07
-1.30283e-07
-5.69335e-07
2.37935e-07
-1.1335e-07
-5.38095e-07
1.80224e-07
-1.09945e-07
-5.03159e-07
1.46465e-07
-9.21786e-08
-4.5146e-07
9.95573e-08
-8.64646e-08
-3.98393e-07
7.18841e-08
-7.2705e-08
-3.35234e-07
4.17858e-08
-6.7283e-08
-2.68157e-07
2.26044e-08
-6.12251e-08
-2.0027e-07
1.4284e-08
-5.72505e-08
-1.24618e-07
5.40049e-09
-6.04436e-08
-5.751e-08
1.95699e-08
-5.84114e-08
2.12081e-08
2.0533e-08
-7.0289e-08
8.32528e-08
5.56334e-08
-7.09987e-08
1.57972e-07
6.68177e-08
-8.94071e-08
2.09199e-07
1.17192e-07
-9.14512e-08
2.70111e-07
1.37678e-07
-1.12068e-07
3.02332e-07
1.96123e-07
-1.13665e-07
3.36919e-07
2.23518e-07
-1.31424e-07
3.38261e-07
2.82639e-07
-1.30143e-07
3.30154e-07
3.16606e-07
-1.4145e-07
2.82546e-07
3.77871e-07
-1.38833e-07
2.10055e-07
4.29898e-07
-1.48793e-07
9.90616e-08
4.81246e-07
-1.48337e-07
3.92939e-07
-1.14824e-07
-1.16017e-06
1.1538e-06
-1.15492e-06
-5.95744e-07
3.64081e-07
-1.26629e-07
-5.29887e-07
6.30342e-07
-4.54847e-07
-5.74806e-07
6.0838e-07
-5.94339e-08
-5.49075e-07
5.0276e-07
-1.84761e-07
-5.88464e-07
4.72892e-07
-9.12766e-08
-5.67077e-07
3.70816e-07
-1.21982e-07
-5.63715e-07
3.22525e-07
-8.79517e-08
-5.2604e-07
2.32661e-07
-9.01133e-08
-4.95636e-07
1.83336e-07
-6.72752e-08
-4.45219e-07
1.11138e-07
-6.19975e-08
-3.98468e-07
7.0478e-08
-4.53449e-08
-3.41824e-07
2.43945e-08
-3.92529e-08
-2.83121e-07
-5.24719e-09
-3.08519e-08
-2.2417e-07
-1.7749e-08
-2.69185e-08
-1.57384e-07
-3.21617e-08
-2.92231e-08
-9.83903e-08
-1.1959e-08
-2.74652e-08
-2.53244e-08
-1.23189e-08
-4.02141e-08
3.25449e-08
3.95401e-08
-4.17761e-08
1.07169e-07
5.41577e-08
-6.19642e-08
1.60539e-07
1.28772e-07
-6.495e-08
2.27659e-07
1.58138e-07
-8.75798e-08
2.67382e-07
2.4587e-07
-8.947e-08
3.12181e-07
2.87438e-07
-1.08719e-07
3.2316e-07
3.79149e-07
-1.07489e-07
3.24782e-07
4.35625e-07
-1.2064e-07
2.83999e-07
5.38965e-07
-1.20311e-07
2.16629e-07
6.34576e-07
-1.37309e-07
1.05997e-07
7.39419e-07
-1.4754e-07
6.22018e-07
-1.23082e-07
1.80809e-07
7.86897e-07
1.86096e-07
-2.69708e-07
1.0661e-06
-2.51499e-07
-4.54275e-07
8.83422e-07
-6.85131e-08
-5.11751e-07
7.98425e-07
-1.32569e-07
-5.62646e-07
6.43432e-07
-8.97772e-08
-5.64994e-07
5.602e-07
-8.49586e-08
-5.53662e-07
4.33383e-07
-7.38984e-08
-5.32607e-07
3.5316e-07
-5.16905e-08
-4.94329e-07
2.35711e-07
-4.13274e-08
-4.60428e-07
1.647e-07
-1.52655e-08
-4.13984e-07
6.88917e-08
-4.19661e-09
-3.74616e-07
1.42392e-08
1.68699e-08
-3.29171e-07
-4.80541e-08
2.70036e-08
-2.8444e-07
-8.65988e-08
3.66214e-08
-2.40506e-07
-1.05102e-07
4.34184e-08
-1.86902e-07
-1.25368e-07
3.96024e-08
-1.42075e-07
-9.83067e-08
4.15201e-08
-7.80735e-08
-9.98354e-08
2.35152e-08
-2.8059e-08
-3.13528e-08
2.08784e-08
4.51847e-08
-1.18878e-08
-7.19835e-09
9.87753e-08
8.74915e-08
-1.231e-08
1.72525e-07
1.27306e-07
-4.29183e-08
2.19243e-07
2.46649e-07
-4.74969e-08
2.74747e-07
3.0566e-07
-7.37267e-08
2.94951e-07
4.33625e-07
-7.468e-08
3.06654e-07
5.17174e-07
-9.32528e-08
2.73142e-07
6.68276e-07
-9.57994e-08
2.12184e-07
8.15355e-07
-1.19821e-07
1.05656e-07
9.84641e-07
-1.38694e-07
8.51233e-07
-1.23559e-07
-2.71271e-07
1.32368e-06
-2.65508e-07
-3.9955e-07
1.37684e-06
-1.8246e-07
-5.30962e-07
1.23754e-06
-2.22701e-07
-6.15917e-07
1.00678e-06
-1.23402e-07
-6.54107e-07
8.27254e-07
-1.45632e-07
-6.83096e-07
6.94357e-07
-1.05168e-07
-6.67982e-07
5.30423e-07
-1.12155e-07
-6.53669e-07
4.21391e-07
-8.25441e-08
-6.06371e-07
2.67598e-07
-7.91847e-08
-5.65512e-07
1.74835e-07
-5.0995e-08
-5.02426e-07
4.89386e-08
-4.31331e-08
-4.45453e-07
-2.28042e-08
-1.99293e-08
-3.78816e-07
-1.01612e-07
-1.30789e-08
-3.12754e-07
-1.50266e-07
-2.39592e-09
-2.464e-07
-1.74568e-07
3.11204e-09
-1.70961e-07
-2.0054e-07
-2.66951e-10
-1.05371e-07
-1.66955e-07
3.05831e-09
-2.13404e-08
-1.69388e-07
-1.44781e-08
4.56395e-08
-8.3461e-08
-1.48718e-08
1.3561e-07
-5.93142e-08
-4.25441e-08
2.00213e-07
6.81472e-08
-4.52592e-08
2.82484e-07
1.21388e-07
-7.6352e-08
3.3141e-07
2.75677e-07
-7.79551e-08
3.86399e-07
3.54445e-07
-1.03775e-07
3.99356e-07
5.22245e-07
-1.01577e-07
3.99921e-07
6.35962e-07
-1.19353e-07
3.48808e-07
8.39757e-07
-1.20369e-07
2.66318e-07
1.04434e-06
-1.46491e-07
1.33168e-07
1.28613e-06
-1.68343e-07
1.13496e-06
-1.50559e-07
-1.25969e-07
1.56979e-06
-1.20141e-07
-3.82191e-07
1.83508e-06
-2.02027e-07
-5.34764e-07
1.53995e-06
-1.49844e-07
-6.53388e-07
1.26582e-06
-1.4041e-07
-7.07811e-07
1.00492e-06
-1.23244e-07
-7.35044e-07
8.26103e-07
-1.04512e-07
-7.17689e-07
6.08906e-07
-9.5838e-08
-6.93622e-07
4.60474e-07
-6.31506e-08
-6.37122e-07
2.61507e-07
-5.04088e-08
-5.87889e-07
1.3748e-07
-1.18771e-08
-5.19276e-07
-2.23249e-08
2.64983e-09
-4.61008e-07
-1.16859e-07
3.57873e-08
-3.93084e-07
-2.19864e-07
5.03274e-08
-3.27418e-07
-2.81776e-07
6.58444e-08
-2.63139e-07
-3.1409e-07
7.52426e-08
-1.87668e-07
-3.45197e-07
6.91857e-08
-1.23788e-07
-3.03615e-07
7.278e-08
-3.5396e-08
-3.02806e-07
4.50259e-08
3.43292e-08
-1.94569e-07
4.1383e-08
1.33696e-07
-1.57405e-07
-1.27603e-09
2.04011e-07
6.94137e-09
-9.10847e-09
2.99571e-07
7.92615e-08
-5.34344e-08
3.58358e-07
2.75885e-07
-5.8995e-08
4.24667e-07
3.84842e-07
-9.67053e-08
4.42782e-07
6.01379e-07
-9.72492e-08
4.46323e-07
7.55448e-07
-1.23027e-07
3.90346e-07
1.02135e-06
-1.25616e-07
2.97913e-07
1.29483e-06
-1.58062e-07
1.4792e-07
1.62002e-06
-1.83895e-07
1.44938e-06
-1.66499e-07
-2.47427e-07
2.05809e-06
-2.40877e-07
-5.00247e-07
2.35052e-06
-2.62616e-07
-7.01955e-07
1.98571e-06
-2.44046e-07
-8.50512e-07
1.6108e-06
-1.96428e-07
-9.29814e-07
1.28369e-06
-1.9947e-07
-9.77885e-07
1.04582e-06
-1.71645e-07
-9.65474e-07
7.71423e-07
-1.74927e-07
-9.41802e-07
5.77613e-07
-1.40811e-07
-8.70891e-07
3.26713e-07
-1.36118e-07
-8.01884e-07
1.6575e-07
-9.72776e-08
-6.99035e-07
-3.7687e-08
-8.7487e-08
-6.04212e-07
-1.56445e-07
-5.52365e-08
-4.93168e-07
-2.84969e-07
-4.59395e-08
-3.82614e-07
-3.6254e-07
-2.97895e-08
-2.70862e-07
-4.03674e-07
-2.21686e-08
-1.48399e-07
-4.40526e-07
-2.71337e-08
-4.0856e-08
-3.89761e-07
-2.13968e-08
8.94414e-08
-3.84773e-07
-4.83301e-08
1.92397e-07
-2.50908e-07
-4.66165e-08
3.22914e-07
-1.99282e-07
-8.86413e-08
4.18081e-07
-1.06388e-09
-8.7161e-08
5.29316e-07
1.02092e-07
-1.34066e-07
5.90172e-07
3.4847e-07
-1.33442e-07
6.52852e-07
4.92144e-07
-1.69981e-07
6.54843e-07
7.63558e-07
-1.64171e-07
6.34238e-07
9.63823e-07
-1.87769e-07
5.41728e-07
1.29964e-06
-1.85775e-07
4.04189e-07
1.65147e-06
-2.19104e-07
1.99415e-07
2.07033e-06
-2.45532e-07
1.86607e-06
-2.17275e-07
-2.56259e-07
2.5638e-06
-2.49449e-07
-5.65345e-07
2.95589e-06
-2.96281e-07
-7.91837e-07
2.46931e-06
-2.57111e-07
-9.67998e-07
2.00641e-06
-2.1945e-07
-1.05458e-06
1.58079e-06
-2.10517e-07
-1.10362e-06
1.27372e-06
-1.78865e-07
-1.08061e-06
9.20036e-07
-1.71618e-07
-1.04385e-06
6.63054e-07
-1.22204e-07
-9.53639e-07
3.42066e-07
-1.05562e-07
-8.69519e-07
1.28113e-07
-4.64837e-08
-7.52131e-07
-1.29961e-07
-2.51139e-08
-6.47199e-07
-2.88433e-07
2.70571e-08
-5.26421e-07
-4.53373e-07
4.76264e-08
-4.09679e-07
-5.52129e-07
7.28463e-08
-2.93513e-07
-6.06207e-07
8.63678e-08
-1.63889e-07
-6.47016e-07
7.68665e-08
-5.16173e-08
-5.84871e-07
8.28375e-08
9.17858e-08
-5.6699e-07
3.88134e-08
2.06423e-07
-3.99825e-07
3.42795e-08
3.57491e-07
-3.18423e-07
-3.19267e-08
4.63855e-07
-6.46418e-08
-4.27858e-08
5.97479e-07
7.9305e-08
-1.10837e-07
6.75084e-07
3.88608e-07
-1.17744e-07
7.54032e-07
5.86518e-07
-1.73323e-07
7.61382e-07
9.28679e-07
-1.7247e-07
7.40483e-07
1.19288e-06
-2.08159e-07
6.33768e-07
1.61479e-06
-2.08438e-07
4.72274e-07
2.06332e-06
-2.50351e-07
2.31169e-07
2.59321e-06
-2.81774e-07
2.34787e-06
-2.50632e-07
-3.50221e-07
3.25628e-06
-3.42258e-07
-7.39706e-07
3.74185e-06
-3.96483e-07
-1.04645e-06
3.13819e-06
-3.62136e-07
-1.2817e-06
2.55746e-06
-3.15795e-07
-1.41275e-06
2.03002e-06
-3.18187e-07
-1.49037e-06
1.63916e-06
-2.87821e-07
-1.47665e-06
1.199e-06
-2.9269e-07
-1.43626e-06
8.68402e-07
-2.45733e-07
-1.32306e-06
4.69603e-07
-2.40739e-07
-1.20491e-06
1.93194e-07
-1.83233e-07
-1.03559e-06
-1.26685e-07
-1.72592e-07
-8.73511e-07
-3.28143e-07
-1.22374e-07
-6.84493e-07
-5.31496e-07
-1.10896e-07
-4.96536e-07
-6.54425e-07
-8.56597e-08
-3.05274e-07
-7.2191e-07
-7.55592e-08
-1.01328e-07
-7.67534e-07
-8.34296e-08
7.98519e-08
-6.926e-07
-7.345e-08
2.88857e-07
-6.60508e-07
-1.15486e-07
4.56588e-07
-4.56973e-07
-1.10583e-07
6.55548e-07
-3.42561e-07
-1.74823e-07
7.98007e-07
-3.50917e-08
-1.72009e-07
9.55428e-07
1.61549e-07
-2.39666e-07
1.0375e-06
5.42741e-07
-2.36203e-07
1.11003e-06
8.0253e-07
-2.88544e-07
1.09235e-06
1.2238e-06
-2.77439e-07
1.03313e-06
1.56054e-06
-3.08435e-07
8.68946e-07
2.07975e-06
-3.00777e-07
6.36602e-07
2.63846e-06
-3.428e-07
3.09796e-07
3.29519e-06
-3.75176e-07
2.98593e-06
-3.28265e-07
-4.06572e-07
4.06074e-06
-3.97892e-07
-8.7032e-07
4.66732e-06
-4.61719e-07
-1.22948e-06
3.91285e-06
-4.15502e-07
-1.5063e-06
3.19591e-06
-3.61636e-07
-1.65414e-06
2.53525e-06
-3.57386e-07
-1.73655e-06
2.0354e-06
-3.13821e-07
-1.70834e-06
1.4779e-06
-3.07106e-07
-1.64721e-06
1.04297e-06
-2.35705e-07
-1.50158e-06
5.37379e-07
-2.134e-07
-1.35424e-06
1.71008e-07
-1.25162e-07
-1.15262e-06
-2.33225e-07
-9.50724e-08
-9.64632e-07
-5.0016e-07
-1.59739e-08
-7.50662e-07
-7.57382e-07
1.19165e-08
-5.42707e-07
-9.14209e-07
5.18292e-08
-3.33476e-07
-1.00097e-06
6.98334e-08
-1.08532e-07
-1.04855e-06
5.60706e-08
9.03304e-08
-9.57026e-07
6.55632e-08
3.2794e-07
-8.95916e-07
-2.20112e-09
5.21346e-07
-6.43471e-07
-6.90782e-09
7.56827e-07
-4.71961e-07
-1.06081e-07
9.25709e-07
-8.44412e-08
-1.19532e-07
1.11812e-06
1.89822e-07
-2.20682e-07
1.2239e-06
6.6657e-07
-2.29612e-07
1.31602e-06
1.01882e-06
-3.08411e-07
1.29991e-06
1.54461e-06
-3.047e-07
1.23097e-06
1.9803e-06
-3.5082e-07
1.03551e-06
2.62069e-06
-3.45479e-07
7.57295e-07
3.31448e-06
-3.97799e-07
3.66245e-07
4.12432e-06
-4.38086e-07
3.73842e-06
-3.86243e-07
-5.2556e-07
5.10123e-06
-5.14931e-07
-1.12142e-06
5.86115e-06
-5.97963e-07
-1.59775e-06
4.93818e-06
-5.48994e-07
-1.97103e-06
4.06401e-06
-4.94824e-07
-2.18824e-06
3.25677e-06
-5.04312e-07
-2.31507e-06
2.63213e-06
-4.6989e-07
-2.30176e-06
1.94451e-06
-4.7993e-07
-2.23298e-06
1.39034e-06
-4.16143e-07
-2.05229e-06
7.68133e-07
-4.1145e-07
-1.85175e-06
2.99899e-07
-3.29429e-07
-1.57361e-06
-1.93138e-07
-3.18224e-07
-1.29952e-06
-5.29891e-07
-2.44357e-07
-9.84078e-07
-8.40187e-07
-2.32641e-07
-6.70051e-07
-1.0328e-06
-1.95433e-07
-3.49443e-07
-1.13726e-06
-1.84323e-07
-1.46744e-08
-1.18736e-06
-1.95956e-07
2.86648e-07
-1.07911e-06
-1.79241e-07
6.20869e-07
-9.88906e-07
-2.41231e-07
8.93809e-07
-6.86606e-07
-2.29806e-07
1.20034e-06
-4.54765e-07
-3.23727e-07
1.4218e-06
9.79584e-09
-3.15693e-07
1.64811e-06
3.75983e-07
-4.12471e-07
1.76073e-06
9.5798e-07
-4.04036e-07
1.84106e-06
1.41344e-06
-4.7495e-07
1.78549e-06
2.05476e-06
-4.54577e-07
1.65618e-06
2.59949e-06
-4.8988e-07
1.37296e-06
3.37417e-06
-4.70266e-07
9.90289e-07
4.21707e-06
-5.19915e-07
4.75749e-07
5.20232e-06
-5.63458e-07
4.70836e-06
-4.94195e-07
-6.18657e-07
6.32614e-06
-6.06247e-07
-1.33182e-06
7.26781e-06
-6.935e-07
-1.90569e-06
6.1391e-06
-6.2705e-07
-2.36054e-06
5.08215e-06
-5.63279e-07
-2.62486e-06
4.09234e-06
-5.71258e-07
-2.77317e-06
3.30649e-06
-5.26051e-07
-2.74777e-06
2.44543e-06
-5.26316e-07
-2.64837e-06
1.72619e-06
-4.35248e-07
-2.41514e-06
9.44802e-07
-4.09905e-07
-2.15835e-06
3.33461e-07
-2.90343e-07
-1.81683e-06
-2.80831e-07
-2.53831e-07
-1.48528e-06
-7.17942e-07
-1.43501e-07
-1.11375e-06
-1.10076e-06
-1.10953e-07
-7.49336e-07
-1.34213e-06
-5.50891e-08
-3.80571e-07
-1.47044e-06
-3.55814e-08
3.90429e-09
-1.51888e-06
-5.29566e-08
3.52753e-07
-1.3896e-06
-3.83515e-08
7.44121e-07
-1.25077e-06
-1.295e-07
1.07194e-06
-8.81636e-07
-1.32791e-07
1.44233e-06
-5.55697e-07
-2.69458e-07
1.71276e-06
2.37709e-08
-2.84398e-07
1.99164e-06
5.16188e-07
-4.19084e-07
2.13642e-06
1.23964e-06
-4.26441e-07
2.23278e-06
1.84231e-06
-5.25229e-07
2.16236e-06
2.63529e-06
-5.10112e-07
1.99581e-06
3.32151e-06
-5.55472e-07
1.64433e-06
4.25873e-06
-5.33082e-07
1.17824e-06
5.27395e-06
-5.90794e-07
5.60847e-07
6.46919e-06
-6.49471e-07
5.84911e-06
-5.79899e-07
-7.56753e-07
7.82378e-06
-7.40894e-07
-1.64897e-06
8.99234e-06
-8.32312e-07
-2.39372e-06
7.63162e-06
-7.47773e-07
-3.00563e-06
6.38601e-06
-6.91953e-07
-3.38657e-06
5.20064e-06
-7.27361e-07
-3.60945e-06
4.23962e-06
-7.10252e-07
-3.60936e-06
3.18699e-06
-7.41644e-07
-3.49472e-06
2.2834e-06
-6.7185e-07
-3.20579e-06
1.3304e-06
-6.74529e-07
-2.86509e-06
5.6404e-07
-5.71281e-07
-2.41064e-06
-1.71782e-07
-5.63493e-07
-1.95188e-06
-7.09969e-07
-4.66741e-07
-1.43571e-06
-1.15735e-06
-4.59578e-07
-9.21946e-07
-1.44475e-06
-4.11142e-07
-3.993e-07
-1.59039e-06
-4.02697e-07
1.37984e-07
-1.63764e-06
-4.18523e-07
6.2841e-07
-1.48825e-06
-3.91776e-07
1.15644e-06
-1.30464e-06
-4.7416e-07
1.60034e-06
-8.73771e-07
-4.51764e-07
2.07428e-06
-4.54688e-07
-5.74949e-07
2.42288e-06
2.33219e-07
-5.58048e-07
2.75166e-06
8.6624e-07
-6.78834e-07
2.907e-06
1.74147e-06
-6.57174e-07
2.97913e-06
2.50379e-06
-7.33599e-07
2.8395e-06
3.46069e-06
-6.85776e-07
2.56838e-06
4.29273e-06
-7.00106e-07
2.07647e-06
5.398e-06
-6.47351e-07
1.46045e-06
6.58339e-06
-6.93411e-07
6.84382e-07
8.01429e-06
-7.69033e-07
7.2342e-06
-7.00714e-07
-8.49732e-07
9.50322e-06
-8.29704e-07
-1.90306e-06
1.09224e-05
-8.76755e-07
-2.82325e-06
9.29087e-06
-7.39055e-07
-3.61135e-06
7.85635e-06
-6.82249e-07
-4.11897e-06
6.45181e-06
-7.43548e-07
-4.41289e-06
5.28519e-06
-7.51649e-07
-4.41839e-06
3.99394e-06
-8.01461e-07
-4.2611e-06
2.85366e-06
-7.27552e-07
-3.88745e-06
1.68009e-06
-7.2334e-07
-3.44294e-06
7.11867e-07
-5.92343e-07
-2.87068e-06
-1.8028e-07
-5.63758e-07
-2.29658e-06
-8.49291e-07
-4.34778e-07
-1.66861e-06
-1.37753e-06
-4.07794e-07
-1.05037e-06
-1.72089e-06
-3.42099e-07
-4.28126e-07
-1.88568e-06
-3.26953e-07
2.09243e-07
-1.92749e-06
-3.47525e-07
7.96485e-07
-1.75295e-06
-3.22545e-07
1.43161e-06
-1.50807e-06
-4.31702e-07
1.98052e-06
-9.98867e-07
-4.23816e-07
2.56513e-06
-4.54664e-07
-5.84633e-07
3.00567e-06
3.771e-07
-5.84421e-07
3.41206e-06
1.19382e-06
-7.33962e-07
3.60418e-06
2.26307e-06
-7.13731e-07
3.66974e-06
3.23125e-06
-7.93021e-07
3.46351e-06
4.38737e-06
-7.20454e-07
3.0783e-06
5.38341e-06
-7.05458e-07
2.43066e-06
6.66548e-06
-6.19846e-07
1.66637e-06
8.00976e-06
-6.62075e-07
7.5778e-07
9.71146e-06
-7.88588e-07
8.76434e-06
-7.72351e-07
-8.99149e-07
1.12751e-05
-8.72711e-07
-2.13739e-06
1.29545e-05
-7.93793e-07
-3.32024e-06
1.10281e-05
-5.5443e-07
-4.40064e-06
9.46204e-06
-5.25281e-07
-5.14258e-06
7.86899e-06
-6.75237e-07
-5.58259e-06
6.51819e-06
-7.9299e-07
-5.63832e-06
4.98941e-06
-9.39733e-07
-5.45002e-06
3.60927e-06
-9.43915e-07
-4.98108e-06
2.21502e-06
-1.00386e-06
-4.39714e-06
1.04817e-06
-9.20246e-07
-3.65408e-06
1.35691e-08
-9.3691e-07
-2.89452e-06
-7.70661e-07
-8.38192e-07
-2.07109e-06
-1.35676e-06
-8.44199e-07
-1.2582e-06
-1.73847e-06
-7.95305e-07
-4.44131e-07
-1.9062e-06
-7.9356e-07
3.80882e-07
-1.93977e-06
-8.12731e-07
1.15116e-06
-1.74863e-06
-7.74606e-07
1.96683e-06
-1.45754e-06
-8.66191e-07
2.68247e-06
-8.88998e-07
-8.25504e-07
3.41943e-06
-2.35382e-07
-9.56241e-07
3.98156e-06
7.24156e-07
-9.09189e-07
4.46709e-06
1.71798e-06
-1.00969e-06
4.67646e-06
2.97615e-06
-9.22449e-07
4.68436e-06
4.14281e-06
-9.19465e-07
4.33267e-06
5.48278e-06
-7.43718e-07
3.72633e-06
6.6009e-06
-6.11151e-07
2.81428e-06
8.00577e-06
-4.28238e-07
1.82753e-06
9.43155e-06
-4.35047e-07
7.76608e-07
1.14258e-05
-6.634e-07
1.03271e-05
-7.86111e-07
-7.70112e-07
1.27805e-05
-7.35316e-07
-2.13913e-06
1.46325e-05
-3.08978e-07
-3.65871e-06
1.23889e-05
1.5882e-07
-5.15679e-06
1.08086e-05
1.51472e-07
-6.23805e-06
9.10393e-06
-1.53679e-07
-6.87998e-06
7.62963e-06
-4.6951e-07
-6.99369e-06
5.8858e-06
-7.82693e-07
-6.74798e-06
4.26848e-06
-9.04912e-07
-6.1408e-06
2.65239e-06
-1.04456e-06
-5.37312e-06
1.2812e-06
-1.00071e-06
-4.4236e-06
1.03074e-07
-1.03902e-06
-3.45638e-06
-7.94105e-07
-9.43772e-07
-2.43599e-06
-1.42711e-06
-9.50035e-07
-1.44106e-06
-1.83311e-06
-9.00299e-07
-4.60447e-07
-1.98845e-06
-8.98357e-07
5.2758e-07
-2.00621e-06
-9.21589e-07
1.46423e-06
-1.80551e-06
-8.7976e-07
2.46054e-06
-1.47377e-06
-9.80085e-07
3.36106e-06
-8.54524e-07
-9.34992e-07
4.28359e-06
-9.23692e-08
-1.06554e-06
5.00465e-06
9.94003e-07
-9.90912e-07
5.60605e-06
2.16668e-06
-1.05009e-06
5.85065e-06
3.60536e-06
-8.73812e-07
5.78354e-06
4.95483e-06
-7.44907e-07
5.22172e-06
6.43251e-06
-3.87917e-07
4.28512e-06
7.58086e-06
-4.33588e-08
2.98603e-06
8.99411e-06
3.10744e-07
1.71726e-06
1.03495e-05
3.50833e-07
6.01008e-07
1.26475e-05
-1.05471e-07
1.15316e-05
-6.03523e-07
-2.67144e-07
1.32682e-05
-2.20573e-07
-1.66145e-06
1.50764e-05
9.50347e-07
-3.67341e-06
1.2621e-05
1.77982e-06
-5.82028e-06
1.12891e-05
1.66642e-06
-7.44815e-06
9.67718e-06
1.05462e-06
-8.41781e-06
8.25589e-06
3.4341e-07
-8.64713e-06
6.44191e-06
-3.26786e-07
-8.34422e-06
4.70803e-06
-7.4246e-07
-7.57109e-06
2.97353e-06
-1.09427e-06
-6.57062e-06
1.48875e-06
-1.20801e-06
-5.36079e-06
2.47631e-07
-1.35439e-06
-4.12831e-06
-6.89925e-07
-1.33666e-06
-2.85792e-06
-1.30356e-06
-1.39393e-06
-1.63736e-06
-1.67474e-06
-1.37894e-06
-4.59567e-07
-1.77331e-06
-1.39293e-06
7.16634e-07
-1.76577e-06
-1.41664e-06
1.85523e-06
-1.58657e-06
-1.35753e-06
3.07249e-06
-1.26656e-06
-1.42447e-06
4.20374e-06
-6.59052e-07
-1.32673e-06
5.35213e-06
1.37077e-07
-1.37783e-06
6.26959e-06
1.26703e-06
-1.19048e-06
7.00045e-06
2.52042e-06
-1.08461e-06
7.26449e-06
4.02737e-06
-6.86052e-07
7.04614e-06
5.42023e-06
-2.47049e-07
6.13216e-06
6.86056e-06
4.85938e-07
4.65192e-06
7.81405e-06
1.24705e-06
2.74472e-06
8.97179e-06
1.92952e-06
1.06402e-06
9.93576e-06
2.09444e-06
2.3898e-08
1.24099e-05
1.27776e-06
1.15713e-05
-1.58356e-08
8.7325e-07
1.14589e-05
9.36109e-07
-3.9649e-07
1.29544e-05
3.39175e-06
-3.17915e-06
1.07675e-05
4.63623e-06
-6.32325e-06
1.00997e-05
4.3335e-06
-8.77971e-06
8.86611e-06
3.26753e-06
-1.02338e-05
7.71757e-06
1.99242e-06
-1.064e-05
6.0564e-06
7.91656e-07
-1.02689e-05
4.41331e-06
-7.63636e-08
-9.28142e-06
2.76113e-06
-7.75053e-07
-7.98404e-06
1.3222e-06
-1.13084e-06
-6.44307e-06
1.46669e-07
-1.44e-06
-4.87915e-06
-7.23096e-07
-1.53075e-06
-3.30625e-06
-1.22156e-06
-1.65491e-06
-1.82475e-06
-1.46838e-06
-1.68785e-06
-4.40033e-07
-1.43399e-06
-1.72403e-06
9.29324e-07
-1.3837e-06
-1.75142e-06
2.29332e-06
-1.28286e-06
-1.66771e-06
3.77446e-06
-1.05624e-06
-1.69147e-06
5.19219e-06
-5.55184e-07
-1.5216e-06
6.62941e-06
1.62017e-07
-1.46216e-06
7.79658e-06
1.20111e-06
-1.10125e-06
8.69191e-06
2.36758e-06
-7.42488e-07
8.96599e-06
3.72906e-06
2.42222e-08
8.50937e-06
4.93932e-06
9.37537e-07
7.05776e-06
6.08347e-06
2.22869e-06
4.72654e-06
6.56165e-06
3.58363e-06
1.85966e-06
7.08266e-06
4.75601e-06
-4.77807e-07
7.12723e-06
5.146e-06
-1.23898e-06
9.23409e-06
3.93695e-06
9.06885e-06
1.26349e-06
3.13358e-06
5.10675e-06
3.21854e-06
2.22303e-06
6.75633e-06
7.10861e-06
-1.70753e-06
6.2197e-06
8.47833e-06
-6.24862e-06
6.78663e-06
7.85416e-06
-9.83799e-06
6.17216e-06
6.28331e-06
-1.19221e-05
5.41637e-06
4.38532e-06
-1.25557e-05
4.12214e-06
2.56786e-06
-1.21087e-05
2.84123e-06
1.12505e-06
-1.0878e-05
1.59041e-06
-5.99124e-08
-9.24239e-06
4.89143e-07
-8.02591e-07
-7.34105e-06
-3.73962e-07
-1.38071e-06
-5.42628e-06
-9.7751e-07
-1.66035e-06
-3.55862e-06
-1.18602e-06
-1.9032e-06
-1.87085e-06
-1.14117e-06
-2.01497e-06
-3.87152e-07
-8.30458e-07
-2.08723e-06
1.05557e-06
-7.09213e-07
-2.11721e-06
2.56947e-06
-8.04469e-07
-1.99228e-06
4.28597e-06
-8.3372e-07
-1.93902e-06
5.99254e-06
-6.17752e-07
-1.644e-06
7.7318e-06
-1.87916e-07
-1.38933e-06
9.17663e-06
5.04351e-07
-7.48071e-07
1.02446e-05
1.28625e-06
1.33133e-08
1.05092e-05
2.17881e-06
1.28574e-06
9.72687e-06
2.92882e-06
2.79278e-06
7.55309e-06
3.52259e-06
4.73466e-06
4.03895e-06
3.33173e-06
6.74406e-06
-1.82784e-07
2.84362e-06
8.46077e-06
-3.52249e-06
1.25943e-06
9.20751e-06
-3.70254e-06
1.4851e-06
7.92904e-06
1.61673e-06
3.74959e-06
6.25876e-06
-7.51405e-06
6.36206e-06
5.66552e-06
-3.42685e-06
1.07764e-05
2.12375e-07
-9.12406e-08
1.17641e-05
-6.01972e-06
2.29481e-06
1.07239e-05
-1.10039e-05
2.30619e-06
8.85016e-06
-1.38666e-05
1.65711e-06
6.62193e-06
-1.47885e-05
6.28135e-07
4.4159e-06
-1.42682e-05
-2.08164e-07
2.52915e-06
-1.27847e-05
-7.78578e-07
8.8543e-07
-1.07822e-05
-1.23123e-06
-2.82066e-07
-8.45051e-06
-1.51081e-06
-1.19488e-06
-6.08517e-06
-1.62285e-06
-1.72e-06
-3.81136e-06
-1.33278e-06
-2.12706e-06
-1.84141e-06
-7.58938e-07
-2.35218e-06
-2.74106e-07
8.81929e-08
-2.48595e-06
1.20248e-06
3.35523e-07
-2.52132e-06
2.90598e-06
-1.74682e-07
-2.33329e-06
4.94305e-06
-7.04181e-07
-2.1666e-06
7.01891e-06
-9.93505e-07
-1.70011e-06
9.12171e-06
-1.09771e-06
-1.193e-06
1.08641e-05
-1.03224e-06
-2.05763e-07
1.21073e-05
-9.45083e-07
9.88102e-07
1.23463e-05
-7.83926e-07
2.72374e-06
1.11562e-05
-5.70696e-07
4.68958e-06
8.09129e-06
-4.54054e-07
7.04157e-06
3.1286e-06
-1.10848e-06
9.4029e-06
-2.72178e-06
-2.75376e-06
1.14478e-05
-7.41529e-06
-6.68067e-06
1.26337e-05
-7.04759e-06
-1.06619e-05
1.17794e-05
-1.25441e-05
7.11327e-06
8.90342e-06
-2.53986e-05
8.98136e-06
8.52493e-06
-1.55739e-05
1.25257e-05
2.22735e-06
-6.47337e-06
1.26798e-05
-4.91446e-06
-1.73107e-06
1.11677e-05
-1.08799e-05
-1.05331e-06
9.32496e-06
-1.44487e-05
-2.07945e-06
7.30535e-06
-1.57437e-05
-3.37553e-06
5.29867e-06
-1.52528e-05
-4.14632e-06
3.44725e-06
-1.36065e-05
-4.13115e-06
1.70624e-06
-1.13217e-05
-3.86235e-06
3.46315e-07
-8.64335e-06
-3.43838e-06
-7.50748e-07
-5.91419e-06
-2.93146e-06
-1.42055e-06
-3.35297e-06
-1.97512e-06
-1.91888e-06
-1.33265e-06
-5.58142e-07
-2.22112e-06
-9.1867e-08
1.25367e-06
-2.40625e-06
9.80864e-07
1.71787e-06
-2.45508e-06
2.58325e-06
4.41361e-07
-2.21843e-06
4.78901e-06
-9.31164e-07
-1.97878e-06
7.1346e-06
-1.92687e-06
-1.41223e-06
9.51529e-06
-2.71841e-06
-7.59978e-07
1.14748e-05
-3.40558e-06
4.13845e-07
1.28112e-05
-4.07164e-06
1.79011e-06
1.29407e-05
-4.52779e-06
3.61445e-06
1.12955e-05
-4.46268e-06
5.53714e-06
7.47308e-06
-4.33926e-06
7.70768e-06
1.55583e-06
-5.07168e-06
9.88049e-06
-5.12258e-06
-7.97786e-06
1.19026e-05
-1.0551e-05
-1.48134e-05
1.35614e-05
-9.83862e-06
-2.49345e-05
1.35605e-05
-3.22427e-05
9.86034e-06
9.33479e-06
-4.40481e-05
9.31547e-06
8.93482e-06
-2.61477e-05
1.09743e-05
3.26128e-06
-1.08599e-05
1.00603e-05
-3.09191e-06
-3.4766e-06
8.0988e-06
-8.93863e-06
-1.66348e-06
6.45688e-06
-1.29617e-05
-2.99686e-06
4.9405e-06
-1.49503e-05
-4.91665e-06
3.52973e-06
-1.5055e-05
-6.21409e-06
2.17248e-06
-1.37389e-05
-6.23222e-06
7.85063e-07
-1.15091e-05
-5.73088e-06
-3.61325e-07
-8.67169e-06
-4.94975e-06
-1.32598e-06
-5.61798e-06
-4.04982e-06
-1.93535e-06
-2.69163e-06
-2.49102e-06
-2.41043e-06
-5.71608e-07
8.02898e-08
-2.75845e-06
1.96659e-07
3.50682e-06
-3.02142e-06
6.62677e-07
4.35125e-06
-3.09939e-06
2.14031e-06
1.77504e-06
-2.81131e-06
4.56643e-06
-8.26668e-07
-2.53061e-06
7.14021e-06
-2.50979e-06
-1.99085e-06
9.62975e-06
-3.80022e-06
-1.40772e-06
1.15057e-05
-4.90676e-06
-3.74736e-07
1.24945e-05
-5.84421e-06
7.83758e-07
1.20444e-05
-6.34864e-06
2.27098e-06
9.76878e-06
-5.90115e-06
3.71417e-06
5.59053e-06
-5.46347e-06
5.3025e-06
-1.19255e-07
-6.33503e-06
6.97323e-06
-6.02239e-06
-1.08324e-05
8.75789e-06
-1.092e-05
-2.07249e-05
1.08095e-05
-1.02956e-05
-3.74225e-05
1.18643e-05
-5.27151e-05
1.01776e-05
7.73838e-06
-5.93497e-05
7.56444e-06
7.6929e-06
-3.27951e-05
6.6935e-06
4.57587e-06
-1.25035e-05
4.761e-06
1.22054e-06
-2.80235e-06
2.68118e-06
-2.59495e-06
7.1829e-07
1.43372e-06
-5.96363e-06
-1.1481e-07
4.86598e-07
-8.43211e-06
-2.1552e-06
-2.92964e-07
-9.58086e-06
-4.11914e-06
-9.4614e-07
-9.32154e-06
-4.99323e-06
-1.49823e-06
-7.94042e-06
-5.26343e-06
-1.84849e-06
-5.74703e-06
-5.02495e-06
-2.11814e-06
-3.18481e-06
-4.44068e-06
-2.17131e-06
-7.15132e-07
-2.72859e-06
-2.23207e-06
7.29477e-07
1.01351e-06
-2.37782e-06
4.24063e-07
6.39916e-06
-2.58692e-06
-2.79086e-07
7.74851e-06
-2.69411e-06
3.72047e-07
3.61268e-06
-2.48877e-06
2.25651e-06
-2.64998e-07
-2.44613e-06
4.31225e-06
-2.23339e-06
-2.33211e-06
6.18494e-06
-3.35459e-06
-2.31827e-06
7.27598e-06
-4.01078e-06
-1.98697e-06
7.30723e-06
-4.26302e-06
-1.61237e-06
6.00962e-06
-4.1336e-06
-9.17357e-07
3.53255e-06
-3.29202e-06
-1.32018e-07
2.45059e-07
-2.96652e-06
7.90589e-07
-3.39014e-06
-4.5213e-06
1.8216e-06
-6.48364e-06
-1.08642e-05
3.12557e-06
-9.15192e-06
-2.3247e-05
5.19096e-06
-8.49145e-06
-4.52733e-05
7.19127e-06
-6.9354e-05
8.14882e-06
4.88177e-06
-6.8788e-05
4.55799e-06
5.66328e-06
-3.4324e-05
7.48122e-07
6.02019e-06
-1.12305e-05
-1.62961e-06
6.49495e-06
-1.6114e-07
-3.11589e-06
5.76876e-06
5.10692e-06
-3.66237e-06
4.10946e-06
5.5268e-06
-3.98222e-06
1.87891e-06
4.23427e-06
-4.15886e-06
-1.2896e-07
1.98256e-06
-4.09379e-06
-1.28465e-06
8.18906e-09
-3.84572e-06
-1.49699e-06
-1.63957e-06
-3.41146e-06
-9.30127e-07
-2.6328e-06
-2.95894e-06
3.8483e-08
-2.96834e-06
-2.44087e-06
1.0553e-06
-1.69768e-06
-2.04768e-06
1.3879e-06
2.58334e-06
-1.90243e-06
4.08302e-07
9.31894e-06
-1.94025e-06
-8.80805e-07
1.10187e-05
-1.98119e-06
-1.25205e-06
5.95215e-06
-1.96825e-06
-6.67959e-07
1.34343e-06
-2.1925e-06
-3.43003e-08
-2.85697e-07
-2.58133e-06
3.62721e-07
-5.71581e-07
-3.18e-06
7.01671e-08
-1.11301e-07
-3.6069e-06
-1.06892e-06
9.27607e-07
-4.05152e-06
-2.92974e-06
1.91699e-06
-4.18973e-06
-4.90125e-06
2.81727e-06
-4.13771e-06
-6.34983e-06
2.32154e-06
-3.83939e-06
-6.99912e-06
-3.73346e-07
-3.49857e-06
-6.58305e-06
-8.30946e-06
-2.9705e-06
-6.24372e-06
-2.19886e-05
-1.59713e-06
-5.25754e-06
-4.70236e-05
7.65067e-07
-7.93042e-05
4.69422e-06
2.09957e-06
-7.25831e-05
1.69711e-06
4.43113e-06
-3.27424e-05
-3.91243e-06
8.33019e-06
-9.43051e-06
-5.69882e-06
1.22293e-05
1.81041e-06
-5.87059e-06
1.4615e-05
8.04821e-06
-5.32697e-06
1.53655e-05
9.48728e-06
-4.71099e-06
1.47616e-05
8.8562e-06
-4.01802e-06
1.34244e-05
6.39391e-06
-3.07417e-06
1.18479e-05
3.55065e-06
-1.96587e-06
1.02132e-05
6.74561e-07
-6.79291e-07
8.46561e-06
-1.49891e-06
6.1378e-07
6.43879e-06
-2.82483e-06
1.88344e-06
4.20726e-06
-2.44239e-06
2.97634e-06
1.97923e-06
1.14629e-06
3.66502e-06
-4.79371e-08
7.42588e-06
3.92003e-06
-1.98331e-06
8.97419e-06
3.97966e-06
-4.2849e-06
4.57287e-06
3.68075e-06
-6.38411e-06
4.98948e-07
2.94368e-06
-8.27669e-06
-1.74507e-07
1.78142e-06
-9.86391e-06
6.22332e-07
3.93353e-07
-1.13044e-05
2.27931e-06
-9.50022e-07
-1.26381e-05
4.53581e-06
-2.27446e-06
-1.37293e-05
6.35519e-06
-3.34696e-06
-1.40963e-05
7.45549e-06
-4.27121e-06
-1.32065e-05
6.34405e-06
-4.91222e-06
-1.09047e-05
2.88711e-06
-5.56223e-06
-7.37232e-06
-5.68628e-06
-6.15531e-06
-3.96345e-06
-1.92381e-05
-6.15896e-06
-1.99225e-06
-4.45305e-05
-4.46335e-06
-8.25908e-05
1.29602e-06
-1.0684e-07
-7.20303e-05
-4.44587e-07
3.57444e-06
-3.06599e-05
-5.76318e-06
9.47884e-06
-9.03231e-06
-6.30239e-06
1.48345e-05
1.30682e-06
-4.85204e-06
1.87714e-05
7.38384e-06
-3.27264e-06
2.1176e-05
8.95237e-06
-1.86985e-06
2.23583e-05
8.28256e-06
-6.08881e-07
2.25346e-05
5.49262e-06
7.24979e-07
2.17886e-05
2.18375e-06
2.11286e-06
2.00244e-05
-1.16176e-06
3.60065e-06
1.70291e-05
-3.69052e-06
5.18708e-06
1.27446e-05
-5.33198e-06
6.79196e-06
7.50671e-06
-5.6749e-06
8.47063e-06
2.4977e-06
-3.69526e-06
9.85067e-06
-5.66503e-07
-2.15025e-07
1.07049e-05
-2.62714e-06
4.48821e-08
1.09896e-05
-6.60402e-06
-1.50222e-06
1.00519e-05
-1.11444e-05
-3.65881e-06
8.69824e-06
-1.48319e-05
-3.37356e-06
6.88678e-06
-1.74998e-05
-1.79906e-06
5.08939e-06
-1.8993e-05
4.11953e-07
3.36058e-06
-1.95263e-05
3.33137e-06
1.73763e-06
-1.91971e-05
5.73451e-06
2.91376e-07
-1.79496e-05
7.33178e-06
-1.12385e-06
-1.56202e-05
6.42459e-06
-2.41002e-06
-1.19799e-05
3.15905e-06
-3.91225e-06
-7.23257e-06
-4.81118e-06
-5.62231e-06
-2.15238e-06
-1.70071e-05
-7.31078e-06
6.89313e-07
-4.04301e-05
-6.94141e-06
-8.056e-05
-1.33989e-06
-1.75179e-06
-6.8387e-05
-1.8902e-06
2.53333e-06
-2.91777e-05
-5.76685e-06
8.94781e-06
-1.06235e-05
-4.82306e-06
1.44722e-05
-2.52879e-06
-1.68878e-06
1.89474e-05
1.96555e-06
9.43043e-07
2.2373e-05
2.51724e-06
3.00929e-06
2.5151e-05
1.03882e-06
4.46561e-06
2.71898e-05