/*--------------------------------*- C++ -*----------------------------------*\
| =========                 |                                                 |
| \\      /  F ield         | OpenFOAM: The Open Source CFD Toolbox           |
|  \\    /   O peration     | Version:  v1912                                 |
|   \\  /    A nd           | Website:  www.openfoam.com                      |
|    \\/     M anipulation  |                                                 |
\*---------------------------------------------------------------------------*/
FoamFile
{
    version     2.0;
    format      ascii;
    class       volVectorField;
    location    "85/oil";
    object      U;
}
// * * * * * * * * * * * * * * * * * * * * * * * * * * * * * * * * * * * * * //

dimensions      [0 1 -1 0 0 0 0];


internalField   nonuniform List<vector> 
27760
(
(9.72361e-06 9.74844e-06 9.84452e-06)
(-9.70748e-05 -5.69303e-05 -5.34773e-05)
(3.49154e-05 -2.5145e-05 -2.8609e-05)
(-1.77115e-05 1.2362e-05 8.18636e-06)
(-1.93112e-06 6.40135e-07 -3.31326e-06)
(-1.14464e-05 4.84875e-06 1.03769e-06)
(-9.30232e-06 2.49866e-06 -1.13821e-06)
(-1.07792e-05 3.23134e-06 -2.54294e-07)
(-1.02929e-05 2.67854e-06 -6.624e-07)
(-9.68969e-06 2.83163e-06 -3.59317e-07)
(-9.14904e-06 2.65664e-06 -4.2229e-07)
(-7.58898e-06 2.687e-06 -2.64108e-07)
(-6.80086e-06 2.62839e-06 -2.58703e-07)
(-4.70409e-06 2.60797e-06 -1.86852e-07)
(-3.7103e-06 2.61352e-06 -1.80709e-07)
(-1.43429e-06 2.5505e-06 -1.89304e-07)
(-3.40011e-07 2.60303e-06 -1.97268e-07)
(1.76618e-06 2.50926e-06 -2.87226e-07)
(2.86285e-06 2.60083e-06 -3.05688e-07)
(4.49035e-06 2.49927e-06 -4.54211e-07)
(5.46907e-06 2.62177e-06 -4.87137e-07)
(6.39276e-06 2.53295e-06 -6.59833e-07)
(7.10195e-06 2.66992e-06 -6.89113e-07)
(7.1771e-06 2.60487e-06 -8.48258e-07)
(7.45522e-06 2.73025e-06 -8.5501e-07)
(6.60846e-06 2.68555e-06 -9.57692e-07)
(6.26469e-06 2.76696e-06 -9.16159e-07)
(4.41258e-06 2.74753e-06 -9.42259e-07)
(3.16419e-06 2.67675e-06 -8.18174e-07)
(4.6716e-07 2.14743e-06 -5.75165e-07)
(-5.45242e-05 -9.69801e-05 -5.43668e-05)
(3.38623e-05 4.36579e-05 -3.04751e-05)
(-2.90955e-05 -5.1179e-06 2.48222e-06)
(-6.49344e-06 1.22875e-05 1.42304e-06)
(-1.44737e-05 3.98389e-06 3.56447e-07)
(-1.17027e-05 5.13949e-06 5.66908e-07)
(-1.2952e-05 3.2399e-06 -2.66638e-07)
(-1.21104e-05 2.67785e-06 1.02024e-07)
(-1.21273e-05 1.5864e-06 -1.25184e-07)
(-1.08905e-05 8.90457e-07 1.6241e-07)
(-1.05498e-05 2.24873e-08 1.47169e-07)
(-8.74365e-06 -5.51513e-07 3.50502e-07)
(-8.25461e-06 -1.11751e-06 3.7874e-07)
(-6.04625e-06 -1.49221e-06 4.76052e-07)
(-5.42702e-06 -1.64957e-06 5.01442e-07)
(-3.07878e-06 -1.76899e-06 4.72969e-07)
(-2.30065e-06 -1.49462e-06 4.7194e-07)
(-8.17023e-08 -1.36655e-06 3.32396e-07)
(9.04125e-07 -6.99736e-07 2.91259e-07)
(2.74386e-06 -3.58013e-07 7.16248e-08)
(3.89575e-06 5.84482e-07 1.85521e-08)
(5.13834e-06 1.09055e-06 -2.35618e-07)
(6.28498e-06 2.16132e-06 -2.87378e-07)
(6.71992e-06 2.74824e-06 -5.20444e-07)
(7.56591e-06 3.78785e-06 -5.39504e-07)
(6.95498e-06 4.4037e-06 -6.98263e-07)
(7.06525e-06 5.36819e-06 -6.7484e-07)
(5.04936e-06 6.12613e-06 -7.61548e-07)
(3.87776e-06 6.76947e-06 -6.99919e-07)
(3.73462e-07 5.46873e-06 -5.19147e-07)
(-2.96837e-05 4.62585e-05 -2.95081e-05)
(-1.88674e-05 -7.79493e-06 1.57753e-06)
(-7.46321e-06 1.4613e-05 -7.88319e-06)
(-1.4667e-05 9.81232e-06 2.39715e-06)
(-1.01109e-05 1.06203e-05 -1.92638e-06)
(-1.32267e-05 9.68834e-06 5.3879e-07)
(-1.19123e-05 8.38301e-06 -6.84027e-07)
(-1.23081e-05 7.64009e-06 7.9206e-08)
(-1.17214e-05 6.24585e-06 -2.02516e-07)
(-1.0767e-05 5.52772e-06 1.70659e-07)
(-1.03591e-05 4.39432e-06 1.43796e-07)
(-8.66488e-06 3.79916e-06 3.7404e-07)
(-8.33829e-06 3.08104e-06 4.10248e-07)
(-6.24336e-06 2.63323e-06 5.3517e-07)
(-5.87003e-06 2.42884e-06 5.50801e-07)
(-3.65398e-06 2.14214e-06 5.36895e-07)
(-3.12776e-06 2.50239e-06 5.30265e-07)
(-9.96015e-07 2.40892e-06 3.9086e-07)
(-1.72471e-07 3.24616e-06 3.43746e-07)
(1.65673e-06 3.36972e-06 1.17342e-07)
(2.81093e-06 4.57091e-06 5.65077e-08)
(4.14971e-06 4.92329e-06 -2.06087e-07)
(5.45723e-06 6.33742e-06 -2.52513e-07)
(6.05972e-06 6.90422e-06 -4.91103e-07)
(7.16562e-06 8.37849e-06 -5.08636e-07)
(6.71475e-06 9.20107e-06 -6.7516e-07)
(7.07317e-06 1.08444e-05 -6.55758e-07)
(5.10589e-06 1.22992e-05 -7.73812e-07)
(4.10074e-06 1.3843e-05 -7.56268e-07)
(4.46392e-07 1.13719e-05 -6.00793e-07)
(7.5982e-06 3.92908e-06 7.78095e-06)
(-3.73462e-07 2.22355e-05 1.02892e-06)
(-1.06367e-05 1.26966e-05 2.30507e-06)
(-9.08947e-06 1.57238e-05 8.15359e-07)
(-1.25257e-05 1.08181e-05 3.11025e-07)
(-1.16462e-05 1.02497e-05 3.37631e-07)
(-1.23514e-05 7.29838e-06 2.75013e-08)
(-1.13741e-05 5.90614e-06 3.40251e-07)
(-1.12837e-05 3.47947e-06 2.87749e-07)
(-9.87765e-06 2.05857e-06 6.25607e-07)
(-9.72968e-06 1.05451e-07 6.78756e-07)
(-7.97133e-06 -1.04972e-06 9.38705e-07)
(-8.0086e-06 -2.28508e-06 1.01729e-06)
(-6.03381e-06 -3.04406e-06 1.14756e-06)
(-6.13899e-06 -3.43028e-06 1.19742e-06)
(-4.07748e-06 -3.77533e-06 1.17379e-06)
(-3.97278e-06 -3.23713e-06 1.15688e-06)
(-2.00474e-06 -3.15136e-06 9.65276e-07)
(-1.43172e-06 -1.80118e-06 9.02609e-07)
(3.41998e-07 -1.2872e-06 5.93334e-07)
(1.46738e-06 7.02548e-07 5.0842e-07)
(2.87155e-06 1.62763e-06 1.60769e-07)
(4.36701e-06 3.97295e-06 8.0377e-08)
(5.10893e-06 5.20359e-06 -2.34692e-07)
(6.50674e-06 7.65854e-06 -2.74131e-07)
(6.17921e-06 9.26424e-06 -5.06106e-07)
(6.82627e-06 1.2042e-05 -5.0668e-07)
(4.89553e-06 1.46801e-05 -6.75907e-07)
(4.11797e-06 1.76175e-05 -6.96592e-07)
(4.16354e-07 1.50822e-05 -5.82412e-07)
(-3.66329e-06 2.90306e-05 -3.47338e-06)
(-7.7708e-06 2.38255e-05 -2.33918e-07)
(-9.42903e-06 2.48875e-05 -2.34001e-06)
(-1.31531e-05 1.87114e-05 -5.01602e-08)
(-1.31663e-05 1.67548e-05 -1.17471e-06)
(-1.47629e-05 1.39391e-05 -2.24638e-07)
(-1.43581e-05 1.14103e-05 -6.12569e-07)
(-1.42039e-05 9.44718e-06 -8.1609e-08)
(-1.36426e-05 6.85506e-06 -1.5218e-07)
(-1.2293e-05 5.28095e-06 2.48899e-07)
(-1.18028e-05 3.14639e-06 2.97307e-07)
(-9.67357e-06 1.93445e-06 6.1006e-07)
(-9.33065e-06 5.68757e-07 6.52875e-07)
(-6.83254e-06 -2.95473e-07 8.09181e-07)
(-6.54939e-06 -6.88718e-07 8.37836e-07)
(-3.91711e-06 -1.21034e-06 8.22193e-07)
(-3.45641e-06 -6.00684e-07 8.15286e-07)
(-9.50262e-07 -7.68875e-07 6.22604e-07)
(-6.56461e-08 7.66178e-07 5.80957e-07)
(2.13095e-06 1.02434e-06 2.72955e-07)
(3.52675e-06 3.31939e-06 2.01851e-07)
(5.15095e-06 4.06496e-06 -1.62614e-07)
(6.77242e-06 6.79808e-06 -2.2512e-07)
(7.50024e-06 8.05684e-06 -5.47444e-07)
(8.87295e-06 1.1046e-05 -5.69665e-07)
(8.27703e-06 1.29833e-05 -7.96813e-07)
(8.70354e-06 1.66421e-05 -7.87955e-07)
(6.25327e-06 2.02675e-05 -9.59842e-07)
(5.06859e-06 2.45485e-05 -9.7642e-07)
(6.41301e-07 2.13832e-05 -8.07133e-07)
(6.68554e-07 2.76295e-05 8.70027e-07)
(-6.15785e-06 3.46084e-05 -8.14594e-08)
(-1.00172e-05 2.79029e-05 -2.83759e-08)
(-1.29433e-05 2.39644e-05 -1.89856e-07)
(-1.48188e-05 1.83893e-05 -3.49901e-07)
(-1.5509e-05 1.54101e-05 -1.11481e-07)
(-1.57575e-05 1.09743e-05 -1.53904e-07)
(-1.49758e-05 8.21828e-06 2.85682e-07)
(-1.45423e-05 4.23772e-06 3.72038e-07)
(-1.2731e-05 1.81135e-06 8.69233e-07)
(-1.23044e-05 -1.42327e-06 1.00441e-06)
(-9.90336e-06 -3.26264e-06 1.43158e-06)
(-9.75952e-06 -5.33656e-06 1.58362e-06)
(-7.01328e-06 -6.56895e-06 1.81082e-06)
(-7.00145e-06 -7.22538e-06 1.88604e-06)
(-4.16907e-06 -7.8084e-06 1.84906e-06)
(-3.93432e-06 -6.97778e-06 1.82767e-06)
(-1.23816e-06 -6.88989e-06 1.52527e-06)
(-4.03001e-07 -4.72903e-06 1.4117e-06)
(2.00808e-06 -3.91442e-06 9.3886e-07)
(3.53865e-06 -7.53504e-07 7.63852e-07)
(5.33191e-06 8.08109e-07 2.52269e-07)
(7.29262e-06 4.67916e-06 1.25555e-07)
(8.15515e-06 6.82165e-06 -3.42665e-07)
(9.8297e-06 1.10182e-05 -4.12968e-07)
(9.192e-06 1.39651e-05 -7.45796e-07)
(9.75432e-06 1.90228e-05 -7.56358e-07)
(6.98583e-06 2.41483e-05 -9.96651e-07)
(5.67726e-06 3.0197e-05 -1.02698e-06)
(6.67458e-07 2.69164e-05 -8.57483e-07)
(-1.86745e-06 3.94447e-05 -1.65762e-06)
(-8.68894e-06 4.39997e-05 -1.4598e-06)
(-1.26633e-05 3.79731e-05 -1.82072e-06)
(-1.73256e-05 3.03617e-05 -1.11211e-06)
(-1.89286e-05 2.47363e-05 -1.38192e-06)
(-2.0827e-05 2.01738e-05 -8.50107e-07)
(-2.08346e-05 1.53302e-05 -9.26357e-07)
(-2.04631e-05 1.18113e-05 -3.89029e-07)
(-1.96539e-05 7.31638e-06 -3.20381e-07)
(-1.76018e-05 4.48566e-06 2.16406e-07)
(-1.65624e-05 8.54243e-07 3.51872e-07)
(-1.3328e-05 -1.24213e-06 7.83694e-07)
(-1.24435e-05 -3.52879e-06 8.9076e-07)
(-8.60673e-06 -4.92262e-06 1.1327e-06)
(-7.76364e-06 -5.63269e-06 1.1934e-06)
(-3.73622e-06 -6.38485e-06 1.1633e-06)
(-2.69486e-06 -5.44592e-06 1.16191e-06)
(1.06531e-06 -5.52859e-06 8.53851e-07)
(2.61206e-06 -3.09096e-06 7.93021e-07)
(5.75534e-06 -2.36645e-06 2.95007e-07)
(7.86275e-06 1.31662e-06 2.4565e-07)
(1.01516e-05 2.92784e-06 -3.47598e-07)
(1.2271e-05 7.44032e-06 -4.38891e-07)
(1.30841e-05 9.90362e-06 -9.30574e-07)
(1.46284e-05 1.49242e-05 -9.62389e-07)
(1.34569e-05 1.8519e-05 -1.29884e-06)
(1.35007e-05 2.47915e-05 -1.27981e-06)
(9.70939e-06 3.1318e-05 -1.52461e-06)
(7.48554e-06 3.91403e-05 -1.53397e-06)
(1.06015e-06 3.51275e-05 -1.25133e-06)
(-1.26813e-06 4.82675e-05 -1.04246e-06)
(-9.71827e-06 5.60983e-05 -1.45467e-06)
(-1.4344e-05 4.66096e-05 -1.42286e-06)
(-1.95473e-05 3.81261e-05 -1.14726e-06)
(-2.16635e-05 2.98104e-05 -1.15126e-06)
(-2.34667e-05 2.41457e-05 -6.92663e-07)
(-2.35207e-05 1.72622e-05 -5.79216e-07)
(-2.27266e-05 1.2446e-05 1.0727e-07)
(-2.17195e-05 6.19881e-06 3.43134e-07)
(-1.90914e-05 2.11426e-06 1.1245e-06)
(-1.79479e-05 -2.92209e-06 1.40332e-06)
(-1.42191e-05 -5.98882e-06 2.10855e-06)
(-1.33854e-05 -9.23376e-06 2.36218e-06)
(-9.08353e-06 -1.11731e-05 2.74772e-06)
(-8.45292e-06 -1.22361e-05 2.87363e-06)
(-3.99811e-06 -1.30486e-05 2.81726e-06)
(-3.11821e-06 -1.18136e-05 2.77981e-06)
(1.05844e-06 -1.14814e-05 2.28179e-06)
(2.68435e-06 -8.17654e-06 2.0957e-06)
(6.3242e-06 -6.63805e-06 1.31334e-06)
(8.72151e-06 -1.65992e-06 1.04276e-06)
(1.12976e-05 1.0381e-06 2.19343e-07)
(1.39913e-05 7.06096e-06 9.52375e-09)
(1.50255e-05 1.0786e-05 -7.16342e-07)
(1.69751e-05 1.7384e-05 -8.37959e-07)
(1.56842e-05 2.23793e-05 -1.3355e-06)
(1.57868e-05 3.04657e-05 -1.36072e-06)
(1.13683e-05 3.89826e-05 -1.69476e-06)
(8.72241e-06 4.90504e-05 -1.7204e-06)
(1.18467e-06 4.43551e-05 -1.40828e-06)
(-2.33956e-06 6.13664e-05 -2.10166e-06)
(-1.26364e-05 7.03233e-05 -2.55766e-06)
(-1.88983e-05 5.90222e-05 -2.60196e-06)
(-2.58372e-05 4.78096e-05 -2.13746e-06)
(-2.87818e-05 3.79597e-05 -2.18811e-06)
(-3.1629e-05 3.05794e-05 -1.65354e-06)
(-3.18687e-05 2.23907e-05 -1.58826e-06)
(-3.12904e-05 1.62977e-05 -8.60915e-07)
(-2.98993e-05 8.87999e-06 -6.78457e-07)
(-2.66961e-05 3.86759e-06 1.42486e-07)
(-2.46494e-05 -2.06827e-06 3.64425e-07)
(-1.9636e-05 -5.70958e-06 1.07248e-06)
(-1.76216e-05 -9.4637e-06 1.26291e-06)
(-1.16053e-05 -1.17203e-05 1.66333e-06)
(-9.63764e-06 -1.2948e-05 1.76705e-06)
(-3.31594e-06 -1.3889e-05 1.71699e-06)
(-1.13367e-06 -1.24768e-05 1.71661e-06)
(4.69625e-06 -1.20859e-05 1.2086e-06)
(7.44728e-06 -8.2808e-06 1.10474e-06)
(1.22537e-05 -6.40721e-06 3.02459e-07)
(1.55095e-05 -6.1655e-07 1.65893e-07)
(1.87828e-05 2.76911e-06 -7.1913e-07)
(2.17747e-05 9.941e-06 -8.73143e-07)
(2.27294e-05 1.4605e-05 -1.62157e-06)
(2.44507e-05 2.25785e-05 -1.68193e-06)
(2.23523e-05 2.88162e-05 -2.17528e-06)
(2.15963e-05 3.8714e-05 -2.14778e-06)
(1.56083e-05 4.93156e-05 -2.48872e-06)
(1.14912e-05 6.18524e-05 -2.48311e-06)
(1.77732e-06 5.60632e-05 -2.00038e-06)
(-2.53711e-06 7.74576e-05 -2.27754e-06)
(-1.48623e-05 8.92007e-05 -2.9031e-06)
(-2.22247e-05 7.47358e-05 -2.8495e-06)
(-3.03533e-05 6.1112e-05 -2.38249e-06)
(-3.38192e-05 4.84297e-05 -2.30943e-06)
(-3.69283e-05 3.90656e-05 -1.6272e-06)
(-3.70486e-05 2.84276e-05 -1.37879e-06)
(-3.60324e-05 2.03409e-05 -3.5019e-07)
(-3.41383e-05 1.06828e-05 7.27756e-08)
(-3.01046e-05 3.84354e-06 1.27649e-06)
(-2.7601e-05 -3.92187e-06 1.75322e-06)
(-2.16951e-05 -8.95507e-06 2.86267e-06)
(-1.94507e-05 -1.39358e-05 3.27032e-06)
(-1.26018e-05 -1.69556e-05 3.89762e-06)
(-1.0626e-05 -1.86321e-05 4.09576e-06)
(-3.51192e-06 -1.96276e-05 4.01658e-06)
(-1.27446e-06 -1.7832e-05 3.95311e-06)
(5.32121e-06 -1.68046e-05 3.17156e-06)
(8.44769e-06 -1.18845e-05 2.87475e-06)
(1.40704e-05 -8.79771e-06 1.63263e-06)
(1.79617e-05 -1.34715e-06 1.22969e-06)
(2.18414e-05 3.68084e-06 -5.73106e-08)
(2.56119e-05 1.28155e-05 -4.06072e-07)
(2.6894e-05 1.93103e-05 -1.49289e-06)
(2.90407e-05 2.93627e-05 -1.68911e-06)
(2.66555e-05 3.75499e-05 -2.39557e-06)
(2.57111e-05 4.98452e-05 -2.4283e-06)
(1.86245e-05 6.31224e-05 -2.87651e-06)
(1.36126e-05 7.86329e-05 -2.88851e-06)
(2.0749e-06 7.12311e-05 -2.32984e-06)
(-3.51537e-06 9.60807e-05 -3.23423e-06)
(-1.89616e-05 0.000110253 -4.10275e-06)
(-2.88455e-05 9.25188e-05 -4.08741e-06)
(-3.94548e-05 7.55807e-05 -3.58919e-06)
(-4.45486e-05 6.00857e-05 -3.59197e-06)
(-4.90086e-05 4.81685e-05 -2.91689e-06)
(-4.96519e-05 3.5049e-05 -2.75313e-06)
(-4.87782e-05 2.4633e-05 -1.72054e-06)
(-4.63854e-05 1.27576e-05 -1.39891e-06)
(-4.13893e-05 4.00117e-06 -1.75879e-07)
(-3.75424e-05 -5.43069e-06 1.90289e-07)
(-2.97493e-05 -1.1734e-05 1.29026e-06)
(-2.56866e-05 -1.76876e-05 1.59369e-06)
(-1.63442e-05 -2.13403e-05 2.22638e-06)
(-1.23188e-05 -2.3347e-05 2.38394e-06)
(-2.50145e-06 -2.43965e-05 2.30656e-06)
(1.73243e-06 -2.22901e-05 2.3067e-06)
(1.07123e-05 -2.07564e-05 1.50638e-06)
(1.5552e-05 -1.4929e-05 1.34581e-06)
(2.28856e-05 -1.07668e-05 1.00027e-07)
(2.80694e-05 -1.74573e-06 -1.20099e-07)
(3.29299e-05 4.87998e-06 -1.47397e-06)
(3.7132e-05 1.60666e-05 -1.7124e-06)
(3.83119e-05 2.45413e-05 -2.80623e-06)
(4.00141e-05 3.68936e-05 -2.90971e-06)
(3.64299e-05 4.72544e-05 -3.58354e-06)
(3.40655e-05 6.22665e-05 -3.52058e-06)
(2.46891e-05 7.85747e-05 -3.94804e-06)
(1.74857e-05 9.76173e-05 -3.91919e-06)
(2.88232e-06 8.85339e-05 -3.12817e-06)
(-4.0465e-06 0.000121552 -3.73068e-06)
(-2.24211e-05 0.000139808 -4.74222e-06)
(-3.43522e-05 0.000118132 -4.66718e-06)
(-4.71168e-05 9.77221e-05 -4.10206e-06)
(-5.34858e-05 7.87306e-05 -4.03447e-06)
(-5.87373e-05 6.39283e-05 -3.17245e-06)
(-5.94476e-05 4.76441e-05 -2.82142e-06)
(-5.80537e-05 3.43352e-05 -1.4132e-06)
(-5.48182e-05 1.95837e-05 -7.98688e-07)
(-4.84758e-05 8.28615e-06 9.37471e-07)
(-4.35342e-05 -3.39054e-06 1.63092e-06)
(-3.41605e-05 -1.15425e-05 3.24989e-06)
(-2.92073e-05 -1.88994e-05 3.84028e-06)
(-1.83619e-05 -2.3503e-05 4.79087e-06)
(-1.37037e-05 -2.59842e-05 5.07247e-06)
(-2.42238e-06 -2.70598e-05 4.97052e-06)
(2.47037e-06 -2.45362e-05 4.87031e-06)
(1.28403e-05 -2.21613e-05 3.69773e-06)
(1.86434e-05 -1.50372e-05 3.27508e-06)
(2.74553e-05 -9.2153e-06 1.47617e-06)
(3.37824e-05 1.8356e-06 8.79944e-07)
(3.96961e-05 1.07484e-05 -9.45027e-07)
(4.49801e-05 2.44573e-05 -1.44757e-06)
(4.65524e-05 3.5501e-05 -2.92903e-06)
(4.84504e-05 5.05731e-05 -3.18695e-06)
(4.41185e-05 6.35187e-05 -4.06391e-06)
(4.08413e-05 8.16062e-05 -4.03336e-06)
(2.9524e-05 0.000101308 -4.5346e-06)
(2.06528e-05 0.000124337 -4.52952e-06)
(3.36419e-06 0.000112341 -3.62564e-06)
(-4.985e-06 0.000148628 -4.62556e-06)
(-2.7392e-05 0.000170591 -5.85188e-06)
(-4.29056e-05 0.000144095 -5.77528e-06)
(-5.94105e-05 0.000119421 -5.30266e-06)
(-6.87055e-05 9.6189e-05 -5.4198e-06)
(-7.60516e-05 7.74926e-05 -4.69782e-06)
(-7.78116e-05 5.70616e-05 -4.51904e-06)
(-7.64948e-05 3.9724e-05 -3.20393e-06)
(-7.24926e-05 2.11686e-05 -2.7543e-06)
(-6.45827e-05 6.4178e-06 -1.10415e-06)
(-5.7589e-05 -8.08089e-06 -5.71435e-07)
(-4.54834e-05 -1.85384e-05 9.84798e-07)
(-3.77994e-05 -2.74818e-05 1.42495e-06)
(-2.35338e-05 -3.31624e-05 2.35298e-06)
(-1.58999e-05 -3.61392e-05 2.55366e-06)
(-1.02983e-06 -3.71477e-05 2.45083e-06)
(6.73021e-06 -3.41529e-05 2.4445e-06)
(2.03646e-05 -3.06488e-05 1.28301e-06)
(2.8714e-05 -2.20409e-05 1.04572e-06)
(3.99703e-05 -1.40151e-05 -7.23496e-07)
(4.82303e-05 -4.51323e-07 -1.06668e-06)
(5.55953e-05 1.16735e-05 -2.89083e-06)
(6.15053e-05 2.88104e-05 -3.21066e-06)
(6.29489e-05 4.34325e-05 -4.6075e-06)
(6.3886e-05 6.21759e-05 -4.6837e-06)
(5.76127e-05 7.84743e-05 -5.39698e-06)
(5.17598e-05 0.00010037 -5.14843e-06)
(3.70712e-05 0.000123978 -5.50987e-06)
(2.51415e-05 0.000151953 -5.48774e-06)
(4.16455e-06 0.000137465 -4.39414e-06)
(-5.30748e-06 0.000185344 -4.88248e-06)
(-3.10664e-05 0.000213263 -5.99058e-06)
(-5.00506e-05 0.000181666 -5.71921e-06)
(-7.06313e-05 0.000153143 -5.33564e-06)
(-8.33035e-05 0.000125751 -5.61891e-06)
(-9.27454e-05 0.000103376 -4.96785e-06)
(-9.53801e-05 7.88279e-05 -4.78194e-06)
(-9.34929e-05 5.75274e-05 -3.2324e-06)
(-8.81893e-05 3.53406e-05 -2.56816e-06)
(-7.80187e-05 1.73063e-05 -4.65454e-07)
(-6.88153e-05 3.34304e-07 3.90604e-07)
(-5.39212e-05 -1.22584e-05 2.46543e-06)
(-4.40853e-05 -2.2475e-05 3.20697e-06)
(-2.71959e-05 -2.90995e-05 4.43228e-06)
(-1.77372e-05 -3.23666e-05 4.77275e-06)
(-4.05063e-07 -3.3364e-05 4.63149e-06)
(9.12159e-06 -2.99698e-05 4.54618e-06)
(2.5189e-05 -2.55794e-05 3.02344e-06)
(3.56049e-05 -1.57465e-05 2.50201e-06)
(4.93655e-05 -5.80166e-06 1.75629e-07)
(5.97518e-05 1.00638e-05 -4.86924e-07)
(6.90089e-05 2.50348e-05 -2.76874e-06)
(7.62398e-05 4.53116e-05 -3.27053e-06)
(7.8026e-05 6.33022e-05 -4.90892e-06)
(7.82408e-05 8.54451e-05 -4.95361e-06)
(6.99335e-05 0.000104714 -5.58248e-06)
(6.11554e-05 0.000130024 -5.12171e-06)
(4.28316e-05 0.000157038 -5.35183e-06)
(2.81368e-05 0.000190156 -5.47955e-06)
(4.33784e-06 0.000171338 -4.54019e-06)
(-4.97481e-06 0.000220327 -4.45899e-06)
(-3.35596e-05 0.000253007 -4.89395e-06)
(-5.75342e-05 0.000214974 -4.23318e-06)
(-8.43932e-05 0.000182281 -4.33722e-06)
(-0.000103185 0.000149734 -5.33091e-06)
(-0.000116579 0.00012234 -5.42727e-06)
(-0.000121448 9.17918e-05 -5.87725e-06)
(-0.000119525 6.44525e-05 -4.84281e-06)
(-0.0001129 3.65697e-05 -4.60129e-06)
(-0.000100022 1.33048e-05 -2.86513e-06)
(-8.75479e-05 -7.78659e-06 -2.33676e-06)
(-6.8658e-05 -2.37263e-05 -5.55336e-07)
(-5.48806e-05 -3.6039e-05 -5.20978e-08)
(-3.35997e-05 -4.40659e-05 1.00337e-06)
(-2.02101e-05 -4.78225e-05 1.2491e-06)
(1.3852e-06 -4.86212e-05 1.08436e-06)
(1.46567e-05 -4.45634e-05 1.12423e-06)
(3.48144e-05 -3.85282e-05 -2.84994e-07)
(4.88287e-05 -2.66324e-05 -5.27731e-07)
(6.61379e-05 -1.33853e-05 -2.60028e-06)
(7.94445e-05 6.2417e-06 -2.90997e-06)
(9.10081e-05 2.60927e-05 -4.83353e-06)
(9.92603e-05 5.1442e-05 -4.90957e-06)
(0.000100807 7.47409e-05 -6.02243e-06)
(9.87378e-05 0.000101932 -5.41548e-06)
(8.65632e-05 0.00012515 -5.25713e-06)
(7.2143e-05 0.000154556 -3.99035e-06)
(4.82555e-05 0.000184909 -3.64455e-06)
(2.95552e-05 0.000224421 -4.13368e-06)
(3.77653e-06 0.000202795 -3.89805e-06)
(-2.50829e-06 0.000261135 -1.86226e-06)
(-3.06157e-05 0.000300169 1.51786e-07)
(-6.04727e-05 0.000255964 2.07392e-06)
(-9.59575e-05 0.000221797 1.14127e-06)
(-0.000123827 0.000186326 -1.27921e-06)
(-0.000142733 0.000156032 -2.92592e-06)
(-0.000150632 0.000121299 -4.46805e-06)
(-0.000148232 8.96886e-05 -4.14808e-06)
(-0.000139583 5.80173e-05 -4.35836e-06)
(-0.000122879 3.14251e-05 -2.6911e-06)
(-0.000106356 8.31108e-06 -2.18683e-06)
(-8.27259e-05 -9.27363e-06 -1.85132e-07)
(-6.48108e-05 -2.20166e-05 4.22816e-07)
(-3.92539e-05 -3.03075e-05 1.63804e-06)
(-2.23786e-05 -3.37272e-05 1.94241e-06)
(2.87261e-06 -3.43533e-05 1.73818e-06)
(1.94154e-05 -3.02441e-05 1.75525e-06)
(4.34549e-05 -2.38195e-05 1.15009e-07)
(6.12476e-05 -1.1417e-05 -2.02062e-07)
(8.27366e-05 3.28806e-06 -2.53438e-06)
(9.97118e-05 2.46539e-05 -2.78348e-06)
(0.000114467 4.72787e-05 -4.645e-06)
(0.00012438 7.56641e-05 -4.2037e-06)
(0.000125861 0.000102202 -4.59463e-06)
(0.000120539 0.000132228 -2.77728e-06)
(0.000102753 0.000156763 -9.61702e-07)
(7.97161e-05 0.000187343 1.85238e-06)
(4.8073e-05 0.000217853 3.09726e-06)
(2.49652e-05 0.000263465 1.41237e-06)
(9.70363e-07 0.000238167 -9.81449e-07)
(4.39736e-06 0.000284196 5.22846e-06)
(-1.6228e-05 0.000324244 1.34336e-05)
(-5.43672e-05 0.00027268 1.76892e-05)
(-0.000102758 0.000239387 1.48721e-05)
(-0.000145256 0.00020208 9.33915e-06)
(-0.000172981 0.000169444 4.09308e-06)
(-0.000185985 0.00012973 -3.89434e-07)
(-0.000183483 9.2304e-05 -2.35837e-06)
(-0.000172465 5.49787e-05 -4.20103e-06)
(-0.000151076 2.30335e-05 -3.86601e-06)
(-0.000129294 -4.15618e-06 -4.25474e-06)
(-9.98126e-05 -2.48879e-05 -3.07879e-06)
(-7.64259e-05 -3.91854e-05 -2.95442e-06)
(-4.56566e-05 -4.82398e-05 -2.22273e-06)
(-2.43648e-05 -5.14538e-05 -2.11055e-06)
(4.89929e-06 -5.15931e-05 -2.35177e-06)
(2.54601e-05 -4.71233e-05 -2.11278e-06)
(5.41184e-05 -3.93833e-05 -3.33806e-06)
(7.6714e-05 -2.53256e-05 -3.13906e-06)
(0.00010327 -7.48457e-06 -4.66014e-06)
(0.000124793 1.75403e-05 -3.97951e-06)
(0.000143416 4.49714e-05 -4.47454e-06)
(0.00015494 7.80156e-05 -2.37119e-06)
(0.000155681 0.000109077 -3.33705e-07)
(0.000144566 0.00014214 4.59206e-06)
(0.000117623 0.000166624 1.01764e-05)
(8.04054e-05 0.000196386 1.62439e-05)
(3.71627e-05 0.000223752 1.952e-05)
(7.87732e-06 0.000276246 1.55372e-05)
(-6.48841e-06 0.000253877 6.69254e-06)
(1.89385e-05 0.000282469 2.00346e-05)
(1.75753e-05 0.000319691 4.10447e-05)
(-3.3978e-05 0.000266455 4.84821e-05)
(-0.000102153 0.000242884 4.22955e-05)
(-0.000167179 0.000211384 3.12575e-05)
(-0.000207948 0.000183364 2.00722e-05)
(-0.000228474 0.000145677 1.04101e-05)
(-0.000226102 0.000109113 4.46063e-06)
(-0.000211994 7.24189e-05 -2.84262e-07)
(-0.000184585 4.09983e-05 -1.85492e-06)
(-0.000156127 1.52186e-05 -3.56754e-06)
(-0.0001192 -4.05549e-06 -3.117e-06)
(-8.9104e-05 -1.5932e-05 -3.51067e-06)
(-5.21138e-05 -2.27055e-05 -3.01905e-06)
(-2.59213e-05 -2.36893e-05 -3.05461e-06)
(7.3015e-06 -2.32207e-05 -3.35106e-06)
(3.21309e-05 -2.00484e-05 -2.90566e-06)
(6.61729e-05 -1.41429e-05 -3.97516e-06)
(9.4614e-05 -2.30287e-06 -3.19856e-06)
(0.000127612 1.3823e-05 -4.01277e-06)
(0.000154959 3.70154e-05 -1.91064e-06)
(0.000178484 6.30738e-05 -4.49375e-07)
(0.000192049 9.432e-05 4.79407e-06)
(0.000191256 0.000122695 1.1036e-05)
(0.000171378 0.000151073 2.13979e-05)
(0.00013037 0.000167272 3.32673e-05)
(7.06923e-05 0.000186916 4.5223e-05)
(9.20109e-06 0.000200675 5.20967e-05)
(-3.01909e-05 0.000253769 4.5019e-05)
(-2.18671e-05 0.000240244 2.23611e-05)
(4.79232e-05 0.000206014 4.94311e-05)
(8.44599e-05 0.000232775 8.82985e-05)
(1.1331e-05 0.000192651 9.66324e-05)
(-8.47696e-05 0.000187648 8.49282e-05)
(-0.000181195 0.000166411 6.62149e-05)
(-0.000239145 0.000145354 4.67735e-05)
(-0.000269297 0.000112084 2.99399e-05)
(-0.000267073 7.84757e-05 1.77817e-05)
(-0.000249559 4.45919e-05 8.4099e-06)
(-0.000215194 1.45392e-05 3.10635e-06)
(-0.000179248 -9.86551e-06 -1.16538e-06)
(-0.000134415 -2.78304e-05 -2.697e-06)
(-9.72631e-05 -3.72961e-05 -4.297e-06)
(-5.47217e-05 -4.11032e-05 -4.77737e-06)
(-2.52916e-05 -3.86759e-05 -5.20598e-06)
(8.93632e-06 -3.6991e-05 -5.54835e-06)
(3.58796e-05 -3.58377e-05 -4.63639e-06)
(7.42257e-05 -3.20198e-05 -4.79625e-06)
(0.000108407 -2.23884e-05 -2.72187e-06)
(0.000147993 -7.80723e-06 -1.51585e-06)
(0.000181641 1.33652e-05 3.26338e-06)
(0.000210731 3.71395e-05 8.65139e-06)
(0.000226082 6.40727e-05 1.87588e-05)
(0.000223123 8.73822e-05 3.14133e-05)
(0.00019142 0.000107895 4.95041e-05)
(0.000131521 0.000112163 7.02517e-05)
(3.99926e-05 0.000114857 9.0545e-05)
(-4.71593e-05 0.000103118 0.000103203)
(-0.000104169 0.000139979 9.53632e-05)
(-5.24093e-05 0.000146337 5.33926e-05)
(9.05614e-05 1.23824e-05 9.25433e-05)
(0.000174405 5.64222e-05 0.000142518)
(6.88561e-05 7.36905e-05 0.000146437)
(-6.05029e-05 0.000102789 0.000127715)
(-0.000195474 9.77436e-05 0.000102705)
(-0.000274678 8.65261e-05 7.7028e-05)
(-0.000316703 6.46189e-05 5.4114e-05)
(-0.00031502 4.36212e-05 3.61613e-05)
(-0.000293799 2.42472e-05 2.15222e-05)
(-0.000252355 7.38252e-06 1.19062e-05)
(-0.000207847 -4.96692e-06 4.1353e-06)
(-0.000153158 -1.2613e-05 1.22031e-07)
(-0.000106665 -1.19406e-05 -3.14248e-06)
(-5.60927e-05 -6.14203e-06 -4.65571e-06)
(-2.26521e-05 4.78041e-06 -5.62306e-06)
(1.11067e-05 8.23465e-06 -5.9976e-06)
(3.99908e-05 2.95359e-06 -4.47758e-06)
(8.44822e-05 -2.19864e-06 -3.5543e-06)
(0.000126198 -2.72561e-06 2.63405e-07)
(0.000174019 8.50665e-07 3.99105e-06)
(0.000214959 9.18971e-06 1.23771e-05)
(0.000249485 1.87013e-05 2.21198e-05)
(0.000266821 2.97363e-05 3.76651e-05)
(0.000260846 3.83657e-05 5.64461e-05)
(0.00021464 4.31442e-05 8.11382e-05)
(0.000131325 3.07501e-05 0.000108697)
(1.12573e-06 7.25915e-06 0.000135686)
(-0.000116474 -4.85809e-05 0.00015552)
(-0.00020153 -7.59055e-05 0.000152391)
(-9.7028e-05 -7.70781e-05 9.85808e-05)
(0.000129886 -0.000334114 0.000131799)
(0.000247268 -0.00020329 0.000175326)
(0.000118592 -7.81531e-05 0.000169884)
(-2.44243e-05 -5.49929e-06 0.000144511)
(-0.000184259 -1.28173e-07 0.000118309)
(-0.000280647 -1.68383e-05 9.31947e-05)
(-0.000335532 -3.90499e-05 7.09456e-05)
(-0.00033694 -5.38136e-05 5.21095e-05)
(-0.000313937 -5.90434e-05 3.53762e-05)
(-0.000267294 -6.1659e-05 2.29482e-05)
(-0.000215943 -6.13774e-05 1.25751e-05)
(-0.000153281 -5.86582e-05 6.39295e-06)
(-9.92488e-05 -4.7052e-05 1.73632e-06)
(-4.38746e-05 -2.8383e-05 -1.07227e-06)
(-1.32532e-05 -2.91808e-06 -2.72129e-06)
(9.5332e-06 4.01327e-06 -3.25531e-06)
(3.21342e-05 -1.22116e-05 -9.95206e-07)
(7.85414e-05 -2.98653e-05 1.14831e-06)
(0.000125549 -4.1621e-05 6.58817e-06)
(0.000179605 -4.95212e-05 1.25254e-05)
(0.000226178 -5.4928e-05 2.35663e-05)
(0.000264337 -6.05867e-05 3.60926e-05)
(0.000282027 -6.45809e-05 5.36271e-05)
(0.000271006 -6.39311e-05 7.32619e-05)
(0.000210365 -6.35277e-05 9.76361e-05)
(0.000109269 -7.88981e-05 0.00012498)
(-4.40685e-05 -0.000125508 0.000153306)
(-0.000173589 -0.000237224 0.00017993)
(-0.000278784 -0.00037983 0.000186093)
(-0.000138192 -0.000459359 0.000139537)
(0.000140016 -0.000749503 0.000140742)
(0.000255286 -0.00046077 0.000163745)
(0.000128465 -0.000197325 0.000147652)
(9.69704e-06 -6.73232e-05 0.000117827)
(-0.000140639 -4.35582e-05 9.39868e-05)
(-0.000241479 -7.05424e-05 7.40779e-05)
(-0.000311202 -0.00010361 5.80272e-05)
(-0.000327387 -0.000121714 4.41766e-05)
(-0.000314995 -0.000115688 3.08215e-05)
(-0.000271851 -0.000101413 1.97345e-05)
(-0.000219383 -8.33839e-05 1.01662e-05)
(-0.000150993 -6.42379e-05 4.1461e-06)
(-8.89042e-05 -3.48308e-05 -5.37732e-07)
(-2.5921e-05 7.06991e-06 -4.03122e-06)
(1.24914e-06 5.91911e-05 -6.75095e-06)
(7.31746e-06 7.20813e-05 -7.53866e-06)
(2.08379e-05 3.35487e-05 -4.53318e-06)
(7.08836e-05 -7.51028e-06 -1.4619e-06)
(0.000123694 -3.83922e-05 4.01123e-06)
(0.00018168 -6.44828e-05 9.79207e-06)
(0.000228958 -8.86437e-05 2.00368e-05)
(0.000262846 -0.000111597 3.11017e-05)
(0.00026995 -0.000127219 4.53952e-05)
(0.00024482 -0.000125131 6.01466e-05)
(0.00017136 -0.000120332 7.85567e-05)
(6.80193e-05 -0.00013633 0.00010079)
(-7.42331e-05 -0.000214024 0.00012632)
(-0.000181682 -0.000394298 0.000157042)
(-0.000286821 -0.000683846 0.000173655)
(-0.000149409 -0.000916461 0.000148999)
(0.000118538 -0.00113176 0.000116929)
(0.000208961 -0.000656551 0.000111152)
(0.000121848 -0.000267422 8.80191e-05)
(7.23745e-05 -8.21764e-05 5.93869e-05)
(-1.94217e-05 -2.84271e-05 4.12848e-05)
(-9.19949e-05 -5.8404e-05 2.74211e-05)
(-0.000162064 -0.000107427 1.71335e-05)
(-0.000198236 -0.000144965 8.96652e-06)
(-0.000210413 -0.000152172 2.94889e-06)
(-0.000187772 -0.000145438 -6.99559e-07)
(-0.000151083 -0.000130485 -3.38575e-06)
(-9.43717e-05 -0.000111559 -3.87492e-06)
(-4.16077e-05 -7.46534e-05 -4.56252e-06)
(1.11077e-05 -6.36984e-06 -6.21999e-06)
(1.9843e-05 8.72074e-05 -8.45674e-06)
(-1.62409e-06 0.000110379 -9.5979e-06)
(-1.03959e-05 3.90147e-05 -6.94451e-06)
(2.66272e-05 -3.07221e-05 -6.21786e-06)
(6.92816e-05 -7.15832e-05 -4.73225e-06)
(0.000115308 -0.000100294 -4.52577e-06)
(0.000148264 -0.000122988 -1.00748e-06)
(0.000162879 -0.000139617 3.06773e-06)
(0.000148441 -0.000145132 1.09799e-05)
(0.000108685 -0.000127896 2.08486e-05)
(4.14293e-05 -0.000113859 3.28742e-05)
(-3.02445e-05 -0.000135089 4.77945e-05)
(-0.000115462 -0.000249452 6.62653e-05)
(-0.000160133 -0.000491568 9.42455e-05)
(-0.000232957 -0.00091475 0.000117276)
(-0.000126624 -0.00133475 0.000122808)
(7.43036e-05 -0.00140109 6.98039e-05)
(0.000132213 -0.000742842 2.91862e-05)
(0.000111485 -0.000265602 5.30203e-06)
(0.000144566 -3.64685e-05 -1.29431e-05)
(0.000133195 6.03159e-05 -2.14058e-05)
(0.00011252 5.50013e-05 -2.79311e-05)
(6.31909e-05 1.75521e-05 -3.28304e-05)
(1.67598e-05 -2.83723e-05 -3.47172e-05)
(-2.19499e-05 -5.81413e-05 -3.35388e-05)
(-3.30568e-05 -7.62368e-05 -2.94553e-05)
(-3.0707e-05 -8.07626e-05 -2.47449e-05)
(-8.99083e-06 -7.44415e-05 -1.93538e-05)
(1.05828e-05 -3.80408e-05 -1.52517e-05)
(3.46848e-05 5.36197e-05 -1.38546e-05)
(2.43057e-05 0.000190143 -1.46749e-05)
(-6.65026e-06 0.000224619 -1.48763e-05)
(-3.12168e-05 0.00011923 -1.38908e-05)
(-2.18842e-05 2.24105e-05 -1.55262e-05)
(-7.1145e-06 -2.02158e-05 -1.93319e-05)
(6.01392e-06 -3.96372e-05 -2.52591e-05)
(9.06537e-06 -4.50941e-05 -2.94004e-05)
(-5.75432e-06 -3.96141e-05 -3.30782e-05)
(-4.04086e-05 -2.88995e-05 -3.2333e-05)
(-8.41618e-05 -1.0579e-05 -2.83894e-05)
(-0.000125532 -1.11665e-05 -2.19152e-05)
(-0.000144825 -5.66461e-05 -1.55655e-05)
(-0.000154588 -0.000213332 -8.32633e-06)
(-0.00012544 -0.00050007 7.92343e-06)
(-0.000143057 -0.00101731 3.09917e-05)
(-7.94332e-05 -0.00162513 7.14859e-05)
(2.53997e-05 -0.0015363 1.81987e-05)
(6.36688e-05 -0.000723685 -4.66137e-05)
(0.000126431 -0.000215113 -6.20784e-05)
(0.000228631 2.83383e-05 -6.26888e-05)
(0.000293582 0.000156281 -5.54343e-05)
(0.000329988 0.000179272 -4.82375e-05)
(0.000326045 0.000161244 -4.14458e-05)
(0.000304043 0.000110723 -3.31035e-05)
(0.00026912 5.64501e-05 -2.3917e-05)
(0.000236759 3.37279e-06 -1.28478e-05)
(0.00019929 -3.48898e-05 -2.06216e-06)
(0.000162208 -5.59629e-05 8.10346e-06)
(0.000112625 -3.83674e-05 1.63123e-05)
(6.72897e-05 5.22909e-05 2.12294e-05)
(1.70288e-05 0.00020297 2.32493e-05)
(-1.8784e-05 0.000240975 2.46283e-05)
(-6.63692e-05 0.000130476 2.28496e-05)
(-0.000116182 3.09534e-05 1.76917e-05)
(-0.00015698 4.95563e-06 9.20053e-06)
(-0.000195831 1.22164e-05 -1.6782e-06)
(-0.00022587 3.83915e-05 -1.23053e-05)
(-0.00025633 7.66768e-05 -2.32479e-05)
(-0.000283585 0.000108513 -3.17345e-05)
(-0.000302224 0.000128973 -3.98319e-05)
(-0.000299755 0.000108673 -4.62988e-05)