/*--------------------------------*- C++ -*----------------------------------*\
| =========                 |                                                 |
| \\      /  F ield         | OpenFOAM: The Open Source CFD Toolbox           |
|  \\    /   O peration     | Version:  v1912                                 |
|   \\  /    A nd           | Website:  www.openfoam.com                      |
|    \\/     M anipulation  |                                                 |
\*---------------------------------------------------------------------------*/
FoamFile
{
    version     2.0;
    format      ascii;
    class       volVectorField;
    location    "10/oil";
    object      U;
}
// * * * * * * * * * * * * * * * * * * * * * * * * * * * * * * * * * * * * * //

dimensions      [0 1 -1 0 0 0 0];


internalField   nonuniform List<vector> 
35580
(
(-3.40203e-05 -3.40305e-05 -3.39923e-05)
(-3.73341e-05 -7.05629e-06 -7.02267e-06)
(-7.75615e-06 -4.97342e-06 -4.96514e-06)
(-6.84901e-06 -1.35151e-06 -1.34974e-06)
(-1.77815e-06 -8.55955e-07 -8.53708e-07)
(-1.43407e-06 -2.90339e-07 -2.89674e-07)
(-4.38255e-07 -1.66267e-07 -1.65993e-07)
(-3.51091e-07 -6.67478e-08 -6.70502e-08)
(-1.22543e-07 -3.61353e-08 -3.66014e-08)
(-1.0105e-07 -1.65523e-08 -1.71806e-08)
(-3.99674e-08 -8.58015e-09 -9.23214e-09)
(-3.44424e-08 -4.29543e-09 -4.93081e-09)
(-1.63917e-08 -2.04083e-09 -2.67399e-09)
(-1.53964e-08 -9.83688e-10 -1.58337e-09)
(-1.01904e-08 -3.0368e-10 -8.93629e-10)
(-1.06683e-08 -1.73496e-11 -6.11408e-10)
(-9.56587e-09 1.99966e-10 -4.10151e-10)
(-1.0301e-08 2.75197e-10 -3.66037e-10)
(-1.02151e-08 3.35886e-10 -3.45864e-10)
(-1.05203e-08 3.43689e-10 -3.87067e-10)
(-1.02146e-08 3.4365e-10 -4.29936e-10)
(-9.74631e-09 3.1717e-10 -4.8499e-10)
(-8.76804e-09 2.85236e-10 -5.23909e-10)
(-7.5301e-09 2.41085e-10 -5.46972e-10)
(-5.9706e-09 1.91727e-10 -5.38751e-10)
(-4.32094e-09 1.38493e-10 -4.91648e-10)
(-2.66466e-09 8.88772e-11 -4.06823e-10)
(-1.2717e-09 5.67167e-11 -2.77101e-10)
(-2.83066e-10 6.8121e-11 -1.53518e-10)
(8.49526e-11 1.10116e-10 -2.86612e-11)
(-7.03473e-06 -3.73843e-05 -7.03295e-06)
(-9.13102e-06 -9.14657e-06 -3.07385e-06)
(-3.68561e-06 -7.71344e-06 -2.5959e-06)
(-3.44223e-06 -2.16694e-06 -9.81652e-07)
(-1.26816e-06 -1.43128e-06 -6.46349e-07)
(-1.1149e-06 -4.68721e-07 -2.66178e-07)
(-4.41533e-07 -2.91921e-07 -1.56952e-07)
(-3.77971e-07 -1.11616e-07 -7.15551e-08)
(-1.66724e-07 -7.01501e-08 -3.97335e-08)
(-1.40406e-07 -3.19439e-08 -1.9869e-08)
(-6.97493e-08 -2.10843e-08 -1.05045e-08)
(-5.89571e-08 -1.16155e-08 -5.54641e-09)
(-3.46295e-08 -8.21441e-09 -2.64544e-09)
(-3.11118e-08 -5.45425e-09 -1.25569e-09)
(-2.33941e-08 -4.2475e-09 -3.17805e-10)
(-2.31766e-08 -3.33936e-09 6.583e-11)
(-2.14253e-08 -2.92752e-09 3.44545e-10)
(-2.21469e-08 -2.68617e-09 4.05359e-10)
(-2.19013e-08 -2.63907e-09 4.26379e-10)
(-2.20835e-08 -2.67851e-09 3.5767e-10)
(-2.13485e-08 -2.80547e-09 2.78372e-10)
(-2.02061e-08 -2.96266e-09 1.77385e-10)
(-1.82151e-08 -3.12724e-09 9.10435e-11)
(-1.5711e-08 -3.26583e-09 1.77819e-11)
(-1.26597e-08 -3.34719e-09 -2.27071e-11)
(-9.42383e-09 -3.32644e-09 -2.20017e-11)
(-6.19482e-09 -3.14811e-09 1.64011e-11)
(-3.3899e-09 -2.72561e-09 9.70502e-11)
(-1.2568e-09 -1.94134e-09 1.478e-10)
(-5.92382e-11 -7.58112e-10 1.43441e-10)
(-4.9786e-06 -7.78619e-06 -4.96957e-06)
(-7.71776e-06 -3.69921e-06 -2.59787e-06)
(-3.67934e-06 -3.68878e-06 -2.24657e-06)
(-3.49553e-06 -1.46385e-06 -9.27856e-07)
(-1.53428e-06 -1.1213e-06 -5.95725e-07)
(-1.27139e-06 -4.79772e-07 -2.587e-07)
(-5.89698e-07 -3.4369e-07 -1.49342e-07)
(-4.67377e-07 -1.6635e-07 -7.01252e-08)
(-2.3553e-07 -1.18048e-07 -3.82746e-08)
(-1.84565e-07 -6.57152e-08 -1.92672e-08)
(-1.02293e-07 -4.77868e-08 -9.88401e-09)
(-8.15411e-08 -3.06808e-08 -5.01791e-09)
(-5.18552e-08 -2.35227e-08 -2.06956e-09)
(-4.44377e-08 -1.73889e-08 -6.77775e-10)
(-3.45087e-08 -1.44529e-08 2.84686e-10)
(-3.28613e-08 -1.21681e-08 6.79997e-10)
(-3.02955e-08 -1.10651e-08 9.64329e-10)
(-3.04996e-08 -1.03563e-08 1.02437e-09)
(-2.98814e-08 -1.01366e-08 1.03866e-09)
(-2.9728e-08 -1.01201e-08 9.59978e-10)
(-2.85878e-08 -1.02937e-08 8.61854e-10)
(-2.69298e-08 -1.05092e-08 7.41374e-10)
(-2.43011e-08 -1.07192e-08 6.28927e-10)
(-2.10373e-08 -1.08306e-08 5.26118e-10)
(-1.71267e-08 -1.07669e-08 4.51505e-10)
(-1.2973e-08 -1.04236e-08 4.14199e-10)
(-8.80647e-09 -9.67947e-09 4.06168e-10)
(-5.08604e-09 -8.35323e-09 4.32925e-10)
(-2.11364e-09 -6.19111e-09 4.09039e-10)
(-1.81486e-10 -2.83112e-09 2.84127e-10)
(-1.3551e-06 -6.87048e-06 -1.35131e-06)
(-2.16726e-06 -3.464e-06 -9.82053e-07)
(-1.45052e-06 -3.51858e-06 -9.2768e-07)
(-1.49458e-06 -1.52148e-06 -4.47431e-07)
(-7.93842e-07 -1.19399e-06 -3.0629e-07)
(-7.23001e-07 -5.53347e-07 -1.48301e-07)
(-3.84912e-07 -4.06462e-07 -9.02789e-08)
(-3.30944e-07 -2.11564e-07 -4.60202e-08)
(-1.86421e-07 -1.55171e-07 -2.60971e-08)
(-1.55207e-07 -9.26504e-08 -1.38348e-08)
(-9.46948e-08 -7.03297e-08 -7.0918e-09)
(-7.8954e-08 -4.8299e-08 -3.55443e-09)
(-5.44881e-08 -3.88069e-08 -1.19067e-09)
(-4.81168e-08 -3.03713e-08 -7.73833e-11)
(-3.93558e-08 -2.62686e-08 7.52647e-10)
(-3.78455e-08 -2.29905e-08 1.0947e-09)
(-3.54917e-08 -2.14147e-08 1.34802e-09)
(-3.56261e-08 -2.03975e-08 1.39762e-09)
(-3.49416e-08 -2.01041e-08 1.40517e-09)
(-3.46095e-08 -2.01121e-08 1.32328e-09)
(-3.32407e-08 -2.03759e-08 1.22254e-09)
(-3.12693e-08 -2.06811e-08 1.0992e-09)
(-2.82688e-08 -2.09339e-08 9.79338e-10)
(-2.45622e-08 -2.09795e-08 8.64489e-10)
(-2.01525e-08 -2.06876e-08 7.72144e-10)
(-1.54508e-08 -1.98918e-08 7.11158e-10)
(-1.06932e-08 -1.83962e-08 6.73293e-10)
(-6.35191e-09 -1.59149e-08 6.67402e-10)
(-2.76348e-09 -1.19976e-08 5.97757e-10)
(-2.74541e-10 -5.75113e-09 3.94992e-10)
(-8.57756e-07 -1.79711e-06 -8.53675e-07)
(-1.42856e-06 -1.29727e-06 -6.4644e-07)
(-1.1063e-06 -1.57034e-06 -5.9564e-07)
(-1.16522e-06 -8.35072e-07 -3.06379e-07)
(-7.03621e-07 -7.4766e-07 -2.09605e-07)
(-6.34678e-07 -4.10367e-07 -1.06814e-07)
(-3.74821e-07 -3.36011e-07 -6.5086e-08)
(-3.15795e-07 -2.02195e-07 -3.43293e-08)
(-1.9246e-07 -1.61447e-07 -1.93376e-08)
(-1.57286e-07 -1.08178e-07 -1.03634e-08)
(-1.01776e-07 -8.74145e-08 -5.09163e-09)
(-8.38399e-08 -6.50829e-08 -2.38525e-09)
(-6.02176e-08 -5.45541e-08 -4.69818e-10)
(-5.27236e-08 -4.47856e-08 4.02305e-10)
(-4.39428e-08 -3.97231e-08 1.09389e-09)
(-4.18823e-08 -3.56361e-08 1.37091e-09)
(-3.93759e-08 -3.35985e-08 1.58056e-09)
(-3.91984e-08 -3.2305e-08 1.60847e-09)
(-3.83333e-08 -3.19426e-08 1.60268e-09)
(-3.77549e-08 -3.19797e-08 1.51174e-09)
(-3.6166e-08 -3.23265e-08 1.4105e-09)
(-3.39529e-08 -3.27122e-08 1.28377e-09)
(-3.07074e-08 -3.29842e-08 1.16036e-09)
(-2.67327e-08 -3.29252e-08 1.03968e-09)
(-2.20315e-08 -3.23475e-08 9.38774e-10)
(-1.70048e-08 -3.10195e-08 8.65807e-10)
(-1.18858e-08 -2.86689e-08 8.14621e-10)
(-7.14974e-09 -2.48873e-08 7.93067e-10)
(-3.16136e-09 -1.89595e-08 7.00809e-10)
(-3.23204e-10 -9.31477e-09 4.60297e-10)
(-2.91165e-07 -1.45543e-06 -2.89145e-07)
(-4.63557e-07 -1.15357e-06 -2.65854e-07)
(-4.63416e-07 -1.32047e-06 -2.58488e-07)
(-5.23318e-07 -7.78538e-07 -1.48367e-07)
(-3.64917e-07 -6.93873e-07 -1.06882e-07)
(-3.56362e-07 -4.1727e-07 -5.9627e-08)
(-2.33605e-07 -3.44384e-07 -3.80032e-08)
(-2.10505e-07 -2.23228e-07 -2.15387e-08)
(-1.39372e-07 -1.81079e-07 -1.24668e-08)
(-1.20162e-07 -1.28547e-07 -6.95216e-09)
(-8.3461e-08 -1.05958e-07 -3.30877e-09)
(-7.18969e-08 -8.22954e-08 -1.41425e-09)
(-5.49019e-08 -7.03444e-08 6.48731e-11)
(-4.97881e-08 -5.93788e-08 7.3446e-10)
(-4.32848e-08 -5.34424e-08 1.30157e-09)
(-4.20543e-08 -4.87173e-08 1.52912e-09)
(-4.03043e-08 -4.634e-08 1.70233e-09)
(-4.03521e-08 -4.48748e-08 1.71343e-09)
(-3.96575e-08 -4.45142e-08 1.69581e-09)
(-3.90458e-08 -4.4612e-08 1.59646e-09)
(-3.74042e-08 -4.50646e-08 1.49292e-09)
(-3.50987e-08 -4.55378e-08 1.36217e-09)
(-3.1761e-08 -4.58261e-08 1.23627e-09)
(-2.76857e-08 -4.56546e-08 1.11395e-09)
(-2.28788e-08 -4.47787e-08 1.01049e-09)
(-1.77265e-08 -4.29052e-08 9.34065e-10)
(-1.24551e-08 -3.96778e-08 8.79512e-10)
(-7.53676e-09 -3.45513e-08 8.54125e-10)
(-3.353e-09 -2.65004e-08 7.54879e-10)
(-3.45264e-10 -1.31941e-08 4.99595e-10)
(-1.66456e-07 -4.63027e-07 -1.65153e-07)
(-2.86234e-07 -4.89253e-07 -1.56498e-07)
(-3.27141e-07 -6.50733e-07 -1.49144e-07)
(-3.76403e-07 -4.54002e-07 -9.04133e-08)
(-2.90598e-07 -4.48522e-07 -6.52622e-08)
(-2.83507e-07 -3.09411e-07 -3.81219e-08)
(-2.00863e-07 -2.76739e-07 -2.43192e-08)
(-1.80019e-07 -2.00394e-07 -1.41836e-08)
(-1.26285e-07 -1.72878e-07 -8.05869e-09)
(-1.08551e-07 -1.33223e-07 -4.43986e-09)
(-7.87609e-08 -1.14842e-07 -1.8429e-09)
(-6.79553e-08 -9.42226e-08 -5.22243e-10)
(-5.35773e-08 -8.30606e-08 5.96111e-10)
(-4.87623e-08 -7.24092e-08 1.07252e-09)
(-4.31897e-08 -6.63632e-08 1.50546e-09)
(-4.2058e-08 -6.15309e-08 1.67133e-09)
(-4.06151e-08 -5.91069e-08 1.79702e-09)
(-4.06306e-08 -5.7643e-08 1.78027e-09)
(-3.99379e-08 -5.73495e-08 1.73706e-09)
(-3.92056e-08 -5.75319e-08 1.62422e-09)
(-3.74837e-08 -5.80923e-08 1.51031e-09)
(-3.50992e-08 -5.86415e-08 1.37234e-09)
(-3.17264e-08 -5.89296e-08 1.24296e-09)
(-2.76435e-08 -5.86339e-08 1.11866e-09)
(-2.28565e-08 -5.74539e-08 1.01519e-09)
(-1.77311e-08 -5.50404e-08 9.38828e-10)
(-1.24798e-08 -5.09451e-08 8.85607e-10)
(-7.56422e-09 -4.44768e-08 8.6109e-10)
(-3.36669e-09 -3.4277e-08 7.63687e-10)
(-3.42873e-10 -1.72178e-08 5.11052e-10)
(-6.67491e-08 -3.79889e-07 -6.61573e-08)
(-1.05982e-07 -4.34234e-07 -7.12077e-08)
(-1.50206e-07 -5.39497e-07 -7.01051e-08)
(-1.82212e-07 -4.12391e-07 -4.63132e-08)
(-1.57793e-07 -4.02628e-07 -3.47201e-08)
(-1.63588e-07 -2.99814e-07 -2.18656e-08)
(-1.25946e-07 -2.69547e-07 -1.43891e-08)
(-1.18946e-07 -2.06983e-07 -8.8651e-09)
(-8.92061e-08 -1.80883e-07 -5.05437e-09)
(-8.01704e-08 -1.45499e-07 -2.78429e-09)
(-6.16749e-08 -1.27371e-07 -9.56962e-10)
(-5.5397e-08 -1.07693e-07 2.19352e-12)
(-4.59912e-08 -9.62949e-08 8.76062e-10)
(-4.32528e-08 -8.55149e-08 1.24233e-09)
(-3.97382e-08 -7.91873e-08 1.59865e-09)
(-3.94938e-08 -7.4229e-08 1.73989e-09)
(-3.88391e-08 -7.17377e-08 1.8335e-09)
(-3.91666e-08 -7.02813e-08 1.79689e-09)
(-3.87038e-08 -7.00187e-08 1.72803e-09)
(-3.80012e-08 -7.02507e-08 1.60461e-09)
(-3.63121e-08 -7.08697e-08 1.47933e-09)
(-3.39457e-08 -7.14511e-08 1.33441e-09)
(-3.06405e-08 -7.17033e-08 1.20237e-09)
(-2.66644e-08 -7.12643e-08 1.07794e-09)
(-2.20315e-08 -6.9781e-08 9.76805e-10)
(-1.70851e-08 -6.68521e-08 9.02572e-10)
(-1.20209e-08 -6.19343e-08 8.54132e-10)
(-7.28178e-09 -5.41867e-08 8.34989e-10)
(-3.2339e-09 -4.19093e-08 7.47071e-10)
(-3.24886e-10 -2.11761e-08 5.06196e-10)
(-3.61854e-08 -1.5507e-07 -3.5765e-08)
(-6.48573e-08 -2.30456e-07 -3.94708e-08)
(-1.02689e-07 -3.17095e-07 -3.84503e-08)
(-1.27152e-07 -2.78383e-07 -2.65679e-08)
(-1.18923e-07 -2.90383e-07 -1.99306e-08)
(-1.23758e-07 -2.40167e-07 -1.301e-08)
(-1.01099e-07 -2.27541e-07 -8.49068e-09)
(-9.56964e-08 -1.89081e-07 -5.28827e-09)
(-7.51414e-08 -1.72189e-07 -2.83118e-09)
(-6.78713e-08 -1.46499e-07 -1.4022e-09)
(-5.41609e-08 -1.32302e-07 -1.3432e-10)
(-4.90659e-08 -1.16142e-07 5.3546e-10)
(-4.18872e-08 -1.06154e-07 1.18102e-09)
(-3.97901e-08 -9.64638e-08 1.45111e-09)
(-3.72534e-08 -9.05804e-08 1.72309e-09)
(-3.72341e-08 -8.59448e-08 1.8188e-09)
(-3.68704e-08 -8.35765e-08 1.86054e-09)
(-3.72285e-08 -8.22832e-08 1.79226e-09)
(-3.68136e-08 -8.20982e-08 1.69631e-09)
(-3.60345e-08 -8.23908e-08 1.55489e-09)
(-3.43273e-08 -8.30286e-08 1.41466e-09)
(-3.19713e-08 -8.35964e-08 1.26072e-09)
(-2.87639e-08 -8.37716e-08 1.12629e-09)
(-2.49581e-08 -8.31654e-08 1.00224e-09)
(-2.0572e-08 -8.13778e-08 9.04579e-10)
(-1.59213e-08 -7.79584e-08 8.33376e-10)
(-1.11773e-08 -7.22733e-08 7.90646e-10)
(-6.75382e-09 -6.33369e-08 7.77223e-10)
(-2.98651e-09 -4.9121e-08 7.01809e-10)
(-2.93432e-10 -2.49264e-08 4.81341e-10)
(-1.66316e-08 -1.36617e-07 -1.64725e-08)
(-2.71593e-08 -2.10041e-07 -1.97965e-08)
(-5.15062e-08 -2.73557e-07 -1.96872e-08)
(-6.64952e-08 -2.55532e-07 -1.45453e-08)
(-6.81645e-08 -2.64123e-07 -1.11845e-08)
(-7.43125e-08 -2.30216e-07 -7.74847e-09)
(-6.49938e-08 -2.19342e-07 -5.1386e-09)
(-6.41482e-08 -1.89809e-07 -3.30046e-09)
(-5.33239e-08 -1.74885e-07 -1.6941e-09)
(-5.00165e-08 -1.53346e-07 -7.37689e-10)
(-4.19849e-08 -1.40338e-07 1.99763e-10)
(-3.93631e-08 -1.259e-07 7.25998e-10)
(-3.50694e-08 -1.16407e-07 1.2334e-09)
(-3.43043e-08 -1.0737e-07 1.47876e-09)
(-3.30891e-08 -1.01702e-07 1.71534e-09)
(-3.35938e-08 -9.72626e-08 1.79615e-09)
(-3.36742e-08 -9.48709e-08 1.80728e-09)
(-3.41611e-08 -9.36177e-08 1.7218e-09)
(-3.38787e-08 -9.34244e-08 1.61522e-09)
(-3.31097e-08 -9.3709e-08 1.45611e-09)
(-3.14443e-08 -9.42752e-08 1.30701e-09)
(-2.91657e-08 -9.4744e-08 1.14858e-09)
(-2.61287e-08 -9.47787e-08 1.01633e-09)
(-2.25768e-08 -9.39688e-08 8.97368e-10)
(-1.85339e-08 -9.18759e-08 8.0739e-10)
(-1.42882e-08 -8.80059e-08 7.43374e-10)
(-9.98706e-09 -8.16399e-08 7.11013e-10)
(-6.00586e-09 -7.16463e-08 7.05831e-10)
(-2.6395e-09 -5.56916e-08 6.47491e-10)
(-2.5293e-10 -2.83536e-08 4.48373e-10)
(-8.75292e-09 -7.77951e-08 -8.66941e-09)
(-1.69066e-08 -1.4359e-07 -1.06148e-08)
(-3.49148e-08 -1.96527e-07 -1.05365e-08)
(-4.62428e-08 -2.0096e-07 -8.06117e-09)
(-5.02647e-08 -2.14984e-07 -6.17766e-09)
(-5.5257e-08 -2.00137e-07 -4.38966e-09)
(-5.06994e-08 -1.96476e-07 -2.82995e-09)
(-5.04597e-08 -1.78587e-07 -1.77829e-09)
(-4.36611e-08 -1.68833e-07 -7.4806e-10)
(-4.13802e-08 -1.53395e-07 -1.31275e-10)
(-3.58902e-08 -1.43343e-07 5.37806e-10)
(-3.39875e-08 -1.31773e-07 9.15174e-10)
(-3.09996e-08 -1.23759e-07 1.28795e-09)
(-3.06168e-08 -1.16111e-07 1.49244e-09)
(-2.99038e-08 -1.11124e-07 1.67791e-09)
(-3.04276e-08 -1.0719e-07 1.73127e-09)
(-3.05609e-08 -1.0495e-07 1.71228e-09)
(-3.08814e-08 -1.0376e-07 1.59768e-09)
(-3.05353e-08 -1.03567e-07 1.48053e-09)
(-2.96796e-08 -1.03802e-07 1.30687e-09)
(-2.80002e-08 -1.04253e-07 1.15784e-09)
(-2.57915e-08 -1.04571e-07 1.00206e-09)
(-2.29503e-08 -1.0443e-07 8.78962e-10)
(-1.97062e-08 -1.03402e-07 7.71075e-10)
(-1.60828e-08 -1.01012e-07 6.90237e-10)
(-1.23312e-08 -9.67271e-08 6.30792e-10)
(-8.5636e-09 -8.97538e-08 5.99215e-10)
(-5.10994e-09 -7.88379e-08 5.9382e-10)
(-2.21868e-09 -6.13823e-08 5.51574e-10)
(-2.00698e-10 -3.13321e-08 3.93366e-10)
(-4.52491e-09 -7.35268e-08 -4.50556e-09)
(-8.11092e-09 -1.35066e-07 -5.84777e-09)
(-1.91868e-08 -1.78527e-07 -5.89215e-09)
(-2.63681e-08 -1.88422e-07 -4.73459e-09)
(-3.09679e-08 -2.00629e-07 -3.68105e-09)
(-3.54353e-08 -1.92485e-07 -2.71692e-09)
(-3.45352e-08 -1.89954e-07 -1.75858e-09)
(-3.56275e-08 -1.77026e-07 -1.1184e-09)
(-3.24772e-08 -1.68964e-07 -4.20276e-10)
(-3.17827e-08 -1.5656e-07 1.30646e-11)
(-2.87455e-08 -1.47782e-07 5.09864e-10)
(-2.79017e-08 -1.37886e-07 8.05717e-10)
(-2.62944e-08 -1.30836e-07 1.12365e-09)
(-2.63884e-08 -1.242e-07 1.31786e-09)
(-2.61418e-08 -1.19687e-07 1.48109e-09)
(-2.66865e-08 -1.16083e-07 1.52481e-09)
(-2.68379e-08 -1.1389e-07 1.50435e-09)
(-2.69763e-08 -1.12658e-07 1.39157e-09)
(-2.65312e-08 -1.12398e-07 1.28614e-09)
(-2.55998e-08 -1.12466e-07 1.11113e-09)
(-2.39515e-08 -1.12721e-07 9.69214e-10)
(-2.18653e-08 -1.12823e-07 8.2205e-10)
(-1.92737e-08 -1.12463e-07 7.076e-10)
(-1.63919e-08 -1.11195e-07 6.07584e-10)
(-1.32456e-08 -1.08523e-07 5.36704e-10)
(-1.00498e-08 -1.03876e-07 4.88608e-10)
(-6.89713e-09 -9.63951e-08 4.71851e-10)
(-4.06452e-09 -8.47282e-08 4.81122e-10)
(-1.73887e-09 -6.60562e-08 4.60392e-10)
(-1.47984e-10 -3.37929e-08 3.39358e-10)
(-2.33878e-09 -5.57626e-08 -2.36379e-09)
(-5.3724e-09 -1.11114e-07 -3.14152e-09)
(-1.34754e-08 -1.49171e-07 -3.17209e-09)
(-1.91381e-08 -1.64387e-07 -2.61745e-09)
(-2.35718e-08 -1.777e-07 -2.04074e-09)
(-2.73761e-08 -1.76524e-07 -1.54004e-09)
(-2.78692e-08 -1.76991e-07 -9.70197e-10)
(-2.91503e-08 -1.69507e-07 -5.95167e-10)
(-2.75773e-08 -1.64261e-07 -1.33749e-10)
(-2.72766e-08 -1.55343e-07 1.32163e-10)
(-2.5328e-08 -1.48547e-07 4.60785e-10)
(-2.47863e-08 -1.40872e-07 6.77094e-10)
(-2.36458e-08 -1.35233e-07 9.29799e-10)
(-2.35777e-08 -1.29793e-07 1.07294e-09)
(-2.32474e-08 -1.25943e-07 1.18966e-09)
(-2.34026e-08 -1.22781e-07 1.19761e-09)
(-2.32517e-08 -1.20762e-07 1.16882e-09)
(-2.3019e-08 -1.19556e-07 1.06056e-09)
(-2.22884e-08 -1.19198e-07 9.5863e-10)
(-2.11628e-08 -1.19083e-07 8.09569e-10)
(-1.94982e-08 -1.19201e-07 6.98777e-10)
(-1.75391e-08 -1.19151e-07 5.84393e-10)
(-1.52347e-08 -1.18605e-07 4.99804e-10)
(-1.27753e-08 -1.17121e-07 4.2249e-10)
(-1.01799e-08 -1.14215e-07 3.71623e-10)
(-7.61475e-09 -1.09296e-07 3.40148e-10)
(-5.13739e-09 -1.01463e-07 3.37093e-10)
(-2.95884e-09 -8.92626e-08 3.55117e-10)
(-1.21831e-09 -6.96811e-08 3.51939e-10)
(-8.68428e-11 -3.57111e-08 2.69655e-10)
(-1.35949e-09 -5.42201e-08 -1.37585e-09)
(-3.24227e-09 -1.0638e-07 -1.90787e-09)
(-8.66317e-09 -1.40147e-07 -1.97944e-09)
(-1.27555e-08 -1.56181e-07 -1.73766e-09)
(-1.66816e-08 -1.68353e-07 -1.41687e-09)
(-2.00718e-08 -1.69783e-07 -1.13233e-09)
(-2.15784e-08 -1.70919e-07 -7.64884e-10)
(-2.32834e-08 -1.65992e-07 -5.19129e-10)
(-2.30523e-08 -1.6192e-07 -1.92039e-10)
(-2.32926e-08 -1.54907e-07 -1.96411e-11)
(-2.22935e-08 -1.49285e-07 2.16361e-10)
(-2.20123e-08 -1.43071e-07 3.87171e-10)
(-2.11656e-08 -1.38332e-07 5.73375e-10)
(-2.09107e-08 -1.33719e-07 6.82113e-10)
(-2.03668e-08 -1.30305e-07 7.63754e-10)
(-2.00311e-08 -1.27383e-07 7.48247e-10)
(-1.94395e-08 -1.25455e-07 7.24436e-10)
(-1.87359e-08 -1.24218e-07 6.34565e-10)
(-1.76608e-08 -1.23696e-07 5.50182e-10)
(-1.63734e-08 -1.23385e-07 4.31939e-10)
(-1.47329e-08 -1.23342e-07 3.54383e-10)
(-1.29287e-08 -1.23156e-07 2.86656e-10)
(-1.09421e-08 -1.22519e-07 2.48053e-10)
(-8.93489e-09 -1.20983e-07 2.17484e-10)
(-6.90784e-09 -1.18004e-07 2.0547e-10)
(-4.99209e-09 -1.12931e-07 1.97297e-10)
(-3.22492e-09 -1.04855e-07 2.09229e-10)
(-1.75343e-09 -9.22865e-08 2.33855e-10)
(-6.55649e-10 -7.20959e-08 2.4601e-10)
(-2.17021e-11 -3.6992e-08 1.99463e-10)
(-7.58086e-10 -4.76388e-08 -7.72501e-10)
(-2.67357e-09 -9.58918e-08 -1.10383e-09)
(-7.04747e-09 -1.26749e-07 -1.16259e-09)
(-1.07114e-08 -1.43594e-07 -1.06402e-09)
(-1.44022e-08 -1.55618e-07 -8.95851e-10)
(-1.75671e-08 -1.5935e-07 -7.60567e-10)
(-1.94809e-08 -1.61527e-07 -5.65103e-10)
(-2.12178e-08 -1.58848e-07 -4.63291e-10)
(-2.15867e-08 -1.5614e-07 -2.85831e-10)
(-2.20267e-08 -1.51123e-07 -1.85539e-10)
(-2.14474e-08 -1.46851e-07 -4.26482e-11)
(-2.10552e-08 -1.42001e-07 3.28909e-11)
(-2.00651e-08 -1.38118e-07 1.16201e-10)
(-1.92829e-08 -1.34339e-07 1.73705e-10)
(-1.81712e-08 -1.31511e-07 2.25864e-10)
(-1.71353e-08 -1.2901e-07 2.10129e-10)
(-1.59096e-08 -1.2733e-07 2.05086e-10)
(-1.45807e-08 -1.26216e-07 1.64422e-10)
(-1.3043e-08 -1.25714e-07 1.26628e-10)
(-1.14615e-08 -1.25349e-07 7.15721e-11)
(-9.76292e-09 -1.25192e-07 4.68559e-11)
(-8.11946e-09 -1.24899e-07 1.9423e-11)
(-6.49265e-09 -1.24215e-07 1.16142e-11)
(-4.98346e-09 -1.2269e-07 5.70969e-12)
(-3.56851e-09 -1.19726e-07 1.58088e-11)
(-2.3305e-09 -1.14623e-07 2.72473e-11)
(-1.28841e-09 -1.06462e-07 5.26319e-11)
(-5.31702e-10 -9.37418e-08 8.47922e-11)
(-7.88965e-11 -7.32681e-08 1.19875e-10)
(5.22999e-11 -3.76184e-08 1.23259e-10)
(-5.47423e-10 -4.60499e-08 -5.48382e-10)
(-2.30865e-09 -9.16657e-08 -8.21713e-10)
(-5.87463e-09 -1.20047e-07 -8.93974e-10)
(-9.16637e-09 -1.36433e-07 -8.5894e-10)
(-1.26558e-08 -1.47608e-07 -7.7527e-10)
(-1.57367e-08 -1.52101e-07 -7.17067e-10)
(-1.80298e-08 -1.54477e-07 -6.12549e-10)
(-1.99956e-08 -1.52921e-07 -5.64219e-10)
(-2.08759e-08 -1.508e-07 -4.85236e-10)
(-2.14518e-08 -1.4678e-07 -4.74324e-10)
(-2.10502e-08 -1.43119e-07 -4.37096e-10)
(-2.04902e-08 -1.39028e-07 -4.36709e-10)
(-1.92882e-08 -1.35634e-07 -4.10593e-10)
(-1.80123e-08 -1.32397e-07 -3.86004e-10)
(-1.63065e-08 -1.29916e-07 -3.59323e-10)
(-1.44911e-08 -1.2771e-07 -3.65397e-10)
(-1.25205e-08 -1.26274e-07 -3.4483e-10)
(-1.0496e-08 -1.25336e-07 -3.37974e-10)
(-8.47656e-09 -1.24921e-07 -3.28051e-10)
(-6.62261e-09 -1.2466e-07 -3.13163e-10)
(-4.85435e-09 -1.24607e-07 -2.72492e-10)
(-3.31603e-09 -1.24402e-07 -2.37597e-10)
(-1.98549e-09 -1.23807e-07 -2.04347e-10)
(-9.43725e-10 -1.22352e-07 -1.8815e-10)
(-1.52263e-10 -1.19447e-07 -1.58428e-10)
(3.82241e-10 -1.14397e-07 -1.30967e-10)
(6.75018e-10 -1.06281e-07 -9.20689e-11)
(7.00906e-10 -9.36065e-08 -5.15292e-11)
(4.99154e-10 -7.31834e-08 5.85515e-12)
(1.23756e-10 -3.7585e-08 5.42562e-11)
(-4.03687e-10 -4.23352e-08 -3.86773e-10)
(-2.39099e-09 -8.48813e-08 -6.18756e-10)
(-5.77747e-09 -1.11136e-07 -7.06009e-10)
(-9.14446e-09 -1.26991e-07 -7.1516e-10)
(-1.26958e-08 -1.37613e-07 -6.93679e-10)
(-1.58786e-08 -1.42706e-07 -6.92883e-10)
(-1.8433e-08 -1.45414e-07 -6.67761e-10)
(-2.04941e-08 -1.44822e-07 -6.88315e-10)
(-2.16077e-08 -1.43277e-07 -6.99277e-10)
(-2.22091e-08 -1.40019e-07 -7.43246e-10)
(-2.18155e-08 -1.3679e-07 -7.80433e-10)
(-2.09411e-08 -1.33256e-07 -8.56505e-10)
(-1.93136e-08 -1.30292e-07 -9.03338e-10)
(-1.73265e-08 -1.27513e-07 -9.35561e-10)
(-1.48181e-08 -1.25325e-07 -9.32142e-10)
(-1.21373e-08 -1.23384e-07 -9.27552e-10)
(-9.36565e-09 -1.22202e-07 -8.93369e-10)
(-6.61995e-09 -1.21545e-07 -8.39664e-10)
(-4.08858e-09 -1.21339e-07 -7.82659e-10)
(-1.91742e-09 -1.21336e-07 -7.01912e-10)
(-5.00255e-11 -1.21571e-07 -6.13791e-10)
(1.34265e-09 -1.21649e-07 -5.32401e-10)
(2.32134e-09 -1.21229e-07 -4.52672e-10)
(2.90668e-09 -1.19882e-07 -3.91672e-10)
(3.13187e-09 -1.1711e-07 -3.29926e-10)
(3.02505e-09 -1.12237e-07 -2.79215e-10)
(2.61119e-09 -1.0434e-07 -2.2407e-10)
(1.92404e-09 -9.19386e-08 -1.78647e-10)
(1.08133e-09 -7.18906e-08 -1.07018e-10)
(1.99721e-10 -3.68941e-08 -2.12861e-11)
(-3.86687e-10 -4.00332e-08 -3.60267e-10)
(-2.55291e-09 -7.97848e-08 -5.87307e-10)
(-5.89036e-09 -1.03996e-07 -6.84712e-10)
(-9.37408e-09 -1.1888e-07 -7.10718e-10)
(-1.3031e-08 -1.28652e-07 -7.25091e-10)
(-1.63509e-08 -1.33672e-07 -7.59814e-10)
(-1.91431e-08 -1.36233e-07 -7.88355e-10)
(-2.13646e-08 -1.35973e-07 -8.57515e-10)
(-2.26842e-08 -1.34601e-07 -9.32921e-10)
(-2.32823e-08 -1.31756e-07 -1.02652e-09)
(-2.28096e-08 -1.28675e-07 -1.11195e-09)
(-2.15741e-08 -1.2531e-07 -1.21504e-09)
(-1.94706e-08 -1.22447e-07 -1.30707e-09)
(-1.68223e-08 -1.19867e-07 -1.38141e-09)
(-1.3578e-08 -1.17905e-07 -1.40889e-09)
(-1.00686e-08 -1.16261e-07 -1.40171e-09)
(-6.49947e-09 -1.15365e-07 -1.35388e-09)
(-3.0576e-09 -1.15071e-07 -1.27626e-09)
(-8.30217e-12 -1.15186e-07 -1.1829e-09)
(2.4996e-09 -1.15575e-07 -1.05764e-09)
(4.46926e-09 -1.162e-07 -9.35576e-10)
(5.78055e-09 -1.16652e-07 -8.19637e-10)
(6.49341e-09 -1.16534e-07 -7.04411e-10)
(6.65392e-09 -1.15432e-07 -6.01978e-10)
(6.31408e-09 -1.12893e-07 -5.07774e-10)
(5.54327e-09 -1.08287e-07 -4.32862e-10)
(4.42549e-09 -1.00704e-07 -3.5463e-10)
(3.07272e-09 -8.87355e-08 -2.95168e-10)
(1.62962e-09 -6.93682e-08 -2.02106e-10)
(2.68184e-10 -3.55349e-08 -8.25121e-11)
(-3.74706e-10 -3.66494e-08 -3.36803e-10)
(-2.82695e-09 -7.32333e-08 -5.64322e-10)
(-6.32082e-09 -9.54183e-08 -6.77078e-10)
(-1.00679e-08 -1.09268e-07 -7.23591e-10)
(-1.3951e-08 -1.18273e-07 -7.69874e-10)
(-1.74948e-08 -1.23109e-07 -8.35369e-10)
(-2.05073e-08 -1.25482e-07 -9.07035e-10)
(-2.2836e-08 -1.25373e-07 -1.00681e-09)
(-2.4235e-08 -1.24076e-07 -1.11387e-09)
(-2.47541e-08 -1.21535e-07 -1.24128e-09)
(-2.41428e-08 -1.18652e-07 -1.37346e-09)
(-2.25507e-08 -1.15446e-07 -1.51179e-09)
(-1.99125e-08 -1.12609e-07 -1.63249e-09)
(-1.65591e-08 -1.10155e-07 -1.73861e-09)
(-1.25745e-08 -1.08376e-07 -1.79606e-09)
(-8.30157e-09 -1.07016e-07 -1.79238e-09)
(-4.01576e-09 -1.06413e-07 -1.73347e-09)
(7.41827e-11 -1.06483e-07 -1.62927e-09)
(3.62903e-09 -1.06986e-07 -1.50572e-09)
(6.45038e-09 -1.07792e-07 -1.36333e-09)
(8.51922e-09 -1.08747e-07 -1.20704e-09)
(9.78944e-09 -1.09502e-07 -1.05422e-09)
(1.0292e-08 -1.09699e-07 -9.18152e-10)
(1.00874e-08 -1.08926e-07 -8.02674e-10)
(9.25769e-09 -1.06736e-07 -6.9761e-10)
(7.91463e-09 -1.02555e-07 -6.09005e-10)
(6.16261e-09 -9.55107e-08 -5.17521e-10)
(4.15311e-09 -8.42174e-08 -4.43513e-10)
(2.11768e-09 -6.58055e-08 -3.30988e-10)
(3.19982e-10 -3.36089e-08 -1.58018e-10)
(-3.96555e-10 -3.35246e-08 -3.65627e-10)
(-3.09491e-09 -6.68689e-08 -6.17354e-10)
(-6.79448e-09 -8.69505e-08 -7.41809e-10)
(-1.08188e-08 -9.95484e-08 -8.01247e-10)
(-1.49409e-08 -1.07638e-07 -8.6569e-10)
(-1.87016e-08 -1.12045e-07 -9.46692e-10)
(-2.18984e-08 -1.14086e-07 -1.03576e-09)
(-2.43201e-08 -1.13933e-07 -1.15093e-09)
(-2.57511e-08 -1.12574e-07 -1.28202e-09)
(-2.61543e-08 -1.10128e-07 -1.43581e-09)
(-2.53507e-08 -1.07327e-07 -1.59747e-09)
(-2.34189e-08 -1.04261e-07 -1.75584e-09)
(-2.03201e-08 -1.01438e-07 -1.88565e-09)
(-1.63442e-08 -9.89956e-08 -1.99862e-09)
(-1.17095e-08 -9.72936e-08 -2.07498e-09)
(-6.78415e-09 -9.61667e-08 -2.07829e-09)
(-1.87084e-09 -9.5851e-08 -2.01596e-09)
(2.76474e-09 -9.62859e-08 -1.90457e-09)
(6.75519e-09 -9.71649e-08 -1.75852e-09)
(9.89808e-09 -9.83208e-08 -1.58997e-09)
(1.21156e-08 -9.95719e-08 -1.4084e-09)
(1.33731e-08 -1.0062e-07 -1.23653e-09)
(1.37072e-08 -1.0113e-07 -1.07905e-09)
(1.31962e-08 -1.00694e-07 -9.4211e-10)
(1.19316e-08 -9.88649e-08 -8.20094e-10)
(1.00576e-08 -9.51171e-08 -7.24792e-10)
(7.72722e-09 -8.86795e-08 -6.36872e-10)
(5.14559e-09 -7.82304e-08 -5.58265e-10)
(2.58263e-09 -6.10902e-08 -4.31763e-10)
(3.72683e-10 -3.1107e-08 -2.19809e-10)
(-4.10446e-10 -2.97645e-08 -3.86204e-10)
(-3.36126e-09 -5.95152e-08 -6.58203e-10)
(-7.30615e-09 -7.74028e-08 -7.92441e-10)
(-1.16109e-08 -8.86773e-08 -8.55754e-10)
(-1.59814e-08 -9.58622e-08 -9.26423e-10)
(-1.99639e-08 -9.98037e-08 -1.01522e-09)
(-2.33271e-08 -1.01534e-07 -1.12198e-09)
(-2.58168e-08 -1.01321e-07 -1.25313e-09)
(-2.72356e-08 -9.99305e-08 -1.39978e-09)
(-2.74947e-08 -9.75733e-08 -1.56424e-09)
(-2.64708e-08 -9.48575e-08 -1.73369e-09)
(-2.42059e-08 -9.1972e-08 -1.90013e-09)
(-2.06976e-08 -8.93001e-08 -2.03965e-09)
(-1.62053e-08 -8.69598e-08 -2.14662e-09)
(-1.10235e-08 -8.53219e-08 -2.21462e-09)
(-5.55157e-09 -8.439e-08 -2.20949e-09)
(-9.96465e-11 -8.43097e-08 -2.152e-09)
(5.00466e-09 -8.49899e-08 -2.05031e-09)
(9.37587e-09 -8.6114e-08 -1.90615e-09)
(1.27927e-08 -8.75184e-08 -1.73922e-09)
(1.51562e-08 -8.9029e-08 -1.5581e-09)
(1.64351e-08 -9.03398e-08 -1.38305e-09)
(1.6651e-08 -9.1122e-08 -1.21625e-09)
(1.58896e-08 -9.09875e-08 -1.06942e-09)
(1.426e-08 -8.95175e-08 -9.38834e-10)
(1.19344e-08 -8.621e-08 -8.35607e-10)
(9.08863e-09 -8.03811e-08 -7.46602e-10)
(5.98683e-09 -7.08844e-08 -6.68689e-10)
(2.95768e-09 -5.53251e-08 -5.29337e-10)
(4.08192e-10 -2.81191e-08 -2.79356e-10)
(-4.32183e-10 -2.59422e-08 -4.11618e-10)
(-3.57828e-09 -5.18825e-08 -6.96183e-10)
(-7.73579e-09 -6.74965e-08 -8.38065e-10)
(-1.22766e-08 -7.73607e-08 -9.09544e-10)
(-1.68595e-08 -8.3593e-08 -9.91791e-10)
(-2.10245e-08 -8.69938e-08 -1.0901e-09)
(-2.45191e-08 -8.83854e-08 -1.20816e-09)
(-2.70568e-08 -8.8075e-08 -1.34707e-09)
(-2.84437e-08 -8.66709e-08 -1.50077e-09)
(-2.85584e-08 -8.44207e-08 -1.66669e-09)
(-2.73124e-08 -8.18293e-08 -1.83247e-09)
(-2.47373e-08 -7.91184e-08 -1.99104e-09)
(-2.08915e-08 -7.66182e-08 -2.13071e-09)
(-1.60048e-08 -7.4465e-08 -2.22919e-09)
(-1.03929e-08 -7.2962e-08 -2.28748e-09)
(-4.49456e-09 -7.22164e-08 -2.28343e-09)
(1.37333e-09 -7.2312e-08 -2.23504e-09)
(6.82919e-09 -7.31214e-08 -2.1395e-09)
(1.15048e-08 -7.43721e-08 -2.00041e-09)
(1.51645e-08 -7.59062e-08 -1.84174e-09)
(1.76706e-08 -7.75488e-08 -1.66611e-09)
(1.89788e-08 -7.90041e-08 -1.49202e-09)
(1.91003e-08 -7.99642e-08 -1.32278e-09)
(1.81271e-08 -8.00702e-08 -1.17122e-09)
(1.61805e-08 -7.89392e-08 -1.03418e-09)
(1.34681e-08 -7.61141e-08 -9.22928e-10)
(1.01957e-08 -7.09783e-08 -8.28286e-10)
(6.67364e-09 -6.25449e-08 -7.50185e-10)
(3.26311e-09 -4.87557e-08 -6.03852e-10)
(4.36809e-10 -2.47273e-08 -3.24611e-10)
(-4.43577e-10 -2.17879e-08 -4.25043e-10)
(-3.72277e-09 -4.37067e-08 -7.20664e-10)
(-8.02346e-09 -5.6968e-08 -8.68134e-10)
(-1.27372e-08 -6.53636e-08 -9.42945e-10)
(-1.74822e-08 -7.0623e-08 -1.03143e-09)
(-2.17903e-08 -7.34673e-08 -1.13462e-09)
(-2.53838e-08 -7.455e-08 -1.25859e-09)
(-2.79525e-08 -7.41762e-08 -1.40055e-09)
(-2.93022e-08 -7.28327e-08 -1.55617e-09)
(-2.92938e-08 -7.07702e-08 -1.71842e-09)
(-2.78603e-08 -6.84054e-08 -1.87735e-09)
(-2.50269e-08 -6.59515e-08 -2.02884e-09)
(-2.0907e-08 -6.36956e-08 -2.16118e-09)
(-1.57464e-08 -6.18025e-08 -2.25059e-09)
(-9.83463e-09 -6.05121e-08 -2.30006e-09)
(-3.61737e-09 -5.99239e-08 -2.29992e-09)
(2.53583e-09 -6.01033e-08 -2.26053e-09)
(8.24828e-09 -6.09409e-08 -2.17088e-09)
(1.31599e-08 -6.2213e-08 -2.04211e-09)
(1.70012e-08 -6.37572e-08 -1.896e-09)
(1.96095e-08 -6.54051e-08 -1.73095e-09)
(2.09348e-08 -6.68899e-08 -1.56265e-09)
(2.09751e-08 -6.79326e-08 -1.39533e-09)
(1.98281e-08 -6.82112e-08 -1.24299e-09)
(1.76255e-08 -6.73866e-08 -1.10355e-09)
(1.46043e-08 -6.50542e-08 -9.88648e-10)
(1.09988e-08 -6.06781e-08 -8.86464e-10)
(7.16343e-09 -5.34154e-08 -8.03687e-10)
(3.47993e-09 -4.15555e-08 -6.50993e-10)
(4.59202e-10 -2.10201e-08 -3.55038e-10)
(-4.51396e-10 -1.75953e-08 -4.29339e-10)
(-3.7701e-09 -3.54332e-08 -7.29403e-10)
(-8.10883e-09 -4.62911e-08 -8.83062e-10)
(-1.28953e-08 -5.3176e-08 -9.59704e-10)
(-1.77174e-08 -5.74502e-08 -1.05226e-09)
(-2.21035e-08 -5.97232e-08 -1.15717e-09)
(-2.57535e-08 -6.05119e-08 -1.28443e-09)
(-2.83368e-08 -6.00952e-08 -1.42738e-09)
(-2.96537e-08 -5.88622e-08 -1.58277e-09)
(-2.95528e-08 -5.70447e-08 -1.74111e-09)
(-2.7976e-08 -5.49793e-08 -1.8946e-09)
(-2.4962e-08 -5.28466e-08 -2.03939e-09)
(-2.06694e-08 -5.09152e-08 -2.16053e-09)
(-1.53426e-08 -4.93372e-08 -2.24082e-09)
(-9.25553e-09 -4.82892e-08 -2.28308e-09)
(-2.84612e-09 -4.78235e-08 -2.28454e-09)
(3.462e-09 -4.80138e-08 -2.24703e-09)
(9.31173e-09 -4.87887e-08 -2.16507e-09)
(1.43449e-08 -4.99761e-08 -2.04679e-09)
(1.82904e-08 -5.14223e-08 -1.90957e-09)
(2.0954e-08 -5.29579e-08 -1.75423e-09)
(2.22685e-08 -5.43621e-08 -1.5915e-09)
(2.22276e-08 -5.5395e-08 -1.42765e-09)
(2.09344e-08 -5.57796e-08 -1.27616e-09)
(1.85325e-08 -5.52252e-08 -1.13632e-09)
(1.52858e-08 -5.33864e-08 -1.02015e-09)
(1.14541e-08 -4.98125e-08 -9.14493e-10)
(7.42106e-09 -4.38032e-08 -8.26643e-10)
(3.58302e-09 -3.39869e-08 -6.70214e-10)
(4.66449e-10 -1.71309e-08 -3.69622e-10)
(-4.40436e-10 -1.33557e-08 -4.15577e-10)
(-3.68712e-09 -2.71231e-08 -7.09215e-10)
(-7.94195e-09 -3.55778e-08 -8.60038e-10)
(-1.26758e-08 -4.09414e-08 -9.32583e-10)
(-1.74685e-08 -4.42301e-08 -1.02469e-09)