/*--------------------------------*- C++ -*----------------------------------*\
| =========                 |                                                 |
| \\      /  F ield         | OpenFOAM: The Open Source CFD Toolbox           |
|  \\    /   O peration     | Version:  v1912                                 |
|   \\  /    A nd           | Website:  www.openfoam.com                      |
|    \\/     M anipulation  |                                                 |
\*---------------------------------------------------------------------------*/
FoamFile
{
    version     2.0;
    format      ascii;
    class       volScalarField;
    location    "104/oil";
    object      wallHeatFlux;
}
// * * * * * * * * * * * * * * * * * * * * * * * * * * * * * * * * * * * * * //

dimensions      [1 0 -3 0 0 0 0];


internalField   uniform 0;

boundaryField
{
    maxY
    {
        type            calculated;
        value           uniform 0;
    }
    minX
    {
        type            calculated;
        value           uniform 0;
    }
    maxX
    {
        type            calculated;
        value           uniform 0;
    }
    minY
    {
        type            calculated;
        value           uniform 0;
    }
    minZ
    {
        type            calculated;
        value           uniform 0;
    }
    maxZ
    {
        type            calculated;
        value           uniform 0;
    }
    oil_to_sphere
    {
        type            calculated;
        value           nonuniform List<scalar> 
1536
(
8048.91
8411.91
7861.67
7760.39
6783.21
6974.87
6886.79
5387.07
5186.39
8711.01
6730.61
8791.93
8921.25
8786.45
7712.44
6728.86
5447.76
5218.85
1733.68
8906.98
8706.88
7032.7
6929.08
6774.03
7103.8
7100.32
7100.51
6795.42
8444.28
8346.75
7852.59
6410.78
5930.11
7132.27
6746.1
6709.33
6461.67
7387.56
7018.55
7368.47
7019.93
6708.96
8255.11
8809.6
8379.88
8748.98
6959.45
6965.56
7613.05
7091.87
7007.65
7010.14
6884.55
6971.93
6138.02
5827.82
6951.6
6929.85
5244.14
3801.11
4126.9
3751.34
4055.26
8892.51
8939.62
8779.1
8419.77
8763.31
8045.16
8350.6
7147.88
6967.6
7843.35
7040.32
6749.17
5920.65
5755.11
5617.25
6738.39
5224.35
3740.86
4062.57
3366.13
3328.77
4290.11
4118.43
3430.84
5420.69
5207.11
3787.47
4088.02
1727.93
1734.49
8928.76
8947.36
8813.22
8509.63
8629.27
8782.69
8002.26
8447.36
7122.41
8008.57
7855.02
7010.83
7039.53
6788.29
5645.73
6679.45
5954.01
5735.78
5908.25
3791.97
4142.79
3397.81
3453.17
3388.22
4264.12
4118.34
4326.52
5230.48
4094.8
1738.08
8776.54
8011.56
8353.38
8053.17
8314.98
6999.44
7025.35
7070.22
6995.55
7006.66
6956.56
7054.33
7101.12
6962.68
5833.48
6884.14
6860.31
3803.87
4112.72
5427.7
5238.06
4063.78
5173.31
7629.22
7625.24
6878.65
7157.81
7831.31
7625.67
6945.93
7049.58
7031.41
6477.5
6127.04
6217.06
7648.83
7534.69
7673.91
8290.68
7308.54
7066.97
6719.62
6476.31
6984.66
6597.25
6151.75
6237.87
8234.9
7435.44
8392.33
7326.88
6352.02
5741.47
7654.55
7754
8091.94
7577.91
7299.01
7050.71
6482.4
7040.33
6375.57
6218.85
6278.8
8576.91
7549.09
7839.21
8200.46
7681.95
8113.74
7816.92
6350.03
6471.12
6531.54
6579.32
6312.5
6446.96
6568.22
6756.99
5216.23
5093.21
4976.17
5304.05
5460.26
5400.63
5624.21
5599.1
5115.29
4873.07
4734.72
8567.86
9092.46
8942.35
8630.4
8602.28
8661.49
8606.42
8532.32
8823.56
8387.27
8567.34
8595.13
7683.9
7690.93
8394.53
7993.02
7206.43
6516.5
6407.01
6970.21
6394.24
5138.48
5262.01
5018.02
5324.54
5434.42
5040.2
4847.96
3148.6
2871.84
8828.93
8615.65
8740.09
8579.74
8768.36
9126.84
8799.77
8566.8
7542.91
7085.68
7548.77
7637.5
6416.35
6759.21
5152.79
4900.83
5494.82
5795.41
5619.57
4774.08
2847.95
3105.97
2312.22
2316.38
3118.46
8700.29
8540.1
8498.92
8387.91
8567.05
8627.64
8480.26
8729.71
9219.94
8887.94
8546.79
8119.99
7644.32
7678.45
7935.75
8460.96
8019.33
7655.33
7642.02
6482.32
6528.77
6749.66
6806.87
6572.26
6742.48
5013.6
4886.91
5081.98
5362.09
5258.38
5437.58
5445.92
5432.69
4987.98
4813.82
5326.78
5100.08
7155.72
6879.05
6962.83
6471.78
6344.1
6227.49
6076.05
8254.38
7972.81
8379.13
8172.51
7959.13
8253.37
8304.57
8446.55
8682.16
8314.54
8378.32
8263.55
9059.54
8705.36
8580.06
8372
8664.67
8865.47
8611.1
8107.35
8174.79
8370.81
7946.02
8334.87
8453.73
8657.28
8614.93
8802.58
8718.81
8650.39
8467.44
8461.81
8404.7
8497.41
8246.09
8283.24
8003.79
8222.62
7886.81
7997.5
8438.36
7619.15
8279.76
7702.2
7787.57
7556.24
7206.54
8228.51
7645.97
7636.21
7916.4
7226.02
7454.9
7672.19
7145.03
7354.28
7001.14
7718.82
8245.01
7669.96
7726.79
7800.06
7296.14
7492.29
7438.48
6497.36
6645.61
6464.5
6162.18
6000.33
6183.11
5843.88
5696.91
6532.94
6649.48
6512.42
6227.17
6049.28
6318.16
5825.04
5701.09
5574.89
6467.38
5685.47
6204.29
6069.23
6230.94
5807.86
6518.88
6697.1
6509.92
6673.41
5750.77
5593.96
6220.19
6069.45
6277.9
5769.01
5652.21
5360.76
5231.43
5344.98
5220.32
4997.87
5007.52
4835.48
5173.3
4908.41
5498.36
4786.82
4868.33
4722.45
4530.81
4784.76
4690.42
4394.02
4294.84
3998.23
5279.4
5142.8
4991.81
5317.85
4880.33
5006.2
4397.48
4256.74
4197.93
4000.83
4731.32
4562.12
4795.55
4697.53
4645.28
5344.65
5215.1
5402.99
5405
5009.14
4815.34
5248.32
5074.16
9762.65
9393.31
9059.83
9667.7
9055.57
9152.54
9390.57
8834.05
8933.73
9075.91
9037.35
8559.79
8860.76
8467.68
8423.12
8368.76
8334.52
8507.03
8460.67
8654.59
8836.3
8165.67
8703.91
8263.02
8493.55
8288.36
8734.07
8389.96
8701.48
8537.39
8761.72
8569.4
8191.45
8430.77
8010.52
8623.32
7573.77
7856.97
7707.12
7022.77
7331.66
7325.38
7720.14
7012.57
7611.16
6994.89
7329.7
7062.57
6797.55
6972.15
6507.47
6411.99
6080.96
6245.65
6161.01
6005.83
5751.43
6400.02
5702.95
6719.75
6457.72
6130.85
4884.6
4702.79
4562.25
4831.5
4720.54
5129.37
4882.53
5496.37
4757.79
4373
4338.22
4034.72
3599.35
3299.51
3625.45
3312.44
3873.26
4134.48
3862.27
3546.18
3614.1
5095.95
5247.78
4976.12
5299.27
4804.73
4580.66
4834.98
4661.07
5092.6
4855.24
5369.35
5580.94
4762.52
4379.26
4656.01
4293.64
4001.35
4541.5
3113.19
2864.36
3192.48
2872.49
2338.08
2324.03
2329.58
2319.98
2804.26
9535.54
8961.53
9164.45
9085.18
8979.9
9553.55
9199.14
9066.1
8914.51
8586.3
9031.06
9115.7
9294.05
8623.61
8671.92
8847.84
8865.45
8167.1
8588.08
8187.83
8725.84
8474.59
8448.51
8345.39
8553.63
8328.68
8533.33
8767.84
8396.42
8137.17
8023.42
8516.95
8708.97
8169.99
8663.76
8243.73
7979.58
8787.83
8455.97
8420.43
8523.63
8288.79
8269.35
8470.95
8725.5
8319.41
8029.3
7703.03
7668.51
7356.66
7068.75
7393.4
8212.55
7801.02
7730.74
7465.59
7415.35
7206.06
7317.49
7334.41
7033.59
7015.09
6483.63
6942.35
6348.89
6652.77
6235.76
6089.96
7084.51
6762.9
5814.61
6430.61
5688.25
6345.42
5983.89
5727.42
6167.48
6283.23
6288.37
6158.45
6128.39
7011.88
6440.83
4375.12
4364.28
4264.56
4052.32
5259.55
5100.28
4992.44
5318.29
4894.08
5020.26
4596.56
4872.4
4824.56
4691.6
4621.75
3909.54
3904.34
4164.77
3584.44
3605.14
3294.51
3627.48
3633.4
3288.03
4105.32
3839.94
3858.63
4144.41
3557.69
5100.21
4866.61
5441.43
5594.59
4768.1
4393.02
4665.82
4260.24
4249.41
4557.18
5033.67
4828.62
5226.92
5134.05
4987.45
5315.39
5417.45
4566.4
4734.23
4820.06
4675.48
4635.07
2335.84
2332.88
3165.32
3134.1
2874.73
2802.41
3440.31
3133.61
2827.14
7951.27
8345.21
8332.13
7918.12
8291.28
7957.67
7932.6
8709.68
8549.88
8855.8
8563.14
8189.25
8448.77
8313.06
8654.7
8396.2
8521.1
8195.4
8205.4
8715.86
8464.62
8343.1
8392.9
8285.26
8278.53
8436.19
8038.62
7997.73
8213.87
8402.98
8197.92
8508.81
8304.79
8889.76
8252.14
8057.57
8168.57
8227.19
8001.17
7924.36
8453.79
7655.23
7346.92
7356.96
7555.39
7066.11
8176.74
7640.14
7615
7835.91
7477.97
7484.46
7301.83
8005.35
7582.65
7663.69
7838.55
7240.05
7300.57
7605.02
7541.3
7069.02
7788.26
8198.18
7753.26
7822.31
7513.35
7493.53
7344.11
7332.42
7039.1
6203.75
6058.79
6255.57
5826.67
5758.33
5622.63
6606.47
6397.67
6646.45
6530.41
6060.17
6225.64
6212.44
5740.3
5635.88
5672.43
6523.97
6510.75
6695.27
6491.01
6696.43
5713.77
5805.99
6190.83
6025.32
6207.06
5724.19
5636.35
6751.39
6473.89
6471.41
6596.11
6740.11
5780.14
5649.76
6064.83
6236.98
6244.27
5222.74
5376.98
5006.81
4977.04
4806.43
5353.51
5231.9
5373.25
4739.56
4560.8
4811.56
4661.59
4445.3
4739.54
4321.71
4019.55
4588.55
5126.77
5219.3
4966.78
5334.56
5632.71
5980.77
5256.1
4975.2
4813.92
4909.85
5171.2
4389.36
4636.9
4283.47
4244.67
4520.33
4758.37
4582.35
4771.3
4738.25
4641.98
5394.2
5667.6
5132.78
4877.6
4749.5
5304.94
5434.98
5119.7
5257.88
5009.46
7871.26
7694.18
5747.87
5501.12
8772.42
8511.67
8692.66
8747.43
8689.1
7589.66
8141.83
7879.84
8041.99
6693.37
7037.48
5521.56
3326.59
3244.06
7870.05
7845.18
5403.94
3335.1
3183.22
3797.75
8758.57
7656.99
6936.51
3752.07
8046.26
7805.93
8000.63
6676.66
7060
7047.05
5382.77
7911.49
8048.36
7037.16
7051.08
7973.01
6980.53
7040.73
6559.24
6743.02
5616.38
5907.29
6118.46
7699.29
7962.35
6940.54
7330.49
6649.84
6886.22
5618.55
5898.3
5964.73
7644.71
8096.34
6982.46
7489.28
6052.9
5651.09
6001.13
6509.04
7316.69
7257.61
7998.81
8093.21
7031.13
6977.38
6930.25
7057.11
5936.2
5673.32
5949.85
5441.74
9096.3
8905.54
7981.51
8634.78
7951.18
8804.81
8716.86
7009.19
7724.62
7695.11
7841.48
7678.02
6977.43
6044.77
5908.88
5921.91
5948.16
5919.99
5856.71
4454.23
5497.26
4339.2
4482.67
8942.21
8732.58
9069.19
8783.25
8991.7
8853.53
8956.96
8887.72
9042.04
8841.62
7988.7
8666.1
8001.42
8355.68
8002.84
6969.84
7403.98
7625.89
8246.07
7087.18
7943.1
6970.57
5683.99
5961.68
6066.11
5734.32
5940.56
5877.9
5456.6
4473.88
4208.6
4147.7
4322.45
5489.04
4428.69
3260.03
3355.49
3176.11
9091.62
8969.81
8850.78
9255.99
8866.29
9020.5
8853.59
9164.54
8988.5
8009.26
8637.04
7885.68
8744.04
8681.25
8488.95
8683.87
8473.57
7923.61
8180.57
6947.15
7623.09
8147.8
7678.62
8099.9
7039.25
5634.45
5983.79
6655.47
6958.11
5832.28
6145.06
5696.62
5926.96
6908.1
5520.54
4458.66
4073.55
4220.36
4113.18
5472.53
4427.44
3256.54
3181.13
3218.51
8916.28
8302.32
8039.69
8778.72
7922.86
7018.82
7851.68
7734.16
7736.88
7703.67
5883.63
6175.71
5876.06
5873.59
5873.74
4442.29
5619.16
4500.53
5548.36
7980.63
7615.8
7275.71
7551.69
8088.47
7673.36
6251.47
6528.11
6296.8
7769.34
8102.51
7750.3
7393.48
8204.89
7145.63
7546.89
7519.85
7230.3
7738.53
7451.07
8137.34
7272.25
7453.88
7486.27
7344.54
6708.95
6691.23
6298.23
6246.47
6024.14
5746.32
6239.74
5975.53
6161.21
8015.05
7555.86
7349.51
7585.59
8073.44
7167.47
7277.45
7317.29
6806.38
7551.04
6484.39
6857.81
6755.58
6314.64
6317.4
6064.91
5740.43
6169.87
5939.46
6167.75
7609.21
8042.63
7165.96
7228.5
7378.81
6764.44
7518.65
6666.29
6281.09
5921.5
6349.28
6213.77
6427.63
8469.65
8483.79
8427.43
8527.39
7286.04
8107.01
7757.21
6532.66
6549.49
6772.48
6737.96
6673.73
5394.37
5671.64
5623.51
5072.06
4964.75
5711.92
5445.75
5442.19
8529.6
8593.78
8763.01
8429.6
7408.53
7738.76
7202.39
8285.22
7697.75
6657.98
6646.33
6314.84
5432.02
5828.5
5619.28
5099.36
3902.2
3965.69
3577.59
3610.53
3290.86
3148.68
8530.17
8492.65
8486.51
8380.13
8673.69
7583.06
7938.58
7785.75
6449.67
4978.44
5650.64
3603.49
3286.95
3185.11
2771.66
4004.27
8546.65
8523.84
8745.33
8555.4
8671.88
8648.26
8543.3
8487.04
8680.94
7167.89
7434.92
8610
7681.43
6704.17
6723.43
5444.55
5682.82
5410.13
5280.6
5578.82
5066.64
4021.7
6674.79
5599.05
8188.74
8047.58
7561.37
7620.45
6676.23
6460.52
6578.45
6152.8
5907.03
6289.47
6035.19
6026.58
5865.11
9078.73
8945.57
7801.99
7838.54
8312.91
8495.63
8388.79
8412.86
7887.99
8275.13
8089.71
8368.96
7959.06
8187.84
8599.28
8409.11
8461.54
8414.59
7861.55
8066.08
8167.66
8328.26
8536.97
8692.95
8620.02
8668.11
8263.23
7886.77
8130.03
8692.01
8537.47
8684.61
8599.86
7929.81
8496.83
8627.67
8384.69
8106.48
8233.36
8068.16
7556.95
7399.85
8324.8
7568.74
7327.06
7339.56
6955.47
7014.43
6989.71
7360.72
8154.74
7731.47
7075.9
7044.41
7338.69
7081.67
7379.5
8039.78
7488.93
7024.2
6773.89
6740.12
6221.44
6333.22
5703.5
6739.37
6213.59
6383.83
5758.5
6571.98
6751.57
6281.81
5734.71
6713.09
6050.63
6244.86
5415.19
5407.79
4977.2
5013.86
4632.49
4666.71
5027.69
4676.47
4580.26
4245.62
4178.98
4148.74
4317.53
5389.91
5073.03
4656.96
4529.4
4280.92
4289.18
4128.3
5275.26
5432.79
4653.39
9163.91
8764.17
8995.85
8605.36
8733.29
9140.69
8475.88
9547.46
8778.29
8868.66
8834.01
9175.39
8848.05
9116.83
9541.34
9197.35
8784.63
9044.88
8239.8
8529.41
8889.33
8679.29
7987.24
8438.98
8175.08
8557.49
8404.27
8519.26
8417.29
8705.81
8201.81
7843.06
8021.34
8351.09
8671.82
8480.44
8443.96
8272.4
7242.24
7429.73
6991.35
7621.32
8025.54
7253.35
7449.32
7550.53
7641.49
7647.32
7960.28
7296
6539.1
6238.11
6087.01
6435.33
6690.96
5952.05
6037.54
6284.35
6523.67
6245.4
6003.73
5760.57
4300.44
4249.97
4184.02
4965.9
4655.5
4537.16
4270.54
5376.55
5513.62
4268.82
4208.18
4969.94
4286.16
3183.14
3194.66
2839.54
3441
2784.48
3175.63
3493.87
9238.87
8791.4
9383.91
9003.84
8977.54
8667.44
8752.18
8480.71
9090.28
9366.27
9124.92
8798.54
8686.89
8629.88
8866.01
8859.41
8860.34
8244.05
8725.73
8155.22
8653.42
8695.3
8530.57
7778.92
8729.95
8326.66
8503.28
8427.51
8250.22
8428.53
8435.98
8030
8201.36
8089.48
7490.7
7997.98
7595.25
7286.44
7170.79
6778.59
7344.93
8136.14
7513.9
7549.38
6570.66
6009.47
6129.14
6454.29
6520.15
6109.78
6330.98
6375.51
6219.02
6000.14
6632.31
6677.5
4660.56
4546.2
4282.42
5445.14
5104.29
4277.04
4204.96
4989.88
4302.57
5379.9
4248.03
2822.04
3164.11
3499.2
9147.62
8529.1
7965.67
8402.23
7984.24
7942.34
8236.67
8679.67
8520
8462.47
8002.5
8179.66
8379.52
8269.77
8556.98
8463.28
8511.01
8421.52
8264.37
7900.14
8427.56
8190.47
8095.54
7651.11
7059.56
7445.7
8363.44
7552.16
7302.94
6990.92
6985.95
7348.86
8148.07
7011.28
7344.57
8124.58
7063.75
6165.41
5820.62
6593.78
6739.23
6570.51
6185.71
6421.97
6669.07
6055.07
6702.2
6063.26
4619.22
5422.72
4256.41
4197.79
4344.68
5387.86
5703.39
5022.1
4268.61
4334.33
4952.44
5406.88
)
;
    }
}


// ************************************************************************* //
