/*--------------------------------*- C++ -*----------------------------------*\
| =========                 |                                                 |
| \\      /  F ield         | OpenFOAM: The Open Source CFD Toolbox           |
|  \\    /   O peration     | Version:  v1906                                 |
|   \\  /    A nd           | Web:      www.OpenFOAM.com                      |
|    \\/     M anipulation  |                                                 |
\*---------------------------------------------------------------------------*/
FoamFile
{
    version     2.0;
    format      ascii;
    class       volScalarField;
    location    "37";
    object      nut;
}
// * * * * * * * * * * * * * * * * * * * * * * * * * * * * * * * * * * * * * //

dimensions      [0 2 -1 0 0 0 0];


internalField   nonuniform List<scalar> 
78750
(
8.50929e-08
1.58976e-06
1.59991e-06
1.55387e-06
1.47813e-06
1.39401e-06
1.31547e-06
1.24955e-06
1.19756e-06
1.15743e-06
1.12648e-06
1.10217e-06
1.08231e-06
1.06514e-06
1.04927e-06
1.03363e-06
1.01738e-06
9.99835e-07
9.8043e-07
9.5876e-07
9.34573e-07
9.07782e-07
8.78461e-07
8.46832e-07
8.13215e-07
7.77938e-07
7.41156e-07
7.02523e-07
6.60506e-07
6.11166e-07
5.45896e-07
4.53901e-07
3.35173e-07
2.15773e-07
4.90377e-09
4.90452e-09
1.49382e-06
3.38868e-06
5.61747e-06
7.29101e-06
8.96674e-06
9.06548e-06
9.20094e-06
9.38599e-06
9.59845e-06
9.80949e-06
9.99461e-06
1.01364e-05
1.02255e-05
1.02584e-05
1.02348e-05
1.01559e-05
1.00231e-05
9.83792e-06
9.6022e-06
9.31812e-06
8.9883e-06
8.61604e-06
8.20555e-06
7.76186e-06
7.29123e-06
6.80286e-06
6.30764e-06
5.81591e-06
5.33488e-06
3.61909e-06
2.01811e-06
1.4802e-06
1.91372e-06
1.64674e-08
9.06103e-09
1.56426e-06
2.47206e-06
2.38871e-06
2.54133e-06
3.18101e-06
4.36382e-06
6.10071e-06
8.42339e-06
1.11705e-05
1.23393e-05
1.30937e-05
1.36956e-05
1.41563e-05
1.42924e-05
1.38693e-05
1.34894e-05
1.3136e-05
1.27793e-05
1.24011e-05
1.19818e-05
1.15074e-05
1.09749e-05
1.03768e-05
9.67721e-06
8.81542e-06
7.70557e-06
6.26485e-06
4.55448e-06
2.95104e-06
1.8796e-06
1.41695e-06
1.64613e-06
1.79177e-06
2.72727e-08
3.86565e-09
1.34987e-06
2.05358e-06
2.68067e-06
2.94341e-06
3.49042e-06
4.42322e-06
5.61351e-06
6.95511e-06
8.47387e-06
1.04251e-05
1.31041e-05
1.45849e-05
1.53432e-05
1.59532e-05
1.64364e-05
1.68083e-05
1.70787e-05
1.7252e-05
1.73285e-05
1.73051e-05
1.71756e-05
1.57773e-05
1.40781e-05
1.24098e-05
1.07278e-05
9.00011e-06
7.22163e-06
5.43379e-06
3.76631e-06
2.47343e-06
1.77776e-06
1.92926e-06
2.21429e-06
3.39544e-08
3.1744e-09
1.32557e-06
2.19966e-06
3.10713e-06
3.44119e-06
3.73357e-06
4.28361e-06
5.01235e-06
5.89987e-06
7.00964e-06
8.51385e-06
1.07851e-05
1.37489e-05
1.43792e-05
1.4924e-05
1.53892e-05
1.57769e-05
1.60861e-05
1.63143e-05
1.64571e-05
1.65086e-05
1.64612e-05
1.63051e-05
1.50243e-05
1.20615e-05
9.52037e-06
7.36902e-06
5.52544e-06
4.02337e-06
2.91e-06
2.18441e-06
1.91431e-06
2.68878e-06
1.88412e-06
4.32661e-08
1.95082e-09
1.09102e-06
1.89125e-06
2.69699e-06
3.06883e-06
3.11657e-06
3.39963e-06
3.89847e-06
4.63487e-06
5.67454e-06
7.13925e-06
9.25776e-06
1.22446e-05
1.42394e-05
1.50345e-05
1.57253e-05
1.63088e-05
1.67835e-05
1.71484e-05
1.74019e-05
1.75412e-05
1.7562e-05
1.7458e-05
1.70454e-05
1.37702e-05
1.06829e-05
8.04462e-06
5.83151e-06
4.08124e-06
2.84417e-06
2.10605e-06
1.87238e-06
2.73486e-06
2.13563e-06
4.80198e-08
1.32312e-09
1.01896e-06
1.83828e-06
2.67354e-06
2.89644e-06
3.03104e-06
3.40288e-06
4.01892e-06
4.9177e-06
6.17447e-06
7.9272e-06
1.04203e-05
1.35199e-05
1.44268e-05
1.52276e-05
1.59196e-05
1.65019e-05
1.69744e-05
1.73357e-05
1.75826e-05
1.77097e-05
1.77091e-05
1.75712e-05
1.57071e-05
1.23789e-05
9.44459e-06
7.00032e-06
5.02221e-06
3.53519e-06
2.56138e-06
2.03861e-06
2.01681e-06
3.44724e-06
1.98208e-06
5.43695e-08
8.01457e-10
8.82902e-07
1.65231e-06
2.44244e-06
2.56149e-06
2.82157e-06
3.26284e-06
3.9206e-06
4.84434e-06
6.10298e-06
7.79412e-06
1.00533e-05
1.28945e-05
1.45152e-05
1.54046e-05
1.61844e-05
1.68558e-05
1.74196e-05
1.78752e-05
1.82195e-05
1.84462e-05
1.85453e-05
1.85039e-05
1.66162e-05
1.32659e-05
1.01007e-05
7.37614e-06
5.1739e-06
3.54343e-06
2.49658e-06
1.96248e-06
1.95988e-06
3.44241e-06
2.07885e-06
5.82474e-08
6.50687e-10
8.91574e-07
1.71876e-06
2.12377e-06
2.51202e-06
3.0062e-06
3.68164e-06
4.60466e-06
5.84883e-06
7.51002e-06
9.72782e-06
1.25265e-05
1.40594e-05
1.49614e-05
1.57539e-05
1.64399e-05
1.70225e-05
1.75043e-05
1.7886e-05
1.81656e-05
1.83381e-05
1.83947e-05
1.83229e-05
1.58742e-05
1.24965e-05
9.46208e-06
6.89998e-06
4.85201e-06
3.36272e-06
2.43997e-06
1.99622e-06
2.10588e-06
4.02644e-06
1.99591e-06
6.33914e-08
8.31234e-10
8.32182e-07
1.51994e-06
2.12906e-06
2.75969e-06
3.50822e-06
4.4498e-06
5.64461e-06
7.14334e-06
8.99294e-06
1.1234e-05
1.37631e-05
1.48329e-05
1.5725e-05
1.65149e-05
1.72036e-05
1.77917e-05
1.82788e-05
1.86625e-05
1.89391e-05
1.91021e-05
1.9143e-05
1.9051e-05
1.60206e-05
1.26506e-05
9.5735e-06
6.94012e-06
4.83928e-06
3.32427e-06
2.39912e-06
1.9701e-06
2.11172e-06
4.15681e-06
2.02104e-06
6.74559e-08
1.20417e-09
7.78615e-07
1.53039e-06
2.31446e-06
3.18092e-06
4.19698e-06
5.4227e-06
6.90866e-06
8.70506e-06
1.08695e-05
1.33371e-05
1.46149e-05
1.55338e-05
1.63553e-05
1.7081e-05
1.77115e-05
1.82466e-05
1.86846e-05
1.90223e-05
1.92549e-05
1.93752e-05
1.93744e-05
1.8127e-05
1.49816e-05
1.18274e-05
8.99527e-06
6.57758e-06
4.64194e-06
3.24876e-06
2.40327e-06
2.02656e-06
2.24906e-06
4.67154e-06
1.97266e-06
7.22661e-08
1.69164e-09
7.95091e-07
1.61868e-06
2.53714e-06
3.57441e-06
4.77266e-06
6.17368e-06
7.81537e-06
9.73407e-06
1.19483e-05
1.41994e-05
1.52173e-05
1.61472e-05
1.69858e-05
1.77302e-05
1.83775e-05
1.89251e-05
1.93696e-05
1.97069e-05
1.99313e-05
2.00354e-05
2.00104e-05
1.78737e-05
1.47171e-05
1.15712e-05
8.73802e-06
6.35397e-06
4.48544e-06
3.1647e-06
2.37468e-06
2.03816e-06
2.31411e-06
4.96368e-06
1.96986e-06
7.63919e-08
2.17283e-09
7.81997e-07
1.627e-06
2.60547e-06
3.73005e-06
5.03887e-06
6.5825e-06
8.41846e-06
1.06006e-05
1.30862e-05
1.49371e-05
1.60025e-05
1.69592e-05
1.78033e-05
1.85338e-05
1.91518e-05
1.96587e-05
2.00558e-05
2.03424e-05
2.05158e-05
2.05705e-05
2.01585e-05
1.74466e-05
1.43153e-05
1.12304e-05
8.44893e-06
6.12412e-06
4.33157e-06
3.09847e-06
2.37388e-06
2.0898e-06
2.45097e-06
5.46082e-06
1.94042e-06
8.08865e-08
2.71866e-09
7.64504e-07
1.62688e-06
2.68461e-06
3.95758e-06
5.4893e-06
7.33255e-06
9.52801e-06
1.20676e-05
1.47848e-05
1.64396e-05
1.74942e-05
1.841e-05
1.91915e-05
1.98452e-05
2.03785e-05
2.07974e-05
2.11065e-05
2.13076e-05
2.13997e-05
2.13783e-05
2.02299e-05
1.74685e-05
1.43245e-05
1.11991e-05
8.37571e-06
6.03363e-06
4.25612e-06
3.0612e-06
2.37253e-06
2.124e-06
2.55139e-06
5.83275e-06
1.93062e-06
8.51207e-08
3.2889e-09
7.95155e-07
1.73133e-06
2.94305e-06
4.45952e-06
6.31746e-06
8.54419e-06
1.11245e-05
1.39586e-05
1.67693e-05
1.79218e-05
1.88922e-05
1.97143e-05
2.03993e-05
2.09581e-05
2.14002e-05
2.17328e-05
2.19608e-05
2.20861e-05
2.21076e-05
2.19438e-05
1.97409e-05
1.69689e-05
1.39403e-05
1.09255e-05
8.18426e-06
5.90313e-06
4.18042e-06
3.04302e-06
2.39549e-06
2.18731e-06
2.69972e-06
6.2909e-06
1.91225e-06
8.96263e-08
4.00543e-09
8.77173e-07
1.9307e-06
3.31875e-06
5.06421e-06
7.18035e-06
9.65298e-06
1.24066e-05
1.52807e-05
1.80018e-05
1.92355e-05
2.01372e-05
2.08941e-05
2.15175e-05
2.20171e-05
2.24011e-05
2.2676e-05
2.28455e-05
2.29114e-05
2.28731e-05
2.13802e-05
1.91357e-05
1.64611e-05
1.35517e-05
1.06544e-05
8.01106e-06
5.80353e-06
4.13687e-06
3.04431e-06
2.42566e-06
2.24779e-06
2.83397e-06
6.66078e-06
1.90444e-06
9.4025e-08
4.66861e-09
9.57612e-07
2.10445e-06
3.60247e-06
5.4659e-06
7.70292e-06
1.02963e-05
1.31584e-05
1.61012e-05
1.88397e-05
2.02998e-05
2.11795e-05
2.19114e-05
2.25057e-05
2.29712e-05
2.33158e-05
2.35454e-05
2.36642e-05
2.36742e-05
2.24421e-05
2.06444e-05
1.84051e-05
1.58023e-05
1.30035e-05
1.02377e-05
7.72649e-06
5.63631e-06
4.06805e-06
3.04532e-06
2.46897e-06
2.33012e-06
3.00554e-06
7.02929e-06
1.89461e-06
9.87155e-08
5.37326e-09
1.01183e-06
2.21195e-06
3.76988e-06
5.71089e-06
8.06448e-06
1.08239e-05
1.38713e-05
1.69475e-05
1.97305e-05
2.15877e-05
2.24488e-05
2.31529e-05
2.37111e-05
2.41336e-05
2.44289e-05
2.46035e-05
2.45033e-05
2.3471e-05
2.20518e-05
2.02323e-05
1.79911e-05
1.53984e-05
1.26332e-05
9.93052e-06
7.50405e-06
5.50443e-06
4.02055e-06
3.05435e-06
2.51361e-06
2.41003e-06
3.16966e-06
7.31385e-06
1.89187e-06
1.03488e-07
6.06849e-09
1.05e-06
2.29191e-06
3.91595e-06
5.97291e-06
8.51664e-06
1.15311e-05
1.48267e-05
1.80426e-05
2.08221e-05
2.28826e-05
2.37066e-05
2.43677e-05
2.48792e-05
2.52522e-05
2.54954e-05
2.52076e-05
2.43955e-05
2.32745e-05
2.18069e-05
1.99312e-05
1.7632e-05
1.49966e-05
1.22252e-05
9.56427e-06
7.22075e-06
5.32651e-06
3.95055e-06
3.0586e-06
2.56597e-06
2.50756e-06
3.36698e-06
7.55538e-06
1.88905e-06
1.08541e-07
6.95604e-09
1.09643e-06
2.39563e-06
4.11735e-06
6.3373e-06
9.11806e-06
1.23994e-05
1.58867e-05
1.91337e-05
2.17991e-05
2.37697e-05
2.49853e-05
2.56028e-05
2.60712e-05
2.61105e-05
2.57703e-05
2.51728e-05
2.43235e-05
2.31864e-05
2.16945e-05
1.97808e-05
1.74318e-05
1.47482e-05
1.19491e-05
9.29484e-06
6.99558e-06
5.17438e-06
3.88401e-06
3.05655e-06
2.61066e-06
2.59943e-06
3.56075e-06
7.72587e-06
1.89059e-06
1.13649e-07
7.90973e-09
1.14479e-06
2.50402e-06
4.32515e-06
6.70394e-06
9.7029e-06
1.32084e-05
1.683e-05
2.0071e-05
2.26239e-05
2.44336e-05
2.55809e-05
2.61845e-05
2.63614e-05
2.62093e-05
2.57952e-05
2.51499e-05
2.42652e-05
2.30959e-05
2.15682e-05
1.96094e-05
1.7207e-05
1.44722e-05
1.16419e-05
8.99317e-06
6.74053e-06
4.99865e-06
3.80246e-06
3.04876e-06
2.65867e-06
2.70442e-06
3.78426e-06
7.83108e-06
1.89147e-06
1.18904e-07
9.0067e-09
1.18957e-06
2.60393e-06
4.51872e-06
7.05059e-06
1.02616e-05
1.39799e-05
1.77186e-05
2.09424e-05
2.33853e-05
2.50454e-05
2.60379e-05
2.65029e-05
2.65681e-05
2.63333e-05
2.5863e-05
2.51832e-05
2.42804e-05
2.31006e-05
2.15604e-05
1.95786e-05
1.71373e-05
1.43507e-05
1.14696e-05
8.79098e-06
6.54429e-06
4.84651e-06
3.71826e-06
3.02803e-06
2.69382e-06
2.80128e-06
4.0058e-06
7.87473e-06
1.89431e-06
1.24161e-07
1.01261e-08
1.22629e-06
2.68862e-06
4.69108e-06
7.37371e-06
1.07993e-05
1.47325e-05
1.85859e-05
2.17919e-05
2.41286e-05
2.56454e-05
2.64904e-05
2.68227e-05
2.67796e-05
2.6464e-05
2.59393e-05
2.52276e-05
2.43088e-05
2.31181e-05
2.15628e-05
1.95545e-05
1.70729e-05
1.42364e-05
1.13079e-05
8.60063e-06
6.35753e-06
4.69984e-06
3.63246e-06
3.00311e-06
2.72756e-06
2.90499e-06
4.25129e-06
7.84836e-06
1.89536e-06
1.29359e-07
1.13794e-08
1.2624e-06
2.77326e-06
4.86778e-06
7.71158e-06
1.13634e-05
1.55072e-05
1.94476e-05
2.26025e-05
2.48104e-05
2.61746e-05
2.68739e-05
2.70829e-05
2.6946e-05
2.6567e-05
2.60067e-05
2.52818e-05
2.43651e-05
2.31822e-05
2.16324e-05
1.96203e-05
1.7119e-05
1.4243e-05
1.12611e-05
8.50341e-06
6.23336e-06
4.58491e-06
3.55111e-06
2.96785e-06
2.74657e-06
2.99593e-06
4.48825e-06
7.77615e-06
1.89705e-06
1.34323e-07
1.26505e-08
1.29609e-06
2.8516e-06
5.03211e-06
8.02941e-06
1.1896e-05
1.623e-05
2.02342e-05
2.33259e-05
2.54035e-05
2.66181e-05
2.71754e-05
2.72647e-05
2.70369e-05
2.65972e-05
2.60031e-05
2.5266e-05
2.4351e-05
2.31762e-05
2.16365e-05
1.96337e-05
1.71375e-05
1.42574e-05
1.12563e-05
8.46724e-06
6.16882e-06
4.51379e-06
3.49081e-06
2.93616e-06
2.76072e-06
3.08179e-06
4.72536e-06
7.66288e-06
1.8984e-06
1.39081e-07
1.40143e-08
1.32685e-06
2.92131e-06
5.18154e-06
8.32811e-06
1.24041e-05
1.69107e-05
2.09506e-05
2.3956e-05
2.58912e-05
2.69529e-05
2.7371e-05
2.73476e-05
2.70391e-05
2.65507e-05
2.59362e-05
2.52006e-05
2.42998e-05
2.31455e-05
2.16294e-05
1.96515e-05
1.71802e-05
1.43198e-05
1.13243e-05
8.51961e-06
6.19052e-06
4.50815e-06
3.46647e-06
2.91341e-06
2.76472e-06
3.1452e-06
4.92469e-06
7.55458e-06
1.9026e-06
1.43715e-07
1.53725e-08
1.35127e-06
2.97734e-06
5.30962e-06
8.59699e-06
1.28677e-05
1.75198e-05
2.15661e-05
2.44677e-05
2.62538e-05
2.71617e-05
2.74429e-05
2.73112e-05
2.69278e-05
2.6397e-05
2.57685e-05
2.50411e-05
2.41617e-05
2.3036e-05
2.15527e-05
1.96112e-05
1.71806e-05
1.43638e-05
1.14062e-05
8.61933e-06
6.28108e-06
4.57273e-06
3.49515e-06
2.91893e-06
2.77383e-06
3.19517e-06
5.0889e-06
7.46454e-06
1.90983e-06
1.48479e-07
1.6859e-08
1.37485e-06
3.03199e-06
5.43758e-06
8.86564e-06
1.33184e-05
1.8081e-05
2.2092e-05
2.48618e-05
2.64868e-05
2.72402e-05
2.73915e-05
2.71629e-05
2.67175e-05
2.61571e-05
2.55264e-05
2.48171e-05
2.3968e-05
2.28803e-05
2.14403e-05
1.95447e-05
1.71622e-05
1.43977e-05
1.14935e-05
8.74944e-06
6.42763e-06
4.70531e-06
3.58476e-06
2.96431e-06
2.79606e-06
3.2302e-06
5.20102e-06
7.42829e-06
1.92221e-06
1.53604e-07
1.83912e-08
1.39507e-06
3.07897e-06
5.54957e-06
9.10088e-06
1.3706e-05
1.85451e-05
2.25007e-05
2.51356e-05
2.66046e-05
2.72121e-05
2.72433e-05
2.69276e-05
2.64295e-05
2.5848e-05
2.52222e-05
2.4536e-05
2.37217e-05
2.26761e-05
2.12809e-05
1.94277e-05
1.70832e-05
1.43585e-05
1.15059e-05
8.82417e-06
6.55841e-06
4.86439e-06
3.72485e-06
3.06146e-06
2.85556e-06
3.28155e-06
5.30593e-06
7.43682e-06
1.9387e-06
1.59134e-07
2.00787e-08
1.41316e-06
3.12139e-06
5.65328e-06
9.32127e-06
1.40665e-05
1.89628e-05
2.28465e-05
2.5341e-05
2.66589e-05
2.71316e-05
2.70567e-05
2.6668e-05
2.61294e-05
2.55362e-05
2.49223e-05
2.42637e-05
2.34879e-05
2.24885e-05
2.11401e-05
1.93241e-05
1.7e-05
1.42844e-05
1.14509e-05
8.81698e-06
6.62356e-06
4.99725e-06
3.87961e-06
3.19734e-06
2.9583e-06
3.36995e-06
5.44434e-06
7.47811e-06
1.95788e-06
1.64804e-07
2.18634e-08
1.42834e-06
3.15852e-06
5.74731e-06
9.52372e-06
1.43951e-05
1.93313e-05
2.31355e-05
2.54961e-05
2.66774e-05
2.70329e-05
2.68685e-05
2.64201e-05
2.58497e-05
2.5249e-05
2.46468e-05
2.40123e-05
2.32703e-05
2.23115e-05
2.10034e-05
1.92147e-05
1.68917e-05
1.41533e-05
1.13005e-05
8.68756e-06
6.56935e-06
5.04576e-06
4.00254e-06
3.34877e-06
3.10709e-06
3.52629e-06
5.69163e-06
7.49574e-06
1.97514e-06
1.69976e-07
2.38165e-08
1.44315e-06
3.19561e-06
5.84256e-06
9.73116e-06
1.47309e-05
1.96999e-05
2.34183e-05
2.56485e-05
2.67044e-05
2.6957e-05
2.67173e-05
2.62204e-05
2.56249e-05
2.50176e-05
2.44222e-05
2.38027e-05
2.30834e-05
2.21556e-05
2.08819e-05
1.91176e-05
1.67903e-05
1.40113e-05
1.11057e-05
8.47485e-06
6.40709e-06
4.98859e-06
4.05393e-06
3.4782e-06
3.2806e-06
3.75214e-06
6.08101e-06
7.44174e-06
1.98625e-06
1.7391e-07
2.58258e-08
1.45642e-06
3.23017e-06
5.93494e-06
9.93897e-06
1.50718e-05
2.00748e-05
2.37113e-05
2.58205e-05
2.67616e-05
2.69211e-05
2.6614e-05
2.60743e-05
2.5456e-05
2.48395e-05
2.42413e-05
2.3623e-05
2.29115e-05
2.20003e-05
2.0752e-05
1.90138e-05
1.66932e-05
1.38817e-05
1.09135e-05
8.23643e-06
6.18602e-06
4.84886e-06
4.02975e-06
3.56781e-06
3.46325e-06
4.04567e-06
6.62478e-06
7.2924e-06
1.98982e-06
1.7622e-07
2.79029e-08
1.4702e-06
3.2663e-06
6.03354e-06
1.0166e-05
1.54458e-05
2.04826e-05
2.40312e-05
2.6016e-05
2.6842e-05
2.69107e-05
2.65407e-05
2.59629e-05
2.53244e-05
2.46974e-05
2.40894e-05
2.34608e-05
2.27436e-05
2.18379e-05
2.06137e-05
1.89192e-05
1.66444e-05
1.38447e-05
1.08333e-05
8.08768e-06
6.0026e-06
4.68792e-06
3.94861e-06
3.60463e-06
3.62806e-06
4.37188e-06
7.25318e-06
7.09935e-06
1.99051e-06
1.77343e-07
2.99306e-08
1.48349e-06
3.30121e-06
6.13252e-06
1.04003e-05
1.5832e-05
2.08959e-05
2.43485e-05
2.62038e-05
2.69119e-05
2.68902e-05
2.64614e-05
2.58517e-05
2.51987e-05
2.45638e-05
2.39439e-05
2.32988e-05
2.25664e-05
2.16574e-05
2.04566e-05
1.88255e-05
1.66472e-05
1.39332e-05
1.09374e-05
8.12707e-06
5.95401e-06
4.5806e-06
3.85145e-06
3.58874e-06
3.74285e-06
4.67324e-06
7.85073e-06
6.93122e-06
1.99423e-06
1.7844e-07
3.1943e-08
1.49692e-06
3.33613e-06
6.23452e-06
1.06453e-05
1.62299e-05
2.13055e-05
2.46454e-05
2.63603e-05
2.69453e-05
2.68346e-05
2.63535e-05
2.57221e-05
2.50652e-05
2.4431e-05
2.38053e-05
2.31472e-05
2.24011e-05
2.14886e-05
2.03129e-05
1.87572e-05
1.67126e-05
1.41545e-05
1.12543e-05
8.41764e-06
6.12411e-06
4.60815e-06
3.79146e-06
3.53146e-06
3.77335e-06
4.8673e-06
8.2776e-06
6.84008e-06
2.00559e-06
1.80693e-07
3.39099e-08
1.50957e-06
3.36922e-06
6.33518e-06
1.08889e-05
1.66134e-05
2.16754e-05
2.48849e-05
2.6452e-05
2.6914e-05
2.67203e-05
2.61975e-05
2.5557e-05
2.49095e-05
2.42868e-05
2.3667e-05
2.30081e-05
2.22575e-05
2.13464e-05
2.01954e-05
1.87122e-05
1.68073e-05
1.4442e-05
1.17145e-05
8.93146e-06
6.54296e-06
4.83928e-06
3.84557e-06
3.48619e-06
3.72666e-06
4.9066e-06
8.46068e-06
6.83828e-06
2.02552e-06
1.84773e-07
3.5938e-08
1.52195e-06
3.40215e-06
6.43773e-06
1.11345e-05
1.69835e-05
2.2004e-05
2.50653e-05
2.64784e-05
2.68199e-05
2.6551e-05
2.59971e-05
2.53597e-05
2.47339e-05
2.41341e-05
2.35304e-05
2.28797e-05
2.21319e-05
2.12267e-05
2.01001e-05
1.86799e-05
1.68959e-05
1.47146e-05
1.21946e-05
9.55049e-06
7.15081e-06
5.28282e-06
4.0698e-06
3.52655e-06
3.66277e-06
4.81706e-06
8.41486e-06
6.91328e-06
2.05104e-06
1.90661e-07
3.8063e-08
1.53366e-06
3.43486e-06
6.54165e-06
1.13789e-05
1.73326e-05
2.22852e-05
2.51887e-05
2.64519e-05
2.66828e-05
2.63502e-05
2.57747e-05
2.51455e-05
2.45452e-05
2.39741e-05
2.33933e-05
2.27567e-05
2.20158e-05
2.11171e-05
2.00078e-05
1.86299e-05
1.69311e-05
1.48927e-05
1.2568e-05
1.01165e-05
7.81068e-06
5.86926e-06
4.4666e-06
3.70944e-06
3.67153e-06
4.70594e-06
8.25813e-06
7.0445e-06
2.07858e-06
1.97675e-07
4.0389e-08
1.5457e-06
3.47002e-06
6.65219e-06
1.16316e-05
1.76763e-05
2.25427e-05
2.52829e-05
2.63992e-05
2.65269e-05
2.61392e-05
2.55501e-05
2.49359e-05
2.4364e-05
2.38199e-05
2.32574e-05
2.26289e-05
2.18884e-05
2.09897e-05
1.98901e-05
1.85407e-05
1.68974e-05
1.49523e-05
1.27698e-05
1.05009e-05
8.35586e-06
6.45732e-06
4.96025e-06
4.02992e-06
3.81222e-06
4.69821e-06
8.1787e-06
7.20077e-06
2.10525e-06
2.04545e-07
4.28997e-08
1.55788e-06
3.50748e-06
6.7701e-06
1.18976e-05
1.80251e-05
2.27904e-05
2.53645e-05
2.63382e-05
2.63676e-05
2.59272e-05
2.53237e-05
2.47211e-05
2.41722e-05
2.3649e-05
2.30981e-05
2.24693e-05
2.17201e-05
2.08132e-05
1.97167e-05
1.83871e-05
1.67795e-05
1.48884e-05
1.27939e-05
1.06667e-05
8.68711e-06
6.90722e-06
5.43014e-06
4.42133e-06
4.08269e-06
4.86914e-06
8.35689e-06
7.31304e-06
2.12606e-06
2.09646e-07
4.56034e-08
1.57138e-06
3.54988e-06
6.90046e-06
1.21855e-05
1.83914e-05
2.30443e-05
2.54488e-05
2.62773e-05
2.6205e-05
2.57084e-05
2.50868e-05
2.4491e-05
2.39568e-05
2.34439e-05
2.28913e-05
2.22462e-05
2.14723e-05
2.05464e-05
1.94507e-05
1.81452e-05
1.65754e-05
1.47254e-05
1.26852e-05
1.06536e-05
8.80402e-06
7.16341e-06
5.78613e-06
4.80381e-06
4.44165e-06
5.23664e-06
8.87726e-06
7.32166e-06
2.13706e-06
2.11928e-07
4.83638e-08
1.58547e-06
3.59459e-06
7.03783e-06
1.24892e-05
1.87726e-05
2.3308e-05
2.55375e-05
2.62136e-05
2.60301e-05
2.54694e-05
2.48226e-05
2.42253e-05
2.36951e-05
2.31783e-05
2.2606e-05
2.19248e-05
2.11089e-05
2.01558e-05
1.90672e-05
1.78079e-05
1.63061e-05
1.45194e-05
1.25301e-05
1.05609e-05
8.78975e-06
7.26204e-06
6.01369e-06
5.13503e-06
4.84887e-06
5.77495e-06
9.69621e-06
7.22756e-06
2.13936e-06
2.11541e-07
5.11152e-08
1.60026e-06
3.64146e-06
7.18305e-06
1.28113e-05
1.91673e-05
2.35628e-05
2.56075e-05
2.61299e-05
2.58323e-05
2.52045e-05
2.45281e-05
2.39219e-05
2.33841e-05
2.28475e-05
2.22353e-05
2.14954e-05
2.06187e-05
1.9631e-05
1.85618e-05
1.73841e-05
1.60052e-05
1.43396e-05
1.24355e-05
1.05176e-05
8.77215e-06
7.30034e-06
6.15807e-06
5.41154e-06
5.27159e-06
6.42688e-06
1.06469e-05
7.0876e-06
2.13832e-06
2.09771e-07
5.37804e-08
1.61506e-06
3.689e-06
7.33341e-06
1.31437e-05
1.95576e-05
2.37959e-05
2.56502e-05
2.60188e-05
2.56136e-05
2.49216e-05
2.42151e-05
2.35951e-05
2.30403e-05
2.24691e-05
2.17969e-05
2.09752e-05
2.00171e-05
1.89858e-05
1.79464e-05
1.68871e-05
1.56959e-05
1.42342e-05
1.24859e-05
1.06357e-05
8.8756e-06
7.38904e-06
6.28984e-06
5.65093e-06
5.67744e-06
7.10533e-06
1.15295e-05
6.97047e-06
2.14046e-06
2.08245e-07
5.63978e-08
1.63017e-06
3.73862e-06
7.49359e-06
1.34949e-05
1.99508e-05
2.40199e-05
2.56839e-05
2.59042e-05
2.54002e-05
2.46486e-05
2.39125e-05
2.32751e-05
2.26957e-05
2.20773e-05
2.13261e-05
2.03982e-05
1.93339e-05
1.82422e-05
1.72326e-05
1.63152e-05
1.53669e-05
1.41966e-05
1.27014e-05
1.0967e-05
9.18155e-06
7.61949e-06
6.48286e-06
5.88611e-06
6.0465e-06
7.72761e-06
1.22344e-05
6.90766e-06
2.14899e-06
2.07846e-07
5.89998e-08
1.64547e-06
3.79078e-06
7.66463e-06
1.38628e-05
2.03363e-05
2.42269e-05
2.57076e-05
2.57918e-05
2.52017e-05
2.44017e-05
2.36428e-05
2.29902e-05
2.2384e-05
2.17102e-05
2.0863e-05
1.98021e-05
1.85997e-05
1.74196e-05
1.64243e-05
1.56534e-05
1.49809e-05
1.41719e-05
1.30275e-05
1.14865e-05
9.70785e-06
8.04358e-06
6.80099e-06
6.16654e-06
6.39255e-06
8.26403e-06
1.27798e-05
6.89886e-06
2.16343e-06
2.08571e-07
6.16701e-08
1.66123e-06
3.84592e-06
7.84425e-06
1.42351e-05
2.07034e-05
2.44113e-05
2.57219e-05
2.56874e-05
2.50271e-05
2.41917e-05
2.34196e-05
2.27582e-05
2.21288e-05
2.13977e-05
2.04417e-05
1.9221e-05
1.78419e-05
1.65327e-05
1.55193e-05
1.48786e-05
1.44908e-05
1.40881e-05
1.33723e-05
1.21153e-05
1.04126e-05
8.66402e-06
7.2826e-06
6.54748e-06
6.76822e-06
8.76016e-06
1.32607e-05
6.93233e-06
2.18218e-06
2.09847e-07
6.43997e-08
1.67684e-06
3.90258e-06
8.02737e-06
1.45991e-05
2.10389e-05
2.45696e-05
2.57297e-05
2.55961e-05
2.48818e-05
2.40241e-05
2.32492e-05
2.25884e-05
2.19448e-05
2.11619e-05
2.0093e-05
1.86909e-05
1.7095e-05
1.56063e-05
1.45262e-05
1.39781e-05
1.38587e-05
1.38796e-05
1.36398e-05
1.27492e-05
1.12109e-05
9.43585e-06
7.92851e-06
7.06952e-06
7.24476e-06
9.31483e-06
1.3781e-05
6.99348e-06
2.20376e-06
2.1091e-07
6.71816e-08
1.69284e-06
3.96222e-06
8.21528e-06
1.49539e-05
2.13454e-05
2.47086e-05
2.57378e-05
2.55226e-05
2.47678e-05
2.38991e-05
2.31322e-05
2.24841e-05
2.18413e-05
2.10228e-05
1.98517e-05
1.82613e-05
1.6415e-05
1.46916e-05
1.34804e-05
1.29641e-05
1.30682e-05
1.34989e-05
1.375e-05
1.32879e-05
1.20029e-05
1.0284e-05
8.70372e-06
7.74269e-06
7.87826e-06
1.00274e-05
1.44102e-05
7.07512e-06
2.22846e-06
2.11242e-07
6.99213e-08
1.70857e-06
4.02171e-06
8.39657e-06
1.52778e-05
2.16074e-05
2.48207e-05
2.57405e-05
2.546e-05
2.46769e-05
2.3808e-05
2.30607e-05
2.24402e-05
2.18198e-05
2.09958e-05
1.97555e-05
1.7996e-05
1.58842e-05
1.38712e-05
1.24482e-05
1.18736e-05
1.21184e-05
1.29032e-05
1.36332e-05
1.36453e-05
1.26991e-05
1.11319e-05
9.55946e-06
8.55516e-06
8.69772e-06
1.09631e-05
1.51593e-05
7.17317e-06
2.25698e-06
2.10702e-07
7.25072e-08
1.72373e-06
4.07903e-06
8.56364e-06
1.55582e-05
2.18218e-05
2.49087e-05
2.57394e-05
2.5407e-05
2.46051e-05
2.37451e-05
2.30276e-05
2.24493e-05
2.18757e-05
2.10867e-05
1.9835e-05
1.79635e-05
1.56051e-05
1.32595e-05
1.15316e-05
1.07786e-05
1.10369e-05
1.20681e-05
1.32265e-05
1.37391e-05
1.32153e-05
1.1906e-05
1.04435e-05
9.48326e-06
9.70988e-06
1.21424e-05
1.59916e-05
7.28796e-06
2.29019e-06
2.09435e-07
7.47252e-08
1.73751e-06
4.13031e-06
8.70675e-06
1.57864e-05
2.19895e-05
2.49745e-05
2.57338e-05
2.53601e-05
2.45464e-05
2.37027e-05
2.30241e-05
2.25021e-05
2.20005e-05
2.12945e-05
2.01112e-05
1.82262e-05
1.5687e-05
1.29886e-05
1.08576e-05
9.78122e-06
9.88475e-06
1.10004e-05
1.24874e-05
1.34984e-05
1.34746e-05
1.25361e-05
1.12996e-05
1.04905e-05
1.08974e-05
1.35407e-05
1.6842e-05
7.41723e-06
2.32809e-06
2.07704e-07
7.63711e-08
1.74901e-06
4.17081e-06
8.81382e-06
1.59522e-05
2.21072e-05
2.50141e-05
2.57152e-05
2.53066e-05
2.4485e-05
2.36615e-05
2.30264e-05
2.2568e-05
2.21545e-05
2.15682e-05
2.05306e-05
1.876e-05
1.61792e-05
1.3191e-05
1.05864e-05
9.02581e-06
8.77173e-06
9.75449e-06
1.14046e-05
1.28663e-05
1.34073e-05
1.29569e-05
1.2071e-05
1.15293e-05
1.22135e-05
1.50788e-05
1.76432e-05
7.56364e-06
2.37117e-06
2.05951e-07
7.73912e-08
1.75758e-06
4.19835e-06
8.88293e-06
1.60612e-05
2.21856e-05
2.50328e-05
2.56825e-05
2.52408e-05
2.44131e-05
2.36125e-05
2.30239e-05
2.26329e-05
2.23142e-05
2.18687e-05
2.10358e-05
1.9506e-05
1.70671e-05
1.39309e-05
1.08598e-05
8.69457e-06
7.8751e-06
8.465e-06
1.00344e-05
1.18179e-05
1.29521e-05
1.31047e-05
1.26959e-05
1.25321e-05
1.35694e-05
1.66222e-05
1.83517e-05
7.73592e-06
2.42073e-06
2.04847e-07
7.78471e-08
1.76293e-06
4.21234e-06
8.91622e-06
1.61217e-05
2.22328e-05
2.50329e-05
2.56329e-05
2.51578e-05
2.43243e-05
2.35481e-05
2.30072e-05
2.26842e-05
2.24593e-05
2.21558e-05
2.15478e-05
2.03405e-05
1.82322e-05
1.51923e-05
1.17873e-05
8.96289e-06
7.40935e-06
7.3519e-06
8.53846e-06
1.03915e-05
1.20507e-05
1.28949e-05
1.30866e-05
1.33971e-05
1.48289e-05
1.80139e-05
1.89725e-05
7.94845e-06
2.47926e-06
2.05224e-07
7.78876e-08
1.76521e-06
4.21425e-06
8.92115e-06
1.61465e-05
2.22555e-05
2.50134e-05
2.55622e-05
2.50525e-05
2.42147e-05
2.34656e-05
2.29746e-05
2.27192e-05
2.25833e-05
2.241e-05
2.2012e-05
2.11389e-05
1.94737e-05
1.67937e-05
1.33424e-05
9.96433e-06
7.58819e-06
6.68862e-06
7.20603e-06
8.76991e-06
1.07027e-05
1.22246e-05
1.31254e-05
1.40004e-05
1.58413e-05
1.91226e-05
1.95191e-05
8.20355e-06
2.54704e-06
2.07679e-07
7.77171e-08
1.7651e-06
4.20709e-06
8.90669e-06
1.6148e-05
2.22591e-05
2.49725e-05
2.54675e-05
2.49235e-05
2.40827e-05
2.336e-05
2.29173e-05
2.27288e-05
2.268e-05
2.26234e-05
2.24028e-05
2.18205e-05
2.06015e-05
1.84443e-05
1.52892e-05
1.1661e-05
8.54091e-06
6.70964e-06
6.35936e-06
7.28644e-06
9.07514e-06
1.10396e-05
1.26622e-05
1.41897e-05
1.6479e-05
1.98829e-05
1.99879e-05
8.48573e-06
2.62099e-06
2.12358e-07
7.75412e-08
1.76297e-06
4.19372e-06
8.88406e-06
1.61426e-05
2.22482e-05
2.49069e-05
2.53419e-05
2.47624e-05
2.39203e-05
2.32274e-05
2.2836e-05
2.27127e-05
2.27391e-05
2.27807e-05
2.27052e-05
2.23539e-05
2.15086e-05
1.98861e-05
1.7261e-05
1.37847e-05
1.02122e-05
7.51666e-06
6.22372e-06
6.3022e-06
7.53529e-06
9.49525e-06
1.16293e-05
1.38112e-05
1.66105e-05
2.02482e-05
2.03479e-05
8.75928e-06
2.69428e-06
2.19039e-07
7.75613e-08
1.75999e-06
4.17968e-06
8.86798e-06
1.61495e-05
2.22339e-05
2.48197e-05
2.51859e-05
2.45687e-05
2.3726e-05
2.30627e-05
2.27211e-05
2.26608e-05
2.27592e-05
2.28843e-05
2.29131e-05
2.27192e-05
2.21481e-05
2.09775e-05
1.89384e-05
1.59241e-05
1.23195e-05
9.02193e-06
6.84949e-06
6.01776e-06
6.46445e-06
7.97372e-06
1.01877e-05
1.28497e-05
1.61787e-05
2.02052e-05
2.05812e-05
8.99601e-06
2.75967e-06
2.27331e-07
7.78986e-08
1.75681e-06
4.16757e-06
8.86436e-06
1.61747e-05
2.22165e-05
2.47078e-05
2.49942e-05
2.43359e-05
2.34928e-05
2.28595e-05
2.25665e-05
2.25645e-05
2.27253e-05
2.29174e-05
2.30225e-05
2.29313e-05
2.25309e-05
2.16704e-05
2.01387e-05
1.77207e-05
1.44599e-05
1.0962e-05
8.12753e-06
6.44327e-06
6.0448e-06
6.85829e-06
8.71346e-06
1.14649e-05
1.52075e-05
1.97715e-05
2.06841e-05
9.17302e-06
2.81348e-06
2.36612e-07
7.86449e-08
1.75428e-06
4.16036e-06
8.8804e-06
1.62281e-05
2.22027e-05
2.4575e-05
2.47693e-05
2.40659e-05
2.3222e-05
2.26185e-05
2.23721e-05
2.24225e-05
2.2636e-05
2.28765e-05
2.30241e-05
2.29807e-05
2.26692e-05
2.20033e-05
2.08426e-05
1.89741e-05
1.62661e-05
1.29754e-05
9.82054e-06
7.45539e-06
6.26333e-06
6.32058e-06
7.57679e-06
1.003e-05
1.38707e-05
1.89721e-05
2.06716e-05
9.27333e-06
2.85174e-06
2.46061e-07
7.9853e-08
1.7528e-06
4.15971e-06
8.91885e-06
1.63113e-05
2.21912e-05
2.442e-05
2.45109e-05
2.37594e-05
2.2915e-05
2.2342e-05
2.21412e-05
2.22397e-05
2.24954e-05
2.27642e-05
2.29203e-05
2.28712e-05
2.25701e-05
2.19926e-05
2.1079e-05
1.96659e-05
1.75456e-05
1.47185e-05
1.16079e-05
8.8364e-06
6.9901e-06
6.33959e-06
6.93843e-06
8.87786e-06
1.25038e-05
1.79732e-05
2.05907e-05
9.30514e-06
2.87339e-06
2.55064e-07
8.14973e-08
1.75242e-06
4.16548e-06
8.97821e-06
1.64204e-05
2.21792e-05
2.42436e-05
2.42217e-05
2.34199e-05
2.25759e-05
2.20344e-05
2.18783e-05
2.20209e-05
2.23095e-05
2.25884e-05
2.2721e-05
2.26156e-05
2.22522e-05
2.16679e-05
2.08869e-05
1.98179e-05
1.82461e-05
1.60042e-05
1.32045e-05
1.03206e-05
8.03186e-06
6.79276e-06
6.78423e-06
8.16163e-06
1.13825e-05
1.69728e-05
2.04995e-05
9.28587e-06
2.88041e-06
2.63125e-07
8.35397e-08
1.75338e-06
4.17795e-06
9.05719e-06
1.65494e-05
2.21608e-05
2.40438e-05
2.39036e-05
2.30518e-05
2.22109e-05
2.17036e-05
2.15933e-05
2.17783e-05
2.20932e-05
2.23677e-05
2.24491e-05
2.22409e-05
2.17482e-05
2.10719e-05
2.03249e-05
1.94965e-05
1.83985e-05
1.67646e-05
1.44409e-05
1.16896e-05
9.17826e-06
7.5134e-06
7.00807e-06
7.88446e-06
1.06687e-05
1.6192e-05
2.04476e-05
9.22092e-06
2.87393e-06
2.69516e-07
8.59034e-08
1.7555e-06
4.19609e-06
9.15117e-06
1.66873e-05
2.21276e-05
2.38199e-05
2.35608e-05
2.26618e-05
2.18271e-05
2.13569e-05
2.12942e-05
2.15219e-05
2.18609e-05
2.2123e-05
2.21338e-05
2.17851e-05
2.11036e-05
2.0258e-05
1.94563e-05
1.87756e-05
1.80718e-05
1.70175e-05
1.5247e-05
1.28055e-05
1.02748e-05
8.34932e-06
7.47709e-06
7.96381e-06
1.03901e-05
1.57907e-05
2.04686e-05
9.11419e-06
2.85684e-06
2.73895e-07
8.85281e-08
1.75873e-06
4.21939e-06
9.2559e-06
1.68237e-05
2.20732e-05
2.35729e-05
2.31989e-05
2.22573e-05
2.14327e-05
2.10031e-05
2.0991e-05
2.12644e-05
2.16304e-05
2.18811e-05
2.18151e-05
2.13031e-05
2.0387e-05
1.93047e-05
1.8366e-05
1.7743e-05
1.73485e-05
1.68186e-05
1.56275e-05
1.36157e-05
1.12325e-05
9.20266e-06
8.09233e-06
8.30665e-06
1.04896e-05
1.57983e-05
2.05609e-05
8.9809e-06
2.83394e-06
2.76483e-07
9.1359e-08
1.76283e-06
4.24654e-06
9.36456e-06
1.69459e-05
2.19943e-05
2.3309e-05
2.28289e-05
2.18507e-05
2.10399e-05
2.06542e-05
2.06969e-05
2.1022e-05
2.14242e-05
2.16756e-05
2.15429e-05
2.08648e-05
1.96864e-05
1.83116e-05
1.71576e-05
1.64979e-05
1.63132e-05
1.62233e-05
1.55992e-05
1.40992e-05
1.20068e-05
1.00206e-05
8.79801e-06
8.85399e-06
1.09114e-05
1.61918e-05
2.07076e-05
8.83385e-06
2.80817e-06
2.77518e-07
9.42601e-08
1.76751e-06
4.27581e-06
9.46912e-06
1.70422e-05
2.18894e-05
2.30351e-05
2.24606e-05
2.14517e-05
2.06578e-05
2.03192e-05
2.04216e-05
2.08074e-05
2.12621e-05
2.15396e-05
2.13718e-05
2.05523e-05
1.91096e-05
1.7402e-05
1.59569e-05
1.51561e-05
1.50577e-05
1.52869e-05
1.51669e-05
1.42136e-05
1.25324e-05
1.07418e-05
9.54823e-06
9.57376e-06
1.16375e-05
1.69689e-05
2.085e-05
8.64661e-06
2.77461e-06
2.76179e-07
9.69759e-08
1.77212e-06
4.30374e-06
9.558e-06
1.7101e-05
2.17599e-05
2.27568e-05
2.20982e-05
2.10614e-05
2.02838e-05
1.9992e-05
2.01561e-05
2.06101e-05
2.11353e-05
2.14731e-05
2.13218e-05
2.04188e-05
1.87471e-05
1.66935e-05
1.48917e-05
1.38416e-05
1.36892e-05
1.40866e-05
1.43591e-05
1.39281e-05
1.27335e-05
1.1279e-05
1.02767e-05
1.04425e-05
1.26921e-05
1.81566e-05
2.08778e-05
8.39149e-06