/*--------------------------------*- C++ -*----------------------------------*\
| =========                 |                                                 |
| \\      /  F ield         | OpenFOAM: The Open Source CFD Toolbox           |
|  \\    /   O peration     | Version:  v1906                                 |
|   \\  /    A nd           | Web:      www.OpenFOAM.com                      |
|    \\/     M anipulation  |                                                 |
\*---------------------------------------------------------------------------*/
FoamFile
{
    version     2.0;
    format      ascii;
    class       surfaceScalarField;
    location    "87/oil";
    object      phi;
}
// * * * * * * * * * * * * * * * * * * * * * * * * * * * * * * * * * * * * * //

dimensions      [1 0 -1 0 0 0 0];
oriented        oriented;


internalField   nonuniform List<scalar> 
80688
(
-2.07442e-06
-2.10902e-06
-2.07441e-06
-9.35779e-07
-5.88706e-07
-5.49932e-07
-2.50777e-07
-3.44907e-07
-3.40095e-07
-1.16973e-07
-6.7329e-08
-6.64754e-08
-3.6977e-08
-4.01459e-08
-3.98499e-08
3.57303e-09
-2.01025e-08
-2.04476e-08
2.64566e-08
-1.09238e-08
-1.196e-08
3.94144e-08
-5.69098e-09
-7.26693e-09
4.5719e-08
-2.2027e-09
-4.10205e-09
4.67795e-08
4.65016e-10
-1.52554e-09
4.334e-08
2.69293e-09
7.4645e-10
3.60715e-08
4.54474e-09
2.72371e-09
2.57054e-08
6.00501e-09
4.36104e-09
1.31355e-08
7.02938e-09
5.54043e-09
-6.029e-10
7.56852e-09
6.16984e-09
-1.44041e-08
7.59938e-09
6.20174e-09
-2.71767e-08
7.12922e-09
5.64334e-09
-3.79353e-08
6.19882e-09
4.55976e-09
-4.58913e-08
4.88549e-09
3.07054e-09
-5.05168e-08
3.28754e-09
1.33787e-09
-5.159e-08
1.52392e-09
-4.50702e-10
-4.91816e-08
-2.80071e-10
-2.12843e-09
-4.37232e-08
-1.97733e-09
-3.48107e-09
-3.59073e-08
-3.47112e-09
-4.34478e-09
-2.66841e-08
-4.61774e-09
-4.60554e-09
-1.72073e-08
-5.2588e-09
-4.21799e-09
-8.75781e-09
-5.19494e-09
-3.2546e-09
-2.60354e-09
-4.19064e-09
-1.96367e-09
3.02389e-10
-2.05203e-09
-8.53951e-10
6.00907e-10
-2.98548e-10
-5.57284e-07
-9.94456e-07
-5.57277e-07
-3.29105e-07
-3.71332e-07
-4.45553e-07
-2.26421e-07
-2.58564e-07
-1.89028e-07
-9.4981e-08
-1.24512e-07
-7.42564e-08
-1.52489e-08
-8.38669e-08
-3.60113e-08
3.52355e-08
-5.80386e-08
-1.25485e-08
6.8297e-08
-4.41485e-08
1.63172e-10
8.8688e-08
-3.448e-08
8.39783e-09
9.86174e-08
-2.68206e-08
1.46884e-08
9.91393e-08
-2.01331e-08
2.00761e-08
9.1085e-08
-1.41545e-08
2.49017e-08
7.54495e-08
-8.95746e-09
2.91376e-08
5.36032e-08
-4.74592e-09
3.25972e-08
2.73121e-08
-1.75634e-09
3.50768e-08
-1.34204e-09
-1.77856e-10
3.64004e-08
-3.01209e-08
-9.27354e-11
3.64709e-08
-5.68097e-08
-1.48427e-09
3.53022e-08
-7.94048e-08
-4.23012e-09
3.30241e-08
-9.63014e-08
-8.08053e-09
2.98626e-08
-1.06423e-07
-1.27018e-08
2.6111e-08
-1.09314e-07
-1.77049e-08
2.21194e-08
-1.05168e-07
-2.26604e-08
1.82339e-08
-9.47944e-08
-2.71296e-08
1.47791e-08
-7.95907e-08
-3.06682e-08
1.19933e-08
-6.14184e-08
-3.28109e-08
1.00208e-08
-4.24678e-08
-3.30513e-08
8.84192e-09
-2.50554e-08
-3.08224e-08
8.21492e-09
-1.13264e-08
-2.55233e-08
7.6037e-09
-2.81862e-09
-1.66631e-08
6.10319e-09
-5.0425e-09
2.82475e-09
-3.44532e-07
-3.05401e-07
-3.44523e-07
-2.21789e-07
-3.04324e-07
-1.89751e-07
-1.33476e-07
-2.34945e-07
-1.11932e-07
-4.39831e-08
-1.65345e-07
-4.86605e-08
2.12959e-08
-1.34091e-07
-1.50547e-08
6.98467e-08
-1.12578e-07
5.98847e-09
1.04435e-07
-9.79578e-08
1.92212e-08
1.26639e-07
-8.55772e-08
2.88931e-08
1.37055e-07
-7.41045e-08
3.68679e-08
1.36016e-07
-6.30724e-08
4.39777e-08
1.24103e-07
-5.26614e-08
5.04201e-08
1.02387e-07
-4.33327e-08
5.60908e-08
7.25733e-08
-3.56497e-08
6.07178e-08
3.69307e-08
-3.01424e-08
6.40286e-08
-1.81972e-09
-2.72144e-08
6.57869e-08
-4.07223e-08
-2.70699e-08
6.58796e-08
-7.68457e-08
-2.96835e-08
6.43227e-08
-1.07549e-07
-3.47942e-08
6.12673e-08
-1.30716e-07
-4.19165e-08
5.70027e-08
-1.4492e-07
-5.03936e-08
5.18965e-08
-1.49565e-07
-5.94428e-08
4.63829e-08
-1.44886e-07
-6.82092e-08
4.08695e-08
-1.31945e-07
-7.58088e-08
3.57382e-08
-1.12512e-07
-8.13452e-08
3.12439e-08
-8.89253e-08
-8.39051e-08
2.75074e-08
-6.38826e-08
-8.25348e-08
2.44407e-08
-4.01579e-08
-7.6228e-08
2.16809e-08
-2.02831e-08
-6.39198e-08
1.85216e-08
-6.2577e-09
-4.45304e-08
1.38419e-08
-1.75648e-08
6.26461e-09
-6.1534e-08
-1.82343e-07
-6.15245e-08
-7.25695e-08
-2.26898e-07
-6.63902e-08
-3.87106e-08
-2.25328e-07
-4.34757e-08
1.4054e-08
-2.06324e-07
-1.1786e-08
6.36974e-08
-1.93767e-07
1.00326e-08
1.06195e-07
-1.81163e-07
2.60874e-08
1.38894e-07
-1.68774e-07
3.81176e-08
1.60446e-07
-1.55223e-07
4.80938e-08
1.69865e-07
-1.40544e-07
5.70208e-08
1.66682e-07
-1.25211e-07
6.53214e-08
1.51128e-07
-1.10087e-07
7.29794e-08
1.24235e-07
-9.62044e-08
7.97643e-08
8.78873e-08
-8.46178e-08
8.53162e-08
4.47114e-08
-7.62572e-08
8.92907e-08
-2.10316e-09
-7.18014e-08
9.14015e-08
-4.90717e-08
-7.16047e-08
9.15033e-08
-9.2732e-08
-7.56361e-08
8.96128e-08
-1.29958e-07
-8.34802e-08
8.59119e-08
-1.58238e-07
-9.43661e-08
8.07301e-08
-1.75898e-07
-1.07233e-07
7.44988e-08
-1.82218e-07
-1.20824e-07
6.7701e-08
-1.77471e-07
-1.33766e-07
6.08111e-08
-1.62862e-07
-1.44649e-07
5.42316e-08
-1.40406e-07
-1.52034e-07
4.8233e-08
-1.12727e-07
-1.545e-07
4.29146e-08
-8.28149e-08
-1.50585e-07
3.81385e-08
-5.37454e-08
-1.38763e-07
3.34651e-08
-2.83782e-08
-1.17356e-07
2.80686e-08
-9.31566e-09
-8.42369e-08
2.06439e-08
-3.62035e-08
9.32296e-09
-2.67377e-08
-1.28878e-07
-2.67275e-08
-1.91457e-08
-2.1363e-07
-2.08602e-08
1.20161e-08
-2.52035e-07
-4.45586e-09
5.54819e-08
-2.6469e-07
1.49005e-08
9.96227e-08
-2.68471e-07
3.05625e-08
1.39442e-07
-2.64578e-07
4.35949e-08
1.7108e-07
-2.55177e-07
5.47647e-08
1.91936e-07
-2.41076e-07
6.49969e-08
2.00168e-07
-2.23532e-07
7.47554e-08
1.94786e-07
-2.03976e-07
8.41461e-08
1.75754e-07
-1.84021e-07
9.29666e-08
1.44084e-07
-1.65372e-07
1.00838e-07
1.01799e-07
-1.49647e-07
1.07314e-07
5.18256e-08
-1.38236e-07
1.11952e-07
-2.23711e-09
-1.32152e-07
1.14414e-07
-5.64429e-08
-1.31917e-07
1.14518e-07
-1.06856e-07
-1.37499e-07
1.12276e-07
-1.49926e-07
-1.48312e-07
1.07902e-07
-1.82805e-07
-1.63262e-07
1.01774e-07
-2.03595e-07
-1.80835e-07
9.43918e-08
-2.11478e-07
-1.9925e-07
8.63091e-08
-2.06745e-07
-2.16557e-07
7.80568e-08
-1.90723e-07
-2.3074e-07
7.00683e-08
-1.6561e-07
-2.39795e-07
6.26477e-08
-1.34255e-07
-2.41739e-07
5.58848e-08
-9.99015e-08
-2.34548e-07
4.96093e-08
-6.58956e-08
-2.16089e-07
4.33203e-08
-3.548e-08
-1.83849e-07
3.60776e-08
-1.19131e-08
-1.3419e-07
2.63866e-08
-6.00374e-08
1.19208e-08
-3.03011e-09
-1.22829e-07
-3.01884e-09
1.46314e-08
-2.38805e-07
7.51278e-09
4.68148e-08
-3.04918e-07
2.07e-08
8.80273e-08
-3.40484e-07
3.45817e-08
1.30811e-07
-3.58282e-07
4.70278e-08
1.70129e-07
-3.62376e-07
5.84804e-08
2.01717e-07
-3.56138e-07
6.93727e-08
2.2232e-07
-3.41807e-07
8.01281e-08
2.29574e-07
-3.21672e-07
9.08855e-08
2.22123e-07
-2.98046e-07
1.0152e-07
1.99754e-07
-2.73311e-07
1.1166e-07
1.6346e-07
-2.4986e-07
1.20782e-07
1.15413e-07
-2.29921e-07
1.28322e-07
5.88416e-08
-2.15393e-07
1.33728e-07
-2.25708e-09
-2.07643e-07
1.36589e-07
-6.3477e-08
-2.07384e-07
1.36688e-07
-1.20421e-07
-2.14588e-07
1.34034e-07
-1.69117e-07
-2.28485e-07
1.28869e-07
-2.06389e-07
-2.47628e-07
1.21638e-07
-2.30129e-07
-2.70026e-07
1.12931e-07
-2.39434e-07
-2.93335e-07
1.03389e-07
-2.34618e-07
-3.14981e-07
9.36089e-08
-2.17133e-07
-3.32344e-07
8.41191e-08
-1.89355e-07
-3.42808e-07
7.52351e-08
-1.54368e-07
-3.43787e-07
6.7061e-08
-1.15668e-07
-3.32652e-07
5.94035e-08
-7.692e-08
-3.06543e-07
5.17067e-08
-4.17755e-08
-2.61907e-07
4.29136e-08
-1.41471e-08
-1.93132e-07
3.13135e-08
-8.83401e-08
1.41555e-08
7.94951e-09
-1.3874e-07
7.96184e-09
3.30827e-08
-2.87165e-07
2.32268e-08
6.96586e-08
-3.78034e-07
3.65404e-08
1.13047e-07
-4.32679e-07
4.8807e-08
1.57528e-07
-4.62932e-07
6.01681e-08
1.98301e-07
-4.74416e-07
7.12673e-08
2.30995e-07
-4.71376e-07
8.25434e-08
2.5203e-07
-4.57081e-07
9.42401e-08
2.58723e-07
-4.34685e-07
1.0632e-07
2.49457e-07
-4.07272e-07
1.18493e-07
2.23888e-07
-3.77977e-07
1.30234e-07
1.83029e-07
-3.49874e-07
1.40873e-07
1.29225e-07
-3.2581e-07
1.49693e-07
6.6007e-08
-3.08207e-07
1.56031e-07
-2.19648e-09
-2.9882e-07
1.5938e-07
-7.04971e-08
-2.98552e-07
1.59468e-07
-1.34012e-07
-3.0738e-07
1.56307e-07
-1.88329e-07
-3.24348e-07
1.5018e-07
-2.29935e-07
-3.47643e-07
1.41622e-07
-2.5651e-07
-3.74772e-07
1.31321e-07
-2.67078e-07
-4.02806e-07
1.20038e-07
-2.61999e-07
-4.28557e-07
1.08497e-07
-2.42871e-07
-4.48764e-07
9.72929e-08
-2.12279e-07
-4.60204e-07
8.68033e-08
-1.7356e-07
-4.59663e-07
7.71567e-08
-1.30506e-07
-4.43844e-07
6.81382e-08
-8.7125e-08
-4.09055e-07
5.91311e-08
-4.74992e-08
-3.50495e-07
4.89618e-08
-1.61378e-08
-2.60186e-07
3.56924e-08
-1.20625e-07
1.61472e-08
1.39214e-08
-1.66596e-07
1.39348e-08
4.49672e-08
-3.51213e-07
3.30029e-08
8.63944e-08
-4.66871e-07
4.74098e-08
1.33483e-07
-5.39428e-07
5.96607e-08
1.81096e-07
-5.81625e-07
7.10793e-08
2.24462e-07
-6.00409e-07
8.26272e-08
2.59086e-07
-6.00841e-07
9.48404e-08
2.8116e-07
-5.87067e-07
1.07913e-07
2.87704e-07
-5.6293e-07
1.217e-07
2.76913e-07
-5.32248e-07
1.35768e-07
2.48311e-07
-4.98829e-07
1.49454e-07
2.02945e-07
-4.6644e-07
1.61933e-07
1.43337e-07
-4.38523e-07
1.72321e-07
7.33696e-08
-4.18029e-07
1.79789e-07
-2.08375e-09
-4.07089e-07
1.83723e-07
-7.76121e-08
-4.06825e-07
1.83801e-07
-1.47808e-07
-4.17214e-07
1.80029e-07
-2.07793e-07
-4.37104e-07
1.7274e-07
-2.53699e-07
-4.64302e-07
1.62565e-07
-2.82995e-07
-4.95831e-07
1.50354e-07
-2.94652e-07
-5.28163e-07
1.37014e-07
-2.89114e-07
-5.57495e-07
1.23401e-07
-2.68137e-07
-5.79948e-07
1.10207e-07
-2.34559e-07
-5.91681e-07
9.78995e-08
-1.92012e-07
-5.88855e-07
8.66447e-08
-1.44605e-07
-5.67467e-07
7.62166e-08
-9.67013e-08
-5.22888e-07
6.59286e-08
-5.28051e-08
-4.48866e-07
5.44755e-08
-1.79668e-08
-3.34713e-07
3.9689e-08
-1.56569e-07
1.79774e-08
1.75644e-08
-2.0174e-07
1.75788e-08
5.3286e-08
-4.26593e-07
3.96579e-08
9.93662e-08
-5.68379e-07
5.54273e-08
1.50635e-07
-6.59054e-07
6.83577e-08
2.02021e-07
-7.13472e-07
8.04615e-08
2.48602e-07
-7.39981e-07
9.29912e-08
2.85713e-07
-7.44536e-07
1.06583e-07
3.09284e-07
-7.32055e-07
1.21416e-07
3.16089e-07
-7.07038e-07
1.37302e-07
3.04074e-07
-6.73908e-07
1.53676e-07
2.72683e-07
-6.37141e-07
1.69703e-07
2.22945e-07
-6.01082e-07
1.8438e-07
1.57579e-07
-5.69773e-07
1.96616e-07
8.08264e-08
-5.4669e-07
2.05414e-07
-1.94326e-09
-5.34367e-07
2.10048e-07
-8.47662e-08
-5.34115e-07
2.10113e-07
-1.61674e-07
-5.45919e-07
2.05613e-07
-2.27302e-07
-5.68426e-07
1.9695e-07
-2.77411e-07
-5.99086e-07
1.84892e-07
-3.09266e-07
-6.34406e-07
1.70431e-07
-3.21808e-07
-6.70267e-07
1.54646e-07
-3.15591e-07
-7.02312e-07
1.386e-07
-2.92582e-07
-7.26076e-07
1.23118e-07
-2.55917e-07
-7.37114e-07
1.08768e-07
-2.0953e-07
-7.30977e-07
9.57345e-08
-1.57864e-07
-7.02924e-07
8.37911e-08
-1.05631e-07
-6.47342e-07
7.22206e-08
-5.77213e-08
-5.56327e-07
5.95508e-08
-1.96562e-08
-4.1614e-07
4.33616e-08
-1.95894e-07
1.96679e-08
2.00473e-08
-2.4185e-07
2.00626e-08
5.95265e-08
-5.10585e-07
4.45124e-08
1.09751e-07
-6.80184e-07
6.15802e-08
1.65092e-07
-7.89841e-07
7.54464e-08
2.20296e-07
-8.57252e-07
8.85755e-08
2.70263e-07
-8.92374e-07
1.02426e-07
3.10134e-07
-9.0215e-07
1.17744e-07
3.35509e-07
-8.92154e-07
1.34723e-07
3.42923e-07
-8.67529e-07
1.53078e-07
3.30075e-07
-8.3322e-07
1.7216e-07
2.96213e-07
-7.94221e-07
1.90942e-07
2.42386e-07
-7.55448e-07
2.08192e-07
1.71497e-07
-7.21495e-07
2.22611e-07
8.81438e-08
-6.96338e-07
2.33001e-07
-1.79368e-09
-6.82874e-07
2.38444e-07
-9.17665e-08
-6.82638e-07
2.38496e-07
-1.75225e-07
-6.95623e-07
2.33162e-07
-2.46283e-07
-7.2026e-07
2.22893e-07
-3.00329e-07
-7.53637e-07
2.08597e-07
-3.34468e-07
-7.91767e-07
1.915e-07
-3.47623e-07
-8.3003e-07
1.72919e-07
-3.40511e-07
-8.63497e-07
1.54074e-07
-3.15369e-07
-8.87194e-07
1.35975e-07
-2.75618e-07
-8.96165e-07
1.193e-07
-2.25527e-07
-8.85375e-07
1.04307e-07
-1.69861e-07
-8.49373e-07
9.07821e-08
-1.13668e-07
-7.81428e-07
7.78935e-08
-6.21385e-08
-6.71912e-07
6.40558e-08
-2.118e-08
-5.03736e-07
4.66372e-08
-2.38266e-07
2.11928e-08
2.18147e-08
-2.85494e-07
2.18295e-08
6.42042e-08
-6.01049e-07
4.8075e-08
1.17803e-07
-8.00052e-07
6.62697e-08
1.76637e-07
-9.29774e-07
8.10994e-08
2.35285e-07
-1.01126e-06
9.53598e-08
2.88459e-07
-1.05628e-06
1.10729e-07
3.3104e-07
-1.07277e-06
1.28036e-07
3.58396e-07
-1.06697e-06
1.47461e-07
3.66734e-07
-1.04453e-06
1.68659e-07
3.53467e-07
-1.0108e-06
1.90845e-07
3.17651e-07
-9.71191e-07
2.12786e-07
2.60288e-07
-9.31111e-07
2.33025e-07
1.84408e-07
-8.95595e-07
2.4998e-07
9.49663e-08
-8.69105e-07
2.62208e-07
-1.64973e-09
-8.54862e-07
2.68604e-07
-9.82847e-08
-8.54645e-07
2.68642e-07
-1.87788e-07
-8.68433e-07
2.62313e-07
-2.63746e-07
-8.9448e-07
2.50178e-07
-3.21229e-07
-9.29492e-07
2.33337e-07
-3.57191e-07
-9.69032e-07
2.13227e-07
-3.70579e-07
-1.00805e-06
1.91408e-07
-3.62353e-07
-1.04111e-06
1.69384e-07
-3.35049e-07
-1.06287e-06
1.48369e-07
-2.92398e-07
-1.06795e-06
1.29137e-07
-2.38986e-07
-1.05081e-06
1.12027e-07
-1.79873e-07
-1.00531e-06
9.68253e-08
-1.20324e-07
-9.23642e-07
8.26646e-08
-6.57912e-08
-7.94245e-07
6.77998e-08
-2.24566e-08
-5.96409e-07
4.93389e-08
-2.83193e-07
2.24703e-08
2.29596e-08
-3.31428e-07
2.29746e-08
6.72866e-08
-6.95743e-07
5.03667e-08
1.23208e-07
-9.25322e-07
6.93478e-08
1.84552e-07
-1.07614e-06
8.50258e-08
2.45825e-07
-1.17299e-06
1.00452e-07
3.01582e-07
-1.22946e-06
1.1743e-07
3.46547e-07
-1.25458e-06
1.36847e-07
3.75866e-07
-1.25522e-06
1.58935e-07
3.85387e-07
-1.23731e-06
1.83267e-07
3.72257e-07
-1.20659e-06
2.08919e-07
3.35273e-07
-1.16867e-06
2.34459e-07
2.75252e-07
-1.12923e-06
2.58141e-07
1.9536e-07
-1.09376e-06
2.78055e-07
1.00799e-07
-1.067e-06
2.92451e-07
-1.51816e-09
-1.05254e-06
2.99992e-07
-1.03843e-07
-1.05234e-06
3.00022e-07
-1.98415e-07
-1.06641e-06
2.92545e-07
-2.78358e-07
-1.09275e-06
2.78217e-07
-3.38404e-07
-1.1278e-06
2.58359e-07
-3.75423e-07
-1.16677e-06
2.34757e-07
-3.88579e-07
-1.2042e-06
2.09301e-07
-3.79031e-07
-1.23443e-06
1.83777e-07
-3.4965e-07
-1.25183e-06
1.59581e-07
-3.04519e-07
-1.25071e-06
1.37622e-07
-2.48483e-07
-1.22517e-06
1.18322e-07
-1.86785e-07
-1.16845e-06
1.01438e-07
-1.24877e-07
-1.0716e-06
8.60479e-08
-6.8305e-08
-9.21132e-07
7.03158e-08
-2.33405e-08
-6.92518e-07
5.11438e-08
-3.29888e-07
2.33544e-08
2.34269e-08
-3.78299e-07
2.34438e-08
6.84772e-08
-7.92018e-07
5.12246e-08
1.25249e-07
-1.05263e-06
7.05324e-08
1.8765e-07
-1.22531e-06
8.67656e-08
2.50182e-07
-1.33868e-06
1.03167e-07
3.07464e-07
-1.40841e-06
1.21662e-07
3.54146e-07
-1.44443e-06
1.43172e-07
3.85168e-07
-1.45422e-06
1.67975e-07
3.9614e-07
-1.44389e-06
1.95607e-07
3.83833e-07
-1.41929e-06
2.25007e-07
3.46715e-07
-1.38609e-06
2.54544e-07
2.85416e-07
-1.35003e-06
2.82098e-07
2.0303e-07
-1.31677e-06
3.05399e-07
1.04972e-07
-1.29126e-06
3.22321e-07
-1.40589e-09
-1.27737e-06
3.31216e-07
-1.07782e-07
-1.2772e-06
3.31232e-07
-2.05838e-07
-1.29072e-06
3.2237e-07
-2.88208e-07
-1.31587e-06
3.05486e-07
-3.49458e-07
-1.34877e-06
2.82216e-07
-3.86538e-07
-1.38442e-06
2.54726e-07
-3.98793e-07
-1.41723e-06
2.2529e-07
-3.8774e-07
-1.44147e-06
1.95987e-07
-3.56584e-07
-1.45141e-06
1.68422e-07
-3.09711e-07
-1.44129e-06
1.43708e-07
-2.52125e-07
-1.40501e-06
1.22254e-07
-1.89218e-07
-1.33517e-06
1.03819e-07
-1.2639e-07
-1.22187e-06
8.74408e-08
-6.91199e-08
-1.04956e-06
7.11587e-08
-2.3665e-08
-7.8969e-07
5.17168e-08
-3.77233e-07
2.36793e-08
2.30532e-08
-4.24413e-07
2.30604e-08
6.72305e-08
-8.86429e-07
5.02336e-08
1.22944e-07
-1.17755e-06
6.9212e-08
1.84357e-07
-1.3723e-06
8.55722e-08
2.46291e-07
-1.50322e-06
1.02603e-07
3.03519e-07
-1.58793e-06
1.22293e-07
3.50781e-07
-1.63738e-06
1.45686e-07
3.82963e-07
-1.65943e-06
1.73028e-07
3.95494e-07
-1.6603e-06
2.03879e-07
3.8481e-07
-1.64565e-06
2.37048e-07
3.48995e-07
-1.62097e-06
2.7069e-07
2.88339e-07
-1.59182e-06
3.02441e-07
2.05703e-07
-1.56371e-06
3.29579e-07
1.06607e-07
-1.5416e-06
3.49436e-07
-1.31156e-09
-1.52939e-06
3.5993e-07
-1.09219e-07
-1.52923e-06
3.59937e-07
-2.08272e-07
-1.54112e-06
3.49457e-07
-2.90855e-07
-1.56291e-06
3.29618e-07
-3.51448e-07
-1.59071e-06
3.0253e-07
-3.87182e-07
-1.61951e-06
2.70827e-07
-3.97743e-07
-1.64386e-06
2.37193e-07
-3.85077e-07
-1.65824e-06
2.04099e-07
-3.52714e-07
-1.6571e-06
1.7333e-07
-3.05236e-07
-1.63481e-06
1.46049e-07
-2.47753e-07
-1.58522e-06
1.22723e-07
-1.85518e-07
-1.50048e-06
1.03071e-07
-1.23737e-07
-1.36967e-06
8.60227e-08
-6.76712e-08
-1.17525e-06
6.96264e-08
-2.3198e-08
-8.84716e-07
5.05531e-08
-4.23642e-07
2.32118e-08
2.16239e-08
-4.67669e-07
2.16327e-08
6.29342e-08
-9.74695e-07
4.69558e-08
1.15164e-07
-1.29459e-06
6.48129e-08
1.73006e-07
-1.51079e-06
8.06481e-08
2.31797e-07
-1.65974e-06
9.7725e-08
2.86756e-07
-1.76093e-06
1.18041e-07
3.3293e-07
-1.82622e-06
1.42661e-07
3.65339e-07
-1.86372e-06
1.71878e-07
3.79367e-07
-1.87963e-06
2.05301e-07
3.71149e-07
-1.87921e-06
2.41771e-07
3.38351e-07
-1.86744e-06
2.79277e-07
2.80852e-07
-1.84942e-06
3.15104e-07
2.01128e-07
-1.83004e-06
3.46048e-07
1.04516e-07
-1.81396e-06
3.68974e-07
-1.23564e-09
-1.80482e-06
3.81189e-07
-1.06969e-07
-1.80468e-06
3.81187e-07
-2.03536e-07
-1.81353e-06
3.68972e-07
-2.8318e-07
-1.82931e-06
3.46051e-07
-3.4058e-07
-1.84841e-06
3.15101e-07
-3.73226e-07
-1.86617e-06
2.79309e-07
-3.8127e-07
-1.8777e-06
2.4188e-07
-3.67094e-07
-1.87788e-06
2.05468e-07
-3.34509e-07
-1.86175e-06
1.72068e-07
-2.88093e-07
-1.82413e-06
1.42898e-07
-2.32901e-07
-1.75873e-06
1.18316e-07
-1.73828e-07
-1.65757e-06
9.80233e-08
-1.1573e-07
-1.50871e-06
8.09452e-08
-6.32537e-08
-1.29282e-06
6.50859e-08
-2.17209e-08
-9.73416e-07
4.71675e-08
-4.67098e-07
2.17342e-08
1.8936e-08
-5.05547e-07
1.89418e-08
5.5057e-08
-1.05177e-06
4.09555e-08
1.00804e-07
-1.39701e-06
5.66726e-08
1.51882e-07
-1.633e-06
7.11359e-08
2.04385e-07
-1.79963e-06
8.73934e-08
2.54236e-07
-1.91813e-06
1.07353e-07
2.97055e-07
-2.00112e-06
1.32084e-07
3.28253e-07
-2.05692e-06
1.62001e-07
3.43321e-07
-2.09145e-06
1.96753e-07
3.3832e-07
-2.10939e-06
2.35187e-07
3.10587e-07
-2.11496e-06
2.75253e-07
2.59377e-07
-2.11235e-06
3.14138e-07
1.86649e-07
-2.10555e-06
3.4824e-07
9.72993e-08
-2.09841e-06
3.73799e-07
-1.17232e-09
-2.0939e-06
3.87548e-07
-9.96193e-08
-2.09378e-06
3.87542e-07
-1.88901e-07
-2.09803e-06
3.73786e-07
-2.61515e-07
-2.10492e-06
3.48223e-07
-3.12611e-07
-2.11146e-06
3.14148e-07
-3.40197e-07
-2.11388e-06
2.75292e-07
-3.45057e-07
-2.10806e-06
2.35225e-07
-3.29802e-07
-2.08996e-06
1.96827e-07
-2.98375e-07
-2.05529e-06
1.62111e-07
-2.5537e-07
-1.99936e-06
1.32229e-07
-2.05278e-07
-1.91635e-06
1.07526e-07
-1.52553e-07
-1.79788e-06
8.75864e-08
-1.01222e-07
-1.63138e-06
7.13313e-08
-5.52546e-08
-1.39564e-06
5.68537e-08
-1.90001e-08
-1.05077e-06
4.10988e-08
-5.0511e-07
1.90125e-08
1.48253e-08
-5.35206e-07
1.4834e-08
4.30475e-08
-1.11189e-06
3.18964e-08
7.90603e-08
-1.47737e-06
4.43389e-08
1.19728e-07
-1.73007e-06
5.63992e-08
1.62307e-07
-1.91291e-06
7.06975e-08
2.03633e-07
-2.04842e-06
8.89577e-08
2.40229e-07
-2.14986e-06
1.12139e-07
2.68193e-07
-2.22559e-06
1.40705e-07
2.83453e-07
-2.28117e-06
1.74461e-07
2.8219e-07
-2.32056e-06
2.12432e-07
2.61509e-07
-2.34697e-06
2.52689e-07
2.20193e-07
-2.36332e-06
2.92281e-07
1.59468e-07
-2.37229e-06
3.2747e-07
8.3431e-08
-2.37654e-06
3.54168e-07
-1.11972e-09
-2.37798e-06
3.68628e-07
-8.5648e-08
-2.3779e-06
3.68648e-07
-1.6163e-07
-2.37622e-06
3.54171e-07
-2.22226e-07
-2.37176e-06
3.27435e-07
-2.63392e-07
-2.36254e-06
2.92243e-07
-2.83907e-07
-2.34603e-06
2.52664e-07
-2.84984e-07
-2.31941e-06
2.12424e-07
-2.69531e-07
-2.27989e-06
1.74478e-07
-2.41363e-07
-2.22421e-06
1.40752e-07
-2.04558e-07
-2.14838e-06
1.12214e-07
-1.63008e-07
-2.04695e-06
8.90568e-08
-1.20237e-07
-1.91147e-06
7.08132e-08
-7.93763e-08
-1.72876e-06
5.65215e-08
-4.32015e-08
-1.47627e-06
4.44547e-08
-1.48736e-08
-1.11109e-06
3.19918e-08
-5.34869e-07
1.48852e-08
9.23568e-09
-5.53673e-07
9.23104e-09
2.68055e-08
-1.14912e-06
1.96603e-08
4.96093e-08
-1.52775e-06
2.75786e-08
7.60847e-08
-1.79264e-06
3.60956e-08
1.0475e-07
-1.98867e-06
4.70915e-08
1.33814e-07
-2.13939e-06
6.19061e-08
1.60904e-07
-2.2584e-06
8.14546e-08
1.83187e-07
-2.35398e-06
1.06106e-07
1.97352e-07
-2.43115e-06
1.35815e-07
2.00002e-07
-2.49302e-06
1.69808e-07
1.88345e-07
-2.5417e-06
2.06386e-07
1.60702e-07
-2.57863e-06
2.42959e-07
1.17568e-07
-2.60506e-06
2.75901e-07
6.1816e-08
-2.62199e-06
3.01202e-07
-1.07461e-09
-2.63018e-06
3.15092e-07
-6.3939e-08
-2.63011e-06
3.15081e-07
-1.19617e-07
-2.62171e-06
3.01165e-07
-1.62628e-07
-2.6046e-06
2.75847e-07
-1.90103e-07
-2.57799e-06
2.42931e-07
-2.016e-07
-2.54089e-06
2.06356e-07
-1.98738e-07
-2.49204e-06
1.69762e-07
-1.84373e-07
-2.43005e-06
1.35789e-07
-1.61905e-07
-2.35279e-06
1.06106e-07
-1.34594e-07
-2.25717e-06
8.14775e-08
-1.05364e-07
-2.13813e-06
6.19489e-08
-7.64973e-08
-1.98749e-06
4.71523e-08
-4.98571e-08
-1.79156e-06
3.61666e-08
-2.69404e-08
-1.52684e-06
2.76535e-08
-9.25867e-09
-1.1485e-06
1.97262e-08
-5.53397e-07
9.26952e-09
2.24277e-09
-5.58156e-07
2.24037e-09
6.60214e-09
-1.15795e-06
4.47428e-09
1.29417e-08
-1.54083e-06
6.74198e-09
2.15691e-08
-1.81179e-06
1.05236e-08
3.25499e-08
-2.01646e-06
1.68127e-08
4.56041e-08
-2.17882e-06
2.63748e-08
5.98368e-08
-2.31247e-06
3.9842e-08
7.37642e-08
-2.42551e-06
5.76071e-08
8.52112e-08
-2.52225e-06
7.96493e-08
9.17281e-08
-2.60506e-06
1.05522e-07
9.07646e-08
-2.67476e-06
1.34018e-07
8.05097e-08
-2.73139e-06
1.63016e-07
6.04905e-08
-2.77455e-06
1.89504e-07
3.21389e-08
-2.80373e-06
2.10086e-07
-1.03297e-09
-2.81843e-06
2.21421e-07
-3.4171e-08
-2.81834e-06
2.21367e-07
-6.24173e-08
-2.80346e-06
2.1e-07
-8.23315e-08
-2.77411e-06
1.89429e-07
-9.24464e-08
-2.73077e-06
1.62895e-07
-9.32233e-08
-2.674e-06
1.33894e-07
-8.65137e-08
-2.60419e-06
1.05442e-07
-7.48472e-08
-2.5213e-06
7.95872e-08
-6.07367e-08
-2.42446e-06
5.75637e-08
-4.62912e-08
-2.31144e-06
3.98222e-08
-3.30508e-08
-2.17775e-06
2.63762e-08
-2.19172e-08
-2.01545e-06
1.68301e-08
-1.31435e-08
-1.81089e-06
1.05565e-08
-6.66907e-09
-1.5401e-06
6.78511e-09
-2.2608e-09
-1.15742e-06
4.51883e-09
-5.57929e-07
2.27122e-09
-5.89508e-09
-5.46365e-07
-5.89669e-09
-1.68377e-08
-1.13385e-06
-1.31583e-08
-2.95319e-08
-1.51064e-06
-1.74983e-08
-4.17337e-08
-1.78017e-06
-1.94144e-08
-5.15984e-08
-1.98754e-06
-1.90537e-08
-5.77683e-08
-2.15625e-06
-1.63999e-08
-5.93422e-08
-2.29966e-06
-1.1236e-08
-5.62311e-08
-2.42534e-06
-3.28086e-09
-4.90096e-08
-2.53713e-06
7.65686e-09
-3.90044e-08
-2.63651e-06
2.14526e-08
-2.8027e-08
-2.72319e-06
3.74514e-08
-1.79027e-08
-2.79591e-06
5.43904e-08
-9.97409e-09
-2.85285e-06
7.03741e-08
-4.61204e-09
-2.89218e-06
8.30909e-08
-9.84319e-10
-2.91228e-06
9.02259e-08
2.66874e-09
-2.9122e-06
9.02013e-08
8.09378e-09
-2.89192e-06
8.30287e-08
1.61732e-08
-2.85248e-06
7.02838e-08
2.64533e-08
-2.79533e-06
5.42819e-08
3.7612e-08
-2.7225e-06
3.7341e-08
4.78078e-08
-2.63573e-06
2.13489e-08
5.52088e-08
-2.53627e-06
7.56815e-09
5.85324e-08
-2.42443e-06
-3.35103e-09
5.7129e-08
-2.29875e-06
-1.12851e-08
5.11377e-08
-2.15533e-06
-1.64281e-08
4.14456e-08
-1.9867e-06
-1.90631e-08
2.93767e-08
-1.77942e-06
-1.94065e-08
1.67587e-08
-1.51e-06
-1.74774e-08
5.88248e-09
-1.13342e-06
-1.31287e-08
-5.46175e-07
-5.87201e-09
-1.46903e-08
-5.16981e-07
-1.46939e-08
-4.21337e-08
-1.07427e-06
-3.21409e-08
-7.54528e-08
-1.43371e-06
-4.36124e-08
-1.10288e-07
-1.69343e-06
-5.19084e-08
-1.43065e-07
-1.89628e-06
-5.84826e-08
-1.70611e-07
-2.06466e-06
-6.40425e-08
-1.90174e-07
-2.21126e-06
-6.88471e-08
-1.9973e-07
-2.34297e-06
-7.28114e-08
-1.98055e-07
-2.46316e-06
-7.56436e-08
-1.85001e-07
-2.57243e-06
-7.71376e-08
-1.61374e-07
-2.6697e-06
-7.71115e-08
-1.28887e-07
-2.75273e-06
-7.56618e-08
-8.97332e-08
-2.81864e-06
-7.33613e-08
-4.63393e-08
-2.8646e-06
-7.09696e-08
-9.29257e-10
-2.88823e-06
-6.94632e-08
4.45143e-08
-2.88815e-06
-6.9488e-08
8.79981e-08
-2.8644e-06
-7.09992e-08
1.27246e-07
-2.8183e-06
-7.34222e-08
1.59887e-07
-2.7522e-06
-7.57751e-08
1.83688e-07
-2.66907e-06
-7.723e-08
1.96925e-07
-2.57172e-06
-7.72525e-08
1.98769e-07
-2.46237e-06
-7.57459e-08
1.8942e-07
-2.34219e-06
-7.28955e-08
1.7002e-07
-2.21043e-06
-6.89143e-08
1.42656e-07
-2.06388e-06
-6.40887e-08
1.10016e-07
-1.89555e-06
-5.85085e-08
7.53056e-08
-1.69279e-06
-5.19169e-08
4.20859e-08
-1.43318e-06
-4.3604e-08
1.46825e-08
-1.0739e-06
-3.21187e-08
-5.16821e-07
-1.46711e-08
-2.35252e-08
-4.69928e-07
-2.35272e-08
-6.74984e-08
-9.79153e-07
-5.11424e-08
-1.21492e-07
-1.30988e-06
-6.98291e-08
-1.79246e-07
-1.55102e-06
-8.46594e-08
-2.35451e-07
-1.74162e-06
-9.84537e-08
-2.85093e-07
-1.90219e-06
-1.12823e-07
-3.23555e-07
-2.04431e-06
-1.28486e-07
-3.4673e-07
-2.17427e-06
-1.4553e-07
-3.51493e-07
-2.29474e-06
-1.63661e-07
-3.35957e-07
-2.40585e-06
-1.82118e-07
-2.99818e-07
-2.50597e-06
-1.99866e-07
-2.44502e-07
-2.59219e-06
-2.15858e-07
-1.73032e-07
-2.66116e-06
-2.28946e-07
-8.99671e-08
-2.70948e-06
-2.38185e-07
-8.63851e-10
-2.73439e-06
-2.42943e-07
8.82591e-08
-2.73431e-06
-2.42963e-07
1.71395e-07
-2.70926e-06
-2.3828e-07
2.42953e-07
-2.66079e-06
-2.29064e-07
2.98445e-07
-2.59173e-06
-2.1596e-07
3.34722e-07
-2.50538e-06
-1.99974e-07
3.50411e-07
-2.40518e-06
-1.82222e-07
3.45839e-07
-2.29404e-06
-1.63759e-07
3.22811e-07
-2.17354e-06
-1.45616e-07
2.84536e-07
-2.0436e-06
-1.28556e-07
2.3504e-07
-1.90151e-06
-1.12876e-07
1.78981e-07
-1.741e-06
-9.84912e-08
1.21357e-07
-1.55051e-06
-8.46593e-08
6.74363e-08
-1.30945e-06
-6.98101e-08
2.35184e-08
-9.78853e-07
-5.11265e-08
-4.69796e-07
-2.35069e-08
-3.15984e-08
-4.0673e-07
-3.16002e-08
-9.06504e-08
-8.51658e-07
-6.8443e-08
-1.63691e-07
-1.1432e-06
-9.36423e-08
-2.42766e-07
-1.35741e-06
-1.14533e-07
-3.21088e-07
-1.52807e-06
-1.35233e-07
-3.91941e-07
-1.6732e-06
-1.5814e-07
-4.48754e-07
-1.80303e-06
-1.84467e-07
-4.85459e-07
-1.92302e-06
-2.14545e-07
-4.96961e-07
-2.03537e-06
-2.47865e-07
-4.7965e-07
-2.13994e-06
-2.83221e-07
-4.32061e-07
-2.23475e-06
-3.18811e-07
-3.55143e-07
-2.31689e-06
-3.52222e-07
-2.52882e-07
-2.38275e-06
-3.80672e-07
-1.31845e-07
-2.42898e-06
-4.01535e-07
-7.83502e-10
-2.45281e-06
-4.12641e-07
1.30297e-07
-2.45274e-06
-4.12655e-07
2.51384e-07
-2.42877e-06
-4.01576e-07
3.53754e-07
-2.38243e-06
-3.80734e-07
4.3073e-07
-2.31641e-06
-3.52297e-07
4.78491e-07
-2.23424e-06
-3.18898e-07
4.95952e-07
-2.13934e-06
-2.83303e-07
4.8462e-07
-2.03476e-06
-2.47948e-07
4.48075e-07
-1.92238e-06
-2.14622e-07
3.91409e-07
-1.8024e-06
-1.84532e-07
3.20723e-07
-1.67263e-06
-1.58192e-07
2.42546e-07
-1.52755e-06
-1.35271e-07
1.63564e-07
-1.35695e-06
-1.14575e-07
9.06039e-08
-1.14283e-06
-9.36585e-08
3.1593e-08
-8.51413e-07
-6.84291e-08
-4.06623e-07
-3.15802e-08
-3.7994e-08
-3.30746e-07
-3.79902e-08
-1.09107e-07
-6.98432e-07
-8.2113e-08
-1.97692e-07
-9.42144e-07
-1.12472e-07
-2.94608e-07
-1.12226e-06
-1.38236e-07
-3.91812e-07
-1.2662e-06
-1.64669e-07
-4.81115e-07
-1.389e-06
-1.94895e-07
-5.54247e-07
-1.49937e-06
-2.30522e-07
-6.03304e-07
-1.60193e-06
-2.72034e-07
-6.21324e-07
-1.69852e-06
-3.18824e-07
-6.03107e-07
-1.78886e-06
-3.69296e-07
-5.46042e-07
-1.87106e-06
-4.20758e-07
-4.50851e-07
-1.9424e-06
-4.69681e-07
-3.22075e-07
-1.99966e-06
-5.11869e-07
-1.68139e-07
-2.03985e-06
-5.43071e-07
-6.94716e-10
-2.06058e-06
-5.59677e-07
1.6676e-07
-2.06051e-06
-5.59681e-07
3.20734e-07
-2.03966e-06
-5.43086e-07
4.49562e-07
-1.99936e-06
-5.11899e-07
5.44859e-07
-1.94199e-06
-4.69715e-07
6.02034e-07
-1.87061e-06
-4.20807e-07
6.20381e-07
-1.78834e-06
-3.69343e-07
6.02487e-07
-1.69799e-06
-3.18876e-07
5.5361e-07
-1.60142e-06
-2.72085e-07
4.80606e-07
-1.49883e-06
-2.30567e-07
3.91448e-07
-1.38853e-06
-1.94937e-07
2.94364e-07
-1.26576e-06
-1.64702e-07
1.97559e-07
-1.12189e-06
-1.38254e-07
1.09067e-07
-9.41863e-07
-1.12473e-07
3.79839e-08
-6.98232e-07
-8.20985e-08
-3.30668e-07
-3.79712e-08
-4.17402e-08
-2.47262e-07
-4.17429e-08
-1.20292e-07
-5.29829e-07
-9.00508e-08
-2.19047e-07
-7.20027e-07
-1.23363e-07
-3.28413e-07
-8.60852e-07
-1.52037e-07
-4.39464e-07
-9.72987e-07
-1.82159e-07
-5.42823e-07
-1.06821e-06
-2.17427e-07
-6.28821e-07
-1.15359e-06
-2.59789e-07
-6.87922e-07
-1.23301e-06
-3.09813e-07
-7.11742e-07
-1.30791e-06
-3.66794e-07
-6.93714e-07
-1.37811e-06
-4.28777e-07
-6.30289e-07
-1.44205e-06
-4.92433e-07
-5.21882e-07
-1.49754e-06
-5.53261e-07
-3.73578e-07
-1.54209e-06
-6.05877e-07
-1.95195e-07
-1.57331e-06
-6.44924e-07
-5.97658e-10
-1.58938e-06
-6.65793e-07
1.94007e-07
-1.58933e-06
-6.65788e-07
3.72412e-07
-1.57315e-06
-6.44912e-07
5.20772e-07
-1.54187e-06
-6.05851e-07
6.29237e-07
-1.49725e-06
-5.53208e-07
6.9272e-07
-1.44169e-06
-4.92406e-07
7.10856e-07
-1.3777e-06
-4.28786e-07
6.87184e-07
-1.3075e-06
-3.66814e-07
6.28187e-07
-1.23258e-06
-3.0984e-07
5.42358e-07
-1.15319e-06
-2.59817e-07
4.39125e-07
-1.06784e-06
-2.17457e-07
3.28189e-07
-9.72647e-07
-1.8218e-07
2.18933e-07
-8.60585e-07
-1.52052e-07
1.20241e-07
-7.19808e-07
-1.23362e-07
4.17371e-08
-5.29692e-07
-9.00364e-08
-2.47206e-07
-4.17245e-08
-4.18924e-08
-1.63479e-07
-4.18906e-08
-1.21717e-07
-3.59809e-07
-9.01961e-08
-2.23734e-07
-4.94665e-07
-1.23344e-07
-3.38541e-07
-5.93948e-07
-1.52097e-07
-4.56787e-07
-6.71784e-07
-1.82957e-07
-5.68261e-07
-7.36787e-07
-2.19954e-07
-6.62231e-07
-7.94364e-07
-2.65251e-07
-7.28185e-07
-8.47563e-07
-3.19496e-07
-7.56582e-07
-8.97627e-07
-3.81887e-07
-7.40012e-07
-9.44466e-07
-4.50215e-07
-6.74266e-07
-9.87082e-07
-5.20714e-07
-5.59542e-07
-1.02398e-06
-5.88288e-07
-4.01143e-07
-1.05353e-06
-6.46957e-07
-2.09731e-07
-1.07416e-06
-6.90554e-07
-4.9903e-10
-1.08477e-06
-7.13844e-07
2.08733e-07
-1.08473e-06
-7.1383e-07
4.00152e-07
-1.07405e-06
-6.90518e-07
5.58568e-07
-1.05334e-06
-6.46939e-07
6.73341e-07
-1.02374e-06
-5.88279e-07
7.39132e-07
-9.86796e-07
-5.20682e-07
7.55792e-07
-9.44168e-07
-4.50187e-07
7.27475e-07
-8.97312e-07
-3.81876e-07
6.61656e-07
-8.47264e-07
-3.19496e-07
5.67805e-07
-7.94074e-07
-2.65261e-07
4.56456e-07
-7.36524e-07
-2.19969e-07
3.38333e-07
-6.71554e-07
-1.8297e-07
2.23621e-07
-5.93764e-07
-1.52109e-07
1.21677e-07
-4.94522e-07
-1.23342e-07
4.18857e-08
-3.59718e-07
-9.01828e-08
-1.63446e-07
-4.18741e-08
-3.75944e-08
-8.82926e-08
-3.75925e-08
-1.11467e-07
-2.05264e-07
-8.06719e-08
-2.08668e-07
-2.87763e-07
-1.09701e-07
-3.20665e-07
-3.47134e-07
-1.34817e-07