/*--------------------------------*- C++ -*----------------------------------*\
| =========                 |                                                 |
| \\      /  F ield         | OpenFOAM: The Open Source CFD Toolbox           |
|  \\    /   O peration     | Version:  v1906                                 |
|   \\  /    A nd           | Web:      www.OpenFOAM.com                      |
|    \\/     M anipulation  |                                                 |
\*---------------------------------------------------------------------------*/
FoamFile
{
    version     2.0;
    format      ascii;
    class       volVectorField;
    location    "87/oil";
    object      U;
}
// * * * * * * * * * * * * * * * * * * * * * * * * * * * * * * * * * * * * * //

dimensions      [0 1 -1 0 0 0 0];


internalField   nonuniform List<vector> 
27760
(
(-2.37465e-05 -2.41893e-05 -2.37464e-05)
(-4.68693e-05 -1.81424e-05 -1.71127e-05)
(-3.40639e-06 -4.69636e-06 -4.69429e-06)
(-5.52922e-06 -7.54981e-07 -8.76117e-07)
(-1.05996e-06 -2.29983e-07 -3.72614e-07)
(-2.97537e-07 -8.30698e-08 -2.39906e-07)
(3.89289e-07 6.95725e-09 -1.62352e-07)
(7.4509e-07 4.73446e-08 -1.31193e-07)
(9.45196e-07 7.14674e-08 -1.12991e-07)
(1.02005e-06 8.73742e-08 -1.00106e-07)
(9.91438e-07 9.88522e-08 -8.93281e-08)
(8.72776e-07 1.07827e-07 -7.96103e-08)
(6.78818e-07 1.1455e-07 -7.16172e-08)
(4.26903e-07 1.19114e-07 -6.58385e-08)
(1.38097e-07 1.21466e-07 -6.27399e-08)
(-1.64134e-07 1.21611e-07 -6.25952e-08)
(-4.5566e-07 1.19593e-07 -6.53606e-08)
(-7.13643e-07 1.15514e-07 -7.06517e-08)
(-9.1858e-07 1.09621e-07 -7.78059e-08)
(-1.05601e-06 1.02194e-07 -8.59206e-08)
(-1.11779e-06 9.36032e-08 -9.3813e-08)
(-1.10214e-06 8.42674e-08 -1.00026e-07)
(-1.01459e-06 7.39879e-08 -1.038e-07)
(-8.67505e-07 6.33304e-08 -1.03743e-07)
(-6.78709e-07 5.25613e-08 -9.88518e-08)
(-4.71211e-07 4.21844e-08 -8.85084e-08)
(-2.71686e-07 3.323e-08 -7.28756e-08)
(-1.08757e-07 2.75054e-08 -5.33914e-08)
(-7.39173e-09 2.71136e-08 -3.37509e-08)
(1.40528e-08 2.75295e-08 -1.40266e-08)
(-1.72242e-05 -4.81457e-05 -1.72241e-05)
(-5.61747e-06 -6.26678e-06 -7.7158e-06)
(-7.52046e-06 -7.61085e-06 -2.70344e-06)
(-3.2576e-06 -2.25297e-06 -7.8544e-07)
(-9.11684e-07 -1.39516e-06 -4.02826e-07)
(2.98137e-07 -7.76043e-07 -2.11239e-07)
(1.19186e-06 -4.89904e-07 -1.16835e-07)
(1.74722e-06 -3.13843e-07 -6.84646e-08)
(2.06844e-06 -1.9037e-07 -3.71371e-08)
(2.17683e-06 -9.1237e-08 -1.33272e-08)
(2.09145e-06 -7.28148e-09 7.15605e-09)
(1.83026e-06 6.38282e-08 2.49163e-08)
(1.41833e-06 1.2049e-07 3.94341e-08)
(8.89634e-07 1.60416e-07 4.98636e-08)
(2.863e-07 1.81554e-07 5.54624e-08)
(-3.44199e-07 1.82744e-07 5.5739e-08)
(-9.52921e-07 1.64253e-07 5.07668e-08)
(-1.49341e-06 1.27877e-07 4.12146e-08)
(-1.92594e-06 7.66572e-08 2.81331e-08)
(-2.22104e-06 1.47007e-08 1.2966e-08)
(-2.36192e-06 -5.31381e-08 -2.61511e-09)
(-2.34579e-06 -1.21548e-07 -1.67801e-08)
(-2.18358e-06 -1.8559e-07 -2.77603e-08)
(-1.89954e-06 -2.3964e-07 -3.42435e-08)
(-1.52939e-06 -2.78011e-07 -3.51653e-08)
(-1.11764e-06 -2.94241e-07 -3.0164e-08)
(-7.1406e-07 -2.80576e-07 -2.00541e-08)
(-3.68547e-07 -2.2848e-07 -7.39477e-09)
(-1.22844e-07 -1.31888e-07 2.42869e-09)
(-4.53992e-09 -1.32198e-08 4.57949e-09)
(-4.75834e-06 -4.56509e-06 -4.75832e-06)
(-7.41475e-06 -8.64802e-06 -2.74141e-06)
(-3.6763e-06 -5.06018e-06 -1.19732e-06)
(-1.85303e-06 -3.10248e-06 -5.55224e-07)
(-1.22719e-07 -2.29145e-06 -2.51048e-07)
(1.04854e-06 -1.75568e-06 -1.0142e-07)
(1.94592e-06 -1.43316e-06 -2.1576e-08)
(2.55086e-06 -1.18816e-06 2.48834e-08)
(2.90168e-06 -9.79782e-07 5.79975e-08)
(3.00077e-06 -7.89711e-07 8.49642e-08)
(2.85725e-06 -6.15603e-07 1.08718e-07)
(2.48776e-06 -4.62218e-07 1.2948e-07)
(1.92211e-06 -3.37084e-07 1.46498e-07)
(1.20359e-06 -2.47836e-07 1.58691e-07)
(3.86944e-07 -2.00405e-07 1.65153e-07)
(-4.65428e-07 -1.97923e-07 1.65469e-07)
(-1.28864e-06 -2.3992e-07 1.59715e-07)
(-2.02135e-06 -3.22178e-07 1.48478e-07)
(-2.61118e-06 -4.37204e-07 1.32955e-07)
(-3.01921e-06 -5.74757e-07 1.14757e-07)
(-3.22325e-06 -7.22742e-07 9.56827e-08)
(-3.21942e-06 -8.6794e-07 7.76019e-08)
(-3.02205e-06 -9.96581e-07 6.22107e-08)
(-2.66235e-06 -1.09483e-06 5.08339e-08)
(-2.18551e-06 -1.14827e-06 4.42607e-08)
(-1.64699e-06 -1.14163e-06 4.24664e-08)
(-1.10739e-06 -1.05824e-06 4.41944e-08)
(-6.25163e-07 -8.80976e-07 4.62677e-08)
(-2.51542e-07 -5.95217e-07 4.26933e-08)
(-2.36187e-08 -2.11861e-07 2.36645e-08)
(-8.44902e-07 -6.70485e-06 -8.44876e-07)
(-1.83041e-06 -5.4536e-06 -7.47042e-07)
(-1.29418e-06 -4.83245e-06 -5.23657e-07)
(-3.0486e-07 -3.95895e-06 -2.49586e-07)
(8.77565e-07 -3.47291e-06 -8.8515e-08)
(1.8728e-06 -3.09285e-06 4.56819e-09)
(2.69682e-06 -2.79173e-06 6.2602e-08)
(3.28637e-06 -2.50624e-06 1.02235e-07)
(3.62459e-06 -2.22167e-06 1.34035e-07)
(3.69258e-06 -1.93706e-06 1.61992e-07)
(3.48754e-06 -1.66278e-06 1.87472e-07)
(3.02253e-06 -1.41426e-06 2.10075e-07)
(2.32916e-06 -1.20829e-06 2.28705e-07)
(1.45675e-06 -1.06019e-06 2.42091e-07)
(4.69225e-07 -9.8136e-07 2.49211e-07)
(-5.59919e-07 -9.7762e-07 2.49529e-07)
(-1.55411e-06 -1.04836e-06 2.4311e-07)
(-2.44074e-06 -1.18639e-06 2.30637e-07)
(-3.15773e-06 -1.3784e-06 2.13372e-07)
(-3.65912e-06 -1.60618e-06 1.93001e-07)
(-3.91864e-06 -1.84814e-06 1.71398e-07)
(-3.93162e-06 -2.08066e-06 1.50448e-07)
(-3.71443e-06 -2.2793e-06 1.31798e-07)
(-3.30267e-06 -2.41935e-06 1.16709e-07)
(-2.74745e-06 -2.47581e-06 1.05793e-07)
(-2.11066e-06 -2.42311e-06 9.88173e-08)
(-1.45941e-06 -2.23432e-06 9.43291e-08)
(-8.57864e-07 -1.88105e-06 8.87291e-08)
(-3.6749e-07 -1.33132e-06 7.54171e-08)
(-3.97209e-08 -5.5187e-07 3.97741e-08)
(-2.61366e-07 -2.71361e-06 -2.61336e-07)
(-7.38928e-07 -4.41528e-06 -2.98015e-07)
(-1.50541e-07 -4.96438e-06 -1.82823e-07)
(6.91012e-07 -4.9715e-06 -5.88062e-08)
(1.68637e-06 -4.89737e-06 2.76426e-08)
(2.60855e-06 -4.72522e-06 8.55841e-08)
(3.39691e-06 -4.48972e-06 1.27846e-07)
(3.97376e-06 -4.19e-06 1.61731e-07)
(4.29506e-06 -3.84154e-06 1.92286e-07)
(4.32861e-06 -3.46509e-06 2.21147e-07)
(4.0631e-06 -3.08736e-06 2.48385e-07)
(3.50878e-06 -2.73752e-06 2.72963e-07)
(2.69864e-06 -2.44402e-06 2.9338e-07)
(1.68702e-06 -2.23162e-06 3.08109e-07)
(5.45697e-07 -2.1184e-06 3.15942e-07)
(-6.42157e-07 -2.11366e-06 3.16237e-07)
(-1.78961e-06 -2.21674e-06 3.09047e-07)
(-2.81412e-06 -2.41689e-06 2.95125e-07)
(-3.6452e-06 -2.69412e-06 2.75861e-07)
(-4.23071e-06 -3.02098e-06 2.53065e-07)
(-4.54096e-06 -3.36488e-06 2.28756e-07)
(-4.57052e-06 -3.69031e-06 2.0492e-07)
(-4.3374e-06 -3.96051e-06 1.83246e-07)
(-3.88061e-06 -4.13872e-06 1.64981e-07)
(-3.25585e-06 -4.1883e-06 1.50675e-07)
(-2.53014e-06 -4.07221e-06 1.39984e-07)
(-1.77619e-06 -3.75146e-06 1.31328e-07)
(-1.06423e-06 -3.18221e-06 1.20706e-07)
(-4.67228e-07 -2.30474e-06 1.00761e-07)
(-5.25809e-08 -1.01356e-06 5.26448e-08)
(-9.0234e-08 -2.62134e-06 -9.01943e-08)
(6.68907e-09 -4.75433e-06 -6.74302e-08)
(6.05394e-07 -5.89387e-06 -6.01518e-09)
(1.42377e-06 -6.43505e-06 5.60045e-08)
(2.36562e-06 -6.67607e-06 1.05551e-07)
(3.27269e-06 -6.68125e-06 1.44233e-07)
(4.05729e-06 -6.51235e-06 1.77573e-07)
(4.63435e-06 -6.20468e-06 2.08677e-07)
(4.94463e-06 -5.79735e-06 2.39608e-07)
(4.94683e-06 -5.33092e-06 2.70505e-07)
(4.62356e-06 -4.8488e-06 3.00501e-07)
(3.98299e-06 -4.39491e-06 3.27968e-07)
(3.0597e-06 -4.01061e-06 3.50959e-07)
(1.91293e-06 -3.73111e-06 3.67596e-07)
(6.22278e-07 -3.58205e-06 3.76435e-07)
(-7.19588e-07 -3.57664e-06 3.767e-07)
(-2.01548e-06 -3.71423e-06 3.68427e-07)
(-3.17309e-06 -3.98024e-06 3.52475e-07)
(-4.11365e-06 -4.34735e-06 3.30422e-07)
(-4.77906e-06 -4.77798e-06 3.04331e-07)
(-5.13657e-06 -5.2277e-06 2.76481e-07)
(-5.18007e-06 -5.64796e-06 2.49059e-07)
(-4.92937e-06 -5.98891e-06 2.23892e-07)
(-4.42694e-06 -6.20094e-06 2.02321e-07)
(-3.73296e-06 -6.23485e-06 1.8492e-07)
(-2.91971e-06 -6.041e-06 1.71283e-07)
(-2.06599e-06 -5.56611e-06 1.59701e-07)
(-1.24908e-06 -4.74606e-06 1.45727e-07)
(-5.53851e-07 -3.4834e-06 1.21088e-07)
(-6.31358e-08 -1.5782e-06 6.32151e-08)
(8.66352e-09 -2.73935e-06 8.71792e-09)
(3.59316e-07 -5.56956e-06 5.03239e-08)
(1.06048e-06 -7.26648e-06 9.11268e-08)
(1.94708e-06 -8.24974e-06 1.27582e-07)
(2.9236e-06 -8.77291e-06 1.59554e-07)
(3.86599e-06 -8.94286e-06 1.88801e-07)
(4.67913e-06 -8.84235e-06 2.18287e-07)
(5.27479e-06 -8.53243e-06 2.49343e-07)
(5.58523e-06 -8.07223e-06 2.82472e-07)
(5.56287e-06 -7.52035e-06 3.16878e-07)
(5.18592e-06 -6.93654e-06 3.50956e-07)
(4.46125e-06 -6.3798e-06 3.8251e-07)
(3.42532e-06 -5.90482e-06 4.09086e-07)
(2.14278e-06 -5.55799e-06 4.28357e-07)
(7.01392e-07 -5.37299e-06 4.38573e-07)
(-7.96073e-07 -5.36723e-06 4.38803e-07)
(-2.24168e-06 -5.54018e-06 4.29073e-07)
(-3.53283e-06 -5.87315e-06 4.10369e-07)
(-4.58218e-06 -6.33113e-06 3.84531e-07)
(-5.32561e-06 -6.8659e-06 3.54011e-07)
(-5.72731e-06 -7.42049e-06 3.21452e-07)
(-5.78102e-06 -7.93299e-06 2.89364e-07)
(-5.5088e-06 -8.34006e-06 2.59858e-07)
(-4.95702e-06 -8.57876e-06 2.34417e-07)
(-4.19102e-06 -8.58671e-06 2.13705e-07)
(-3.28894e-06 -8.30041e-06 1.97279e-07)
(-2.3364e-06 -7.64987e-06 1.83285e-07)
(-1.41842e-06 -6.54608e-06 1.66785e-07)
(-6.31444e-07 -4.84468e-06 1.38458e-07)
(-7.22813e-08 -2.23293e-06 7.23822e-08)
(5.10697e-08 -3.24885e-06 5.11416e-08)
(5.64346e-07 -6.81364e-06 1.10788e-07)
(1.37322e-06 -9.03275e-06 1.46684e-07)
(2.3527e-06 -1.04039e-05 1.73956e-07)
(3.40014e-06 -1.11848e-05 1.98878e-07)
(4.40503e-06 -1.15099e-05 2.24903e-07)
(5.26788e-06 -1.14796e-05 2.54287e-07)
(5.89713e-06 -1.11742e-05 2.87745e-07)
(6.21854e-06 -1.06696e-05 3.2495e-07)
(6.17917e-06 -1.00404e-05 3.64511e-07)
(5.75342e-06 -9.36187e-06 4.04203e-07)
(4.94696e-06 -8.70752e-06 4.41196e-07)
(3.79849e-06 -8.14557e-06 4.72469e-07)
(2.3784e-06 -7.73379e-06 4.95181e-07)
(7.83312e-07 -7.5141e-06 5.07194e-07)
(-8.7312e-07 -7.50831e-06 5.07385e-07)
(-2.47142e-06 -7.71595e-06 4.95768e-07)
(-3.89799e-06 -8.11421e-06 4.73511e-07)
(-5.05631e-06 -8.66007e-06 4.42809e-07)
(-5.87612e-06 -9.29446e-06 4.06586e-07)
(-6.31882e-06 -9.94778e-06 3.67961e-07)
(-6.37852e-06 -1.05446e-05 3.29928e-07)
(-6.08019e-06 -1.1008e-05 2.94986e-07)
(-5.47481e-06 -1.12617e-05 2.64828e-07)
(-4.63373e-06 -1.12298e-05 2.40253e-07)
(-3.64163e-06 -1.08338e-05 2.20787e-07)
(-2.59143e-06 -9.9847e-06 2.04434e-07)
(-1.57608e-06 -8.56426e-06 1.85707e-07)
(-7.02801e-07 -6.37318e-06 1.54178e-07)
(-8.06162e-08 -2.96951e-06 8.07427e-08)
(7.44869e-08 -3.94056e-06 7.4581e-08)
(6.94972e-07 -8.33128e-06 1.47064e-07)
(1.60354e-06 -1.10963e-05 1.82748e-07)
(2.68016e-06 -1.28516e-05 2.07253e-07)
(3.81299e-06 -1.38898e-05 2.30232e-07)
(4.89416e-06 -1.43745e-05 2.56561e-07)
(5.81959e-06 -1.44244e-05 2.88398e-07)
(6.49336e-06 -1.41367e-05 3.26241e-07)
(6.83515e-06 -1.36021e-05 3.69292e-07)
(6.78646e-06 -1.29096e-05 4.15641e-07)
(6.31779e-06 -1.21488e-05 4.62481e-07)
(5.43344e-06 -1.14072e-05 5.06323e-07)
(4.17425e-06 -1.07661e-05 5.43483e-07)
(2.61664e-06 -1.02945e-05 5.70481e-07)
(8.66679e-07 -1.00428e-05 5.84707e-07)
(-9.50407e-07 -1.00371e-05 5.8486e-07)
(-2.70268e-06 -1.02773e-05 5.70952e-07)
(-4.26483e-06 -1.07361e-05 5.44317e-07)
(-5.53082e-06 -1.13626e-05 5.07576e-07)
(-6.42416e-06 -1.20866e-05 4.64288e-07)
(-6.90368e-06 -1.28262e-05 4.18199e-07)
(-6.96461e-06 -1.34927e-05 3.72866e-07)
(-6.63571e-06 -1.39961e-05 3.31227e-07)
(-5.97351e-06 -1.42471e-05 2.95316e-07)
(-5.05596e-06 -1.41563e-05 2.66096e-07)
(-3.97467e-06 -1.36295e-05 2.43112e-07)
(-2.82999e-06 -1.25567e-05 2.24173e-07)
(-1.72243e-06 -1.07864e-05 2.03228e-07)
(-7.68804e-07 -8.05693e-06 1.68771e-07)
(-8.84019e-08 -3.78199e-06 8.85577e-08)
(8.8665e-08 -4.75978e-06 8.87855e-08)
(7.87048e-07 -1.00603e-05 1.70805e-07)
(1.78185e-06 -1.34064e-05 2.08164e-07)
(2.94887e-06 -1.55597e-05 2.3288e-07)
(4.16737e-06 -1.68676e-05 2.5667e-07)
(5.32765e-06 -1.75265e-05 2.85509e-07)
(6.32067e-06 -1.76749e-05 3.21698e-07)
(7.04512e-06 -1.7426e-05 3.65608e-07)
(7.41452e-06 -1.68838e-05 4.16185e-07)
(7.36445e-06 -1.61501e-05 4.71013e-07)
(6.86061e-06 -1.5327e-05 5.26655e-07)
(5.90528e-06 -1.45148e-05 5.78878e-07)
(4.54107e-06 -1.38072e-05 6.23181e-07)
(2.85027e-06 -1.32843e-05 6.55352e-07)
(9.48738e-07 -1.30049e-05 6.72275e-07)
(-1.02598e-06 -1.29996e-05 6.72389e-07)
(-2.92905e-06 -1.32682e-05 6.55702e-07)
(-4.6228e-06 -1.37793e-05 6.23788e-07)
(-5.99128e-06 -1.44737e-05 5.79799e-07)
(-6.95208e-06 -1.52709e-05 5.28002e-07)
(-7.46225e-06 -1.60765e-05 4.7287e-07)
(-7.51899e-06 -1.67898e-05 4.1872e-07)
(-7.15577e-06 -1.73087e-05 3.69047e-07)
(-6.43554e-06 -1.75319e-05 3.26277e-07)
(-5.44309e-06 -1.73568e-05 2.91543e-07)
(-4.27721e-06 -1.66734e-05 2.64412e-07)
(-3.04513e-06 -1.53491e-05 2.42549e-07)
(-1.8538e-06 -1.31958e-05 2.19327e-07)
(-8.28124e-07 -9.88279e-06 1.82129e-07)
(-9.5567e-08 -4.66434e-06 9.57569e-08)
(9.81962e-08 -5.66827e-06 9.83351e-08)
(8.53628e-07 -1.19509e-05 1.87427e-07)
(1.91746e-06 -1.59151e-05 2.26869e-07)
(3.16014e-06 -1.84892e-05 2.53053e-07)
(4.45424e-06 -2.00881e-05 2.79164e-07)
(5.6872e-06 -2.09448e-05 3.11947e-07)
(6.74534e-06 -2.12197e-05 3.53903e-07)
(7.52195e-06 -2.10407e-05 4.05389e-07)
(7.92419e-06 -2.05234e-05 4.65061e-07)
(7.88104e-06 -1.97804e-05 5.30051e-07)
(7.35251e-06 -1.89242e-05 5.96211e-07)
(6.33785e-06 -1.80661e-05 6.58428e-07)
(4.88042e-06 -1.73114e-05 7.11303e-07)
(3.06779e-06 -1.67503e-05 7.49697e-07)
(1.02545e-06 -1.64496e-05 7.69842e-07)
(-1.09646e-06 -1.64447e-05 7.69926e-07)
(-3.13964e-06 -1.67353e-05 7.49952e-07)
(-4.95389e-06 -1.72859e-05 7.11741e-07)
(-6.4136e-06 -1.80292e-05 6.59079e-07)
(-7.4311e-06 -1.88745e-05 5.97116e-07)
(-7.96269e-06 -1.97166e-05 5.31327e-07)
(-8.00862e-06 -2.04436e-05 4.66821e-07)
(-7.6083e-06 -2.09435e-05 4.0772e-07)
(-6.83168e-06 -2.11046e-05 3.56923e-07)
(-5.77056e-06 -2.08127e-05 3.15798e-07)
(-4.53017e-06 -1.9942e-05 2.83925e-07)
(-3.2235e-06 -1.83366e-05 2.58752e-07)
(-1.96243e-06 -1.57687e-05 2.33168e-07)
(-8.77506e-07 -1.18323e-05 1.93574e-07)
(-1.01751e-07 -5.60816e-06 1.01981e-07)
(1.04401e-07 -6.6397e-06 1.04577e-07)
(8.9717e-07 -1.39586e-05 1.98452e-07)
(2.00756e-06 -1.85722e-05 2.39725e-07)
(3.3031e-06 -2.1591e-05 2.67845e-07)
(4.65285e-06 -2.3507e-05 2.97037e-07)
(5.9426e-06 -2.45929e-05 3.34728e-07)
(7.05552e-06 -2.50315e-05 3.83575e-07)
(7.88053e-06 -2.49645e-05 4.43949e-07)
(8.31849e-06 -2.45171e-05 5.14271e-07)
(8.29148e-06 -2.38093e-05 5.91203e-07)
(7.75282e-06 -2.29614e-05 6.69841e-07)
(6.69713e-06 -2.20933e-05 7.44048e-07)
(5.16685e-06 -2.13195e-05 8.07281e-07)
(3.25349e-06 -2.07391e-05 8.53304e-07)
(1.09143e-06 -2.04268e-05 8.77438e-07)
(-1.15673e-06 -2.04223e-05 8.77489e-07)
(-3.31909e-06 -2.07256e-05 8.53442e-07)
(-5.23307e-06 -2.12965e-05 8.07522e-07)
(-6.76412e-06 -2.20605e-05 7.44443e-07)
(-7.82057e-06 -2.29178e-05 6.70412e-07)
(-8.35987e-06 -2.3754e-05 5.9205e-07)
(-8.38705e-06 -2.44495e-05 5.15448e-07)
(-7.94842e-06 -2.48843e-05 4.45504e-07)
(-7.1211e-06 -2.49389e-05 3.85573e-07)
(-6.00362e-06 -2.44895e-05 3.37215e-07)
(-4.70632e-06 -2.33961e-05 3.00027e-07)
(-3.34586e-06 -2.14788e-05 2.71282e-07)
(-2.03656e-06 -1.8468e-05 2.43404e-07)
(-9.11647e-07 -1.38768e-05 2.01937e-07)
(-1.06318e-07 -6.60012e-06 1.0659e-07)
(1.07378e-07 -7.64714e-06 1.07566e-07)
(9.1445e-07 -1.60319e-05 2.035e-07)
(2.04147e-06 -2.13141e-05 2.45814e-07)
(3.35731e-06 -2.47983e-05 2.75869e-07)
(4.73185e-06 -2.70589e-05 3.08497e-07)
(6.05201e-06 -2.84109e-05 3.5156e-07)
(7.20038e-06 -2.90589e-05 4.07953e-07)
(8.06344e-06 -2.91574e-05 4.78105e-07)
(8.53696e-06 -2.88381e-05 5.60268e-07)
(8.53617e-06 -2.82251e-05 6.50661e-07)
(8.00673e-06 -2.74424e-05 7.43638e-07)
(6.93666e-06 -2.66142e-05 8.31972e-07)
(5.3652e-06 -2.5861e-05 9.07603e-07)
(3.38554e-06 -2.5289e-05 9.62898e-07)
(1.1392e-06 -2.49791e-05 9.91971e-07)
(-1.19964e-06 -2.49751e-05 9.91982e-07)
(-3.44585e-06 -2.52769e-05 9.62942e-07)
(-5.42526e-06 -2.58406e-05 9.07691e-07)
(-6.99624e-06 -2.6585e-05 8.32137e-07)
(-8.06555e-06 -2.74041e-05 7.43941e-07)
(-8.59397e-06 -2.81774e-05 6.51152e-07)
(-8.59328e-06 -2.8781e-05 5.60961e-07)
(-8.1175e-06 -2.90911e-05 4.79095e-07)
(-7.25092e-06 -2.89841e-05 4.09247e-07)
(-6.09744e-06 -2.83292e-05 3.5318e-07)
(-4.77022e-06 -2.69735e-05 3.10405e-07)
(-3.38685e-06 -2.47141e-05 2.78007e-07)
(-2.06071e-06 -2.12382e-05 2.4805e-07)
(-9.23522e-07 -1.59739e-05 2.05562e-07)
(-1.08434e-07 -7.62008e-06 1.08757e-07)
(1.06423e-07 -8.65846e-06 1.06652e-07)
(8.98873e-07 -1.81063e-05 2.01265e-07)
(2.00349e-06 -2.40583e-05 2.43419e-07)
(3.29592e-06 -2.80192e-05 2.74895e-07)
(4.65201e-06 -3.06494e-05 3.10763e-07)
(5.96404e-06 -3.23064e-05 3.59109e-07)
(7.11781e-06 -3.32166e-05 4.22979e-07)
(8.00037e-06 -3.35449e-05 5.03046e-07)
(8.50482e-06 -3.34261e-05 5.97603e-07)
(8.54024e-06 -3.29837e-05 7.02569e-07)
(8.04445e-06 -3.23402e-05 8.1155e-07)
(6.99681e-06 -3.16194e-05 9.16093e-07)
(5.43009e-06 -3.09423e-05 1.00644e-06)
(3.43566e-06 -3.04177e-05 1.07313e-06)
(1.1592e-06 -3.01302e-05 1.10846e-06)
(-1.21556e-06 -3.01266e-05 1.10845e-06)
(-3.49154e-06 -3.04067e-05 1.0731e-06)
(-5.48504e-06 -3.09239e-05 1.0064e-06)
(-7.05039e-06 -3.15935e-05 9.1607e-07)
(-8.09632e-06 -3.23068e-05 8.11612e-07)
(-8.58996e-06 -3.29426e-05 7.02832e-07)
(-8.55179e-06 -3.33777e-05 5.98032e-07)
(-8.0441e-06 -3.34899e-05 5.03682e-07)
(-7.15743e-06 -3.31557e-05 4.23806e-07)
(-5.99849e-06 -3.22413e-05 3.60125e-07)
(-4.68022e-06 -3.0583e-05 3.11966e-07)
(-3.31688e-06 -2.79552e-05 2.76256e-07)
(-2.01663e-06 -2.40017e-05 2.44838e-07)
(-9.04763e-07 -1.8064e-05 2.02541e-07)
(-1.07029e-07 -8.63927e-06 1.07396e-07)
(1.00583e-07 -9.63286e-06 1.00827e-07)
(8.42412e-07 -2.0099e-05 1.89805e-07)
(1.87548e-06 -2.66975e-05 2.30044e-07)
(3.08847e-06 -3.11327e-05 2.61935e-07)
(4.36955e-06 -3.41499e-05 3.0012e-07)
(5.62121e-06 -3.61487e-05 3.52639e-07)
(6.73753e-06 -3.7376e-05 4.22841e-07)
(7.61056e-06 -3.80043e-05 5.11638e-07)
(8.13429e-06 -3.81681e-05 6.17452e-07)
(8.21408e-06 -3.79858e-05 7.36207e-07)
(7.78004e-06 -3.75723e-05 8.60965e-07)
(6.8015e-06 -3.70434e-05 9.82208e-07)
(5.30173e-06 -3.65138e-05 1.08838e-06)
(3.36578e-06 -3.60889e-05 1.16776e-06)
(1.13833e-06 -3.58514e-05 1.21023e-06)
(-1.19144e-06 -3.58481e-05 1.21019e-06)
(-3.41815e-06 -3.60789e-05 1.16765e-06)
(-5.3527e-06 -3.64973e-05 1.08823e-06)
(-6.85038e-06 -3.70203e-05 9.82084e-07)
(-7.82631e-06 -3.75429e-05 8.60891e-07)
(-8.2574e-06 -3.79503e-05 7.36229e-07)
(-8.1743e-06 -3.81269e-05 6.17602e-07)
(-7.64677e-06 -3.79583e-05 5.11956e-07)
(-6.76938e-06 -3.73261e-05 4.23329e-07)
(-5.64805e-06 -3.60964e-05 3.53286e-07)
(-4.39079e-06 -3.40975e-05 3.00886e-07)
(-3.10367e-06 -3.1083e-05 2.62781e-07)
(-1.88466e-06 -2.66545e-05 2.30943e-07)
(-8.46312e-07 -2.00674e-05 1.90633e-07)
(-1.0092e-07 -9.61878e-06 1.01333e-07)
(8.88275e-08 -1.05204e-05 8.90838e-08)
(7.36985e-07 -2.19086e-05 1.67207e-07)
(1.6397e-06 -2.90996e-05 2.03294e-07)
(2.70561e-06 -3.39859e-05 2.33937e-07)
(3.84213e-06 -3.73933e-05 2.72682e-07)
(4.96747e-06 -3.97611e-05 3.27148e-07)
(5.98996e-06 -4.13544e-05 4.00778e-07)
(6.81216e-06 -4.23507e-05 4.94852e-07)
(7.33384e-06 -4.28808e-05 6.08268e-07)
(7.46084e-06 -4.30532e-05 7.37266e-07)
(7.11795e-06 -4.29687e-05 8.74757e-07)
(6.26447e-06 -4.27272e-05 1.01035e-06)
(4.91102e-06 -4.24287e-05 1.1308e-06)
(3.13092e-06 -4.21655e-05 1.22218e-06)
(1.06103e-06 -4.20113e-05 1.27168e-06)
(-1.11147e-06 -4.20083e-05 1.27164e-06)
(-3.1804e-06 -4.21565e-05 1.22208e-06)
(-4.95872e-06 -4.2414e-05 1.13062e-06)
(-6.30966e-06 -4.27067e-05 1.01014e-06)
(-7.16014e-06 -4.29428e-05 8.74585e-07)
(-7.49954e-06 -4.30225e-05 7.37203e-07)
(-7.36868e-06 -4.28458e-05 6.08305e-07)
(-6.84283e-06 -4.2312e-05 4.94985e-07)
(-6.01619e-06 -4.1313e-05 4.01034e-07)
(-4.98892e-06 -3.97185e-05 3.27523e-07)
(-3.85859e-06 -3.73513e-05 2.73165e-07)
(-2.717e-06 -3.39467e-05 2.34501e-07)
(-1.64633e-06 -2.90662e-05 2.0388e-07)
(-7.39642e-07 -2.18844e-05 1.67774e-07)
(-8.89969e-08 -1.05097e-05 8.94523e-08)
(7.02661e-08 -1.12625e-05 7.05226e-08)
(5.76413e-07 -2.34171e-05 1.31809e-07)
(1.28283e-06 -3.11096e-05 1.60978e-07)
(2.12511e-06 -3.63971e-05 1.88117e-07)
(3.03691e-06 -4.01765e-05 2.24619e-07)
(3.95808e-06 -4.29214e-05 2.7718e-07)
(4.81735e-06 -4.49116e-05 3.49244e-07)
(5.53445e-06 -4.6328e-05 4.4242e-07)
(6.0217e-06 -4.72938e-05 5.56146e-07)
(6.19113e-06 -4.79035e-05 6.87145e-07)
(5.96652e-06 -4.82382e-05 8.28733e-07)
(5.2991e-06 -4.83746e-05 9.7049e-07)
(4.1858e-06 -4.83881e-05 1.09824e-06)
(2.68285e-06 -4.8348e-05 1.1964e-06)
(9.10315e-07 -4.83103e-05 1.25016e-06)
(-9.58643e-07 -4.83078e-05 1.25009e-06)
(-2.73014e-06 -4.83401e-05 1.19626e-06)
(-4.23104e-06 -4.8375e-05 1.09802e-06)
(-5.34145e-06 -4.83566e-05 9.70266e-07)
(-6.00547e-06 -4.82157e-05 8.28506e-07)
(-6.2262e-06 -4.7877e-05 6.8698e-07)
(-6.0527e-06 -4.72638e-05 5.56022e-07)
(-5.56113e-06 -4.62952e-05 4.42401e-07)
(-4.83958e-06 -4.48771e-05 3.49339e-07)
(-3.97577e-06 -4.28863e-05 2.77358e-07)
(-3.05007e-06 -4.01424e-05 2.24886e-07)
(-2.13388e-06 -3.63657e-05 1.88456e-07)
(-1.28768e-06 -3.10831e-05 1.61348e-07)
(-5.78219e-07 -2.33982e-05 1.32205e-07)
(-7.03272e-08 -1.12543e-05 7.08192e-08)
(4.44861e-08 -1.17953e-05 4.47742e-08)
(3.58319e-07 -2.44961e-05 8.29021e-08)
(7.99983e-07 -3.25582e-05 1.02126e-07)
(1.33878e-06 -3.81657e-05 1.22976e-07)
(1.94092e-06 -4.22698e-05 1.53605e-07)
(2.5736e-06 -4.53709e-05 1.99195e-07)
(3.19218e-06 -4.77592e-05 2.62728e-07)
(3.74039e-06 -4.96147e-05 3.46077e-07)
(4.1507e-06 -5.10519e-05 4.4929e-07)
(4.3489e-06 -5.2148e-05 5.69967e-07)
(4.26463e-06 -5.29599e-05 7.02323e-07)
(3.8454e-06 -5.35348e-05 8.36698e-07)
(3.07455e-06 -5.39166e-05 9.59323e-07)
(1.98662e-06 -5.41439e-05 1.0546e-06)
(6.73848e-07 -5.42474e-05 1.10722e-06)
(-7.20379e-07 -5.42455e-05 1.10716e-06)
(-2.03197e-06 -5.41373e-05 1.05447e-06)
(-3.11765e-06 -5.39053e-05 9.59075e-07)
(-3.88545e-06 -5.35193e-05 8.36396e-07)
(-4.30113e-06 -5.29403e-05 7.01983e-07)
(-4.38132e-06 -5.21249e-05 5.69716e-07)
(-4.17884e-06 -5.1026e-05 4.4908e-07)
(-3.76414e-06 -4.95868e-05 3.45971e-07)
(-3.21151e-06 -4.77301e-05 2.62708e-07)
(-2.58858e-06 -4.53416e-05 1.99228e-07)
(-1.95174e-06 -4.22418e-05 1.53729e-07)
(-1.34577e-06 -3.81402e-05 1.23166e-07)
(-8.03682e-07 -3.25368e-05 1.02406e-07)
(-3.59596e-07 -2.4481e-05 8.31992e-08)
(-4.44988e-08 -1.17888e-05 4.50192e-08)
(1.18389e-08 -1.20552e-05 1.20968e-08)
(8.6211e-08 -2.50187e-05 2.10044e-08)
(1.99091e-07 -3.32771e-05 2.72398e-08)
(3.58968e-07 -3.9089e-05 3.87458e-08)
(5.70265e-07 -4.34367e-05 5.93688e-08)
(8.31837e-07 -4.6836e-05 9.19912e-08)
(1.1317e-06 -4.95822e-05 1.38975e-07)
(1.44439e-06 -5.18513e-05 2.01995e-07)
(1.73018e-06 -5.3746e-05 2.81594e-07)
(1.9373e-06 -5.53242e-05 3.76506e-07)
(2.00888e-06 -5.66171e-05 4.82315e-07)
(1.89463e-06 -5.76405e-05 5.91524e-07)
(1.56639e-06 -5.84027e-05 6.92493e-07)
(1.03294e-06 -5.8908e-05 7.71814e-07)
(3.47959e-07 -5.91591e-05 8.15998e-07)
(-3.92845e-07 -5.91572e-05 8.15922e-07)
(-1.0765e-06 -5.89018e-05 7.71622e-07)
(-1.60767e-06 -5.83924e-05 6.92164e-07)
(-1.93277e-06 -5.76267e-05 5.91154e-07)
(-2.04321e-06 -5.65997e-05 4.81932e-07)
(-1.96749e-06 -5.5304e-05 3.76135e-07)
(-1.7561e-06 -5.37234e-05 2.8129e-07)
(-1.46595e-06 -5.18273e-05 2.01737e-07)
(-1.14895e-06 -4.95574e-05 1.38824e-07)
(-8.44919e-07 -4.68112e-05 9.19252e-08)
(-5.79476e-07 -4.34132e-05 5.93441e-08)
(-3.64751e-07 -3.90677e-05 3.88213e-08)
(-2.02001e-07 -3.32596e-05 2.74014e-08)
(-8.70841e-08 -2.50063e-05 2.12235e-08)
(-1.17838e-08 -1.20498e-05 1.23225e-08)
(-2.66096e-08 -1.19854e-05 -2.63387e-08)
(-2.29633e-07 -2.48725e-05 -5.16068e-08)
(-4.96554e-07 -3.31175e-05 -6.09502e-08)
(-7.76462e-07 -3.89856e-05 -6.16811e-08)
(-1.023e-06 -4.34622e-05 -5.50953e-08)
(-1.2023e-06 -4.70634e-05 -4.11327e-08)
(-1.28918e-06 -5.0082e-05 -1.85754e-08)
(-1.27218e-06 -5.26866e-05 1.38557e-08)
(-1.15595e-06 -5.49666e-05 5.71191e-08)
(-9.62149e-07 -5.69617e-05 1.11185e-07)
(-7.25981e-07 -5.86774e-05 1.7393e-07)
(-4.89351e-07 -6.00987e-05 2.40962e-07)
(-2.89379e-07 -6.12006e-05 3.04544e-07)
(-1.46628e-07 -6.19554e-05 3.55508e-07)
(-5.62147e-08 -6.2339e-05 3.84263e-07)
(1.32676e-08 -6.2337e-05 3.8415e-07)
(1.04944e-07 -6.19496e-05 3.55258e-07)
(2.50027e-07 -6.11912e-05 3.04183e-07)
(4.53141e-07 -6.00859e-05 2.40523e-07)
(6.93486e-07 -5.86615e-05 1.735e-07)
(9.33722e-07 -5.69436e-05 1.10759e-07)
(1.13176e-06 -5.49466e-05 5.67545e-08)
(1.25226e-06 -5.26655e-05 1.35433e-08)
(1.27341e-06 -5.00605e-05 -1.87971e-08)
(1.19052e-06 -4.70421e-05 -4.12625e-08)
(1.01489e-06 -4.34422e-05 -5.51506e-08)
(7.71555e-07 -3.89677e-05 -6.16514e-08)
(4.94208e-07 -3.31028e-05 -6.08482e-08)
(2.28991e-07 -2.48621e-05 -5.14246e-08)
(2.66839e-08 -1.1981e-05 -2.61376e-08)
(-6.85949e-08 -1.15452e-05 -6.83597e-08)
(-5.71155e-07 -2.39776e-05 -1.30952e-07)
(-1.24764e-06 -3.19727e-05 -1.57659e-07)
(-2.00398e-06 -3.77231e-05 -1.72733e-07)
(-2.75053e-06 -4.21843e-05 -1.83337e-07)
(-3.41677e-06 -4.58563e-05 -1.92716e-07)
(-3.93766e-06 -4.90206e-05 -2.01158e-07)
(-4.26072e-06 -5.1835e-05 -2.07843e-07)
(-4.34995e-06 -5.43761e-05 -2.11353e-07)
(-4.19011e-06 -5.66658e-05 -2.1038e-07)
(-3.78829e-06 -5.86878e-05 -2.04249e-07)
(-3.17292e-06 -6.04024e-05 -1.93381e-07)
(-2.38785e-06 -6.17568e-05 -1.79955e-07)
(-1.48492e-06 -6.26976e-05 -1.67294e-07)
(-5.15626e-07 -6.31803e-05 -1.59446e-07)
(4.75017e-07 -6.31785e-05 -1.59546e-07)
(1.44549e-06 -6.26924e-05 -1.67557e-07)
(2.35056e-06 -6.17482e-05 -1.80361e-07)
(3.13861e-06 -6.03905e-05 -1.93817e-07)
(3.75758e-06 -5.86733e-05 -2.04684e-07)
(4.16333e-06 -5.66493e-05 -2.10841e-07)
(4.32719e-06 -5.43583e-05 -2.11761e-07)
(4.24207e-06 -5.18163e-05 -2.08151e-07)
(3.92303e-06 -4.90018e-05 -2.01435e-07)
(3.40591e-06 -4.58379e-05 -1.92898e-07)
(2.74315e-06 -4.21673e-05 -1.83409e-07)
(1.99964e-06 -3.77079e-05 -1.72743e-07)
(1.24563e-06 -3.19603e-05 -1.57589e-07)
(5.70677e-07 -2.39689e-05 -1.30776e-07)
(6.86995e-08 -1.15415e-05 -6.81536e-08)
(-1.11105e-07 -1.07181e-05 -1.10878e-07)
(-9.13572e-07 -2.23029e-05 -2.11206e-07)
(-2.00001e-06 -2.97996e-05 -2.55728e-07)
(-3.23598e-06 -3.52438e-05 -2.86194e-07)
(-4.49065e-06 -3.95252e-05 -3.1581e-07)
(-5.65758e-06 -4.31114e-05 -3.51275e-07)
(-6.63081e-06 -4.62648e-05 -3.94427e-07)
(-7.31489e-06 -4.91287e-05 -4.45145e-07)
(-7.6301e-06 -5.17672e-05 -5.01576e-07)
(-7.52038e-06 -5.41873e-05 -5.60829e-07)
(-6.96109e-06 -5.6358e-05 -6.19173e-07)
(-5.96345e-06 -5.82218e-05 -6.72257e-07)
(-4.57614e-06 -5.97082e-05 -7.16098e-07)
(-2.88315e-06 -6.0748e-05 -7.47191e-07)
(-9.95908e-07 -6.12835e-05 -7.63246e-07)
(9.58091e-07 -6.12818e-05 -7.63315e-07)
(2.84639e-06 -6.07431e-05 -7.47359e-07)
(4.54142e-06 -5.97002e-05 -7.16374e-07)
(5.93137e-06 -5.82107e-05 -6.72614e-07)
(6.93226e-06 -5.63446e-05 -6.19539e-07)
(7.49511e-06 -5.41721e-05 -5.61185e-07)
(7.60859e-06 -5.17509e-05 -5.01925e-07)
(7.2973e-06 -4.91122e-05 -4.45424e-07)
(6.61701e-06 -4.62481e-05 -3.94676e-07)
(5.64737e-06 -4.30954e-05 -3.51464e-07)
(4.48378e-06 -3.95106e-05 -3.15938e-07)
(3.23197e-06 -3.5231e-05 -2.8624e-07)
(1.99816e-06 -2.97893e-05 -2.55682e-07)
(9.13141e-07 -2.22956e-05 -2.11042e-07)
(1.11205e-07 -1.07149e-05 -1.10679e-07)
(-1.50206e-07 -9.51822e-06 -1.50004e-07)
(-1.22595e-06 -1.98791e-05 -2.85006e-07)
(-2.68758e-06 -2.66366e-05 -3.46195e-07)
(-4.36736e-06 -3.15859e-05 -3.91528e-07)
(-6.09845e-06 -3.55179e-05 -4.39995e-07)
(-7.74126e-06 -3.88514e-05 -5.01693e-07)
(-9.15082e-06 -4.18225e-05 -5.79956e-07)
(-1.01891e-05 -4.45582e-05 -6.7528e-07)
(-1.07325e-05 -4.71108e-05 -7.85538e-07)
(-1.06842e-05 -4.94785e-05 -9.06107e-07)
(-9.9863e-06 -5.1621e-05 -1.02999e-06)
(-8.63178e-06 -5.34731e-05 -1.14808e-06)
(-6.67313e-06 -5.49575e-05 -1.25009e-06)
(-4.22497e-06 -5.59986e-05 -1.32549e-06)
(-1.45693e-06 -5.65356e-05 -1.36563e-06)
(1.42266e-06 -5.65339e-05 -1.36568e-06)
(4.19149e-06 -5.59936e-05 -1.32566e-06)
(6.64122e-06 -5.49496e-05 -1.2503e-06)
(8.60208e-06 -5.34627e-05 -1.14833e-06)
(9.9594e-06 -5.16088e-05 -1.03029e-06)
(1.06604e-05 -4.94649e-05 -9.0639e-07)
(1.07122e-05 -4.70964e-05 -7.85812e-07)
(1.01724e-05 -4.45436e-05 -6.75547e-07)
(9.13762e-06 -4.1808e-05 -5.80182e-07)
(7.73152e-06 -3.88377e-05 -5.01872e-07)
(6.09185e-06 -3.55054e-05 -4.40122e-07)
(4.36349e-06 -3.15752e-05 -3.91534e-07)
(2.6859e-06 -2.66281e-05 -3.46135e-07)
(1.22559e-06 -1.98731e-05 -2.84855e-07)
(1.50312e-07 -9.51564e-06 -1.49807e-07)
(-1.81314e-07 -7.99744e-06 -1.81138e-07)
(-1.47366e-06 -1.68106e-05 -3.43648e-07)
(-3.23742e-06 -2.26176e-05 -4.18111e-07)
(-5.28307e-06 -2.69002e-05 -4.75744e-07)
(-7.41671e-06 -3.03226e-05 -5.40512e-07)
(-9.47038e-06 -3.32427e-05 -6.25403e-07)
(-1.12641e-05 -3.5865e-05 -7.35257e-07)
(-1.26207e-05 -3.82991e-05 -8.7115e-07)
(-1.33763e-05 -4.05875e-05 -1.03044e-06)
(-1.33957e-05 -4.27239e-05 -1.20685e-06)
(-1.25904e-05 -4.46664e-05 -1.39041e-06)
(-1.09362e-05 -4.6351e-05 -1.56752e-06)
(-8.48818e-06 -4.77035e-05 -1.72207e-06)
(-5.38764e-06 -4.8653e-05 -1.83734e-06)
(-1.85625e-06 -4.91427e-05 -1.89918e-06)
(1.82591e-06 -4.91411e-05 -1.89918e-06)
(5.35782e-06 -4.86485e-05 -1.8374e-06)
(8.45954e-06 -4.76965e-05 -1.72215e-06)
(1.09093e-05 -4.63416e-05 -1.56762e-06)
(1.25657e-05 -4.46554e-05 -1.39054e-06)
(1.33736e-05 -4.27118e-05 -1.20699e-06)
(1.33571e-05 -4.05749e-05 -1.03061e-06)
(1.26048e-05 -3.82863e-05 -8.71318e-07)
(1.12514e-05 -3.58527e-05 -7.354e-07)
(9.46104e-06 -3.32312e-05 -6.25515e-07)
(7.41037e-06 -3.03122e-05 -5.40625e-07)
(5.27934e-06 -2.68913e-05 -4.75764e-07)
(3.23574e-06 -2.26106e-05 -4.18053e-07)
(1.47328e-06 -1.68058e-05 -3.43496e-07)
(1.81409e-07 -7.99543e-06 -1.80948e-07)
(-1.99265e-07 -6.24867e-06 -1.99108e-07)
(-1.6197e-06 -1.32807e-05 -3.77188e-07)
(-3.57447e-06 -1.7977e-05 -4.58842e-07)
(-5.86759e-06 -2.14556e-05 -5.23545e-07)
(-8.28978e-06 -2.42358e-05 -5.99007e-07)
(-1.06509e-05 -2.66071e-05 -7.00481e-07)
(-1.27421e-05 -2.87393e-05 -8.34121e-07)
(-1.43534e-05 -3.07241e-05 -1.00137e-06)
(-1.52874e-05 -3.25971e-05 -1.19917e-06)
(-1.53772e-05 -3.43511e-05 -1.41977e-06)
(-1.45088e-05 -3.59495e-05 -1.65065e-06)
(-1.26434e-05 -3.73368e-05 -1.87449e-06)
(-9.83786e-06 -3.84508e-05 -2.07061e-06)
(-6.25406e-06 -3.92323e-05 -2.21729e-06)
(-2.15379e-06 -3.9635e-05 -2.2961e-06)
(2.12776e-06 -3.96337e-05 -2.29606e-06)
(6.22831e-06 -3.92284e-05 -2.21724e-06)