/*--------------------------------*- C++ -*----------------------------------*\
| =========                 |                                                 |
| \\      /  F ield         | OpenFOAM: The Open Source CFD Toolbox           |
|  \\    /   O peration     | Version:  v1906                                 |
|   \\  /    A nd           | Web:      www.OpenFOAM.com                      |
|    \\/     M anipulation  |                                                 |
\*---------------------------------------------------------------------------*/
FoamFile
{
    version     2.0;
    format      ascii;
    class       volVectorField;
    location    "36.6/oil";
    object      U;
}
// * * * * * * * * * * * * * * * * * * * * * * * * * * * * * * * * * * * * * //

dimensions      [0 1 -1 0 0 0 0];


internalField   nonuniform List<vector> 
27760
(
(-2.70284e-05 -2.75688e-05 -2.70284e-05)
(-5.3371e-05 -2.06859e-05 -1.9461e-05)
(-3.94261e-06 -5.37382e-06 -5.30379e-06)
(-6.47683e-06 -8.8888e-07 -9.40894e-07)
(-1.53085e-06 -2.9707e-07 -3.55266e-07)
(-8.13859e-07 -1.37552e-07 -1.96606e-07)
(-1.70343e-07 -4.25681e-08 -1.04388e-07)
(1.26847e-07 -4.03099e-09 -6.91343e-08)
(2.90095e-07 1.63542e-08 -5.14753e-08)
(3.63071e-07 2.79283e-08 -4.19005e-08)
(3.74713e-07 3.56128e-08 -3.54142e-08)
(3.39067e-07 4.10407e-08 -3.06291e-08)
(2.66165e-07 4.48451e-08 -2.70525e-08)
(1.65461e-07 4.74171e-08 -2.4539e-08)
(4.71102e-08 4.87815e-08 -2.31731e-08)
(-7.81831e-08 4.89466e-08 -2.3008e-08)
(-1.99643e-07 4.79601e-08 -2.39954e-08)
(-3.0726e-07 4.59298e-08 -2.59623e-08)
(-3.92687e-07 4.30273e-08 -2.86137e-08)
(-4.49857e-07 3.94481e-08 -3.15722e-08)
(-4.75568e-07 3.52764e-08 -3.44711e-08)
(-4.69651e-07 3.07571e-08 -3.6842e-08)
(-4.34442e-07 2.61593e-08 -3.80811e-08)
(-3.74757e-07 2.15186e-08 -3.79035e-08)
(-2.97731e-07 1.69316e-08 -3.59745e-08)
(-2.12215e-07 1.25834e-08 -3.20355e-08)
(-1.28463e-07 8.85904e-09 -2.60932e-08)
(-5.77098e-08 6.49258e-09 -1.8634e-08)
(-1.04321e-08 6.56126e-09 -1.11341e-08)
(4.09672e-09 7.95957e-09 -3.99353e-09)
(-1.96165e-05 -5.48329e-05 -1.96164e-05)
(-6.47446e-06 -7.06105e-06 -8.78527e-06)
(-8.81469e-06 -8.52325e-06 -3.06905e-06)
(-4.20827e-06 -2.38309e-06 -8.74607e-07)
(-1.83051e-06 -1.39664e-06 -4.30378e-07)
(-7.54877e-07 -7.06235e-07 -2.07378e-07)
(-9.53834e-09 -4.12197e-07 -9.89373e-08)
(4.13763e-07 -2.5672e-07 -4.74793e-08)
(6.59952e-07 -1.68978e-07 -1.8337e-08)
(7.71706e-07 -1.12484e-07 9.09163e-11)
(7.78117e-07 -7.20334e-08 1.35923e-08)
(6.96773e-07 -4.14106e-08 2.41767e-08)
(5.43702e-07 -1.84371e-08 3.2453e-08)
(3.36099e-07 -2.54847e-09 3.82653e-08)
(9.33735e-08 6.10749e-09 4.13948e-08)
(-1.63222e-07 7.458e-09 4.17138e-08)
(-4.12106e-07 1.80131e-09 3.9304e-08)
(-6.33174e-07 -1.0073e-08 3.45006e-08)
(-8.09624e-07 -2.6911e-08 2.78691e-08)
(-9.29433e-07 -4.71372e-08 2.01502e-08)
(-9.86108e-07 -6.90953e-08 1.22188e-08)
(-9.78988e-07 -9.10214e-08 4.86055e-09)
(-9.1304e-07 -1.11129e-07 -1.17145e-09)
(-7.98166e-07 -1.27858e-07 -5.27119e-09)
(-6.48345e-07 -1.3943e-07 -6.99537e-09)
(-4.80698e-07 -1.43609e-07 -6.16814e-09)
(-3.1433e-07 -1.37304e-07 -3.06054e-09)
(-1.68644e-07 -1.16422e-07 1.3222e-09)
(-6.09348e-08 -7.63306e-08 4.68626e-09)
(-3.96819e-09 -2.06498e-08 4.12175e-09)
(-5.43424e-06 -5.06976e-06 -5.43421e-06)
(-8.61939e-06 -9.45229e-06 -3.15003e-06)
(-4.63163e-06 -5.15709e-06 -1.39351e-06)
(-2.9082e-06 -2.79684e-06 -6.59919e-07)
(-1.33579e-06 -1.81518e-06 -3.10851e-07)
(-4.00816e-07 -1.20893e-06 -1.39927e-07)
(2.67431e-07 -8.94815e-07 -5.16037e-08)
(6.90053e-07 -7.06565e-07 -4.33029e-09)
(9.44581e-07 -5.84919e-07 2.51205e-08)
(1.05659e-06 -4.97178e-07 4.58185e-08)
(1.0463e-06 -4.28962e-07 6.21371e-08)
(9.28923e-07 -3.74381e-07 7.5486e-08)
(7.21414e-07 -3.3189e-07 8.60839e-08)
(4.44331e-07 -3.01937e-07 9.35988e-08)
(1.22187e-07 -2.8536e-07 9.76469e-08)
(-2.177e-07 -2.82549e-07 9.80145e-08)
(-5.47347e-07 -2.92979e-07 9.47823e-08)
(-8.40606e-07 -3.15039e-07 8.83631e-08)
(-1.07561e-06 -3.46111e-07 7.94662e-08)
(-1.23672e-06 -3.82855e-07 6.90092e-08)
(-1.31558e-06 -4.21506e-07 5.80038e-08)
(-1.31151e-06 -4.58257e-07 4.74271e-08)
(-1.23095e-06 -4.89287e-07 3.81388e-08)
(-1.08664e-06 -5.1073e-07 3.08091e-08)
(-8.9625e-07 -5.18316e-07 2.58408e-08)
(-6.80961e-07 -5.06911e-07 2.32881e-08)
(-4.63773e-07 -4.69859e-07 2.26951e-08)
(-2.66966e-07 -3.98658e-07 2.27467e-08)
(-1.11096e-07 -2.8267e-07 2.08159e-08)
(-1.15932e-08 -1.14577e-07 1.17895e-08)
(-9.89474e-07 -7.26701e-06 -9.89431e-07)
(-2.35082e-06 -5.28178e-06 -9.0377e-07)
(-2.10444e-06 -4.16689e-06 -6.58972e-07)
(-1.42766e-06 -2.91016e-06 -3.50256e-07)
(-5.70303e-07 -2.22428e-06 -1.68631e-07)
(8.41094e-08 -1.77046e-06 -6.55831e-08)
(6.05421e-07 -1.49779e-06 -4.61413e-09)
(9.69083e-07 -1.3133e-06 3.29549e-08)
(1.19438e-06 -1.17884e-06 5.94827e-08)
(1.28593e-06 -1.07159e-06 8.02723e-08)
(1.25175e-06 -9.81827e-07 9.78307e-08)
(1.1019e-06 -9.06455e-07 1.1276e-07)
(8.51926e-07 -8.46048e-07 1.24831e-07)
(5.23525e-07 -8.02693e-07 1.33469e-07)
(1.44021e-07 -7.7842e-07 1.38121e-07)
(-2.55413e-07 -7.742e-07 1.38493e-07)
(-6.42551e-07 -7.89353e-07 1.34654e-07)
(-9.8717e-07 -8.2137e-07 1.27067e-07)
(-1.26401e-06 -8.66071e-07 1.16549e-07)
(-1.4551e-06 -9.18082e-07 1.04145e-07)
(-1.55095e-06 -9.71342e-07 9.09867e-08)
(-1.55092e-06 -1.01958e-06 7.81563e-08)
(-1.46252e-06 -1.05647e-06 6.65786e-08)
(-1.30021e-06 -1.07555e-06 5.69442e-08)
(-1.08372e-06 -1.06977e-06 4.96248e-08)
(-8.3628e-07 -1.03078e-06 4.46099e-08)
(-5.82742e-07 -9.47983e-07 4.13665e-08)
(-3.46744e-07 -8.07438e-07 3.84011e-08)
(-1.51777e-07 -5.88971e-07 3.28512e-08)
(-1.74831e-08 -2.61219e-07 1.77316e-08)
(-3.35892e-07 -2.38244e-06 -3.35837e-07)
(-1.1921e-06 -3.37299e-06 -4.13193e-07)
(-9.77267e-07 -3.33926e-06 -2.96845e-07)
(-5.6439e-07 -2.92188e-06 -1.62961e-07)
(-1.00546e-08 -2.61087e-06 -6.94372e-08)
(4.83012e-07 -2.3581e-06 -8.93311e-09)
(9.02807e-07 -2.17349e-06 3.19109e-08)
(1.21295e-06 -2.02553e-06 6.10511e-08)
(1.40582e-06 -1.89993e-06 8.45202e-08)
(1.47357e-06 -1.78742e-06 1.04899e-07)
(1.4156e-06 -1.68546e-06 1.2322e-07)
(1.23768e-06 -1.59545e-06 1.39364e-07)
(9.53664e-07 -1.52111e-06 1.52662e-07)
(5.85512e-07 -1.46681e-06 1.62268e-07)
(1.62327e-07 -1.43614e-06 1.67441e-07)
(-2.82025e-07 -1.43081e-06 1.67791e-07)
(-7.12247e-07 -1.45011e-06 1.63375e-07)
(-1.09514e-06 -1.49068e-06 1.54704e-07)
(-1.403e-06 -1.54681e-06 1.42722e-07)
(-1.61625e-06 -1.61103e-06 1.28595e-07)
(-1.72476e-06 -1.67493e-06 1.13595e-07)
(-1.72811e-06 -1.72978e-06 9.89098e-08)
(-1.6346e-06 -1.76669e-06 8.55232e-08)
(-1.45985e-06 -1.77662e-06 7.41454e-08)
(-1.22487e-06 -1.74971e-06 6.51383e-08)
(-9.54031e-07 -1.67431e-06 5.84531e-08)
(-6.73195e-07 -1.53549e-06 5.3516e-08)
(-4.07016e-07 -1.31249e-06 4.87092e-08)
(-1.81807e-07 -9.71908e-07 4.0959e-08)
(-2.15627e-08 -4.4812e-07 2.18671e-08)
(-1.50167e-07 -1.84941e-06 -1.501e-07)
(-4.20937e-07 -2.85353e-06 -1.6872e-07)
(-2.85131e-07 -3.18938e-06 -1.17764e-07)
(3.31387e-09 -3.18614e-06 -5.72068e-08)
(4.02699e-07 -3.12176e-06 -7.90448e-09)
(7.95575e-07 -3.02545e-06 2.84943e-08)
(1.14542e-06 -2.92661e-06 5.69649e-08)
(1.41278e-06 -2.82388e-06 8.0664e-08)
(1.57704e-06 -2.7183e-06 1.02237e-07)
(1.623e-06 -2.61091e-06 1.22627e-07)
(1.54436e-06 -2.50551e-06 1.41893e-07)
(1.34357e-06 -2.40786e-06 1.59364e-07)
(1.0329e-06 -2.32487e-06 1.73982e-07)
(6.34264e-07 -2.26321e-06 1.84626e-07)
(1.77965e-07 -2.2281e-06 1.90353e-07)
(-3.00161e-07 -2.22206e-06 1.90675e-07)
(-7.62505e-07 -2.24439e-06 1.85629e-07)
(-1.1736e-06 -2.29105e-06 1.75792e-07)
(-1.50396e-06 -2.3549e-06 1.62249e-07)
(-1.73291e-06 -2.42663e-06 1.46335e-07)
(-1.85007e-06 -2.49574e-06 1.29489e-07)
(-1.85531e-06 -2.55117e-06 1.13017e-07)
(-1.75772e-06 -2.58175e-06 9.7974e-08)
(-1.57383e-06 -2.57602e-06 8.51089e-08)
(-1.32546e-06 -2.52142e-06 7.4782e-08)
(-1.03766e-06 -2.40295e-06 6.69191e-08)
(-7.36988e-07 -2.20085e-06 6.09111e-08)
(-4.48932e-07 -1.88618e-06 5.50418e-08)
(-2.02152e-07 -1.40921e-06 4.60448e-08)
(-2.41789e-08 -6.63082e-07 2.4538e-08)
(-4.66771e-08 -1.47024e-06 -4.65999e-08)
(-9.60369e-08 -2.70294e-06 -5.1651e-08)
(6.51606e-08 -3.31969e-06 -2.77614e-08)
(3.29479e-07 -3.59451e-06 1.50074e-09)
(6.68024e-07 -3.72002e-06 2.87376e-08)
(1.01045e-06 -3.75469e-06 5.20925e-08)
(1.31927e-06 -3.73807e-06 7.3495e-08)
(1.55778e-06 -3.68576e-06 9.40676e-08)
(1.70096e-06 -3.60905e-06 1.14767e-07)
(1.73026e-06 -3.51647e-06 1.35623e-07)
(1.63616e-06 -3.4169e-06 1.56069e-07)
(1.41887e-06 -3.31978e-06 1.75019e-07)
(1.08941e-06 -3.23469e-06 1.91074e-07)
(6.69551e-07 -3.17036e-06 2.02838e-07)
(1.90358e-07 -3.13341e-06 2.09155e-07)
(-3.10907e-07 -3.12707e-06 2.09444e-07)
(-7.95015e-07 -3.15072e-06 2.03731e-07)
(-1.22485e-06 -3.1998e-06 1.92649e-07)
(-1.56967e-06 -3.26614e-06 1.77449e-07)
(-1.80819e-06 -3.33897e-06 1.59666e-07)
(-1.93002e-06 -3.40607e-06 1.40923e-07)
(-1.93553e-06 -3.45462e-06 1.22665e-07)
(-1.83456e-06 -3.47156e-06 1.06045e-07)
(-1.64433e-06 -3.44336e-06 9.1837e-08)
(-1.38724e-06 -3.35492e-06 8.0408e-08)
(-1.08869e-06 -3.18783e-06 7.16581e-08)
(-7.75588e-07 -2.91706e-06 6.49459e-08)
(-4.7397e-07 -2.5044e-06 5.84813e-08)
(-2.14035e-07 -1.88146e-06 4.88382e-08)
(-2.56368e-08 -8.95797e-07 2.60473e-08)
(-7.42259e-09 -1.45292e-06 -7.33681e-09)
(6.03537e-08 -2.86784e-06 2.16105e-10)
(2.50683e-07 -3.67238e-06 1.51313e-08)
(5.14602e-07 -4.12997e-06 3.16881e-08)
(8.26887e-07 -4.39525e-06 4.86582e-08)
(1.14162e-06 -4.53514e-06 6.55485e-08)
(1.4248e-06 -4.59291e-06 8.33233e-08)
(1.64336e-06 -4.59254e-06 1.02393e-07)
(1.77142e-06 -4.55119e-06 1.22946e-07)
(1.78921e-06 -4.48215e-06 1.44554e-07)
(1.68547e-06 -4.39771e-06 1.66276e-07)
(1.45892e-06 -4.30983e-06 1.86709e-07)
(1.11958e-06 -4.23004e-06 2.04174e-07)
(6.88865e-07 -4.16846e-06 2.17035e-07)
(1.98195e-07 -4.13268e-06 2.23922e-07)
(-3.14409e-07 -4.1264e-06 2.24178e-07)
(-8.0888e-07 -4.14911e-06 2.17814e-07)
(-1.24719e-06 -4.19603e-06 2.05524e-07)
(-1.5979e-06 -4.25836e-06 1.8873e-07)
(-1.83958e-06 -4.32446e-06 1.69156e-07)
(-1.96215e-06 -4.38112e-06 1.48614e-07)
(-1.96656e-06 -4.41429e-06 1.287e-07)
(-1.8633e-06 -4.40958e-06 1.10667e-07)
(-1.67006e-06 -4.35177e-06 9.53045e-08)
(-1.40953e-06 -4.22356e-06 8.29811e-08)
(-1.10709e-06 -4.0031e-06 7.35653e-08)
(-7.89561e-07 -3.65972e-06 6.63977e-08)
(-4.83035e-07 -3.14525e-06 5.96363e-08)
(-2.18266e-07 -2.37123e-06 4.97698e-08)
(-2.61253e-08 -1.13734e-06 2.65818e-08)
(1.00067e-08 -1.55707e-06 1.00999e-08)
(1.30858e-07 -3.16855e-06 2.41422e-08)
(3.39474e-07 -4.13299e-06 3.53774e-08)
(6.04598e-07 -4.73232e-06 4.63372e-08)
(9.01891e-07 -5.11067e-06 5.83821e-08)
(1.19773e-06 -5.34038e-06 7.20064e-08)
(1.46194e-06 -5.46747e-06 8.78872e-08)
(1.66497e-06 -5.52064e-06 1.06206e-07)
(1.78171e-06 -5.52048e-06 1.2682e-07)
(1.79232e-06 -5.48304e-06 1.49069e-07)
(1.68484e-06 -5.42266e-06 1.71799e-07)
(1.45701e-06 -5.35276e-06 1.93402e-07)
(1.11796e-06 -5.28577e-06 2.1198e-07)
(6.88509e-07 -5.23248e-06 2.25703e-07)
(1.99812e-07 -5.20092e-06 2.33015e-07)
(-3.10247e-07 -5.19499e-06 2.33239e-07)
(-8.01741e-07 -5.21428e-06 2.26379e-07)
(-1.23666e-06 -5.25405e-06 2.13129e-07)
(-1.58365e-06 -5.30545e-06 1.95063e-07)
(-1.82162e-06 -5.3566e-06 1.74078e-07)
(-1.94098e-06 -5.39391e-06 1.52152e-07)
(-1.94334e-06 -5.40293e-06 1.30994e-07)
(-1.83963e-06 -5.36854e-06 1.11913e-07)
(-1.64774e-06 -5.27431e-06 9.57303e-08)
(-1.39013e-06 -5.10101e-06 8.28008e-08)
(-1.0917e-06 -4.82342e-06 7.29784e-08)
(-7.78613e-07 -4.40523e-06 6.5578e-08)
(-4.76359e-07 -3.7878e-06 5.87545e-08)
(-2.15205e-07 -2.86213e-06 4.9021e-08)
(-2.5732e-08 -1.37946e-06 2.62289e-08)
(1.67505e-08 -1.71935e-06 1.68498e-08)
(1.57825e-07 -3.53304e-06 3.35986e-08)
(3.70274e-07 -4.64162e-06 4.31801e-08)
(6.28851e-07 -5.3589e-06 5.15983e-08)
(9.09806e-07 -5.83292e-06 6.12054e-08)
(1.18626e-06 -6.14176e-06 7.30561e-08)
(1.43156e-06 -6.3342e-06 8.77687e-08)
(1.61931e-06 -6.44189e-06 1.05456e-07)
(1.72601e-06 -6.48745e-06 1.2588e-07)
(1.73261e-06 -6.4884e-06 1.48275e-07)
(1.62703e-06 -6.45984e-06 1.71383e-07)
(1.40642e-06 -6.41548e-06 1.9349e-07)
(1.07908e-06 -6.3679e-06 2.12555e-07)
(6.64762e-07 -6.32784e-06 2.26648e-07)
(1.93577e-07 -6.30321e-06 2.34119e-07)
(-2.97778e-07 -6.29784e-06 2.3431e-07)
(-7.70886e-07 -6.31143e-06 2.27218e-07)
(-1.18887e-06 -6.33949e-06 2.135e-07)
(-1.52132e-06 -6.37352e-06 1.94823e-07)
(-1.74807e-06 -6.40213e-06 1.73162e-07)
(-1.8603e-06 -6.41207e-06 1.50583e-07)
(-1.86017e-06 -6.38912e-06 1.2888e-07)
(-1.75874e-06 -6.31805e-06 1.09388e-07)
(-1.5736e-06 -6.18178e-06 9.29284e-08)
(-1.3264e-06 -5.95938e-06 7.98286e-08)
(-1.04095e-06 -5.62258e-06 6.99271e-08)
(-7.42034e-07 -5.1294e-06 6.25561e-08)
(-4.53757e-07 -4.41092e-06 5.59186e-08)
(-2.04876e-07 -3.33785e-06 4.66433e-08)
(-2.4477e-08 -1.61411e-06 2.50093e-08)
(1.84493e-08 -1.89784e-06 1.85492e-08)
(1.59832e-07 -3.90924e-06 3.55127e-08)
(3.62275e-07 -5.14963e-06 4.3938e-08)
(6.03418e-07 -5.9693e-06 5.09117e-08)
(8.60955e-07 -6.52676e-06 5.90494e-08)
(1.1125e-06 -6.90657e-06 6.96102e-08)
(1.33478e-06 -7.16066e-06 8.31859e-08)
(1.50456e-06 -7.32273e-06 9.9896e-08)
(1.60056e-06 -7.41659e-06 1.19459e-07)
(1.60511e-06 -7.46027e-06 1.41109e-07)
(1.50666e-06 -7.4687e-06 1.6357e-07)
(1.30207e-06 -7.45519e-06 1.85121e-07)
(9.98699e-07 -7.43172e-06 2.03722e-07)
(6.14733e-07 -7.40835e-06 2.17454e-07)
(1.78263e-07 -7.39248e-06 2.24668e-07)
(-2.76543e-07 -7.38777e-06 2.24825e-07)
(-7.14173e-07 -7.39399e-06 2.17919e-07)
(-1.10027e-06 -7.40708e-06 2.04478e-07)
(-1.40644e-06 -7.41917e-06 1.86152e-07)
(-1.61408e-06 -7.41977e-06 1.64885e-07)
(-1.71533e-06 -7.39657e-06 1.42769e-07)
(-1.71268e-06 -7.33609e-06 1.21555e-07)
(-1.61696e-06 -7.22359e-06 1.02549e-07)
(-1.44482e-06 -7.0418e-06 8.65484e-08)
(-1.21643e-06 -6.76855e-06 7.38636e-08)
(-9.53676e-07 -6.37278e-06 6.43278e-08)
(-6.79242e-07 -5.80723e-06 5.72927e-08)
(-4.15062e-07 -4.99313e-06 5.11005e-08)
(-1.87278e-07 -3.78202e-06 4.26339e-08)
(-2.23568e-08 -1.83325e-06 2.292e-08)
(1.73546e-08 -2.06968e-06 1.7458e-08)
(1.45855e-07 -4.26275e-06 3.29557e-08)
(3.25985e-07 -5.62035e-06 4.01933e-08)
(5.38261e-07 -6.52847e-06 4.60306e-08)
(7.62956e-07 -7.15837e-06 5.29423e-08)
(9.81559e-07 -7.60123e-06 6.21961e-08)
(1.17441e-06 -7.91208e-06 7.43243e-08)
(1.32178e-06 -8.12634e-06 8.94457e-08)
(1.40511e-06 -8.26834e-06 1.07287e-07)
(1.40879e-06 -8.35593e-06 1.27134e-07)
(1.32231e-06 -8.40334e-06 1.47786e-07)
(1.14251e-06 -8.4229e-06 1.6762e-07)
(8.75617e-07 -8.42554e-06 1.84713e-07)
(5.37604e-07 -8.4203e-06 1.97306e-07)
(1.53441e-07 -8.41393e-06 2.03846e-07)
(-2.46566e-07 -8.40995e-06 2.03964e-07)
(-6.31235e-07 -8.40815e-06 1.97642e-07)
(-9.70117e-07 -8.40477e-06 1.85248e-07)
(-1.23792e-06 -8.39278e-06 1.68338e-07)
(-1.41831e-06 -8.36275e-06 1.48681e-07)
(-1.5047e-06 -8.3037e-06 1.28241e-07)
(-1.49978e-06 -8.20342e-06 1.0866e-07)
(-1.41357e-06 -8.04799e-06 9.11525e-08)
(-1.26105e-06 -7.82024e-06 7.64509e-08)
(-1.06018e-06 -7.49723e-06 6.48287e-08)
(-8.30125e-07 -7.04558e-06 5.61376e-08)
(-5.90586e-07 -6.41328e-06 4.97938e-08)
(-3.60535e-07 -5.51275e-06 4.43356e-08)
(-1.62532e-07 -4.1782e-06 3.70175e-08)
(-1.93795e-08 -2.02881e-06 1.99681e-08)
(1.45599e-08 -2.21944e-06 1.46567e-08)
(1.20603e-07 -4.56763e-06 2.74655e-08)
(2.67798e-07 -6.02371e-06 3.32767e-08)
(4.40409e-07 -7.0053e-06 3.79573e-08)
(6.22438e-07 -7.69587e-06 4.35831e-08)
(7.9937e-07 -8.19266e-06 5.12543e-08)
(9.55602e-07 -8.55343e-06 6.14293e-08)
(1.07534e-06 -8.81494e-06 7.42067e-08)
(1.14344e-06 -9.00161e-06 8.93441e-08)
(1.14693e-06 -9.13077e-06 1.06223e-07)
(1.07682e-06 -9.21562e-06 1.23804e-07)
(9.30104e-07 -9.26707e-06 1.40696e-07)
(7.11653e-07 -9.29476e-06 1.55199e-07)
(4.34522e-07 -9.30684e-06 1.65832e-07)
(1.19428e-07 -9.3095e-06 1.71281e-07)
(-2.08467e-07 -9.30619e-06 1.71346e-07)
(-5.23488e-07 -9.29677e-06 1.66022e-07)
(-8.00363e-07 -9.27759e-06 1.55494e-07)
(-1.01813e-06 -9.24221e-06 1.41081e-07)
(-1.16349e-06 -9.1824e-06 1.24288e-07)
(-1.23136e-06 -9.08854e-06 1.06823e-07)
(-1.22446e-06 -8.94984e-06 9.00965e-08)
(-1.15148e-06 -8.75347e-06 7.51743e-08)
(-1.02507e-06 -8.4828e-06 6.26596e-08)
(-8.60126e-07 -8.11439e-06 5.27988e-08)
(-6.72307e-07 -7.61303e-06 4.546e-08)
(-4.77565e-07 -6.92289e-06 4.01628e-08)
(-2.91132e-07 -5.9489e-06 3.57095e-08)
(-1.31075e-07 -4.51056e-06 2.98702e-08)
(-1.55978e-08 -2.19303e-06 1.62093e-08)
(1.06046e-08 -2.33622e-06 1.07013e-08)
(8.7001e-08 -4.8039e-06 1.99314e-08)
(1.92529e-07 -6.33529e-06 2.40615e-08)
(3.16157e-07 -7.3731e-06 2.74404e-08)
(4.46565e-07 -8.11086e-06 3.16077e-08)
(5.737e-07 -8.65063e-06 3.73909e-08)
(6.86514e-07 -9.05235e-06 4.5119e-08)
(7.73666e-07 -9.3537e-06 5.4894e-08)
(8.24065e-07 -9.57896e-06 6.65517e-08)
(8.27901e-07 -9.74451e-06 7.96257e-08)
(7.78161e-07 -9.86238e-06 9.33059e-08)
(6.72055e-07 -9.94215e-06 1.06506e-07)
(5.1268e-07 -9.99207e-06 1.17867e-07)
(3.09394e-07 -1.00194e-05 1.26236e-07)
(7.76072e-08 -1.00299e-05 1.30515e-07)
(-1.63629e-07 -1.00272e-05 1.30522e-07)
(-3.94822e-07 -1.00111e-05 1.26259e-07)
(-5.9686e-07 -9.97788e-06 1.17898e-07)
(-7.54214e-07 -9.92171e-06 1.06543e-07)
(-8.5744e-07 -9.83529e-06 9.33756e-08)
(-9.03299e-07 -9.71041e-06 7.97715e-08)
(-8.94471e-07 -9.53769e-06 6.68011e-08)
(-8.37915e-07 -9.30552e-06 5.52842e-08)
(-7.43306e-07 -8.99796e-06 4.56831e-08)
(-6.21696e-07 -8.59154e-06 3.8161e-08)
(-4.84537e-07 -8.0497e-06 3.26067e-08)
(-3.43279e-07 -7.31369e-06 2.86739e-08)
(-2.0874e-07 -6.28271e-06 2.54813e-08)
(-9.37451e-08 -4.76483e-06 2.13947e-08)
(-1.11034e-08 -2.31883e-06 1.17312e-08)
(5.85207e-09 -2.41192e-06 5.93947e-09)
(4.73487e-08 -4.95616e-06 1.09375e-08)
(1.04514e-07 -6.53578e-06 1.31504e-08)
(1.71778e-07 -7.61029e-06 1.50709e-08)
(2.43318e-07 -8.37991e-06 1.75746e-08)
(3.13911e-07 -8.94994e-06 2.11439e-08)
(3.77576e-07 -9.38177e-06 2.59997e-08)
(4.2793e-07 -9.71338e-06 3.22161e-08)
(4.58439e-07 -9.96873e-06 3.96984e-08)
(4.62953e-07 -1.01634e-05 4.81904e-08)
(4.36695e-07 -1.03083e-05 5.71884e-08)
(3.77145e-07 -1.04114e-05 6.60178e-08)
(2.85383e-07 -1.048e-05 7.37563e-08)
(1.66437e-07 -1.05203e-05 7.95827e-08)
(2.94495e-08 -1.05376e-05 8.26062e-08)
(-1.13404e-07 -1.05352e-05 8.25471e-08)
(-2.49333e-07 -1.05132e-05 7.94241e-08)
(-3.6618e-07 -1.0468e-05 7.3509e-08)
(-4.5477e-07 -1.03943e-05 6.57196e-08)
(-5.10131e-07 -1.02857e-05 5.68717e-08)
(-5.31247e-07 -1.01355e-05 4.78982e-08)
(-5.2068e-07 -9.93542e-06 3.94826e-08)
(-4.83205e-07 -9.67515e-06 3.21177e-08)
(-4.25022e-07 -9.33942e-06 2.60507e-08)
(-3.52745e-07 -8.90487e-06 2.13653e-08)
(-2.72967e-07 -8.33424e-06 1.79777e-08)
(-1.92094e-07 -7.56685e-06 1.56633e-08)
(-1.16048e-07 -6.49826e-06 1.39299e-08)
(-5.17459e-08 -4.92898e-06 1.18402e-08)
(-6.0325e-09 -2.40026e-06 6.67317e-09)
(5.94891e-10 -2.44098e-06 6.72275e-10)
(3.76373e-09 -5.01358e-06 1.01907e-09)
(8.11311e-09 -6.6114e-06 1.16017e-09)
(1.4063e-08 -7.70109e-06 1.49943e-09)
(2.17954e-08 -8.48571e-06 2.20106e-09)
(3.11991e-08 -9.07184e-06 3.36284e-09)
(4.17208e-08 -9.5213e-06 5.05521e-09)
(5.2252e-08 -9.87203e-06 7.3375e-09)
(6.11328e-08 -1.01476e-05 1.02436e-08)
(6.62759e-08 -1.03629e-05 1.37682e-08)
(6.54279e-08 -1.05277e-05 1.77742e-08)
(5.64821e-08 -1.06491e-05 2.20122e-08)
(3.82115e-08 -1.07329e-05 2.60162e-08)
(1.088e-08 -1.07842e-05 2.92875e-08)
(-2.31879e-08 -1.08073e-05 3.11085e-08)
(-5.93075e-08 -1.08052e-05 3.09978e-08)
(-9.19233e-08 -1.07779e-05 2.89908e-08)
(-1.16439e-07 -1.07222e-05 2.55394e-08)
(-1.30626e-07 -1.06341e-05 2.14204e-08)
(-1.3442e-07 -1.05083e-05 1.71307e-08)
(-1.29161e-07 -1.03393e-05 1.31397e-08)
(-1.17156e-07 -1.012e-05 9.6783e-09)
(-1.00789e-07 -9.84095e-06 6.87176e-09)
(-8.22791e-08 -9.48757e-06 4.72204e-09)
(-6.34287e-08 -9.03669e-06 3.1846e-09)
(-4.5596e-08 -8.45086e-06 2.19298e-09)
(-2.97279e-08 -7.66866e-06 1.67735e-09)
(-1.65304e-08 -6.58403e-06 1.53169e-09)
(-6.64812e-09 -4.99423e-06 1.57646e-09)
(-5.79982e-10 -2.43298e-06 1.22903e-09)
(-4.90847e-09 -2.42017e-06 -4.84406e-09)
(-4.16439e-08 -4.96988e-06 -9.34908e-09)
(-9.21406e-08 -6.55412e-06 -1.13681e-08)
(-1.4977e-07 -7.63629e-06 -1.2676e-08)
(-2.08167e-07 -8.418e-06 -1.38822e-08)
(-2.6222e-07 -9.00495e-06 -1.53001e-08)
(-3.06984e-07 -9.45829e-06 -1.70087e-08)
(-3.3816e-07 -9.81559e-06 -1.89832e-08)
(-3.52298e-07 -1.00999e-05 -2.10972e-08)
(-3.47244e-07 -1.03257e-05 -2.31455e-08)
(-3.22504e-07 -1.0502e-05 -2.48729e-08)
(-2.79518e-07 -1.06352e-05 -2.60286e-08)
(-2.21537e-07 -1.07299e-05 -2.65334e-08)
(-1.53053e-07 -1.07897e-05 -2.64852e-08)
(-7.8858e-08 -1.08175e-05 -2.62519e-08)
(-2.49807e-09 -1.08155e-05 -2.64117e-08)
(7.34337e-08 -1.07837e-05 -2.69045e-08)
(1.45275e-07 -1.07199e-05 -2.71927e-08)
(2.08053e-07 -1.06214e-05 -2.68355e-08)
(2.56955e-07 -1.04846e-05 -2.57637e-08)
(2.88491e-07 -1.03048e-05 -2.40373e-08)
(3.00934e-07 -1.00761e-05 -2.19387e-08)
(2.94592e-07 -9.78941e-06 -1.97209e-08)
(2.71433e-07 -9.43054e-06 -1.76144e-08)
(2.34706e-07 -8.97667e-06 -1.57583e-08)
(1.8847e-07 -8.39059e-06 -1.41744e-08)
(1.37311e-07 -7.61133e-06 -1.27805e-08)
(8.58331e-08 -6.53349e-06 -1.12621e-08)
(3.97599e-08 -4.95564e-06 -9.01049e-09)
(5.04602e-09 -2.41447e-06 -4.39282e-09)
(-1.0389e-08 -2.34861e-06 -1.03312e-08)
(-8.67164e-08 -4.82349e-06 -1.96568e-08)
(-1.91532e-07 -6.36197e-06 -2.38143e-08)
(-3.12062e-07 -7.4137e-06 -2.67557e-08)
(-4.35914e-07 -8.17421e-06 -2.98648e-08)
(-5.52849e-07 -8.7461e-06 -3.38678e-08)
(-6.52598e-07 -9.18873e-06 -3.90379e-08)
(-7.25591e-07 -9.53858e-06 -4.53868e-08)
(-7.63355e-07 -9.81826e-06 -5.27231e-08)
(-7.5947e-07 -1.00419e-05 -6.06438e-08)
(-7.10455e-07 -1.02185e-05 -6.85479e-08)
(-6.16741e-07 -1.03537e-05 -7.57272e-08)
(-4.83237e-07 -1.04516e-05 -8.14939e-08)
(-3.18763e-07 -1.05147e-05 -8.53883e-08)
(-1.35242e-07 -1.05448e-05 -8.7217e-08)
(5.50351e-08 -1.05428e-05 -8.73919e-08)
(2.405e-07 -1.05089e-05 -8.58619e-08)
(4.08685e-07 -1.04419e-05 -8.22389e-08)
(5.47447e-07 -1.03406e-05 -7.66553e-08)
(6.47548e-07 -1.02022e-05 -6.95838e-08)
(7.03796e-07 -1.00228e-05 -6.1683e-08)
(7.15414e-07 -9.79692e-06 -5.37195e-08)
(6.8562e-07 -9.51567e-06 -4.62833e-08)
(6.20614e-07 -9.16502e-06 -3.98098e-08)
(5.28648e-07 -8.7225e-06 -3.45016e-08)
(4.19054e-07 -8.15185e-06 -3.03342e-08)
(3.01772e-07 -7.39376e-06 -2.70365e-08)
(1.86619e-07 -6.34582e-06 -2.38624e-08)
(8.54729e-08 -4.81256e-06 -1.94492e-08)
(1.05974e-08 -2.34435e-06 -9.94473e-09)
(-1.55744e-08 -2.22793e-06 -1.5534e-08)
(-1.29282e-07 -4.57784e-06 -2.94248e-08)
(-2.85307e-07 -6.03954e-06 -3.56017e-08)
(-4.65107e-07 -7.03871e-06 -4.00821e-08)
(-6.50605e-07 -7.76028e-06 -4.49784e-08)
(-8.26856e-07 -8.30149e-06 -5.14324e-08)
(-9.78603e-07 -8.71879e-06 -5.98693e-08)
(-1.09136e-06 -9.04701e-06 -7.03948e-08)
(-1.15199e-06 -9.30792e-06 -8.27937e-08)
(-1.14995e-06 -9.51548e-06 -9.65013e-08)
(-1.07889e-06 -9.67873e-06 -1.10655e-07)
(-9.38042e-07 -9.80366e-06 -1.24079e-07)
(-7.33438e-07 -9.89423e-06 -1.35474e-07)
(-4.77726e-07 -9.95292e-06 -1.43726e-07)
(-1.89384e-07 -9.98101e-06 -1.4793e-07)
(1.10532e-07 -9.97903e-06 -1.48105e-07)
(4.00923e-07 -9.94701e-06 -1.44215e-07)
(6.60518e-07 -9.88461e-06 -1.36242e-07)
(8.70608e-07 -9.79078e-06 -1.25039e-07)
(1.01813e-06 -9.663e-06 -1.11727e-07)
(1.09665e-06 -9.49749e-06 -9.76011e-08)
(1.10656e-06 -9.28825e-06 -8.38548e-08)
(1.05396e-06 -9.02636e-06 -7.13771e-08)
(9.49106e-07 -8.6979e-06 -6.07303e-08)
(8.04921e-07 -8.28111e-06 -5.21568e-08)
(6.35648e-07 -7.74137e-06 -4.55525e-08)
(4.56241e-07 -7.02215e-06 -4.04637e-08)
(2.81293e-07 -6.02638e-06 -3.57473e-08)
(1.28446e-07 -4.56905e-06 -2.92938e-08)
(1.58293e-08 -2.22455e-06 -1.51825e-08)
(-2.02368e-08 -2.062e-06 -2.02047e-08)
(-1.67337e-07 -4.24095e-06 -3.81786e-08)
(-3.68975e-07 -5.59761e-06 -4.61431e-08)
(-6.01526e-07 -6.52411e-06 -5.19727e-08)
(-8.41871e-07 -7.19086e-06 -5.84065e-08)
(-1.07086e-06 -7.68747e-06 -6.69346e-08)
(-1.26883e-06 -8.06635e-06 -7.8139e-08)
(-1.4169e-06 -8.36003e-06 -9.2201e-08)
(-1.4978e-06 -8.58924e-06 -1.0888e-07)
(-1.49747e-06 -8.76784e-06 -1.27502e-07)
(-1.40692e-06 -8.90514e-06 -1.46948e-07)
(-1.22426e-06 -9.00782e-06 -1.65676e-07)
(-9.56444e-07 -9.08068e-06 -1.81879e-07)
(-6.19457e-07 -9.12709e-06 -1.93875e-07)
(-2.37513e-07 -9.14894e-06 -2.00159e-07)
(1.60378e-07 -9.14693e-06 -2.00324e-07)
(5.44372e-07 -9.1212e-06 -1.94342e-07)
(8.85296e-07 -9.0712e-06 -1.82608e-07)
(1.15863e-06 -8.9952e-06 -1.66596e-07)
(1.34799e-06 -8.88993e-06 -1.47978e-07)
(1.44603e-06 -8.75073e-06 -1.28573e-07)
(1.45426e-06 -8.57089e-06 -1.09925e-07)
(1.38133e-06 -8.34109e-06 -9.31806e-08)
(1.24104e-06 -8.04754e-06 -7.90149e-08)
(1.05043e-06 -7.66948e-06 -6.76839e-08)
(8.28144e-07 -7.17441e-06 -5.90091e-08)
(5.93567e-07 -6.50996e-06 -5.23917e-08)
(3.65512e-07 -5.58651e-06 -4.63304e-08)
(1.66727e-07 -4.23361e-06 -3.80822e-08)
(2.05088e-08 -2.0592e-06 -1.98738e-08)
(-2.4142e-08 -1.8569e-06 -2.41246e-08)
(-1.99097e-07 -3.82524e-06 -4.55302e-08)
(-4.38681e-07 -5.05267e-06 -5.49749e-08)
(-7.15078e-07 -5.88957e-06 -6.18701e-08)
(-1.00096e-06 -6.48835e-06 -6.94783e-08)
(-1.27364e-06 -6.92931e-06 -7.95778e-08)
(-1.50975e-06 -7.25971e-06 -9.28757e-08)
(-1.68678e-06 -7.50933e-06 -1.09583e-07)
(-1.78407e-06 -7.69768e-06 -1.29421e-07)
(-1.78463e-06 -7.83825e-06 -1.51635e-07)
(-1.67746e-06 -7.94084e-06 -1.74924e-07)
(-1.45993e-06 -8.0132e-06 -1.97499e-07)
(-1.13979e-06 -8.06144e-06 -2.17175e-07)
(-7.35782e-07 -8.09035e-06 -2.31863e-07)
(-2.76781e-07 -8.10314e-06 -2.39654e-07)
(2.01775e-07 -8.10121e-06 -2.39798e-07)
(6.62775e-07 -8.08468e-06 -2.32283e-07)
(1.07063e-06 -8.05234e-06 -2.17835e-07)
(1.39617e-06 -8.00113e-06 -1.98331e-07)
(1.6203e-06 -7.92645e-06 -1.75863e-07)
(1.73484e-06 -7.8222e-06 -1.52627e-07)
(1.74204e-06 -7.68066e-06 -1.30401e-07)
(1.65259e-06 -7.49199e-06 -1.10506e-07)
(1.48318e-06 -7.24273e-06 -9.37214e-08)
(1.25423e-06 -6.91329e-06 -8.03113e-08)
(9.88022e-07 -6.47393e-06 -7.00706e-08)
(7.07666e-07 -5.87731e-06 -6.22912e-08)
(4.35522e-07 -5.04315e-06 -5.51703e-08)
(1.98598e-07 -3.819e-06 -4.54421e-08)
(2.4418e-08 -1.85453e-06 -2.38013e-08)
(-2.71253e-08 -1.6205e-06 -2.71163e-08)
(-2.23149e-07 -3.34671e-06 -5.11449e-08)
(-4.91339e-07 -4.42592e-06 -6.16879e-08)
(-8.00813e-07 -5.1602e-06 -6.93269e-08)
(-1.12111e-06 -5.68131e-06 -7.77048e-08)
(-1.42682e-06 -6.05903e-06 -8.8796e-08)
(-1.69159e-06 -6.33485e-06 -1.03371e-07)
(-1.8901e-06 -6.53534e-06 -1.21657e-07)
(-1.9991e-06 -6.67848e-06 -1.43333e-07)
(-1.9995e-06 -6.7772e-06 -1.67573e-07)
(-1.87905e-06 -6.84183e-06 -1.92969e-07)
(-1.63475e-06 -6.88103e-06 -2.17579e-07)
(-1.27518e-06 -6.90236e-06 -2.39055e-07)
(-8.21263e-07 -6.91219e-06 -2.55111e-07)
(-3.05263e-07 -6.91508e-06 -2.63675e-07)
(2.32809e-07 -6.91328e-06 -2.63796e-07)
(7.50722e-07 -6.90692e-06 -2.55466e-07)
(1.20834e-06 -6.89391e-06 -2.39617e-07)
(1.57309e-06 -6.86984e-06 -2.183e-07)
(1.82376e-06 -6.82854e-06 -1.93794e-07)
(1.95133e-06 -6.76246e-06 -1.68449e-07)
(1.95845e-06 -6.66296e-06 -1.44216e-07)
(1.85707e-06 -6.51972e-06 -1.225e-07)
(1.66596e-06 -6.31967e-06 -1.04151e-07)
(1.40814e-06 -6.04488e-06 -8.9484e-08)
(1.1087e-06 -5.66872e-06 -7.82719e-08)
(7.93728e-07 -5.14964e-06 -6.97311e-08)
(4.88328e-07 -4.4178e-06 -6.18744e-08)
(2.22677e-07 -3.34144e-06 -5.10556e-08)
(2.73894e-08 -1.6185e-06 -2.68002e-08)
(-2.9038e-08 -1.36199e-06 -2.90376e-08)
(-2.38327e-07 -2.82409e-06 -5.47501e-08)
(-5.24588e-07 -3.74196e-06 -6.59742e-08)
(-8.55253e-07 -4.36496e-06 -7.40099e-08)
(-1.19789e-06 -4.80254e-06 -8.27379e-08)
(-1.52519e-06 -5.11318e-06 -9.42527e-08)
(-1.80868e-06 -5.33225e-06 -1.09339e-07)
(-2.02099e-06 -5.48291e-06 -1.28206e-07)
(-2.1371e-06 -5.58133e-06 -1.5051e-07)
(-2.13671e-06 -5.63981e-06 -1.75363e-07)
(-2.0069e-06 -5.66868e-06 -2.01299e-07)
(-1.74476e-06 -5.67726e-06 -2.26357e-07)
(-1.35969e-06 -5.67414e-06 -2.48185e-07)
(-8.74105e-07 -5.66678e-06 -2.64467e-07)
(-3.22348e-07 -5.66082e-06 -2.7316e-07)
(2.5294e-07 -5.6592e-06 -2.73264e-07)
(8.06491e-07 -5.66202e-06 -2.64774e-07)
(1.29555e-06 -5.66654e-06 -2.48664e-07)
(1.68553e-06 -5.66726e-06 -2.26974e-07)
(1.95371e-06 -5.65685e-06 -2.02015e-07)
(2.09031e-06 -5.62675e-06 -1.7613e-07)
(2.09792e-06 -5.56765e-06 -1.5129e-07)
(1.98913e-06 -5.46921e-06 -1.28966e-07)
(1.78395e-06 -5.31904e-06 -1.10048e-07)
(1.50715e-06 -5.10097e-06 -9.48844e-08)
(1.1859e-06 -4.79177e-06 -8.32629e-08)
(8.48386e-07 -4.35603e-06 -7.43784e-08)
(5.21663e-07 -3.73519e-06 -6.61409e-08)
(2.37849e-07 -2.81975e-06 -5.4658e-08)
(2.92843e-08 -1.36037e-06 -2.87305e-08)
(-2.97364e-08 -1.09178e-06 -2.97427e-08)
(-2.43654e-07 -2.2783e-06 -5.60674e-08)
(-5.36604e-07 -3.0281e-06 -6.74763e-08)
(-8.75924e-07 -3.53553e-06 -7.55266e-08)
(-1.22853e-06 -3.8872e-06 -8.41917e-08)
(-1.56601e-06 -4.13022e-06 -9.55964e-08)
(-1.85858e-06 -4.29384e-06 -1.10528e-07)
(-2.07753e-06 -4.39764e-06 -1.29165e-07)
(-2.19687e-06 -4.45581e-06 -1.51118e-07)
(-2.19574e-06 -4.47962e-06 -1.75461e-07)
(-2.06116e-06 -4.47898e-06 -2.00744e-07)
(-1.79059e-06 -4.46322e-06 -2.25053e-07)
(-1.39411e-06 -4.44126e-06 -2.46139e-07)
(-8.9493e-07 -4.42101e-06 -2.61809e-07)
(-3.28242e-07 -4.40855e-06 -2.70176e-07)
(2.62403e-07 -4.40717e-06 -2.70262e-07)
(8.30758e-07 -4.41694e-06 -2.62066e-07)
(1.33318e-06 -4.43478e-06 -2.46544e-07)
(1.73425e-06 -4.45469e-06 -2.25579e-07)
(2.01047e-06 -4.46889e-06 -2.01358e-07)
(2.15145e-06 -4.46851e-06 -1.76127e-07)
(2.15941e-06 -4.44421e-06 -1.51805e-07)
(2.04701e-06 -4.38605e-06 -1.29842e-07)
(1.83486e-06 -4.28275e-06 -1.11165e-07)
(1.5487e-06 -4.12005e-06 -9.61688e-08)
(1.21699e-06 -3.8783e-06 -8.46748e-08)
(8.69286e-07 -3.52824e-06 -7.58692e-08)
(5.33735e-07 -3.02266e-06 -6.76286e-08)
(2.43147e-07 -2.27491e-06 -5.59764e-08)
(2.99579e-08 -1.09057e-06 -2.9452e-08)
(-2.90275e-08 -8.21457e-07 -2.90376e-08)
(-2.37996e-07 -1.73228e-06 -5.47088e-08)
(-5.25585e-07 -2.31369e-06 -6.56936e-08)
(-8.60766e-07 -2.70554e-06 -7.32879e-08)
(-1.21112e-06 -2.97218e-06 -8.14313e-08)
(-1.54786e-06 -3.14988e-06 -9.22181e-08)
(-1.84053e-06 -3.26194e-06 -1.06425e-07)
(-2.0598e-06 -3.32439e-06 -1.24184e-07)
(-2.17938e-06 -3.34928e-06 -1.4507e-07)
(-2.17842e-06 -3.34639e-06 -1.68149e-07)
(-2.04428e-06 -3.32467e-06 -1.92008e-07)
(-1.77495e-06 -3.29279e-06 -2.14834e-07)
(-1.38091e-06 -3.25919e-06 -2.34549e-07)
(-8.85482e-07 -3.23143e-06 -2.4914e-07)
(-3.23555e-07 -3.2154e-06 -2.56918e-07)