/*--------------------------------*- C++ -*----------------------------------*\
| =========                 |                                                 |
| \\      /  F ield         | OpenFOAM: The Open Source CFD Toolbox           |
|  \\    /   O peration     | Version:  v1906                                 |
|   \\  /    A nd           | Web:      www.OpenFOAM.com                      |
|    \\/     M anipulation  |                                                 |
\*---------------------------------------------------------------------------*/
FoamFile
{
    version     2.0;
    format      ascii;
    class       volScalarField;
    location    "0.82/oil";
    object      wallHeatFlux;
}
// * * * * * * * * * * * * * * * * * * * * * * * * * * * * * * * * * * * * * //

dimensions      [1 0 -3 0 0 0 0];


internalField   uniform 0;

boundaryField
{
    maxY
    {
        type            calculated;
        value           uniform 0;
    }
    minX
    {
        type            calculated;
        value           uniform 0;
    }
    maxX
    {
        type            calculated;
        value           uniform 0;
    }
    minY
    {
        type            calculated;
        value           uniform 0;
    }
    minZ
    {
        type            calculated;
        value           uniform 0;
    }
    maxZ
    {
        type            calculated;
        value           uniform 0;
    }
    oil_to_sphere
    {
        type            calculated;
        value           nonuniform List<scalar> 
1536
(
479019
442398
429358
502609
478660
476442
458455
398729
355090
386310
481492
389138
416983
388870
529524
492515
404353
351103
180083
412939
404686
487058
453337
496161
514537
514584
514805
498224
433282
467698
424890
389424
382651
516923
495561
490231
470079
514598
502551
514181
506431
492450
464912
409361
454844
404385
444957
453482
539356
459095
484700
446010
448374
448335
387400
349545
472964
460517
350536
302725
288767
304204
288846
224817
229764
403550
456639
382526
493817
451887
519087
485334
515443
507775
497417
388072
334404
400695
492696
342051
305969
288040
286486
286858
272127
293018
278703
396996
358277
303110
283403
171811
176037
225870
230272
405085
459163
361991
390200
485799
459248
518099
450468
442867
477332
509227
500279
407962
454569
379670
350697
390131
306205
298788
287314
279539
286502
276535
277008
288412
338814
283619
174401
401189
482016
467038
495261
443701
459545
490694
448451
487205
452673
485828
449321
495418
452537
353124
446353
466867
299632
290131
406045
341689
281259
345038
487270
379087
332377
509054
512292
369014
482436
479149
481822
322194
432732
298447
484056
346095
481507
372577
518951
513376
491456
471014
487029
309853
420579
300767
433348
418611
419033
389901
356461
322997
470263
373176
394181
483799
518394
509525
479811
512700
314724
421574
294927
437005
426771
450155
456222
498899
396256
474527
488723
443017
417226
458013
347096
458904
453288
472909
379166
314738
335315
346742
352191
343908
379852
301026
387310
344790
351552
338838
419675
402088
337470
388864
409366
326748
380650
441631
431371
383991
375697
394106
505709
393622
505112
536105
489960
431102
491330
339147
312456
397732
323311
329781
320270
366266
356937
178081
239120
411889
339352
450786
448721
376482
414828
324627
446301
539805
474427
495268
371354
472521
488509
384662
345074
347196
389480
283436
340090
239039
170285
220054
227415
190058
433905
391562
436930
404601
399512
450691
441215
393201
399863
329361
443753
388517
491035
478282
437099
406103
456465
466988
452056
466385
437140
426903
484167
326404
456381
328864
342426
353627
351835
325835
363660
363479
407598
392371
358718
349455
334543
493091
329972
507855
480841
299665
411453
285586
446834
442641
443768
418752
465126
460026
481148
386998
446883
424833
427306
499899
443079
406827
436581
387021
452277
376545
408501
378986
490409
432324
409523
473311
395507
443913
456793
362239
319175
430188
400349
420439
408273
407824
423384
426504
419076
466034
477460
494276
428281
485630
415100
456233
451305
430909
496865
417115
489675
456556
425357
495245
443335
453002
486725
471219
478902
448491
405442
502390
463618
439915
502780
436672
471391
459502
441649
318984
445441
346889
423270
351293
368204
464712
447166
326021
435191
375431
405562
364332
331420
366724
366284
325529
436658
324945
429848
356326
464794
446276
309036
479928
399446
351612
436922
346861
417063
368213
350918
346149
351362
365591
348815
334156
348819
347743
381940
353050
351544
354587
330073
285830
365288
317443
311563
339252
275966
300533
377940
327084
339424
338279
342011
331116
343845
270176
244443
288074
294973
347873
321719
307153
312395
367470
348550
377400
393613
353300
378241
372827
339691
351193
317710
304789
361186
300248
305749
352191
276534
306138
301566
347418
381201
439454
431600
398218
414556
467264
442540
427248
455466
360238
483910
437525
474631
405021
488508
426375
393669
447821
458410
374607
452725
488446
436046
450580
364367
488791
347834
480728
507724
522372
534167
553633
487306
495036
499428
513524
497109
329491
508860
476073
311742
299678
422475
471148
488754
312691
421423
452776
487870
472434
426280
338731
296534
345877
314127
295071
382712
350415
314716
347504
343675
263962
303467
310243
245035
305637
255490
322088
249042
334550
302084
312457
326183
372781
340246
328816
283429
356734
330768
294453
380595
358338
333051
388936
345552
341358
334925
264793
302790
341912
184714
238497
193092
233406
214824
213430
219960
219218
236868
361008
278010
307829
305147
276779
366379
279250
303638
307665
293256
344396
308859
345367
269537
458727
363067
332691
489314
422993
371101
463381
375917
415485
404730
386591
471544
407911
450549
430094
408957
409354
352086
364071
480991
461073
366561
457408
451230
382245
418108
371035
474363
483635
398456
448773
398057
416442
484828
343329
519678
514723
341717
386451
493679
532056
524799
429754
492487
530634
514519
504713
484752
473642
507256
325046
346038
426765
305324
497624
322569
302514
352043
450871
483559
465907
327758
472412
340081
429331
426312
307417
487403
315410
336860
279209
227715
311590
379631
318289
326234
326169
329517
339906
351235
282253
341866
305509
297287
309323
317272
244667
309015
309373
252857
313620
308393
243293
259701
338015
322757
259427
297889
392620
345334
326849
303848
347756
343416
330557
273338
229594
341088
369154
374174
391016
312892
334048
311491
347929
346790
288176
326555
285849
290940
223874
219170
183482
182079
228865
233471
173276
175248
241832
422367
444250
443883
445188
446159
440919
444080
449171
438661
376153
436811
430171
402617
469197
451401
437568
457888
467409
479961
462441
380772
412204
396083
439424
415146
428920
380367
462900
491476
411601
441466
417468
471098
452898
444272
439224
473821
447372
444193
473265
432070
448817
508775
475863
439875
473658
432852
467402
475103
432038
448715
484852
499230
410706
483243
451143
428194
494431
474696
449454
486521
473853
418220
401267
501238
479296
416688
493922
502731
477077
468660
449661
333457
429321
345926
377282
358416
422758
321697
467446
466765
320696
437011
434382
375533
368956
336659
457372
453517
427028
330356
460771
372369
388237
432248
340310
435299
355958
356769
412768
332496
462666
435758
452066
358491
367389
345126
429446
437274
356470
371320
344445
346384
347784
375987
351156
375283
295309
349835
332161
320185
337892
330387
277113
291515
338797
305864
368678
351315
336376
332692
396298
388887
352189
344957
360195
344611
337121
339135
276546
244755
347819
272184
338514
337816
308374
301659
345628
301093
383128
351020
342612
342714
350925
303777
380249
335965
450019
495147
374788
401444
335750
426121
334888
356127
450950
509492
391136
371998
451295
454072
424862
422302
292099
193251
514149
431889
407292
279846
187700
300327
455917
510293
487588
305710
466112
495422
459189
472097
406317
478999
397173
419062
461518
477517
435728
456228
467267
445501
448347
446479
415611
337408
391468
532773
390205
492923
415859
457750
430830
407249
362115
401112
512642
436752
493810
414509
394203
439690
332743
481705
521236
512078
482743
499128
490725
483900
488185
409245
375962
434523
338417
406019
412065
410489
485932
455799
492380
376846
442233
482504
486304
517867
455268
498799
490974
369662
434825
438408
436154
384818
434878
363969
402685
270923
351747
409137
389512
327430
390935
326295
313595
392304
390810
325240
420170
494920
478255
514079
452098
489505
503719
410062
527292
411081
435027
433985
396135
427134
311434
343566
417621
318828
371918
413524
367730
320014
247334
230758
405593
352208
195964
196723
222605
422434
313543
400628
309425
391698
325549
401085
317664
383690
490714
460309
503240
341464
327843
433160
443029
445799
492494
399990
499533
418027
421298
509143
394463
431924
435501
314541
480630
397673
362738
323879
405503
367688
442720
433357
365814
256184
323640
245604
406357
340148
200294
227049
193466
414236
424483
500933
442802
485638
481375
436012
491093
500694
497020
445138
402996
428025
441732
429638
355573
381953
356069
399474
528127
521708
539372
452057
437592
531536
486467
331582
432767
491446
398423
531798
526018
376812
473557
480298
403517
527430
534813
523949
375459
479142
493476
400308
532371
484464
393510
478810
438293
335799
452232
472510
468914
435710
534115
519446
526005
542832
345122
481962
536539
372516
454261
502062
480014
470690
435214
484324
431413
349689
445583
468262
478052
424446
534194
375623
474566
531252
367703
433503
503899
492072
455270
455563
471321
475127
421087
450509
441561
453719
438582
483206
376582
464751
439692
458589
460610
460083
450975
377167
337480
323171
352384
363271
361941
357718
368258
417534
342418
327845
449322
522571
533035
495478
356309
332853
471529
402163
485789
402069
313939
315092
357599
314315
308416
310072
314193
244053
178613
441775
451333
438627
457834
438007
456544
394065
545715
484693
363899
404882
308049
243991
181514
249841
299397
425803
327715
338560
436954
428128
407626
414735
455281
436396
492538
374109
370655
470599
454887
475148
351594
332396
373634
368557
367525
325290
298013
486000
385268
467443
472821
502260
492939
474708
342371
491778
453737
449833
482784
478133
419469
367052
408821
422449
445810
427751
428201
436409
411836
369778
439288
422061
421766
428259
433226
430485
444145
442491
458058
435609
471018
365706
438438
471451
423422
334430
437675
435890
472574
470271
438856
435193
421165
353947
416966
443457
470622
456107
427503
401485
420411
425603
472593
489688
395568
442617
480906
482664
475345
464081
468990
507409
388324
466670
475806
467644
479169
470909
474789
407068
407045
468454
463654
456599
410685
364601
386845
458871
444690
353491
390589
436196
442205
417831
387339
452919
416125
368671
379187
386723
351454
348220
308627
301603
364382
326476
330992
333877
229514
237968
325010
378189
339515
335133
336777
327815
321165
269975
346583
334897
288475
419236
413853
290695
355384
406795
295028
336645
355502
290498
427090
450584
328460
393070
349198
337127
337399
417699
400979
476851
439041
338683
426199
503959
380677
429991
447423
452930
436150
462368
441112
466300
466140
380322
418110
436833
438774
447357
469903
535128
329974
490393
537453
370295
493647
500879
482423
411175
480641
376104
520903
345065
437302
438502
494166
491545
462925
432889
293038
480113
408288
360947
393310
335043
246229
262646
365004
336148
342502
325672
386944
302320
328522
244741
364530
330616
175049
174626
250252
177380
252430
231223
200390
426137
269925
358167
417808
419301
402805
409423
348480
347195
344191
330520
415065
406877
322214
447769
427714
395065
485136
440421
464108
433717
341903
430937
493417
392571
452076
453015
451330
470550
408837
451570
483384
419208
380208
501162
520425
507771
540723
521767
459434
518640
374040
472041
407230
482274
475216
403949
485829
442150
440282
447050
483005
415858
347828
471362
402606
342601
348302
319186
401458
343488
324361
254487
368655
331481
393335
316733
243032
234116
200628
417275
440290
465508
411901
449807
431785
444041
430146
452293
461609
488971
373287
413277
464970
414466
428016
447291
454514
474401
473855
451453
435892
440615
503396
474147
501802
349245
447880
479441
469456
471428
479702
373408
469048
498049
392244
472965
442840
367547
450069
463481
452434
426328
367819
454273
425340
450993
412411
286691
354666
337012
239225
327235
380974
295088
374988
329580
324626
364552
389273
)
;
    }
}


// ************************************************************************* //
