/*--------------------------------*- C++ -*----------------------------------*\
| =========                 |                                                 |
| \\      /  F ield         | OpenFOAM: The Open Source CFD Toolbox           |
|  \\    /   O peration     | Version:  v1912                                 |
|   \\  /    A nd           | Website:  www.openfoam.com                      |
|    \\/     M anipulation  |                                                 |
\*---------------------------------------------------------------------------*/
FoamFile
{
    version     2.0;
    format      ascii;
    class       surfaceScalarField;
    location    "512/oil";
    object      phi;
}
// * * * * * * * * * * * * * * * * * * * * * * * * * * * * * * * * * * * * * //

dimensions      [1 0 -1 0 0 0 0];
oriented        oriented;


internalField   nonuniform List<scalar> 
104676
(
-1.25729e-11
2.87595e-11
-1.59335e-11
2.86207e-10
-2.3488e-10
-6.3882e-11
8.97638e-10
-4.41222e-10
-1.70217e-10
1.72728e-09
-5.38515e-10
-2.9113e-10
2.65321e-09
-5.5067e-10
-3.75269e-10
3.55358e-09
-5.0073e-10
-3.99645e-10
4.31838e-09
-4.06839e-10
-3.5796e-10
4.85565e-09
-2.82483e-10
-2.54779e-10
5.09376e-09
-1.38104e-10
-1.00006e-10
4.99364e-09
1.32773e-11
8.68489e-11
4.53635e-09
1.69734e-10
2.87551e-10
3.75356e-09
2.97385e-10
4.85404e-10
2.68619e-09
4.13383e-10
6.53984e-10
1.41089e-09
4.97404e-10
7.77882e-10
2.53069e-11
5.41797e-10
8.43784e-10
-1.36456e-09
5.44182e-10
8.45683e-10
-2.64321e-09
4.97803e-10
7.80847e-10
-3.71469e-09
4.12953e-10
6.58524e-10
-4.50486e-09
2.99063e-10
4.91115e-10
-4.96759e-09
1.66007e-10
2.96727e-10
-5.07978e-09
1.43481e-11
9.78437e-11
-4.84673e-09
-1.41049e-10
-9.19982e-11
-4.31361e-09
-2.84873e-10
-2.48247e-10
-3.55189e-09
-4.09063e-10
-3.52652e-10
-2.65403e-09
-5.02531e-10
-3.95328e-10
-1.72986e-09
-5.53422e-10
-3.70739e-10
-9.00747e-10
-5.42654e-10
-2.86463e-10
-2.88973e-10
-4.45949e-10
-1.65823e-10
1.06501e-11
-2.39111e-10
-6.05104e-11
2.44226e-11
-1.37685e-11
2.92821e-10
-5.5685e-10
2.92809e-10
1.13114e-09
-1.67501e-09
6.0182e-10
2.46346e-09
-2.51905e-09
7.45509e-10
4.14165e-09
-3.03352e-09
8.1681e-10
5.96391e-09
-3.28032e-09
9.07384e-10
7.71289e-09
-3.32001e-09
1.07031e-09
9.1832e-09
-3.20451e-09
1.32737e-09
1.01971e-08
-2.97477e-09
1.67838e-09
1.06161e-08
-2.66512e-09
2.10805e-09
1.03514e-08
-2.30653e-09
2.58448e-09
9.36181e-09
-1.92924e-09
3.08857e-09
7.70192e-09
-1.59885e-09
3.55612e-09
5.49584e-09
-1.30828e-09
3.92774e-09
2.88336e-09
-1.09808e-09
4.20795e-09
5.10867e-11
-9.88163e-10
4.36222e-09
-2.79206e-09
-9.88868e-10
4.3762e-09
-5.41133e-09
-1.10328e-09
4.22035e-09
-7.619e-09
-1.31721e-09
3.93784e-09
-9.26458e-09
-1.60843e-09
3.55308e-09
-1.02564e-08
-1.94516e-09
3.10303e-09
-1.05361e-08
-2.3173e-09
2.61134e-09
-1.01305e-08
-2.67328e-09
2.12664e-09
-9.13309e-09
-2.97986e-09
1.69756e-09
-7.68056e-09
-3.20861e-09
1.34702e-09
-5.94618e-09
-3.32512e-09
1.08821e-09
-4.13693e-09
-3.28708e-09
9.24408e-10
-2.46689e-09
-3.04471e-09
8.32024e-10
-1.13543e-09
-2.53373e-09
7.56312e-10
-2.94268e-10
-1.68693e-09
6.06663e-10
-5.63053e-10
2.9321e-10
6.16814e-10
-1.79637e-09
6.22711e-10
1.96114e-09
-4.35198e-09
1.33265e-09
3.84712e-09
-6.17956e-09
1.77454e-09
6.08934e-09
-7.37262e-09
2.09687e-09
8.45567e-09
-8.05854e-09
2.41189e-09
1.06905e-08
-8.34295e-09
2.78811e-09
1.25441e-08
-8.31683e-09
3.25877e-09
1.3795e-08
-8.05527e-09
3.82956e-09
1.42706e-08
-7.62656e-09
4.48584e-09
1.38604e-08
-7.08811e-09
5.19177e-09
1.25103e-08
-6.50218e-09
5.92306e-09
1.02775e-08
-5.94826e-09
6.58228e-09
7.3235e-09
-5.46255e-09
7.10823e-09
3.83898e-09
-5.10797e-09
7.4944e-09
6.56323e-11
-4.92522e-09
7.71039e-09
-3.72558e-09
-4.93398e-09
7.73633e-09
-7.22051e-09
-5.1202e-09
7.51185e-09
-1.01742e-08
-5.47682e-09
7.11336e-09
-1.23933e-08
-5.959e-09
6.56967e-09
-1.37602e-08
-6.51775e-09
5.93941e-09
-1.41922e-08
-7.10233e-09
5.21709e-09
-1.37325e-08
-7.63675e-09
4.50376e-09
-1.24984e-08
-8.06322e-09
3.84923e-09
-1.06625e-08
-8.3228e-09
3.27832e-09
-8.44391e-09
-8.35034e-09
2.80667e-09
-6.08862e-09
-8.07075e-09
2.42838e-09
-3.85357e-09
-7.38973e-09
2.10998e-09
-1.9688e-09
-6.2003e-09
1.7818e-09
-6.20483e-10
-4.36811e-09
1.33286e-09
-1.80505e-09
6.2152e-10
8.84889e-10
-3.57692e-09
8.9566e-10
2.65508e-09
-8.05474e-09
1.93257e-09
4.99007e-09
-1.11286e-08
2.61402e-09
7.66191e-09
-1.31838e-08
3.13932e-09
1.04152e-08
-1.44546e-08
3.64275e-09
1.29749e-08
-1.51026e-08
4.2e-09
1.50705e-08
-1.52622e-08
4.8497e-09
1.64602e-08
-1.50446e-08
5.59966e-09
1.69476e-08
-1.4551e-08
6.43698e-09
1.64056e-08
-1.3874e-08
7.32797e-09
1.47706e-08
-1.31073e-08
8.24019e-09
1.21196e-08
-1.23426e-08
9.04533e-09
8.62886e-09
-1.16767e-08
9.70486e-09
4.51997e-09
-1.11635e-08
1.01644e-08
7.41068e-11
-1.09021e-08
1.04227e-08
-4.39546e-09
-1.09206e-08
1.04562e-08
-8.51807e-09
-1.11767e-08
1.01791e-08
-1.20105e-08
-1.16764e-08
9.69199e-09
-1.4649e-08
-1.23459e-08
9.02535e-09
-1.62974e-08
-1.31136e-08
8.24433e-09
-1.68593e-08
-1.38805e-08
7.34005e-09
-1.63896e-08
-1.45558e-08
6.44933e-09
-1.50194e-08
-1.50487e-08
5.61527e-09
-1.29415e-08
-1.52657e-08
4.86503e-09
-1.03991e-08
-1.51088e-08
4.2161e-09
-7.66046e-09
-1.44668e-08
3.65739e-09
-4.99555e-09
-1.32038e-08
3.14914e-09
-2.66266e-09
-1.1148e-08
2.61481e-09
-8.91442e-10
-8.06127e-09
1.92194e-09
-3.58886e-09
8.92361e-10
1.08712e-09
-5.76122e-09
1.09717e-09
3.18606e-09
-1.25249e-08
2.37117e-09
5.87286e-09
-1.70469e-08
3.23155e-09
8.87629e-09
-2.00941e-08
3.9069e-09
1.19197e-08
-2.20497e-08
4.55173e-09
1.47143e-08
-2.31482e-08
5.25096e-09
1.69789e-08
-2.35721e-08
6.04529e-09
1.84584e-08
-2.34698e-08
6.94577e-09
1.89475e-08
-2.29757e-08
7.93553e-09
1.83063e-08
-2.22151e-08
8.98241e-09
1.64667e-08
-2.13174e-08
1.00496e-08
1.35087e-08
-2.0395e-08
1.10104e-08
9.61005e-09
-1.95668e-08
1.17888e-08
5.03085e-09
-1.88943e-08
1.231e-08
7.97214e-11
-1.85543e-08
1.26033e-08
-4.89919e-09
-1.85795e-08
1.26378e-08
-9.48797e-09
-1.89108e-08
1.2323e-08
-1.3381e-08
-1.95431e-08
1.17597e-08
-1.63367e-08
-2.03888e-08
1.09987e-08
-1.81915e-08
-2.13168e-08
1.0058e-08
-1.8853e-08
-2.22156e-08
8.99667e-09
-1.83834e-08
-2.29761e-08
7.95072e-09
-1.69225e-08
-2.34713e-08
6.96167e-09
-1.4675e-08
-2.35744e-08
6.06108e-09
-1.1897e-08
-2.31528e-08
5.26598e-09
-8.86917e-09
-2.2059e-08
4.56437e-09
-5.87636e-09
-2.01104e-08
3.91378e-09
-3.19155e-09
-1.7061e-08
3.22822e-09
-1.0928e-09
-1.25157e-08
2.35566e-09
-5.77591e-09
1.09425e-09
1.22299e-09
-8.21909e-09
1.23488e-09
3.55536e-09
-1.75212e-08
2.66401e-09
6.49788e-09
-2.36369e-08
3.64751e-09
9.74186e-09
-2.77681e-08
4.43005e-09
1.29943e-08
-3.048e-08
5.17789e-09
1.59577e-08
-3.20978e-08
5.98617e-09
1.83445e-08
-3.28567e-08
6.89785e-09
1.98924e-08
-3.29442e-08
7.92646e-09
2.03886e-08
-3.25251e-08
9.0532e-09
1.96879e-08
-3.17545e-08
1.02401e-08
1.77192e-08
-3.07901e-08
1.14415e-08
1.45368e-08
-2.9787e-08
1.25744e-08
1.03367e-08
-2.88425e-08
1.34757e-08
5.40813e-09
-2.80221e-08
1.40563e-08
7.96811e-11
-2.75937e-08
1.43679e-08
-5.27895e-09
-2.76211e-08
1.44002e-08
-1.02072e-08
-2.80599e-08
1.40773e-08
-1.4393e-08
-2.87962e-08
1.34389e-08
-1.75792e-08
-2.97727e-08
1.257e-08
-1.95664e-08
-3.07859e-08
1.14563e-08
-2.02899e-08
-3.17509e-08
1.02587e-08
-1.98146e-08
-3.25233e-08
9.0719e-09
-1.82857e-08
-3.29447e-08
7.94457e-09
-1.59162e-08
-3.28587e-08
6.9148e-09
-1.29677e-08
-3.21016e-08
6.00044e-09
-9.72956e-09
-3.04866e-08
5.18953e-09
-6.49727e-09
-2.77776e-08
4.43497e-09
-3.56109e-09
-2.36381e-08
3.64089e-09
-1.2293e-09
-1.74953e-08
2.64783e-09
-8.23852e-09
1.2333e-09
1.29138e-09
-1.083e-08
1.31953e-09
3.76734e-09
-2.28512e-08
2.85401e-09
6.87106e-09
-3.06429e-08
3.90221e-09
1.02641e-08
-3.59052e-08
4.74396e-09
1.36449e-08
-3.94223e-08
5.56155e-09
1.67127e-08
-4.16166e-08
6.45106e-09
1.91789e-08
-4.27802e-08
7.45743e-09
2.07762e-08
-4.31383e-08
8.59684e-09
2.12886e-08
-4.28849e-08
9.84739e-09
2.05627e-08
-4.2196e-08
1.11674e-08
1.85258e-08
-4.12571e-08
1.2504e-08
1.51961e-08
-4.02487e-08
1.37914e-08
1.08103e-08
-3.92791e-08
1.48223e-08
5.65514e-09
-3.83244e-08
1.54575e-08
8.67802e-11
-3.78153e-08
1.579e-08
-5.50698e-09
-3.78571e-08
1.58298e-08
-1.06789e-08
-3.83955e-08
1.55076e-08
-1.50487e-08
-3.92231e-08
1.47967e-08
-1.83818e-08
-4.02347e-08
1.37952e-08
-2.04387e-08
-4.12563e-08
1.25273e-08
-2.11872e-08
-4.21958e-08
1.11934e-08
-2.06966e-08
-4.28852e-08
9.87143e-09
-1.91185e-08
-4.31411e-08
8.61817e-09
-1.66699e-08
-4.27849e-08
7.47759e-09
-1.36161e-08
-4.16218e-08
6.46641e-09
-1.02489e-08
-3.94268e-08
5.57302e-09
-6.86839e-09
-3.59046e-08
4.74645e-09
-3.77684e-09
-3.06169e-08
3.88727e-09
-1.30707e-09
-2.27884e-08
2.82338e-09
-1.08616e-08
1.31597e-09
1.31699e-09
-1.34945e-08
1.34749e-09
3.83476e-09
-2.82956e-08
2.92663e-09
6.99172e-09
-3.78055e-08
4.0057e-09
1.04357e-08
-4.42218e-08
4.87263e-09
1.3855e-08
-4.85658e-08
5.72431e-09
1.69536e-08
-5.13836e-08
6.66828e-09
1.94475e-08
-5.30209e-08
7.7468e-09
2.10711e-08
-5.37374e-08
8.97552e-09
2.16038e-08
-5.37506e-08
1.03331e-08
2.08895e-08
-5.32557e-08
1.1774e-08
1.88422e-08
-5.24489e-08
1.3239e-08
1.54617e-08
-5.15353e-08
1.46671e-08
1.09932e-08
-5.0654e-08
1.58434e-08
5.7425e-09
-4.95889e-08
1.65152e-08
8.62843e-11
-4.90446e-08
1.68855e-08
-5.60328e-09
-4.90958e-08
1.69282e-08
-1.08912e-08
-4.9662e-08
1.65544e-08
-1.53244e-08
-5.05944e-08
1.58045e-08
-1.86999e-08
-5.15243e-08
1.46651e-08
-2.07655e-08
-5.24522e-08
1.32615e-08
-2.15032e-08
-5.32584e-08
1.18003e-08
-2.0992e-08
-5.37543e-08
1.03579e-08
-1.93868e-08
-5.37445e-08
8.9983e-09
-1.69094e-08
-5.30307e-08
7.76845e-09
-1.38244e-08
-5.13928e-08
6.68597e-09
-1.04192e-08
-4.85682e-08
5.73612e-09
-6.99272e-09
-4.41977e-08
4.86668e-09
-3.85013e-09
-3.77342e-08
3.97473e-09
-1.33126e-09
-2.81934e-08
2.88607e-09
-1.35392e-08
1.34641e-09
1.29413e-09
-1.61117e-08
1.32307e-09
3.75194e-09
-3.36407e-08
2.8873e-09
6.84437e-09
-4.48744e-08
3.97646e-09
1.02287e-08
-5.24507e-08
4.8446e-09
1.35907e-08
-5.76163e-08
5.6884e-09
1.66336e-08
-6.10684e-08
6.64196e-09
1.90893e-08
-6.32335e-08
7.75689e-09
2.07024e-08
-6.43912e-08
9.04073e-09
2.12524e-08
-6.47707e-08
1.047e-08
2.05799e-08
-6.45815e-08
1.19983e-08
1.86037e-08
-6.40239e-08
1.35513e-08
1.53086e-08
-6.32961e-08
1.50559e-08
1.08663e-08
-6.25637e-08
1.6352e-08
5.66877e-09
-6.14657e-08
1.70743e-08
8.1686e-11
-6.09679e-08
1.75103e-08
-5.54578e-09
-6.10131e-08
1.75448e-08
-1.07949e-08
-6.14931e-08
1.70802e-08
-1.51962e-08
-6.24729e-08
1.62798e-08
-1.84683e-08
-6.32855e-08
1.50333e-08
-2.04589e-08
-6.40306e-08
1.3569e-08
-2.11527e-08
-6.45893e-08
1.20248e-08
-2.06236e-08
-6.47791e-08
1.04957e-08
-1.9029e-08
-6.44033e-08
9.06428e-09
-1.65891e-08
-6.32496e-08
7.77898e-09
-1.35613e-08
-6.10777e-08
6.65702e-09
-1.02229e-08
-5.75878e-08
5.68123e-09
-6.86239e-09
-5.2358e-08
4.79982e-09
-3.77829e-09
-4.47283e-08
3.91004e-09
-1.30294e-09
-3.35095e-08
2.84075e-09
-1.61659e-08
1.32377e-09
1.22773e-09
-1.858e-08
1.2406e-09
3.5476e-09
-3.86714e-08
2.71079e-09
6.43678e-09
-5.15349e-08
3.77127e-09
9.62122e-09
-6.02702e-08
4.63504e-09
1.28108e-08
-6.62607e-08
5.45483e-09
1.57001e-08
-7.03236e-08
6.36588e-09
1.80374e-08
-7.30344e-08
7.46371e-09
1.95874e-08
-7.46922e-08
8.75104e-09
2.01431e-08
-7.55235e-08
1.01971e-08
1.9542e-08
-7.5735e-08
1.17547e-08
1.77063e-08
-7.55262e-08
1.33379e-08
1.46213e-08
-7.50754e-08
1.48644e-08
1.03458e-08
-7.45116e-08
1.62233e-08
5.39389e-09
-7.35215e-08
1.70076e-08
7.56719e-11
-7.31192e-08
1.74696e-08
-5.27361e-09
-7.31619e-08
1.74981e-08
-1.02595e-08
-7.34948e-08
1.69876e-08
-1.45114e-08
-7.43291e-08
1.61082e-08
-1.758e-08
-7.50501e-08
1.48332e-08
-1.94252e-08
-7.55381e-08
1.33526e-08
-2.00469e-08
-7.57477e-08
1.17802e-08
-1.95123e-08
-7.55358e-08
1.02221e-08
-1.79787e-08
-7.47108e-08
8.77385e-09
-1.56543e-08
-7.30567e-08
7.48271e-09
-1.27881e-08
-7.03084e-08
6.36457e-09
-9.63394e-09
-6.61434e-08
5.40135e-09
-6.45845e-09
-6.00745e-08
4.54098e-09
-3.55071e-09
-5.13219e-08
3.68586e-09
-1.22337e-09
-3.85093e-08
2.67248e-09
-1.86362e-08
1.24686e-09
1.10784e-09
-2.07889e-08
1.10102e-09
3.20841e-09
-4.31463e-08
2.37441e-09
5.79734e-09
-5.74486e-08
3.32481e-09
8.62605e-09
-6.72686e-08
4.1697e-09
1.14947e-08
-7.40907e-08
4.96142e-09
1.41102e-08
-7.87429e-08
5.80379e-09
1.62375e-08
-8.19895e-08
6.82777e-09
1.76651e-08
-8.41753e-08
8.05547e-09
1.82019e-08
-8.55032e-08
9.44297e-09
1.76995e-08
-8.61661e-08
1.09335e-08
1.61011e-08
-8.63401e-08
1.24124e-08
1.33652e-08
-8.61543e-08
1.38147e-08
9.42657e-09
-8.57167e-08
1.51437e-08
4.90536e-09
-8.50667e-08
1.60665e-08
6.83797e-11
-8.48309e-08
1.65486e-08
-4.78757e-09
-8.48736e-08
1.65677e-08
-9.2849e-09
-8.50451e-08
1.60476e-08
-1.31515e-08
-8.5626e-08
1.51636e-08
-1.59256e-08
-8.62626e-08
1.39866e-08
-1.75794e-08
-8.63883e-08
1.2504e-08
-1.81079e-08
-8.61853e-08
1.09661e-08
-1.75941e-08
-8.55121e-08
9.46248e-09
-1.61801e-08
-8.41961e-08
8.07137e-09
-1.40607e-08
-8.20127e-08
6.83658e-09
-1.14698e-08
-7.86737e-08
5.77443e-09
-8.62572e-09
-7.38504e-08
4.86295e-09
-5.76056e-09
-6.6992e-08
4.05235e-09
-3.15141e-09
-5.72009e-08
3.26978e-09
-1.07536e-09
-4.29507e-08
2.3653e-09
-2.08202e-08
1.10872e-09
9.33358e-10
-2.26308e-08
9.08602e-10
2.7229e-09
-4.68442e-08
1.90834e-09
4.91022e-09
-6.22615e-08
2.6256e-09
7.28239e-09
-7.29868e-08
3.34608e-09
9.64521e-09
-8.0561e-08
4.10744e-09
1.18396e-08
-8.58291e-08
4.89189e-09
1.36534e-08
-8.95983e-08
5.79491e-09
1.49003e-08
-9.2311e-08
6.88892e-09
1.54069e-08
-9.41399e-08
8.13007e-09
1.50379e-08
-9.52205e-08
9.42347e-09
1.37032e-08
-9.56961e-08
1.06907e-08
1.13194e-08
-9.58039e-08
1.20335e-08
7.99462e-09
-9.56923e-08
1.33004e-08
4.17262e-09
-9.53985e-08
1.41537e-08
5.67668e-11
-9.53025e-08
1.45874e-08
-4.0885e-09
-9.52775e-08
1.45492e-08
-7.91705e-09
-9.52468e-08
1.40303e-08
-1.11938e-08
-9.55564e-08
1.32072e-08
-1.35342e-08
-9.60741e-08
1.21519e-08
-1.48986e-08
-9.57911e-08
1.07672e-08
-1.53018e-08
-9.52043e-08
9.42229e-09
-1.48285e-08
-9.41021e-08
8.11665e-09
-1.35974e-08
-9.23129e-08
6.88575e-09
-1.17722e-08
-8.96209e-08
5.78299e-09
-9.57843e-09
-8.57156e-08
4.84814e-09
-7.19823e-09
-8.03012e-08
4.07061e-09
-4.83293e-09
-7.27706e-08
3.41333e-09
-2.66133e-09
-6.2148e-08
2.77556e-09
-9.18002e-10
-4.67055e-08
2.01148e-09
-2.2677e-08
9.38761e-10
7.15973e-10
-2.40316e-08
6.84831e-10
2.06237e-09
-4.96497e-08
1.4591e-09
3.75077e-09
-6.59204e-08
1.9705e-09
5.55905e-09
-7.72068e-08
2.41168e-09
7.31179e-09
-8.52721e-08
2.95835e-09
8.94316e-09
-9.10808e-08
3.62022e-09
1.0319e-08
-9.53408e-08
4.36668e-09
1.1314e-08
-9.85206e-08
5.21463e-09
1.17998e-08
-1.00791e-07
6.16487e-09
1.15399e-08
-1.02155e-07
7.19442e-09
1.03965e-08
-1.02891e-07
8.33882e-09
8.48052e-09
-1.03402e-07
9.51431e-09
6.07173e-09
-1.03789e-07
1.05053e-08
3.20656e-09
-1.0372e-07
1.11861e-08
4.94185e-11
-1.03658e-07
1.15126e-08
-3.16031e-09
-1.03504e-07
1.14364e-08
-6.08422e-09
-1.03339e-07
1.10164e-08
-8.54553e-09
-1.03404e-07
1.0309e-08
-1.04033e-08
-1.03525e-07
9.30853e-09
-1.14334e-08
-1.02843e-07
8.08197e-09
-1.1684e-08
-1.01977e-07
7.02332e-09
-1.12841e-08
-1.00546e-07
6.04384e-09
-1.03423e-08
-9.83987e-08
5.14401e-09
-8.97355e-09
-9.53759e-08
4.38634e-09
-7.30597e-09
-9.11163e-08
3.73315e-09
-5.49413e-09
-8.52521e-08
3.13909e-09
-3.68843e-09
-7.71899e-08
2.61353e-09
-2.03047e-09
-6.59144e-08
2.10836e-09
-7.01375e-10
-4.95581e-08
1.52357e-09
-2.40881e-08
7.09758e-10
4.83555e-10
-2.49316e-08
4.16367e-10
1.3041e-09
-5.13456e-08
8.75333e-10
2.35742e-09
-6.82399e-08
1.26616e-09
3.50064e-09
-7.99309e-08
1.58085e-09
4.62223e-09
-8.83366e-08
1.94298e-09
5.6719e-09
-9.44902e-08
2.35979e-09
6.5533e-09
-9.90248e-08
2.8026e-09
7.15161e-09
-1.02366e-07
3.24662e-09
7.47403e-09
-1.04843e-07
3.73018e-09
7.2853e-09
-1.06408e-07
4.44189e-09
6.53528e-09
-1.07459e-07
5.31735e-09
5.37498e-09
-1.08364e-07
6.1223e-09
3.85731e-09
-1.09023e-07
6.75167e-09
2.04409e-09
-1.09095e-07
7.18875e-09
5.97842e-11
-1.09105e-07
7.43127e-09
-1.95462e-09
-1.089e-07
7.40999e-09
-3.80126e-09
-1.08656e-07
7.16355e-09
-5.32524e-09
-1.08594e-07
6.71399e-09
-6.51574e-09
-1.08435e-07
6.10085e-09
-7.24785e-09
-1.07403e-07
5.29183e-09
-7.52055e-09
-1.06142e-07
4.43768e-09
-7.30736e-09
-1.04401e-07
3.64178e-09
-6.66182e-09
-1.02075e-07
3.03103e-09
-5.70817e-09
-9.89425e-08
2.61291e-09
-4.60747e-09
-9.44986e-08
2.28162e-09
-3.45128e-09
-8.83669e-08
1.95859e-09
-2.31051e-09
-7.99687e-08
1.63807e-09
-1.26814e-09
-6.82773e-08
1.32056e-09
-4.38456e-10
-5.134e-08
9.52165e-10
-2.49698e-08
4.43233e-10
1.76528e-10
-2.52494e-08
1.41311e-10
4.52824e-10
-5.19245e-08
3.02583e-10
8.23226e-10
-6.90621e-08
4.5182e-10
1.23004e-09
-8.0902e-08
5.64327e-10
1.64087e-09
-8.94244e-08
6.76945e-10
2.05715e-09
-9.56773e-08
7.70789e-10
2.44428e-09
-1.00265e-07
8.52596e-10
2.67533e-09
-1.03582e-07
9.85402e-10
2.70768e-09
-1.06069e-07
1.19338e-09
2.56161e-09
-1.07752e-07
1.48999e-09
2.32948e-09
-1.09027e-07
1.80075e-09
1.98914e-09
-1.10087e-07
2.06362e-09
1.34883e-09
-1.10624e-07
2.24179e-09
6.69612e-10
-1.10784e-07
2.36817e-09
3.45094e-11
-1.10965e-07
2.49509e-09
-6.72329e-10
-1.10796e-07
2.6028e-09
-1.33363e-09
-1.10592e-07
2.59766e-09
-1.85631e-09
-1.10498e-07
2.42706e-09
-2.268e-09
-1.10224e-07
2.20091e-09
-2.52259e-09
-1.09072e-07
1.92364e-09
-2.62607e-09
-1.07669e-07
1.63071e-09
-2.56141e-09
-1.05813e-07
1.34779e-09
-2.33672e-09
-1.03417e-07
1.11689e-09
-1.99957e-09
-1.00221e-07
9.41352e-10
-1.60772e-09
-9.5686e-08
7.95487e-10
-1.19788e-09
-8.94411e-08
6.64428e-10
-7.95281e-10
-8.09208e-08
5.49536e-10
-4.31502e-10
-6.90833e-08
4.42199e-10
-1.48333e-10
-5.19388e-08
3.15682e-10
-2.52702e-08
1.5203e-10
-1.24802e-10
-2.49873e-08
-1.37275e-10
-3.87927e-10
-5.13843e-08
-2.77025e-10
-7.11623e-10
-6.83607e-08
-3.77758e-10
-1.06585e-09
-8.00773e-08
-4.70541e-10
-1.43117e-09
-8.85023e-08
-5.56838e-10
-1.79831e-09
-9.46917e-08
-6.18419e-10
-2.14097e-09
-9.9257e-08
-6.64757e-10
-2.35863e-09
-1.02608e-07
-7.55728e-10
-2.36341e-09
-1.05097e-07
-9.6672e-10
-2.20483e-09
-1.06628e-07
-1.28243e-09
-1.99908e-09
-1.0765e-07
-1.5827e-09
-1.82068e-09
-1.08482e-07
-1.78395e-09
-1.53818e-09
-1.08992e-07
-1.91456e-09
-9.49435e-10
-1.09322e-07
-2.051e-09
-9.14167e-11
-1.09565e-07
-2.25856e-09
6.13573e-10
-1.09162e-07
-2.33885e-09
1.22056e-09
-1.08955e-07
-2.24461e-09
1.76615e-09
-1.08947e-07
-2.09646e-09
2.06689e-09
-1.08619e-07
-1.90582e-09
2.26001e-09
-1.07583e-07
-1.68181e-09
2.35597e-09
-1.06333e-07
-1.43178e-09
2.30388e-09
-1.04586e-07
-1.17541e-09
2.12353e-09
-1.02262e-07
-9.74404e-10
1.82076e-09
-9.90888e-08
-8.29392e-10
1.46981e-09
-9.46168e-08
-7.18177e-10
1.10572e-09
-8.84642e-08
-6.12792e-10
7.42106e-10
-8.00494e-08
-5.07749e-10
4.12539e-10
-6.83513e-08
-4.02347e-10
1.48647e-10
-5.13955e-08
-2.79455e-10
-2.49914e-08
-1.30109e-10
-4.22996e-10
-2.41373e-08
-4.27048e-10
-1.22916e-09
-4.96644e-08
-9.13775e-10
-2.23553e-09
-6.60854e-08
-1.26898e-09
-3.33765e-09
-7.73993e-08
-1.57593e-09
-4.445e-09
-8.54987e-08
-1.89625e-09
-5.47142e-09
-9.1411e-08
-2.25421e-09
-6.32414e-09
-9.5749e-08
-2.65516e-09
-6.92788e-09
-9.88976e-08
-3.10701e-09
-7.20704e-09
-1.01204e-07
-3.61434e-09
-6.99162e-09
-1.02572e-07
-4.27121e-09
-6.27353e-09
-1.03275e-07
-5.09303e-09
-5.23917e-09
-1.03683e-07
-5.83325e-09
-3.83205e-09
-1.03997e-07
-6.40221e-09
-2.0625e-09
-1.04242e-07
-6.84895e-09
-3.77326e-11
-1.04451e-07
-7.13876e-09
1.9182e-09
-1.04006e-07
-7.11188e-09
3.75731e-09
-1.03928e-07
-6.86628e-09
5.3666e-09
-1.04134e-07
-6.4229e-09
6.33236e-09
-1.03774e-07
-5.81101e-09
6.96012e-09
-1.03097e-07
-5.11376e-09
7.23826e-09
-1.023e-07
-4.31199e-09
7.03044e-09
-1.00903e-07
-3.47515e-09
6.4292e-09
-9.87367e-08
-2.92414e-09
5.50943e-09
-9.56117e-08
-2.55736e-09
4.45306e-09
-9.13327e-08
-2.22774e-09
3.35912e-09
-8.54721e-08
-1.89812e-09
2.26129e-09
-7.73881e-08
-1.56347e-09
1.26404e-09
-6.61179e-08
-1.23617e-09
4.59166e-10
-4.97309e-08
-8.59764e-10
-2.41224e-08
-4.09917e-10
-6.91964e-10
-2.27516e-08
-6.93726e-10
-1.99508e-09
-4.6871e-08
-1.4903e-09
-3.62265e-09
-6.23887e-08
-2.06918e-09
-5.39661e-09
-7.30563e-08
-2.56902e-09
-7.17028e-09
-8.06343e-08
-3.09069e-09
-8.78999e-09
-8.60964e-08
-3.69476e-09
-1.01104e-08
-9.00377e-08
-4.39083e-09
-1.10452e-08
-9.2766e-08
-5.19675e-09
-1.15123e-08
-9.46311e-08
-6.10536e-09
-1.12819e-08
-9.57496e-08
-7.05314e-09
-1.01891e-08
-9.62252e-08
-8.14305e-09
-8.37521e-09
-9.62261e-08
-9.27086e-09
-6.00184e-09
-9.61456e-08
-1.0225e-08
-3.173e-09
-9.61512e-08
-1.09202e-08
-4.16657e-11
-9.62872e-08
-1.12948e-08
3.07393e-09
-9.5912e-08
-1.12099e-08
5.97588e-09
-9.59775e-08
-1.08522e-08
8.48882e-09
-9.64699e-08
-1.01768e-08
1.01979e-08
-9.62857e-08
-9.19719e-09
1.12312e-08
-9.60126e-08
-8.11748e-09
1.15441e-08
-9.55814e-08
-7.03102e-09
1.11486e-08
-9.45659e-08
-5.9414e-09
1.01707e-08
-9.27579e-08
-5.00094e-09
8.78413e-09
-9.00067e-08
-4.2185e-09
7.1421e-09
-8.6142e-08
-3.54874e-09
5.40226e-09
-8.07804e-08
-2.95194e-09
3.66357e-09
-7.32201e-08
-2.42929e-09
2.05729e-09
-6.25806e-08
-1.93102e-09
7.34902e-10
-4.70507e-08
-1.3578e-09
-2.27323e-08
-6.55123e-10
-9.23574e-10
-2.09107e-08
-9.17274e-10
-2.6385e-09
-4.31818e-08
-1.97435e-09
-4.78451e-09
-5.74877e-08
-2.755e-09
-7.12702e-09
-6.7312e-08
-3.40179e-09
-9.47994e-09
-7.42198e-08
-4.06157e-09
-1.16595e-08
-7.90854e-08
-4.83143e-09
-1.34735e-08
-8.24664e-08
-5.75715e-09
-1.46987e-08
-8.46937e-08
-6.84693e-09
-1.51983e-08
-8.60674e-08
-8.06398e-09
-1.48415e-08
-8.67822e-08
-9.32422e-09
-1.35048e-08
-8.69851e-08
-1.05768e-08
-1.11143e-08
-8.67588e-08
-1.18578e-08
-7.89438e-09
-8.62962e-08
-1.30694e-08
-4.13641e-09
-8.5953e-08
-1.39562e-08
-3.38647e-11
-8.59635e-08
-1.44264e-08
4.05917e-09
-8.56972e-08
-1.43078e-08
7.85459e-09
-8.59097e-08
-1.38633e-08
1.11249e-08
-8.66612e-08
-1.3079e-08
1.34737e-08
-8.68414e-08
-1.17931e-08
1.48259e-08
-8.69402e-08
-1.04245e-08
1.52189e-08
-8.67633e-08
-9.21105e-09
1.47435e-08
-8.6087e-08
-8.00345e-09
1.35177e-08
-8.47285e-08
-6.80357e-09
1.17246e-08
-8.24942e-08
-5.71942e-09
9.55113e-09
-7.91601e-08
-4.80846e-09
7.21344e-09
-7.44258e-08
-4.01691e-09
4.89796e-09
-6.76654e-08
-3.2393e-09
2.73888e-09
-5.79154e-08
-2.50611e-09
9.6767e-10
-4.35105e-08
-1.76891e-09
-2.0898e-08
-8.66687e-10
-1.10344e-09
-1.87149e-08
-1.09244e-09
-3.14318e-09
-3.88027e-08
-2.3394e-09
-5.7234e-09
-5.16374e-08
-3.2701e-09
-8.57054e-09
-6.04132e-08
-4.05167e-09
-1.14115e-08
-6.65312e-08
-4.84762e-09
-1.4003e-08
-7.07467e-08
-5.74715e-09
-1.61233e-08
-7.35423e-08
-6.8037e-09
-1.75411e-08
-7.52473e-08
-8.02862e-09
-1.80703e-08
-7.61267e-08
-9.41138e-09
-1.75705e-08
-7.63891e-08
-1.08929e-08
-1.59718e-08
-7.62182e-08
-1.23656e-08
-1.32271e-08
-7.57776e-08
-1.37259e-08
-9.37957e-09
-7.51643e-08
-1.49796e-08
-4.86925e-09
-7.44828e-08
-1.59806e-08
-2.47375e-11
-7.42555e-08
-1.65526e-08
4.80274e-09
-7.40653e-08
-1.64595e-08
9.29966e-09
-7.44385e-08
-1.59681e-08
1.31431e-08
-7.53797e-08
-1.5125e-08
1.59237e-08
-7.58318e-08
-1.37901e-08
1.75619e-08
-7.62334e-08
-1.23449e-08
1.80792e-08
-7.64067e-08
-1.08739e-08
1.75588e-08
-7.61562e-08
-9.41047e-09
1.61468e-08
-7.5285e-08
-8.03155e-09
1.40386e-08
-7.35829e-08
-6.8031e-09
1.14419e-08
-7.08002e-08
-5.76309e-09
8.58223e-09
-6.66485e-08
-4.91764e-09
5.73966e-09
-6.0658e-08
-4.1648e-09
3.17475e-09
-5.19749e-08
-3.37558e-09
1.11174e-09
-3.90543e-08
-2.39324e-09
-1.86961e-08
-1.0901e-09
-1.22496e-09
-1.62473e-08
-1.24264e-09
-3.54371e-09
-3.38037e-08
-2.68025e-09
-6.44734e-09
-4.50435e-08
-3.69022e-09
-9.62011e-09
-5.27043e-08
-4.53615e-09
-1.27781e-08
-5.79848e-08
-5.38841e-09
-1.5653e-08
-6.15232e-08
-6.34855e-09
-1.79852e-08
-6.37441e-08
-7.46592e-09
-1.95304e-08
-6.49476e-08
-8.75444e-09
-2.00796e-08
-6.53733e-08
-1.02041e-08
-1.94776e-08
-6.52282e-08
-1.17628e-08
-1.76421e-08
-6.47114e-08
-1.33422e-08
-1.45766e-08
-6.40201e-08
-1.4823e-08
-1.03519e-08
-6.32901e-08
-1.6099e-08
-5.33615e-09
-6.2477e-08
-1.70217e-08
-1.63874e-11
-6.20008e-08
-1.75745e-08
5.31466e-09
-6.18798e-08
-1.75166e-08
1.0315e-08
-6.23927e-08
-1.70462e-08
1.45188e-08
-6.33557e-08
-1.62277e-08
1.76053e-08
-6.40408e-08
-1.48775e-08
1.94595e-08
-6.473e-08
-1.33577e-08
2.00766e-08
-6.52494e-08
-1.17743e-08
1.95371e-08
-6.54006e-08
-1.0216e-08
1.79993e-08
-6.49814e-08
-8.7658e-09
1.56742e-08
-6.37843e-08
-7.47346e-09
1.28016e-08
-6.15696e-08
-6.3581e-09
9.62448e-09
-5.80474e-08
-5.42398e-09
6.41918e-09
-5.28223e-08
-4.63044e-09
3.5093e-09
-4.52362e-08
-3.82881e-09
1.21707e-09
-3.39909e-08
-2.77111e-09
-1.62322e-08
-1.24689e-09
-1.28059e-09
-1.36308e-08
-1.33595e-09
-3.77283e-09
-2.84306e-08
-2.88088e-09
-6.87411e-09
-3.80198e-08
-3.92241e-09
-1.02439e-08
-4.45323e-08
-4.80222e-09
-1.35949e-08
-4.89506e-08
-5.6832e-09
-1.66368e-08
-5.18202e-08
-6.66113e-09
-1.90933e-08
-5.35011e-08
-7.78651e-09
-2.07061e-08
-5.42585e-08
-9.07628e-09
-2.12537e-08
-5.43111e-08
-1.05146e-08
-2.05752e-08
-5.38566e-08
-1.205e-08
-1.85913e-08
-5.30855e-08
-1.36097e-08
-1.53059e-08
-5.21992e-08
-1.51062e-08
-1.08847e-08
-5.13153e-08
-1.63961e-08
-5.60316e-09
-5.049e-08
-1.72687e-08
-8.59663e-12
-4.99098e-08
-1.76857e-08
5.60336e-09
-4.98601e-08
-1.76317e-08
1.08626e-08
-5.04375e-08
-1.72144e-08
1.52666e-08
-5.13536e-08
-1.64061e-08
1.85556e-08
-5.22151e-08
-1.51147e-08
2.05522e-08
-5.31008e-08
-1.36258e-08
2.12434e-08
-5.38741e-08
-1.20665e-08
2.07068e-08
-5.43348e-08
-1.05293e-08
1.91031e-08
-5.42878e-08
-9.08986e-09
1.66512e-08
-5.35358e-08
-7.79662e-09
1.3612e-08
-5.18603e-08
-6.67007e-09
1.02581e-08
-4.89974e-08
-5.69605e-09
6.86847e-09
-4.4596e-08
-4.83664e-09
3.75846e-09
-3.81365e-08
-3.98969e-09
1.29145e-09
-2.85991e-08
-2.9248e-09
-1.36111e-08
-1.32961e-09
-1.32102e-09
-1.0951e-08
-1.35872e-09
-3.86045e-09
-2.29804e-08
-2.91071e-09
-7.0222e-09
-3.08711e-08
-3.98694e-09
-1.04673e-08
-3.62084e-08
-4.87873e-09
-1.38938e-08
-3.97731e-08
-5.7511e-09
-1.70008e-08
-4.20072e-08
-6.70592e-09
-1.95009e-08
-4.32059e-08
-7.79509e-09
-2.11284e-08
-4.35975e-08
-9.03362e-09
-2.16589e-08
-4.33774e-08
-1.04032e-08
-2.09358e-08
-4.27215e-08
-1.1858e-08
-1.88721e-08
-4.18135e-08
-1.33355e-08
-1.54942e-08
-4.08195e-08
-1.47576e-08
-1.10521e-08
-3.98324e-08
-1.59249e-08
-5.76528e-09
-3.90554e-08
-1.67215e-08
-4.54774e-11
-3.85509e-08
-1.70788e-08
5.64735e-09
-3.8497e-08
-1.7056e-08
1.09128e-08
-3.89918e-08
-1.67111e-08
1.54239e-08
-3.98831e-08
-1.59816e-08
1.88362e-08
-4.0836e-08
-1.47913e-08
2.09098e-08
-4.18205e-08
-1.33539e-08
2.16452e-08
-4.27339e-08
-1.18756e-08
2.11242e-08
-4.33949e-08
-1.04189e-08
1.95049e-08
-4.36212e-08
-9.04725e-09
1.70099e-08
-4.32335e-08
-7.80731e-09
1.39055e-08
-4.20386e-08
-6.71738e-09
1.04793e-08
-3.98092e-08
-5.76189e-09
7.02852e-09
-3.62506e-08
-4.89469e-09
3.85177e-09
-3.09326e-08
-4.02718e-09
1.30832e-09
-2.30846e-08
-2.97105e-09
-1.09407e-08
-1.36209e-09
-1.30938e-09
-8.31329e-09
-1.32837e-09
-3.79603e-09
-1.76518e-08
-2.84203e-09
-6.90999e-09
-2.38519e-08
-3.90525e-09
-1.03165e-08
-2.80341e-08
-4.76777e-09
-1.37118e-08
-3.07784e-08
-5.59939e-09
-1.67944e-08
-3.24246e-08
-6.50002e-09
-1.92708e-08
-3.32105e-08
-7.51906e-09
-2.0875e-08
-3.33236e-08
-8.66967e-09
-2.13873e-08
-3.29279e-08
-9.93709e-09
-2.06497e-08
-3.21819e-08
-1.12773e-08
-1.85883e-08
-3.12402e-08
-1.26346e-08
-1.52665e-08
-3.02352e-08
-1.39061e-08
-1.0896e-08
-2.92836e-08
-1.49194e-08
-5.71181e-09
-2.8575e-08
-1.56646e-08
-5.14527e-11
-2.81813e-08
-1.603e-08
5.57475e-09
-2.81221e-08
-1.60011e-08
1.07651e-08
-2.8526e-08
-1.56563e-08
1.51937e-08
-2.93274e-08
-1.49842e-08
1.85523e-08
-3.0254e-08
-1.39405e-08
2.06217e-08
-3.12432e-08
-1.26467e-08
2.13681e-08
-3.21886e-08
-1.12917e-08
2.08678e-08
-3.29413e-08
-9.9533e-09
1.92712e-08
-3.33399e-08
-8.68475e-09
1.67996e-08
-3.32308e-08
-7.53112e-09
1.37206e-08
-3.24487e-08
-6.5109e-09
1.03273e-08
-3.08059e-08
-5.61e-09
6.91803e-09
-2.80628e-08
-4.77843e-09
3.79605e-09
-2.38883e-08
-3.92227e-09
1.29455e-09
-1.77064e-08
-2.87671e-09
-8.31537e-09
-1.3308e-09
-1.23629e-09
-5.83341e-09
-1.24361e-09
-3.58665e-09
-1.26371e-08
-2.66429e-09
-6.5483e-09
-1.72287e-08
-3.66159e-09
-9.81038e-09
-2.03113e-08
-4.46067e-09
-1.30805e-08
-2.22862e-08
-5.22205e-09
-1.60619e-08
-2.3403e-08
-6.0401e-09
-1.84618e-08
-2.38455e-08
-6.96508e-09
-2.00189e-08
-2.37607e-08
-8.00578e-09
-2.05159e-08
-2.32829e-08
-9.14802e-09
-1.9801e-08
-2.25391e-08
-1.03577e-08
-1.78031e-08
-2.16502e-08
-1.15878e-08
-1.46249e-08
-2.0725e-08
-1.26883e-08
-1.04292e-08
-1.98982e-08
-1.35811e-08
-5.46096e-09
-1.92884e-08
-1.42548e-08
-4.47334e-11
-1.89749e-08
-1.46227e-08
5.34178e-09
-1.89269e-08
-1.45818e-08
1.03189e-08
-1.9257e-08
-1.4246e-08
1.45584e-08
-1.99248e-08
-1.36421e-08
1.77682e-08
-2.07402e-08
-1.27236e-08
1.97717e-08
-2.16555e-08
-1.15911e-08
2.04956e-08
-2.2543e-08
-1.03695e-08
2.00088e-08
-2.32907e-08
-9.16375e-09
1.84606e-08
-2.37715e-08
-8.02018e-09
1.60657e-08
-2.38589e-08
-6.97707e-09
1.30877e-08
-2.34198e-08
-6.05088e-09
9.8168e-09
-2.23042e-08
-5.23084e-09
6.55393e-09
-2.03307e-08
-4.46924e-09
3.59068e-09
-1.72537e-08
-3.67134e-09
1.23349e-09
-1.26698e-08
-2.6794e-09
-5.83705e-09
-1.24484e-09
-1.10181e-09
-3.62818e-09
-1.10344e-09
-3.21988e-09
-8.14746e-09
-2.37161e-09
-5.93222e-09
-1.12675e-08
-3.24885e-09
-8.95522e-09
-1.33479e-08
-3.94042e-09
-1.20163e-08
-1.46273e-08
-4.59787e-09
-1.483e-08
-1.52831e-08
-5.30617e-09
-1.71087e-08
-1.54538e-08
-6.11299e-09
-1.85976e-08
-1.52473e-08
-7.02447e-09
-1.9088e-08
-1.47637e-08
-8.02884e-09
-1.84341e-08
-1.40969e-08
-9.09607e-09
-1.65788e-08
-1.3334e-08
-1.01714e-08
-1.36217e-08
-1.25732e-08
-1.11088e-08
-9.70701e-09
-1.19081e-08
-1.19047e-08
-5.07456e-09
-1.14186e-08
-1.25022e-08
-3.79342e-11
-1.11677e-08
-1.28439e-08
4.97429e-09
-1.11395e-08
-1.27997e-08
9.60726e-09
-1.14004e-08
-1.24896e-08
1.35481e-08
-1.19164e-08
-1.19493e-08
1.65355e-08
-1.25791e-08
-1.11484e-08
1.84049e-08
-1.33379e-08
-1.0187e-08
1.90676e-08
-1.40992e-08
-9.10643e-09
1.8587e-08
-1.47677e-08
-8.04243e-09
1.71059e-08
-1.52532e-08
-7.03718e-09
1.48315e-08
-1.54617e-08
-6.12286e-09
1.20204e-08
-1.52925e-08
-5.31611e-09
8.95954e-09
-1.46381e-08
-4.60517e-09
5.93786e-09
-1.33623e-08
-3.94673e-09
3.2277e-09
-1.12905e-08
-3.25303e-09
1.10437e-09
-8.17209e-09
-2.37443e-09
-3.63068e-09
-1.102e-09
-9.00659e-10
-1.82812e-09
-8.99427e-10
-2.69095e-09
-4.42187e-09
-1.93531e-09