/*--------------------------------*- C++ -*----------------------------------*\
| =========                 |                                                 |
| \\      /  F ield         | OpenFOAM: The Open Source CFD Toolbox           |
|  \\    /   O peration     | Version:  v1912                                 |
|   \\  /    A nd           | Website:  www.openfoam.com                      |
|    \\/     M anipulation  |                                                 |
\*---------------------------------------------------------------------------*/
FoamFile
{
    version     2.0;
    format      ascii;
    class       volScalarField;
    location    "7.5/oil";
    object      heatTransferCoeff(T);
}
// * * * * * * * * * * * * * * * * * * * * * * * * * * * * * * * * * * * * * //

dimensions      [1 0 -3 -1 0 0 0];


internalField   uniform 0;

boundaryField
{
    maxY
    {
        type            calculated;
        value           uniform 0;
    }
    minX
    {
        type            calculated;
        value           uniform 0;
    }
    maxX
    {
        type            calculated;
        value           uniform 0;
    }
    minY
    {
        type            calculated;
        value           uniform 0;
    }
    minZ
    {
        type            calculated;
        value           uniform 0;
    }
    maxZ
    {
        type            calculated;
        value           uniform 0;
    }
    oil_to_sphere
    {
        type            calculated;
        value           nonuniform List<scalar> 
1536
(
-167.456
-167.681
-167.946
-167.843
-167.354
-167.48
-167.823
-167.44
-167.395
-167.537
-167.944
-167.39
-167.351
-167.688
-167.482
-167.693
-167.583
-167.94
-167.675
-167.412
-167.469
-167.307
-167.432
-167.707
-167.764
-167.704
-167.594
-167.695
-168.172
-168.035
-167.71
-168.026
-168.075
-167.803
-167.493
-167.676
-167.955
-167.87
-168.217
-167.805
-167.598
-167.665
-167.524
-167.582
-167.566
-167.416
-167.025
-167.415
-167.55
-167.123
-167.471
-167.498
-166.937
-167.574
-167.334
-167.43
-167.39
-167.584
-167.458
-167.616
-167.425
-167.443
-167.536
-168.235
-167.603
-168.125
-167.407
-167.324
-167.179
-167.429
-167.782
-167.512
-167.442
-167.488
-168.081
-167.433
-167.51
-167.597
-167.694
-167.757
-167.954
-168.014
-168.613
-167.746
-167.702
-167.728
-167.328
-167.418
-167.361
-167.582
-167.387
-167.545
-167.316
-167.644
-167.579
-167.684
-167.478
-167.486
-167.289
-167.37
-167.528
-167.61
-167.657
-167.782
-167.517
-167.75
-167.351
-167.596
-167.402
-167.578
-167.608
-167.92
-167.536
-167.702
-167.825
-167.893
-168.228
-167.848
-167.724
-167.632
-167.587
-167.901
-167.509
-167.723
-167.64
-167.904
-167.704
-167.566
-168.07
-167.468
-167.693
-167.441
-167.362
-167.419
-167.716
-167.744
-167.667
-168.061
-167.401
-167.479
-167.42
-167.786
-167.541
-167.64
-167.561
-167.682
-167.311
-167.523
-167.712
-167.841
-167.567
-167.794
-167.591
-167.738
-167.716
-167.52
-167.404
-167.52
-167.573
-167.337
-167.813
-167.707
-167.663
-167.572
-167.919
-167.688
-167.562
-167.638
-167.457
-167.922
-168.112
-167.88
-167.587
-167.539
-167.34
-167.621
-167.399
-167.575
-167.955
-167.787
-167.812
-167.639
-167.746
-167.481
-167.435
-167.397
-167.58
-167.574
-167.521
-167.774
-167.562
-168.074
-167.281
-167.497
-167.445
-167.765
-167.321
-167.551
-167.545
-167.704
-167.815
-167.702
-167.578
-167.345
-167.698
-167.361
-167.492
-167.469
-167.555
-167.921
-167.694
-168.243
-168.083
-167.807
-167.426
-167.518
-167.341
-167.564
-167.336
-167.407
-167.418
-167.384
-167.443
-167.348
-167.477
-167.418
-167.701
-167.089
-167.76
-168.419
-169.761
-169.557
-169.586
-167.603
-168.178
-167.369
-167.549
-168.396
-169.672
-167.92
-167.273
-169.717
-167.641
-168.681
-167.888
-167.324
-168.82
-167.712
-169.391
-167.607
-167.145
-167.62
-168.494
-168.924
-168.091
-167.197
-167.467
-168.493
-169.288
-168.967
-168.003
-169.967
-167.985
-167.534
-170.228
-166.888
-166.96
-169.358
-169.552
-168.105
-167.532
-167.383
-167.027
-167.86
-167.29
-167.569
-168.44
-168.709
-168.518
-167.151
-167.377
-169.199
-168.913
-168.026
-167.937
-167.915
-167.942
-167.829
-167.088
-167.074
-167.899
-168.061
-168.155
-168.103
-167.781
-167.282
-167.104
-167.13
-167.946
-168.522
-167.879
-168.14
-167.95
-168.788
-167.714
-170.006
-169.019
-171.215
-167.517
-166.955
-166.793
-170.476
-170.064
-168.029
-166.97
-166.883
-169.121
-167.863
-169.345
-169.122
-167.778
-170.034
-167.641
-167.888
-167.698
-168.152
-168.683
-167.952
-168.059
-168.225
-167.277
-168.041
-167.705
-167.695
-167.514
-167.963
-167.861
-167.701
-168.821
-167.354
-167.609
-167.841
-167.694
-168.261
-167.902
-167.602
-167.678
-167.782
-168.444
-167.352
-168.246
-167.832
-169.451
-167.343
-167.64
-167.775
-167.657
-168.355
-168.548
-168.217
-167.127
-168.121
-168.176
-170.195
-167.691
-167.585
-168.328
-167.919
-168.003
-167.576
-167.587
-167.759
-167.895
-167.594
-167.419
-168.569
-168.599
-168.12
-168.299
-168.678
-168.042
-167.878
-167.697
-168.275
-167.726
-167.149
-167.677
-168.521
-168.774
-167.815
-168.203
-167.61
-168.075
-167.583
-167.588
-167.412
-167.513
-167.427
-168.479
-170.036
-167.52
-167.722
-168.943
-167.504
-167.816
-169.752
-168.387
-169.692
-168.002
-167.723
-167.637
-168.123
-167.767
-167.385
-167.669
-168.188
-169.518
-167.533
-167.533
-166.961
-167.227
-167.551
-168.484
-168.067
-168.323
-167.759
-167.73
-168.172
-167.395
-170.515
-167.541
-166.921
-167.528
-168.687
-168.199
-168.023
-167.565
-168.054
-167.786
-167.813
-167.319
-167.189
-167.459
-167.894
-167.794
-169.281
-167.654
-167.613
-168.127
-168.262
-167.91
-168.771
-167.891
-167.659
-167.715
-167.935
-167.72
-168.115
-167.155
-167.495
-167.8
-167.93
-170.708
-167.634
-167.608
-167.658
-167.866
-167.884
-168.191
-167.878
-167.553
-167.423
-167.395
-167.347
-167.387
-168.018
-167.898
-167.687
-168.169
-167.779
-170.304
-166.935
-166.923
-169.476
-168.046
-169.209
-169.196
-167.48
-169.841
-167.621
-167.902
-167.817
-167.632
-167.838
-167.85
-167.641
-167.739
-167.863
-167.863
-168.22
-167.557
-167.666
-167.659
-168.003
-167.47
-167.843
-168.907
-167.881
-167.658
-167.285
-167.601
-167.7
-167.92
-167.863
-167.659
-168.219
-167.824
-167.846
-167.26
-167.503
-167.101
-167.882
-168.81
-168.083
-167.645
-167.611
-168.054
-167.854
-167.715
-168.178
-168.738
-168.88
-167.654
-167.301
-167.596
-167.614
-167.612
-167.916
-168.26
-167.407
-167.926
-167.842
-167.476
-167.427
-167.158
-167.782
-167.877
-169.728
-167.694
-167.659
-167.941
-167.82
-167.433
-167.848
-167.745
-167.802
-167.718
-167.931
-167.61
-167.614
-167.992
-168.208
-168.19
-167.433
-167.505
-167.339
-167.36
-167.866
-167.996
-167.954
-168.25
-168.059
-167.547
-167.822
-167.671
-167.891
-167.674
-168.049
-168.979
-168.514
-167.569
-167.368
-167.631
-167.84
-168.095
-168.016
-167.536
-167.985
-167.739
-167.778
-167.053
-167.692
-167.591
-167.646
-167.636
-167.545
-167.775
-168.664
-168.607
-167.683
-167.792
-167.746
-168.299
-167.517
-168.581
-168.713
-167.903
-168.112
-167.346
-167.535
-167.818
-167.636
-167.539
-167.743
-167.799
-167.985
-167.952
-167.394
-167.497
-167.668
-167.842
-167.561
-167.511
-167.202
-168.856
-168.118
-167.83
-167.706
-167.641
-167.687
-167.52
-167.874
-168.576
-168.909
-167.632
-167.896
-168.063
-168.013
-167.515
-167.694
-167.943
-168.156
-167.447
-167.442
-167.178
-167.761
-167.933
-169.624
-167.655
-167.803
-168.118
-169.029
-167.977
-168.019
-167.675
-167.603
-167.081
-167.637
-167.796
-167.894
-167.664
-167.927
-167.931
-167.833
-168.481
-167.705
-167.869
-167.324
-167.561
-167.917
-168.509
-168.046
-168.508
-167.469
-167.955
-167.985
-167.411
-167.879
-167.987
-167.96
-167.672
-167.471
-167.14
-167.983
-169.635
-167.827
-167.614
-167.631
-168.16
-167.898
-167.921
-167.807
-167.742
-167.619
-167.657
-167.816
-167.859
-167.498
-168.271
-168.067
-167.794
-167.807
-168.078
-167.941
-167.52
-167.897
-167.601
-167.224
-167.672
-169.114
-167.978
-168.973
-167.702
-167.681
-167.43
-167.71
-167.595
-168.037
-167.893
-167.663
-168.01
-167.667
-167.627
-167.265
-167.571
-167.251
-168.582
-168.07
-167.762
-167.642
-167.688
-167.929
-168.07
-167.639
-167.611
-167.679
-168.043
-167.543
-167.749
-167.697
-167.705
-167.737
-167.484
-169.042
-169.564
-168.132
-167.699
-167.834
-167.831
-168.106
-167.535
-167.604
-167.741
-168.01
-167.368
-167.868
-167.834
-167.805
-167.6
-167.502
-167.462
-167.58
-167.711
-167.936
-167.967
-168.651
-167.631
-169.797
-169.176
-169.716
-167.637
-167.022
-166.905
-168.831
-169.092
-167.908
-168.235
-167.507
-170.333
-167.128
-167.607
-168.655
-167.53
-167.543
-167.153
-168.382
-167.436
-168.404
-167.975
-168.111
-167.547
-168.437
-167.93
-167.738
-167.985
-168.108
-168.102
-167.615
-168.007
-167.935
-167.866
-167.466
-167.56
-167.44
-167.448
-167.547
-167.163
-167.921
-170.071
-167.796
-167.629
-167.606
-167.578
-167.124
-167.895
-169.689
-168.209
-167.645
-167.778
-167.533
-167.54
-167.743
-168.07
-168.298
-167.703
-168.201
-167.698
-167.582
-166.937
-167.384
-167.417
-168.621
-168.387
-167.962
-167.679
-168.085
-168.035
-167.367
-167.16
-167.543
-169.367
-167.816
-167.931
-167.668
-167.523
-167.605
-167.25
-169.125
-168.285
-167.917
-167.581
-167.602
-170.571
-169.552
-167.57
-168.509
-169.515
-167.471
-166.9
-166.933
-169.324
-169.597
-168.072
-167.825
-167.711
-167.602
-168.245
-167.925
-168.106
-167.727
-168.115
-167.487
-167.404
-167.031
-167.858
-167.247
-168.869
-167.6
-169.497
-167.676
-167.269
-169.163
-167.905
-168.511
-167.543
-167.602
-166.975
-169.519
-167.524
-169.829
-166.939
-166.827
-170.459
-168.041
-168.913
-170.251
-169.194
-168.228
-168.781
-168.365
-167.869
-167.922
-169.2
-168.506
-168.031
-167.764
-167.881
-168.152
-167.04
-168.122
-167.959
-167.864
-168.069
-167.757
-167.025
-167.544
-167.563
-166.999
-167.676
-167.203
-168.827
-167.678
-168.441
-167.672
-168.035
-167.7
-167.901
-167.891
-167.552
-168.025
-167.531
-167.652
-167.391
-167.413
-167.751
-169.423
-167.747
-168.426
-167.88
-167.771
-167.631
-167.249
-168.799
-167.773
-167.821
-167.759
-167.624
-167.34
-168.374
-167.861
-168.735
-168.325
-167.908
-168.675
-167.736
-167.552
-168.305
-167.505
-168.066
-167.523
-168.757
-167.874
-167.591
-167.857
-167.79
-167.652
-167.045
-168.353
-168.144
-167.587
-167.68
-168.113
-168.063
-167.348
-168.282
-168.262
-167.521
-167.714
-168.196
-168.052
-167.227
-167.109
-167.403
-169.292
-167.98
-167.858
-167.581
-167.528
-167.391
-167.632
-169.278
-169.626
-168.132
-167.882
-167.637
-168.376
-169.448
-167.512
-168.464
-169.535
-167.403
-167.051
-167.07
-169.164
-168.885
-167.745
-167.062
-167.555
-168.614
-167.565
-167.995
-167.219
-168.621
-167.317
-168.679
-168.328
-167.373
-172.416
-166.929
-167.042
-169.024
-168.125
-169.574
-168.748
-167.616
-168.921
-167.546
-166.955
-167.515
-168.807
-167.637
-167.225
-167.398
-168.386
-168.251
-169.906
-167.763
-169.736
-167.464
-167.12
-167.676
-168.146
-168.788
-167.638
-167.641
-167.69
-167.224
-168.342
-168.972
-168.476
-167.634
-167.634
-168.184
-169.085
-167.962
-168.156
-168.214
-167.771
-167.007
-168.354
-167.842
-167.599
-168.572
-167.85
-167.636
-167.067
-167.775
-167.76
-167.952
-168.438
-167.805
-168.133
-168.275
-168.587
-168.004
-167.342
-167.866
-167.751
-168.224
-166.887
-167.835
-168.587
-167.781
-167.864
-167.566
-167.954
-167.699
-167.518
-167.217
-167.887
-168.923
-167.8
-167.656
-167.672
-168.248
-168.367
-167.802
-167.619
-168.024
-168.018
-167.051
-167.37
-167.325
-168.268
-168.432
-167.897
-167.758
-167.863
-167.875
-167.44
-169.116
-167.828
-169.904
-166.966
-166.947
-169.377
-167.849
-169.25
-168.601
-169.689
-167.672
-168.625
-168.422
-168.193
-167.3
-168.51
-169.596
-168.164
-167.631
-167.527
-167.919
-167.106
-168.255
-167.922
-167.955
-168.417
-167.814
-167.05
-167.546
-167.509
-167.011
-167.82
-167.206
-168.945
-167.611
-168.636
-166.953
-166.994
-167.871
-169.667
-169.241
-169.881
-167.671
-169.881
-168.266
-167.459
-170.14
-167.744
-168.374
-167.629
-168.174
-168.571
-168.081
-169.221
-168.348
-168.326
-170.495
-166.927
-167.766
-167.227
-167.225
-167.996
-168.097
-167.936
-167.783
-167.667
-167.878
-167.306
-167.625
-168.625
-168.871
-167.837
-167.221
-167.59
-169.006
-169.546
-167.743
-167.32
-167.875
-169.736
-167.632
-167.691
-167.598
-168.398
-168.778
-168.191
-168.396
-168.371
-168.175
-167.113
-167.766
-168.103
-167.869
-167.929
-167.753
-167.526
-168.105
-168.099
-167.769
-167.836
-167.586
-168.034
-168.479
-168.699
-168.003
-167.338
-168.29
-167.93
-168.072
-167.931
-167.584
-168.149
-167.009
-167.879
-168.204
-168.028
-167.791
-167.737
-167.935
-167.764
-167.207
-167.573
-167.886
-168.111
-168.852
-167.66
-167.586
-167.237
-167.529
-167.745
-168.309
-169.173
-167.795
-167.546
-167.573
-167.302
-168.002
-168.455
-167.501
-167.503
-168.07
-167.929
-167.234
-168.194
-168.114
-167.86
-167.605
-167.717
-167.754
-167.47
-166.956
-166.973
-170.172
-167.897
-169.71
-168.705
-169.425
-167.671
-167.987
-167.189
-167.194
-168.501
-168.328
-168.971
-169.937
-168.04
-167.634
-167.739
-167.626
-167.581
-167.649
-167.912
-167.637
-167.844
-167.816
-167.245
-167.576
-168.909
-167.794
-168.423
-167.639
-167.699
-167.589
-167.709
-167.633
-168.341
-168.185
-167.518
-167.849
-167.781
-168.057
-167.306
-169.073
-169.44
-168.465
-167.707
-167.362
-167.691
-167.857
-167.922
-168.698
-167.7
-167.601
-167.744
-167.996
-167.368
-168.227
-167.828
-167.931
-168.08
-169.003
-167.701
-167.612
-167.43
-167.601
-167.883
-167.84
-168.041
-168.12
-167.389
-167.656
-167.861
-167.382
-168.096
-168.048
-167.858
-167.411
-167.473
-167.469
-167.42
-167.91
-167.97
-167.836
-167.735
-168.124
-167.573
-167.18
-167.576
-169.015
-167.843
-168.154
-167.52
-167.662
-168.116
-168.255
-167.866
-167.69
-167.769
-167.717
-167.387
-169.115
-168.097
-167.947
-167.7
-167.394
-167.608
-167.669
-167.757
-167.898
-167.604
-167.923
-168.56
-167.646
-167.976
-167.766
-168.622
-167.698
-168.507
-167.815
-167.865
-167.788
-167.952
-167.319
-167.633
-168.029
-169.225
-168.213
-167.932
-167.677
-167.665
-167.599
-167.657
-168.003
-167.23
-168.112
-168.107
-167.541
-169.178
-168.508
-168.07
-167.49
-167.806
-167.801
-167.846
-168.213
-167.805
-167.502
-168.543
-168.169
-168.1
-168.468
-167.566
-167.614
-167.801
-168.091
-168.875
-167.842
-167.556
-167.252
-167.581
-167.596
-167.904
-168.165
-167.539
-167.781
-168.028
-168.067
-167.427
-168.029
-167.88
-167.682
-167.853
-167.607
-167.775
-168.354
-167.588
-167.715
-167.328
-167.656
-168.01
-168.692
-169.096
-167.907
-167.796
-167.963
-167.938
-167.656
-167.879
-168.068
-167.369
-167.646
-167.816
-167.686
-167.3
-167.899
-167.9
-168.808
-167.182
-167.5
-167.508
-167.546
-167.634
-167.703
-167.694
-167.575
-167.87
-168.006
-167.627
-167.792
-167.746
-167.971
-167.732
-167.632
-167.566
-167.844
-167.664
-167.627
-167.885
-167.772
-167.462
-167.946
-167.664
-168.055
-167.136
-167.077
-167.602
-168.772
-168.253
-167.979
-167.63
-167.66
-168.102
-167.901
-167.533
-167.673
-167.706
-167.941
-167.573
-169.546
-168.026
-167.712
-167.103
-167.551
-167.646
-167.651
-167.782
-167.723
-167.733
-167.125
-167.618
-167.792
-168.115
-169.36
-167.73
-167.708
-168.11
-167.907
-167.628
-167.506
-167.769
-167.753
-167.309
-167.799
-168.051
-168.922
-167.168
-167.601
-167.638
-167.66
-167.718
-168.17
-167.86
-167.352
-168.504
-168.02
-167.78
)
;
    }
}


// ************************************************************************* //
