/*--------------------------------*- C++ -*----------------------------------*\
| =========                 |                                                 |
| \\      /  F ield         | OpenFOAM: The Open Source CFD Toolbox           |
|  \\    /   O peration     | Version:  v1912                                 |
|   \\  /    A nd           | Website:  www.openfoam.com                      |
|    \\/     M anipulation  |                                                 |
\*---------------------------------------------------------------------------*/
FoamFile
{
    version     2.0;
    format      ascii;
    class       volVectorField;
    location    "7.5/oil";
    object      U;
}
// * * * * * * * * * * * * * * * * * * * * * * * * * * * * * * * * * * * * * //

dimensions      [0 1 -1 0 0 0 0];


internalField   nonuniform List<vector> 
35580
(
(-3.54309e-05 -3.54415e-05 -3.54018e-05)
(-3.88823e-05 -7.34875e-06 -7.31391e-06)
(-8.07831e-06 -5.17951e-06 -5.17108e-06)
(-7.13393e-06 -1.4074e-06 -1.40576e-06)
(-1.85321e-06 -8.913e-07 -8.89162e-07)
(-1.4953e-06 -3.0223e-07 -3.01741e-07)
(-4.58618e-07 -1.73018e-07 -1.72935e-07)
(-3.68231e-07 -6.93847e-08 -6.98931e-08)
(-1.30513e-07 -3.75234e-08 -3.8187e-08)
(-1.08309e-07 -1.71556e-08 -1.79675e-08)
(-4.4708e-08 -8.88372e-09 -9.69801e-09)
(-3.87847e-08 -4.45295e-09 -5.22656e-09)
(-1.96367e-08 -2.13259e-09 -2.88441e-09)
(-1.80911e-08 -1.05363e-09 -1.75524e-09)
(-1.20506e-08 -3.58896e-10 -1.04135e-09)
(-1.18744e-08 -6.31979e-11 -7.47353e-10)
(-1.00598e-08 1.71598e-10 -5.35144e-10)
(-1.02269e-08 2.66753e-10 -4.8428e-10)
(-9.64603e-09 3.52916e-10 -4.56969e-10)
(-9.60468e-09 3.86787e-10 -4.93148e-10)
(-9.0626e-09 4.12805e-10 -5.31574e-10)
(-8.47737e-09 4.08669e-10 -5.83186e-10)
(-7.46862e-09 3.94082e-10 -6.18451e-10)
(-6.27355e-09 3.6191e-10 -6.35884e-10)
(-4.8131e-09 3.19332e-10 -6.20031e-10)
(-3.31444e-09 2.69487e-10 -5.63901e-10)
(-1.86325e-09 2.20873e-10 -4.68784e-10)
(-7.18986e-10 1.87863e-10 -3.33381e-10)
(-1.13103e-11 1.84765e-10 -2.01476e-10)
(1.29068e-10 1.90003e-10 -6.41347e-11)
(-7.32647e-06 -3.89339e-05 -7.32465e-06)
(-9.5101e-06 -9.5249e-06 -3.20142e-06)
(-3.83944e-06 -8.03222e-06 -2.70366e-06)
(-3.58661e-06 -2.2557e-06 -1.02246e-06)
(-1.32313e-06 -1.48953e-06 -6.73239e-07)
(-1.16434e-06 -4.87075e-07 -2.77294e-07)
(-4.63886e-07 -3.02989e-07 -1.63537e-07)
(-3.98486e-07 -1.15291e-07 -7.46032e-08)
(-1.79136e-07 -7.22314e-08 -4.14741e-08)
(-1.52152e-07 -3.26061e-08 -2.08045e-08)
(-7.86769e-08 -2.14849e-08 -1.10766e-08)
(-6.71884e-08 -1.18199e-08 -5.93746e-09)
(-4.12509e-08 -8.45439e-09 -2.93951e-09)
(-3.66762e-08 -5.72135e-09 -1.51084e-09)
(-2.75058e-08 -4.55111e-09 -5.44161e-10)
(-2.6031e-08 -3.63013e-09 -1.46885e-10)
(-2.29661e-08 -3.16042e-09 1.50028e-10)
(-2.25984e-08 -2.81614e-09 2.26597e-10)
(-2.14218e-08 -2.63615e-09 2.65675e-10)
(-2.09349e-08 -2.52738e-09 2.12315e-10)
(-1.97444e-08 -2.50683e-09 1.46378e-10)
(-1.83607e-08 -2.52903e-09 5.4435e-11)
(-1.62845e-08 -2.57745e-09 -2.63204e-11)
(-1.38199e-08 -2.61665e-09 -9.66745e-11)
(-1.09001e-08 -2.61142e-09 -1.35114e-10)
(-7.87715e-09 -2.51093e-09 -1.32929e-10)
(-4.94302e-09 -2.26516e-09 -9.17555e-11)
(-2.50823e-09 -1.80777e-09 -9.67468e-12)
(-7.95884e-10 -1.09982e-09 5.32856e-11)
(1.27912e-11 -2.40742e-10 8.29229e-11)
(-5.18511e-06 -8.10783e-06 -5.17574e-06)
(-8.03833e-06 -3.8506e-06 -2.70573e-06)
(-3.83306e-06 -3.83949e-06 -2.33987e-06)
(-3.64238e-06 -1.52226e-06 -9.66439e-07)
(-1.60069e-06 -1.16553e-06 -6.2051e-07)
(-1.32792e-06 -4.97454e-07 -2.69488e-07)
(-6.19051e-07 -3.55826e-07 -1.55586e-07)
(-4.92722e-07 -1.71291e-07 -7.30888e-08)
(-2.52169e-07 -1.21218e-07 -3.99353e-08)
(-1.99714e-07 -6.70177e-08 -2.01685e-08)
(-1.14255e-07 -4.86956e-08 -1.0434e-08)
(-9.24016e-08 -3.12496e-08 -5.40604e-09)
(-6.07791e-08 -2.4131e-08 -2.37167e-09)
(-5.19381e-08 -1.80143e-08 -9.51774e-10)
(-4.01844e-08 -1.51256e-08 3.38403e-11)
(-3.68975e-08 -1.28014e-08 4.41185e-10)
(-3.26566e-08 -1.15843e-08 7.47129e-10)
(-3.14561e-08 -1.06787e-08 8.29912e-10)
(-2.96538e-08 -1.02102e-08 8.71276e-10)
(-2.86494e-08 -9.91547e-09 8.17206e-10)
(-2.69408e-08 -9.81118e-09 7.40352e-10)
(-2.49862e-08 -9.76654e-09 6.34008e-10)
(-2.22571e-08 -9.7419e-09 5.28642e-10)
(-1.90406e-08 -9.63711e-09 4.26075e-10)
(-1.52772e-08 -9.36622e-09 3.47161e-10)
(-1.13513e-08 -8.81748e-09 3.02229e-10)
(-7.4888e-09 -7.88793e-09 2.87019e-10)
(-4.14665e-09 -6.45268e-09 3.07709e-10)
(-1.60454e-09 -4.41648e-09 2.94982e-10)
(-9.74892e-11 -1.73847e-09 2.13787e-10)
(-1.41136e-06 -7.15352e-06 -1.40744e-06)
(-2.25767e-06 -3.6046e-06 -1.02292e-06)
(-1.51181e-06 -3.66112e-06 -9.66275e-07)
(-1.55848e-06 -1.58118e-06 -4.66072e-07)
(-8.29657e-07 -1.24019e-06 -3.19042e-07)
(-7.5703e-07 -5.7308e-07 -1.54472e-07)
(-4.0619e-07 -4.2024e-07 -9.40316e-08)
(-3.5125e-07 -2.17465e-07 -4.79447e-08)
(-2.01838e-07 -1.59029e-07 -2.72214e-08)
(-1.70112e-07 -9.43096e-08 -1.44923e-08)
(-1.07416e-07 -7.15264e-08 -7.52281e-09)
(-9.07981e-08 -4.90801e-08 -3.89584e-09)
(-6.45412e-08 -3.96559e-08 -1.48634e-09)
(-5.66347e-08 -3.12492e-08 -3.68864e-10)
(-4.58822e-08 -2.72157e-08 4.71734e-10)
(-4.24879e-08 -2.38853e-08 8.21157e-10)
(-3.82164e-08 -2.21571e-08 1.09857e-09)
(-3.67257e-08 -2.08734e-08 1.17864e-09)
(-3.46881e-08 -2.02445e-08 1.2241e-09)
(-3.33947e-08 -1.98757e-08 1.17868e-09)
(-3.14095e-08 -1.97633e-08 1.11054e-09)
(-2.91449e-08 -1.97106e-08 1.01024e-09)
(-2.60821e-08 -1.96299e-08 9.02759e-10)
(-2.2477e-08 -1.93512e-08 7.89259e-10)
(-1.82675e-08 -1.87286e-08 6.8973e-10)
(-1.38321e-08 -1.75877e-08 6.15115e-10)
(-9.39445e-09 -1.57666e-08 5.62575e-10)
(-5.42906e-09 -1.3078e-08 5.43959e-10)
(-2.25561e-09 -9.31277e-09 4.81304e-10)
(-1.86348e-10 -4.08681e-09 3.22409e-10)
(-8.93393e-07 -1.86916e-06 -8.89181e-07)
(-1.48832e-06 -1.34706e-06 -6.7338e-07)
(-1.15328e-06 -1.63109e-06 -6.20451e-07)
(-1.21545e-06 -8.65367e-07 -3.19147e-07)
(-7.35735e-07 -7.74455e-07 -2.18317e-07)
(-6.65187e-07 -4.23301e-07 -1.1123e-07)
(-3.95963e-07 -3.45996e-07 -6.77604e-08)
(-3.35912e-07 -2.0682e-07 -3.57427e-08)
(-2.08724e-07 -1.64664e-07 -2.01684e-08)
(-1.73e-07 -1.09582e-07 -1.08825e-08)
(-1.15583e-07 -8.8441e-08 -5.46618e-09)
(-9.66733e-08 -6.57234e-08 -2.72681e-09)
(-7.12037e-08 -5.5271e-08 -8.05756e-10)
(-6.19574e-08 -4.55315e-08 4.52714e-11)
(-5.09573e-08 -4.05373e-08 7.32421e-10)
(-4.67336e-08 -3.63849e-08 1.01128e-09)
(-4.20518e-08 -3.41724e-08 1.24874e-09)
(-4.00283e-08 -3.25791e-08 1.31775e-09)
(-3.76522e-08 -3.18458e-08 1.36545e-09)
(-3.60265e-08 -3.1468e-08 1.32901e-09)
(-3.3809e-08 -3.1405e-08 1.27817e-09)
(-3.13492e-08 -3.13966e-08 1.18974e-09)
(-2.81288e-08 -3.12904e-08 1.09004e-09)
(-2.43614e-08 -3.08413e-08 9.77446e-10)
(-1.99644e-08 -2.98391e-08 8.71589e-10)
(-1.52896e-08 -2.8044e-08 7.83448e-10)
(-1.0548e-08 -2.52336e-08 7.13605e-10)
(-6.21664e-09 -2.11428e-08 6.74536e-10)
(-2.65033e-09 -1.53815e-08 5.86052e-10)
(-2.33217e-10 -7.07845e-09 3.87591e-10)
(-3.03306e-07 -1.51274e-06 -3.01243e-07)
(-4.83288e-07 -1.19652e-06 -2.7701e-07)
(-4.83748e-07 -1.36996e-06 -2.69311e-07)
(-5.46965e-07 -8.05645e-07 -1.54572e-07)
(-3.83085e-07 -7.1763e-07 -1.1132e-07)
(-3.75522e-07 -4.29667e-07 -6.20739e-08)
(-2.49202e-07 -3.53824e-07 -3.9548e-08)
(-2.26698e-07 -2.27725e-07 -2.24266e-08)
(-1.54e-07 -1.83981e-07 -1.30354e-08)
(-1.34992e-07 -1.29539e-07 -7.37603e-09)
(-9.71997e-08 -1.06384e-07 -3.68203e-09)
(-8.48841e-08 -8.2194e-08 -1.81643e-09)
(-6.61857e-08 -7.02039e-08 -3.7735e-10)
(-5.92071e-08 -5.91881e-08 2.43288e-10)
(-5.03111e-08 -5.3273e-08 7.89512e-10)
(-4.66596e-08 -4.84606e-08 1.01399e-09)
(-4.24863e-08 -4.59126e-08 1.22133e-09)
(-4.04727e-08 -4.4172e-08 1.28808e-09)
(-3.81181e-08 -4.34861e-08 1.34479e-09)
(-3.63913e-08 -4.32293e-08 1.32547e-09)
(-3.41371e-08 -4.33443e-08 1.29724e-09)
(-3.16674e-08 -4.34902e-08 1.22755e-09)
(-2.84856e-08 -4.34499e-08 1.14313e-09)
(-2.47714e-08 -4.29039e-08 1.04158e-09)
(-2.04235e-08 -4.15766e-08 9.40363e-10)
(-1.57593e-08 -3.91653e-08 8.51857e-10)
(-1.0972e-08 -3.53822e-08 7.78632e-10)
(-6.53177e-09 -2.98694e-08 7.34069e-10)
(-2.81422e-09 -2.20147e-08 6.37252e-10)
(-2.51638e-10 -1.03787e-08 4.24203e-10)
(-1.7343e-07 -4.78589e-07 -1.72114e-07)
(-2.98644e-07 -5.03751e-07 -1.63125e-07)
(-3.41898e-07 -6.71516e-07 -1.55439e-07)
(-3.94094e-07 -4.66744e-07 -9.42214e-08)
(-3.059e-07 -4.61192e-07 -6.79841e-08)
(-2.99955e-07 -3.16345e-07 -3.9693e-08)
(-2.15518e-07 -2.82223e-07 -2.53231e-08)
(-1.9547e-07 -2.02567e-07 -1.48095e-08)
(-1.40985e-07 -1.73791e-07 -8.50974e-09)
(-1.23571e-07 -1.32471e-07 -4.8535e-09)
(-9.29757e-08 -1.13419e-07 -2.28142e-09)
(-8.13708e-08 -9.21473e-08 -1.04701e-09)
(-6.52266e-08 -8.07836e-08 -1.19227e-11)
(-5.83056e-08 -6.99584e-08 3.83147e-10)
(-5.00741e-08 -6.38568e-08 7.78217e-10)
(-4.62023e-08 -5.89218e-08 9.36022e-10)
(-4.20446e-08 -5.63759e-08 1.10386e-09)
(-3.97557e-08 -5.47456e-08 1.16101e-09)
(-3.7242e-08 -5.42841e-08 1.21816e-09)
(-3.53307e-08 -5.43099e-08 1.21781e-09)
(-3.30265e-08 -5.4749e-08 1.21071e-09)
(-3.05816e-08 -5.51808e-08 1.16311e-09)
(-2.75222e-08 -5.53218e-08 1.09907e-09)
(-2.39844e-08 -5.47842e-08 1.01374e-09)
(-1.98446e-08 -5.32242e-08 9.24413e-10)
(-1.53791e-08 -5.02835e-08 8.43276e-10)
(-1.07564e-08 -4.5601e-08 7.74821e-10)
(-6.4287e-09 -3.87208e-08 7.32372e-10)
(-2.77479e-09 -2.87901e-08 6.38459e-10)
(-2.43759e-10 -1.37768e-08 4.3065e-10)
(-6.95953e-08 -3.91354e-07 -6.90196e-08)
(-1.1098e-07 -4.45426e-07 -7.43109e-08)
(-1.57763e-07 -5.54566e-07 -7.31404e-08)
(-1.92072e-07 -4.22285e-07 -4.83163e-08)
(-1.67899e-07 -4.12206e-07 -3.62062e-08)
(-1.75466e-07 -3.04998e-07 -2.28033e-08)
(-1.37986e-07 -2.73112e-07 -1.50357e-08)
(-1.32435e-07 -2.07443e-07 -9.34431e-09)
(-1.03001e-07 -1.79704e-07 -5.47981e-09)
(-9.46696e-08 -1.42355e-07 -3.2597e-09)
(-7.58079e-08 -1.23089e-07 -1.52454e-09)
(-6.88171e-08 -1.02355e-07 -7.0361e-10)
(-5.76617e-08 -9.03826e-08 4.48886e-11)
(-5.26327e-08 -7.9165e-08 2.98967e-10)
(-4.62371e-08 -7.26249e-08 6.01575e-10)
(-4.2969e-08 -6.75317e-08 7.32186e-10)
(-3.93339e-08 -6.50089e-08 8.79842e-10)
(-3.71294e-08 -6.35916e-08 9.39213e-10)
(-3.47039e-08 -6.34589e-08 1.00202e-09)
(-3.27779e-08 -6.3905e-08 1.02809e-09)
(-3.05509e-08 -6.48013e-08 1.04632e-09)
(-2.82399e-08 -6.5656e-08 1.02569e-09)
(-2.54157e-08 -6.61105e-08 9.86989e-10)
(-2.21777e-08 -6.57108e-08 9.23429e-10)
(-1.83899e-08 -6.40463e-08 8.51752e-10)
(-1.4287e-08 -6.07065e-08 7.83142e-10)
(-1.00106e-08 -5.52576e-08 7.2562e-10)
(-5.98592e-09 -4.71451e-08 6.92131e-10)
(-2.57568e-09 -3.52765e-08 6.10664e-10)
(-2.19155e-10 -1.70419e-08 4.19212e-10)
(-3.7774e-08 -1.56472e-07 -3.73728e-08)
(-6.82279e-08 -2.31983e-07 -4.12736e-08)
(-1.08439e-07 -3.21569e-07 -4.01978e-08)
(-1.3498e-07 -2.81257e-07 -2.77866e-08)
(-1.27751e-07 -2.93697e-07 -2.08482e-08)
(-1.34387e-07 -2.41013e-07 -1.36377e-08)
(-1.12566e-07 -2.27115e-07 -8.96557e-09)
(-1.08719e-07 -1.8604e-07 -5.71232e-09)
(-8.88708e-08 -1.67283e-07 -3.28239e-09)
(-8.23686e-08 -1.3936e-07 -1.96889e-09)
(-6.84377e-08 -1.23509e-07 -8.49987e-10)
(-6.25746e-08 -1.058e-07 -3.64585e-10)
(-5.35646e-08 -9.47588e-08 1.17777e-10)
(-4.89677e-08 -8.42891e-08 2.47245e-10)
(-4.33376e-08 -7.79898e-08 4.48393e-10)
(-4.00418e-08 -7.31943e-08 5.31995e-10)
(-3.64732e-08 -7.09515e-08 6.42558e-10)
(-3.4109e-08 -7.00178e-08 6.92939e-10)
(-3.16236e-08 -7.04267e-08 7.59414e-10)
(-2.96003e-08 -7.14943e-08 8.02682e-10)
(-2.74069e-08 -7.30102e-08 8.42015e-10)
(-2.52158e-08 -7.44397e-08 8.45717e-10)
(-2.26387e-08 -7.53493e-08 8.32284e-10)
(-1.97392e-08 -7.52263e-08 7.91623e-10)
(-1.63698e-08 -7.3596e-08 7.399e-10)
(-1.27224e-08 -7.00002e-08 6.86557e-10)
(-8.90711e-09 -6.39387e-08 6.42606e-10)
(-5.31182e-09 -5.47681e-08 6.20203e-10)
(-2.26833e-09 -4.11787e-08 5.55405e-10)
(-1.82309e-10 -2.00247e-08 3.89287e-10)
(-1.74173e-08 -1.36427e-07 -1.72818e-08)
(-2.90316e-08 -2.09308e-07 -2.07942e-08)
(-5.52672e-08 -2.74566e-07 -2.06775e-08)
(-7.2003e-08 -2.55625e-07 -1.5298e-08)
(-7.5128e-08 -2.64289e-07 -1.17845e-08)
(-8.31507e-08 -2.28245e-07 -8.21597e-09)
(-7.52233e-08 -2.15677e-07 -5.54648e-09)
(-7.61012e-08 -1.83259e-07 -3.73104e-09)
(-6.63547e-08 -1.65786e-07 -2.2066e-09)
(-6.39349e-08 -1.41344e-07 -1.40848e-09)
(-5.58562e-08 -1.25864e-07 -6.58287e-10)
(-5.24859e-08 -1.09131e-07 -3.49467e-10)
(-4.63631e-08 -9.79044e-08 -3.30705e-11)
(-4.30153e-08 -8.76114e-08 5.29963e-11)
(-3.86311e-08 -8.12423e-08 2.0635e-10)
(-3.57502e-08 -7.66072e-08 2.7446e-10)
(-3.25384e-08 -7.45593e-08 3.68032e-10)
(-3.02301e-08 -7.4095e-08 4.21556e-10)
(-2.78467e-08 -7.51123e-08 5.01494e-10)
(-2.58507e-08 -7.69082e-08 5.55687e-10)
(-2.37576e-08 -7.91461e-08 6.15264e-10)
(-2.1731e-08 -8.12564e-08 6.41993e-10)
(-1.94307e-08 -8.27356e-08 6.53841e-10)
(-1.68982e-08 -8.30107e-08 6.37307e-10)
(-1.39839e-08 -8.15487e-08 6.07781e-10)
(-1.08438e-08 -7.78501e-08 5.72975e-10)
(-7.56065e-09 -7.13574e-08 5.47191e-10)
(-4.47875e-09 -6.13409e-08 5.38852e-10)
(-1.88857e-09 -4.63033e-08 4.94976e-10)
(-1.39542e-10 -2.26265e-08 3.54384e-10)
(-9.21549e-09 -7.42833e-08 -9.15105e-09)
(-1.83804e-08 -1.38544e-07 -1.12336e-08)
(-3.80373e-08 -1.92461e-07 -1.11579e-08)
(-5.0963e-08 -1.96665e-07 -8.56641e-09)
(-5.65123e-08 -2.10696e-07 -6.60344e-09)
(-6.32703e-08 -1.94092e-07 -4.76279e-09)
(-6.02137e-08 -1.88469e-07 -3.19655e-09)
(-6.16185e-08 -1.67449e-07 -2.20948e-09)
(-5.59638e-08 -1.54492e-07 -1.29274e-09)
(-5.45259e-08 -1.35441e-07 -8.5758e-10)
(-4.90249e-08 -1.22049e-07 -3.95917e-10)
(-4.63591e-08 -1.07366e-07 -2.50424e-10)
(-4.15877e-08 -9.68723e-08 -8.04928e-11)
(-3.86733e-08 -8.74218e-08 -4.32404e-11)
(-3.48704e-08 -8.14211e-08 5.34568e-11)
(-3.20861e-08 -7.72687e-08 9.43732e-11)
(-2.90177e-08 -7.565e-08 1.64356e-10)
(-2.66327e-08 -7.57799e-08 2.02459e-10)
(-2.42632e-08 -7.75317e-08 2.81708e-10)
(-2.22498e-08 -8.01513e-08 3.34065e-10)
(-2.02069e-08 -8.32089e-08 4.05423e-10)
(-1.8298e-08 -8.60863e-08 4.46388e-10)
(-1.62268e-08 -8.82252e-08 4.77053e-10)
(-1.40217e-08 -8.89961e-08 4.81149e-10)
(-1.1539e-08 -8.78105e-08 4.69784e-10)
(-8.90024e-09 -8.4131e-08 4.48336e-10)
(-6.15506e-09 -7.7354e-08 4.30791e-10)
(-3.60004e-09 -6.66886e-08 4.28807e-10)
(-1.48084e-09 -5.04937e-08 4.04799e-10)
(-9.10274e-11 -2.47666e-08 3.04469e-10)
(-4.80774e-09 -6.89596e-08 -4.80175e-09)
(-9.18543e-09 -1.28086e-07 -6.25569e-09)
(-2.15752e-08 -1.71767e-07 -6.31457e-09)
(-3.01041e-08 -1.81372e-07 -5.10512e-09)
(-3.61355e-08 -1.93181e-07 -4.01537e-09)
(-4.21829e-08 -1.8312e-07 -3.04062e-09)
(-4.27407e-08 -1.78084e-07 -2.10398e-09)
(-4.53259e-08 -1.61476e-07 -1.54345e-09)
(-4.3286e-08 -1.49387e-07 -9.63565e-10)
(-4.33654e-08 -1.32512e-07 -7.06326e-10)
(-4.03524e-08 -1.19436e-07 -4.0827e-10)
(-3.8813e-08 -1.0553e-07 -3.31848e-10)
(-3.5615e-08 -9.51923e-08 -2.07769e-10)
(-3.34462e-08 -8.61437e-08 -1.71828e-10)
(-3.04313e-08 -8.02806e-08 -9.19372e-11)
(-2.80074e-08 -7.64395e-08 -5.78519e-11)
(-2.52897e-08 -7.51675e-08 6.37785e-12)
(-2.30227e-08 -7.5823e-08 4.04874e-11)
(-2.07737e-08 -7.82706e-08 1.1855e-10)
(-1.8816e-08 -8.16506e-08 1.61403e-10)
(-1.68612e-08 -8.55003e-08 2.30719e-10)
(-1.50634e-08 -8.91333e-08 2.74453e-10)
(-1.31849e-08 -9.194e-08 3.10821e-10)
(-1.12544e-08 -9.32336e-08 3.22377e-10)
(-9.14567e-09 -9.2382e-08 3.21821e-10)
(-6.95626e-09 -8.88154e-08 3.14362e-10)
(-4.72612e-09 -8.18916e-08 3.15311e-10)
(-2.70319e-09 -7.0779e-08 3.31714e-10)
(-1.07306e-09 -5.37269e-08 3.3008e-10)
(-4.83021e-11 -2.64331e-08 2.62199e-10)
(-2.51858e-09 -4.96668e-08 -2.5494e-09)
(-6.22988e-09 -1.01691e-07 -3.40777e-09)
(-1.5393e-08 -1.39385e-07 -3.45599e-09)
(-2.21639e-08 -1.54251e-07 -2.88036e-09)
(-2.77928e-08 -1.66896e-07 -2.28997e-09)
(-3.28705e-08 -1.63686e-07 -1.79635e-09)
(-3.45666e-08 -1.6124e-07 -1.25566e-09)
(-3.70342e-08 -1.49626e-07 -9.55465e-10)
(-3.6371e-08 -1.39662e-07 -5.9813e-10)
(-3.66765e-08 -1.25529e-07 -4.84092e-10)
(-3.47307e-08 -1.13608e-07 -3.18274e-10)
(-3.36134e-08 -1.0112e-07 -2.79754e-10)
(-3.12114e-08 -9.14527e-08 -1.90156e-10)
(-2.93468e-08 -8.30614e-08 -1.75425e-10)
(-2.68133e-08 -7.75764e-08 -1.23196e-10)
(-2.46111e-08 -7.41816e-08 -1.16338e-10)
(-2.21689e-08 -7.33679e-08 -7.45936e-11)
(-2.00256e-08 -7.45845e-08 -5.93539e-11)
(-1.78621e-08 -7.76656e-08 -6.4409e-12)
(-1.59195e-08 -8.17396e-08 2.51547e-11)
(-1.40088e-08 -8.63582e-08 8.81135e-11)
(-1.22706e-08 -9.07307e-08 1.29631e-10)
(-1.05191e-08 -9.41695e-08 1.67005e-10)
(-8.79398e-09 -9.59547e-08 1.81565e-10)
(-6.99792e-09 -9.54429e-08 1.89901e-10)
(-5.20651e-09 -9.20477e-08 1.94732e-10)
(-3.43888e-09 -8.51104e-08 2.08762e-10)
(-1.88535e-09 -7.37468e-08 2.35368e-10)
(-6.87864e-10 -5.61092e-08 2.50352e-10)
(-4.90222e-12 -2.76728e-08 2.1279e-10)
(-1.47709e-09 -4.74268e-08 -1.4932e-09)
(-3.83931e-09 -9.55861e-08 -2.08537e-09)
(-1.00052e-08 -1.28509e-07 -2.17499e-09)
(-1.48774e-08 -1.44001e-07 -1.92708e-09)
(-1.96511e-08 -1.55218e-07 -1.60172e-09)
(-2.39177e-08 -1.54415e-07 -1.32582e-09)
(-2.6255e-08 -1.52268e-07 -9.78651e-10)
(-2.87496e-08 -1.42812e-07 -7.82233e-10)
(-2.91291e-08 -1.33472e-07 -5.20838e-10)
(-2.97781e-08 -1.20647e-07 -4.47293e-10)
(-2.87936e-08 -1.09235e-07 -3.18179e-10)
(-2.8152e-08 -9.75611e-08 -2.66561e-10)
(-2.65014e-08 -8.82156e-08 -1.8314e-10)
(-2.50965e-08 -8.02305e-08 -1.57462e-10)
(-2.31394e-08 -7.49679e-08 -1.13951e-10)
(-2.13027e-08 -7.18604e-08 -1.23105e-10)
(-1.92359e-08 -7.13794e-08 -1.00672e-10)
(-1.73143e-08 -7.29972e-08 -1.072e-10)
(-1.53119e-08 -7.65027e-08 -8.84641e-11)
(-1.34645e-08 -8.10631e-08 -8.62529e-11)
(-1.162e-08 -8.62191e-08 -5.12164e-11)
(-9.90374e-09 -9.11364e-08 -1.91333e-11)
(-8.21485e-09 -9.51043e-08 2.18632e-11)
(-6.61979e-09 -9.73726e-08 5.20511e-11)
(-5.04706e-09 -9.72289e-08 7.90487e-11)
(-3.56934e-09 -9.40306e-08 9.62692e-11)
(-2.20349e-09 -8.712e-08 1.21449e-10)
(-1.08957e-09 -7.56121e-08 1.55051e-10)
(-3.14603e-10 -5.76134e-08 1.82699e-10)
(3.65548e-11 -2.84592e-08 1.68822e-10)
(-8.21871e-10 -4.0175e-08 -8.3076e-10)
(-3.01954e-09 -8.39144e-08 -1.19921e-09)
(-7.82758e-09 -1.13603e-07 -1.27383e-09)
(-1.19186e-08 -1.298e-07 -1.17649e-09)
(-1.60485e-08 -1.40737e-07 -1.00576e-09)
(-1.9631e-08 -1.42186e-07 -8.715e-10)
(-2.19168e-08 -1.40941e-07 -6.78097e-10)
(-2.39891e-08 -1.33597e-07 -5.89011e-10)
(-2.45986e-08 -1.25395e-07 -4.26217e-10)
(-2.51994e-08 -1.143e-07 -3.55265e-10)
(-2.46325e-08 -1.03908e-07 -2.40556e-10)
(-2.41385e-08 -9.328e-08 -2.00397e-10)
(-2.28777e-08 -8.45144e-08 -1.42045e-10)
(-2.17175e-08 -7.71559e-08 -1.08327e-10)
(-2.01525e-08 -7.2352e-08 -6.17178e-11)
(-1.86333e-08 -6.96851e-08 -7.23482e-11)
(-1.68885e-08 -6.95825e-08 -6.52948e-11)
(-1.51472e-08 -7.15607e-08 -8.27721e-11)
(-1.32655e-08 -7.54057e-08 -8.93429e-11)
(-1.14364e-08 -8.02952e-08 -1.04977e-10)
(-9.58867e-09 -8.57448e-08 -9.235e-11)
(-7.87046e-09 -9.09504e-08 -8.55806e-11)
(-6.2252e-09 -9.52226e-08 -6.75464e-11)
(-4.7253e-09 -9.77956e-08 -5.36213e-11)
(-3.33036e-09 -9.79047e-08 -3.17519e-11)
(-2.11134e-09 -9.48658e-08 -1.09281e-11)
(-1.08983e-09 -8.80174e-08 2.07885e-11)
(-3.63497e-10 -7.64761e-08 6.05743e-11)
(3.31955e-11 -5.83233e-08 1.05846e-10)
(8.03493e-11 -2.88356e-08 1.24479e-10)
(-5.70564e-10 -3.84011e-08 -5.61515e-10)
(-2.39203e-09 -7.92659e-08 -8.50777e-10)
(-6.06872e-09 -1.06305e-07 -9.34219e-10)
(-9.41206e-09 -1.22006e-07 -9.02919e-10)
(-1.29097e-08 -1.32077e-07 -8.14298e-10)
(-1.59321e-08 -1.34357e-07 -7.4388e-10)
(-1.81135e-08 -1.33369e-07 -6.15621e-10)
(-1.995e-08 -1.27244e-07 -5.38514e-10)
(-2.07064e-08 -1.19699e-07 -4.18853e-10)
(-2.1228e-08 -1.09686e-07 -3.66591e-10)
(-2.08545e-08 -9.99671e-08 -2.75247e-10)
(-2.04574e-08 -9.01583e-08 -2.19347e-10)
(-1.95396e-08 -8.19315e-08 -1.37338e-10)
(-1.86833e-08 -7.51406e-08 -7.73798e-11)
(-1.75025e-08 -7.07034e-08 -2.43274e-11)
(-1.6272e-08 -6.83519e-08 -2.81787e-11)
(-1.48032e-08 -6.84815e-08 -3.05647e-11)
(-1.32186e-08 -7.06397e-08 -6.16007e-11)
(-1.14565e-08 -7.45961e-08 -9.62666e-11)
(-9.66337e-09 -7.96008e-08 -1.30749e-10)
(-7.79352e-09 -8.51578e-08 -1.39972e-10)
(-6.00471e-09 -9.04596e-08 -1.47989e-10)
(-4.31746e-09 -9.48251e-08 -1.45457e-10)
(-2.85396e-09 -9.74782e-08 -1.47973e-10)
(-1.61836e-09 -9.76567e-08 -1.31574e-10)
(-6.57332e-10 -9.46787e-08 -1.09077e-10)
(1.68971e-11 -8.78795e-08 -6.98e-11)
(3.55544e-10 -7.63832e-08 -2.25579e-11)
(3.75391e-10 -5.82718e-08 3.98075e-11)
(1.21766e-10 -2.88178e-08 8.63998e-11)
(-3.88098e-10 -3.4702e-08 -3.58551e-10)
(-2.2311e-09 -7.24851e-08 -5.85434e-10)
(-5.4355e-09 -9.73814e-08 -6.78735e-10)
(-8.50766e-09 -1.12629e-07 -6.92363e-10)
(-1.16648e-08 -1.22281e-07 -6.62475e-10)
(-1.43476e-08 -1.25408e-07 -6.37445e-10)
(-1.63381e-08 -1.25052e-07 -5.66752e-10)
(-1.78409e-08 -1.20275e-07 -5.20675e-10)
(-1.84846e-08 -1.13718e-07 -4.37378e-10)
(-1.88216e-08 -1.04923e-07 -3.70159e-10)
(-1.8472e-08 -9.60914e-08 -2.75748e-10)
(-1.80316e-08 -8.72718e-08 -2.17004e-10)
(-1.72219e-08 -7.98238e-08 -1.39908e-10)
(-1.64194e-08 -7.37366e-08 -7.90832e-11)
(-1.53761e-08 -6.97375e-08 -1.97055e-11)
(-1.42727e-08 -6.76852e-08 -1.65852e-11)
(-1.29386e-08 -6.79649e-08 -3.14158e-11)
(-1.14139e-08 -7.01891e-08 -7.16784e-11)
(-9.68363e-09 -7.40789e-08 -1.28086e-10)
(-7.85384e-09 -7.8989e-08 -1.74889e-10)
(-5.92861e-09 -8.4451e-08 -2.0836e-10)
(-4.11086e-09 -8.96617e-08 -2.37511e-10)
(-2.44571e-09 -9.38784e-08 -2.44999e-10)
(-1.03622e-09 -9.63655e-08 -2.47286e-10)
(6.26875e-11 -9.64473e-08 -2.27916e-10)
(7.96596e-10 -9.34614e-08 -1.98956e-10)
(1.14062e-09 -8.6736e-08 -1.5067e-10)
(1.08985e-09 -7.53854e-08 -9.95354e-11)
(7.30406e-10 -5.75017e-08 -2.69338e-11)
(1.67323e-10 -2.84104e-08 4.22189e-11)
(-3.42413e-10 -3.27442e-08 -3.00493e-10)
(-2.18544e-09 -6.79549e-08 -5.07438e-10)
(-5.09414e-09 -9.09224e-08 -6.07237e-10)
(-7.99358e-09 -1.05365e-07 -6.38581e-10)
(-1.09268e-08 -1.1441e-07 -6.42104e-10)
(-1.3392e-08 -1.17844e-07 -6.4332e-10)
(-1.52596e-08 -1.17823e-07 -6.09182e-10)
(-1.65819e-08 -1.13984e-07 -5.83292e-10)
(-1.71596e-08 -1.08287e-07 -5.2492e-10)
(-1.73366e-08 -1.00653e-07 -4.568e-10)
(-1.69269e-08 -9.27382e-08 -3.55063e-10)
(-1.63562e-08 -8.48303e-08 -2.69947e-10)
(-1.55216e-08 -7.81082e-08 -1.85517e-10)
(-1.46842e-08 -7.26791e-08 -1.25779e-10)
(-1.3652e-08 -6.91428e-08 -7.79269e-11)
(-1.25211e-08 -6.73877e-08 -7.51971e-11)
(-1.11554e-08 -6.77445e-08 -9.89379e-11)
(-9.56913e-09 -6.99195e-08 -1.51455e-10)
(-7.76548e-09 -7.35861e-08 -2.22519e-10)
(-5.83213e-09 -7.82209e-08 -2.83839e-10)
(-3.82369e-09 -8.33725e-08 -3.42916e-10)
(-1.92825e-09 -8.82704e-08 -3.89461e-10)
(-2.47488e-10 -9.21716e-08 -4.01257e-10)
(1.0779e-09 -9.43759e-08 -3.91261e-10)
(1.96657e-09 -9.42639e-08 -3.558e-10)
(2.37339e-09 -9.12103e-08 -3.11e-10)
(2.31553e-09 -8.45394e-08 -2.43587e-10)
(1.85308e-09 -7.33978e-08 -1.78272e-10)
(1.09871e-09 -5.59345e-08 -8.71538e-11)
(2.12465e-10 -2.75738e-08 5.00691e-12)
(-3.08087e-10 -2.98764e-08 -2.53198e-10)
(-2.30768e-09 -6.23001e-08 -4.49594e-10)
(-5.19889e-09 -8.34467e-08 -5.62558e-10)
(-8.15934e-09 -9.70815e-08 -6.16006e-10)
(-1.10903e-08 -1.05675e-07 -6.5169e-10)
(-1.35353e-08 -1.09388e-07 -6.80556e-10)
(-1.53762e-08 -1.09787e-07 -6.80237e-10)
(-1.65797e-08 -1.06862e-07 -6.67957e-10)
(-1.70644e-08 -1.02111e-07 -6.18775e-10)
(-1.70713e-08 -9.57202e-08 -5.55355e-10)
(-1.65418e-08 -8.8943e-08 -4.68138e-10)
(-1.57715e-08 -8.21e-08 -3.84595e-10)
(-1.47224e-08 -7.61959e-08 -3.01889e-10)
(-1.36228e-08 -7.14724e-08 -2.51743e-10)
(-1.23642e-08 -6.8426e-08 -2.21532e-10)
(-1.10025e-08 -6.69615e-08 -2.23019e-10)
(-9.41983e-09 -6.73434e-08 -2.49683e-10)
(-7.60707e-09 -6.9365e-08 -2.98062e-10)
(-5.59491e-09 -7.26948e-08 -3.68833e-10)
(-3.49025e-09 -7.68923e-08 -4.40834e-10)
(-1.37965e-09 -8.14874e-08 -4.99551e-10)
(5.75144e-10 -8.5816e-08 -5.37772e-10)
(2.21984e-09 -8.92337e-08 -5.52475e-10)
(3.40362e-09 -9.10807e-08 -5.46134e-10)
(4.04106e-09 -9.07611e-08 -5.09929e-10)
(4.10187e-09 -8.76957e-08 -4.55225e-10)
(3.61132e-09 -8.1222e-08 -3.7503e-10)
(2.66605e-09 -7.04664e-08 -2.93503e-10)
(1.4625e-09 -5.36278e-08 -1.83648e-10)
(2.48007e-10 -2.63416e-08 -4.9265e-11)
(-3.17262e-10 -2.74266e-08 -2.66684e-10)
(-2.48569e-09 -5.70974e-08 -4.8021e-10)
(-5.48328e-09 -7.63935e-08 -6.05221e-10)
(-8.61224e-09 -8.90211e-08 -6.7531e-10)
(-1.1666e-08 -9.70314e-08 -7.33023e-10)
(-1.4211e-08 -1.00796e-07 -7.80377e-10)
(-1.61266e-08 -1.015e-07 -7.99048e-10)
(-1.73296e-08 -9.93298e-08 -8.02442e-10)
(-1.77798e-08 -9.54442e-08 -7.75633e-10)
(-1.76433e-08 -9.01591e-08 -7.32428e-10)
(-1.69411e-08 -8.44797e-08 -6.67125e-10)
(-1.59073e-08 -7.87307e-08 -5.94331e-10)
(-1.45511e-08 -7.36689e-08 -5.1578e-10)
(-1.30504e-08 -6.95875e-08 -4.70264e-10)
(-1.13885e-08 -6.69669e-08 -4.53925e-10)
(-9.61889e-09 -6.57452e-08 -4.57557e-10)
(-7.64165e-09 -6.61149e-08 -4.83166e-10)
(-5.46968e-09 -6.79322e-08 -5.30233e-10)
(-3.15512e-09 -7.08443e-08 -5.91551e-10)
(-7.94439e-10 -7.44753e-08 -6.51468e-10)
(1.4733e-09 -7.84039e-08 -6.95946e-10)
(3.47392e-09 -8.20811e-08 -7.21651e-10)
(5.03864e-09 -8.49429e-08 -7.19391e-10)
(6.02253e-09 -8.63784e-08 -6.92001e-10)
(6.33383e-09 -8.58179e-08 -6.36112e-10)
(5.96402e-09 -8.2727e-08 -5.68938e-10)
(4.98081e-09 -7.65074e-08 -4.8511e-10)
(3.53595e-09 -6.62955e-08 -3.93459e-10)
(1.86703e-09 -5.03674e-08 -2.67415e-10)
(2.92371e-10 -2.46461e-08 -9.92568e-11)
(-3.26051e-10 -2.43939e-08 -2.79639e-10)
(-2.72229e-09 -5.09931e-08 -5.11492e-10)
(-5.93877e-09 -6.83453e-08 -6.49238e-10)
(-9.33046e-09 -7.98693e-08 -7.2889e-10)
(-1.26227e-08 -8.72719e-08 -7.99791e-10)
(-1.53893e-08 -9.10064e-08 -8.63473e-10)
(-1.74793e-08 -9.19895e-08 -9.09259e-10)
(-1.8767e-08 -9.0505e-08 -9.3899e-10)
(-1.92292e-08 -8.74585e-08 -9.4024e-10)
(-1.89774e-08 -8.32185e-08 -9.21709e-10)
(-1.8079e-08 -7.85953e-08 -8.8058e-10)
(-1.67217e-08 -7.39361e-08 -8.31218e-10)
(-1.49564e-08 -6.97967e-08 -7.76187e-10)
(-1.29411e-08 -6.63938e-08 -7.37617e-10)
(-1.07269e-08 -6.41652e-08 -7.22768e-10)
(-8.39237e-09 -6.31498e-08 -7.18596e-10)
(-5.86732e-09 -6.34743e-08 -7.41135e-10)
(-3.20195e-09 -6.5014e-08 -7.86391e-10)
(-4.84559e-10 -6.74271e-08 -8.35917e-10)
(2.16472e-09 -7.04306e-08 -8.82973e-10)
(4.58572e-09 -7.36855e-08 -9.12094e-10)
(6.60512e-09 -7.67179e-08 -9.20278e-10)
(8.04432e-09 -7.90261e-08 -8.96852e-10)
(8.76982e-09 -8.00646e-08 -8.48741e-10)
(8.70507e-09 -7.9307e-08 -7.74794e-10)
(7.8707e-09 -7.62424e-08 -6.91174e-10)
(6.35754e-09 -7.03267e-08 -5.97768e-10)
(4.38076e-09 -6.08053e-08 -5.00125e-10)
(2.23919e-09 -4.61128e-08 -3.5752e-10)
(3.262e-10 -2.24986e-08 -1.52861e-10)
(-3.48616e-10 -2.13086e-08 -3.04703e-10)
(-2.95523e-09 -4.46042e-08 -5.51755e-10)
(-6.41517e-09 -5.98907e-08 -7.00586e-10)
(-1.00971e-08 -7.01657e-08 -7.93198e-10)
(-1.36768e-08 -7.68405e-08 -8.82582e-10)
(-1.67204e-08 -8.03809e-08 -9.66008e-10)
(-1.90484e-08 -8.1511e-08 -1.0375e-09)
(-2.04918e-08 -8.05547e-08 -1.09436e-09)
(-2.10159e-08 -7.8232e-08 -1.1276e-09)
(-2.06836e-08 -7.49108e-08 -1.13967e-09)
(-1.95811e-08 -7.12374e-08 -1.12737e-09)
(-1.78718e-08 -6.7533e-08 -1.10242e-09)
(-1.5655e-08 -6.42266e-08 -1.07566e-09)
(-1.30735e-08 -6.14907e-08 -1.04976e-09)
(-1.02267e-08 -5.966e-08 -1.03854e-09)
(-7.24478e-09 -5.88383e-08 -1.03428e-09)
(-4.10142e-09 -5.91064e-08 -1.05438e-09)
(-8.91598e-10 -6.03356e-08 -1.08699e-09)
(2.26547e-09 -6.2245e-08 -1.11489e-09)
(5.22351e-09 -6.4634e-08 -1.14124e-09)
(7.79884e-09 -6.72309e-08 -1.14538e-09)
(9.81131e-09 -6.9637e-08 -1.12648e-09)
(1.10848e-08 -7.14227e-08 -1.07632e-09)
(1.15054e-08 -7.21111e-08 -1.00355e-09)
(1.10193e-08 -7.12306e-08 -9.07511e-10)
(9.69328e-09 -6.8313e-08 -8.04603e-10)
(7.65507e-09 -6.28541e-08 -6.96728e-10)
(5.17338e-09 -5.41973e-08 -5.9207e-10)
(2.58662e-09 -4.09892e-08 -4.3715e-10)
(3.5827e-10 -1.99282e-08 -2.00185e-10)
(-3.63361e-10 -1.78467e-08 -3.22704e-10)
(-3.14428e-09 -3.75683e-08 -5.84591e-10)
(-6.81647e-09 -5.06485e-08 -7.41997e-10)
(-1.07715e-08 -5.95421e-08 -8.42046e-10)
(-1.46433e-08 -6.53785e-08 -9.44459e-10)
(-1.79845e-08 -6.85964e-08 -1.04416e-09)
(-2.05773e-08 -6.97686e-08 -1.13839e-09)
(-2.22121e-08 -6.9215e-08 -1.22151e-09)
(-2.28321e-08 -6.75105e-08 -1.28636e-09)
(-2.24586e-08 -6.49948e-08 -1.33021e-09)
(-2.11771e-08 -6.21771e-08 -1.35043e-09)
(-1.91287e-08 -5.9325e-08 -1.35748e-09)
(-1.6455e-08 -5.6763e-08 -1.35793e-09)
(-1.33225e-08 -5.46513e-08 -1.34717e-09)
(-9.84791e-09 -5.32267e-08 -1.34018e-09)
(-6.20113e-09 -5.25735e-08 -1.34017e-09)
(-2.4416e-09 -5.27576e-08 -1.35653e-09)
(1.31317e-09 -5.36813e-08 -1.37085e-09)
(4.90365e-09 -5.51371e-08 -1.37589e-09)
(8.14256e-09 -5.6966e-08 -1.37749e-09)
(1.08331e-08 -5.89644e-08 -1.35385e-09)
(1.27994e-08 -6.08109e-08 -1.30597e-09)
(1.38735e-08 -6.21496e-08 -1.22862e-09)
(1.39685e-08 -6.25719e-08 -1.13187e-09)
(1.30603e-08 -6.16671e-08 -1.01642e-09)
(1.12625e-08 -5.90174e-08 -8.98179e-10)
(8.74234e-09 -5.41748e-08 -7.75346e-10)
(5.82193e-09 -4.65711e-08 -6.61187e-10)
(2.86745e-09 -3.50863e-08 -4.9573e-10)
(3.85589e-10 -1.69778e-08 -2.36768e-10)
(-3.74763e-10 -1.42876e-08 -3.34134e-10)
(-3.24309e-09 -3.03013e-08 -6.03705e-10)
(-7.03482e-09 -4.10583e-08 -7.68426e-10)
(-1.11796e-08 -4.84518e-08 -8.72467e-10)
(-1.52809e-08 -5.33423e-08 -9.84256e-10)
(-1.888e-08 -5.6106e-08 -1.09547e-09)
(-2.17216e-08 -5.71942e-08 -1.20884e-09)
(-2.35543e-08 -5.68992e-08 -1.31546e-09)
(-2.42903e-08 -5.56777e-08 -1.40979e-09)
(-2.39107e-08 -5.38242e-08 -1.48522e-09)
(-2.24876e-08 -5.17316e-08 -1.53899e-09)
(-2.0156e-08 -4.9602e-08 -1.57867e-09)
(-1.70945e-08 -4.76971e-08 -1.60217e-09)
(-1.34829e-08 -4.61447e-08 -1.60753e-09)
(-9.45806e-09 -4.50939e-08 -1.60725e-09)
(-5.22245e-09 -4.45753e-08 -1.61009e-09)
(-9.28593e-10 -4.46633e-08 -1.61611e-09)
(3.28454e-09 -4.53058e-08 -1.613e-09)
(7.22032e-09 -4.63658e-08 -1.59504e-09)
(1.06753e-08 -4.77156e-08 -1.56712e-09)
(1.34312e-08 -4.91972e-08 -1.51479e-09)
(1.53108e-08 -5.05684e-08 -1.4375e-09)
(1.61633e-08 -5.15458e-08 -1.33449e-09)
(1.59339e-08 -5.17918e-08 -1.21621e-09)
(1.46327e-08 -5.09593e-08 -1.08437e-09)
(1.24214e-08 -4.86891e-08 -9.54555e-10)
(9.50673e-09 -4.45981e-08 -8.22257e-10)
(6.25049e-09 -3.82108e-08 -7.00319e-10)
(3.03887e-09 -2.86433e-08 -5.28761e-10)
(3.98186e-10 -1.37685e-08 -2.60047e-10)
(-3.66305e-10 -1.06242e-08 -3.26707e-10)
(-3.20104e-09 -2.28755e-08 -5.90922e-10)
(-6.97928e-09 -3.12529e-08 -7.52025e-10)
(-1.11788e-08 -3.70694e-08 -8.51981e-10)