/*--------------------------------*- C++ -*----------------------------------*\
| =========                 |                                                 |
| \\      /  F ield         | OpenFOAM: The Open Source CFD Toolbox           |
|  \\    /   O peration     | Version:  v1906                                 |
|   \\  /    A nd           | Web:      www.OpenFOAM.com                      |
|    \\/     M anipulation  |                                                 |
\*---------------------------------------------------------------------------*/
FoamFile
{
    version     2.0;
    format      ascii;
    class       volScalarField;
    location    "5/oil";
    object      heatTransferCoeff(T);
}
// * * * * * * * * * * * * * * * * * * * * * * * * * * * * * * * * * * * * * //

dimensions      [1 0 -3 -1 0 0 0];


internalField   uniform 0;

boundaryField
{
    maxY
    {
        type            calculated;
        value           uniform 0;
    }
    minX
    {
        type            calculated;
        value           uniform 0;
    }
    maxX
    {
        type            calculated;
        value           uniform 0;
    }
    minY
    {
        type            calculated;
        value           uniform 0;
    }
    minZ
    {
        type            calculated;
        value           uniform 0;
    }
    maxZ
    {
        type            calculated;
        value           uniform 0;
    }
    oil_to_sphere
    {
        type            calculated;
        value           nonuniform List<scalar> 
360
(
-64.4559
-64.8178
-45.4685
-105.89
-111.937
-52.6286
-114.487
-103.32
-111.222
-63.7181
-64.059
-52.6509
-58.217
-40.9658
-62.6354
-98.7143
-114.007
-105.64
-110.508
-40.938
-93.0849
-63.9915
-56.9903
-108.919
-45.5604
-112.363
-52.5376
-110.754
-109.923
-103.946
-117.662
-115.45
-45.6364
-45.1324
-52.157
-52.3607
-109.633
-108.834
-105.9
-107.816
-109.897
-45.5797
-52.0487
-66.1314
-66.2848
-52.4211
-57.9735
-40.6148
-63.7084
-102.91
-52.7625
-52.5698
-57.7263
-57.965
-40.6504
-64.3351
-105.709
-40.962
-52.2921
-57.9445
-41.0438
-110.53
-104.972
-109.558
-40.6315
-95.4371
-64.3085
-55.3195
-114.808
-109.112
-105.14
-108.161
-108.061
-40.5559
-83.1605
-62.5098
-41.1044
-54.7666
-108.665
-111.657
-55.9852
-55.1382
-55.2081
-41.0268
-45.2902
-52.2271
-52.459
-58.0903
-40.8588
-41.2559
-45.4334
-58.0165
-52.4752
-45.4045
-57.7707
-52.3439
-52.3975
-52.4521
-45.3234
-41.2911
-41.3059
-40.7358
-52.6549
-52.7427
-58.1458
-40.7378
-41.1231
-58.3246
-45.4265
-52.5408
-52.5905
-52.4872
-45.3674
-40.7677
-41.444
-41.3938
-56.4504
-56.3099
-56.065
-65.6371
-65.7459
-102.26
-108.938
-97.9085
-109.16
-101.968
-109.497
-110.914
-103.072
-107.706
-105.889
-56.0335
-55.8609
-55.8592
-41.3535
-100.921
-109.887
-64.4471
-64.6006
-110.324
-101.938
-63.2609
-62.3199
-111.91
-102.657
-118.301
-41.3216
-41.2847
-107.723
-110.36
-117.743
-111.436
-111.471
-116.245
-117.852
-104.586
-62.1603
-111.423
-106.164
-40.9782
-110.685
-113.518
-54.8372
-54.1337
-56.2488
-63.4476
-64.1868
-112.212
-103.243
-116.741
-40.6445
-106.823
-64.3893
-110.961
-105.983
-40.6717
-114.383
-55.6472
-55.5932
-41.2198
-52.4676
-52.6436
-58.1857
-45.4435
-57.9234
-52.4356
-40.7236
-41.2307
-109.871
-103.024
-110.71
-106.486
-65.7082
-65.7547
-109.123
-99.8194
-107.317
-64.555
-64.9454
-41.2275
-52.299
-52.8757
-58.16
-52.5813
-52.3248
-58.3274
-45.4212
-57.874
-52.1951
-45.0638
-103.436
-58.2657
-52.2516
-41.0241
-108.287
-102.546
-108.278
-65.7152
-65.7168
-40.6657
-52.3224
-52.4297
-57.9202
-111.023
-45.1935
-57.6619
-52.2519
-105.192
-105.415
-65.3309
-40.8464
-64.8259
-40.9176
-41.439
-57.8847
-45.4503
-52.4833
-52.3606
-52.6447
-45.3259
-40.9252
-104.715
-100.272
-110.25
-115.578
-105.587
-99.8322
-112.163
-113.985
-64.4841
-106.768
-41.3411
-111.968
-110.979
-111.524
-57.6944
-45.5026
-52.5956
-57.934
-45.7514
-111.349
-52.3052
-52.1296
-52.5766
-45.3009
-112.818
-105.498
-52.2162
-52.2586
-45.3119
-105.083
-117.085
-64.1181
-106.205
-41.0356
-110.707
-108.796
-111.589
-58.214
-45.3397
-110.061
-52.194
-52.3246
-52.1342
-109.127
-45.5308
-107.72
-64.9921
-100.086
-65.3129
-104.715
-107.491
-108.72
-40.7241
-54.6242
-53.7125
-54.2167
-66.2148
-109.444
-66.0351
-105.989
-109.141
-41.0923
-110.224
-111.674
-64.1846
-107.006
-41.2329
-117.676
-55.3427
-55.0682
-40.3634
-106.272
-64.8095
-94.484
-106.669
-64.7488
-40.7777
-52.2205
-52.3654
-58.1174
-109.578
-101.407
-63.5778
-41.3149
-102.333
-64.5735
-40.9796
-104.589
-110.498
-63.3291
-106.645
-40.3042
-115.187
-58.3964
-114.272
-45.3186
-52.5156
-114.23
-107.793
-104.642
-63.7975
-111.078
-110.273
-64.3038
-105.518
-54.5406
-55.8283
-104.167
-64.4609
-40.796
-103.883
-64.6109
-41.1518
-107.629
-108.417
-102.374
-64.857
-105.973
-65.0092
)
;
    }
}


// ************************************************************************* //
