/*--------------------------------*- C++ -*----------------------------------*\
| =========                 |                                                 |
| \\      /  F ield         | OpenFOAM: The Open Source CFD Toolbox           |
|  \\    /   O peration     | Version:  v1906                                 |
|   \\  /    A nd           | Web:      www.OpenFOAM.com                      |
|    \\/     M anipulation  |                                                 |
\*---------------------------------------------------------------------------*/
FoamFile
{
    version     2.0;
    format      ascii;
    class       volScalarField;
    location    "74";
    object      k;
}
// * * * * * * * * * * * * * * * * * * * * * * * * * * * * * * * * * * * * * //

dimensions      [0 2 -2 0 0 0 0];


internalField   nonuniform List<scalar> 
78750
(
4.97254e-07
3.36856e-06
6.67919e-06
1.01771e-05
1.37421e-05
1.72782e-05
2.07116e-05
2.3985e-05
2.70544e-05
2.98866e-05
3.24582e-05
3.47539e-05
3.6765e-05
3.84736e-05
3.98786e-05
4.09801e-05
4.17784e-05
4.22733e-05
4.24637e-05
4.23474e-05
4.19209e-05
4.11834e-05
4.01182e-05
3.8716e-05
3.6973e-05
3.48888e-05
3.24644e-05
2.97112e-05
2.66522e-05
2.3306e-05
1.96638e-05
1.5682e-05
1.13452e-05
6.76617e-06
2.18159e-06
1.70858e-06
1.34664e-05
2.43835e-05
3.45996e-05
4.41044e-05
5.2832e-05
6.07084e-05
6.76922e-05
7.3775e-05
7.89717e-05
8.33124e-05
8.68332e-05
8.95658e-05
9.15885e-05
9.29686e-05
9.37465e-05
9.39593e-05
9.36421e-05
9.28262e-05
9.15382e-05
8.97971e-05
8.76124e-05
8.49702e-05
8.18541e-05
7.82419e-05
7.41235e-05
6.94814e-05
6.42507e-05
5.83663e-05
5.17621e-05
4.42975e-05
3.58302e-05
2.66923e-05
1.77779e-05
9.8937e-06
3.01712e-06
2.03317e-05
3.66328e-05
5.15147e-05
6.45511e-05
7.55802e-05
8.4672e-05
9.20036e-05
9.77711e-05
0.000102157
0.000105324
0.000107413
0.000108555
0.000108873
0.000108461
0.000107409
0.000105804
0.000103737
0.000101299
9.85866e-05
9.56877e-05
9.26553e-05
8.9511e-05
8.62501e-05
8.28202e-05
7.91237e-05
7.50315e-05
7.03992e-05
6.50708e-05
5.88491e-05
5.14714e-05
4.28335e-05
3.36328e-05
2.46187e-05
1.66489e-05
4.76247e-06
2.87039e-05
5.08255e-05
7.01002e-05
8.57576e-05
9.78918e-05
0.000107103
0.000113994
0.000118997
0.000122424
0.00012449
0.000125352
0.000125138
0.000123973
0.000121966
0.000119221
0.000115849
0.000111976
0.000107739
0.000103292
9.88013e-05
9.44303e-05
9.03114e-05
8.65015e-05
8.29486e-05
7.94955e-05
7.59118e-05
7.19374e-05
6.73015e-05
6.17013e-05
5.48347e-05
4.67305e-05
3.83033e-05
2.99228e-05
2.20566e-05
6.7725e-06
3.56087e-05
6.16642e-05
8.33688e-05
9.99012e-05
0.000111908
0.000120559
0.00012676
0.000131049
0.000133701
0.000134891
0.000134778
0.000133473
0.000131059
0.000127627
0.000123292
0.000118204
0.000112549
0.000106546
0.000100449
9.4548e-05
8.9146e-05
8.44795e-05
8.06329e-05
7.75279e-05
7.49422e-05
7.25397e-05
6.99204e-05
6.66621e-05
6.23357e-05
5.65928e-05
4.95413e-05
4.20252e-05
3.40962e-05
2.58505e-05
8.80495e-06
4.20203e-05
7.1622e-05
9.56593e-05
0.000113315
0.000125714
0.000134446
0.000140624
0.000144759
0.000147085
0.00014781
0.000147048
0.000144856
0.000141302
0.000136489
0.000130577
0.000123781
0.000116363
0.000108621
0.000100892
9.35577e-05
8.70117e-05
8.15168e-05
7.71399e-05
7.38099e-05
7.13365e-05
6.94066e-05
6.75977e-05
6.54075e-05
6.2291e-05
5.77858e-05
5.19037e-05
4.52491e-05
3.76347e-05
2.89546e-05
1.06472e-05
4.73103e-05
7.95909e-05
0.000105267
0.00012362
0.000136206
0.000144918
0.000150939
0.000154787
0.000156745
0.000156974
0.000155528
0.000152442
0.000147785
0.000141698
0.000134397
0.000126164
0.000117333
0.000108278
9.9427e-05
9.12685e-05
8.42371e-05
7.84921e-05
7.40095e-05
7.06936e-05
6.83829e-05
6.68214e-05
6.56342e-05
6.43195e-05
6.22704e-05
5.89106e-05
5.4101e-05
4.81766e-05
4.08053e-05
3.18925e-05
1.23531e-05
5.22493e-05
8.71599e-05
0.000114662
0.000134046
0.00014715
0.00015613
0.000162233
0.000166049
0.000167853
0.000167754
0.000165781
0.000161965
0.000156391
0.000149237
0.000140768
0.000131315
0.000121263
0.000111039
0.000101134
9.21168e-05
8.44388e-05
7.81778e-05
7.32627e-05
6.95942e-05
6.70476e-05
6.54374e-05
6.44691e-05
6.36913e-05
6.24745e-05
6.01206e-05
5.62748e-05
5.10182e-05
4.39207e-05
3.4966e-05
1.38484e-05
5.64254e-05
9.35083e-05
0.000122492
0.000142691
0.000156193
0.000165353
0.000171499
0.000175231
0.00017681
0.000176326
0.000173797
0.000169251
0.000162803
0.000154669
0.000145166
0.000134679
0.000123645
0.000112554
0.000101981
9.25821e-05
8.47242e-05
7.83473e-05
7.33141e-05
6.95035e-05
6.68119e-05
6.5117e-05
6.42178e-05
6.37508e-05
6.31174e-05
6.15448e-05
5.84912e-05
5.38174e-05
4.70273e-05
3.82292e-05
1.54601e-05
6.09281e-05
0.000100343
0.000130936
0.000152051
0.000166021
0.000175408
0.000181629
0.000185305
0.000186691
0.000185859
0.000182815
0.000177591
0.000170323
0.000161265
0.000150774
0.000139286
0.000127284
0.000115309
0.000104007
9.41226e-05
8.5982e-05
7.94285e-05
7.42581e-05
7.0309e-05
6.74693e-05
6.5648e-05
6.47147e-05
6.43965e-05
6.41547e-05
6.31851e-05
6.07898e-05
5.66425e-05
5.0182e-05
4.15944e-05
1.69144e-05
6.47591e-05
0.000106114
0.000138056
0.000159952
0.000174335
0.000183929
0.000190218
0.000193833
0.000195019
0.000193834
0.000190274
0.000184384
0.000176324
0.000166388
0.000154981
0.000142586
0.000129741
0.000117043
0.000105221
9.511e-05
8.69341e-05
8.04338e-05
7.53382e-05
7.14412e-05
6.86134e-05
6.67765e-05
6.58478e-05
6.56286e-05
6.56491e-05
6.51118e-05
6.32217e-05
5.95087e-05
5.33427e-05
4.49536e-05
1.86183e-05
6.91742e-05
0.000112674
0.000146029
0.000168681
0.000183434
0.000193197
0.000199519
0.000203043
0.000204002
0.000202442
0.000198353
0.000191787
0.00018293
0.00017211
0.000159775
0.000146453
0.000132729
0.000119253
0.000106828
9.63764e-05
8.80858e-05
8.16078e-05
7.65993e-05
7.28017e-05
7.00536e-05
6.82697e-05
6.73894e-05
6.72635e-05
6.74827e-05
6.72729e-05
6.57799e-05
6.24259e-05
5.65046e-05
4.82454e-05
2.01939e-05
7.29883e-05
0.000118274
0.000152827
0.000176148
0.000191253
0.000201198
0.000207577
0.000211037
0.000211799
0.000209893
0.000205306
0.000198103
0.000188495
0.000176847
0.000163647
0.000149469
0.000134946
0.000120783
0.000107865
9.72077e-05
8.89215e-05
8.25791e-05
7.777e-05
7.41867e-05
7.16338e-05
7.00109e-05
6.92625e-05
6.92666e-05
6.96559e-05
6.96875e-05
6.84839e-05
6.53954e-05
5.96345e-05
5.14083e-05
2.20048e-05
7.73091e-05
0.000124547
0.000160331
0.000184276
0.000199682
0.000209766
0.000216169
0.000219534
0.000220073
0.000217802
0.000212706
0.000204864
0.000194509
0.000182039
0.000167975
0.000152931
0.000137581
0.000122678
0.000109177
9.81929e-05
8.98227e-05
8.35586e-05
7.89307e-05
7.55785e-05
7.32653e-05
7.18655e-05
7.13132e-05
7.14917e-05
7.20552e-05
7.22863e-05
7.13014e-05
6.84046e-05
6.27271e-05
5.44404e-05
2.37127e-05
8.11464e-05
0.000130038
0.000166881
0.000191392
0.000207099
0.000217345
0.000223803
0.000227111
0.000227466
0.000224872
0.000219315
0.000210887
0.000199847
0.000186619
0.000171759
0.000155915
0.000139804
0.000124224
0.0001102
9.89476e-05
9.0541e-05
8.44036e-05
8.00036e-05
7.69339e-05
7.49217e-05
7.3813e-05
7.35228e-05
7.3924e-05
7.46734e-05
7.50698e-05
7.42365e-05
7.1453e-05
6.57696e-05
5.73228e-05
2.55957e-05
8.53287e-05
0.000135983
0.000173905
0.00019895
0.000214924
0.000225308
0.000231801
0.000235038
0.000235198
0.00023228
0.00022627
0.000217274
0.000205572
0.000191611
0.000175973
0.000159333
0.000142442
0.000126141
0.000111511
9.98682e-05
9.1328e-05
8.52522e-05
8.10483e-05
7.82554e-05
7.65604e-05
7.57796e-05
7.57986e-05
7.64656e-05
7.74228e-05
7.7971e-05
7.72459e-05
7.45164e-05
6.87549e-05
6.00688e-05
2.74002e-05
8.91486e-05
0.000141341
0.000180215
0.000205755
0.000222002
0.000232547
0.000239106
0.000242304
0.000242308
0.000239107
0.000232693
0.000223187
0.000210886
0.00019626
0.000179912
0.00016254
0.000144921
0.000127946
0.000112742
0.000100718
9.20456e-05
8.60343e-05
8.20369e-05
7.95428e-05
7.81972e-05
7.77818e-05
7.81535e-05
7.91246e-05
8.03086e-05
8.09964e-05
8.03383e-05
7.76022e-05
7.16853e-05
6.26749e-05
2.93256e-05
9.31804e-05
0.000146972
0.000186808
0.000212826
0.00022933
0.000240026
0.000246643
0.000249797
0.000249645
0.000246169
0.00023937
0.000229382
0.000216519
0.000201264
0.000184234
0.00016614
0.000147788
0.000130103
0.000114255
0.000101733
9.28296e-05
8.68118e-05
8.29795e-05
8.07706e-05
7.97849e-05
7.97631e-05
8.05203e-05
8.18285e-05
8.32596e-05
8.40837e-05
8.34651e-05
8.06782e-05
7.45471e-05
6.51487e-05
3.11935e-05
9.69465e-05
0.000152176
0.00019289
0.000219366
0.000236139
0.000247006
0.000253706
0.000256842
0.000256561
0.000252846
0.000245706
0.00023529
0.000221927
0.000206112
0.000188467
0.000169715
0.000150682
0.000132316
0.000115832
0.000102784
9.3614e-05
8.7559e-05
8.38738e-05
8.19483e-05
8.13363e-05
8.17349e-05
8.29131e-05
8.45903e-05
8.62886e-05
8.72472e-05
8.66431e-05
8.37595e-05
7.73498e-05
6.74914e-05
3.31419e-05
0.00010083
0.000157527
0.000199126
0.000226059
0.0002431
0.000254136
0.000260912
0.000264024
0.000263613
0.000259668
0.000252209
0.000241399
0.000227578
0.000211247
0.000193028
0.000173647
0.000153939
0.00013487
0.000117692
0.000104011
9.44745e-05
8.8305e-05
8.47167e-05
8.30514e-05
8.28135e-05
8.36506e-05
8.52775e-05
8.73523e-05
8.93359e-05
9.04287e-05
8.98219e-05
8.68124e-05
8.00797e-05
6.97062e-05
3.5047e-05
0.000104514
0.000162564
0.000205001
0.000232398
0.000249731
0.000260957
0.00026782
0.000270914
0.000270387
0.000266236
0.000258495
0.000247342
0.000233127
0.00021635
0.000197627
0.000177683
0.00015735
0.000137603
0.00011972
0.000105358
9.53911e-05
8.90499e-05
8.55177e-05
8.40928e-05
8.42294e-05
8.55209e-05
8.76219e-05
9.01224e-05
9.24152e-05
9.36542e-05
9.30362e-05
8.98614e-05
8.2748e-05
7.17976e-05
3.70021e-05
0.000108242
0.000167651
0.000210942
0.000238828
0.000256482
0.000267899
0.000274824
0.000277873
0.000277216
0.000272862
0.000264864
0.000253408
0.000238848
0.000221678
0.000202506
0.000182043
0.000161111
0.000140684
0.000122054
0.000106918
9.64175e-05
8.9815e-05
8.6274e-05
8.50527e-05
8.55537e-05
8.73098e-05
8.99068e-05
9.28566e-05
9.54724e-05
9.6852e-05
9.62025e-05
9.28605e-05
8.53413e-05
7.37688e-05
3.89233e-05
0.000111805
0.000172482
0.000216605
0.00024503
0.000263101
0.000274726
0.000281659
0.000284628
0.000283836
0.000279303
0.000271086
0.00025938
0.000244538
0.000227046
0.000207499
0.000186587
0.000165113
0.000144036
0.000124655
0.000108691
9.7574e-05
9.06266e-05
8.70093e-05
8.59492e-05
8.67978e-05
8.90232e-05
9.21344e-05
9.55578e-05
9.85207e-05
0.000100066
9.94223e-05
9.58391e-05
8.78661e-05
7.56275e-05
4.08709e-05
0.000115357
0.000177275
0.00022222
0.000251219
0.000269613
0.000281446
0.000288467
0.000291342
0.000290422
0.000285728
0.000277325
0.000265412
0.00025034
0.000232585
0.000212724
0.000191422
0.000169455
0.000147755
0.000127615
0.000110768
9.89279e-05
9.15291e-05
8.77455e-05
8.67843e-05
8.79485e-05
9.06374e-05
9.42756e-05
9.81942e-05
0.000101527
0.000103259
0.000102665
9.88064e-05
9.03283e-05
7.7379e-05
4.27906e-05
0.000118776
0.000181856
0.000227571
0.000257109
0.000275833
0.000287892
0.000295034
0.000297896
0.000296849
0.000292015
0.000283462
0.000271389
0.000256145
0.000238192
0.000218089
0.000196471
0.000174077
0.000151808
0.000130932
0.000113186
0.00010053
9.25764e-05
8.85311e-05
8.75957e-05
8.90314e-05
9.21667e-05
9.63349e-05
0.000100765
0.000104496
0.00010647
0.000105933
0.000101825
9.27597e-05
7.90349e-05
4.47204e-05
0.000122159
0.000186381
0.000232875
0.000262892
0.000281915
0.000294191
0.000301466
0.000304354
0.000303187
0.000298238
0.000289568
0.00027738
0.000262013
0.000243922
0.00022364
0.000201774
0.000179022
0.00015624
0.000134663
0.000116018
0.00010245
9.38294e-05
8.94103e-05
8.84092e-05
9.00559e-05
9.36088e-05
9.83053e-05
0.000103266
0.000107438
0.000109728
0.00010923
0.000104863
9.5162e-05
8.06004e-05
4.66241e-05
0.000125412
0.000190713
0.000237995
0.000268421
0.000287731
0.000300236
0.000307667
0.000310615
0.000309377
0.000304344
0.000295591
0.000283326
0.000267887
0.000249715
0.000229321
0.000207278
0.000184242
0.000161018
0.000138797
0.000119282
0.000104737
9.53507e-05
9.04471e-05
8.92792e-05
9.10617e-05
9.49891e-05
0.000100201
0.000105707
0.000110353
0.000112998
0.000112544
0.000107907
9.7533e-05
8.20829e-05
4.85223e-05
0.000128589
0.000194908
0.000242932
0.000273764
0.000293364
0.000306105
0.00031371
0.00031675
0.000315506
0.000310376
0.000301554
0.000289245
0.00027378
0.000255581
0.000235137
0.000212986
0.000189739
0.000166146
0.000143343
0.000122993
0.000107422
9.71834e-05
9.1688e-05
9.02459e-05
9.20769e-05
9.63226e-05
0.000102026
0.000108078
0.000113219
0.000116244
0.000115848
0.000110938
9.98656e-05
8.34857e-05
5.03995e-05
0.000131668
0.000198947
0.000247676
0.000278891
0.000298773
0.000311748
0.000319529
0.000322675
0.000321455
0.000316254
0.000307402
0.000295096
0.000279653
0.000261483
0.000241048
0.000218854
0.000195469
0.000171583
0.000148269
0.000127134
0.000110524
9.93705e-05
9.31881e-05
9.1365e-05
9.31495e-05
9.76462e-05
0.000103807
0.000110404
0.000116057
0.000119474
0.000119138
0.000113949
0.000102158
8.48147e-05
5.22649e-05
0.000134666
0.000202852
0.000252251
0.000283832
0.000303992
0.000317205
0.000325174
0.000328441
0.000327264
0.00032202
0.000313168
0.000300896
0.000285515
0.000267417
0.000247044
0.000224869
0.000201416
0.000177313
0.000153563
0.000131703
0.00011406
0.000101948
9.49938e-05
9.26826e-05
9.43169e-05
9.89833e-05
0.000105549
0.000112663
0.000118817
0.000122645
0.000122387
0.000116924
0.000104402
8.60725e-05
5.41121e-05
0.000137585
0.000206627
0.000256654
0.000288579
0.000309005
0.000322452
0.000330611
0.00033401
0.000332894
0.000327634
0.000318811
0.000306607
0.000291324
0.000273342
0.00025308
0.000230984
0.000207529
0.000183287
0.000159183
0.000136671
0.000118031
0.000104944
9.71529e-05
9.42553e-05
9.56334e-05
0.00010038
0.000107293
0.000114903
0.00012159
0.000125785
0.000125596
0.000119857
0.000106597
8.72637e-05
5.5945e-05
0.000140433
0.000210284
0.000260898
0.000293144
0.000313826
0.000327507
0.000335862
0.000339405
0.000338373
0.000333124
0.000324352
0.00031224
0.000297084
0.000279254
0.000259148
0.000237183
0.000213792
0.000189484
0.00016511
0.000142028
0.000122447
0.000108383
9.97034e-05
9.61283e-05
9.7142e-05
0.000101871
0.000109061
0.000117137
0.000124356
0.000128891
0.00012876
0.000122743
0.00010874
8.83922e-05
5.77626e-05
0.000143222
0.000213844
0.000264989
0.000297524
0.000318447
0.000332354
0.000340904
0.0003446
0.000343671
0.00033847
0.000329757
0.000317753
0.000302751
0.000285106
0.000265199
0.000243414
0.000220147
0.000195849
0.00017129
0.000147731
0.000127293
0.000112279
0.000102681
9.83514e-05
9.88962e-05
0.000103503
0.000110892
0.000119386
0.000127114
0.000131966
0.000131881
0.000125581
0.000110832
8.9462e-05
5.95669e-05
0.000145951
0.000217342
0.00026893
0.00030172
0.000322872
0.000337
0.000345747
0.000349602
0.000348793
0.00034368
0.000335025
0.000323145
0.000308323
0.000290897
0.000271226
0.000249668
0.00022658
0.00020236
0.000177702
0.000153765
0.000132566
0.000116643
0.000106116
0.000100965
0.000100939
0.000105316
0.000112812
0.000121664
0.000129863
0.000135007
0.000134955
0.000128369
0.000112873
9.04788e-05
6.13443e-05
0.000148588
0.000220711
0.000272695
0.000305722
0.000327093
0.000341437
0.000350376
0.000354388
0.000353697
0.000348677
0.000340104
0.000328374
0.000313759
0.00029658
0.000277179
0.000255888
0.000233031
0.000208954
0.000184282
0.000160073
0.000138235
0.000121466
0.000110022
0.000104007
0.000103318
0.000107354
0.000114858
0.000123992
0.000132613
0.000138018
0.000137984
0.000131107
0.000114866
9.14478e-05
6.3087e-05
0.000151122
0.000223927
0.000276288
0.000309541
0.00033112
0.000345672
0.000354802
0.000358973
0.000358411
0.000353498
0.000345023
0.000333462
0.000319072
0.000302164
0.00028306
0.000262069
0.000239487
0.000215612
0.000191003
0.000166626
0.000144274
0.000126737
0.000114408
0.000107501
0.00010607
0.000109656
0.00011706
0.000126391
0.000135372
0.000141
0.000140968
0.000133795
0.000116813
9.23752e-05
6.48092e-05
0.000153582
0.000227027
0.000279721
0.00031317
0.000334944
0.000349698
0.000359013
0.000363337
0.000362897
0.00035809
0.000349735
0.000338366
0.000324224
0.00030761
0.000288829
0.00026817
0.000245899
0.000222279
0.000197806
0.000173361
0.000150627
0.000132416
0.00011926
0.00011146
0.000109227
0.000112261
0.000119454
0.000128887
0.000138158
0.000143965
0.000143913
0.000136439
0.000118719
9.32677e-05
6.65056e-05
0.000155952
0.000229988
0.000282983
0.000316614
0.000338576
0.000353526
0.000363024
0.000367505
0.000367195
0.000362504
0.000354269
0.000343095
0.000329224
0.000312923
0.000294485
0.000274184
0.000252258
0.000228936
0.000204662
0.000180237
0.00015724
0.000138461
0.000124551
0.000115881
0.000112805
0.000115196
0.000122065
0.000131498
0.000140979
0.000146918
0.000146823
0.000139042
0.000120589
9.4133e-05
6.81774e-05
0.000158251
0.000232825
0.000286079
0.000319868
0.000342002
0.000357138
0.00036681
0.000371441
0.000371259
0.00036669
0.000358595
0.000347632
0.000334029
0.000318062
0.00029999
0.000280068
0.000258516
0.00023553
0.000211511
0.000187188
0.000164042
0.000144812
0.000130243
0.00012075
0.000116816
0.000118492
0.000124932
0.000134256
0.000143858
0.000149874
0.000149707
0.00014161
0.000122429
9.49773e-05
6.98234e-05
0.00016046
0.000235523
0.000289008
0.00032294
0.000345236
0.000360551
0.000370392
0.000375169
0.000375114
0.000370672
0.000362726
0.000351985
0.000338668
0.000323034
0.000305342
0.00028582
0.000264666
0.000242048
0.000218329
0.000194175
0.00017098
0.000151415
0.000136288
0.000126039
0.000121255
0.000122161
0.000128075
0.000137182
0.000146813
0.000152843
0.000152574
0.00014415
0.000124245
9.58079e-05
7.14432e-05
0.000162588
0.000238092
0.000291769
0.00032582
0.000348263
0.000363744
0.000373744
0.000378661
0.000378729
0.000374414
0.000366628
0.00035612
0.000343099
0.000327811
0.000310503
0.000291395
0.000270659
0.000248438
0.00022506
0.000201139
0.000177989
0.000158208
0.000142636
0.000131713
0.000126112
0.000126215
0.000131517
0.0001403
0.000149861
0.000155841
0.000155434
0.00014667
0.000126041
9.66289e-05
7.30433e-05
0.000164641
0.000240537
0.000294373
0.000328526
0.000351103
0.00036674
0.00037689
0.000381939
0.000382126
0.000377939
0.00037032
0.000360052
0.000347333
0.000332401
0.000315485
0.000296794
0.00027649
0.000254687
0.000231684
0.000208047
0.000185025
0.000165142
0.000149237
0.000137733
0.000131364
0.000130654
0.000135277
0.000143637
0.000153029
0.000158888
0.000158303
0.000149179
0.000127826
9.7444e-05
7.46155e-05
0.000166605
0.000242843
0.000296805
0.000331036
0.000353732
0.000369514
0.000379803
0.000384975
0.000385275
0.000381216
0.000373771
0.000363748
0.000351338
0.000336766
0.00032025
0.000301984
0.000282117
0.000260753
0.000238152
0.000214847
0.000192029
0.000172158
0.000156032
0.000144051
0.000136981
0.00013547
0.000139363
0.000147207
0.000156333
0.000161996
0.000161187
0.000151683
0.0001296
9.82543e-05
7.61671e-05
0.000168496
0.000245033
0.000299088
0.000333379
0.00035618
0.000372094
0.000382512
0.000387798
0.000388204
0.000384271
0.000377005
0.00036723
0.000355132
0.000340921
0.000324807
0.000306969
0.000287544
0.000266619
0.000244451
0.000221514
0.000198966
0.000179209
0.000162974
0.00015062
0.00014293
0.000140649
0.000143785
0.00015104
0.000159806
0.000165192
0.000164109
0.000154195
0.00013137
9.9061e-05
7.76889e-05
0.000170296
0.000247082
0.000301196
0.000335526
0.000358418
0.00037445
0.000384987
0.000390376
0.000390882
0.000387074
0.000379991
0.00037047
0.000358685
0.000344838
0.000329126
0.000311718
0.000292737
0.000272259
0.000250523
0.000227999
0.000205785
0.000186242
0.000170004
0.000157384
0.000149163
0.000146157
0.000148525
0.000155128
0.00016345
0.000168485
0.000167076
0.000156719
0.000133137
9.98627e-05
7.91915e-05
0.000172029
0.000249022
0.000303164
0.000337514
0.000360481
0.00037662
0.000387262
0.000392745
0.000393342
0.000389655
0.000382759
0.000373492
0.000362018
0.000348532
0.000333219
0.000316238
0.0002977
0.000277672
0.000256378
0.000234278
0.000212452
0.000193213
0.000177074
0.000164296
0.000155641
0.000151975
0.000153585
0.000159493
0.000167293
0.000171898
0.000170105
0.000159267
0.000134906
0.000100658
8.0663e-05
0.000173668
0.000250819
0.000304958
0.000339307
0.000362335
0.000378569
0.000389305
0.000394871
0.000395554
0.000391987
0.000385282
0.000376271
0.00036511
0.000351983
0.000337065
0.000320506
0.00030241
0.000282832
0.000261991
0.000240336
0.00021894
0.000200082
0.000184133
0.000171299
0.000162309
0.000158055
0.000158931
0.000164113
0.00017133
0.000175435
0.000173202
0.000161842
0.000136677
0.000101446
8.2114e-05
0.000175241
0.000252512
0.000306617
0.000340947
0.000364022
0.000380337
0.000391156
0.000396795
0.000397555
0.000394103
0.000387593
0.000378838
0.000367986
0.000355213
0.000340684
0.00032454
0.000306878
0.000287748
0.000267362
0.000246169
0.000225242
0.000206836
0.000191151
0.000178351
0.000169122
0.00016436
0.000164544
0.000168995
0.000175567
0.000179106
0.000176379
0.000164454
0.000138456
0.000102228
8.35313e-05
0.00017672
0.000254064
0.000308105
0.000342397
0.000365506
0.000381891
0.000392782
0.000398485
0.000399315
0.00039598
0.000389669
0.000381172
0.000370629
0.000358206
0.000344061
0.000328326
0.000311092
0.000292404
0.000272477
0.00025176
0.000231336
0.00021343
0.000198085
0.000185405
0.00017603
0.000170848
0.000170397
0.000174141
0.000180007
0.000182913
0.000179638
0.000167104
0.000140241
0.000103003
8.49232e-05
0.000178132
0.000255512
0.000309464
0.000343701
0.000366829
0.000383273
0.000394225
0.000399981
0.000400875
0.000397653
0.000391545
0.000383306
0.000373069
0.000360991
0.000347222
0.000331887
0.000315072
0.000296821
0.000277351
0.000257123
0.00023724
0.00021988
0.000204926
0.000192436
0.000183001
0.000177483
0.000176462
0.000179523
0.000184646
0.000186861
0.000182986
0.0001698
0.000142042
0.000103777
8.62782e-05
0.00017945
0.000256822
0.000310656
0.000344821
0.000367958
0.000384449
0.000395453
0.000401254
0.000402207
0.000399099
0.0003932
0.000385222
0.00037529
0.000363553
0.000350155
0.000335214
0.000318813
0.000300995
0.000281986
0.000262262
0.00024296
0.000226176
0.000211653
0.00019941
0.000189989
0.000184217
0.000182695
0.000185106
0.000189465
0.000190945
0.000186425
0.000172543
0.000143859
0.00010455
8.76048e-05
0.0001807
0.000258031
0.000311721
0.000345799
0.000368933
0.000385462
0.000396508
0.000402346
0.000403352
0.000400356
0.00039467
0.000386953
0.000377323
0.000365923
0.000352888
0.000338332
0.000322337
0.000304947
0.0002864
0.000267197
0.000248517
0.000232327
0.000218264
0.000206315
0.00019697
0.000191017
0.00018906
0.000190857
0.000194446
0.000195158
0.000189954
0.000175339
0.000145698
0.000105328
8.88931e-05
0.00018186
0.000259106
0.000312626
0.000346602
0.000369722
0.000386281
0.000397361
0.00040323
0.000404286
0.000401405
0.000395938
0.000388485
0.000379157
0.000368089
0.000355412
0.000341236
0.000325641
0.000308677
0.000290595
0.00027193
0.000253911
0.000238329
0.000224747
0.000213122
0.000203902
0.000197838
0.000195514
0.000196745
0.000199568
0.000199491
0.000193572
0.000178189
0.000147562
0.000106113
9.01503e-05
0.00018295
0.000260079
0.000313406
0.000347266
0.000370364
0.000386944
0.000398052
0.000403946
0.000405049
0.000402284
0.000397042
0.000389853
0.000380822
0.000370081
0.000357754
0.00034395
0.000328747
0.000312203
0.000294587
0.000276472
0.000259147
0.000244183
0.000231098
0.000219828
0.00021078
0.000204654
0.000202019
0.00020273
0.000204803
0.000203928
0.000197274
0.000181095
0.000149454
0.000106907
9.13674e-05
0.000183949
0.000260919
0.000314029
0.00034776
0.000370827
0.000387424
0.000398555
0.000404471
0.000405622
0.000402977
0.000397967
0.000391045
0.000382311
0.000371892
0.000359911
0.000346472
0.000331655
0.000315528
0.00029838
0.000280824
0.000264219
0.000249885
0.000237311
0.000226416
0.000217571
0.000211428
0.000208543
0.00020878
0.000210128
0.000208455
0.00020105
0.000184051
0.000151371
0.00010771
9.25502e-05
0.000184877
0.000261657
0.000314527
0.000348118
0.000371148
0.000387756
0.000398906
0.000404843
0.000406044
0.000403524
0.000398751
0.000392094
0.000383652
0.00037355
0.000361906
0.000348823
0.000334386
0.00031867
0.000301989
0.000285002
0.000269135
0.000255438
0.000243384
0.000232881
0.000224268
0.000218154
0.000215051
0.000214857
0.000215508
0.000213048
0.000204889
0.000187051
0.000153314
0.000108523
9.36897e-05
0.000185714
0.000262263
0.00031487
0.00034831
0.000371297
0.000387913
0.000399082
0.000405041
0.000406298
0.000403912
0.000399386
0.000392997
0.000384844
0.000375053
0.00036374
0.000351008
0.000336945
0.000321637
0.000305423
0.000289013
0.0002739
0.000260847
0.000249318
0.000239216
0.000230854
0.000224801
0.000221528
0.000220949
0.000220931
0.000217697
0.000208782
0.000190094
0.00015528
0.000109344
9.47916e-05
0.000186478
0.000262764
0.00031509
0.000348367
0.000371306
0.000387927
0.000399114
0.0004051
0.00040642
0.000404178
0.000399905
0.000393781
0.000385912
0.000376423
0.000365433
0.000353045
0.000339349
0.000324445
0.0003087
0.000292876
0.000278529
0.000266122
0.000255122
0.000245426
0.000237329
0.000231358
0.000227947
0.000227008
0.00022636
0.000222377
0.000212715
0.000193173
0.000157271
0.000110173
9.58481e-05
0.00018715
0.000263136
0.000315157
0.000348263
0.000371148
0.000387773
0.00039898
0.000405
0.000406399
0.000404321
0.000400306
0.000394446
0.000386855
0.000377664
0.000366991
0.00035494
0.000341607
0.000327106
0.000311834
0.000296605
0.000283031
0.000271271
0.0002608
0.000251513
0.000243688
0.000237817
0.000234299
0.000233047
0.000231788
0.000227083
0.000216687
0.00019629
0.000159295
0.000111008
9.68649e-05
0.00018775
0.000263404
0.0003151
0.000348024
0.000370851
0.000387477
0.000398703
0.000404764
0.000406264
0.000404387
0.000400618
0.000395012
0.000387693
0.000378793
0.000368431
0.000356712
0.000343739
0.000329639
0.000314844
0.000300227
0.000287424
0.000276307
0.00026636
0.000257481
0.000249931
0.000244171
0.000240567
0.000239031
0.000237192
0.000231783
0.00022067
0.000199424
0.000161338
0.000111837
9.78363e-05
0.000188261
0.000263547
0.000314897
0.000347628
0.00037039
0.000387016
0.000398264
0.000404371
0.000405985
0.000404343
0.000400818
0.000395471
0.000388427
0.000379819
0.000369765
0.000358376
0.000345762
0.000332068
0.000317764
0.000303782
0.000291738
0.000281249
0.000271815
0.000263338
0.000256063
0.000250423
0.000246751
0.00024496
0.000242571
0.000236484
0.000224663
0.000202571
0.000163388
0.000112662
9.87693e-05
0.000188703
0.000263591
0.000314572
0.000347097
0.000369789
0.000386411
0.000397682
0.000403843
0.000405584
0.000404194
0.00040093
0.00039585
0.000389083
0.000380763
0.000371014
0.000359952
0.000347696
0.000334418
0.000320624
0.000307316
0.000296004
0.000286119
0.000277179
0.000269089
0.000262082
0.000256563
0.000252835
0.000250811
0.000247899
0.000241161
0.000228649
0.000205712
0.000165432
0.000113485
9.96596e-05
0.000189064
0.000263517
0.000314104
0.00034641
0.000369025
0.00038564
0.000396935
0.000403157
0.000405042
0.000403928
0.000400941
0.000396142
0.000389659
0.000381632
0.000372188
0.000361452
0.000349559
0.000336706
0.000323447
0.000310856
0.000300246
0.000290937
0.000282467
0.000274747
0.000268
0.000262602
0.000258828
0.000256589
0.000253176
0.000245809
0.00023262
0.000208843
0.000167468
0.000114303
0.000100512
0.000189358
0.000263343
0.000313512
0.000345585
0.000368115
0.000384721
0.000396041
0.000402333
0.000404378
0.000403563
0.000400871
0.000396364
0.000390174
0.000382441
0.000373303
0.000362893
0.000351364
0.000338944
0.00032624
0.0003144
0.000304468
0.000295713
0.00028769
0.000280319
0.000273814
0.000268529
0.000264713
0.000262276
0.000258385
0.000250415
0.000236566
0.000211958
0.000169493
0.000115112
0.000101323
0.000189573
0.000263053
0.000312777
0.000344602
0.000367039
0.000383632
0.000394979
0.00040135
0.000403574
0.000403082
0.000400707
0.00039651
0.000390624
0.000383196
0.000374367
0.000364284
0.000353121
0.000341139
0.000329002
0.000317932
0.000308662
0.000300444
0.000292853
0.000285817
0.000279542
0.000274362
0.000270503
0.000267878
0.000263527
0.000254973
0.000240481
0.000215051
0.000171502
0.000115911
0.000102095
0.000189719
0.000262661
0.000311915
0.000343476
0.000365811
0.000382388
0.000393763
0.000400222
0.000402644
0.0004025
0.00040046
0.000396588
0.000391019
0.000383903
0.000375391
0.00036564
0.000354845
0.000343307
0.000331747
0.000321453
0.000312829
0.000305133
0.000297959
0.000291241
0.000285178
0.000280088
0.000276181
0.000273377
0.000268587
0.000259477
0.000244359
0.000218119
0.000173495
0.000116699
0.000102825
0.000189787
0.000262153
0.00031091
0.000342191
0.000364415
0.000380971
0.000392377
0.000398937
0.000401577
0.000401805
0.000400121
0.000396592
0.000391355
0.000384565
0.000376379
0.000366967
0.000356548
0.000345459
0.000334487
0.000324966
0.000316974
0.000309784
0.000303013
0.000296603
0.000290746
0.000285752
0.000281841
0.000278806
0.000273574
0.000263921
0.000248195
0.000221156
0.000175467
0.000117476
0.000103516
0.000189785
0.00026154
0.000309774
0.000340759
0.000362862
0.000379393
0.000390833
0.000397505
0.000400383
0.000401006
0.000399696
0.000396524
0.000391634
0.000385184
0.000377337
0.000368278
0.000358246
0.000347622
0.000337254
0.000328494
0.000321111
0.000314408
0.000308024
0.00030191
0.000296254
0.000291357
0.000287453
0.000284172
0.000278494
0.000268311
0.000251988
0.000224162
0.000177419
0.00011824
0.000104164
0.000189704
0.000260811
0.000308495
0.000339167
0.00036114
0.000377642
0.00038912
0.000395923
0.000399063
0.000400101
0.000399179
0.00039638
0.000391853
0.000385758
0.000378267
0.000369576
0.000359952
0.000349815
0.00034008
0.000332055
0.000325255
0.000319016
0.000313002
0.000307172
0.000301711
0.000296911
0.000293011
0.000289476
0.000283351
0.000272646
0.000255739
0.000227137
0.000179351
0.000118994
0.000104773
0.000189551
0.000259974
0.000307082
0.000337424
0.000359256
0.000375724
0.000387246
0.0003942
0.000397636
0.000399098
0.000398572
0.000396157
0.000392007
0.000386286
0.000379171
0.000370872
0.000361681
0.000352066
0.000343006
0.00033568
0.000329426
0.000323619
0.000317951
0.00031239
0.000307116
0.000302412
0.000298518
0.000294724
0.000288154
0.000276935
0.000259452
0.000230083
0.000181264
0.000119737
0.000105338