/*--------------------------------*- C++ -*----------------------------------*\
| =========                 |                                                 |
| \\      /  F ield         | OpenFOAM: The Open Source CFD Toolbox           |
|  \\    /   O peration     | Version:  v1912                                 |
|   \\  /    A nd           | Website:  www.openfoam.com                      |
|    \\/     M anipulation  |                                                 |
\*---------------------------------------------------------------------------*/
FoamFile
{
    version     2.0;
    format      ascii;
    class       volScalarField;
    location    "314/oil";
    object      heatTransferCoeff(T);
}
// * * * * * * * * * * * * * * * * * * * * * * * * * * * * * * * * * * * * * //

dimensions      [1 0 -3 -1 0 0 0];


internalField   uniform 0;

boundaryField
{
    maxY
    {
        type            calculated;
        value           uniform 0;
    }
    minX
    {
        type            calculated;
        value           uniform 0;
    }
    maxX
    {
        type            calculated;
        value           uniform 0;
    }
    minY
    {
        type            calculated;
        value           uniform 0;
    }
    minZ
    {
        type            calculated;
        value           uniform 0;
    }
    maxZ
    {
        type            calculated;
        value           uniform 0;
    }
    oil_to_sphere
    {
        type            calculated;
        value           nonuniform List<scalar> 
1536
(
-25.3334
-20.5368
-20.4362
-11.6758
-11.4368
-20.2966
-16.4286
-18.0146
-17.4389
-12.4259
-8.91192
-13.0792
-17.3499
-13.276
-7.76184
-15.8976
-20.3118
-20.668
-15.6393
-17.101
-19.1407
-17.5113
-17.8558
-15.8465
-16.3179
-16.0791
-16.2922
-15.2573
-20.0285
-17.6795
-21.4664
-20.5673
-20.7375
-15.9398
-16.2254
-15.2924
-15.7302
-14.3155
-15.2098
-16.2612
-15.0118
-15.7151
-17.2756
-18.2683
-19.4503
-16.2017
-19.0821
-17.8213
-8.11856
-16.059
-18.6929
-17.5093
-17.7251
-15.8333
-19.8713
-23.1639
-17.7963
-17.1127
-19.0694
-18.6113
-17.1608
-17.2968
-17.0704
-15.7081
-16.1833
-16.9472
-17.0872
-18.8068
-18.7589
-19.8411
-15.6845
-11.4752
-13.0093
-16.0923
-16.0642
-23.4777
-20.7952
-14.3849
-15.9092
-20.5077
-19.2043
-18.5058
-11.6912
-11.5612
-20.0037
-24.4135
-10.485
-16.6811
-18.6224
-18.5959
-17.4539
-15.4511
-15.3768
-15.5917
-16.0614
-18.2241
-19.1205
-19.4444
-21.1399
-18.4851
-19.2406
-15.6139
-25.4199
-18.7394
-12.8029
-15.9758
-16.363
-12.0199
-11.9839
-25.5519
-20.7442
-17.9991
-17.2633
-17.876
-11.0116
-11.4978
-10.0759
-22.2813
-24.8962
-21.0194
-17.6498
-17.8743
-15.1553
-19.059
-21.4061
-18.2862
-17.6078
-14.8361
-19.3538
-19.0381
-16.9702
-18.8459
-19.8061
-16.4046
-16.7106
-20.0775
-17.9003
-20.5486
-14.9284
-20.3596
-17.4798
-18.987
-19.0343
-17.3404
-16.7838
-17.2349
-18.2873
-22.1982
-16.8728
-25.6203
-19.6397
-20.477
-17.7926
-18.0617
-16.0594
-18.3447
-20.0331
-19.0567
-26.4348
-21.2767
-20.7305
-22.4452
-13.5938
-14.3598
-15.5164
-15.4277
-19.7804
-21.9204
-21.1157
-23.2499
-15.2519
-15.5528
-14.4395
-19.1461
-17.6837
-18.1069
-23.999
-14.0434
-13.0084
-24.4061
-15.3043
-14.4221
-14.2464
-14.6943
-18.7153
-24.428
-21.3148
-15.0243
-13.5099
-20.5907
-13.8259
-19.7615
-19.7537
-21.8918
-13.0275
-6.75411
-21.717
-22.3713
-16.3796
-16.0198
-17.5368
-16.4756
-20.6751
-21.6638
-19.5327
-18.523
-15.6127
-22.0677
-21.1893
-18.1282
-14.8257
-16.178
-15.9841
-16.5943
-19.2366
-23.3411
-13.6252
-13.1929
-13.3347
-6.11641
-20.3121
-19.165
-18.4659
-17.5032
-17.7155
-22.0964
-19.734
-16.1598
-20.3433
-12.481
-15.3157
-6.98431
-17.309
-20.0642
-21.7408
-21.2585
-20.3221
-19.3116
-20.9938
-12.9912
-13.6777
-14.4315
-22.4743
-14.5983
-6.93499
-10.2404
-19.1924
-17.2875
-24.1219
-26.366
-17.9628
-11.566
-6.23562
-18.5961
-21.1587
-15.6017
-15.7489
-10.7787
-15.4235
-22.0792
-24.626
-17.1166
-15.7475
-22.9009
-21.3706
-16.1301
-12.7926
-16.7803
-23.495
-22.3456
-19.3234
-19.7734
-21.5359
-14.2578
-15.9366
-21.7941
-19.7657
-20.5316
-17.2854
-20.361
-23.2125
-19.5041
-19.1081
-22.6555
-15.6616
-15.5916
-16.0322
-15.1882
-15.4886
-21.9624
-23.6332
-13.2321
-16.5798
-16.3264
-16.5243
-15.0156
-17.7364
-17.2501
-14.484
-10.8531
-15.3614
-13.1303
-14.9495
-24.4454
-22.7727
-22.69
-25.9362
-13.9369
-14.2858
-17.6116
-25.6321
-24.6899
-15.336
-17.3322
-15.081
-19.6737
-15.8441
-19.0705
-19.4704
-20.8472
-19.8939
-16.2564
-20.0789
-15.3032
-21.5682
-22.1902
-20.491
-20.107
-14.5907
-23.7748
-23.592
-19.6223
-12.9103
-15.6124
-16.4765
-19.492
-19.0169
-19.7098
-14.4376
-21.4905
-21.6871
-20.8747
-22.6595
-18.8388
-18.2542
-17.1306
-13.6762
-18.3015
-19.5987
-13.628
-13.2764
-14.1302
-25.1322
-21.4056
-22.6722
-18.9587
-18.1782
-21.8937
-13.3946
-24.0978
-20.832
-18.2609
-18.1714
-13.0934
-20.8148
-21.2931
-14.7832
-18.2691
-17.0117
-15.7702
-19.6955
-21.41
-17.2729
-16.1187
-13.9901
-23.3478
-21.5979
-13.242
-21.9439
-21.2883
-20.3199
-23.3286
-18.197
-19.9436
-12.3536
-13.0517
-19.4572
-25.7021
-20.5367
-24.1168
-18.9171
-16.3963
-21.1144
-14.129
-15.1011
-19.0684
-21.3226
-19.7688
-19.0015
-14.3361
-14.3129
-21.8205
-21.6105
-21.6126
-18.1052
-15.4678
-19.1542
-20.1116
-21.2503
-18.379
-16.7201
-14.66
-17.9532
-13.908
-12.0363
-15.5645
-14.6997
-18.0204
-12.4478
-16.4468
-23.8271
-16.3388
-16.2801
-21.2762
-21.2102
-19.5883
-17.0326
-13.5607
-20.4865
-22.7177
-19.3575
-18.4472
-20.649
-17.3629
-17.852
-18.8773
-11.6462
-19.3516
-21.6872
-22.6327
-21.0787
-20.0106
-19.7802
-18.4207
-16.8366
-14.1331
-17.6423
-14.64
-13.105
-15.0692
-11.9899
-24.5927
-23.9382
-22.2113
-25.4042
-14.09
-24.6442
-14.3907
-15.327
-20.2821
-13.7753
-14.247
-16.5033
-16.3206
-24.1054
-22.7549
-18.8905
-19.2383
-23.2634
-21.8547
-18.3658
-20.0805
-14.8888
-21.3293
-12.8945
-22.5807
-11.6006
-19.9059
-20.481
-21.0861
-16.2261
-14.0472
-16.9315
-21.233
-17.1567
-12.5581
-21.318
-21.6783
-22.329
-25.9443
-18.4216
-23.0755
-13.893
-14.5001
-8.34056
-10.2207
-18.319
-16.4681
-15.8601
-15.0809
-24.9758
-14.4457
-13.3788
-12.7035
-16.5654
-12.5154
-26.3792
-14.8853
-15.2363
-17.6876
-9.02172
-10.6777
-15.5982
-15.473
-17.2659
-16.095
-21.6442
-21.056
-19.8045
-18.3149
-12.117
-15.85
-20.9173
-14.1149
-14.7938
-20.4762
-23.3877
-14.8845
-8.34686
-13.6706
-8.90275
-17.5543
-16.2243
-15.2476
-12.8908
-8.95259
-19.7299
-20.3876
-19.0331
-17.4973
-23.5384
-19.8759
-19.4899
-18.1943
-14.5555
-15.9982
-21.6291
-19.8293
-16.6291
-10.0732
-18.4891
-20.7781
-23.8091
-18.6522
-15.6736
-23.8099
-17.7833
-23.1352
-14.8322
-16.1861
-14.2058
-16.3283
-18.5496
-23.3727
-14.2267
-15.1531
-14.5246
-16.6054
-26.4901
-12.9757
-15.9432
-13.3138
-17.7417
-18.5282
-21.6917
-23.5248
-12.2439
-12.9247
-23.4704
-24.0838
-11.1686
-23.212
-21.9559
-20.5261
-21.8297
-19.5149
-17.9893
-18.2254
-23.3168
-18.3523
-19.583
-17.947
-21.2727
-18.6913
-17.5856
-17.2615
-13.6506
-20.4936
-17.5136
-21.199
-19.9915
-20.1044
-19.8111
-18.3962
-13.0593
-21.7886
-21.7637
-19.6678
-17.5336
-18.7927
-25.3936
-12.4601
-14.7448
-13.8139
-18.5563
-15.0872
-25.4364
-16.3657
-16.86
-17.8129
-8.4739
-9.21492
-15.7473
-15.6476
-18.1738
-14.2004
-15.0761
-18.716
-15.3406
-23.5568
-13.778
-25.1309
-16.4161
-18.4357
-7.02421
-9.04199
-8.26005
-15.2663
-20.5288
-15.9413
-15.268
-8.94692
-17.9961
-20.8182
-18.083
-27.7578
-14.8611
-21.6274
-19.6375
-20.6762
-22.0744
-21.9041
-20.663
-17.7078
-16.7311
-17.63
-20.6917
-17.0447
-19.0922
-18.6215
-19.0091
-21.1094
-19.8402
-20.4809
-13.5906
-14.6624
-6.62986
-10.8226
-11.9034
-3.82106
-15.6175
-16.1087
-17.0523
-17.5738
-12.0115
-13.739
-16.6159
-22.3763
-21.8736
-16.5268
-12.6755
-17.3436
-20.9866
-19.6695
-17.7953
-12.3547
-14.8576
-19.7323
-18.8284
-17.7089
-15.7777
-20.1758
-20.2694
-23.3392
-20.3228
-18.4481
-16.1029
-14.9979
-13.5523
-15.5909
-17.232
-25.7019
-18.3209
-24.4528
-15.0131
-26.1065
-15.6119
-17.2116
-13.9389
-14.4235
-16.1411
-13.489
-16.9562
-12.4133
-15.8104
-21.5767
-16.4393
-13.2007
-23.6687
-20.0479
-19.1819
-17.427
-23.221
-28.3777
-10.9338
-19.8971
-18.9522
-19.5731
-13.4759
-17.4928
-15.0591
-18.9758
-20.3987
-21.8619
-14.529
-19.713
-18.1612
-20.2275
-19.9401
-19.447
-16.5761
-17.1395
-15.8882
-12.6224
-12.1042
-14.1765
-22.9185
-15.8333
-13.3694
-15.966
-21.6864
-16.8913
-22.8883
-21.0534
-19.3389
-18.4381
-19.2513
-23.9057
-14.1839
-19.8101
-21.9541
-22.4272
-18.362
-15.0051
-16.7974
-19.2735
-22.568
-13.8616
-17.1939
-18.2257
-21.5611
-19.2549
-19.2134
-23.0622
-13.9433
-15.2148
-14.6024
-23.9394
-21.8114
-18.24
-21.5219
-15.2596
-15.8179
-21.5041
-19.1946
-23.3587
-14.3939
-20.7471
-21.3334
-18.573
-19.0086
-20.4787
-14.5065
-11.8256
-17.8875
-19.2125
-24.1407
-17.296
-15.5245
-17.6159
-19.2925
-20.6773
-18.4248
-15.1187
-17.3296
-21.2874
-14.0013
-15.0973
-17.327
-15.7428
-18.8471
-18.4147
-22.3257
-19.558
-21.0444
-15.951
-17.6676
-18.8363
-17.4906
-16.7566
-16.0974
-16.0246
-14.0539
-20.1132
-18.7163
-18.7085
-19.368
-12.9186
-16.3517
-23.767
-23.8693
-15.1139
-21.6227
-19.2722
-20.0628
-15.9696
-22.4974
-22.1531
-14.287
-16.8786
-16.2818
-16.0863
-12.7899
-13.7538
-16.2803
-22.0589
-25.4915
-15.5193
-20.4432
-20.0927
-19.1659
-17.0517
-18.871
-22.3014
-18.7604
-14.4362
-16.3871
-15.9708
-16.2049
-19.5827
-20.0844
-20.1418
-20.373
-20.3589
-15.1585
-20.612
-16.51
-19.8786
-8.96034
-19.3888
-22.7744
-16.7383
-10.9315
-17.8429
-17.1514
-24.4125
-14.6865
-20.62
-17.5959
-11.7548
-23.5893
-13.1909
-17.1823
-17.9444
-12.8839
-21.6329
-18.9017
-17.0609
-18.2854
-18.8697
-17.1546
-24.6772
-13.3228
-16.1957
-7.74907
-16.643
-16.7537
-18.102
-21.5909
-28.6331
-12.5068
-16.2551
-27.046
-13.2322
-20.2679
-15.0164
-20.0533
-10.5768
-14.7179
-26.8839
-11.4433
-25.8727
-12.2218
-24.1759
-11.8472
-14.6258
-8.29406
-13.3592
-26.2062
-9.51863
-17.5598
-11.4298
-23.1199
-26.2683
-9.77984
-16.8757
-15.5795
-14.4454
-14.2807
-16.2949
-17.998
-17.9829
-19.9196
-17.6083
-23.2194
-27.4321
-9.68239
-18.0627
-19.331
-17.9894
-18.5536
-17.3741
-16.784
-17.3515
-20.909
-17.4827
-20.992
-16.139
-18.7145
-22.7881
-16.6985
-19.7392
-21.6868
-16.1094
-18.7149
-17.5954
-19.8657
-17.1942
-18.3236
-16.8305
-21.4444
-16.4191
-19.1277
-12.178
-23.4568
-9.99583
-19.1965
-21.2715
-23.5987
-14.7884
-18.4757
-17.6153
-18.4586
-18.1563
-17.4799
-20.8392
-14.2261
-6.59137
-16.9413
-10.9949
-21.8852
-14.8837
-17.8785
-20.2602
-7.1759
-22.6527
-14.1047
-8.74376
-14.6429
-20.2874
-19.9784
-18.0946
-9.58565
-18.0386
-18.7281
-15.474
-14.9065
-22.0241
-21.3718
-15.8782
-18.1698
-22.0501
-9.71148
-20.873
-14.8095
-19.7663
-10.1616
-25.4834
-24.9692
-21.3098
-18.0068
-16.8072
-20.1753
-16.5989
-9.51638
-13.875
-20.4418
-15.0242
-19.5226
-10.8881
-21.7722
-19.8066
-4.83626
-18.0715
-18.9445
-7.4982
-22.7654
-12.0519
-21.9488
-23.5123
-20.7642
-8.8375
-18.2839
-16.9484
-18.1182
-18.3987
-19.5148
-9.7743
-16.0739
-15.127
-15.1554
-21.6422
-17.8298
-19.0784
-19.9901
-19.765
-16.8819
-18.423
-17.1135
-19.0912
-22.1131
-15.8489
-16.6814
-15.5929
-18.3661
-21.2266
-15.7962
-16.5445
-16.1694
-17.8907
-15.1079
-15.4373
-16.5141
-16.8411
-18.3449
-16.4227
-23.3544
-20.8768
-11.2572
-11.4289
-22.7155
-3.83279
-20.5432
-18.699
-15.1103
-16.8633
-22.9383
-7.18284
-21.8227
-19.0615
-9.20187
-16.2426
-15.485
-17.9189
-6.72873
-22.6123
-19.2377
-7.29535
-22.2523
-22.3756
-10.3458
-23.6388
-21.3543
-10.4652
-15.5824
-15.1349
-7.29306
-17.9827
-18.4784
-13.993
-14.8069
-14.5306
-5.20902
-14.6899
-6.98142
-4.65399
-21.511
-15.5473
-26.2089
-15.8861
-9.71527
-22.6733
-17.2118
-8.15995
-15.8464
-15.6385
-8.05683
-11.4154
-22.526
-2.43376
-13.9157
-13.2517
-3.84461
-21.8327
-20.9933
-17.9511
-16.4527
-15.5735
-13.9383
-6.05174
-18.0904
-16.5184
-16.7247
-17.9666
-8.71099
-20.3909
-15.8555
-17.4514
-15.4465
-17.2982
-18.3185
-13.6831
-9.10767
-16.3267
-18.5819
-15.76
-16.448
-17.6068
-14.787
-16.6514
-8.52139
-15.8892
-19.0635
-15.5139
-16.8972
-14.9162
-9.25983
-22.8349
-22.6869
-22.2197
-23.7027
-10.2933
-7.54971
-15.9932
-20.6599
-18.4571
-20.2188
-20.9024
-13.928
-12.9855
-7.77129
-9.82273
-14.7463
-17.5114
-17.234
-17.037
-13.0385
-21.5535
-19.0627
-10.5557
-14.5391
-13.747
-20.8095
-14.8673
-6.02295
-17.6444
-17.7536
-21.7852
-8.34608
-15.587
-18.4398
-16.1143
-16.8598
-20.0645
-17.4095
-14.0306
-24.129
-4.50134
-12.4056
-17.042
-14.8341
-16.3338
-23.6096
-19.2284
-17.8358
-12.473
-22.843
-16.0365
-18.3119
-20.888
-21.7928
-21.4342
-21.7613
-23.293
-24.2689
-23.1002
-23.1153
-17.9739
-21.1119
-15.8327
-16.8531
-12.9258
-11.7404
-5.3064
-23.7918
-23.5016
-22.2085
-16.6431
-18.3459
-18.0556
-14.9708
-18.5963
-21.0377
-14.1911
-17.0954
-19.852
-15.5655
-15.9345
-15.7071
-16.584
-14.7433
-16.4424
-16.0755
-10.1816
-18.3973
-14.2752
-17.0572
-8.04561
-23.808
-17.2591
-15.2609
-14.5871
-10.6773
-17.7526
-15.3849
-7.34451
-12.3568
-17.1473
-11.6036
-12.6693
-24.4586
-24.9508
-16.1233
-16.161
-20.4327
-23.5289
-7.22774
-14.9858
-14.7472
-16.357
-16.3282
-16.6973
-17.3559
-12.923
-9.37603
-22.6438
-16.2279
-12.0372
-12.8368
-16.1073
-17.871
-10.7681
-16.8597
-14.9736
-15.8294
-23.6069
-12.1762
-9.5592
-16.3397
-15.5062
-14.7445
-9.49258
-21.8565
-16.0592
-15.8514
-16.0782
-7.40067
-16.1419
-16.3165
-9.73489
-16.0228
-12.3281
-19.0605
-22.453
-14.9724
-21.0838
-18.8502
-15.1157
-15.2666
-16.462
-9.51377
-18.8226
-19.4413
-15.6623
-8.34862
-13.6422
-16.9368
-17.2479
-15.0349
-9.05269
-15.2154
-21.7971
-18.8886
-15.3292
-24.3295
-12.1804
-20.8937
-7.56601
-11.9522
-21.2768
-7.42799
-21.5112
-15.2811
-17.8507
-15.8478
-24.8306
-13.2008
-17.9492
-23.6066
-22.8359
-11.1603
-22.4873
-23.6267
-4.08271
-16.9362
-15.4565
-7.82563
-19.4577
-15.3579
-15.8699
-15.8871
-17.4205
-16.7403
-15.6658
-15.2933
-7.53856
-19.4087
-17.8604
-17.5877
-18.2826
-16.6386
-15.0894
-13.7009
-20.3973
-6.24505
-14.6293
-14.5276
-6.67274
-21.2947
-24.0373
-17.2658
-22.208
-22.8492
-14.8657
-15.2194
-19.2563
-22.1616
-14.7527
-19.8125
-12.8131
-7.88382
-20.5032
-14.1901
-21.7834
-24.3275
-23.4688
-8.34713
-20.9968
-18.0321
-14.0313
-15.6197
-16.3523
-15.4096
-8.52314
-22.1784
-8.81679
-22.0171
-16.5722
-12.8175
-12.0587
-16.7162
-19.9751
-23.1802
-17.6731
-25.6611
-20.6061
-21.5443
-7.28839
-21.0713
-20.1885
-21.8226
-14.9005
-14.1333
-6.21871
-17.1726
-25.3025
-22.2741
-9.25632
-13.1254
-8.80476
-14.8917
-17.3648
-12.692
-27.8936
-15.8968
-13.1447
-9.49833
-18.8339
-14.2393
-6.80318
-16.8935
-15.3247
-15.458
-15.6189
-15.6871
-9.58788
-12.7733
-7.88458
-15.3998
-20.5949
-19.0997
-22.5076
-21.8168
-14.6401
-13.7012
-7.52345
-15.1156
-20.0748
-22.9382
-20.5827
-20.8282
-12.0626
-6.57859
-13.2806
-5.89289
-20.4006
-20.768
-13.7211
-21.4174
-20.3313
-22.5001
-18.6295
-17.8661
-17.729
-14.6391
-7.30022
-13.4808
-8.32585
-12.5768
-15.6244
-15.0267
-10.1912
-8.28812
-19.7365
-25.3375
-24.3722
-23.477
-17.6129
-19.5648
-19.3916
-17.1988
-15.6073
-17.1838
-13.9988
-16.5552
-16.5967
-8.32981
-20.3383
-16.2237
-13.1562
-10.034
-15.2815
-17.5027
-17.4505
-15.0507
-10.0809
-23.1903
-18.7507
-15.4281
-24.2162
-14.1589
-7.94436
-19.1828
-16.5921
-16.6292
-16.6249
-15.1596
-6.16753
-16.6902
-16.4991
-8.88997
-22.9567
-16.049
-2.5024
-15.6029
-17.3
-17.6157
-15.1278
-8.50684
-14.4802
-14.7226
-11.7215
-16.8317
-7.55146
-17.0586
-16.7861
-11.3093
-24.1435
-16.4687
-9.73192
-25.1678
-17.2044
-17.2051
-9.95198
-16.7814
-8.79031
)
;
    }
}


// ************************************************************************* //
