/*--------------------------------*- C++ -*----------------------------------*\
| =========                 |                                                 |
| \\      /  F ield         | OpenFOAM: The Open Source CFD Toolbox           |
|  \\    /   O peration     | Version:  v1906                                 |
|   \\  /    A nd           | Web:      www.OpenFOAM.com                      |
|    \\/     M anipulation  |                                                 |
\*---------------------------------------------------------------------------*/
FoamFile
{
    version     2.0;
    format      ascii;
    class       volVectorField;
    location    "96.8/oil";
    object      U;
}
// * * * * * * * * * * * * * * * * * * * * * * * * * * * * * * * * * * * * * //

dimensions      [0 1 -1 0 0 0 0];


internalField   nonuniform List<vector> 
27760
(
(-2.48397e-05 -2.51819e-05 -2.48397e-05)
(-4.46323e-05 -1.60777e-05 -1.52701e-05)
(-4.65223e-06 -4.27601e-06 -4.2956e-06)
(-5.41375e-06 -8.17594e-07 -9.41476e-07)
(-1.2008e-06 -2.62394e-07 -4.08706e-07)
(-3.26267e-07 -9.01653e-08 -2.52225e-07)
(3.72904e-07 5.31496e-09 -1.6998e-07)
(7.38328e-07 4.84797e-08 -1.36182e-07)
(9.42857e-07 7.3482e-08 -1.16908e-07)
(1.02019e-06 8.9523e-08 -1.0345e-07)
(9.92826e-07 1.00949e-07 -9.22845e-08)
(8.74594e-07 1.09767e-07 -8.22099e-08)
(6.80435e-07 1.16317e-07 -7.39285e-08)
(4.27864e-07 1.20734e-07 -6.79494e-08)
(1.38123e-07 1.23044e-07 -6.47652e-08)
(-1.65124e-07 1.23188e-07 -6.46234e-08)
(-4.57515e-07 1.21215e-07 -6.74803e-08)
(-7.16025e-07 1.17279e-07 -7.29673e-08)
(-9.20964e-07 1.11573e-07 -8.03967e-08)
(-1.05785e-06 1.04342e-07 -8.88604e-08)
(-1.11835e-06 9.60389e-08 -9.68982e-08)
(-1.10067e-06 8.69298e-08 -1.03345e-07)
(-1.01069e-06 7.68048e-08 -1.07254e-07)
(-8.61095e-07 6.6243e-08 -1.07192e-07)
(-6.70166e-07 5.55301e-08 -1.02131e-07)
(-4.61455e-07 4.51785e-08 -9.14714e-08)
(-2.62115e-07 3.62298e-08 -7.54287e-08)
(-1.01059e-07 3.04871e-08 -5.55086e-08)
(-2.93122e-09 2.99049e-08 -3.54548e-08)
(1.50854e-08 2.95349e-08 -1.50635e-08)
(-1.53519e-05 -4.56452e-05 -1.53519e-05)
(-6.93843e-06 -7.48746e-06 -6.98901e-06)
(-7.04924e-06 -7.40952e-06 -2.57415e-06)
(-3.20546e-06 -2.39417e-06 -8.40283e-07)
(-9.11264e-07 -1.41581e-06 -4.26031e-07)
(3.06249e-07 -7.79268e-07 -2.24223e-07)
(1.19662e-06 -4.81982e-07 -1.25832e-07)
(1.75472e-06 -3.00761e-07 -7.56171e-08)
(2.0785e-06 -1.73937e-07 -4.37938e-08)
(2.18876e-06 -7.21737e-08 -1.99324e-08)
(2.10387e-06 1.41127e-08 3.55032e-10)
(1.8416e-06 8.72323e-08 1.79204e-08)
(1.42722e-06 1.45492e-07 3.22767e-08)
(8.95055e-07 1.86528e-07 4.25912e-08)
(2.87558e-07 2.08147e-07 4.80557e-08)
(-3.47384e-07 2.09303e-07 4.83231e-08)
(-9.60116e-07 1.90255e-07 4.34627e-08)
(-1.50375e-06 1.5272e-07 3.40307e-08)
(-1.93819e-06 9.98543e-08 2.112e-08)
(-2.23363e-06 3.58541e-08 6.17947e-09)
(-2.37305e-06 -3.41381e-08 -9.06871e-09)
(-2.35372e-06 -1.04787e-07 -2.28909e-08)
(-2.18703e-06 -1.70863e-07 -3.34318e-08)
(-1.8978e-06 -2.26497e-07 -3.93891e-08)
(-1.52271e-06 -2.65776e-07 -3.97239e-08)
(-1.10732e-06 -2.82119e-07 -3.41037e-08)
(-7.02345e-07 -2.67841e-07 -2.34019e-08)
(-3.58274e-07 -2.14855e-07 -1.02094e-08)
(-1.16415e-07 -1.1843e-07 8.96312e-11)
(-3.22178e-09 -4.11514e-09 3.25457e-09)
(-4.331e-06 -5.61955e-06 -4.33101e-06)
(-7.17631e-06 -8.10964e-06 -2.59402e-06)
(-3.56706e-06 -4.94578e-06 -1.19613e-06)
(-1.82166e-06 -3.07216e-06 -5.73056e-07)
(-1.05575e-07 -2.26169e-06 -2.6288e-07)
(1.06711e-06 -1.73253e-06 -1.10285e-07)
(1.96707e-06 -1.40777e-06 -2.89726e-08)
(2.57675e-06 -1.15783e-06 1.77692e-08)
(2.93112e-06 -9.42525e-07 5.04627e-08)
(3.03174e-06 -7.44514e-07 7.67422e-08)
(2.88716e-06 -5.62393e-07 9.97178e-08)
(2.51395e-06 -4.01622e-07 1.19752e-07)
(1.94224e-06 -2.70395e-07 1.36159e-07)
(1.21582e-06 -1.76831e-07 1.47907e-07)
(3.90223e-07 -1.27267e-07 1.54201e-07)
(-4.71293e-07 -1.24861e-07 1.54512e-07)
(-1.30323e-06 -1.69154e-07 1.48916e-07)
(-2.0434e-06 -2.55877e-07 1.38099e-07)
(-2.63863e-06 -3.77176e-07 1.2318e-07)
(-3.04946e-06 -5.22338e-07 1.05723e-07)
(-3.25336e-06 -6.78615e-07 8.75006e-08)
(-3.24645e-06 -8.321e-07 7.03209e-08)
(-3.04346e-06 -9.68165e-07 5.58596e-08)
(-2.67646e-06 -1.0722e-06 4.54036e-08)
(-2.19183e-06 -1.12916e-06 3.96993e-08)
(-1.64642e-06 -1.12342e-06 3.86783e-08)
(-1.10213e-06 -1.03853e-06 4.10303e-08)
(-6.18373e-07 -8.58469e-07 4.35882e-08)
(-2.46238e-07 -5.71474e-07 4.03935e-08)
(-2.2331e-08 -1.95076e-07 2.23682e-08)
(-8.925e-07 -6.48709e-06 -8.92511e-07)
(-1.94173e-06 -5.33008e-06 -7.8882e-07)
(-1.2616e-06 -4.77308e-06 -5.37677e-07)
(-2.76257e-07 -3.92743e-06 -2.62647e-07)
(9.12696e-07 -3.44877e-06 -9.66889e-08)
(1.91465e-06 -3.07076e-06 -1.81155e-09)
(2.74602e-06 -2.76352e-06 5.66299e-08)
(3.3423e-06 -2.46683e-06 9.57388e-08)
(3.68466e-06 -2.16729e-06 1.26533e-07)
(3.75309e-06 -1.86567e-06 1.53281e-07)
(3.54425e-06 -1.57413e-06 1.77516e-07)
(3.07126e-06 -1.30969e-06 1.98966e-07)
(2.36628e-06 -1.09056e-06 2.16634e-07)
(1.47951e-06 -9.33121e-07 2.29324e-07)
(4.75952e-07 -8.49447e-07 2.3609e-07)
(-5.69697e-07 -8.45823e-07 2.36398e-07)
(-1.57968e-06 -9.21638e-07 2.30313e-07)
(-2.48017e-06 -1.06926e-06 2.18513e-07)
(-3.20801e-06 -1.27472e-06 2.02198e-07)
(-3.71634e-06 -1.51875e-06 1.82979e-07)
(-3.97829e-06 -1.77838e-06 1.62657e-07)
(-3.98902e-06 -2.02845e-06 1.43035e-07)
(-3.76532e-06 -2.24281e-06 1.2569e-07)
(-3.34375e-06 -2.39517e-06 1.11822e-07)
(-2.77687e-06 -2.45926e-06 1.01979e-07)
(-2.12837e-06 -2.40881e-06 9.58754e-08)
(-1.46712e-06 -2.21718e-06 9.20057e-08)
(-8.58836e-07 -1.85776e-06 8.67964e-08)
(-3.65416e-07 -1.303e-06 7.36704e-08)
(-3.87158e-08 -5.29768e-07 3.87582e-08)
(-2.89241e-07 -2.78734e-06 -2.89258e-07)
(-7.48126e-07 -4.36403e-06 -3.12926e-07)
(-1.13963e-07 -4.93208e-06 -1.89786e-07)
(7.33638e-07 -4.95581e-06 -6.45474e-08)
(1.74505e-06 -4.89131e-06 2.39028e-08)
(2.68221e-06 -4.71904e-06 8.20102e-08)
(3.48472e-06 -4.47266e-06 1.23669e-07)
(4.07238e-06 -4.1533e-06 1.56378e-07)
(4.3993e-06 -3.77884e-06 1.85444e-07)
(4.43204e-06 -3.37291e-06 2.12672e-07)
(4.1589e-06 -2.96524e-06 2.38275e-07)
(3.59046e-06 -2.58776e-06 2.61343e-07)
(2.76067e-06 -2.27136e-06 2.80496e-07)
(1.72521e-06 -2.04268e-06 2.94311e-07)
(5.57531e-07 -1.92107e-06 3.01662e-07)
(-6.57452e-07 -1.91648e-06 3.01944e-07)
(-1.83101e-06 -2.02828e-06 2.95213e-07)
(-2.87884e-06 -2.24505e-06 2.8218e-07)
(-3.72881e-06 -2.54555e-06 2.64159e-07)
(-4.3274e-06 -2.90047e-06 2.42857e-07)
(-4.64395e-06 -3.27488e-06 2.20184e-07)
(-4.67266e-06 -3.63054e-06 1.98017e-07)
(-4.43186e-06 -3.92785e-06 1.77948e-07)
(-3.96171e-06 -4.12736e-06 1.61141e-07)
(-3.31972e-06 -4.19027e-06 1.48073e-07)
(-2.57525e-06 -4.0783e-06 1.38334e-07)
(-1.80348e-06 -3.75266e-06 1.30288e-07)
(-1.07702e-06 -3.17183e-06 1.19952e-07)
(-4.70199e-07 -2.28192e-06 9.99433e-08)
(-5.20487e-08 -9.90604e-07 5.20993e-08)
(-9.68665e-08 -2.61021e-06 -9.68809e-08)
(1.05653e-08 -4.7268e-06 -7.28799e-08)
(6.45023e-07 -5.89894e-06 -8.21811e-09)
(1.48718e-06 -6.46259e-06 5.46793e-08)
(2.45791e-06 -6.71529e-06 1.04871e-07)
(3.39157e-06 -6.71689e-06 1.43044e-07)
(4.19927e-06 -6.52931e-06 1.75306e-07)
(4.79283e-06 -6.19009e-06 2.04876e-07)
(5.11082e-06 -5.74187e-06 2.33997e-07)
(5.11057e-06 -5.22946e-06 2.6294e-07)
(4.77439e-06 -4.70074e-06 2.90979e-07)
(4.11115e-06 -4.20386e-06 3.16626e-07)
(3.15692e-06 -3.78392e-06 3.38083e-07)
(1.97301e-06 -3.47904e-06 3.53604e-07)
(6.41426e-07 -3.31687e-06 3.61851e-07)
(-7.42564e-07 -3.31165e-06 3.62102e-07)
(-2.07913e-06 -3.46274e-06 3.54395e-07)
(-3.27337e-06 -3.75452e-06 3.39532e-07)
(-4.24411e-06 -4.15769e-06 3.18989e-07)
(-4.9312e-06 -4.63178e-06 2.94696e-07)
(-5.30038e-06 -5.12868e-06 2.68791e-07)
(-5.34487e-06 -5.59567e-06 2.43326e-07)
(-5.08474e-06 -5.97853e-06 2.20012e-07)
(-4.56387e-06 -6.22356e-06 2.00094e-07)
(-3.84479e-06 -6.2782e-06 1.84063e-07)
(-3.00288e-06 -6.09076e-06 1.71444e-07)
(-2.12044e-06 -5.60783e-06 1.60455e-07)
(-1.27825e-06 -4.7679e-06 1.4664e-07)
(-5.63875e-07 -3.48038e-06 1.21618e-07)
(-6.32923e-08 -1.56084e-06 6.33558e-08)
(6.65786e-09 -2.7399e-06 6.65215e-09)
(3.77691e-07 -5.59342e-06 5.00379e-08)
(1.11734e-06 -7.33566e-06 9.29904e-08)
(2.04347e-06 -8.3513e-06 1.30004e-07)
(3.06356e-06 -8.88939e-06 1.61979e-07)
(4.04675e-06 -9.05227e-06 1.9039e-07)
(4.89441e-06 -8.92341e-06 2.18541e-07)
(5.51411e-06 -8.56699e-06 2.47849e-07)
(5.83519e-06 -8.04713e-06 2.78951e-07)
(5.80834e-06 -7.42837e-06 3.11165e-07)
(5.41153e-06 -6.77685e-06 3.43026e-07)
(4.65272e-06 -6.15765e-06 3.72497e-07)
(3.57059e-06 -5.63082e-06 3.97298e-07)
(2.2328e-06 -5.24703e-06 4.15268e-07)
(7.30607e-07 -5.0429e-06 4.24791e-07)
(-8.29453e-07 -5.03736e-06 4.25006e-07)
(-2.3356e-06 -5.22986e-06 4.1594e-07)
(-3.6815e-06 -5.60023e-06 3.98508e-07)
(-4.77631e-06 -6.1105e-06 3.74419e-07)
(-5.55295e-06 -6.70821e-06 3.45958e-07)
(-5.9734e-06 -7.33106e-06 3.15596e-07)
(-6.03033e-06 -7.91111e-06 2.85686e-07)
(-5.7461e-06 -8.37872e-06 2.58213e-07)
(-5.16882e-06 -8.66508e-06 2.34556e-07)
(-4.36697e-06 -8.7029e-06 2.15297e-07)
(-3.42288e-06 -8.42549e-06 1.99917e-07)
(-2.42702e-06 -7.76207e-06 1.8647e-07)
(-1.4694e-06 -6.62619e-06 1.69962e-07)
(-6.50911e-07 -4.88083e-06 1.40838e-07)
(-7.33882e-08 -2.23002e-06 7.34705e-08)
(5.23801e-08 -3.27166e-06 5.23874e-08)
(5.9623e-07 -6.90655e-06 1.14665e-07)
(1.45572e-06 -9.19739e-06 1.52431e-07)
(2.49364e-06 -1.0618e-05 1.80187e-07)
(3.60354e-06 -1.14202e-05 2.04907e-07)
(4.66717e-06 -1.17354e-05 2.30023e-07)
(5.57914e-06 -1.16655e-05 2.58019e-07)
(6.24227e-06 -1.12957e-05 2.89688e-07)
(6.57831e-06 -1.07084e-05 3.24804e-07)
(6.53204e-06 -9.98677e-06 3.62076e-07)
(6.07754e-06 -9.21445e-06 3.99411e-07)
(5.22206e-06 -8.4735e-06 4.34153e-07)
(4.00737e-06 -7.83955e-06 4.63479e-07)
(2.50814e-06 -7.37638e-06 4.8475e-07)
(8.25945e-07 -7.13004e-06 4.95989e-07)
(-9.20215e-07 -7.12448e-06 4.96163e-07)
(-2.60536e-06 -7.35922e-06 4.85287e-07)
(-4.11058e-06 -7.80933e-06 4.64442e-07)
(-5.3344e-06 -8.42761e-06 4.35658e-07)
(-6.20235e-06 -9.14905e-06 4.01663e-07)
(-6.67279e-06 -9.8966e-06 3.65374e-07)
(-6.7383e-06 -1.05865e-05 3.29615e-07)
(-6.42421e-06 -1.11332e-05 2.96755e-07)
(-5.78383e-06 -1.14521e-05 2.68393e-07)
(-4.89272e-06 -1.14608e-05 2.45252e-07)
(-3.84119e-06 -1.10759e-05 2.26778e-07)
(-2.72875e-06 -1.02066e-05 2.10862e-07)
(-1.65527e-06 -8.73666e-06 1.91888e-07)
(-7.34555e-07 -6.47388e-06 1.59029e-07)
(-8.29983e-08 -2.99277e-06 8.31037e-08)
(7.81616e-08 -4.0041e-06 7.81883e-08)
(7.42708e-07 -8.52407e-06 1.54788e-07)
(1.72015e-06 -1.1399e-05 1.92725e-07)
(2.87837e-06 -1.32277e-05 2.17933e-07)
(4.0973e-06 -1.42976e-05 2.40804e-07)
(5.2595e-06 -1.47707e-05 2.66374e-07)
(6.25244e-06 -1.47689e-05 2.96999e-07)
(6.97275e-06 -1.43962e-05 3.33253e-07)
(7.33459e-06 -1.37522e-05 3.744e-07)
(7.27635e-06 -1.29369e-05 4.18606e-07)
(6.76801e-06 -1.20511e-05 4.63176e-07)
(5.81591e-06 -1.11939e-05 5.04789e-07)
(4.46505e-06 -1.04565e-05 5.3998e-07)
(2.79765e-06 -9.91593e-06 5.65493e-07)
(9.26687e-07 -9.62838e-06 5.78917e-07)
(-1.01512e-06 -9.62299e-06 5.79051e-07)
(-2.88814e-06 -9.89938e-06 5.6591e-07)
(-4.55958e-06 -1.04276e-05 5.40727e-07)
(-5.91655e-06 -1.11508e-05 5.05925e-07)
(-6.8768e-06 -1.19909e-05 4.64842e-07)
(-7.39505e-06 -1.28557e-05 4.21005e-07)
(-7.46455e-06 -1.36455e-05 3.77802e-07)
(-7.11465e-06 -1.42588e-05 3.38058e-07)
(-6.40505e-06 -1.45954e-05 3.03735e-07)
(-5.41931e-06 -1.45569e-05 2.75744e-07)
(-4.25655e-06 -1.40422e-05 2.53554e-07)
(-3.0259e-06 -1.29383e-05 2.3483e-07)
(-1.83708e-06 -1.10944e-05 2.13294e-07)
(-8.16103e-07 -8.25458e-06 1.76825e-07)
(-9.24457e-08 -3.84654e-06 9.25779e-08)
(9.47004e-08 -4.8836e-06 9.47524e-08)
(8.53816e-07 -1.0392e-05 1.82798e-07)
(1.94086e-06 -1.38998e-05 2.23144e-07)
(3.21742e-06 -1.61592e-05 2.48995e-07)
(4.55082e-06 -1.75146e-05 2.73017e-07)
(5.81928e-06 -1.8163e-05 3.01513e-07)
(6.90251e-06 -1.82481e-05 3.36987e-07)
(7.68945e-06 -1.7892e-05 3.79869e-07)
(8.0862e-06 -1.72106e-05 4.29132e-07)
(8.02401e-06 -1.63195e-05 4.82374e-07)
(7.46763e-06 -1.53358e-05 5.3623e-07)
(6.42176e-06 -1.43742e-05 5.86603e-07)
(4.93441e-06 -1.35418e-05 6.292e-07)
(3.09562e-06 -1.29294e-05 6.60043e-07)
(1.03062e-06 -1.26033e-05 6.76236e-07)
(-1.11275e-06 -1.25982e-05 6.76329e-07)
(-3.17903e-06 -1.29139e-05 6.60333e-07)
(-5.02028e-06 -1.3515e-05 6.29709e-07)
(-6.51122e-06 -1.43346e-05 5.87396e-07)
(-7.56173e-06 -1.52814e-05 5.37427e-07)
(-8.12356e-06 -1.62479e-05 4.84066e-07)
(-8.19152e-06 -1.71188e-05 4.31489e-07)
(-7.80011e-06 -1.77773e-05 3.83127e-07)
(-7.01669e-06 -1.8108e-05 3.41383e-07)
(-5.93349e-06 -1.79965e-05 3.07374e-07)
(-4.65913e-06 -1.7324e-05 2.80605e-07)
(-3.3122e-06 -1.59525e-05 2.58561e-07)
(-2.01158e-06 -1.36928e-05 2.34264e-07)
(-8.94462e-07 -1.02175e-05 1.942e-07)
(-1.01704e-07 -4.7891e-06 1.01867e-07)
(1.06862e-07 -5.87548e-06 1.06932e-07)
(9.42787e-07 -1.24688e-05 2.04355e-07)
(2.12661e-06 -1.66629e-05 2.47769e-07)
(3.51149e-06 -1.93864e-05 2.75731e-07)
(4.95434e-06 -2.10556e-05 3.02691e-07)
(6.32758e-06 -2.19073e-05 3.35896e-07)
(7.50321e-06 -2.21095e-05 3.78077e-07)
(8.36195e-06 -2.18017e-05 4.29634e-07)
(8.80122e-06 -2.11143e-05 4.8918e-07)
(8.74396e-06 -2.01772e-05 5.53785e-07)
(8.14843e-06 -1.91214e-05 6.19277e-07)
(7.01653e-06 -1.80768e-05 6.80599e-07)
(5.39836e-06 -1.71654e-05 7.32511e-07)
(3.39155e-06 -1.64915e-05 7.70074e-07)
(1.13408e-06 -1.61319e-05 7.89738e-07)
(-1.21005e-06 -1.61272e-05 7.89799e-07)
(-3.46812e-06 -1.64772e-05 7.70262e-07)
(-5.47604e-06 -1.71409e-05 7.32841e-07)
(-7.09582e-06 -1.80411e-05 6.81112e-07)
(-8.22977e-06 -1.90733e-05 6.20019e-07)
(-8.82751e-06 -2.0115e-05 5.54885e-07)
(-8.88672e-06 -2.10364e-05 4.90759e-07)
(-8.44862e-06 -2.17065e-05 4.31781e-07)
(-7.58925e-06 -2.19966e-05 3.80918e-07)
(-6.41019e-06 -2.17775e-05 3.39578e-07)
(-5.02927e-06 -2.0912e-05 3.07298e-07)
(-3.57386e-06 -1.92363e-05 2.81308e-07)
(-2.17078e-06 -1.65187e-05 2.53983e-07)
(-9.66307e-07 -1.2352e-05 2.10489e-07)
(-1.10422e-07 -5.81602e-06 1.10624e-07)
(1.16027e-07 -6.95687e-06 1.16137e-07)
(1.01158e-06 -1.47177e-05 2.20988e-07)
(2.27314e-06 -1.96474e-05 2.6742e-07)
(3.74742e-06 -2.28717e-05 2.98184e-07)
(5.28406e-06 -2.48905e-05 3.29159e-07)
(6.75067e-06 -2.59841e-05 3.68485e-07)
(8.01275e-06 -2.63458e-05 4.19088e-07)
(8.94342e-06 -2.61321e-05 4.81358e-07)
(9.43093e-06 -2.54859e-05 5.53589e-07)
(9.38909e-06 -2.45482e-05 6.32253e-07)
(8.76814e-06 -2.34614e-05 7.12274e-07)
(7.5653e-06 -2.23684e-05 7.8742e-07)
(5.83104e-06 -2.14045e-05 8.51173e-07)
(3.66962e-06 -2.06869e-05 8.97401e-07)
(1.23165e-06 -2.03025e-05 9.21587e-07)
(-1.30188e-06 -2.02982e-05 9.21613e-07)
(-3.73991e-06 -2.06738e-05 8.97466e-07)
(-5.90146e-06 -2.13823e-05 8.51297e-07)
(-7.63582e-06 -2.23366e-05 7.87665e-07)
(-8.83864e-06 -2.34189e-05 7.12673e-07)
(-9.45941e-06 -2.44941e-05 6.32919e-07)
(-9.50065e-06 -2.54196e-05 5.54581e-07)
(-9.01179e-06 -2.60533e-05 4.82732e-07)
(-8.07825e-06 -2.62546e-05 4.20912e-07)
(-6.81124e-06 -2.5882e-05 3.7081e-07)
(-5.33687e-06 -2.4781e-05 3.32002e-07)
(-3.78949e-06 -2.27608e-05 3.01497e-07)
(-2.30158e-06 -1.95443e-05 2.71006e-07)
(-1.02577e-06 -1.46369e-05 2.24429e-07)
(-1.17918e-07 -6.91763e-06 1.1816e-07)
(1.22214e-07 -8.10355e-06 1.22337e-07)
(1.05576e-06 -1.70923e-05 2.3211e-07)
(2.3669e-06 -2.27968e-05 2.80913e-07)
(3.90017e-06 -2.65573e-05 3.14701e-07)
(5.5024e-06 -2.89652e-05 3.50412e-07)
(7.03915e-06 -3.0348e-05 3.96852e-07)
(8.37185e-06 -3.09246e-05 4.57253e-07)
(9.36772e-06 -3.08669e-05 5.32034e-07)
(9.90649e-06 -3.03272e-05 6.19216e-07)
(9.89225e-06 -2.9454e-05 7.14654e-07)
(9.26566e-06 -2.83974e-05 8.12313e-07)
(8.01675e-06 -2.73088e-05 9.04621e-07)
(6.19395e-06 -2.63339e-05 9.8329e-07)
(3.90605e-06 -2.56008e-05 1.04059e-06)
(1.31525e-06 -2.52061e-05 1.07065e-06)
(-1.38046e-06 -2.52022e-05 1.07063e-06)
(-3.97089e-06 -2.5589e-05 1.04056e-06)
(-6.25807e-06 -2.63139e-05 9.83256e-07)
(-8.07974e-06 -2.72802e-05 9.0463e-07)
(-9.32712e-06 -2.83598e-05 8.12438e-07)
(-9.95192e-06 -2.9407e-05 7.14962e-07)
(-9.96396e-06 -3.02707e-05 6.19722e-07)
(-9.4223e-06 -3.08011e-05 5.32846e-07)
(-8.42242e-06 -3.08503e-05 4.5838e-07)
(-7.08427e-06 -3.02668e-05 3.98321e-07)
(-5.54027e-06 -2.88803e-05 3.52184e-07)
(-3.9292e-06 -2.64736e-05 3.16723e-07)
(-2.38571e-06 -2.27211e-05 2.83059e-07)
(-1.0646e-06 -1.70346e-05 2.3412e-07)
(-1.23234e-07 -8.07654e-06 1.23525e-07)
(1.24499e-07 -9.28437e-06 1.24669e-07)
(1.06669e-06 -1.95296e-05 2.35997e-07)
(2.38757e-06 -2.60306e-05 2.86029e-07)
(3.93544e-06 -3.0355e-05 3.22522e-07)
(5.55984e-06 -3.31916e-05 3.63142e-07)
(7.12891e-06 -3.4917e-05 4.1718e-07)
(8.50392e-06 -3.57755e-05 4.88095e-07)
(9.54907e-06 -3.59522e-05 5.76545e-07)
(1.01377e-05 -3.56052e-05 6.8048e-07)
(1.01641e-05 -3.48849e-05 7.95237e-07)
(9.55843e-06 -3.39434e-05 9.13731e-07)
(8.30091e-06 -3.29353e-05 1.02679e-06)
(6.43412e-06 -3.20112e-05 1.12402e-06)
(4.06797e-06 -3.13058e-05 1.19552e-06)
(1.37376e-06 -3.09229e-05 1.23331e-06)
(-1.43458e-06 -3.09194e-05 1.23327e-06)
(-4.12809e-06 -3.1295e-05 1.19541e-06)
(-6.49285e-06 -3.1993e-05 1.12386e-06)
(-8.35765e-06 -3.29096e-05 1.02661e-06)
(-9.61275e-06 -3.39102e-05 9.13616e-07)
(-1.02155e-05 -3.4844e-05 7.95323e-07)
(-1.01857e-05 -3.55569e-05 6.8073e-07)
(-9.59328e-06 -3.5897e-05 5.77015e-07)
(-8.54359e-06 -3.57144e-05 4.88767e-07)
(-7.16311e-06 -3.48515e-05 4.18055e-07)
(-5.58766e-06 -3.31247e-05 3.6422e-07)
(-3.95599e-06 -3.02906e-05 3.23778e-07)
(-2.40038e-06 -2.59736e-05 2.87367e-07)
(-1.07238e-06 -1.9487e-05 2.3722e-07)
(-1.25071e-07 -9.26498e-06 1.25406e-07)
(1.21597e-07 -1.04568e-05 1.21786e-07)
(1.03338e-06 -2.19427e-05 2.30055e-07)
(2.31049e-06 -2.92363e-05 2.79481e-07)
(3.81214e-06 -3.41387e-05 3.17792e-07)
(5.39792e-06 -3.74383e-05 3.62704e-07)
(6.94402e-06 -3.95613e-05 4.23739e-07)
(8.31724e-06 -4.07765e-05 5.04777e-07)
(9.38334e-06 -4.1279e-05 6.06717e-07)
(1.00126e-05 -4.12283e-05 7.27525e-07)
(1.00917e-05 -4.07712e-05 8.62309e-07)
(9.53952e-06 -4.00546e-05 1.00306e-06)
(8.32409e-06 -3.92278e-05 1.13903e-06)
(6.47854e-06 -3.84387e-05 1.25746e-06)
(4.10915e-06 -3.78221e-05 1.34561e-06)
(1.39134e-06 -3.74828e-05 1.39264e-06)
(-1.44846e-06 -3.74795e-05 1.39257e-06)
(-4.16532e-06 -3.78121e-05 1.34543e-06)
(-6.5329e-06 -3.84222e-05 1.2572e-06)
(-8.37578e-06 -3.92046e-05 1.13876e-06)
(-9.58793e-06 -4.00249e-05 1.00282e-06)
(-1.01365e-05 -4.07353e-05 8.62162e-07)
(-1.00535e-05 -4.11865e-05 7.27506e-07)
(-9.41993e-06 -4.12322e-05 6.06879e-07)
(-8.34908e-06 -4.07257e-05 5.05124e-07)
(-6.97061e-06 -3.95079e-05 4.24262e-07)
(-5.4188e-06 -3.73848e-05 3.63361e-07)
(-3.82697e-06 -3.40879e-05 3.18543e-07)
(-2.31939e-06 -2.91923e-05 2.80305e-07)
(-1.03712e-06 -2.19102e-05 2.30834e-07)
(-1.21903e-07 -1.04422e-05 1.22282e-07)
(1.12023e-07 -1.15652e-05 1.1223e-07)
(9.43968e-07 -2.42182e-05 2.11514e-07)
(2.10953e-06 -3.22662e-05 2.57831e-07)
(3.48732e-06 -3.77391e-05 2.96271e-07)
(4.95526e-06 -4.15229e-05 3.43871e-07)
(6.40433e-06 -4.4092e-05 4.10006e-07)
(7.71381e-06 -4.57377e-05 4.98778e-07)
(8.75721e-06 -4.66619e-05 6.11508e-07)
(9.40688e-06 -4.70206e-05 7.46556e-07)
(9.54572e-06 -4.69513e-05 8.99114e-07)
(9.08321e-06 -4.65868e-05 1.06058e-06)
(7.97429e-06 -4.6062e-05 1.2187e-06)
(6.2385e-06 -4.55115e-05 1.35828e-06)
(3.97231e-06 -4.50598e-05 1.46356e-06)
(1.34825e-06 -4.48048e-05 1.52037e-06)
(-1.40211e-06 -4.48017e-05 1.52031e-06)
(-4.02502e-06 -4.50507e-05 1.4634e-06)
(-6.28906e-06 -4.54966e-05 1.35801e-06)
(-8.02182e-06 -4.60411e-05 1.21837e-06)
(-9.12717e-06 -4.65603e-05 1.06027e-06)
(-9.58559e-06 -4.69198e-05 8.98906e-07)
(-9.44237e-06 -4.69846e-05 7.4645e-07)
(-8.78808e-06 -4.66218e-05 6.11505e-07)
(-7.73994e-06 -4.56948e-05 4.98913e-07)
(-6.4255e-06 -4.40477e-05 4.10275e-07)
(-4.97138e-06 -4.14792e-05 3.44263e-07)
(-3.49838e-06 -3.76981e-05 2.96757e-07)
(-2.11591e-06 -3.22313e-05 2.58352e-07)
(-9.46486e-07 -2.41927e-05 2.12038e-07)
(-1.12166e-07 -1.15539e-05 1.12586e-07)
(9.4341e-08 -1.25411e-05 9.45525e-08)
(7.87879e-07 -2.62168e-05 1.77681e-07)
(1.76178e-06 -3.49377e-05 2.17614e-07)
(2.92305e-06 -4.09433e-05 2.53684e-07)
(4.17693e-06 -4.52101e-05 3.01048e-07)
(5.43674e-06 -4.82561e-05 3.68387e-07)
(6.60186e-06 -5.03917e-05 4.5997e-07)
(7.56149e-06 -5.18227e-05 5.77542e-07)
(8.19769e-06 -5.26971e-05 7.19982e-07)
(8.39551e-06 -5.31362e-05 8.82748e-07)
(8.05899e-06 -5.32513e-05 1.05721e-06)
(7.13108e-06 -5.31523e-05 1.23039e-06)
(5.6156e-06 -5.29494e-05 1.38523e-06)
(3.59261e-06 -5.27436e-05 1.50333e-06)
(1.22179e-06 -5.26161e-05 1.56768e-06)
(-1.27285e-06 -5.26136e-05 1.5676e-06)
(-3.64247e-06 -5.27356e-05 1.50316e-06)
(-5.66307e-06 -5.29359e-05 1.38494e-06)
(-7.17521e-06 -5.31337e-05 1.23007e-06)
(-8.09922e-06 -5.32279e-05 1.05687e-06)
(-8.43136e-06 -5.31084e-05 8.82463e-07)
(-8.22903e-06 -5.26656e-05 7.19737e-07)
(-7.58817e-06 -5.17881e-05 5.77412e-07)
(-6.62385e-06 -5.03551e-05 4.59969e-07)
(-5.45408e-06 -4.82187e-05 3.68478e-07)
(-4.18973e-06 -4.51736e-05 3.01242e-07)
(-2.93151e-06 -4.09096e-05 2.53958e-07)
(-1.7664e-06 -3.49091e-05 2.17927e-07)
(-7.89566e-07 -2.61962e-05 1.78037e-07)
(-9.43819e-08 -1.25321e-05 9.48362e-08)
(6.75642e-08 -1.33051e-05 6.78165e-08)
(5.58251e-07 -2.77786e-05 1.26768e-07)
(1.25255e-06 -3.70398e-05 1.56514e-07)
(2.09511e-06 -4.35028e-05 1.86904e-07)
(3.02709e-06 -4.82187e-05 2.29892e-07)
(3.99199e-06 -5.17421e-05 2.92796e-07)
(4.91756e-06 -5.43973e-05 3.79583e-07)
(5.71735e-06 -5.63897e-05 4.92419e-07)
(6.29228e-06 -5.78559e-05 6.30865e-07)
(6.53815e-06 -5.88958e-05 7.91148e-07)
(6.36068e-06 -5.9592e-05 9.65146e-07)
(5.69468e-06 -6.00201e-05 1.13995e-06)
(4.52705e-06 -6.02548e-05 1.29793e-06)
(2.91515e-06 -6.03638e-05 1.41953e-06)
(9.92782e-07 -6.04016e-05 1.48624e-06)
(-1.04127e-06 -6.03996e-05 1.48617e-06)
(-2.96232e-06 -6.03571e-05 1.41937e-06)
(-4.57167e-06 -6.0243e-05 1.29762e-06)
(-5.73588e-06 -6.00038e-05 1.13957e-06)
(-6.39791e-06 -5.95713e-05 9.64708e-07)
(-6.57089e-06 -5.88712e-05 7.90798e-07)
(-6.32042e-06 -5.7828e-05 6.3056e-07)
(-5.74086e-06 -5.63594e-05 4.92229e-07)
(-4.9365e-06 -5.43656e-05 3.79489e-07)
(-4.00653e-06 -5.17099e-05 2.92762e-07)
(-3.03753e-06 -4.81878e-05 2.29959e-07)
(-2.10179e-06 -4.34745e-05 1.87044e-07)
(-1.25605e-06 -3.7016e-05 1.56754e-07)
(-5.59433e-07 -2.77614e-05 1.27032e-07)
(-6.75659e-08 -1.32976e-05 6.80462e-08)
(3.15439e-08 -1.37736e-05 3.17658e-08)
(2.54797e-07 -2.87354e-05 5.83302e-08)
(5.81485e-07 -3.835e-05 7.38013e-08)
(1.00205e-06 -4.51513e-05 9.45964e-08)
(1.5019e-06 -5.02412e-05 1.28082e-07)
(2.06119e-06 -5.41992e-05 1.79271e-07)
(2.64469e-06 -5.73582e-05 2.51684e-07)
(3.19961e-06 -5.99188e-05 3.47471e-07)
(3.65566e-06 -6.20019e-05 4.66864e-07)
(3.93001e-06 -6.3682e-05 6.07259e-07)
(3.93879e-06 -6.50081e-05 7.61666e-07)
(3.6147e-06 -6.60163e-05 9.18824e-07)
(2.92866e-06 -6.67376e-05 1.06231e-06)
(1.90901e-06 -6.71992e-05 1.17369e-06)
(6.50028e-07 -6.7423e-05 1.23518e-06)
(-6.96058e-07 -6.7421e-05 1.23509e-06)
(-1.95358e-06 -6.71928e-05 1.17346e-06)
(-2.97068e-06 -6.67267e-05 1.06192e-06)
(-3.65328e-06 -6.60015e-05 9.18377e-07)
(-3.97321e-06 -6.49894e-05 7.61201e-07)
(-3.96e-06 -6.36601e-05 6.068e-07)
(-3.68116e-06 -6.1977e-05 4.66481e-07)
(-3.22064e-06 -5.9892e-05 3.47141e-07)
(-2.66137e-06 -5.73304e-05 2.51474e-07)
(-2.07373e-06 -5.41711e-05 1.79157e-07)
(-1.51067e-06 -5.02144e-05 1.28011e-07)
(-1.00753e-06 -4.51269e-05 9.46344e-08)
(-5.84215e-07 -3.83297e-05 7.39297e-08)
(-2.5559e-07 -2.87208e-05 5.8519e-08)
(-3.14809e-08 -1.37672e-05 3.19762e-08)
(-1.2997e-08 -1.38661e-05 -1.27549e-08)
(-1.14399e-07 -2.89267e-05 -2.59576e-08)
(-2.3279e-07 -3.86552e-05 -2.85949e-08)
(-3.26249e-07 -4.56305e-05 -2.14793e-08)
(-3.58859e-07 -5.09746e-05 -3.04125e-09)
(-3.081e-07 -5.52754e-05 2.87131e-08)
(-1.64997e-07 -5.88665e-05 7.62497e-08)
(6.04808e-08 -6.19395e-05 1.4154e-07)
(3.37268e-07 -6.45973e-05 2.25502e-07)
(6.14471e-07 -6.68884e-05 3.26985e-07)
(8.28954e-07 -6.88252e-05 4.41368e-07)
(9.18448e-07 -7.04015e-05 5.6027e-07)
(8.39732e-07 -7.16029e-05 6.70513e-07)
(5.8608e-07 -7.24144e-05 7.57129e-07)
(1.9782e-07 -7.28229e-05 8.05301e-07)
(-2.41028e-07 -7.28208e-05 8.05167e-07)
(-6.27892e-07 -7.24082e-05 7.56831e-07)
(-8.78988e-07 -7.15929e-05 6.70081e-07)
(-9.54304e-07 -7.03875e-05 5.59744e-07)
(-8.60856e-07 -6.88075e-05 4.40855e-07)
(-6.42136e-07 -6.6868e-05 3.26479e-07)
(-3.6061e-07 -6.45747e-05 2.25069e-07)
(-7.95446e-08 -6.19152e-05 1.41173e-07)
(1.49991e-07 -5.88415e-05 7.59866e-08)
(2.96947e-07 -5.52506e-05 2.85543e-08)
(3.51222e-07 -5.09509e-05 -3.1184e-09)
(3.21651e-07 -4.56091e-05 -2.14687e-08)
(2.30607e-07 -3.86374e-05 -2.85151e-08)
(1.13812e-07 -2.89139e-05 -2.5799e-08)
(1.30707e-08 -1.38604e-05 -1.25715e-08)
(-6.37576e-08 -1.35167e-05 -6.35528e-08)
(-5.30641e-07 -2.82221e-05 -1.22091e-07)
(-1.14965e-06 -3.7781e-05 -1.45944e-07)
(-1.82474e-06 -4.47255e-05 -1.56013e-07)
(-2.46604e-06 -5.01594e-05 -1.57702e-07)
(-3.00502e-06 -5.46608e-05 -1.52778e-07)
(-3.38318e-06 -5.85538e-05 -1.40331e-07)
(-3.56033e-06 -6.20179e-05 -1.18637e-07)
(-3.51898e-06 -6.5138e-05 -8.59588e-08)
(-3.26756e-06 -6.79356e-05 -4.16815e-08)
(-2.8387e-06 -7.03896e-05 1.28113e-08)
(-2.28244e-06 -7.24544e-05 7.3436e-08)
(-1.65405e-06 -7.40728e-05 1.32225e-07)
(-9.99811e-07 -7.51894e-05 1.80173e-07)
(-3.45584e-07 -7.57594e-05 2.07455e-07)
(3.05666e-07 -7.57575e-05 2.07327e-07)
(9.61208e-07 -7.51836e-05 1.79843e-07)
(1.61774e-06 -7.40633e-05 1.31722e-07)
(2.2493e-06 -7.24411e-05 7.28996e-08)
(2.80928e-06 -7.03731e-05 1.22872e-08)
(3.24212e-06 -6.79165e-05 -4.22254e-08)
(3.49748e-06 -6.5117e-05 -8.64295e-08)
(3.54281e-06 -6.19956e-05 -1.1898e-07)
(3.36948e-06 -5.85312e-05 -1.40636e-07)
(2.99485e-06 -5.46385e-05 -1.52972e-07)
(2.45914e-06 -5.01385e-05 -1.57773e-07)
(1.82068e-06 -4.47065e-05 -1.56026e-07)
(1.14776e-06 -3.77653e-05 -1.45884e-07)
(5.30192e-07 -2.82108e-05 -1.21927e-07)
(6.38571e-08 -1.35117e-05 -6.33616e-08)
(-1.1724e-07 -1.26866e-05 -1.17038e-07)
(-9.64763e-07 -2.65452e-05 -2.23294e-07)
(-2.10544e-06 -3.5623e-05 -2.69984e-07)
(-3.39111e-06 -4.23015e-05 -2.99725e-07)
(-4.67894e-06 -4.76235e-05 -3.25486e-07)
(-5.85377e-06 -5.21377e-05 -3.53227e-07)
(-6.80425e-06 -5.615e-05 -3.838e-07)
(-7.43498e-06 -5.98242e-05 -4.16101e-07)
(-7.67299e-06 -6.32275e-05 -4.47578e-07)
(-7.47596e-06 -6.63581e-05 -4.75409e-07)
(-6.8383e-06 -6.9168e-05 -4.97131e-07)
(-5.79138e-06 -7.15784e-05 -5.112e-07)
(-4.39929e-06 -7.34972e-05 -5.18188e-07)
(-2.75053e-06 -7.48364e-05 -5.20018e-07)
(-9.46193e-07 -7.55251e-05 -5.19719e-07)
(9.10118e-07 -7.55231e-05 -5.19821e-07)
(2.71561e-06 -7.48308e-05 -5.20251e-07)
(4.36655e-06 -7.34879e-05 -5.18557e-07)
(5.76133e-06 -7.15653e-05 -5.1166e-07)
(6.81146e-06 -6.91521e-05 -4.9758e-07)
(7.45253e-06 -6.63398e-05 -4.75825e-07)
(7.65308e-06 -6.32076e-05 -4.47963e-07)
(7.41871e-06 -5.98037e-05 -4.16389e-07)
(6.79146e-06 -5.61292e-05 -3.84045e-07)
(5.84426e-06 -5.21175e-05 -3.53403e-07)
(4.6725e-06 -4.76048e-05 -3.25598e-07)
(3.38731e-06 -4.22849e-05 -2.99758e-07)
(2.10365e-06 -3.56093e-05 -2.69931e-07)
(9.64317e-07 -2.65353e-05 -2.23132e-07)
(1.17324e-07 -1.26822e-05 -1.16853e-07)
(-1.68416e-07 -1.13747e-05 -1.68239e-07)
(-1.37691e-06 -2.38963e-05 -3.20138e-07)
(-3.01504e-06 -3.21766e-05 -3.89254e-07)
(-4.89034e-06 -3.83402e-05 -4.39273e-07)
(-6.81233e-06 -4.33265e-05 -4.90797e-07)
(-8.62159e-06 -4.76342e-05 -5.54222e-07)
(-1.01544e-05 -5.1543e-05 -6.32316e-07)
(-1.12581e-05 -5.51989e-05 -7.24677e-07)
(-1.18008e-05 -5.86538e-05 -8.28206e-07)
(-1.16853e-05 -6.18903e-05 -9.37588e-07)
(-1.08619e-05 -6.48405e-05 -1.04587e-06)
(-9.33839e-06 -6.74038e-05 -1.14517e-06)
(-7.18494e-06 -6.94653e-05 -1.22779e-06)
(-4.53185e-06 -7.0914e-05 -1.28685e-06)
(-1.55794e-06 -7.16621e-05 -1.31748e-06)
(1.52667e-06 -7.166e-05 -1.31757e-06)
(4.50137e-06 -7.09079e-05 -1.28708e-06)
(7.15601e-06 -6.94555e-05 -1.22809e-06)
(9.31155e-06 -6.73909e-05 -1.1455e-06)
(1.08376e-05 -6.48251e-05 -1.04623e-06)
(1.16638e-05 -6.1873e-05 -9.37898e-07)
(1.17823e-05 -5.86354e-05 -8.28479e-07)
(1.12428e-05 -5.518e-05 -7.24927e-07)
(1.01422e-05 -5.15241e-05 -6.32507e-07)
(8.61246e-06 -4.76162e-05 -5.54359e-07)
(6.80605e-06 -4.33099e-05 -4.90883e-07)
(4.88656e-06 -3.83257e-05 -4.39233e-07)
(3.01335e-06 -3.21647e-05 -3.89165e-07)
(1.37651e-06 -2.38877e-05 -3.19977e-07)
(1.68501e-07 -1.13709e-05 -1.68051e-07)
(-2.10999e-07 -9.63026e-06 -2.10847e-07)
(-1.7192e-06 -2.0374e-05 -4.00662e-07)
(-3.77732e-06 -2.75652e-05 -4.88706e-07)
(-6.16265e-06 -3.29732e-05 -5.56798e-07)
(-8.64779e-06 -3.7396e-05 -6.32521e-07)
(-1.10343e-05 -4.12663e-05 -7.30375e-07)
(-1.31101e-05 -4.48307e-05 -8.55331e-07)
(-1.46673e-05 -4.82164e-05 -1.00788e-06)
(-1.55166e-05 -5.14639e-05 -1.18422e-06)
(-1.55053e-05 -5.45469e-05 -1.37663e-06)
(-1.45384e-05 -5.73894e-05 -1.57372e-06)
(-1.25976e-05 -5.98822e-05 -1.76086e-06)
(-9.75563e-06 -6.19012e-05 -1.92169e-06)
(-6.18015e-06 -6.33275e-05 -2.04005e-06)
(-2.12443e-06 -6.40659e-05 -2.10292e-06)
(2.09842e-06 -6.40639e-05 -2.10295e-06)
(6.15456e-06 -6.33215e-05 -2.04014e-06)
(9.73099e-06 -6.18918e-05 -1.9218e-06)
(1.25743e-05 -5.98697e-05 -1.76098e-06)
(1.45167e-05 -5.73747e-05 -1.57383e-06)
(1.54856e-05 -5.45307e-05 -1.37672e-06)
(1.54993e-05 -5.14469e-05 -1.18432e-06)
(1.46527e-05 -4.81992e-05 -1.00796e-06)
(1.30982e-05 -4.4814e-05 -8.55381e-07)
(1.10254e-05 -4.12506e-05 -7.30396e-07)
(8.64157e-06 -3.73816e-05 -6.32561e-07)
(6.15886e-06 -3.29607e-05 -5.5675e-07)
(3.77553e-06 -2.7555e-05 -4.88598e-07)
(1.71871e-06 -2.03668e-05 -4.00484e-07)
(2.11063e-07 -9.62709e-06 -2.1066e-07)
(-2.37593e-07 -7.56071e-06 -2.37457e-07)
(-1.93794e-06 -1.61898e-05 -4.50625e-07)
(-4.28225e-06 -2.20567e-05 -5.50179e-07)
(-7.03711e-06 -2.65026e-05 -6.30177e-07)
(-9.95302e-06 -3.01574e-05 -7.23856e-07)
(-1.28004e-05 -3.33758e-05 -8.49263e-07)
(-1.53255e-05 -3.63663e-05 -1.01356e-06)
(-1.72729e-05 -3.92375e-05 -1.21812e-06)
(-1.84019e-05 -4.20224e-05 -1.45873e-06)
(-1.85103e-05 -4.4694e-05 -1.72555e-06)
(-1.7461e-05 -4.71791e-05 -2.0031e-06)
(-1.521e-05 -4.93744e-05 -2.27051e-06)
(-1.18287e-05 -5.11627e-05 -2.50337e-06)
(-7.51477e-06 -5.24308e-05 -2.67659e-06)
(-2.58374e-06 -5.3089e-05 -2.76928e-06)
(2.5634e-06 -5.30871e-05 -2.76923e-06)
(7.49445e-06 -5.24252e-05 -2.67649e-06)
(1.18086e-05 -5.11541e-05 -2.50324e-06)