/*--------------------------------*- C++ -*----------------------------------*\
| =========                 |                                                 |
| \\      /  F ield         | OpenFOAM: The Open Source CFD Toolbox           |
|  \\    /   O peration     | Version:  v1912                                 |
|   \\  /    A nd           | Website:  www.openfoam.com                      |
|    \\/     M anipulation  |                                                 |
\*---------------------------------------------------------------------------*/
FoamFile
{
    version     2.0;
    format      ascii;
    class       surfaceScalarField;
    location    "202/oil";
    object      phi;
}
// * * * * * * * * * * * * * * * * * * * * * * * * * * * * * * * * * * * * * //

dimensions      [1 0 -1 0 0 0 0];
oriented        oriented;


internalField   nonuniform List<scalar> 
104676
(
-9.69577e-12
2.52667e-11
-1.25972e-11
2.5766e-10
-2.11646e-10
-5.56058e-11
8.04285e-10
-3.96234e-10
-1.50411e-10
1.54552e-09
-4.83059e-10
-2.58122e-10
2.37234e-09
-4.93761e-10
-3.33001e-10
3.176e-09
-4.49032e-10
-3.54578e-10
3.85842e-09
-3.65103e-10
-3.17265e-10
4.33762e-09
-2.54011e-10
-2.25142e-10
4.54972e-09
-1.2506e-10
-8.70021e-11
4.46005e-09
1.01549e-11
7.9554e-11
4.05165e-09
1.49807e-10
2.58659e-10
3.35278e-09
2.63796e-10
4.35141e-10
2.39997e-09
3.67386e-10
5.85513e-10
1.26159e-09
4.42432e-10
6.96045e-10
2.47087e-11
4.82107e-10
7.54859e-10
-1.2161e-09
4.84275e-10
7.56593e-10
-2.35776e-09
4.42907e-10
6.98796e-10
-3.31464e-09
3.67177e-10
5.8972e-10
-4.02054e-09
2.65504e-10
4.40426e-10
-4.43424e-09
1.46698e-10
2.67059e-10
-4.53508e-09
1.1324e-11
8.95987e-11
-4.32788e-09
-1.27486e-10
-7.96153e-11
-3.85275e-09
-2.55944e-10
-2.19092e-10
-3.17345e-09
-3.66906e-10
-3.12314e-10
-2.37238e-09
-4.50486e-10
-3.5052e-10
-1.54745e-09
-4.96111e-10
-3.28765e-10
-8.06883e-10
-4.8673e-10
-2.53788e-10
-2.59868e-10
-4.00599e-10
-1.46378e-10
8.72592e-12
-2.15885e-10
-5.26711e-11
2.0189e-11
-1.14441e-11
2.6296e-10
-5.00602e-10
2.62982e-10
1.01295e-09
-1.50112e-09
5.39518e-10
2.20366e-09
-2.25488e-09
6.67993e-10
3.70251e-09
-2.71363e-09
7.31783e-10
5.32933e-09
-2.93323e-09
8.12729e-10
6.8902e-09
-2.96802e-09
9.58193e-10
8.20201e-09
-2.86444e-09
1.1876e-09
9.10632e-09
-2.65905e-09
1.50079e-09
9.47967e-09
-2.38248e-09
1.88411e-09
9.24301e-09
-2.0623e-09
2.30916e-09
8.35952e-09
-1.72551e-09
2.75887e-09
6.87799e-09
-1.43059e-09
3.17601e-09
4.90913e-09
-1.17121e-09
3.50757e-09
2.57759e-09
-9.83537e-10
3.75763e-09
4.97962e-11
-8.85351e-10
3.89536e-09
-2.48788e-09
-8.859e-10
3.90792e-09
-4.82597e-09
-9.87928e-10
3.76897e-09
-6.79695e-09
-1.17881e-09
3.517e-09
-8.26653e-09
-1.4387e-09
3.17381e-09
-9.15286e-09
-1.73926e-09
2.77236e-09
-9.40375e-09
-2.07145e-09
2.33377e-09
-9.04314e-09
-2.38934e-09
1.90136e-09
-8.1543e-09
-2.66322e-09
1.51856e-09
-6.85911e-09
-2.86778e-09
1.20579e-09
-5.31196e-09
-2.97234e-09
9.74792e-10
-3.69736e-09
-2.93914e-09
8.28496e-10
-2.20623e-09
-2.72366e-09
7.4586e-10
-1.01651e-09
-2.26826e-09
6.77998e-10
-2.63983e-10
-1.51232e-09
5.43954e-10
-5.06876e-10
2.63105e-10
5.52123e-10
-1.61018e-09
5.5741e-10
1.75396e-09
-3.89494e-09
1.19201e-09
3.43885e-09
-5.52629e-09
1.58657e-09
5.44101e-09
-6.58994e-09
1.87422e-09
7.55326e-09
-7.20064e-09
2.15525e-09
9.54759e-09
-7.45314e-09
2.49087e-09
1.12013e-08
-7.42882e-09
2.91074e-09
1.23171e-08
-7.19473e-09
3.41994e-09
1.2741e-08
-6.81178e-09
4.00543e-09
1.23746e-08
-6.3311e-09
4.63527e-09
1.11696e-08
-5.8082e-09
5.28778e-09
9.17696e-09
-5.31392e-09
5.87603e-09
6.54094e-09
-4.88049e-09
6.34542e-09
3.43145e-09
-4.56403e-09
6.69012e-09
6.4085e-11
-4.40086e-09
6.883e-09
-3.31946e-09
-4.40857e-09
6.90629e-09
-6.43886e-09
-4.5746e-09
6.70611e-09
-9.07557e-09
-4.8927e-09
6.35063e-09
-1.1057e-08
-5.32289e-09
5.8656e-09
-1.2278e-08
-5.82148e-09
5.30331e-09
-1.2665e-08
-6.3432e-09
4.65888e-09
-1.22563e-08
-6.82034e-09
4.02248e-09
-1.11566e-08
-7.2014e-09
3.43854e-09
-9.51959e-09
-7.43385e-09
2.92921e-09
-7.54068e-09
-7.45958e-09
2.50841e-09
-5.43906e-09
-7.21155e-09
2.17086e-09
-3.44391e-09
-6.60542e-09
1.88666e-09
-1.7605e-09
-5.54521e-09
1.59359e-09
-5.55299e-10
-3.90992e-09
1.19245e-09
-1.61845e-09
5.563e-10
7.91329e-10
-3.20247e-09
8.00969e-10
2.37318e-09
-7.20409e-09
1.72733e-09
4.45869e-09
-9.94729e-09
2.33555e-09
6.84416e-09
-1.17795e-08
2.80416e-09
9.30168e-09
-1.29112e-08
3.25316e-09
1.15859e-08
-1.34874e-08
3.75018e-09
1.34557e-08
-1.36283e-08
4.32973e-09
1.46954e-08
-1.34332e-08
4.99881e-09
1.513e-08
-1.29923e-08
5.7459e-09
1.46461e-08
-1.23881e-08
6.54099e-09
1.3187e-08
-1.17041e-08
7.3551e-09
1.08214e-08
-1.1022e-08
8.07375e-09
7.70655e-09
-1.0428e-08
8.66251e-09
4.03999e-09
-9.97015e-09
9.07282e-09
7.25293e-11
-9.73686e-09
9.30359e-09
-3.91635e-09
-9.75327e-09
9.33366e-09
-7.5959e-09
-9.98151e-09
9.08649e-09
-1.07133e-08
-1.04271e-08
8.65187e-09
-1.3069e-08
-1.10242e-08
8.057e-09
-1.45414e-08
-1.17091e-08
7.36005e-09
-1.50442e-08
-1.23933e-08
6.55311e-09
-1.46267e-08
-1.29961e-08
5.75832e-09
-1.34055e-08
-1.34366e-08
5.01413e-09
-1.15527e-08
-1.36314e-08
4.34476e-09
-9.28492e-09
-1.3493e-08
3.76581e-09
-6.84138e-09
-1.29224e-08
3.26735e-09
-4.4628e-09
-1.17978e-08
2.81387e-09
-2.37965e-09
-9.96524e-09
2.33693e-09
-7.97142e-10
-7.21056e-09
1.71817e-09
-3.21359e-09
7.98029e-10
9.71773e-10
-5.15501e-09
9.80769e-10
2.84694e-09
-1.11979e-08
2.11865e-09
5.24635e-09
-1.52331e-08
2.88645e-09
7.92772e-09
-1.79496e-08
3.48886e-09
1.06441e-08
-1.96915e-08
4.06395e-09
1.31382e-08
-2.0669e-08
4.68764e-09
1.5159e-08
-2.10453e-08
5.39628e-09
1.6479e-08
-2.0953e-08
6.19975e-09
1.69154e-08
-2.05116e-08
7.08304e-09
1.63431e-08
-1.98332e-08
8.01745e-09
1.47016e-08
-1.90327e-08
8.97013e-09
1.2062e-08
-1.82103e-08
9.82795e-09
8.58311e-09
-1.74719e-08
1.0523e-08
4.49672e-09
-1.68722e-08
1.09886e-08
7.8141e-11
-1.65689e-08
1.12507e-08
-4.36553e-09
-1.65913e-08
1.12818e-08
-8.46132e-09
-1.68865e-08
1.10008e-08
-1.19364e-08
-1.74501e-08
1.04981e-08
-1.45753e-08
-1.82042e-08
9.81883e-09
-1.62318e-08
-1.90316e-08
8.97914e-09
-1.68236e-08
-1.98332e-08
8.03183e-09
-1.6406e-08
-2.05118e-08
7.09829e-09
-1.51038e-08
-2.09542e-08
6.21562e-09
-1.30994e-08
-2.10476e-08
5.41198e-09
-1.06214e-08
-2.06735e-08
4.70255e-09
-7.91983e-09
-1.97005e-08
4.07658e-09
-5.24871e-09
-1.7965e-08
3.4961e-09
-2.85159e-09
-1.52466e-08
2.88427e-09
-9.76852e-10
-1.11905e-08
2.10522e-09
-5.16862e-09
9.78201e-10
1.09302e-09
-7.35169e-09
1.10366e-09
3.17649e-09
-1.56613e-08
2.37996e-09
5.80416e-09
-2.11183e-08
3.2576e-09
8.70029e-09
-2.48013e-08
3.95564e-09
1.16035e-08
-2.72173e-08
4.62267e-09
1.42484e-08
-2.86575e-08
5.34372e-09
1.63785e-08
-2.93325e-08
6.1572e-09
1.77599e-08
-2.94095e-08
7.07521e-09
1.82029e-08
-2.90356e-08
8.081e-09
1.75778e-08
-2.83487e-08
9.14064e-09
1.5821e-08
-2.74894e-08
1.02135e-08
1.29811e-08
-2.65956e-08
1.12253e-08
9.23288e-09
-2.5754e-08
1.20304e-08
4.83429e-09
-2.50227e-08
1.25493e-08
7.84998e-11
-2.46407e-08
1.28278e-08
-4.70458e-09
-2.46651e-08
1.2857e-08
-9.10377e-09
-2.50561e-08
1.25688e-08
-1.28406e-08
-2.57122e-08
1.19988e-08
-1.56854e-08
-2.65824e-08
1.1223e-08
-1.74602e-08
-2.74853e-08
1.02286e-08
-1.81071e-08
-2.83455e-08
9.15927e-09
-1.76842e-08
-2.90342e-08
8.09968e-09
-1.63211e-08
-2.94106e-08
7.09332e-09
-1.42077e-08
-2.93351e-08
6.17418e-09
-1.15773e-08
-2.8662e-08
5.35817e-09
-8.68786e-09
-2.72244e-08
4.63458e-09
-5.80294e-09
-2.48112e-08
3.96128e-09
-3.18145e-09
-2.11206e-08
3.25259e-09
-1.09871e-09
-1.56392e-08
2.36601e-09
-7.36964e-09
1.10233e-09
1.15407e-09
-9.68503e-09
1.17926e-09
3.36577e-09
-2.04226e-08
2.54963e-09
6.13745e-09
-2.7375e-08
3.48502e-09
9.16688e-09
-3.20667e-08
4.23595e-09
1.21849e-08
-3.52005e-08
4.9653e-09
1.49234e-08
-3.71549e-08
5.75898e-09
1.71247e-08
-3.81909e-08
6.65716e-09
1.85506e-08
-3.85097e-08
7.67434e-09
1.90083e-08
-3.82841e-08
8.79097e-09
1.83608e-08
-3.76711e-08
9.96981e-09
1.65431e-08
-3.68354e-08
1.11638e-08
1.35715e-08
-3.59378e-08
1.23139e-08
9.65715e-09
-3.50746e-08
1.32351e-08
5.05571e-09
-3.4224e-08
1.3803e-08
8.50633e-11
-3.37704e-08
1.41005e-08
-4.90863e-09
-3.38076e-08
1.41364e-08
-9.52607e-09
-3.42873e-08
1.38486e-08
-1.34276e-08
-3.50245e-08
1.32138e-08
-1.64039e-08
-3.59253e-08
1.23192e-08
-1.82409e-08
-3.68349e-08
1.11867e-08
-1.89101e-08
-3.76715e-08
9.99532e-09
-1.84734e-08
-3.82854e-08
8.81468e-09
-1.7066e-08
-3.85134e-08
7.69557e-09
-1.48816e-08
-3.81966e-08
6.67723e-09
-1.21568e-08
-3.71613e-08
5.77458e-09
-9.15195e-09
-3.52065e-08
4.97721e-09
-6.13453e-09
-3.20681e-08
4.23955e-09
-3.3742e-09
-2.73536e-08
3.47269e-09
-1.16819e-09
-2.0368e-08
2.52283e-09
-9.71399e-09
1.17618e-09
1.17698e-09
-1.20663e-08
1.20429e-09
3.42612e-09
-2.52864e-08
2.61462e-09
6.24553e-09
-3.3772e-08
3.57764e-09
9.32072e-09
-3.94929e-08
4.35113e-09
1.23735e-08
-4.33642e-08
5.11105e-09
1.51399e-08
-4.58747e-08
5.95352e-09
1.73665e-08
-4.73337e-08
6.91636e-09
1.88163e-08
-4.79729e-08
8.01355e-09
1.92923e-08
-4.79862e-08
9.22611e-09
1.86552e-08
-4.75473e-08
1.05133e-08
1.68282e-08
-4.68308e-08
1.18224e-08
1.38109e-08
-4.6019e-08
1.30986e-08
9.82215e-09
-4.52357e-08
1.415e-08
5.13465e-09
-4.42873e-08
1.47509e-08
8.47136e-11
-4.38026e-08
1.50823e-08
-4.99541e-09
-4.38482e-08
1.51209e-08
-9.7172e-09
-4.43525e-08
1.4787e-08
-1.36761e-08
-4.51828e-08
1.41171e-08
-1.66906e-08
-4.60098e-08
1.3099e-08
-1.85356e-08
-4.68348e-08
1.18449e-08
-1.91951e-08
-4.75512e-08
1.05394e-08
-1.87397e-08
-4.79914e-08
9.25074e-09
-1.73077e-08
-4.79816e-08
8.03632e-09
-1.50972e-08
-4.7345e-08
6.93794e-09
-1.23441e-08
-4.58857e-08
5.97137e-09
-9.30484e-09
-4.33692e-08
5.12339e-09
-6.24606e-09
-3.94742e-08
4.3473e-09
-3.43991e-09
-3.37108e-08
3.55108e-09
-1.18988e-09
-2.5197e-08
2.57901e-09
-1.21073e-08
1.20346e-09
1.15664e-09
-1.44055e-08
1.18255e-09
3.3524e-09
-3.00619e-08
2.5797e-09
6.11448e-09
-4.0086e-08
3.55186e-09
9.13677e-09
-4.68417e-08
4.32656e-09
1.21389e-08
-5.14459e-08
5.07961e-09
1.48561e-08
-5.45226e-08
5.93087e-09
1.7049e-08
-5.6453e-08
6.92648e-09
1.84899e-08
-5.74869e-08
8.07322e-09
1.89816e-08
-5.78282e-08
9.35019e-09
1.8382e-08
-5.76635e-08
1.07158e-08
1.66182e-08
-5.71709e-08
1.21039e-08
1.36767e-08
-5.65264e-08
1.34489e-08
9.71057e-09
-5.58773e-08
1.46079e-08
5.06977e-09
-5.49003e-08
1.52541e-08
8.06051e-11
-5.44576e-08
1.56444e-08
-4.94509e-09
-5.44981e-08
1.56757e-08
-9.63321e-09
-5.49251e-08
1.52607e-08
-1.35644e-08
-5.5797e-08
1.45453e-08
-1.64871e-08
-5.65184e-08
1.34313e-08
-1.82653e-08
-5.7179e-08
1.21225e-08
-1.88855e-08
-5.76732e-08
1.07423e-08
-1.84138e-08
-5.78389e-08
9.37589e-09
-1.69909e-08
-5.75012e-08
8.09687e-09
-1.48133e-08
-5.64711e-08
6.94863e-09
-1.21108e-08
-5.45347e-08
5.94651e-09
-9.13069e-09
-5.14244e-08
5.07512e-09
-6.13037e-09
-4.67627e-08
4.28815e-09
-3.3761e-09
-3.99588e-08
3.49371e-09
-1.1647e-09
-2.99472e-08
2.5388e-09
-1.44553e-08
1.18334e-09
1.09741e-09
-1.6612e-08
1.10896e-09
3.1702e-09
-3.4557e-08
2.42227e-09
5.75108e-09
-4.60359e-08
3.36898e-09
8.59531e-09
-5.38259e-08
4.13995e-09
1.1444e-08
-5.91662e-08
4.87175e-09
1.40246e-08
-6.27883e-08
5.68529e-09
1.61124e-08
-6.52065e-08
6.66591e-09
1.74972e-08
-6.66877e-08
7.81609e-09
1.79944e-08
-6.74336e-08
9.10836e-09
1.74584e-08
-6.76282e-08
1.05007e-08
1.58198e-08
-6.74486e-08
1.19161e-08
1.30654e-08
-6.70531e-08
1.32811e-08
9.24752e-09
-6.65558e-08
1.44966e-08
4.82518e-09
-6.56762e-08
1.51985e-08
7.51382e-11
-6.53195e-08
1.56122e-08
-4.70319e-09
-6.53578e-08
1.56382e-08
-9.15727e-09
-6.56531e-08
1.51821e-08
-1.29559e-08
-6.63944e-08
1.43959e-08
-1.56974e-08
-6.70329e-08
1.3256e-08
-1.7346e-08
-6.74626e-08
1.19322e-08
-1.79018e-08
-6.76437e-08
1.05264e-08
-1.74249e-08
-6.74493e-08
9.13368e-09
-1.60559e-08
-6.67092e-08
7.83923e-09
-1.39809e-08
-6.52315e-08
6.68542e-09
-1.14221e-08
-6.27799e-08
5.68641e-09
-8.606e-09
-5.90665e-08
4.826e-09
-5.77039e-09
-5.36559e-08
4.05761e-09
-3.17322e-09
-4.58499e-08
3.29393e-09
-1.09373e-09
-3.44154e-08
2.38878e-09
-1.66638e-08
1.11476e-09
9.90385e-10
-1.85868e-08
9.84338e-10
2.86751e-09
-3.85562e-08
2.12202e-09
5.18057e-09
-5.13196e-08
2.97061e-09
7.70756e-09
-6.00778e-08
3.72491e-09
1.02701e-08
-6.61606e-08
4.43185e-09
1.26068e-08
-7.0309e-08
5.18428e-09
1.45076e-08
-7.32063e-08
6.09921e-09
1.57835e-08
-7.516e-08
7.19642e-09
1.62639e-08
-7.63507e-08
8.43674e-09
1.5816e-08
-7.69499e-08
9.76944e-09
1.4389e-08
-7.71138e-08
1.10921e-08
1.19458e-08
-7.69566e-08
1.23466e-08
8.42806e-09
-7.65734e-08
1.35356e-08
4.38958e-09
-7.59987e-08
1.43614e-08
6.84362e-11
-7.57912e-08
1.47932e-08
-4.27029e-09
-7.58298e-08
1.48109e-08
-8.28902e-09
-7.59806e-08
1.43461e-08
-1.17444e-08
-7.64948e-08
1.35556e-08
-1.42234e-08
-7.70569e-08
1.25029e-08
-1.57013e-08
-7.71616e-08
1.1177e-08
-1.61737e-08
-7.69727e-08
9.8016e-09
-1.5715e-08
-7.63649e-08
8.45714e-09
-1.44524e-08
-7.51851e-08
7.21344e-09
-1.256e-08
-7.32336e-08
6.10967e-09
-1.02465e-08
-7.02538e-08
5.16041e-09
-7.70675e-09
-6.59523e-08
4.34598e-09
-5.14779e-09
-5.98368e-08
3.62183e-09
-2.81691e-09
-5.11036e-08
2.92276e-09
-9.61605e-10
-3.83854e-08
2.11468e-09
-1.86169e-08
9.9146e-10
8.34551e-10
-2.02339e-08
8.12462e-10
2.43404e-09
-4.18617e-08
1.70585e-09
4.38868e-09
-5.56208e-08
2.34641e-09
6.50833e-09
-6.51874e-08
2.98983e-09
8.61969e-09
-7.19417e-08
3.66986e-09
1.05808e-08
-7.66407e-08
4.37075e-09
1.22021e-08
-8.00053e-08
5.17787e-09
1.33169e-08
-8.24306e-08
6.15591e-09
1.37704e-08
-8.407e-08
7.26575e-09
1.34414e-08
-8.50438e-08
8.42263e-09
1.22496e-08
-8.54786e-08
9.55646e-09
1.01202e-08
-8.55852e-08
1.07579e-08
7.15015e-09
-8.54947e-08
1.18916e-08
3.73555e-09
-8.52392e-08
1.26555e-08
5.77946e-11
-8.51573e-08
1.30442e-08
-3.647e-09
-8.51355e-08
1.30106e-08
-7.06925e-09
-8.51053e-08
1.25469e-08
-9.99849e-09
-8.53765e-08
1.18107e-08
-1.20907e-08
-8.58313e-08
1.08665e-08
-1.33103e-08
-8.55697e-08
9.62771e-09
-1.36707e-08
-8.50366e-08
8.42453e-09
-1.32479e-08
-8.40442e-08
7.25663e-09
-1.21482e-08
-8.24404e-08
6.15581e-09
-1.05181e-08
-8.00335e-08
5.16977e-09
-8.55874e-09
-7.65472e-08
4.33399e-09
-6.43278e-09
-7.17173e-08
3.63898e-09
-4.31983e-09
-6.50013e-08
3.05155e-09
-2.3794e-09
-5.55256e-08
2.48162e-09
-8.21093e-10
-4.17425e-08
1.79878e-09
-2.02776e-08
8.3967e-10
6.40328e-10
-2.14868e-08
6.12548e-10
1.84408e-09
-4.43702e-08
1.30466e-09
3.35331e-09
-5.88917e-08
1.76151e-09
4.96964e-09
-6.89595e-08
2.15568e-09
6.53658e-09
-7.61528e-08
2.64418e-09
7.99533e-09
-8.13349e-08
3.23578e-09
9.2259e-09
-8.51387e-08
3.90322e-09
1.0116e-08
-8.79821e-08
4.66164e-09
1.05508e-08
-9.00166e-08
5.51176e-09
1.0319e-08
-9.12453e-08
6.43304e-09
9.29747e-09
-9.19146e-08
7.45715e-09
7.58545e-09
-9.23824e-08
8.50914e-09
5.43308e-09
-9.27384e-08
9.3963e-09
2.87274e-09
-9.26844e-08
1.00061e-08
5.08771e-11
-9.2634e-08
1.0299e-08
-2.81884e-09
-9.24973e-08
1.02316e-08
-5.43369e-09
-9.23468e-08
9.85608e-09
-7.63516e-09
-9.23985e-08
9.22317e-09
-9.29671e-09
-9.2498e-08
8.32798e-09
-1.02179e-08
-9.18788e-08
7.23042e-09
-1.04419e-08
-9.10952e-08
6.28283e-09
-1.00844e-08
-8.98075e-08
5.40617e-09
-9.24275e-09
-8.78827e-08
4.60092e-09
-8.0198e-09
-8.51794e-08
3.92295e-09
-6.53003e-09
-8.13757e-08
3.33861e-09
-4.91132e-09
-7.61435e-08
2.80734e-09
-3.29784e-09
-6.89523e-08
2.33744e-09
-1.81597e-09
-5.88933e-08
1.88581e-09
-6.27561e-10
-4.42938e-08
1.36298e-09
-2.15401e-08
6.35071e-10
4.32611e-10
-2.22922e-08
3.72634e-10
1.16658e-09
-4.58875e-08
7.83149e-10
2.10861e-09
-6.09665e-08
1.13246e-09
3.13115e-09
-7.1396e-08
1.41375e-09
4.13472e-09
-7.88938e-08
1.73751e-09
5.07436e-09
-8.43846e-08
2.11033e-09
5.86369e-09
-8.84343e-08
2.50668e-09
6.39972e-09
-9.14222e-08
2.90443e-09
6.68844e-09
-9.36432e-08
3.3378e-09
6.51972e-09
-9.5052e-08
3.97509e-09
5.84899e-09
-9.60031e-08
4.75877e-09
4.81155e-09
-9.68248e-08
5.47957e-09
3.45488e-09
-9.7425e-08
6.04351e-09
1.83403e-09
-9.74983e-08
6.43537e-09
5.96991e-11
-9.75122e-08
6.6531e-09
-1.74253e-09
-9.73296e-08
6.63465e-09
-3.39549e-09
-9.71084e-08
6.41424e-09
-4.76012e-09
-9.70462e-08
6.01177e-09
-5.82598e-09
-9.68951e-08
5.46263e-09
-6.4811e-09
-9.59618e-08
4.73814e-09
-6.72472e-09
-9.48245e-08
3.97333e-09
-6.53369e-09
-9.32589e-08
3.26074e-09
-5.95634e-09
-9.11736e-08
2.71377e-09
-5.10389e-09
-8.83709e-08
2.33912e-09
-4.12018e-09
-8.44018e-08
2.04227e-09
-3.08683e-09
-7.89301e-08
1.75302e-09
-2.06706e-09
-7.14384e-08
1.46618e-09
-1.13492e-09
-6.10076e-08
1.18207e-09
-3.926e-10
-4.58885e-08
8.52428e-10
-2.23295e-08
3.9687e-10
1.5814e-10
-2.25772e-08
1.26805e-10
4.05807e-10
-4.64069e-08
2.71413e-10
7.37793e-10
-6.17039e-08
4.05029e-10
1.10267e-09
-7.22669e-08
5.05806e-10
1.47168e-09
-7.98695e-08
6.06764e-10
1.84594e-09
-8.54495e-08
6.9117e-10
2.1941e-09
-8.95469e-08
7.651e-10
2.40214e-09
-9.25147e-08
8.84837e-10
2.43154e-09
-9.47446e-08
1.07192e-09
2.30042e-09
-9.62597e-08
1.33821e-09
2.09173e-09
-9.74124e-08
1.61719e-09
1.78634e-09
-9.83732e-08
1.85338e-09
1.21323e-09
-9.88654e-08
2.01382e-09
6.05475e-10
-9.90175e-08
2.12774e-09
3.66136e-11
-9.91844e-08
2.24188e-09
-5.97488e-10
-9.90339e-08
2.33858e-09
-1.19175e-09
-9.88485e-08
2.33381e-09
-1.66223e-09
-9.87572e-08
2.18074e-09
-2.03263e-09
-9.85027e-08
1.97753e-09
-2.26121e-09
-9.74614e-08
1.72827e-09
-2.35349e-09
-9.61966e-08
1.465e-09
-2.29485e-09
-9.45277e-08
1.21085e-09
-2.09318e-09
-9.23783e-08
1.00341e-09
-1.79123e-09
-8.95185e-08
8.45675e-10
-1.44055e-09
-8.54673e-08
7.14607e-10
-1.07377e-09
-7.9894e-08
5.9689e-10
-7.13284e-10
-7.22927e-08
4.93696e-10
-3.87299e-10
-6.17308e-08
3.97263e-10
-1.33272e-10
-4.6426e-08
2.83611e-10
-2.25992e-08
1.36555e-10
-1.11324e-10
-2.23438e-08
-1.22212e-10
-3.45786e-10
-4.59262e-08
-2.46562e-10
-6.34002e-10
-6.10799e-08
-3.36182e-10
-9.48928e-10
-7.15335e-08
-4.18758e-10
-1.273e-09
-7.90498e-08
-4.9549e-10
-1.59813e-09
-8.45737e-08
-5.49993e-10
-1.90151e-09
-8.86519e-08
-5.9066e-10
-2.09422e-09
-9.16504e-08
-6.70973e-10
-2.09835e-09
-9.38824e-08
-8.58309e-10
-1.95802e-09
-9.52618e-08
-1.13922e-09
-1.77623e-09
-9.61889e-08
-1.40647e-09
-1.61866e-09
-9.69459e-08
-1.58543e-09
-1.36735e-09
-9.74148e-08
-1.70141e-09
-8.4194e-10
-9.7719e-08
-1.82276e-09
-7.63569e-11
-9.79412e-08
-2.00781e-09
5.51134e-10
-9.75819e-08
-2.0793e-09
1.08989e-09
-9.73928e-08
-1.99511e-09
1.57356e-09
-9.73788e-08
-1.86311e-09
1.83944e-09
-9.70755e-08
-1.6936e-09
2.01087e-09
-9.6138e-08
-1.49461e-09
2.09696e-09
-9.50096e-08
-1.2724e-09
2.05153e-09
-9.34371e-08
-1.04442e-09
1.89156e-09
-9.13522e-08
-8.65689e-10
1.62197e-09
-8.85122e-08
-7.36821e-10
1.30913e-09
-8.45167e-08
-6.38035e-10
9.84559e-10
-7.90253e-08
-5.44423e-10
6.60553e-10
-7.15177e-08
-4.51122e-10
3.67076e-10
-6.10797e-08
-3.57532e-10
1.3224e-10
-4.59426e-08
-2.48398e-10
-2.2351e-08
-1.1572e-10
-3.78029e-10
-2.15847e-08
-3.81261e-10
-1.09795e-09
-4.4391e-08
-8.15646e-10
-1.99629e-09
-5.90496e-08
-1.13256e-09
-2.97941e-09
-6.91444e-08
-1.40644e-09
-3.96617e-09
-7.63704e-08
-1.69227e-09
-4.87987e-09
-8.16473e-08
-2.01161e-09
-5.63856e-09
-8.55228e-08
-2.36914e-09
-6.17615e-09
-8.83401e-08
-2.77199e-09
-6.42585e-09
-9.04087e-08
-3.22437e-09
-6.23551e-09
-9.16431e-08
-3.81051e-09
-5.59674e-09
-9.2285e-08
-4.54435e-09
-4.67469e-09
-9.26631e-08
-5.20559e-09
-3.41829e-09
-9.29566e-08
-5.71396e-09
-1.83725e-09
-9.31853e-08
-6.11311e-09
-2.86431e-11
-9.33765e-08
-6.37194e-09
1.71686e-09
-9.29794e-08
-6.34769e-09
3.35643e-09
-9.29054e-08
-6.12803e-09
4.79024e-09
-9.30822e-08
-5.73185e-09
5.65009e-09
-9.27507e-08
-5.18551e-09
6.20989e-09
-9.21343e-08
-4.5632e-09
6.45899e-09
-9.14101e-08
-3.84756e-09
6.27473e-09
-9.01512e-08
-3.10056e-09
5.73893e-09
-8.82071e-08
-2.60877e-09
4.91816e-09
-8.541e-08
-2.2814e-09
3.97503e-09
-8.15868e-08
-1.98723e-09
2.99832e-09
-7.63558e-08
-1.69314e-09
2.01828e-09
-6.91432e-08
-1.39467e-09
1.12819e-09
-5.90867e-08
-1.10283e-09
4.09872e-10
-4.44568e-08
-7.67208e-10
-2.15749e-08
-3.65935e-10
-6.1864e-10
-2.03465e-08
-6.19668e-10
-1.78291e-09
-4.18962e-08
-1.33097e-09
-3.23658e-09
-5.5749e-08
-1.84769e-09
-4.82006e-09
-6.52674e-08
-2.29394e-09
-6.40194e-09
-7.20284e-08
-2.75974e-09
-7.8453e-09
-7.69036e-08
-3.29906e-09
-9.02145e-09
-8.04246e-08
-3.92038e-09
-9.85474e-09
-8.28662e-08
-4.63971e-09
-1.02728e-08
-8.45404e-08
-5.45086e-09
-1.00699e-08
-8.55507e-08
-6.29737e-09
-9.09714e-09
-8.59885e-08
-7.27138e-09
-7.47878e-09
-8.60027e-08
-8.27975e-09
-5.35856e-09
-8.59429e-08
-9.13312e-09
-2.83019e-09
-8.59569e-08
-9.75476e-09
-3.21099e-11
-8.60832e-08
-1.00896e-08
2.7499e-09
-8.57478e-08
-1.00133e-08
5.33902e-09
-8.58025e-08
-9.69325e-09
7.57993e-09
-8.62355e-08
-9.08935e-09
9.10379e-09
-8.60615e-08
-8.21395e-09
1.0026e-08
-8.58067e-08
-7.24939e-09
1.03065e-08
-8.54104e-08
-6.27886e-09
9.9548e-09
-8.44926e-08
-5.30555e-09
9.08268e-09
-8.28689e-08
-4.46539e-09
7.84482e-09
-8.04059e-08
-3.76637e-09
6.37831e-09
-7.69527e-08
-3.1681e-09
4.82438e-09
-7.21673e-08
-2.63517e-09
3.27165e-09
-6.5422e-08
-2.16866e-09
1.83729e-09
-5.59282e-08
-1.72404e-09
6.56422e-10
-4.2063e-08
-1.21256e-09
-2.03328e-08
-5.8526e-10
-8.25862e-10
-1.87013e-08
-8.19524e-10
-2.35844e-09
-3.86005e-08
-1.76364e-09
-4.27571e-09
-5.13719e-08
-2.46063e-09
-6.36737e-09
-6.01381e-08
-3.03822e-09
-8.46666e-09
-6.63011e-08
-3.62753e-09
-1.04097e-08
-7.06437e-08
-4.31511e-09
-1.20265e-08
-7.3664e-08
-5.14176e-09
-1.31192e-08
-7.56576e-08
-6.11486e-09
-1.35667e-08
-7.68919e-08
-7.20183e-09
-1.32516e-08
-7.75404e-08
-8.32791e-09
-1.20616e-08
-7.77334e-08
-9.44783e-09
-9.92823e-09
-7.75435e-08
-1.05938e-08
-7.05109e-09
-7.71412e-08
-1.16778e-08
-3.69163e-09
-7.68426e-08
-1.24712e-08
-2.49516e-11
-7.68562e-08
-1.28915e-08
3.63077e-09
-7.66181e-08
-1.27851e-08
7.01802e-09
-7.68042e-08
-1.23871e-08
9.93527e-09
-7.74695e-08
-1.16855e-08
1.20306e-08
-7.76219e-08
-1.05361e-08
1.32379e-08
-7.77006e-08
-9.31296e-09
1.35903e-08
-7.75325e-08
-8.22864e-09
1.31677e-08
-7.69189e-08
-7.14946e-09
1.20742e-08
-7.56975e-08
-6.07709e-09
1.04731e-08
-7.36969e-08
-5.10815e-09
8.53155e-09
-7.07179e-08
-4.29414e-09
6.44324e-09
-6.64926e-08
-3.58709e-09
4.375e-09
-6.04614e-08
-2.89275e-09
2.44659e-09
-5.17614e-08
-2.23823e-09
8.64551e-10
-3.89003e-08
-1.58021e-09
-1.86933e-08
-7.74498e-10
-9.86818e-10
-1.67385e-08
-9.76095e-10
-2.80999e-09
-3.46879e-08
-2.08992e-09
-5.11564e-09
-4.61463e-08
-2.921e-09
-7.65842e-09
-5.39769e-08
-3.61907e-09
-1.01937e-08
-5.94351e-08
-4.33014e-09
-1.25044e-08
-6.31972e-08
-5.13373e-09
-1.43943e-08
-6.56944e-08
-6.07739e-09
-1.56589e-08
-6.72206e-08
-7.17135e-09
-1.61332e-08
-6.80122e-08
-8.40651e-09
-1.5691e-08
-6.8255e-08
-9.73057e-09
-1.42675e-08
-6.81126e-08
-1.10476e-08
-1.18179e-08
-6.77296e-08
-1.22649e-08
-8.37945e-09
-6.71914e-08
-1.3387e-08
-4.34688e-09
-6.65894e-08
-1.42828e-08
-1.65344e-11
-6.63898e-08
-1.47942e-08
4.29569e-09
-6.62196e-08
-1.47103e-08
8.30952e-09
-6.65497e-08
-1.42701e-08
1.17385e-08
-6.73852e-08
-1.35158e-08
1.42192e-08
-6.77818e-08
-1.23223e-08
1.56823e-08
-6.81324e-08
-1.10306e-08
1.61462e-08
-6.82786e-08
-9.71595e-09
1.56839e-08
-6.80467e-08
-8.40792e-09
1.44243e-08
-6.72618e-08
-7.17526e-09
1.25416e-08
-6.57375e-08
-6.07711e-09
1.02217e-08
-6.32515e-08
-5.14759e-09
7.66682e-09
-5.95465e-08
-4.39226e-09
5.12742e-09
-5.42024e-08
-3.71999e-09
2.83622e-09
-4.64546e-08
-3.01544e-09
9.93343e-10
-3.49185e-08
-2.13843e-09
-1.67251e-08
-9.74338e-10
-1.09561e-09
-1.45327e-08
-1.11034e-09
-3.16847e-09
-3.02212e-08
-2.39454e-09
-5.76352e-09
-4.02561e-08
-3.29644e-09
-8.59752e-09
-4.70917e-08
-4.05207e-09
-1.1416e-08
-5.18026e-08
-4.81359e-09
-1.39795e-08
-5.496e-08
-5.67148e-09
-1.60582e-08
-5.69435e-08
-6.66959e-09
-1.74363e-08
-5.80208e-08
-7.82038e-09
-1.79287e-08
-5.84058e-08
-9.11533e-09
-1.73957e-08
-5.8283e-08
-1.05085e-08
-1.57612e-08
-5.78297e-08
-1.19211e-08
-1.3025e-08
-5.72211e-08
-1.32463e-08
-9.2492e-09
-5.6577e-08
-1.43886e-08
-4.76431e-09
-5.58563e-08
-1.52145e-08
-8.78411e-12
-5.54336e-08
-1.57087e-08
4.75353e-09
-5.5325e-08
-1.56562e-08
9.21686e-09
-5.57805e-08
-1.52345e-08
1.29672e-08
-5.66363e-08
-1.45021e-08
1.57211e-08
-5.72424e-08
-1.32949e-08
1.73774e-08
-5.78514e-08
-1.19365e-08
1.79309e-08
-5.83085e-08
-1.05215e-08
1.74521e-08
-5.8437e-08
-9.12862e-09
1.60804e-08
-5.80573e-08
-7.83208e-09
1.40039e-08
-5.6985e-08
-6.67664e-09
1.14374e-08
-5.50067e-08
-5.67964e-09
8.59858e-09
-5.1864e-08
-4.84501e-09
5.73488e-09
-4.7203e-08
-4.13635e-09
3.13528e-09
-4.04342e-08
-3.42069e-09
1.08748e-09
-3.03937e-08
-2.47635e-09
-1.45224e-08
-1.1146e-09
-1.14548e-09
-1.21937e-08
-1.19372e-09
-3.37376e-09
-2.54199e-08
-2.57382e-09
-6.14586e-09
-3.39816e-08
-3.50394e-09
-9.15624e-09
-3.97925e-08
-4.28995e-09
-1.2147e-08
-4.3734e-08
-5.07728e-09
-1.48593e-08
-4.62943e-08
-5.9512e-09
-1.70485e-08
-4.7795e-08
-6.95648e-09
-1.84867e-08
-4.8473e-08
-8.10831e-09
-1.89777e-08
-4.85234e-08
-9.39295e-09
-1.83768e-08
-4.81226e-08
-1.07651e-08
-1.661e-08
-4.74404e-08
-1.21602e-08
-1.36775e-08
-4.66558e-08
-1.34995e-08
-9.72589e-09
-4.58725e-08
-1.46543e-08
-5.00296e-09
-4.51398e-08
-1.54354e-08
-1.52547e-12
-4.46234e-08
-1.58081e-08
5.01178e-09
-4.45785e-08
-1.57589e-08
9.70596e-09
-4.50921e-08
-1.53847e-08
1.36347e-08
-4.59069e-08
-1.46612e-08
1.65693e-08
-4.66719e-08
-1.35068e-08
1.83529e-08
-4.7458e-08
-1.21763e-08
1.89732e-08
-4.81435e-08
-1.07829e-08
1.84975e-08
-4.85501e-08
-9.40905e-09
1.70673e-08
-4.85042e-08
-8.12213e-09
1.48776e-08
-4.78304e-08
-6.9658e-09
1.21621e-08
-4.63343e-08
-5.95872e-09
9.16515e-09
-4.37803e-08
-5.08839e-09
6.13658e-09
-3.98544e-08
-4.32084e-09
3.358e-09
-3.40909e-08
-3.56465e-09
1.15394e-09
-2.55752e-08
-2.61385e-09
-1.21791e-08
-1.18861e-09
-1.1818e-09
-9.79808e-09
-1.21402e-09
-3.45261e-09
-2.05496e-08
-2.60045e-09
-6.27921e-09
-2.75951e-08
-3.56164e-09
-9.35716e-09
-3.23575e-08
-4.3585e-09
-1.24153e-08
-3.55373e-08
-5.13832e-09
-1.51853e-08
-3.75301e-08
-5.99171e-09
-1.7413e-08
-3.85998e-08
-6.96462e-09
-1.88638e-08
-3.89503e-08
-8.07048e-09
-1.93396e-08
-3.8756e-08
-9.29345e-09
-1.86992e-08
-3.81739e-08
-1.05934e-08
-1.68615e-08
-3.73677e-08
-1.19148e-08
-1.38463e-08
-3.64851e-08
-1.31875e-08
-9.87577e-09
-3.56082e-08
-1.42326e-08
-5.1478e-09
-3.49174e-08
-1.49456e-08
-3.41385e-11
-3.44681e-08
-1.52649e-08
5.05124e-09
-3.44194e-08
-1.52434e-08
9.75048e-09
-3.48597e-08
-1.49338e-08
1.37745e-08
-3.56531e-08
-1.4281e-08
1.6819e-08
-3.65011e-08
-1.32171e-08
1.86716e-08
-3.73768e-08
-1.1933e-08
1.93318e-08
-3.8189e-08
-1.06123e-08
1.88705e-08
-3.87759e-08
-9.31062e-09
1.74268e-08
-3.89754e-08
-8.08438e-09
1.51989e-08
-3.86279e-08
-6.9757e-09
1.24251e-08
-3.75612e-08
-6.0013e-09
9.36329e-09
-3.55729e-08
-5.14747e-09
6.2798e-09
-3.23991e-08
-4.37293e-09
3.4414e-09
-2.76542e-08
-3.59834e-09
1.16896e-09
-2.06467e-08
-2.65533e-09
-9.79165e-09
-1.21772e-09
-1.17158e-09
-7.43992e-09
-1.18687e-09
-3.39563e-09
-1.57875e-08
-2.53909e-09
-6.18002e-09
-2.1324e-08
-3.48877e-09
-9.22377e-09
-2.50558e-08
-4.25969e-09
-1.2254e-08
-2.75035e-08
-5.00329e-09
-1.50019e-08
-2.89715e-08
-5.80835e-09
-1.72078e-08
-2.96724e-08
-6.71855e-09
-1.86376e-08
-2.97735e-08
-7.74564e-09
-1.90969e-08
-2.94214e-08
-8.87699e-09
-1.84436e-08
-2.87575e-08
-1.00741e-08
-1.66082e-08
-2.79198e-08
-1.12878e-08
-1.36432e-08
-2.70259e-08
-1.24257e-08
-9.73644e-09
-2.61792e-08
-1.3333e-08
-5.0999e-09
-2.55486e-08
-1.4e-08
-3.91989e-11
-2.51979e-08
-1.43262e-08
4.98647e-09
-2.51445e-08
-1.42992e-08
9.61827e-09
-2.55038e-08
-1.39897e-08
1.35681e-08
-2.62179e-08
-1.33884e-08
1.65644e-08
-2.70433e-08
-1.24559e-08
1.84133e-08
-2.79244e-08
-1.13006e-08
1.90838e-08
-2.87665e-08
-1.00904e-08
1.86416e-08
-2.94367e-08
-8.89469e-09
1.72187e-08
-2.9791e-08
-7.76079e-09
1.50119e-08
-2.96929e-08
-6.72931e-09
1.22607e-08
-2.89951e-08
-5.81719e-09
9.22807e-09
-2.75304e-08
-5.01209e-09
6.18131e-09
-2.50843e-08
-4.26932e-09
3.39161e-09
-2.13599e-08
-3.50481e-09
1.15658e-09
-1.58398e-08
-2.5712e-09
-7.44433e-09
-1.18986e-09
-1.10649e-09
-5.22265e-09
-1.11115e-09
-3.20921e-09
-1.13057e-08
-2.38039e-09
-5.85801e-09
-1.54062e-08
-3.27136e-09
-8.77305e-09
-1.81569e-08
-3.98583e-09
-1.16915e-08
-1.99182e-08
-4.66688e-09
-1.43486e-08
-2.09137e-08
-5.39826e-09
-1.64857e-08
-2.13078e-08
-6.22433e-09
-1.78731e-08
-2.12317e-08
-7.15298e-09
-1.83186e-08
-2.08057e-08
-8.17212e-09
-1.76856e-08
-2.01428e-08
-9.25222e-09
-1.5907e-08
-1.9351e-08
-1.03518e-08
-1.30703e-08
-1.85271e-08
-1.13368e-08
-9.31946e-09
-1.77907e-08
-1.21361e-08
-4.87566e-09
-1.72474e-08
-1.2739e-08
-3.29831e-11
-1.6968e-08
-1.30673e-08
4.77841e-09
-1.69247e-08
-1.30295e-08
9.21936e-09
-1.72186e-08
-1.27281e-08
1.29999e-08
-1.78139e-08
-1.21879e-08
1.58632e-08
-1.85409e-08
-1.13677e-08
1.76534e-08
-1.9357e-08
-1.03569e-08
1.83042e-08
-2.01483e-08
-9.26634e-09
1.78745e-08
-2.0815e-08
-8.18946e-09
1.64953e-08
-2.12435e-08
-7.16745e-09
1.43573e-08
-2.13213e-08
-6.23482e-09
1.16962e-08
-2.09298e-08
-5.40672e-09
8.77264e-09
-1.99355e-08
-4.67379e-09
5.8563e-09
-1.8176e-08
-3.99344e-09
3.20811e-09
-1.5431e-08
-3.28089e-09
1.10193e-09
-1.13377e-08
-2.39512e-09
-5.22814e-09
-1.11319e-09
-9.86587e-10
-3.25056e-09
-9.85995e-10
-2.88225e-09
-7.29236e-09
-2.11914e-09
-5.30882e-09
-1.00792e-08
-2.90307e-09
-8.01059e-09
-1.19356e-08
-3.52176e-09
-1.07423e-08
-1.30764e-08
-4.11019e-09
-1.32494e-08
-1.36605e-08
-4.74359e-09
-1.52781e-08
-1.38118e-08
-5.46401e-09
-1.66042e-08
-1.36269e-08
-6.27697e-09
-1.70437e-08
-1.31953e-08
-7.17264e-09
-1.64651e-08
-1.26008e-08
-8.12514e-09
-1.48137e-08
-1.19206e-08
-9.08618e-09
-1.21744e-08
-1.12423e-08
-9.92499e-09
-8.67446e-09
-1.06493e-08
-1.06376e-08
-4.53043e-09
-1.02127e-08
-1.11722e-08
-2.68023e-11
-9.98884e-09
-1.1477e-08
4.45019e-09
-9.96347e-09
-1.14361e-08
8.5836e-09
-1.01961e-08
-1.11578e-08
1.20973e-08
-1.06563e-08
-1.06747e-08
1.47617e-08
-1.12475e-08
-9.95986e-09
1.64322e-08
-1.19245e-08
-9.10222e-09
1.70287e-08
-1.26039e-08
-8.13807e-09
1.66051e-08
-1.32004e-08
-7.1881e-09
1.52863e-08
-1.36336e-08
-6.28988e-09
1.32561e-08
-1.38198e-08
-5.47242e-09
1.0744e-08
-1.36694e-08
-4.751e-09
8.00762e-09
-1.30865e-08
-4.11543e-09
5.30628e-09
-1.19493e-08
-3.52711e-09
2.88384e-09
-1.01012e-08
-2.90755e-09
9.8648e-10
-7.31638e-09
-2.12296e-09
-3.25458e-09
-9.85756e-10
-8.07185e-10
-1.64017e-09
-8.03897e-10
-2.41051e-09
-3.96105e-09
-1.72972e-09
-4.5235e-09
-5.61734e-09