/*--------------------------------*- C++ -*----------------------------------*\
| =========                 |                                                 |
| \\      /  F ield         | OpenFOAM: The Open Source CFD Toolbox           |
|  \\    /   O peration     | Version:  v1912                                 |
|   \\  /    A nd           | Website:  www.openfoam.com                      |
|    \\/     M anipulation  |                                                 |
\*---------------------------------------------------------------------------*/
FoamFile
{
    version     2.0;
    format      ascii;
    class       volVectorField;
    location    "202/oil";
    object      U;
}
// * * * * * * * * * * * * * * * * * * * * * * * * * * * * * * * * * * * * * //

dimensions      [0 1 -1 0 0 0 0];


internalField   nonuniform List<vector> 
35580
(
(-1.09167e-09 2.20911e-09 -1.11334e-09)
(1.17042e-09 1.99258e-09 -2.69898e-09)
(1.04561e-08 1.95985e-09 -4.34965e-09)
(2.50782e-08 2.44983e-09 -6.01848e-09)
(4.28452e-08 3.23416e-09 -7.36169e-09)
(6.12704e-08 4.1582e-09 -8.26543e-09)
(7.80558e-08 5.13376e-09 -8.72125e-09)
(9.1207e-08 6.11932e-09 -8.78069e-09)
(9.90937e-08 7.08934e-09 -8.52174e-09)
(1.00634e-07 8.01939e-09 -8.01536e-09)
(9.52335e-08 8.85907e-09 -7.33129e-09)
(8.29384e-08 9.56969e-09 -6.64827e-09)
(6.44945e-08 1.01267e-08 -6.01373e-09)
(4.10575e-08 1.055e-08 -5.56122e-09)
(1.44309e-08 1.07832e-08 -5.32442e-09)
(-1.33606e-08 1.08115e-08 -5.32898e-09)
(-4.00716e-08 1.05683e-08 -5.56053e-09)
(-6.35654e-08 1.01381e-08 -5.99949e-09)
(-8.2133e-08 9.54623e-09 -6.60651e-09)
(-9.45525e-08 8.84918e-09 -7.2991e-09)
(-1.00156e-07 8.02338e-09 -7.97622e-09)
(-9.87775e-08 7.08214e-09 -8.50541e-09)
(-9.09919e-08 6.11158e-09 -8.76359e-09)
(-7.79354e-08 5.12863e-09 -8.71245e-09)
(-6.12212e-08 4.15269e-09 -8.25842e-09)
(-4.28541e-08 3.2312e-09 -7.35515e-09)
(-2.51238e-08 2.4466e-09 -6.00857e-09)
(-1.05112e-08 1.94928e-09 -4.33091e-09)
(-1.20697e-09 1.96709e-09 -2.67858e-09)
(1.07855e-09 2.1514e-09 -1.10598e-09)
(5.82208e-10 -2.09965e-09 5.69656e-10)
(1.14709e-08 -1.27139e-08 4.97024e-10)
(3.33565e-08 -2.11621e-08 -2.67313e-10)
(6.38274e-08 -2.57381e-08 -1.26599e-09)
(9.92658e-08 -2.71832e-08 -2.00225e-09)
(1.35421e-07 -2.6283e-08 -2.25517e-09)
(1.6803e-07 -2.36844e-08 -1.97364e-09)
(1.93254e-07 -1.98713e-08 -1.19591e-09)
(2.07915e-07 -1.52539e-08 -1.43918e-11)
(2.09773e-07 -1.02157e-08 1.43519e-09)
(1.97601e-07 -5.16109e-09 3.131e-09)
(1.71425e-07 -5.25519e-10 4.72141e-09)
(1.32868e-07 3.2995e-09 6.11901e-09)
(8.44624e-08 6.09365e-09 7.12263e-09)
(2.96636e-08 7.57685e-09 7.65271e-09)
(-2.75054e-08 7.60961e-09 7.6704e-09)
(-8.24939e-08 6.06815e-09 7.14849e-09)
(-1.30998e-07 3.22052e-09 6.17615e-09)
(-1.69585e-07 -6.86813e-10 4.81419e-09)
(-1.95861e-07 -5.26985e-09 3.22513e-09)
(-2.08381e-07 -1.03173e-08 1.55761e-09)
(-2.06821e-07 -1.53474e-08 7.12134e-11)
(-1.92407e-07 -1.9933e-08 -1.11498e-09)
(-1.67452e-07 -2.37213e-08 -1.90932e-09)
(-1.35078e-07 -2.63206e-08 -2.20105e-09)
(-9.91155e-08 -2.72376e-08 -1.95355e-09)
(-6.38157e-08 -2.58262e-08 -1.22651e-09)
(-3.33986e-08 -2.12885e-08 -2.34109e-10)
(-1.14955e-08 -1.2852e-08 5.13405e-10)
(-5.83598e-10 -2.23049e-09 5.5556e-10)
(2.24183e-09 -2.0482e-08 2.2401e-09)
(2.24667e-08 -5.41236e-08 3.96596e-09)
(5.49554e-08 -7.9003e-08 4.33006e-09)
(9.67135e-08 -9.48071e-08 4.27707e-09)
(1.43346e-07 -1.03207e-07 4.3628e-09)
(1.89985e-07 -1.05808e-07 4.84353e-09)
(2.31511e-07 -1.03988e-07 5.81045e-09)
(2.63175e-07 -9.88713e-08 7.25523e-09)
(2.80981e-07 -9.14305e-08 9.08759e-09)
(2.82089e-07 -8.25678e-08 1.11463e-08)
(2.64862e-07 -7.31893e-08 1.34178e-08)
(2.29251e-07 -6.42701e-08 1.55218e-08)
(1.77385e-07 -5.67873e-08 1.73011e-08)
(1.12634e-07 -5.13667e-08 1.8588e-08)
(3.95285e-08 -4.84986e-08 1.92717e-08)
(-3.67447e-08 -4.85083e-08 1.93175e-08)
(-1.10154e-07 -5.1503e-08 1.86245e-08)
(-1.7503e-07 -5.7086e-08 1.73556e-08)
(-2.2687e-07 -6.46796e-08 1.55767e-08)
(-2.62685e-07 -7.35379e-08 1.35104e-08)
(-2.80363e-07 -8.28821e-08 1.12621e-08)
(-2.79614e-07 -9.16629e-08 9.16455e-09)
(-2.62125e-07 -9.90292e-08 7.32892e-09)
(-2.30784e-07 -1.04097e-07 5.87811e-09)
(-1.8955e-07 -1.05905e-07 4.90469e-09)
(-1.43149e-07 -1.03332e-07 4.42278e-09)
(-9.66771e-08 -9.49897e-08 4.32785e-09)
(-5.49906e-08 -7.92473e-08 4.36448e-09)
(-2.25088e-08 -5.4361e-08 3.96998e-09)
(-2.2602e-09 -2.06352e-08 2.21623e-09)
(3.57698e-09 -5.06921e-08 3.56892e-09)
(3.16823e-08 -1.18032e-07 6.61243e-09)
(7.30388e-08 -1.65391e-07 7.74872e-09)
(1.23681e-07 -1.96805e-07 8.32942e-09)
(1.78538e-07 -2.15628e-07 9.006e-09)
(2.32388e-07 -2.24464e-07 1.00301e-08)
(2.79707e-07 -2.25502e-07 1.15013e-08)
(3.15306e-07 -2.20567e-07 1.34209e-08)
(3.34742e-07 -2.11291e-07 1.57058e-08)
(3.3479e-07 -1.99196e-07 1.81898e-08)
(3.13527e-07 -1.8582e-07 2.08155e-08)
(2.70911e-07 -1.72632e-07 2.32522e-08)
(2.09413e-07 -1.61298e-07 2.53292e-08)
(1.3282e-07 -1.52966e-07 2.67957e-08)
(4.657e-08 -1.48574e-07 2.75638e-08)
(-4.34174e-08 -1.48637e-07 2.76222e-08)
(-1.30061e-07 -1.53143e-07 2.68137e-08)
(-2.06729e-07 -1.61596e-07 2.53433e-08)
(-2.68209e-07 -1.72955e-07 2.32802e-08)
(-3.11053e-07 -1.86092e-07 2.08793e-08)
(-3.32749e-07 -1.99441e-07 1.82478e-08)
(-3.33087e-07 -2.11466e-07 1.574e-08)
(-3.14022e-07 -2.20687e-07 1.34585e-08)
(-2.78784e-07 -2.25585e-07 1.15401e-08)
(-2.31796e-07 -2.24553e-07 1.00733e-08)
(-1.78241e-07 -2.15771e-07 9.05598e-09)
(-1.23599e-07 -1.97034e-07 8.36743e-09)
(-7.30572e-08 -1.65679e-07 7.7597e-09)
(-3.17382e-08 -1.18281e-07 6.59055e-09)
(-3.60947e-09 -5.08849e-08 3.53165e-09)
(4.52279e-09 -9.02061e-08 4.51334e-09)
(3.86392e-08 -1.99665e-07 8.4423e-09)
(8.69787e-08 -2.74078e-07 1.0067e-08)
(1.44576e-07 -3.24128e-07 1.10439e-08)
(2.057e-07 -3.55754e-07 1.20877e-08)
(2.64867e-07 -3.72849e-07 1.34851e-08)
(3.16313e-07 -3.78498e-07 1.53213e-08)
(3.54622e-07 -3.75246e-07 1.76098e-08)
(3.75096e-07 -3.65386e-07 2.02654e-08)
(3.74277e-07 -3.51077e-07 2.31248e-08)
(3.5006e-07 -3.34481e-07 2.60538e-08)
(3.02306e-07 -3.17571e-07 2.87982e-08)
(2.33551e-07 -3.02661e-07 3.11614e-08)
(1.48025e-07 -2.91462e-07 3.27944e-08)
(5.18773e-08 -2.8558e-07 3.36489e-08)
(-4.8441e-08 -2.85672e-07 3.37197e-08)
(-1.45042e-07 -2.91604e-07 3.2818e-08)
(-2.30534e-07 -3.02759e-07 3.11684e-08)
(-2.99316e-07 -3.17646e-07 2.88537e-08)
(-3.47356e-07 -3.34523e-07 2.61187e-08)
(-3.72028e-07 -3.51117e-07 2.31735e-08)
(-3.7328e-07 -3.65417e-07 2.03029e-08)
(-3.53209e-07 -3.75284e-07 1.76512e-08)
(-3.15279e-07 -3.78545e-07 1.53626e-08)
(-2.64173e-07 -3.72933e-07 1.35222e-08)
(-2.05314e-07 -3.55899e-07 1.21241e-08)
(-1.4444e-07 -3.24364e-07 1.10579e-08)
(-8.69845e-08 -2.74348e-07 1.00431e-08)
(-3.87159e-08 -1.99818e-07 8.375e-09)
(-4.57509e-09 -9.04299e-08 4.45501e-09)
(5.12742e-09 -1.36337e-07 5.14167e-09)
(4.34052e-08 -2.94058e-07 9.61857e-09)
(9.6803e-08 -3.98944e-07 1.15186e-08)
(1.5949e-07 -4.69805e-07 1.27267e-08)
(2.25174e-07 -5.15907e-07 1.39974e-08)
(2.88191e-07 -5.4279e-07 1.56456e-08)
(3.42631e-07 -5.54534e-07 1.77601e-08)
(3.82944e-07 -5.54418e-07 2.03654e-08)
(4.0427e-07 -5.45372e-07 2.33667e-08)
(4.02963e-07 -5.30144e-07 2.66057e-08)
(3.76849e-07 -5.1149e-07 2.98751e-08)
(3.25596e-07 -4.91926e-07 3.29854e-08)
(2.5151e-07 -4.74166e-07 3.56595e-08)
(1.59363e-07 -4.60511e-07 3.75e-08)
(5.58127e-08 -4.53313e-07 3.84483e-08)
(-5.21838e-08 -4.53392e-07 3.85152e-08)
(-1.56237e-07 -4.60632e-07 3.75102e-08)
(-2.48264e-07 -4.74073e-07 3.56632e-08)
(-3.22394e-07 -4.91868e-07 3.30721e-08)
(-3.73986e-07 -5.11419e-07 2.99583e-08)
(-4.00589e-07 -5.30079e-07 2.6672e-08)
(-4.02361e-07 -5.45329e-07 2.34245e-08)
(-3.81461e-07 -5.54418e-07 2.04217e-08)
(-3.41542e-07 -5.54571e-07 1.78209e-08)
(-2.87444e-07 -5.42878e-07 1.56928e-08)
(-2.24729e-07 -5.16045e-07 1.40352e-08)
(-1.59304e-07 -4.70003e-07 1.27273e-08)
(-9.67964e-08 -3.99133e-07 1.14643e-08)
(-4.3514e-08 -2.94076e-07 9.50997e-09)
(-5.20467e-09 -1.36584e-07 5.06378e-09)
(5.47317e-09 -1.86673e-07 5.49371e-09)
(4.62239e-08 -3.96811e-07 1.02676e-08)
(1.02716e-07 -5.34492e-07 1.23322e-08)
(1.68531e-07 -6.27654e-07 1.36687e-08)
(2.37031e-07 -6.89478e-07 1.50817e-08)
(3.02435e-07 -7.27419e-07 1.69213e-08)
(3.58787e-07 -7.46673e-07 1.927e-08)
(4.00478e-07 -7.51263e-07 2.21668e-08)
(4.22545e-07 -7.44706e-07 2.55045e-08)
(4.212e-07 -7.30258e-07 2.91252e-08)
(3.94182e-07 -7.11163e-07 3.27721e-08)
(3.4095e-07 -6.90465e-07 3.6257e-08)
(2.63505e-07 -6.71104e-07 3.92788e-08)
(1.66964e-07 -6.55679e-07 4.13456e-08)
(5.8433e-08 -6.47436e-07 4.23675e-08)
(-5.46699e-08 -6.47472e-07 4.24365e-08)
(-1.6376e-07 -6.55848e-07 4.13362e-08)
(-2.60159e-07 -6.70935e-07 3.9298e-08)
(-3.37645e-07 -6.90405e-07 3.63798e-08)
(-3.91241e-07 -7.11104e-07 3.28879e-08)
(-4.18773e-07 -7.30201e-07 2.92202e-08)
(-4.20605e-07 -7.44681e-07 2.55869e-08)
(-3.98971e-07 -7.5129e-07 2.22403e-08)
(-3.57681e-07 -7.46739e-07 1.93445e-08)
(-3.01669e-07 -7.27519e-07 1.69736e-08)
(-2.36555e-07 -6.89596e-07 1.51223e-08)
(-1.6831e-07 -6.27773e-07 1.36541e-08)
(-1.0269e-07 -5.34504e-07 1.2242e-08)
(-4.63441e-08 -3.96614e-07 1.01319e-08)
(-5.55836e-09 -1.86984e-07 5.41104e-09)
(5.57816e-09 -2.39054e-07 5.62154e-09)
(4.72044e-08 -5.038e-07 1.04999e-08)
(1.04793e-07 -6.755e-07 1.26339e-08)
(1.71651e-07 -7.91821e-07 1.40399e-08)
(2.41035e-07 -8.70268e-07 1.55369e-08)
(3.07172e-07 -9.20413e-07 1.75117e-08)
(3.64167e-07 -9.48619e-07 2.00635e-08)
(4.06465e-07 -9.59672e-07 2.32249e-08)
(4.29075e-07 -9.57586e-07 2.68839e-08)
(4.28105e-07 -9.4603e-07 3.08855e-08)
(4.01183e-07 -9.28637e-07 3.49401e-08)
(3.47564e-07 -9.08796e-07 3.8783e-08)
(2.68805e-07 -8.89475e-07 4.21726e-08)
(1.7022e-07 -8.73118e-07 4.44861e-08)
(5.95173e-08 -8.64367e-07 4.56124e-08)
(-5.58109e-08 -8.64555e-07 4.57256e-08)
(-1.67104e-07 -8.73585e-07 4.4496e-08)
(-2.65515e-07 -8.89438e-07 4.22322e-08)
(-3.44258e-07 -9.08847e-07 3.89124e-08)
(-3.98248e-07 -9.28684e-07 3.50497e-08)
(-4.2567e-07 -9.46059e-07 3.09788e-08)
(-4.27126e-07 -9.57637e-07 2.69662e-08)
(-4.04945e-07 -9.59778e-07 2.3297e-08)
(-3.63039e-07 -9.48774e-07 2.01394e-08)
(-3.06373e-07 -9.2058e-07 1.75666e-08)
(-2.40522e-07 -8.70418e-07 1.55609e-08)
(-1.71393e-07 -7.91881e-07 1.3991e-08)
(-1.04743e-07 -6.75313e-07 1.2517e-08)
(-4.73198e-08 -5.03375e-07 1.03631e-08)
(-5.67088e-09 -2.39514e-07 5.54896e-09)
(5.48825e-09 -2.91549e-07 5.53097e-09)
(4.64269e-08 -6.11018e-07 1.03235e-08)
(1.02997e-07 -8.16925e-07 1.24451e-08)
(1.686e-07 -9.56646e-07 1.39007e-08)
(2.36653e-07 -1.05214e-06 1.54526e-08)
(3.01569e-07 -1.11536e-06 1.7484e-08)
(3.57636e-07 -1.15389e-06 2.01613e-08)
(3.99479e-07 -1.17319e-06 2.35129e-08)
(4.22206e-07 -1.17771e-06 2.742e-08)
(4.21871e-07 -1.17138e-06 3.17356e-08)
(3.95993e-07 -1.15805e-06 3.61456e-08)
(3.43713e-07 -1.14117e-06 4.02986e-08)
(2.66096e-07 -1.12375e-06 4.39618e-08)
(1.68373e-07 -1.10795e-06 4.65469e-08)
(5.88899e-08 -1.09973e-06 4.78601e-08)
(-5.52772e-08 -1.09994e-06 4.79701e-08)
(-1.65343e-07 -1.10833e-06 4.65041e-08)
(-2.62886e-07 -1.12367e-06 4.40092e-08)
(-3.40436e-07 -1.14128e-06 4.04164e-08)
(-3.93126e-07 -1.15821e-06 3.62468e-08)
(-4.19477e-07 -1.17152e-06 3.18324e-08)
(-4.20299e-07 -1.17786e-06 2.75063e-08)
(-3.97995e-07 -1.17341e-06 2.35853e-08)
(-3.56514e-07 -1.15417e-06 2.02323e-08)
(-3.00758e-07 -1.11563e-06 1.75176e-08)
(-2.3613e-07 -1.05228e-06 1.5412e-08)
(-1.68314e-07 -9.56479e-07 1.3794e-08)
(-1.02906e-07 -8.16351e-07 1.23118e-08)
(-4.6498e-08 -6.10308e-07 1.01919e-08)
(-5.56393e-09 -2.92095e-07 5.45698e-09)
(5.19983e-09 -3.42164e-07 5.19507e-09)
(4.38536e-08 -7.14408e-07 9.69919e-09)
(9.7229e-08 -9.53546e-07 1.17012e-08)
(1.59103e-07 -1.11628e-06 1.31567e-08)
(2.23344e-07 -1.22874e-06 1.47575e-08)
(2.84746e-07 -1.30536e-06 1.68004e-08)
(3.3798e-07 -1.35522e-06 1.9492e-08)
(3.78002e-07 -1.38431e-06 2.29073e-08)
(4.00171e-07 -1.39738e-06 2.69098e-08)
(4.00603e-07 -1.39849e-06 3.1376e-08)
(3.76719e-07 -1.39152e-06 3.59878e-08)
(3.27536e-07 -1.37972e-06 4.0355e-08)
(2.53798e-07 -1.36585e-06 4.40869e-08)
(1.60452e-07 -1.35217e-06 4.68487e-08)
(5.61478e-08 -1.34554e-06 4.83717e-08)
(-5.28309e-08 -1.34574e-06 4.84844e-08)
(-1.57656e-07 -1.35226e-06 4.68025e-08)
(-2.50641e-07 -1.36511e-06 4.41143e-08)
(-3.24274e-07 -1.37936e-06 4.04739e-08)
(-3.73941e-07 -1.39161e-06 3.60817e-08)
(-3.98248e-07 -1.39871e-06 3.14766e-08)
(-3.9832e-07 -1.39763e-06 2.69952e-08)
(-3.76579e-07 -1.38468e-06 2.29744e-08)
(-3.36881e-07 -1.35568e-06 1.95688e-08)
(-2.83922e-07 -1.30572e-06 1.68276e-08)
(-2.22781e-07 -1.22867e-06 1.47186e-08)
(-1.58735e-07 -1.11565e-06 1.31354e-08)
(-9.70183e-08 -9.52523e-07 1.1714e-08)
(-4.38287e-08 -7.13504e-07 9.71143e-09)
(-5.23718e-09 -3.42812e-07 5.18874e-09)
(4.7081e-09 -3.88799e-07 4.63585e-09)
(3.94319e-08 -8.09559e-07 8.69314e-09)
(8.73952e-08 -1.07955e-06 1.04767e-08)
(1.4294e-07 -1.26419e-06 1.18161e-08)
(2.00676e-07 -1.39308e-06 1.34001e-08)
(2.56018e-07 -1.48284e-06 1.54017e-08)
(3.04271e-07 -1.54438e-06 1.79891e-08)
(3.4084e-07 -1.58425e-06 2.12758e-08)
(3.61523e-07 -1.60723e-06 2.51229e-08)
(3.62624e-07 -1.6174e-06 2.94899e-08)
(3.41469e-07 -1.61839e-06 3.40623e-08)
(2.97176e-07 -1.61296e-06 3.84213e-08)
(2.30525e-07 -1.60421e-06 4.20258e-08)
(1.45929e-07 -1.59484e-06 4.48076e-08)
(5.11325e-08 -1.59048e-06 4.63925e-08)
(-4.8137e-08 -1.59073e-06 4.65357e-08)
(-1.43371e-07 -1.59481e-06 4.48258e-08)
(-2.27522e-07 -1.60334e-06 4.19667e-08)
(-2.94275e-07 -1.61279e-06 3.84381e-08)
(-3.39035e-07 -1.61863e-06 3.40752e-08)
(-3.60404e-07 -1.61775e-06 2.95793e-08)
(-3.59778e-07 -1.60756e-06 2.52144e-08)
(-3.39537e-07 -1.58474e-06 2.13345e-08)
(-3.03275e-07 -1.54503e-06 1.80782e-08)
(-2.55308e-07 -1.48315e-06 1.54318e-08)
(-2.00181e-07 -1.39238e-06 1.33579e-08)
(-1.42535e-07 -1.26268e-06 1.1766e-08)
(-8.7055e-08 -1.07786e-06 1.03814e-08)
(-3.92912e-08 -8.08284e-07 8.58438e-09)
(-4.66812e-09 -3.89369e-07 4.61221e-09)
(3.98804e-09 -4.29391e-07 3.85841e-09)
(3.31022e-08 -8.91959e-07 7.26052e-09)
(7.33229e-08 -1.18846e-06 8.79096e-09)
(1.20106e-07 -1.39272e-06 9.9959e-09)
(1.68755e-07 -1.53702e-06 1.14526e-08)
(2.1541e-07 -1.63937e-06 1.33362e-08)
(2.56346e-07 -1.71226e-06 1.57021e-08)
(2.87647e-07 -1.76305e-06 1.86272e-08)
(3.05743e-07 -1.79642e-06 2.19956e-08)
(3.07232e-07 -1.81599e-06 2.58745e-08)
(2.89583e-07 -1.82487e-06 2.99242e-08)
(2.52079e-07 -1.8264e-06 3.37909e-08)
(1.95634e-07 -1.82433e-06 3.71603e-08)
(1.24204e-07 -1.82092e-06 3.98633e-08)
(4.35942e-08 -1.81937e-06 4.13769e-08)
(-4.10027e-08 -1.8195e-06 4.15284e-08)
(-1.22053e-07 -1.82071e-06 4.00553e-08)
(-1.93179e-07 -1.82424e-06 3.74062e-08)
(-2.49788e-07 -1.82832e-06 3.42474e-08)
(-2.87476e-07 -1.82646e-06 3.02084e-08)
(-3.0517e-07 -1.81671e-06 2.60641e-08)
(-3.0415e-07 -1.79671e-06 2.20428e-08)
(-2.86539e-07 -1.76351e-06 1.84501e-08)
(-2.55474e-07 -1.7129e-06 1.54394e-08)
(-2.14727e-07 -1.63932e-06 1.30209e-08)
(-1.68125e-07 -1.53565e-06 1.11789e-08)
(-1.19571e-07 -1.39072e-06 9.82317e-09)
(-7.30157e-08 -1.18667e-06 8.6992e-09)
(-3.30038e-08 -8.90463e-07 7.22972e-09)
(-3.93842e-09 -4.29788e-07 3.91394e-09)
(3.1204e-09 -4.61758e-07 2.81389e-09)
(2.53063e-08 -9.57388e-07 5.26201e-09)
(5.56305e-08 -1.2748e-06 6.43689e-09)
(9.11418e-08 -1.4948e-06 7.3694e-09)
(1.28196e-07 -1.65214e-06 8.43543e-09)
(1.63812e-07 -1.76595e-06 9.89795e-09)
(1.95109e-07 -1.84913e-06 1.18472e-08)
(2.19163e-07 -1.90978e-06 1.43591e-08)
(2.33529e-07 -1.9526e-06 1.7247e-08)
(2.35213e-07 -1.98046e-06 2.04153e-08)
(2.21715e-07 -1.99692e-06 2.35077e-08)
(1.92814e-07 -2.00663e-06 2.66049e-08)
(1.49974e-07 -2.0123e-06 2.95979e-08)
(9.56853e-08 -2.01413e-06 3.18457e-08)
(3.38343e-08 -2.01477e-06 3.30025e-08)
(-3.10886e-08 -2.01421e-06 3.29109e-08)
(-9.35216e-08 -2.01258e-06 3.16599e-08)
(-1.48087e-07 -2.01122e-06 2.94206e-08)
(-1.9139e-07 -2.00884e-06 2.67237e-08)
(-2.19955e-07 -1.99877e-06 2.35114e-08)
(-2.33178e-07 -1.98106e-06 2.02611e-08)
(-2.32079e-07 -1.95252e-06 1.71129e-08)
(-2.18291e-07 -1.90992e-06 1.42748e-08)
(-1.94333e-07 -1.84937e-06 1.18657e-08)
(-1.63219e-07 -1.76553e-06 9.93922e-09)
(-1.27789e-07 -1.65104e-06 8.49669e-09)
(-9.09186e-08 -1.49396e-06 7.46105e-09)
(-5.55152e-08 -1.27472e-06 6.61288e-09)
(-2.50673e-08 -9.57125e-07 5.49203e-09)
(-3.00043e-09 -4.62608e-07 2.95234e-09)
(1.97789e-09 -4.84871e-07 1.82863e-09)
(1.60017e-08 -1.00364e-06 3.38645e-09)
(3.51353e-08 -1.33587e-06 4.04734e-09)
(5.76062e-08 -1.56614e-06 4.53191e-09)
(8.08632e-08 -1.73217e-06 5.15769e-09)
(1.03193e-07 -1.85437e-06 6.11607e-09)
(1.22851e-07 -1.94545e-06 7.42564e-09)
(1.37906e-07 -2.01372e-06 9.13152e-09)
(1.47145e-07 -2.06394e-06 1.11407e-08)
(1.48608e-07 -2.09848e-06 1.32706e-08)
(1.40251e-07 -2.12221e-06 1.53779e-08)
(1.22196e-07 -2.13941e-06 1.75849e-08)
(9.53586e-08 -2.15131e-06 1.96322e-08)
(6.10588e-08 -2.15719e-06 2.11577e-08)
(2.19037e-08 -2.15935e-06 2.18565e-08)
(-1.91223e-08 -2.15731e-06 2.15023e-08)
(-5.88433e-08 -2.15277e-06 2.05295e-08)
(-9.33005e-08 -2.14706e-06 1.88656e-08)
(-1.20574e-07 -2.13821e-06 1.6775e-08)
(-1.38882e-07 -2.12088e-06 1.44995e-08)
(-1.47441e-07 -2.09625e-06 1.23596e-08)
(-1.46692e-07 -2.06088e-06 1.04918e-08)
(-1.37841e-07 -2.01181e-06 8.85626e-09)
(-1.22579e-07 -1.9453e-06 7.49833e-09)
(-1.02778e-07 -1.8551e-06 6.3926e-09)
(-8.03099e-08 -1.73305e-06 5.49955e-09)
(-5.7058e-08 -1.56699e-06 4.84149e-09)
(-3.48018e-08 -1.33666e-06 4.2823e-09)
(-1.57076e-08 -1.00383e-06 3.53376e-09)
(-1.89628e-09 -4.85541e-07 1.85795e-09)
(7.29331e-10 -4.96961e-07 5.78966e-10)
(5.61141e-09 -1.02744e-06 1.1539e-09)
(1.2258e-08 -1.36793e-06 1.44948e-09)
(2.02512e-08 -1.60406e-06 1.64409e-09)
(2.84802e-08 -1.7749e-06 1.89998e-09)
(3.64377e-08 -1.90114e-06 2.30084e-09)
(4.36551e-08 -1.99536e-06 2.77758e-09)
(4.92549e-08 -2.0661e-06 3.26133e-09)
(5.2615e-08 -2.11965e-06 3.88567e-09)
(5.3109e-08 -2.15924e-06 4.7393e-09)
(5.01019e-08 -2.1886e-06 5.62667e-09)
(4.38137e-08 -2.21025e-06 6.44612e-09)
(3.42306e-08 -2.22487e-06 7.07731e-09)
(2.20492e-08 -2.2332e-06 7.74436e-09)
(8.35326e-09 -2.23722e-06 8.06654e-09)
(-6.14914e-09 -2.23516e-06 7.81527e-09)
(-2.0724e-08 -2.22949e-06 7.4977e-09)
(-3.28987e-08 -2.22163e-06 6.89088e-09)
(-4.23625e-08 -2.20951e-06 6.02582e-09)
(-4.88118e-08 -2.18796e-06 5.17484e-09)
(-5.18177e-08 -2.15816e-06 4.39346e-09)
(-5.16617e-08 -2.11771e-06 3.70856e-09)
(-4.86808e-08 -2.06464e-06 3.07496e-09)
(-4.34041e-08 -1.99513e-06 2.56748e-09)
(-3.64188e-08 -1.9019e-06 2.19684e-09)
(-2.83922e-08 -1.77605e-06 1.89095e-09)
(-2.01084e-08 -1.60529e-06 1.65797e-09)
(-1.22184e-08 -1.36911e-06 1.46376e-09)
(-5.47628e-09 -1.02823e-06 1.24152e-09)
(-6.28982e-10 -4.97519e-07 6.65133e-10)
(-5.25762e-10 -4.97474e-07 -6.16263e-10)
(-4.85944e-09 -1.02836e-06 -1.1169e-09)
(-1.09169e-08 -1.36937e-06 -1.31159e-09)
(-1.78029e-08 -1.60573e-06 -1.47691e-09)
(-2.50019e-08 -1.77677e-06 -1.68881e-09)
(-3.19175e-08 -1.90331e-06 -1.98794e-09)
(-3.80096e-08 -1.99789e-06 -2.37538e-09)
(-4.28126e-08 -2.06892e-06 -2.8548e-09)
(-4.56243e-08 -2.12247e-06 -3.459e-09)
(-4.57864e-08 -2.16173e-06 -4.13075e-09)
(-4.29514e-08 -2.19097e-06 -4.97327e-09)
(-3.73238e-08 -2.2126e-06 -5.90695e-09)
(-2.93774e-08 -2.22696e-06 -6.6855e-09)
(-1.91192e-08 -2.23556e-06 -6.98974e-09)
(-6.73478e-09 -2.2395e-06 -7.01443e-09)
(6.52631e-09 -2.2372e-06 -6.91285e-09)
(1.86451e-08 -2.2323e-06 -6.4465e-09)
(2.98389e-08 -2.22466e-06 -5.8818e-09)
(3.83906e-08 -2.21194e-06 -5.39249e-09)
(4.36233e-08 -2.19025e-06 -4.61969e-09)
(4.63739e-08 -2.16047e-06 -3.80436e-09)
(4.63527e-08 -2.11988e-06 -3.03867e-09)
(4.37626e-08 -2.06664e-06 -2.55669e-09)
(3.89858e-08 -1.99679e-06 -2.25301e-09)
(3.25961e-08 -1.90319e-06 -1.94291e-09)
(2.54836e-08 -1.77706e-06 -1.69873e-09)
(1.81176e-08 -1.60607e-06 -1.49393e-09)
(1.10696e-08 -1.36977e-06 -1.29583e-09)
(5.04615e-09 -1.02875e-06 -1.00252e-09)
(6.5175e-10 -4.97806e-07 -5.04569e-10)
(-1.82364e-09 -4.8621e-07 -1.80007e-09)
(-1.51832e-08 -1.00537e-06 -3.40963e-09)
(-3.3639e-08 -1.33892e-06 -4.14428e-09)
(-5.50741e-08 -1.56984e-06 -4.69684e-09)
(-7.74719e-08 -1.73654e-06 -5.34284e-09)
(-9.90628e-08 -1.8596e-06 -6.20824e-09)
(-1.17973e-07 -1.9513e-06 -7.34747e-09)
(-1.32446e-07 -2.01959e-06 -8.83109e-09)
(-1.40921e-07 -2.06996e-06 -1.06759e-08)
(-1.41902e-07 -2.10484e-06 -1.26126e-08)
(-1.33788e-07 -2.12908e-06 -1.47587e-08)
(-1.16484e-07 -2.1466e-06 -1.70309e-08)
(-9.11049e-08 -2.1586e-06 -1.89927e-08)
(-5.84984e-08 -2.16573e-06 -2.02433e-08)
(-2.03934e-08 -2.16852e-06 -2.07235e-08)
(1.96532e-08 -2.16559e-06 -2.04382e-08)
(5.74157e-08 -2.16195e-06 -1.9516e-08)
(9.10828e-08 -2.15678e-06 -1.8031e-08)
(1.17012e-07 -2.14616e-06 -1.63639e-08)
(1.3385e-07 -2.12802e-06 -1.42093e-08)
(1.42373e-07 -2.10301e-06 -1.21597e-08)
(1.41658e-07 -2.06727e-06 -1.01748e-08)
(1.32858e-07 -2.01727e-06 -8.4633e-09)
(1.18204e-07 -1.94965e-06 -7.03546e-09)
(9.92477e-08 -1.85895e-06 -5.86946e-09)
(7.78304e-08 -1.7366e-06 -5.00033e-09)
(5.54514e-08 -1.57018e-06 -4.34139e-09)
(3.39336e-08 -1.33956e-06 -3.82899e-09)
(1.54767e-08 -1.00613e-06 -3.15099e-09)
(1.95222e-09 -4.86456e-07 -1.70463e-09)
(-2.98156e-09 -4.6386e-07 -2.86606e-09)
(-2.46485e-08 -9.59914e-07 -5.35443e-09)
(-5.44876e-08 -1.27866e-06 -6.48943e-09)
(-8.92155e-08 -1.49876e-06 -7.33076e-09)
(-1.25384e-07 -1.65663e-06 -8.34167e-09)
(-1.60164e-07 -1.77199e-06 -9.72746e-09)
(-1.90705e-07 -1.85677e-06 -1.15699e-08)
(-2.14198e-07 -1.91836e-06 -1.39536e-08)
(-2.27907e-07 -1.96215e-06 -1.68554e-08)
(-2.29338e-07 -1.99079e-06 -1.99203e-08)
(-2.16252e-07 -2.00785e-06 -2.30772e-08)
(-1.88057e-07 -2.01788e-06 -2.61204e-08)
(-1.46481e-07 -2.02415e-06 -2.89288e-08)
(-9.37304e-08 -2.0275e-06 -3.10386e-08)
(-3.27524e-08 -2.02889e-06 -3.2105e-08)
(3.13031e-08 -2.0266e-06 -3.18416e-08)
(9.23297e-08 -2.02522e-06 -3.06209e-08)
(1.46466e-07 -2.02432e-06 -2.85372e-08)
(1.88406e-07 -2.01844e-06 -2.59797e-08)
(2.1612e-07 -2.00708e-06 -2.2858e-08)
(2.29721e-07 -1.98945e-06 -1.97678e-08)
(2.28798e-07 -1.96142e-06 -1.67285e-08)
(2.14974e-07 -1.91861e-06 -1.40161e-08)
(1.91369e-07 -1.85749e-06 -1.16262e-08)
(1.60615e-07 -1.77332e-06 -9.70813e-09)
(1.25616e-07 -1.65824e-06 -8.2599e-09)
(8.92622e-08 -1.50006e-06 -7.09001e-09)
(5.46185e-08 -1.27988e-06 -6.18751e-09)
(2.49232e-08 -9.61118e-07 -5.06496e-09)
(3.11814e-09 -4.63843e-07 -2.72973e-09)
(-3.97167e-09 -4.31601e-07 -3.78426e-09)
(-3.27641e-08 -8.94463e-07 -7.06219e-09)
(-7.22992e-08 -1.19197e-06 -8.58661e-09)
(-1.18383e-07 -1.39694e-06 -9.74255e-09)
(-1.66406e-07 -1.54277e-06 -1.10925e-08)
(-2.12545e-07 -1.64739e-06 -1.29174e-08)
(-2.52933e-07 -1.72192e-06 -1.53091e-08)
(-2.83753e-07 -1.77357e-06 -1.82644e-08)
(-3.01441e-07 -1.80793e-06 -2.17658e-08)
(-3.02876e-07 -1.82865e-06 -2.55846e-08)
(-2.85531e-07 -1.83853e-06 -2.96274e-08)
(-2.48421e-07 -1.84072e-06 -3.3416e-08)
(-1.9295e-07 -1.8395e-06 -3.67226e-08)
(-1.22757e-07 -1.83789e-06 -3.93777e-08)
(-4.24978e-08 -1.83748e-06 -4.09636e-08)
(4.13756e-08 -1.83607e-06 -4.08278e-08)
(1.21489e-07 -1.83729e-06 -3.93297e-08)
(1.92765e-07 -1.84116e-06 -3.66664e-08)
(2.48425e-07 -1.84169e-06 -3.33754e-08)
(2.85219e-07 -1.83831e-06 -2.96809e-08)
(3.02804e-07 -1.82826e-06 -2.56773e-08)
(3.01966e-07 -1.80823e-06 -2.17373e-08)
(2.84425e-07 -1.77428e-06 -1.83629e-08)
(2.53571e-07 -1.7226e-06 -1.54952e-08)
(2.13057e-07 -1.64841e-06 -1.31864e-08)
(1.66825e-07 -1.54467e-06 -1.13819e-08)
(1.18693e-07 -1.39981e-06 -9.89781e-09)
(7.24534e-08 -1.1955e-06 -8.67612e-09)
(3.27814e-08 -8.97423e-07 -7.12729e-09)
(3.96164e-09 -4.31763e-07 -3.79095e-09)
(-4.6824e-09 -3.91328e-07 -4.59358e-09)
(-3.91141e-08 -8.12985e-07 -8.58232e-09)
(-8.65406e-08 -1.08384e-06 -1.03821e-08)
(-1.41786e-07 -1.26969e-06 -1.17372e-08)
(-1.99197e-07 -1.40045e-06 -1.32891e-08)
(-2.54178e-07 -1.49228e-06 -1.53468e-08)
(-3.02042e-07 -1.55526e-06 -1.79769e-08)
(-3.38283e-07 -1.59612e-06 -2.12181e-08)
(-3.58715e-07 -1.62017e-06 -2.50879e-08)
(-3.5979e-07 -1.63146e-06 -2.93973e-08)
(-3.38844e-07 -1.63342e-06 -3.39628e-08)
(-2.94824e-07 -1.62889e-06 -3.82801e-08)
(-2.28848e-07 -1.62099e-06 -4.18894e-08)
(-1.45071e-07 -1.61349e-06 -4.46825e-08)
(-4.99174e-08 -1.60995e-06 -4.64911e-08)
(4.89684e-08 -1.60892e-06 -4.6455e-08)
(1.43681e-07 -1.61303e-06 -4.49218e-08)
(2.27976e-07 -1.62218e-06 -4.21018e-08)
(2.94164e-07 -1.62963e-06 -3.8295e-08)
(3.38367e-07 -1.63388e-06 -3.40177e-08)
(3.59671e-07 -1.63185e-06 -2.94557e-08)
(3.59076e-07 -1.62074e-06 -2.5065e-08)
(3.38792e-07 -1.59685e-06 -2.12081e-08)
(3.02576e-07 -1.55604e-06 -1.79215e-08)
(2.54628e-07 -1.49329e-06 -1.53003e-08)
(1.99577e-07 -1.40219e-06 -1.33342e-08)
(1.42189e-07 -1.27272e-06 -1.17922e-08)
(8.69213e-08 -1.08779e-06 -1.04067e-08)
(3.93525e-08 -8.16167e-07 -8.59164e-09)
(4.7327e-09 -3.91419e-07 -4.58347e-09)
(-5.21431e-09 -3.44738e-07 -5.20041e-09)
(-4.3743e-08 -7.18473e-07 -9.71143e-09)
(-9.68951e-08 -9.58747e-07 -1.17092e-08)
(-1.58618e-07 -1.123e-06 -1.31334e-08)
(-2.22666e-07 -1.23722e-06 -1.47086e-08)
(-2.83876e-07 -1.3154e-06 -1.68094e-08)
(-3.36917e-07 -1.36645e-06 -1.95529e-08)
(-3.76772e-07 -1.39656e-06 -2.2954e-08)
(-3.98812e-07 -1.41064e-06 -2.69726e-08)
(-3.99221e-07 -1.41278e-06 -3.14253e-08)
(-3.75377e-07 -1.40677e-06 -3.60711e-08)
(-3.26308e-07 -1.39612e-06 -4.05005e-08)
(-2.5317e-07 -1.38357e-06 -4.42969e-08)
(-1.6031e-07 -1.37164e-06 -4.70537e-08)
(-5.51224e-08 -1.36491e-06 -4.86734e-08)
(5.38905e-08 -1.364e-06 -4.85114e-08)
(1.58724e-07 -1.37052e-06 -4.70374e-08)
(2.51887e-07 -1.38334e-06 -4.4284e-08)
(3.25316e-07 -1.39611e-06 -4.04115e-08)
(3.74697e-07 -1.40703e-06 -3.60671e-08)
(3.98947e-07 -1.41314e-06 -3.14542e-08)
(3.98966e-07 -1.41117e-06 -2.6985e-08)
(3.77149e-07 -1.39722e-06 -2.29616e-08)
(3.37393e-07 -1.3672e-06 -1.95259e-08)
(2.84354e-07 -1.31628e-06 -1.67825e-08)
(2.23094e-07 -1.23836e-06 -1.4729e-08)
(1.58948e-07 -1.12483e-06 -1.3197e-08)
(9.70683e-08 -9.61341e-07 -1.17778e-08)
(4.38034e-08 -7.20846e-07 -9.75492e-09)
(5.17967e-09 -3.44851e-07 -5.20811e-09)
(-5.52959e-09 -2.94117e-07 -5.52023e-09)
(-4.65148e-08 -6.15176e-07 -1.02549e-08)
(-1.03168e-07 -8.22562e-07 -1.23339e-08)
(-1.68804e-07 -9.63848e-07 -1.3818e-08)
(-2.36835e-07 -1.06078e-06 -1.54447e-08)
(-3.01713e-07 -1.12519e-06 -1.7561e-08)
(-3.57723e-07 -1.16474e-06 -2.029e-08)
(-3.99508e-07 -1.18499e-06 -2.36505e-08)
(-4.2219e-07 -1.19042e-06 -2.75865e-08)
(-4.21836e-07 -1.18502e-06 -3.19173e-08)
(-3.95881e-07 -1.17255e-06 -3.63754e-08)
(-3.43549e-07 -1.15666e-06 -4.06127e-08)
(-2.66298e-07 -1.1403e-06 -4.43165e-08)
(-1.68603e-07 -1.12593e-06 -4.69308e-08)
(-5.79633e-08 -1.11749e-06 -4.83606e-08)
(5.65984e-08 -1.11702e-06 -4.8242e-08)
(1.66975e-07 -1.12528e-06 -4.69475e-08)
(2.64824e-07 -1.14024e-06 -4.43142e-08)
(3.42386e-07 -1.15681e-06 -4.05956e-08)
(3.95064e-07 -1.17285e-06 -3.64219e-08)
(4.21452e-07 -1.18541e-06 -3.19788e-08)
(4.22218e-07 -1.19094e-06 -2.76352e-08)
(3.99782e-07 -1.1856e-06 -2.3685e-08)
(3.58087e-07 -1.16546e-06 -2.03003e-08)
(3.02058e-07 -1.12603e-06 -1.75686e-08)
(2.37122e-07 -1.0618e-06 -1.54834e-08)
(1.68971e-07 -9.65162e-07 -1.39509e-08)
(1.03172e-07 -8.24334e-07 -1.25667e-08)
(4.6468e-08 -6.17061e-07 -1.04689e-08)
(5.45586e-09 -2.94177e-07 -5.58389e-09)
(-5.63013e-09 -2.41495e-07 -5.63922e-09)
(-4.74321e-08 -5.07758e-07 -1.04751e-08)
(-1.05271e-07 -6.81102e-07 -1.25731e-08)
(-1.72347e-07 -7.98792e-07 -1.40426e-08)
(-2.41904e-07 -8.78336e-07 -1.5629e-08)
(-3.08177e-07 -9.29426e-07 -1.76618e-08)
(-3.6524e-07 -9.58495e-07 -2.02537e-08)
(-4.07567e-07 -9.70354e-07 -2.34284e-08)
(-4.30203e-07 -9.69049e-07 -2.7123e-08)
(-4.29217e-07 -9.58271e-07 -3.11545e-08)
(-4.02117e-07 -9.41601e-07 -3.52704e-08)
(-3.48282e-07 -9.22467e-07 -3.92156e-08)
(-2.69602e-07 -9.03769e-07 -4.26338e-08)
(-1.70811e-07 -8.88555e-07 -4.50301e-08)
(-5.8843e-08 -8.79815e-07 -4.62818e-08)
(5.73034e-08 -8.7956e-07 -4.62208e-08)
(1.69007e-07 -8.88152e-07 -4.50469e-08)
(2.68053e-07 -9.03836e-07 -4.25836e-08)
(3.47127e-07 -9.22594e-07 -3.91737e-08)
(4.01264e-07 -9.41798e-07 -3.53191e-08)
(4.28749e-07 -9.58556e-07 -3.12287e-08)
(4.3014e-07 -9.69452e-07 -2.71869e-08)
(4.0776e-07 -9.70856e-07 -2.34745e-08)
(3.65511e-07 -9.59087e-07 -2.02746e-08)
(3.08405e-07 -9.30112e-07 -1.76747e-08)
(2.42067e-07 -8.79131e-07 -1.56561e-08)
(1.72432e-07 -7.9972e-07 -1.41269e-08)
(1.05278e-07 -6.82246e-07 -1.27473e-08)
(4.74008e-08 -5.09117e-07 -1.06433e-08)
(5.58624e-09 -2.41504e-07 -5.68362e-09)
(-5.54815e-09 -1.88712e-07 -5.49763e-09)
(-4.6578e-08 -4.00339e-07 -1.02395e-08)
(-1.03419e-07 -5.39539e-07 -1.23181e-08)
(-1.69615e-07 -6.33812e-07 -1.37368e-08)
(-2.38448e-07 -6.96501e-07 -1.52294e-08)
(-3.04118e-07 -7.35196e-07 -1.71138e-08)
(-3.60637e-07 -7.55129e-07 -1.95071e-08)
(-4.02435e-07 -7.60348e-07 -2.24244e-08)
(-4.2459e-07 -7.54387e-07 -2.58016e-08)
(-4.23235e-07 -7.40527e-07 -2.94651e-08)
(-3.95961e-07 -7.21986e-07 -3.32054e-08)
(-3.4237e-07 -7.01772e-07 -3.68006e-08)
(-2.64795e-07 -6.82866e-07 -3.98562e-08)
(-1.67862e-07 -6.68278e-07 -4.19966e-08)
(-5.79024e-08 -6.60156e-07 -4.31098e-08)
(5.63823e-08 -6.59824e-07 -4.30622e-08)
(1.65969e-07 -6.67753e-07 -4.19552e-08)
(2.63192e-07 -6.82786e-07 -3.97575e-08)
(3.41161e-07 -7.01768e-07 -3.67145e-08)
(3.95031e-07 -7.22067e-07 -3.32245e-08)
(4.22675e-07 -7.40723e-07 -2.95362e-08)
(4.24445e-07 -7.54694e-07 -2.58659e-08)
(4.02567e-07 -7.60739e-07 -2.24697e-08)
(3.60845e-07 -7.5558e-07 -1.95255e-08)
(3.04275e-07 -7.35712e-07 -1.7122e-08)
(2.38541e-07 -6.97094e-07 -1.52419e-08)
(1.69663e-07 -6.34485e-07 -1.37723e-08)
(1.03444e-07 -5.40306e-07 -1.24029e-08)
(4.65262e-08 -4.01242e-07 -1.0363e-08)
(5.49379e-09 -1.88828e-07 -5.5431e-09)
(-5.22666e-09 -1.37954e-07 -5.11989e-09)
(-4.38565e-08 -2.97037e-07 -9.58346e-09)
(-9.76872e-08 -4.03195e-07 -1.1537e-08)
(-1.60856e-07 -4.749e-07 -1.28192e-08)
(-2.26951e-07 -5.21627e-07 -1.41583e-08)
(-2.90305e-07 -5.49053e-07 -1.58454e-08)
(-3.44983e-07 -5.61286e-07 -1.80025e-08)
(-3.85449e-07 -5.61616e-07 -2.06222e-08)
(-4.06901e-07 -5.52978e-07 -2.36517e-08)
(-4.05599e-07 -5.38154e-07 -2.69262e-08)
(-3.79206e-07 -5.19834e-07 -3.03035e-08)
(-3.27549e-07 -5.00605e-07 -3.35131e-08)
(-2.53237e-07 -4.83226e-07 -3.623e-08)
(-1.60504e-07 -4.70051e-07 -3.8148e-08)
(-5.53989e-08 -4.62903e-07 -3.91792e-08)
(5.39327e-08 -4.62586e-07 -3.91292e-08)