/*--------------------------------*- C++ -*----------------------------------*\
| =========                 |                                                 |
| \\      /  F ield         | OpenFOAM: The Open Source CFD Toolbox           |
|  \\    /   O peration     | Version:  v1912                                 |
|   \\  /    A nd           | Website:  www.openfoam.com                      |
|    \\/     M anipulation  |                                                 |
\*---------------------------------------------------------------------------*/
FoamFile
{
    version     2.0;
    format      ascii;
    class       volScalarField;
    location    "158/oil";
    object      wallHeatFlux;
}
// * * * * * * * * * * * * * * * * * * * * * * * * * * * * * * * * * * * * * //

dimensions      [1 0 -3 0 0 0 0];


internalField   uniform 0;

boundaryField
{
    maxY
    {
        type            calculated;
        value           uniform 0;
    }
    minX
    {
        type            calculated;
        value           uniform 0;
    }
    maxX
    {
        type            calculated;
        value           uniform 0;
    }
    minY
    {
        type            calculated;
        value           uniform 0;
    }
    minZ
    {
        type            calculated;
        value           uniform 0;
    }
    maxZ
    {
        type            calculated;
        value           uniform 0;
    }
    oil_to_sphere
    {
        type            calculated;
        value           nonuniform List<scalar> 
1536
(
3437.75
3599.12
3335.4
3292.21
2844.46
2942.31
2908.02
2196.52
2098.68
3716.59
2816.45
3752.73
3817.6
3756.47
3273.05
2827.4
2224.4
2110.89
403.856
3810.16
3719.1
2968.36
2921.98
2850.05
2996.55
2995.86
2997.36
2858.59
3608.47
3560.83
3338.96
2666.59
2453.15
3010.73
2836.12
2818.72
2704.97
3133.87
2958.61
3118.44
2959.62
2818.64
3516.39
3763.12
3575.67
3737.7
2939.12
2944.06
3224.63
3005.25
2958.59
2963.29
2898.76
2942.12
2552.21
2405.68
2929.83
2920.67
2123.56
1414.86
1575.34
1391.69
1541.18
3804.2
3824.96
3749.38
3591.98
3746.44
3424.09
3562.63
3019.03
2932.87
3330.76
2968.76
2837.09
2458.45
2373.97
2306.51
2831.92
2111.95
1384.88
1543.46
1201.86
1183.43
1657.94
1572.77
1235.12
2214.24
2109.44
1409.97
1558.21
400.247
404.447
3819.69
3828.41
3766.4
3634.5
3688.33
3758.26
3406.3
3606.15
3006.12
3420.56
3343.77
2951.52
2968.24
2853.6
2320.92
2803.63
2473.82
2360.78
2444.39
1410.57
1583.69
1216.85
1245.53
1214.26
1645.69
1572.59
1674.2
2120.77
1560.67
404.022
3749.42
3409.1
3560.01
3427.4
3544.77
2954.63
2965.34
2988.68
2954.15
2963.99
2936
2982.54
3000.3
2941.5
2406.12
2903.92
2894.51
1415.54
1567.14
2216.03
2121.54
1546.33
2091.91
3242.23
3244.42
2903.89
3038.09
3334.08
3241.47
2934.08
2982.79
2971.98
2712.28
2550.3
2587.5
3252.69
3202.02
3265.85
3506.73
3091.79
2983.9
2821.52
2711.83
2943.75
2767.65
2562.03
2597.48
3499.31
3155.6
3573.76
3112.48
2625.06
2356.11
3262.08
3295.85
3422.67
3228.38
3084.29
2974
2716.48
2968.32
2645.35
2599.45
2599.83
3657.61
3208.42
3338.22
3485.26
3267.35
3454.59
3323.68
2653.77
2676.74
2746.27
2768.9
2630.5
2692.79
2752.67
2838.16
2110.98
2053.72
1993.2
2151.23
2230.21
2198.01
2316.62
2282.05
2058.41
1940.34
1876.55
3668.24
3899.08
3832.7
3687.47
3682.35
3708.12
3674.04
3650.72
3775.96
3583.67
3662.18
3670.2
3276.21
3270.46
3580.97
3403.14
3035.56
2726.26
2646.13
2939.16
2669.47
2073.88
2133.01
2011.18
2157.98
2216.6
2024.08
1927.74
1091.23
957.71
3783.61
3672.5
3726.84
3661.93
3748.21
3909.14
3761
3657.49
3189.47
2992.6
3200.58
3242.83
2684.15
2841.25
2074.79
1952.79
2241.15
2387
2309.54
1894.79
946.25
1071.27
687.59
688.217
1075.92
3723.18
3649.31
3632.46
3586.9
3662.78
3674.94
3618.36
3732.6
3956.09
3802.63
3648.6
3454.27
3248.56
3257.2
3380.54
3608.41
3414.34
3252.16
3248.04
2710.58
2733.5
2846.8
2875.87
2757.5
2835.49
2012.69
1946.24
2042.08
2182.93
2130.7
2220.71
2205.99
2205.88
1996.89
1910.38
2165.7
2051.18
3036.41
2899.86
2934.93
2710.76
2644.76
2603.64
2527.3
3518.06
3387.31
3578.49
3484.01
3386.52
3507.06
3541.71
3600.97
3699.15
3539.91
3576.4
3526.51
3886.69
3727.12
3670.33
3572.32
3691.97
3793.15
3683.92
3450.94
3486.22
3564.29
3386.75
3558.66
3607.6
3697.45
3672.7
3766.8
3730.1
3700.42
3618.6
3616.72
3590.78
3623.1
3510.9
3523.14
3410.44
3500.67
3352.14
3401.97
3604.29
3243.61
3528.98
3274.18
3317.27
3218.64
3040.61
3508.39
3253.44
3236.84
3374.84
3047.98
3170.27
3262.3
3016.74
3114.1
2948.93
3278.31
3506.45
3258.95
3279.64
3316.99
3082.56
3185.52
3159.42
2720.1
2796.41
2703.96
2569.35
2489.25
2577.54
2404.05
2338.03
2737.34
2802.18
2729.68
2602.54
2512.72
2644.55
2399.71
2339.27
2285.96
2675.54
2327.35
2594.86
2525.31
2602.91
2393.84
2728.97
2820.81
2723.53
2804.32
2365.66
2293.93
2597.43
2521.81
2625.13
2372.45
2314.89
2185.15
2116.77
2177.62
2110.81
2004.24
2009.84
1922.16
2086.02
1957.64
2242.6
1899.88
1937.78
1872.37
1775.82
1901.14
1854.12
1705.29
1659.13
1511.6
2139.7
2078.45
1998.27
2161.28
1945.34
2007.58
1707.93
1640.15
1611.26
1512.98
1877.17
1791.62
1905.58
1858.09
1830.18
2173.93
2107.26
2191.78
2196.49
2007.42
1910.35
2128.1
2040.73
4187.58
4016.68
3862.54
4144.43
3875.79
3919.08
4020.31
3776.21
3821.35
3885.91
3868.24
3664.45
3793.2
3619.2
3599.84
3565.96
3556.49
3627.1
3604.16
3689.02
3781.59
3481.86
3722.87
3519.83
3624.03
3536.96
3730.09
3578.29
3711.04
3644.54
3745.75
3659.94
3490.8
3599.52
3413.76
3680.71
3227.49
3338.3
3289.79
2962.01
3103.9
3089.22
3273.02
2961.76
3233.6
2948.19
3101.05
2990.39
2857.57
2937.85
2727.37
2677.05
2528.41
2611.52
2570.65
2481.97
2358.57
2640.12
2340.36
2822.36
2703.59
2552.66
1944.95
1860.68
1790.99
1923.35
1868.58
2063.29
1944.9
2239.94
1886.33
1694.48
1680.9
1528.53
1314.89
1166.86
1326.14
1173.41
1449.63
1579.06
1444.31
1288.47
1322.87
2053.98
2126.13
1991.34
2150.47
1902.96
1797.33
1925.78
1838.4
2049.26
1933.57
2186.28
2294.49
1891.22
1698.57
1836
1659.11
1512.77
1782.13
1075.73
954.525
1111.93
955.574
697.218
691.696
694.3
691.459
928.339
4084.11
3827.99
3923.59
3888.45
3839.53
4089.55
3937.92
3880.95
3812.29
3666.97
3865.53
3907.08
3978.3
3681.72
3692.61
3788.63
3798.01
3482.42
3671.71
3497.96
3727.71
3625.77
3611.69
3560.08
3655.08
3556.38
3646.23
3748.73
3581.74
3473.62
3420.81
3632.77
3721.36
3481.71
3700.59
3521.46
3404.89
3760.96
3617.84
3600.04
3646.42
3530.79
3528.97
3615.08
3725.7
3546.71
3421.88
3282.57
3244.72
3113.35
2984.25
3142.8
3468.81
3334.58
3282.5
3162.73
3143.99
3052.93
3086.48
3101.76
2966.09
2964.88
2716.31
2925.95
2645.82
2770.4
2606.92
2532.85
3014.13
2844.46
2398.57
2674.97
2335.68
2645.48
2473.95
2351.52
2571.97
2608.44
2591.43
2570.24
2539.29
2959.06
2691.9
1694.19
1691.41
1624.13
1534.38
2127.03
2056.24
1997.35
2157.76
1948.38
2013.09
1805.73
1933.64
1919.58
1852.29
1819.38
1464.75
1464.34
1595.65
1306.09
1317.26
1164.77
1328.99
1331.99
1160.46
1563.83
1433.55
1442.05
1583.4
1294.68
2051.65
1938.58
2219.86
2296.65
1892.77
1705.52
1840.76
1642.09
1621.91
1789.1
2019.69
1917.97
2115.92
2073.77
1997.22
2159.16
2210.08
1791.8
1877.76
1918.04
1846.66
1827.12
695.29
695.244
1100.04
1085.45
959.342
927.491
1237.45
1082.51
938.176
3376.11
3552.5
3538.14
3369.83
3528.76
3378.78
3369.93
3712.39
3649.6
3790.5
3654.93
3492.59
3608.92
3548.17
3695.88
3579.85
3638.24
3501.29
3498.24
3723.3
3620.44
3566.67
3583.38
3532.08
3529.16
3599.23
3429.22
3407.02
3499.67
3584.85
3495.13
3642.6
3546.5
3804.35
3511.2
3432.35
3477.67
3500.16
3405.97
3370.57
3610.83
3254.42
3105.48
3111.09
3208.04
2980.44
3483.26
3252.02
3239.33
3336.67
3175.18
3179.01
3086.19
3402.77
3221.48
3251.71
3333.9
3058.27
3084.82
3235.86
3202.66
2980.52
3308.51
3482.65
3296.43
3325.68
3192.33
3182.44
3105.38
3102.38
2966.29
2590.49
2516.42
2612.5
2396.45
2363.68
2302.36
2782.41
2672.54
2802.69
2728.4
2517.78
2599.37
2593.3
2365.44
2310.12
2326.52
2730.09
2724.07
2822.03
2718.43
2813.21
2353.64
2394.01
2583.93
2502.58
2593.37
2358.78
2308.46
2849.92
2709.06
2706.94
2764.32
2831.26
2389.92
2319.33
2523.05
2610.64
2610.26
2109.65
2190.43
2006.75
1994.6
1906.43
2177.58
2117.74
2185.2
1879.51
1790.19
1915.28
1838.53
1728.66
1872.14
1670.22
1521.4
1801.82
2067.68
2112.19
1987.29
2160.94
2300.6
2470.26
2120.55
1986.51
1913.71
1952.85
2075.4
1703.59
1824.86
1654.22
1633.51
1771.39
1886.76
1800.68
1893.48
1874.23
1830.13
2190.43
2306.87
2066.14
1942.34
1884.55
2152.24
2219.08
2066.3
2131.02
2009.05
3350.48
3265.68
2367.56
2251.53
3755.56
3622.58
3713.01
3742.74
3712.77
3218.46
3462.93
3358.34
3432.54
2810.05
2978.22
2254.38
1183.22
1141.38
3340.35
3337.96
2204.68
1187.42
1112.68
1414.25
3749.43
3256.01
2922.55
1392.71
3435.13
3314.4
3404.14
2797.51
2995.07
2973.69
2195.66
3360.57
3437.74
2959.49
2982.41
3402.47
2941.81
2973.9
2747.34
2839.6
2306.74
2445.83
2561.49
3266.56
3387.39
2919.13
3099.69
2790.07
2906.19
2306.96
2440.95
2480.01
3240.67
3443.56
2935.05
3176.43
2523.65
2322.14
2491.13
2726.68
3095.51
3063.39
3401.28
3446.63
2975.08
2952.21
2921.43
2978.74
2467.49
2325.6
2468.2
2219.33
3900.17
3812.18
3403.48
3692.19
3390.06
3767.7
3725.91
2967.71
3281.14
3271.47
3334.39
3260.17
2944.11
2510.68
2442.88
2446.99
2459.87
2452.88
2416.03
1735.75
2247.77
1680.77
1748.73
3828.62
3723
3870.79
3746.66
3835.97
3777.98
3835.23
3800.85
3871.35
3781.54
3400.65
3702.52
3403.99
3568.14
3408.13
2929.26
3136.79
3233.9
3514.74
3000.83
3380.69
2932.81
2325.32
2471.38
2517.4
2350.27
2448.11
2431.58
2225.63
1745.73
1612.43
1575.36
1640.72
2246.33
1721.9
1149.04
1181.96
1110.27
3897.87
3829.2
3775.8
3960.38
3791.41
3862.55
3779.34
3919.56
3854.14
3414
3691.78
3351.19
3737.58
3714.76
3615.44
3710.9
3619.98
3372.97
3491.54
2918.68
3242.19
3479.35
3257.17
3456.63
2979.44
2307.19
2483.95
2784.89
2948.44
2410.16
2556.57
2340.3
2457.72
2915.15
2260.29
1737.81
1548.91
1618.66
1568.84
2236.22
1721.39
1147.19
1112.55
1131.54
3814.18
3545.84
3429.93
3753.94
3374.8
2968.27
3335.57
3284.31
3281.53
3266.59
2429.39
2574.73
2421.86
2423.34
2426.22
1729.56
2287.25
1757.44
2272.12
3395.29
3233.74
3071.42
3216.69
3446.09
3253.84
2602.46
2721.93
2597.55
3311.35
3447.64
3290.48
3129.69
3483.07
3025.55
3210.16
3190.51
3041.48
3284.44
3158.3
3456.27
3082.09
3166.64
3180.85
3100.46
2829.78
2812.59
2616.47
2612.18
2500.77
2354.42
2598.93
2469.16
2540.07
3410.38
3204.47
3106.49
3207.63
3425.08
3025.17
3074.11
3096.23
2867.69
3207.88
2714.45
2895.5
2847.74
2630.42
2649.69
2522.71
2352.49
2571.89
2451.1
2543.3
3219.24
3408.61
3023.04
3050.61
3121.85
2843.59
3196.63
2807.14
2620.2
2446.05
2638.43
2562.09
2627.82
3613.87
3619.61
3593.45
3639.52
3076.54
3438.15
3296.65
2736.1
2740.67
2844.83
2826.56
2806.48
2193.53
2327.57
2309.03
2040.62
1989.89
2347.69
2224.24
2221.51
3635.74
3672.21
3741.19
3592.95
3137.51
3285.02
3049.23
3516.75
3272.23
2805.15
2803.88
2632.32
2209.36
2397.93
2305.78
2051.69
1462.43
1487.25
1301.1
1320.56
1163.13
1091.97
3641.47
3624.71
3619.29
3569.23
3702.08
3221.8
3384.44
3301.28
2700.11
1993.71
2324.12
1315.35
1160.73
1108.39
908.079
1512.22
3639.04
3647.7
3738.14
3645.95
3700.95
3698.31
3649.12
3617.63
3715.98
3030.33
3168.48
3655.59
3262.71
2819.04
2830.71
2220.8
2329.34
2198.7
2138.89
2284.03
2040.17
1522.57
2811.78
2296.09
3495.28
3429.27
3224.14
3242.87
2812.86
2692.69
2767.63
2567.99
2439.9
2613.83
2481.57
2464.95
2419.71
3892.63
3828.13
3315.98
3339.62
3537.73
3621.62
3577.02
3603.57
3357.86
3522.95
3445.57
3572.26
3378.88
3483.68
3672.16
3584.83
3607.33
3587.2
3337.1
3436.7
3479.26
3553.87
3633.46
3712.59
3669.72
3694.96
3522.67
3347.95
3461.95
3710.33
3641.25
3714.36
3668.35
3368.92
3621.88
3691.47
3579.66
3450.68
3508.27
3441.14
3222.53
3131.26
3551.9
3214.84
3097.99
3096.58
2928.98
2953.59
2944.37
3115.69
3471.71
3284.31
2983.24
2966.21
3099.65
2986.3
3120.71
3413.15
3182.33
2962.48
2862.71
2833.3
2566.84
2621.03
2348.93
2835.66
2564.65
2650.01
2373.06
2751.87
2839.65
2588.31
2365.32
2821.54
2494.64
2586.15
2205.18
2201.15
1993.27
2012.75
1825.18
1843.24
2018.47
1843.83
1798.43
1632.58
1602.3
1587.74
1668.09
2182.05
2042.44
1835.01
1775.6
1652.6
1653.56
1575.69
2139.72
2215.87
1835.79
3928.45
3752.89
3845.46
3664.76
3739.35
3921.07
3608.48
4090.89
3753.47
3798.24
3776.27
3929.43
3783.06
3903.33
4097.82
3936.1
3750.11
3874.41
3522.89
3631.43
3809.69
3705.79
3395.63
3613.35
3485.93
3654.69
3584.72
3635.75
3587.51
3716.25
3494.24
3327.04
3417.39
3551.34
3702.64
3618.96
3602.88
3525.95
3058.77
3167.4
2949.69
3224.25
3401.29
3060.58
3167.24
3209.25
3248.83
3253.57
3390.23
3085.49
2729.8
2609.52
2525.77
2674.54
2820.17
2447.62
2472.74
2609.03
2733.24
2610.45
2491.54
2369.11
1659.9
1637.6
1605.69
1986.35
1833.33
1777.46
1645.22
2180.71
2251.27
1642.71
1615.96
1992.51
1655.62
1107.43
1112.98
936.164
1236.51
913.791
1106.63
1264.36
3963.46
3755.97
4016.41
3860.68
3846.21
3713.12
3747.31
3610.98
3890.97
4015.37
3906.49
3758.91
3720.06
3685.5
3791.6
3795.16
3791.42
3524.41
3722.13
3473.36
3687.2
3717.62
3637.3
3300.18
3726.96
3554.37
3626.6
3593.98
3515.73
3589.97
3595.74
3406.41
3492.3
3424.17
3182.55
3406.58
3231.07
3073.63
3024.05
2853.07
3104.28
3449.54
3193.31
3211.32
2765.37
2476.61
2513.39
2696.56
2693.64
2547.69
2654.03
2649.23
2599.25
2492.82
2793.17
2813.61
1834.6
1781.86
1650.64
2206.06
2056.29
1645.88
1603.87
2001.87
1663.04
2184.31
1631.65
928.663
1100.94
1266.84
3923.34
3640.1
3390.86
3589.37
3390.1
3384.21
3500.14
3703.48
3635.48
3609.44
3399.04
3495.67
3573.2
3524.42
3647.66
3604.25
3632.15
3590.94
3521.94
3346.45
3595.89
3486.61
3447.93
3255.29
2978.99
3150.27
3564.06
3208.23
3089.22
2948.94
2947.72
3108.45
3457.06
2955.87
3100.69
3445.82
2980.18
2546.65
2392.49
2767.07
2833.87
2756.69
2549.99
2663.97
2801.98
2499.39
2817.22
2500.18
1818.74
2211.66
1637.65
1611.66
1681.58
2187.94
2343.48
2015.67
1647
1676.07
1983.81
2194.94
)
;
    }
}


// ************************************************************************* //
