/*--------------------------------*- C++ -*----------------------------------*\
| =========                 |                                                 |
| \\      /  F ield         | OpenFOAM: The Open Source CFD Toolbox           |
|  \\    /   O peration     | Version:  v1912                                 |
|   \\  /    A nd           | Website:  www.openfoam.com                      |
|    \\/     M anipulation  |                                                 |
\*---------------------------------------------------------------------------*/
FoamFile
{
    version     2.0;
    format      ascii;
    class       surfaceScalarField;
    location    "246/oil";
    object      phi;
}
// * * * * * * * * * * * * * * * * * * * * * * * * * * * * * * * * * * * * * //

dimensions      [1 0 -1 0 0 0 0];
oriented        oriented;


internalField   nonuniform List<scalar> 
104676
(
-1.10365e-11
2.61412e-11
-1.42381e-11
2.69266e-10
-2.21324e-10
-5.89612e-11
8.42128e-10
-4.1455e-10
-1.58276e-10
1.61894e-09
-5.05545e-10
-2.71242e-10
2.4856e-09
-5.16818e-10
-3.49802e-10
3.32812e-09
-4.70004e-10
-3.72474e-10
4.04364e-09
-3.82093e-10
-3.33379e-10
4.54617e-09
-2.65694e-10
-2.36788e-10
4.7687e-09
-1.30557e-10
-9.19358e-11
4.67479e-09
1.11542e-11
8.27852e-11
4.24667e-09
1.57542e-10
2.70614e-10
3.51399e-09
2.77016e-10
4.55708e-10
2.51505e-09
3.85583e-10
6.13413e-10
1.32158e-09
4.64224e-10
7.29325e-10
2.48841e-11
5.05781e-10
7.90988e-10
-1.27586e-09
5.08026e-10
7.92784e-10
-2.47259e-09
4.64643e-10
7.3215e-10
-3.47552e-09
3.85253e-10
6.17739e-10
-4.2153e-09
2.78684e-10
4.61151e-10
-4.64874e-09
1.54167e-10
2.79318e-10
-4.7542e-09
1.2275e-11
9.32112e-11
-4.53669e-09
-1.33196e-10
-8.43021e-11
-4.03833e-09
-2.6782e-10
-2.30549e-10
-3.32597e-09
-3.84084e-10
-3.28292e-10
-2.48606e-09
-4.71625e-10
-3.6832e-10
-1.62127e-09
-5.19357e-10
-3.45454e-10
-8.45098e-10
-5.09415e-10
-2.66772e-10
-2.71954e-10
-4.19036e-10
-1.54078e-10
9.29639e-12
-2.2542e-10
-5.57396e-11
2.17481e-11
-1.23359e-11
2.75027e-10
-5.23722e-10
2.74897e-10
1.06071e-09
-1.57154e-09
5.64581e-10
2.30845e-09
-2.36148e-09
6.99219e-10
3.87941e-09
-2.84254e-09
7.66054e-10
5.58475e-09
-3.07303e-09
8.5089e-10
7.22119e-09
-3.1098e-09
1.00339e-09
8.59668e-09
-3.00147e-09
1.24394e-09
9.54502e-09
-2.78635e-09
1.57238e-09
9.9367e-09
-2.49655e-09
1.97437e-09
9.68874e-09
-2.16098e-09
2.42014e-09
8.76252e-09
-1.80796e-09
2.89175e-09
7.20922e-09
-1.49883e-09
3.32919e-09
5.14493e-09
-1.22696e-09
3.67689e-09
2.70043e-09
-1.03027e-09
3.93909e-09
5.02351e-11
-9.27405e-10
4.08348e-09
-2.61022e-09
-9.28033e-10
4.0966e-09
-5.0613e-09
-1.03503e-09
3.95084e-09
-7.1274e-09
-1.23514e-09
3.68657e-09
-8.66772e-09
-1.50757e-09
3.32664e-09
-9.5965e-09
-1.82262e-09
2.90562e-09
-9.85903e-09
-2.1708e-09
2.44564e-09
-9.48042e-09
-2.50395e-09
1.99216e-09
-8.54802e-09
-2.79093e-09
1.59071e-09
-7.18968e-09
-3.00517e-09
1.26272e-09
-5.56735e-09
-3.11451e-09
1.02052e-09
-3.87455e-09
-3.07935e-09
8.67162e-10
-2.3115e-09
-2.85307e-09
7.80594e-10
-1.06471e-09
-2.37535e-09
7.09562e-10
-2.76376e-10
-1.58289e-09
5.69237e-10
-5.29726e-10
2.75242e-10
5.78263e-10
-1.68551e-09
5.8364e-10
1.83746e-09
-4.07918e-09
1.24852e-09
3.60318e-09
-5.78925e-09
1.66207e-09
5.70175e-09
-6.90477e-09
1.96364e-09
7.91602e-09
-7.54562e-09
2.25831e-09
1.00069e-08
-7.81094e-09
2.61023e-09
1.17409e-08
-7.78595e-09
3.05053e-09
1.2911e-08
-7.54091e-09
3.5845e-09
1.33557e-08
-7.13967e-09
4.19849e-09
1.29717e-08
-6.63588e-09
4.85897e-09
1.17083e-08
-6.08776e-09
5.5432e-09
9.6191e-09
-5.56961e-09
6.16003e-09
6.85529e-09
-5.11527e-09
6.65219e-09
3.59509e-09
-4.78357e-09
7.01358e-09
6.46166e-11
-4.61259e-09
7.21576e-09
-3.48269e-09
-4.62074e-09
7.24011e-09
-6.75291e-09
-4.79485e-09
7.03014e-09
-9.51695e-09
-5.12836e-09
6.65734e-09
-1.15938e-08
-5.57933e-09
6.1487e-09
-1.28734e-08
-6.10199e-09
5.55905e-09
-1.32786e-08
-6.64886e-09
4.88327e-09
-1.28495e-08
-7.14893e-09
4.21589e-09
-1.16958e-08
-7.54815e-09
3.60354e-09
-9.97901e-09
-7.79143e-09
3.06943e-09
-7.90388e-09
-7.81785e-09
2.62819e-09
-5.7004e-09
-7.55714e-09
2.27427e-09
-3.60888e-09
-6.92095e-09
1.97635e-09
-1.84451e-09
-5.80886e-09
1.6692e-09
-5.81677e-10
-4.09449e-09
1.24888e-09
-1.69377e-09
5.82519e-10
8.29049e-10
-3.35338e-09
8.38972e-10
2.4866e-09
-7.54632e-09
1.80968e-09
4.67227e-09
-1.04222e-08
2.44724e-09
7.17266e-09
-1.23437e-08
2.93856e-09
9.74887e-09
-1.35312e-08
3.40937e-09
1.21436e-08
-1.41362e-08
3.93055e-09
1.41041e-08
-1.42847e-08
4.53827e-09
1.54041e-08
-1.40807e-08
5.23985e-09
1.586e-08
-1.36187e-08
6.02323e-09
1.53527e-08
-1.29855e-08
6.85691e-09
1.38229e-08
-1.22685e-08
7.7105e-09
1.13427e-08
-1.15533e-08
8.46396e-09
8.07684e-09
-1.09305e-08
9.0812e-09
4.23263e-09
-1.04506e-08
9.51132e-09
7.30599e-11
-1.02061e-08
9.75317e-09
-4.10881e-09
-1.02234e-08
9.78461e-09
-7.96621e-09
-1.04627e-08
9.52538e-09
-1.12342e-08
-1.093e-08
9.06965e-09
-1.37033e-08
-1.1556e-08
8.4459e-09
-1.52464e-08
-1.2274e-08
7.71512e-09
-1.57731e-08
-1.29912e-08
6.86902e-09
-1.53346e-08
-1.3623e-08
6.03563e-09
-1.40536e-08
-1.40844e-08
5.2553e-09
-1.21104e-08
-1.42881e-08
4.55342e-09
-9.73249e-09
-1.41422e-08
3.94636e-09
-7.1705e-09
-1.35429e-08
3.42373e-09
-4.67697e-09
-1.23628e-08
2.94831e-09
-2.49352e-09
-1.04406e-08
2.44838e-09
-8.35154e-10
-7.55269e-09
1.79994e-09
-3.36468e-09
8.35896e-10
1.0182e-09
-5.39885e-09
1.02744e-09
2.98321e-09
-1.17311e-08
2.21988e-09
5.49792e-09
-1.59616e-08
3.02473e-09
8.30844e-09
-1.88106e-08
3.65633e-09
1.1156e-08
-2.06382e-08
4.25934e-09
1.37706e-08
-2.16642e-08
4.91331e-09
1.58893e-08
-2.20597e-08
5.65634e-09
1.72734e-08
-2.19635e-08
6.49877e-09
1.7731e-08
-2.15012e-08
7.42485e-09
1.71311e-08
-2.079e-08
8.40449e-09
1.54101e-08
-1.99507e-08
9.40324e-09
1.26427e-08
-1.90884e-08
1.03025e-08
8.99522e-09
-1.83141e-08
1.10311e-08
4.71099e-09
-1.76853e-08
1.1519e-08
7.8659e-11
-1.73673e-08
1.17937e-08
-4.5798e-09
-1.73909e-08
1.18261e-08
-8.8734e-09
-1.77006e-08
1.15315e-08
-1.25161e-08
-1.82916e-08
1.10045e-08
-1.52821e-08
-1.90822e-08
1.02923e-08
-1.70182e-08
-1.99498e-08
9.41198e-09
-1.7638e-08
-2.07902e-08
8.41883e-09
-1.71996e-08
-2.15015e-08
7.44009e-09
-1.58337e-08
-2.19649e-08
6.51466e-09
-1.37318e-08
-2.20621e-08
5.67208e-09
-1.11334e-08
-2.16689e-08
4.92826e-09
-8.30094e-09
-2.06473e-08
4.27196e-09
-5.50074e-09
-1.88264e-08
3.66342e-09
-2.98816e-09
-1.59753e-08
3.02208e-09
-1.02349e-09
-1.17229e-08
2.20562e-09
-5.41278e-09
1.02475e-09
1.14528e-09
-7.7002e-09
1.15623e-09
3.3286e-09
-1.6408e-08
2.49374e-09
6.0825e-09
-2.21291e-08
3.41371e-09
9.11806e-09
-2.59918e-08
4.14556e-09
1.21613e-08
-2.85263e-08
4.84493e-09
1.49339e-08
-3.00378e-08
5.60092e-09
1.7167e-08
-3.07465e-08
6.45378e-09
1.86153e-08
-3.08279e-08
7.41619e-09
1.90798e-08
-3.04361e-08
8.47058e-09
1.84244e-08
-2.9716e-08
9.58135e-09
1.65826e-08
-2.88148e-08
1.07059e-08
1.36052e-08
-2.78773e-08
1.17664e-08
9.67569e-09
-2.69947e-08
1.26102e-08
5.06441e-09
-2.62278e-08
1.31539e-08
7.88437e-11
-2.58273e-08
1.34457e-08
-4.93512e-09
-2.58529e-08
1.34761e-08
-9.54648e-09
-2.62631e-08
1.3174e-08
-1.34634e-08
-2.69511e-08
1.25765e-08
-1.64451e-08
-2.78637e-08
1.17633e-08
-1.83051e-08
-2.88106e-08
1.07209e-08
-1.89827e-08
-2.97126e-08
9.60001e-09
-1.85388e-08
-3.04346e-08
8.48928e-09
-1.71092e-08
-3.08289e-08
7.43432e-09
-1.4893e-08
-3.0749e-08
6.47075e-09
-1.2135e-08
-3.00421e-08
5.61529e-09
-9.10574e-09
-2.85334e-08
4.85671e-09
-6.0815e-09
-2.60015e-08
4.15089e-09
-3.3338e-09
-2.21309e-08
3.40806e-09
-1.15116e-09
-1.63843e-08
2.4789e-09
-7.71863e-09
1.15482e-09
1.20923e-09
-1.01447e-08
1.23542e-09
3.52687e-09
-2.1397e-08
2.67147e-09
6.43162e-09
-2.86858e-08
3.65196e-09
9.60675e-09
-3.36061e-08
4.4392e-09
1.27701e-08
-3.68936e-08
5.20385e-09
1.56406e-08
-3.89442e-08
6.0359e-09
1.79482e-08
-4.00315e-08
6.97746e-09
1.9443e-08
-4.03663e-08
8.04369e-09
1.99228e-08
-4.01299e-08
9.21411e-09
1.9244e-08
-3.94868e-08
1.04497e-08
1.73384e-08
-3.86101e-08
1.1701e-08
1.42231e-08
-3.76684e-08
1.29063e-08
1.01196e-08
-3.67628e-08
1.38716e-08
5.29602e-09
-3.58706e-08
1.44665e-08
8.56064e-11
-3.53949e-08
1.47781e-08
-5.14873e-09
-3.5434e-08
1.48155e-08
-9.98849e-09
-3.59371e-08
1.45139e-08
-1.40777e-08
-3.67103e-08
1.38485e-08
-1.71971e-08
-3.76552e-08
1.29109e-08
-1.91222e-08
-3.86094e-08
1.1724e-08
-1.98232e-08
-3.94869e-08
1.04754e-08
-1.93649e-08
-4.01308e-08
9.23797e-09
-1.7889e-08
-4.03698e-08
8.06498e-09
-1.55986e-08
-4.00369e-08
6.99757e-09
-1.27419e-08
-3.89502e-08
6.05139e-09
-9.59173e-09
-3.68991e-08
5.21556e-09
-6.42875e-09
-3.36068e-08
4.44234e-09
-3.53565e-09
-2.86626e-08
3.63858e-09
-1.22391e-09
-2.13391e-08
2.64316e-09
-1.01746e-08
1.23218e-09
1.23319e-09
-1.26393e-08
1.2616e-09
3.58998e-09
-2.64932e-08
2.73946e-09
6.54461e-09
-3.53892e-08
3.74884e-09
9.76751e-09
-4.13887e-08
4.55968e-09
1.29671e-08
-4.54494e-08
5.35629e-09
1.58666e-08
-4.80832e-08
6.2394e-09
1.82005e-08
-4.96139e-08
7.2486e-09
1.97201e-08
-5.02844e-08
8.39857e-09
2.0219e-08
-5.02981e-08
9.66936e-09
1.95511e-08
-4.98371e-08
1.10183e-08
1.76359e-08
-4.90849e-08
1.239e-08
1.44729e-08
-4.82327e-08
1.37273e-08
1.02917e-08
-4.74104e-08
1.48289e-08
5.37827e-09
-4.64155e-08
1.54583e-08
8.51819e-11
-4.5907e-08
1.58053e-08
-5.23929e-09
-4.59549e-08
1.58455e-08
-1.0188e-08
-4.64839e-08
1.54956e-08
-1.4337e-08
-4.73548e-08
1.47936e-08
-1.74961e-08
-4.82228e-08
1.37267e-08
-1.94295e-08
-4.90886e-08
1.24126e-08
-2.01204e-08
-4.98406e-08
1.10445e-08
-1.96425e-08
-5.03027e-08
9.69408e-09
-1.81411e-08
-5.02925e-08
8.42136e-09
-1.58235e-08
-4.96247e-08
7.27022e-09
-1.29374e-08
-4.80936e-08
6.25718e-09
-9.75137e-09
-4.54535e-08
5.3684e-09
-6.54525e-09
-4.13679e-08
4.55498e-09
-3.60429e-09
-3.5324e-08
3.72052e-09
-1.24656e-09
-2.63986e-08
2.70188e-09
-1.26817e-08
1.2607e-09
1.21181e-09
-1.50897e-08
1.23877e-09
3.51255e-09
-3.14965e-08
2.70273e-09
6.40693e-09
-4.20052e-08
3.72162e-09
9.57419e-09
-4.90896e-08
4.53366e-09
1.27204e-08
-5.39187e-08
5.32299e-09
1.55681e-08
-5.7146e-08
6.2152e-09
1.78664e-08
-5.91708e-08
7.25862e-09
1.93765e-08
-6.02547e-08
8.46036e-09
1.98918e-08
-6.06118e-08
9.79848e-09
1.92632e-08
-6.04378e-08
1.12294e-08
1.74143e-08
-5.99198e-08
1.26838e-08
1.4331e-08
-5.92424e-08
1.4093e-08
1.01739e-08
-5.85603e-08
1.5307e-08
5.3098e-09
-5.75351e-08
1.59838e-08
8.08564e-11
-5.70705e-08
1.63925e-08
-5.18607e-09
-5.71128e-08
1.6425e-08
-1.0099e-08
-5.7561e-08
1.59901e-08
-1.42185e-08
-5.84757e-08
1.52405e-08
-1.72812e-08
-5.92333e-08
1.40733e-08
-1.91445e-08
-5.99273e-08
1.2702e-08
-1.97942e-08
-6.04468e-08
1.1256e-08
-1.92994e-08
-6.06216e-08
9.82422e-09
-1.78077e-08
-6.02682e-08
8.48399e-09
-1.55249e-08
-5.91882e-08
7.28076e-09
-1.26919e-08
-5.71571e-08
6.23059e-09
-9.56819e-09
-5.38945e-08
5.31741e-09
-6.42356e-09
-4.90051e-08
4.49268e-09
-3.53718e-09
-4.18704e-08
3.66016e-09
-1.22008e-09
-3.13752e-08
2.65959e-09
-1.51413e-08
1.23955e-09
1.14969e-09
-1.74009e-08
1.16161e-09
3.32143e-09
-3.62058e-08
2.53764e-09
6.02576e-09
-4.82392e-08
3.52978e-09
9.0062e-09
-5.64079e-08
4.33783e-09
1.19914e-08
-6.20087e-08
5.10479e-09
1.46956e-08
-6.58076e-08
5.95736e-09
1.68834e-08
-6.83434e-08
6.98494e-09
1.83346e-08
-6.98959e-08
8.19013e-09
1.88555e-08
-7.06766e-08
9.54412e-09
1.82936e-08
-7.08787e-08
1.10029e-08
1.65762e-08
-7.06881e-08
1.24857e-08
1.36892e-08
-7.0271e-08
1.39156e-08
9.68778e-09
-6.97476e-08
1.51887e-08
5.05303e-09
-6.8824e-08
1.59238e-08
7.51485e-11
-6.84493e-08
1.63568e-08
-4.93202e-09
-6.84893e-08
1.63838e-08
-9.59916e-09
-6.87995e-08
1.59058e-08
-1.35794e-08
-6.95777e-08
1.50822e-08
-1.64519e-08
-7.02487e-08
1.3888e-08
-1.81792e-08
-7.07012e-08
1.25012e-08
-1.87614e-08
-7.08931e-08
1.10285e-08
-1.82613e-08
-7.0691e-08
9.56939e-09
-1.68263e-08
-6.99164e-08
8.21317e-09
-1.46512e-08
-6.83675e-08
7.00427e-09
-1.19692e-08
-6.57966e-08
5.9575e-09
-9.01763e-09
-6.1902e-08
5.05593e-09
-6.04588e-09
-5.62276e-08
4.25078e-09
-3.32434e-09
-4.80425e-08
3.45058e-09
-1.14564e-09
-3.6056e-08
2.50223e-09
-1.74544e-08
1.16762e-09
1.03749e-09
-1.94693e-08
1.03101e-09
3.00411e-09
-4.03952e-08
2.22292e-09
5.42762e-09
-5.37749e-08
3.11215e-09
8.0754e-09
-6.29583e-08
3.90264e-09
1.07605e-08
-6.93373e-08
4.64347e-09
1.32088e-08
-7.36877e-08
5.43189e-09
1.52004e-08
-7.67254e-08
6.39051e-09
1.65372e-08
-7.87727e-08
7.54005e-09
1.70404e-08
-8.00192e-08
8.83945e-09
1.65709e-08
-8.06447e-08
1.02355e-08
1.50753e-08
-8.08135e-08
1.1621e-08
1.25149e-08
-8.06456e-08
1.29349e-08
8.82831e-09
-8.02412e-08
1.41802e-08
4.59618e-09
-7.96367e-08
1.50449e-08
6.81827e-11
-7.94181e-08
1.54969e-08
-4.47782e-09
-7.94583e-08
1.55152e-08
-8.68824e-09
-7.96171e-08
1.50282e-08
-1.23083e-08
-8.01577e-08
1.42001e-08
-1.49055e-08
-8.0749e-08
1.30974e-08
-1.64538e-08
-8.08615e-08
1.17086e-08
-1.69486e-08
-8.06661e-08
1.02679e-08
-1.64678e-08
-8.00313e-08
8.85954e-09
-1.51445e-08
-7.87962e-08
7.55666e-09
-1.3161e-08
-7.67512e-08
6.40033e-09
-1.07363e-08
-7.36271e-08
5.40582e-09
-8.07466e-09
-6.91162e-08
4.55254e-09
-5.39305e-09
-6.2703e-08
3.79384e-09
-2.95077e-09
-5.35462e-08
3.06143e-09
-1.00713e-09
-4.02145e-08
2.21488e-09
-1.94999e-08
1.03837e-09
8.74186e-10
-2.11943e-08
8.50915e-10
2.5498e-09
-4.38576e-08
1.78678e-09
4.59761e-09
-5.82806e-08
2.45795e-09
6.81834e-09
-6.83112e-08
3.13214e-09
9.03033e-09
-7.53939e-08
3.84469e-09
1.10848e-08
-8.03212e-08
4.57901e-09
1.27832e-08
-8.38483e-08
5.42455e-09
1.3951e-08
-8.63895e-08
6.44909e-09
1.4426e-08
-8.81057e-08
7.61164e-09
1.40812e-08
-8.91233e-08
8.82335e-09
1.28323e-08
-8.95754e-08
1.00108e-08
1.0601e-08
-8.96833e-08
1.1269e-08
7.48864e-09
-8.95851e-08
1.24562e-08
3.91057e-09
-8.93147e-08
1.32561e-08
5.71186e-11
-8.92273e-08
1.36629e-08
-3.82417e-09
-8.92043e-08
1.36274e-08
-7.40909e-09
-8.91736e-08
1.31415e-08
-1.04774e-08
-8.94597e-08
1.23704e-08
-1.26689e-08
-8.99391e-08
1.13815e-08
-1.39465e-08
-8.9668e-08
1.00842e-08
-1.43241e-08
-8.91125e-08
8.82405e-09
-1.3881e-08
-8.80752e-08
7.60085e-09
-1.27287e-08
-8.63963e-08
6.44781e-09
-1.10204e-08
-8.38744e-08
5.41494e-09
-8.96701e-09
-8.02198e-08
4.53945e-09
-6.73918e-09
-7.51555e-08
3.81141e-09
-4.52516e-09
-6.81131e-08
3.19607e-09
-2.4922e-09
-5.81781e-08
2.59906e-09
-8.59868e-10
-4.37305e-08
1.8838e-09
-2.1239e-08
8.79298e-10
6.70694e-10
-2.25064e-08
6.4147e-10
1.93161e-09
-4.64848e-08
1.36639e-09
3.51262e-09
-6.17066e-08
1.845e-09
5.2058e-09
-7.22623e-08
2.25793e-09
6.84704e-09
-7.98049e-08
2.76968e-09
8.37478e-09
-8.52383e-08
3.3894e-09
9.66344e-09
-8.92254e-08
4.08848e-09
1.05956e-08
-9.22043e-08
4.8828e-09
1.1051e-08
-9.43341e-08
5.77311e-09
1.08083e-08
-9.56184e-08
6.73787e-09
9.7381e-09
-9.63157e-08
7.81031e-09
7.94437e-09
-9.68016e-08
8.91192e-09
5.68909e-09
-9.71707e-08
9.84079e-09
3.00635e-09
-9.7111e-08
1.04791e-08
4.99769e-11
-9.70563e-08
1.07855e-08
-2.95595e-09
-9.69127e-08
1.07145e-08
-5.69444e-09
-9.67562e-08
1.03211e-08
-7.9998e-09
-9.68127e-08
9.65829e-09
-9.73982e-09
-9.692e-08
8.72084e-09
-1.07047e-08
-9.62748e-08
7.5715e-09
-1.09393e-08
-9.54571e-08
6.57932e-09
-1.05649e-08
-9.41109e-08
5.66137e-09
-9.6832e-09
-9.20961e-08
4.81815e-09
-8.40179e-09
-8.9264e-08
4.1082e-09
-6.84071e-09
-8.52771e-08
3.49626e-09
-5.14459e-09
-7.97914e-08
2.93985e-09
-3.45412e-09
-7.22513e-08
2.44771e-09
-1.90177e-09
-6.17052e-08
1.97471e-09
-6.57086e-10
-4.64023e-08
1.42716e-09
-2.25609e-08
6.6493e-10
4.53102e-10
-2.33496e-08
3.90141e-10
1.22182e-09
-4.80735e-08
8.20004e-10
2.20851e-09
-6.38792e-08
1.18588e-09
3.27938e-09
-7.48137e-08
1.48052e-09
4.33009e-09
-8.26752e-08
1.81961e-09
5.31356e-09
-8.84317e-08
2.21003e-09
6.13955e-09
-9.26762e-08
2.62499e-09
6.70047e-09
-9.58064e-08
3.04127e-09
7.00287e-09
-9.81312e-08
3.49478e-09
6.82645e-09
-9.96039e-08
4.16194e-09
6.12422e-09
-1.00596e-07
4.98248e-09
5.03763e-09
-1.01452e-07
5.7371e-09
3.61626e-09
-1.02077e-07
6.32734e-09
1.91801e-09
-1.0215e-07
6.73737e-09
5.93329e-11
-1.02162e-07
6.96502e-09
-1.82786e-09
-1.01971e-07
6.94539e-09
-3.55814e-09
-1.0174e-07
6.7145e-09
-4.98629e-09
-1.01678e-07
6.29312e-09
-6.10191e-09
-1.01523e-07
5.7183e-09
-6.78789e-09
-1.00549e-07
4.95991e-09
-7.04332e-09
-9.93609e-08
4.15926e-09
-6.84358e-09
-9.77239e-08
3.41324e-09
-6.239e-09
-9.55413e-08
2.84067e-09
-5.346e-09
-9.26055e-08
2.44856e-09
-4.31535e-09
-8.84457e-08
2.13789e-09
-3.23272e-09
-8.27092e-08
1.83512e-09
-2.16446e-09
-7.48544e-08
1.53481e-09
-1.18819e-09
-6.39188e-08
1.23737e-09
-4.10934e-10
-4.80718e-08
8.92272e-10
-2.33872e-08
4.15394e-10
1.65631e-10
-2.36478e-08
1.32633e-10
4.24913e-10
-4.86167e-08
2.8389e-10
7.72445e-10
-6.46505e-08
4.23749e-10
1.15416e-09
-7.57247e-08
5.29224e-10
1.53975e-09
-8.36957e-08
6.34861e-10
1.93047e-09
-8.95454e-08
7.23047e-10
2.29386e-09
-9.38396e-08
8.00106e-10
2.51094e-09
-9.69484e-08
9.25037e-10
2.54168e-09
-9.92824e-08
1.12046e-09
2.40498e-09
-1.00866e-07
1.39889e-09
2.18731e-09
-1.02069e-07
1.69064e-09
1.86805e-09
-1.03071e-07
1.9376e-09
1.26776e-09
-1.03582e-07
2.10521e-09
6.30926e-10
-1.03737e-07
2.22414e-09
3.52329e-11
-1.0391e-07
2.34333e-09
-6.27942e-10
-1.03752e-07
2.44438e-09
-1.24866e-09
-1.03559e-07
2.43939e-09
-1.73959e-09
-1.03466e-07
2.27929e-09
-2.12629e-09
-1.03203e-07
2.06692e-09
-2.36535e-09
-1.02116e-07
1.80649e-09
-2.46238e-09
-1.00795e-07
1.53136e-09
-2.40162e-09
-9.90502e-08
1.26568e-09
-2.19091e-09
-9.68007e-08
1.04883e-09
-1.87489e-09
-9.38055e-08
8.83926e-10
-1.50764e-09
-8.95599e-08
7.46904e-10
-1.12351e-09
-8.37172e-08
6.23835e-10
-7.4609e-10
-7.57478e-08
5.15965e-10
-4.04956e-10
-6.46751e-08
4.15184e-10
-1.39283e-10
-4.86339e-08
2.96405e-10
-2.36692e-08
1.42721e-10
-1.16551e-10
-2.3403e-08
-1.28217e-10
-3.62253e-10
-4.81123e-08
-2.58714e-10
-6.64428e-10
-6.39956e-08
-3.52753e-10
-9.94999e-10
-7.49548e-08
-4.39367e-10
-1.33582e-09
-8.2835e-08
-5.19876e-10
-1.6783e-09
-8.86257e-08
-5.77198e-10
-1.99799e-09
-9.28996e-08
-6.20181e-10
-2.20101e-09
-9.60404e-08
-7.04863e-10
-2.20524e-09
-9.83764e-08
-9.01782e-10
-2.05704e-09
-9.98178e-08
-1.1967e-09
-1.86507e-09
-1.00784e-07
-1.47716e-09
-1.69897e-09
-1.01572e-07
-1.66498e-09
-1.4355e-09
-1.02058e-07
-1.78675e-09
-8.85319e-10
-1.02373e-07
-1.91416e-09
-8.31036e-11
-1.02604e-07
-2.10835e-09
5.75531e-10
-1.02227e-07
-2.18351e-09
1.14217e-09
-1.0203e-07
-2.09539e-09
1.65127e-09
-1.02019e-07
-1.95691e-09
1.93146e-09
-1.01705e-07
-1.77883e-09
2.11149e-09
-1.00727e-07
-1.56968e-09
2.20114e-09
-9.95485e-08
-1.33621e-09
2.15258e-09
-9.79047e-08
-1.09678e-09
1.98415e-09
-9.57231e-08
-9.09119e-10
1.7012e-09
-9.27488e-08
-7.73809e-10
1.37318e-09
-8.85619e-08
-6.70075e-10
1.03293e-09
-8.28053e-08
-5.71772e-10
6.93175e-10
-7.49343e-08
-4.73782e-10
3.85295e-10
-6.39918e-08
-3.75471e-10
1.38824e-10
-4.81265e-08
-2.60839e-10
-2.34088e-08
-1.21501e-10
-3.95806e-10
-2.26076e-08
-3.99568e-10
-1.14993e-09
-4.65033e-08
-8.54863e-10
-2.09119e-09
-6.18675e-08
-1.18703e-09
-3.12182e-09
-7.24502e-08
-1.47405e-09
-4.15717e-09
-8.0026e-08
-1.77359e-09
-5.11672e-09
-8.55576e-08
-2.10836e-09
-5.91388e-09
-8.96189e-08
-2.48334e-09
-6.47841e-09
-9.25698e-08
-2.90597e-09
-6.73973e-09
-9.47346e-08
-3.38055e-09
-6.53862e-09
-9.60241e-08
-3.99515e-09
-5.86731e-09
-9.66916e-08
-4.76426e-09
-4.90001e-09
-9.70824e-08
-5.45709e-09
-3.58364e-09
-9.73849e-08
-5.98968e-09
-1.92786e-09
-9.76205e-08
-6.40794e-09
-3.31907e-11
-9.78186e-08
-6.67935e-09
1.79672e-09
-9.74026e-08
-6.65425e-09
3.51693e-09
-9.73265e-08
-6.42432e-09
5.02186e-09
-9.75147e-08
-6.0092e-09
5.92459e-09
-9.71711e-08
-5.43642e-09
6.5115e-09
-9.65296e-08
-4.78386e-09
6.7717e-09
-9.5775e-08
-4.0335e-09
6.57737e-09
-9.44599e-08
-3.25037e-09
6.01493e-09
-9.24259e-08
-2.73481e-09
5.15439e-09
-8.94967e-08
-2.39167e-09
4.16601e-09
-8.54903e-08
-2.08335e-09
3.14254e-09
-8.00069e-08
-1.77507e-09
2.1155e-09
-7.24452e-08
-1.46215e-09
1.18258e-09
-6.19027e-08
-1.15614e-09
4.29625e-10
-4.65693e-08
-8.04232e-10
-2.25956e-08
-3.83553e-10
-6.47716e-10
-2.13106e-08
-6.49318e-10
-1.86716e-09
-4.38893e-08
-1.39469e-09
-3.39002e-09
-5.84086e-08
-1.93617e-09
-5.0496e-09
-6.83871e-08
-2.40373e-09
-6.70866e-09
-7.54752e-08
-2.89174e-09
-8.22355e-09
-8.05856e-08
-3.45692e-09
-9.45851e-09
-8.42754e-08
-4.10825e-09
-1.0333e-08
-8.68327e-08
-4.86247e-09
-1.07705e-08
-8.85843e-08
-5.71291e-09
-1.05557e-08
-8.96391e-08
-6.60018e-09
-9.53392e-09
-9.00931e-08
-7.62068e-09
-7.83688e-09
-9.01028e-08
-8.67686e-09
-5.61574e-09
-9.00352e-08
-9.57058e-09
-2.96795e-09
-9.00461e-08
-1.02217e-08
-3.70397e-11
-9.01764e-08
-1.05727e-08
2.87871e-09
-8.9825e-08
-1.04932e-08
5.59399e-09
-8.98839e-08
-1.01583e-08
7.94492e-09
-9.03404e-08
-9.52567e-09
9.54357e-09
-9.01617e-08
-8.60827e-09
1.05101e-08
-8.98988e-08
-7.59726e-09
1.08029e-08
-8.94876e-08
-6.57999e-09
1.04329e-08
-8.85296e-08
-5.55988e-09
9.51781e-09
-8.68313e-08
-4.67947e-09
8.22023e-09
-8.42522e-08
-3.94705e-09
6.68357e-09
-8.06336e-08
-3.3202e-09
5.05544e-09
-7.56172e-08
-2.76176e-09
3.42847e-09
-6.85454e-08
-2.27283e-09
1.92538e-09
-5.85928e-08
-1.80679e-09
6.87872e-10
-4.40611e-08
-1.27066e-09
-2.12944e-08
-6.13236e-10
-8.64647e-10
-1.95873e-08
-8.58696e-10
-2.46973e-09
-4.04364e-08
-1.84796e-09
-4.47805e-09
-5.38222e-08
-2.57828e-09
-6.66995e-09
-6.3012e-08
-3.18337e-09
-8.87126e-09
-6.94732e-08
-3.80069e-09
-1.09101e-08
-7.40254e-08
-4.52111e-09
-1.26071e-08
-7.71906e-08
-5.3875e-09
-1.37536e-08
-7.92784e-08
-6.40758e-09
-1.42217e-08
-8.05694e-08
-7.54697e-09
-1.38888e-08
-8.12454e-08
-8.72704e-09
-1.2639e-08
-8.14433e-08
-9.90019e-09
-1.04022e-08
-8.12396e-08
-1.11003e-08
-7.38827e-09
-8.08136e-08
-1.22353e-08
-3.87029e-09
-8.04973e-08
-1.30663e-08
-2.98305e-11
-8.05097e-08
-1.35067e-08
3.80117e-09
-8.02603e-08
-1.33957e-08
7.35293e-09
-8.04568e-08
-1.29793e-08
1.04129e-08
-8.11564e-08
-1.22445e-08
1.26104e-08
-8.13194e-08
-1.10402e-08
1.38757e-08
-8.14055e-08
-9.75836e-09
1.42435e-08
-8.12331e-08
-8.62192e-09
1.37988e-08
-8.05936e-08
-7.49104e-09
1.26515e-08
-7.93165e-08
-6.3675e-09
1.09733e-08
-7.72217e-08
-5.35244e-09
8.93911e-09
-7.41e-08
-4.49967e-09
6.75126e-09
-6.96707e-08
-3.75887e-09
4.58429e-09
-6.33473e-08
-3.03127e-09
2.56365e-09
-5.42269e-08
-2.34533e-09
9.0589e-10
-4.07476e-08
-1.6557e-09
-1.95771e-08
-8.11413e-10
-1.03313e-09
-1.75314e-08
-1.02277e-09
-2.94243e-09
-3.63374e-08
-2.18982e-09
-5.35739e-09
-4.83469e-08
-3.0606e-09
-8.02179e-09
-5.6556e-08
-3.79184e-09
-1.068e-08
-6.22784e-08
-4.53663e-09
-1.31045e-08
-6.62221e-08
-5.37848e-09
-1.50881e-08
-6.88391e-08
-6.36741e-09
-1.64148e-08
-7.04374e-08
-7.5141e-09
-1.69108e-08
-7.12649e-08
-8.80876e-09
-1.64443e-08
-7.15164e-08
-1.01962e-08
-1.49493e-08
-7.13633e-08
-1.15757e-08
-1.2381e-08
-7.09579e-08
-1.28503e-08
-8.77935e-09
-7.03899e-08
-1.4025e-08
-4.55669e-09
-6.97563e-08
-1.4963e-08
-2.13343e-11
-6.95455e-08
-1.5499e-08
4.49738e-09
-6.93673e-08
-1.54118e-08
8.70587e-09
-6.97146e-08
-1.49513e-08
1.23023e-08
-7.05922e-08
-1.41614e-08
1.49041e-08
-7.10107e-08
-1.29109e-08
1.64372e-08
-7.13812e-08
-1.15573e-08
1.69215e-08
-7.15375e-08
-1.01795e-08
1.64347e-08
-7.12975e-08
-8.8089e-09
1.51133e-08
-7.04774e-08
-7.51754e-09
1.31401e-08
-6.88814e-08
-6.36724e-09
1.07095e-08
-6.62763e-08
-5.39358e-09
8.03296e-09
-6.23922e-08
-4.60226e-09
5.37249e-09
-5.67891e-08
-3.89785e-09
2.97185e-09
-4.86667e-08
-3.1595e-09
1.04083e-09
-3.65761e-08
-2.2404e-09
-1.75154e-08
-1.02071e-09
-1.14698e-09
-1.52209e-08
-1.16348e-09
-3.31763e-09
-3.16579e-08
-2.50904e-09
-6.03552e-09
-4.21754e-08
-3.45399e-09
-9.0049e-09
-4.93414e-08
-4.24547e-09
-1.19599e-08
-5.42804e-08
-5.04298e-09
-1.46496e-08
-5.75904e-08
-5.94161e-09
-1.68315e-08
-5.96692e-08
-6.98752e-09
-1.82775e-08
-6.07974e-08
-8.19379e-09
-1.87922e-08
-6.11992e-08
-9.55117e-09
-1.82302e-08
-6.10682e-08
-1.1011e-08
-1.65137e-08
-6.059e-08
-1.24906e-08
-1.3645e-08
-5.99488e-08
-1.38781e-08
-9.69011e-09
-5.92706e-08
-1.50738e-08
-4.99401e-09
-5.8513e-08
-1.59386e-08
-1.35546e-11
-5.80688e-08
-1.64566e-08
4.97667e-09
-5.79552e-08
-1.64023e-08
9.65642e-09
-5.84336e-08
-1.59614e-08
1.35901e-08
-5.93322e-08
-1.51945e-08
1.64783e-08
-5.99697e-08
-1.39296e-08
1.82137e-08
-6.06104e-08
-1.2506e-08
1.87916e-08
-6.1092e-08
-1.1023e-08
1.82871e-08
-6.1229e-08
-9.56349e-09
1.6848e-08
-6.0833e-08
-8.20526e-09
1.46716e-08
-5.97103e-08
-6.99506e-09
1.19828e-08
-5.76371e-08
-5.95079e-09
9.00898e-09
-5.43422e-08
-5.07646e-09
6.00887e-09
-4.94552e-08
-4.33395e-09
3.2852e-09
-4.23591e-08
-3.58399e-09
1.1395e-09
-3.1836e-08
-2.59436e-09
-1.52082e-08
-1.16761e-09
-1.19912e-09
-1.27709e-08
-1.25091e-09
-3.53236e-09
-2.66278e-08
-2.69699e-09
-6.43547e-09
-3.56012e-08
-3.67149e-09
-9.58948e-09
-4.16931e-08
-4.49468e-09
-1.27252e-08
-4.58255e-08
-5.31909e-09
-1.55711e-08
-4.85096e-08
-6.23439e-09
-1.78692e-08
-5.00826e-08
-7.2878e-09
-1.93784e-08
-5.07927e-08
-8.49524e-09
-1.98916e-08
-5.08444e-08
-9.84196e-09
-1.92581e-08
-5.04226e-08
-1.128e-08
-1.74027e-08
-4.97052e-08
-1.27412e-08
-1.43282e-08
-4.88802e-08
-1.41434e-08
-1.01892e-08
-4.80569e-08
-1.53522e-08
-5.24413e-09
-4.72871e-08
-1.617e-08
-6.28932e-12
-4.67452e-08
-1.65608e-08
5.24692e-09
-4.66983e-08
-1.65102e-08
1.01689e-08
-4.72374e-08
-1.6119e-08
1.42899e-08
-4.80927e-08
-1.53615e-08
1.73677e-08
-4.88962e-08
-1.41518e-08
1.92365e-08
-4.97218e-08
-1.27572e-08
1.9884e-08
-5.04421e-08
-1.12967e-08
1.93824e-08
-5.08699e-08
-9.85701e-09
1.78817e-08
-5.08233e-08
-8.50885e-09
1.55867e-08
-5.01178e-08
-7.29777e-09
1.27418e-08
-4.85497e-08
-6.24301e-09
9.60243e-09
-4.58719e-08
-5.33134e-09
6.42972e-09
-4.17555e-08
-4.52718e-09
3.51861e-09
-3.57131e-08
-3.73479e-09
1.20919e-09
-2.6788e-08
-2.7384e-09
-1.27538e-08
-1.24514e-09
-1.23706e-09
-1.02615e-08
-1.2723e-09
-3.61465e-09
-2.15254e-08
-2.72505e-09
-6.57457e-09
-2.89096e-08
-3.73206e-09
-9.79924e-09
-3.39023e-08
-4.56649e-09
-1.30056e-08
-3.72362e-08
-5.38286e-09
-1.59124e-08
-3.93257e-08
-6.27654e-09
-1.82513e-08
-4.04471e-08
-7.29604e-09
-1.9774e-08
-4.08141e-08
-8.45546e-09
-2.02712e-08
-4.06098e-08
-9.73776e-09
-1.9596e-08
-3.99985e-08
-1.11002e-08
-1.76659e-08
-3.91519e-08
-1.24844e-08
-1.45047e-08
-3.8225e-08
-1.38169e-08
-1.03461e-08
-3.73041e-08
-1.49108e-08
-5.396e-09
-3.65787e-08
-1.56574e-08
-4.0831e-11
-3.61073e-08
-1.59923e-08
5.28803e-09
-3.60565e-08
-1.59707e-08
1.02157e-08
-3.65186e-08
-1.56473e-08
1.44369e-08
-3.73512e-08
-1.49638e-08
1.76301e-08
-3.82411e-08
-1.38488e-08
1.95711e-08
-3.91601e-08
-1.25025e-08
2.02602e-08
-4.00126e-08
-1.1118e-08
1.97734e-08
-4.06289e-08
-9.75375e-09
1.82582e-08
-4.08388e-08
-8.46911e-09
1.5923e-08
-4.0475e-08
-7.30796e-09
1.30171e-08
-3.93569e-08
-6.2875e-09
9.80992e-09
-3.72719e-08
-5.39318e-09
6.57982e-09
-3.39439e-08
-4.58173e-09
3.60612e-09
-2.89693e-08
-3.77009e-09
1.22503e-09
-2.1625e-08
-2.78187e-09
-1.0253e-08
-1.27563e-09
-1.22627e-09
-7.79126e-09
-1.24396e-09
-3.55463e-09
-1.65364e-08
-2.66091e-09
-6.47004e-09
-2.23389e-08
-3.65581e-09
-9.65873e-09
-2.62511e-08
-4.46289e-09
-1.2836e-08
-2.88177e-08
-5.24116e-09
-1.572e-08
-3.03569e-08
-6.08411e-09
-1.80364e-08
-3.10919e-08
-7.03793e-09
-1.95372e-08
-3.11979e-08
-8.11497e-09
-2.00173e-08
-3.08285e-08
-9.30155e-09
-1.93284e-08
-3.0132e-08
-1.05566e-08
-1.74005e-08
-2.92529e-08
-1.1828e-08
-1.42918e-08
-2.83146e-08
-1.30195e-08
-1.02001e-08
-2.74261e-08
-1.39691e-08
-5.346e-09
-2.67643e-08
-1.46674e-08
-4.64341e-11
-2.63963e-08
-1.50097e-08
5.22e-09
-2.63406e-08
-1.49825e-08
1.00773e-08
-2.67177e-08
-1.46592e-08
1.42212e-08
-2.74668e-08
-1.40295e-08
1.73641e-08
-2.83326e-08
-1.30519e-08
1.93013e-08
-2.92568e-08
-1.18403e-08
2.00009e-08
-3.01401e-08
-1.05713e-08
1.95337e-08
-3.08432e-08
-9.31793e-09
1.804e-08
-3.12151e-08
-8.12993e-09
1.57267e-08
-3.11124e-08
-7.04964e-09
1.28446e-08
-3.03808e-08
-6.09447e-09
9.66812e-09
-2.88446e-08
-5.25127e-09
6.47669e-09
-2.62795e-08
-4.47316e-09
3.55411e-09
-2.23746e-08
-3.67212e-09
1.21219e-09
-1.65892e-08
-2.69374e-09
-7.79423e-09
-1.24643e-09
-1.15796e-09
-5.46858e-09
-1.1647e-09
-3.35897e-09
-1.18409e-08
-2.49473e-09
-6.13206e-09
-1.61384e-08
-3.42803e-09
-9.18576e-09
-1.90221e-08
-4.17581e-09
-1.2246e-08
-2.0869e-08
-4.88837e-09
-1.50352e-08
-2.1913e-08
-5.65405e-09
-1.72798e-08
-2.23264e-08
-6.51979e-09
-1.87364e-08
-2.22469e-08
-7.49387e-09
-1.9202e-08
-2.18002e-08
-8.56313e-09
-1.85343e-08
-2.11051e-08
-9.69583e-09
-1.66658e-08
-2.02746e-08
-1.0848e-08
-1.36914e-08
-1.94102e-08
-1.18792e-08
-9.76324e-09
-1.86378e-08
-1.27158e-08
-5.11121e-09
-1.80679e-08
-1.33472e-08
-4.01439e-11
-1.77748e-08
-1.36917e-08
5.0019e-09
-1.77296e-08
-1.36532e-08
9.6595e-09
-1.8038e-08
-1.33384e-08
1.36263e-08
-1.86623e-08
-1.27726e-08
1.66301e-08
-1.94246e-08
-1.19124e-08
1.85057e-08
-2.02803e-08
-1.08519e-08
1.91844e-08
-2.11101e-08
-9.70806e-09
1.873e-08
-2.18091e-08
-8.57901e-09
1.72818e-08
-2.22585e-08
-7.50812e-09
1.50405e-08
-2.234e-08
-6.53136e-09
1.22528e-08
-2.19294e-08
-5.66424e-09
9.19081e-09
-2.08864e-08
-4.89671e-09
6.13624e-09
-1.90411e-08
-4.18408e-09
3.36205e-09
-1.61629e-08
-3.43751e-09
1.15507e-09
-1.18728e-08
-2.50923e-09
-5.4729e-09
-1.16606e-09
-1.03221e-09
-3.40277e-09
-1.03359e-09
-3.01603e-09
-7.63639e-09
-2.22103e-09
-5.55604e-09
-1.05569e-08
-3.04206e-09
-8.38617e-09
-1.25031e-08
-3.68932e-09
-1.12508e-08
-1.36995e-08
-4.30469e-09
-1.3883e-08
-1.43123e-08
-4.96766e-09
-1.60143e-08
-1.44713e-08
-5.72279e-09
-1.74069e-08
-1.42778e-08
-6.57583e-09
-1.78663e-08
-1.38254e-08
-7.51593e-09
-1.72555e-08
-1.3202e-08
-8.51515e-09
-1.55203e-08
-1.24888e-08
-9.52235e-09
-1.27527e-08
-1.17776e-08
-1.04006e-08
-9.08746e-09
-1.11558e-08
-1.11464e-08
-4.7496e-09
-1.06981e-08
-1.17062e-08
-3.3776e-11
-1.04634e-08
-1.20262e-08
4.65795e-09
-1.04368e-08
-1.19845e-08
8.99347e-09
-1.06808e-08
-1.16938e-08
1.26808e-08
-1.11633e-08
-1.11877e-08
1.54763e-08
-1.17831e-08
-1.04377e-08
1.72266e-08
-1.24928e-08
-9.53761e-09
1.78482e-08
-1.3205e-08
-8.52596e-09
1.73999e-08
-1.38303e-08
-7.52973e-09
1.60146e-08
-1.42844e-08
-6.58843e-09
1.38862e-08
-1.44795e-08
-5.73229e-09
1.12547e-08
-1.43215e-08
-4.97697e-09
8.38906e-09
-1.37098e-08
-4.31154e-09
5.56e-09
-1.2517e-08
-3.69541e-09
3.02248e-09
-1.05792e-08
-3.04629e-09
1.03425e-09
-7.6604e-09
-2.22401e-09
-3.40588e-09
-1.03247e-09
-8.44083e-10
-1.716e-09
-8.4273e-10
-2.52136e-09
-4.14658e-09
-1.8129e-09
-4.73262e-09
-5.88218e-09