/*--------------------------------*- C++ -*----------------------------------*\
| =========                 |                                                 |
| \\      /  F ield         | OpenFOAM: The Open Source CFD Toolbox           |
|  \\    /   O peration     | Version:  v1906                                 |
|   \\  /    A nd           | Web:      www.OpenFOAM.com                      |
|    \\/     M anipulation  |                                                 |
\*---------------------------------------------------------------------------*/
FoamFile
{
    version     2.0;
    format      ascii;
    class       volScalarField;
    location    "33";
    object      nut;
}
// * * * * * * * * * * * * * * * * * * * * * * * * * * * * * * * * * * * * * //

dimensions      [0 2 -1 0 0 0 0];


internalField   nonuniform List<scalar> 
78750
(
8.47399e-08
3.34525e-06
3.46596e-06
3.41655e-06
3.27293e-06
3.08823e-06
2.90025e-06
2.72433e-06
2.56348e-06
2.41923e-06
2.29236e-06
2.1826e-06
2.08895e-06
2.01003e-06
1.9442e-06
1.88971e-06
1.84474e-06
1.80747e-06
1.77619e-06
1.74912e-06
1.72455e-06
1.70062e-06
1.6753e-06
1.64653e-06
1.6121e-06
1.56956e-06
1.51661e-06
1.44792e-06
1.3595e-06
1.24523e-06
1.09632e-06
9.03691e-07
6.66567e-07
4.1185e-07
6.75397e-09
1.61076e-08
2.87829e-06
5.69397e-06
9.57794e-06
1.23432e-05
1.36004e-05
1.50193e-05
1.69161e-05
1.63221e-05
1.58014e-05
1.53753e-05
1.50231e-05
1.47278e-05
1.44761e-05
1.42604e-05
1.4076e-05
1.39157e-05
1.37767e-05
1.36539e-05
1.35416e-05
1.34358e-05
1.33249e-05
1.31947e-05
1.30379e-05
1.28467e-05
1.26095e-05
1.23057e-05
1.19019e-05
1.13584e-05
9.62167e-06
6.00973e-06
3.88436e-06
3.18434e-06
3.0498e-06
1.85886e-08
2.14986e-08
2.76764e-06
5.93889e-06
6.14584e-06
5.31056e-06
4.59126e-06
4.24412e-06
4.31945e-06
4.79757e-06
4.73781e-06
4.39382e-06
4.1512e-06
3.99302e-06
3.9046e-06
3.87226e-06
3.88393e-06
3.93025e-06
4.00544e-06
4.10755e-06
4.23834e-06
4.40302e-06
4.60981e-06
4.8692e-06
5.19289e-06
5.51338e-06
5.56489e-06
5.53851e-06
5.41016e-06
5.08384e-06
4.52723e-06
3.90558e-06
3.58419e-06
4.38613e-06
2.77124e-06
2.60106e-08
1.0735e-08
2.67458e-06
6.31174e-06
7.05967e-06
5.72169e-06
4.48052e-06
3.65216e-06
3.10715e-06
2.77203e-06
2.60097e-06
2.63345e-06
2.88168e-06
3.14988e-06
3.32156e-06
3.56972e-06
3.8295e-06
4.04894e-06
4.19153e-06
4.23303e-06
4.15859e-06
3.961e-06
3.64087e-06
3.20964e-06
2.69896e-06
2.11537e-06
1.54573e-06
1.1539e-06
1.0465e-06
1.16e-06
1.37119e-06
1.59819e-06
1.9117e-06
2.9772e-06
2.52086e-06
3.10672e-08
8.04191e-09
1.7247e-06
4.58134e-06
5.22501e-06
4.35174e-06
2.98228e-06
2.08388e-06
1.54753e-06
1.35183e-06
1.53009e-06
2.11063e-06
3.03732e-06
4.21633e-06
5.58977e-06
7.0906e-06
8.56232e-06
9.21507e-06
9.63674e-06
9.87728e-06
9.93932e-06
9.82073e-06
9.51401e-06
8.58865e-06
7.18662e-06
5.6427e-06
4.08302e-06
2.65543e-06
1.55553e-06
9.65162e-07
8.64033e-07
1.08543e-06
1.60195e-06
3.24002e-06
1.92972e-06
3.85423e-08
5.27034e-09
1.41494e-06
3.23883e-06
3.66552e-06
2.52401e-06
1.71674e-06
1.32298e-06
1.26713e-06
1.55933e-06
2.22042e-06
3.25029e-06
4.65182e-06
6.45715e-06
8.63941e-06
9.81934e-06
1.04649e-05
1.09673e-05
1.13404e-05
1.15937e-05
1.1731e-05
1.17498e-05
1.16403e-05
1.1385e-05
1.09584e-05
9.11859e-06
6.75264e-06
4.56802e-06
2.77822e-06
1.5525e-06
9.32363e-07
8.10129e-07
1.09771e-06
2.37101e-06
1.80336e-06
4.2694e-08
4.13257e-09
1.13137e-06
2.47454e-06
2.83401e-06
1.92495e-06
1.41318e-06
1.25857e-06
1.42104e-06
1.90325e-06
2.71203e-06
3.85465e-06
5.34564e-06
7.20748e-06
9.35172e-06
1.03649e-05
1.0929e-05
1.13631e-05
1.16731e-05
1.18632e-05
1.19348e-05
1.18867e-05
1.17141e-05
1.1408e-05
9.91694e-06
7.86518e-06
5.8746e-06
4.08085e-06
2.60926e-06
1.57971e-06
1.02323e-06
8.78523e-07
1.15531e-06
2.67083e-06
1.61446e-06
4.84058e-08
3.13398e-09
1.02237e-06
1.94693e-06
2.07851e-06
1.42934e-06
1.20562e-06
1.27368e-06
1.61886e-06
2.25595e-06
3.20639e-06
4.48483e-06
6.0867e-06
7.97616e-06
1.00542e-05
1.19339e-05
1.2569e-05
1.30631e-05
1.34161e-05
1.36295e-05
1.37051e-05
1.36442e-05
1.34457e-05
1.2068e-05
1.01286e-05
8.0983e-06
6.10534e-06
4.27113e-06
2.74468e-06
1.65405e-06
1.03962e-06
8.39915e-07
1.05526e-06
2.48224e-06
1.59768e-06
5.24096e-08
2.51467e-09
9.67914e-07
1.67638e-06
1.70448e-06
1.3332e-06
1.28926e-06
1.49827e-06
1.96413e-06
2.71142e-06
3.75701e-06
5.09652e-06
6.711e-06
8.5757e-06
1.06385e-05
1.27282e-05
1.38208e-05
1.4337e-05
1.46644e-05
1.48048e-05
1.47648e-05
1.45544e-05
1.301e-05
1.09783e-05
8.95446e-06
7.07185e-06
5.36267e-06
3.84525e-06
2.57613e-06
1.64438e-06
1.10254e-06
9.20298e-07
1.15512e-06
2.81365e-06
1.54396e-06
5.72921e-08
1.85249e-09
8.95096e-07
1.44286e-06
1.40985e-06
1.23283e-06
1.30353e-06
1.59336e-06
2.12152e-06
2.91584e-06
3.99061e-06
5.34347e-06
6.96537e-06
8.84105e-06
1.09204e-05
1.30703e-05
1.50568e-05
1.6599e-05
1.74705e-05
1.75491e-05
1.68104e-05
1.53267e-05
1.32892e-05
1.09877e-05
8.71348e-06
6.66355e-06
4.91569e-06
3.47482e-06
2.33872e-06
1.5273e-06
1.06148e-06
9.15266e-07
1.16341e-06
2.88449e-06
1.55591e-06
6.1474e-08
1.33785e-09
7.39383e-07
1.25856e-06
1.2403e-06
1.24344e-06
1.4539e-06
1.88341e-06
2.56339e-06
3.51763e-06
4.75203e-06
6.26517e-06
8.06143e-06
1.01406e-05
1.24544e-05
1.48528e-05
1.7078e-05
1.88349e-05
1.9885e-05
2.00809e-05
1.93517e-05
1.77019e-05
1.52701e-05
1.23881e-05
9.50013e-06
6.9582e-06
4.90916e-06
3.34721e-06
2.213e-06
1.45696e-06
1.04918e-06
9.44159e-07
1.23905e-06
3.18906e-06
1.541e-06
6.6308e-08
1.0407e-09
6.88769e-07
1.23852e-06
1.22986e-06
1.40222e-06
1.76946e-06
2.35385e-06
3.17591e-06
4.2447e-06
5.56737e-06
7.16449e-06
9.0702e-06
1.13023e-05
1.38029e-05
1.63868e-05
1.87647e-05
2.06493e-05
2.18374e-05
2.22056e-05
2.1667e-05
2.01516e-05
1.76644e-05
1.44293e-05
1.09527e-05
7.79321e-06
5.26276e-06
3.40926e-06
2.154e-06
1.38707e-06
1.01205e-06
9.42791e-07
1.27433e-06
3.37887e-06
1.55137e-06
7.03672e-08
8.60695e-10
7.07413e-07
1.242e-06
1.3524e-06
1.62596e-06
2.0848e-06
2.74483e-06
3.61957e-06
4.72465e-06
6.09288e-06
7.78636e-06
9.88645e-06
1.24429e-05
1.53834e-05
1.84504e-05
2.12674e-05
2.35051e-05
2.49651e-05
2.55441e-05
2.51569e-05
2.36893e-05
2.10481e-05
1.73501e-05
1.31451e-05
9.21636e-06
6.06484e-06
3.78443e-06
2.27453e-06
1.39238e-06
9.96729e-07
9.50867e-07
1.33721e-06
3.69551e-06
1.54676e-06
7.3815e-08
6.63203e-10
7.36888e-07
1.25345e-06
1.45232e-06
1.77915e-06
2.26662e-06
2.93012e-06
3.78709e-06
4.87172e-06
6.25145e-06
8.03262e-06
1.03382e-05
1.32363e-05
1.66204e-05
2.01409e-05
2.33322e-05
2.58343e-05
2.6609e-05
2.70976e-05
2.73941e-05
2.66033e-05
2.39817e-05
2.00835e-05
1.53854e-05
1.07966e-05
7.05009e-06
4.34326e-06
2.55576e-06
1.50629e-06
1.03154e-06
9.67266e-07
1.37867e-06
3.9117e-06
1.55663e-06
7.61067e-08
5.31319e-10
7.50021e-07
1.23079e-06
1.50707e-06
1.85552e-06
2.32594e-06
2.94424e-06
3.7453e-06
4.79032e-06
6.17533e-06
8.0277e-06
1.0478e-05
1.35804e-05
1.71817e-05
2.08692e-05
2.41129e-05
2.54501e-05
2.619e-05
2.67531e-05
2.71325e-05
2.73132e-05
2.49075e-05
2.12281e-05
1.66603e-05
1.19668e-05
7.93069e-06
4.91472e-06
2.88944e-06
1.67929e-06
1.11316e-06
1.01349e-06
1.4432e-06
4.16156e-06
1.56456e-06
7.80787e-08
6.36537e-10
6.90726e-07
1.14027e-06
1.48321e-06
1.84353e-06
2.29334e-06
2.88652e-06
3.68573e-06
4.77256e-06
6.24725e-06
8.21941e-06
1.07763e-05
1.3904e-05
1.7382e-05
2.0794e-05
2.3718e-05
2.58781e-05
2.6604e-05
2.71423e-05
2.74942e-05
2.64012e-05
2.42421e-05
2.10278e-05
1.69535e-05
1.25827e-05
8.60862e-06
5.46982e-06
3.27252e-06
1.91412e-06
1.24464e-06
1.08751e-06
1.50813e-06
4.33613e-06
1.58507e-06
8.01372e-08
8.72904e-10
5.44717e-07
1.01279e-06
1.42043e-06
1.84227e-06
2.36558e-06
3.06862e-06
4.02606e-06
5.31197e-06
6.9995e-06
9.1522e-06
1.17912e-05
1.48323e-05
1.80426e-05
2.11021e-05
2.37259e-05
2.57321e-05
2.70237e-05
2.75415e-05
2.72297e-05
2.60249e-05
2.38543e-05
2.07185e-05
1.68568e-05
1.2763e-05
8.97963e-06
5.88151e-06
3.61749e-06
2.16047e-06
1.40723e-06
1.19345e-06
1.60067e-06
4.54116e-06
1.6079e-06
8.32056e-08
1.13789e-09
5.04863e-07
1.01341e-06
1.55411e-06
2.16636e-06
2.92209e-06
3.88735e-06
5.11683e-06
6.66103e-06
8.56709e-06
1.08585e-05
1.34958e-05
1.63505e-05
1.9237e-05
2.19648e-05
2.43611e-05
2.62769e-05
2.75762e-05
2.81259e-05
2.77943e-05
2.64607e-05
2.40391e-05
2.06222e-05
1.66199e-05
1.26045e-05
9.016e-06
6.07647e-06
3.86648e-06
2.38566e-06
1.58383e-06
1.32327e-06
1.71554e-06
4.77646e-06
1.63838e-06
8.71064e-08
1.39988e-09
5.93164e-07
1.2283e-06
1.96337e-06
2.80474e-06
3.78228e-06
4.93413e-06
6.3038e-06
7.93374e-06
9.84434e-06
1.20148e-05
1.43921e-05
1.69198e-05
1.95312e-05
2.21121e-05
2.44944e-05
2.64807e-05
2.75938e-05
2.81615e-05
2.81673e-05
2.67049e-05
2.40019e-05
2.02388e-05
1.60125e-05
1.20123e-05
8.62079e-06
5.92126e-06
3.89104e-06
2.50123e-06
1.72777e-06
1.46269e-06
1.87361e-06
5.15429e-06
1.66218e-06
9.14539e-08
1.80092e-09
7.57887e-07
1.54464e-06
2.40832e-06
3.33345e-06
4.34051e-06
5.47026e-06
6.76298e-06
8.24042e-06
9.91092e-06
1.18004e-05
1.39565e-05
1.63919e-05
1.902e-05
2.16571e-05
2.40862e-05
2.61126e-05
2.75583e-05
2.8248e-05
2.80778e-05
2.67068e-05
2.39792e-05
2.00314e-05
1.55863e-05
1.14962e-05
8.17617e-06
5.64116e-06
3.78408e-06
2.52421e-06
1.8236e-06
1.59094e-06
2.05426e-06
5.61325e-06
1.68265e-06
9.55859e-08
2.28442e-09
8.56552e-07
1.71232e-06
2.57128e-06
3.42171e-06
4.302e-06
5.25968e-06
6.33849e-06
7.59376e-06
9.11355e-06
1.09998e-05
1.32997e-05
1.59377e-05
1.87179e-05
2.14088e-05
2.38267e-05
2.58458e-05
2.73573e-05
2.82196e-05
2.82236e-05
2.70824e-05
2.44664e-05
2.03722e-05
1.55947e-05
1.12262e-05
7.80539e-06
5.32047e-06
3.58962e-06
2.46705e-06
1.86654e-06
1.70183e-06
2.26471e-06
6.13047e-06
1.68972e-06
9.9165e-08
2.80459e-09
8.12486e-07
1.62911e-06
2.42102e-06
3.17423e-06
3.94322e-06
4.80284e-06
5.84268e-06
7.16971e-06
8.88917e-06
1.10563e-05
1.36207e-05
1.64139e-05
1.9213e-05
2.18301e-05
2.41455e-05
2.60822e-05
2.75625e-05
2.8468e-05
2.86042e-05
2.76773e-05
2.52798e-05
2.12136e-05
1.61645e-05
1.14123e-05
7.72013e-06
5.13207e-06
3.42298e-06
2.38635e-06
1.87448e-06
1.79052e-06
2.48022e-06
6.53574e-06
1.68996e-06
1.01702e-07
3.20995e-09
7.00903e-07
1.43144e-06
2.18268e-06
2.93805e-06
3.76258e-06
4.75321e-06
6.01286e-06
7.63066e-06
9.65477e-06
1.20615e-05
1.47418e-05
1.75265e-05
2.0239e-05
2.27372e-05
2.49224e-05
2.67237e-05
2.80697e-05
2.88586e-05
2.89286e-05
2.8027e-05
2.57742e-05
2.18979e-05
1.68686e-05
1.18924e-05
7.90931e-06
5.12206e-06
3.33834e-06
2.31993e-06
1.86498e-06
1.85789e-06
2.68443e-06
6.72835e-06
1.68383e-06
1.03531e-07
3.47178e-09
6.27957e-07
1.31665e-06
2.11556e-06
3.0188e-06
4.08148e-06
5.38089e-06
6.98375e-06
8.9248e-06
1.11913e-05
1.37155e-05
1.6382e-05
1.90506e-05
2.15862e-05
2.38796e-05
2.58502e-05
2.74341e-05
2.8563e-05
2.91432e-05
2.90394e-05
2.80411e-05
2.58411e-05
2.22242e-05
1.75053e-05
1.26078e-05
8.44295e-06
5.40028e-06
3.42962e-06
2.32465e-06
1.85719e-06
1.88728e-06
2.80819e-06
6.74355e-06
1.6854e-06
1.05265e-07
3.63551e-09
6.3762e-07
1.37325e-06
2.3066e-06
3.43611e-06
4.78484e-06
6.38311e-06
8.24931e-06
1.03789e-05
1.27364e-05
1.52502e-05
1.78168e-05
2.03196e-05
2.26515e-05
2.47279e-05
2.64828e-05
2.78564e-05
2.87762e-05
2.91441e-05
2.88325e-05
2.76561e-05
2.53856e-05
2.19417e-05
1.76439e-05
1.31475e-05
9.10385e-06
5.92042e-06
3.72815e-06
2.45123e-06
1.89044e-06
1.8913e-06
2.82719e-06
6.71091e-06
1.70078e-06
1.07789e-07
3.92182e-09
7.23847e-07
1.56257e-06
2.63568e-06
3.93491e-06
5.45889e-06
7.21399e-06
9.20758e-06
1.14323e-05
1.38448e-05
1.63564e-05
1.88493e-05
2.12089e-05
2.33466e-05
2.52007e-05
2.67244e-05
2.78686e-05
2.85667e-05
2.87245e-05
2.8222e-05
2.68931e-05
2.45638e-05
2.12557e-05
1.73421e-05
1.33549e-05
9.69629e-06
6.60377e-06
4.25921e-06
2.76226e-06
2.02768e-06
1.91594e-06
2.75839e-06
6.74529e-06
1.74684e-06
1.11713e-07
4.40222e-09
8.26339e-07
1.74778e-06
2.88968e-06
4.24895e-06
5.83446e-06
7.66751e-06
9.7644e-06
1.21037e-05
1.46038e-05
1.71366e-05
1.95693e-05
2.17975e-05
2.3754e-05
2.53981e-05
2.67003e-05
2.76245e-05
2.81165e-05
2.80934e-05
2.74462e-05
2.60188e-05
2.36547e-05
2.04095e-05
1.67003e-05
1.30844e-05
9.87582e-06
7.12421e-06
4.86221e-06
3.23661e-06
2.312e-06
2.03903e-06
2.73317e-06
6.86477e-06
1.82868e-06
1.17744e-07
5.06155e-09
8.82071e-07
1.83452e-06
2.99952e-06
4.39487e-06
6.05322e-06
8.00873e-06
1.0264e-05
1.27561e-05
1.53547e-05
1.7904e-05
2.02721e-05
2.23737e-05
2.41652e-05
2.56282e-05
2.6751e-05
2.75102e-05
2.7861e-05
2.77287e-05
2.70091e-05
2.55455e-05
2.31696e-05
1.99211e-05
1.62334e-05
1.27212e-05
9.75189e-06
7.33225e-06
5.32903e-06
3.7561e-06
2.71463e-06
2.2891e-06
2.84348e-06
7.1023e-06
1.95419e-06
1.26432e-07
5.84753e-09
8.95141e-07
1.86629e-06
3.08469e-06
4.58273e-06
6.39508e-06
8.53915e-06
1.09795e-05
1.36055e-05
1.62549e-05
1.87722e-05
2.10502e-05
2.30349e-05
2.47084e-05
2.60677e-05
2.71064e-05
2.77983e-05
2.80907e-05
2.7898e-05
2.70978e-05
2.55084e-05
2.29481e-05
1.9484e-05
1.56321e-05
1.20947e-05
9.26935e-06
7.1315e-06
5.46088e-06
4.11968e-06
3.11398e-06
2.62314e-06
3.13761e-06
7.62511e-06
2.07461e-06
1.36635e-07
6.82228e-09
9.15025e-07
1.93505e-06
3.25417e-06
4.89795e-06
6.88178e-06
9.19505e-06
1.17668e-05
1.44558e-05
1.70936e-05
1.95448e-05
2.17336e-05
2.36332e-05
2.52426e-05
2.65647e-05
2.75906e-05
2.82843e-05
2.85757e-05
2.83538e-05
2.74558e-05
2.56438e-05
2.27032e-05
1.87786e-05
1.45817e-05
1.09541e-05
8.28128e-06
6.46131e-06
5.19595e-06
4.21173e-06
3.40156e-06
2.98555e-06
3.64911e-06
8.53564e-06
2.1129e-06
1.44175e-07
7.92662e-09
9.52643e-07
2.0349e-06
3.44451e-06
5.1925e-06
7.28584e-06
9.70668e-06
1.23669e-05
1.51039e-05
1.77404e-05
2.0151e-05
2.22789e-05
2.41156e-05
2.5672e-05
2.69567e-05
2.79606e-05
2.8643e-05
2.89206e-05
2.86572e-05
2.76472e-05
2.55896e-05
2.22325e-05
1.78083e-05
1.3244e-05
9.51691e-06
6.99057e-06
5.49538e-06
4.6712e-06
4.10933e-06
3.61669e-06
3.43599e-06
4.49682e-06
9.02591e-06
2.06171e-06
1.45526e-07
8.99223e-09
9.84856e-07
2.1095e-06
3.5699e-06
5.38226e-06
7.57446e-06
1.01377e-05
1.29574e-05
1.58215e-05
1.85178e-05
2.09185e-05
2.29849e-05
2.47287e-05
2.61765e-05
2.73465e-05
2.82342e-05
2.87989e-05
2.8952e-05
2.85477e-05
2.73737e-05
2.51374e-05
2.16054e-05
1.70061e-05
1.22655e-05
8.42335e-06
5.91219e-06
4.592e-06
4.1024e-06
3.93899e-06
3.82763e-06
4.01546e-06
5.69109e-06
8.30552e-06
1.97978e-06
1.4205e-07
9.87038e-09
1.00968e-06
2.16484e-06
3.67231e-06
5.57601e-06
7.93414e-06
1.07309e-05
1.37881e-05
1.68111e-05
1.95501e-05
2.18922e-05
2.38315e-05
2.54069e-05
2.66615e-05
2.76215e-05
2.82845e-05
2.86091e-05
2.85066e-05
2.78433e-05
2.64608e-05
2.41851e-05
2.08878e-05
1.66649e-05
1.20916e-05
8.10892e-06
5.37609e-06
3.9511e-06
3.54989e-06
3.66823e-06
3.95513e-06
4.59172e-06
6.9102e-06
7.36564e-06
1.91453e-06
1.39064e-07
1.06167e-08
1.04153e-06
2.23052e-06
3.79681e-06
5.82082e-06
8.38436e-06
1.14417e-05
1.47228e-05
1.78476e-05
2.05533e-05
2.27632e-05
2.45099e-05
2.58574e-05
2.68627e-05
2.75588e-05
2.79458e-05
2.79838e-05
2.75905e-05
2.66574e-05
2.51066e-05
2.29197e-05
2.01205e-05
1.67131e-05
1.278e-05
8.82174e-06
5.66077e-06
3.77321e-06
3.09122e-06
3.21132e-06
3.79156e-06
4.87719e-06
7.66671e-06
6.91845e-06
1.89813e-06
1.40834e-07
1.13111e-08
1.07541e-06
2.29349e-06
3.91771e-06
6.06937e-06
8.84746e-06
1.21584e-05
1.56245e-05
1.87913e-05
2.14075e-05
2.34442e-05
2.49726e-05
2.60799e-05
2.68357e-05
2.7279e-05
2.74127e-05
2.71994e-05
2.6562e-05
2.54104e-05
2.37247e-05
2.16012e-05
1.9211e-05
1.66229e-05
1.3683e-05
1.02883e-05
6.89313e-06
4.33712e-06
3.02516e-06
2.74507e-06
3.25237e-06
4.57086e-06
7.68349e-06
6.85029e-06
1.92557e-06
1.4936e-07
1.21558e-08
1.10568e-06
2.3505e-06
4.0439e-06
6.34905e-06
9.36977e-06
1.2936e-05
1.65457e-05
1.96962e-05
2.21833e-05
2.40378e-05
2.53669e-05
2.62744e-05
2.68346e-05
2.70844e-05
2.70218e-05
2.66048e-05
2.57551e-05
2.43943e-05
2.25456e-05
2.03899e-05
1.82048e-05
1.61579e-05
1.41286e-05
1.17388e-05
8.77921e-06
5.80747e-06
3.70656e-06
2.72005e-06
2.73082e-06
3.76485e-06
6.75196e-06
6.96842e-06
1.96148e-06
1.64715e-07
1.33522e-08
1.13175e-06
2.40969e-06
4.19608e-06
6.68911e-06
9.97246e-06
1.37615e-05
1.7434e-05
2.04984e-05
2.28345e-05
2.45315e-05
2.57188e-05
2.65021e-05
2.69473e-05
2.70781e-05
2.68763e-05
2.62823e-05
2.52007e-05
2.35554e-05
2.14219e-05
1.90945e-05
1.69672e-05
1.52702e-05
1.39148e-05
1.24948e-05
1.04774e-05
7.78029e-06
5.14351e-06
3.37765e-06
2.70963e-06
3.16499e-06
5.53702e-06
7.22696e-06
1.98778e-06
1.83686e-07
1.50678e-08
1.15545e-06
2.4789e-06
4.38678e-06
7.10051e-06
1.0651e-05
1.46076e-05
1.82648e-05
2.12055e-05
2.34071e-05
2.49994e-05
2.61153e-05
2.6849e-05
2.7248e-05
2.7314e-05
2.70016e-05
2.62174e-05
2.48287e-05
2.27521e-05
2.01487e-05
1.74945e-05
1.53333e-05
1.39211e-05
1.31393e-05
1.25609e-05
1.15452e-05
9.5703e-06
6.89046e-06
4.53495e-06
3.21427e-06
3.10826e-06
4.92033e-06
7.53295e-06
2.00156e-06
1.9929e-07
1.73207e-08
1.18008e-06
2.56459e-06
4.6219e-06
7.58095e-06
1.13859e-05
1.54521e-05
1.9051e-05
2.18762e-05
2.39843e-05
2.55254e-05
2.66244e-05
2.73576e-05
2.77507e-05
2.77778e-05
2.73567e-05
2.63415e-05
2.45407e-05
2.18653e-05
1.86302e-05
1.55763e-05
1.33864e-05
1.22794e-05
1.20657e-05
1.22801e-05
1.21949e-05
1.09889e-05
8.54375e-06
5.86981e-06
4.03934e-06
3.50791e-06
5.06568e-06
7.74472e-06
1.99918e-06
2.04871e-07
1.99671e-08
1.20803e-06
2.66593e-06
4.88767e-06
8.09405e-06
1.21226e-05
1.62522e-05
1.97784e-05
2.25075e-05
2.45515e-05
2.60659e-05
2.71658e-05
2.79121e-05
2.83104e-05
2.83077e-05
2.77802e-05
2.65167e-05
2.42491e-05
2.09013e-05
1.70078e-05
1.35967e-05
1.14178e-05
1.06034e-05
1.09057e-05
1.18376e-05
1.25565e-05
1.20053e-05
9.87081e-06
7.12568e-06
5.02286e-06
4.26953e-06
5.95886e-06
7.66941e-06
1.98408e-06
1.98788e-07
2.26522e-08
1.23813e-06
2.77286e-06
5.15405e-06
8.58495e-06
1.27949e-05
1.69567e-05
2.04136e-05
2.30649e-05
2.50592e-05
2.65535e-05
2.76543e-05
2.84108e-05
2.88145e-05
2.8792e-05
2.81867e-05
2.67331e-05
2.40939e-05
2.01913e-05
1.57363e-05
1.19789e-05
9.70978e-06
9.00927e-06
9.62633e-06
1.10927e-05
1.24488e-05
1.24679e-05
1.07373e-05
8.18616e-06
6.10993e-06
5.43261e-06
7.68249e-06
7.28416e-06
1.96835e-06
1.84584e-07
2.49763e-08
1.26761e-06
2.87278e-06
5.39171e-06
9.01102e-06
1.33693e-05
1.75576e-05
2.09613e-05
2.35481e-05
2.54928e-05
2.69559e-05
2.80406e-05
2.87917e-05
2.91951e-05
2.91715e-05
2.8556e-05
2.70684e-05
2.43314e-05
2.01896e-05
1.53242e-05
1.11078e-05
8.4762e-06
7.56046e-06
8.14862e-06
9.85388e-06
1.17014e-05
1.2352e-05
1.1238e-05
9.15966e-06
7.39577e-06
7.09965e-06
1.01473e-05
6.97971e-06
1.98071e-06
1.69346e-07
2.66745e-08
1.29452e-06
2.95741e-06
5.58339e-06
9.3543e-06
1.38433e-05
1.80669e-05
2.14324e-05
2.3959e-05
2.58465e-05
2.7264e-05
2.8318e-05
2.90539e-05
2.94591e-05
2.94598e-05
2.89061e-05
2.75447e-05
2.50123e-05
2.10419e-05
1.6038e-05
1.1289e-05
7.9827e-06
6.46032e-06
6.59158e-06
8.12518e-06
1.02684e-05
1.16831e-05
1.14725e-05
1.01396e-05
8.93631e-06
9.24235e-06
1.2693e-05
7.04329e-06
2.04721e-06
1.58828e-07
2.77187e-08
1.31759e-06
3.02199e-06
5.72279e-06
9.61351e-06
1.42238e-05
1.84946e-05
2.18371e-05
2.43133e-05
2.61487e-05
2.75255e-05
2.85565e-05
2.92906e-05
2.9719e-05
2.97767e-05
2.93368e-05
2.81952e-05
2.60541e-05
2.2604e-05
1.78826e-05
1.27558e-05
8.56533e-06
6.08197e-06
5.35344e-06
6.22292e-06
8.21953e-06
1.03156e-05
1.12684e-05
1.09747e-05
1.05501e-05
1.15207e-05
1.47086e-05
7.45462e-06
2.1666e-06
1.54886e-07
2.8195e-08
1.33492e-06
3.0633e-06
5.81037e-06
9.79797e-06
1.4529e-05
1.88612e-05
2.21947e-05
2.46311e-05
2.64258e-05
2.77773e-05
2.88067e-05
2.95676e-05
3.00542e-05
3.02076e-05
2.99168e-05
2.90168e-05
2.72846e-05
2.44659e-05
2.04049e-05
1.54085e-05
1.05059e-05
6.85733e-06
4.95554e-06
4.75762e-06
6.00777e-06
8.16481e-06
1.0165e-05
1.11852e-05
1.17755e-05
1.33871e-05
1.60757e-05
8.02882e-06
2.31189e-06
1.56785e-07
2.83374e-08
1.34814e-06
3.08828e-06
5.86669e-06
9.9433e-06
1.4794e-05
1.91843e-05
2.25059e-05
2.49047e-05
2.66674e-05
2.80098e-05
2.90618e-05
2.98778e-05
3.0452e-05
3.07273e-05
3.06004e-05
2.99263e-05
2.85338e-05
2.62432e-05
2.29061e-05
1.85302e-05
1.35616e-05
8.99035e-06
5.78318e-06
4.29314e-06
4.41015e-06
5.83614e-06
8.06315e-06
1.02129e-05
1.20017e-05
1.43301e-05
1.67897e-05
8.55334e-06
2.44549e-06
1.63074e-07
2.83639e-08
1.35738e-06
3.10036e-06
5.9023e-06
1.00647e-05
1.50319e-05
1.94726e-05
2.27757e-05
2.51365e-05
2.68738e-05
2.82182e-05
2.9305e-05
3.01911e-05
3.08712e-05
3.12892e-05
3.13397e-05
3.08767e-05
2.97489e-05
2.78203e-05
2.50121e-05
2.13219e-05
1.68754e-05
1.2117e-05
7.91402e-06
5.09238e-06
3.92966e-06
4.22507e-06
5.74996e-06
8.11852e-06
1.08469e-05
1.40632e-05
1.68836e-05
8.89895e-06
2.54215e-06
1.7239e-07
2.84555e-08
1.36212e-06
3.10159e-06
5.92522e-06
1.0175e-05
1.52525e-05
1.97238e-05
2.29889e-05
2.52995e-05
2.70064e-05
2.83546e-05
2.94832e-05
3.0448e-05
3.12397e-05
3.17961e-05
3.20086e-05
3.17344e-05
3.08233e-05
2.91376e-05
2.66342e-05
2.34011e-05
1.95717e-05
1.52756e-05
1.08581e-05
7.07182e-06
4.65466e-06
3.74499e-06
4.1926e-06
5.85627e-06
8.62319e-06
1.25377e-05
1.63781e-05
9.04385e-06
2.59369e-06
1.84043e-07
2.87791e-08
1.3634e-06
3.09805e-06
5.95021e-06
1.02974e-05
1.54732e-05
1.99392e-05
2.3133e-05
2.5372e-05
2.70374e-05
2.83848e-05
2.95544e-05
3.05979e-05
3.15006e-05
3.21933e-05
3.25605e-05
3.24516e-05
3.16932e-05
3.01305e-05
2.77478e-05
2.47271e-05
2.13142e-05
1.76276e-05
1.36719e-05
9.69225e-06
6.39476e-06
4.36453e-06
3.71216e-06
4.36775e-06
6.37394e-06
1.01594e-05
1.52664e-05
9.05536e-06
2.60516e-06
1.9732e-07
2.94666e-08
1.36174e-06
3.09283e-06
5.98341e-06
1.04347e-05
1.56866e-05
2.01043e-05
2.31921e-05
2.53379e-05
2.69498e-05
2.82908e-05
2.94987e-05
3.06187e-05
3.16275e-05
3.24462e-05
3.29482e-05
3.29697e-05
3.2311e-05
3.07885e-05
2.8386e-05
2.53559e-05
2.20978e-05
1.88624e-05
1.55903e-05
1.21047e-05
8.63778e-06
5.82336e-06
4.17967e-06
3.8544e-06
4.90854e-06
7.88785e-06
1.36503e-05
9.03579e-06
2.58875e-06
2.11138e-07
3.06536e-08
1.35871e-06
3.09137e-06
6.03417e-06
1.05974e-05
1.58986e-05
2.02212e-05
2.31685e-05
2.5201e-05
2.67496e-05
2.80805e-05
2.93262e-05
3.05227e-05
3.16352e-05
3.2572e-05
3.31902e-05
3.33048e-05
3.26806e-05
3.10958e-05
2.85346e-05
2.53365e-05
2.2056e-05
1.90805e-05
1.63935e-05
1.36737e-05
1.06914e-05
7.67159e-06
5.30824e-06
4.12332e-06
4.30718e-06
6.35714e-06
1.19092e-05
9.01716e-06
2.55185e-06
2.24239e-07
3.24484e-08
1.35593e-06
3.09724e-06
6.10497e-06
1.07801e-05
1.6093e-05
2.02755e-05
2.30565e-05
2.49646e-05
2.64467e-05
2.77688e-05
2.90566e-05
3.03347e-05
3.15547e-05
3.26079e-05
3.33296e-05
3.35039e-05
3.28491e-05
3.10947e-05
2.82305e-05
2.47128e-05
2.12738e-05
1.84297e-05
1.62162e-05
1.42706e-05
1.20846e-05
9.41607e-06
6.76859e-06
4.93811e-06
4.39617e-06
5.65671e-06
1.05791e-05
9.03656e-06
2.51168e-06
2.36085e-07
3.48869e-08
1.35511e-06
3.11313e-06
6.19538e-06
1.09719e-05
1.6253e-05
2.02622e-05
2.28686e-05
2.46552e-05
2.60783e-05
2.74023e-05
2.87461e-05
3.01231e-05
3.14692e-05
3.26551e-05
3.34879e-05
3.37089e-05
3.29725e-05
3.09411e-05
2.76176e-05
2.36258e-05
1.9917e-05
1.71196e-05
1.52851e-05
1.4031e-05
1.27022e-05
1.07191e-05
8.23092e-06
6.07172e-06
5.00118e-06
5.68455e-06
1.00461e-05
9.16167e-06
2.48911e-06
2.46044e-07
3.78776e-08
1.35729e-06
3.13907e-06
6.29828e-06
1.1155e-05
1.63666e-05
2.01916e-05
2.26325e-05
2.43093e-05
2.56837e-05
2.70215e-05
2.84386e-05
2.99398e-05
3.14456e-05
3.2804e-05
3.37877e-05
3.40826e-05
3.32532e-05
3.08608e-05
2.69215e-05
2.22926e-05
1.82014e-05
1.53712e-05
1.38242e-05
1.31373e-05
1.25597e-05
1.13289e-05
9.30105e-06
7.17558e-06
5.87718e-06
6.30807e-06
1.06126e-05
9.09977e-06
2.46091e-06
2.49445e-07
4.11122e-08
1.36205e-06
3.17114e-06
6.40098e-06
1.13134e-05
1.64354e-05
2.00819e-05
2.23663e-05
2.39332e-05
2.52526e-05
2.65978e-05
2.80872e-05
2.97213e-05
3.1408e-05
3.29739e-05
3.4157e-05
3.45822e-05
3.37039e-05
3.09424e-05
2.63072e-05
2.09364e-05
1.63761e-05
1.3424e-05
1.20447e-05
1.17615e-05
1.17487e-05
1.1163e-05
9.71006e-06
7.94307e-06
6.81946e-06
7.51129e-06
1.25255e-05
8.50786e-06
2.39295e-06
2.41417e-07
4.41014e-08
1.36855e-06
3.20362e-06
6.48829e-06
1.1433e-05
1.64658e-05
1.99473e-05
2.20713e-05
2.35059e-05
2.47367e-05
2.60511e-05
2.75745e-05
2.93062e-05
3.11461e-05
3.29056e-05
3.42994e-05
3.49088e-05
3.40991e-05
3.11438e-05
2.59747e-05
1.9926e-05
1.4847e-05
1.16394e-05
1.02401e-05
1.01445e-05
1.05052e-05
1.04628e-05
9.64484e-06
8.47955e-06
7.90566e-06
9.35233e-06
1.51081e-05
7.69722e-06
2.3012e-06
2.24954e-07
4.63133e-08
1.37453e-06
3.22782e-06
6.54518e-06
1.15092e-05
1.64717e-05
1.98027e-05
2.17552e-05
2.30267e-05
2.41262e-05
2.53582e-05
2.6856e-05
2.86187e-05
3.05428e-05
3.24352e-05
3.40073e-05
3.48404e-05
3.42843e-05
3.15249e-05
2.62923e-05
1.98153e-05
1.4149e-05
1.0443e-05
8.72458e-06
8.52292e-06
9.06003e-06
9.50612e-06
9.37874e-06
8.95735e-06
9.17328e-06
1.15959e-05
1.66619e-05
7.07628e-06
2.22611e-06
2.08103e-07
4.75808e-08
1.37889e-06
3.24084e-06
6.57303e-06
1.15554e-05
1.64751e-05
1.96743e-05
2.14519e-05
2.25427e-05
2.34843e-05
2.45984e-05
2.60238e-05
2.77603e-05
2.97047e-05
3.16687e-05
3.33807e-05
3.44621e-05
3.43246e-05
3.2167e-05
2.74716e-05
2.10004e-05
1.47454e-05
1.02539e-05
7.84793e-06
7.1711e-06
7.57272e-06
8.34389e-06
8.89223e-06
9.26171e-06
1.03207e-05
1.35427e-05
1.68629e-05
6.74635e-06
2.18996e-06
1.96637e-07
4.80402e-08
1.38114e-06
3.24314e-06
6.5785e-06
1.1586e-05
1.64914e-05
1.95785e-05
2.11907e-05
2.21066e-05
2.28929e-05
2.38843e-05
2.52233e-05
2.6911e-05
2.88482e-05
3.08575e-05
3.26933e-05
3.40318e-05
3.43759e-05
3.30152e-05
2.92904e-05
2.3367e-05
1.67684e-05
1.13452e-05
7.93988e-06
6.43746e-06
6.3041e-06
7.01006e-06
8.01309e-06
9.10926e-06
1.09257e-05
1.46243e-05
1.66255e-05
6.66072e-06
2.19314e-06
1.91864e-07
4.80071e-08
1.38211e-06
3.2388e-06
6.57325e-06
1.16143e-05
1.65254e-05
1.95186e-05
2.09839e-05
2.17473e-05
2.24001e-05
2.32857e-05
2.45477e-05
2.61897e-05
2.81191e-05
3.01726e-05
3.21332e-05
3.37217e-05
3.45208e-05
3.39307e-05
3.12884e-05
2.63466e-05
1.99393e-05
1.37786e-05
9.22968e-06
6.64432e-06
5.65038e-06
5.825e-06
6.78527e-06
8.29233e-06
1.06823e-05
1.47369e-05
1.64157e-05
6.74006e-06
2.22594e-06
1.92591e-07
4.77762e-08
1.38221e-06
3.23068e-06
6.56321e-06
1.16397e-05
1.65598e-05
1.94701e-05
2.08104e-05
2.14499e-05
2.19987e-05
2.28036e-05
2.4008e-05
2.56184e-05
2.75505e-05
2.9655e-05
3.174e-05
3.35574e-05
3.47432e-05
3.47834e-05
3.30832e-05
2.92347e-05
2.35255e-05
1.71734e-05
1.16834e-05
7.9345e-06
5.89616e-06
5.24131e-06
5.67251e-06
7.03578e-06
9.58438e-06
1.39505e-05
1.62704e-05
6.9106e-06
2.27394e-06
1.96774e-07
4.75929e-08
1.38187e-06
3.22125e-06
6.55347e-06
1.1663e-05
1.65835e-05
1.94141e-05
2.06453e-05
2.1184e-05
2.16533e-05
2.23993e-05
2.35635e-05
2.51551e-05
2.70975e-05
2.92549e-05
3.14566e-05
3.34752e-05
3.49766e-05
3.54964e-05
3.45012e-05
3.15747e-05
2.67575e-05
2.07759e-05
1.4876e-05
1.01799e-05
7.07848e-06
5.47392e-06
5.13216e-06
5.92857e-06
8.12079e-06
1.25074e-05
1.6122e-05
7.12481e-06
2.32385e-06
2.02409e-07
4.75998e-08
1.38073e-06
3.21087e-06
6.54422e-06
1.16814e-05
1.65899e-05
1.93358e-05
2.04663e-05
2.09208e-05
2.13295e-05
2.20335e-05
2.317e-05
2.47499e-05
2.67037e-05
2.89077e-05
3.12093e-05
3.33927e-05
3.51366e-05
3.59996e-05
3.54876e-05
3.32157e-05
2.91626e-05
2.38213e-05
1.80872e-05
1.29444e-05
9.00303e-06
6.48078e-06
5.30765e-06
5.37932e-06
6.91e-06
1.08723e-05
1.58974e-05
7.37307e-06
2.36934e-06
2.08216e-07
4.78851e-08
1.37898e-06
3.2006e-06
6.53778e-06
1.1699e-05
1.65796e-05
1.92311e-05
2.0263e-05
2.06432e-05
2.10046e-05
2.16798e-05
2.27986e-05
2.4371e-05
2.6333e-05
2.85723e-05
3.09514e-05
3.326e-05
3.51766e-05
3.62625e-05
3.60414e-05
3.41684e-05
3.065e-05
2.59138e-05
2.06504e-05
1.55903e-05
1.12534e-05
8.03766e-06
6.10908e-06
5.46711e-06
6.28837e-06
9.56658e-06
1.55863e-05
7.67907e-06
2.41195e-06
2.13519e-07
4.84775e-08
1.37649e-06
3.19031e-06
6.53186e-06
1.17093e-05
1.65425e-05
1.90861e-05
2.00154e-05
2.03253e-05
2.06499e-05
2.13102e-05
2.24241e-05
2.39965e-05
2.59668e-05
2.82362e-05
3.0675e-05
3.30725e-05
3.50995e-05
3.6306e-05
3.62162e-05
3.45191e-05
3.12885e-05
2.69916e-05
2.22476e-05
1.75707e-05
1.32931e-05
9.77052e-06
7.30814e-06
6.0742e-06
6.29005e-06
8.91552e-06
1.53526e-05
8.06059e-06
2.45685e-06
2.17817e-07
4.93513e-08
1.3734e-06
3.17938e-06
6.5225e-06
1.17008e-05
1.64634e-05
1.88824e-05
1.96997e-05
1.99384e-05
2.02337e-05
2.08927e-05
2.20175e-05
2.36028e-05
2.5588e-05
2.78855e-05
3.03698e-05
3.28263e-05
3.49125e-05
3.61584e-05
3.60768e-05
3.43863e-05
3.12411e-05
2.71933e-05
2.28715e-05
1.86638e-05
1.47282e-05
1.12714e-05
8.59661e-06
6.98821e-06
6.78119e-06
8.96711e-06
1.54951e-05
8.4873e-06
2.50666e-06
2.20635e-07
5.04364e-08
1.36989e-06
3.16779e-06
6.50719e-06
1.16696e-05
1.63387e-05
1.86138e-05
1.9305e-05
1.94663e-05
1.97354e-05
2.04029e-05
2.15516e-05
2.31628e-05
2.51715e-05
2.74985e-05
3.00187e-05
3.25097e-05
3.4613e-05
3.58353e-05
3.56761e-05
3.38815e-05
3.06879e-05
2.67424e-05
2.2713e-05
1.89271e-05
1.5437e-05
1.22974e-05
9.70891e-06
7.99085e-06
7.59648e-06
9.63058e-06
1.62136e-05
8.88141e-06
2.559e-06
2.2178e-07
5.16185e-08
1.36626e-06
3.15512e-06
6.48409e-06
1.16152e-05
1.61728e-05
1.82853e-05
1.88327e-05
1.8906e-05
1.91465e-05
1.98262e-05
2.10061e-05
2.2651e-05
2.46896e-05
2.70472e-05
2.95935e-05
3.20962e-05
3.41822e-05
3.53404e-05
3.50636e-05
3.31264e-05
2.98355e-05
2.59161e-05
2.20711e-05
1.86066e-05
1.55355e-05
1.2813e-05
1.05188e-05
8.93243e-06
8.59548e-06
1.07674e-05
1.7421e-05
9.18232e-06
2.61083e-06
2.21759e-07
5.2797e-08
1.36269e-06
3.14123e-06
6.45358e-06
1.15413e-05
1.59715e-05
1.79013e-05
1.82858e-05
1.82591e-05
1.84665e-05
1.91587e-05
2.03714e-05
2.20528e-05
2.41297e-05
2.65188e-05
2.90799e-05
3.1572e-05
3.36142e-05
3.46915e-05
3.43055e-05
3.22605e-05
2.89065e-05
2.50062e-05
2.12723e-05
1.80186e-05
1.52723e-05
1.29496e-05
1.1039e-05
9.75314e-06
9.68185e-06
1.2217e-05
1.8803e-05
9.39176e-06
2.66197e-06
2.21658e-07
5.39058e-08
1.35916e-06
3.12594e-06
6.41623e-06
1.14501e-05
1.57384e-05
1.74684e-05
1.76753e-05
1.75395e-05
1.77086e-05
1.84109e-05
1.96574e-05
2.13786e-05
2.34961e-05
2.59147e-05
2.8482e-05
3.09494e-05
3.29363e-05
3.39406e-05
3.34917e-05
3.14225e-05
2.80916e-05
2.42483e-05
2.05797e-05
1.74321e-05
1.48867e-05
1.28744e-05
1.13386e-05
1.04327e-05
1.07632e-05
1.37716e-05
2.00339e-05
9.55165e-06
2.71425e-06
2.22678e-07
5.49503e-08