/*--------------------------------*- C++ -*----------------------------------*\
| =========                 |                                                 |
| \\      /  F ield         | OpenFOAM: The Open Source CFD Toolbox           |
|  \\    /   O peration     | Version:  v1906                                 |
|   \\  /    A nd           | Web:      www.OpenFOAM.com                      |
|    \\/     M anipulation  |                                                 |
\*---------------------------------------------------------------------------*/
FoamFile
{
    version     2.0;
    format      ascii;
    class       surfaceScalarField;
    location    "33";
    object      phi;
}
// * * * * * * * * * * * * * * * * * * * * * * * * * * * * * * * * * * * * * //

dimensions      [1 0 -1 0 0 0 0];
oriented        oriented;


internalField   nonuniform List<scalar> 
228225
(
-7.70618e-06
3.56447e-08
1.95015e-07
-7.2555e-06
-6.79409e-07
2.29238e-07
-6.40175e-06
-1.07038e-06
2.1667e-07
-5.31115e-06
-1.24157e-06
1.51018e-07
-4.1314e-06
-1.25384e-06
7.40825e-08
-2.9548e-06
-1.18219e-06
5.57179e-09
-1.84433e-06
-1.08426e-06
-2.62475e-08
-8.16106e-07
-9.82294e-07
-4.59573e-08
1.22415e-07
-8.804e-07
-5.81615e-08
9.71832e-07
-7.85952e-07
-6.35097e-08
1.74175e-06
-7.06415e-07
-6.35474e-08
2.44399e-06
-6.4161e-07
-6.06662e-08
3.08988e-06
-5.89166e-07
-5.67613e-08
3.68905e-06
-5.46409e-07
-5.27975e-08
4.24907e-06
-5.109e-07
-4.91582e-08
4.77549e-06
-4.80509e-07
-4.59411e-08
5.27184e-06
-4.53368e-07
-4.30153e-08
5.73981e-06
-4.27809e-07
-4.01859e-08
6.17928e-06
-4.02288e-07
-3.72014e-08
6.58831e-06
-3.75317e-07
-3.37292e-08
6.96316e-06
-3.45416e-07
-2.94417e-08
7.2981e-06
-3.1106e-07
-2.3892e-08
7.58531e-06
-2.70663e-07
-1.65582e-08
7.81507e-06
-2.22582e-07
-7.17489e-09
7.97204e-06
-1.65136e-07
8.16559e-09
8.03709e-06
-9.67965e-08
3.17568e-08
7.99569e-06
-1.82712e-08
5.96806e-08
7.81011e-06
9.12464e-08
9.43412e-08
7.45054e-06
2.21757e-07
1.37841e-07
6.8765e-06
3.81063e-07
1.93019e-07
6.02538e-06
5.89035e-07
2.62178e-07
4.80662e-06
8.77902e-07
3.40987e-07
3.16448e-06
1.2429e-06
3.99304e-07
1.29316e-06
1.5026e-06
3.68379e-07
1.10721e-06
1.84759e-07
-1.13521e-06
1.13701e-06
3.36706e-08
-2.79316e-06
1.17486e-06
-1.96568e-07
-4.29834e-06
9.0275e-07
-4.67852e-07
-5.52908e-06
6.5401e-07
-6.64909e-07
-6.48785e-06
4.64866e-07
-7.59961e-07
-7.17741e-06
3.02781e-07
-7.95431e-07
-7.60027e-06
1.41937e-07
-8.03399e-07
-7.7693e-06
-1.409e-08
-7.9925e-07
-7.76724e-06
-9.50757e-08
-7.87456e-07
-7.62222e-06
-1.61741e-07
-7.69286e-07
-7.36065e-06
-2.20959e-07
-7.47086e-07
-7.00225e-06
-2.76406e-07
-7.23659e-07
-6.56118e-06
-3.28378e-07
-7.01905e-07
-6.04855e-06
-3.75788e-07
-6.83289e-07
-5.47395e-06
-4.17487e-07
-6.68035e-07
-4.84619e-06
-4.52437e-07
-6.55854e-07
-4.17359e-06
-4.79789e-07
-6.46187e-07
-3.46416e-06
-4.98871e-07
-6.38365e-07
-2.7257e-06
-5.09072e-07
-6.31671e-07
-1.96598e-06
-5.09686e-07
-6.25337e-07
-1.1931e-06
-4.99728e-07
-6.18551e-07
-4.16087e-07
-4.77706e-07
-6.10347e-07
3.54271e-07
-4.41371e-07
-5.99624e-07
1.10437e-06
-3.87402e-07
-5.85244e-07
1.81617e-06
-3.10976e-07
-5.65925e-07
2.465e-06
-2.056e-07
-5.39982e-07
3.01599e-06
-6.41382e-08
-5.05072e-07
3.43666e-06
1.28541e-07
-4.57897e-07
3.67388e-06
3.78524e-07
-3.93903e-07
3.65905e-06
7.02465e-07
-3.0647e-07
3.31334e-06
1.1226e-06
-1.87747e-07
2.5921e-06
1.63939e-06
-4.0192e-08
1.57681e-06
2.14709e-06
1.10968e-07
5.55428e-07
2.34445e-06
1.78931e-07
1.54878e-06
1.12452e-07
4.01195e-08
1.05125e-06
4.52137e-08
-5.18039e-07
1.74746e-06
-1.44554e-08
-1.42967e-06
1.86051e-06
-4.6266e-08
-2.45969e-06
1.71242e-06
-2.85389e-08
-3.45511e-06
1.43361e-06
2.65557e-08
-4.32395e-06
1.07934e-06
9.21449e-08
-5.0263e-06
6.98974e-07
1.45137e-07
-5.56149e-06
3.37152e-07
1.83759e-07
-5.90427e-06
3.587e-08
2.11676e-07
-6.00396e-06
-2.96686e-07
2.34532e-07
-5.91942e-06
-5.59114e-07
2.53573e-07
-5.69377e-06
-7.69781e-07
2.6773e-07
-5.36169e-06
-9.36915e-07
2.7652e-07
-4.95149e-06
-1.06615e-06
2.80276e-07
-4.48611e-06
-1.16223e-06
2.7952e-07
-3.98431e-06
-1.22878e-06
2.74753e-07
-3.46155e-06
-1.26871e-06
2.66398e-07
-2.93026e-06
-1.28457e-06
2.54665e-07
-2.40002e-06
-1.27866e-06
2.39612e-07
-1.87782e-06
-1.25281e-06
2.21175e-07
-1.36823e-06
-1.20825e-06
1.99177e-07
-8.73854e-07
-1.14538e-06
1.73511e-07
-3.95777e-07
-1.06344e-06
1.44181e-07
6.57689e-08
-9.60087e-07
1.11291e-07
5.09979e-07
-8.30247e-07
7.51704e-08
9.32669e-07
-6.64398e-07
3.61812e-08
1.32013e-06
-4.47466e-07
-4.08911e-09
1.64577e-06
-1.57239e-07
-3.98358e-08
1.87537e-06
2.19017e-07
-7.00555e-08
1.95002e-06
7.13744e-07
-8.58774e-08
1.80529e-06
1.34355e-06
-7.61604e-08
1.41681e-06
2.05959e-06
-3.17522e-08
8.54768e-07
2.67079e-06
3.80861e-08
2.94234e-07
2.81758e-06
8.66723e-08
1.77489e-06
6.66062e-08
8.09138e-08
8.95508e-07
7.46887e-08
1.60565e-07
1.56464e-06
1.02698e-07
2.22221e-07
1.69256e-06
1.06157e-07
2.5633e-07
1.57147e-06
1.06745e-07
2.59463e-07
1.32174e-06
1.08591e-07
2.38747e-07
9.83711e-07
1.16203e-07
2.159e-07
5.88946e-07
1.32794e-07
2.27212e-07
1.66795e-07
1.59043e-07
3.08343e-07
-2.39671e-07
1.94504e-07
3.95034e-07
-6.18599e-07
2.35439e-07
5.2407e-07
-9.63266e-07
2.75482e-07
7.05708e-07
-1.26022e-06
3.09323e-07
9.38959e-07
-1.50424e-06
3.34757e-07
1.21721e-06
-1.69572e-06
3.52142e-07
1.53055e-06
-1.83778e-06
3.6315e-07
1.86691e-06
-1.93419e-06
3.70065e-07
2.21329e-06
-1.98918e-06
3.75183e-07
2.557e-06
-2.00747e-06
3.80323e-07
2.886e-06
-1.99322e-06
3.86732e-07
3.18869e-06
-1.94941e-06
3.951e-07
3.45391e-06
-1.87788e-06
4.05613e-07
3.6709e-06
-1.77914e-06
4.17983e-07
3.82955e-06
-1.65226e-06
4.31345e-07
3.92181e-06
-1.49515e-06
4.43935e-07
3.94289e-06
-1.30319e-06
4.52902e-07
3.89199e-06
-1.06661e-06
4.54014e-07
3.77116e-06
-7.67515e-07
4.41584e-07
3.58268e-06
-3.78426e-07
4.10138e-07
3.30597e-06
1.37843e-07
3.58133e-07
2.90561e-06
8.22599e-07
2.91535e-07
2.37347e-06
1.64987e-06
2.2568e-07
1.71928e-06
2.53422e-06
1.79269e-07
1.00459e-06
3.22581e-06
1.59125e-07
3.51285e-07
3.32935e-06
1.40545e-07
2.04346e-06
8.09814e-08
1.05585e-07
7.11619e-07
7.79673e-08
1.84393e-07
1.34316e-06
1.42344e-07
1.73959e-07
1.52342e-06
1.79444e-07
8.66811e-08
1.44942e-06
2.09198e-07
-5.69637e-08
1.22478e-06
2.40476e-07
-2.4047e-07
8.88691e-07
2.78502e-07
-4.50463e-07
4.74539e-07
3.24537e-07
-6.83955e-07
2.76856e-08
3.72926e-07
-8.73585e-07
-4.62657e-07
4.13133e-07
-1.00379e-06
-9.22279e-07
4.34577e-07
-1.06232e-06
-1.33591e-06
4.31986e-07
-1.03901e-06
-1.69075e-06
4.08129e-07
-9.31771e-07
-1.98137e-06
3.70828e-07
-7.4825e-07
-2.20673e-06
3.28416e-07
-5.01291e-07
-2.37107e-06
2.87217e-07
-2.03969e-07
-2.48166e-06
2.50996e-07
1.32047e-07
-2.5458e-06
2.21414e-07
4.96029e-07
-2.56974e-06
1.99071e-07
8.77459e-07
-2.55814e-06
1.84265e-07
1.26568e-06
-2.51403e-06
1.77174e-07
1.64953e-06
-2.43889e-06
1.77957e-07
2.01696e-06
-2.33256e-06
1.86804e-07
2.35453e-06
-2.19293e-06
2.03966e-07
2.64632e-06
-2.01567e-06
2.29663e-07
2.87272e-06
-1.79226e-06
2.63666e-07
3.01177e-06
-1.50908e-06
3.0447e-07
3.04462e-06
-1.14652e-06
3.47212e-07
2.9562e-06
-6.70682e-07
3.81653e-07
2.72365e-06
-2.22725e-08
3.93458e-07
2.38081e-06
7.94325e-07
3.71603e-07
1.90795e-06
1.80308e-06
3.19798e-07
1.32954e-06
2.855e-06
2.5744e-07
7.24119e-07
3.62634e-06
2.04338e-07
2.21364e-07
3.6766e-06
1.54492e-07
2.18459e-06
7.84396e-08
-3.16491e-09
6.24153e-07
9.03567e-08
-3.75205e-08
1.19146e-06
1.85872e-07
-1.17852e-07
1.35839e-06
2.45125e-07
-2.31093e-07
1.27595e-06
2.86616e-07
-3.5087e-07
1.02433e-06
3.2029e-07
-4.50186e-07
6.36876e-07
3.51302e-07
-5.07724e-07
1.54187e-07
3.78159e-07
-5.01792e-07
-3.71903e-07
3.94019e-07
-4.58459e-07
-8.98182e-07
3.92624e-07
-3.64869e-07
-1.38903e-06
3.73615e-07
-2.21298e-07
-1.82109e-06
3.42037e-07
-3.2407e-08
-2.18421e-06
3.04924e-07
1.94172e-07
-2.47595e-06
2.68284e-07
4.48563e-07
-2.69662e-06
2.35706e-07
7.22838e-07
-2.85354e-06
2.0834e-07
1.0125e-06
-2.95711e-06
1.85886e-07
1.31404e-06
-3.01508e-06
1.67805e-07
1.62327e-06
-3.03261e-06
1.537e-07
1.93494e-06
-3.01312e-06
1.4335e-07
2.24284e-06
-2.95865e-06
1.3675e-07
2.53978e-06
-2.86993e-06
1.34143e-07
2.8176e-06
-2.74635e-06
1.36035e-07
3.06701e-06
-2.58547e-06
1.43228e-07
3.27574e-06
-2.38119e-06
1.56932e-07
3.42677e-06
-2.12191e-06
1.78821e-07
3.49974e-06
-1.79235e-06
2.10603e-07
3.47395e-06
-1.37312e-06
2.52811e-07
3.33206e-06
-8.3156e-07
3.03292e-07
3.08063e-06
-1.23435e-07
3.53167e-07
2.66941e-06
8.21432e-07
3.84638e-07
2.12502e-06
1.96757e-06
3.80201e-07
1.4843e-06
3.15719e-06
3.38486e-07
8.25794e-07
4.0092e-06
2.75165e-07
2.7031e-07
4.03248e-06
1.98579e-07
2.36084e-06
9.22265e-08
-4.61375e-09
5.32528e-07
9.59903e-08
-4.91188e-08
1.02654e-06
2.09146e-07
-1.40223e-07
1.16519e-06
2.84113e-07
-2.58801e-07
1.05662e-06
3.37876e-07
-3.79128e-07
7.65303e-07
3.79442e-07
-4.82046e-07
3.28498e-07
4.11477e-07
-5.55555e-07
-2.03514e-07
4.31471e-07
-5.85101e-07
-7.78007e-07
4.35977e-07
-5.69133e-07
-1.33814e-06
4.24366e-07
-5.09062e-07
-1.84937e-06
4.00669e-07
-4.07729e-07
-2.29307e-06
3.7104e-07
-2.6842e-07
-2.66341e-06
3.40286e-07
-9.39037e-08
-2.96124e-06
3.11143e-07
1.14614e-07
-3.18966e-06
2.84894e-07
3.55596e-07
-3.35596e-06
2.61808e-07
6.26054e-07
-3.46895e-06
2.41758e-07
9.21423e-07
-3.53464e-06
2.2457e-07
1.23531e-06
-3.55631e-06
2.10185e-07
1.55984e-06
-3.5359e-06
1.98625e-07
1.88595e-06
-3.47439e-06
1.89999e-07
2.20369e-06
-3.37181e-06
1.84509e-07
2.50222e-06
-3.227e-06
1.82475e-07
2.76911e-06
-3.0364e-06
1.84395e-07
2.98975e-06
-2.79246e-06
1.90981e-07
3.14918e-06
-2.48417e-06
2.03186e-07
3.23245e-06
-2.09715e-06
2.21875e-07
3.22112e-06
-1.60901e-06
2.47587e-07
3.0924e-06
-9.82914e-07
2.80437e-07
2.81606e-06
-1.64542e-07
3.17815e-07
2.40896e-06
8.78205e-07
3.50635e-07
1.87782e-06
2.13573e-06
3.63134e-07
1.26899e-06
3.42319e-06
3.42701e-07
6.72056e-07
4.31578e-06
2.89832e-07
2.02209e-07
4.29199e-06
2.09292e-07
2.46829e-06
9.2941e-08
-3.70259e-08
4.6984e-07
9.93352e-08
-1.22935e-07
8.87266e-07
2.25041e-07
-2.43581e-07
9.752e-07
3.10579e-07
-3.77295e-07
8.19786e-07
3.70531e-07
-4.97842e-07
4.73847e-07
4.12079e-07
-5.83701e-07
-2.20312e-08
4.36587e-07
-6.34769e-07
-5.95269e-07
4.43126e-07
-6.5039e-07
-1.19469e-06
4.32668e-07
-6.29826e-07
-1.76737e-06
4.09053e-07
-5.73767e-07
-2.28332e-06
3.78281e-07
-4.81745e-07
-2.73063e-06
3.45911e-07
-3.51934e-07
-3.10808e-06
3.15214e-07
-1.81995e-07
-3.41845e-06
2.87616e-07
3.01041e-08
-3.66491e-06
2.63478e-07
2.82383e-07
-3.85059e-06
2.42668e-07
5.6983e-07
-3.98103e-06
2.24932e-07
8.86016e-07
-4.06046e-06
2.09916e-07
1.22296e-06
-4.09037e-06
1.97391e-07
1.57134e-06
-4.07132e-06
1.87282e-07
1.92083e-06
-4.00328e-06
1.79644e-07
2.26019e-06
-3.88561e-06
1.7468e-07
2.57664e-06
-3.71599e-06
1.7278e-07
2.85495e-06
-3.48896e-06
1.74505e-07
3.07915e-06
-3.19703e-06
1.80632e-07
3.23468e-06
-2.83165e-06
1.92239e-07
3.30742e-06
-2.3799e-06
2.10321e-07
3.28212e-06
-1.81911e-06
2.35737e-07
3.14272e-06
-1.11183e-06
2.68675e-07
2.88005e-06
-2.08367e-07
3.06854e-07
2.47367e-06
9.42186e-07
3.42703e-07
1.94121e-06
2.30583e-06
3.625e-07
1.32851e-06
3.68384e-06
3.51924e-07
7.21887e-07
4.61735e-06
3.04558e-07
2.29473e-07
4.56249e-06
2.20897e-07
2.60029e-06
9.5674e-08
-1.99305e-08
3.92092e-07
9.73442e-08
-8.0503e-08
7.20821e-07
2.2688e-07
-1.75602e-07
7.53661e-07
3.16554e-07
-2.87545e-07
5.54384e-07
3.77326e-07
-3.98004e-07
1.69994e-07
4.144e-07
-5.00819e-07
-3.48741e-07
4.29722e-07
-5.84292e-07
-9.37495e-07
4.25971e-07
-6.49008e-07
-1.53831e-06
4.08652e-07
-6.89994e-07
-2.11054e-06
3.84472e-07
-6.99352e-07
-2.63288e-06
3.5923e-07
-6.68177e-07
-3.09793e-06
3.36433e-07
-5.88761e-07
-3.50427e-06
3.17095e-07
-4.56367e-07
-3.85133e-06
3.00819e-07
-2.69914e-07
-4.13778e-06
2.86758e-07
-3.199e-08
-4.36237e-06
2.74201e-07
2.5083e-07
-4.52627e-06
2.62762e-07
5.69501e-07
-4.63106e-06
2.5226e-07
9.14395e-07
-4.67754e-06
2.42597e-07
1.27547e-06
-4.66588e-06
2.3379e-07
1.64183e-06
-4.59527e-06
2.25915e-07
2.00108e-06
-4.46371e-06
2.19118e-07
2.33882e-06
-4.2671e-06
2.136e-07
2.63911e-06
-3.99862e-06
2.09588e-07
2.88537e-06
-3.65064e-06
2.0754e-07
3.06042e-06
-3.21487e-06
2.08339e-07
3.14703e-06
-2.67973e-06
2.13367e-07
3.12855e-06
-2.0252e-06
2.24743e-07
2.98888e-06
-1.21683e-06
2.44849e-07
2.71086e-06
-2.04608e-07
2.74443e-07
2.30186e-06
1.04238e-06
3.08968e-07
1.778e-06
2.49423e-06
3.35494e-07
1.19006e-06
3.93533e-06
3.3628e-07
6.27089e-07
4.88178e-06
2.98012e-07
1.89533e-07
4.78168e-06
2.1735e-07
2.69596e-06
9.20777e-08
-1.21871e-08
3.12821e-07
9.11748e-08
-5.0331e-08
5.42223e-07
2.16498e-07
-1.13976e-07
5.13508e-07
3.03714e-07
-1.95721e-07
2.75229e-07
3.60946e-07
-2.87215e-07
-1.31399e-07
3.93021e-07
-3.83532e-07
-6.56415e-07
4.0419e-07
-4.79061e-07
-1.24198e-06
4.0027e-07
-5.64811e-07
-1.84039e-06
3.88138e-07
-6.28538e-07
-2.41999e-06
3.73534e-07
-6.56798e-07
-2.96391e-06
3.59689e-07
-6.38023e-07
-3.46372e-06
3.4746e-07
-5.64878e-07
-3.91327e-06
3.36326e-07
-4.3514e-07
-4.30603e-06
3.25465e-07
-2.51109e-07
-4.63567e-06
3.14383e-07
-1.80746e-08
-4.89794e-06
3.03085e-07
2.55979e-07
-5.09169e-06
2.9193e-07
5.62145e-07
-5.21813e-06
2.81482e-07
8.92165e-07
-5.27924e-06
2.72258e-07
1.23825e-06
-5.27601e-06
2.64628e-07
1.59223e-06
-5.2075e-06
2.58806e-07
1.94431e-06
-5.07008e-06
2.54832e-07
2.28219e-06
-4.85703e-06
2.52552e-07
2.59102e-06
-4.55865e-06
2.51662e-07
2.85226e-06
-4.1632e-06
2.51733e-07
3.04398e-06
-3.65853e-06
2.52283e-07
3.14382e-06
-3.03266e-06
2.53384e-07
3.13247e-06
-2.26998e-06
2.56353e-07
2.99602e-06
-1.34401e-06
2.63805e-07
2.7299e-06
-2.16781e-07
2.78405e-07
2.32706e-06
1.14571e-06
2.99565e-07
1.80909e-06
2.69298e-06
3.19162e-07
1.22477e-06
4.19819e-06
3.21194e-07
6.59052e-07
5.15881e-06
2.88107e-07
2.07211e-07
5.02145e-06
2.11008e-07
2.81338e-06
8.79883e-08
-1.38933e-08
2.42408e-07
8.39826e-08
-5.08911e-08
3.77292e-07
2.01703e-07
-1.06428e-07
2.84497e-07
2.84469e-07
-1.75773e-07
5.55933e-09
3.39045e-07
-2.52783e-07
-4.24457e-07
3.70176e-07
-3.36475e-07
-9.55254e-07
3.82706e-07
-4.20853e-07
-1.53985e-06
3.82492e-07
-4.95186e-07
-2.14113e-06
3.75374e-07
-5.45279e-07
-2.73494e-06
3.6541e-07
-5.57081e-07
-3.30591e-06
3.54216e-07
-5.20739e-07
-3.84128e-06
3.41666e-07
-4.33001e-07
-4.32768e-06
3.27157e-07
-2.96957e-07
-4.75214e-06
3.10578e-07
-1.19631e-07
-5.10506e-06
2.92615e-07
9.09456e-08
-5.38242e-06
2.74476e-07
3.27702e-07
-5.58529e-06
2.57443e-07
5.85102e-07
-5.71747e-06
2.42564e-07
8.58831e-07
-5.78292e-06
2.30592e-07
1.14533e-06
-5.7839e-06
2.22039e-07
1.44127e-06
-5.72e-06
2.17219e-07
1.74276e-06
-5.58721e-06
2.16281e-07
2.04399e-06
-5.37683e-06
2.19201e-07
2.33496e-06
-5.07458e-06
2.25548e-07
2.59857e-06
-4.66054e-06
2.3426e-07
2.8096e-06
-4.11258e-06
2.43487e-07
2.93714e-06
-3.41114e-06
2.51322e-07
2.95116e-06
-2.54083e-06
2.57114e-07
2.83044e-06
-1.48574e-06
2.62647e-07
2.56607e-06
-2.23907e-07
2.71591e-07
2.16938e-06
1.25651e-06
2.85895e-07
1.66611e-06
2.89556e-06
3.00568e-07
1.10881e-06
4.45333e-06
3.01845e-07
5.81834e-07
5.4136e-06
2.71567e-07
1.74295e-07
5.22953e-06
1.98379e-07
2.90486e-06
8.09749e-08
-2.46909e-08
1.91758e-07
7.50501e-08
-8.69516e-08
2.55841e-07
1.83512e-07
-1.73068e-07
1.09834e-07
2.60647e-07
-2.7374e-07
-2.05319e-07
3.11514e-07
-3.8396e-07
-6.54785e-07
3.40612e-07
-4.94828e-07
-1.19735e-06
3.5312e-07
-5.95538e-07
-1.79363e-06
3.54713e-07
-6.7188e-07
-2.41438e-06
3.49877e-07
-7.09146e-07
-3.03791e-06
3.40568e-07
-6.96678e-07
-3.64454e-06
3.26544e-07
-6.31251e-07
-4.21329e-06
3.07029e-07
-5.17353e-07
-4.72334e-06
2.82248e-07
-3.64539e-07
-5.1583e-06
2.53891e-07
-1.83613e-07
-5.50995e-06
2.24535e-07
1.63902e-08
-5.77854e-06
1.96724e-07
2.29338e-07
-5.96996e-06
1.72362e-07
4.51773e-07
-6.09186e-06
1.52612e-07
6.81957e-07
-6.15055e-06
1.38133e-07
9.1916e-07
-6.14972e-06
1.29318e-07
1.16319e-06
-6.08977e-06
1.26473e-07
1.41395e-06
-5.96712e-06
1.29904e-07
1.67059e-06
-5.77265e-06
1.39943e-07
1.92956e-06
-5.4895e-06
1.56718e-07
2.18118e-06
-5.09094e-06
1.79539e-07
2.40571e-06
-4.54248e-06
2.06081e-07
2.57158e-06
-3.80849e-06
2.32103e-07
2.63984e-06
-2.86124e-06
2.52645e-07
2.57573e-06
-1.68642e-06
2.65147e-07
2.36312e-06
-2.83133e-07
2.72042e-07
2.00619e-06
1.33494e-06
2.78546e-07
1.53818e-06
3.07814e-06
2.85329e-07
1.01727e-06
4.69105e-06
2.82883e-07
5.2839e-07
5.64824e-06
2.53618e-07
1.54654e-07
5.41807e-06
1.8409e-07
2.98429e-06
7.33897e-08
6.64185e-09
1.22715e-07
6.21153e-08
-1.40413e-08
1.2005e-07
1.5624e-07
-6.85652e-08
-6.10605e-08
2.25262e-07
-1.49401e-07
-3.96305e-07
2.71767e-07
-2.44852e-07
-8.58396e-07
2.99104e-07
-3.42308e-07
-1.41117e-06
3.11401e-07
-4.25955e-07
-2.02226e-06
3.12464e-07
-4.80093e-07
-2.66437e-06
3.04363e-07
-4.93096e-07
-3.31195e-06
2.87322e-07
-4.60324e-07
-3.93817e-06
2.61177e-07
-3.84484e-07
-4.51586e-06
2.27076e-07
-2.73535e-07
-5.02189e-06
1.87972e-07
-1.37438e-07
-5.4418e-06
1.47774e-07
1.47773e-08
-5.7718e-06
1.1002e-07
1.76647e-07
-6.01704e-06
7.70177e-08
3.44389e-07
-6.18712e-06
4.97956e-08
5.16055e-07
-6.29172e-06
2.85745e-08
6.90777e-07
-6.33815e-06
1.3264e-08
8.68191e-07
-6.33048e-06
3.76441e-09
1.0481e-06
-6.2698e-06
5.68822e-10
1.23032e-06
-6.15371e-06
4.8629e-09
1.41568e-06
-5.97411e-06
1.66544e-08
1.6043e-06
-5.71446e-06
3.69622e-08
1.7937e-06
-5.34663e-06
6.69787e-08
1.97437e-06
-4.82912e-06
1.06708e-07
2.12443e-06
-4.11094e-06
1.53151e-07
2.2082e-06
-3.1435e-06
1.992e-07
2.18378e-06
-1.89732e-06
2.35921e-07
2.01911e-06
-3.76371e-07
2.58358e-07
1.71495e-06
1.37038e-06
2.68986e-07
1.30205e-06
3.21877e-06
2.72335e-07
8.42198e-07
4.88526e-06
2.65455e-07
4.20843e-07
5.83385e-06
2.3522e-07
1.13579e-07
5.55552e-06
1.68787e-07
3.03033e-06
6.57663e-08
3.20371e-08
4.27708e-08
4.75668e-08
6.57036e-08
-3.79744e-08
1.24138e-07
7.26873e-08
-2.50984e-07
1.82812e-07
5.14368e-08
-5.9872e-07
2.23611e-07
8.72888e-09
-1.06359e-06
2.47911e-07
-4.22134e-08
-1.61801e-06
2.57846e-07
-8.65982e-08
-2.23301e-06
2.55248e-07
-1.11916e-07
-2.88005e-06
2.41148e-07
-1.10306e-07
-3.52984e-06
2.16458e-07
-7.89802e-08
-4.15244e-06
1.83135e-07
-1.92259e-08
-4.72005e-06
1.44631e-07
6.51543e-08
-5.21123e-06
1.0515e-07
1.69319e-07
-5.61415e-06
6.83468e-08
2.88636e-07
-5.92737e-06
3.63855e-08
4.19455e-07
-6.15746e-06
9.7138e-09
5.57908e-07
-6.3143e-06
-1.11792e-08
7.00562e-07
-6.40783e-06
-2.64621e-08
8.4537e-07
-6.44496e-06
-3.79138e-08
9.89776e-07
-6.42921e-06
-4.5571e-08
1.13149e-06
-6.36209e-06
-4.92881e-08
1.26938e-06
-6.24284e-06
-4.85877e-08
1.40275e-06
-6.0648e-06
-4.24699e-08
1.53067e-06
-5.81258e-06
-2.95041e-08
1.65357e-06
-5.46093e-06
-8.21604e-09
1.7666e-06
-4.96906e-06
2.73995e-08
1.8613e-06
-4.27997e-06
7.49429e-08
1.91584e-06
-3.32856e-06
1.3122e-07
1.89516e-06
-2.06243e-06
1.86515e-07
1.76366e-06
-4.73095e-07
2.28879e-07
1.50692e-06
1.37513e-06
2.52487e-07
1.14702e-06
3.31945e-06
2.59506e-07
7.41044e-07
5.04001e-06
2.5123e-07
3.69581e-07
5.98469e-06
2.20254e-07
1.00202e-07
5.66759e-06
1.56428e-07
3.06882e-06
6.00903e-08
6.18536e-08
-5.40034e-08
3.45826e-08
1.6233e-07
-2.32417e-07
9.37424e-08
2.58935e-07
-4.89316e-07
1.41581e-07
3.33739e-07
-8.49712e-07
1.76101e-07
3.84011e-07
-1.31055e-06
1.9666e-07
4.15871e-07
-1.85349e-06
2.03647e-07
4.38857e-07
-2.45392e-06
1.97986e-07
4.62192e-07
-3.08442e-06
1.81144e-07
4.92892e-07
-3.71585e-06
1.55437e-07
5.35281e-07
-4.31883e-06
1.24127e-07
5.91243e-07
-4.86685e-06
9.0955e-08
6.60814e-07
-5.33999e-06
5.92756e-08
7.42883e-07
-5.72744e-06
3.12937e-08
8.35922e-07
-6.02805e-06
7.68462e-09
9.37297e-07
-6.24795e-06
-1.0873e-08
1.04429e-06
-6.39596e-06
-2.5332e-08
1.15423e-06
-6.48092e-06
-3.68519e-08
1.26398e-06
-6.50891e-06
-4.58086e-08
1.37011e-06
-6.48295e-06
-5.2391e-08
1.46931e-06
-6.40475e-06
-5.6539e-08
1.55845e-06
-6.27399e-06
-5.79649e-08
1.6345e-06
-6.08486e-06
-5.59423e-08
1.6955e-06
-5.82425e-06
-4.924e-08
1.74105e-06
-5.47037e-06
-3.59611e-08
1.7723e-06
-4.98649e-06
-1.35697e-08
1.78694e-06
-4.31746e-06
2.3227e-08
1.77621e-06
-3.39181e-06
7.45142e-08
1.71856e-06
-2.13843e-06
1.34319e-07
1.58252e-06
-5.26431e-07
1.90107e-07
1.34876e-06
1.381e-06
2.28569e-07
1.0274e-06
3.3968e-06
2.44519e-07
6.651e-07
5.16387e-06
2.38677e-07
3.33538e-07
6.10785e-06
2.08243e-07
9.25714e-08
5.76086e-06
1.47016e-07
3.10368e-06
5.6318e-08
6.9749e-08
-1.49727e-07
2.56632e-08
2.09427e-07
-4.42592e-07
7.02351e-08
3.70076e-07
-7.57801e-07
1.07654e-07
5.24584e-07
-1.13965e-06
1.35328e-07
6.61467e-07
-1.59916e-06
1.51701e-07
7.80141e-07
-2.12869e-06
1.56557e-07
8.85564e-07
-2.71004e-06
1.50783e-07
9.83625e-07
-3.31854e-06
1.36179e-07
1.07834e-06
-3.9256e-06
1.15178e-07
1.17117e-06
-4.50201e-06
9.05173e-08
1.2619e-06
-5.02233e-06
6.49049e-08
1.35007e-06
-5.46865e-06
4.06174e-08
1.43604e-06
-5.83241e-06
1.91161e-08
1.52153e-06
-6.11375e-06
2.95205e-10
1.60561e-06
-6.3186e-06
-1.33462e-08
1.68904e-06
-6.45453e-06
-2.47942e-08
1.77057e-06
-6.52837e-06
-3.40178e-08
1.84811e-06
-6.54512e-06
-4.12803e-08
1.91941e-06
-6.5075e-06
-4.67093e-08
1.98156e-06
-6.41654e-06
-5.03131e-08
2.03046e-06
-6.27085e-06
-5.19997e-08
2.06159e-06
-6.06456e-06
-5.1394e-08
2.07163e-06
-5.78653e-06
-4.76932e-08
2.05794e-06
-5.41712e-06
-3.94838e-08
2.01993e-06
-4.9238e-06
-2.4566e-08
1.96044e-06
-4.25662e-06
-1.169e-09
1.87496e-06
-3.34654e-06
4.05112e-08
1.75776e-06
-2.11443e-06
9.36646e-08
1.59017e-06
-5.0987e-07
1.51644e-07
1.35052e-06
1.42153e-06
1.99811e-07
1.03882e-06
3.48302e-06
2.26104e-07
6.88652e-07
5.28806e-06
2.2638e-07
3.60664e-07
6.23707e-06
1.98803e-07
1.09583e-07
5.87083e-06
1.40627e-07
3.15777e-06
5.42823e-08
4.56792e-08
-2.1779e-07
2.20621e-08
1.61541e-07
-6.16444e-07
5.77214e-08
3.16046e-07
-1.00032e-06
8.78388e-08
4.86004e-07
-1.42072e-06
1.1102e-07
6.59339e-07
-1.89838e-06
1.25876e-07
8.32405e-07
-2.43341e-06
1.31727e-07
1.00482e-06
-3.01094e-06
1.28629e-07
1.17498e-06
-3.60588e-06
1.17373e-07
1.33851e-06
-4.18842e-06
9.95135e-08
1.48968e-06
-4.7303e-06
7.73514e-08
1.62404e-06
-5.21009e-06
5.36248e-08
1.74036e-06
-5.6156e-06
3.0837e-08
1.84098e-06
-5.94337e-06
1.05272e-08
1.92989e-06
-6.19613e-06
-6.37425e-09
2.01008e-06
-6.37945e-06
-1.92004e-08
2.08462e-06
-6.49917e-06
-2.97727e-08
2.15482e-06
-6.56011e-06
-3.83311e-08
2.22068e-06
-6.56564e-06
-4.52033e-08
2.2813e-06
-6.51746e-06
-5.05278e-08
2.33455e-06
-6.41535e-06
-5.42998e-08
2.37705e-06
-6.25669e-06
-5.65015e-08
2.40418e-06
-6.0347e-06
-5.68318e-08
2.40971e-06
-5.7373e-06
-5.45925e-08
2.38603e-06
-5.34473e-06
-4.85507e-08
2.32609e-06
-4.82685e-06
-3.68396e-08
2.22643e-06
-4.13972e-06
-1.70563e-08
2.08696e-06
-3.22183e-06
1.49763e-08
1.9089e-06
-1.99755e-06
6.14911e-08
1.68953e-06
-4.06547e-07
1.165e-07
1.41813e-06
1.52521e-06
1.68295e-07
1.09202e-06
3.60732e-06
2.02418e-07
7.3375e-07
5.43683e-06
2.0998e-07
3.93838e-07
6.38989e-06
1.87248e-07
1.24096e-07
6.00709e-06
1.33147e-07
3.22943e-06
5.13485e-08
3.44478e-09
-2.4358e-07
2.20233e-08
4.27489e-08
-7.11826e-07
5.58429e-08
1.1864e-07
-1.16024e-06
8.3871e-08
2.25077e-07
-1.63288e-06
1.05656e-07
3.57003e-07
-2.14992e-06
1.1964e-07
5.09666e-07
-2.71017e-06
1.2421e-07
6.76129e-07
-3.29577e-06
1.18544e-07
8.46578e-07
-3.8796e-06
1.03483e-07
1.01044e-06
-4.43385e-06
8.17795e-08
1.15965e-06
-4.93669e-06
5.73509e-08
1.29092e-06
-5.37511e-06
3.38894e-08
1.40585e-06
-5.74408e-06
1.36513e-08
1.5094e-06
-6.04389e-06
-2.95397e-09
1.60495e-06
-6.27746e-06
-1.41686e-08
1.69724e-06
-6.44835e-06
-2.33571e-08
1.78912e-06
-6.56005e-06
-3.09395e-08
1.88203e-06
-6.61549e-06
-3.74764e-08
1.97643e-06
-6.61663e-06
-4.3338e-08
2.0718e-06
-6.56404e-06
-4.86926e-08
2.16668e-06
-6.45665e-06
-5.34705e-08
2.25844e-06
-6.29074e-06
-5.75709e-08
2.34219e-06
-6.05757e-06
-6.07153e-08
2.40967e-06
-5.74251e-06
-6.20691e-08
2.44847e-06
-5.32305e-06
-6.02577e-08
2.44318e-06
-4.76805e-06
-5.32798e-08
2.37925e-06
-4.03708e-06
-3.8465e-08
2.24849e-06
-3.0778e-06
-1.30176e-08
2.05061e-06
-1.82617e-06
2.67841e-08
1.79356e-06
-2.27033e-07
7.78792e-08
1.48392e-06
1.70487e-06
1.30437e-07
1.13046e-06
3.7912e-06
1.70094e-07
7.55355e-07
5.62741e-06
1.84974e-07
4.04198e-07
6.5727e-06
1.68529e-07
1.25413e-07
6.16572e-06
1.19849e-07
3.30902e-06
4.47445e-08
-4.36513e-09
-2.59798e-07
2.02661e-08
5.64689e-11
-7.70122e-07
5.36389e-08
2.59268e-08
-1.26693e-06
8.06606e-08
7.91773e-08
-1.78569e-06
9.94901e-08
1.59932e-07
-2.33844e-06
1.0777e-07
2.62749e-07
-2.9171e-06
1.04151e-07
3.78179e-07
-3.50081e-06
8.96647e-08
4.9594e-07
-4.06538e-06
6.806e-08
6.08421e-07
-4.59083e-06
4.4505e-08
7.12688e-07
-5.06446e-06
2.34711e-08
8.10149e-07
-5.47987e-06
7.22774e-09
9.04286e-07
-5.83432e-06
-3.97994e-09
9.97863e-07
-6.12692e-06
-1.06379e-08
1.09348e-06
-6.35789e-06
-1.52675e-08
1.19264e-06
-6.52865e-06
-1.89165e-08
1.29625e-06
-6.64134e-06
-2.23753e-08
1.40497e-06
-6.69811e-06
-2.61237e-08
1.51923e-06
-6.7005e-06
-3.03898e-08
1.63908e-06
-6.64866e-06
-3.52106e-08
1.76399e-06
-6.54103e-06
-4.04828e-08
1.89264e-06
-6.37312e-06
-4.61781e-08
2.02193e-06
-6.13463e-06
-5.21099e-08
2.14502e-06
-5.80792e-06
-5.75288e-08
2.2492e-06
-5.36591e-06
-6.11129e-08
2.31508e-06
-4.77286e-06
-6.08195e-08
2.31908e-06
-3.98704e-06
-5.37477e-08
2.23968e-06
-2.96172e-06
-3.63656e-08
2.06569e-06
-1.64631e-06
-5.57594e-09
1.80428e-06
-3.1433e-09
3.78411e-08
1.47278e-06
1.94965e-06
8.70775e-08
1.09894e-06
4.03688e-06
1.28559e-07
7.16217e-07
5.8616e-06
1.48876e-07
3.71788e-07
6.77833e-06
1.38903e-07
1.08408e-07
6.33162e-06
9.70839e-08
3.38333e-06
3.29131e-08
2.34754e-08
-2.9777e-07
1.41728e-08
6.28154e-08
-8.5193e-07
4.22205e-08
1.13959e-07
-1.38198e-06
6.37278e-08
1.78307e-07
-1.92473e-06
7.45714e-08
2.54963e-07
-2.48818e-06
7.29782e-08
3.39695e-07
-3.06226e-06
6.03361e-08
4.27154e-07
-3.62941e-06
4.10203e-08
5.13621e-07
-4.17264e-06
2.06444e-08
5.98274e-07
-4.67934e-06
3.69003e-09
6.82533e-07
-5.14089e-06
-8.00202e-09
7.68114e-07
-5.55063e-06
-1.49864e-08
8.55178e-07
-5.90293e-06
-1.86025e-08
9.42632e-07
-6.19406e-06
-2.04358e-08
1.02929e-06
-6.42313e-06
-2.15203e-08
1.11474e-06
-6.59176e-06
-2.24291e-08
1.19955e-06
-6.70273e-06
-2.34791e-08
1.285e-06
-6.75872e-06
-2.48868e-08
1.37266e-06
-6.76137e-06
-2.68267e-08
1.4643e-06
-6.71089e-06
-2.94206e-08
1.56152e-06
-6.60549e-06
-3.27477e-08
1.66565e-06
-6.44025e-06
-3.69636e-08
1.7773e-06
-6.20405e-06
-4.21681e-08
1.89431e-06
-5.87671e-06
-4.81093e-08
2.00849e-06
-5.42594e-06
-5.39999e-08
2.10249e-06
-4.80843e-06
-5.82108e-08
2.14927e-06
-3.97557e-06
-5.79922e-08
2.11706e-06
-2.87968e-06
-4.95476e-08
1.98033e-06
-1.48038e-06
-2.89037e-08
1.73226e-06
2.39609e-07
5.59008e-09
1.399e-06
2.23704e-06
4.61178e-08
1.01926e-06
4.33215e-06
8.4708e-08
6.42436e-07
6.13141e-06
1.07185e-07
3.19758e-07
6.99827e-06
1.0264e-07
8.58955e-08
6.49602e-06
6.88745e-08
3.44877e-06
1.90531e-08
6.30672e-08
-3.66407e-07
5.23261e-09
1.77278e-07
-9.86943e-07
2.05179e-08
3.09353e-07
-1.5458e-06
3.15049e-08
4.45362e-07
-2.09431e-06
3.33488e-08
5.78166e-07
-2.64716e-06
2.59762e-08
7.03699e-07
-3.20078e-06
1.27732e-08
8.19571e-07
-3.74475e-06
-7.38253e-10
9.29631e-07
-4.26781e-06
-1.50871e-08
1.03464e-06
-4.75949e-06
-2.50357e-08
1.13489e-06
-5.20953e-06
-3.17559e-08
1.22876e-06
-5.60808e-06
-3.653e-08
1.31351e-06
-5.94752e-06
-4.02437e-08
1.38686e-06
-6.22434e-06
-4.31312e-08
1.44797e-06
-6.43925e-06
-4.50326e-08
1.4974e-06
-6.59541e-06
-4.57932e-08
1.53662e-06
-6.69651e-06
-4.54662e-08
1.56771e-06
-6.74552e-06
-4.4294e-08
1.5931e-06
-6.74412e-06
-4.26247e-08
1.61556e-06
-6.69246e-06
-4.08779e-08
1.6383e-06
-6.58871e-06
-3.94937e-08
1.66483e-06
-6.42798e-06
-3.87836e-08
1.69906e-06
-6.19915e-06
-3.90886e-08
1.74436e-06
-5.88113e-06
-4.0822e-08
1.80059e-06
-5.43803e-06
-4.40369e-08
1.85879e-06
-4.81852e-06
-4.79637e-08
1.89658e-06
-3.96258e-06
-5.05695e-08
1.87889e-06
-2.8133e-06
-4.84356e-08
1.76859e-06
-1.33238e-06
-3.74438e-08
1.54564e-06
4.77178e-07
-1.44098e-08
1.22891e-06
2.53774e-06
1.61641e-08
8.66617e-07
4.64801e-06
4.64809e-08
5.20579e-07
6.41075e-06
6.66127e-08
2.42301e-07
7.21084e-06
6.53412e-08
5.67789e-08
6.64031e-06
4.03577e-08
3.49694e-06
6.91889e-09
7.65798e-08
-4.41657e-07
-1.66821e-09
2.34692e-07
-1.14633e-06
9.65193e-10
4.28784e-07
-1.74189e-06
1.72909e-09
6.32321e-07
-2.29675e-06
-1.33929e-09
8.32694e-07
-2.83763e-06
-1.01257e-08
1.02254e-06
-3.37055e-06
-2.02591e-08
1.19899e-06
-3.89151e-06
-2.98479e-08
1.36106e-06
-4.3918e-06
-3.81783e-08
1.50736e-06
-4.86028e-06
-4.55807e-08
1.63551e-06
-5.28514e-06
-5.25727e-08
1.74307e-06
-5.65641e-06
-5.92115e-08
1.82877e-06
-5.96819e-06
-6.50006e-08
1.89288e-06
-6.21917e-06
-6.92316e-08
1.93655e-06
-6.41145e-06
-7.14064e-08
1.96116e-06
-6.54853e-06
-7.14148e-08
1.96804e-06
-6.63387e-06
-6.94499e-08
1.95852e-06
-6.67009e-06
-6.58412e-08
1.93411e-06
-6.65866e-06
-6.09785e-08
1.89676e-06
-6.59971e-06
-5.53272e-08
1.84912e-06
-6.49159e-06
-4.9422e-08
1.79453e-06
-6.32979e-06
-4.35373e-08
1.73753e-06
-6.10407e-06
-3.80067e-08
1.68463e-06
-5.79449e-06
-3.3661e-08
1.64332e-06
-5.36535e-06
-3.12843e-08
1.61749e-06
-4.76147e-06
-3.11031e-08
1.59933e-06
-3.91201e-06
-3.22259e-08
1.56266e-06
-2.74412e-06
-3.22803e-08
1.46704e-06
-1.20866e-06
-2.7864e-08
1.27907e-06
6.81257e-07
-1.59427e-08
1.00148e-06
2.81207e-06
3.28628e-09
6.83036e-07
4.94499e-06
2.13363e-08
3.90296e-07
6.66864e-06
3.45283e-08
1.6827e-07
7.39871e-06
3.35088e-08
3.36709e-08
6.75704e-06
1.67062e-08
3.53021e-06
-1.54739e-09
5.89095e-08
-4.94987e-07
-5.92565e-09
2.03538e-07
-1.27768e-06
-1.35917e-08
3.99846e-07
-1.91856e-06
-1.99105e-08
6.22384e-07
-2.49318e-06
-2.63309e-08
8.53835e-07
-3.03654e-06
-3.27053e-08
1.08295e-06
-3.56112e-06
-3.86496e-08
1.30203e-06
-4.06639e-06
-4.42343e-08
1.50484e-06
-4.54476e-06
-4.98486e-08
1.68594e-06
-4.98565e-06
-5.56649e-08
1.84123e-06
-5.37894e-06
-6.13862e-08
1.96882e-06
-5.71746e-06
-6.64228e-08
2.06895e-06
-5.99796e-06
-7.02215e-08
2.143e-06
-6.22059e-06
-7.24849e-08
2.19244e-06
-6.38756e-06
-7.3177e-08
2.2183e-06
-6.50184e-06
-7.23904e-08
2.22109e-06
-6.56628e-06
-7.02233e-08
2.20105e-06
-6.58315e-06
-6.67319e-08
2.15833e-06
-6.55382e-06
-6.19641e-08
2.09335e-06
-6.47854e-06
-5.60305e-08
2.00703e-06
-6.35601e-06
-4.91147e-08
1.90072e-06
-6.18218e-06
-4.11547e-08
1.77706e-06
-5.94798e-06
-3.2289e-08
1.64177e-06
-5.63576e-06
-2.33029e-08
1.50517e-06
-5.21339e-06
-1.52033e-08
1.38136e-06
-4.62862e-06
-8.85204e-09
1.28149e-06
-3.80737e-06