/*--------------------------------*- C++ -*----------------------------------*\
| =========                 |                                                 |
| \\      /  F ield         | OpenFOAM: The Open Source CFD Toolbox           |
|  \\    /   O peration     | Version:  v1906                                 |
|   \\  /    A nd           | Web:      www.OpenFOAM.com                      |
|    \\/     M anipulation  |                                                 |
\*---------------------------------------------------------------------------*/
FoamFile
{
    version     2.0;
    format      ascii;
    class       volVectorField;
    location    "33";
    object      U;
}
// * * * * * * * * * * * * * * * * * * * * * * * * * * * * * * * * * * * * * //

dimensions      [0 1 -1 0 0 0 0];


internalField   nonuniform List<vector> 
78750
(
(-0.0139294 -0.00787206 -0.00328096)
(-0.0139556 -0.016599 -0.00807948)
(-0.0118062 -0.0173427 -0.00921984)
(-0.00960007 -0.0167082 -0.00938298)
(-0.007726 -0.0155847 -0.00910111)
(-0.00579555 -0.0142868 -0.00862975)
(-0.00391715 -0.0129929 -0.0081263)
(-0.0021518 -0.0117496 -0.00762866)
(-0.000528543 -0.0105757 -0.00713522)
(0.000948416 -0.00948741 -0.00665884)
(0.00228727 -0.00849765 -0.00621074)
(0.00350081 -0.00760745 -0.00579526)
(0.00461025 -0.00681158 -0.00541204)
(0.00563446 -0.0061023 -0.00505811)
(0.00658812 -0.00547075 -0.00472909)
(0.00748221 -0.00490745 -0.00441988)
(0.00832432 -0.0044024 -0.00412499)
(0.00911882 -0.00394521 -0.00383877)
(0.009867 -0.00352501 -0.00355535)
(0.0105672 -0.00313045 -0.00326858)
(0.0112148 -0.00274967 -0.00297191)
(0.011802 -0.00237018 -0.00265812)
(0.0123179 -0.00197892 -0.00231921)
(0.0127481 -0.00156241 -0.00194632)
(0.0130722 -0.00110693 -0.00152985)
(0.0132632 -0.000598185 -0.00105884)
(0.0132899 -2.19851e-05 -0.000520133)
(0.0131162 0.000634964 0.000114812)
(0.0126866 0.00138688 0.000872679)
(0.0119453 0.00225393 0.00179296)
(0.0108098 0.0033058 0.00291115)
(0.00914393 0.00478898 0.00417058)
(0.00675026 0.00698919 0.00518373)
(0.00372248 0.00896711 0.00498574)
(0.000876486 0.00672169 0.00258563)
(-0.000902245 0.0076972 -0.00309449)
(-0.0031227 -0.00131705 -0.0130093)
(-0.00597395 -0.00893385 -0.0199582)
(-0.00834648 -0.0127524 -0.0232542)
(-0.0101384 -0.0136161 -0.0240662)
(-0.011458 -0.0129241 -0.0236017)
(-0.0123585 -0.0117504 -0.0226039)
(-0.0128324 -0.0105276 -0.0214486)
(-0.0129375 -0.00931343 -0.0202826)
(-0.0127779 -0.00822463 -0.0191594)
(-0.0124248 -0.00739393 -0.018138)
(-0.0119035 -0.00680934 -0.0172311)
(-0.0112366 -0.00641843 -0.0164383)
(-0.0104434 -0.00616537 -0.0157523)
(-0.00954064 -0.00600181 -0.0151622)
(-0.00854337 -0.00588816 -0.0146557)
(-0.00746558 -0.00579217 -0.0142205)
(-0.00632059 -0.00568724 -0.0138447)
(-0.00512142 -0.00555036 -0.013517)
(-0.00388073 -0.00536043 -0.0132258)
(-0.00261149 -0.00509681 -0.0129592)
(-0.00132766 -0.00473784 -0.0127039)
(-4.51154e-05 -0.00425981 -0.0124446)
(0.00121658 -0.00363589 -0.0121639)
(0.00243176 -0.00283438 -0.0118396)
(0.0035651 -0.0018172 -0.0114408)
(0.00456815 -0.000538921 -0.010922)
(0.00538528 0.00105774 -0.010216)
(0.00593903 0.00305252 -0.00924061)
(0.00615664 0.00559927 -0.00786841)
(0.00593008 0.00904417 -0.00587858)
(0.00507313 0.0137942 -0.00318545)
(0.00355221 0.0192982 -0.000390771)
(0.00177309 0.0223792 0.00135007)
(0.000223825 0.0156509 0.00125994)
(0.000237695 0.0153751 -0.00169903)
(-0.000167397 0.0245929 -0.00651628)
(-0.00156343 0.0262452 -0.00935778)
(-0.00323067 0.0247578 -0.00999917)
(-0.00496321 0.0216986 -0.00892373)
(-0.0065317 0.0177603 -0.00689063)
(-0.00783022 0.013548 -0.00462553)
(-0.00885742 0.00956125 -0.00252727)
(-0.00958122 0.00613147 -0.000687586)
(-0.00991373 0.00334908 0.000983409)
(-0.00990519 0.00110051 0.00247614)
(-0.00963224 -0.000758922 0.00374947)
(-0.0091599 -0.0023047 0.00478543)
(-0.00853838 -0.00357782 0.00558933)
(-0.00780883 -0.00460868 0.00617672)
(-0.007005 -0.00542029 0.00656773)
(-0.00615478 -0.00603165 0.00678198)
(-0.00528102 -0.00645906 0.00683469)
(-0.00440179 -0.00671573 0.00673476)
(-0.0035307 -0.00681007 0.00648432)
(-0.00267726 -0.00674314 0.00607916)
(-0.00184722 -0.00650541 0.00551024)
(-0.00104327 -0.00607234 0.00476614)
(-0.000266515 -0.00539853 0.00383761)
(0.000481549 -0.00440982 0.00272368)
(0.0012005 -0.00299792 0.00142977)
(0.0018771 -0.00102944 -1.62617e-05)
(0.00247692 0.00165062 -0.00152765)
(0.00295183 0.00522774 -0.00292553)
(0.00322838 0.00990828 -0.00394883)
(0.00320203 0.0157972 -0.00426836)
(0.00275068 0.0224934 -0.00364061)
(0.00192956 0.0282658 -0.00226746)
(0.000956796 0.0296837 -0.000773427)
(0.000110194 0.0188774 0.000222319)
(2.99347e-05 0.0101839 -0.000738082)
(0.000252599 0.0170772 -0.00345606)
(0.000322853 0.0178328 -0.00529403)
(0.000381957 0.0159212 -0.00597625)
(0.000413326 0.0126755 -0.00561452)
(0.000400512 0.00854897 -0.00435961)
(0.000362075 0.00399348 -0.00241221)
(0.000352465 -0.000544473 3.56429e-05)
(0.000420299 -0.00475599 0.00277664)
(0.00056989 -0.00851656 0.00557758)
(0.000751112 -0.0117475 0.00816109)
(0.00100339 -0.0144178 0.0103035)
(0.00134417 -0.0165372 0.0119189)
(0.00176937 -0.0181528 0.0130408)
(0.00226222 -0.0193193 0.0137599)
(0.00280252 -0.0200803 0.0141924)
(0.00337081 -0.0204687 0.0144536)
(0.00394553 -0.0205166 0.0146354)
(0.00450603 -0.0202544 0.0148038)
(0.00503267 -0.0197097 0.0150012)
(0.00550669 -0.0189049 0.0152481)
(0.00591006 -0.0178565 0.0155427)
(0.0062251 -0.0165716 0.0158566)
(0.00643619 -0.0150452 0.0161198)
(0.00653196 -0.0132422 0.0162105)
(0.00650871 -0.0110671 0.0159435)
(0.00636704 -0.00833667 0.0150696)
(0.00611082 -0.00477067 0.0133548)
(0.0057314 -8.79897e-06 0.0107514)
(0.0051862 0.00631886 0.00754455)
(0.00442785 0.0143805 0.00439627)
(0.00342079 0.0235804 0.00208359)
(0.00224804 0.0314591 0.00100382)
(0.00110244 0.033494 0.000800506)
(0.000171896 0.0211249 0.000686364)
(7.98934e-05 0.00914225 -0.000112499)
(0.000274207 0.016823 -0.00144515)
(0.000321402 0.0188744 -0.00244879)
(0.000239022 0.0180854 -0.00267529)
(4.81205e-05 0.0157916 -0.00196453)
(-0.000227312 0.012459 -0.000239936)
(-0.000565482 0.00835527 0.0023725)
(-0.000946237 0.00376308 0.00543791)
(-0.00130845 -0.00106056 0.0083031)
(-0.00158257 -0.00584048 0.0103341)
(-0.00174219 -0.0103092 0.0112219)
(-0.00177072 -0.0142606 0.0110648)
(-0.00166027 -0.0175785 0.0102123)
(-0.00141616 -0.0202244 0.00904338)
(-0.00105471 -0.0222112 0.00784313)
(-0.000601302 -0.0235816 0.00677477)
(-7.48839e-05 -0.0244022 0.00590217)
(0.000508991 -0.0247468 0.00524209)
(0.00113069 -0.0246756 0.00480054)
(0.00177228 -0.0242284 0.00458003)
(0.00241598 -0.0234246 0.00458478)
(0.00304092 -0.0222623 0.0048235)
(0.003629 -0.0207143 0.00531183)
(0.00415892 -0.0187353 0.00607044)
(0.00459646 -0.0162545 0.00710276)
(0.00490784 -0.0131487 0.00835257)
(0.00505933 -0.00920064 0.00963744)
(0.0050194 -0.00405683 0.0105654)
(0.00475925 0.00271595 0.0105585)
(0.00428705 0.0113509 0.00919303)
(0.00360716 0.0215317 0.00671671)
(0.00269209 0.0319147 0.00408249)
(0.00168405 0.0394516 0.00228638)
(0.000752567 0.0398293 0.00139072)
(6.66254e-05 0.0238824 0.000782353)
(-9.60796e-06 0.00725938 0.000478505)
(-7.2292e-06 0.0137803 0.000331592)
(-0.000113325 0.0156633 0.000192579)
(-0.000278422 0.0147637 0.000574374)
(-0.000479244 0.0120531 0.0016903)
(-0.000676098 0.00790308 0.00350395)
(-0.000815422 0.00274257 0.00562537)
(-0.000861695 -0.00293192 0.00748858)
(-0.00081975 -0.00865732 0.00863462)
(-0.000702058 -0.0140306 0.00892095)
(-0.000502186 -0.0187762 0.00853433)
(-0.000223653 -0.0227653 0.00780258)
(0.000125501 -0.025967 0.00700715)
(0.00052485 -0.028383 0.00631235)
(0.000961671 -0.0300884 0.00576211)
(0.00143068 -0.0312025 0.00533218)
(0.0019228 -0.0318233 0.00498939)
(0.0024304 -0.0320201 0.00470757)
(0.00294648 -0.0318394 0.00446879)
(0.00346187 -0.0313106 0.00426491)
(0.0039655 -0.0304475 0.00409852)
(0.00444509 -0.0292476 0.00398385)
(0.00488701 -0.0276899 0.00394746)
(0.00526807 -0.0257234 0.00403178)
(0.00557 -0.0232274 0.00430098)
(0.005767 -0.0200183 0.00484673)
(0.00581774 -0.0158793 0.00574758)
(0.00568952 -0.0104346 0.00697862)
(0.00536839 -0.00309021 0.00822961)
(0.00482608 0.00674717 0.00881249)
(0.00403476 0.0190169 0.00809171)
(0.00300808 0.0320301 0.00622871)
(0.00188951 0.0417263 0.00421294)
(0.000866405 0.0426471 0.00264924)
(0.000127726 0.0253396 0.00121486)
(-1.73941e-06 0.00646573 0.000995691)
(-2.13927e-05 0.0124695 0.00182932)
(-0.00014332 0.0142862 0.00236772)
(-0.000321213 0.0133537 0.00309456)
(-0.000527065 0.0104809 0.00421759)
(-0.000724072 0.00604154 0.00565521)
(-0.00087633 0.000527801 0.00705691)
(-0.000962532 -0.00548927 0.00805879)
(-0.0009727 -0.0114675 0.00850176)
(-0.000908184 -0.0169945 0.00847482)
(-0.000773398 -0.0218329 0.00818737)
(-0.000572959 -0.0258873 0.00782429)
(-0.000311116 -0.0291394 0.00748793)
(5.15961e-06 -0.0316007 0.00721323)
(0.000375052 -0.0333663 0.00699172)
(0.000800999 -0.0345479 0.00680475)
(0.00127261 -0.0352166 0.00663545)
(0.00178006 -0.0354165 0.00647368)
(0.00231198 -0.0351757 0.0063142)
(0.00285448 -0.0345092 0.00615592)
(0.00339227 -0.0334196 0.00600149)
(0.00390878 -0.0318954 0.0058577)
(0.00437981 -0.0299055 0.00573763)
(0.00478485 -0.0273703 0.00565858)
(0.00510689 -0.0241554 0.00564356)
(0.00531793 -0.0201023 0.00572926)
(0.00538807 -0.0149867 0.0059706)
(0.00528201 -0.00843607 0.00642153)
(0.00495569 8.18225e-05 0.00704498)
(0.00439325 0.0110288 0.00755431)
(0.00360667 0.0241885 0.00742284)
(0.00261228 0.0376716 0.00636392)
(0.00157999 0.047069 0.00480276)
(0.000679027 0.0468584 0.00319769)
(7.56671e-05 0.0271483 0.0013903)
(-3.26284e-05 0.00552817 0.00130069)
(-0.000113549 0.0105501 0.00278269)
(-0.000293058 0.0117925 0.00379957)
(-0.000511303 0.0103093 0.00476134)
(-0.000731664 0.00671899 0.00583573)
(-0.000910617 0.00145015 0.00692117)
(-0.00102533 -0.00486317 0.00776385)
(-0.00107819 -0.0115383 0.00819662)
(-0.00107227 -0.0179801 0.00823745)
(-0.00100926 -0.0237947 0.00803445)
(-0.000888167 -0.0288009 0.00774708)
(-0.000705785 -0.0329658 0.00747575)
(-0.000457212 -0.0363266 0.00725692)
(-0.000139055 -0.0389395 0.0070885)
(0.000243578 -0.0408672 0.00695369)
(0.000691334 -0.0421944 0.00683687)
(0.00119585 -0.0429843 0.00672117)
(0.00174063 -0.0432656 0.00659512)
(0.00231201 -0.0430536 0.00645277)
(0.00289479 -0.0423544 0.00629281)
(0.00347216 -0.0411658 0.00611882)
(0.00401906 -0.0394731 0.00594072)
(0.00451303 -0.0372272 0.00577132)
(0.00493534 -0.0343365 0.0056282)
(0.0052582 -0.0306914 0.00554203)
(0.00545493 -0.0261363 0.00556018)
(0.00550206 -0.0204043 0.00574297)
(0.00537469 -0.0130619 0.00613935)
(0.00504917 -0.00351352 0.00671889)
(0.00450038 0.00877084 0.00726321)
(0.00371737 0.0235663 0.00734685)
(0.00271941 0.038755 0.00662684)
(0.00167151 0.0493579 0.00527764)
(0.000743071 0.0492702 0.00362148)
(0.000110147 0.0283468 0.00153692)
(-2.04424e-05 0.00482455 0.00149446)
(-6.42148e-05 0.00902882 0.00342243)
(-0.000200894 0.00973085 0.00475138)
(-0.000379097 0.00775904 0.00579344)
(-0.000570951 0.00366991 0.0066756)
(-0.000750945 -0.00198432 0.00735165)
(-0.000904731 -0.00847101 0.00774375)
(-0.00102795 -0.0150959 0.00787611)
(-0.00111808 -0.0213526 0.00787262)
(-0.00116434 -0.0269744 0.00786979)
(-0.00115073 -0.0318806 0.00794327)
(-0.00106188 -0.0360795 0.00809761)
(-0.000886508 -0.0395962 0.00829589)
(-0.000619781 -0.0424459 0.00849339)
(-0.000267464 -0.0446357 0.00865768)
(0.000163966 -0.0462047 0.0087742)
(0.000666403 -0.0471821 0.00883874)
(0.00122066 -0.0475703 0.00884731)
(0.00181027 -0.0473658 0.00879714)
(0.00241939 -0.0465619 0.00868524)
(0.00302447 -0.0451476 0.00850837)
(0.00360308 -0.0430889 0.00826183)
(0.00413738 -0.0403138 0.00793571)
(0.00459905 -0.0367467 0.00752567)
(0.00495624 -0.032307 0.00704672)
(0.00518085 -0.0268621 0.00654987)
(0.00524574 -0.0201731 0.00613385)
(0.00512296 -0.0118358 0.00593403)
(0.00478393 -0.0012923 0.00605491)
(0.00421691 0.011905 0.00642315)
(0.0034333 0.0274045 0.00667243)
(0.00245966 0.0429322 0.00633284)
(0.0014761 0.0532834 0.00530757)
(0.000632195 0.0523846 0.0037504)
(7.93982e-05 0.0297255 0.00156565)
(-1.98554e-05 0.0039098 0.00150243)
(-3.57341e-05 0.00701032 0.00355123)
(-0.000125206 0.00703217 0.00497027)
(-0.000249538 0.0045826 0.00599994)
(-0.000396978 0.000145124 0.00676421)
(-0.000554742 -0.00569899 0.00730547)
(-0.00071575 -0.0122629 0.00767236)
(-0.000870101 -0.0189563 0.0079526)
(-0.000999873 -0.0253834 0.00823422)
(-0.00108194 -0.0313401 0.00855659)
(-0.00109395 -0.0367434 0.00890076)
(-0.00101947 -0.0415548 0.00921736)
(-0.000850542 -0.0457357 0.00946185)
(-0.000587817 -0.0492409 0.00961485)
(-0.000238753 -0.0520334 0.00968361)
(0.000184255 -0.0540984 0.00969141)
(0.000667752 -0.0554421 0.00966917)
(0.00119774 -0.0560812 0.00964197)
(0.00176114 -0.056023 0.00962441)
(0.00234383 -0.0552568 0.00961993)
(0.00293122 -0.0537471 0.00962008)
(0.00350727 -0.0514345 0.00960183)
(0.00405021 -0.0482397 0.0095298)
(0.00453127 -0.0440717 0.00935708)
(0.00491619 -0.0388301 0.00903485)
(0.00516731 -0.0323911 0.00854179)
(0.00524921 -0.0245511 0.00791907)
(0.00513429 -0.0149515 0.00728885)
(0.00480602 -0.00308129 0.00681942)
(0.00425423 0.0114635 0.00660241)
(0.00348244 0.0282559 0.00648831)
(0.00251604 0.0448582 0.00610082)
(0.00153304 0.0557562 0.00519363)
(0.000676565 0.0546871 0.00372109)
(9.92607e-05 0.0308585 0.00153774)
(-2.15545e-05 0.00305084 0.00150078)
(-4.06297e-05 0.00504624 0.00361534)
(-0.000120986 0.00438389 0.005091)
(-0.000226225 0.0015489 0.00613309)
(-0.000349612 -0.00303162 0.00687463)
(-0.000484863 -0.00881877 0.00740214)
(-0.000627949 -0.0152349 0.00780088)
(-0.000765763 -0.0218114 0.00814648)
(-0.000875955 -0.0282437 0.00847156)
(-0.000932809 -0.0343624 0.00875084)
(-0.000915013 -0.040062 0.00892407)
(-0.000811493 -0.0452427 0.00893991)
(-0.000622995 -0.0497958 0.00878925)
(-0.00035937 -0.0536242 0.00850995)
(-3.44259e-05 -0.0566697 0.00816746)
(0.00033904 -0.0589208 0.00782918)
(0.000750479 -0.0603976 0.00754826)
(0.00119175 -0.0611275 0.0073606)
(0.00165672 -0.0611259 0.00728754)
(0.00213998 -0.0603832 0.00733823)
(0.00263595 -0.058855 0.00751085)
(0.0031375 -0.0564526 0.00779047)
(0.003633 -0.053041 0.00813985)
(0.00410105 -0.0484502 0.00848451)
(0.00450647 -0.0425103 0.00870922)
(0.00480122 -0.0350788 0.00868848)
(0.00493185 -0.0260113 0.00835664)
(0.00485249 -0.0150742 0.00778238)
(0.00453695 -0.00189777 0.00716679)
(0.00398788 0.0137845 0.0067047)
(0.00323043 0.0314108 0.0063786)
(0.00229785 0.0484086 0.00590913)
(0.00137436 0.0591246 0.00503638)
(0.000586291 0.0574054 0.00361905)
(7.22889e-05 0.0321 0.00147337)
(-2.63406e-05 0.00236658 0.00142794)
(-7.67464e-05 0.00337808 0.00351112)
(-0.00020381 0.00197066 0.00497655)
(-0.000362233 -0.00140868 0.00599633)
(-0.000540762 -0.00634809 0.0067113)
(-0.000728251 -0.0123334 0.00723628)
(-0.000910313 -0.0188857 0.00766238)
(-0.00106492 -0.0256506 0.00801525)
(-0.0011654 -0.0323973 0.00823753)
(-0.00118861 -0.0389533 0.00822401)
(-0.00112268 -0.0451405 0.0078929)
(-0.000969854 -0.0507615 0.00724328)
(-0.000743589 -0.055636 0.00636229)
(-0.000462368 -0.0596479 0.00538619)
(-0.000144019 -0.0627653 0.0044485)
(0.000200026 -0.0650235 0.00364759)
(0.000562212 -0.0664869 0.00304202)
(0.000937556 -0.067215 0.00266232)
(0.00132481 -0.0672427 0.00252382)
(0.00172331 -0.0665703 0.00263571)
(0.00213282 -0.0651534 0.00300537)
(0.00255297 -0.0628884 0.00363766)
(0.00298139 -0.0595932 0.00452549)
(0.00340909 -0.0549966 0.00562119)
(0.00381372 -0.0487783 0.00679196)
(0.0041533 -0.040648 0.00779652)
(0.00436655 -0.0304081 0.00834883)
(0.00438618 -0.0179356 0.00828852)
(0.00416401 -0.00310404 0.00773682)
(0.00369031 0.0141059 0.00702786)
(0.00299308 0.0329596 0.00639632)
(0.00211829 0.0507493 0.00574711)
(0.00125611 0.061654 0.00484346)
(0.000525706 0.0595555 0.00346345)
(6.2269e-05 0.0330591 0.00138681)
(-5.72614e-07 0.00177575 0.00126754)
(1.43499e-05 0.00214158 0.00320027)
(-5.47398e-05 0.000330573 0.00459902)
(-0.000172209 -0.00329752 0.00559307)
(-0.000324299 -0.00836238 0.00630559)
(-0.00049121 -0.014423 0.00682196)
(-0.000648849 -0.0210996 0.00715889)
(-0.000769127 -0.0281013 0.00724241)
(-0.000827305 -0.0351799 0.00695053)
(-0.000809468 -0.0420728 0.00620045)
(-0.000715325 -0.0484946 0.00501876)
(-0.000555642 -0.0541815 0.00354649)
(-0.000346691 -0.0589511 0.0019825)
(-0.000104956 -0.0627366 0.000508715)
(0.000157043 -0.0655759 -0.000756555)
(0.000431216 -0.0675644 -0.00176116)
(0.000712911 -0.0688062 -0.00249458)
(0.00100022 -0.0693818 -0.00296185)
(0.00129209 -0.0693376 -0.00316976)
(0.00158816 -0.0686827 -0.00311594)
(0.00188784 -0.0673817 -0.0027825)
(0.00219149 -0.0653364 -0.00213646)
(0.00250046 -0.0623543 -0.00112899)
(0.00281417 -0.0581141 0.000288932)
(0.00312502 -0.0521698 0.00210598)
(0.00341017 -0.0440212 0.00415031)
(0.00362341 -0.0332509 0.00603317)
(0.00369498 -0.0196597 0.00727287)
(0.00355317 -0.00331517 0.00761164)
(0.00316593 0.0153958 0.00723005)
(0.00255624 0.035346 0.00652939)
(0.00177659 0.0536014 0.00570726)
(0.00102227 0.0642794 0.00471457)
(0.000402004 0.0615343 0.00333391)
(3.64356e-05 0.0338111 0.00131475)
(5.56117e-06 0.000940909 0.00103372)
(9.16136e-05 0.000506965 0.00269959)
(0.000126675 -0.00168889 0.00396132)
(0.000111631 -0.00551102 0.0048876)
(5.33709e-05 -0.0106968 0.00553975)
(-3.16079e-05 -0.0168954 0.00592932)
(-0.000117187 -0.02377 0.00600413)
(-0.000178059 -0.0310078 0.00567382)
(-0.000197559 -0.0382921 0.00488122)
(-0.000167978 -0.045291 0.00366678)
(-8.98096e-05 -0.0516878 0.00217735)
(3.15006e-05 -0.0572329 0.000614378)
(0.000189413 -0.0617872 -0.000840859)
(0.000376384 -0.0653324 -0.00207855)
(0.000585089 -0.0679435 -0.00306556)
(0.000809351 -0.0697371 -0.00381715)
(0.00104306 -0.0708236 -0.00436385)
(0.00128183 -0.0712843 -0.00473783)
(0.00152298 -0.0711632 -0.00495584)
(0.00176101 -0.0704745 -0.00501686)
(0.00199311 -0.0692002 -0.00490434)
(0.00221753 -0.0672582 -0.00457532)
(0.00243365 -0.0644732 -0.00396137)
(0.00264087 -0.0605413 -0.00295838)
(0.00283667 -0.0549885 -0.00144894)
(0.00301238 -0.047183 0.000603068)
(0.00314761 -0.0364677 0.00299161)
(0.0031968 -0.0223894 0.00519352)
(0.00309186 -0.00496313 0.0065966)
(0.00277839 0.015145 0.00695592)
(0.00225446 0.0363486 0.0065347)
(0.00156445 0.0553364 0.00570729)
(0.000896626 0.0660536 0.00466025)
(0.000351243 0.0628874 0.00326523)
(3.66519e-05 0.0342757 0.00127404)
(1.88164e-05 -1.75016e-05 0.000819897)
(0.000186599 -0.0013665 0.00221299)
(0.000354504 -0.0039231 0.00331383)
(0.000496093 -0.00782237 0.00412739)
(0.00059752 -0.0129518 0.00465244)
(0.000662122 -0.0190531 0.00486039)
(0.000704542 -0.0258216 0.00470635)
(0.000741448 -0.0329378 0.00416307)
(0.000786345 -0.0400699 0.00326166)
(0.000847951 -0.0468858 0.00210602)
(0.000930527 -0.0530862 0.00084756)
(0.00103532 -0.0584439 -0.000364109)
(0.0011617 -0.0628348 -0.00142493)
(0.0013078 -0.0662446 -0.0022927)
(0.00147014 -0.0687438 -0.00297446)
(0.00164292 -0.0704351 -0.00350016)
(0.0018228 -0.0714287 -0.00390568)
(0.0020064 -0.0717963 -0.00421575)
(0.00218729 -0.0715715 -0.00444164)
(0.00235967 -0.0707732 -0.00458378)
(0.00251616 -0.0694029 -0.00463384)
(0.00265292 -0.0673952 -0.00456818)
(0.00276734 -0.0645829 -0.00433154)
(0.00285612 -0.0607079 -0.0038309)
(0.00291919 -0.0553373 -0.00292389)
(0.0029564 -0.0478365 -0.00145187)
(0.00296272 -0.0374169 0.000628198)
(0.00291882 -0.0233694 0.00303449)
(0.0027787 -0.00548648 0.00512024)
(0.00248579 0.0154956 0.00626103)
(0.00201698 0.0375976 0.00634168)
(0.00139856 0.057078 0.00568196)
(0.000804031 0.0676865 0.00464675)
(0.000320307 0.0640803 0.00324384)
(3.81372e-05 0.0346924 0.0012597)
(1.93377e-05 -0.00113573 0.000650945)
(0.000223016 -0.00372464 0.001771)
(0.000478112 -0.00686744 0.00267024)
(0.000742762 -0.0109619 0.00332621)
(0.000985265 -0.0160534 0.00371981)
(0.00119578 -0.0219941 0.00383258)
(0.0013796 -0.0285438 0.00365127)
(0.00154735 -0.0354161 0.00317986)
(0.00170783 -0.0422975 0.00245361)
(0.00186508 -0.0488686 0.00154514)
(0.00201901 -0.0548406 0.000554639)
(0.00216834 -0.0599963 -0.000414386)
(0.00231308 -0.0642185 -0.00128228)
(0.00245513 -0.0674942 -0.00200891)
(0.00259544 -0.069888 -0.00259104)
(0.00273422 -0.071492 -0.00304639)
(0.0028704 -0.0723915 -0.00339929)
(0.00300309 -0.0726512 -0.00366653)
(0.00312861 -0.072305 -0.00385806)
(0.00324062 -0.071372 -0.00398125)
(0.00333321 -0.0698431 -0.00403953)
(0.00340126 -0.0676529 -0.00402701)
(0.00343714 -0.0646769 -0.00391386)
(0.00343595 -0.0606891 -0.00364139)
(0.00339449 -0.0553065 -0.00310605)
(0.00331261 -0.047938 -0.00215401)
(0.00319059 -0.037786 -0.000634747)
(0.00302598 -0.0239795 0.00142801)
(0.00280298 -0.00604919 0.00362574)
(0.00248009 0.0154086 0.00526618)
(0.00201953 0.0382233 0.0058849)
(0.00142357 0.0582545 0.00554319)
(0.000847296 0.0689593 0.00461771)
(0.00036452 0.065133 0.00324118)
(5.51628e-05 0.0351626 0.00126088)
(3.30545e-06 -0.00208743 0.000590119)
(0.000157007 -0.0059492 0.00155844)
(0.000387938 -0.00979154 0.00233885)
(0.000661393 -0.0141603 0.00292761)
(0.000947736 -0.019255 0.00330943)
(0.00123454 -0.0250557 0.00345229)
(0.00152043 -0.0314022 0.00331027)
(0.00180555 -0.0380364 0.00284539)
(0.00208515 -0.0446387 0.00206379)
(0.00234953 -0.0508799 0.00103993)
(0.00258861 -0.0564817 -9.58165e-05)
(0.00279704 -0.0612608 -0.00120158)
(0.00297628 -0.0651413 -0.00217081)
(0.00313205 -0.0681369 -0.00295413)
(0.00327082 -0.0703131 -0.00355088)
(0.00339811 -0.0717461 -0.00398607)
(0.00351763 -0.0725018 -0.00429151)
(0.00363062 -0.0726274 -0.00449531)
(0.00373634 -0.07215 -0.00461548)
(0.00383182 -0.0710738 -0.00466494)
(0.00391294 -0.0693764 -0.00465107)
(0.00397297 -0.066993 -0.00456794)
(0.00400305 -0.0638014 -0.00439596)
(0.003992 -0.0595914 -0.00409466)
(0.00392725 -0.054024 -0.00359135)
(0.00379767 -0.0465806 -0.00277222)
(0.003598 -0.0365228 -0.0015003)
(0.00333159 -0.0229585 0.000286602)
(0.00300463 -0.00522908 0.00238204)
(0.00260753 0.0162919 0.00422858)
(0.00211217 0.0394348 0.00524013)
(0.00150221 0.0597932 0.0052357)
(0.000915313 0.070539 0.00448333)
(0.000410286 0.0665127 0.00317786)
(6.27258e-05 0.035874 0.00123114)
(-1.78439e-05 -0.00264383 0.000632232)
(2.5348e-05 -0.00756856 0.00164443)
(0.000123624 -0.0122367 0.00245059)
(0.000276509 -0.0171901 0.00304096)
(0.000474924 -0.0226898 0.00335887)
(0.000711989 -0.0287604 0.00331261)
(0.000979245 -0.0352349 0.0028208)
(0.00126268 -0.0418161 0.00187865)
(0.00154383 -0.0481618 0.000597347)
(0.00180564 -0.0539724 -0.000822287)
(0.0020383 -0.0590473 -0.00216774)
(0.00224131 -0.0632966 -0.00328991)
(0.00242086 -0.0667173 -0.00413224)
(0.00258435 -0.0693554 -0.00471257)
(0.00273895 -0.0712684 -0.00508437)
(0.00289086 -0.0725101 -0.00530751)
(0.00304378 -0.0731225 -0.00543233)
(0.00319926 -0.0731329 -0.00549462)
(0.00335716 -0.0725524 -0.00551728)
(0.00351604 -0.0713727 -0.00551031)
(0.00367254 -0.0695576 -0.00547117)
(0.00382056 -0.0670221 -0.00538685)
(0.0039497 -0.0636207 -0.00523225)
(0.00404366 -0.0591249 -0.00496425)
(0.00407954 -0.053205 -0.00451237)
(0.00403056 -0.0454035 -0.00377198)
(0.00387335 -0.0350905 -0.0026162)
(0.00359817 -0.0214705 -0.000963597)
(0.0032158 -0.00384413 0.00107023)
(0.00274666 0.0176199 0.00304332)
(0.00219526 0.0409085 0.0043595)
(0.00155068 0.061513 0.00468225)
(0.000944322 0.0723304 0.00414253)
(0.000421658 0.0681372 0.00295569)
(5.69826e-05 0.0367313 0.00111375)
(-1.25018e-05 -0.00280679 0.000652349)
(-9.02247e-06 -0.0082778 0.00174193)
(1.13281e-05 -0.0135636 0.00255236)
(7.60938e-05 -0.0191042 0.00299)
(0.00018861 -0.0250863 0.00293809)
(0.000344465 -0.0314584 0.00231672)
(0.000530191 -0.0379903 0.00116256)
(0.000727368 -0.0443762 -0.000337496)
(0.000919699 -0.0503393 -0.00190225)
(0.00109864 -0.0556941 -0.00326909)
(0.00126429 -0.060352 -0.00428552)
(0.0014217 -0.064292 -0.00492849)
(0.00157635 -0.0675253 -0.00526366)
(0.00173272 -0.070071 -0.00538884)
(0.001894 -0.0719515 -0.00539567)
(0.0020621 -0.0731909 -0.00535262)
(0.00223804 -0.0738116 -0.00530302)
(0.00242289 -0.07383 -0.00526923)
(0.00261763 -0.0732474 -0.00525883)
(0.00282113 -0.0720484 -0.00527036)
(0.0030321 -0.0701867 -0.00529371)
(0.00324751 -0.0675536 -0.0053091)
(0.00345968 -0.0639701 -0.0052875)
(0.00365393 -0.0591642 -0.00518349)
(0.00380463 -0.0527738 -0.00492443)
(0.00387496 -0.0443575 -0.00440195)
(0.00382328 -0.0333803 -0.00348119)
(0.00361672 -0.0192073 -0.00205654)
(0.00325035 -0.00128397 -0.000182023)
(0.0027528 0.0202315 0.00178822)
(0.00216073 0.043478 0.00328151)
(0.00149068 0.0640069 0.00386411)
(0.000884793 0.0745953 0.003537)
(0.000378314 0.0700257 0.00251344)
(3.8169e-05 0.0376295 0.000883877)
(4.88293e-06 -0.00306021 0.000537473)
(6.68432e-05 -0.00895723 0.00148235)
(0.000139075 -0.0147011 0.00204287)
(0.000234225 -0.0206781 0.00204982)
(0.000353624 -0.026969 0.00143018)
(0.000491414 -0.033444 0.000262059)
(0.000637268 -0.0398694 -0.00121603)
(0.000782314 -0.0460128 -0.00268344)
(0.000923292 -0.0517068 -0.00386651)
(0.00106213 -0.0568562 -0.00463196)
(0.00120241 -0.0614089 -0.00499358)
(0.00134575 -0.0653275 -0.00505529)
(0.00149104 -0.0685816 -0.0049438)
(0.00163596 -0.0711581 -0.0047647)
(0.00177888 -0.0730654 -0.00458702)
(0.00191989 -0.0743267 -0.00444729)
(0.00206062 -0.0749674 -0.00436024)
(0.00220358 -0.0750043 -0.00432839)
(0.00235176 -0.0744397 -0.00434666)
(0.00250781 -0.0732541 -0.00440665)
(0.00267441 -0.0713943 -0.00449847)
(0.00285316 -0.0687399 -0.00460534)
(0.00304351 -0.065079 -0.00470443)
(0.00323864 -0.0600818 -0.00475992)
(0.00341935 -0.0533155 -0.00470945)
(0.0035492 -0.0442923 -0.00445016)
(0.00357662 -0.0325047 -0.00384187)
(0.00344747 -0.017456 -0.00275374)
(0.00312922 0.00119024 -0.00117877)
(0.00264042 0.0231064 0.000621836)
(0.00203705 0.0464315 0.00213187)
(0.00136341 0.0667965 0.00286892)
(0.000778423 0.0769871 0.00272293)
(0.000312902 0.0719086 0.00189448)
(1.93692e-05 0.0384376 0.000578308)
(2.59358e-05 -0.00362783 0.000266486)
(0.000189593 -0.0100749 0.000761986)
(0.000395782 -0.016095 0.000869136)
(0.000621848 -0.0221638 0.000447335)
(0.000848588 -0.028378 -0.000455191)
(0.00106533 -0.0346433 -0.00163021)
(0.0012662 -0.0408025 -0.00279254)
(0.00145305 -0.0467105 -0.00369818)
(0.00163089 -0.0522562 -0.00423112)
(0.0018015 -0.0573451 -0.00441149)
(0.00196366 -0.0618824 -0.00434336)
(0.00211309 -0.0657815 -0.00414905)
(0.00224507 -0.0689896 -0.003924)
(0.00235681 -0.0714997 -0.0037227)
(0.00244818 -0.0733389 -0.00356709)
(0.00252106 -0.0745459 -0.00346136)
(0.00257851 -0.0751538 -0.00340287)
(0.0026243 -0.0751822 -0.00338761)
(0.00266282 -0.0746335 -0.00341194)
(0.00269906 -0.0734872 -0.00347206)
(0.00273853 -0.0716876 -0.00356357)
(0.00278752 -0.0691087 -0.00367825)
(0.00285209 -0.0655152 -0.00380356)
(0.00293579 -0.0605202 -0.00391811)
(0.0030336 -0.0535931 -0.00397927)
(0.00312256 -0.0441378 -0.00390494)
(0.00315526 -0.0315944 -0.00356873)
(0.00306637 -0.0155506 -0.00283603)
(0.00279957 0.00407165 -0.0016584)
(0.00234895 0.0266265 -0.000200953)
(0.00177098 0.0500742 0.00112477)
(0.00113556 0.0700608 0.00185789)
(0.000609865 0.0795521 0.00182222)
(0.000221505 0.0737441 0.00119648)
(5.18917e-07 0.039115 0.000258017)
(3.09142e-05 -0.00447345 -3.3345e-05)
(0.000242666 -0.0117999 -7.45848e-05)
(0.000539955 -0.0181796 -0.000364994)
(0.000876119 -0.0242811 -0.00096198)
(0.00121575 -0.0303337 -0.00175483)
(0.00154158 -0.0363524 -0.00255031)
(0.00184616 -0.0422646 -0.00316856)
(0.00212763 -0.0479665 -0.00351568)
(0.00238466 -0.0533378 -0.00360087)
(0.00261395 -0.0582454 -0.00350276)
(0.00281085 -0.0625652 -0.00331711)
(0.00297181 -0.0662136 -0.00311726)
(0.00309603 -0.0691647 -0.00294173)
(0.00318503 -0.0714394 -0.0028023)
(0.00324121 -0.0730807 -0.00269758)
(0.00326691 -0.0741315 -0.0026227)
(0.00326425 -0.0746243 -0.00257369)
(0.00323546 -0.0745768 -0.00254875)
(0.00318333 -0.0739901 -0.002548)
(0.00311167 -0.0728441 -0.00257251)
(0.00302527 -0.0710861 -0.00262293)
(0.00293113 -0.0685959 -0.00269712)
(0.00283799 -0.065141 -0.00278927)
(0.00275632 -0.0603124 -0.00288749)
(0.00269656 -0.0535006 -0.00296579)
(0.00266062 -0.0439654 -0.00296708)
(0.00262598 -0.0309922 -0.00279313)
(0.0025367 -0.0141251 -0.00233294)
(0.00232075 0.00651506 -0.00153805)
(0.00193849 0.0298758 -0.0005091)
(0.00142815 0.0535689 0.000471275)
(0.000874641 0.0731403 0.001041)
(0.000437484 0.0818497 0.00102849)
(0.000140976 0.0752499 0.000585665)
(-8.13362e-06 0.039584 1.70878e-05)
(2.02189e-05 -0.00522873 -0.000231377)
(0.000197092 -0.0135012 -0.000661684)
(0.000486376 -0.0203385 -0.00115849)
(0.000840495 -0.0265508 -0.00170651)
(0.00122177 -0.0325026 -0.00221061)
(0.00160684 -0.0383135 -0.00256974)
(0.001981 -0.0439692 -0.00273204)
(0.00233338 -0.0493809 -0.00271267)
(0.00265427 -0.0544223 -0.00257401)
(0.00293524 -0.058964 -0.00238836)
(0.00317094 -0.0629071 -0.00220888)
(0.00336006 -0.0662018 -0.00206118)
(0.0035043 -0.0688437 -0.00195051)
(0.00360641 -0.0708572 -0.00187242)
(0.0036687 -0.072277 -0.00181977)
(0.00369248 -0.0731366 -0.00178597)
(0.00367826 -0.0734623 -0.00176607)
(0.00362622 -0.0732691 -0.001757)
(0.00353672 -0.0725589 -0.00175745)
(0.00341073 -0.071315 -0.00176745)
(0.00324987 -0.0694907 -0.0017877)
(0.00305808 -0.0669785 -0.00181787)
(0.0028421 -0.0635684 -0.00185474)
(0.00261292 -0.0588773 -0.00189028)
(0.00238854 -0.0522903 -0.00190769)
(0.00219334 -0.0429742 -0.00187069)
(0.00204292 -0.0300164 -0.00171399)
(0.00191914 -0.0127598 -0.00136784)
(0.00175895 0.00865742 -0.000825697)
(0.00148891 0.0328054 -0.00018473)
(0.00109935 0.0567917 0.00038205)
(0.000662564 0.0759322 0.000673095)
(0.000322246 0.0838719 0.000599616)
(0.000101655 0.0764797 0.00027943)
(-4.45245e-06 0.0399323 -4.23189e-05)
(3.84909e-06 -0.00566531 -0.000276304)
(9.54155e-05 -0.0147121 -0.000834312)
(0.000294984 -0.022099 -0.00132649)
(0.000575812 -0.028642 -0.00169555)
(0.000912305 -0.0347533 -0.00189755)
(0.00128195 -0.0405918 -0.00192931)
(0.00166422 -0.0461616 -0.00183226)
(0.00204007 -0.0513828 -0.00167253)
(0.0023928 -0.0561468 -0.00151165)
(0.0027097 -0.0603564 -0.00138703)
(0.00298304 -0.0639493 -0.00130994)
(0.00320965 -0.0669019 -0.00127507)